# Forces      
# CofR        : (0.000000e+00 0.000000e+00 0.000000e+00)
# Time        forces(pressure viscous)	moments(pressure viscous)
0             	((0.000000e+00 0.000000e+00 0.000000e+00) (0.000000e+00 0.000000e+00 0.000000e+00)) ((0.000000e+00 0.000000e+00 0.000000e+00) (0.000000e+00 0.000000e+00 0.000000e+00))
0.012         	((1.156337e-08 -7.211531e-07 -1.335958e-09) (2.707298e-10 -1.864898e-08 6.290212e-11)) ((1.835439e-13 -7.862168e-14 1.666290e-08) (-6.732923e-14 1.651599e-12 2.214586e-05))
0.0264        	((1.991221e-08 -1.135668e-07 2.276294e-10) (7.749803e-10 -2.717811e-08 9.543297e-11)) ((-4.623723e-14 1.607468e-12 8.039986e-09) (-4.710217e-13 4.195862e-12 2.029090e-05))
0.04368       	((4.330476e-08 -3.645109e-07 -5.991106e-09) (8.320435e-10 -2.913510e-08 1.617482e-10)) ((7.043576e-13 2.244337e-12 4.882558e-09) (-1.447104e-12 8.785297e-12 1.839961e-05))
0.064416      	((2.961058e-08 3.874361e-10 1.618097e-09) (4.461751e-10 -2.621250e-08 2.985259e-10)) ((1.070852e-13 1.874781e-12 3.179999e-09) (-2.079840e-12 1.437759e-11 1.652740e-05))
0.0892992     	((6.250173e-08 -1.823971e-07 -4.945729e-09) (7.292432e-10 -2.301273e-08 4.471203e-10)) ((1.390785e-12 2.932414e-12 2.731028e-09) (-3.589650e-13 2.043605e-11 1.474146e-05))
0.119159      	((-3.727244e-09 -1.559990e-08 1.064608e-09) (1.984458e-09 -2.026768e-08 5.887010e-10)) ((8.884937e-13 1.855974e-12 2.314281e-09) (2.174135e-12 2.502065e-11 1.310271e-05))
0.154991      	((-2.186727e-08 -8.534177e-08 -3.105583e-09) (3.616651e-09 -1.747600e-08 6.402755e-10)) ((1.459614e-12 1.859558e-12 1.998538e-09) (1.097926e-12 2.500932e-11 1.164981e-05))
0.197989      	((-1.719849e-08 -2.047800e-08 -2.334756e-09) (3.725194e-09 -1.268478e-08 5.917217e-10)) ((9.179498e-13 1.561236e-12 1.714803e-09) (-2.973425e-12 2.191093e-11 1.038301e-05))
0.249587      	((-4.512278e-09 -5.632095e-08 1.838903e-09) (1.887539e-09 -7.681003e-09 5.442088e-10)) ((9.523977e-13 1.421699e-12 1.478061e-09) (-5.325178e-12 1.834872e-11 9.272107e-06))
0.311504      	((-1.812132e-08 -1.709976e-08 -1.506989e-09) (2.566665e-09 -5.988268e-09 5.490980e-10)) ((1.828703e-13 1.380005e-12 1.275744e-09) (-3.089678e-12 1.523054e-11 8.279380e-06))
0.385805      	((-2.557494e-08 -3.329519e-08 3.704441e-09) (5.605384e-09 -6.536436e-09 6.135604e-10)) ((-3.113643e-13 9.063718e-13 1.109541e-09) (4.099249e-13 1.811267e-11 7.390862e-06))
0.474966      	((-3.266966e-08 -2.094478e-08 8.928852e-10) (4.059286e-09 -8.203478e-09 7.209517e-10)) ((-8.123892e-13 2.698752e-13 9.575195e-10) (-4.894385e-12 1.972045e-11 6.602113e-06))
0.581959      	((-3.014593e-08 -6.825012e-08 1.755098e-09) (-1.224413e-09 -9.072832e-09 7.374054e-10)) ((-5.721243e-13 1.893562e-13 8.111448e-10) (-1.009870e-11 1.812479e-11 5.908887e-06))
0.710351      	((-1.815782e-08 -5.429168e-08 -2.636866e-09) (-6.684883e-09 -7.604715e-09 8.116478e-10)) ((-5.715170e-13 -5.066171e-13 6.835396e-10) (-7.605037e-12 1.554521e-11 5.303359e-06))
0.864421      	((-3.216405e-09 -7.967212e-08 -9.216801e-10) (-8.579974e-09 -2.512395e-09 7.557349e-10)) ((-1.048996e-12 -4.204544e-13 5.765414e-10) (4.408859e-12 9.786267e-12 4.774217e-06))
1.049306      	((-2.919131e-08 -8.129553e-08 -2.858603e-10) (-9.315421e-09 2.914127e-09 4.977022e-10)) ((-1.445688e-12 -5.325777e-13 4.872566e-10) (1.729905e-11 4.294177e-12 4.309313e-06))
1.271167      	((-2.677513e-08 -7.007797e-08 3.713663e-09) (-9.897462e-09 6.650990e-09 2.673597e-10)) ((-3.294520e-12 2.665054e-16 4.198124e-10) (2.306523e-11 1.306446e-11 3.898779e-06))
1.5374        	((9.032543e-09 -6.599403e-08 3.211271e-09) (-8.108361e-09 8.954258e-09 -2.595899e-10)) ((-5.171382e-12 1.283640e-12 3.613720e-10) (2.466862e-11 3.326568e-11 3.536018e-06))
1.85688       	((1.898098e-08 -6.361425e-08 5.748232e-09) (-8.649280e-09 1.113064e-08 -7.032540e-10)) ((-5.113777e-12 2.136527e-12 3.092234e-10) (2.260400e-11 5.867898e-11 3.217176e-06))
2.240256      	((4.441111e-08 -2.770901e-08 2.795797e-09) (-1.121849e-09 1.256769e-08 -1.391805e-09)) ((-4.636641e-12 2.204511e-12 2.675200e-10) (1.430142e-11 7.237434e-11 2.939344e-06))
2.700307      	((3.242364e-08 -4.208130e-08 1.800226e-09) (3.235372e-09 1.012195e-08 -1.143879e-09)) ((-5.669153e-12 1.711847e-12 2.297669e-10) (-2.199551e-11 5.287582e-11 2.698578e-06))
3.252369      	((7.783208e-09 -3.442033e-08 3.701330e-09) (-2.435253e-09 7.227217e-09 -8.997403e-10)) ((-3.675080e-12 1.073535e-12 1.953694e-10) (-6.021021e-11 3.174811e-11 2.489413e-06))
3.914842      	((-9.498268e-09 -1.059522e-08 5.811668e-09) (-2.913142e-10 5.956315e-09 -6.333958e-10)) ((-3.098292e-12 1.435586e-12 1.660871e-10) (-9.653165e-11 1.599836e-11 2.305905e-06))
4.709811      	((9.267463e-09 9.470872e-09 3.567521e-09) (4.598574e-09 3.206432e-09 -6.424043e-10)) ((-1.338264e-12 1.070458e-12 1.417537e-10) (-1.314035e-10 7.563760e-12 2.143005e-06))
5.663773      	((7.944096e-09 1.530888e-08 1.633249e-09) (7.002883e-09 8.922024e-10 -5.249575e-10)) ((3.806919e-13 1.102569e-12 1.226459e-10) (-1.587872e-10 -4.522465e-12 1.996872e-06))
6.808528      	((6.537905e-09 1.027039e-08 8.581792e-10) (4.236545e-09 2.278670e-09 -3.253656e-10)) ((6.768705e-13 2.154726e-12 1.084439e-10) (-1.640664e-10 -2.518783e-11 1.864685e-06))
8.182233      	((-4.008731e-10 6.727744e-09 2.801812e-11) (4.216608e-09 4.341414e-10 -3.320695e-10)) ((2.528558e-13 1.964731e-12 9.943327e-11) (-1.334902e-10 -3.127641e-11 1.744281e-06))
9.83068       	((9.077418e-09 6.133663e-10 -2.701601e-09) (7.455817e-09 -2.847824e-09 -9.617999e-10)) ((6.343689e-13 1.542595e-12 9.352998e-11) (-9.852536e-11 -3.946946e-11 1.634123e-06))
11.808816     	((1.620804e-09 -2.654435e-09 -1.728411e-09) (6.903314e-09 -4.639290e-09 -8.221692e-10)) ((5.614789e-13 3.922348e-13 8.940331e-11) (-6.669925e-11 -7.437241e-11 1.533458e-06))
14.182579     	((8.386251e-10 -6.504459e-09 -1.870069e-09) (1.748799e-09 -2.936795e-09 -4.753683e-10)) ((9.108502e-13 -2.150024e-13 8.505012e-11) (-2.375535e-11 -1.191967e-10 1.442251e-06))
17.031095     	((-1.149689e-08 -5.576447e-09 -1.077842e-09) (-2.075199e-09 -4.143875e-09 -1.307082e-09)) ((1.022462e-12 -3.422671e-14 8.144333e-11) (1.351997e-11 -1.422113e-10 1.360822e-06))
20.449314     	((-1.856502e-08 -8.411092e-09 -2.371804e-09) (-4.899579e-09 -4.889350e-09 -9.918300e-10)) ((1.224156e-12 1.451568e-13 7.814258e-11) (4.631670e-11 -1.435336e-10 1.289267e-06))
24.476379     	((-1.819967e-08 -2.551667e-09 -1.963185e-09) (-4.124347e-09 -4.952731e-09 -1.742447e-09)) ((1.130946e-12 6.722460e-13 7.482645e-11) (7.918784e-11 -1.453240e-10 1.228062e-06))
29.129684     	((-1.441508e-08 -7.315703e-09 -2.046376e-10) (-1.291670e-10 -1.690167e-09 -1.856050e-09)) ((9.191063e-13 1.330733e-12 7.131092e-11) (1.072865e-10 -1.392114e-10 1.177034e-06))
34.426229     	((-1.419797e-08 -1.037390e-08 -1.201893e-09) (4.134171e-09 4.441725e-10 -1.290984e-09)) ((7.729849e-13 1.476146e-12 6.771941e-11) (1.355963e-10 -1.270651e-10 1.135480e-06))
40.365953     	((-1.504898e-08 -1.715907e-08 -1.739277e-09) (4.794244e-09 -1.282263e-09 -1.035116e-09)) ((9.866645e-13 1.234886e-12 6.573640e-11) (1.408868e-10 -1.164410e-10 1.102543e-06))
46.797043     	((-7.426227e-09 -7.875261e-09 -4.133834e-09) (3.277110e-09 -2.719674e-09 -7.347062e-10)) ((1.454373e-12 1.017186e-12 6.454413e-11) (1.404780e-10 -9.957440e-11 1.077811e-06))
53.227245     	((1.163657e-09 -2.855288e-09 -5.451949e-09) (6.150312e-09 -7.976299e-10 -8.475700e-10)) ((1.667741e-12 7.722983e-13 6.309417e-11) (1.347379e-10 -9.189073e-11 1.061189e-06))
59.656525     	((9.936528e-09 6.857612e-09 -6.708384e-09) (9.605721e-09 2.704048e-09 -9.880176e-10)) ((1.365935e-12 7.822798e-13 6.147569e-11) (1.294175e-10 -9.754380e-11 1.051491e-06))
66.08474      	((9.241399e-09 1.247155e-08 -6.284258e-09) (9.840207e-09 4.648212e-09 -1.053740e-09)) ((9.574560e-13 8.977912e-13 5.938950e-11) (1.355055e-10 -1.111733e-10 1.047938e-06))
72.511745     	((4.745563e-09 1.364909e-08 -6.394368e-09) (4.385384e-09 4.544343e-09 -1.117654e-09)) ((8.244832e-13 1.083166e-12 5.741176e-11) (1.514711e-10 -1.114547e-10 1.049817e-06))
78.937481     	((-3.899926e-10 1.050370e-08 -5.952761e-09) (-4.368968e-10 5.535555e-09 -1.025036e-09)) ((6.585709e-13 1.160570e-12 5.617894e-11) (1.705310e-10 -1.018738e-10 1.056606e-06))
85.361906     	((-9.385062e-10 1.162882e-08 -6.049219e-09) (-5.237434e-10 4.568662e-09 -8.812521e-10)) ((6.895021e-13 1.156463e-12 5.516601e-11) (1.840907e-10 -8.363188e-11 1.067842e-06))
91.784738     	((-2.842830e-09 7.859903e-09 -5.579809e-09) (-1.177175e-09 3.695216e-09 -7.481597e-10)) ((6.985330e-13 1.145168e-12 5.444397e-11) (1.957331e-10 -5.802104e-11 1.083056e-06))
98.205734     	((-4.480796e-09 3.885991e-09 -5.381396e-09) (-1.400225e-09 3.326092e-09 -6.406713e-10)) ((7.511378e-13 1.028775e-12 5.441747e-11) (1.979585e-10 -3.469584e-11 1.101638e-06))
104.505336    	((-5.394205e-09 1.971041e-09 -5.087724e-09) (-1.596080e-09 3.504304e-09 -4.475351e-10)) ((7.373436e-13 9.817066e-13 5.523179e-11) (1.910413e-10 -1.766713e-11 1.122432e-06))
110.684038    	((-9.297808e-09 -5.755884e-09 -4.056025e-09) (-1.680682e-09 2.232690e-09 -1.277414e-10)) ((6.662589e-13 1.065263e-12 5.660249e-11) (1.749918e-10 -1.018961e-11 1.144036e-06))
116.756662    	((-7.340495e-09 -4.306232e-09 -5.096625e-09) (-1.393914e-09 1.293977e-09 7.880942e-11)) ((6.160866e-13 9.710301e-13 5.856411e-11) (1.545381e-10 -1.152503e-11 1.164876e-06))
122.73727     	((-3.083830e-09 -1.287297e-09 -5.800619e-09) (-2.569971e-10 5.011126e-10 3.598900e-10)) ((6.756507e-13 9.181979e-13 6.055548e-11) (1.364305e-10 -1.951192e-11 1.183609e-06))
128.641384    	((-3.612571e-09 -4.775337e-12 -7.394785e-09) (1.425202e-09 1.450541e-09 5.520174e-10)) ((8.037454e-13 9.405135e-13 6.184324e-11) (1.298161e-10 -3.764126e-11 1.199298e-06))
134.485774    	((-6.321760e-09 1.633948e-09 -8.798456e-09) (2.859435e-09 2.915630e-09 6.564224e-10)) ((9.483154e-13 1.015552e-12 6.275180e-11) (1.404732e-10 -6.355229e-11 1.211323e-06))
140.287056    	((-7.061862e-09 1.118947e-09 -9.788301e-09) (4.115687e-09 3.430535e-09 4.549129e-10)) ((1.143274e-12 1.070475e-12 6.298958e-11) (1.628510e-10 -8.534596e-11 1.219420e-06))
146.060425    	((-4.735122e-09 3.392095e-09 -8.251412e-09) (5.076693e-09 3.164261e-09 3.906173e-10)) ((1.233642e-12 1.230169e-12 6.276511e-11) (1.912848e-10 -1.031768e-10 1.223759e-06))
151.797915    	((-1.052033e-08 4.243406e-10 -7.114752e-09) (6.326133e-09 2.064385e-09 4.809139e-10)) ((1.242575e-12 1.454509e-12 6.211479e-11) (2.178175e-10 -1.132812e-10 1.224810e-06))
