# Forces      
# CofR        : (0.000000e+00 0.000000e+00 0.000000e+00)
# Time        forces(pressure viscous)	moments(pressure viscous)
0             	((0.000000e+00 0.000000e+00 0.000000e+00) (-2.766005e-14 2.527493e-15 -4.002081e-04)) ((0.000000e+00 0.000000e+00 0.000000e+00) (-7.541695e-16 -1.548815e-10 -6.989970e-17))
0.012         	((-3.936576e-08 -1.672897e-08 -1.163468e-01) (2.935201e-10 2.932950e-10 -4.588440e-04)) ((-4.449929e-11 -3.085339e-08 -3.258957e-13) (2.712250e-12 -4.452501e-10 -2.349399e-14))
0.0264        	((-2.120733e-06 -2.284846e-06 9.042216e-03) (-1.285514e-09 -1.324416e-09 -4.671091e-04)) ((2.601740e-11 2.113132e-09 1.230810e-11) (2.191618e-12 -5.881645e-10 -6.196298e-13))
0.04368       	((2.545155e-06 2.158839e-06 2.380680e-02) (-5.391280e-10 -1.383703e-09 -4.141439e-04)) ((2.766080e-10 5.392386e-09 -1.363750e-11) (-8.478879e-12 -5.919427e-10 -1.243376e-12))
0.064416      	((-2.156576e-07 -6.320033e-07 2.234118e-04) (-1.438111e-10 -8.971043e-10 -3.665327e-04)) ((-9.061623e-11 -1.883328e-10 7.946499e-12) (3.869357e-11 -7.743176e-10 1.445735e-12))
0.0892992     	((-3.984628e-07 4.238760e-07 -2.201294e-04) (-4.496594e-09 -1.971220e-09 -3.381877e-04)) ((-2.753095e-11 1.226310e-10 -4.373768e-12) (2.785328e-11 -9.063953e-10 1.249896e-11))
0.119159      	((-2.335749e-07 -2.087223e-07 3.940146e-04) (-8.372092e-09 -2.135432e-09 -3.121985e-04)) ((-1.889209e-11 2.068936e-10 7.435885e-13) (-3.259355e-11 -8.770427e-10 1.600572e-11))
0.154991      	((-2.844883e-07 -1.564353e-07 1.928982e-04) (-9.804894e-09 -2.359411e-09 -2.850133e-04)) ((-1.234928e-12 1.648119e-11 -1.861744e-12) (-8.840942e-11 -7.210231e-10 1.091011e-11))
0.197989      	((-2.068548e-08 -1.212779e-08 4.434689e-05) (-9.134488e-09 -2.322217e-09 -2.580451e-04)) ((5.346565e-12 -4.213643e-11 9.029236e-13) (-1.242959e-10 -5.563497e-10 8.822117e-12))
0.249587      	((2.816331e-08 -1.400401e-08 -8.598819e-06) (-8.315093e-09 -1.883255e-09 -2.321659e-04)) ((1.934034e-12 -6.738717e-11 7.468209e-14) (-1.151638e-10 -5.613652e-10 7.545308e-12))
0.311504      	((-1.983878e-08 -1.738249e-08 -3.401423e-05) (-8.166221e-09 -1.935753e-09 -2.081048e-04)) ((1.996708e-12 -7.451773e-11 3.891030e-13) (-1.030894e-10 -5.633596e-10 6.306026e-12))
0.385805      	((-3.472615e-08 -1.719631e-08 -4.813043e-05) (-7.447401e-09 -2.103052e-09 -1.864128e-04)) ((1.758402e-12 -8.578974e-11 4.547274e-13) (-9.051617e-11 -5.452097e-10 4.975554e-12))
0.474966      	((-2.193847e-08 -1.618973e-08 -5.521469e-05) (-6.141187e-09 -2.027252e-09 -1.673629e-04)) ((1.420376e-12 -8.296868e-11 3.443130e-13) (-8.375978e-11 -5.457990e-10 2.847361e-12))
0.581959      	((-2.020771e-08 -1.635078e-08 -5.816681e-05) (-4.649465e-09 -1.719321e-09 -1.506259e-04)) ((8.525988e-13 -7.773780e-11 3.379120e-13) (-7.141768e-11 -6.210931e-10 5.596232e-13))
0.710351      	((-1.136378e-08 -1.208813e-08 -5.808524e-05) (-3.442930e-09 -1.438243e-09 -1.356985e-04)) ((6.867789e-13 -7.305875e-11 1.915839e-13) (-5.714589e-11 -7.146536e-10 -9.197944e-13))
0.864421      	((-1.069531e-08 -9.119468e-09 -5.607166e-05) (-2.586597e-09 -1.207267e-09 -1.222917e-04)) ((4.490238e-13 -6.888378e-11 1.331031e-13) (-4.276172e-11 -7.649762e-10 -1.129152e-12))
1.049306      	((-7.557670e-09 -5.763868e-09 -5.299254e-05) (-1.998549e-09 -9.274377e-10 -1.102350e-04)) ((3.732055e-13 -6.326103e-11 3.907348e-14) (-3.334457e-11 -7.368808e-10 -1.018123e-12))
1.271167      	((-4.099597e-09 -2.740796e-09 -4.937822e-05) (-1.197206e-09 -6.396786e-10 -9.942828e-05)) ((2.507716e-13 -5.706918e-11 -2.094925e-14) (-3.138205e-11 -6.129611e-10 -1.004946e-12))
1.5374        	((-1.867085e-09 -6.138030e-10 -4.564120e-05) (-2.860913e-10 -4.340734e-10 -8.978671e-05)) ((1.558312e-13 -5.245081e-11 -4.325505e-14) (-3.092945e-11 -4.478407e-10 -7.511774e-13))
1.85688       	((1.887637e-09 -9.998248e-10 -4.212498e-05) (3.348126e-10 -3.192549e-10 -8.122461e-05)) ((1.468532e-13 -4.879500e-11 -6.545616e-14) (-3.016634e-11 -2.991325e-10 -6.126617e-13))
2.240256      	((1.724729e-09 -2.290972e-09 -3.900009e-05) (6.611100e-10 -2.579979e-10 -7.365253e-05)) ((8.420723e-14 -4.461921e-11 -7.674950e-14) (-3.225888e-11 -2.048994e-10 -7.264239e-13))
2.700307      	((-4.029667e-09 -3.560123e-09 -3.628221e-05) (4.291700e-10 -2.463074e-10 -6.696356e-05)) ((-1.079865e-14 -4.072924e-11 -5.901737e-14) (-3.610265e-11 -1.464145e-10 -3.308146e-13))
3.252369      	((-3.092441e-09 -4.006599e-09 -3.399486e-05) (-6.811134e-11 -2.968806e-10 -6.104951e-05)) ((-1.162988e-13 -3.770549e-11 -4.284412e-14) (-3.875733e-11 -1.499536e-10 3.886438e-13))
3.914842      	((-6.742211e-09 -5.231673e-09 -3.216487e-05) (-6.461429e-11 -4.023167e-10 -5.582866e-05)) ((-2.237806e-13 -3.518827e-11 -4.703888e-14) (-4.001020e-11 -1.658821e-10 8.652810e-13))
4.709811      	((-6.759846e-09 -7.621288e-09 -3.083559e-05) (3.568121e-11 -5.671956e-10 -5.124660e-05)) ((-2.925784e-13 -3.254465e-11 -4.237118e-14) (-3.629373e-11 -1.082116e-10 1.435584e-12))
5.663773      	((-1.098245e-08 -9.235646e-09 -2.999101e-05) (-2.576855e-10 -7.432724e-10 -4.725674e-05)) ((-2.912988e-13 -3.016304e-11 -4.633166e-14) (-2.583556e-11 -4.446843e-11 2.000617e-12))
6.808528      	((-1.568686e-08 -1.472190e-08 -2.969926e-05) (-8.550821e-10 -1.018680e-09 -4.380374e-05)) ((-2.579393e-13 -2.837179e-11 -5.638373e-14) (-1.519894e-11 -4.507715e-11 2.546749e-12))
8.182233      	((-1.836992e-08 -1.554672e-08 -2.996277e-05) (-1.428111e-09 -1.273134e-09 -4.082641e-05)) ((-2.687707e-13 -2.681973e-11 -4.218730e-14) (-3.796690e-12 -1.263068e-10 2.963486e-12))
9.83068       	((-1.904843e-08 -1.704606e-08 -3.077024e-05) (-1.781452e-09 -1.611123e-09 -3.826719e-05)) ((-2.739559e-13 -2.509075e-11 -3.520897e-14) (2.367247e-12 -2.129436e-10 3.157697e-12))
11.808816     	((-2.149217e-08 -1.652976e-08 -3.209513e-05) (-2.256602e-09 -1.947610e-09 -3.608509e-05)) ((-2.340283e-13 -2.367184e-11 -3.187768e-14) (-2.261466e-12 -2.523948e-10 3.257210e-12))
14.182579     	((-1.815883e-08 -1.441145e-08 -3.388820e-05) (-2.557912e-09 -2.174962e-09 -3.425714e-05)) ((-2.326633e-13 -2.234639e-11 -1.863483e-14) (-1.220179e-11 -2.356537e-10 2.845178e-12))
17.031095     	((-1.291462e-08 -1.087588e-08 -3.606821e-05) (-2.811679e-09 -2.284730e-09 -3.274641e-05)) ((-1.930073e-13 -2.131256e-11 -1.255513e-14) (-1.874717e-11 -1.862547e-10 2.819970e-12))
20.416174     	((-1.159196e-08 -9.210481e-09 -3.855890e-05) (-3.026176e-09 -2.291426e-09 -3.154037e-05)) ((-2.259154e-13 -2.008014e-11 -1.582353e-14) (-1.945779e-11 -1.503485e-10 3.068346e-12))
24.34098      	((-1.217417e-08 -9.707983e-09 -4.115076e-05) (-3.199380e-09 -2.358730e-09 -3.061251e-05)) ((-1.733392e-13 -1.923008e-11 -3.912070e-15) (-1.871860e-11 -1.608146e-10 3.424366e-12))
28.806765     	((-1.391428e-08 -7.664942e-09 -4.362897e-05) (-3.535393e-09 -2.378926e-09 -2.990244e-05)) ((-7.748600e-14 -1.848348e-11 1.555547e-14) (-1.923516e-11 -2.065674e-10 3.580958e-12))
33.81228      	((-1.168493e-08 -4.749943e-09 -4.580906e-05) (-3.334550e-09 -1.870625e-09 -2.933650e-05)) ((-4.394543e-14 -1.804415e-11 -5.179370e-16) (-1.114385e-11 -3.171739e-10 3.405064e-12))
39.183669     	((-8.558225e-09 5.196295e-10 -4.766275e-05) (-2.826495e-09 -8.130418e-10 -2.886094e-05)) ((2.871403e-14 -1.798719e-11 2.766630e-15) (5.136644e-12 -4.707385e-10 3.477100e-12))
44.53851      	((-5.879623e-09 4.822000e-09 -4.898807e-05) (-1.754657e-09 3.207799e-10 -2.846292e-05)) ((-1.577294e-14 -1.805312e-11 -1.439421e-14) (1.852250e-11 -6.109686e-10 3.196345e-12))
49.900987     	((-3.861793e-09 9.770122e-09 -4.970661e-05) (-5.493928e-10 1.382328e-09 -2.811078e-05)) ((6.010798e-14 -1.819126e-11 -1.132884e-14) (2.410027e-11 -6.894612e-10 2.873261e-12))
55.292791     	((-4.381871e-09 1.235530e-08 -5.001433e-05) (1.385525e-10 2.271166e-09 -2.778664e-05)) ((7.539765e-14 -1.831642e-11 -6.615799e-15) (2.830087e-11 -6.923625e-10 3.109536e-12))
60.721058     	((-6.594938e-09 1.322290e-08 -5.004186e-05) (3.179006e-10 2.750534e-09 -2.748141e-05)) ((8.311722e-14 -1.857630e-11 -7.075255e-16) (2.345874e-11 -6.838894e-10 3.317283e-12))
66.182319     	((-8.129593e-09 1.433821e-08 -4.989212e-05) (5.572041e-10 3.047582e-09 -2.719824e-05)) ((6.279796e-14 -1.866814e-11 -1.409036e-16) (1.478563e-11 -6.662971e-10 3.145865e-12))
71.671576     	((-1.083789e-08 1.385573e-08 -4.963291e-05) (6.531655e-10 3.107404e-09 -2.693639e-05)) ((5.039574e-14 -1.877624e-11 5.698534e-15) (-1.219892e-12 -6.321308e-10 2.988208e-12))
77.179322     	((-1.302539e-08 1.339183e-08 -4.932987e-05) (6.139024e-10 2.975401e-09 -2.669232e-05)) ((5.391320e-14 -1.884582e-11 8.515496e-15) (-2.163431e-11 -5.967058e-10 3.168302e-12))
82.699393     	((-1.470179e-08 1.235151e-08 -4.906521e-05) (3.626899e-10 2.727528e-09 -2.646742e-05)) ((7.351791e-15 -1.879854e-11 5.023824e-15) (-4.510238e-11 -5.454488e-10 2.717853e-12))
88.223745     	((-1.540544e-08 1.109935e-08 -4.886884e-05) (-9.200836e-11 2.307739e-09 -2.626327e-05)) ((1.721463e-14 -1.875497e-11 4.205564e-15) (-7.351764e-11 -4.810609e-10 2.637055e-12))
93.752104     	((-1.712422e-08 9.599319e-09 -4.869715e-05) (-6.578050e-10 1.792301e-09 -2.607819e-05)) ((2.691981e-14 -1.861823e-11 1.427280e-14) (-9.993666e-11 -4.123616e-10 2.861919e-12))
99.284172     	((-1.514652e-08 8.872780e-09 -4.853557e-05) (-1.147291e-09 1.292415e-09 -2.591019e-05)) ((2.581379e-14 -1.852160e-11 2.200406e-14) (-1.256916e-10 -3.370569e-10 2.826536e-12))
104.819662    	((-1.316465e-08 8.833230e-09 -4.837773e-05) (-1.513450e-09 8.350482e-10 -2.575799e-05)) ((-7.337162e-15 -1.833936e-11 3.939984e-14) (-1.483985e-10 -2.539230e-10 3.422487e-12))
110.358333    	((-8.228698e-09 1.034164e-08 -4.822306e-05) (-1.666357e-09 5.755585e-10 -2.561999e-05)) ((7.050134e-15 -1.822904e-11 4.854316e-14) (-1.683780e-10 -1.700006e-10 3.065497e-12))
115.899967    	((-2.104735e-09 1.328145e-08 -4.806910e-05) (-1.523816e-09 5.472305e-10 -2.549411e-05)) ((5.218596e-14 -1.810534e-11 5.641990e-14) (-1.841225e-10 -8.846000e-11 2.896393e-12))
121.444361    	((5.249924e-09 1.681096e-08 -4.792033e-05) (-1.138431e-09 7.171016e-10 -2.537883e-05)) ((1.196483e-13 -1.800675e-11 6.046772e-14) (-1.971340e-10 -1.660090e-11 3.432903e-12))
126.991333    	((1.162724e-08 1.862931e-08 -4.778865e-05) (-7.417701e-10 9.553270e-10 -2.527398e-05)) ((1.371931e-13 -1.787478e-11 6.737289e-14) (-2.058636e-10 3.334825e-11 3.655409e-12))
132.540718    	((1.624483e-08 2.034378e-08 -4.766136e-05) (-3.841730e-10 1.193718e-09 -2.517805e-05)) ((1.454682e-13 -1.772750e-11 7.022512e-14) (-2.115208e-10 6.654033e-11 3.378843e-12))
138.092361    	((2.303191e-08 2.267135e-08 -4.754459e-05) (2.472293e-10 1.505258e-09 -2.509068e-05)) ((1.684601e-13 -1.764631e-11 7.629321e-14) (-2.142367e-10 9.016745e-11 2.790601e-12))
143.646115    	((2.782113e-08 2.435263e-08 -4.740885e-05) (1.076180e-09 1.838076e-09 -2.500994e-05)) ((1.887318e-13 -1.754951e-11 7.932148e-14) (-2.140570e-10 1.082903e-10 2.877511e-12))
149.201844    	((3.179295e-08 2.499393e-08 -4.727570e-05) (1.988307e-09 2.161102e-09 -2.493427e-05)) ((2.012658e-13 -1.746401e-11 7.819726e-14) (-2.110994e-10 1.182280e-10 3.183453e-12))
154.759424    	((3.597142e-08 2.615553e-08 -4.714747e-05) (2.943844e-09 2.490473e-09 -2.486309e-05)) ((2.270405e-13 -1.738961e-11 7.179980e-14) (-2.061837e-10 1.206309e-10 3.314546e-12))
160.318742    	((4.088954e-08 2.775782e-08 -4.702395e-05) (4.013807e-09 2.858296e-09 -2.479578e-05)) ((2.568598e-13 -1.731119e-11 6.819139e-14) (-1.997956e-10 1.178648e-10 3.411986e-12))
165.879697    	((4.652714e-08 2.976561e-08 -4.690942e-05) (5.167738e-09 3.271869e-09 -2.473264e-05)) ((2.864680e-13 -1.724824e-11 6.807460e-14) (-1.940330e-10 1.124690e-10 3.588984e-12))
171.442196    	((5.223292e-08 3.122876e-08 -4.679489e-05) (6.329451e-09 3.649585e-09 -2.467338e-05)) ((2.999204e-13 -1.718699e-11 6.940056e-14) (-1.891856e-10 1.062765e-10 4.050161e-12))
177.006154    	((5.812699e-08 3.320409e-08 -4.668391e-05) (7.498949e-09 4.015647e-09 -2.461769e-05)) ((3.103085e-13 -1.712007e-11 7.041435e-14) (-1.861859e-10 1.000561e-10 4.041209e-12))
182.571494    	((6.544358e-08 3.577369e-08 -4.658343e-05) (8.732382e-09 4.387925e-09 -2.456569e-05)) ((3.326781e-13 -1.707716e-11 7.090979e-14) (-1.849445e-10 9.607595e-11 3.894834e-12))
188.138142    	((7.195412e-08 3.870076e-08 -4.649200e-05) (9.988416e-09 4.822914e-09 -2.451724e-05)) ((3.639604e-13 -1.701555e-11 7.322626e-14) (-1.841467e-10 9.532096e-11 3.659193e-12))
193.706032    	((7.833340e-08 4.217286e-08 -4.641553e-05) (1.119321e-08 5.319482e-09 -2.447265e-05)) ((4.055033e-13 -1.696978e-11 7.504205e-14) (-1.822867e-10 9.756443e-11 3.643765e-12))
199.275101    	((8.655459e-08 4.616788e-08 -4.634373e-05) (1.238968e-08 5.857277e-09 -2.443181e-05)) ((4.544884e-13 -1.697202e-11 7.300244e-14) (-1.815383e-10 1.024113e-10 3.628726e-12))
204.845283    	((9.509402e-08 5.112825e-08 -4.626811e-05) (1.366868e-08 6.489225e-09 -2.439394e-05)) ((5.222257e-13 -1.700191e-11 7.209651e-14) (-1.820550e-10 1.098998e-10 3.583689e-12))
210.416507    	((1.036506e-07 5.535067e-08 -4.619043e-05) (1.492309e-08 7.135339e-09 -2.435849e-05)) ((5.709691e-13 -1.701965e-11 7.221054e-14) (-1.837383e-10 1.216930e-10 3.626912e-12))
215.988704    	((1.148286e-07 6.040352e-08 -4.611472e-05) (1.626234e-08 7.809065e-09 -2.432525e-05)) ((6.260814e-13 -1.705750e-11 7.324000e-14) (-1.867913e-10 1.394004e-10 3.616948e-12))
221.5618      	((1.279627e-07 6.642440e-08 -4.603849e-05) (1.774707e-08 8.550470e-09 -2.429375e-05)) ((6.974527e-13 -1.711311e-11 7.096801e-14) (-1.916693e-10 1.636960e-10 3.612028e-12))
227.135728    	((1.407779e-07 7.204480e-08 -4.596670e-05) (1.921836e-08 9.292124e-09 -2.426382e-05)) ((7.519007e-13 -1.713978e-11 6.836742e-14) (-1.989957e-10 1.942938e-10 3.641731e-12))
232.710424    	((1.564913e-07 7.873934e-08 -4.590058e-05) (2.079975e-08 1.007695e-08 -2.423540e-05)) ((8.137227e-13 -1.718423e-11 6.669500e-14) (-2.088989e-10 2.318167e-10 3.675869e-12))
238.285831    	((1.727756e-07 8.571851e-08 -4.584292e-05) (2.246615e-08 1.089807e-08 -2.420870e-05)) ((8.701117e-13 -1.721548e-11 6.509736e-14) (-2.205377e-10 2.755673e-10 3.633534e-12))
243.861895    	((1.907537e-07 9.340011e-08 -4.578770e-05) (2.419840e-08 1.175702e-08 -2.418352e-05)) ((9.294053e-13 -1.725983e-11 6.242801e-14) (-2.339570e-10 3.260237e-10 3.692015e-12))
249.438568    	((2.116299e-07 1.020334e-07 -4.573979e-05) (2.609631e-08 1.268960e-08 -2.415997e-05)) ((9.966618e-13 -1.732691e-11 6.077197e-14) (-2.492627e-10 3.836142e-10 3.907680e-12))
255.0158      	((2.349398e-07 1.117267e-07 -4.569061e-05) (2.822985e-08 1.372344e-08 -2.413771e-05)) ((1.069448e-12 -1.741449e-11 5.834373e-14) (-2.662887e-10 4.468922e-10 4.078066e-12))
260.593544    	((2.602130e-07 1.222111e-07 -4.564363e-05) (3.061375e-08 1.486906e-08 -2.411649e-05)) ((1.143078e-12 -1.750616e-11 5.736633e-14) (-2.848967e-10 5.146232e-10 4.130496e-12))
266.171754    	((2.881904e-07 1.338809e-07 -4.559877e-05) (3.331621e-08 1.614853e-08 -2.409622e-05)) ((1.228418e-12 -1.762007e-11 5.714105e-14) (-3.045327e-10 5.852758e-10 4.144557e-12))
271.750381    	((3.177423e-07 1.465182e-07 -4.555615e-05) (3.635230e-08 1.758434e-08 -2.407684e-05)) ((1.319298e-12 -1.773676e-11 5.600531e-14) (-3.248890e-10 6.568589e-10 4.131173e-12))
277.329383    	((3.491284e-07 1.599741e-07 -4.551651e-05) (3.972358e-08 1.917791e-08 -2.405840e-05)) ((1.412220e-12 -1.786137e-11 5.461295e-14) (-3.456567e-10 7.280743e-10 4.105592e-12))
282.908717    	((3.819912e-07 1.743892e-07 -4.547927e-05) (4.342385e-08 2.091803e-08 -2.404095e-05)) ((1.510907e-12 -1.799153e-11 5.283013e-14) (-3.669592e-10 7.981312e-10 4.049877e-12))
288.488342    	((4.163384e-07 1.899375e-07 -4.544458e-05) (4.743303e-08 2.280967e-08 -2.402454e-05)) ((1.617523e-12 -1.812954e-11 4.893968e-14) (-3.891868e-10 8.663071e-10 3.965912e-12))
294.068221    	((4.519129e-07 2.064912e-07 -4.541173e-05) (5.174210e-08 2.485612e-08 -2.400913e-05)) ((1.733509e-12 -1.828140e-11 4.548805e-14) (-4.122268e-10 9.319532e-10 3.828020e-12))
299.648316    	((4.888717e-07 2.243090e-07 -4.538047e-05) (5.636321e-08 2.707200e-08 -2.399465e-05)) ((1.860129e-12 -1.845181e-11 4.218628e-14) (-4.362122e-10 9.946651e-10 3.582462e-12))
305.228595    	((5.271218e-07 2.435067e-07 -4.535023e-05) (6.130490e-08 2.947119e-08 -2.398101e-05)) ((1.996624e-12 -1.864095e-11 3.888645e-14) (-4.608248e-10 1.053780e-09 3.338624e-12))
310.809024    	((5.669348e-07 2.641060e-07 -4.532105e-05) (6.658973e-08 3.206786e-08 -2.396816e-05)) ((2.143817e-12 -1.885207e-11 3.418476e-14) (-4.860439e-10 1.108505e-09 3.170989e-12))
316.389572    	((6.082969e-07 2.863412e-07 -4.529255e-05) (7.223468e-08 3.489400e-08 -2.395601e-05)) ((2.305102e-12 -1.908462e-11 2.839124e-14) (-5.118404e-10 1.158258e-09 3.072662e-12))
321.97021     	((6.513678e-07 3.095565e-07 -4.526532e-05) (7.825131e-08 3.792378e-08 -2.394454e-05)) ((2.473106e-12 -1.934234e-11 2.096832e-14) (-5.382054e-10 1.202950e-09 3.104131e-12))
327.550908    	((6.966831e-07 3.344056e-07 -4.523900e-05) (8.466388e-08 4.116728e-08 -2.393369e-05)) ((2.656382e-12 -1.963152e-11 1.287360e-14) (-5.653306e-10 1.243334e-09 3.278885e-12))
333.131635    	((7.447127e-07 3.609904e-07 -4.521377e-05) (9.149994e-08 4.464866e-08 -2.392341e-05)) ((2.858604e-12 -1.995510e-11 4.077146e-15) (-5.934594e-10 1.280479e-09 3.460878e-12))
338.712361    	((7.957333e-07 3.898615e-07 -4.518933e-05) (9.878388e-08 4.840586e-08 -2.391365e-05)) ((3.081383e-12 -2.031261e-11 -5.163442e-15) (-6.228745e-10 1.315688e-09 3.785957e-12))
344.293055    	((8.507691e-07 4.209638e-07 -4.516592e-05) (1.065605e-07 5.246375e-08 -2.390437e-05)) ((3.321691e-12 -2.071560e-11 -1.759975e-14) (-6.541808e-10 1.351060e-09 4.234012e-12))
349.873685    	((9.107323e-07 4.544776e-07 -4.514403e-05) (1.149033e-07 5.683732e-08 -2.389558e-05)) ((3.582684e-12 -2.116840e-11 -3.200378e-14) (-6.878513e-10 1.388930e-09 4.673061e-12))
355.454215    	((9.763686e-07 4.907167e-07 -4.512295e-05) (1.238917e-07 6.155983e-08 -2.388724e-05)) ((3.866584e-12 -2.167688e-11 -4.749631e-14) (-7.239077e-10 1.431614e-09 5.049412e-12))
361.034608    	((1.049021e-06 5.305157e-07 -4.510281e-05) (1.336167e-07 6.668678e-08 -2.387931e-05)) ((4.180327e-12 -2.224289e-11 -6.304532e-14) (-7.630605e-10 1.482266e-09 5.376448e-12))
