# Forces      
# CofR        : (0.000000e+00 0.000000e+00 0.000000e+00)
# Time        forces(pressure viscous)	moments(pressure viscous)
0             	((0.000000e+00 0.000000e+00 0.000000e+00) (-1.397608e-15 1.257169e-16 -2.005089e-05)) ((0.000000e+00 0.000000e+00 0.000000e+00) (-3.535526e-17 -7.651929e-12 -3.505449e-18))
0.012         	((1.187034e-09 2.494320e-09 -5.827264e-03) (1.717545e-11 1.852946e-11 -2.301166e-05)) ((-2.486377e-12 -1.544028e-09 -2.594290e-14) (1.590610e-13 -2.256220e-11 -9.219235e-16))
0.0264        	((-1.167717e-07 -1.196313e-07 4.012446e-04) (-6.508139e-11 -6.415080e-11 -2.348253e-05)) ((3.587377e-12 9.577578e-11 -1.598025e-15) (1.364489e-13 -2.994861e-11 -5.729069e-14))
0.04368       	((1.188932e-07 9.997000e-08 1.219774e-03) (-6.142513e-11 -6.597050e-11 -2.087218e-05)) ((1.326604e-11 2.747858e-10 1.363572e-13) (-3.746954e-13 -3.055345e-11 -5.177584e-14))
0.064416      	((-3.569786e-09 -2.017871e-08 1.155249e-05) (-2.211993e-10 -1.623133e-10 -1.848986e-05)) ((-4.410488e-12 -4.204705e-12 -6.574568e-14) (1.679964e-12 -3.511372e-11 -4.685025e-14))
0.0892992     	((-1.883139e-08 1.438760e-08 -1.614669e-05) (-3.983010e-10 -2.681942e-10 -1.707087e-05)) ((-1.708287e-12 8.848989e-12 2.144902e-14) (4.262300e-13 -4.347566e-11 8.225276e-14))
0.119159      	((-1.391588e-08 -1.100788e-08 1.841903e-05) (-3.723351e-10 -2.525658e-10 -1.576226e-05)) ((-7.374476e-13 1.188135e-11 -1.600387e-13) (-2.079951e-12 -4.661496e-11 3.935635e-13))
0.154991      	((4.423262e-10 1.606353e-09 1.008033e-05) (-2.914221e-10 -2.066270e-10 -1.437520e-05)) ((5.348114e-13 1.023838e-11 -7.559269e-15) (-7.759703e-13 -4.536687e-11 7.874827e-13))
0.197989      	((-1.254804e-09 4.048382e-09 2.466425e-06) (-1.416930e-10 -1.142724e-10 -1.297537e-05)) ((-5.654107e-14 5.018427e-12 -2.968285e-14) (1.160337e-12 -3.986617e-11 1.025797e-12))
0.249587      	((1.323325e-10 -1.946610e-10 -3.025561e-07) (-2.721238e-11 -5.614605e-11 -1.160178e-05)) ((-2.111630e-13 3.050331e-12 2.645497e-14) (2.443416e-12 -3.502408e-11 9.900198e-13))
0.311504      	((3.779226e-10 1.618902e-10 -1.554235e-06) (3.629765e-11 -8.770844e-12 -1.029501e-05)) ((1.620093e-14 1.337965e-12 1.095155e-14) (2.648127e-12 -3.248337e-11 8.304430e-13))
0.385805      	((3.198480e-10 3.062592e-10 -2.146152e-06) (8.660467e-11 3.020669e-11 -9.088234e-06)) ((4.381353e-14 2.903767e-13 1.312330e-15) (2.427111e-12 -3.384100e-11 6.765392e-13))
0.474966      	((8.594886e-10 4.750162e-10 -2.427255e-06) (8.947508e-11 4.233123e-11 -8.005259e-06)) ((2.458540e-14 -3.188435e-13 1.078313e-15) (2.003849e-12 -3.414967e-11 5.456783e-13))
0.581959      	((6.589452e-10 2.449196e-10 -2.542335e-06) (6.078207e-11 4.167577e-11 -7.056228e-06)) ((1.465581e-14 -6.035577e-13 3.657329e-15) (1.683327e-12 -3.067511e-11 4.307758e-13))
0.710351      	((2.888796e-10 1.456190e-10 -2.534521e-06) (3.345436e-11 2.876389e-11 -6.241826e-06)) ((1.086804e-15 -8.697750e-13 -6.366096e-17) (1.123930e-12 -2.345714e-11 2.903757e-13))
0.864421      	((1.031341e-10 2.643980e-12 -2.444502e-06) (3.324993e-11 2.364496e-11 -5.552172e-06)) ((5.137944e-15 -1.055265e-12 -2.482054e-16) (1.094138e-12 -1.500586e-11 2.445500e-13))
1.049306      	((-8.959413e-11 3.687105e-13 -2.310561e-06) (3.726425e-11 1.499341e-11 -4.970097e-06)) ((6.526108e-15 -1.176290e-12 -4.469915e-16) (1.212149e-12 -7.516371e-12 2.677283e-13))
1.271167      	((-1.151702e-10 -4.079213e-12 -2.161120e-06) (4.538673e-11 3.405809e-12 -4.477480e-06)) ((7.112362e-15 -1.215143e-12 -1.090949e-15) (9.416357e-13 -1.413254e-12 2.574061e-13))
1.5374        	((-9.148700e-11 -1.704157e-12 -2.008943e-06) (6.025760e-11 -3.738083e-12 -4.054961e-06)) ((6.080303e-15 -1.174856e-12 -1.262781e-15) (4.238232e-13 3.902247e-12 2.529141e-13))
1.85688       	((-7.099610e-11 7.219259e-13 -1.860182e-06) (5.583458e-11 -4.184896e-12 -3.685097e-06)) ((5.934510e-15 -1.184800e-12 -1.617448e-15) (-3.267631e-14 8.527594e-12 2.505637e-13))
2.240256      	((-1.448421e-10 -2.342690e-11 -1.718684e-06) (2.750266e-11 -5.201645e-13 -3.356443e-06)) ((5.882229e-15 -1.180053e-12 -1.640310e-15) (-4.414645e-13 1.261387e-11 2.391620e-13))
2.700307      	((-1.903959e-10 -2.799270e-11 -1.586413e-06) (-6.637170e-12 1.678297e-12 -3.061762e-06)) ((5.848606e-15 -1.170738e-12 -1.506189e-15) (-7.898391e-13 1.656711e-11 2.149373e-13))
3.252369      	((-2.429855e-10 -4.621460e-11 -1.463014e-06) (-2.833163e-11 1.419410e-12 -2.796293e-06)) ((5.512305e-15 -1.145195e-12 -1.295211e-15) (-1.064892e-12 1.927340e-11 1.916586e-13))
3.914842      	((-2.762591e-10 -6.132334e-11 -1.346870e-06) (-3.214354e-11 5.199190e-13 -2.556622e-06)) ((4.250468e-15 -1.084214e-12 -8.013401e-16) (-1.267988e-12 1.992069e-11 1.625807e-13))
4.709811      	((-2.370458e-10 -3.310047e-11 -1.238564e-06) (-2.322846e-11 3.127839e-13 -2.340266e-06)) ((1.687321e-15 -1.010163e-12 -1.210947e-15) (-1.389177e-12 1.938661e-11 1.242732e-13))
5.663773      	((-1.186846e-10 1.564541e-11 -1.138564e-06) (-1.182335e-11 2.332900e-12 -2.145386e-06)) ((-1.747636e-15 -9.384590e-13 -1.454795e-15) (-1.225307e-12 1.853385e-11 1.049490e-13))
6.808528      	((-9.732768e-11 2.634528e-11 -1.046989e-06) (1.526530e-11 3.798875e-12 -1.970250e-06)) ((-4.452411e-15 -8.742451e-13 -1.250514e-15) (-9.876737e-13 1.686738e-11 9.967638e-14))
8.182233      	((-1.060991e-10 -6.418072e-12 -9.636195e-07) (4.071006e-11 4.690054e-12 -1.813082e-06)) ((-3.958794e-15 -8.226398e-13 -9.316504e-16) (-1.016589e-12 1.502696e-11 1.171152e-13))
9.83068       	((-1.178507e-10 -5.383865e-11 -8.880405e-07) (4.500766e-11 4.816053e-12 -1.671973e-06)) ((-3.073761e-15 -7.713443e-13 -7.407219e-16) (-1.461784e-12 1.430674e-11 9.416695e-14))
11.808816     	((-9.569658e-11 -5.612810e-11 -8.189354e-07) (4.620497e-11 1.242030e-12 -1.544859e-06)) ((-2.969674e-15 -7.162624e-13 -1.008328e-15) (-2.404887e-12 1.441822e-11 -9.852720e-16))
14.182579     	((-5.647571e-11 -3.830781e-11 -7.557477e-07) (4.875862e-11 2.224174e-12 -1.429808e-06)) ((-4.353094e-15 -6.655562e-13 -1.420640e-15) (-3.789232e-12 1.486120e-11 -4.962231e-14))
17.031095     	((-7.239178e-11 -7.660719e-11 -6.982045e-07) (5.145674e-11 3.878646e-12 -1.325277e-06)) ((-4.616014e-15 -6.236567e-13 -5.481003e-16) (-5.595995e-12 1.555657e-11 -7.615883e-14))
20.449314     	((-1.194199e-10 -1.385905e-10 -6.458362e-07) (5.188084e-11 1.366481e-12 -1.230129e-06)) ((-4.335947e-15 -5.867240e-13 1.925091e-16) (-7.388822e-12 1.628177e-11 -9.941712e-14))
24.551176     	((-1.616903e-10 -1.796958e-10 -5.982796e-07) (4.342528e-11 -1.865077e-12 -1.143539e-06)) ((-5.881392e-15 -5.486384e-13 3.360155e-16) (-8.793599e-12 1.680518e-11 -1.008764e-13))
29.473411     	((-1.319560e-10 -1.493116e-10 -5.553043e-07) (3.209435e-11 -3.693157e-12 -1.064834e-06)) ((-7.062290e-15 -5.130787e-13 4.060123e-16) (-9.993827e-12 1.725298e-11 -9.299706e-14))
35.380094     	((-1.228101e-10 -1.298567e-10 -5.164637e-07) (2.893358e-11 -1.082431e-12 -9.934246e-07)) ((-7.515249e-15 -4.808701e-13 5.970395e-16) (-1.105507e-11 1.763261e-11 -8.864008e-14))
42.468112     	((-1.587411e-10 -1.667225e-10 -4.817131e-07) (2.236546e-11 -1.312909e-12 -9.287765e-07)) ((-8.553432e-15 -4.482757e-13 5.301281e-16) (-1.230999e-11 1.834775e-11 -1.200905e-13))
50.973735     	((-1.761028e-10 -1.919162e-10 -4.507729e-07) (1.452042e-11 -2.070440e-12 -8.703342e-07)) ((-9.389396e-15 -4.170049e-13 4.800430e-16) (-1.389915e-11 1.966695e-11 -1.100194e-13))
61.180482     	((-1.538506e-10 -1.679066e-10 -4.233976e-07) (7.037389e-12 -2.276787e-13 -8.175382e-07)) ((-9.632056e-15 -3.884596e-13 5.338068e-16) (-1.597519e-11 2.147071e-11 -1.070839e-13))
73.428578     	((-1.243631e-10 -1.324892e-10 -3.993110e-07) (4.681144e-12 2.661904e-12 -7.698655e-07)) ((-9.847522e-15 -3.632852e-13 6.723916e-16) (-1.865873e-11 2.391699e-11 -1.072981e-13))
88.126294     	((-8.574984e-11 -9.849066e-11 -3.782960e-07) (5.767432e-12 6.924191e-12 -7.268249e-07)) ((-1.028772e-14 -3.408746e-13 4.854963e-16) (-2.190694e-11 2.695765e-11 -1.154773e-13))
105.763553    	((-3.958466e-11 -5.295534e-11 -3.601754e-07) (8.257563e-12 1.167092e-11 -6.879973e-07)) ((-1.067414e-14 -3.207384e-13 2.586226e-16) (-2.536486e-11 3.034426e-11 -1.344651e-13))
126.928263    	((-2.513662e-11 -2.739374e-11 -3.449108e-07) (9.717249e-12 1.738498e-11 -6.530463e-07)) ((-1.087825e-14 -3.028249e-13 8.365548e-17) (-2.874251e-11 3.360269e-11 -1.356422e-13))
152.325916    	((-2.011719e-12 -3.502206e-12 -3.322591e-07) (1.068627e-11 2.191092e-11 -6.217214e-07)) ((-1.059691e-14 -2.874594e-13 -2.194814e-17) (-3.180199e-11 3.642564e-11 -1.148885e-13))
182.803099    	((1.567791e-11 1.389162e-11 -3.221111e-07) (1.060675e-11 2.457371e-11 -5.938260e-07)) ((-1.006722e-14 -2.738052e-13 -5.566729e-17) (-3.428495e-11 3.867659e-11 -9.277890e-14))
219.375719    	((4.531462e-11 4.279724e-11 -3.141812e-07) (1.101545e-11 2.653594e-11 -5.691868e-07)) ((-9.992146e-15 -2.611552e-13 1.864546e-17) (-3.612767e-11 4.037294e-11 -7.575011e-14))
263.262863    	((8.285559e-11 8.743398e-11 -3.082972e-07) (1.346326e-11 3.013832e-11 -5.476398e-07)) ((-9.235330e-15 -2.508453e-13 -8.554608e-17) (-3.724482e-11 4.150768e-11 -6.215342e-14))
315.927436    	((9.511544e-11 1.067381e-10 -3.043239e-07) (1.406719e-11 3.292764e-11 -5.290366e-07)) ((-8.388229e-15 -2.418575e-13 -8.624296e-17) (-3.768723e-11 4.209476e-11 -4.464718e-14))
379.124923    	((9.912409e-11 1.196620e-10 -3.019952e-07) (1.482997e-11 3.479190e-11 -5.132119e-07)) ((-7.657298e-15 -2.346254e-13 -2.337159e-16) (-3.746641e-11 4.207250e-11 -4.889572e-14))
454.961908    	((1.034738e-10 1.309492e-10 -3.008267e-07) (1.557024e-11 3.610956e-11 -4.999529e-07)) ((-6.816265e-15 -2.283707e-13 -2.706936e-16) (-3.662593e-11 4.136414e-11 -5.791250e-14))
545.966289    	((1.191810e-10 1.473782e-10 -3.003751e-07) (1.830254e-11 3.841747e-11 -4.889912e-07)) ((-6.186713e-15 -2.230159e-13 -1.906764e-16) (-3.530556e-11 4.001258e-11 -5.632164e-14))
653.240092    	((1.292885e-10 1.503784e-10 -3.003001e-07) (2.333002e-11 4.256171e-11 -4.800414e-07)) ((-5.641935e-15 -2.196618e-13 -1.488092e-16) (-3.364673e-11 3.821528e-11 -4.450284e-14))
776.783322    	((1.350070e-10 1.488269e-10 -3.002600e-07) (3.098680e-11 4.953049e-11 -4.727736e-07)) ((-5.180807e-15 -2.176057e-13 -2.211017e-16) (-3.178557e-11 3.619142e-11 -3.900795e-14))
916.60536     	((1.345343e-10 1.415360e-10 -3.001407e-07) (4.065378e-11 5.814386e-11 -4.668846e-07)) ((-4.620576e-15 -2.162873e-13 -2.352102e-16) (-2.986903e-11 3.413202e-11 -2.904512e-14))
1072.722176   	((1.260038e-10 1.303550e-10 -2.999498e-07) (5.025549e-11 6.720573e-11 -4.621081e-07)) ((-4.069936e-15 -2.151934e-13 -2.982767e-16) (-2.802496e-11 3.215578e-11 -1.199588e-14))
1235.847695   	((1.138308e-10 1.155006e-10 -2.998066e-07) (5.892135e-11 7.539304e-11 -4.582596e-07)) ((-3.671680e-15 -2.143662e-13 -3.258774e-16) (-2.628015e-11 3.029019e-11 2.935362e-15))
1399.137639   	((9.913762e-11 9.951189e-11 -2.996629e-07) (6.562781e-11 8.154409e-11 -4.551571e-07)) ((-3.293589e-15 -2.137581e-13 -3.463514e-16) (-2.465209e-11 2.856848e-11 1.548711e-14))
1562.569587   	((8.244319e-11 8.214044e-11 -2.995185e-07) (7.025363e-11 8.580192e-11 -4.526575e-07)) ((-2.897739e-15 -2.131442e-13 -3.256846e-16) (-2.314166e-11 2.697575e-11 2.231595e-14))
1726.121791   	((6.587174e-11 6.470396e-11 -2.993852e-07) (7.321741e-11 8.840683e-11 -4.506444e-07)) ((-2.538284e-15 -2.127052e-13 -3.180483e-16) (-2.174152e-11 2.550425e-11 2.316981e-14))
1889.775236   	((4.960117e-11 4.771892e-11 -2.992670e-07) (7.465524e-11 8.944868e-11 -4.490235e-07)) ((-2.236788e-15 -2.123426e-13 -3.063717e-16) (-2.046032e-11 2.416137e-11 2.136259e-14))
2053.51362    	((3.378222e-11 3.139649e-11 -2.991657e-07) (7.472142e-11 8.916336e-11 -4.477178e-07)) ((-2.006680e-15 -2.120554e-13 -2.990047e-16) (-1.930074e-11 2.295232e-11 1.840121e-14))
2217.322915   	((1.904130e-11 1.639359e-11 -2.990796e-07) (7.370818e-11 8.784834e-11 -4.466659e-07)) ((-1.842970e-15 -2.118261e-13 -2.916094e-16) (-1.826116e-11 2.187507e-11 1.540537e-14))
2381.191162   	((5.381272e-12 2.601958e-12 -2.990058e-07) (7.186314e-11 8.577436e-11 -4.458173e-07)) ((-1.698562e-15 -2.116541e-13 -2.865195e-16) (-1.733947e-11 2.092542e-11 1.259500e-14))
2545.108228   	((-6.985220e-12 -9.929951e-12 -2.989438e-07) (6.941853e-11 8.318656e-11 -4.451319e-07)) ((-1.590990e-15 -2.115243e-13 -2.793242e-16) (-1.652737e-11 2.009344e-11 9.951416e-15))
2709.065609   	((-1.805279e-11 -2.103025e-11 -2.988916e-07) (6.662838e-11 8.032805e-11 -4.445779e-07)) ((-1.504237e-15 -2.114194e-13 -2.707919e-16) (-1.581565e-11 1.936777e-11 8.056817e-15))
2873.056202   	((-2.765554e-11 -3.068824e-11 -2.988484e-07) (6.365393e-11 7.733871e-11 -4.441298e-07)) ((-1.420824e-15 -2.113468e-13 -2.622298e-16) (-1.519795e-11 1.874025e-11 6.624024e-15))
3037.074116   	((-3.590301e-11 -3.900709e-11 -2.988126e-07) (6.067557e-11 7.435466e-11 -4.437671e-07)) ((-1.344933e-15 -2.112931e-13 -2.561623e-16) (-1.466500e-11 1.819843e-11 5.364848e-15))
3201.114483   	((-4.299289e-11 -4.609460e-11 -2.987829e-07) (5.777551e-11 7.146909e-11 -4.434732e-07)) ((-1.286779e-15 -2.112449e-13 -2.520431e-16) (-1.420704e-11 1.773387e-11 4.150868e-15))
3365.173288   	((-4.903621e-11 -5.211215e-11 -2.987585e-07) (5.501997e-11 6.873107e-11 -4.432350e-07)) ((-1.239331e-15 -2.112063e-13 -2.499230e-16) (-1.381642e-11 1.733809e-11 3.084363e-15))
3529.247224   	((-5.415338e-11 -5.718427e-11 -2.987383e-07) (5.246274e-11 6.619350e-11 -4.430419e-07)) ((-1.202316e-15 -2.111726e-13 -2.486538e-16) (-1.348487e-11 1.700239e-11 2.217114e-15))
3693.333568   	((-5.844650e-11 -6.143230e-11 -2.987218e-07) (5.013916e-11 6.389281e-11 -4.428851e-07)) ((-1.166111e-15 -2.111512e-13 -2.474734e-16) (-1.320446e-11 1.671871e-11 1.493432e-15))
3857.430078   	((-6.203383e-11 -6.497874e-11 -2.987081e-07) (4.806265e-11 6.184058e-11 -4.427579e-07)) ((-1.134829e-15 -2.111345e-13 -2.471389e-16) (-1.296828e-11 1.647998e-11 9.070655e-16))
4021.534915   	((-6.502433e-11 -6.792175e-11 -2.986968e-07) (4.623191e-11 6.003374e-11 -4.426546e-07)) ((-1.107225e-15 -2.111220e-13 -2.459527e-16) (-1.277020e-11 1.627992e-11 4.721878e-16))
4185.646565   	((-6.750526e-11 -7.032541e-11 -2.986876e-07) (4.464151e-11 5.846449e-11 -4.425706e-07)) ((-1.084536e-15 -2.111113e-13 -2.451683e-16) (-1.260458e-11 1.611271e-11 1.256378e-16))
4349.763788   	((-6.951576e-11 -7.231291e-11 -2.986800e-07) (4.327348e-11 5.711683e-11 -4.425024e-07)) ((-1.064707e-15 -2.111041e-13 -2.441793e-16) (-1.246664e-11 1.597358e-11 -1.747967e-16))
4513.885567   	((-7.115041e-11 -7.394360e-11 -2.986738e-07) (4.210970e-11 5.596965e-11 -4.424470e-07)) ((-1.049180e-15 -2.110975e-13 -2.437468e-16) (-1.235200e-11 1.585791e-11 -4.319931e-16))
4678.011066   	((-7.248997e-11 -7.528366e-11 -2.986687e-07) (4.112794e-11 5.500158e-11 -4.424018e-07)) ((-1.036591e-15 -2.110923e-13 -2.429074e-16) (-1.225702e-11 1.576216e-11 -6.467322e-16))
4842.139601   	((-7.355853e-11 -7.635567e-11 -2.986646e-07) (4.030630e-11 5.419100e-11 -4.423651e-07)) ((-1.026334e-15 -2.110882e-13 -2.424131e-16) (-1.217849e-11 1.568302e-11 -8.190067e-16))
5006.270613   	((-7.444563e-11 -7.722871e-11 -2.986612e-07) (3.962362e-11 5.351678e-11 -4.423352e-07)) ((-1.017829e-15 -2.110849e-13 -2.423273e-16) (-1.211366e-11 1.561769e-11 -9.646705e-16))
5170.403644   	((-7.515412e-11 -7.794034e-11 -2.986584e-07) (3.906086e-11 5.295964e-11 -4.423109e-07)) ((-1.011008e-15 -2.110826e-13 -2.416429e-16) (-1.206023e-11 1.556389e-11 -1.095926e-15))
5334.538319   	((-7.573266e-11 -7.851810e-11 -2.986561e-07) (3.859832e-11 5.250159e-11 -4.422911e-07)) ((-1.005158e-15 -2.110809e-13 -2.413634e-16) (-1.201625e-11 1.551966e-11 -1.205452e-15))
5498.674335   	((-7.621173e-11 -7.898564e-11 -2.986543e-07) (3.822065e-11 5.212726e-11 -4.422750e-07)) ((-9.995849e-16 -2.110798e-13 -2.415333e-16) (-1.198011e-11 1.548334e-11 -1.285029e-15))
5662.811442   	((-7.658624e-11 -7.936702e-11 -2.986529e-07) (3.791344e-11 5.182136e-11 -4.422619e-07)) ((-9.954242e-16 -2.110789e-13 -2.414060e-16) (-1.195046e-11 1.545353e-11 -1.355501e-15))
5826.949439   	((-7.690347e-11 -7.967595e-11 -2.986516e-07) (3.766374e-11 5.157303e-11 -4.422512e-07)) ((-9.919995e-16 -2.110782e-13 -2.411186e-16) (-1.192610e-11 1.542906e-11 -1.414343e-15))
5991.08816    	((-7.714935e-11 -7.992002e-11 -2.986508e-07) (3.746268e-11 5.137214e-11 -4.422425e-07)) ((-9.893037e-16 -2.110778e-13 -2.410574e-16) (-1.190610e-11 1.540898e-11 -1.464169e-15))
6155.227472   	((-7.737263e-11 -8.013684e-11 -2.986498e-07) (3.729891e-11 5.120918e-11 -4.422354e-07)) ((-9.876003e-16 -2.110768e-13 -2.406642e-16) (-1.188971e-11 1.539252e-11 -1.502899e-15))
6319.367263   	((-7.752635e-11 -8.033573e-11 -2.986491e-07) (3.716751e-11 5.107691e-11 -4.422296e-07)) ((-9.848247e-16 -2.110765e-13 -2.406538e-16) (-1.187623e-11 1.537904e-11 -1.534192e-15))
6483.507446   	((-7.767051e-11 -8.044044e-11 -2.986486e-07) (3.706016e-11 5.097002e-11 -4.422249e-07)) ((-9.840620e-16 -2.110765e-13 -2.404343e-16) (-1.186519e-11 1.536798e-11 -1.562786e-15))
6647.647947   	((-7.779050e-11 -8.057679e-11 -2.986480e-07) (3.697393e-11 5.088371e-11 -4.422210e-07)) ((-9.820652e-16 -2.110760e-13 -2.405518e-16) (-1.185612e-11 1.535889e-11 -1.581859e-15))
6811.788708   	((-7.787735e-11 -8.067823e-11 -2.986478e-07) (3.690379e-11 5.081093e-11 -4.422179e-07)) ((-9.821192e-16 -2.110754e-13 -2.406732e-16) (-1.184868e-11 1.535145e-11 -1.598131e-15))
6975.929683   	((-7.796323e-11 -8.071964e-11 -2.986474e-07) (3.684589e-11 5.075485e-11 -4.422153e-07)) ((-9.812969e-16 -2.110759e-13 -2.403396e-16) (-1.184256e-11 1.534529e-11 -1.621028e-15))
7140.070829   	((-7.803381e-11 -8.081573e-11 -2.986472e-07) (3.679909e-11 5.070685e-11 -4.422133e-07)) ((-9.798575e-16 -2.110754e-13 -2.405300e-16) (-1.183751e-11 1.534025e-11 -1.628284e-15))
