# Forces      
# CofR        : (0.000000e+00 0.000000e+00 0.000000e+00)
# Time        forces(pressure viscous)	moments(pressure viscous)
0             	((0.000000e+00 0.000000e+00 0.000000e+00) (3.860498e-13 -6.340696e-03 9.173850e-13)) ((0.000000e+00 0.000000e+00 0.000000e+00) (-2.070287e-14 1.145546e-15 1.995827e-09))
0.012         	((-1.797620e-06 -1.860580e+00 -1.477967e-06) (-4.805961e-10 -7.620344e-03 -2.363578e-08)) ((1.244153e-10 -2.414966e-11 3.379219e-07) (2.614625e-10 1.593325e-13 1.725061e-09))
0.0264        	((5.916596e-06 3.474340e-01 4.022316e-07) (4.345999e-09 -7.604001e-03 -5.366937e-08)) ((-6.017320e-09 -6.479678e-10 -2.738541e-08) (-1.721112e-09 -1.852563e-11 -3.404992e-09))
0.04368       	((1.521834e-05 2.597189e-01 2.385137e-05) (2.123601e-08 -6.529280e-03 -3.325207e-08)) ((3.934499e-09 6.112382e-10 -9.628066e-08) (-1.518269e-09 -5.788870e-11 -1.017499e-08))
0.064416      	((-1.303859e-05 -2.000886e-04 -1.579192e-05) (-1.220369e-07 -5.756465e-03 -5.276646e-08)) ((3.055124e-10 -1.252637e-11 1.462791e-08) (-1.986905e-10 -7.155825e-11 -1.581537e-08))
0.0892992     	((-1.564067e-05 2.047723e-03 -1.118644e-05) (-8.502408e-07 -5.295819e-03 -9.262124e-08)) ((-5.188139e-10 -2.576004e-11 -1.751499e-09) (-7.077063e-10 -7.193283e-11 -1.921192e-08))
0.119159      	((-2.254293e-05 1.298069e-03 -3.104834e-06) (-1.274599e-06 -4.910659e-03 -1.265843e-07)) ((-5.992827e-10 7.699152e-11 -2.308881e-09) (-6.498031e-10 -1.201420e-10 -2.143721e-08))
0.154991      	((-8.971451e-06 -9.671341e-04 -3.633270e-06) (-1.194556e-06 -4.570543e-03 -1.035115e-07)) ((-3.085392e-10 1.239792e-10 -2.367106e-09) (4.320128e-12 -1.602430e-10 -2.316022e-08))
0.197989      	((-1.189092e-05 -1.750267e-03 -6.440888e-07) (-1.524256e-06 -4.282021e-03 -3.646553e-08)) ((-1.380988e-10 6.650801e-11 -1.505183e-10) (-4.785790e-11 -1.577909e-10 -2.595629e-08))
0.249587      	((-8.844698e-06 -2.185217e-03 -1.111404e-06) (-1.761447e-06 -4.039797e-03 -3.382901e-08)) ((-7.799245e-11 2.357912e-11 2.380233e-09) (-2.717245e-10 -1.409950e-10 -3.023564e-08))
0.311504      	((-5.689679e-06 -2.454438e-03 -2.530197e-07) (-1.600825e-06 -3.826175e-03 -5.574928e-08)) ((-3.915482e-11 -1.546522e-11 3.089092e-09) (-1.499762e-10 -9.351557e-11 -3.751090e-08))
0.385805      	((-5.491941e-06 -2.648009e-03 -4.848712e-07) (-1.538986e-06 -3.625686e-03 -6.780249e-08)) ((-2.224376e-11 1.385828e-11 3.107129e-09) (3.394831e-10 -8.174795e-12 -4.253281e-08))
0.474966      	((-5.126210e-06 -2.858725e-03 -2.676119e-07) (-1.476067e-06 -3.432201e-03 -7.001191e-08)) ((-3.338998e-11 -6.088632e-12 4.406061e-09) (5.871913e-10 2.601611e-11 -4.248743e-08))
0.581959      	((-3.265530e-06 -3.134504e-03 -5.949459e-07) (-1.217280e-06 -3.247916e-03 -6.454952e-08)) ((-4.739711e-11 -2.088046e-11 6.163454e-09) (3.105638e-10 1.946360e-11 -4.294199e-08))
0.710351      	((-7.786661e-07 -3.504231e-03 -4.491129e-07) (-9.169117e-07 -3.077030e-03 -6.642299e-08)) ((-5.881783e-11 -3.048842e-11 7.934655e-09) (-2.332828e-10 2.831318e-11 -4.598717e-08))
0.864421      	((1.015425e-06 -4.002130e-03 -6.248227e-07) (-6.529356e-07 -2.921921e-03 -5.481593e-08)) ((-7.387262e-11 -2.339955e-11 9.870784e-09) (-6.696654e-10 6.360607e-11 -4.984717e-08))
1.044368      	((4.525883e-06 -4.640157e-03 -1.492309e-07) (-1.894005e-07 -2.786499e-03 -1.861537e-08)) ((-6.591543e-11 -1.371244e-11 1.252325e-08) (-8.984388e-10 8.678031e-11 -5.726672e-08))
1.249992      	((8.115275e-06 -5.412289e-03 1.876384e-07) (2.615011e-07 -2.671588e-03 -4.927792e-09)) ((-4.983139e-11 -8.909757e-12 1.550142e-08) (-9.886641e-10 9.434632e-11 -6.965749e-08))
1.481068      	((1.127014e-05 -6.324677e-03 5.900836e-07) (6.155051e-07 -2.576465e-03 -1.185984e-08)) ((-3.886901e-12 -1.492668e-11 1.866143e-08) (-1.137170e-09 9.756762e-11 -8.636618e-08))
1.732924      	((1.446523e-05 -7.306971e-03 1.382432e-06) (7.706312e-07 -2.500299e-03 -2.431022e-08)) ((2.461226e-11 -2.332069e-11 2.201432e-08) (-9.953239e-10 1.110277e-10 -1.063460e-07))
1.981709      	((1.622935e-05 -8.283357e-03 2.333714e-06) (6.750422e-07 -2.440258e-03 -5.438250e-08)) ((3.974813e-11 -2.408563e-11 2.483864e-08) (1.535822e-09 1.487877e-10 -1.233558e-07))
2.22747       	((1.894662e-05 -9.194024e-03 4.074945e-06) (5.279655e-07 -2.388773e-03 -8.535837e-08)) ((6.907299e-11 -4.806481e-11 2.712471e-08) (5.259259e-09 7.891912e-11 -1.435982e-07))
2.470807      	((2.227333e-05 -9.965877e-03 6.285422e-06) (4.597807e-07 -2.344712e-03 -6.901660e-08)) ((7.806421e-11 -1.052223e-10 2.925090e-08) (6.986248e-09 6.286789e-11 -1.595323e-07))
2.713024      	((2.664202e-05 -1.054641e-02 8.217499e-06) (4.086947e-07 -2.308173e-03 3.226911e-08)) ((5.460907e-11 -1.645925e-10 3.206825e-08) (4.550483e-09 1.739052e-10 -1.662440e-07))
2.955229      	((2.985909e-05 -1.093687e-02 9.520459e-06) (3.486964e-07 -2.276394e-03 1.759252e-07)) ((6.744101e-11 -1.550402e-10 3.485239e-08) (-1.613877e-10 1.979496e-10 -1.637189e-07))
3.19758       	((3.223256e-05 -1.110104e-02 1.019503e-05) (3.445843e-07 -2.246232e-03 2.615549e-07)) ((8.466199e-11 -1.185015e-10 3.732887e-08) (-2.779575e-09 1.992756e-10 -1.538391e-07))
3.439563      	((3.530154e-05 -1.100783e-02 1.013738e-05) (4.085339e-07 -2.217778e-03 2.732608e-07)) ((8.337146e-11 -1.281624e-10 3.902454e-08) (-2.002439e-09 2.193372e-10 -1.454329e-07))
3.680724      	((4.088455e-05 -1.082266e-02 1.183121e-05) (6.350908e-07 -2.191482e-03 2.834812e-07)) ((1.301847e-10 -1.494712e-10 3.972015e-08) (-5.306777e-10 4.195016e-11 -1.385243e-07))
3.921048      	((4.644714e-05 -1.064763e-02 1.350497e-05) (9.798168e-07 -2.167882e-03 3.201519e-07)) ((1.653255e-10 -1.540708e-10 3.943050e-08) (-3.260689e-10 -3.758983e-11 -1.266320e-07))
4.160727      	((5.073730e-05 -1.052283e-02 1.511211e-05) (1.251048e-06 -2.148676e-03 3.942408e-07)) ((1.304293e-10 -1.572350e-10 3.924832e-08) (-1.053937e-09 1.070910e-10 -1.158361e-07))
4.399898      	((5.386584e-05 -1.044923e-02 1.616609e-05) (1.370826e-06 -2.133907e-03 4.884940e-07)) ((1.340242e-10 -1.625275e-10 3.958095e-08) (-2.147658e-09 -8.010860e-11 -1.096411e-07))
4.638552      	((5.796197e-05 -1.038341e-02 1.918722e-05) (1.468925e-06 -2.121072e-03 5.855762e-07)) ((1.891660e-10 -1.893525e-10 4.052192e-08) (-2.955142e-09 -2.766477e-10 -1.035602e-07))
4.876626      	((6.501662e-05 -1.030503e-02 2.266427e-05) (1.643225e-06 -2.108649e-03 6.789630e-07)) ((1.918323e-10 -1.736555e-10 4.163660e-08) (-2.295383e-09 -2.624040e-10 -9.613309e-08))
5.114089      	((7.236052e-05 -1.021728e-02 2.559512e-05) (1.835098e-06 -2.096490e-03 7.682251e-07)) ((2.363597e-10 -1.837986e-10 4.239550e-08) (-2.577802e-10 -6.797339e-11 -9.105515e-08))
5.350963      	((7.863224e-05 -1.009094e-02 2.698772e-05) (2.096580e-06 -2.084259e-03 8.440724e-07)) ((1.903932e-10 -1.783110e-10 4.273723e-08) (2.054332e-09 3.189898e-10 -8.761511e-08))
5.587305      	((8.545240e-05 -9.955241e-03 2.897838e-05) (2.399139e-06 -2.072162e-03 9.131210e-07)) ((1.562188e-10 -2.183859e-10 4.264170e-08) (4.426172e-09 5.472547e-10 -8.481676e-08))
5.823152      	((9.481131e-05 -9.840837e-03 3.196421e-05) (2.676011e-06 -2.060970e-03 9.809839e-07)) ((1.352810e-10 -2.913779e-10 4.233237e-08) (7.335546e-09 3.824526e-10 -8.470631e-08))
6.058533      	((1.053472e-04 -9.757794e-03 3.590902e-05) (2.954942e-06 -2.050883e-03 1.050117e-06)) ((1.456984e-10 -3.436431e-10 4.206552e-08) (1.040841e-08 2.475567e-10 -8.695432e-08))
6.293463      	((1.184465e-04 -9.698438e-03 4.118437e-05) (3.261641e-06 -2.041605e-03 1.134532e-06)) ((2.133662e-10 -3.892953e-10 4.197412e-08) (1.355248e-08 1.609448e-10 -9.227278e-08))
6.527969      	((1.330719e-04 -9.642702e-03 4.711359e-05) (3.615401e-06 -2.033095e-03 1.240439e-06)) ((2.566309e-10 -3.765331e-10 4.200704e-08) (1.763780e-08 2.337044e-10 -1.007647e-07))
6.762093      	((1.504694e-04 -9.592902e-03 5.226784e-05) (4.027992e-06 -2.025395e-03 1.367907e-06)) ((2.620530e-10 -3.371401e-10 4.211727e-08) (2.154217e-08 4.229275e-10 -1.101823e-07))
6.995874      	((1.696541e-04 -9.549385e-03 5.696347e-05) (4.496346e-06 -2.018333e-03 1.501838e-06)) ((2.693889e-10 -3.034749e-10 4.231286e-08) (2.507024e-08 3.888846e-10 -1.205351e-07))
7.229331      	((1.875866e-04 -9.505088e-03 6.185916e-05) (4.962668e-06 -2.011509e-03 1.628097e-06)) ((2.703747e-10 -2.635710e-10 4.250378e-08) (2.929164e-08 1.257792e-10 -1.341927e-07))
7.462482      	((2.056379e-04 -9.461385e-03 6.667049e-05) (5.456823e-06 -2.004669e-03 1.773929e-06)) ((3.002639e-10 -2.060290e-10 4.263395e-08) (3.268974e-08 2.227023e-10 -1.469619e-07))
7.695347      	((2.253565e-04 -9.414383e-03 7.171759e-05) (6.030142e-06 -1.997890e-03 1.942592e-06)) ((3.325476e-10 -1.504636e-10 4.267722e-08) (3.569588e-08 6.900591e-10 -1.570597e-07))
7.927942      	((2.483746e-04 -9.367080e-03 7.751628e-05) (6.675511e-06 -1.991307e-03 2.116966e-06)) ((3.902429e-10 -1.139125e-10 4.267990e-08) (3.926151e-08 9.724345e-10 -1.649441e-07))
8.160297      	((2.735451e-04 -9.321702e-03 8.580913e-05) (7.387634e-06 -1.985034e-03 2.315984e-06)) ((4.533496e-10 -8.948315e-11 4.269060e-08) (4.302295e-08 1.134023e-09 -1.715213e-07))
8.39246       	((3.028635e-04 -9.281126e-03 9.263796e-05) (8.195337e-06 -1.979126e-03 2.531051e-06)) ((4.703613e-10 -5.022170e-11 4.269237e-08) (4.658684e-08 1.344158e-09 -1.782253e-07))
8.624462      	((3.350552e-04 -9.247759e-03 1.006557e-04) (9.107483e-06 -1.973619e-03 2.762724e-06)) ((5.061981e-10 2.294229e-12 4.272472e-08) (4.978897e-08 1.578755e-09 -1.864750e-07))
8.856308      	((3.676521e-04 -9.220395e-03 1.096174e-04) (1.010147e-05 -1.968497e-03 3.035255e-06)) ((5.567445e-10 7.085322e-11 4.277704e-08) (5.269935e-08 1.622151e-09 -1.978337e-07))
9.087995      	((4.032915e-04 -9.194029e-03 1.197208e-04) (1.117311e-05 -1.963660e-03 3.345847e-06)) ((6.215098e-10 1.371542e-10 4.284854e-08) (5.596692e-08 1.511023e-09 -2.114370e-07))
9.319526      	((4.427391e-04 -9.168365e-03 1.302348e-04) (1.235456e-05 -1.958989e-03 3.674833e-06)) ((7.008137e-10 2.039372e-10 4.292327e-08) (6.038059e-08 1.510874e-09 -2.259608e-07))
9.550906      	((4.847961e-04 -9.142189e-03 1.403762e-04) (1.365472e-05 -1.954429e-03 4.011932e-06)) ((7.821099e-10 2.632805e-10 4.300589e-08) (6.569899e-08 1.500480e-09 -2.408500e-07))
9.782142      	((5.301022e-04 -9.113768e-03 1.536114e-04) (1.507082e-05 -1.949969e-03 4.371170e-06)) ((8.701815e-10 2.981227e-10 4.309866e-08) (7.141639e-08 1.311027e-09 -2.560944e-07))
10.013232     	((5.806104e-04 -9.087290e-03 1.705531e-04) (1.660908e-05 -1.945649e-03 4.791384e-06)) ((9.486301e-10 3.087733e-10 4.320600e-08) (7.730188e-08 9.250351e-10 -2.721601e-07))
10.244172     	((6.389149e-04 -9.060318e-03 1.887249e-04) (1.829744e-05 -1.941497e-03 5.278604e-06)) ((1.005117e-09 3.118633e-10 4.331601e-08) (8.382704e-08 5.113376e-10 -2.905836e-07))
10.474962     	((7.063179e-04 -9.036021e-03 2.082378e-04) (2.018377e-05 -1.937545e-03 5.833065e-06)) ((1.095694e-09 3.057538e-10 4.342472e-08) (9.092478e-08 1.664900e-10 -3.123548e-07))
10.705609     	((7.848945e-04 -9.011777e-03 2.299721e-04) (2.233510e-05 -1.933805e-03 6.459961e-06)) ((1.220151e-09 3.054476e-10 4.352319e-08) (9.866117e-08 -1.315656e-10 -3.380141e-07))
10.936116     	((8.731269e-04 -8.988148e-03 2.560081e-04) (2.477019e-05 -1.930241e-03 7.177608e-06)) ((1.369963e-09 2.965499e-10 4.360811e-08) (1.068763e-07 -3.442633e-10 -3.683280e-07))
11.166486     	((9.739670e-04 -8.963634e-03 2.855918e-04) (2.750814e-05 -1.926792e-03 7.999499e-06)) ((1.540826e-09 2.571492e-10 4.366949e-08) (1.159640e-07 -3.417673e-10 -4.040768e-07))
11.396726     	((1.085132e-03 -8.939447e-03 3.194377e-04) (3.057681e-05 -1.923430e-03 8.928680e-06)) ((1.747971e-09 2.029486e-10 4.369538e-08) (1.266899e-07 -5.079986e-10 -4.449586e-07))
11.626841     	((1.207758e-03 -8.918161e-03 3.559864e-04) (3.398704e-05 -1.920152e-03 9.983629e-06)) ((1.978565e-09 1.561621e-10 4.367714e-08) (1.388697e-07 -8.922655e-10 -4.904456e-07))
11.856834     	((1.344819e-03 -8.898865e-03 3.948209e-04) (3.779897e-05 -1.916993e-03 1.116511e-05)) ((2.217685e-09 9.880271e-11 4.362038e-08) (1.520784e-07 -7.751562e-10 -5.391462e-07))
12.086711     	((1.495013e-03 -8.884824e-03 4.365693e-04) (4.207088e-05 -1.914016e-03 1.247844e-05)) ((2.512293e-09 4.652665e-11 4.352979e-08) (1.653442e-07 2.101817e-10 -5.896735e-07))
12.316477     	((1.659989e-03 -8.873529e-03 4.811153e-04) (4.686298e-05 -1.911236e-03 1.390602e-05)) ((2.833508e-09 -3.565635e-11 4.342157e-08) (1.795870e-07 1.424059e-09 -6.419196e-07))
12.546138     	((1.839359e-03 -8.868122e-03 5.302236e-04) (5.220347e-05 -1.908640e-03 1.541858e-05)) ((3.196818e-09 -1.524587e-10 4.329238e-08) (1.965946e-07 2.046252e-09 -6.982404e-07))
12.775697     	((2.033986e-03 -8.866153e-03 5.836669e-04) (5.812177e-05 -1.906240e-03 1.705110e-05)) ((3.606097e-09 -3.140137e-10 4.313733e-08) (2.150269e-07 1.158611e-09 -7.601907e-07))
13.00514      	((2.245571e-03 -8.868906e-03 6.419594e-04) (6.466418e-05 -1.904055e-03 1.884572e-05)) ((4.048271e-09 -4.859193e-10 4.294688e-08) (2.336498e-07 -1.171218e-09 -8.281908e-07))
13.234404     	((2.479300e-03 -8.878297e-03 7.066497e-04) (7.186838e-05 -1.902088e-03 2.082139e-05)) ((4.571853e-09 -6.610883e-10 4.273222e-08) (2.537947e-07 -3.802538e-09 -9.039814e-07))
13.463496     	((2.735941e-03 -8.893929e-03 7.780231e-04) (7.977556e-05 -1.900328e-03 2.300669e-05)) ((5.124775e-09 -8.265616e-10 4.251151e-08) (2.769469e-07 -5.788403e-09 -9.898416e-07))
13.69242      	((3.017156e-03 -8.917267e-03 8.564066e-04) (8.841778e-05 -1.898851e-03 2.540585e-05)) ((5.692565e-09 -9.956101e-10 4.224654e-08) (3.038829e-07 -7.081826e-09 -1.086979e-06))
13.921174     	((3.328107e-03 -8.949736e-03 9.394740e-04) (9.792119e-05 -1.897762e-03 2.802050e-05)) ((6.199417e-09 -1.211621e-09 4.196638e-08) (3.340687e-07 -7.904223e-09 -1.193711e-06))
14.14976      	((3.665042e-03 -8.993484e-03 1.029258e-03) (1.084346e-04 -1.897170e-03 3.087295e-05)) ((6.700788e-09 -1.501952e-09 4.164396e-08) (3.664935e-07 -8.411717e-09 -1.306327e-06))
14.378187     	((4.023865e-03 -9.053082e-03 1.127144e-03) (1.200085e-04 -1.897158e-03 3.401527e-05)) ((7.225272e-09 -1.908258e-09 4.131414e-08) (4.001556e-07 -9.056996e-09 -1.423377e-06))
14.606459     	((4.406130e-03 -9.127591e-03 1.233108e-03) (1.326201e-04 -1.897760e-03 3.748668e-05)) ((7.748822e-09 -2.463868e-09 4.095145e-08) (4.353384e-07 -1.009220e-08 -1.547156e-06))
14.834586     	((4.813976e-03 -9.216382e-03 1.348971e-03) (1.462319e-04 -1.899037e-03 4.131018e-05)) ((8.339353e-09 -3.023213e-09 4.053935e-08) (4.715733e-07 -1.097853e-08 -1.680323e-06))
15.062602     	((5.247363e-03 -9.328165e-03 1.475186e-03) (1.608950e-04 -1.901184e-03 4.548465e-05)) ((9.032199e-09 -3.613989e-09 4.005377e-08) (5.088786e-07 -1.163025e-08 -1.820421e-06))
15.290533     	((5.713940e-03 -9.469774e-03 1.611526e-03) (1.767467e-04 -1.904344e-03 5.000917e-05)) ((9.878278e-09 -4.392737e-09 3.945859e-08) (5.495829e-07 -1.221544e-08 -1.967461e-06))
15.518361     	((6.211760e-03 -9.638874e-03 1.760531e-03) (1.938796e-04 -1.908558e-03 5.489547e-05)) ((1.084412e-08 -5.427580e-09 3.884639e-08) (5.969396e-07 -1.249279e-08 -2.123936e-06))
15.746072     	((6.740139e-03 -9.837315e-03 1.924288e-03) (2.123229e-04 -1.914106e-03 6.022807e-05)) ((1.188882e-08 -6.718586e-09 3.816562e-08) (6.499824e-07 -1.175280e-08 -2.287731e-06))
15.97366      	((7.295756e-03 -1.007100e-02 2.099984e-03) (2.321421e-04 -1.921251e-03 6.604033e-05)) ((1.290600e-08 -8.248185e-09 3.745887e-08) (7.093233e-07 -7.716207e-09 -2.451422e-06))
16.201133     	((7.879848e-03 -1.033708e-02 2.288409e-03) (2.533840e-04 -1.930033e-03 7.241786e-05)) ((1.384566e-08 -9.932260e-09 3.674853e-08) (7.738733e-07 -5.324221e-10 -2.615401e-06))
16.42852      	((8.481144e-03 -1.064728e-02 2.483518e-03) (2.759970e-04 -1.940589e-03 7.937066e-05)) ((1.462760e-08 -1.165759e-08 3.601051e-08) (8.396125e-07 7.864375e-09 -2.780804e-06))
16.6558       	((9.093846e-03 -1.099228e-02 2.680175e-03) (2.998161e-04 -1.952959e-03 8.679938e-05)) ((1.526724e-08 -1.353062e-08 3.525604e-08) (9.059121e-07 1.637273e-08 -2.948495e-06))
16.882767     	((9.710116e-03 -1.137855e-02 2.879591e-03) (3.247974e-04 -1.967118e-03 9.468516e-05)) ((1.584963e-08 -1.561350e-08 3.453250e-08) (9.694329e-07 2.484126e-08 -3.113464e-06))
17.109414     	((1.031235e-02 -1.181002e-02 3.070415e-03) (3.508041e-04 -1.983363e-03 1.029436e-04)) ((1.620016e-08 -1.780765e-08 3.379815e-08) (1.026553e-06 3.215567e-08 -3.266739e-06))
17.335729     	((1.088270e-02 -1.228978e-02 3.254249e-03) (3.775151e-04 -2.002065e-03 1.114353e-04)) ((1.635708e-08 -2.005290e-08 3.312108e-08) (1.073220e-06 3.819865e-08 -3.399893e-06))
17.561768     	((1.140836e-02 -1.279888e-02 3.426625e-03) (4.045241e-04 -2.023278e-03 1.199735e-04)) ((1.626771e-08 -2.218747e-08 3.239843e-08) (1.109885e-06 4.387367e-08 -3.507755e-06))
17.787639     	((1.186973e-02 -1.331966e-02 3.574233e-03) (4.313884e-04 -2.046866e-03 1.284380e-04)) ((1.606735e-08 -2.405978e-08 3.177127e-08) (1.134498e-06 4.998616e-08 -3.582772e-06))
18.013492     	((1.223918e-02 -1.383533e-02 3.691726e-03) (4.575185e-04 -2.072431e-03 1.366472e-04)) ((1.584343e-08 -2.570352e-08 3.127602e-08) (1.144632e-06 5.630383e-08 -3.619167e-06))
18.239469     	((1.248828e-02 -1.433114e-02 3.773807e-03) (4.820044e-04 -2.099317e-03 1.442551e-04)) ((1.553802e-08 -2.689697e-08 3.090949e-08) (1.143667e-06 6.224141e-08 -3.620805e-06))
18.46569      	((1.259831e-02 -1.477775e-02 3.807289e-03) (5.041737e-04 -2.126537e-03 1.510107e-04)) ((1.500315e-08 -2.777520e-08 3.068365e-08) (1.133093e-06 6.930166e-08 -3.583515e-06))
18.691998     	((1.253451e-02 -1.512199e-02 3.777364e-03) (5.230981e-04 -2.152676e-03 1.564997e-04)) ((1.418153e-08 -2.800983e-08 3.049541e-08) (1.113401e-06 7.978224e-08 -3.503124e-06))
18.918493     	((1.226659e-02 -1.534827e-02 3.683270e-03) (5.375416e-04 -2.176671e-03 1.603058e-04)) ((1.334416e-08 -2.757390e-08 3.015260e-08) (1.082422e-06 9.632306e-08 -3.372981e-06))
19.145343     	((1.175446e-02 -1.542380e-02 3.515145e-03) (5.459960e-04 -2.197567e-03 1.620446e-04)) ((1.249033e-08 -2.599683e-08 2.950046e-08) (1.037883e-06 1.184534e-07 -3.189331e-06))
19.372724     	((1.097638e-02 -1.530675e-02 3.258681e-03) (5.468891e-04 -2.214092e-03 1.612371e-04)) ((1.176436e-08 -2.318649e-08 2.860089e-08) (9.766004e-07 1.429481e-07 -2.948876e-06))
19.600841     	((9.885499e-03 -1.499191e-02 2.907115e-03) (5.381731e-04 -2.225117e-03 1.572048e-04)) ((1.088584e-08 -1.885996e-08 2.722674e-08) (9.070822e-07 1.721850e-07 -2.670298e-06))
19.829948     	((8.498016e-03 -1.447625e-02 2.479815e-03) (5.176579e-04 -2.229721e-03 1.495787e-04)) ((9.657541e-09 -1.332545e-08 2.601879e-08) (8.362232e-07 2.115715e-07 -2.384160e-06))
20.060159     	((6.813418e-03 -1.382319e-02 1.958557e-03) (4.837902e-04 -2.227752e-03 1.379039e-04)) ((6.660277e-09 -6.302203e-09 2.577255e-08) (7.710192e-07 2.562649e-07 -2.118631e-06))
20.290851     	((4.899996e-03 -1.312997e-02 1.389778e-03) (4.368612e-04 -2.220569e-03 1.220623e-04)) ((1.743701e-09 6.120082e-10 2.666663e-08) (7.207113e-07 2.894433e-07 -1.866154e-06))
20.521985     	((2.838604e-03 -1.251991e-02 7.902640e-04) (3.786721e-04 -2.210978e-03 1.025724e-04)) ((-4.469221e-09 5.819237e-09 2.743875e-08) (6.822433e-07 3.004151e-07 -1.568887e-06))
20.753569     	((7.849123e-04 -1.208622e-02 1.963340e-04) (3.119854e-04 -2.201082e-03 8.038902e-05)) ((-1.123914e-08 8.300005e-09 2.796401e-08) (6.614431e-07 2.968551e-07 -1.239379e-06))
20.985575     	((-1.112525e-03 -1.182901e-02 -3.271248e-04) (2.407892e-04 -2.193659e-03 5.696439e-05)) ((-1.614850e-08 8.767002e-09 2.828565e-08) (6.392700e-07 2.940744e-07 -8.555446e-07))
21.217813     	((-2.770264e-03 -1.177192e-02 -7.728298e-04) (1.699567e-04 -2.191025e-03 3.411429e-05)) ((-1.837903e-08 7.477118e-09 2.797278e-08) (5.995994e-07 3.063780e-07 -3.689334e-07))
21.450261     	((-4.138969e-03 -1.184100e-02 -1.116927e-03) (1.022313e-04 -2.193855e-03 1.321378e-05)) ((-1.826797e-08 6.201482e-09 2.870415e-08) (5.371393e-07 3.295047e-07 1.819627e-07))
21.682875     	((-5.203963e-03 -1.200309e-02 -1.363010e-03) (4.020752e-05 -2.201225e-03 -4.739447e-06)) ((-1.722022e-08 6.001118e-09 3.244978e-08) (4.416374e-07 3.522693e-07 7.661348e-07))
21.915602     	((-6.000031e-03 -1.217718e-02 -1.541010e-03) (-1.351032e-05 -2.212594e-03 -1.901934e-05)) ((-1.533831e-08 6.255025e-09 3.688830e-08) (2.871497e-07 3.677886e-07 1.413906e-06))
22.148433     	((-6.565533e-03 -1.233505e-02 -1.658271e-03) (-5.845786e-05 -2.225659e-03 -2.956242e-05)) ((-1.361926e-08 6.802029e-09 4.004972e-08) (7.627796e-08 3.741647e-07 2.072186e-06))
22.381397     	((-6.924511e-03 -1.242104e-02 -1.734323e-03) (-9.497241e-05 -2.238345e-03 -3.696081e-05)) ((-1.211039e-08 7.267804e-09 4.163015e-08) (-1.607922e-07 3.692193e-07 2.699134e-06))
22.614528     	((-7.131898e-03 -1.245085e-02 -1.774561e-03) (-1.236770e-04 -2.249350e-03 -4.202385e-05)) ((-1.203702e-08 7.512014e-09 4.249480e-08) (-3.971974e-07 3.602915e-07 3.280053e-06))
