# Forces      
# CofR        : (0.000000e+00 0.000000e+00 0.000000e+00)
# Time        forces(pressure viscous)	moments(pressure viscous)
0             	((0.000000e+00 0.000000e+00 0.000000e+00) (-4.000923e-05 5.358061e-15 -2.291575e-15)) ((0.000000e+00 0.000000e+00 0.000000e+00) (2.061056e-18 3.385572e-16 5.473404e-16))
0.012         	((-1.163545e-02 6.102567e-09 4.843592e-09) (-4.591541e-05 3.450736e-11 2.508955e-11)) ((-2.311396e-14 4.865312e-12 1.968050e-12) (3.893145e-15 -4.985300e-14 -7.756788e-13))
0.0264        	((8.063682e-04 -1.786374e-07 -8.328131e-08) (-4.684803e-05 -7.801288e-11 -3.062932e-11)) ((-1.817674e-12 -1.027618e-11 -2.515438e-12) (-5.381817e-14 -4.343050e-13 -1.386646e-12))
0.04368       	((2.433448e-03 2.662572e-07 1.524426e-07) (-4.163219e-05 5.184763e-11 1.975558e-11)) ((-2.480138e-13 -5.103963e-12 -8.763624e-12) (-1.073782e-13 -2.297348e-12 -7.300320e-13))
0.064416      	((2.313827e-05 -1.559700e-08 -3.525760e-09) (-3.687441e-05 -5.177265e-10 -5.009515e-10)) ((1.106966e-12 4.393271e-12 3.094908e-12) (-1.313080e-13 1.884645e-12 -6.169507e-12))
0.0892992     	((-3.174790e-05 -2.049634e-08 -2.590434e-08) (-3.404326e-05 -9.608118e-10 -9.167339e-10)) ((-1.413536e-12 5.183007e-13 2.003698e-12) (6.290253e-13 4.134496e-12 -9.047403e-12))
0.119159      	((3.653453e-05 -1.476475e-08 -3.458003e-09) (-3.143586e-05 -7.884341e-10 -7.945008e-10)) ((8.417155e-13 2.738554e-12 6.236489e-13) (9.502456e-13 -2.351259e-12 -1.421918e-12))
0.154991      	((1.961007e-05 1.172154e-08 4.686063e-09) (-2.867198e-05 -6.144972e-10 -6.111500e-10)) ((-2.317275e-13 1.171879e-12 -3.523266e-13) (8.726944e-13 -5.801387e-12 3.552861e-12))
0.197989      	((4.751775e-06 -6.437947e-09 1.308126e-09) (-2.588423e-05 -3.089742e-10 -3.187997e-10)) ((4.612912e-14 2.246016e-12 -8.222753e-13) (7.898236e-13 -2.005072e-12 1.064286e-12))
0.249587      	((-6.525056e-07 -2.570698e-09 1.015523e-10) (-2.315111e-05 -7.983260e-11 -6.765790e-11)) ((9.851011e-14 1.282259e-12 -2.721065e-13) (5.258560e-13 1.618214e-12 -3.797576e-12))
0.311504      	((-3.123626e-06 -1.359023e-09 -3.103404e-10) (-2.055546e-05 6.305819e-11 7.355355e-11)) ((8.330978e-14 8.501844e-13 -3.352141e-14) (3.161546e-13 1.574063e-12 -5.517221e-12))
0.385805      	((-4.304566e-06 9.576040e-10 1.355811e-09) (-1.816373e-05 1.289758e-10 1.401351e-10)) ((-2.428916e-15 6.694273e-13 -1.316217e-13) (3.603417e-13 9.936503e-13 -5.209758e-12))
0.474966      	((-4.875321e-06 1.054046e-09 7.844920e-10) (-1.602126e-05 1.206424e-10 1.473222e-10)) ((-2.816378e-15 4.633964e-13 -9.204375e-14) (3.051798e-13 5.658359e-13 -4.910183e-12))
0.581959      	((-5.111143e-06 7.365071e-10 7.855183e-10) (-1.414450e-05 1.176981e-10 1.305686e-10)) ((-1.402701e-14 2.670879e-13 -4.913981e-14) (-3.143561e-13 7.327425e-13 -4.044047e-12))
0.710351      	((-5.094189e-06 5.081357e-10 4.283794e-10) (-1.253150e-05 8.811906e-11 1.003439e-10)) ((-1.145958e-14 1.341027e-13 -2.402004e-14) (-8.391387e-13 4.565114e-15 -2.203389e-12))
0.864421      	((-4.911589e-06 2.575420e-10 2.977896e-10) (-1.116147e-05 6.360309e-11 8.730072e-11)) ((-1.739525e-14 6.564672e-14 -7.649458e-15) (-9.108670e-13 -1.060276e-12 -5.898266e-13))
1.049306      	((-4.641736e-06 1.257033e-10 7.761641e-11) (-1.000047e-05 4.617097e-11 7.922231e-11)) ((-1.079213e-14 1.997474e-14 -2.481986e-16) (-7.807249e-13 -2.091441e-12 -9.043235e-14))
1.271167      	((-4.340607e-06 3.594956e-11 4.187672e-11) (-9.013450e-06 3.287167e-11 7.477500e-11)) ((-9.687222e-15 4.819731e-15 -9.003944e-16) (-5.838850e-13 -2.785524e-12 -5.363898e-13))
1.5374        	((-4.031231e-06 2.912590e-11 3.612821e-11) (-8.163798e-06 3.205945e-11 7.761905e-11)) ((-5.309127e-15 3.418274e-15 2.238037e-16) (-3.963836e-13 -3.338789e-12 -7.636596e-13))
1.85688       	((-3.727459e-06 3.184895e-12 -3.086139e-11) (-7.418569e-06 3.480550e-11 6.908112e-11)) ((-3.293808e-15 1.496614e-14 5.174636e-16) (-2.836588e-13 -3.546252e-12 -3.422505e-13))
2.240256      	((-3.438207e-06 -4.043105e-11 -4.176419e-11) (-6.756140e-06 3.681313e-11 5.736169e-11)) ((-4.902769e-15 2.318475e-14 -2.721879e-16) (-2.438241e-13 -3.603977e-12 3.748541e-13))
2.700307      	((-3.167754e-06 -1.191102e-10 -1.156395e-10) (-6.162890e-06 3.164031e-11 5.554534e-11)) ((-6.193421e-15 2.758128e-14 1.344645e-15) (-2.795451e-13 -3.749521e-12 1.272794e-12))
3.252369      	((-2.915593e-06 -1.699119e-10 -1.413505e-10) (-5.629169e-06 2.741421e-11 5.034675e-11)) ((-7.309106e-15 2.546587e-14 2.550037e-15) (-2.632825e-13 -4.119470e-12 1.974724e-12))
3.914842      	((-2.679432e-06 -8.854018e-11 -4.559252e-11) (-5.147705e-06 2.947202e-11 4.698150e-11)) ((-7.618410e-15 2.549218e-14 1.997401e-15) (-2.484009e-13 -4.473346e-12 2.334863e-12))
4.709811      	((-2.460939e-06 3.187804e-11 8.466391e-11) (-4.713343e-06 3.252724e-11 4.485567e-11)) ((-7.724538e-15 2.326332e-14 1.862967e-15) (-1.394368e-13 -4.540230e-12 2.643016e-12))
5.663773      	((-2.260081e-06 1.310954e-10 1.647150e-10) (-4.322017e-06 3.544157e-11 4.041384e-11)) ((-8.574911e-15 2.418829e-14 1.693770e-15) (-8.300701e-14 -4.423995e-12 2.634551e-12))
6.808528      	((-2.076650e-06 1.573732e-10 1.829345e-10) (-3.970361e-06 3.430617e-11 3.718268e-11)) ((-5.302945e-15 2.352979e-14 4.419840e-16) (-9.193987e-14 -4.189639e-12 2.435180e-12))
8.182233      	((-1.910036e-06 1.000742e-10 9.701099e-11) (-3.654809e-06 3.307952e-11 3.718394e-11)) ((-5.203892e-15 1.964928e-14 -2.448968e-17) (-1.284354e-13 -4.079200e-12 2.433201e-12))
9.83068       	((-1.759335e-06 3.982736e-11 -4.111534e-11) (-3.371300e-06 2.760567e-11 2.825137e-11)) ((-6.582631e-15 1.866020e-14 -1.131612e-16) (-1.444904e-13 -4.629225e-12 3.020105e-12))
11.808816     	((-1.622664e-06 -6.853147e-11 -1.309207e-10) (-3.115882e-06 1.749730e-11 1.900853e-11)) ((-6.799819e-15 1.607856e-14 -8.504275e-17) (-1.172756e-13 -5.853588e-12 4.478951e-12))
14.182579     	((-1.498962e-06 -1.868705e-10 -2.260406e-10) (-2.884930e-06 7.331898e-12 1.114043e-11)) ((-5.507048e-15 1.630709e-14 5.788850e-16) (-6.766017e-14 -7.939830e-12 6.856732e-12))
17.031095     	((-1.387665e-06 -2.424473e-10 -3.079710e-10) (-2.675510e-06 -4.651811e-12 -1.275375e-12)) ((-4.579408e-15 1.634618e-14 1.888889e-15) (-6.367645e-14 -1.087913e-11 9.852786e-12))
20.449314     	((-1.288126e-06 -3.914710e-10 -4.524457e-10) (-2.485417e-06 -1.997135e-11 -1.538208e-11)) ((-4.356217e-15 1.629567e-14 2.547802e-15) (-1.141931e-13 -1.413447e-11 1.267782e-11))
24.551176     	((-1.199624e-06 -5.336489e-10 -5.586394e-10) (-2.312991e-06 -3.835494e-11 -3.191490e-11)) ((-3.218182e-15 1.581757e-14 2.966954e-15) (-8.233023e-14 -1.695227e-11 1.498256e-11))
29.473411     	((-1.122071e-06 -4.606478e-10 -4.876932e-10) (-2.156957e-06 -5.129421e-11 -4.235647e-11)) ((-2.970873e-15 1.529419e-14 3.489540e-15) (-6.815088e-14 -1.889069e-11 1.677192e-11))
35.380094     	((-1.054414e-06 -3.443643e-10 -3.719645e-10) (-2.016213e-06 -5.763692e-11 -4.393266e-11)) ((-2.714851e-15 1.245278e-14 1.127406e-15) (-1.312392e-13 -2.052204e-11 1.844696e-11))
42.468112     	((-9.964805e-07 -4.482553e-10 -4.562252e-10) (-1.889634e-06 -6.636956e-11 -5.454867e-11)) ((-2.351194e-15 1.353695e-14 -3.237437e-16) (-1.972391e-13 -2.253417e-11 2.058063e-11))
50.973735     	((-9.473494e-07 -5.047789e-10 -5.003291e-10) (-1.776190e-06 -7.464901e-11 -7.028101e-11)) ((-2.040828e-15 1.400034e-14 1.544274e-17) (-2.409403e-13 -2.510699e-11 2.327934e-11))
61.180482     	((-9.070226e-07 -4.749963e-10 -4.912726e-10) (-1.674873e-06 -8.249221e-11 -8.286785e-11)) ((-2.801568e-15 1.378717e-14 5.481666e-16) (-2.419539e-13 -2.836617e-11 2.642060e-11))
73.428578     	((-8.748314e-07 -4.082619e-10 -4.168993e-10) (-1.584736e-06 -8.774798e-11 -9.012285e-11)) ((-3.194558e-15 1.380753e-14 1.168018e-15) (-2.281053e-13 -3.212401e-11 3.002862e-11))
88.126294     	((-8.506873e-07 -3.091797e-10 -3.198881e-10) (-1.505001e-06 -9.030477e-11 -9.336978e-11)) ((-2.439658e-15 1.342975e-14 1.139887e-15) (-1.910404e-13 -3.627912e-11 3.402318e-11))
105.763553    	((-8.337812e-07 -2.338458e-10 -2.585865e-10) (-1.435021e-06 -9.577329e-11 -9.888491e-11)) ((-2.316020e-15 1.225805e-14 2.135318e-15) (-1.759702e-13 -4.025944e-11 3.811933e-11))
126.928263    	((-8.235413e-07 -1.834732e-10 -2.076939e-10) (-1.374257e-06 -9.890289e-11 -9.994985e-11)) ((-2.472672e-15 1.241106e-14 2.596227e-15) (-1.704499e-13 -4.382704e-11 4.180336e-11))
152.325916    	((-8.195898e-07 -1.291806e-10 -1.657312e-10) (-1.322257e-06 -9.934195e-11 -1.012264e-10)) ((-2.801760e-15 1.263244e-14 3.199655e-15) (-1.815708e-13 -4.659559e-11 4.457956e-11))
182.803099    	((-8.206802e-07 -6.738223e-11 -9.534234e-11) (-1.278591e-06 -1.003831e-10 -1.027154e-10)) ((-3.246826e-15 1.215401e-14 3.689411e-15) (-2.216529e-13 -4.822335e-11 4.628503e-11))
219.375719    	((-8.251862e-07 5.131560e-11 1.428871e-11) (-1.242696e-06 -9.461385e-11 -9.861957e-11)) ((-3.362141e-15 1.178109e-14 3.384315e-15) (-2.893626e-13 -4.861923e-11 4.675858e-11))
262.836678    	((-8.313851e-07 1.306160e-10 9.576023e-11) (-1.213804e-06 -8.445247e-11 -8.761655e-11)) ((-3.365715e-15 1.123442e-14 3.116102e-15) (-2.722349e-13 -4.776460e-11 4.602096e-11))
313.160277    	((-8.373803e-07 2.133682e-10 1.808614e-10) (-1.190834e-06 -6.592213e-11 -7.314045e-11)) ((-3.287729e-15 1.023183e-14 3.067944e-15) (-2.556371e-13 -4.598171e-11 4.436222e-11))
370.332822    	((-8.415940e-07 2.984321e-10 2.718322e-10) (-1.172509e-06 -3.736281e-11 -4.700741e-11)) ((-3.380063e-15 9.450714e-15 2.631745e-15) (-2.548216e-13 -4.356897e-11 4.208675e-11))
434.354963    	((-8.438137e-07 3.552574e-10 3.374257e-10) (-1.157680e-06 -3.343615e-12 -1.422626e-11)) ((-3.064423e-15 8.189749e-15 2.342983e-15) (-2.533107e-13 -4.104235e-11 3.950844e-11))
502.935836    	((-8.449171e-07 3.739811e-10 3.587795e-10) (-1.145610e-06 3.071498e-11 1.894407e-11)) ((-2.504167e-15 7.856250e-15 2.049233e-15) (-2.373022e-13 -3.849736e-11 3.694556e-11))
571.608539    	((-8.455680e-07 3.695984e-10 3.533558e-10) (-1.135818e-06 6.038598e-11 4.737336e-11)) ((-2.184790e-15 7.644413e-15 2.046812e-15) (-2.383045e-13 -3.601025e-11 3.447652e-11))
640.352387    	((-8.457361e-07 3.536871e-10 3.364598e-10) (-1.127784e-06 8.578152e-11 7.232615e-11)) ((-1.680145e-15 7.806403e-15 1.679737e-15) (-2.493372e-13 -3.360046e-11 3.208392e-11))
709.150747    	((-8.458140e-07 3.188742e-10 3.043631e-10) (-1.121219e-06 1.052815e-10 9.166432e-11)) ((-1.278070e-15 8.173611e-15 1.558123e-15) (-2.590978e-13 -3.129822e-11 2.977890e-11))
777.993873    	((-8.457860e-07 2.770220e-10 2.631558e-10) (-1.115837e-06 1.181274e-10 1.042821e-10)) ((-8.995815e-16 8.599742e-15 1.470753e-15) (-2.605085e-13 -2.910380e-11 2.757632e-11))
846.875399    	((-8.457088e-07 2.295079e-10 2.171198e-10) (-1.111430e-06 1.259858e-10 1.122347e-10)) ((-6.303432e-16 8.894017e-15 1.404186e-15) (-2.595000e-13 -2.700594e-11 2.548651e-11))
915.789624    	((-8.455975e-07 1.787294e-10 1.672002e-10) (-1.107812e-06 1.288255e-10 1.149606e-10)) ((-3.572228e-16 9.250465e-15 1.421564e-15) (-2.571572e-13 -2.506994e-11 2.354615e-11))
984.731298    	((-8.454739e-07 1.256453e-10 1.154199e-10) (-1.104838e-06 1.277406e-10 1.136850e-10)) ((-1.703707e-16 9.507236e-15 1.256535e-15) (-2.536670e-13 -2.330205e-11 2.176746e-11))
1053.695805   	((-8.453540e-07 7.373075e-11 6.378628e-11) (-1.102387e-06 1.234438e-10 1.092621e-10)) ((2.954912e-17 9.770625e-15 1.237641e-15) (-2.490139e-13 -2.169973e-11 2.015070e-11))
1122.67928    	((-8.452411e-07 2.495561e-11 1.546720e-11) (-1.100364e-06 1.171811e-10 1.030536e-10)) ((2.150796e-16 1.008791e-14 1.274605e-15) (-2.431209e-13 -2.023341e-11 1.867391e-11))
1191.678516   	((-8.451393e-07 -2.039958e-11 -2.919337e-11) (-1.098693e-06 1.091300e-10 9.505727e-11)) ((3.203791e-16 1.036848e-14 1.284731e-15) (-2.376208e-13 -1.891888e-11 1.735033e-11))
1260.690856   	((-8.450492e-07 -6.158388e-11 -7.014160e-11) (-1.097312e-06 9.999008e-11 8.622013e-11)) ((4.056493e-16 1.059332e-14 1.256466e-15) (-2.329624e-13 -1.775532e-11 1.618534e-11))
1329.714091   	((-8.449678e-07 -9.847472e-11 -1.068121e-10) (-1.096169e-06 9.057949e-11 7.693562e-11)) ((4.748660e-16 1.077386e-14 1.222851e-15) (-2.283884e-13 -1.672764e-11 1.515048e-11))
1398.746381   	((-8.448986e-07 -1.313497e-10 -1.395371e-10) (-1.095223e-06 8.092890e-11 6.750329e-11)) ((5.185425e-16 1.096483e-14 1.197377e-15) (-2.240788e-13 -1.582937e-11 1.424595e-11))
1467.786198   	((-8.448337e-07 -1.596837e-10 -1.675525e-10) (-1.094439e-06 7.159952e-11 5.840320e-11)) ((5.609268e-16 1.108421e-14 1.188219e-15) (-2.208219e-13 -1.504267e-11 1.345792e-11))
1536.832272   	((-8.447786e-07 -1.844337e-10 -1.921906e-10) (-1.093788e-06 6.283158e-11 4.978071e-11)) ((6.017848e-16 1.118314e-14 1.196312e-15) (-2.185733e-13 -1.436244e-11 1.277221e-11))
1605.88355    	((-8.447308e-07 -2.054763e-10 -2.131678e-10) (-1.093248e-06 5.479635e-11 4.183491e-11)) ((6.476573e-16 1.126643e-14 1.182521e-15) (-2.165819e-13 -1.377470e-11 1.218075e-11))
1674.93916    	((-8.446905e-07 -2.234334e-10 -2.310577e-10) (-1.092799e-06 4.754011e-11 3.468822e-11)) ((6.792728e-16 1.135031e-14 1.172013e-15) (-2.148678e-13 -1.326752e-11 1.167112e-11))
1743.998375   	((-8.446557e-07 -2.382903e-10 -2.459775e-10) (-1.092425e-06 4.108596e-11 2.830692e-11)) ((7.067445e-16 1.142825e-14 1.167014e-15) (-2.134600e-13 -1.283398e-11 1.123538e-11))
1813.060592   	((-8.446259e-07 -2.508525e-10 -2.586237e-10) (-1.092115e-06 3.540044e-11 2.271248e-11)) ((7.342329e-16 1.150292e-14 1.166834e-15) (-2.123477e-13 -1.246622e-11 1.086589e-11))
1882.125309   	((-8.445999e-07 -2.612446e-10 -2.690797e-10) (-1.091857e-06 3.045019e-11 1.782449e-11)) ((7.514003e-16 1.156917e-14 1.158629e-15) (-2.112586e-13 -1.215627e-11 1.055366e-11))
1951.192109   	((-8.445780e-07 -2.699160e-10 -2.774380e-10) (-1.091641e-06 2.618836e-11 1.363713e-11)) ((7.668280e-16 1.161297e-14 1.148584e-15) (-2.104926e-13 -1.189393e-11 1.029055e-11))
2020.260645   	((-8.445593e-07 -2.770085e-10 -2.846215e-10) (-1.091462e-06 2.257558e-11 1.008561e-11)) ((7.771836e-16 1.163624e-14 1.140366e-15) (-2.098103e-13 -1.167174e-11 1.006812e-11))
2089.330627   	((-8.445440e-07 -2.828798e-10 -2.905195e-10) (-1.091313e-06 1.953344e-11 7.092300e-12)) ((7.900169e-16 1.165728e-14 1.134682e-15) (-2.092015e-13 -1.148387e-11 9.880412e-12))
2158.401814   	((-8.445306e-07 -2.876916e-10 -2.954752e-10) (-1.091188e-06 1.698695e-11 4.581423e-12)) ((7.990965e-16 1.167646e-14 1.130601e-15) (-2.087630e-13 -1.132561e-11 9.722613e-12))
2227.474007   	((-8.445192e-07 -2.916640e-10 -2.996126e-10) (-1.091085e-06 1.487258e-11 2.484135e-12)) ((8.068084e-16 1.169344e-14 1.127466e-15) (-2.084450e-13 -1.119273e-11 9.590103e-12))
2296.547039   	((-8.445093e-07 -2.949783e-10 -3.030390e-10) (-1.090998e-06 1.312304e-11 7.377371e-13)) ((8.134518e-16 1.170925e-14 1.126117e-15) (-2.081334e-13 -1.108125e-11 9.478987e-12))
2365.62077    	((-8.445012e-07 -2.976927e-10 -3.059233e-10) (-1.090926e-06 1.168283e-11 -7.091252e-13)) ((8.190875e-16 1.172134e-14 1.125736e-15) (-2.078229e-13 -1.098765e-11 9.385846e-12))
2434.695084   	((-8.444947e-07 -2.999257e-10 -3.082649e-10) (-1.090866e-06 1.049745e-11 -1.906861e-12)) ((8.235706e-16 1.172897e-14 1.124548e-15) (-2.075359e-13 -1.090937e-11 9.307982e-12))
2503.769885   	((-8.444891e-07 -3.018195e-10 -3.102801e-10) (-1.090815e-06 9.519985e-12 -2.900202e-12)) ((8.275540e-16 1.173598e-14 1.123626e-15) (-2.072644e-13 -1.084392e-11 9.242857e-12))
2572.845092   	((-8.444846e-07 -3.034324e-10 -3.119732e-10) (-1.090774e-06 8.712551e-12 -3.722911e-12)) ((8.307466e-16 1.174164e-14 1.122611e-15) (-2.070263e-13 -1.078910e-11 9.188271e-12))
2641.920637   	((-8.444807e-07 -3.047853e-10 -3.134119e-10) (-1.090739e-06 8.046327e-12 -4.406262e-12)) ((8.325157e-16 1.174575e-14 1.121803e-15) (-2.068191e-13 -1.074312e-11 9.142501e-12))
2710.996466   	((-8.444772e-07 -3.059375e-10 -3.146126e-10) (-1.090709e-06 7.491989e-12 -4.974587e-12)) ((8.347642e-16 1.175145e-14 1.121799e-15) (-2.066410e-13 -1.070455e-11 9.104122e-12))
2780.072531   	((-8.444745e-07 -3.069184e-10 -3.156372e-10) (-1.090685e-06 7.030884e-12 -5.448535e-12)) ((8.361258e-16 1.175517e-14 1.121508e-15) (-2.064893e-13 -1.067221e-11 9.071896e-12))
2849.148793   	((-8.444725e-07 -3.077920e-10 -3.165372e-10) (-1.090665e-06 6.643707e-12 -5.847412e-12)) ((8.374146e-16 1.175744e-14 1.121194e-15) (-2.063595e-13 -1.064508e-11 9.044791e-12))
2918.22522    	((-8.444704e-07 -3.084977e-10 -3.172583e-10) (-1.090648e-06 6.318445e-12 -6.183507e-12)) ((8.383378e-16 1.176059e-14 1.120962e-15) (-2.062499e-13 -1.062231e-11 9.022033e-12))
2987.301784   	((-8.444686e-07 -3.091017e-10 -3.178756e-10) (-1.090634e-06 6.042755e-12 -6.467280e-12)) ((8.390822e-16 1.176352e-14 1.120646e-15) (-2.061581e-13 -1.060314e-11 9.002880e-12))
3056.378463   	((-8.444671e-07 -3.096073e-10 -3.183881e-10) (-1.090622e-06 5.809126e-12 -6.707420e-12)) ((8.397267e-16 1.176590e-14 1.120336e-15) (-2.060813e-13 -1.058701e-11 8.986730e-12))
3125.455239   	((-8.444659e-07 -3.100568e-10 -3.188502e-10) (-1.090612e-06 5.610024e-12 -6.911571e-12)) ((8.402586e-16 1.176777e-14 1.120061e-15) (-2.060182e-13 -1.057341e-11 8.973102e-12))
3194.532094   	((-8.444652e-07 -3.104436e-10 -3.192395e-10) (-1.090604e-06 5.439658e-12 -7.085146e-12)) ((8.410210e-16 1.176903e-14 1.119911e-15) (-2.059670e-13 -1.056197e-11 8.961601e-12))
3263.609016   	((-8.444643e-07 -3.107627e-10 -3.195478e-10) (-1.090597e-06 5.294458e-12 -7.233337e-12)) ((8.413513e-16 1.177022e-14 1.119698e-15) (-2.059245e-13 -1.055231e-11 8.951884e-12))
3332.685994   	((-8.444635e-07 -3.110262e-10 -3.198111e-10) (-1.090591e-06 5.170816e-12 -7.358942e-12)) ((8.416156e-16 1.177156e-14 1.119525e-15) (-2.058922e-13 -1.054416e-11 8.943681e-12))
3401.763019   	((-8.444628e-07 -3.112459e-10 -3.200308e-10) (-1.090586e-06 5.065538e-12 -7.465535e-12)) ((8.418391e-16 1.177273e-14 1.119381e-15) (-2.058658e-13 -1.053732e-11 8.936765e-12))
3470.840082   	((-8.444623e-07 -3.114340e-10 -3.202210e-10) (-1.090582e-06 4.975987e-12 -7.556063e-12)) ((8.420476e-16 1.177341e-14 1.119210e-15) (-2.058449e-13 -1.053157e-11 8.930946e-12))
3539.917179   	((-8.444618e-07 -3.115902e-10 -3.203811e-10) (-1.090579e-06 4.899886e-12 -7.632322e-12)) ((8.422189e-16 1.177420e-14 1.119107e-15) (-2.058279e-13 -1.052676e-11 8.926048e-12))
3608.994302   	((-8.444615e-07 -3.117367e-10 -3.205244e-10) (-1.090576e-06 4.835239e-12 -7.696873e-12)) ((8.424777e-16 1.177483e-14 1.119172e-15) (-2.058145e-13 -1.052271e-11 8.921925e-12))
