# Forces      
# CofR        : (0.000000e+00 0.000000e+00 0.000000e+00)
# Time        forces(pressure viscous)	moments(pressure viscous)
0             	((0.000000e+00 0.000000e+00 0.000000e+00) (0.000000e+00 0.000000e+00 0.000000e+00)) ((0.000000e+00 0.000000e+00 0.000000e+00) (0.000000e+00 0.000000e+00 0.000000e+00))
0.012         	((-3.504163e-12 4.499521e-12 -8.849493e-12) (4.084301e-15 8.451779e-15 5.828007e-14)) ((3.998602e-11 -3.816807e-15 -7.816164e-17) (2.787889e-08 3.056186e-15 -1.281768e-15))
0.0264        	((4.020531e-12 7.870966e-12 -1.598041e-11) (-4.652478e-14 -6.578828e-14 5.071987e-14)) ((1.972739e-11 -2.994791e-15 7.747176e-16) (2.553534e-08 5.271314e-15 -1.265301e-15))
0.04368       	((-1.755012e-11 -1.178654e-11 -1.865363e-11) (2.420377e-14 -2.017766e-13 1.670384e-14)) ((1.089222e-11 -2.493439e-15 8.667762e-16) (2.312690e-08 2.954185e-15 2.182036e-15))
0.064416      	((6.297106e-12 -5.662362e-13 -4.209531e-12) (2.559883e-13 -3.016720e-13 -3.433248e-14)) ((6.098892e-12 -1.678856e-15 -3.186920e-16) (2.070604e-08 -2.857602e-15 5.733968e-15))
0.0892992     	((-2.836753e-12 -3.280274e-12 -1.111884e-12) (5.052591e-13 -3.355673e-13 -1.058093e-13)) ((4.580555e-12 -1.634973e-15 2.272081e-16) (1.834331e-08 -8.586335e-15 7.730231e-15))
0.119159      	((-2.345924e-12 -5.480949e-12 -1.407787e-11) (6.578861e-13 -3.109380e-13 -1.690102e-13)) ((3.272244e-12 -1.161396e-15 -4.813754e-17) (1.611157e-08 -1.178193e-14 8.263120e-15))
0.154991      	((3.216724e-12 6.889817e-12 4.106546e-12) (7.273928e-13 -2.716889e-13 -1.899642e-13)) ((2.592888e-12 -9.138721e-16 -9.438724e-17) (1.406222e-08 -1.275581e-14 7.260701e-15))
0.197989      	((3.698977e-12 9.123178e-13 -4.243574e-12) (7.895835e-13 -2.258479e-13 -1.881725e-13)) ((2.059624e-12 -4.122742e-16 -7.762463e-17) (1.224538e-08 -1.253382e-14 5.974905e-15))
0.249587      	((1.455518e-12 1.358351e-12 -4.240761e-12) (7.917041e-13 -2.095893e-13 -1.928244e-13)) ((1.703996e-12 -2.566708e-16 -1.842654e-16) (1.068801e-08 -1.183452e-14 5.434287e-15))
0.311504      	((1.970014e-12 3.605958e-12 -5.214933e-12) (7.300757e-13 -2.209187e-13 -1.580695e-13)) ((1.422388e-12 -3.478684e-16 -5.187928e-17) (9.386333e-09 -1.060772e-14 5.630221e-15))
0.385805      	((-1.203088e-12 4.585422e-12 -7.071357e-12) (6.585148e-13 -2.041880e-13 -1.317705e-13)) ((1.223304e-12 -3.676554e-16 1.247733e-16) (8.312340e-09 -1.070371e-14 5.614247e-15))
0.474966      	((-9.654332e-13 6.287401e-12 -6.770537e-12) (5.586235e-13 -1.293988e-13 -2.238227e-13)) ((1.092563e-12 -2.225633e-16 1.963226e-16) (7.423873e-09 -1.411466e-14 5.462938e-15))
0.581959      	((4.292984e-12 9.138710e-12 -2.238265e-12) (3.975859e-13 -4.279631e-15 -3.269230e-13)) ((9.792619e-13 -2.739130e-16 3.060092e-16) (6.677064e-09 -1.761698e-14 6.486943e-15))
0.710351      	((4.803511e-12 1.067683e-11 -8.297804e-12) (1.833395e-13 1.034434e-14 -3.211166e-13)) ((8.654248e-13 -3.550744e-16 3.877166e-16) (6.035578e-09 -1.908546e-14 9.291229e-15))
0.864421      	((5.978735e-12 1.329870e-11 -5.092718e-12) (-4.964718e-14 -1.688782e-13 -2.337330e-13)) ((7.888508e-13 -5.580461e-16 4.340447e-16) (5.473650e-09 -1.758677e-14 1.340062e-14))
1.049306      	((3.811601e-12 1.345238e-11 -9.139535e-12) (-1.975035e-13 -3.305528e-13 -1.118476e-13)) ((7.381943e-13 -6.081105e-16 4.038342e-16) (4.974200e-09 -1.337702e-14 1.589008e-14))
1.271167      	((-4.675112e-13 1.709675e-11 -1.140055e-11) (-1.966737e-13 -4.812933e-13 5.877596e-14)) ((6.875970e-13 -5.167473e-16 3.490344e-16) (4.525806e-09 -6.936164e-15 1.959809e-14))
1.5374        	((-1.783752e-12 1.605097e-11 -1.529579e-11) (-9.199629e-14 -7.428421e-13 3.219144e-13)) ((6.293171e-13 -1.242493e-16 2.549419e-16) (4.121033e-09 -2.885907e-15 3.289329e-14))
1.85688       	((1.811019e-12 1.673163e-11 -1.499784e-11) (-2.094207e-13 -1.266221e-12 7.495643e-13)) ((5.780430e-13 3.166182e-18 1.232309e-16) (3.755840e-09 8.667506e-15 4.865920e-14))
2.240256      	((2.062476e-13 1.850484e-11 -1.371654e-11) (-2.081344e-13 -2.075445e-12 1.574607e-12)) ((5.465339e-13 2.258895e-16 -7.893211e-17) (3.428151e-09 2.626639e-14 7.030709e-14))
2.700307      	((3.984904e-13 1.667800e-11 -1.100690e-11) (-2.521304e-14 -3.316116e-12 2.885674e-12)) ((5.249410e-13 3.189424e-16 -2.066907e-16) (3.136493e-09 4.837500e-14 1.071494e-13))
3.252369      	((1.566240e-13 1.188866e-11 -1.132470e-11) (-2.421096e-13 -5.080371e-12 4.368871e-12)) ((5.037873e-13 4.913038e-16 -3.488385e-16) (2.878865e-09 8.041389e-14 1.436988e-13))
3.914842      	((1.209862e-12 5.369185e-12 -7.516356e-12) (-2.112753e-13 -6.774828e-12 5.812734e-12)) ((4.794854e-13 4.171565e-16 -2.695418e-16) (2.652244e-09 1.062068e-13 1.691042e-13))
4.709811      	((-3.872510e-13 1.879560e-12 -2.268268e-12) (1.457952e-13 -8.346209e-12 7.316145e-12)) ((4.509807e-13 4.369572e-16 -1.621415e-16) (2.452458e-09 1.231618e-13 1.855213e-13))
5.663773      	((5.872395e-13 7.540612e-14 1.740479e-12) (8.513444e-14 -9.471137e-12 8.481266e-12)) ((4.189710e-13 4.386238e-16 -1.044382e-16) (2.274835e-09 1.377936e-13 1.888146e-13))
6.808528      	((1.656361e-12 -2.118413e-12 3.213961e-12) (-3.380959e-14 -9.636533e-12 8.768310e-12)) ((3.868582e-13 4.562138e-16 -1.914839e-16) (2.115218e-09 1.385035e-13 1.845659e-13))
8.182233      	((2.223728e-13 -3.188088e-12 5.078782e-12) (-1.214528e-13 -9.049182e-12 8.258237e-12)) ((3.556153e-13 4.215563e-16 -1.885071e-16) (1.970301e-09 1.229877e-13 1.695468e-13))
9.83068       	((1.837710e-12 -3.961821e-12 4.504718e-12) (-3.611325e-13 -7.717822e-12 7.082370e-12)) ((3.242704e-13 3.755671e-16 -3.016652e-16) (1.837633e-09 9.986225e-14 1.375714e-13))
11.808816     	((5.162504e-13 7.679664e-13 1.660091e-12) (-7.969379e-13 -5.886154e-12 5.549098e-12)) ((2.957997e-13 2.999059e-16 -4.204059e-16) (1.715556e-09 8.130750e-14 9.872014e-14))
14.182579     	((2.217712e-13 8.326445e-13 -6.101801e-13) (-1.270128e-12 -4.146549e-12 4.122095e-12)) ((2.688245e-13 2.977408e-16 -4.796865e-16) (1.603062e-09 6.862782e-14 5.910316e-14))
17.031095     	((6.244186e-13 1.546650e-12 -8.992429e-14) (-1.278129e-12 -2.864527e-12 2.929739e-12)) ((2.463664e-13 1.613289e-16 -4.609599e-16) (1.499625e-09 5.124747e-14 3.040225e-14))
20.449314     	((3.312330e-14 1.935896e-12 -7.101033e-13) (-9.887263e-13 -1.937302e-12 1.998746e-12)) ((2.262793e-13 9.826337e-17 -4.480107e-16) (1.404882e-09 3.210511e-14 1.775542e-14))
24.551176     	((-5.306587e-13 1.856764e-12 -1.542511e-12) (-6.311112e-13 -1.379828e-12 1.380099e-12)) ((2.086497e-13 9.431965e-17 -4.640556e-16) (1.318280e-09 1.895291e-14 1.134647e-14))
29.473411     	((-3.040850e-14 1.996428e-12 -7.151736e-13) (-3.451546e-13 -1.017960e-12 1.078442e-12)) ((1.938298e-13 5.185346e-17 -4.293256e-16) (1.239262e-09 1.265357e-14 9.160136e-15))
35.380094     	((-2.169438e-13 2.614837e-12 -7.702833e-13) (-1.624639e-13 -8.131804e-13 9.261765e-13)) ((1.805759e-13 2.118093e-17 -3.847269e-16) (1.167185e-09 7.272880e-15 1.279799e-14))
42.468112     	((-4.277463e-13 1.702150e-12 -8.740585e-13) (-5.500108e-14 -8.234650e-13 8.953555e-13)) ((1.689928e-13 1.960608e-17 -3.585871e-16) (1.101443e-09 5.231367e-15 1.655337e-14))
50.973735     	((-1.412567e-13 1.586766e-12 -4.093873e-13) (1.180128e-13 -9.081540e-13 9.869573e-13)) ((1.585514e-13 -9.835438e-18 -3.182436e-16) (1.041509e-09 5.252050e-15 1.890478e-14))
61.180482     	((-1.326162e-13 1.377512e-12 -9.633335e-13) (1.453017e-13 -1.091717e-12 1.143254e-12)) ((1.491149e-13 -5.002968e-17 -2.854227e-16) (9.869368e-10 7.641105e-15 2.108499e-14))
73.428578     	((-1.262449e-13 1.018024e-12 -1.920595e-13) (8.618910e-14 -1.253401e-12 1.329957e-12)) ((1.409157e-13 -6.919982e-17 -2.538024e-16) (9.373566e-10 1.267374e-14 2.338287e-14))
88.126294     	((1.210432e-13 9.654307e-13 -6.205313e-14) (4.774634e-14 -1.378002e-12 1.474756e-12)) ((1.336440e-13 -9.582553e-17 -2.197777e-16) (8.923980e-10 1.734618e-14 2.588375e-14))
105.763553    	((9.779181e-14 6.532783e-13 2.312563e-13) (-6.317445e-15 -1.436470e-12 1.529449e-12)) ((1.267823e-13 -1.078967e-16 -1.954887e-16) (8.517143e-10 1.872849e-14 2.776618e-14))
126.928263    	((1.620170e-13 3.105066e-13 4.044666e-13) (-8.573783e-14 -1.423725e-12 1.506201e-12)) ((1.206639e-13 -1.023446e-16 -1.840166e-16) (8.149383e-10 1.834557e-14 2.858310e-14))
152.325916    	((3.631627e-14 9.378193e-14 5.010203e-13) (-1.602436e-13 -1.355191e-12 1.423753e-12)) ((1.152233e-13 -9.747090e-17 -1.720489e-16) (7.816850e-10 1.840232e-14 2.896565e-14))
182.803099    	((1.556970e-13 -1.127947e-13 4.461736e-13) (-1.672325e-13 -1.259659e-12 1.284788e-12)) ((1.101668e-13 -9.702954e-17 -1.622616e-16) (7.515630e-10 1.874064e-14 2.908188e-14))
219.375719    	((2.283779e-13 -1.168132e-13 4.581260e-13) (-2.053599e-13 -1.194927e-12 1.193834e-12)) ((1.055586e-13 -9.209944e-17 -1.528890e-16) (7.242179e-10 2.037594e-14 2.978593e-14))
263.262863    	((1.879607e-13 -2.554789e-13 3.773500e-13) (-3.158538e-13 -1.190652e-12 1.164360e-12)) ((1.013904e-13 -8.347690e-17 -1.346889e-16) (6.993551e-10 2.155418e-14 3.098979e-14))
315.927436    	((5.105051e-14 -3.192172e-13 3.567158e-13) (-3.357862e-13 -1.209488e-12 1.156391e-12)) ((9.763906e-14 -6.715620e-17 -1.279946e-16) (6.767374e-10 2.257373e-14 3.217656e-14))
379.124923    	((9.539739e-15 -3.231552e-13 3.924014e-13) (-3.199573e-13 -1.217162e-12 1.184246e-12)) ((9.420964e-14 -5.484595e-17 -1.168990e-16) (6.561740e-10 2.318541e-14 3.294018e-14))
454.961908    	((-6.270287e-14 -3.388029e-13 3.458787e-13) (-3.458000e-13 -1.198211e-12 1.194609e-12)) ((9.106452e-14 -4.086247e-17 -1.064229e-16) (6.375207e-10 2.307238e-14 3.243508e-14))
545.966289    	((3.959403e-14 -3.547167e-13 2.550314e-13) (-2.956860e-13 -1.175075e-12 1.185192e-12)) ((8.817355e-14 -3.017534e-17 -1.002214e-16) (6.206521e-10 2.316926e-14 3.120779e-14))
655.171547    	((1.303898e-13 -3.762797e-13 2.189310e-13) (-1.956960e-13 -1.126076e-12 1.138189e-12)) ((8.553362e-14 -2.144971e-17 -9.971133e-17) (6.054486e-10 2.265985e-14 2.952422e-14))
786.217856    	((1.336908e-13 -3.953350e-13 2.190901e-13) (-1.581948e-13 -1.066901e-12 1.091551e-12)) ((8.313138e-14 -1.432573e-17 -9.904946e-17) (5.918029e-10 2.233522e-14 2.798201e-14))
943.473427    	((1.340570e-13 -4.486265e-13 1.731474e-13) (-1.380108e-13 -1.010633e-12 1.043347e-12)) ((8.098253e-14 -6.792970e-18 -9.911617e-17) (5.796137e-10 2.170176e-14 2.644289e-14))
1132.180113   	((1.458743e-13 -5.035826e-13 1.225135e-13) (-9.056083e-14 -9.647197e-13 9.936382e-13)) ((7.909632e-14 -3.959573e-18 -9.476770e-17) (5.687807e-10 2.128164e-14 2.462606e-14))
1358.628135   	((1.475842e-13 -5.808037e-13 5.478196e-14) (-7.824539e-14 -9.254149e-13 9.218592e-13)) ((7.743675e-14 -2.432054e-18 -8.601260e-17) (5.592068e-10 2.045502e-14 2.368756e-14))
1630.365763   	((1.425107e-13 -5.327628e-13 9.258517e-14) (-9.914262e-14 -8.743639e-13 8.638979e-13)) ((7.598705e-14 6.465609e-19 -8.413501e-17) (5.507873e-10 1.963716e-14 2.264760e-14))
1956.450915   	((1.320960e-13 -5.008099e-13 1.491844e-13) (-1.277033e-13 -8.352746e-13 8.317941e-13)) ((7.473535e-14 3.229703e-18 -8.425962e-17) (5.434238e-10 1.888501e-14 2.148305e-14))
2347.753098   	((1.217400e-13 -4.582499e-13 1.995000e-13) (-1.331564e-13 -7.977726e-13 8.056280e-13)) ((7.365523e-14 6.310565e-18 -8.358153e-17) (5.370237e-10 1.813645e-14 2.050195e-14))
2817.315718   	((1.325308e-13 -4.417305e-13 2.360146e-13) (-1.237294e-13 -7.626859e-13 7.775686e-13)) ((7.272839e-14 1.016672e-17 -8.323802e-17) (5.314964e-10 1.722245e-14 1.965660e-14))
3380.790861   	((1.445729e-13 -4.460447e-13 2.464848e-13) (-9.618469e-14 -7.262837e-13 7.400268e-13)) ((7.194039e-14 1.330051e-17 -8.268032e-17) (5.267535e-10 1.613335e-14 1.890640e-14))
4056.961033   	((1.838491e-13 -4.218365e-13 2.183630e-13) (-7.084803e-14 -6.986055e-13 6.994705e-13)) ((7.126485e-14 1.779065e-17 -8.268486e-17) (5.227113e-10 1.526519e-14 1.800870e-14))
4868.36524    	((2.016249e-13 -3.944096e-13 2.108469e-13) (-5.113207e-14 -6.800843e-13 6.630134e-13)) ((7.069264e-14 2.115956e-17 -8.220112e-17) (5.192904e-10 1.465711e-14 1.694304e-14))
5842.050288   	((1.909160e-13 -3.983832e-13 2.019043e-13) (-4.462105e-14 -6.572441e-13 6.366171e-13)) ((7.019196e-14 2.632095e-17 -8.208420e-17) (5.164165e-10 1.429076e-14 1.597101e-14))
7010.472346   	((2.444253e-13 -3.984183e-13 1.839329e-13) (-3.172655e-14 -6.334544e-13 6.208244e-13)) ((6.978994e-14 2.946711e-17 -8.053760e-17) (5.140190e-10 1.388934e-14 1.503550e-14))
8412.578815   	((2.535577e-13 -4.027048e-13 1.594508e-13) (-1.624366e-14 -6.146552e-13 6.060828e-13)) ((6.945642e-14 2.937508e-17 -8.215124e-17) (5.120328e-10 1.351565e-14 1.412583e-14))
10095.106578  	((2.267907e-13 -3.930364e-13 1.486647e-13) (-9.089952e-15 -5.977283e-13 5.927308e-13)) ((6.917676e-14 2.830902e-17 -8.395185e-17) (5.103982e-10 1.331231e-14 1.334031e-14))
12114.139893  	((1.860885e-13 -3.871968e-13 1.374821e-13) (-7.324105e-15 -5.820420e-13 5.827486e-13)) ((6.894587e-14 2.785394e-17 -8.474613e-17) (5.090612e-10 1.314626e-14 1.269427e-14))
14536.979872  	((1.580407e-13 -4.008341e-13 1.186635e-13) (-8.802675e-15 -5.681693e-13 5.745436e-13)) ((6.876317e-14 3.302970e-17 -8.357196e-17) (5.079739e-10 1.292806e-14 1.217902e-14))
17444.387847  	((1.091499e-13 -3.741188e-13 1.079930e-13) (-1.153113e-14 -5.553085e-13 5.631419e-13)) ((6.859859e-14 2.525629e-17 -8.574058e-17) (5.070942e-10 1.282550e-14 1.175322e-14))
20863.516367  	((9.515566e-14 -3.739939e-13 8.208171e-14) (-1.328736e-14 -5.442164e-13 5.508988e-13)) ((6.847310e-14 2.533519e-17 -8.521024e-17) (5.063857e-10 1.276180e-14 1.136604e-14))
24794.375159  	((1.544895e-13 -3.828404e-13 4.783203e-14) (-8.962740e-15 -5.341983e-13 5.411683e-13)) ((6.835058e-14 2.472854e-17 -8.492390e-17) (5.058177e-10 1.263117e-14 1.109337e-14))
29236.971941  	((1.989304e-13 -4.157417e-13 3.913863e-14) (-6.168022e-15 -5.239106e-13 5.338213e-13)) ((6.826684e-14 2.114668e-17 -9.239726e-17) (5.053632e-10 1.248817e-14 1.095505e-14))
34191.312823  	((2.240956e-13 -4.200167e-13 -4.030124e-14) (-3.876096e-15 -5.208514e-13 5.247284e-13)) ((6.819408e-14 3.133637e-17 -7.702148e-17) (5.050011e-10 1.234634e-14 1.071192e-14))
39308.802158  	((3.583887e-13 -5.172214e-13 -7.149943e-14) (6.344759e-15 -5.155584e-13 5.297256e-13)) ((6.811674e-14 3.005790e-17 -8.337891e-17) (5.047141e-10 1.177798e-14 1.030920e-14))
44426.329474  	((3.491512e-13 -6.243834e-13 -2.990385e-14) (1.507945e-14 -5.035478e-13 5.216736e-13)) ((6.806405e-14 1.768645e-17 -9.851162e-17) (5.044866e-10 1.184664e-14 1.060740e-14))
49543.886746  	((5.203625e-13 -6.927500e-13 -9.585669e-15) (1.752763e-14 -4.947025e-13 5.149947e-13)) ((6.799460e-14 2.350105e-17 -9.343008e-17) (5.043075e-10 1.222716e-14 1.083554e-14))
54661.467593  	((5.800192e-13 -7.970082e-13 -7.191604e-14) (2.274990e-14 -5.067791e-13 5.071745e-13)) ((6.794434e-14 2.400069e-17 -9.307763e-17) (5.041662e-10 1.194119e-14 1.099400e-14))
59779.067073  	((6.020560e-13 -8.339598e-13 -6.029373e-14) (2.713114e-14 -5.201203e-13 5.001864e-13)) ((6.790151e-14 2.904655e-17 -8.902542e-17) (5.040550e-10 1.138368e-14 1.113863e-14))
64896.681279  	((6.677852e-13 -9.209772e-13 -6.887014e-14) (2.870843e-14 -5.178734e-13 4.886429e-13)) ((6.785511e-14 2.814027e-17 -8.090993e-17) (5.039671e-10 1.095129e-14 1.099891e-14))
70014.307169  	((8.289080e-13 -1.094446e-12 -1.246136e-13) (3.163364e-14 -5.230894e-13 4.836442e-13)) ((6.779973e-14 1.552496e-17 -7.212445e-17) (5.038981e-10 1.120189e-14 1.051204e-14))
75131.942247  	((8.627207e-13 -1.176865e-12 -1.067941e-13) (4.491004e-14 -5.148711e-13 4.931896e-13)) ((6.776631e-14 1.842368e-17 -8.055223e-17) (5.038441e-10 1.133991e-14 1.021861e-14))
80249.58447   	((8.788282e-13 -1.288238e-12 -4.980412e-14) (5.084515e-14 -5.079132e-13 4.963886e-13)) ((6.773765e-14 1.992960e-17 -7.978075e-17) (5.038008e-10 1.128240e-14 1.031176e-14))
85367.232329  	((8.820432e-13 -1.388191e-12 2.091170e-14) (5.195729e-14 -5.043292e-13 4.958152e-13)) ((6.770901e-14 1.974021e-17 -8.119802e-17) (5.037659e-10 1.120751e-14 1.027492e-14))
90484.884655  	((9.318875e-13 -1.468957e-12 1.093489e-13) (4.857670e-14 -5.000665e-13 4.939662e-13)) ((6.771835e-14 1.458253e-17 -8.218151e-17) (5.037378e-10 1.118879e-14 1.020150e-14))
95602.540557  	((8.601253e-13 -1.610827e-12 2.367557e-13) (4.917466e-14 -5.010844e-13 4.967213e-13)) ((6.767797e-14 1.386778e-17 -8.141881e-17) (5.037154e-10 1.112882e-14 1.024894e-14))
100720.19929  	((1.012600e-12 -1.660233e-12 3.725123e-13) (5.314534e-14 -5.005046e-13 5.066525e-13)) ((6.761556e-14 2.184285e-18 -8.655521e-17) (5.036983e-10 1.118301e-14 1.014997e-14))
105837.860295 	((1.076252e-12 -1.879125e-12 6.010708e-13) (5.574608e-14 -5.127939e-13 5.144701e-13)) ((6.761369e-14 2.361365e-17 -8.253284e-17) (5.036840e-10 1.115796e-14 1.074733e-14))
110955.523111 	((1.270884e-12 -1.947349e-12 8.105065e-13) (5.918164e-14 -5.064827e-13 5.143540e-13)) ((6.756719e-14 2.185187e-17 -8.250539e-17) (5.036728e-10 1.090016e-14 1.058435e-14))
116073.187385 	((1.402948e-12 -1.889285e-12 1.033634e-12) (6.772935e-14 -5.004627e-13 5.096067e-13)) ((6.753111e-14 2.452007e-17 -7.897128e-17) (5.036631e-10 1.046814e-14 1.033295e-14))
121190.852818 	((1.558684e-12 -1.908150e-12 1.298746e-12) (7.492603e-14 -5.040991e-13 5.204038e-13)) ((6.749181e-14 1.546153e-17 -8.461959e-17) (5.036546e-10 1.045588e-14 1.049188e-14))
