# Forces      
# CofR        : (0.000000e+00 0.000000e+00 0.000000e+00)
# Time        forces(pressure viscous)	moments(pressure viscous)
0             	((0.000000e+00 0.000000e+00 0.000000e+00) (1.773192e-15 -3.178045e-05 4.363997e-15)) ((0.000000e+00 0.000000e+00 0.000000e+00) (-2.094750e-16 5.707105e-18 1.146125e-11))
0.012         	((-8.668294e-10 -9.242552e-03 2.064911e-09) (1.951617e-11 -3.647252e-05 2.758478e-11)) ((-3.799462e-12 -5.809416e-14 1.746118e-09) (-3.123804e-13 -8.770396e-15 2.383654e-11))
0.0264        	((-1.985459e-07 6.386721e-04 -1.684062e-07) (-1.157884e-10 -3.721509e-05 -9.799648e-11)) ((8.412696e-12 -4.590898e-13 -1.147578e-10) (-9.786264e-14 9.542984e-14 3.230573e-11))
0.04368       	((1.242010e-07 1.934153e-03 1.863758e-07) (-1.393745e-10 -3.307347e-05 -6.256960e-11)) ((4.184359e-12 -4.939369e-13 -4.664838e-10) (1.074041e-12 1.152974e-13 2.793181e-11))
0.064416      	((4.264897e-10 1.832465e-05 -2.374235e-08) (-3.184080e-10 -2.929435e-05 -3.866647e-10)) ((-3.302928e-12 8.957353e-14 2.270719e-11) (-3.330801e-12 -1.459647e-14 3.539644e-11))
0.0892992     	((1.244423e-08 -2.544587e-05 -2.613218e-08) (-5.243763e-10 -2.704543e-05 -6.276587e-10)) ((-4.986189e-13 1.194330e-12 2.473358e-11) (-6.690656e-12 -4.007734e-14 3.784620e-11))
0.119159      	((-9.633877e-09 2.897038e-05 -1.729008e-08) (-5.516257e-10 -2.497394e-05 -5.389174e-10)) ((-2.949881e-12 -9.310673e-14 -6.788336e-12) (-2.265244e-13 -1.978794e-13 3.166248e-11))
0.154991      	((1.381694e-09 1.560265e-05 7.022772e-09) (-5.369285e-10 -2.277769e-05 -4.736210e-10)) ((-1.537463e-12 -4.408891e-13 -1.780675e-12) (5.392528e-12 -2.510519e-13 2.247970e-11))
0.197989      	((9.816274e-09 3.776799e-06 3.536576e-09) (-4.018579e-10 -2.056164e-05 -2.838006e-10)) ((-1.933153e-12 7.219388e-14 -4.979770e-13) (3.293037e-12 -4.203548e-13 6.583687e-12))
0.249587      	((-4.563888e-11 -5.122218e-07 2.384629e-09) (-2.341484e-10 -1.838821e-05 -1.135103e-10)) ((-1.374500e-12 -2.159297e-13 1.465241e-12) (3.110687e-13 -3.172126e-13 -8.667995e-13))
0.311504      	((-8.574396e-10 -2.475378e-06 3.992188e-10) (-8.636114e-11 -1.632269e-05 -6.473584e-12)) ((-8.637073e-13 -6.359796e-14 2.311410e-12) (-7.472995e-13 -2.301582e-13 -5.239530e-12))
0.385805      	((2.949815e-10 -3.414256e-06 7.198945e-10) (2.842745e-11 -1.441775e-05 5.586125e-11)) ((-6.555838e-13 -7.578433e-15 1.884849e-12) (-2.014015e-12 -3.285772e-13 -1.119017e-11))
0.474966      	((7.931665e-10 -3.863106e-06 1.091171e-09) (9.539956e-11 -1.271047e-05 7.115570e-11)) ((-3.942283e-13 1.090473e-14 1.543412e-12) (-2.479849e-12 -2.650647e-13 -7.801978e-12))
0.581959      	((5.815220e-10 -4.045866e-06 6.491724e-10) (1.250647e-10 -1.121521e-05 6.410148e-11)) ((-2.435953e-13 1.555393e-14 1.288165e-12) (-2.981006e-12 -1.598554e-13 2.873829e-12))
0.710351      	((4.354514e-10 -4.031720e-06 3.407001e-10) (1.441506e-10 -9.931199e-06 3.750425e-11)) ((-1.294991e-13 2.029765e-14 1.073673e-12) (-2.451129e-12 5.148150e-15 7.312603e-12))
0.864421      	((2.033390e-10 -3.886960e-06 1.177731e-10) (1.913091e-10 -8.842045e-06 3.013692e-11)) ((-6.466214e-14 1.840959e-14 1.123641e-12) (-1.684329e-12 1.065882e-13 4.533138e-12))
1.049306      	((2.375564e-10 -3.673547e-06 7.706160e-11) (2.231535e-10 -7.920592e-06 2.889756e-11)) ((-2.821354e-14 1.459303e-14 1.129897e-12) (-8.105908e-13 1.214795e-13 8.904221e-13))
1.271167      	((2.524018e-10 -3.435936e-06 2.875646e-11) (2.584263e-10 -7.138631e-06 2.313128e-11)) ((-8.989351e-15 1.249458e-14 1.031262e-12) (7.186351e-14 1.012398e-13 -2.038742e-13))
1.5374        	((3.106128e-10 -3.192062e-06 2.568269e-11) (2.717399e-10 -6.466470e-06 2.010584e-11)) ((-3.395393e-15 9.133830e-15 1.006331e-12) (6.155165e-13 1.165782e-13 8.394951e-13))
1.85688       	((3.684809e-10 -2.953091e-06 3.833675e-12) (2.324045e-10 -5.877245e-06 2.191533e-11)) ((-6.414466e-15 4.949391e-15 1.007390e-12) (1.047184e-12 1.899875e-13 2.158468e-12))
2.240256      	((2.886826e-10 -2.725791e-06 -1.921784e-11) (1.826303e-10 -5.353295e-06 2.404291e-11)) ((-1.001995e-14 3.955227e-15 9.985348e-13) (1.554925e-12 2.635425e-13 4.015518e-12))
2.700307      	((1.895154e-10 -2.513224e-06 -3.620021e-11) (1.586784e-10 -4.883773e-06 2.344819e-11)) ((-1.145254e-14 2.440888e-15 9.923253e-13) (2.051151e-12 3.000157e-13 7.638244e-12))
3.252369      	((1.270440e-10 -2.314718e-06 -1.042936e-10) (1.366204e-10 -4.461223e-06 2.235394e-11)) ((-1.256077e-14 2.315611e-15 9.296677e-13) (2.616106e-12 2.965724e-13 1.198341e-11))
3.914842      	((3.656945e-12 -2.128196e-06 -1.024883e-10) (8.185435e-11 -4.079882e-06 1.629752e-11)) ((-1.074173e-14 2.288178e-15 8.462776e-13) (3.082190e-12 2.188591e-13 1.426928e-11))
4.709811      	((-9.206415e-13 -1.955140e-06 -4.796149e-11) (3.065143e-11 -3.735670e-06 1.520291e-11)) ((-1.191844e-14 3.579445e-15 7.575521e-13) (3.237018e-12 1.474523e-13 1.498496e-11))
5.663773      	((3.051631e-11 -1.796257e-06 -7.928270e-12) (9.445099e-12 -3.425580e-06 1.706287e-11)) ((-1.395065e-14 4.692518e-15 6.815677e-13) (3.246065e-12 1.210907e-13 1.582226e-11))
6.808528      	((9.892768e-11 -1.651280e-06 4.144000e-11) (1.137683e-11 -3.146901e-06 1.603527e-11)) ((-1.314530e-14 2.933983e-15 5.940003e-13) (3.242812e-12 4.831721e-14 1.622944e-11))
8.182233      	((1.305017e-10 -1.519176e-06 3.222444e-11) (1.196547e-11 -2.896715e-06 1.414887e-11)) ((-1.077519e-14 2.378736e-15 5.099965e-13) (3.354683e-12 9.521193e-15 1.622143e-11))
9.83068       	((1.113153e-10 -1.399291e-06 -2.968415e-11) (1.945579e-11 -2.671852e-06 1.156182e-11)) ((-1.032587e-14 3.314963e-15 4.382511e-13) (3.972084e-12 5.592750e-14 1.590934e-11))
11.808816     	((6.395365e-11 -1.290025e-06 -8.954306e-11) (1.877479e-11 -2.469155e-06 8.739554e-12)) ((-7.265486e-15 4.388909e-15 3.742372e-13) (5.404466e-12 9.544855e-14 1.501320e-11))
14.182579     	((6.295844e-11 -1.190599e-06 -1.367374e-10) (3.865575e-12 -2.285788e-06 1.138380e-12)) ((-7.001324e-15 4.692179e-15 3.227714e-13) (7.250924e-12 1.327852e-13 1.313984e-11))
17.031095     	((3.478504e-11 -1.100736e-06 -2.262033e-10) (-8.038105e-12 -2.119365e-06 -6.178223e-12)) ((-7.748332e-15 5.631213e-15 2.837512e-13) (9.606769e-12 4.499822e-14 1.063395e-11))
20.449314     	((-3.815495e-11 -1.019603e-06 -3.241102e-10) (-1.467779e-11 -1.968086e-06 -1.537893e-11)) ((-8.944114e-15 4.838729e-15 2.556689e-13) (1.226158e-11 -2.669085e-14 8.053008e-12))
24.551176     	((-1.121011e-10 -9.466241e-07 -4.054354e-10) (-2.116266e-11 -1.830603e-06 -2.673737e-11)) ((-9.366268e-15 2.765904e-15 2.370157e-13) (1.444458e-11 -2.624421e-14 5.666103e-12))
29.473411     	((-6.727157e-11 -8.816848e-07 -3.316245e-10) (-2.220838e-11 -1.705908e-06 -3.164806e-11)) ((-8.068889e-15 1.788662e-15 2.209981e-13) (1.598741e-11 -3.271212e-14 2.942373e-12))
35.380094     	((3.409006e-11 -8.241928e-07 -2.291514e-10) (-2.190011e-11 -1.593160e-06 -3.173911e-11)) ((-5.641281e-15 1.652209e-15 2.117585e-13) (1.721603e-11 -4.216316e-14 -3.050677e-13))
42.468112     	((-3.764499e-11 -7.738689e-07 -2.750162e-10) (-2.358319e-11 -1.491492e-06 -3.491413e-11)) ((-5.538300e-15 1.271313e-15 2.085276e-13) (1.865475e-11 -2.766353e-14 -4.191013e-12))
50.973735     	((-1.320377e-10 -7.302553e-07 -3.434979e-10) (-2.952607e-11 -1.400038e-06 -4.165311e-11)) ((-6.674372e-15 1.537475e-15 2.103034e-13) (2.073935e-11 -3.857878e-14 -8.609447e-12))
61.180482     	((-1.508354e-10 -6.930025e-07 -3.420033e-10) (-2.838690e-11 -1.317930e-06 -4.807058e-11)) ((-7.744641e-15 1.798990e-15 2.131835e-13) (2.362355e-11 -4.212955e-14 -1.303100e-11))
73.428578     	((-1.513120e-10 -6.617381e-07 -3.128203e-10) (-2.286554e-11 -1.244354e-06 -5.273292e-11)) ((-8.545289e-15 1.264467e-15 2.184589e-13) (2.707279e-11 -2.768087e-14 -1.776026e-11))
88.126294     	((-1.221924e-10 -6.361151e-07 -2.709411e-10) (-1.651591e-11 -1.178637e-06 -5.279281e-11)) ((-8.553514e-15 8.089078e-16 2.263823e-13) (3.096832e-11 -9.947908e-15 -2.277138e-11))
105.763553    	((-7.661929e-11 -6.160418e-07 -2.017837e-10) (-1.176458e-11 -1.120208e-06 -5.145335e-11)) ((-7.538839e-15 1.518696e-17 2.385879e-13) (3.524228e-11 -1.026548e-14 -2.789348e-11))
126.928263    	((-6.942655e-11 -6.010388e-07 -1.846199e-10) (-1.054582e-11 -1.068620e-06 -5.053300e-11)) ((-7.858543e-15 5.085128e-17 2.554471e-13) (3.926997e-11 -3.039329e-14 -3.239291e-11))
152.325916    	((-3.993025e-11 -5.909001e-07 -1.339334e-10) (-1.022936e-11 -1.023527e-06 -4.713891e-11)) ((-7.852453e-15 5.116592e-16 2.738186e-13) (4.256476e-11 -4.867143e-14 -3.618333e-11))
182.803099    	((-1.103590e-11 -5.851199e-07 -9.663415e-11) (-1.175071e-11 -9.846378e-07 -4.574010e-11)) ((-7.570045e-15 1.018480e-15 2.950167e-13) (4.510046e-11 -3.228863e-14 -3.905281e-11))
219.375719    	((3.366608e-11 -5.829510e-07 -5.479950e-11) (-1.451748e-11 -9.516442e-07 -4.498327e-11)) ((-6.443119e-15 1.144248e-15 3.168304e-13) (4.667463e-11 8.593400e-15 -4.094690e-11))
263.262863    	((1.041636e-10 -5.834885e-07 9.975015e-12) (-1.515983e-11 -9.241724e-07 -4.192763e-11)) ((-5.159696e-15 8.308821e-16 3.371602e-13) (4.728936e-11 4.506247e-14 -4.178474e-11))
315.927436    	((1.718947e-10 -5.856304e-07 7.833073e-11) (-7.429605e-12 -9.017023e-07 -3.433003e-11)) ((-4.712018e-15 3.979060e-16 3.535477e-13) (4.687221e-11 8.171399e-14 -4.155597e-11))
377.689435    	((2.255170e-10 -5.883804e-07 1.412712e-10) (7.994854e-12 -8.836476e-07 -2.083328e-11)) ((-4.511085e-15 -9.564996e-17 3.646040e-13) (4.553927e-11 1.050469e-13 -4.049616e-11))
448.531694    	((2.534567e-10 -5.905769e-07 1.857611e-10) (2.785263e-11 -8.691822e-07 -2.033178e-12)) ((-4.490183e-15 -3.602527e-16 3.712969e-13) (4.355602e-11 8.180943e-14 -3.882790e-11))
528.451358    	((2.852851e-10 -5.918327e-07 2.222622e-10) (5.223379e-11 -8.575319e-07 2.074530e-11)) ((-4.293421e-15 -5.192625e-16 3.758973e-13) (4.129578e-11 5.012205e-14 -3.681519e-11))
617.456097    	((3.022062e-10 -5.922954e-07 2.416185e-10) (7.851070e-11 -8.480573e-07 4.505004e-11)) ((-4.233082e-15 -7.805002e-16 3.795510e-13) (3.904600e-11 3.273501e-14 -3.468666e-11))
708.41749     	((2.989052e-10 -5.926343e-07 2.383829e-10) (1.035132e-10 -8.404232e-07 6.812672e-11)) ((-4.189550e-15 -1.069208e-15 3.821748e-13) (3.686476e-11 2.512932e-14 -3.258402e-11))
799.478299    	((2.798240e-10 -5.926576e-07 2.220684e-10) (1.248282e-10 -8.342129e-07 8.747319e-11)) ((-4.388881e-15 -1.241604e-15 3.843434e-13) (3.480230e-11 1.917608e-14 -3.055010e-11))
890.620202    	((2.553573e-10 -5.926464e-07 1.988795e-10) (1.410223e-10 -8.291798e-07 1.022549e-10)) ((-4.473827e-15 -1.382447e-15 3.862124e-13) (3.282980e-11 1.472493e-14 -2.859256e-11))
981.828848    	((2.237979e-10 -5.925876e-07 1.693009e-10) (1.517179e-10 -8.250850e-07 1.119254e-10)) ((-4.705626e-15 -1.597175e-15 3.878170e-13) (3.097897e-11 1.080901e-14 -2.675887e-11))
1073.094105   	((1.891538e-10 -5.925117e-07 1.355400e-10) (1.583588e-10 -8.217615e-07 1.178840e-10)) ((-4.930601e-15 -1.818142e-15 3.889744e-13) (2.920496e-11 8.577920e-15 -2.501895e-11))
1164.407555   	((1.537151e-10 -5.924174e-07 1.009266e-10) (1.612795e-10 -8.190556e-07 1.203051e-10)) ((-5.245082e-15 -1.966037e-15 3.897983e-13) (2.755451e-11 6.570555e-15 -2.340362e-11))
1255.761719   	((1.179663e-10 -5.923260e-07 6.620764e-11) (1.611524e-10 -8.168487e-07 1.198828e-10)) ((-5.450299e-15 -2.082058e-15 3.906253e-13) (2.603614e-11 4.360848e-15 -2.191468e-11))
1347.149964   	((8.335854e-11 -5.922405e-07 3.238853e-11) (1.588771e-10 -8.150477e-07 1.173957e-10)) ((-5.739765e-15 -2.193220e-15 3.910725e-13) (2.464481e-11 1.719147e-15 -2.054752e-11))
1438.566636   	((5.028960e-11 -5.921626e-07 8.838840e-13) (1.548010e-10 -8.135772e-07 1.130292e-10)) ((-5.997595e-15 -2.297855e-15 3.915522e-13) (2.339808e-11 -1.742404e-15 -1.930756e-11))
1530.006971   	((1.996854e-11 -5.920938e-07 -2.836614e-11) (1.496894e-10 -8.123757e-07 1.077664e-10)) ((-6.153878e-15 -2.358248e-15 3.919057e-13) (2.226910e-11 -5.119256e-15 -1.818187e-11))
1621.466995   	((-7.202065e-12 -5.920325e-07 -5.450533e-11) (1.436552e-10 -8.113926e-07 1.018343e-10)) ((-6.309223e-15 -2.405444e-15 3.922415e-13) (2.126960e-11 -7.553505e-15 -1.718743e-11))
1712.943389   	((-3.108323e-11 -5.919801e-07 -7.722103e-11) (1.373959e-10 -8.105870e-07 9.555664e-11)) ((-6.488109e-15 -2.430895e-15 3.925054e-13) (2.039088e-11 -9.643455e-15 -1.630780e-11))
1804.433391   	((-5.248391e-11 -5.919351e-07 -9.820792e-11) (1.311554e-10 -8.099266e-07 8.929053e-11)) ((-6.631344e-15 -2.466736e-15 3.926519e-13) (1.961865e-11 -1.126859e-14 -1.553202e-11))
1895.934697   	((-7.066523e-11 -5.918969e-07 -1.154053e-10) (1.251179e-10 -8.093847e-07 8.323066e-11)) ((-6.727630e-15 -2.507729e-15 3.927644e-13) (1.894703e-11 -1.263488e-14 -1.485480e-11))
1987.445392   	((-8.645477e-11 -5.918641e-07 -1.308418e-10) (1.193726e-10 -8.089399e-07 7.756271e-11)) ((-6.833905e-15 -2.535630e-15 3.928495e-13) (1.836385e-11 -1.395663e-14 -1.427032e-11))
2078.963879   	((-9.966978e-11 -5.918356e-07 -1.434858e-10) (1.140837e-10 -8.085745e-07 7.231197e-11)) ((-6.918888e-15 -2.560641e-15 3.929142e-13) (1.786506e-11 -1.486183e-14 -1.376810e-11))
2170.488832   	((-1.109292e-10 -5.918129e-07 -1.543315e-10) (1.092534e-10 -8.082742e-07 6.751137e-11)) ((-6.986949e-15 -2.582447e-15 3.929760e-13) (1.744043e-11 -1.565218e-14 -1.333999e-11))
2262.019148   	((-1.203200e-10 -5.917936e-07 -1.635148e-10) (1.049665e-10 -8.080273e-07 6.325790e-11)) ((-7.038266e-15 -2.598721e-15 3.930316e-13) (1.707863e-11 -1.648433e-14 -1.297504e-11))
2353.553906   	((-1.281346e-10 -5.917764e-07 -1.711361e-10) (1.012109e-10 -8.078242e-07 5.954393e-11)) ((-7.070952e-15 -2.614493e-15 3.930841e-13) (1.677141e-11 -1.712743e-14 -1.266526e-11))
2445.092342   	((-1.345516e-10 -5.917623e-07 -1.772527e-10) (9.795488e-11 -8.076570e-07 5.633620e-11)) ((-7.096611e-15 -2.626843e-15 3.931347e-13) (1.651178e-11 -1.765967e-14 -1.240372e-11))
2536.63382    	((-1.398749e-10 -5.917507e-07 -1.822826e-10) (9.516624e-11 -8.075193e-07 5.358821e-11)) ((-7.123558e-15 -2.636061e-15 3.931779e-13) (1.629299e-11 -1.808060e-14 -1.218317e-11))
2628.177812   	((-1.442699e-10 -5.917412e-07 -1.865574e-10) (9.279622e-11 -8.074060e-07 5.125904e-11)) ((-7.145819e-15 -2.644658e-15 3.932172e-13) (1.610927e-11 -1.850431e-14 -1.199801e-11))
2719.723882   	((-1.478202e-10 -5.917339e-07 -1.898077e-10) (9.080333e-11 -8.073126e-07 4.931160e-11)) ((-7.163742e-15 -2.651133e-15 3.932492e-13) (1.595518e-11 -1.889689e-14 -1.184289e-11))
2811.271665   	((-1.507787e-10 -5.917269e-07 -1.927049e-10) (8.913615e-11 -8.072357e-07 4.768070e-11)) ((-7.180555e-15 -2.655612e-15 3.932750e-13) (1.582643e-11 -1.922476e-14 -1.171324e-11))
2902.820861   	((-1.532335e-10 -5.917210e-07 -1.950878e-10) (8.775348e-11 -8.071723e-07 4.632760e-11)) ((-7.194375e-15 -2.659353e-15 3.932957e-13) (1.571909e-11 -1.951942e-14 -1.160497e-11))
2994.371223   	((-1.552174e-10 -5.917165e-07 -1.970670e-10) (8.660792e-11 -8.071200e-07 4.520852e-11)) ((-7.206526e-15 -2.662638e-15 3.933140e-13) (1.562969e-11 -1.977741e-14 -1.151478e-11))
3085.922545   	((-1.568577e-10 -5.917127e-07 -1.986572e-10) (8.566297e-11 -8.070770e-07 4.428814e-11)) ((-7.216778e-15 -2.665785e-15 3.933293e-13) (1.555525e-11 -1.999672e-14 -1.143971e-11))
3177.47466    	((-1.582514e-10 -5.917094e-07 -2.000317e-10) (8.488392e-11 -8.070415e-07 4.353002e-11)) ((-7.224836e-15 -2.667938e-15 3.933414e-13) (1.549335e-11 -2.018074e-14 -1.137734e-11))
3269.027428   	((-1.594055e-10 -5.917067e-07 -2.011567e-10) (8.424364e-11 -8.070122e-07 4.290524e-11)) ((-7.232565e-15 -2.670228e-15 3.933511e-13) (1.544180e-11 -2.032697e-14 -1.132535e-11))
3360.580735   	((-1.603848e-10 -5.917044e-07 -2.021435e-10) (8.371821e-11 -8.069881e-07 4.239284e-11)) ((-7.239025e-15 -2.672003e-15 3.933593e-13) (1.539884e-11 -2.044365e-14 -1.128204e-11))
3452.134487   	((-1.611862e-10 -5.917027e-07 -2.029105e-10) (8.328595e-11 -8.069681e-07 4.197068e-11)) ((-7.244209e-15 -2.673853e-15 3.933658e-13) (1.536317e-11 -2.054445e-14 -1.124606e-11))
3543.688606   	((-1.618884e-10 -5.917010e-07 -2.036173e-10) (8.292810e-11 -8.069517e-07 4.161661e-11)) ((-7.248755e-15 -2.675134e-15 3.933713e-13) (1.533339e-11 -2.063179e-14 -1.121600e-11))
3635.243028   	((-1.624783e-10 -5.916999e-07 -2.042182e-10) (8.263047e-11 -8.069381e-07 4.132147e-11)) ((-7.251620e-15 -2.676043e-15 3.933757e-13) (1.530858e-11 -2.070470e-14 -1.119097e-11))
3726.7977     	((-1.629539e-10 -5.916988e-07 -2.046672e-10) (8.238635e-11 -8.069269e-07 4.108160e-11)) ((-7.255194e-15 -2.677054e-15 3.933797e-13) (1.528788e-11 -2.076606e-14 -1.117011e-11))
3818.352578   	((-1.633659e-10 -5.916978e-07 -2.051211e-10) (8.217959e-11 -8.069177e-07 4.087429e-11)) ((-7.256312e-15 -2.678029e-15 3.933829e-13) (1.527061e-11 -2.082139e-14 -1.115270e-11))
3909.907629   	((-1.637223e-10 -5.916967e-07 -2.054089e-10) (8.200632e-11 -8.069101e-07 4.070328e-11)) ((-7.259051e-15 -2.679243e-15 3.933861e-13) (1.525618e-11 -2.087146e-14 -1.113819e-11))
4001.462821   	((-1.639642e-10 -5.916965e-07 -2.056458e-10) (8.186281e-11 -8.069038e-07 4.056044e-11)) ((-7.261101e-15 -2.678815e-15 3.933878e-13) (1.524415e-11 -2.091570e-14 -1.112603e-11))
4093.01813    	((-1.642297e-10 -5.916961e-07 -2.059213e-10) (8.173972e-11 -8.068986e-07 4.043721e-11)) ((-7.262779e-15 -2.679189e-15 3.933897e-13) (1.523408e-11 -2.094767e-14 -1.111588e-11))
4184.573537   	((-1.644275e-10 -5.916958e-07 -2.061235e-10) (8.163743e-11 -8.068943e-07 4.033553e-11)) ((-7.263917e-15 -2.679510e-15 3.933912e-13) (1.522567e-11 -2.097518e-14 -1.110741e-11))
4276.129023   	((-1.646478e-10 -5.916954e-07 -2.063787e-10) (8.154942e-11 -8.068908e-07 4.024869e-11)) ((-7.264695e-15 -2.679654e-15 3.933929e-13) (1.521866e-11 -2.099913e-14 -1.110034e-11))
4367.684576   	((-1.648061e-10 -5.916950e-07 -2.065824e-10) (8.147774e-11 -8.068878e-07 4.017868e-11)) ((-7.265645e-15 -2.679890e-15 3.933935e-13) (1.521282e-11 -2.102101e-14 -1.109447e-11))
4459.240183   	((-1.648824e-10 -5.916945e-07 -2.065093e-10) (8.141823e-11 -8.068854e-07 4.012072e-11)) ((-7.265388e-15 -2.680682e-15 3.933938e-13) (1.520793e-11 -2.103872e-14 -1.108955e-11))
4550.795835   	((-1.649972e-10 -5.916946e-07 -2.066272e-10) (8.136415e-11 -8.068835e-07 4.006580e-11)) ((-7.266712e-15 -2.680417e-15 3.933947e-13) (1.520389e-11 -2.105624e-14 -1.108545e-11))
