# Forces      
# CofR        : (0.000000e+00 0.000000e+00 0.000000e+00)
# Time        forces(pressure viscous)	moments(pressure viscous)
0             	((0.000000e+00 0.000000e+00 0.000000e+00) (-2.524872e-04 3.363520e-14 -1.504996e-14)) ((0.000000e+00 0.000000e+00 0.000000e+00) (1.288318e-17 2.020432e-15 3.471002e-15))
0.012         	((-7.344224e-02 1.444720e-08 8.677309e-09) (-2.895811e-04 1.824196e-10 1.593409e-10)) ((-2.220105e-13 2.878768e-11 1.211436e-11) (2.587246e-14 5.386769e-13 -4.709765e-12))
0.0264        	((5.455300e-03 -1.179810e-06 -4.766017e-07) (-2.950611e-04 -6.136684e-10 -1.506564e-10)) ((-1.268456e-12 -5.190095e-11 -6.122546e-12) (-1.108465e-12 -6.976211e-13 -7.986904e-12))
0.04368       	((1.516598e-02 1.942905e-06 1.145278e-06) (-2.618407e-04 3.233471e-10 3.454233e-10)) ((-1.175340e-11 -3.400442e-11 -6.299070e-11) (-4.413896e-13 -1.225915e-11 -4.878688e-12))
0.064416      	((1.437576e-04 -1.676607e-07 -1.404219e-07) (-2.317739e-04 -2.117153e-09 -1.528292e-09)) ((8.765428e-12 2.849823e-11 2.115455e-11) (8.603291e-13 1.890235e-11 -4.299384e-11))
0.0892992     	((-1.627895e-04 -2.186474e-07 -1.662555e-07) (-2.138850e-04 -4.205408e-09 -3.186920e-09)) ((-6.611766e-12 3.156915e-12 1.083374e-11) (-4.446263e-12 5.493219e-12 -4.398810e-11))
0.119159      	((2.414882e-04 -1.000725e-07 1.084953e-08) (-1.974677e-04 -2.709849e-09 -2.414237e-09)) ((1.928076e-12 6.248525e-12 8.076790e-12) (-6.008376e-12 -5.689551e-11 -6.943203e-12))
0.154991      	((1.230357e-04 5.821294e-08 -4.526184e-08) (-1.801963e-04 -2.855239e-09 -1.734534e-09)) ((9.241664e-13 5.513728e-12 2.229261e-12) (-1.178841e-11 -7.843593e-11 6.200274e-11))
0.197989      	((2.911959e-05 -5.555212e-08 -1.519152e-08) (-1.629525e-04 -3.138788e-09 -1.070525e-09)) ((2.616899e-13 7.452270e-12 2.716163e-12) (-1.947370e-11 -6.400243e-11 1.287305e-10))
0.249587      	((-4.386446e-06 -2.389035e-08 -1.546891e-08) (-1.462765e-04 -2.587782e-09 -5.564941e-10)) ((-3.673267e-13 7.855288e-12 1.504800e-12) (-2.114936e-11 -4.027006e-11 1.300426e-10))
0.311504      	((-1.975257e-05 -2.124943e-08 -1.839443e-08) (-1.306506e-04 -2.116485e-09 -2.299902e-10)) ((-1.572777e-13 3.547009e-12 1.005881e-12) (-2.015877e-11 -1.810975e-11 1.181715e-10))
0.385805      	((-2.832936e-05 -1.017465e-08 -1.032305e-08) (-1.164673e-04 -1.823499e-09 -1.298756e-10)) ((-2.192100e-13 1.580480e-12 4.960569e-13) (-1.736625e-11 -3.593003e-12 1.083909e-10))
0.474966      	((-3.288193e-05 -6.700275e-09 -7.660372e-09) (-1.039241e-04 -1.544240e-09 -1.747276e-10)) ((-2.166492e-13 1.231171e-12 2.697699e-13) (-1.430639e-11 -2.729174e-12 9.355710e-11))
0.581959      	((-3.477039e-05 -6.372609e-09 -5.541115e-09) (-9.288650e-05 -1.075003e-09 -2.378763e-10)) ((-7.673601e-14 7.056653e-13 1.088317e-13) (-1.133773e-11 2.865570e-12 7.466543e-11))
0.710351      	((-3.474790e-05 -5.438804e-09 -5.166706e-09) (-8.317017e-05 -7.268786e-10 -1.752902e-10)) ((-7.807562e-15 4.667621e-13 1.524716e-13) (-8.718575e-12 9.799022e-12 5.020414e-11))
0.864421      	((-3.352572e-05 -5.659928e-09 -5.284722e-09) (-7.463656e-05 -5.588846e-10 -7.515021e-11)) ((-4.931397e-14 3.886623e-13 6.990375e-14) (-6.661008e-12 1.424473e-11 2.946376e-11))
1.049306      	((-3.169174e-05 -4.081171e-09 -4.356786e-09) (-6.713719e-05 -4.017742e-10 -2.197866e-11)) ((-2.751335e-14 3.638894e-13 3.520463e-14) (-5.225475e-12 1.427801e-11 1.412230e-11))
1.271167      	((-2.954734e-05 -2.196165e-09 -2.835503e-09) (-6.053902e-05 -2.649800e-10 3.752293e-11)) ((-7.303161e-15 3.233333e-13 1.175065e-14) (-4.275307e-12 1.197121e-11 4.991163e-12))
1.5374        	((-2.729388e-05 -1.169991e-09 -1.201324e-09) (-5.471382e-05 -1.670609e-10 1.217817e-10)) ((-4.101986e-15 2.829181e-13 1.536250e-14) (-3.452493e-12 7.939637e-12 1.650269e-12))
1.85688       	((-2.510710e-05 -6.427541e-10 -6.097548e-10) (-4.955457e-05 -8.903846e-11 1.739673e-10)) ((-1.265329e-14 2.608056e-13 -9.644069e-15) (-2.722251e-12 2.698200e-12 2.225342e-12))
2.240256      	((-2.309713e-05 -3.307699e-10 -3.713847e-10) (-4.498002e-05 -1.922483e-11 1.836441e-10)) ((-9.718970e-15 1.971265e-13 -1.270176e-14) (-2.067321e-12 -3.686227e-12 5.613523e-12))
2.700307      	((-2.128047e-05 -7.391874e-10 -1.067323e-09) (-4.092035e-05 3.739479e-11 1.704544e-10)) ((-5.112803e-15 1.795796e-13 -4.943891e-15) (-1.481050e-12 -8.871350e-12 1.098137e-11))
3.252369      	((-1.964829e-05 -2.011761e-09 -1.678348e-09) (-3.730815e-05 3.908659e-11 1.467459e-10)) ((-1.481978e-14 1.879069e-13 -9.812816e-15) (-9.680101e-13 -1.354107e-11 1.510656e-11))
3.914842      	((-1.822319e-05 -2.108826e-09 -2.674730e-09) (-3.408924e-05 9.220671e-12 1.058479e-10)) ((-2.006531e-14 2.002475e-13 -1.685798e-14) (-7.849481e-13 -1.708169e-11 1.796089e-11))
4.709811      	((-1.700890e-05 -2.776640e-09 -3.274874e-09) (-3.122785e-05 -2.554487e-11 4.643312e-11)) ((-1.846990e-14 2.068092e-13 -3.265754e-14) (-9.269692e-13 -1.896623e-11 2.070583e-11))
5.663773      	((-1.601664e-05 -2.147455e-09 -2.124365e-09) (-2.869592e-05 -4.115173e-11 -1.252100e-12)) ((1.070314e-14 1.764543e-13 -5.221915e-14) (-1.254090e-12 -1.930783e-11 1.995334e-11))
6.808528      	((-1.523442e-05 -3.796607e-09 -4.520618e-09) (-2.646363e-05 -1.004702e-10 -8.802864e-11)) ((1.688585e-14 1.903940e-13 -5.053008e-14) (-1.522649e-12 -1.614858e-11 1.590618e-11))
8.182233      	((-1.467767e-05 -5.118448e-09 -5.676932e-09) (-2.450047e-05 -2.147167e-10 -2.038213e-10)) ((1.982571e-14 1.865159e-13 -4.240536e-14) (-1.741642e-12 -1.203056e-11 1.303735e-11))
9.83068       	((-1.434741e-05 -6.945597e-09 -6.613913e-09) (-2.277555e-05 -3.893161e-10 -3.716383e-10)) ((3.859969e-14 1.829959e-13 -1.631255e-14) (-2.040987e-12 -1.197666e-11 1.324675e-11))
11.808816     	((-1.424598e-05 -8.488078e-09 -8.864596e-09) (-2.126412e-05 -6.209387e-10 -6.383244e-10)) ((5.034030e-14 1.851722e-13 -2.185729e-14) (-2.158826e-12 -1.585943e-11 1.764602e-11))
14.182579     	((-1.436453e-05 -8.056657e-09 -8.570457e-09) (-1.994870e-05 -8.246408e-10 -8.787640e-10)) ((5.257758e-14 1.805762e-13 -2.780917e-14) (-1.933107e-12 -2.345361e-11 2.613547e-11))
17.031095     	((-1.469280e-05 -7.844299e-09 -7.979764e-09) (-1.881377e-05 -9.978041e-10 -1.035466e-09)) ((5.762133e-14 1.685591e-13 -2.771110e-14) (-1.888093e-12 -3.121001e-11 3.234675e-11))
20.449314     	((-1.520550e-05 -6.587301e-09 -6.796850e-09) (-1.784966e-05 -1.060461e-09 -1.135880e-09)) ((5.947191e-14 1.814936e-13 -4.219995e-14) (-1.685663e-12 -3.938878e-11 3.828522e-11))
24.551176     	((-1.588525e-05 -5.806765e-09 -5.908682e-09) (-1.704289e-05 -1.099357e-09 -1.186380e-09)) ((3.658821e-14 1.923357e-13 -4.306168e-14) (-1.252104e-12 -5.150035e-11 5.134542e-11))
29.473411     	((-1.668646e-05 -4.187429e-09 -4.466941e-09) (-1.638170e-05 -1.145703e-09 -1.211482e-09)) ((2.783097e-14 1.664908e-13 -4.630316e-14) (-9.129342e-13 -6.762538e-11 6.570875e-11))
35.310344     	((-1.753964e-05 -3.094881e-09 -3.359667e-09) (-1.585657e-05 -1.156125e-09 -1.204816e-09)) ((2.235648e-14 1.543178e-13 -4.854735e-14) (-7.635419e-13 -8.578164e-11 8.116261e-11))
42.055438     	((-1.837778e-05 -2.082444e-09 -2.176749e-09) (-1.545296e-05 -1.062996e-09 -1.099372e-09)) ((-6.857719e-15 1.799618e-13 -4.699870e-14) (-6.626165e-13 -1.053480e-10 9.729160e-11))
49.701725     	((-1.909540e-05 -1.307994e-09 -1.512858e-09) (-1.513789e-05 -7.993982e-10 -8.365936e-10)) ((-3.046181e-14 2.194353e-13 -3.648554e-14) (-7.079434e-13 -1.197274e-10 1.070211e-10))
58.245135     	((-1.967863e-05 8.871322e-10 7.914676e-10) (-1.488030e-05 -3.881119e-10 -4.074656e-10)) ((-7.372539e-14 2.394596e-13 -2.695040e-14) (-5.248137e-13 -1.295241e-10 1.128227e-10))
67.222021     	((-2.014566e-05 4.642841e-09 4.447666e-09) (-1.466438e-05 2.290470e-10 1.955545e-10)) ((-9.355976e-14 2.214743e-13 -1.133272e-14) (-1.315352e-13 -1.361272e-10 1.179766e-10))
76.231955     	((-2.042297e-05 6.796151e-09 6.778437e-09) (-1.448226e-05 8.532259e-10 7.501463e-10)) ((-1.239387e-13 2.212721e-13 -5.226976e-15) (-2.224411e-14 -1.441551e-10 1.236677e-10))
85.269407     	((-2.053255e-05 7.386859e-09 7.454421e-09) (-1.432388e-05 1.330583e-09 1.255377e-09)) ((-1.386283e-13 2.285707e-13 9.220856e-15) (3.398887e-13 -1.512306e-10 1.298376e-10))
94.3192       	((-2.054176e-05 7.682520e-09 7.965658e-09) (-1.418204e-05 1.651996e-09 1.589597e-09)) ((-1.471118e-13 2.205583e-13 1.081580e-14) (3.607813e-13 -1.560122e-10 1.361936e-10))
103.374775    	((-2.051182e-05 8.124340e-09 8.593879e-09) (-1.405464e-05 1.880051e-09 1.827983e-09)) ((-1.481664e-13 2.107260e-13 6.314848e-15) (3.416855e-13 -1.584625e-10 1.423246e-10))
112.437249    	((-2.044688e-05 8.351717e-09 8.968227e-09) (-1.394000e-05 2.023817e-09 2.022097e-09)) ((-1.439795e-13 2.016569e-13 3.293801e-15) (5.971861e-13 -1.581211e-10 1.467286e-10))
121.507918    	((-2.036368e-05 8.580547e-09 9.204975e-09) (-1.383523e-05 2.137787e-09 2.149234e-09)) ((-1.345056e-13 1.927369e-13 4.499610e-15) (6.666288e-13 -1.586632e-10 1.482539e-10))
130.586191    	((-2.028310e-05 8.275724e-09 8.880740e-09) (-1.373964e-05 2.148531e-09 2.181986e-09)) ((-1.270795e-13 1.896092e-13 4.762371e-15) (7.254596e-13 -1.608210e-10 1.509144e-10))
139.671066    	((-2.021880e-05 7.439953e-09 7.932941e-09) (-1.365347e-05 2.066449e-09 2.098157e-09)) ((-1.234350e-13 2.032735e-13 4.803816e-16) (7.512632e-13 -1.651196e-10 1.566375e-10))
148.761951    	((-2.016628e-05 6.796629e-09 7.511397e-09) (-1.357672e-05 1.922410e-09 1.983852e-09)) ((-1.258331e-13 2.082289e-13 4.670444e-15) (5.868555e-13 -1.707896e-10 1.626668e-10))
157.858393    	((-2.010893e-05 6.239236e-09 6.976824e-09) (-1.350764e-05 1.766945e-09 1.854217e-09)) ((-1.224543e-13 2.095393e-13 5.483334e-15) (4.670878e-13 -1.763466e-10 1.677440e-10))
166.959884    	((-2.006139e-05 6.025951e-09 6.817689e-09) (-1.344555e-05 1.660183e-09 1.748642e-09)) ((-1.172326e-13 2.058686e-13 5.877553e-15) (4.923280e-13 -1.800974e-10 1.719231e-10))
176.065952    	((-2.001846e-05 5.819404e-09 6.599806e-09) (-1.338997e-05 1.582139e-09 1.682658e-09)) ((-1.083074e-13 2.077414e-13 4.845038e-15) (4.029935e-13 -1.826256e-10 1.738496e-10))
185.175978    	((-1.997728e-05 6.078418e-09 6.978084e-09) (-1.334012e-05 1.538724e-09 1.655156e-09)) ((-1.032282e-13 1.989115e-13 -5.256373e-15) (1.843016e-13 -1.839041e-10 1.741935e-10))
194.289432    	((-1.993478e-05 6.314172e-09 7.081615e-09) (-1.329517e-05 1.518592e-09 1.652015e-09)) ((-9.878417e-14 1.908813e-13 -8.425976e-15) (-4.515394e-14 -1.837005e-10 1.740055e-10))
203.406028    	((-1.989113e-05 6.832407e-09 7.777902e-09) (-1.325418e-05 1.532957e-09 1.691852e-09)) ((-9.700283e-14 1.805229e-13 -1.236401e-14) (-1.044131e-13 -1.828132e-10 1.734984e-10))
212.525518    	((-1.985048e-05 7.108568e-09 8.034919e-09) (-1.321684e-05 1.564200e-09 1.745732e-09)) ((-9.045532e-14 1.770380e-13 -1.247458e-14) (-1.357864e-13 -1.816093e-10 1.728382e-10))
221.647683    	((-1.981340e-05 7.627952e-09 8.516654e-09) (-1.318282e-05 1.618288e-09 1.813651e-09)) ((-8.676529e-14 1.715047e-13 -1.154315e-14) (-1.588224e-13 -1.805391e-10 1.728138e-10))
230.772322    	((-1.977920e-05 7.884291e-09 8.794914e-09) (-1.315180e-05 1.681534e-09 1.884677e-09)) ((-8.498673e-14 1.701271e-13 -1.051472e-14) (-2.690220e-13 -1.792560e-10 1.726485e-10))
239.899254    	((-1.974839e-05 8.151290e-09 9.034816e-09) (-1.312357e-05 1.749247e-09 1.954331e-09)) ((-7.968951e-14 1.680506e-13 -1.021702e-14) (-4.043250e-13 -1.774982e-10 1.722559e-10))
249.028311    	((-1.971755e-05 8.306180e-09 9.188354e-09) (-1.309778e-05 1.813950e-09 2.020503e-09)) ((-7.413557e-14 1.661249e-13 -9.407506e-15) (-4.952267e-13 -1.753088e-10 1.717280e-10))
258.159338    	((-1.968825e-05 8.374697e-09 9.270775e-09) (-1.307415e-05 1.867481e-09 2.070571e-09)) ((-6.646018e-14 1.649052e-13 -8.390482e-15) (-4.620581e-13 -1.731942e-10 1.709199e-10))
267.292191    	((-1.966068e-05 8.396913e-09 9.342448e-09) (-1.305250e-05 1.917091e-09 2.117629e-09)) ((-5.903716e-14 1.627513e-13 -8.997567e-15) (-3.994751e-13 -1.705947e-10 1.696332e-10))
276.426737    	((-1.963431e-05 8.313388e-09 9.271034e-09) (-1.303256e-05 1.953823e-09 2.155591e-09)) ((-5.158334e-14 1.631566e-13 -1.016857e-14) (-3.376522e-13 -1.677044e-10 1.675930e-10))
285.562857    	((-1.960851e-05 8.032971e-09 8.990371e-09) (-1.301409e-05 1.969831e-09 2.171782e-09)) ((-4.150250e-14 1.666760e-13 -1.168335e-14) (-3.297586e-13 -1.645989e-10 1.652115e-10))
294.700438    	((-1.958487e-05 8.048293e-09 8.982165e-09) (-1.299702e-05 1.990370e-09 2.184333e-09)) ((-3.433077e-14 1.645380e-13 -1.258567e-14) (-3.295521e-13 -1.613961e-10 1.627672e-10))
303.839382    	((-1.956277e-05 7.969194e-09 8.976203e-09) (-1.298126e-05 2.011930e-09 2.206336e-09)) ((-2.892506e-14 1.638875e-13 -1.306366e-14) (-3.020713e-13 -1.580070e-10 1.602657e-10))
312.979599    	((-1.954190e-05 7.933984e-09 8.963416e-09) (-1.296669e-05 2.024751e-09 2.239567e-09)) ((-2.342495e-14 1.630422e-13 -1.397813e-14) (-3.009167e-13 -1.546552e-10 1.579698e-10))
322.121008    	((-1.952220e-05 7.768369e-09 8.829729e-09) (-1.295322e-05 2.032272e-09 2.267258e-09)) ((-2.012978e-14 1.634284e-13 -1.492012e-14) (-3.308481e-13 -1.514492e-10 1.552873e-10))
331.263533    	((-1.950396e-05 7.721585e-09 8.790962e-09) (-1.294075e-05 2.049772e-09 2.297375e-09)) ((-1.547094e-14 1.608784e-13 -1.589100e-14) (-3.863804e-13 -1.483870e-10 1.522292e-10))
340.407104    	((-1.948748e-05 7.667001e-09 8.750862e-09) (-1.292930e-05 2.072856e-09 2.330548e-09)) ((-1.114514e-14 1.594493e-13 -1.602104e-14) (-3.823490e-13 -1.455250e-10 1.490672e-10))
349.551653    	((-1.947142e-05 7.683608e-09 8.803501e-09) (-1.291874e-05 2.099103e-09 2.366079e-09)) ((-7.169990e-15 1.548951e-13 -1.571378e-14) (-3.865972e-13 -1.428636e-10 1.460581e-10))
358.697119    	((-1.945598e-05 7.680392e-09 8.822362e-09) (-1.290895e-05 2.128211e-09 2.401595e-09)) ((-5.071214e-15 1.516287e-13 -1.643947e-14) (-4.434071e-13 -1.404279e-10 1.432241e-10))
367.843441    	((-1.944170e-05 7.496884e-09 8.665321e-09) (-1.289990e-05 2.147106e-09 2.424888e-09)) ((-2.489917e-15 1.515494e-13 -1.717505e-14) (-5.371703e-13 -1.383253e-10 1.405344e-10))
376.990563    	((-1.942780e-05 7.317193e-09 8.500793e-09) (-1.289149e-05 2.151326e-09 2.433899e-09)) ((-8.903375e-16 1.509181e-13 -1.758903e-14) (-6.193204e-13 -1.365376e-10 1.381540e-10))
386.138429    	((-1.941487e-05 7.220678e-09 8.445975e-09) (-1.288368e-05 2.153250e-09 2.443035e-09)) ((8.640864e-16 1.489731e-13 -1.769815e-14) (-6.829972e-13 -1.348987e-10 1.360265e-10))
395.286989    	((-1.940237e-05 7.049755e-09 8.335957e-09) (-1.287640e-05 2.150563e-09 2.451148e-09)) ((2.017506e-15 1.482644e-13 -1.753531e-14) (-7.162279e-13 -1.334013e-10 1.340972e-10))
404.436193    	((-1.939003e-05 6.822266e-09 8.159465e-09) (-1.286956e-05 2.138376e-09 2.447551e-09)) ((3.549306e-15 1.481259e-13 -1.750671e-14) (-6.486904e-13 -1.320186e-10 1.322691e-10))
413.585997    	((-1.937852e-05 6.598637e-09 7.984735e-09) (-1.286312e-05 2.120470e-09 2.435821e-09)) ((4.130155e-15 1.481922e-13 -1.712458e-14) (-5.227941e-13 -1.307474e-10 1.306134e-10))
422.736356    	((-1.936774e-05 6.393142e-09 7.844064e-09) (-1.285708e-05 2.101655e-09 2.422268e-09)) ((4.860719e-15 1.478381e-13 -1.703480e-14) (-4.256917e-13 -1.295215e-10 1.290211e-10))
431.887232    	((-1.935774e-05 6.227275e-09 7.756332e-09) (-1.285139e-05 2.083069e-09 2.410465e-09)) ((5.462321e-15 1.467630e-13 -1.691104e-14) (-3.723411e-13 -1.283667e-10 1.274933e-10))
441.03859     	((-1.934843e-05 6.039360e-09 7.635131e-09) (-1.284606e-05 2.063665e-09 2.395629e-09)) ((6.006167e-15 1.471160e-13 -1.703187e-14) (-3.328799e-13 -1.273149e-10 1.260818e-10))
450.190399    	((-1.933978e-05 5.841901e-09 7.515585e-09) (-1.284106e-05 2.040669e-09 2.377532e-09)) ((6.867396e-15 1.471619e-13 -1.682328e-14) (-2.901706e-13 -1.263681e-10 1.247953e-10))
459.342629    	((-1.933172e-05 5.688841e-09 7.435317e-09) (-1.283637e-05 2.016533e-09 2.360415e-09)) ((7.613823e-15 1.469675e-13 -1.670169e-14) (-2.908722e-13 -1.255831e-10 1.236792e-10))
468.495255    	((-1.932415e-05 5.521903e-09 7.383818e-09) (-1.283198e-05 1.991700e-09 2.343988e-09)) ((8.566270e-15 1.463750e-13 -1.659372e-14) (-3.147079e-13 -1.249572e-10 1.227306e-10))
477.648252    	((-1.931705e-05 5.380972e-09 7.361123e-09) (-1.282787e-05 1.967035e-09 2.330195e-09)) ((9.409486e-15 1.458946e-13 -1.653713e-14) (-3.463500e-13 -1.244938e-10 1.219254e-10))
486.801598    	((-1.931049e-05 5.248168e-09 7.342192e-09) (-1.282402e-05 1.943105e-09 2.317683e-09)) ((1.039253e-14 1.452637e-13 -1.660336e-14) (-3.885755e-13 -1.241819e-10 1.212560e-10))
495.955274    	((-1.930435e-05 5.173828e-09 7.396741e-09) (-1.282042e-05 1.921673e-09 2.309332e-09)) ((1.166198e-14 1.440879e-13 -1.660920e-14) (-4.320117e-13 -1.239945e-10 1.206718e-10))
505.109269    	((-1.929861e-05 5.127612e-09 7.475945e-09) (-1.281706e-05 1.904170e-09 2.306364e-09)) ((1.333871e-14 1.430979e-13 -1.658936e-14) (-4.490870e-13 -1.239048e-10 1.201425e-10))
514.263564    	((-1.929326e-05 5.074680e-09 7.581634e-09) (-1.281392e-05 1.888634e-09 2.308003e-09)) ((1.478410e-14 1.417589e-13 -1.639249e-14) (-4.435693e-13 -1.238914e-10 1.196854e-10))
523.418143    	((-1.928823e-05 5.035102e-09 7.704072e-09) (-1.281099e-05 1.875408e-09 2.314616e-09)) ((1.585845e-14 1.406468e-13 -1.617682e-14) (-4.339875e-13 -1.239115e-10 1.192989e-10))
532.572989    	((-1.928352e-05 4.991223e-09 7.826939e-09) (-1.280825e-05 1.863942e-09 2.326297e-09)) ((1.615791e-14 1.394318e-13 -1.609480e-14) (-4.285493e-13 -1.239155e-10 1.189553e-10))
541.728086    	((-1.927908e-05 4.925996e-09 7.924584e-09) (-1.280569e-05 1.852993e-09 2.340751e-09)) ((1.596695e-14 1.386184e-13 -1.601260e-14) (-4.275833e-13 -1.238854e-10 1.186314e-10))
550.88342     	((-1.927492e-05 4.806626e-09 7.980944e-09) (-1.280330e-05 1.839908e-09 2.354992e-09)) ((1.607999e-14 1.383966e-13 -1.604263e-14) (-4.265316e-13 -1.237975e-10 1.182875e-10))
560.038976    	((-1.927101e-05 4.653715e-09 7.979376e-09) (-1.280106e-05 1.823487e-09 2.366272e-09)) ((1.641377e-14 1.387766e-13 -1.604167e-14) (-4.291396e-13 -1.236297e-10 1.178983e-10))
569.19474     	((-1.926731e-05 4.437432e-09 7.947925e-09) (-1.279898e-05 1.801677e-09 2.373767e-09)) ((1.696387e-14 1.395137e-13 -1.613708e-14) (-4.347594e-13 -1.233758e-10 1.174408e-10))
