# Forces      
# CofR        : (0.000000e+00 0.000000e+00 0.000000e+00)
# Time        forces(pressure viscous)	moments(pressure viscous)
0             	((0.000000e+00 0.000000e+00 0.000000e+00) (0.000000e+00 0.000000e+00 0.000000e+00)) ((0.000000e+00 0.000000e+00 0.000000e+00) (0.000000e+00 0.000000e+00 0.000000e+00))
0.012         	((-2.402322e-10 4.541455e-10 1.085661e-07) (3.183194e-12 2.503926e-12 2.286644e-09)) ((-4.892355e-14 4.234006e-09 -1.886613e-15) (-1.986428e-15 2.787933e-06 -1.651563e-13))
0.0264        	((4.057262e-10 -4.864369e-10 -4.076515e-08) (2.195516e-12 6.671564e-12 3.977406e-09)) ((-9.834153e-15 2.132826e-09 2.074883e-13) (5.677594e-14 2.553616e-06 -2.442571e-13))
0.04368       	((9.679056e-10 2.621564e-09 3.794931e-08) (3.001777e-12 6.203338e-12 4.333468e-09)) ((3.573932e-14 1.193265e-09 1.279004e-13) (-9.674552e-14 2.313081e-06 -3.306259e-13))
0.064416      	((1.121752e-10 -7.885023e-10 1.011152e-09) (-1.972663e-11 -2.012061e-12 3.561746e-09)) ((-5.295755e-15 6.973207e-10 2.689145e-15) (-3.878127e-13 2.071800e-06 -5.027568e-13))
0.0892992     	((1.871961e-09 8.316204e-10 3.683289e-09) (-7.415029e-11 -1.020642e-11 2.887015e-09)) ((-1.264418e-14 5.304814e-10 1.209749e-15) (-5.046841e-13 1.837029e-06 -6.519323e-13))
0.119159      	((8.002795e-10 -1.987570e-10 9.909792e-10) (-8.440433e-11 -1.688834e-11 2.433223e-09)) ((5.681819e-15 3.924393e-10 3.629029e-15) (-6.416222e-13 1.616147e-06 -7.571627e-13))
0.154991      	((-6.709064e-10 -4.476309e-10 -3.239713e-09) (-7.392431e-11 -2.834567e-11 1.993002e-09)) ((-1.149700e-14 3.185588e-10 2.921966e-14) (-8.909433e-13 1.414351e-06 -6.831447e-13))
0.197989      	((-1.648441e-09 -3.350007e-10 5.183865e-10) (-6.523346e-11 -4.243725e-11 1.629191e-09)) ((-2.108566e-14 2.579384e-10 2.357543e-14) (-1.293077e-12 1.235701e-06 -7.387827e-13))
0.249587      	((-1.011349e-09 -3.938991e-10 -2.590315e-09) (-1.274442e-11 -4.888107e-11 1.398988e-09)) ((-2.432993e-14 2.153426e-10 -6.667860e-15) (-1.417303e-12 1.082047e-06 -8.004710e-13))
0.311504      	((-1.249987e-09 1.352066e-10 4.154101e-10) (1.561119e-11 -4.599526e-11 1.235171e-09)) ((-3.108907e-14 1.823527e-10 -2.244603e-14) (-1.023195e-12 9.527924e-07 -6.050157e-13))
0.385805      	((-9.922393e-10 1.418008e-10 -4.619485e-10) (-1.714177e-11 -4.266665e-11 1.080819e-09)) ((-1.023218e-14 1.597801e-10 -2.637367e-14) (-6.294937e-13 8.451556e-07 -3.474931e-13))
0.474966      	((-6.992215e-10 -9.135415e-11 5.195132e-10) (-3.851129e-11 -3.975559e-11 8.829907e-10)) ((-2.192769e-14 1.442782e-10 -1.836393e-14) (-3.199758e-13 7.550717e-07 -9.068357e-14))
0.581959      	((-9.610433e-10 -3.278740e-10 -6.491025e-11) (4.263334e-12 -4.188863e-11 6.461001e-10)) ((-4.604003e-14 1.296536e-10 -1.392808e-14) (-3.200838e-13 6.786310e-07 -5.939750e-14))
0.710351      	((-7.091669e-10 -5.023195e-10 1.682670e-09) (5.721596e-11 -4.111581e-11 4.557384e-10)) ((-5.979969e-14 1.159193e-10 -1.630247e-14) (-3.462459e-13 6.126879e-07 1.345203e-13))
0.864421      	((3.103634e-10 -7.461942e-10 1.251170e-09) (1.560197e-10 -2.170827e-11 2.575857e-10)) ((-6.715502e-14 1.065191e-10 -9.460022e-16) (8.161185e-14 5.549164e-07 5.598971e-13))
1.049306      	((-1.947983e-10 -3.949501e-10 2.169543e-09) (2.500460e-10 7.094701e-12 7.170387e-11)) ((-4.098392e-14 1.002337e-10 1.236359e-14) (6.075929e-13 5.036740e-07 3.945215e-13))
1.271167      	((-9.055139e-10 -3.765431e-10 1.811601e-09) (2.357056e-10 8.392998e-12 -1.749007e-10)) ((-3.562264e-14 9.418298e-11 1.476333e-14) (1.154250e-12 4.578092e-07 4.379761e-13))
1.5374        	((-9.776440e-10 9.058189e-11 2.204348e-09) (1.711630e-10 6.143245e-12 -3.061704e-10)) ((6.460909e-15 8.720194e-11 3.306431e-14) (2.109533e-12 4.165596e-07 9.211331e-13))
1.85688       	((-1.271044e-09 -2.380408e-10 1.628900e-09) (1.192017e-10 -2.647061e-11 -3.069184e-10)) ((4.357016e-14 7.966488e-11 5.299943e-14) (3.079074e-12 3.795055e-07 2.157722e-12))
2.240256      	((-2.211087e-09 -1.033153e-10 1.442078e-09) (2.350733e-10 -4.510669e-11 -3.425058e-10)) ((4.409393e-14 7.320853e-11 4.932178e-14) (4.842602e-12 3.464269e-07 4.591176e-12))
2.700307      	((-2.239078e-09 1.074893e-10 3.510391e-10) (3.592328e-10 -5.141405e-11 -4.407731e-10)) ((6.665175e-14 6.808195e-11 5.510526e-14) (6.414221e-12 3.171371e-07 7.170199e-12))
3.252369      	((-1.934085e-09 5.388476e-11 -3.864719e-11) (4.189759e-10 -6.497874e-11 -6.346140e-10)) ((5.693369e-14 6.312900e-11 3.555672e-14) (7.020720e-12 2.913768e-07 9.352194e-12))
3.914842      	((-5.185041e-10 7.001697e-11 -5.370610e-10) (5.308001e-10 -6.443016e-11 -6.731928e-10)) ((4.110675e-14 5.820637e-11 2.000287e-14) (7.688964e-12 2.687540e-07 1.071229e-11))
4.709811      	((-1.798438e-10 -7.516765e-11 3.588817e-10) (5.594469e-10 -6.346048e-11 -5.920897e-10)) ((1.386222e-14 5.334899e-11 1.817007e-15) (8.941444e-12 2.487776e-07 1.168693e-11))
5.663773      	((7.633720e-10 1.645278e-12 6.421016e-10) (4.831272e-10 -7.046856e-11 -5.375357e-10)) ((2.401339e-14 4.841914e-11 3.164294e-15) (9.341629e-12 2.309572e-07 1.117345e-11))
6.808528      	((8.793730e-10 -3.834727e-11 3.917970e-10) (3.501085e-10 -8.946698e-11 -4.346216e-10)) ((1.625103e-14 4.378988e-11 6.603667e-15) (8.848562e-12 2.148763e-07 9.107064e-12))
8.182233      	((9.740740e-10 -1.130495e-10 3.134257e-10) (2.345318e-10 -1.361632e-10 -2.282560e-10)) ((2.826555e-14 3.954979e-11 1.097142e-14) (7.604579e-12 2.002339e-07 7.869172e-12))
9.83068       	((7.555137e-10 -2.650217e-10 5.641972e-10) (1.625805e-10 -1.468582e-10 -1.202653e-10)) ((1.652116e-14 3.563622e-11 1.075395e-14) (6.103738e-12 1.868172e-07 6.805717e-12))
11.808816     	((6.492524e-10 -1.644485e-10 6.009169e-10) (6.173092e-11 -1.119018e-10 -8.531744e-11)) ((2.200234e-14 3.216131e-11 -9.314442e-15) (4.755793e-12 1.744589e-07 5.589211e-12))
14.182579     	((-7.564276e-12 -2.087137e-10 5.151330e-10) (1.558474e-11 -1.025783e-10 -6.490887e-11)) ((3.671716e-14 2.901665e-11 -2.887748e-14) (3.206942e-12 1.630531e-07 5.049497e-12))
17.031095     	((4.312744e-12 -1.743878e-10 4.391480e-10) (-9.068360e-11 -9.834894e-11 -6.640644e-11)) ((4.410238e-14 2.623917e-11 -3.220961e-14) (1.933744e-12 1.525504e-07 4.755127e-12))
20.449314     	((-2.054300e-10 -8.899858e-11 1.613819e-10) (-1.962251e-10 -8.131202e-11 -2.101772e-11)) ((6.142696e-14 2.385659e-11 -3.698339e-14) (8.986176e-13 1.429325e-07 4.324343e-12))
24.551176     	((-3.442540e-10 -6.572854e-11 1.042617e-10) (-2.423345e-10 -6.677835e-11 -3.199036e-11)) ((7.347833e-14 2.176062e-11 -3.081717e-14) (-2.285710e-13 1.341797e-07 4.005816e-12))
29.473411     	((-4.899678e-10 -7.284977e-11 -1.673099e-10) (-2.099982e-10 -5.621830e-11 3.076472e-11)) ((8.198022e-14 1.994648e-11 -1.959281e-14) (-1.156462e-12 1.262526e-07 3.919439e-12))
35.380094     	((-2.906918e-10 -3.162211e-11 2.663475e-11) (-1.711943e-10 -2.937252e-11 3.469408e-11)) ((7.788806e-14 1.835913e-11 -1.497361e-14) (-1.297538e-12 1.190904e-07 4.205523e-12))
42.468112     	((-1.831128e-10 -3.008167e-11 1.821996e-10) (-1.439136e-10 -1.825564e-11 -1.160043e-11)) ((6.260560e-14 1.703308e-11 -1.521168e-14) (-1.202933e-12 1.126150e-07 4.557759e-12))
50.973735     	((-4.955451e-12 1.828194e-11 2.320247e-10) (-9.650280e-11 -4.029386e-12 -5.703693e-11)) ((5.058274e-14 1.589947e-11 -1.330016e-14) (-1.426409e-12 1.067498e-07 4.877606e-12))
61.180482     	((1.329219e-10 -4.133995e-11 2.864656e-10) (-9.899588e-11 6.459939e-12 -7.603800e-11)) ((4.621379e-14 1.491627e-11 -1.367079e-14) (-1.198816e-12 1.014217e-07 4.779494e-12))
73.428578     	((2.933450e-10 -1.892872e-11 3.784120e-10) (-1.211846e-10 2.495930e-11 -6.850580e-11)) ((3.749489e-14 1.403385e-11 -1.458354e-14) (-1.041256e-12 9.657297e-08 4.074588e-12))
88.126294     	((2.767809e-10 -2.586616e-11 4.019414e-10) (-9.444448e-11 3.796000e-11 -4.800560e-11)) ((3.790878e-14 1.322710e-11 -1.348944e-14) (-7.226759e-13 9.216744e-08 3.442277e-12))
105.763553    	((1.177548e-10 -2.103530e-11 3.138598e-10) (-1.112054e-10 3.871847e-11 -4.529536e-11)) ((3.949624e-14 1.238758e-11 -7.213639e-15) (-2.231736e-13 8.818002e-08 3.030629e-12))
126.928263    	((-8.055022e-11 -5.447648e-12 2.117346e-10) (-1.207967e-10 3.566206e-11 -3.311930e-11)) ((4.128560e-14 1.162051e-11 -7.564974e-15) (-1.194880e-14 8.459048e-08 2.442863e-12))
152.325916    	((-1.904350e-10 2.257728e-12 1.030597e-10) (-1.513855e-10 2.247369e-11 -5.657590e-11)) ((3.850552e-14 1.097676e-11 -9.230583e-15) (1.750265e-13 8.137526e-08 1.740278e-12))
182.803099    	((-3.344273e-10 -2.726174e-11 4.374976e-12) (-1.614814e-10 1.197482e-11 -1.161303e-10)) ((3.699285e-14 1.045493e-11 -1.089688e-14) (4.231777e-13 7.850742e-08 9.409192e-13))
218.38705     	((-4.033186e-10 -2.991994e-11 -5.360192e-11) (-1.342642e-10 5.940488e-12 -5.965775e-11)) ((3.408114e-14 1.003205e-11 -9.367829e-15) (5.703268e-13 7.598586e-08 4.272080e-14))
259.076615    	((-5.056764e-10 -1.232536e-11 -1.233640e-10) (-1.653397e-10 6.413371e-12 -2.555555e-11)) ((3.023664e-14 9.667730e-12 -5.705880e-15) (5.101462e-13 7.379342e-08 -6.938185e-13))
304.870566    	((-4.785364e-10 -5.015041e-11 -6.890345e-11) (-1.271869e-10 1.280232e-12 2.153591e-11)) ((2.497499e-14 9.346584e-12 -3.158784e-15) (2.994380e-13 7.191123e-08 -1.212965e-12))
355.767541    	((-4.389581e-10 -2.838179e-11 -8.419367e-11) (-8.040320e-11 6.773565e-12 6.472396e-11)) ((2.193124e-14 9.077758e-12 -7.349342e-17) (-5.509047e-14 7.031392e-08 -1.443372e-12))
406.783014    	((-3.967890e-10 -1.172150e-11 -5.015208e-11) (-7.008101e-11 1.488478e-11 7.470446e-11)) ((2.294039e-14 8.865485e-12 1.088621e-15) (-4.695280e-13 6.901026e-08 -1.278244e-12))
457.78442     	((-3.572763e-10 1.328544e-11 -3.489030e-11) (-5.888737e-11 2.425299e-11 7.802656e-11)) ((2.336480e-14 8.679208e-12 2.482853e-15) (-8.868312e-13 6.795929e-08 -1.084383e-12))
508.770536    	((-3.320155e-10 1.799505e-11 -1.967546e-11) (-4.063345e-11 3.319768e-11 5.885951e-11)) ((2.427505e-14 8.528153e-12 4.327610e-15) (-1.228798e-12 6.712939e-08 -9.024425e-13))
559.741567    	((-2.797529e-10 2.773203e-11 8.507378e-12) (-2.389892e-11 3.633755e-11 4.437941e-11)) ((2.496714e-14 8.399694e-12 5.537854e-15) (-1.522791e-12 6.648172e-08 -7.173458e-13))
610.697993    	((-2.352309e-10 4.510686e-11 6.968491e-13) (-1.566780e-11 3.985641e-11 4.843323e-11)) ((2.560764e-14 8.298847e-12 5.810872e-15) (-1.746267e-12 6.598660e-08 -5.536211e-13))
661.640803    	((-1.932052e-10 4.301814e-11 1.209825e-11) (-6.823778e-12 3.935304e-11 4.996679e-11)) ((2.713336e-14 8.220443e-12 5.132491e-15) (-1.935608e-12 6.561665e-08 -3.757977e-13))
712.57127     	((-1.615811e-10 3.468909e-11 2.615095e-11) (2.513862e-11 3.631524e-11 5.021486e-11)) ((2.788207e-14 8.160690e-12 5.005005e-15) (-2.118887e-12 6.535150e-08 -2.315875e-13))
763.490672    	((-1.434331e-10 2.913533e-11 1.747312e-11) (4.496358e-11 3.206415e-11 4.797644e-11)) ((2.865744e-14 8.117126e-12 4.432547e-15) (-2.207083e-12 6.517302e-08 -1.691231e-13))
814.400297    	((-1.250899e-10 2.864981e-11 1.129818e-11) (5.941747e-11 2.791485e-11 4.364981e-11)) ((2.945956e-14 8.085291e-12 3.499377e-15) (-2.274431e-12 6.506666e-08 -1.023860e-13))
865.301528    	((-1.050087e-10 3.246779e-11 1.701822e-11) (5.870462e-11 2.308692e-11 4.144937e-11)) ((3.070807e-14 8.061515e-12 2.243759e-15) (-2.316831e-12 6.501989e-08 -4.323323e-14))
916.193727    	((-1.078196e-10 4.269482e-11 4.107062e-11) (5.061925e-11 2.114590e-11 4.462288e-11)) ((3.148626e-14 8.051606e-12 9.722678e-16) (-2.322086e-12 6.502214e-08 -1.756361e-14))
967.077493    	((-1.079595e-10 4.261103e-11 5.749938e-11) (4.311429e-11 2.106426e-11 4.663124e-11)) ((3.205887e-14 8.049089e-12 -8.264651e-17) (-2.294305e-12 6.506385e-08 -1.443837e-14))
1017.953997   	((-1.128335e-10 4.799007e-11 6.892875e-11) (3.721838e-11 2.421206e-11 4.984718e-11)) ((3.303712e-14 8.052628e-12 -9.812853e-16) (-2.213936e-12 6.513690e-08 -1.355761e-15))
1068.82447    	((-1.110357e-10 5.101770e-11 7.729790e-11) (3.598988e-11 2.769074e-11 5.126340e-11)) ((3.400464e-14 8.059322e-12 -1.328835e-15) (-2.115375e-12 6.523443e-08 7.241823e-17))
1119.69006    	((-9.921269e-11 5.387828e-11 8.797527e-11) (3.821328e-11 3.045923e-11 5.099051e-11)) ((3.477904e-14 8.070071e-12 -1.749121e-15) (-2.014900e-12 6.535057e-08 -3.006151e-14))
1170.551804   	((-9.102425e-11 5.102845e-11 9.106477e-11) (3.628396e-11 3.281021e-11 4.931063e-11)) ((3.515112e-14 8.085237e-12 -2.027328e-15) (-1.901846e-12 6.548020e-08 -6.927158e-14))
1221.410738   	((-8.965599e-11 5.090233e-11 9.664183e-11) (3.544354e-11 3.499514e-11 4.717113e-11)) ((3.556415e-14 8.103297e-12 -2.083379e-15) (-1.784939e-12 6.561879e-08 -1.238659e-13))
