# Forces      
# CofR        : (0.000000e+00 0.000000e+00 0.000000e+00)
# Time        forces(pressure viscous)	moments(pressure viscous)
0             	((0.000000e+00 0.000000e+00 0.000000e+00) (0.000000e+00 0.000000e+00 0.000000e+00)) ((0.000000e+00 0.000000e+00 0.000000e+00) (0.000000e+00 0.000000e+00 0.000000e+00))
0.012         	((7.265234e-12 -1.795879e-09 -3.687922e-12) (1.114143e-14 -4.559472e-11 1.505634e-13)) ((4.729373e-16 -3.373639e-16 4.084141e-11) (-1.956287e-16 3.708406e-15 5.561449e-08))
0.0264        	((2.292707e-11 -2.629387e-10 1.856813e-14) (6.810193e-14 -6.733727e-11 2.729439e-13)) ((-3.576418e-16 3.571609e-15 1.871990e-11) (-5.998993e-17 1.030239e-14 5.094364e-08))
0.04368       	((1.712735e-11 -8.361280e-10 -1.321194e-11) (7.855432e-14 -7.093338e-11 3.909010e-13)) ((7.185365e-16 4.337314e-15 1.019045e-11) (6.699887e-18 1.842054e-14 4.614036e-08))
0.064416      	((2.771738e-11 1.185655e-10 1.161165e-11) (3.660160e-14 -6.123711e-11 6.411040e-13)) ((-2.257783e-16 2.294811e-15 5.468849e-12) (1.148162e-15 2.881066e-14 4.131094e-08))
0.0892992     	((-1.406260e-11 -3.713228e-10 -1.028486e-11) (2.534381e-15 -5.092670e-11 9.758095e-13)) ((1.109831e-15 5.940355e-15 4.091960e-12) (3.594706e-15 4.186228e-14 3.659688e-08))
0.119159      	((9.480180e-12 6.722991e-11 -1.619916e-12) (-1.936339e-14 -4.141999e-11 1.154186e-12)) ((-3.234343e-17 4.328825e-15 3.051119e-12) (4.787767e-15 4.887153e-14 3.214435e-08))
0.154991      	((-5.480583e-12 -1.831932e-10 3.136336e-12) (-6.154022e-14 -3.742042e-11 1.191146e-12)) ((5.186827e-16 3.247902e-15 2.487827e-12) (6.055669e-15 5.090598e-14 2.805611e-08))
0.197989      	((7.665695e-13 -5.668444e-11 5.062313e-13) (-1.096069e-13 -3.249660e-11 1.173260e-12)) ((8.845177e-16 2.836213e-15 2.036325e-12) (7.973571e-15 5.107083e-14 2.443146e-08))
0.249587      	((-5.583487e-12 -1.466340e-10 -4.370933e-12) (-1.333670e-13 -2.871685e-11 1.207142e-12)) ((6.730334e-16 3.154707e-15 1.676392e-12) (8.456260e-15 4.895542e-14 2.132451e-08))
0.311504      	((2.346687e-12 -8.519194e-11 -1.835143e-12) (-1.220096e-13 -2.606435e-11 1.330580e-12)) ((4.060047e-16 1.950446e-15 1.362446e-12) (6.619512e-15 4.687366e-14 1.872777e-08))
0.385805      	((1.052788e-11 -6.646433e-11 5.415249e-13) (-6.147757e-14 -2.483051e-11 1.471594e-12)) ((1.878016e-16 7.565286e-16 1.120191e-12) (2.311301e-15 4.754783e-14 1.658513e-08))
0.474966      	((1.788742e-11 -6.709500e-11 -2.029798e-12) (1.319678e-14 -2.477529e-11 1.500218e-12)) ((3.360283e-17 4.349674e-16 9.561145e-13) (7.500880e-16 4.738589e-14 1.481230e-08))
0.581959      	((1.363235e-11 -4.570954e-11 -1.747595e-12) (-1.671650e-13 -2.271688e-11 1.168772e-12)) ((1.893888e-16 -5.946997e-16 8.115224e-13) (1.245179e-15 3.154083e-14 1.332187e-08))
0.710351      	((2.146916e-11 -3.461231e-11 1.279285e-12) (-4.454065e-13 -1.940039e-11 6.494114e-13)) ((-4.540491e-16 -1.116440e-15 6.726969e-13) (6.722896e-16 5.899361e-15 1.204142e-08))
0.864421      	((2.060835e-11 -6.080960e-11 2.703309e-12) (-7.097980e-13 -1.866236e-11 2.677484e-13)) ((-7.471777e-16 -2.383011e-15 5.759404e-13) (-1.450779e-15 -1.602269e-14 1.091988e-08))
1.049306      	((2.219897e-11 -9.533310e-11 2.070263e-12) (-8.887467e-13 -1.768645e-11 -1.197102e-13)) ((-8.011410e-16 -3.095970e-15 5.187728e-13) (3.151210e-15 -2.863056e-14 9.923287e-09))
1.271167      	((3.009161e-11 -1.081658e-10 1.055774e-13) (-1.042082e-12 -1.603781e-11 -6.362993e-13)) ((-7.746421e-16 -3.134882e-15 4.736133e-13) (1.548719e-14 -3.059015e-14 9.028612e-09))
1.5374        	((3.377201e-11 -1.170361e-10 9.752982e-13) (-1.665332e-12 -1.702308e-11 -1.153861e-12)) ((-8.634881e-16 -4.537148e-15 4.369754e-13) (3.769176e-14 -1.920385e-14 8.221151e-09))
1.85688       	((3.972282e-11 -1.599243e-10 4.317182e-12) (-3.002148e-12 -1.939785e-11 -1.063783e-12)) ((-1.035211e-15 -4.882513e-15 4.084558e-13) (7.172804e-14 2.071462e-14 7.492750e-09))
2.240256      	((3.073702e-11 -1.112353e-10 2.567767e-13) (-5.014176e-12 -1.771561e-11 -8.391218e-13)) ((-1.117446e-15 -5.187115e-15 3.976868e-13) (1.217327e-13 8.046968e-14 6.839303e-09))
2.700307      	((3.131106e-11 -6.758788e-11 -2.739272e-13) (-7.833412e-12 -1.220551e-11 -1.138944e-12)) ((-9.779255e-16 -5.228811e-15 3.852956e-13) (1.940105e-13 1.501059e-13 6.257870e-09))
3.252369      	((2.509247e-11 -4.885061e-11 -2.870331e-13) (-1.114192e-11 -7.301430e-12 -1.822725e-12)) ((-5.903463e-16 -4.830040e-15 3.658118e-13) (2.722733e-13 2.032823e-13 5.744284e-09))
3.914842      	((1.911648e-11 -3.114151e-11 -1.705281e-12) (-1.456492e-11 -2.973250e-12 -1.666237e-12)) ((-9.137081e-16 -3.911893e-15 3.370447e-13) (3.222130e-13 2.605575e-13 5.292221e-09))
4.709811      	((4.042880e-12 -1.752850e-11 -1.871361e-12) (-1.730342e-11 3.032490e-12 -9.019977e-13)) ((-4.287358e-16 -2.859720e-15 3.036807e-13) (3.467770e-13 3.025214e-13 4.893748e-09))
5.663773      	((-3.758735e-12 6.866773e-12 6.633961e-13) (-1.918701e-11 1.079920e-11 -5.382486e-14)) ((-7.788752e-17 -1.921329e-15 2.738169e-13) (3.534645e-13 3.223866e-13 4.539792e-09))
6.808528      	((-3.947750e-12 7.010518e-12 -6.994835e-13) (-1.942392e-11 1.398401e-11 2.052025e-13)) ((-6.657565e-17 -1.053246e-15 2.462010e-13) (3.333254e-13 3.056307e-13 4.221510e-09))
8.182233      	((-6.908787e-12 1.658858e-11 1.380680e-12) (-1.750108e-11 1.256968e-11 -3.575648e-14)) ((2.350250e-16 -6.325585e-16 2.220916e-13) (2.901229e-13 2.569843e-13 3.932279e-09))
9.83068       	((-6.205678e-12 5.894849e-12 -1.158119e-12) (-1.531780e-11 8.978806e-12 2.824791e-14)) ((5.343872e-16 2.399946e-16 2.027397e-13) (2.353453e-13 2.063678e-13 3.667477e-09))
11.808816     	((-6.127594e-13 -6.519062e-12 -1.430773e-13) (-1.250876e-11 4.230056e-12 -2.480304e-13)) ((8.262610e-16 6.608635e-16 1.860401e-13) (1.821107e-13 1.439196e-13 3.423955e-09))
14.182579     	((1.839389e-12 -6.225986e-12 -3.780388e-13) (-9.566909e-12 1.492720e-12 3.969317e-14)) ((9.605798e-16 1.347007e-15 1.729866e-13) (1.304086e-13 1.096346e-13 3.199691e-09))
17.031095     	((1.910771e-12 -4.558024e-12 -6.722518e-13) (-7.608181e-12 5.367057e-14 3.175343e-13)) ((9.232794e-16 1.568892e-15 1.629579e-13) (9.258660e-14 7.839945e-14 2.993507e-09))
20.449314     	((3.062744e-12 -7.570319e-12 -7.543823e-13) (-5.997089e-12 -1.156962e-12 -3.866171e-14)) ((9.046924e-16 1.679491e-15 1.548598e-13) (6.968399e-14 4.397833e-14 2.804573e-09))
24.551176     	((4.858224e-12 -8.769487e-12 -7.486463e-13) (-4.812749e-12 -7.294302e-13 -3.069478e-13)) ((7.966986e-16 1.625526e-15 1.474796e-13) (5.084162e-14 2.749037e-14 2.631942e-09))
29.473411     	((4.206637e-12 -8.594544e-12 -9.936823e-13) (-3.788116e-12 5.003033e-13 -4.138429e-13)) ((7.488465e-16 1.390480e-15 1.415910e-13) (4.262113e-14 2.259375e-14 2.474490e-09))
35.380094     	((5.215528e-12 -8.752166e-12 -8.556658e-13) (-3.126067e-12 1.642550e-12 -3.308117e-13)) ((8.093177e-16 1.379935e-15 1.361131e-13) (4.476678e-14 3.068539e-14 2.330807e-09))
42.468112     	((3.271724e-12 -8.277278e-12 -7.690343e-13) (-2.900629e-12 2.741835e-12 -3.199533e-13)) ((8.972086e-16 1.249427e-15 1.319074e-13) (4.832338e-14 4.150612e-14 2.199657e-09))
50.973735     	((2.303877e-12 -8.515369e-12 -4.819123e-13) (-2.942410e-12 4.120775e-12 -4.003987e-13)) ((7.827444e-16 1.245399e-15 1.278228e-13) (5.449240e-14 4.899770e-14 2.080060e-09))
61.180482     	((8.496012e-13 -8.272442e-12 -8.040565e-13) (-2.989460e-12 5.352010e-12 -4.927572e-13)) ((7.112593e-16 1.134504e-15 1.246424e-13) (6.253703e-14 5.009072e-14 1.971164e-09))
73.428578     	((5.696157e-14 -6.157511e-12 -8.525199e-13) (-2.910073e-12 6.255479e-12 -5.015144e-13)) ((6.251820e-16 9.531789e-16 1.226201e-13) (7.051003e-14 5.467739e-14 1.872217e-09))
88.126294     	((-7.174021e-13 -5.469775e-12 -6.574212e-13) (-2.891856e-12 7.067768e-12 -4.432008e-13)) ((5.498251e-16 8.261364e-16 1.206593e-13) (7.571704e-14 6.294223e-14 1.782480e-09))
105.763553    	((-2.240372e-12 -4.655980e-12 -5.176033e-13) (-2.995714e-12 7.612146e-12 -3.674751e-13)) ((4.720043e-16 7.309431e-16 1.185106e-13) (7.753789e-14 6.888340e-14 1.701217e-09))
126.928263    	((-2.762604e-12 -4.716954e-12 -3.802979e-13) (-3.180062e-12 7.756382e-12 -3.201211e-13)) ((3.887523e-16 6.186849e-16 1.165984e-13) (7.408129e-14 6.911593e-14 1.627730e-09))
152.325916    	((-2.650281e-12 -4.819251e-12 -2.899830e-13) (-3.148121e-12 7.777915e-12 -2.141537e-13)) ((3.278743e-16 5.371975e-16 1.148402e-13) (6.595941e-14 6.627200e-14 1.561258e-09))
182.803099    	((-2.992505e-12 -5.932037e-12 -1.960610e-13) (-2.812372e-12 7.683065e-12 -1.367403e-13)) ((2.850621e-16 4.498629e-16 1.132137e-13) (5.909065e-14 6.382843e-14 1.501018e-09))
219.375719    	((-2.986782e-12 -5.959454e-12 -1.657293e-13) (-2.712469e-12 7.706028e-12 -7.641646e-14)) ((2.838739e-16 4.286279e-16 1.117987e-13) (5.324130e-14 6.369174e-14 1.446313e-09))
263.262863    	((-2.696320e-12 -5.896491e-12 2.624380e-14) (-2.739680e-12 7.559844e-12 8.086805e-15)) ((2.745250e-16 4.220511e-16 1.105237e-13) (4.774722e-14 6.462778e-14 1.396565e-09))
315.927436    	((-2.631642e-12 -6.064024e-12 -4.966182e-14) (-2.716997e-12 7.292327e-12 2.727689e-14)) ((2.944949e-16 3.845094e-16 1.092872e-13) (4.361713e-14 6.724267e-14 1.351320e-09))
379.124923    	((-2.897782e-12 -6.244445e-12 6.022217e-14) (-2.737633e-12 7.009644e-12 -6.657175e-15)) ((3.031113e-16 3.486163e-16 1.081641e-13) (4.008644e-14 6.639199e-14 1.310231e-09))
454.961908    	((-3.317392e-12 -7.189382e-12 -1.057081e-14) (-2.677382e-12 6.633336e-12 -3.698685e-14)) ((3.095131e-16 3.001404e-16 1.071043e-13) (3.795254e-14 6.371724e-14 1.272995e-09))
545.966289    	((-3.300173e-12 -7.945008e-12 1.216597e-13) (-2.609796e-12 6.279679e-12 -5.579831e-14)) ((2.869387e-16 2.688448e-16 1.060824e-13) (3.665816e-14 5.970049e-14 1.239345e-09))
655.171547    	((-3.374678e-12 -8.625593e-12 1.195654e-13) (-2.524496e-12 5.940153e-12 -6.464403e-14)) ((2.519105e-16 2.480338e-16 1.051132e-13) (3.505458e-14 5.554169e-14 1.209039e-09))
786.217856    	((-3.187233e-12 -8.444341e-12 1.918924e-13) (-2.455082e-12 5.775576e-12 -4.595817e-14)) ((2.259538e-16 2.550466e-16 1.041685e-13) (3.386123e-14 5.370116e-14 1.181850e-09))
943.473427    	((-3.488687e-12 -8.590321e-12 1.585547e-13) (-2.394137e-12 5.593819e-12 -2.115351e-14)) ((2.265833e-16 2.580919e-16 1.032453e-13) (3.118387e-14 5.191928e-14 1.157563e-09))
1132.180113   	((-3.606019e-12 -8.629142e-12 2.618727e-13) (-2.407396e-12 5.391698e-12 -4.260444e-14)) ((2.360259e-16 2.459870e-16 1.023596e-13) (2.823329e-14 4.954339e-14 1.135965e-09))
1358.628135   	((-2.596508e-12 -8.556949e-12 2.784795e-13) (-2.348114e-12 5.237737e-12 -8.426868e-14)) ((2.251882e-16 2.342076e-16 1.015778e-13) (2.709824e-14 4.654719e-14 1.116855e-09))
1630.365763   	((-2.019153e-12 -8.771829e-12 2.232107e-13) (-2.244887e-12 5.073103e-12 -1.186914e-13)) ((2.187154e-16 2.155123e-16 1.008755e-13) (2.645535e-14 4.319304e-14 1.100040e-09))
1956.450915   	((-2.155200e-12 -8.769496e-12 1.572063e-13) (-2.245658e-12 4.906405e-12 -1.568440e-13)) ((2.130536e-16 1.983737e-16 1.002286e-13) (2.650327e-14 4.062057e-14 1.085337e-09))
2347.753098   	((-1.910276e-12 -8.694884e-12 8.183855e-14) (-2.207837e-12 4.724333e-12 -1.861477e-13)) ((2.115058e-16 1.913177e-16 9.965723e-14) (2.622919e-14 3.928451e-14 1.072554e-09))
2817.315718   	((-1.683343e-12 -8.736157e-12 -2.081922e-14) (-2.150110e-12 4.591173e-12 -2.083717e-13)) ((2.154825e-16 1.939553e-16 9.915460e-14) (2.524528e-14 3.785371e-14 1.061506e-09))
3380.790861   	((-1.705753e-12 -8.807920e-12 -1.349422e-13) (-2.081498e-12 4.489553e-12 -2.085755e-13)) ((2.193556e-16 1.907143e-16 9.872862e-14) (2.385556e-14 3.614937e-14 1.052017e-09))
4056.961033   	((-1.666064e-12 -8.944472e-12 -1.667649e-13) (-2.013881e-12 4.431483e-12 -2.196562e-13)) ((2.202564e-16 1.817357e-16 9.835891e-14) (2.249600e-14 3.489696e-14 1.043922e-09))
4868.36524    	((-1.596904e-12 -9.157249e-12 -1.228061e-13) (-1.946811e-12 4.427776e-12 -2.346393e-13)) ((2.238980e-16 1.698436e-16 9.803730e-14) (2.113639e-14 3.380067e-14 1.037062e-09))
5842.050288   	((-1.825037e-12 -9.341785e-12 -2.811103e-14) (-1.851844e-12 4.480293e-12 -2.275934e-13)) ((2.377546e-16 1.664548e-16 9.772326e-14) (1.945672e-14 3.242425e-14 1.031288e-09))
7010.472346   	((-1.844339e-12 -9.420818e-12 1.074908e-13) (-1.795607e-12 4.502715e-12 -2.051985e-13)) ((2.470627e-16 1.725650e-16 9.748938e-14) (1.789624e-14 3.107353e-14 1.026461e-09))
8412.578815   	((-1.891762e-12 -9.488447e-12 2.458252e-13) (-1.758026e-12 4.508593e-12 -1.712891e-13)) ((2.498290e-16 1.792075e-16 9.730321e-14) (1.666164e-14 2.976170e-14 1.022451e-09))
10071.106469  	((-1.962307e-12 -9.476782e-12 3.703400e-13) (-1.740004e-12 4.511170e-12 -1.429077e-13)) ((2.536760e-16 1.855529e-16 9.714666e-14) (1.565988e-14 2.852340e-14 1.019143e-09))
11986.066672  	((-2.055650e-12 -9.341622e-12 4.870092e-13) (-1.732522e-12 4.523852e-12 -1.183820e-13)) ((2.493914e-16 1.906541e-16 9.700539e-14) (1.472198e-14 2.750632e-14 1.016430e-09))
14157.468735  	((-2.160609e-12 -9.241434e-12 5.621941e-13) (-1.714247e-12 4.528030e-12 -1.000098e-13)) ((2.758652e-16 2.126859e-16 9.690468e-14) (1.393522e-14 2.646009e-14 1.014218e-09))
16585.320227  	((-2.267243e-12 -9.257753e-12 7.518474e-13) (-1.697729e-12 4.528788e-12 -8.908290e-14)) ((2.246989e-16 1.994293e-16 9.681425e-14) (1.345194e-14 2.601034e-14 1.012422e-09))
19149.875729  	((-2.427457e-12 -9.124382e-12 8.627770e-13) (-1.703261e-12 4.533045e-12 -6.678810e-14)) ((2.181884e-16 2.084894e-16 9.674064e-14) (1.372430e-14 2.588146e-14 1.010973e-09))
21714.48022   	((-2.701304e-12 -8.943424e-12 8.877369e-13) (-1.719792e-12 4.530140e-12 -5.215463e-14)) ((2.143192e-16 2.199346e-16 9.668872e-14) (1.390528e-14 2.537333e-14 1.009806e-09))
24279.123816  	((-2.870402e-12 -8.804782e-12 1.047437e-12) (-1.726958e-12 4.532528e-12 -4.742885e-14)) ((2.089589e-16 2.196936e-16 9.664438e-14) (1.384476e-14 2.520818e-14 1.008870e-09))
26843.798705  	((-3.025307e-12 -8.861478e-12 1.049832e-12) (-1.737708e-12 4.534478e-12 -4.837426e-14)) ((2.506110e-16 2.348694e-16 9.659690e-14) (1.381154e-14 2.515317e-14 1.008121e-09))
29408.498578  	((-3.267287e-12 -8.746619e-12 1.210987e-12) (-1.763325e-12 4.534618e-12 -6.002802e-14)) ((2.458359e-16 2.282862e-16 9.656912e-14) (1.292705e-14 2.457079e-14 1.007522e-09))
31973.218416  	((-3.413527e-12 -8.695429e-12 1.267916e-12) (-1.770453e-12 4.528255e-12 -6.129522e-14)) ((2.481078e-16 2.298570e-16 9.654691e-14) (1.231836e-14 2.388347e-14 1.007044e-09))
34537.954187  	((-3.555189e-12 -8.664139e-12 1.315499e-12) (-1.772851e-12 4.522864e-12 -6.015620e-14)) ((2.485841e-16 2.310570e-16 9.652885e-14) (1.201144e-14 2.344425e-14 1.006661e-09))
37102.702669  	((-3.692119e-12 -8.662963e-12 1.352955e-12) (-1.769803e-12 4.517692e-12 -5.942367e-14)) ((2.486539e-16 2.318352e-16 9.651799e-14) (1.185626e-14 2.318027e-14 1.006356e-09))
39667.461288  	((-3.836235e-12 -8.708404e-12 1.351597e-12) (-1.760826e-12 4.512074e-12 -5.691006e-14)) ((2.420797e-16 2.292666e-16 9.651992e-14) (1.187468e-14 2.308731e-14 1.006113e-09))
42232.227994  	((-3.918182e-12 -8.657273e-12 1.396407e-12) (-1.767576e-12 4.514212e-12 -5.882423e-14)) ((2.450946e-16 2.299789e-16 9.650595e-14) (1.175850e-14 2.294200e-14 1.005919e-09))
44797.001151  	((-4.017358e-12 -8.659948e-12 1.449220e-12) (-1.771620e-12 4.513713e-12 -5.892058e-14)) ((2.466780e-16 2.289100e-16 9.649521e-14) (1.166422e-14 2.282554e-14 1.005765e-09))
47361.779454  	((-4.117526e-12 -8.682822e-12 1.476944e-12) (-1.775058e-12 4.512670e-12 -5.821921e-14)) ((2.456972e-16 2.291464e-16 9.648600e-14) (1.169881e-14 2.277910e-14 1.005642e-09))
49926.561863  	((-4.220741e-12 -8.723784e-12 1.517453e-12) (-1.778570e-12 4.511264e-12 -5.831740e-14)) ((2.457863e-16 2.286573e-16 9.647822e-14) (1.167604e-14 2.273641e-14 1.005544e-09))
52491.347545  	((-4.329595e-12 -8.792700e-12 1.554786e-12) (-1.781597e-12 4.508551e-12 -5.794587e-14)) ((2.454700e-16 2.288811e-16 9.647177e-14) (1.172373e-14 2.273698e-14 1.005466e-09))
55056.135841  	((-4.465980e-12 -8.789998e-12 1.532022e-12) (-1.785728e-12 4.508544e-12 -5.756899e-14)) ((2.334219e-16 2.175281e-16 9.645497e-14) (1.167448e-14 2.273930e-14 1.005403e-09))
57620.926223  	((-4.606788e-12 -8.854416e-12 1.540713e-12) (-1.791110e-12 4.509522e-12 -5.974562e-14)) ((2.405013e-16 2.260440e-16 9.645945e-14) (1.168131e-14 2.269294e-14 1.005354e-09))
60185.71827   	((-4.760999e-12 -8.948106e-12 1.548672e-12) (-1.795967e-12 4.506148e-12 -5.882078e-14)) ((2.405837e-16 2.256743e-16 9.645593e-14) (1.165473e-14 2.261989e-14 1.005314e-09))
