# Forces      
# CofR        : (0.000000e+00 0.000000e+00 0.000000e+00)
# Time        forces(pressure viscous)	moments(pressure viscous)
0             	((0.000000e+00 0.000000e+00 0.000000e+00) (0.000000e+00 0.000000e+00 0.000000e+00)) ((0.000000e+00 0.000000e+00 0.000000e+00) (0.000000e+00 0.000000e+00 0.000000e+00))
0.012         	((-8.213747e-10 1.395922e-09 -2.835513e-09) (2.055842e-11 2.700050e-12 1.809276e-11)) ((1.277373e-08 -1.220274e-12 -2.479522e-14) (8.816607e-06 9.759369e-13 -4.105040e-13))
0.0264        	((1.003540e-09 2.333615e-09 -5.007021e-09) (8.738148e-11 -1.844044e-11 1.346428e-11)) ((6.428731e-09 -9.715013e-13 2.258216e-13) (8.076298e-06 1.575710e-12 -3.787953e-13))
0.04368       	((-5.753960e-09 -4.086946e-09 -5.838712e-09) (2.243773e-10 -6.188913e-11 3.194583e-13)) ((3.710021e-09 -8.262774e-13 2.620872e-13) (7.318111e-06 9.349899e-13 5.793201e-13))
0.064416      	((3.655005e-09 -7.871611e-10 -1.615077e-09) (3.760636e-10 -8.391097e-11 -1.209217e-11)) ((2.245961e-09 -5.405352e-13 -1.450756e-13) (6.560774e-06 -7.796114e-13 1.548385e-12))
0.0892992     	((1.993465e-09 -1.816042e-09 6.450099e-10) (6.064837e-10 -9.133197e-11 -2.706206e-11)) ((1.798091e-09 -5.263599e-13 -1.185416e-14) (5.828503e-06 -2.444169e-12 2.069778e-12))
0.119159      	((1.728877e-09 -4.240337e-10 -6.835643e-10) (7.389684e-10 -8.768771e-11 -4.268079e-11)) ((1.392366e-09 -3.937221e-13 -1.890603e-13) (5.145201e-06 -3.514248e-12 2.235375e-12))
0.154991      	((1.126093e-08 5.480577e-10 9.485611e-10) (6.997903e-10 -6.342556e-11 -6.520229e-11)) ((1.166493e-09 -4.233457e-13 -1.032815e-13) (4.527367e-06 -4.266999e-12 1.954866e-12))
0.197989      	((4.774397e-09 7.049298e-10 -1.643303e-10) (5.635049e-10 -2.930754e-11 -8.205422e-11)) ((9.609343e-10 -1.741034e-13 -1.133492e-13) (3.982447e-06 -4.973767e-12 1.789379e-12))
0.249587      	((1.044267e-08 -6.468929e-10 -1.063160e-09) (4.134700e-10 -7.345128e-12 -1.062747e-10)) ((8.229432e-10 -1.356554e-13 -9.008860e-14) (3.510615e-06 -5.975886e-12 1.872359e-12))
0.311504      	((8.986368e-10 -6.985623e-10 -1.393409e-09) (2.484314e-10 -1.855486e-12 -1.300252e-10)) ((7.183011e-10 -1.725993e-13 -1.452758e-14) (3.107666e-06 -6.540430e-12 1.984724e-12))
0.385805      	((-1.599440e-09 1.632213e-10 -1.752963e-09) (1.324110e-10 -6.288456e-12 -1.548795e-10)) ((6.438746e-10 -1.593493e-13 2.249000e-14) (2.764409e-06 -6.314091e-12 2.019250e-12))
0.474966      	((1.785565e-09 9.674123e-10 -1.570084e-09) (2.810203e-10 1.849384e-12 -1.882497e-10)) ((5.862321e-10 -1.811340e-13 8.136371e-14) (2.470090e-06 -6.175863e-12 1.818195e-12))
0.581959      	((-2.820349e-09 1.045630e-09 -2.699747e-09) (3.078285e-11 -1.181844e-11 -2.179297e-10)) ((5.291703e-10 -1.244736e-13 8.766317e-14) (2.216436e-06 -5.965484e-12 2.215112e-12))
0.710351      	((-6.131625e-09 2.367129e-09 2.907590e-11) (-4.181073e-10 -6.495125e-11 -2.206607e-10)) ((4.718524e-10 -5.472468e-14 1.083897e-13) (1.996290e-06 -5.076563e-12 3.119176e-12))
0.864421      	((-6.988754e-09 4.681161e-09 -4.426483e-10) (-4.677788e-10 -7.867096e-12 -1.750724e-10)) ((4.286544e-10 5.029227e-15 1.018299e-13) (1.803662e-06 -4.463714e-12 4.319525e-12))
1.049306      	((-4.079043e-09 8.328237e-09 -1.132055e-10) (-4.045792e-10 4.873982e-11 -1.722620e-10)) ((3.968883e-10 6.492126e-14 2.734995e-14) (1.633575e-06 -3.365986e-12 6.541505e-12))
1.271167      	((-2.884011e-10 7.533341e-09 -1.316982e-09) (-4.420848e-10 -2.894194e-11 -6.604610e-11)) ((3.674609e-10 9.640308e-14 1.001984e-14) (1.482172e-06 -1.685778e-12 1.014858e-11))
1.5374        	((-6.344912e-10 6.051356e-09 -2.714946e-09) (2.056143e-10 -2.098415e-10 1.499604e-10)) ((3.354510e-10 1.518258e-13 -3.905452e-15) (1.346885e-06 -5.393592e-13 1.520587e-11))
1.85688       	((-3.860525e-10 6.712379e-09 -1.755719e-09) (1.039804e-09 -3.255026e-10 5.212893e-10)) ((3.029737e-10 1.165418e-13 1.425193e-14) (1.226310e-06 1.738229e-12 1.884244e-11))
2.240256      	((1.855696e-10 8.301655e-09 -4.676093e-10) (9.679177e-10 -3.806412e-10 8.377327e-10)) ((2.753002e-10 1.284955e-13 -6.505535e-14) (1.119634e-06 3.849751e-12 2.281005e-11))
2.700307      	((1.205216e-09 9.381854e-09 2.053735e-09) (7.476158e-10 -4.195638e-10 1.013915e-09)) ((2.513753e-10 2.095054e-13 -1.697618e-13) (1.025986e-06 6.324946e-12 2.462351e-11))
3.252369      	((7.043169e-11 8.156822e-09 2.760955e-09) (7.533158e-10 -4.687602e-10 1.011371e-09)) ((2.282936e-10 2.360856e-13 -2.562333e-13) (9.440417e-07 8.739306e-12 2.316412e-11))
3.914842      	((1.493929e-09 6.065697e-09 4.241146e-09) (8.844911e-10 -1.896808e-10 1.052836e-09)) ((2.067363e-10 2.304332e-13 -2.887204e-13) (8.721177e-07 5.321329e-12 2.101216e-11))
4.709811      	((2.719582e-09 3.232260e-09 4.827229e-09) (5.331181e-10 1.782307e-10 7.526504e-10)) ((1.863459e-10 2.087482e-13 -2.595831e-13) (8.084316e-07 -7.804710e-13 1.748206e-11))
5.663773      	((4.821312e-09 2.169354e-09 3.471131e-09) (2.633095e-10 6.355151e-10 1.940049e-10)) ((1.673896e-10 2.310129e-13 -2.518731e-13) (7.513726e-07 -6.473365e-12 1.295387e-11))
6.808528      	((2.742717e-09 -1.871351e-10 2.496137e-09) (3.611839e-10 1.079430e-09 -2.324516e-10)) ((1.503257e-10 1.851061e-13 -2.454669e-13) (6.997237e-07 -1.279465e-11 8.380882e-12))
8.182233      	((1.180586e-09 2.997471e-10 2.094314e-09) (7.976027e-11 1.321880e-09 -5.621281e-10)) ((1.347483e-10 1.878972e-13 -3.093516e-13) (6.526469e-07 -1.564786e-11 4.744860e-12))
9.83068       	((-7.085235e-10 -3.604535e-10 1.964632e-09) (-5.671232e-10 1.485361e-09 -6.569439e-10)) ((1.212923e-10 9.523744e-14 -2.528390e-13) (6.095040e-07 -1.302338e-11 1.000518e-12))
11.808816     	((-4.396369e-10 8.185989e-10 1.027306e-09) (-5.579095e-10 1.509982e-09 -4.987635e-10)) ((1.087177e-10 -1.142411e-13 -1.057626e-13) (5.697611e-07 -4.525937e-12 -2.980950e-12))
14.182579     	((-1.223857e-09 1.460004e-10 1.627640e-09) (-6.646904e-10 1.279890e-09 -5.168410e-10)) ((9.822363e-11 -2.275982e-13 1.527448e-14) (5.331507e-07 2.581941e-12 -6.940703e-12))
17.031095     	((-4.157317e-10 2.459138e-10 1.122325e-09) (-5.319036e-10 1.080173e-09 -4.625049e-10)) ((9.012248e-11 -2.396049e-13 5.316578e-14) (4.996481e-07 7.630882e-12 -1.206519e-11))
20.449314     	((-1.326048e-09 -7.609993e-10 1.734025e-10) (-3.430261e-10 9.782696e-10 -2.892105e-10)) ((8.305023e-11 -2.220653e-13 5.736667e-14) (4.692651e-07 1.043528e-11 -1.655078e-11))
24.551176     	((-8.796742e-10 -1.478609e-09 -4.887460e-10) (-3.389168e-10 8.591691e-10 -2.922594e-10)) ((7.681424e-11 -2.092760e-13 5.101420e-14) (4.419721e-07 1.401382e-11 -2.019319e-11))
29.473411     	((-8.025716e-10 -1.581910e-09 -1.686807e-10) (-6.118014e-10 8.896171e-10 -3.269478e-10)) ((7.086068e-11 -2.362641e-13 3.903670e-14) (4.176125e-07 1.965825e-11 -2.256291e-11))
35.380094     	((-5.999932e-10 -2.786844e-09 -1.071768e-09) (-4.402749e-10 9.364778e-10 -5.604704e-10)) ((6.606611e-11 -2.049376e-13 3.734096e-15) (3.958854e-07 2.441394e-11 -2.330134e-11))
42.468112     	((-7.185749e-10 -2.645381e-09 -1.580429e-09) (-2.090014e-10 1.115468e-09 -6.607861e-10)) ((6.211988e-11 -2.078849e-13 -3.077625e-16) (3.765029e-07 2.699178e-11 -2.492449e-11))
50.973735     	((-7.076173e-10 -2.860529e-09 -2.001142e-09) (-1.037128e-11 1.211732e-09 -7.968061e-10)) ((5.878228e-11 -1.990885e-13 1.385515e-14) (3.592767e-07 2.730067e-11 -2.613503e-11))
61.0951       	((-7.311435e-10 -1.507733e-09 -1.640146e-09) (-2.251880e-12 1.213561e-09 -9.646129e-10)) ((5.539408e-11 -1.633543e-13 1.792555e-15) (3.441254e-07 2.484637e-11 -2.671122e-11))
72.832019     	((-9.741692e-10 -6.115480e-10 -1.798763e-09) (-8.543703e-11 1.158944e-09 -1.203917e-09)) ((5.250083e-11 -1.055634e-13 -3.424084e-14) (3.310408e-07 1.956288e-11 -2.698773e-11))
86.184253     	((-8.363362e-10 1.943535e-10 -1.938354e-09) (-2.825733e-10 1.281514e-09 -1.160790e-09)) ((4.986067e-11 -6.668065e-14 -8.466730e-14) (3.199836e-07 1.316102e-11 -2.776945e-11))
101.15152     	((-8.075227e-10 2.045327e-10 -2.090783e-09) (-3.547778e-10 1.407321e-09 -1.130627e-09)) ((4.761040e-11 -4.070321e-14 -1.071561e-13) (3.108729e-07 8.267341e-12 -2.885945e-11))
117.298462    	((-6.120798e-10 8.286236e-10 -1.372115e-09) (-3.807259e-10 1.516386e-09 -1.013638e-09)) ((4.583194e-11 -3.514684e-14 -1.159588e-13) (3.036440e-07 6.551453e-12 -3.046278e-11))
133.441189    	((-5.081164e-10 7.866389e-10 -7.557322e-10) (-4.035833e-10 1.680187e-09 -6.984041e-10)) ((4.442591e-11 -4.136316e-14 -1.152122e-13) (2.982748e-07 7.885257e-12 -3.252193e-11))
149.57941     	((-2.796236e-10 9.958379e-10 -3.914982e-10) (-4.656831e-10 1.654048e-09 -5.559556e-10)) ((4.343425e-11 -4.694184e-14 -1.160354e-13) (2.944860e-07 1.049158e-11 -3.353965e-11))
165.712788    	((-2.329616e-10 9.832672e-10 1.360082e-10) (-4.983457e-10 1.609813e-09 -4.435082e-10)) ((4.277369e-11 -2.021335e-14 -1.113554e-13) (2.920641e-07 1.403765e-11 -3.326737e-11))
181.84089     	((1.162069e-10 1.278148e-09 1.017296e-09) (-4.814774e-10 1.653817e-09 -1.058514e-10)) ((4.232602e-11 -1.200503e-14 -1.054003e-13) (2.908109e-07 1.794242e-11 -3.172663e-11))
197.963431    	((1.077993e-10 1.131326e-09 1.257287e-09) (-5.889825e-10 1.684660e-09 2.148742e-10)) ((4.212809e-11 -1.987968e-14 -9.227347e-14) (2.905802e-07 2.044243e-11 -2.862950e-11))
214.080263    	((-1.271496e-10 7.434565e-10 1.346579e-09) (-5.520244e-10 1.575156e-09 3.539423e-10)) ((4.205108e-11 -2.904025e-14 -8.132311e-14) (2.912368e-07 2.177652e-11 -2.519930e-11))
230.19117     	((-2.937062e-10 5.723575e-10 1.355885e-09) (-4.836121e-10 1.362726e-09 3.538950e-10)) ((4.208635e-11 -2.290122e-14 -7.118617e-14) (2.926604e-07 2.137071e-11 -2.160728e-11))
246.295937    	((2.760012e-11 4.495650e-10 1.307182e-09) (-3.979953e-10 1.213307e-09 3.442556e-10)) ((4.222975e-11 -2.797362e-14 -5.956674e-14) (2.947278e-07 2.001386e-11 -1.927651e-11))
262.394188    	((-2.380183e-11 6.963894e-10 1.314547e-09) (-3.460685e-10 1.092234e-09 3.028384e-10)) ((4.248464e-11 -3.876327e-14 -4.284281e-14) (2.973121e-07 1.921112e-11 -1.847653e-11))
278.485698    	((-2.411400e-10 7.809017e-10 1.258629e-09) (-3.339296e-10 1.028071e-09 2.381092e-10)) ((4.281596e-11 -4.084766e-14 -3.463323e-14) (3.002889e-07 1.871885e-11 -1.884135e-11))
294.570272    	((-2.706340e-10 8.071521e-10 1.219892e-09) (-3.135054e-10 1.010218e-09 1.595530e-10)) ((4.320366e-11 -4.641436e-14 -2.877942e-14) (3.035298e-07 1.835130e-11 -1.981226e-11))
310.647633    	((-2.645961e-10 8.352432e-10 1.188119e-09) (-2.899891e-10 1.021048e-09 9.889503e-11)) ((4.369030e-11 -4.865047e-14 -2.389921e-14) (3.069052e-07 1.835689e-11 -2.121288e-11))
326.717667    	((-2.980132e-10 7.850295e-10 1.187630e-09) (-2.572869e-10 1.052375e-09 4.651011e-11)) ((4.424361e-11 -5.224284e-14 -2.033948e-14) (3.102885e-07 1.906476e-11 -2.286191e-11))
342.780195    	((-3.775221e-10 8.332042e-10 1.430589e-09) (-2.413006e-10 1.044902e-09 -1.139187e-11)) ((4.483141e-11 -5.504680e-14 -1.746400e-14) (3.135597e-07 2.045470e-11 -2.431540e-11))
358.834844    	((-4.659092e-10 5.987405e-10 1.569886e-09) (-2.216826e-10 1.039786e-09 -3.551841e-11)) ((4.545765e-11 -5.858728e-14 -1.261535e-14) (3.166146e-07 2.209754e-11 -2.503230e-11))
374.881437    	((-5.432217e-10 2.681679e-10 1.536447e-09) (-2.016493e-10 1.037832e-09 -2.311147e-11)) ((4.604758e-11 -6.188584e-14 -7.853500e-15) (3.193649e-07 2.325272e-11 -2.467936e-11))
