# Forces      
# CofR        : (0.000000e+00 0.000000e+00 0.000000e+00)
# Time        forces(pressure viscous)	moments(pressure viscous)
0             	((0.000000e+00 0.000000e+00 0.000000e+00) (2.799998e-15 -5.036903e-05 6.909583e-15)) ((0.000000e+00 0.000000e+00 0.000000e+00) (-3.279111e-16 9.038091e-18 1.820055e-11))
0.012         	((-1.753476e-09 -1.464894e-02 2.852893e-09) (3.065807e-11 -5.780208e-05 4.317292e-11)) ((-5.987863e-12 -9.199400e-14 2.767093e-09) (-4.962068e-13 -1.385458e-14 3.779853e-11))
0.0264        	((-3.323283e-07 1.018698e-03 -2.693447e-07) (-1.966465e-10 -5.897167e-05 -1.580392e-10)) ((1.258088e-11 -8.737871e-13 -1.782576e-10) (-1.838480e-13 1.447218e-13 5.115395e-11))
0.04368       	((2.262618e-07 3.062134e-03 3.013321e-07) (-2.610525e-10 -5.240230e-05 -1.043090e-10)) ((7.433794e-12 -6.349911e-13 -7.446743e-10) (1.605763e-12 1.836186e-13 4.439142e-11))
0.064416      	((-1.097680e-08 2.900912e-05 -4.131481e-08) (-4.697260e-10 -4.641195e-05 -6.137220e-10)) ((-5.629712e-12 5.214941e-14 4.021652e-11) (-5.403784e-12 -3.169866e-14 5.663009e-11))
0.0892992     	((2.121152e-08 -3.962604e-05 -3.930410e-08) (-8.126888e-10 -4.284716e-05 -1.002691e-09)) ((-1.766552e-13 1.879243e-12 3.821562e-11) (-1.048522e-11 -4.318697e-13 6.108134e-11))
0.119159      	((-1.909065e-08 4.612182e-05 -2.543264e-08) (-9.247119e-10 -3.956465e-05 -8.689714e-10)) ((-4.587764e-12 -1.300113e-13 -1.174844e-11) (-1.486492e-13 -1.200302e-12 5.203123e-11))
0.154991      	((-7.774307e-10 2.472584e-05 9.380813e-09) (-8.972064e-10 -3.608696e-05 -7.616624e-10)) ((-2.359296e-12 -7.061019e-13 -2.356294e-12) (8.059259e-12 -7.519931e-13 3.670146e-11))
0.197989      	((2.060481e-08 5.967411e-06 5.704773e-09) (-7.184803e-10 -3.258135e-05 -4.647214e-10)) ((-2.734606e-12 -1.529762e-13 -3.012056e-13) (3.868717e-12 -6.752099e-13 1.408280e-11))
0.249587      	((2.062434e-09 -8.302290e-07 3.547286e-09) (-4.921592e-10 -2.914661e-05 -2.053003e-10)) ((-1.940992e-12 -3.330720e-13 2.437504e-12) (-2.582379e-12 -1.069260e-12 4.185905e-12))
0.311504      	((-3.435752e-09 -3.942158e-06 3.927975e-10) (-2.542296e-10 -2.588685e-05 -3.105668e-11)) ((-1.310729e-12 -1.256883e-13 3.418863e-12) (-5.227619e-12 -6.444881e-13 -6.590303e-12))
0.385805      	((-8.232226e-10 -5.431693e-06 1.074266e-09) (-5.267530e-11 -2.288587e-05 7.772123e-11)) ((-9.616106e-13 -4.774121e-14 2.588796e-12) (-6.720534e-12 -3.488657e-13 -1.726159e-11))
0.474966      	((6.219002e-10 -6.160291e-06 1.297075e-09) (8.599478e-11 -2.019944e-05 1.101757e-10)) ((-6.039647e-13 -2.328763e-14 2.157111e-12) (-7.597484e-12 -4.647942e-13 -1.107680e-11))
0.581959      	((1.166995e-09 -6.463569e-06 9.902346e-10) (2.064569e-10 -1.784531e-05 1.079882e-10)) ((-3.728543e-13 5.516431e-15 1.840805e-12) (-7.994844e-12 -4.822833e-13 1.472997e-12))
0.710351      	((8.724602e-10 -6.442512e-06 5.916606e-10) (3.386417e-10 -1.581907e-05 7.607688e-11)) ((-2.123832e-13 1.959811e-14 1.550711e-12) (-6.286443e-12 -2.634103e-13 6.596295e-12))
0.864421      	((6.111276e-10 -6.211732e-06 4.173049e-10) (4.805525e-10 -1.409484e-05 6.610715e-11)) ((-1.009116e-13 1.784027e-14 1.681048e-12) (-4.230439e-12 -1.450043e-13 7.942830e-12))
1.049306      	((6.486815e-10 -5.869311e-06 2.335755e-10) (5.548934e-10 -1.263111e-05 6.492618e-11)) ((-4.665263e-14 9.072578e-15 1.698197e-12) (-2.683179e-12 1.937394e-14 7.342619e-12))
1.271167      	((7.350800e-10 -5.486819e-06 1.465543e-10) (5.483674e-10 -1.138449e-05 5.254925e-11)) ((-1.988090e-14 1.169014e-14 1.527611e-12) (-1.534391e-12 2.742141e-13 6.385511e-12))
1.5374        	((8.133149e-10 -5.092277e-06 1.129280e-10) (3.864139e-10 -1.030984e-05 3.767922e-11)) ((-1.191179e-14 9.794876e-15 1.482386e-12) (-6.551626e-13 4.780444e-13 7.895051e-12))
1.85688       	((7.375431e-10 -4.704459e-06 -1.375413e-11) (2.180811e-10 -9.366638e-06 3.434703e-11)) ((-1.856816e-14 6.380748e-15 1.463904e-12) (3.880050e-13 5.419853e-13 1.292648e-11))
2.240256      	((3.960792e-10 -4.335677e-06 -5.814817e-11) (1.925387e-10 -8.528216e-06 3.224001e-11)) ((-1.876658e-14 7.808706e-15 1.433556e-12) (1.541100e-12 5.551017e-13 1.961825e-11))
2.700307      	((3.119832e-10 -3.991568e-06 -1.045713e-10) (2.561076e-10 -7.777637e-06 3.078780e-11)) ((-1.666938e-14 4.289027e-15 1.409126e-12) (2.644150e-12 5.213437e-13 2.643380e-11))
3.252369      	((1.728966e-10 -3.672045e-06 -7.760254e-11) (2.226815e-10 -7.102810e-06 3.125049e-11)) ((-1.784096e-14 4.118439e-15 1.348335e-12) (3.619934e-12 4.683240e-13 2.963393e-11))
3.914842      	((1.556572e-10 -3.373094e-06 -2.179707e-11) (1.366882e-10 -6.494442e-06 3.427122e-11)) ((-1.702784e-14 3.464684e-15 1.235453e-12) (4.281016e-12 4.163679e-13 2.788129e-11))
4.709811      	((3.207125e-10 -3.096546e-06 6.521355e-11) (1.587420e-10 -5.945750e-06 3.693009e-11)) ((-1.828770e-14 4.760973e-15 1.089047e-12) (4.674013e-12 2.939200e-13 2.558816e-11))
5.663773      	((3.458946e-10 -2.842587e-06 1.103593e-10) (1.815884e-10 -5.451824e-06 3.629752e-11)) ((-2.238658e-14 6.530810e-15 9.574838e-13) (4.805453e-12 2.574919e-13 2.415967e-11))
6.808528      	((3.410868e-10 -2.611550e-06 1.446924e-10) (1.477933e-10 -5.008347e-06 3.374959e-11)) ((-2.292553e-14 4.866739e-15 8.219271e-13) (4.546808e-12 2.714531e-13 2.377662e-11))
8.182233      	((3.305573e-10 -2.403011e-06 4.497478e-11) (1.164222e-10 -4.610628e-06 3.121878e-11)) ((-2.253823e-14 3.465643e-15 6.942655e-13) (4.501854e-12 2.271982e-13 2.388048e-11))
9.83068       	((2.314323e-10 -2.215273e-06 -1.118064e-10) (9.286569e-11 -4.253440e-06 2.472613e-11)) ((-2.462525e-14 4.144552e-15 6.016077e-13) (5.091350e-12 1.403479e-13 2.269074e-11))
11.808816     	((2.232725e-10 -2.045993e-06 -1.967737e-10) (4.838519e-11 -3.931736e-06 1.240889e-11)) ((-1.948741e-14 5.330917e-15 5.264571e-13) (6.528835e-12 3.559276e-14 1.856331e-11))
14.182579     	((1.379115e-10 -1.893890e-06 -3.322925e-10) (-6.051739e-12 -3.641127e-06 -4.776097e-12)) ((-1.613125e-14 5.411667e-15 4.648176e-13) (9.303940e-12 -4.467459e-14 1.349062e-11))
17.031095     	((5.195104e-11 -1.758437e-06 -4.311092e-10) (-3.242086e-11 -3.377995e-06 -2.204055e-11)) ((-1.663947e-14 5.127199e-15 4.227939e-13) (1.290381e-11 -1.528329e-13 9.439201e-12))
20.449314     	((-1.187882e-10 -1.638509e-06 -5.455285e-10) (-4.493753e-11 -3.139464e-06 -3.845898e-11)) ((-1.393852e-14 4.348025e-15 3.992523e-13) (1.686088e-11 -2.750477e-13 6.466314e-12))
24.551176     	((-3.325912e-10 -1.533319e-06 -7.138505e-10) (-6.535599e-11 -2.923486e-06 -5.595045e-11)) ((-1.089010e-14 1.387521e-15 3.894774e-13) (2.029666e-11 -3.162284e-13 4.577855e-12))
29.473411     	((-4.164444e-10 -1.442902e-06 -7.371773e-10) (-1.002076e-10 -2.728558e-06 -7.766810e-11)) ((-1.009293e-14 -1.011700e-15 3.872704e-13) (2.308738e-11 -2.696145e-13 2.476421e-12))
35.380094     	((-3.416712e-10 -1.366027e-06 -6.047334e-10) (-1.410351e-10 -2.553355e-06 -9.284212e-11)) ((-1.092925e-14 -7.569594e-16 4.000576e-13) (2.547351e-11 -1.656404e-13 -7.582657e-13))
42.468112     	((-4.950441e-10 -1.302416e-06 -6.924354e-10) (-1.737671e-10 -2.396623e-06 -1.028164e-10)) ((-1.291721e-14 -7.279808e-16 4.265815e-13) (2.792930e-11 -2.787441e-14 -4.145740e-12))
50.973735     	((-5.941036e-10 -1.251096e-06 -6.911254e-10) (-1.973707e-10 -2.257120e-06 -1.104222e-10)) ((-1.351917e-14 3.407131e-16 4.617177e-13) (3.097180e-11 7.459436e-14 -8.475865e-12))
61.180482     	((-5.397785e-10 -1.211842e-06 -6.256954e-10) (-2.100581e-10 -2.133609e-06 -1.155765e-10)) ((-1.652389e-14 9.688439e-16 5.054853e-13) (3.483188e-11 1.379157e-13 -1.408579e-11))
73.428578     	((-4.459140e-10 -1.184356e-06 -5.402142e-10) (-2.119640e-10 -2.024985e-06 -1.247311e-10)) ((-1.841723e-14 2.430366e-15 5.539694e-13) (3.926740e-11 1.141825e-13 -1.995129e-11))
88.126294     	((-3.626548e-10 -1.167607e-06 -4.186530e-10) (-2.135342e-10 -1.930285e-06 -1.332371e-10)) ((-1.865911e-14 3.129664e-15 6.076175e-13) (4.369346e-11 1.195410e-13 -2.540318e-11))
105.763553    	((-1.952595e-10 -1.160031e-06 -2.523250e-10) (-2.105938e-10 -1.848682e-06 -1.347642e-10)) ((-1.650242e-14 3.382688e-15 6.675392e-13) (4.745346e-11 1.076000e-13 -3.083944e-11))
126.928263    	((-1.014961e-10 -1.160614e-06 -1.475105e-10) (-2.094410e-10 -1.779469e-06 -1.353299e-10)) ((-1.572379e-14 3.025757e-15 7.348622e-13) (5.032607e-11 1.123928e-13 -3.598437e-11))
152.325916    	((8.548783e-12 -1.168161e-06 -1.568362e-11) (-2.133453e-10 -1.722007e-06 -1.312993e-10)) ((-1.502609e-14 2.516587e-15 8.041460e-13) (5.223016e-11 1.630764e-14 -4.008745e-11))
182.803099    	((1.245360e-10 -1.179993e-06 1.108227e-10) (-2.153591e-10 -1.675333e-06 -1.238013e-10)) ((-1.560963e-14 2.143422e-15 8.687977e-13) (5.272836e-11 -2.313889e-14 -4.238147e-11))
218.496699    	((2.202915e-10 -1.193154e-06 2.207529e-10) (-1.950623e-10 -1.638388e-06 -1.072992e-10)) ((-1.579842e-14 1.681269e-15 9.168384e-13) (5.180773e-11 4.488283e-14 -4.285359e-11))
259.385474    	((3.632062e-10 -1.204035e-06 3.778403e-10) (-1.646098e-10 -1.609185e-06 -7.792791e-11)) ((-1.480351e-14 1.507809e-15 9.492707e-13) (4.981710e-11 8.549335e-14 -4.157954e-11))
305.458902    	((4.860560e-10 -1.211179e-06 5.020629e-10) (-1.260706e-10 -1.585829e-06 -4.031103e-11)) ((-1.368897e-14 1.532792e-15 9.704254e-13) (4.729151e-11 1.287679e-13 -3.945726e-11))
356.719131    	((5.693552e-10 -1.214735e-06 5.833982e-10) (-7.502989e-11 -1.566701e-06 8.724196e-12)) ((-1.234151e-14 1.504288e-15 9.877219e-13) (4.444851e-11 1.654701e-13 -3.684885e-11))
408.672646    	((6.216236e-10 -1.217045e-06 6.297598e-10) (-2.955650e-11 -1.551220e-06 5.198694e-11)) ((-1.007449e-14 1.638751e-15 1.003266e-12) (4.175160e-11 2.165627e-13 -3.439675e-11))
460.708518    	((6.381828e-10 -1.217817e-06 6.432095e-10) (1.553812e-11 -1.538397e-06 9.640404e-11)) ((-8.966141e-15 1.549178e-15 1.015615e-12) (3.890483e-11 2.682235e-13 -3.185513e-11))
512.805569    	((6.226782e-10 -1.218197e-06 6.242745e-10) (4.923321e-11 -1.527851e-06 1.291966e-10)) ((-8.487410e-15 8.273062e-16 1.024234e-12) (3.625798e-11 3.093453e-13 -2.944127e-11))
564.948855    	((5.862952e-10 -1.218292e-06 5.834794e-10) (7.602264e-11 -1.519137e-06 1.548203e-10)) ((-8.176255e-15 1.381813e-16 1.032335e-12) (3.359905e-11 3.297168e-13 -2.701153e-11))
617.131188    	((5.216859e-10 -1.218250e-06 5.238142e-10) (9.370481e-11 -1.511941e-06 1.722700e-10)) ((-8.656409e-15 -7.064650e-16 1.038327e-12) (3.100738e-11 3.376874e-13 -2.459194e-11))
669.347717    	((4.487576e-10 -1.218090e-06 4.472128e-10) (1.026788e-10 -1.505979e-06 1.810165e-10)) ((-8.905559e-15 -1.084842e-15 1.043100e-12) (2.850126e-11 3.475378e-13 -2.222263e-11))
721.593783    	((3.723162e-10 -1.217872e-06 3.699703e-10) (1.044832e-10 -1.501038e-06 1.828018e-10)) ((-9.338376e-15 -1.616793e-15 1.046661e-12) (2.616167e-11 3.527166e-13 -2.001068e-11))
773.864597    	((2.921701e-10 -1.217627e-06 2.881022e-10) (1.008692e-10 -1.496930e-06 1.787629e-10)) ((-9.726612e-15 -2.116711e-15 1.049520e-12) (2.401104e-11 3.562420e-13 -1.795865e-11))
826.15599     	((2.110519e-10 -1.217393e-06 2.075902e-10) (9.429554e-11 -1.493508e-06 1.716295e-10)) ((-1.009929e-14 -2.496496e-15 1.051920e-12) (2.197739e-11 3.624852e-13 -1.600303e-11))
878.464661    	((1.318446e-10 -1.217162e-06 1.271285e-10) (8.414274e-11 -1.490653e-06 1.608558e-10)) ((-1.061283e-14 -2.829154e-15 1.054076e-12) (2.010933e-11 3.690196e-13 -1.420918e-11))
930.787856    	((5.823002e-11 -1.216957e-06 5.282790e-11) (7.184956e-11 -1.488270e-06 1.480579e-10)) ((-1.105880e-14 -3.119220e-15 1.056033e-12) (1.839909e-11 3.768021e-13 -1.256497e-11))
983.123267    	((-1.056303e-11 -1.216764e-06 -1.683838e-11) (5.832438e-11 -1.486276e-06 1.340721e-10)) ((-1.143469e-14 -3.328976e-15 1.057639e-12) (1.684864e-11 3.850181e-13 -1.107029e-11))
1035.468952   	((-7.327740e-11 -1.216595e-06 -7.988728e-11) (4.380041e-11 -1.484608e-06 1.191994e-10)) ((-1.174948e-14 -3.530875e-15 1.058934e-12) (1.547327e-11 3.922007e-13 -9.748943e-12))
1087.823283   	((-1.290674e-10 -1.216438e-06 -1.358492e-10) (2.922228e-11 -1.483209e-06 1.042984e-10)) ((-1.202716e-14 -3.698193e-15 1.059894e-12) (1.424904e-11 3.984752e-13 -8.569512e-12))
1140.184898   	((-1.792261e-10 -1.216300e-06 -1.866548e-10) (1.501205e-11 -1.482034e-06 8.981307e-11)) ((-1.224147e-14 -3.839867e-15 1.060703e-12) (1.316532e-11 4.042062e-13 -7.520933e-12))
1192.552644   	((-2.228961e-10 -1.216180e-06 -2.308188e-10) (1.523419e-12 -1.481048e-06 7.613986e-11)) ((-1.242869e-14 -3.934321e-15 1.061374e-12) (1.220833e-11 4.092550e-13 -6.594270e-12))
1244.925558   	((-2.610181e-10 -1.216072e-06 -2.694105e-10) (-1.103361e-11 -1.480219e-06 6.345987e-11)) ((-1.257037e-14 -4.036220e-15 1.061915e-12) (1.136840e-11 4.132582e-13 -5.780165e-12))
1297.302828   	((-2.939217e-10 -1.215978e-06 -3.024751e-10) (-2.257545e-11 -1.479522e-06 5.185348e-11)) ((-1.268700e-14 -4.120577e-15 1.062366e-12) (1.064002e-11 4.160911e-13 -5.074287e-12))
1349.683771   	((-3.221683e-10 -1.215895e-06 -3.309940e-10) (-3.294662e-11 -1.478934e-06 4.141282e-11)) ((-1.280297e-14 -4.196466e-15 1.062748e-12) (1.000734e-11 4.182213e-13 -4.460159e-12))
1402.067814   	((-3.457887e-10 -1.215824e-06 -3.546744e-10) (-4.216368e-11 -1.478439e-06 3.211916e-11)) ((-1.291538e-14 -4.265619e-15 1.063076e-12) (9.462957e-12 4.199608e-13 -3.930804e-12))
1454.454473   	((-3.655496e-10 -1.215762e-06 -3.746624e-10) (-5.029040e-11 -1.478022e-06 2.390884e-11)) ((-1.299592e-14 -4.321579e-15 1.063353e-12) (8.997932e-12 4.212958e-13 -3.479436e-12))
1506.843342   	((-3.819012e-10 -1.215711e-06 -3.910139e-10) (-5.736022e-11 -1.477670e-06 1.679922e-11)) ((-1.306089e-14 -4.365078e-15 1.063586e-12) (8.601334e-12 4.221312e-13 -3.094970e-12))
1559.234078   	((-3.957540e-10 -1.215663e-06 -4.049349e-10) (-6.345964e-11 -1.477372e-06 1.067319e-11)) ((-1.311865e-14 -4.398795e-15 1.063784e-12) (8.262621e-12 4.224881e-13 -2.766452e-12))
1611.626391   	((-4.070527e-10 -1.215622e-06 -4.162422e-10) (-6.863990e-11 -1.477121e-06 5.483257e-12)) ((-1.316574e-14 -4.426816e-15 1.063951e-12) (7.974771e-12 4.225363e-13 -2.487330e-12))
1664.020037   	((-4.163738e-10 -1.215589e-06 -4.255208e-10) (-7.300035e-11 -1.476909e-06 1.117707e-12)) ((-1.320384e-14 -4.450105e-15 1.064094e-12) (7.731286e-12 4.224275e-13 -2.250987e-12))
1716.41481    	((-4.238958e-10 -1.215560e-06 -4.329182e-10) (-7.663593e-11 -1.476730e-06 -2.528531e-12)) ((-1.323152e-14 -4.469722e-15 1.064213e-12) (7.524500e-12 4.222768e-13 -2.050157e-12))
1768.810537   	((-4.303404e-10 -1.215536e-06 -4.393871e-10) (-7.965908e-11 -1.476578e-06 -5.551693e-12)) ((-1.325469e-14 -4.486532e-15 1.064313e-12) (7.348934e-12 4.221381e-13 -1.879949e-12))
1821.20707    	((-4.357662e-10 -1.215514e-06 -4.448671e-10) (-8.216531e-11 -1.476450e-06 -8.056076e-12)) ((-1.327848e-14 -4.499809e-15 1.064396e-12) (7.200157e-12 4.220345e-13 -1.735377e-12))
1873.604285   	((-4.403208e-10 -1.215496e-06 -4.495080e-10) (-8.424030e-11 -1.476341e-06 -1.012269e-11)) ((-1.329726e-14 -4.511843e-15 1.064469e-12) (7.074205e-12 4.219697e-13 -1.612954e-12))
1926.002078   	((-4.442047e-10 -1.215479e-06 -4.534095e-10) (-8.595921e-11 -1.476249e-06 -1.183347e-11)) ((-1.331485e-14 -4.522155e-15 1.064529e-12) (6.967501e-12 4.219324e-13 -1.509174e-12))
1978.400358   	((-4.473387e-10 -1.215467e-06 -4.565040e-10) (-8.738636e-11 -1.476172e-06 -1.325322e-11)) ((-1.332993e-14 -4.529751e-15 1.064583e-12) (6.876812e-12 4.219219e-13 -1.421022e-12))
2030.799052   	((-4.501193e-10 -1.215456e-06 -4.593174e-10) (-8.857472e-11 -1.476106e-06 -1.443525e-11)) ((-1.334414e-14 -4.535776e-15 1.064628e-12) (6.799919e-12 4.219253e-13 -1.346105e-12))
2083.198097   	((-4.525775e-10 -1.215446e-06 -4.617862e-10) (-8.956800e-11 -1.476050e-06 -1.542691e-11)) ((-1.335345e-14 -4.540227e-15 1.064666e-12) (6.734592e-12 4.219261e-13 -1.282185e-12))
2135.597438   	((-4.547452e-10 -1.215437e-06 -4.639864e-10) (-9.040772e-11 -1.476003e-06 -1.626772e-11)) ((-1.336499e-14 -4.544480e-15 1.064697e-12) (6.678956e-12 4.219284e-13 -1.227584e-12))
2187.99703    	((-4.566189e-10 -1.215430e-06 -4.658646e-10) (-9.112137e-11 -1.475963e-06 -1.698245e-11)) ((-1.337673e-14 -4.548142e-15 1.064724e-12) (6.631481e-12 4.219366e-13 -1.180918e-12))
2240.396834   	((-4.582732e-10 -1.215424e-06 -4.675253e-10) (-9.173343e-11 -1.475930e-06 -1.759406e-11)) ((-1.338487e-14 -4.551395e-15 1.064746e-12) (6.590818e-12 4.219451e-13 -1.140941e-12))
2292.796818   	((-4.598587e-10 -1.215417e-06 -4.692661e-10) (-9.226501e-11 -1.475901e-06 -1.812664e-11)) ((-1.339165e-14 -4.555129e-15 1.064765e-12) (6.555939e-12 4.219612e-13 -1.106666e-12))
2345.196955   	((-4.610920e-10 -1.215414e-06 -4.703703e-10) (-9.272306e-11 -1.475877e-06 -1.857980e-11)) ((-1.339792e-14 -4.557132e-15 1.064782e-12) (6.526076e-12 4.219750e-13 -1.077284e-12))
2397.597221   	((-4.620552e-10 -1.215411e-06 -4.712764e-10) (-9.312147e-11 -1.475856e-06 -1.897661e-11)) ((-1.340343e-14 -4.558016e-15 1.064796e-12) (6.500554e-12 4.219913e-13 -1.052126e-12))
2449.997596   	((-4.630058e-10 -1.215408e-06 -4.722334e-10) (-9.347226e-11 -1.475839e-06 -1.932622e-11)) ((-1.340758e-14 -4.559493e-15 1.064808e-12) (6.478671e-12 4.220044e-13 -1.030544e-12))
2502.398064   	((-4.638491e-10 -1.215405e-06 -4.730327e-10) (-9.377794e-11 -1.475824e-06 -1.963112e-11)) ((-1.341142e-14 -4.561226e-15 1.064818e-12) (6.459945e-12 4.220149e-13 -1.012057e-12))
2554.798611   	((-4.645617e-10 -1.215403e-06 -4.738010e-10) (-9.404736e-11 -1.475812e-06 -1.989940e-11)) ((-1.341497e-14 -4.561967e-15 1.064827e-12) (6.443989e-12 4.220291e-13 -9.963223e-13))
2607.199224   	((-4.653298e-10 -1.215401e-06 -4.746964e-10) (-9.428388e-11 -1.475801e-06 -2.013349e-11)) ((-1.341680e-14 -4.562759e-15 1.064833e-12) (6.430344e-12 4.220443e-13 -9.828532e-13))
2659.599893   	((-4.658243e-10 -1.215399e-06 -4.749363e-10) (-9.448773e-11 -1.475792e-06 -2.032650e-11)) ((-1.342018e-14 -4.563205e-15 1.064842e-12) (6.418669e-12 4.220553e-13 -9.712941e-13))
2712.000609   	((-4.661161e-10 -1.215398e-06 -4.752955e-10) (-9.465655e-11 -1.475785e-06 -2.049599e-11)) ((-1.342220e-14 -4.564864e-15 1.064846e-12) (6.408744e-12 4.220570e-13 -9.614107e-13))
2764.401366   	((-4.664750e-10 -1.215397e-06 -4.756765e-10) (-9.480684e-11 -1.475778e-06 -2.064621e-11)) ((-1.342323e-14 -4.565645e-15 1.064850e-12) (6.400188e-12 4.220612e-13 -9.529659e-13))
2816.802157   	((-4.667660e-10 -1.215396e-06 -4.759978e-10) (-9.493869e-11 -1.475773e-06 -2.077994e-11)) ((-1.342440e-14 -4.565632e-15 1.064854e-12) (6.392939e-12 4.220661e-13 -9.457708e-13))
2869.202977   	((-4.670935e-10 -1.215395e-06 -4.762908e-10) (-9.505249e-11 -1.475768e-06 -2.089497e-11)) ((-1.342586e-14 -4.566270e-15 1.064857e-12) (6.386791e-12 4.220650e-13 -9.396546e-13))
