# Forces      
# CofR        : (0.000000e+00 0.000000e+00 0.000000e+00)
# Time        forces(pressure viscous)	moments(pressure viscous)
0             	((0.000000e+00 0.000000e+00 0.000000e+00) (-2.545886e-03 3.370399e-13 -1.495525e-13)) ((0.000000e+00 0.000000e+00 0.000000e+00) (1.275909e-16 2.030921e-14 3.526179e-14))
0.012         	((-7.371089e-01 -1.342167e-06 -1.298180e-06) (-2.912427e-03 -1.506035e-09 -1.777539e-09)) ((-7.730314e-12 1.215344e-10 9.595233e-11) (1.323453e-13 7.108595e-12 -2.959207e-11))
0.0264        	((9.024016e-02 -5.154276e-06 7.217939e-06) (-2.934420e-03 -8.421068e-09 -1.942704e-10)) ((3.417390e-11 7.782199e-10 2.239859e-10) (-1.333518e-13 1.724915e-10 -1.639458e-10))
0.04368       	((1.328382e-01 1.750314e-05 5.640911e-06) (-2.569250e-03 3.311788e-09 6.852896e-09)) ((-1.519107e-10 -6.255867e-10 -6.655121e-10) (-4.167750e-12 1.852044e-10 -1.502990e-10))
0.064416      	((7.259065e-04 -4.965545e-06 -5.346442e-06) (-2.262661e-03 6.936586e-09 3.205146e-09)) ((7.847034e-11 4.915337e-11 1.653642e-10) (1.051465e-11 1.299001e-10 -1.899285e-10))
0.0892992     	((6.295452e-04 -2.936624e-06 -2.267892e-06) (-2.081687e-03 -2.060669e-08 -1.578012e-08)) ((-1.055452e-12 3.871999e-11 1.394850e-10) (2.976549e-11 3.591072e-10 -2.653136e-10))
0.119159      	((1.895827e-03 -5.023075e-07 -6.022273e-07) (-1.926273e-03 -3.923568e-08 -2.874965e-08)) ((2.463138e-11 -1.739088e-11 4.530210e-11) (2.911822e-11 5.040525e-10 -2.525295e-10))
0.154991      	((3.324605e-04 -5.665405e-07 -4.239322e-07) (-1.773688e-03 -3.730739e-08 -2.801230e-08)) ((1.218333e-11 -8.701331e-11 -8.196318e-13) (1.259619e-11 4.558466e-10 -3.482539e-10))
0.197989      	((-1.757352e-04 -8.891719e-07 -7.668592e-07) (-1.632545e-03 -2.777520e-08 -2.300872e-08)) ((1.654974e-11 -8.001173e-11 1.416036e-11) (-1.138032e-12 4.100067e-10 -3.593147e-10))
0.249587      	((-3.751391e-04 -2.322736e-07 -2.936220e-07) (-1.507223e-03 -1.969641e-08 -2.174176e-08)) ((1.013918e-11 -7.641011e-12 5.204590e-12) (-8.232699e-12 3.754680e-10 -3.230653e-10))
0.311504      	((-5.024918e-04 -2.279331e-07 -2.122093e-07) (-1.397797e-03 -1.933283e-08 -2.168063e-08)) ((5.408322e-12 -8.654587e-12 2.805127e-12) (-1.988166e-11 3.445428e-10 -2.716718e-10))
0.385805      	((-5.741592e-04 -6.964297e-08 -1.198266e-07) (-1.301198e-03 -1.630868e-08 -1.843419e-08)) ((1.768329e-12 -1.862566e-12 -3.240267e-12) (-1.926601e-11 3.298801e-10 -2.714215e-10))
0.474966      	((-6.117730e-04 1.967286e-08 -3.756120e-08) (-1.212658e-03 -9.666668e-09 -1.618201e-08)) ((7.615009e-12 -4.901909e-13 -4.013931e-12) (-1.496725e-11 2.840416e-10 -2.097999e-10))
0.581959      	((-6.276186e-04 5.721231e-08 -5.862589e-09) (-1.127372e-03 -6.379768e-09 -1.519842e-08)) ((7.450197e-12 2.108152e-12 -6.811779e-12) (-3.697046e-12 1.872209e-10 -9.927439e-11))
0.710351      	((-6.351706e-04 4.369367e-08 5.812008e-09) (-1.044041e-03 -5.413195e-09 -9.310842e-09)) ((1.097049e-12 3.977272e-12 -5.394714e-12) (1.255348e-11 5.741392e-11 -1.866049e-11))
0.864421      	((-6.436090e-04 5.398586e-08 2.572715e-08) (-9.643365e-04 -5.490132e-09 -5.534759e-09)) ((-2.436090e-12 5.177944e-12 -2.538356e-12) (1.248561e-11 -7.892132e-11 3.688959e-11))
1.049306      	((-6.616819e-04 2.272809e-08 -1.700947e-08) (-8.899673e-04 -4.947475e-09 -7.572535e-09)) ((-1.220758e-12 6.709480e-12 -1.354663e-12) (6.148079e-12 -1.442433e-10 1.007503e-10))
1.271167      	((-6.943461e-04 -5.683071e-08 -9.556407e-08) (-8.219845e-04 -5.320658e-09 -8.653176e-09)) ((6.277841e-14 8.653289e-12 -1.898186e-12) (2.913024e-12 -1.417934e-10 1.447327e-10))
1.5374        	((-7.438611e-04 -1.222054e-07 -1.039970e-07) (-7.609342e-04 -9.510107e-09 -7.333180e-09)) ((1.511070e-14 1.355314e-11 -3.148424e-12) (-1.827335e-12 -1.454577e-10 1.861243e-10))
1.85688       	((-8.151460e-04 -1.960581e-07 -1.939624e-07) (-7.072762e-04 -1.290587e-08 -8.876428e-09)) ((-6.952396e-13 1.593583e-11 -3.185436e-12) (-6.735614e-12 -2.151026e-10 2.890891e-10))
2.23965       	((-9.111471e-04 -1.562885e-07 -1.974702e-07) (-6.611001e-04 -1.510071e-08 -1.213398e-08)) ((-1.970161e-13 1.601107e-11 -3.504611e-12) (-5.406409e-12 -2.268272e-10 3.503821e-10))
2.685161      	((-1.033037e-03 -8.137927e-08 -9.495841e-08) (-6.228164e-04 -1.738401e-08 -1.317180e-08)) ((-7.669990e-13 1.159538e-11 -2.911851e-12) (5.554749e-12 -1.717797e-10 3.348903e-10))
3.192947      	((-1.177996e-03 6.755812e-08 5.261535e-08) (-5.914244e-04 -1.697299e-08 -1.424283e-08)) ((-7.645448e-13 8.327033e-12 -1.798503e-12) (1.854111e-11 -1.247569e-10 3.321215e-10))
3.762448      	((-1.343975e-03 1.611145e-07 1.462361e-07) (-5.657696e-04 -1.775272e-08 -1.516613e-08)) ((1.981670e-12 4.214782e-12 -2.570963e-12) (1.993808e-11 -1.733551e-10 4.181132e-10))
4.372315      	((-1.526858e-03 3.172745e-07 2.754998e-07) (-5.454411e-04 -1.877468e-08 -1.699000e-08)) ((8.731492e-12 1.602460e-12 -4.810213e-12) (1.064056e-11 -4.959309e-10 6.936697e-10))
4.973502      	((-1.705862e-03 5.137771e-07 4.925734e-07) (-5.304868e-04 -1.996758e-08 -2.024849e-08)) ((1.189128e-11 1.263206e-12 -7.942653e-12) (-3.063693e-12 -1.072051e-09 1.198091e-09))
5.565754      	((-1.871455e-03 8.197953e-07 7.901789e-07) (-5.192475e-04 -1.645263e-08 -1.594718e-08)) ((1.600841e-11 3.602728e-12 -1.116096e-11) (2.557341e-11 -1.460537e-09 1.517694e-09))
6.150572      	((-2.013443e-03 1.175176e-06 1.162599e-06) (-5.108103e-04 -4.618881e-10 -1.383271e-10)) ((1.502502e-11 7.976532e-13 -1.262606e-11) (7.445124e-12 -1.328379e-09 1.352395e-09))
6.73105       	((-2.119852e-03 1.555617e-06 1.548940e-06) (-5.040756e-04 2.849463e-08 2.797355e-08)) ((1.617427e-11 -2.736073e-12 -9.079028e-12) (3.887583e-12 -8.223732e-10 8.111636e-10))
7.310125      	((-2.191259e-03 2.012576e-06 2.034306e-06) (-4.982504e-04 6.144395e-08 6.335168e-08)) ((1.156799e-11 -4.255558e-12 -9.240068e-12) (2.931088e-11 -1.988110e-10 2.190413e-10))
7.88912       	((-2.224699e-03 2.392855e-06 2.374457e-06) (-4.926300e-04 8.898589e-08 9.211546e-08)) ((2.076408e-11 -8.339869e-12 -3.444258e-12) (2.177819e-11 1.084050e-10 -4.100464e-11))
8.467663      	((-2.217390e-03 2.618147e-06 2.548984e-06) (-4.871830e-04 1.082321e-07 1.101446e-07)) ((2.206862e-11 -1.701034e-11 5.910806e-12) (9.340071e-12 -7.516379e-11 1.089806e-10))
9.044762      	((-2.185798e-03 2.920159e-06 2.884094e-06) (-4.819274e-04 1.228138e-07 1.227147e-07)) ((1.909647e-11 -1.986727e-11 4.059412e-12) (-8.145922e-12 -5.230586e-10 4.803447e-10))
9.619997      	((-2.147756e-03 3.495835e-06 3.403827e-06) (-4.771644e-04 1.472088e-07 1.462015e-07)) ((9.573708e-12 -1.951419e-11 -3.888199e-13) (6.013474e-12 -8.245604e-10 7.431483e-10))
10.193613     	((-2.105765e-03 3.880297e-06 3.859750e-06) (-4.730479e-04 1.794077e-07 1.814121e-07)) ((5.350209e-13 -2.132169e-11 -4.185368e-12) (1.028692e-11 -9.333098e-10 8.225727e-10))
10.766158     	((-2.073338e-03 4.326274e-06 4.276555e-06) (-4.693322e-04 2.155314e-07 2.170902e-07)) ((3.157970e-12 -2.256826e-11 -6.585683e-12) (8.570610e-12 -1.021438e-09 8.126772e-10))
11.33799      	((-2.055783e-03 4.747386e-06 4.802623e-06) (-4.660636e-04 2.437853e-07 2.453168e-07)) ((7.909143e-12 -2.250412e-11 -1.471169e-11) (-8.326881e-11 -1.163545e-09 9.281971e-10))
11.909203     	((-2.051476e-03 5.068204e-06 5.149794e-06) (-4.632670e-04 2.695805e-07 2.714707e-07)) ((1.373035e-11 -2.108560e-11 -1.794285e-11) (-1.605824e-10 -1.438870e-09 9.999289e-10))
12.479841     	((-2.051781e-03 5.344445e-06 5.387026e-06) (-4.608226e-04 2.913705e-07 2.945247e-07)) ((1.946378e-11 -2.591621e-11 -1.607780e-11) (-1.600682e-10 -1.703432e-09 1.388060e-09))
13.049992     	((-2.045928e-03 5.717215e-06 5.715594e-06) (-4.585475e-04 3.082501e-07 3.107564e-07)) ((1.877422e-11 -2.632687e-11 -1.502314e-11) (-1.043470e-10 -2.140258e-09 2.063150e-09))
13.619739     	((-2.030787e-03 6.506496e-06 6.598698e-06) (-4.562324e-04 3.282191e-07 3.310515e-07)) ((1.020292e-11 -3.025124e-11 -1.572427e-11) (-6.820391e-11 -3.000413e-09 2.943367e-09))
14.189149     	((-2.011687e-03 7.191690e-06 7.260689e-06) (-4.538104e-04 3.518461e-07 3.579145e-07)) ((1.602993e-12 -3.476686e-11 -1.820722e-11) (-9.337982e-11 -3.947269e-09 4.150703e-09))
14.758322     	((-1.991844e-03 8.058330e-06 8.046482e-06) (-4.513370e-04 3.788845e-07 3.891915e-07)) ((-3.115088e-13 -4.072150e-11 -2.114112e-11) (-1.144609e-10 -4.859001e-09 5.507704e-09))
15.327366     	((-1.973453e-03 8.903779e-06 8.840076e-06) (-4.488843e-04 4.113247e-07 4.232466e-07)) ((1.294010e-12 -4.284583e-11 -2.173907e-11) (-1.073197e-10 -5.940686e-09 6.856978e-09))
15.89633      	((-1.958697e-03 1.010699e-05 9.785039e-06) (-4.465303e-04 4.537350e-07 4.620681e-07)) ((5.018421e-12 -5.071609e-11 -1.970303e-11) (-8.824348e-11 -7.226406e-09 8.196543e-09))
16.465119     	((-1.946749e-03 1.096900e-05 1.096760e-05) (-4.442957e-04 4.984986e-07 5.053239e-07)) ((7.619280e-12 -6.092919e-11 -1.383237e-11) (-9.828110e-11 -8.787359e-09 9.651047e-09))
17.033623     	((-1.937870e-03 1.227660e-05 1.202173e-05) (-4.421791e-04 5.473058e-07 5.510714e-07)) ((5.717143e-12 -6.630323e-11 -6.350942e-12) (-1.634654e-10 -1.053019e-08 1.118789e-08))
17.60192      	((-1.930254e-03 1.305572e-05 1.310246e-05) (-4.401710e-04 5.951286e-07 6.009255e-07)) ((3.119789e-13 -6.722372e-11 -4.218312e-12) (-2.289960e-10 -1.215957e-08 1.273620e-08))
18.170074     	((-1.924046e-03 1.408370e-05 1.434545e-05) (-4.382833e-04 6.427333e-07 6.571671e-07)) ((-1.020867e-11 -7.090893e-11 -3.233989e-12) (-2.304145e-10 -1.377179e-08 1.433586e-08))
18.738099     	((-1.917938e-03 1.517571e-05 1.554979e-05) (-4.365197e-04 6.958319e-07 7.161615e-07)) ((-2.374928e-11 -7.255266e-11 -4.702662e-12) (-2.244620e-10 -1.550064e-08 1.590076e-08))
19.306017     	((-1.912639e-03 1.651740e-05 1.680700e-05) (-4.348754e-04 7.538838e-07 7.776928e-07)) ((-3.654987e-11 -7.351770e-11 -6.628157e-12) (-2.607282e-10 -1.714628e-08 1.743228e-08))
19.873848     	((-1.906428e-03 1.778178e-05 1.815672e-05) (-4.333378e-04 8.162282e-07 8.433991e-07)) ((-4.243578e-11 -7.422002e-11 -1.165631e-11) (-2.624733e-10 -1.871252e-08 1.889042e-08))
20.441618     	((-1.900170e-03 1.909408e-05 1.946702e-05) (-4.319053e-04 8.875507e-07 9.088564e-07)) ((-4.393901e-11 -7.185636e-11 -1.636991e-11) (-1.651037e-10 -2.035767e-08 2.021914e-08))
21.009361     	((-1.893812e-03 2.071725e-05 2.122504e-05) (-4.305795e-04 9.709163e-07 9.840985e-07)) ((-4.168317e-11 -7.644645e-11 -2.049251e-11) (-4.467307e-11 -2.201077e-08 2.140076e-08))
21.57718      	((-1.884431e-03 2.233293e-05 2.295921e-05) (-4.292796e-04 1.061163e-06 1.077790e-06)) ((-3.931358e-11 -8.875485e-11 -2.198130e-11) (3.340311e-11 -2.331928e-08 2.262361e-08))
22.145071     	((-1.875628e-03 2.431274e-05 2.493925e-05) (-4.279738e-04 1.159490e-06 1.185838e-06)) ((-3.908219e-11 -9.443303e-11 -2.626278e-11) (5.585442e-11 -2.446920e-08 2.402629e-08))
22.713016     	((-1.868756e-03 2.591050e-05 2.662944e-05) (-4.267014e-04 1.264055e-06 1.295460e-06)) ((-3.967654e-11 -9.916468e-11 -3.108475e-11) (1.653594e-12 -2.589811e-08 2.539598e-08))
23.281003     	((-1.861453e-03 2.788314e-05 2.858722e-05) (-4.254533e-04 1.377093e-06 1.408215e-06)) ((-3.975507e-11 -1.071774e-10 -3.362417e-11) (-5.335742e-11 -2.738918e-08 2.675280e-08))
23.848977     	((-1.854040e-03 3.007776e-05 3.061954e-05) (-4.242064e-04 1.501351e-06 1.530325e-06)) ((-4.078032e-11 -1.162411e-10 -3.590513e-11) (-6.886641e-11 -2.876214e-08 2.814142e-08))
24.416702     	((-1.848059e-03 3.257155e-05 3.303936e-05) (-4.229821e-04 1.638559e-06 1.664236e-06)) ((-3.977471e-11 -1.291121e-10 -3.587703e-11) (-7.038553e-11 -2.997920e-08 2.955030e-08))
24.984113     	((-1.843340e-03 3.499268e-05 3.561754e-05) (-4.218106e-04 1.783628e-06 1.808862e-06)) ((-4.023334e-11 -1.448501e-10 -3.369673e-11) (-6.653386e-11 -3.117028e-08 3.101181e-08))
25.551285     	((-1.838983e-03 3.743242e-05 3.812577e-05) (-4.207028e-04 1.932204e-06 1.959988e-06)) ((-4.154050e-11 -1.585224e-10 -3.052619e-11) (-5.128932e-11 -3.256584e-08 3.259390e-08))
26.118256     	((-1.834340e-03 4.023045e-05 4.108671e-05) (-4.196505e-04 2.089110e-06 2.123144e-06)) ((-4.512250e-11 -1.780904e-10 -2.596712e-11) (-3.550007e-11 -3.417173e-08 3.436988e-08))
26.685067     	((-1.828973e-03 4.340530e-05 4.449832e-05) (-4.186349e-04 2.259346e-06 2.306581e-06)) ((-5.064806e-11 -2.012337e-10 -2.118965e-11) (-5.137084e-11 -3.593071e-08 3.640476e-08))
27.251748     	((-1.823110e-03 4.693341e-05 4.816727e-05) (-4.176375e-04 2.449910e-06 2.511074e-06)) ((-5.568183e-11 -2.235235e-10 -1.772606e-11) (-8.680743e-11 -3.782732e-08 3.847618e-08))
27.818324     	((-1.817321e-03 5.090437e-05 5.226119e-05) (-4.166486e-04 2.666138e-06 2.739031e-06)) ((-5.818332e-11 -2.480882e-10 -1.685152e-11) (-1.199298e-10 -3.982021e-08 4.047938e-08))
28.384813     	((-1.811457e-03 5.526622e-05 5.683848e-05) (-4.156632e-04 2.906957e-06 2.991007e-06)) ((-5.966448e-11 -2.742657e-10 -1.552121e-11) (-1.334626e-10 -4.209297e-08 4.256007e-08))
28.951227     	((-1.805982e-03 6.007674e-05 6.197329e-05) (-4.146920e-04 3.167420e-06 3.265545e-06)) ((-6.130749e-11 -3.040020e-10 -1.298532e-11) (-1.507164e-10 -4.492128e-08 4.499034e-08))
29.517577     	((-1.800263e-03 6.539079e-05 6.760040e-05) (-4.137415e-04 3.447467e-06 3.561860e-06)) ((-6.399088e-11 -3.350370e-10 -9.266830e-12) (-1.615997e-10 -4.847902e-08 4.799409e-08))
30.08387      	((-1.794777e-03 7.122366e-05 7.374926e-05) (-4.128134e-04 3.753687e-06 3.885765e-06)) ((-6.516616e-11 -3.657732e-10 -5.913359e-12) (-1.368381e-10 -5.262343e-08 5.149583e-08))
30.650104     	((-1.789962e-03 7.726839e-05 8.018539e-05) (-4.119143e-04 4.088700e-06 4.240209e-06)) ((-6.300498e-11 -3.900810e-10 -4.994310e-12) (-8.893036e-11 -5.712026e-08 5.531377e-08))
31.216305     	((-1.786024e-03 8.376407e-05 8.723503e-05) (-4.110495e-04 4.452827e-06 4.625759e-06)) ((-5.607180e-11 -4.122116e-10 -6.577325e-12) (-4.183896e-11 -6.205920e-08 5.946087e-08))
31.78247      	((-1.783083e-03 9.065045e-05 9.438037e-05) (-4.102280e-04 4.843964e-06 5.037938e-06)) ((-4.692219e-11 -4.343028e-10 -7.715863e-12) (-1.860513e-11 -6.746959e-08 6.406165e-08))
32.34859      	((-1.780218e-03 9.805643e-05 1.020253e-04) (-4.094432e-04 5.262603e-06 5.475947e-06)) ((-3.308295e-11 -4.617889e-10 -7.999677e-12) (-3.869106e-11 -7.332006e-08 6.913394e-08))
32.914658     	((-1.777291e-03 1.060854e-04 1.102911e-04) (-4.086856e-04 5.713342e-06 5.945452e-06)) ((-1.577123e-11 -4.953058e-10 -7.230738e-12) (-7.512175e-11 -7.954599e-08 7.461278e-08))
33.480669     	((-1.774338e-03 1.147030e-04 1.192700e-04) (-4.079516e-04 6.200891e-06 6.453408e-06)) ((4.322394e-12 -5.337724e-10 -5.174315e-12) (-9.511626e-11 -8.602721e-08 8.039549e-08))
34.046615     	((-1.771242e-03 1.240630e-04 1.290283e-04) (-4.072364e-04 6.732481e-06 7.007202e-06)) ((2.504907e-11 -5.779040e-10 -2.910694e-12) (-7.898044e-11 -9.266866e-08 8.637941e-08))
34.612488     	((-1.768533e-03 1.341607e-04 1.396463e-04) (-4.065438e-04 7.312987e-06 7.613283e-06)) ((4.756773e-11 -6.246230e-10 -2.572777e-12) (-1.031753e-10 -9.946894e-08 9.245734e-08))
35.178278     	((-1.766076e-03 1.451333e-04 1.509866e-04) (-4.058752e-04 7.947381e-06 8.270208e-06)) ((7.053880e-11 -6.728016e-10 -3.406399e-12) (-1.689674e-10 -1.066406e-07 9.869435e-08))
35.743975     	((-1.763952e-03 1.570242e-04 1.633329e-04) (-4.052311e-04 8.639136e-06 8.978788e-06)) ((9.782705e-11 -7.263191e-10 -5.135863e-12) (-2.076597e-10 -1.143276e-07 1.052285e-07))
36.309566     	((-1.762082e-03 1.699836e-04 1.767737e-04) (-4.046142e-04 9.392725e-06 9.745579e-06)) ((1.282751e-10 -7.833102e-10 -6.771432e-12) (-1.794238e-10 -1.224831e-07 1.121016e-07))
36.875046     	((-1.760993e-03 1.839120e-04 1.912943e-04) (-4.040385e-04 1.021080e-05 1.058216e-05)) ((1.622352e-10 -8.432994e-10 -8.725356e-12) (-1.388672e-10 -1.307952e-07 1.193865e-07))
37.44042      	((-1.760256e-03 1.990949e-04 2.070349e-04) (-4.035139e-04 1.109610e-05 1.149553e-05)) ((1.981047e-10 -9.058940e-10 -1.079161e-11) (-1.558000e-10 -1.391526e-07 1.271645e-07))
38.005685     	((-1.760078e-03 2.156787e-04 2.242134e-04) (-4.030451e-04 1.205760e-05 1.249072e-05)) ((2.344642e-10 -9.740671e-10 -1.221150e-11) (-1.220424e-10 -1.476978e-07 1.355415e-07))
38.570824     	((-1.760356e-03 2.337464e-04 2.430075e-04) (-4.026317e-04 1.310437e-05 1.357583e-05)) ((2.722375e-10 -1.052343e-09 -1.311883e-11) (3.176842e-11 -1.565649e-07 1.445377e-07))
39.135802     	((-1.761029e-03 2.536524e-04 2.635709e-04) (-4.022716e-04 1.425145e-05 1.476399e-05)) ((3.123843e-10 -1.141977e-09 -1.407034e-11) (3.071526e-10 -1.658493e-07 1.540695e-07))
39.700578     	((-1.762309e-03 2.751350e-04 2.860705e-04) (-4.019689e-04 1.550937e-05 1.607167e-05)) ((3.531073e-10 -1.242119e-09 -1.653253e-11) (6.213923e-10 -1.753757e-07 1.639010e-07))
40.265125     	((-1.764180e-03 2.984847e-04 3.102764e-04) (-4.017181e-04 1.688678e-05 1.750658e-05)) ((3.940417e-10 -1.348578e-09 -1.937718e-11) (7.771506e-10 -1.852235e-07 1.741273e-07))
40.829417     	((-1.766712e-03 3.238837e-04 3.365996e-04) (-4.015098e-04 1.839036e-05 1.907255e-05)) ((4.393015e-10 -1.464404e-09 -2.211154e-11) (7.763041e-10 -1.960994e-07 1.853409e-07))
41.393431     	((-1.770278e-03 3.514633e-04 3.653758e-04) (-4.013482e-04 2.002719e-05 2.077589e-05)) ((4.938641e-10 -1.595515e-09 -2.609353e-11) (7.340315e-10 -2.085331e-07 1.978511e-07))
41.957144     	((-1.775263e-03 3.815833e-04 3.966226e-04) (-4.012513e-04 2.180748e-05 2.262667e-05)) ((5.622060e-10 -1.736246e-09 -2.910769e-11) (5.648596e-10 -2.225845e-07 2.117918e-07))
42.52056      	((-1.781484e-03 4.140310e-04 4.307862e-04) (-4.012327e-04 2.373652e-05 2.464217e-05)) ((6.463221e-10 -1.892253e-09 -2.868530e-11) (2.261429e-10 -2.382781e-07 2.273054e-07))
43.083671     	((-1.789455e-03 4.492814e-04 4.678236e-04) (-4.013068e-04 2.582972e-05 2.683963e-05)) ((7.473102e-10 -2.061199e-09 -2.726063e-11) (-1.964057e-10 -2.552953e-07 2.442319e-07))
43.646462     	((-1.799410e-03 4.869743e-04 5.075235e-04) (-4.014902e-04 2.808795e-05 2.921950e-05)) ((8.668990e-10 -2.229537e-09 -2.906381e-11) (-6.317019e-10 -2.740838e-07 2.628760e-07))
44.208957     	((-1.811750e-03 5.274533e-04 5.501665e-04) (-4.018046e-04 3.051235e-05 3.177978e-05)) ((1.003942e-09 -2.407774e-09 -3.722599e-11) (-1.086382e-09 -2.951153e-07 2.835017e-07))
44.771182     	((-1.826761e-03 5.714786e-04 5.963227e-04) (-4.022931e-04 3.313612e-05 3.455224e-05)) ((1.167314e-09 -2.606273e-09 -4.943972e-11) (-1.519898e-09 -3.172689e-07 3.052378e-07))
45.333164     	((-1.844817e-03 6.182066e-04 6.455392e-04) (-4.029990e-04 3.598699e-05 3.756092e-05)) ((1.357879e-09 -2.816535e-09 -5.641811e-11) (-1.827530e-09 -3.399120e-07 3.271499e-07))
45.894942     	((-1.865699e-03 6.672497e-04 6.972079e-04) (-4.039284e-04 3.905467e-05 4.079252e-05)) ((1.576793e-09 -3.034952e-09 -5.456116e-11) (-2.064246e-09 -3.642101e-07 3.502364e-07))
46.456408     	((-1.890329e-03 7.193132e-04 7.523357e-04) (-4.050549e-04 4.232973e-05 4.424107e-05)) ((1.826193e-09 -3.260907e-09 -4.444341e-11) (-2.218063e-09 -3.914952e-07 3.758728e-07))
47.017302     	((-1.919278e-03 7.735090e-04 8.098175e-04) (-4.064020e-04 4.579508e-05 4.790772e-05)) ((2.101160e-09 -3.472707e-09 -2.911907e-11) (-2.403611e-09 -4.216067e-07 4.042045e-07))
47.577552     	((-1.952610e-03 8.307439e-04 8.702922e-04) (-4.080256e-04 4.947670e-05 5.180667e-05)) ((2.410885e-09 -3.670003e-09 -1.035395e-11) (-2.717705e-09 -4.530055e-07 4.336996e-07))
48.137148     	((-1.990650e-03 8.903279e-04 9.334181e-04) (-4.099761e-04 5.339050e-05 5.595158e-05)) ((2.745284e-09 -3.851868e-09 4.715549e-12) (-2.934354e-09 -4.846767e-07 4.634717e-07))
48.69607      	((-2.034659e-03 9.528049e-04 9.994359e-04) (-4.123056e-04 5.756444e-05 6.037057e-05)) ((3.108099e-09 -4.027170e-09 1.904696e-11) (-2.914862e-09 -5.148950e-07 4.919840e-07))
49.254322     	((-2.084732e-03 1.016812e-03 1.066902e-03) (-4.150903e-04 6.204045e-05 6.509062e-05)) ((3.497790e-09 -4.181039e-09 3.572221e-11) (-2.598728e-09 -5.398429e-07 5.154637e-07))
49.811947     	((-2.139682e-03 1.081560e-03 1.135269e-03) (-4.183031e-04 6.678235e-05 7.008405e-05)) ((3.917590e-09 -4.299852e-09 5.878460e-11) (-2.067951e-09 -5.602996e-07 5.350485e-07))
50.368702     	((-2.201735e-03 1.147187e-03 1.203807e-03) (-4.219198e-04 7.172598e-05 7.527458e-05)) ((4.348638e-09 -4.371844e-09 9.577232e-11) (-1.549056e-09 -5.804882e-07 5.546521e-07))
50.924566     	((-2.271548e-03 1.212052e-03 1.271323e-03) (-4.260331e-04 7.678927e-05 8.057158e-05)) ((4.778689e-09 -4.405618e-09 1.572206e-10) (-1.361720e-09 -6.021419e-07 5.751892e-07))
51.479601     	((-2.345943e-03 1.275194e-03 1.337172e-03) (-4.306863e-04 8.192324e-05 8.593547e-05)) ((5.196508e-09 -4.423260e-09 2.553417e-10) (-1.262756e-09 -6.232061e-07 5.947986e-07))
52.033797     	((-2.424047e-03 1.334789e-03 1.398811e-03) (-4.358322e-04 8.706929e-05 9.130137e-05)) ((5.588258e-09 -4.390734e-09 3.821225e-10) (-7.823291e-10 -6.433261e-07 6.138546e-07))
52.587147     	((-2.504797e-03 1.388564e-03 1.454717e-03) (-4.414149e-04 9.213706e-05 9.658621e-05)) ((5.942836e-09 -4.317667e-09 5.475357e-10) (-1.494665e-12 -6.618726e-07 6.319695e-07))
53.139633     	((-2.586569e-03 1.434877e-03 1.502361e-03) (-4.473692e-04 9.707321e-05 1.017484e-04)) ((6.243921e-09 -4.211738e-09 7.341233e-10) (7.570544e-10 -6.735428e-07 6.442801e-07))
53.691237     	((-2.666027e-03 1.470211e-03 1.538924e-03) (-4.536147e-04 1.017808e-04 1.066776e-04)) ((6.490857e-09 -4.044298e-09 9.160862e-10) (1.440159e-09 -6.767968e-07 6.487047e-07))
54.241958     	((-2.740526e-03 1.491280e-03 1.560084e-03) (-4.600184e-04 1.061021e-04 1.111995e-04)) ((6.641137e-09 -3.792583e-09 1.092612e-09) (2.197712e-09 -6.714238e-07 6.447391e-07))
54.791798     	((-2.805115e-03 1.494798e-03 1.563637e-03) (-4.663565e-04 1.098817e-04 1.151540e-04)) ((6.676574e-09 -3.465910e-09 1.259151e-09) (2.866228e-09 -6.543446e-07 6.293887e-07))
55.340804     	((-2.856993e-03 1.480497e-03 1.547179e-03) (-4.725278e-04 1.129394e-04 1.183393e-04)) ((6.602554e-09 -3.033244e-09 1.428737e-09) (3.356557e-09 -6.233296e-07 6.005495e-07))
55.889176     	((-2.890849e-03 1.443423e-03 1.507909e-03) (-4.783180e-04 1.150672e-04 1.205495e-04)) ((6.400603e-09 -2.513646e-09 1.587842e-09) (3.855481e-09 -5.767881e-07 5.566825e-07))
56.437125     	((-2.903465e-03 1.381661e-03 1.441907e-03) (-4.834104e-04 1.160025e-04 1.215091e-04)) ((6.037883e-09 -1.910469e-09 1.743083e-09) (4.288758e-09 -5.172275e-07 5.004490e-07))
56.98477      	((-2.886741e-03 1.290356e-03 1.344948e-03) (-4.874403e-04 1.154283e-04 1.208580e-04)) ((5.459459e-09 -1.261036e-09 1.926215e-09) (4.367484e-09 -4.490439e-07 4.354483e-07))
