# Forces      
# CofR        : (0.000000e+00 0.000000e+00 0.000000e+00)
# Time        forces(pressure viscous)	moments(pressure viscous)
0             	((0.000000e+00 0.000000e+00 0.000000e+00) (4.660252e-14 -1.006862e-03 -6.461999e-14)) ((0.000000e+00 0.000000e+00 0.000000e+00) (3.436528e-15 -4.604656e-16 3.678876e-10))
0.012         	((-3.662803e-07 -2.927632e-01 -3.044943e-07) (6.625480e-10 -1.152910e-03 3.171413e-10)) ((-8.673381e-11 -2.001165e-12 5.489667e-08) (-8.434366e-12 -1.635353e-13 6.690037e-10))
0.0264        	((-5.368678e-06 2.670129e-02 -3.861613e-06) (-1.681292e-09 -1.169650e-03 -2.831757e-09)) ((-5.919198e-12 -2.105673e-11 -2.923730e-09) (-2.746992e-12 2.550671e-12 7.182504e-10))
0.04368       	((3.803623e-06 5.782464e-02 5.908564e-06) (2.751795e-09 -1.033072e-03 -5.733861e-10)) ((2.353861e-10 2.227810e-12 -1.615914e-08) (2.752355e-11 5.757019e-12 3.865799e-10))
0.064416      	((-1.264501e-07 5.068264e-04 -6.343075e-07) (-3.200063e-09 -9.117634e-04 8.035441e-10)) ((-1.058097e-10 -1.078390e-13 1.900008e-09) (-8.314872e-12 -1.543567e-12 2.676527e-10))
0.0892992     	((1.260210e-07 -2.262957e-04 -1.512853e-06) (-2.662603e-09 -8.398272e-04 -1.044580e-08)) ((-9.855003e-12 3.055338e-11 4.238985e-10) (-3.296265e-11 -7.013359e-12 -4.494467e-10))
0.119159      	((9.171481e-07 1.016150e-03 -2.280964e-07) (1.096675e-08 -7.756988e-04 -1.481417e-08)) ((-3.835974e-11 7.397722e-12 -9.052906e-10) (-3.838412e-11 -1.298175e-11 -1.254517e-09))
0.154991      	((-5.036001e-07 3.799045e-04 -9.373252e-08) (1.039921e-08 -7.098000e-04 -1.161417e-08)) ((-4.077368e-11 -1.744042e-12 -2.845901e-10) (-2.873666e-11 -2.389830e-11 -1.371679e-09))
0.197989      	((9.037357e-09 4.698796e-05 -1.186567e-07) (-6.726051e-09 -6.460847e-04 -9.544815e-09)) ((-1.903147e-11 3.830119e-14 -2.498292e-12) (1.053520e-11 -2.702372e-11 -1.566072e-09))
0.249587      	((-2.121728e-07 -6.271990e-05 -4.746726e-08) (-3.109987e-08 -5.866069e-04 -7.617242e-09)) ((-1.658695e-11 2.127776e-12 -3.175322e-11) (1.543962e-11 -1.994911e-11 -1.766299e-09))
0.311504      	((-1.789474e-07 -1.216145e-04 -6.944075e-08) (-4.428510e-08 -5.328570e-04 -6.615601e-09)) ((-8.089889e-12 2.233311e-12 -9.181153e-12) (1.980566e-12 -1.155180e-11 -1.642822e-09))
0.385805      	((-1.613156e-07 -1.544869e-04 -5.882948e-08) (-5.018253e-08 -4.853434e-04 -5.598026e-09)) ((-6.583798e-12 -3.003338e-14 1.106362e-11) (-8.005659e-12 -7.303315e-12 -1.461211e-09))
0.474966      	((-1.479202e-07 -1.695753e-04 -4.187482e-08) (-5.480239e-08 -4.437126e-04 -4.816865e-09)) ((-3.049792e-12 9.961655e-13 2.137526e-11) (-2.280810e-11 -4.373826e-12 -1.384381e-09))
0.581959      	((-9.790431e-08 -1.749144e-04 -2.554376e-08) (-4.885889e-08 -4.066743e-04 -4.211879e-09)) ((-2.310113e-12 3.309227e-13 2.631963e-11) (-3.761105e-11 -2.536821e-12 -1.431113e-09))
0.710351      	((-4.027710e-08 -1.740031e-04 -6.900546e-09) (-3.458029e-08 -3.723376e-04 -2.789516e-09)) ((-1.119212e-12 2.639575e-13 2.316263e-11) (-4.398072e-11 1.972302e-13 -1.743069e-09))
0.864421      	((2.622267e-08 -1.689225e-04 3.562282e-09) (-2.139132e-08 -3.396201e-04 -1.397104e-09)) ((2.253631e-14 6.560498e-13 2.116606e-11) (-3.145727e-11 4.955741e-12 -2.206361e-09))
1.049306      	((2.111864e-08 -1.616101e-04 5.292691e-09) (-1.408265e-08 -3.086332e-04 -1.142724e-09)) ((1.887083e-13 2.011836e-13 2.120441e-11) (-1.740214e-12 9.895964e-12 -2.560697e-09))
1.271167      	((2.753773e-08 -1.537630e-04 4.020080e-09) (-9.161217e-09 -2.797798e-04 -1.292114e-09)) ((2.162630e-13 -1.268509e-13 2.575913e-11) (2.890010e-11 1.061800e-11 -2.667261e-09))
1.5374        	((2.672247e-08 -1.468757e-04 1.565822e-09) (-6.437994e-09 -2.534358e-04 -1.275843e-09)) ((-2.832953e-13 -1.339167e-13 3.787398e-11) (5.595385e-11 8.415589e-12 -2.502319e-09))
1.85688       	((6.193139e-09 -1.419075e-04 1.830134e-09) (-6.505359e-09 -2.298687e-04 -9.758488e-10)) ((-1.098371e-12 9.009060e-14 5.444622e-11) (8.694318e-11 9.202762e-12 -2.234711e-09))
2.240256      	((-1.874483e-08 -1.392651e-04 -2.764589e-09) (-6.123119e-09 -2.091440e-04 -6.580633e-10)) ((-1.667166e-12 -6.694028e-14 6.435153e-11) (1.166235e-10 9.125779e-12 -1.947495e-09))
2.700307      	((-3.302456e-08 -1.393891e-04 -2.247392e-08) (-5.000602e-09 -1.911747e-04 -1.031285e-09)) ((-2.396788e-12 -4.190464e-13 7.790647e-11) (1.452018e-10 7.558342e-12 -1.763690e-09))
3.252369      	((-4.859720e-08 -1.424871e-04 -2.831822e-08) (-6.038054e-09 -1.757871e-04 -1.888546e-09)) ((-2.620793e-12 -5.747745e-13 9.753434e-11) (1.662903e-10 7.917647e-12 -1.647832e-09))
3.914842      	((-2.450312e-08 -1.489774e-04 -3.693120e-08) (-5.572515e-09 -1.627621e-04 -2.818868e-09)) ((-2.269280e-12 -7.832845e-13 1.275250e-10) (1.695106e-10 8.272163e-12 -1.498561e-09))
4.709811      	((-9.914627e-09 -1.590564e-04 -3.836935e-08) (-8.902062e-10 -1.518607e-04 -3.504828e-09)) ((-2.457940e-12 -6.287007e-13 1.655420e-10) (1.601437e-10 8.270968e-12 -1.505220e-09))
5.663773      	((1.793637e-08 -1.727299e-04 -2.885702e-08) (3.276240e-09 -1.428496e-04 -3.567622e-09)) ((-2.020884e-12 -5.812513e-13 2.132701e-10) (1.298650e-10 8.589011e-12 -1.713893e-09))
6.788499      	((3.396568e-08 -1.898134e-04 -2.271984e-08) (4.774603e-09 -1.355648e-04 -3.624694e-09)) ((-1.741094e-12 -1.984813e-13 2.715648e-10) (1.088162e-10 9.395395e-12 -2.211074e-09))
8.083984      	((6.032975e-08 -2.096349e-04 -1.143332e-08) (7.679819e-09 -1.297606e-04 -3.917093e-09)) ((-1.528890e-12 -5.387665e-13 3.360672e-10) (8.777911e-11 1.181807e-11 -2.943642e-09))
9.549806      	((7.283680e-08 -2.312852e-04 -2.497346e-09) (7.383047e-09 -1.252393e-04 -4.481603e-09)) ((-1.233836e-12 -9.290953e-13 4.101391e-10) (9.366447e-11 1.177281e-11 -3.534635e-09))
11.185166     	((9.317844e-08 -2.542342e-04 7.399886e-09) (7.002683e-09 -1.217533e-04 -5.737205e-09)) ((-1.233108e-12 -1.271031e-12 4.771607e-10) (1.538219e-10 1.066993e-11 -3.878140e-09))
12.868919     	((1.168989e-07 -2.764197e-04 2.391710e-08) (8.517943e-09 -1.192592e-04 -5.807007e-09)) ((-1.981786e-12 -2.329906e-12 5.335961e-10) (2.118838e-10 1.264135e-11 -4.106343e-09))
14.53931      	((1.308415e-07 -2.950549e-04 4.456057e-08) (1.266011e-08 -1.173578e-04 -3.341980e-09)) ((-2.489193e-12 -3.335594e-12 5.807589e-10) (1.514367e-10 1.276108e-11 -3.835142e-09))
16.199603     	((1.710762e-07 -3.105969e-04 8.484236e-08) (2.097584e-08 -1.157096e-04 4.159587e-10)) ((-2.882786e-12 -4.032226e-12 6.231472e-10) (5.263887e-11 8.860282e-12 -3.295668e-09))
17.857186     	((2.045552e-07 -3.215449e-04 1.232768e-07) (2.750674e-08 -1.141964e-04 5.633624e-09)) ((-2.654425e-12 -4.527753e-12 6.625946e-10) (-7.537070e-11 6.753565e-12 -2.972460e-09))
19.51886      	((2.596319e-07 -3.289264e-04 1.909131e-07) (3.181102e-08 -1.127987e-04 1.178910e-08)) ((-1.263584e-12 -4.599921e-12 6.975735e-10) (-1.861844e-10 4.413197e-12 -2.753796e-09))
21.187671     	((2.876363e-07 -3.324915e-04 2.207784e-07) (3.371026e-08 -1.115352e-04 1.671240e-08)) ((-5.460606e-13 -3.789846e-12 7.201260e-10) (-2.149127e-10 4.004924e-12 -2.650331e-09))
22.863079     	((3.151024e-07 -3.326500e-04 2.490987e-07) (3.381047e-08 -1.103636e-04 2.040943e-08)) ((-2.469133e-13 -2.726823e-12 7.336693e-10) (-1.825746e-10 6.512599e-12 -2.720542e-09))
24.543233     	((3.152131e-07 -3.305768e-04 2.497702e-07) (3.403094e-08 -1.092398e-04 2.240465e-08)) ((7.439444e-14 -3.008507e-12 7.393987e-10) (-1.004077e-10 8.650187e-12 -2.731542e-09))
26.227246     	((3.216393e-07 -3.274817e-04 2.371371e-07) (3.591127e-08 -1.081698e-04 2.289376e-08)) ((-9.904323e-14 -3.067796e-12 7.401535e-10) (-7.659107e-12 8.177917e-12 -2.619383e-09))
27.915285     	((3.791065e-07 -3.252013e-04 2.576901e-07) (3.945815e-08 -1.071910e-04 2.316549e-08)) ((-1.480146e-13 -2.131163e-12 7.369560e-10) (7.070103e-11 8.013242e-12 -2.469290e-09))
29.606922     	((4.328606e-07 -3.233177e-04 2.830670e-07) (4.407194e-08 -1.063233e-04 2.399969e-08)) ((-2.998638e-13 -1.498854e-12 7.324407e-10) (1.831644e-10 7.564050e-12 -2.357114e-09))
31.302013     	((4.705454e-07 -3.203790e-04 2.912219e-07) (4.882129e-08 -1.055135e-04 2.416310e-08)) ((-1.361890e-13 -5.881711e-13 7.282350e-10) (3.258575e-10 6.409210e-12 -2.333642e-09))
32.998977     	((5.441212e-07 -3.176251e-04 3.081397e-07) (5.467562e-08 -1.047412e-04 2.413855e-08)) ((1.115553e-13 2.038202e-13 7.258673e-10) (4.486628e-10 4.514939e-12 -2.392788e-09))
34.697211     	((6.479756e-07 -3.151032e-04 3.566184e-07) (6.170820e-08 -1.040153e-04 2.525473e-08)) ((4.205739e-13 4.447425e-13 7.247332e-10) (5.583062e-10 1.453544e-12 -2.540679e-09))
36.397274     	((7.711045e-07 -3.130130e-04 4.030121e-07) (6.885330e-08 -1.033346e-04 2.744509e-08)) ((2.804437e-13 8.474027e-13 7.240679e-10) (6.625228e-10 -2.035522e-12 -2.777591e-09))
38.099378     	((8.901320e-07 -3.112093e-04 4.453125e-07) (7.537933e-08 -1.026970e-04 3.023311e-08)) ((9.168744e-15 1.054235e-12 7.234095e-10) (7.570055e-10 3.275111e-15 -3.070571e-09))
39.803625     	((1.027390e-06 -3.096284e-04 4.865189e-07) (8.145491e-08 -1.020970e-04 3.304705e-08)) ((-1.544059e-13 1.004623e-12 7.229688e-10) (8.530359e-10 2.522375e-12 -3.413196e-09))
41.510143     	((1.194944e-06 -3.080129e-04 5.243301e-07) (8.968776e-08 -1.015273e-04 3.576593e-08)) ((-2.290748e-13 9.767988e-13 7.224509e-10) (9.472495e-10 4.029499e-12 -3.713573e-09))
43.219088     	((1.366116e-06 -3.065547e-04 5.791627e-07) (1.007403e-07 -1.009886e-04 3.889293e-08)) ((-2.221437e-14 8.382497e-13 7.224276e-10) (1.047499e-09 3.856945e-12 -4.006037e-09))
44.930526     	((1.573718e-06 -3.053848e-04 6.426234e-07) (1.142167e-07 -1.004908e-04 4.272868e-08)) ((4.626414e-13 8.896187e-13 7.228398e-10) (1.160427e-09 -2.063224e-12 -4.329137e-09))
46.644441     	((1.759403e-06 -3.044231e-04 6.860754e-07) (1.290080e-07 -1.000348e-04 4.626859e-08)) ((6.763368e-13 6.445302e-13 7.234610e-10) (1.281176e-09 -4.428119e-12 -4.628052e-09))
48.360866     	((2.017337e-06 -3.034184e-04 7.628405e-07) (1.469298e-07 -9.961301e-05 5.072718e-08)) ((1.626136e-12 9.548672e-13 7.239399e-10) (1.390012e-09 1.471851e-12 -4.875815e-09))
50.079906     	((2.286029e-06 -3.024230e-04 8.365058e-07) (1.685480e-07 -9.922042e-05 5.647174e-08)) ((2.244918e-12 1.504369e-12 7.243449e-10) (1.484599e-09 9.257619e-12 -5.107351e-09))
51.801758     	((2.530232e-06 -3.012868e-04 9.090472e-07) (1.912877e-07 -9.884676e-05 6.268186e-08)) ((2.651115e-12 1.953276e-12 7.242573e-10) (1.581000e-09 1.464882e-11 -5.346454e-09))
53.526603     	((2.834166e-06 -2.999440e-04 1.002944e-06) (2.162515e-07 -9.847981e-05 6.977047e-08)) ((3.398542e-12 2.590186e-12 7.235901e-10) (1.675730e-09 1.346618e-11 -5.608990e-09))
55.254352     	((3.099697e-06 -2.987872e-04 1.099566e-06) (2.422053e-07 -9.812197e-05 7.776477e-08)) ((3.885722e-12 3.188588e-12 7.233608e-10) (1.771577e-09 8.300495e-12 -5.876756e-09))
56.984904     	((3.389957e-06 -2.978428e-04 1.178980e-06) (2.688205e-07 -9.778148e-05 8.578004e-08)) ((4.179734e-12 3.713208e-12 7.229638e-10) (1.867465e-09 8.635760e-12 -6.186062e-09))
58.718243     	((3.754040e-06 -2.969694e-04 1.303741e-06) (2.979206e-07 -9.745864e-05 9.485218e-08)) ((5.046796e-12 4.236055e-12 7.224868e-10) (1.961940e-09 6.619542e-12 -6.532146e-09))
60.454332     	((4.131462e-06 -2.961051e-04 1.439222e-06) (3.296768e-07 -9.715025e-05 1.052698e-07)) ((5.972819e-12 4.670956e-12 7.220843e-10) (2.084484e-09 2.639874e-12 -6.888899e-09))
62.193144     	((4.525583e-06 -2.952341e-04 1.578205e-06) (3.635626e-07 -9.685399e-05 1.162898e-07)) ((6.689003e-12 4.892171e-12 7.219673e-10) (2.229300e-09 -5.227996e-12 -7.275833e-09))
63.934715     	((5.037925e-06 -2.944155e-04 1.728081e-06) (4.030263e-07 -9.656893e-05 1.285691e-07)) ((7.394863e-12 4.952150e-12 7.220713e-10) (2.367881e-09 -1.500073e-11 -7.678666e-09))
65.678938     	((5.638226e-06 -2.936601e-04 1.918776e-06) (4.494806e-07 -9.629295e-05 1.432720e-07)) ((8.763456e-12 4.958500e-12 7.223912e-10) (2.510496e-09 -2.008354e-11 -8.091882e-09))
67.425643     	((6.326233e-06 -2.928967e-04 2.126466e-06) (5.027548e-07 -9.602317e-05 1.598057e-07)) ((1.039493e-11 4.708547e-12 7.226795e-10) (2.686052e-09 -2.354406e-11 -8.552767e-09))
69.174708     	((7.107168e-06 -2.920342e-04 2.369086e-06) (5.633905e-07 -9.575740e-05 1.783203e-07)) ((1.266616e-11 4.411485e-12 7.224902e-10) (2.906402e-09 -2.613594e-11 -9.098245e-09))
70.926026     	((7.937558e-06 -2.911889e-04 2.645627e-06) (6.298951e-07 -9.549821e-05 1.995817e-07)) ((1.489016e-11 4.070347e-12 7.219995e-10) (3.173639e-09 -2.734698e-11 -9.782685e-09))
72.679498     	((8.851982e-06 -2.903716e-04 2.922863e-06) (7.022524e-07 -9.524868e-05 2.226774e-07)) ((1.711759e-11 3.800232e-12 7.214141e-10) (3.462426e-09 -2.499846e-11 -1.061610e-08))
74.435044     	((9.837137e-06 -2.895894e-04 3.247911e-06) (7.809359e-07 -9.500881e-05 2.483785e-07)) ((1.925624e-11 3.332821e-12 7.208232e-10) (3.772691e-09 -1.807770e-11 -1.159364e-08))
76.192584     	((1.094003e-05 -2.889030e-04 3.614189e-06) (8.671094e-07 -9.477978e-05 2.777334e-07)) ((2.166327e-11 2.692129e-12 7.201887e-10) (4.097886e-09 -1.205463e-11 -1.270433e-08))
77.952033     	((1.218188e-05 -2.882623e-04 4.011601e-06) (9.632153e-07 -9.456120e-05 3.104114e-07)) ((2.425215e-11 2.077823e-12 7.193804e-10) (4.447350e-09 -9.133078e-12 -1.394937e-08))
79.713298     	((1.353481e-05 -2.876770e-04 4.452585e-06) (1.070248e-06 -9.435239e-05 3.465353e-07)) ((2.726452e-11 1.769791e-12 7.184712e-10) (4.850608e-09 -1.530658e-11 -1.532554e-08))
81.476262     	((1.498467e-05 -2.871516e-04 4.919782e-06) (1.187935e-06 -9.415380e-05 3.862455e-07)) ((3.022157e-11 1.677861e-12 7.177174e-10) (5.289079e-09 -1.948313e-11 -1.682378e-08))
83.240801     	((1.655118e-05 -2.866517e-04 5.415449e-06) (1.316674e-06 -9.396551e-05 4.294391e-07)) ((3.326647e-11 1.788927e-12 7.171421e-10) (5.749395e-09 -1.375360e-11 -1.842283e-08))
85.00678      	((1.822731e-05 -2.861529e-04 5.929442e-06) (1.456982e-06 -9.378613e-05 4.752863e-07)) ((3.614421e-11 2.143483e-12 7.165921e-10) (6.254094e-09 2.814987e-12 -2.010393e-08))
86.774061     	((2.003195e-05 -2.856641e-04 6.480139e-06) (1.609874e-06 -9.361434e-05 5.238229e-07)) ((3.951310e-11 2.569473e-12 7.160329e-10) (6.800743e-09 3.086970e-11 -2.185975e-08))
88.54251      	((2.198813e-05 -2.852193e-04 7.084386e-06) (1.776837e-06 -9.345061e-05 5.759952e-07)) ((4.352621e-11 2.767423e-12 7.155340e-10) (7.393142e-09 6.768842e-11 -2.367937e-08))
90.311862     	((2.411241e-05 -2.848071e-04 7.751617e-06) (1.959611e-06 -9.329477e-05 6.328831e-07)) ((4.794842e-11 2.810007e-12 7.152067e-10) (8.034789e-09 1.093849e-10 -2.557009e-08))
92.081559     	((2.640547e-05 -2.844497e-04 8.484730e-06) (2.159244e-06 -9.314700e-05 6.953856e-07)) ((5.249471e-11 2.863678e-12 7.150190e-10) (8.712895e-09 1.489804e-10 -2.753311e-08))
93.851423     	((2.891053e-05 -2.841345e-04 9.284500e-06) (2.377748e-06 -9.300771e-05 7.639464e-07)) ((5.741068e-11 2.544174e-12 7.148385e-10) (9.433733e-09 1.686086e-10 -2.956535e-08))
95.62127      	((3.164281e-05 -2.838884e-04 1.016609e-05) (2.616966e-06 -9.287821e-05 8.396070e-07)) ((6.286634e-11 1.672159e-12 7.145413e-10) (1.017549e-08 1.611601e-10 -3.166814e-08))
97.390907     	((3.467206e-05 -2.837018e-04 1.111192e-05) (2.880578e-06 -9.275983e-05 9.225547e-07)) ((6.831561e-11 3.817388e-13 7.140046e-10) (1.092288e-08 1.439625e-10 -3.385177e-08))
99.160136     	((3.802616e-05 -2.835794e-04 1.216429e-05) (3.172554e-06 -9.265344e-05 1.013628e-06)) ((7.453388e-11 -1.683828e-12 7.132908e-10) (1.168061e-08 1.089939e-10 -3.613746e-08))
100.928747    	((4.174611e-05 -2.835251e-04 1.332877e-05) (3.496122e-06 -9.255956e-05 1.114500e-06)) ((8.154366e-11 -4.209177e-12 7.123281e-10) (1.248389e-08 6.094546e-11 -3.856510e-08))
102.696526    	((4.586363e-05 -2.835403e-04 1.462037e-05) (3.854546e-06 -9.247878e-05 1.225452e-06)) ((8.897039e-11 -7.467678e-12 7.112200e-10) (1.338981e-08 -1.904041e-12 -4.119300e-08))
104.463245    	((5.041688e-05 -2.836378e-04 1.605197e-05) (4.251036e-06 -9.241194e-05 1.347634e-06)) ((9.698260e-11 -1.144755e-11 7.099858e-10) (1.442634e-08 -8.142273e-11 -4.407946e-08))
106.228658    	((5.537207e-05 -2.838656e-04 1.763952e-05) (4.685628e-06 -9.236012e-05 1.482695e-06)) ((1.060263e-10 -1.602894e-11 7.086475e-10) (1.560240e-08 -1.655668e-10 -4.734222e-08))
107.992499    	((6.081537e-05 -2.841970e-04 1.939807e-05) (5.161224e-06 -9.232329e-05 1.633772e-06)) ((1.158829e-10 -2.121534e-11 7.070612e-10) (1.686133e-08 -2.393635e-10 -5.105895e-08))
109.754478    	((6.678572e-05 -2.846786e-04 2.133349e-05) (5.683182e-06 -9.230240e-05 1.802101e-06)) ((1.267673e-10 -2.701074e-11 7.051601e-10) (1.820795e-08 -2.831983e-10 -5.522957e-08))
111.514274    	((7.332198e-05 -2.853689e-04 2.347219e-05) (6.254592e-06 -9.230046e-05 1.988272e-06)) ((1.388777e-10 -3.401133e-11 7.028504e-10) (1.969744e-08 -2.839463e-10 -5.991583e-08))
113.271535    	((8.046313e-05 -2.862601e-04 2.579301e-05) (6.878875e-06 -9.232100e-05 2.191743e-06)) ((1.516741e-10 -4.182313e-11 7.000482e-10) (2.140139e-08 -2.459193e-10 -6.517133e-08))
115.025819    	((8.820810e-05 -2.874533e-04 2.831066e-05) (7.560412e-06 -9.236767e-05 2.413040e-06)) ((1.648653e-10 -5.002991e-11 6.969371e-10) (2.329835e-08 -1.735070e-10 -7.098862e-08))
116.776814    	((9.657859e-05 -2.889374e-04 3.105499e-05) (8.304838e-06 -9.244390e-05 2.655793e-06)) ((1.792416e-10 -5.890349e-11 6.932333e-10) (2.530327e-08 -1.140696e-10 -7.723325e-08))
118.524244    	((1.055494e-04 -2.907751e-04 3.400375e-05) (9.113028e-06 -9.255476e-05 2.921193e-06)) ((1.953024e-10 -6.988142e-11 6.886840e-10) (2.740869e-08 -1.111623e-10 -8.392488e-08))
120.267595    	((1.151836e-04 -2.929816e-04 3.716228e-05) (9.989250e-06 -9.270497e-05 3.208294e-06)) ((2.122254e-10 -8.250758e-11 6.838460e-10) (2.965804e-08 -1.912185e-10 -9.097541e-08))
122.006535    	((1.255246e-04 -2.956880e-04 4.058071e-05) (1.093383e-05 -9.290092e-05 3.518314e-06)) ((2.301216e-10 -9.682674e-11 6.794326e-10) (3.211062e-08 -3.021042e-10 -9.858076e-08))
123.740816    	((1.365881e-04 -2.989004e-04 4.420048e-05) (1.195070e-05 -9.314951e-05 3.850915e-06)) ((2.486323e-10 -1.134624e-10 6.752124e-10) (3.475383e-08 -3.706968e-10 -1.066785e-07))
125.470138    	((1.482455e-04 -3.027386e-04 4.807837e-05) (1.304409e-05 -9.345807e-05 4.208214e-06)) ((2.682891e-10 -1.326717e-10 6.702498e-10) (3.759966e-08 -3.779104e-10 -1.150526e-07))
127.194206    	((1.604531e-04 -3.071875e-04 5.212345e-05) (1.421256e-05 -9.383319e-05 4.593235e-06)) ((2.879192e-10 -1.554345e-10 6.647182e-10) (4.044582e-08 -3.465867e-10 -1.236022e-07))
128.912734    	((1.731247e-04 -3.124228e-04 5.632503e-05) (1.545435e-05 -9.428503e-05 5.005826e-06)) ((3.056057e-10 -1.806612e-10 6.596335e-10) (4.320698e-08 -2.464938e-10 -1.320485e-07))
130.625396    	((1.861059e-04 -3.185128e-04 6.058933e-05) (1.676724e-05 -9.482374e-05 5.440313e-06)) ((3.210606e-10 -2.089083e-10 6.556296e-10) (4.600146e-08 -1.018811e-10 -1.401735e-07))
132.332157    	((1.992314e-04 -3.254292e-04 6.489777e-05) (1.813989e-05 -9.545579e-05 5.890211e-06)) ((3.347763e-10 -2.407281e-10 6.532521e-10) (4.893077e-08 7.242391e-11 -1.479397e-07))
134.033443    	((2.122708e-04 -3.330690e-04 6.926348e-05) (1.955524e-05 -9.618760e-05 6.355048e-06)) ((3.478432e-10 -2.752400e-10 6.517084e-10) (5.179730e-08 1.506246e-10 -1.553084e-07))
135.729342    	((2.250306e-04 -3.414322e-04 7.346280e-05) (2.100031e-05 -9.701587e-05 6.832406e-06)) ((3.570492e-10 -3.109020e-10 6.512981e-10) (5.431572e-08 1.053753e-10 -1.621740e-07))
137.419951    	((2.371712e-04 -3.505671e-04 7.750109e-05) (2.246056e-05 -9.794632e-05 7.317040e-06)) ((3.634869e-10 -3.473099e-10 6.520109e-10) (5.640796e-08 7.068855e-11 -1.680982e-07))
139.105542    	((2.481215e-04 -3.603479e-04 8.106773e-05) (2.390625e-05 -9.898581e-05 7.796198e-06)) ((3.634947e-10 -3.826938e-10 6.540504e-10) (5.798773e-08 7.739359e-11 -1.727786e-07))
140.786462    	((2.571909e-04 -3.701878e-04 8.405349e-05) (2.529300e-05 -1.001203e-04 8.258199e-06)) ((3.598302e-10 -4.156841e-10 6.578762e-10) (5.881106e-08 1.275293e-10 -1.758401e-07))
142.463172    	((2.637775e-04 -3.798890e-04 8.619534e-05) (2.657988e-05 -1.013261e-04 8.687016e-06)) ((3.519476e-10 -4.451518e-10 6.631257e-10) (5.876398e-08 2.756323e-10 -1.764448e-07))
