# Forces      
# CofR        : (0.000000e+00 0.000000e+00 0.000000e+00)
# Time        forces(pressure viscous)	moments(pressure viscous)
0             	((0.000000e+00 0.000000e+00 0.000000e+00) (-9.623995e-13 9.759953e-14 -1.265061e-02)) ((0.000000e+00 0.000000e+00 0.000000e+00) (-2.833569e-14 -4.253863e-09 -2.218859e-15))
0.012         	((4.135170e-05 3.867291e-05 -3.727799e+00) (-6.477925e-08 -5.377235e-08 -1.690776e-02)) ((8.962485e-11 -1.023366e-06 -8.285495e-11) (-8.444363e-09 -1.047925e-08 1.654277e-11))
0.0264        	((1.720686e-05 3.250373e-05 9.826300e-01) (-5.390227e-07 -1.014945e-07 -1.674819e-02)) ((-2.020953e-08 2.034167e-07 5.233323e-11) (6.024958e-09 -4.831380e-08 1.061553e-10))
0.04368       	((-3.107259e-05 -2.995826e-05 3.056340e-01) (-1.478583e-06 1.110125e-07 -1.403399e-02)) ((1.612207e-08 1.270308e-08 -3.053376e-10) (5.904738e-09 -9.877819e-08 -1.046009e-11))
0.064416      	((-7.736488e-05 -2.503788e-05 7.117170e-03) (-2.760554e-07 2.157587e-07 -1.240685e-02)) ((-7.254002e-10 -5.722392e-08 4.690449e-11) (-6.498246e-09 -9.470950e-08 -4.970174e-11))
0.0892992     	((-3.502534e-05 -1.999257e-05 -1.689537e-03) (2.093617e-06 5.206584e-08 -1.139348e-02)) ((-7.370037e-10 -4.127516e-08 -1.905468e-10) (-6.013814e-09 -6.000906e-08 1.565509e-10))
0.119159      	((4.469122e-05 -1.115910e-06 -4.251100e-03) (1.772131e-06 -1.271662e-08 -1.057840e-02)) ((4.624425e-11 -4.799192e-08 -3.076772e-10) (-6.446111e-09 -7.603965e-08 -3.938081e-11))
0.154991      	((-2.158495e-05 -6.117974e-06 -6.633928e-03) (8.833205e-07 -4.876229e-09 -9.945942e-03)) ((3.018477e-11 -4.598592e-08 -1.863477e-10) (-7.016247e-09 -1.230824e-07 8.072756e-11))
0.197989      	((-1.760396e-06 -5.927335e-07 -7.488144e-03) (1.346560e-06 1.744462e-08 -9.456205e-03)) ((1.069643e-10 -5.120572e-08 -6.261084e-12) (-6.580937e-09 -1.554768e-07 -1.486699e-10))
0.249587      	((-1.008888e-05 -2.627820e-06 -8.375555e-03) (2.300287e-06 3.474484e-08 -9.041365e-03)) ((-9.219068e-11 -4.437749e-08 1.082019e-10) (-6.031435e-09 -1.533124e-07 -3.859396e-10))
0.311504      	((2.414832e-06 -1.202122e-06 -9.179425e-03) (2.424893e-06 1.461809e-08 -8.669205e-03)) ((-8.891869e-11 -4.654836e-08 7.710019e-11) (-4.928800e-09 -1.441159e-07 -2.261099e-10))
0.385805      	((-8.852704e-06 -8.901275e-07 -1.036643e-02) (2.538263e-06 -3.994533e-09 -8.333041e-03)) ((-1.419698e-10 -4.481208e-08 3.692089e-11) (-2.329494e-09 -1.403921e-07 1.090191e-11))
0.473255      	((4.473344e-06 1.276559e-08 -1.187312e-02) (2.934550e-06 -2.033997e-08 -8.037461e-03)) ((-9.697853e-11 -4.513948e-08 -1.159287e-11) (5.663557e-10 -1.371784e-07 1.605711e-10))
0.573881      	((7.341725e-08 -1.823602e-08 -1.380739e-02) (3.261564e-06 -4.029829e-08 -7.787614e-03)) ((2.109295e-11 -4.319960e-08 -4.672548e-11) (1.911811e-09 -1.269867e-07 3.219078e-10))
0.687701      	((2.650882e-06 1.723230e-06 -1.610425e-02) (3.390201e-06 -4.730038e-08 -7.580958e-03)) ((3.515648e-11 -4.165879e-08 -5.058761e-11) (1.874177e-09 -1.183540e-07 4.695705e-10))
0.814689      	((-4.336731e-06 4.029886e-06 -1.854026e-02) (3.111338e-06 -3.027203e-08 -7.413629e-03)) ((3.315210e-11 -3.838017e-08 -6.467128e-11) (1.676263e-09 -1.150218e-07 5.731252e-10))
0.94529       	((-7.949697e-06 5.896860e-06 -2.121088e-02) (2.690339e-06 -3.885084e-08 -7.285123e-03)) ((-1.298989e-10 -3.490549e-08 -7.714344e-11) (-6.320581e-10 -1.113037e-07 5.996312e-10))
1.074493      	((-1.223918e-05 1.068432e-05 -2.370146e-02) (2.208083e-06 -9.880368e-08 -7.178349e-03)) ((-3.212113e-10 -3.161374e-08 -7.159543e-11) (-7.125169e-09 -1.056438e-07 5.929890e-10))
1.202698      	((-1.738803e-05 1.629181e-05 -2.595060e-02) (1.713734e-06 -1.747632e-07 -7.076765e-03)) ((-3.985792e-10 -2.920873e-08 -8.211787e-11) (-1.627802e-08 -1.004719e-07 5.766278e-10))
1.330546      	((-1.965091e-05 2.380607e-05 -2.779287e-02) (1.401215e-06 -1.234486e-07 -6.976144e-03)) ((-1.975215e-10 -2.721597e-08 -9.266177e-11) (-1.996827e-08 -1.002429e-07 5.546476e-10))
1.458712      	((-2.151957e-05 3.081226e-05 -2.913321e-02) (1.349769e-06 1.020832e-07 -6.882140e-03)) ((5.048600e-11 -2.543718e-08 -8.792907e-11) (-1.441644e-08 -1.062535e-07 5.570324e-10))
1.587379      	((-2.587253e-05 3.817189e-05 -2.986148e-02) (1.371510e-06 3.888209e-07 -6.796471e-03)) ((3.073725e-10 -2.339693e-08 -1.000238e-10) (-5.910225e-09 -1.198232e-07 6.127021e-10))
1.716233      	((-3.539599e-05 4.493603e-05 -3.004158e-02) (1.198421e-06 6.053569e-07 -6.717843e-03)) ((4.234465e-10 -2.166399e-08 -9.269722e-11) (-7.748191e-10 -1.358733e-07 6.263479e-10))
1.844925      	((-4.834078e-05 4.973646e-05 -2.976473e-02) (7.801148e-07 7.253971e-07 -6.647551e-03)) ((6.777958e-10 -2.104683e-08 -8.048338e-11) (-6.011529e-10 -1.516815e-07 6.238689e-10))
1.973343      	((-6.036526e-05 5.868453e-05 -2.913954e-02) (2.752769e-07 8.158707e-07 -6.585272e-03)) ((1.038385e-09 -2.073116e-08 -9.191534e-11) (-2.824398e-09 -1.651580e-07 7.163967e-10))
2.101586      	((-7.656722e-05 6.449525e-05 -2.855215e-02) (-7.131196e-09 9.306331e-07 -6.530835e-03)) ((1.101460e-09 -2.053267e-08 -1.004356e-10) (-3.888667e-09 -1.843656e-07 7.858495e-10))
2.22977       	((-9.521539e-05 7.196631e-05 -2.815459e-02) (-7.302996e-08 1.093094e-06 -6.483454e-03)) ((1.268950e-09 -2.042410e-08 -1.039014e-10) (-4.023450e-09 -2.146428e-07 7.483135e-10))
2.357916      	((-1.158762e-04 8.269709e-05 -2.795943e-02) (4.325629e-08 1.283576e-06 -6.441215e-03)) ((1.455693e-09 -2.036245e-08 -1.158488e-10) (-4.713008e-09 -2.551666e-07 9.349867e-10))
2.485997      	((-1.399213e-04 9.497923e-05 -2.790584e-02) (9.018527e-08 1.472988e-06 -6.402966e-03)) ((1.512018e-09 -2.078675e-08 -1.288939e-10) (-7.041750e-09 -2.989963e-07 8.453089e-10))
2.613993      	((-1.713022e-04 1.101771e-04 -2.782051e-02) (-8.847767e-08 1.665715e-06 -6.367518e-03)) ((1.750173e-09 -2.137129e-08 -1.095796e-10) (-1.200010e-08 -3.404218e-07 6.367346e-10))
2.741907      	((-2.110269e-04 1.257531e-04 -2.763701e-02) (-4.431129e-07 1.839792e-06 -6.333271e-03)) ((2.007344e-09 -2.217061e-08 -9.326389e-11) (-2.035505e-08 -3.815363e-07 7.176681e-10))
2.869741      	((-2.510750e-04 1.406929e-04 -2.732213e-02) (-8.630108e-07 1.987838e-06 -6.300233e-03)) ((2.122041e-09 -2.283153e-08 -9.066100e-11) (-3.129464e-08 -4.242282e-07 7.026748e-10))
2.997495      	((-2.988205e-04 1.600130e-04 -2.695773e-02) (-1.278070e-06 2.173543e-06 -6.268844e-03)) ((2.217753e-09 -2.343480e-08 -1.107783e-10) (-4.242979e-08 -4.694018e-07 5.307491e-10))
3.125168      	((-3.497516e-04 1.795555e-04 -2.666672e-02) (-1.794877e-06 2.404706e-06 -6.239599e-03)) ((2.328840e-09 -2.358749e-08 -1.476709e-10) (-5.345513e-08 -5.127143e-07 3.949998e-10))
3.252761      	((-4.144342e-04 2.063099e-04 -2.643887e-02) (-2.505253e-06 2.688026e-06 -6.212989e-03)) ((2.520158e-09 -2.341940e-08 -1.620517e-10) (-6.567858e-08 -5.537706e-07 4.367252e-10))
3.380277      	((-4.816470e-04 2.367701e-04 -2.632403e-02) (-3.304382e-06 2.985863e-06 -6.189018e-03)) ((2.809159e-09 -2.344130e-08 -1.641506e-10) (-8.248127e-08 -5.977059e-07 5.520837e-10))
3.507721      	((-5.510690e-04 2.701291e-04 -2.625557e-02) (-4.188556e-06 3.297963e-06 -6.167327e-03)) ((3.058132e-09 -2.360489e-08 -1.129085e-10) (-1.017898e-07 -6.409756e-07 -3.195638e-10))
3.635097      	((-6.307537e-04 3.076703e-04 -2.621492e-02) (-5.302443e-06 3.687406e-06 -6.147515e-03)) ((3.358462e-09 -2.355152e-08 -1.272458e-10) (-1.211782e-07 -6.787978e-07 -6.257006e-10))
3.76241       	((-7.214707e-04 3.506644e-04 -2.612516e-02) (-6.700178e-06 4.195276e-06 -6.128848e-03)) ((3.786669e-09 -2.314623e-08 -1.700595e-10) (-1.412168e-07 -7.111162e-07 -6.262102e-10))
3.889663      	((-8.170093e-04 3.995021e-04 -2.598612e-02) (-8.260529e-06 4.823229e-06 -6.110868e-03)) ((4.320428e-09 -2.242409e-08 -1.932637e-10) (-1.598682e-07 -7.424508e-07 -6.380146e-10))
4.016857      	((-9.179026e-04 4.509645e-04 -2.582363e-02) (-9.953299e-06 5.567928e-06 -6.093643e-03)) ((4.786126e-09 -2.161184e-08 -2.026497e-10) (-1.777227e-07 -7.759042e-07 -1.032712e-10))
4.143993      	((-1.031074e-03 5.068302e-04 -2.567617e-02) (-1.181951e-05 6.411925e-06 -6.077424e-03)) ((5.273575e-09 -2.063916e-08 -1.935686e-10) (-1.983693e-07 -8.124837e-07 2.576907e-10))
4.271072      	((-1.149581e-03 5.657088e-04 -2.555744e-02) (-1.387277e-05 7.367091e-06 -6.062458e-03)) ((5.869881e-09 -1.936314e-08 -2.441957e-10) (-2.217830e-07 -8.514695e-07 5.468557e-10))
4.398098      	((-1.273199e-03 6.279499e-04 -2.545886e-02) (-1.611453e-05 8.468940e-06 -6.048830e-03)) ((6.512209e-09 -1.799567e-08 -3.351669e-10) (-2.448116e-07 -8.898200e-07 1.695253e-09))
4.52507       	((-1.412058e-03 6.919899e-04 -2.537621e-02) (-1.857222e-05 9.689223e-06 -6.036434e-03)) ((7.132868e-09 -1.665634e-08 -3.660993e-10) (-2.664412e-07 -9.299092e-07 2.954675e-09))
4.651991      	((-1.569643e-03 7.657925e-04 -2.528576e-02) (-2.124666e-05 1.100568e-05 -6.024995e-03)) ((7.773851e-09 -1.525687e-08 -4.143630e-10) (-2.893262e-07 -9.749991e-07 3.294319e-09))
4.778861      	((-1.748635e-03 8.551517e-04 -2.517797e-02) (-2.408815e-05 1.249372e-05 -6.014241e-03)) ((8.569844e-09 -1.385362e-08 -5.697036e-10) (-3.137629e-07 -1.027242e-06 2.909914e-09))
4.905678      	((-1.951808e-03 9.556995e-04 -2.506099e-02) (-2.713257e-05 1.415518e-05 -6.003950e-03)) ((9.466728e-09 -1.230645e-08 -7.344231e-10) (-3.421218e-07 -1.089670e-06 1.918232e-09))
5.032446      	((-2.178700e-03 1.069636e-03 -2.494913e-02) (-3.042185e-05 1.598695e-05 -5.994047e-03)) ((1.050035e-08 -1.071954e-08 -8.912752e-10) (-3.760581e-07 -1.164390e-06 2.330074e-10))
5.159167      	((-2.435315e-03 1.191418e-03 -2.485017e-02) (-3.403173e-05 1.796443e-05 -5.984550e-03)) ((1.143160e-08 -8.995030e-09 -1.005894e-09) (-4.166053e-07 -1.253072e-06 -1.961555e-09))
5.285843      	((-2.722445e-03 1.325882e-03 -2.476786e-02) (-3.805273e-05 2.006117e-05 -5.975529e-03)) ((1.239948e-08 -7.123152e-09 -1.119647e-09) (-4.664799e-07 -1.356661e-06 -5.205441e-09))
5.412475      	((-3.038134e-03 1.473009e-03 -2.469945e-02) (-4.255174e-05 2.229957e-05 -5.967105e-03)) ((1.338372e-08 -5.112654e-09 -1.288103e-09) (-5.260717e-07 -1.474182e-06 -9.050308e-09))
5.539061      	((-3.385485e-03 1.640482e-03 -2.463789e-02) (-4.761303e-05 2.475221e-05 -5.959256e-03)) ((1.448076e-08 -2.844067e-09 -1.441305e-09) (-5.947696e-07 -1.603600e-06 -1.263572e-08))
5.665604      	((-3.767196e-03 1.826950e-03 -2.458105e-02) (-5.339081e-05 2.749294e-05 -5.951850e-03)) ((1.580479e-08 -2.837620e-10 -1.564226e-09) (-6.718145e-07 -1.741919e-06 -1.533424e-08))
5.792104      	((-4.185826e-03 2.031350e-03 -2.452461e-02) (-6.000381e-05 3.059023e-05 -5.944751e-03)) ((1.735776e-08 2.656478e-09 -1.683933e-09) (-7.547237e-07 -1.886031e-06 -1.677579e-08))
5.91856       	((-4.642399e-03 2.253175e-03 -2.447317e-02) (-6.751196e-05 3.406822e-05 -5.937938e-03)) ((1.907279e-08 6.025394e-09 -1.773656e-09) (-8.410624e-07 -2.036005e-06 -1.697638e-08))
6.044974      	((-5.143370e-03 2.495889e-03 -2.442701e-02) (-7.592545e-05 3.794740e-05 -5.931455e-03)) ((2.102141e-08 9.903083e-09 -1.793695e-09) (-9.315669e-07 -2.193021e-06 -1.605629e-08))
6.171345      	((-5.690119e-03 2.759796e-03 -2.439839e-02) (-8.526009e-05 4.223204e-05 -5.925395e-03)) ((2.309504e-08 1.437242e-08 -1.754501e-09) (-1.029504e-06 -2.358152e-06 -1.426336e-08))
6.297671      	((-6.279286e-03 3.042774e-03 -2.438204e-02) (-9.554008e-05 4.687737e-05 -5.919826e-03)) ((2.531285e-08 1.926391e-08 -1.707356e-09) (-1.136718e-06 -2.534020e-06 -1.218834e-08))
6.423954      	((-6.916705e-03 3.351967e-03 -2.438650e-02) (-1.068049e-04 5.191602e-05 -5.914880e-03)) ((2.779970e-08 2.454053e-08 -1.683944e-09) (-1.251984e-06 -2.720877e-06 -9.791880e-09))
6.550191      	((-7.608666e-03 3.692732e-03 -2.440902e-02) (-1.191305e-04 5.742889e-05 -5.910655e-03)) ((3.063442e-08 3.026518e-08 -1.701705e-09) (-1.376015e-06 -2.918474e-06 -6.881272e-09))
6.676383      	((-8.360747e-03 4.067775e-03 -2.445090e-02) (-1.325901e-04 6.350811e-05 -5.907333e-03)) ((3.365326e-08 3.644486e-08 -1.805584e-09) (-1.508359e-06 -3.127751e-06 -2.441673e-09))
6.80253       	((-9.176051e-03 4.476160e-03 -2.451896e-02) (-1.471961e-04 7.022124e-05 -5.905045e-03)) ((3.662221e-08 4.256551e-08 -1.906076e-09) (-1.651380e-06 -3.355682e-06 3.942614e-09))
6.928628      	((-1.006743e-02 4.914324e-03 -2.459914e-02) (-1.630648e-04 7.755674e-05 -5.903873e-03)) ((3.959039e-08 4.902540e-08 -2.039495e-09) (-1.810465e-06 -3.610620e-06 1.146494e-08))
7.054676      	((-1.105721e-02 5.395396e-03 -2.469801e-02) (-1.804594e-04 8.550680e-05 -5.903855e-03)) ((4.285804e-08 5.605022e-08 -2.261588e-09) (-1.988580e-06 -3.896438e-06 1.982800e-08))
7.180672      	((-1.215903e-02 5.922784e-03 -2.483251e-02) (-1.995951e-04 9.412218e-05 -5.905084e-03)) ((4.635642e-08 6.365596e-08 -2.280543e-09) (-2.184909e-06 -4.213379e-06 2.912637e-08))
7.306618      	((-1.338358e-02 6.507239e-03 -2.500983e-02) (-2.206842e-04 1.035726e-04 -5.907707e-03)) ((4.982039e-08 7.155686e-08 -2.111510e-09) (-2.398040e-06 -4.562481e-06 3.486754e-08))
7.432512      	((-1.475304e-02 7.149571e-03 -2.524110e-02) (-2.442866e-04 1.140379e-04 -5.911880e-03)) ((5.295464e-08 7.985824e-08 -2.188369e-09) (-2.625961e-06 -4.936764e-06 3.525693e-08))
7.55835       	((-1.625909e-02 7.862815e-03 -2.551813e-02) (-2.707855e-04 1.258241e-04 -5.917948e-03)) ((5.620823e-08 8.841072e-08 -2.313059e-09) (-2.860123e-06 -5.329838e-06 3.236081e-08))
7.684129      	((-1.793453e-02 8.648086e-03 -2.586634e-02) (-3.003973e-04 1.393809e-04 -5.926197e-03)) ((5.945380e-08 9.736299e-08 -2.559069e-09) (-3.089582e-06 -5.742422e-06 3.208708e-08))
7.809842      	((-1.975602e-02 9.494205e-03 -2.633453e-02) (-3.333177e-04 1.550069e-04 -5.937104e-03)) ((6.259285e-08 1.057409e-07 -2.980350e-09) (-3.301706e-06 -6.167186e-06 3.408770e-08))
7.935482      	((-2.170388e-02 1.038429e-02 -2.693243e-02) (-3.696098e-04 1.726335e-04 -5.951431e-03)) ((6.578212e-08 1.129731e-07 -3.698969e-09) (-3.494423e-06 -6.602870e-06 3.441391e-08))
8.061041      	((-2.377268e-02 1.133666e-02 -2.768565e-02) (-4.093538e-04 1.921392e-04 -5.969758e-03)) ((6.906359e-08 1.188862e-07 -4.680891e-09) (-3.675967e-06 -7.059137e-06 3.122338e-08))
8.186521      	((-2.594495e-02 1.233457e-02 -2.859062e-02) (-4.524603e-04 2.134066e-04 -5.992405e-03)) ((7.212268e-08 1.229189e-07 -5.549238e-09) (-3.849392e-06 -7.535547e-06 2.390985e-08))
8.311917      	((-2.820645e-02 1.335390e-02 -2.959978e-02) (-4.993051e-04 2.362911e-04 -6.019470e-03)) ((7.472917e-08 1.257659e-07 -5.991157e-09) (-4.007888e-06 -8.003729e-06 1.305041e-08))
8.437225      	((-3.048150e-02 1.439384e-02 -3.076623e-02) (-5.497915e-04 2.608074e-04 -6.050853e-03)) ((7.689616e-08 1.261514e-07 -6.435346e-09) (-4.144688e-06 -8.451796e-06 3.304975e-09))
8.562446      	((-3.269196e-02 1.541943e-02 -3.214081e-02) (-6.028882e-04 2.865507e-04 -6.086920e-03)) ((7.856024e-08 1.238042e-07 -6.748684e-09) (-4.272582e-06 -8.884297e-06 5.882205e-10))
8.687588      	((-3.477404e-02 1.637833e-02 -3.373686e-02) (-6.575023e-04 3.127199e-04 -6.129185e-03)) ((7.909236e-08 1.186459e-07 -7.206031e-09) (-4.392034e-06 -9.278181e-06 4.384610e-09))
8.812656      	((-3.666701e-02 1.727128e-02 -3.544497e-02) (-7.129816e-04 3.390041e-04 -6.178077e-03)) ((7.919576e-08 1.115892e-07 -7.878426e-09) (-4.492968e-06 -9.584595e-06 1.809184e-08))
8.937654      	((-3.826140e-02 1.802916e-02 -3.723403e-02) (-7.682010e-04 3.650912e-04 -6.233214e-03)) ((7.713868e-08 1.017857e-07 -9.394647e-09) (-4.555912e-06 -9.775326e-06 5.297260e-08))
9.062575      	((-3.943694e-02 1.858058e-02 -3.898925e-02) (-8.212844e-04 3.898657e-04 -6.293679e-03)) ((7.292580e-08 8.931935e-08 -1.169437e-08) (-4.579600e-06 -9.848750e-06 1.114648e-07))
9.187374      	((-4.008544e-02 1.887518e-02 -4.062967e-02) (-8.700506e-04 4.120172e-04 -6.357513e-03)) ((6.691552e-08 7.287193e-08 -1.572043e-08) (-4.582738e-06 -9.813612e-06 1.877642e-07))
9.312063      	((-4.009738e-02 1.884823e-02 -4.197216e-02) (-9.122943e-04 4.301337e-04 -6.421288e-03)) ((5.802817e-08 5.311119e-08 -2.120219e-08) (-4.577781e-06 -9.682855e-06 2.823052e-07))
9.436658      	((-3.931993e-02 1.841902e-02 -4.285768e-02) (-9.445868e-04 4.428496e-04 -6.480483e-03)) ((4.455519e-08 2.858007e-08 -2.687611e-08) (-4.554991e-06 -9.497822e-06 3.945275e-07))
9.561183      	((-3.763423e-02 1.755948e-02 -4.310494e-02) (-9.621625e-04 4.484919e-04 -6.531308e-03)) ((2.741495e-08 -2.257174e-09 -3.165959e-08) (-4.499404e-06 -9.302509e-06 5.130801e-07))
9.685672      	((-3.506786e-02 1.625458e-02 -4.266796e-02) (-9.614167e-04 4.453675e-04 -6.571167e-03)) ((9.885726e-09 -3.609671e-08 -3.451690e-08) (-4.400457e-06 -9.096127e-06 6.164732e-07))
9.810167      	((-3.155981e-02 1.452105e-02 -4.152039e-02) (-9.391494e-04 4.318669e-04 -6.598229e-03)) ((-5.079465e-09 -6.735360e-08 -3.478365e-08) (-4.268860e-06 -8.891840e-06 7.073306e-07))
9.934718      	((-2.718407e-02 1.242601e-02 -3.987457e-02) (-8.923833e-04 4.070182e-04 -6.611801e-03)) ((-1.261660e-08 -8.623563e-08 -3.138254e-08) (-4.134262e-06 -8.717944e-06 7.911444e-07))
10.059378     	((-2.224252e-02 1.005856e-02 -3.797483e-02) (-8.216688e-04 3.703835e-04 -6.615109e-03)) ((-1.053573e-08 -8.671601e-08 -2.711888e-08) (-4.039989e-06 -8.540930e-06 8.466898e-07))
10.184211     	((-1.711587e-02 7.677546e-03 -3.610564e-02) (-7.310774e-04 3.241780e-04 -6.613214e-03)) ((-4.455497e-09 -7.896725e-08 -2.432082e-08) (-3.946440e-06 -8.293943e-06 8.668686e-07))
10.309275     	((-1.234555e-02 5.470524e-03 -3.434711e-02) (-6.268841e-04 2.718824e-04 -6.609503e-03)) ((-2.779312e-10 -8.413203e-08 -2.201406e-08) (-3.830433e-06 -7.971829e-06 8.639158e-07))
10.434618     	((-8.167987e-03 3.608940e-03 -3.287076e-02) (-5.177730e-04 2.180569e-04 -6.604755e-03)) ((1.560051e-09 -9.947303e-08 -1.903957e-08) (-3.717395e-06 -7.573668e-06 8.493436e-07))
10.560269     	((-4.877100e-03 2.173698e-03 -3.182591e-02) (-4.115541e-04 1.661216e-04 -6.601464e-03)) ((-2.430311e-09 -1.103991e-07 -1.561823e-08) (-3.627505e-06 -7.131393e-06 8.136229e-07))
10.686239     	((-2.677527e-03 1.284446e-03 -3.106859e-02) (-3.133289e-04 1.195223e-04 -6.598787e-03)) ((-9.686507e-09 -1.151968e-07 -1.347778e-08) (-3.569276e-06 -6.805712e-06 7.868247e-07))
10.81252      	((-1.341334e-03 8.143866e-04 -3.056392e-02) (-2.279441e-04 8.230458e-05 -6.598249e-03)) ((-1.344678e-08 -1.148068e-07 -1.116061e-08) (-3.445699e-06 -6.540185e-06 7.745718e-07))
10.939088     	((-7.664764e-04 7.378111e-04 -3.015934e-02) (-1.563995e-04 5.527995e-05 -6.601603e-03)) ((-1.530025e-08 -1.136679e-07 -8.079664e-09) (-3.234118e-06 -6.352931e-06 7.600435e-07))
11.065912     	((-7.662622e-04 9.563646e-04 -2.973074e-02) (-9.579876e-05 3.697676e-05 -6.607067e-03)) ((-1.740741e-08 -1.156016e-07 -4.374379e-09) (-3.008310e-06 -6.422820e-06 7.390377e-07))
11.192958     	((-1.179917e-03 1.320716e-03 -2.925330e-02) (-4.440274e-05 2.518426e-05 -6.611952e-03)) ((-2.195178e-08 -1.178931e-07 -1.285632e-09) (-2.843690e-06 -6.804450e-06 7.152688e-07))
11.32018      	((-1.771710e-03 1.755078e-03 -2.858027e-02) (-4.234584e-06 1.820596e-05 -6.614081e-03)) ((-2.541096e-08 -1.191125e-07 1.224516e-09) (-2.745443e-06 -7.302641e-06 6.618232e-07))
