# Forces      
# CofR        : (0.000000e+00 0.000000e+00 0.000000e+00)
# Time        forces(pressure viscous)	moments(pressure viscous)
0             	((0.000000e+00 0.000000e+00 0.000000e+00) (3.671454e-14 -7.940951e-04 -5.100090e-14)) ((0.000000e+00 0.000000e+00 0.000000e+00) (2.713162e-15 -3.631431e-16 2.901875e-10))
0.012         	((-2.431337e-07 -2.309475e-01 -1.983282e-07) (5.121044e-10 -9.095897e-04 3.529966e-10)) ((-7.385887e-11 -1.516088e-12 4.337769e-08) (-6.381687e-12 -1.433989e-13 5.429014e-10))
0.0264        	((-4.569124e-06 1.998626e-02 -3.532513e-06) (-1.682039e-09 -9.238550e-04 -2.479327e-09)) ((4.748386e-11 -1.767275e-11 -2.361841e-09) (-1.779125e-12 2.347634e-12 6.243640e-10))
0.04368       	((3.164249e-06 4.618871e-02 5.013170e-06) (1.903674e-09 -8.170251e-04 -7.546403e-10)) ((1.602315e-10 1.112532e-12 -1.257916e-08) (1.963136e-11 4.272175e-12 3.896294e-10))
0.064416      	((1.248850e-07 4.145796e-04 -6.421915e-07) (9.215331e-09 -7.217175e-04 2.001352e-10)) ((-8.062671e-11 -8.594925e-13 1.399613e-09) (-2.344125e-11 7.684778e-12 2.038543e-10))
0.0892992     	((5.828678e-07 -2.581305e-04 -9.693249e-07) (1.837020e-08 -6.651132e-04 -7.391762e-09)) ((-9.330319e-12 1.576523e-11 5.515129e-10) (-6.114068e-11 1.476957e-11 -4.544105e-10))
0.119159      	((-8.871769e-09 8.062914e-04 -3.626053e-07) (2.767090e-08 -6.141337e-04 -1.001492e-08)) ((-2.261327e-11 5.212268e-12 -7.424761e-10) (-3.326385e-11 1.429940e-11 -1.047373e-09))
0.154991      	((-2.446450e-07 3.350581e-04 -1.843649e-08) (2.595178e-08 -5.614296e-04 -8.134697e-09)) ((-3.420574e-11 -1.417757e-12 -3.463551e-10) (-3.243710e-12 6.679162e-12 -1.239678e-09))
0.197989      	((9.298449e-08 5.590312e-05 -4.980520e-08) (1.459115e-08 -5.100985e-04 -7.038109e-09)) ((-2.201495e-11 2.170961e-12 -8.199848e-11) (3.654397e-12 7.036950e-13 -1.365924e-09))
0.249587      	((-6.114440e-08 -3.826755e-05 -2.054809e-08) (-6.443750e-09 -4.617721e-04 -5.461195e-09)) ((-1.570115e-11 8.477018e-13 -4.262942e-11) (-7.146266e-12 9.353695e-13 -1.509149e-09))
0.311504      	((-1.436018e-07 -8.612469e-05 -5.000959e-08) (-2.417403e-08 -4.177037e-04 -4.368733e-09)) ((-7.654515e-12 3.716158e-13 -2.073104e-11) (-1.722566e-11 3.793919e-12 -1.439902e-09))
0.385805      	((-1.349589e-07 -1.127622e-04 -4.302332e-08) (-3.147197e-08 -3.785495e-04 -3.752981e-09)) ((-3.794014e-12 1.597977e-13 -3.290416e-12) (-1.800922e-11 6.005894e-12 -1.237228e-09))
0.474966      	((-1.058849e-07 -1.254850e-04 -3.437176e-08) (-3.407198e-08 -3.442998e-04 -3.407003e-09)) ((-2.668773e-12 9.215800e-13 8.035790e-12) (-2.183238e-11 6.736587e-12 -1.044843e-09))
0.581959      	((-6.778550e-08 -1.300886e-04 -2.372615e-08) (-3.231061e-08 -3.141257e-04 -2.996211e-09)) ((-1.953666e-12 5.255939e-13 1.650472e-11) (-3.345203e-11 5.396929e-12 -9.657822e-10))
0.710351      	((-3.552777e-08 -1.296029e-04 -1.355800e-08) (-2.598217e-08 -2.865563e-04 -1.966067e-09)) ((-1.363009e-12 4.084755e-13 1.771852e-11) (-3.844232e-11 5.980232e-12 -1.153260e-09))
0.864421      	((3.055887e-09 -1.256430e-04 -2.146341e-09) (-1.592478e-08 -2.605250e-04 -1.346577e-09)) ((-5.958118e-13 5.522644e-13 7.422573e-12) (-3.277508e-11 8.055165e-12 -1.418777e-09))
1.049306      	((2.083145e-08 -1.195320e-04 9.085175e-10) (-7.788182e-09 -2.359820e-04 -1.217010e-09)) ((-1.067481e-13 -1.115198e-15 1.185168e-12) (-1.565989e-11 1.083054e-11 -1.658597e-09))
1.271167      	((1.673718e-08 -1.124976e-04 6.821395e-09) (-4.818259e-09 -2.132823e-04 -8.561908e-10)) ((8.135564e-14 -1.878052e-13 6.042488e-12) (1.191223e-11 1.221169e-11 -1.804054e-09))
1.5374        	((2.297822e-08 -1.058050e-04 2.963954e-09) (-4.194176e-09 -1.927264e-04 -6.396795e-10)) ((1.063291e-13 1.638853e-15 1.671560e-11) (3.935237e-11 1.214056e-11 -1.750674e-09))
1.85688       	((1.292870e-08 -1.001679e-04 -1.493101e-09) (-2.839768e-09 -1.744536e-04 -6.502725e-10)) ((-4.628138e-13 3.913885e-14 2.536423e-11) (6.493721e-11 1.113065e-11 -1.604507e-09))
2.240256      	((3.706155e-09 -9.598706e-05 1.607152e-09) (-1.750940e-09 -1.584019e-04 -5.442121e-10)) ((-9.587643e-13 1.691990e-14 3.193933e-11) (8.555524e-11 1.019346e-11 -1.435803e-09))
2.700307      	((-8.668008e-09 -9.341340e-05 -4.871357e-09) (-2.523519e-09 -1.443981e-04 -4.099710e-10)) ((-1.403798e-12 -1.288680e-13 3.816946e-11) (1.011224e-10 9.154175e-12 -1.247704e-09))
3.252369      	((-2.272599e-08 -9.273578e-05 -1.844495e-08) (-2.517902e-09 -1.322571e-04 -7.068322e-10)) ((-1.620890e-12 -2.742927e-13 4.971752e-11) (1.174723e-10 7.984814e-12 -1.161705e-09))
3.914842      	((-2.341456e-08 -9.382948e-05 -1.825941e-08) (-3.056379e-09 -1.218249e-04 -1.257784e-09)) ((-1.445302e-12 -4.136922e-13 6.207664e-11) (1.270889e-10 7.263546e-12 -1.095468e-09))
4.709811      	((-2.772587e-08 -9.706108e-05 -3.315261e-08) (-3.646663e-09 -1.129624e-04 -1.961110e-09)) ((-1.348854e-12 -5.268498e-13 7.774947e-11) (1.214084e-10 6.678054e-12 -1.036366e-09))
5.663773      	((-1.451913e-08 -1.024775e-04 -3.076798e-08) (-1.634808e-09 -1.055041e-04 -2.561524e-09)) ((-1.520101e-12 -4.610978e-13 9.956772e-11) (1.056903e-10 6.324410e-12 -1.061195e-09))
6.808528      	((-5.761566e-09 -1.100673e-04 -2.912589e-08) (2.084427e-09 -9.931593e-05 -2.932740e-09)) ((-1.323244e-12 -3.189755e-13 1.281940e-10) (8.782484e-11 5.830954e-12 -1.165654e-09))
8.179156      	((1.167187e-08 -1.197086e-04 -2.497353e-08) (3.909120e-09 -9.424940e-05 -3.208894e-09)) ((-1.130036e-12 -2.205533e-13 1.636036e-10) (7.174354e-11 6.390809e-12 -1.482056e-09))
9.77607       	((2.719817e-08 -1.310888e-04 -1.561391e-08) (4.695483e-09 -9.019691e-05 -3.453071e-09)) ((-9.361972e-13 -3.908945e-13 2.010401e-10) (5.022291e-11 6.388539e-12 -1.924285e-09))
11.599375     	((3.156616e-08 -1.434805e-04 -1.051634e-08) (3.811292e-09 -8.703549e-05 -3.825774e-09)) ((-7.092692e-13 -5.089640e-13 2.441334e-10) (3.835384e-11 7.407247e-12 -2.293418e-09))
13.648571     	((3.781584e-08 -1.565040e-04 -1.081411e-08) (3.407302e-09 -8.461069e-05 -4.460994e-09)) ((-8.010149e-13 -8.034843e-13 2.854384e-10) (5.924463e-11 7.176118e-12 -2.505466e-09))
15.896746     	((4.381152e-08 -1.692244e-04 -4.106915e-09) (4.108761e-09 -8.275301e-05 -4.627484e-09)) ((-1.627900e-12 -1.422181e-12 3.205561e-10) (7.637522e-11 5.218914e-12 -2.520072e-09))
18.130592     	((4.767658e-08 -1.802948e-04 6.186242e-10) (5.354133e-09 -8.139680e-05 -3.600460e-09)) ((-2.079037e-12 -1.592290e-12 3.477696e-10) (5.076728e-11 4.405776e-12 -2.381051e-09))
20.352157     	((8.014705e-08 -1.893944e-04 2.820288e-08) (8.669269e-09 -8.024297e-05 -9.806189e-10)) ((-2.056283e-12 -1.960163e-12 3.727772e-10) (-3.571077e-11 7.689460e-12 -2.037957e-09))
22.569887     	((1.062742e-07 -1.955803e-04 5.496337e-08) (1.464683e-08 -7.916091e-05 2.813479e-09)) ((-1.951767e-12 -2.313114e-12 3.934180e-10) (-1.341128e-10 7.711700e-12 -1.613309e-09))
24.793426     	((1.253162e-07 -2.000345e-04 8.388915e-08) (2.010504e-08 -7.816852e-05 6.780583e-09)) ((-1.217946e-12 -2.148800e-12 4.118648e-10) (-2.018641e-10 5.659927e-12 -1.314594e-09))
27.027799     	((1.230016e-07 -2.020452e-04 8.545554e-08) (2.091059e-08 -7.728117e-05 9.366678e-09)) ((-8.148127e-13 -1.846681e-12 4.249313e-10) (-2.020297e-10 3.436418e-12 -1.283484e-09))
29.272921     	((1.214635e-07 -2.023646e-04 8.756824e-08) (1.907137e-08 -7.645455e-05 1.063137e-08)) ((-6.733866e-13 -1.663291e-12 4.333056e-10) (-1.663033e-10 2.769646e-12 -1.439666e-09))
31.526785     	((1.231116e-07 -2.014721e-04 9.524798e-08) (1.935209e-08 -7.564204e-05 1.107679e-08)) ((-5.391326e-13 -1.493531e-12 4.382120e-10) (-1.024117e-10 3.126821e-12 -1.519843e-09))
33.788034     	((1.411345e-07 -2.003116e-04 1.039699e-07) (1.946549e-08 -7.487305e-05 1.099689e-08)) ((-2.768471e-13 -9.780855e-13 4.399077e-10) (-1.935015e-11 3.227266e-12 -1.540107e-09))
36.054192     	((1.717831e-07 -1.993247e-04 1.151505e-07) (2.108516e-08 -7.418482e-05 1.123867e-08)) ((-1.537685e-13 -4.802375e-13 4.391183e-10) (5.085254e-11 6.061272e-12 -1.567012e-09))
38.323473     	((1.824903e-07 -1.980129e-04 1.220910e-07) (2.306531e-08 -7.356766e-05 1.167688e-08)) ((-3.396125e-14 1.396647e-13 4.378274e-10) (1.247505e-10 1.095116e-12 -1.584441e-09))
40.596881     	((2.113347e-07 -1.964082e-04 1.261039e-07) (2.463134e-08 -7.299118e-05 1.156649e-08)) ((-1.069830e-13 6.455260e-13 4.371671e-10) (2.120040e-10 -3.585471e-13 -1.579372e-09))
42.874918     	((2.426662e-07 -1.948040e-04 1.352745e-07) (2.705249e-08 -7.244308e-05 1.130405e-08)) ((-2.369371e-13 8.109508e-13 4.367871e-10) (3.044559e-10 1.590084e-12 -1.596432e-09))
45.157511     	((2.778703e-07 -1.936329e-04 1.395300e-07) (2.937996e-08 -7.193274e-05 1.105703e-08)) ((-5.135901e-13 9.125595e-13 4.368403e-10) (3.962558e-10 3.395089e-12 -1.696616e-09))
47.444709     	((3.375494e-07 -1.925353e-04 1.478507e-07) (3.183528e-08 -7.145781e-05 1.071867e-08)) ((-5.903065e-13 9.814437e-13 4.371616e-10) (4.802030e-10 6.148312e-12 -1.838185e-09))
49.736501     	((4.236548e-07 -1.915451e-04 1.791195e-07) (3.565342e-08 -7.101111e-05 1.117727e-08)) ((-2.564021e-13 9.051479e-13 4.375332e-10) (5.522432e-10 6.254588e-12 -2.012385e-09))
52.032935     	((4.996916e-07 -1.906655e-04 2.022608e-07) (4.029926e-08 -7.059502e-05 1.250172e-08)) ((-3.014796e-13 9.311919e-13 4.378013e-10) (6.184995e-10 6.897137e-12 -2.195413e-09))
54.334322     	((5.873061e-07 -1.897995e-04 2.213588e-07) (4.596594e-08 -7.020722e-05 1.394634e-08)) ((-2.584582e-13 8.629223e-13 4.379340e-10) (6.835745e-10 6.498915e-12 -2.389978e-09))
56.640989     	((6.905763e-07 -1.890905e-04 2.436484e-07) (5.278782e-08 -6.985022e-05 1.537271e-08)) ((-1.423055e-13 9.070519e-13 4.382425e-10) (7.494440e-10 3.502461e-12 -2.592191e-09))
58.952829     	((8.101614e-07 -1.884660e-04 2.769979e-07) (6.109433e-08 -6.952368e-05 1.728967e-08)) ((8.891669e-14 9.886629e-13 4.387153e-10) (8.144874e-10 1.450805e-12 -2.790836e-09))
61.269653     	((9.225221e-07 -1.878273e-04 3.036102e-07) (7.041054e-08 -6.922115e-05 1.953518e-08)) ((1.951015e-13 9.980869e-13 4.392106e-10) (8.625818e-10 5.412363e-13 -2.981916e-09))
63.591298     	((1.050220e-06 -1.871306e-04 3.332085e-07) (8.078255e-08 -6.893600e-05 2.221043e-08)) ((3.782963e-13 1.150715e-12 4.394678e-10) (8.882913e-10 1.323575e-12 -3.158092e-09))
65.9176       	((1.188498e-06 -1.864532e-04 3.690259e-07) (9.272352e-08 -6.866683e-05 2.527882e-08)) ((6.313576e-13 1.391814e-12 4.396634e-10) (9.219717e-10 1.720654e-12 -3.295609e-09))
68.248418     	((1.338523e-06 -1.856347e-04 4.075451e-07) (1.062360e-07 -6.840660e-05 2.862050e-08)) ((8.789149e-13 1.719732e-12 4.395761e-10) (9.695048e-10 1.660818e-12 -3.424936e-09))
70.583677     	((1.477455e-06 -1.848792e-04 4.510440e-07) (1.203015e-07 -6.815395e-05 3.235023e-08)) ((1.119571e-12 2.028289e-12 4.395438e-10) (1.026809e-09 4.986110e-12 -3.551569e-09))
72.923326     	((1.613671e-06 -1.842879e-04 4.935056e-07) (1.344538e-07 -6.791601e-05 3.634359e-08)) ((1.317279e-12 2.370356e-12 4.395751e-10) (1.082881e-09 1.037220e-11 -3.666115e-09))
75.267317     	((1.799977e-06 -1.837888e-04 5.411113e-07) (1.506565e-07 -6.769421e-05 4.070427e-08)) ((1.529907e-12 2.710812e-12 4.394766e-10) (1.131501e-09 1.360531e-11 -3.771679e-09))
77.615487     	((1.974563e-06 -1.832545e-04 5.883375e-07) (1.685524e-07 -6.748446e-05 4.548697e-08)) ((1.704868e-12 3.033129e-12 4.394297e-10) (1.171392e-09 1.308343e-11 -3.868655e-09))
79.967699     	((2.187092e-06 -1.827255e-04 6.458980e-07) (1.882388e-07 -6.728341e-05 5.079037e-08)) ((1.984697e-12 3.189774e-12 4.394955e-10) (1.208189e-09 1.198634e-11 -3.968401e-09))
82.323779     	((2.432285e-06 -1.822407e-04 7.200058e-07) (2.106897e-07 -6.708958e-05 5.713032e-08)) ((2.545082e-12 3.200027e-12 4.398202e-10) (1.248696e-09 9.836173e-12 -4.083462e-09))
84.683565     	((2.721761e-06 -1.817432e-04 7.999771e-07) (2.364540e-07 -6.690040e-05 6.440090e-08)) ((3.146230e-12 3.084022e-12 4.401520e-10) (1.300653e-09 7.096526e-12 -4.244103e-09))
87.046933     	((3.033129e-06 -1.812166e-04 8.876744e-07) (2.647788e-07 -6.671491e-05 7.245401e-08)) ((3.874315e-12 2.793198e-12 4.403060e-10) (1.357820e-09 6.500754e-12 -4.475912e-09))
89.413739     	((3.419105e-06 -1.806948e-04 9.851847e-07) (2.972408e-07 -6.653521e-05 8.137124e-08)) ((4.660102e-12 2.426638e-12 4.402705e-10) (1.425850e-09 5.499156e-12 -4.778696e-09))
91.783831     	((3.824639e-06 -1.801581e-04 1.102232e-06) (3.336283e-07 -6.636169e-05 9.141498e-08)) ((5.572598e-12 2.094992e-12 4.400883e-10) (1.521132e-09 5.787997e-12 -5.141670e-09))
94.15706      	((4.259427e-06 -1.796730e-04 1.220885e-06) (3.729033e-07 -6.619542e-05 1.021700e-07)) ((6.473362e-12 1.718393e-12 4.399916e-10) (1.644071e-09 7.851245e-12 -5.575194e-09))
96.533289     	((4.746724e-06 -1.792463e-04 1.357864e-06) (4.155900e-07 -6.603766e-05 1.139896e-07)) ((7.358938e-12 1.395632e-12 4.398362e-10) (1.789652e-09 9.748335e-12 -6.091008e-09))
98.912385     	((5.296142e-06 -1.788566e-04 1.511783e-06) (4.628230e-07 -6.588805e-05 1.272621e-07)) ((8.496122e-12 1.022529e-12 4.395829e-10) (1.956260e-09 1.017996e-11 -6.683919e-09))
101.294214    	((5.927566e-06 -1.785155e-04 1.679835e-06) (5.164374e-07 -6.574679e-05 1.419567e-07)) ((9.638474e-12 6.885881e-13 4.392834e-10) (2.139200e-09 1.001822e-11 -7.355901e-09))
103.678638    	((6.608726e-06 -1.781904e-04 1.876036e-06) (5.763520e-07 -6.561331e-05 1.586676e-07)) ((1.103016e-11 4.839675e-13 4.389805e-10) (2.342120e-09 9.649787e-12 -8.102378e-09))
106.0655      	((7.344765e-06 -1.778746e-04 2.081472e-06) (6.421238e-07 -6.548684e-05 1.772877e-07)) ((1.241964e-11 4.757445e-13 4.386683e-10) (2.563091e-09 1.042521e-11 -8.914314e-09))
108.454631    	((8.133273e-06 -1.775619e-04 2.302311e-06) (7.136667e-07 -6.536677e-05 1.975860e-07)) ((1.389389e-11 5.968649e-13 4.382937e-10) (2.796542e-09 9.396779e-12 -9.793983e-09))
110.845854    	((8.983603e-06 -1.772496e-04 2.536900e-06) (7.912050e-07 -6.525234e-05 2.194494e-07)) ((1.542911e-11 8.668661e-13 4.379213e-10) (3.046708e-09 3.519243e-12 -1.074714e-08))
113.238985    	((9.904273e-06 -1.769387e-04 2.793060e-06) (8.756194e-07 -6.514281e-05 2.430715e-07)) ((1.723146e-11 1.164860e-12 4.375673e-10) (3.310932e-09 -5.465044e-12 -1.176218e-08))
115.63383     	((1.090977e-05 -1.766231e-04 3.079864e-06) (9.681188e-07 -6.503726e-05 2.691574e-07)) ((1.929202e-11 1.412945e-12 4.373262e-10) (3.591160e-09 -1.491082e-11 -1.282360e-08))
118.030195    	((1.200600e-05 -1.763389e-04 3.390082e-06) (1.069809e-06 -6.493605e-05 2.980851e-07)) ((2.146852e-11 1.540560e-12 4.371988e-10) (3.886761e-09 -2.756244e-11 -1.392756e-08))
120.427893    	((1.320169e-05 -1.760866e-04 3.725411e-06) (1.181352e-06 -6.483969e-05 3.299815e-07)) ((2.373998e-11 1.565091e-12 4.370389e-10) (4.192846e-09 -4.026581e-11 -1.509246e-08))
122.826749    	((1.450111e-05 -1.758668e-04 4.091938e-06) (1.303603e-06 -6.474864e-05 3.650288e-07)) ((2.626386e-11 1.402036e-12 4.368348e-10) (4.509433e-09 -5.155894e-11 -1.632756e-08))
125.225833    	((1.592172e-05 -1.756930e-04 4.496476e-06) (1.437658e-06 -6.466402e-05 4.036178e-07)) ((2.905083e-11 1.014923e-12 4.365911e-10) (4.840044e-09 -6.017111e-11 -1.763566e-08))
127.624911    	((1.748199e-05 -1.755535e-04 4.925963e-06) (1.584976e-06 -6.458643e-05 4.456785e-07)) ((3.179960e-11 5.059621e-13 4.362982e-10) (5.187950e-09 -6.306054e-11 -1.902214e-08))
130.023745    	((1.920446e-05 -1.754481e-04 5.395940e-06) (1.747557e-06 -6.451602e-05 4.912644e-07)) ((3.462345e-11 -2.429634e-13 4.360071e-10) (5.568889e-09 -6.603199e-11 -2.049981e-08))
132.422087    	((2.111333e-05 -1.753661e-04 5.916738e-06) (1.927420e-06 -6.445265e-05 5.408868e-07)) ((3.770142e-11 -1.379179e-12 4.356605e-10) (6.006391e-09 -7.909141e-11 -2.208673e-08))
134.819669    	((2.323620e-05 -1.753076e-04 6.491779e-06) (2.126811e-06 -6.439590e-05 5.949952e-07)) ((4.114181e-11 -2.812302e-12 4.351667e-10) (6.522480e-09 -9.338962e-11 -2.380775e-08))
137.216198    	((2.557598e-05 -1.752959e-04 7.143294e-06) (2.347770e-06 -6.434640e-05 6.545974e-07)) ((4.516516e-11 -4.662192e-12 4.345979e-10) (7.136535e-09 -1.103787e-10 -2.567864e-08))
139.611356    	((2.815995e-05 -1.753227e-04 7.861669e-06) (2.592560e-06 -6.430458e-05 7.202268e-07)) ((4.936338e-11 -6.726435e-12 4.339838e-10) (7.856394e-09 -1.374802e-10 -2.771552e-08))
142.004803    	((3.100538e-05 -1.754101e-04 8.649710e-06) (2.863123e-06 -6.427130e-05 7.926722e-07)) ((5.385360e-11 -8.885947e-12 4.334801e-10) (8.642553e-09 -1.702888e-10 -2.995039e-08))
144.396174    	((3.412533e-05 -1.755727e-04 9.517888e-06) (3.161428e-06 -6.424810e-05 8.738415e-07)) ((5.865267e-11 -1.115136e-11 4.330446e-10) (9.433375e-09 -1.957908e-10 -3.239716e-08))
146.785072    	((3.752363e-05 -1.758216e-04 1.048147e-05) (3.487331e-06 -6.423584e-05 9.652068e-07)) ((6.391298e-11 -1.368143e-11 4.325131e-10) (1.021378e-08 -2.004891e-10 -3.514328e-08))
149.171073    	((4.126193e-05 -1.761525e-04 1.154712e-05) (3.842880e-06 -6.423388e-05 1.067150e-06)) ((6.990800e-11 -1.644310e-11 4.318406e-10) (1.102705e-08 -1.781661e-10 -3.827658e-08))
151.553734    	((4.534070e-05 -1.766145e-04 1.271429e-05) (4.231667e-06 -6.424446e-05 1.179234e-06)) ((7.677363e-11 -1.970572e-11 4.308403e-10) (1.193257e-08 -1.227412e-10 -4.176815e-08))
153.932595    	((4.975932e-05 -1.771965e-04 1.398848e-05) (4.656236e-06 -6.427014e-05 1.302210e-06)) ((8.403328e-11 -2.355693e-11 4.296623e-10) (1.292552e-08 -4.214693e-11 -4.553401e-08))
156.307157    	((5.455006e-05 -1.779654e-04 1.538062e-05) (5.120522e-06 -6.431472e-05 1.436887e-06)) ((9.186129e-11 -2.783204e-11 4.284453e-10) (1.400717e-08 1.931993e-11 -4.949687e-08))
158.676911    	((5.976250e-05 -1.789223e-04 1.688342e-05) (5.629599e-06 -6.438122e-05 1.583839e-06)) ((1.002836e-10 -3.316933e-11 4.271224e-10) (1.513860e-08 2.701408e-11 -5.361498e-08))
161.041326    	((6.537053e-05 -1.800869e-04 1.850294e-05) (6.184596e-06 -6.447332e-05 1.742624e-06)) ((1.091203e-10 -3.914473e-11 4.256069e-10) (1.637015e-08 -6.767043e-12 -5.792520e-08))
163.399879    	((7.138246e-05 -1.815228e-04 2.023636e-05) (6.783431e-06 -6.459519e-05 1.914023e-06)) ((1.181645e-10 -4.618403e-11 4.240560e-10) (1.772881e-08 -3.022408e-11 -6.264237e-08))
165.752073    	((7.782785e-05 -1.832225e-04 2.208843e-05) (7.428817e-06 -6.474973e-05 2.099457e-06)) ((1.278736e-10 -5.434638e-11 4.226390e-10) (1.916738e-08 -4.730178e-11 -6.771304e-08))
168.09736     	((8.462764e-05 -1.852305e-04 2.407064e-05) (8.123540e-06 -6.494037e-05 2.299412e-06)) ((1.380884e-10 -6.383084e-11 4.214694e-10) (2.067924e-08 -6.821656e-11 -7.295278e-08))
170.435228    	((9.174007e-05 -1.875762e-04 2.611852e-05) (8.867495e-06 -6.517248e-05 2.513642e-06)) ((1.481681e-10 -7.471664e-11 4.201558e-10) (2.221093e-08 -7.626543e-11 -7.825316e-08))
172.765185    	((9.912312e-05 -1.903585e-04 2.825922e-05) (9.660290e-06 -6.545203e-05 2.742187e-06)) ((1.578786e-10 -8.700788e-11 4.189354e-10) (2.373608e-08 -1.151881e-10 -8.348743e-08))
175.086885    	((1.066636e-04 -1.935857e-04 3.043145e-05) (1.049898e-05 -6.578438e-05 2.983561e-06)) ((1.664202e-10 -1.009585e-10 4.180451e-10) (2.521108e-08 -1.549955e-10 -8.849284e-08))
177.399974    	((1.142969e-04 -1.972797e-04 3.263388e-05) (1.137531e-05 -6.617638e-05 3.235474e-06)) ((1.745955e-10 -1.160519e-10 4.181480e-10) (2.667804e-08 -1.561378e-10 -9.322672e-08))
179.704146    	((1.218687e-04 -2.013864e-04 3.484629e-05) (1.227921e-05 -6.663156e-05 3.497806e-06)) ((1.828721e-10 -1.323583e-10 4.188452e-10) (2.805058e-08 -1.368826e-10 -9.766232e-08))
181.999145    	((1.292176e-04 -2.058991e-04 3.696660e-05) (1.319830e-05 -6.714964e-05 3.766521e-06)) ((1.889844e-10 -1.495120e-10 4.201581e-10) (2.920605e-08 -1.277887e-10 -1.017152e-07))
