# Forces      
# CofR        : (0.000000e+00 0.000000e+00 0.000000e+00)
# Time        forces(pressure viscous)	moments(pressure viscous)
0             	((0.000000e+00 0.000000e+00 0.000000e+00) (0.000000e+00 0.000000e+00 0.000000e+00)) ((0.000000e+00 0.000000e+00 0.000000e+00) (0.000000e+00 0.000000e+00 0.000000e+00))
0.012         	((3.881190e-08 -1.450339e-06 -2.408593e-09) (1.228042e-09 -3.790636e-08 1.291321e-10)) ((3.659417e-13 -5.259308e-14 3.404995e-08) (-1.042852e-13 3.423637e-12 4.420674e-05))
0.0264        	((5.383245e-08 -2.432693e-07 5.909705e-10) (2.813262e-09 -5.422565e-08 2.613121e-10)) ((-8.006731e-14 3.668450e-12 1.720623e-08) (-1.424034e-12 9.809252e-12 4.051223e-05))
0.04368       	((1.202564e-07 -7.898904e-07 -1.251078e-08) (4.091701e-09 -5.768035e-08 4.301593e-10)) ((1.592071e-12 5.393459e-12 1.133151e-08) (-3.685125e-12 2.205133e-11 3.677704e-05))
0.064416      	((5.433475e-08 -6.131749e-08 2.475647e-09) (5.689870e-09 -5.197787e-08 6.621928e-10)) ((1.317651e-12 5.641605e-12 8.252517e-09) (-3.413824e-12 3.816944e-11 3.313497e-05))
0.0892992     	((1.721516e-07 -4.521066e-07 -5.544037e-09) (9.098650e-09 -4.609626e-08 9.188533e-10)) ((3.758610e-12 6.603670e-12 7.437110e-09) (4.174404e-12 5.397547e-11 2.973315e-05))
0.119159      	((-1.290000e-07 1.824337e-08 -5.681503e-09) (1.409217e-08 -3.866877e-08 1.097577e-09)) ((4.538480e-12 4.976098e-12 6.345333e-09) (7.302765e-12 6.068259e-11 2.668436e-05))
0.154991      	((1.846286e-08 -2.750638e-07 -2.797933e-09) (1.844658e-08 -2.809218e-08 1.231370e-09)) ((4.395715e-12 5.348157e-12 5.590130e-09) (2.999390e-12 5.866429e-11 2.403285e-05))
0.197989      	((-1.914824e-08 -1.075880e-07 -2.116190e-09) (1.841375e-08 -1.611606e-08 1.164829e-09)) ((3.887258e-12 3.641403e-12 4.945394e-09) (5.009089e-13 5.468931e-11 2.174519e-05))
0.249587      	((-4.903865e-08 -1.518905e-07 -2.454489e-10) (2.010843e-08 -6.487335e-09 1.185413e-09)) ((3.019008e-12 4.204394e-12 4.403136e-09) (4.531462e-12 5.404409e-11 1.970023e-05))
0.311504      	((-1.051748e-07 -5.220218e-08 1.130256e-09) (2.429050e-08 -1.925686e-09 1.607015e-09)) ((9.950677e-13 2.952426e-12 3.856075e-09) (6.581117e-12 5.067041e-11 1.777189e-05))
0.385805      	((-4.334624e-08 -1.282343e-07 7.656031e-09) (2.524794e-08 -8.151241e-09 1.650459e-09)) ((-2.037988e-12 2.118425e-12 3.329330e-09) (-5.834997e-12 4.581360e-11 1.593846e-05))
0.474966      	((-5.407498e-08 -1.027037e-07 1.983021e-09) (2.011377e-08 -2.102282e-08 1.378778e-09)) ((-3.113024e-12 -5.301008e-13 2.871147e-09) (-2.227793e-11 3.896503e-11 1.424662e-05))
0.581959      	((-9.284421e-09 -1.188269e-07 -4.349502e-09) (9.257546e-09 -2.949221e-08 1.019962e-09)) ((-2.822622e-12 -2.025682e-12 2.438005e-09) (-2.731378e-11 2.740553e-11 1.273319e-05))
0.710351      	((-3.149165e-08 -1.584753e-07 -5.350298e-09) (-7.331848e-09 -3.323664e-08 1.684616e-09)) ((-5.255059e-12 -2.185004e-12 2.054948e-09) (-2.042654e-11 2.126618e-11 1.140279e-05))
0.864421      	((-4.339869e-09 -1.937187e-07 6.869422e-09) (-1.551828e-08 -2.396950e-08 2.269136e-09)) ((-6.675787e-12 -9.825420e-13 1.735914e-09) (-4.446137e-12 9.421051e-12 1.023768e-05))
1.049306      	((-4.223159e-08 -1.151687e-07 7.100762e-09) (-1.695998e-08 -7.343111e-09 2.031620e-09)) ((-8.469233e-12 -1.974482e-12 1.481274e-09) (8.119824e-12 7.002735e-12 9.214936e-06))
1.271167      	((1.348000e-08 -1.971694e-08 1.029276e-08) (-1.409255e-08 2.743450e-09 5.090467e-10)) ((-1.284460e-11 -1.385421e-12 1.288934e-09) (1.152139e-11 3.292200e-11 8.317907e-06))
1.5374        	((1.803754e-08 -3.590984e-08 7.709544e-09) (-1.183893e-08 3.683785e-09 -1.748990e-10)) ((-1.264318e-11 -2.351533e-12 1.111394e-09) (-1.486460e-11 3.443079e-11 7.536743e-06))
1.85688       	((2.781854e-08 -4.554559e-08 1.430321e-08) (-5.328424e-09 9.534336e-09 -1.485893e-09)) ((-8.607925e-12 1.826364e-12 9.540941e-10) (-4.769480e-11 2.434406e-11 6.863090e-06))
2.240256      	((-2.225332e-08 -9.270995e-08 1.128164e-08) (-1.208845e-08 1.129922e-08 -1.971947e-09)) ((-1.056166e-11 1.251422e-12 8.203520e-10) (-6.293006e-11 -2.080787e-11 6.286111e-06))
2.700307      	((-3.759286e-08 -5.212101e-08 1.639405e-08) (-3.137460e-08 1.072292e-08 -2.668899e-09)) ((-1.190258e-11 1.939387e-12 6.985600e-10) (-1.516510e-10 -8.256793e-11 5.791798e-06))
3.252369      	((-3.771370e-08 -2.492100e-08 1.093011e-08) (-1.859511e-08 7.323377e-09 -3.924084e-09)) ((-1.115811e-11 2.910643e-12 6.013562e-10) (-2.882344e-10 -1.323241e-10 5.364586e-06))
3.914842      	((-5.713252e-09 1.565869e-08 1.235923e-08) (1.264509e-08 5.716641e-09 -3.481520e-09)) ((-7.206167e-12 5.624156e-12 5.202917e-10) (-3.689651e-10 -2.456736e-10 4.990066e-06))
4.709811      	((4.283368e-09 6.798657e-08 5.770392e-09) (3.047478e-08 3.363737e-09 -3.161337e-09)) ((-2.941510e-12 6.722261e-12 4.508837e-10) (-4.099398e-10 -3.574287e-10 4.657983e-06))
5.663773      	((1.836226e-08 8.418258e-08 3.743167e-09) (4.336261e-08 8.712483e-09 -3.123776e-09)) ((-1.309474e-12 1.019117e-11 3.987864e-10) (-3.716859e-10 -4.251731e-10 4.361391e-06))
6.808528      	((4.168582e-08 6.519508e-08 1.271772e-10) (5.009717e-08 2.014238e-08 -4.156624e-09)) ((-2.174515e-12 7.218742e-12 3.665219e-10) (-2.706478e-10 -4.387011e-10 4.094844e-06))
8.182233      	((3.333480e-08 2.445445e-08 -1.719280e-08) (4.640251e-08 5.132565e-09 -3.816501e-09)) ((-1.366690e-12 5.100994e-12 3.435057e-10) (-1.767776e-10 -4.415263e-10 3.854711e-06))
9.830305      	((3.375584e-08 8.245202e-10 -1.550039e-08) (3.167203e-08 -1.059855e-08 -2.149944e-09)) ((-4.656363e-13 -2.582229e-14 3.235352e-10) (-6.584318e-11 -4.548844e-10 3.639328e-06))
11.75834      	((-6.756016e-09 -1.137457e-08 -1.763083e-08) (1.216053e-08 -8.236428e-09 -5.357100e-09)) ((-3.746411e-14 -1.815319e-12 3.089788e-10) (8.416055e-11 -4.458161e-10 3.452019e-06))
13.972655     	((-1.793415e-08 -8.102889e-10 -1.032912e-08) (7.505460e-10 -2.640618e-09 -4.311408e-09)) ((3.501138e-13 -8.525756e-13 3.036920e-10) (1.901878e-10 -4.475712e-10 3.293904e-06))
16.480498     	((-1.816607e-08 -1.634778e-09 -1.416806e-08) (6.897781e-09 1.069042e-09 -4.404928e-09)) ((1.487092e-12 1.186541e-12 2.968242e-10) (2.961338e-10 -3.961949e-10 3.164996e-06))
19.290073     	((-5.862397e-09 2.787577e-09 -1.102271e-08) (2.404095e-08 -3.290171e-09 -2.746078e-09)) ((-1.138089e-12 2.597605e-12 2.888646e-10) (3.936134e-10 -3.312076e-10 3.063714e-06))
22.39135      	((-1.112007e-08 -1.144372e-08 -1.069645e-08) (3.450673e-08 -3.911882e-09 -3.738672e-09)) ((-2.359307e-12 3.540100e-12 2.846317e-10) (4.636211e-10 -2.372916e-10 2.988435e-06))
25.587241     	((-5.662064e-09 -1.352728e-08 -7.390216e-09) (3.228350e-08 -2.548526e-09 -2.289259e-09)) ((-2.113476e-12 3.161182e-12 2.830524e-10) (4.708773e-10 -1.344410e-10 2.938844e-06))
28.810538     	((-1.180234e-08 -2.004093e-09 -1.472266e-09) (2.242916e-08 6.954227e-09 1.627482e-09)) ((-3.516725e-14 2.646062e-12 2.786027e-10) (4.250414e-10 -7.307968e-11 2.912127e-06))
32.033532     	((2.154134e-08 3.573841e-08 3.392872e-10) (2.011192e-08 6.302175e-09 3.287088e-09)) ((2.058320e-12 1.450757e-12 2.721774e-10) (3.499313e-10 -8.282634e-11 2.906268e-06))
35.246727     	((1.676683e-08 4.315575e-08 -1.607205e-09) (2.347787e-08 -6.460223e-10 2.374584e-09)) ((2.243595e-12 1.055436e-12 2.667572e-10) (2.842355e-10 -1.442830e-10 2.919040e-06))
38.42493      	((3.020927e-08 7.853965e-08 -1.515306e-09) (5.988218e-09 1.167561e-08 2.674857e-09)) ((2.774551e-12 9.653678e-13 2.638978e-10) (2.444133e-10 -2.096435e-10 2.948536e-06))
41.556167     	((1.586480e-08 7.502553e-08 -3.648231e-09) (-1.758585e-09 1.034922e-08 3.154575e-09)) ((3.018258e-12 1.473219e-12 2.615430e-10) (2.590062e-10 -2.574645e-10 2.993026e-06))
44.63459      	((1.104544e-08 7.312808e-08 -7.109068e-09) (-1.700440e-10 1.481565e-08 2.200359e-09)) ((3.366808e-12 2.114450e-12 2.618995e-10) (3.236418e-10 -2.687573e-10 3.050653e-06))
47.658465     	((3.303786e-09 5.496838e-08 3.899904e-11) (8.137423e-10 2.344120e-08 2.293386e-09)) ((3.682683e-12 3.022453e-12 2.641989e-10) (4.103210e-10 -2.404332e-10 3.118311e-06))
50.629065     	((-4.602329e-09 4.150419e-08 -4.173160e-09) (5.416224e-10 2.485632e-08 2.463175e-09)) ((3.506061e-12 3.773020e-12 2.689731e-10) (4.701056e-10 -1.842946e-10 3.191372e-06))
53.552614     	((-2.422603e-08 8.983251e-10 -1.180453e-08) (-3.637516e-09 2.021267e-08 2.935286e-09)) ((3.477974e-12 3.920376e-12 2.756068e-10) (5.062158e-10 -1.130818e-10 3.264271e-06))
56.434576     	((-3.296648e-08 -4.814671e-08 -5.356591e-09) (-1.230892e-08 2.258841e-08 4.187559e-09)) ((4.286660e-12 3.582037e-12 2.845114e-10) (4.899376e-10 -5.798430e-11 3.331010e-06))
59.280356     	((-2.136831e-08 -6.619584e-08 -2.117037e-09) (-1.864436e-09 2.176345e-08 5.596761e-09)) ((4.979612e-12 2.890208e-12 2.925223e-10) (4.420059e-10 -2.749818e-11 3.386257e-06))
62.097723     	((-1.579315e-08 -5.764488e-08 8.923372e-09) (2.999230e-09 1.908969e-08 6.455104e-09)) ((5.390375e-12 2.835446e-12 2.978029e-10) (3.670976e-10 1.182919e-11 3.426532e-06))
64.862979     	((5.980164e-09 -4.803636e-08 5.887323e-09) (2.530314e-08 1.834446e-08 6.775680e-09)) ((6.864292e-12 2.862320e-12 3.000001e-10) (2.599002e-10 7.468102e-12 3.450704e-06))
67.578729     	((-1.519398e-08 -2.671612e-08 1.086160e-08) (3.076854e-08 6.990882e-09 5.481494e-09)) ((6.977288e-12 3.461260e-12 2.988178e-10) (1.830541e-10 -3.145231e-11 3.460498e-06))
70.26055      	((-3.627943e-08 -1.637549e-08 1.054112e-08) (3.208474e-08 5.919735e-09 4.953820e-09)) ((6.744256e-12 4.126600e-12 2.957488e-10) (1.253246e-10 -5.311965e-11 3.458866e-06))
72.917549     	((-5.141974e-08 -1.092030e-08 7.651617e-09) (2.791545e-08 4.289057e-09 3.194932e-09)) ((5.704227e-12 4.883010e-12 2.924855e-10) (1.012609e-10 -7.321044e-11 3.449374e-06))
75.559037     	((-4.493577e-08 2.621275e-08 1.157528e-08) (2.379080e-08 -5.473943e-10 3.217110e-09)) ((4.616122e-12 5.431177e-12 2.893425e-10) (9.946329e-11 -1.242554e-10 3.434558e-06))
