# Forces      
# CofR        : (0.000000e+00 0.000000e+00 0.000000e+00)
# Time        forces(pressure viscous)	moments(pressure viscous)
0             	((0.000000e+00 0.000000e+00 0.000000e+00) (0.000000e+00 0.000000e+00 0.000000e+00)) ((0.000000e+00 0.000000e+00 0.000000e+00) (0.000000e+00 0.000000e+00 0.000000e+00))
0.012         	((1.284928e-10 -2.847216e-08 -5.824439e-11) (6.149842e-13 -7.233647e-10 2.389516e-12)) ((7.485763e-15 -5.256985e-15 6.478938e-10) (-3.099806e-15 5.901116e-14 8.814322e-07))
0.0264        	((3.824586e-10 -4.180160e-09 6.991570e-14) (2.153699e-12 -1.068446e-09 4.296567e-12)) ((-5.586772e-15 5.704438e-14 2.975662e-10) (-1.197862e-15 1.629621e-13 8.074125e-07))
0.04368       	((3.432633e-10 -1.329432e-08 -2.094895e-10) (1.447124e-12 -1.127223e-09 6.126998e-12)) ((1.233102e-14 6.979775e-14 1.627584e-10) (-1.027962e-15 2.925252e-13 7.313187e-07))
0.064416      	((5.016482e-10 1.811760e-09 1.786660e-10) (-3.789514e-12 -9.752875e-10 1.017111e-11)) ((-2.503938e-15 3.784621e-14 8.819772e-11) (1.693785e-14 4.577786e-13 6.548556e-07))
0.0892992     	((-1.019003e-10 -5.885300e-09 -1.700816e-10) (-6.585819e-12 -8.128943e-10 1.575383e-11)) ((1.861680e-14 9.430926e-14 6.655523e-11) (6.141211e-14 6.670958e-13 5.802859e-07))
0.119159      	((1.312932e-10 1.031423e-09 -3.100501e-11) (-9.253820e-12 -6.649902e-10 1.875301e-11)) ((1.975928e-15 6.846504e-14 5.010647e-11) (9.202032e-14 7.777740e-13 5.099366e-07))
0.154991      	((-9.623527e-11 -2.937593e-09 3.187655e-11) (-1.669541e-11 -6.059378e-10 1.967382e-11)) ((1.050018e-14 5.277675e-14 4.119522e-11) (1.299715e-13 8.189237e-13 4.454430e-07))
0.197989      	((-7.151451e-11 -1.027173e-09 8.319588e-14) (-2.039333e-11 -5.338217e-10 1.997495e-11)) ((1.243636e-14 4.590052e-14 3.386416e-11) (1.707458e-13 8.397200e-13 3.882857e-07))
0.249587      	((-2.955260e-11 -2.276232e-09 -7.610742e-11) (-1.812423e-11 -4.822401e-10 2.028461e-11)) ((1.257995e-14 4.665079e-14 2.793279e-11) (1.534505e-13 8.315947e-13 3.392406e-07))
0.311504      	((-5.976207e-11 -1.343136e-09 -2.900364e-11) (-1.078481e-11 -4.508585e-10 2.179326e-11)) ((5.975513e-15 2.931518e-14 2.279386e-11) (9.796389e-14 8.140337e-13 2.981696e-07))
0.385805      	((3.348140e-10 -1.159476e-09 4.902959e-12) (-3.785899e-13 -4.292520e-10 2.196441e-11)) ((3.359651e-15 1.034360e-14 1.887599e-11) (6.877909e-14 7.918643e-13 2.641892e-07))
0.474966      	((1.954790e-10 -1.123090e-09 -1.743380e-11) (-1.448396e-12 -4.075157e-10 2.083050e-11)) ((6.160652e-15 4.625495e-15 1.620894e-11) (8.581637e-14 7.711156e-13 2.359753e-07))
0.581959      	((2.502981e-10 -8.521463e-10 -2.497895e-11) (-1.091678e-11 -3.653763e-10 1.812715e-11)) ((5.261396e-15 -1.421618e-14 1.374193e-11) (6.275068e-14 5.328472e-13 2.121840e-07))
0.710351      	((2.278974e-10 -7.337841e-10 8.431891e-12) (-2.771593e-11 -3.172187e-10 1.177687e-11)) ((-5.689078e-15 -2.765991e-14 1.134902e-11) (1.984016e-14 1.223655e-13 1.917168e-07))
0.864421      	((2.457836e-10 -1.356545e-09 5.586802e-12) (-4.847109e-11 -3.053789e-10 1.206855e-12)) ((-5.515279e-15 -3.900252e-14 9.733645e-12) (8.091752e-14 -1.977904e-13 1.737894e-07))
1.049306      	((5.290894e-10 -1.723538e-09 1.365228e-11) (-5.495067e-11 -2.666292e-10 -3.739690e-12)) ((-1.649596e-14 -4.806749e-14 8.718251e-12) (1.215516e-13 -3.289620e-13 1.578699e-07))
1.271167      	((4.839345e-10 -1.799900e-09 -3.154367e-11) (-5.742655e-11 -2.237271e-10 -9.436694e-12)) ((-2.937203e-14 -4.790153e-14 7.951778e-12) (6.837065e-14 -3.409590e-13 1.435923e-07))
1.5374        	((8.736232e-10 -2.013347e-09 2.931961e-11) (-6.662919e-11 -2.372865e-10 -1.715662e-11)) ((-3.441706e-14 -7.663290e-14 7.298988e-12) (3.807579e-13 -9.475857e-14 1.307200e-07))
1.85688       	((6.082389e-10 -2.578134e-09 2.362274e-11) (-8.653977e-11 -2.686762e-10 -1.754607e-11)) ((-3.826034e-14 -8.168163e-14 6.758558e-12) (9.029157e-13 5.354930e-13 1.191217e-07))
2.240256      	((4.949432e-10 -1.891740e-09 1.129053e-11) (-1.080050e-10 -2.571094e-10 -1.560416e-11)) ((-4.385943e-14 -8.728862e-14 6.479263e-12) (1.607235e-12 1.472661e-12 1.087325e-07))
2.700307      	((3.779842e-10 -1.443399e-09 3.573302e-11) (-1.540628e-10 -2.142857e-10 -1.168367e-11)) ((-3.559102e-14 -8.970730e-14 6.187750e-12) (2.484337e-12 2.591132e-12 9.950236e-08))
3.252369      	((5.008672e-10 -1.125831e-09 1.366549e-11) (-2.000977e-10 -1.585881e-10 -1.291718e-11)) ((-3.039909e-14 -8.417001e-14 5.758622e-12) (3.519288e-12 3.630719e-12 9.136122e-08))
3.914842      	((4.332970e-10 -6.545212e-10 1.223780e-11) (-2.003230e-10 -8.221093e-11 -7.975676e-12)) ((-3.302930e-14 -6.357693e-14 5.215863e-12) (4.499102e-12 4.369217e-12 8.420433e-08))
4.709811      	((7.946190e-11 -4.226831e-10 2.674818e-11) (-2.104098e-10 1.151029e-11 -2.082778e-12)) ((-3.834458e-14 -4.196252e-14 4.655434e-12) (4.901142e-12 4.801299e-12 7.789412e-08))
5.663773      	((1.092730e-10 1.209675e-10 7.147464e-12) (-2.207046e-10 9.070359e-11 -3.719141e-12)) ((-4.372758e-14 -1.765926e-14 4.132039e-12) (4.902911e-12 4.924121e-12 7.227934e-08))
6.808528      	((1.194649e-10 2.841420e-10 -1.737613e-11) (-1.972543e-10 1.157608e-10 -2.995214e-12)) ((-2.678378e-14 -1.678864e-15 3.686454e-12) (4.720134e-12 4.555516e-12 6.722466e-08))
8.182233      	((3.361643e-11 3.020810e-10 -2.205941e-11) (-1.791598e-10 1.008773e-10 -6.004106e-12)) ((-1.772685e-14 5.667218e-15 3.323731e-12) (4.193285e-12 3.936593e-12 6.263000e-08))
9.83068       	((6.718579e-11 2.339932e-10 -6.502917e-11) (-1.695851e-10 8.450727e-11 -9.109780e-12)) ((-1.405498e-14 1.659453e-14 3.022340e-12) (3.544937e-12 3.168285e-12 5.842273e-08))
11.808816     	((1.102966e-10 -5.954699e-11 -4.651426e-11) (-1.497591e-10 5.016425e-11 -4.419381e-12)) ((-9.573604e-15 2.425668e-14 2.783800e-12) (2.680970e-12 2.481422e-12 5.455245e-08))
14.182579     	((6.559692e-11 -5.462200e-11 -4.093986e-11) (-1.243819e-10 2.757509e-11 -1.865986e-12)) ((1.096163e-15 3.431946e-14 2.593016e-12) (1.967704e-12 2.036022e-12 5.098391e-08))
17.031095     	((5.692490e-11 -1.055505e-10 -5.469953e-11) (-1.041143e-10 2.019663e-11 -4.529458e-12)) ((9.430683e-15 3.548686e-14 2.433106e-12) (1.429499e-12 1.278208e-12 4.769709e-08))
20.449314     	((9.614704e-11 -5.765135e-11 -3.853830e-11) (-8.108176e-11 2.498892e-11 -6.261310e-12)) ((1.528034e-14 3.068007e-14 2.296884e-12) (1.045496e-12 6.956338e-13 4.468325e-08))
24.551176     	((1.350264e-10 -8.441860e-11 -1.897098e-11) (-5.387925e-11 2.551310e-11 -5.880420e-12)) ((1.584912e-14 2.828669e-14 2.174488e-12) (9.813123e-13 5.223256e-13 4.193230e-08))
29.473411     	((8.736313e-11 -1.105836e-10 -1.574344e-11) (-3.978438e-11 1.655713e-11 -3.442407e-12)) ((1.629100e-14 2.625593e-14 2.075910e-12) (9.015637e-13 4.454852e-13 3.942808e-08))
35.380094     	((7.628981e-11 -1.543674e-10 -1.338027e-11) (-2.839539e-11 1.560978e-11 -1.995396e-12)) ((1.769745e-14 2.629331e-14 1.992690e-12) (9.028028e-13 4.292282e-13 3.714968e-08))
42.468112     	((6.170124e-11 -1.346419e-10 -5.442581e-12) (-1.157703e-11 2.639098e-11 -3.028886e-12)) ((1.832530e-14 2.450514e-14 1.927031e-12) (9.489280e-13 4.124730e-13 3.507684e-08))
50.973735     	((3.422997e-11 -1.361574e-10 -2.069401e-13) (-4.782644e-12 4.435400e-11 -1.730363e-12)) ((1.750906e-14 2.142933e-14 1.865700e-12) (9.634653e-13 4.157264e-13 3.319055e-08))
61.180482     	((2.907466e-11 -1.461026e-10 -1.358547e-11) (6.873729e-13 6.683056e-11 -1.138533e-12)) ((1.635781e-14 1.680644e-14 1.812091e-12) (9.550544e-13 4.382403e-13 3.147301e-08))
73.428578     	((3.185853e-11 -1.592938e-10 -1.444516e-12) (7.738135e-12 8.503848e-11 1.282508e-12)) ((1.526923e-14 1.307951e-14 1.766939e-12) (8.671285e-13 4.792375e-13 2.990924e-08))
88.126294     	((-8.183924e-12 -1.548446e-10 -9.619659e-12) (9.800470e-12 9.343166e-11 1.670568e-12)) ((1.721761e-14 1.076793e-14 1.729370e-12) (7.478114e-13 5.776553e-13 2.848769e-08))
105.763553    	((9.381920e-12 -1.329514e-10 -6.658092e-12) (6.647666e-12 9.474218e-11 1.426218e-13)) ((1.717003e-14 9.483198e-15 1.690154e-12) (6.723959e-13 7.294590e-13 2.719873e-08))
126.928263    	((4.978704e-11 -8.280906e-11 -8.354469e-13) (-1.767793e-12 9.632347e-11 -1.235943e-13)) ((1.461814e-14 8.847460e-15 1.647245e-12) (6.245405e-13 7.649203e-13 2.603114e-08))
152.325916    	((5.034900e-11 -6.640711e-11 -6.642872e-14) (-7.772851e-12 8.761537e-11 -3.500472e-13)) ((1.284677e-14 8.856621e-15 1.606088e-12) (6.282622e-13 7.537681e-13 2.497348e-08))
182.803099    	((5.213316e-11 -4.110403e-11 6.995910e-13) (-8.682964e-12 7.304079e-11 3.194780e-13)) ((1.079899e-14 1.008741e-14 1.568330e-12) (6.756494e-13 7.371931e-13 2.401519e-08))
219.375719    	((4.914272e-11 -2.935921e-11 -1.011486e-12) (-1.254032e-11 6.556595e-11 1.744692e-12)) ((9.314831e-15 1.219168e-14 1.530779e-12) (6.774689e-13 7.577027e-13 2.314687e-08))
263.262863    	((8.110706e-11 -2.132435e-12 -2.483358e-12) (-1.170187e-11 6.759430e-11 1.566117e-12)) ((8.230522e-15 1.356662e-14 1.496514e-12) (6.404544e-13 8.094289e-13 2.236012e-08))
315.927436    	((7.836627e-11 -4.810712e-12 -8.773658e-13) (-1.387849e-11 6.105092e-11 1.662877e-12)) ((8.077994e-15 1.340978e-14 1.470561e-12) (5.935330e-13 8.572322e-13 2.164823e-08))
379.124923    	((8.081838e-11 -1.501939e-11 -3.946019e-12) (-1.893725e-12 5.573116e-11 3.601024e-12)) ((8.417210e-15 1.352351e-14 1.447592e-12) (5.381496e-13 9.116325e-13 2.100611e-08))
454.961908    	((7.313268e-11 -2.506934e-11 -7.778193e-12) (8.785692e-12 5.041378e-11 4.990173e-12)) ((8.805406e-15 1.295603e-14 1.424702e-12) (4.362421e-13 9.443332e-13 2.042899e-08))
545.966289    	((5.869709e-11 -3.985052e-11 -6.784800e-12) (1.277400e-11 4.328698e-11 5.814803e-12)) ((8.802616e-15 1.210879e-14 1.402400e-12) (3.491674e-13 9.192447e-13 1.991266e-08))
653.121024    	((5.607554e-11 -4.176774e-11 -1.018642e-11) (1.241054e-11 3.925768e-11 6.495987e-12)) ((8.973773e-15 1.119435e-14 1.382450e-12) (3.009470e-13 8.453409e-13 1.945465e-08))
776.424934    	((5.098743e-11 -4.235863e-11 -7.801943e-12) (1.361064e-11 3.811017e-11 6.804761e-12)) ((8.853496e-15 1.031274e-14 1.367789e-12) (2.330715e-13 7.846061e-13 1.905217e-08))
915.877584    	((4.220563e-11 -4.811979e-11 -1.278107e-11) (1.206115e-11 3.457587e-11 5.321273e-12)) ((9.188471e-15 9.715764e-15 1.355526e-12) (1.608881e-13 7.304454e-13 1.870178e-08))
1071.478299   	((4.068797e-11 -4.660490e-11 -1.103563e-11) (7.816986e-12 3.364235e-11 3.982327e-12)) ((9.392770e-15 9.291416e-15 1.345173e-12) (1.012465e-13 6.677224e-13 1.839886e-08))
1232.957799   	((3.659555e-11 -5.054456e-11 -8.783101e-12) (4.379316e-12 2.913225e-11 3.007956e-12)) ((9.654597e-15 8.906142e-15 1.335360e-12) (6.056332e-14 5.980555e-13 1.814081e-08))
1394.442288   	((3.595202e-11 -5.060747e-11 -4.872634e-12) (3.666152e-12 2.626881e-11 1.983907e-12)) ((9.916830e-15 9.019254e-15 1.327356e-12) (3.971594e-14 5.259050e-13 1.792319e-08))
1555.929777   	((3.547712e-11 -5.338166e-11 -9.185614e-12) (3.009911e-12 2.255976e-11 1.191097e-12)) ((9.970362e-15 9.033600e-15 1.320506e-12) (3.082592e-14 4.486399e-13 1.774067e-08))
1717.422215   	((3.807457e-11 -5.478996e-11 -9.432337e-12) (3.743621e-12 1.907968e-11 6.215245e-13)) ((9.645848e-15 9.115280e-15 1.314848e-12) (3.428882e-14 3.737260e-13 1.758754e-08))
1878.923723   	((3.817360e-11 -5.639880e-11 -9.132911e-12) (5.110910e-12 1.728099e-11 2.389339e-13)) ((9.296750e-15 9.210371e-15 1.309418e-12) (4.867284e-14 3.091636e-13 1.745880e-08))
2040.437815   	((4.036834e-11 -5.824706e-11 -8.926543e-12) (7.036224e-12 1.496981e-11 1.468986e-13)) ((9.178179e-15 9.091960e-15 1.304468e-12) (6.448313e-14 2.648137e-13 1.735007e-08))
2201.967395   	((4.201539e-11 -6.048408e-11 -6.334616e-12) (8.410129e-12 1.233215e-11 3.008993e-13)) ((9.109862e-15 8.988765e-15 1.300197e-12) (8.397360e-14 2.423021e-13 1.725779e-08))
2363.507756   	((4.227942e-11 -6.107678e-11 -5.202761e-12) (9.043403e-12 9.447686e-12 5.535856e-13)) ((8.954133e-15 8.901709e-15 1.296608e-12) (1.043642e-13 2.249914e-13 1.717902e-08))
2525.057745   	((4.246040e-11 -6.234251e-11 -4.428201e-12) (9.552588e-12 6.962349e-12 8.197919e-13)) ((8.863319e-15 8.840608e-15 1.293414e-12) (1.252155e-13 2.101561e-13 1.711145e-08))
2686.618464   	((4.254284e-11 -6.230087e-11 -4.222460e-12) (9.638502e-12 5.068869e-12 1.097325e-12)) ((8.807898e-15 8.808872e-15 1.290454e-12) (1.468984e-13 1.975921e-13 1.705320e-08))
2848.190675   	((4.220509e-11 -6.252573e-11 -3.571850e-12) (9.632119e-12 3.422934e-12 1.367425e-12)) ((8.729012e-15 8.820367e-15 1.287811e-12) (1.624096e-13 1.859949e-13 1.700275e-08))
3009.774851   	((4.078844e-11 -6.390039e-11 -3.124436e-12) (9.262285e-12 2.175316e-12 1.666649e-12)) ((8.629460e-15 8.871014e-15 1.285526e-12) (1.697171e-13 1.739130e-13 1.695886e-08))
3171.371205   	((3.911778e-11 -6.516749e-11 -3.000366e-12) (9.134721e-12 1.180577e-12 1.930832e-12)) ((8.582004e-15 8.990350e-15 1.283530e-12) (1.697885e-13 1.573175e-13 1.692050e-08))
3332.971336   	((3.767959e-11 -6.633116e-11 -2.945835e-12) (9.107918e-12 4.649578e-13 2.122788e-12)) ((8.563573e-15 9.120961e-15 1.281808e-12) (1.667350e-13 1.373315e-13 1.688685e-08))
3494.57492    	((3.605976e-11 -6.726395e-11 -3.013963e-12) (8.865352e-12 -1.595203e-13 2.233451e-12)) ((8.507069e-15 9.226349e-15 1.280208e-12) (1.672174e-13 1.156373e-13 1.685723e-08))
3656.181998   	((3.432356e-11 -6.741825e-11 -3.484497e-12) (8.525690e-12 -4.909371e-13 2.216480e-12)) ((8.459475e-15 9.258699e-15 1.278814e-12) (1.737286e-13 9.317421e-14 1.683108e-08))
3817.792256   	((3.293858e-11 -6.779251e-11 -3.359652e-12) (8.107135e-12 -7.401580e-13 2.093965e-12)) ((8.409499e-15 9.265261e-15 1.277556e-12) (1.838859e-13 7.147549e-14 1.680791e-08))
