# Forces      
# CofR        : (0.000000e+00 0.000000e+00 0.000000e+00)
# Time        forces(pressure viscous)	moments(pressure viscous)
0             	((0.000000e+00 0.000000e+00 0.000000e+00) (0.000000e+00 0.000000e+00 0.000000e+00)) ((0.000000e+00 0.000000e+00 0.000000e+00) (0.000000e+00 0.000000e+00 0.000000e+00))
0.012         	((-3.951971e-10 5.624533e-10 -1.119378e-09) (3.902190e-12 1.101360e-12 7.241528e-12)) ((5.054300e-09 -4.825904e-13 -9.831587e-15) (3.509799e-06 3.858091e-13 -1.619550e-13))
0.0264        	((4.388767e-10 9.690426e-10 -2.008409e-09) (1.247187e-11 -8.358321e-12 5.977661e-12)) ((2.513586e-09 -3.810750e-13 9.418991e-14) (3.214895e-06 6.536624e-13 -1.409729e-13))
0.04368       	((-2.172857e-09 -1.540733e-09 -2.356023e-09) (4.523027e-11 -2.462161e-11 3.173997e-12)) ((1.413282e-09 -3.194297e-13 1.080521e-13) (2.912239e-06 4.006361e-13 2.942182e-13))
0.064416      	((1.025149e-09 -2.348943e-10 -6.229912e-10) (9.412538e-11 -3.506688e-11 -3.887187e-12)) ((8.181444e-10 -2.242536e-13 -4.603372e-14) (2.608780e-06 -2.783864e-13 7.247968e-13))
0.0892992     	((-1.501607e-10 -5.927118e-10 -1.309433e-12) (1.485271e-10 -3.975426e-11 -1.166841e-11)) ((6.324621e-10 -2.147729e-13 2.100297e-14) (2.313711e-06 -9.879673e-13 9.972016e-13))
0.119159      	((6.939388e-10 -2.753922e-10 -1.198066e-09) (1.898235e-10 -3.855740e-11 -1.778739e-11)) ((4.694738e-10 -1.387122e-13 -3.613442e-14) (2.036375e-06 -1.448971e-12 1.135829e-12))
0.154991      	((2.201246e-09 5.172050e-10 4.605616e-10) (1.818644e-10 -3.479136e-11 -2.204220e-11)) ((3.834465e-10 -1.272346e-13 -2.834989e-14) (1.783326e-06 -1.784705e-12 1.089382e-12))
0.197989      	((1.081542e-09 2.905284e-10 -4.150249e-10) (1.443215e-10 -3.533936e-11 -2.294645e-11)) ((3.114084e-10 -5.398410e-14 -3.372255e-14) (1.559392e-06 -2.227444e-12 1.103778e-12))
0.249587      	((1.837083e-09 -1.013146e-10 -6.344946e-10) (9.115801e-11 -3.796348e-11 -2.625135e-11)) ((2.616085e-10 -5.458672e-14 -2.754105e-14) (1.366617e-06 -2.361971e-12 1.068485e-12))
0.311504      	((-3.366781e-11 2.213122e-11 -6.213697e-10) (4.490633e-11 -3.078567e-11 -3.492843e-11)) ((2.232654e-10 -4.956213e-14 -1.187010e-14) (1.204166e-06 -2.313238e-12 9.142782e-13))
0.385805      	((-4.099053e-10 1.387701e-10 -7.019214e-10) (3.545689e-11 -1.732186e-11 -4.833361e-11)) ((1.967863e-10 -5.019887e-14 1.325296e-14) (1.068531e-06 -2.272355e-12 7.165516e-13))
0.474966      	((5.357730e-10 5.129966e-10 -6.403938e-10) (1.645773e-12 -4.825466e-12 -6.217352e-11)) ((1.782535e-10 -5.799882e-14 3.156714e-14) (9.546639e-07 -2.153001e-12 5.728427e-13))
0.581959      	((1.331057e-09 1.228350e-09 -3.977782e-10) (1.234074e-10 2.015268e-11 -6.915704e-11)) ((1.603046e-10 -4.998979e-14 3.646087e-14) (8.578297e-07 -2.118687e-12 5.630514e-13))
0.710351      	((-8.318810e-10 1.587815e-09 -4.879901e-10) (2.564569e-10 3.977370e-11 -6.254564e-11)) ((1.428719e-10 -4.924124e-14 4.419701e-14) (7.742229e-07 -2.052254e-12 7.423084e-13))
0.864421      	((-6.348312e-10 1.923990e-09 6.049670e-11) (2.482584e-10 4.604217e-11 -4.402754e-11)) ((1.306557e-10 -4.756099e-14 4.900869e-14) (7.009971e-07 -1.668851e-12 9.572307e-13))
1.049306      	((-6.242343e-10 2.672304e-09 -2.677939e-10) (2.444023e-10 5.195581e-11 -7.915878e-12)) ((1.221514e-10 -4.123541e-14 3.232971e-14) (6.360933e-07 -5.204832e-13 9.875498e-13))
1.271167      	((-6.537095e-10 2.816801e-09 -1.944773e-10) (1.900195e-10 2.401560e-11 4.559675e-11)) ((1.144436e-10 -4.366438e-14 3.106425e-14) (5.780421e-07 -1.646316e-13 2.370804e-12))
1.5374        	((-4.806909e-10 2.065442e-09 -5.435537e-10) (8.363118e-11 -6.408066e-11 9.440049e-11)) ((1.054468e-10 -2.670103e-14 3.270997e-14) (5.258697e-07 -5.679053e-13 5.014708e-12))
1.85688       	((6.016109e-10 1.358952e-09 -9.211321e-10) (8.141391e-11 -1.796285e-10 1.656475e-10)) ((9.583211e-11 -4.371046e-14 3.402689e-14) (4.790418e-07 4.484037e-13 7.376188e-12))
2.240256      	((-2.474692e-10 1.258024e-09 -1.408724e-09) (2.433655e-10 -2.728866e-10 2.620986e-10)) ((8.783437e-11 -4.105358e-14 3.503381e-14) (4.372890e-07 2.227978e-12 9.814482e-12))
2.700307      	((4.891808e-10 4.244350e-10 -1.727967e-09) (3.016910e-10 -3.645338e-10 3.691892e-10)) ((8.143965e-11 -4.557677e-14 4.270782e-14) (4.003740e-07 3.892575e-12 1.199821e-11))
3.252369      	((3.864389e-10 6.892583e-10 -1.006445e-09) (3.298248e-10 -4.441874e-10 4.890806e-10)) ((7.532436e-11 -3.038373e-14 2.206316e-14) (3.679315e-07 6.068562e-12 1.331617e-11))
3.914842      	((-3.146247e-11 1.178944e-09 -1.385557e-10) (3.117818e-10 -5.054787e-10 5.621974e-10)) ((6.916283e-11 -8.779268e-15 -1.034862e-14) (3.394410e-07 8.167850e-12 1.400113e-11))
4.709811      	((7.241845e-11 1.109890e-09 5.112173e-10) (2.775907e-10 -5.518553e-10 5.730650e-10)) ((6.325357e-11 2.691465e-14 -2.621717e-14) (3.142750e-07 8.864356e-12 1.424798e-11))
5.663773      	((-3.912987e-10 8.370598e-10 1.146501e-09) (1.915425e-10 -5.292870e-10 5.175641e-10)) ((5.739823e-11 5.293941e-14 -3.937460e-14) (2.918055e-07 8.453364e-12 1.391624e-11))
6.808528      	((-2.129581e-10 4.981498e-10 1.259328e-09) (9.814080e-11 -3.762229e-10 4.457976e-10)) ((5.185044e-11 5.362405e-14 -5.015224e-14) (2.715148e-07 6.962637e-12 1.292452e-11))
8.182233      	((1.072908e-10 1.684416e-10 1.258271e-09) (3.093239e-11 -2.086568e-10 3.221493e-10)) ((4.684357e-11 5.461029e-14 -7.126844e-14) (2.530361e-07 5.235611e-12 1.126165e-11))
9.83068       	((-2.395530e-10 9.448195e-11 9.635094e-10) (-5.175777e-12 -6.489523e-11 2.170604e-10)) ((4.216764e-11 5.207733e-14 -8.481101e-14) (2.361069e-07 4.444817e-12 8.612940e-12))
11.808816     	((-1.897451e-11 5.880744e-11 4.996547e-10) (4.079074e-11 3.368463e-11 1.870614e-10)) ((3.805208e-11 4.141972e-14 -7.226764e-14) (2.205139e-07 4.604251e-12 5.592007e-12))
14.182579     	((-3.391275e-10 2.695994e-10 4.650508e-10) (-2.868742e-11 4.258236e-11 1.353977e-10)) ((3.435417e-11 4.990792e-15 -5.148870e-14) (2.061151e-07 4.880916e-12 3.110224e-12))
17.031095     	((-6.399445e-11 9.474837e-11 4.317788e-10) (-5.004404e-11 2.407831e-11 1.010650e-10)) ((3.103612e-11 -2.697549e-14 -1.813745e-14) (1.928543e-07 4.878084e-12 8.032291e-13))
20.449314     	((2.530420e-11 2.093457e-11 5.881446e-11) (-7.085176e-11 6.034786e-11 9.150109e-11)) ((2.822895e-11 -4.773162e-14 1.884880e-15) (1.807245e-07 4.593881e-12 -1.139054e-12))
24.551176     	((-3.825893e-11 -2.692518e-10 7.740033e-11) (-4.861168e-11 6.116512e-11 6.063728e-11)) ((2.587957e-11 -5.863731e-14 1.822627e-14) (1.697087e-07 4.785978e-12 -2.643625e-12))
29.473411     	((-8.597413e-11 -3.286254e-10 -1.626630e-11) (-4.516910e-12 8.110611e-11 5.663291e-11)) ((2.373549e-11 -6.511874e-14 2.728090e-14) (1.597515e-07 5.414709e-12 -3.348737e-12))
35.380094     	((-1.821393e-10 -2.579161e-10 -6.811748e-11) (6.806851e-12 1.097197e-10 2.581575e-11)) ((2.204809e-11 -5.765697e-14 1.531797e-14) (1.507668e-07 6.023566e-12 -3.575084e-12))
42.468112     	((-7.988544e-11 -8.509734e-11 -8.114395e-11) (4.150139e-11 1.162077e-10 -2.512499e-11)) ((2.059340e-11 -5.128590e-14 3.301502e-15) (1.426589e-07 6.453733e-12 -3.583295e-12))
50.973735     	((-1.929294e-10 -6.378040e-11 4.401382e-11) (-6.128349e-12 1.264544e-10 -5.587077e-11)) ((1.927532e-11 -4.472406e-14 -4.263193e-15) (1.353214e-07 6.319958e-12 -2.888948e-12))
61.180482     	((-1.677067e-10 1.198474e-11 1.666462e-10) (-5.435574e-11 1.272881e-10 -8.723820e-11)) ((1.807487e-11 -4.469505e-14 -4.798952e-15) (1.286621e-07 6.032605e-12 -2.547767e-12))
73.428578     	((-1.461816e-10 7.612111e-12 2.174461e-10) (-3.259790e-11 1.892665e-10 -8.741212e-11)) ((1.702169e-11 -3.961713e-14 -4.740707e-15) (1.226118e-07 5.203160e-12 -2.294226e-12))
88.126294     	((-1.284599e-10 3.806022e-11 2.334495e-10) (-1.664872e-11 2.240746e-10 -8.925301e-11)) ((1.598357e-11 -3.180988e-14 -7.668337e-15) (1.171291e-07 4.039126e-12 -1.819199e-12))
105.763553    	((-1.659665e-10 -3.526122e-11 -6.528355e-11) (-2.672257e-11 1.940218e-10 -1.380166e-10)) ((1.508212e-11 -3.083858e-14 -6.220016e-15) (1.121895e-07 3.151384e-12 -1.644377e-12))
126.928263    	((-1.304179e-10 -9.924745e-11 -2.773038e-10) (-3.076393e-11 1.549459e-10 -1.599720e-10)) ((1.424262e-11 -2.618755e-14 -8.963026e-15) (1.077697e-07 2.046248e-12 -1.475436e-12))
152.150415    	((-7.482897e-11 -2.011084e-10 -4.797754e-10) (-2.377234e-11 1.128901e-10 -1.812003e-10)) ((1.356449e-11 -2.244651e-14 -1.328067e-14) (1.038525e-07 7.309462e-13 -1.239206e-12))
181.429191    	((-1.762395e-11 -2.926603e-10 -6.084097e-10) (-2.567630e-11 9.778237e-11 -1.907504e-10)) ((1.301547e-11 -2.218470e-14 -1.519319e-14) (1.004345e-07 -8.022296e-13 -9.535844e-13))
214.763683    	((-2.534804e-11 -3.512716e-10 -7.627152e-10) (-2.200653e-13 9.011610e-11 -2.125982e-10)) ((1.252636e-11 -1.683880e-14 -1.904144e-14) (9.748748e-08 -2.266309e-12 -7.551030e-13))
252.152872    	((2.404112e-14 -3.442326e-10 -7.701850e-10) (4.022692e-11 1.118499e-10 -2.120832e-10)) ((1.209848e-11 -1.132411e-14 -2.129500e-14) (9.497985e-08 -3.177337e-12 -7.741090e-13))
292.687934    	((-5.766966e-11 -2.578951e-10 -7.078144e-10) (6.076018e-11 1.337978e-10 -2.078594e-10)) ((1.177429e-11 -1.046809e-14 -2.023159e-14) (9.288807e-08 -3.358412e-12 -1.116721e-12))
333.209811    	((-9.495320e-12 -2.586730e-10 -6.326735e-10) (8.085329e-11 1.452346e-10 -2.087273e-10)) ((1.152501e-11 -1.062109e-14 -1.818842e-14) (9.120885e-08 -3.039269e-12 -1.681670e-12))
373.718671    	((4.050062e-11 -1.526767e-10 -4.793267e-10) (9.454567e-11 1.612448e-10 -2.039312e-10)) ((1.131242e-11 -1.208517e-14 -1.631849e-14) (8.988589e-08 -2.575043e-12 -2.235211e-12))
414.214476    	((8.232458e-11 -1.492861e-10 -4.084158e-10) (1.117790e-10 1.839731e-10 -1.916394e-10)) ((1.113072e-11 -1.438408e-14 -1.323807e-14) (8.887162e-08 -2.128452e-12 -2.687169e-12))
454.697142    	((6.619862e-11 -1.118628e-10 -2.940938e-10) (1.012470e-10 2.003065e-10 -1.707197e-10)) ((1.099882e-11 -1.506468e-14 -1.087319e-14) (8.811293e-08 -1.643179e-12 -2.962025e-12))
495.166963    	((6.085809e-11 -9.900448e-11 -2.200347e-10) (5.006299e-11 2.188470e-10 -1.453253e-10)) ((1.090891e-11 -1.478107e-14 -9.629229e-15) (8.756638e-08 -1.195822e-12 -3.063932e-12))
535.624856    	((1.886388e-11 -7.274211e-11 -1.543790e-10) (9.375452e-12 2.352998e-10 -1.235898e-10)) ((1.084647e-11 -1.462628e-14 -8.272052e-15) (8.719497e-08 -8.751814e-13 -2.998523e-12))
576.071791    	((9.248900e-12 -5.308664e-11 -1.038315e-10) (-7.592611e-12 2.430492e-10 -1.067896e-10)) ((1.080227e-11 -1.527227e-14 -6.766309e-15) (8.697113e-08 -8.159025e-13 -2.757901e-12))
616.506962    	((2.512328e-11 -4.152019e-11 -6.142591e-11) (-1.006792e-11 2.465663e-10 -9.590820e-11)) ((1.076870e-11 -1.634452e-14 -6.146474e-15) (8.687051e-08 -9.700611e-13 -2.437601e-12))
656.930725    	((3.311432e-11 -4.081339e-11 -4.441950e-11) (-1.489275e-11 2.367503e-10 -1.027188e-10)) ((1.075017e-11 -1.705487e-14 -5.078625e-15) (8.687231e-08 -1.112701e-12 -2.278259e-12))
697.343924    	((5.022945e-11 -1.984395e-11 -3.043784e-11) (-1.685374e-11 2.304421e-10 -1.092011e-10)) ((1.074260e-11 -1.686807e-14 -4.413623e-15) (8.695866e-08 -1.200722e-12 -2.229696e-12))
737.747347    	((5.510124e-11 -2.977809e-12 -2.420360e-11) (-1.394935e-11 2.304984e-10 -1.114340e-10)) ((1.074860e-11 -1.656959e-14 -3.629927e-15) (8.711438e-08 -1.257884e-12 -2.251946e-12))
778.141713    	((7.618155e-11 2.288220e-11 -5.932943e-12) (-5.598408e-12 2.341645e-10 -1.092766e-10)) ((1.076923e-11 -1.701865e-14 -2.812275e-15) (8.732526e-08 -1.277463e-12 -2.297421e-12))
818.52786     	((1.032764e-10 4.856729e-11 2.303304e-11) (5.885477e-12 2.387412e-10 -1.062005e-10)) ((1.079585e-11 -1.799350e-14 -2.071461e-15) (8.757862e-08 -1.236380e-12 -2.326568e-12))
858.906764    	((1.371403e-10 6.803795e-11 5.415505e-11) (1.804806e-11 2.429003e-10 -1.006244e-10)) ((1.082533e-11 -1.899991e-14 -1.260198e-15) (8.786349e-08 -1.163155e-12 -2.287769e-12))
899.279263    	((1.616385e-10 6.815883e-11 6.850453e-11) (2.245653e-11 2.440801e-10 -9.454520e-11)) ((1.086146e-11 -1.980937e-14 -9.370987e-16) (8.817021e-08 -1.081222e-12 -2.209147e-12))
939.646154    	((1.928889e-10 6.760879e-11 7.925311e-11) (2.577528e-11 2.432591e-10 -8.899845e-11)) ((1.090557e-11 -2.080502e-14 -5.564994e-16) (8.849049e-08 -9.843232e-13 -2.128281e-12))
