# Forces      
# CofR        : (0.000000e+00 0.000000e+00 0.000000e+00)
# Time        forces(pressure viscous)	moments(pressure viscous)
0             	((0.000000e+00 0.000000e+00 0.000000e+00) (1.426301e-16 -3.157238e-06 -1.974479e-16)) ((0.000000e+00 0.000000e+00 0.000000e+00) (9.460959e-18 -1.433856e-18 1.134330e-12))
0.012         	((-6.985719e-11 -9.181627e-04 1.928606e-10) (1.955476e-12 -3.623711e-06 2.769960e-12)) ((-3.799276e-13 -5.437850e-15 1.735357e-10) (-3.100332e-14 -4.291500e-16 2.369856e-12))
0.0264        	((-1.800901e-08 6.282352e-05 -1.648638e-08) (-1.026012e-11 -3.698194e-06 -9.466072e-12)) ((8.704948e-13 -3.422930e-14 -1.170642e-11) (-7.920307e-15 1.008385e-14 3.214036e-12))
0.04368       	((9.549303e-09 1.924678e-04 1.831772e-08) (-1.040154e-11 -3.287251e-06 -5.985323e-12)) ((3.978813e-13 -5.189213e-14 -4.589383e-11) (1.122748e-13 1.188937e-14 2.774898e-12))
0.064416      	((1.703448e-09 1.823831e-06 -2.234498e-09) (-3.757439e-11 -2.911895e-06 -3.467571e-11)) ((-3.309971e-13 -1.150546e-15 1.828292e-12) (-3.164925e-13 8.526692e-15 3.500247e-12))
0.0892992     	((2.875893e-10 -2.597077e-06 -2.714799e-09) (-5.885120e-11 -2.688527e-06 -5.949245e-11)) ((-6.119219e-14 1.187252e-13 2.632281e-12) (-6.679058e-13 5.654835e-14 3.885852e-12))
0.119159      	((-8.045393e-10 2.858798e-06 -2.050477e-09) (-5.483634e-11 -2.482677e-06 -5.526616e-11)) ((-2.920360e-13 -1.355230e-14 -6.264782e-13) (-5.883502e-14 8.333236e-14 3.346390e-12))
0.154991      	((4.342644e-10 1.549682e-06 3.274567e-10) (-4.977076e-11 -2.264171e-06 -5.077267e-11)) ((-1.644800e-13 -1.319467e-14 -2.095312e-13) (5.072792e-13 8.478217e-14 2.368457e-12))
0.197989      	((4.062114e-10 3.756769e-07 4.237717e-10) (-3.345897e-11 -2.043346e-06 -2.903345e-11)) ((-2.069705e-13 1.053354e-14 -6.706911e-14) (4.195105e-13 1.319535e-13 4.375504e-13))
0.249587      	((-4.541289e-12 -4.911673e-08 2.354392e-10) (-1.994458e-11 -1.826453e-06 -1.047075e-11)) ((-1.343368e-13 -6.189212e-15 1.520625e-13) (1.561658e-13 1.800026e-13 -3.725516e-13))
0.311504      	((-1.297368e-10 -2.435607e-07 7.879300e-11) (-6.061972e-12 -1.619930e-06 -1.722246e-12)) ((-8.629222e-14 1.795871e-15 2.461945e-13) (5.938889e-14 1.800318e-13 -5.051582e-13))
0.385805      	((-3.578583e-11 -3.361624e-07 7.154246e-11) (4.698276e-12 -1.428975e-06 2.659156e-12)) ((-6.147358e-14 3.727688e-15 2.163980e-13) (-3.144742e-15 1.295529e-13 -8.229601e-13))
0.474966      	((1.880291e-12 -3.795331e-07 8.209417e-11) (8.146136e-12 -1.257542e-06 3.574322e-12)) ((-3.536899e-14 3.546333e-15 1.750398e-13) (-1.379050e-14 1.058981e-13 -7.769036e-13))
0.581959      	((1.267057e-11 -3.968272e-07 4.489477e-11) (1.289566e-11 -1.107506e-06 3.747450e-12)) ((-2.341238e-14 3.163513e-15 1.527633e-13) (-3.425478e-14 1.007457e-13 -1.861806e-13))
0.710351      	((3.311849e-11 -3.951289e-07 3.580821e-11) (1.641934e-11 -9.790784e-07 3.201018e-12)) ((-1.227010e-14 2.128506e-15 1.250435e-13) (-8.671190e-15 8.674029e-14 5.730256e-13))
0.864421      	((2.521176e-11 -3.807655e-07 2.881803e-11) (1.892674e-11 -8.706330e-07 3.241475e-12)) ((-5.908797e-15 1.972862e-15 1.255180e-13) (-1.125833e-14 6.473996e-14 6.118914e-13))
1.049306      	((2.353507e-11 -3.597818e-07 2.714972e-11) (1.796702e-11 -7.793538e-07 3.174351e-12)) ((-1.714688e-15 1.387734e-15 1.225589e-13) (-4.875454e-14 3.824993e-14 -1.323100e-13))
1.271167      	((2.533080e-11 -3.365368e-07 2.161093e-11) (1.437395e-11 -7.023243e-07 3.157638e-12)) ((1.538713e-16 1.024416e-15 1.134906e-13) (-7.836610e-14 2.505091e-14 -9.340386e-13))
1.5374        	((1.618091e-11 -3.128689e-07 1.682390e-11) (9.085863e-12 -6.364332e-07 2.750202e-12)) ((6.255521e-16 6.278936e-16 1.117776e-13) (-5.857610e-14 2.099223e-14 -1.423532e-12))
1.85688       	((2.008346e-11 -2.898322e-07 1.219261e-11) (5.593839e-12 -5.788257e-07 2.508302e-12)) ((3.884552e-16 3.198711e-16 1.114800e-13) (-2.909591e-14 2.003228e-14 -1.588031e-12))
2.240256      	((2.105622e-11 -2.679608e-07 7.907923e-12) (6.384108e-12 -5.276163e-07 2.862736e-12)) ((-1.635498e-16 1.325105e-16 1.106211e-13) (-4.430577e-15 2.120588e-14 -1.462157e-12))
2.700307      	((1.282139e-11 -2.475028e-07 3.437759e-12) (7.151979e-12 -4.816488e-07 3.018684e-12)) ((-2.785893e-16 4.078651e-17 1.098474e-13) (4.010563e-14 2.177446e-14 -1.030202e-12))
3.252369      	((7.532332e-12 -2.283916e-07 -2.168447e-13) (7.223402e-12 -4.401838e-07 2.898733e-12)) ((-3.797350e-16 9.770868e-17 1.013686e-13) (9.805273e-14 2.067060e-14 -3.635601e-13))
3.914842      	((6.746642e-12 -2.104255e-07 -6.124307e-12) (7.267070e-12 -4.026944e-07 2.526767e-12)) ((-4.047046e-16 1.768316e-16 9.107739e-14) (1.509616e-13 1.882116e-14 3.834587e-13))
4.709811      	((4.953205e-12 -1.937779e-07 -4.487884e-12) (6.415377e-12 -3.687895e-07 2.120223e-12)) ((-5.391216e-16 2.592305e-16 8.102757e-14) (1.841663e-13 1.699985e-14 1.099145e-12))
5.663773      	((8.051508e-12 -1.785081e-07 7.846660e-13) (6.157401e-12 -3.381882e-07 1.823754e-12)) ((-9.697409e-16 3.626582e-16 7.307404e-14) (2.020515e-13 1.557190e-14 1.696650e-12))
6.808528      	((1.415774e-11 -1.645166e-07 2.064309e-12) (6.659904e-12 -3.106540e-07 1.362633e-12)) ((-1.230036e-15 3.117790e-16 6.490242e-14) (2.141707e-13 1.189398e-14 2.106754e-12))
8.182233      	((1.477499e-11 -1.516913e-07 1.013450e-12) (5.748722e-12 -2.859326e-07 7.364956e-13)) ((-1.315340e-15 3.376404e-16 5.696964e-14) (2.478753e-13 9.339840e-15 2.289414e-12))
9.83068       	((1.092917e-11 -1.400304e-07 -2.399249e-12) (4.738178e-12 -2.637214e-07 2.742557e-13)) ((-1.488808e-15 4.770494e-16 4.938009e-14) (3.401579e-13 6.337508e-15 2.332437e-12))
11.808816     	((4.969484e-12 -1.293390e-07 -6.084536e-12) (4.539661e-12 -2.436923e-07 1.834338e-13)) ((-1.505888e-15 4.908652e-16 4.236601e-14) (5.429152e-13 3.571914e-15 2.175176e-12))
14.182579     	((-6.692644e-13 -1.195690e-07 -5.249663e-12) (3.757025e-12 -2.255479e-07 1.819283e-13)) ((-1.625844e-15 3.196973e-16 3.643530e-14) (8.281777e-13 2.540918e-15 1.787608e-12))
17.031095     	((-9.816791e-12 -1.106514e-07 -1.087185e-11) (2.466970e-12 -2.090413e-07 3.702406e-13)) ((-1.450837e-15 2.249018e-16 3.134480e-14) (1.179491e-12 1.711174e-15 1.313935e-12))
20.449314     	((-1.107578e-11 -1.025276e-07 -1.161477e-11) (1.626153e-12 -1.939827e-07 7.023880e-13)) ((-1.570272e-15 9.016732e-17 2.709660e-14) (1.542875e-12 -1.902542e-15 7.641220e-13))
24.551176     	((-1.036885e-11 -9.509303e-08 -1.265760e-11) (1.422595e-12 -1.802346e-07 9.913345e-13)) ((-1.588289e-15 -5.634115e-17 2.332317e-14) (1.885410e-12 -8.318304e-15 1.918748e-13))
29.473411     	((-4.785162e-12 -8.829328e-08 -7.901913e-12) (1.501045e-12 -1.676943e-07 1.366016e-12)) ((-1.534831e-15 -1.838530e-16 2.016805e-14) (2.181718e-12 -1.177137e-14 -3.327792e-13))
35.380094     	((-9.559997e-13 -8.207723e-08 -5.923112e-12) (1.865992e-12 -1.562772e-07 1.841897e-12)) ((-1.408076e-15 -3.035484e-16 1.770752e-14) (2.412872e-12 -1.052434e-14 -8.129212e-13))
42.468112     	((5.320688e-13 -7.644094e-08 -4.501879e-12) (2.422193e-12 -1.459013e-07 2.329555e-12)) ((-1.208298e-15 -2.632509e-16 1.582693e-14) (2.604497e-12 -8.898631e-15 -1.226862e-12))
50.973735     	((1.569251e-12 -7.131296e-08 -3.409129e-12) (2.949067e-12 -1.364823e-07 3.142999e-12)) ((-1.103090e-15 -1.309630e-16 1.417431e-14) (2.774156e-12 -8.795395e-15 -1.582579e-12))
61.180482     	((7.650366e-12 -6.663996e-08 2.271750e-12) (4.077727e-12 -1.279334e-07 4.219644e-12)) ((-8.916973e-16 -8.825315e-17 1.272989e-14) (2.963132e-12 -1.032197e-14 -1.928533e-12))
73.428578     	((9.149210e-12 -6.241259e-08 4.222982e-12) (5.297604e-12 -1.201698e-07 5.254203e-12)) ((-6.141182e-16 -6.909345e-17 1.152078e-14) (3.192036e-12 -1.158396e-14 -2.286992e-12))
88.126294     	((1.005129e-11 -5.858645e-08 5.317225e-12) (6.329949e-12 -1.131093e-07 6.136975e-12)) ((-4.304556e-16 -5.474097e-17 1.052259e-14) (3.472641e-12 -1.090979e-14 -2.668821e-12))
105.763553    	((1.301903e-11 -5.514762e-08 8.872972e-12) (7.466396e-12 -1.066793e-07 7.067917e-12)) ((-2.004358e-16 -5.226969e-17 9.557655e-15) (3.803276e-12 -9.496349e-15 -3.076150e-12))
126.928263    	((1.375008e-11 -5.206657e-08 1.029439e-11) (8.433591e-12 -1.008182e-07 7.863658e-12)) ((-2.885691e-18 -4.500730e-17 8.707470e-15) (4.156977e-12 -7.422554e-15 -3.483310e-12))
152.325916    	((1.254152e-11 -4.929398e-08 9.780000e-12) (9.108828e-12 -9.547165e-08 8.477622e-12)) ((1.646034e-16 -3.334403e-17 7.944799e-15) (4.502003e-12 -5.594928e-15 -3.866948e-12))
182.803099    	((1.086184e-11 -4.678982e-08 8.328800e-12) (9.701041e-12 -9.059328e-08 8.962172e-12)) ((3.432722e-16 -1.672991e-17 7.326292e-15) (4.814669e-12 -4.507634e-15 -4.208423e-12))
219.375719    	((7.933619e-12 -4.451561e-08 5.753469e-12) (1.013852e-11 -8.614197e-08 9.198987e-12)) ((4.835038e-16 -5.427075e-18 6.860667e-15) (5.077269e-12 -3.708107e-15 -4.495621e-12))
263.262863    	((5.467066e-12 -4.245955e-08 3.285320e-12) (1.041083e-11 -8.208176e-08 9.152214e-12)) ((5.678422e-16 -5.580386e-18 6.489086e-15) (5.278201e-12 -2.080442e-15 -4.719970e-12))
315.927436    	((4.956915e-12 -4.064615e-08 2.568341e-12) (1.054734e-11 -7.838304e-08 9.039149e-12)) ((6.442101e-16 -1.409985e-17 6.214568e-15) (5.413597e-12 2.802072e-16 -4.877262e-12))
379.124923    	((3.645370e-12 -3.903772e-08 1.593854e-12) (1.061536e-11 -7.502009e-08 8.848138e-12)) ((7.192448e-16 -2.973870e-17 5.995438e-15) (5.482926e-12 1.910137e-15 -4.969363e-12))
454.961908    	((1.741902e-12 -3.761280e-08 1.765773e-13) (1.066352e-11 -7.196833e-08 8.560354e-12)) ((7.790079e-16 -3.954033e-17 5.822473e-15) (5.492556e-12 2.266428e-15 -5.002468e-12))
545.966289    	((-7.285545e-14 -3.636035e-08 -1.097344e-12) (1.064889e-11 -6.920535e-08 8.249586e-12)) ((8.078499e-16 -3.657207e-17 5.682800e-15) (5.448545e-12 2.886434e-15 -4.979491e-12))
655.171547    	((-1.502695e-12 -3.526041e-08 -2.207932e-12) (1.048911e-11 -6.671078e-08 7.827914e-12)) ((8.077092e-16 -2.460341e-17 5.558420e-15) (5.353503e-12 4.657309e-15 -4.902356e-12))
786.217856    	((-3.096047e-12 -3.430215e-08 -3.342615e-12) (1.012345e-11 -6.446635e-08 7.302056e-12)) ((8.068823e-16 -1.367300e-17 5.452726e-15) (5.211524e-12 6.263462e-15 -4.774344e-12))
943.473427    	((-4.774030e-12 -3.346819e-08 -4.554448e-12) (9.513930e-12 -6.245540e-08 6.684851e-12)) ((8.004862e-16 -3.674461e-18 5.358941e-15) (5.028511e-12 6.943072e-15 -4.602455e-12))
1132.180113   	((-6.089677e-12 -3.274562e-08 -5.615214e-12) (8.810901e-12 -6.066233e-08 6.015247e-12)) ((7.936550e-16 1.052733e-18 5.283018e-15) (4.808371e-12 7.711170e-15 -4.388930e-12))
1358.628135   	((-6.939956e-12 -3.212253e-08 -6.436559e-12) (8.025179e-12 -5.907209e-08 5.315528e-12)) ((7.836538e-16 1.468071e-17 5.226201e-15) (4.555037e-12 7.464510e-15 -4.137584e-12))
1630.365763   	((-7.590729e-12 -3.158897e-08 -7.166463e-12) (7.255636e-12 -5.767037e-08 4.638407e-12)) ((7.664212e-16 3.519722e-17 5.178936e-15) (4.274222e-12 6.253508e-15 -3.856518e-12))
1956.450915   	((-7.889589e-12 -3.113247e-08 -7.562406e-12) (6.524133e-12 -5.644253e-08 3.956830e-12)) ((7.472177e-16 4.821937e-17 5.135402e-15) (3.973388e-12 6.019716e-15 -3.556140e-12))
2347.753098   	((-7.879218e-12 -3.074389e-08 -7.902153e-12) (5.848083e-12 -5.537376e-08 3.309891e-12)) ((7.108716e-16 4.963050e-17 5.105783e-15) (3.660462e-12 6.511839e-15 -3.244826e-12))
2817.315718   	((-7.756947e-12 -3.041377e-08 -8.285501e-12) (5.264016e-12 -5.444891e-08 2.704635e-12)) ((6.723452e-16 4.529514e-17 5.088419e-15) (3.341251e-12 7.370207e-15 -2.926274e-12))
3380.790861   	((-7.710192e-12 -3.013471e-08 -8.479241e-12) (4.732366e-12 -5.365295e-08 2.160954e-12)) ((6.322760e-16 4.170432e-17 5.067889e-15) (3.024330e-12 7.186746e-15 -2.611339e-12))
4056.961033   	((-7.409098e-12 -2.989923e-08 -8.512744e-12) (4.285104e-12 -5.297120e-08 1.632269e-12)) ((5.969422e-16 3.712422e-17 5.046708e-15) (2.716693e-12 6.544852e-15 -2.305254e-12))
4868.36524    	((-7.109752e-12 -2.970084e-08 -8.496517e-12) (3.915860e-12 -5.238974e-08 1.150693e-12)) ((5.549726e-16 2.797651e-17 5.022513e-15) (2.421788e-12 6.114099e-15 -2.011045e-12))
5842.050288   	((-6.566815e-12 -2.953384e-08 -8.251385e-12) (3.570197e-12 -5.189556e-08 7.230253e-13)) ((5.020350e-16 2.750524e-17 5.006479e-15) (2.142553e-12 5.468071e-15 -1.734257e-12))
6983.292258   	((-5.947412e-12 -2.939384e-08 -7.950389e-12) (3.234660e-12 -5.147698e-08 3.313452e-13)) ((4.483190e-16 3.338041e-17 4.998348e-15) (1.881884e-12 5.095735e-15 -1.477284e-12))
8292.526359   	((-5.359877e-12 -2.927631e-08 -7.728965e-12) (2.923709e-12 -5.112323e-08 -3.123789e-14)) ((3.971379e-16 3.502603e-17 5.003579e-15) (1.641465e-12 5.153098e-15 -1.240430e-12))
9770.110835   	((-4.818175e-12 -2.917755e-08 -7.491674e-12) (2.625865e-12 -5.082479e-08 -3.699899e-13)) ((3.447663e-16 3.398622e-17 5.014119e-15) (1.421572e-12 5.599707e-15 -1.024058e-12))
11416.340709  	((-4.321789e-12 -2.909431e-08 -7.275463e-12) (2.338699e-12 -5.057320e-08 -6.928452e-13)) ((2.955760e-16 3.574452e-17 5.025699e-15) (1.222247e-12 6.279493e-15 -8.278109e-13))
13105.228022  	((-3.765829e-12 -2.902466e-08 -7.032624e-12) (2.057287e-12 -5.036145e-08 -1.002855e-12)) ((2.467746e-16 3.863204e-17 5.038863e-15) (1.043134e-12 6.872535e-15 -6.513481e-13))
14796.120778  	((-3.186256e-12 -2.896584e-08 -6.776631e-12) (1.800213e-12 -5.018314e-08 -1.297887e-12)) ((2.013544e-16 4.067519e-17 5.050709e-15) (8.833633e-13 7.298809e-15 -4.939456e-13))
16488.672528  	((-2.662587e-12 -2.891603e-08 -6.493367e-12) (1.554801e-12 -5.003297e-08 -1.585479e-12)) ((1.600554e-16 4.284233e-17 5.064501e-15) (7.418290e-13 7.664651e-15 -3.547222e-13))
18182.598826  	((-2.257550e-12 -2.887357e-08 -6.236702e-12) (1.317676e-12 -4.990628e-08 -1.863866e-12)) ((1.237345e-16 4.461662e-17 5.077214e-15) (6.170384e-13 7.910685e-15 -2.321147e-13))
19877.668293  	((-1.955865e-12 -2.883737e-08 -5.981130e-12) (1.088940e-12 -4.979932e-08 -2.126582e-12)) ((9.211819e-17 4.592665e-17 5.088167e-15) (5.076065e-13 7.998670e-15 -1.247703e-13))
21573.68933   	((-1.732408e-12 -2.880648e-08 -5.738572e-12) (8.722890e-13 -4.970882e-08 -2.368520e-12)) ((6.586293e-17 4.652464e-17 5.098188e-15) (4.119749e-13 8.016646e-15 -3.093106e-14))
23270.503638  	((-1.534215e-12 -2.877999e-08 -5.483595e-12) (6.666212e-13 -4.963214e-08 -2.591937e-12)) ((4.425304e-17 4.779575e-17 5.107903e-15) (3.285844e-13 7.983012e-15 5.075251e-14))
24967.981113  	((-1.325695e-12 -2.875726e-08 -5.242240e-12) (4.760503e-13 -4.956702e-08 -2.798669e-12)) ((2.609193e-17 4.874273e-17 5.116763e-15) (2.560845e-13 7.850643e-15 1.216342e-13))
26666.014569  	((-1.104324e-12 -2.873773e-08 -5.003545e-12) (2.977596e-13 -4.951161e-08 -2.988672e-12)) ((1.015245e-17 4.958812e-17 5.124798e-15) (1.931679e-13 7.691079e-15 1.829579e-13))
28364.515057  	((-9.069355e-13 -2.872091e-08 -4.768909e-12) (1.317033e-13 -4.946436e-08 -3.164693e-12)) ((-3.579476e-18 5.061206e-17 5.131819e-15) (1.387170e-13 7.559103e-15 2.359939e-13))
30063.408917  	((-7.194886e-13 -2.870634e-08 -4.535294e-12) (-2.269503e-14 -4.942399e-08 -3.327230e-12)) ((-1.594325e-17 5.121796e-17 5.137927e-15) (9.161967e-14 7.479962e-15 2.817654e-13))
31762.6117    	((-5.418022e-13 -2.869379e-08 -4.303915e-12) (-1.655541e-13 -4.938942e-08 -3.476847e-12)) ((-2.714989e-17 5.146736e-17 5.142656e-15) (5.093737e-14 7.451649e-15 3.211701e-13))
33462.06123   	((-3.604084e-13 -2.868284e-08 -4.051598e-12) (-2.984361e-13 -4.935976e-08 -3.614380e-12)) ((-3.758829e-17 5.155543e-17 5.146455e-15) (1.586094e-14 7.444987e-15 3.550774e-13))
35161.719363  	((-1.736606e-13 -2.867334e-08 -3.801874e-12) (-4.207562e-13 -4.933426e-08 -3.740185e-12)) ((-4.696253e-17 5.123629e-17 5.149319e-15) (-1.432568e-14 7.450893e-15 3.842632e-13))
36861.554308  	((1.038204e-14 -2.866514e-08 -3.573854e-12) (-5.337102e-13 -4.931229e-08 -3.856674e-12)) ((-5.509707e-17 5.081905e-17 5.151412e-15) (-4.031205e-14 7.469551e-15 4.093701e-13))
38561.539499  	((1.804261e-13 -2.865800e-08 -3.371008e-12) (-6.382277e-13 -4.929334e-08 -3.964772e-12)) ((-6.228529e-17 5.030259e-17 5.152996e-15) (-6.266693e-14 7.487064e-15 4.309695e-13))
40261.652003  	((3.348792e-13 -2.865178e-08 -3.194329e-12) (-7.343248e-13 -4.927695e-08 -4.064428e-12)) ((-6.860298e-17 4.968382e-17 5.154229e-15) (-8.188666e-14 7.484901e-15 4.495594e-13))
41961.873055  	((4.796961e-13 -2.864630e-08 -3.020143e-12) (-8.230555e-13 -4.926276e-08 -4.156344e-12)) ((-7.412062e-17 4.937690e-17 5.155170e-15) (-9.841095e-14 7.471550e-15 4.655549e-13))
43662.18694   	((6.141456e-13 -2.864150e-08 -2.866022e-12) (-9.040952e-13 -4.925044e-08 -4.239990e-12)) ((-7.888811e-17 4.927676e-17 5.155893e-15) (-1.126147e-13 7.454565e-15 4.792995e-13))
45362.580356  	((7.388171e-13 -2.863735e-08 -2.724244e-12) (-9.789760e-13 -4.923973e-08 -4.317194e-12)) ((-8.296706e-17 4.926301e-17 5.156404e-15) (-1.248290e-13 7.426467e-15 4.910939e-13))
