# Forces      
# CofR        : (0.000000e+00 0.000000e+00 0.000000e+00)
# Time        forces(pressure viscous)	moments(pressure viscous)
0             	((0.000000e+00 0.000000e+00 0.000000e+00) (-2.524399e-05 3.389655e-15 -1.443855e-15)) ((0.000000e+00 0.000000e+00 0.000000e+00) (1.315352e-18 2.171036e-16 3.440149e-16))
0.012         	((-7.341281e-03 4.013088e-09 3.159815e-09) (-2.897188e-05 2.200573e-11 1.576258e-11)) ((-1.357380e-14 3.083581e-12 1.244626e-12) (2.443718e-15 -3.808516e-14 -4.911654e-13))
0.0264        	((5.062062e-04 -1.123192e-07 -5.325498e-08) (-2.956324e-05 -4.866140e-11 -1.982613e-11)) ((-1.207631e-12 -6.599495e-12 -1.641035e-12) (-2.618730e-14 -2.949557e-13 -8.759175e-13))
0.04368       	((1.536713e-03 1.663064e-07 9.553191e-08) (-2.627438e-05 3.318309e-11 1.180467e-11)) ((-8.498180e-14 -3.155216e-12 -5.507875e-12) (-6.979552e-14 -1.461627e-12 -4.568928e-13))
0.064416      	((1.461132e-05 -9.751993e-09 -1.366041e-09) (-2.327277e-05 -3.306157e-10 -3.179049e-10)) ((6.793076e-13 2.746241e-12 1.959403e-12) (-9.149003e-14 1.198306e-12 -3.802095e-12))
0.0892992     	((-2.031233e-05 -1.175395e-08 -1.650894e-08) (-2.148665e-05 -5.908918e-10 -5.887286e-10)) ((-9.463190e-13 3.794194e-13 1.316158e-12) (-7.670411e-14 2.727219e-12 -5.960207e-12))
0.119159      	((2.296919e-05 -1.090990e-08 -2.415030e-09) (-1.984127e-05 -4.635027e-10 -5.151188e-10)) ((5.009836e-13 1.811225e-12 4.070971e-13) (-2.094406e-13 -1.174849e-12 -1.386655e-12))
0.154991      	((1.236910e-05 6.621990e-09 2.722202e-09) (-1.809611e-05 -3.625334e-10 -3.926262e-10)) ((-1.896090e-13 8.526055e-13 -3.006771e-13) (-9.258085e-14 -3.093719e-12 1.830122e-12))
0.197989      	((3.004810e-06 -3.772039e-09 -7.324824e-11) (-1.633445e-05 -1.822406e-10 -2.168986e-10)) ((2.113095e-14 1.476921e-12 -6.016929e-13) (-1.922838e-13 -6.277243e-13 1.943167e-13))
0.249587      	((-4.019321e-07 -1.709496e-09 -4.151963e-10) (-1.460598e-05 -4.386224e-11 -7.313989e-11)) ((1.018475e-13 8.507002e-13 -2.363862e-13) (-3.213841e-13 1.356749e-12 -2.161015e-12))
0.311504      	((-1.961041e-06 -7.739200e-10 -6.453922e-10) (-1.296275e-05 3.886891e-11 8.783934e-12)) ((2.968195e-14 5.797816e-13 -3.261778e-14) (-1.242554e-13 1.251947e-12 -2.562460e-12))
0.385805      	((-2.706431e-06 3.273249e-10 6.199040e-10) (-1.144657e-05 7.967627e-11 4.680419e-11)) ((2.680327e-15 4.569464e-13 -8.524809e-14) (7.815024e-14 5.731864e-13 -2.893170e-12))
0.474966      	((-3.060307e-06 7.454418e-10 5.527653e-10) (-1.008719e-05 7.503699e-11 5.498035e-11)) ((-1.995977e-15 2.888890e-13 -3.924811e-14) (1.951968e-13 -3.119610e-13 -3.398740e-12))
0.581959      	((-3.204322e-06 4.065859e-10 3.837746e-10) (-8.896815e-06 7.045464e-11 5.635447e-11)) ((-3.003580e-15 1.697220e-13 -2.438343e-14) (3.730172e-14 -5.595080e-13 -3.445550e-12))
0.710351      	((-3.192674e-06 1.629767e-10 1.030715e-10) (-7.875470e-06 5.576998e-11 4.438665e-11)) ((-6.120383e-15 7.895718e-14 -9.859039e-15) (-1.397065e-13 -1.337342e-12 -2.729965e-12))
0.864421      	((-3.077574e-06 3.948629e-11 2.804359e-11) (-7.010084e-06 4.316399e-11 4.354699e-11)) ((-9.222445e-15 3.985244e-14 1.585349e-15) (-2.108015e-13 -1.881046e-12 -1.917374e-12))
1.049306      	((-2.908515e-06 9.943694e-12 -1.737791e-11) (-6.278768e-06 3.104606e-11 4.272791e-11)) ((-6.639244e-15 1.238305e-14 1.001785e-15) (-2.072712e-13 -2.170918e-12 -1.166330e-12))
1.271167      	((-2.720629e-06 -2.398942e-11 -1.556505e-11) (-5.658940e-06 1.572091e-11 4.052346e-11)) ((-8.314523e-15 1.479829e-15 1.390634e-16) (-1.409039e-13 -2.249987e-12 -9.260377e-13))
1.5374        	((-2.528429e-06 -1.412995e-11 5.228412e-12) (-5.126649e-06 6.507583e-12 4.253234e-11)) ((-6.468847e-15 -3.070312e-15 1.195563e-15) (-1.031688e-13 -2.236818e-12 -7.888049e-13))
1.85688       	((-2.340183e-06 -7.786950e-12 -1.437976e-11) (-4.660246e-06 7.614572e-12 4.289566e-11)) ((-3.480293e-15 4.419655e-15 6.639594e-16) (-7.581398e-14 -2.113010e-12 -4.115078e-13))
2.240256      	((-2.161137e-06 -1.947001e-12 -1.264407e-11) (-4.245577e-06 1.148133e-11 4.366668e-11)) ((-2.598638e-15 1.092403e-14 3.490311e-16) (-8.644925e-14 -2.021755e-12 7.373338e-14))
2.700307      	((-1.993745e-06 -1.899125e-11 -1.677171e-11) (-3.873816e-06 1.210762e-11 4.048258e-11)) ((-1.819079e-15 1.403529e-14 1.078358e-15) (-1.067396e-13 -2.159292e-12 6.117573e-13))
3.252369      	((-1.837564e-06 -2.681138e-11 -3.429591e-11) (-3.539025e-06 1.373370e-11 3.431304e-11)) ((-2.084267e-15 1.453907e-14 1.298973e-15) (-1.085283e-13 -2.431854e-12 1.001586e-12))
3.914842      	((-1.690542e-06 -3.824473e-11 -4.756789e-11) (-3.236776e-06 1.621696e-11 3.057188e-11)) ((-2.282776e-15 1.445399e-14 1.474159e-15) (-1.296185e-13 -2.639114e-12 1.235749e-12))
4.709811      	((-1.553927e-06 -6.008010e-12 2.304640e-12) (-2.963804e-06 1.699553e-11 2.754650e-11)) ((-3.488351e-15 1.504360e-14 1.310959e-15) (-1.756691e-13 -2.833507e-12 1.415013e-12))
5.663773      	((-1.428386e-06 3.085574e-11 6.228289e-11) (-2.717817e-06 1.806008e-11 2.479408e-11)) ((-4.508275e-15 1.643152e-14 5.901648e-16) (-2.000667e-13 -2.938440e-12 1.536165e-12))
6.808528      	((-1.313702e-06 4.702239e-11 5.026937e-11) (-2.496649e-06 1.775621e-11 2.310855e-11)) ((-2.345163e-15 1.599644e-14 -5.850388e-16) (-1.547809e-13 -2.874999e-12 1.627381e-12))
8.182233      	((-1.208908e-06 2.600293e-11 1.737944e-11) (-2.298078e-06 1.663069e-11 1.998286e-11)) ((-2.521184e-15 1.340415e-14 -6.278560e-16) (-7.979394e-14 -2.906497e-12 1.782978e-12))
9.83068       	((-1.113700e-06 1.279531e-11 -5.559141e-12) (-2.119686e-06 1.750877e-11 1.682670e-11)) ((-3.240602e-15 1.183489e-14 -3.469375e-16) (-8.045188e-14 -3.296174e-12 2.294571e-12))
11.808816     	((-1.026771e-06 1.457888e-11 -2.012679e-11) (-1.958926e-06 1.634318e-11 1.493105e-11)) ((-3.504802e-15 8.893381e-15 -1.783342e-16) (-1.159710e-13 -4.374817e-12 3.462585e-12))
14.182579     	((-9.475176e-07 -2.958436e-12 -4.005572e-11) (-1.813449e-06 1.728700e-11 1.375630e-11)) ((-3.706457e-15 9.130859e-15 2.389525e-16) (-1.097018e-13 -6.036014e-12 5.120452e-12))
17.031095     	((-8.755251e-07 -8.855959e-11 -1.046176e-10) (-1.681244e-06 1.532964e-11 1.219122e-11)) ((-3.111181e-15 8.923440e-15 1.589335e-15) (-9.920379e-14 -8.156362e-12 7.168546e-12))
20.449314     	((-8.101426e-07 -1.716314e-10 -1.839996e-10) (-1.560934e-06 8.807516e-12 7.569694e-12)) ((-1.861426e-15 8.607798e-15 2.173664e-15) (-9.146400e-14 -1.041221e-11 9.255515e-12))
24.551176     	((-7.509937e-07 -2.469526e-10 -2.606898e-10) (-1.451465e-06 9.323062e-14 1.415880e-12)) ((-5.121141e-16 7.377476e-15 2.311562e-15) (-5.756653e-14 -1.234650e-11 1.100049e-11))
29.473411     	((-6.978852e-07 -2.131557e-10 -2.194108e-10) (-1.352021e-06 -3.927625e-12 -1.921024e-12)) ((-2.113744e-16 5.845942e-15 2.402890e-15) (-5.284982e-14 -1.381603e-11 1.226927e-11))
35.380094     	((-6.502687e-07 -1.735646e-10 -1.749125e-10) (-1.261917e-06 -5.817305e-12 -2.109572e-12)) ((-4.968923e-16 3.837393e-15 1.229176e-15) (-5.951332e-14 -1.502772e-11 1.348079e-11))
42.468112     	((-6.080416e-07 -2.048181e-10 -2.082286e-10) (-1.180450e-06 -9.361683e-12 -4.407437e-12)) ((-2.690465e-16 3.719813e-15 7.512480e-16) (-1.001758e-13 -1.633927e-11 1.501338e-11))
50.973735     	((-5.708069e-07 -2.574894e-10 -2.482155e-10) (-1.106916e-06 -1.354899e-11 -8.166705e-12)) ((-9.997827e-16 4.292391e-15 1.077263e-15) (-8.465963e-14 -1.821222e-11 1.695264e-11))
61.180482     	((-5.382807e-07 -2.325144e-10 -2.155400e-10) (-1.040644e-06 -1.668643e-11 -9.570331e-12)) ((-9.939174e-16 4.645580e-15 1.418471e-15) (-6.443338e-14 -2.071932e-11 1.945885e-11))
73.428578     	((-5.101991e-07 -2.096333e-10 -2.016067e-10) (-9.810058e-07 -1.923430e-11 -1.135143e-11)) ((-1.161061e-15 5.882915e-15 1.393583e-15) (-9.799230e-14 -2.382527e-11 2.260095e-11))
88.126294     	((-4.862496e-07 -1.938541e-10 -1.937618e-10) (-9.274116e-07 -2.018146e-11 -1.205242e-11)) ((-1.174426e-15 6.325579e-15 1.620921e-15) (-1.144828e-13 -2.737209e-11 2.613042e-11))
105.763553    	((-4.663246e-07 -1.613353e-10 -1.626800e-10) (-8.793578e-07 -1.983750e-11 -1.144599e-11)) ((-1.087343e-15 6.376434e-15 2.228524e-15) (-1.437298e-13 -3.099195e-11 2.988599e-11))
126.928263    	((-4.502253e-07 -1.332359e-10 -1.338921e-10) (-8.364403e-07 -1.896349e-11 -1.018834e-11)) ((-8.636434e-16 6.704744e-15 3.083171e-15) (-1.716096e-13 -3.454046e-11 3.347809e-11))
152.325916    	((-4.376619e-07 -1.239833e-10 -1.202851e-10) (-7.983567e-07 -1.812381e-11 -9.638854e-12)) ((-1.103127e-15 6.900405e-15 3.241446e-15) (-2.019984e-13 -3.766137e-11 3.655193e-11))
182.803099    	((-4.285544e-07 -8.220222e-11 -7.215407e-11) (-7.648745e-07 -1.674693e-11 -8.826328e-12)) ((-1.450254e-15 6.166427e-15 3.063777e-15) (-2.272971e-13 -4.014779e-11 3.897223e-11))
219.375719    	((-4.223412e-07 -4.116114e-11 -3.622906e-11) (-7.357737e-07 -1.615923e-11 -7.619672e-12)) ((-1.602183e-15 5.379050e-15 3.268898e-15) (-2.451622e-13 -4.192151e-11 4.067451e-11))
263.262863    	((-4.187624e-07 1.086572e-12 2.196037e-13) (-7.108516e-07 -1.501073e-11 -6.153202e-12)) ((-1.830058e-15 4.852354e-15 3.337697e-15) (-2.918535e-13 -4.288131e-11 4.157648e-11))
315.927436    	((-4.172440e-07 4.307921e-11 3.721276e-11) (-6.898578e-07 -1.186784e-11 -4.524173e-12)) ((-1.842750e-15 4.480206e-15 3.108666e-15) (-3.205632e-13 -4.308169e-11 4.172539e-11))
379.124923    	((-4.172292e-07 7.283461e-11 6.893627e-11) (-6.724726e-07 -7.017743e-12 -1.336167e-12)) ((-1.954652e-15 4.300091e-15 3.030641e-15) (-3.269656e-13 -4.250652e-11 4.113784e-11))
454.473672    	((-4.179494e-07 1.001518e-10 9.854802e-11) (-6.582915e-07 -2.167182e-13 4.325349e-12)) ((-1.979514e-15 4.210911e-15 2.855471e-15) (-3.317561e-13 -4.128468e-11 3.994572e-11))
541.957191    	((-4.188266e-07 1.301847e-10 1.295398e-10) (-6.468549e-07 1.011800e-11 1.401539e-11)) ((-1.958319e-15 3.949601e-15 2.571468e-15) (-3.346025e-13 -3.953173e-11 3.835519e-11))
641.5703      	((-4.193341e-07 1.461808e-10 1.490911e-10) (-6.376251e-07 2.336249e-11 2.680958e-11)) ((-1.922853e-15 3.885209e-15 2.386786e-15) (-3.210365e-13 -3.749805e-11 3.648727e-11))
753.319615    	((-4.194909e-07 1.484727e-10 1.505955e-10) (-6.301541e-07 3.831508e-11 4.071831e-11)) ((-1.773023e-15 4.208318e-15 2.209914e-15) (-3.030168e-13 -3.539297e-11 3.455139e-11))
874.807208    	((-4.194489e-07 1.385368e-10 1.417854e-10) (-6.240999e-07 5.257715e-11 5.441411e-11)) ((-1.533518e-15 4.506410e-15 2.146181e-15) (-2.916662e-13 -3.337085e-11 3.263937e-11))
996.426107    	((-4.194355e-07 1.234381e-10 1.278670e-10) (-6.192296e-07 6.473114e-11 6.648386e-11)) ((-1.334108e-15 4.684585e-15 2.029544e-15) (-2.886513e-13 -3.147368e-11 3.080526e-11))
1118.15824    	((-4.193186e-07 1.046131e-10 1.094639e-10) (-6.152840e-07 7.431469e-11 7.577848e-11)) ((-1.235548e-15 4.862450e-15 1.910041e-15) (-2.865610e-13 -2.970749e-11 2.906768e-11))
1239.9849     	((-4.192198e-07 8.384353e-11 8.761815e-11) (-6.121040e-07 8.091262e-11 8.223081e-11)) ((-1.129684e-15 5.141895e-15 1.785956e-15) (-2.855684e-13 -2.806244e-11 2.745159e-11))
1361.890143   	((-4.191066e-07 6.101183e-11 6.468161e-11) (-6.095304e-07 8.482880e-11 8.614393e-11)) ((-9.914535e-16 5.379566e-15 1.703710e-15) (-2.835239e-13 -2.652713e-11 2.594335e-11))
1483.861288   	((-4.190055e-07 3.908295e-11 4.189345e-11) (-6.074506e-07 8.647182e-11 8.775025e-11)) ((-9.064221e-16 5.515213e-15 1.658996e-15) (-2.804232e-13 -2.511375e-11 2.455130e-11))
1605.887327   	((-4.189091e-07 1.689528e-11 1.895171e-11) (-6.057656e-07 8.621826e-11 8.750424e-11)) ((-8.190849e-16 5.737440e-15 1.620210e-15) (-2.778777e-13 -2.381652e-11 2.327272e-11))
1727.958848   	((-4.188277e-07 -4.531379e-12 -2.816618e-12) (-6.044018e-07 8.441793e-11 8.571408e-11)) ((-7.422389e-16 5.932699e-15 1.558966e-15) (-2.755131e-13 -2.264424e-11 2.211342e-11))
1850.067788   	((-4.187553e-07 -2.405344e-11 -2.275593e-11) (-6.032955e-07 8.162877e-11 8.290929e-11)) ((-6.705820e-16 6.123946e-15 1.505040e-15) (-2.734168e-13 -2.159091e-11 2.106826e-11))
1972.207425   	((-4.186934e-07 -4.212433e-11 -4.099960e-11) (-6.023988e-07 7.813313e-11 7.938427e-11)) ((-6.131296e-16 6.232123e-15 1.464486e-15) (-2.714661e-13 -2.065268e-11 2.013529e-11))
2094.372182   	((-4.186407e-07 -5.849874e-11 -5.749134e-11) (-6.016705e-07 7.412584e-11 7.534823e-11)) ((-5.658475e-16 6.351420e-15 1.431392e-15) (-2.697240e-13 -1.982847e-11 1.931415e-11))
2216.557484   	((-4.185963e-07 -7.310268e-11 -7.214041e-11) (-6.010787e-07 6.998749e-11 7.118341e-11)) ((-5.230671e-16 6.465029e-15 1.410221e-15) (-2.681113e-13 -1.910249e-11 1.859049e-11))
2338.759577   	((-4.185590e-07 -8.595371e-11 -8.513793e-11) (-6.005971e-07 6.580079e-11 6.695892e-11)) ((-4.858318e-16 6.574627e-15 1.385680e-15) (-2.668142e-13 -1.847114e-11 1.795945e-11))
2460.975392   	((-4.185280e-07 -9.713173e-11 -9.663717e-11) (-6.002052e-07 6.168179e-11 6.281361e-11)) ((-4.444679e-16 6.676632e-15 1.365939e-15) (-2.655342e-13 -1.792554e-11 1.741511e-11))
2583.202414   	((-4.185019e-07 -1.067126e-10 -1.063098e-10) (-5.998859e-07 5.777272e-11 5.886612e-11)) ((-4.140138e-16 6.739743e-15 1.347251e-15) (-2.644437e-13 -1.745658e-11 1.694623e-11))
2705.43859    	((-4.184802e-07 -1.148806e-10 -1.144972e-10) (-5.996258e-07 5.414931e-11 5.521243e-11)) ((-3.889236e-16 6.799008e-15 1.325497e-15) (-2.636185e-13 -1.705475e-11 1.654445e-11))
2827.682241   	((-4.184622e-07 -1.217305e-10 -1.212722e-10) (-5.994137e-07 5.084499e-11 5.189640e-11)) ((-3.700842e-16 6.847910e-15 1.309186e-15) (-2.629549e-13 -1.671284e-11 1.620284e-11))
2949.931998   	((-4.184471e-07 -1.274517e-10 -1.269897e-10) (-5.992407e-07 4.788742e-11 4.893200e-11)) ((-3.548414e-16 6.886162e-15 1.295665e-15) (-2.624401e-13 -1.642331e-11 1.591358e-11))
3072.186742   	((-4.184345e-07 -1.321943e-10 -1.315124e-10) (-5.990995e-07 4.528177e-11 4.632500e-11)) ((-3.423145e-16 6.920297e-15 1.283577e-15) (-2.620392e-13 -1.617921e-11 1.566956e-11))
3194.44556    	((-4.184242e-07 -1.360992e-10 -1.353636e-10) (-5.989842e-07 4.301684e-11 4.405435e-11)) ((-3.334175e-16 6.949960e-15 1.272983e-15) (-2.617120e-13 -1.597427e-11 1.546460e-11))
3316.707708   	((-4.184161e-07 -1.393014e-10 -1.385436e-10) (-5.988901e-07 4.107065e-11 4.209818e-11)) ((-3.264477e-16 6.972588e-15 1.264674e-15) (-2.614259e-13 -1.580300e-11 1.529300e-11))
3438.972578   	((-4.184090e-07 -1.419275e-10 -1.412432e-10) (-5.988133e-07 3.941346e-11 4.043372e-11)) ((-3.205391e-16 6.989598e-15 1.256226e-15) (-2.611908e-13 -1.565996e-11 1.514987e-11))
3561.239672   	((-4.184033e-07 -1.440547e-10 -1.434464e-10) (-5.987505e-07 3.801655e-11 3.903283e-11)) ((-3.158219e-16 7.003406e-15 1.249554e-15) (-2.609924e-13 -1.554087e-11 1.503073e-11))
3683.508587   	((-4.183983e-07 -1.457958e-10 -1.452808e-10) (-5.986992e-07 3.684881e-11 3.785583e-11)) ((-3.119680e-16 7.014054e-15 1.243986e-15) (-2.608185e-13 -1.544217e-11 1.493171e-11))
3805.778989   	((-4.183943e-07 -1.472257e-10 -1.466873e-10) (-5.986573e-07 3.587946e-11 3.687745e-11)) ((-3.084906e-16 7.023408e-15 1.239189e-15) (-2.606717e-13 -1.536053e-11 1.484959e-11))
3928.050607   	((-4.183910e-07 -1.483815e-10 -1.478913e-10) (-5.986230e-07 3.507884e-11 3.606996e-11)) ((-3.055423e-16 7.031267e-15 1.235491e-15) (-2.605425e-13 -1.529299e-11 1.478163e-11))
4050.323222   	((-4.183884e-07 -1.493129e-10 -1.488474e-10) (-5.985950e-07 3.442163e-11 3.540777e-11)) ((-3.038846e-16 7.037087e-15 1.231742e-15) (-2.604339e-13 -1.523728e-11 1.472544e-11))
4172.59665    	((-4.183862e-07 -1.500912e-10 -1.496513e-10) (-5.985721e-07 3.388397e-11 3.486434e-11)) ((-3.019309e-16 7.043055e-15 1.229081e-15) (-2.603401e-13 -1.519132e-11 1.467899e-11))
4294.870745   	((-4.183845e-07 -1.507269e-10 -1.503219e-10) (-5.985533e-07 3.344594e-11 3.442313e-11)) ((-3.006215e-16 7.047895e-15 1.226837e-15) (-2.602630e-13 -1.515349e-11 1.464077e-11))
4417.145385   	((-4.183831e-07 -1.512621e-10 -1.508454e-10) (-5.985380e-07 3.308936e-11 3.406464e-11)) ((-2.994083e-16 7.051593e-15 1.225030e-15) (-2.601995e-13 -1.512228e-11 1.460919e-11))
4539.420472   	((-4.183821e-07 -1.516786e-10 -1.512600e-10) (-5.985255e-07 3.279960e-11 3.377119e-11)) ((-2.985366e-16 7.054609e-15 1.223473e-15) (-2.601466e-13 -1.509653e-11 1.458311e-11))
4661.695924   	((-4.183811e-07 -1.520378e-10 -1.516393e-10) (-5.985152e-07 3.256350e-11 3.353370e-11)) ((-2.978302e-16 7.057514e-15 1.222206e-15) (-2.601021e-13 -1.507529e-11 1.456156e-11))
4783.971675   	((-4.183803e-07 -1.523444e-10 -1.519473e-10) (-5.985068e-07 3.237115e-11 3.334031e-11)) ((-2.972264e-16 7.059639e-15 1.221145e-15) (-2.600660e-13 -1.505776e-11 1.454374e-11))
4906.247672   	((-4.183797e-07 -1.525957e-10 -1.521982e-10) (-5.985000e-07 3.221408e-11 3.318244e-11)) ((-2.967516e-16 7.061721e-15 1.220299e-15) (-2.600372e-13 -1.504328e-11 1.452901e-11))
5028.523868   	((-4.183792e-07 -1.528018e-10 -1.524079e-10) (-5.984943e-07 3.208552e-11 3.305366e-11)) ((-2.963709e-16 7.063465e-15 1.219585e-15) (-2.600146e-13 -1.503132e-11 1.451683e-11))
5150.800229   	((-4.183787e-07 -1.529767e-10 -1.525960e-10) (-5.984897e-07 3.197978e-11 3.294805e-11)) ((-2.960675e-16 7.064996e-15 1.219005e-15) (-2.599963e-13 -1.502144e-11 1.450675e-11))
5273.076725   	((-4.183784e-07 -1.531169e-10 -1.526973e-10) (-5.984860e-07 3.189236e-11 3.286098e-11)) ((-2.958050e-16 7.065920e-15 1.218510e-15) (-2.599813e-13 -1.501327e-11 1.449841e-11))
5395.35333    	((-4.183781e-07 -1.532372e-10 -1.528013e-10) (-5.984829e-07 3.181982e-11 3.278830e-11)) ((-2.956069e-16 7.066970e-15 1.218121e-15) (-2.599697e-13 -1.500651e-11 1.449149e-11))
5517.630025   	((-4.183778e-07 -1.533381e-10 -1.528439e-10) (-5.984804e-07 3.175948e-11 3.272882e-11)) ((-2.953255e-16 7.067978e-15 1.217851e-15) (-2.599600e-13 -1.500091e-11 1.448576e-11))
5639.906793   	((-4.183776e-07 -1.534218e-10 -1.529051e-10) (-5.984783e-07 3.170912e-11 3.267742e-11)) ((-2.952638e-16 7.068679e-15 1.217570e-15) (-2.599522e-13 -1.499628e-11 1.448102e-11))
