# Forces      
# CofR        : (0.000000e+00 0.000000e+00 0.000000e+00)
# Time        forces(pressure viscous)	moments(pressure viscous)
0             	((0.000000e+00 0.000000e+00 0.000000e+00) (-4.002301e-04 5.331527e-14 -2.386040e-14)) ((0.000000e+00 0.000000e+00 0.000000e+00) (2.041713e-17 3.203515e-15 5.502357e-15))
0.012         	((-1.164280e-01 -1.704533e-09 -1.121180e-08) (-4.588810e-04 2.510951e-10 2.223213e-10)) ((-4.260322e-13 4.360924e-11 1.887056e-11) (4.688738e-14 1.151565e-12 -7.288357e-12))
0.0264        	((9.044681e-03 -1.869878e-06 -6.542736e-07) (-4.671415e-04 -1.065284e-09 -2.166476e-10)) ((9.713058e-13 -6.782066e-11 -1.130350e-12) (-2.153702e-12 -6.666694e-13 -1.056387e-11))
0.04368       	((2.383184e-02 3.346227e-06 1.886630e-06) (-4.141476e-04 5.390971e-10 6.325757e-10)) ((-2.504358e-11 -5.125325e-11 -1.080578e-10) (-5.067623e-13 -1.972753e-11 -6.399368e-12))
0.064416      	((2.236273e-04 -4.280511e-07 -3.072310e-07) (-3.664202e-04 -7.486491e-10 -1.675953e-09)) ((1.966462e-11 4.481189e-11 3.753293e-11) (5.926490e-13 3.781074e-11 -5.959823e-11))
0.0892992     	((-2.201106e-04 -2.828071e-07 -2.891222e-07) (-3.380326e-04 -3.969820e-09 -5.273380e-09)) ((-1.423324e-11 -2.383017e-12 1.598372e-11) (-2.747789e-12 2.694411e-11 -7.014235e-11))
0.119159      	((3.929201e-04 -1.864894e-07 4.724638e-08) (-3.120656e-04 -3.062500e-09 -4.494713e-09)) ((3.644951e-12 5.912840e-12 1.155056e-11) (-6.653117e-12 -6.616221e-11 -4.131784e-11))
0.154991      	((1.912731e-04 -4.551406e-08 -1.406771e-07) (-2.848775e-04 -2.323355e-09 -3.222410e-09)) ((-2.065609e-12 1.970508e-12 9.497124e-12) (-4.895087e-12 -1.356405e-10 5.372165e-12))
0.197989      	((4.342374e-05 -7.925826e-08 -4.997968e-08) (-2.579401e-04 -2.040161e-09 -2.864892e-09)) ((-1.382097e-12 1.934034e-12 6.727360e-12) (-2.305760e-12 -1.703850e-10 3.032669e-11))
0.249587      	((-8.737574e-06 -2.429439e-08 -1.857039e-08) (-2.321077e-04 -1.661144e-09 -2.389735e-09)) ((-1.553988e-12 -3.803189e-13 -4.193953e-13) (-2.416035e-12 -1.597016e-10 1.030767e-11))
0.311504      	((-3.398209e-05 -2.334151e-08 -1.959675e-08) (-2.080888e-04 -1.392134e-09 -1.893056e-09)) ((-4.953748e-13 1.800296e-12 6.843855e-13) (-2.186155e-12 -1.386379e-10 1.264079e-11))
0.385805      	((-4.808705e-05 -1.997393e-08 -1.834885e-08) (-1.864293e-04 -7.663604e-10 -1.715562e-09)) ((-5.575239e-13 1.316830e-12 5.095208e-13) (-2.230468e-12 -1.142326e-10 2.594924e-11))
0.474966      	((-5.518472e-05 -1.354996e-08 -1.697891e-08) (-1.674020e-04 -4.329483e-10 -1.546002e-09)) ((-3.534529e-13 1.220707e-12 2.339702e-13) (-1.318202e-12 -8.612087e-11 3.470153e-11))
0.581959      	((-5.813672e-05 -1.383698e-08 -1.134243e-08) (-1.506790e-04 -4.839109e-10 -1.247425e-09)) ((-1.216361e-13 8.745601e-13 2.097245e-13) (4.426202e-13 -5.949940e-11 2.674134e-11))
0.710351      	((-5.805433e-05 -1.388377e-08 -1.272917e-08) (-1.357568e-04 -5.022909e-10 -1.081386e-09)) ((-1.089587e-13 9.314530e-13 4.016477e-14) (1.729252e-12 -4.268749e-11 1.285760e-11))
0.864421      	((-5.605264e-05 -8.584728e-09 -9.920580e-09) (-1.223452e-04 -4.501753e-10 -9.156055e-10)) ((8.208052e-15 8.345803e-13 1.190550e-14) (2.088030e-12 -3.145287e-11 8.357561e-13))
1.049306      	((-5.297517e-05 -4.140097e-09 -5.149378e-09) (-1.102829e-04 -4.606694e-10 -7.417077e-10)) ((1.208469e-14 7.370463e-13 -5.812307e-14) (1.510561e-12 -2.491808e-11 -4.593556e-12))
1.271167      	((-4.935975e-05 -1.734715e-09 -2.024291e-09) (-9.947670e-05 -3.507429e-10 -4.959200e-10)) ((3.479295e-14 5.706312e-13 -1.783270e-14) (4.893028e-13 -2.229704e-11 -4.060133e-12))
1.5374        	((-4.562879e-05 8.361311e-10 9.781156e-10) (-8.984146e-05 -2.183849e-10 -2.476650e-10)) ((4.160419e-14 3.990659e-13 -3.728527e-14) (-2.512316e-14 -2.363054e-11 -5.391998e-13))
1.85688       	((-4.211151e-05 1.590194e-09 1.169461e-09) (-8.128528e-05 -1.007576e-10 -8.372076e-11)) ((1.358232e-14 2.385604e-13 -8.430150e-14) (1.865397e-13 -2.828288e-11 6.167890e-12))
2.240256      	((-3.898683e-05 8.331823e-10 6.380736e-10) (-7.371692e-05 2.526064e-12 4.445542e-12)) ((-4.123658e-14 2.271952e-13 -1.209919e-13) (4.605020e-13 -3.479340e-11 1.732558e-11))
2.700307      	((-3.627310e-05 -1.771522e-09 -2.134914e-09) (-6.703162e-05 -1.394957e-11 3.469502e-11)) ((-5.659699e-14 2.741767e-13 -1.166035e-13) (2.075056e-13 -4.312172e-11 2.720627e-11))
3.252369      	((-3.398843e-05 -2.043098e-09 -2.841532e-09) (-6.111966e-05 -4.953916e-11 4.033380e-11)) ((-3.526783e-14 3.811807e-13 -1.253065e-13) (-5.360742e-13 -4.799273e-11 3.606849e-11))
3.914842      	((-3.216360e-05 -4.176839e-09 -3.649152e-09) (-5.589650e-05 -9.350475e-11 -1.631038e-11)) ((-5.484507e-14 4.821580e-13 -1.032575e-13) (-1.061341e-12 -4.998985e-11 4.316616e-11))
4.709811      	((-3.083798e-05 -4.892436e-09 -5.869323e-09) (-5.130945e-05 -1.931638e-10 -1.945974e-10)) ((2.971526e-15 4.316824e-13 -7.540002e-14) (-1.247345e-12 -4.740569e-11 4.452983e-11))
5.663773      	((-3.000119e-05 -8.006985e-09 -8.874201e-09) (-4.731173e-05 -3.153994e-10 -3.955951e-10)) ((3.207292e-14 3.684119e-13 -7.238353e-14) (-1.474329e-12 -3.713389e-11 4.147411e-11))
6.808528      	((-2.971388e-05 -1.229809e-08 -1.135840e-08) (-4.384564e-05 -5.380550e-10 -5.764828e-10)) ((4.600509e-14 3.831399e-13 -6.395317e-14) (-2.128521e-12 -2.585175e-11 3.424599e-11))
8.182233      	((-2.998349e-05 -1.501421e-08 -1.529937e-08) (-4.085369e-05 -8.813479e-10 -8.903675e-10)) ((5.706279e-14 3.416463e-13 -2.956933e-14) (-2.339687e-12 -2.073801e-11 2.890652e-11))
9.83068       	((-3.079159e-05 -1.480569e-08 -1.563422e-08) (-3.828372e-05 -1.222175e-09 -1.226005e-09)) ((6.205594e-14 3.784593e-13 -3.470717e-15) (-2.043119e-12 -2.422276e-11 3.228602e-11))
11.808816     	((-3.211576e-05 -1.551040e-08 -1.585805e-08) (-3.609820e-05 -1.481671e-09 -1.599936e-09)) ((1.056500e-13 4.477811e-13 -3.327592e-14) (-2.239091e-12 -3.809400e-11 4.057219e-11))
14.182579     	((-3.390735e-05 -1.267402e-08 -1.328151e-08) (-3.426911e-05 -1.689312e-09 -1.824397e-09)) ((1.286912e-13 3.860146e-13 -7.776241e-14) (-2.132383e-12 -4.752601e-11 5.043988e-11))
17.031095     	((-3.609213e-05 -9.618456e-09 -9.552866e-09) (-3.275090e-05 -1.815656e-09 -1.823873e-09)) ((1.163670e-13 3.149628e-13 -9.138247e-14) (-2.009025e-12 -4.573290e-11 4.846973e-11))
20.41785      	((-3.859007e-05 -7.250224e-09 -7.594185e-09) (-3.153252e-05 -1.814265e-09 -1.730714e-09)) ((1.098470e-13 3.515512e-13 -1.093337e-13) (-2.012330e-12 -4.457646e-11 4.374974e-11))
24.345634     	((-4.118959e-05 -8.458894e-09 -8.465898e-09) (-3.059080e-05 -1.882959e-09 -1.869471e-09)) ((1.486274e-13 3.859874e-13 -1.184703e-13) (-1.967506e-12 -4.609972e-11 4.287081e-11))
28.815299     	((-4.367400e-05 -6.109745e-09 -5.487022e-09) (-2.986625e-05 -1.860967e-09 -1.887266e-09)) ((1.575051e-13 4.451754e-13 -9.744499e-14) (-1.069363e-12 -4.958945e-11 4.500925e-11))
33.82519      	((-4.586145e-05 -3.126779e-09 -3.006489e-09) (-2.928726e-05 -1.332708e-09 -1.405463e-09)) ((1.771175e-13 4.789152e-13 -3.863103e-14) (-1.724397e-13 -3.923456e-11 3.450411e-11))
39.19851      	((-4.772232e-05 8.692262e-10 1.406038e-09) (-2.880608e-05 -3.582595e-10 -4.618443e-10)) ((1.506251e-13 4.645806e-13 2.997441e-14) (-1.526235e-13 -1.701220e-11 1.178756e-11))
44.554632     	((-4.905129e-05 5.019685e-09 5.797458e-09) (-2.840861e-05 7.858891e-10 6.477120e-10)) ((1.716740e-13 4.308979e-13 7.075262e-14) (-2.757526e-13 -1.098961e-12 -8.471640e-12))
49.92056      	((-4.977444e-05 9.360326e-09 1.025836e-08) (-2.805893e-05 1.787697e-09 1.674710e-09)) ((1.532774e-13 3.558884e-13 3.873321e-14) (-1.228842e-12 4.411918e-12 -1.638956e-11))
55.316913     	((-5.008416e-05 1.181476e-08 1.285108e-08) (-2.773943e-05 2.596941e-09 2.569742e-09)) ((7.181674e-14 3.330254e-13 3.801064e-14) (-2.911039e-12 7.799340e-12 -2.088878e-11))
60.749675     	((-5.011843e-05 1.149038e-08 1.276266e-08) (-2.744167e-05 3.091674e-09 3.117596e-09)) ((2.990504e-14 3.227989e-13 2.427201e-14) (-1.227177e-12 8.013845e-12 -1.966933e-11))
66.214419     	((-4.997240e-05 1.255008e-08 1.351545e-08) (-2.716575e-05 3.376085e-09 3.272664e-09)) ((-8.044716e-15 3.189354e-13 8.663706e-15) (-6.696800e-13 -1.024379e-12 -1.509060e-11))
71.703035     	((-4.971803e-05 1.208304e-08 1.332004e-08) (-2.690978e-05 3.440258e-09 3.397822e-09)) ((-6.919761e-14 3.168210e-13 4.910335e-15) (-7.944842e-13 -1.952236e-11 -5.472629e-14))
77.208354     	((-4.941623e-05 1.205216e-08 1.307831e-08) (-2.667129e-05 3.286097e-09 3.289334e-09)) ((-1.523489e-13 3.144346e-13 -1.537421e-15) (-7.121608e-13 -4.017109e-11 2.037459e-11))
82.728366     	((-4.915012e-05 1.162561e-08 1.255433e-08) (-2.645133e-05 3.000551e-09 2.993623e-09)) ((-2.263174e-13 3.019712e-13 -1.284257e-14) (-1.080462e-12 -6.521574e-11 4.458092e-11))
88.252657     	((-4.895258e-05 1.037181e-08 1.137083e-08) (-2.625173e-05 2.579543e-09 2.611723e-09)) ((-2.340993e-13 3.526169e-13 -3.836498e-14) (-1.055803e-12 -9.315666e-11 7.138115e-11))
93.780957     	((-4.877725e-05 8.586414e-09 1.010075e-08) (-2.607097e-05 2.068808e-09 2.110981e-09)) ((-2.225232e-13 4.151665e-13 -5.954791e-14) (-6.921157e-13 -1.238400e-10 9.877159e-11))
99.312966     	((-4.861459e-05 7.190603e-09 8.952094e-09) (-2.590728e-05 1.518657e-09 1.596018e-09)) ((-2.167170e-13 4.388611e-13 -7.888514e-14) (-8.872185e-13 -1.533565e-10 1.264183e-10))
104.848397    	((-4.845364e-05 5.896753e-09 7.874851e-09) (-2.575918e-05 1.010835e-09 1.128484e-09)) ((-2.096018e-13 4.502897e-13 -6.650639e-14) (-1.316598e-12 -1.788260e-10 1.545787e-10))
110.387012    	((-4.829601e-05 6.486981e-09 8.681964e-09) (-2.562504e-05 6.739806e-10 7.959038e-10)) ((-1.936022e-13 4.277676e-13 -6.237805e-14) (-7.624869e-13 -1.998254e-10 1.765145e-10))
115.928595    	((-4.813726e-05 8.397199e-09 1.040287e-08) (-2.550291e-05 5.293412e-10 6.410775e-10)) ((-1.705339e-13 4.095293e-13 -6.150897e-14) (1.554555e-13 -2.160799e-10 1.934216e-10))
121.472944    	((-4.798589e-05 1.027970e-08 1.297937e-08) (-2.539110e-05 5.354607e-10 6.599882e-10)) ((-1.516747e-13 3.843970e-13 -6.668087e-14) (1.342517e-13 -2.285742e-10 2.066528e-10))
127.01988     	((-4.785248e-05 1.096027e-08 1.396455e-08) (-2.528956e-05 5.991029e-10 7.820936e-10)) ((-1.199605e-13 3.894103e-13 -6.714700e-14) (-4.707933e-13 -2.364837e-10 2.164284e-10))
132.56924     	((-4.772159e-05 1.115278e-08 1.435180e-08) (-2.519680e-05 6.646890e-10 8.767089e-10)) ((-7.490732e-14 4.050686e-13 -7.119330e-14) (-8.904592e-13 -2.393922e-10 2.234554e-10))
138.120873    	((-4.760256e-05 1.217623e-08 1.563546e-08) (-2.511251e-05 7.843958e-10 9.808865e-10)) ((-5.965948e-14 3.907083e-13 -7.209127e-14) (-9.756388e-13 -2.390962e-10 2.292305e-10))
143.674632    	((-4.746502e-05 1.186701e-08 1.665892e-08) (-2.503467e-05 9.073517e-10 1.159905e-09)) ((-5.886804e-14 3.947823e-13 -6.714131e-14) (-9.430120e-13 -2.367522e-10 2.303047e-10))
149.23038     	((-4.732951e-05 1.066291e-08 1.622173e-08) (-2.496167e-05 9.431882e-10 1.339640e-09)) ((-7.398449e-14 4.243475e-13 -5.548856e-14) (-8.493202e-13 -2.316299e-10 2.277918e-10))
154.787992    	((-4.719831e-05 1.051770e-08 1.600476e-08) (-2.489283e-05 9.719213e-10 1.488182e-09)) ((-8.534521e-14 4.291761e-13 -4.596991e-14) (-7.725998e-13 -2.242607e-10 2.221099e-10))
160.347357    	((-4.707262e-05 1.044167e-08 1.690629e-08) (-2.482770e-05 1.054529e-09 1.701066e-09)) ((-9.933426e-14 4.087465e-13 -4.205710e-14) (-7.079597e-13 -2.155633e-10 2.127821e-10))
165.908375    	((-4.695455e-05 1.045349e-08 1.813121e-08) (-2.476656e-05 1.183407e-09 1.969938e-09)) ((-1.114128e-13 3.906808e-13 -3.636375e-14) (-6.123226e-13 -2.070706e-10 2.024076e-10))
171.470952    	((-4.683780e-05 9.836627e-09 1.832226e-08) (-2.470927e-05 1.311098e-09 2.200218e-09)) ((-1.146199e-13 3.894032e-13 -3.291359e-14) (-7.245014e-13 -1.993891e-10 1.915390e-10))
177.035005    	((-4.672398e-05 9.777053e-09 1.903701e-08) (-2.465542e-05 1.446915e-09 2.376472e-09)) ((-1.217775e-13 3.791064e-13 -3.472863e-14) (-7.891076e-13 -1.934449e-10 1.798484e-10))
182.600457    	((-4.662140e-05 1.056587e-08 2.050051e-08) (-2.460509e-05 1.613984e-09 2.621129e-09)) ((-1.261411e-13 3.653887e-13 -4.223634e-14) (-7.256822e-13 -1.878800e-10 1.682162e-10))
188.167236    	((-4.652792e-05 1.091031e-08 2.224862e-08) (-2.455817e-05 1.800111e-09 2.920486e-09)) ((-1.294638e-13 3.481599e-13 -4.700470e-14) (-7.316074e-13 -1.825032e-10 1.576383e-10))
193.735278    	((-4.645022e-05 1.149793e-08 2.412573e-08) (-2.451503e-05 1.998374e-09 3.250048e-09)) ((-1.309824e-13 3.302262e-13 -4.714760e-14) (-6.645212e-13 -1.778867e-10 1.499765e-10))
199.304522    	((-4.637681e-05 1.262358e-08 2.656415e-08) (-2.447559e-05 2.205633e-09 3.607227e-09)) ((-1.232904e-13 3.043041e-13 -4.983789e-14) (-6.514502e-13 -1.744473e-10 1.434928e-10))
204.874902    	((-4.630033e-05 1.427593e-08 2.959124e-08) (-2.443908e-05 2.482894e-09 4.021863e-09)) ((-1.058590e-13 2.709970e-13 -5.010022e-14) (-7.502883e-13 -1.722954e-10 1.375534e-10))
210.446349    	((-4.622117e-05 1.513793e-08 3.198551e-08) (-2.440492e-05 2.746416e-09 4.425152e-09)) ((-8.524343e-14 2.527049e-13 -4.988358e-14) (-8.332472e-13 -1.708770e-10 1.324028e-10))
216.018793    	((-4.614467e-05 1.647218e-08 3.498936e-08) (-2.437290e-05 2.992691e-09 4.834553e-09)) ((-6.209978e-14 2.266120e-13 -5.371530e-14) (-9.398706e-13 -1.705683e-10 1.290175e-10))
221.592166    	((-4.606598e-05 1.819177e-08 3.868913e-08) (-2.434246e-05 3.262190e-09 5.297486e-09)) ((-3.371857e-14 1.920012e-13 -6.036952e-14) (-9.640340e-13 -1.717143e-10 1.268949e-10))
227.166404    	((-4.599260e-05 1.968339e-08 4.209415e-08) (-2.431344e-05 3.504347e-09 5.756580e-09)) ((-4.431333e-15 1.668045e-13 -6.736970e-14) (-1.037226e-12 -1.741603e-10 1.258234e-10))
232.741447    	((-4.592419e-05 2.184519e-08 4.651863e-08) (-2.428581e-05 3.758398e-09 6.264054e-09)) ((2.156904e-14 1.353502e-13 -7.543744e-14) (-1.104097e-12 -1.785118e-10 1.266327e-10))
238.317245    	((-4.586514e-05 2.374992e-08 5.082997e-08) (-2.425980e-05 3.994201e-09 6.796702e-09)) ((4.407250e-14 1.089123e-13 -8.278328e-14) (-1.085222e-12 -1.847347e-10 1.291195e-10))
243.893751    	((-4.580972e-05 2.628847e-08 5.558982e-08) (-2.423531e-05 4.246172e-09 7.345048e-09)) ((6.495626e-14 8.312233e-14 -8.945408e-14) (-1.042222e-12 -1.928642e-10 1.331387e-10))
249.470925    	((-4.576186e-05 2.969759e-08 6.157191e-08) (-2.421246e-05 4.551511e-09 7.948930e-09)) ((7.689398e-14 4.214222e-14 -9.395516e-14) (-9.810611e-13 -2.034825e-10 1.388131e-10))
255.048724    	((-4.571056e-05 3.318907e-08 6.781521e-08) (-2.419075e-05 4.883745e-09 8.600214e-09)) ((8.314701e-14 7.143621e-15 -9.918579e-14) (-9.298142e-13 -2.161762e-10 1.462128e-10))
260.627111    	((-4.566473e-05 3.774753e-08 7.470946e-08) (-2.417010e-05 5.278074e-09 9.312154e-09)) ((8.447695e-14 -2.814499e-14 -1.036501e-13) (-9.208531e-13 -2.302233e-10 1.554787e-10))
266.206047    	((-4.561910e-05 4.260714e-08 8.301441e-08) (-2.415040e-05 5.738878e-09 1.013730e-08)) ((8.045581e-14 -7.787990e-14 -1.070856e-13) (-9.080414e-13 -2.452290e-10 1.663090e-10))
271.785496    	((-4.557596e-05 4.806082e-08 9.140170e-08) (-2.413154e-05 6.269244e-09 1.105635e-08)) ((7.625181e-14 -1.226152e-13 -1.109029e-13) (-8.402897e-13 -2.607665e-10 1.778625e-10))
277.365423    	((-4.553538e-05 5.389698e-08 1.008024e-07) (-2.411358e-05 6.868377e-09 1.208505e-08)) ((6.927885e-14 -1.768337e-13 -1.153852e-13) (-7.256537e-13 -2.769399e-10 1.898864e-10))
282.945796    	((-4.549725e-05 6.029625e-08 1.110277e-07) (-2.409653e-05 7.539638e-09 1.323880e-08)) ((5.983719e-14 -2.365049e-13 -1.190978e-13) (-6.549310e-13 -2.934410e-10 2.025795e-10))
288.526584    	((-4.546185e-05 6.708886e-08 1.218527e-07) (-2.408046e-05 8.282782e-09 1.450722e-08)) ((5.099758e-14 -2.989409e-13 -1.217763e-13) (-6.914806e-13 -3.101816e-10 2.154615e-10))
294.107758    	((-4.542907e-05 7.429669e-08 1.335439e-07) (-2.406539e-05 9.100610e-09 1.589357e-08)) ((4.328858e-14 -3.661612e-13 -1.233442e-13) (-7.604729e-13 -3.273475e-10 2.283394e-10))
299.689291    	((-4.539767e-05 8.187727e-08 1.459790e-07) (-2.405125e-05 9.992148e-09 1.740086e-08)) ((3.650630e-14 -4.371627e-13 -1.249194e-13) (-8.254043e-13 -3.449404e-10 2.411186e-10))
305.271156    	((-4.536720e-05 8.971625e-08 1.590462e-07) (-2.403795e-05 1.096230e-08 1.903104e-08)) ((3.072595e-14 -5.104113e-13 -1.265715e-13) (-8.592087e-13 -3.627612e-10 2.535776e-10))
310.853328    	((-4.533734e-05 9.785738e-08 1.727498e-07) (-2.402541e-05 1.201040e-08 2.077833e-08)) ((2.773049e-14 -5.870381e-13 -1.282768e-13) (-8.644113e-13 -3.804431e-10 2.652566e-10))
316.435782    	((-4.530814e-05 1.063139e-07 1.872722e-07) (-2.401355e-05 1.313273e-08 2.265428e-08)) ((3.038125e-14 -6.684666e-13 -1.310839e-13) (-8.525475e-13 -3.977869e-10 2.759446e-10))
322.018496    	((-4.528005e-05 1.152069e-07 2.028288e-07) (-2.400232e-05 1.433482e-08 2.467674e-08)) ((4.056475e-14 -7.555511e-13 -1.336729e-13) (-8.507995e-13 -4.147610e-10 2.855571e-10))
327.601448    	((-4.525252e-05 1.247392e-07 2.196833e-07) (-2.399165e-05 1.563395e-08 2.687509e-08)) ((5.529579e-14 -8.528804e-13 -1.360283e-13) (-8.703079e-13 -4.312991e-10 2.942270e-10))
333.184617    	((-4.522631e-05 1.345542e-07 2.376126e-07) (-2.398153e-05 1.702424e-08 2.925885e-08)) ((6.771063e-14 -9.556856e-13 -1.387420e-13) (-9.187320e-13 -4.473730e-10 3.021513e-10))
338.767983    	((-4.520099e-05 1.449832e-07 2.569533e-07) (-2.397191e-05 1.850668e-08 3.183872e-08)) ((7.889017e-14 -1.067096e-12 -1.419668e-13) (-9.735505e-13 -4.632947e-10 3.093516e-10))
344.351524    	((-4.517668e-05 1.561424e-07 2.774945e-07) (-2.396276e-05 2.009416e-08 3.461633e-08)) ((8.848877e-14 -1.185740e-12 -1.467857e-13) (-1.011106e-12 -4.796238e-10 3.160328e-10))
349.935219    	((-4.515324e-05 1.682178e-07 2.994427e-07) (-2.395406e-05 2.179864e-08 3.759191e-08)) ((9.985764e-14 -1.313739e-12 -1.523901e-13) (-1.034622e-12 -4.967714e-10 3.226338e-10))
355.519048    	((-4.513068e-05 1.811772e-07 3.231448e-07) (-2.394576e-05 2.362724e-08 4.078218e-08)) ((1.107761e-13 -1.454821e-12 -1.584879e-13) (-1.047985e-12 -5.152272e-10 3.295596e-10))
361.10299     	((-4.510875e-05 1.954764e-07 3.490303e-07) (-2.393783e-05 2.559813e-08 4.422038e-08)) ((1.218568e-13 -1.612724e-12 -1.661201e-13) (-1.086965e-12 -5.354194e-10 3.372897e-10))
