# Forces      
# CofR        : (0.000000e+00 0.000000e+00 0.000000e+00)
# Time        forces(pressure viscous)	moments(pressure viscous)
0             	((0.000000e+00 0.000000e+00 0.000000e+00) (0.000000e+00 0.000000e+00 0.000000e+00)) ((0.000000e+00 0.000000e+00 0.000000e+00) (0.000000e+00 0.000000e+00 0.000000e+00))
0.012         	((9.083729e-13 -2.260834e-10 -4.643780e-13) (1.195896e-15 -5.739691e-12 1.895309e-14)) ((5.954385e-17 -4.251196e-17 5.141348e-12) (-2.460366e-17 4.667058e-16 7.001449e-09))
0.0264        	((2.877450e-12 -3.309581e-11 2.265944e-15) (8.066452e-15 -8.476673e-12 3.437527e-14)) ((-4.508803e-17 4.494677e-16 2.356286e-12) (-7.239837e-18 1.297025e-15 6.413420e-09))
0.04368       	((2.122816e-12 -1.052426e-10 -1.663133e-12) (9.971198e-15 -8.928462e-12 4.925318e-14)) ((8.999913e-17 5.455688e-16 1.282316e-12) (1.606672e-18 2.319560e-15 5.808708e-09))
0.064416      	((3.461105e-12 1.495880e-11 1.463846e-12) (7.244969e-15 -7.707153e-12 8.072828e-14)) ((-2.902840e-17 2.880982e-16 6.877744e-13) (1.442953e-16 3.630101e-15 5.200682e-09))
0.0892992     	((-1.824352e-12 -4.675749e-11 -1.292004e-12) (4.294535e-15 -6.409304e-12 1.227565e-13)) ((1.388454e-16 7.472478e-16 5.143503e-13) (4.512812e-16 5.275339e-15 4.607150e-09))
0.119159      	((1.183914e-12 8.468568e-12 -2.005053e-13) (2.408033e-15 -5.211915e-12 1.450961e-13)) ((-5.673019e-18 5.438002e-16 3.832941e-13) (5.992839e-16 6.159142e-15 4.046508e-09))
0.154991      	((-6.880743e-13 -2.302294e-11 3.965031e-13) (-6.264200e-16 -4.707188e-12 1.498984e-13)) ((6.398259e-17 4.089397e-16 3.123739e-13) (7.493301e-16 6.420555e-15 3.531687e-09))
0.197989      	((1.421140e-13 -7.096488e-12 6.305167e-14) (-7.264501e-15 -4.084975e-12 1.476393e-13)) ((1.119613e-16 3.578028e-16 2.556098e-13) (9.827976e-16 6.437742e-15 3.075235e-09))
0.249587      	((-7.148654e-13 -1.847945e-11 -5.404217e-13) (-1.194994e-14 -3.605142e-12 1.516741e-13)) ((8.648835e-17 3.979941e-16 2.103921e-13) (1.030506e-15 6.141491e-15 2.684001e-09))
0.311504      	((3.013602e-13 -1.068203e-11 -2.309403e-13) (-1.146813e-14 -3.264859e-12 1.668216e-13)) ((5.193246e-17 2.456403e-16 1.709452e-13) (8.230279e-16 5.875298e-15 2.357051e-09))
0.385805      	((1.256415e-12 -8.343882e-12 6.391162e-14) (-6.049946e-15 -3.110504e-12 1.846804e-13)) ((2.331790e-17 9.575752e-17 1.404948e-13) (2.805602e-16 5.968659e-15 2.087318e-09))
0.474966      	((2.258748e-12 -8.432687e-12 -2.658182e-13) (3.915371e-15 -3.106022e-12 1.886902e-13)) ((1.979982e-18 5.706836e-17 1.198718e-13) (8.885836e-17 5.953703e-15 1.864186e-09))
0.581959      	((1.758420e-12 -5.742608e-12 -2.231120e-13) (-1.898484e-14 -2.847074e-12 1.463803e-13)) ((1.814034e-17 -7.395661e-17 1.017543e-13) (2.014103e-16 4.014516e-15 1.676631e-09))
0.710351      	((2.771062e-12 -4.322963e-12 1.640482e-13) (-5.163961e-14 -2.438652e-12 7.998728e-14)) ((-5.645172e-17 -1.395482e-16 8.436380e-14) (1.459823e-16 7.998433e-16 1.515514e-09))
0.864421      	((2.604922e-12 -7.508926e-12 3.577905e-13) (-7.026675e-14 -2.370053e-12 3.425134e-14)) ((-9.594893e-17 -3.000755e-16 7.222945e-14) (-2.281763e-16 -1.973719e-15 1.374392e-09))
1.049306      	((2.787603e-12 -1.186565e-11 2.621670e-13) (-9.036756e-14 -2.249548e-12 -1.539554e-14)) ((-1.053023e-16 -3.856898e-16 6.507541e-14) (4.407094e-16 -3.529280e-15 1.248987e-09))
1.271167      	((3.657643e-12 -1.348328e-11 3.342167e-14) (-1.013886e-13 -2.033660e-12 -8.223343e-14)) ((-8.815885e-17 -3.913784e-16 5.941341e-14) (2.203830e-15 -3.780104e-15 1.136400e-09))
1.5374        	((4.096072e-12 -1.461110e-11 9.788753e-14) (-1.894854e-13 -2.160104e-12 -1.440976e-13)) ((-1.000514e-16 -5.644450e-16 5.483829e-14) (5.023082e-15 -2.239950e-15 1.034782e-09))
1.85688       	((4.881488e-12 -2.011948e-11 5.769692e-13) (-3.724116e-13 -2.450737e-12 -1.310965e-13)) ((-1.205391e-16 -6.109990e-16 5.128339e-14) (9.271251e-15 2.706987e-15 9.431085e-10))
2.240256      	((3.839928e-12 -1.388931e-11 3.361602e-14) (-6.187562e-13 -2.233125e-12 -1.083575e-13)) ((-1.302372e-16 -6.494516e-16 4.996310e-14) (1.575715e-14 1.025065e-14 8.608604e-10))
2.700307      	((3.794709e-12 -8.280939e-12 -3.634308e-14) (-9.731578e-13 -1.535427e-12 -1.495975e-13)) ((-1.040569e-16 -6.553965e-16 4.843124e-14) (2.496965e-14 1.923401e-14 7.876684e-10))
3.252369      	((2.995407e-12 -6.011439e-12 -4.597151e-14) (-1.400017e-12 -9.200841e-13 -2.362619e-13)) ((-5.878445e-17 -6.099593e-16 4.602427e-14) (3.462123e-14 2.566552e-14 7.230106e-10))
3.914842      	((2.302849e-12 -3.952888e-12 -2.275855e-13) (-1.846885e-12 -3.546013e-13 -2.204892e-13)) ((-1.035239e-16 -5.033424e-16 4.244681e-14) (4.085944e-14 3.289981e-14 6.660954e-10))
4.709811      	((4.250319e-13 -2.123789e-12 -2.614973e-13) (-2.222536e-12 4.211645e-13 -1.240954e-13)) ((-4.479221e-17 -3.685566e-16 3.826479e-14) (4.378279e-14 3.819644e-14 6.159301e-10))
5.663773      	((-4.759456e-13 9.075509e-13 3.416665e-14) (-2.468322e-12 1.403378e-12 -2.396947e-14)) ((1.523982e-17 -2.508351e-16 3.451079e-14) (4.463625e-14 4.053360e-14 5.713728e-10))
6.808528      	((-6.418558e-13 7.997233e-13 -3.011968e-14) (-2.510433e-12 1.815520e-12 1.059658e-14)) ((1.899170e-17 -1.386175e-16 3.103673e-14) (4.231921e-14 3.858150e-14 5.313097e-10))
8.182233      	((-9.568731e-13 2.035797e-12 1.461580e-13) (-2.294574e-12 1.631897e-12 -4.198822e-15)) ((4.333069e-17 -8.637641e-17 2.799696e-14) (3.658663e-14 3.228037e-14 4.949056e-10))
9.83068       	((-8.414735e-13 7.839011e-13 -4.306467e-14) (-1.995351e-12 1.183300e-12 1.862252e-14)) ((8.313527e-17 2.554457e-17 2.554652e-14) (2.912014e-14 2.609920e-14 4.615747e-10))
11.808816     	((-1.047533e-13 -8.383325e-13 1.022183e-13) (-1.601582e-12 5.739328e-13 -1.515984e-14)) ((9.645656e-17 7.435722e-17 2.342748e-14) (2.206098e-14 1.815293e-14 4.309225e-10))
14.182579     	((2.104043e-13 -7.650441e-13 7.637409e-14) (-1.199321e-12 2.108536e-13 1.621469e-14)) ((1.041609e-16 1.522869e-16 2.177032e-14) (1.573588e-14 1.325876e-14 4.026960e-10))
17.031095     	((2.298360e-13 -5.521696e-13 5.976567e-14) (-8.894873e-13 4.248515e-14 5.883178e-14)) ((8.323156e-17 1.824721e-16 2.048814e-14) (1.060951e-14 9.560939e-15 3.767475e-10))
20.449314     	((3.458016e-13 -9.567886e-13 1.211338e-13) (-6.599282e-13 -1.037732e-13 2.580196e-14)) ((6.344221e-17 2.034186e-16 1.946098e-14) (7.646467e-15 5.194779e-15 3.529715e-10))
24.551176     	((4.030659e-13 -1.215974e-12 1.331929e-13) (-5.147956e-13 -6.012605e-14 -3.925491e-15)) ((5.013708e-17 1.899195e-16 1.852840e-14) (5.457789e-15 3.056430e-15 3.312463e-10))
29.473411     	((3.240787e-13 -1.084972e-12 9.587294e-14) (-4.103481e-13 7.349851e-14 -1.896272e-14)) ((4.082983e-17 1.658927e-16 1.777704e-14) (4.515871e-15 2.697418e-15 3.114276e-10))
35.380094     	((4.806227e-13 -1.106380e-12 9.876311e-14) (-3.532284e-13 2.236553e-13 -1.193793e-14)) ((4.699932e-17 1.604479e-16 1.709406e-14) (4.608561e-15 3.622323e-15 2.933380e-10))
42.468112     	((3.328505e-13 -1.061958e-12 9.398134e-14) (-3.355544e-13 3.710484e-13 -9.157345e-15)) ((5.710210e-17 1.450570e-16 1.655609e-14) (5.125338e-15 4.523265e-15 2.768241e-10))
50.973735     	((2.202558e-13 -1.098902e-12 6.394507e-14) (-3.573618e-13 5.461283e-13 -2.438515e-14)) ((5.485793e-17 1.380697e-16 1.604045e-14) (5.890917e-15 5.040421e-15 2.617627e-10))
61.180482     	((2.833212e-13 -9.923372e-13 3.744704e-14) (-3.725115e-13 6.939743e-13 -4.191652e-14)) ((4.770892e-17 1.258526e-16 1.565228e-14) (6.934225e-15 5.295128e-15 2.480466e-10))
73.428578     	((7.923741e-14 -8.192938e-13 1.598354e-14) (-3.979996e-13 8.316205e-13 -4.084934e-14)) ((4.401360e-17 1.132577e-16 1.540382e-14) (7.949149e-15 6.101635e-15 2.355845e-10))
88.126294     	((1.386335e-13 -8.441053e-13 -2.064961e-14) (-4.217222e-13 9.488984e-13 -4.236367e-14)) ((4.049542e-17 9.844603e-17 1.516014e-14) (8.745901e-15 6.939262e-15 2.242839e-10))
105.763553    	((-2.331933e-14 -7.981961e-13 -1.244717e-14) (-4.347163e-13 1.004862e-12 -3.632252e-14)) ((3.832964e-17 8.330524e-17 1.489467e-14) (9.135201e-15 7.426413e-15 2.140530e-10))
126.928263    	((-6.658455e-14 -6.855990e-13 -1.733796e-14) (-4.507186e-13 9.856105e-13 -2.795902e-14)) ((3.747903e-17 7.146410e-17 1.466944e-14) (8.944838e-15 7.550492e-15 2.048027e-10))
152.325916    	((-1.502709e-13 -6.806611e-13 -1.371075e-14) (-4.425429e-13 9.492798e-13 -1.476629e-14)) ((3.461688e-17 6.044731e-17 1.446229e-14) (8.343994e-15 7.449953e-15 1.964387e-10))
182.803099    	((-1.824468e-13 -7.235502e-13 1.257342e-15) (-4.121401e-13 9.107407e-13 -3.677410e-15)) ((3.059128e-17 4.878612e-17 1.427379e-14) (7.768273e-15 7.200751e-15 1.888611e-10))
219.375719    	((-1.467597e-13 -8.323792e-13 8.059790e-15) (-3.933509e-13 9.011275e-13 -7.156142e-17)) ((2.980543e-17 4.739338e-17 1.411076e-14) (7.583909e-15 7.117377e-15 1.819793e-10))
263.262863    	((-1.930651e-13 -8.880146e-13 2.195833e-14) (-3.708798e-13 9.402848e-13 5.277198e-15)) ((2.897714e-17 4.777595e-17 1.395049e-14) (7.304532e-15 7.057648e-15 1.757208e-10))
315.927436    	((-2.221731e-13 -9.223347e-13 8.702267e-15) (-3.672647e-13 9.294537e-13 6.584377e-15)) ((3.102886e-17 4.767684e-17 1.379307e-14) (6.975181e-15 7.243795e-15 1.700261e-10))
379.124923    	((-2.509952e-13 -9.428664e-13 1.189401e-14) (-3.634592e-13 8.914847e-13 4.386321e-15)) ((2.930711e-17 4.692703e-17 1.364434e-14) (6.755805e-15 7.351998e-15 1.648493e-10))
454.961908    	((-2.407325e-13 -9.951248e-13 1.559206e-14) (-3.540459e-13 8.531667e-13 -1.749576e-15)) ((2.684313e-17 4.246939e-17 1.350548e-14) (6.600230e-15 7.162288e-15 1.601553e-10))
545.966289    	((-2.125605e-13 -1.019623e-12 2.978552e-15) (-3.436809e-13 8.465776e-13 -5.519123e-15)) ((2.478720e-17 3.561943e-17 1.337542e-14) (6.358066e-15 6.965603e-15 1.559127e-10))
655.171547    	((-2.381974e-13 -1.078252e-12 1.610071e-14) (-3.377265e-13 8.406891e-13 -5.470768e-15)) ((2.050945e-17 3.224546e-17 1.325680e-14) (5.969810e-15 6.579037e-15 1.520900e-10))
786.217856    	((-2.422767e-13 -1.082345e-12 2.546219e-14) (-3.303819e-13 8.377624e-13 -2.787279e-16)) ((1.784320e-17 2.926953e-17 1.314288e-14) (5.402666e-15 6.149448e-15 1.486582e-10))
943.473427    	((-2.235915e-13 -1.061124e-12 3.048766e-14) (-3.048650e-13 8.254124e-13 6.185108e-15)) ((1.678120e-17 2.743479e-17 1.303351e-14) (4.815517e-15 5.743892e-15 1.455911e-10))
1132.180113   	((-1.894170e-13 -1.041244e-12 2.531595e-14) (-2.735279e-13 8.075855e-13 9.790104e-15)) ((1.711944e-17 2.703292e-17 1.293000e-14) (4.335083e-15 5.372936e-15 1.428647e-10))
1358.628135   	((-1.487273e-13 -1.055228e-12 1.588328e-14) (-2.557277e-13 7.913211e-13 9.818474e-15)) ((1.689930e-17 2.650985e-17 1.283433e-14) (3.882428e-15 5.028796e-15 1.404542e-10))
1630.365763   	((-1.287580e-13 -1.097924e-12 1.274073e-14) (-2.448044e-13 7.844824e-13 1.298786e-14)) ((1.630556e-17 2.790361e-17 1.274856e-14) (3.527223e-15 4.761639e-15 1.383343e-10))
1956.450915   	((-1.337928e-13 -1.133656e-12 1.629300e-14) (-2.408442e-13 7.790737e-13 1.617341e-14)) ((1.684088e-17 2.940230e-17 1.266813e-14) (3.284115e-15 4.588721e-15 1.364808e-10))
2347.753098   	((-1.239706e-13 -1.128825e-12 1.934868e-14) (-2.399774e-13 7.671920e-13 1.648442e-14)) ((1.796362e-17 2.968740e-17 1.259412e-14) (3.109357e-15 4.496836e-15 1.348696e-10))
2817.315718   	((-1.369427e-13 -1.117810e-12 2.063654e-14) (-2.376514e-13 7.501802e-13 1.773465e-14)) ((1.785493e-17 3.012791e-17 1.253045e-14) (2.845468e-15 4.444747e-15 1.334781e-10))
3380.790861   	((-1.443109e-13 -1.126031e-12 2.249014e-14) (-2.371079e-13 7.286686e-13 1.762436e-14)) ((1.746469e-17 3.011005e-17 1.247578e-14) (2.604505e-15 4.342149e-15 1.322847e-10))
4056.961033   	((-1.489185e-13 -1.139485e-12 2.404027e-14) (-2.361110e-13 7.074165e-13 1.718974e-14)) ((1.741811e-17 3.024245e-17 1.242860e-14) (2.372846e-15 4.178384e-15 1.312684e-10))
4868.36524    	((-1.548511e-13 -1.145624e-12 2.805343e-14) (-2.355962e-13 6.869980e-13 1.703284e-14)) ((1.721054e-17 3.025127e-17 1.238867e-14) (2.124851e-15 3.969301e-15 1.304090e-10))
5842.050288   	((-1.614997e-13 -1.150744e-12 3.075677e-14) (-2.327981e-13 6.683770e-13 1.657450e-14)) ((1.712553e-17 2.921516e-17 1.235475e-14) (1.959852e-15 3.718611e-15 1.296878e-10))
7010.472346   	((-1.739067e-13 -1.143148e-12 3.710704e-14) (-2.292964e-13 6.506981e-13 1.728768e-14)) ((1.767606e-17 2.931474e-17 1.232786e-14) (1.824922e-15 3.491797e-15 1.290867e-10))
8412.578815   	((-1.707911e-13 -1.129417e-12 4.012341e-14) (-2.262967e-13 6.378881e-13 1.702213e-14)) ((1.752131e-17 2.906432e-17 1.230493e-14) (1.728198e-15 3.353050e-15 1.285895e-10))
10095.106578  	((-1.583761e-13 -1.112706e-12 3.967525e-14) (-2.244153e-13 6.274630e-13 1.671885e-14)) ((1.716528e-17 2.855659e-17 1.228695e-14) (1.654529e-15 3.244361e-15 1.281810e-10))
12114.139893  	((-1.439861e-13 -1.096783e-12 4.296053e-14) (-2.235119e-13 6.188218e-13 1.594693e-14)) ((1.716227e-17 2.815387e-17 1.227254e-14) (1.591496e-15 3.170256e-15 1.278474e-10))
14536.979872  	((-1.251763e-13 -1.088833e-12 4.472444e-14) (-2.219234e-13 6.116404e-13 1.501380e-14)) ((1.792173e-17 2.761405e-17 1.226144e-14) (1.508624e-15 3.110955e-15 1.275766e-10))
17444.387847  	((-1.073564e-13 -1.078490e-12 4.743091e-14) (-2.184242e-13 6.061485e-13 1.546396e-14)) ((1.808208e-17 2.755530e-17 1.225145e-14) (1.436479e-15 3.028391e-15 1.273579e-10))
20933.277416  	((-8.516020e-14 -1.076924e-12 5.203739e-14) (-2.143743e-13 6.005823e-13 1.572504e-14)) ((1.841494e-17 2.748915e-17 1.224384e-14) (1.379591e-15 2.958700e-15 1.271823e-10))
25119.944899  	((-6.244547e-14 -1.075210e-12 5.772215e-14) (-2.129382e-13 5.962136e-13 1.611585e-14)) ((1.864674e-17 2.738293e-17 1.223730e-14) (1.337666e-15 2.885546e-15 1.270418e-10))
30143.945879  	((-3.668151e-14 -1.074210e-12 6.327716e-14) (-2.122141e-13 5.929965e-13 1.649806e-14)) ((1.893864e-17 2.729648e-17 1.223228e-14) (1.313705e-15 2.817881e-15 1.269299e-10))
36172.747055  	((-7.322282e-15 -1.072575e-12 6.838721e-14) (-2.118352e-13 5.909543e-13 1.679021e-14)) ((1.924363e-17 2.727608e-17 1.222856e-14) (1.301092e-15 2.746289e-15 1.268409e-10))
43407.308466  	((2.735462e-14 -1.067737e-12 7.091661e-14) (-2.119541e-13 5.901138e-13 1.717966e-14)) ((1.972586e-17 2.704129e-17 1.222593e-14) (1.280121e-15 2.680420e-15 1.267704e-10))
52088.782159  	((6.563686e-14 -1.054027e-12 7.046288e-14) (-2.130561e-13 5.896448e-13 1.680711e-14)) ((2.089678e-17 2.631164e-17 1.222370e-14) (1.272556e-15 2.599793e-15 1.267147e-10))
62506.550591  	((1.067300e-13 -1.043415e-12 8.190632e-14) (-2.135387e-13 5.881273e-13 1.565594e-14)) ((2.100256e-17 2.674889e-17 1.222173e-14) (1.324933e-15 2.534403e-15 1.266708e-10))
74961.724019  	((1.591868e-13 -1.033286e-12 9.253975e-14) (-2.131555e-13 5.877488e-13 1.525582e-14)) ((2.104382e-17 2.663921e-17 1.221988e-14) (1.354050e-15 2.510234e-15 1.266363e-10))
89454.30939   	((2.330068e-13 -1.024223e-12 1.020365e-13) (-2.123193e-13 5.889849e-13 1.505656e-14)) ((2.144025e-17 2.631786e-17 1.221803e-14) (1.372897e-15 2.489173e-15 1.266093e-10))
105984.312036 	((3.148863e-13 -1.015472e-12 1.202403e-13) (-2.105574e-13 5.930619e-13 1.456084e-14)) ((2.023096e-17 2.800282e-17 1.221419e-14) (1.423870e-15 2.478612e-15 1.265882e-10))
124551.736051 	((4.315476e-13 -9.996080e-13 1.196610e-13) (-2.097713e-13 5.954529e-13 1.507905e-14)) ((2.377158e-17 2.384350e-17 1.221309e-14) (1.358183e-15 2.464408e-15 1.265716e-10))
144925.98104  	((5.085093e-13 -9.844200e-13 1.656868e-13) (-2.086583e-13 6.001604e-13 1.405773e-14)) ((2.100112e-17 2.951623e-17 1.220788e-14) (1.471582e-15 2.457249e-15 1.265587e-10))
165300.249877 	((6.574080e-13 -9.781436e-13 1.618760e-13) (-2.049264e-13 6.067118e-13 1.666932e-14)) ((2.326086e-17 2.315528e-17 1.220302e-14) (1.469461e-15 2.347145e-15 1.265487e-10))
185674.536747 	((8.518690e-13 -9.618236e-13 1.720835e-13) (-2.005103e-13 6.153152e-13 1.573979e-14)) ((2.483491e-17 2.441717e-17 1.219477e-14) (1.390938e-15 2.313304e-15 1.265410e-10))
206048.838272 	((1.024092e-12 -9.083189e-13 1.868751e-13) (-1.960647e-13 6.206258e-13 1.522648e-14)) ((2.014450e-17 2.443659e-17 1.218049e-14) (1.410921e-15 2.331051e-15 1.265352e-10))
226423.152773 	((1.144948e-12 -8.466506e-13 1.870868e-13) (-1.907984e-13 6.244906e-13 1.543595e-14)) ((2.610517e-17 2.529738e-17 1.217312e-14) (1.601451e-15 2.299195e-15 1.265304e-10))
246797.479587 	((1.302461e-12 -8.501653e-13 2.017254e-13) (-1.841983e-13 6.307799e-13 1.374017e-14)) ((1.331407e-17 2.085195e-17 1.214816e-14) (1.537423e-15 2.186071e-15 1.265268e-10))
267171.817837 	((1.329424e-12 -8.442254e-13 1.947185e-13) (-1.827417e-13 6.263121e-13 1.381597e-14)) ((1.275884e-17 2.391543e-17 1.214526e-14) (1.550112e-15 2.276254e-15 1.265237e-10))
287546.167447 	((1.277844e-12 -8.639430e-13 2.209774e-13) (-1.764401e-13 6.237403e-13 1.409301e-14)) ((1.529883e-17 1.763976e-17 1.213058e-14) (1.449209e-15 2.474338e-15 1.265203e-10))
307920.526985 	((1.206686e-12 -9.375069e-13 2.511004e-13) (-1.795660e-13 6.165187e-13 1.703915e-14)) ((1.512155e-17 1.517585e-17 1.211899e-14) (1.283960e-15 2.530728e-15 1.265166e-10))
328294.895024 	((1.103903e-12 -1.038698e-12 2.405775e-13) (-1.866673e-13 6.090044e-13 2.125432e-14)) ((1.590982e-17 1.071236e-17 1.210987e-14) (1.137033e-15 2.636551e-15 1.265131e-10))
348669.270853 	((9.864757e-13 -1.113051e-12 1.789798e-13) (-1.921403e-13 5.978498e-13 1.881527e-14)) ((1.599460e-17 2.047585e-17 1.210373e-14) (1.280728e-15 2.777911e-15 1.265095e-10))
369043.653141 	((8.718946e-13 -1.157783e-12 1.026613e-13) (-1.988118e-13 5.888610e-13 1.605970e-14)) ((1.755892e-17 2.301601e-17 1.209127e-14) (1.364536e-15 2.843317e-15 1.265060e-10))
389418.04118  	((7.460428e-13 -1.231835e-12 2.660388e-14) (-2.040006e-13 5.851071e-13 1.483670e-14)) ((1.633536e-17 2.444758e-17 1.207466e-14) (1.413979e-15 2.847207e-15 1.265026e-10))
409792.435046 	((6.511840e-13 -1.269612e-12 -3.488328e-14) (-2.071553e-13 5.838579e-13 1.429510e-14)) ((1.673509e-17 2.484548e-17 1.206203e-14) (1.441933e-15 2.803122e-15 1.264992e-10))
430166.8346   	((5.857605e-13 -1.281346e-12 -8.986808e-14) (-2.077809e-13 5.825808e-13 1.332547e-14)) ((1.724282e-17 2.489404e-17 1.205354e-14) (1.435662e-15 2.753516e-15 1.264960e-10))
450541.239097 	((5.349575e-13 -1.284610e-12 -1.360307e-13) (-2.078811e-13 5.815885e-13 1.215179e-14)) ((1.751321e-17 2.487476e-17 1.204714e-14) (1.421959e-15 2.688703e-15 1.264931e-10))
470915.647842 	((4.955074e-13 -1.281242e-12 -1.733950e-13) (-2.076022e-13 5.803351e-13 1.151754e-14)) ((1.776943e-17 2.497845e-17 1.204258e-14) (1.407088e-15 2.624276e-15 1.264907e-10))
