# Forces      
# CofR        : (0.000000e+00 0.000000e+00 0.000000e+00)
# Time        forces(pressure viscous)	moments(pressure viscous)
0             	((0.000000e+00 0.000000e+00 0.000000e+00) (2.217929e-15 -4.000934e-05 5.497155e-15)) ((0.000000e+00 0.000000e+00 0.000000e+00) (-2.620230e-16 7.178304e-18 1.445108e-11))
0.012         	((-1.225011e-09 -1.163585e-02 2.451490e-09) (2.447374e-11 -4.591512e-05 3.453507e-11)) ((-4.771310e-12 -7.309411e-14 2.198120e-09) (-3.935915e-13 -1.102346e-14 3.003369e-11))
0.0264        	((-2.566756e-07 8.063169e-04 -2.120851e-07) (-1.507593e-10 -4.684739e-05 -1.237300e-10)) ((1.047326e-11 -6.104526e-13 -1.431305e-10) (-1.304160e-13 1.200186e-13 4.067779e-11))
0.04368       	((1.674671e-07 2.433797e-03 2.355076e-07) (-1.904928e-10 -4.163152e-05 -7.838898e-11)) ((5.327711e-12 -5.917030e-13 -5.892416e-10) (1.336543e-12 1.465827e-13 3.523124e-11))
0.064416      	((-3.916549e-09 2.305755e-05 -3.063251e-08) (-3.910008e-10 -3.687359e-05 -4.918586e-10)) ((-4.175632e-12 1.049747e-13 3.013053e-11) (-4.250249e-12 -2.238281e-14 4.480997e-11))
0.0892992     	((1.633623e-08 -3.178632e-05 -3.215350e-08) (-6.577319e-10 -3.404219e-05 -7.981493e-10)) ((-4.680986e-13 1.474628e-12 3.074785e-11) (-8.425924e-12 -2.982736e-13 4.810418e-11))
0.119159      	((-1.357405e-08 3.654425e-05 -2.125566e-08) (-7.161923e-10 -3.143454e-05 -6.822820e-10)) ((-3.675958e-12 -1.097313e-13 -8.884940e-12) (-3.894865e-13 -7.387067e-13 4.064766e-11))
0.154991      	((7.035367e-10 1.964205e-05 8.065142e-09) (-6.967214e-10 -2.867073e-05 -5.923319e-10)) ((-1.902030e-12 -5.800944e-13 -2.100494e-12) (6.609687e-12 -3.505672e-13 2.939878e-11))
0.197989      	((1.423753e-08 4.748661e-06 4.821144e-09) (-5.369228e-10 -2.588324e-05 -3.597458e-10)) ((-2.260148e-12 -7.629965e-14 -5.261717e-13) (3.924126e-12 -1.939774e-13 1.100598e-11))
0.249587      	((6.263786e-10 -6.514188e-07 3.432841e-09) (-3.391576e-10 -2.315053e-05 -1.622538e-10)) ((-1.644798e-12 -3.257848e-13 1.852941e-12) (-3.806409e-13 -1.364744e-13 2.419786e-12))
0.311504      	((-1.951903e-09 -3.123546e-06 4.938025e-10) (-1.523993e-10 -2.055505e-05 -3.062574e-11)) ((-1.061742e-12 -9.612296e-14 2.788937e-12) (-1.971977e-12 -1.123107e-14 -4.873479e-12))
0.385805      	((-1.902272e-11 -4.305869e-06 1.050190e-09) (7.225073e-12 -1.816324e-05 5.838877e-11)) ((-8.077441e-13 -3.587849e-14 2.215827e-12) (-3.256330e-12 -2.108799e-13 -1.373961e-11))
0.474966      	((8.507909e-10 -4.876657e-06 1.255879e-09) (9.966726e-11 -1.602072e-05 8.170894e-11)) ((-4.858402e-13 -6.484385e-15 1.831570e-12) (-4.301723e-12 -2.287983e-13 -9.016918e-12))
0.581959      	((1.028819e-09 -5.111355e-06 7.866357e-10) (1.471533e-10 -1.414385e-05 7.319025e-11)) ((-3.018938e-13 1.424624e-14 1.527330e-12) (-5.396745e-12 -2.129844e-13 2.887012e-12))
0.710351      	((7.276655e-10 -5.094410e-06 5.195898e-10) (1.920311e-10 -1.253051e-05 4.105310e-11)) ((-1.695819e-13 2.299079e-14 1.289519e-12) (-4.528363e-12 -9.400084e-14 6.400434e-12))
0.864421      	((4.286416e-10 -4.912139e-06 2.701138e-10) (2.554284e-10 -1.116008e-05 3.235498e-11)) ((-7.989250e-14 2.106794e-14 1.378511e-12) (-3.223262e-12 6.975632e-14 4.061275e-12))
1.049306      	((3.833681e-10 -4.642024e-06 1.526779e-10) (2.894267e-10 -9.998897e-06 3.718687e-11)) ((-3.375156e-14 1.326622e-14 1.394428e-12) (-1.981132e-12 1.783492e-13 1.820567e-12))
1.271167      	((4.191631e-10 -4.340635e-06 8.224146e-11) (3.106720e-10 -9.011922e-06 3.738561e-11)) ((-1.175426e-14 1.034372e-14 1.274575e-12) (-7.809384e-13 2.634684e-13 1.609213e-12))
1.5374        	((4.730560e-10 -4.031041e-06 6.016157e-11) (3.070706e-10 -8.162384e-06 3.328887e-11)) ((-4.817536e-15 8.234403e-15 1.244292e-12) (5.085946e-14 3.203456e-13 3.126856e-12))
1.85688       	((5.908233e-10 -3.727341e-06 -1.417027e-11) (2.715123e-10 -7.417195e-06 2.787611e-11)) ((-9.887281e-15 4.059305e-15 1.229327e-12) (6.965037e-13 4.096442e-13 5.254786e-12))
2.240256      	((4.059196e-10 -3.438128e-06 -6.906051e-11) (1.876347e-10 -6.754783e-06 1.904640e-11)) ((-1.257349e-14 4.705074e-15 1.202827e-12) (1.403420e-12 5.017523e-13 9.197814e-12))
2.700307      	((1.518692e-10 -3.167647e-06 -1.294174e-10) (1.004190e-10 -6.161525e-06 2.433607e-11)) ((-1.484557e-14 2.497461e-15 1.187566e-12) (2.157672e-12 4.800600e-13 1.421343e-11))
3.252369      	((2.698807e-11 -2.915523e-06 -1.590904e-10) (7.483855e-11 -5.627766e-06 2.582912e-11)) ((-1.302186e-14 3.682931e-15 1.128518e-12) (2.957106e-12 4.128086e-13 1.804228e-11))
3.914842      	((4.028926e-11 -2.679331e-06 -8.354934e-11) (1.066326e-10 -5.146348e-06 2.268286e-11)) ((-1.526668e-14 3.273905e-15 1.037172e-12) (3.536520e-12 3.991371e-13 1.999604e-11))
4.709811      	((1.416014e-10 -2.460729e-06 4.627448e-11) (1.156415e-10 -4.711981e-06 2.829175e-11)) ((-1.472323e-14 4.648100e-15 9.206430e-13) (3.745964e-12 3.399277e-13 1.976965e-11))
5.663773      	((2.623429e-10 -2.259845e-06 1.100732e-10) (9.967795e-11 -4.320682e-06 2.789813e-11)) ((-1.727205e-14 4.303223e-15 8.208520e-13) (3.600246e-12 2.745378e-13 1.705277e-11))
6.808528      	((3.256407e-10 -2.076475e-06 1.504807e-10) (1.166771e-10 -3.969038e-06 2.622381e-11)) ((-1.819227e-14 2.914380e-15 7.085678e-13) (3.457329e-12 2.209236e-13 1.630945e-11))
8.182233      	((3.215446e-10 -1.909875e-06 8.230925e-11) (9.824935e-11 -3.653432e-06 2.352874e-11)) ((-1.554590e-14 2.993279e-15 6.040926e-13) (3.643268e-12 2.029691e-13 1.700725e-11))
9.83068       	((2.118309e-10 -1.759203e-06 -6.019366e-11) (5.267876e-11 -3.369907e-06 1.606374e-11)) ((-1.576562e-14 4.284573e-15 5.202726e-13) (4.314477e-12 1.901664e-13 1.749311e-11))
11.808816     	((8.763508e-11 -1.622596e-06 -1.515614e-10) (3.623158e-11 -3.114502e-06 7.206101e-12)) ((-1.292862e-14 6.071971e-15 4.505524e-13) (5.626864e-12 1.339260e-13 1.735411e-11))
14.182579     	((3.165077e-11 -1.498904e-06 -2.369273e-10) (1.604371e-11 -2.883616e-06 -2.671447e-12)) ((-1.314526e-14 5.291976e-15 3.922306e-13) (8.031746e-12 3.065723e-14 1.546022e-11))
17.031095     	((-2.608063e-11 -1.387561e-06 -3.237232e-10) (-3.110466e-13 -2.674261e-06 -1.458193e-11)) ((-1.286648e-14 3.829443e-15 3.450109e-13) (1.116368e-11 -7.044101e-14 1.174833e-11))
20.449314     	((-8.524799e-11 -1.287966e-06 -4.585149e-10) (-2.086515e-11 -2.484237e-06 -2.809551e-11)) ((-1.181637e-14 3.014411e-15 3.122552e-13) (1.431360e-11 -1.092407e-13 6.433802e-12))
24.551176     	((-1.798222e-10 -1.199446e-06 -5.727215e-10) (-4.710850e-11 -2.311899e-06 -4.324043e-11)) ((-1.146368e-14 1.903949e-15 2.939871e-13) (1.705081e-11 -1.725934e-13 1.457946e-12))
29.473411     	((-1.374776e-10 -1.121926e-06 -5.015309e-10) (-5.673686e-11 -2.155960e-06 -5.341803e-11)) ((-1.115577e-14 7.006886e-16 2.792182e-13) (1.893673e-11 -1.938869e-13 -1.672629e-12))
35.380094     	((-4.516770e-11 -1.054299e-06 -3.763470e-10) (-4.929914e-11 -2.015272e-06 -5.546059e-11)) ((-8.720359e-15 9.231624e-16 2.775975e-13) (2.057152e-11 -1.661861e-13 -4.255703e-12))
42.468112     	((-1.907540e-10 -9.963546e-07 -4.495396e-10) (-5.156237e-11 -1.888742e-06 -6.048648e-11)) ((-1.031824e-14 1.661249e-15 2.830167e-13) (2.253247e-11 -9.669534e-14 -6.575600e-12))
50.973735     	((-2.930013e-10 -9.472373e-07 -5.017604e-10) (-6.826457e-11 -1.775342e-06 -7.254929e-11)) ((-1.093937e-14 1.769366e-15 2.937260e-13) (2.521146e-11 -7.645963e-14 -9.437464e-12))
61.180482     	((-3.241824e-10 -9.069023e-07 -4.859097e-10) (-8.410370e-11 -1.674046e-06 -8.673602e-11)) ((-1.165129e-14 1.907005e-15 3.110236e-13) (2.864275e-11 -6.231192e-14 -1.323787e-11))
73.428578     	((-2.724333e-10 -8.747197e-07 -4.084522e-10) (-9.742094e-11 -1.583949e-06 -9.199077e-11)) ((-1.206229e-14 2.098957e-15 3.347494e-13) (3.251233e-11 -5.139289e-14 -1.764298e-11))
88.126294     	((-2.100529e-10 -8.505828e-07 -3.224434e-10) (-1.066190e-10 -1.504289e-06 -9.401078e-11)) ((-1.266162e-14 2.256198e-15 3.645887e-13) (3.649548e-11 -3.625693e-14 -2.234355e-11))
105.763553    	((-1.373167e-10 -8.336781e-07 -2.570257e-10) (-1.165902e-10 -1.434392e-06 -9.749122e-11)) ((-1.217256e-14 2.232356e-15 3.961516e-13) (4.049206e-11 -4.832258e-14 -2.715004e-11))
126.928263    	((-9.943752e-11 -8.234387e-07 -1.892904e-10) (-1.218899e-10 -1.373703e-06 -9.674462e-11)) ((-1.266875e-14 1.489282e-15 4.293297e-13) (4.409532e-11 -3.040853e-14 -3.132407e-11))
152.325916    	((-6.319717e-11 -8.194882e-07 -1.470585e-10) (-1.227702e-10 -1.321768e-06 -9.746430e-11)) ((-1.272631e-14 7.394190e-16 4.649410e-13) (4.684824e-11 -3.505450e-14 -3.435384e-11))
182.803099    	((-2.433141e-12 -8.205711e-07 -7.268113e-11) (-1.251276e-10 -1.278151e-06 -9.881621e-11)) ((-1.196379e-14 -3.302304e-16 5.017212e-13) (4.844506e-11 -3.009240e-14 -3.632714e-11))
219.375719    	((1.048812e-10 -8.250759e-07 2.904102e-11) (-1.281754e-10 -1.242284e-06 -9.321053e-11)) ((-1.156711e-14 -6.276008e-16 5.369943e-13) (4.880413e-11 -2.944478e-15 -3.744701e-11))
262.832411    	((1.756855e-10 -8.312702e-07 1.135825e-10) (-1.191382e-10 -1.213415e-06 -8.306418e-11)) ((-1.071750e-14 -2.420676e-16 5.651785e-13) (4.798571e-11 2.251280e-16 -3.744620e-11))
313.147623    	((2.557634e-10 -8.372603e-07 1.981429e-10) (-1.030756e-10 -1.190466e-06 -6.786526e-11)) ((-9.781942e-15 -1.599190e-17 5.838685e-13) (4.621378e-11 -1.153347e-14 -3.626901e-11))
370.307805    	((3.268551e-10 -8.414792e-07 2.864760e-10) (-7.640741e-11 -1.172155e-06 -4.198501e-11)) ((-8.816461e-15 3.730610e-16 5.952652e-13) (4.381946e-11 -2.693522e-14 -3.424008e-11))
434.313694    	((3.821739e-10 -8.437024e-07 3.494124e-10) (-4.303614e-11 -1.157336e-06 -9.740906e-12)) ((-7.604043e-15 6.455031e-17 6.046850e-13) (4.121523e-11 -4.659301e-14 -3.180656e-11))
502.855917    	((3.970254e-10 -8.448077e-07 3.748679e-10) (-9.418343e-12 -1.145277e-06 2.398421e-11)) ((-7.203401e-15 -6.383376e-16 6.123894e-13) (3.862004e-11 -9.973096e-14 -2.939183e-11))
571.490093    	((3.938295e-10 -8.454582e-07 3.693147e-10) (2.075526e-11 -1.135493e-06 5.308068e-11)) ((-6.877261e-15 -1.169410e-15 6.179595e-13) (3.610641e-11 -1.524767e-13 -2.708071e-11))
640.195856    	((3.787458e-10 -8.456238e-07 3.535714e-10) (4.716537e-11 -1.127467e-06 7.844956e-11)) ((-6.875906e-15 -1.542416e-15 6.217295e-13) (3.365398e-11 -1.985228e-13 -2.481622e-11))
708.956993    	((3.441602e-10 -8.457011e-07 3.189703e-10) (6.782794e-11 -1.120910e-06 9.796109e-11)) ((-7.188535e-15 -1.874289e-15 6.255767e-13) (3.131342e-11 -2.353375e-13 -2.260677e-11))
777.76401     	((3.014399e-10 -8.456733e-07 2.764228e-10) (8.151175e-11 -1.115533e-06 1.105711e-10)) ((-7.500789e-15 -2.174576e-15 6.285775e-13) (2.909574e-11 -2.627269e-13 -2.048569e-11))
846.610676    	((2.532714e-10 -8.455963e-07 2.284199e-10) (8.998057e-11 -1.111130e-06 1.183187e-10)) ((-7.621363e-15 -2.342062e-15 6.313234e-13) (2.698151e-11 -2.802369e-13 -1.846028e-11))
915.491334    	((2.024054e-10 -8.454844e-07 1.777751e-10) (9.332662e-11 -1.107516e-06 1.209998e-10)) ((-7.994322e-15 -2.568110e-15 6.335549e-13) (2.502203e-11 -2.920323e-13 -1.656243e-11))
984.400768    	((1.488867e-10 -8.453618e-07 1.240392e-10) (9.225691e-11 -1.104546e-06 1.195616e-10)) ((-8.318946e-15 -2.692276e-15 6.354244e-13) (2.322876e-11 -2.984267e-13 -1.482830e-11))
1053.33438    	((9.760902e-11 -8.452424e-07 7.227161e-11) (8.822291e-11 -1.102097e-06 1.150421e-10)) ((-8.587640e-15 -2.843910e-15 6.370584e-13) (2.160226e-11 -3.011418e-13 -1.323651e-11))
1122.288264   	((4.839209e-11 -8.451281e-07 2.281054e-11) (8.214510e-11 -1.100076e-06 1.086755e-10)) ((-8.884225e-15 -3.001120e-15 6.383678e-13) (2.011692e-11 -3.026540e-13 -1.178444e-11))
1191.25915    	((3.657950e-12 -8.450276e-07 -2.281104e-11) (7.410148e-11 -1.098407e-06 1.004178e-10)) ((-9.143237e-15 -3.087990e-15 6.393932e-13) (1.878667e-11 -3.042829e-13 -1.048686e-11))
1260.244301   	((-3.737174e-11 -8.449363e-07 -6.375593e-11) (6.497746e-11 -1.097028e-06 9.141711e-11)) ((-9.405603e-15 -3.185157e-15 6.402120e-13) (1.760580e-11 -3.049783e-13 -9.342185e-12))
1329.241419   	((-7.413348e-11 -8.448546e-07 -1.007550e-10) (5.547401e-11 -1.095886e-06 8.189594e-11)) ((-9.567851e-15 -3.268205e-15 6.408821e-13) (1.656206e-11 -3.061226e-13 -8.332487e-12))
1398.248574   	((-1.073382e-10 -8.447852e-07 -1.337292e-10) (4.587794e-11 -1.094941e-06 7.227540e-11)) ((-9.780064e-15 -3.315289e-15 6.413813e-13) (1.565177e-11 -3.072992e-13 -7.445072e-12))
1467.264143   	((-1.357415e-10 -8.447204e-07 -1.617461e-10) (3.658468e-11 -1.094158e-06 6.305502e-11)) ((-9.933449e-15 -3.375005e-15 6.417986e-13) (1.485434e-11 -3.079223e-13 -6.670624e-12))
1536.286762   	((-1.606615e-10 -8.446659e-07 -1.864189e-10) (2.783896e-11 -1.093508e-06 5.430499e-11)) ((-1.004491e-14 -3.423199e-15 6.421458e-13) (1.416197e-11 -3.079953e-13 -5.995750e-12))
1605.315287   	((-1.818528e-10 -8.446194e-07 -2.072377e-10) (1.979046e-11 -1.092968e-06 4.626142e-11)) ((-1.015525e-14 -3.464608e-15 6.424571e-13) (1.356577e-11 -3.078369e-13 -5.413297e-12))
1674.348754   	((-1.999153e-10 -8.445770e-07 -2.252305e-10) (1.253503e-11 -1.092519e-06 3.904228e-11)) ((-1.025369e-14 -3.495686e-15 6.427065e-13) (1.305192e-11 -3.075723e-13 -4.910828e-12))
1743.386359   	((-2.148818e-10 -8.445438e-07 -2.399347e-10) (6.081543e-12 -1.092147e-06 3.264926e-11)) ((-1.033843e-14 -3.518670e-15 6.429185e-13) (1.261242e-11 -3.071493e-13 -4.481781e-12))
1812.427421   	((-2.274636e-10 -8.445128e-07 -2.523772e-10) (4.057066e-13 -1.091836e-06 2.703426e-11)) ((-1.041990e-14 -3.537350e-15 6.430934e-13) (1.224050e-11 -3.068704e-13 -4.117937e-12))
1881.471375   	((-2.379502e-10 -8.444865e-07 -2.627189e-10) (-4.539225e-12 -1.091578e-06 2.213619e-11)) ((-1.049022e-14 -3.554365e-15 6.432356e-13) (1.192717e-11 -3.068544e-13 -3.809881e-12))
1950.517744   	((-2.465756e-10 -8.444649e-07 -2.710947e-10) (-8.783532e-12 -1.091363e-06 1.794758e-11)) ((-1.053525e-14 -3.564183e-15 6.433534e-13) (1.166281e-11 -3.068778e-13 -3.549784e-12))
2019.56613    	((-2.538836e-10 -8.444457e-07 -2.784071e-10) (-1.240670e-11 -1.091184e-06 1.440029e-11)) ((-1.056652e-14 -3.572372e-15 6.434555e-13) (1.143891e-11 -3.069285e-13 -3.330145e-12))
2088.616199   	((-2.596906e-10 -8.444306e-07 -2.839231e-10) (-1.547025e-11 -1.091035e-06 1.142619e-11)) ((-1.059225e-14 -3.578477e-15 6.435404e-13) (1.125005e-11 -3.070178e-13 -3.145123e-12))
2157.667672   	((-2.645517e-10 -8.444175e-07 -2.888479e-10) (-1.802989e-11 -1.090911e-06 8.931770e-12)) ((-1.061211e-14 -3.582177e-15 6.436081e-13) (1.109111e-11 -3.070845e-13 -2.989433e-12))
2226.720315   	((-2.685765e-10 -8.444068e-07 -2.928425e-10) (-2.015502e-11 -1.090807e-06 6.858421e-12)) ((-1.062579e-14 -3.586986e-15 6.436644e-13) (1.095771e-11 -3.071684e-13 -2.858368e-12))
2295.773934   	((-2.719368e-10 -8.443972e-07 -2.963412e-10) (-2.191202e-11 -1.090721e-06 5.127328e-12)) ((-1.064140e-14 -3.590754e-15 6.437139e-13) (1.084585e-11 -3.072510e-13 -2.748176e-12))
2364.828366   	((-2.746369e-10 -8.443891e-07 -2.991030e-10) (-2.335983e-11 -1.090648e-06 3.696035e-12)) ((-1.065396e-14 -3.595273e-15 6.437558e-13) (1.075212e-11 -3.073177e-13 -2.655672e-12))
2433.883475   	((-2.768992e-10 -8.443826e-07 -3.014335e-10) (-2.455135e-11 -1.090588e-06 2.510667e-12)) ((-1.066442e-14 -3.598482e-15 6.437918e-13) (1.067384e-11 -3.073699e-13 -2.578442e-12))
2502.93915    	((-2.788167e-10 -8.443769e-07 -3.034053e-10) (-2.553364e-11 -1.090538e-06 1.532672e-12)) ((-1.067386e-14 -3.601421e-15 6.438223e-13) (1.060827e-11 -3.074075e-13 -2.513797e-12))
2571.995295   	((-2.804315e-10 -8.443717e-07 -3.050771e-10) (-2.634761e-11 -1.090496e-06 7.205661e-13)) ((-1.068132e-14 -3.603886e-15 6.438468e-13) (1.055343e-11 -3.074353e-13 -2.459663e-12))
2641.051833   	((-2.818159e-10 -8.443673e-07 -3.064833e-10) (-2.702081e-11 -1.090461e-06 4.449066e-14)) ((-1.068757e-14 -3.605613e-15 6.438665e-13) (1.050758e-11 -3.074579e-13 -2.414307e-12))
2710.108699   	((-2.829988e-10 -8.443640e-07 -3.077159e-10) (-2.757822e-11 -1.090432e-06 -5.185643e-13)) ((-1.069237e-14 -3.607018e-15 6.438829e-13) (1.046916e-11 -3.074771e-13 -2.376230e-12))
2779.165837   	((-2.839968e-10 -8.443612e-07 -3.087407e-10) (-2.804250e-11 -1.090408e-06 -9.880160e-13)) ((-1.069626e-14 -3.608437e-15 6.438964e-13) (1.043692e-11 -3.074966e-13 -2.344260e-12))
2848.223204   	((-2.848510e-10 -8.443589e-07 -3.096181e-10) (-2.843091e-11 -1.090388e-06 -1.382385e-12)) ((-1.069980e-14 -3.609547e-15 6.439076e-13) (1.040985e-11 -3.075156e-13 -2.317371e-12))
2917.280761   	((-2.856503e-10 -8.443561e-07 -3.105810e-10) (-2.875839e-11 -1.090371e-06 -1.717690e-12)) ((-1.070279e-14 -3.610752e-15 6.439162e-13) (1.038714e-11 -3.075313e-13 -2.294801e-12))
2986.338478   	((-2.861735e-10 -8.443549e-07 -3.109287e-10) (-2.903206e-11 -1.090356e-06 -1.993247e-12)) ((-1.070560e-14 -3.611278e-15 6.439250e-13) (1.036796e-11 -3.075473e-13 -2.275775e-12))
3055.396328   	((-2.867220e-10 -8.443534e-07 -3.115208e-10) (-2.926660e-11 -1.090345e-06 -2.233760e-12)) ((-1.070791e-14 -3.611902e-15 6.439315e-13) (1.035182e-11 -3.075584e-13 -2.259745e-12))
3124.45429    	((-2.871599e-10 -8.443525e-07 -3.119378e-10) (-2.946398e-11 -1.090335e-06 -2.432372e-12)) ((-1.070983e-14 -3.612251e-15 6.439370e-13) (1.033823e-11 -3.075667e-13 -2.246225e-12))
3193.512344   	((-2.875484e-10 -8.443515e-07 -3.123653e-10) (-2.963336e-11 -1.090327e-06 -2.604925e-12)) ((-1.071151e-14 -3.612749e-15 6.439415e-13) (1.032677e-11 -3.075707e-13 -2.234828e-12))
3262.570477   	((-2.878677e-10 -8.443508e-07 -3.126768e-10) (-2.977792e-11 -1.090320e-06 -2.749524e-12)) ((-1.071262e-14 -3.613151e-15 6.439452e-13) (1.031710e-11 -3.075717e-13 -2.225225e-12))
3331.628675   	((-2.882536e-10 -8.443499e-07 -3.131415e-10) (-2.990415e-11 -1.090314e-06 -2.876273e-12)) ((-1.071255e-14 -3.613612e-15 6.439483e-13) (1.030896e-11 -3.075713e-13 -2.217122e-12))
3400.686928   	((-2.884205e-10 -8.443487e-07 -3.131491e-10) (-3.000498e-11 -1.090309e-06 -2.972554e-12)) ((-1.071490e-14 -3.613615e-15 6.439515e-13) (1.030207e-11 -3.075663e-13 -2.210311e-12))
3469.745225   	((-2.885374e-10 -8.443485e-07 -3.131800e-10) (-3.009218e-11 -1.090305e-06 -3.059511e-12)) ((-1.071369e-14 -3.614415e-15 6.439520e-13) (1.029633e-11 -3.075633e-13 -2.204581e-12))
3538.803561   	((-2.886728e-10 -8.443486e-07 -3.134182e-10) (-3.016860e-11 -1.090302e-06 -3.137399e-12)) ((-1.071497e-14 -3.614343e-15 6.439549e-13) (1.029152e-11 -3.075667e-13 -2.199765e-12))
3607.861929   	((-2.888132e-10 -8.443485e-07 -3.135684e-10) (-3.023376e-11 -1.090299e-06 -3.201413e-12)) ((-1.071552e-14 -3.614463e-15 6.439563e-13) (1.028744e-11 -3.075657e-13 -2.195725e-12))
