# Forces      
# CofR        : (0.000000e+00 0.000000e+00 0.000000e+00)
# Time        forces(pressure viscous)	moments(pressure viscous)
0             	((0.000000e+00 0.000000e+00 0.000000e+00) (-1.004929e-02 1.298738e-12 -3.098759e-13)) ((0.000000e+00 0.000000e+00 0.000000e+00) (5.982693e-16 4.020718e-14 1.386240e-13))
0.012         	((-2.958409e+00 1.353418e-05 1.329317e-05) (-1.282973e-02 -4.607228e-08 -4.799221e-08)) ((-8.506418e-11 -3.792684e-10 3.148626e-10) (5.567612e-12 -2.843543e-09 2.715863e-09))
0.0264        	((6.958988e-01 3.370412e-05 5.545592e-05) (-1.274863e-02 -7.876216e-08 -7.337808e-08)) ((2.180190e-10 1.311406e-08 3.026279e-09) (7.561976e-11 4.942475e-09 -4.836621e-09))
0.04368       	((3.078491e-01 8.346543e-06 -1.847229e-05) (-1.077861e-02 -2.565360e-08 -4.102655e-08)) ((-5.427737e-10 -8.955247e-09 -3.510527e-09) (1.098790e-10 4.485382e-09 -3.706111e-09))
0.064416      	((1.830191e-03 -2.916161e-05 -2.867446e-05) (-9.519042e-03 2.094496e-08 -9.998406e-08)) ((8.059481e-11 -8.673715e-10 2.327065e-10) (1.007188e-11 -2.021891e-09 3.012644e-09))
0.0892992     	((1.278031e-03 -2.119591e-05 -2.246860e-05) (-8.753842e-03 1.086822e-08 -1.492763e-07)) ((5.144613e-10 -3.100546e-11 5.989295e-10) (1.923099e-10 -1.975721e-09 3.261510e-09))
0.119159      	((-1.454965e-03 -4.658938e-06 -8.839342e-06) (-8.122899e-03 -2.892292e-08 -1.723647e-07)) ((6.310157e-10 3.207763e-11 -1.648000e-11) (2.286903e-10 -1.887631e-09 2.343698e-09))
0.154991      	((-3.801851e-03 -1.461516e-06 -1.291525e-06) (-7.607252e-03 -6.799916e-08 -5.855480e-08)) ((5.879160e-10 7.918665e-11 -2.946919e-10) (-4.673890e-11 -2.188883e-09 2.648908e-09))
0.197989      	((-4.724502e-03 -1.758978e-06 -2.099483e-07) (-7.199033e-03 -1.152706e-07 1.007982e-07)) ((3.726252e-11 -1.458309e-10 -1.295306e-10) (-3.609020e-11 -2.880558e-09 2.014386e-09))
0.249587      	((-5.327614e-03 -7.251080e-07 3.483498e-07) (-6.855139e-03 -6.801628e-08 6.670975e-08)) ((-8.006477e-11 5.974133e-11 1.296027e-10) (-3.032821e-12 -3.252190e-09 2.512902e-09))
0.311504      	((-5.809122e-03 4.326798e-07 -3.983054e-07) (-6.544349e-03 -1.676571e-08 7.665072e-09)) ((5.649757e-11 1.850825e-10 -1.863868e-10) (4.631941e-11 -3.333420e-09 3.409979e-09))
0.385805      	((-6.439100e-03 -2.955489e-07 -9.725846e-07) (-6.257230e-03 -4.956993e-08 -5.147710e-08)) ((1.657349e-11 9.270929e-11 -8.116856e-11) (4.013517e-11 -2.615587e-09 3.164008e-09))
0.474966      	((-7.239027e-03 8.301661e-09 -8.692356e-08) (-5.990819e-03 -8.555273e-08 -8.994978e-08)) ((7.250054e-11 3.895994e-11 -2.752888e-11) (2.409033e-11 -1.657503e-09 1.684894e-09))
0.580735      	((-8.321497e-03 -5.530488e-08 -1.811692e-07) (-5.751519e-03 -7.021438e-08 -6.387212e-08)) ((3.553279e-11 1.346142e-10 -9.047517e-11) (9.288184e-12 -4.232609e-10 6.562289e-10))
0.70312       	((-9.674347e-03 5.101693e-07 1.949604e-07) (-5.546212e-03 -7.066510e-08 -4.713836e-08)) ((4.298923e-11 1.150676e-10 -1.796840e-11) (-1.362044e-11 5.225611e-10 1.693078e-10))
0.842122      	((-1.130657e-02 1.048321e-06 7.955366e-07) (-5.373597e-03 -7.138424e-08 -1.895385e-08)) ((4.242281e-11 4.540882e-11 1.099861e-11) (-2.063238e-11 1.052277e-09 -1.019453e-10))
0.997718      	((-1.310293e-02 2.715270e-06 2.535970e-06) (-5.232599e-03 -5.132696e-08 2.997653e-08)) ((4.450958e-11 -1.007975e-11 -9.268712e-12) (7.232021e-11 9.858511e-10 -2.413977e-10))
1.162924      	((-1.505381e-02 3.263612e-06 3.493938e-06) (-5.120606e-03 -4.519899e-08 3.461423e-08)) ((8.194793e-11 5.513292e-12 -3.765997e-11) (1.554998e-10 -2.158400e-10 4.704495e-11))
1.326163      	((-1.688714e-02 5.982598e-06 5.868518e-06) (-5.028534e-03 -7.486251e-08 -4.360581e-08)) ((1.588806e-10 -7.115125e-11 -7.546534e-11) (2.004624e-10 -4.128805e-09 3.853337e-09))
1.487712      	((-1.859200e-02 8.206731e-06 7.841036e-06) (-4.944507e-03 -1.218533e-07 -1.408140e-07)) ((3.013619e-10 -1.327088e-10 -1.109768e-10) (2.221518e-10 -1.002291e-08 9.989564e-09))
1.648399      	((-1.998296e-02 1.188902e-05 1.247307e-05) (-4.865690e-03 -1.017402e-07 -1.130674e-07)) ((4.517861e-10 -2.193426e-10 -1.022912e-10) (2.821339e-10 -1.259827e-08 1.193578e-08))
1.809095      	((-2.100728e-02 1.591462e-05 1.683569e-05) (-4.790994e-03 6.234595e-08 8.102367e-08)) ((5.171300e-10 -2.689051e-10 -9.616747e-11) (2.866761e-10 -7.667582e-09 6.933795e-09))
1.970145      	((-2.166506e-02 1.953904e-05 2.015639e-05) (-4.722952e-03 2.740014e-07 3.101240e-07)) ((6.241970e-10 -3.081034e-10 -1.931933e-11) (2.316433e-10 -6.756997e-10 -3.001829e-10))
2.131265      	((-2.189499e-02 1.706335e-05 1.919889e-05) (-4.659281e-03 3.956890e-07 4.363038e-07)) ((7.690659e-10 -2.388430e-10 9.137465e-11) (1.186906e-10 3.067523e-09 -4.270167e-09))
2.292         	((-2.183254e-02 1.853028e-05 2.034731e-05) (-4.601943e-03 4.484123e-07 4.736923e-07)) ((8.870612e-10 -2.882143e-10 2.563337e-10) (2.894560e-10 3.282730e-09 -5.576792e-09))
2.452204      	((-2.151363e-02 1.798278e-05 1.994363e-05) (-4.554028e-03 5.057702e-07 5.157849e-07)) ((1.029993e-09 -3.836306e-10 2.779025e-10) (3.412279e-10 3.973099e-09 -7.477588e-09))
2.611969      	((-2.111299e-02 2.045267e-05 2.177118e-05) (-4.513896e-03 5.910549e-07 5.765094e-07)) ((1.226800e-09 -3.151347e-10 1.918475e-10) (4.797943e-10 6.540638e-09 -1.111985e-08))
2.771442      	((-2.071856e-02 2.402722e-05 2.495378e-05) (-4.478544e-03 6.909426e-07 6.695088e-07)) ((1.349958e-09 -1.882639e-10 9.358671e-11) (3.091834e-10 8.815125e-09 -1.406344e-08))
2.930693      	((-2.039397e-02 2.760255e-05 2.992592e-05) (-4.446179e-03 7.835441e-07 7.658416e-07)) ((1.203050e-09 -2.599514e-10 2.529891e-11) (2.042196e-10 9.548134e-09 -1.519539e-08))
3.089694      	((-2.028863e-02 2.939575e-05 3.035449e-05) (-4.417182e-03 8.550120e-07 8.357672e-07)) ((1.144305e-09 -3.604417e-10 -3.693283e-11) (-3.355722e-11 9.069363e-09 -1.499164e-08))
3.248421      	((-2.023864e-02 3.082820e-05 3.355319e-05) (-4.391432e-03 8.791929e-07 8.655866e-07)) ((1.076986e-09 -3.476216e-10 -1.126096e-10) (3.462799e-11 6.723149e-09 -1.249501e-08))
3.406881      	((-2.012441e-02 3.219295e-05 3.473786e-05) (-4.367530e-03 8.552492e-07 8.506595e-07)) ((1.126597e-09 -2.683938e-10 -2.354000e-10) (1.599507e-10 2.899120e-09 -8.307689e-09))
3.565099      	((-1.995412e-02 3.844957e-05 3.955602e-05) (-4.344523e-03 8.750356e-07 8.635209e-07)) ((1.090182e-09 -2.720339e-10 -3.505327e-10) (1.052322e-10 -2.312424e-10 -4.947347e-09))
3.723103      	((-1.971021e-02 4.464085e-05 4.853923e-05) (-4.322089e-03 9.502915e-07 9.475470e-07)) ((1.050282e-09 -3.513665e-10 -3.817394e-10) (6.995174e-11 -2.530001e-09 -2.153089e-09))
3.88092       	((-1.943928e-02 5.170598e-05 5.407719e-05) (-4.300267e-03 1.034814e-06 1.067863e-06)) ((8.831514e-10 -3.275974e-10 -3.706516e-10) (5.994731e-10 -5.254848e-09 1.710474e-09))
4.038587      	((-1.920854e-02 6.071048e-05 6.293298e-05) (-4.279656e-03 1.126766e-06 1.183880e-06)) ((7.886473e-10 -3.761339e-10 -3.089915e-10) (1.326629e-09 -9.682924e-09 6.951554e-09))
4.196132      	((-1.908117e-02 7.085288e-05 7.319341e-05) (-4.261195e-03 1.224871e-06 1.291819e-06)) ((5.664700e-10 -5.033545e-10 -2.297187e-10) (1.156019e-09 -1.617861e-08 1.381230e-08))
4.353561      	((-1.901554e-02 7.950038e-05 8.159481e-05) (-4.245233e-03 1.341652e-06 1.412242e-06)) ((2.026152e-10 -5.319504e-10 -1.509502e-10) (-2.636990e-10 -2.338449e-08 2.116208e-08))
4.510865      	((-1.897663e-02 9.050650e-05 9.084681e-05) (-4.231206e-03 1.482758e-06 1.563241e-06)) ((-1.251914e-10 -5.990259e-10 -1.428529e-10) (-2.193230e-09 -2.990006e-08 2.831119e-08))
4.668043      	((-1.892617e-02 1.012726e-04 1.032236e-04) (-4.218429e-03 1.646150e-06 1.751588e-06)) ((-4.019692e-10 -6.873056e-10 -1.916870e-10) (-3.830699e-09 -3.535375e-08 3.572859e-08))
4.825119      	((-1.883616e-02 1.145569e-04 1.179088e-04) (-4.206290e-03 1.873238e-06 2.001924e-06)) ((-6.791979e-10 -7.272929e-10 -2.715649e-10) (-4.631353e-09 -4.028276e-08 4.156356e-08))
4.982117      	((-1.872626e-02 1.292596e-04 1.322065e-04) (-4.194522e-03 2.177886e-06 2.314513e-06)) ((-9.226257e-10 -7.730374e-10 -3.113664e-10) (-4.945714e-09 -4.434189e-08 4.483556e-08))
5.13904       	((-1.860753e-02 1.461801e-04 1.485296e-04) (-4.183293e-03 2.555165e-06 2.657023e-06)) ((-1.136977e-09 -8.840837e-10 -3.048433e-10) (-4.566427e-09 -4.824250e-08 4.693766e-08))
5.295892      	((-1.849722e-02 1.625762e-04 1.649620e-04) (-4.172731e-03 2.961182e-06 3.019363e-06)) ((-1.350887e-09 -9.974180e-10 -2.850917e-10) (-3.972555e-09 -5.198175e-08 4.965379e-08))
5.452674      	((-1.840618e-02 1.805642e-04 1.834166e-04) (-4.162820e-03 3.353032e-06 3.416409e-06)) ((-1.576788e-09 -1.165626e-09 -2.745279e-10) (-3.357993e-09 -5.540594e-08 5.416149e-08))
5.609388      	((-1.833819e-02 1.988346e-04 2.022924e-04) (-4.153516e-03 3.746405e-06 3.862827e-06)) ((-1.772492e-09 -1.311414e-09 -2.928704e-10) (-2.489649e-09 -5.869784e-08 5.930248e-08))
5.766036      	((-1.827922e-02 2.191414e-04 2.222951e-04) (-4.144689e-03 4.173737e-06 4.340794e-06)) ((-1.908748e-09 -1.435948e-09 -3.209142e-10) (-1.776303e-09 -6.299111e-08 6.458465e-08))
5.922619      	((-1.822033e-02 2.424471e-04 2.446958e-04) (-4.136245e-03 4.654405e-06 4.844336e-06)) ((-1.946019e-09 -1.531563e-09 -3.632229e-10) (-1.092328e-09 -6.902131e-08 6.951976e-08))
6.079137      	((-1.815633e-02 2.706455e-04 2.707242e-04) (-4.128106e-03 5.203782e-06 5.396815e-06)) ((-1.936551e-09 -1.672514e-09 -4.118508e-10) (-8.977781e-10 -7.638903e-08 7.485045e-08))
6.235587      	((-1.808951e-02 2.993180e-04 2.973441e-04) (-4.120253e-03 5.814276e-06 6.003970e-06)) ((-1.871454e-09 -1.829890e-09 -4.649386e-10) (-1.287094e-09 -8.401967e-08 8.149331e-08))
6.39197       	((-1.801527e-02 3.315635e-04 3.257010e-04) (-4.112639e-03 6.471165e-06 6.677508e-06)) ((-1.782225e-09 -2.002389e-09 -4.885226e-10) (-1.945251e-09 -9.132081e-08 8.997448e-08))
6.548289      	((-1.794554e-02 3.664169e-04 3.575022e-04) (-4.105238e-03 7.194376e-06 7.430921e-06)) ((-1.689293e-09 -2.221840e-09 -5.040725e-10) (-2.146952e-09 -9.702057e-08 9.952939e-08))
6.704544      	((-1.788024e-02 4.025392e-04 3.915843e-04) (-4.098085e-03 7.973450e-06 8.236455e-06)) ((-1.602136e-09 -2.425633e-09 -5.208416e-10) (-1.660781e-09 -1.030906e-07 1.104069e-07))
6.860736      	((-1.781978e-02 4.432134e-04 4.285059e-04) (-4.091204e-03 8.796472e-06 9.039407e-06)) ((-1.502251e-09 -2.593650e-09 -5.096596e-10) (-7.602867e-10 -1.126619e-07 1.230508e-07))
7.016862      	((-1.775983e-02 4.878405e-04 4.702233e-04) (-4.084625e-03 9.671983e-06 9.834807e-06)) ((-1.354505e-09 -2.793173e-09 -5.119397e-10) (1.725679e-10 -1.259629e-07 1.385824e-07))
7.172919      	((-1.770372e-02 5.355146e-04 5.159180e-04) (-4.078359e-03 1.061080e-05 1.068972e-05)) ((-1.176936e-09 -3.002564e-09 -5.130917e-10) (7.752591e-10 -1.407610e-07 1.570200e-07))
7.328907      	((-1.765266e-02 5.859830e-04 5.672095e-04) (-4.072409e-03 1.161030e-05 1.166137e-05)) ((-9.813874e-10 -3.224142e-09 -5.432099e-10) (1.003365e-09 -1.558315e-07 1.779909e-07))
7.484828      	((-1.760611e-02 6.390279e-04 6.210099e-04) (-4.066782e-03 1.266934e-05 1.274933e-05)) ((-7.771914e-10 -3.440903e-09 -5.946646e-10) (1.313182e-09 -1.714738e-07 2.006184e-07))
7.640681      	((-1.756087e-02 6.957718e-04 6.787237e-04) (-4.061447e-03 1.379697e-05 1.396308e-05)) ((-5.565948e-10 -3.685378e-09 -6.498770e-10) (1.692608e-09 -1.883074e-07 2.248961e-07))
7.796461      	((-1.751743e-02 7.571521e-04 7.403381e-04) (-4.056338e-03 1.502343e-05 1.530832e-05)) ((-3.314357e-10 -3.894284e-09 -7.088640e-10) (2.263965e-09 -2.065263e-07 2.512504e-07))
7.952172      	((-1.747305e-02 8.232809e-04 8.072856e-04) (-4.051356e-03 1.636820e-05 1.675908e-05)) ((-7.127666e-11 -4.170612e-09 -7.801076e-10) (3.196525e-09 -2.276397e-07 2.799965e-07))
8.107815      	((-1.742756e-02 8.944645e-04 8.792285e-04) (-4.046488e-03 1.783922e-05 1.829814e-05)) ((2.435206e-10 -4.551804e-09 -8.777549e-10) (4.380315e-09 -2.524907e-07 3.112965e-07))
8.263392      	((-1.738209e-02 9.712541e-04 9.574285e-04) (-4.041750e-03 1.942868e-05 1.994381e-05)) ((5.546254e-10 -5.020672e-09 -9.844464e-10) (5.262899e-09 -2.805204e-07 3.451936e-07))
8.418904      	((-1.734025e-02 1.054426e-03 1.039770e-03) (-4.037160e-03 2.115377e-05 2.172344e-05)) ((8.287104e-10 -5.498274e-09 -1.107322e-09) (5.455254e-09 -3.104190e-07 3.813194e-07))
8.574355      	((-1.730037e-02 1.142854e-03 1.129186e-03) (-4.032752e-03 2.304474e-05 2.364919e-05)) ((1.018098e-09 -5.992164e-09 -1.261762e-09) (5.274214e-09 -3.414515e-07 4.182233e-07))
8.729748      	((-1.726227e-02 1.238596e-03 1.226260e-03) (-4.028531e-03 2.512702e-05 2.574578e-05)) ((1.209835e-09 -6.498749e-09 -1.443451e-09) (4.971416e-09 -3.735659e-07 4.546951e-07))
8.885086      	((-1.722340e-02 1.342640e-03 1.332954e-03) (-4.024470e-03 2.742615e-05 2.805473e-05)) ((1.400416e-09 -7.047101e-09 -1.668910e-09) (4.575811e-09 -4.070692e-07 4.906857e-07))
9.040371      	((-1.718353e-02 1.454886e-03 1.444401e-03) (-4.020558e-03 2.994436e-05 3.054725e-05)) ((1.564411e-09 -7.561267e-09 -1.940293e-09) (4.162256e-09 -4.427951e-07 5.266827e-07))
9.195605      	((-1.714622e-02 1.579537e-03 1.565706e-03) (-4.016788e-03 3.268491e-05 3.320195e-05)) ((1.659557e-09 -8.074263e-09 -2.246987e-09) (3.809889e-09 -4.815202e-07 5.637135e-07))
9.350795      	((-1.711426e-02 1.714517e-03 1.697717e-03) (-4.013155e-03 3.566332e-05 3.606544e-05)) ((1.715726e-09 -8.591114e-09 -2.578815e-09) (3.673762e-09 -5.236389e-07 6.035125e-07))
9.505941      	((-1.708778e-02 1.861544e-03 1.840888e-03) (-4.009621e-03 3.888945e-05 3.914819e-05)) ((1.723282e-09 -9.130973e-09 -2.940504e-09) (4.136867e-09 -5.712507e-07 6.489301e-07))
9.661046      	((-1.706813e-02 2.019639e-03 1.994176e-03) (-4.006221e-03 4.236568e-05 4.247602e-05)) ((1.755504e-09 -9.710774e-09 -3.252721e-09) (4.708344e-09 -6.238647e-07 7.011491e-07))
9.816107      	((-1.704902e-02 2.197644e-03 2.163003e-03) (-4.003038e-03 4.615769e-05 4.609062e-05)) ((1.857816e-09 -1.035832e-08 -3.503681e-09) (4.708289e-09 -6.816805e-07 7.577709e-07))
9.971126      	((-1.703401e-02 2.405288e-03 2.350137e-03) (-4.000108e-03 5.038395e-05 5.000896e-05)) ((2.092752e-09 -1.108541e-08 -3.803449e-09) (3.989195e-09 -7.474333e-07 8.177279e-07))
10.126102     	((-1.702475e-02 2.645619e-03 2.556276e-03) (-3.997436e-03 5.516138e-05 5.427144e-05)) ((2.470462e-09 -1.200539e-08 -4.138318e-09) (2.719871e-09 -8.213842e-07 8.830910e-07))
10.281034     	((-1.701934e-02 2.917860e-03 2.787782e-03) (-3.995025e-03 6.055903e-05 5.897519e-05)) ((2.958379e-09 -1.314098e-08 -4.535317e-09) (1.472693e-09 -9.013735e-07 9.574675e-07))
10.435919     	((-1.702026e-02 3.226659e-03 3.045822e-03) (-3.992821e-03 6.664677e-05 6.418634e-05)) ((3.512463e-09 -1.447875e-08 -5.005963e-09) (5.603385e-10 -9.891558e-07 1.043652e-06))
10.590755     	((-1.703157e-02 3.571177e-03 3.334088e-03) (-3.990850e-03 7.349417e-05 6.998257e-05)) ((4.175886e-09 -1.600325e-08 -5.528010e-09) (3.788648e-11 -1.086027e-06 1.143148e-06))
10.745549     	((-1.705571e-02 3.956958e-03 3.657777e-03) (-3.989186e-03 8.114479e-05 7.647485e-05)) ((4.939344e-09 -1.765287e-08 -6.116572e-09) (3.305692e-11 -1.191198e-06 1.258082e-06))
10.900317     	((-1.709436e-02 4.385879e-03 4.016462e-03) (-3.987891e-03 8.958390e-05 8.374515e-05)) ((5.852508e-09 -1.947929e-08 -6.688876e-09) (-1.178906e-10 -1.304228e-06 1.393525e-06))
11.05507      	((-1.714896e-02 4.861093e-03 4.416180e-03) (-3.987039e-03 9.882628e-05 9.190765e-05)) ((7.016295e-09 -2.160863e-08 -7.198074e-09) (-1.822104e-09 -1.426776e-06 1.553131e-06))
11.20981      	((-1.721392e-02 5.385437e-03 4.859526e-03) (-3.986737e-03 1.089984e-04 1.010690e-04)) ((8.554078e-09 -2.411586e-08 -7.586989e-09) (-3.870785e-09 -1.560569e-06 1.735439e-06))
11.364536     	((-1.729264e-02 5.964776e-03 5.347521e-03) (-3.987154e-03 1.203179e-04 1.113263e-04)) ((1.020115e-08 -2.690862e-08 -7.883615e-09) (-4.980645e-09 -1.701681e-06 1.935045e-06))
11.519251     	((-1.739625e-02 6.602945e-03 5.888145e-03) (-3.988441e-03 1.329805e-04 1.227389e-04)) ((1.209973e-08 -2.998577e-08 -8.183753e-09) (-5.287933e-09 -1.851194e-06 2.151391e-06))
11.673961     	((-1.753144e-02 7.308788e-03 6.481177e-03) (-3.990624e-03 1.471933e-04 1.353375e-04)) ((1.424569e-08 -3.335655e-08 -8.544358e-09) (-3.569834e-09 -2.015184e-06 2.386986e-06))
11.828671     	((-1.770006e-02 8.090101e-03 7.131504e-03) (-3.993761e-03 1.631470e-04 1.491925e-04)) ((1.677746e-08 -3.700535e-08 -9.027771e-09) (-1.232010e-09 -2.198952e-06 2.642604e-06))
11.983366     	((-1.792430e-02 8.948306e-03 7.838617e-03) (-3.998181e-03 1.810324e-04 1.644723e-04)) ((1.971813e-08 -4.076724e-08 -9.764829e-09) (4.753693e-10 -2.400728e-06 2.914230e-06))
12.138049     	((-1.821117e-02 9.879264e-03 8.600205e-03) (-4.004302e-03 2.010604e-04 1.814539e-04)) ((2.285932e-08 -4.444519e-08 -1.065795e-08) (-1.159344e-10 -2.612823e-06 3.197782e-06))
12.292713     	((-1.857003e-02 1.087887e-02 9.406769e-03) (-4.012472e-03 2.234260e-04 2.002997e-04)) ((2.629636e-08 -4.794711e-08 -1.164135e-08) (-5.614694e-09 -2.825404e-06 3.486877e-06))
12.447339     	((-1.898931e-02 1.195232e-02 1.027786e-02) (-4.022832e-03 2.482874e-04 2.211403e-04)) ((3.021232e-08 -5.191175e-08 -1.253657e-08) (-1.505473e-08 -3.032335e-06 3.769722e-06))
12.601939     	((-1.949474e-02 1.309703e-02 1.121380e-02) (-4.035758e-03 2.756218e-04 2.439752e-04)) ((3.486006e-08 -5.615328e-08 -1.346448e-08) (-2.288644e-08 -3.236756e-06 4.047876e-06))
12.756447     	((-2.009202e-02 1.430658e-02 1.219892e-02) (-4.051514e-03 3.053853e-04 2.688538e-04)) ((4.041611e-08 -6.042741e-08 -1.417493e-08) (-2.292936e-08 -3.432086e-06 4.325192e-06))
12.910879     	((-2.081285e-02 1.557480e-02 1.322359e-02) (-4.070813e-03 3.375615e-04 2.958062e-04)) ((4.694572e-08 -6.445378e-08 -1.460948e-08) (-1.412761e-08 -3.606826e-06 4.593876e-06))
13.065257     	((-2.165776e-02 1.688019e-02 1.429206e-02) (-4.094124e-03 3.722518e-04 3.249831e-04)) ((5.451196e-08 -6.832147e-08 -1.484261e-08) (-5.887910e-09 -3.761797e-06 4.840802e-06))
13.219565     	((-2.262777e-02 1.817972e-02 1.535070e-02) (-4.121483e-03 4.089966e-04 3.559798e-04)) ((6.260228e-08 -7.126785e-08 -1.521825e-08) (-8.266144e-09 -3.912584e-06 5.073978e-06))
13.373753     	((-2.371914e-02 1.947890e-02 1.638698e-02) (-4.153220e-03 4.472667e-04 3.880277e-04)) ((7.075750e-08 -7.280552e-08 -1.593125e-08) (-2.328446e-08 -4.068541e-06 5.298135e-06))
13.527831     	((-2.490686e-02 2.069500e-02 1.735842e-02) (-4.189840e-03 4.865823e-04 4.206622e-04)) ((7.830318e-08 -7.276594e-08 -1.674969e-08) (-4.775822e-08 -4.215243e-06 5.494643e-06))
13.681804     	((-2.616855e-02 2.178128e-02 1.821368e-02) (-4.231857e-03 5.261338e-04 4.529120e-04)) ((8.520181e-08 -7.100878e-08 -1.707199e-08) (-7.614146e-08 -4.344886e-06 5.659902e-06))
13.835702     	((-2.745657e-02 2.267608e-02 1.891335e-02) (-4.279179e-03 5.652468e-04 4.839255e-04)) ((9.110879e-08 -6.760102e-08 -1.690546e-08) (-1.013232e-07 -4.444206e-06 5.767465e-06))
13.989581     	((-2.869550e-02 2.330394e-02 1.939466e-02) (-4.330282e-03 6.029598e-04 5.133535e-04)) ((9.525067e-08 -6.241743e-08 -1.608222e-08) (-1.211201e-07 -4.485474e-06 5.778414e-06))
14.143509     	((-2.980058e-02 2.360007e-02 1.958439e-02) (-4.382658e-03 6.378418e-04 5.403503e-04)) ((9.668469e-08 -5.554380e-08 -1.468514e-08) (-1.399179e-07 -4.450106e-06 5.689041e-06))
14.297467     	((-3.068901e-02 2.347630e-02 1.943070e-02) (-4.433699e-03 6.672683e-04 5.628374e-04)) ((9.517843e-08 -4.686697e-08 -1.291697e-08) (-1.609755e-07 -4.362385e-06 5.537998e-06))
