# Forces      
# CofR        : (0.000000e+00 0.000000e+00 0.000000e+00)
# Time        forces(pressure viscous)	moments(pressure viscous)
0             	((0.000000e+00 0.000000e+00 0.000000e+00) (0.000000e+00 0.000000e+00 0.000000e+00)) ((0.000000e+00 0.000000e+00 0.000000e+00) (0.000000e+00 0.000000e+00 0.000000e+00))
0.012         	((-2.668804e-11 4.517063e-11 1.084989e-08) (6.706307e-15 2.393074e-13 2.279490e-10)) ((-4.895688e-15 4.221481e-10 -2.204716e-16) (4.882617e-16 2.787904e-07 -1.648548e-14))
0.0264        	((4.485593e-11 -4.803562e-11 -4.078761e-09) (-2.302912e-14 6.754257e-13 3.964014e-10)) ((-1.035116e-15 2.114261e-10 2.056341e-14) (7.437403e-15 2.553511e-07 -2.330262e-14))
0.04368       	((1.526673e-10 2.599560e-10 3.780554e-09) (3.338674e-13 5.167359e-13 4.298828e-10)) ((3.770816e-15 1.167543e-10 1.325043e-14) (-1.244789e-14 2.312660e-07 -3.338134e-14))
0.064416      	((-4.145179e-11 -7.220606e-11 1.391050e-10) (9.882947e-13 -3.534854e-13 3.550538e-10)) ((-3.966716e-17 6.661495e-11 -8.479309e-16) (-4.275215e-14 2.070630e-07 -4.420305e-14))
0.0892992     	((1.408316e-10 8.095910e-11 4.668532e-10) (1.096066e-12 -1.258170e-12 2.940560e-10)) ((-1.065737e-15 4.957332e-11 -7.637530e-17) (-5.877247e-14 1.834495e-07 -4.581435e-14))
0.119159      	((-3.972746e-11 -2.076111e-11 1.165349e-10) (1.071745e-12 -2.178648e-12 2.494653e-10)) ((4.686035e-16 3.567205e-11 -2.491904e-17) (-7.718501e-14 1.611536e-07 -5.295461e-14))
0.154991      	((-4.448644e-11 -5.070016e-11 -3.112223e-10) (8.771058e-13 -3.455048e-12 2.011502e-10)) ((-7.407642e-16 2.826174e-11 2.174616e-15) (-1.006841e-13 1.406899e-07 -6.282544e-14))
0.197989      	((-4.510965e-11 -3.373381e-11 2.683577e-11) (8.054916e-13 -4.545706e-12 1.577022e-10)) ((-1.134035e-15 2.251873e-11 2.193218e-15) (-1.164565e-13 1.225497e-07 -7.105480e-14))
0.249587      	((-1.165667e-11 -3.516458e-11 -2.947779e-10) (1.425204e-12 -5.099054e-12 1.255381e-10)) ((-1.641365e-15 1.859452e-11 -7.360818e-16) (-1.181221e-13 1.069958e-07 -6.320107e-14))
0.311504      	((-2.468598e-11 1.070255e-11 -6.089646e-11) (1.744203e-12 -5.466940e-12 9.836279e-11)) ((-1.562312e-15 1.550762e-11 -1.977597e-15) (-1.094000e-13 9.398894e-08 -4.224907e-14))
0.385805      	((-4.110580e-11 2.516210e-11 1.275581e-11) (2.268907e-12 -5.578624e-12 7.546051e-11)) ((-5.350916e-16 1.332241e-11 -3.628113e-15) (-9.974420e-14 8.324937e-08 -3.097691e-14))
0.474966      	((-4.185041e-11 -5.928429e-12 6.984946e-11) (2.609101e-12 -5.847904e-12 5.396562e-11)) ((1.926736e-16 1.188014e-11 -2.228962e-15) (-9.575818e-14 7.435578e-08 -6.068763e-15))
0.581959      	((-8.959138e-11 -3.649057e-11 -7.111455e-11) (2.189692e-12 -6.112794e-12 3.661409e-11)) ((-9.584559e-16 1.064462e-11 -1.054270e-15) (-1.080987e-13 6.687285e-08 2.329700e-14))
0.710351      	((-1.059794e-10 -5.036257e-11 1.537192e-10) (2.028559e-12 -4.460415e-12 3.204032e-11)) ((-2.247529e-15 9.454702e-12 -1.167488e-15) (-1.083377e-13 6.044187e-08 -1.200790e-14))
0.864421      	((-9.710742e-11 -4.517210e-11 8.457506e-11) (3.972465e-12 2.534796e-13 2.747850e-11)) ((-2.603472e-15 8.655167e-12 4.378474e-16) (-6.181458e-14 5.480782e-08 -7.112057e-14))
1.049306      	((-1.080907e-10 -4.361959e-11 2.206146e-11) (4.383512e-12 4.754549e-12 1.696971e-11)) ((-3.698213e-15 8.147487e-12 1.220482e-15) (3.059574e-14 4.980145e-08 -1.176323e-13))
1.271167      	((-1.861966e-10 -3.479222e-11 1.588561e-10) (5.688240e-12 6.898857e-12 5.796648e-12)) ((-1.264217e-15 7.630101e-12 2.046483e-15) (1.387724e-13 4.530809e-08 -1.015243e-13))
1.5374        	((-1.462968e-10 1.242031e-11 1.717700e-10) (1.116962e-11 7.519975e-12 -8.427611e-12)) ((1.390720e-15 7.029899e-12 3.039034e-15) (2.365124e-13 4.125320e-08 -3.000466e-14))
1.85688       	((-1.702479e-10 -1.818485e-11 1.168589e-10) (1.606843e-11 7.827587e-12 -2.932937e-11)) ((4.023635e-15 6.481809e-12 1.892910e-15) (3.682528e-13 3.759634e-08 1.247282e-13))
2.240256      	((-1.837489e-10 -5.531157e-12 1.336979e-10) (2.216363e-11 6.065866e-12 -4.382755e-11)) ((5.323191e-15 6.116017e-12 1.712008e-15) (5.033124e-13 3.431668e-08 3.676918e-13))
2.700307      	((-1.936061e-10 -6.215961e-12 1.045734e-10) (3.031050e-11 3.511000e-12 -5.224836e-11)) ((3.599014e-15 5.852464e-12 2.034817e-15) (7.157494e-13 3.139922e-08 7.773688e-13))
3.252369      	((-1.517632e-10 -9.567771e-12 3.864394e-11) (4.243994e-11 8.501352e-13 -7.611919e-11)) ((3.830797e-15 5.578995e-12 1.537115e-15) (1.017233e-12 2.882338e-08 1.253101e-12))
3.914842      	((-7.220076e-11 -9.965490e-12 1.091031e-11) (6.093739e-11 -3.061769e-12 -1.113881e-10)) ((2.669774e-15 5.267671e-12 2.992216e-15) (1.210614e-12 2.655813e-08 1.548145e-12))
4.709811      	((-4.732326e-11 6.864862e-13 -3.063887e-11) (7.816187e-11 -5.883538e-12 -1.264791e-10)) ((3.305324e-15 4.932656e-12 2.492922e-15) (1.372387e-12 2.456075e-08 1.737856e-12))
5.663773      	((5.554164e-12 -8.105490e-12 2.902691e-11) (8.668215e-11 -3.566127e-12 -1.195595e-10)) ((3.564797e-15 4.579575e-12 4.456301e-17) (1.498063e-12 2.278386e-08 1.692354e-12))
6.808528      	((4.310122e-11 -1.124388e-11 1.756685e-11) (8.383196e-11 -1.328613e-12 -1.138645e-10)) ((3.368417e-15 4.211508e-12 -1.390309e-15) (1.497431e-12 2.118590e-08 1.556121e-12))
8.182233      	((3.245254e-11 -1.720661e-11 8.032089e-12) (7.504188e-11 -2.820537e-12 -9.834007e-11)) ((3.306443e-15 3.856931e-12 -1.016125e-15) (1.314846e-12 1.973473e-08 1.416495e-12))
9.83068       	((2.398429e-11 -1.124864e-11 1.690422e-11) (6.339033e-11 -4.018766e-12 -7.297481e-11)) ((2.727262e-15 3.497110e-12 -1.054332e-15) (1.063378e-12 1.840607e-08 1.227432e-12))
11.808816     	((1.325231e-11 -1.394832e-11 2.897521e-11) (4.860281e-11 -1.104931e-13 -4.456801e-11)) ((1.499770e-15 3.174902e-12 -1.985744e-15) (8.250336e-13 1.718329e-08 9.090042e-13))
14.182579     	((-2.384180e-11 -3.308050e-12 2.550524e-11) (3.240235e-11 5.488406e-12 -2.762189e-11)) ((1.146235e-15 2.884597e-12 -2.850686e-15) (6.168700e-13 1.605615e-08 5.130573e-13))
17.031095     	((-7.948618e-12 -9.058016e-12 2.181782e-11) (2.363736e-11 7.221905e-12 -1.876732e-11)) ((-1.507273e-17 2.634308e-12 -3.020134e-15) (4.638704e-13 1.501936e-08 2.529660e-13))
20.449314     	((-2.041955e-11 -4.156751e-12 2.138280e-11) (1.749914e-11 4.780540e-12 -1.147342e-11)) ((-3.227597e-16 2.411256e-12 -3.202136e-15) (3.420262e-13 1.406976e-08 1.692339e-13))
24.551176     	((-3.867821e-13 -3.422281e-12 3.051457e-11) (1.108879e-11 1.812584e-12 -1.001776e-11)) ((1.618956e-16 2.214683e-12 -2.578433e-15) (2.356889e-13 1.320245e-08 1.203597e-13))
29.473411     	((3.756936e-12 -5.455278e-12 4.078472e-11) (8.285649e-12 9.372999e-13 -1.204523e-11)) ((3.214184e-16 2.048165e-12 -2.180842e-15) (1.680502e-13 1.241171e-08 6.116247e-14))
35.380094     	((5.650203e-13 -3.816905e-12 3.092454e-11) (7.631813e-12 -5.362339e-13 -1.508159e-11)) ((6.483079e-16 1.899381e-12 -1.951889e-15) (1.268341e-13 1.169093e-08 3.745143e-14))
42.468112     	((1.226821e-12 -3.415654e-12 2.695910e-11) (7.897361e-12 -1.558962e-12 -1.727360e-11)) ((7.381905e-16 1.769912e-12 -1.437039e-15) (1.304938e-13 1.103407e-08 8.291471e-14))
50.973735     	((2.895945e-12 -1.526663e-13 1.690151e-11) (6.507089e-12 -1.978152e-12 -1.883593e-11)) ((9.966247e-16 1.655206e-12 -8.417717e-16) (1.596300e-13 1.043567e-08 1.486683e-13))
61.180482     	((7.813451e-12 -5.977349e-12 2.389542e-11) (6.341620e-12 -2.209044e-12 -2.151211e-11)) ((7.038937e-16 1.551471e-12 -4.981469e-16) (1.947834e-13 9.890907e-09 1.968787e-13))
73.428578     	((1.258079e-11 -4.296180e-12 1.834154e-11) (6.955507e-12 -1.930353e-12 -2.639108e-11)) ((8.114588e-16 1.457956e-12 -8.161634e-17) (2.330518e-13 9.395787e-09 2.256739e-13))
88.126294     	((1.173213e-11 -4.524387e-12 1.986070e-11) (7.659196e-12 -1.117265e-12 -2.853379e-11)) ((7.453982e-16 1.374206e-12 2.638069e-16) (2.594114e-13 8.946471e-09 2.370618e-13))
105.763553    	((9.461577e-12 -3.572465e-12 1.553686e-11) (8.475380e-12 -3.107623e-13 -3.039459e-11)) ((8.603068e-16 1.298798e-12 4.136774e-16) (2.666791e-13 8.539265e-09 2.493008e-13))
126.928263    	((8.877303e-12 -2.963966e-12 1.432891e-11) (1.013575e-11 -1.597476e-13 -3.330075e-11)) ((7.946024e-16 1.231532e-12 4.718146e-16) (2.577500e-13 8.170572e-09 2.554472e-13))
152.325916    	((7.950748e-12 -4.052041e-12 8.818216e-12) (1.187711e-11 -1.711236e-13 -3.613129e-11)) ((7.945681e-16 1.171849e-12 5.557048e-16) (2.335150e-13 7.836804e-09 2.581468e-13))
182.803099    	((1.045024e-11 -2.371091e-12 3.180387e-12) (1.450097e-11 2.361498e-13 -3.899568e-11)) ((9.569907e-16 1.116858e-12 5.881276e-16) (2.057547e-13 7.534303e-09 2.545903e-13))
219.375719    	((1.029215e-11 -1.620363e-12 -1.544779e-12) (1.650719e-11 7.489417e-13 -4.118586e-11)) ((1.364543e-15 1.067173e-12 4.872220e-16) (2.016658e-13 7.259795e-09 2.546462e-13))
263.262863    	((8.877541e-12 -1.117131e-13 -1.319871e-12) (1.630847e-11 1.099977e-12 -4.184895e-11)) ((1.677281e-15 1.020544e-12 4.750432e-16) (2.140708e-13 7.010582e-09 2.309212e-13))
315.927436    	((6.357410e-12 1.158848e-12 -6.967605e-13) (1.659704e-11 1.004977e-12 -4.195534e-11)) ((1.728806e-15 9.773990e-13 4.931287e-16) (2.324185e-13 6.784300e-09 2.067284e-13))
379.124923    	((5.144216e-12 3.046696e-13 -9.901994e-13) (1.708461e-11 8.204715e-13 -4.120854e-11)) ((1.673204e-15 9.384869e-13 5.543584e-16) (2.383376e-13 6.578940e-09 1.940177e-13))
454.961908    	((5.489935e-12 1.132178e-12 -6.106848e-13) (1.719361e-11 7.013434e-13 -4.012071e-11)) ((1.508594e-15 9.039793e-13 4.766061e-16) (2.286924e-13 6.392928e-09 1.900723e-13))
545.966289    	((7.657203e-12 7.456675e-13 -1.403077e-13) (1.707144e-11 5.051967e-13 -3.984218e-11)) ((1.257959e-15 8.739720e-13 3.322692e-16) (2.222438e-13 6.225024e-09 1.965247e-13))
655.171547    	((1.011849e-11 2.327681e-12 2.761704e-13) (1.743260e-11 3.884346e-13 -4.002835e-11)) ((9.277858e-16 8.472374e-13 1.996744e-16) (2.187009e-13 6.074143e-09 1.984966e-13))
786.217856    	((1.163626e-11 1.517591e-12 2.323705e-12) (1.756733e-11 4.161864e-13 -3.971899e-11)) ((7.769491e-16 8.232729e-13 1.228241e-16) (2.085626e-13 5.939034e-09 1.946241e-13))
943.473427    	((1.068065e-11 1.850157e-12 3.751150e-12) (1.746821e-11 5.032474e-13 -3.829795e-11)) ((6.905508e-16 8.017185e-13 9.927312e-17) (1.977395e-13 5.818511e-09 1.921821e-13))
1132.180113   	((8.741097e-12 2.908146e-12 4.395807e-12) (1.731150e-11 6.483446e-13 -3.691463e-11)) ((6.142974e-16 7.820952e-13 1.030381e-16) (1.958843e-13 5.711498e-09 1.848246e-13))
1358.628135   	((5.399852e-12 2.247179e-12 3.996913e-12) (1.723023e-11 6.939673e-13 -3.543541e-11)) ((5.259222e-16 7.648181e-13 1.437118e-16) (1.948013e-13 5.616959e-09 1.735214e-13))
1630.365763   	((3.793194e-12 2.260363e-12 3.371509e-12) (1.683810e-11 6.221881e-13 -3.483858e-11)) ((4.646160e-16 7.495466e-13 1.807691e-16) (1.940618e-13 5.533836e-09 1.611830e-13))
1953.217393   	((3.048421e-12 2.417998e-12 3.239402e-12) (1.610874e-11 5.569784e-13 -3.433281e-11)) ((4.833432e-16 7.364558e-13 2.147892e-16) (1.909138e-13 5.461185e-09 1.518957e-13))
2327.186027   	((2.081695e-12 1.409565e-12 2.844754e-12) (1.523116e-11 4.594472e-13 -3.339344e-11)) ((4.921975e-16 7.252665e-13 2.093282e-16) (1.833421e-13 5.398162e-09 1.434956e-13))
2752.275086   	((9.891069e-13 1.737838e-12 3.323630e-12) (1.447451e-11 3.122079e-13 -3.241414e-11)) ((4.715087e-16 7.156586e-13 2.012926e-16) (1.754607e-13 5.343856e-09 1.347077e-13))
3228.488199   	((-4.287606e-13 1.663975e-12 3.302412e-12) (1.371605e-11 1.871869e-13 -3.157042e-11)) ((5.024915e-16 7.074980e-13 2.071948e-16) (1.658672e-13 5.297338e-09 1.250167e-13))
3739.764984   	((-1.103233e-12 1.945744e-12 3.817650e-12) (1.317522e-11 3.842547e-14 -3.054472e-11)) ((5.155208e-16 7.004226e-13 2.188127e-16) (1.551013e-13 5.257746e-09 1.167400e-13))
4251.07622    	((-1.085998e-12 1.994642e-12 4.352248e-12) (1.277421e-11 -9.548446e-14 -2.960935e-11)) ((5.328562e-16 6.945116e-13 1.906063e-16) (1.435489e-13 5.224307e-09 1.083565e-13))
4762.418801   	((-1.455928e-12 1.781928e-12 4.966662e-12) (1.244904e-11 -2.305065e-13 -2.865677e-11)) ((5.714715e-16 6.895050e-13 1.728958e-16) (1.340589e-13 5.196173e-09 1.004594e-13))
5273.790057   	((-1.657481e-12 1.632011e-12 5.306088e-12) (1.216746e-11 -3.274494e-13 -2.793088e-11)) ((5.799687e-16 6.852449e-13 1.571376e-16) (1.256508e-13 5.172556e-09 9.368064e-14))
5785.18718    	((-2.084236e-12 1.494653e-12 5.776905e-12) (1.190297e-11 -4.453185e-13 -2.732547e-11)) ((5.785166e-16 6.816015e-13 1.505475e-16) (1.181338e-13 5.152723e-09 8.873180e-14))
6296.60762    	((-2.322777e-12 1.479453e-12 6.140157e-12) (1.167051e-11 -5.541515e-13 -2.681686e-11)) ((5.748387e-16 6.785256e-13 1.553733e-16) (1.122728e-13 5.136057e-09 8.563906e-14))
6808.048812   	((-2.469598e-12 1.346795e-12 6.471300e-12) (1.151016e-11 -6.462746e-13 -2.638034e-11)) ((5.637159e-16 6.759791e-13 1.590669e-16) (1.072599e-13 5.122029e-09 8.325763e-14))
7319.508174   	((-2.423477e-12 1.184711e-12 6.718505e-12) (1.142361e-11 -7.016440e-13 -2.604770e-11)) ((5.593198e-16 6.738370e-13 1.558073e-16) (1.024473e-13 5.110210e-09 8.114623e-14))
7830.983387   	((-2.093641e-12 1.144057e-12 6.712379e-12) (1.140402e-11 -7.307121e-13 -2.579606e-11)) ((5.576146e-16 6.720353e-13 1.535118e-16) (9.824015e-14 5.100236e-09 7.896254e-14))
8342.472424   	((-1.866600e-12 1.113386e-12 6.653066e-12) (1.139653e-11 -7.477642e-13 -2.561505e-11)) ((5.617335e-16 6.704991e-13 1.523893e-16) (9.501520e-14 5.091810e-09 7.710029e-14))
8853.973462   	((-1.619595e-12 1.173542e-12 6.578725e-12) (1.139357e-11 -7.352528e-13 -2.547391e-11)) ((5.649997e-16 6.692030e-13 1.517262e-16) (9.248603e-14 5.084683e-09 7.574102e-14))
9365.4849     	((-1.534862e-12 1.261083e-12 6.560070e-12) (1.138577e-11 -7.062093e-13 -2.537553e-11)) ((5.689948e-16 6.680957e-13 1.515850e-16) (9.040877e-14 5.078648e-09 7.470134e-14))
9877.005353   	((-1.412141e-12 1.306510e-12 6.548089e-12) (1.136837e-11 -6.742572e-13 -2.532637e-11)) ((5.723695e-16 6.671568e-13 1.527360e-16) (8.862175e-14 5.073531e-09 7.393960e-14))
10388.533546  	((-1.317844e-12 1.297989e-12 6.567119e-12) (1.134811e-11 -6.480299e-13 -2.528178e-11)) ((5.763241e-16 6.663719e-13 1.540137e-16) (8.713142e-14 5.069191e-09 7.317764e-14))
10900.068331  	((-1.239865e-12 1.285846e-12 6.589774e-12) (1.132841e-11 -6.308880e-13 -2.524163e-11)) ((5.788919e-16 6.657037e-13 1.562255e-16) (8.586641e-14 5.065506e-09 7.246448e-14))
11411.608759  	((-1.182734e-12 1.276957e-12 6.589537e-12) (1.131009e-11 -6.220760e-13 -2.520449e-11)) ((5.812968e-16 6.651365e-13 1.574252e-16) (8.476617e-14 5.062375e-09 7.179643e-14))
11923.15404   	((-1.153770e-12 1.264050e-12 6.588926e-12) (1.129155e-11 -6.207903e-13 -2.517208e-11)) ((5.832607e-16 6.646536e-13 1.590832e-16) (8.378646e-14 5.059714e-09 7.117688e-14))
