# Forces      
# CofR        : (0.000000e+00 0.000000e+00 0.000000e+00)
# Time        forces(pressure viscous)	moments(pressure viscous)
0             	((0.000000e+00 0.000000e+00 0.000000e+00) (-1.745007e-14 1.594756e-15 -2.524734e-04)) ((0.000000e+00 0.000000e+00 0.000000e+00) (-4.755840e-16 -9.770361e-11 -4.409684e-17))
0.012         	((-1.009087e-08 5.211727e-09 -7.339105e-02) (2.028873e-10 2.030624e-10 -2.895576e-04)) ((-2.930184e-11 -1.945595e-08 -2.513133e-13) (1.796718e-12 -2.832919e-10 -1.453583e-14))
0.0264        	((-1.382099e-06 -1.452207e-06 5.453741e-03) (-8.356312e-10 -8.207295e-10 -2.950406e-04)) ((2.692537e-11 1.275088e-09 4.858486e-12) (1.616970e-12 -3.757484e-10 -3.013315e-13))
0.04368       	((1.535063e-06 1.296250e-06 1.515030e-02) (-3.885324e-10 -8.097778e-10 -2.618382e-04)) ((1.711344e-10 3.440014e-09 -4.661408e-12) (-4.967076e-12 -3.792555e-10 -6.551995e-13))
0.064416      	((-1.538437e-08 -3.158377e-07 1.433976e-04) (-8.883017e-10 -1.507614e-09 -2.318390e-04)) ((-5.587928e-11 -1.047552e-10 2.684654e-12) (2.595599e-11 -4.712635e-10 2.132681e-13))
0.0892992     	((-3.117691e-07 2.271468e-07 -1.627272e-04) (-4.298139e-09 -2.612371e-09 -2.139696e-04)) ((-2.010194e-11 1.110533e-10 -3.149152e-12) (1.616674e-11 -5.389110e-10 3.400748e-12))
0.119159      	((-1.857352e-07 -1.377766e-07 2.430636e-04) (-6.079317e-09 -2.343088e-09 -1.975336e-04)) ((-8.760103e-12 1.439171e-10 1.615830e-13) (-1.132522e-11 -5.668505e-10 3.678848e-12))
0.154991      	((-1.189022e-07 -7.355547e-08 1.246033e-04) (-6.661752e-09 -2.828036e-09 -1.802661e-04)) ((-1.333817e-13 6.647390e-11 -8.348042e-13) (-3.929780e-11 -5.124960e-10 3.460388e-12))
0.197989      	((-1.201631e-07 -1.556048e-09 2.959315e-05) (-5.732291e-09 -2.890773e-09 -1.630146e-04)) ((1.202381e-11 -2.784203e-12 9.105201e-15) (-6.167938e-11 -3.827239e-10 3.863986e-12))
0.249587      	((-2.407657e-08 -1.426717e-08 -4.331698e-06) (-4.180435e-09 -2.257047e-09 -1.463191e-04)) ((4.416844e-12 -1.267824e-11 -8.755305e-14) (-5.427853e-11 -2.851105e-10 2.484112e-12))
0.311504      	((-1.463842e-08 -1.088686e-08 -1.976971e-05) (-3.381226e-09 -1.902163e-09 -1.306686e-04)) ((2.266350e-12 -2.598039e-11 -2.714306e-13) (-4.597875e-11 -2.341495e-10 1.034054e-12))
0.385805      	((-7.879733e-09 -7.120650e-09 -2.834779e-05) (-2.858958e-09 -1.720392e-09 -1.164614e-04)) ((1.803931e-12 -3.187995e-11 -3.125092e-14) (-4.459268e-11 -2.094043e-10 -8.732818e-14))
0.474966      	((-1.098689e-08 -4.736705e-09 -3.289042e-05) (-2.859836e-09 -1.473342e-09 -1.038991e-04)) ((1.457184e-12 -3.412110e-11 -9.957413e-14) (-4.558864e-11 -2.001519e-10 -8.420184e-13))
0.581959      	((-5.223352e-09 -5.629267e-09 -3.478109e-05) (-3.356184e-09 -1.189642e-09 -9.284933e-05)) ((8.637897e-13 -3.460718e-11 -2.038226e-14) (-3.837970e-11 -1.960524e-10 -1.194267e-12))
0.710351      	((-9.234352e-09 -5.042616e-09 -3.476921e-05) (-3.531831e-09 -8.447836e-10 -8.312442e-05)) ((5.797900e-13 -3.577024e-11 -1.183343e-14) (-3.083970e-11 -2.063487e-10 -1.462558e-12))
0.864421      	((-6.835227e-09 -5.204988e-09 -3.354677e-05) (-3.168948e-09 -5.616210e-10 -7.458682e-05)) ((4.144030e-13 -3.535317e-11 -2.070189e-14) (-2.250695e-11 -2.164586e-10 -1.678296e-12))
1.049306      	((-3.757475e-09 -3.941815e-09 -3.170867e-05) (-2.489518e-09 -4.093940e-10 -6.708870e-05)) ((2.931563e-13 -3.334372e-11 -1.494435e-14) (-1.419466e-11 -2.284263e-10 -1.794721e-12))
1.271167      	((-2.776242e-09 -3.092459e-09 -2.956377e-05) (-1.452653e-09 -2.888324e-10 -6.049228e-05)) ((1.975345e-13 -3.074596e-11 -1.010867e-14) (-9.529890e-12 -2.454773e-10 -1.845312e-12))
1.5374        	((-1.448845e-09 -1.678981e-09 -2.730537e-05) (-6.716495e-10 -1.761807e-10 -5.466657e-05)) ((1.811530e-13 -2.783854e-11 -1.849533e-14) (-1.003998e-11 -2.701159e-10 -1.864130e-12))
1.85688       	((-1.006187e-09 -1.461421e-09 -2.511713e-05) (-4.144796e-11 -7.547037e-11 -4.950722e-05)) ((1.437257e-13 -2.552337e-11 -2.778434e-14) (-1.281268e-11 -2.968796e-10 -2.016100e-12))
2.240256      	((-2.300014e-09 -1.041263e-09 -2.310643e-05) (2.551433e-10 -2.049379e-11 -4.493307e-05)) ((1.285427e-13 -2.371583e-11 -2.630759e-14) (-1.470924e-11 -2.776634e-10 -1.778038e-12))
2.700307      	((-3.060653e-09 -2.156599e-09 -2.128825e-05) (6.691327e-11 -2.041259e-11 -4.087311e-05)) ((7.527736e-14 -2.226862e-11 -4.216744e-14) (-1.559707e-11 -1.957162e-10 -1.180034e-12))
3.252369      	((-2.762201e-09 -2.596810e-09 -1.965500e-05) (-1.863121e-10 -4.435022e-11 -3.726060e-05)) ((1.128490e-14 -2.068206e-11 -4.557877e-14) (-1.645435e-11 -9.025307e-11 -7.139545e-13))
3.914842      	((-3.217467e-09 -3.206856e-09 -1.822854e-05) (-4.114122e-10 -9.910236e-11 -3.404094e-05)) ((-2.105434e-14 -1.923577e-11 -2.678933e-14) (-1.638469e-11 -2.158493e-11 -1.810145e-13))
4.709811      	((-4.111128e-09 -3.729292e-09 -1.701170e-05) (-5.463066e-10 -1.787194e-10 -3.117931e-05)) ((-7.115379e-14 -1.795154e-11 -2.080841e-14) (-1.590055e-11 -2.312542e-11 1.452153e-13))
5.663773      	((-3.604189e-09 -2.754490e-09 -1.601693e-05) (-5.397315e-10 -2.166113e-10 -2.864925e-05)) ((-8.609014e-14 -1.665140e-11 -1.432963e-14) (-1.255546e-11 -6.072482e-11 1.282083e-13))
6.808528      	((-5.091364e-09 -5.659283e-09 -1.523176e-05) (-5.728530e-10 -3.119842e-10 -2.642155e-05)) ((-9.778724e-14 -1.537050e-11 -1.578678e-14) (-5.253276e-12 -7.820588e-11 2.511643e-13))
8.182233      	((-6.519022e-09 -5.833231e-09 -1.467312e-05) (-7.566949e-10 -4.330414e-10 -2.446363e-05)) ((-1.289645e-13 -1.421441e-11 -2.365246e-14) (-1.618968e-13 -6.820941e-11 6.427676e-13))
9.83068       	((-7.859102e-09 -7.673162e-09 -1.434138e-05) (-9.970325e-10 -5.823480e-10 -2.274498e-05)) ((-1.554633e-13 -1.317726e-11 -2.245261e-14) (1.405285e-12 -5.974892e-11 9.679979e-13))
11.808816     	((-1.009320e-08 -8.996546e-09 -1.423825e-05) (-1.294537e-09 -8.270432e-10 -2.124144e-05)) ((-1.870863e-13 -1.231833e-11 -1.600322e-14) (-1.781972e-13 -7.075285e-11 1.404574e-12))
14.182579     	((-9.553633e-09 -8.929705e-09 -1.435518e-05) (-1.528315e-09 -1.049508e-09 -1.993363e-05)) ((-1.912089e-13 -1.165606e-11 -1.898090e-14) (-5.764432e-12 -8.457440e-11 1.808437e-12))
17.031095     	((-9.379927e-09 -8.104962e-09 -1.468304e-05) (-1.790818e-09 -1.172580e-09 -1.880484e-05)) ((-1.894459e-13 -1.104500e-11 -1.031687e-14) (-9.164524e-12 -9.640080e-11 2.004772e-12))
20.449314     	((-8.542627e-09 -7.302959e-09 -1.519565e-05) (-1.894173e-09 -1.270977e-09 -1.784413e-05)) ((-1.843876e-13 -1.054336e-11 -1.484464e-15) (-1.362112e-11 -1.042151e-10 2.054432e-12))
24.551176     	((-7.569385e-09 -6.363075e-09 -1.587551e-05) (-1.921485e-09 -1.343487e-09 -1.703820e-05)) ((-2.171778e-13 -1.000634e-11 3.028610e-15) (-2.666892e-11 -9.822870e-11 1.432597e-12))
29.473411     	((-6.162762e-09 -4.772739e-09 -1.667646e-05) (-1.837923e-09 -1.364583e-09 -1.637770e-05)) ((-2.294924e-13 -9.574894e-12 2.493997e-15) (-4.608322e-11 -8.129009e-11 8.953744e-13))
35.308698     	((-4.865593e-09 -3.739011e-09 -1.752805e-05) (-1.683371e-09 -1.379952e-09 -1.585453e-05)) ((-2.180423e-13 -9.181466e-12 3.207254e-15) (-6.838630e-11 -4.692063e-11 6.838142e-13))
42.050651     	((-4.093946e-09 -2.814098e-09 -1.836437e-05) (-1.563516e-09 -1.295366e-09 -1.545367e-05)) ((-2.187102e-13 -8.845157e-12 1.354934e-15) (-8.612054e-11 -1.353906e-11 1.121181e-12))
49.692295     	((-3.497508e-09 -2.052924e-09 -1.908020e-05) (-1.341777e-09 -1.056140e-09 -1.514153e-05)) ((-2.095550e-13 -8.676685e-12 -2.058611e-15) (-9.569234e-11 9.049014e-12 1.589628e-12))
58.229439     	((-2.452771e-09 9.572244e-12 -1.966191e-05) (-1.021757e-09 -6.664349e-10 -1.488606e-05)) ((-2.090791e-13 -8.629815e-12 -1.095336e-14) (-1.021648e-10 2.683533e-11 1.660050e-12))
67.18996      	((9.649463e-10 4.082741e-09 -2.012736e-05) (-4.744963e-10 -4.841117e-11 -1.467176e-05)) ((-1.989041e-13 -8.628714e-12 -9.893040e-15) (-1.086221e-10 3.060376e-11 1.618375e-12))
76.183753     	((2.162377e-09 6.116129e-09 -2.040417e-05) (-1.554649e-11 5.609580e-10 -1.449070e-05)) ((-1.853129e-13 -8.673279e-12 -7.975762e-15) (-1.162040e-10 3.180995e-11 1.579002e-12))
85.205516     	((2.001933e-09 6.965505e-09 -2.051286e-05) (3.002941e-10 1.079799e-09 -1.433276e-05)) ((-1.934709e-13 -8.652990e-12 -8.622375e-15) (-1.261644e-10 3.559545e-11 1.600285e-12))
94.240095     	((1.585835e-09 7.299100e-09 -2.052220e-05) (4.554868e-10 1.399215e-09 -1.419115e-05)) ((-2.044189e-13 -8.615376e-12 -4.608317e-15) (-1.371470e-10 3.432567e-11 1.620667e-12))
103.280758    	((1.652012e-09 7.825116e-09 -2.049208e-05) (6.134952e-10 1.619050e-09 -1.406431e-05)) ((-2.141958e-13 -8.583853e-12 1.686276e-15) (-1.463208e-10 3.635400e-11 1.529747e-12))
112.328466    	((1.818235e-09 8.140379e-09 -2.042635e-05) (8.264956e-10 1.763534e-09 -1.395047e-05)) ((-2.201604e-13 -8.569230e-12 3.570115e-15) (-1.548508e-10 3.910615e-11 1.332689e-12))
121.384466    	((1.879428e-09 8.170144e-09 -2.034260e-05) (9.808254e-10 1.841911e-09 -1.384610e-05)) ((-2.271213e-13 -8.547634e-12 2.104166e-15) (-1.575332e-10 4.455902e-11 1.187923e-12))
130.4481      	((1.883432e-09 7.892079e-09 -2.026104e-05) (9.785290e-10 1.874238e-09 -1.375064e-05)) ((-2.342172e-13 -8.525851e-12 4.731748e-15) (-1.600265e-10 4.871934e-11 1.030128e-12))
139.518304    	((1.746374e-09 7.084883e-09 -2.019607e-05) (9.811105e-10 1.836001e-09 -1.366423e-05)) ((-2.445204e-13 -8.496350e-12 1.234492e-14) (-1.654289e-10 5.198276e-11 9.074554e-13))
148.594451    	((1.878972e-09 6.582013e-09 -2.014314e-05) (9.694795e-10 1.758144e-09 -1.358689e-05)) ((-2.586372e-13 -8.458787e-12 1.654072e-14) (-1.704657e-10 5.723474e-11 9.290922e-13))
157.676072    	((2.184776e-09 6.143120e-09 -2.008545e-05) (8.933442e-10 1.621559e-09 -1.351715e-05)) ((-2.703093e-13 -8.409325e-12 2.218010e-14) (-1.763643e-10 6.467816e-11 1.488385e-12))
166.762661    	((3.254951e-09 6.236213e-09 -2.003742e-05) (8.519864e-10 1.506395e-09 -1.345436e-05)) ((-2.659430e-13 -8.384427e-12 2.170592e-14) (-1.805697e-10 7.129825e-11 1.565454e-12))
175.853759    	((4.150053e-09 6.119703e-09 -1.999380e-05) (8.506544e-10 1.437180e-09 -1.339794e-05)) ((-2.684233e-13 -8.369168e-12 1.820742e-14) (-1.832035e-10 7.559282e-11 8.821559e-13))
184.94898     	((5.691229e-09 6.344805e-09 -1.995275e-05) (8.993509e-10 1.388094e-09 -1.334722e-05)) ((-2.568684e-13 -8.366235e-12 1.726543e-14) (-1.848771e-10 8.021039e-11 4.036098e-13))
194.04798     	((7.159920e-09 6.435635e-09 -1.991064e-05) (1.006311e-09 1.375046e-09 -1.330144e-05)) ((-2.467519e-13 -8.359690e-12 1.863581e-14) (-1.851834e-10 8.565339e-11 4.221527e-13))
203.150449    	((8.858484e-09 7.032781e-09 -1.986793e-05) (1.182616e-09 1.404493e-09 -1.325974e-05)) ((-2.256988e-13 -8.356589e-12 1.773665e-14) (-1.841771e-10 9.001526e-11 8.299325e-13))
212.256099    	((1.046509e-08 7.274825e-09 -1.982740e-05) (1.403690e-09 1.443178e-09 -1.322170e-05)) ((-2.123577e-13 -8.349913e-12 1.793365e-14) (-1.826253e-10 9.297541e-11 1.145230e-12))
221.364695    	((1.219733e-08 7.520434e-09 -1.979057e-05) (1.668247e-09 1.488343e-09 -1.318701e-05)) ((-1.995867e-13 -8.350239e-12 1.948900e-14) (-1.814082e-10 9.544852e-11 1.265285e-12))
230.476044    	((1.401335e-08 7.705973e-09 -1.975673e-05) (1.972371e-09 1.547187e-09 -1.315534e-05)) ((-1.904648e-13 -8.348794e-12 2.069863e-14) (-1.803590e-10 9.704489e-11 1.352013e-12))
239.589966    	((1.545613e-08 7.765841e-09 -1.972616e-05) (2.283234e-09 1.603481e-09 -1.312650e-05)) ((-1.850633e-13 -8.341265e-12 2.202324e-14) (-1.792995e-10 9.768545e-11 1.208094e-12))
248.706283    	((1.682711e-08 7.831955e-09 -1.969586e-05) (2.596381e-09 1.653216e-09 -1.310012e-05)) ((-1.754028e-13 -8.333694e-12 2.219283e-14) (-1.778129e-10 9.723860e-11 1.031886e-12))
257.824829    	((1.794996e-08 7.851210e-09 -1.966725e-05) (2.895503e-09 1.692266e-09 -1.307596e-05)) ((-1.665238e-13 -8.325534e-12 2.283076e-14) (-1.754647e-10 9.577960e-11 9.775493e-13))
266.945443    	((1.910181e-08 7.795687e-09 -1.963963e-05) (3.187661e-09 1.723031e-09 -1.305377e-05)) ((-1.584590e-13 -8.317486e-12 2.357235e-14) (-1.728307e-10 9.348458e-11 9.615697e-13))
276.067979    	((2.023020e-08 7.675427e-09 -1.961351e-05) (3.475141e-09 1.749714e-09 -1.303333e-05)) ((-1.493857e-13 -8.309739e-12 2.471503e-14) (-1.702109e-10 9.017346e-11 9.344877e-13))
285.192302    	((2.091384e-08 7.310181e-09 -1.958804e-05) (3.736982e-09 1.749109e-09 -1.301442e-05)) ((-1.462402e-13 -8.293190e-12 2.506098e-14) (-1.675165e-10 8.652991e-11 9.136450e-13))
294.318299    	((2.193210e-08 7.229694e-09 -1.956414e-05) (3.997831e-09 1.742481e-09 -1.299692e-05)) ((-1.344380e-13 -8.287702e-12 2.467430e-14) (-1.647320e-10 8.261919e-11 8.323054e-13))
303.445854    	((2.276915e-08 7.114105e-09 -1.954229e-05) (4.254295e-09 1.747318e-09 -1.298078e-05)) ((-1.255880e-13 -8.280067e-12 2.440667e-14) (-1.615033e-10 7.834163e-11 7.711601e-13))
312.574852    	((2.359082e-08 6.984728e-09 -1.952146e-05) (4.505295e-09 1.761149e-09 -1.296586e-05)) ((-1.176845e-13 -8.276036e-12 2.416597e-14) (-1.578807e-10 7.396139e-11 8.045285e-13))
321.705197    	((2.429219e-08 6.772337e-09 -1.950206e-05) (4.735396e-09 1.770045e-09 -1.295207e-05)) ((-1.104754e-13 -8.272790e-12 2.439113e-14) (-1.541032e-10 6.998465e-11 8.226150e-13))
330.836796    	((2.510098e-08 6.611242e-09 -1.948357e-05) (4.955475e-09 1.778562e-09 -1.293929e-05)) ((-1.017519e-13 -8.273451e-12 2.363000e-14) (-1.503064e-10 6.666951e-11 8.053340e-13))
339.969558    	((2.604168e-08 6.532975e-09 -1.946730e-05) (5.172510e-09 1.791602e-09 -1.292756e-05)) ((-9.385944e-14 -8.274569e-12 2.236483e-14) (-1.467452e-10 6.374052e-11 7.916138e-13))
349.103408    	((2.706262e-08 6.387289e-09 -1.945127e-05) (5.387231e-09 1.802610e-09 -1.291675e-05)) ((-8.757109e-14 -8.278417e-12 2.121219e-14) (-1.433520e-10 6.134696e-11 7.870968e-13))
358.238279    	((2.815618e-08 6.317111e-09 -1.943596e-05) (5.601209e-09 1.816363e-09 -1.290672e-05)) ((-8.163503e-14 -8.281263e-12 2.042109e-14) (-1.400641e-10 5.962847e-11 7.646598e-13))
367.374105    	((2.901272e-08 6.108264e-09 -1.942168e-05) (5.800240e-09 1.824542e-09 -1.289743e-05)) ((-7.745797e-14 -8.281628e-12 2.000464e-14) (-1.369954e-10 5.869810e-11 7.356574e-13))
376.510827    	((2.991990e-08 5.840484e-09 -1.940782e-05) (5.970836e-09 1.819098e-09 -1.288881e-05)) ((-7.399909e-14 -8.283356e-12 1.977079e-14) (-1.341608e-10 5.865415e-11 7.030496e-13))
385.648382    	((3.075106e-08 5.589253e-09 -1.939490e-05) (6.122523e-09 1.807272e-09 -1.288080e-05)) ((-7.045858e-14 -8.282514e-12 1.981988e-14) (-1.316461e-10 5.920431e-11 6.686578e-13))
394.786716    	((3.165300e-08 5.302288e-09 -1.938250e-05) (6.261684e-09 1.788839e-09 -1.287334e-05)) ((-6.898261e-14 -8.283263e-12 2.000147e-14) (-1.293545e-10 6.044365e-11 6.310578e-13))
403.925777    	((3.256371e-08 5.000520e-09 -1.937028e-05) (6.387995e-09 1.763266e-09 -1.286634e-05)) ((-6.664620e-14 -8.283710e-12 2.029139e-14) (-1.272973e-10 6.231763e-11 5.973826e-13))
413.065514    	((3.358011e-08 4.632835e-09 -1.935881e-05) (6.512999e-09 1.730384e-09 -1.285975e-05)) ((-6.691353e-14 -8.283243e-12 2.055812e-14) (-1.254051e-10 6.472705e-11 5.717297e-13))
422.205882    	((3.477180e-08 4.348812e-09 -1.934802e-05) (6.649165e-09 1.695416e-09 -1.285355e-05)) ((-6.600412e-14 -8.283816e-12 2.081492e-14) (-1.236321e-10 6.755043e-11 5.460747e-13))
431.346839    	((3.610941e-08 4.023870e-09 -1.933802e-05) (6.801220e-09 1.657612e-09 -1.284772e-05)) ((-6.629843e-14 -8.285412e-12 2.122525e-14) (-1.220326e-10 7.078190e-11 5.459664e-13))
440.488349    	((3.754395e-08 3.690874e-09 -1.932876e-05) (6.968454e-09 1.614347e-09 -1.284226e-05)) ((-6.726605e-14 -8.288101e-12 2.151879e-14) (-1.206366e-10 7.440352e-11 5.694673e-13))
449.630378    	((3.906345e-08 3.350961e-09 -1.932010e-05) (7.151318e-09 1.566594e-09 -1.283713e-05)) ((-6.817446e-14 -8.291918e-12 2.173480e-14) (-1.193621e-10 7.830649e-11 6.077744e-13))
458.772898    	((4.063535e-08 3.008926e-09 -1.931206e-05) (7.350400e-09 1.515686e-09 -1.283232e-05)) ((-6.944866e-14 -8.296147e-12 2.191597e-14) (-1.181905e-10 8.237600e-11 6.437426e-13))
467.915881    	((4.232800e-08 2.725569e-09 -1.930456e-05) (7.568768e-09 1.466302e-09 -1.282782e-05)) ((-7.016177e-14 -8.301063e-12 2.197682e-14) (-1.171148e-10 8.655828e-11 6.759903e-13))
477.059301    	((4.405293e-08 2.413800e-09 -1.929757e-05) (7.802593e-09 1.416304e-09 -1.282361e-05)) ((-7.143826e-14 -8.305689e-12 2.219456e-14) (-1.161333e-10 9.075812e-11 7.190889e-13))
486.203137    	((4.585345e-08 2.183974e-09 -1.929108e-05) (8.050536e-09 1.369086e-09 -1.281967e-05)) ((-7.211506e-14 -8.310906e-12 2.224161e-14) (-1.152556e-10 9.498740e-11 7.613313e-13))
495.347365    	((4.772272e-08 1.957428e-09 -1.928500e-05) (8.313935e-09 1.323726e-09 -1.281599e-05)) ((-7.351781e-14 -8.316440e-12 2.217254e-14) (-1.144701e-10 9.925667e-11 7.876291e-13))
504.491968    	((4.963468e-08 1.792869e-09 -1.927932e-05) (8.592144e-09 1.280923e-09 -1.281255e-05)) ((-7.415225e-14 -8.322556e-12 2.216531e-14) (-1.138149e-10 1.035068e-10 7.927081e-13))
513.636924    	((5.157632e-08 1.617026e-09 -1.927401e-05) (8.884338e-09 1.241072e-09 -1.280933e-05)) ((-7.514385e-14 -8.329038e-12 2.195736e-14) (-1.132586e-10 1.076668e-10 7.920406e-13))
522.782218    	((5.348722e-08 1.404174e-09 -1.926905e-05) (9.186323e-09 1.202208e-09 -1.280633e-05)) ((-7.658400e-14 -8.335074e-12 2.172583e-14) (-1.127801e-10 1.117105e-10 8.057839e-13))
531.927832    	((5.536714e-08 1.129829e-09 -1.926439e-05) (9.495005e-09 1.158870e-09 -1.280353e-05)) ((-7.883718e-14 -8.340986e-12 2.169340e-14) (-1.123610e-10 1.156025e-10 8.226469e-13))
541.073749    	((5.715570e-08 8.460103e-10 -1.926003e-05) (9.803854e-09 1.111783e-09 -1.280092e-05)) ((-8.110306e-14 -8.346161e-12 2.165054e-14) (-1.119819e-10 1.193147e-10 8.331383e-13))
550.219951    	((5.887354e-08 5.694400e-10 -1.925591e-05) (1.010964e-08 1.063948e-09 -1.279847e-05)) ((-8.326639e-14 -8.351430e-12 2.162820e-14) (-1.115757e-10 1.228232e-10 8.401625e-13))
559.366423    	((6.049440e-08 2.715638e-10 -1.925204e-05) (1.040936e-08 1.015267e-09 -1.279618e-05)) ((-8.582743e-14 -8.356508e-12 2.168743e-14) (-1.110843e-10 1.261016e-10 8.436450e-13))
568.513149    	((6.201995e-08 -5.959975e-11 -1.924834e-05) (1.070008e-08 9.653093e-10 -1.279404e-05)) ((-8.863201e-14 -8.361582e-12 2.176087e-14) (-1.104610e-10 1.291306e-10 8.458708e-13))
