# Forces      
# CofR        : (0.000000e+00 0.000000e+00 0.000000e+00)
# Time        forces(pressure viscous)	moments(pressure viscous)
0             	((0.000000e+00 0.000000e+00 0.000000e+00) (-8.740188e-16 8.179641e-17 -1.265124e-05)) ((0.000000e+00 0.000000e+00 0.000000e+00) (-2.322590e-17 -4.823618e-12 -2.207596e-18))
0.012         	((7.906900e-10 1.617731e-09 -3.676707e-03) (1.084416e-11 1.174085e-11 -1.451970e-05)) ((-1.572047e-12 -9.741872e-10 -1.648685e-14) (1.006083e-13 -1.423411e-11 -5.865536e-16))
0.0264        	((-7.328358e-08 -7.575546e-08 2.525196e-04) (-4.063948e-11 -4.047476e-11 -1.481754e-05)) ((2.312085e-12 6.034021e-11 8.019406e-15) (8.782584e-14 -1.889433e-11 -3.691164e-14))
0.04368       	((7.409647e-08 6.331548e-08 7.699552e-04) (-3.763983e-11 -4.207265e-11 -1.317105e-05)) ((8.338622e-12 1.733747e-10 6.899109e-14) (-2.335771e-13 -1.927765e-11 -3.326859e-14))
0.064416      	((-2.288433e-09 -1.272595e-08 7.290951e-06) (-1.327818e-10 -1.066395e-10 -1.166792e-05)) ((-2.776416e-12 -2.564612e-12 -3.396048e-14) (1.010423e-12 -2.201092e-11 -2.070719e-14))
0.0892992     	((-1.120195e-08 8.873434e-09 -1.025717e-05) (-2.421690e-10 -1.776117e-10 -1.077262e-05)) ((-1.089089e-12 5.562828e-12 4.818669e-15) (1.636771e-13 -2.708008e-11 6.207348e-14))
0.119159      	((-8.448737e-09 -6.876672e-09 1.160368e-05) (-2.291719e-10 -1.669252e-10 -9.946901e-06)) ((-4.673620e-13 7.464358e-12 -1.088208e-13) (-1.454448e-12 -2.896065e-11 2.217890e-13))
0.154991      	((-8.788515e-11 9.820361e-10 6.362170e-06) (-1.829308e-10 -1.387382e-10 -9.071368e-06)) ((3.702367e-13 6.501925e-12 -2.070467e-14) (-6.827048e-13 -2.806939e-11 2.803345e-13))
0.197989      	((-1.051869e-09 2.389503e-09 1.559133e-06) (-1.007481e-10 -8.197368e-11 -8.187424e-06)) ((-1.117057e-14 3.229155e-12 -1.106808e-14) (4.254536e-13 -2.463316e-11 3.235827e-13))
0.249587      	((-5.984644e-12 -1.835036e-10 -1.881945e-07) (-3.699648e-11 -4.349169e-11 -7.319741e-06)) ((-1.341960e-13 1.985030e-12 1.089286e-14) (1.278884e-12 -2.164965e-11 3.404787e-13))
0.311504      	((7.400609e-11 4.044514e-11 -9.779575e-07) (1.648216e-12 -1.076687e-11 -6.493870e-06)) ((1.081354e-14 8.929704e-13 5.731062e-15) (1.673940e-12 -2.022971e-11 2.467571e-13))
0.385805      	((1.196740e-10 1.937074e-10 -1.350720e-06) (3.406529e-11 1.439657e-11 -5.730740e-06)) ((2.717812e-14 2.266800e-13 8.385188e-16) (1.795084e-12 -2.139789e-11 1.745941e-13))
0.474966      	((3.624961e-10 2.588551e-10 -1.526645e-06) (4.159341e-11 2.132165e-11 -5.045622e-06)) ((2.098950e-14 -1.582165e-13 -4.695969e-16) (1.519759e-12 -2.171160e-11 1.373903e-13))
0.581959      	((3.362601e-10 1.207438e-10 -1.598303e-06) (2.345073e-11 2.125988e-11 -4.445343e-06)) ((1.000425e-14 -3.453616e-13 2.297436e-15) (1.150377e-12 -1.987187e-11 1.186384e-13))
0.710351      	((1.439465e-10 1.026096e-10 -1.593490e-06) (-1.011639e-13 1.335075e-11 -3.930581e-06)) ((-1.020173e-15 -5.252241e-13 -3.879727e-16) (7.755253e-13 -1.567835e-11 9.239305e-14))
0.864421      	((6.930701e-11 5.629651e-11 -1.536897e-06) (-3.774563e-12 1.231957e-11 -3.495149e-06)) ((1.159743e-15 -6.428958e-13 -5.692503e-16) (8.327851e-13 -1.022999e-11 9.880533e-14))
1.049306      	((-3.504296e-11 4.110631e-11 -1.452668e-06) (1.298740e-11 8.893239e-12 -3.128149e-06)) ((4.766590e-16 -7.224636e-13 -8.739372e-16) (9.799615e-13 -5.441930e-12 1.280313e-13))
1.271167      	((-7.565742e-11 3.201496e-11 -1.358763e-06) (2.861764e-11 1.789098e-12 -2.817990e-06)) ((2.028616e-15 -7.515669e-13 -1.106260e-15) (8.913551e-13 -1.514850e-12 1.420711e-13))
1.5374        	((-8.562358e-11 3.226499e-11 -1.263164e-06) (3.413682e-11 2.508952e-13 -2.552338e-06)) ((9.746661e-16 -7.334457e-13 -1.018290e-15) (6.939697e-13 2.617717e-12 1.439573e-13))
1.85688       	((-6.364024e-11 2.742432e-11 -1.170018e-06) (3.190725e-11 8.888919e-13 -2.319962e-06)) ((1.784238e-15 -7.426411e-13 -1.237159e-15) (4.954028e-13 6.726157e-12 1.386693e-13))
2.240256      	((-6.185201e-11 1.361514e-11 -1.081567e-06) (2.373363e-11 8.898432e-13 -2.113479e-06)) ((1.917348e-15 -7.444772e-13 -9.627161e-16) (2.407095e-13 1.008743e-11 1.326035e-13))
2.700307      	((-7.464568e-11 -3.000117e-12 -9.988768e-07) (1.460317e-11 8.890651e-13 -1.928244e-06)) ((2.070125e-15 -7.447095e-13 -7.815080e-16) (-4.781286e-14 1.293487e-11 1.222311e-13))
3.252369      	((-1.152026e-10 -2.483093e-11 -9.216577e-07) (-4.464006e-12 1.435650e-12 -1.761216e-06)) ((2.357143e-15 -7.298555e-13 -6.567959e-16) (-3.182369e-13 1.537315e-11 1.071015e-13))
3.914842      	((-1.425116e-10 -3.405650e-11 -8.490378e-07) (-1.211312e-11 2.181945e-12 -1.610296e-06)) ((1.513304e-15 -6.913754e-13 -2.721379e-16) (-5.074444e-13 1.695372e-11 9.316134e-14))
4.709811      	((-1.159655e-10 -3.304407e-11 -7.814064e-07) (-4.968252e-12 1.343928e-12 -1.473957e-06)) ((6.380062e-17 -6.467064e-13 -3.012630e-16) (-5.829547e-13 1.753690e-11 7.740479e-14))
5.663773      	((-7.322896e-11 -1.933044e-11 -7.189392e-07) (1.345557e-11 1.299376e-13 -1.351094e-06)) ((-1.754837e-15 -5.988104e-13 -6.256399e-16) (-5.581747e-13 1.716106e-11 6.498239e-14))
6.808528      	((-5.458220e-11 -1.131394e-11 -6.617245e-07) (3.876517e-11 -1.563008e-12 -1.240701e-06)) ((-3.004018e-15 -5.546473e-13 -6.969687e-16) (-4.862389e-13 1.622535e-11 6.355596e-14))
8.182233      	((-5.169422e-11 -1.501297e-11 -6.095270e-07) (5.679592e-11 -2.840252e-12 -1.141646e-06)) ((-1.943753e-15 -5.199443e-13 -5.028282e-16) (-4.787692e-13 1.490021e-11 5.886703e-14))
9.83068       	((-5.394486e-11 -2.935143e-11 -5.621220e-07) (6.395288e-11 -2.509446e-12 -1.052682e-06)) ((-7.275088e-16 -4.894225e-13 -3.202130e-16) (-7.332306e-13 1.364169e-11 3.854967e-14))
11.808816     	((-3.406088e-11 -3.244785e-11 -5.187180e-07) (6.383814e-11 -1.616622e-12 -9.725414e-07)) ((-9.903275e-16 -4.564822e-13 -3.373241e-16) (-1.370956e-12 1.288501e-11 1.826729e-14))
14.182579     	((-3.007890e-11 -3.053294e-11 -4.790517e-07) (6.206017e-11 3.900609e-13 -9.000207e-07)) ((-2.661722e-15 -4.229787e-13 -3.598212e-16) (-2.319101e-12 1.254346e-11 1.315296e-14))
17.031095     	((-5.269357e-11 -5.379457e-11 -4.428819e-07) (6.029360e-11 2.865735e-12 -8.341144e-07)) ((-3.326422e-15 -3.933782e-13 1.660898e-17) (-3.457208e-12 1.260148e-11 9.850429e-15))
20.449314     	((-6.674221e-11 -7.597832e-11 -4.098972e-07) (5.808951e-11 3.279320e-12 -7.740745e-07)) ((-3.110921e-15 -3.683062e-13 2.381368e-16) (-4.727432e-12 1.274591e-11 1.546964e-15))
24.551176     	((-6.247698e-11 -8.478851e-11 -3.797375e-07) (5.744760e-11 3.588708e-12 -7.193635e-07)) ((-3.177614e-15 -3.439368e-13 1.288320e-16) (-5.901796e-12 1.280011e-11 -2.746239e-15))
29.473411     	((-2.634762e-11 -5.214149e-11 -3.522952e-07) (5.386495e-11 6.939789e-12 -6.695608e-07)) ((-3.139885e-15 -3.216739e-13 1.466189e-16) (-6.950323e-12 1.288807e-11 -2.049150e-14))
35.380094     	((-2.191161e-11 -5.322233e-11 -3.273163e-07) (5.293648e-11 9.707144e-12 -6.243085e-07)) ((-3.065698e-15 -3.009887e-13 1.415362e-17) (-7.963664e-12 1.300645e-11 -3.589559e-14))
42.468112     	((-3.444384e-11 -6.545630e-11 -3.047571e-07) (5.541818e-11 1.163602e-11 -5.832583e-07)) ((-3.568963e-15 -2.806172e-13 -9.886217e-19) (-9.022342e-12 1.334259e-11 -3.917998e-14))
50.973735     	((-3.527757e-11 -6.716377e-11 -2.844216e-07) (5.499137e-11 1.454029e-11 -5.460605e-07)) ((-4.672106e-15 -2.616966e-13 -6.087855e-17) (-1.023156e-11 1.411232e-11 -2.564674e-14))
61.180482     	((-1.006073e-11 -3.872737e-11 -2.661449e-07) (5.686147e-11 1.927244e-11 -5.123601e-07)) ((-5.661739e-15 -2.444635e-13 -9.752686e-17) (-1.169030e-11 1.531606e-11 -1.284823e-14))
73.428578     	((1.378515e-11 -1.489198e-11 -2.497617e-07) (5.921695e-11 2.417577e-11 -4.818153e-07)) ((-6.151931e-15 -2.288018e-13 -1.108771e-16) (-1.346008e-11 1.695329e-11 -1.117106e-14))
88.126294     	((2.865325e-11 3.816017e-12 -2.351119e-07) (6.112896e-11 3.098942e-11 -4.541044e-07)) ((-6.723918e-15 -2.144608e-13 -1.646985e-16) (-1.545596e-11 1.887101e-11 -9.283963e-15))
105.763553    	((4.678102e-11 2.106084e-11 -2.221163e-07) (6.340059e-11 3.761992e-11 -4.289421e-07)) ((-7.277404e-15 -2.014041e-13 -2.141277e-16) (-1.760590e-11 2.091893e-11 -1.022840e-14))
126.928263    	((6.160956e-11 3.833895e-11 -2.107057e-07) (6.540899e-11 4.339420e-11 -4.061038e-07)) ((-7.456461e-15 -1.899119e-13 -2.121338e-16) (-1.967999e-11 2.289153e-11 1.593709e-15))
152.325916    	((7.078727e-11 5.072602e-11 -2.007527e-07) (6.717161e-11 4.822009e-11 -3.854041e-07)) ((-7.293048e-15 -1.797734e-13 -2.653408e-16) (-2.150976e-11 2.455675e-11 1.640006e-14))
182.803099    	((7.889555e-11 6.187328e-11 -1.921488e-07) (6.945503e-11 5.092523e-11 -3.666945e-07)) ((-7.143348e-15 -1.705225e-13 -2.707886e-16) (-2.299732e-11 2.600784e-11 2.014700e-14))
219.375719    	((9.871805e-11 8.383401e-11 -1.847561e-07) (7.000961e-11 5.421940e-11 -3.498587e-07)) ((-6.547905e-15 -1.623187e-13 -2.668537e-16) (-2.410311e-11 2.715922e-11 -4.147906e-16))
263.262863    	((1.130633e-10 1.002166e-10 -1.785025e-07) (6.959346e-11 5.703649e-11 -3.347772e-07)) ((-5.948869e-15 -1.549600e-13 -2.731627e-16) (-2.480899e-11 2.794727e-11 -2.518999e-14))
315.927436    	((1.189460e-10 1.103820e-10 -1.733750e-07) (6.833787e-11 5.925236e-11 -3.213514e-07)) ((-5.635806e-15 -1.481761e-13 -2.762603e-16) (-2.516073e-11 2.838924e-11 -5.110626e-14))
379.124923    	((1.254720e-10 1.180582e-10 -1.692715e-07) (6.571867e-11 6.014428e-11 -3.094943e-07)) ((-5.430020e-15 -1.420119e-13 -2.831800e-16) (-2.519101e-11 2.851025e-11 -6.930264e-14))
454.961908    	((1.352143e-10 1.288365e-10 -1.661144e-07) (6.313319e-11 6.134706e-11 -2.991206e-07)) ((-5.265133e-15 -1.368270e-13 -2.490653e-16) (-2.490840e-11 2.828290e-11 -8.421942e-14))
545.966289    	((1.443649e-10 1.356131e-10 -1.637804e-07) (6.084432e-11 6.220061e-11 -2.901463e-07)) ((-5.129262e-15 -1.321042e-13 -1.829237e-16) (-2.433596e-11 2.769950e-11 -8.816409e-14))
655.171547    	((1.529438e-10 1.424504e-10 -1.620954e-07) (5.992276e-11 6.320117e-11 -2.824736e-07)) ((-4.830555e-15 -1.282884e-13 -1.613920e-16) (-2.350045e-11 2.684281e-11 -7.583436e-14))
786.217856    	((1.523870e-10 1.445804e-10 -1.609004e-07) (5.909928e-11 6.407719e-11 -2.759875e-07)) ((-4.683899e-15 -1.249211e-13 -2.077945e-16) (-2.244090e-11 2.579499e-11 -5.660614e-14))
943.473427    	((1.486606e-10 1.431972e-10 -1.600473e-07) (5.907306e-11 6.533313e-11 -2.705605e-07)) ((-4.482215e-15 -1.226613e-13 -1.575752e-16) (-2.120127e-11 2.456629e-11 -4.132645e-14))
1130.187693   	((1.448049e-10 1.397463e-10 -1.594262e-07) (5.988958e-11 6.681750e-11 -2.660635e-07)) ((-4.126038e-15 -1.208896e-13 -1.433723e-16) (-1.984934e-11 2.319478e-11 -3.205565e-14))
1346.402413   	((1.362199e-10 1.323822e-10 -1.589550e-07) (6.091012e-11 6.849660e-11 -2.623687e-07)) ((-3.797419e-15 -1.193143e-13 -1.793789e-16) (-1.844777e-11 2.177219e-11 -2.843998e-14))
1592.156518   	((1.251677e-10 1.232886e-10 -1.585681e-07) (6.225259e-11 7.023237e-11 -2.593482e-07)) ((-3.487980e-15 -1.181939e-13 -1.778979e-16) (-1.705109e-11 2.034053e-11 -2.828523e-14))
1867.48698    	((1.149621e-10 1.154018e-10 -1.582478e-07) (6.354904e-11 7.178948e-11 -2.568894e-07)) ((-3.199752e-15 -1.174824e-13 -1.629972e-16) (-1.571044e-11 1.895241e-11 -2.963725e-14))
2163.590316   	((1.056419e-10 1.066468e-10 -1.579908e-07) (6.477960e-11 7.295442e-11 -2.548981e-07)) ((-2.946838e-15 -1.170010e-13 -1.352792e-16) (-1.445069e-11 1.763517e-11 -3.042244e-14))
2459.994209   	((9.718952e-11 9.858661e-11 -1.577919e-07) (6.552783e-11 7.367875e-11 -2.532946e-07)) ((-2.694662e-15 -1.166687e-13 -1.011828e-16) (-1.329013e-11 1.642751e-11 -2.872677e-14))
2756.655685   	((8.976810e-11 9.137533e-11 -1.576234e-07) (6.579123e-11 7.389571e-11 -2.520025e-07)) ((-2.478890e-15 -1.164091e-13 -8.942297e-17) (-1.223719e-11 1.533165e-11 -2.539589e-14))
3053.535373   	((8.234319e-11 8.424602e-11 -1.574868e-07) (6.564338e-11 7.361866e-11 -2.509635e-07)) ((-2.312070e-15 -1.162191e-13 -8.292002e-17) (-1.129077e-11 1.434337e-11 -2.116824e-14))
3350.597704   	((7.559694e-11 7.755461e-11 -1.573723e-07) (6.509110e-11 7.298339e-11 -2.501271e-07)) ((-2.175551e-15 -1.160825e-13 -8.291857e-17) (-1.044561e-11 1.346470e-11 -1.719365e-14))
3647.812507   	((6.948820e-11 7.153279e-11 -1.572787e-07) (6.419527e-11 7.205419e-11 -2.494541e-07)) ((-2.056041e-15 -1.159810e-13 -8.290144e-17) (-9.701254e-12 1.269072e-11 -1.418551e-14))
3945.153937   	((6.402967e-11 6.620627e-11 -1.572005e-07) (6.308159e-11 7.091079e-11 -2.489115e-07)) ((-1.954371e-15 -1.159038e-13 -8.278199e-17) (-9.050687e-12 1.201373e-11 -1.185368e-14))
4242.600364   	((5.908247e-11 6.137686e-11 -1.571361e-07) (6.183702e-11 6.961949e-11 -2.484739e-07)) ((-1.862901e-15 -1.158449e-13 -8.101706e-17) (-8.485992e-12 1.142420e-11 -9.674484e-15))
4540.133559   	((5.471737e-11 5.708113e-11 -1.570830e-07) (6.049800e-11 6.823598e-11 -2.481205e-07)) ((-1.788949e-15 -1.157984e-13 -7.964725e-17) (-7.999027e-12 1.091509e-11 -7.573970e-15))
4837.738386   	((5.082755e-11 5.331653e-11 -1.570394e-07) (5.907461e-11 6.681859e-11 -2.478349e-07)) ((-1.727922e-15 -1.157550e-13 -8.006005e-17) (-7.580826e-12 1.048043e-11 -5.588252e-15))
5135.402244   	((4.743642e-11 5.003435e-11 -1.570033e-07) (5.764814e-11 6.541948e-11 -2.476038e-07)) ((-1.677108e-15 -1.157244e-13 -7.925958e-17) (-7.222950e-12 1.010924e-11 -3.817953e-15))
5433.11472    	((4.451216e-11 4.720942e-11 -1.569737e-07) (5.628051e-11 6.407395e-11 -2.474166e-07)) ((-1.633548e-15 -1.157020e-13 -7.829777e-17) (-6.918033e-12 9.792458e-12 -2.205924e-15))
5730.867188   	((4.202377e-11 4.480993e-11 -1.569493e-07) (5.499444e-11 6.279793e-11 -2.472647e-07)) ((-1.597014e-15 -1.156876e-13 -7.770481e-17) (-6.659892e-12 9.523312e-12 -7.943288e-16))
6028.652535   	((3.990530e-11 4.277371e-11 -1.569293e-07) (5.380886e-11 6.161947e-11 -2.471415e-07)) ((-1.566462e-15 -1.156764e-13 -7.707784e-17) (-6.441723e-12 9.295427e-12 4.119699e-16))
6326.464896   	((3.811176e-11 4.107684e-11 -1.569128e-07) (5.273813e-11 6.055238e-11 -2.470414e-07)) ((-1.540680e-15 -1.156664e-13 -7.712954e-17) (-6.257705e-12 9.102860e-12 1.393591e-15))
6624.299442   	((3.660239e-11 3.964952e-11 -1.568993e-07) (5.178330e-11 5.959767e-11 -2.469600e-07)) ((-1.518480e-15 -1.156592e-13 -7.690497e-17) (-6.103020e-12 8.940565e-12 2.187276e-15))
6922.152198   	((3.534487e-11 3.845581e-11 -1.568882e-07) (5.093792e-11 5.875332e-11 -2.468938e-07)) ((-1.499846e-15 -1.156540e-13 -7.691866e-17) (-5.973412e-12 8.804458e-12 2.841665e-15))
7220.019898   	((3.429726e-11 3.746521e-11 -1.568790e-07) (5.019491e-11 5.801214e-11 -2.468399e-07)) ((-1.484575e-15 -1.156499e-13 -7.681024e-17) (-5.865162e-12 8.690650e-12 3.392737e-15))
7517.899855   	((3.341742e-11 3.667240e-11 -1.568715e-07) (4.954549e-11 5.736618e-11 -2.467960e-07)) ((-1.472168e-15 -1.156469e-13 -7.661784e-17) (-5.775075e-12 8.595853e-12 3.863359e-15))
7815.789865   	((3.269947e-11 3.600650e-11 -1.568652e-07) (4.898238e-11 5.680833e-11 -2.467602e-07)) ((-1.462055e-15 -1.156441e-13 -7.655594e-17) (-5.700274e-12 8.517161e-12 4.263456e-15))
8113.688114   	((3.210995e-11 3.546077e-11 -1.568601e-07) (4.849719e-11 5.633056e-11 -2.467310e-07)) ((-1.453658e-15 -1.156422e-13 -7.646700e-17) (-5.638257e-12 8.451983e-12 4.598466e-15))
8411.593119   	((3.162432e-11 3.500853e-11 -1.568559e-07) (4.808335e-11 5.592451e-11 -2.467072e-07)) ((-1.446617e-15 -1.156407e-13 -7.629879e-17) (-5.586925e-12 8.398070e-12 4.872472e-15))
8709.503658   	((3.123081e-11 3.463804e-11 -1.568525e-07) (4.773287e-11 5.558137e-11 -2.466878e-07)) ((-1.440793e-15 -1.156395e-13 -7.634264e-17) (-5.544527e-12 8.353533e-12 5.104713e-15))
9007.418728   	((3.091104e-11 3.433235e-11 -1.568497e-07) (4.743754e-11 5.529333e-11 -2.466719e-07)) ((-1.436176e-15 -1.156388e-13 -7.616988e-17) (-5.509578e-12 8.316826e-12 5.292026e-15))
9305.33751    	((3.064739e-11 3.408111e-11 -1.568474e-07) (4.718998e-11 5.505193e-11 -2.466589e-07)) ((-1.431801e-15 -1.156382e-13 -7.631911e-17) (-5.480837e-12 8.286590e-12 5.451321e-15))
9603.259333   	((3.043565e-11 3.388842e-11 -1.568454e-07) (4.698365e-11 5.485102e-11 -2.466482e-07)) ((-1.428558e-15 -1.156376e-13 -7.631436e-17) (-5.457217e-12 8.261714e-12 5.589255e-15))
9901.183644   	((3.026020e-11 3.372242e-11 -1.568439e-07) (4.681268e-11 5.468458e-11 -2.466395e-07)) ((-1.425683e-15 -1.156374e-13 -7.623126e-17) (-5.437817e-12 8.241271e-12 5.698265e-15))
10199.109993  	((3.012236e-11 3.359650e-11 -1.568426e-07) (4.667230e-11 5.454793e-11 -2.466324e-07)) ((-1.423619e-15 -1.156371e-13 -7.626746e-17) (-5.421904e-12 8.224475e-12 5.788509e-15))
10497.038012  	((3.000287e-11 3.348598e-11 -1.568416e-07) (4.655637e-11 5.443555e-11 -2.466266e-07)) ((-1.422030e-15 -1.156368e-13 -7.610823e-17) (-5.408846e-12 8.210682e-12 5.863765e-15))
10794.967397  	((2.991320e-11 3.338631e-11 -1.568408e-07) (4.646180e-11 5.434374e-11 -2.466218e-07)) ((-1.420074e-15 -1.156367e-13 -7.619011e-17) (-5.398146e-12 8.199383e-12 5.928977e-15))
11092.8979    	((2.984178e-11 3.333075e-11 -1.568400e-07) (4.638432e-11 5.426886e-11 -2.466179e-07)) ((-1.418846e-15 -1.156368e-13 -7.615750e-17) (-5.389378e-12 8.190118e-12 5.977820e-15))
11390.829318  	((2.978295e-11 3.326360e-11 -1.568394e-07) (4.632168e-11 5.420838e-11 -2.466147e-07)) ((-1.417892e-15 -1.156363e-13 -7.616812e-17) (-5.382202e-12 8.182524e-12 6.022078e-15))
