# Forces      
# CofR        : (0.000000e+00 0.000000e+00 0.000000e+00)
# Time        forces(pressure viscous)	moments(pressure viscous)
0             	((0.000000e+00 0.000000e+00 0.000000e+00) (0.000000e+00 0.000000e+00 0.000000e+00)) ((0.000000e+00 0.000000e+00 0.000000e+00) (0.000000e+00 0.000000e+00 0.000000e+00))
0.012         	((3.763843e-10 -7.155704e-08 -1.454850e-10) (3.283631e-12 -1.820349e-09 6.013067e-12)) ((1.877010e-14 -1.282112e-14 1.629872e-09) (-7.640557e-15 1.495015e-13 2.214071e-06))
0.0264        	((1.040856e-09 -1.055220e-08 -1.581717e-12) (9.822611e-12 -2.688629e-09 1.074754e-11)) ((-1.362504e-14 1.451263e-13 7.510022e-10) (-2.575465e-15 4.112450e-13 2.028174e-06))
0.04368       	((1.134097e-09 -3.358606e-08 -5.269522e-10) (5.562607e-12 -2.842877e-09 1.562605e-11)) ((3.307454e-14 1.781242e-13 4.138910e-10) (-1.361945e-14 7.462288e-13 1.837167e-06))
0.064416      	((1.506761e-09 4.302886e-09 4.221995e-10) (-1.679760e-11 -2.467700e-09 2.596506e-11)) ((-2.778271e-15 9.993750e-14 2.277021e-10) (2.371222e-14 1.168482e-12 1.645416e-06))
0.0892992     	((2.612435e-10 -1.491213e-08 -4.426516e-10) (-3.983957e-11 -2.069286e-09 4.004881e-11)) ((5.400838e-14 2.402222e-13 1.740227e-10) (1.762903e-13 1.691603e-12 1.458681e-06))
0.119159      	((1.119066e-10 2.236184e-09 -5.880060e-11) (-5.329362e-11 -1.714880e-09 4.902269e-11)) ((1.475113e-14 1.726577e-13 1.329472e-10) (3.276110e-13 2.020364e-12 1.282848e-06))
0.154991      	((-6.824621e-11 -7.562718e-09 3.591910e-13) (-6.538205e-11 -1.595002e-09 5.459151e-11)) ((2.893516e-14 1.356164e-13 1.105487e-10) (4.688061e-13 2.201320e-12 1.122048e-06))
0.197989      	((-3.147401e-10 -3.033384e-09 -9.152026e-11) (-7.197934e-11 -1.460070e-09 5.603962e-11)) ((4.314897e-14 1.325115e-13 9.127307e-11) (5.156241e-13 2.245112e-12 9.796378e-07))
0.249587      	((6.019655e-11 -5.046665e-09 -1.748653e-10) (-5.216433e-11 -1.345644e-09 5.393007e-11)) ((3.034817e-14 1.065825e-13 7.545171e-11) (4.487077e-13 2.179976e-12 8.572364e-07))
0.311504      	((-2.626217e-10 -3.646818e-09 -1.254468e-10) (-1.078476e-11 -1.245125e-09 5.274325e-11)) ((2.646436e-14 6.994686e-14 6.197208e-11) (2.104307e-13 2.053806e-12 7.544105e-07))
0.385805      	((1.456675e-09 -3.407192e-09 4.696640e-11) (5.024172e-12 -1.131835e-09 5.499520e-11)) ((3.349874e-14 1.806084e-14 5.189566e-11) (7.696397e-14 2.028361e-12 6.689502e-07))
0.474966      	((3.956093e-10 -3.375147e-09 -3.771366e-11) (1.540673e-11 -1.041626e-09 6.044100e-11)) ((2.930594e-14 5.998573e-15 4.484552e-11) (1.144888e-13 2.073981e-12 5.975927e-07))
0.581959      	((7.061792e-10 -2.927140e-09 -4.445140e-11) (5.661804e-12 -9.307894e-10 5.349249e-11)) ((1.463999e-14 -3.840024e-14 3.804203e-11) (1.459327e-13 1.621154e-12 5.371492e-07))
0.710351      	((3.971910e-10 -2.658663e-09 -6.075828e-12) (-8.955632e-11 -7.858887e-10 3.951285e-11)) ((1.375102e-14 -5.686270e-14 3.137438e-11) (2.863451e-13 1.054653e-12 4.850496e-07))
0.864421      	((5.206708e-10 -4.176002e-09 -5.387701e-11) (-2.099663e-10 -6.790564e-10 2.821427e-11)) ((-6.703497e-15 -1.021527e-13 2.685520e-11) (2.765304e-13 3.499348e-13 4.394191e-07))
1.049306      	((2.773548e-09 -3.913005e-09 -3.346667e-11) (-2.814846e-10 -5.120990e-10 1.908844e-11)) ((-4.711864e-14 -1.307753e-13 2.397689e-11) (3.076142e-13 -1.102344e-13 3.989396e-07))
1.271167      	((2.571334e-09 -4.359010e-09 -9.689001e-11) (-2.752183e-10 -3.752823e-10 -2.574269e-12)) ((-9.155242e-14 -1.437167e-13 2.176240e-11) (5.662091e-13 1.187895e-13 3.626831e-07))
1.5374        	((2.352826e-09 -5.028196e-09 1.010038e-11) (-2.761829e-10 -3.275172e-10 -1.512436e-11)) ((-1.276724e-13 -1.619726e-13 1.980982e-11) (7.937315e-13 1.349228e-12 3.300505e-07))
1.85688       	((1.586945e-09 -6.161115e-09 -3.329694e-11) (-2.463995e-10 -3.080453e-10 -2.423960e-11)) ((-1.488085e-13 -1.661928e-13 1.804153e-11) (1.707125e-12 3.227660e-12 3.007100e-07))
2.240256      	((9.029756e-10 -5.477812e-09 9.597532e-11) (-2.705650e-10 -3.296844e-10 -2.446692e-11)) ((-1.687313e-13 -1.756255e-13 1.681845e-11) (3.665263e-12 5.315501e-12 2.744863e-07))
2.700307      	((1.572606e-09 -4.438225e-09 1.832380e-10) (-3.512217e-10 -3.021667e-10 -1.950595e-11)) ((-1.631162e-13 -1.815477e-13 1.560547e-11) (5.631583e-12 7.324390e-12 2.512431e-07))
3.252369      	((1.592472e-09 -3.738101e-09 1.378188e-10) (-3.937360e-10 -1.298310e-10 -2.720036e-11)) ((-1.451123e-13 -1.610499e-13 1.414399e-11) (7.671446e-12 8.692759e-12 2.307881e-07))
3.914842      	((1.732357e-09 -1.340203e-09 4.615553e-11) (-3.913893e-10 4.960352e-11 -3.631960e-11)) ((-1.479010e-13 -9.004080e-14 1.261668e-11) (9.456616e-12 9.484456e-12 2.128302e-07))
4.709811      	((4.039492e-10 -1.348356e-10 6.073253e-11) (-4.390578e-10 2.389606e-10 -2.392920e-11)) ((-1.397259e-13 -1.287472e-14 1.112536e-11) (1.014801e-11 1.020859e-11 1.969889e-07))
5.663773      	((4.313569e-10 1.005816e-09 -7.601333e-11) (-4.660249e-10 4.444437e-10 -2.732643e-11)) ((-1.130536e-13 3.180200e-14 9.687521e-12) (9.383917e-12 1.014415e-11 1.828719e-07))
6.808528      	((3.899718e-10 7.226952e-10 -8.322817e-11) (-4.713761e-10 4.704880e-10 -2.913487e-11)) ((-6.585734e-14 2.862904e-14 8.564076e-12) (7.700212e-12 9.151198e-12 1.701401e-07))
8.182233      	((5.558744e-10 8.531098e-10 -1.456600e-10) (-4.564006e-10 3.901172e-10 -3.088181e-11)) ((-4.917523e-14 3.103869e-14 7.712601e-12) (6.179657e-12 8.718936e-12 1.585475e-07))
9.83068       	((3.095420e-10 4.912321e-10 -1.519600e-10) (-3.993696e-10 2.957710e-10 -3.347641e-11)) ((-3.628205e-14 5.185500e-14 7.002388e-12) (4.663210e-12 7.737992e-12 1.479251e-07))
11.808816     	((5.767507e-10 1.643279e-10 -1.145427e-10) (-3.279973e-10 2.025554e-10 -3.813625e-11)) ((-1.916495e-14 5.796516e-14 6.470102e-12) (3.228191e-12 6.192679e-12 1.381457e-07))
14.182579     	((4.003101e-10 -2.996562e-10 -1.109424e-10) (-2.335601e-10 1.531115e-10 -3.633350e-11)) ((9.388850e-15 7.074479e-14 6.040573e-12) (2.649446e-12 4.340284e-12 1.291173e-07))
17.031095     	((5.541716e-10 -6.161747e-11 -6.055522e-11) (-2.217549e-10 9.653126e-11 -4.199817e-11)) ((2.300252e-14 7.310420e-14 5.638548e-12) (2.547915e-12 2.648996e-12 1.207976e-07))
20.449314     	((4.453644e-10 -1.415526e-10 -4.304816e-11) (-2.511142e-10 3.899812e-11 -5.211494e-11)) ((3.156110e-14 8.119931e-14 5.274177e-12) (2.447556e-12 1.680855e-12 1.131742e-07))
24.551176     	((2.774718e-11 -2.737006e-11 7.609521e-12) (-2.523389e-10 -7.198742e-12 -4.707576e-11)) ((3.495420e-14 7.585000e-14 4.990128e-12) (2.605622e-12 9.237358e-13 1.062270e-07))
29.473411     	((-7.421492e-11 -1.787208e-10 1.258769e-11) (-1.961429e-10 -2.902003e-11 -3.823135e-11)) ((4.549394e-14 6.981012e-14 4.754234e-12) (3.018626e-12 2.490629e-13 9.991730e-08))
35.380094     	((-2.129335e-10 -1.692550e-10 1.936511e-11) (-1.178790e-10 1.774897e-11 -2.155724e-11)) ((5.097790e-14 5.125002e-14 4.530395e-12) (3.341762e-12 -4.468481e-13 9.419969e-08))
42.468112     	((-2.270134e-10 -2.121612e-10 1.205564e-11) (-9.296179e-11 2.544100e-11 -1.197356e-11)) ((5.460957e-14 3.610153e-14 4.361123e-12) (3.475059e-12 -7.050394e-13 8.902158e-08))
50.973735     	((-1.411675e-10 -1.089509e-10 -2.529891e-11) (-4.458267e-11 3.024445e-12 -6.198621e-12)) ((5.743006e-14 3.740400e-14 4.191506e-12) (3.338099e-12 -7.231776e-13 8.433131e-08))
61.180482     	((-2.129663e-13 -1.905675e-10 -4.895263e-11) (1.945624e-12 -3.060241e-11 -5.578538e-12)) ((5.686059e-14 4.609936e-14 3.987741e-12) (3.117130e-12 -4.860000e-13 8.007550e-08))
73.428578     	((1.630200e-12 -7.381710e-11 -1.300862e-11) (4.919585e-11 -1.948359e-11 2.610559e-12)) ((5.217412e-14 5.212663e-14 3.834825e-12) (2.839469e-12 4.339197e-14 7.620206e-08))
88.126294     	((9.436516e-11 -8.063368e-11 -2.112418e-11) (4.052911e-11 8.115713e-12 1.019488e-11)) ((4.232794e-14 5.311356e-14 3.700386e-12) (2.556966e-12 2.788170e-13 7.267783e-08))
105.763553    	((7.870130e-11 -6.811891e-11 -2.411669e-11) (9.493628e-11 3.834345e-11 1.347510e-11)) ((3.779512e-14 5.371080e-14 3.574304e-12) (2.157782e-12 5.007873e-13 6.948008e-08))
126.928263    	((7.736680e-11 -1.660431e-10 -1.421732e-11) (1.383030e-10 7.318796e-11 2.236127e-11)) ((3.660679e-14 4.857193e-14 3.432887e-12) (1.636352e-12 8.822402e-13 6.658777e-08))
152.325916    	((1.175464e-10 -1.658001e-10 -6.055522e-12) (9.656450e-11 7.938401e-11 3.317628e-11)) ((3.492080e-14 4.550172e-14 3.310160e-12) (1.065137e-12 1.183698e-12 6.398228e-08))
182.803099    	((-5.992054e-12 -2.714850e-10 -2.271619e-12) (1.628964e-11 2.943977e-11 3.876419e-11)) ((3.627783e-14 4.294672e-14 3.231985e-12) (5.108731e-13 1.414875e-12 6.164374e-08))
219.375719    	((-6.898445e-11 -3.121181e-10 -3.816854e-12) (-2.392541e-11 5.717024e-12 3.961464e-11)) ((3.221490e-14 3.922267e-14 3.177222e-12) (-4.285966e-14 1.726562e-12 5.955132e-08))
262.377249    	((-1.747257e-10 -3.731462e-10 1.358524e-11) (-5.973199e-11 3.114061e-11 3.991202e-11)) ((3.176380e-14 3.417459e-14 3.140698e-12) (-7.554907e-13 1.859128e-12 5.769895e-08))
311.806332    	((-1.682626e-10 -3.857539e-10 1.580557e-12) (-1.030691e-10 2.901250e-11 3.700010e-11)) ((3.321668e-14 3.168922e-14 3.117218e-12) (-1.401014e-12 1.798177e-12 5.607708e-08))
367.661641    	((-1.676357e-10 -3.835783e-10 -2.893891e-11) (-1.198814e-10 1.631502e-11 2.840481e-11)) ((3.409108e-14 3.144749e-14 3.088953e-12) (-1.756560e-12 1.541457e-12 5.467358e-08))
429.941696    	((-1.841976e-10 -3.793363e-10 -2.404470e-11) (-1.091030e-10 5.937616e-12 2.491398e-11)) ((3.293556e-14 3.232476e-14 3.060222e-12) (-1.835236e-12 1.118118e-12 5.347252e-08))
494.17198     	((-1.902536e-10 -3.543420e-10 -1.214958e-11) (-1.070372e-10 4.982527e-12 2.590101e-11)) ((3.048006e-14 3.127154e-14 3.034381e-12) (-1.711848e-12 6.846400e-13 5.247113e-08))
558.385619    	((-1.999602e-10 -3.453914e-10 -9.991246e-13) (-9.509640e-11 1.985673e-12 2.770042e-11)) ((2.707725e-14 3.066321e-14 3.015929e-12) (-1.474675e-12 4.033149e-13 5.165000e-08))
622.584195    	((-1.902910e-10 -3.245023e-10 -4.846905e-12) (-8.729885e-11 -1.090855e-11 2.530962e-11)) ((2.397223e-14 2.983332e-14 3.001894e-12) (-1.213966e-12 2.098596e-13 5.098674e-08))
686.769314    	((-1.829633e-10 -3.203455e-10 6.117366e-12) (-7.498115e-11 -2.085202e-11 2.478006e-11)) ((2.238626e-14 2.944470e-14 2.986641e-12) (-8.990291e-13 6.376344e-14 5.045547e-08))
750.939038    	((-1.758918e-10 -3.130216e-10 -2.246564e-12) (-5.943249e-11 -2.858773e-11 2.668177e-11)) ((2.074879e-14 2.864184e-14 2.972784e-12) (-5.692356e-13 -3.529846e-15 5.003398e-08))
815.094382    	((-1.681380e-10 -3.076999e-10 1.275622e-11) (-4.913463e-11 -2.235882e-11 2.735940e-11)) ((1.788731e-14 2.769075e-14 2.959041e-12) (-2.996705e-13 -5.188630e-14 4.970324e-08))
879.237141    	((-1.560114e-10 -3.097046e-10 1.401793e-12) (-3.665753e-11 -1.757960e-11 2.500710e-11)) ((1.458786e-14 2.729065e-14 2.946999e-12) (-1.105794e-13 -1.117549e-13 4.944773e-08))
943.369093    	((-1.527090e-10 -3.077147e-10 9.399359e-13) (-2.903606e-11 -1.551272e-11 2.412465e-11)) ((1.221509e-14 2.723369e-14 2.936044e-12) (1.696463e-14 -1.776983e-13 4.925395e-08))
1007.49193    	((-1.487984e-10 -3.002965e-10 1.570064e-12) (-3.413932e-11 -1.366339e-11 2.310324e-11)) ((1.075619e-14 2.715028e-14 2.923704e-12) (1.007562e-13 -2.736151e-13 4.911080e-08))
1071.607486   	((-1.423453e-10 -2.925439e-10 6.296552e-12) (-3.505139e-11 -7.098324e-12 2.120144e-11)) ((9.711595e-15 2.718997e-14 2.911563e-12) (1.581006e-13 -3.992193e-13 4.900926e-08))
1135.717661   	((-1.301776e-10 -2.845936e-10 3.199758e-12) (-2.937479e-11 -4.252558e-12 1.850135e-11)) ((8.802585e-15 2.734222e-14 2.901310e-12) (2.108495e-13 -5.327230e-13 4.894198e-08))
1199.824195   	((-1.157935e-10 -2.763010e-10 3.366171e-12) (-2.253245e-11 -2.737625e-12 1.597400e-11)) ((8.327058e-15 2.785831e-14 2.892709e-12) (2.905833e-13 -6.384838e-13 4.890282e-08))
1263.925462   	((-1.052432e-10 -2.565089e-10 6.304300e-12) (-2.198984e-11 -1.094084e-12 1.446726e-11)) ((7.974943e-15 2.851537e-14 2.885085e-12) (3.645821e-13 -7.119975e-13 4.888657e-08))
1328.022912   	((-9.982613e-11 -2.463496e-10 7.741786e-12) (-2.340714e-11 3.292872e-12 1.393173e-11)) ((7.577160e-15 2.901835e-14 2.878292e-12) (4.161646e-13 -7.573554e-13 4.888880e-08))
1392.117932   	((-9.770336e-11 -2.404414e-10 6.953029e-12) (-2.428943e-11 5.482598e-12 1.450996e-11)) ((6.974726e-15 2.931147e-14 2.871597e-12) (4.293014e-13 -7.672689e-13 4.890576e-08))
1456.21179    	((-1.031960e-10 -2.345310e-10 8.907698e-12) (-2.466907e-11 4.388489e-12 1.496452e-11)) ((6.560178e-15 2.957688e-14 2.865771e-12) (4.244452e-13 -7.611758e-13 4.893414e-08))
1520.305668   	((-1.046735e-10 -2.262939e-10 9.023824e-12) (-2.585667e-11 6.418037e-12 1.517312e-11)) ((6.032570e-15 2.973082e-14 2.860716e-12) (4.215409e-13 -7.617302e-13 4.897125e-08))
