# Forces      
# CofR        : (0.000000e+00 0.000000e+00 0.000000e+00)
# Time        forces(pressure viscous)	moments(pressure viscous)
0             	((0.000000e+00 0.000000e+00 0.000000e+00) (-5.036577e-03 6.509107e-13 -1.553059e-13)) ((0.000000e+00 0.000000e+00 0.000000e+00) (2.998450e-16 2.015127e-14 6.947656e-14))
0.012         	((-1.475652e+00 -2.484052e-06 -2.344510e-06) (-5.948424e-03 -1.111744e-08 -1.272881e-08)) ((-2.260873e-11 8.524456e-12 1.642402e-10) (2.490823e-13 -7.666721e-11 4.841441e-11))
0.0264        	((2.459986e-01 2.569541e-06 2.271342e-05) (-5.949414e-03 -2.186760e-08 -1.415851e-08)) ((4.698593e-10 3.644568e-09 1.082269e-09) (4.358282e-12 9.435761e-10 -9.330114e-10))
0.04368       	((2.257644e-01 2.213479e-05 5.364539e-06) (-5.140552e-03 -7.077575e-09 -4.693230e-09)) ((-3.537833e-10 -2.285530e-09 -1.363045e-09) (1.358506e-11 9.565464e-10 -9.086779e-10))
0.064416      	((9.263172e-05 -1.164162e-05 -1.836350e-05) (-4.528962e-03 -3.394264e-08 -3.365114e-08)) ((1.215091e-10 -4.097589e-10 3.769603e-10) (3.727937e-11 4.968099e-10 -3.338190e-10))
0.0892992     	((1.836052e-03 -9.847992e-06 -3.558843e-06) (-4.166447e-03 -7.271154e-08 -6.197610e-08)) ((7.594325e-11 -1.957110e-10 1.866769e-10) (6.136865e-11 6.409815e-10 -3.086278e-10))
0.119159      	((1.765936e-03 -1.232033e-06 -2.835794e-06) (-3.862244e-03 -8.421697e-08 -5.584908e-08)) ((4.602189e-11 -9.053399e-11 4.183816e-11) (5.560122e-11 4.417911e-10 -9.253781e-11))
0.154991      	((-3.555595e-04 -2.697862e-06 -2.128236e-06) (-3.584705e-03 -7.029999e-08 -2.431129e-08)) ((1.497653e-11 -2.842565e-11 4.389873e-11) (1.860864e-11 3.908776e-11 8.166139e-11))
0.197989      	((-1.037083e-03 -9.347668e-07 -5.803174e-07) (-3.342281e-03 -4.583709e-08 -6.920678e-09)) ((1.371708e-11 6.308584e-11 -4.258271e-11) (-3.443718e-11 -2.554213e-10 2.363340e-10))
0.249587      	((-1.401290e-03 -6.176143e-07 -5.642556e-07) (-3.136107e-03 -5.313532e-08 -2.783639e-08)) ((8.113112e-11 6.331206e-11 -4.576410e-11) (-1.753839e-10 -2.618450e-10 -1.750885e-12))
0.311504      	((-1.630124e-03 -1.703097e-07 -1.724159e-07) (-2.956589e-03 -5.933914e-08 -4.192887e-08)) ((1.087225e-11 2.653802e-11 1.786773e-12) (-2.047720e-10 -2.807970e-10 -6.846792e-11))
0.385805      	((-1.764729e-03 1.421445e-07 -1.858657e-08) (-2.790691e-03 -4.199421e-08 -4.332769e-08)) ((1.280945e-11 -4.273069e-12 -1.427355e-11) (-1.411999e-10 -3.948049e-10 -3.840669e-11))
0.474966      	((-1.874816e-03 2.176633e-07 -9.749675e-08) (-2.630194e-03 -2.736492e-08 -5.095848e-08)) ((-2.691251e-12 1.643677e-11 -1.703302e-11) (-1.067713e-10 -6.641673e-10 1.761732e-10))
0.581959      	((-2.004015e-03 6.687664e-08 -1.357051e-07) (-2.474779e-03 -2.241702e-08 -5.113235e-08)) ((-3.996128e-12 1.552249e-11 -1.793661e-11) (-8.510694e-11 -7.457834e-10 2.801556e-10))
0.710351      	((-2.177155e-03 -1.401233e-07 -2.471298e-07) (-2.327776e-03 -3.103228e-08 -4.006697e-08)) ((7.936950e-12 1.890052e-11 -8.714983e-12) (-8.052084e-11 -4.625113e-10 9.714349e-11))
0.864421      	((-2.416471e-03 -1.210887e-07 -8.843282e-08) (-2.191961e-03 -4.366679e-08 -3.054534e-08)) ((1.004233e-11 3.823907e-11 4.474625e-12) (-6.477097e-11 -1.469860e-10 -1.318292e-10))
1.049306      	((-2.738096e-03 -3.535480e-07 -3.127567e-07) (-2.069055e-03 -3.543394e-08 -2.228091e-08)) ((7.645251e-12 4.462756e-11 -6.422707e-12) (-5.042657e-11 1.525035e-10 -2.301473e-10))
1.266513      	((-3.153807e-03 -2.782186e-08 -1.338410e-07) (-1.961662e-03 -2.226682e-08 -6.933035e-09)) ((3.753953e-12 4.871097e-11 -1.567479e-11) (-2.801556e-11 2.824277e-10 -1.850606e-10))
1.51577       	((-3.663572e-03 1.929565e-07 1.629713e-07) (-1.870482e-03 -2.552969e-08 -2.001575e-09)) ((8.768644e-14 3.635823e-11 -1.233881e-11) (1.162743e-11 4.271175e-10 -2.527315e-10))
1.796804      	((-4.264151e-03 6.982325e-07 6.768865e-07) (-1.794679e-03 -2.189066e-08 -9.233779e-09)) ((-1.165039e-13 1.980419e-11 -1.256969e-11) (5.634983e-11 6.395545e-10 -3.788619e-10))
2.109285      	((-4.940062e-03 1.043113e-06 9.816759e-07) (-1.733240e-03 -1.969163e-08 -1.510846e-08)) ((1.350433e-11 1.863944e-11 -1.497521e-11) (3.622553e-11 3.360351e-10 -8.647446e-11))
2.419596      	((-5.619701e-03 1.508853e-06 1.469415e-06) (-1.685540e-03 -3.659630e-08 -3.151654e-08)) ((2.501156e-11 1.770831e-11 -1.962799e-11) (5.080857e-11 -1.159159e-09 1.352862e-09))
2.725465      	((-6.263894e-03 2.550208e-06 2.514436e-06) (-1.646923e-03 -4.872600e-08 -4.998007e-08)) ((2.425324e-11 -9.201098e-12 -4.145748e-11) (4.777555e-11 -3.196623e-09 3.285062e-09))
3.027598      	((-6.836603e-03 4.422942e-06 4.347312e-06) (-1.615742e-03 -2.688912e-08 -3.457637e-08)) ((6.343630e-11 -3.270912e-11 -6.193125e-11) (9.774320e-11 -4.474420e-09 4.316135e-09))
3.327587      	((-7.276371e-03 5.465600e-06 5.659850e-06) (-1.589853e-03 3.862329e-08 3.211259e-08)) ((1.109586e-10 -6.068109e-11 -5.302712e-11) (1.150279e-10 -3.593223e-09 3.048548e-09))
3.626915      	((-7.565406e-03 7.002805e-06 7.196108e-06) (-1.567689e-03 1.391100e-07 1.384905e-07)) ((1.064827e-10 -5.248681e-11 -1.799040e-11) (1.189916e-10 -6.184717e-10 1.108012e-10))
3.926154      	((-7.709417e-03 8.084665e-06 8.169646e-06) (-1.547462e-03 2.245893e-07 2.277396e-07)) ((1.193038e-10 -5.083759e-11 2.862497e-11) (1.314238e-10 1.433407e-09 -1.846013e-09))
4.224971      	((-7.705651e-03 8.074427e-06 8.333306e-06) (-1.528591e-03 2.510436e-07 2.523500e-07)) ((1.254296e-10 -6.377529e-11 6.748455e-11) (1.755623e-10 9.879572e-10 -1.690672e-09))
4.522875      	((-7.566550e-03 9.519149e-06 9.816811e-06) (-1.510805e-03 2.611639e-07 2.677955e-07)) ((1.375429e-10 -1.043008e-10 7.768906e-11) (1.540777e-10 -3.355493e-10 -5.021388e-10))
4.81958       	((-7.401902e-03 1.057754e-05 1.108443e-05) (-1.493888e-03 2.866971e-07 3.011091e-07)) ((1.034324e-10 -1.124679e-10 5.250272e-11) (2.024316e-10 -1.401671e-09 5.476343e-10))
5.115054      	((-7.277534e-03 1.201353e-05 1.265483e-05) (-1.478877e-03 3.599177e-07 3.710081e-07)) ((5.614310e-11 -1.035962e-10 2.045583e-11) (2.231838e-10 -1.198534e-09 1.515534e-10))
5.409526      	((-7.213316e-03 1.379836e-05 1.466728e-05) (-1.467189e-03 4.550145e-07 4.655424e-07)) ((4.058596e-11 -9.231328e-11 7.966297e-12) (1.061789e-10 -9.065809e-10 -6.113303e-10))
5.703166      	((-7.188225e-03 1.608971e-05 1.735433e-05) (-1.458175e-03 5.481236e-07 5.569044e-07)) ((4.103089e-11 -8.309947e-11 -5.877111e-12) (9.959450e-11 -1.083110e-09 -6.139578e-10))
5.995993      	((-7.159900e-03 1.811461e-05 1.964425e-05) (-1.450256e-03 6.301406e-07 6.572331e-07)) ((4.364901e-11 -9.180870e-11 -4.332367e-11) (2.600996e-10 -1.158773e-09 1.360432e-10))
6.287988      	((-7.118099e-03 2.012038e-05 2.140643e-05) (-1.442355e-03 7.110610e-07 7.497322e-07)) ((9.600421e-11 -1.376008e-10 -5.157068e-11) (1.910638e-10 -1.857509e-09 9.424637e-10))
6.579153      	((-7.049628e-03 2.163406e-05 2.335504e-05) (-1.433870e-03 7.829698e-07 8.201823e-07)) ((1.159138e-10 -1.298028e-10 -4.173775e-11) (2.224704e-10 -3.213562e-09 2.000428e-09))
6.869536      	((-6.968894e-03 2.373967e-05 2.582347e-05) (-1.425026e-03 8.324490e-07 8.799440e-07)) ((1.193497e-10 -1.289271e-10 -4.608745e-11) (3.460872e-10 -5.495069e-09 4.098239e-09))
7.159199      	((-6.897968e-03 2.631550e-05 2.808308e-05) (-1.416786e-03 8.843103e-07 9.406792e-07)) ((1.353073e-10 -1.488165e-10 -5.363322e-11) (4.333771e-10 -8.590873e-09 7.323630e-09))
7.448217      	((-6.827313e-03 2.917478e-05 3.113661e-05) (-1.409556e-03 9.500765e-07 1.009825e-06)) ((1.452062e-10 -1.776849e-10 -6.255039e-11) (4.188664e-10 -1.213746e-08 1.091389e-08))
7.736709      	((-6.752395e-03 3.280961e-05 3.548513e-05) (-1.402888e-03 1.032469e-06 1.103341e-06)) ((1.649769e-10 -2.179369e-10 -7.913919e-11) (3.409586e-10 -1.573561e-08 1.405679e-08))
8.024797      	((-6.702440e-03 3.603623e-05 3.866329e-05) (-1.396555e-03 1.126704e-06 1.202521e-06)) ((1.836484e-10 -2.303441e-10 -9.666279e-11) (3.865982e-10 -1.898065e-08 1.681895e-08))
8.312536      	((-6.667352e-03 4.008600e-05 4.259284e-05) (-1.390582e-03 1.239870e-06 1.311836e-06)) ((1.923518e-10 -2.421945e-10 -1.063977e-10) (6.019101e-10 -2.212503e-08 1.912485e-08))
8.599932      	((-6.643751e-03 4.431297e-05 4.571562e-05) (-1.385037e-03 1.366690e-06 1.438727e-06)) ((1.869947e-10 -2.448163e-10 -1.012393e-10) (5.716668e-10 -2.412161e-08 2.089883e-08))
8.886979      	((-6.626849e-03 4.867478e-05 5.007293e-05) (-1.380064e-03 1.498999e-06 1.579271e-06)) ((1.698759e-10 -2.512968e-10 -8.879252e-11) (4.299632e-10 -2.484014e-08 2.276379e-08))
9.173685      	((-6.605717e-03 5.257935e-05 5.555660e-05) (-1.375597e-03 1.649638e-06 1.743602e-06)) ((1.473764e-10 -2.640448e-10 -9.325724e-11) (5.124852e-10 -2.627527e-08 2.492986e-08))
9.460056      	((-6.577002e-03 5.792286e-05 6.150022e-05) (-1.371286e-03 1.824111e-06 1.927832e-06)) ((1.234829e-10 -2.967744e-10 -7.765242e-11) (9.659159e-10 -2.982369e-08 2.817417e-08))
9.746108      	((-6.541984e-03 6.391609e-05 6.758839e-05) (-1.366880e-03 2.010608e-06 2.120574e-06)) ((8.978891e-11 -3.307738e-10 -7.596561e-11) (1.326484e-09 -3.493737e-08 3.223709e-08))
10.03186      	((-6.504190e-03 7.030718e-05 7.524138e-05) (-1.362430e-03 2.209829e-06 2.344353e-06)) ((4.965164e-11 -3.598572e-10 -7.721014e-11) (1.480074e-09 -3.977728e-08 3.673217e-08))
10.317326     	((-6.470164e-03 7.576731e-05 8.289105e-05) (-1.358091e-03 2.412718e-06 2.605104e-06)) ((2.678187e-11 -3.633706e-10 -9.096277e-11) (1.566625e-09 -4.410308e-08 4.157276e-08))
10.60252      	((-6.441913e-03 8.267636e-05 9.208296e-05) (-1.353996e-03 2.634789e-06 2.901306e-06)) ((1.312332e-11 -3.978843e-10 -1.092505e-10) (1.377576e-09 -4.847504e-08 4.633657e-08))
10.887445     	((-6.418491e-03 8.860701e-05 9.921707e-05) (-1.350169e-03 2.874664e-06 3.206746e-06)) ((-6.642124e-12 -4.187159e-10 -1.264476e-10) (9.890820e-10 -5.328081e-08 5.109519e-08))
11.172106     	((-6.399182e-03 9.675503e-05 1.089064e-04) (-1.346572e-03 3.140873e-06 3.520830e-06)) ((-2.596396e-11 -4.864336e-10 -1.414404e-10) (6.143158e-10 -5.883081e-08 5.620142e-08))
11.45651      	((-6.381419e-03 1.057674e-04 1.185309e-04) (-1.343135e-03 3.431605e-06 3.850682e-06)) ((-6.474849e-11 -5.499392e-10 -1.585980e-10) (3.038895e-10 -6.508708e-08 6.211081e-08))
11.740662     	((-6.361425e-03 1.160187e-04 1.301950e-04) (-1.339763e-03 3.746808e-06 4.216636e-06)) ((-9.857372e-11 -6.339321e-10 -1.690977e-10) (-3.504213e-11 -7.201452e-08 6.939367e-08))
12.024563     	((-6.341188e-03 1.280402e-04 1.443515e-04) (-1.336427e-03 4.092413e-06 4.634551e-06)) ((-1.380826e-10 -7.242800e-10 -1.674892e-10) (-1.525913e-10 -7.992478e-08 7.814060e-08))
12.308215     	((-6.319426e-03 1.413880e-04 1.593632e-04) (-1.333146e-03 4.482391e-06 5.108772e-06)) ((-1.709513e-10 -8.050461e-10 -1.575145e-10) (3.525356e-11 -8.830564e-08 8.750489e-08))
12.591625     	((-6.296135e-03 1.555664e-04 1.743443e-04) (-1.329936e-03 4.926912e-06 5.626772e-06)) ((-1.988948e-10 -8.572410e-10 -1.413442e-10) (3.017365e-10 -9.711250e-08 9.699403e-08))
12.874803     	((-6.276349e-03 1.703510e-04 1.914763e-04) (-1.326868e-03 5.414221e-06 6.179624e-06)) ((-2.209353e-10 -9.085164e-10 -1.382705e-10) (7.830334e-10 -1.056192e-07 1.063313e-07))
13.157721     	((-6.256480e-03 1.873817e-04 2.096924e-04) (-1.323956e-03 5.945594e-06 6.777481e-06)) ((-2.500954e-10 -9.502949e-10 -1.366013e-10) (1.705713e-09 -1.135252e-07 1.156053e-07))
13.440384     	((-6.236966e-03 2.065666e-04 2.291552e-04) (-1.321161e-03 6.535660e-06 7.449910e-06)) ((-2.854883e-10 -9.899422e-10 -1.248091e-10) (2.824140e-09 -1.200759e-07 1.247349e-07))
13.722796     	((-6.219022e-03 2.257948e-04 2.510742e-04) (-1.318449e-03 7.190088e-06 8.219040e-06)) ((-3.141001e-10 -1.083290e-09 -1.122354e-10) (3.806034e-09 -1.265598e-07 1.327176e-07))
14.00496      	((-6.199716e-03 2.460507e-04 2.754569e-04) (-1.315764e-03 7.916266e-06 9.076608e-06)) ((-3.192310e-10 -1.205907e-09 -1.023266e-10) (4.731496e-09 -1.354009e-07 1.392514e-07))
14.286881     	((-6.181493e-03 2.681981e-04 3.014578e-04) (-1.313102e-03 8.721379e-06 1.000800e-05)) ((-3.063753e-10 -1.317473e-09 -1.051547e-10) (5.361744e-09 -1.468399e-07 1.452291e-07))
14.568563     	((-6.165721e-03 2.930002e-04 3.292878e-04) (-1.310494e-03 9.621381e-06 1.100412e-05)) ((-2.856301e-10 -1.426765e-09 -1.147170e-10) (5.423676e-09 -1.605380e-07 1.513315e-07))
14.850013     	((-6.152399e-03 3.195674e-04 3.591766e-04) (-1.307970e-03 1.061279e-05 1.206785e-05)) ((-2.581157e-10 -1.550662e-09 -1.269570e-10) (4.923728e-09 -1.761763e-07 1.589132e-07))
15.13124      	((-6.139430e-03 3.476538e-04 3.911991e-04) (-1.305533e-03 1.167865e-05 1.321662e-05)) ((-2.311772e-10 -1.696923e-09 -1.390929e-10) (3.890872e-09 -1.928701e-07 1.686243e-07))
15.412251     	((-6.128443e-03 3.781229e-04 4.253423e-04) (-1.303200e-03 1.281765e-05 1.445260e-05)) ((-1.891470e-10 -1.861806e-09 -1.535930e-10) (2.658309e-09 -2.101806e-07 1.802318e-07))
15.693057     	((-6.116855e-03 4.119880e-04 4.640922e-04) (-1.300964e-03 1.404424e-05 1.579568e-05)) ((-1.461528e-10 -2.051326e-09 -1.752927e-10) (1.742520e-09 -2.285023e-07 1.938717e-07))
15.973667     	((-6.105517e-03 4.498137e-04 5.073784e-04) (-1.298803e-03 1.538514e-05 1.728361e-05)) ((-1.147949e-10 -2.263646e-09 -1.954821e-10) (1.269493e-09 -2.479331e-07 2.096695e-07))
16.254084     	((-6.094436e-03 4.919235e-04 5.554117e-04) (-1.296700e-03 1.687476e-05 1.895275e-05)) ((-8.906262e-11 -2.504348e-09 -2.127702e-10) (9.786095e-10 -2.681927e-07 2.268118e-07))
16.534311     	((-6.084332e-03 5.389070e-04 6.089360e-04) (-1.294647e-03 1.854576e-05 2.084010e-05)) ((-4.478576e-11 -2.783102e-09 -2.259854e-10) (6.816865e-10 -2.889426e-07 2.446749e-07))
16.81435      	((-6.074331e-03 5.906101e-04 6.675191e-04) (-1.292631e-03 2.041102e-05 2.294808e-05)) ((2.052380e-11 -3.100342e-09 -2.458350e-10) (4.574111e-10 -3.115678e-07 2.636909e-07))
17.094209     	((-6.064711e-03 6.480075e-04 7.318915e-04) (-1.290646e-03 2.246300e-05 2.525344e-05)) ((1.183916e-10 -3.444524e-09 -2.674406e-10) (4.794950e-10 -3.381095e-07 2.853268e-07))
17.373892     	((-6.057115e-03 7.109381e-04 8.024450e-04) (-1.288716e-03 2.469231e-05 2.774692e-05)) ((2.460749e-10 -3.810364e-09 -2.904693e-10) (5.440122e-10 -3.695578e-07 3.107029e-07))
17.653399     	((-6.051965e-03 7.798629e-04 8.794112e-04) (-1.286866e-03 2.711841e-05 3.045033e-05)) ((3.966956e-10 -4.185534e-09 -3.114385e-10) (5.343401e-10 -4.058786e-07 3.399121e-07))
17.932728     	((-6.047058e-03 8.538618e-04 9.621193e-04) (-1.285088e-03 2.978183e-05 3.340311e-05)) ((5.624798e-10 -4.579270e-09 -3.301972e-10) (4.582465e-10 -4.456231e-07 3.715475e-07))
18.211878     	((-6.046791e-03 9.338136e-04 1.052435e-03) (-1.283421e-03 3.271224e-05 3.665470e-05)) ((7.347343e-10 -4.981752e-09 -3.493073e-10) (4.568100e-11 -4.870965e-07 4.041989e-07))
18.490844     	((-6.050163e-03 1.021275e-03 1.150254e-03) (-1.281879e-03 3.593276e-05 4.023158e-05)) ((9.192289e-10 -5.404839e-09 -3.701806e-10) (-9.262943e-10 -5.303948e-07 4.384863e-07))
18.76965      	((-6.057859e-03 1.117584e-03 1.258420e-03) (-1.280472e-03 3.948740e-05 4.417090e-05)) ((1.128180e-09 -5.881318e-09 -3.873873e-10) (-2.097745e-09 -5.758088e-07 4.751159e-07))
19.04827      	((-6.069463e-03 1.222908e-03 1.376190e-03) (-1.279254e-03 4.341268e-05 4.851424e-05)) ((1.381891e-09 -6.412501e-09 -3.950798e-10) (-2.884479e-09 -6.229243e-07 5.145665e-07))
19.326557     	((-6.087091e-03 1.336296e-03 1.501988e-03) (-1.278295e-03 4.772936e-05 5.329764e-05)) ((1.686659e-09 -6.964111e-09 -4.013789e-10) (-2.729067e-09 -6.700479e-07 5.564551e-07))
19.604505     	((-6.110717e-03 1.458917e-03 1.636502e-03) (-1.277697e-03 5.242642e-05 5.851620e-05)) ((2.050615e-09 -7.546746e-09 -4.069562e-10) (-1.705331e-09 -7.157622e-07 6.001360e-07))
19.882209     	((-6.140547e-03 1.590180e-03 1.781448e-03) (-1.277584e-03 5.753834e-05 6.421598e-05)) ((2.486394e-09 -8.200472e-09 -3.954161e-10) (-3.214238e-10 -7.580630e-07 6.424345e-07))
20.159808     	((-6.178842e-03 1.730478e-03 1.938048e-03) (-1.277902e-03 6.309467e-05 7.042790e-05)) ((2.971331e-09 -8.931209e-09 -3.620928e-10) (7.110236e-10 -8.009264e-07 6.855600e-07))
20.437335     	((-6.224739e-03 1.883399e-03 2.109510e-03) (-1.278500e-03 6.908242e-05 7.713961e-05)) ((3.536190e-09 -9.739196e-09 -3.318504e-10) (1.194227e-09 -8.520889e-07 7.367864e-07))
20.714777     	((-6.281522e-03 2.049851e-03 2.296657e-03) (-1.279376e-03 7.552233e-05 8.437764e-05)) ((4.213366e-09 -1.064914e-08 -2.936875e-10) (1.529558e-09 -9.153171e-07 7.996163e-07))
20.99214      	((-6.349581e-03 2.230812e-03 2.501718e-03) (-1.280716e-03 8.249611e-05 9.226641e-05)) ((5.032279e-09 -1.164346e-08 -2.496181e-10) (1.456018e-09 -9.889733e-07 8.716791e-07))
21.269415     	((-6.430850e-03 2.427378e-03 2.722751e-03) (-1.282716e-03 9.011834e-05 1.009208e-04)) ((6.016702e-09 -1.271711e-08 -1.847964e-10) (1.372545e-09 -1.067817e-06 9.484929e-07))
21.546577     	((-6.524815e-03 2.636634e-03 2.958284e-03) (-1.285500e-03 9.843441e-05 1.103653e-04)) ((7.125799e-09 -1.379832e-08 -1.113894e-10) (1.264620e-09 -1.147358e-06 1.026401e-06))
21.823613     	((-6.635972e-03 2.858504e-03 3.206589e-03) (-1.289270e-03 1.074700e-04 1.206063e-04)) ((8.354591e-09 -1.482474e-08 -9.299187e-11) (1.133887e-09 -1.222555e-06 1.100219e-06))
22.100511     	((-6.763874e-03 3.093558e-03 3.470461e-03) (-1.293950e-03 1.172151e-04 1.316610e-04)) ((9.725017e-09 -1.584794e-08 -1.030044e-10) (3.259775e-10 -1.295671e-06 1.173133e-06))
22.377223     	((-6.915318e-03 3.341988e-03 3.745975e-03) (-1.299384e-03 1.276792e-04 1.434886e-04)) ((1.122472e-08 -1.683584e-08 -9.958639e-11) (-7.640465e-10 -1.376079e-06 1.253133e-06))
22.653799     	((-7.087901e-03 3.598058e-03 4.029293e-03) (-1.305667e-03 1.388155e-04 1.560044e-04)) ((1.276098e-08 -1.776943e-08 -5.138444e-12) (-1.618461e-09 -1.466672e-06 1.340739e-06))
22.930212     	((-7.283029e-03 3.861178e-03 4.319603e-03) (-1.312980e-03 1.505898e-04 1.691743e-04)) ((1.432678e-08 -1.861274e-08 1.830017e-10) (-2.243581e-09 -1.561776e-06 1.430478e-06))
23.206508     	((-7.505935e-03 4.133073e-03 4.617969e-03) (-1.321479e-03 1.630279e-04 1.830711e-04)) ((1.594556e-08 -1.941651e-08 4.305368e-10) (-2.982881e-09 -1.653776e-06 1.517647e-06))
23.482751     	((-7.755493e-03 4.405775e-03 4.918460e-03) (-1.331335e-03 1.761762e-04 1.977691e-04)) ((1.763465e-08 -2.002374e-08 6.852590e-10) (-4.253707e-09 -1.735530e-06 1.596195e-06))
23.758945     	((-8.030439e-03 4.672617e-03 5.210904e-03) (-1.342725e-03 1.898688e-04 2.130549e-04)) ((1.940105e-08 -2.035588e-08 1.009388e-09) (-6.035037e-09 -1.806640e-06 1.665317e-06))
24.035083     	((-8.334029e-03 4.932361e-03 5.496012e-03) (-1.355752e-03 2.039497e-04 2.287299e-04)) ((2.112786e-08 -2.046799e-08 1.421434e-09) (-6.946177e-09 -1.869551e-06 1.726378e-06))
24.311163     	((-8.664625e-03 5.176954e-03 5.767265e-03) (-1.370567e-03 2.181933e-04 2.445494e-04)) ((2.277059e-08 -2.033014e-08 1.904391e-09) (-6.316083e-09 -1.929330e-06 1.782033e-06))
24.587214     	((-9.016941e-03 5.399904e-03 6.010045e-03) (-1.387235e-03 2.323380e-04 2.602473e-04)) ((2.425364e-08 -1.987348e-08 2.505505e-09) (-4.843460e-09 -1.981270e-06 1.830649e-06))
24.863257     	((-9.374419e-03 5.587334e-03 6.216419e-03) (-1.405518e-03 2.461401e-04 2.756148e-04)) ((2.555120e-08 -1.917198e-08 3.297469e-09) (-4.370293e-09 -2.016475e-06 1.867672e-06))
25.139315     	((-9.724091e-03 5.729682e-03 6.369618e-03) (-1.424876e-03 2.594371e-04 2.904108e-04)) ((2.648058e-08 -1.818671e-08 4.203829e-09) (-4.394038e-09 -2.026244e-06 1.882060e-06))
25.415414     	((-1.004609e-02 5.811505e-03 6.453305e-03) (-1.444683e-03 2.719253e-04 3.041134e-04)) ((2.688567e-08 -1.693014e-08 5.125124e-09) (-3.495694e-09 -2.009682e-06 1.866544e-06))
25.69158      	((-1.032170e-02 5.822889e-03 6.457896e-03) (-1.464213e-03 2.829739e-04 3.160919e-04)) ((2.679039e-08 -1.526945e-08 6.064730e-09) (-2.679897e-09 -1.967475e-06 1.825138e-06))
25.967852     	((-1.052899e-02 5.748816e-03 6.369822e-03) (-1.482772e-03 2.919668e-04 3.258177e-04)) ((2.613701e-08 -1.312250e-08 7.018617e-09) (-2.453900e-09 -1.888647e-06 1.752247e-06))
26.244316     	((-1.064223e-02 5.582413e-03 6.182935e-03) (-1.499676e-03 2.982911e-04 3.326852e-04)) ((2.490584e-08 -1.056651e-08 7.891649e-09) (-2.145434e-09 -1.765811e-06 1.639874e-06))
26.521224     	((-1.065089e-02 5.302639e-03 5.872111e-03) (-1.513987e-03 3.013645e-04 3.360528e-04)) ((2.296483e-08 -7.580720e-09 8.668385e-09) (2.230701e-09 -1.595430e-06 1.485683e-06))
26.798784     	((-1.052496e-02 4.896426e-03 5.420518e-03) (-1.524732e-03 3.001842e-04 3.347889e-04)) ((2.011346e-08 -4.434780e-09 9.503316e-09) (8.726613e-09 -1.390298e-06 1.302883e-06))
27.077186     	((-1.026365e-02 4.355845e-03 4.822490e-03) (-1.531025e-03 2.934132e-04 3.274538e-04)) ((1.641569e-08 -1.298794e-09 1.034584e-08) (1.574248e-08 -1.179816e-06 1.118921e-06))
27.35662      	((-9.879639e-03 3.676946e-03 4.070605e-03) (-1.532276e-03 2.798263e-04 3.126099e-04)) ((1.209982e-08 2.156472e-09 1.080417e-08) (2.551553e-08 -9.903064e-07 9.560955e-07))
27.636931     	((-9.427748e-03 2.856844e-03 3.164748e-03) (-1.528708e-03 2.587364e-04 2.895042e-04)) ((7.497699e-09 5.999704e-09 1.083946e-08) (3.567648e-08 -8.313745e-07 8.226484e-07))
27.918172     	((-8.952989e-03 1.927583e-03 2.134989e-03) (-1.521579e-03 2.303300e-04 2.583794e-04)) ((2.609221e-09 1.004143e-08 1.036941e-08) (4.154193e-08 -6.841056e-07 7.042264e-07))
28.200664     	((-8.560321e-03 9.255909e-04 1.022056e-03) (-1.512809e-03 1.951265e-04 2.199317e-04)) ((-2.122823e-09 1.615297e-08 8.395476e-09) (4.691906e-08 -5.356382e-07 5.945364e-07))
28.483891     	((-8.299546e-03 -7.033281e-05 -8.329950e-05) (-1.504926e-03 1.550392e-04 1.760320e-04)) ((-6.000545e-09 2.526467e-08 5.263869e-09) (5.319950e-08 -3.779794e-07 4.753322e-07))
