# Forces      
# CofR        : (0.000000e+00 0.000000e+00 0.000000e+00)
# Time        forces(pressure viscous)	moments(pressure viscous)
0             	((0.000000e+00 0.000000e+00 0.000000e+00) (0.000000e+00 0.000000e+00 0.000000e+00)) ((0.000000e+00 0.000000e+00 0.000000e+00) (0.000000e+00 0.000000e+00 0.000000e+00))
0.012         	((-1.750158e-11 2.254533e-11 -4.435839e-11) (2.525335e-14 4.253959e-14 2.919718e-13)) ((2.004309e-10 -1.913199e-14 -3.917257e-16) (1.397255e-07 1.531027e-14 -6.419756e-15))
0.0264        	((2.006558e-11 3.945326e-11 -8.007990e-11) (-2.093627e-13 -3.299032e-13 2.544578e-13)) ((9.890961e-11 -1.501499e-14 3.877946e-15) (1.279801e-07 2.639933e-14 -6.321508e-15))
0.04368       	((-8.790705e-11 -5.914380e-11 -9.356962e-11) (1.720451e-13 -1.013708e-12 8.758611e-14)) ((5.464433e-11 -1.250330e-14 4.339988e-15) (1.159100e-07 1.465982e-14 1.101218e-14))
0.064416      	((3.183074e-11 -3.048979e-12 -2.114818e-11) (1.353840e-12 -1.514282e-12 -1.715791e-13)) ((3.063156e-11 -8.428408e-15 -1.599596e-15) (1.037787e-07 -1.460998e-14 2.881958e-14))
0.0892992     	((-1.366598e-11 -1.643318e-11 -5.264325e-12) (2.597033e-12 -1.683331e-12 -5.330242e-13)) ((2.302927e-11 -8.213761e-15 1.131301e-15) (9.194002e-08 -4.323447e-14 3.885826e-14))
0.119159      	((-1.032364e-11 -2.780570e-11 -7.050276e-11) (3.354163e-12 -1.558765e-12 -8.495487e-13)) ((1.647458e-11 -5.854064e-15 -2.246229e-16) (8.075951e-08 -5.929278e-14 4.166739e-14))
0.154991      	((1.801091e-11 3.418052e-11 2.037695e-11) (3.681300e-12 -1.350579e-12 -9.562046e-13)) ((1.306986e-11 -4.615767e-15 -4.690254e-16) (7.049494e-08 -6.431125e-14 3.662616e-14))
0.197989      	((1.935872e-11 4.529716e-12 -2.105574e-11) (3.934805e-12 -1.119250e-12 -9.635150e-13)) ((1.039293e-11 -2.061976e-15 -4.202649e-16) (6.139538e-08 -6.361853e-14 3.014010e-14))
0.249587      	((9.869731e-12 7.091527e-12 -2.082603e-11) (3.776361e-12 -1.037784e-12 -9.828663e-13)) ((8.605695e-12 -1.306410e-15 -9.355618e-16) (5.359428e-08 -5.971230e-14 2.712510e-14))
0.311504      	((1.041743e-11 1.867821e-11 -2.670472e-11) (3.384379e-12 -1.103726e-12 -8.037635e-13)) ((7.189902e-12 -1.784139e-15 -2.530585e-16) (4.707226e-08 -5.420741e-14 2.801382e-14))
0.385805      	((-9.043764e-12 2.346870e-11 -3.486380e-11) (3.120947e-12 -1.026545e-12 -6.852529e-13)) ((6.189789e-12 -1.880560e-15 6.394006e-16) (4.168911e-08 -5.480350e-14 2.705069e-14))
0.474966      	((-4.114742e-12 3.143369e-11 -3.517762e-11) (2.736130e-12 -6.823542e-13 -1.224196e-12)) ((5.531435e-12 -1.086965e-15 9.520488e-16) (3.723373e-08 -7.081731e-14 2.505272e-14))
0.581959      	((2.109366e-11 4.641391e-11 -1.113785e-11) (2.546139e-12 5.274891e-14 -1.754920e-12)) ((4.958167e-12 -1.383981e-15 1.551273e-15) (3.348716e-08 -8.894139e-14 3.089317e-14))
0.710351      	((2.073840e-11 5.396744e-11 -4.189420e-11) (2.119927e-12 1.100393e-13 -1.679175e-12)) ((4.383992e-12 -1.745942e-15 1.893199e-15) (3.026837e-08 -9.696814e-14 4.672243e-14))
0.864421      	((2.650814e-11 6.697784e-11 -2.330377e-11) (1.094608e-12 -7.933618e-13 -1.116263e-12)) ((3.996196e-12 -2.806379e-15 2.248536e-15) (2.744877e-08 -8.990666e-14 6.866462e-14))
1.049306      	((1.686516e-11 6.874707e-11 -4.329513e-11) (6.119843e-13 -1.514474e-12 -5.737244e-13)) ((3.740429e-12 -3.074052e-15 2.072120e-15) (2.494292e-08 -6.897070e-14 7.916055e-14))
1.271167      	((-8.716529e-12 8.793762e-11 -5.374788e-11) (5.428956e-13 -2.245816e-12 1.140187e-13)) ((3.485819e-12 -2.531219e-15 1.724141e-15) (2.269352e-08 -4.146528e-14 9.877054e-14))
1.5374        	((-9.719055e-12 8.207606e-11 -7.491214e-11) (3.987835e-13 -3.522087e-12 1.424152e-12)) ((3.193054e-12 -6.757465e-16 1.277600e-15) (2.066324e-08 -2.109074e-14 1.639346e-13))
1.85688       	((8.489428e-12 8.369193e-11 -7.207142e-11) (-8.814177e-13 -6.202980e-12 3.629367e-12)) ((2.932352e-12 -1.532048e-17 6.340563e-16) (1.883179e-08 3.653746e-14 2.437631e-13))
2.240256      	((-7.371108e-13 9.145868e-11 -6.813686e-11) (-5.929099e-13 -1.013069e-11 7.699560e-12)) ((2.769872e-12 1.085438e-15 -4.233689e-16) (1.718875e-08 1.304584e-13 3.495116e-13))
2.700307      	((5.003538e-12 8.092443e-11 -5.603541e-11) (2.145368e-13 -1.618201e-11 1.400093e-11)) ((2.656610e-12 1.539145e-15 -1.006335e-15) (1.572672e-08 2.405345e-13 5.272366e-13))
3.252369      	((-1.438607e-12 5.520294e-11 -5.650629e-11) (-1.044212e-12 -2.503355e-11 2.113452e-11)) ((2.546302e-12 2.431893e-15 -1.675479e-15) (1.443556e-08 3.887500e-13 7.123106e-13))
3.914842      	((4.697494e-12 2.379474e-11 -3.699809e-11) (-1.623915e-12 -3.309630e-11 2.793506e-11)) ((2.419390e-12 2.052480e-15 -1.220579e-15) (1.329989e-08 5.115468e-13 8.379128e-13))
4.709811      	((-1.261352e-12 8.589907e-12 -1.086585e-11) (-3.053609e-13 -4.040531e-11 3.526607e-11)) ((2.272874e-12 2.052537e-15 -6.260891e-16) (1.229865e-08 6.019052e-13 9.104982e-13))
5.663773      	((2.499615e-12 1.708542e-12 1.061965e-11) (3.844990e-13 -4.587152e-11 4.107404e-11)) ((2.110694e-12 2.071860e-15 -3.623681e-16) (1.140831e-08 6.747661e-13 9.296470e-13))
6.808528      	((7.833550e-12 -8.540688e-12 1.936384e-11) (-2.831126e-13 -4.665774e-11 4.245490e-11)) ((1.947133e-12 2.185739e-15 -9.314368e-16) (1.060806e-08 6.660574e-13 9.194626e-13))
8.182233      	((2.826565e-12 -1.507892e-11 2.692818e-11) (-1.515872e-12 -4.391962e-11 4.009314e-11)) ((1.788288e-12 1.689411e-15 -1.113135e-15) (9.881379e-09 5.911746e-13 8.439574e-13))
9.83068       	((6.083443e-12 -1.764980e-11 1.987681e-11) (-4.298675e-12 -3.736072e-11 3.409478e-11)) ((1.629060e-12 1.746732e-15 -1.691996e-15) (9.216160e-09 4.895521e-13 6.850255e-13))
11.808816     	((2.662373e-12 4.783742e-12 1.025243e-11) (-6.674873e-12 -2.840474e-11 2.692689e-11)) ((1.485257e-12 1.514903e-15 -2.138077e-15) (8.604021e-09 4.124957e-13 4.904763e-13))
14.182579     	((1.935785e-12 1.593509e-12 -7.398518e-12) (-8.538344e-12 -2.008066e-11 2.021949e-11)) ((1.350591e-12 1.383838e-15 -2.343394e-15) (8.039891e-09 3.470296e-13 3.020773e-13))
17.031095     	((6.210043e-12 4.673966e-12 -1.729953e-12) (-7.876454e-12 -1.406547e-11 1.423799e-11)) ((1.237417e-12 7.356498e-16 -2.323641e-15) (7.521104e-09 2.621997e-13 1.644134e-13))
20.449314     	((5.675502e-12 7.364688e-12 -5.969541e-12) (-5.912324e-12 -9.711607e-12 9.693920e-12)) ((1.136339e-12 4.648482e-16 -2.234982e-15) (7.045835e-09 1.728494e-13 9.679847e-14))
24.551176     	((6.960203e-13 1.021562e-11 -5.757659e-12) (-4.345769e-12 -6.986352e-12 6.926832e-12)) ((1.047367e-12 3.749981e-16 -2.231421e-15) (6.611481e-09 1.093835e-13 6.237934e-14))
29.473411     	((3.873864e-12 1.370415e-11 2.253651e-13) (-2.797418e-12 -5.110754e-12 5.657063e-12)) ((9.718806e-13 1.164465e-16 -2.042015e-15) (6.215320e-09 7.997358e-14 4.915033e-14))
35.380094     	((3.009357e-12 1.440517e-11 -5.274718e-12) (-1.615432e-12 -4.028873e-12 4.909188e-12)) ((9.049665e-13 -4.147315e-17 -1.802594e-15) (5.854127e-09 6.204949e-14 5.455510e-14))
42.468112     	((7.946276e-13 8.408556e-12 -4.740349e-12) (-1.811668e-12 -4.113285e-12 4.747966e-12)) ((8.459602e-13 -4.260692e-17 -1.635264e-15) (5.524805e-09 4.775078e-14 6.984595e-14))
50.973735     	((2.727572e-12 9.891540e-12 -2.840188e-12) (-1.535525e-12 -4.408380e-12 5.301706e-12)) ((7.930191e-13 -1.637244e-16 -1.462506e-15) (5.224694e-09 4.140893e-14 8.680047e-14))
61.180482     	((2.472108e-13 5.906054e-12 -5.061469e-12) (-1.182445e-12 -5.079714e-12 5.944422e-12)) ((7.456789e-13 -2.922879e-16 -1.314645e-15) (4.951406e-09 5.032520e-14 9.931732e-14))
73.428578     	((2.644718e-12 7.423491e-12 2.911236e-13) (-8.201659e-13 -5.568990e-12 6.512962e-12)) ((7.041368e-13 -4.093664e-16 -1.174792e-15) (4.703006e-09 7.007624e-14 1.092688e-13))
88.126294     	((3.354848e-12 5.906515e-12 1.461256e-12) (-1.016498e-12 -5.865180e-12 7.107169e-12)) ((6.667587e-13 -4.627614e-16 -1.055178e-15) (4.477718e-09 8.457091e-14 1.212100e-13))
105.763553    	((4.346595e-12 4.280696e-12 3.961946e-12) (-1.714620e-12 -5.892619e-12 7.558794e-12)) ((6.325313e-13 -4.993580e-16 -9.271289e-16) (4.273821e-09 9.207859e-14 1.291498e-13))
126.928263    	((4.294519e-12 2.739192e-12 3.318793e-12) (-2.211786e-12 -5.844355e-12 7.436234e-12)) ((6.019319e-13 -4.552611e-16 -8.694365e-16) (4.089477e-09 9.458091e-14 1.309952e-13))
152.325916    	((3.520538e-12 1.695867e-12 3.132525e-12) (-3.376564e-12 -5.664292e-12 6.924783e-12)) ((5.747282e-13 -3.554771e-16 -8.741222e-16) (3.922707e-09 9.228234e-14 1.302843e-13))
182.803099    	((2.315252e-12 1.316005e-13 2.837093e-12) (-3.943345e-12 -5.403890e-12 6.468521e-12)) ((5.494060e-13 -2.999702e-16 -8.630103e-16) (3.771488e-09 8.868678e-14 1.306826e-13))
219.375719    	((1.961292e-12 -4.347819e-13 2.765076e-12) (-3.675080e-12 -5.340058e-12 6.311800e-12)) ((5.263732e-13 -2.404459e-16 -8.475657e-16) (3.634120e-09 9.210944e-14 1.325793e-13))
263.262863    	((1.839126e-12 1.667440e-13 2.993046e-12) (-3.710713e-12 -5.467526e-12 6.480992e-12)) ((5.056032e-13 -1.975281e-16 -7.991153e-16) (3.509259e-09 9.511849e-14 1.336905e-13))
315.927436    	((1.760595e-12 -5.423653e-13 2.770382e-12) (-3.144537e-12 -5.744740e-12 6.778442e-12)) ((4.867477e-13 -1.237090e-16 -7.507154e-16) (3.395828e-09 9.633794e-14 1.350342e-13))
379.124923    	((1.744192e-12 -2.129092e-12 2.056141e-12) (-2.134262e-12 -5.927973e-12 6.921835e-12)) ((4.695561e-13 -1.088866e-16 -6.918166e-16) (3.292886e-09 9.563287e-14 1.369905e-13))
454.961908    	((2.142209e-12 -3.111713e-12 1.511467e-12) (-1.622490e-12 -6.089909e-12 6.761083e-12)) ((4.536562e-13 -1.374700e-16 -6.311287e-16) (3.199655e-09 9.526565e-14 1.390746e-13))
545.966289    	((2.142785e-12 -3.656520e-12 1.246010e-12) (-1.201858e-12 -6.004173e-12 6.333220e-12)) ((4.389505e-13 -1.559767e-16 -5.882099e-16) (3.115457e-09 9.306329e-14 1.407339e-13))
655.171547    	((2.606445e-12 -3.155338e-12 1.524931e-12) (-1.123996e-12 -5.706437e-12 5.821444e-12)) ((4.254755e-13 -1.353988e-16 -5.654177e-16) (3.039672e-09 9.136107e-14 1.376445e-13))
786.217856    	((1.313610e-12 -2.957767e-12 2.032565e-12) (-1.201217e-12 -5.403095e-12 5.352018e-12)) ((4.130211e-13 -1.213653e-16 -5.346314e-16) (2.971702e-09 8.638166e-14 1.349986e-13))
943.473427    	((9.230121e-13 -2.903795e-12 2.242141e-12) (-1.266590e-12 -5.137524e-12 4.952810e-12)) ((4.020577e-13 -1.657113e-16 -4.695412e-16) (2.911025e-09 8.390479e-14 1.294151e-13))
1132.180113   	((4.036738e-13 -2.969921e-12 2.194660e-12) (-1.437447e-12 -4.872188e-12 4.674511e-12)) ((3.927178e-13 -1.725206e-16 -4.197313e-16) (2.857092e-09 8.039050e-14 1.238660e-13))
1358.628135   	((1.047267e-12 -3.240278e-12 1.933213e-12) (-1.664852e-12 -4.653787e-12 4.514448e-12)) ((3.844704e-13 -1.785113e-16 -3.798438e-16) (2.809393e-09 7.618084e-14 1.190593e-13))
1630.365763   	((6.976983e-13 -3.551378e-12 1.425312e-12) (-1.635525e-12 -4.494913e-12 4.355975e-12)) ((3.771927e-13 -1.940798e-16 -3.582125e-16) (2.767431e-09 7.247981e-14 1.132398e-13))
1956.450915   	((1.840400e-13 -3.657150e-12 1.126433e-12) (-1.618299e-12 -4.335863e-12 4.143729e-12)) ((3.709020e-13 -1.928360e-16 -3.477679e-16) (2.730723e-09 7.015945e-14 1.058712e-13))
2347.753098   	((-4.039159e-13 -3.785391e-12 8.608207e-13) (-1.593734e-12 -4.202784e-12 4.025246e-12)) ((3.654679e-13 -1.761293e-16 -3.609490e-16) (2.698776e-09 6.786107e-14 9.849083e-14))
2817.315718   	((-9.241083e-13 -3.381096e-12 7.495705e-13) (-1.581518e-12 -4.015101e-12 3.871809e-12)) ((3.607992e-13 -1.532156e-16 -3.737425e-16) (2.671123e-09 6.519806e-14 9.216749e-14))
3380.790861   	((-1.794967e-12 -3.180022e-12 4.781606e-13) (-1.595607e-12 -3.788877e-12 3.653492e-12)) ((3.570159e-13 -1.459205e-16 -3.586168e-16) (2.647326e-09 6.179989e-14 8.686270e-14))
4046.298968   	((-2.521541e-12 -3.065458e-12 2.553938e-13) (-1.629821e-12 -3.580722e-12 3.442382e-12)) ((3.537887e-13 -1.422939e-16 -3.462248e-16) (2.626982e-09 5.923816e-14 8.207302e-14))
4813.848741   	((-3.278649e-12 -2.846673e-12 1.463188e-13) (-1.705803e-12 -3.413023e-12 3.273153e-12)) ((3.510375e-13 -1.523691e-16 -3.379727e-16) (2.609713e-09 5.697620e-14 7.785143e-14))
5683.448068   	((-3.752796e-12 -2.737733e-12 1.029627e-13) (-1.752614e-12 -3.281808e-12 3.163965e-12)) ((3.487097e-13 -1.582738e-16 -3.303233e-16) (2.595151e-09 5.474903e-14 7.481493e-14))
6655.10393    	((-3.883031e-12 -2.711385e-12 4.323476e-14) (-1.773413e-12 -3.171226e-12 3.094447e-12)) ((3.467518e-13 -1.609490e-16 -3.272166e-16) (2.582944e-09 5.317781e-14 7.219539e-14))
7675.729944   	((-3.620846e-12 -2.689335e-12 -2.581226e-14) (-1.750510e-12 -3.064607e-12 3.052517e-12)) ((3.451130e-13 -1.655625e-16 -3.254318e-16) (2.572777e-09 5.241882e-14 6.953068e-14))
8696.406991   	((-3.112008e-12 -2.659081e-12 -1.345913e-13) (-1.694591e-12 -2.959745e-12 3.018022e-12)) ((3.437690e-13 -1.764715e-16 -3.222994e-16) (2.564358e-09 5.235557e-14 6.622501e-14))
9717.126538   	((-2.401850e-12 -2.662529e-12 -3.375360e-13) (-1.609300e-12 -2.846976e-12 2.999536e-12)) ((3.426554e-13 -2.045573e-16 -3.187393e-16) (2.557411e-09 5.348666e-14 6.138762e-14))
10737.881743  	((-2.098931e-12 -2.559887e-12 -3.158636e-13) (-1.555668e-12 -2.759547e-12 2.985513e-12)) ((3.417506e-13 -2.089948e-16 -3.170138e-16) (2.551693e-09 5.431941e-14 5.744532e-14))
11758.666795  	((-1.842697e-12 -2.486099e-12 -2.461346e-13) (-1.535583e-12 -2.698765e-12 2.970965e-12)) ((3.410086e-13 -2.124992e-16 -3.167795e-16) (2.546995e-09 5.462275e-14 5.472951e-14))
12779.476695  	((-1.722102e-12 -2.430013e-12 -1.961561e-13) (-1.537991e-12 -2.654336e-12 2.956531e-12)) ((3.403898e-13 -2.157767e-16 -3.168823e-16) (2.543136e-09 5.489926e-14 5.247860e-14))
13800.307181  	((-1.570838e-12 -2.359230e-12 -1.318961e-13) (-1.560240e-12 -2.615338e-12 2.946566e-12)) ((3.398857e-13 -2.196066e-16 -3.157910e-16) (2.539968e-09 5.514933e-14 5.070338e-14))
14821.15475   	((-1.190266e-12 -2.206374e-12 -7.834176e-16) (-1.576495e-12 -2.580755e-12 2.947761e-12)) ((3.394740e-13 -2.202312e-16 -3.098239e-16) (2.537369e-09 5.570439e-14 4.935469e-14))
15842.016481  	((-9.313234e-13 -2.123872e-12 6.669706e-14) (-1.584623e-12 -2.560818e-12 2.938591e-12)) ((3.391433e-13 -2.287234e-16 -3.153633e-16) (2.535236e-09 5.576432e-14 4.850313e-14))
16862.889952  	((-7.045602e-13 -2.071897e-12 8.611066e-14) (-1.589880e-12 -2.550742e-12 2.925745e-12)) ((3.388690e-13 -2.305014e-16 -3.184618e-16) (2.533487e-09 5.566671e-14 4.802141e-14))
17883.773154  	((-4.108070e-13 -2.075598e-12 6.301157e-14) (-1.586246e-12 -2.546191e-12 2.909286e-12)) ((3.386445e-13 -2.301464e-16 -3.233110e-16) (2.532051e-09 5.542108e-14 4.759980e-14))
18904.664409  	((-1.936214e-13 -2.061850e-12 5.630702e-14) (-1.583438e-12 -2.542125e-12 2.901781e-12)) ((3.384612e-13 -2.308245e-16 -3.243818e-16) (2.530872e-09 5.543008e-14 4.727149e-14))
19925.562312  	((-3.403902e-14 -2.044116e-12 5.999649e-14) (-1.583145e-12 -2.537816e-12 2.895940e-12)) ((3.383112e-13 -2.311415e-16 -3.244685e-16) (2.529904e-09 5.542201e-14 4.700411e-14))
20946.465699  	((9.419889e-14 -2.034385e-12 5.956788e-14) (-1.582250e-12 -2.533728e-12 2.890826e-12)) ((3.381887e-13 -2.311314e-16 -3.244356e-16) (2.529110e-09 5.540187e-14 4.676372e-14))
21967.373613  	((2.003030e-13 -2.033834e-12 5.836235e-14) (-1.581374e-12 -2.529953e-12 2.886249e-12)) ((3.380882e-13 -2.313565e-16 -3.246654e-16) (2.528457e-09 5.540933e-14 4.655200e-14))
22988.285258  	((2.867454e-13 -2.036901e-12 5.725371e-14) (-1.580834e-12 -2.526890e-12 2.882287e-12)) ((3.380056e-13 -2.315402e-16 -3.249189e-16) (2.527921e-09 5.541322e-14 4.636760e-14))
24009.19998   	((3.506707e-13 -2.039752e-12 5.070004e-14) (-1.580286e-12 -2.524408e-12 2.878688e-12)) ((3.379377e-13 -2.317088e-16 -3.251496e-16) (2.527481e-09 5.541802e-14 4.619859e-14))
