# Forces      
# CofR        : (0.000000e+00 0.000000e+00 0.000000e+00)
# Time        forces(pressure viscous)	moments(pressure viscous)
0             	((0.000000e+00 0.000000e+00 0.000000e+00) (0.000000e+00 0.000000e+00 0.000000e+00)) ((0.000000e+00 0.000000e+00 0.000000e+00) (0.000000e+00 0.000000e+00 0.000000e+00))
0.012         	((-8.240804e-11 1.430315e-10 3.431544e-08) (2.610886e-13 7.653567e-13 7.213408e-10)) ((-1.547912e-14 1.335901e-09 -6.733053e-16) (1.045329e-15 8.816141e-07 -5.216159e-14))
0.0264        	((1.379344e-10 -1.525015e-10 -1.289684e-08) (3.249122e-14 2.143372e-12 1.254582e-09)) ((-3.240742e-15 6.699991e-10 6.517033e-14) (2.249212e-14 8.074984e-07 -7.417724e-14))
0.04368       	((4.402551e-10 8.229146e-10 1.196364e-08) (6.831204e-13 1.715505e-12 1.362034e-09)) ((1.151749e-14 3.711670e-10 4.116982e-14) (-3.727789e-14 7.313590e-07 -1.055769e-13))
0.064416      	((-9.662392e-11 -2.303091e-10 4.189731e-10) (8.199293e-13 -1.045746e-12 1.122543e-09)) ((-5.177359e-16 2.130317e-10 -2.226088e-15) (-1.334383e-13 6.548794e-07 -1.464725e-13))
0.0892992     	((4.773439e-10 2.546839e-10 1.410969e-09) (-2.688486e-12 -4.011457e-12 9.231732e-10)) ((-3.706212e-15 1.594184e-10 4.045865e-17) (-1.856427e-13 5.803114e-07 -1.538857e-13))
0.119159      	((-1.187848e-11 -6.001765e-11 3.200094e-10) (-5.829538e-12 -6.840942e-12 7.838785e-10)) ((8.283500e-16 1.155442e-10 1.649365e-16) (-2.388233e-13 5.099647e-07 -1.760400e-13))
0.154991      	((-1.765939e-10 -1.594441e-10 -1.004816e-09) (-8.692515e-12 -1.084870e-11 6.376101e-10)) ((-3.223309e-15 9.215265e-11 6.668623e-15) (-3.065122e-13 4.454717e-07 -1.990314e-13))
0.197989      	((-1.695048e-10 -1.083945e-10 9.190368e-11) (-1.139625e-11 -1.419029e-11 5.052696e-10)) ((-4.967667e-15 7.379900e-11 7.222543e-15) (-3.580171e-13 3.883187e-07 -2.251908e-13))
0.249587      	((-1.810052e-10 -1.121714e-10 -8.959820e-10) (-7.686215e-12 -1.501510e-11 4.078173e-10)) ((-5.998554e-15 6.116137e-11 -3.511821e-15) (-3.580181e-13 3.392766e-07 -2.026659e-13))
0.311504      	((-1.545551e-10 5.197739e-11 -1.575519e-10) (3.162683e-14 -1.550688e-11 3.309978e-10)) ((-6.088465e-15 5.121363e-11 -4.927331e-15) (-3.197724e-13 2.982070e-07 -1.515873e-13))
0.385805      	((-2.527811e-10 7.184879e-11 -1.487035e-11) (8.262540e-12 -1.618633e-11 2.646887e-10)) ((-3.624696e-15 4.422011e-11 -1.195873e-14) (-3.074514e-13 2.642290e-07 -1.122687e-13))
0.474966      	((-6.151721e-11 -1.276765e-11 2.838720e-10) (1.505548e-11 -1.724982e-11 1.959357e-10)) ((-2.923759e-16 3.957013e-11 -7.333800e-15) (-2.828555e-13 2.360197e-07 -2.356147e-14))
0.581959      	((-4.587935e-10 -1.173075e-10 -1.315713e-10) (1.935407e-11 -1.866885e-11 1.397813e-10)) ((-2.783831e-15 3.547806e-11 -5.627321e-15) (-3.441764e-13 2.122336e-07 8.280900e-14))
0.710351      	((-4.190910e-10 -1.500001e-10 4.635444e-10) (2.138085e-11 -1.646697e-11 1.100342e-10)) ((-9.385606e-15 3.157065e-11 -3.704648e-15) (-5.065020e-13 1.917706e-07 3.915769e-14))
0.864421      	((-3.380567e-10 -1.804800e-10 2.289270e-10) (3.843725e-11 -5.766688e-12 7.805439e-11)) ((-1.181281e-14 2.891510e-11 -1.618552e-15) (-3.859541e-13 1.738434e-07 -6.587371e-14))
1.049306      	((-5.041007e-11 -1.759390e-10 3.477596e-10) (2.957471e-11 7.832997e-12 2.076965e-11)) ((-1.321104e-14 2.724815e-11 3.837234e-15) (2.506256e-14 1.579203e-07 -1.749303e-13))
1.271167      	((-6.514956e-10 -9.130152e-11 5.342975e-10) (1.610137e-11 1.586345e-11 -2.664013e-11)) ((-8.974587e-16 2.560414e-11 4.074026e-15) (3.343269e-13 1.436383e-07 -2.471580e-13))
1.5374        	((-1.940012e-10 -1.351001e-11 4.691816e-10) (3.291350e-11 1.835306e-11 -6.265693e-11)) ((5.936085e-15 2.364272e-11 9.578336e-15) (6.167649e-13 1.307612e-07 -1.494390e-13))
1.85688       	((-5.946188e-10 -4.983712e-11 3.371594e-10) (5.227616e-11 2.047177e-11 -1.135497e-10)) ((1.278259e-14 2.177108e-11 8.874600e-15) (1.071477e-12 1.191589e-07 3.068574e-13))
2.240256      	((-6.141848e-10 -2.805349e-11 4.124478e-10) (7.003239e-11 1.454029e-11 -1.468367e-10)) ((1.297841e-14 2.040519e-11 7.571563e-15) (1.552933e-12 1.087655e-07 1.151384e-12))
2.700307      	((-8.002904e-10 -8.323437e-12 2.369566e-10) (8.791049e-11 1.707208e-12 -1.731476e-10)) ((1.109617e-14 1.941232e-11 8.574514e-15) (2.014879e-12 9.953090e-08 2.316728e-12))
3.252369      	((-6.578999e-10 -3.085752e-11 2.521568e-11) (1.291487e-10 -8.669282e-12 -2.277451e-10)) ((1.305977e-14 1.830253e-11 6.914601e-15) (2.826068e-12 9.138651e-08 3.580055e-12))
3.914842      	((-4.334526e-10 1.146471e-11 -1.775874e-10) (1.760317e-10 -1.397802e-11 -2.895939e-10)) ((1.587329e-14 1.712518e-11 9.392506e-15) (3.332133e-12 8.422726e-08 4.410976e-12))
4.709811      	((-2.053940e-10 -2.781032e-12 -1.039411e-10) (2.102177e-10 -1.504010e-11 -3.164135e-10)) ((1.547351e-14 1.593292e-11 5.888837e-15) (3.554250e-12 7.791182e-08 4.935717e-12))
5.663773      	((4.942655e-11 -1.520407e-11 3.967073e-11) (2.268094e-10 -1.163546e-11 -3.028811e-10)) ((1.089515e-14 1.470837e-11 -1.306803e-15) (3.982787e-12 7.229022e-08 4.912132e-12))
6.808528      	((9.765512e-11 -3.598859e-11 4.159782e-11) (2.260049e-10 -8.615631e-12 -2.741433e-10)) ((6.724804e-15 1.344417e-11 -3.309015e-15) (3.929120e-12 6.722996e-08 4.414128e-12))
8.182233      	((1.673579e-10 -5.791127e-11 7.171258e-11) (1.816443e-10 -1.473277e-11 -2.293829e-10)) ((8.434433e-15 1.223327e-11 -2.477661e-15) (3.300898e-12 6.263123e-08 3.875837e-12))
9.83068       	((1.119575e-10 -6.145730e-11 5.649917e-11) (1.342149e-10 -1.590208e-11 -1.712606e-10)) ((3.634867e-15 1.106207e-11 -3.684992e-15) (2.539595e-12 5.842019e-08 3.127354e-12))
11.808816     	((6.942223e-12 -5.661342e-11 9.774383e-11) (8.716233e-11 -1.023790e-11 -1.077624e-10)) ((4.455962e-15 1.001145e-11 -4.005744e-15) (1.848869e-12 5.454422e-08 2.302640e-12))
14.182579     	((-4.984903e-11 -5.552281e-11 1.169791e-10) (5.074097e-11 -4.242845e-12 -6.745255e-11)) ((2.234423e-15 9.060434e-12 -7.953803e-15) (1.418366e-12 5.097059e-08 1.533567e-12))
17.031095     	((-7.861928e-11 -4.960875e-11 1.068228e-10) (2.865892e-11 6.779989e-13 -4.504172e-11)) ((1.949829e-15 8.234587e-12 -7.246751e-15) (1.005864e-12 4.767981e-08 9.834762e-13))
20.449314     	((-1.848458e-11 -4.953480e-11 1.150095e-10) (1.722658e-11 1.277571e-13 -4.045008e-11)) ((4.810728e-15 7.503229e-12 -6.795709e-15) (5.838887e-13 4.466342e-08 6.726643e-13))
24.551176     	((-2.488091e-11 -4.367643e-12 1.047320e-10) (2.996354e-12 1.354274e-12 -5.113067e-11)) ((6.997856e-15 6.869593e-12 -6.374255e-15) (2.498868e-13 4.191097e-08 4.713506e-13))
29.473411     	((-3.113946e-11 -3.931083e-12 7.639330e-11) (-1.054961e-11 3.121970e-12 -6.045325e-11)) ((9.341366e-15 6.322311e-12 -6.050914e-15) (1.808778e-14 3.940566e-08 3.590115e-13))
35.380094     	((-5.304592e-12 -4.759005e-12 1.023507e-10) (-9.126430e-12 3.172910e-12 -6.821964e-11)) ((1.047995e-14 5.836207e-12 -6.459480e-15) (-1.217531e-13 3.712751e-08 3.663369e-13))
42.468112     	((-2.597919e-11 3.171495e-13 9.197691e-11) (-9.484194e-12 3.733781e-12 -7.935468e-11)) ((1.164030e-14 5.398458e-12 -5.899443e-15) (-1.482845e-13 3.505576e-08 4.980775e-13))
50.973735     	((-3.818980e-11 3.921371e-12 7.616579e-11) (-7.265278e-12 5.404958e-12 -8.264623e-11)) ((1.167708e-14 5.013271e-12 -4.480396e-15) (-4.480027e-14 3.317038e-08 7.031984e-13))
61.180482     	((5.186837e-12 -1.892233e-11 6.095970e-11) (-1.144352e-12 4.132971e-12 -8.575815e-11)) ((1.041263e-14 4.677670e-12 -2.160225e-15) (8.746987e-14 3.145440e-08 8.413502e-13))
73.428578     	((1.479037e-11 -1.165898e-11 4.405715e-11) (1.015186e-11 2.374682e-12 -8.855381e-11)) ((9.157693e-15 4.397903e-12 -5.219711e-16) (2.472158e-13 2.989304e-08 8.865909e-13))
88.126294     	((3.487499e-12 -9.937820e-12 1.407834e-13) (2.019901e-11 2.148680e-12 -9.252506e-11)) ((1.030755e-14 4.155308e-12 7.763105e-16) (4.010343e-13 2.847358e-08 8.028136e-13))
105.763553    	((1.999484e-11 -1.009153e-11 -7.666179e-12) (2.080199e-11 7.209746e-13 -9.794412e-11)) ((1.062412e-14 3.925808e-12 8.058827e-16) (4.536839e-13 2.718623e-08 6.922272e-13))
126.928263    	((3.574251e-11 -2.928352e-12 9.585091e-12) (1.949200e-11 7.579188e-13 -1.005227e-10)) ((7.968149e-15 3.720108e-12 1.823255e-16) (4.985052e-13 2.602037e-08 5.972439e-13))
152.325916    	((2.584224e-11 -4.479215e-12 4.097205e-11) (1.291633e-11 -2.537013e-13 -9.444129e-11)) ((5.801210e-15 3.532542e-12 -1.873062e-16) (5.069588e-13 2.496435e-08 5.876195e-13))
182.803099    	((2.651451e-11 -4.206630e-12 5.852736e-11) (8.888924e-12 -3.441778e-13 -7.979264e-11)) ((5.210220e-15 3.363098e-12 -6.573849e-16) (4.852268e-13 2.400716e-08 6.311826e-13))
219.375719    	((4.332873e-11 -5.458930e-12 7.113804e-11) (1.137210e-11 -1.181799e-13 -7.138752e-11)) ((4.996467e-15 3.203901e-12 -9.202252e-16) (4.548161e-13 2.314019e-08 6.622160e-13))
263.262863    	((6.003951e-11 -7.112783e-12 9.197834e-11) (1.285834e-11 2.156907e-12 -6.843361e-11)) ((4.460846e-15 3.060604e-12 -1.212353e-15) (5.640019e-13 2.235526e-08 5.916734e-13))
315.927436    	((4.923034e-11 -1.369699e-12 9.066632e-11) (1.172027e-11 3.546128e-12 -6.892843e-11)) ((4.145612e-15 2.932840e-12 -1.581878e-15) (6.538241e-13 2.164508e-08 5.199142e-13))
379.124923    	((3.352989e-11 -5.999639e-13 7.816444e-11) (1.147015e-11 4.581118e-12 -6.734400e-11)) ((4.052876e-15 2.816951e-12 -1.975264e-15) (7.207557e-13 2.100419e-08 4.525816e-13))
454.961908    	((2.875756e-11 -2.261079e-12 7.216767e-11) (6.813362e-12 5.609317e-12 -6.847042e-11)) ((3.610772e-15 2.717292e-12 -1.822728e-15) (7.718651e-13 2.042784e-08 3.671631e-13))
545.966289    	((2.150911e-11 -1.824436e-12 7.558427e-11) (5.582863e-12 6.859382e-12 -6.838708e-11)) ((3.875058e-15 2.628342e-12 -1.737174e-15) (8.064938e-13 1.991203e-08 2.859578e-13))
653.12097     	((1.808182e-11 -4.310401e-12 7.600986e-11) (7.055677e-12 7.170461e-12 -6.370217e-11)) ((4.078518e-15 2.550939e-12 -1.622453e-15) (7.819293e-13 1.945437e-08 2.203065e-13))
776.424773    	((1.999195e-11 -2.209870e-12 7.681053e-11) (7.048447e-12 7.141594e-12 -6.129799e-11)) ((4.350494e-15 2.485433e-12 -1.426384e-15) (7.419313e-13 1.905208e-08 1.773193e-13))
915.877265    	((1.448382e-11 -8.199136e-12 6.950971e-11) (7.807814e-12 5.416672e-12 -6.043376e-11)) ((4.120847e-15 2.427281e-12 -1.458916e-15) (6.786219e-13 1.870177e-08 1.606319e-13))
1071.47778    	((1.438469e-11 -4.916390e-12 6.550488e-11) (1.316075e-11 3.410406e-12 -5.793661e-11)) ((3.713253e-15 2.375196e-12 -1.546512e-15) (6.054508e-13 1.839906e-08 1.294389e-13))
1232.956712   	((1.124183e-11 -2.723253e-12 5.942297e-11) (1.455426e-11 1.985342e-12 -5.859019e-11)) ((3.521527e-15 2.329429e-12 -1.722640e-15) (5.245419e-13 1.814138e-08 8.994191e-14))
1394.440572   	((1.314914e-11 -1.468946e-13 5.369923e-11) (1.603881e-11 6.825921e-13 -5.705292e-11)) ((3.655061e-15 2.292231e-12 -2.006686e-15) (4.380342e-13 1.792412e-08 6.447828e-14))
1555.927638   	((1.742595e-11 -5.025206e-12 5.075507e-11) (1.993847e-11 -8.367728e-13 -5.434165e-11)) ((3.714220e-15 2.260948e-12 -2.147248e-15) (3.683425e-13 1.774189e-08 5.638454e-14))
1717.419686   	((1.853201e-11 -5.700189e-12 5.158139e-11) (2.308085e-11 -2.298563e-12 -5.139284e-11)) ((3.807141e-15 2.235745e-12 -2.191105e-15) (3.120781e-13 1.758897e-08 5.504622e-14))
1878.920769   	((1.977079e-11 -5.741693e-12 5.057381e-11) (2.533059e-11 -2.819285e-12 -4.882562e-11)) ((4.018278e-15 2.214027e-12 -2.142915e-15) (2.721078e-13 1.746038e-08 5.618250e-14))
2040.434434   	((1.922272e-11 -6.324915e-12 4.944656e-11) (2.672793e-11 -2.967638e-12 -4.632960e-11)) ((4.194419e-15 2.194977e-12 -2.121334e-15) (2.444583e-13 1.735175e-08 6.009207e-14))
2201.963609   	((1.875623e-11 -4.149105e-12 4.640287e-11) (2.762180e-11 -2.932857e-12 -4.307634e-11)) ((4.308186e-15 2.178464e-12 -2.108833e-15) (2.220785e-13 1.725955e-08 7.042617e-14))
2363.503741   	((1.737428e-11 -2.935579e-12 4.327462e-11) (2.795247e-11 -2.702411e-12 -4.030177e-11)) ((4.362293e-15 2.164341e-12 -2.123830e-15) (2.106351e-13 1.718088e-08 8.485873e-14))
2525.053515   	((1.757797e-11 -1.940978e-12 4.133802e-11) (2.834989e-11 -2.606559e-12 -3.861662e-11)) ((4.411593e-15 2.152367e-12 -2.173087e-15) (2.010302e-13 1.711339e-08 9.922597e-14))
2686.614026   	((1.776304e-11 -1.846445e-12 3.943502e-11) (2.893533e-11 -2.561749e-12 -3.728782e-11)) ((4.416182e-15 2.142070e-12 -2.197181e-15) (1.897882e-13 1.705520e-08 1.120759e-13))
2848.186034   	((1.672487e-11 -1.401807e-12 3.783967e-11) (2.919837e-11 -2.576627e-12 -3.680846e-11)) ((4.421956e-15 2.133164e-12 -2.207590e-15) (1.775806e-13 1.700482e-08 1.196422e-13))
3009.770005   	((1.530699e-11 -1.527211e-12 3.569259e-11) (2.937788e-11 -2.658263e-12 -3.657094e-11)) ((4.424484e-15 2.125395e-12 -2.213392e-15) (1.653732e-13 1.696099e-08 1.239006e-13))
3171.366158   	((1.410656e-11 -1.894414e-12 3.318078e-11) (2.990279e-11 -2.617955e-12 -3.654036e-11)) ((4.418091e-15 2.118645e-12 -2.195270e-15) (1.559206e-13 1.692269e-08 1.258873e-13))
3332.966253   	((1.313181e-11 -2.119976e-12 3.118050e-11) (3.028954e-11 -2.533746e-12 -3.653617e-11)) ((4.376222e-15 2.112713e-12 -2.149992e-15) (1.457572e-13 1.688909e-08 1.281651e-13))
3494.569804   	((1.218683e-11 -2.196696e-12 2.995025e-11) (3.071086e-11 -2.448008e-12 -3.638810e-11)) ((4.402600e-15 2.107422e-12 -2.128911e-15) (1.359273e-13 1.685953e-08 1.317495e-13))
3656.17685    	((1.136891e-11 -2.561530e-12 2.867658e-11) (3.114064e-11 -2.374088e-12 -3.614842e-11)) ((4.430005e-15 2.102732e-12 -2.110817e-15) (1.255481e-13 1.683343e-08 1.368858e-13))
3817.787076   	((1.039530e-11 -2.121297e-12 2.801033e-11) (3.163906e-11 -2.351014e-12 -3.591698e-11)) ((4.446540e-15 2.098577e-12 -2.093512e-15) (1.145743e-13 1.681031e-08 1.427795e-13))
