# Forces      
# CofR        : (0.000000e+00 0.000000e+00 0.000000e+00)
# Time        forces(pressure viscous)	moments(pressure viscous)
0             	((0.000000e+00 0.000000e+00 0.000000e+00) (0.000000e+00 0.000000e+00 0.000000e+00)) ((0.000000e+00 0.000000e+00 0.000000e+00) (0.000000e+00 0.000000e+00 0.000000e+00))
0.012         	((-3.213073e-10 4.474681e-10 -8.881701e-10) (2.546491e-12 8.787497e-13 5.755657e-12)) ((4.011421e-09 -3.829860e-13 -7.815754e-15) (2.787920e-06 3.060708e-13 -1.284954e-13))
0.0264        	((3.615361e-10 7.744406e-10 -1.595869e-09) (6.914277e-12 -6.664440e-12 4.821735e-12)) ((1.991664e-09 -3.019126e-13 7.518650e-14) (2.553649e-06 5.218568e-13 -1.134480e-13))
0.04368       	((-1.721784e-09 -1.207284e-09 -1.869828e-09) (2.938675e-11 -1.972084e-11 2.384129e-12)) ((1.115703e-09 -2.525922e-13 8.611112e-14) (2.313151e-06 3.120675e-13 2.348690e-13))
0.064416      	((7.792944e-10 -1.655126e-10 -4.764843e-10) (6.507742e-11 -2.833022e-11 -3.268662e-12)) ((6.416191e-10 -1.762756e-13 -3.532686e-14) (2.071891e-06 -2.464545e-13 5.856798e-13))
0.0892992     	((-2.060011e-10 -4.425057e-10 -1.987163e-11) (1.005489e-10 -3.178752e-11 -9.780821e-12)) ((4.932834e-10 -1.682966e-13 1.677369e-14) (1.837121e-06 -8.048303e-13 7.982841e-13))
0.119159      	((4.979085e-10 -3.133464e-10 -1.062120e-09) (1.302301e-10 -3.088676e-11 -1.518423e-11)) ((3.635760e-10 -1.135003e-13 -2.311438e-14) (1.616235e-06 -1.154610e-12 9.022650e-13))
0.154991      	((1.405069e-09 4.798324e-10 3.891692e-10) (1.234142e-10 -2.746101e-11 -1.827857e-11)) ((2.953861e-10 -1.015600e-13 -1.797681e-14) (1.414432e-06 -1.392975e-12 8.666164e-13))
0.197989      	((7.143207e-10 1.890912e-10 -3.335015e-10) (9.075455e-11 -2.584270e-11 -1.978774e-11)) ((2.392617e-10 -4.320283e-14 -2.276418e-14) (1.235778e-06 -1.667457e-12 8.448063e-13))
0.249587      	((1.193796e-09 -3.523381e-11 -4.955285e-10) (5.491608e-11 -2.848286e-11 -2.156144e-11)) ((2.004466e-10 -4.173041e-14 -2.256541e-14) (1.082112e-06 -1.760090e-12 8.225804e-13))
0.311504      	((-1.075572e-10 1.393361e-10 -5.647143e-10) (2.415779e-11 -2.639630e-11 -2.463516e-11)) ((1.702767e-10 -4.033060e-14 -8.978079e-15) (9.528403e-07 -1.626468e-12 7.096332e-13))
0.385805      	((-3.143192e-10 1.683256e-10 -5.935375e-10) (1.066244e-11 -1.768060e-11 -3.381603e-11)) ((1.495330e-10 -3.963150e-14 9.300392e-15) (8.451837e-07 -1.481931e-12 4.966822e-13))
0.474966      	((2.164051e-10 4.491323e-10 -5.677395e-10) (-2.792752e-11 -8.094049e-12 -4.559063e-11)) ((1.352283e-10 -3.637948e-14 1.862453e-14) (7.550784e-07 -1.441824e-12 3.288116e-13))
0.581959      	((9.917223e-10 1.126759e-09 -2.854401e-10) (6.921762e-11 1.065144e-11 -4.908618e-11)) ((1.215341e-10 -3.893653e-14 3.091623e-14) (6.786214e-07 -1.500282e-12 3.495802e-13))
0.710351      	((-2.756506e-10 1.279230e-09 -4.762833e-10) (1.931747e-10 2.312311e-11 -4.352277e-11)) ((1.082718e-10 -3.819973e-14 3.267317e-14) (6.126706e-07 -1.448357e-12 5.170503e-13))
0.864421      	((-5.641960e-10 1.497224e-09 -5.491461e-11) (2.015643e-10 2.470417e-11 -1.797489e-11)) ((9.891835e-11 -4.603968e-14 3.763477e-14) (5.549024e-07 -8.401878e-13 4.854694e-13))
1.049306      	((-3.198930e-10 2.158646e-09 -1.962324e-10) (1.720408e-10 2.576897e-11 6.302286e-12)) ((9.264488e-11 -4.234684e-14 2.771550e-14) (5.036702e-07 -1.834143e-13 7.221502e-13))
1.271167      	((-6.676560e-10 2.222324e-09 -3.656362e-10) (8.792618e-11 6.331731e-12 3.095562e-11)) ((8.672496e-11 -4.433575e-14 3.164764e-14) (4.578163e-07 -2.657808e-13 1.918517e-12))
1.5374        	((-8.646944e-11 1.706808e-09 -4.448771e-10) (1.333855e-11 -5.719457e-11 5.706460e-11)) ((7.999478e-11 -2.123593e-14 1.757396e-14) (4.165715e-07 -6.940986e-13 3.652630e-12))
1.85688       	((3.636832e-10 1.195783e-09 -7.920819e-10) (1.516735e-11 -1.451789e-10 1.144085e-10)) ((7.286800e-11 -2.787765e-14 1.495363e-14) (3.795086e-07 -1.482747e-13 5.581285e-12))
2.240256      	((2.262773e-11 1.134015e-09 -1.051877e-09) (1.063043e-10 -2.167234e-10 1.972447e-10)) ((6.707186e-11 -3.121915e-14 2.154439e-14) (3.464199e-07 1.637330e-12 7.694278e-12))
2.700307      	((1.367320e-10 4.207196e-11 -1.610500e-09) (1.414081e-10 -3.130524e-10 2.719639e-10)) ((6.246809e-11 -2.047595e-14 2.168604e-14) (3.171277e-07 3.475745e-12 9.723486e-12))
3.252369      	((1.712234e-10 1.227305e-10 -1.160675e-09) (1.937122e-10 -4.070969e-10 3.685890e-10)) ((5.796319e-11 -1.995197e-14 2.014523e-14) (2.913646e-07 5.321630e-12 1.111938e-11))
3.914842      	((7.570231e-11 4.817913e-10 -2.698267e-10) (1.699004e-10 -4.745228e-10 4.731111e-10)) ((5.344243e-11 -7.115718e-15 -4.349986e-16) (2.687387e-07 7.172761e-12 1.197054e-11))
4.709811      	((1.116765e-10 7.938039e-10 3.727647e-10) (1.451601e-10 -5.190253e-10 5.133671e-10)) ((4.911208e-11 1.208119e-14 -1.458479e-14) (2.487631e-07 8.104470e-12 1.218838e-11))
5.663773      	((-1.642273e-10 5.367916e-10 7.276440e-10) (1.218636e-10 -4.924551e-10 4.989447e-10)) ((4.465494e-11 3.462503e-14 -2.455212e-14) (2.309411e-07 7.948547e-12 1.194377e-11))
6.808528      	((-4.501144e-10 3.922124e-10 1.060757e-09) (3.542134e-11 -4.154938e-10 4.322461e-10)) ((4.039896e-11 3.405700e-14 -3.191383e-14) (2.148594e-07 7.059965e-12 1.125778e-11))
8.182233      	((-3.882140e-11 -1.821276e-11 8.772011e-10) (-2.462592e-11 -2.678267e-10 3.552593e-10)) ((3.653725e-11 3.276634e-14 -4.288119e-14) (2.002194e-07 5.920237e-12 9.920762e-12))
9.83068       	((-2.496097e-10 2.527045e-10 8.285575e-10) (-5.185311e-11 -1.394803e-10 2.661611e-10)) ((3.292443e-11 4.028883e-14 -6.044527e-14) (1.868057e-07 5.225560e-12 7.731709e-12))
11.808816     	((-3.671879e-11 1.573489e-10 4.190011e-10) (-3.843157e-11 -5.749261e-11 2.170401e-10)) ((2.974433e-11 3.538765e-14 -5.565935e-14) (1.744524e-07 5.266575e-12 5.093608e-12))
14.182579     	((-3.262629e-10 1.842441e-10 1.900883e-10) (-2.128250e-11 -2.425053e-11 1.608518e-10)) ((2.688550e-11 1.234663e-14 -4.510682e-14) (1.630494e-07 5.079945e-12 2.972077e-12))
17.031095     	((-6.823183e-11 9.501829e-11 1.916379e-10) (-1.118891e-11 -1.748018e-11 1.197460e-10)) ((2.432500e-11 -1.492103e-14 -2.298216e-14) (1.525457e-07 4.331214e-12 1.311113e-12))
20.449314     	((-4.245077e-11 7.581944e-12 9.567995e-11) (-4.604488e-11 -1.618569e-12 8.753992e-11)) ((2.216228e-11 -3.221383e-14 -1.186731e-14) (1.429270e-07 3.727353e-12 -3.201876e-13))
24.551176     	((-1.578110e-12 -6.694959e-11 4.749981e-11) (-5.932200e-11 4.565336e-11 6.631184e-11)) ((2.027677e-11 -3.536090e-14 1.169653e-15) (1.341739e-07 3.370285e-12 -1.597448e-12))
29.473411     	((-7.074534e-11 -1.937213e-10 -2.903875e-11) (-2.669130e-12 5.871413e-11 4.860570e-11)) ((1.862034e-11 -4.116284e-14 1.576858e-14) (1.262472e-07 3.524613e-12 -2.194274e-12))
35.380094     	((-2.475724e-11 -2.028833e-10 -3.701635e-11) (-3.001352e-11 5.511132e-11 3.690347e-11)) ((1.718425e-11 -4.409241e-14 1.652248e-14) (1.190853e-07 4.237087e-12 -2.390803e-12))
42.468112     	((-8.743094e-11 -5.962936e-11 -3.558250e-11) (-5.281262e-11 7.271813e-11 2.261682e-11)) ((1.597527e-11 -3.674364e-14 7.138318e-15) (1.126115e-07 4.835876e-12 -2.436761e-12))
50.973735     	((-6.738547e-11 -6.690522e-11 -1.380754e-12) (-3.807327e-11 7.490505e-11 -1.418751e-11)) ((1.494469e-11 -3.617663e-14 2.143156e-15) (1.067480e-07 4.882783e-12 -2.040547e-12))
61.180482     	((-5.450646e-11 8.225610e-11 1.024758e-10) (-2.019593e-11 9.330707e-11 -2.357683e-11)) ((1.405484e-11 -3.088436e-14 -4.144464e-15) (1.014196e-07 4.561893e-12 -1.459611e-12))
73.428578     	((-3.727380e-11 1.114084e-10 2.300064e-10) (-2.176204e-11 9.917107e-11 -4.142307e-11)) ((1.326768e-11 -2.506938e-14 -9.665638e-15) (9.656912e-08 4.118635e-12 -1.034765e-12))
88.126294     	((-5.227221e-11 1.352079e-10 2.512711e-10) (-2.316557e-11 1.327433e-10 -3.687619e-11)) ((1.252776e-11 -2.283948e-14 -9.629265e-15) (9.216355e-08 3.418431e-12 -6.596011e-13))
105.763553    	((-1.593745e-11 8.148504e-11 1.013682e-10) (-1.966541e-11 1.304896e-10 -5.210138e-11)) ((1.174734e-11 -1.957016e-14 -1.040498e-14) (8.817653e-08 2.802270e-12 -1.912200e-13))
126.928263    	((2.155114e-12 1.112911e-11 -6.466478e-11) (-2.772954e-11 9.895265e-11 -8.530289e-11)) ((1.106021e-11 -2.144006e-14 -7.095020e-15) (8.458685e-08 2.147706e-12 1.946715e-13))
152.325916    	((3.518465e-11 -4.725791e-11 -1.389124e-10) (-4.134554e-11 6.059261e-11 -1.051102e-10)) ((1.048472e-11 -1.985798e-14 -6.576519e-15) (8.137191e-08 1.330103e-12 4.639675e-13))
182.803099    	((5.956108e-11 -1.481000e-10 -3.004327e-10) (-3.633978e-12 2.119753e-11 -1.209667e-10)) ((1.002467e-11 -1.759317e-14 -8.135027e-15) (7.850418e-08 4.005410e-13 6.860638e-13))
218.387049    	((1.536898e-11 -1.751001e-10 -3.862346e-10) (7.476649e-12 1.546928e-11 -1.150944e-10)) ((9.651693e-12 -1.691382e-14 -9.641304e-15) (7.598215e-08 -5.817972e-13 7.972079e-13))
259.076608    	((1.652372e-12 -2.346112e-10 -4.776300e-10) (3.075709e-11 1.296621e-11 -1.233250e-10)) ((9.332724e-12 -1.188510e-14 -1.071672e-14) (7.378930e-08 -1.454673e-12 7.909712e-13))
304.870547    	((-2.077662e-11 -1.833590e-10 -4.618742e-10) (5.432732e-11 3.561618e-11 -1.259684e-10)) ((9.058691e-12 -8.387763e-15 -1.170043e-14) (7.190704e-08 -2.165860e-12 6.313118e-13))
355.767509    	((1.598301e-11 -1.955807e-10 -4.562357e-10) (7.250373e-11 4.334878e-11 -1.415832e-10)) ((8.821839e-12 -9.448533e-15 -1.057976e-14) (7.030921e-08 -2.446932e-12 2.610940e-13))
406.783012    	((5.097588e-11 -1.771224e-10 -4.342096e-10) (8.049475e-11 5.424828e-11 -1.496170e-10)) ((8.631306e-12 -9.814922e-15 -9.442349e-15) (6.900597e-08 -2.365162e-12 -2.471535e-13))
457.784504    	((5.698958e-11 -1.484194e-10 -3.809657e-10) (7.885126e-11 7.318159e-11 -1.453486e-10)) ((8.465314e-12 -9.829217e-15 -8.684586e-15) (6.795530e-08 -2.128697e-12 -6.748145e-13))
508.770634    	((4.365872e-11 -1.304593e-10 -3.293809e-10) (8.483172e-11 9.008375e-11 -1.347380e-10)) ((8.336875e-12 -1.022550e-14 -6.899587e-15) (6.712568e-08 -1.835552e-12 -9.780431e-13))
559.741639    	((4.383800e-11 -1.120748e-10 -2.658838e-10) (8.892409e-11 1.094876e-10 -1.165838e-10)) ((8.229656e-12 -1.079071e-14 -5.180132e-15) (6.647810e-08 -1.544588e-12 -1.211790e-12))
610.697969    	((5.624017e-11 -1.148134e-10 -2.292436e-10) (9.739402e-11 1.259817e-10 -1.005570e-10)) ((8.143616e-12 -1.004981e-14 -4.069763e-15) (6.598322e-08 -1.267422e-12 -1.391363e-12))
661.64065     	((6.240959e-11 -9.977944e-11 -1.787196e-10) (9.441134e-11 1.339014e-10 -9.027477e-11)) ((8.078800e-12 -9.937333e-15 -3.170190e-15) (6.561376e-08 -1.006115e-12 -1.560974e-12))
712.571017    	((3.604740e-11 -9.706920e-11 -1.499223e-10) (8.936895e-11 1.378455e-10 -8.284091e-11)) ((8.029828e-12 -1.094176e-14 -2.178756e-15) (6.534904e-08 -8.032057e-13 -1.651739e-12))
763.49036     	((3.208173e-11 -9.802584e-11 -1.335554e-10) (8.782964e-11 1.397489e-10 -7.493171e-11)) ((7.995548e-12 -1.129021e-14 -1.982974e-15) (6.517082e-08 -7.365668e-13 -1.612260e-12))
814.399879    	((3.822341e-11 -7.628091e-11 -1.160922e-10) (8.403797e-11 1.420487e-10 -7.024123e-11)) ((7.971293e-12 -1.234864e-14 -1.956557e-15) (6.506460e-08 -7.439278e-13 -1.531733e-12))
865.30097     	((4.289177e-11 -6.207110e-11 -9.986456e-11) (7.806354e-11 1.459686e-10 -7.065429e-11)) ((7.952722e-12 -1.320090e-14 -1.866429e-15) (6.501777e-08 -7.687616e-13 -1.474781e-12))
916.193147    	((5.881812e-11 -4.434779e-11 -8.643118e-11) (7.485950e-11 1.462600e-10 -7.388986e-11)) ((7.944796e-12 -1.379866e-14 -1.891390e-15) (6.501986e-08 -7.813366e-13 -1.413256e-12))
967.076915    	((6.563705e-11 -3.656652e-11 -7.452251e-11) (7.223220e-11 1.475537e-10 -7.586413e-11)) ((7.942063e-12 -1.427354e-14 -1.562836e-15) (6.506147e-08 -8.077439e-13 -1.274285e-12))
1017.953444   	((8.336404e-11 -2.847883e-11 -6.583565e-11) (7.381184e-11 1.500754e-10 -7.701389e-11)) ((7.946035e-12 -1.474883e-14 -1.204017e-15) (6.513437e-08 -8.404275e-13 -1.121775e-12))
1068.823926   	((9.075935e-11 -2.091198e-11 -5.420199e-11) (7.361826e-11 1.534251e-10 -7.795543e-11)) ((7.954365e-12 -1.518137e-14 -8.425740e-16) (6.523182e-08 -8.494739e-13 -1.010712e-12))
1119.689485   	((9.931389e-11 -1.293292e-11 -4.294017e-11) (7.203147e-11 1.553892e-10 -7.845483e-11)) ((7.965528e-12 -1.566581e-14 -3.976222e-16) (6.534792e-08 -8.533810e-13 -9.061978e-13))
1170.551201   	((1.097300e-10 -1.120401e-11 -3.491776e-11) (7.085524e-11 1.558795e-10 -7.822738e-11)) ((7.979915e-12 -1.614489e-14 -6.456274e-17) (6.547752e-08 -8.665137e-13 -7.989128e-13))
1221.410138   	((1.230224e-10 -9.374970e-12 -2.350847e-11) (7.162690e-11 1.559563e-10 -7.772588e-11)) ((7.995784e-12 -1.664946e-14 1.554105e-16) (6.561624e-08 -9.140866e-13 -7.042975e-13))
