# Forces      
# CofR        : (0.000000e+00 0.000000e+00 0.000000e+00)
# Time        forces(pressure viscous)	moments(pressure viscous)
0             	((0.000000e+00 0.000000e+00 0.000000e+00) (-3.483950e-14 3.182501e-15 -5.039763e-04)) ((0.000000e+00 0.000000e+00 0.000000e+00) (-9.527086e-16 -1.949830e-10 -8.802226e-17))
0.012         	((-6.898562e-08 -4.192228e-08 -1.464982e-01) (3.488899e-10 3.340205e-10 -5.776150e-04)) ((-5.434238e-11 -3.885792e-08 -3.551203e-13) (3.499583e-12 -5.573563e-10 -2.782083e-14))
0.0264        	((-2.712079e-06 -2.857657e-06 1.173191e-02) (-1.569429e-09 -1.725324e-09 -5.876559e-04)) ((1.804606e-11 2.744499e-09 1.247570e-11) (2.615574e-12 -7.312762e-10 -1.307124e-12))
0.04368       	((3.479631e-06 2.784788e-06 2.979168e-02) (-5.850956e-10 -1.853808e-09 -5.206757e-04)) ((3.508322e-10 6.731334e-09 -1.227376e-11) (-1.102312e-11 -7.307814e-10 -1.657689e-12))
0.064416      	((-5.347489e-07 -8.816695e-07 2.772864e-04) (-3.581068e-10 8.886598e-10 -4.606529e-04)) ((-1.150260e-10 -2.463927e-10 7.653995e-12) (1.968365e-11 -9.668405e-10 -2.320953e-14))
0.0892992     	((-4.336225e-07 6.090559e-07 -2.451504e-04) (-4.777616e-09 -2.232342e-10 -4.249335e-04)) ((-3.372583e-11 1.118232e-10 -8.073820e-12) (-9.355216e-12 -1.174349e-09 1.067297e-11))
0.119159      	((-2.243550e-07 -3.636217e-07 5.030308e-04) (-9.855141e-09 -1.594821e-09 -3.922768e-04)) ((-2.618735e-11 2.271314e-10 1.696221e-12) (-9.102883e-11 -1.169420e-09 1.707088e-11))
0.154991      	((-2.235071e-07 -1.989856e-07 2.370510e-04) (-1.238839e-08 -1.331473e-09 -3.582264e-04)) ((-4.625529e-12 -4.160321e-11 -1.287718e-12) (-1.454842e-10 -1.054566e-09 1.055495e-11))
0.197989      	((-9.984657e-08 -7.699619e-09 5.121549e-05) (-1.153611e-08 -1.341618e-09 -3.246069e-04)) ((-2.671700e-12 -8.931423e-11 -9.132225e-13) (-1.527983e-10 -9.193823e-10 3.626642e-12))
0.249587      	((2.662370e-08 -2.679149e-08 -1.381692e-05) (-1.116667e-08 -1.127875e-09 -2.925202e-04)) ((1.100641e-12 -1.211520e-10 -8.775440e-13) (-1.234149e-10 -8.856561e-10 2.712556e-12))
0.311504      	((-5.711574e-08 -3.485731e-08 -4.592637e-05) (-9.627870e-09 -1.069714e-09 -2.628551e-04)) ((5.631359e-13 -1.227017e-10 4.306247e-13) (-9.807020e-11 -8.521715e-10 4.726326e-12))
0.385805      	((-4.829662e-08 -2.982668e-08 -6.353276e-05) (-6.680003e-09 -1.026733e-09 -2.362377e-04)) ((1.222684e-12 -1.246323e-10 -5.363693e-14) (-7.960621e-11 -8.637081e-10 3.593991e-12))
0.474966      	((-2.481649e-08 -2.361756e-08 -7.222063e-05) (-4.620746e-09 -9.284944e-10 -2.129163e-04)) ((8.825018e-13 -1.185863e-10 1.017325e-13) (-7.280066e-11 -9.435269e-10 5.276100e-13))
0.581959      	((-2.656781e-08 -2.218669e-08 -7.580013e-05) (-3.693083e-09 -9.917484e-10 -1.924551e-04)) ((6.165652e-13 -1.100403e-10 -1.221088e-13) (-6.038958e-11 -1.061367e-09 -1.169648e-12))
0.710351      	((-2.015531e-08 -1.528963e-08 -7.569893e-05) (-3.144415e-09 -1.024288e-09 -1.740573e-04)) ((6.350367e-13 -1.028636e-10 -8.821504e-14) (-4.620808e-11 -1.146437e-09 -1.587547e-12))
0.864421      	((-1.488102e-08 -9.872028e-09 -7.310419e-05) (-2.255471e-09 -8.089680e-10 -1.572527e-04)) ((4.650454e-13 -9.570954e-11 -1.665575e-14) (-3.464399e-11 -1.152130e-09 -1.530134e-12))
1.049306      	((-1.004094e-08 -3.722438e-09 -6.912973e-05) (-1.510409e-09 -4.619011e-10 -1.419239e-04)) ((3.316280e-13 -8.682743e-11 2.515308e-14) (-3.085236e-11 -1.012765e-09 -1.676103e-12))
1.271167      	((-4.508210e-09 -2.136332e-09 -6.449051e-05) (-8.012648e-10 -2.087035e-10 -1.280559e-04)) ((1.415853e-13 -7.946120e-11 -6.721163e-14) (-3.224344e-11 -7.408259e-10 -1.769560e-12))
1.5374        	((-4.360339e-10 -1.653074e-10 -5.976483e-05) (-2.717208e-10 -8.817849e-11 -1.156247e-04)) ((9.699243e-14 -7.409799e-11 -1.000503e-13) (-3.221907e-11 -4.400352e-10 -1.927896e-12))
1.85688       	((3.354693e-09 -1.523812e-09 -5.542942e-05) (2.513113e-11 -6.448821e-11 -1.045744e-04)) ((3.602985e-14 -6.776579e-11 -1.037510e-13) (-3.420443e-11 -2.615672e-10 -2.190662e-12))
2.240256      	((-5.432330e-09 -2.648067e-09 -5.166359e-05) (4.664418e-10 -1.316716e-10 -9.481403e-05)) ((-7.240595e-14 -6.119229e-11 -1.091466e-13) (-3.976606e-11 -2.240103e-10 -1.358810e-12))
2.700307      	((-7.314223e-09 -3.553474e-09 -4.855189e-05) (5.018607e-10 -2.295068e-10 -8.622001e-05)) ((-2.292622e-13 -5.575184e-11 -8.694866e-14) (-4.561602e-11 -2.717443e-10 -1.207063e-14))
3.252369      	((-8.291284e-09 -5.123927e-09 -4.610470e-05) (5.305541e-10 -3.430576e-10 -7.866253e-05)) ((-3.390803e-13 -5.214649e-11 -7.236509e-14) (-4.930684e-11 -3.160370e-10 9.557654e-13))
3.914842      	((-1.029477e-08 -1.057451e-08 -4.440326e-05) (8.990082e-10 -5.730387e-10 -7.203721e-05)) ((-4.462975e-13 -4.823299e-11 -8.062705e-14) (-5.160015e-11 -2.578241e-10 1.727252e-12))
4.709811      	((-1.067450e-08 -1.041335e-08 -4.344760e-05) (8.414654e-10 -8.301747e-10 -6.627346e-05)) ((-5.131264e-13 -4.451268e-11 -9.387415e-14) (-4.850550e-11 -1.549919e-10 2.527500e-12))
5.663773      	((-2.004647e-08 -1.930122e-08 -4.330777e-05) (1.737428e-10 -1.146930e-09 -6.130639e-05)) ((-4.148044e-13 -4.162710e-11 -8.010390e-14) (-3.583944e-11 -9.154125e-11 3.520391e-12))
6.808528      	((-2.498530e-08 -2.114697e-08 -4.405587e-05) (-7.562342e-10 -1.607886e-09 -5.705736e-05)) ((-3.896995e-13 -3.925577e-11 -9.040172e-14) (-1.862902e-11 -1.425844e-10 4.632063e-12))
8.182233      	((-2.496088e-08 -2.174209e-08 -4.567773e-05) (-1.392659e-09 -1.990582e-09 -5.343807e-05)) ((-3.618503e-13 -3.701986e-11 -5.702158e-14) (-7.687378e-13 -2.215617e-10 4.929047e-12))
9.83068       	((-2.932260e-08 -2.355152e-08 -4.812728e-05) (-2.274577e-09 -2.437167e-09 -5.038097e-05)) ((-3.688147e-13 -3.522301e-11 -4.266025e-14) (7.984509e-12 -2.394645e-10 4.438716e-12))
11.808816     	((-2.650613e-08 -2.139583e-08 -5.133262e-05) (-3.179965e-09 -2.848303e-09 -4.783759e-05)) ((-3.551405e-13 -3.335990e-11 -1.894467e-14) (1.327729e-12 -2.128624e-10 4.098082e-12))
14.182579     	((-1.851841e-08 -1.469500e-08 -5.518116e-05) (-3.459152e-09 -3.010258e-09 -4.574747e-05)) ((-3.259193e-13 -3.150945e-11 -2.810736e-14) (-1.050781e-11 -1.628706e-10 4.367458e-12))
16.955798     	((-1.852009e-08 -1.408925e-08 -5.948382e-05) (-3.929867e-09 -3.099629e-09 -4.410763e-05)) ((-2.026443e-13 -3.014849e-11 -1.441022e-14) (-2.028609e-11 -1.434035e-10 4.719344e-12))
20.129764     	((-2.075835e-08 -1.380696e-08 -6.392020e-05) (-4.129547e-09 -3.303810e-09 -4.285475e-05)) ((-1.224530e-13 -2.875181e-11 -3.280950e-16) (-2.351306e-11 -2.072945e-10 5.317872e-12))
23.704451     	((-2.600335e-08 -1.339906e-08 -6.820488e-05) (-5.176796e-09 -3.457832e-09 -4.189544e-05)) ((-2.987860e-14 -2.729129e-11 8.903850e-16) (-2.235339e-11 -3.766095e-10 4.983156e-12))
27.678558     	((-2.349229e-08 -9.691820e-09 -7.206435e-05) (-5.565495e-09 -2.801287e-09 -4.111594e-05)) ((3.610962e-14 -2.661001e-11 -4.642837e-15) (-9.139298e-12 -6.801992e-10 4.039330e-12))
31.656243     	((-1.651765e-08 -1.169576e-10 -7.520097e-05) (-4.267852e-09 -1.419701e-09 -4.049015e-05)) ((2.870974e-13 -2.692962e-11 1.559719e-14) (1.743222e-11 -9.837161e-10 4.341948e-12))
35.624854     	((-8.991922e-09 1.002113e-08 -7.748480e-05) (-1.900973e-09 3.563477e-10 -3.994972e-05)) ((2.742124e-13 -2.728329e-11 7.097212e-15) (4.709426e-11 -1.135271e-09 4.517092e-12))
39.597082     	((-5.339178e-09 1.764010e-08 -7.870223e-05) (-3.087914e-10 1.916839e-09 -3.944333e-05)) ((3.165690e-13 -2.728301e-11 -1.978340e-14) (6.522518e-11 -1.129780e-09 4.290235e-12))
43.585667     	((-7.079355e-09 2.202605e-08 -7.931468e-05) (1.048729e-10 3.120871e-09 -3.897582e-05)) ((3.246649e-13 -2.756052e-11 -5.281417e-15) (6.396709e-11 -1.090891e-09 4.732000e-12))
47.594281     	((-9.036797e-09 2.569307e-08 -7.937771e-05) (4.855610e-10 3.788867e-09 -3.853698e-05)) ((3.270817e-13 -2.792785e-11 -9.243625e-15) (4.851104e-11 -1.040546e-09 5.492442e-12))
51.619941     	((-1.325729e-08 3.000155e-08 -7.921677e-05) (5.256402e-10 4.217507e-09 -3.812411e-05)) ((4.205855e-13 -2.829556e-11 -2.504416e-14) (2.204218e-11 -9.640008e-10 4.897216e-12))
55.661138     	((-1.810440e-08 3.226469e-08 -7.880672e-05) (7.755267e-10 4.455174e-09 -3.774668e-05)) ((3.473463e-13 -2.853508e-11 -3.077461e-14) (-1.515793e-11 -8.804593e-10 4.859062e-12))
59.71958      	((-2.337073e-08 3.316006e-08 -7.830421e-05) (8.131506e-10 4.467996e-09 -3.739453e-05)) ((1.506836e-13 -2.843211e-11 -2.143148e-14) (-5.887421e-11 -7.814550e-10 4.852656e-12))
63.795808     	((-2.748717e-08 3.356999e-08 -7.779322e-05) (-3.809608e-11 4.188850e-09 -3.706574e-05)) ((1.015948e-13 -2.829251e-11 -3.368087e-16) (-1.073231e-10 -6.764401e-10 4.845355e-12))
67.889161     	((-2.873014e-08 3.356033e-08 -7.741960e-05) (-8.408743e-10 3.767550e-09 -3.676488e-05)) ((8.541876e-14 -2.810763e-11 1.739052e-14) (-1.543248e-10 -5.860311e-10 4.964576e-12))
71.998428     	((-2.824199e-08 3.271332e-08 -7.708639e-05) (-1.683820e-09 3.298789e-09 -3.648854e-05)) ((3.046340e-14 -2.786220e-11 3.474952e-14) (-2.022912e-10 -4.829161e-10 5.505023e-12))
76.122564     	((-2.066577e-08 3.606874e-08 -7.681990e-05) (-2.354014e-09 2.896118e-09 -3.623518e-05)) ((8.076324e-14 -2.763558e-11 4.603026e-14) (-2.444557e-10 -3.666175e-10 4.776169e-12))
80.260983     	((-1.977022e-08 3.432385e-08 -7.653104e-05) (-2.970244e-09 2.412592e-09 -3.600185e-05)) ((6.947535e-14 -2.726026e-11 4.772133e-14) (-2.795481e-10 -2.343806e-10 5.015739e-12))
84.412992     	((-5.493111e-09 4.176016e-08 -7.627452e-05) (-3.165974e-09 2.260694e-09 -3.578765e-05)) ((2.458613e-13 -2.707591e-11 4.344186e-14) (-3.090459e-10 -8.757882e-11 4.877019e-12))
88.577782     	((2.277415e-09 4.541703e-08 -7.597661e-05) (-3.026333e-09 2.382483e-09 -3.558931e-05)) ((3.049469e-13 -2.673457e-11 5.427840e-14) (-3.328028e-10 4.793460e-11 5.243547e-12))
92.749921     	((1.328581e-08 5.031471e-08 -7.573510e-05) (-2.815886e-09 2.622134e-09 -3.540764e-05)) ((3.511209e-13 -2.639506e-11 6.484000e-14) (-3.497186e-10 1.589287e-10 5.682184e-12))
96.927841     	((2.469166e-08 5.477476e-08 -7.548730e-05) (-2.174658e-09 2.988863e-09 -3.524094e-05)) ((3.565926e-13 -2.608126e-11 8.457859e-14) (-3.638000e-10 2.378815e-10 5.433702e-12))
101.11129     	((3.730135e-08 6.248729e-08 -7.529141e-05) (-1.233310e-09 3.501612e-09 -3.509023e-05)) ((4.595791e-13 -2.577409e-11 9.625706e-14) (-3.745442e-10 2.846597e-10 5.479284e-12))
105.300035    	((5.361463e-08 7.356338e-08 -7.504482e-05) (2.964247e-10 4.370565e-09 -3.495120e-05)) ((6.387625e-13 -2.557623e-11 9.696997e-14) (-3.837124e-10 3.128508e-10 4.735430e-12))
109.493863    	((6.893920e-08 8.509264e-08 -7.479535e-05) (2.394847e-09 5.592228e-09 -3.482057e-05)) ((8.548827e-13 -2.545963e-11 9.091638e-14) (-3.906859e-10 3.286479e-10 4.586013e-12))
113.692521    	((7.895821e-08 9.222467e-08 -7.457404e-05) (4.512906e-09 6.833447e-09 -3.469973e-05)) ((9.951840e-13 -2.531668e-11 9.798640e-14) (-3.934897e-10 3.308304e-10 4.763617e-12))
117.895765    	((8.775850e-08 9.901290e-08 -7.434199e-05) (6.427839e-09 7.949169e-09 -3.458697e-05)) ((1.124841e-12 -2.518454e-11 1.154274e-13) (-3.957132e-10 3.303505e-10 4.786516e-12))
122.103421    	((9.974112e-08 1.064402e-07 -7.411470e-05) (8.512164e-09 9.109353e-09 -3.448020e-05)) ((1.237761e-12 -2.515570e-11 1.202045e-13) (-3.931665e-10 3.346398e-10 4.754285e-12))
126.315315    	((1.136909e-07 1.179325e-07 -7.390353e-05) (1.084126e-08 1.054465e-08 -3.437908e-05)) ((1.375031e-12 -2.514059e-11 1.188836e-13) (-3.871670e-10 3.325799e-10 4.767071e-12))
130.531237    	((1.276394e-07 1.277897e-07 -7.366831e-05) (1.331801e-08 1.208570e-08 -3.428141e-05)) ((1.493268e-12 -2.517108e-11 1.231718e-13) (-3.818952e-10 3.228005e-10 4.793972e-12))
134.751009    	((1.424810e-07 1.407414e-07 -7.345389e-05) (1.591559e-08 1.372529e-08 -3.418783e-05)) ((1.621665e-12 -2.515246e-11 1.261778e-13) (-3.795756e-10 3.099598e-10 4.693032e-12))
138.974454    	((1.577377e-07 1.571393e-07 -7.325005e-05) (1.853427e-08 1.561445e-08 -3.409926e-05)) ((1.798808e-12 -2.517048e-11 1.283257e-13) (-3.784272e-10 2.944436e-10 4.366277e-12))
143.2014      	((1.752708e-07 1.726519e-07 -7.306749e-05) (2.124919e-08 1.764282e-08 -3.401608e-05)) ((1.936515e-12 -2.523453e-11 1.209835e-13) (-3.776859e-10 2.790836e-10 4.247221e-12))
147.431746    	((2.016372e-07 1.951883e-07 -7.289370e-05) (2.435468e-08 1.999923e-08 -3.393821e-05)) ((2.180078e-12 -2.544854e-11 1.133292e-13) (-3.808972e-10 2.704045e-10 4.253177e-12))
151.665404    	((2.300747e-07 2.175862e-07 -7.272656e-05) (2.786534e-08 2.263099e-08 -3.386514e-05)) ((2.405911e-12 -2.568681e-11 1.049298e-13) (-3.901332e-10 2.722501e-10 4.288160e-12))
155.902272    	((2.565514e-07 2.411652e-07 -7.256556e-05) (3.144174e-08 2.542103e-08 -3.379644e-05)) ((2.625490e-12 -2.583985e-11 9.835810e-14) (-4.058949e-10 2.889250e-10 4.429896e-12))
160.142267    	((2.898999e-07 2.698858e-07 -7.242074e-05) (3.505046e-08 2.844103e-08 -3.373223e-05)) ((2.854545e-12 -2.599370e-11 9.692140e-14) (-4.302783e-10 3.243398e-10 4.601491e-12))
164.385144    	((3.220284e-07 2.964938e-07 -7.230105e-05) (3.860913e-08 3.152204e-08 -3.367349e-05)) ((3.026999e-12 -2.607328e-11 9.318298e-14) (-4.631768e-10 3.778907e-10 4.838257e-12))
168.630701    	((3.702642e-07 3.337165e-07 -7.217698e-05) (4.279641e-08 3.510013e-08 -3.361922e-05)) ((3.318979e-12 -2.634702e-11 7.878116e-14) (-5.040684e-10 4.486733e-10 5.064591e-12))
172.878783    	((4.212505e-07 3.735475e-07 -7.203925e-05) (4.756397e-08 3.917996e-08 -3.356754e-05)) ((3.634407e-12 -2.660235e-11 6.144906e-14) (-5.521717e-10 5.361437e-10 5.135385e-12))
177.129241    	((4.781850e-07 4.158137e-07 -7.189882e-05) (5.279330e-08 4.360438e-08 -3.351772e-05)) ((3.937990e-12 -2.686678e-11 4.255843e-14) (-6.068374e-10 6.398375e-10 5.161101e-12))
181.381919    	((5.439489e-07 4.646944e-07 -7.176103e-05) (5.876219e-08 4.860682e-08 -3.346961e-05)) ((4.301768e-12 -2.717335e-11 2.164714e-14) (-6.686227e-10 7.605844e-10 5.124254e-12))
185.636696    	((6.136054e-07 5.147841e-07 -7.163386e-05) (6.535584e-08 5.402433e-08 -3.342333e-05)) ((4.655028e-12 -2.746922e-11 3.453375e-15) (-7.365618e-10 8.974357e-10 4.969355e-12))
189.893491    	((6.904671e-07 5.709510e-07 -7.151846e-05) (7.260581e-08 5.993459e-08 -3.337904e-05)) ((5.057599e-12 -2.780202e-11 -1.623195e-14) (-8.123429e-10 1.047826e-09 4.841862e-12))
194.152224    	((7.737368e-07 6.310904e-07 -7.141811e-05) (8.061307e-08 6.640323e-08 -3.333705e-05)) ((5.474639e-12 -2.815429e-11 -2.930259e-14) (-8.963934e-10 1.210129e-09 4.790110e-12))
198.41281     	((8.634954e-07 6.969756e-07 -7.132600e-05) (8.942086e-08 7.343977e-08 -3.329744e-05)) ((5.930121e-12 -2.852907e-11 -4.078904e-14) (-9.880108e-10 1.382368e-09 4.945648e-12))
202.675171    	((9.605707e-07 7.699606e-07 -7.124148e-05) (9.908547e-08 8.116639e-08 -3.326014e-05)) ((6.448139e-12 -2.895891e-11 -6.191036e-14) (-1.086943e-09 1.562533e-09 5.138994e-12))
206.939235    	((1.064864e-06 8.493786e-07 -7.116125e-05) (1.096741e-07 8.965597e-08 -3.322502e-05)) ((7.022773e-12 -2.944654e-11 -8.846066e-14) (-1.192922e-09 1.748139e-09 5.155929e-12))
211.204932    	((1.176740e-06 9.361260e-07 -7.108368e-05) (1.212755e-07 9.899062e-08 -3.319180e-05)) ((7.656481e-12 -3.001345e-11 -1.136998e-13) (-1.306227e-09 1.935375e-09 5.190694e-12))
215.472189    	((1.296149e-06 1.031155e-06 -7.100824e-05) (1.339918e-07 1.092865e-07 -3.316018e-05)) ((8.353149e-12 -3.065221e-11 -1.348226e-13) (-1.426001e-09 2.120180e-09 5.086384e-12))
219.740927    	((1.423623e-06 1.135005e-06 -7.093510e-05) (1.479436e-07 1.206927e-07 -3.313006e-05)) ((9.110420e-12 -3.136415e-11 -1.567043e-13) (-1.549344e-09 2.299396e-09 4.835851e-12))
224.011069    	((1.559210e-06 1.247546e-06 -7.086332e-05) (1.632088e-07 1.332619e-07 -3.310134e-05)) ((9.922365e-12 -3.214736e-11 -1.837993e-13) (-1.676439e-09 2.471788e-09 4.799684e-12))
228.282537    	((1.703827e-06 1.369991e-06 -7.079371e-05) (1.798458e-07 1.470235e-07 -3.307400e-05)) ((1.080460e-11 -3.301346e-11 -2.167636e-13) (-1.811133e-09 2.639105e-09 4.987159e-12))
232.555255    	((1.857628e-06 1.503055e-06 -7.072840e-05) (1.978325e-07 1.620168e-07 -3.304812e-05)) ((1.176517e-11 -3.397173e-11 -2.559158e-13) (-1.957392e-09 2.805637e-09 4.975597e-12))
236.829149    	((2.023192e-06 1.649149e-06 -7.066654e-05) (2.172764e-07 1.783862e-07 -3.302372e-05)) ((1.283646e-11 -3.505845e-11 -2.931249e-13) (-2.118279e-09 2.973420e-09 4.422926e-12))
241.104138    	((2.204728e-06 1.811397e-06 -7.060950e-05) (2.385158e-07 1.964266e-07 -3.300081e-05)) ((1.403503e-11 -3.632279e-11 -3.359663e-13) (-2.293838e-09 3.142709e-09 4.012954e-12))
245.380137    	((2.403029e-06 1.990470e-06 -7.055626e-05) (2.618769e-07 2.164082e-07 -3.297928e-05)) ((1.537644e-11 -3.776351e-11 -3.873858e-13) (-2.481514e-09 3.310964e-09 4.101775e-12))
249.657067    	((2.622441e-06 2.189319e-06 -7.050594e-05) (2.877245e-07 2.386187e-07 -3.295904e-05)) ((1.688464e-11 -3.941917e-11 -4.462831e-13) (-2.680774e-09 3.479425e-09 4.171886e-12))
253.934853    	((2.866943e-06 2.411144e-06 -7.045802e-05) (3.164413e-07 2.634499e-07 -3.294002e-05)) ((1.859701e-11 -4.129999e-11 -5.114393e-13) (-2.892135e-09 3.655919e-09 4.933069e-12))
258.213416    	((3.138949e-06 2.657166e-06 -7.041106e-05) (3.483305e-07 2.911411e-07 -3.292210e-05)) ((2.051287e-11 -4.342621e-11 -5.843223e-13) (-3.121411e-09 3.847466e-09 6.977967e-12))
262.492679    	((3.442531e-06 2.929627e-06 -7.036742e-05) (3.838113e-07 3.219488e-07 -3.290523e-05)) ((2.264973e-11 -4.580393e-11 -6.692469e-13) (-3.371494e-09 4.057052e-09 9.189873e-12))
266.772565    	((3.781139e-06 3.230163e-06 -7.032987e-05) (4.231995e-07 3.560999e-07 -3.288952e-05)) ((2.494733e-11 -4.839232e-11 -7.552110e-13) (-3.645995e-09 4.295219e-09 1.131223e-11))
271.053003    	((4.160065e-06 3.562430e-06 -7.029832e-05) (4.669795e-07 3.939081e-07 -3.287501e-05)) ((2.741918e-11 -5.123027e-11 -8.322817e-13) (-3.947600e-09 4.572773e-09 1.428412e-11))
275.333931    	((4.580276e-06 3.930166e-06 -7.027504e-05) (5.155496e-07 4.358148e-07 -3.286182e-05)) ((3.014694e-11 -5.431559e-11 -9.188888e-13) (-4.279684e-09 4.896605e-09 1.867049e-11))
279.61528     	((5.047451e-06 4.334098e-06 -7.026103e-05) (5.691998e-07 4.820858e-07 -3.285022e-05)) ((3.310746e-11 -5.763608e-11 -1.016248e-12) (-4.647525e-09 5.282114e-09 2.283139e-11))
283.896992    	((5.564294e-06 4.776908e-06 -7.025842e-05) (6.282670e-07 5.329852e-07 -3.284046e-05)) ((3.626409e-11 -6.116459e-11 -1.103829e-12) (-5.053843e-09 5.736196e-09 2.680744e-11))
