# Forces      
# CofR        : (0.000000e+00 0.000000e+00 0.000000e+00)
# Time        forces(pressure viscous)	moments(pressure viscous)
0             	((0.000000e+00 0.000000e+00 0.000000e+00) (0.000000e+00 0.000000e+00 0.000000e+00)) ((0.000000e+00 0.000000e+00 0.000000e+00) (0.000000e+00 0.000000e+00 0.000000e+00))
0.012         	((1.068889e-08 -9.056883e-09 -2.193291e-06) (2.689331e-10 -5.038185e-11 -4.950241e-08)) ((1.989685e-12 -8.973048e-08 -7.456853e-13) (-5.480446e-13 -5.568053e-05 1.957125e-12))
0.0264        	((-3.492185e-08 3.178311e-09 7.883757e-07) (-8.227892e-10 -1.214697e-10 -8.858391e-08)) ((8.469503e-13 -5.026222e-08 -4.181539e-12) (-4.304148e-13 -5.102662e-05 2.969797e-12))
0.04368       	((-9.481851e-08 -5.159911e-08 -6.996413e-07) (-1.795684e-09 -1.006547e-10 -1.001871e-07)) ((7.665403e-14 -3.417354e-08 -2.959306e-12) (5.242054e-12 -4.634633e-05 -6.623695e-14))
0.064416      	((6.511111e-08 8.912453e-09 1.701850e-07) (-2.693246e-09 1.497341e-10 -8.422310e-08)) ((-3.661760e-13 -2.616713e-08 -4.487522e-14) (1.713610e-11 -4.181947e-05 -4.284790e-12))
0.0892992     	((-1.495984e-07 -1.853959e-08 -1.670100e-07) (-4.975461e-09 4.376599e-10 -6.657684e-08)) ((-1.658464e-13 -2.327729e-08 -1.029405e-12) (2.955664e-11 -3.763413e-05 -6.361425e-12))
0.119159      	((-4.126334e-08 1.466184e-08 -1.939822e-07) (-2.085842e-09 6.953144e-10 -5.460759e-08)) ((1.458536e-12 -1.972709e-08 2.006811e-13) (3.988585e-11 -3.392134e-05 -7.939149e-12))
0.154991      	((-4.060723e-08 5.144419e-09 -4.840418e-08) (7.236712e-09 9.551077e-10 -4.245072e-08)) ((1.852622e-12 -1.770345e-08 -6.900279e-13) (4.626276e-11 -3.071164e-05 -8.426677e-12))
0.197989      	((5.681880e-08 4.736404e-09 -7.422171e-08) (2.252489e-08 1.049057e-09 -2.955718e-08)) ((1.938047e-12 -1.583189e-08 -1.234335e-12) (4.367229e-11 -2.793238e-05 -1.056080e-11))
0.249587      	((-3.808177e-08 8.008072e-10 -1.870140e-08) (3.687532e-08 1.081989e-09 -2.055804e-08)) ((4.365099e-13 -1.429828e-08 -1.950785e-12) (4.438379e-11 -2.540328e-05 -4.597650e-12))
0.311504      	((5.094005e-08 1.766606e-09 2.136195e-08) (4.620831e-08 1.037032e-09 -1.406791e-08)) ((-9.123339e-14 -1.283068e-08 -1.893306e-12) (4.296989e-11 -2.298645e-05 2.125131e-12))
0.385805      	((2.157645e-08 -4.292733e-09 6.321109e-08) (3.954839e-08 6.639789e-10 -8.275536e-09)) ((-3.993179e-13 -1.142253e-08 -2.055255e-12) (4.437189e-11 -2.068079e-05 2.278872e-12))
0.474966      	((4.997589e-08 -1.152913e-08 9.352575e-09) (1.839598e-08 4.372337e-10 -1.071971e-08)) ((-1.150411e-12 -1.005812e-08 -2.292738e-12) (5.420367e-11 -1.853158e-05 1.073079e-11))
0.581959      	((2.979312e-08 -1.248781e-08 3.203830e-08) (3.628291e-09 7.523239e-10 -2.267483e-08)) ((-1.040773e-12 -8.779544e-09 -2.871229e-12) (5.320815e-11 -1.658012e-05 1.729680e-11))
0.710351      	((1.507555e-07 -8.173768e-09 3.182872e-08) (-1.004125e-09 2.689763e-10 -2.088957e-08)) ((-2.591354e-12 -7.534418e-09 -2.245569e-12) (2.879150e-11 -1.484862e-05 7.824826e-12))
0.864421      	((-1.416295e-08 8.765733e-09 2.520529e-08) (2.035074e-09 -3.933563e-10 4.121531e-09)) ((-2.081517e-12 -6.511835e-09 4.948081e-13) (5.217554e-12 -1.332678e-05 1.069661e-12))
1.049306      	((5.267512e-08 2.381914e-08 7.127597e-08) (8.072468e-10 -4.938155e-10 2.152542e-08)) ((-2.359105e-12 -5.771204e-09 1.939276e-12) (-4.414873e-11 -1.198973e-05 -5.472242e-11))
1.271167      	((6.628580e-08 4.639053e-09 1.325894e-07) (7.494602e-09 1.125093e-09 2.027492e-08)) ((-7.840561e-12 -5.200513e-09 3.442024e-12) (-3.196249e-11 -1.081996e-05 -8.729794e-11))
1.5374        	((2.012006e-07 3.689205e-08 1.471842e-07) (1.598301e-08 9.764073e-10 1.367537e-08)) ((-9.901843e-12 -4.764329e-09 6.068419e-12) (1.306339e-11 -9.806512e-06 -9.768921e-11))
1.85688       	((1.196956e-07 1.890464e-08 9.503355e-08) (1.618415e-08 -1.316882e-09 5.663379e-09)) ((-6.933596e-12 -4.381597e-09 1.293042e-12) (7.136567e-11 -8.938470e-06 -3.083460e-11))
2.240256      	((9.275005e-08 2.774878e-08 6.601711e-08) (9.039006e-09 -1.658286e-09 1.309488e-08)) ((-5.921102e-12 -3.975210e-09 -4.536202e-12) (2.058018e-10 -8.199601e-06 8.768400e-11))
2.700307      	((3.802943e-08 3.204111e-08 1.043304e-07) (1.616572e-08 -1.974759e-09 1.622699e-08)) ((-6.607617e-12 -3.563537e-09 -2.731360e-12) (3.277409e-10 -7.568809e-06 1.958279e-10))
3.252369      	((5.762711e-08 2.116705e-08 1.192230e-07) (4.895488e-08 -4.822028e-09 1.326073e-08)) ((-3.903544e-12 -3.182158e-09 -7.342486e-12) (4.365906e-10 -7.023836e-06 3.211111e-10))
3.914842      	((7.396323e-08 1.525681e-08 1.595146e-07) (6.164193e-08 -1.909347e-09 1.410979e-09)) ((-1.105638e-12 -2.843611e-09 -6.930144e-12) (5.332371e-10 -6.546987e-06 4.632019e-10))
4.709811      	((5.441115e-08 1.987326e-08 1.365837e-07) (6.528010e-08 -1.055711e-09 -6.984213e-09)) ((-9.801067e-13 -2.562473e-09 -8.751040e-12) (5.447879e-10 -6.125962e-06 5.928251e-10))
5.663773      	((6.280241e-08 1.395296e-08 1.323186e-07) (8.537731e-08 -3.597228e-09 1.756910e-08)) ((1.376722e-12 -2.317808e-09 -8.046863e-12) (4.094006e-10 -5.751886e-06 6.853949e-10))
6.808528      	((5.985906e-08 -1.021619e-08 7.931769e-08) (7.132103e-08 -7.283412e-09 1.077699e-08)) ((4.655000e-12 -2.109654e-09 -7.947267e-12) (2.371610e-10 -5.417916e-06 7.041007e-10))
8.168683      	((8.195026e-08 -2.417764e-08 7.836981e-08) (6.573592e-08 -8.674249e-09 -7.748287e-09)) ((5.299221e-12 -1.928964e-09 -4.708967e-12) (1.069755e-10 -5.121989e-06 6.743599e-10))
9.748278      	((6.513678e-08 -2.727907e-08 3.811603e-08) (6.150142e-08 -7.642488e-09 -7.437000e-09)) ((5.103927e-12 -1.801658e-09 -2.598646e-12) (-5.461771e-12 -4.865752e-06 6.194846e-10))
11.55199      	((4.899022e-08 -2.401187e-08 4.809490e-08) (5.462081e-08 -4.498068e-09 -1.278355e-08)) ((5.159196e-12 -1.704250e-09 -1.155910e-12) (-1.301852e-10 -4.650380e-06 5.864496e-10))
13.585014     	((3.660807e-08 -1.462621e-08 4.544020e-08) (5.395184e-08 -2.979699e-09 -7.072148e-09)) ((5.645124e-12 -1.624831e-09 -3.587748e-13) (-3.140283e-10 -4.475306e-06 5.401736e-10))
15.853483     	((2.073398e-08 -1.954475e-08 3.423855e-08) (5.085459e-08 -4.644374e-09 -1.496569e-08)) ((4.746480e-12 -1.565655e-09 -3.902387e-13) (-4.690920e-10 -4.338568e-06 4.885504e-10))
18.270569     	((9.745485e-09 -9.125658e-09 2.512882e-08) (4.295509e-08 -3.303317e-09 -2.154105e-08)) ((3.892934e-12 -1.523210e-09 -1.842782e-13) (-6.137667e-10 -4.240651e-06 4.189490e-10))
20.755979     	((9.114462e-09 1.019802e-09 1.722073e-08) (4.570244e-08 1.996862e-09 -3.641288e-09)) ((2.432367e-12 -1.493784e-09 -4.079237e-14) (-6.722380e-10 -4.178640e-06 2.974404e-10))
23.268644     	((-7.707108e-09 4.478598e-09 1.424009e-08) (3.781100e-08 5.417039e-09 -3.746898e-09)) ((3.374302e-12 -1.464002e-09 4.729409e-13) (-6.898727e-10 -4.149067e-06 1.951747e-10))
25.781643     	((4.542629e-09 5.311110e-09 3.521664e-08) (3.753654e-08 6.809325e-09 -7.305676e-09)) ((2.776756e-12 -1.439930e-09 1.593721e-12) (-5.830593e-10 -4.148742e-06 1.533886e-10))
28.280927     	((4.034674e-08 3.845035e-09 5.637586e-08) (3.977340e-08 5.304401e-09 -4.336501e-09)) ((1.110275e-12 -1.423369e-09 2.819026e-12) (-4.600651e-10 -4.174963e-06 1.502949e-10))
30.753171     	((5.457332e-08 9.024320e-10 9.347407e-08) (3.326092e-08 6.177623e-09 -1.355084e-08)) ((8.315421e-13 -1.416796e-09 2.207450e-12) (-3.992866e-10 -4.225778e-06 2.004307e-10))
33.189572     	((6.061784e-08 -3.209907e-09 1.065818e-07) (2.508885e-08 6.521110e-09 -1.608796e-08)) ((-1.130275e-13 -1.423166e-09 1.306750e-12) (-3.780442e-10 -4.298611e-06 3.088837e-10))
35.586848     	((5.249599e-08 -3.362100e-09 9.156931e-08) (1.035831e-08 5.423712e-09 -8.872429e-09)) ((-3.596143e-13 -1.444803e-09 7.921140e-13) (-4.332112e-10 -4.390136e-06 4.045394e-10))
37.944935     	((4.879467e-08 -7.188560e-09 6.652370e-08) (5.937200e-10 5.380011e-09 2.320004e-09)) ((-1.016523e-12 -1.483436e-09 4.466599e-13) (-5.184847e-10 -4.495146e-06 4.693673e-10))
40.265022     	((2.828805e-08 -6.799334e-09 3.204601e-08) (-8.531542e-11 4.816175e-09 1.001500e-08)) ((-4.877081e-13 -1.525403e-09 3.642275e-13) (-6.079841e-10 -4.605640e-06 4.655368e-10))
42.550512     	((9.046312e-09 -3.027531e-09 -4.892675e-08) (3.407787e-09 6.537123e-09 8.939727e-09)) ((-2.412969e-13 -1.563741e-09 1.075169e-12) (-6.878453e-10 -4.711980e-06 4.223142e-10))
44.805617     	((-2.159573e-09 2.880438e-09 -9.498735e-08) (2.958102e-09 7.486680e-09 7.119046e-09)) ((-3.886401e-15 -1.599315e-09 2.993702e-12) (-7.660790e-10 -4.805206e-06 3.694761e-10))
47.034995     	((-2.558057e-08 1.278742e-08 -1.129385e-07) (-6.176814e-09 7.875058e-09 1.912513e-09)) ((1.237278e-12 -1.639445e-09 4.739744e-12) (-7.970238e-10 -4.877877e-06 2.978674e-10))
49.230101     	((-1.116306e-08 1.913353e-08 -9.870013e-08) (-1.426242e-08 1.135300e-08 -8.625435e-09)) ((2.372552e-12 -1.676444e-09 4.997903e-12) (-7.243384e-10 -4.925715e-06 1.760471e-10))
51.380606     	((-1.490851e-08 4.217058e-09 -1.118981e-07) (4.767982e-09 1.246012e-08 -1.033395e-09)) ((5.162843e-12 -1.717966e-09 5.710776e-12) (-5.723562e-10 -4.949245e-06 7.042524e-11))
53.498323     	((-1.501940e-08 2.093562e-08 -7.207283e-08) (2.728581e-08 1.355449e-08 2.588216e-09)) ((5.351258e-12 -1.746232e-09 5.434453e-12) (-4.012209e-10 -4.952848e-06 5.479436e-11))
55.592243     	((-2.060074e-08 2.946333e-08 -4.591600e-08) (5.042495e-08 1.224112e-08 6.755994e-09)) ((5.456855e-12 -1.760938e-09 5.979516e-12) (-2.947028e-10 -4.942004e-06 5.513750e-11))
57.669962     	((-8.006877e-08 1.887935e-08 -4.151818e-08) (5.421740e-08 1.073750e-08 8.074408e-09)) ((4.538372e-12 -1.767488e-09 5.826408e-12) (-2.060394e-10 -4.922281e-06 8.777673e-11))
59.736623     	((-3.362410e-08 4.584565e-09 3.877135e-08) (4.509555e-08 9.937883e-09 9.201338e-09)) ((2.881476e-12 -1.765873e-09 4.900711e-12) (-9.971708e-11 -4.897487e-06 2.026415e-10))
