# Forces      
# CofR        : (0.000000e+00 0.000000e+00 0.000000e+00)
# Time        forces(pressure viscous)	moments(pressure viscous)
0             	((0.000000e+00 0.000000e+00 0.000000e+00) (9.029799e-16 -2.005205e-05 -1.293429e-15)) ((0.000000e+00 0.000000e+00 0.000000e+00) (6.524954e-17 -9.134316e-18 7.224605e-12))
0.012         	((-5.824807e-10 -5.831534e-03 1.079894e-09) (1.231126e-11 -2.301339e-05 1.740820e-11)) ((-2.400654e-12 -3.449351e-14 1.102031e-09) (-1.970625e-13 -2.764101e-15 1.503056e-11))
0.0264        	((-1.202411e-07 4.013476e-04 -1.054757e-07) (-6.948968e-11 -2.348377e-05 -6.105584e-11)) ((5.413147e-12 -2.941622e-13 -7.328288e-11) (-5.753709e-14 6.540899e-14 2.037647e-11))
0.04368       	((7.047062e-08 1.221194e-03 1.173615e-07) (-7.791941e-11 -2.087192e-05 -3.859403e-11)) ((2.585302e-12 -2.901947e-13 -2.930961e-10) (6.997235e-13 7.928425e-14 1.759116e-11))
0.064416      	((5.529700e-09 1.157117e-05 -1.377623e-08) (-2.139648e-10 -1.848767e-05 -2.375588e-10)) ((-2.034812e-12 1.130667e-14 1.311495e-11) (-2.100990e-12 1.408319e-14 2.224927e-11))
0.0892992     	((4.800269e-09 -1.623459e-05 -1.820369e-08) (-3.363411e-10 -1.706882e-05 -3.937250e-10)) ((-4.137445e-13 7.923182e-13 1.611645e-11) (-4.464553e-12 1.399290e-13 2.442074e-11))
0.119159      	((-6.283276e-09 1.822794e-05 -1.188185e-08) (-3.300364e-10 -1.576165e-05 -3.498495e-10)) ((-1.780530e-12 -5.356201e-14 -4.152991e-12) (-3.994308e-13 1.731284e-13 2.068664e-11))
0.154991      	((2.286882e-09 9.844420e-06 3.903271e-09) (-3.223511e-10 -1.437511e-05 -3.167428e-10)) ((-1.007065e-12 -1.492423e-13 -1.299206e-12) (3.316161e-12 9.154735e-14 1.467675e-11))
0.197989      	((4.909614e-09 2.384728e-06 1.662915e-09) (-2.388651e-10 -1.297517e-05 -1.911246e-10)) ((-1.277951e-12 1.323490e-13 -2.938720e-13) (2.161711e-12 1.325642e-13 3.290034e-12))
0.249587      	((2.632865e-10 -3.182041e-07 2.016894e-09) (-1.382767e-10 -1.160133e-05 -7.980296e-11)) ((-8.745306e-13 -6.463899e-14 9.458455e-13) (2.392919e-13 4.351101e-13 -2.072211e-12))
0.311504      	((2.980709e-11 -1.556443e-06 4.397287e-10) (-3.788490e-11 -1.029464e-05 -1.551928e-11)) ((-5.599132e-13 5.454303e-15 1.515479e-12) (-5.948463e-13 5.086110e-13 -3.516184e-12))
0.385805      	((3.259970e-10 -2.147772e-06 5.091875e-10) (3.527735e-11 -9.088184e-06 2.075175e-11)) ((-4.168399e-13 2.096225e-14 1.262110e-12) (-1.369787e-12 3.758285e-13 -6.076961e-12))
0.474966      	((3.440458e-10 -2.427216e-06 6.124686e-10) (6.474513e-11 -8.006116e-06 2.980167e-11)) ((-2.434842e-13 2.170959e-14 1.038848e-12) (-1.516988e-12 3.442709e-13 -4.674252e-12))
0.581959      	((1.463397e-10 -2.539802e-06 4.235995e-10) (7.635057e-11 -7.058729e-06 2.941253e-11)) ((-1.581671e-13 1.965149e-14 8.753848e-13) (-1.375882e-12 2.838865e-13 1.235123e-12))
0.710351      	((1.026435e-10 -2.530381e-06 1.098252e-10) (9.731962e-11 -6.246332e-06 1.282303e-11)) ((-8.690088e-14 1.623550e-14 7.139328e-13) (-8.069584e-13 2.616362e-13 5.631565e-12))
0.864421      	((1.167350e-10 -2.439041e-06 6.527954e-11) (1.624596e-10 -5.558531e-06 4.516071e-12)) ((-4.712047e-14 1.506584e-14 7.324152e-13) (-5.967052e-13 1.832470e-13 5.459473e-12))
1.049306      	((1.273408e-10 -2.304733e-06 -9.061816e-12) (2.175528e-10 -4.977846e-06 9.307952e-12)) ((-1.987392e-14 1.309802e-14 7.197646e-13) (-3.677287e-13 7.679583e-14 3.155374e-12))
1.271167      	((1.736436e-10 -2.155595e-06 3.134924e-11) (2.180039e-10 -4.486194e-06 1.855233e-11)) ((-6.221650e-15 9.453245e-15 6.553091e-13) (-2.189910e-13 4.998370e-14 1.206247e-12))
1.5374        	((1.673821e-10 -2.003318e-06 1.458705e-11) (1.818701e-10 -4.064395e-06 1.775133e-11)) ((-1.883968e-16 5.893728e-15 6.468274e-13) (1.260620e-14 8.311471e-14 -3.030655e-13))
1.85688       	((1.610998e-10 -1.854522e-06 7.227341e-12) (1.486341e-10 -3.695020e-06 1.306765e-11)) ((-1.871585e-15 3.806897e-15 6.541368e-13) (3.520899e-13 1.156596e-13 -7.303176e-13))
2.240256      	((7.085038e-11 -1.713311e-06 -2.130130e-11) (1.250028e-10 -3.366668e-06 1.294401e-11)) ((-5.744747e-15 2.676374e-15 6.577447e-13) (6.425437e-13 1.256255e-13 3.416147e-13))
2.700307      	((2.842032e-11 -1.581430e-06 -1.887579e-11) (1.002264e-10 -3.072257e-06 1.366705e-11)) ((-6.378309e-15 1.694063e-15 6.553505e-13) (9.643115e-13 1.302841e-13 2.424604e-12))
3.252369      	((4.563006e-11 -1.458438e-06 -4.342934e-11) (7.898740e-11 -2.807004e-06 1.500677e-11)) ((-6.605801e-15 1.845648e-15 6.107333e-13) (1.259337e-12 1.107135e-13 5.853366e-12))
3.914842      	((5.793117e-11 -1.342650e-06 -4.689573e-11) (7.954408e-11 -2.567388e-06 1.570109e-11)) ((-6.692572e-15 2.251895e-15 5.533517e-13) (1.538592e-12 7.491364e-14 9.261348e-12))
4.709811      	((6.357432e-11 -1.234913e-06 -2.781186e-11) (7.374221e-11 -2.350909e-06 1.413393e-11)) ((-6.582750e-15 3.266815e-15 4.936714e-13) (1.780538e-12 6.100460e-14 1.061390e-11))
5.663773      	((1.261867e-10 -1.135628e-06 2.827285e-11) (6.114152e-11 -2.155708e-06 1.213965e-11)) ((-8.120484e-15 3.209086e-15 4.450095e-13) (1.910996e-12 5.043704e-14 1.024297e-11))
6.808528      	((1.409232e-10 -1.044680e-06 3.428948e-11) (5.768324e-11 -1.980179e-06 9.717786e-12)) ((-9.582167e-15 1.590071e-15 3.909438e-13) (1.953756e-12 4.485843e-14 9.685711e-12))
8.182233      	((1.150446e-10 -9.616722e-07 7.495965e-12) (4.317528e-11 -1.822635e-06 8.893082e-12)) ((-8.788662e-15 1.661458e-15 3.365078e-13) (2.021499e-12 4.303385e-14 9.451134e-12))
9.83068       	((1.147805e-10 -8.863179e-07 -2.329277e-11) (2.229693e-11 -1.681114e-06 6.223904e-12)) ((-8.798737e-15 3.075639e-15 2.912322e-13) (2.465071e-12 3.617058e-14 8.740481e-12))
11.808816     	((1.051074e-10 -8.173838e-07 -3.024075e-11) (5.655640e-12 -1.553549e-06 5.046845e-12)) ((-6.817978e-15 3.662902e-15 2.520243e-13) (3.469141e-12 1.139761e-14 7.565546e-12))
14.182579     	((1.126112e-10 -7.543619e-07 -1.883637e-11) (-9.618882e-12 -1.438090e-06 7.029422e-12)) ((-6.448261e-15 2.867565e-15 2.184289e-13) (4.808128e-12 -3.303818e-14 6.240830e-12))
17.031095     	((5.884222e-11 -6.970243e-07 -5.147780e-11) (-1.906504e-11 -1.333177e-06 5.993051e-12)) ((-5.804134e-15 1.496745e-15 1.899909e-13) (6.537534e-12 -4.431901e-14 5.033384e-12))
20.449314     	((-3.627943e-11 -6.448184e-07 -1.180132e-10) (-2.343735e-11 -1.237629e-06 3.836926e-12)) ((-5.954490e-15 3.662159e-16 1.687144e-13) (8.466684e-12 -2.746290e-14 3.945373e-12))
24.551176     	((-8.307257e-11 -5.974084e-07 -1.516494e-10) (-1.838478e-11 -1.150592e-06 1.684485e-12)) ((-5.292689e-15 -7.297841e-16 1.520253e-13) (1.019374e-11 1.824338e-14 2.754271e-12))
29.473411     	((-6.457258e-11 -5.545624e-07 -1.202760e-10) (-1.418075e-11 -1.071426e-06 3.116679e-12)) ((-4.649059e-15 -1.167540e-15 1.377940e-13) (1.152830e-11 7.401019e-14 1.381259e-12))
35.380094     	((-5.853783e-11 -5.158262e-07 -1.085851e-10) (-1.165619e-11 -9.995785e-07 4.990469e-12)) ((-2.953892e-15 -6.236649e-16 1.278857e-13) (1.259775e-11 7.610224e-14 -6.130145e-14))
42.468112     	((-9.233907e-11 -4.811641e-07 -1.553956e-10) (-5.943360e-12 -9.345025e-07 3.699821e-12)) ((-1.847522e-15 5.990419e-18 1.210578e-13) (1.375897e-11 5.391306e-14 -1.823644e-12))
50.973735     	((-1.127168e-10 -4.502884e-07 -1.886398e-10) (-2.980908e-12 -8.756512e-07 1.036237e-12)) ((-2.029351e-15 4.528578e-16 1.153966e-13) (1.534195e-11 3.710644e-14 -3.950688e-12))
61.180482     	((-9.106024e-11 -4.229608e-07 -1.698557e-10) (-5.683416e-13 -8.224803e-07 1.888523e-12)) ((-2.534962e-15 5.473579e-16 1.117337e-13) (1.748229e-11 1.197856e-14 -6.706775e-12))
73.428578     	((-6.391101e-11 -3.989023e-07 -1.369795e-10) (1.929007e-12 -7.744629e-07 4.521041e-12)) ((-2.487333e-15 6.114155e-16 1.098852e-13) (2.019493e-11 -6.913695e-15 -1.003440e-11))
88.126294     	((-1.222326e-11 -3.779179e-07 -1.052182e-10) (7.426967e-12 -7.311087e-07 8.032316e-12)) ((-2.122927e-15 5.954902e-16 1.097611e-13) (2.334588e-11 -1.555540e-14 -1.388912e-11))
105.763553    	((3.746307e-11 -3.598164e-07 -6.059720e-11) (1.451791e-11 -6.919929e-07 1.253468e-11)) ((-1.872084e-15 8.592393e-16 1.108230e-13) (2.667785e-11 -3.519381e-14 -1.800809e-11))
126.928263    	((6.211340e-11 -3.445634e-07 -4.105367e-11) (2.101008e-11 -6.567938e-07 1.602503e-11)) ((-1.828478e-15 1.168232e-15 1.113860e-13) (2.993605e-11 -4.956700e-14 -2.208632e-11))
152.325916    	((8.191497e-11 -3.319293e-07 -1.792298e-11) (2.569128e-11 -6.252578e-07 1.839278e-11)) ((-2.078979e-15 1.223348e-15 1.131240e-13) (3.282019e-11 -5.976860e-14 -2.576664e-11))
182.803099    	((9.480048e-11 -3.217985e-07 2.452441e-12) (2.720590e-11 -5.971738e-07 2.019825e-11)) ((-2.016134e-15 1.310272e-15 1.159752e-13) (3.515507e-11 -6.835130e-14 -2.879592e-11))
219.375719    	((1.203762e-10 -3.138861e-07 3.563004e-11) (2.794208e-11 -5.723628e-07 2.160831e-11)) ((-2.024536e-15 1.262137e-15 1.204161e-13) (3.691517e-11 -5.555264e-14 -3.111489e-11))
263.262863    	((1.568233e-10 -3.080197e-07 8.274000e-11) (3.223853e-11 -5.506612e-07 2.395540e-11)) ((-2.109250e-15 1.393524e-15 1.266188e-13) (3.805228e-11 -2.350339e-14 -3.265976e-11))
315.927436    	((1.733317e-10 -3.040558e-07 1.044566e-10) (3.796306e-11 -5.319197e-07 2.574685e-11)) ((-2.142822e-15 1.349365e-15 1.337176e-13) (3.851450e-11 -1.844217e-15 -3.350430e-11))
379.124923    	((1.705748e-10 -3.017376e-07 1.204230e-10) (4.287048e-11 -5.159759e-07 2.673870e-11)) ((-2.219007e-15 1.384784e-15 1.404089e-13) (3.832124e-11 2.030357e-14 -3.371963e-11))
454.961908    	((1.715357e-10 -3.005853e-07 1.318031e-10) (4.714386e-11 -5.026220e-07 2.732336e-11)) ((-2.367920e-15 1.689791e-15 1.466189e-13) (3.751782e-11 3.456988e-14 -3.333833e-11))
545.966289    	((1.875141e-10 -3.001454e-07 1.464976e-10) (5.340889e-11 -4.915865e-07 2.949662e-11)) ((-2.372727e-15 1.792815e-15 1.511088e-13) (3.621056e-11 3.215844e-14 -3.242227e-11))
653.224426    	((1.943724e-10 -3.000827e-07 1.505267e-10) (6.148533e-11 -4.825831e-07 3.373666e-11)) ((-2.150343e-15 1.704337e-15 1.535399e-13) (3.454001e-11 2.778723e-14 -3.106370e-11))
776.736066    	((1.933764e-10 -3.000534e-07 1.490298e-10) (7.105474e-11 -4.752784e-07 4.097134e-11)) ((-1.906936e-15 1.705274e-15 1.549081e-13) (3.264740e-11 3.002067e-14 -2.940765e-11))
916.510427    	((1.853780e-10 -2.999406e-07 1.443408e-10) (8.186450e-11 -4.693591e-07 4.994170e-11)) ((-1.817121e-15 1.624696e-15 1.557271e-13) (3.070544e-11 3.599296e-14 -2.761924e-11))
1072.56327    	((1.728031e-10 -2.997554e-07 1.334945e-10) (9.274667e-11 -4.645543e-07 5.948126e-11)) ((-1.946975e-15 1.574306e-15 1.562385e-13) (2.881566e-11 3.973546e-14 -2.584651e-11))
1235.52434    	((1.567634e-10 -2.996146e-07 1.201407e-10) (1.020085e-10 -4.606810e-07 6.784764e-11)) ((-2.015299e-15 1.505973e-15 1.565393e-13) (2.704675e-11 4.261692e-14 -2.419329e-11))
1398.648498   	((1.402533e-10 -2.994674e-07 1.045557e-10) (1.096480e-10 -4.575574e-07 7.423391e-11)) ((-2.055914e-15 1.381911e-15 1.566538e-13) (2.539906e-11 4.367556e-14 -2.261733e-11))
1561.913661   	((1.215660e-10 -2.993236e-07 8.752895e-11) (1.150986e-10 -4.550422e-07 7.882354e-11)) ((-2.229309e-15 1.245378e-15 1.567876e-13) (2.385990e-11 4.294736e-14 -2.113339e-11))
1725.298178   	((1.026201e-10 -2.991919e-07 7.026569e-11) (1.185806e-10 -4.530166e-07 8.158560e-11)) ((-2.419352e-15 1.120021e-15 1.569168e-13) (2.243688e-11 4.177220e-14 -1.975126e-11))
1888.78325    	((8.475616e-11 -2.990738e-07 5.362819e-11) (1.203391e-10 -4.513855e-07 8.270904e-11)) ((-2.602724e-15 1.034971e-15 1.570830e-13) (2.113908e-11 3.936924e-14 -1.848257e-11))
2052.352686   	((6.775807e-11 -2.989724e-07 3.692469e-11) (1.206726e-10 -4.500716e-07 8.246416e-11)) ((-2.741451e-15 9.517035e-16 1.572516e-13) (1.996499e-11 3.619247e-14 -1.733307e-11))
2215.992593   	((5.232216e-11 -2.988858e-07 2.186913e-11) (1.198467e-10 -4.490128e-07 8.120609e-11)) ((-2.844868e-15 8.790544e-16 1.573991e-13) (1.891129e-11 3.278958e-14 -1.630305e-11))
2379.6911     	((3.849277e-11 -2.988112e-07 8.130022e-12) (1.181098e-10 -4.481584e-07 7.916829e-11)) ((-2.957809e-15 8.156963e-16 1.575287e-13) (1.797580e-11 2.932321e-14 -1.539095e-11))
2543.438188   	((2.591724e-11 -2.987487e-07 -4.316922e-12) (1.157407e-10 -4.474682e-07 7.659868e-11)) ((-3.066687e-15 7.607879e-16 1.576284e-13) (1.715174e-11 2.661101e-14 -1.458782e-11))
2707.225434   	((1.445698e-11 -2.986968e-07 -1.574799e-11) (1.130000e-10 -4.469102e-07 7.375505e-11)) ((-3.158136e-15 7.190399e-16 1.577400e-13) (1.642872e-11 2.451667e-14 -1.388396e-11))
2871.045795   	((4.534142e-12 -2.986536e-07 -2.536347e-11) (1.100700e-10 -4.464586e-07 7.080961e-11)) ((-3.248264e-15 6.831214e-16 1.578382e-13) (1.579923e-11 2.277314e-14 -1.327262e-11))
3034.89341    	((-4.183242e-12 -2.986175e-07 -3.388126e-11) (1.070877e-10 -4.460929e-07 6.783422e-11)) ((-3.318027e-15 6.536739e-16 1.578990e-13) (1.525617e-11 2.137999e-14 -1.274493e-11))
3198.763429   	((-1.151801e-11 -2.985876e-07 -4.102109e-11) (1.041826e-10 -4.457967e-07 6.495972e-11)) ((-3.380278e-15 6.275735e-16 1.579488e-13) (1.478906e-11 2.026126e-14 -1.229165e-11))
3362.651849   	((-1.783498e-11 -2.985634e-07 -4.732750e-11) (1.014287e-10 -4.455565e-07 6.223693e-11)) ((-3.433166e-15 6.071580e-16 1.579975e-13) (1.439005e-11 1.927273e-14 -1.190436e-11))
3526.555375   	((-2.309723e-11 -2.985429e-07 -5.255291e-11) (9.889249e-11 -4.453616e-07 5.972003e-11)) ((-3.481873e-15 5.915058e-16 1.580424e-13) (1.405097e-11 1.843026e-14 -1.157457e-11))
3690.471289   	((-2.756015e-11 -2.985262e-07 -5.699456e-11) (9.659690e-11 -4.452035e-07 5.743582e-11)) ((-3.520261e-15 5.786308e-16 1.580793e-13) (1.376386e-11 1.771732e-14 -1.129496e-11))
3854.397355   	((-3.122397e-11 -2.985128e-07 -6.064815e-11) (9.454661e-11 -4.450751e-07 5.539494e-11)) ((-3.552211e-15 5.670659e-16 1.581129e-13) (1.352198e-11 1.717120e-14 -1.105942e-11))
4018.331738   	((-3.423928e-11 -2.985015e-07 -6.366179e-11) (9.273760e-11 -4.449708e-07 5.359551e-11)) ((-3.577713e-15 5.585652e-16 1.581424e-13) (1.331899e-11 1.678094e-14 -1.086185e-11))
4182.272929   	((-3.672352e-11 -2.984919e-07 -6.609040e-11) (9.116412e-11 -4.448861e-07 5.203224e-11)) ((-3.598097e-15 5.509112e-16 1.581685e-13) (1.314914e-11 1.650220e-14 -1.069676e-11))
4346.219688   	((-3.872734e-11 -2.984848e-07 -6.810204e-11) (8.981170e-11 -4.448172e-07 5.068359e-11)) ((-3.616365e-15 5.449225e-16 1.581901e-13) (1.300763e-11 1.628800e-14 -1.055926e-11))
4510.170999   	((-4.037899e-11 -2.984787e-07 -6.976928e-11) (8.866019e-11 -4.447612e-07 4.953155e-11)) ((-3.630492e-15 5.400121e-16 1.582089e-13) (1.289003e-11 1.611322e-14 -1.044494e-11))
4674.126031   	((-4.174047e-11 -2.984737e-07 -7.113616e-11) (8.768863e-11 -4.447156e-07 4.855676e-11)) ((-3.642335e-15 5.361989e-16 1.582250e-13) (1.279261e-11 1.596765e-14 -1.035027e-11))
4838.084098   	((-4.284449e-11 -2.984694e-07 -7.224090e-11) (8.687562e-11 -4.446785e-07 4.773767e-11)) ((-3.652563e-15 5.332362e-16 1.582387e-13) (1.271206e-11 1.583667e-14 -1.027190e-11))
5002.044642   	((-4.374850e-11 -2.984657e-07 -7.314379e-11) (8.620041e-11 -4.446483e-07 4.705605e-11)) ((-3.661032e-15 5.303681e-16 1.582500e-13) (1.264557e-11 1.572129e-14 -1.020719e-11))
5166.007204   	((-4.445672e-11 -2.984629e-07 -7.384257e-11) (8.564334e-11 -4.446237e-07 4.649169e-11)) ((-3.667501e-15 5.287450e-16 1.582599e-13) (1.259077e-11 1.562125e-14 -1.015383e-11))
5329.971414   	((-4.509232e-11 -2.984605e-07 -7.450302e-11) (8.518521e-11 -4.446037e-07 4.602557e-11)) ((-3.673389e-15 5.268391e-16 1.582673e-13) (1.254569e-11 1.553476e-14 -1.010993e-11))
5493.936966   	((-4.558990e-11 -2.984587e-07 -7.505742e-11) (8.481052e-11 -4.445874e-07 4.564329e-11)) ((-3.678379e-15 5.256374e-16 1.582734e-13) (1.250862e-11 1.546941e-14 -1.007385e-11))
5657.903611   	((-4.597469e-11 -2.984574e-07 -7.544229e-11) (8.450587e-11 -4.445742e-07 4.533216e-11)) ((-3.682462e-15 5.246820e-16 1.582783e-13) (1.247816e-11 1.541600e-14 -1.004421e-11))
5821.871147   	((-4.628180e-11 -2.984562e-07 -7.568435e-11) (8.425841e-11 -4.445633e-07 4.508073e-11)) ((-3.685484e-15 5.238564e-16 1.582820e-13) (1.245315e-11 1.537190e-14 -1.001992e-11))
5985.839408   	((-4.657259e-11 -2.984550e-07 -7.595497e-11) (8.405836e-11 -4.445545e-07 4.487736e-11)) ((-3.688739e-15 5.226605e-16 1.582853e-13) (1.243263e-11 1.533654e-14 -9.999951e-12))
6149.808259   	((-4.672877e-11 -2.984542e-07 -7.613221e-11) (8.389654e-11 -4.445473e-07 4.471150e-11)) ((-3.691055e-15 5.225845e-16 1.582878e-13) (1.241582e-11 1.530535e-14 -9.983609e-12))
6313.777592   	((-4.691325e-11 -2.984536e-07 -7.632138e-11) (8.376465e-11 -4.445415e-07 4.457667e-11)) ((-3.692878e-15 5.221629e-16 1.582899e-13) (1.240203e-11 1.527897e-14 -9.970199e-12))
6477.747318   	((-4.705889e-11 -2.984532e-07 -7.648092e-11) (8.365843e-11 -4.445367e-07 4.446799e-11)) ((-3.694523e-15 5.218549e-16 1.582916e-13) (1.239071e-11 1.525797e-14 -9.959185e-12))
6641.717363   	((-4.718662e-11 -2.984528e-07 -7.660883e-11) (8.357164e-11 -4.445328e-07 4.437945e-11)) ((-3.695828e-15 5.215212e-16 1.582930e-13) (1.238141e-11 1.523998e-14 -9.950133e-12))
6805.687669   	((-4.728837e-11 -2.984525e-07 -7.670769e-11) (8.350126e-11 -4.445297e-07 4.430788e-11)) ((-3.696860e-15 5.212462e-16 1.582941e-13) (1.237378e-11 1.522521e-14 -9.942696e-12))
6969.658188   	((-4.740810e-11 -2.984522e-07 -7.685239e-11) (8.344273e-11 -4.445271e-07 4.424805e-11)) ((-3.696756e-15 5.210533e-16 1.582952e-13) (1.236751e-11 1.521043e-14 -9.936582e-12))
7133.62888    	((-4.748342e-11 -2.984517e-07 -7.687456e-11) (8.339699e-11 -4.445250e-07 4.420326e-11)) ((-3.698624e-15 5.204409e-16 1.582958e-13) (1.236232e-11 1.520305e-14 -9.931541e-12))
