# Forces      
# CofR        : (0.000000e+00 0.000000e+00 0.000000e+00)
# Time        forces(pressure viscous)	moments(pressure viscous)
0             	((0.000000e+00 0.000000e+00 0.000000e+00) (7.446632e-14 -1.599119e-03 -1.022312e-13)) ((0.000000e+00 0.000000e+00 0.000000e+00) (5.425848e-15 -7.314615e-16 5.836301e-10))
0.012         	((-8.151731e-07 -4.644393e-01 -7.645418e-07) (1.106486e-09 -1.829781e-03 -1.797218e-10)) ((-1.095515e-10 -3.435514e-12 8.669541e-08) (-1.381310e-11 -2.351840e-13 9.682678e-10))
0.0264        	((-6.490805e-06 4.817557e-02 -4.463876e-06) (-3.526629e-09 -1.850961e-03 -4.649609e-09)) ((-2.362976e-10 -3.536410e-11 -4.557919e-09) (-2.002217e-11 2.906894e-12 8.112624e-10))
0.04368       	((5.487992e-06 8.858677e-02 9.173699e-06) (4.821761e-11 -1.629199e-03 2.944872e-10)) ((3.927343e-10 -1.151758e-11 -2.603620e-08) (2.612912e-11 6.690721e-12 1.642527e-10))
0.064416      	((-1.455873e-06 6.883712e-04 -2.673257e-06) (-2.535375e-09 -1.435822e-03 -2.703105e-09)) ((-1.363877e-10 3.878369e-11 3.512656e-09) (1.178596e-11 3.829931e-12 2.447793e-10))
0.0892992     	((2.116496e-06 2.163896e-05 -1.588358e-06) (-8.089287e-09 -1.321575e-03 -1.954050e-08)) ((-1.086238e-11 4.425474e-12 3.633271e-10) (-8.600459e-11 6.239717e-12 -9.099783e-11))
0.119159      	((4.543243e-07 1.472023e-03 -4.171202e-07) (-7.443866e-09 -1.221761e-03 -2.110131e-08)) ((-6.540748e-11 4.218038e-12 -8.279222e-10) (-1.155330e-10 -3.824572e-12 -6.442213e-10))
0.154991      	((-1.050114e-06 4.146181e-04 -1.866655e-07) (-4.367075e-08 -1.120793e-03 -1.370797e-08)) ((-4.829740e-11 3.680488e-12 -8.253997e-11) (-1.423557e-10 -2.660607e-11 -1.159616e-09))
0.197989      	((-2.961193e-07 -9.839553e-06 -1.770613e-07) (-9.920961e-08 -1.024934e-03 -8.736529e-09)) ((-5.277743e-11 1.959056e-12 7.366700e-11) (-1.996831e-10 -2.941585e-11 -1.606242e-09))
0.249587      	((-6.829724e-07 -1.563287e-04 -1.154122e-07) (-1.305513e-07 -9.373993e-04 -2.734926e-09)) ((-6.103838e-11 -4.016395e-13 3.828687e-11) (-2.974727e-10 -2.638564e-11 -1.800200e-09))
0.311504      	((-2.815675e-07 -2.435509e-04 -1.103838e-07) (-1.382422e-07 -8.597655e-04 2.997000e-10)) ((-5.820091e-11 -1.691290e-13 5.503897e-11) (-3.438455e-10 -2.273867e-11 -1.813029e-09))
0.385805      	((-3.597516e-07 -2.907925e-04 -8.465003e-08) (-1.343100e-07 -7.915558e-04 -3.196709e-10)) ((-3.633010e-11 -2.309140e-12 3.912018e-11) (-3.196962e-10 -1.061230e-11 -1.809354e-09))
0.474966      	((-1.918477e-07 -3.137320e-04 -2.916488e-08) (-1.192401e-07 -7.310574e-04 -1.059845e-09)) ((-1.828895e-11 -1.735407e-12 5.703804e-11) (-2.700673e-10 -6.384075e-14 -1.966792e-09))
0.581959      	((-1.446549e-07 -3.223924e-04 -4.013698e-09) (-1.018203e-07 -6.752535e-04 -1.948101e-09)) ((-8.078787e-12 -8.793459e-13 5.996310e-11) (-1.765501e-10 8.428337e-12 -2.452651e-09))
0.710351      	((-8.909146e-08 -3.210772e-04 -2.341330e-09) (-9.272247e-08 -6.216206e-04 -2.521088e-09)) ((-3.638086e-12 5.722209e-13 8.026187e-11) (-9.905897e-11 1.434021e-11 -3.290520e-09))
0.864421      	((-8.846962e-08 -3.150707e-04 -1.027926e-08) (-8.189117e-08 -5.699296e-04 -2.700178e-09)) ((-2.275373e-12 5.720433e-14 1.193139e-10) (-5.464078e-11 1.444551e-11 -4.221928e-09))
1.049306      	((-4.958792e-08 -3.082464e-04 4.981419e-09) (-6.563738e-08 -5.211233e-04 -2.180906e-09)) ((-1.614756e-12 -1.800753e-13 1.515092e-10) (-1.204950e-11 1.435773e-11 -4.924648e-09))
1.271167      	((2.047915e-08 -3.042245e-04 -5.457895e-09) (-5.119241e-08 -4.760147e-04 -2.062620e-09)) ((-1.966169e-12 3.141305e-14 1.879047e-10) (3.177681e-11 1.741504e-11 -4.918826e-09))
1.5374        	((1.814439e-08 -3.051604e-04 -1.729366e-08) (-3.351358e-08 -4.350612e-04 -2.333494e-09)) ((-3.372588e-12 -5.293992e-15 2.403963e-10) (8.954058e-11 2.153348e-11 -4.386762e-09))
1.85688       	((-2.772587e-09 -3.121119e-04 -5.360599e-08) (-2.080024e-08 -3.985271e-04 -2.805425e-09)) ((-4.769734e-12 -7.420161e-13 2.678393e-10) (1.509699e-10 2.163513e-11 -3.990846e-09))
2.240256      	((-7.040084e-08 -3.259075e-04 -6.430502e-08) (-1.742331e-08 -3.664994e-04 -4.379542e-09)) ((-6.194451e-12 -1.153798e-12 3.135053e-10) (2.093019e-10 2.372052e-11 -3.754516e-09))
2.700307      	((-9.972859e-08 -3.484591e-04 -1.197067e-07) (-1.201463e-08 -3.389738e-04 -6.648363e-09)) ((-6.708420e-12 -1.389513e-12 3.856031e-10) (2.637781e-10 2.311287e-11 -3.496409e-09))
3.252369      	((-5.968198e-08 -3.802823e-04 -7.515437e-08) (-2.526467e-09 -3.157629e-04 -7.692119e-09)) ((-5.624821e-12 -5.987400e-13 4.728343e-10) (2.712878e-10 2.047817e-11 -3.427451e-09))
3.905319      	((4.141556e-08 -4.217359e-04 -6.297392e-08) (4.270448e-09 -2.967142e-04 -7.785978e-09)) ((-4.852453e-12 -5.616244e-13 5.948501e-10) (2.505831e-10 2.215154e-11 -4.157116e-09))
4.658768      	((1.502041e-07 -4.720180e-04 -2.036713e-08) (1.139630e-08 -2.814002e-04 -7.637320e-09)) ((-3.432750e-12 -1.772909e-13 7.523466e-10) (2.440540e-10 2.209247e-11 -5.675283e-09))
5.512153      	((2.194863e-07 -5.297084e-04 3.411594e-09) (2.052953e-08 -2.691510e-04 -8.215531e-09)) ((-2.278817e-12 -1.091732e-12 9.378394e-10) (2.584510e-10 2.493076e-11 -7.712267e-09))
6.46471       	((2.983104e-07 -5.935287e-04 3.434551e-08) (1.924583e-08 -2.594239e-04 -9.704659e-09)) ((-7.451715e-13 -2.801702e-12 1.137219e-09) (3.129609e-10 2.689968e-11 -9.109705e-09))
7.447154      	((3.764697e-07 -6.605206e-04 1.053098e-07) (1.675594e-08 -2.522635e-04 -1.094717e-08)) ((-3.511893e-13 -5.443243e-12 1.297201e-09) (4.579981e-10 2.425824e-11 -1.018471e-08))
8.419281      	((4.501988e-07 -7.219597e-04 1.896563e-07) (2.134509e-08 -2.470752e-04 -9.879003e-09)) ((-2.357191e-12 -7.145182e-12 1.434492e-09) (5.905600e-10 1.238582e-11 -1.072730e-08))
9.381698      	((5.561513e-07 -7.751550e-04 3.017457e-07) (3.357796e-08 -2.430508e-04 -3.888221e-09)) ((-3.683874e-12 -1.126057e-11 1.574188e-09) (5.941013e-10 2.278251e-11 -1.029465e-08))
10.337558     	((7.025994e-07 -8.178486e-04 4.443128e-07) (4.771065e-08 -2.396192e-04 7.717281e-09)) ((-4.307657e-12 -1.278225e-11 1.706466e-09) (3.809352e-10 9.561956e-12 -9.544953e-09))
11.291424     	((8.412898e-07 -8.510879e-04 5.553806e-07) (5.953027e-08 -2.366878e-04 1.988347e-08)) ((-3.320161e-12 -1.411022e-11 1.832765e-09) (1.763311e-10 5.094698e-12 -8.841752e-09))
12.246383     	((1.009180e-06 -8.695453e-04 7.204239e-07) (6.789408e-08 -2.341549e-04 3.106614e-08)) ((-2.110934e-12 -1.361912e-11 1.938355e-09) (8.468276e-11 1.013973e-11 -8.159286e-09))
13.203073     	((1.207744e-06 -8.751093e-04 8.872859e-07) (7.582681e-08 -2.317772e-04 4.136097e-08)) ((-6.657657e-13 -1.287926e-11 2.019984e-09) (1.575056e-10 9.760007e-12 -7.601782e-09))
14.160801     	((1.288323e-06 -8.715549e-04 9.793384e-07) (7.689220e-08 -2.294864e-04 4.963773e-08)) ((1.522086e-12 -1.317301e-11 2.064650e-09) (3.395847e-10 4.742730e-12 -7.524983e-09))
15.118818     	((1.427318e-06 -8.622905e-04 1.057782e-06) (8.254744e-08 -2.273940e-04 5.789999e-08)) ((1.989846e-12 -1.003223e-11 2.070714e-09) (5.258119e-10 -3.306402e-13 -7.401312e-09))
16.0772       	((1.454015e-06 -8.493943e-04 1.075460e-06) (9.731764e-08 -2.254507e-04 6.532869e-08)) ((9.387655e-13 -8.497341e-12 2.049337e-09) (7.217292e-10 -6.317875e-12 -6.840205e-09))
17.036679     	((1.569950e-06 -8.364444e-04 1.125022e-06) (1.139407e-07 -2.235571e-04 7.178759e-08)) ((1.920159e-13 -1.038653e-11 2.012626e-09) (8.313761e-10 -6.292713e-12 -6.377341e-09))
17.997617     	((1.854519e-06 -8.268048e-04 1.332634e-06) (1.318706e-07 -2.217647e-04 8.002874e-08)) ((1.685602e-12 -1.035202e-11 1.985017e-09) (8.996517e-10 1.052590e-11 -6.324650e-09))
18.959907     	((1.996154e-06 -8.212630e-04 1.452110e-06) (1.539466e-07 -2.201676e-04 9.189992e-08)) ((2.128105e-12 -1.078372e-11 1.963027e-09) (8.810537e-10 -1.330587e-11 -6.084272e-09))
19.92363      	((2.232130e-06 -8.167875e-04 1.515762e-06) (1.743306e-07 -2.187430e-04 1.012235e-07)) ((2.034390e-12 -1.232513e-11 1.948130e-09) (9.242518e-10 -4.021924e-11 -5.890247e-09))
20.889109     	((2.488460e-06 -8.104427e-04 1.683931e-06) (1.889772e-07 -2.173760e-04 1.087606e-07)) ((3.335614e-12 -1.136327e-11 1.939003e-09) (1.109637e-09 -4.535836e-11 -6.042183e-09))
21.856082     	((2.871643e-06 -8.044600e-04 1.832744e-06) (2.014192e-07 -2.160295e-04 1.157309e-07)) ((4.964338e-12 -1.080864e-11 1.932657e-09) (1.400166e-09 -2.992293e-11 -6.484239e-09))
22.824524     	((3.294954e-06 -7.999722e-04 2.028938e-06) (2.143126e-07 -2.147343e-04 1.236087e-07)) ((6.335150e-12 -9.793924e-12 1.930931e-09) (1.787162e-09 3.493975e-11 -7.100238e-09))
23.794407     	((3.726617e-06 -7.958755e-04 2.173019e-06) (2.323016e-07 -2.134970e-04 1.322100e-07)) ((5.720422e-12 -7.914127e-12 1.931113e-09) (2.228291e-09 7.307390e-11 -7.595716e-09))
24.765697     	((4.225309e-06 -7.922463e-04 2.413135e-06) (2.548407e-07 -2.123195e-04 1.419452e-07)) ((6.410759e-12 -6.307344e-12 1.932960e-09) (2.665034e-09 4.761482e-11 -8.115297e-09))
25.738442     	((4.766892e-06 -7.882842e-04 2.682591e-06) (2.813636e-07 -2.111900e-04 1.549610e-07)) ((7.602921e-12 -4.277851e-12 1.933954e-09) (3.085800e-09 3.404557e-11 -8.727832e-09))
26.71207      	((5.316916e-06 -7.845683e-04 2.872865e-06) (3.112426e-07 -2.101096e-04 1.680313e-07)) ((7.524810e-12 -2.617269e-12 1.933784e-09) (3.489294e-09 2.950757e-11 -9.360093e-09))
27.685942     	((5.917013e-06 -7.810486e-04 3.092007e-06) (3.459084e-07 -2.090884e-04 1.814698e-07)) ((8.196244e-12 -1.638287e-13 1.932464e-09) (3.888470e-09 1.658588e-11 -9.973440e-09))
28.66011      	((6.532512e-06 -7.777935e-04 3.341598e-06) (3.858896e-07 -2.081288e-04 1.964029e-07)) ((9.283284e-12 1.934849e-12 1.929717e-09) (4.264155e-09 1.216797e-11 -1.057770e-08))
29.634725     	((7.324315e-06 -7.747497e-04 3.684569e-06) (4.322619e-07 -2.072274e-04 2.146521e-07)) ((1.209442e-11 5.243475e-12 1.926464e-09) (4.679074e-09 1.507351e-11 -1.115067e-08))
30.609848     	((8.084118e-06 -7.719374e-04 3.947994e-06) (4.853609e-07 -2.063826e-04 2.326498e-07)) ((1.445130e-11 8.655814e-12 1.923301e-09) (5.235209e-09 1.616654e-11 -1.169465e-08))
31.585511     	((8.795062e-06 -7.691611e-04 4.277447e-06) (5.410779e-07 -2.055876e-04 2.503280e-07)) ((1.643559e-11 1.251443e-11 1.921453e-09) (5.897115e-09 9.496969e-12 -1.229351e-08))
32.561727     	((9.642962e-06 -7.666529e-04 4.623179e-06) (5.994832e-07 -2.048382e-04 2.723164e-07)) ((1.935484e-11 1.414848e-11 1.919926e-09) (6.424683e-09 -1.737025e-12 -1.294426e-08))
33.538548     	((1.069936e-05 -7.632448e-04 5.089535e-06) (6.644572e-07 -2.041050e-04 2.995271e-07)) ((2.305333e-11 1.543956e-11 1.918548e-09) (6.828871e-09 -6.102802e-12 -1.362305e-08))
34.516045     	((1.159584e-05 -7.604891e-04 5.496595e-06) (7.317527e-07 -2.033911e-04 3.285210e-07)) ((2.537315e-11 1.556843e-11 1.918641e-09) (7.262435e-09 -1.359890e-11 -1.438821e-08))
35.49425      	((1.265526e-05 -7.577716e-04 5.960799e-06) (8.032891e-07 -2.027019e-04 3.599338e-07)) ((2.863665e-11 1.477895e-11 1.917848e-09) (7.723797e-09 -1.732217e-11 -1.525085e-08))
36.473167     	((1.373156e-05 -7.549828e-04 6.455084e-06) (8.807548e-07 -2.020223e-04 3.939228e-07)) ((3.227253e-11 1.356026e-11 1.917003e-09) (8.202577e-09 -5.802674e-12 -1.618020e-08))
37.452825     	((1.499052e-05 -7.527909e-04 7.018426e-06) (9.652959e-07 -2.013634e-04 4.298998e-07)) ((3.627591e-11 1.288533e-11 1.916569e-09) (8.735803e-09 -4.918987e-12 -1.718366e-08))
38.433272     	((1.628947e-05 -7.508067e-04 7.640733e-06) (1.055288e-06 -2.007364e-04 4.685061e-07)) ((3.977929e-11 1.304140e-11 1.916531e-09) (9.402373e-09 -2.054692e-11 -1.829769e-08))
39.414493     	((1.769543e-05 -7.487433e-04 8.298319e-06) (1.150224e-06 -2.001387e-04 5.105632e-07)) ((4.247745e-11 1.317333e-11 1.916895e-09) (1.016324e-08 -4.353839e-11 -1.949988e-08))
40.396483     	((1.940075e-05 -7.465243e-04 9.094325e-06) (1.255839e-06 -1.995640e-04 5.586801e-07)) ((4.601646e-11 1.387807e-11 1.917436e-09) (1.093786e-08 -5.878630e-11 -2.077334e-08))
41.379256     	((2.135817e-05 -7.444249e-04 9.934219e-06) (1.377775e-06 -1.990091e-04 6.138323e-07)) ((4.879483e-11 1.417950e-11 1.918828e-09) (1.165754e-08 -5.174822e-11 -2.207373e-08))
42.362802     	((2.351863e-05 -7.424546e-04 1.083575e-05) (1.517294e-06 -1.984702e-04 6.754291e-07)) ((5.267118e-11 1.515083e-11 1.920601e-09) (1.229570e-08 -3.523257e-11 -2.341221e-08))
43.347095     	((2.590614e-05 -7.404642e-04 1.186175e-05) (1.673059e-06 -1.979420e-04 7.441911e-07)) ((5.987488e-11 1.659664e-11 1.921099e-09) (1.292783e-08 -1.910600e-11 -2.491922e-08))
44.332135     	((2.861688e-05 -7.383623e-04 1.297254e-05) (1.845134e-06 -1.974236e-04 8.192318e-07)) ((6.958046e-11 1.809144e-11 1.919505e-09) (1.368422e-08 -1.503132e-11 -2.676735e-08))
45.318011     	((3.151559e-05 -7.359196e-04 1.417051e-05) (2.033210e-06 -1.969119e-04 8.996452e-07)) ((7.955791e-11 1.967326e-11 1.916093e-09) (1.456426e-08 -1.604495e-11 -2.897529e-08))
46.304711     	((3.462754e-05 -7.336585e-04 1.555598e-05) (2.239588e-06 -1.964140e-04 9.888843e-07)) ((8.960678e-11 2.078291e-11 1.913337e-09) (1.550358e-08 -9.812780e-12 -3.137029e-08))
47.292177     	((3.796456e-05 -7.317918e-04 1.698810e-05) (2.466243e-06 -1.959415e-04 1.087572e-06)) ((9.889821e-11 2.164532e-11 1.911397e-09) (1.646392e-08 -4.614914e-12 -3.384613e-08))
48.280359     	((4.160318e-05 -7.301713e-04 1.849438e-05) (2.715175e-06 -1.954950e-04 1.195334e-06)) ((1.068249e-10 2.192322e-11 1.909142e-09) (1.743011e-08 1.560238e-11 -3.644704e-08))
49.269202     	((4.539287e-05 -7.287634e-04 2.004694e-05) (2.985304e-06 -1.950734e-04 1.310779e-06)) ((1.150852e-10 2.216151e-11 1.906095e-09) (1.843256e-08 5.871533e-11 -3.920056e-08))
50.258664     	((4.948245e-05 -7.275135e-04 2.171144e-05) (3.276968e-06 -1.946752e-04 1.434625e-06)) ((1.243416e-10 2.197006e-11 1.902348e-09) (1.945336e-08 9.873225e-11 -4.211173e-08))
51.248697     	((5.389982e-05 -7.261785e-04 2.351614e-05) (3.593670e-06 -1.942942e-04 1.568344e-06)) ((1.346904e-10 2.143023e-11 1.898100e-09) (2.051819e-08 1.314917e-10 -4.517237e-08))
52.239069     	((5.871453e-05 -7.248102e-04 2.551640e-05) (3.938341e-06 -1.939258e-04 1.713692e-06)) ((1.469364e-10 1.977907e-11 1.893536e-09) (2.168568e-08 1.640889e-10 -4.840018e-08))
53.2297       	((6.391934e-05 -7.234161e-04 2.769992e-05) (4.313398e-06 -1.935664e-04 1.870741e-06)) ((1.610438e-10 1.684212e-11 1.888337e-09) (2.304563e-08 2.002095e-10 -5.182125e-08))
54.220524     	((6.954914e-05 -7.222392e-04 3.014471e-05) (4.721073e-06 -1.932185e-04 2.041674e-06)) ((1.768769e-10 1.215754e-11 1.883188e-09) (2.463187e-08 2.203569e-10 -5.547556e-08))
55.211476     	((7.567112e-05 -7.213358e-04 3.275571e-05) (5.164797e-06 -1.928899e-04 2.227466e-06)) ((1.928256e-10 6.588030e-12 1.878853e-09) (2.640147e-08 2.137516e-10 -5.940217e-08))
56.202485     	((8.231340e-05 -7.206053e-04 3.558879e-05) (5.647002e-06 -1.925829e-04 2.428696e-06)) ((2.094790e-10 -1.891067e-14 1.874637e-09) (2.832927e-08 1.895256e-10 -6.370526e-08))
57.193478     	((8.953802e-05 -7.199757e-04 3.871324e-05) (6.170730e-06 -1.922977e-04 2.649408e-06)) ((2.267216e-10 -7.540029e-12 1.869877e-09) (3.039806e-08 1.310552e-10 -6.836694e-08))
58.184372     	((9.746479e-05 -7.193981e-04 4.208035e-05) (6.742277e-06 -1.920318e-04 2.891027e-06)) ((2.449220e-10 -1.641111e-11 1.864840e-09) (3.261045e-08 3.458567e-11 -7.339539e-08))
59.175078     	((1.061665e-04 -7.189525e-04 4.576558e-05) (7.369648e-06 -1.917854e-04 3.155671e-06)) ((2.645867e-10 -2.691714e-11 1.860303e-09) (3.497718e-08 -5.955448e-11 -7.872924e-08))
60.1655       	((1.156991e-04 -7.186509e-04 4.982869e-05) (8.060370e-06 -1.915602e-04 3.448348e-06)) ((2.859563e-10 -3.902937e-11 1.855728e-09) (3.742515e-08 -7.894629e-11 -8.433601e-08))
61.155532     	((1.260756e-04 -7.186267e-04 5.430562e-05) (8.817530e-06 -1.913615e-04 3.772444e-06)) ((3.094371e-10 -5.246727e-11 1.850839e-09) (3.993652e-08 -1.764998e-11 -9.030611e-08))
62.145058     	((1.374236e-04 -7.187912e-04 5.927816e-05) (9.645274e-06 -1.911877e-04 4.128925e-06)) ((3.355527e-10 -6.748203e-11 1.845558e-09) (4.273322e-08 6.287987e-11 -9.686343e-08))
63.133952     	((1.498724e-04 -7.193307e-04 6.472855e-05) (1.055218e-05 -1.910444e-04 4.518759e-06)) ((3.641267e-10 -8.225991e-11 1.838202e-09) (4.590213e-08 8.996160e-11 -1.039501e-07))
64.122057     	((1.634406e-04 -7.202017e-04 7.070744e-05) (1.154707e-05 -1.909379e-04 4.946864e-06)) ((3.976026e-10 -9.652157e-11 1.828460e-09) (4.935277e-08 7.782297e-11 -1.113830e-07))
65.109218     	((1.781911e-04 -7.215077e-04 7.715741e-05) (1.263773e-05 -1.908738e-04 5.417947e-06)) ((4.348874e-10 -1.136345e-10 1.817448e-09) (5.290993e-08 5.112827e-11 -1.191164e-07))
66.095284     	((1.943014e-04 -7.233665e-04 8.426399e-05) (1.383338e-05 -1.908538e-04 5.938296e-06)) ((4.759385e-10 -1.334128e-10 1.804653e-09) (5.664059e-08 4.321103e-11 -1.273531e-07))
67.080087     	((2.118796e-04 -7.257456e-04 9.198770e-05) (1.513915e-05 -1.908737e-04 6.506846e-06)) ((5.194509e-10 -1.554044e-10 1.790570e-09) (6.088266e-08 3.409541e-11 -1.364197e-07))
68.063615     	((2.310964e-04 -7.289413e-04 1.003961e-04) (1.655966e-05 -1.909379e-04 7.125163e-06)) ((5.652747e-10 -1.812015e-10 1.776538e-09) (6.572591e-08 3.090918e-11 -1.467838e-07))
69.045838     	((2.516922e-04 -7.331051e-04 1.094253e-04) (1.809752e-05 -1.910635e-04 7.795942e-06)) ((6.125380e-10 -2.126276e-10 1.761259e-09) (7.120276e-08 2.819809e-11 -1.586650e-07))
70.026608     	((2.738274e-04 -7.381490e-04 1.189865e-04) (1.976030e-05 -1.912612e-04 8.518887e-06)) ((6.596245e-10 -2.482850e-10 1.743686e-09) (7.723026e-08 -7.777213e-11 -1.718740e-07))
71.005715     	((2.975400e-04 -7.442859e-04 1.292129e-04) (2.155623e-05 -1.915466e-04 9.298128e-06)) ((7.090917e-10 -2.912737e-10 1.722795e-09) (8.367903e-08 -2.264002e-10 -1.860446e-07))
71.983091     	((3.229586e-04 -7.515110e-04 1.402107e-04) (2.349211e-05 -1.919326e-04 1.013910e-05)) ((7.627295e-10 -3.421705e-10 1.697726e-09) (9.048182e-08 -2.849640e-10 -2.009236e-07))
72.958757     	((3.498710e-04 -7.604147e-04 1.518232e-04) (2.557017e-05 -1.924348e-04 1.104150e-05)) ((8.173820e-10 -4.017032e-10 1.669113e-09) (9.752457e-08 -2.703273e-10 -2.164935e-07))
73.932542     	((3.783277e-04 -7.709422e-04 1.643628e-04) (2.779441e-05 -1.930693e-04 1.201049e-05)) ((8.748949e-10 -4.713611e-10 1.638631e-09) (1.047139e-07 -2.464915e-10 -2.326637e-07))
74.904316     	((4.085019e-04 -7.830382e-04 1.776274e-04) (3.017369e-05 -1.938440e-04 1.305226e-05)) ((9.319217e-10 -5.574643e-10 1.609352e-09) (1.118836e-07 -2.814100e-10 -2.494004e-07))
75.874072     	((4.399699e-04 -7.969650e-04 1.914213e-04) (3.271073e-05 -1.947637e-04 1.416463e-05)) ((9.833548e-10 -6.546337e-10 1.581555e-09) (1.192355e-07 -2.930050e-10 -2.665921e-07))
76.841865     	((4.728101e-04 -8.129351e-04 2.056566e-04) (3.540991e-05 -1.958443e-04 1.534502e-05)) ((1.026974e-09 -7.632077e-10 1.554587e-09) (1.269806e-07 -1.437878e-10 -2.840329e-07))
77.807765     	((5.063696e-04 -8.310476e-04 2.202042e-04) (3.825707e-05 -1.971002e-04 1.658928e-05)) ((1.063057e-09 -8.820685e-10 1.526980e-09) (1.350305e-07 2.308318e-10 -3.017256e-07))
78.771865     	((5.401682e-04 -8.517310e-04 2.349782e-04) (4.122427e-05 -1.985546e-04 1.788991e-05)) ((1.093793e-09 -1.007379e-09 1.500389e-09) (1.430397e-07 7.052465e-10 -3.194792e-07))
79.734338     	((5.738413e-04 -8.745771e-04 2.498840e-04) (4.428831e-05 -2.002244e-04 1.924114e-05)) ((1.118598e-09 -1.137104e-09 1.475095e-09) (1.506179e-07 1.172347e-09 -3.369444e-07))
80.69512      	((6.070958e-04 -8.995644e-04 2.647815e-04) (4.743005e-05 -2.021130e-04 2.063738e-05)) ((1.137888e-09 -1.267653e-09 1.454312e-09) (1.576503e-07 1.676305e-09 -3.537114e-07))
81.653256     	((6.392211e-04 -9.267853e-04 2.789838e-04) (5.061478e-05 -2.042315e-04 2.205192e-05)) ((1.145858e-09 -1.398428e-09 1.441534e-09) (1.643293e-07 2.115485e-09 -3.693339e-07))
82.608476     	((6.689228e-04 -9.554115e-04 2.919714e-04) (5.378142e-05 -2.065760e-04 2.345321e-05)) ((1.136848e-09 -1.531972e-09 1.432533e-09) (1.704913e-07 2.709492e-09 -3.834970e-07))
83.560431     	((6.948181e-04 -9.851496e-04 3.033389e-04) (5.686471e-05 -2.091419e-04 2.481964e-05)) ((1.116171e-09 -1.661785e-09 1.426813e-09) (1.753132e-07 3.564179e-09 -3.950163e-07))
84.509196     	((7.154703e-04 -1.015009e-03 3.124340e-04) (5.979881e-05 -2.119036e-04 2.612135e-05)) ((1.085379e-09 -1.776812e-09 1.425430e-09) (1.780962e-07 4.430104e-09 -4.021441e-07))
85.454937     	((7.290597e-04 -1.043892e-03 3.186171e-04) (6.249816e-05 -2.147950e-04 2.731746e-05)) ((1.036648e-09 -1.876081e-09 1.426064e-09) (1.787130e-07 5.329581e-09 -4.036769e-07))
86.397768     	((7.343788e-04 -1.069745e-03 3.209284e-04) (6.486930e-05 -2.177170e-04 2.835569e-05)) ((9.646620e-10 -1.948270e-09 1.430365e-09) (1.764084e-07 6.167486e-09 -3.978728e-07))
87.337968     	((7.303685e-04 -1.090811e-03 3.190591e-04) (6.681253e-05 -2.205845e-04 2.919135e-05)) ((8.785624e-10 -1.991748e-09 1.434876e-09) (1.702167e-07 6.972520e-09 -3.830763e-07))
88.275815     	((7.152207e-04 -1.105701e-03 3.120798e-04) (6.817152e-05 -2.233231e-04 2.976403e-05)) ((7.746274e-10 -1.995362e-09 1.434321e-09) (1.598810e-07 8.301920e-09 -3.591336e-07))
89.211598     	((6.875013e-04 -1.111853e-03 2.993670e-04) (6.875933e-05 -2.257840e-04 2.997958e-05)) ((6.657442e-10 -1.948878e-09 1.424002e-09) (1.464234e-07 9.923984e-09 -3.277958e-07))
90.145684     	((6.445670e-04 -1.107944e-03 2.799141e-04) (6.838863e-05 -2.277872e-04 2.975582e-05)) ((5.664887e-10 -1.833922e-09 1.389491e-09) (1.305642e-07 1.152325e-08 -2.900045e-07))
