# Forces      
# CofR        : (0.000000e+00 0.000000e+00 0.000000e+00)
# Time        forces(pressure viscous)	moments(pressure viscous)
0             	((0.000000e+00 0.000000e+00 0.000000e+00) (0.000000e+00 0.000000e+00 0.000000e+00)) ((0.000000e+00 0.000000e+00 0.000000e+00) (0.000000e+00 0.000000e+00 0.000000e+00))
0.012         	((1.136927e-10 -1.732936e-10 -4.319862e-08) (5.016905e-13 -1.306555e-12 -9.081944e-10)) ((3.871207e-14 -1.682269e-09 -1.289218e-14) (-5.260966e-16 -1.109887e-06 4.635355e-14))
0.0264        	((-1.922540e-10 1.527625e-10 1.622789e-08) (-3.493497e-14 -3.248740e-12 -1.579506e-09)) ((1.794580e-14 -8.441609e-10 -9.037377e-14) (-2.929365e-14 -1.016584e-06 5.441122e-14))
0.04368       	((-7.210171e-10 -1.010380e-09 -1.504800e-08) (-2.920077e-12 -2.811377e-12 -1.715614e-09)) ((-9.864663e-15 -4.682081e-10 -5.563066e-14) (5.543568e-14 -9.207416e-07 8.132590e-14))
0.064416      	((2.419255e-10 2.498219e-10 -5.591838e-10) (-1.009448e-11 4.568737e-13 -1.413824e-09)) ((3.252846e-15 -2.693247e-10 2.808931e-15) (1.860637e-13 -8.244868e-07 1.242814e-13))
0.0892992     	((-4.633858e-10 -2.943221e-10 -1.706304e-09) (-2.159608e-11 3.848302e-12 -1.161057e-09)) ((6.408233e-15 -2.019550e-10 -1.069041e-15) (2.678815e-13 -7.306607e-07 1.395884e-13))
0.119159      	((4.937073e-10 7.958681e-11 -3.442571e-10) (-2.928670e-11 7.157533e-12 -9.857830e-10)) ((-1.290831e-15 -1.467566e-10 -2.752411e-16) (3.818811e-13 -6.421751e-07 1.708779e-13))
0.154991      	((8.410244e-11 2.359299e-10 1.250277e-09) (-3.413794e-11 1.232424e-11 -8.034347e-10)) ((3.065916e-15 -1.173308e-10 -8.567169e-15) (5.142745e-13 -5.610869e-07 2.063905e-13))
0.197989      	((8.222436e-11 1.082714e-10 -8.711924e-11) (-3.902504e-11 1.696898e-11 -6.393939e-10)) ((3.807532e-15 -9.411430e-11 -9.063072e-15) (5.621411e-13 -4.892359e-07 2.523144e-13))
0.249587      	((-2.793287e-10 1.695731e-10 1.024307e-09) (-3.666120e-11 1.910801e-11 -5.209511e-10)) ((8.257586e-15 -7.808996e-11 3.786304e-15) (5.488163e-13 -4.275639e-07 2.618939e-13))
0.311504      	((-1.442510e-10 -5.330226e-11 1.224626e-10) (-2.131118e-11 1.984682e-11 -4.289237e-10)) ((1.808357e-15 -6.547167e-11 5.867440e-15) (5.407695e-13 -3.758898e-07 2.092959e-13))
0.385805      	((-2.115716e-10 -7.509555e-11 -2.968799e-12) (-3.075827e-12 1.929148e-11 -3.473327e-10)) ((1.961893e-15 -5.665541e-11 1.217327e-14) (4.893119e-13 -3.331058e-07 2.053792e-13))
0.474966      	((2.456902e-10 2.734327e-11 -4.502021e-10) (8.297519e-12 2.246982e-11 -2.612639e-10)) ((1.316490e-15 -5.077192e-11 8.622866e-15) (4.451360e-13 -2.975513e-07 2.181953e-13))
0.581959      	((-5.778863e-11 1.186638e-10 4.030351e-11) (1.673550e-11 2.780787e-11 -1.895748e-10)) ((5.579875e-15 -4.553375e-11 8.931219e-15) (3.868703e-13 -2.675480e-07 1.891533e-13))
0.710351      	((2.509855e-10 1.283266e-10 -5.804858e-10) (1.941485e-11 2.551247e-11 -1.494128e-10)) ((5.710173e-15 -4.054395e-11 8.624543e-15) (1.241718e-13 -2.417272e-07 2.058032e-13))
0.864421      	((3.364942e-10 1.240965e-10 -1.369405e-10) (4.599025e-11 1.301623e-11 -9.186047e-11)) ((6.370325e-15 -3.712808e-11 -2.312252e-15) (-4.129639e-14 -2.191055e-07 3.803502e-13))
1.049306      	((1.089411e-09 9.719176e-11 -3.999906e-10) (3.264355e-11 -1.143689e-12 -7.282036e-13)) ((4.596582e-15 -3.498718e-11 -5.245038e-15) (-6.320395e-14 -1.990158e-07 4.985240e-13))
1.271167      	((5.534673e-10 8.083709e-11 -3.745781e-10) (-8.670695e-12 -1.733650e-11 6.498804e-11)) ((4.791650e-15 -3.290004e-11 -6.235451e-15) (-2.593341e-13 -1.810014e-07 5.190927e-13))
1.5374        	((1.142793e-09 -2.520127e-11 -5.538783e-10) (-1.537490e-11 -3.347356e-11 1.025205e-10)) ((-6.501441e-15 -3.040741e-11 -1.171602e-14) (-7.153549e-13 -1.647646e-07 4.314282e-13))
1.85688       	((5.809693e-10 9.955452e-11 -5.063727e-10) (-3.591035e-11 -3.600127e-11 1.438859e-10)) ((-1.155437e-14 -2.798624e-11 -7.192020e-15) (-1.206283e-12 -1.501403e-07 -1.168671e-13))
2.240256      	((4.840659e-10 4.453509e-11 -7.988144e-10) (-7.567868e-11 -1.945621e-11 1.692946e-10)) ((-1.779291e-14 -2.615610e-11 -7.067535e-15) (-1.631984e-12 -1.370448e-07 -1.103608e-12))
2.700307      	((-7.004598e-11 4.988709e-11 -7.046125e-10) (-1.411040e-10 -6.042575e-12 1.933978e-10)) ((-1.851328e-14 -2.479969e-11 -1.406931e-14) (-2.393722e-12 -1.254148e-07 -2.447012e-12))
3.252369      	((-1.359001e-10 4.909060e-11 -5.707126e-10) (-2.072351e-10 3.327942e-12 2.452474e-10)) ((-1.374667e-14 -2.330102e-11 -1.706770e-14) (-3.215380e-12 -1.151611e-07 -4.035994e-12))
3.914842      	((-1.229627e-10 7.994213e-11 -1.712449e-10) (-2.707543e-10 1.165412e-11 3.134872e-10)) ((-2.212858e-15 -2.172669e-11 -2.295442e-14) (-4.310927e-12 -1.061492e-07 -5.042827e-12))
4.709811      	((6.257385e-12 1.091047e-10 1.017278e-10) (-3.184830e-10 1.788890e-11 3.592315e-10)) ((9.222199e-16 -2.013797e-11 -2.114224e-14) (-5.052342e-12 -9.819912e-08 -5.498507e-12))
5.663773      	((1.489081e-10 6.728203e-11 2.001979e-10) (-3.175793e-10 1.259502e-11 3.557808e-10)) ((-9.636020e-15 -1.852754e-11 -1.288846e-14) (-4.639249e-12 -9.112001e-08 -5.270485e-12))
6.808528      	((4.970165e-11 8.149565e-12 6.395670e-11) (-2.854257e-10 -5.874618e-13 3.138502e-10)) ((-1.178859e-14 -1.689180e-11 -6.568074e-15) (-4.128888e-12 -8.474698e-08 -4.547670e-12))
8.182233      	((-5.336243e-11 9.239566e-12 -4.989258e-11) (-2.666179e-10 -7.515703e-12 2.646182e-10)) ((-9.143654e-15 -1.534968e-11 -4.014216e-15) (-3.665228e-12 -7.895425e-08 -4.025515e-12))
9.83068       	((1.836373e-11 2.053876e-11 1.265115e-10) (-2.383883e-10 -1.157082e-11 2.185866e-10)) ((-8.570710e-15 -1.388056e-11 -1.117374e-16) (-3.148014e-12 -7.364827e-08 -3.369470e-12))
11.808816     	((4.909278e-12 -2.981979e-11 -9.163215e-11) (-1.948717e-10 -2.249803e-11 1.716036e-10)) ((-4.081799e-15 -1.254555e-11 8.823565e-15) (-2.799728e-12 -6.876450e-08 -2.681798e-12))
14.182579     	((5.478051e-11 -1.006498e-12 -1.247035e-10) (-1.315010e-10 -2.524719e-11 1.212399e-10)) ((3.553003e-15 -1.135517e-11 1.512151e-14) (-2.336875e-12 -6.426066e-08 -1.943938e-12))
17.031095     	((-1.506830e-11 -4.141573e-11 -1.674208e-10) (-1.020213e-10 -2.171937e-11 9.104984e-11)) ((9.065246e-15 -1.030976e-11 1.446796e-14) (-1.772070e-12 -6.011179e-08 -1.141371e-12))
20.449314     	((5.157290e-11 6.471592e-12 -4.618686e-11) (-8.155171e-11 -2.150211e-11 9.201501e-11)) ((1.598593e-14 -9.388850e-12 1.339374e-14) (-1.356750e-12 -5.630863e-08 -5.268933e-13))
24.551176     	((4.844717e-11 2.026146e-12 -1.267504e-10) (-6.035107e-11 -2.034669e-11 9.661535e-11)) ((1.954948e-14 -8.599560e-12 1.319469e-14) (-1.081778e-12 -5.283955e-08 2.439720e-14))
29.473411     	((2.693736e-11 2.264276e-11 -7.069084e-11) (-4.538724e-11 -1.853350e-11 1.002508e-10)) ((2.119621e-14 -7.910859e-12 1.114913e-14) (-8.513927e-13 -4.968431e-08 3.710145e-13))
35.380094     	((2.210479e-11 4.679253e-12 -9.337635e-11) (-3.407151e-11 -1.694762e-11 1.167809e-10)) ((2.066774e-14 -7.289518e-12 1.083295e-14) (-8.743678e-13 -4.681778e-08 4.668788e-13))
42.468112     	((1.621698e-11 5.899125e-12 -4.311040e-11) (-3.077212e-11 -1.505576e-11 1.278299e-10)) ((1.961990e-14 -6.738489e-12 9.353301e-15) (-1.074000e-12 -4.421216e-08 4.509222e-13))
50.973735     	((2.012530e-11 3.700316e-12 -7.814176e-11) (-3.144909e-11 -1.479794e-11 1.304520e-10)) ((1.869135e-14 -6.243366e-12 6.680872e-15) (-1.354636e-12 -4.184248e-08 3.260347e-13))
61.180482     	((-3.007680e-12 -8.573096e-12 -3.317638e-11) (-2.264878e-11 -1.440712e-11 1.212321e-10)) ((1.861201e-14 -5.831060e-12 3.864566e-15) (-1.455255e-12 -3.968637e-08 4.800415e-14))
73.428578     	((2.275312e-11 -1.401536e-11 -1.766291e-11) (-2.419959e-11 -1.207039e-11 1.134780e-10)) ((1.774667e-14 -5.489033e-12 2.417070e-15) (-1.349947e-12 -3.772416e-08 -2.807543e-13))
88.126294     	((1.020014e-11 -1.559445e-11 -2.817398e-11) (-2.315748e-11 -7.477222e-12 1.201216e-10)) ((1.476946e-14 -5.172860e-12 2.314736e-15) (-1.133382e-12 -3.594051e-08 -5.639209e-13))
105.763553    	((4.735687e-11 -2.429845e-11 -1.546500e-11) (-2.812001e-11 -1.793852e-12 1.134413e-10)) ((1.039809e-14 -4.876730e-12 3.698993e-15) (-9.662311e-13 -3.432214e-08 -7.836268e-13))
126.928263    	((6.805121e-11 -1.180015e-11 -6.222535e-12) (-3.002194e-11 1.095771e-12 1.010987e-10)) ((7.224177e-15 -4.607260e-12 4.057752e-15) (-8.578004e-13 -3.285588e-08 -8.559086e-13))
152.325916    	((6.051929e-11 -6.775501e-12 6.272772e-12) (-2.370492e-11 3.905985e-12 8.356536e-11)) ((5.116194e-15 -4.367435e-12 3.954430e-15) (-7.689864e-13 -3.152794e-08 -8.746563e-13))
182.803099    	((7.634248e-11 2.487638e-12 1.338973e-11) (-1.712269e-11 8.341061e-12 7.483051e-11)) ((3.988961e-15 -4.149274e-12 3.624089e-15) (-7.394084e-13 -3.032614e-08 -8.982856e-13))
219.375719    	((9.759174e-11 1.354727e-12 1.354943e-11) (-1.079849e-11 9.662004e-12 7.244585e-11)) ((3.128753e-15 -3.955663e-12 3.159356e-15) (-6.646062e-13 -2.923897e-08 -9.357832e-13))
263.262863    	((6.403732e-11 -3.022615e-12 -6.783628e-12) (-1.306075e-11 9.638869e-12 7.565390e-11)) ((2.968303e-15 -3.779705e-12 2.413871e-15) (-5.490201e-13 -2.825565e-08 -1.021421e-12))
315.927436    	((7.621184e-11 1.744801e-12 -1.872107e-11) (-1.681441e-11 9.894261e-12 7.182396e-11)) ((2.452349e-15 -3.625954e-12 1.994208e-15) (-4.037384e-13 -2.736767e-08 -1.070654e-12))
379.124923    	((5.507469e-11 -4.943817e-12 -1.848046e-11) (-2.312746e-11 1.083796e-11 5.873956e-11)) ((1.764544e-15 -3.482112e-12 1.487943e-15) (-2.280934e-13 -2.656887e-08 -1.050048e-12))
454.961908    	((4.691409e-11 -3.209738e-12 -2.231722e-11) (-2.182421e-11 1.233521e-11 4.796726e-11)) ((2.117101e-15 -3.359500e-12 1.914013e-15) (-6.203663e-14 -2.585392e-08 -1.014236e-12))
543.625837    	((4.392504e-11 -4.064242e-12 -2.195179e-11) (-1.175410e-11 1.226490e-11 4.343966e-11)) ((2.242702e-15 -3.250758e-12 2.374103e-15) (9.484949e-14 -2.522066e-08 -9.720362e-13))
645.115339    	((4.698881e-11 -3.476863e-12 -2.084698e-11) (-5.792520e-12 1.148683e-11 3.398957e-11)) ((1.650043e-15 -3.155175e-12 2.996344e-15) (2.226881e-13 -2.466591e-08 -9.033338e-13))
759.429228    	((4.420240e-11 -2.994233e-12 -3.659859e-11) (4.465591e-12 1.028268e-11 2.772737e-11)) ((1.794367e-15 -3.073393e-12 3.054030e-15) (3.165768e-13 -2.418452e-08 -8.271871e-13))
886.566269    	((4.576430e-11 -1.103138e-11 -4.273824e-11) (1.005049e-11 8.651389e-12 2.740612e-11)) ((1.897897e-15 -3.002567e-12 2.691296e-15) (4.170750e-13 -2.376922e-08 -7.308443e-13))
1014.78968    	((3.572819e-11 -6.676641e-12 -4.965428e-11) (8.681614e-12 7.553893e-12 2.553628e-11)) ((2.107485e-15 -2.943066e-12 2.639282e-15) (4.958756e-13 -2.341830e-08 -6.316274e-13))
1143.006428   	((1.930134e-11 -2.854192e-12 -5.470807e-11) (6.264748e-12 7.673582e-12 2.358481e-11)) ((2.493430e-15 -2.894852e-12 2.713540e-15) (5.228201e-13 -2.312406e-08 -5.547141e-13))
1271.216      	((1.115460e-11 -1.727728e-12 -5.530629e-11) (8.500871e-12 7.449264e-12 2.207732e-11)) ((2.986838e-15 -2.854059e-12 2.643276e-15) (5.204400e-13 -2.287917e-08 -4.811175e-13))
1399.422538   	((6.706537e-12 -3.506331e-12 -5.428051e-11) (1.035658e-11 7.144581e-12 2.266081e-11)) ((3.505879e-15 -2.819012e-12 2.515980e-15) (4.961721e-13 -2.267507e-08 -4.028464e-13))
1527.630081   	((-5.522439e-13 -6.739451e-12 -5.424287e-11) (1.250258e-11 7.095120e-12 2.378094e-11)) ((3.762241e-15 -2.790842e-12 2.377591e-15) (4.535527e-13 -2.250487e-08 -3.275350e-13))
1655.842436   	((-6.189980e-12 -5.530915e-12 -5.286650e-11) (1.553519e-11 8.017256e-12 2.515587e-11)) ((4.026136e-15 -2.767523e-12 2.206329e-15) (3.965378e-13 -2.236223e-08 -2.720129e-13))
1784.060933   	((-9.040489e-12 -3.358384e-12 -5.036781e-11) (1.852815e-11 8.763194e-12 2.523331e-11)) ((4.247910e-15 -2.748221e-12 2.129075e-15) (3.291039e-13 -2.224233e-08 -2.286181e-13))
1912.283245   	((-1.125019e-11 -1.799587e-12 -4.969660e-11) (2.126354e-11 9.321331e-12 2.389313e-11)) ((4.450786e-15 -2.731926e-12 2.058588e-15) (2.593848e-13 -2.214114e-08 -1.900942e-13))
2040.511643   	((-1.351273e-11 -1.434251e-13 -5.075175e-11) (2.383674e-11 9.818003e-12 2.220855e-11)) ((4.669172e-15 -2.718024e-12 1.958628e-15) (2.033216e-13 -2.205542e-08 -1.646364e-13))
2168.748123   	((-1.783353e-11 8.718045e-13 -5.152184e-11) (2.589779e-11 1.040041e-11 2.072324e-11)) ((4.839251e-15 -2.705662e-12 1.876867e-15) (1.565629e-13 -2.198234e-08 -1.497636e-13))
2296.99438    	((-2.151946e-11 1.307608e-12 -5.143993e-11) (2.850112e-11 1.101457e-11 1.904246e-11)) ((5.000473e-15 -2.694853e-12 1.800428e-15) (1.276222e-13 -2.191969e-08 -1.410151e-13))
2425.251777   	((-2.420845e-11 1.808411e-12 -5.083852e-11) (3.103187e-11 1.146861e-11 1.803001e-11)) ((5.184962e-15 -2.685529e-12 1.723713e-15) (1.071791e-13 -2.186569e-08 -1.362064e-13))
2553.521374   	((-2.531721e-11 1.049249e-12 -5.056564e-11) (3.295893e-11 1.182465e-11 1.742436e-11)) ((5.334771e-15 -2.677182e-12 1.671233e-15) (8.910725e-14 -2.181896e-08 -1.341428e-13))
2681.803997   	((-2.758629e-11 9.906183e-13 -5.066446e-11) (3.480640e-11 1.205856e-11 1.711159e-11)) ((5.451978e-15 -2.670034e-12 1.631340e-15) (6.917439e-14 -2.177841e-08 -1.295679e-13))
2810.096244   	((-2.905746e-11 1.306800e-12 -5.065840e-11) (3.630512e-11 1.210801e-11 1.733074e-11)) ((5.567672e-15 -2.663826e-12 1.591024e-15) (5.043836e-14 -2.174310e-08 -1.214804e-13))
2938.395883   	((-3.039940e-11 1.674652e-12 -5.065626e-11) (3.759564e-11 1.210629e-11 1.765788e-11)) ((5.678776e-15 -2.658312e-12 1.564063e-15) (3.292018e-14 -2.171221e-08 -1.142017e-13))
3066.703174   	((-3.141149e-11 1.715570e-12 -5.037426e-11) (3.869371e-11 1.211323e-11 1.791124e-11)) ((5.772456e-15 -2.653446e-12 1.548704e-15) (1.513574e-14 -2.168508e-08 -1.087294e-13))
