# Forces      
# CofR        : (0.000000e+00 0.000000e+00 0.000000e+00)
# Time        forces(pressure viscous)	moments(pressure viscous)
0             	((0.000000e+00 0.000000e+00 0.000000e+00) (0.000000e+00 0.000000e+00 0.000000e+00)) ((0.000000e+00 0.000000e+00 0.000000e+00) (0.000000e+00 0.000000e+00 0.000000e+00))
0.012         	((-1.078833e-10 1.420258e-10 -2.801383e-10) (3.460174e-13 2.756517e-13 1.828766e-12)) ((1.265723e-09 -1.208250e-13 -2.471017e-15) (8.816098e-07 9.664537e-14 -4.055532e-14))
0.0264        	((1.231898e-10 2.488091e-10 -5.048062e-10) (-3.195174e-13 -2.095849e-12 1.598935e-12)) ((6.256867e-10 -9.494248e-14 2.424074e-14) (8.075088e-07 1.663468e-13 -3.914039e-14))
0.04368       	((-5.517616e-10 -3.746649e-10 -5.919690e-10) (3.298573e-12 -6.467953e-12 6.097942e-13)) ((3.470373e-10 -7.912840e-14 2.726582e-14) (7.313814e-07 9.101524e-14 7.188861e-14))
0.064416      	((2.102649e-10 -2.874907e-11 -1.361436e-10) (1.180950e-11 -9.532498e-12 -1.168373e-12)) ((1.959763e-10 -5.407712e-14 -1.013808e-14) (6.549083e-07 -9.828275e-14 1.874566e-13))
0.0892992     	((-8.328729e-11 -1.103700e-10 -1.906495e-11) (1.949484e-11 -1.061143e-11 -3.392861e-12)) ((1.483203e-10 -5.218540e-14 6.426211e-15) (5.803400e-07 -2.763239e-13 2.513187e-13))
0.119159      	((3.014584e-12 -1.690678e-10 -4.305675e-10) (2.500975e-11 -9.874368e-12 -5.209332e-12)) ((1.070636e-10 -3.781690e-14 -1.670301e-15) (5.099918e-07 -3.733001e-13 2.689064e-13))
0.154991      	((2.023574e-10 2.036018e-10 1.386216e-10) (2.670567e-11 -8.461734e-12 -6.123720e-12)) ((8.557189e-11 -2.954974e-14 -4.332289e-15) (4.454965e-07 -4.135621e-13 2.371682e-13))
0.197989      	((1.426141e-10 1.466382e-11 -1.372602e-10) (2.473126e-11 -7.056372e-12 -6.363918e-12)) ((6.850097e-11 -1.257114e-14 -3.641074e-15) (3.883423e-07 -4.303474e-13 2.071278e-13))
0.249587      	((1.572221e-10 5.138168e-11 -1.226779e-10) (1.663178e-11 -6.365352e-12 -6.312611e-12)) ((5.699417e-11 -9.966214e-15 -6.456958e-15) (3.392976e-07 -4.139507e-13 1.904564e-13))
0.311504      	((4.804517e-11 1.305789e-10 -1.730629e-10) (1.142726e-11 -6.826358e-12 -5.621956e-12)) ((4.785154e-11 -1.187307e-14 -1.646171e-15) (2.982226e-07 -3.822738e-13 1.866685e-13))
0.385805      	((-1.646785e-10 1.702679e-10 -2.146495e-10) (1.074797e-11 -6.539180e-12 -6.226815e-12)) ((4.145777e-11 -1.303061e-14 4.058166e-15) (2.642375e-07 -3.718114e-13 1.682401e-13))
0.474966      	((-5.799382e-11 2.045493e-10 -2.093977e-10) (8.095060e-12 -4.922406e-12 -9.953236e-12)) ((3.718307e-11 -9.274299e-15 6.442970e-15) (2.360206e-07 -4.442016e-13 1.467633e-13))
0.581959      	((1.791468e-10 2.966683e-10 -1.193184e-10) (2.985800e-11 -2.141610e-12 -1.197003e-11)) ((3.333137e-11 -9.199417e-15 9.889949e-15) (2.122291e-07 -4.907674e-13 1.503021e-13))
0.710351      	((1.188715e-11 3.596176e-10 -2.519188e-10) (4.893016e-11 -4.781744e-13 -1.164144e-11)) ((2.957470e-11 -1.264269e-14 1.234151e-14) (1.917642e-07 -5.255653e-13 2.296496e-13))
0.864421      	((-2.627866e-11 4.521831e-10 -1.075315e-10) (4.671479e-11 -1.215836e-12 -7.900429e-12)) ((2.694856e-11 -1.755568e-14 1.454203e-14) (1.738377e-07 -5.740968e-13 3.954305e-13))
1.049306      	((7.518489e-11 4.930847e-10 -1.785054e-10) (4.576075e-11 -2.404219e-12 -1.102338e-12)) ((2.528827e-11 -1.682212e-14 1.184374e-14) (1.579153e-07 -5.268351e-13 5.238505e-13))
1.271167      	((-1.624887e-10 6.785898e-10 -2.214723e-10) (3.847189e-11 -9.359556e-12 1.456997e-12)) ((2.361172e-11 -1.545080e-14 9.643269e-15) (1.436345e-07 -4.381805e-13 6.920598e-13))
1.5374        	((-9.630060e-11 5.914902e-10 -3.420933e-10) (2.165763e-11 -2.003149e-11 5.565757e-12)) ((2.171580e-11 -9.039652e-15 8.403126e-15) (1.307573e-07 -3.381712e-13 1.053317e-12))
1.85688       	((6.595521e-11 5.409610e-10 -3.402919e-10) (1.314113e-11 -3.557366e-11 2.008477e-11)) ((1.989611e-11 -7.596559e-16 2.995138e-15) (1.191538e-07 5.915144e-14 1.541535e-12))
2.240256      	((-8.278891e-13 4.554933e-10 -4.214081e-10) (1.300861e-11 -5.957540e-11 4.430154e-11)) ((1.866436e-11 4.958741e-15 -4.244463e-15) (1.087595e-07 6.516615e-13 2.223245e-12))
2.700307      	((-2.365728e-11 2.596424e-10 -4.113612e-10) (8.762948e-13 -9.807867e-11 7.304385e-11)) ((1.779308e-11 7.804094e-15 -6.301935e-15) (9.952288e-08 1.298581e-12 3.198057e-12))
3.252369      	((3.653160e-11 1.287528e-10 -4.207639e-10) (1.213338e-11 -1.480677e-10 1.094600e-10)) ((1.682482e-11 1.026553e-14 -6.764143e-15) (9.137625e-08 1.936216e-12 4.344571e-12))
3.914842      	((-3.617978e-11 1.779627e-11 -2.711182e-10) (2.442434e-11 -1.919969e-10 1.488350e-10)) ((1.578963e-11 6.622127e-15 -2.754118e-15) (8.421622e-08 2.663987e-12 4.939452e-12))
4.709811      	((8.168668e-11 7.222962e-11 -9.086460e-12) (6.203553e-12 -2.274219e-10 1.972940e-10)) ((1.469336e-11 6.278499e-15 -1.570502e-15) (7.790050e-08 3.335482e-12 5.254124e-12))
5.663773      	((-6.015107e-11 1.102932e-10 1.639911e-10) (1.293465e-12 -2.470326e-10 2.290702e-10)) ((1.356459e-11 7.428612e-15 -1.408659e-15) (7.228005e-08 3.593886e-12 5.421088e-12))
6.808528      	((2.361178e-11 4.350946e-11 1.585701e-10) (-9.260884e-12 -2.487056e-10 2.332461e-10)) ((1.242922e-11 8.178529e-15 -4.950720e-15) (6.722190e-08 3.483100e-12 5.243534e-12))
8.182233      	((-3.628872e-11 -6.687313e-11 1.531782e-10) (-2.866919e-11 -2.259528e-10 2.187056e-10)) ((1.133162e-11 8.911514e-15 -8.076797e-15) (6.262350e-08 2.988723e-12 4.814544e-12))
9.83068       	((-4.728902e-11 -3.716908e-11 1.581353e-10) (-4.956355e-11 -1.815510e-10 1.847171e-10)) ((1.028314e-11 9.615327e-15 -1.038175e-14) (5.841403e-08 2.627215e-12 3.955444e-12))
11.808816     	((-7.162955e-11 7.660515e-12 6.404621e-11) (-6.060453e-11 -1.350558e-10 1.486453e-10)) ((9.323259e-12 9.517716e-15 -1.292512e-14) (5.454120e-08 2.388967e-12 2.925947e-12))
14.182579     	((-5.080660e-11 2.694649e-11 9.316623e-13) (-6.577168e-11 -9.529540e-11 1.133484e-10)) ((8.459938e-12 8.152917e-15 -1.483468e-14) (5.096995e-08 2.039966e-12 1.941597e-12))
17.031095     	((-5.575015e-11 1.598288e-11 -1.461272e-11) (-6.372633e-11 -6.911453e-11 8.320503e-11)) ((7.697186e-12 3.453496e-15 -1.309910e-14) (4.768073e-08 1.662886e-12 1.134950e-12))
20.449314     	((-1.111989e-11 4.151163e-11 5.113218e-11) (-5.767498e-11 -4.835323e-11 5.753869e-11)) ((7.020559e-12 -1.020160e-15 -1.054075e-14) (4.466559e-08 1.215149e-12 6.030947e-13))
24.551176     	((-2.021507e-11 2.631695e-11 1.208620e-11) (-4.767382e-11 -2.918246e-11 3.875302e-11)) ((6.434714e-12 -3.835405e-15 -8.590220e-15) (4.191378e-08 9.276108e-13 1.956316e-13))
29.473411     	((5.387260e-12 2.428342e-11 -1.280213e-12) (-3.517696e-11 -1.158196e-11 2.562575e-11)) ((5.934727e-12 -5.133910e-15 -6.275937e-15) (3.940847e-08 8.923728e-13 -2.430821e-13))
35.380094     	((4.313260e-12 2.587522e-11 -5.690329e-12) (-3.318754e-11 1.236826e-12 1.617732e-11)) ((5.492701e-12 -5.653482e-15 -5.062948e-15) (3.713020e-08 8.760259e-13 -4.881659e-13))
42.468112     	((8.144222e-12 2.927974e-11 -1.648010e-11) (-3.111756e-11 8.622645e-12 1.472712e-11)) ((5.099486e-12 -5.505776e-15 -4.382504e-15) (3.505813e-08 8.578867e-13 -5.256024e-13))
50.973735     	((-1.078215e-11 5.180183e-11 -2.355538e-11) (-2.406954e-11 8.537464e-12 1.716486e-11)) ((4.751105e-12 -5.142777e-15 -2.918807e-15) (3.317247e-08 9.020077e-13 -4.490815e-13))
61.180482     	((-1.465175e-11 4.401903e-11 8.350797e-12) (-1.340807e-11 2.809095e-12 2.286518e-11)) ((4.447351e-12 -4.955101e-15 -1.732320e-15) (3.145636e-08 9.507901e-13 -2.673213e-13))
73.428578     	((4.545777e-12 3.272959e-11 2.360847e-11) (-9.277143e-12 -2.187707e-12 2.906001e-11)) ((4.187496e-12 -5.956198e-15 1.165256e-16) (2.989476e-08 9.304242e-13 -2.295865e-14))
88.126294     	((4.752151e-12 -2.002701e-11 1.711881e-13) (-6.681890e-13 -9.495708e-12 3.065928e-11)) ((3.967766e-12 -5.690236e-15 1.564147e-15) (2.847485e-08 8.298239e-13 1.658581e-13))
105.763553    	((5.964249e-12 -3.018513e-11 -9.230017e-12) (2.687809e-12 -1.739157e-11 2.537205e-11)) ((3.760456e-12 -4.661926e-15 1.229439e-15) (2.718690e-08 6.670606e-13 3.216436e-13))
126.928263    	((3.145495e-11 -1.218382e-11 6.834012e-12) (7.081832e-13 -1.776813e-11 2.310914e-11)) ((3.576069e-12 -2.977728e-15 -5.182960e-16) (2.602062e-08 5.149417e-13 4.340162e-13))
152.325916    	((4.517021e-11 1.686491e-12 5.616961e-12) (8.306941e-13 -1.860371e-11 1.837794e-11)) ((3.408061e-12 -2.031691e-15 -1.746265e-15) (2.496446e-08 3.951722e-13 5.227700e-13))
182.803099    	((5.544162e-11 2.141448e-11 1.986606e-11) (2.784940e-12 -2.184201e-11 1.143855e-11)) ((3.254118e-12 -1.818808e-15 -2.520567e-15) (2.400741e-08 2.995917e-13 6.137056e-13))
219.375719    	((5.131453e-11 2.781665e-11 2.796266e-11) (1.002981e-11 -2.272958e-11 7.038631e-12)) ((3.109333e-12 -1.259284e-15 -3.113788e-15) (2.314062e-08 2.382144e-13 6.495118e-13))
263.262863    	((5.370529e-11 4.449919e-11 4.591811e-11) (1.645055e-11 -2.305145e-11 3.529090e-12)) ((2.977699e-12 -1.087465e-15 -3.411849e-15) (2.235565e-08 1.912223e-13 6.735630e-13))
315.927436    	((6.428716e-11 3.987247e-11 3.320060e-11) (1.956258e-11 -2.157657e-11 2.024397e-12)) ((2.862416e-12 -1.024159e-15 -3.929554e-15) (2.164526e-08 1.683810e-13 6.820728e-13))
379.124923    	((6.352860e-11 3.610243e-11 1.949841e-11) (2.117662e-11 -2.110717e-11 2.611323e-13)) ((2.758014e-12 -6.720062e-16 -4.516139e-15) (2.100405e-08 1.197926e-13 7.222409e-13))
454.961908    	((5.124280e-11 3.438325e-11 1.359479e-11) (1.930931e-11 -2.069286e-11 -3.337297e-12)) ((2.667624e-12 -5.237064e-16 -4.623718e-15) (2.042736e-08 2.941789e-14 7.782991e-13))
545.966289    	((5.249930e-11 4.151699e-11 1.546583e-11) (2.152219e-11 -1.845064e-11 -5.456125e-12)) ((2.584121e-12 -4.759667e-16 -4.562387e-15) (1.991139e-08 -6.127622e-14 7.976593e-13))
653.120983    	((4.881176e-11 4.142347e-11 1.351191e-11) (2.182144e-11 -1.596447e-11 -6.193549e-12)) ((2.514007e-12 -7.341789e-16 -4.614812e-15) (1.945368e-08 -1.101820e-13 7.794233e-13))
776.424806    	((4.740910e-11 4.587663e-11 1.902433e-11) (2.108437e-11 -1.302918e-11 -5.778202e-12)) ((2.454172e-12 -7.312443e-16 -4.523004e-15) (1.905145e-08 -1.464018e-13 7.168319e-13))
915.877325    	((3.692987e-11 4.248395e-11 1.258888e-11) (1.878922e-11 -9.373970e-12 -6.202438e-12)) ((2.400817e-12 -5.325655e-16 -4.511324e-15) (1.870126e-08 -1.875619e-13 6.280324e-13))
1071.47787    	((3.782105e-11 4.439065e-11 1.525948e-11) (1.781066e-11 -5.409529e-12 -6.543974e-12)) ((2.353175e-12 -3.383892e-16 -4.482302e-15) (1.839860e-08 -2.313407e-13 5.329023e-13))
1232.95691    	((4.172950e-11 4.311025e-11 1.338012e-11) (1.834733e-11 -2.557310e-12 -7.042914e-12)) ((2.312241e-12 -2.467126e-16 -4.401507e-15) (1.814088e-08 -2.617434e-13 4.462187e-13))
1394.440899   	((4.668888e-11 4.080877e-11 1.172631e-11) (1.862746e-11 -2.949153e-13 -7.155353e-12)) ((2.278372e-12 -2.322506e-16 -4.175039e-15) (1.792356e-08 -2.765243e-13 3.745675e-13))
1555.92796    	((4.200174e-11 3.835510e-11 1.006310e-11) (1.989974e-11 1.278589e-12 -7.019713e-12)) ((2.249776e-12 -3.056975e-16 -3.905698e-15) (1.774130e-08 -2.732832e-13 3.078546e-13))
1717.419947   	((3.685209e-11 3.673357e-11 9.382044e-12) (1.967044e-11 2.513269e-12 -6.739457e-12)) ((2.226471e-12 -5.452921e-16 -3.581030e-15) (1.758837e-08 -2.580131e-13 2.450222e-13))
1878.921014   	((3.096226e-11 3.460243e-11 9.466247e-12) (1.840607e-11 3.270097e-12 -6.431433e-12)) ((2.206737e-12 -8.288958e-16 -3.317728e-15) (1.745977e-08 -2.282374e-13 1.880293e-13))
2040.434708   	((2.592671e-11 3.429908e-11 9.970184e-12) (1.785576e-11 3.863476e-12 -6.058490e-12)) ((2.189192e-12 -1.044814e-15 -3.140175e-15) (1.735114e-08 -1.948339e-13 1.465320e-13))
2201.963945   	((2.444037e-11 3.317870e-11 9.079269e-12) (1.804941e-11 4.246756e-12 -5.840312e-12)) ((2.173868e-12 -1.154678e-15 -2.969530e-15) (1.725894e-08 -1.622660e-13 1.216596e-13))
2363.504145   	((2.361984e-11 3.213715e-11 7.865374e-12) (1.851111e-11 4.757543e-12 -5.637896e-12)) ((2.160770e-12 -1.281908e-15 -2.868267e-15) (1.718025e-08 -1.341428e-13 1.097325e-13))
2525.053968   	((2.551787e-11 3.100337e-11 6.799094e-12) (1.950172e-11 5.223179e-12 -5.478640e-12)) ((2.149634e-12 -1.418749e-15 -2.807595e-15) (1.711275e-08 -1.138186e-13 1.061929e-13))
2686.614526   	((2.724474e-11 2.999484e-11 6.315939e-12) (2.077114e-11 5.533061e-12 -5.400594e-12)) ((2.140083e-12 -1.447326e-15 -2.743290e-15) (1.705454e-08 -9.817010e-14 1.030690e-13))
2848.186588   	((2.846164e-11 2.865590e-11 5.913704e-12) (2.188473e-11 5.782098e-12 -5.263804e-12)) ((2.131908e-12 -1.453998e-15 -2.683359e-15) (1.700413e-08 -8.686946e-14 9.790667e-14))
3009.770612   	((2.911575e-11 2.728959e-11 5.559724e-12) (2.252073e-11 5.863044e-12 -5.109227e-12)) ((2.124899e-12 -1.490397e-15 -2.619731e-15) (1.696028e-08 -7.921229e-14 9.112334e-14))
3171.366821   	((2.952499e-11 2.584103e-11 5.038189e-12) (2.300382e-11 5.757782e-12 -5.186215e-12)) ((2.118792e-12 -1.535974e-15 -2.547936e-15) (1.692199e-08 -7.456013e-14 8.382506e-14))
3332.966878   	((2.941608e-11 2.461946e-11 4.305272e-12) (2.334671e-11 5.565169e-12 -5.366772e-12)) ((2.113449e-12 -1.555272e-15 -2.486583e-15) (1.688840e-08 -7.018651e-14 7.686145e-14))
3494.570389   	((2.914369e-11 2.365796e-11 3.483456e-12) (2.362126e-11 5.454197e-12 -5.429129e-12)) ((2.108714e-12 -1.557941e-15 -2.427481e-15) (1.685884e-08 -6.469473e-14 6.907413e-14))
3656.177389   	((2.868929e-11 2.276971e-11 2.855203e-12) (2.363601e-11 5.421334e-12 -5.421023e-12)) ((2.104530e-12 -1.560780e-15 -2.384072e-15) (1.683272e-08 -5.784409e-14 6.134800e-14))
3817.787566   	((2.946332e-11 2.212259e-11 2.342465e-12) (2.365592e-11 5.461647e-12 -5.402358e-12)) ((2.100847e-12 -1.577446e-15 -2.341257e-15) (1.680958e-08 -4.932510e-14 5.436599e-14))
