# Forces      
# CofR        : (0.000000e+00 0.000000e+00 0.000000e+00)
# Time        forces(pressure viscous)	moments(pressure viscous)
0             	((0.000000e+00 0.000000e+00 0.000000e+00) (-1.396838e-13 1.268521e-14 -2.016752e-03)) ((0.000000e+00 0.000000e+00 0.000000e+00) (-3.971165e-15 -7.782228e-10 -3.521406e-16))
0.012         	((-1.005387e-06 -9.882058e-07 -5.846436e-01) (6.377161e-10 -5.764695e-10 -2.307061e-03)) ((-1.310931e-10 -1.555935e-07 1.125212e-12) (1.511052e-11 -2.197649e-09 -1.759419e-13))
0.0264        	((-4.337173e-06 -5.395859e-06 6.561179e-02) (-3.492676e-09 -6.466266e-09 -2.329539e-03)) ((-5.711798e-10 1.503777e-08 4.999928e-14) (8.040706e-11 -3.143186e-09 -1.923012e-12))
0.04368       	((1.006027e-05 6.732055e-06 1.087236e-01) (4.388537e-09 -5.423484e-09 -2.045795e-03)) ((1.411411e-09 2.385561e-08 6.406314e-12) (4.237720e-11 -3.206384e-09 -3.323372e-12))
0.064416      	((-3.194639e-06 -2.568935e-06 7.524001e-04) (-2.544626e-08 5.307090e-10 -1.803091e-03)) ((-3.555209e-10 -1.781593e-09 3.592716e-12) (-1.012382e-10 -3.892625e-09 -2.758336e-11))
0.0892992     	((-1.990142e-06 8.658453e-07 2.771767e-04) (-4.249010e-08 4.068757e-09 -1.659606e-03)) ((-2.564701e-10 -7.416813e-10 -5.741119e-12) (-1.461940e-10 -4.574469e-09 -4.807793e-11))
0.119159      	((3.633683e-07 -9.685685e-08 1.698130e-03) (-4.120360e-08 7.900996e-09 -1.534400e-03)) ((-3.946400e-11 -9.635900e-10 -3.195697e-13) (-1.399849e-10 -3.915834e-09 -4.353399e-11))
0.154991      	((-7.433548e-07 -1.357324e-07 3.934486e-04) (-3.898326e-08 1.108011e-09 -1.409549e-03)) ((9.120657e-12 -1.214724e-09 -2.403663e-12) (-1.211469e-10 -3.099481e-09 -2.864203e-11))
0.197989      	((4.550936e-08 -2.826357e-07 -7.254424e-05) (-2.174421e-08 -5.227376e-09 -1.292596e-03)) ((8.441939e-12 -1.379219e-09 -3.672752e-12) (-1.951512e-11 -2.960743e-09 -9.009740e-12))
0.249587      	((-2.320319e-07 -1.803333e-07 -2.436980e-04) (1.212954e-08 -6.292452e-09 -1.187309e-03)) ((3.496769e-12 -1.379329e-09 2.780285e-12) (5.919360e-11 -3.353767e-09 3.872021e-12))
0.311504      	((5.162076e-08 -1.260886e-07 -3.488790e-04) (4.202649e-08 -7.816910e-09 -1.094764e-03)) ((9.117932e-12 -1.384946e-09 -2.378760e-12) (7.058411e-11 -4.136034e-09 -5.042767e-12))
0.385805      	((2.526711e-08 -5.907457e-08 -4.061943e-04) (6.226771e-08 -5.980335e-09 -1.013405e-03)) ((3.147086e-12 -1.353257e-09 -1.114111e-12) (2.062035e-11 -5.119216e-09 -3.609489e-11))
0.474966      	((1.481614e-07 1.903472e-09 -4.353984e-04) (7.100884e-08 -3.113747e-09 -9.403286e-04)) ((-2.554869e-13 -1.203910e-09 -1.940836e-12) (-3.724523e-11 -5.597424e-09 -5.641481e-11))
0.581959      	((2.948014e-08 -2.429536e-09 -4.464257e-04) (5.418407e-08 -2.407094e-09 -8.714016e-04)) ((-6.053252e-13 -1.058676e-09 -1.930831e-12) (-8.004996e-11 -5.158411e-09 -6.199186e-11))
0.710351      	((-7.361598e-08 -5.774036e-09 -4.469322e-04) (2.670168e-08 -2.580470e-09 -8.043367e-04)) ((-1.600782e-12 -9.548461e-10 -1.941603e-12) (-1.112920e-10 -4.362251e-09 -6.059509e-11))
0.864421      	((-9.290662e-08 -3.425302e-09 -4.441473e-04) (7.042639e-09 -2.267815e-09 -7.398248e-04)) ((-3.478314e-12 -8.910640e-10 -2.033632e-12) (-1.250306e-10 -4.090954e-09 -5.584170e-11))
1.049306      	((-1.037011e-07 6.220769e-09 -4.436461e-04) (9.146962e-09 -1.122263e-09 -6.792265e-04)) ((-5.600630e-12 -8.264677e-10 -1.785979e-12) (-1.291850e-10 -4.495846e-09 -5.027371e-11))
1.271167      	((-1.132238e-07 -5.930269e-08 -4.503980e-04) (1.549163e-08 -6.769739e-10 -6.234550e-04)) ((-6.285954e-12 -7.494645e-10 -1.760642e-12) (-1.424388e-10 -4.818959e-09 -4.211512e-11))
1.5374        	((-1.766116e-07 -8.003088e-08 -4.664181e-04) (1.525454e-08 -2.683896e-09 -5.731078e-04)) ((-4.407492e-12 -6.792532e-10 -2.255311e-12) (-1.647564e-10 -4.428438e-09 -2.838795e-11))
1.85688       	((-2.099061e-07 -1.501142e-07 -4.932157e-04) (2.098694e-08 -6.112610e-09 -5.285166e-04)) ((-2.541783e-12 -6.376150e-10 -2.046533e-12) (-2.120288e-10 -3.663132e-09 -1.050973e-11))
2.240256      	((-2.183957e-07 -1.813986e-07 -5.336365e-04) (2.023047e-08 -9.708172e-09 -4.897804e-04)) ((-2.698710e-12 -6.123044e-10 -1.711192e-12) (-2.700923e-10 -3.015960e-09 7.287343e-12))
2.700307      	((-2.061057e-07 -1.720656e-07 -5.894438e-04) (9.355600e-09 -1.295881e-08 -4.567585e-04)) ((-4.191941e-12 -5.843731e-10 -1.733630e-12) (-2.894997e-10 -2.494635e-09 2.066026e-11))
3.239306      	((-1.796598e-07 -1.063891e-07 -6.609385e-04) (1.953951e-09 -1.529153e-08 -4.295423e-04)) ((-3.667588e-12 -5.385800e-10 -1.436407e-12) (-2.922156e-10 -2.411085e-09 3.336000e-11))
3.856667      	((-1.252109e-07 -5.270225e-08 -7.464719e-04) (-6.912010e-09 -1.618211e-08 -4.074910e-04)) ((-3.615124e-12 -5.021071e-10 -1.642732e-12) (-3.140871e-10 -3.137877e-09 4.634074e-11))
4.551789      	((-3.307211e-08 2.303059e-08 -8.442464e-04) (-1.817105e-08 -1.650804e-08 -3.897977e-04)) ((-4.427183e-12 -4.637179e-10 -1.787990e-12) (-3.941405e-10 -4.322007e-09 4.885974e-11))
5.322174      	((-8.373554e-08 9.339335e-08 -9.535668e-04) (-2.691953e-08 -1.835466e-08 -3.757605e-04)) ((-7.519609e-12 -4.172277e-10 -1.445083e-12) (-5.594317e-10 -6.396543e-09 4.747417e-11))
6.083976      	((-2.727005e-09 2.209184e-07 -1.063639e-03) (-3.444849e-08 -1.915251e-08 -3.657507e-04)) ((-7.676801e-12 -4.130151e-10 -2.136814e-12) (-7.831279e-10 -9.799539e-09 4.451584e-11))
6.836639      	((1.355869e-07 4.093825e-07 -1.164403e-03) (-2.508171e-08 -1.546691e-08 -3.582989e-04)) ((-3.454780e-12 -4.318431e-10 -2.398788e-12) (-9.619334e-10 -1.307270e-08 4.060117e-11))
7.581244      	((4.430938e-07 6.256913e-07 -1.252807e-03) (-3.675030e-09 -3.925148e-09 -3.524959e-04)) ((3.825385e-12 -4.438485e-10 -2.296647e-12) (-8.911422e-10 -1.456252e-08 4.075421e-11))
8.3208        	((6.855052e-07 8.830228e-07 -1.321425e-03) (2.888261e-08 1.601532e-08 -3.475103e-04)) ((9.062306e-12 -4.521511e-10 -2.204821e-12) (-5.316796e-10 -1.458474e-08 4.706103e-11))
9.058904      	((8.202202e-07 1.112040e-06 -1.371289e-03) (5.103443e-08 3.898724e-08 -3.432837e-04)) ((1.002922e-11 -4.587628e-10 -2.654927e-12) (-1.189111e-10 -1.359983e-08 4.732973e-11))
9.797886      	((9.432862e-07 1.355686e-06 -1.397405e-03) (4.737854e-08 5.698542e-08 -3.394559e-04)) ((1.021571e-11 -4.648165e-10 -3.102426e-12) (1.617698e-11 -1.156037e-08 5.440033e-11))
10.538013     	((1.006069e-06 1.572940e-06 -1.400295e-03) (5.084963e-08 7.109237e-08 -3.357928e-04)) ((9.751905e-12 -4.726765e-10 -3.452099e-12) (-1.629325e-10 -9.434135e-09 5.369279e-11))
11.278483     	((9.344558e-07 1.707707e-06 -1.386208e-03) (4.747491e-08 8.077221e-08 -3.322145e-04)) ((1.287324e-11 -4.728394e-10 -3.600177e-12) (-4.551224e-10 -7.848052e-09 4.885407e-11))
12.018518     	((1.031088e-06 2.032378e-06 -1.366361e-03) (4.432508e-08 9.472498e-08 -3.288902e-04)) ((1.923715e-11 -4.860220e-10 -2.488426e-12) (-7.292761e-10 -6.827753e-09 3.784142e-11))
12.757979     	((9.307150e-07 2.226959e-06 -1.340925e-03) (5.640887e-08 1.138000e-07 -3.259581e-04)) ((2.183232e-11 -5.059730e-10 -4.696296e-13) (-9.221624e-10 -6.604976e-09 1.519508e-11))
13.497087     	((9.895260e-07 2.381389e-06 -1.319765e-03) (7.151247e-08 1.330829e-07 -3.232063e-04)) ((2.312794e-11 -5.043092e-10 3.562482e-13) (-9.755350e-10 -6.338992e-09 7.719603e-12))
14.236024     	((1.106586e-06 2.716543e-06 -1.305686e-03) (8.328914e-08 1.487898e-07 -3.206326e-04)) ((2.916952e-11 -4.991927e-10 1.313321e-12) (-1.197004e-09 -5.850690e-09 2.354621e-11))
14.974727     	((1.244476e-06 2.858071e-06 -1.300506e-03) (9.712628e-08 1.656448e-07 -3.184080e-04)) ((2.870047e-11 -4.839933e-10 1.805924e-12) (-1.399811e-09 -5.638698e-09 9.848419e-12))
15.713052     	((1.586787e-06 2.975789e-06 -1.297392e-03) (1.108182e-07 1.789241e-07 -3.164763e-04)) ((2.888304e-11 -4.676687e-10 1.792665e-12) (-1.530975e-09 -5.202865e-09 9.582971e-12))
16.451085     	((1.971193e-06 3.289452e-06 -1.292734e-03) (1.225039e-07 1.907886e-07 -3.146706e-04)) ((2.857340e-11 -4.481391e-10 6.770297e-13) (-1.836536e-09 -4.340174e-09 2.237026e-11))
17.189025     	((2.468763e-06 3.601928e-06 -1.283552e-03) (1.314870e-07 2.009880e-07 -3.128586e-04)) ((2.432190e-11 -4.238061e-10 9.839961e-13) (-2.486574e-09 -3.021861e-09 3.586980e-11))
17.926961     	((3.004182e-06 4.061377e-06 -1.274593e-03) (1.423907e-07 2.134937e-07 -3.110350e-04)) ((2.263752e-11 -4.021691e-10 1.191833e-12) (-3.273195e-09 -1.480716e-09 4.080604e-11))
18.664928     	((3.545258e-06 4.466996e-06 -1.265975e-03) (1.602519e-07 2.316299e-07 -3.092591e-04)) ((2.059833e-11 -3.854181e-10 1.504530e-12) (-3.980294e-09 -1.527739e-11 4.138326e-11))
19.402962     	((4.284920e-06 5.044317e-06 -1.258071e-03) (1.849933e-07 2.561119e-07 -3.075472e-04)) ((2.143643e-11 -3.748543e-10 1.119288e-12) (-4.631352e-09 1.386575e-09 3.282896e-11))
20.14092      	((4.959143e-06 5.611575e-06 -1.251034e-03) (2.138093e-07 2.845369e-07 -3.059018e-04)) ((2.452623e-11 -3.679597e-10 9.630241e-13) (-5.388044e-09 2.807711e-09 3.040475e-11))
20.878952     	((5.688844e-06 6.239766e-06 -1.243974e-03) (2.470938e-07 3.154488e-07 -3.043107e-04)) ((2.583816e-11 -3.610572e-10 6.469032e-13) (-6.218691e-09 4.138887e-09 2.200469e-11))
21.617149     	((6.400863e-06 6.847297e-06 -1.237984e-03) (2.869518e-07 3.484236e-07 -3.027896e-04)) ((2.893864e-11 -3.554072e-10 7.848369e-13) (-7.112297e-09 5.292964e-09 1.986833e-11))
22.3555       	((7.019163e-06 7.376834e-06 -1.232558e-03) (3.304745e-07 3.813032e-07 -3.013578e-04)) ((2.989359e-11 -3.483692e-10 1.029254e-12) (-8.027013e-09 6.297712e-09 2.180408e-11))
23.094051     	((7.751067e-06 7.999058e-06 -1.227633e-03) (3.773046e-07 4.158200e-07 -3.000205e-04)) ((3.140903e-11 -3.433107e-10 1.528029e-12) (-8.972345e-09 7.319094e-09 2.335821e-11))
23.832852     	((8.508600e-06 8.705222e-06 -1.223609e-03) (4.310527e-07 4.562643e-07 -2.987850e-04)) ((3.296062e-11 -3.356352e-10 1.919150e-12) (-9.826662e-09 8.165662e-09 3.670437e-11))
24.571944     	((9.336554e-06 9.361646e-06 -1.219736e-03) (4.919105e-07 5.002121e-07 -2.976323e-04)) ((3.652076e-11 -3.303043e-10 2.244122e-12) (-1.055191e-08 8.742041e-09 5.144662e-11))
25.311366     	((1.003071e-05 9.972338e-06 -1.216217e-03) (5.486468e-07 5.401377e-07 -2.965475e-04)) ((3.903754e-11 -3.236899e-10 2.733683e-12) (-1.147166e-08 9.411880e-09 5.925193e-11))
26.051179     	((1.110331e-05 1.096660e-05 -1.212673e-03) (6.055866e-07 5.820061e-07 -2.955334e-04)) ((4.564622e-11 -3.213259e-10 2.150642e-12) (-1.268085e-08 1.033249e-08 5.984063e-11))
26.791492     	((1.223251e-05 1.191740e-05 -1.207260e-03) (6.704943e-07 6.319306e-07 -2.945406e-04)) ((5.270619e-11 -3.196174e-10 2.555301e-12) (-1.386899e-08 1.126070e-08 5.790352e-11))
27.532447     	((1.329530e-05 1.288237e-05 -1.202845e-03) (7.400676e-07 6.879274e-07 -2.935713e-04)) ((5.418755e-11 -3.143703e-10 2.453972e-12) (-1.490320e-08 1.205583e-08 5.176806e-11))
28.274152     	((1.447438e-05 1.387804e-05 -1.198403e-03) (8.151436e-07 7.490049e-07 -2.926328e-04)) ((5.838051e-11 -3.130693e-10 1.934249e-12) (-1.585017e-08 1.273531e-08 5.174203e-11))
29.016157     	((1.567717e-05 1.500366e-05 -1.193654e-03) (8.949619e-07 8.159646e-07 -2.917054e-04)) ((6.537251e-11 -3.130146e-10 1.235754e-12) (-1.679761e-08 1.343453e-08 5.709437e-11))
29.758197     	((1.706009e-05 1.625643e-05 -1.189238e-03) (9.808528e-07 8.909026e-07 -2.907878e-04)) ((7.137040e-11 -3.114154e-10 1.130626e-12) (-1.773504e-08 1.421852e-08 5.704085e-11))
30.500337     	((1.858782e-05 1.760399e-05 -1.185841e-03) (1.075282e-06 9.743454e-07 -2.899050e-04)) ((7.666190e-11 -3.100167e-10 2.207575e-12) (-1.861777e-08 1.502245e-08 5.096342e-11))
31.242602     	((2.002878e-05 1.889900e-05 -1.182752e-03) (1.174328e-06 1.062788e-06 -2.890723e-04)) ((8.033189e-11 -3.072149e-10 3.618654e-12) (-1.949999e-08 1.588319e-08 3.418648e-11))
31.98503      	((2.178756e-05 2.031854e-05 -1.179655e-03) (1.280625e-06 1.155085e-06 -2.882881e-04)) ((8.216689e-11 -3.055341e-10 4.549348e-12) (-2.042738e-08 1.686011e-08 2.176078e-11))
32.727653     	((2.398644e-05 2.210620e-05 -1.176146e-03) (1.402853e-06 1.258348e-06 -2.875388e-04)) ((8.997585e-11 -3.095265e-10 4.715516e-12) (-2.139947e-08 1.792859e-08 1.688219e-11))
33.470509     	((2.650201e-05 2.406656e-05 -1.172606e-03) (1.544914e-06 1.376962e-06 -2.868125e-04)) ((9.773611e-11 -3.153355e-10 4.493339e-12) (-2.233230e-08 1.906324e-08 2.006323e-11))
34.213644     	((2.921953e-05 2.622015e-05 -1.169147e-03) (1.706417e-06 1.511748e-06 -2.861027e-04)) ((1.076055e-10 -3.233286e-10 3.937162e-12) (-2.318758e-08 2.028794e-08 2.976663e-11))
34.95708      	((3.218193e-05 2.852180e-05 -1.165608e-03) (1.884735e-06 1.660608e-06 -2.854008e-04)) ((1.201809e-10 -3.344781e-10 3.238777e-12) (-2.405686e-08 2.169073e-08 4.637499e-11))
35.700821     	((3.545672e-05 3.107760e-05 -1.162074e-03) (2.077552e-06 1.820281e-06 -2.847086e-04)) ((1.367183e-10 -3.491839e-10 2.525882e-12) (-2.519116e-08 2.349388e-08 6.316621e-11))
36.444867     	((3.907520e-05 3.395331e-05 -1.158318e-03) (2.285343e-06 1.991450e-06 -2.840297e-04)) ((1.558770e-10 -3.664006e-10 1.817677e-12) (-2.675906e-08 2.579027e-08 7.658173e-11))
37.18922      	((4.284312e-05 3.694376e-05 -1.154487e-03) (2.509596e-06 2.175481e-06 -2.833669e-04)) ((1.737329e-10 -3.796876e-10 9.610007e-13) (-2.862198e-08 2.845087e-08 9.706992e-11))
37.933878     	((4.684109e-05 4.020344e-05 -1.151439e-03) (2.752987e-06 2.376918e-06 -2.827349e-04)) ((1.895780e-10 -3.900039e-10 -1.791914e-14) (-3.056691e-08 3.129836e-08 1.220372e-10))
38.678842     	((5.113220e-05 4.358848e-05 -1.148933e-03) (3.018293e-06 2.596250e-06 -2.821395e-04)) ((2.054120e-10 -3.998958e-10 -1.095505e-12) (-3.259973e-08 3.430264e-08 1.425254e-10))
39.424119     	((5.566799e-05 4.725226e-05 -1.146908e-03) (3.303766e-06 2.832843e-06 -2.815778e-04)) ((2.235871e-10 -4.132149e-10 -2.470758e-12) (-3.485528e-08 3.759952e-08 1.612457e-10))
40.169722     	((6.051652e-05 5.106657e-05 -1.144858e-03) (3.608384e-06 3.083213e-06 -2.810415e-04)) ((2.413308e-10 -4.277933e-10 -3.346934e-12) (-3.751862e-08 4.127273e-08 1.602147e-10))
40.915657     	((6.564319e-05 5.520051e-05 -1.142876e-03) (3.933768e-06 3.349326e-06 -2.805262e-04)) ((2.607630e-10 -4.449429e-10 -4.572712e-12) (-4.051845e-08 4.523453e-08 1.517751e-10))
41.661923     	((7.125357e-05 5.970047e-05 -1.140542e-03) (4.286191e-06 3.637835e-06 -2.800224e-04)) ((2.832317e-10 -4.659825e-10 -5.896562e-12) (-4.369312e-08 4.940534e-08 1.645415e-10))
42.408513     	((7.724620e-05 6.465390e-05 -1.138174e-03) (4.668758e-06 3.953804e-06 -2.795257e-04)) ((3.079029e-10 -4.887077e-10 -7.400055e-12) (-4.695254e-08 5.368767e-08 1.869255e-10))
43.155418     	((8.380264e-05 7.004059e-05 -1.135866e-03) (5.086371e-06 4.299847e-06 -2.790388e-04)) ((3.348816e-10 -5.141465e-10 -8.912050e-12) (-5.031708e-08 5.799829e-08 2.236506e-10))
43.902621     	((9.077355e-05 7.587746e-05 -1.133933e-03) (5.540746e-06 4.678018e-06 -2.785680e-04)) ((3.638712e-10 -5.411425e-10 -1.055875e-11) (-5.380824e-08 6.243104e-08 2.792000e-10))
44.6501       	((9.823116e-05 8.220232e-05 -1.132288e-03) (6.031936e-06 5.089646e-06 -2.781198e-04)) ((3.968544e-10 -5.721482e-10 -1.265380e-11) (-5.751241e-08 6.700600e-08 3.654175e-10))
45.397833     	((1.063071e-04 8.908708e-05 -1.131030e-03) (6.561958e-06 5.536212e-06 -2.776978e-04)) ((4.325670e-10 -6.078084e-10 -1.486752e-11) (-6.149570e-08 7.185037e-08 4.475841e-10))
46.145749     	((1.150927e-04 9.656675e-05 -1.129902e-03) (7.134654e-06 6.020068e-06 -2.772996e-04)) ((4.712546e-10 -6.485880e-10 -1.679391e-11) (-6.583342e-08 7.709037e-08 4.914617e-10))
46.893613     	((1.246585e-04 1.047677e-04 -1.129021e-03) (7.758565e-06 6.548401e-06 -2.769299e-04)) ((5.149543e-10 -6.941039e-10 -1.883929e-11) (-7.041888e-08 8.250558e-08 4.764163e-10))
47.641382     	((1.351034e-04 1.137848e-04 -1.128379e-03) (8.437455e-06 7.125098e-06 -2.765899e-04)) ((5.634265e-10 -7.451195e-10 -2.122063e-11) (-7.540247e-08 8.821549e-08 4.342707e-10))
48.388992     	((1.465732e-04 1.236835e-04 -1.128013e-03) (9.178785e-06 7.754156e-06 -2.762791e-04)) ((6.176534e-10 -8.038346e-10 -2.370014e-11) (-8.094889e-08 9.434914e-08 4.302138e-10))
49.136389     	((1.591479e-04 1.346399e-04 -1.127911e-03) (9.992250e-06 8.447305e-06 -2.760039e-04)) ((6.802750e-10 -8.724870e-10 -2.589424e-11) (-8.684454e-08 1.007240e-07 3.868993e-10))
49.883531     	((1.728782e-04 1.465900e-04 -1.128248e-03) (1.088618e-05 9.212322e-06 -2.757773e-04)) ((7.505805e-10 -9.541921e-10 -2.716549e-11) (-9.281912e-08 1.070593e-07 2.422020e-10))
50.630372     	((1.879592e-04 1.595339e-04 -1.128888e-03) (1.187194e-05 1.005237e-05 -2.756013e-04)) ((8.291662e-10 -1.047387e-09 -2.855757e-11) (-9.886627e-08 1.133324e-07 4.041258e-12))
51.376851     	((2.042894e-04 1.736211e-04 -1.129929e-03) (1.295734e-05 1.097364e-05 -2.754708e-04)) ((9.170730e-10 -1.146165e-09 -3.361909e-11) (-1.051853e-07 1.197769e-07 -2.645493e-10))
52.122904     	((2.221340e-04 1.887056e-04 -1.131406e-03) (1.414793e-05 1.197639e-05 -2.753765e-04)) ((1.006508e-09 -1.250708e-09 -3.905842e-11) (-1.121810e-07 1.267249e-07 -4.483446e-10))
52.868463     	((2.417269e-04 2.052173e-04 -1.133682e-03) (1.545200e-05 1.306970e-05 -2.753266e-04)) ((1.100807e-09 -1.360165e-09 -4.536732e-11) (-1.198760e-07 1.345608e-07 -5.314995e-10))
53.613455     	((2.631638e-04 2.232297e-04 -1.136669e-03) (1.687865e-05 1.426592e-05 -2.753289e-04)) ((1.199419e-09 -1.476650e-09 -5.332752e-11) (-1.282401e-07 1.435113e-07 -5.649439e-10))
54.357808     	((2.865288e-04 2.426039e-04 -1.140695e-03) (1.843514e-05 1.556790e-05 -2.753865e-04)) ((1.300181e-09 -1.597012e-09 -6.119107e-11) (-1.373474e-07 1.538203e-07 -5.544682e-10))
55.101451     	((3.116780e-04 2.634397e-04 -1.145700e-03) (2.012273e-05 1.697385e-05 -2.755034e-04)) ((1.402614e-09 -1.717167e-09 -7.047934e-11) (-1.474675e-07 1.658205e-07 -4.774017e-10))
55.844315     	((3.386130e-04 2.856102e-04 -1.152093e-03) (2.194634e-05 1.848824e-05 -2.756891e-04)) ((1.506722e-09 -1.840672e-09 -8.137240e-11) (-1.586425e-07 1.793646e-07 -4.249345e-10))
56.586337     	((3.677762e-04 3.095452e-04 -1.159935e-03) (2.391502e-05 2.011946e-05 -2.759541e-04)) ((1.614124e-09 -1.972433e-09 -9.330475e-11) (-1.710452e-07 1.946619e-07 -4.304744e-10))
57.327461     	((3.990719e-04 3.351718e-04 -1.169532e-03) (2.603115e-05 2.187169e-05 -2.763134e-04)) ((1.717169e-09 -2.102229e-09 -1.039891e-10) (-1.850619e-07 2.121798e-07 -4.545440e-10))
58.06769      	((4.320017e-04 3.625579e-04 -1.180939e-03) (2.829988e-05 2.375446e-05 -2.768122e-04)) ((1.810621e-09 -2.211446e-09 -1.131876e-10) (-2.000498e-07 2.311650e-07 -4.020851e-10))
58.806952     	((4.671374e-04 3.914507e-04 -1.194360e-03) (3.073902e-05 2.577456e-05 -2.774866e-04)) ((1.888029e-09 -2.307319e-09 -1.228251e-10) (-2.156919e-07 2.506186e-07 -3.500765e-10))
59.545181     	((5.043813e-04 4.221664e-04 -1.210502e-03) (3.335800e-05 2.793618e-05 -2.783438e-04)) ((1.962701e-09 -2.401409e-09 -1.327051e-10) (-2.327375e-07 2.710348e-07 -3.163742e-10))
60.282358     	((5.434049e-04 4.544281e-04 -1.229471e-03) (3.615604e-05 3.024793e-05 -2.793743e-04)) ((2.028294e-09 -2.490750e-09 -1.437884e-10) (-2.509758e-07 2.928903e-07 -3.599310e-10))
61.018494     	((5.843835e-04 4.884827e-04 -1.251445e-03) (3.913904e-05 3.272199e-05 -2.805999e-04)) ((2.083482e-09 -2.563304e-09 -1.568349e-10) (-2.697552e-07 3.157871e-07 -4.834639e-10))
61.753624     	((6.270365e-04 5.238883e-04 -1.276530e-03) (4.231102e-05 3.536293e-05 -2.820567e-04)) ((2.118362e-09 -2.615881e-09 -1.695947e-10) (-2.883875e-07 3.389708e-07 -5.957762e-10))
62.487675     	((6.711513e-04 5.606745e-04 -1.305074e-03) (4.567443e-05 3.817213e-05 -2.837726e-04)) ((2.130175e-09 -2.642587e-09 -1.792227e-10) (-3.064069e-07 3.614490e-07 -7.454596e-10))
63.220098     	((7.163147e-04 5.984547e-04 -1.337633e-03) (4.923314e-05 4.115123e-05 -2.857930e-04)) ((2.114937e-09 -2.638589e-09 -1.836793e-10) (-3.225865e-07 3.812026e-07 -1.146180e-09))
63.950717     	((7.613212e-04 6.366924e-04 -1.374113e-03) (5.295650e-05 4.427441e-05 -2.881337e-04)) ((2.064312e-09 -2.588839e-09 -1.902086e-10) (-3.374223e-07 3.985650e-07 -1.967963e-09))
64.679663     	((8.067131e-04 6.750368e-04 -1.414621e-03) (5.679392e-05 4.749661e-05 -2.907658e-04)) ((1.965977e-09 -2.493948e-09 -1.970507e-10) (-3.527123e-07 4.163014e-07 -2.859304e-09))
65.407059     	((8.506204e-04 7.132004e-04 -1.459081e-03) (6.067632e-05 5.078538e-05 -2.937434e-04)) ((1.828084e-09 -2.342121e-09 -2.019781e-10) (-3.686534e-07 4.353953e-07 -3.632603e-09))
66.132805     	((8.926781e-04 7.493399e-04 -1.506229e-03) (6.456479e-05 5.410348e-05 -2.970933e-04)) ((1.648436e-09 -2.144224e-09 -2.054633e-10) (-3.840736e-07 4.540403e-07 -4.292979e-09))
66.856498     	((9.312905e-04 7.825174e-04 -1.555137e-03) (6.841845e-05 5.739349e-05 -3.007800e-04)) ((1.422259e-09 -1.895526e-09 -2.005335e-10) (-3.986889e-07 4.709421e-07 -4.960326e-09))
67.5781       	((9.646373e-04 8.111264e-04 -1.605010e-03) (7.218092e-05 6.059228e-05 -3.047514e-04)) ((1.139021e-09 -1.590953e-09 -1.893220e-10) (-4.108056e-07 4.839299e-07 -5.628060e-09))
68.297684     	((9.914310e-04 8.341833e-04 -1.653964e-03) (7.578219e-05 6.365155e-05 -3.089568e-04)) ((8.130826e-10 -1.238353e-09 -1.736020e-10) (-4.178391e-07 4.909397e-07 -6.174810e-09))
69.015528     	((1.008501e-03 8.491720e-04 -1.700554e-03) (7.910449e-05 6.648887e-05 -3.133049e-04)) ((4.413580e-10 -8.377749e-10 -1.506241e-10) (-4.184807e-07 4.911082e-07 -6.529513e-09))
69.731933     	((1.013906e-03 8.543357e-04 -1.741367e-03) (8.201584e-05 6.898843e-05 -3.176527e-04)) ((4.272096e-11 -3.984960e-10 -1.183212e-10) (-4.116051e-07 4.827090e-07 -6.720859e-09))
70.447063     	((1.006809e-03 8.488231e-04 -1.775059e-03) (8.439657e-05 7.102698e-05 -3.219169e-04)) ((-3.760177e-10 6.507939e-11 -7.059279e-11) (-3.958429e-07 4.634600e-07 -6.883586e-09))
71.161099     	((9.843288e-04 8.302018e-04 -1.798313e-03) (8.608168e-05 7.246721e-05 -3.259616e-04)) ((-8.125141e-10 5.555235e-10 -1.390542e-11) (-3.700746e-07 4.324118e-07 -7.340606e-09))
71.874213     	((9.445111e-04 7.967514e-04 -1.808240e-03) (8.685156e-05 7.312827e-05 -3.295671e-04)) ((-1.264418e-09 1.064368e-09 4.352586e-11) (-3.355832e-07 3.913117e-07 -8.060664e-09))
