# Forces      
# CofR        : (0.000000e+00 0.000000e+00 0.000000e+00)
# Time        forces(pressure viscous)	moments(pressure viscous)
0             	((0.000000e+00 0.000000e+00 0.000000e+00) (3.520751e-15 -6.341130e-05 8.699664e-15)) ((0.000000e+00 0.000000e+00 0.000000e+00) (-4.140995e-16 1.138410e-17 2.297476e-11))
0.012         	((-2.524177e-09 -1.844235e-02 3.242442e-09) (3.848297e-11 -7.276602e-05 5.394875e-11)) ((-7.507590e-12 -1.131623e-13 3.483284e-09) (-6.221502e-13 -1.779417e-14 4.755850e-11))
0.0264        	((-4.053863e-07 1.288178e-03 -3.398604e-07) (-2.371259e-10 -7.423204e-05 -2.003867e-10)) ((1.544950e-11 -1.186943e-12 -2.266440e-10) (-2.568226e-13 1.780431e-13 6.412216e-11))
0.04368       	((2.650917e-07 3.852084e-03 3.824406e-07) (-2.824638e-10 -6.595695e-05 -1.322249e-10)) ((9.654214e-12 -6.837819e-13 -9.339229e-10) (1.976520e-12 2.359114e-13 5.524880e-11))
0.064416      	((-2.256150e-09 3.649485e-05 -5.392378e-08) (-6.366068e-10 -5.841485e-05 -7.737787e-10)) ((-7.253950e-12 -2.833782e-14 4.933365e-11) (-6.654387e-12 -5.207319e-14 7.123120e-11))
0.0892992     	((1.927597e-08 -4.927465e-05 -4.988454e-08) (-1.178085e-09 -5.392665e-05 -1.266938e-09)) ((-9.583581e-14 2.487334e-12 4.898130e-11) (-1.307963e-11 -6.722794e-13 7.769767e-11))
0.119159      	((-2.054349e-08 5.824458e-05 -2.827915e-08) (-1.321175e-09 -4.979473e-05 -1.096145e-09)) ((-5.537990e-12 -1.995336e-13 -1.578155e-11) (-5.113907e-13 -1.608973e-12 6.660423e-11))
0.154991      	((-1.681309e-09 3.112323e-05 1.147434e-08) (-1.222895e-09 -4.541930e-05 -9.601536e-10)) ((-2.822123e-12 -5.119508e-13 -2.417309e-12) (9.080808e-12 -1.090799e-12 4.331608e-11))
0.197989      	((2.733320e-08 7.498248e-06 6.645513e-09) (-9.836775e-10 -4.101164e-05 -5.784129e-10)) ((-3.159759e-12 -1.343969e-13 6.043845e-13) (4.694237e-12 -7.489220e-13 1.273352e-11))
0.249587      	((4.143462e-09 -1.058021e-06 3.126243e-09) (-7.645300e-10 -3.669634e-05 -2.513296e-10)) ((-2.313511e-12 -2.546591e-13 3.401308e-12) (-3.265734e-12 -8.926249e-13 1.091765e-12))
0.311504      	((-5.292432e-09 -4.971260e-06 -7.968887e-10) (-4.973812e-10 -3.260482e-05 -3.852849e-11)) ((-1.659735e-12 -9.561920e-14 4.255998e-12) (-9.111972e-12 -3.662412e-13 -1.415091e-11))
0.385805      	((-1.543957e-09 -6.853499e-06 7.329132e-10) (-2.438862e-10 -2.884271e-05 1.028986e-10)) ((-1.172491e-12 -6.174266e-14 2.978665e-12) (-1.200019e-11 -2.239012e-13 -2.932423e-11))
0.474966      	((1.150931e-09 -7.784619e-06 1.120078e-09) (5.539768e-11 -2.547771e-05 1.494992e-10)) ((-7.367135e-13 -5.844344e-14 2.484066e-12) (-1.269263e-11 -4.092148e-13 -2.458597e-11))
0.581959      	((1.806142e-09 -8.176906e-06 1.025428e-09) (4.163068e-10 -2.252779e-05 1.284817e-10)) ((-4.507682e-13 -1.599969e-15 2.161830e-12) (-1.184745e-11 -2.806249e-13 -8.097329e-12))
0.710351      	((1.216859e-09 -8.151452e-06 5.433625e-10) (6.799450e-10 -1.998448e-05 7.993378e-11)) ((-2.631220e-13 1.153379e-14 1.811021e-12) (-9.176832e-12 -1.030635e-13 2.726472e-12))
0.864421      	((9.394184e-10 -7.860163e-06 4.160831e-10) (8.538688e-10 -1.781549e-05 6.300673e-11)) ((-1.235991e-13 2.047529e-14 2.011997e-12) (-6.612858e-12 -2.313234e-13 7.503722e-12))
1.049306      	((9.061696e-10 -7.426389e-06 1.756616e-10) (8.851385e-10 -1.596974e-05 4.291705e-11)) ((-7.089339e-14 1.150103e-14 2.009278e-12) (-4.257701e-12 -3.890067e-13 9.545966e-12))
1.271167      	((8.662446e-10 -6.940103e-06 1.215708e-10) (7.974756e-10 -1.439379e-05 3.097477e-11)) ((-3.969360e-14 1.495557e-14 1.787792e-12) (-2.297163e-12 -3.228326e-13 1.432666e-11))
1.5374        	((9.007051e-10 -6.436213e-06 1.690973e-10) (6.508972e-10 -1.303251e-05 3.134057e-11)) ((-2.468947e-14 8.717873e-15 1.749927e-12) (-8.399368e-13 -1.606942e-13 2.303338e-11))
1.85688       	((7.392878e-10 -5.940976e-06 6.543857e-11) (4.704851e-10 -1.183690e-05 3.374660e-11)) ((-2.555817e-14 1.028414e-14 1.697287e-12) (2.354568e-13 -2.059983e-14 3.076037e-11))
2.240256      	((5.296164e-10 -5.471194e-06 5.188633e-11) (2.888453e-10 -1.077437e-05 4.327482e-11)) ((-1.986080e-14 8.296555e-15 1.673292e-12) (1.103667e-12 7.599689e-14 3.695309e-11))
2.700307      	((4.734044e-10 -5.033296e-06 -6.893066e-11) (2.333790e-10 -9.823700e-06 4.862555e-11)) ((-1.894240e-14 3.939611e-15 1.628454e-12) (2.359266e-12 8.700961e-14 4.010166e-11))
3.252369      	((2.325621e-10 -4.626994e-06 -1.530586e-10) (2.391580e-10 -8.969488e-06 4.836588e-11)) ((-2.104703e-14 2.350273e-15 1.539816e-12) (3.932967e-12 4.055982e-14 3.883051e-11))
3.914842      	((1.673111e-10 -4.248482e-06 -1.375976e-10) (2.254680e-10 -8.200033e-06 4.639243e-11)) ((-2.274714e-14 2.145530e-15 1.406329e-12) (5.355692e-12 5.483027e-14 3.548092e-11))
4.709811      	((1.768819e-10 -3.898974e-06 -1.001222e-10) (2.028297e-10 -7.506816e-06 4.536990e-11)) ((-2.786148e-14 5.304653e-15 1.236451e-12) (6.299048e-12 1.095680e-13 3.124542e-11))
5.663773      	((2.295799e-10 -3.579363e-06 -9.482837e-11) (1.578869e-10 -6.883450e-06 4.486408e-11)) ((-3.527648e-14 5.437363e-15 1.085994e-12) (6.315535e-12 1.055886e-13 2.964369e-11))
6.808528      	((5.098766e-10 -3.290308e-06 5.029900e-11) (1.105893e-10 -6.324379e-06 3.988586e-11)) ((-3.404583e-14 1.520925e-16 9.312188e-13) (5.699825e-12 7.987326e-14 3.024640e-11))
8.182233      	((4.315813e-10 -3.031265e-06 -5.880376e-11) (7.266152e-11 -5.823480e-06 2.957958e-11)) ((-3.017422e-14 -6.015132e-16 7.927819e-13) (5.488268e-12 2.716606e-14 3.039091e-11))
9.83068       	((2.889902e-10 -2.799714e-06 -2.419746e-10) (4.274509e-11 -5.373821e-06 1.238425e-11)) ((-3.212004e-14 2.151299e-15 6.969797e-13) (6.191878e-12 -9.307839e-15 2.913539e-11))
11.808816     	((1.789726e-10 -2.592372e-06 -4.048830e-10) (1.674551e-11 -4.968961e-06 -1.024945e-11)) ((-2.637870e-14 2.742419e-15 6.341058e-13) (8.103750e-12 -7.643227e-14 2.769354e-11))
14.182579     	((3.489813e-11 -2.407706e-06 -5.615100e-10) (-7.046685e-12 -4.603449e-06 -3.493736e-11)) ((-2.219663e-14 5.496063e-16 5.852733e-13) (1.112524e-11 -1.536105e-13 2.541499e-11))
17.031095     	((-1.805218e-10 -2.245105e-06 -6.556955e-10) (-5.318815e-11 -4.272842e-06 -6.018163e-11)) ((-1.960736e-14 5.935422e-16 5.595236e-13) (1.548094e-11 -2.063126e-13 1.931052e-11))
20.449314     	((-3.414308e-10 -2.103885e-06 -7.062126e-10) (-1.330230e-10 -3.973850e-06 -8.393261e-11)) ((-1.435979e-14 8.466504e-16 5.532987e-13) (2.041981e-11 -2.746790e-13 1.150519e-11))
24.551176     	((-6.091128e-10 -1.983149e-06 -8.420116e-10) (-1.992260e-10 -3.704051e-06 -1.068775e-10)) ((-1.010412e-14 -2.153357e-15 5.697658e-13) (2.453960e-11 -2.701750e-13 5.549324e-12))
29.473411     	((-8.443190e-10 -1.882741e-06 -9.013258e-10) (-2.406814e-10 -3.461676e-06 -1.258448e-10)) ((-1.085361e-14 -3.864730e-15 6.006632e-13) (2.660240e-11 -2.301116e-13 1.570602e-12))
35.380094     	((-7.123527e-10 -1.801350e-06 -8.639201e-10) (-2.576990e-10 -3.245186e-06 -1.453275e-10)) ((-1.508307e-14 -1.088018e-15 6.445149e-13) (2.790547e-11 -1.933530e-13 -2.537812e-12))
42.468112     	((-6.778689e-10 -1.738465e-06 -7.967275e-10) (-2.746706e-10 -3.052944e-06 -1.606372e-10)) ((-1.694494e-14 1.930084e-15 7.048863e-13) (3.008830e-11 -1.189220e-13 -7.541498e-12))
50.973735     	((-6.008050e-10 -1.692716e-06 -7.376899e-10) (-2.696586e-10 -2.883356e-06 -1.708630e-10)) ((-1.879714e-14 2.696921e-15 7.688738e-13) (3.374947e-11 -6.952523e-14 -1.408601e-11))
61.180482     	((-5.446807e-10 -1.663621e-06 -6.638570e-10) (-2.623883e-10 -2.734870e-06 -1.806710e-10)) ((-2.150062e-14 3.292025e-15 8.424644e-13) (3.865684e-11 7.392983e-14 -2.181358e-11))
73.428578     	((-4.305152e-10 -1.650686e-06 -5.505742e-10) (-2.525134e-10 -2.606207e-06 -1.871182e-10)) ((-2.074506e-14 4.244997e-15 9.351442e-13) (4.427272e-11 1.351879e-13 -2.978761e-11))
88.126294     	((-2.098871e-10 -1.651137e-06 -3.365486e-10) (-2.561810e-10 -2.496269e-06 -1.824527e-10)) ((-2.131603e-14 4.147326e-15 1.048325e-12) (4.952469e-11 1.853697e-13 -3.787414e-11))
105.763553    	((-5.274805e-11 -1.662765e-06 -1.313061e-10) (-2.517652e-10 -2.404025e-06 -1.728293e-10)) ((-2.032249e-14 5.860444e-15 1.171504e-12) (5.358716e-11 1.907498e-13 -4.497928e-11))
126.928263    	((8.417615e-11 -1.682663e-06 4.652394e-11) (-2.428391e-10 -2.328409e-06 -1.611454e-10)) ((-1.826989e-14 6.392087e-15 1.287884e-12) (5.567344e-11 2.516612e-13 -5.006091e-11))
152.088526    	((2.552751e-10 -1.706981e-06 2.059927e-10) (-2.328415e-10 -2.267983e-06 -1.391733e-10)) ((-1.623632e-14 7.780916e-15 1.396292e-12) (5.585569e-11 2.668531e-13 -5.266140e-11))
181.222817    	((3.594045e-10 -1.730928e-06 3.191718e-10) (-2.132050e-10 -2.220618e-06 -1.101250e-10)) ((-1.636961e-14 8.531138e-15 1.472753e-12) (5.439885e-11 3.016430e-13 -5.257509e-11))
214.31357     	((6.259820e-10 -1.749370e-06 5.959641e-10) (-1.695331e-10 -2.183245e-06 -6.141970e-11)) ((-1.372905e-14 9.545354e-15 1.524368e-12) (5.196229e-11 3.703569e-13 -5.069229e-11))
251.355038    	((8.465279e-10 -1.760775e-06 7.789830e-10) (-9.657979e-11 -2.152995e-06 1.621360e-11)) ((-1.233770e-14 9.109580e-15 1.564971e-12) (4.883392e-11 3.425724e-13 -4.781252e-11))
290.909085    	((9.552211e-10 -1.766960e-06 8.809758e-10) (-2.113031e-11 -2.128194e-06 9.111177e-11)) ((-1.043441e-14 8.681032e-15 1.599803e-12) (4.590337e-11 2.928986e-13 -4.487037e-11))
330.542007    	((1.028818e-09 -1.770189e-06 9.522130e-10) (4.470682e-11 -2.107781e-06 1.553415e-10)) ((-8.851495e-15 8.291584e-15 1.623262e-12) (4.346373e-11 2.901722e-13 -4.227244e-11))
370.235544    	((1.051280e-09 -1.771342e-06 9.701188e-10) (1.030990e-10 -2.090694e-06 2.088774e-10)) ((-7.223422e-15 7.473746e-15 1.643746e-12) (4.107721e-11 2.996589e-13 -3.982600e-11))
409.968895    	((1.024421e-09 -1.771856e-06 9.444013e-10) (1.517201e-10 -2.076459e-06 2.501824e-10)) ((-6.980056e-15 6.771666e-15 1.660396e-12) (3.863270e-11 3.116729e-13 -3.735970e-11))
449.732409    	((9.716509e-10 -1.771914e-06 8.940884e-10) (1.875118e-10 -2.064568e-06 2.794602e-10)) ((-7.324161e-15 6.257040e-15 1.672984e-12) (3.603369e-11 3.205912e-13 -3.489637e-11))
489.522806    	((9.022066e-10 -1.771702e-06 8.248583e-10) (2.127238e-10 -2.054632e-06 2.991561e-10)) ((-7.045836e-15 5.420405e-15 1.684089e-12) (3.342163e-11 3.281355e-13 -3.244534e-11))
529.337249    	((7.972196e-10 -1.771273e-06 7.175351e-10) (2.252332e-10 -2.046300e-06 3.067579e-10)) ((-7.643577e-15 4.950277e-15 1.692339e-12) (3.091233e-11 3.342641e-13 -3.005100e-11))
569.172495    	((6.859651e-10 -1.770764e-06 6.066208e-10) (2.277739e-10 -2.039302e-06 3.051331e-10)) ((-8.426895e-15 4.492888e-15 1.698845e-12) (2.850586e-11 3.356710e-13 -2.770936e-11))
609.025426    	((5.770974e-10 -1.770232e-06 5.000781e-10) (2.232773e-10 -2.033413e-06 2.977133e-10)) ((-8.950152e-15 4.008578e-15 1.704329e-12) (2.622059e-11 3.338591e-13 -2.547607e-11))
648.893391    	((4.696972e-10 -1.769731e-06 3.966015e-10) (2.135488e-10 -2.028450e-06 2.860111e-10)) ((-9.417005e-15 3.654985e-15 1.709187e-12) (2.408304e-11 3.374971e-13 -2.336993e-11))
688.774149    	((3.711652e-10 -1.769230e-06 2.982419e-10) (2.006770e-10 -2.024259e-06 2.716756e-10)) ((-9.822133e-15 3.440070e-15 1.713254e-12) (2.209098e-11 3.437652e-13 -2.140716e-11))
728.665792    	((2.724924e-10 -1.768777e-06 2.020485e-10) (1.858195e-10 -2.020713e-06 2.552495e-10)) ((-1.015403e-14 3.298588e-15 1.716645e-12) (2.025709e-11 3.474370e-13 -1.958186e-11))
768.566698    	((1.761769e-10 -1.768355e-06 1.084754e-10) (1.689437e-10 -2.017710e-06 2.375236e-10)) ((-1.043587e-14 3.137013e-15 1.719565e-12) (1.856234e-11 3.506795e-13 -1.790445e-11))
808.475504    	((8.851626e-11 -1.767970e-06 2.133797e-11) (1.512973e-10 -2.015162e-06 2.193019e-10)) ((-1.082157e-14 2.985988e-15 1.722100e-12) (1.701088e-11 3.528317e-13 -1.636429e-11))
848.391053    	((6.336196e-12 -1.767617e-06 -5.899556e-11) (1.329329e-10 -2.012998e-06 2.006678e-10)) ((-1.120916e-14 2.852131e-15 1.724196e-12) (1.561769e-11 3.549726e-13 -1.497619e-11))
888.312357    	((-6.637094e-11 -1.767298e-06 -1.297528e-10) (1.147247e-10 -2.011156e-06 1.821907e-10)) ((-1.149357e-14 2.710157e-15 1.725946e-12) (1.437435e-11 3.577238e-13 -1.373240e-11))
928.238579    	((-1.317573e-10 -1.767013e-06 -1.933984e-10) (9.714518e-11 -2.009587e-06 1.644028e-10)) ((-1.173928e-14 2.592436e-15 1.727447e-12) (1.327403e-11 3.605985e-13 -1.262332e-11))
968.169005    	((-1.884710e-10 -1.766756e-06 -2.487323e-10) (8.041064e-11 -2.008249e-06 1.475938e-10)) ((-1.197038e-14 2.499864e-15 1.728709e-12) (1.230720e-11 3.632839e-13 -1.164637e-11))
1008.103027   	((-2.378101e-10 -1.766529e-06 -2.974031e-10) (6.491720e-11 -2.007105e-06 1.321559e-10)) ((-1.217117e-14 2.399259e-15 1.729756e-12) (1.145853e-11 3.660115e-13 -1.078628e-11))
1048.040128   	((-2.804308e-10 -1.766327e-06 -3.383975e-10) (5.081911e-11 -2.006128e-06 1.182007e-10)) ((-1.228780e-14 2.313475e-15 1.730658e-12) (1.071270e-11 3.685136e-13 -1.002907e-11))
1087.979865   	((-3.174606e-10 -1.766150e-06 -3.742719e-10) (3.813924e-11 -2.005292e-06 1.057315e-10)) ((-1.240646e-14 2.236438e-15 1.731442e-12) (1.005868e-11 3.694546e-13 -9.363409e-12))
1127.921862   	((-3.487622e-10 -1.765993e-06 -4.048359e-10) (2.685392e-11 -2.004577e-06 9.467374e-11)) ((-1.250731e-14 2.161849e-15 1.732135e-12) (9.493472e-12 3.696578e-13 -8.784534e-12))
1167.865796   	((-3.753248e-10 -1.765855e-06 -4.301833e-10) (1.694673e-11 -2.003964e-06 8.497138e-11)) ((-1.258793e-14 2.088203e-15 1.732727e-12) (9.006590e-12 3.699440e-13 -8.284009e-12))
1207.811391   	((-3.974480e-10 -1.765738e-06 -4.517804e-10) (8.363810e-12 -2.003439e-06 7.653900e-11)) ((-1.264264e-14 2.021558e-15 1.733219e-12) (8.586369e-12 3.704196e-13 -7.850965e-12))
1247.758412   	((-4.161966e-10 -1.765632e-06 -4.701692e-10) (1.007780e-12 -2.002989e-06 6.929224e-11)) ((-1.268818e-14 1.964479e-15 1.733640e-12) (8.223849e-12 3.708632e-13 -7.476774e-12))
1287.706656   	((-4.321931e-10 -1.765537e-06 -4.860087e-10) (-5.261320e-12 -2.002602e-06 6.308359e-11)) ((-1.271784e-14 1.912547e-15 1.733998e-12) (7.913044e-12 3.713767e-13 -7.154713e-12))
1327.65595    	((-4.455072e-10 -1.765456e-06 -4.993674e-10) (-1.055252e-11 -2.002271e-06 5.781943e-11)) ((-1.273549e-14 1.875691e-15 1.734305e-12) (7.646912e-12 3.718682e-13 -6.877789e-12))
1367.606147   	((-4.567132e-10 -1.765386e-06 -5.102185e-10) (-1.502320e-11 -2.001986e-06 5.336894e-11)) ((-1.275574e-14 1.840391e-15 1.734568e-12) (7.418785e-12 3.722690e-13 -6.640944e-12))
1407.557119   	((-4.661040e-10 -1.765326e-06 -5.194993e-10) (-1.880284e-11 -2.001741e-06 4.959479e-11)) ((-1.277487e-14 1.809061e-15 1.734796e-12) (7.222004e-12 3.726927e-13 -6.437591e-12))
1447.508756   	((-4.742158e-10 -1.765274e-06 -5.271080e-10) (-2.198367e-11 -2.001531e-06 4.643017e-11)) ((-1.279290e-14 1.785556e-15 1.734989e-12) (7.053286e-12 3.730055e-13 -6.263449e-12))
1487.460966   	((-4.814019e-10 -1.765228e-06 -5.342339e-10) (-2.467688e-11 -2.001351e-06 4.374569e-11)) ((-1.281129e-14 1.765193e-15 1.735153e-12) (6.908075e-12 3.732960e-13 -6.113785e-12))
1527.413668   	((-4.876247e-10 -1.765189e-06 -5.402505e-10) (-2.697500e-11 -2.001195e-06 4.145954e-11)) ((-1.282497e-14 1.749523e-15 1.735297e-12) (6.782616e-12 3.734541e-13 -5.984792e-12))
1567.366794   	((-4.930728e-10 -1.765155e-06 -5.457158e-10) (-2.893472e-11 -2.001062e-06 3.950823e-11)) ((-1.284175e-14 1.736013e-15 1.735425e-12) (6.674710e-12 3.735216e-13 -5.873758e-12))
1607.320284   	((-4.977427e-10 -1.765124e-06 -5.503407e-10) (-3.060310e-11 -2.000947e-06 3.784626e-11)) ((-1.285708e-14 1.722948e-15 1.735535e-12) (6.581475e-12 3.735713e-13 -5.777684e-12))
1647.274087   	((-5.017643e-10 -1.765098e-06 -5.543727e-10) (-3.203293e-11 -2.000848e-06 3.641080e-11)) ((-1.287081e-14 1.713766e-15 1.735631e-12) (6.501426e-12 3.735947e-13 -5.695285e-12))
1687.22816    	((-5.052390e-10 -1.765077e-06 -5.578833e-10) (-3.326811e-11 -2.000763e-06 3.517079e-11)) ((-1.288359e-14 1.703677e-15 1.735713e-12) (6.432253e-12 3.736494e-13 -5.624086e-12))
1727.182465   	((-5.083302e-10 -1.765058e-06 -5.609823e-10) (-3.433727e-11 -2.000690e-06 3.409363e-11)) ((-1.289854e-14 1.697178e-15 1.735782e-12) (6.372376e-12 3.737040e-13 -5.562551e-12))
1767.136969   	((-5.111063e-10 -1.765041e-06 -5.637731e-10) (-3.527245e-11 -2.000627e-06 3.314772e-11)) ((-1.290656e-14 1.691579e-15 1.735843e-12) (6.320529e-12 3.737177e-13 -5.509374e-12))
1807.091647   	((-5.137553e-10 -1.765024e-06 -5.666667e-10) (-3.610428e-11 -2.000573e-06 3.229039e-11)) ((-1.291729e-14 1.683579e-15 1.735891e-12) (6.275601e-12 3.737325e-13 -5.463266e-12))
1847.046472   	((-5.159385e-10 -1.765012e-06 -5.687429e-10) (-3.682771e-11 -2.000526e-06 3.155341e-11)) ((-1.292702e-14 1.679511e-15 1.735937e-12) (6.236512e-12 3.737523e-13 -5.423325e-12))
1887.001425   	((-5.177952e-10 -1.765001e-06 -5.705309e-10) (-3.746780e-11 -2.000486e-06 3.089815e-11)) ((-1.293327e-14 1.673823e-15 1.735975e-12) (6.202703e-12 3.737688e-13 -5.388868e-12))
1926.956488   	((-5.192356e-10 -1.764993e-06 -5.718982e-10) (-3.803364e-11 -2.000452e-06 3.031890e-11)) ((-1.293839e-14 1.672326e-15 1.736008e-12) (6.173496e-12 3.737806e-13 -5.359042e-12))
1966.911646   	((-5.207399e-10 -1.764985e-06 -5.734859e-10) (-3.853508e-11 -2.000422e-06 2.980154e-11)) ((-1.294318e-14 1.669439e-15 1.736036e-12) (6.148159e-12 3.737919e-13 -5.333156e-12))
2006.866885   	((-5.219742e-10 -1.764978e-06 -5.747288e-10) (-3.896507e-11 -2.000396e-06 2.936573e-11)) ((-1.294895e-14 1.666379e-15 1.736060e-12) (6.126200e-12 3.737961e-13 -5.310706e-12))
2046.822194   	((-5.231164e-10 -1.764972e-06 -5.757724e-10) (-3.934994e-11 -2.000374e-06 2.896847e-11)) ((-1.295082e-14 1.664056e-15 1.736081e-12) (6.107228e-12 3.738048e-13 -5.291357e-12))
2086.777564   	((-5.239792e-10 -1.764967e-06 -5.767541e-10) (-3.968700e-11 -2.000355e-06 2.862247e-11)) ((-1.295397e-14 1.662532e-15 1.736099e-12) (6.090863e-12 3.738048e-13 -5.274679e-12))
2126.732985   	((-5.249284e-10 -1.764961e-06 -5.776589e-10) (-3.998250e-11 -2.000339e-06 2.832329e-11)) ((-1.295573e-14 1.659658e-15 1.736116e-12) (6.076798e-12 3.737925e-13 -5.260277e-12))
2166.688452   	((-5.254212e-10 -1.764959e-06 -5.781586e-10) (-4.022988e-11 -2.000325e-06 2.807500e-11)) ((-1.295863e-14 1.659726e-15 1.736127e-12) (6.064744e-12 3.738008e-13 -5.247862e-12))
2206.643956   	((-5.262091e-10 -1.764956e-06 -5.790408e-10) (-4.045412e-11 -2.000312e-06 2.784928e-11)) ((-1.296012e-14 1.658251e-15 1.736139e-12) (6.054385e-12 3.738024e-13 -5.237225e-12))
2246.599495   	((-5.265292e-10 -1.764953e-06 -5.792617e-10) (-4.063506e-11 -2.000302e-06 2.766840e-11)) ((-1.296154e-14 1.657298e-15 1.736149e-12) (6.045493e-12 3.738000e-13 -5.228062e-12))
