# Forces      
# CofR        : (0.000000e+00 0.000000e+00 0.000000e+00)
# Time        forces(pressure viscous)	moments(pressure viscous)
0             	((0.000000e+00 0.000000e+00 0.000000e+00) (0.000000e+00 0.000000e+00 0.000000e+00)) ((0.000000e+00 0.000000e+00 0.000000e+00) (0.000000e+00 0.000000e+00 0.000000e+00))
0.012         	((1.814237e-12 -4.510969e-10 -9.265307e-13) (2.445213e-15 -1.145228e-11 3.781687e-14)) ((1.188043e-16 -8.481100e-17 1.025842e-11) (-4.909726e-17 9.312443e-16 1.396973e-08))
0.0264        	((5.743812e-12 -6.603661e-11 4.547652e-15) (1.623972e-14 -1.691335e-11 6.858379e-14)) ((-8.994430e-17 8.968551e-16 4.701526e-12) (-1.453431e-17 2.587896e-15 1.279646e-08))
0.04368       	((4.245150e-12 -2.099922e-10 -3.318454e-12) (1.986846e-14 -1.781506e-11 9.826403e-14)) ((1.797038e-16 1.088683e-15 2.558724e-12) (2.880467e-18 4.627837e-15 1.158990e-08))
0.064416      	((6.913930e-12 2.983747e-11 2.920114e-12) (1.369710e-14 -1.537840e-11 1.610733e-13)) ((-5.775161e-17 5.750541e-16 1.372494e-12) (2.878224e-16 7.241924e-15 1.037674e-08))
0.0892992     	((-3.624547e-12 -9.329047e-11 -2.578597e-12) (7.429431e-15 -1.278881e-11 2.449600e-13)) ((2.772827e-16 1.491162e-15 1.026492e-12) (9.006246e-16 1.052402e-14 9.192509e-09))
0.119159      	((2.364882e-12 1.689560e-11 -4.009480e-13) (3.418904e-15 -1.039986e-11 2.895687e-13)) ((-1.086905e-17 1.085357e-15 7.650066e-13) (1.196517e-15 1.228723e-14 8.073909e-09))
0.154991      	((-1.373314e-12 -4.594857e-11 7.908386e-13) (-3.300321e-15 -9.393152e-12 2.991228e-13)) ((1.279817e-16 8.160563e-16 6.235038e-13) (1.498129e-15 1.280754e-14 7.046748e-09))
0.197989      	((2.709181e-13 -1.416971e-11 1.261317e-13) (-1.643311e-14 -8.152330e-12 2.946580e-13)) ((2.230981e-16 7.137574e-16 5.102227e-13) (1.964987e-15 1.284329e-14 6.136045e-09))
0.249587      	((-1.424456e-12 -3.686632e-11 -1.081282e-12) (-2.520473e-14 -7.196069e-12 3.027622e-13)) ((1.720839e-16 7.938893e-16 4.199746e-13) (2.063548e-15 1.226080e-14 5.355457e-09))
0.311504      	((5.973930e-13 -2.132639e-11 -4.611887e-13) (-2.404223e-14 -6.518611e-12 3.330899e-13)) ((1.032319e-16 4.899089e-16 3.412454e-13) (1.641825e-15 1.173263e-14 4.703117e-09))
0.385805      	((2.527985e-12 -1.665443e-11 1.284349e-13) (-1.253262e-14 -6.210645e-12 3.687673e-13)) ((4.667650e-17 1.908733e-16 2.804756e-13) (5.562719e-16 1.191359e-14 4.164927e-09))
0.474966      	((4.504769e-12 -1.683017e-11 -5.293828e-13) (7.336469e-15 -6.201177e-12 3.766371e-13)) ((4.516213e-18 1.130564e-16 2.393175e-13) (1.776084e-16 1.188205e-14 3.719704e-09))
0.581959      	((3.496825e-12 -1.145838e-11 -4.434610e-13) (-3.862747e-14 -5.684512e-12 2.924208e-13)) ((3.784784e-17 -1.478825e-16 2.031438e-13) (3.861784e-16 7.996949e-15 3.345460e-09))
0.710351      	((5.501912e-12 -8.638134e-12 3.244878e-13) (-1.046533e-13 -4.866799e-12 1.600920e-13)) ((-1.123053e-16 -2.790855e-16 1.684204e-13) (2.659779e-16 1.574123e-15 3.023966e-09))
0.864421      	((5.195617e-12 -1.502552e-11 7.094125e-13) (-1.456035e-13 -4.722574e-12 6.810138e-14)) ((-1.907742e-16 -5.983944e-16 1.441963e-13) (-4.455652e-16 -3.952904e-15 2.742369e-09))
1.049306      	((5.562375e-12 -2.371442e-11 5.229368e-13) (-1.857428e-13 -4.481569e-12 -3.065410e-14)) ((-2.084659e-16 -7.705806e-16 1.299100e-13) (8.669389e-16 -7.069555e-15 2.492136e-09))
1.271167      	((7.341146e-12 -2.693591e-11 6.218777e-14) (-2.096334e-13 -4.053361e-12 -1.633478e-13)) ((-1.786254e-16 -7.817762e-16 1.186064e-13) (4.324071e-15 -7.562426e-15 2.267483e-09))
1.5374        	((8.216592e-12 -2.918958e-11 2.039583e-13) (-3.828496e-13 -4.306140e-12 -2.885158e-13)) ((-2.015202e-16 -1.128512e-15 1.094663e-13) (9.950710e-15 -4.511256e-15 2.064719e-09))
1.85688       	((9.777559e-12 -4.014641e-11 1.141941e-12) (-7.445467e-13 -4.889285e-12 -2.628082e-13)) ((-2.441189e-16 -1.220207e-15 1.023643e-13) (1.844474e-14 5.375657e-15 1.881798e-09))
2.240256      	((7.665522e-12 -2.775582e-11 7.229591e-14) (-1.238044e-12 -4.455557e-12 -2.159370e-13)) ((-2.625225e-16 -1.296893e-15 9.971948e-14) (3.131276e-14 2.039674e-14 1.717687e-09))
2.700307      	((7.615765e-12 -1.657201e-11 -7.789519e-14) (-1.945341e-12 -3.064365e-12 -2.972060e-13)) ((-2.133800e-16 -1.307752e-15 9.665433e-14) (4.967004e-14 3.827470e-14 1.571648e-09))
3.252369      	((6.030883e-12 -1.203519e-11 -8.671463e-14) (-2.794632e-12 -1.837378e-12 -4.694134e-13)) ((-1.219368e-16 -1.215693e-15 9.183997e-14) (6.899352e-14 5.118206e-14 1.442639e-09))
3.914842      	((4.619183e-12 -7.871970e-12 -4.517654e-13) (-3.683173e-12 -7.129243e-13 -4.367949e-13)) ((-2.107298e-16 -1.001188e-15 8.468841e-14) (8.142971e-14 6.558866e-14 1.329079e-09))
4.709811      	((8.766200e-13 -4.256399e-12 -5.133554e-13) (-4.422222e-12 8.297294e-13 -2.445765e-13)) ((-9.251588e-17 -7.329281e-16 7.633903e-14) (8.727837e-14 7.617770e-14 1.228987e-09))
5.663773      	((-9.429014e-13 1.789549e-12 8.081752e-14) (-4.909037e-12 2.787029e-12 -4.307520e-14)) ((2.351521e-17 -4.987025e-16 6.884884e-14) (8.901986e-14 8.086134e-14 1.140082e-09))
6.808528      	((-1.241272e-12 1.618717e-12 -7.330988e-14) (-4.990425e-12 3.607318e-12 2.546064e-14)) ((3.020652e-17 -2.752177e-16 6.191608e-14) (8.435460e-14 7.693363e-14 1.060144e-09))
8.182233      	((-1.892691e-12 4.078900e-12 2.985052e-13) (-4.550310e-12 3.240736e-12 -9.283764e-15)) ((8.237359e-17 -1.706881e-16 5.585219e-14) (7.300722e-14 6.440779e-14 9.875059e-10))
9.83068       	((-1.644892e-12 1.543392e-12 -9.366998e-14) (-3.959372e-12 2.342656e-12 3.480272e-14)) ((1.574358e-16 5.436472e-17 5.096649e-14) (5.823102e-14 5.205515e-14 9.210005e-10))
11.808816     	((-2.024706e-13 -1.679062e-12 1.963124e-13) (-3.188379e-12 1.131982e-12 -3.124130e-14)) ((1.903944e-16 1.506409e-16 4.673943e-14) (4.418510e-14 3.623645e-14 8.598396e-10))
14.182579     	((4.188359e-13 -1.544922e-12 1.518450e-13) (-2.391593e-12 4.117695e-13 3.229331e-14)) ((2.081276e-16 3.056298e-16 4.343550e-14) (3.157291e-14 2.656607e-14 8.035186e-10))
17.031095     	((4.366079e-13 -1.125174e-12 1.304183e-13) (-1.789505e-12 7.599715e-14 1.176551e-13)) ((1.665885e-16 3.664593e-16 4.087592e-14) (2.135406e-14 1.915944e-14 7.517421e-10))
20.449314     	((6.614748e-13 -1.925854e-12 2.382029e-13) (-1.335898e-12 -2.180425e-13 4.950552e-14)) ((1.294988e-16 4.052986e-16 3.882530e-14) (1.547753e-14 1.042898e-14 7.043000e-10))
24.551176     	((8.483969e-13 -2.407482e-12 2.566238e-13) (-1.042490e-12 -1.243298e-13 -1.021754e-14)) ((1.027750e-16 3.809618e-16 3.696638e-14) (1.103856e-14 6.095958e-15 6.609503e-10))
29.473411     	((6.804458e-13 -2.161428e-12 1.951320e-13) (-8.315214e-13 1.431842e-13 -4.031615e-14)) ((8.548934e-17 3.309014e-16 3.546924e-14) (9.093744e-15 5.313068e-15 6.214058e-10))
35.380094     	((9.789876e-13 -2.195210e-12 1.883537e-13) (-7.167776e-13 4.418772e-13 -2.806007e-14)) ((9.939307e-17 3.219039e-16 3.410523e-14) (9.393543e-15 7.194634e-15 5.853125e-10))
42.468112     	((6.627227e-13 -2.134939e-12 1.821360e-13) (-6.789418e-13 7.346320e-13 -2.409478e-14)) ((1.190373e-16 2.906559e-16 3.303479e-14) (1.042734e-14 9.175128e-15 5.523640e-10))
50.973735     	((4.403233e-13 -2.193195e-12 1.212711e-13) (-7.203552e-13 1.083262e-12 -5.590562e-14)) ((1.133047e-16 2.785619e-16 3.200697e-14) (1.203773e-14 1.032341e-14 5.223143e-10))
61.180482     	((5.091354e-13 -1.997792e-12 7.482220e-14) (-7.484020e-13 1.378266e-12 -8.808895e-14)) ((9.954206e-17 2.527612e-16 3.122996e-14) (1.407638e-14 1.077741e-14 4.949490e-10))
73.428578     	((1.460521e-13 -1.592412e-12 2.126581e-14) (-7.825758e-13 1.647401e-12 -8.474387e-14)) ((9.140426e-17 2.260861e-16 3.073701e-14) (1.602326e-14 1.232642e-14 4.700853e-10))
88.126294     	((2.487142e-13 -1.665574e-12 -4.291097e-14) (-8.201060e-13 1.879840e-12 -8.735375e-14)) ((8.226912e-17 1.964572e-16 3.025243e-14) (1.769988e-14 1.400814e-14 4.475389e-10))
105.763553    	((-1.285382e-13 -1.551533e-12 -2.919363e-14) (-8.438850e-13 1.996216e-12 -7.343693e-14)) ((7.904954e-17 1.681737e-16 2.972133e-14) (1.835860e-14 1.500526e-14 4.271256e-10))
126.928263    	((-2.062528e-13 -1.364396e-12 -4.594673e-14) (-8.875251e-13 1.966418e-12 -6.006548e-14)) ((7.824507e-17 1.447799e-16 2.927092e-14) (1.791951e-14 1.531045e-14 4.086690e-10))
152.325916    	((-3.472603e-13 -1.368021e-12 -4.232081e-14) (-8.848901e-13 1.898681e-12 -3.712434e-14)) ((7.220629e-17 1.212868e-16 2.885804e-14) (1.670049e-14 1.512830e-14 3.919796e-10))
182.803099    	((-4.477025e-13 -1.411179e-12 6.253037e-15) (-8.254682e-13 1.836494e-12 -1.570471e-14)) ((6.469848e-17 9.869252e-17 2.847741e-14) (1.558084e-14 1.457251e-14 3.768587e-10))
219.375719    	((-3.406543e-13 -1.637153e-12 1.690081e-14) (-7.900275e-13 1.821719e-12 -8.747581e-15)) ((6.308048e-17 9.719078e-17 2.815273e-14) (1.509693e-14 1.451060e-14 3.631272e-10))
263.262863    	((-4.434684e-13 -1.732576e-12 5.445617e-14) (-7.206347e-13 1.882414e-12 4.103869e-15)) ((6.096520e-17 9.550736e-17 2.783401e-14) (1.437499e-14 1.448848e-14 3.506387e-10))
315.927436    	((-5.113345e-13 -1.824430e-12 2.454640e-14) (-7.045653e-13 1.850404e-12 9.001349e-15)) ((6.503969e-17 9.404694e-17 2.751812e-14) (1.358941e-14 1.491319e-14 3.392768e-10))
379.124923    	((-5.937058e-13 -1.865944e-12 3.701849e-14) (-7.021330e-13 1.785281e-12 3.569010e-15)) ((6.101216e-17 9.358413e-17 2.722131e-14) (1.296057e-14 1.517603e-14 3.289492e-10))
454.961908    	((-5.656679e-13 -1.990461e-12 2.693749e-14) (-6.896061e-13 1.705447e-12 -1.120186e-14)) ((5.832337e-17 8.424189e-17 2.694396e-14) (1.261186e-14 1.477385e-14 3.195855e-10))
545.966289    	((-5.188031e-13 -2.038501e-12 7.419645e-15) (-6.780317e-13 1.685940e-12 -1.866632e-14)) ((5.546230e-17 7.039485e-17 2.668592e-14) (1.208648e-14 1.427209e-14 3.111215e-10))
655.171547    	((-5.686023e-13 -2.130684e-12 3.641727e-14) (-6.812096e-13 1.656764e-12 -1.963090e-14)) ((4.521516e-17 6.341591e-17 2.644758e-14) (1.124802e-14 1.343051e-14 3.034960e-10))
786.217856    	((-6.387466e-13 -2.147438e-12 6.879021e-14) (-6.721246e-13 1.639161e-12 -9.368944e-15)) ((3.834740e-17 5.851939e-17 2.622361e-14) (1.023691e-14 1.251555e-14 2.966503e-10))
943.473427    	((-5.583116e-13 -2.115559e-12 7.329027e-14) (-6.045695e-13 1.622522e-12 7.047551e-15)) ((3.519804e-17 5.659147e-17 2.600448e-14) (9.109975e-15 1.170017e-14 2.905321e-10))
1132.180113   	((-4.442685e-13 -2.131828e-12 4.422827e-14) (-5.255444e-13 1.597257e-12 1.581499e-14)) ((3.540005e-17 5.691106e-17 2.580054e-14) (8.236479e-15 1.082454e-14 2.850935e-10))
1358.628135   	((-4.154065e-13 -2.195530e-12 1.204823e-14) (-4.851497e-13 1.564199e-12 1.556287e-14)) ((3.594385e-17 5.465156e-17 2.560808e-14) (7.525019e-15 1.006406e-14 2.802852e-10))
1630.365763   	((-4.131307e-13 -2.238301e-12 -1.937304e-15) (-4.553417e-13 1.546685e-12 2.252726e-14)) ((3.574591e-17 5.527519e-17 2.543512e-14) (6.903469e-15 9.582880e-15 2.760567e-10))
1956.450915   	((-3.363791e-13 -2.285013e-12 1.132734e-14) (-4.365432e-13 1.529564e-12 2.762631e-14)) ((3.688285e-17 5.740924e-17 2.527508e-14) (6.453470e-15 9.235480e-15 2.723591e-10))
2347.753098   	((-3.171496e-13 -2.310169e-12 3.727570e-14) (-4.303375e-13 1.501438e-12 2.907219e-14)) ((3.811439e-17 5.804515e-17 2.513472e-14) (5.935504e-15 9.028560e-15 2.691454e-10))
2817.315718   	((-3.308552e-13 -2.315355e-12 5.826392e-14) (-4.363069e-13 1.466977e-12 2.857163e-14)) ((3.956791e-17 5.898775e-17 2.501231e-14) (5.422630e-15 8.864550e-15 2.663708e-10))
3380.790861   	((-3.396503e-13 -2.319666e-12 7.731493e-14) (-4.418252e-13 1.427926e-12 2.604932e-14)) ((3.869487e-17 5.773968e-17 2.490471e-14) (4.902417e-15 8.632200e-15 2.639908e-10))
4056.961033   	((-3.227288e-13 -2.306997e-12 1.076995e-13) (-4.471950e-13 1.392687e-12 2.484578e-14)) ((3.679014e-17 5.827988e-17 2.481052e-14) (4.454824e-15 8.300014e-15 2.619628e-10))
4868.36524    	((-3.076935e-13 -2.322465e-12 1.360767e-13) (-4.499703e-13 1.358410e-12 2.278155e-14)) ((3.668757e-17 5.685247e-17 2.473001e-14) (4.096447e-15 7.846266e-15 2.602470e-10))
5842.050288   	((-3.192031e-13 -2.343505e-12 1.612188e-13) (-4.505594e-13 1.327223e-12 2.072686e-14)) ((3.689661e-17 5.550622e-17 2.466252e-14) (3.759107e-15 7.306934e-15 2.588059e-10))
7010.472346   	((-3.259792e-13 -2.340393e-12 1.763166e-13) (-4.472084e-13 1.299226e-12 1.989210e-14)) ((3.639998e-17 5.471320e-17 2.460705e-14) (3.509911e-15 6.805221e-15 2.576043e-10))
8412.578815   	((-3.217600e-13 -2.317206e-12 1.735910e-13) (-4.404481e-13 1.273395e-12 1.930016e-14)) ((3.772537e-17 5.573581e-17 2.456373e-14) (3.281843e-15 6.348360e-15 2.566092e-10))
10095.106578  	((-2.985029e-13 -2.273549e-12 1.635381e-13) (-4.347601e-13 1.256882e-12 1.763805e-14)) ((3.903766e-17 5.654450e-17 2.452800e-14) (3.124308e-15 6.066396e-15 2.557911e-10))
12114.139893  	((-2.580671e-13 -2.221316e-12 1.492983e-13) (-4.307155e-13 1.241928e-12 1.720694e-14)) ((3.850487e-17 5.615305e-17 2.449699e-14) (3.066119e-15 5.878929e-15 2.551227e-10))
14536.979872  	((-2.221403e-13 -2.153396e-12 1.340480e-13) (-4.237573e-13 1.230405e-12 1.686727e-14)) ((3.845714e-17 5.589442e-17 2.447171e-14) (2.983357e-15 5.719982e-15 2.545797e-10))
17444.387847  	((-1.684396e-13 -2.083113e-12 1.222250e-13) (-4.201134e-13 1.220396e-12 1.676578e-14)) ((3.900116e-17 5.535234e-17 2.445130e-14) (2.936587e-15 5.663744e-15 2.541411e-10))
20933.277416  	((-1.001737e-13 -1.992690e-12 1.127518e-13) (-4.201517e-13 1.212702e-12 1.682405e-14)) ((3.912361e-17 5.475646e-17 2.443451e-14) (2.924227e-15 5.638247e-15 2.537886e-10))
25119.944899  	((-1.909908e-14 -1.879978e-12 1.129683e-13) (-4.219535e-13 1.206317e-12 1.576794e-14)) ((3.937110e-17 5.330751e-17 2.442152e-14) (2.898077e-15 5.690353e-15 2.535064e-10))
30143.945879  	((1.052550e-13 -1.750034e-12 9.865640e-14) (-4.214988e-13 1.201064e-12 1.553760e-14)) ((4.044084e-17 5.267496e-17 2.441179e-14) (2.808251e-15 5.666474e-15 2.532811e-10))
36172.747055  	((2.493670e-13 -1.607772e-12 8.276267e-14) (-4.201173e-13 1.199173e-12 1.616617e-14)) ((4.086186e-17 5.252129e-17 2.440323e-14) (2.738981e-15 5.607164e-15 2.531021e-10))
43222.642548  	((4.178667e-13 -1.449915e-12 6.760419e-14) (-4.179262e-13 1.200068e-12 1.648437e-14)) ((4.131373e-17 5.258523e-17 2.439654e-14) (2.699809e-15 5.552538e-15 2.529602e-10))
51293.639764  	((6.098110e-13 -1.290074e-12 5.062533e-14) (-4.152821e-13 1.202292e-12 1.642229e-14)) ((4.195633e-17 5.297891e-17 2.439094e-14) (2.677952e-15 5.503096e-15 2.528479e-10))
60385.744489  	((8.208388e-13 -1.128911e-12 3.422289e-14) (-4.124808e-13 1.206784e-12 1.622728e-14)) ((4.317959e-17 5.335561e-17 2.438599e-14) (2.683844e-15 5.452363e-15 2.527594e-10))
70498.961241  	((1.058848e-12 -9.572658e-13 1.661803e-14) (-4.087597e-13 1.213545e-12 1.645742e-14)) ((4.471472e-17 5.318461e-17 2.438165e-14) (2.707814e-15 5.374734e-15 2.526896e-10))
80710.116763  	((1.279949e-12 -7.773606e-13 1.274356e-14) (-4.045624e-13 1.225517e-12 1.592526e-14)) ((4.165282e-17 5.778652e-17 2.437173e-14) (2.809081e-15 5.255402e-15 2.526349e-10))
90921.299408  	((1.482756e-12 -6.077741e-13 -2.965074e-14) (-4.024092e-13 1.231659e-12 1.564149e-14)) ((5.432178e-17 4.214047e-17 2.436599e-14) (2.582256e-15 5.174610e-15 2.525919e-10))
101132.503104 	((1.719444e-12 -4.502494e-13 -3.595244e-14) (-3.939499e-13 1.242691e-12 9.969278e-15)) ((5.502716e-17 4.208590e-17 2.435745e-14) (2.559583e-15 5.298403e-15 2.525584e-10))
111343.723242 	((1.830410e-12 -3.036874e-13 2.826150e-15) (-3.844440e-13 1.260077e-12 7.015607e-15)) ((4.907546e-17 4.984993e-17 2.434262e-14) (2.707236e-15 5.354205e-15 2.525323e-10))
121554.956143 	((1.845885e-12 -2.232665e-13 -5.611705e-14) (-3.826170e-13 1.265339e-12 1.025543e-14)) ((4.573608e-17 4.300011e-17 2.432681e-14) (2.852103e-15 5.158300e-15 2.525120e-10))
131766.199038 	((1.955748e-12 4.717496e-14 -3.486869e-14) (-3.759120e-13 1.276441e-12 9.263772e-15)) ((5.536788e-17 5.400617e-17 2.431594e-14) (2.960364e-15 4.983094e-15 2.524959e-10))
141977.449836 	((2.051239e-12 2.322104e-13 -1.691408e-14) (-3.675198e-13 1.307461e-12 1.280227e-14)) ((5.004247e-17 5.217590e-17 2.428547e-14) (2.786326e-15 4.920024e-15 2.524836e-10))
152188.707292 	((2.317043e-12 5.707153e-13 -5.152525e-14) (-3.584947e-13 1.319711e-12 1.096004e-14)) ((5.237183e-17 4.707108e-17 2.425062e-14) (2.407243e-15 4.490142e-15 2.524740e-10))
162399.970441 	((2.300449e-12 6.158099e-13 6.013395e-14) (-3.723282e-13 1.313178e-12 5.938652e-15)) ((4.638869e-17 3.650038e-17 2.423268e-14) (2.381556e-15 4.461481e-15 2.524666e-10))
172611.238462 	((2.284787e-12 6.751623e-13 9.198950e-14) (-3.798693e-13 1.312100e-12 9.409081e-15)) ((4.555716e-17 5.098471e-17 2.420528e-14) (2.863834e-15 5.058474e-15 2.524598e-10))
182822.510938 	((2.233683e-12 6.540005e-13 1.602984e-14) (-3.726886e-13 1.310617e-12 5.288018e-15)) ((4.336513e-17 5.242610e-17 2.417454e-14) (3.289399e-15 5.275978e-15 2.524533e-10))
193033.787281 	((2.205468e-12 3.697997e-13 4.659302e-15) (-3.645648e-13 1.292208e-12 4.951113e-15)) ((4.670830e-17 5.757058e-17 2.415690e-14) (3.528384e-15 5.436186e-15 2.524469e-10))
203245.067144 	((2.099469e-12 -1.136925e-13 -3.497970e-16) (-3.563120e-13 1.267796e-12 1.094264e-14)) ((4.083890e-17 5.918802e-17 2.414523e-14) (3.455590e-15 5.619683e-15 2.524403e-10))
213456.350377 	((1.872852e-12 -6.689274e-13 2.633450e-14) (-3.604529e-13 1.243806e-12 1.509980e-14)) ((3.601557e-17 4.417925e-17 2.413456e-14) (3.263513e-15 5.571362e-15 2.524337e-10))
223667.636879 	((1.687784e-12 -1.114323e-12 5.519809e-14) (-3.685051e-13 1.216262e-12 1.449933e-14)) ((3.654884e-17 4.161783e-17 2.411716e-14) (3.223309e-15 5.511606e-15 2.524273e-10))
233878.926467 	((1.511609e-12 -1.518792e-12 5.628620e-14) (-3.845772e-13 1.201691e-12 1.375516e-14)) ((3.741849e-17 4.116618e-17 2.409712e-14) (3.194628e-15 5.473726e-15 2.524209e-10))
