# Forces      
# CofR        : (0.000000e+00 0.000000e+00 0.000000e+00)
# Time        forces(pressure viscous)	moments(pressure viscous)
0             	((0.000000e+00 0.000000e+00 0.000000e+00) (5.668714e-14 -1.006862e-03 1.379776e-13)) ((0.000000e+00 0.000000e+00 0.000000e+00) (-7.014218e-15 1.802644e-16 3.678350e-10))
0.012         	((-3.604221e-07 -2.927632e-01 -3.135906e-07) (6.625817e-10 -1.152910e-03 3.124965e-10)) ((-8.706994e-11 -2.112765e-12 5.488533e-08) (-8.007076e-12 -3.012317e-13 6.691466e-10))
0.0264        	((-5.378640e-06 2.670127e-02 -3.845748e-06) (-1.671958e-09 -1.169650e-03 -2.857129e-09)) ((-6.939421e-12 -1.940406e-11 -2.922925e-09) (-2.123167e-12 2.342332e-12 7.185915e-10))
0.04368       	((3.800955e-06 5.782466e-02 5.852515e-06) (2.752583e-09 -1.033072e-03 -6.412806e-10)) ((2.355417e-10 1.693985e-12 -1.615722e-08) (2.750660e-11 5.447362e-12 3.869713e-10))
0.064416      	((-1.109360e-07 5.068549e-04 -5.831567e-07) (-3.178186e-09 -9.117630e-04 7.078641e-10)) ((-1.062732e-10 -2.189858e-14 1.900494e-09) (-7.493076e-12 -2.833007e-12 2.681303e-10))
0.0892992     	((1.073826e-07 -2.262958e-04 -1.529356e-06) (-2.854657e-09 -8.398267e-04 -1.047236e-08)) ((-1.038577e-11 2.748753e-11 4.235305e-10) (-3.458863e-11 -9.971633e-12 -4.470420e-10))
0.119159      	((9.297773e-07 1.016166e-03 -2.084741e-07) (1.047638e-08 -7.756982e-04 -1.471128e-08)) ((-4.095412e-11 9.884432e-12 -9.052241e-10) (-4.192118e-11 -1.593881e-11 -1.253946e-09))
0.154991      	((-5.131123e-07 3.799017e-04 -1.126312e-07) (9.532929e-09 -7.097990e-04 -1.134968e-08)) ((-4.467144e-11 3.298737e-13 -2.843385e-10) (-3.736886e-11 -2.505595e-11 -1.375508e-09))
0.197989      	((1.088305e-08 4.701176e-05 -1.124469e-07) (-7.546592e-09 -6.460832e-04 -9.204325e-09)) ((-2.325874e-11 1.569779e-12 -2.187060e-12) (-9.806425e-13 -2.673796e-11 -1.567489e-09))
0.249587      	((-2.158502e-07 -6.271818e-05 -5.453066e-08) (-3.152923e-08 -5.866054e-04 -7.367607e-09)) ((-2.064878e-11 1.926444e-12 -3.163026e-11) (6.778036e-12 -1.880916e-11 -1.761517e-09))
0.311504      	((-1.769407e-07 -1.216065e-04 -6.581531e-08) (-4.445803e-08 -5.328560e-04 -6.423857e-09)) ((-1.024327e-11 2.506897e-12 -8.961172e-12) (-4.701641e-12 -1.030137e-11 -1.635101e-09))
0.385805      	((-1.639894e-07 -1.544890e-04 -6.072268e-08) (-5.022772e-08 -4.853428e-04 -5.441798e-09)) ((-7.864937e-12 4.574782e-13 1.111813e-11) (-1.331841e-11 -6.067003e-12 -1.452429e-09))
0.474966      	((-1.466796e-07 -1.695723e-04 -3.965158e-08) (-5.478782e-08 -4.437123e-04 -4.695262e-09)) ((-3.727456e-12 1.391656e-12 2.146714e-11) (-2.691685e-11 -2.881552e-12 -1.376402e-09))
0.581959      	((-9.874802e-08 -1.749158e-04 -2.667313e-08) (-4.880621e-08 -4.066741e-04 -4.134050e-09)) ((-2.658311e-12 5.741865e-13 2.634069e-11) (-3.989566e-11 -7.689158e-13 -1.423504e-09))
0.710351      	((-3.939931e-08 -1.740018e-04 -6.556713e-09) (-3.452934e-08 -3.723375e-04 -2.742365e-09)) ((-1.346588e-12 5.693570e-13 2.320014e-11) (-4.543068e-11 2.163713e-12 -1.737068e-09))
0.864421      	((2.546828e-08 -1.689232e-04 3.083635e-09) (-2.137506e-08 -3.396200e-04 -1.368307e-09)) ((-1.490859e-13 8.029621e-13 2.118627e-11) (-3.275144e-11 6.813984e-12 -2.202638e-09))
1.049306      	((2.141115e-08 -1.616099e-04 5.387117e-09) (-1.407421e-08 -3.086332e-04 -1.123601e-09)) ((5.018384e-14 1.977838e-13 2.121419e-11) (-3.484762e-12 1.127685e-11 -2.557928e-09))
1.271167      	((2.721558e-08 -1.537633e-04 3.891648e-09) (-9.156194e-09 -2.797798e-04 -1.283196e-09)) ((9.221041e-14 -1.272227e-13 2.575907e-11) (2.703149e-11 1.134782e-11 -2.665254e-09))
1.5374        	((2.693153e-08 -1.468755e-04 1.207724e-09) (-6.436275e-09 -2.534358e-04 -1.275563e-09)) ((-4.055654e-13 -1.340719e-13 3.786475e-11) (5.414191e-11 8.736195e-12 -2.500716e-09))
1.85688       	((6.049091e-09 -1.419074e-04 1.660309e-09) (-6.509372e-09 -2.298687e-04 -9.803002e-10)) ((-1.218254e-12 7.509385e-14 5.443951e-11) (8.525410e-11 9.367513e-12 -2.233437e-09))
2.240256      	((-1.870293e-08 -1.392655e-04 -3.107821e-09) (-6.130404e-09 -2.091440e-04 -6.629534e-10)) ((-1.780955e-12 -4.371102e-14 6.434591e-11) (1.150816e-10 9.287304e-12 -1.946579e-09))
2.700307      	((-3.291420e-08 -1.393893e-04 -2.221761e-08) (-5.006560e-09 -1.911747e-04 -1.025863e-09)) ((-2.499003e-12 -3.481756e-13 7.790230e-11) (1.437347e-10 7.787456e-12 -1.763179e-09))
3.252369      	((-4.843026e-08 -1.424866e-04 -2.901338e-08) (-6.041864e-09 -1.757871e-04 -1.888426e-09)) ((-2.728081e-12 -5.545205e-13 9.752946e-11) (1.648836e-10 8.137073e-12 -1.647416e-09))
3.914842      	((-2.416368e-08 -1.489762e-04 -3.675258e-08) (-5.571610e-09 -1.627621e-04 -2.818960e-09)) ((-2.375664e-12 -7.914934e-13 1.275202e-10) (1.681746e-10 8.446008e-12 -1.498091e-09))
4.709811      	((-1.016944e-08 -1.590579e-04 -3.945530e-08) (-8.920196e-10 -1.518607e-04 -3.513713e-09)) ((-2.564095e-12 -6.257243e-13 1.655384e-10) (1.588502e-10 8.502534e-12 -1.504827e-09))
5.663773      	((1.832126e-08 -1.727309e-04 -2.788156e-08) (3.279320e-09 -1.428496e-04 -3.557614e-09)) ((-2.120830e-12 -5.776556e-13 2.132688e-10) (1.285304e-10 8.914624e-12 -1.713582e-09))
6.788499      	((3.390835e-08 -1.898131e-04 -2.401658e-08) (4.773219e-09 -1.355648e-04 -3.633122e-09)) ((-1.854120e-12 -1.903755e-13 2.715623e-10) (1.074739e-10 9.719753e-12 -2.210798e-09))
8.083984      	((6.061281e-08 -2.096335e-04 -1.157367e-08) (7.678002e-09 -1.297605e-04 -3.926237e-09)) ((-1.644495e-12 -5.344146e-13 3.360676e-10) (8.632613e-11 1.213332e-11 -2.943365e-09))
9.549806      	((7.246061e-08 -2.312880e-04 -3.847584e-09) (7.380795e-09 -1.252394e-04 -4.487174e-09)) ((-1.353190e-12 -9.260978e-13 4.101431e-10) (9.202118e-11 1.211292e-11 -3.534354e-09))
11.185166     	((9.323586e-08 -2.542320e-04 6.966127e-09) (7.000398e-09 -1.217533e-04 -5.740469e-09)) ((-1.361183e-12 -1.272736e-12 4.771662e-10) (1.519822e-10 1.099823e-11 -3.877787e-09))
12.868919     	((1.164841e-07 -2.764248e-04 2.260413e-08) (8.513965e-09 -1.192592e-04 -5.808211e-09)) ((-2.111603e-12 -2.332571e-12 5.336051e-10) (2.099497e-10 1.299471e-11 -4.105892e-09))
14.539311     	((1.306277e-07 -2.950577e-04 4.408004e-08) (1.265560e-08 -1.173578e-04 -3.337645e-09)) ((-2.624583e-12 -3.335840e-12 5.807691e-10) (1.493839e-10 1.316166e-11 -3.834632e-09))
16.199603     	((1.705526e-07 -3.106017e-04 8.371536e-08) (2.096798e-08 -1.157096e-04 4.214318e-10)) ((-3.021991e-12 -4.033550e-12 6.231594e-10) (5.061535e-11 9.277462e-12 -3.295260e-09))
17.857186     	((2.044071e-07 -3.215441e-04 1.229477e-07) (2.749689e-08 -1.141964e-04 5.641538e-09)) ((-2.804710e-12 -4.524197e-12 6.626058e-10) (-7.742280e-11 7.223054e-12 -2.972166e-09))
19.518861     	((2.591518e-07 -3.289278e-04 1.899336e-07) (3.179719e-08 -1.127987e-04 1.180032e-08)) ((-1.417831e-12 -4.594299e-12 6.975865e-10) (-1.882897e-10 4.947298e-12 -2.753528e-09))
21.187671     	((2.870029e-07 -3.324931e-04 2.199358e-07) (3.369488e-08 -1.115352e-04 1.672370e-08)) ((-7.005965e-13 -3.786693e-12 7.201401e-10) (-2.169012e-10 4.517885e-12 -2.650081e-09))
22.863079     	((3.153023e-07 -3.326468e-04 2.496637e-07) (3.379797e-08 -1.103636e-04 2.042843e-08)) ((-4.062458e-13 -2.717827e-12 7.336826e-10) (-1.845528e-10 7.022160e-12 -2.720237e-09))
24.543233     	((3.150148e-07 -3.305741e-04 2.495088e-07) (3.401212e-08 -1.092398e-04 2.241070e-08)) ((-8.854008e-14 -2.999174e-12 7.394119e-10) (-1.022812e-10 9.163834e-12 -2.731154e-09))
26.227246     	((3.212985e-07 -3.274817e-04 2.369026e-07) (3.589191e-08 -1.081697e-04 2.290070e-08)) ((-2.629233e-13 -3.061910e-12 7.401691e-10) (-9.337104e-12 8.652495e-12 -2.618924e-09))
27.915285     	((3.787871e-07 -3.252010e-04 2.576071e-07) (3.944108e-08 -1.071910e-04 2.317638e-08)) ((-3.145468e-13 -2.132840e-12 7.369719e-10) (6.916079e-11 8.444186e-12 -2.468798e-09))
29.606923     	((4.325556e-07 -3.233172e-04 2.834159e-07) (4.405297e-08 -1.063232e-04 2.400886e-08)) ((-4.658681e-13 -1.502107e-12 7.324568e-10) (1.818133e-10 7.958296e-12 -2.356598e-09))
31.302014     	((4.702318e-07 -3.203788e-04 2.916188e-07) (4.879935e-08 -1.055135e-04 2.417323e-08)) ((-3.018773e-13 -5.887951e-13 7.282512e-10) (3.246745e-10 6.809912e-12 -2.333095e-09))
32.998977     	((5.436576e-07 -3.176261e-04 3.082610e-07) (5.464975e-08 -1.047412e-04 2.414793e-08)) ((-5.310415e-14 2.034340e-13 7.258835e-10) (4.475971e-10 4.903155e-12 -2.392233e-09))
34.697212     	((6.475093e-07 -3.151027e-04 3.568373e-07) (6.168070e-08 -1.040153e-04 2.527128e-08)) ((2.615083e-13 4.479918e-13 7.247492e-10) (5.574189e-10 1.816005e-12 -2.540078e-09))
36.397274     	((7.705928e-07 -3.130136e-04 4.032988e-07) (6.882451e-08 -1.033346e-04 2.746971e-08)) ((1.247155e-13 8.536650e-13 7.240844e-10) (6.617983e-10 -1.673024e-12 -2.776939e-09))
38.099379     	((8.897417e-07 -3.112107e-04 4.461507e-07) (7.535127e-08 -1.026970e-04 3.026988e-08)) ((-1.447476e-13 1.057693e-12 7.234261e-10) (7.563997e-10 3.793856e-13 -3.069878e-09))
39.803626     	((1.026905e-06 -3.096292e-04 4.872514e-07) (8.142430e-08 -1.020970e-04 3.308944e-08)) ((-3.077433e-13 1.007451e-12 7.229862e-10) (8.525519e-10 2.899624e-12 -3.412429e-09))
41.510143     	((1.194373e-06 -3.080127e-04 5.250947e-07) (8.965177e-08 -1.015272e-04 3.581462e-08)) ((-3.801201e-13 9.820495e-13 7.224677e-10) (9.469053e-10 4.424421e-12 -3.712731e-09))
43.219088     	((1.365495e-06 -3.065549e-04 5.800651e-07) (1.007003e-07 -1.009886e-04 3.895222e-08)) ((-1.723749e-13 8.507577e-13 7.224447e-10) (1.047276e-09 4.264162e-12 -4.005148e-09))
44.930526     	((1.573034e-06 -3.053849e-04 6.437223e-07) (1.141727e-07 -1.004908e-04 4.279871e-08)) ((3.153501e-13 9.045696e-13 7.228564e-10) (1.160367e-09 -1.663617e-12 -4.328190e-09))
46.644441     	((1.758697e-06 -3.044229e-04 6.873861e-07) (1.289597e-07 -1.000348e-04 4.635014e-08)) ((5.308844e-13 6.551916e-13 7.234781e-10) (1.281278e-09 -4.029165e-12 -4.627041e-09))
48.360865     	((2.016459e-06 -3.034173e-04 7.642457e-07) (1.468748e-07 -9.961298e-05 5.082055e-08)) ((1.484013e-12 9.626263e-13 7.239566e-10) (1.390236e-09 1.886398e-12 -4.874761e-09))
50.079905     	((2.285082e-06 -3.024224e-04 8.380046e-07) (1.684864e-07 -9.922040e-05 5.657993e-08)) ((2.105054e-12 1.512436e-12 7.243624e-10) (1.484961e-09 9.719340e-12 -5.106239e-09))
51.801757     	((2.529264e-06 -3.012856e-04 9.108030e-07) (1.912192e-07 -9.884675e-05 6.280424e-08)) ((2.513831e-12 1.961540e-12 7.242747e-10) (1.581471e-09 1.513114e-11 -5.345264e-09))
53.526602     	((2.833202e-06 -2.999438e-04 1.005014e-06) (2.161766e-07 -9.847981e-05 6.991075e-08)) ((3.264515e-12 2.595283e-12 7.236082e-10) (1.676307e-09 1.393230e-11 -5.607675e-09))
55.25435      	((3.098590e-06 -2.987870e-04 1.101710e-06) (2.421224e-07 -9.812198e-05 7.792093e-08)) ((3.754060e-12 3.193042e-12 7.233785e-10) (1.772316e-09 8.745882e-12 -5.875346e-09))
56.984901     	((3.388799e-06 -2.978429e-04 1.181483e-06) (2.687298e-07 -9.778149e-05 8.595528e-08)) ((4.050192e-12 3.716688e-12 7.229828e-10) (1.868414e-09 9.075851e-12 -6.184555e-09))
58.718239     	((3.752677e-06 -2.969698e-04 1.306254e-06) (2.978198e-07 -9.745864e-05 9.504408e-08)) ((4.920198e-12 4.239602e-12 7.225050e-10) (1.963117e-09 7.057060e-12 -6.530519e-09))
60.454328     	((4.129990e-06 -2.961057e-04 1.442076e-06) (3.295651e-07 -9.715025e-05 1.054834e-07)) ((5.849499e-12 4.674263e-12 7.221032e-10) (2.085970e-09 3.067308e-12 -6.887178e-09))
62.193138     	((4.523903e-06 -2.952359e-04 1.581014e-06) (3.634392e-07 -9.685401e-05 1.165243e-07)) ((6.566349e-12 4.895539e-12 7.219865e-10) (2.231164e-09 -4.821247e-12 -7.273968e-09))
63.934708     	((5.036064e-06 -2.944155e-04 1.731416e-06) (4.028890e-07 -9.656893e-05 1.288327e-07)) ((7.273901e-12 4.955647e-12 7.220900e-10) (2.370175e-09 -1.459784e-11 -7.676684e-09))
65.678929     	((5.636279e-06 -2.936614e-04 1.922829e-06) (4.493289e-07 -9.629295e-05 1.435703e-07)) ((8.643669e-12 4.960622e-12 7.224105e-10) (2.513254e-09 -1.967841e-11 -8.089757e-09))
67.425632     	((6.323906e-06 -2.928950e-04 2.130890e-06) (5.025857e-07 -9.602314e-05 1.601386e-07)) ((1.027564e-11 4.711875e-12 7.226993e-10) (2.689390e-09 -2.311301e-11 -8.550592e-09))
69.174696     	((7.104549e-06 -2.920356e-04 2.373824e-06) (5.632018e-07 -9.575739e-05 1.786905e-07)) ((1.255041e-11 4.415337e-12 7.225104e-10) (2.910361e-09 -2.567903e-11 -9.095985e-09))
70.926012     	((7.934637e-06 -2.911880e-04 2.650931e-06) (6.296859e-07 -9.549819e-05 1.999996e-07)) ((1.477795e-11 4.073202e-12 7.220192e-10) (3.178275e-09 -2.689763e-11 -9.780196e-09))
72.679482     	((8.848864e-06 -2.903712e-04 2.928858e-06) (7.020193e-07 -9.524866e-05 2.231462e-07)) ((1.700933e-11 3.802280e-12 7.214344e-10) (3.467807e-09 -2.453987e-11 -1.061332e-08))
74.435026     	((9.833725e-06 -2.895883e-04 3.254706e-06) (7.806750e-07 -9.500879e-05 2.489004e-07)) ((1.915166e-11 3.336197e-12 7.208432e-10) (3.778810e-09 -1.761633e-11 -1.159048e-08))
76.192563     	((1.093628e-05 -2.889030e-04 3.621756e-06) (8.668198e-07 -9.477977e-05 2.783152e-07)) ((2.156410e-11 2.693334e-12 7.202089e-10) (4.104805e-09 -1.160408e-11 -1.270080e-08))
77.952009     	((1.217772e-05 -2.882616e-04 4.019978e-06) (9.628922e-07 -9.456119e-05 3.110572e-07)) ((2.415803e-11 2.078102e-12 7.194004e-10) (4.455221e-09 -8.694371e-12 -1.394548e-08))
79.71327      	((1.353038e-05 -2.876779e-04 4.462060e-06) (1.069896e-06 -9.435239e-05 3.472563e-07)) ((2.717796e-11 1.771389e-12 7.184916e-10) (4.859463e-09 -1.487664e-11 -1.532121e-08))
81.47623      	((1.497954e-05 -2.871503e-04 4.930100e-06) (1.187543e-06 -9.415378e-05 3.870456e-07)) ((3.013938e-11 1.680721e-12 7.177381e-10) (5.298968e-09 -1.906752e-11 -1.681899e-08))
83.240764     	((1.654577e-05 -2.866519e-04 5.426918e-06) (1.316240e-06 -9.396550e-05 4.303270e-07)) ((3.319122e-11 1.791480e-12 7.171621e-10) (5.760353e-09 -1.331314e-11 -1.841753e-08))
85.006738     	((1.822117e-05 -2.861518e-04 5.941877e-06) (1.456497e-06 -9.378612e-05 4.762641e-07)) ((3.607604e-11 2.145054e-12 7.166110e-10) (6.266163e-09 3.250612e-12 -2.009799e-08))
86.774013     	((2.002518e-05 -2.856635e-04 6.493537e-06) (1.609328e-06 -9.361433e-05 5.248927e-07)) ((3.945119e-11 2.570738e-12 7.160530e-10) (6.814156e-09 3.131739e-11 -2.185344e-08))
88.542456     	((2.198082e-05 -2.852192e-04 7.099148e-06) (1.776235e-06 -9.345061e-05 5.771767e-07)) ((4.347283e-11 2.768734e-12 7.155535e-10) (7.407837e-09 6.819738e-11 -2.367265e-08))
90.311809     	((2.410437e-05 -2.848065e-04 7.767829e-06) (1.958946e-06 -9.329475e-05 6.341864e-07)) ((4.790434e-11 2.811029e-12 7.152259e-10) (8.050655e-09 1.099096e-10 -2.556284e-08))
92.081506     	((2.639641e-05 -2.844488e-04 8.502382e-06) (2.158505e-06 -9.314697e-05 6.968162e-07)) ((5.246045e-11 2.862376e-12 7.150398e-10) (8.730033e-09 1.495225e-10 -2.752553e-08))
93.851371     	((2.890093e-05 -2.841342e-04 9.303983e-06) (2.376936e-06 -9.300769e-05 7.655233e-07)) ((5.738901e-11 2.542426e-12 7.148594e-10) (9.452172e-09 1.692370e-10 -2.955730e-08))
95.621219     	((3.163216e-05 -2.838885e-04 1.018721e-05) (2.616071e-06 -9.287819e-05 8.413394e-07)) ((6.285709e-11 1.667525e-12 7.145616e-10) (1.019532e-08 1.618182e-10 -3.165923e-08))
97.390858     	((3.466029e-05 -2.837019e-04 1.113507e-05) (2.879585e-06 -9.275981e-05 9.244591e-07)) ((6.832084e-11 3.738950e-13 7.140246e-10) (1.094416e-08 1.445585e-10 -3.384194e-08))
99.160088     	((3.801326e-05 -2.835785e-04 1.218942e-05) (3.171459e-06 -9.265339e-05 1.015715e-06)) ((7.454723e-11 -1.694421e-12 7.133098e-10) (1.170349e-08 1.096516e-10 -3.612679e-08))
100.928701    	((4.173131e-05 -2.835246e-04 1.335649e-05) (3.494903e-06 -9.255949e-05 1.116801e-06)) ((8.157349e-11 -4.224676e-12 7.123483e-10) (1.250817e-08 6.164494e-11 -3.855360e-08))
102.696483    	((4.584860e-05 -2.835404e-04 1.465104e-05) (3.853207e-06 -9.247871e-05 1.227994e-06)) ((8.901693e-11 -7.488411e-12 7.112384e-10) (1.341597e-08 -1.265136e-12 -4.118100e-08))
104.463204    	((5.040019e-05 -2.836380e-04 1.608564e-05) (4.249561e-06 -9.241186e-05 1.350435e-06)) ((9.705286e-11 -1.147472e-11 7.100053e-10) (1.445494e-08 -8.073166e-11 -4.406698e-08))
106.228619    	((5.535308e-05 -2.838643e-04 1.767619e-05) (4.683998e-06 -9.236001e-05 1.485781e-06)) ((1.061123e-10 -1.606292e-11 7.086694e-10) (1.563333e-08 -1.647873e-10 -4.732909e-08))
107.992463    	((6.079529e-05 -2.841969e-04 1.943863e-05) (5.159447e-06 -9.232318e-05 1.637182e-06)) ((1.159878e-10 -2.125842e-11 7.070827e-10) (1.689468e-08 -2.386815e-10 -5.104480e-08))
109.754445    	((6.676315e-05 -2.846774e-04 2.137795e-05) (5.681231e-06 -9.230226e-05 1.805852e-06)) ((1.268964e-10 -2.706288e-11 7.051815e-10) (1.824461e-08 -2.827205e-10 -5.521437e-08))
111.514244    	((7.329713e-05 -2.853675e-04 2.352132e-05) (6.252462e-06 -9.230031e-05 1.992406e-06)) ((1.390389e-10 -3.407155e-11 7.028725e-10) (1.973779e-08 -2.839962e-10 -5.989863e-08))
113.271507    	((8.043631e-05 -2.862586e-04 2.584702e-05) (6.876559e-06 -9.232084e-05 2.196287e-06)) ((1.518612e-10 -4.190171e-11 7.000692e-10) (2.144619e-08 -2.462094e-10 -6.515172e-08))
115.025793    	((8.817832e-05 -2.874511e-04 2.836994e-05) (7.557852e-06 -9.236747e-05 2.418027e-06)) ((1.650856e-10 -5.012745e-11 6.969613e-10) (2.334832e-08 -1.739423e-10 -7.096760e-08))
116.776791    	((9.654685e-05 -2.889347e-04 3.111995e-05) (8.302036e-06 -9.244364e-05 2.661270e-06)) ((1.794891e-10 -5.901754e-11 6.932560e-10) (2.535817e-08 -1.148093e-10 -7.721110e-08))
118.524225    	((1.055148e-04 -2.907721e-04 3.407513e-05) (9.109966e-06 -9.255442e-05 2.927231e-06)) ((1.955938e-10 -7.000943e-11 6.887072e-10) (2.746823e-08 -1.116050e-10 -8.390159e-08))
120.267581    	((1.151463e-04 -2.929781e-04 3.724010e-05) (9.985915e-06 -9.270458e-05 3.214952e-06)) ((2.125497e-10 -8.265966e-11 6.838651e-10) (2.972146e-08 -1.910604e-10 -9.095019e-08))
122.006525    	((1.254838e-04 -2.956842e-04 4.066615e-05) (1.093021e-05 -9.290046e-05 3.525665e-06)) ((2.304972e-10 -9.700278e-11 6.794479e-10) (3.217801e-08 -3.014122e-10 -9.855285e-08))
123.740809    	((1.365446e-04 -2.988957e-04 4.429341e-05) (1.194678e-05 -9.314898e-05 3.858987e-06)) ((2.490483e-10 -1.136629e-10 6.752251e-10) (3.482643e-08 -3.699903e-10 -1.066484e-07))
125.470136    	((1.481985e-04 -3.027338e-04 4.817955e-05) (1.303980e-05 -9.345748e-05 4.217034e-06)) ((2.687393e-10 -1.329153e-10 6.702609e-10) (3.767890e-08 -3.774521e-10 -1.150215e-07))
127.194208    	((1.604026e-04 -3.071812e-04 5.223329e-05) (1.420791e-05 -9.383252e-05 4.602850e-06)) ((2.884113e-10 -1.557204e-10 6.647231e-10) (4.053224e-08 -3.462158e-10 -1.235686e-07))
128.91274     	((1.730706e-04 -3.124157e-04 5.644411e-05) (1.544935e-05 -9.428428e-05 5.016299e-06)) ((3.061409e-10 -1.809995e-10 6.596254e-10) (4.330026e-08 -2.457565e-10 -1.320119e-07))
130.625407    	((1.860484e-04 -3.185037e-04 6.071714e-05) (1.676188e-05 -9.482290e-05 5.451718e-06)) ((3.216152e-10 -2.092994e-10 6.556217e-10) (4.610015e-08 -1.012815e-10 -1.401346e-07))
132.332173    	((1.991711e-04 -3.254192e-04 6.503521e-05) (1.813413e-05 -9.545485e-05 5.902600e-06)) ((3.353764e-10 -2.411771e-10 6.532348e-10) (4.903433e-08 7.261819e-11 -1.478997e-07))
134.033461    	((2.122073e-04 -3.330610e-04 6.941002e-05) (1.954910e-05 -9.618659e-05 6.368417e-06)) ((3.484610e-10 -2.757540e-10 6.516840e-10) (5.190759e-08 1.513064e-10 -1.552666e-07))
135.729363    	((2.249643e-04 -3.414214e-04 7.361985e-05) (2.099380e-05 -9.701472e-05 6.846852e-06)) ((3.577104e-10 -3.114751e-10 6.512638e-10) (5.443050e-08 1.064744e-10 -1.621302e-07))
137.419974    	((2.371023e-04 -3.505559e-04 7.766612e-05) (2.245367e-05 -9.794500e-05 7.332550e-06)) ((3.641478e-10 -3.479547e-10 6.519674e-10) (5.652699e-08 7.118327e-11 -1.680552e-07))
139.105567    	((2.480523e-04 -3.603358e-04 8.124287e-05) (2.389904e-05 -9.898431e-05 7.812779e-06)) ((3.641691e-10 -3.834098e-10 6.539872e-10) (5.811151e-08 7.823558e-11 -1.727361e-07))
140.786487    	((2.571221e-04 -3.701761e-04 8.423499e-05) (2.528554e-05 -1.001187e-04 8.275822e-06)) ((3.604939e-10 -4.164650e-10 6.577826e-10) (5.893819e-08 1.287543e-10 -1.757998e-07))
142.463195    	((2.637109e-04 -3.798780e-04 8.638424e-05) (2.657227e-05 -1.013244e-04 8.705637e-06)) ((3.526025e-10 -4.459962e-10 6.630072e-10) (5.889334e-08 2.769733e-10 -1.764080e-07))
