# Forces      
# CofR        : (0.000000e+00 0.000000e+00 0.000000e+00)
# Time        forces(pressure viscous)	moments(pressure viscous)
0             	((0.000000e+00 0.000000e+00 0.000000e+00) (0.000000e+00 0.000000e+00 0.000000e+00)) ((0.000000e+00 0.000000e+00 0.000000e+00) (0.000000e+00 0.000000e+00 0.000000e+00))
0.012         	((-5.843880e-10 8.873809e-10 -1.779673e-09) (9.140150e-12 1.718837e-12 1.145092e-11)) ((8.029544e-09 -7.668427e-13 -1.556704e-14) (5.562739e-06 6.136019e-13 -2.573286e-13))
0.0264        	((6.459096e-10 1.505418e-09 -3.179654e-09) (3.679785e-11 -1.282373e-11 9.169907e-12)) ((4.011827e-09 -6.082821e-13 1.473760e-13) (5.095462e-06 1.015023e-12 -2.214186e-13))
0.04368       	((-3.424899e-09 -2.513837e-09 -3.739927e-09) (1.046363e-10 -3.935626e-11 3.103054e-12)) ((2.279025e-09 -5.124351e-13 1.690715e-13) (4.616290e-06 6.096137e-13 4.352691e-13))
0.064416      	((1.853193e-09 -4.665067e-10 -1.026679e-09) (1.935407e-10 -5.417697e-11 -7.050844e-12)) ((1.343392e-09 -3.506279e-13 -8.039203e-14) (4.136547e-06 -3.914049e-13 1.044394e-12))
0.0892992     	((1.548877e-10 -1.044810e-09 1.595766e-10) (3.082598e-10 -6.068998e-11 -1.727166e-11)) ((1.053809e-09 -3.446316e-13 2.369124e-14) (3.671087e-06 -1.459591e-12 1.448193e-12))
0.119159      	((1.451685e-09 -1.179476e-10 -1.262569e-09) (3.558813e-10 -6.219585e-11 -2.432028e-11)) ((7.966498e-10 -2.248739e-13 -8.774635e-14) (3.234842e-06 -2.315930e-12 1.703692e-12))
0.154991      	((4.860592e-09 5.072337e-10 4.606312e-10) (3.676354e-10 -5.972404e-11 -2.943421e-11)) ((6.589421e-10 -2.351121e-13 -5.109366e-14) (2.838230e-06 -2.961167e-12 1.637508e-12))
0.197989      	((2.015028e-09 3.556593e-10 -6.574100e-10) (3.321374e-10 -5.338463e-11 -4.015335e-11)) ((5.382218e-10 -1.155972e-13 -5.386689e-14) (2.487673e-06 -3.197481e-12 1.420441e-12))
0.249587      	((4.666852e-09 -3.600395e-10 -9.539434e-10) (2.157026e-10 -3.793043e-11 -5.851968e-11)) ((4.557974e-10 -8.260845e-14 -4.788153e-14) (2.185185e-06 -3.462642e-12 1.225826e-12))
0.311504      	((9.022489e-10 8.465285e-11 -6.029362e-10) (1.030668e-10 -1.927387e-11 -7.547172e-11)) ((3.931913e-10 -8.885802e-14 -1.407550e-14) (1.929039e-06 -3.990200e-12 1.142842e-12))
0.385805      	((-1.382128e-09 1.051077e-10 -1.226040e-09) (3.752481e-11 -1.187243e-11 -9.926249e-11)) ((3.491950e-10 -8.598906e-14 2.419187e-14) (1.713540e-06 -4.107192e-12 1.107402e-12))
0.474966      	((1.612075e-09 7.082272e-10 -8.165504e-10) (5.170978e-11 -1.203184e-11 -1.210898e-10)) ((3.174603e-10 -1.025761e-13 5.247312e-14) (1.531061e-06 -3.867339e-12 1.152222e-12))
0.581959      	((2.194077e-09 1.323146e-09 -1.075805e-09) (2.344081e-10 6.223060e-12 -1.300207e-10)) ((2.859524e-10 -6.569920e-14 5.298390e-14) (1.374988e-06 -3.759793e-12 1.198025e-12))
0.710351      	((-3.973186e-09 1.784200e-09 -7.105135e-10) (2.141114e-10 3.632925e-11 -1.168975e-10)) ((2.550331e-10 -6.332582e-14 7.633662e-14) (1.239919e-06 -3.458078e-12 1.294620e-12))
0.864421      	((-8.277832e-10 3.625479e-09 6.690178e-10) (1.101578e-10 7.044088e-11 -6.910564e-11)) ((2.327990e-10 -3.383439e-14 6.408239e-14) (1.121665e-06 -2.662528e-12 1.811526e-12))
1.049306      	((-1.292029e-09 4.832440e-09 -2.773702e-10) (1.515127e-10 7.818719e-11 -4.298484e-11)) ((2.172070e-10 -1.435218e-14 4.714898e-14) (1.017021e-06 -1.482739e-12 2.924704e-12))
1.271167      	((-2.004030e-09 4.786465e-09 2.650874e-10) (9.929070e-11 1.604364e-11 5.823836e-11)) ((2.032839e-10 -1.056073e-14 3.446436e-14) (9.236086e-07 -1.264744e-13 4.764752e-12))
1.5374        	((-3.362657e-10 3.548446e-09 -8.628066e-10) (1.554717e-10 -9.646304e-11 1.978641e-10)) ((1.863531e-10 -8.746007e-16 4.300814e-14) (8.398594e-07 4.452948e-13 7.978923e-12))
1.85688       	((-2.208629e-10 2.935655e-09 -8.916141e-10) (3.784874e-10 -2.052862e-10 3.404756e-10)) ((1.684687e-10 -1.060748e-14 3.869586e-14) (7.649087e-07 2.163228e-12 1.061349e-11))
2.240256      	((3.348262e-10 2.831592e-09 -1.851146e-09) (4.840445e-10 -2.799181e-10 5.106079e-10)) ((1.534775e-10 -6.156168e-14 6.799394e-14) (6.983014e-07 4.417358e-12 1.287016e-11))
2.700307      	((2.705452e-10 2.989932e-09 -1.081184e-09) (6.474948e-10 -3.699727e-10 6.091473e-10)) ((1.414583e-10 -6.671573e-14 4.654848e-14) (6.395791e-07 5.245876e-12 1.612645e-11))
3.252369      	((2.638591e-10 3.222995e-09 -3.195492e-10) (7.625224e-10 -4.388661e-10 7.172299e-10)) ((1.295000e-10 -1.310939e-14 -2.904660e-14) (5.880648e-07 8.033437e-12 1.752036e-11))
3.914842      	((1.149252e-10 3.647886e-09 1.148654e-09) (7.065063e-10 -4.579835e-10 7.957693e-10)) ((1.176735e-10 3.492218e-14 -7.669615e-14) (5.428437e-07 9.983838e-12 1.767309e-11))
4.709811      	((5.485784e-10 2.532298e-09 2.187222e-09) (6.245390e-10 -4.769853e-10 7.013362e-10)) ((1.070966e-10 9.363037e-14 -1.063051e-13) (5.028628e-07 9.610790e-12 1.722736e-11))
5.663773      	((6.867680e-10 1.373651e-09 2.265550e-09) (3.658237e-10 -3.272207e-10 5.786946e-10)) ((9.669578e-11 1.257981e-13 -1.316381e-13) (4.671105e-07 7.005316e-12 1.597824e-11))
6.808528      	((6.851614e-10 4.939657e-10 1.552743e-09) (1.466798e-10 -7.109617e-11 3.399504e-10)) ((8.709873e-11 1.345334e-13 -1.482232e-13) (4.347728e-07 3.303465e-12 1.410102e-11))
8.182233      	((9.506760e-10 1.937986e-10 1.905280e-09) (1.114233e-10 2.106223e-10 1.227510e-10)) ((7.840764e-11 1.498378e-13 -1.746944e-13) (4.053033e-07 6.946833e-13 1.103517e-11))
9.83068       	((2.214732e-10 -1.108078e-10 1.333798e-09) (3.053439e-11 3.509409e-10 -7.179558e-11)) ((7.045414e-11 9.848575e-14 -1.619643e-13) (3.782906e-07 4.631277e-13 7.048997e-12))
11.808816     	((-3.214330e-10 2.706426e-10 1.107111e-09) (-2.700629e-10 4.064442e-10 -6.039960e-11)) ((6.337258e-11 2.608043e-14 -1.009128e-13) (3.534048e-07 2.943758e-12 3.355841e-12))
14.182579     	((-5.344542e-10 3.873921e-10 5.337236e-10) (-3.247573e-10 4.300990e-10 5.338396e-11)) ((5.705703e-11 -4.869538e-14 -3.225196e-14) (3.304406e-07 5.240544e-12 6.873411e-13))
17.031095     	((-2.450021e-10 1.581830e-10 1.155725e-09) (-3.028023e-10 3.271794e-10 2.233377e-11)) ((5.162981e-11 -1.098434e-13 2.559478e-14) (3.093307e-07 6.788382e-12 -2.405812e-12))
20.449314     	((-4.863753e-10 -4.040722e-10 -8.911867e-11) (-2.749995e-10 3.086734e-10 4.760435e-11)) ((4.718950e-11 -1.300932e-13 4.165592e-14) (2.900840e-07 7.445025e-12 -5.090369e-12))
24.551176     	((-2.156186e-10 -6.173017e-10 1.606316e-10) (-1.350024e-10 3.160780e-10 7.183270e-11)) ((4.348794e-11 -1.200376e-13 4.658486e-14) (2.726728e-07 8.597925e-12 -6.995160e-12))
29.473411     	((-4.959842e-10 -6.304016e-10 8.234892e-11) (-1.445113e-11 2.560362e-10 -3.600820e-11)) ((4.043462e-11 -1.009225e-13 2.240827e-14) (2.570003e-07 1.003515e-11 -8.250644e-12))
35.380094     	((-1.610259e-10 -4.798914e-10 -1.082411e-10) (-5.887917e-11 2.776294e-10 -8.447346e-11)) ((3.750487e-11 -8.985565e-14 -1.675277e-15) (2.429388e-07 1.173696e-11 -8.745741e-12))
42.468112     	((-5.188920e-10 -9.009179e-10 -3.029054e-10) (-1.423469e-10 3.583615e-10 -1.200409e-10)) ((3.488191e-11 -9.872371e-14 -4.753788e-15) (2.303079e-07 1.273120e-11 -8.909667e-12))
50.973735     	((-4.138587e-10 -7.507941e-10 -2.885426e-10) (-1.871731e-10 4.533457e-10 -1.873862e-10)) ((3.271778e-11 -1.078068e-13 1.563459e-15) (2.189196e-07 1.217380e-11 -9.117180e-12))
61.180482     	((-4.869846e-10 -9.005673e-10 -4.958302e-10) (-5.845629e-11 4.848078e-10 -3.143311e-10)) ((3.084527e-11 -9.351672e-14 2.305008e-15) (2.086451e-07 1.109376e-11 -9.302689e-12))
73.428578     	((-4.458376e-10 -1.574928e-10 2.964693e-11) (-9.438416e-11 4.809093e-10 -3.622771e-10)) ((2.903317e-11 -8.185630e-14 -3.968873e-15) (1.993926e-07 9.221768e-12 -9.290308e-12))
88.126294     	((-4.368237e-10 -2.191431e-10 -5.160647e-10) (-1.977032e-10 4.130384e-10 -4.567626e-10)) ((2.740834e-11 -5.999422e-14 -1.373349e-14) (1.911228e-07 6.758146e-12 -9.538968e-12))
105.384294    	((-3.404619e-10 -3.176574e-10 -9.699142e-10) (-2.008458e-10 3.928625e-10 -5.141442e-10)) ((2.595383e-11 -4.335537e-14 -2.571381e-14) (1.838883e-07 4.072746e-12 -9.865935e-12))
125.202116    	((-2.688210e-10 -3.552099e-10 -1.287295e-09) (-2.004817e-10 4.336050e-10 -4.809568e-10)) ((2.467423e-11 -3.286452e-14 -3.996047e-14) (1.776725e-07 1.133809e-12 -9.932985e-12))
147.579242    	((-1.830768e-10 -3.807488e-10 -1.321185e-09) (-2.235711e-10 4.787648e-10 -4.615186e-10)) ((2.364502e-11 -2.431868e-14 -5.385552e-14) (1.724245e-07 -1.347228e-12 -9.739650e-12))
172.51506     	((-1.943907e-10 -3.308301e-10 -1.326385e-09) (-1.477934e-10 4.996506e-10 -4.467328e-10)) ((2.282317e-11 -1.826172e-14 -5.099390e-14) (1.680675e-07 -2.329769e-12 -9.949792e-12))
198.094269    	((6.944961e-11 -1.608135e-10 -1.093630e-09) (-9.969573e-11 5.481291e-10 -3.852024e-10)) ((2.218149e-11 -2.466352e-14 -4.783512e-14) (1.646234e-07 -1.855456e-12 -1.067374e-11))
223.665163    	((5.628798e-11 -8.689583e-11 -8.477449e-10) (-8.609462e-11 5.871394e-10 -3.366321e-10)) ((2.168952e-11 -2.214410e-14 -4.050166e-14) (1.619878e-07 -1.036788e-12 -1.112046e-11))
249.227581    	((1.396188e-11 1.219512e-10 -5.551203e-10) (-7.954115e-11 6.211678e-10 -2.922283e-10)) ((2.131437e-11 -2.702416e-14 -3.599377e-14) (1.600526e-07 -1.730293e-13 -1.125632e-11))
274.78108     	((1.650475e-10 1.216038e-10 -2.781507e-10) (-8.792930e-11 6.337033e-10 -2.471426e-10)) ((2.100445e-11 -3.065424e-14 -3.712669e-14) (1.587092e-07 2.352519e-13 -1.039089e-11))
300.325128    	((1.161460e-10 3.304848e-10 9.115233e-11) (-3.823586e-11 6.493742e-10 -1.759900e-10)) ((2.076873e-11 -3.186365e-14 -3.750649e-14) (1.578692e-07 3.787860e-13 -8.984854e-12))
325.859685    	((6.715035e-11 2.312047e-10 1.627246e-10) (-1.003257e-11 6.334356e-10 -1.420230e-10)) ((2.061431e-11 -2.587598e-14 -3.540763e-14) (1.574549e-07 1.662966e-13 -7.597353e-12))
351.384958    	((3.091582e-11 2.128302e-10 2.539469e-10) (-5.247333e-11 6.118423e-10 -1.155648e-10)) ((2.055882e-11 -2.526603e-14 -3.100104e-14) (1.574003e-07 2.486828e-13 -6.931128e-12))
376.90106     	((7.220651e-12 1.016814e-10 2.565134e-10) (-9.154625e-11 5.856164e-10 -9.831021e-11)) ((2.054610e-11 -2.689767e-14 -2.331553e-14) (1.576465e-07 2.848374e-13 -6.528762e-12))
402.407932    	((-5.137826e-12 1.175773e-10 2.562328e-10) (-8.518943e-11 5.587739e-10 -8.377077e-11)) ((2.054422e-11 -2.714089e-14 -1.853462e-14) (1.581452e-07 3.874404e-14 -6.236674e-12))
427.90576     	((2.029470e-11 1.130892e-10 2.209970e-10) (-6.454678e-11 5.279285e-10 -9.311548e-11)) ((2.058219e-11 -3.027755e-14 -1.451006e-14) (1.588537e-07 -3.887574e-15 -6.339348e-12))
453.394904    	((1.515592e-11 1.348435e-10 2.111325e-10) (-5.492196e-11 5.120215e-10 -1.020012e-10)) ((2.067296e-11 -3.210383e-14 -1.152018e-14) (1.597319e-07 2.365168e-13 -6.732073e-12))
478.875565    	((1.924298e-11 2.062719e-10 2.333187e-10) (-5.214262e-11 5.112031e-10 -1.031905e-10)) ((2.079217e-11 -3.444852e-14 -8.373034e-15) (1.607418e-07 8.130305e-13 -7.302144e-12))
504.347916    	((3.277991e-11 2.929765e-10 2.945528e-10) (-3.959654e-11 5.220716e-10 -9.811480e-11)) ((2.092816e-11 -3.786395e-14 -5.103207e-15) (1.618458e-07 1.529800e-12 -7.842247e-12))
529.812173    	((8.517382e-11 3.264145e-10 3.543740e-10) (-3.409090e-11 5.414598e-10 -8.285566e-11)) ((2.107747e-11 -4.091287e-14 -3.255523e-15) (1.630061e-07 2.211859e-12 -8.163807e-12))
555.268335    	((1.075626e-10 3.299479e-10 4.118361e-10) (-3.823429e-11 5.632827e-10 -6.829217e-11)) ((2.123628e-11 -4.298103e-14 -1.917589e-15) (1.641879e-07 2.847191e-12 -8.315609e-12))
580.716666    	((1.214636e-10 3.249650e-10 4.811906e-10) (-4.424170e-11 5.787645e-10 -5.318320e-11)) ((2.140115e-11 -4.466110e-14 -3.973676e-16) (1.653580e-07 3.315651e-12 -8.377370e-12))
606.157563    	((4.574140e-11 2.784793e-10 4.839175e-10) (-5.782801e-11 5.806614e-10 -4.513439e-11)) ((2.157236e-11 -4.581933e-14 7.355434e-16) (1.664880e-07 3.636184e-12 -8.450522e-12))
