# Forces      
# CofR        : (0.000000e+00 0.000000e+00 0.000000e+00)
# Time        forces(pressure viscous)	moments(pressure viscous)
0             	((0.000000e+00 0.000000e+00 0.000000e+00) (0.000000e+00 0.000000e+00 0.000000e+00)) ((0.000000e+00 0.000000e+00 0.000000e+00) (0.000000e+00 0.000000e+00 0.000000e+00))
0.012         	((-4.268393e-12 7.155340e-12 1.719492e-09) (-3.628017e-15 3.776322e-14 3.611656e-11)) ((-7.759533e-16 6.688740e-11 -3.540942e-17) (8.721967e-17 4.418528e-08 -2.611739e-15))
0.0264        	((7.174063e-12 -7.599755e-12 -6.464640e-10) (-5.564516e-15 1.068260e-13 6.280436e-11)) ((-1.646153e-16 3.348125e-11 3.256345e-15) (1.197178e-15 4.047028e-08 -3.687779e-15))
0.04368       	((2.497288e-11 4.118184e-11 5.989720e-10) (6.180320e-14 8.029609e-14 6.808177e-11)) ((6.058592e-16 1.846611e-11 2.115227e-15) (-2.008089e-15 3.665259e-08 -5.303895e-15))
0.064416      	((-7.119676e-12 -1.136439e-11 2.247490e-11) (1.921109e-13 -5.866622e-14 5.628202e-11)) ((8.739727e-18 1.051141e-11 -1.463263e-16) (-6.780474e-15 3.281554e-08 -6.911786e-15))
0.0892992     	((2.177887e-11 1.273249e-11 7.500774e-11) (2.749870e-13 -2.012513e-13 4.675717e-11)) ((-1.582472e-16 7.804982e-12 -1.538164e-17) (-9.285328e-15 2.907102e-08 -7.114078e-15))
0.119159      	((-8.296081e-12 -3.379320e-12 1.975603e-11) (3.266451e-13 -3.501489e-13 3.963722e-11)) ((1.034561e-16 5.599933e-12 -2.984147e-17) (-1.238512e-14 2.553424e-08 -8.142756e-15))
0.154991      	((-7.172584e-12 -8.097820e-12 -4.913516e-11) (3.727608e-13 -5.485464e-13 3.193014e-11)) ((-1.002913e-16 4.424641e-12 3.415775e-16) (-1.638894e-14 2.228667e-08 -9.984179e-15))
0.197989      	((-5.890143e-12 -5.434480e-12 5.210058e-12) (3.904487e-13 -7.093054e-13 2.494243e-11)) ((-1.523331e-16 3.517331e-12 3.417753e-16) (-1.853616e-14 1.940750e-08 -1.147860e-14))
0.249587      	((2.100416e-13 -5.615826e-12 -4.746887e-11) (3.946540e-13 -7.987380e-13 1.971203e-11)) ((-2.322510e-16 2.899618e-12 -7.323193e-17) (-1.832215e-14 1.693956e-08 -9.980612e-15))
0.311504      	((-1.328304e-12 1.422294e-12 -9.145351e-12) (3.744949e-13 -8.642934e-13 1.535419e-11)) ((-1.948252e-16 2.413805e-12 -3.381260e-16) (-1.729495e-14 1.487691e-08 -6.758796e-15))
0.385805      	((-3.509208e-12 4.729789e-12 2.546661e-13) (3.777403e-13 -8.851567e-13 1.175304e-11)) ((-5.528345e-17 2.069647e-12 -5.438808e-16) (-1.665224e-14 1.317511e-08 -5.250646e-15))
0.474966      	((-6.432554e-12 -1.268107e-12 1.016803e-11) (3.216982e-13 -9.429101e-13 8.343008e-12)) ((-4.066120e-17 1.843359e-12 -4.244795e-16) (-1.595834e-14 1.176722e-08 -1.461913e-15))
0.581959      	((-1.000734e-11 -5.491830e-12 -1.036322e-11) (2.145089e-13 -9.857718e-13 5.501001e-12)) ((-1.016775e-16 1.650930e-12 -1.628292e-16) (-1.599693e-14 1.058368e-08 3.776616e-15))
0.710351      	((-1.457051e-11 -7.729454e-12 2.331017e-11) (2.418849e-13 -7.064146e-13 4.901850e-12)) ((-2.633544e-16 1.465753e-12 -1.550388e-16) (-1.302291e-14 9.566925e-09 -6.256209e-16))
0.864421      	((-1.493946e-11 -6.497034e-12 1.185381e-11) (3.877799e-13 8.007725e-14 4.616115e-12)) ((-3.614270e-16 1.340870e-12 1.910138e-16) (-5.859318e-15 8.676155e-09 -1.224846e-14))
1.049306      	((-2.125235e-11 -6.318471e-12 -7.040271e-13) (5.556747e-13 8.014133e-13 2.980273e-12)) ((-5.113964e-16 1.261334e-12 1.848939e-16) (4.402556e-15 7.884461e-09 -1.958159e-14))
1.271167      	((-2.870728e-11 -5.145565e-12 2.363864e-11) (9.326121e-13 1.153079e-12 1.312182e-12)) ((-2.117095e-16 1.179942e-12 3.649468e-16) (1.891993e-14 7.173727e-09 -1.533663e-14))
1.5374        	((-2.763224e-11 2.228216e-12 2.748607e-11) (1.625900e-12 1.285434e-12 -9.037238e-13)) ((3.361606e-16 1.085338e-12 5.690455e-16) (3.697394e-14 6.532153e-09 -2.717252e-15))
1.85688       	((-2.751280e-11 -3.241866e-12 1.906230e-11) (2.399869e-12 1.382860e-12 -4.278790e-12)) ((6.797175e-16 1.001676e-12 2.612341e-16) (6.192876e-14 5.953348e-09 2.282952e-14))
2.240256      	((-2.679374e-11 -1.459376e-12 2.314018e-11) (3.525367e-12 1.139416e-12 -6.498592e-12)) ((7.186196e-16 9.474925e-13 1.897352e-16) (8.488447e-14 5.434011e-09 5.649164e-14))
2.700307      	((-2.674947e-11 -3.818905e-13 1.914675e-11) (5.397120e-12 7.178455e-13 -7.712917e-12)) ((6.309716e-16 9.083260e-13 2.207518e-16) (1.237066e-13 4.971794e-09 1.248074e-13))
3.252369      	((-1.937170e-11 -1.759139e-12 1.249625e-11) (7.841746e-12 3.454518e-13 -1.188846e-11)) ((7.179972e-16 8.689333e-13 3.547236e-16) (1.736664e-13 4.563534e-09 2.074952e-13))
3.914842      	((-9.242123e-12 -1.653489e-12 3.519067e-12) (1.040904e-11 -1.284455e-13 -1.858506e-11)) ((3.771199e-16 8.232353e-13 5.833184e-16) (2.092728e-13 4.204449e-09 2.486086e-13))
4.709811      	((-4.271046e-12 -4.649063e-14 -3.554937e-12) (1.323276e-11 -7.307497e-13 -2.124607e-11)) ((4.729948e-16 7.727043e-13 4.760753e-16) (2.394390e-13 3.887859e-09 2.808012e-13))
5.663773      	((3.619120e-13 -1.209383e-12 5.351541e-12) (1.482541e-11 -6.812243e-13 -2.000330e-11)) ((4.723255e-16 7.178983e-13 1.027706e-16) (2.567231e-13 3.606310e-09 2.842326e-13))
6.808528      	((4.486157e-12 -2.080759e-12 1.397821e-12) (1.460978e-11 -2.474227e-13 -1.920566e-11)) ((4.960569e-16 6.618725e-13 -2.670413e-16) (2.481328e-13 3.353191e-09 2.573123e-13))
8.182233      	((5.616654e-12 -3.369502e-13 -3.294066e-13) (1.346929e-11 -3.694203e-13 -1.745045e-11)) ((4.929030e-16 6.074303e-13 -1.687619e-16) (2.176935e-13 3.123387e-09 2.353503e-13))
9.83068       	((5.257518e-12 -2.928095e-12 1.002118e-12) (1.159535e-11 -5.738149e-13 -1.335185e-11)) ((3.115670e-16 5.517138e-13 -1.631288e-16) (1.762245e-13 2.913022e-09 2.040766e-13))
11.808816     	((5.072427e-13 -1.477508e-12 5.350714e-12) (8.947202e-12 -9.339932e-15 -8.363561e-12)) ((2.432756e-16 5.016404e-13 -2.914574e-16) (1.400427e-13 2.719400e-09 1.527982e-13))
14.182579     	((-1.739892e-12 -1.397721e-12 6.669213e-12) (6.295408e-12 1.179657e-12 -5.646443e-12)) ((1.877915e-16 4.558599e-13 -3.927296e-16) (1.080358e-13 2.540964e-09 8.012101e-14))
17.031095     	((-1.985125e-12 -1.833477e-12 5.079934e-12) (4.279122e-12 1.488390e-12 -3.849321e-12)) ((-2.967182e-17 4.165585e-13 -4.251823e-16) (7.581632e-14 2.376903e-09 3.566859e-14))
20.449314     	((-2.271994e-12 -1.209760e-12 7.303273e-12) (2.765923e-12 9.566933e-13 -2.298235e-12)) ((-5.006170e-17 3.817437e-13 -4.944903e-16) (4.688817e-14 2.226693e-09 2.480210e-14))
24.551176     	((-1.250136e-12 -3.102902e-13 6.538659e-12) (1.860697e-12 4.260956e-13 -2.019593e-12)) ((-5.480154e-17 3.507300e-13 -5.011044e-16) (2.587716e-14 2.089443e-09 1.980364e-14))
29.473411     	((-1.866654e-12 -8.008046e-13 7.456857e-12) (1.300937e-12 1.332864e-13 -2.433369e-12)) ((-1.154691e-16 3.247758e-13 -4.486061e-16) (1.875413e-14 1.964197e-09 1.606597e-14))
35.380094     	((-2.505650e-12 -6.711791e-13 6.714896e-12) (1.083614e-12 -1.415243e-13 -2.894037e-12)) ((-1.089987e-16 3.017463e-13 -4.213592e-16) (1.533777e-14 1.849936e-09 1.354700e-14))
42.468112     	((-1.765914e-12 -4.906992e-13 5.938545e-12) (1.140367e-12 -2.619252e-13 -3.129719e-12)) ((-6.963191e-17 2.819623e-13 -3.044413e-16) (1.572146e-14 1.745687e-09 1.625490e-14))
50.973735     	((-1.138157e-12 -2.227123e-13 5.465835e-12) (1.240045e-12 -3.772118e-13 -2.876741e-12)) ((-8.693041e-18 2.643214e-13 -2.097058e-16) (1.800348e-14 1.650661e-09 2.258059e-14))
61.180482     	((-1.975877e-12 -2.243421e-13 4.408444e-12) (1.220482e-12 -4.653675e-13 -2.600976e-12)) ((-4.982091e-17 2.484426e-13 -1.986588e-16) (2.244905e-14 1.564155e-09 3.218613e-14))
73.428578     	((-4.163824e-13 -2.970455e-13 3.752956e-12) (1.350309e-12 -4.615833e-13 -2.586923e-12)) ((-1.095070e-16 2.343924e-13 -1.492553e-16) (2.943970e-14 1.485594e-09 3.644000e-14))
88.126294     	((-7.872466e-13 -2.863736e-13 3.846683e-12) (1.407230e-12 -4.452381e-13 -2.688237e-12)) ((-1.343313e-16 2.216936e-13 -9.675245e-17) (3.625336e-14 1.414376e-09 4.022639e-14))
105.763553    	((1.300221e-13 -4.293769e-13 3.702127e-12) (1.485058e-12 -4.123504e-13 -2.873241e-12)) ((-1.638387e-16 2.096848e-13 -4.141047e-17) (4.120175e-14 1.349936e-09 4.323194e-14))
126.928263    	((2.812798e-13 -3.463304e-13 2.879700e-12) (1.497527e-12 -4.044149e-13 -2.909148e-12)) ((-1.599192e-16 1.987642e-13 -9.097816e-18) (4.151564e-14 1.291683e-09 4.419795e-14))
152.325916    	((5.065966e-13 -2.912083e-13 2.417813e-12) (1.536419e-12 -3.862273e-13 -2.937903e-12)) ((-1.209388e-16 1.890217e-13 -2.854751e-18) (4.134006e-14 1.239005e-09 4.472192e-14))
182.803099    	((2.416359e-13 -1.300426e-13 1.775942e-12) (1.650125e-12 -4.247100e-13 -2.969146e-12)) ((-8.164662e-17 1.802821e-13 -5.059708e-18) (4.164269e-14 1.191279e-09 4.486099e-14))
219.375719    	((1.093733e-13 -2.687710e-13 5.031936e-13) (1.763846e-12 -3.615785e-13 -3.411988e-12)) ((-6.312762e-17 1.723372e-13 -9.597970e-18) (4.447386e-14 1.147936e-09 4.209202e-14))
263.262863    	((3.914282e-13 -1.286006e-13 3.072986e-13) (1.852437e-12 -2.673119e-13 -3.930550e-12)) ((-4.934086e-17 1.650602e-13 -1.025189e-17) (4.773808e-14 1.108516e-09 3.823059e-14))
315.927436    	((9.957139e-13 -9.898340e-14 3.302211e-13) (1.824591e-12 -2.233711e-13 -4.334719e-12)) ((-2.085616e-17 1.585048e-13 -9.911432e-19) (4.986876e-14 1.072657e-09 3.573946e-14))
379.124923    	((9.508423e-13 1.004390e-14 1.892830e-13) (1.885813e-12 -2.336646e-13 -4.686512e-12)) ((-3.951380e-18 1.525372e-13 2.235340e-17) (5.125863e-14 1.040060e-09 3.414236e-14))
454.961908    	((1.180402e-12 7.541269e-14 2.748434e-13) (1.928218e-12 -2.604827e-13 -5.108552e-12)) ((3.703689e-19 1.470850e-13 3.767588e-17) (5.155009e-14 1.010498e-09 3.374213e-14))
545.966289    	((1.336668e-12 2.104330e-13 1.689628e-13) (1.795611e-12 -2.681780e-13 -5.379889e-12)) ((9.122082e-18 1.420935e-13 5.068556e-17) (4.984645e-14 9.837688e-10 3.358463e-14))
655.171547    	((1.684551e-12 2.096881e-13 7.295817e-15) (1.746454e-12 -2.924523e-13 -5.512917e-12)) ((1.807688e-17 1.375326e-13 6.759215e-17) (4.762372e-14 9.596921e-10 3.373399e-14))
786.217856    	((1.751310e-12 2.797064e-13 1.160089e-13) (1.777164e-12 -2.863443e-13 -5.452925e-12)) ((1.995936e-17 1.334511e-13 7.426064e-17) (4.518952e-14 9.380945e-10 3.377567e-14))
943.473427    	((1.613834e-12 2.764119e-13 1.183202e-13) (1.794214e-12 -2.677305e-13 -5.296231e-12)) ((2.384921e-17 1.298588e-13 7.700880e-17) (4.284364e-14 9.188060e-10 3.363748e-14))
1132.180113   	((1.272434e-12 3.337907e-13 2.181282e-13) (1.692329e-12 -2.391314e-13 -5.173735e-12)) ((2.945612e-17 1.266128e-13 6.915375e-17) (4.084285e-14 9.016631e-10 3.313168e-14))
1358.628135   	((1.206841e-12 3.517116e-13 4.848878e-13) (1.579560e-12 -2.172133e-13 -5.069032e-12)) ((3.597971e-17 1.237058e-13 5.501465e-17) (3.860273e-14 8.865046e-10 3.235755e-14))
1630.365763   	((9.915048e-13 3.439923e-13 6.599763e-13) (1.470488e-12 -1.981646e-13 -5.015011e-12)) ((3.385129e-17 1.211773e-13 4.040272e-17) (3.654466e-14 8.731710e-10 3.090130e-14))
1956.450915   	((1.115479e-12 3.171208e-13 8.112601e-13) (1.426881e-12 -1.904457e-13 -4.960543e-12)) ((3.233264e-17 1.189925e-13 2.888306e-17) (3.396832e-14 8.615119e-10 2.931779e-14))
2347.753098   	((1.193174e-12 2.708954e-13 9.192993e-13) (1.441894e-12 -1.760885e-13 -4.945861e-12)) ((2.773743e-17 1.170880e-13 1.787659e-17) (3.169616e-14 8.513798e-10 2.801323e-14))
2817.315718   	((1.261227e-12 2.455626e-13 1.039872e-12) (1.479933e-12 -1.626331e-13 -4.945996e-12)) ((2.828836e-17 1.155035e-13 1.432614e-17) (2.955468e-14 8.426297e-10 2.707636e-14))
3380.790861   	((1.275862e-12 1.999076e-13 1.086874e-12) (1.501097e-12 -1.562600e-13 -4.949228e-12)) ((2.926714e-17 1.141828e-13 1.581642e-17) (2.821367e-14 8.351233e-10 2.558964e-14))
4056.961033   	((1.314753e-12 1.923657e-13 1.126737e-12) (1.514337e-12 -1.572400e-13 -4.929833e-12)) ((2.825536e-17 1.130338e-13 1.635203e-17) (2.745212e-14 8.287226e-10 2.370492e-14))
4868.36524    	((1.260567e-12 2.772143e-13 9.888494e-13) (1.557331e-12 -1.238351e-13 -4.877909e-12)) ((1.825641e-17 1.120064e-13 1.023217e-17) (2.709222e-14 8.233013e-10 2.067515e-14))
5842.050288   	((1.179071e-12 3.131559e-13 9.302723e-13) (1.573013e-12 -9.307156e-14 -4.817095e-12)) ((1.071543e-17 1.111948e-13 1.121739e-19) (2.622780e-14 8.187395e-10 1.843222e-14))
7010.472346   	((1.052813e-12 3.569311e-13 8.702050e-13) (1.580731e-12 -7.434503e-14 -4.769969e-12)) ((6.802525e-18 1.104971e-13 -6.957453e-18) (2.518541e-14 8.149289e-10 1.705875e-14))
8412.578815   	((9.223422e-13 4.761749e-13 7.961901e-13) (1.582505e-12 -6.078323e-14 -4.730387e-12)) ((4.540252e-18 1.099009e-13 -1.024573e-17) (2.434688e-14 8.117668e-10 1.612412e-14))
10095.106578  	((8.535440e-13 4.470494e-13 7.293147e-13) (1.576178e-12 -5.340836e-14 -4.692356e-12)) ((-8.031562e-19 1.094047e-13 -1.605478e-17) (2.362666e-14 8.091596e-10 1.545027e-14))
12100.470417  	((8.144825e-13 6.153658e-13 5.883616e-13) (1.589686e-12 -4.522708e-14 -4.654888e-12)) ((3.831703e-18 1.090099e-13 -2.254348e-17) (2.319177e-14 8.070230e-10 1.451759e-14))
14428.682077  	((8.796975e-13 7.112684e-13 4.752337e-13) (1.592519e-12 -3.215100e-14 -4.614450e-12)) ((-1.037599e-17 1.086723e-13 -2.216346e-17) (2.290255e-14 8.052821e-10 1.398298e-14))
17079.751054  	((9.861976e-13 8.567949e-13 2.841544e-13) (1.581515e-12 -2.626711e-14 -4.575508e-12)) ((-7.988800e-19 1.084001e-13 -2.895330e-17) (2.254966e-14 8.038708e-10 1.371093e-14))
20053.685007  	((1.176461e-12 9.632466e-13 1.342443e-13) (1.526114e-12 -2.162983e-14 -4.535159e-12)) ((-1.949885e-18 1.081391e-13 -2.861197e-17) (2.194305e-14 8.027316e-10 1.355557e-14))
23282.39617   	((1.259270e-12 1.065102e-12 6.608829e-14) (1.488896e-12 -1.753572e-14 -4.495267e-12)) ((-1.927378e-18 1.079681e-13 -2.412030e-17) (2.113718e-14 8.018168e-10 1.348827e-14))
26511.156368  	((1.288163e-12 1.151805e-12 5.735848e-14) (1.468251e-12 -1.258233e-14 -4.463693e-12)) ((-3.442561e-18 1.078352e-13 -2.459766e-17) (2.060673e-14 8.010846e-10 1.317364e-14))
29739.955372  	((1.298854e-12 1.198647e-12 1.491532e-13) (1.467255e-12 -9.648581e-15 -4.437574e-12)) ((2.067375e-18 1.077259e-13 -1.894165e-17) (2.018977e-14 8.004994e-10 1.289404e-14))
32968.78532   	((1.378495e-12 1.299941e-12 1.520017e-13) (1.460266e-12 -8.641729e-15 -4.420266e-12)) ((-4.923104e-18 1.076369e-13 -2.421712e-17) (1.985844e-14 8.000333e-10 1.282920e-14))
36197.639778  	((1.480659e-12 1.374369e-12 1.465498e-13) (1.452503e-12 -6.999162e-15 -4.408671e-12)) ((-4.816849e-18 1.075615e-13 -2.387308e-17) (1.959582e-14 7.996626e-10 1.269570e-14))
39426.513776  	((1.589082e-12 1.447812e-12 1.533160e-13) (1.446986e-12 -5.443471e-15 -4.401442e-12)) ((-4.819987e-18 1.074987e-13 -2.376750e-17) (1.939164e-14 7.993679e-10 1.257402e-14))
42655.403282  	((1.693608e-12 1.523166e-12 1.734841e-13) (1.442755e-12 -3.869540e-15 -4.395889e-12)) ((-4.806422e-18 1.074418e-13 -2.367971e-17) (1.923097e-14 7.991339e-10 1.245644e-14))
45884.30512   	((1.796495e-12 1.540635e-12 2.103807e-13) (1.437350e-12 -1.805916e-15 -4.391604e-12)) ((-3.574392e-18 1.073963e-13 -1.777104e-17) (1.925222e-14 7.989481e-10 1.242320e-14))
49113.216763  	((1.878377e-12 1.627249e-12 2.763664e-13) (1.423768e-12 -1.629322e-15 -4.383437e-12)) ((3.943057e-18 1.073392e-13 -4.757507e-18) (1.900774e-14 7.988011e-10 1.198385e-14))
52342.136217  	((1.932126e-12 1.671254e-12 4.200293e-13) (1.392129e-12 -3.935687e-15 -4.372004e-12)) ((1.461137e-18 1.072938e-13 -1.025705e-17) (1.870661e-14 7.986852e-10 1.151568e-14))
55571.061906  	((1.996251e-12 1.756346e-12 3.452246e-13) (1.359625e-12 -1.288867e-15 -4.370415e-12)) ((-2.457221e-18 1.072806e-13 -1.539570e-17) (1.886249e-14 7.985935e-10 1.178313e-14))
58799.992555  	((2.001066e-12 1.818734e-12 4.742671e-13) (1.335876e-12 3.170513e-15 -4.362975e-12)) ((-2.971959e-18 1.072471e-13 -1.520407e-17) (1.886686e-14 7.985204e-10 1.194268e-14))
62028.927141  	((1.971952e-12 1.851978e-12 6.308324e-13) (1.329565e-12 5.722650e-15 -4.352244e-12)) ((-3.418699e-18 1.072192e-13 -1.696402e-17) (1.880140e-14 7.984624e-10 1.201116e-14))
65257.86487   	((1.997489e-12 1.866023e-12 4.197315e-13) (1.325711e-12 7.724041e-15 -4.356992e-12)) ((-4.932497e-18 1.072342e-13 -2.044195e-17) (1.871746e-14 7.984164e-10 1.206819e-14))
68486.805105  	((1.942585e-12 1.908412e-12 5.237930e-13) (1.313930e-12 7.534720e-15 -4.349486e-12)) ((-4.483574e-18 1.071987e-13 -1.783900e-17) (1.873567e-14 7.983795e-10 1.217622e-14))
71715.747344  	((1.852643e-12 1.962116e-12 6.730754e-13) (1.312157e-12 8.192558e-15 -4.337662e-12)) ((-6.971505e-18 1.071599e-13 -1.604517e-17) (1.870478e-14 7.983507e-10 1.224017e-14))
74944.691185  	((1.755771e-12 2.023432e-12 6.573497e-13) (1.339306e-12 8.276342e-15 -4.339859e-12)) ((-7.713723e-18 1.071011e-13 -1.594016e-17) (1.877292e-14 7.983289e-10 1.239694e-14))
