# Forces      
# CofR        : (0.000000e+00 0.000000e+00 0.000000e+00)
# Time        forces(pressure viscous)	moments(pressure viscous)
0             	((0.000000e+00 0.000000e+00 0.000000e+00) (-1.765031e-13 1.597895e-14 -2.545746e-03)) ((0.000000e+00 0.000000e+00 0.000000e+00) (-5.119466e-15 -9.809783e-10 -4.444424e-16))
0.012         	((-1.511811e-06 -1.468293e-06 -7.365978e-01) (2.864871e-10 -1.602538e-09 -2.912209e-03)) ((-1.337421e-10 -1.962799e-07 2.138203e-12) (1.653211e-11 -2.802317e-09 -2.363816e-13))
0.0264        	((-1.625825e-06 -6.442220e-06 9.021386e-02) (-7.500816e-09 -1.009025e-08 -2.934177e-03)) ((-9.812787e-10 2.066632e-08 5.453228e-11) (1.965993e-10 -4.112561e-09 -3.021577e-12))
0.04368       	((9.594755e-06 8.356354e-06 1.326834e-01) (-5.972837e-10 -9.204035e-09 -2.569154e-03)) ((1.804718e-09 2.819963e-08 -1.757444e-11) (1.977892e-10 -4.235391e-09 -8.426886e-12))
0.064416      	((-3.619860e-06 -2.821714e-06 7.403436e-04) (-1.602286e-08 -1.217931e-09 -2.263425e-03)) ((-4.051087e-10 -2.274705e-09 8.957542e-12) (-3.736015e-12 -5.117685e-09 -6.539056e-12))
0.0892992     	((-1.104888e-06 -2.736836e-07 6.208980e-04) (-3.073699e-08 1.362475e-09 -2.082787e-03)) ((-2.611972e-10 -1.332937e-09 -8.231215e-13) (-1.927476e-10 -5.582427e-09 -1.543482e-11))
0.119159      	((-4.175549e-07 -1.613395e-07 1.893784e-03) (-3.252065e-08 3.288288e-09 -1.926716e-03)) ((-1.692912e-11 -1.726871e-09 -6.601640e-12) (-3.133145e-10 -4.322688e-09 -9.774769e-12))
0.154991      	((-1.924803e-06 -5.301832e-07 3.297411e-04) (-1.682101e-08 -2.070064e-09 -1.773609e-03)) ((1.012349e-11 -1.742634e-09 1.882118e-13) (-3.067672e-10 -3.791194e-09 2.007717e-11))
0.197989      	((2.520141e-07 -5.609930e-07 -1.767964e-04) (2.338963e-08 -9.370476e-09 -1.632195e-03)) ((8.181331e-12 -2.077485e-09 8.437654e-13) (-2.133425e-10 -4.328318e-09 4.687972e-11))
0.249587      	((-4.815413e-07 -2.926093e-07 -3.762692e-04) (5.455274e-08 -1.109926e-08 -1.506668e-03)) ((1.374220e-11 -2.081192e-09 3.128719e-12) (-1.237262e-10 -4.914538e-09 4.836042e-11))
0.311504      	((1.250875e-07 -1.143312e-07 -5.030097e-04) (8.439996e-08 -6.876291e-09 -1.397068e-03)) ((2.174312e-12 -2.192555e-09 -2.115207e-12) (-6.842941e-11 -5.954178e-09 1.706057e-11))
0.385805      	((1.039396e-07 -5.796777e-08 -5.746643e-04) (1.163013e-07 -1.868401e-09 -1.300343e-03)) ((-6.850723e-12 -1.994848e-09 -3.810091e-12) (-7.260306e-11 -7.208226e-09 -1.055256e-11))
0.474966      	((2.189060e-07 -3.837381e-09 -6.119856e-04) (1.151613e-07 -3.843193e-09 -1.211744e-03)) ((-5.888322e-12 -1.769622e-09 -3.632752e-12) (-1.179104e-10 -7.804869e-09 -2.701696e-11))
0.581959      	((-8.309188e-09 -1.591708e-08 -6.276947e-04) (7.720758e-08 -7.283716e-09 -1.126438e-03)) ((-8.476275e-13 -1.566130e-09 -2.843803e-12) (-1.743770e-10 -7.567627e-09 -3.642198e-11))
0.710351      	((-1.425916e-07 -1.406466e-08 -6.353337e-04) (3.809973e-08 -7.507930e-09 -1.043149e-03)) ((-4.547326e-12 -1.418745e-09 -2.468331e-12) (-2.084833e-10 -7.185770e-09 -4.469837e-11))
0.864421      	((-1.861700e-07 1.448997e-08 -6.436362e-04) (1.891081e-08 -5.956049e-09 -9.635084e-04)) ((-7.012086e-12 -1.320955e-09 -2.651850e-12) (-2.065190e-10 -6.786736e-09 -4.841656e-11))
1.049306      	((-2.408945e-07 -7.396610e-08 -6.615450e-04) (2.468912e-08 -4.756744e-09 -8.891845e-04)) ((-8.272754e-12 -1.225435e-09 -3.380271e-12) (-1.935001e-10 -6.291848e-09 -4.217496e-11))
1.271167      	((-2.041097e-07 -9.471580e-08 -6.941009e-04) (3.712768e-08 -5.715667e-09 -8.212040e-04)) ((-8.092877e-12 -1.102266e-09 -3.682658e-12) (-1.871016e-10 -5.625852e-09 -2.956618e-11))
1.5374        	((-2.738256e-07 -2.345269e-07 -7.434816e-04) (4.187725e-08 -9.413601e-09 -7.601880e-04)) ((-3.608228e-12 -1.030523e-09 -3.461679e-12) (-1.831524e-10 -4.711161e-09 -9.985008e-12))
1.85688       	((-3.529948e-07 -2.356059e-07 -8.145615e-04) (2.886681e-08 -1.470413e-08 -7.066506e-04)) ((-2.879795e-12 -1.000444e-09 -2.992097e-12) (-2.063258e-10 -4.102112e-09 8.258715e-12))
2.239139      	((-2.712599e-07 -2.380562e-07 -9.103150e-04) (2.168093e-08 -1.909280e-08 -6.606945e-04)) ((-4.980824e-12 -9.624474e-10 -2.521442e-12) (-2.385030e-10 -3.925509e-09 2.627166e-11))
2.68366       	((-2.169703e-07 -1.557919e-07 -1.031845e-03) (2.357520e-08 -2.137508e-08 -6.226415e-04)) ((-4.825164e-12 -9.029822e-10 -2.826904e-12) (-2.307720e-10 -4.017520e-09 4.680976e-11))
3.190002      	((-1.021259e-07 -1.965656e-08 -1.176221e-03) (7.876374e-09 -2.229525e-08 -5.915625e-04)) ((-3.114628e-12 -8.405178e-10 -3.428370e-12) (-1.908007e-10 -5.124930e-09 6.291606e-11))
3.757638      	((-1.429609e-07 8.812497e-08 -1.341190e-03) (-1.953399e-08 -2.354300e-08 -5.663366e-04)) ((-3.516294e-12 -7.775901e-10 -3.099248e-12) (-2.773392e-10 -7.436292e-09 6.874845e-11))
4.363659      	((-1.072989e-07 2.636636e-07 -1.522719e-03) (-4.833440e-08 -2.464782e-08 -5.464668e-04)) ((-9.871881e-12 -7.017351e-10 -3.123336e-12) (-5.472543e-10 -1.096582e-08 7.135217e-11))
4.961538      	((-2.380477e-09 4.455992e-07 -1.700507e-03) (-5.164078e-08 -2.576582e-08 -5.317492e-04)) ((-9.052239e-12 -6.889673e-10 -4.081202e-12) (-1.011922e-09 -1.449280e-08 6.618349e-11))
5.551235      	((2.226041e-07 8.010247e-07 -1.864883e-03) (-3.363229e-08 -1.542730e-08 -5.206740e-04)) ((-3.885442e-12 -7.188431e-10 -4.697625e-12) (-1.271996e-09 -1.696577e-08 5.548032e-11))
6.134211      	((6.833436e-07 1.174884e-06 -2.006017e-03) (-1.020559e-08 2.194216e-09 -5.122866e-04)) ((1.027502e-11 -7.426575e-10 -4.940611e-12) (-1.227308e-09 -1.855655e-08 5.750501e-11))
6.713276      	((1.039305e-06 1.584343e-06 -2.112222e-03) (3.779947e-08 3.098282e-08 -5.054032e-04)) ((1.810352e-11 -7.807410e-10 -4.178117e-12) (-7.794947e-10 -1.967842e-08 5.736125e-11))
7.291076      	((1.559574e-06 2.094982e-06 -2.183528e-03) (6.654431e-08 6.813413e-08 -4.993451e-04)) ((2.452490e-11 -8.239818e-10 -3.794421e-12) (-1.176265e-10 -1.915332e-08 6.944422e-11))
7.868823      	((1.667958e-06 2.422123e-06 -2.216952e-03) (7.192587e-08 9.593633e-08 -4.935003e-04)) ((1.994466e-11 -8.449313e-10 -4.272089e-12) (8.414355e-11 -1.642660e-08 7.025930e-11))
8.446188      	((1.645579e-06 2.638967e-06 -2.209721e-03) (7.579415e-08 1.136113e-07 -4.878045e-04)) ((1.302041e-11 -8.633998e-10 -5.908200e-12) (-8.364702e-11 -1.345297e-08 7.053975e-11))
9.022361      	((1.671250e-06 2.954422e-06 -2.177904e-03) (7.604996e-08 1.256455e-07 -4.822667e-04)) ((2.017196e-11 -8.745157e-10 -5.897964e-12) (-5.752239e-10 -1.076330e-08 6.792419e-11))
9.597076      	((1.831309e-06 3.521107e-06 -2.139934e-03) (8.304717e-08 1.477130e-07 -4.772258e-04)) ((3.570850e-11 -9.183012e-10 -2.543358e-12) (-1.026718e-09 -8.797711e-09 3.641485e-11))
10.170717     	((1.753359e-06 3.905006e-06 -2.098643e-03) (1.013389e-07 1.830969e-07 -4.728641e-04)) ((4.539622e-11 -9.422498e-10 1.132457e-12) (-1.004292e-09 -8.423743e-09 7.117389e-12))
10.743636     	((1.995445e-06 4.290606e-06 -2.067691e-03) (1.299576e-07 2.174827e-07 -4.690199e-04)) ((5.154842e-11 -9.204480e-10 4.875022e-12) (-1.014579e-09 -8.388357e-09 4.609770e-11))
11.315943     	((2.236287e-06 4.892912e-06 -2.052816e-03) (1.601181e-07 2.468326e-07 -4.656920e-04)) ((6.477624e-11 -8.989472e-10 5.494666e-12) (-1.240845e-09 -8.287341e-09 6.097173e-11))
11.887692     	((2.561006e-06 5.303578e-06 -2.049238e-03) (1.829905e-07 2.746557e-07 -4.627984e-04)) ((6.214198e-11 -8.639203e-10 4.995007e-12) (-1.525974e-09 -7.880706e-09 3.852447e-11))
12.4589       	((3.191314e-06 5.564357e-06 -2.049458e-03) (2.017054e-07 2.965712e-07 -4.602355e-04)) ((5.733060e-11 -8.165325e-10 6.131563e-12) (-2.055641e-09 -6.658410e-09 2.632012e-11))
13.029581     	((3.884525e-06 5.864554e-06 -2.043739e-03) (2.211935e-07 3.117044e-07 -4.578350e-04)) ((5.265440e-11 -7.705604e-10 5.429582e-12) (-2.808327e-09 -4.984729e-09 7.028504e-12))
13.599779     	((4.796609e-06 6.738335e-06 -2.029711e-03) (2.389719e-07 3.321645e-07 -4.554046e-04)) ((5.263016e-11 -7.398736e-10 3.522995e-12) (-3.700205e-09 -3.015516e-09 3.148254e-11))
14.1696       	((5.788312e-06 7.430140e-06 -2.009867e-03) (2.578330e-07 3.602120e-07 -4.528481e-04)) ((4.489917e-11 -7.191836e-10 3.338732e-12) (-4.643471e-09 -9.179974e-10 4.744399e-11))
14.739172     	((6.755469e-06 8.222422e-06 -1.990299e-03) (2.839476e-07 3.924941e-07 -4.502444e-04)) ((4.088663e-11 -7.042462e-10 2.158085e-12) (-5.589716e-09 1.269325e-09 3.470901e-11))
15.3086       	((7.795056e-06 9.021230e-06 -1.972050e-03) (3.171382e-07 4.299030e-07 -4.476947e-04)) ((3.763699e-11 -6.935592e-10 2.653663e-12) (-6.572945e-09 3.556311e-09 2.132500e-11))
15.877861     	((9.032846e-06 1.026506e-05 -1.957915e-03) (3.552176e-07 4.737990e-07 -4.452653e-04)) ((4.207678e-11 -6.909302e-10 2.556414e-12) (-7.830817e-09 5.930285e-09 5.701857e-13))
16.446924     	((1.032974e-05 1.118886e-05 -1.946376e-03) (3.993735e-07 5.173171e-07 -4.429624e-04)) ((4.103643e-11 -6.879945e-10 2.310880e-12) (-9.379904e-09 8.362421e-09 -1.187792e-11))
17.015833     	((1.157602e-05 1.246729e-05 -1.938462e-03) (4.518093e-07 5.633211e-07 -4.407916e-04)) ((4.778941e-11 -6.812206e-10 2.449176e-12) (-1.109553e-08 1.066459e-08 -1.275728e-11))
17.584588     	((1.264934e-05 1.328264e-05 -1.931201e-03) (5.136010e-07 6.111828e-07 -4.387380e-04)) ((4.491812e-11 -6.708844e-10 3.532201e-12) (-1.278605e-08 1.259980e-08 6.252305e-12))
18.153087     	((1.385743e-05 1.453222e-05 -1.925806e-03) (5.836098e-07 6.644415e-07 -4.368103e-04)) ((4.936570e-11 -6.605855e-10 4.242817e-12) (-1.441202e-08 1.429387e-08 2.854483e-11))
18.721424     	((1.505181e-05 1.558257e-05 -1.919915e-03) (6.595239e-07 7.245289e-07 -4.350201e-04)) ((5.170253e-11 -6.472885e-10 4.142289e-12) (-1.591122e-08 1.577286e-08 5.392919e-11))
19.289678     	((1.654168e-05 1.703252e-05 -1.914483e-03) (7.442216e-07 7.886929e-07 -4.333453e-04)) ((5.677552e-11 -6.357511e-10 4.772746e-12) (-1.742509e-08 1.692035e-08 6.323730e-11))
19.857869     	((1.810507e-05 1.840534e-05 -1.908352e-03) (8.332967e-07 8.548592e-07 -4.317708e-04)) ((6.379157e-11 -6.296042e-10 4.766738e-12) (-1.895676e-08 1.790530e-08 5.322940e-11))
20.426026     	((1.960422e-05 1.967358e-05 -1.901670e-03) (9.212144e-07 9.227071e-07 -4.302973e-04)) ((7.007286e-11 -6.245434e-10 3.667933e-12) (-2.045879e-08 1.892863e-08 3.557745e-11))
20.994163     	((2.148455e-05 2.133223e-05 -1.895598e-03) (1.018761e-06 1.002406e-06 -4.289400e-04)) ((8.107566e-11 -6.252708e-10 2.402665e-12) (-2.178500e-08 1.984656e-08 1.281562e-11))
21.562283     	((2.342679e-05 2.305353e-05 -1.886236e-03) (1.130240e-06 1.094909e-06 -4.276276e-04)) ((9.548395e-11 -6.273634e-10 1.909380e-12) (-2.291404e-08 2.052696e-08 3.853844e-12))
22.130387     	((2.573240e-05 2.498869e-05 -1.877566e-03) (1.253706e-06 1.196832e-06 -4.263220e-04)) ((1.034162e-10 -6.226947e-10 2.344481e-12) (-2.408887e-08 2.118827e-08 1.146649e-11))
22.698478     	((2.773329e-05 2.669228e-05 -1.870846e-03) (1.384582e-06 1.304015e-06 -4.250583e-04)) ((1.070538e-10 -6.161876e-10 3.273504e-12) (-2.535318e-08 2.193835e-08 1.737539e-11))
23.26655      	((2.997383e-05 2.865562e-05 -1.863727e-03) (1.523292e-06 1.418960e-06 -4.238290e-04)) ((1.158724e-10 -6.145636e-10 4.808140e-12) (-2.650327e-08 2.262025e-08 -5.589512e-13))
23.834585     	((3.245626e-05 3.091853e-05 -1.856639e-03) (1.673218e-06 1.548797e-06 -4.226122e-04)) ((1.265621e-10 -6.094484e-10 7.583100e-12) (-2.753393e-08 2.329533e-08 -3.163032e-11))
24.402599     	((3.533898e-05 3.337080e-05 -1.850732e-03) (1.838467e-06 1.691125e-06 -4.214213e-04)) ((1.316904e-10 -6.012215e-10 8.972097e-12) (-2.854169e-08 2.411520e-08 -4.851912e-11))
24.970617     	((3.816794e-05 3.595627e-05 -1.846017e-03) (2.012282e-06 1.841737e-06 -4.202811e-04)) ((1.362494e-10 -5.919432e-10 9.655159e-12) (-2.964193e-08 2.519568e-08 -4.245885e-11))
25.538654     	((4.116855e-05 3.844418e-05 -1.841578e-03) (2.190211e-06 1.996059e-06 -4.192019e-04)) ((1.395873e-10 -5.851856e-10 9.775205e-12) (-3.099958e-08 2.660186e-08 -1.115694e-11))
26.10672      	((4.470737e-05 4.135258e-05 -1.836906e-03) (2.379014e-06 2.158246e-06 -4.181781e-04)) ((1.463148e-10 -5.845219e-10 9.487209e-12) (-3.256771e-08 2.836301e-08 3.615992e-11))
26.674822     	((4.889283e-05 4.460133e-05 -1.831474e-03) (2.588398e-06 2.334824e-06 -4.171933e-04)) ((1.607839e-10 -5.942580e-10 8.225296e-12) (-3.426532e-08 3.044766e-08 7.897523e-11))
27.242969     	((5.360283e-05 4.824983e-05 -1.825448e-03) (2.826109e-06 2.531683e-06 -4.162270e-04)) ((1.778209e-10 -6.085161e-10 6.942459e-12) (-3.602618e-08 3.271924e-08 1.118484e-10))
27.811129     	((5.873448e-05 5.231299e-05 -1.819693e-03) (3.092690e-06 2.754712e-06 -4.152753e-04)) ((1.987154e-10 -6.256437e-10 5.528272e-12) (-3.776327e-08 3.515793e-08 1.409027e-10))
28.379159     	((6.443075e-05 5.684771e-05 -1.813699e-03) (3.387798e-06 3.004692e-06 -4.143308e-04)) ((2.207971e-10 -6.440584e-10 4.867781e-12) (-3.957796e-08 3.791263e-08 1.842244e-10))
28.947031     	((7.077945e-05 6.184379e-05 -1.808202e-03) (3.710310e-06 3.276787e-06 -4.134015e-04)) ((2.463608e-10 -6.649817e-10 3.928312e-12) (-4.183510e-08 4.128032e-08 2.495995e-10))
29.514778     	((7.772971e-05 6.733067e-05 -1.802345e-03) (4.060167e-06 3.568488e-06 -4.124927e-04)) ((2.751455e-10 -6.865931e-10 1.444556e-12) (-4.478626e-08 4.546971e-08 3.212801e-10))
30.08241      	((8.509383e-05 7.344570e-05 -1.796755e-03) (4.440078e-06 3.886270e-06 -4.116071e-04)) ((3.070061e-10 -7.060466e-10 -9.125294e-13) (-4.831750e-08 5.042948e-08 3.592895e-10))
30.64996      	((9.294259e-05 7.984231e-05 -1.791956e-03) (4.855954e-06 4.234130e-06 -4.107540e-04)) ((3.391907e-10 -7.234617e-10 -3.166955e-12) (-5.225841e-08 5.587694e-08 3.873226e-10))
31.217479     	((1.012126e-04 8.672162e-05 -1.788247e-03) (5.307961e-06 4.611768e-06 -4.099411e-04)) ((3.695606e-10 -7.418353e-10 -5.353724e-12) (-5.663946e-08 6.173172e-08 4.228110e-10))
31.785009     	((1.099210e-04 9.385894e-05 -1.785041e-03) (5.793461e-06 5.017221e-06 -4.091667e-04)) ((4.023709e-10 -7.636590e-10 -6.725356e-12) (-6.148999e-08 6.801045e-08 4.414341e-10))
32.352526     	((1.192002e-04 1.014932e-04 -1.782102e-03) (6.312587e-06 5.449335e-06 -4.084243e-04)) ((4.367165e-10 -7.927263e-10 -8.172799e-12) (-6.678970e-08 7.475639e-08 4.927295e-10))
32.920007     	((1.291852e-04 1.097460e-04 -1.779224e-03) (6.869742e-06 5.912844e-06 -4.077102e-04)) ((4.735219e-10 -8.254482e-10 -9.552881e-12) (-7.249007e-08 8.196169e-08 5.794126e-10))
33.487451     	((1.400247e-04 1.185902e-04 -1.776281e-03) (7.472905e-06 6.413083e-06 -4.070210e-04)) ((5.127103e-10 -8.635772e-10 -1.141216e-11) (-7.849179e-08 8.945919e-08 6.712981e-10))
34.054861     	((1.516133e-04 1.282250e-04 -1.773333e-03) (8.128500e-06 6.958229e-06 -4.063545e-04)) ((5.568281e-10 -9.067557e-10 -1.354915e-11) (-8.463349e-08 9.704637e-08 7.364231e-10))
34.62224      	((1.640150e-04 1.387722e-04 -1.770760e-03) (8.841373e-06 7.555400e-06 -4.057133e-04)) ((6.051512e-10 -9.533708e-10 -1.540257e-11) (-9.085749e-08 1.046829e-07 7.679306e-10))
35.189594     	((1.772184e-04 1.501889e-04 -1.768508e-03) (9.612595e-06 8.209811e-06 -4.050978e-04)) ((6.569520e-10 -1.003893e-09 -1.711571e-11) (-9.722383e-08 1.124879e-07 7.778417e-10))
35.756926     	((1.916996e-04 1.626173e-04 -1.766314e-03) (1.045129e-05 8.925202e-06 -4.045039e-04)) ((7.167989e-10 -1.064791e-09 -2.013812e-11) (-1.039052e-07 1.205766e-07 7.621065e-10))
36.324245     	((2.072570e-04 1.759970e-04 -1.764899e-03) (1.136168e-05 9.701216e-06 -4.039418e-04)) ((7.845167e-10 -1.133940e-09 -2.505626e-11) (-1.110540e-07 1.290553e-07 7.544028e-10))
36.891552     	((2.241573e-04 1.905617e-04 -1.764034e-03) (1.235145e-05 1.054376e-05 -4.034279e-04)) ((8.626657e-10 -1.214836e-09 -3.026398e-11) (-1.185648e-07 1.378530e-07 7.818457e-10))
37.458839     	((2.424691e-04 2.064824e-04 -1.763748e-03) (1.342735e-05 1.146338e-05 -4.029705e-04)) ((9.506425e-10 -1.306479e-09 -3.458453e-11) (-1.262636e-07 1.467818e-07 7.065744e-10))
38.026096     	((2.624476e-04 2.238167e-04 -1.764072e-03) (1.459907e-05 1.247030e-05 -4.025733e-04)) ((1.048307e-09 -1.414264e-09 -3.558025e-11) (-1.341454e-07 1.557431e-07 5.182003e-10))
38.593308     	((2.844412e-04 2.428808e-04 -1.764700e-03) (1.588738e-05 1.357885e-05 -4.022325e-04)) ((1.161412e-09 -1.541287e-09 -3.600551e-11) (-1.421114e-07 1.645754e-07 1.732878e-10))
39.16046      	((3.083051e-04 2.636506e-04 -1.766069e-03) (1.730746e-05 1.480122e-05 -4.019506e-04)) ((1.290609e-09 -1.683429e-09 -4.041933e-11) (-1.499618e-07 1.732543e-07 -2.604017e-10))
39.727516     	((3.343694e-04 2.859879e-04 -1.768028e-03) (1.887031e-05 1.613833e-05 -4.017237e-04)) ((1.428658e-09 -1.836622e-09 -4.584419e-11) (-1.580939e-07 1.821811e-07 -5.375427e-10))
40.29433      	((3.626381e-04 3.104990e-04 -1.770659e-03) (2.057942e-05 1.759639e-05 -4.015386e-04)) ((1.576469e-09 -1.994022e-09 -5.267522e-11) (-1.671420e-07 1.921898e-07 -6.086310e-10))
40.860904     	((3.936800e-04 3.370625e-04 -1.774282e-03) (2.244027e-05 1.918412e-05 -4.013978e-04)) ((1.726381e-09 -2.161322e-09 -6.289985e-11) (-1.774864e-07 2.037571e-07 -6.538815e-10))
41.427235     	((4.274962e-04 3.659790e-04 -1.779578e-03) (2.446451e-05 2.091095e-05 -4.013233e-04)) ((1.881790e-09 -2.334758e-09 -7.450273e-11) (-1.892829e-07 2.170372e-07 -6.571248e-10))
41.993308     	((4.646194e-04 3.973063e-04 -1.786145e-03) (2.666964e-05 2.278641e-05 -4.013269e-04)) ((2.043581e-09 -2.523422e-09 -8.618888e-11) (-2.027459e-07 2.324260e-07 -5.350130e-10))
42.559112     	((5.047605e-04 4.311093e-04 -1.794591e-03) (2.907275e-05 2.481876e-05 -4.014289e-04)) ((2.211929e-09 -2.720196e-09 -1.020824e-10) (-2.178280e-07 2.496731e-07 -3.656676e-10))
43.124636     	((5.481119e-04 4.673517e-04 -1.805260e-03) (3.167590e-05 2.701271e-05 -4.016560e-04)) ((2.381760e-09 -2.925371e-09 -1.204479e-10) (-2.344595e-07 2.690357e-07 -2.477729e-10))
43.689864     	((5.951351e-04 5.064619e-04 -1.818685e-03) (3.448613e-05 2.936601e-05 -4.020264e-04)) ((2.551364e-09 -3.127976e-09 -1.383092e-10) (-2.531477e-07 2.911217e-07 -1.198135e-10))
44.254797     	((6.457857e-04 5.487621e-04 -1.834938e-03) (3.752684e-05 3.190466e-05 -4.025867e-04)) ((2.707097e-09 -3.313892e-09 -1.563511e-10) (-2.733044e-07 3.151415e-07 -2.221023e-11))
44.819511     	((6.995345e-04 5.938453e-04 -1.854666e-03) (4.081721e-05 3.465985e-05 -4.033888e-04)) ((2.844826e-09 -3.470997e-09 -1.756898e-10) (-2.939419e-07 3.399679e-07 -6.967349e-11))
45.383936     	((7.562415e-04 6.410607e-04 -1.877405e-03) (4.435497e-05 3.762211e-05 -4.044293e-04)) ((2.968674e-09 -3.618923e-09 -1.932318e-10) (-3.160223e-07 3.664993e-07 -2.056015e-10))
45.947793     	((8.163143e-04 6.909626e-04 -1.903911e-03) (4.813925e-05 4.077319e-05 -4.056696e-04)) ((3.081266e-09 -3.763780e-09 -2.100646e-10) (-3.409306e-07 3.957021e-07 -4.556706e-10))
46.510982     	((8.786953e-04 7.433862e-04 -1.934931e-03) (5.215532e-05 4.412352e-05 -4.071468e-04)) ((3.171584e-09 -3.885358e-09 -2.283024e-10) (-3.681967e-07 4.276765e-07 -6.265827e-10))
47.073492     	((9.443862e-04 7.984891e-04 -1.970406e-03) (5.641486e-05 4.769453e-05 -4.089230e-04)) ((3.232227e-09 -3.979232e-09 -2.527163e-10) (-3.966721e-07 4.615034e-07 -6.782309e-10))
47.635283     	((1.012706e-03 8.557830e-04 -2.010692e-03) (6.093018e-05 5.149682e-05 -4.110372e-04)) ((3.258503e-09 -4.030148e-09 -2.733746e-10) (-4.251599e-07 4.959319e-07 -7.328256e-10))
48.196328     	((1.083387e-03 9.155851e-04 -2.056971e-03) (6.573462e-05 5.554425e-05 -4.135388e-04)) ((3.262305e-09 -4.044705e-09 -2.909327e-10) (-4.519379e-07 5.278167e-07 -8.278465e-10))
48.75663      	((1.154698e-03 9.763173e-04 -2.109322e-03) (7.083899e-05 5.984996e-05 -4.164949e-04)) ((3.217269e-09 -3.995232e-09 -2.983024e-10) (-4.746994e-07 5.538743e-07 -1.125604e-09))
49.316245     	((1.226890e-03 1.037585e-03 -2.167217e-03) (7.618861e-05 6.437309e-05 -4.198864e-04)) ((3.100097e-09 -3.892873e-09 -3.050887e-10) (-4.952223e-07 5.766874e-07 -1.894792e-09))
49.875037     	((1.298333e-03 1.098829e-03 -2.232323e-03) (8.168833e-05 6.904002e-05 -4.236936e-04)) ((2.901818e-09 -3.701734e-09 -3.190109e-10) (-5.167238e-07 6.009548e-07 -2.869671e-09))
50.432917     	((1.369038e-03 1.159693e-03 -2.303052e-03) (8.726704e-05 7.379545e-05 -4.279968e-04)) ((2.640986e-09 -3.444780e-09 -3.314317e-10) (-5.388376e-07 6.269356e-07 -3.650860e-09))
50.989948     	((1.436258e-03 1.218328e-03 -2.379062e-03) (9.290179e-05 7.862212e-05 -4.328392e-04)) ((2.340376e-09 -3.117336e-09 -3.361221e-10) (-5.592261e-07 6.510122e-07 -4.546366e-09))
51.546162     	((1.498832e-03 1.272003e-03 -2.458661e-03) (9.852202e-05 8.343933e-05 -4.381753e-04)) ((1.964886e-09 -2.714090e-09 -3.340473e-10) (-5.786023e-07 6.732354e-07 -5.645217e-09))
52.101554     	((1.553999e-03 1.319652e-03 -2.540062e-03) (1.040478e-04 8.816105e-05 -4.439274e-04)) ((1.512651e-09 -2.225719e-09 -3.249022e-10) (-5.950930e-07 6.913799e-07 -6.691889e-09))
52.656142     	((1.598984e-03 1.358853e-03 -2.621192e-03) (1.093769e-04 9.272003e-05 -4.500407e-04)) ((9.805005e-10 -1.640512e-09 -3.051751e-10) (-6.049831e-07 7.019067e-07 -7.607507e-09))
53.2099       	((1.630669e-03 1.385588e-03 -2.698967e-03) (1.143743e-04 9.700472e-05 -4.563957e-04)) ((3.676382e-10 -9.929187e-10 -2.677008e-10) (-6.064973e-07 7.038259e-07 -8.463217e-09))
53.762795     	((1.645158e-03 1.398627e-03 -2.769946e-03) (1.188631e-04 1.008636e-04 -4.628060e-04)) ((-2.860498e-10 -2.821518e-10 -2.190196e-10) (-5.989930e-07 6.955476e-07 -9.360609e-09))
54.314816     	((1.640184e-03 1.394657e-03 -2.828957e-03) (1.226661e-04 1.041268e-04 -4.690966e-04)) ((-9.528684e-10 4.519644e-10 -1.503921e-10) (-5.803077e-07 6.738065e-07 -1.012256e-08))
54.866049     	((1.612766e-03 1.371862e-03 -2.873682e-03) (1.255882e-04 1.066124e-04 -4.751535e-04)) ((-1.633154e-09 1.207730e-09 -6.408795e-11) (-5.481360e-07 6.353755e-07 -1.083441e-08))
55.41666      	((1.559784e-03 1.327070e-03 -2.898584e-03) (1.273794e-04 1.081300e-04 -4.807016e-04)) ((-2.328511e-09 1.985914e-09 2.974527e-11) (-5.019751e-07 5.809203e-07 -1.208974e-08))
55.96687      	((1.476457e-03 1.256845e-03 -2.898177e-03) (1.277141e-04 1.083951e-04 -4.853842e-04)) ((-3.065300e-09 2.828555e-09 1.211778e-10) (-4.451101e-07 5.131329e-07 -1.402760e-08))
56.516855     	((1.358618e-03 1.156407e-03 -2.865646e-03) (1.261966e-04 1.070263e-04 -4.887905e-04)) ((-3.876996e-09 3.713762e-09 2.121178e-10) (-3.827431e-07 4.364887e-07 -1.586445e-08))
57.06677      	((1.201164e-03 1.022888e-03 -2.802504e-03) (1.223205e-04 1.036163e-04 -4.905886e-04)) ((-4.684571e-09 4.630093e-09 2.568540e-10) (-3.202878e-07 3.579211e-07 -1.812029e-08))
