# Forces      
# CofR        : (0.000000e+00 0.000000e+00 0.000000e+00)
# Time        forces(pressure viscous)	moments(pressure viscous)
0             	((0.000000e+00 0.000000e+00 0.000000e+00) (-2.230275e-13 2.015027e-14 -3.217059e-03)) ((0.000000e+00 0.000000e+00 0.000000e+00) (-6.521991e-15 -1.239764e-09 -5.615925e-16))
0.012         	((-2.003689e-06 -1.972067e-06 -9.281952e-01) (-7.160003e-10 -3.416151e-09 -3.682377e-03)) ((-1.262976e-10 -2.477285e-07 3.336360e-12) (1.076564e-11 -3.598281e-09 -2.271990e-13))
0.0264        	((1.717544e-06 -6.397406e-06 1.251268e-01) (1.164857e-09 -1.018426e-08 -3.701415e-03)) ((-1.664255e-09 2.889079e-08 1.088638e-10) (2.328573e-10 -5.178976e-09 -1.009122e-11))
0.04368       	((8.467276e-06 9.751665e-06 1.604584e-01) (2.096557e-08 -6.259339e-09 -3.229397e-03)) ((2.270676e-09 3.270957e-08 1.859982e-12) (1.676710e-10 -5.273823e-09 -2.395374e-11))
0.064416      	((-3.471392e-06 -3.941963e-06 6.314359e-04) (-1.162419e-08 -1.212073e-08 -2.844704e-03)) ((-4.099367e-10 -3.015570e-09 -4.329318e-13) (-2.018660e-11 -5.478657e-09 -3.277641e-11))
0.0892992     	((-4.977069e-06 -1.342727e-06 1.032008e-03) (-5.812238e-08 -2.191919e-08 -2.617347e-03)) ((-3.161374e-10 -2.850903e-09 3.394662e-12) (-3.394903e-10 -5.937560e-09 -3.355795e-11))
0.119159      	((-1.909107e-06 -6.344275e-07 2.006243e-03) (-1.875890e-08 -2.476557e-08 -2.422529e-03)) ((-2.446289e-11 -2.650241e-09 7.470069e-12) (-5.758198e-10 -5.231437e-09 -9.899559e-12))
0.154991      	((-1.804202e-06 -1.343918e-06 2.112883e-04) (6.816208e-08 -2.485582e-08 -2.235350e-03)) ((4.860346e-11 -2.982284e-09 -4.571879e-12) (-4.427399e-10 -5.504291e-09 4.321351e-11))
0.197989      	((4.419978e-07 -8.523860e-07 -3.418922e-04) (1.213452e-07 -1.993871e-08 -2.065282e-03)) ((-5.122639e-12 -3.249918e-09 8.710052e-12) (-2.103584e-10 -7.056876e-09 6.225083e-11))
0.249587      	((-7.160455e-07 -3.382243e-07 -5.796759e-04) (1.337275e-07 -1.205965e-08 -1.916494e-03)) ((2.908638e-11 -3.290742e-09 -4.619507e-12) (-1.106168e-10 -8.125411e-09 2.172448e-11))
0.311504      	((2.791445e-07 -2.154825e-07 -7.360618e-04) (1.697163e-07 -6.071929e-09 -1.787195e-03)) ((-1.134582e-11 -3.345913e-09 -1.053645e-12) (-1.255927e-10 -9.509141e-09 -4.024791e-12))
0.385805      	((1.434581e-07 -6.205304e-08 -8.249158e-04) (1.897221e-07 -8.524258e-09 -1.672035e-03)) ((-1.974957e-12 -2.931966e-09 -3.555533e-12) (-2.063442e-10 -1.121215e-08 -1.384224e-11))
0.474966      	((1.687280e-07 -3.958289e-08 -8.718909e-04) (1.466277e-07 -1.239477e-08 -1.564112e-03)) ((-3.677492e-12 -2.633710e-09 -3.162752e-12) (-2.716457e-10 -1.244745e-08 -3.061738e-11))
0.581959      	((-1.881676e-07 -9.819727e-09 -9.000648e-04) (9.384937e-08 -1.214870e-08 -1.458781e-03)) ((-5.616141e-12 -2.388803e-09 -3.975020e-12) (-3.017016e-10 -1.305931e-08 -4.200019e-11))
0.710351      	((-1.937512e-07 -1.729842e-09 -9.267395e-04) (7.210796e-08 -8.753267e-09 -1.356439e-03)) ((-9.874111e-12 -2.205279e-09 -4.616528e-12) (-2.801274e-10 -1.302381e-08 -5.346887e-11))
0.864421      	((-2.840913e-07 -5.844798e-08 -9.646292e-04) (7.460480e-08 -6.102263e-09 -1.259522e-03)) ((-1.371223e-11 -2.019001e-09 -5.712305e-12) (-2.162845e-10 -1.219705e-08 -5.479094e-11))
1.049306      	((-3.317771e-07 -1.295998e-07 -1.025289e-03) (8.489648e-08 -7.112792e-09 -1.169829e-03)) ((-1.419539e-11 -1.855496e-09 -6.231561e-12) (-1.373861e-10 -1.065482e-08 -4.264526e-11))
1.271167      	((-3.272687e-07 -2.994746e-07 -1.112744e-03) (1.027920e-07 -1.150864e-08 -1.088407e-03)) ((-7.715890e-12 -1.715065e-09 -5.912579e-12) (-5.187398e-11 -8.851884e-09 -2.217548e-11))
1.5374        	((-3.985262e-07 -3.036125e-07 -1.233723e-03) (9.333638e-08 -1.780220e-08 -1.016003e-03)) ((-5.710039e-12 -1.620305e-09 -5.473469e-12) (-7.238543e-15 -7.716249e-09 -2.653822e-13))
1.853444      	((-4.302760e-07 -2.901099e-07 -1.394388e-03) (7.112288e-08 -2.313711e-08 -9.535285e-04)) ((-7.094292e-12 -1.539957e-09 -4.010152e-12) (3.144341e-11 -7.425899e-09 2.418771e-11))
2.21888       	((-3.229321e-07 -2.190163e-07 -1.595109e-03) (6.126114e-08 -2.679506e-08 -9.014810e-04)) ((-5.928705e-12 -1.458125e-09 -4.026705e-12) (7.508080e-11 -8.011242e-09 5.673335e-11))
2.633319      	((-1.494956e-07 5.621827e-08 -1.833631e-03) (3.859654e-08 -2.820757e-08 -8.588097e-04)) ((-3.085756e-12 -1.362324e-09 -4.944143e-12) (1.359105e-10 -9.844347e-09 8.265793e-11))
3.096313      	((-1.707090e-08 3.198021e-07 -2.106901e-03) (1.267450e-09 -2.849685e-08 -8.240176e-04)) ((-3.727532e-12 -1.243168e-09 -6.187103e-12) (1.861272e-11 -1.289674e-08 9.498235e-11))
3.576458      	((-1.129859e-08 6.275610e-07 -2.397965e-03) (-4.434891e-08 -2.804753e-08 -7.970738e-04)) ((-1.365847e-11 -1.153562e-09 -5.128268e-12) (-4.029967e-10 -1.709942e-08 1.036220e-10))
4.050362      	((2.818163e-07 9.811358e-07 -2.678942e-03) (-5.894542e-08 -2.864531e-08 -7.763328e-04)) ((-1.765078e-11 -1.180941e-09 -7.544606e-12) (-1.123558e-09 -2.156556e-08 9.294663e-11))
4.517993      	((7.981953e-07 1.432303e-06 -2.937892e-03) (-1.550130e-08 -2.025096e-08 -7.599917e-04)) ((-6.135754e-12 -1.283972e-09 -8.602181e-12) (-1.711037e-09 -2.486954e-08 8.164458e-11))
4.980747      	((1.490870e-06 2.137369e-06 -3.154319e-03) (2.907606e-08 8.077331e-09 -7.472780e-04)) ((1.845771e-11 -1.419793e-09 -8.833087e-12) (-1.480542e-09 -2.621686e-08 8.656705e-11))
5.440958      	((1.990839e-06 2.860795e-06 -3.309326e-03) (8.555798e-08 5.785575e-08 -7.370484e-04)) ((3.364822e-11 -1.503036e-09 -7.036493e-12) (-5.625239e-10 -2.686174e-08 7.540797e-11))
5.900478      	((2.617726e-06 3.693902e-06 -3.405031e-03) (1.211323e-07 1.088101e-07 -7.278866e-04)) ((4.610640e-11 -1.588342e-09 -8.119793e-12) (2.456919e-10 -2.561886e-08 7.018310e-11))
6.359767      	((2.795717e-06 4.254722e-06 -3.439197e-03) (1.175830e-07 1.418445e-07 -7.190861e-04)) ((3.079223e-11 -1.618584e-09 -7.824705e-12) (3.079840e-10 -2.266059e-08 8.458325e-11))
6.818186      	((2.392471e-06 4.283403e-06 -3.411990e-03) (1.055466e-07 1.595803e-07 -7.104891e-04)) ((1.326206e-11 -1.595753e-09 -7.678228e-12) (-2.565529e-10 -1.887350e-08 9.315306e-11))
7.274986      	((2.397299e-06 4.750794e-06 -3.350878e-03) (9.902561e-08 1.782190e-07 -7.022207e-04)) ((2.348987e-11 -1.598575e-09 -5.509026e-12) (-8.659622e-10 -1.543793e-08 7.126075e-11))
7.729867      	((2.784033e-06 5.832854e-06 -3.287810e-03) (1.171457e-07 2.180171e-07 -6.948801e-04)) ((5.593827e-11 -1.689250e-09 4.693516e-13) (-1.068607e-09 -1.239120e-08 7.489544e-11))
8.183004      	((2.858517e-06 6.512015e-06 -3.228770e-03) (1.589286e-07 2.753533e-07 -6.887201e-04)) ((6.922057e-11 -1.709112e-09 5.377760e-12) (-8.123936e-10 -1.083543e-08 5.678452e-11))
8.634774      	((2.917456e-06 7.075568e-06 -3.193676e-03) (1.940359e-07 3.299891e-07 -6.836747e-04)) ((9.241608e-11 -1.641986e-09 1.352672e-11) (-4.864977e-10 -1.018699e-08 2.592700e-11))
9.085399      	((3.181676e-06 7.827693e-06 -3.182105e-03) (2.202252e-07 3.725605e-07 -6.794172e-04)) ((1.087788e-10 -1.565883e-09 1.650926e-11) (-5.346301e-10 -1.016416e-08 2.890111e-11))
9.534947      	((3.979990e-06 8.891034e-06 -3.180551e-03) (2.429155e-07 4.090940e-07 -6.755150e-04)) ((1.127592e-10 -1.480886e-09 1.495700e-11) (-1.176579e-09 -9.760017e-09 1.581245e-11))
9.983504      	((4.899451e-06 9.312438e-06 -3.176778e-03) (2.714760e-07 4.399788e-07 -6.718373e-04)) ((9.306962e-11 -1.372777e-09 1.532424e-11) (-2.066679e-09 -8.272862e-09 -3.496981e-11))
10.431182     	((5.907495e-06 1.008264e-05 -3.166826e-03) (3.000293e-07 4.645261e-07 -6.683630e-04)) ((8.211760e-11 -1.299213e-09 1.143171e-11) (-3.289101e-09 -6.024287e-09 -5.647977e-13))
10.878081     	((7.413111e-06 1.133415e-05 -3.142341e-03) (3.256182e-07 4.953884e-07 -6.648533e-04)) ((8.210308e-11 -1.268943e-09 7.851007e-12) (-4.812954e-09 -3.316668e-09 7.616307e-11))
11.324315     	((8.829358e-06 1.257455e-05 -3.105399e-03) (3.515019e-07 5.363590e-07 -6.611418e-04)) ((8.222329e-11 -1.243197e-09 7.587307e-12) (-6.449810e-09 -3.632595e-10 1.629195e-10))
11.76999      	((1.048976e-05 1.376466e-05 -3.069372e-03) (3.888568e-07 5.834352e-07 -6.573553e-04)) ((8.208388e-11 -1.224028e-09 5.079722e-12) (-7.944830e-09 2.321163e-09 1.686822e-10))
12.215162     	((1.228429e-05 1.508687e-05 -3.036209e-03) (4.390008e-07 6.363957e-07 -6.536471e-04)) ((7.991538e-11 -1.208962e-09 6.676528e-12) (-9.371969e-09 4.953349e-09 9.571966e-11))
12.659864     	((1.407848e-05 1.642227e-05 -3.012847e-03) (4.952106e-07 6.945899e-07 -6.501988e-04)) ((7.788102e-11 -1.202496e-09 8.063280e-12) (-1.059507e-08 7.608588e-09 6.663740e-12))
13.104125     	((1.638867e-05 1.839341e-05 -2.996796e-03) (5.675348e-07 7.649818e-07 -6.470578e-04)) ((8.382368e-11 -1.199524e-09 7.619645e-12) (-1.196382e-08 1.021266e-08 -6.056294e-11))
13.547972     	((1.803935e-05 2.001772e-05 -2.988066e-03) (6.453925e-07 8.381662e-07 -6.441563e-04)) ((8.373654e-11 -1.180242e-09 5.839736e-12) (-1.387729e-08 1.301301e-08 -8.019533e-11))
13.991437     	((2.022669e-05 2.216315e-05 -2.981842e-03) (7.226295e-07 9.082653e-07 -6.414283e-04)) ((9.267499e-11 -1.171490e-09 7.381032e-12) (-1.666121e-08 1.616907e-08 -8.399720e-11))
14.434561     	((2.184256e-05 2.367538e-05 -2.974957e-03) (8.048152e-07 9.756280e-07 -6.388141e-04)) ((8.900113e-11 -1.152481e-09 1.042800e-11) (-1.982360e-08 1.909438e-08 -8.418292e-11))
14.877378     	((2.389223e-05 2.571884e-05 -2.967016e-03) (8.960121e-07 1.046008e-06 -6.362875e-04)) ((9.463286e-11 -1.148227e-09 9.443712e-12) (-2.280625e-08 2.159656e-08 -5.802892e-11))
15.319918     	((2.603821e-05 2.765823e-05 -2.955427e-03) (1.004890e-06 1.128409e-06 -6.338406e-04)) ((9.172779e-11 -1.135136e-09 8.499397e-12) (-2.537894e-08 2.351170e-08 -1.520450e-11))
15.762184     	((2.837521e-05 2.998193e-05 -2.942514e-03) (1.129038e-06 1.221730e-06 -6.314651e-04)) ((8.879167e-11 -1.121340e-09 5.330339e-12) (-2.765751e-08 2.492269e-08 -7.264192e-12))
16.204205     	((3.119983e-05 3.250018e-05 -2.928680e-03) (1.264484e-06 1.325704e-06 -6.291684e-04)) ((9.535227e-11 -1.121552e-09 2.807091e-12) (-2.956780e-08 2.600441e-08 -5.061082e-11))
16.645986     	((3.380212e-05 3.488136e-05 -2.917012e-03) (1.402612e-06 1.437674e-06 -6.270368e-04)) ((1.025823e-10 -1.119726e-09 -9.666167e-13) (-3.125942e-08 2.719783e-08 -7.422935e-11))
17.087494     	((3.691806e-05 3.761471e-05 -2.906490e-03) (1.550140e-06 1.563690e-06 -6.251354e-04)) ((1.198294e-10 -1.124424e-09 -3.558796e-12) (-3.263950e-08 2.836317e-08 -7.494360e-11))
17.52877      	((4.063865e-05 4.127241e-05 -2.895946e-03) (1.721476e-06 1.717178e-06 -6.234198e-04)) ((1.465519e-10 -1.133061e-09 -3.406500e-12) (-3.366170e-08 2.915451e-08 -4.716824e-11))
17.969832     	((4.496029e-05 4.498261e-05 -2.883094e-03) (1.921154e-06 1.893163e-06 -6.217729e-04)) ((1.821900e-10 -1.146386e-09 -1.020755e-13) (-3.496458e-08 2.998998e-08 -7.629533e-12))
18.41067      	((4.835614e-05 4.807839e-05 -2.874653e-03) (2.128568e-06 2.072782e-06 -6.201772e-04)) ((1.883405e-10 -1.131229e-09 4.220098e-12) (-3.665348e-08 3.099107e-08 2.568445e-11))
18.851292     	((5.229239e-05 5.157866e-05 -2.865896e-03) (2.340787e-06 2.257960e-06 -6.186198e-04)) ((1.973025e-10 -1.122478e-09 7.271724e-12) (-3.852298e-08 3.224111e-08 3.284058e-11))
19.291718     	((5.657658e-05 5.530787e-05 -2.855420e-03) (2.570439e-06 2.454801e-06 -6.170494e-04)) ((2.104672e-10 -1.119720e-09 1.095506e-11) (-4.053630e-08 3.363940e-08 8.708726e-12))
19.731971     	((6.143333e-05 5.969056e-05 -2.844335e-03) (2.818063e-06 2.669533e-06 -6.154471e-04)) ((2.257371e-10 -1.113092e-09 1.351792e-11) (-4.266681e-08 3.534638e-08 -2.444214e-11))
20.17207      	((6.652125e-05 6.400365e-05 -2.833991e-03) (3.078011e-06 2.897842e-06 -6.138351e-04)) ((2.320841e-10 -1.102573e-09 1.395052e-11) (-4.509677e-08 3.772408e-08 -6.398448e-11))
20.612025     	((7.165683e-05 6.872898e-05 -2.825077e-03) (3.340974e-06 3.134192e-06 -6.122610e-04)) ((2.429100e-10 -1.092469e-09 1.485934e-11) (-4.802307e-08 4.092709e-08 -1.055208e-10))
21.051847     	((7.735297e-05 7.354963e-05 -2.816797e-03) (3.611398e-06 3.379319e-06 -6.107532e-04)) ((2.537272e-10 -1.086752e-09 1.425629e-11) (-5.137972e-08 4.475696e-08 -9.053986e-11))
21.49155      	((8.388054e-05 7.901740e-05 -2.809200e-03) (3.901465e-06 3.640335e-06 -6.093258e-04)) ((2.686493e-10 -1.089712e-09 1.368376e-11) (-5.490889e-08 4.901454e-08 -3.283680e-11))
21.931152     	((9.175682e-05 8.545869e-05 -2.801179e-03) (4.229736e-06 3.931423e-06 -6.079708e-04)) ((2.992450e-10 -1.106990e-09 1.183190e-11) (-5.845487e-08 5.346381e-08 3.715928e-11))
22.370666     	((1.005519e-04 9.249707e-05 -2.793198e-03) (4.609393e-06 4.261889e-06 -6.066704e-04)) ((3.320975e-10 -1.129894e-09 9.698121e-12) (-6.187788e-08 5.786378e-08 1.368137e-10))
22.810106     	((1.102042e-04 1.004367e-04 -2.785239e-03) (5.042530e-06 4.638953e-06 -6.054036e-04)) ((3.682662e-10 -1.151845e-09 8.476058e-12) (-6.510411e-08 6.220307e-08 2.599145e-10))
23.249477     	((1.208335e-04 1.092132e-04 -2.777376e-03) (5.526706e-06 5.063236e-06 -6.041495e-04)) ((4.102195e-10 -1.176764e-09 5.815985e-12) (-6.848204e-08 6.689151e-08 3.816205e-10))
23.68878      	((1.326447e-04 1.189486e-04 -2.769721e-03) (6.058633e-06 5.526012e-06 -6.029077e-04)) ((4.556175e-10 -1.208520e-09 1.998942e-12) (-7.267203e-08 7.261065e-08 5.033894e-10))
24.12802      	((1.453725e-04 1.295085e-04 -2.762118e-03) (6.630778e-06 6.019910e-06 -6.016929e-04)) ((5.045549e-10 -1.242197e-09 -1.583473e-12) (-7.810834e-08 7.977496e-08 6.051615e-10))
24.567198     	((1.592722e-04 1.412429e-04 -2.754495e-03) (7.250495e-06 6.552406e-06 -6.005153e-04)) ((5.565808e-10 -1.279570e-09 -5.778098e-12) (-8.465411e-08 8.811722e-08 6.871043e-10))
25.006313     	((1.737360e-04 1.537632e-04 -2.746834e-03) (7.928443e-06 7.135101e-06 -5.993698e-04)) ((6.106010e-10 -1.319068e-09 -8.902755e-12) (-9.180352e-08 9.708137e-08 7.323773e-10))
25.445366     	((1.892566e-04 1.669596e-04 -2.741021e-03) (8.671948e-06 7.771844e-06 -5.982635e-04)) ((6.657572e-10 -1.362448e-09 -1.152687e-11) (-9.944520e-08 1.065039e-07 7.571861e-10))
25.884355     	((2.053846e-04 1.810993e-04 -2.736253e-03) (9.473329e-06 8.465909e-06 -5.972013e-04)) ((7.281922e-10 -1.410885e-09 -1.651208e-11) (-1.077057e-07 1.166358e-07 8.373522e-10))
26.323283     	((2.225377e-04 1.961284e-04 -2.732225e-03) (1.032730e-05 9.213787e-06 -5.961786e-04)) ((7.982543e-10 -1.464477e-09 -2.234174e-11) (-1.168061e-07 1.276269e-07 9.513239e-10))
26.762149     	((2.406583e-04 2.122269e-04 -2.728519e-03) (1.123667e-05 1.001615e-05 -5.951916e-04)) ((8.710589e-10 -1.528161e-09 -2.590189e-11) (-1.267880e-07 1.393202e-07 1.014892e-09))
27.200952     	((2.602792e-04 2.296866e-04 -2.725194e-03) (1.221532e-05 1.088186e-05 -5.942430e-04)) ((9.472828e-10 -1.599278e-09 -2.863984e-11) (-1.373696e-07 1.514439e-07 9.851666e-10))
27.639693     	((2.816429e-04 2.484204e-04 -2.721745e-03) (1.328200e-05 1.181903e-05 -5.933349e-04)) ((1.029168e-09 -1.683429e-09 -3.101505e-11) (-1.482716e-07 1.635547e-07 8.525925e-10))
28.07837      	((3.047892e-04 2.687683e-04 -2.718534e-03) (1.445064e-05 1.284129e-05 -5.924717e-04)) ((1.119675e-09 -1.776769e-09 -3.449599e-11) (-1.591905e-07 1.754181e-07 6.897788e-10))
28.516979     	((3.296973e-04 2.910129e-04 -2.716192e-03) (1.572562e-05 1.396015e-05 -5.916600e-04)) ((1.218820e-09 -1.876285e-09 -3.971906e-11) (-1.700640e-07 1.872774e-07 6.372876e-10))
28.955519     	((3.567262e-04 3.154053e-04 -2.713958e-03) (1.710666e-05 1.517961e-05 -5.908876e-04)) ((1.336343e-09 -1.997494e-09 -4.753974e-11) (-1.814173e-07 1.997957e-07 6.757155e-10))
29.393985     	((3.858457e-04 3.416082e-04 -2.712903e-03) (1.860428e-05 1.650704e-05 -5.901600e-04)) ((1.472183e-09 -2.139914e-09 -5.704066e-11) (-1.935287e-07 2.130099e-07 7.186520e-10))
29.832371     	((4.172525e-04 3.698528e-04 -2.713052e-03) (2.023481e-05 1.795444e-05 -5.895112e-04)) ((1.628816e-09 -2.307198e-09 -6.543773e-11) (-2.060717e-07 2.262202e-07 6.476111e-10))
30.270671     	((4.513034e-04 4.003277e-04 -2.714620e-03) (2.201735e-05 1.953487e-05 -5.889577e-04)) ((1.809869e-09 -2.502036e-09 -7.290484e-11) (-2.185382e-07 2.391325e-07 4.574950e-10))
30.70888      	((4.886049e-04 4.333803e-04 -2.717339e-03) (2.397718e-05 2.126572e-05 -5.885036e-04)) ((2.015839e-09 -2.725924e-09 -8.187219e-11) (-2.304758e-07 2.516896e-07 1.771720e-10))
31.146992     	((5.297492e-04 4.699738e-04 -2.721214e-03) (2.613510e-05 2.316961e-05 -5.881347e-04)) ((2.251260e-09 -2.973339e-09 -9.333557e-11) (-2.424665e-07 2.647642e-07 -1.136996e-10))
31.584999     	((5.745213e-04 5.097937e-04 -2.726690e-03) (2.849776e-05 2.525527e-05 -5.878255e-04)) ((2.503412e-09 -3.232950e-09 -1.036726e-10) (-2.557464e-07 2.795368e-07 -1.758710e-10))
32.022892     	((6.235435e-04 5.528035e-04 -2.733837e-03) (3.107663e-05 2.752715e-05 -5.875761e-04)) ((2.761509e-09 -3.508540e-09 -1.169214e-10) (-2.707941e-07 2.964697e-07 -2.388929e-10))
32.460663     	((6.768202e-04 6.003107e-04 -2.742349e-03) (3.389344e-05 3.001430e-05 -5.874028e-04)) ((3.043190e-09 -3.797117e-09 -1.345216e-10) (-2.875721e-07 3.154914e-07 -3.542755e-10))
32.898304     	((7.357368e-04 6.518190e-04 -2.753617e-03) (3.697681e-05 3.273550e-05 -5.873455e-04)) ((3.332134e-09 -4.107857e-09 -1.567675e-10) (-3.062451e-07 3.368950e-07 -3.993282e-10))
33.335806     	((7.998637e-04 7.075641e-04 -2.767739e-03) (4.034059e-05 3.568841e-05 -5.874397e-04)) ((3.627940e-09 -4.430323e-09 -1.828469e-10) (-3.275409e-07 3.612961e-07 -3.895234e-10))
33.773158     	((8.699762e-04 7.682544e-04 -2.785567e-03) (4.399740e-05 3.888436e-05 -5.877113e-04)) ((3.929900e-09 -4.768866e-09 -2.094187e-10) (-3.520340e-07 3.894223e-07 -3.165146e-10))
34.210346     	((9.454942e-04 8.333625e-04 -2.807906e-03) (4.796769e-05 4.233727e-05 -5.882262e-04)) ((4.215454e-09 -5.093859e-09 -2.381095e-10) (-3.790613e-07 4.207329e-07 -1.177702e-10))
34.647352     	((1.027434e-03 9.037665e-04 -2.835592e-03) (5.229557e-05 4.607879e-05 -5.890718e-04)) ((4.475627e-09 -5.387525e-09 -2.720432e-10) (-4.071730e-07 4.535071e-07 8.534250e-11))
35.084157     	((1.115078e-03 9.788544e-04 -2.869106e-03) (5.700546e-05 5.013096e-05 -5.902933e-04)) ((4.702858e-09 -5.636258e-09 -3.077707e-10) (-4.360956e-07 4.874423e-07 1.466498e-10))
35.520766     	((1.207134e-03 1.058216e-03 -2.908072e-03) (6.207357e-05 5.448931e-05 -5.918427e-04)) ((4.900190e-09 -5.855127e-09 -3.436365e-10) (-4.684584e-07 5.252101e-07 -2.389167e-10))
35.957185     	((1.303160e-03 1.140804e-03 -2.953334e-03) (6.748576e-05 5.912177e-05 -5.936823e-04)) ((5.054806e-09 -6.047549e-09 -3.786412e-10) (-5.056936e-07 5.676126e-07 -5.857563e-10))
36.393415     	((1.404119e-03 1.228640e-03 -3.004673e-03) (7.323169e-05 6.405727e-05 -5.958705e-04)) ((5.175386e-09 -6.223389e-09 -4.151129e-10) (-5.464121e-07 6.139758e-07 -5.500187e-10))
36.829411     	((1.509172e-03 1.320116e-03 -3.062433e-03) (7.929525e-05 6.930923e-05 -5.984629e-04)) ((5.240332e-09 -6.341598e-09 -4.469866e-10) (-5.894784e-07 6.634947e-07 -5.315729e-10))
37.265163     	((1.618613e-03 1.416079e-03 -3.129243e-03) (8.568737e-05 7.489250e-05 -6.015459e-04)) ((5.259100e-09 -6.385695e-09 -4.912562e-10) (-6.332481e-07 7.146403e-07 -6.335876e-10))
37.700613     	((1.731825e-03 1.515482e-03 -3.205359e-03) (9.247203e-05 8.082742e-05 -6.052158e-04)) ((5.222010e-09 -6.352833e-09 -5.290395e-10) (-6.749944e-07 7.630709e-07 -9.762262e-10))
38.135739     	((1.846500e-03 1.616622e-03 -3.290493e-03) (9.969740e-05 8.714829e-05 -6.095493e-04)) ((5.088447e-09 -6.225353e-09 -5.506312e-10) (-7.104286e-07 8.029318e-07 -1.227909e-09))
38.570565     	((1.960364e-03 1.717303e-03 -3.385741e-03) (1.072633e-04 9.378792e-05 -6.145236e-04)) ((4.837901e-09 -5.988533e-09 -5.601704e-10) (-7.422216e-07 8.374537e-07 -1.727694e-09))
39.005058     	((2.073891e-03 1.818960e-03 -3.491755e-03) (1.150530e-04 1.006499e-04 -6.201263e-04)) ((4.467133e-09 -5.619652e-09 -5.824579e-10) (-7.745392e-07 8.717837e-07 -2.641034e-09))
39.439179     	((2.184878e-03 1.918397e-03 -3.608074e-03) (1.229745e-04 1.076486e-04 -6.264897e-04)) ((3.975795e-09 -5.106662e-09 -6.036199e-10) (-8.068597e-07 9.062295e-07 -3.685636e-09))
39.872942     	((2.291806e-03 2.014539e-03 -3.732654e-03) (1.309878e-04 1.147459e-04 -6.336698e-04)) ((3.414827e-09 -4.515261e-09 -6.186219e-10) (-8.365781e-07 9.382326e-07 -5.177410e-09))
40.306353     	((2.389229e-03 2.102330e-03 -3.863243e-03) (1.389730e-04 1.218467e-04 -6.415826e-04)) ((2.721075e-09 -3.787242e-09 -6.270496e-10) (-8.640556e-07 9.678629e-07 -7.018380e-09))
40.739408     	((2.476234e-03 2.180228e-03 -3.996620e-03) (1.468400e-04 1.288238e-04 -6.501260e-04)) ((1.907132e-09 -2.940573e-09 -6.260335e-10) (-8.868047e-07 9.912398e-07 -8.385215e-09))
41.172179     	((2.546327e-03 2.243254e-03 -4.129000e-03) (1.544787e-04 1.355880e-04 -6.591707e-04)) ((9.233908e-10 -1.918352e-09 -6.171912e-10) (-8.993004e-07 1.003101e-06 -9.134422e-09))
41.604773     	((2.594879e-03 2.286849e-03 -4.257266e-03) (1.616523e-04 1.419857e-04 -6.685544e-04)) ((-1.612311e-10 -7.838048e-10 -5.730405e-10) (-8.991923e-07 1.003604e-06 -9.745797e-09))
42.037239     	((2.615983e-03 2.306322e-03 -4.373843e-03) (1.681283e-04 1.477632e-04 -6.780196e-04)) ((-1.314112e-09 4.283955e-10 -5.047560e-10) (-8.864966e-07 9.901280e-07 -1.059291e-08))
42.469602     	((2.604838e-03 2.298236e-03 -4.469950e-03) (1.736326e-04 1.526834e-04 -6.872723e-04)) ((-2.453066e-09 1.669217e-09 -4.040809e-10) (-8.581196e-07 9.588172e-07 -1.203015e-08))
42.901943     	((2.559500e-03 2.259804e-03 -4.541862e-03) (1.778850e-04 1.564938e-04 -6.961415e-04)) ((-3.573101e-09 2.894414e-09 -2.809936e-10) (-8.102626e-07 9.054293e-07 -1.322704e-08))
43.334346     	((2.472608e-03 2.184675e-03 -4.580372e-03) (1.805923e-04 1.589357e-04 -7.042183e-04)) ((-4.728132e-09 4.124081e-09 -1.530224e-10) (-7.408020e-07 8.278151e-07 -1.527485e-08))
43.766862     	((2.337373e-03 2.066793e-03 -4.576426e-03) (1.813241e-04 1.595996e-04 -7.109826e-04)) ((-5.962854e-09 5.487603e-09 -3.457698e-11) (-6.543146e-07 7.295233e-07 -1.846791e-08))
44.199533     	((2.147060e-03 1.899089e-03 -4.518142e-03) (1.794405e-04 1.578756e-04 -7.158953e-04)) ((-7.310299e-09 6.918628e-09 8.767034e-11) (-5.602494e-07 6.192041e-07 -2.161683e-08))
44.632392     	((1.895048e-03 1.677463e-03 -4.410437e-03) (1.742253e-04 1.531487e-04 -7.184791e-04)) ((-8.628668e-09 8.351058e-09 1.390167e-10) (-4.679346e-07 5.076104e-07 -2.478440e-08))
45.065476     	((1.579258e-03 1.398218e-03 -4.256952e-03) (1.650192e-04 1.448878e-04 -7.184354e-04)) ((-9.740787e-09 9.548182e-09 1.147555e-10) (-3.829008e-07 4.045767e-07 -2.726875e-08))
