# Forces      
# CofR        : (0.000000e+00 0.000000e+00 0.000000e+00)
# Time        forces(pressure viscous)	moments(pressure viscous)
0             	((0.000000e+00 0.000000e+00 0.000000e+00) (-2.005466e-04 7.285152e-16 2.113895e-14)) ((0.000000e+00 0.000000e+00 0.000000e+00) (-6.846824e-17 -5.757851e-15 5.705218e-17))
0.012         	((-5.833195e-02 1.645762e-08 1.533299e-08) (-2.300413e-04 1.521613e-10 1.324311e-10)) ((-1.589367e-13 2.001000e-11 9.164662e-12) (1.928146e-14 1.725609e-13 -3.707609e-12))
0.0264        	((4.262452e-03 -9.344074e-07 -3.901035e-07) (-2.344709e-04 -4.601763e-10 -1.223951e-10)) ((-2.271440e-12 -4.348406e-11 -6.252649e-12) (-7.414003e-13 -1.107736e-12 -6.428807e-12))
0.04368       	((1.208308e-02 1.511942e-06 9.016429e-07) (-2.081437e-04 2.660124e-10 2.623139e-10)) ((-7.554099e-12 -2.577308e-11 -4.911533e-11) (-3.969267e-13 -1.038195e-11 -3.602372e-12))
0.064416      	((1.147380e-04 -1.213134e-07 -1.074835e-07) (-1.842727e-04 -1.815598e-09 -1.405748e-09)) ((6.295582e-12 2.268338e-11 1.677669e-11) (2.126903e-13 1.294531e-11 -3.173316e-11))
0.0892992     	((-1.363311e-04 -1.741382e-07 -1.273703e-07) (-1.700684e-04 -3.703679e-09 -2.863621e-09)) ((-4.905126e-12 2.326844e-12 7.556350e-12) (-2.631221e-12 3.435342e-12 -3.716670e-11))
0.119159      	((1.899223e-04 -5.747638e-08 2.850721e-09) (-1.570187e-04 -2.986219e-09 -2.400162e-09)) ((2.240242e-12 7.512763e-12 5.166852e-12) (-8.847568e-12 -4.733738e-11 -8.184121e-12))
0.154991      	((9.814534e-05 8.067510e-08 -2.354149e-08) (-1.432676e-04 -2.850195e-09 -1.768570e-09)) ((-6.482814e-13 3.783380e-12 2.569744e-13) (-1.698972e-11 -5.598173e-11 2.671259e-11))
0.197989      	((2.343748e-05 -3.007632e-08 -7.696010e-09) (-1.295047e-04 -2.469180e-09 -7.072738e-10)) ((-9.986845e-13 1.523744e-12 3.564391e-13) (-2.299065e-11 -2.723687e-11 5.324954e-11))
0.249587      	((-3.518679e-06 -2.788002e-08 -8.336454e-10) (-1.161516e-04 -1.858708e-09 1.914613e-10)) ((-3.195340e-13 3.656361e-12 -4.901034e-14) (-2.298527e-11 -6.577981e-12 4.815944e-11))
0.311504      	((-1.560094e-05 -1.747057e-08 -9.810763e-09) (-1.036028e-04 -1.344587e-09 6.373132e-10)) ((8.062517e-14 2.013473e-12 2.418636e-13) (-2.011434e-11 -6.441373e-13 3.620419e-11))
0.385805      	((-2.209611e-05 -6.948802e-09 -3.121418e-09) (-9.217929e-05 -1.109976e-09 7.409917e-10)) ((-2.585848e-13 9.253713e-13 -7.231755e-15) (-1.667689e-11 2.579302e-12 3.629198e-11))
0.474966      	((-2.562907e-05 -4.056401e-09 -3.613014e-09) (-8.204541e-05 -1.077661e-09 6.300698e-10)) ((-1.579061e-13 7.511702e-13 -7.200856e-14) (-1.292247e-11 2.662014e-12 4.146251e-11))
0.581959      	((-2.709450e-05 -3.280405e-09 -2.199042e-09) (-7.313219e-05 -7.979787e-10 4.865373e-10)) ((-7.569205e-14 3.843303e-13 -1.398211e-13) (-9.494662e-12 5.413079e-12 3.978298e-11))
0.710351      	((-2.707711e-05 -2.968880e-09 -2.065400e-09) (-6.532574e-05 -4.489208e-10 3.493448e-10)) ((-4.077882e-14 2.207130e-13 -1.906925e-14) (-6.638741e-12 5.421248e-12 2.593208e-11))
0.864421      	((-2.611647e-05 -2.965985e-09 -2.645801e-09) (-5.852189e-05 -2.466474e-10 2.671876e-10)) ((-4.473967e-14 1.429949e-13 2.442846e-15) (-4.255231e-12 7.031891e-12 1.023112e-11))
1.049306      	((-2.468929e-05 -2.855074e-09 -2.658081e-09) (-5.259704e-05 -1.682869e-10 2.147942e-10)) ((6.036374e-15 1.844485e-13 -1.233604e-14) (-2.392004e-12 6.814143e-12 1.142612e-12))
1.271167      	((-2.303589e-05 -1.763009e-09 -2.097127e-09) (-4.742367e-05 -6.972831e-11 2.008754e-10)) ((-9.705943e-15 1.893017e-13 2.096059e-15) (-1.039928e-12 4.631765e-12 -3.430898e-12))
1.5374        	((-2.129374e-05 -1.039995e-09 -1.203677e-09) (-4.287651e-05 9.082198e-12 2.289629e-10)) ((1.107703e-14 2.008465e-13 9.608408e-15) (-3.064750e-13 1.414389e-12 -4.677155e-12))
1.85688       	((-1.959042e-05 -8.155984e-10 -6.634267e-10) (-3.885634e-05 5.238500e-11 2.581645e-10)) ((2.812084e-15 1.920764e-13 2.435780e-15) (-7.435968e-14 -2.887950e-12 -3.557062e-12))
2.240256      	((-1.800465e-05 -7.404259e-10 -7.316148e-10) (-3.528871e-05 7.888154e-11 2.477160e-10)) ((-8.608860e-15 1.922179e-13 -8.485183e-15) (2.063165e-13 -7.145701e-12 -1.479282e-13))
2.700307      	((-1.655734e-05 -8.677969e-10 -8.449353e-10) (-3.211588e-05 8.732532e-11 2.124638e-10)) ((-2.930753e-15 1.689229e-13 -1.153089e-14) (3.481605e-13 -1.074206e-11 4.415371e-12))
3.252369      	((-1.523917e-05 -1.144256e-09 -1.304363e-09) (-2.928667e-05 9.033668e-11 1.784471e-10)) ((-9.220709e-15 1.658895e-13 -1.539863e-15) (3.214993e-13 -1.311866e-11 8.464059e-12))
3.914842      	((-1.406044e-05 -1.818033e-09 -1.769696e-09) (-2.675812e-05 6.655738e-11 1.466344e-10)) ((-8.001518e-15 1.615408e-13 6.529111e-16) (1.322040e-13 -1.389326e-11 1.124709e-11))
4.709811      	((-1.302682e-05 -1.917896e-09 -2.212350e-09) (-2.450165e-05 3.068293e-11 1.070814e-10)) ((-1.553082e-14 1.601022e-13 -1.004206e-14) (-5.202559e-14 -1.365669e-11 1.269069e-11))
5.663773      	((-1.214680e-05 -1.374422e-09 -1.667674e-09) (-2.249615e-05 1.279070e-11 7.328480e-11)) ((8.682203e-16 1.398013e-13 -2.584921e-14) (-1.554044e-13 -1.256734e-11 1.222599e-11))
6.808528      	((-1.141140e-05 -2.302004e-09 -2.166670e-09) (-2.071917e-05 -1.372253e-11 3.540280e-11)) ((1.214187e-14 1.330158e-13 -3.470520e-14) (-4.775021e-13 -1.149743e-11 1.121987e-11))
8.182233      	((-1.082089e-05 -3.128547e-09 -3.435327e-09) (-1.914627e-05 -6.929295e-11 -5.374393e-11)) ((2.080864e-14 1.323647e-13 -2.457448e-14) (-8.080892e-13 -1.137340e-11 9.838984e-12))
9.83068       	((-1.037729e-05 -3.983592e-09 -4.251719e-09) (-1.775477e-05 -1.591779e-10 -1.662177e-10)) ((2.448246e-14 1.186948e-13 -9.428871e-15) (-1.002274e-12 -1.146309e-11 1.005435e-11))
11.808816     	((-1.008194e-05 -5.672333e-09 -5.494287e-09) (-1.652519e-05 -3.288494e-10 -3.263493e-10)) ((3.855220e-14 1.340212e-13 -1.424754e-14) (-1.272584e-12 -1.366566e-11 1.234259e-11))
14.182579     	((-9.936364e-06 -5.828338e-09 -5.994084e-09) (-1.544148e-05 -5.273216e-10 -5.295895e-10)) ((4.665029e-14 1.232328e-13 -2.955547e-14) (-1.508375e-12 -1.900075e-11 1.715250e-11))
17.031095     	((-9.934866e-06 -4.973046e-09 -5.294984e-09) (-1.449176e-05 -6.353726e-10 -6.624429e-10)) ((3.980970e-14 1.022368e-13 -2.793061e-14) (-1.531196e-12 -2.662563e-11 2.465129e-11))
20.449314     	((-1.006536e-05 -5.015968e-09 -5.152842e-09) (-1.366683e-05 -7.382143e-10 -7.414372e-10)) ((3.436647e-14 1.265418e-13 -2.825249e-14) (-1.424723e-12 -3.729189e-11 3.471111e-11))
24.551176     	((-1.031666e-05 -4.529765e-09 -4.751354e-09) (-1.295942e-05 -8.148338e-10 -8.474298e-10)) ((2.469228e-14 1.398703e-13 -2.692953e-14) (-1.363745e-12 -5.081172e-11 4.544000e-11))
29.473411     	((-1.067508e-05 -3.709809e-09 -3.841452e-09) (-1.236399e-05 -8.566954e-10 -9.186849e-10)) ((1.319166e-14 1.244341e-13 -2.991967e-14) (-8.620727e-13 -6.487786e-11 5.988465e-11))
35.380094     	((-1.111348e-05 -2.331477e-09 -2.613981e-09) (-1.187288e-05 -8.810449e-10 -9.516263e-10)) ((1.246568e-14 1.076934e-13 -3.234419e-14) (-6.826256e-13 -8.003008e-11 7.533133e-11))
42.45266      	((-1.159380e-05 -2.366258e-09 -2.535094e-09) (-1.147791e-05 -9.016645e-10 -9.750175e-10)) ((2.527233e-15 1.204820e-13 -3.692270e-14) (-4.625313e-13 -9.562568e-11 8.700482e-11))
50.68192      	((-1.207715e-05 -1.699736e-09 -1.868485e-09) (-1.117368e-05 -8.498040e-10 -8.746085e-10)) ((-1.829860e-14 1.378553e-13 -3.934363e-14) (-5.371416e-13 -1.066587e-10 9.484569e-11))
60.059069     	((-1.249883e-05 -7.501241e-10 -9.576575e-10) (-1.093900e-05 -6.758449e-10 -7.040552e-10)) ((-3.316734e-14 1.438288e-13 -4.102175e-14) (-6.050551e-13 -1.093963e-10 9.615529e-11))
70.578813     	((-1.283746e-05 7.786858e-10 7.000061e-10) (-1.074998e-05 -3.532662e-10 -3.716876e-10)) ((-6.056832e-14 1.340853e-13 -3.675201e-14) (-4.887628e-13 -1.076348e-10 9.163744e-11))
82.00059      	((-1.308721e-05 3.064418e-09 2.981490e-09) (-1.059212e-05 1.105376e-10 9.897765e-11)) ((-7.622069e-14 1.169861e-13 -3.189926e-14) (-4.153713e-13 -1.040378e-10 8.618251e-11))
93.462121     	((-1.325988e-05 4.351809e-09 4.355162e-09) (-1.046059e-05 6.071778e-10 5.846156e-10)) ((-9.149400e-14 1.015141e-13 -2.272777e-14) (-4.861384e-13 -1.001494e-10 8.254845e-11))
104.961327    	((-1.333657e-05 5.012445e-09 5.041295e-09) (-1.034653e-05 1.047650e-09 1.024314e-09)) ((-1.009143e-13 9.533284e-14 -1.787683e-14) (-1.134505e-13 -9.545725e-11 8.007372e-11))
116.477268    	((-1.335481e-05 4.354441e-09 4.395740e-09) (-1.024679e-05 1.358572e-09 1.318198e-09)) ((-1.000106e-13 1.056350e-13 -1.101313e-14) (1.965001e-13 -9.045508e-11 7.647901e-11))
127.998424    	((-1.333729e-05 3.738204e-09 3.881429e-09) (-1.015872e-05 1.535597e-09 1.483890e-09)) ((-9.873064e-14 1.124414e-13 -1.188894e-14) (4.383404e-13 -8.471635e-11 7.130703e-11))
139.52533     	((-1.330557e-05 3.250422e-09 3.454527e-09) (-1.008007e-05 1.620942e-09 1.570322e-09)) ((-1.004832e-13 1.102509e-13 -1.290110e-14) (5.595617e-13 -7.883025e-11 6.634056e-11))
151.060355    	((-1.327019e-05 2.954557e-09 3.192898e-09) (-1.000995e-05 1.663200e-09 1.622270e-09)) ((-9.691622e-14 1.012063e-13 -1.554762e-14) (6.550087e-13 -7.293578e-11 6.223648e-11))
162.603245    	((-1.323832e-05 2.222539e-09 2.462738e-09) (-9.947627e-06 1.648102e-09 1.616638e-09)) ((-8.876468e-14 1.014211e-13 -1.326907e-14) (5.998938e-13 -6.706827e-11 5.826893e-11))
174.152739    	((-1.320283e-05 1.610579e-09 1.763476e-09) (-9.891787e-06 1.601649e-09 1.574105e-09)) ((-8.165524e-14 9.213656e-14 -7.988015e-15) (3.118568e-13 -6.177292e-11 5.366366e-11))
185.708076    	((-1.317353e-05 9.549583e-10 1.123603e-09) (-9.841963e-06 1.532172e-09 1.505078e-09)) ((-7.971644e-14 8.507849e-14 -7.824443e-15) (6.765833e-14 -5.705361e-11 4.916482e-11))
197.268801    	((-1.314574e-05 2.351098e-10 4.711993e-10) (-9.797610e-06 1.450657e-09 1.428276e-09)) ((-7.659857e-14 7.769989e-14 -1.022512e-14) (-1.160093e-13 -5.220385e-11 4.482847e-11))
208.834422    	((-1.311869e-05 -5.459702e-10 -2.711650e-10) (-9.757995e-06 1.357169e-09 1.342749e-09)) ((-7.401224e-14 7.640000e-14 -1.418502e-14) (-9.108220e-14 -4.712284e-11 4.072413e-11))
220.404445    	((-1.309201e-05 -1.465188e-09 -1.093662e-09) (-9.722471e-06 1.250895e-09 1.246120e-09)) ((-7.065198e-14 7.716105e-14 -1.522681e-14) (-8.301707e-14 -4.250166e-11 3.652667e-11))
231.978436    	((-1.306820e-05 -2.349448e-09 -1.987021e-09) (-9.690700e-06 1.135802e-09 1.138606e-09)) ((-6.737380e-14 7.764575e-14 -1.436385e-14) (-9.738635e-14 -3.841731e-11 3.222930e-11))
243.55602     	((-1.304574e-05 -3.201816e-09 -2.794943e-09) (-9.662262e-06 1.009073e-09 1.016325e-09)) ((-6.561670e-14 7.772149e-14 -1.192572e-14) (-1.196841e-13 -3.466960e-11 2.822384e-11))
255.136849    	((-1.302267e-05 -4.195707e-09 -3.727932e-09) (-9.636582e-06 8.631937e-10 8.790775e-10)) ((-6.221428e-14 7.908114e-14 -9.684402e-15) (-2.195182e-13 -3.089529e-11 2.460057e-11))
266.720613    	((-1.300262e-05 -5.406100e-09 -4.907029e-09) (-9.613438e-06 6.934018e-10 7.146793e-10)) ((-5.552337e-14 8.564426e-14 -9.773766e-15) (-3.411071e-13 -2.705356e-11 2.114164e-11))
278.307046    	((-1.298346e-05 -6.487333e-09 -5.970121e-09) (-9.592536e-06 5.141632e-10 5.398341e-10)) ((-4.995002e-14 9.012990e-14 -1.006472e-14) (-4.457160e-13 -2.307908e-11 1.781762e-11))
289.895917    	((-1.296607e-05 -7.677191e-09 -7.128449e-09) (-9.573639e-06 3.231887e-10 3.520655e-10)) ((-4.475233e-14 9.383450e-14 -9.640364e-15) (-5.116663e-13 -1.917654e-11 1.437599e-11))
301.487013    	((-1.295008e-05 -8.839899e-09 -8.238859e-09) (-9.556567e-06 1.199202e-10 1.536430e-10)) ((-4.040018e-14 9.713892e-14 -9.007674e-15) (-5.385467e-13 -1.537093e-11 1.093447e-11))
313.080142    	((-1.293479e-05 -9.929431e-09 -9.335413e-09) (-9.541085e-06 -8.691523e-11 -5.415816e-11)) ((-3.581206e-14 1.003734e-13 -9.638130e-15) (-5.389985e-13 -1.167815e-11 7.574354e-12))
324.675126    	((-1.292078e-05 -1.097083e-08 -1.036876e-08) (-9.527034e-06 -2.900421e-10 -2.583624e-10)) ((-3.166455e-14 1.016676e-13 -9.427311e-15) (-5.233408e-13 -8.116975e-12 4.248571e-12))
336.271802    	((-1.290767e-05 -1.193661e-08 -1.136807e-08) (-9.514261e-06 -4.849196e-10 -4.551657e-10)) ((-2.753688e-14 1.032862e-13 -9.343369e-15) (-5.148923e-13 -4.736149e-12 9.649530e-13))
347.870022    	((-1.289548e-05 -1.289938e-08 -1.237678e-08) (-9.502628e-06 -6.745447e-10 -6.505570e-10)) ((-2.238566e-14 1.055297e-13 -8.182620e-15) (-5.102525e-13 -1.505176e-12 -2.276375e-12))
359.469659    	((-1.288446e-05 -1.383409e-08 -1.333432e-08) (-9.492039e-06 -8.574785e-10 -8.404173e-10)) ((-1.768498e-14 1.085452e-13 -6.870327e-15) (-4.917819e-13 1.689523e-12 -5.432674e-12))
371.070599    	((-1.287398e-05 -1.478277e-08 -1.431145e-08) (-9.482367e-06 -1.036266e-09 -1.025164e-09)) ((-1.440434e-14 1.124483e-13 -5.572126e-15) (-4.742919e-13 4.922198e-12 -8.511689e-12))
382.672736    	((-1.286425e-05 -1.565926e-08 -1.520702e-08) (-9.473518e-06 -1.208114e-09 -1.202207e-09)) ((-1.151101e-14 1.149849e-13 -4.432561e-15) (-4.728371e-13 8.177340e-12 -1.150937e-11))
394.275975    	((-1.285489e-05 -1.653895e-08 -1.611387e-08) (-9.465396e-06 -1.375137e-09 -1.374194e-09)) ((-9.055411e-15 1.185762e-13 -3.578799e-15) (-4.869885e-13 1.151933e-11 -1.433432e-11))
405.880229    	((-1.284603e-05 -1.734577e-08 -1.694998e-08) (-9.457917e-06 -1.533513e-09 -1.536892e-09)) ((-6.635361e-15 1.217968e-13 -2.939086e-15) (-5.253423e-13 1.489102e-11 -1.708480e-11))
417.485412    	((-1.283761e-05 -1.815544e-08 -1.777359e-08) (-9.451007e-06 -1.684160e-09 -1.689450e-09)) ((-4.078680e-15 1.252746e-13 -2.517649e-15) (-5.468280e-13 1.830350e-11 -1.985552e-11))
429.091447    	((-1.282999e-05 -1.893638e-08 -1.859038e-08) (-9.444638e-06 -1.827634e-09 -1.834302e-09)) ((-2.068338e-15 1.297178e-13 -2.313192e-15) (-5.613102e-13 2.182000e-11 -2.277054e-11))
440.698265    	((-1.282273e-05 -1.969060e-08 -1.939074e-08) (-9.438755e-06 -1.965737e-09 -1.974441e-09)) ((3.158110e-16 1.344638e-13 -2.411423e-15) (-5.724082e-13 2.534700e-11 -2.577733e-11))
452.305808    	((-1.281598e-05 -2.043372e-08 -2.015008e-08) (-9.433316e-06 -2.098739e-09 -2.109517e-09)) ((2.023740e-15 1.387422e-13 -2.454734e-15) (-5.865759e-13 2.881653e-11 -2.878575e-11))
463.91402     	((-1.280976e-05 -2.120568e-08 -2.095963e-08) (-9.428296e-06 -2.229061e-09 -2.243214e-09)) ((3.735757e-15 1.438348e-13 -2.722398e-15) (-5.998687e-13 3.219427e-11 -3.180720e-11))
475.52285     	((-1.280400e-05 -2.198744e-08 -2.175648e-08) (-9.423663e-06 -2.359030e-09 -2.376047e-09)) ((5.152935e-15 1.487594e-13 -3.081353e-15) (-6.108604e-13 3.549198e-11 -3.482236e-11))
487.132251    	((-1.279857e-05 -2.281186e-08 -2.260322e-08) (-9.419382e-06 -2.491274e-09 -2.511519e-09)) ((6.786616e-15 1.543537e-13 -3.264940e-15) (-6.192392e-13 3.870747e-11 -3.781289e-11))
498.742183    	((-1.279351e-05 -2.360471e-08 -2.341003e-08) (-9.415420e-06 -2.622855e-09 -2.646755e-09)) ((8.028793e-15 1.594494e-13 -3.597850e-15) (-6.251692e-13 4.185035e-11 -4.080894e-11))
510.352607    	((-1.278875e-05 -2.442620e-08 -2.424904e-08) (-9.411749e-06 -2.755603e-09 -2.783223e-09)) ((9.126056e-15 1.647289e-13 -3.933494e-15) (-6.304712e-13 4.494161e-11 -4.378678e-11))
521.963485    	((-1.278432e-05 -2.524647e-08 -2.510183e-08) (-9.408347e-06 -2.890053e-09 -2.922897e-09)) ((1.003699e-14 1.696383e-13 -4.127089e-15) (-6.335916e-13 4.797415e-11 -4.673604e-11))
533.57478     	((-1.278020e-05 -2.607394e-08 -2.593650e-08) (-9.405192e-06 -3.026334e-09 -3.063134e-09)) ((1.096770e-14 1.744948e-13 -4.362474e-15) (-6.364883e-13 5.095200e-11 -4.962723e-11))
545.186457    	((-1.277640e-05 -2.694454e-08 -2.680169e-08) (-9.402267e-06 -3.167255e-09 -3.205884e-09)) ((1.187791e-14 1.794834e-13 -4.402237e-15) (-6.371860e-13 5.389292e-11 -5.247240e-11))
556.798484    	((-1.277290e-05 -2.781181e-08 -2.769169e-08) (-9.399558e-06 -3.311813e-09 -3.352765e-09)) ((1.258673e-14 1.846904e-13 -4.385422e-15) (-6.354619e-13 5.679973e-11 -5.525861e-11))
568.410831    	((-1.276966e-05 -2.871429e-08 -2.859477e-08) (-9.397050e-06 -3.461803e-09 -3.504326e-09)) ((1.338352e-14 1.897588e-13 -4.389150e-15) (-6.338836e-13 5.961774e-11 -5.795597e-11))
580.02347     	((-1.276668e-05 -2.961398e-08 -2.950252e-08) (-9.394732e-06 -3.616579e-09 -3.659838e-09)) ((1.399694e-14 1.946596e-13 -4.194766e-15) (-6.178377e-13 6.234132e-11 -6.053168e-11))
591.636375    	((-1.276385e-05 -3.051702e-08 -3.040795e-08) (-9.392586e-06 -3.774637e-09 -3.818511e-09)) ((1.457847e-14 1.996220e-13 -3.924265e-15) (-6.050703e-13 6.495982e-11 -6.299499e-11))
603.249522    	((-1.276118e-05 -3.143344e-08 -3.132493e-08) (-9.390596e-06 -3.936266e-09 -3.980897e-09)) ((1.534315e-14 2.045039e-13 -3.603429e-15) (-6.020428e-13 6.746760e-11 -6.536514e-11))
614.862888    	((-1.275865e-05 -3.236862e-08 -3.225614e-08) (-9.388748e-06 -4.102409e-09 -4.147120e-09)) ((1.603317e-14 2.095376e-13 -3.321107e-15) (-5.977291e-13 6.987085e-11 -6.767381e-11))
626.476453    	((-1.275626e-05 -3.331176e-08 -3.320528e-08) (-9.387028e-06 -4.272901e-09 -4.317935e-09)) ((1.674104e-14 2.147212e-13 -3.049611e-15) (-5.947892e-13 7.216776e-11 -6.991482e-11))
638.090197    	((-1.275402e-05 -3.425858e-08 -3.415614e-08) (-9.385427e-06 -4.446961e-09 -4.492498e-09)) ((1.734524e-14 2.197987e-13 -2.818945e-15) (-5.953668e-13 7.436335e-11 -7.207455e-11))
649.704103    	((-1.275193e-05 -3.521518e-08 -3.511623e-08) (-9.383937e-06 -4.624461e-09 -4.670265e-09)) ((1.787310e-14 2.250635e-13 -2.609969e-15) (-5.970934e-13 7.649276e-11 -7.417382e-11))
661.318153    	((-1.275000e-05 -3.617953e-08 -3.607151e-08) (-9.382553e-06 -4.805032e-09 -4.850209e-09)) ((1.833915e-14 2.302410e-13 -2.449837e-15) (-6.006354e-13 7.857207e-11 -7.622245e-11))
672.932333    	((-1.274819e-05 -3.715066e-08 -3.703202e-08) (-9.381267e-06 -4.988285e-09 -5.032070e-09)) ((1.881432e-14 2.355587e-13 -2.247376e-15) (-6.054336e-13 8.061828e-11 -7.822962e-11))
684.546628    	((-1.274649e-05 -3.811433e-08 -3.798134e-08) (-9.380070e-06 -5.172975e-09 -5.214626e-09)) ((1.925642e-14 2.406806e-13 -1.899970e-15) (-6.105091e-13 8.264265e-11 -8.020736e-11))
696.161025    	((-1.274489e-05 -3.907920e-08 -3.894308e-08) (-9.378955e-06 -5.358536e-09 -5.398141e-09)) ((1.961194e-14 2.460457e-13 -1.558043e-15) (-6.176161e-13 8.465497e-11 -8.216334e-11))
707.775512    	((-1.274338e-05 -4.004113e-08 -3.989709e-08) (-9.377917e-06 -5.544532e-09 -5.582252e-09)) ((2.000370e-14 2.512149e-13 -1.175722e-15) (-6.252971e-13 8.664554e-11 -8.410516e-11))
719.390079    	((-1.274198e-05 -4.100776e-08 -4.085654e-08) (-9.376949e-06 -5.731024e-09 -5.766916e-09)) ((2.036605e-14 2.564517e-13 -7.804989e-16) (-6.325826e-13 8.861947e-11 -8.604110e-11))
