# Forces      
# CofR        : (0.000000e+00 0.000000e+00 0.000000e+00)
# Time        forces(pressure viscous)	moments(pressure viscous)
0             	((0.000000e+00 0.000000e+00 0.000000e+00) (0.000000e+00 0.000000e+00 0.000000e+00)) ((0.000000e+00 0.000000e+00 0.000000e+00) (0.000000e+00 0.000000e+00 0.000000e+00))
0.012         	((2.557428e-09 -2.856198e-07 -5.625161e-10) (4.832571e-11 -7.323296e-09 2.418554e-11)) ((7.402457e-14 -4.410636e-14 6.536666e-09) (-3.000841e-14 6.133455e-13 8.814840e-06))
0.0264        	((5.630402e-09 -4.303521e-08 4.200084e-12) (1.332912e-10 -1.078106e-08 4.317082e-11)) ((-3.155029e-14 5.964085e-13 3.059757e-09) (1.628614e-14 1.701739e-12 8.075353e-06))
0.04368       	((9.451936e-09 -1.376252e-07 -2.153998e-09) (9.847707e-11 -1.151866e-08 6.444263e-11)) ((2.010744e-13 7.934687e-13 1.746895e-09) (-3.440125e-14 3.140040e-12 7.317488e-06))
0.064416      	((9.907572e-09 1.261360e-08 1.469646e-09) (-1.207881e-10 -1.024498e-08 1.124327e-10)) ((3.705321e-14 5.291173e-13 1.027245e-09) (-1.303310e-13 4.756679e-12 6.560225e-06))
0.0892992     	((9.159590e-09 -6.443735e-08 -2.073239e-09) (-2.659742e-10 -8.795672e-09 1.746111e-10)) ((2.979837e-13 1.045021e-12 8.265561e-10) (1.811372e-13 6.719785e-12 5.827928e-06))
0.119159      	((1.502570e-09 7.123674e-10 9.606285e-11) (-2.141552e-10 -7.580412e-09 2.234166e-10)) ((2.195589e-13 6.192064e-13 6.658674e-10) (1.033098e-12 8.366607e-12 5.144618e-06))
0.154991      	((1.670061e-10 -3.908595e-08 -9.273027e-10) (2.228070e-11 -7.367499e-09 2.461329e-10)) ((3.275045e-13 6.486883e-13 5.722052e-10) (1.767339e-12 9.136641e-12 4.526848e-06))
0.197989      	((-2.826918e-09 -7.228533e-09 -5.384095e-10) (2.806781e-10 -6.896891e-09 2.434847e-10)) ((2.237006e-13 5.679861e-13 4.746334e-10) (1.531036e-12 9.232723e-12 3.981929e-06))
0.249587      	((-3.228998e-09 -1.611806e-08 -1.104241e-09) (4.582518e-10 -5.917873e-09 2.150158e-10)) ((1.381122e-13 4.346759e-13 3.986203e-10) (3.368822e-13 8.782462e-12 3.510068e-06))
0.311504      	((9.743115e-09 -1.549840e-08 -5.943912e-10) (6.867137e-10 -4.911028e-09 1.956500e-10)) ((7.531349e-14 3.896015e-13 3.370442e-10) (-1.122359e-12 8.057854e-12 3.107048e-06))
0.385805      	((2.698830e-09 -2.246919e-08 -7.255688e-11) (7.958585e-10 -4.561624e-09 2.373363e-10)) ((3.510084e-14 2.688373e-13 2.909147e-10) (-1.549579e-12 8.070697e-12 2.763710e-06))
0.474966      	((-4.861219e-09 -2.040256e-08 5.641253e-10) (4.235853e-10 -4.409398e-09 2.771852e-10)) ((2.875363e-14 1.259541e-13 2.527063e-10) (-1.200312e-12 7.994012e-12 2.469353e-06))
0.581959      	((-7.223780e-09 -1.328962e-08 7.349708e-10) (-2.523470e-10 -3.461661e-09 2.913640e-10)) ((3.416373e-14 -1.179967e-14 2.144769e-10) (-2.346281e-12 6.609868e-12 2.215706e-06))
0.710351      	((2.152725e-09 -1.380022e-08 -1.239510e-10) (-9.017053e-10 -1.949192e-09 2.995946e-10)) ((3.445356e-15 -1.935485e-13 1.778144e-10) (-2.633894e-12 5.922536e-12 1.995581e-06))
0.864421      	((-1.418291e-09 -2.395598e-08 -5.919834e-10) (-8.810556e-10 -6.764185e-10 2.911075e-10)) ((-2.052481e-13 -2.558238e-13 1.517709e-10) (-1.645880e-12 6.565491e-12 1.802995e-06))
1.049306      	((3.734242e-09 -1.652992e-08 -1.319626e-09) (-6.406820e-10 4.861795e-10 2.129603e-10)) ((-2.923545e-13 -4.096832e-13 1.333925e-10) (5.524675e-13 5.927373e-12 1.632924e-06))
1.271167      	((1.731546e-09 -2.564444e-08 -3.796458e-11) (-6.785373e-10 1.246326e-09 1.264566e-10)) ((-6.221401e-13 -5.674405e-13 1.183302e-10) (5.384571e-12 7.863174e-12 1.481503e-06))
1.5374        	((8.911672e-09 -2.583021e-08 5.788873e-10) (-1.192070e-09 2.163511e-09 -1.254099e-11)) ((-1.157930e-12 -5.486277e-13 1.026089e-10) (1.072752e-11 1.241735e-11 1.346243e-06))
1.85688       	((1.245390e-08 -2.122924e-08 5.075236e-10) (-1.068796e-09 2.728479e-09 -6.082396e-11)) ((-1.242908e-12 -3.424978e-13 8.844339e-11) (1.431173e-11 1.501241e-11 1.225705e-06))
2.240256      	((2.337247e-08 -1.364609e-08 1.502228e-09) (-3.081234e-10 2.515690e-09 -2.728417e-11)) ((-1.408110e-12 4.781825e-15 7.764057e-11) (1.708224e-11 1.789956e-11 1.119029e-06))
2.700307      	((1.890270e-08 -1.162791e-08 1.179123e-09) (6.744170e-11 1.989064e-09 -1.917425e-10)) ((-1.200558e-12 2.454221e-13 6.777125e-11) (2.123031e-11 2.284411e-11 1.025400e-06))
3.252369      	((1.271815e-08 -6.340003e-09 1.241605e-09) (-4.674095e-10 1.706756e-09 -2.396243e-10)) ((-9.906624e-13 3.313075e-13 5.812202e-11) (1.925026e-11 2.560541e-11 9.435411e-07))
3.914842      	((1.016599e-08 -2.470698e-09 1.106029e-09) (-2.287464e-10 1.344261e-09 -1.974080e-10)) ((-6.441722e-13 2.947301e-13 4.874990e-11) (1.353195e-11 2.473819e-11 8.717398e-07))
4.709811      	((6.860967e-09 5.160448e-10 1.572949e-09) (3.308124e-10 1.332427e-09 -2.125590e-10)) ((-2.564240e-13 4.542983e-13 4.106317e-11) (4.913294e-12 2.498557e-11 8.081825e-07))
5.663773      	((5.017697e-09 2.990469e-09 2.348291e-09) (5.611330e-10 8.250029e-10 -2.358119e-10)) ((-2.665150e-13 4.548223e-13 3.546175e-11) (-3.777790e-12 2.121465e-11 7.512409e-07))
6.808528      	((1.926868e-09 1.049254e-09 1.842058e-09) (8.569682e-10 9.051894e-11 -3.762505e-10)) ((-3.136461e-13 5.199224e-13 3.142658e-11) (-1.127282e-11 1.588851e-11 6.996869e-07))
8.182233      	((2.799383e-09 2.165172e-09 1.179031e-09) (2.829828e-10 2.651888e-10 -4.967261e-10)) ((-2.072163e-13 5.548827e-13 2.838454e-11) (-1.490024e-11 1.325272e-11 6.526716e-07))
9.83068       	((1.115791e-09 1.533666e-09 2.976400e-10) (-6.911541e-10 2.699832e-10 -4.300846e-10)) ((-8.774561e-14 5.237827e-13 2.594595e-11) (-1.368660e-11 1.221349e-11 6.095466e-07))
11.808816     	((9.615592e-10 9.202663e-10 -8.241159e-11) (-1.537698e-09 5.573957e-10 -3.758001e-10)) ((7.204653e-14 4.238656e-13 2.416734e-11) (-8.199527e-12 7.532078e-12 5.697823e-07))
14.182579     	((-4.003766e-10 2.887707e-09 -2.291555e-10) (-1.637893e-09 6.870866e-10 -4.592669e-10)) ((1.684475e-13 2.798529e-13 2.264762e-11) (-3.506319e-13 -2.510183e-12 5.330993e-07))
17.031095     	((-2.171662e-09 1.353789e-09 2.585777e-11) (-1.736276e-09 5.920160e-10 -4.311711e-10)) ((2.409808e-13 1.591612e-13 2.175826e-11) (4.632637e-12 -1.031217e-11 4.995379e-07))
20.449314     	((-1.829278e-09 2.991698e-10 -1.234719e-10) (-1.741359e-09 4.696369e-10 -3.647589e-10)) ((3.129345e-13 1.315756e-13 2.093360e-11) (9.636930e-12 -1.477559e-11 4.691362e-07))
24.551176     	((-3.570730e-09 -2.298360e-09 8.492948e-13) (-1.345045e-09 2.455668e-10 -3.813447e-10)) ((3.434432e-13 1.732194e-13 2.037751e-11) (1.239759e-11 -1.683137e-11 4.418144e-07))
29.473411     	((-2.864010e-09 -1.980954e-09 -2.622562e-10) (-1.069435e-09 -1.077169e-10 -3.252772e-10)) ((3.974067e-13 2.322366e-13 1.974102e-11) (1.526921e-11 -1.997720e-11 4.174133e-07))
35.380094     	((-5.158521e-09 -3.205681e-09 -2.382631e-10) (-1.664312e-09 2.610463e-10 -3.275687e-10)) ((3.830292e-13 2.804980e-13 1.892944e-11) (2.077415e-11 -2.333560e-11 3.956689e-07))
42.468112     	((-4.693646e-09 -3.039714e-09 -6.235264e-10) (-1.761316e-09 1.024202e-09 -2.127596e-10)) ((3.244283e-13 2.215170e-13 1.794026e-11) (2.340637e-11 -2.485871e-11 3.762892e-07))
50.973735     	((-4.323557e-09 -3.424579e-09 -4.777871e-10) (-6.201910e-10 5.727473e-10 -2.726918e-10)) ((3.527004e-13 2.029618e-13 1.708467e-11) (2.162512e-11 -2.801136e-11 3.590752e-07))
61.095105     	((-2.335895e-09 -2.516952e-09 -4.643029e-10) (8.076863e-11 9.409778e-11 -3.223464e-10)) ((4.178077e-13 1.511612e-13 1.607913e-11) (1.835836e-11 -2.973458e-11 3.439267e-07))
72.832037     	((-9.419716e-10 -2.723535e-09 -6.604670e-10) (7.951550e-10 -3.338821e-12 -2.381021e-10)) ((4.764268e-13 1.716623e-13 1.529430e-11) (1.420969e-11 -2.899188e-11 3.308362e-07))
86.184293     	((-5.177057e-10 -3.042862e-09 -5.755560e-10) (1.026628e-09 -5.488700e-10 -2.147306e-10)) ((4.907099e-13 1.939980e-13 1.478150e-11) (8.812607e-12 -2.800198e-11 3.197790e-07))
101.151594    	((-6.141932e-10 -3.001047e-09 -6.780500e-10) (8.629010e-10 -5.205629e-10 -2.442194e-10)) ((3.809565e-13 2.413210e-13 1.436761e-11) (4.931064e-12 -2.811768e-11 3.106682e-07))
117.298649    	((1.864168e-10 -2.257675e-09 -5.451628e-10) (9.653837e-10 -1.462995e-10 -2.152827e-10)) ((2.912055e-13 2.615123e-13 1.381978e-11) (3.730272e-12 -2.987163e-11 3.034361e-07))
133.441492    	((8.512689e-11 -1.382987e-09 -5.512431e-10) (1.366764e-09 4.144434e-10 -2.104105e-10)) ((2.126431e-13 2.712037e-13 1.326818e-11) (4.746237e-12 -3.334692e-11 2.980608e-07))
149.579823    	((2.841704e-10 -9.401135e-10 -5.234600e-10) (1.643000e-09 9.015439e-10 -1.961979e-10)) ((1.645930e-13 2.763275e-13 1.272495e-11) (7.434562e-12 -3.649273e-11 2.942685e-07))
165.713303    	((1.778605e-10 -4.281615e-10 -6.230867e-10) (1.576559e-09 1.094757e-09 -2.012101e-10)) ((1.215389e-13 2.721284e-13 1.236936e-11) (1.034123e-11 -3.730592e-11 2.918430e-07))
181.841514    	((2.890978e-10 2.610967e-10 -5.633519e-10) (9.159483e-10 1.224263e-09 -2.404847e-10)) ((9.089534e-14 2.767703e-13 1.210089e-11) (1.312563e-11 -3.723472e-11 2.905841e-07))
197.9642      	((8.784811e-11 4.259034e-10 -5.391275e-10) (1.389790e-10 1.270016e-09 -3.255953e-10)) ((8.326349e-14 2.739669e-13 1.188329e-11) (1.634905e-11 -3.582660e-11 2.903456e-07))
214.08119     	((-2.547503e-10 2.970577e-10 -6.111611e-10) (1.253115e-10 1.023272e-09 -3.673276e-10)) ((8.913401e-14 2.703686e-13 1.168346e-11) (1.842878e-11 -3.274264e-11 2.909923e-07))
230.192227    	((-1.122732e-10 4.372924e-10 -5.374798e-10) (3.703308e-10 9.531196e-10 -3.716410e-10)) ((9.499978e-14 2.749747e-13 1.148282e-11) (1.927210e-11 -2.957346e-11 2.924046e-07))
246.297108    	((-1.987196e-10 3.552535e-10 -4.736488e-10) (3.686667e-10 8.430172e-10 -3.471032e-10)) ((9.709178e-14 2.732297e-13 1.134672e-11) (1.884245e-11 -2.723186e-11 2.944589e-07))
262.395476    	((-5.606631e-11 1.846377e-10 -3.018791e-10) (3.518827e-10 5.807325e-10 -3.078458e-10)) ((9.262900e-14 2.755235e-13 1.127124e-11) (1.783840e-11 -2.555042e-11 2.970315e-07))
278.487163    	((2.640808e-11 2.765127e-10 -2.800053e-10) (4.801987e-10 3.587734e-10 -2.621126e-10)) ((9.230169e-14 2.725246e-13 1.120431e-11) (1.708392e-11 -2.449169e-11 2.999982e-07))
294.57196     	((-9.142129e-11 3.132840e-10 -2.886628e-10) (5.839735e-10 1.218711e-10 -2.058697e-10)) ((9.712365e-14 2.688297e-13 1.119292e-11) (1.652635e-11 -2.387196e-11 3.032309e-07))
310.649568    	((-1.469525e-10 4.207388e-10 -2.927987e-10) (7.273435e-10 -2.807818e-11 -1.632299e-10)) ((1.004261e-13 2.682737e-13 1.124176e-11) (1.607485e-11 -2.386694e-11 3.066024e-07))
326.719842    	((-1.469958e-10 4.759896e-10 -3.022317e-10) (9.100241e-10 -1.737782e-10 -1.482572e-10)) ((1.040820e-13 2.710883e-13 1.132455e-11) (1.620579e-11 -2.485208e-11 3.099840e-07))
342.782571    	((-1.965545e-10 5.777681e-10 -3.700265e-10) (1.052211e-09 -3.318753e-10 -1.569804e-10)) ((1.131522e-13 2.758356e-13 1.142727e-11) (1.705065e-11 -2.659331e-11 3.132534e-07))
358.837401    	((-5.196819e-10 5.633259e-10 -3.220856e-10) (1.191699e-09 -4.941514e-10 -1.765637e-10)) ((1.178837e-13 2.780953e-13 1.152095e-11) (1.874160e-11 -2.813120e-11 3.163059e-07))
374.884173    	((-7.339846e-10 5.209317e-10 -3.556165e-10) (1.206990e-09 -5.198620e-10 -1.911795e-10)) ((1.160387e-13 2.816275e-13 1.163199e-11) (2.056700e-11 -2.863653e-11 3.190551e-07))
