# Forces      
# CofR        : (0.000000e+00 0.000000e+00 0.000000e+00)
# Time        forces(pressure viscous)	moments(pressure viscous)
0             	((0.000000e+00 0.000000e+00 0.000000e+00) (0.000000e+00 0.000000e+00 0.000000e+00)) ((0.000000e+00 0.000000e+00 0.000000e+00) (0.000000e+00 0.000000e+00 0.000000e+00))
0.012         	((-1.681883e-10 2.248636e-10 -4.442763e-10) (7.425116e-13 4.403367e-13 2.892081e-12)) ((2.007236e-09 -1.916159e-13 -3.920688e-15) (1.397260e-06 1.532863e-13 -6.413574e-14))
0.0264        	((1.912645e-10 3.928432e-10 -8.002582e-10) (5.723184e-13 -3.328733e-12 2.513874e-12)) ((9.934187e-10 -1.507004e-13 3.824966e-14) (1.279826e-06 2.631145e-13 -6.069771e-14))
0.04368       	((-8.702677e-10 -5.963954e-10 -9.378402e-10) (7.750906e-12 -1.010041e-11 1.033992e-12)) ((5.524972e-10 -1.256597e-13 4.312611e-14) (1.159204e-06 1.472420e-13 1.154435e-13))
0.064416      	((3.474684e-10 -5.536927e-11 -2.213542e-10) (2.298572e-11 -1.478223e-11 -1.872733e-12)) ((3.135746e-10 -8.667590e-14 -1.629669e-14) (1.038080e-06 -1.504688e-13 2.983720e-13))
0.0892992     	((-1.392717e-10 -1.891940e-10 -2.295701e-11) (3.545427e-11 -1.657711e-11 -5.281444e-12)) ((2.383785e-10 -8.320881e-14 9.645898e-15) (9.200383e-07 -4.282243e-13 3.986958e-13))
0.119159      	((9.884379e-11 -2.467086e-10 -6.388414e-10) (4.781520e-11 -1.555149e-11 -8.133727e-12)) ((1.731057e-10 -5.987559e-14 -4.713340e-15) (8.087589e-07 -5.821486e-13 4.282971e-13))
0.154991      	((4.456580e-10 2.847673e-10 1.954515e-10) (4.985546e-11 -1.351201e-11 -9.575532e-12)) ((1.390244e-10 -4.850220e-14 -5.976863e-15) (7.068350e-07 -6.623776e-13 3.841153e-13))
0.197989      	((2.220054e-10 5.007279e-11 -1.873131e-10) (3.955432e-11 -1.168394e-11 -9.986572e-12)) ((1.117300e-10 -1.904643e-14 -8.055012e-15) (6.165363e-07 -7.112986e-13 3.410119e-13))
0.249587      	((3.794715e-10 4.499352e-11 -2.276390e-10) (2.106438e-11 -1.115323e-11 -9.972238e-12)) ((9.317396e-11 -1.819891e-14 -9.670945e-15) (5.389999e-07 -7.086182e-13 3.214215e-13))
0.311504      	((3.351283e-11 2.024325e-10 -2.714063e-10) (1.036184e-11 -1.091442e-11 -9.770156e-12)) ((7.847727e-11 -2.016139e-14 -2.644333e-15) (4.739842e-07 -6.565555e-13 3.061416e-13))
0.385805      	((-2.533380e-10 2.391533e-10 -3.463299e-10) (1.257880e-11 -9.620978e-12 -1.239035e-11)) ((6.826493e-11 -1.887716e-14 5.513025e-15) (4.200979e-07 -5.714193e-13 2.430424e-13))
0.474966      	((-8.564027e-11 3.103840e-10 -2.956406e-10) (1.501064e-12 -6.330923e-12 -1.768745e-11)) ((6.137040e-11 -1.559687e-14 9.554781e-15) (3.752602e-07 -6.128667e-13 1.884646e-13))
0.581959      	((3.704837e-10 5.007686e-10 -1.835514e-10) (4.401446e-11 -1.550072e-12 -1.950418e-11)) ((5.506431e-11 -1.549691e-14 1.537809e-14) (3.373864e-07 -6.694447e-13 1.823815e-13))
0.710351      	((-4.533975e-11 6.001037e-10 -3.376858e-10) (9.195876e-11 -1.440516e-12 -1.811790e-11)) ((4.893172e-11 -2.026786e-14 1.980929e-14) (3.047827e-07 -6.589552e-13 2.749128e-13))
0.864421      	((-3.024545e-10 7.133475e-10 -1.791671e-10) (9.483624e-11 -2.182999e-13 -8.106179e-12)) ((4.461089e-11 -2.762933e-14 2.427157e-14) (2.762227e-07 -6.559536e-13 5.075827e-13))
1.049306      	((1.884284e-10 8.543005e-10 -2.295654e-10) (9.146747e-11 -1.594755e-12 2.766431e-12)) ((4.184047e-11 -2.342980e-14 1.590872e-14) (2.508660e-07 -6.748904e-13 8.216720e-13))
1.271167      	((-3.507440e-10 1.193626e-09 -2.593431e-10) (6.293404e-11 -1.541068e-11 8.801092e-12)) ((3.914201e-11 -2.163542e-14 1.389243e-14) (2.281372e-07 -6.952775e-13 1.236416e-12))
1.5374        	((-1.297422e-10 1.044762e-09 -3.718683e-10) (2.540868e-11 -3.574871e-11 1.791903e-11)) ((3.604792e-11 -1.717141e-14 1.392364e-14) (2.076570e-07 -6.209389e-13 1.789539e-12))
1.85688       	((1.019791e-10 8.486845e-10 -4.174050e-10) (1.269770e-11 -6.303332e-11 4.442552e-11)) ((3.301267e-11 -2.322971e-15 2.666457e-15) (1.892160e-07 -6.545191e-14 2.532930e-12))
2.240256      	((2.340810e-11 6.331355e-10 -6.695900e-10) (6.304465e-12 -1.018115e-10 7.910081e-11)) ((3.079264e-11 3.183498e-15 -3.655310e-15) (1.727117e-07 6.745692e-13 3.685475e-12))
2.700307      	((-9.273651e-11 2.698971e-10 -6.751438e-10) (1.069712e-12 -1.562601e-10 1.141636e-10)) ((2.914336e-11 8.953240e-15 -8.125875e-15) (1.580597e-07 1.674758e-12 5.053200e-12))
3.252369      	((3.330714e-11 1.208121e-11 -7.192900e-10) (4.469094e-11 -2.274013e-10 1.674368e-10)) ((2.733174e-11 3.107423e-15 -1.476152e-15) (1.451470e-07 2.919648e-12 6.446965e-12))
3.914842      	((4.764627e-11 -9.748627e-11 -5.048283e-10) (8.156592e-11 -2.963355e-10 2.294770e-10)) ((2.545764e-11 5.941303e-15 -2.554877e-15) (1.338040e-07 4.038031e-12 7.322406e-12))
4.709811      	((2.147529e-10 2.515390e-10 1.474774e-10) (6.311027e-11 -3.365731e-10 2.989814e-10)) ((2.360876e-11 5.249434e-15 -2.211880e-15) (1.237986e-07 4.955772e-12 7.780795e-12))
5.663773      	((-1.843419e-11 2.371560e-10 3.077336e-10) (4.232007e-11 -3.488238e-10 3.353869e-10)) ((2.169862e-11 8.053837e-15 -3.169953e-15) (1.148874e-07 5.329050e-12 7.769017e-12))
6.808528      	((-7.611768e-13 1.447010e-10 3.270909e-10) (2.046460e-11 -3.243219e-10 3.352364e-10)) ((1.979617e-11 1.211387e-14 -9.336504e-15) (1.068598e-07 4.982050e-12 7.462731e-12))
8.182233      	((-6.200392e-11 -6.929718e-11 3.340799e-10) (-1.541950e-11 -2.781943e-10 2.974896e-10)) ((1.800653e-11 1.340564e-14 -1.330130e-14) (9.955989e-08 4.402493e-12 6.567682e-12))
9.83068       	((-8.424252e-11 1.298667e-10 3.857803e-10) (-5.264497e-11 -2.111409e-10 2.477115e-10)) ((1.628069e-11 1.361742e-14 -1.762886e-14) (9.287488e-08 3.946784e-12 5.269043e-12))
11.808816     	((-1.058495e-10 3.505917e-11 1.326855e-10) (-6.636696e-11 -1.457620e-10 2.043421e-10)) ((1.471881e-11 1.497765e-14 -2.316926e-14) (8.672268e-08 3.651665e-12 3.786528e-12))
14.182579     	((-1.558560e-10 8.190250e-11 1.792261e-11) (-7.500343e-11 -9.169770e-11 1.536233e-10)) ((1.332509e-11 7.038073e-15 -2.320555e-14) (8.104602e-08 3.298054e-12 2.322196e-12))
17.031095     	((-1.738801e-10 5.642413e-11 4.554838e-11) (-7.180730e-11 -6.367294e-11 1.139082e-10)) ((1.207786e-11 -2.240047e-15 -1.790434e-14) (7.581545e-08 2.877496e-12 1.157710e-12))
20.449314     	((-8.135592e-11 4.618408e-11 1.044104e-10) (-5.332870e-11 -4.035412e-11 8.492770e-11)) ((1.100199e-11 -7.844357e-15 -1.271569e-14) (7.102033e-08 2.367818e-12 2.672549e-13))
24.551176     	((-1.552609e-11 2.759752e-11 1.947297e-11) (-5.415145e-11 -1.377115e-11 5.814165e-11)) ((1.009149e-11 -1.150678e-14 -7.936188e-15) (6.664784e-08 1.885694e-12 -3.464083e-13))
29.473411     	((-2.386103e-11 2.278119e-11 -7.325035e-12) (-4.257055e-11 1.147405e-11 3.652608e-11)) ((9.309368e-12 -1.368790e-14 -6.070048e-15) (6.267354e-08 1.601586e-12 -7.934712e-13))
35.380094     	((-2.365902e-11 2.199188e-11 -2.063084e-11) (-4.057688e-11 2.613576e-11 2.535537e-11)) ((8.597192e-12 -1.304986e-14 -3.798339e-15) (5.906486e-08 1.562319e-12 -1.088326e-12))
42.468112     	((-2.457966e-11 1.091413e-11 -4.194441e-11) (-3.942020e-11 2.447737e-11 2.572424e-11)) ((7.960232e-12 -1.318773e-14 -1.127867e-15) (5.578820e-08 1.741273e-12 -1.164540e-12))
50.973735     	((-3.977650e-11 -1.018705e-11 -3.567335e-11) (-4.156923e-11 1.995921e-11 3.167196e-11)) ((7.396163e-12 -1.279670e-14 2.444395e-15) (5.281078e-08 1.863746e-12 -9.258968e-13))
61.180482     	((-2.663570e-11 -1.026508e-11 2.362436e-11) (-2.822932e-11 1.029190e-11 3.673609e-11)) ((6.929323e-12 -1.280041e-14 5.193128e-15) (5.010257e-08 1.818279e-12 -5.738034e-13))
73.428578     	((-5.815253e-12 4.448673e-11 5.797304e-11) (-2.071394e-11 3.385666e-12 3.638181e-11)) ((6.520089e-12 -1.097784e-14 2.722745e-15) (4.763951e-08 1.613763e-12 -1.442094e-13))
88.126294     	((1.818237e-11 3.711742e-11 4.885437e-11) (-9.021964e-12 -5.459625e-12 2.106312e-11)) ((6.142629e-12 -8.501423e-15 -1.651484e-15) (4.540074e-08 1.419189e-12 1.991012e-13))
105.763553    	((3.155057e-11 6.944772e-11 6.460901e-11) (-5.633676e-12 -6.707236e-12 7.603636e-12)) ((5.806425e-12 -6.160280e-15 -4.443557e-15) (4.336901e-08 1.196556e-12 4.567197e-13))
126.928263    	((4.128199e-11 6.509026e-11 5.541776e-11) (5.230345e-13 -8.703818e-13 -9.854487e-13)) ((5.509187e-12 -5.801639e-15 -5.457558e-15) (4.152730e-08 9.816620e-13 6.908222e-13))
152.325916    	((5.960354e-11 6.954934e-11 5.450839e-11) (1.058148e-11 2.015197e-12 -7.923527e-12)) ((5.250484e-12 -5.625107e-15 -5.987356e-15) (3.986019e-08 8.899030e-13 7.995871e-13))
182.803099    	((5.780575e-11 7.094267e-11 6.807498e-11) (8.975388e-12 -1.736084e-12 -1.006851e-11)) ((5.014035e-12 -5.067973e-15 -6.463856e-15) (3.835377e-08 8.264948e-13 9.220167e-13))
219.375719    	((4.238198e-11 4.435236e-11 3.837798e-11) (4.030115e-13 -8.384225e-12 -1.291858e-11)) ((4.783529e-12 -5.516840e-15 -6.380988e-15) (3.699294e-08 6.994947e-13 1.026149e-12))
263.262863    	((6.226336e-11 3.610545e-11 6.710824e-12) (-1.518879e-11 -1.546124e-11 -1.840440e-11)) ((4.567934e-12 -5.490287e-15 -5.354521e-15) (3.576470e-08 4.968308e-13 1.049749e-12))
315.927436    	((6.462251e-11 2.113742e-11 -2.587336e-11) (-1.507488e-11 -1.974458e-11 -2.238720e-11)) ((4.382485e-12 -4.207576e-15 -5.046929e-15) (3.466123e-08 2.478832e-13 1.061027e-12))
378.781461    	((3.793758e-11 8.352246e-12 -4.581167e-11) (-2.869245e-12 -2.194814e-11 -2.839908e-11)) ((4.221948e-12 -3.681888e-15 -5.139495e-15) (3.367583e-08 -8.956520e-15 1.001384e-12))
451.823325    	((2.573805e-11 7.281666e-12 -4.823743e-11) (6.769533e-12 -1.949834e-11 -3.132340e-11)) ((4.079785e-12 -3.615553e-15 -4.646085e-15) (3.280600e-08 -2.448236e-13 9.143783e-13))
535.051632    	((2.828876e-11 4.535069e-12 -5.114039e-11) (1.276992e-11 -1.276996e-11 -3.094985e-11)) ((3.956074e-12 -3.120283e-15 -4.557452e-15) (3.204627e-08 -4.695703e-13 8.303129e-13))
628.464732    	((2.735616e-11 6.310518e-13 -5.521495e-11) (1.183109e-11 -8.366505e-12 -3.343384e-11)) ((3.850776e-12 -3.163437e-15 -4.224123e-15) (3.138852e-08 -6.268042e-13 7.355708e-13))
730.298       	((3.512577e-11 8.143636e-13 -5.684396e-11) (8.042192e-12 -3.995077e-12 -3.648253e-11)) ((3.765028e-12 -2.873203e-15 -3.798460e-15) (3.082449e-08 -7.179697e-13 6.174760e-13))
832.118529    	((2.855487e-11 -6.216229e-12 -6.202616e-11) (5.164925e-12 1.360527e-12 -3.579642e-11)) ((3.697909e-12 -3.314211e-15 -3.309969e-15) (3.035156e-08 -7.365995e-13 4.815993e-13))
933.924019    	((3.379687e-11 -1.281165e-11 -6.230698e-11) (1.379778e-12 4.564889e-12 -3.416043e-11)) ((3.644056e-12 -3.612221e-15 -2.713242e-15) (2.995823e-08 -6.812025e-13 3.429695e-13))
1035.717619   	((4.297905e-11 -1.884084e-11 -6.328539e-11) (9.724852e-13 7.209757e-12 -3.151126e-11)) ((3.600820e-12 -3.649411e-15 -2.185344e-15) (2.963370e-08 -5.812549e-13 2.334508e-13))
1137.502665   	((4.731613e-11 -2.483160e-11 -6.501775e-11) (3.100022e-12 8.770558e-12 -2.813600e-11)) ((3.564460e-12 -3.583825e-15 -1.905304e-15) (2.936611e-08 -4.829127e-13 1.630438e-13))
1239.28229    	((4.470636e-11 -2.585628e-11 -6.381284e-11) (4.882766e-12 9.027118e-12 -2.559614e-11)) ((3.534355e-12 -3.627064e-15 -1.782178e-15) (2.914583e-08 -4.048516e-13 1.198599e-13))
1341.05776    	((3.193334e-11 -2.770045e-11 -6.286261e-11) (5.772843e-12 8.615490e-12 -2.487412e-11)) ((3.509087e-12 -3.528696e-15 -1.719324e-15) (2.896398e-08 -3.608311e-13 1.038999e-13))
1442.828446   	((2.500010e-11 -2.907805e-11 -6.251603e-11) (6.434146e-12 8.084541e-12 -2.438035e-11)) ((3.488467e-12 -3.468638e-15 -1.643552e-15) (2.881374e-08 -3.313240e-13 9.827752e-14))
1544.597036   	((2.732545e-11 -3.211313e-11 -6.356834e-11) (7.063978e-12 7.860549e-12 -2.396858e-11)) ((3.471017e-12 -3.491633e-15 -1.552482e-15) (2.868934e-08 -3.137610e-13 1.036960e-13))
1646.365977   	((2.979323e-11 -3.201271e-11 -6.398141e-11) (6.892455e-12 7.873004e-12 -2.393610e-11)) ((3.456577e-12 -3.684709e-15 -1.467408e-15) (2.858615e-08 -3.053962e-13 1.134295e-13))
1748.13754    	((2.963148e-11 -3.329790e-11 -6.460983e-11) (6.090757e-12 8.095419e-12 -2.429908e-11)) ((3.444976e-12 -4.008228e-15 -1.327204e-15) (2.850035e-08 -2.978403e-13 1.057420e-13))
1849.913851   	((3.117482e-11 -3.125792e-11 -6.422606e-11) (5.704851e-12 8.799893e-12 -2.493943e-11)) ((3.435513e-12 -4.252810e-15 -1.177703e-15) (2.842892e-08 -2.914902e-13 8.612772e-14))
1951.696807   	((2.922350e-11 -2.938620e-11 -6.340675e-11) (6.484594e-12 9.749301e-12 -2.544692e-11)) ((3.427683e-12 -4.442048e-15 -1.069004e-15) (2.836934e-08 -2.703469e-13 5.717596e-14))
2053.488078   	((2.531609e-11 -2.796322e-11 -6.197705e-11) (7.236654e-12 1.083394e-11 -2.557082e-11)) ((3.421246e-12 -4.650517e-15 -9.839938e-16) (2.831960e-08 -2.415226e-13 2.825698e-14))
2155.288526   	((2.755287e-11 -2.706722e-11 -5.977804e-11) (7.774800e-12 1.166946e-11 -2.551403e-11)) ((3.416202e-12 -4.857887e-15 -8.905551e-16) (2.827806e-08 -2.109354e-13 5.098061e-15))
2257.094795   	((2.875106e-11 -2.651237e-11 -5.827334e-11) (8.422675e-12 1.247362e-11 -2.505984e-11)) ((3.412068e-12 -5.050552e-15 -8.168230e-16) (2.824332e-08 -1.716454e-13 -1.508776e-14))
2358.907761   	((3.203423e-11 -2.662491e-11 -5.733727e-11) (8.706009e-12 1.311046e-11 -2.450599e-11)) ((3.408892e-12 -5.212325e-15 -7.419082e-16) (2.821425e-08 -1.309971e-13 -3.316585e-14))
