# Forces      
# CofR        : (0.000000e+00 0.000000e+00 0.000000e+00)
# Time        forces(pressure viscous)	moments(pressure viscous)
0             	((0.000000e+00 0.000000e+00 0.000000e+00) (5.890405e-14 -1.268673e-03 -8.126143e-14)) ((0.000000e+00 0.000000e+00 0.000000e+00) (4.317003e-15 -5.802470e-16 4.632537e-10))
0.012         	((-5.502643e-07 -3.687240e-01 -4.809656e-07) (8.614099e-10 -1.452128e-03 1.705492e-10)) ((-9.906753e-11 -2.605537e-12 6.900165e-08) (-1.090304e-11 -1.914769e-13 8.098234e-10))
0.0264        	((-5.884886e-06 3.570027e-02 -3.985189e-06) (-1.510539e-09 -1.471251e-03 -3.308464e-09)) ((-9.159286e-11 -3.154673e-11 -3.609444e-09) (-6.900065e-12 2.284831e-12 7.510857e-10))
0.04368       	((4.477786e-06 7.171457e-02 7.008078e-06) (2.738902e-09 -1.297452e-03 -2.603253e-10)) ((3.050866e-10 4.621556e-12 -2.056395e-08) (3.356620e-11 6.668349e-12 2.534610e-10))
0.064416      	((-3.484281e-07 6.027582e-04 -1.097192e-06) (5.100216e-09 -1.144143e-03 -2.554078e-10)) ((-1.220893e-10 1.320329e-11 2.581892e-09) (1.637658e-11 -1.976336e-12 1.699712e-10))
0.0892992     	((7.224507e-07 -1.431095e-04 -1.688538e-06) (1.726160e-09 -1.053409e-03 -1.275333e-08)) ((-2.511345e-11 2.080128e-11 4.433890e-10) (8.586121e-13 -2.694510e-12 -6.685445e-10))
0.119159      	((4.566662e-07 1.241989e-03 -5.873511e-07) (1.670161e-08 -9.733989e-04 -1.725895e-08)) ((-4.217672e-11 2.328909e-12 -8.849606e-10) (-7.049232e-12 -4.444465e-12 -1.556674e-09))
0.154991      	((-4.515583e-07 4.076281e-04 -1.134146e-07) (1.305771e-08 -8.917199e-04 -1.483579e-08)) ((-3.856911e-11 4.113256e-12 -1.874014e-10) (-4.193562e-11 -1.167325e-11 -1.706803e-09))
0.197989      	((-2.151909e-07 2.840063e-05 -1.880792e-07) (-2.465163e-08 -8.134042e-04 -1.263335e-08)) ((-3.970599e-11 -3.851350e-14 9.665448e-11) (-7.665994e-11 -1.496821e-12 -1.848683e-09))
0.249587      	((-4.651655e-07 -9.953702e-05 -8.022882e-08) (-5.899954e-08 -7.410348e-04 -8.892170e-09)) ((-3.420745e-11 -7.738584e-13 -7.561213e-13) (-1.234383e-10 5.646840e-12 -1.906944e-09))
0.311504      	((-2.255263e-07 -1.715574e-04 -1.291723e-07) (-7.206330e-08 -6.762458e-04 -6.505166e-09)) ((-2.340090e-11 1.147083e-12 2.590293e-11) (-1.306808e-10 2.325853e-12 -1.722814e-09))
0.385805      	((-2.246901e-07 -2.110532e-04 -6.896701e-08) (-7.841687e-08 -6.192013e-04 -5.427370e-09)) ((-1.406246e-11 -1.430130e-12 2.112533e-11) (-1.166588e-10 1.572366e-12 -1.594627e-09))
0.474966      	((-1.740516e-07 -2.293134e-04 -4.529868e-08) (-7.643845e-08 -5.689944e-04 -4.657867e-09)) ((-7.396053e-12 -1.042379e-12 3.468856e-11) (-1.191626e-10 2.038502e-13 -1.696970e-09))
0.581959      	((-1.081260e-07 -2.359130e-04 -1.520560e-08) (-5.926462e-08 -5.236378e-04 -3.687855e-09)) ((-3.768258e-12 -8.230366e-13 3.345219e-11) (-1.115517e-10 -2.486809e-12 -1.937323e-09))
0.710351      	((-1.970490e-08 -2.347533e-04 -1.794835e-09) (-4.577116e-08 -4.808025e-04 -2.426038e-09)) ((-1.211614e-12 -2.518207e-13 3.279018e-11) (-7.237687e-11 1.299588e-12 -2.384596e-09))
0.864421      	((-1.168456e-08 -2.286452e-04 5.281495e-09) (-3.917562e-08 -4.396665e-04 -1.853330e-09)) ((-1.311838e-13 4.202392e-13 5.258218e-11) (-3.605449e-11 8.981585e-12 -3.118129e-09))
1.049306      	((-3.431284e-09 -2.205645e-04 4.341881e-10) (-2.862394e-08 -4.007312e-04 -2.226062e-09)) ((-7.534920e-14 1.291197e-13 7.186106e-11) (-1.238755e-11 1.054215e-11 -3.643409e-09))
1.271167      	((2.786219e-08 -2.131031e-04 3.519370e-09) (-1.927894e-08 -3.645818e-04 -1.956932e-09)) ((-7.092023e-13 -3.194841e-13 8.429781e-11) (2.545031e-11 9.819562e-12 -3.595193e-09))
1.5374        	((3.313181e-08 -2.078617e-04 1.965040e-09) (-1.348252e-08 -3.316162e-04 -1.198592e-09)) ((-1.397528e-12 -1.284936e-13 9.841018e-11) (7.123849e-11 1.110862e-11 -3.288799e-09))
1.85688       	((-1.350267e-08 -2.061486e-04 -2.732896e-09) (-1.055220e-08 -3.020985e-04 -8.940632e-10)) ((-2.118404e-12 9.911085e-14 1.179100e-10) (1.119516e-10 1.186877e-11 -2.997826e-09))
2.240256      	((-5.225049e-08 -2.083058e-04 -3.286537e-08) (-9.626815e-09 -2.761468e-04 -1.499827e-09)) ((-3.108311e-12 -5.837806e-13 1.360201e-10) (1.513778e-10 1.139536e-11 -2.675226e-09))
2.700307      	((-7.789108e-08 -2.151060e-04 -4.140504e-08) (-1.120726e-08 -2.537076e-04 -2.783371e-09)) ((-4.108405e-12 -9.104109e-13 1.691135e-10) (1.927269e-10 1.195219e-11 -2.275541e-09))
3.252369      	((-5.014280e-08 -2.272797e-04 -6.624608e-08) (-8.616951e-09 -2.346287e-04 -4.341031e-09)) ((-4.111684e-12 -9.796348e-13 2.124191e-10) (2.236072e-10 1.320210e-11 -1.966872e-09))
3.914842      	((-2.219677e-08 -2.452108e-04 -4.878914e-08) (-6.980407e-10 -2.186553e-04 -5.090801e-09)) ((-3.999900e-12 -5.458699e-13 2.696868e-10) (2.225902e-10 1.287025e-11 -1.958073e-09))
4.707535      	((3.593304e-08 -2.690861e-04 -3.528254e-08) (4.031024e-09 -2.055138e-04 -5.158832e-09)) ((-3.414738e-12 -6.373036e-13 3.494139e-10) (1.997617e-10 1.415546e-11 -2.356598e-09))
5.630234      	((7.804555e-08 -2.985373e-04 -1.998061e-08) (8.237593e-09 -1.949798e-04 -4.956418e-09)) ((-2.549768e-12 -6.110020e-14 4.444887e-10) (1.674431e-10 1.468321e-11 -3.260724e-09))
6.682836      	((1.263890e-07 -3.323875e-04 4.423951e-09) (1.374810e-08 -1.865780e-04 -4.883934e-09)) ((-1.864158e-12 -5.909194e-13 5.558438e-10) (1.471137e-10 1.469806e-11 -4.554462e-09))
7.864993      	((1.522606e-07 -3.695672e-04 1.603079e-08) (1.389563e-08 -1.799921e-04 -6.147689e-09)) ((-1.573252e-12 -1.573377e-12 6.793805e-10) (1.574750e-10 1.695728e-11 -5.553688e-09))
9.153116      	((1.948454e-07 -4.092504e-04 5.318657e-08) (1.159275e-08 -1.749764e-04 -7.431222e-09)) ((-9.731733e-13 -2.867761e-12 7.865880e-10) (2.598921e-10 1.796648e-11 -6.196057e-09))
10.430767     	((2.499903e-07 -4.464216e-04 9.453166e-08) (1.626039e-08 -1.714386e-04 -7.122673e-09)) ((-2.469701e-12 -3.877945e-12 8.723960e-10) (3.528497e-10 1.289516e-11 -6.581931e-09))
11.697478     	((2.979688e-07 -4.782050e-04 1.408420e-07) (2.512274e-08 -1.686969e-04 -3.049039e-09)) ((-3.703720e-12 -6.604763e-12 9.547253e-10) (2.988417e-10 1.154831e-11 -6.194205e-09))
12.95639      	((3.343324e-07 -5.038415e-04 2.117913e-07) (3.517466e-08 -1.663460e-04 3.544908e-09)) ((-3.544261e-12 -7.925391e-12 1.029539e-09) (1.514704e-10 1.206341e-11 -5.503742e-09))
14.213169     	((4.108126e-07 -5.233285e-04 2.756749e-07) (4.101957e-08 -1.642234e-04 1.166178e-08)) ((-2.766844e-12 -8.418960e-12 1.102384e-09) (-4.559610e-11 3.118320e-12 -5.287360e-09))
15.472572     	((5.099326e-07 -5.350132e-04 3.781002e-07) (4.661613e-08 -1.623418e-04 2.029746e-08)) ((-1.246597e-12 -8.168351e-12 1.164674e-09) (-1.843021e-10 -6.984155e-12 -4.914740e-09))
16.736259     	((6.056256e-07 -5.398717e-04 4.670927e-07) (5.117728e-08 -1.605962e-04 2.755495e-08)) ((-4.333083e-13 -6.641965e-12 1.206034e-09) (-1.749703e-10 -6.717663e-12 -4.718073e-09))
18.003254     	((6.396917e-07 -5.394909e-04 5.031327e-07) (5.196592e-08 -1.589745e-04 3.344571e-08)) ((2.530749e-13 -5.304715e-12 1.227795e-09) (-1.109186e-10 -5.333328e-12 -4.827158e-09))
19.272304     	((6.678365e-07 -5.345989e-04 5.219398e-07) (5.327069e-08 -1.574483e-04 3.718844e-08)) ((1.263671e-12 -4.598837e-12 1.233774e-09) (2.218691e-11 4.259865e-14 -4.747995e-09))
20.543067     	((6.659740e-07 -5.286340e-04 5.165346e-07) (5.857699e-08 -1.559821e-04 3.947138e-08)) ((3.511177e-13 -4.503155e-12 1.230057e-09) (1.692916e-10 3.755310e-12 -4.404068e-09))
21.815959     	((7.086410e-07 -5.224761e-04 5.314315e-07) (6.745039e-08 -1.545859e-04 4.124218e-08)) ((1.352831e-13 -4.701691e-12 1.221425e-09) (2.635189e-10 2.454015e-12 -3.984361e-09))
23.091397     	((8.639913e-07 -5.186580e-04 6.180829e-07) (7.910171e-08 -1.533252e-04 4.496507e-08)) ((5.493628e-13 -3.950074e-12 1.210420e-09) (3.475066e-10 -9.004832e-12 -3.806412e-09))
24.368946     	((9.324298e-07 -5.144768e-04 6.522887e-07) (9.170488e-08 -1.521867e-04 4.884603e-08)) ((-4.541084e-13 -3.538499e-12 1.197769e-09) (4.298683e-10 -7.698655e-12 -3.668962e-09))
25.648506     	((1.090238e-06 -5.103873e-04 7.244183e-07) (1.046599e-07 -1.511231e-04 5.207275e-08)) ((-4.893300e-13 -3.704802e-12 1.190032e-09) (5.616620e-10 -5.927052e-13 -3.655328e-09))
26.930358     	((1.233854e-06 -5.060377e-04 7.941352e-07) (1.148912e-07 -1.501047e-04 5.552185e-08)) ((-5.889298e-13 -2.805740e-12 1.186281e-09) (7.010274e-10 -3.595441e-12 -3.876721e-09))
28.214311     	((1.434876e-06 -5.023934e-04 8.853050e-07) (1.230816e-07 -1.491277e-04 5.966902e-08)) ((4.674870e-13 -2.344198e-12 1.183624e-09) (8.563397e-10 -8.218168e-12 -4.257905e-09))
29.499117     	((1.659458e-06 -4.996224e-04 9.740044e-07) (1.317798e-07 -1.482124e-04 6.463898e-08)) ((1.089382e-12 -2.364976e-12 1.182588e-09) (1.033307e-09 -4.144164e-12 -4.740920e-09))
30.784306     	((1.863604e-06 -4.970820e-04 1.049767e-06) (1.402752e-07 -1.473510e-04 6.988549e-08)) ((1.192689e-12 -2.555033e-12 1.183138e-09) (1.221664e-09 2.715072e-12 -5.282915e-09))
32.070194     	((2.191773e-06 -4.946529e-04 1.121444e-06) (1.537393e-07 -1.465315e-04 7.437625e-08)) ((1.561011e-12 -2.381400e-12 1.183718e-09) (1.457462e-09 7.679969e-12 -5.779483e-09))
33.357037     	((2.419386e-06 -4.922451e-04 1.263641e-06) (1.695785e-07 -1.457553e-04 8.043064e-08)) ((2.235048e-12 -1.762270e-12 1.184049e-09) (1.685510e-09 1.370813e-11 -6.184831e-09))
34.645063     	((2.727710e-06 -4.901589e-04 1.382253e-06) (1.880153e-07 -1.450314e-04 8.825819e-08)) ((2.278407e-12 -9.053551e-13 1.184254e-09) (1.881078e-09 1.707921e-11 -6.531225e-09))
35.934394     	((3.048157e-06 -4.883142e-04 1.494126e-06) (2.102646e-07 -1.443624e-04 9.613494e-08)) ((2.652195e-12 -3.892518e-13 1.184587e-09) (2.081372e-09 9.630345e-12 -6.854398e-09))
37.225029     	((3.440931e-06 -4.865347e-04 1.639199e-06) (2.367053e-07 -1.437379e-04 1.050760e-07)) ((3.739161e-12 2.563882e-13 1.184291e-09) (2.317035e-09 4.953971e-12 -7.180338e-09))
38.516972     	((3.874826e-06 -4.849147e-04 1.803799e-06) (2.677040e-07 -1.431512e-04 1.149747e-07)) ((4.980198e-12 1.287173e-12 1.183650e-09) (2.587475e-09 4.922022e-12 -7.501980e-09))
39.810244     	((4.292646e-06 -4.831492e-04 1.987091e-06) (3.010724e-07 -1.425907e-04 1.268328e-07)) ((6.933423e-12 2.763615e-12 1.181965e-09) (2.839981e-09 -1.148195e-13 -7.819744e-09))
41.104885     	((4.699988e-06 -4.813658e-04 2.129532e-06) (3.348812e-07 -1.420492e-04 1.394609e-07)) ((7.706456e-12 4.180659e-12 1.180256e-09) (3.063043e-09 -5.806679e-12 -8.233484e-09))
42.400941     	((5.264331e-06 -4.790985e-04 2.344356e-06) (3.731273e-07 -1.415138e-04 1.530616e-07)) ((9.228219e-12 5.711712e-12 1.178402e-09) (3.344298e-09 -5.928982e-12 -8.727047e-09))
43.698426     	((5.686689e-06 -4.772299e-04 2.531930e-06) (4.121560e-07 -1.409897e-04 1.663777e-07)) ((1.008981e-11 6.803277e-12 1.177457e-09) (3.727669e-09 -7.617636e-12 -9.260632e-09))
44.997368     	((6.247504e-06 -4.756006e-04 2.763228e-06) (4.526747e-07 -1.404865e-04 1.807515e-07)) ((1.175088e-11 7.318995e-12 1.176360e-09) (4.117016e-09 -1.564296e-11 -9.849372e-09))
46.297829     	((6.819520e-06 -4.741306e-04 3.026064e-06) (4.959729e-07 -1.400027e-04 1.985551e-07)) ((1.388577e-11 7.735061e-12 1.175524e-09) (4.447907e-09 -2.089698e-11 -1.049912e-08))
47.599913     	((7.470378e-06 -4.728964e-04 3.305630e-06) (5.425858e-07 -1.395437e-04 2.194699e-07)) ((1.631782e-11 8.154497e-12 1.174690e-09) (4.723750e-09 -1.171195e-11 -1.116551e-08))
48.903826     	((8.147510e-06 -4.715828e-04 3.599032e-06) (5.932144e-07 -1.391076e-04 2.415663e-07)) ((1.839576e-11 8.592224e-12 1.174728e-09) (5.033402e-09 1.904065e-12 -1.178411e-08))
50.20957      	((9.023666e-06 -4.702475e-04 3.973620e-06) (6.517727e-07 -1.386898e-04 2.669208e-07)) ((2.100124e-11 8.387483e-12 1.175134e-09) (5.362169e-09 1.429757e-11 -1.236674e-08))
51.517049     	((1.004477e-05 -4.689983e-04 4.424251e-06) (7.216392e-07 -1.382888e-04 2.977911e-07)) ((2.362850e-11 8.106563e-12 1.176056e-09) (5.645149e-09 2.331171e-11 -1.295998e-08))
52.826207     	((1.118712e-05 -4.678035e-04 4.920715e-06) (8.025357e-07 -1.379009e-04 3.342672e-07)) ((2.648281e-11 7.875964e-12 1.177153e-09) (5.892429e-09 2.890713e-11 -1.358822e-08))
54.136992     	((1.245492e-05 -4.665899e-04 5.473428e-06) (8.933971e-07 -1.375229e-04 3.753435e-07)) ((3.082724e-11 8.224410e-12 1.177669e-09) (6.193200e-09 3.617764e-11 -1.433365e-08))
55.449355     	((1.380247e-05 -4.651876e-04 5.983483e-06) (9.915644e-07 -1.371501e-04 4.175114e-07)) ((3.497249e-11 8.589467e-12 1.177103e-09) (6.634062e-09 4.813146e-11 -1.531908e-08))
56.763239     	((1.526959e-05 -4.637607e-04 6.616525e-06) (1.096848e-06 -1.367840e-04 4.613882e-07)) ((3.967886e-11 8.970701e-12 1.175979e-09) (7.229436e-09 5.985900e-11 -1.655728e-08))
58.078585     	((1.689522e-05 -4.624110e-04 7.273644e-06) (1.211633e-06 -1.364295e-04 5.084369e-07)) ((4.417617e-11 9.038131e-12 1.175349e-09) (7.925838e-09 6.649717e-11 -1.799741e-08))
59.395336     	((1.869266e-05 -4.611818e-04 8.072057e-06) (1.338423e-06 -1.360880e-04 5.620871e-07)) ((4.897460e-11 8.721056e-12 1.175015e-09) (8.683555e-09 6.458841e-11 -1.961636e-08))
60.713429     	((2.068811e-05 -4.601695e-04 8.906520e-06) (1.479850e-06 -1.357629e-04 6.228815e-07)) ((5.346194e-11 8.529928e-12 1.174425e-09) (9.461180e-09 6.250503e-11 -2.140693e-08))
62.032787     	((2.284097e-05 -4.591756e-04 9.805194e-06) (1.636918e-06 -1.354529e-04 6.904941e-07)) ((5.810225e-11 8.402453e-12 1.173285e-09) (1.023938e-08 6.014060e-11 -2.334850e-08))
63.353326     	((2.512428e-05 -4.582483e-04 1.073133e-05) (1.808614e-06 -1.351571e-04 7.635871e-07)) ((6.278814e-11 8.460177e-12 1.172126e-09) (1.102801e-08 4.487381e-11 -2.541609e-08))
64.67494      	((2.758961e-05 -4.573587e-04 1.170573e-05) (1.995360e-06 -1.348757e-04 8.422303e-07)) ((6.835664e-11 8.480010e-12 1.171008e-09) (1.181727e-08 2.479725e-11 -2.759669e-08))
65.997518     	((3.024010e-05 -4.564841e-04 1.274053e-05) (2.199338e-06 -1.346068e-04 9.269670e-07)) ((7.463107e-11 8.650960e-12 1.169662e-09) (1.261763e-08 7.927260e-12 -2.987007e-08))
67.320954     	((3.307922e-05 -4.556586e-04 1.385127e-05) (2.420784e-06 -1.343494e-04 1.017558e-06)) ((8.171545e-11 8.888828e-12 1.168124e-09) (1.346991e-08 -7.787173e-12 -3.226985e-08))
68.645133     	((3.612427e-05 -4.549083e-04 1.506205e-05) (2.660892e-06 -1.341038e-04 1.115399e-06)) ((8.953094e-11 9.145813e-12 1.166417e-09) (1.436433e-08 -2.270276e-11 -3.479555e-08))
69.969654     	((3.939976e-05 -4.542617e-04 1.635924e-05) (2.922049e-06 -1.338721e-04 1.220920e-06)) ((9.784319e-11 9.085934e-12 1.164621e-09) (1.529938e-08 -3.637181e-11 -3.738650e-08))
71.294407     	((4.298036e-05 -4.536672e-04 1.780960e-05) (3.207739e-06 -1.336534e-04 1.335710e-06)) ((1.071949e-10 8.119547e-12 1.162860e-09) (1.629897e-08 -4.508660e-11 -4.002832e-08))
72.619275     	((4.684577e-05 -4.531692e-04 1.943196e-05) (3.520558e-06 -1.334485e-04 1.462119e-06)) ((1.174507e-10 6.371425e-12 1.161236e-09) (1.741731e-08 -5.514865e-11 -4.270534e-08))
73.944138     	((5.107488e-05 -4.527227e-04 2.120756e-05) (3.862706e-06 -1.332581e-04 1.601262e-06)) ((1.281673e-10 3.954702e-12 1.159257e-09) (1.865564e-08 -8.484954e-11 -4.541816e-08))
75.268868     	((5.574028e-05 -4.523476e-04 2.317045e-05) (4.238206e-06 -1.330828e-04 1.754975e-06)) ((1.400063e-10 4.555888e-13 1.157231e-09) (1.999193e-08 -1.289811e-10 -4.823687e-08))
76.593331     	((6.091558e-05 -4.520346e-04 2.531065e-05) (4.651932e-06 -1.329217e-04 1.924281e-06)) ((1.522650e-10 -3.991043e-12 1.155028e-09) (2.145228e-08 -1.754503e-10 -5.123525e-08))
77.917382     	((6.664246e-05 -4.518194e-04 2.767745e-05) (5.108829e-06 -1.327753e-04 2.109754e-06)) ((1.654777e-10 -9.851933e-12 1.152699e-09) (2.306625e-08 -2.325069e-10 -5.448215e-08))
79.240863     	((7.295655e-05 -4.517464e-04 3.030716e-05) (5.614167e-06 -1.326455e-04 2.314042e-06)) ((1.798680e-10 -1.702562e-11 1.150293e-09) (2.487918e-08 -2.872298e-10 -5.799345e-08))
80.563604     	((7.985324e-05 -4.518399e-04 3.321018e-05) (6.171188e-06 -1.325338e-04 2.540307e-06)) ((1.958910e-10 -2.531257e-11 1.147768e-09) (2.687004e-08 -3.126939e-10 -6.184319e-08))
81.885421     	((8.739255e-05 -4.521534e-04 3.643998e-05) (6.781126e-06 -1.324431e-04 2.792822e-06)) ((2.136751e-10 -3.517154e-11 1.145115e-09) (2.897168e-08 -3.036222e-10 -6.616597e-08))
83.206119     	((9.571067e-05 -4.526192e-04 3.998507e-05) (7.449717e-06 -1.323745e-04 3.074313e-06)) ((2.328525e-10 -4.595288e-11 1.142213e-09) (3.117279e-08 -2.912882e-10 -7.097291e-08))
84.525482     	((1.048349e-04 -4.533619e-04 4.388799e-05) (8.181130e-06 -1.323283e-04 3.384761e-06)) ((2.547154e-10 -5.693283e-11 1.138831e-09) (3.356261e-08 -2.792125e-10 -7.647066e-08))
85.843303     	((1.147986e-04 -4.544316e-04 4.816457e-05) (8.978543e-06 -1.323097e-04 3.724837e-06)) ((2.790185e-10 -6.910739e-11 1.133793e-09) (3.625900e-08 -2.593466e-10 -8.281878e-08))
87.159347     	((1.256377e-04 -4.558019e-04 5.279293e-05) (9.849738e-06 -1.323234e-04 4.094203e-06)) ((3.051301e-10 -8.242459e-11 1.126586e-09) (3.934446e-08 -2.973413e-10 -8.985473e-08))
88.473372     	((1.374536e-04 -4.575638e-04 5.782100e-05) (1.080300e-05 -1.323704e-04 4.497466e-06)) ((3.329911e-10 -9.790562e-11 1.118831e-09) (4.281649e-08 -3.725166e-10 -9.756769e-08))
89.785075     	((1.501835e-04 -4.598418e-04 6.327111e-05) (1.184076e-05 -1.324581e-04 4.939720e-06)) ((3.625408e-10 -1.161634e-10 1.110516e-09) (4.663657e-08 -4.191996e-10 -1.060455e-07))
91.094193     	((1.638052e-04 -4.626722e-04 6.911741e-05) (1.296412e-05 -1.325966e-04 5.421996e-06)) ((3.937558e-10 -1.372272e-10 1.101164e-09) (5.072070e-08 -4.405670e-10 -1.152440e-07))
92.400636     	((1.784255e-04 -4.661299e-04 7.531330e-05) (1.417786e-05 -1.327913e-04 5.942574e-06)) ((4.249641e-10 -1.615736e-10 1.091042e-09) (5.502780e-08 -4.467719e-10 -1.250813e-07))
93.704316     	((1.941364e-04 -4.702998e-04 8.203306e-05) (1.548915e-05 -1.330471e-04 6.503492e-06)) ((4.585723e-10 -1.906695e-10 1.079718e-09) (5.953388e-08 -4.731625e-10 -1.355728e-07))
95.004845     	((2.108977e-04 -4.753515e-04 8.917444e-05) (1.690485e-05 -1.333711e-04 7.106236e-06)) ((4.929470e-10 -2.248799e-10 1.068094e-09) (6.425793e-08 -5.057160e-10 -1.466354e-07))
96.301916     	((2.286719e-04 -4.813616e-04 9.684096e-05) (1.842237e-05 -1.337789e-04 7.756051e-06)) ((5.296037e-10 -2.639199e-10 1.054703e-09) (6.920253e-08 -4.549175e-10 -1.584053e-07))
97.595558     	((2.474062e-04 -4.884156e-04 1.049352e-04) (2.003832e-05 -1.342802e-04 8.454834e-06)) ((5.658554e-10 -3.101106e-10 1.039466e-09) (7.430198e-08 -2.891816e-10 -1.708056e-07))
98.885846     	((2.670021e-04 -4.965615e-04 1.133669e-04) (2.176361e-05 -1.348898e-04 9.200072e-06)) ((5.997029e-10 -3.625111e-10 1.025113e-09) (7.952607e-08 -9.191026e-11 -1.829990e-07))
100.17273     	((2.872959e-04 -5.060647e-04 1.220466e-04) (2.360119e-05 -1.356201e-04 9.989292e-06)) ((6.297017e-10 -4.209102e-10 1.012800e-09) (8.474196e-08 4.758237e-11 -1.947481e-07))
101.45618     	((3.080518e-04 -5.169528e-04 1.309567e-04) (2.553636e-05 -1.364780e-04 1.081799e-05)) ((6.554012e-10 -4.858153e-10 1.001743e-09) (9.003105e-08 1.341506e-10 -2.063799e-07))
102.736176    	((3.290369e-04 -5.292135e-04 1.400249e-04) (2.755607e-05 -1.374667e-04 1.168291e-05)) ((6.794715e-10 -5.565868e-10 9.915106e-10) (9.540819e-08 2.662999e-10 -2.179112e-07))
104.012741    	((3.499088e-04 -5.428971e-04 1.490887e-04) (2.963995e-05 -1.385962e-04 1.258239e-05)) ((6.991401e-10 -6.326238e-10 9.818223e-10) (1.005648e-07 4.926523e-10 -2.292849e-07))
105.286051    	((3.703766e-04 -5.578707e-04 1.580647e-04) (3.176836e-05 -1.398755e-04 1.350980e-05)) ((7.155894e-10 -7.091016e-10 9.745249e-10) (1.052648e-07 7.256502e-10 -2.400843e-07))
106.556399    	((3.898060e-04 -5.740424e-04 1.665888e-04) (3.391547e-05 -1.413086e-04 1.444839e-05)) ((7.255917e-10 -7.859023e-10 9.702941e-10) (1.094791e-07 9.263462e-10 -2.497573e-07))
107.824208    	((4.075226e-04 -5.911542e-04 1.742529e-04) (3.604068e-05 -1.429039e-04 1.537559e-05)) ((7.223633e-10 -8.623168e-10 9.686419e-10) (1.130974e-07 1.109842e-09 -2.580559e-07))
109.089347    	((4.224623e-04 -6.087244e-04 1.808106e-04) (3.809243e-05 -1.446471e-04 1.627298e-05)) ((7.106539e-10 -9.339227e-10 9.678889e-10) (1.155954e-07 1.421279e-09 -2.642892e-07))
110.350226    	((4.335523e-04 -6.261040e-04 1.856438e-04) (4.000949e-05 -1.465042e-04 1.711198e-05)) ((6.876644e-10 -9.970679e-10 9.689038e-10) (1.166055e-07 1.931623e-09 -2.672604e-07))
111.606412    	((4.396662e-04 -6.425922e-04 1.884817e-04) (4.172334e-05 -1.484332e-04 1.786209e-05)) ((6.519375e-10 -1.049143e-09 9.728646e-10) (1.158058e-07 2.497640e-09 -2.658113e-07))
112.858316    	((4.401086e-04 -6.566610e-04 1.886454e-04) (4.316484e-05 -1.503617e-04 1.848944e-05)) ((6.011279e-10 -1.082830e-09 9.764182e-10) (1.125191e-07 3.086240e-09 -2.587084e-07))
114.106278    	((4.340965e-04 -6.675123e-04 1.859706e-04) (4.423815e-05 -1.522377e-04 1.895270e-05)) ((5.424876e-10 -1.095892e-09 9.785829e-10) (1.065340e-07 3.780437e-09 -2.456208e-07))
