# Forces      
# CofR        : (0.000000e+00 0.000000e+00 0.000000e+00)
# Time        forces(pressure viscous)	moments(pressure viscous)
0             	((0.000000e+00 0.000000e+00 0.000000e+00) (0.000000e+00 0.000000e+00 0.000000e+00)) ((0.000000e+00 0.000000e+00 0.000000e+00) (0.000000e+00 0.000000e+00 0.000000e+00))
0.012         	((2.580172e-08 -1.148380e-06 -2.005033e-09) (7.521869e-10 -2.988028e-08 1.015222e-10)) ((2.875583e-13 -7.628348e-14 2.678386e-08) (-1.073464e-13 2.703277e-12 3.510742e-05))
0.0264        	((3.815975e-08 -1.882022e-07 3.074247e-10) (1.919365e-09 -4.312130e-08 1.852762e-10)) ((-8.254101e-14 2.753495e-12 1.328662e-08) (-8.932654e-13 7.416736e-12 3.217078e-05))
0.04368       	((9.283305e-08 -6.085699e-07 -1.010632e-08) (2.490030e-09 -4.612275e-08 3.087286e-10)) ((1.170588e-12 3.939107e-12 8.485380e-09) (-1.685629e-12 1.621724e-11 2.919150e-05))
0.064416      	((4.122167e-08 -2.937161e-08 7.437221e-10) (2.706613e-09 -4.143896e-08 5.146825e-10)) ((4.724064e-13 3.991645e-12 5.939781e-09) (-2.164711e-12 2.733259e-11 2.626850e-05))
0.0892992     	((1.432529e-07 -3.339614e-07 -4.668424e-09) (4.631678e-09 -3.648946e-08 7.390393e-10)) ((2.972829e-12 5.240998e-12 5.284635e-09) (1.714266e-12 3.888417e-11 2.351508e-05))
0.119159      	((-9.138298e-08 3.422258e-09 -2.950259e-09) (7.826820e-09 -3.143119e-08 8.970443e-10)) ((2.500854e-12 3.196057e-12 4.511583e-09) (4.725631e-12 4.504225e-11 2.102484e-05))
0.154991      	((8.809862e-10 -1.672305e-07 -2.174492e-09) (1.090382e-08 -2.415927e-08 9.791683e-10)) ((2.724435e-12 3.699120e-12 3.926017e-09) (1.452938e-12 4.467089e-11 1.884516e-05))
0.197989      	((-3.494861e-08 -7.493234e-08 -2.994640e-09) (1.083210e-08 -1.454173e-08 8.816420e-10)) ((2.503818e-12 3.097364e-12 3.445741e-09) (-3.550961e-12 4.050908e-11 1.696237e-05))
0.249587      	((-1.139098e-08 -9.334241e-08 8.399776e-11) (1.013903e-08 -6.939509e-09 9.093409e-10)) ((1.937090e-12 2.982539e-12 3.035934e-09) (-3.629021e-12 3.630299e-11 1.529346e-05))
0.311504      	((-4.472177e-08 -3.612204e-08 1.294779e-10) (1.378514e-08 -5.724820e-09 1.107241e-09)) ((6.908862e-13 2.751703e-12 2.643918e-09) (1.423693e-12 3.489225e-11 1.374416e-05))
0.385805      	((-5.287331e-08 -7.017252e-08 5.581893e-09) (1.825849e-08 -8.697754e-09 1.175627e-09)) ((-8.657027e-13 2.006204e-12 2.289609e-09) (7.033033e-13 3.911495e-11 1.229991e-05))
0.474966      	((-2.499748e-08 -7.382548e-08 1.863136e-09) (1.504968e-08 -1.443879e-08 1.082757e-09)) ((-1.868578e-12 3.730259e-13 1.972302e-09) (-1.029582e-11 3.518790e-11 1.098824e-05))
0.581959      	((-3.310792e-08 -1.019645e-07 4.780489e-10) (4.517325e-09 -1.752400e-08 8.150091e-10)) ((-1.487104e-12 -9.594363e-13 1.671974e-09) (-1.531840e-11 2.539670e-11 9.822874e-06))
0.710351      	((-3.409209e-08 -1.031448e-07 -5.426643e-09) (-6.696090e-09 -2.099484e-08 1.069952e-09)) ((-2.233357e-12 -8.369772e-13 1.405567e-09) (-7.162509e-12 1.973183e-11 8.801372e-06))
0.864421      	((-9.680085e-09 -1.572501e-07 2.599256e-09) (-1.192750e-08 -1.457474e-08 1.306588e-09)) ((-4.246460e-12 -7.585702e-13 1.185987e-09) (1.067173e-11 1.359168e-11 7.908153e-06))
1.049306      	((-9.117888e-08 -1.235586e-07 4.477293e-09) (-1.394649e-08 -5.157255e-09 9.678888e-10)) ((-5.258763e-12 -6.304805e-13 1.003143e-09) (2.566020e-11 9.311721e-12 7.124265e-06))
1.271167      	((1.922321e-09 -7.726858e-08 7.362604e-09) (-1.138583e-08 7.687464e-09 7.210047e-10)) ((-8.758044e-12 2.574462e-13 8.710014e-10) (1.884513e-11 2.549006e-11 6.434961e-06))
1.5374        	((1.751743e-08 -5.887913e-08 5.356358e-09) (-9.066157e-09 8.729998e-09 -3.455985e-10)) ((-9.712042e-12 -2.243046e-13 7.522088e-10) (4.933593e-13 3.876881e-11 5.831156e-06))
1.85688       	((5.196965e-08 -5.903847e-08 9.116061e-09) (-8.146414e-09 6.343590e-09 -1.274890e-09)) ((-6.934361e-12 1.963923e-12 6.478843e-10) (-1.927075e-11 2.526901e-11 5.306749e-06))
2.240256      	((2.411946e-08 -7.802979e-08 7.159625e-09) (-7.034874e-09 1.187949e-08 -9.270953e-10)) ((-8.985158e-12 2.577165e-12 5.600584e-10) (-4.283120e-11 5.879668e-12 4.854802e-06))
2.700307      	((6.790195e-09 -6.100014e-08 7.103218e-09) (-1.593960e-08 1.232884e-08 -1.975024e-09)) ((-9.043983e-12 1.319612e-12 4.747020e-10) (-9.649688e-11 -2.526653e-11 4.466100e-06))
3.252369      	((-2.462618e-08 -2.508578e-08 1.167218e-08) (-1.112838e-08 1.207044e-08 -1.707683e-09)) ((-9.192736e-12 2.282633e-12 4.062520e-10) (-1.825902e-10 -5.095264e-11 4.129562e-06))
3.914842      	((-3.044314e-09 -6.095059e-09 8.398590e-09) (4.862837e-09 9.174041e-09 -8.531453e-10)) ((-5.093326e-12 2.789777e-12 3.493468e-10) (-2.607771e-10 -9.634134e-11 3.834493e-06))
4.709811      	((1.020708e-08 2.474968e-08 4.939042e-09) (1.361586e-08 6.804887e-10 -1.579126e-09)) ((-2.116875e-12 3.426484e-12 3.009791e-10) (-3.138786e-10 -1.548248e-10 3.572600e-06))
5.663773      	((1.550625e-08 4.302392e-08 1.609864e-09) (1.392280e-08 -1.952164e-09 -1.375850e-09)) ((1.050376e-12 4.695431e-12 2.615422e-10) (-3.257378e-10 -2.026446e-10 3.338121e-06))
6.808528      	((1.232181e-08 3.042706e-08 1.860750e-09) (1.953266e-08 5.847794e-09 -1.748838e-09)) ((-3.444052e-13 4.896615e-12 2.362699e-10) (-2.697807e-10 -2.284398e-10 3.126762e-06))
8.182233      	((2.426337e-08 1.182580e-08 -6.369514e-09) (2.858786e-08 -1.345550e-09 -2.829855e-09)) ((2.245566e-15 4.018258e-12 2.221367e-10) (-1.940331e-10 -2.263784e-10 2.935148e-06))
9.83068       	((1.558088e-08 3.959941e-10 -1.052920e-08) (2.189820e-08 -5.019101e-09 -2.146765e-09)) ((-7.673701e-14 1.308242e-12 2.095404e-10) (-1.298984e-10 -2.472690e-10 2.761577e-06))
11.808816     	((-1.538359e-09 -1.641328e-08 -8.460170e-09) (1.687836e-08 -5.195706e-09 -3.170023e-09)) ((9.946567e-13 -1.184298e-12 1.985427e-10) (-3.550686e-11 -2.875495e-10 2.605588e-06))
14.145209     	((-1.386263e-08 -8.206007e-09 -8.743189e-09) (6.331376e-09 -2.439227e-09 -3.226042e-09)) ((9.372313e-13 -8.307883e-13 1.903324e-10) (5.796126e-11 -3.234898e-10 2.469124e-06))
16.848448     	((-2.427604e-08 -9.745838e-09 -7.676577e-09) (-1.062023e-09 5.019337e-10 -2.219013e-09)) ((1.699832e-12 3.769320e-14 1.859279e-10) (1.378765e-10 -3.047337e-10 2.353755e-06))
19.928827     	((-1.811059e-08 -1.310323e-09 -1.069181e-08) (4.670452e-09 -1.541282e-09 -3.389373e-09)) ((9.816695e-13 1.414853e-12 1.811824e-10) (2.195658e-10 -2.673768e-10 2.259156e-06))
23.396762     	((-1.369387e-08 -1.213887e-08 -5.769630e-09) (1.213752e-08 -8.604670e-09 -1.527219e-09)) ((-4.308714e-13 2.287960e-12 1.771883e-10) (2.687531e-10 -2.224744e-10 2.184012e-06))
27.26378      	((-1.713849e-08 -1.415991e-08 -3.812449e-09) (1.687999e-08 -1.898702e-09 -2.028552e-09)) ((-5.887307e-13 2.727317e-12 1.722215e-10) (3.045205e-10 -1.650906e-10 2.126688e-06))
31.321863     	((-1.717011e-08 -1.783579e-08 -2.271210e-09) (1.791173e-08 -1.349999e-09 -1.073370e-09)) ((2.508128e-13 2.335148e-12 1.669976e-10) (3.044349e-10 -1.202890e-10 2.087199e-06))
35.379542     	((4.102546e-09 6.345490e-09 -4.383480e-09) (1.502662e-08 1.050865e-09 2.855842e-10)) ((1.707898e-12 1.827152e-12 1.616710e-10) (2.774258e-10 -8.665198e-11 2.064244e-06))
39.436783     	((8.083817e-09 1.687311e-08 -3.503634e-09) (1.669906e-08 5.210688e-09 1.025112e-09)) ((2.354981e-12 1.362334e-12 1.581058e-10) (2.393447e-10 -1.003966e-10 2.055594e-06))
43.493566     	((2.483538e-08 4.190504e-08 -4.613954e-09) (1.905059e-08 6.021915e-09 5.877354e-10)) ((2.250530e-12 1.227519e-12 1.549669e-10) (2.128836e-10 -1.483546e-10 2.059528e-06))
47.549773     	((1.517364e-08 4.268151e-08 -4.254387e-09) (5.391269e-09 8.948556e-09 4.381955e-10)) ((2.247750e-12 1.229848e-12 1.533276e-10) (2.045547e-10 -1.792857e-10 2.074831e-06))
51.591702     	((1.100989e-08 4.124883e-08 -5.105795e-09) (-2.503480e-09 7.212674e-09 1.261428e-09)) ((1.964628e-12 1.633047e-12 1.523022e-10) (2.277636e-10 -1.782201e-10 2.100622e-06))
55.562157     	((1.144499e-09 3.532981e-08 -3.683850e-09) (-2.508716e-09 7.528150e-09 1.590791e-09)) ((1.837786e-12 2.061547e-12 1.516053e-10) (2.718178e-10 -1.575489e-10 2.135676e-06))
59.458785     	((-1.476212e-09 3.060046e-08 -4.942886e-09) (-3.695306e-09 1.187549e-08 1.812787e-09)) ((1.861813e-12 2.267752e-12 1.524525e-10) (3.188537e-10 -1.286170e-10 2.178257e-06))
63.282201     	((-8.223516e-09 1.709782e-08 -3.987326e-09) (-1.039649e-09 1.257838e-08 2.037591e-09)) ((1.981523e-12 2.477402e-12 1.548675e-10) (3.464572e-10 -8.425773e-11 2.225759e-06))
67.038652     	((-1.103410e-08 7.965463e-09 -6.053426e-09) (-1.903252e-09 1.117737e-08 2.299586e-09)) ((1.581779e-12 2.689044e-12 1.582493e-10) (3.389861e-10 -2.341387e-11 2.274869e-06))
70.735698     	((-2.131852e-08 -2.471377e-08 -8.088146e-09) (-3.010457e-09 7.428657e-09 2.441002e-09)) ((1.631191e-12 2.415122e-12 1.632401e-10) (3.025598e-10 2.382602e-11 2.321802e-06))
74.381407     	((-2.241064e-08 -2.890748e-08 -4.778394e-09) (-2.281772e-09 1.043663e-08 2.970902e-09)) ((2.085261e-12 2.225349e-12 1.685040e-10) (2.587783e-10 2.872461e-11 2.362912e-06))
77.984752     	((-1.850181e-08 -3.686999e-08 -3.000544e-09) (2.114501e-09 1.057977e-08 3.566382e-09)) ((2.682327e-12 1.905551e-12 1.716740e-10) (2.169782e-10 -1.820650e-12 2.395594e-06))
81.555551     	((-8.503823e-09 -2.367342e-08 -7.731746e-10) (1.035229e-08 9.664767e-09 4.499260e-09)) ((3.224418e-12 1.899484e-12 1.725742e-10) (1.865190e-10 -3.477473e-11 2.418548e-06))
85.063308     	((-1.326504e-08 -1.652066e-08 2.046570e-09) (1.692891e-08 7.427561e-09 4.147014e-09)) ((3.562440e-12 2.169556e-12 1.713505e-10) (1.587460e-10 -7.890215e-11 2.431583e-06))
88.518738     	((-2.480289e-08 -1.504062e-08 1.804263e-09) (1.778948e-08 3.910055e-09 3.906496e-09)) ((3.864869e-12 2.212150e-12 1.693253e-10) (1.521229e-10 -1.015362e-10 2.435865e-06))
91.936957     	((-2.268246e-08 -1.642932e-09 2.545887e-09) (1.601707e-08 -1.859635e-09 3.388403e-09)) ((3.362426e-12 2.675481e-12 1.677556e-10) (1.700480e-10 -1.121788e-10 2.433374e-06))
95.331541     	((-2.978713e-08 1.148106e-08 4.540373e-09) (1.647916e-08 -5.335687e-09 3.349628e-09)) ((2.956649e-12 2.935935e-12 1.656210e-10) (1.879381e-10 -1.101332e-10 2.425849e-06))
