# Forces      
# CofR        : (0.000000e+00 0.000000e+00 0.000000e+00)
# Time        forces(pressure viscous)	moments(pressure viscous)
0             	((0.000000e+00 0.000000e+00 0.000000e+00) (0.000000e+00 0.000000e+00 0.000000e+00)) ((0.000000e+00 0.000000e+00 0.000000e+00) (0.000000e+00 0.000000e+00 0.000000e+00))
0.012         	((-1.348321e-10 1.787206e-10 -3.527708e-10) (5.036683e-13 3.490892e-13 2.299438e-12)) ((1.593873e-09 -1.521522e-13 -3.112415e-15) (1.109882e-06 1.217030e-13 -5.098707e-14))
0.0264        	((1.536775e-10 3.129022e-10 -6.356115e-10) (-2.429645e-14 -2.641282e-12 2.009719e-12)) ((7.883160e-10 -1.196084e-13 3.045761e-14) (1.016597e-06 2.092252e-13 -4.885988e-14))
0.04368       	((-6.932002e-10 -4.727864e-10 -7.453979e-10) (5.029748e-12 -8.093099e-12 8.027228e-13)) ((4.377663e-10 -9.975092e-14 3.434007e-14) (9.207697e-07 1.159282e-13 9.093139e-14))
0.064416      	((2.698773e-10 -3.934690e-11 -1.722321e-10) (1.630616e-11 -1.187078e-11 -1.473619e-12)) ((2.477656e-10 -6.839664e-14 -1.285959e-14) (8.245231e-07 -1.230369e-13 2.374164e-13))
0.0892992     	((-1.092063e-10 -1.439422e-10 -2.164209e-11) (2.607781e-11 -1.325935e-11 -4.225852e-12)) ((1.878879e-10 -6.585507e-14 7.876618e-15) (7.306967e-07 -3.464973e-13 3.176395e-13))
0.119159      	((3.611815e-11 -2.061880e-10 -5.261802e-10) (3.431573e-11 -1.238017e-11 -6.507465e-12)) ((1.359899e-10 -4.762353e-14 -2.843511e-15) (6.422093e-07 -4.681279e-13 3.404368e-13))
0.154991      	((2.981551e-10 2.428188e-10 1.656705e-10) (3.634863e-11 -1.066091e-11 -7.784939e-12)) ((1.089276e-10 -3.775379e-14 -5.154929e-15) (5.611182e-07 -5.237221e-13 3.037521e-13))
0.197989      	((1.712356e-10 2.606069e-11 -1.644041e-10) (3.119072e-11 -9.148433e-12 -8.076658e-12)) ((8.735525e-11 -1.524183e-14 -5.437220e-15) (4.892656e-07 -5.515086e-13 2.664014e-13))
0.249587      	((2.434544e-10 5.457551e-11 -1.632899e-10) (1.857616e-11 -8.446559e-12 -7.971362e-12)) ((7.276047e-11 -1.353470e-14 -7.936462e-15) (4.275903e-07 -5.403588e-13 2.476807e-13))
0.311504      	((4.211365e-11 1.637730e-10 -2.193679e-10) (1.123336e-11 -8.692714e-12 -7.223350e-12)) ((6.117901e-11 -1.532565e-14 -2.043094e-15) (3.759095e-07 -5.048871e-13 2.401745e-13))
0.385805      	((-2.009303e-10 2.144924e-10 -2.697346e-10) (1.121719e-11 -8.282269e-12 -8.853339e-12)) ((5.310332e-11 -1.578522e-14 4.682705e-15) (3.331166e-07 -4.684953e-13 2.039254e-13))
0.474966      	((-8.729495e-11 2.479983e-10 -2.531698e-10) (5.695396e-12 -5.857959e-12 -1.347105e-11)) ((4.767108e-11 -1.196896e-14 7.739432e-15) (2.975526e-07 -5.312530e-13 1.728405e-13))
0.581959      	((2.606006e-10 3.847068e-10 -1.532209e-10) (3.682107e-11 -2.512634e-12 -1.506582e-11)) ((4.274888e-11 -1.195476e-14 1.235068e-14) (2.675420e-07 -5.801966e-13 1.732272e-13))
0.710351      	((-2.144238e-12 4.722754e-10 -2.883642e-10) (6.812467e-11 -1.187708e-12 -1.456289e-11)) ((3.795891e-11 -1.626842e-14 1.576001e-14) (2.417187e-07 -6.000787e-13 2.564094e-13))
0.864421      	((-1.524421e-10 5.719163e-10 -1.387330e-10) (6.878598e-11 -1.139473e-12 -8.689098e-12)) ((3.459616e-11 -2.189960e-14 1.882455e-14) (2.190984e-07 -6.538577e-13 4.688464e-13))
1.049306      	((1.479553e-10 6.464718e-10 -1.972800e-10) (6.671465e-11 -1.533488e-12 7.549859e-13)) ((3.246574e-11 -2.068842e-14 1.393694e-14) (1.990106e-07 -6.306507e-13 6.695621e-13))
1.271167      	((-2.531499e-10 9.128458e-10 -2.383669e-10) (5.026347e-11 -1.119880e-11 4.138333e-12)) ((3.033801e-11 -1.924678e-14 1.194214e-14) (1.809983e-07 -5.733565e-13 9.233604e-13))
1.5374        	((-9.746509e-11 7.618404e-10 -3.840734e-10) (2.782228e-11 -2.631872e-11 8.759891e-12)) ((2.791895e-11 -1.238867e-14 1.037689e-14) (1.647613e-07 -4.762028e-13 1.364870e-12))
1.85688       	((6.898183e-11 7.014836e-10 -3.696671e-10) (1.587959e-11 -4.672028e-11 2.825640e-11)) ((2.557924e-11 -1.643127e-15 2.836756e-15) (1.501354e-07 2.994489e-14 1.953910e-12))
2.240256      	((2.793236e-12 5.271730e-10 -5.452876e-10) (1.125154e-11 -7.722200e-11 5.807645e-11)) ((2.393437e-11 5.475425e-15 -5.265545e-15) (1.370393e-07 7.251268e-13 2.816115e-12))
2.700307      	((-3.879533e-11 2.649935e-10 -5.260651e-10) (1.396654e-12 -1.231399e-10 9.077643e-11)) ((2.274829e-11 8.525584e-15 -7.184747e-15) (1.254063e-07 1.485192e-12 4.019638e-12))
3.252369      	((3.284761e-11 9.374303e-11 -5.495621e-10) (2.709578e-11 -1.833775e-10 1.348248e-10)) ((2.142220e-11 7.387278e-15 -5.259382e-15) (1.151499e-07 2.356078e-12 5.322657e-12))
3.914842      	((-9.461489e-12 -3.847541e-11 -3.756059e-10) (4.708794e-11 -2.400466e-10 1.840124e-10)) ((2.003001e-11 6.307541e-15 -2.708270e-15) (1.061377e-07 3.270545e-12 6.058656e-12))
4.709811      	((1.287911e-10 1.447229e-10 3.094200e-11) (2.382822e-11 -2.804428e-10 2.431934e-10)) ((1.861124e-11 5.774194e-15 -1.651217e-15) (9.818857e-08 4.064397e-12 6.475674e-12))
5.663773      	((-3.275459e-11 1.513350e-10 1.909770e-10) (1.074904e-11 -2.978422e-10 2.767561e-10)) ((1.714693e-11 8.083274e-15 -2.545468e-15) (9.111218e-08 4.359715e-12 6.559056e-12))
6.808528      	((1.261242e-11 8.110912e-11 2.463450e-10) (-3.258996e-12 -2.891293e-10 2.803635e-10)) ((1.567826e-11 1.019236e-14 -6.305695e-15) (8.474030e-08 4.159900e-12 6.311693e-12))
8.182233      	((-4.459079e-11 -6.644925e-11 1.975534e-10) (-2.561866e-11 -2.573604e-10 2.614835e-10)) ((1.427703e-11 1.048871e-14 -1.041825e-14) (7.894688e-08 3.643922e-12 5.718354e-12))
9.83068       	((-9.345727e-11 1.449526e-11 2.677719e-10) (-5.120255e-11 -2.038900e-10 2.198770e-10)) ((1.294210e-11 1.159146e-14 -1.343141e-14) (7.364316e-08 3.254696e-12 4.625582e-12))
11.808816     	((-8.847077e-11 2.178278e-11 8.065067e-11) (-6.704426e-11 -1.478774e-10 1.758699e-10)) ((1.171771e-11 1.237044e-14 -1.667123e-14) (6.876300e-08 2.926614e-12 3.430803e-12))
14.182579     	((-1.026296e-10 5.293565e-11 2.282953e-11) (-7.863405e-11 -9.925853e-11 1.324058e-10)) ((1.061593e-11 8.992098e-15 -1.861880e-14) (6.426138e-08 2.524506e-12 2.253846e-12))
17.031095     	((-1.121385e-10 3.126900e-11 -8.743864e-14) (-6.968287e-11 -6.826903e-11 9.707426e-11)) ((9.644438e-12 2.176868e-15 -1.581661e-14) (6.011420e-08 2.115409e-12 1.238321e-12))
20.449314     	((-5.682131e-11 4.418632e-11 8.304644e-11) (-5.572190e-11 -4.769808e-11 6.826785e-11)) ((8.780361e-12 -3.396159e-15 -1.171123e-14) (5.631208e-08 1.660552e-12 5.310524e-13))
24.551176     	((-4.090874e-11 2.725140e-11 5.912584e-12) (-4.806139e-11 -2.509330e-11 4.602344e-11)) ((8.047249e-12 -6.393436e-15 -8.706245e-15) (5.284322e-08 1.359229e-12 -3.060874e-14))
29.473411     	((1.761050e-12 2.615952e-11 1.046998e-12) (-3.665225e-11 -3.254926e-12 2.840362e-11)) ((7.426857e-12 -8.629601e-15 -5.906786e-15) (4.968761e-08 1.209933e-12 -5.083730e-13))
35.380094     	((-1.617185e-11 2.802132e-11 -4.884000e-12) (-3.864578e-11 1.439318e-11 1.887888e-11)) ((6.863857e-12 -8.094463e-15 -5.125078e-15) (4.682005e-08 1.116052e-12 -7.960368e-13))
42.468112     	((-1.150288e-11 3.843273e-11 -2.339728e-11) (-3.441713e-11 2.002109e-11 1.796192e-11)) ((6.370363e-12 -7.884546e-15 -3.519270e-15) (4.421368e-08 1.166913e-12 -8.494608e-13))
50.973735     	((-1.965160e-11 4.064152e-11 -2.970158e-11) (-2.965396e-11 1.523963e-11 2.113659e-11)) ((5.920636e-12 -8.296630e-15 -1.685747e-15) (4.184381e-08 1.287497e-12 -7.082818e-13))
61.180482     	((-1.301467e-11 2.453147e-11 1.356835e-11) (-2.347331e-11 6.256503e-12 2.960509e-11)) ((5.537726e-12 -8.306861e-15 1.242084e-15) (3.968729e-08 1.376659e-12 -4.350713e-13))
73.428578     	((-6.103795e-12 3.550693e-12 1.696695e-11) (-1.473340e-11 -1.985281e-12 3.220087e-11)) ((5.227839e-12 -8.862793e-15 3.655331e-15) (3.772458e-08 1.257109e-12 -1.147415e-13))
88.126294     	((1.941444e-11 -1.693268e-11 5.093635e-12) (-5.956145e-12 -1.038112e-11 2.829352e-11)) ((4.943689e-12 -7.396600e-15 2.463280e-15) (3.594062e-08 1.051929e-12 1.752995e-13))
105.763553    	((1.048455e-11 1.289991e-11 2.045883e-11) (-1.165353e-12 -1.511264e-11 2.252629e-11)) ((4.676916e-12 -5.022675e-15 -6.534785e-16) (3.432211e-08 8.519184e-13 4.287542e-13))
126.928263    	((3.645673e-11 3.023187e-11 2.400780e-11) (-3.101694e-12 -1.652053e-11 1.423385e-11)) ((4.436204e-12 -2.640030e-15 -2.666907e-15) (3.285583e-08 6.659747e-13 6.023016e-13))
152.325916    	((4.535120e-11 4.577606e-11 3.792850e-11) (3.343676e-12 -1.666982e-11 7.283353e-12)) ((4.217510e-12 -2.136046e-15 -3.740777e-15) (3.152791e-08 5.673057e-13 6.748526e-13))
182.803099    	((7.074189e-11 5.225960e-11 4.666685e-11) (1.247397e-11 -1.547861e-11 3.193501e-12)) ((4.018423e-12 -2.316442e-15 -4.271475e-15) (3.032598e-08 5.046125e-13 7.499414e-13))
219.375719    	((6.241468e-11 6.909441e-11 6.831404e-11) (1.705263e-11 -1.506815e-11 -8.563143e-13)) ((3.844546e-12 -2.310715e-15 -4.547546e-15) (2.923868e-08 4.264335e-13 8.270124e-13))
263.262863    	((5.797795e-11 4.223564e-11 3.901435e-11) (1.679235e-11 -1.837002e-11 -4.492157e-12)) ((3.688980e-12 -2.569893e-15 -4.657252e-15) (2.825522e-08 3.638893e-13 8.962813e-13))
315.927436    	((6.832499e-11 5.119574e-11 2.721949e-11) (1.703836e-11 -1.966645e-11 -5.702419e-12)) ((3.548993e-12 -1.957537e-15 -4.699401e-15) (2.736709e-08 2.550365e-13 9.501446e-13))
379.124923    	((6.188727e-11 4.176606e-11 1.180181e-11) (1.900300e-11 -2.199776e-11 -1.040545e-11)) ((3.415814e-12 -1.853938e-15 -4.860812e-15) (2.656827e-08 1.203800e-13 9.771548e-13))
454.961908    	((4.823217e-11 3.912776e-11 4.796670e-13) (2.024731e-11 -2.037732e-11 -1.264145e-11)) ((3.301789e-12 -1.633297e-15 -4.878496e-15) (2.585334e-08 -2.894920e-14 9.662987e-13))
543.625856    	((3.995964e-11 3.899809e-11 -1.231465e-12) (2.135093e-11 -1.700575e-11 -1.553098e-11)) ((3.199019e-12 -1.595481e-15 -4.852824e-15) (2.522028e-08 -1.991509e-13 9.204997e-13))
645.115391    	((3.298020e-11 4.127625e-11 -4.778293e-13) (2.091962e-11 -9.551091e-12 -1.431657e-11)) ((3.109951e-12 -1.119370e-15 -4.947038e-15) (2.466562e-08 -3.295574e-13 8.367425e-13))
759.429323    	((3.138862e-11 2.867158e-11 -1.203598e-11) (1.667862e-11 -5.850123e-12 -1.631444e-11)) ((3.034861e-12 -8.610543e-16 -4.638343e-15) (2.418402e-08 -4.426707e-13 7.345881e-13))
886.566407    	((2.399762e-11 2.190671e-11 -1.501009e-11) (1.166139e-11 -2.336195e-12 -1.705544e-11)) ((2.970157e-12 -6.770932e-16 -4.256210e-15) (2.376860e-08 -5.138990e-13 6.083775e-13))
1014.78983    	((3.208119e-11 1.683616e-11 -1.758792e-11) (7.283305e-12 1.011691e-12 -1.766365e-11)) ((2.916016e-12 -7.086216e-16 -3.880404e-15) (2.341751e-08 -5.413635e-13 4.769818e-13))
1143.006615   	((3.610405e-11 1.449020e-11 -2.056409e-11) (5.665236e-12 2.863570e-12 -1.918402e-11)) ((2.870617e-12 -9.112775e-16 -3.552909e-15) (2.312315e-08 -5.305795e-13 3.701887e-13))
1271.216213   	((3.767549e-11 1.125537e-11 -2.157763e-11) (5.223926e-12 3.820530e-12 -1.915705e-11)) ((2.832052e-12 -1.247454e-15 -3.225401e-15) (2.287827e-08 -4.849352e-13 2.993016e-13))
1399.422768   	((3.226720e-11 1.065830e-11 -2.101191e-11) (6.523625e-12 4.416721e-12 -1.839981e-11)) ((2.800007e-12 -1.681944e-15 -3.020618e-15) (2.267421e-08 -4.231234e-13 2.496380e-13))
1527.630315   	((2.496733e-11 6.659715e-12 -2.307745e-11) (8.151263e-12 5.103270e-12 -1.753254e-11)) ((2.773577e-12 -2.018320e-15 -2.822720e-15) (2.250412e-08 -3.516281e-13 2.086870e-13))
1655.842664   	((2.049582e-11 4.371692e-12 -2.349952e-11) (9.730149e-12 5.183580e-12 -1.737003e-11)) ((2.751727e-12 -2.167695e-15 -2.576484e-15) (2.236162e-08 -2.751367e-13 1.725066e-13))
1784.061184   	((2.156187e-11 2.852518e-12 -2.334039e-11) (1.133720e-11 5.002983e-12 -1.731934e-11)) ((2.733426e-12 -2.312709e-15 -2.384361e-15) (2.224183e-08 -1.981024e-13 1.441310e-13))
1912.283531   	((2.354749e-11 2.703320e-12 -2.269097e-11) (1.376195e-11 4.633221e-12 -1.729185e-11)) ((2.717648e-12 -2.497536e-15 -2.180885e-15) (2.214072e-08 -1.300444e-13 1.262844e-13))
2040.511985   	((2.667617e-11 1.686167e-12 -2.309402e-11) (1.523150e-11 4.420308e-12 -1.684083e-11)) ((2.704543e-12 -2.594701e-15 -1.981417e-15) (2.205508e-08 -8.327278e-14 1.203314e-13))
2168.748518   	((2.729423e-11 4.585544e-13 -2.425607e-11) (1.623063e-11 4.221578e-12 -1.656419e-11)) ((2.693483e-12 -2.659187e-15 -1.837211e-15) (2.198205e-08 -4.903439e-14 1.155084e-13))
2296.994789   	((2.605305e-11 -8.998088e-13 -2.525967e-11) (1.638864e-11 4.389443e-12 -1.622255e-11)) ((2.684374e-12 -2.712627e-15 -1.745695e-15) (2.191945e-08 -2.928142e-14 1.115478e-13))
2425.25219    	((2.638788e-11 -1.736985e-12 -2.585768e-11) (1.649570e-11 4.830952e-12 -1.588418e-11)) ((2.676597e-12 -2.776080e-15 -1.652663e-15) (2.186548e-08 -1.669149e-14 1.077724e-13))
2553.521801   	((2.488476e-11 -1.958128e-12 -2.625679e-11) (1.655733e-11 5.171069e-12 -1.554969e-11)) ((2.669741e-12 -2.809342e-15 -1.590869e-15) (2.181878e-08 -8.296056e-15 1.038605e-13))
2681.804447   	((2.458701e-11 -2.912483e-12 -2.603765e-11) (1.661781e-11 5.367978e-12 -1.511310e-11)) ((2.663905e-12 -2.849491e-15 -1.546709e-15) (2.177823e-08 -6.165488e-17 9.998877e-14))
2810.096731   	((2.548182e-11 -3.516822e-12 -2.630981e-11) (1.648632e-11 5.605314e-12 -1.459217e-11)) ((2.658961e-12 -2.903319e-15 -1.511480e-15) (2.174291e-08 1.047731e-14 9.167196e-14))
2938.396406   	((2.642941e-11 -4.132599e-12 -2.678117e-11) (1.644809e-11 5.775567e-12 -1.411651e-11)) ((2.654551e-12 -2.943809e-15 -1.482503e-15) (2.171200e-08 2.293653e-14 8.317166e-14))
3066.703725   	((2.669906e-11 -4.292639e-12 -2.670034e-11) (1.667336e-11 5.870918e-12 -1.378776e-11)) ((2.650564e-12 -2.962586e-15 -1.455928e-15) (2.168484e-08 3.484578e-14 7.752590e-14))
