# Forces      
# CofR        : (0.000000e+00 0.000000e+00 0.000000e+00)
# Time        forces(pressure viscous)	moments(pressure viscous)
0             	((0.000000e+00 0.000000e+00 0.000000e+00) (-1.104097e-15 1.030065e-16 -1.592697e-05)) ((0.000000e+00 0.000000e+00 0.000000e+00) (-2.815487e-17 -6.075455e-12 -2.779364e-18))
0.012         	((9.721338e-10 2.012103e-09 -4.628727e-03) (1.364770e-11 1.475318e-11 -1.827904e-05)) ((-1.977276e-12 -1.226445e-09 -2.068903e-14) (1.265135e-13 -1.792048e-11 -7.390874e-16))
0.0264        	((-9.247283e-08 -9.521857e-08 3.182649e-04) (-5.139352e-11 -5.095793e-11 -1.865359e-05)) ((2.883472e-12 7.601451e-11 5.000524e-15) (1.104542e-13 -2.378742e-11 -4.604591e-14))
0.04368       	((9.378171e-08 7.957322e-08 9.691324e-04) (-4.798851e-11 -5.271905e-11 -1.658048e-05)) ((1.051562e-11 2.182677e-10 9.640237e-14) (-2.955536e-13 -2.426960e-11 -4.160361e-14))
0.064416      	((-2.849359e-09 -1.600934e-08 9.177772e-06) (-1.711353e-10 -1.317537e-10 -1.468814e-05)) ((-3.499823e-12 -3.277584e-12 -4.652621e-14) (1.301316e-12 -2.779466e-11 -3.208270e-14))
0.0892992     	((-1.449400e-08 1.129540e-08 -1.287435e-05) (-3.107060e-10 -2.187963e-10 -1.356101e-05)) ((-1.365458e-12 7.013989e-12 1.159220e-14) (2.621132e-13 -3.428627e-11 6.712196e-14))
0.119159      	((-1.077949e-08 -8.707129e-09 1.461816e-05) (-2.927518e-10 -2.058734e-10 -1.252152e-05)) ((-5.879644e-13 9.418529e-12 -1.355153e-13) (-1.742873e-12 -3.671165e-11 3.105623e-13))
0.154991      	((1.132178e-10 1.262531e-09 8.008425e-06) (-2.333990e-10 -1.698173e-10 -1.141949e-05)) ((4.472301e-13 8.170203e-12 -1.066540e-14) (-7.196662e-13 -3.561992e-11 5.372598e-13))
0.197989      	((-1.181405e-09 3.183960e-09 1.961138e-06) (-1.247993e-10 -9.794947e-11 -1.030706e-05)) ((-2.835365e-14 4.024285e-12 -1.749629e-14) (7.588585e-13 -3.125839e-11 6.885444e-13))
0.249587      	((2.056533e-11 -1.665977e-10 -2.385258e-07) (-3.907344e-11 -5.050698e-11 -9.215281e-06)) ((-1.754843e-13 2.466086e-12 1.589422e-14) (1.798817e-12 -2.747805e-11 6.819704e-13))
0.311504      	((1.937357e-10 1.014328e-10 -1.232789e-06) (1.232449e-11 -1.031757e-11 -8.176325e-06)) ((1.334994e-14 1.096466e-12 7.630776e-15) (2.135875e-12 -2.563275e-11 5.087089e-13))
0.385805      	((1.861613e-10 2.521228e-10 -1.702408e-06) (5.397149e-11 2.113394e-11 -7.216547e-06)) ((3.649313e-14 2.645762e-13 1.465093e-15) (2.153607e-12 -2.701562e-11 3.622804e-13))
0.474966      	((5.750009e-10 3.557384e-10 -1.924610e-06) (6.075558e-11 3.054090e-11 -6.355040e-06)) ((2.360662e-14 -2.201827e-13 1.747452e-17) (1.863759e-12 -2.742506e-11 2.843869e-13))
0.581959      	((4.812515e-10 1.640257e-10 -2.015372e-06) (3.575280e-11 3.045063e-11 -5.600155e-06)) ((1.313881e-14 -4.532840e-13 2.430055e-15) (1.509632e-12 -2.506403e-11 2.377690e-13))
0.710351      	((2.312415e-10 1.323479e-10 -2.009329e-06) (7.849638e-12 1.988266e-11 -4.952610e-06)) ((-5.640392e-16 -6.712785e-13 -8.273205e-16) (1.045418e-12 -1.963021e-11 1.708079e-13))
0.864421      	((1.030621e-10 4.625088e-11 -1.937944e-06) (6.185798e-12 1.797995e-11 -4.404589e-06)) ((2.650521e-15 -8.199472e-13 -6.035141e-16) (1.077384e-12 -1.255229e-11 1.483589e-13))
1.049306      	((-3.668677e-11 3.748246e-11 -1.831713e-06) (2.436325e-11 1.213221e-11 -3.942410e-06)) ((1.905320e-15 -9.210001e-13 -1.148152e-15) (1.209317e-12 -6.388760e-12 1.758360e-13))
1.271167      	((-9.207240e-11 2.053128e-11 -1.713276e-06) (4.119804e-11 2.240615e-12 -3.551565e-06)) ((3.566133e-15 -9.528977e-13 -1.273110e-15) (1.034650e-12 -1.512973e-12 1.901036e-13))
1.5374        	((-1.132140e-10 2.387455e-11 -1.592685e-06) (4.654699e-11 -8.010970e-13 -3.216602e-06)) ((2.540345e-15 -9.273439e-13 -1.359882e-15) (6.825190e-13 3.347104e-12 1.868611e-13))
1.85688       	((-8.729775e-11 2.115040e-11 -1.475055e-06) (4.703047e-11 1.850978e-13 -2.923502e-06)) ((3.242445e-15 -9.390918e-13 -1.420454e-15) (3.662791e-13 7.877878e-12 1.837418e-13))
2.240256      	((-9.306079e-11 3.596473e-12 -1.363319e-06) (3.847335e-11 1.059176e-12 -2.663061e-06)) ((3.202493e-15 -9.391634e-13 -1.429389e-15) (5.083380e-14 1.141487e-11 1.738201e-13))
2.700307      	((-1.204615e-10 -1.162005e-11 -1.258902e-06) (1.742922e-11 1.752320e-12 -2.429478e-06)) ((3.684524e-15 -9.342756e-13 -1.081973e-15) (-2.849463e-13 1.476421e-11 1.554852e-13))
3.252369      	((-1.700654e-10 -3.502619e-11 -1.161358e-06) (-3.984434e-12 2.221784e-12 -2.218936e-06)) ((4.042951e-15 -9.161745e-13 -8.841602e-16) (-5.727775e-13 1.770639e-11 1.405902e-13))
3.914842      	((-2.054558e-10 -5.688723e-11 -1.069557e-06) (-9.497499e-12 1.516365e-12 -2.028753e-06)) ((2.775378e-15 -8.665163e-13 -4.906263e-16) (-7.865198e-13 1.910745e-11 1.173331e-13))
4.709811      	((-1.795937e-10 -4.467354e-11 -9.840374e-07) (-9.472667e-13 -7.995957e-14 -1.857013e-06)) ((7.123139e-16 -8.074746e-13 -6.328609e-16) (-9.171785e-13 1.939023e-11 9.256175e-14))
5.663773      	((-1.058148e-10 -1.450300e-11 -9.050461e-07) (1.377293e-11 -5.578261e-13 -1.702289e-06)) ((-2.117470e-15 -7.484524e-13 -8.665017e-16) (-8.601022e-13 1.876312e-11 7.821049e-14))
6.808528      	((-7.617174e-11 3.443330e-12 -8.326557e-07) (2.752576e-11 -2.210223e-12 -1.563262e-06)) ((-3.790182e-15 -6.968120e-13 -7.760315e-16) (-6.897214e-13 1.783182e-11 7.267307e-14))
8.182233      	((-8.142313e-11 -1.252314e-11 -7.666166e-07) (4.571077e-11 -2.313464e-12 -1.438485e-06)) ((-2.440004e-15 -6.561634e-13 -5.739870e-16) (-6.317234e-13 1.632202e-11 5.249633e-14))
9.83068       	((-8.297278e-11 -3.909878e-11 -7.066977e-07) (5.773649e-11 -5.084545e-13 -1.326436e-06)) ((-9.062973e-16 -6.160514e-13 -5.286566e-16) (-9.182432e-13 1.493479e-11 3.987643e-14))
11.808816     	((-6.187182e-11 -4.126045e-11 -6.519134e-07) (6.254561e-11 1.689334e-12 -1.225522e-06)) ((-1.194131e-15 -5.726251e-13 -5.860464e-16) (-1.720772e-12 1.434626e-11 3.691172e-14))
14.182579     	((-5.738652e-11 -3.818796e-11 -6.018309e-07) (6.708034e-11 4.989585e-12 -1.134206e-06)) ((-2.979081e-15 -5.306509e-13 -6.746057e-16) (-2.926858e-12 1.420558e-11 1.426196e-14))
17.031095     	((-7.349501e-11 -6.311675e-11 -5.561832e-07) (6.611232e-11 4.241969e-12 -1.051224e-06)) ((-4.144927e-15 -4.949949e-13 -1.789896e-17) (-4.445731e-12 1.461281e-11 -2.939035e-14))
20.449314     	((-1.032120e-10 -1.061945e-10 -5.145359e-07) (5.882885e-11 2.058443e-12 -9.756497e-07)) ((-3.588140e-15 -4.646629e-13 3.020966e-16) (-5.979799e-12 1.520191e-11 -4.183070e-14))
24.551176     	((-1.084031e-10 -1.267801e-10 -4.766367e-07) (5.505774e-11 8.806251e-13 -9.068124e-07)) ((-4.334361e-15 -4.341952e-13 3.572017e-16) (-7.229648e-12 1.543705e-11 -2.402984e-14))
29.473411     	((-6.048059e-11 -8.829145e-11 -4.422555e-07) (5.032534e-11 1.713664e-12 -8.441821e-07)) ((-4.526828e-15 -4.065867e-13 1.317204e-16) (-8.329616e-12 1.556138e-11 -9.420471e-15))
35.380094     	((-5.447682e-11 -8.532519e-11 -4.110150e-07) (4.679559e-11 4.248327e-12 -7.873158e-07)) ((-4.155247e-15 -3.805198e-13 -1.094763e-17) (-9.387438e-12 1.572480e-11 5.813278e-15))
42.468112     	((-8.969697e-11 -1.151478e-10 -3.828811e-07) (4.276101e-11 5.236909e-12 -7.357808e-07)) ((-5.081191e-15 -3.551671e-13 -8.147112e-17) (-1.049382e-11 1.619085e-11 4.324332e-14))
50.973735     	((-8.634541e-11 -1.228832e-10 -3.576490e-07) (4.147727e-11 6.792299e-12 -6.891316e-07)) ((-6.161375e-15 -3.308889e-13 -1.267219e-17) (-1.189277e-11 1.715026e-11 7.351342e-14))
61.180482     	((-5.822931e-11 -9.174847e-11 -3.351198e-07) (4.006830e-11 1.082073e-11 -6.469228e-07)) ((-6.814219e-15 -3.089195e-13 1.500779e-18) (-1.370388e-11 1.854565e-11 9.222866e-14))
73.428578     	((-3.501136e-11 -6.193608e-11 -3.150494e-07) (4.419957e-11 1.603125e-11 -6.087034e-07)) ((-7.246435e-15 -2.895417e-13 5.540762e-17) (-1.589489e-11 2.054440e-11 9.893663e-14))
88.126294     	((-1.595918e-11 -4.296194e-11 -2.972699e-07) (4.724140e-11 2.212215e-11 -5.740955e-07)) ((-8.081752e-15 -2.710500e-13 3.387105e-17) (-1.847303e-11 2.302420e-11 6.928831e-14))
105.763553    	((1.142467e-11 -1.263087e-11 -2.816749e-07) (5.033491e-11 2.842392e-11 -5.427517e-07)) ((-8.947256e-15 -2.539490e-13 -5.053671e-17) (-2.126900e-11 2.571143e-11 3.388710e-14))
126.928263    	((3.274790e-11 1.086340e-11 -2.682028e-07) (5.193710e-11 3.471296e-11 -5.143889e-07)) ((-9.194990e-15 -2.387074e-13 -3.259435e-16) (-2.402856e-11 2.836957e-11 -1.806797e-15))
152.325916    	((4.667100e-11 3.321721e-11 -2.566704e-07) (5.113151e-11 3.975433e-11 -4.887934e-07)) ((-9.165817e-15 -2.253812e-13 -3.278030e-16) (-2.654444e-11 3.086472e-11 -4.955823e-14))
182.803099    	((6.271627e-11 5.198071e-11 -2.469755e-07) (5.014808e-11 4.401195e-11 -4.657962e-07)) ((-8.932968e-15 -2.137822e-13 -2.828545e-16) (-2.861914e-11 3.303645e-11 -7.876791e-14))
219.375719    	((9.649920e-11 8.444533e-11 -2.389034e-07) (4.971083e-11 4.789766e-11 -4.452473e-07)) ((-8.415913e-15 -2.039254e-13 -3.356257e-16) (-3.023009e-11 3.469398e-11 -9.066772e-14))
263.262863    	((1.240237e-10 1.074901e-10 -2.324204e-07) (4.955148e-11 5.107108e-11 -4.270190e-07)) ((-7.712307e-15 -1.953973e-13 -2.987338e-16) (-3.132389e-11 3.581521e-11 -8.862546e-14))
315.927436    	((1.364666e-10 1.211013e-10 -2.274073e-07) (4.973100e-11 5.396477e-11 -4.109957e-07)) ((-7.118830e-15 -1.874687e-13 -3.063714e-16) (-3.184930e-11 3.634181e-11 -9.382065e-14))
379.124923    	((1.457755e-10 1.350989e-10 -2.237159e-07) (4.962936e-11 5.636448e-11 -3.970682e-07)) ((-6.919751e-15 -1.802831e-13 -2.748983e-16) (-3.188305e-11 3.632855e-11 -9.760747e-14))
454.961908    	((1.533062e-10 1.484313e-10 -2.211672e-07) (4.936200e-11 5.835072e-11 -3.851150e-07)) ((-6.754204e-15 -1.744239e-13 -2.094916e-16) (-3.145554e-11 3.583759e-11 -8.851361e-14))
545.966289    	((1.610433e-10 1.591908e-10 -2.195219e-07) (4.890364e-11 6.029309e-11 -3.749927e-07)) ((-6.380528e-15 -1.695723e-13 -2.262239e-16) (-3.059751e-11 3.491903e-11 -7.511708e-14))
655.171547    	((1.600201e-10 1.656663e-10 -2.185170e-07) (4.952531e-11 6.288427e-11 -3.665285e-07)) ((-5.875188e-15 -1.653303e-13 -2.376183e-16) (-2.936519e-11 3.362741e-11 -6.223335e-14))
786.217856    	((1.538459e-10 1.646447e-10 -2.178967e-07) (5.135076e-11 6.592207e-11 -3.595209e-07)) ((-5.508646e-15 -1.624075e-13 -1.802849e-16) (-2.786712e-11 3.205620e-11 -5.196171e-14))
939.152549    	((1.447985e-10 1.576722e-10 -2.175021e-07) (5.440174e-11 6.934812e-11 -3.537810e-07)) ((-5.083661e-15 -1.601448e-13 -1.362008e-16) (-2.620895e-11 3.031236e-11 -4.218072e-14))
1113.994088   	((1.365397e-10 1.478009e-10 -2.171612e-07) (5.869619e-11 7.343767e-11 -3.490972e-07)) ((-4.700417e-15 -1.583528e-13 -1.512833e-16) (-2.449307e-11 2.847871e-11 -2.660611e-14))
1310.765323   	((1.298867e-10 1.383745e-10 -2.168547e-07) (6.396992e-11 7.797639e-11 -3.452921e-07)) ((-4.301392e-15 -1.571268e-13 -1.626903e-16) (-2.280072e-11 2.665584e-11 -1.179637e-14))
1529.490622   	((1.206979e-10 1.275835e-10 -2.165819e-07) (6.864404e-11 8.212827e-11 -3.422057e-07)) ((-4.034578e-15 -1.563270e-13 -1.936224e-16) (-2.118758e-11 2.493869e-11 -5.863090e-15))
1749.262735   	((1.080172e-10 1.147295e-10 -2.164022e-07) (7.193135e-11 8.505346e-11 -3.397314e-07)) ((-3.793630e-15 -1.558488e-13 -2.160130e-16) (-1.969788e-11 2.335971e-11 -5.050473e-15))
1969.237978   	((9.488100e-11 1.013727e-10 -2.162238e-07) (7.409599e-11 8.701363e-11 -3.377345e-07)) ((-3.591279e-15 -1.554870e-13 -2.265085e-16) (-1.831594e-11 2.190184e-11 -5.557734e-15))
2189.387618   	((8.262705e-11 8.821475e-11 -2.160798e-07) (7.510136e-11 8.800500e-11 -3.361327e-07)) ((-3.386414e-15 -1.552443e-13 -2.433039e-16) (-1.705984e-11 2.058431e-11 -6.171248e-15))
2409.684151   	((7.013811e-11 7.569910e-11 -2.159496e-07) (7.511397e-11 8.802766e-11 -3.348432e-07)) ((-3.205822e-15 -1.550450e-13 -2.610232e-16) (-1.592953e-11 1.939265e-11 -6.895991e-15))
2630.104078   	((5.850372e-11 6.422654e-11 -2.158423e-07) (7.444700e-11 8.735901e-11 -3.338075e-07)) ((-3.050617e-15 -1.548960e-13 -2.813371e-16) (-1.491649e-11 1.832058e-11 -7.085226e-15))
2850.626864   	((4.780770e-11 5.382074e-11 -2.157501e-07) (7.324906e-11 8.618101e-11 -3.329735e-07)) ((-2.887003e-15 -1.548035e-13 -2.883697e-16) (-1.401173e-11 1.736660e-11 -6.464626e-15))
3071.235222   	((3.814857e-11 4.437798e-11 -2.156751e-07) (7.166650e-11 8.463389e-11 -3.323027e-07)) ((-2.722901e-15 -1.547409e-13 -2.814958e-16) (-1.320951e-11 1.652364e-11 -5.474762e-15))
3291.914394   	((2.963531e-11 3.599896e-11 -2.156118e-07) (6.980341e-11 8.279729e-11 -3.317618e-07)) ((-2.589025e-15 -1.546866e-13 -2.756672e-16) (-1.250568e-11 1.578449e-11 -4.503819e-15))
3512.652077   	((2.206865e-11 2.860879e-11 -2.155601e-07) (6.775505e-11 8.076679e-11 -3.313258e-07)) ((-2.482335e-15 -1.546366e-13 -2.697090e-16) (-1.189455e-11 1.514311e-11 -3.513891e-15))
3733.437977   	((1.545847e-11 2.213578e-11 -2.155171e-07) (6.561784e-11 7.865846e-11 -3.309736e-07)) ((-2.393451e-15 -1.545967e-13 -2.649089e-16) (-1.136661e-11 1.459047e-11 -2.451336e-15))
3954.263579   	((9.712518e-12 1.654617e-11 -2.154818e-07) (6.350364e-11 7.656895e-11 -3.306890e-07)) ((-2.318123e-15 -1.545638e-13 -2.620021e-16) (-1.091273e-11 1.411527e-11 -1.634012e-15))
4175.121812   	((4.826930e-12 1.177255e-11 -2.154527e-07) (6.146276e-11 7.455887e-11 -3.304588e-07)) ((-2.255494e-15 -1.545370e-13 -2.606038e-16) (-1.052407e-11 1.370957e-11 -1.105441e-15))
4396.006848   	((6.993669e-13 7.710190e-12 -2.154287e-07) (5.954225e-11 7.266642e-11 -3.302725e-07)) ((-2.202807e-15 -1.545178e-13 -2.593781e-16) (-1.019352e-11 1.336508e-11 -7.054217e-16))
4616.913877   	((-2.767689e-12 4.295936e-12 -2.154091e-07) (5.777469e-11 7.092123e-11 -3.301216e-07)) ((-2.157815e-15 -1.545042e-13 -2.583066e-16) (-9.913683e-12 1.307322e-11 -3.295947e-16))
4837.838941   	((-5.659348e-12 1.430540e-12 -2.153929e-07) (5.617270e-11 6.933941e-11 -3.299993e-07)) ((-2.119367e-15 -1.544967e-13 -2.574353e-16) (-9.677477e-12 1.282699e-11 5.064999e-17))
5058.778782   	((-8.071402e-12 -9.581868e-13 -2.153797e-07) (5.474366e-11 6.792805e-11 -3.299002e-07)) ((-2.087096e-15 -1.544923e-13 -2.565742e-16) (-9.478650e-12 1.261980e-11 4.026409e-16))
5279.730724   	((-1.008702e-11 -2.945696e-12 -2.153688e-07) (5.348284e-11 6.668249e-11 -3.298197e-07)) ((-2.061254e-15 -1.544896e-13 -2.557801e-16) (-9.312013e-12 1.244619e-11 7.040839e-16))
5500.692569   	((-1.176831e-11 -4.571177e-12 -2.153599e-07) (5.238094e-11 6.559388e-11 -3.297543e-07)) ((-2.039656e-15 -1.544881e-13 -2.554006e-16) (-9.172803e-12 1.230118e-11 9.743436e-16))
5721.662515   	((-1.314633e-11 -5.925816e-12 -2.153526e-07) (5.142721e-11 6.465282e-11 -3.297013e-07)) ((-2.021069e-15 -1.544877e-13 -2.550675e-16) (-9.056781e-12 1.218038e-11 1.218264e-15))
5942.639085   	((-1.427668e-11 -7.046837e-12 -2.153466e-07) (5.060825e-11 6.384430e-11 -3.296581e-07)) ((-2.006002e-15 -1.544866e-13 -2.551638e-16) (-8.960417e-12 1.208003e-11 1.430923e-15))
6163.621068   	((-1.519783e-11 -7.968201e-12 -2.153418e-07) (4.991035e-11 6.315587e-11 -3.296230e-07)) ((-1.993320e-15 -1.544863e-13 -2.552713e-16) (-8.880533e-12 1.199689e-11 1.606538e-15))
6384.607472   	((-1.595263e-11 -8.720920e-12 -2.153378e-07) (4.932050e-11 6.257353e-11 -3.295945e-07)) ((-1.982904e-15 -1.544857e-13 -2.556086e-16) (-8.814499e-12 1.192815e-11 1.761955e-15))
6605.597486   	((-1.656373e-11 -9.339233e-12 -2.153345e-07) (4.882566e-11 6.208523e-11 -3.295713e-07)) ((-1.974383e-15 -1.544859e-13 -2.554872e-16) (-8.759944e-12 1.187140e-11 1.884973e-15))
6826.590446   	((-1.706895e-11 -9.837207e-12 -2.153318e-07) (4.841197e-11 6.167716e-11 -3.295524e-07)) ((-1.967427e-15 -1.544858e-13 -2.555342e-16) (-8.715016e-12 1.182466e-11 1.988458e-15))
7047.585809   	((-1.747856e-11 -1.023456e-11 -2.153296e-07) (4.806866e-11 6.133882e-11 -3.295370e-07)) ((-1.961147e-15 -1.544858e-13 -2.558370e-16) (-8.678055e-12 1.178619e-11 2.084647e-15))
7268.583132   	((-1.780959e-11 -1.055914e-11 -2.153278e-07) (4.778508e-11 6.105934e-11 -3.295245e-07)) ((-1.956467e-15 -1.544859e-13 -2.558424e-16) (-8.647664e-12 1.175459e-11 2.165903e-15))
7489.582053   	((-1.808207e-11 -1.081753e-11 -2.153264e-07) (4.755177e-11 6.082936e-11 -3.295143e-07)) ((-1.952573e-15 -1.544864e-13 -2.555325e-16) (-8.622693e-12 1.172864e-11 2.224251e-15))
7710.582276   	((-1.829515e-11 -1.104371e-11 -2.153253e-07) (4.736073e-11 6.064087e-11 -3.295060e-07)) ((-1.949128e-15 -1.544865e-13 -2.557169e-16) (-8.602238e-12 1.170739e-11 2.275856e-15))
7931.583562   	((-1.847096e-11 -1.121423e-11 -2.153243e-07) (4.720481e-11 6.048714e-11 -3.294992e-07)) ((-1.946732e-15 -1.544868e-13 -2.554988e-16) (-8.585454e-12 1.168995e-11 2.316529e-15))
8152.585713   	((-1.861812e-11 -1.136969e-11 -2.153234e-07) (4.707781e-11 6.036208e-11 -3.294937e-07)) ((-1.944234e-15 -1.544866e-13 -2.556252e-16) (-8.571719e-12 1.167569e-11 2.346478e-15))
8373.58857    	((-1.873273e-11 -1.146691e-11 -2.153228e-07) (4.697467e-11 6.026007e-11 -3.294892e-07)) ((-1.942938e-15 -1.544870e-13 -2.554937e-16) (-8.560458e-12 1.166399e-11 2.370990e-15))
8594.592002   	((-1.883675e-11 -1.157080e-11 -2.153222e-07) (4.689083e-11 6.017824e-11 -3.294855e-07)) ((-1.941149e-15 -1.544867e-13 -2.556029e-16) (-8.551257e-12 1.165444e-11 2.395329e-15))
8815.595903   	((-1.889822e-11 -1.168144e-11 -2.153218e-07) (4.682328e-11 6.010932e-11 -3.294825e-07)) ((-1.940514e-15 -1.544864e-13 -2.556258e-16) (-8.543722e-12 1.164660e-11 2.411088e-15))
9036.600185   	((-1.896846e-11 -1.170898e-11 -2.153214e-07) (4.676823e-11 6.005631e-11 -3.294801e-07)) ((-1.939293e-15 -1.544869e-13 -2.556426e-16) (-8.537527e-12 1.164019e-11 2.427464e-15))
