# Forces      
# CofR        : (0.000000e+00 0.000000e+00 0.000000e+00)
# Time        forces(pressure viscous)	moments(pressure viscous)
0             	((0.000000e+00 0.000000e+00 0.000000e+00) (0.000000e+00 0.000000e+00 0.000000e+00)) ((0.000000e+00 0.000000e+00 0.000000e+00) (0.000000e+00 0.000000e+00 0.000000e+00))
0.012         	((-6.140114e-10 1.825664e-09 4.331242e-07) (2.534496e-11 1.134804e-11 9.220370e-09)) ((-1.950734e-13 1.702096e-08 -3.471240e-15) (3.939147e-14 1.109977e-05 -6.663570e-13))
0.0264        	((7.998064e-10 -1.949100e-09 -1.615774e-07) (-1.211630e-12 2.491354e-11 1.603461e-08)) ((-3.075790e-14 8.735128e-09 8.439586e-13) (2.312323e-13 1.016783e-05 -1.000856e-12))
0.04368       	((1.300936e-10 1.103401e-08 1.498862e-07) (9.212579e-12 2.139118e-11 1.775003e-08)) ((1.003900e-13 5.086475e-09 4.951835e-13) (6.111673e-14 9.214280e-06 -1.003038e-12))
0.064416      	((9.921398e-09 -4.024397e-09 -1.553219e-09) (-1.524006e-10 -2.573603e-11 1.473027e-08)) ((-5.668525e-14 3.180617e-09 1.947486e-13) (-1.534301e-12 8.263397e-06 -1.681226e-12))
0.0892992     	((1.597944e-08 3.574882e-09 6.807806e-09) (-6.686272e-10 -7.427495e-11 1.189528e-08)) ((5.965660e-14 2.558685e-09 4.692991e-14) (-2.837323e-12 7.346230e-06 -2.629782e-12))
0.119159      	((4.380301e-09 -9.492442e-10 1.716355e-08) (-9.424474e-10 -1.208265e-10 1.019594e-08)) ((-1.172130e-13 2.017011e-09 -1.155669e-14) (-2.925268e-12 6.492984e-06 -2.618142e-12))
0.154991      	((-8.976563e-09 -2.300270e-09 -2.098031e-08) (-7.378180e-10 -1.689293e-10 8.498414e-09)) ((-1.057708e-13 1.694384e-09 7.215529e-14) (-3.229088e-12 5.724367e-06 -1.938141e-12))
0.197989      	((6.786009e-09 -3.568417e-10 5.456164e-09) (-2.064554e-10 -1.565995e-10 6.926797e-09)) ((-8.732003e-14 1.404593e-09 4.250651e-14) (-3.802904e-12 5.047602e-06 -1.637364e-12))
0.249587      	((-6.088689e-09 -1.260789e-09 -7.605129e-09) (2.989433e-10 -1.249392e-10 5.169412e-09)) ((2.244397e-14 1.209184e-09 1.065403e-13) (-3.938660e-12 4.460266e-06 -1.577070e-12))
0.311504      	((2.736029e-09 5.471171e-10 1.308033e-09) (1.024228e-09 -1.028371e-10 3.738387e-09)) ((-4.187893e-14 1.060204e-09 1.187616e-13) (-2.525527e-12 3.955289e-06 -9.504320e-13))
0.385805      	((1.181255e-08 -2.756364e-10 3.869014e-09) (1.811171e-09 -1.028120e-10 2.909935e-09)) ((-8.354675e-14 9.529610e-10 1.604170e-13) (-9.632230e-13 3.521377e-06 1.883863e-14))
0.474966      	((1.304535e-08 -1.956751e-10 -1.162022e-09) (2.059250e-09 -1.472068e-10 2.309778e-09)) ((-1.113870e-13 8.656903e-10 1.553522e-13) (-8.892592e-13 3.146523e-06 3.709692e-13))
0.581959      	((7.659297e-09 -6.509346e-10 -2.786701e-09) (1.533055e-09 -1.878210e-10 1.211445e-09)) ((-2.000998e-14 7.831703e-10 2.505017e-13) (-2.477646e-12 2.822026e-06 2.950407e-13))
0.710351      	((8.616462e-10 -1.312076e-09 3.557525e-10) (9.573163e-10 -1.407544e-10 5.017655e-10)) ((-5.943199e-14 7.014542e-10 2.940090e-13) (-3.177026e-12 2.539937e-06 -7.442704e-13))
0.864421      	((8.403166e-09 -1.147274e-09 1.666767e-08) (1.383615e-09 -6.347326e-11 6.936759e-10)) ((-1.476225e-13 6.360770e-10 2.794708e-13) (-2.731824e-12 2.293141e-06 -2.770686e-12))
1.049306      	((-6.374276e-09 -3.139233e-09 1.318722e-08) (1.320820e-09 -9.808029e-11 4.792604e-10)) ((-6.065006e-14 5.848014e-10 1.665827e-13) (-4.051592e-12 2.075425e-06 -2.796938e-12))
1.271167      	((-4.476477e-09 -1.363654e-09 9.772484e-09) (1.019933e-09 -7.895715e-11 7.045947e-10)) ((5.521259e-14 5.377365e-10 3.002318e-13) (-3.434155e-12 1.881937e-06 -2.295511e-12))
1.5374        	((-2.090412e-09 -7.362697e-10 8.059493e-09) (1.355225e-09 -1.439409e-10 4.390201e-10)) ((-1.897116e-14 4.908765e-10 3.284472e-13) (1.668381e-12 1.709434e-06 -1.061381e-12))
1.85688       	((-6.610713e-10 1.717679e-09 1.599873e-08) (1.715900e-09 -3.154409e-10 -3.549501e-10)) ((-1.223602e-13 4.439604e-10 2.774251e-13) (6.963432e-12 1.556096e-06 2.177296e-12))
2.240256      	((3.490926e-10 2.438258e-09 1.708962e-08) (1.182092e-09 -3.822275e-10 -4.224707e-10)) ((-2.821921e-13 4.038506e-10 7.564069e-14) (7.560477e-12 1.420831e-06 2.386740e-12))
2.700307      	((4.541757e-09 1.393643e-09 1.621975e-08) (1.402418e-09 -1.744736e-10 4.153879e-10)) ((-2.684482e-13 3.681730e-10 7.248120e-14) (1.214671e-11 1.302405e-06 -3.607962e-12))
3.252369      	((5.841169e-09 8.461141e-10 1.349131e-08) (1.011333e-09 -1.325260e-10 4.727864e-10)) ((-1.070490e-13 3.336294e-10 -4.006476e-14) (1.903353e-11 1.198974e-06 -6.534719e-12))
3.914842      	((5.555235e-09 2.579973e-09 2.800891e-09) (7.349027e-10 -6.429238e-11 5.121239e-10)) ((8.985093e-14 2.997684e-10 -7.264794e-14) (1.795226e-11 1.108203e-06 -9.377648e-12))
4.709811      	((6.672043e-09 3.245026e-09 4.968303e-09) (1.378029e-09 -5.998676e-11 1.182083e-09)) ((2.171548e-13 2.688401e-10 3.382343e-14) (1.782969e-11 1.027727e-06 -1.939685e-11))
5.663773      	((5.374248e-09 3.342559e-09 2.496107e-09) (1.726155e-09 -2.171310e-10 2.489590e-09)) ((3.719630e-13 2.412081e-10 -1.237631e-13) (1.130882e-11 9.555530e-07 -2.869487e-11))
6.808528      	((2.273237e-09 2.481109e-09 3.256683e-09) (1.213917e-09 -4.006553e-10 3.516420e-09)) ((3.391075e-13 2.163439e-10 -9.958945e-14) (5.073447e-12 8.902191e-07 -3.455908e-11))
8.182233      	((9.705108e-10 1.142169e-09 1.557053e-09) (-5.002479e-10 -6.503142e-10 3.227400e-09)) ((2.656704e-13 1.943802e-10 -8.587780e-14) (5.863176e-12 8.306695e-07 -3.521435e-11))
9.83068       	((5.405504e-10 -3.328923e-10 2.005115e-09) (-1.518872e-09 -6.488285e-10 2.935610e-09)) ((2.625303e-13 1.752401e-10 -4.714458e-14) (3.558327e-12 7.760991e-07 -2.842342e-11))
11.808816     	((4.629531e-10 -1.295703e-10 1.458964e-09) (-1.666257e-09 -4.076562e-10 2.141434e-09)) ((3.687277e-13 1.571815e-10 -1.696744e-14) (-2.022499e-12 7.258685e-07 -1.858155e-11))
14.182579     	((2.385672e-09 -7.650234e-10 4.289882e-10) (-1.832919e-09 -3.537083e-10 2.115696e-09)) ((4.636469e-13 1.424996e-10 3.224273e-15) (-9.382537e-12 6.796828e-07 -5.180147e-12))
17.031095     	((1.074187e-09 6.656383e-11 8.665770e-10) (-1.086718e-09 -3.877773e-10 2.151503e-09)) ((4.962009e-13 1.302822e-10 3.495304e-14) (-2.102451e-11 6.375523e-07 5.306177e-12))
20.449314     	((-6.370054e-10 -5.136734e-10 -6.726996e-10) (-1.215132e-09 -4.147037e-10 1.592758e-09)) ((5.459910e-13 1.197428e-10 3.997605e-14) (-3.120942e-11 5.995398e-07 1.300930e-11))
24.551176     	((-1.615357e-09 -1.010816e-10 -9.778792e-10) (-1.956589e-09 -2.627773e-10 1.590283e-09)) ((4.982361e-13 1.104401e-10 -6.231893e-14) (-3.492489e-11 5.655954e-07 2.102779e-11))
29.473411     	((-5.410483e-10 -6.426255e-10 -1.046715e-09) (-1.249277e-09 -2.809704e-10 1.451390e-09)) ((4.309799e-13 1.025822e-10 -3.862311e-14) (-4.012677e-11 5.354231e-07 2.873580e-11))
35.380094     	((-2.869275e-09 -3.506164e-10 -3.058058e-09) (-1.507757e-09 -3.450046e-10 1.031436e-09)) ((3.263588e-13 9.623975e-11 -7.410247e-14) (-4.415831e-11 5.086683e-07 3.591040e-11))
42.468112     	((-3.408811e-09 -5.970660e-10 -1.956464e-09) (-1.251188e-09 -4.037711e-10 2.248509e-09)) ((2.720003e-13 9.067459e-11 -6.561535e-14) (-4.607930e-11 4.850670e-07 4.224499e-11))
50.839589     	((-3.993644e-09 -3.093366e-10 -1.990755e-09) (-1.495794e-09 -4.048793e-10 1.866534e-09)) ((2.705052e-13 8.561280e-11 -5.616217e-14) (-4.556737e-11 4.645950e-07 4.503682e-11))
60.494387     	((-4.006491e-09 -5.672856e-10 -2.230988e-10) (-2.067572e-09 -2.399650e-10 1.888394e-09)) ((2.556599e-13 8.091527e-11 -5.713635e-14) (-4.448865e-11 4.471442e-07 4.052588e-11))
71.43234      	((-3.726773e-09 -9.031170e-10 1.682107e-09) (-1.991714e-09 -3.293034e-10 2.280891e-09)) ((2.061705e-13 7.664608e-11 -1.423774e-14) (-4.409044e-11 4.325439e-07 3.191118e-11))
83.653242     	((-2.328108e-09 -1.096147e-09 2.981011e-09) (-1.312474e-09 -4.172412e-10 2.599766e-09)) ((1.718132e-13 7.293437e-11 1.527192e-15) (-4.411752e-11 4.206630e-07 2.447587e-11))
96.480258     	((-2.037688e-09 -8.553200e-10 2.819378e-09) (-1.408346e-09 -4.545095e-10 2.391286e-09)) ((1.069910e-13 6.985513e-11 1.686499e-14) (-4.461915e-11 4.115673e-07 2.091002e-11))
109.304296    	((-5.215853e-10 -9.842934e-10 3.221869e-09) (-9.268483e-10 -4.764330e-10 2.383557e-09)) ((7.763041e-14 6.747187e-11 2.841617e-14) (-4.623692e-11 4.050425e-07 2.064303e-11))
122.125089    	((5.769379e-10 -1.079442e-09 3.228407e-09) (-8.523101e-11 -4.405882e-10 2.511875e-09)) ((7.187096e-14 6.585522e-11 2.414537e-14) (-4.783588e-11 4.007235e-07 2.465088e-11))
134.942425    	((1.159998e-09 -1.091372e-09 3.124672e-09) (-2.281180e-10 -4.207213e-10 2.284436e-09)) ((7.275593e-14 6.481099e-11 1.841070e-14) (-4.876894e-11 3.983114e-07 3.097698e-11))
147.756001    	((1.551002e-09 -1.089859e-09 2.919426e-09) (2.494546e-10 -5.041693e-10 2.608641e-09)) ((8.672469e-14 6.429190e-11 1.360872e-14) (-4.728408e-11 3.975568e-07 3.775159e-11))
160.565619    	((2.241042e-09 -9.340724e-10 3.189240e-09) (9.265258e-10 -5.457391e-10 2.651039e-09)) ((1.090563e-13 6.415651e-11 1.011128e-14) (-4.411682e-11 3.982739e-07 4.368606e-11))
173.370869    	((2.015723e-09 -7.285849e-10 2.559365e-09) (1.360276e-09 -5.249011e-10 2.651618e-09)) ((1.182612e-13 6.420814e-11 1.605378e-14) (-4.049483e-11 4.002985e-07 4.743726e-11))
186.171243    	((1.943530e-09 -6.664486e-10 2.027690e-09) (1.525934e-09 -5.362491e-10 2.496538e-09)) ((1.780009e-13 6.452386e-11 2.821820e-14) (-3.743552e-11 4.034558e-07 4.948033e-11))
198.966432    	((2.037721e-09 -4.470178e-10 2.374936e-09) (1.697021e-09 -4.957983e-10 2.260152e-09)) ((1.944103e-13 6.514745e-11 3.202126e-14) (-3.443904e-11 4.075471e-07 4.911261e-11))
211.756208    	((1.613715e-09 -2.920749e-10 2.135827e-09) (1.682077e-09 -4.511532e-10 2.139773e-09)) ((2.157963e-13 6.578943e-11 4.440559e-14) (-3.216642e-11 4.123468e-07 4.693200e-11))
224.540383    	((1.403312e-09 -3.975529e-10 2.516768e-09) (1.564322e-09 -4.335351e-10 2.083323e-09)) ((2.366336e-13 6.654020e-11 4.545111e-14) (-3.113390e-11 4.176198e-07 4.376761e-11))
237.318715    	((9.512502e-10 -4.103990e-10 2.670536e-09) (1.342753e-09 -4.405877e-10 1.960362e-09)) ((2.547368e-13 6.746593e-11 4.120070e-14) (-3.179518e-11 4.231291e-07 4.104743e-11))
250.0909      	((1.035807e-09 -2.487167e-10 2.513064e-09) (1.136897e-09 -4.625704e-10 1.750962e-09)) ((2.772274e-13 6.851132e-11 4.451664e-14) (-3.431480e-11 4.286369e-07 3.962168e-11))
262.856593    	((1.011666e-09 -2.228516e-10 2.088931e-09) (1.016831e-09 -5.298455e-10 1.662908e-09)) ((3.124501e-13 6.977773e-11 4.601161e-14) (-3.787179e-11 4.339067e-07 3.977678e-11))
275.615464    	((1.505852e-09 -8.358735e-11 2.187823e-09) (1.000773e-09 -6.047795e-10 1.724377e-09)) ((3.320680e-13 7.102262e-11 4.187972e-14) (-4.114663e-11 4.387358e-07 4.138108e-11))
288.277512    	((1.179319e-09 -4.943475e-11 1.333235e-09) (1.046835e-09 -6.643232e-10 1.689765e-09)) ((3.543420e-13 7.207317e-11 4.049988e-14) (-4.311708e-11 4.429418e-07 4.389300e-11))
300.828955    	((1.305130e-09 -2.993182e-10 9.101835e-10) (1.013130e-09 -7.407443e-10 1.689524e-09)) ((3.593408e-13 7.300402e-11 3.575269e-14) (-4.349031e-11 4.463971e-07 4.647643e-11))
