# Forces      
# CofR        : (0.000000e+00 0.000000e+00 0.000000e+00)
# Time        forces(pressure viscous)	moments(pressure viscous)
0             	((0.000000e+00 0.000000e+00 0.000000e+00) (4.860079e-13 -7.982463e-03 1.154919e-12)) ((0.000000e+00 0.000000e+00 0.000000e+00) (-2.606347e-14 1.442157e-15 2.512597e-09))
0.012         	((2.692723e-06 -2.346131e+00 2.922869e-06) (3.127420e-09 -9.840961e-03 -3.677115e-08)) ((2.784891e-10 -3.292080e-11 4.235006e-07) (9.214514e-10 -1.411968e-12 4.972266e-10))
0.0264        	((1.557207e-06 4.917120e-01 -7.039538e-07) (1.330592e-08 -9.799572e-03 -9.346425e-08)) ((-9.184620e-09 -5.529408e-10 -4.203866e-08) (-2.961826e-09 -2.844913e-11 -6.618501e-09))
0.04368       	((1.062138e-05 2.891997e-01 2.918505e-05) (3.092817e-08 -8.353882e-03 -7.070611e-08)) ((5.847344e-09 5.748761e-10 -1.115510e-07) (-2.613340e-09 -3.571144e-11 -1.844668e-08))
0.064416      	((-1.673015e-05 1.239529e-04 -2.761586e-05) (-2.181089e-07 -7.370474e-03 -7.119385e-08)) ((2.224635e-10 8.805278e-12 1.636904e-08) (3.574908e-10 -7.105773e-11 -2.537279e-08))
0.0892992     	((-3.268698e-05 2.081888e-03 -1.152407e-05) (-1.618090e-06 -6.779206e-03 -9.187554e-08)) ((-8.796407e-10 -1.358316e-10 -5.340753e-09) (5.832584e-11 -1.686263e-10 -2.677291e-08))
0.119159      	((-3.876636e-05 3.212472e-04 -4.379911e-06) (-2.272563e-06 -6.288022e-03 -1.175068e-07)) ((-8.413971e-10 -3.879339e-11 -4.938829e-09) (-2.896531e-10 -1.631250e-10 -3.349358e-08))
0.154991      	((-3.258261e-05 -2.031114e-03 -2.267256e-06) (-2.563656e-06 -5.869778e-03 -1.587117e-07)) ((-3.735539e-10 1.666873e-11 -3.632912e-09) (-1.795280e-10 1.189786e-10 -4.086453e-08))
0.197989      	((-2.795391e-05 -2.903324e-03 -3.282964e-06) (-3.042355e-06 -5.526916e-03 -1.435761e-07)) ((-3.594139e-11 1.412057e-11 3.924379e-09) (4.751480e-11 1.522565e-10 -4.654962e-08))
0.249587      	((-1.391601e-05 -3.405368e-03 -7.758621e-07) (-2.761230e-06 -5.240641e-03 -8.687661e-08)) ((4.899118e-12 -3.531695e-11 6.875613e-09) (-1.797965e-10 2.158786e-10 -5.875956e-08))
0.311504      	((-9.506424e-06 -3.742433e-03 -5.519051e-07) (-2.445687e-06 -4.983864e-03 -3.024862e-08)) ((-5.874106e-11 6.838497e-11 5.004520e-09) (2.180899e-10 2.372561e-10 -7.018752e-08))
0.385805      	((-1.025832e-05 -4.073321e-03 -7.838908e-08) (-2.369525e-06 -4.742239e-03 -2.756008e-08)) ((-4.906051e-11 -1.983091e-12 6.412057e-09) (5.379753e-10 2.082442e-10 -7.042591e-08))
0.474966      	((-7.816922e-06 -4.490877e-03 -8.335380e-07) (-2.115252e-06 -4.512912e-03 -6.398816e-08)) ((-6.743186e-11 -2.673039e-11 9.685782e-09) (2.214514e-10 1.473887e-10 -6.821992e-08))
0.581959      	((-2.764645e-06 -5.048601e-03 -5.712372e-07) (-1.670353e-06 -4.299177e-03 -7.720510e-08)) ((-7.187916e-11 -2.702344e-11 1.296656e-08) (-3.635548e-10 1.204869e-10 -7.150611e-08))
0.709879      	((6.459689e-07 -5.788534e-03 -7.084770e-07) (-1.154398e-06 -4.106103e-03 -7.167453e-08)) ((-1.004146e-10 -3.686514e-11 1.610670e-08) (-9.552718e-10 1.267476e-10 -7.809717e-08))
0.858642      	((7.137067e-06 -6.737264e-03 -2.190747e-07) (-5.369280e-07 -3.938288e-03 -3.574651e-08)) ((-7.999134e-11 -3.983251e-11 2.023395e-08) (-1.378287e-09 1.520662e-10 -8.700995e-08))
1.028107      	((1.324666e-05 -7.870366e-03 2.799038e-07) (1.417329e-07 -3.796016e-03 -1.438285e-09)) ((-5.076715e-11 -2.015368e-11 2.525344e-08) (-1.615644e-09 1.771313e-10 -1.003594e-07))
1.218116      	((1.953498e-05 -9.188244e-03 1.211524e-06) (7.439903e-07 -3.679290e-03 -1.739306e-09)) ((1.979000e-11 -3.877320e-11 3.073500e-08) (-1.718114e-09 1.504079e-10 -1.200186e-07))
1.42161       	((2.700537e-05 -1.058279e-02 2.537307e-06) (1.191416e-06 -3.587598e-03 -2.401373e-08)) ((7.258473e-11 -3.479188e-11 3.605078e-08) (-6.355081e-10 1.030925e-10 -1.489806e-07))
1.622736      	((3.189116e-05 -1.194390e-02 3.901850e-06) (1.177155e-06 -3.512435e-03 -7.371475e-08)) ((5.985226e-11 -7.550785e-11 4.033031e-08) (2.645084e-09 7.035950e-11 -1.833992e-07))
1.821649      	((3.582488e-05 -1.316592e-02 5.938083e-06) (9.816279e-07 -3.445054e-03 -1.137482e-07)) ((6.966433e-11 -1.147670e-10 4.414233e-08) (7.016714e-09 1.216277e-10 -2.101646e-07))
2.018936      	((4.081737e-05 -1.419840e-02 7.475611e-06) (1.000855e-06 -3.385935e-03 -8.443865e-08)) ((7.572101e-11 -2.761032e-10 4.721965e-08) (8.590374e-09 1.249597e-10 -2.298601e-07))
2.215724      	((4.623804e-05 -1.496770e-02 9.918862e-06) (1.137629e-06 -3.334235e-03 4.260806e-08)) ((2.195093e-11 -3.628186e-10 5.058800e-08) (5.149040e-09 -2.585942e-11 -2.425912e-07))
2.412827      	((5.230673e-05 -1.547857e-02 1.270055e-05) (1.228432e-06 -3.287095e-03 2.229783e-07)) ((6.986172e-11 -3.751887e-10 5.408293e-08) (-8.194038e-10 -6.140949e-11 -2.446707e-07))
2.61012       	((5.697998e-05 -1.565236e-02 1.302480e-05) (1.098439e-06 -3.243639e-03 3.387918e-07)) ((1.369692e-10 -4.076978e-10 5.661641e-08) (-4.498985e-09 -2.185297e-11 -2.472431e-07))
2.807042      	((6.362122e-05 -1.559157e-02 1.304501e-05) (9.721866e-07 -3.203699e-03 3.723584e-07)) ((5.580640e-11 -4.684938e-10 5.842895e-08) (-5.506693e-09 5.169347e-11 -2.457943e-07))
3.003236      	((6.989098e-05 -1.542830e-02 1.282606e-05) (9.823450e-07 -3.167612e-03 3.677290e-07)) ((1.092257e-10 -5.248674e-10 5.911724e-08) (-4.721002e-09 1.086957e-10 -2.363533e-07))
3.198729      	((7.969062e-05 -1.522738e-02 1.435355e-05) (1.032087e-06 -3.136773e-03 3.897398e-07)) ((1.245948e-10 -5.723847e-10 5.915804e-08) (-4.460615e-09 1.190518e-11 -2.294747e-07))
3.393736      	((8.653504e-05 -1.500274e-02 1.674905e-05) (1.187521e-06 -3.110778e-03 4.779211e-07)) ((1.096219e-10 -5.674310e-10 5.992210e-08) (-6.189955e-09 1.221117e-10 -2.223481e-07))
3.588425      	((9.703458e-05 -1.482001e-02 1.893249e-05) (1.584023e-06 -3.087706e-03 5.591955e-07)) ((2.459617e-10 -6.157271e-10 6.132229e-08) (-7.159878e-09 1.723670e-10 -2.089053e-07))
3.782836      	((1.079220e-04 -1.468575e-02 2.097063e-05) (2.142947e-06 -3.066482e-03 6.029831e-07)) ((2.831716e-10 -5.931636e-10 6.261466e-08) (-6.294692e-09 3.886457e-11 -1.923024e-07))
3.976947      	((1.195933e-04 -1.454270e-02 2.039969e-05) (2.664570e-06 -3.046986e-03 6.063683e-07)) ((1.474865e-10 -5.786040e-10 6.362191e-08) (-4.330194e-09 2.793173e-10 -1.765895e-07))
4.17078       	((1.335350e-04 -1.438799e-02 2.668075e-05) (3.062744e-06 -3.029205e-03 6.349794e-07)) ((1.623491e-10 -5.792665e-10 6.409686e-08) (-2.132913e-09 6.220787e-10 -1.671551e-07))
4.364384      	((1.463782e-04 -1.420585e-02 2.828722e-05) (3.418880e-06 -3.012545e-03 6.972147e-07)) ((1.205829e-10 -5.558237e-10 6.402568e-08) (1.570679e-10 9.157166e-10 -1.605539e-07))
4.557768      	((1.605452e-04 -1.405924e-02 3.244643e-05) (3.828681e-06 -2.997000e-03 7.616759e-07)) ((1.343739e-10 -4.845936e-10 6.362529e-08) (3.341823e-09 1.207067e-09 -1.551558e-07))
4.750848      	((1.756542e-04 -1.392924e-02 3.828413e-05) (4.225140e-06 -2.982584e-03 8.467056e-07)) ((1.648089e-10 -4.432835e-10 6.321090e-08) (6.694713e-09 1.828739e-09 -1.521717e-07))
4.943622      	((1.944266e-04 -1.381281e-02 4.454093e-05) (4.596079e-06 -2.968990e-03 9.695694e-07)) ((2.170377e-10 -4.274942e-10 6.297841e-08) (9.912342e-09 2.443366e-09 -1.514466e-07))
5.136112      	((2.171035e-04 -1.371613e-02 5.106192e-05) (4.999975e-06 -2.956241e-03 1.105854e-06)) ((3.139983e-10 -3.701037e-10 6.293602e-08) (1.343429e-08 2.650076e-09 -1.530681e-07))
5.328342      	((2.432923e-04 -1.363020e-02 5.784811e-05) (5.426654e-06 -2.944513e-03 1.223212e-06)) ((3.801627e-10 -3.034916e-10 6.309070e-08) (1.851586e-08 2.556212e-09 -1.605544e-07))
5.52034       	((2.715586e-04 -1.355452e-02 6.414376e-05) (5.888901e-06 -2.933822e-03 1.318361e-06)) ((4.315668e-10 -2.400891e-10 6.343426e-08) (2.475365e-08 2.481979e-09 -1.729884e-07))
5.712117      	((3.079636e-04 -1.348611e-02 7.228608e-05) (6.482641e-06 -2.923914e-03 1.431290e-06)) ((4.874106e-10 -1.642503e-10 6.381980e-08) (3.083429e-08 2.804912e-09 -1.866614e-07))
5.903689      	((3.478264e-04 -1.341279e-02 8.083361e-05) (7.213448e-06 -2.914451e-03 1.599822e-06)) ((5.444031e-10 -4.954259e-11 6.420483e-08) (3.626872e-08 3.094062e-09 -2.023372e-07))
6.095069      	((3.884444e-04 -1.333612e-02 8.878430e-05) (8.061913e-06 -2.905305e-03 1.826027e-06)) ((5.496111e-10 7.748905e-11 6.450833e-08) (4.061752e-08 2.608066e-09 -2.191799e-07))
6.286269      	((4.315524e-04 -1.326182e-02 9.758533e-05) (9.047759e-06 -2.896436e-03 2.057160e-06)) ((5.993947e-10 1.592653e-10 6.471694e-08) (4.454463e-08 1.403745e-09 -2.355761e-07))
6.477301      	((4.767423e-04 -1.319723e-02 1.081719e-04) (1.017841e-05 -2.887914e-03 2.289202e-06)) ((6.995569e-10 2.097703e-10 6.485883e-08) (4.860107e-08 3.111338e-12 -2.519044e-07))
6.668173      	((5.273506e-04 -1.314198e-02 1.172774e-04) (1.143651e-05 -2.879816e-03 2.548333e-06)) ((7.567830e-10 2.456724e-10 6.499140e-08) (5.179266e-08 -1.108308e-09 -2.686209e-07))
6.858893      	((5.828514e-04 -1.309961e-02 1.274797e-04) (1.282935e-05 -2.872101e-03 2.832977e-06)) ((8.157836e-10 2.851126e-10 6.512087e-08) (5.447236e-08 -1.278163e-09 -2.855053e-07))
7.049456      	((6.423790e-04 -1.306388e-02 1.398860e-04) (1.437079e-05 -2.864757e-03 3.144618e-06)) ((8.780928e-10 3.170023e-10 6.527871e-08) (5.677535e-08 -5.801199e-10 -3.039796e-07))
7.239857      	((7.043888e-04 -1.303412e-02 1.536864e-04) (1.603725e-05 -2.857798e-03 3.511187e-06)) ((9.899205e-10 3.248509e-10 6.541755e-08) (5.935780e-08 4.144018e-10 -3.265274e-07))
7.4301        	((7.708771e-04 -1.300219e-02 1.684410e-04) (1.780658e-05 -2.851172e-03 3.898842e-06)) ((1.137781e-09 3.302401e-10 6.551013e-08) (6.434849e-08 1.445102e-09 -3.521028e-07))
7.620194      	((8.451346e-04 -1.296625e-02 1.837443e-04) (1.972197e-05 -2.844845e-03 4.314377e-06)) ((1.247964e-09 3.524248e-10 6.561140e-08) (6.990358e-08 2.016488e-09 -3.783146e-07))
7.810142      	((9.261753e-04 -1.292707e-02 2.021127e-04) (2.182354e-05 -2.838834e-03 4.789671e-06)) ((1.376633e-09 3.762629e-10 6.572935e-08) (7.366574e-08 2.097913e-09 -4.051795e-07))
7.999948      	((1.013213e-03 -1.288498e-02 2.217951e-04) (2.413337e-05 -2.833143e-03 5.321643e-06)) ((1.517009e-09 3.837444e-10 6.589430e-08) (7.679438e-08 1.994563e-09 -4.317119e-07))
8.189618      	((1.109067e-03 -1.284259e-02 2.446713e-04) (2.666258e-05 -2.827706e-03 5.904972e-06)) ((1.649961e-09 3.427777e-10 6.609614e-08) (8.126591e-08 1.990299e-09 -4.577523e-07))
8.379155      	((1.214026e-03 -1.280418e-02 2.691945e-04) (2.944234e-05 -2.822486e-03 6.519759e-06)) ((1.778424e-09 2.789027e-10 6.630788e-08) (8.833325e-08 2.329674e-09 -4.841159e-07))
8.568564      	((1.328271e-03 -1.276686e-02 2.970003e-04) (3.248670e-05 -2.817472e-03 7.195081e-06)) ((1.948076e-09 2.575883e-10 6.649489e-08) (9.614463e-08 2.814592e-09 -5.134047e-07))
8.757853      	((1.451714e-03 -1.273275e-02 3.250115e-04) (3.576371e-05 -2.812647e-03 7.929622e-06)) ((2.127603e-09 2.634069e-10 6.665409e-08) (1.040774e-07 3.150604e-09 -5.484441e-07))
8.947026      	((1.588067e-03 -1.270110e-02 3.554777e-04) (3.928866e-05 -2.808042e-03 8.723923e-06)) ((2.322867e-09 2.364509e-10 6.679566e-08) (1.130259e-07 3.705419e-09 -5.893266e-07))
9.136086      	((1.735226e-03 -1.267668e-02 3.896427e-04) (4.309932e-05 -2.803722e-03 9.618502e-06)) ((2.491095e-09 2.381480e-10 6.694948e-08) (1.225166e-07 4.943990e-09 -6.346845e-07))
9.325037      	((1.897922e-03 -1.265261e-02 4.246260e-04) (4.722337e-05 -2.799680e-03 1.059183e-05)) ((2.622826e-09 2.681929e-10 6.710293e-08) (1.330003e-07 6.775363e-09 -6.854065e-07))
9.513886      	((2.081732e-03 -1.263021e-02 4.652260e-04) (5.176267e-05 -2.795900e-03 1.161955e-05)) ((2.858435e-09 2.831288e-10 6.729202e-08) (1.462710e-07 8.694860e-09 -7.422626e-07))
9.702639      	((2.286093e-03 -1.260812e-02 5.124624e-04) (5.679508e-05 -2.792302e-03 1.274143e-05)) ((3.139020e-09 2.212506e-10 6.750351e-08) (1.628029e-07 1.034400e-08 -8.073709e-07))
9.891302      	((2.516695e-03 -1.259107e-02 5.664017e-04) (6.237115e-05 -2.788846e-03 1.398684e-05)) ((3.435399e-09 8.047485e-11 6.774427e-08) (1.816690e-07 1.160274e-08 -8.830303e-07))
10.079882     	((2.775808e-03 -1.258298e-02 6.281783e-04) (6.859588e-05 -2.785601e-03 1.538209e-05)) ((3.734445e-09 -1.249918e-10 6.802683e-08) (2.027203e-07 1.252548e-08 -9.693374e-07))
10.268384     	((3.065806e-03 -1.258282e-02 7.005472e-04) (7.555512e-05 -2.782613e-03 1.698900e-05)) ((4.063363e-09 -3.646356e-10 6.833025e-08) (2.260767e-07 1.344058e-08 -1.067411e-06))
10.456814     	((3.387389e-03 -1.258900e-02 7.837051e-04) (8.326886e-05 -2.779863e-03 1.888703e-05)) ((4.401865e-09 -6.317640e-10 6.862389e-08) (2.515024e-07 1.483936e-08 -1.178010e-06))
10.645177     	((3.739368e-03 -1.260586e-02 8.773776e-04) (9.177091e-05 -2.777474e-03 2.112058e-05)) ((4.796483e-09 -9.872997e-10 6.886061e-08) (2.782805e-07 1.735460e-08 -1.299384e-06))
10.83348      	((4.121483e-03 -1.263323e-02 9.773494e-04) (1.011463e-04 -2.775683e-03 2.365817e-05)) ((5.291231e-09 -1.425190e-09 6.899474e-08) (3.044196e-07 2.019607e-08 -1.427229e-06))
11.021725     	((4.540749e-03 -1.266764e-02 1.086508e-03) (1.115284e-04 -2.774514e-03 2.648285e-05)) ((6.009466e-09 -1.983407e-09 6.903273e-08) (3.305976e-07 2.338273e-08 -1.561020e-06))
11.20992      	((5.002624e-03 -1.271557e-02 1.212959e-03) (1.230443e-04 -2.773769e-03 2.963590e-05)) ((7.057862e-09 -2.626444e-09 6.895322e-08) (3.615016e-07 2.609393e-08 -1.707964e-06))
11.39807      	((5.511294e-03 -1.277656e-02 1.353975e-03) (1.358324e-04 -2.773383e-03 3.313871e-05)) ((8.271240e-09 -3.436365e-09 6.878965e-08) (4.003604e-07 2.719476e-08 -1.869802e-06))
11.586181     	((6.064087e-03 -1.285582e-02 1.510790e-03) (1.501072e-04 -2.773536e-03 3.707182e-05)) ((9.636634e-09 -4.357582e-09 6.860009e-08) (4.446047e-07 2.737451e-08 -2.041330e-06))
11.774257     	((6.663603e-03 -1.295708e-02 1.679871e-03) (1.659596e-04 -2.774430e-03 4.146372e-05)) ((1.091897e-08 -5.176780e-09 6.842639e-08) (4.924385e-07 2.700988e-08 -2.225146e-06))
11.962304     	((7.311390e-03 -1.308401e-02 1.863024e-03) (1.833357e-04 -2.776180e-03 4.626611e-05)) ((1.212201e-08 -5.918670e-09 6.828133e-08) (5.459711e-07 2.661063e-08 -2.429036e-06))
12.150321     	((8.007445e-03 -1.325212e-02 2.061683e-03) (2.022198e-04 -2.779113e-03 5.149589e-05)) ((1.338455e-08 -6.722684e-09 6.810800e-08) (6.080584e-07 2.683345e-08 -2.650601e-06))
12.338308     	((8.751771e-03 -1.345482e-02 2.277262e-03) (2.227603e-04 -2.783457e-03 5.722777e-05)) ((1.489023e-08 -7.777989e-09 6.772531e-08) (6.751222e-07 2.769598e-08 -2.882239e-06))
12.526277     	((9.553584e-03 -1.371604e-02 2.509082e-03) (2.451252e-04 -2.789414e-03 6.347633e-05)) ((1.659260e-08 -9.128975e-09 6.726171e-08) (7.442420e-07 2.793402e-08 -3.125650e-06))
12.714235     	((1.040649e-02 -1.404099e-02 2.756471e-03) (2.693481e-04 -2.797169e-03 7.028802e-05)) ((1.845405e-08 -1.075027e-08 6.666751e-08) (8.174836e-07 2.747699e-08 -3.390248e-06))
12.902196     	((1.131334e-02 -1.442117e-02 3.023086e-03) (2.953427e-04 -2.807018e-03 7.775500e-05)) ((2.038022e-08 -1.264307e-08 6.588630e-08) (8.957078e-07 2.887277e-08 -3.678250e-06))
13.090172     	((1.227561e-02 -1.486232e-02 3.301999e-03) (3.234664e-04 -2.819430e-03 8.591249e-05)) ((2.216884e-08 -1.492155e-08 6.497337e-08) (9.741877e-07 3.269893e-08 -3.965662e-06))
13.278093     	((1.327177e-02 -1.536504e-02 3.593276e-03) (3.538620e-04 -2.834755e-03 9.480315e-05)) ((2.386876e-08 -1.723021e-08 6.390204e-08) (1.049823e-06 3.841838e-08 -4.240304e-06))
13.4656       	((1.428577e-02 -1.593399e-02 3.883506e-03) (3.861872e-04 -2.853082e-03 1.043981e-04)) ((2.523642e-08 -1.981697e-08 6.282552e-08) (1.115803e-06 4.522741e-08 -4.508239e-06))
13.652638     	((1.530305e-02 -1.657185e-02 4.167076e-03) (4.201742e-04 -2.874316e-03 1.145777e-04)) ((2.640754e-08 -2.260010e-08 6.174218e-08) (1.169137e-06 5.555463e-08 -4.772396e-06))
13.839229     	((1.628842e-02 -1.728583e-02 4.447718e-03) (4.555244e-04 -2.898679e-03 1.251772e-04)) ((2.711663e-08 -2.563680e-08 6.074346e-08) (1.211578e-06 7.143683e-08 -5.026690e-06))
14.025372     	((1.720949e-02 -1.806410e-02 4.708502e-03) (4.918236e-04 -2.926480e-03 1.359170e-04)) ((2.721583e-08 -2.871745e-08 5.994774e-08) (1.241913e-06 9.001599e-08 -5.253511e-06))
14.211069     	((1.803360e-02 -1.888195e-02 4.933986e-03) (5.283286e-04 -2.957749e-03 1.465151e-04)) ((2.678724e-08 -3.173376e-08 5.927413e-08) (1.260465e-06 1.115918e-07 -5.441702e-06))
14.396338     	((1.872300e-02 -1.969726e-02 5.117422e-03) (5.640720e-04 -2.992408e-03 1.567405e-04)) ((2.607548e-08 -3.451949e-08 5.876410e-08) (1.266618e-06 1.377769e-07 -5.584302e-06))
14.581286     	((1.921450e-02 -2.048507e-02 5.238026e-03) (5.982062e-04 -3.029661e-03 1.662238e-04)) ((2.513908e-08 -3.665526e-08 5.840683e-08) (1.261455e-06 1.660642e-07 -5.662022e-06))
14.766079     	((1.948040e-02 -2.119154e-02 5.291728e-03) (6.293765e-04 -3.068190e-03 1.744884e-04)) ((2.415834e-08 -3.813261e-08 5.804334e-08) (1.249548e-06 1.920918e-07 -5.678425e-06))
14.950917     	((1.946594e-02 -2.175676e-02 5.246709e-03) (6.562791e-04 -3.106013e-03 1.809529e-04)) ((2.255839e-08 -3.872490e-08 5.759950e-08) (1.236439e-06 2.150871e-07 -5.633314e-06))
15.135996     	((1.912495e-02 -2.214531e-02 5.096540e-03) (6.772902e-04 -3.141267e-03 1.851113e-04)) ((2.064501e-08 -3.808549e-08 5.669167e-08) (1.219644e-06 2.412778e-07 -5.520693e-06))
15.321519     	((1.837964e-02 -2.227366e-02 4.832702e-03) (6.904219e-04 -3.172154e-03 1.865786e-04)) ((1.878621e-08 -3.580390e-08 5.503702e-08) (1.190429e-06 2.746095e-07 -5.324022e-06))
15.507696     	((1.718992e-02 -2.209821e-02 4.459363e-03) (6.931039e-04 -3.196779e-03 1.848153e-04)) ((1.692446e-08 -3.157504e-08 5.270216e-08) (1.151145e-06 3.117360e-07 -5.051939e-06))
15.694788     	((1.552934e-02 -2.161380e-02 3.960254e-03) (6.826274e-04 -3.213578e-03 1.791681e-04)) ((1.478560e-08 -2.515838e-08 5.007989e-08) (1.110003e-06 3.513710e-07 -4.732302e-06))
15.883137     	((1.336096e-02 -2.082702e-02 3.358102e-03) (6.561571e-04 -3.221455e-03 1.691649e-04)) ((1.220838e-08 -1.623519e-08 4.745617e-08) (1.070206e-06 4.007265e-07 -4.398755e-06))
16.072031     	((1.077367e-02 -1.984268e-02 2.664643e-03) (6.119775e-04 -3.220787e-03 1.548708e-04)) ((7.819255e-09 -6.357812e-09 4.629992e-08) (1.026959e-06 4.522896e-07 -4.073382e-06))
16.261171     	((7.870009e-03 -1.885119e-02 1.900594e-03) (5.509638e-04 -3.214284e-03 1.366457e-04)) ((8.495760e-10 2.849567e-09 4.673194e-08) (9.724479e-07 4.872389e-07 -3.722924e-06))
16.450589     	((4.829556e-03 -1.798554e-02 1.136427e-03) (4.762946e-04 -3.204489e-03 1.148000e-04)) ((-7.780616e-09 9.315964e-09 4.634839e-08) (9.281195e-07 4.908514e-07 -3.335481e-06))
16.640338     	((1.934648e-03 -1.732237e-02 4.128869e-04) (3.923463e-04 -3.193519e-03 9.040470e-05)) ((-1.604337e-08 1.303926e-08 4.392060e-08) (8.965849e-07 4.757606e-07 -2.913189e-06))
16.830474     	((-6.141314e-04 -1.686329e-02 -2.026977e-04) (3.049114e-04 -3.184386e-03 6.543746e-05)) ((-2.093683e-08 1.296530e-08 3.982351e-08) (8.633498e-07 4.613304e-07 -2.418938e-06))
17.021026     	((-2.781603e-03 -1.665110e-02 -7.160051e-04) (2.198531e-04 -3.179805e-03 4.153863e-05)) ((-2.264220e-08 1.170998e-08 3.695554e-08) (8.225052e-07 4.449184e-07 -1.819728e-06))
17.211987     	((-4.472324e-03 -1.659449e-02 -1.083727e-03) (1.402084e-04 -3.179957e-03 2.013626e-05)) ((-2.220073e-08 9.447458e-09 4.071785e-08) (7.586744e-07 4.271872e-07 -1.169870e-06))
17.403334     	((-5.710891e-03 -1.660213e-02 -1.350233e-03) (6.915203e-05 -3.183467e-03 2.406464e-06)) ((-2.004175e-08 7.608712e-09 4.880960e-08) (6.379609e-07 4.051620e-07 -4.929156e-07))
17.594947     	((-6.590996e-03 -1.663090e-02 -1.528490e-03) (1.044208e-05 -3.189744e-03 -1.119108e-05)) ((-1.722472e-08 7.121932e-09 5.641142e-08) (4.538400e-07 3.854451e-07 2.827930e-07))
17.786767     	((-7.142710e-03 -1.661808e-02 -1.626340e-03) (-3.697849e-05 -3.196679e-03 -2.103384e-05)) ((-1.389928e-08 7.595630e-09 5.976820e-08) (2.351310e-07 3.752585e-07 1.051418e-06))
17.978753     	((-7.459151e-03 -1.659830e-02 -1.673780e-03) (-7.506711e-05 -3.201967e-03 -2.796730e-05)) ((-1.009571e-08 8.335394e-09 6.054085e-08) (1.369574e-08 3.703948e-07 1.705910e-06))
