# Forces      
# CofR        : (0.000000e+00 0.000000e+00 0.000000e+00)
# Time        forces(pressure viscous)	moments(pressure viscous)
0             	((0.000000e+00 0.000000e+00 0.000000e+00) (0.000000e+00 0.000000e+00 0.000000e+00)) ((0.000000e+00 0.000000e+00 0.000000e+00) (0.000000e+00 0.000000e+00 0.000000e+00))
0.012         	((-2.124638e-11 3.587575e-11 8.618250e-09) (-4.190216e-16 1.898879e-13 1.810529e-10)) ((-3.888839e-15 3.353014e-10 -1.756970e-16) (3.999534e-16 2.214511e-07 -1.309351e-14))
0.0264        	((3.571341e-11 -3.813846e-11 -3.239907e-09) (-2.064270e-14 5.362510e-13 3.148468e-10)) ((-8.229731e-16 1.679080e-10 1.633081e-14) (5.930451e-15 2.028324e-07 -1.850314e-14))
0.04368       	((1.222118e-10 2.064644e-10 3.002764e-09) (2.738664e-13 4.086212e-13 3.414066e-10)) ((3.006412e-15 9.269445e-11 1.054360e-14) (-9.928599e-15 1.837004e-07 -2.653162e-14))
0.064416      	((-3.360628e-11 -5.726776e-11 1.110259e-10) (8.285726e-13 -2.825823e-13 2.820439e-10)) ((-1.499068e-17 5.285731e-11 -6.869856e-16) (-3.390674e-14 1.644739e-07 -3.496466e-14))
0.0892992     	((1.111092e-10 6.421722e-11 3.722853e-10) (9.981859e-13 -9.996738e-13 2.337501e-10)) ((-8.367458e-16 3.931396e-11 -7.109317e-17) (-4.657044e-14 1.457145e-07 -3.618114e-14))
0.119159      	((-3.400076e-11 -1.660592e-11 9.383812e-11) (1.055724e-12 -1.735919e-12 1.982594e-10)) ((3.981546e-16 2.826964e-11 -5.325207e-17) (-6.145951e-14 1.280004e-07 -4.173201e-14))
0.154991      	((-3.534216e-11 -4.028969e-11 -2.470206e-10) (9.999053e-13 -2.746851e-12 1.598195e-10)) ((-5.703206e-16 2.238236e-11 1.726605e-15) (-8.033538e-14 1.117403e-07 -4.991678e-14))
0.197989      	((-3.424053e-11 -2.696689e-11 2.214273e-11) (1.005940e-12 -3.590391e-12 1.251881e-10)) ((-8.727452e-16 1.782416e-11 1.735022e-15) (-9.216129e-14 9.732595e-08 -5.683029e-14))
0.249587      	((-5.886804e-12 -2.806281e-11 -2.349814e-10) (1.367754e-12 -4.030719e-12 9.952599e-11)) ((-1.294810e-15 1.471240e-11 -5.339331e-16) (-9.303111e-14 8.496759e-08 -5.013434e-14))
0.311504      	((-1.738710e-11 8.124117e-12 -4.773194e-11) (1.521422e-12 -4.332499e-12 7.786203e-11)) ((-1.204393e-15 1.226485e-11 -1.604940e-15) (-8.688240e-14 7.463441e-08 -3.342104e-14))
0.385805      	((-2.803420e-11 2.090510e-11 8.164181e-12) (1.909669e-12 -4.423168e-12 5.961979e-11)) ((-3.953540e-16 1.053132e-11 -2.850476e-15) (-8.031694e-14 6.610404e-08 -2.488676e-14))
0.474966      	((-3.446582e-11 -5.024252e-12 5.570665e-11) (1.978152e-12 -4.663653e-12 4.259033e-11)) ((6.593547e-17 9.388545e-12 -1.874382e-15) (-7.776540e-14 5.904163e-08 -5.256179e-15))
0.581959      	((-6.495574e-11 -2.880943e-11 -5.628183e-11) (1.494925e-12 -4.874762e-12 2.864458e-11)) ((-7.114467e-16 8.411219e-12 -8.206232e-16) (-8.524454e-14 5.310069e-08 1.843165e-14))
0.710351      	((-8.111296e-11 -3.955704e-11 1.189214e-10) (1.385279e-12 -3.514585e-12 2.520945e-11)) ((-1.669838e-15 7.470559e-12 -9.094377e-16) (-8.041949e-14 4.799542e-08 -8.338157e-15))
0.864421      	((-7.686260e-11 -3.493496e-11 6.548905e-11) (2.843297e-12 3.326252e-13 2.221340e-11)) ((-1.994842e-15 6.837487e-12 4.590989e-16) (-4.400466e-14 4.352280e-08 -5.912286e-14))
1.049306      	((-8.795471e-11 -3.403887e-11 1.101690e-11) (3.338182e-12 3.897616e-12 1.409306e-11)) ((-2.848640e-15 6.435503e-12 9.654003e-16) (2.452377e-14 3.954827e-08 -9.706964e-14))
1.271167      	((-1.482318e-10 -2.711297e-11 1.255481e-10) (4.528835e-12 5.606421e-12 5.421069e-12)) ((-1.024205e-15 6.025243e-12 1.678128e-15) (1.115936e-13 3.598081e-08 -8.061901e-14))
1.5374        	((-1.226670e-10 1.042268e-11 1.389693e-10) (8.710586e-12 6.140391e-12 -5.879890e-12)) ((1.202229e-15 5.549242e-12 2.537054e-15) (1.900733e-13 3.276122e-08 -2.069331e-14))
1.85688       	((-1.352922e-10 -1.473796e-11 9.381100e-11) (1.251011e-11 6.341110e-12 -2.257101e-11)) ((3.261919e-15 5.117719e-12 1.447085e-15) (2.953634e-13 2.985741e-08 1.056314e-13))
2.240256      	((-1.422166e-10 -4.971293e-12 1.098151e-10) (1.772576e-11 5.050304e-12 -3.426310e-11)) ((4.114420e-15 4.831795e-12 1.302059e-15) (4.053793e-13 2.725282e-08 2.955117e-13))
2.700307      	((-1.512143e-10 -4.370752e-12 8.382689e-11) (2.476282e-11 2.974439e-12 -4.097329e-11)) ((2.887489e-15 4.625749e-12 1.467556e-15) (5.798529e-13 2.493560e-08 6.264431e-13))
3.252369      	((-1.132085e-10 -8.095501e-12 3.843706e-11) (3.485439e-11 8.600891e-13 -6.034065e-11)) ((3.096820e-15 4.413801e-12 1.360007e-15) (8.201426e-13 2.288952e-08 1.007353e-12))
3.914842      	((-5.457766e-11 -7.217232e-12 1.131748e-11) (4.914195e-11 -2.025371e-12 -8.963911e-11)) ((2.027212e-15 4.170809e-12 2.497041e-15) (9.816250e-13 2.109008e-08 1.231666e-12))
4.709811      	((-3.425540e-11 5.265043e-14 -2.361882e-11) (6.288629e-11 -4.523460e-12 -1.019570e-10)) ((2.462327e-15 3.908055e-12 2.040681e-15) (1.112437e-12 1.950348e-08 1.389168e-12))
5.663773      	((3.222734e-12 -6.167605e-12 2.324280e-11) (6.985361e-11 -2.963944e-12 -9.663662e-11)) ((2.754761e-15 3.629212e-12 7.927103e-17) (1.211460e-12 1.809214e-08 1.360312e-12))
6.808528      	((3.308358e-11 -9.831960e-12 1.235765e-11) (6.799886e-11 -1.035667e-12 -9.170377e-11)) ((2.590992e-15 3.339388e-12 -1.161522e-15) (1.209512e-12 1.682297e-08 1.246715e-12))
8.182233      	((2.865210e-11 -1.230439e-11 5.164306e-12) (6.160554e-11 -2.277428e-12 -8.002105e-11)) ((2.638384e-15 3.060157e-12 -7.700723e-16) (1.059775e-12 1.567048e-08 1.138450e-12))
9.83068       	((1.755070e-11 -7.774585e-12 6.978152e-12) (5.189384e-11 -3.111705e-12 -5.974261e-11)) ((2.457884e-15 2.775605e-12 -9.530971e-16) (8.619078e-13 1.461538e-08 1.001792e-12))
11.808816     	((1.049747e-11 -7.257763e-12 2.593382e-11) (4.014072e-11 1.005630e-13 -3.681908e-11)) ((1.535733e-15 2.521470e-12 -1.997340e-15) (6.804436e-13 1.364431e-08 7.521754e-13))
14.182579     	((-2.146320e-11 2.974482e-12 2.345743e-11) (2.745054e-11 5.003474e-12 -2.374268e-11)) ((1.419034e-15 2.291631e-12 -2.732981e-15) (5.133171e-13 1.274923e-08 4.330549e-13))
17.031095     	((-1.010437e-11 6.344212e-14 1.869233e-11) (1.954447e-11 6.698427e-12 -1.683316e-11)) ((8.575637e-16 2.093601e-12 -3.287037e-15) (3.804109e-13 1.192598e-08 2.240406e-13))
20.449314     	((-2.000845e-11 3.359400e-12 1.990744e-11) (1.383829e-11 4.443856e-12 -1.069372e-11)) ((7.937104e-16 1.917103e-12 -3.565561e-15) (2.620445e-13 1.117200e-08 1.496594e-13))
24.551176     	((-1.346003e-12 5.593128e-12 2.707333e-11) (8.561171e-12 1.988133e-12 -9.331207e-12)) ((1.202233e-15 1.761371e-12 -3.331077e-15) (1.727557e-13 1.048327e-08 1.053828e-13))
29.473411     	((-4.265419e-12 3.156922e-12 3.233584e-11) (6.433859e-12 1.208624e-12 -1.126734e-11)) ((1.243477e-15 1.629889e-12 -2.849891e-15) (1.295039e-13 9.855256e-09 5.314434e-14))
35.380094     	((-4.312802e-12 4.171443e-12 3.070813e-11) (6.279986e-12 1.296882e-13 -1.311342e-11)) ((1.316154e-15 1.512388e-12 -2.646419e-15) (1.074202e-13 9.282686e-09 1.873688e-14))
42.468112     	((-5.954666e-12 2.717960e-12 2.420544e-11) (6.872482e-12 -1.099127e-12 -1.501261e-11)) ((1.202292e-15 1.410632e-12 -2.196801e-15) (1.060904e-13 8.760755e-09 1.994813e-14))
50.973735     	((-1.870379e-12 4.401885e-12 1.698287e-11) (6.015179e-12 -1.780135e-12 -1.606167e-11)) ((1.367689e-15 1.320109e-12 -1.662782e-15) (1.270638e-13 8.285272e-09 5.170260e-14))
61.180482     	((-9.764349e-13 -5.482014e-13 1.843328e-11) (5.320065e-12 -2.063663e-12 -1.703660e-11)) ((9.967324e-16 1.239027e-12 -1.300126e-15) (1.692221e-13 7.852421e-09 1.018102e-13))
73.428578     	((5.013525e-12 4.426570e-13 1.526518e-11) (5.654370e-12 -2.213954e-12 -1.959098e-11)) ((8.834237e-16 1.165036e-12 -8.570514e-16) (1.962769e-13 7.459008e-09 1.226288e-13))
88.126294     	((9.544408e-12 -1.392655e-12 1.669398e-11) (5.982438e-12 -1.647153e-12 -2.080022e-11)) ((7.745599e-16 1.099145e-12 -3.349813e-16) (2.173495e-13 7.102060e-09 1.261837e-13))
105.763553    	((8.474194e-12 -1.622859e-12 9.168999e-12) (5.996001e-12 -1.118018e-12 -2.098756e-11)) ((6.676602e-16 1.039167e-12 -7.879489e-17) (2.267481e-13 6.778819e-09 1.348669e-13))
126.928263    	((3.002753e-12 -1.744052e-12 7.870469e-12) (6.836877e-12 -9.862554e-13 -2.231999e-11)) ((5.783663e-16 9.856020e-13 1.486934e-17) (2.193012e-13 6.486306e-09 1.457502e-13))
152.325916    	((3.732456e-12 -1.673807e-12 6.992643e-12) (8.316972e-12 -8.587490e-13 -2.561954e-11)) ((5.555980e-16 9.381185e-13 1.480545e-16) (2.065634e-13 6.221488e-09 1.480907e-13))
182.803099    	((3.910838e-12 -1.711692e-12 5.734064e-12) (1.035140e-11 -5.308682e-13 -2.851776e-11)) ((6.466494e-16 8.947421e-13 2.106766e-16) (1.921660e-13 5.981445e-09 1.522482e-13))
219.375719    	((6.135930e-12 -1.678231e-12 3.086788e-12) (1.250043e-11 -2.120468e-13 -3.021751e-11)) ((8.027323e-16 8.549272e-13 2.381027e-16) (1.924022e-13 5.763488e-09 1.647531e-13))
263.262863    	((4.981044e-12 -6.711396e-13 1.148855e-12) (1.321986e-11 1.672509e-13 -3.199514e-11)) ((9.451021e-16 8.182909e-13 2.366069e-16) (1.943756e-13 5.565477e-09 1.614066e-13))
315.927436    	((6.648368e-12 5.307846e-13 3.583083e-13) (1.337423e-11 6.024570e-13 -3.227634e-11)) ((1.137876e-15 7.843373e-13 3.396212e-16) (1.935417e-13 5.385670e-09 1.569000e-13))
379.124923    	((7.794838e-12 5.243220e-13 1.510446e-12) (1.304527e-11 7.441092e-13 -3.199160e-11)) ((1.197323e-15 7.528373e-13 4.240285e-16) (1.920257e-13 5.222599e-09 1.530516e-13))
454.961908    	((8.428653e-12 1.559342e-12 1.228065e-12) (1.275478e-11 5.459124e-13 -3.209484e-11)) ((1.042215e-15 7.244224e-13 4.509444e-16) (1.857131e-13 5.074895e-09 1.541239e-13))
545.966289    	((7.807204e-12 8.068583e-13 2.042960e-12) (1.257877e-11 3.698813e-13 -3.201617e-11)) ((9.919370e-16 6.987232e-13 4.092505e-16) (1.809309e-13 4.941455e-09 1.581024e-13))
655.171547    	((7.069103e-12 2.437060e-13 7.034579e-13) (1.250846e-11 1.889026e-13 -3.218647e-11)) ((8.571679e-16 6.765489e-13 3.365292e-16) (1.788230e-13 4.821330e-09 1.598936e-13))
786.217856    	((7.819013e-12 2.385733e-13 9.036119e-13) (1.237156e-11 -1.736785e-14 -3.226086e-11)) ((6.940410e-16 6.569988e-13 2.540468e-16) (1.737722e-13 4.713677e-09 1.627471e-13))
943.473427    	((9.510177e-12 5.539848e-13 2.177883e-12) (1.253077e-11 -1.328992e-13 -3.131334e-11)) ((6.294745e-16 6.395225e-13 1.871359e-16) (1.629566e-13 4.617667e-09 1.649395e-13))
1132.180113   	((1.036470e-11 1.325223e-12 2.816583e-12) (1.280979e-11 3.505049e-14 -3.023272e-11)) ((5.219226e-16 6.241097e-13 8.457191e-17) (1.552777e-13 4.532431e-09 1.633049e-13))
1358.628135   	((1.011501e-11 1.703093e-12 2.979593e-12) (1.294532e-11 8.389192e-14 -2.896387e-11)) ((4.231813e-16 6.103930e-13 5.815542e-17) (1.505248e-13 4.457116e-09 1.534696e-13))
1630.365763   	((8.690940e-12 1.529934e-12 1.941672e-12) (1.316040e-11 1.098944e-14 -2.789721e-11)) ((3.530240e-16 5.981397e-13 6.261495e-17) (1.459938e-13 4.390891e-09 1.419174e-13))
1956.450915   	((6.080762e-12 1.499203e-12 4.814498e-13) (1.341402e-11 -2.131483e-14 -2.689626e-11)) ((2.800341e-16 5.875238e-13 6.167553e-17) (1.421196e-13 4.332935e-09 1.348297e-13))
2346.891869   	((3.676525e-12 6.967570e-13 -1.072417e-13) (1.337292e-11 -2.727941e-14 -2.632633e-11)) ((2.292980e-16 5.784333e-13 6.305324e-17) (1.364204e-13 4.282472e-09 1.314968e-13))
2801.69352    	((1.942759e-12 1.634975e-13 1.585020e-13) (1.305082e-11 -8.517247e-14 -2.599865e-11)) ((1.812589e-16 5.707034e-13 9.096535e-17) (1.289290e-13 4.238846e-09 1.298280e-13))
3320.860986   	((7.159853e-13 9.236937e-14 1.869884e-13) (1.258716e-11 -1.551594e-13 -2.570303e-11)) ((1.685279e-16 5.642114e-13 1.279722e-16) (1.211558e-13 4.201390e-09 1.258361e-13))
3904.399334   	((-2.053094e-13 5.553251e-14 3.065583e-13) (1.211989e-11 -2.023317e-13 -2.524571e-11)) ((1.660863e-16 5.586965e-13 1.603476e-16) (1.148998e-13 4.169440e-09 1.211621e-13))
4548.156229   	((-1.336937e-12 7.781047e-14 8.968045e-13) (1.168887e-11 -2.502861e-13 -2.460525e-11)) ((1.847979e-16 5.539489e-13 1.920622e-16) (1.089784e-13 4.142334e-09 1.170447e-13))
5191.957567   	((-2.417878e-12 6.547062e-14 1.555817e-12) (1.137430e-11 -2.809047e-13 -2.399634e-11)) ((2.097050e-16 5.499263e-13 2.233129e-16) (1.030544e-13 4.119542e-09 1.134267e-13))
5835.797636   	((-3.089876e-12 1.510285e-13 2.129782e-12) (1.113814e-11 -3.066662e-13 -2.348143e-11)) ((2.368171e-16 5.465326e-13 2.384601e-16) (9.755491e-14 4.100456e-09 1.104557e-13))
6479.672153   	((-3.474081e-12 3.760298e-13 2.353601e-12) (1.095816e-11 -3.159413e-13 -2.308288e-11)) ((2.599725e-16 5.437453e-13 2.453031e-16) (9.250920e-14 4.084525e-09 1.079111e-13))
7123.576832   	((-3.855165e-12 5.628691e-13 2.336977e-12) (1.081209e-11 -3.072714e-13 -2.273764e-11)) ((2.816737e-16 5.414138e-13 2.517339e-16) (8.794158e-14 4.071233e-09 1.055908e-13))
7767.507807   	((-4.144478e-12 7.214488e-13 2.192944e-12) (1.068587e-11 -2.837011e-13 -2.246162e-11)) ((2.988823e-16 5.394775e-13 2.487419e-16) (8.380903e-14 4.060154e-09 1.039770e-13))
8411.46149    	((-4.382925e-12 8.018589e-13 2.151039e-12) (1.059775e-11 -2.524767e-13 -2.227571e-11)) ((3.164337e-16 5.378321e-13 2.475971e-16) (8.024411e-14 4.050907e-09 1.025987e-13))
9055.434743   	((-4.488363e-12 9.068958e-13 1.993419e-12) (1.055240e-11 -2.230195e-13 -2.217857e-11)) ((3.281846e-16 5.364690e-13 2.439368e-16) (7.722804e-14 4.043185e-09 1.016041e-13))
9699.424762   	((-4.478779e-12 9.936705e-13 1.761594e-12) (1.052782e-11 -2.012856e-13 -2.212412e-11)) ((3.339985e-16 5.353223e-13 2.401441e-16) (7.468827e-14 4.036727e-09 1.010235e-13))
10343.42909   	((-4.511853e-12 1.067180e-12 1.638769e-12) (1.049508e-11 -1.866975e-13 -2.206810e-11)) ((3.395817e-16 5.343650e-13 2.370650e-16) (7.262119e-14 4.031323e-09 1.006492e-13))
10987.44559   	((-4.551363e-12 1.100584e-12 1.555580e-12) (1.045475e-11 -1.801863e-13 -2.199985e-11)) ((3.444834e-16 5.335763e-13 2.362284e-16) (7.082341e-14 4.026797e-09 1.003248e-13))
11631.47244   	((-4.582961e-12 1.096960e-12 1.516215e-12) (1.042225e-11 -1.783573e-13 -2.194009e-11)) ((3.507750e-16 5.329191e-13 2.367216e-16) (6.923529e-14 4.023004e-09 1.000336e-13))
12275.508086  	((-4.575055e-12 1.110924e-12 1.468692e-12) (1.039864e-11 -1.749711e-13 -2.188603e-11)) ((3.580686e-16 5.323673e-13 2.360466e-16) (6.789875e-14 4.019822e-09 9.980451e-14))
12919.551184  	((-4.540225e-12 1.126616e-12 1.428350e-12) (1.037985e-11 -1.705177e-13 -2.183933e-11)) ((3.615742e-16 5.319044e-13 2.349595e-16) (6.678960e-14 4.017153e-09 9.962673e-14))
13563.600601  	((-4.489018e-12 1.175360e-12 1.392348e-12) (1.037182e-11 -1.601002e-13 -2.180000e-11)) ((3.640407e-16 5.315135e-13 2.317104e-16) (6.588908e-14 4.014912e-09 9.947876e-14))
14207.655369  	((-4.456812e-12 1.210127e-12 1.359270e-12) (1.035737e-11 -1.602827e-13 -2.176382e-11)) ((3.650702e-16 5.311867e-13 2.291942e-16) (6.510644e-14 4.013031e-09 9.929652e-14))
14851.714667  	((-4.456695e-12 1.229156e-12 1.331691e-12) (1.034400e-11 -1.592745e-13 -2.173456e-11)) ((3.656111e-16 5.309140e-13 2.294523e-16) (6.442135e-14 4.011450e-09 9.921316e-14))
