# Forces      
# CofR        : (0.000000e+00 0.000000e+00 0.000000e+00)
# Time        forces(pressure viscous)	moments(pressure viscous)
0             	((0.000000e+00 0.000000e+00 0.000000e+00) (-3.831381e-13 3.885509e-14 -5.036299e-03)) ((0.000000e+00 0.000000e+00 0.000000e+00) (-1.128067e-14 -1.693493e-09 -8.833437e-16))
0.012         	((-2.535682e-06 -2.614722e-06 -1.474633e+00) (-6.238131e-09 -1.192116e-08 -5.947956e-03)) ((-4.984030e-11 -3.953290e-07 4.081469e-12) (-8.046592e-11 -5.931811e-09 -8.936875e-15))
0.0264        	((7.164890e-06 -2.491649e-06 2.459221e-01) (-4.561739e-08 -2.807734e-08 -5.949129e-03)) ((-4.112643e-09 5.683721e-08 1.361218e-10) (8.613469e-10 -1.088508e-08 -1.065871e-11))
0.04368       	((1.338772e-05 1.094530e-05 2.254938e-01) (-6.156808e-08 -2.910930e-08 -5.140914e-03)) ((4.022210e-09 4.275572e-08 -1.104628e-10) (8.265347e-10 -1.256064e-08 -1.966726e-11))
0.064416      	((-1.449280e-05 -7.774104e-06 1.237592e-04) (-1.718556e-07 -3.519713e-08 -4.531391e-03)) ((-3.530694e-10 -7.500694e-09 3.820304e-11) (2.270242e-11 -1.452587e-08 -2.330511e-11))
0.0892992     	((-1.081972e-05 -3.345927e-06 1.797032e-03) (-3.238900e-07 -4.292629e-08 -4.168765e-03)) ((-3.967059e-10 -7.531065e-09 1.885066e-11) (-2.408779e-10 -1.521813e-08 6.748121e-12))
0.119159      	((-5.302764e-06 -2.700114e-06 1.764667e-03) (-1.229848e-07 -4.041979e-08 -3.862250e-03)) ((-7.996491e-12 -7.015189e-09 1.834606e-11) (-2.479524e-10 -1.427220e-08 1.022128e-10))
0.154991      	((-1.836036e-07 -1.778358e-06 -3.611217e-04) (1.321781e-07 -3.524278e-08 -3.583405e-03)) ((5.885997e-11 -8.338388e-09 8.802734e-12) (-1.750912e-10 -1.678640e-08 1.298418e-10))
0.197989      	((-4.744999e-07 -1.145177e-06 -1.037348e-03) (3.454156e-07 -3.498806e-08 -3.340554e-03)) ((-1.425685e-11 -8.108938e-09 -2.617353e-11) (-1.316275e-10 -1.908350e-08 5.499524e-11))
0.249587      	((8.672157e-07 -9.091778e-07 -1.401751e-03) (3.949743e-07 -3.888752e-08 -3.134290e-03)) ((1.455072e-11 -8.186720e-09 -3.005659e-11) (-2.628682e-10 -2.198637e-08 1.517627e-11))
0.311504      	((-2.144918e-06 -1.748129e-07 -1.629475e-03) (2.079963e-07 -2.937509e-08 -2.954626e-03)) ((-6.527776e-12 -7.643286e-09 -6.203575e-12) (-4.855431e-10 -2.597233e-08 -4.227012e-11))
0.385805      	((-2.001058e-06 3.736533e-09 -1.765109e-03) (1.049102e-07 -1.660845e-08 -2.788425e-03)) ((-2.242392e-11 -7.043947e-09 -7.338534e-12) (-5.968259e-10 -2.849142e-08 -1.102763e-10))
0.474966      	((-1.702199e-06 -1.305220e-08 -1.874780e-03) (1.285199e-07 -1.064619e-08 -2.627529e-03)) ((-2.645397e-11 -6.470908e-09 -4.794325e-12) (-5.615895e-10 -3.008869e-08 -1.498545e-10))
0.581959      	((-1.108149e-06 -1.327131e-07 -2.003654e-03) (2.177677e-07 -7.419794e-09 -2.471849e-03)) ((-3.225049e-11 -6.192747e-09 -1.339182e-11) (-4.808128e-10 -3.095593e-08 -1.453274e-10))
0.710351      	((-5.842806e-07 -2.929159e-07 -2.175775e-03) (3.331930e-07 -9.846501e-09 -2.324726e-03)) ((-3.716006e-11 -5.760233e-09 -1.174121e-11) (-2.940603e-10 -3.025193e-08 -1.107137e-10))
0.864421      	((-9.796603e-09 -2.989597e-07 -2.414823e-03) (4.195247e-07 -1.738549e-08 -2.188934e-03)) ((-1.563862e-11 -5.335652e-09 -1.156183e-11) (-2.611442e-11 -2.871278e-08 -5.693353e-11))
1.049306      	((-3.786218e-07 -5.089663e-07 -2.736207e-03) (4.074993e-07 -2.528771e-08 -2.066089e-03)) ((-9.329509e-12 -4.985357e-09 -1.333949e-11) (1.784065e-10 -2.700713e-08 -2.943424e-12))
1.266099      	((-1.881464e-07 -4.158000e-07 -3.151338e-03) (3.680808e-07 -3.272204e-08 -1.959005e-03)) ((-9.449698e-12 -4.640314e-09 -1.028212e-11) (2.547111e-10 -2.590094e-08 4.435764e-11))
1.514565      	((-1.516847e-07 -1.461707e-07 -3.660138e-03) (3.403154e-07 -3.507283e-08 -1.868351e-03)) ((-2.380774e-12 -4.199118e-09 -9.252788e-12) (3.616218e-10 -2.597547e-08 9.340920e-11))
1.794464      	((-5.032812e-08 3.760776e-07 -4.257889e-03) (3.106216e-07 -3.401587e-08 -1.793501e-03)) ((-4.085626e-12 -3.757868e-09 -8.820400e-12) (5.286030e-10 -2.754197e-08 1.411538e-10))
2.105495      	((-4.673536e-07 8.143671e-07 -4.930431e-03) (2.354251e-07 -3.872826e-08 -1.733337e-03)) ((-1.334687e-11 -3.387359e-09 -1.243175e-11) (3.210030e-10 -3.079097e-08 1.727935e-10))
2.413014      	((-8.673798e-07 1.358167e-06 -5.606049e-03) (1.383503e-07 -5.506848e-08 -1.687179e-03)) ((-4.777989e-11 -3.361467e-09 -1.465018e-11) (-1.309529e-09 -3.722131e-08 1.811929e-10))
2.716539      	((-8.184082e-07 2.424569e-06 -6.243766e-03) (-2.344130e-08 -6.733329e-08 -1.649641e-03)) ((-6.026960e-11 -3.774957e-09 -1.914956e-11) (-3.250610e-09 -4.787972e-08 1.786511e-10))
3.016758      	((6.408379e-07 4.464094e-06 -6.814267e-03) (-1.391903e-07 -4.099136e-08 -1.619014e-03)) ((2.834788e-12 -4.440614e-09 -2.232228e-11) (-4.102044e-09 -5.802540e-08 1.550784e-10))
3.315172      	((1.805404e-06 5.708693e-06 -7.250400e-03) (-4.651720e-08 3.471107e-08 -1.593562e-03)) ((7.801905e-11 -5.096958e-09 -2.334599e-11) (-2.871034e-09 -6.671114e-08 1.465588e-10))
3.613266      	((3.043235e-06 7.289789e-06 -7.536897e-03) (1.169065e-07 1.478867e-07 -1.571671e-03)) ((1.158981e-10 -5.467031e-09 -2.645654e-11) (8.676417e-11 -7.303980e-08 2.048453e-10))
3.9116        	((3.216497e-06 8.362473e-06 -7.677977e-03) (1.707760e-07 2.369519e-07 -1.551387e-03)) ((7.734848e-11 -5.617198e-09 -2.628805e-11) (1.884972e-09 -7.460831e-08 2.134763e-10))
4.209696      	((2.443348e-06 8.904951e-06 -7.671897e-03) (1.817370e-07 2.701084e-07 -1.531920e-03)) ((2.932066e-11 -5.649874e-09 -2.174301e-11) (1.124013e-09 -7.115530e-08 1.819382e-10))
4.506738      	((2.964808e-06 1.056670e-05 -7.530954e-03) (1.979427e-07 2.870809e-07 -1.513145e-03)) ((2.982420e-11 -5.674675e-09 -2.176625e-11) (-4.801782e-10 -6.321925e-08 1.726691e-10))
4.802331      	((2.501167e-06 1.187017e-05 -7.367218e-03) (2.241761e-07 3.229124e-07 -1.495279e-03)) ((7.744469e-11 -5.892200e-09 -2.227133e-11) (-1.381397e-09 -5.397080e-08 1.725133e-10))
5.096608      	((1.898720e-06 1.360328e-05 -7.247177e-03) (2.240039e-07 4.031828e-07 -1.479469e-03)) ((1.537819e-10 -5.976277e-09 -4.717815e-12) (-7.896522e-10 -4.443748e-08 1.870391e-10))
5.389912      	((1.231388e-06 1.524115e-05 -7.191340e-03) (2.550638e-07 5.080727e-07 -1.467361e-03)) ((2.156804e-10 -5.870085e-09 2.520940e-12) (7.836019e-11 -3.791355e-08 1.868587e-10))
5.682408      	((1.022963e-06 1.820419e-05 -7.172178e-03) (3.413414e-07 5.942641e-07 -1.458248e-03)) ((2.553809e-10 -5.749702e-09 1.445167e-11) (-7.193492e-10 -3.466876e-08 1.540772e-10))
5.974095      	((1.396915e-06 2.078730e-05 -7.150563e-03) (3.604868e-07 6.809374e-07 -1.450159e-03)) ((2.763078e-10 -5.568410e-09 2.743657e-11) (-1.866639e-09 -3.024592e-08 9.170010e-11))
6.264986      	((1.963638e-06 2.268092e-05 -7.112345e-03) (3.338023e-07 7.634218e-07 -1.441898e-03)) ((2.637074e-10 -5.327364e-09 1.956251e-11) (-3.050596e-09 -2.403756e-08 -9.710509e-11))
6.55515       	((2.281717e-06 2.454613e-05 -7.046888e-03) (3.370416e-07 8.384052e-07 -1.433012e-03)) ((2.494702e-10 -5.045513e-09 8.653315e-12) (-4.363738e-09 -1.877812e-08 -1.547899e-10))
6.844654      	((3.087520e-06 2.670116e-05 -6.964915e-03) (3.428785e-07 9.174617e-07 -1.423738e-03)) ((2.538877e-10 -4.941799e-09 1.442966e-11) (-6.460848e-09 -1.390259e-08 -1.607036e-10))
7.133537      	((6.704320e-06 2.907901e-05 -6.890319e-03) (3.360425e-07 9.919090e-07 -1.415006e-03)) ((2.541292e-10 -4.918784e-09 1.015849e-11) (-9.605210e-09 -7.132763e-09 -2.340252e-10))
7.421844      	((1.021250e-05 3.248581e-05 -6.824005e-03) (3.352984e-07 1.071528e-06 -1.407363e-03)) ((2.563989e-10 -4.883878e-09 1.678628e-11) (-1.284221e-08 7.284082e-11 -3.276605e-10))
7.709641      	((1.311732e-05 3.676752e-05 -6.749401e-03) (3.177668e-07 1.165342e-06 -1.400320e-03)) ((2.729188e-10 -4.854158e-09 2.236217e-11) (-1.629181e-08 7.250377e-09 -4.371437e-10))
7.996977      	((1.714610e-05 3.999131e-05 -6.699419e-03) (3.015193e-07 1.264628e-06 -1.393601e-03)) ((2.685281e-10 -4.817178e-09 2.939516e-11) (-1.976660e-08 1.321860e-08 -4.145694e-10))
8.28387       	((2.127357e-05 4.530831e-05 -6.670843e-03) (3.245410e-07 1.399585e-06 -1.387326e-03)) ((3.119316e-10 -4.764423e-09 3.457146e-11) (-2.236114e-08 1.779633e-08 -3.474697e-10))
8.570336      	((2.490907e-05 4.891768e-05 -6.651456e-03) (3.956663e-07 1.550280e-06 -1.381577e-03)) ((3.217834e-10 -4.679439e-09 3.147695e-11) (-2.409105e-08 2.127235e-08 -2.897265e-10))
8.856392      	((2.910651e-05 5.362704e-05 -6.636882e-03) (4.982272e-07 1.702188e-06 -1.376422e-03)) ((3.373826e-10 -4.593401e-09 3.025361e-11) (-2.565720e-08 2.359101e-08 -4.217022e-10))
9.142044      	((3.397031e-05 5.920543e-05 -6.616897e-03) (6.332001e-07 1.869413e-06 -1.371691e-03)) ((3.592507e-10 -4.542017e-09 2.501333e-11) (-2.860714e-08 2.631638e-08 -6.820005e-10))
9.427308      	((3.875586e-05 6.422364e-05 -6.589262e-03) (8.092091e-07 2.051674e-06 -1.367054e-03)) ((3.670986e-10 -4.514422e-09 1.415367e-11) (-3.278101e-08 2.934072e-08 -8.778689e-10))
9.712206      	((4.404244e-05 7.067942e-05 -6.557375e-03) (1.018682e-06 2.253360e-06 -1.362365e-03)) ((3.893197e-10 -4.503619e-09 1.086068e-11) (-3.770183e-08 3.215446e-08 -8.969639e-10))
9.996758      	((4.971945e-05 7.765184e-05 -6.521788e-03) (1.256068e-06 2.475590e-06 -1.357693e-03)) ((4.071308e-10 -4.503502e-09 3.746739e-12) (-4.293150e-08 3.443842e-08 -8.476803e-10))
10.280982     	((5.598450e-05 8.568413e-05 -6.490622e-03) (1.517224e-06 2.728043e-06 -1.353186e-03)) ((4.377276e-10 -4.522235e-09 1.243910e-12) (-4.789200e-08 3.617898e-08 -7.233815e-10))
10.564895     	((6.125857e-05 9.231154e-05 -6.463361e-03) (1.790226e-06 2.997690e-06 -1.348929e-03)) ((4.408836e-10 -4.506481e-09 -2.126618e-12) (-5.239816e-08 3.733548e-08 -6.059069e-10))
10.848515     	((6.615061e-05 9.898219e-05 -6.442087e-03) (2.063000e-06 3.268160e-06 -1.344943e-03)) ((4.554157e-10 -4.490510e-09 -7.516157e-12) (-5.680469e-08 3.794366e-08 -5.339886e-10))
11.131851     	((7.308776e-05 1.075532e-04 -6.423227e-03) (2.349172e-06 3.551417e-06 -1.341190e-03)) ((4.944448e-10 -4.494884e-09 -1.705114e-11) (-6.189465e-08 3.833173e-08 -4.923208e-10))
11.414909     	((8.072197e-05 1.167973e-04 -6.405037e-03) (2.656055e-06 3.851118e-06 -1.337597e-03)) ((5.145923e-10 -4.488258e-09 -2.027173e-11) (-6.800177e-08 3.907987e-08 -4.215249e-10))
11.697697     	((8.987830e-05 1.284115e-04 -6.385390e-03) (2.991248e-06 4.187113e-06 -1.334101e-03)) ((5.577742e-10 -4.491172e-09 -2.680576e-11) (-7.496107e-08 4.060745e-08 -2.535772e-10))
11.980215     	((1.002295e-04 1.414821e-04 -6.364861e-03) (3.362538e-06 4.578035e-06 -1.330671e-03)) ((6.002377e-10 -4.491444e-09 -3.059271e-11) (-8.239048e-08 4.294161e-08 -6.061606e-11))
12.262465     	((1.117425e-04 1.562580e-04 -6.342854e-03) (3.767811e-06 5.034748e-06 -1.327321e-03)) ((6.433604e-10 -4.462416e-09 -3.320905e-11) (-8.981570e-08 4.593296e-08 1.060676e-10))
12.544456     	((1.235333e-04 1.716011e-04 -6.320253e-03) (4.203257e-06 5.551190e-06 -1.324071e-03)) ((6.756251e-10 -4.430489e-09 -3.528846e-11) (-9.725213e-08 4.940692e-08 2.158515e-10))
12.826197     	((1.371468e-04 1.877671e-04 -6.302226e-03) (4.674817e-06 6.110269e-06 -1.320989e-03)) ((6.845431e-10 -4.383490e-09 -3.942584e-11) (-1.047295e-07 5.325493e-08 3.278636e-10))
13.107697     	((1.521024e-04 2.072896e-04 -6.281221e-03) (5.187490e-06 6.721557e-06 -1.318057e-03)) ((7.087965e-10 -4.342564e-09 -4.619043e-11) (-1.121799e-07 5.762526e-08 4.143102e-10))
13.388963     	((1.681787e-04 2.272123e-04 -6.264260e-03) (5.733115e-06 7.386356e-06 -1.315271e-03)) ((7.437951e-10 -4.297403e-09 -4.930175e-11) (-1.194896e-07 6.242605e-08 4.439423e-10))
13.670002     	((1.844437e-04 2.481264e-04 -6.246022e-03) (6.321821e-06 8.117000e-06 -1.312610e-03)) ((7.756755e-10 -4.259599e-09 -4.190439e-11) (-1.262131e-07 6.639927e-08 2.509759e-10))
13.950816     	((2.027548e-04 2.710293e-04 -6.225968e-03) (6.970719e-06 8.932877e-06 -1.310009e-03)) ((8.427030e-10 -4.249232e-09 -3.820271e-11) (-1.322020e-07 6.974618e-08 -2.998212e-11))
14.231407     	((2.234204e-04 2.963618e-04 -6.208013e-03) (7.697596e-06 9.845633e-06 -1.307443e-03)) ((9.423178e-10 -4.255077e-09 -2.894175e-11) (-1.385565e-07 7.363201e-08 -5.042944e-11))
14.511787     	((2.458034e-04 3.237581e-04 -6.191206e-03) (8.481928e-06 1.085422e-05 -1.304894e-03)) ((1.063705e-09 -4.273229e-09 -1.318535e-11) (-1.464630e-07 8.064926e-08 1.644324e-10))
14.791961     	((2.702048e-04 3.536006e-04 -6.176882e-03) (9.312091e-06 1.195619e-05 -1.302403e-03)) ((1.198348e-09 -4.299467e-09 -1.864864e-12) (-1.562214e-07 9.151541e-08 4.328280e-10))
15.071935     	((2.960871e-04 3.850649e-04 -6.164627e-03) (1.019381e-05 1.314580e-05 -1.300022e-03)) ((1.326256e-09 -4.323541e-09 6.468107e-12) (-1.676005e-07 1.051619e-07 7.402876e-10))
15.351668     	((3.243511e-04 4.191921e-04 -6.153706e-03) (1.114153e-05 1.440641e-05 -1.297749e-03)) ((1.469175e-09 -4.364033e-09 1.010010e-11) (-1.817005e-07 1.208800e-07 1.155598e-09))
15.631179     	((3.545330e-04 4.557172e-04 -6.143375e-03) (1.216325e-05 1.573311e-05 -1.295571e-03)) ((1.619344e-09 -4.413566e-09 4.353290e-12) (-1.989069e-07 1.380989e-07 1.647836e-09))
15.910533     	((3.887227e-04 4.967911e-04 -6.131934e-03) (1.328894e-05 1.716287e-05 -1.293481e-03)) ((1.817294e-09 -4.506029e-09 -4.107568e-12) (-2.178508e-07 1.557304e-07 1.968018e-09))
16.189746     	((4.266432e-04 5.419944e-04 -6.120860e-03) (1.455966e-05 1.874737e-05 -1.291466e-03)) ((2.049857e-09 -4.634159e-09 -2.007001e-11) (-2.372084e-07 1.731095e-07 2.085784e-09))
16.468788     	((4.680762e-04 5.923048e-04 -6.109626e-03) (1.599979e-05 2.053335e-05 -1.289490e-03)) ((2.316918e-09 -4.787443e-09 -3.684690e-11) (-2.562298e-07 1.904098e-07 2.046174e-09))
16.74766      	((5.138762e-04 6.490775e-04 -6.098534e-03) (1.762292e-05 2.254151e-05 -1.287526e-03)) ((2.637391e-09 -4.970726e-09 -5.045383e-11) (-2.758102e-07 2.079164e-07 2.044087e-09))
17.026372     	((5.642673e-04 7.112598e-04 -6.086066e-03) (1.941718e-05 2.475726e-05 -1.285564e-03)) ((2.983659e-09 -5.180232e-09 -6.086149e-11) (-2.978607e-07 2.269897e-07 2.049236e-09))
17.304925     	((6.191027e-04 7.793466e-04 -6.075517e-03) (2.136675e-05 2.716659e-05 -1.283634e-03)) ((3.329587e-09 -5.385100e-09 -7.467790e-11) (-3.238482e-07 2.491212e-07 2.013812e-09))
17.583315     	((6.786117e-04 8.540279e-04 -6.068141e-03) (2.347839e-05 2.978693e-05 -1.281791e-03)) ((3.663403e-09 -5.597271e-09 -8.587014e-11) (-3.539983e-07 2.745456e-07 2.063421e-09))
17.861533     	((7.423786e-04 9.350228e-04 -6.061223e-03) (2.577778e-05 3.265505e-05 -1.280057e-03)) ((4.018205e-09 -5.805011e-09 -9.386592e-11) (-3.871894e-07 3.021762e-07 2.103262e-09))
18.13959      	((8.114813e-04 1.022643e-03 -6.057026e-03) (2.829628e-05 3.581183e-05 -1.278435e-03)) ((4.398798e-09 -6.044336e-09 -9.688891e-11) (-4.219048e-07 3.310538e-07 2.178672e-09))
18.417496     	((8.866891e-04 1.117762e-03 -6.057098e-03) (3.106309e-05 3.928778e-05 -1.276934e-03)) ((4.826817e-09 -6.314720e-09 -1.084596e-10) (-4.582777e-07 3.607236e-07 2.508129e-09))
18.69525      	((9.684049e-04 1.221439e-03 -6.061897e-03) (3.409863e-05 4.309637e-05 -1.275568e-03)) ((5.289018e-09 -6.622263e-09 -1.182162e-10) (-4.978297e-07 3.917797e-07 2.841374e-09))
18.972853     	((1.058830e-03 1.334903e-03 -6.069659e-03) (3.744378e-05 4.727702e-05 -1.274362e-03)) ((5.801179e-09 -6.995224e-09 -1.376102e-10) (-5.403131e-07 4.243735e-07 2.814479e-09))
19.250304     	((1.157984e-03 1.458508e-03 -6.082024e-03) (4.113425e-05 5.186516e-05 -1.273340e-03)) ((6.378273e-09 -7.434445e-09 -1.703351e-10) (-5.858939e-07 4.595051e-07 2.787565e-09))
19.527598     	((1.264604e-03 1.590816e-03 -6.101001e-03) (4.517840e-05 5.685042e-05 -1.272569e-03)) ((7.000747e-09 -7.905708e-09 -2.165064e-10) (-6.348828e-07 4.976536e-07 3.424494e-09))
19.804713     	((1.379699e-03 1.732592e-03 -6.125787e-03) (4.959329e-05 6.225145e-05 -1.272177e-03)) ((7.690203e-09 -8.442552e-09 -2.772103e-10) (-6.846710e-07 5.368852e-07 4.844646e-09))
20.081495     	((1.503226e-03 1.885157e-03 -6.156233e-03) (5.441914e-05 6.815319e-05 -1.272262e-03)) ((8.456983e-09 -9.070620e-09 -3.525725e-10) (-7.322399e-07 5.734929e-07 6.249579e-09))
20.357946     	((1.635595e-03 2.051364e-03 -6.194435e-03) (5.968541e-05 7.465242e-05 -1.272825e-03)) ((9.302483e-09 -9.772578e-09 -4.251336e-10) (-7.789226e-07 6.085813e-07 6.559859e-09))
20.634125     	((1.780103e-03 2.233467e-03 -6.239872e-03) (6.540029e-05 8.174096e-05 -1.273701e-03)) ((1.021232e-08 -1.049113e-08 -5.036783e-10) (-8.328339e-07 6.491472e-07 5.928533e-09))
20.91007      	((1.937192e-03 2.430686e-03 -6.296260e-03) (7.157942e-05 8.942317e-05 -1.274857e-03)) ((1.114719e-08 -1.124705e-08 -5.947184e-10) (-8.978565e-07 6.998406e-07 5.060252e-09))
21.185929     	((2.109289e-03 2.646833e-03 -6.364445e-03) (7.825508e-05 9.777793e-05 -1.276428e-03)) ((1.214931e-08 -1.201340e-08 -7.100979e-10) (-9.730580e-07 7.611353e-07 4.240275e-09))
21.461731     	((2.295821e-03 2.878339e-03 -6.445650e-03) (8.554032e-05 1.068986e-04 -1.278601e-03)) ((1.313724e-08 -1.274469e-08 -8.278846e-10) (-1.053617e-06 8.284410e-07 3.821206e-09))
21.737482     	((2.493747e-03 3.123422e-03 -6.541985e-03) (9.348078e-05 1.168242e-04 -1.281564e-03)) ((1.401327e-08 -1.336185e-08 -9.627971e-10) (-1.135057e-06 8.982320e-07 3.942126e-09))
22.013234     	((2.705510e-03 3.384361e-03 -6.654154e-03) (1.020899e-04 1.276171e-04 -1.285543e-03)) ((1.469507e-08 -1.382119e-08 -1.126763e-09) (-1.211915e-06 9.663745e-07 3.497848e-09))
22.289022     	((2.929283e-03 3.659626e-03 -6.784847e-03) (1.113819e-04 1.392911e-04 -1.290473e-03)) ((1.513998e-08 -1.405040e-08 -1.336668e-09) (-1.287243e-06 1.034152e-06 1.346895e-09))
22.564866     	((3.164019e-03 3.945728e-03 -6.937844e-03) (1.213894e-04 1.517468e-04 -1.296174e-03)) ((1.541828e-08 -1.414481e-08 -1.545058e-09) (-1.372785e-06 1.108925e-06 -5.123638e-10))
22.840799     	((3.408946e-03 4.242823e-03 -7.112727e-03) (1.320744e-04 1.649241e-04 -1.302706e-03)) ((1.551596e-08 -1.408504e-08 -1.772198e-09) (-1.471647e-06 1.191974e-06 -1.787085e-09))
23.116861     	((3.660654e-03 4.548023e-03 -7.308920e-03) (1.434116e-04 1.788268e-04 -1.310246e-03)) ((1.532509e-08 -1.382872e-08 -2.031596e-09) (-1.576398e-06 1.277159e-06 -3.836250e-09))
23.392859     	((3.917474e-03 4.859280e-03 -7.533847e-03) (1.553977e-04 1.934662e-04 -1.318958e-03)) ((1.478774e-08 -1.338672e-08 -2.336773e-09) (-1.678257e-06 1.360755e-06 -5.725166e-09))
23.668676     	((4.175323e-03 5.170458e-03 -7.784923e-03) (1.680138e-04 2.088299e-04 -1.329063e-03)) ((1.384549e-08 -1.269910e-08 -2.622040e-09) (-1.770123e-06 1.438347e-06 -6.687763e-09))
23.944355     	((4.424809e-03 5.474628e-03 -8.064358e-03) (1.810681e-04 2.247514e-04 -1.340738e-03)) ((1.251417e-08 -1.166464e-08 -2.849827e-09) (-1.850527e-06 1.508612e-06 -6.434348e-09))
24.219938     	((4.666761e-03 5.772130e-03 -8.370730e-03) (1.943392e-04 2.410423e-04 -1.354039e-03)) ((1.072606e-08 -1.037868e-08 -3.114334e-09) (-1.924240e-06 1.575146e-06 -4.389004e-09))
24.495471     	((4.891820e-03 6.050808e-03 -8.703236e-03) (2.076120e-04 2.574449e-04 -1.369085e-03)) ((8.513313e-09 -8.799570e-09 -3.434830e-09) (-1.993464e-06 1.638006e-06 2.086268e-11))
24.771004     	((5.094537e-03 6.305842e-03 -9.053044e-03) (2.207286e-04 2.738312e-04 -1.385936e-03)) ((5.968516e-09 -6.907157e-09 -3.793574e-09) (-2.048602e-06 1.691873e-06 5.834745e-09))
25.046598     	((5.265025e-03 6.518419e-03 -9.406718e-03) (2.335205e-04 2.899481e-04 -1.404342e-03)) ((2.918462e-09 -4.647031e-09 -4.150800e-09) (-2.082738e-06 1.732288e-06 1.134488e-08))
25.322332     	((5.387813e-03 6.673242e-03 -9.752496e-03) (2.457604e-04 3.053862e-04 -1.423837e-03)) ((-4.560870e-10 -2.003660e-09 -4.487070e-09) (-2.093018e-06 1.750047e-06 1.653517e-08))
25.59831      	((5.455596e-03 6.757398e-03 -1.006964e-02) (2.571503e-04 3.196414e-04 -1.443782e-03)) ((-4.130492e-09 8.929267e-10 -4.843740e-09) (-2.078879e-06 1.739632e-06 2.212190e-08))
25.87452      	((5.455108e-03 6.757319e-03 -1.033592e-02) (2.671367e-04 3.321033e-04 -1.463335e-03)) ((-7.979121e-09 3.846261e-09 -5.208288e-09) (-2.036726e-06 1.702948e-06 2.814066e-08))
26.15093      	((5.376129e-03 6.658668e-03 -1.053435e-02) (2.751409e-04 3.421633e-04 -1.481846e-03)) ((-1.174902e-08 6.638259e-09 -5.551361e-09) (-1.956652e-06 1.635965e-06 3.359568e-08))
26.427579     	((5.204922e-03 6.454107e-03 -1.064009e-02) (2.806043e-04 3.491875e-04 -1.498714e-03)) ((-1.543501e-08 9.417205e-09 -5.811057e-09) (-1.829552e-06 1.529507e-06 3.783185e-08))
26.704552     	((4.930317e-03 6.122125e-03 -1.063476e-02) (2.829498e-04 3.524716e-04 -1.512984e-03)) ((-1.945239e-08 1.234364e-08 -5.942387e-09) (-1.652865e-06 1.381550e-06 4.652996e-08))
26.981962     	((4.536842e-03 5.638488e-03 -1.049874e-02) (2.811313e-04 3.507590e-04 -1.523695e-03)) ((-2.384940e-08 1.550406e-08 -5.978410e-09) (-1.440609e-06 1.211696e-06 5.939822e-08))
27.259942     	((4.019620e-03 4.997846e-03 -1.022652e-02) (2.739538e-04 3.425333e-04 -1.529913e-03)) ((-2.807103e-08 1.867929e-08 -5.787055e-09) (-1.222632e-06 1.045579e-06 7.386279e-08))
27.538616     	((3.369398e-03 4.192482e-03 -9.834984e-03) (2.603833e-04 3.262739e-04 -1.530992e-03)) ((-3.102818e-08 2.108480e-08 -5.467008e-09) (-1.028925e-06 8.986653e-07 8.904877e-08))
27.818095     	((2.592629e-03 3.225270e-03 -9.374751e-03) (2.397581e-04 3.011788e-04 -1.527169e-03)) ((-3.185487e-08 2.173162e-08 -4.984106e-09) (-8.661027e-07 7.760520e-07 1.048887e-07))
28.098498     	((1.713658e-03 2.135508e-03 -8.907718e-03) (2.122136e-04 2.678723e-04 -1.519786e-03)) ((-2.930357e-08 1.949295e-08 -4.396284e-09) (-7.062978e-07 6.701330e-07 1.186180e-07))
28.379957     	((7.788525e-04 9.676805e-04 -8.528406e-03) (1.784098e-04 2.271420e-04 -1.510747e-03)) ((-2.265628e-08 1.342858e-08 -3.701609e-09) (-5.449281e-07 5.752488e-07 1.335855e-07))
28.662578     	((-1.513957e-04 -1.924901e-04 -8.282149e-03) (1.400063e-04 1.806809e-04 -1.502637e-03)) ((-1.609488e-08 7.260277e-09 -3.035368e-09) (-3.712843e-07 4.671775e-07 1.515261e-07))
