# Forces      
# CofR        : (0.000000e+00 0.000000e+00 0.000000e+00)
# Time        forces(pressure viscous)	moments(pressure viscous)
0             	((0.000000e+00 0.000000e+00 0.000000e+00) (-1.335537e-14 1.117853e-15 -2.005356e-04)) ((0.000000e+00 0.000000e+00 0.000000e+00) (-3.760133e-16 -7.760511e-11 -3.939110e-17))
0.012         	((-3.651365e-09 8.688768e-09 -5.829128e-02) (1.647667e-10 1.662601e-10 -2.300226e-04)) ((-2.362862e-11 -1.545117e-08 -2.164102e-13) (1.461991e-12 -2.255552e-10 -1.151764e-14))
0.0264        	((-1.149237e-06 -1.161898e-06 4.261194e-03) (-6.901510e-10 -6.504541e-10 -2.344547e-04)) ((2.449669e-11 9.987494e-10 3.499434e-12) (1.240068e-12 -2.992952e-10 -2.534820e-13))
0.04368       	((1.279774e-06 1.019992e-06 1.207068e-02) (-4.640163e-10 -6.482257e-10 -2.081418e-04)) ((1.353683e-10 2.738231e-09 -3.545134e-12) (-3.907848e-12 -3.033403e-10 -5.382868e-13))
0.064416      	((-4.459086e-08 -2.382784e-07 1.143808e-04) (-2.151039e-09 -1.204296e-09 -1.843154e-04)) ((-4.430864e-11 -7.406454e-11 1.916921e-12) (2.132559e-11 -3.800783e-10 7.003372e-13))
0.0892992     	((-2.632027e-07 1.658079e-07 -1.361284e-04) (-5.063510e-09 -1.993767e-09 -1.701228e-04)) ((-1.585998e-11 9.045404e-11 -1.617224e-12) (1.328916e-11 -4.492646e-10 5.443948e-12))
0.119159      	((-1.497682e-07 -1.077967e-07 1.911948e-04) (-5.243358e-09 -1.705917e-09 -1.570591e-04)) ((-6.187757e-12 1.140278e-10 -1.484693e-12) (-7.077206e-12 -4.984595e-10 7.032295e-12))
0.154991      	((-7.611511e-08 -5.466068e-08 9.948767e-05) (-4.744011e-09 -1.801262e-09 -1.433110e-04)) ((1.380709e-12 5.657868e-11 -3.676365e-13) (-2.026165e-11 -4.922978e-10 6.245988e-12))
0.197989      	((-8.523205e-08 -1.800036e-09 2.371945e-05) (-3.452585e-09 -1.589585e-09 -1.295454e-04)) ((7.686449e-12 6.412159e-12 -5.824735e-13) (-2.391188e-11 -4.169211e-10 7.140632e-12))
0.249587      	((-2.095646e-08 -1.807031e-08 -3.426449e-06) (-2.217308e-09 -1.034368e-09 -1.161807e-04)) ((3.172256e-12 1.725157e-12 -1.699482e-13) (-3.524112e-12 -3.571930e-10 6.808570e-12))
0.311504      	((-9.537343e-09 -9.152455e-09 -1.558340e-05) (-1.693351e-09 -6.085274e-10 -1.036155e-04)) ((1.245146e-12 -1.268643e-11 -2.725936e-13) (1.148439e-11 -3.095548e-10 5.476053e-12))
0.385805      	((-1.249698e-08 -6.280985e-09 -2.210860e-05) (-1.164778e-09 -4.217635e-10 -9.217422e-05)) ((1.143101e-12 -2.078902e-11 -1.680172e-13) (1.170225e-11 -2.615589e-10 4.121055e-12))
0.474966      	((-4.276979e-09 -1.329813e-09 -2.563972e-05) (-1.023434e-09 -4.703526e-10 -8.202391e-05)) ((6.938889e-13 -2.092527e-11 -5.703430e-14) (7.891477e-13 -2.262235e-10 3.018433e-12))
0.581959      	((-3.177766e-09 -2.908063e-09 -2.710401e-05) (-1.231618e-09 -4.323627e-10 -7.309898e-05)) ((6.047595e-13 -2.250299e-11 -3.290895e-14) (-7.364872e-12 -1.893340e-10 2.128251e-12))
0.710351      	((-4.355678e-09 -2.690267e-09 -2.709404e-05) (-1.519278e-09 -3.247603e-10 -6.528436e-05)) ((4.288121e-13 -2.427316e-11 -1.734422e-14) (-1.129613e-11 -1.423609e-10 1.529374e-12))
0.864421      	((-4.188142e-09 -2.990022e-09 -2.613661e-05) (-1.543758e-09 -2.080618e-10 -5.847601e-05)) ((3.169850e-13 -2.482255e-11 -1.646729e-14) (-9.485750e-12 -1.128649e-10 1.161714e-12))
1.049306      	((-1.827239e-09 -2.575317e-09 -2.470427e-05) (-1.369934e-09 -1.431177e-10 -5.254983e-05)) ((2.238452e-13 -2.390209e-11 -1.448364e-14) (-5.625869e-12 -1.196971e-10 8.632389e-13))
1.271167      	((-2.855501e-09 -2.327966e-09 -2.304913e-05) (-1.140935e-09 -9.963472e-11 -4.737666e-05)) ((1.749778e-13 -2.224285e-11 -7.538598e-15) (-3.115414e-12 -1.449743e-10 5.775934e-13))
1.5374        	((-9.645167e-10 -1.496035e-09 -2.130492e-05) (-7.761711e-10 -5.384250e-11 -4.283028e-05)) ((1.312319e-13 -2.032246e-11 -1.363780e-14) (-3.350420e-12 -1.700019e-10 3.983874e-13))
1.85688       	((-1.277380e-09 -1.129664e-09 -1.960020e-05) (-1.888864e-10 -3.070856e-12 -3.881088e-05)) ((1.260431e-13 -1.889682e-11 -1.578362e-14) (-5.810125e-12 -1.949262e-10 3.533749e-13))
2.240256      	((-1.768292e-09 -1.336984e-09 -1.801362e-05) (1.753614e-10 3.882989e-11 -3.524554e-05)) ((1.211935e-13 -1.757041e-11 -2.040773e-14) (-9.048244e-12 -2.092811e-10 2.916271e-13))
2.700307      	((-2.530860e-09 -1.466878e-09 -1.656410e-05) (1.120835e-10 4.551025e-11 -3.207512e-05)) ((8.703010e-14 -1.651728e-11 -2.253859e-14) (-1.115841e-11 -1.851152e-10 3.117567e-13))
3.252369      	((-2.880650e-09 -1.922677e-09 -1.524591e-05) (-3.809221e-11 1.268531e-11 -2.924751e-05)) ((2.341859e-14 -1.544937e-11 -3.200038e-14) (-1.159307e-11 -1.371435e-10 3.836683e-13))
3.914842      	((-2.730145e-09 -2.383475e-09 -1.406525e-05) (-1.320002e-10 -3.719174e-11 -2.672040e-05)) ((-5.306618e-15 -1.445520e-11 -2.692232e-14) (-1.128663e-11 -8.984704e-11 3.913979e-13))
4.709811      	((-3.013022e-09 -2.481626e-09 -1.303060e-05) (-2.551004e-10 -8.884901e-11 -2.446442e-05)) ((-3.493745e-14 -1.352414e-11 -2.153151e-14) (-1.023653e-11 -6.202836e-11 4.446921e-13))
5.663773      	((-2.813752e-09 -2.061863e-09 -1.214874e-05) (-3.672590e-10 -1.237026e-10 -2.245921e-05)) ((-3.992690e-14 -1.253678e-11 -1.046616e-14) (-7.992896e-12 -7.234467e-11 5.011946e-13))
6.808528      	((-3.344713e-09 -2.574975e-09 -1.141187e-05) (-3.887413e-10 -1.522687e-10 -2.068371e-05)) ((-6.163294e-14 -1.153480e-11 -1.357062e-14) (-4.052505e-12 -9.826395e-11 3.375742e-13))
8.182233      	((-5.168975e-09 -4.203439e-09 -1.081995e-05) (-4.520698e-10 -2.291187e-10 -1.911373e-05)) ((-8.403565e-14 -1.066628e-11 -1.766539e-14) (7.163104e-13 -1.131526e-10 4.540770e-13))
9.83068       	((-5.640162e-09 -4.628646e-09 -1.037507e-05) (-4.976619e-10 -3.336745e-10 -1.772571e-05)) ((-1.003861e-13 -9.917987e-12 -1.739614e-14) (3.518295e-12 -1.038515e-10 7.683056e-13))
11.808816     	((-6.273965e-09 -5.972498e-09 -1.007884e-05) (-5.774774e-10 -4.789384e-10 -1.649970e-05)) ((-1.249832e-13 -9.195206e-12 -1.017681e-14) (1.812553e-12 -7.950847e-11 8.641476e-13))
14.182579     	((-6.994447e-09 -6.237920e-09 -9.931739e-06) (-7.499215e-10 -6.501997e-10 -1.542046e-05)) ((-1.289539e-13 -8.557949e-12 -9.504759e-15) (-4.565598e-12 -5.134756e-11 9.584027e-13))
17.031095     	((-6.116692e-09 -5.395078e-09 -9.929051e-06) (-9.357383e-10 -7.689320e-10 -1.447613e-05)) ((-1.583868e-13 -8.007284e-12 -5.828147e-15) (-1.299627e-11 -3.119661e-11 9.167946e-13))
20.449314     	((-6.173222e-09 -5.411136e-09 -1.005863e-05) (-1.124764e-09 -8.719060e-10 -1.365642e-05)) ((-1.627176e-13 -7.627777e-12 -3.355706e-15) (-2.067102e-11 -2.065053e-11 9.815307e-13))
24.551176     	((-5.742870e-09 -4.918410e-09 -1.030934e-05) (-1.270526e-09 -9.613543e-10 -1.295274e-05)) ((-1.863961e-13 -7.240062e-12 -1.465584e-15) (-3.017470e-11 -1.490630e-11 1.119362e-12))
29.473411     	((-4.987073e-09 -4.243093e-09 -1.066738e-05) (-1.278291e-09 -1.029892e-09 -1.235898e-05)) ((-1.992433e-13 -6.904995e-12 -1.723019e-15) (-4.489666e-11 -1.018243e-11 1.281898e-12))
35.380094     	((-3.787152e-09 -2.852137e-09 -1.110617e-05) (-1.289226e-09 -1.049151e-09 -1.186785e-05)) ((-2.061529e-13 -6.659822e-12 -1.496486e-15) (-6.288278e-11 -7.225772e-12 7.044201e-13))
42.45004      	((-3.882420e-09 -2.786479e-09 -1.158643e-05) (-1.306875e-09 -1.056232e-09 -1.147283e-05)) ((-1.975172e-13 -6.482855e-12 -3.463125e-15) (-7.996024e-11 7.738903e-13 3.627832e-13))
50.673522     	((-3.240800e-09 -2.143484e-09 -1.206884e-05) (-1.175747e-09 -9.906799e-10 -1.116856e-05)) ((-1.815859e-13 -6.319676e-12 9.286550e-16) (-9.019192e-11 1.437190e-11 6.068522e-13))
60.041755     	((-2.432921e-09 -1.201066e-09 -1.248952e-05) (-9.409171e-10 -8.232728e-10 -1.093399e-05)) ((-1.639485e-13 -6.236145e-12 -8.030825e-15) (-9.243088e-11 3.058333e-11 8.201435e-13))
70.549313     	((-1.063225e-09 2.275745e-10 -1.282725e-05) (-6.225524e-10 -5.212846e-10 -1.074541e-05)) ((-1.475723e-13 -6.240574e-12 -1.299492e-14) (-8.792451e-11 4.165865e-11 1.101975e-12))
81.938248     	((1.008088e-09 2.570675e-09 -1.307643e-05) (-1.752563e-10 -5.526402e-11 -1.058760e-05)) ((-1.330427e-13 -6.253412e-12 -8.679384e-15) (-8.289687e-11 5.136230e-11 1.164971e-12))
93.366716     	((1.986825e-09 3.900253e-09 -1.324860e-05) (2.981471e-10 4.377065e-10 -1.045595e-05)) ((-1.166163e-13 -6.263308e-12 -6.308828e-15) (-8.086052e-11 6.404685e-11 1.191862e-12))
104.832866    	((2.216969e-09 4.515401e-09 -1.332579e-05) (6.678312e-10 8.895596e-10 -1.034212e-05)) ((-9.162027e-14 -6.245851e-12 -4.543825e-15) (-7.935599e-11 7.419909e-11 1.232135e-12))
116.315909    	((1.052410e-09 3.772702e-09 -1.334475e-05) (8.935489e-10 1.197946e-09 -1.024280e-05)) ((-8.462806e-14 -6.190670e-12 -1.617643e-15) (-7.877533e-11 7.908074e-11 1.415604e-12))
127.804261    	((2.124353e-10 3.165605e-09 -1.332759e-05) (1.019987e-09 1.366143e-09 -1.015500e-05)) ((-7.300199e-14 -6.160859e-12 7.915135e-16) (-7.598375e-11 8.074168e-11 1.588942e-12))
139.298378    	((-2.840138e-10 2.759217e-09 -1.329565e-05) (1.077408e-09 1.437117e-09 -1.007649e-05)) ((-6.461937e-14 -6.135565e-12 1.779352e-15) (-7.166619e-11 7.968851e-11 1.605242e-12))
150.800617    	((-5.107806e-10 2.490955e-09 -1.326082e-05) (1.143163e-09 1.490501e-09 -1.000659e-05)) ((-6.840435e-14 -6.116865e-12 7.264972e-16) (-6.794198e-11 7.635137e-11 1.589446e-12))
162.310744    	((-9.450276e-10 1.894339e-09 -1.322863e-05) (1.180537e-09 1.502370e-09 -9.944643e-06)) ((-8.395896e-14 -6.084855e-12 -2.364003e-16) (-6.430213e-11 7.379556e-11 1.553037e-12))
173.827494    	((-1.362230e-09 1.167266e-09 -1.319325e-05) (1.170893e-09 1.457662e-09 -9.889172e-06)) ((-9.149840e-14 -6.049777e-12 4.726603e-16) (-6.104745e-11 7.299577e-11 1.450119e-12))
185.350071    	((-1.519249e-09 5.284585e-10 -1.316395e-05) (1.134818e-09 1.373412e-09 -9.839597e-06)) ((-7.781056e-14 -6.027920e-12 4.863763e-15) (-5.802432e-11 7.150264e-11 1.732991e-12))
196.877957    	((-1.441014e-09 -8.892350e-11 -1.313613e-05) (1.127143e-09 1.289200e-09 -9.795380e-06)) ((-6.547761e-14 -5.999688e-12 7.272098e-15) (-5.401842e-11 6.884304e-11 1.789496e-12))
208.410615    	((-1.721040e-09 -7.658577e-10 -1.310892e-05) (1.117117e-09 1.209455e-09 -9.755808e-06)) ((-5.963298e-14 -5.974025e-12 9.415214e-15) (-4.907178e-11 6.594397e-11 1.632324e-12))
219.947569    	((-1.714349e-09 -1.610797e-09 -1.308192e-05) (1.096637e-09 1.114063e-09 -9.720268e-06)) ((-5.577819e-14 -5.953838e-12 1.163175e-14) (-4.374774e-11 6.352142e-11 1.306173e-12))
231.488421    	((-1.982330e-09 -2.451012e-09 -1.305814e-05) (1.043855e-09 1.004279e-09 -9.688450e-06)) ((-5.490830e-14 -5.926340e-12 1.345626e-14) (-3.865654e-11 6.121424e-11 9.415540e-13))
243.03282     	((-2.120650e-09 -3.277997e-09 -1.303559e-05) (9.792775e-10 8.863495e-10 -9.659946e-06)) ((-5.573412e-14 -5.901674e-12 1.526211e-14) (-3.375991e-11 5.914143e-11 7.639812e-13))
254.580431    	((-2.337515e-09 -4.277018e-09 -1.301256e-05) (9.164404e-10 7.487868e-10 -9.634204e-06)) ((-5.930158e-14 -5.879174e-12 1.688224e-14) (-2.904487e-11 5.726572e-11 7.098429e-13))
266.13096     	((-2.871235e-09 -5.486996e-09 -1.299245e-05) (8.373779e-10 5.783360e-10 -9.610978e-06)) ((-6.171536e-14 -5.858702e-12 1.756532e-14) (-2.446805e-11 5.499893e-11 6.007928e-13))
277.684144    	((-3.243281e-09 -6.656890e-09 -1.297321e-05) (7.657128e-10 3.899718e-10 -9.589977e-06)) ((-6.527280e-14 -5.841299e-12 1.775520e-14) (-1.998696e-11 5.176606e-11 4.982461e-13))
289.239754    	((-3.714569e-09 -7.859425e-09 -1.295580e-05) (6.901269e-10 1.899023e-10 -9.570983e-06)) ((-7.255241e-14 -5.823251e-12 1.744260e-14) (-1.580545e-11 4.784381e-11 5.796013e-13))
300.797577    	((-4.233339e-09 -9.071177e-09 -1.293970e-05) (6.069701e-10 -1.695318e-11 -9.553808e-06)) ((-8.054560e-14 -5.807791e-12 1.685209e-14) (-1.198742e-11 4.351757e-11 7.135622e-13))
312.35742     	((-4.601750e-09 -1.020628e-08 -1.292441e-05) (5.272525e-10 -2.284555e-10 -9.538227e-06)) ((-8.773745e-14 -5.796134e-12 1.655797e-14) (-8.546580e-12 3.893564e-11 8.174973e-13))
323.919103    	((-4.930671e-09 -1.126687e-08 -1.291037e-05) (4.520166e-10 -4.359134e-10 -9.524084e-06)) ((-9.303236e-14 -5.786094e-12 1.592733e-14) (-5.339431e-12 3.421991e-11 8.557998e-13))
335.482471    	((-5.302674e-09 -1.229276e-08 -1.289726e-05) (3.813138e-10 -6.385011e-10 -9.511230e-06)) ((-9.818026e-14 -5.775547e-12 1.552740e-14) (-2.304406e-12 2.959698e-11 8.097174e-13))
347.047397    	((-5.689989e-09 -1.333686e-08 -1.288504e-05) (3.153723e-10 -8.376337e-10 -9.499523e-06)) ((-1.042305e-13 -5.764205e-12 1.550522e-14) (6.696510e-13 2.514834e-11 7.577891e-13))
358.613773    	((-6.073273e-09 -1.432787e-08 -1.287394e-05) (2.526215e-10 -1.032728e-09 -9.488860e-06)) ((-1.095968e-13 -5.753654e-12 1.535522e-14) (3.469057e-12 2.093350e-11 7.077678e-13))
370.18149     	((-6.504626e-09 -1.534579e-08 -1.286350e-05) (1.904910e-10 -1.225694e-09 -9.479124e-06)) ((-1.159421e-13 -5.742892e-12 1.495235e-14) (6.242798e-12 1.688844e-11 6.702385e-13))
381.750437    	((-6.891656e-09 -1.627886e-08 -1.285371e-05) (1.318982e-10 -1.411487e-09 -9.470210e-06)) ((-1.217311e-13 -5.733415e-12 1.446182e-14) (9.006448e-12 1.290993e-11 6.294199e-13))
393.320513    	((-7.326601e-09 -1.719198e-08 -1.284433e-05) (7.214621e-11 -1.590163e-09 -9.462022e-06)) ((-1.268251e-13 -5.724583e-12 1.430378e-14) (1.152824e-11 9.050897e-12 5.890140e-13))
404.891628    	((-7.751538e-09 -1.803412e-08 -1.283545e-05) (1.089068e-11 -1.759692e-09 -9.454480e-06)) ((-1.314293e-13 -5.715813e-12 1.379616e-14) (1.391202e-11 5.334774e-12 5.440962e-13))
416.463699    	((-8.162705e-09 -1.888965e-08 -1.282705e-05) (-4.850334e-11 -1.922616e-09 -9.447518e-06)) ((-1.363940e-13 -5.706835e-12 1.318802e-14) (1.625907e-11 1.667664e-12 4.902179e-13))
428.036653    	((-8.687254e-09 -1.970453e-08 -1.281933e-05) (-1.142041e-10 -2.076266e-09 -9.441097e-06)) ((-1.413956e-13 -5.697620e-12 1.281024e-14) (1.863320e-11 -1.901440e-12 4.225926e-13))
439.610421    	((-9.144265e-09 -2.053728e-08 -1.281211e-05) (-1.805737e-10 -2.225240e-09 -9.435171e-06)) ((-1.461323e-13 -5.689601e-12 1.262472e-14) (2.106015e-11 -5.398832e-12 3.426488e-13))
451.184942    	((-9.634273e-09 -2.133098e-08 -1.280535e-05) (-2.459446e-10 -2.368703e-09 -9.429694e-06)) ((-1.502185e-13 -5.681227e-12 1.252624e-14) (2.350437e-11 -8.861412e-12 2.716603e-13))
462.760159    	((-1.018354e-08 -2.214622e-08 -1.279908e-05) (-3.144528e-10 -2.508430e-09 -9.424636e-06)) ((-1.543917e-13 -5.672560e-12 1.264111e-14) (2.603558e-11 -1.227731e-11 2.445116e-13))
474.336019    	((-1.077623e-08 -2.296340e-08 -1.279327e-05) (-3.890207e-10 -2.645546e-09 -9.419969e-06)) ((-1.581821e-13 -5.664464e-12 1.274441e-14) (2.867725e-11 -1.563392e-11 2.279651e-13))
485.912472    	((-1.143033e-08 -2.380041e-08 -1.278784e-05) (-4.723293e-10 -2.781914e-09 -9.415658e-06)) ((-1.621684e-13 -5.656467e-12 1.279589e-14) (3.142034e-11 -1.896202e-11 2.056729e-13))
497.489471    	((-1.205922e-08 -2.462927e-08 -1.278272e-05) (-5.597342e-10 -2.917905e-09 -9.411669e-06)) ((-1.660601e-13 -5.648816e-12 1.284848e-14) (3.422717e-11 -2.225910e-11 1.843548e-13))
509.06697     	((-1.268961e-08 -2.550068e-08 -1.277794e-05) (-6.506323e-10 -3.056137e-09 -9.407974e-06)) ((-1.699052e-13 -5.641710e-12 1.283928e-14) (3.708479e-11 -2.552854e-11 1.608107e-13))
520.644931    	((-1.332598e-08 -2.634770e-08 -1.277348e-05) (-7.457166e-10 -3.194682e-09 -9.404548e-06)) ((-1.739027e-13 -5.634820e-12 1.266203e-14) (3.997262e-11 -2.869508e-11 1.432323e-13))
532.223316    	((-1.396250e-08 -2.721885e-08 -1.276933e-05) (-8.442701e-10 -3.334594e-09 -9.401370e-06)) ((-1.777189e-13 -5.627847e-12 1.242142e-14) (4.287606e-11 -3.173065e-11 1.324852e-13))
543.802089    	((-1.462002e-08 -2.810032e-08 -1.276549e-05) (-9.469971e-10 -3.477591e-09 -9.398424e-06)) ((-1.821447e-13 -5.621208e-12 1.224083e-14) (4.579803e-11 -3.459067e-11 1.175763e-13))
555.38122     	((-1.529456e-08 -2.899599e-08 -1.276195e-05) (-1.055023e-09 -3.623786e-09 -9.395694e-06)) ((-1.864954e-13 -5.614280e-12 1.202617e-14) (4.866580e-11 -3.725977e-11 1.029508e-13))
566.960677    	((-1.594859e-08 -2.994123e-08 -1.275868e-05) (-1.166373e-09 -3.776572e-09 -9.393165e-06)) ((-1.915233e-13 -5.608139e-12 1.192618e-14) (5.146737e-11 -3.973384e-11 8.837270e-14))
578.540434    	((-1.662013e-08 -3.087898e-08 -1.275565e-05) (-1.281723e-09 -3.933974e-09 -9.390824e-06)) ((-1.963164e-13 -5.602082e-12 1.181030e-14) (5.419537e-11 -4.201414e-11 7.278403e-14))
590.120465    	((-1.726854e-08 -3.181601e-08 -1.275280e-05) (-1.398958e-09 -4.094530e-09 -9.388654e-06)) ((-2.008894e-13 -5.596431e-12 1.164735e-14) (5.685911e-11 -4.413214e-11 5.371455e-14))
601.700745    	((-1.791277e-08 -3.276055e-08 -1.275012e-05) (-1.516811e-09 -4.258038e-09 -9.386643e-06)) ((-2.054756e-13 -5.590964e-12 1.147984e-14) (5.946012e-11 -4.613900e-11 3.451616e-14))
613.281253    	((-1.854172e-08 -3.372858e-08 -1.274760e-05) (-1.634460e-09 -4.425756e-09 -9.384775e-06)) ((-2.104111e-13 -5.585852e-12 1.136790e-14) (6.199857e-11 -4.806240e-11 1.583641e-14))
624.861968    	((-1.916150e-08 -3.471628e-08 -1.274520e-05) (-1.751536e-09 -4.598483e-09 -9.383037e-06)) ((-2.155336e-13 -5.580909e-12 1.135593e-14) (6.447342e-11 -4.990644e-11 -8.557930e-16))
636.442872    	((-1.978217e-08 -3.571509e-08 -1.274295e-05) (-1.868432e-09 -4.775970e-09 -9.381419e-06)) ((-2.207613e-13 -5.575958e-12 1.129072e-14) (6.688284e-11 -5.168583e-11 -1.452763e-14))
648.023946    	((-2.039495e-08 -3.672935e-08 -1.274086e-05) (-1.985246e-09 -4.958209e-09 -9.379914e-06)) ((-2.261468e-13 -5.571069e-12 1.132139e-14) (6.922716e-11 -5.341766e-11 -2.686312e-14))
659.605176    	((-2.099841e-08 -3.773953e-08 -1.273892e-05) (-2.101524e-09 -5.143573e-09 -9.378515e-06)) ((-2.316408e-13 -5.566371e-12 1.136909e-14) (7.151552e-11 -5.510037e-11 -3.979068e-14))
671.186545    	((-2.159833e-08 -3.875531e-08 -1.273710e-05) (-2.217061e-09 -5.331572e-09 -9.377215e-06)) ((-2.372890e-13 -5.561744e-12 1.146581e-14) (7.376212e-11 -5.674674e-11 -5.302371e-14))
682.768041    	((-2.218852e-08 -3.977221e-08 -1.273539e-05) (-2.331035e-09 -5.521823e-09 -9.376005e-06)) ((-2.430664e-13 -5.557281e-12 1.156415e-14) (7.596927e-11 -5.837061e-11 -6.671065e-14))
694.34965     	((-2.278559e-08 -4.079087e-08 -1.273378e-05) (-2.444089e-09 -5.713642e-09 -9.374878e-06)) ((-2.489556e-13 -5.552670e-12 1.168105e-14) (7.814922e-11 -5.998585e-11 -8.050600e-14))
705.931362    	((-2.338433e-08 -4.181081e-08 -1.273227e-05) (-2.556434e-09 -5.906711e-09 -9.373827e-06)) ((-2.549601e-13 -5.548137e-12 1.184560e-14) (8.029648e-11 -6.160409e-11 -9.441776e-14))
717.513166    	((-2.398384e-08 -4.282939e-08 -1.273086e-05) (-2.667854e-09 -6.100710e-09 -9.372850e-06)) ((-2.610428e-13 -5.543651e-12 1.197817e-14) (8.239554e-11 -6.323014e-11 -1.102659e-13))
