# Forces      
# CofR        : (0.000000e+00 0.000000e+00 0.000000e+00)
# Time        forces(pressure viscous)	moments(pressure viscous)
0             	((0.000000e+00 0.000000e+00 0.000000e+00) (8.934172e-15 -1.592938e-04 2.187429e-14)) ((0.000000e+00 0.000000e+00 0.000000e+00) (-1.114801e-15 2.850198e-17 5.823938e-11))
0.012         	((-1.244378e-08 -4.633296e-02 1.177262e-09) (9.459041e-11 -1.827410e-04 1.275022e-10)) ((-1.828998e-11 -2.809868e-13 8.744449e-09) (-1.520258e-12 -4.589179e-14 1.183887e-10))
0.0264        	((-9.881631e-07 3.340739e-03 -8.341965e-07) (-5.482013e-10 -1.863070e-04 -5.081663e-10)) ((3.374561e-11 -3.022550e-12 -5.670835e-10) (-7.895508e-13 4.772285e-13 1.562886e-10))
0.04368       	((6.259990e-07 9.622307e-03 9.962840e-07) (-4.203630e-10 -1.654324e-04 -2.879984e-10)) ((2.506962e-11 -1.410616e-12 -2.346779e-09) (4.468273e-12 6.584749e-13 1.320624e-10))
0.064416      	((4.250712e-08 9.108809e-05 -1.330047e-07) (-1.720517e-09 -1.464763e-04 -1.825602e-09)) ((-1.805232e-11 -7.706750e-13 1.350753e-10) (-1.659913e-11 2.672321e-13 1.732796e-10))
0.0892992     	((-6.089078e-09 -1.128880e-04 -1.598957e-07) (-3.809725e-09 -1.351957e-04 -3.194520e-09)) ((-1.348070e-12 4.336743e-12 1.342608e-10) (-1.307110e-11 5.275087e-12 1.986360e-10))
0.119159      	((3.359121e-09 1.495476e-04 -6.000707e-08) (-4.359380e-09 -1.248257e-04 -2.838779e-09)) ((-1.149876e-11 -3.333158e-13 -6.356097e-11) (2.570296e-11 1.028508e-11 1.830572e-10))
0.154991      	((2.530894e-08 7.798237e-05 3.550544e-08) (-3.436772e-09 -1.138835e-04 -2.291671e-09)) ((-7.665581e-12 -6.914687e-13 -4.864450e-12) (3.326856e-11 1.248335e-11 1.293107e-10))
0.197989      	((3.761673e-08 1.858985e-05 5.996542e-09) (-2.456729e-09 -1.029100e-04 -1.255299e-09)) ((-6.381875e-12 5.564179e-13 1.369096e-11) (1.713324e-12 1.466856e-11 8.271210e-11))
0.249587      	((-1.691127e-08 -2.814439e-06 9.671965e-09) (-2.305185e-09 -9.223351e-05 -4.799771e-10)) ((-6.501441e-12 1.441686e-13 4.229536e-12) (-2.271862e-11 1.180624e-11 5.368775e-11))
0.311504      	((-2.642024e-08 -1.240544e-05 -5.597720e-09) (-2.233831e-09 -8.217638e-05 -1.722483e-11)) ((-3.601914e-12 -3.250754e-13 4.900319e-12) (-2.917269e-11 6.857851e-12 9.193823e-12))
0.385805      	((-1.328429e-08 -1.738989e-05 -4.705158e-10) (-1.806304e-09 -7.299825e-05 2.118600e-10)) ((-2.118025e-12 -1.691004e-13 4.382555e-12) (-2.720631e-11 4.910840e-12 -2.896727e-11))
0.474966      	((-2.601764e-09 -2.007862e-05 6.502894e-10) (-6.274967e-10 -6.483547e-05 2.535542e-10)) ((-1.382368e-12 9.974910e-14 3.541492e-12) (-2.112344e-11 3.894958e-12 -5.997498e-11))
0.581959      	((9.600744e-10 -2.120669e-05 5.278519e-10) (6.088938e-10 -5.766103e-05 2.715560e-10)) ((-8.186172e-13 5.078983e-14 2.636387e-12) (-1.638014e-11 2.936264e-12 -7.925008e-11))
0.710351      	((1.261691e-09 -2.118379e-05 -7.114523e-10) (1.201998e-09 -5.140506e-05 2.040782e-10)) ((-4.123596e-13 1.511839e-14 2.618294e-12) (-1.282732e-11 2.136519e-12 -8.309379e-11))
0.864421      	((2.740879e-10 -2.042798e-05 -5.777984e-10) (1.358696e-09 -4.598577e-05 1.267280e-10)) ((-2.115199e-13 3.946928e-14 3.545723e-12) (-1.042964e-11 1.588557e-12 -5.495560e-11))
1.049306      	((-7.800098e-10 -1.930963e-05 -1.219174e-09) (1.323246e-09 -4.129860e-05 6.150530e-11)) ((-1.732015e-13 9.900780e-15 3.674600e-12) (-7.352534e-12 1.224879e-12 -2.590240e-11))
1.271167      	((-6.553020e-10 -1.802517e-05 -9.747327e-10) (1.222636e-09 -3.723185e-05 4.087411e-11)) ((-1.475528e-13 1.131269e-14 3.077286e-12) (-4.524109e-12 9.425597e-13 -1.222405e-11))
1.5374        	((-1.326341e-10 -1.667459e-05 -9.029485e-10) (1.159263e-09 -3.367356e-05 5.075206e-11)) ((-1.281184e-13 -4.265166e-15 2.786788e-12) (-2.278035e-12 8.135668e-13 -2.159879e-12))
1.85688       	((2.823860e-11 -1.535049e-05 -6.365909e-10) (1.071193e-09 -3.053233e-05 6.955336e-11)) ((-1.065769e-13 -3.783799e-16 2.653618e-12) (1.091146e-13 7.236301e-13 8.816285e-12))
2.240256      	((3.326993e-10 -1.410852e-05 -7.960114e-10) (9.599031e-10 -2.774319e-05 8.306613e-11)) ((-9.919007e-14 7.503925e-15 2.760976e-12) (3.441507e-12 7.168946e-13 1.861537e-11))
2.700307      	((-1.849401e-10 -1.296496e-05 -8.395014e-10) (7.867003e-10 -2.525864e-05 8.455002e-11)) ((-1.020205e-13 9.989794e-15 2.940796e-12) (7.306897e-12 5.386497e-13 2.517972e-11))
3.252369      	((-1.039210e-10 -1.191460e-05 -1.263155e-09) (5.919778e-10 -2.303887e-05 6.417618e-11)) ((-1.098788e-13 7.642361e-15 3.005772e-12) (1.025476e-11 2.116774e-13 2.784844e-11))
3.914842      	((-4.425335e-10 -1.096039e-05 -1.267668e-09) (5.310924e-10 -2.105134e-05 3.460701e-11)) ((-1.011522e-13 5.670629e-15 2.773190e-12) (1.123138e-11 1.767114e-13 2.559590e-11))
4.709811      	((-8.264560e-10 -1.010813e-05 -1.491642e-09) (4.885102e-10 -1.927248e-05 1.249565e-11)) ((-9.858329e-14 1.109375e-14 2.383768e-12) (1.082448e-11 3.545363e-13 1.268191e-11))
5.663773      	((-1.209108e-09 -9.363566e-06 -1.190672e-09) (4.467748e-10 -1.768503e-05 1.567472e-12)) ((-9.651221e-14 7.770639e-16 2.192189e-12) (9.811747e-12 3.473195e-13 -5.585212e-12))
6.808528      	((-1.403604e-09 -8.719205e-06 -1.272623e-09) (4.481511e-10 -1.627251e-05 -8.442669e-12)) ((-8.563071e-14 -1.033217e-14 2.156537e-12) (8.698891e-12 2.185107e-13 -2.478756e-11))
8.182233      	((-2.684086e-09 -8.172131e-06 -2.346532e-09) (4.327951e-10 -1.501723e-05 -5.552982e-11)) ((-9.667721e-14 -2.296361e-14 2.264905e-12) (8.444241e-12 3.512962e-13 -4.408514e-11))
9.83068       	((-2.922493e-09 -7.728460e-06 -2.951778e-09) (2.950269e-10 -1.390130e-05 -1.335477e-10)) ((-8.402949e-14 -3.637128e-14 2.431412e-12) (9.685530e-12 5.114806e-13 -5.858743e-11))
11.808816     	((-2.930570e-09 -7.382348e-06 -3.514433e-09) (1.509978e-10 -1.290853e-05 -2.304178e-10)) ((-8.395645e-14 -3.726001e-14 2.657836e-12) (1.213302e-11 7.903208e-13 -6.775150e-11))
14.182579     	((-2.548291e-09 -7.131862e-06 -3.551338e-09) (8.509898e-11 -1.202574e-05 -3.286349e-10)) ((-8.431733e-14 -4.823866e-14 2.974770e-12) (1.627583e-11 6.707916e-13 -7.696129e-11))
17.031095     	((-2.571029e-09 -6.979159e-06 -3.810325e-09) (-4.641314e-11 -1.124310e-05 -4.297649e-10)) ((-6.553344e-14 -4.874286e-14 3.380713e-12) (2.294127e-11 5.577125e-13 -8.584232e-11))
20.449314     	((-2.875034e-09 -6.918910e-06 -3.626618e-09) (-1.742957e-10 -1.055360e-05 -5.185972e-10)) ((-6.903829e-14 -3.455920e-14 3.910098e-12) (3.249638e-11 6.098269e-13 -9.523896e-11))
24.551176     	((-3.334871e-09 -6.945184e-06 -3.941211e-09) (-2.693090e-10 -9.952169e-06 -6.038347e-10)) ((-8.455431e-14 -3.217172e-14 4.561326e-12) (4.339822e-11 6.590664e-13 -1.109556e-10))
29.473411     	((-2.429287e-09 -7.050662e-06 -3.417444e-09) (-3.225515e-10 -9.433089e-06 -6.835798e-10)) ((-7.484329e-14 -2.880609e-14 5.312829e-12) (5.538460e-11 4.963056e-13 -1.263583e-10))
35.380094     	((-1.998311e-09 -7.227339e-06 -2.795400e-09) (-3.657771e-10 -8.993880e-06 -7.024328e-10)) ((-7.052273e-14 -1.884865e-14 6.231170e-12) (6.841794e-11 6.317119e-14 -1.442930e-10))
42.468112     	((-1.261064e-09 -7.460790e-06 -2.117755e-09) (-3.780045e-10 -8.629411e-06 -7.030710e-10)) ((-7.271259e-14 -1.484564e-14 7.217320e-12) (7.877460e-11 -1.566824e-13 -1.603884e-10))
50.973735     	((-1.241129e-09 -7.726122e-06 -1.985789e-09) (-2.992904e-10 -8.334846e-06 -7.032851e-10)) ((-7.837543e-14 -1.624236e-14 8.281652e-12) (8.428149e-11 -2.616251e-14 -1.709610e-10))
60.944686     	((-3.793428e-10 -8.000902e-06 -1.022458e-09) (-1.247056e-10 -8.105567e-06 -6.201575e-10)) ((-7.043060e-14 -4.477969e-15 9.221664e-12) (8.408906e-11 1.338013e-13 -1.749005e-10))
72.369364     	((8.256619e-10 -8.250917e-06 -1.927989e-10) (2.057855e-10 -7.929741e-06 -4.330014e-10)) ((-6.264152e-14 4.806199e-15 1.003216e-11) (7.715477e-11 5.713288e-14 -1.717850e-10))
85.241027     	((1.801246e-09 -8.447158e-06 7.560356e-10) (5.594804e-10 -7.790646e-06 -1.453201e-10)) ((-5.158843e-14 1.724090e-14 1.060843e-11) (6.686176e-11 -3.508208e-14 -1.640833e-10))
99.557272     	((2.967504e-09 -8.582659e-06 1.836731e-09) (9.566442e-10 -7.675056e-06 1.995847e-10)) ((-3.729240e-14 2.580699e-14 1.107272e-11) (5.662951e-11 -5.071226e-14 -1.539932e-10))
114.045176    	((3.708602e-09 -8.681623e-06 2.666618e-09) (1.317659e-09 -7.579663e-06 5.620510e-10)) ((-2.931459e-14 3.315987e-14 1.148863e-11) (4.803201e-11 -4.662849e-14 -1.460276e-10))
128.584064    	((3.822883e-09 -8.731054e-06 2.809425e-09) (1.611785e-09 -7.497784e-06 8.839336e-10)) ((-2.632010e-14 3.620718e-14 1.184215e-11) (4.122309e-11 -1.455343e-13 -1.402667e-10))
143.148443    	((3.460038e-09 -8.750714e-06 2.573867e-09) (1.862082e-09 -7.427231e-06 1.127587e-09)) ((-2.372088e-14 4.037703e-14 1.212719e-11) (3.431144e-11 -2.808678e-13 -1.359815e-10))
157.719225    	((2.718059e-09 -8.753197e-06 1.883651e-09) (2.011467e-09 -7.365924e-06 1.279622e-09)) ((-3.043822e-14 4.144292e-14 1.233193e-11) (2.759291e-11 -4.100727e-13 -1.308167e-10))
172.294045    	((1.855005e-09 -8.746834e-06 1.176008e-09) (2.063889e-09 -7.312361e-06 1.353783e-09)) ((-3.716112e-14 4.193883e-14 1.248583e-11) (2.059035e-11 -4.955701e-13 -1.249970e-10))
186.876171    	((1.088961e-09 -8.730434e-06 5.253974e-10) (2.077535e-09 -7.265244e-06 1.360628e-09)) ((-3.959235e-14 4.151090e-14 1.260623e-11) (1.388105e-11 -5.390051e-13 -1.198116e-10))
201.466301    	((3.007885e-10 -8.711727e-06 -9.665386e-11) (2.060509e-09 -7.223448e-06 1.328398e-09)) ((-3.687183e-14 3.936171e-14 1.269866e-11) (7.246574e-12 -5.691887e-13 -1.155175e-10))
216.063155    	((-4.304176e-10 -8.694239e-06 -7.900629e-10) (2.023280e-09 -7.186348e-06 1.270207e-09)) ((-3.637059e-14 3.588803e-14 1.277519e-11) (1.154152e-12 -6.572347e-13 -1.116591e-10))
230.665735    	((-1.185817e-09 -8.678240e-06 -1.431935e-09) (1.971138e-09 -7.153514e-06 1.188778e-09)) ((-3.563394e-14 3.102735e-14 1.284063e-11) (-4.321884e-12 -6.969838e-13 -1.077012e-10))
245.273535    	((-1.804434e-09 -8.662867e-06 -2.121862e-09) (1.902341e-09 -7.124421e-06 1.090755e-09)) ((-3.695509e-14 2.349956e-14 1.289844e-11) (-9.268601e-12 -5.978170e-13 -1.038460e-10))
259.886084    	((-2.579320e-09 -8.649719e-06 -2.888013e-09) (1.816600e-09 -7.098702e-06 9.775070e-10)) ((-3.724192e-14 1.662936e-14 1.294756e-11) (-1.370252e-11 -5.174282e-13 -1.000389e-10))
274.502858    	((-3.235088e-09 -8.637471e-06 -3.702494e-09) (1.714574e-09 -7.075943e-06 8.468552e-10)) ((-3.868539e-14 1.358111e-14 1.298843e-11) (-1.753829e-11 -6.057801e-13 -9.637334e-11))
289.123393    	((-3.777013e-09 -8.625856e-06 -4.434630e-09) (1.610550e-09 -7.055728e-06 7.099353e-10)) ((-4.106285e-14 1.005131e-14 1.302358e-11) (-2.086650e-11 -7.089975e-13 -9.304659e-11))
303.747317    	((-4.335668e-09 -8.615197e-06 -5.216910e-09) (1.503003e-09 -7.037743e-06 5.676428e-10)) ((-4.500690e-14 6.108456e-15 1.305446e-11) (-2.383677e-11 -7.425211e-13 -9.010639e-11))
318.374295    	((-4.822908e-09 -8.604656e-06 -5.909664e-09) (1.389351e-09 -7.021657e-06 4.210274e-10)) ((-4.820103e-14 3.531204e-15 1.308052e-11) (-2.659029e-11 -7.516754e-13 -8.771303e-11))
333.004042    	((-5.312028e-09 -8.595298e-06 -6.628772e-09) (1.272740e-09 -7.007264e-06 2.717411e-10)) ((-5.289949e-14 8.103969e-16 1.310427e-11) (-2.931123e-11 -7.458626e-13 -8.589513e-11))
347.636309    	((-5.703843e-09 -8.586841e-06 -7.210225e-09) (1.162885e-09 -6.994401e-06 1.313101e-10)) ((-5.443650e-14 -1.677945e-15 1.312507e-11) (-3.189162e-11 -7.124868e-13 -8.443347e-11))
362.270849    	((-6.111067e-09 -8.578711e-06 -7.805527e-09) (1.058055e-09 -6.982870e-06 -2.317680e-12)) ((-5.692509e-14 -4.420878e-15 1.314385e-11) (-3.429006e-11 -6.550664e-13 -8.319473e-11))
376.907443    	((-6.463668e-09 -8.570959e-06 -8.350063e-09) (9.576753e-10 -6.972499e-06 -1.295637e-10)) ((-5.984909e-14 -5.649408e-15 1.316122e-11) (-3.649115e-11 -6.123263e-13 -8.215662e-11))
391.5459      	((-6.790566e-09 -8.563785e-06 -8.849776e-09) (8.632197e-10 -6.963154e-06 -2.508195e-10)) ((-6.219421e-14 -6.637397e-15 1.317754e-11) (-3.850918e-11 -5.774638e-13 -8.120625e-11))
406.186052    	((-7.093674e-09 -8.557235e-06 -9.316541e-09) (7.745528e-10 -6.954729e-06 -3.653388e-10)) ((-6.409978e-14 -7.246639e-15 1.319280e-11) (-4.044227e-11 -5.462357e-13 -8.021530e-11))
420.827746    	((-7.358047e-09 -8.551425e-06 -9.733491e-09) (6.934739e-10 -6.947149e-06 -4.719349e-10)) ((-6.572304e-14 -7.427344e-15 1.320676e-11) (-4.223778e-11 -5.104470e-13 -7.915219e-11))
435.470843    	((-7.644875e-09 -8.545790e-06 -1.014086e-08) (6.170466e-10 -6.940300e-06 -5.714683e-10)) ((-6.735444e-14 -7.439651e-15 1.321906e-11) (-4.398146e-11 -4.851984e-13 -7.802243e-11))
450.115217    	((-7.901415e-09 -8.540796e-06 -1.050336e-08) (5.459082e-10 -6.934115e-06 -6.635696e-10)) ((-6.881360e-14 -7.344080e-15 1.323039e-11) (-4.569728e-11 -4.669335e-13 -7.684001e-11))
464.760757    	((-8.156250e-09 -8.536151e-06 -1.083745e-08) (4.792449e-10 -6.928526e-06 -7.473649e-10)) ((-6.994965e-14 -7.339545e-15 1.324061e-11) (-4.743450e-11 -4.464877e-13 -7.560739e-11))
479.407363    	((-8.382379e-09 -8.531867e-06 -1.115572e-08) (4.199049e-10 -6.923469e-06 -8.235614e-10)) ((-7.110349e-14 -7.616386e-15 1.324990e-11) (-4.918891e-11 -4.270697e-13 -7.426877e-11))
494.054944    	((-8.621069e-09 -8.527901e-06 -1.145139e-08) (3.652333e-10 -6.918887e-06 -8.929404e-10)) ((-7.205022e-14 -7.845158e-15 1.325827e-11) (-5.094744e-11 -4.172219e-13 -7.283403e-11))
508.703413    	((-8.852337e-09 -8.524205e-06 -1.172987e-08) (3.139229e-10 -6.914729e-06 -9.570465e-10)) ((-7.311798e-14 -7.991310e-15 1.326585e-11) (-5.267533e-11 -4.149597e-13 -7.134267e-11))
523.352695    	((-9.072571e-09 -8.520761e-06 -1.199136e-08) (2.662981e-10 -6.910953e-06 -1.015412e-09)) ((-7.373241e-14 -8.163191e-15 1.327268e-11) (-5.434661e-11 -4.111576e-13 -6.980996e-11))
538.002721    	((-9.289721e-09 -8.517510e-06 -1.226927e-08) (2.221996e-10 -6.907513e-06 -1.070389e-09)) ((-7.483422e-14 -8.514135e-15 1.327885e-11) (-5.597468e-11 -4.067458e-13 -6.825674e-11))
552.653426    	((-9.541053e-09 -8.514498e-06 -1.256863e-08) (1.782818e-10 -6.904376e-06 -1.124833e-09)) ((-7.625706e-14 -8.794827e-15 1.328453e-11) (-5.757104e-11 -4.034795e-13 -6.671966e-11))
567.304752    	((-9.803811e-09 -8.511702e-06 -1.288737e-08) (1.330249e-10 -6.901513e-06 -1.180452e-09)) ((-7.799310e-14 -8.978974e-15 1.328967e-11) (-5.914043e-11 -4.019402e-13 -6.520420e-11))
581.956646    	((-1.007164e-08 -8.509127e-06 -1.321005e-08) (8.670909e-11 -6.898899e-06 -1.237181e-09)) ((-7.972638e-14 -9.246058e-15 1.329434e-11) (-6.069929e-11 -4.007528e-13 -6.371825e-11))
596.609059    	((-1.035517e-08 -8.506776e-06 -1.355094e-08) (3.857557e-11 -6.896512e-06 -1.295281e-09)) ((-8.163961e-14 -9.390852e-15 1.329863e-11) (-6.226146e-11 -4.014297e-13 -6.226362e-11))
611.261949    	((-1.064953e-08 -8.504618e-06 -1.390390e-08) (-1.187245e-11 -6.894332e-06 -1.355259e-09)) ((-8.363130e-14 -9.611455e-15 1.330255e-11) (-6.383162e-11 -4.015290e-13 -6.084482e-11))
625.915275    	((-1.095134e-08 -8.502640e-06 -1.426858e-08) (-6.473209e-11 -6.892340e-06 -1.417274e-09)) ((-8.572453e-14 -9.801568e-15 1.330612e-11) (-6.540399e-11 -3.999113e-13 -5.947086e-11))
640.569001    	((-1.125687e-08 -8.500806e-06 -1.464697e-08) (-1.197596e-10 -6.890519e-06 -1.481943e-09)) ((-8.793940e-14 -1.006397e-14 1.330943e-11) (-6.696757e-11 -3.982447e-13 -5.814843e-11))
655.223094    	((-1.156961e-08 -8.499118e-06 -1.502979e-08) (-1.770322e-10 -6.888851e-06 -1.549150e-09)) ((-9.029836e-14 -1.034351e-14 1.331255e-11) (-6.851029e-11 -3.979491e-13 -5.688083e-11))
669.877522    	((-1.188627e-08 -8.497547e-06 -1.542655e-08) (-2.366232e-10 -6.887323e-06 -1.619585e-09)) ((-9.274487e-14 -1.066295e-14 1.331546e-11) (-7.001645e-11 -3.985572e-13 -5.566702e-11))
684.532258    	((-1.219873e-08 -8.496098e-06 -1.581485e-08) (-2.977528e-10 -6.885921e-06 -1.692048e-09)) ((-9.502005e-14 -1.090259e-14 1.331815e-11) (-7.147549e-11 -3.996511e-13 -5.450563e-11))
699.187275    	((-1.250440e-08 -8.494763e-06 -1.620126e-08) (-3.597755e-10 -6.884634e-06 -1.765949e-09)) ((-9.725440e-14 -1.110145e-14 1.332063e-11) (-7.287755e-11 -4.013221e-13 -5.340244e-11))
713.842551    	((-1.279174e-08 -8.493525e-06 -1.657365e-08) (-4.214066e-10 -6.883453e-06 -1.840435e-09)) ((-9.936452e-14 -1.130211e-14 1.332289e-11) (-7.421075e-11 -4.036485e-13 -5.236715e-11))
728.498062    	((-1.306678e-08 -8.492385e-06 -1.693649e-08) (-4.819627e-10 -6.882370e-06 -1.914922e-09)) ((-1.013778e-13 -1.148849e-14 1.332497e-11) (-7.546694e-11 -4.063908e-13 -5.140039e-11))
743.153791    	((-1.332353e-08 -8.491331e-06 -1.728589e-08) (-5.406978e-10 -6.881375e-06 -1.988791e-09)) ((-1.032980e-13 -1.167331e-14 1.332690e-11) (-7.663606e-11 -4.091954e-13 -5.050448e-11))
757.809718    	((-1.356655e-08 -8.490362e-06 -1.762005e-08) (-5.973587e-10 -6.880461e-06 -2.061491e-09)) ((-1.051268e-13 -1.185719e-14 1.332870e-11) (-7.773067e-11 -4.124614e-13 -4.967647e-11))
772.465827    	((-1.379477e-08 -8.489466e-06 -1.793689e-08) (-6.517103e-10 -6.879620e-06 -2.132392e-09)) ((-1.068290e-13 -1.199867e-14 1.333036e-11) (-7.875637e-11 -4.160388e-13 -4.890906e-11))
787.122103    	((-1.400953e-08 -8.488643e-06 -1.823781e-08) (-7.035741e-10 -6.878848e-06 -2.201061e-09)) ((-1.084308e-13 -1.212658e-14 1.333187e-11) (-7.971496e-11 -4.194947e-13 -4.819584e-11))
801.778533    	((-1.421031e-08 -8.487885e-06 -1.852080e-08) (-7.527603e-10 -6.878138e-06 -2.267101e-09)) ((-1.099111e-13 -1.223730e-14 1.333327e-11) (-8.060852e-11 -4.231509e-13 -4.753045e-11))
816.435103    	((-1.439821e-08 -8.487185e-06 -1.878489e-08) (-7.991658e-10 -6.877485e-06 -2.329966e-09)) ((-1.112737e-13 -1.234745e-14 1.333456e-11) (-8.144344e-11 -4.270195e-13 -4.690718e-11))
831.091802    	((-1.457177e-08 -8.486536e-06 -1.903055e-08) (-8.426268e-10 -6.876885e-06 -2.389398e-09)) ((-1.125216e-13 -1.243035e-14 1.333575e-11) (-8.222514e-11 -4.308386e-13 -4.631839e-11))
845.748619    	((-1.473596e-08 -8.485940e-06 -1.925874e-08) (-8.833375e-10 -6.876333e-06 -2.445280e-09)) ((-1.137202e-13 -1.249917e-14 1.333684e-11) (-8.295705e-11 -4.343467e-13 -4.576185e-11))
860.405546    	((-1.489163e-08 -8.485387e-06 -1.947322e-08) (-9.215042e-10 -6.875825e-06 -2.497719e-09)) ((-1.148723e-13 -1.258293e-14 1.333785e-11) (-8.364719e-11 -4.380579e-13 -4.523012e-11))
875.062573    	((-1.504023e-08 -8.484878e-06 -1.967290e-08) (-9.573608e-10 -6.875357e-06 -2.546756e-09)) ((-1.159528e-13 -1.265682e-14 1.333878e-11) (-8.429995e-11 -4.417407e-13 -4.472053e-11))
889.719692    	((-1.518348e-08 -8.484403e-06 -1.986383e-08) (-9.912038e-10 -6.874927e-06 -2.592768e-09)) ((-1.170323e-13 -1.274339e-14 1.333963e-11) (-8.491980e-11 -4.451645e-13 -4.423018e-11))
904.376896    	((-1.532049e-08 -8.483969e-06 -2.004363e-08) (-1.023142e-09 -6.874530e-06 -2.635880e-09)) ((-1.180504e-13 -1.281072e-14 1.334043e-11) (-8.551259e-11 -4.485250e-13 -4.375553e-11))
