# Forces      
# CofR        : (0.000000e+00 0.000000e+00 0.000000e+00)
# Time        forces(pressure viscous)	moments(pressure viscous)
0             	((0.000000e+00 0.000000e+00 0.000000e+00) (0.000000e+00 0.000000e+00 0.000000e+00)) ((0.000000e+00 0.000000e+00 0.000000e+00) (0.000000e+00 0.000000e+00 0.000000e+00))
0.012         	((-2.456583e-10 1.134759e-07 2.322400e-10) (7.262674e-12 2.892646e-09 -9.381649e-12)) ((-3.395505e-14 4.429071e-15 -2.586925e-09) (1.525433e-15 -2.646270e-13 -3.509093e-06))
0.0264        	((-1.150719e-09 1.684140e-08 2.151546e-11) (1.655744e-11 4.270129e-09 -1.742245e-11)) ((1.166369e-14 -2.528184e-13 -1.195725e-09) (-1.861165e-14 -6.983918e-13 -3.214514e-06))
0.04368       	((1.199889e-10 5.357494e-08 9.278600e-10) (6.013547e-12 4.525445e-09 -2.561074e-11)) ((-3.795603e-14 -2.857128e-13 -6.637566e-10) (-4.157559e-14 -1.260255e-12 -2.911990e-06))
0.064416      	((-6.647715e-10 -6.629262e-09 -7.633996e-10) (-3.984107e-11 3.943850e-09 -4.228469e-11)) ((2.188470e-14 -1.708253e-13 -3.703351e-10) (-5.574021e-14 -1.928880e-12 -2.608567e-06))
0.0892992     	((2.958001e-09 2.373087e-08 5.744893e-10) (-9.272506e-11 3.332395e-09 -6.604357e-11)) ((-4.544124e-14 -4.052537e-13 -2.863144e-10) (-2.042987e-14 -2.762405e-12 -2.313492e-06))
0.119159      	((-1.150734e-09 -2.671698e-09 1.386897e-10) (-1.238344e-10 2.803285e-09 -8.212195e-11)) ((2.099683e-14 -2.617434e-13 -2.215303e-10) (1.658301e-13 -3.388908e-12 -2.036151e-06))
0.154991      	((5.277839e-10 1.231737e-08 -8.602504e-11) (-1.326239e-10 2.658451e-09 -9.023178e-11)) ((-4.020513e-14 -2.283476e-13 -1.859829e-10) (3.495784e-13 -3.791675e-12 -1.783115e-06))
0.197989      	((-6.869161e-10 5.162559e-09 2.048247e-10) (-1.032076e-10 2.492075e-09 -9.293306e-11)) ((-5.653146e-14 -2.338909e-13 -1.537984e-10) (3.073044e-13 -3.850475e-12 -1.559176e-06))
0.249587      	((7.373772e-10 7.125627e-09 1.793216e-11) (-4.616751e-11 2.325242e-09 -9.559764e-11)) ((-7.141121e-14 -1.918091e-13 -1.275123e-10) (1.202411e-13 -3.672410e-12 -1.366398e-06))
0.311504      	((-3.107458e-10 6.426083e-09 7.194221e-11) (6.494378e-12 2.162915e-09 -9.272378e-11)) ((-2.201746e-14 -9.407851e-14 -1.054414e-10) (-1.126301e-13 -3.287828e-12 -1.203949e-06))
0.385805      	((1.009486e-09 6.469973e-09 -1.886872e-10) (-2.861202e-11 1.982093e-09 -8.253082e-11)) ((9.071588e-15 -3.592780e-14 -8.906112e-11) (-3.547608e-13 -2.871736e-12 -1.068311e-06))
0.474966      	((-2.441381e-09 7.558616e-09 1.331708e-10) (-5.310516e-11 1.799586e-09 -8.519069e-11)) ((3.795305e-14 -5.435955e-14 -7.721702e-11) (-2.493376e-13 -2.515014e-12 -9.544399e-07))
0.581959      	((-1.400800e-09 5.970429e-09 1.404592e-10) (-5.628101e-11 1.604945e-09 -7.837834e-11)) ((3.698895e-14 -2.654619e-14 -6.561192e-11) (2.173054e-13 -1.700026e-12 -8.575987e-07))
0.710351      	((-1.839850e-09 5.050158e-09 -3.172509e-11) (-2.198327e-10 1.372351e-09 -5.948214e-11)) ((8.399443e-14 5.468762e-14 -5.408894e-11) (9.744775e-13 -7.957355e-13 -7.739833e-07))
0.864421      	((3.381193e-10 7.447216e-09 -4.316249e-10) (-3.530902e-10 1.032417e-09 -5.831062e-11)) ((5.493032e-14 6.183631e-14 -4.611374e-11) (1.766575e-12 -3.736150e-13 -7.007651e-07))
1.049306      	((9.496564e-10 7.211452e-09 -1.748157e-10) (-3.882406e-10 7.151871e-10 -6.727762e-11)) ((4.539818e-14 1.082382e-13 -4.107416e-11) (1.619612e-12 -3.239255e-13 -6.358757e-07))
1.271167      	((1.505803e-09 7.578483e-09 -1.612772e-10) (-4.830650e-10 6.044930e-10 -7.450417e-11)) ((2.376745e-14 1.643546e-13 -3.735316e-11) (5.347640e-13 -1.508314e-12 -5.778259e-07))
1.5374        	((-2.620978e-10 7.919304e-09 -1.309370e-10) (-4.215979e-10 4.257181e-10 -8.628721e-11)) ((-3.351012e-14 2.409012e-13 -3.361677e-11) (-1.626333e-12 -3.554179e-12 -5.256596e-07))
1.85688       	((-8.664111e-10 8.991614e-09 1.261407e-10) (-1.041429e-10 2.430836e-10 -8.527161e-11)) ((-7.837536e-14 2.191741e-13 -2.999224e-11) (-5.025012e-12 -5.363644e-12 -4.788427e-07))
2.240256      	((-1.045861e-09 7.507460e-09 1.086403e-10) (1.777668e-10 2.182717e-10 -4.269156e-11)) ((-9.872440e-14 1.914222e-13 -2.737407e-11) (-9.071713e-12 -6.997733e-12 -4.370991e-07))
2.700307      	((1.472732e-10 6.500844e-09 1.968284e-10) (3.906984e-10 2.184280e-10 1.444327e-11)) ((-1.223037e-13 1.975206e-13 -2.487265e-11) (-1.218832e-11 -8.236319e-12 -4.001926e-07))
3.252369      	((1.010502e-09 3.919160e-09 8.679310e-11) (5.566647e-10 4.997549e-11 5.617380e-11)) ((-1.424698e-13 1.432651e-13 -2.227538e-11) (-1.441824e-11 -1.007385e-11 -3.677630e-07))
3.914842      	((8.715757e-10 1.890864e-09 2.723813e-10) (6.783831e-10 -2.359933e-10 6.012220e-11)) ((-1.915657e-13 6.603519e-14 -1.948885e-11) (-1.625280e-11 -1.205937e-11 -3.392986e-07))
4.709811      	((-3.794307e-11 9.431462e-10 2.829148e-10) (6.007114e-10 -4.511266e-10 4.718584e-11)) ((-2.132017e-13 -5.359656e-14 -1.693236e-11) (-1.652085e-11 -1.203017e-11 -3.141793e-07))
5.663773      	((1.257454e-09 7.923026e-11 2.664927e-10) (4.634159e-10 -7.232529e-10 -2.259725e-11)) ((-2.408739e-13 -9.980609e-14 -1.461216e-11) (-1.537376e-11 -1.114701e-11 -2.917654e-07))
6.808528      	((1.248280e-09 4.440652e-10 2.806262e-10) (1.896746e-10 -6.388224e-10 -8.453458e-11)) ((-1.900953e-13 -1.928907e-13 -1.288326e-11) (-1.420453e-11 -9.591638e-12 -2.715160e-07))
8.182233      	((1.557043e-09 3.982065e-10 2.558469e-10) (2.692071e-11 -5.535577e-10 -1.139285e-10)) ((-2.108831e-13 -2.133100e-13 -1.159974e-11) (-1.304239e-11 -7.157557e-12 -2.530635e-07))
9.83068       	((1.372823e-09 4.663642e-10 -1.010336e-10) (-1.003503e-10 -4.164161e-10 -1.521520e-10)) ((-2.301306e-13 -2.096951e-13 -1.057532e-11) (-9.943503e-12 -5.315592e-12 -2.361538e-07))
11.808816     	((1.235027e-09 2.906772e-10 2.633256e-11) (-2.157880e-10 -2.391271e-10 -1.391616e-10)) ((-1.883243e-13 -2.047892e-13 -9.715514e-12) (-6.251778e-12 -4.838879e-12 -2.205744e-07))
14.182579     	((9.672401e-10 6.188989e-10 -2.176262e-10) (-2.385747e-10 -1.986906e-10 -1.377470e-10)) ((-1.271036e-13 -2.124213e-13 -9.006704e-12) (-3.529566e-12 -4.288939e-12 -2.061806e-07))
17.031095     	((1.183519e-09 1.365050e-10 -8.543020e-11) (-2.075292e-10 3.170113e-11 -1.022896e-10)) ((-9.786844e-14 -1.812313e-13 -8.430951e-12) (-1.782901e-12 -4.113938e-12 -1.929156e-07))
20.449314     	((-1.285120e-10 -1.938225e-10 -4.226637e-11) (-3.084989e-10 6.417223e-11 -4.356540e-11)) ((-6.061813e-14 -1.666828e-13 -7.944872e-12) (-6.088184e-13 -4.373984e-12 -1.807748e-07))
24.551176     	((4.753404e-11 -4.744346e-10 1.879831e-11) (-2.821676e-10 6.932093e-11 -1.845547e-11)) ((-1.778522e-14 -1.465347e-13 -7.491551e-12) (9.839490e-13 -5.049424e-12 -1.697389e-07))
29.473411     	((-4.896243e-10 -3.510566e-10 -3.829916e-12) (-2.751609e-10 1.164293e-10 -8.709217e-12)) ((2.012769e-14 -1.123473e-13 -7.127331e-12) (2.144442e-12 -5.998553e-12 -1.597578e-07))
35.380094     	((-4.861303e-10 -3.729211e-10 -1.660268e-11) (-1.730640e-10 1.772628e-10 -2.632562e-11)) ((2.881073e-14 -9.178160e-14 -6.853138e-12) (2.668730e-12 -6.660019e-12 -1.507620e-07))
42.468112     	((-4.075308e-10 2.139897e-10 4.093564e-12) (-9.528144e-11 2.732053e-10 -2.159282e-11)) ((7.258502e-15 -9.162200e-14 -6.552007e-12) (2.663403e-12 -7.282492e-12 -1.426478e-07))
50.973735     	((-2.690306e-10 1.717797e-10 -7.200985e-11) (-1.334458e-10 1.908431e-10 -1.742271e-11)) ((-4.298918e-15 -9.067252e-14 -6.271321e-12) (2.418873e-12 -7.663018e-12 -1.353036e-07))
61.180482     	((4.405338e-11 4.828387e-10 -8.357015e-11) (-1.021479e-10 5.036708e-11 6.915043e-12)) ((3.817547e-16 -1.100986e-13 -6.030790e-12) (2.190148e-12 -6.767491e-12 -1.286361e-07))
73.428578     	((7.014133e-11 3.953074e-10 -5.636287e-11) (-1.427215e-10 -9.629317e-11 6.098421e-12)) ((4.273632e-15 -1.140335e-13 -5.771221e-12) (2.015273e-12 -5.597348e-12 -1.225775e-07))
88.126294     	((1.641561e-10 4.387007e-10 -6.700323e-11) (-2.227210e-10 -7.513841e-11 -3.440655e-12)) ((1.145965e-14 -1.141040e-13 -5.462971e-12) (1.808039e-12 -4.471535e-12 -1.170894e-07))
105.763553    	((-1.412086e-10 3.978564e-10 -5.102656e-11) (-3.246324e-10 1.473340e-11 1.032583e-11)) ((1.334970e-14 -1.155388e-13 -5.251723e-12) (1.357019e-12 -3.124686e-12 -1.121475e-07))
126.928263    	((-3.483784e-10 2.947709e-10 -3.472652e-11) (-4.329087e-10 -2.562338e-11 1.087429e-11)) ((1.230011e-14 -1.082923e-13 -5.099229e-12) (8.197994e-13 -1.509219e-12 -1.077261e-07))
152.150426    	((-5.472775e-10 1.054838e-10 -5.547318e-11) (-4.017503e-10 -6.693410e-11 3.007525e-12)) ((1.360889e-14 -1.079355e-13 -5.015455e-12) (3.669078e-13 1.741064e-13 -1.038061e-07))
181.429225    	((-7.684307e-10 -3.680778e-11 -8.537903e-11) (-4.200309e-10 -1.032159e-10 5.972404e-12)) ((1.133728e-14 -1.090220e-13 -4.945190e-12) (-3.165570e-13 1.651531e-12 -1.003849e-07))
214.763753    	((-9.383528e-10 -8.314207e-11 -6.088528e-11) (-5.204922e-10 -5.663766e-11 6.027173e-12)) ((5.422148e-15 -1.107223e-13 -4.871943e-12) (-6.633840e-13 2.944283e-12 -9.743643e-08))
252.152994    	((-8.991731e-10 -1.274847e-10 -7.312443e-11) (-5.168831e-10 -4.631244e-12 -1.334649e-12)) ((3.393527e-15 -1.117912e-13 -4.779446e-12) (-3.843302e-13 3.665810e-12 -9.492719e-08))
292.688263    	((-8.453271e-10 -2.653827e-11 -1.274312e-10) (-4.899453e-10 4.864099e-11 -3.403833e-12)) ((5.136379e-15 -1.050781e-13 -4.703916e-12) (2.993913e-13 3.460779e-12 -9.283490e-08))
333.210366    	((-7.525623e-10 -2.202264e-11 -1.029141e-10) (-4.979952e-10 3.495577e-11 -2.028189e-12)) ((9.815674e-16 -9.759234e-14 -4.635752e-12) (1.021428e-12 2.808437e-12 -9.115535e-08))
373.719446    	((-6.376748e-10 6.951087e-11 -6.589892e-11) (-4.980092e-10 -2.454666e-13 5.022974e-12)) ((-3.410951e-15 -9.676850e-14 -4.582877e-12) (1.761666e-12 2.261142e-12 -8.983127e-08))
414.215462    	((-5.584141e-10 1.078367e-10 -3.131315e-11) (-4.321550e-10 -5.102567e-11 1.888486e-11)) ((-9.144057e-15 -9.284426e-14 -4.535751e-12) (2.357873e-12 1.832779e-12 -8.881445e-08))
454.698393    	((-4.326146e-10 1.305709e-10 -4.871288e-11) (-3.809629e-10 -6.185914e-11 2.647963e-11)) ((-1.573628e-14 -8.756569e-14 -4.501265e-12) (2.690211e-12 1.520123e-12 -8.805184e-08))
495.168506    	((-3.688630e-10 1.610190e-10 -4.156933e-11) (-3.607813e-10 -8.668649e-12 2.648306e-11)) ((-1.786647e-14 -8.038754e-14 -4.468307e-12) (2.863128e-12 1.386378e-12 -8.750210e-08))
535.626719    	((-3.264189e-10 1.940873e-10 -4.106483e-11) (-3.353163e-10 5.006144e-11 2.163710e-11)) ((-1.872643e-14 -7.307079e-14 -4.444869e-12) (2.991857e-12 1.380666e-12 -8.712893e-08))
576.073982    	((-2.707928e-10 2.024959e-10 -1.915703e-11) (-3.192558e-10 7.112289e-11 1.634328e-11)) ((-2.273388e-14 -6.815473e-14 -4.418969e-12) (3.115787e-12 1.351798e-12 -8.690385e-08))
616.50941     	((-2.173023e-10 2.241350e-10 1.265117e-11) (-3.179787e-10 5.833210e-11 1.186312e-11)) ((-2.756126e-14 -6.395076e-14 -4.387615e-12) (3.165737e-12 1.262476e-12 -8.680241e-08))
656.933414    	((-1.624030e-10 2.266255e-10 1.649115e-11) (-3.298549e-10 4.646760e-11 1.056792e-11)) ((-3.112866e-14 -6.008720e-14 -4.359988e-12) (3.280432e-12 1.258621e-12 -8.680347e-08))
697.346827    	((-1.342618e-10 2.082412e-10 1.805057e-11) (-3.636235e-10 4.045570e-11 1.428228e-11)) ((-3.409084e-14 -5.721106e-14 -4.328353e-12) (3.392259e-12 1.375122e-12 -8.688943e-08))
737.750442    	((-1.030202e-10 2.095276e-10 2.389747e-11) (-3.996009e-10 3.507780e-11 1.860862e-11)) ((-3.753450e-14 -5.472873e-14 -4.298895e-12) (3.481919e-12 1.503410e-12 -8.704467e-08))
778.145004    	((-7.574979e-11 2.207829e-10 2.139394e-11) (-4.239207e-10 1.765911e-11 2.283165e-11)) ((-4.030138e-14 -5.288105e-14 -4.275190e-12) (3.485923e-12 1.549191e-12 -8.725478e-08))
818.531367    	((-5.279747e-11 2.420548e-10 2.698427e-11) (-4.414879e-10 1.064655e-11 2.772124e-11)) ((-4.296303e-14 -5.168903e-14 -4.254199e-12) (3.487813e-12 1.592343e-12 -8.750745e-08))
858.910506    	((-6.484394e-12 2.822156e-10 2.495052e-11) (-4.459041e-10 1.217416e-11 3.305865e-11)) ((-4.474683e-14 -5.018181e-14 -4.237784e-12) (3.425736e-12 1.670554e-12 -8.779151e-08))
899.283241    	((2.621870e-11 2.961186e-10 1.878972e-11) (-4.445829e-10 2.265042e-11 3.684737e-11)) ((-4.635895e-14 -4.974485e-14 -4.229363e-12) (3.319562e-12 1.780562e-12 -8.809741e-08))
939.650392    	((3.269785e-11 3.064370e-10 1.475806e-11) (-4.436158e-10 3.847258e-11 3.823354e-11)) ((-4.717136e-14 -5.031345e-14 -4.226231e-12) (3.210555e-12 1.860509e-12 -8.841678e-08))
