# Forces      
# CofR        : (0.000000e+00 0.000000e+00 0.000000e+00)
# Time        forces(pressure viscous)	moments(pressure viscous)
0             	((0.000000e+00 0.000000e+00 0.000000e+00) (3.135275e-13 -6.340696e-03 -4.016427e-13)) ((0.000000e+00 0.000000e+00 0.000000e+00) (1.973241e-14 -2.809472e-15 1.996154e-09))
0.012         	((-1.784574e-06 -1.860579e+00 -1.539772e-06) (-4.068991e-10 -7.620343e-03 -2.355663e-08)) ((1.302708e-10 -2.133359e-11 3.379937e-07) (2.493877e-10 8.574433e-13 1.718216e-09))
0.0264        	((6.447075e-06 3.474336e-01 3.563785e-08) (4.458420e-09 -7.604002e-03 -5.302868e-08)) ((-6.007732e-09 -6.608845e-10 -2.739639e-08) (-1.739551e-09 -1.688437e-11 -3.412441e-09))
0.04368       	((1.492402e-05 2.597187e-01 2.385187e-05) (2.133468e-08 -6.529281e-03 -3.232385e-08)) ((3.935397e-09 5.840562e-10 -9.629139e-08) (-1.534805e-09 -5.449297e-11 -1.018026e-08))
0.064416      	((-1.314600e-05 -2.003693e-04 -1.570574e-05) (-1.222411e-07 -5.756463e-03 -5.206237e-08)) ((3.128281e-10 -4.206871e-12 1.462746e-08) (-2.127313e-10 -6.767512e-11 -1.582144e-08))
0.0892992     	((-1.565146e-05 2.047863e-03 -1.117448e-05) (-8.506976e-07 -5.295815e-03 -9.253405e-08)) ((-5.061137e-10 -2.113346e-11 -1.749253e-09) (-6.956295e-10 -6.436264e-11 -1.919302e-08))
0.119159      	((-2.255296e-05 1.298220e-03 -3.077917e-06) (-1.274759e-06 -4.910656e-03 -1.266825e-07)) ((-5.738847e-10 8.130481e-11 -2.306464e-09) (-6.337589e-10 -1.115261e-10 -2.140434e-08))
0.154991      	((-8.975797e-06 -9.670730e-04 -3.628265e-06) (-1.194768e-06 -4.570542e-03 -1.030521e-07)) ((-2.905377e-10 1.343256e-10 -2.364109e-09) (-1.649803e-11 -1.555109e-10 -2.315791e-08))
0.197989      	((-1.189207e-05 -1.750235e-03 -6.624538e-07) (-1.524027e-06 -4.282021e-03 -3.629352e-08)) ((-1.325971e-10 6.492112e-11 -1.495314e-10) (-6.007204e-11 -1.556697e-10 -2.594820e-08))
0.249587      	((-8.836668e-06 -2.185195e-03 -1.075256e-06) (-1.760905e-06 -4.039798e-03 -3.372996e-08)) ((-7.469910e-11 2.762574e-11 2.380571e-09) (-2.758681e-10 -1.386310e-10 -3.022726e-08))
0.311504      	((-5.692997e-06 -2.454441e-03 -2.519733e-07) (-1.600513e-06 -3.826175e-03 -5.560928e-08)) ((-3.564173e-11 -1.039039e-11 3.089144e-09) (-1.498718e-10 -9.006984e-11 -3.750398e-08))
0.385805      	((-5.501075e-06 -2.648019e-03 -4.845979e-07) (-1.538962e-06 -3.625686e-03 -6.765667e-08)) ((-1.845310e-11 1.518102e-11 3.107535e-09) (3.440987e-10 -6.252216e-12 -4.252838e-08))
0.474966      	((-5.128529e-06 -2.858728e-03 -2.617363e-07) (-1.475941e-06 -3.432201e-03 -6.983760e-08)) ((-2.977131e-11 -6.307802e-12 4.406208e-09) (5.966826e-10 2.465414e-11 -4.248631e-08))
0.581959      	((-3.270216e-06 -3.134516e-03 -5.823571e-07) (-1.216996e-06 -3.247916e-03 -6.434639e-08)) ((-4.333145e-11 -2.282999e-11 6.163571e-09) (3.244131e-10 1.626351e-11 -4.293972e-08))
0.710351      	((-7.885692e-07 -3.504234e-03 -4.581192e-07) (-9.166322e-07 -3.077030e-03 -6.630399e-08)) ((-5.461815e-11 -3.077735e-11 7.934682e-09) (-2.150148e-10 2.480724e-11 -4.598203e-08))
0.864421      	((1.012772e-06 -4.002093e-03 -5.971371e-07) (-6.527095e-07 -2.921921e-03 -5.469942e-08)) ((-6.944823e-11 -2.366357e-11 9.870705e-09) (-6.498702e-10 5.920894e-11 -4.984123e-08))
1.044368      	((4.514301e-06 -4.640152e-03 -1.474639e-07) (-1.891628e-07 -2.786499e-03 -1.857282e-08)) ((-6.131400e-11 -1.403530e-11 1.252311e-08) (-8.778725e-10 8.169260e-11 -5.726150e-08))
1.249993      	((8.106912e-06 -5.412365e-03 2.138150e-07) (2.617312e-07 -2.671589e-03 -4.899080e-09)) ((-4.464325e-11 -9.725890e-12 1.550128e-08) (-9.657112e-10 8.961702e-11 -6.965256e-08))
1.481068      	((1.125630e-05 -6.324592e-03 6.078971e-07) (6.156270e-07 -2.576465e-03 -1.194367e-08)) ((1.519906e-12 -1.513666e-11 1.866105e-08) (-1.110256e-09 9.332855e-11 -8.636165e-08))
1.732924      	((1.445772e-05 -7.306872e-03 1.419374e-06) (7.707296e-07 -2.500299e-03 -2.448024e-08)) ((3.035180e-11 -2.375951e-11 2.201385e-08) (-9.641533e-10 1.054824e-10 -1.063418e-07))
1.981709      	((1.622090e-05 -8.283319e-03 2.373262e-06) (6.753133e-07 -2.440258e-03 -5.461409e-08)) ((4.565666e-11 -2.557773e-11 2.483801e-08) (1.573705e-09 1.406164e-10 -1.233523e-07))
2.227471      	((1.896441e-05 -9.193739e-03 4.156534e-06) (5.283029e-07 -2.388773e-03 -8.564546e-08)) ((7.513661e-11 -5.000727e-11 2.712397e-08) (5.305200e-09 7.029042e-11 -1.435943e-07))
2.470808      	((2.226673e-05 -9.966028e-03 6.325311e-06) (4.600479e-07 -2.344712e-03 -6.933373e-08)) ((8.393889e-11 -1.072808e-10 2.925015e-08) (7.039979e-09 5.488107e-11 -1.595271e-07))
2.713024      	((2.665051e-05 -1.054624e-02 8.277841e-06) (4.089019e-07 -2.308174e-03 3.184377e-08)) ((6.100915e-11 -1.662727e-10 3.206720e-08) (4.611372e-09 1.659358e-10 -1.662381e-07))
2.955229      	((2.987897e-05 -1.093656e-02 9.612886e-06) (3.489035e-07 -2.276394e-03 1.755982e-07)) ((7.410151e-11 -1.559088e-10 3.485123e-08) (-9.800376e-11 1.897333e-10 -1.637139e-07))
3.19758       	((3.221947e-05 -1.110111e-02 1.022523e-05) (3.447744e-07 -2.246232e-03 2.613390e-07)) ((9.156855e-11 -1.195986e-10 3.732783e-08) (-2.714414e-09 1.899570e-10 -1.538350e-07))
3.439563      	((3.529417e-05 -1.100792e-02 1.019877e-05) (4.087597e-07 -2.217778e-03 2.732181e-07)) ((9.027528e-11 -1.292950e-10 3.902342e-08) (-1.936224e-09 2.090554e-10 -1.454283e-07))
3.680725      	((4.088599e-05 -1.082264e-02 1.192708e-05) (6.353631e-07 -2.191482e-03 2.837082e-07)) ((1.371394e-10 -1.500409e-10 3.971902e-08) (-4.675739e-10 3.162307e-11 -1.385177e-07))
3.921048      	((4.644098e-05 -1.064768e-02 1.354019e-05) (9.799075e-07 -2.167882e-03 3.204252e-07)) ((1.723403e-10 -1.546534e-10 3.942928e-08) (-2.675911e-10 -4.812847e-11 -1.266235e-07))
4.160727      	((5.072892e-05 -1.052295e-02 1.515267e-05) (1.251051e-06 -2.148676e-03 3.947754e-07)) ((1.377168e-10 -1.576043e-10 3.924701e-08) (-9.994823e-10 9.709662e-11 -1.158266e-07))
4.399898      	((5.386368e-05 -1.044927e-02 1.620660e-05) (1.370813e-06 -2.133907e-03 4.892826e-07)) ((1.415410e-10 -1.629213e-10 3.957962e-08) (-2.096656e-09 -8.807249e-11 -1.096328e-07))
4.638552      	((5.796750e-05 -1.038342e-02 1.925144e-05) (1.468880e-06 -2.121072e-03 5.865241e-07)) ((1.965214e-10 -1.896388e-10 4.052062e-08) (-2.906767e-09 -2.828652e-10 -1.035531e-07))
4.876626      	((6.501560e-05 -1.030506e-02 2.271469e-05) (1.643124e-06 -2.108649e-03 6.800775e-07)) ((1.996486e-10 -1.740644e-10 4.163527e-08) (-2.246971e-09 -2.684994e-10 -9.612532e-08))
5.114089      	((7.236077e-05 -1.021732e-02 2.565503e-05) (1.834958e-06 -2.096490e-03 7.695278e-07)) ((2.444281e-10 -1.840650e-10 4.239410e-08) (-2.083669e-10 -7.371777e-11 -9.104810e-08))
5.350963      	((7.863334e-05 -1.009095e-02 2.704280e-05) (2.096477e-06 -2.084259e-03 8.454718e-07)) ((1.986730e-10 -1.785492e-10 4.273573e-08) (2.106801e-09 3.131909e-10 -8.760763e-08))
5.587305      	((8.545586e-05 -9.955240e-03 2.904135e-05) (2.399063e-06 -2.072162e-03 9.145767e-07)) ((1.645479e-10 -2.189852e-10 4.264024e-08) (4.484513e-09 5.412228e-10 -8.480839e-08))
5.823153      	((9.481121e-05 -9.840837e-03 3.202911e-05) (2.675922e-06 -2.060970e-03 9.825490e-07)) ((1.435750e-10 -2.919109e-10 4.233094e-08) (7.398514e-09 3.767900e-10 -8.469969e-08))
6.058534      	((1.053458e-04 -9.757766e-03 3.598571e-05) (2.954749e-06 -2.050883e-03 1.051865e-06)) ((1.539831e-10 -3.440683e-10 4.206415e-08) (1.047528e-08 2.421886e-10 -8.695391e-08))
6.293464      	((1.184420e-04 -9.698420e-03 4.125655e-05) (3.261348e-06 -2.041605e-03 1.136487e-06)) ((2.217392e-10 -3.894625e-10 4.197269e-08) (1.362225e-08 1.557588e-10 -9.227674e-08))
6.52797       	((1.330714e-04 -9.642703e-03 4.720341e-05) (3.615109e-06 -2.033095e-03 1.242647e-06)) ((2.650878e-10 -3.769397e-10 4.200563e-08) (1.771123e-08 2.290462e-10 -1.007688e-07))
6.762094      	((1.504659e-04 -9.592913e-03 5.235369e-05) (4.027681e-06 -2.025395e-03 1.370280e-06)) ((2.703063e-10 -3.382082e-10 4.211575e-08) (2.162103e-08 4.189173e-10 -1.101859e-07))
6.995875      	((1.696534e-04 -9.549386e-03 5.706333e-05) (4.496037e-06 -2.018333e-03 1.504411e-06)) ((2.774891e-10 -3.044119e-10 4.231136e-08) (2.515481e-08 3.852631e-10 -1.205418e-07))
7.229332      	((1.875790e-04 -9.505025e-03 6.195989e-05) (4.962242e-06 -2.011508e-03 1.630835e-06)) ((2.782445e-10 -2.641821e-10 4.250224e-08) (2.938358e-08 1.221308e-10 -1.342046e-07))
7.462483      	((2.056324e-04 -9.461367e-03 6.678355e-05) (5.456321e-06 -2.004669e-03 1.776871e-06)) ((3.080239e-10 -2.065871e-10 4.263245e-08) (3.279004e-08 2.180375e-10 -1.469780e-07))
7.695348      	((2.253500e-04 -9.414393e-03 7.183476e-05) (6.029595e-06 -1.997890e-03 1.945760e-06)) ((3.400654e-10 -1.509523e-10 4.267575e-08) (3.580407e-08 6.844312e-10 -1.570782e-07))
7.927942      	((2.483649e-04 -9.367076e-03 7.763969e-05) (6.674892e-06 -1.991307e-03 2.120336e-06)) ((3.978994e-10 -1.143099e-10 4.267843e-08) (3.937677e-08 9.660222e-10 -1.649653e-07))
8.160298      	((2.735345e-04 -9.321699e-03 8.595188e-05) (7.386953e-06 -1.985034e-03 2.319626e-06)) ((4.610834e-10 -8.985687e-11 4.268909e-08) (4.314469e-08 1.127227e-09 -1.715449e-07))
8.392461      	((3.028461e-04 -9.281124e-03 9.278383e-05) (8.194489e-06 -1.979126e-03 2.534958e-06)) ((4.780804e-10 -5.029665e-11 4.269080e-08) (4.671459e-08 1.336732e-09 -1.782510e-07))
8.624463      	((3.350305e-04 -9.247765e-03 1.008128e-04) (9.106560e-06 -1.973619e-03 2.766907e-06)) ((5.139514e-10 2.990493e-12 4.272320e-08) (4.992250e-08 1.570003e-09 -1.865015e-07))
8.856309      	((3.676219e-04 -9.220394e-03 1.097881e-04) (1.010044e-05 -1.968498e-03 3.039782e-06)) ((5.644887e-10 7.150790e-11 4.277556e-08) (5.283813e-08 1.612722e-09 -1.978587e-07))
9.087996      	((4.032529e-04 -9.193982e-03 1.199047e-04) (1.117189e-05 -1.963660e-03 3.350785e-06)) ((6.292382e-10 1.376071e-10 4.284705e-08) (5.610960e-08 1.501065e-09 -2.114591e-07))
9.319527      	((4.426957e-04 -9.168339e-03 1.304326e-04) (1.235326e-05 -1.958988e-03 3.680243e-06)) ((7.085586e-10 2.043358e-10 4.292176e-08) (6.052895e-08 1.500563e-09 -2.259767e-07))
9.550907      	((4.847451e-04 -9.142153e-03 1.405872e-04) (1.365329e-05 -1.954429e-03 4.017855e-06)) ((7.899639e-10 2.638333e-10 4.300433e-08) (6.585305e-08 1.490577e-09 -2.408587e-07))
9.782143      	((5.300481e-04 -9.113781e-03 1.538432e-04) (1.506924e-05 -1.949969e-03 4.377663e-06)) ((8.781592e-10 2.988660e-10 4.309719e-08) (7.157500e-08 1.301308e-09 -2.560956e-07))
10.013233     	((5.805507e-04 -9.087279e-03 1.708009e-04) (1.660757e-05 -1.945649e-03 4.798511e-06)) ((9.565795e-10 3.096432e-10 4.320443e-08) (7.746509e-08 9.146081e-10 -2.721520e-07))
10.244173     	((6.388441e-04 -9.060324e-03 1.889993e-04) (1.829562e-05 -1.941497e-03 5.286418e-06)) ((1.013278e-09 3.130959e-10 4.331458e-08) (8.399644e-08 4.999073e-10 -2.905669e-07))
10.474964     	((7.062441e-04 -9.036015e-03 2.085444e-04) (2.018163e-05 -1.937545e-03 5.841752e-06)) ((1.104015e-09 3.069048e-10 4.342319e-08) (9.110063e-08 1.544741e-10 -3.123334e-07))
10.70561      	((7.848100e-04 -9.011778e-03 2.303087e-04) (2.233280e-05 -1.933805e-03 6.469671e-06)) ((1.228535e-09 3.064146e-10 4.352169e-08) (9.884553e-08 -1.425967e-10 -3.379894e-07))
10.936117     	((8.730361e-04 -8.988145e-03 2.563793e-04) (2.476770e-05 -1.930241e-03 7.188355e-06)) ((1.378529e-09 2.972624e-10 4.360667e-08) (1.070724e-07 -3.542222e-10 -3.682986e-07))
11.166488     	((9.738727e-04 -8.963640e-03 2.860071e-04) (2.750567e-05 -1.926793e-03 8.011391e-06)) ((1.549657e-09 2.574852e-10 4.366804e-08) (1.161723e-07 -3.514948e-10 -4.040356e-07))
11.396728     	((1.085027e-03 -8.939449e-03 3.199013e-04) (3.057411e-05 -1.923430e-03 8.941908e-06)) ((1.756999e-09 2.019938e-10 4.369389e-08) (1.269111e-07 -5.186070e-10 -4.449065e-07))
11.626842     	((1.207648e-03 -8.918166e-03 3.565051e-04) (3.398445e-05 -1.920153e-03 9.998430e-06)) ((1.988020e-09 1.545957e-10 4.367564e-08) (1.391056e-07 -9.030261e-10 -4.903857e-07))
11.856835     	((1.344693e-03 -8.898836e-03 3.953928e-04) (3.779624e-05 -1.916994e-03 1.118161e-05)) ((2.227458e-09 9.678462e-11 4.361885e-08) (1.523315e-07 -7.853961e-10 -5.390819e-07))
12.086713     	((1.494878e-03 -8.884811e-03 4.372104e-04) (4.206776e-05 -1.914017e-03 1.249683e-05)) ((2.522546e-09 4.450124e-11 4.352830e-08) (1.656139e-07 1.995189e-10 -5.896055e-07))
12.316479     	((1.659852e-03 -8.873534e-03 4.818330e-04) (4.685955e-05 -1.911236e-03 1.392654e-05)) ((2.844416e-09 -3.770370e-11 4.342000e-08) (1.798759e-07 1.411350e-09 -6.418478e-07))
12.54614      	((1.839209e-03 -8.868127e-03 5.310104e-04) (5.219971e-05 -1.908641e-03 1.544146e-05)) ((3.208251e-09 -1.543729e-10 4.329090e-08) (1.969014e-07 2.032549e-09 -6.981651e-07))
12.775699     	((2.033823e-03 -8.866166e-03 5.845397e-04) (5.811765e-05 -1.906242e-03 1.707662e-05)) ((3.618147e-09 -3.152878e-10 4.313582e-08) (2.153423e-07 1.142835e-09 -7.601088e-07))
13.005141     	((2.245394e-03 -8.868909e-03 6.429221e-04) (6.465969e-05 -1.904057e-03 1.887413e-05)) ((4.060946e-09 -4.870989e-10 4.294530e-08) (2.339793e-07 -1.189262e-09 -8.281050e-07))
13.234405     	((2.479102e-03 -8.878272e-03 7.077033e-04) (7.186307e-05 -1.902089e-03 2.085288e-05)) ((4.585141e-09 -6.624701e-10 4.273069e-08) (2.541507e-07 -3.823107e-09 -9.038977e-07))
13.463497     	((2.735741e-03 -8.893959e-03 7.791879e-04) (7.976936e-05 -1.900330e-03 2.304150e-05)) ((5.138727e-09 -8.279937e-10 4.250964e-08) (2.773390e-07 -5.809438e-09 -9.897598e-07))
13.69242      	((3.016909e-03 -8.917258e-03 8.576907e-04) (8.841075e-05 -1.898853e-03 2.544433e-05)) ((5.707387e-09 -9.973664e-10 4.224478e-08) (3.043170e-07 -7.102681e-09 -1.086893e-06))
13.921174     	((3.327836e-03 -8.949754e-03 9.408893e-04) (9.791334e-05 -1.897763e-03 2.806301e-05)) ((6.215035e-09 -1.213639e-09 4.196466e-08) (3.345457e-07 -7.925997e-09 -1.193621e-06))
14.149759     	((3.664731e-03 -8.993481e-03 1.030807e-03) (1.084257e-04 -1.897171e-03 3.091978e-05)) ((6.717000e-09 -1.503981e-09 4.164232e-08) (3.670172e-07 -8.434968e-09 -1.306230e-06))
14.378185     	((4.023544e-03 -9.053124e-03 1.128862e-03) (1.199985e-04 -1.897159e-03 3.406703e-05)) ((7.242865e-09 -1.910341e-09 4.131249e-08) (4.007319e-07 -9.084823e-09 -1.423275e-06))
14.606456     	((4.405733e-03 -9.127619e-03 1.234970e-03) (1.326088e-04 -1.897761e-03 3.754389e-05)) ((7.767216e-09 -2.466430e-09 4.094994e-08) (4.359673e-07 -1.012473e-08 -1.547041e-06))
14.834583     	((4.813564e-03 -9.216450e-03 1.351014e-03) (1.462194e-04 -1.899038e-03 4.137332e-05)) ((8.358727e-09 -3.026526e-09 4.053760e-08) (4.722592e-07 -1.101285e-08 -1.680185e-06))
15.062598     	((5.246910e-03 -9.328242e-03 1.477413e-03) (1.608811e-04 -1.901186e-03 4.555403e-05)) ((9.052701e-09 -3.618708e-09 4.005163e-08) (5.096279e-07 -1.166213e-08 -1.820259e-06))
15.290528     	((5.713443e-03 -9.469923e-03 1.613954e-03) (1.767312e-04 -1.904346e-03 5.008504e-05)) ((9.899851e-09 -4.398435e-09 3.945617e-08) (5.504071e-07 -1.224418e-08 -1.967290e-06))
15.518355     	((6.211199e-03 -9.638948e-03 1.763173e-03) (1.938626e-04 -1.908561e-03 5.497824e-05)) ((1.086661e-08 -5.434935e-09 3.884395e-08) (5.978420e-07 -1.251990e-08 -2.123747e-06))
15.746064     	((6.739545e-03 -9.837425e-03 1.927147e-03) (2.123045e-04 -1.914109e-03 6.031845e-05)) ((1.191214e-08 -6.727793e-09 3.816317e-08) (6.509627e-07 -1.178008e-08 -2.287529e-06))
15.973651     	((7.295071e-03 -1.007111e-02 2.103078e-03) (2.321216e-04 -1.921254e-03 6.613872e-05)) ((1.293017e-08 -8.259280e-09 3.745648e-08) (7.104036e-07 -7.745118e-09 -2.451226e-06))
16.201123     	((7.879156e-03 -1.033723e-02 2.291766e-03) (2.533615e-04 -1.930037e-03 7.252510e-05)) ((1.387135e-08 -9.945263e-09 3.674579e-08) (7.750596e-07 -5.554201e-10 -2.615220e-06))
16.428508     	((8.480366e-03 -1.064748e-02 2.487101e-03) (2.759722e-04 -1.940593e-03 7.948769e-05)) ((1.465393e-08 -1.167335e-08 3.600759e-08) (8.408841e-07 7.858912e-09 -2.780622e-06))
16.655788     	((9.093003e-03 -1.099246e-02 2.684034e-03) (2.997883e-04 -1.952965e-03 8.692676e-05)) ((1.529387e-08 -1.354926e-08 3.525310e-08) (9.072555e-07 1.638225e-08 -2.948319e-06))
16.882755     	((9.709218e-03 -1.137874e-02 2.883653e-03) (3.247666e-04 -1.967123e-03 9.482312e-05)) ((1.587588e-08 -1.563489e-08 3.452928e-08) (9.708380e-07 2.486657e-08 -3.113306e-06))
17.109402     	((1.031140e-02 -1.181023e-02 3.074744e-03) (3.507709e-04 -1.983369e-03 1.030926e-04)) ((1.622628e-08 -1.783168e-08 3.379474e-08) (1.028019e-06 3.219518e-08 -3.266560e-06))
17.335717     	((1.088166e-02 -1.228996e-02 3.258831e-03) (3.774795e-04 -2.002073e-03 1.115956e-04)) ((1.638253e-08 -2.007907e-08 3.311720e-08) (1.074728e-06 3.823563e-08 -3.399688e-06))
17.561756     	((1.140725e-02 -1.279908e-02 3.431437e-03) (4.044858e-04 -2.023286e-03 1.201453e-04)) ((1.629163e-08 -2.221508e-08 3.239387e-08) (1.111432e-06 4.391426e-08 -3.507548e-06))
17.787627     	((1.186851e-02 -1.331991e-02 3.579216e-03) (4.313467e-04 -2.046875e-03 1.286212e-04)) ((1.608963e-08 -2.408963e-08 3.176603e-08) (1.136071e-06 5.003489e-08 -3.582559e-06))
18.01348      	((1.223792e-02 -1.383561e-02 3.696856e-03) (4.574731e-04 -2.072440e-03 1.368405e-04)) ((1.586382e-08 -2.573656e-08 3.126995e-08) (1.146235e-06 5.637204e-08 -3.618971e-06))
18.239457     	((1.248688e-02 -1.433144e-02 3.779072e-03) (4.819551e-04 -2.099326e-03 1.444581e-04)) ((1.555694e-08 -2.693221e-08 3.090319e-08) (1.145292e-06 6.232318e-08 -3.620627e-06))
18.465679     	((1.259693e-02 -1.477802e-02 3.812580e-03) (5.041211e-04 -2.126546e-03 1.512231e-04)) ((1.501905e-08 -2.781182e-08 3.067604e-08) (1.134711e-06 6.938473e-08 -3.583344e-06))
18.691988     	((1.253301e-02 -1.512224e-02 3.782594e-03) (5.230421e-04 -2.152684e-03 1.567191e-04)) ((1.419169e-08 -2.804906e-08 3.048696e-08) (1.114995e-06 7.986400e-08 -3.502939e-06))
18.918484     	((1.226506e-02 -1.534857e-02 3.688360e-03) (5.374816e-04 -2.176678e-03 1.605296e-04)) ((1.335025e-08 -2.761451e-08 3.014338e-08) (1.083996e-06 9.644144e-08 -3.372806e-06))
19.145334     	((1.175289e-02 -1.542400e-02 3.520017e-03) (5.459315e-04 -2.197573e-03 1.622719e-04)) ((1.249127e-08 -2.603782e-08 2.948965e-08) (1.039358e-06 1.185753e-07 -3.189197e-06))
19.372715     	((1.097492e-02 -1.530671e-02 3.263266e-03) (5.468208e-04 -2.214095e-03 1.614661e-04)) ((1.176132e-08 -2.322855e-08 2.858843e-08) (9.778770e-07 1.430468e-07 -2.948785e-06))
19.600833     	((9.884103e-03 -1.499189e-02 2.911186e-03) (5.381028e-04 -2.225118e-03 1.574305e-04)) ((1.088006e-08 -1.889905e-08 2.721371e-08) (9.081731e-07 1.722886e-07 -2.670236e-06))
19.829939     	((8.496538e-03 -1.447612e-02 2.483132e-03) (5.175865e-04 -2.229720e-03 1.497952e-04)) ((9.647663e-09 -1.335852e-08 2.600560e-08) (8.371119e-07 2.116690e-07 -2.384126e-06))
20.06015      	((6.812277e-03 -1.382288e-02 1.961275e-03) (4.837184e-04 -2.227749e-03 1.381062e-04)) ((6.648533e-09 -6.327692e-09 2.576181e-08) (7.717115e-07 2.563227e-07 -2.118656e-06))
20.290841     	((4.899067e-03 -1.312955e-02 1.391702e-03) (4.367932e-04 -2.220564e-03 1.222430e-04)) ((1.726146e-09 5.953595e-10 2.665817e-08) (7.213404e-07 2.895111e-07 -1.866176e-06))
20.521974     	((2.837861e-03 -1.251957e-02 7.911834e-04) (3.786109e-04 -2.210972e-03 1.027236e-04)) ((-4.495106e-09 5.809667e-09 2.743359e-08) (6.828990e-07 3.005289e-07 -1.568847e-06))
20.753557     	((7.849676e-04 -1.208581e-02 1.964531e-04) (3.119345e-04 -2.201073e-03 8.051073e-05)) ((-1.126680e-08 8.299467e-09 2.796149e-08) (6.619726e-07 2.969172e-07 -1.239164e-06))
20.985563     	((-1.112236e-03 -1.182860e-02 -3.277372e-04) (2.407513e-04 -2.193648e-03 5.705705e-05)) ((-1.617674e-08 8.772212e-09 2.828212e-08) (6.395920e-07 2.940787e-07 -8.551697e-07))
21.217801     	((-2.769575e-03 -1.177157e-02 -7.740786e-04) (1.699328e-04 -2.191011e-03 3.417801e-05)) ((-1.840394e-08 7.488703e-09 2.796905e-08) (5.997298e-07 3.063617e-07 -3.684434e-07))
21.450248     	((-4.138046e-03 -1.184064e-02 -1.118609e-03) (1.022209e-04 -2.193837e-03 1.325107e-05)) ((-1.828593e-08 6.213000e-09 2.870127e-08) (5.370876e-07 3.294209e-07 1.824426e-07))
21.682862     	((-5.202948e-03 -1.200297e-02 -1.365017e-03) (4.021100e-05 -2.201205e-03 -4.726298e-06)) ((-1.723103e-08 6.012215e-09 3.244338e-08) (4.414165e-07 3.521366e-07 7.665721e-07))
21.915588     	((-5.999057e-03 -1.217707e-02 -1.543221e-03) (-1.349464e-05 -2.212570e-03 -1.902593e-05)) ((-1.534086e-08 6.268977e-09 3.687853e-08) (2.867165e-07 3.675750e-07 1.414237e-06))
22.148418     	((-6.564301e-03 -1.233485e-02 -1.660744e-03) (-5.843172e-05 -2.225631e-03 -2.958540e-05)) ((-1.362142e-08 6.814461e-09 4.003886e-08) (7.563238e-08 3.739067e-07 2.072353e-06))
22.381382     	((-6.923047e-03 -1.242060e-02 -1.736717e-03) (-9.493759e-05 -2.238311e-03 -3.699717e-05)) ((-1.211089e-08 7.279342e-09 4.162069e-08) (-1.616231e-07 3.689674e-07 2.699153e-06))
22.614512     	((-7.130330e-03 -1.245045e-02 -1.777013e-03) (-1.236348e-04 -2.249312e-03 -4.207010e-05)) ((-1.203846e-08 7.523980e-09 4.248847e-08) (-3.982281e-07 3.600469e-07 3.279969e-06))
