# Forces      
# CofR        : (0.000000e+00 0.000000e+00 0.000000e+00)
# Time        forces(pressure viscous)	moments(pressure viscous)
0             	((0.000000e+00 0.000000e+00 0.000000e+00) (0.000000e+00 0.000000e+00 0.000000e+00)) ((0.000000e+00 0.000000e+00 0.000000e+00) (0.000000e+00 0.000000e+00 0.000000e+00))
0.012         	((-1.756998e-12 2.255169e-12 -4.435176e-12) (1.987004e-15 4.235364e-15 2.921211e-14)) ((2.004016e-11 -1.912902e-15 -3.917400e-17) (1.397254e-08 1.531817e-15 -6.424345e-16))
0.0264        	((2.016139e-12 3.944806e-12 -8.009230e-12) (-2.362414e-14 -3.296646e-14 2.541440e-14)) ((9.886638e-12 -1.500885e-15 3.883288e-16) (1.279798e-08 2.642340e-15 -6.348189e-16))
0.04368       	((-8.796225e-12 -5.906506e-12 -9.347650e-12) (1.147861e-14 -1.010870e-13 8.307417e-15)) ((5.458369e-12 -1.249573e-15 4.343777e-16) (1.159089e-08 1.482402e-15 1.091921e-15))
0.064416      	((3.151846e-12 -2.811568e-13 -2.108649e-12) (1.273955e-13 -1.511330e-13 -1.725164e-14)) ((3.055882e-12 -8.412986e-16 -1.596868e-16) (1.037757e-08 -1.429716e-15 2.872465e-15))
0.0892992     	((-1.429347e-12 -1.644678e-12 -5.599552e-13) (2.522970e-13 -1.681320e-13 -5.302804e-14)) ((2.294819e-12 -8.191927e-16 1.139706e-16) (9.193363e-09 -4.302107e-15 3.872116e-15))
0.119159      	((-1.194273e-12 -2.741781e-12 -7.058050e-12) (3.288008e-13 -1.557872e-13 -8.469285e-14)) ((1.639080e-12 -5.817275e-16 -2.427101e-17) (8.074783e-09 -5.902302e-15 4.137498e-15))
0.154991      	((1.590148e-12 3.454805e-12 2.060446e-12) (3.639668e-13 -1.361669e-13 -9.522495e-14)) ((1.298593e-12 -4.575216e-16 -4.749586e-17) (7.047597e-09 -6.391224e-15 3.637876e-15))
0.197989      	((1.840481e-12 4.561684e-13 -2.124246e-12) (3.959909e-13 -1.131912e-13 -9.416553e-14)) ((1.031383e-12 -2.065738e-16 -3.866295e-17) (6.136939e-09 -6.275594e-15 2.994969e-15))
0.249587      	((6.997058e-13 6.747149e-13 -2.138865e-12) (3.996778e-13 -1.051616e-13 -9.648583e-14)) ((8.532064e-13 -1.285106e-16 -9.217698e-17) (5.356353e-09 -5.926799e-15 2.727350e-15))
0.311504      	((9.833451e-13 1.798176e-12 -2.600164e-12) (3.692576e-13 -1.107480e-13 -7.934954e-14)) ((7.121193e-13 -1.738312e-16 -2.584862e-17) (4.703947e-09 -5.303549e-15 2.823197e-15))
0.385805      	((-5.642180e-13 2.294279e-12 -3.548847e-12) (3.325825e-13 -1.023511e-13 -6.594053e-14)) ((6.123692e-13 -1.836542e-16 6.246006e-17) (4.165682e-09 -5.348340e-15 2.815989e-15))
0.474966      	((-4.967410e-13 3.148953e-12 -3.381259e-12) (2.817428e-13 -6.450275e-14 -1.105701e-13)) ((5.468828e-13 -1.123330e-16 9.914790e-17) (3.720424e-09 -7.067443e-15 2.746478e-15))
0.581959      	((2.158628e-12 4.579628e-12 -1.120029e-12) (1.924804e-13 -2.438629e-15 -1.614378e-13)) ((4.901646e-13 -1.376316e-16 1.532099e-16) (3.346178e-09 -8.816863e-15 3.261710e-15))
0.710351      	((2.455754e-12 5.342088e-12 -4.160174e-12) (7.769380e-14 5.547465e-15 -1.596707e-13)) ((4.331628e-13 -1.783082e-16 1.946577e-16) (3.024721e-09 -9.542387e-15 4.650132e-15))
0.864421      	((3.034232e-12 6.661507e-12 -2.575906e-12) (-3.958162e-14 -8.374191e-14 -1.180382e-13)) ((3.948327e-13 -2.795066e-16 2.167513e-16) (2.743130e-09 -8.817431e-15 6.693401e-15))
1.049306      	((1.925090e-12 6.729325e-12 -4.609955e-12) (-1.170073e-13 -1.671440e-13 -5.616395e-14)) ((3.694634e-13 -3.045312e-16 2.021273e-16) (2.492846e-09 -6.700443e-15 7.951016e-15))
1.271167      	((-1.466172e-13 8.542377e-12 -5.751295e-12) (-1.145946e-13 -2.434081e-13 3.063427e-14)) ((3.441211e-13 -2.601961e-16 1.748755e-16) (2.268142e-09 -3.431276e-15 9.822020e-15))
1.5374        	((-8.870646e-13 8.025880e-12 -7.680463e-12) (-5.442460e-14 -3.740287e-13 1.628553e-13)) ((3.149191e-13 -6.165219e-17 1.277120e-16) (2.065295e-09 -1.387430e-15 1.650368e-14))
1.85688       	((9.229714e-13 8.404053e-12 -7.552637e-12) (-1.031332e-13 -6.363823e-13 3.791320e-13)) ((2.892667e-13 1.981967e-18 6.113697e-17) (1.882280e-09 4.423878e-15 2.438429e-14))
2.240256      	((1.226952e-13 9.289205e-12 -6.872728e-12) (-1.043376e-13 -1.043486e-12 7.931888e-13)) ((2.735275e-13 1.143271e-16 -3.902371e-17) (1.718054e-09 1.314835e-14 3.530453e-14))
2.700307      	((1.644089e-13 8.394782e-12 -5.501414e-12) (-1.491442e-14 -1.667544e-12 1.452816e-12)) ((2.627675e-13 1.603457e-16 -1.037620e-16) (1.571883e-09 2.421858e-14 5.387533e-14))
3.252369      	((1.192038e-13 6.014386e-12 -5.662743e-12) (-1.212628e-13 -2.552815e-12 2.200445e-12)) ((2.522254e-13 2.474763e-16 -1.761459e-16) (1.442763e-09 4.042125e-14 7.215545e-14))
3.914842      	((6.165295e-13 2.729380e-12 -3.763060e-12) (-9.246762e-14 -3.406136e-12 2.929164e-12)) ((2.401025e-13 2.097919e-16 -1.364459e-16) (1.329182e-09 5.340877e-14 8.491782e-14))
4.709811      	((-1.937373e-13 9.406997e-13 -1.136570e-12) (9.365152e-14 -4.199879e-12 3.683921e-12)) ((2.258567e-13 2.219351e-16 -8.415421e-17) (1.229051e-09 6.191785e-14 9.324739e-14))
5.663773      	((3.027938e-13 1.976019e-14 8.584502e-13) (4.591144e-14 -4.765774e-12 4.270202e-12)) ((2.098369e-13 2.214647e-16 -5.399442e-17) (1.140029e-09 6.933059e-14 9.482249e-14))
6.808528      	((8.085705e-13 -1.082311e-12 1.574131e-12) (-1.189168e-14 -4.850094e-12 4.415785e-12)) ((1.937778e-13 2.301183e-16 -9.678339e-17) (1.060035e-09 6.979862e-14 9.258774e-14))
8.182233      	((1.010622e-13 -1.629200e-12 2.522464e-12) (-4.932075e-14 -4.554088e-12 4.157933e-12)) ((1.781439e-13 2.110699e-16 -9.454618e-17) (9.874092e-10 6.195477e-14 8.495097e-14))
9.83068       	((9.482297e-13 -1.997591e-12 2.308606e-12) (-1.499464e-13 -3.888033e-12 3.567932e-12)) ((1.624469e-13 1.854174e-16 -1.510769e-16) (9.209211e-10 5.009459e-14 6.901941e-14))
11.808816     	((3.712572e-13 3.618748e-13 7.580061e-13) (-3.564614e-13 -2.956618e-12 2.797939e-12)) ((1.482020e-13 1.670631e-16 -2.033988e-16) (8.597413e-10 4.086543e-14 4.910599e-14))
14.182579     	((2.111925e-13 4.339260e-13 -3.096794e-13) (-5.989967e-13 -2.074272e-12 2.078858e-12)) ((1.346832e-13 1.746388e-16 -2.261900e-16) (8.033647e-10 3.454730e-14 2.888444e-14))
17.031095     	((4.397891e-13 8.087804e-13 -1.323516e-13) (-6.134941e-13 -1.430925e-12 1.472377e-12)) ((1.234380e-13 1.258348e-16 -2.122954e-16) (7.515282e-10 2.555254e-14 1.466096e-14))
20.449314     	((1.735611e-13 9.431628e-13 -4.767357e-13) (-4.728314e-13 -9.668287e-13 9.924185e-13)) ((1.133906e-13 1.088083e-16 -1.986437e-16) (7.040503e-10 1.557172e-14 8.491143e-15))
24.551176     	((-9.396524e-14 8.704339e-13 -9.351358e-13) (-2.984042e-13 -6.883929e-13 6.722066e-13)) ((1.045592e-13 1.045601e-16 -2.090175e-16) (6.606508e-10 8.971792e-15 5.345553e-15))
29.473411     	((1.124607e-13 9.131883e-13 -5.274308e-13) (-1.621571e-13 -5.091963e-13 5.148956e-13)) ((9.713938e-14 8.376090e-17 -1.895478e-16) (6.210499e-10 5.709464e-15 4.314165e-15))
35.380094     	((-3.529334e-15 1.279646e-12 -5.129995e-13) (-7.756440e-14 -4.115639e-13 4.349282e-13)) ((9.049853e-14 6.600940e-17 -1.711358e-16) (5.849258e-10 2.972738e-15 6.356129e-15))
42.468112     	((-7.533387e-14 8.252694e-13 -5.601313e-13) (-2.055917e-14 -4.223861e-13 4.284191e-13)) ((8.470044e-14 6.106356e-17 -1.578129e-16) (5.519744e-10 2.019366e-15 8.645803e-15))
50.973735     	((3.200155e-16 7.180287e-13 -3.461618e-13) (5.789436e-14 -4.653940e-13 4.715200e-13)) ((7.946779e-14 3.750013e-17 -1.420152e-16) (5.219321e-10 2.251783e-15 9.810512e-15))
61.180482     	((2.985658e-14 6.873000e-13 -5.260163e-13) (7.641359e-14 -5.507839e-13 5.549963e-13)) ((7.474252e-14 1.015483e-17 -1.293803e-16) (4.945767e-10 3.595416e-15 1.081018e-14))
73.428578     	((1.080962e-15 4.528714e-13 -2.071462e-13) (5.426317e-14 -6.325038e-13 6.491511e-13)) ((7.062629e-14 -1.355254e-18 -1.146100e-16) (4.697259e-10 6.152898e-15 1.185956e-14))
88.126294     	((8.835943e-14 4.781152e-13 -9.675206e-14) (3.262465e-14 -6.920885e-13 7.212846e-13)) ((6.698274e-14 -1.822989e-17 -1.003181e-16) (4.471918e-10 8.631191e-15 1.288602e-14))
105.763553    	((4.439925e-14 2.510398e-13 2.851531e-14) (1.864133e-14 -7.147063e-13 7.496899e-13)) ((6.353991e-14 -3.256122e-17 -8.969029e-17) (4.268017e-10 9.463452e-15 1.371641e-14))
126.928263    	((8.437413e-14 1.357743e-13 1.659032e-13) (2.219692e-15 -7.109691e-13 7.383403e-13)) ((6.048303e-14 -3.823938e-17 -8.520637e-17) (4.083707e-10 9.368519e-15 1.412838e-14))
152.325916    	((2.193691e-14 1.030055e-15 2.110768e-13) (-2.356641e-14 -6.761343e-13 6.975200e-13)) ((5.775153e-14 -4.281564e-17 -8.287537e-17) (3.917049e-10 9.581552e-15 1.428033e-14))
182.803099    	((4.887006e-14 -9.703977e-14 1.945950e-13) (-3.265268e-14 -6.247289e-13 6.289697e-13)) ((5.522050e-14 -4.689791e-17 -7.941192e-17) (3.766094e-10 1.002328e-14 1.439785e-14))
219.375719    	((6.978814e-14 -6.746316e-14 2.154631e-13) (-4.850413e-14 -5.871036e-13 5.836620e-13)) ((5.290664e-14 -4.857990e-17 -7.424495e-17) (3.629056e-10 1.096903e-14 1.466238e-14))
263.262863    	((7.450859e-14 -1.549033e-13 1.512847e-13) (-8.986672e-14 -5.843850e-13 5.659395e-13)) ((5.080872e-14 -4.436214e-17 -6.402062e-17) (3.504463e-10 1.166211e-14 1.521759e-14))
315.927436    	((1.591503e-14 -2.201513e-13 1.428570e-13) (-1.099589e-13 -5.911905e-13 5.641127e-13)) ((4.893125e-14 -3.788292e-17 -5.917199e-17) (3.391105e-10 1.215740e-14 1.577546e-14))
379.124923    	((2.240866e-15 -2.113276e-13 1.720219e-13) (-1.053554e-13 -5.923157e-13 5.710124e-13)) ((4.721162e-14 -2.834170e-17 -5.441097e-17) (3.288024e-10 1.229667e-14 1.607276e-14))
454.961908    	((-1.319411e-14 -1.766734e-13 1.758355e-13) (-1.202611e-13 -5.836284e-13 5.779983e-13)) ((4.561969e-14 -2.319042e-17 -5.044884e-17) (3.194515e-10 1.231984e-14 1.581838e-14))
545.966289    	((2.995800e-15 -1.674366e-13 1.501701e-13) (-1.044440e-13 -5.646950e-13 5.685307e-13)) ((4.417391e-14 -1.899787e-17 -4.739191e-17) (3.109941e-10 1.236397e-14 1.509836e-14))
655.171547    	((5.345903e-14 -1.930923e-13 1.369740e-13) (-5.546325e-14 -5.403432e-13 5.430485e-13)) ((4.285295e-14 -1.549792e-17 -4.470894e-17) (3.033693e-10 1.209816e-14 1.420809e-14))
786.217856    	((5.584748e-14 -2.028823e-13 9.803846e-14) (-2.801019e-14 -5.138615e-13 5.188661e-13)) ((4.165262e-14 -1.127225e-17 -4.559576e-17) (2.965256e-10 1.172139e-14 1.345154e-14))
943.473427    	((4.857640e-14 -2.093885e-13 7.969118e-14) (-3.304646e-14 -4.828285e-13 4.912840e-13)) ((4.057990e-14 -6.676327e-18 -4.889257e-17) (2.904120e-10 1.124252e-14 1.269323e-14))
1132.180113   	((1.884662e-14 -2.197257e-13 6.481771e-14) (-2.825713e-14 -4.591159e-13 4.600221e-13)) ((3.964430e-14 -2.949899e-18 -4.835745e-17) (2.849790e-10 1.067772e-14 1.206149e-14))
1358.628135   	((4.238171e-15 -2.393174e-13 4.300115e-14) (-3.583328e-14 -4.416948e-13 4.277595e-13)) ((3.881855e-14 -2.341670e-18 -4.436848e-17) (2.801774e-10 1.010253e-14 1.161088e-14))
1630.365763   	((1.343615e-14 -2.346194e-13 3.750890e-14) (-4.143222e-14 -4.216577e-13 4.054422e-13)) ((3.809160e-14 -2.593415e-18 -4.259588e-17) (2.759557e-10 9.518213e-15 1.112355e-14))
1956.450915   	((1.513955e-14 -2.115263e-13 4.495321e-14) (-5.160077e-14 -4.065550e-13 3.903568e-13)) ((3.746312e-14 -1.792345e-18 -4.211907e-17) (2.722645e-10 8.927231e-15 1.066677e-14))
2347.753098   	((4.304333e-14 -1.933676e-13 4.440233e-14) (-5.813612e-14 -3.933171e-13 3.821525e-13)) ((3.691421e-14 -3.091987e-19 -4.203921e-17) (2.690560e-10 8.399840e-15 1.028892e-14))
2817.315718   	((9.269520e-14 -1.643126e-13 4.600186e-14) (-6.235810e-14 -3.814755e-13 3.749205e-13)) ((3.644419e-14 8.443991e-19 -4.187408e-17) (2.662851e-10 7.922656e-15 9.923243e-15))
3380.790861   	((1.302085e-13 -1.219698e-13 4.664328e-14) (-5.828507e-14 -3.687497e-13 3.643319e-13)) ((3.604927e-14 1.840004e-18 -4.173905e-17) (2.639088e-10 7.444341e-15 9.547964e-15))
4056.961033   	((1.803495e-13 -8.002197e-14 3.789184e-14) (-5.231684e-14 -3.595825e-13 3.524074e-13)) ((3.571346e-14 4.027877e-18 -4.167108e-17) (2.618849e-10 7.022789e-15 9.176903e-15))
4868.36524    	((2.228075e-13 -5.233032e-14 3.871004e-14) (-3.979081e-14 -3.549580e-13 3.418901e-13)) ((3.542868e-14 6.057586e-18 -4.154504e-17) (2.601733e-10 6.655727e-15 8.730572e-15))
5842.050288   	((2.538710e-13 -2.977281e-14 4.396747e-14) (-2.406971e-14 -3.499369e-13 3.335529e-13)) ((3.518693e-14 7.383784e-18 -4.196991e-17) (2.587362e-10 6.390629e-15 8.427256e-15))
7010.472346   	((2.624791e-13 -4.678328e-15 5.637117e-14) (-1.067093e-14 -3.456947e-13 3.258139e-13)) ((3.498298e-14 8.811775e-18 -4.276445e-17) (2.575382e-10 6.238726e-15 8.201179e-15))
8412.578815   	((2.656567e-13 1.497799e-14 7.134718e-14) (-1.236710e-15 -3.406751e-13 3.176578e-13)) ((3.481259e-14 9.399236e-18 -4.321649e-17) (2.565467e-10 6.174993e-15 7.928286e-15))
10095.106578  	((2.710931e-13 3.007946e-14 8.765594e-14) (5.785182e-15 -3.350028e-13 3.103730e-13)) ((3.467064e-14 1.006594e-17 -4.334443e-17) (2.557317e-10 6.110706e-15 7.648520e-15))
12114.139893  	((2.847665e-13 4.507468e-14 1.062807e-13) (1.229033e-14 -3.288804e-13 3.041667e-13)) ((3.455546e-14 1.032322e-17 -4.333736e-17) (2.550657e-10 5.999797e-15 7.395959e-15))
14536.979872  	((3.094996e-13 6.095591e-14 1.231915e-13) (1.841599e-14 -3.229014e-13 2.985245e-13)) ((3.446197e-14 1.049805e-17 -4.331464e-17) (2.545248e-10 5.885127e-15 7.179302e-15))
17444.387847  	((3.440594e-13 7.895254e-14 1.445118e-13) (2.308794e-14 -3.172937e-13 2.937782e-13)) ((3.438660e-14 1.061772e-17 -4.313252e-17) (2.540878e-10 5.784765e-15 6.996428e-15))
20933.277416  	((3.836161e-13 1.002515e-13 1.756243e-13) (2.686661e-14 -3.122631e-13 2.899899e-13)) ((3.432593e-14 1.065148e-17 -4.301245e-17) (2.537363e-10 5.686216e-15 6.837329e-15))
25119.944899  	((4.200768e-13 1.285382e-13 2.183094e-13) (3.006343e-14 -3.078050e-13 2.870802e-13)) ((3.427742e-14 1.076666e-17 -4.296636e-17) (2.534549e-10 5.599204e-15 6.704294e-15))
30143.945879  	((4.557887e-13 1.710925e-13 2.774714e-13) (3.264447e-14 -3.036218e-13 2.852808e-13)) ((3.423909e-14 1.091232e-17 -4.304998e-17) (2.532303e-10 5.523945e-15 6.584912e-15))
36172.747055  	((4.932232e-13 2.295358e-13 3.575516e-13) (3.557684e-14 -2.997687e-13 2.844251e-13)) ((3.420968e-14 1.114641e-17 -4.314395e-17) (2.530517e-10 5.469354e-15 6.479199e-15))
43222.642368  	((5.403988e-13 3.049559e-13 4.521483e-13) (3.955748e-14 -2.962429e-13 2.843138e-13)) ((3.418674e-14 1.161254e-17 -4.347258e-17) (2.529100e-10 5.425276e-15 6.389028e-15))
51293.639229  	((5.962941e-13 4.003360e-13 5.675178e-13) (4.411482e-14 -2.920834e-13 2.855879e-13)) ((3.416873e-14 1.230605e-17 -4.369768e-17) (2.527979e-10 5.366590e-15 6.320942e-15))
60385.743433  	((6.370084e-13 4.925219e-13 7.127841e-13) (4.823813e-14 -2.878244e-13 2.888767e-13)) ((3.414457e-14 1.621960e-17 -4.592224e-17) (2.527094e-10 5.304477e-15 6.256817e-15))
70498.959525  	((6.874246e-13 6.694064e-13 8.476171e-13) (5.064568e-14 -2.843019e-13 2.924061e-13)) ((3.412300e-14 1.492057e-17 -3.896552e-17) (2.526397e-10 5.205413e-15 6.191464e-15))
80710.113824  	((7.542280e-13 8.364359e-13 1.023211e-12) (5.519020e-14 -2.785886e-13 2.947968e-13)) ((3.410892e-14 9.908118e-18 -5.552552e-17) (2.525850e-10 5.209249e-15 6.185436e-15))
90921.295399  	((8.632631e-13 1.017922e-12 1.170276e-12) (5.909387e-14 -2.633121e-13 2.999679e-13)) ((3.408474e-14 1.642690e-17 -4.295759e-17) (2.525422e-10 5.235411e-15 6.028925e-15))
101132.498135 	((9.876431e-13 1.176477e-12 1.205280e-12) (6.561021e-14 -2.479773e-13 2.970602e-13)) ((3.408216e-14 1.232800e-17 -4.501692e-17) (2.525085e-10 5.212229e-15 5.968120e-15))
111343.717288 	((1.125916e-12 1.367878e-12 1.303995e-12) (7.222439e-14 -2.400533e-13 2.996322e-13)) ((3.405141e-14 1.377450e-17 -5.302601e-17) (2.524821e-10 5.283847e-15 6.097529e-15))
121554.949256 	((1.147422e-12 1.545830e-12 1.382380e-12) (7.897773e-14 -2.415335e-13 3.015666e-13)) ((3.403276e-14 1.100060e-17 -5.098294e-17) (2.524615e-10 5.425021e-15 6.202233e-15))
131766.191347 	((1.153130e-12 1.732260e-12 1.409144e-12) (7.774468e-14 -2.440372e-13 3.031918e-13)) ((3.401269e-14 8.958742e-18 -5.087654e-17) (2.524452e-10 5.310448e-15 6.410393e-15))
141977.441701 	((1.169023e-12 1.917759e-12 1.443138e-12) (7.052520e-14 -2.361271e-13 3.087060e-13)) ((3.396991e-14 4.144485e-18 -4.173248e-17) (2.524323e-10 5.384299e-15 6.148053e-15))
152188.699483 	((1.164734e-12 2.078653e-12 1.500200e-12) (6.602595e-14 -2.332783e-13 3.172309e-13)) ((3.394624e-14 4.249253e-18 -4.115667e-17) (2.524216e-10 5.474966e-15 5.861672e-15))
162399.962987 	((1.211014e-12 2.305934e-12 1.521401e-12) (6.154507e-14 -2.229467e-13 3.118987e-13)) ((3.391502e-14 1.038517e-17 -4.163126e-17) (2.524128e-10 5.253499e-15 5.521912e-15))
172611.231605 	((1.281544e-12 2.402406e-12 1.506326e-12) (5.905067e-14 -2.146889e-13 3.095412e-13)) ((3.388411e-14 6.413556e-18 -4.031259e-17) (2.524053e-10 4.978250e-15 5.627207e-15))
182822.504897 	((1.395250e-12 2.403085e-12 1.484668e-12) (5.565245e-14 -2.097352e-13 3.107357e-13)) ((3.386755e-14 2.900591e-18 -4.290225e-17) (2.523982e-10 4.915370e-15 5.732686e-15))
193033.782368 	((1.485899e-12 2.287638e-12 1.475381e-12) (5.391217e-14 -2.088130e-13 3.052067e-13)) ((3.384817e-14 3.812088e-18 -4.019437e-17) (2.523915e-10 4.684083e-15 5.824230e-15))
203245.063708 	((1.489501e-12 2.104630e-12 1.395108e-12) (4.823782e-14 -2.089125e-13 2.990062e-13)) ((3.383283e-14 1.759364e-18 -3.971637e-17) (2.523850e-10 4.489758e-15 5.717974e-15))
213456.348571 	((1.381844e-12 1.815025e-12 1.255556e-12) (4.400758e-14 -2.092664e-13 2.941450e-13)) ((3.381421e-14 -5.774173e-18 -3.937215e-17) (2.523787e-10 4.479255e-15 5.643536e-15))
223667.636642 	((1.213989e-12 1.484700e-12 1.090807e-12) (4.050956e-14 -2.105745e-13 2.853108e-13)) ((3.379777e-14 -5.966939e-18 -3.662290e-17) (2.523724e-10 4.450048e-15 5.522881e-15))
233878.927544 	((1.022954e-12 1.142202e-12 8.930404e-13) (3.451650e-14 -2.188826e-13 2.722486e-13)) ((3.378262e-14 -6.712097e-18 -3.596438e-17) (2.523662e-10 4.512022e-15 5.471713e-15))
