# Forces      
# CofR        : (0.000000e+00 0.000000e+00 0.000000e+00)
# Time        forces(pressure viscous)	moments(pressure viscous)
0             	((0.000000e+00 0.000000e+00 0.000000e+00) (-1.265193e-05 1.693687e-15 -7.175024e-16)) ((0.000000e+00 0.000000e+00 0.000000e+00) (6.657858e-19 1.091193e-16 1.732460e-16))
0.012         	((-3.679274e-03 2.085218e-09 1.647017e-09) (-1.452089e-05 1.112930e-11 7.889320e-12)) ((-6.532534e-15 1.551168e-12 6.247538e-13) (1.220163e-15 -2.222115e-14 -2.469070e-13))
0.0264        	((2.526011e-04 -5.628338e-08 -2.706527e-08) (-1.481852e-05 -2.428239e-11 -1.019998e-11)) ((-6.145393e-13 -3.340363e-12 -8.481467e-13) (-9.184356e-15 -1.573960e-13 -4.411516e-13))
0.04368       	((7.707414e-04 8.270287e-08 4.788578e-08) (-1.317108e-05 1.654637e-11 5.550146e-12)) ((4.391478e-15 -1.571478e-12 -2.741863e-12) (-3.437384e-14 -7.403109e-13 -2.291088e-13))
0.064416      	((7.328241e-06 -4.807766e-09 -5.420331e-10) (-1.166687e-05 -1.702425e-10 -1.574159e-10)) ((3.165643e-13 1.382922e-12 9.805826e-13) (-4.193662e-14 6.325551e-13 -1.876492e-12))
0.0892992     	((-1.030149e-05 -5.641882e-09 -8.184289e-09) (-1.077177e-05 -2.936426e-10 -2.923442e-10)) ((-4.677584e-13 2.172163e-13 6.877464e-13) (-3.594969e-14 1.209706e-12 -3.045956e-12))
0.119159      	((1.147749e-05 -5.807814e-09 -1.256541e-09) (-9.947023e-06 -2.206693e-10 -2.587675e-10)) ((2.378583e-13 9.369841e-13 2.281203e-13) (-1.274838e-13 -9.315063e-13 -7.030950e-13))
0.154991      	((6.197952e-06 3.139384e-09 4.270462e-10) (-9.071831e-06 -1.701502e-10 -2.012018e-10)) ((-1.306540e-13 4.386177e-13 -1.672604e-13) (-9.539165e-14 -1.833409e-12 8.036712e-13))
0.197989      	((1.508154e-06 -1.523681e-09 7.055185e-10) (-8.187740e-06 -7.875888e-11 -1.134835e-10)) ((7.365417e-16 7.759955e-13 -3.015266e-13) (-1.508431e-13 -5.778243e-13 -6.419750e-14))
0.249587      	((-1.977669e-07 -4.962885e-10 -1.453015e-10) (-7.319737e-06 -1.169116e-11 -4.506954e-11)) ((6.168218e-14 4.666802e-13 -9.280489e-14) (-2.313135e-13 3.474548e-13 -1.294460e-12))
0.311504      	((-9.782107e-07 -3.040054e-10 -4.312409e-10) (-6.493835e-06 2.639096e-11 -9.226896e-12)) ((5.579893e-15 3.367694e-13 -5.456750e-15) (-1.443966e-13 5.395011e-13 -1.759317e-12))
0.385805      	((-1.351196e-06 4.758806e-11 1.151719e-10) (-5.730923e-06 4.582618e-11 8.119583e-12)) ((-1.502414e-15 2.363954e-13 -3.092609e-14) (-1.062438e-13 5.159065e-13 -2.162064e-12))
0.474966      	((-1.526279e-06 3.067598e-10 1.369814e-10) (-5.046413e-06 4.626844e-11 1.528747e-11)) ((-5.093683e-15 1.441290e-13 -9.460395e-15) (-5.700906e-14 1.349558e-13 -2.571325e-12))
0.581959      	((-1.596964e-06 1.700047e-10 1.148815e-10) (-4.447207e-06 4.814872e-11 2.344063e-11)) ((-6.034381e-15 8.812057e-14 -5.802344e-15) (2.433989e-14 -2.597016e-13 -2.782131e-12))
0.710351      	((-1.590761e-06 7.724322e-11 3.815723e-11) (-3.933786e-06 3.960914e-11 2.427002e-11)) ((-6.845507e-15 4.548631e-14 -3.061891e-15) (1.246512e-14 -8.540987e-13 -2.503792e-12))
0.864421      	((-1.533188e-06 3.617668e-11 5.698695e-11) (-3.499607e-06 2.867981e-11 2.388274e-11)) ((-6.749659e-15 2.175275e-14 3.574807e-15) (-7.448919e-14 -1.015043e-12 -1.993294e-12))
1.049306      	((-1.448631e-06 4.203506e-11 4.406363e-11) (-3.133527e-06 2.031227e-11 2.151575e-11)) ((-6.225265e-15 8.929141e-15 2.848981e-15) (-1.273626e-13 -1.016007e-12 -1.355133e-12))
1.271167      	((-1.354911e-06 3.446823e-11 4.676696e-11) (-2.824010e-06 1.083771e-11 2.095623e-11)) ((-4.950552e-15 -5.884739e-17 1.831687e-15) (-1.368672e-13 -9.964006e-13 -9.265215e-13))
1.5374        	((-1.259366e-06 2.828076e-11 4.200338e-11) (-2.558804e-06 3.900653e-12 2.251999e-11)) ((-4.209792e-15 -2.586273e-15 1.827683e-15) (-1.442727e-13 -9.109403e-13 -6.542802e-13))
1.85688       	((-1.166208e-06 2.466470e-11 4.040180e-11) (-2.326717e-06 3.507152e-12 2.224755e-11)) ((-2.497307e-15 3.395582e-16 9.295603e-16) (-1.501834e-13 -7.879583e-13 -3.216258e-13))
2.240256      	((-1.077832e-06 1.651118e-11 1.939857e-11) (-2.120383e-06 5.908295e-12 1.909462e-11)) ((-1.840317e-15 3.767820e-15 1.170401e-15) (-1.458092e-13 -7.184198e-13 -1.530317e-14))
2.700307      	((-9.953154e-07 -2.286029e-13 1.099663e-11) (-1.935281e-06 8.509322e-12 1.538324e-11)) ((-1.308466e-15 4.875439e-15 8.253307e-16) (-1.387776e-13 -7.486290e-13 2.257188e-13))
3.252369      	((-9.183417e-07 -1.674556e-11 -1.277067e-11) (-1.768428e-06 8.449717e-12 1.378682e-11)) ((-1.518247e-15 5.714239e-15 1.368081e-15) (-1.341419e-13 -8.769971e-13 4.876677e-13))
3.914842      	((-8.460281e-07 -2.807138e-11 -2.484288e-11) (-1.617667e-06 7.935529e-12 1.251192e-11)) ((-1.535961e-15 6.411892e-15 1.468459e-15) (-1.289048e-13 -1.024992e-12 6.851154e-13))
4.709811      	((-7.789005e-07 -2.422615e-11 -2.795846e-11) (-1.481406e-06 8.467161e-12 1.024538e-11)) ((-1.868037e-15 6.843520e-15 1.398680e-15) (-1.236798e-13 -1.047083e-12 7.231632e-13))
5.663773      	((-7.169787e-07 -1.139072e-11 -1.911164e-11) (-1.358466e-06 8.070388e-12 7.355401e-12)) ((-2.050316e-15 7.379255e-15 8.539227e-16) (-1.218112e-13 -9.997434e-13 7.107970e-13))
6.808528      	((-6.601241e-07 -5.725288e-13 -2.911947e-12) (-1.247858e-06 6.811575e-12 4.400953e-12)) ((-1.331238e-15 7.966939e-15 1.096601e-16) (-1.249666e-13 -9.832366e-13 6.894161e-13))
8.182233      	((-6.081090e-07 -4.419988e-12 -3.642019e-12) (-1.148565e-06 4.861661e-12 2.742586e-12)) ((-9.680577e-16 7.834057e-15 -2.679607e-16) (-1.401308e-13 -1.062782e-12 7.591982e-13))
9.83068       	((-5.608242e-07 -2.860648e-11 -1.713574e-11) (-1.059376e-06 3.110298e-12 2.007515e-12)) ((-7.185876e-16 8.472380e-15 -3.638166e-16) (-1.295262e-13 -1.340886e-12 1.042573e-12))
11.808816     	((-5.175789e-07 -3.266241e-11 -2.135661e-11) (-9.789636e-07 2.275530e-12 2.062305e-12)) ((-3.585672e-16 6.827501e-15 4.415616e-17) (-1.000980e-13 -1.942249e-12 1.680784e-12))
14.182579     	((-4.780643e-07 -2.396466e-11 -2.597920e-11) (-9.061495e-07 3.214487e-12 2.909200e-12)) ((-4.611992e-16 6.098321e-15 5.004702e-16) (-6.908212e-14 -2.827248e-12 2.633959e-12))
17.031095     	((-4.420012e-07 -5.438286e-11 -5.063442e-11) (-8.399623e-07 5.039105e-12 3.660944e-12)) ((-5.399410e-16 4.843217e-15 1.210709e-15) (-1.912407e-14 -3.989379e-12 3.747526e-12))
20.449314     	((-4.091272e-07 -8.128004e-11 -7.136021e-11) (-7.796453e-07 5.177198e-12 3.885942e-12)) ((-3.498505e-16 4.900628e-15 1.090700e-15) (1.025191e-14 -5.298424e-12 4.998993e-12))
24.551176     	((-3.790824e-07 -8.897694e-11 -8.388594e-11) (-7.246332e-07 4.908521e-12 4.645647e-12)) ((-1.190516e-16 4.761855e-15 1.152104e-15) (2.701853e-14 -6.588503e-12 6.198606e-12))
29.473411     	((-3.517169e-07 -5.443966e-11 -5.794079e-11) (-6.745277e-07 7.876707e-12 7.202179e-12)) ((6.192062e-16 4.558951e-15 9.754114e-16) (3.505677e-14 -7.708198e-12 7.142717e-12))
35.380094     	((-3.268065e-07 -5.276834e-11 -5.404888e-11) (-6.289761e-07 1.060074e-11 1.094795e-11)) ((9.856429e-16 3.869818e-15 4.291715e-16) (3.687523e-14 -8.667891e-12 8.075902e-12))
42.468112     	((-3.043147e-07 -6.535593e-11 -6.623355e-11) (-5.876305e-07 1.184541e-11 1.394755e-11)) ((1.122153e-15 3.336749e-15 3.927784e-16) (1.216547e-14 -9.665018e-12 9.130329e-12))
50.973735     	((-2.840366e-07 -6.070510e-11 -6.474548e-11) (-5.501465e-07 1.462443e-11 1.715010e-11)) ((7.642650e-16 3.682757e-15 8.474079e-16) (8.274194e-15 -1.087424e-11 1.027994e-11))
61.180482     	((-2.658037e-07 -4.005743e-11 -4.332502e-11) (-5.161745e-07 1.874534e-11 2.187914e-11)) ((5.171536e-16 3.667365e-15 1.257632e-15) (2.871733e-14 -1.236308e-11 1.167843e-11))
73.428578     	((-2.494555e-07 -1.639877e-11 -1.954966e-11) (-4.853826e-07 2.472629e-11 2.662600e-11)) ((1.878804e-16 3.259206e-15 1.445378e-15) (2.990700e-14 -1.414852e-11 1.339001e-11))
88.126294     	((-2.348326e-07 2.909338e-12 4.745482e-12) (-4.574360e-07 3.080261e-11 3.328024e-11)) ((-1.781774e-16 2.666148e-15 1.756331e-15) (3.026764e-14 -1.615724e-11 1.537293e-11))
105.763553    	((-2.218589e-07 2.436039e-11 2.419989e-11) (-4.320676e-07 3.730646e-11 3.966588e-11)) ((-6.859658e-16 2.153532e-15 2.129572e-15) (2.290772e-14 -1.825285e-11 1.751807e-11))
126.928263    	((-2.104692e-07 4.114927e-11 4.229155e-11) (-4.090474e-07 4.320209e-11 4.511250e-11)) ((-9.870649e-16 1.514748e-15 2.436116e-15) (1.273519e-14 -2.026901e-11 1.961574e-11))
152.325916    	((-2.005365e-07 5.384005e-11 5.265216e-11) (-3.881921e-07 4.716772e-11 4.908240e-11)) ((-1.184415e-15 9.136495e-16 2.642397e-15) (1.718865e-15 -2.206133e-11 2.148332e-11))
182.803099    	((-1.919572e-07 6.655515e-11 6.364491e-11) (-3.693474e-07 5.031004e-11 5.130607e-11)) ((-1.472390e-15 4.069772e-16 2.881958e-15) (-5.252010e-15 -2.353165e-11 2.304391e-11))
219.375719    	((-1.845798e-07 9.023153e-11 8.794347e-11) (-3.523829e-07 5.350228e-11 5.402195e-11)) ((-1.744817e-15 -1.553384e-16 2.750200e-15) (-1.497190e-15 -2.464754e-11 2.424945e-11))
263.262863    	((-1.783360e-07 1.078154e-10 1.042773e-10) (-3.371826e-07 5.672176e-11 5.622844e-11)) ((-1.748740e-15 -5.547904e-16 2.557412e-15) (1.301781e-15 -2.536738e-11 2.507758e-11))
315.927436    	((-1.732196e-07 1.173196e-10 1.124700e-10) (-3.236462e-07 5.912732e-11 5.789295e-11)) ((-1.610699e-15 -7.512760e-16 2.552419e-15) (-9.315974e-16 -2.569450e-11 2.548641e-11))
379.124923    	((-1.691275e-07 1.250310e-10 1.184836e-10) (-3.116867e-07 6.008379e-11 5.895649e-11)) ((-1.511247e-15 -6.839947e-16 2.598731e-15) (-8.753843e-15 -2.567980e-11 2.552620e-11))
454.961908    	((-1.659812e-07 1.353192e-10 1.277854e-10) (-3.012198e-07 6.107136e-11 5.900269e-11)) ((-1.473963e-15 -5.080847e-16 2.581181e-15) (-2.102389e-14 -2.537174e-11 2.523357e-11))
545.966289    	((-1.636575e-07 1.415719e-10 1.345248e-10) (-2.921600e-07 6.213680e-11 5.999836e-11)) ((-1.361612e-15 -2.311440e-16 2.473872e-15) (-3.749863e-14 -2.478221e-11 2.464252e-11))
655.171547    	((-1.619843e-07 1.465274e-10 1.408794e-10) (-2.844105e-07 6.283595e-11 6.103696e-11)) ((-1.225571e-15 -6.611154e-17 2.398222e-15) (-4.949150e-14 -2.392779e-11 2.378687e-11))
786.217856    	((-1.608027e-07 1.461935e-10 1.440860e-10) (-2.778569e-07 6.331069e-11 6.171845e-11)) ((-1.141377e-15 9.059554e-17 2.269520e-15) (-5.784618e-14 -2.283792e-11 2.270938e-11))
943.473427    	((-1.599627e-07 1.433418e-10 1.442033e-10) (-2.723726e-07 6.433371e-11 6.307461e-11)) ((-1.017867e-15 3.254719e-16 2.188098e-15) (-6.667312e-14 -2.158933e-11 2.145425e-11))
1130.196019   	((-1.593509e-07 1.395595e-10 1.398405e-10) (-2.678278e-07 6.578091e-11 6.477669e-11)) ((-9.399378e-16 4.630591e-16 2.076972e-15) (-7.453731e-14 -2.022858e-11 2.009433e-11))
1346.425166   	((-1.588837e-07 1.314401e-10 1.338006e-10) (-2.640924e-07 6.735399e-11 6.662110e-11)) ((-8.450125e-16 6.703354e-16 1.981603e-15) (-7.872458e-14 -1.882162e-11 1.867955e-11))
1592.197539   	((-1.584992e-07 1.219640e-10 1.270764e-10) (-2.610387e-07 6.888526e-11 6.854707e-11)) ((-7.490355e-16 8.742669e-16 1.895089e-15) (-8.120202e-14 -1.741785e-11 1.726475e-11))
1867.5479     	((-1.581825e-07 1.127720e-10 1.192127e-10) (-2.585535e-07 7.033860e-11 7.014378e-11)) ((-6.922986e-16 1.057708e-15 1.820061e-15) (-8.353263e-14 -1.605714e-11 1.589993e-11))
2163.646235   	((-1.579305e-07 1.034366e-10 1.105113e-10) (-2.565412e-07 7.149674e-11 7.137306e-11)) ((-6.357552e-16 1.215879e-15 1.736467e-15) (-8.501508e-14 -1.477290e-11 1.461325e-11))
2460.024762   	((-1.577369e-07 9.545729e-11 1.025375e-10) (-2.549207e-07 7.218121e-11 7.209381e-11)) ((-5.256473e-16 1.320357e-15 1.657742e-15) (-8.557608e-14 -1.359181e-11 1.343017e-11))
2756.641608   	((-1.575730e-07 8.835091e-11 9.559472e-11) (-2.536144e-07 7.242180e-11 7.237577e-11)) ((-4.785718e-16 1.387359e-15 1.594481e-15) (-8.656613e-14 -1.251786e-11 1.235177e-11))
3053.458517   	((-1.574391e-07 8.177169e-11 8.864032e-11) (-2.525643e-07 7.214594e-11 7.217288e-11)) ((-4.235756e-16 1.449101e-15 1.534593e-15) (-8.793144e-14 -1.155215e-11 1.138731e-11))
3350.441254   	((-1.573260e-07 7.556694e-11 8.192231e-11) (-2.517186e-07 7.142123e-11 7.156440e-11)) ((-3.824777e-16 1.516015e-15 1.470109e-15) (-8.868348e-14 -1.069130e-11 1.053149e-11))
3647.561088   	((-1.572328e-07 7.008104e-11 7.570002e-11) (-2.510378e-07 7.039406e-11 7.060227e-11)) ((-3.625579e-16 1.580610e-15 1.412592e-15) (-8.905157e-14 -9.933009e-12 9.778659e-12))
3944.793669   	((-1.571549e-07 6.514176e-11 7.013354e-11) (-2.504889e-07 6.915149e-11 6.938679e-11)) ((-3.416134e-16 1.641891e-15 1.362557e-15) (-8.901857e-14 -9.271088e-12 9.119510e-12))
4242.118825   	((-1.570908e-07 6.065359e-11 6.511794e-11) (-2.500462e-07 6.777184e-11 6.802194e-11)) ((-3.221979e-16 1.697002e-15 1.321973e-15) (-8.881592e-14 -8.695792e-12 8.546169e-12))
4539.519754   	((-1.570377e-07 5.655316e-11 6.061793e-11) (-2.496885e-07 6.632725e-11 6.656950e-11)) ((-3.065512e-16 1.751057e-15 1.287496e-15) (-8.849904e-14 -8.199016e-12 8.049868e-12))
4836.982668   	((-1.569940e-07 5.289366e-11 5.674486e-11) (-2.493994e-07 6.486563e-11 6.509018e-11)) ((-2.927319e-16 1.798544e-15 1.257419e-15) (-8.812359e-14 -7.771924e-12 7.622740e-12))
5134.496208   	((-1.569583e-07 4.971145e-11 5.331231e-11) (-2.491654e-07 6.342633e-11 6.362240e-11)) ((-2.800617e-16 1.837378e-15 1.232668e-15) (-8.760111e-14 -7.406628e-12 7.256843e-12))
5432.05109    	((-1.569288e-07 4.696104e-11 5.041539e-11) (-2.489758e-07 6.203958e-11 6.221078e-11)) ((-2.689054e-16 1.870969e-15 1.212361e-15) (-8.718026e-14 -7.095133e-12 6.944923e-12))
5729.639719   	((-1.569045e-07 4.457977e-11 4.794858e-11) (-2.488221e-07 6.073809e-11 6.088088e-11)) ((-2.608099e-16 1.898183e-15 1.196518e-15) (-8.689724e-14 -6.830738e-12 6.679546e-12))
6027.255886   	((-1.568843e-07 4.256677e-11 4.591174e-11) (-2.486973e-07 5.954162e-11 5.965728e-11)) ((-2.551351e-16 1.921679e-15 1.184007e-15) (-8.667170e-14 -6.606881e-12 6.454646e-12))
6324.894523   	((-1.568679e-07 4.086306e-11 4.415411e-11) (-2.485959e-07 5.845461e-11 5.855181e-11)) ((-2.502598e-16 1.942916e-15 1.173177e-15) (-8.649266e-14 -6.417783e-12 6.265077e-12))
6622.551498   	((-1.568544e-07 3.943267e-11 4.270166e-11) (-2.485135e-07 5.748005e-11 5.756092e-11)) ((-2.460895e-16 1.960208e-15 1.163950e-15) (-8.633872e-14 -6.258711e-12 6.105706e-12))
6920.223438   	((-1.568433e-07 3.823192e-11 4.148554e-11) (-2.484465e-07 5.661464e-11 5.668222e-11)) ((-2.425845e-16 1.975022e-15 1.156434e-15) (-8.619503e-14 -6.125475e-12 5.972294e-12))
7217.907594   	((-1.568342e-07 3.723408e-11 4.038295e-11) (-2.483919e-07 5.585545e-11 5.591049e-11)) ((-2.394690e-16 1.987347e-15 1.150656e-15) (-8.604284e-14 -6.014116e-12 5.860852e-12))
7515.601724   	((-1.568265e-07 3.640946e-11 3.951805e-11) (-2.483474e-07 5.519491e-11 5.524002e-11)) ((-2.373893e-16 1.997413e-15 1.145810e-15) (-8.588871e-14 -5.921240e-12 5.767988e-12))
7813.304      	((-1.568203e-07 3.573397e-11 3.884219e-11) (-2.483111e-07 5.462450e-11 5.466236e-11)) ((-2.353299e-16 2.006061e-15 1.141732e-15) (-8.575200e-14 -5.843950e-12 5.690819e-12))
8111.012932   	((-1.568152e-07 3.517482e-11 3.828197e-11) (-2.482815e-07 5.413563e-11 5.416964e-11)) ((-2.340381e-16 2.013585e-15 1.138366e-15) (-8.564509e-14 -5.779803e-12 5.626852e-12))
8408.727304   	((-1.568111e-07 3.471691e-11 3.786797e-11) (-2.482574e-07 5.371988e-11 5.375119e-11)) ((-2.326842e-16 2.019505e-15 1.135773e-15) (-8.555902e-14 -5.726696e-12 5.573940e-12))
8706.446124   	((-1.568077e-07 3.434917e-11 3.748618e-11) (-2.482377e-07 5.336891e-11 5.339741e-11)) ((-2.316352e-16 2.024979e-15 1.133436e-15) (-8.548546e-14 -5.682825e-12 5.530244e-12))
9004.168581   	((-1.568047e-07 3.406120e-11 3.718307e-11) (-2.482215e-07 5.307420e-11 5.309896e-11)) ((-2.307997e-16 2.029281e-15 1.131527e-15) (-8.542408e-14 -5.646658e-12 5.494227e-12))
9301.894013   	((-1.568024e-07 3.381691e-11 3.690417e-11) (-2.482084e-07 5.282849e-11 5.284880e-11)) ((-2.300916e-16 2.033100e-15 1.130033e-15) (-8.537464e-14 -5.616855e-12 5.464562e-12))
9599.62188    	((-1.568005e-07 3.361448e-11 3.665591e-11) (-2.481976e-07 5.262405e-11 5.264041e-11)) ((-2.295439e-16 2.035940e-15 1.128646e-15) (-8.533548e-14 -5.592357e-12 5.440171e-12))
9897.351739   	((-1.567989e-07 3.344558e-11 3.644184e-11) (-2.481888e-07 5.245500e-11 5.246738e-11)) ((-2.290430e-16 2.038499e-15 1.127750e-15) (-8.530205e-14 -5.572217e-12 5.420125e-12))
10195.08323   	((-1.567976e-07 3.330288e-11 3.629107e-11) (-2.481816e-07 5.231599e-11 5.232546e-11)) ((-2.286802e-16 2.040634e-15 1.126908e-15) (-8.527344e-14 -5.555700e-12 5.403687e-12))
10492.816062  	((-1.567966e-07 3.319626e-11 3.614926e-11) (-2.481757e-07 5.220203e-11 5.220864e-11)) ((-2.283840e-16 2.042204e-15 1.126202e-15) (-8.525065e-14 -5.542135e-12 5.390200e-12))
10790.54999   	((-1.567957e-07 3.311069e-11 3.607505e-11) (-2.481708e-07 5.210905e-11 5.211371e-11)) ((-2.281313e-16 2.043573e-15 1.125591e-15) (-8.523122e-14 -5.531012e-12 5.379143e-12))
11088.284814  	((-1.567951e-07 3.303876e-11 3.599460e-11) (-2.481669e-07 5.203326e-11 5.203556e-11)) ((-2.279365e-16 2.044699e-15 1.125099e-15) (-8.521537e-14 -5.521891e-12 5.370081e-12))
11386.020375  	((-1.567945e-07 3.297862e-11 3.591468e-11) (-2.481636e-07 5.197167e-11 5.197217e-11)) ((-2.277760e-16 2.045624e-15 1.124696e-15) (-8.520224e-14 -5.514414e-12 5.362655e-12))
