# Forces      
# CofR        : (0.000000e+00 0.000000e+00 0.000000e+00)
# Time        forces(pressure viscous)	moments(pressure viscous)
0             	((0.000000e+00 0.000000e+00 0.000000e+00) (0.000000e+00 0.000000e+00 0.000000e+00)) ((0.000000e+00 0.000000e+00 0.000000e+00) (0.000000e+00 0.000000e+00 0.000000e+00))
0.012         	((9.164920e-12 -2.260891e-09 -4.642540e-12) (1.463798e-14 -5.740142e-11 1.895532e-13)) ((5.953793e-16 -4.245966e-16 5.141713e-11) (-2.463543e-16 4.669062e-15 7.001450e-08))
0.0264        	((2.888976e-11 -3.310385e-10 2.355956e-14) (8.723720e-14 -8.477438e-11 3.435753e-13)) ((-4.500525e-16 4.496898e-15 2.356817e-11) (-7.643508e-17 1.296985e-14 6.413426e-08))
0.04368       	((2.166069e-11 -1.052680e-09 -1.663363e-11) (9.867575e-14 -8.930432e-11 4.919692e-13)) ((9.059416e-16 5.461772e-15 1.283075e-11) (7.401825e-18 2.318908e-14 5.808734e-08))
0.064416      	((3.497750e-11 1.491689e-10 1.461420e-11) (3.831164e-14 -7.709925e-11 8.070048e-13)) ((-2.823795e-16 2.891579e-15 6.886984e-12) (1.448474e-15 3.626258e-14 5.200756e-08))
0.0892992     	((-1.754429e-11 -4.674376e-10 -1.295838e-11) (-8.587005e-15 -6.411877e-11 1.228713e-12)) ((1.399581e-15 7.480196e-15 5.153833e-12) (4.531977e-15 5.268751e-14 4.607311e-08))
0.119159      	((1.195687e-11 8.462243e-11 -2.048375e-12) (-3.887894e-14 -5.215240e-11 1.453638e-12)) ((-3.612151e-17 5.453180e-15 3.843555e-12) (6.039108e-15 6.150731e-14 4.046801e-08))
0.154991      	((-6.911805e-12 -2.307452e-10 3.940872e-12) (-9.864055e-14 -4.712099e-11 1.499614e-12)) ((6.569571e-16 4.088192e-15 3.134431e-12) (7.669094e-15 6.405843e-14 3.532164e-08))
0.197989      	((8.203107e-13 -7.147984e-11 6.371168e-13) (-1.574932e-13 -4.092944e-11 1.476582e-12)) ((1.111047e-15 3.566621e-15 2.565798e-12) (1.010110e-14 6.426180e-14 3.075888e-08))
0.249587      	((-6.988005e-12 -1.845337e-10 -5.534375e-12) (-1.848777e-13 -3.618161e-11 1.520112e-12)) ((8.422661e-16 3.967097e-15 2.112385e-12) (1.075191e-14 6.168436e-14 2.684774e-08))
0.311504      	((2.937744e-12 -1.073653e-10 -2.305507e-12) (-1.667971e-13 -3.286196e-11 1.676286e-12)) ((5.088112e-16 2.454992e-15 1.716924e-12) (8.383045e-15 5.905936e-14 2.357875e-08))
0.385805      	((1.343400e-11 -8.375373e-11 6.951927e-13) (-8.512383e-14 -3.130728e-11 1.851723e-12)) ((2.364745e-16 9.508530e-16 1.411798e-12) (2.931824e-15 5.987954e-14 2.088130e-08))
0.474966      	((2.251192e-11 -8.451012e-11 -2.517332e-12) (6.100621e-15 -3.122276e-11 1.885499e-12)) ((4.905295e-17 5.419604e-16 1.205148e-12) (9.630838e-16 5.966408e-14 1.864928e-08))
0.581959      	((1.701567e-11 -5.760659e-11 -2.197296e-12) (-2.141040e-13 -2.862917e-11 1.471766e-12)) ((2.538185e-16 -7.517593e-16 1.022867e-12) (1.425836e-15 3.962417e-14 1.677270e-08))
0.710351      	((2.694049e-11 -4.366723e-11 1.597494e-12) (-5.697707e-13 -2.443287e-11 8.243662e-13)) ((-5.750405e-16 -1.405017e-15 8.478225e-13) (6.759017e-16 7.308161e-15 1.516047e-08))
0.864421      	((2.587104e-11 -7.697192e-11 3.361598e-12) (-9.446947e-13 -2.344201e-11 3.352364e-13)) ((-9.311002e-16 -3.001156e-15 7.258872e-13) (-1.654538e-15 -2.024141e-14 1.374832e-08))
1.049306      	((2.801609e-11 -1.203904e-10 2.602169e-12) (-1.179444e-12 -2.220192e-11 -1.491476e-13)) ((-9.952311e-16 -3.909429e-15 6.537858e-13) (3.799765e-15 -3.621280e-14 1.249351e-08))
1.271167      	((3.821781e-11 -1.366002e-10 5.506252e-14) (-1.390063e-12 -2.014234e-11 -7.939226e-13)) ((-1.005894e-15 -3.959532e-15 5.968606e-13) (1.875225e-14 -3.875053e-14 1.136705e-08))
1.5374        	((4.299973e-11 -1.476715e-10 1.295402e-12) (-2.154715e-12 -2.136466e-11 -1.456270e-12)) ((-1.110647e-15 -5.724994e-15 5.506402e-13) (4.660687e-14 -2.482051e-14 1.035041e-08))
1.85688       	((5.035202e-11 -2.013855e-10 5.338028e-12) (-3.797441e-12 -2.437500e-11 -1.345464e-12)) ((-1.329164e-15 -6.159967e-15 5.146189e-13) (8.956395e-14 2.570581e-14 9.433325e-09))
2.240256      	((3.890355e-11 -1.403680e-10 2.956641e-13) (-6.344560e-12 -2.229277e-11 -1.039341e-12)) ((-1.448676e-15 -6.546544e-15 5.009568e-13) (1.522573e-13 1.012556e-13 8.610637e-09))
2.700307      	((3.977854e-11 -8.588977e-11 -3.599611e-13) (-9.902524e-12 -1.537866e-11 -1.411624e-12)) ((-1.277660e-15 -6.593768e-15 4.852788e-13) (2.425989e-13 1.884730e-13 7.878638e-09))
3.252369      	((3.201049e-11 -6.193360e-11 -3.449938e-13) (-1.403739e-11 -9.178759e-12 -2.268995e-12)) ((-7.808648e-16 -6.081628e-15 4.605899e-13) (3.414436e-13 2.559668e-13 7.232076e-09))
3.914842      	((2.439349e-11 -3.912953e-11 -2.115693e-12) (-1.828533e-11 -3.785353e-12 -2.074096e-12)) ((-1.175000e-15 -4.898180e-15 4.242549e-13) (4.049081e-13 3.278433e-13 6.662975e-09))
4.709811      	((5.172048e-12 -2.226828e-11 -2.297897e-12) (-2.165498e-11 3.708468e-12 -1.105257e-12)) ((-5.621600e-16 -3.568727e-15 3.821926e-13) (4.365854e-13 3.805371e-13 6.161329e-09))
5.663773      	((-4.727203e-12 8.452671e-12 1.052737e-12) (-2.401307e-11 1.344428e-11 -1.536183e-14)) ((-1.778988e-16 -2.389567e-15 3.445784e-13) (4.447172e-13 4.062074e-13 5.715714e-09))
6.808528      	((-4.528645e-12 9.061514e-12 -1.045080e-12) (-2.424188e-11 1.744201e-11 3.067668e-13)) ((-1.624852e-16 -1.304288e-15 3.098078e-13) (4.185980e-13 3.841386e-13 5.315003e-09))
8.182233      	((-8.516702e-12 2.087128e-11 1.769284e-12) (-2.177328e-11 1.567707e-11 -4.105792e-14)) ((2.577105e-16 -7.786338e-16 2.794593e-13) (3.652634e-13 3.236471e-13 4.950861e-09))
9.83068       	((-7.855621e-12 7.246506e-12 -1.620816e-12) (-1.910361e-11 1.116980e-11 -2.551545e-15)) ((6.253986e-16 2.946911e-16 2.550976e-13) (2.975882e-13 2.592410e-13 4.617479e-09))
11.808816     	((-8.290101e-13 -8.119286e-12 -2.601904e-13) (-1.565978e-11 5.273146e-12 -3.416840e-13)) ((1.052189e-15 8.499247e-16 2.340978e-13) (2.307702e-13 1.808548e-13 4.310888e-09))
14.182579     	((2.106209e-12 -7.954662e-12 -5.901109e-13) (-1.205118e-11 1.864049e-12 3.704478e-14)) ((1.233975e-15 1.687967e-15 2.177206e-13) (1.661311e-13 1.386039e-13 4.028537e-09))
17.031095     	((2.201670e-12 -5.750314e-12 -8.508816e-13) (-9.711828e-12 3.559251e-14 3.790259e-13)) ((1.178833e-15 1.986155e-15 2.050904e-13) (1.189916e-13 9.878629e-14 3.768941e-09))
20.449314     	((3.728120e-12 -9.517274e-12 -9.330892e-13) (-7.739642e-12 -1.521835e-12 -8.133160e-14)) ((1.161718e-15 2.134937e-15 1.948912e-13) (8.982345e-14 5.560863e-14 3.531062e-09))
24.551176     	((6.299363e-12 -1.073965e-11 -1.001228e-12) (-6.245696e-12 -1.000093e-12 -4.482968e-13)) ((1.024023e-15 2.043903e-15 1.855949e-13) (6.598421e-14 3.463587e-14 3.313711e-09))
29.473411     	((5.798777e-12 -1.049334e-11 -1.318431e-12) (-4.846455e-12 5.882420e-13 -5.851172e-13)) ((9.772679e-16 1.767793e-15 1.781780e-13) (5.517701e-14 2.919026e-14 3.115479e-09))
35.380094     	((6.821829e-12 -1.115872e-11 -1.120979e-12) (-3.961902e-12 2.065666e-12 -4.690186e-13)) ((1.051455e-15 1.751326e-15 1.712813e-13) (5.805447e-14 4.036254e-14 2.934596e-09))
42.468112     	((4.407092e-12 -1.001921e-11 -1.091152e-12) (-3.683262e-12 3.400328e-12 -4.478008e-13)) ((1.153439e-15 1.591887e-15 1.659833e-13) (6.306002e-14 5.497210e-14 2.769494e-09))
50.973735     	((2.801190e-12 -1.055807e-11 -5.029886e-13) (-3.632896e-12 5.102510e-12 -5.355524e-13)) ((9.958626e-16 1.600631e-15 1.608685e-13) (7.009467e-14 6.503936e-14 2.618942e-09))
61.180482     	((6.797574e-13 -1.034362e-11 -1.137114e-12) (-3.684117e-12 6.601102e-12 -6.356586e-13)) ((9.072015e-16 1.459704e-15 1.568867e-13) (7.983711e-14 6.606350e-14 2.481868e-09))
73.428578     	((-5.074794e-13 -7.719461e-12 -1.093400e-12) (-3.519271e-12 7.612887e-12 -6.706442e-13)) ((7.935137e-16 1.226904e-15 1.543192e-13) (8.940546e-14 7.077003e-14 2.357317e-09))
88.126294     	((-1.702313e-12 -6.165513e-12 -8.779869e-13) (-3.435449e-12 8.592536e-12 -6.149922e-13)) ((7.216028e-16 1.058425e-15 1.518453e-13) (9.543345e-14 8.027804e-14 2.244353e-09))
105.763553    	((-3.210917e-12 -5.477038e-12 -7.100239e-13) (-3.554600e-12 9.336101e-12 -5.457480e-13)) ((6.219846e-16 9.476531e-16 1.491508e-13) (9.702098e-14 8.752015e-14 2.142047e-09))
126.928263    	((-3.806079e-12 -5.902827e-12 -4.841707e-13) (-3.774497e-12 9.709884e-12 -4.747751e-13)) ((4.944415e-16 8.036047e-16 1.467284e-13) (9.261021e-14 8.796755e-14 2.049529e-09))
152.325916    	((-3.772335e-12 -5.903186e-12 -4.106220e-13) (-3.660156e-12 9.872464e-12 -3.001581e-13)) ((4.036864e-16 6.840927e-16 1.444926e-13) (8.237836e-14 8.468870e-14 1.965831e-09))
182.803099    	((-4.484716e-12 -6.948816e-12 -3.745165e-13) (-3.343435e-12 9.793624e-12 -2.189614e-13)) ((3.643047e-16 5.677959e-16 1.424091e-13) (7.365090e-14 8.264825e-14 1.889977e-09))
219.375719    	((-4.591760e-12 -7.222857e-12 -2.826203e-13) (-3.220846e-12 9.734379e-12 -1.486149e-13)) ((3.543607e-16 5.280123e-16 1.406004e-13) (6.499516e-14 8.246980e-14 1.821080e-09))
263.262863    	((-4.123259e-12 -6.780888e-12 -1.714801e-13) (-3.354609e-12 9.552695e-12 -2.420137e-14)) ((3.562367e-16 5.247655e-16 1.389326e-13) (5.740778e-14 8.346112e-14 1.758432e-09))
315.927436    	((-3.936720e-12 -7.190991e-12 -1.530789e-13) (-3.327768e-12 9.107393e-12 2.537097e-14)) ((3.761432e-16 4.680650e-16 1.374088e-13) (5.309490e-14 8.631836e-14 1.701464e-09))
379.124923    	((-4.071516e-12 -6.711257e-12 -9.342382e-14) (-3.334269e-12 8.752538e-12 6.404167e-15)) ((3.962653e-16 4.085850e-16 1.360767e-13) (4.968431e-14 8.589198e-14 1.649741e-09))
454.961908    	((-4.028537e-12 -7.759066e-12 -4.139172e-14) (-3.187050e-12 8.158524e-12 -3.521361e-15)) ((3.915908e-16 3.564952e-16 1.347991e-13) (4.669888e-14 8.257414e-14 1.602880e-09))
545.966289    	((-4.134369e-12 -8.925574e-12 6.030243e-14) (-3.094555e-12 7.544896e-12 -3.945121e-14)) ((3.639561e-16 3.219775e-16 1.335152e-13) (4.572398e-14 7.679429e-14 1.560542e-09))
655.171547    	((-4.099841e-12 -9.411544e-12 4.663113e-14) (-2.974211e-12 7.107852e-12 -6.269122e-14)) ((3.272224e-16 2.988271e-16 1.322486e-13) (4.442896e-14 7.209576e-14 1.522415e-09))
786.217856    	((-4.079448e-12 -9.131413e-12 1.699871e-13) (-2.927943e-12 6.826604e-12 -5.560224e-14)) ((3.299411e-16 2.961708e-16 1.309830e-13) (4.152986e-14 6.851390e-14 1.488215e-09))
943.473427    	((-3.707195e-12 -8.917835e-12 4.299654e-14) (-2.958013e-12 6.624400e-12 -8.263374e-14)) ((3.399176e-16 2.905287e-16 1.297754e-13) (3.784064e-14 6.571612e-14 1.457669e-09))
1132.180113   	((-3.407469e-12 -9.738413e-12 3.153937e-14) (-3.037976e-12 6.447417e-12 -1.360000e-13)) ((3.167279e-16 2.850282e-16 1.286434e-13) (3.469058e-14 6.306351e-14 1.430507e-09))
1358.628135   	((-4.183949e-12 -9.952871e-12 2.567515e-14) (-2.996659e-12 6.256884e-12 -1.925820e-13)) ((2.936933e-16 2.613838e-16 1.276012e-13) (3.389285e-14 6.035713e-14 1.406471e-09))
1630.365763   	((-3.994422e-12 -1.021961e-11 1.696848e-14) (-2.948163e-12 6.008039e-12 -2.425100e-13)) ((2.841994e-16 2.398387e-16 1.266991e-13) (3.340104e-14 5.681586e-14 1.385328e-09))
1956.450915   	((-3.359550e-12 -1.051278e-11 6.345074e-14) (-2.899367e-12 5.843799e-12 -2.915348e-13)) ((2.780041e-16 2.270016e-16 1.258857e-13) (3.273390e-14 5.328778e-14 1.366833e-09))
2347.753098   	((-2.970573e-12 -1.072696e-11 9.185424e-14) (-2.843560e-12 5.719980e-12 -3.427419e-13)) ((2.670472e-16 2.081738e-16 1.251599e-13) (3.229550e-14 5.059451e-14 1.350744e-09))
2817.315718   	((-2.634234e-12 -1.093468e-11 8.897560e-14) (-2.740008e-12 5.646889e-12 -3.648770e-13)) ((2.630406e-16 1.995067e-16 1.245015e-13) (3.189461e-14 4.822473e-14 1.336830e-09))
3380.790861   	((-2.561977e-12 -1.110315e-11 2.216505e-13) (-2.624507e-12 5.609322e-12 -3.613582e-13)) ((2.594664e-16 1.862588e-16 1.239312e-13) (3.129273e-14 4.656373e-14 1.324869e-09))
4056.961033   	((-2.887823e-12 -1.129368e-11 4.665901e-13) (-2.503280e-12 5.657217e-12 -3.504969e-13)) ((2.657597e-16 1.781281e-16 1.233958e-13) (3.072377e-14 4.457428e-14 1.314659e-09))
4868.36524    	((-2.894180e-12 -1.140727e-11 6.576140e-13) (-2.389545e-12 5.688729e-12 -3.155266e-13)) ((2.826937e-16 1.913332e-16 1.229684e-13) (2.885172e-14 4.264992e-14 1.305999e-09))
5842.050288   	((-2.801190e-12 -1.151861e-11 7.088133e-13) (-2.339785e-12 5.691506e-12 -2.715645e-13)) ((3.029441e-16 2.061733e-16 1.225854e-13) (2.700195e-14 4.074278e-14 1.298706e-09))
7010.472346   	((-2.701867e-12 -1.149368e-11 7.019161e-13) (-2.261502e-12 5.688808e-12 -2.409178e-13)) ((3.136454e-16 2.246038e-16 1.223024e-13) (2.553133e-14 3.896606e-14 1.292603e-09))
8382.561136   	((-2.667415e-12 -1.140190e-11 5.595619e-13) (-2.188464e-12 5.692872e-12 -2.181591e-13)) ((2.881602e-16 2.331151e-16 1.220367e-13) (2.412240e-14 3.797940e-14 1.287532e-09))
9958.327472   	((-2.659812e-12 -1.156278e-11 5.166809e-13) (-2.125805e-12 5.686013e-12 -2.202142e-13)) ((2.440060e-16 2.318025e-16 1.218208e-13) (2.343390e-14 3.729256e-14 1.283347e-09))
11737.780332  	((-2.788802e-12 -1.158043e-11 5.942290e-13) (-2.082666e-12 5.670039e-12 -2.153655e-13)) ((2.584613e-16 2.617364e-16 1.216394e-13) (2.381068e-14 3.725551e-14 1.279913e-09))
13720.927098  	((-3.005476e-12 -1.179669e-11 4.830095e-13) (-2.066575e-12 5.643756e-12 -2.121367e-13)) ((2.905018e-16 2.878787e-16 1.214958e-13) (2.350710e-14 3.611769e-14 1.277109e-09))
15757.92644   	((-3.283729e-12 -1.193098e-11 4.692982e-13) (-2.065068e-12 5.615171e-12 -2.265223e-13)) ((2.763401e-16 2.883541e-16 1.214013e-13) (2.326918e-14 3.511549e-14 1.274831e-09))
17794.97408   	((-3.571790e-12 -1.204914e-11 4.766237e-13) (-2.058790e-12 5.594444e-12 -2.391804e-13)) ((2.709382e-16 2.893460e-16 1.213126e-13) (2.302211e-14 3.463464e-14 1.272989e-09))
19832.060732  	((-3.835549e-12 -1.215943e-11 4.630810e-13) (-2.048142e-12 5.575585e-12 -2.452077e-13)) ((2.628691e-16 2.886429e-16 1.212439e-13) (2.281669e-14 3.437627e-14 1.271503e-09))
21869.178774  	((-4.043745e-12 -1.222980e-11 4.598239e-13) (-2.038785e-12 5.560368e-12 -2.507741e-13)) ((2.549758e-16 2.844260e-16 1.211929e-13) (2.254077e-14 3.422497e-14 1.270307e-09))
23906.322142  	((-4.209908e-12 -1.221223e-11 5.121124e-13) (-2.038963e-12 5.546719e-12 -2.515779e-13)) ((2.558641e-16 2.815514e-16 1.211451e-13) (2.214718e-14 3.393732e-14 1.269346e-09))
25943.485857  	((-4.421229e-12 -1.212543e-11 6.367234e-13) (-2.039707e-12 5.525166e-12 -2.433197e-13)) ((2.528601e-16 2.707354e-16 1.211067e-13) (2.139347e-14 3.342042e-14 1.268574e-09))
27980.665919  	((-4.456026e-12 -1.209276e-11 6.149080e-13) (-2.027321e-12 5.510898e-12 -2.361038e-13)) ((2.570958e-16 2.742784e-16 1.210774e-13) (2.089074e-14 3.255534e-14 1.267954e-09))
30017.859105  	((-4.466537e-12 -1.204636e-11 5.937295e-13) (-2.017180e-12 5.503096e-12 -2.331566e-13)) ((2.601139e-16 2.766431e-16 1.210540e-13) (2.064839e-14 3.195499e-14 1.267458e-09))
32055.06283   	((-4.458231e-12 -1.199767e-11 5.737821e-13) (-2.007090e-12 5.497642e-12 -2.326629e-13)) ((2.643430e-16 2.788817e-16 1.210370e-13) (2.047755e-14 3.147602e-14 1.267059e-09))
34092.275013  	((-4.443301e-12 -1.196265e-11 5.756743e-13) (-1.994842e-12 5.492777e-12 -2.337965e-13)) ((2.728000e-16 2.826660e-16 1.210279e-13) (2.030418e-14 3.102116e-14 1.266740e-09))
36129.493984  	((-4.382149e-12 -1.185705e-11 5.132189e-13) (-1.989507e-12 5.492433e-12 -2.324763e-13)) ((2.699138e-16 2.835932e-16 1.210137e-13) (2.036823e-14 3.079367e-14 1.266484e-09))
38166.718396  	((-4.318184e-12 -1.176100e-11 4.652267e-13) (-1.984606e-12 5.492399e-12 -2.331852e-13)) ((2.696571e-16 2.837271e-16 1.210027e-13) (2.036147e-14 3.062470e-14 1.266278e-09))
40203.94717   	((-4.251980e-12 -1.166946e-11 4.244113e-13) (-1.980276e-12 5.492614e-12 -2.342011e-13)) ((2.698529e-16 2.836009e-16 1.209937e-13) (2.034558e-14 3.049039e-14 1.266114e-09))
42241.17944   	((-4.180882e-12 -1.157689e-11 3.839287e-13) (-1.976840e-12 5.493565e-12 -2.351125e-13)) ((2.697986e-16 2.834608e-16 1.209864e-13) (2.035086e-14 3.039480e-14 1.265982e-09))
44278.414513  	((-4.107526e-12 -1.148784e-11 3.476860e-13) (-1.973749e-12 5.494718e-12 -2.361066e-13)) ((2.698971e-16 2.832087e-16 1.209804e-13) (2.035131e-14 3.031882e-14 1.265877e-09))
46315.65183   	((-4.031594e-12 -1.140014e-11 3.136112e-13) (-1.970986e-12 5.496195e-12 -2.370269e-13)) ((2.698841e-16 2.830056e-16 1.209756e-13) (2.035657e-14 3.025994e-14 1.265792e-09))
48352.890946  	((-3.954069e-12 -1.131397e-11 2.838608e-13) (-1.968389e-12 5.497690e-12 -2.378708e-13)) ((2.698840e-16 2.827907e-16 1.209716e-13) (2.036239e-14 3.021200e-14 1.265724e-09))
