# Forces      
# CofR        : (0.000000e+00 0.000000e+00 0.000000e+00)
# Time        forces(pressure viscous)	moments(pressure viscous)
0             	((0.000000e+00 0.000000e+00 0.000000e+00) (0.000000e+00 0.000000e+00 0.000000e+00)) ((0.000000e+00 0.000000e+00 0.000000e+00) (0.000000e+00 0.000000e+00 0.000000e+00))
0.012         	((6.791581e-10 -1.134692e-07 -2.292732e-10) (7.931294e-12 -2.892273e-09 9.547475e-12)) ((2.969943e-14 -1.972166e-14 2.586924e-09) (-1.190177e-14 2.383731e-13 3.509093e-06))
0.0264        	((1.770811e-09 -1.680665e-08 -4.698783e-12) (2.276674e-11 -4.269361e-09 1.704706e-11)) ((-2.043208e-14 2.322192e-13 1.195726e-09) (-2.213432e-15 6.589207e-13 3.214514e-06))
0.04368       	((2.194157e-09 -5.351067e-08 -8.353711e-10) (1.208908e-11 -4.524432e-09 2.455313e-11)) ((5.772164e-14 2.878758e-13 6.637550e-10) (-1.636454e-15 1.199108e-12 2.911990e-06))
0.064416      	((2.782700e-09 6.505704e-09 6.435594e-10) (-3.554353e-11 -3.943273e-09 4.078660e-11)) ((4.342408e-15 1.633975e-13 3.703443e-10) (6.246044e-14 1.845142e-12 2.608567e-06))
0.0892992     	((1.254531e-09 -2.398972e-08 -7.169509e-10) (-8.751833e-11 -3.330245e-09 6.353120e-11)) ((8.897809e-14 3.873876e-13 2.863192e-10) (2.658562e-13 2.672501e-12 2.313492e-06))
0.119159      	((-1.250631e-11 2.775672e-09 -7.317767e-11) (-1.201993e-10 -2.796779e-09 8.120748e-11)) ((3.314996e-14 2.704604e-13 2.215358e-10) (5.287398e-13 3.306393e-12 2.036151e-06))
0.154991      	((4.760690e-11 -1.231865e-08 -7.806216e-11) (-1.354375e-10 -2.647352e-09 9.245168e-11)) ((5.245408e-14 2.191832e-13 1.859923e-10) (8.192566e-13 3.651233e-12 1.783116e-06))
0.197989      	((-5.548354e-10 -4.989370e-09 -2.263012e-10) (-1.113022e-10 -2.478547e-09 9.650678e-11)) ((5.796448e-14 2.218244e-13 1.538165e-10) (8.792440e-13 3.707500e-12 1.559176e-06))
0.249587      	((2.067113e-10 -7.095679e-09 -2.254831e-10) (-5.747238e-11 -2.312324e-09 9.609293e-11)) ((3.711145e-14 1.673114e-13 1.275399e-10) (7.669547e-13 3.685157e-12 1.366398e-06))
0.311504      	((3.471190e-10 -6.375665e-09 -2.418299e-10) (-5.787631e-12 -2.146791e-09 9.016405e-11)) ((4.275069e-14 8.846509e-14 1.054537e-10) (4.916287e-13 3.519430e-12 1.203949e-06))
0.385805      	((2.169348e-09 -6.285214e-09 4.223000e-12) (-3.368761e-11 -1.958045e-09 8.572918e-11)) ((4.463232e-14 3.120896e-14 8.905571e-11) (1.569386e-13 3.229507e-12 1.068312e-06))
0.474966      	((-4.943909e-10 -7.577982e-09 -2.798625e-11) (-5.762783e-11 -1.761740e-09 9.571494e-11)) ((5.079280e-14 2.742493e-14 7.723169e-11) (-1.864600e-13 3.141354e-12 9.544406e-07))
0.581959      	((6.604473e-10 -5.808861e-09 -5.194235e-12) (-8.836735e-11 -1.571958e-09 9.216909e-11)) ((-3.302280e-15 -5.989086e-15 6.562491e-11) (-3.462513e-13 2.761963e-12 8.575997e-07))
0.710351      	((1.011469e-09 -4.757148e-09 -1.098116e-10) (-2.381687e-10 -1.319851e-09 6.761394e-11)) ((1.314214e-14 -1.032656e-13 5.409695e-11) (2.506883e-13 1.953163e-12 7.739846e-07))
0.864421      	((3.566637e-09 -6.535753e-09 -2.637217e-10) (-3.392472e-10 -9.690185e-10 4.957212e-11)) ((-4.105777e-14 -1.569492e-13 4.611882e-11) (9.492675e-13 1.342880e-12 7.007657e-07))
1.049306      	((4.366052e-09 -5.852019e-09 -1.506393e-10) (-4.289033e-10 -6.524742e-10 3.880890e-11)) ((-9.043733e-14 -2.153678e-13 4.105401e-11) (8.838489e-13 7.772201e-13 6.358769e-07))
1.271167      	((5.175555e-09 -6.335489e-09 -4.305591e-11) (-6.174644e-10 -5.080453e-10 2.715926e-11)) ((-1.709774e-13 -2.476268e-13 3.730987e-11) (1.168636e-12 1.556574e-12 5.778294e-07))
1.5374        	((3.157497e-09 -7.572489e-09 3.355145e-11) (-6.549332e-10 -3.260262e-10 1.929851e-11)) ((-2.561894e-13 -2.784187e-13 3.355270e-11) (2.420285e-12 4.305070e-12 5.256642e-07))
1.85688       	((2.161035e-09 -9.292348e-09 -1.070927e-10) (-5.239549e-10 -2.094793e-10 1.337677e-11)) ((-3.057276e-13 -2.428056e-13 2.992922e-11) (3.687226e-12 6.934209e-12 4.788469e-07))
2.240256      	((1.885452e-09 -8.487966e-09 3.698936e-10) (-4.756227e-10 -2.131365e-10 7.930333e-12)) ((-3.452661e-13 -2.417575e-13 2.733295e-11) (5.210247e-12 8.918244e-12 4.371029e-07))
2.700307      	((3.180632e-09 -7.848212e-09 2.801952e-10) (-4.807456e-10 -2.451021e-10 -4.020936e-11)) ((-3.461226e-13 -2.502594e-13 2.485500e-11) (7.886472e-12 1.034729e-11 4.001965e-07))
3.252369      	((4.124937e-09 -4.419812e-09 2.597404e-10) (-4.983068e-10 -6.389341e-11 -5.993241e-11)) ((-3.183144e-13 -1.686079e-13 2.222633e-11) (1.092885e-11 1.123465e-11 3.677682e-07))
3.914842      	((2.598780e-09 -1.194889e-09 9.356456e-11) (-5.114135e-10 2.803230e-10 -3.838461e-11)) ((-2.904883e-13 -6.061969e-14 1.944245e-11) (1.170194e-11 1.248154e-11 3.393020e-07))
4.709811      	((1.143168e-09 7.302627e-10 7.303083e-11) (-5.793786e-10 5.699285e-10 -5.016951e-11)) ((-2.140151e-13 5.147840e-14 1.689703e-11) (1.052006e-11 1.290498e-11 3.141808e-07))
5.663773      	((1.083875e-09 1.553545e-09 1.021131e-10) (-5.734108e-10 8.116976e-10 -5.980496e-11)) ((-1.643295e-13 7.828503e-14 1.457999e-11) (9.476039e-12 1.274980e-11 2.917662e-07))
6.808528      	((8.290279e-10 1.518135e-09 1.283859e-10) (-6.136156e-10 7.171417e-10 -6.711925e-11)) ((-7.762834e-14 9.329578e-14 1.285043e-11) (7.229271e-12 1.206403e-11 2.715168e-07))
8.182233      	((9.279633e-10 8.782395e-10 1.189892e-10) (-4.597528e-10 7.236554e-10 -9.033531e-11)) ((-6.203237e-14 1.144871e-13 1.158302e-11) (4.174343e-12 1.068290e-11 2.530651e-07))
9.83068       	((8.519519e-10 5.911082e-10 -6.646706e-11) (-4.143214e-10 6.588819e-10 -1.203664e-10)) ((-7.964201e-14 1.058587e-13 1.055805e-11) (3.390945e-12 9.185871e-12 2.361555e-07))
11.808816     	((8.447472e-10 7.959049e-11 -6.504961e-11) (-4.849060e-10 5.163688e-10 -1.240015e-10)) ((-3.284352e-14 1.133408e-13 9.709166e-12) (3.919991e-12 7.213731e-12 2.205763e-07))
14.182579     	((9.513805e-10 -1.435318e-10 -1.305983e-10) (-4.633800e-10 4.691862e-10 -1.341316e-10)) ((2.209118e-14 1.221959e-13 9.009308e-12) (3.858651e-12 4.912842e-12 2.061828e-07))
17.031095     	((8.734270e-10 2.136802e-10 -5.563302e-11) (-4.616243e-10 2.057427e-10 -1.403258e-10)) ((3.429224e-14 1.254097e-13 8.428236e-12) (3.838623e-12 2.607898e-12 1.929181e-07))
20.449314     	((-1.153316e-10 1.492226e-10 -3.303286e-12) (-5.302462e-10 1.035358e-10 -1.159644e-10)) ((6.363872e-14 1.268167e-13 7.950802e-12) (4.166446e-12 6.090320e-13 1.807767e-07))
24.551176     	((-2.356490e-10 6.412158e-11 3.405818e-11) (-4.305046e-10 6.367288e-11 -8.633581e-11)) ((9.661013e-14 9.791503e-14 7.502235e-12) (4.579540e-12 -1.107152e-12 1.697399e-07))
29.473411     	((-7.480279e-10 -2.319525e-10 1.117131e-11) (-3.819033e-10 1.116750e-11 -7.067779e-11)) ((1.152558e-13 6.807966e-14 7.140654e-12) (5.144315e-12 -2.328626e-12 1.597580e-07))
35.380094     	((-7.336030e-10 -1.889774e-10 -3.254261e-11) (-1.627930e-10 -4.750114e-11 -5.936203e-11)) ((1.236074e-13 6.715236e-14 6.861415e-12) (5.441630e-12 -3.239375e-12 1.507621e-07))
42.468112     	((-2.880666e-10 -4.720401e-10 -4.595832e-12) (-2.099312e-11 -1.758611e-10 -4.256006e-11)) ((1.022856e-13 8.498017e-14 6.562085e-12) (5.836068e-12 -3.444181e-12 1.426480e-07))
50.973735     	((-4.096166e-10 -3.946286e-10 -9.279962e-11) (9.051655e-13 -1.483027e-10 -3.001531e-11)) ((8.808278e-14 9.240083e-14 6.290943e-12) (6.475706e-12 -2.513063e-12 1.353036e-07))
61.180482     	((-6.926086e-11 -4.613765e-10 -6.071787e-11) (1.096429e-10 9.112590e-13 -1.340804e-11)) ((8.575404e-14 9.300049e-14 6.043384e-12) (5.840453e-12 -2.420705e-12 1.286362e-07))
73.428578     	((-9.596931e-12 -2.652138e-10 -1.929257e-11) (1.665545e-10 1.602881e-10 1.948165e-11)) ((8.337584e-14 8.928864e-14 5.766950e-12) (4.595693e-12 -2.316485e-12 1.225779e-07))
88.126294     	((8.970304e-11 -1.573426e-10 -3.280027e-11) (1.007472e-10 1.557170e-10 3.229669e-11)) ((8.978859e-14 7.878622e-14 5.450842e-12) (3.664577e-12 -1.969915e-12 1.170901e-07))
105.763553    	((-9.840534e-11 -4.361813e-10 -3.522026e-11) (-4.225750e-11 5.846960e-11 2.456209e-11)) ((9.134912e-14 7.123482e-14 5.243673e-12) (2.599734e-12 -1.553599e-12 1.121482e-07))
126.928263    	((-1.956064e-10 -6.143927e-10 -2.823441e-11) (-1.490450e-10 3.410575e-11 2.598161e-11)) ((8.343489e-14 6.665129e-14 5.091378e-12) (1.194056e-12 -8.837877e-13 1.077266e-07))
152.150433    	((-3.449332e-10 -7.045405e-10 -3.339832e-11) (-1.454347e-10 5.431309e-11 3.303003e-11)) ((8.223314e-14 6.224652e-14 5.008595e-12) (-2.663755e-13 -1.037096e-13 1.038064e-07))
181.42925     	((-4.879554e-10 -8.368879e-10 -6.967640e-11) (-1.664992e-10 4.885749e-11 2.873763e-11)) ((7.646769e-14 6.190497e-14 4.935614e-12) (-2.022864e-12 3.858059e-13 1.003852e-07))
214.763813    	((-5.667161e-10 -1.013440e-09 -4.647028e-11) (-2.293968e-10 -5.255028e-11 1.850006e-11)) ((6.468922e-14 6.366259e-14 4.861844e-12) (-3.478743e-12 4.267291e-13 9.743667e-08))
252.153107    	((-4.972534e-10 -9.690006e-10 -6.429305e-11) (-2.096430e-10 -9.654702e-11 1.223397e-11)) ((6.273749e-14 6.884234e-14 4.767769e-12) (-4.039401e-12 1.333354e-13 9.492718e-08))
292.688511    	((-4.129393e-10 -9.397662e-10 -1.106050e-10) (-1.709616e-10 -1.028266e-10 1.424083e-11)) ((5.648596e-14 6.701218e-14 4.690535e-12) (-3.793386e-12 -4.652802e-13 9.283445e-08))
333.210719    	((-4.210713e-10 -8.528098e-10 -8.701727e-11) (-1.609292e-10 -6.074537e-11 3.106678e-11)) ((4.960098e-14 6.207887e-14 4.620125e-12) (-3.363387e-12 -1.143675e-12 9.115491e-08))
373.719895    	((-3.283073e-10 -6.881996e-10 -5.328573e-11) (-1.312856e-10 3.271292e-12 3.985708e-11)) ((4.335984e-14 6.313999e-14 4.566302e-12) (-2.792156e-12 -1.849302e-12 8.983087e-08))
414.215993    	((-3.213635e-10 -6.326570e-10 -1.455107e-11) (-9.122384e-11 6.058327e-11 4.201909e-11)) ((3.965515e-14 6.270638e-14 4.518458e-12) (-2.194444e-12 -2.469627e-12 8.881430e-08))
454.698968    	((-2.915490e-10 -5.206175e-10 -3.594755e-11) (-5.111888e-11 9.861534e-11 3.939664e-11)) ((3.458969e-14 6.311166e-14 4.484534e-12) (-1.684562e-12 -2.762373e-12 8.805179e-08))
495.16916     	((-2.892487e-10 -4.692594e-10 -2.599163e-11) (-3.435085e-11 9.329869e-11 2.962298e-11)) ((2.952129e-14 6.277193e-14 4.453267e-12) (-1.276477e-12 -2.853599e-12 8.750209e-08))
535.627417    	((-2.739517e-10 -4.188291e-10 -2.492473e-11) (-2.502928e-11 7.899936e-11 1.868749e-11)) ((2.738890e-14 6.239916e-14 4.429928e-12) (-1.044889e-12 -2.841031e-12 8.712893e-08))
576.074668    	((-2.565113e-10 -3.594525e-10 -6.072365e-12) (-3.009934e-11 9.448847e-11 1.328567e-11)) ((2.314154e-14 6.438302e-14 4.404886e-12) (-9.163377e-13 -2.754030e-12 8.690384e-08))
616.510083    	((-2.304656e-10 -3.228031e-10 2.038029e-11) (-2.518720e-11 1.417707e-10 1.469581e-11)) ((1.656849e-14 6.533766e-14 4.375006e-12) (-9.263878e-13 -2.682406e-12 8.680228e-08))
656.934113    	((-2.073378e-10 -2.864576e-10 2.106397e-11) (-2.857892e-11 1.625574e-10 1.604543e-11)) ((1.149578e-14 6.525131e-14 4.348176e-12) (-9.658908e-13 -2.705053e-12 8.680318e-08))
697.347583    	((-1.502531e-10 -2.352178e-10 2.021786e-11) (-5.541692e-11 1.617937e-10 1.428913e-11)) ((7.050609e-15 6.457882e-14 4.316873e-12) (-1.003381e-12 -2.862984e-12 8.688901e-08))
737.751271    	((-1.057224e-10 -2.091074e-10 2.255645e-11) (-8.730497e-11 1.593837e-10 1.141033e-11)) ((2.331117e-15 6.377107e-14 4.287086e-12) (-1.044490e-12 -3.042040e-12 8.704420e-08))
778.145921    	((-6.833488e-11 -1.894143e-10 2.309758e-11) (-1.083403e-10 1.616255e-10 1.176791e-11)) ((-1.085931e-15 6.270473e-14 4.263897e-12) (-1.114506e-12 -3.150161e-12 8.725434e-08))
818.532371    	((-4.299631e-11 -1.654819e-10 2.758070e-11) (-1.187714e-10 1.616212e-10 1.318027e-11)) ((-4.206393e-15 6.195974e-14 4.243564e-12) (-1.114267e-12 -3.192799e-12 8.750703e-08))
858.911577    	((-9.215998e-12 -1.531656e-10 2.947155e-11) (-1.196403e-10 1.707414e-10 1.426079e-11)) ((-8.049724e-15 6.131627e-14 4.227410e-12) (-1.092158e-12 -3.128814e-12 8.779114e-08))
899.284392    	((-1.272481e-12 -1.459602e-10 2.644014e-11) (-1.154396e-10 1.731724e-10 1.357968e-11)) ((-1.057753e-14 6.108804e-14 4.219393e-12) (-1.067778e-12 -3.010331e-12 8.809706e-08))
939.651587    	((1.408221e-12 -1.495354e-10 2.204539e-11) (-1.159012e-10 1.693913e-10 1.271009e-11)) ((-1.192617e-14 6.145530e-14 4.216314e-12) (-1.028025e-12 -2.917604e-12 8.841644e-08))
