# Forces      
# CofR        : (0.000000e+00 0.000000e+00 0.000000e+00)
# Time        forces(pressure viscous)	moments(pressure viscous)
0             	((0.000000e+00 0.000000e+00 0.000000e+00) (-3.178037e-05 4.243240e-15 -1.819706e-15)) ((0.000000e+00 0.000000e+00 0.000000e+00) (1.649967e-18 2.737157e-16 4.369098e-16))
0.012         	((-9.242233e-03 4.968011e-09 3.947597e-09) (-3.647275e-05 2.757525e-11 1.991282e-11)) ((-1.793447e-14 3.873914e-12 1.564786e-12) (3.134540e-15 -4.445092e-14 -6.172672e-13))
0.0264        	((6.387133e-04 -1.413957e-07 -6.660652e-08) (-3.721560e-05 -6.140509e-11 -2.462339e-11)) ((-1.506388e-12 -8.263797e-12 -2.037693e-12) (-3.765048e-14 -3.600332e-13 -1.101259e-12))
0.04368       	((1.933876e-03 2.102576e-07 1.204227e-07) (-3.307399e-05 4.186921e-11 1.530031e-11)) ((-1.552609e-13 -3.987029e-12 -6.960138e-12) (-8.753809e-14 -1.834497e-12 -5.739930e-13))
0.064416      	((1.838790e-05 -1.248124e-08 -2.092153e-09) (-2.929500e-05 -4.103327e-10 -3.989010e-10)) ((8.862826e-13 3.456403e-12 2.474735e-12) (-1.166897e-13 1.491136e-12 -4.850022e-12))
0.0892992     	((-2.541481e-05 -1.520680e-08 -2.073120e-08) (-2.704629e-05 -7.476630e-10 -7.309340e-10)) ((-1.173499e-12 4.337830e-13 1.615656e-12) (1.410864e-13 3.416270e-12 -7.327363e-12))
0.119159      	((2.896231e-05 -1.310896e-08 -3.112955e-09) (-2.497499e-05 -6.006784e-10 -6.332169e-10)) ((6.425687e-13 2.231671e-12 5.128200e-13) (1.711105e-13 -1.513175e-12 -1.371138e-12))
0.154991      	((1.557421e-05 8.436829e-09 3.912136e-09) (-2.277867e-05 -4.744383e-10 -4.851195e-10)) ((-2.075249e-13 1.017793e-12 -3.289048e-13) (2.254487e-13 -4.087561e-12 2.610413e-12))
0.197989      	((3.779368e-06 -4.722495e-09 6.833672e-11) (-2.056238e-05 -2.416818e-10 -2.588418e-10)) ((1.531825e-14 1.830505e-12 -7.159060e-13) (1.561385e-13 -1.187087e-12 5.386189e-13))
0.249587      	((-5.111046e-07 -2.328959e-09 -4.845970e-10) (-1.838858e-05 -6.455606e-11 -6.993123e-11)) ((8.848202e-14 1.026010e-12 -2.840992e-13) (8.803869e-14 1.433834e-12 -2.849019e-12))
0.311504      	((-2.474068e-06 -1.200065e-09 -6.447304e-10) (-1.632293e-05 4.402237e-11 3.631217e-11)) ((4.303727e-14 6.733159e-13 -4.248647e-14) (2.105422e-13 1.402101e-12 -3.707216e-12))
0.385805      	((-3.412816e-06 3.866391e-10 9.591624e-10) (-1.441814e-05 9.995271e-11 8.665869e-11)) ((4.238615e-16 5.523884e-13 -1.127545e-13) (2.904685e-13 5.943578e-13 -3.690149e-12))
0.474966      	((-3.861857e-06 7.601064e-10 6.163191e-10) (-1.271100e-05 9.366214e-11 9.139480e-11)) ((-1.672401e-16 3.617845e-13 -6.482455e-14) (3.136790e-13 -2.300403e-13 -3.889434e-12))
0.581959      	((-4.045559e-06 4.857805e-10 5.076281e-10) (-1.121585e-05 8.744649e-11 8.430599e-11)) ((-1.086687e-14 2.132731e-13 -4.194136e-14) (-3.874078e-14 -3.344998e-13 -3.496441e-12))
0.710351      	((-4.031479e-06 2.883627e-10 2.295516e-10) (-9.932055e-06 6.731920e-11 6.833386e-11)) ((-9.343158e-15 1.019496e-13 -1.998861e-14) (-3.808084e-13 -1.023825e-12 -2.381727e-12))
0.864421      	((-3.886458e-06 8.679548e-11 9.487339e-11) (-8.843159e-06 5.248936e-11 6.534781e-11)) ((-1.380649e-14 5.046577e-14 -5.982121e-15) (-4.361831e-13 -1.739484e-12 -1.476989e-12))
1.049306      	((-3.673149e-06 5.215458e-11 7.675900e-12) (-7.921907e-06 3.920233e-11 6.163485e-11)) ((-8.508834e-15 1.370585e-14 -1.265543e-15) (-4.235488e-13 -2.430932e-12 -8.578340e-13))
1.271167      	((-3.435695e-06 -5.626417e-12 -1.002489e-11) (-7.139984e-06 2.023606e-11 6.154914e-11)) ((-9.641102e-15 -9.103297e-16 -1.695218e-15) (-3.370952e-13 -2.699639e-12 -8.505965e-13))
1.5374        	((-3.192032e-06 -1.860536e-12 1.670586e-13) (-6.467724e-06 1.372273e-11 6.275452e-11)) ((-6.918060e-15 -4.919906e-15 2.544546e-16) (-2.020392e-13 -2.769528e-12 -8.720372e-13))
1.85688       	((-2.953138e-06 4.261054e-12 -1.763716e-11) (-5.878461e-06 1.882135e-11 5.644985e-11)) ((-3.906872e-15 6.362652e-15 -6.405114e-17) (-1.387438e-13 -2.732879e-12 -5.038277e-13))
2.240256      	((-2.725846e-06 -6.911652e-13 -2.229016e-11) (-5.354511e-06 2.404108e-11 4.702966e-11)) ((-4.302596e-15 1.470257e-14 -1.016045e-16) (-1.174262e-13 -2.877565e-12 5.055762e-14))
2.700307      	((-2.513332e-06 -3.837718e-11 -4.183335e-11) (-4.884941e-06 2.404756e-11 4.322207e-11)) ((-4.123299e-15 1.897902e-14 4.888609e-16) (-7.585183e-14 -3.156687e-12 6.730836e-13))
3.252369      	((-2.314828e-06 -7.167367e-11 -8.576594e-11) (-4.462364e-06 2.454318e-11 4.357547e-11)) ((-4.258818e-15 1.985612e-14 2.320244e-15) (-3.366587e-14 -3.472668e-12 1.164827e-12))
3.914842      	((-2.128316e-06 -9.728374e-11 -6.925322e-11) (-4.081075e-06 2.332732e-11 4.077947e-11)) ((-4.815430e-15 1.817217e-14 1.673680e-15) (-6.825208e-14 -3.738573e-12 1.493880e-12))
4.709811      	((-1.955369e-06 -5.007302e-11 -2.095217e-11) (-3.736876e-06 1.847744e-11 3.414093e-11)) ((-5.966492e-15 1.874950e-14 1.956202e-15) (-1.207714e-13 -3.864318e-12 1.783868e-12))
5.663773      	((-1.796553e-06 1.116813e-11 3.053973e-11) (-3.426676e-06 1.980172e-11 3.011869e-11)) ((-5.711796e-15 1.968204e-14 1.290942e-15) (-1.307396e-13 -3.826558e-12 1.929112e-12))
6.808528      	((-1.651597e-06 5.954576e-11 6.472972e-11) (-3.147885e-06 2.193059e-11 2.873459e-11)) ((-4.158110e-15 1.813346e-14 -2.580909e-16) (-1.140037e-13 -3.765912e-12 1.876491e-12))
8.182233      	((-1.519434e-06 4.912885e-11 5.151761e-11) (-2.897631e-06 2.081438e-11 2.675966e-11)) ((-3.200035e-15 1.415148e-14 -2.562630e-16) (-1.077104e-13 -3.793542e-12 1.811025e-12))
9.83068       	((-1.399445e-06 4.958168e-12 -9.198529e-12) (-2.672707e-06 1.780733e-11 2.180566e-11)) ((-3.234983e-15 1.316522e-14 -5.703766e-17) (-1.310154e-13 -4.300201e-12 2.321738e-12))
11.808816     	((-1.290126e-06 -4.134094e-11 -7.299638e-11) (-2.470016e-06 1.250100e-11 1.712680e-11)) ((-3.102589e-15 1.000767e-14 2.660251e-16) (-1.627757e-13 -5.588274e-12 3.673869e-12))
14.182579     	((-1.190692e-06 -9.815317e-11 -1.190298e-10) (-2.286662e-06 4.180439e-12 1.296804e-11)) ((-3.268042e-15 9.428993e-15 7.093993e-16) (-1.678579e-13 -7.313358e-12 5.600978e-12))
17.031095     	((-1.100836e-06 -1.732253e-10 -2.051307e-10) (-2.120243e-06 -2.394259e-12 3.599447e-12)) ((-4.687553e-15 9.858368e-15 1.948547e-15) (-1.219780e-13 -9.599428e-12 7.790659e-12))
20.449314     	((-1.019701e-06 -2.815741e-10 -3.145554e-10) (-1.968960e-06 -1.060319e-11 -6.941746e-12)) ((-4.645172e-15 1.185116e-14 2.488918e-15) (-7.424011e-14 -1.213161e-11 1.011600e-11))
24.551176     	((-9.467220e-07 -3.646724e-10 -4.003232e-10) (-1.831456e-06 -2.324478e-11 -1.752102e-11)) ((-3.592290e-15 1.270127e-14 3.097634e-15) (-4.023675e-14 -1.423922e-11 1.211481e-11))
29.473411     	((-8.817830e-07 -3.032678e-10 -3.221046e-10) (-1.706717e-06 -3.251930e-11 -2.357261e-11)) ((-2.446389e-15 1.137626e-14 3.121657e-15) (4.240115e-16 -1.580285e-11 1.356755e-11))
35.380094     	((-8.243008e-07 -2.013160e-10 -2.158571e-10) (-1.593902e-06 -3.436045e-11 -2.458348e-11)) ((-1.914291e-15 8.687331e-15 1.032442e-15) (-2.179468e-15 -1.710068e-11 1.491095e-11))
42.468112     	((-7.739917e-07 -2.694863e-10 -2.641010e-10) (-1.492181e-06 -4.058407e-11 -2.930113e-11)) ((-1.653773e-15 8.502309e-15 -1.289594e-16) (-8.262107e-14 -1.868802e-11 1.664230e-11))
50.973735     	((-7.304012e-07 -3.457980e-10 -3.415411e-10) (-1.400679e-06 -5.169855e-11 -3.685001e-11)) ((-2.213909e-15 9.247433e-15 2.804880e-16) (-1.428880e-13 -2.085308e-11 1.886032e-11))
61.180482     	((-6.931418e-07 -3.466940e-10 -3.344881e-10) (-1.318525e-06 -5.978773e-11 -4.271872e-11)) ((-2.625731e-15 9.644423e-15 7.758384e-16) (-2.162032e-13 -2.376724e-11 2.162671e-11))
73.428578     	((-6.618568e-07 -3.173039e-10 -3.135640e-10) (-1.244921e-06 -6.523742e-11 -4.787247e-11)) ((-2.676547e-15 9.975459e-15 1.383903e-15) (-2.990224e-13 -2.736522e-11 2.503469e-11))
88.126294     	((-6.362283e-07 -2.813754e-10 -2.721032e-10) (-1.179174e-06 -6.827491e-11 -4.997739e-11)) ((-2.393621e-15 9.339951e-15 1.789350e-15) (-3.306342e-13 -3.128904e-11 2.891990e-11))
105.763553    	((-6.161484e-07 -2.150631e-10 -2.025499e-10) (-1.120724e-06 -6.441227e-11 -4.860680e-11)) ((-1.526361e-15 8.092667e-15 2.499606e-15) (-3.336844e-13 -3.541256e-11 3.290775e-11))
126.928263    	((-6.011391e-07 -1.871557e-10 -1.884100e-10) (-1.069116e-06 -6.203693e-11 -4.791529e-11)) ((-1.680118e-15 8.598846e-15 3.025593e-15) (-3.219203e-13 -3.928921e-11 3.668508e-11))
152.325916    	((-5.910008e-07 -1.402181e-10 -1.423846e-10) (-1.023999e-06 -5.941890e-11 -4.456150e-11)) ((-1.891200e-15 8.303874e-15 3.417279e-15) (-3.269322e-13 -4.259301e-11 4.000563e-11))
182.803099    	((-5.852207e-07 -9.743618e-11 -1.106529e-10) (-9.850850e-07 -5.669703e-11 -4.356971e-11)) ((-2.081819e-15 8.135024e-15 3.458965e-15) (-3.256294e-13 -4.519128e-11 4.249047e-11))
219.375719    	((-5.830484e-07 -4.854976e-11 -6.810170e-11) (-9.520616e-07 -5.570894e-11 -4.424057e-11)) ((-2.136667e-15 7.028288e-15 3.449180e-15) (-3.426699e-13 -4.684951e-11 4.416258e-11))
263.262863    	((-5.835962e-07 2.441013e-11 4.704559e-12) (-9.245585e-07 -5.234288e-11 -4.277919e-11)) ((-2.073847e-15 5.908014e-15 3.668606e-15) (-3.570117e-13 -4.740892e-11 4.484544e-11))
315.927436    	((-5.857346e-07 9.396113e-11 7.754573e-11) (-9.020617e-07 -4.385614e-11 -3.642953e-11)) ((-2.264999e-15 5.658341e-15 3.608419e-15) (-3.495418e-13 -4.695339e-11 4.449419e-11))
377.697199    	((-5.884881e-07 1.642073e-10 1.387641e-10) (-8.839871e-07 -3.006427e-11 -2.423147e-11)) ((-2.001932e-15 5.689865e-15 3.481748e-15) (-3.412407e-13 -4.558804e-11 4.331864e-11))
448.554739    	((-5.906857e-07 2.032702e-10 1.811749e-10) (-8.695073e-07 -1.157298e-11 -6.438564e-12)) ((-1.907385e-15 5.974850e-15 3.383359e-15) (-3.297395e-13 -4.360967e-11 4.149036e-11))
528.497029    	((-5.919392e-07 2.406863e-10 2.165697e-10) (-8.578454e-07 1.141985e-11 1.567641e-11)) ((-1.770207e-15 5.948141e-15 3.112857e-15) (-3.260924e-13 -4.129697e-11 3.929952e-11))
617.531638    	((-5.924039e-07 2.564939e-10 2.357295e-10) (-8.483617e-07 3.637934e-11 4.009128e-11)) ((-1.505682e-15 5.944088e-15 2.887257e-15) (-3.296257e-13 -3.897454e-11 3.703507e-11))
708.564674    	((-5.927397e-07 2.525746e-10 2.328814e-10) (-8.407192e-07 6.006969e-11 6.346917e-11)) ((-1.049046e-15 5.962272e-15 2.725165e-15) (-3.362153e-13 -3.674858e-11 3.485735e-11))
799.696146    	((-5.927627e-07 2.341009e-10 2.174255e-10) (-8.345020e-07 8.011437e-11 8.307924e-11)) ((-8.658617e-16 6.106719e-15 2.524470e-15) (-3.444278e-13 -3.465438e-11 3.279244e-11))
890.907312    	((-5.927537e-07 2.100355e-10 1.938257e-10) (-8.294626e-07 9.521948e-11 9.775430e-11)) ((-7.246202e-16 6.256139e-15 2.456409e-15) (-3.490265e-13 -3.267151e-11 3.083638e-11))
982.183449    	((-5.926956e-07 1.802254e-10 1.641765e-10) (-8.253622e-07 1.051206e-10 1.073694e-10)) ((-6.088495e-16 6.502960e-15 2.306250e-15) (-3.512407e-13 -3.083309e-11 2.902084e-11))
1073.514197   	((-5.926197e-07 1.466234e-10 1.307117e-10) (-8.220336e-07 1.112022e-10 1.133723e-10)) ((-5.065380e-16 6.699925e-15 2.269540e-15) (-3.525177e-13 -2.907949e-11 2.728760e-11))
1164.891023   	((-5.925263e-07 1.118077e-10 9.608285e-11) (-8.193234e-07 1.136766e-10 1.159176e-10)) ((-4.115700e-16 7.013422e-15 2.192929e-15) (-3.544021e-13 -2.744770e-11 2.567439e-11))
1256.306425   	((-5.924350e-07 7.726379e-11 6.138025e-11) (-8.171132e-07 1.132287e-10 1.156486e-10)) ((-2.919963e-16 7.230930e-15 2.152689e-15) (-3.561798e-13 -2.594303e-11 2.418818e-11))
1347.753819   	((-5.923499e-07 4.341096e-11 2.759251e-11) (-8.153097e-07 1.107139e-10 1.132807e-10)) ((-1.944133e-16 7.505738e-15 2.137739e-15) (-3.560544e-13 -2.456588e-11 2.281997e-11))
1439.227628   	((-5.922726e-07 1.156437e-11 -3.929719e-12) (-8.138373e-07 1.064794e-10 1.090732e-10)) ((-1.055285e-16 7.766809e-15 2.070632e-15) (-3.551538e-13 -2.332815e-11 2.158471e-11))
1530.723193   	((-5.922030e-07 -1.754628e-11 -3.267927e-11) (-8.126342e-07 1.012169e-10 1.039268e-10)) ((-3.992281e-17 7.910730e-15 2.007871e-15) (-3.552033e-13 -2.220352e-11 2.047241e-11))
1622.236665   	((-5.921427e-07 -4.382602e-11 -5.879410e-11) (-8.116498e-07 9.520746e-11 9.807901e-11)) ((5.869582e-18 8.039604e-15 1.934534e-15) (-3.550741e-13 -2.120577e-11 1.948826e-11))
1713.764869   	((-5.920908e-07 -6.711207e-11 -8.195238e-11) (-8.108433e-07 8.894884e-11 9.187067e-11)) ((3.215128e-17 8.217890e-15 1.853983e-15) (-3.547693e-13 -2.032704e-11 1.861823e-11))
1805.305197   	((-5.920461e-07 -8.776610e-11 -1.024817e-10) (-8.101821e-07 8.274894e-11 8.569222e-11)) ((7.030782e-17 8.350840e-15 1.833323e-15) (-3.547226e-13 -1.955305e-11 1.785127e-11))
1896.855501   	((-5.920075e-07 -1.056124e-10 -1.202545e-10) (-8.096396e-07 7.669066e-11 7.974530e-11)) ((9.644798e-17 8.437309e-15 1.793762e-15) (-3.549108e-13 -1.887726e-11 1.718432e-11))
1988.414017   	((-5.919751e-07 -1.208618e-10 -1.356545e-10) (-8.091943e-07 7.098257e-11 7.417449e-11)) ((1.264880e-16 8.543581e-15 1.762692e-15) (-3.550383e-13 -1.829187e-11 1.660715e-11))
2079.979295   	((-5.919476e-07 -1.338574e-10 -1.487546e-10) (-8.088285e-07 6.569495e-11 6.898047e-11)) ((1.500450e-16 8.630143e-15 1.740933e-15) (-3.550300e-13 -1.779075e-11 1.611174e-11))
2171.550142   	((-5.919245e-07 -1.447840e-10 -1.597145e-10) (-8.085279e-07 6.088609e-11 6.422481e-11)) ((1.677919e-16 8.699779e-15 1.718423e-15) (-3.549856e-13 -1.736415e-11 1.568951e-11))
2263.125577   	((-5.919046e-07 -1.539608e-10 -1.689121e-10) (-8.082807e-07 5.662107e-11 6.000076e-11)) ((1.808167e-16 8.753736e-15 1.701009e-15) (-3.547648e-13 -1.700048e-11 1.532963e-11))
2354.704789   	((-5.918878e-07 -1.615976e-10 -1.762617e-10) (-8.080773e-07 5.289219e-11 5.630767e-11)) ((1.983424e-16 8.788510e-15 1.689398e-15) (-3.544977e-13 -1.669175e-11 1.502398e-11))
2446.287112   	((-5.918738e-07 -1.678840e-10 -1.825791e-10) (-8.079099e-07 4.965670e-11 5.309400e-11)) ((2.100505e-16 8.818036e-15 1.681025e-15) (-3.542057e-13 -1.643072e-11 1.476590e-11))
2537.871998   	((-5.918624e-07 -1.730840e-10 -1.878790e-10) (-8.077721e-07 4.689204e-11 5.033952e-11)) ((2.182993e-16 8.842537e-15 1.671610e-15) (-3.539296e-13 -1.621042e-11 1.454835e-11))
2629.458994   	((-5.918529e-07 -1.773218e-10 -1.922627e-10) (-8.076586e-07 4.455623e-11 4.799898e-11)) ((2.243476e-16 8.864535e-15 1.662750e-15) (-3.536406e-13 -1.602496e-11 1.436533e-11))
2721.04773    	((-5.918448e-07 -1.808144e-10 -1.959037e-10) (-8.075652e-07 4.258843e-11 4.602527e-11)) ((2.288430e-16 8.882388e-15 1.653965e-15) (-3.533647e-13 -1.586933e-11 1.421221e-11))
2812.6379     	((-5.918376e-07 -1.836906e-10 -1.988759e-10) (-8.074881e-07 4.094086e-11 4.436854e-11)) ((2.333807e-16 8.898437e-15 1.646949e-15) (-3.531129e-13 -1.573923e-11 1.408444e-11))
2904.22925    	((-5.918319e-07 -1.860522e-10 -2.013994e-10) (-8.074247e-07 3.957718e-11 4.298409e-11)) ((2.364983e-16 8.912168e-15 1.641181e-15) (-3.528779e-13 -1.563073e-11 1.397768e-11))
2995.821575   	((-5.918273e-07 -1.879790e-10 -2.034510e-10) (-8.073723e-07 3.844896e-11 4.183358e-11)) ((2.391128e-16 8.923183e-15 1.636360e-15) (-3.527176e-13 -1.554025e-11 1.388875e-11))
3087.414703   	((-5.918234e-07 -1.895698e-10 -2.051557e-10) (-8.073292e-07 3.752136e-11 4.088176e-11)) ((2.419138e-16 8.934196e-15 1.633095e-15) (-3.525907e-13 -1.546489e-11 1.381460e-11))
3179.008492   	((-5.918204e-07 -1.908957e-10 -2.065685e-10) (-8.072937e-07 3.675961e-11 4.009728e-11)) ((2.437953e-16 8.942061e-15 1.629714e-15) (-3.524853e-13 -1.540220e-11 1.375296e-11))
3270.602827   	((-5.918177e-07 -1.920327e-10 -2.077374e-10) (-8.072644e-07 3.613208e-11 3.944924e-11)) ((2.464232e-16 8.949656e-15 1.627828e-15) (-3.524016e-13 -1.535001e-11 1.370169e-11))
3362.197612   	((-5.918156e-07 -1.929598e-10 -2.087396e-10) (-8.072402e-07 3.561838e-11 3.891350e-11)) ((2.473228e-16 8.954365e-15 1.625637e-15) (-3.523385e-13 -1.530655e-11 1.365896e-11))
3453.792768   	((-5.918138e-07 -1.937352e-10 -2.095604e-10) (-8.072203e-07 3.519533e-11 3.847176e-11)) ((2.488885e-16 8.959224e-15 1.624188e-15) (-3.522836e-13 -1.527049e-11 1.362346e-11))
3545.388231   	((-5.918124e-07 -1.943767e-10 -2.102303e-10) (-8.072038e-07 3.484718e-11 3.810543e-11)) ((2.496954e-16 8.962043e-15 1.622770e-15) (-3.522392e-13 -1.524045e-11 1.359387e-11))
3636.983947   	((-5.918113e-07 -1.949484e-10 -2.108331e-10) (-8.071903e-07 3.455873e-11 3.780243e-11)) ((2.504970e-16 8.964658e-15 1.621536e-15) (-3.522005e-13 -1.521541e-11 1.356917e-11))
3728.579871   	((-5.918102e-07 -1.954112e-10 -2.113196e-10) (-8.071790e-07 3.431975e-11 3.755001e-11)) ((2.510489e-16 8.967275e-15 1.620635e-15) (-3.521683e-13 -1.519451e-11 1.354854e-11))
3820.175968   	((-5.918093e-07 -1.958012e-10 -2.117278e-10) (-8.071698e-07 3.412024e-11 3.734025e-11)) ((2.515039e-16 8.969395e-15 1.619941e-15) (-3.521423e-13 -1.517707e-11 1.353133e-11))
3911.772206   	((-5.918085e-07 -1.961296e-10 -2.120801e-10) (-8.071622e-07 3.395344e-11 3.716498e-11)) ((2.518634e-16 8.971332e-15 1.619363e-15) (-3.521209e-13 -1.516252e-11 1.351695e-11))
4003.368562   	((-5.918079e-07 -1.964215e-10 -2.123841e-10) (-8.071559e-07 3.381309e-11 3.701819e-11)) ((2.521947e-16 8.972697e-15 1.618889e-15) (-3.521033e-13 -1.515037e-11 1.350493e-11))
4094.965014   	((-5.918075e-07 -1.966468e-10 -2.126070e-10) (-8.071507e-07 3.369474e-11 3.689501e-11)) ((2.524922e-16 8.973691e-15 1.618494e-15) (-3.520892e-13 -1.514024e-11 1.349489e-11))
4186.561546   	((-5.918071e-07 -1.968511e-10 -2.128014e-10) (-8.071464e-07 3.359453e-11 3.679106e-11)) ((2.529239e-16 8.974804e-15 1.618217e-15) (-3.520776e-13 -1.513179e-11 1.348650e-11))
4278.158144   	((-5.918067e-07 -1.970180e-10 -2.129532e-10) (-8.071428e-07 3.351002e-11 3.670298e-11)) ((2.530841e-16 8.975687e-15 1.617936e-15) (-3.520682e-13 -1.512472e-11 1.347949e-11))
4369.754796   	((-5.918064e-07 -1.971552e-10 -2.130852e-10) (-8.071399e-07 3.343844e-11 3.662872e-11)) ((2.532159e-16 8.976455e-15 1.617694e-15) (-3.520607e-13 -1.511883e-11 1.347364e-11))
4461.351494   	((-5.918062e-07 -1.972712e-10 -2.132004e-10) (-8.071375e-07 3.337786e-11 3.656560e-11)) ((2.533026e-16 8.976997e-15 1.617493e-15) (-3.520545e-13 -1.511392e-11 1.346876e-11))
4552.948228   	((-5.918060e-07 -1.973683e-10 -2.133061e-10) (-8.071355e-07 3.332668e-11 3.651314e-11)) ((2.533881e-16 8.977631e-15 1.617343e-15) (-3.520495e-13 -1.510982e-11 1.346468e-11))
