# Forces      
# CofR        : (0.000000e+00 0.000000e+00 0.000000e+00)
# Time        forces(pressure viscous)	moments(pressure viscous)
0             	((0.000000e+00 0.000000e+00 0.000000e+00) (0.000000e+00 0.000000e+00 0.000000e+00)) ((0.000000e+00 0.000000e+00 0.000000e+00) (0.000000e+00 0.000000e+00 0.000000e+00))
0.012         	((-7.515485e-10 4.295063e-09 -9.175515e-09) (1.092674e-10 4.944657e-12 6.000645e-11)) ((4.127826e-08 -3.947139e-12 -8.456882e-14) (2.788832e-05 3.087445e-12 -1.282355e-12))
0.0264        	((1.930983e-09 6.886835e-09 -1.559137e-08) (7.225171e-10 -4.746788e-11 3.176830e-11)) ((2.162896e-08 -3.139333e-12 5.993573e-13) (2.555161e-05 3.921440e-12 -7.476537e-13))
0.04368       	((-3.755209e-08 -1.301764e-08 -1.709186e-08) (1.675611e-09 -1.454449e-10 -2.673756e-11)) ((1.351716e-08 -2.798929e-12 7.174392e-13) (2.317620e-05 1.290643e-12 1.691819e-12))
0.064416      	((3.646647e-08 -3.903851e-09 -5.214304e-09) (2.991827e-09 -2.066276e-10 -7.541008e-11)) ((9.222149e-09 -2.062099e-12 -4.723022e-13) (2.083489e-05 -3.487327e-12 3.913069e-12))
0.0892992     	((-6.010988e-09 -1.083885e-08 5.866483e-09) (4.662594e-09 -1.985561e-10 -1.194057e-10)) ((7.963282e-09 -1.869911e-12 -6.049109e-13) (1.861422e-05 -8.321518e-12 6.095520e-12))
0.119159      	((9.845871e-09 -1.724482e-09 8.208183e-09) (5.631801e-09 -1.768089e-10 -1.232315e-10)) ((6.565713e-09 -1.580243e-12 -7.933087e-13) (1.658989e-05 -1.061821e-11 7.687106e-12))
0.154991      	((2.716774e-08 3.540900e-10 3.282980e-09) (5.173000e-09 -1.685339e-10 -1.134545e-10)) ((5.669850e-09 -1.208927e-12 -7.492122e-13) (1.480644e-05 -1.098942e-11 9.050032e-12))
0.197989      	((2.008235e-09 -1.804913e-09 1.803655e-09) (4.985373e-09 -1.559492e-10 -9.593515e-11)) ((4.949139e-09 -8.474889e-13 -7.128930e-13) (1.325971e-05 -1.175527e-11 1.075960e-11))
0.249587      	((1.447042e-08 1.770979e-09 -2.241805e-09) (5.434539e-09 -1.264357e-10 -1.214811e-10)) ((4.408047e-09 -8.287496e-13 -5.059467e-13) (1.189626e-05 -1.501487e-11 1.202925e-11))
0.311504      	((-4.173473e-09 3.000919e-11 -4.450186e-09) (2.936942e-09 -1.040732e-10 -2.658205e-10)) ((3.928170e-09 -7.892704e-13 -4.142438e-13) (1.065487e-05 -1.759669e-11 1.061517e-11))
0.385805      	((-4.490841e-08 2.550643e-09 -2.261358e-09) (-2.016701e-10 -1.425056e-10 -4.611638e-10)) ((3.528881e-09 -7.545139e-13 -2.038470e-13) (9.522538e-06 -1.692753e-11 7.199069e-12))
0.474966      	((-4.371430e-08 4.831723e-09 -2.588908e-09) (-3.156268e-09 -1.236785e-10 -5.441295e-10)) ((3.171486e-09 -5.586257e-13 1.464287e-14) (8.506401e-06 -1.567607e-11 4.153197e-12))
0.581959      	((-6.237087e-08 1.407844e-08 4.958488e-09) (-4.075270e-09 -6.631786e-11 -4.117758e-10)) ((2.829365e-09 -2.256292e-13 2.978072e-13) (7.608577e-06 -1.596254e-11 6.051958e-12))
0.710351      	((-4.521330e-08 1.469647e-08 5.867196e-09) (-2.621830e-10 -5.639711e-11 -4.844398e-10)) ((2.494971e-09 -4.806775e-13 6.788360e-13) (6.823154e-06 -1.297259e-11 6.215683e-12))
0.864421      	((-2.130324e-08 2.310257e-08 1.282074e-09) (3.542967e-10 1.145696e-10 -7.505522e-10)) ((2.178806e-09 -2.392607e-13 4.368774e-13) (6.137012e-06 -6.499188e-12 4.554773e-12))
1.049306      	((-1.017016e-08 1.772231e-08 -5.746983e-09) (-7.207498e-10 2.226035e-10 -9.306853e-10)) ((1.921847e-09 -5.698667e-13 7.870185e-13) (5.534623e-06 -1.930443e-13 7.051639e-12))
1.271167      	((1.096521e-08 3.347373e-08 2.743581e-09) (2.522066e-09 5.199876e-12 -3.229565e-10)) ((1.727201e-09 6.436633e-13 -3.977690e-13) (5.003416e-06 2.412291e-13 1.897377e-11))
1.5374        	((-6.328296e-09 4.537586e-08 2.013405e-08) (2.030064e-09 1.905672e-10 1.198953e-09)) ((1.572206e-09 1.875627e-12 -1.771368e-12) (4.535664e-06 -2.829295e-12 3.871304e-11))
1.85688       	((1.555386e-08 6.645436e-08 3.097654e-08) (2.169220e-09 1.219747e-09 2.641513e-09)) ((1.439814e-09 2.683824e-12 -2.330534e-12) (4.126711e-06 -1.913616e-11 4.923342e-11))
2.240256      	((4.742986e-09 4.979571e-08 1.992405e-08) (2.823529e-09 1.621405e-09 2.882981e-09)) ((1.309698e-09 2.007934e-12 -1.641628e-12) (3.772170e-06 -4.085879e-11 4.725129e-11))
2.700307      	((8.866489e-09 4.182004e-08 1.726655e-08) (-9.107192e-10 2.896180e-09 2.302767e-09)) ((1.187212e-09 6.650775e-13 -8.567440e-13) (3.465882e-06 -6.193689e-11 2.878894e-11))
3.252369      	((1.066764e-08 1.866159e-08 1.373504e-08) (-1.267189e-09 5.566314e-09 -1.130249e-09)) ((1.067575e-09 -2.144469e-14 -3.483911e-13) (3.200117e-06 -1.008797e-10 -6.477150e-12))
3.914842      	((1.402643e-08 1.703382e-08 2.176669e-08) (5.229616e-10 1.070415e-08 -2.920928e-09)) ((9.585464e-10 4.538410e-13 -1.133681e-12) (2.966975e-06 -1.518613e-10 -4.505195e-11))
4.709811      	((1.071496e-08 2.287908e-08 2.447981e-08) (2.165620e-09 1.509707e-08 -4.160349e-09)) ((8.565216e-10 -1.025689e-13 -7.898531e-13) (2.760021e-06 -2.017964e-10 -7.438362e-11))
5.663773      	((1.080114e-08 1.677514e-08 2.132544e-08) (1.199629e-09 1.781442e-08 -5.283546e-09)) ((7.648875e-10 -7.449954e-13 -7.864337e-13) (2.574597e-06 -2.211488e-10 -1.018104e-10))
6.808528      	((-5.138258e-10 1.461553e-08 1.548307e-08) (-1.219811e-09 1.904287e-08 -5.895326e-09)) ((6.872276e-10 -1.141023e-12 -7.881548e-13) (2.407156e-06 -1.895095e-10 -1.293705e-10))
8.182233      	((3.264372e-09 7.506832e-09 1.136564e-08) (-5.625344e-09 1.739722e-08 -5.349218e-09)) ((6.213445e-10 -1.603125e-12 -4.354968e-13) (2.255064e-06 -1.418278e-10 -1.392883e-10))
9.83068       	((-3.066822e-09 1.127347e-08 1.108555e-08) (-6.286196e-09 1.471757e-08 -5.842201e-09)) ((5.609078e-10 -1.761458e-12 -1.323873e-13) (2.116620e-06 -9.480142e-11 -1.422118e-10))
11.808816     	((-2.345334e-09 5.640372e-09 2.001188e-09) (-3.756744e-09 1.239647e-08 -7.571651e-09)) ((5.132156e-10 -1.433695e-12 1.383911e-15) (1.991027e-06 -4.613164e-11 -1.586273e-10))
14.182579     	((-4.551984e-09 5.832916e-09 -7.494175e-10) (-3.964727e-09 1.268808e-08 -5.545029e-09)) ((4.753767e-10 -1.157301e-12 -1.086393e-13) (1.878395e-06 1.036527e-11 -1.814938e-10))
17.016017     	((-4.730612e-09 -1.826674e-09 7.315656e-10) (-4.768864e-09 1.320704e-08 -3.333414e-09)) ((4.445380e-10 -1.265558e-12 1.325876e-14) (1.779414e-06 7.244757e-11 -1.944463e-10))
20.321479     	((-7.777648e-09 -4.336169e-09 -5.754471e-10) (-5.255867e-09 1.287211e-08 -3.764294e-09)) ((4.186012e-10 -1.195798e-12 -6.943933e-14) (1.695314e-06 1.364378e-10 -1.947544e-10))
24.112312     	((-4.768582e-09 -1.819110e-09 8.642964e-11) (-5.760857e-09 1.265379e-08 -4.816279e-09)) ((3.975809e-10 -1.202077e-12 -5.803538e-14) (1.625855e-06 1.949746e-10 -1.829456e-10))
28.402391     	((-1.601132e-09 -6.383198e-09 -3.127673e-09) (-5.289785e-09 1.311502e-08 -5.366271e-09)) ((3.797560e-10 -1.021883e-12 -1.913592e-13) (1.570064e-06 2.335728e-10 -1.619256e-10))
33.203381     	((-1.905407e-09 -3.922409e-09 -8.624944e-09) (-3.862944e-09 1.291937e-08 -5.318061e-09)) ((3.634447e-10 -7.779235e-13 -2.230679e-13) (1.526712e-06 2.502559e-10 -1.434384e-10))
38.311972     	((-4.164917e-09 -2.144237e-09 -2.599900e-09) (-2.491089e-09 1.311891e-08 -5.368222e-09)) ((3.508142e-10 -8.014841e-13 -2.816084e-13) (1.495632e-06 2.344118e-10 -1.256946e-10))
43.419961     	((-4.123269e-09 1.415553e-08 1.392376e-08) (-1.012938e-09 1.283666e-08 -4.215133e-09)) ((3.429251e-10 -6.650969e-13 -5.781614e-13) (1.476054e-06 2.178743e-10 -1.221139e-10))
48.527312     	((-4.684780e-09 1.714527e-08 1.874704e-08) (-1.656434e-09 1.296351e-08 -1.564850e-09)) ((3.377646e-10 -4.604141e-13 -8.531555e-13) (1.466277e-06 2.013300e-10 -1.223450e-10))
53.63395      	((-4.920459e-09 2.747365e-08 3.112004e-08) (-2.346355e-09 1.214645e-08 -1.024412e-09)) ((3.329911e-10 -2.747831e-13 -1.078884e-12) (1.465287e-06 2.015888e-10 -1.289596e-10))
58.739738     	((-4.525925e-09 2.148593e-08 3.056850e-08) (-8.952138e-10 9.703418e-09 -1.333417e-09)) ((3.305241e-10 -1.264930e-13 -1.137197e-12) (1.472205e-06 2.106128e-10 -1.252362e-10))
63.844647     	((-5.547269e-09 1.846387e-08 3.191493e-08) (-8.500016e-11 7.249694e-09 5.475922e-10)) ((3.317607e-10 2.082242e-14 -1.143366e-12) (1.486330e-06 2.231058e-10 -1.112530e-10))
68.948654     	((-4.729492e-09 9.968490e-09 2.477849e-08) (4.929024e-10 4.689385e-09 2.003783e-09)) ((3.343994e-10 2.063111e-14 -9.604900e-13) (1.506940e-06 2.442783e-10 -9.158650e-11))
73.997157     	((-7.982693e-09 1.038164e-08 2.481116e-08) (5.762703e-10 2.866579e-09 3.330411e-09)) ((3.402637e-10 -3.983602e-14 -6.757376e-13) (1.533076e-06 2.570303e-10 -6.959303e-11))
78.944715     	((-6.632777e-09 5.805830e-09 1.198055e-08) (5.698423e-10 6.156195e-10 3.014072e-09)) ((3.462753e-10 -1.436333e-13 -3.938338e-13) (1.563384e-06 2.602921e-10 -5.012452e-11))
83.797886     	((-8.091011e-09 8.230686e-09 1.068242e-08) (5.373319e-10 -8.204239e-10 2.050982e-09)) ((3.546743e-10 -1.378904e-13 -1.796384e-13) (1.595919e-06 2.444982e-10 -2.927391e-11))
88.565765     	((-7.754107e-09 5.013750e-09 -1.717540e-09) (3.788500e-10 -7.536673e-10 8.598998e-10)) ((3.643232e-10 -2.152782e-13 1.639899e-14) (1.628297e-06 2.180516e-10 -1.695596e-11))
93.259433     	((-1.027698e-08 9.915938e-09 -8.375396e-09) (1.519343e-10 4.390069e-10 -2.683818e-10)) ((3.735349e-10 -3.919219e-13 1.357340e-13) (1.658054e-06 1.941633e-10 -1.710961e-11))
97.890532     	((-1.664541e-08 8.035251e-09 -1.033537e-08) (7.686853e-10 2.717552e-09 4.613255e-10)) ((3.839080e-10 -5.293333e-13 2.035042e-13) (1.683242e-06 1.843767e-10 -3.710844e-11))
102.471989    	((-1.398154e-08 7.976237e-09 -1.083118e-08) (3.035085e-09 4.111882e-09 4.589905e-10)) ((3.930877e-10 -6.327092e-13 2.838135e-13) (1.702771e-06 2.099686e-10 -7.920326e-11))
107.016745    	((-1.390582e-08 5.328388e-09 -2.796894e-09) (4.467720e-09 5.050350e-09 7.814994e-10)) ((3.996675e-10 -6.305211e-13 2.046973e-13) (1.716105e-06 2.443856e-10 -1.164424e-10))
111.496661    	((-6.292956e-09 3.256838e-09 -2.416766e-09) (5.041930e-09 6.752559e-09 2.266720e-09)) ((4.037417e-10 -7.362801e-13 1.995381e-13) (1.723303e-06 2.650491e-10 -1.305790e-10))
115.919383    	((-1.012010e-08 4.247377e-09 9.146391e-09) (4.309996e-09 7.929347e-09 3.571351e-09)) ((4.046399e-10 -7.107314e-13 8.872078e-14) (1.725218e-06 2.696716e-10 -1.258136e-10))
120.305128    	((-3.150351e-09 1.465184e-09 1.830016e-08) (2.164212e-09 8.865919e-09 5.152621e-09)) ((4.053831e-10 -7.697987e-13 9.853959e-14) (1.722867e-06 2.633869e-10 -1.078328e-10))
