# Forces      
# CofR        : (0.000000e+00 0.000000e+00 0.000000e+00)
# Time        forces(pressure viscous)	moments(pressure viscous)
0             	((0.000000e+00 0.000000e+00 0.000000e+00) (0.000000e+00 0.000000e+00 0.000000e+00)) ((0.000000e+00 0.000000e+00 0.000000e+00) (0.000000e+00 0.000000e+00 0.000000e+00))
0.012         	((4.774551e-11 -1.133257e-08 -2.323990e-11) (1.329653e-13 -2.877955e-10 9.505149e-13)) ((2.982651e-15 -2.116334e-15 2.577775e-10) (-1.240780e-15 2.344420e-14 3.509039e-07))
0.0264        	((1.473758e-10 -1.660880e-09 1.029827e-13) (5.831905e-13 -4.250519e-10 1.717225e-12)) ((-2.237417e-15 2.259019e-14 1.182393e-10) (-3.510891e-16 6.490626e-14 3.214341e-07))
0.04368       	((1.186000e-10 -5.281502e-09 -8.342508e-11) (5.040925e-13 -4.479970e-10 2.449128e-12)) ((4.674073e-15 2.752143e-14 6.447551e-11) (1.710309e-16 1.160678e-13 2.911321e-07))
0.064416      	((1.833660e-10 7.384379e-10 7.262309e-11) (-4.679732e-13 -3.870014e-10 4.039207e-12)) ((-1.241140e-15 1.472252e-14 3.472295e-11) (7.531921e-15 1.815041e-13 2.606717e-07))
0.0892992     	((-7.138483e-11 -2.340665e-09 -6.540577e-11) (-1.038577e-12 -3.219730e-10 6.184850e-12)) ((7.257308e-15 3.766388e-14 2.606105e-11) (2.328522e-14 2.634148e-13 2.309484e-07))
0.119159      	((6.055492e-11 4.230491e-10 -1.116117e-11) (-1.317114e-12 -2.622132e-10 7.346454e-12)) ((2.508936e-16 2.754914e-14 1.950020e-11) (3.089092e-14 3.063755e-13 2.028860e-07))
0.154991      	((-3.590253e-11 -1.162151e-09 1.795043e-11) (-2.234504e-12 -2.374821e-10 7.592433e-12)) ((3.676390e-15 2.069681e-14 1.594820e-11) (4.205883e-14 3.202345e-13 1.771339e-07))
0.197989      	((-1.016068e-11 -3.720710e-10 2.877532e-12) (-2.609255e-12 -2.072526e-10 7.508279e-12)) ((5.304449e-15 1.751090e-14 1.307572e-11) (5.613222e-14 3.235696e-13 1.543053e-07))
0.249587      	((-2.795271e-11 -9.185070e-10 -3.060828e-11) (-2.807206e-12 -1.845674e-10 7.767959e-12)) ((3.903632e-15 1.923183e-14 1.077428e-11) (5.453494e-14 3.165037e-13 1.347297e-07))
0.311504      	((1.185438e-12 -5.399712e-10 -1.192994e-11) (-1.904074e-12 -1.698302e-10 8.599973e-12)) ((2.566349e-15 1.224980e-14 8.770868e-12) (3.812986e-14 3.057863e-13 1.183574e-07))
0.385805      	((8.844534e-11 -4.379388e-10 3.837316e-12) (-7.296687e-13 -1.618892e-10 9.207100e-12)) ((1.127445e-15 4.608905e-15 7.228325e-12) (1.483645e-14 3.039551e-13 1.048353e-07))
0.474966      	((1.022131e-10 -4.273361e-10 -8.683621e-12) (-9.003663e-13 -1.587533e-10 8.912122e-12)) ((8.298374e-16 2.449212e-15 6.183946e-12) (1.425990e-14 2.968139e-13 9.363306e-08))
0.581959      	((7.997614e-11 -3.007484e-10 -9.372481e-12) (-2.996421e-12 -1.446065e-10 7.230307e-12)) ((2.635327e-15 -3.725986e-15 5.246375e-12) (4.460835e-15 1.909359e-13 8.420492e-08))
0.710351      	((1.207112e-10 -2.270035e-10 5.364418e-12) (-6.269553e-12 -1.226470e-10 4.624813e-12)) ((-3.106216e-15 -8.039195e-15 4.342497e-12) (-7.318511e-15 2.705323e-14 7.610101e-08))
0.864421      	((1.127163e-10 -4.348388e-10 1.333619e-11) (-1.139608e-11 -1.190284e-10 1.692530e-12)) ((-3.571605e-15 -1.507165e-14 3.718970e-12) (1.027658e-15 -1.132488e-13 6.900273e-08))
1.049306      	((1.704798e-10 -6.541097e-10 1.446196e-11) (-1.150311e-11 -1.112110e-10 -5.120502e-13)) ((-4.988335e-15 -2.008772e-14 3.343971e-12) (1.462191e-14 -1.714959e-13 6.269689e-08))
1.271167      	((1.956673e-10 -6.954844e-10 -7.788507e-12) (-1.412168e-11 -9.713919e-11 -3.449635e-12)) ((-7.657092e-15 -1.937183e-14 3.050927e-12) (4.691203e-14 -1.697073e-13 5.703801e-08))
1.5374        	((2.670391e-10 -7.863005e-10 1.264717e-11) (-1.764908e-11 -1.029953e-10 -7.149416e-12)) ((-9.109818e-15 -3.065101e-14 2.810717e-12) (1.820490e-13 -1.084613e-13 5.193249e-08))
1.85688       	((2.616641e-10 -1.017137e-09 1.618171e-11) (-2.345522e-11 -1.186508e-10 -7.020052e-12)) ((-1.029259e-14 -3.242620e-14 2.617805e-12) (3.991485e-13 1.261978e-13 4.732868e-08))
2.240256      	((2.133967e-10 -7.352515e-10 -3.648032e-15) (-3.550648e-11 -1.128545e-10 -5.288471e-12)) ((-1.095826e-14 -3.463208e-14 2.537649e-12) (6.972551e-13 5.010960e-13 4.320090e-08))
2.700307      	((2.046204e-10 -4.923051e-10 3.591110e-12) (-5.543337e-11 -8.412172e-11 -5.632729e-12)) ((-9.818745e-15 -3.406814e-14 2.448660e-12) (1.111114e-12 9.431111e-13 3.953038e-08))
3.252369      	((1.685666e-10 -3.472593e-10 -2.468941e-12) (-7.443739e-11 -4.976886e-11 -7.965177e-12)) ((-7.439391e-15 -2.995739e-14 2.309027e-12) (1.565415e-12 1.339191e-12 3.629011e-08))
3.914842      	((1.538165e-10 -1.941093e-10 -4.221175e-12) (-8.704286e-11 -2.673183e-11 -5.285566e-12)) ((-9.125570e-15 -2.383445e-14 2.114078e-12) (1.901172e-12 1.694710e-12 3.343902e-08))
4.709811      	((1.087424e-11 -1.402315e-10 -5.360552e-12) (-9.856246e-11 7.612935e-12 -1.468380e-12)) ((-7.282415e-15 -1.714538e-14 1.898458e-12) (2.102201e-12 1.952228e-12 3.092541e-08))
5.663773      	((4.082695e-12 2.835105e-11 1.001124e-11) (-1.064949e-10 5.045319e-11 3.633991e-12)) ((-7.467413e-15 -9.689633e-15 1.704275e-12) (2.106455e-12 2.064743e-12 2.869106e-08))
6.808528      	((1.237035e-11 9.397576e-11 -6.178350e-12) (-1.016799e-10 6.761402e-11 4.584421e-12)) ((-6.380881e-15 -4.543028e-15 1.529377e-12) (1.950985e-12 1.949694e-12 2.668105e-08))
8.182233      	((-3.942985e-11 1.080044e-10 -2.938958e-12) (-8.631813e-11 6.078110e-11 4.230555e-13)) ((-2.961010e-15 -2.602422e-15 1.377058e-12) (1.724934e-12 1.604716e-12 2.485437e-08))
9.83068       	((-1.741814e-11 2.723287e-11 -1.116511e-11) (-7.811216e-11 4.000782e-11 -2.626644e-12)) ((-7.392980e-16 2.514073e-15 1.255536e-12) (1.477598e-12 1.263902e-12 2.318192e-08))
11.808816     	((-1.754622e-12 -2.447397e-11 -8.611683e-12) (-6.893693e-11 1.673706e-11 -2.731979e-12)) ((2.704573e-15 5.297259e-15 1.156534e-12) (1.177648e-12 9.526966e-13 2.164393e-08))
14.182579     	((-8.635832e-12 -4.456114e-11 6.746965e-13) (-5.657104e-11 6.582182e-12 2.433245e-14)) ((3.324472e-15 1.030862e-14 1.076376e-12) (8.963954e-13 7.656564e-13 2.022704e-08))
17.031095     	((2.434247e-12 -4.064844e-11 -1.229776e-11) (-4.602187e-11 -1.722350e-12 3.684054e-13)) ((3.996003e-15 1.226464e-14 1.014640e-12) (6.880055e-13 5.612657e-13 1.892355e-08))
20.449314     	((5.313889e-12 -5.453426e-11 -5.104323e-12) (-3.731989e-11 -5.957552e-12 -1.022099e-12)) ((4.169385e-15 1.273418e-14 9.621929e-13) (5.227928e-13 3.063895e-13 1.772883e-08))
24.551176     	((2.094949e-11 -5.345214e-11 -7.862662e-12) (-2.785694e-11 -2.512505e-12 -3.690748e-12)) ((4.361142e-15 1.191021e-14 9.158112e-13) (4.284105e-13 2.040238e-13 1.663756e-08))
29.473411     	((2.620789e-11 -3.218703e-11 -1.314354e-11) (-1.874441e-11 4.135642e-12 -5.014013e-12)) ((3.710626e-15 1.004249e-14 8.755706e-13) (3.817613e-13 1.907469e-13 1.564305e-08))
35.380094     	((2.035712e-11 -5.220860e-11 -9.260130e-12) (-1.349065e-11 8.076637e-12 -3.516239e-12)) ((4.395499e-15 9.590858e-15 8.408850e-13) (3.463096e-13 2.245753e-13 1.473658e-08))
42.468112     	((1.792203e-11 -4.464341e-11 -7.024536e-12) (-1.094378e-11 1.098208e-11 -2.657386e-12)) ((4.155223e-15 8.961438e-15 8.135064e-13) (3.176182e-13 2.522539e-13 1.391026e-08))
50.973735     	((6.498280e-13 -4.584959e-11 -4.167458e-12) (-1.000460e-11 1.455363e-11 -1.868782e-12)) ((4.037936e-15 7.945347e-15 7.888455e-13) (3.067521e-13 2.831155e-13 1.315742e-08))
61.180482     	((1.031120e-11 -3.817654e-11 -1.151258e-11) (-8.449761e-12 1.943924e-11 -1.952181e-12)) ((3.684488e-15 7.258300e-15 7.677955e-13) (3.269468e-13 3.120142e-13 1.247189e-08))
73.428578     	((1.136015e-11 -4.107500e-11 -7.705033e-12) (-5.397018e-12 2.527518e-11 -1.863458e-12)) ((3.651624e-15 6.510180e-15 7.522175e-13) (3.539582e-13 3.390265e-13 1.184824e-08))
88.126294     	((3.282715e-12 -3.670455e-11 -7.923954e-12) (-4.155943e-12 3.108583e-11 -1.434077e-12)) ((3.631672e-15 5.847531e-15 7.364874e-13) (3.686924e-13 3.711347e-13 1.128170e-08))
105.763553    	((-8.248416e-12 -4.606513e-11 -5.572943e-12) (-4.822092e-12 3.383506e-11 -5.929545e-13)) ((3.529485e-15 5.391203e-15 7.222183e-13) (3.634566e-13 3.947865e-13 1.076806e-08))
126.928263    	((-8.181692e-12 -5.284492e-11 -4.724861e-12) (-4.271852e-12 3.531876e-11 9.986878e-14)) ((3.627325e-15 4.403641e-15 7.108216e-13) (3.542724e-13 3.923562e-13 1.030298e-08))
152.325916    	((-5.708764e-12 -5.067187e-11 -2.366542e-12) (-4.169445e-12 3.837685e-11 2.348132e-13)) ((3.684808e-15 3.514176e-15 7.006485e-13) (3.519698e-13 3.712039e-13 9.881910e-09))
182.803099    	((-2.215615e-11 -4.804018e-11 1.658853e-13) (-4.749761e-12 3.859238e-11 3.096429e-13)) ((3.839991e-15 2.855169e-15 6.908622e-13) (3.384184e-13 3.647142e-13 9.500406e-09))
219.375719    	((-3.040763e-11 -4.299792e-11 1.595473e-12) (-6.215563e-12 3.684050e-11 6.013831e-13)) ((3.740309e-15 2.663694e-15 6.807439e-13) (2.929762e-13 3.812535e-13 9.154364e-09))
263.262863    	((-2.612787e-11 -3.622416e-11 2.330184e-12) (-7.823606e-12 3.428399e-11 9.530241e-13)) ((3.218797e-15 2.389114e-15 6.708813e-13) (2.535824e-13 4.015102e-13 8.840180e-09))
315.927436    	((-2.000739e-11 -2.883839e-11 2.700522e-12) (-9.305407e-12 3.272205e-11 1.350843e-12)) ((2.929484e-15 2.183225e-15 6.613183e-13) (2.245575e-13 4.122580e-13 8.554778e-09))
379.124923    	((-1.301960e-11 -2.380026e-11 2.570498e-12) (-9.746322e-12 3.205902e-11 1.587536e-12)) ((2.638335e-15 2.206670e-15 6.514575e-13) (2.013820e-13 4.178195e-13 8.295685e-09))
454.961908    	((-6.221923e-12 -1.459111e-11 2.504372e-12) (-1.025792e-11 3.241817e-11 1.583495e-12)) ((2.200759e-15 2.426948e-15 6.415779e-13) (1.874212e-13 4.081934e-13 8.061103e-09))
545.966289    	((-3.491569e-12 -6.825181e-12 3.090837e-12) (-1.095919e-11 3.151917e-11 1.298178e-12)) ((1.847073e-15 2.724669e-15 6.331546e-13) (1.964858e-13 3.876213e-13 7.849487e-09))
655.171547    	((-1.993028e-12 -4.136464e-12 4.135763e-12) (-1.086508e-11 3.023002e-11 1.015310e-12)) ((1.562514e-15 2.720765e-15 6.254380e-13) (2.119830e-13 3.562653e-13 7.659339e-09))
786.217856    	((-6.699436e-12 -5.911457e-12 2.762769e-12) (-1.081970e-11 2.805118e-11 7.462771e-13)) ((1.454192e-15 2.508654e-15 6.182540e-13) (2.259479e-13 3.435136e-13 7.489127e-09))
943.473427    	((-1.034270e-11 -9.336476e-12 3.155835e-12) (-9.670434e-12 2.572246e-11 5.456386e-13)) ((1.551515e-15 2.496555e-15 6.118509e-13) (2.357330e-13 3.327387e-13 7.337364e-09))
1132.180113   	((-9.279194e-12 -9.499801e-12 2.247999e-12) (-8.589462e-12 2.364679e-11 3.717068e-13)) ((1.741471e-15 2.643668e-15 6.059770e-13) (2.334037e-13 3.201388e-13 7.202703e-09))
1358.628135   	((-7.906777e-12 -9.871657e-12 9.733526e-13) (-7.700282e-12 2.237370e-11 2.233408e-13)) ((1.803196e-15 2.718839e-15 6.010694e-13) (2.203915e-13 3.099290e-13 7.083909e-09))
1625.673899   	((-7.540768e-12 -1.031832e-11 2.535650e-12) (-6.400910e-12 2.202494e-11 1.627839e-13)) ((1.848317e-15 2.767774e-15 5.972040e-13) (2.015541e-13 2.992399e-13 6.979859e-09))
1933.318923   	((-5.505059e-12 -1.101883e-11 1.849439e-12) (-5.300129e-12 2.265206e-11 1.778623e-13)) ((1.854202e-15 2.852131e-15 5.938017e-13) (1.795309e-13 2.873774e-13 6.889377e-09))
2281.565175   	((-2.579795e-12 -1.165341e-11 4.463305e-13) (-3.628371e-12 2.335512e-11 1.677166e-13)) ((1.822538e-15 2.902984e-15 5.905736e-13) (1.609285e-13 2.730517e-13 6.811263e-09))
2670.414933   	((-4.720144e-13 -1.162056e-11 9.066117e-13) (-1.936782e-12 2.387524e-11 1.285417e-13)) ((1.724886e-15 2.932526e-15 5.877983e-13) (1.474689e-13 2.594457e-13 6.744193e-09))
3076.474514   	((1.181798e-12 -1.201904e-11 1.240097e-12) (-6.849679e-13 2.389104e-11 1.880450e-13)) ((1.637086e-15 2.983418e-15 5.854781e-13) (1.395155e-13 2.459543e-13 6.687080e-09))
3482.558628   	((2.685490e-12 -1.176876e-11 1.069495e-12) (3.809736e-13 2.371304e-11 2.901561e-13)) ((1.570877e-15 3.019968e-15 5.835341e-13) (1.326849e-13 2.329100e-13 6.638736e-09))
3888.666488   	((4.062733e-12 -1.183293e-11 9.178417e-13) (1.268124e-12 2.343027e-11 3.715414e-13)) ((1.548967e-15 3.065340e-15 5.819017e-13) (1.295445e-13 2.207494e-13 6.597942e-09))
4294.796985   	((5.047575e-12 -1.178195e-11 9.800171e-13) (2.115346e-12 2.308740e-11 4.014096e-13)) ((1.541783e-15 3.083120e-15 5.804986e-13) (1.264500e-13 2.096551e-13 6.563521e-09))
4700.948146   	((5.907969e-12 -1.198711e-11 1.011567e-12) (2.757613e-12 2.266242e-11 3.988126e-13)) ((1.547968e-15 3.099072e-15 5.792792e-13) (1.234743e-13 2.007831e-13 6.534446e-09))
5107.118446   	((6.626933e-12 -1.203114e-11 1.122914e-12) (3.296392e-12 2.222099e-11 3.823189e-13)) ((1.534852e-15 3.108377e-15 5.782440e-13) (1.200327e-13 1.921010e-13 6.509841e-09))
5513.306283   	((6.926059e-12 -1.207829e-11 1.267106e-12) (3.789384e-12 2.183180e-11 3.500021e-13)) ((1.522418e-15 3.114393e-15 5.773590e-13) (1.160241e-13 1.840967e-13 6.488980e-09))
5919.509918   	((7.355545e-12 -1.212778e-11 1.091155e-12) (4.277507e-12 2.156031e-11 3.239082e-13)) ((1.511959e-15 3.109614e-15 5.766219e-13) (1.131654e-13 1.766115e-13 6.471258e-09))
6325.72768    	((7.804694e-12 -1.242006e-11 9.447710e-13) (4.766964e-12 2.134896e-11 3.060126e-13)) ((1.495786e-15 3.099755e-15 5.760454e-13) (1.105071e-13 1.692564e-13 6.456174e-09))
6731.957999   	((8.146016e-12 -1.244718e-11 7.850702e-13) (5.246242e-12 2.123933e-11 2.932313e-13)) ((1.485067e-15 3.086312e-15 5.754819e-13) (1.076875e-13 1.630986e-13 6.443306e-09))
7138.199389   	((8.417491e-12 -1.277492e-11 6.770494e-13) (5.677549e-12 2.116100e-11 3.100968e-13)) ((1.472585e-15 3.080194e-15 5.750006e-13) (1.044510e-13 1.577752e-13 6.432311e-09))
7544.450516   	((8.580745e-12 -1.299757e-11 6.030717e-13) (6.017291e-12 2.116282e-11 3.462243e-13)) ((1.461385e-15 3.071746e-15 5.745951e-13) (1.012054e-13 1.530834e-13 6.422902e-09))
7950.710165   	((8.554281e-12 -1.304829e-11 7.514179e-13) (6.246517e-12 2.119196e-11 3.969919e-13)) ((1.458703e-15 3.072480e-15 5.742488e-13) (9.826580e-14 1.492172e-13 6.414838e-09))
8356.977282   	((8.442622e-12 -1.305895e-11 7.565694e-13) (6.445644e-12 2.119751e-11 4.337110e-13)) ((1.451917e-15 3.075274e-15 5.739518e-13) (9.562783e-14 1.459464e-13 6.407919e-09))
8763.25095    	((8.368251e-12 -1.304070e-11 7.541422e-13) (6.620092e-12 2.120033e-11 4.575899e-13)) ((1.450626e-15 3.075928e-15 5.736987e-13) (9.377358e-14 1.433058e-13 6.401976e-09))
9169.530357   	((8.276960e-12 -1.298664e-11 7.309576e-13) (6.762038e-12 2.120543e-11 4.712657e-13)) ((1.450288e-15 3.072286e-15 5.734836e-13) (9.267217e-14 1.412130e-13 6.396867e-09))
9575.814781   	((8.200510e-12 -1.293110e-11 7.653411e-13) (6.868074e-12 2.120578e-11 4.833621e-13)) ((1.452203e-15 3.067491e-15 5.733016e-13) (9.204545e-14 1.394131e-13 6.392471e-09))
