# Forces      
# CofR        : (0.000000e+00 0.000000e+00 0.000000e+00)
# Time        forces(pressure viscous)	moments(pressure viscous)
0             	((0.000000e+00 0.000000e+00 0.000000e+00) (6.118477e-13 -1.004933e-02 1.453957e-12)) ((0.000000e+00 0.000000e+00 0.000000e+00) (-3.281185e-14 1.815568e-15 3.163172e-09))
0.012         	((1.374967e-05 -2.958500e+00 1.409942e-05) (-8.073896e-10 -1.282948e-02 -5.105636e-08)) ((4.670214e-10 -3.188227e-11 5.301183e-07) (2.850669e-09 1.574948e-12 -2.626363e-09))
0.0264        	((7.825716e-06 6.958965e-01 9.518030e-06) (-1.179100e-08 -1.274880e-02 -1.144339e-07)) ((-1.381928e-08 -4.870901e-10 -6.100515e-08) (-4.503646e-09 -2.538527e-11 -1.039365e-08))
0.04368       	((1.079026e-05 3.079201e-01 2.028965e-05) (-7.562028e-08 -1.077945e-02 -7.331170e-08)) ((8.868589e-09 8.036014e-10 -1.246603e-07) (-3.467476e-09 -2.542246e-11 -2.559381e-08))
0.064416      	((-2.881548e-05 1.807324e-03 -3.520083e-05) (-1.066308e-06 -9.519407e-03 -6.694073e-08)) ((4.676294e-12 -1.272576e-10 1.225458e-08) (3.178666e-09 3.339192e-12 -2.868996e-08))
0.0892992     	((-5.187593e-05 1.274743e-03 -1.658970e-05) (-2.887379e-06 -8.752859e-03 -1.408814e-07)) ((-1.135420e-09 -2.903356e-10 -6.337292e-09) (3.344358e-09 -1.171912e-10 -2.983853e-08))
0.119159      	((-8.916474e-05 -1.439205e-03 -4.452450e-06) (-4.193566e-06 -8.121293e-03 -1.673777e-07)) ((-8.962022e-10 -4.093361e-10 -6.696131e-09) (2.815988e-09 -3.676513e-10 -4.387796e-08))
0.154991      	((-6.652862e-05 -3.785533e-03 -2.907216e-06) (-5.106450e-06 -7.605236e-03 -4.013422e-08)) ((-2.482396e-10 -1.860927e-10 -1.440863e-09) (2.702682e-09 -2.896382e-10 -6.737772e-08))
0.197989      	((-7.139964e-05 -4.710589e-03 2.314869e-07) (-5.244357e-06 -7.196530e-03 9.662657e-08)) ((1.561630e-10 -3.327081e-11 9.821319e-09) (2.641507e-09 -1.004986e-10 -8.418532e-08))
0.249587      	((-2.295857e-05 -5.321161e-03 -5.204413e-07) (-4.152924e-06 -6.853626e-03 6.056968e-08)) ((-1.377674e-10 -1.306716e-10 9.155852e-09) (3.300866e-09 3.711480e-11 -1.045752e-07))
0.311504      	((-1.746936e-05 -5.804165e-03 -2.541049e-07) (-3.578458e-06 -6.543176e-03 7.374820e-09)) ((-1.672761e-10 3.917729e-12 1.016545e-08) (3.432667e-09 1.970076e-10 -1.168556e-07))
0.385805      	((-1.582208e-05 -6.432312e-03 -1.008404e-06) (-3.456971e-06 -6.255714e-03 -5.646417e-08)) ((-6.763723e-11 -1.657514e-11 1.528341e-08) (2.517605e-09 2.093260e-10 -1.136062e-07))
0.474966      	((-8.538545e-06 -7.232502e-03 -1.689544e-07) (-2.896148e-06 -5.989692e-03 -8.958746e-08)) ((-8.288758e-11 -2.679165e-11 2.024581e-08) (1.509316e-09 1.842121e-10 -1.113182e-07))
0.580718      	((-2.740930e-07 -8.314845e-03 -1.172713e-07) (-2.101589e-06 -5.751037e-03 -7.990750e-08)) ((-1.217557e-10 -4.161299e-11 2.600322e-08) (2.688672e-10 1.507320e-10 -1.171395e-07))
0.703083      	((8.244993e-06 -9.667675e-03 1.479758e-07) (-1.323842e-06 -5.545926e-03 -8.148697e-08)) ((-7.337392e-11 -9.401794e-11 3.269995e-08) (-9.261062e-10 1.786714e-10 -1.284057e-07))
0.842067      	((1.860043e-05 -1.130046e-02 1.024247e-06) (-5.276261e-07 -5.373714e-03 -4.908171e-08)) ((-4.452930e-11 -6.919014e-11 4.087709e-08) (-1.327519e-09 2.574380e-10 -1.451386e-07))
0.997595      	((2.993662e-05 -1.309658e-02 2.434241e-06) (3.679975e-07 -5.233607e-03 -3.012687e-10)) ((7.983108e-11 -4.872969e-11 4.993619e-08) (-8.671002e-10 3.045132e-10 -1.713221e-07))
1.161471      	((3.984780e-05 -1.504166e-02 3.506166e-06) (1.301921e-06 -5.123161e-03 -2.451517e-09)) ((1.367382e-10 -9.427960e-11 5.931406e-08) (4.089958e-10 3.013347e-10 -2.024183e-07))
1.323593      	((5.438294e-05 -1.686340e-02 6.004114e-06) (2.035877e-06 -5.032164e-03 -8.435822e-08)) ((1.940299e-10 -1.467127e-10 6.667040e-08) (4.322525e-09 2.767964e-10 -2.365381e-07))
1.484316      	((6.222990e-05 -1.856316e-02 8.364023e-06) (2.073003e-06 -4.948910e-03 -1.704813e-07)) ((1.567171e-10 -2.450136e-10 7.190911e-08) (1.042074e-08 2.997227e-10 -2.682870e-07))
1.644328      	((7.048138e-05 -1.995091e-02 1.322679e-05) (1.934413e-06 -4.870636e-03 -1.394828e-07)) ((9.442519e-11 -4.080769e-10 7.654944e-08) (1.322965e-08 2.032628e-10 -2.954081e-07))
1.804314      	((8.411605e-05 -2.097236e-02 1.852797e-05) (2.052272e-06 -4.796372e-03 5.590922e-08)) ((7.313924e-11 -4.778223e-10 8.139250e-08) (8.868612e-09 1.607815e-10 -3.178445e-07))
1.96464       	((9.691032e-05 -2.163158e-02 2.278668e-05) (2.229803e-06 -4.728834e-03 2.954375e-07)) ((1.736034e-10 -5.936548e-10 8.507213e-08) (1.944459e-09 1.466274e-10 -3.416348e-07))
2.125036      	((1.045581e-04 -2.186059e-02 2.242082e-05) (2.349388e-06 -4.665641e-03 4.362711e-07)) ((1.635616e-10 -7.056459e-10 8.716298e-08) (-1.693140e-09 2.269536e-10 -3.614183e-07))
2.285045      	((1.177935e-04 -2.179682e-02 2.416337e-05) (2.273040e-06 -4.608544e-03 4.882924e-07)) ((2.414073e-10 -8.313336e-10 8.784221e-08) (-1.520133e-09 5.788689e-11 -3.715064e-07))
2.444482      	((1.251805e-04 -2.147456e-02 2.430313e-05) (2.135302e-06 -4.560707e-03 5.438802e-07)) ((2.864517e-10 -1.058286e-09 8.825102e-08) (-2.004905e-09 1.677285e-10 -3.759005e-07))
2.603448      	((1.381843e-04 -2.106872e-02 2.729862e-05) (2.186192e-06 -4.520525e-03 6.193884e-07)) ((3.847502e-10 -1.226496e-09 8.935659e-08) (-3.977122e-09 1.973161e-10 -3.738887e-07))
2.762136      	((1.571814e-04 -2.067562e-02 3.212270e-05) (2.536983e-06 -4.484980e-03 7.318000e-07)) ((3.743035e-10 -1.360578e-09 9.041159e-08) (-5.743819e-09 2.524719e-11 -3.679842e-07))
2.920607      	((1.778116e-04 -2.035104e-02 3.631028e-05) (2.855669e-06 -4.452369e-03 8.410169e-07)) ((4.264177e-10 -1.227573e-09 9.059693e-08) (-5.903350e-09 4.760776e-11 -3.628440e-07))
3.078833      	((1.938510e-04 -2.024443e-02 3.764041e-05) (3.013069e-06 -4.423131e-03 8.936517e-07)) ((4.333147e-10 -1.051302e-09 9.100618e-08) (-4.687440e-09 4.288533e-10 -3.561115e-07))
3.236793      	((2.161582e-04 -2.020240e-02 3.984534e-05) (3.346814e-06 -4.397093e-03 9.265912e-07)) ((2.570147e-10 -8.968928e-10 9.171395e-08) (-2.420249e-09 3.219731e-10 -3.447926e-07))
3.394504      	((2.327025e-04 -2.009684e-02 4.175189e-05) (3.790471e-06 -4.373018e-03 9.441673e-07)) ((1.488349e-10 -8.680426e-10 9.246720e-08) (1.207322e-09 -3.564988e-11 -3.352028e-07))
3.552009      	((2.562346e-04 -1.993235e-02 4.685399e-05) (4.283208e-06 -4.350066e-03 9.851263e-07)) ((1.258498e-10 -8.003460e-10 9.308737e-08) (4.139535e-09 -3.804178e-10 -3.272579e-07))
3.709348      	((2.881656e-04 -1.969443e-02 5.570570e-05) (4.873213e-06 -4.327663e-03 1.099063e-06)) ((2.371227e-10 -7.385504e-10 9.321581e-08) (5.733425e-09 -9.561344e-10 -3.189304e-07))
3.866539      	((3.207604e-04 -1.941922e-02 6.352364e-05) (5.619491e-06 -4.305679e-03 1.236026e-06)) ((3.344357e-10 -5.988502e-10 9.298007e-08) (8.597749e-09 -1.610597e-09 -3.107479e-07))
4.023591      	((3.605375e-04 -1.918546e-02 7.325357e-05) (6.506337e-06 -4.284740e-03 1.355424e-06)) ((4.296604e-10 -4.323779e-10 9.282701e-08) (1.341176e-08 -1.802005e-09 -3.049910e-07))
4.180516      	((4.114966e-04 -1.904970e-02 8.372455e-05) (7.457169e-06 -4.265882e-03 1.482303e-06)) ((5.812545e-10 -2.071625e-10 9.290050e-08) (1.978324e-08 -1.098820e-09 -3.083326e-07))
4.337324      	((4.649608e-04 -1.898426e-02 9.586645e-05) (8.440860e-06 -4.249607e-03 1.624111e-06)) ((7.181744e-10 1.609783e-10 9.340147e-08) (2.791399e-08 -3.945683e-10 -3.207805e-07))
4.49402       	((5.210438e-04 -1.895301e-02 1.070039e-04) (9.429460e-06 -4.235478e-03 1.785309e-06)) ((8.129023e-10 4.972349e-10 9.424683e-08) (3.611987e-08 7.295660e-11 -3.402638e-07))
4.650612      	((5.837969e-04 -1.891232e-02 1.208480e-04) (1.049160e-05 -4.222811e-03 1.996035e-06)) ((9.381073e-10 7.888582e-10 9.514567e-08) (4.278502e-08 1.029750e-09 -3.622747e-07))
4.807108      	((6.534266e-04 -1.883054e-02 1.386310e-04) (1.175789e-05 -4.210933e-03 2.300433e-06)) ((1.050485e-09 1.052851e-09 9.581023e-08) (4.784238e-08 2.460168e-09 -3.831290e-07))
4.963522      	((7.288293e-04 -1.871908e-02 1.550697e-04) (1.327325e-05 -4.199378e-03 2.659284e-06)) ((1.210114e-09 1.230412e-09 9.628836e-08) (5.282031e-08 3.343568e-09 -4.010973e-07))
5.119858      	((8.166771e-04 -1.859762e-02 1.745396e-04) (1.499207e-05 -4.188185e-03 3.055202e-06)) ((1.434280e-09 1.429946e-09 9.656791e-08) (5.739964e-08 3.098892e-09 -4.203487e-07))
5.27612       	((9.134137e-04 -1.848032e-02 1.918744e-04) (1.687192e-05 -4.177466e-03 3.453012e-06)) ((1.632535e-09 1.641409e-09 9.679371e-08) (6.206099e-08 1.993551e-09 -4.438063e-07))
5.432314      	((1.018937e-03 -1.838764e-02 2.146665e-04) (1.890034e-05 -4.167265e-03 3.886709e-06)) ((1.859014e-09 1.809153e-09 9.698980e-08) (6.696989e-08 7.990276e-10 -4.735378e-07))
5.58844       	((1.133114e-03 -1.831979e-02 2.409730e-04) (2.109419e-05 -4.157650e-03 4.404516e-06)) ((2.083375e-09 1.959951e-09 9.722286e-08) (7.215098e-08 -1.253246e-10 -5.092263e-07))
5.744497      	((1.255964e-03 -1.826606e-02 2.664969e-04) (2.349133e-05 -4.148580e-03 4.974015e-06)) ((2.182428e-09 2.103967e-09 9.746707e-08) (7.836137e-08 -5.303544e-10 -5.492935e-07))
5.900487      	((1.390674e-03 -1.821641e-02 2.937214e-04) (2.612390e-05 -4.139940e-03 5.558754e-06)) ((2.272468e-09 2.189814e-09 9.769912e-08) (8.554978e-08 -7.471196e-10 -5.928273e-07))
6.056408      	((1.532085e-03 -1.816388e-02 3.253383e-04) (2.896362e-05 -4.131657e-03 6.216226e-06)) ((2.405596e-09 2.157714e-09 9.792999e-08) (9.287711e-08 -1.068411e-09 -6.399385e-07))
6.212261      	((1.682828e-03 -1.810308e-02 3.623973e-04) (3.205475e-05 -4.123689e-03 7.006224e-06)) ((2.614097e-09 2.130339e-09 9.811182e-08) (1.000949e-07 -1.287517e-09 -6.895414e-07))
6.368038      	((1.842988e-03 -1.803864e-02 4.023907e-04) (3.543083e-05 -4.116037e-03 7.915273e-06)) ((2.870545e-09 2.092749e-09 9.822485e-08) (1.080709e-07 -1.395180e-09 -7.407034e-07))
6.523741      	((2.017085e-03 -1.797587e-02 4.452756e-04) (3.909383e-05 -4.108673e-03 8.892936e-06)) ((3.118105e-09 1.980879e-09 9.827557e-08) (1.185206e-07 -1.544020e-09 -7.942532e-07))
6.679371      	((2.204112e-03 -1.792103e-02 4.919748e-04) (4.307686e-05 -4.101616e-03 9.914033e-06)) ((3.455757e-09 1.806953e-09 9.826154e-08) (1.323657e-07 -1.565127e-09 -8.506822e-07))
6.834928      	((2.404960e-03 -1.787510e-02 5.429771e-04) (4.742576e-05 -4.094915e-03 1.099625e-05)) ((3.824222e-09 1.567919e-09 9.825273e-08) (1.477020e-07 -1.336453e-09 -9.099320e-07))
6.990414      	((2.622388e-03 -1.783443e-02 5.978540e-04) (5.219360e-05 -4.088575e-03 1.215748e-05)) ((4.251308e-09 1.322934e-09 9.831657e-08) (1.633593e-07 -1.384529e-09 -9.719691e-07))
7.145831      	((2.861785e-03 -1.779366e-02 6.584422e-04) (5.743898e-05 -4.082578e-03 1.340435e-05)) ((4.714282e-09 1.099504e-09 9.843119e-08) (1.812295e-07 -1.657117e-09 -1.036544e-06))
7.301181      	((3.117702e-03 -1.775898e-02 7.257255e-04) (6.317279e-05 -4.076975e-03 1.477393e-05)) ((5.115162e-09 8.327092e-10 9.862348e-08) (2.020088e-07 -2.090485e-09 -1.104392e-06))
7.456465      	((3.397623e-03 -1.772610e-02 7.980008e-04) (6.943412e-05 -4.071756e-03 1.629880e-05)) ((5.479941e-09 5.502800e-10 9.886098e-08) (2.247608e-07 -3.167562e-09 -1.177396e-06))
7.611688      	((3.700125e-03 -1.769891e-02 8.736916e-04) (7.621612e-05 -4.066918e-03 1.795440e-05)) ((5.780865e-09 2.731426e-10 9.908543e-08) (2.494559e-07 -4.775714e-09 -1.259266e-06))
7.766851      	((4.027698e-03 -1.767799e-02 9.528103e-04) (8.350378e-05 -4.062543e-03 1.971900e-05)) ((6.093983e-09 7.443402e-11 9.928082e-08) (2.758837e-07 -6.056042e-09 -1.351886e-06))
7.921958      	((4.384362e-03 -1.766844e-02 1.035834e-03) (9.135502e-05 -4.058756e-03 2.158287e-05)) ((6.378996e-09 -9.059256e-11 9.942674e-08) (3.047340e-07 -6.310035e-09 -1.454290e-06))
8.07701       	((4.777302e-03 -1.766990e-02 1.127439e-03) (9.981657e-05 -4.055525e-03 2.356202e-05)) ((6.747453e-09 -4.445730e-10 9.953819e-08) (3.372280e-07 -6.047456e-09 -1.572600e-06))
8.23201       	((5.208820e-03 -1.767881e-02 1.225861e-03) (1.089143e-04 -4.052792e-03 2.570030e-05)) ((7.164411e-09 -1.008821e-09 9.956511e-08) (3.738267e-07 -5.678831e-09 -1.713935e-06))
8.386959      	((5.696591e-03 -1.768837e-02 1.328053e-03) (1.188181e-04 -4.050473e-03 2.797559e-05)) ((7.516346e-09 -1.628706e-09 9.957470e-08) (4.154540e-07 -5.413007e-09 -1.879048e-06))
8.54186       	((6.244201e-03 -1.771189e-02 1.436101e-03) (1.297878e-04 -4.048575e-03 3.036145e-05)) ((7.896255e-09 -2.450549e-09 9.966783e-08) (4.625235e-07 -5.399681e-09 -2.065732e-06))
8.696716      	((6.854134e-03 -1.775096e-02 1.559582e-03) (1.420158e-04 -4.047166e-03 3.288380e-05)) ((8.375487e-09 -3.333769e-09 9.984380e-08) (5.163935e-07 -6.955662e-09 -2.273044e-06))
8.851529      	((7.533502e-03 -1.780538e-02 1.702128e-03) (1.556122e-04 -4.046331e-03 3.561153e-05)) ((9.001628e-09 -4.292362e-09 1.000587e-07) (5.768114e-07 -1.059822e-08 -2.502765e-06))
9.006303      	((8.297617e-03 -1.788809e-02 1.863814e-03) (1.708066e-04 -4.046309e-03 3.865235e-05)) ((9.905999e-09 -5.464607e-09 1.003405e-07) (6.424800e-07 -1.428089e-08 -2.752939e-06))
9.161038      	((9.123670e-03 -1.799766e-02 2.039657e-03) (1.877306e-04 -4.047280e-03 4.202095e-05)) ((1.075112e-08 -6.643790e-09 1.007456e-07) (7.138346e-07 -1.569951e-08 -3.020875e-06))
9.315737      	((1.002692e-02 -1.814072e-02 2.224610e-03) (2.064760e-04 -4.049450e-03 4.574965e-05)) ((1.143562e-08 -7.821726e-09 1.012387e-07) (7.868343e-07 -1.453054e-08 -3.301279e-06))
9.470398      	((1.101971e-02 -1.832398e-02 2.421326e-03) (2.273846e-04 -4.053056e-03 4.988997e-05)) ((1.237103e-08 -9.044253e-09 1.016717e-07) (8.584892e-07 -1.108601e-08 -3.589121e-06))
9.625018      	((1.210518e-02 -1.855552e-02 2.637280e-03) (2.506750e-04 -4.057987e-03 5.451817e-05)) ((1.377278e-08 -1.045212e-08 1.022441e-07) (9.299746e-07 -5.242384e-09 -3.898369e-06))
9.779584      	((1.329596e-02 -1.884033e-02 2.877096e-03) (2.764809e-04 -4.064294e-03 5.969296e-05)) ((1.547346e-08 -1.232671e-08 1.028487e-07) (1.002381e-06 2.703746e-10 -4.237463e-06))
9.934079      	((1.457118e-02 -1.917684e-02 3.132759e-03) (3.048553e-04 -4.072297e-03 6.540624e-05)) ((1.733314e-08 -1.443422e-08 1.034488e-07) (1.074573e-06 3.971614e-09 -4.600931e-06))
10.088499     	((1.593480e-02 -1.959142e-02 3.410499e-03) (3.361020e-04 -4.082531e-03 7.179587e-05)) ((1.905591e-08 -1.645121e-08 1.040369e-07) (1.146239e-06 6.543279e-09 -4.970357e-06))
10.242837     	((1.737385e-02 -2.010188e-02 3.706040e-03) (3.703829e-04 -4.095445e-03 7.890031e-05)) ((2.057876e-08 -1.829246e-08 1.044888e-07) (1.216021e-06 6.773072e-09 -5.340250e-06))
10.397086     	((1.887892e-02 -2.073600e-02 4.007150e-03) (4.076154e-04 -4.111665e-03 8.650325e-05)) ((2.194636e-08 -2.041353e-08 1.050230e-07) (1.283001e-06 6.219235e-09 -5.717185e-06))
10.55125      	((2.044719e-02 -2.151171e-02 4.321897e-03) (4.474727e-04 -4.131438e-03 9.475309e-05)) ((2.348995e-08 -2.340458e-08 1.055601e-07) (1.343341e-06 5.641147e-09 -6.114050e-06))
10.705354     	((2.204559e-02 -2.242977e-02 4.644801e-03) (4.896196e-04 -4.155046e-03 1.038531e-04)) ((2.512131e-08 -2.693170e-08 1.059240e-07) (1.392645e-06 7.336142e-09 -6.537726e-06))
10.859405     	((2.366863e-02 -2.346245e-02 4.973357e-03) (5.339783e-04 -4.183369e-03 1.137385e-04)) ((2.680679e-08 -3.085606e-08 1.061375e-07) (1.419718e-06 1.482493e-08 -6.954508e-06))
11.013399     	((2.524124e-02 -2.458203e-02 5.287390e-03) (5.803549e-04 -4.217031e-03 1.242422e-04)) ((2.828990e-08 -3.490276e-08 1.063379e-07) (1.422350e-06 2.598943e-08 -7.325074e-06))
11.167326     	((2.670264e-02 -2.577243e-02 5.577137e-03) (6.280953e-04 -4.255853e-03 1.349680e-04)) ((2.943118e-08 -3.830031e-08 1.066816e-07) (1.409981e-06 3.872199e-08 -7.636840e-06))
11.321178     	((2.799027e-02 -2.703860e-02 5.830630e-03) (6.759077e-04 -4.299600e-03 1.453457e-04)) ((2.981667e-08 -4.114728e-08 1.071186e-07) (1.400163e-06 5.202740e-08 -7.902537e-06))
11.474975     	((2.899390e-02 -2.829737e-02 6.021949e-03) (7.222678e-04 -4.347987e-03 1.551307e-04)) ((2.986292e-08 -4.363569e-08 1.077310e-07) (1.394145e-06 6.644215e-08 -8.110766e-06))
11.628765     	((2.967136e-02 -2.944348e-02 6.128355e-03) (7.658358e-04 -4.399590e-03 1.639435e-04)) ((2.974305e-08 -4.515763e-08 1.081298e-07) (1.387915e-06 8.388652e-08 -8.229726e-06))
11.782477     	((2.990975e-02 -3.040450e-02 6.126695e-03) (8.044828e-04 -4.451884e-03 1.710676e-04)) ((2.885947e-08 -4.566621e-08 1.079885e-07) (1.387815e-06 1.016787e-07 -8.273137e-06))
11.936187     	((2.957985e-02 -3.113128e-02 6.007916e-03) (8.360031e-04 -4.502029e-03 1.759597e-04)) ((2.760996e-08 -4.472670e-08 1.066997e-07) (1.393560e-06 1.214183e-07 -8.226219e-06))
12.090087     	((2.861060e-02 -3.149246e-02 5.748151e-03) (8.572450e-04 -4.546882e-03 1.780675e-04)) ((2.554227e-08 -4.174010e-08 1.041510e-07) (1.397207e-06 1.422529e-07 -8.088297e-06))
12.244042     	((2.694111e-02 -3.138775e-02 5.341155e-03) (8.645457e-04 -4.583733e-03 1.768535e-04)) ((2.297140e-08 -3.690310e-08 1.010042e-07) (1.391646e-06 1.693791e-07 -7.876676e-06))
12.398071     	((2.457286e-02 -3.079315e-02 4.803763e-03) (8.545531e-04 -4.610591e-03 1.719440e-04)) ((1.987643e-08 -2.974233e-08 9.826687e-08) (1.376824e-06 2.117074e-07 -7.609734e-06))
12.55221      	((2.144850e-02 -2.977259e-02 4.141608e-03) (8.240049e-04 -4.626071e-03 1.629824e-04)) ((1.534804e-08 -1.963863e-08 9.561791e-08) (1.358916e-06 2.683082e-07 -7.303256e-06))
12.7065       	((1.772571e-02 -2.842221e-02 3.396805e-03) (7.706112e-04 -4.631037e-03 1.499176e-04)) ((9.541387e-09 -9.094418e-09 9.369443e-08) (1.340109e-06 3.327351e-07 -6.988158e-06))
12.860974     	((1.363661e-02 -2.698918e-02 2.563308e-03) (6.964121e-04 -4.627984e-03 1.328525e-04)) ((4.061955e-10 1.388999e-09 9.221516e-08) (1.327991e-06 3.876318e-07 -6.660903e-06))
13.015662     	((9.487593e-03 -2.572251e-02 1.762007e-03) (6.064663e-04 -4.620312e-03 1.128710e-04)) ((-9.459759e-09 9.513060e-09 8.717356e-08) (1.299119e-06 4.177405e-07 -6.278396e-06))
13.17059      	((5.660533e-03 -2.460817e-02 1.036432e-03) (5.056864e-04 -4.609872e-03 9.095610e-05)) ((-1.790443e-08 1.430890e-08 7.591883e-08) (1.258889e-06 4.272686e-07 -5.885522e-06))
13.325774     	((2.422390e-03 -2.374073e-02 4.275503e-04) (4.032626e-04 -4.599929e-03 6.878838e-05)) ((-2.221237e-08 1.522221e-08 6.140887e-08) (1.215963e-06 4.337811e-07 -5.405792e-06))
13.481222     	((-1.841233e-04 -2.316461e-02 -9.899163e-06) (3.047519e-04 -4.592319e-03 4.744034e-05)) ((-2.228932e-08 1.382565e-08 5.212784e-08) (1.208360e-06 4.233938e-07 -4.873187e-06))
13.636936     	((-2.040907e-03 -2.278858e-02 -2.796217e-04) (2.151584e-04 -4.587258e-03 2.877733e-05)) ((-1.968467e-08 1.167399e-08 5.574329e-08) (1.199077e-06 4.133049e-07 -4.307689e-06))
13.79291      	((-3.215240e-03 -2.254593e-02 -4.069391e-04) (1.380852e-04 -4.584826e-03 1.394784e-05)) ((-1.661242e-08 1.072589e-08 6.462683e-08) (1.152010e-06 4.022442e-07 -3.746123e-06))
13.949148     	((-3.871650e-03 -2.236367e-02 -4.278424e-04) (7.383312e-05 -4.584400e-03 3.131997e-06)) ((-1.161474e-08 1.071297e-08 7.208526e-08) (1.077195e-06 3.785666e-07 -3.264063e-06))
14.105637     	((-4.093487e-03 -2.215010e-02 -3.936114e-04) (1.980484e-05 -4.584232e-03 -3.042340e-06)) ((-5.822835e-09 1.197950e-08 7.489670e-08) (9.417258e-07 3.580132e-07 -3.024001e-06))
14.262323     	((-4.061927e-03 -2.187192e-02 -3.124214e-04) (-2.766316e-05 -4.583465e-03 -5.803238e-06)) ((2.277108e-10 1.403941e-08 7.583052e-08) (7.735071e-07 3.498969e-07 -3.155222e-06))
