# Forces      
# CofR        : (0.000000e+00 0.000000e+00 0.000000e+00)
# Time        forces(pressure viscous)	moments(pressure viscous)
0             	((0.000000e+00 0.000000e+00 0.000000e+00) (-2.813616e-15 2.524381e-16 -4.000704e-05)) ((0.000000e+00 0.000000e+00 0.000000e+00) (-7.178142e-17 -1.530589e-11 -6.992626e-18))
0.012         	((2.014786e-09 4.604332e-09 -1.162733e-02) (3.424827e-11 3.652209e-11 -4.591165e-05)) ((-4.933310e-12 -3.080985e-09 -5.070966e-14) (3.153749e-13 -4.511494e-11 -1.890563e-15))
0.0264        	((-2.366029e-07 -2.371237e-07 8.061130e-04) (-1.332179e-10 -1.283152e-10 -4.684492e-05)) ((6.838480e-12 1.917651e-10 -4.058661e-14) (2.599620e-13 -5.986522e-11 -1.050102e-13))
0.04368       	((2.451960e-07 1.988246e-07 2.430958e-03) (-1.316866e-10 -1.304666e-10 -4.163204e-05)) ((2.660106e-11 5.484187e-10 3.613439e-13) (-7.514848e-13 -6.107411e-11 -9.887911e-14))
0.064416      	((-7.751877e-09 -4.157636e-08 2.303286e-05) (-4.956883e-10 -2.660984e-10 -3.687858e-05)) ((-8.768983e-12 -9.254866e-12 -1.676934e-13) (3.613872e-12 -7.118722e-11 -1.520206e-13))
0.0892992     	((-4.185385e-08 3.031439e-08 -3.163075e-05) (-8.668132e-10 -4.395885e-10 -3.404718e-05)) ((-3.395132e-12 1.800916e-11 -7.374071e-14) (1.536629e-12 -8.923517e-11 1.316758e-13))
0.119159      	((-3.172703e-08 -2.059964e-08 3.690660e-05) (-7.699593e-10 -4.265432e-10 -3.143652e-05)) ((-1.485448e-12 2.355940e-11 -1.789682e-13) (-3.375253e-12 -9.627194e-11 7.178475e-13))
0.154991      	((9.196877e-10 1.677609e-09 2.009724e-05) (-5.888197e-10 -3.411014e-10 -2.867197e-05)) ((9.844702e-13 1.940211e-11 -1.095163e-13) (-1.359170e-12 -9.768199e-11 1.999060e-12))
0.197989      	((-2.688528e-09 7.886497e-09 4.903256e-06) (-2.339748e-10 -1.498711e-10 -2.588478e-05)) ((-2.700623e-13 9.567441e-12 -9.610260e-14) (1.837263e-12 -8.889097e-11 3.324963e-12))
0.249587      	((1.827196e-09 -6.119710e-10 -6.219010e-07) (7.533258e-12 -3.671058e-11 -2.315241e-05)) ((-3.277306e-13 5.695896e-12 1.715677e-14) (4.525412e-12 -7.869481e-11 3.785310e-12))
0.311504      	((9.700025e-10 2.271661e-10 -3.119070e-06) (1.146976e-10 4.807432e-11 -2.055642e-05)) ((6.142350e-15 2.365623e-12 -2.977911e-15) (5.262006e-12 -7.304305e-11 3.729395e-12))
0.385805      	((6.217007e-10 5.387521e-10 -4.305053e-06) (1.917590e-10 1.165694e-10 -1.816332e-05)) ((5.320812e-14 1.845448e-13 -1.832512e-14) (4.905146e-12 -7.333611e-11 3.319718e-12))
0.474966      	((1.476411e-09 8.078936e-10 -4.881088e-06) (1.724531e-10 1.224671e-10 -1.601841e-05)) ((-8.952278e-16 -9.592353e-13 -7.976916e-15) (4.154220e-12 -7.016981e-11 2.559079e-12))
0.581959      	((1.133354e-09 5.409972e-10 -5.118034e-06) (1.629498e-10 1.087789e-10 -1.413806e-05)) ((-9.080604e-16 -1.470153e-12 8.586523e-16) (3.772457e-12 -6.018203e-11 1.765533e-12))
0.710351      	((3.893270e-10 4.181255e-10 -5.103029e-06) (1.512944e-10 7.684012e-11 -1.252094e-05)) ((8.889031e-15 -2.024430e-12 -9.032384e-16) (2.609328e-12 -4.461452e-11 1.146315e-12))
0.864421      	((2.494532e-11 1.799793e-10 -4.920994e-06) (1.398153e-10 6.190580e-11 -1.114719e-05)) ((2.277625e-14 -2.413740e-12 -1.716478e-15) (1.512067e-12 -2.732889e-11 8.441979e-13))
1.049306      	((-1.679344e-10 8.160495e-11 -4.650418e-06) (9.572866e-11 4.335124e-11 -9.983695e-06)) ((2.356677e-14 -2.641932e-12 -5.288107e-15) (5.158969e-13 -1.145227e-11 7.530826e-13))
1.271167      	((-1.183124e-10 -5.179343e-11 -4.348337e-06) (4.819647e-11 1.321631e-11 -8.995351e-06)) ((2.837357e-14 -2.648636e-12 -4.124604e-15) (-2.137943e-13 8.620176e-14 6.507073e-13))
1.5374        	((-8.155939e-11 -1.940547e-11 -4.038941e-06) (3.288693e-11 1.235981e-13 -8.144955e-06)) ((2.406015e-14 -2.520496e-12 -5.519860e-15) (-6.195965e-13 7.235663e-12 5.260030e-13))
1.85688       	((-1.440879e-10 -7.837223e-11 -3.734844e-06) (-4.554181e-12 8.949836e-13 -7.399166e-06)) ((2.555615e-14 -2.471224e-12 -4.223573e-15) (-1.023316e-12 1.140362e-11 4.618999e-13))
2.240256      	((-3.927299e-10 -1.141388e-10 -3.445202e-06) (-6.047772e-11 6.043074e-12 -6.736473e-06)) ((2.411826e-14 -2.439038e-12 -3.329021e-15) (-1.712798e-12 1.344633e-11 4.351767e-13))
2.700307      	((-5.867127e-10 -1.605240e-10 -3.174379e-06) (-5.116349e-11 8.572761e-12 -6.143218e-06)) ((1.972081e-14 -2.414612e-12 -2.625382e-15) (-2.406122e-12 1.362579e-11 4.005254e-13))
3.252369      	((-6.441746e-10 -2.076790e-10 -2.921610e-06) (-2.761114e-12 6.777469e-12 -5.609639e-06)) ((1.439060e-14 -2.357735e-12 -2.486895e-15) (-2.820691e-12 1.238067e-11 3.956126e-13))
3.914842      	((-5.032280e-10 -1.047649e-10 -2.684580e-06) (1.250600e-11 1.318348e-11 -5.128556e-06)) ((5.524049e-15 -2.246881e-12 -2.618406e-15) (-3.082137e-12 1.205152e-11 3.576199e-13))
4.709811      	((-3.310567e-10 1.115572e-11 -2.465035e-06) (1.038059e-11 1.855345e-11 -4.694776e-06)) ((-1.241116e-15 -2.109850e-12 -3.543756e-15) (-3.431779e-12 1.242580e-11 3.574692e-13))
5.663773      	((-1.277931e-10 1.208552e-10 -2.263218e-06) (1.601599e-11 1.963156e-11 -4.304355e-06)) ((-9.879041e-15 -1.968268e-12 -4.192439e-15) (-3.630513e-12 1.199449e-11 3.181101e-13))
6.808528      	((-3.221242e-11 1.644433e-10 -2.079381e-06) (2.203482e-11 2.146337e-11 -3.953773e-06)) ((-1.480214e-14 -1.837751e-12 -3.776478e-15) (-3.360862e-12 1.226601e-11 2.107843e-13))
8.182233      	((-4.944953e-11 7.239037e-11 -1.912638e-06) (2.990324e-11 1.850095e-11 -3.639172e-06)) ((-1.328559e-14 -1.725612e-12 -3.577727e-15) (-3.173466e-12 1.333193e-11 1.812649e-13))
9.83068       	((-7.079881e-11 -3.398763e-11 -1.761782e-06) (3.502388e-11 1.249229e-11 -3.356502e-06)) ((-1.049815e-14 -1.616263e-12 -3.744756e-15) (-3.593344e-12 1.422025e-11 1.473480e-13))
11.808816     	((-8.349644e-11 -1.137812e-10 -1.624934e-06) (3.056530e-11 7.787298e-12 -3.101783e-06)) ((-1.012544e-14 -1.505241e-12 -3.856721e-15) (-4.799146e-12 1.618968e-11 7.287513e-14))
14.182579     	((-1.544541e-10 -2.183922e-10 -1.501098e-06) (2.445816e-11 -5.061833e-13 -2.871487e-06)) ((-1.207540e-14 -1.396655e-12 -4.098295e-15) (-6.738728e-12 1.894437e-11 -1.285257e-14))
17.031095     	((-2.420528e-10 -3.295363e-10 -1.389529e-06) (1.341729e-11 -1.279966e-11 -2.662781e-06)) ((-1.229903e-14 -1.302628e-12 -3.477297e-15) (-9.095008e-12 2.106009e-11 -1.409995e-13))
20.449314     	((-3.843876e-10 -4.337975e-10 -1.289712e-06) (1.058290e-11 -2.512461e-11 -2.473471e-06)) ((-1.257969e-14 -1.217714e-12 -2.518164e-15) (-1.140968e-11 2.245794e-11 -2.237041e-13))
24.551176     	((-5.288889e-10 -5.373937e-10 -1.200987e-06) (1.097743e-11 -3.964961e-11 -2.301865e-06)) ((-1.280091e-14 -1.139088e-12 -1.989137e-15) (-1.348112e-11 2.362071e-11 -2.480938e-13))
29.473411     	((-4.585388e-10 -4.963220e-10 -1.123250e-06) (1.730417e-12 -5.246694e-11 -2.146588e-06)) ((-1.500481e-14 -1.066817e-12 -1.653759e-15) (-1.488540e-11 2.395046e-11 -2.750261e-13))
35.380094     	((-3.673307e-10 -3.879538e-10 -1.055517e-06) (-2.034123e-12 -5.650251e-11 -2.006558e-06)) ((-1.536332e-14 -9.974079e-13 -1.323922e-15) (-1.606374e-11 2.457575e-11 -2.964421e-13))
42.468112     	((-4.819555e-10 -4.836471e-10 -9.975085e-07) (-1.062069e-11 -6.468201e-11 -1.880681e-06)) ((-1.613833e-14 -9.302976e-13 -4.135066e-17) (-1.803139e-11 2.684407e-11 -2.894440e-13))
50.973735     	((-5.609079e-10 -5.107363e-10 -9.482910e-07) (-2.924958e-11 -7.472602e-11 -1.767855e-06)) ((-1.564519e-14 -8.701951e-13 2.981238e-16) (-2.086944e-11 3.070560e-11 -2.630639e-13))
61.180482     	((-5.336486e-10 -4.948630e-10 -9.078356e-07) (-4.617555e-11 -8.618656e-11 -1.667088e-06)) ((-1.493798e-14 -8.129599e-13 9.970852e-16) (-2.460573e-11 3.519426e-11 -2.352090e-13))
73.428578     	((-4.508395e-10 -4.106693e-10 -8.755130e-07) (-5.708661e-11 -9.479394e-11 -1.577472e-06)) ((-1.527585e-14 -7.615855e-13 1.513450e-15) (-2.871479e-11 3.982214e-11 -1.913988e-13))
88.126294     	((-3.490939e-10 -3.214471e-10 -8.512568e-07) (-6.304311e-11 -9.749052e-11 -1.498249e-06)) ((-1.540465e-14 -7.181322e-13 1.604627e-15) (-3.282691e-11 4.420455e-11 -1.684111e-13))
105.763553    	((-2.630339e-10 -2.403131e-10 -8.342585e-07) (-6.634532e-11 -1.005492e-10 -1.428747e-06)) ((-1.704059e-14 -6.770691e-13 1.390897e-15) (-3.695978e-11 4.825799e-11 -1.608216e-13))
126.928263    	((-1.995711e-10 -1.804846e-10 -8.239272e-07) (-6.548976e-11 -1.000703e-10 -1.368419e-06)) ((-1.862930e-14 -6.410541e-13 5.828119e-16) (-4.058984e-11 5.158442e-11 -1.465948e-13))
152.325916    	((-1.360863e-10 -1.307326e-10 -8.198965e-07) (-6.107089e-11 -1.007784e-10 -1.316825e-06)) ((-1.966188e-14 -6.110684e-13 1.552595e-16) (-4.344793e-11 5.387654e-11 -1.312419e-13))
182.803099    	((-6.260158e-11 -7.007915e-11 -8.209143e-07) (-5.887548e-11 -9.972052e-11 -1.273510e-06)) ((-1.968210e-14 -5.883609e-13 -1.550061e-16) (-4.511113e-11 5.504130e-11 -1.030338e-13))
219.375719    	((4.391092e-11 3.843110e-11 -8.253707e-07) (-5.590272e-11 -9.447729e-11 -1.237890e-06)) ((-1.821823e-14 -5.723664e-13 -3.277077e-16) (-4.554911e-11 5.463171e-11 -5.817844e-14))
262.838203    	((1.040680e-10 1.098612e-10 -8.315429e-07) (-5.203223e-11 -8.625490e-11 -1.209199e-06)) ((-1.606926e-14 -5.611513e-13 -5.918046e-16) (-4.482404e-11 5.305655e-11 -2.886655e-14))
313.164894    	((1.882427e-10 1.953648e-10 -8.375112e-07) (-3.995504e-11 -7.093325e-11 -1.186349e-06)) ((-1.402635e-14 -5.540536e-13 -6.160576e-16) (-4.317008e-11 5.059466e-11 -4.709915e-15))
370.342158    	((2.631380e-10 2.707641e-10 -8.417333e-07) (-1.620807e-11 -4.520280e-11 -1.168086e-06)) ((-1.209169e-14 -5.503636e-13 -8.148241e-16) (-4.085628e-11 4.779678e-11 7.202278e-15))
434.370697    	((3.214728e-10 3.226439e-10 -8.439504e-07) (1.496340e-11 -1.296260e-11 -1.153294e-06)) ((-1.082877e-14 -5.473537e-13 -8.228259e-16) (-3.833715e-11 4.500388e-11 2.378926e-14))
502.968575    	((3.398976e-10 3.378574e-10 -8.450350e-07) (4.717797e-11 2.008046e-11 -1.141256e-06)) ((-9.248481e-15 -5.455539e-13 -8.627931e-16) (-3.585892e-11 4.237850e-11 3.561061e-14))
571.658499    	((3.353332e-10 3.303997e-10 -8.456689e-07) (7.528009e-11 4.900519e-11 -1.131494e-06)) ((-8.419633e-15 -5.434576e-13 -8.932331e-16) (-3.347368e-11 3.989755e-11 3.641363e-14))
640.420089    	((3.199263e-10 3.116322e-10 -8.458235e-07) (9.906668e-11 7.356839e-11 -1.123490e-06)) ((-7.174207e-15 -5.417991e-13 -8.997113e-16) (-3.117013e-11 3.747966e-11 5.534357e-14))
709.237152    	((2.858964e-10 2.767684e-10 -8.458931e-07) (1.173028e-10 9.268023e-11 -1.116952e-06)) ((-6.342998e-15 -5.403275e-13 -8.526105e-16) (-2.892497e-11 3.513370e-11 8.013439e-14))
778.100189    	((2.432504e-10 2.347577e-10 -8.458593e-07) (1.290714e-10 1.048809e-10 -1.111591e-06)) ((-5.847210e-15 -5.388264e-13 -7.885218e-16) (-2.677387e-11 3.289812e-11 1.005895e-13))
847.002949    	((1.956272e-10 1.868123e-10 -8.457776e-07) (1.360293e-10 1.119806e-10 -1.107203e-06)) ((-5.600840e-15 -5.373488e-13 -7.433527e-16) (-2.472174e-11 3.075872e-11 1.166793e-13))
915.939756    	((1.442505e-10 1.356679e-10 -8.456624e-07) (1.381308e-10 1.141943e-10 -1.103601e-06)) ((-5.349436e-15 -5.360402e-13 -7.245692e-16) (-2.280244e-11 2.875114e-11 1.292081e-13))
984.905384    	((9.056701e-11 8.230950e-11 -8.455357e-07) (1.363111e-10 1.125577e-10 -1.100641e-06)) ((-5.081060e-15 -5.349337e-13 -7.064512e-16) (-2.102956e-11 2.689400e-11 1.394323e-13))
1053.895223   	((3.889828e-11 2.995196e-11 -8.454154e-07) (1.314376e-10 1.078719e-10 -1.098202e-06)) ((-4.964353e-15 -5.339490e-13 -6.805137e-16) (-1.941766e-11 2.520957e-11 1.477521e-13))
1122.905365   	((-1.005289e-11 -1.967056e-11 -8.452991e-07) (1.245326e-10 1.011260e-10 -1.096190e-06)) ((-4.836326e-15 -5.333051e-13 -6.631021e-16) (-1.794007e-11 2.367475e-11 1.533492e-13))
1191.932537   	((-5.537290e-11 -6.601936e-11 -8.451970e-07) (1.162152e-10 9.294186e-11 -1.094528e-06)) ((-4.727088e-15 -5.327861e-13 -6.397458e-16) (-1.660907e-11 2.229575e-11 1.573152e-13))
1260.973997   	((-9.652602e-11 -1.077812e-10 -8.451044e-07) (1.067617e-10 8.363340e-11 -1.093155e-06)) ((-4.589382e-15 -5.323946e-13 -6.244817e-16) (-1.543443e-11 2.108175e-11 1.608102e-13))
1330.027442   	((-1.336285e-10 -1.456852e-10 -8.450225e-07) (9.716951e-11 7.401373e-11 -1.092018e-06)) ((-4.504823e-15 -5.320110e-13 -6.098872e-16) (-1.438967e-11 2.000418e-11 1.628628e-13))
1399.090939   	((-1.667968e-10 -1.788376e-10 -8.449517e-07) (8.747643e-11 6.433463e-11 -1.091078e-06)) ((-4.453435e-15 -5.316705e-13 -5.924716e-16) (-1.347532e-11 1.906403e-11 1.641394e-13))
1468.162865   	((-1.953612e-10 -2.078406e-10 -8.448874e-07) (7.802396e-11 5.486431e-11 -1.090298e-06)) ((-4.368371e-15 -5.314426e-13 -5.758152e-16) (-1.267950e-11 1.824569e-11 1.647097e-13))
1537.241854   	((-2.201892e-10 -2.327484e-10 -8.448316e-07) (6.918519e-11 4.598583e-11 -1.089651e-06)) ((-4.299694e-15 -5.312500e-13 -5.715765e-16) (-1.198686e-11 1.753367e-11 1.650726e-13))
1606.32676    	((-2.415695e-10 -2.543265e-10 -8.447841e-07) (6.102950e-11 3.778429e-11 -1.089114e-06)) ((-4.240464e-15 -5.310863e-13 -5.668106e-16) (-1.139096e-11 1.692085e-11 1.653436e-13))
1675.41662    	((-2.596206e-10 -2.723775e-10 -8.447425e-07) (5.372044e-11 3.045025e-11 -1.088667e-06)) ((-4.172075e-15 -5.309746e-13 -5.593243e-16) (-1.087565e-11 1.639110e-11 1.656456e-13))
1744.510625   	((-2.747372e-10 -2.875968e-10 -8.447081e-07) (4.724619e-11 2.394801e-11 -1.088296e-06)) ((-4.112843e-15 -5.308769e-13 -5.545759e-16) (-1.043495e-11 1.593709e-11 1.660259e-13))
1813.608097   	((-2.874222e-10 -3.003178e-10 -8.446776e-07) (4.152433e-11 1.821169e-11 -1.087988e-06)) ((-4.059075e-15 -5.307974e-13 -5.529706e-16) (-1.006116e-11 1.555246e-11 1.663540e-13))
1882.708468   	((-2.980712e-10 -3.109424e-10 -8.446516e-07) (3.655031e-11 1.323201e-11 -1.087731e-06)) ((-4.001369e-15 -5.307390e-13 -5.543647e-16) (-9.743242e-12 1.522584e-11 1.666228e-13))
1951.81126    	((-3.068972e-10 -3.197939e-10 -8.446298e-07) (3.227336e-11 8.934903e-12 -1.087517e-06)) ((-3.949403e-15 -5.306945e-13 -5.544192e-16) (-9.476135e-12 1.494995e-11 1.667861e-13))
2020.916073   	((-3.141957e-10 -3.270572e-10 -8.446112e-07) (2.862758e-11 5.284366e-12 -1.087339e-06)) ((-3.914151e-15 -5.306469e-13 -5.510323e-16) (-9.250792e-12 1.471729e-11 1.668223e-13))
2090.022574   	((-3.202115e-10 -3.330964e-10 -8.445955e-07) (2.556560e-11 2.218510e-12 -1.087191e-06)) ((-3.885144e-15 -5.306102e-13 -5.500835e-16) (-9.060211e-12 1.452083e-11 1.668819e-13))
2159.130483   	((-3.252365e-10 -3.380961e-10 -8.445823e-07) (2.300259e-11 -3.477148e-13 -1.087067e-06)) ((-3.856300e-15 -5.305815e-13 -5.487411e-16) (-8.899622e-12 1.435532e-11 1.669914e-13))
2228.239565   	((-3.293665e-10 -3.421854e-10 -8.445710e-07) (2.086542e-11 -2.486061e-12 -1.086964e-06)) ((-3.833296e-15 -5.305602e-13 -5.471700e-16) (-8.764683e-12 1.421634e-11 1.670913e-13))
2297.349626   	((-3.327958e-10 -3.455947e-10 -8.445617e-07) (1.908465e-11 -4.261336e-12 -1.086878e-06)) ((-3.814062e-15 -5.305420e-13 -5.463185e-16) (-8.651557e-12 1.409992e-11 1.671679e-13))
2366.460502   	((-3.355676e-10 -3.483747e-10 -8.445537e-07) (1.760839e-11 -5.732728e-12 -1.086807e-06)) ((-3.797977e-15 -5.305265e-13 -5.455525e-16) (-8.556747e-12 1.400239e-11 1.672144e-13))
2435.572057   	((-3.379522e-10 -3.507061e-10 -8.445469e-07) (1.638838e-11 -6.948777e-12 -1.086747e-06)) ((-3.785178e-15 -5.305127e-13 -5.457408e-16) (-8.477499e-12 1.392089e-11 1.672506e-13))
2504.684179   	((-3.399246e-10 -3.526919e-10 -8.445413e-07) (1.538143e-11 -7.950775e-12 -1.086697e-06)) ((-3.775315e-15 -5.305018e-13 -5.451542e-16) (-8.411079e-12 1.385256e-11 1.672872e-13))
2573.796773   	((-3.416249e-10 -3.543658e-10 -8.445364e-07) (1.454841e-11 -8.777904e-12 -1.086655e-06)) ((-3.769023e-15 -5.304907e-13 -5.438230e-16) (-8.355316e-12 1.379518e-11 1.672830e-13))
2642.909761   	((-3.430276e-10 -3.557883e-10 -8.445327e-07) (1.386003e-11 -9.462836e-12 -1.086621e-06)) ((-3.762867e-15 -5.304820e-13 -5.437265e-16) (-8.308588e-12 1.374703e-11 1.672806e-13))
2712.023078   	((-3.442290e-10 -3.569672e-10 -8.445293e-07) (1.328677e-11 -1.003124e-11 -1.086592e-06)) ((-3.758398e-15 -5.304745e-13 -5.435534e-16) (-8.269449e-12 1.370667e-11 1.672846e-13))
2781.136668   	((-3.452446e-10 -3.579744e-10 -8.445264e-07) (1.280985e-11 -1.050613e-11 -1.086568e-06)) ((-3.752337e-15 -5.304695e-13 -5.445366e-16) (-8.236642e-12 1.367279e-11 1.672877e-13))
2850.250487   	((-3.461083e-10 -3.588523e-10 -8.445242e-07) (1.240800e-11 -1.090523e-11 -1.086547e-06)) ((-3.749979e-15 -5.304643e-13 -5.433411e-16) (-8.209120e-12 1.364440e-11 1.672955e-13))
2919.364498   	((-3.468514e-10 -3.595746e-10 -8.445224e-07) (1.207127e-11 -1.123877e-11 -1.086531e-06)) ((-3.746788e-15 -5.304599e-13 -5.442539e-16) (-8.186063e-12 1.362058e-11 1.672932e-13))
2988.478668   	((-3.474793e-10 -3.601874e-10 -8.445205e-07) (1.178554e-11 -1.152317e-11 -1.086516e-06)) ((-3.744937e-15 -5.304562e-13 -5.431000e-16) (-8.166640e-12 1.360055e-11 1.672815e-13))
3057.592972   	((-3.479276e-10 -3.607866e-10 -8.445194e-07) (1.154563e-11 -1.176287e-11 -1.086505e-06)) ((-3.744048e-15 -5.304529e-13 -5.429804e-16) (-8.150317e-12 1.358369e-11 1.672881e-13))
3126.707387   	((-3.484370e-10 -3.611674e-10 -8.445182e-07) (1.133985e-11 -1.196335e-11 -1.086495e-06)) ((-3.741828e-15 -5.304501e-13 -5.438033e-16) (-8.136561e-12 1.356953e-11 1.673091e-13))
3195.821895   	((-3.488300e-10 -3.615536e-10 -8.445172e-07) (1.116515e-11 -1.213825e-11 -1.086487e-06)) ((-3.740128e-15 -5.304482e-13 -5.436462e-16) (-8.124983e-12 1.355758e-11 1.673244e-13))
3264.936482   	((-3.490950e-10 -3.619581e-10 -8.445163e-07) (1.101568e-11 -1.228549e-11 -1.086480e-06)) ((-3.741551e-15 -5.304457e-13 -5.426877e-16) (-8.115204e-12 1.354749e-11 1.673079e-13))
3334.051133   	((-3.494071e-10 -3.621716e-10 -8.445157e-07) (1.088926e-11 -1.240891e-11 -1.086474e-06)) ((-3.739118e-15 -5.304444e-13 -5.435457e-16) (-8.106976e-12 1.353905e-11 1.673065e-13))
3403.165839   	((-3.496612e-10 -3.623959e-10 -8.445150e-07) (1.078059e-11 -1.251719e-11 -1.086469e-06)) ((-3.737493e-15 -5.304436e-13 -5.433461e-16) (-8.100080e-12 1.353193e-11 1.673112e-13))
3472.280591   	((-3.497990e-10 -3.626887e-10 -8.445146e-07) (1.068902e-11 -1.260944e-11 -1.086465e-06)) ((-3.739105e-15 -5.304421e-13 -5.425400e-16) (-8.094258e-12 1.352593e-11 1.672962e-13))
3541.39538    	((-3.499600e-10 -3.627883e-10 -8.445141e-07) (1.061114e-11 -1.268443e-11 -1.086462e-06)) ((-3.737919e-15 -5.304415e-13 -5.432139e-16) (-8.089402e-12 1.352093e-11 1.672894e-13))
3610.510202   	((-3.501104e-10 -3.629165e-10 -8.445137e-07) (1.054537e-11 -1.275020e-11 -1.086459e-06)) ((-3.737742e-15 -5.304404e-13 -5.420749e-16) (-8.085296e-12 1.351672e-11 1.672659e-13))
