# Forces      
# CofR        : (0.000000e+00 0.000000e+00 0.000000e+00)
# Time        forces(pressure viscous)	moments(pressure viscous)
0             	((0.000000e+00 0.000000e+00 0.000000e+00) (0.000000e+00 0.000000e+00 0.000000e+00)) ((0.000000e+00 0.000000e+00 0.000000e+00) (0.000000e+00 0.000000e+00 0.000000e+00))
0.012         	((1.395533e-11 -2.179178e-11 -5.437103e-09) (4.079359e-15 -1.650401e-13 -1.142034e-10)) ((4.870826e-15 -2.115424e-10 -1.618635e-15) (1.370386e-16 -1.397262e-07 5.774822e-15))
0.0264        	((-2.325749e-11 1.956084e-11 2.042960e-09) (-2.756905e-14 -4.085499e-13 -1.985743e-10)) ((2.244163e-15 -1.059137e-10 -1.137819e-14) (-3.417590e-15 -1.279784e-07 6.727071e-15))
0.04368       	((-7.921202e-11 -1.275340e-10 -1.893331e-09) (-2.822998e-13 -3.417767e-13 -2.152931e-10)) ((-1.219336e-15 -5.844454e-11 -6.994451e-15) (6.444226e-15 -1.159064e-07 9.521825e-15))
0.064416      	((2.304947e-11 3.327229e-11 -7.122718e-11) (-7.240644e-13 6.614307e-14 -1.779179e-10)) ((5.904498e-16 -3.329994e-11 3.876835e-16) (2.132371e-14 -1.037741e-07 1.338573e-14))
0.0892992     	((-6.695530e-11 -3.799412e-11 -2.355832e-10) (-1.130008e-12 5.044877e-13 -1.476187e-10)) ((9.143887e-16 -2.474840e-11 -8.634476e-17) (2.947688e-14 -9.193551e-08 1.409481e-14))
0.119159      	((3.113150e-11 9.327657e-12 -5.998773e-11) (-1.401075e-12 9.813679e-13 -1.251889e-10)) ((-3.605254e-17 -1.777772e-11 3.100831e-18) (4.026168e-14 -8.075523e-08 1.795111e-14))
0.154991      	((2.246522e-11 2.653837e-11 1.555843e-10) (-1.701373e-12 1.639832e-12 -1.008760e-10)) ((5.302645e-16 -1.406225e-11 -1.121772e-15) (5.380126e-14 -7.049103e-08 2.491630e-14))
0.197989      	((1.619145e-11 1.638024e-11 -1.514230e-11) (-1.834634e-12 2.184247e-12 -7.893224e-11)) ((6.773938e-16 -1.118935e-11 -1.088701e-15) (5.995798e-14 -6.139165e-08 3.136866e-14))
0.249587      	((-2.806463e-12 1.802719e-11 1.484684e-10) (-1.650957e-12 2.465988e-12 -6.262323e-11)) ((9.392507e-16 -9.230547e-12 2.240642e-16) (5.767702e-14 -5.359096e-08 2.747522e-14))
0.311504      	((-3.444739e-12 -4.793620e-12 2.848616e-11) (-1.418219e-12 2.680163e-12 -4.890367e-11)) ((6.613406e-16 -7.690100e-12 1.053047e-15) (5.513117e-14 -4.706984e-08 1.765763e-14))
0.385805      	((5.307249e-12 -1.429522e-11 -3.211879e-12) (-1.088970e-12 2.779386e-12 -3.733673e-11)) ((2.878011e-16 -6.598905e-12 1.708497e-15) (5.492006e-14 -4.168787e-08 1.450244e-14))
0.474966      	((1.682421e-11 3.989045e-12 -3.543718e-11) (-8.453308e-13 3.021706e-12 -2.648292e-11)) ((3.134935e-16 -5.880482e-12 1.390037e-15) (5.153788e-14 -3.723363e-08 5.356428e-15))
0.581959      	((2.859663e-11 1.757828e-11 3.454445e-11) (-6.180317e-13 3.198728e-12 -1.748881e-11)) ((3.653257e-16 -5.267437e-12 5.457558e-16) (4.635738e-14 -3.348781e-08 -9.194250e-15))
0.710351      	((3.941444e-11 2.379151e-11 -7.159712e-11) (-7.303229e-13 2.274167e-12 -1.563023e-11)) ((7.024493e-16 -4.677594e-12 5.484593e-16) (3.297060e-14 -3.026934e-08 6.582601e-15))
0.864421      	((4.215714e-11 2.045712e-11 -3.862776e-11) (-4.552856e-13 -1.827268e-13 -1.436263e-11)) ((1.050207e-15 -4.279965e-12 -5.503045e-16) (9.618946e-15 -2.744969e-08 4.678771e-14))
1.049306      	((7.855089e-11 1.856669e-11 1.955431e-12) (-1.276099e-12 -2.488373e-12 -8.745399e-12)) ((1.478484e-15 -4.027306e-12 -7.706587e-16) (-1.049000e-14 -2.494387e-08 7.236419e-14))
1.271167      	((9.202734e-11 1.605683e-11 -7.028906e-11) (-2.914317e-12 -3.784421e-12 -3.276697e-12)) ((6.178426e-16 -3.769146e-12 -1.038639e-15) (-3.853643e-14 -2.269451e-08 5.994712e-14))
1.5374        	((1.029123e-10 -7.271414e-12 -8.347226e-11) (-4.538558e-12 -4.211251e-12 3.422219e-12)) ((-1.103639e-15 -3.469031e-12 -1.695984e-15) (-9.689636e-14 -2.066427e-08 1.973017e-14))
1.85688       	((9.068520e-11 1.078486e-11 -5.980019e-11) (-7.327268e-12 -4.476430e-12 1.383084e-11)) ((-1.912490e-15 -3.200430e-12 -7.606677e-16) (-1.906940e-13 -1.883291e-08 -6.810498e-14))
2.240256      	((7.950651e-11 4.258391e-12 -8.071596e-11) (-1.085030e-11 -3.761373e-12 2.107194e-11)) ((-1.980023e-15 -3.024612e-12 -5.780496e-16) (-2.726335e-13 -1.719001e-08 -1.793117e-13))
2.700307      	((7.129340e-11 2.784522e-12 -6.355426e-11) (-1.793987e-11 -2.284196e-12 2.430886e-11)) ((-2.085929e-15 -2.896898e-12 -8.579499e-16) (-3.900633e-13 -1.572811e-08 -3.866247e-13))
3.252369      	((5.105211e-11 5.535966e-12 -4.342551e-11) (-2.647779e-11 -1.154551e-12 3.706251e-11)) ((-2.364824e-15 -2.767386e-12 -1.227878e-15) (-5.361826e-13 -1.443712e-08 -6.424111e-13))
3.914842      	((1.850853e-11 3.594915e-12 -1.757747e-11) (-3.362629e-11 3.187359e-13 5.723370e-11)) ((-1.079273e-15 -2.618592e-12 -1.921880e-15) (-6.596712e-13 -1.330170e-08 -7.798051e-13))
4.709811      	((6.268888e-12 1.788497e-12 9.038463e-12) (-4.146080e-11 2.081643e-12 6.581233e-11)) ((-1.361441e-15 -2.455284e-12 -1.848708e-15) (-7.634816e-13 -1.230060e-08 -8.790565e-13))
5.663773      	((-6.668087e-13 4.505244e-12 -1.358059e-11) (-4.633702e-11 1.409695e-12 6.211894e-11)) ((-1.331766e-15 -2.280082e-12 -6.382546e-16) (-7.955391e-13 -1.141016e-08 -8.787220e-13))
6.808528      	((-7.730678e-12 9.412800e-12 -6.664272e-13) (-4.629250e-11 3.072880e-13 5.917273e-11)) ((-1.425500e-15 -2.099610e-12 6.067774e-16) (-7.448766e-13 -1.060952e-08 -7.933669e-13))
8.182233      	((-1.265769e-11 2.401667e-12 2.403317e-12) (-4.304485e-11 9.787386e-13 5.348234e-11)) ((-1.134499e-15 -1.925631e-12 3.252237e-16) (-6.547082e-13 -9.882565e-09 -7.302270e-13))
9.83068       	((-1.926016e-11 6.762522e-12 -5.473755e-12) (-3.750611e-11 1.448274e-12 4.018692e-11)) ((-8.832462e-16 -1.747784e-12 4.152773e-16) (-5.439898e-13 -9.217071e-09 -6.372701e-13))
11.808816     	((4.687041e-12 2.448585e-12 -1.463481e-11) (-2.919388e-11 -5.557181e-13 2.518507e-11)) ((-6.785596e-16 -1.588388e-12 1.093830e-15) (-4.474490e-13 -8.604563e-09 -4.702258e-13))
14.182579     	((4.993190e-12 5.182771e-12 -2.603737e-11) (-2.146948e-11 -4.247395e-12 1.665771e-11)) ((-7.274888e-16 -1.444164e-12 1.454432e-15) (-3.496459e-13 -8.040038e-09 -2.720515e-13))
17.031095     	((5.054554e-12 4.829427e-12 -1.907445e-11) (-1.425791e-11 -5.101881e-12 1.124010e-11)) ((-5.984069e-17 -1.319585e-12 1.823469e-15) (-2.430598e-13 -7.520885e-09 -1.303319e-13))
20.449314     	((7.046889e-12 3.061772e-12 -2.255818e-11) (-8.318497e-12 -3.436729e-12 6.837230e-12)) ((-1.456206e-16 -1.208744e-12 1.991428e-15) (-1.364304e-13 -7.045505e-09 -9.512604e-14))
24.551176     	((1.323999e-11 -4.159669e-13 -1.519426e-11) (-4.900977e-12 -2.081409e-12 6.382553e-12)) ((1.036180e-16 -1.110362e-12 1.997869e-15) (-6.241917e-14 -6.611219e-09 -8.537075e-14))
29.473411     	((1.187989e-11 2.422238e-12 -1.475026e-11) (-3.057853e-12 -1.496155e-12 8.348401e-12)) ((3.678324e-16 -1.027517e-12 1.719992e-15) (-2.347183e-14 -6.215056e-09 -6.897306e-14))
35.380094     	((1.619749e-11 1.076124e-12 -1.792440e-11) (-1.589865e-12 -1.058045e-12 1.012467e-11)) ((3.474796e-16 -9.542136e-13 1.603664e-15) (-5.835772e-15 -5.853759e-09 -6.194992e-14))
42.468112     	((1.305593e-11 5.891750e-13 -1.601248e-11) (-1.136785e-12 -6.278152e-13 1.122497e-11)) ((1.404576e-16 -8.911636e-13 1.319071e-15) (3.284679e-15 -5.524261e-09 -7.478655e-14))
50.973735     	((1.433703e-11 1.508507e-12 -9.783779e-12) (-2.050387e-12 -1.880681e-13 1.162506e-11)) ((2.129279e-16 -8.345198e-13 1.172592e-15) (-5.926179e-15 -5.224055e-09 -9.944513e-14))
61.180482     	((9.594802e-12 -8.242216e-13 -1.195842e-11) (-3.663615e-12 -1.940115e-13 1.096817e-11)) ((1.659186e-16 -7.840432e-13 9.882691e-16) (-2.214498e-14 -4.950796e-09 -1.323566e-13))
73.428578     	((1.248248e-11 1.185921e-13 -8.274622e-12) (-4.709938e-12 -5.373514e-13 1.103010e-11)) ((2.694673e-16 -7.390317e-13 7.520393e-16) (-3.916086e-14 -4.702475e-09 -1.546455e-13))
88.126294     	((1.024398e-11 1.896808e-13 -6.867746e-12) (-5.707794e-12 -9.585332e-13 1.153405e-11)) ((4.080602e-16 -6.978190e-13 5.412569e-16) (-6.455028e-14 -4.477262e-09 -1.685738e-13))
105.763553    	((7.640982e-12 4.155565e-13 -4.765427e-12) (-7.181578e-12 -1.494866e-12 1.247195e-11)) ((5.454824e-16 -6.598070e-13 3.975230e-16) (-8.399619e-14 -4.273391e-09 -1.741444e-13))
126.928263    	((4.472972e-12 2.100716e-14 -5.269287e-12) (-8.364950e-12 -1.800210e-12 1.398360e-11)) ((5.021493e-16 -6.256396e-13 3.372761e-16) (-9.195912e-14 -4.089078e-09 -1.791901e-13))
152.325916    	((2.381140e-12 2.004140e-14 -3.833728e-12) (-8.025029e-12 -1.757338e-12 1.535756e-11)) ((3.997674e-16 -5.953674e-13 3.290168e-16) (-9.278543e-14 -3.922313e-09 -1.786690e-13))
182.803099    	((2.456261e-12 -2.396127e-13 -4.019660e-12) (-6.648088e-12 -1.634136e-12 1.678778e-11)) ((3.891809e-16 -5.676339e-13 3.715041e-16) (-8.747826e-14 -3.771120e-09 -1.674415e-13))
219.375719    	((1.851264e-12 -2.226794e-13 -2.573673e-12) (-5.606241e-12 -1.589161e-12 1.795368e-11)) ((4.115461e-16 -5.428694e-13 4.048044e-16) (-8.268351e-14 -3.633780e-09 -1.554409e-13))
263.262863    	((2.737486e-12 8.059891e-16 -1.120429e-12) (-4.983610e-12 -1.664678e-12 1.907569e-11)) ((3.686009e-16 -5.200659e-13 4.147632e-16) (-8.809403e-14 -3.508900e-09 -1.508673e-13))
315.927436    	((2.397152e-12 -1.993793e-13 -1.117056e-12) (-5.102275e-12 -1.540659e-12 2.026728e-11)) ((3.191276e-16 -4.992173e-13 3.682854e-16) (-9.904480e-14 -3.395410e-09 -1.541651e-13))
379.124923    	((1.891870e-12 -1.743385e-13 -2.994158e-12) (-4.882285e-12 -1.433982e-12 2.113742e-11)) ((2.784879e-16 -4.802342e-13 2.976247e-16) (-1.067349e-13 -3.292422e-09 -1.526844e-13))
454.961908    	((1.271995e-12 -1.076142e-13 -4.337819e-12) (-4.204801e-12 -1.323225e-12 2.134102e-11)) ((3.068837e-16 -4.628101e-13 2.145972e-16) (-1.070118e-13 -3.199183e-09 -1.496552e-13))
545.966289    	((2.613052e-13 2.113410e-13 -4.109751e-12) (-3.663180e-12 -1.300484e-12 2.080379e-11)) ((3.090758e-16 -4.466461e-13 1.738505e-16) (-1.001272e-13 -3.115003e-09 -1.487864e-13))
655.171547    	((1.547725e-12 1.114434e-13 -3.597002e-12) (-3.353488e-12 -1.177459e-12 1.997754e-11)) ((2.460278e-16 -4.317266e-13 1.461279e-16) (-9.380750e-14 -3.039232e-09 -1.523748e-13))
786.217856    	((2.334100e-12 -5.944146e-13 -3.053872e-12) (-3.000527e-12 -1.043038e-12 1.931597e-11)) ((2.118026e-16 -4.181807e-13 1.254449e-16) (-8.983328e-14 -2.971285e-09 -1.539366e-13))
943.473427    	((2.728045e-12 -1.095620e-12 -1.426934e-12) (-2.551959e-12 -9.188191e-13 1.893409e-11)) ((1.753754e-16 -4.063308e-13 8.255880e-17) (-8.654074e-14 -2.910630e-09 -1.522973e-13))
1132.180113   	((3.042860e-12 -1.131629e-12 -5.480965e-13) (-2.158670e-12 -9.034881e-13 1.868014e-11)) ((1.553553e-16 -3.959333e-13 5.059844e-17) (-8.248563e-14 -2.856735e-09 -1.452931e-13))
1358.628135   	((3.049736e-12 -1.179097e-12 -1.909205e-13) (-1.561589e-12 -9.284255e-13 1.847344e-11)) ((1.281415e-16 -3.868253e-13 3.804550e-17) (-7.906003e-14 -2.809069e-09 -1.369208e-13))
1630.365763   	((1.988509e-12 -1.013604e-12 -5.412860e-14) (-1.105065e-12 -9.608447e-13 1.853896e-11)) ((1.101183e-16 -3.789060e-13 4.800501e-17) (-7.537075e-14 -2.767136e-09 -1.268740e-13))
1956.450915   	((1.850111e-12 -8.413735e-13 -3.986453e-13) (-9.415867e-13 -9.847218e-13 1.838381e-11)) ((6.703528e-17 -3.719326e-13 7.790095e-17) (-7.352785e-14 -2.730451e-09 -1.173048e-13))
2347.753098   	((1.584011e-12 -8.010717e-13 4.829029e-13) (-7.578197e-13 -9.906710e-13 1.825166e-11)) ((4.289716e-17 -3.658664e-13 1.182760e-16) (-7.195258e-14 -2.698526e-09 -1.088473e-13))
2817.315718   	((2.323672e-12 -8.074362e-13 7.017101e-13) (-5.231992e-13 -1.017034e-12 1.799220e-11)) ((-1.184075e-17 -3.607699e-13 1.252401e-16) (-7.083335e-14 -2.670886e-09 -1.020113e-13))
3380.790861   	((2.903889e-12 -1.089409e-12 7.485935e-13) (-4.143363e-13 -1.098561e-12 1.767701e-11)) ((-2.000921e-17 -3.565409e-13 1.086722e-16) (-6.849504e-14 -2.647097e-09 -9.550936e-14))
4046.298958   	((3.438252e-12 -1.368371e-12 5.865449e-13) (-2.984152e-13 -1.183183e-12 1.733351e-11)) ((-1.986115e-17 -3.529572e-13 9.567049e-17) (-6.508018e-14 -2.626761e-09 -8.948931e-14))
4813.848712   	((3.656121e-12 -1.607915e-12 5.355140e-13) (-1.667139e-13 -1.265873e-12 1.699492e-11)) ((-1.418837e-17 -3.498841e-13 8.304929e-17) (-6.203683e-14 -2.609501e-09 -8.408367e-14))
5683.448009   	((3.803168e-12 -1.912820e-12 5.217726e-13) (6.062924e-14 -1.331323e-12 1.667531e-11)) ((-5.942630e-18 -3.472961e-13 8.105216e-17) (-5.913843e-14 -2.594949e-09 -7.904400e-14))
6655.103828   	((3.686368e-12 -2.122656e-12 4.217805e-13) (2.821798e-13 -1.384314e-12 1.636705e-11)) ((1.971501e-19 -3.451493e-13 7.811922e-17) (-5.750713e-14 -2.582752e-09 -7.501342e-14))
7675.729667   	((3.546277e-12 -2.193399e-12 5.481577e-13) (4.796080e-13 -1.434055e-12 1.607453e-11)) ((3.831415e-18 -3.433637e-13 7.012003e-17) (-5.710119e-14 -2.572594e-09 -7.158085e-14))
8696.406513   	((3.311898e-12 -2.115387e-12 7.745476e-13) (6.287846e-13 -1.488550e-12 1.583610e-11)) ((7.997335e-18 -3.419017e-13 6.559466e-17) (-5.692711e-14 -2.564182e-09 -6.865595e-14))
9717.125816   	((2.929686e-12 -1.983585e-12 9.078048e-13) (7.462533e-13 -1.536417e-12 1.566373e-11)) ((1.404678e-17 -3.407121e-13 7.012462e-17) (-5.629204e-14 -2.557244e-09 -6.592910e-14))
10737.880779  	((2.663996e-12 -1.773136e-12 1.005727e-12) (8.441239e-13 -1.573110e-12 1.553095e-11)) ((2.147630e-17 -3.397350e-13 6.915564e-17) (-5.567598e-14 -2.551535e-09 -6.369661e-14))
11758.665576  	((2.409164e-12 -1.597221e-12 1.006994e-12) (9.241245e-13 -1.599435e-12 1.542970e-11)) ((2.953190e-17 -3.389411e-13 7.170511e-17) (-5.520596e-14 -2.546844e-09 -6.175976e-14))
12779.475216  	((2.184594e-12 -1.428101e-12 9.720334e-13) (9.739924e-13 -1.620800e-12 1.534445e-11)) ((3.553425e-17 -3.382928e-13 7.168979e-17) (-5.510235e-14 -2.542991e-09 -6.021221e-14))
13800.305449  	((1.909051e-12 -1.275785e-12 8.962491e-13) (9.931881e-13 -1.636582e-12 1.527766e-11)) ((3.896438e-17 -3.377745e-13 7.304809e-17) (-5.489276e-14 -2.539829e-09 -5.893368e-14))
14821.152767  	((1.640511e-12 -1.024909e-12 7.746771e-13) (9.963518e-13 -1.646085e-12 1.522265e-11)) ((2.571211e-17 -3.373418e-13 6.427254e-17) (-5.486453e-14 -2.537234e-09 -5.818804e-14))
15842.014251  	((1.396003e-12 -7.891212e-13 6.349520e-13) (1.001454e-12 -1.647439e-12 1.517191e-11)) ((1.799864e-17 -3.369701e-13 5.823457e-17) (-5.543379e-14 -2.535105e-09 -5.747239e-14))
16862.88748   	((1.199230e-12 -6.160128e-13 5.238832e-13) (1.007543e-12 -1.649202e-12 1.511320e-11)) ((2.774735e-17 -3.366760e-13 6.345310e-17) (-5.557592e-14 -2.533357e-09 -5.664792e-14))
17883.770449  	((1.034635e-12 -4.572085e-13 4.174739e-13) (1.015091e-12 -1.645914e-12 1.504661e-11)) ((3.939957e-17 -3.364270e-13 7.278116e-17) (-5.522465e-14 -2.531922e-09 -5.570590e-14))
18904.66147   	((8.651947e-13 -3.245550e-13 3.146203e-13) (1.009117e-12 -1.644544e-12 1.499764e-11)) ((4.168388e-17 -3.362272e-13 7.350351e-17) (-5.504658e-14 -2.530744e-09 -5.519521e-14))
19925.55914   	((6.972857e-13 -2.284938e-13 2.117217e-13) (9.961020e-13 -1.642368e-12 1.495575e-11)) ((4.369655e-17 -3.360634e-13 7.421977e-17) (-5.500522e-14 -2.529778e-09 -5.483202e-14))
20946.462296  	((5.841380e-13 -1.461227e-13 1.174330e-13) (9.971308e-13 -1.640847e-12 1.492834e-11)) ((4.612319e-17 -3.359315e-13 7.421372e-17) (-5.501453e-14 -2.528984e-09 -5.451386e-14))
21967.36998   	((4.886112e-13 -7.522517e-14 2.707901e-14) (9.994608e-13 -1.638692e-12 1.490895e-11)) ((4.738569e-17 -3.358230e-13 7.433917e-17) (-5.500900e-14 -2.528332e-09 -5.430719e-14))
22988.281396  	((4.093332e-13 -1.101416e-14 -6.284662e-14) (1.002128e-12 -1.636662e-12 1.489269e-11)) ((4.850456e-17 -3.357340e-13 7.451467e-17) (-5.501076e-14 -2.527797e-09 -5.414499e-14))
24009.195889  	((3.439417e-13 4.656397e-14 -1.422151e-13) (1.004953e-12 -1.634644e-12 1.487888e-11)) ((4.959393e-17 -3.356612e-13 7.457977e-17) (-5.500884e-14 -2.527357e-09 -5.401915e-14))
