# Forces      
# CofR        : (0.000000e+00 0.000000e+00 0.000000e+00)
# Time        forces(pressure viscous)	moments(pressure viscous)
0             	((0.000000e+00 0.000000e+00 0.000000e+00) (1.455703e-14 -3.158069e-04 -2.032161e-14)) ((0.000000e+00 0.000000e+00 0.000000e+00) (1.082163e-15 -1.444077e-16 1.154749e-10))
0.012         	((-4.415405e-08 -9.186684e-02 -1.712777e-08) (1.809267e-10 -3.621450e-04 2.247773e-10)) ((-3.442551e-11 -5.403563e-13 1.732019e-08) (-3.037454e-12 -4.897985e-14 2.301083e-10))
0.0264        	((-1.967558e-06 6.957959e-03 -1.570511e-06) (-9.958158e-10 -3.688500e-04 -9.895428e-10)) ((5.049071e-11 -5.864064e-12 -1.069261e-09) (-1.938954e-12 8.787548e-13 2.968302e-10))
0.04368       	((1.267650e-06 1.890109e-02 2.018322e-06) (-3.660055e-10 -3.271847e-04 -4.668632e-10)) ((5.515378e-11 -2.553619e-12 -4.743987e-09) (8.219483e-12 1.427630e-12 2.406742e-10))
0.064416      	((-1.265799e-08 1.777838e-04 -2.683233e-07) (1.216232e-09 -2.895497e-04 -2.527110e-09)) ((-3.695788e-11 -2.493210e-12 3.565927e-10) (-3.432617e-11 -2.178986e-13 2.779575e-10))
0.0892992     	((2.976268e-07 -1.904392e-04 -3.840069e-07) (-6.983545e-10 -2.671576e-04 -5.846376e-09)) ((-3.787457e-12 8.303619e-12 2.768627e-10) (-2.163937e-11 1.075462e-11 1.725104e-10))
0.119159      	((-1.563712e-07 3.053532e-04 -2.725553e-08) (-3.527538e-10 -2.466445e-04 -6.055184e-09)) ((-1.947730e-11 -1.480390e-13 -1.839825e-10) (5.433657e-11 1.315399e-11 1.984186e-11))
0.154991      	((-3.232277e-07 1.527631e-04 -5.495185e-09) (6.516273e-10 -2.251135e-04 -5.504092e-09)) ((-1.419470e-11 -2.605092e-12 -4.131947e-11) (1.232965e-10 5.756243e-12 -1.078688e-10))
0.197989      	((-1.236859e-07 3.571532e-05 -3.924588e-08) (-4.732209e-10 -2.036878e-04 -4.737502e-09)) ((-1.734559e-11 2.220588e-14 2.146683e-11) (1.565371e-10 6.272373e-12 -1.702636e-10))
0.249587      	((-4.741927e-08 -5.832625e-06 -5.409958e-09) (-2.778767e-09 -1.830378e-04 -3.890910e-09)) ((-8.886639e-12 -2.414698e-13 -2.372741e-12) (1.419308e-10 7.046988e-12 -1.550867e-10))
0.311504      	((-2.752266e-08 -2.540093e-05 -7.645384e-09) (-6.040505e-09 -1.637494e-04 -3.228578e-09)) ((-5.262149e-12 -1.705017e-13 -2.785693e-13) (1.215854e-10 6.352404e-12 -2.245960e-10))
0.385805      	((-2.422334e-08 -3.644289e-05 -7.717376e-09) (-7.010095e-09 -1.462959e-04 -2.687966e-09)) ((-3.096000e-12 1.746048e-13 1.833968e-12) (9.744536e-11 6.042758e-12 -3.076069e-10))
0.474966      	((-1.414299e-08 -4.215760e-05 -7.149040e-09) (-4.824307e-09 -1.309132e-04 -2.190844e-09)) ((-2.088670e-12 -9.292122e-14 1.684974e-12) (7.812701e-11 5.272094e-12 -3.060351e-10))
0.581959      	((-2.593520e-09 -4.452505e-05 -5.862973e-09) (-2.337561e-09 -1.173776e-04 -1.768899e-09)) ((-1.375231e-12 4.931230e-14 -4.621512e-13) (6.013055e-11 4.407351e-12 -2.376140e-10))
0.710351      	((-2.376713e-09 -4.447437e-05 -6.830671e-09) (-9.105891e-10 -1.053889e-04 -1.342209e-09)) ((-9.484102e-13 5.911997e-15 2.027037e-12) (4.163320e-11 3.128212e-12 -1.986625e-10))
0.864421      	((-1.159902e-09 -4.292234e-05 -5.626298e-09) (-1.671075e-10 -9.475485e-05 -1.006232e-09)) ((-7.185056e-13 2.379535e-14 5.118095e-12) (2.486411e-11 2.303794e-12 -2.018120e-10))
1.049306      	((2.805345e-10 -4.056865e-05 -4.620599e-09) (-1.956875e-10 -8.531184e-05 -7.323685e-10)) ((-5.720094e-13 2.289674e-14 4.902089e-12) (1.491973e-11 1.762813e-12 -2.058868e-10))
1.271167      	((-2.701146e-09 -3.779699e-05 -2.579812e-09) (-2.672106e-10 -7.693528e-05 -5.287602e-10)) ((-4.291121e-13 1.059686e-14 3.556101e-12) (1.047957e-11 1.007563e-12 -1.984039e-10))
1.5374        	((-1.962322e-09 -3.490953e-05 -9.988427e-10) (8.886303e-10 -6.950501e-05 -3.714344e-10)) ((-2.984935e-13 1.240632e-14 2.672506e-12) (8.983933e-12 4.760278e-13 -1.763554e-10))
1.85688       	((2.347647e-10 -3.214142e-05 -2.903280e-10) (1.990149e-09 -6.291631e-05 -2.404669e-10)) ((-2.236594e-13 1.332231e-14 3.060373e-12) (1.134497e-11 2.538085e-13 -1.553249e-10))
2.240256      	((9.616147e-10 -2.963031e-05 -6.032195e-10) (2.246653e-09 -5.708131e-05 -1.409661e-10)) ((-1.602178e-13 2.070841e-16 3.708835e-12) (1.720201e-11 3.397638e-14 -1.528039e-10))
2.700307      	((-6.599460e-10 -2.739483e-05 -1.358851e-09) (1.979315e-09 -5.191329e-05 -1.007632e-10)) ((-1.452077e-13 1.039218e-14 4.428215e-12) (2.267356e-11 -3.406227e-13 -1.626766e-10))
3.252369      	((-2.326725e-09 -2.543201e-05 -2.716671e-09) (1.514820e-09 -4.732595e-05 -8.904486e-11)) ((-1.914761e-13 6.735393e-15 4.787983e-12) (2.670969e-11 -3.544907e-13 -1.659965e-10))
3.914842      	((-4.474200e-09 -2.376931e-05 -3.509542e-09) (1.284077e-09 -4.325134e-05 -9.609808e-11)) ((-2.621361e-13 -1.157914e-14 5.182806e-12) (3.136915e-11 4.800977e-13 -1.729530e-10))
4.709811      	((-4.676611e-09 -2.242997e-05 -4.499840e-09) (1.121339e-09 -3.964628e-05 -1.772463e-10)) ((-2.757587e-13 -3.057737e-14 6.001945e-12) (3.340406e-11 9.863228e-13 -1.817491e-10))
5.663773      	((-3.746731e-09 -2.139906e-05 -4.829728e-09) (8.212291e-10 -3.647647e-05 -2.769061e-10)) ((-2.251658e-13 -8.181040e-14 7.400097e-12) (2.915693e-11 1.186172e-12 -1.770191e-10))
6.808528      	((-7.429335e-09 -2.070131e-05 -7.983496e-09) (2.293020e-10 -3.370223e-05 -4.462492e-10)) ((-2.446869e-13 -1.023842e-13 8.954189e-12) (2.068216e-11 9.172193e-13 -1.525772e-10))
8.182233      	((-8.500619e-09 -2.035437e-05 -8.697727e-09) (-1.965442e-10 -3.128116e-05 -6.231241e-10)) ((-2.310330e-13 -9.803991e-14 1.045113e-11) (1.644974e-11 9.171296e-13 -1.212548e-10))
9.83068       	((-8.536113e-09 -2.035539e-05 -1.156156e-08) (-3.673604e-10 -2.917481e-05 -8.685381e-10)) ((-2.272946e-13 -9.311069e-14 1.240317e-11) (1.915180e-11 1.242167e-12 -1.185844e-10))
11.808816     	((-8.471351e-09 -2.069735e-05 -1.164331e-08) (-4.671903e-10 -2.735260e-05 -1.153196e-09)) ((-2.505024e-13 -9.793235e-14 1.508920e-11) (2.586475e-11 9.576557e-13 -1.460400e-10))
14.182579     	((-9.296636e-09 -2.136284e-05 -1.161782e-08) (-5.898024e-10 -2.579057e-05 -1.389164e-09)) ((-2.574231e-13 -1.420698e-13 1.858952e-11) (3.447413e-11 6.092631e-13 -2.002483e-10))
17.031095     	((-7.617109e-09 -2.231171e-05 -9.682698e-09) (-7.339425e-10 -2.447297e-05 -1.520309e-09)) ((-2.426405e-13 -1.226483e-13 2.251192e-11) (4.034063e-11 5.267263e-13 -2.599535e-10))
20.449314     	((-5.541491e-09 -2.351843e-05 -8.188090e-09) (-3.886325e-10 -2.337838e-05 -1.547240e-09)) ((-2.570685e-13 -1.137796e-13 2.717143e-11) (4.410542e-11 5.774364e-13 -3.404141e-10))
24.551176     	((-3.569002e-09 -2.491921e-05 -7.101987e-09) (3.015063e-10 -2.248693e-05 -1.557360e-09)) ((-2.532573e-13 -1.211482e-13 3.212356e-11) (4.608104e-11 5.725062e-13 -4.224428e-10))
29.377119     	((-1.504748e-09 -2.639408e-05 -5.970644e-09) (3.154414e-10 -2.178917e-05 -1.534016e-09)) ((-2.709143e-13 -1.155589e-13 3.728681e-11) (5.454280e-11 8.169897e-13 -4.821989e-10))
34.921326     	((1.054690e-09 -2.781597e-05 -3.136307e-09) (3.558779e-10 -2.125295e-05 -1.353063e-09)) ((-3.139277e-13 -8.487889e-14 4.205615e-11) (6.426808e-11 7.708634e-13 -5.240366e-10))
41.178736     	((2.618625e-09 -2.905006e-05 -2.755378e-09) (5.290426e-10 -2.082960e-05 -1.060487e-09)) ((-3.957985e-13 -5.942831e-14 4.572316e-11) (7.290179e-11 7.239062e-13 -5.376457e-10))
48.147537     	((4.215002e-09 -3.007626e-05 -3.614885e-10) (1.128178e-09 -2.047414e-05 -4.249571e-10)) ((-4.418467e-13 -1.264164e-14 4.870720e-11) (7.409524e-11 1.551446e-13 -5.236129e-10))
55.275566     	((7.808459e-09 -3.089080e-05 3.121134e-09) (1.710025e-09 -2.017975e-05 2.766151e-10)) ((-4.491120e-13 6.901287e-15 5.122768e-11) (8.041158e-11 -1.881253e-13 -4.853882e-10))
62.42643      	((1.021733e-08 -3.133729e-05 6.221690e-09) (2.571656e-09 -1.992740e-05 1.036880e-09)) ((-4.467164e-13 3.846411e-14 5.334851e-11) (8.812356e-11 7.204904e-14 -4.308808e-10))
69.592409     	((1.145645e-08 -3.150681e-05 8.445031e-09) (3.324182e-09 -1.970517e-05 1.527029e-09)) ((-4.088667e-13 5.215013e-14 5.511035e-11) (9.666464e-11 1.188179e-12 -3.855664e-10))
76.766252     	((1.124453e-08 -3.152633e-05 8.834286e-09) (3.689104e-09 -1.950159e-05 1.925017e-09)) ((-4.026514e-13 5.751187e-14 5.624671e-11) (1.021489e-10 -1.923514e-13 -3.612173e-10))
83.946527     	((1.042394e-08 -3.142799e-05 8.684277e-09) (3.882243e-09 -1.931592e-05 2.182497e-09)) ((-3.930196e-13 6.757773e-14 5.694007e-11) (1.072737e-10 -1.397334e-12 -3.471164e-10))
91.133968     	((1.015820e-08 -3.128905e-05 8.614596e-09) (3.800941e-09 -1.914529e-05 2.238051e-09)) ((-4.009967e-13 7.573346e-14 5.738287e-11) (1.146885e-10 -8.793900e-13 -3.449304e-10))
98.32844      	((1.057459e-08 -3.112449e-05 8.734864e-09) (3.683836e-09 -1.898678e-05 2.247205e-09)) ((-3.805268e-13 8.241011e-14 5.770388e-11) (1.240461e-10 -5.828587e-13 -3.509220e-10))
105.529178    	((1.170782e-08 -3.097943e-05 8.073541e-09) (3.678202e-09 -1.884153e-05 2.172513e-09)) ((-3.857364e-13 6.098379e-14 5.801679e-11) (1.338148e-10 -1.129001e-12 -3.598524e-10))
112.735576    	((1.307596e-08 -3.087316e-05 8.079571e-09) (3.733242e-09 -1.871093e-05 2.046991e-09)) ((-3.802086e-13 4.248654e-14 5.834391e-11) (1.445180e-10 -1.112416e-12 -3.719323e-10))
119.947207    	((1.472339e-08 -3.078725e-05 7.518358e-09) (3.830312e-09 -1.859474e-05 1.886957e-09)) ((-3.812239e-13 3.038332e-14 5.865174e-11) (1.552368e-10 -6.774012e-13 -3.861007e-10))
127.163646    	((1.788475e-08 -3.068436e-05 7.824597e-09) (3.951722e-09 -1.848979e-05 1.735512e-09)) ((-3.669951e-13 3.242342e-14 5.889041e-11) (1.651311e-10 -4.080889e-13 -4.045091e-10))
134.384479    	((2.044188e-08 -3.060324e-05 7.868182e-09) (4.042152e-09 -1.839523e-05 1.577916e-09)) ((-3.687006e-13 4.163551e-14 5.909968e-11) (1.752060e-10 -1.198925e-13 -4.289950e-10))
141.609357    	((2.407581e-08 -3.052676e-05 8.050053e-09) (4.208830e-09 -1.831010e-05 1.435158e-09)) ((-3.631102e-13 4.362392e-14 5.926325e-11) (1.848979e-10 2.118261e-13 -4.546433e-10))
148.837965    	((2.814332e-08 -3.045598e-05 8.956044e-09) (4.433527e-09 -1.823328e-05 1.364150e-09)) ((-3.523476e-13 4.301922e-14 5.940525e-11) (1.933914e-10 4.720838e-13 -4.784859e-10))
156.070007    	((3.380221e-08 -3.038035e-05 1.067174e-08) (4.810899e-09 -1.816344e-05 1.372402e-09)) ((-3.464063e-13 5.104056e-14 5.952925e-11) (2.016227e-10 7.528797e-13 -4.975715e-10))
163.305206    	((3.946911e-08 -3.030344e-05 1.239979e-08) (5.364917e-09 -1.809975e-05 1.448366e-09)) ((-3.424443e-13 5.712464e-14 5.965284e-11) (2.086940e-10 9.422475e-13 -5.121782e-10))
170.543316    	((4.610338e-08 -3.022925e-05 1.461661e-08) (6.088824e-09 -1.804151e-05 1.608931e-09)) ((-3.320365e-13 6.680169e-14 5.976426e-11) (2.152579e-10 9.242534e-13 -5.259335e-10))
177.784122    	((5.280668e-08 -3.015887e-05 1.654251e-08) (6.955001e-09 -1.798805e-05 1.820123e-09)) ((-3.248893e-13 7.729154e-14 5.987058e-11) (2.212877e-10 9.393244e-13 -5.384857e-10))
185.027434    	((5.919048e-08 -3.008681e-05 1.929837e-08) (7.937809e-09 -1.793849e-05 2.120120e-09)) ((-2.937573e-13 8.219091e-14 5.997098e-11) (2.255010e-10 9.729088e-13 -5.476594e-10))
192.27308     	((6.525631e-08 -3.002076e-05 2.101712e-08) (9.013010e-09 -1.789248e-05 2.448474e-09)) ((-2.873366e-13 8.046601e-14 6.006745e-11) (2.289400e-10 1.067172e-12 -5.539056e-10))
199.520906    	((7.160578e-08 -2.995759e-05 2.300772e-08) (1.012643e-08 -1.784981e-05 2.794899e-09)) ((-2.699481e-13 7.953860e-14 6.015494e-11) (2.304937e-10 1.021180e-12 -5.575719e-10))
206.770755    	((7.830822e-08 -2.989927e-05 2.490609e-08) (1.127161e-08 -1.781037e-05 3.157757e-09)) ((-2.527163e-13 7.450529e-14 6.022932e-11) (2.299977e-10 9.709856e-13 -5.593621e-10))
214.022385    	((8.489068e-08 -2.984470e-05 2.656484e-08) (1.246040e-08 -1.777406e-05 3.514791e-09)) ((-2.370649e-13 6.991240e-14 6.029427e-11) (2.285378e-10 1.056799e-12 -5.605331e-10))
221.275685    	((9.299171e-08 -2.979085e-05 2.883349e-08) (1.373988e-08 -1.774045e-05 3.906330e-09)) ((-2.143522e-13 6.430202e-14 6.034838e-11) (2.267754e-10 1.178070e-12 -5.612581e-10))
228.530553    	((1.011701e-07 -2.974011e-05 3.070114e-08) (1.511665e-08 -1.770935e-05 4.304963e-09)) ((-2.010444e-13 6.080921e-14 6.040064e-11) (2.245455e-10 1.222973e-12 -5.619308e-10))
235.7869      	((1.100787e-07 -2.969184e-05 3.320044e-08) (1.660203e-08 -1.768053e-05 4.746390e-09)) ((-1.775110e-13 5.317038e-14 6.044738e-11) (2.222326e-10 1.070152e-12 -5.631503e-10))
243.044647    	((1.200107e-07 -2.964806e-05 3.554980e-08) (1.820753e-08 -1.765393e-05 5.198330e-09)) ((-1.544875e-13 4.389744e-14 6.049035e-11) (2.204759e-10 1.004431e-12 -5.655078e-10))
250.303726    	((1.291961e-07 -2.960746e-05 3.766495e-08) (1.983244e-08 -1.762950e-05 5.641150e-09)) ((-1.365836e-13 3.634582e-14 6.053054e-11) (2.187551e-10 8.885476e-13 -5.691925e-10))
257.564072    	((1.389587e-07 -2.956872e-05 3.967026e-08) (2.149520e-08 -1.760700e-05 6.078547e-09)) ((-1.216338e-13 3.243080e-14 6.056742e-11) (2.169544e-10 6.184038e-13 -5.751253e-10))
264.825621    	((1.478852e-07 -2.953125e-05 4.153093e-08) (2.308537e-08 -1.758623e-05 6.485686e-09)) ((-1.063184e-13 2.689466e-14 6.059488e-11) (2.158296e-10 4.884486e-13 -5.836444e-10))
272.088306    	((1.575103e-07 -2.949371e-05 4.340403e-08) (2.464323e-08 -1.756691e-05 6.864810e-09)) ((-8.920559e-14 1.741639e-14 6.061282e-11) (2.158966e-10 4.232636e-13 -5.952822e-10))
279.352056    	((1.677705e-07 -2.945689e-05 4.550192e-08) (2.622276e-08 -1.754881e-05 7.226231e-09)) ((-7.197234e-14 8.781734e-15 6.062529e-11) (2.171483e-10 4.150296e-13 -6.103528e-10))
286.616803    	((1.792104e-07 -2.942226e-05 4.798444e-08) (2.784294e-08 -1.753183e-05 7.590103e-09)) ((-4.749442e-14 3.522546e-15 6.063452e-11) (2.195717e-10 4.515215e-13 -6.288984e-10))
293.882487    	((1.922217e-07 -2.938966e-05 5.083452e-08) (2.958628e-08 -1.751589e-05 7.978885e-09)) ((-2.138942e-14 -1.424320e-15 6.064220e-11) (2.231314e-10 4.905145e-13 -6.507198e-10))
301.149014    	((2.056707e-07 -2.935928e-05 5.398633e-08) (3.142796e-08 -1.750094e-05 8.391294e-09)) ((5.374000e-15 -5.690946e-15 6.064990e-11) (2.278733e-10 5.252046e-13 -6.757103e-10))
308.416254    	((2.193960e-07 -2.933129e-05 5.715788e-08) (3.331985e-08 -1.748691e-05 8.811582e-09)) ((2.919145e-14 -1.017729e-14 6.065770e-11) (2.338952e-10 5.568480e-13 -7.039861e-10))
315.684145    	((2.336174e-07 -2.930503e-05 6.063603e-08) (3.525144e-08 -1.747375e-05 9.240736e-09)) ((5.544871e-14 -1.528876e-14 6.066510e-11) (2.413148e-10 5.629504e-13 -7.352117e-10))
322.952629    	((2.488061e-07 -2.928032e-05 6.442924e-08) (3.724280e-08 -1.746138e-05 9.694941e-09)) ((8.319231e-14 -1.898354e-14 6.067260e-11) (2.500618e-10 4.997402e-13 -7.693056e-10))
330.221651    	((2.652321e-07 -2.925652e-05 6.868201e-08) (3.933038e-08 -1.744968e-05 1.019191e-08)) ((1.141727e-13 -2.514928e-14 6.067987e-11) (2.596588e-10 2.711546e-13 -8.060460e-10))
337.491157    	((2.830583e-07 -2.923427e-05 7.317789e-08) (4.155883e-08 -1.743860e-05 1.073284e-08)) ((1.459950e-13 -3.056161e-14 6.068669e-11) (2.697131e-10 3.868706e-14 -8.449570e-10))
344.761096    	((3.026074e-07 -2.921372e-05 7.842092e-08) (4.397226e-08 -1.742813e-05 1.133603e-08)) ((1.839700e-13 -3.733107e-14 6.069146e-11) (2.805420e-10 -9.523371e-14 -8.858200e-10))
352.031417    	((3.238899e-07 -2.919467e-05 8.406974e-08) (4.660390e-08 -1.741828e-05 1.201099e-08)) ((2.242798e-13 -4.571791e-14 6.069528e-11) (2.920454e-10 -1.667337e-13 -9.287976e-10))
359.302071    	((3.471251e-07 -2.917687e-05 9.020104e-08) (4.948134e-08 -1.740903e-05 1.276031e-08)) ((2.664967e-13 -5.395495e-14 6.069764e-11) (3.040052e-10 -1.542657e-13 -9.740778e-10))
366.573006    	((3.724192e-07 -2.916012e-05 9.686146e-08) (5.263621e-08 -1.740036e-05 1.359066e-08)) ((3.120040e-13 -6.086982e-14 6.069673e-11) (3.164027e-10 -8.492727e-14 -1.021794e-09))
373.844173    	((3.996807e-07 -2.914448e-05 1.040450e-07) (5.608707e-08 -1.739224e-05 1.450443e-08)) ((3.597610e-13 -6.787063e-14 6.069400e-11) (3.293535e-10 1.147117e-14 -1.071791e-09))
381.115521    	((4.289878e-07 -2.912960e-05 1.117190e-07) (5.985170e-08 -1.738462e-05 1.550106e-08)) ((4.081436e-13 -7.379304e-14 6.069052e-11) (3.428866e-10 1.137622e-13 -1.124035e-09))
388.386999    	((4.601760e-07 -2.911594e-05 1.197506e-07) (6.393453e-08 -1.737749e-05 1.657270e-08)) ((4.563491e-13 -7.793197e-14 6.068808e-11) (3.568170e-10 2.027222e-13 -1.178332e-09))
395.65856     	((4.932047e-07 -2.910299e-05 1.281559e-07) (6.833963e-08 -1.737081e-05 1.771822e-08)) ((5.072543e-13 -8.049393e-14 6.068417e-11) (3.709566e-10 3.411367e-13 -1.234445e-09))
402.930154    	((5.278379e-07 -2.909079e-05 1.370981e-07) (7.305770e-08 -1.736455e-05 1.895174e-08)) ((5.646895e-13 -8.107350e-14 6.068010e-11) (3.850601e-10 4.618145e-13 -1.292019e-09))
410.201735    	((5.641029e-07 -2.907934e-05 1.465391e-07) (7.808390e-08 -1.735870e-05 2.027695e-08)) ((6.276628e-13 -7.850550e-14 6.067527e-11) (3.990492e-10 6.109332e-13 -1.350794e-09))
417.47326     	((6.019212e-07 -2.906844e-05 1.564315e-07) (8.341466e-08 -1.735321e-05 2.169845e-08)) ((6.929687e-13 -7.330206e-14 6.067030e-11) (4.126831e-10 7.736434e-13 -1.410416e-09))
424.744686    	((6.413324e-07 -2.905812e-05 1.667374e-07) (8.905113e-08 -1.734805e-05 2.321471e-08)) ((7.593018e-13 -6.562430e-14 6.066540e-11) (4.259285e-10 9.681672e-13 -1.470596e-09))
432.015972    	((6.824018e-07 -2.904842e-05 1.774571e-07) (9.500054e-08 -1.734321e-05 2.482032e-08)) ((8.283210e-13 -5.616592e-14 6.066042e-11) (4.388511e-10 1.210988e-12 -1.531117e-09))
439.287079    	((7.252295e-07 -2.903925e-05 1.887227e-07) (1.012702e-07 -1.733866e-05 2.651589e-08)) ((9.025286e-13 -4.664402e-14 6.065559e-11) (4.516645e-10 1.530898e-12 -1.591888e-09))
446.55797     	((7.700727e-07 -2.903051e-05 2.005385e-07) (1.078882e-07 -1.733438e-05 2.830594e-08)) ((9.809203e-13 -3.734037e-14 6.065047e-11) (4.644595e-10 1.974488e-12 -1.652732e-09))
453.828607    	((8.169834e-07 -2.902255e-05 2.130310e-07) (1.148610e-07 -1.733035e-05 3.019828e-08)) ((1.064863e-12 -2.881717e-14 6.064403e-11) (4.774809e-10 2.547415e-12 -1.714044e-09))
