# Forces      
# CofR        : (0.000000e+00 0.000000e+00 0.000000e+00)
# Time        forces(pressure viscous)	moments(pressure viscous)
0             	((0.000000e+00 0.000000e+00 0.000000e+00) (0.000000e+00 0.000000e+00 0.000000e+00)) ((0.000000e+00 0.000000e+00 0.000000e+00) (0.000000e+00 0.000000e+00 0.000000e+00))
0.012         	((-1.585180e-10 2.859284e-10 6.848310e-08) (1.205944e-12 1.552103e-12 1.440613e-09)) ((-3.088020e-14 2.668237e-09 -1.273420e-15) (5.834370e-16 1.759058e-06 -1.041306e-13))
0.0264        	((2.660071e-10 -3.057966e-10 -2.572898e-08) (4.045585e-13 4.267135e-12 2.506227e-09)) ((-6.354409e-15 1.340921e-09 1.304587e-13) (4.081191e-14 1.611194e-06 -1.506893e-13))
0.04368       	((7.466890e-10 1.645933e-09 2.390320e-08) (7.529974e-13 3.829783e-12 2.725684e-09)) ((2.225895e-14 7.462547e-10 7.999053e-14) (-6.842231e-14 1.459346e-06 -2.143935e-13))
0.064416      	((-6.609962e-11 -4.743563e-10 7.519817e-10) (-4.913225e-12 -1.199728e-12 2.241991e-09)) ((-1.997338e-15 4.319382e-10 -2.168640e-15) (-2.544329e-13 1.306914e-06 -3.183385e-13))
0.0892992     	((1.066438e-09 5.082172e-10 2.592686e-09) (-2.440121e-11 -7.042836e-12 1.830500e-09)) ((-7.552326e-15 3.257492e-10 1.080498e-15) (-3.566592e-13 1.158433e-06 -3.595858e-13))
0.119159      	((2.597334e-10 -1.172611e-10 5.933378e-10) (-3.409361e-11 -1.194865e-11 1.552158e-09)) ((1.863422e-15 2.384214e-10 1.886110e-15) (-4.515839e-13 1.018532e-06 -4.190452e-13))
0.154991      	((-4.562244e-10 -3.142655e-10 -2.035833e-09) (-3.582704e-11 -1.847564e-11 1.272466e-09)) ((-7.650191e-15 1.918269e-10 1.449439e-14) (-5.502458e-13 8.904804e-07 -4.555908e-13))
0.197989      	((-6.365450e-10 -2.185014e-10 2.867610e-10) (-4.150585e-11 -2.420627e-11 1.026599e-09)) ((-1.041923e-14 1.545064e-10 1.675742e-14) (-6.725657e-13 7.770540e-07 -4.561153e-13))
0.249587      	((-6.488112e-10 -2.435628e-10 -1.724472e-09) (-2.998275e-11 -2.735172e-11 8.635103e-10)) ((-1.063488e-14 1.285489e-10 -4.596431e-15) (-7.946026e-13 6.796179e-07 -4.710221e-13))
0.311504      	((-4.659001e-10 9.418456e-11 -4.628534e-11) (3.522575e-12 -2.820452e-11 7.382278e-10)) ((-1.501452e-14 1.081729e-10 -8.098961e-15) (-6.797386e-13 5.978527e-07 -4.065047e-13))
0.385805      	((-6.984884e-10 8.222191e-11 -3.122858e-10) (2.312272e-11 -2.669629e-11 6.096327e-10)) ((-6.311450e-15 9.410937e-11 -2.076265e-14) (-5.168813e-13 5.300056e-07 -3.154241e-13))
0.474966      	((-7.484811e-11 -3.776141e-11 6.796684e-10) (2.951905e-11 -2.490643e-11 4.705034e-10)) ((-3.942749e-15 8.463077e-11 -1.491389e-14) (-3.656611e-13 4.734692e-07 -1.623791e-13))
0.581959      	((-1.054820e-09 -2.383215e-10 -1.782871e-10) (3.767298e-11 -2.905763e-11 3.483886e-10)) ((-1.718894e-14 7.597391e-11 -1.342413e-14) (-3.766840e-13 4.256547e-07 1.731409e-14))
0.710351      	((-6.088963e-10 -2.760697e-10 8.621764e-10) (6.283763e-11 -3.074518e-11 2.531533e-10)) ((-2.420136e-14 6.779239e-11 -1.285984e-14) (-5.562557e-13 3.844653e-07 1.970052e-13))
0.864421      	((-5.242515e-10 -4.052862e-10 3.386032e-10) (1.152774e-10 -1.224990e-11 1.012245e-10)) ((-3.381292e-14 6.214109e-11 -1.923381e-16) (-4.838354e-13 3.483773e-07 2.050114e-13))
1.049306      	((3.270490e-11 -3.651589e-10 1.241129e-09) (1.142158e-10 6.309622e-12 -1.620729e-11)) ((-2.771574e-14 5.850516e-11 5.761404e-15) (1.657183e-14 3.163426e-07 9.081031e-14))
1.271167      	((-1.262839e-09 -1.990467e-10 1.283972e-09) (1.025162e-10 1.775180e-11 -1.168335e-10)) ((-9.745184e-15 5.511689e-11 6.265322e-15) (6.533442e-13 2.876396e-07 1.534692e-13))
1.5374        	((-5.804183e-10 -8.099181e-11 1.200733e-09) (1.044031e-10 2.412921e-11 -1.956775e-10)) ((4.396150e-15 5.101815e-11 2.003709e-14) (1.115192e-12 2.617937e-07 3.687427e-13))
1.85688       	((-1.124453e-09 -8.339847e-11 9.745217e-10) (9.759289e-11 9.588974e-12 -2.378197e-10)) ((1.999234e-14 4.684512e-11 2.427897e-14) (1.934086e-12 2.385393e-07 1.237346e-12))
2.240256      	((-1.318009e-09 -9.949308e-11 1.008926e-09) (1.094601e-10 -1.027105e-11 -2.749990e-10)) ((2.356096e-14 4.346261e-11 1.812254e-14) (3.129270e-12 2.177387e-07 2.774861e-12))
2.700307      	((-1.905919e-09 -5.082861e-11 7.829442e-11) (1.674524e-10 -2.393742e-11 -3.066121e-10)) ((2.868084e-14 4.079478e-11 2.343383e-14) (4.033099e-12 1.992859e-07 4.394711e-12))
3.252369      	((-1.463695e-09 3.125471e-11 -2.011323e-10) (2.425457e-10 -3.484457e-11 -3.961053e-10)) ((4.001346e-14 3.805099e-11 2.708634e-14) (4.972809e-12 1.830333e-07 6.219303e-12))
3.914842      	((-8.645453e-10 5.619527e-11 -5.470813e-10) (3.415981e-10 -3.829890e-11 -4.694911e-10)) ((3.558191e-14 3.529112e-11 2.012248e-14) (5.499629e-12 1.687574e-07 7.972456e-12))
4.709811      	((-2.881357e-10 -6.919244e-11 5.670393e-11) (3.917526e-10 -3.570290e-11 -4.878832e-10)) ((1.848120e-14 3.258480e-11 4.546778e-15) (6.236729e-12 1.561594e-07 8.670833e-12))
5.663773      	((9.197494e-11 -5.854869e-11 2.090683e-10) (3.589376e-10 -3.894568e-11 -4.657022e-10)) ((8.974362e-15 2.980672e-11 -2.347931e-15) (6.743686e-12 1.449332e-07 8.515697e-12))
6.808528      	((3.277342e-10 -7.027733e-11 1.610704e-10) (3.088651e-10 -3.965067e-11 -3.760323e-10)) ((1.488395e-14 2.707890e-11 1.192466e-15) (6.319278e-12 1.348177e-07 7.491244e-12))
8.182233      	((4.506803e-10 -1.616079e-10 2.600915e-10) (1.999219e-10 -4.407651e-11 -2.962441e-10)) ((1.461240e-14 2.455689e-11 4.043410e-15) (5.312785e-12 1.256156e-07 6.227638e-12))
9.83068       	((4.142135e-10 -1.669669e-10 3.336221e-10) (1.177627e-10 -5.200186e-11 -2.201724e-10)) ((5.229370e-15 2.214499e-11 3.582496e-15) (4.085760e-12 1.171830e-07 5.365361e-12))
11.808816     	((1.913077e-10 -1.746964e-10 3.465296e-10) (7.241681e-11 -4.190945e-11 -1.281019e-10)) ((-8.305057e-16 1.996705e-11 -4.616488e-15) (3.025133e-12 1.094181e-07 4.429713e-12))
14.182579     	((-7.880062e-11 -1.367417e-10 2.632714e-10) (3.546718e-11 -3.687343e-11 -7.696805e-11)) ((9.750080e-15 1.803926e-11 -1.353400e-14) (2.279318e-12 1.022552e-07 3.619354e-12))
17.031095     	((-7.383882e-12 -1.292656e-10 3.275081e-10) (-4.099464e-12 -3.314472e-11 -8.700024e-11)) ((1.370761e-14 1.634691e-11 -1.848718e-14) (1.491456e-12 9.565588e-08 3.016094e-12))
20.449314     	((-2.106446e-11 -7.895570e-11 2.358326e-10) (-3.102860e-11 -2.953537e-11 -8.131270e-11)) ((2.438166e-14 1.489775e-11 -2.267310e-14) (7.877667e-13 8.960915e-08 2.346773e-12))
24.551176     	((-1.144514e-11 -3.508948e-11 1.454499e-10) (-5.814489e-11 -2.800210e-11 -8.849871e-11)) ((3.023515e-14 1.363425e-11 -2.453199e-14) (4.196351e-13 8.409877e-08 1.970557e-12))
29.473411     	((-1.070959e-10 -2.411293e-11 7.644905e-11) (-9.394967e-11 -1.816400e-11 -1.087419e-10)) ((3.487227e-14 1.249897e-11 -2.024086e-14) (1.950330e-14 7.909323e-08 1.926769e-12))
35.380094     	((-1.787108e-10 -1.588809e-11 6.850617e-11) (-1.116101e-10 -3.867477e-12 -8.644277e-11)) ((3.637622e-14 1.149796e-11 -1.488645e-14) (-3.573614e-13 7.455375e-08 2.003319e-12))
42.468112     	((-2.514997e-10 -1.872324e-11 7.752826e-12) (-1.101848e-10 2.619352e-12 -7.310273e-11)) ((3.548930e-14 1.060578e-11 -8.840696e-15) (-3.522289e-13 7.043713e-08 2.133655e-12))
50.973735     	((-8.153513e-11 -1.663529e-11 8.532281e-11) (-8.925659e-11 2.590254e-12 -7.119520e-11)) ((3.417320e-14 9.845470e-12 -3.973178e-15) (9.357547e-14 6.670062e-08 2.208658e-12))
61.180482     	((4.755326e-11 -2.629087e-11 1.736855e-10) (-5.012492e-11 3.146311e-12 -9.011868e-11)) ((3.023984e-14 9.172075e-12 -5.774361e-15) (4.451321e-13 6.330542e-08 2.305589e-12))
73.428578     	((1.096270e-10 4.621647e-12 2.056985e-10) (-2.018595e-11 1.226797e-11 -1.036722e-10)) ((2.333404e-14 8.579920e-12 -5.132881e-15) (5.155193e-13 6.021824e-08 2.246267e-12))
88.126294     	((5.774962e-11 -3.821031e-12 1.582524e-10) (-3.415809e-11 1.413954e-11 -1.038505e-10)) ((1.758270e-14 8.076024e-12 -5.111419e-15) (4.694488e-13 5.740949e-08 2.109751e-12))
105.763553    	((8.666702e-11 -7.220638e-12 1.985288e-10) (-4.161365e-11 1.616128e-11 -1.085493e-10)) ((1.258267e-14 7.634948e-12 -3.960259e-15) (5.389070e-13 5.485929e-08 2.051039e-12))
126.928263    	((5.577919e-11 -1.478741e-11 1.760311e-10) (-5.894776e-11 1.570145e-11 -1.068338e-10)) ((1.407850e-14 7.234314e-12 -4.114335e-15) (6.901177e-13 5.254885e-08 1.935876e-12))
152.325916    	((4.787808e-11 -1.023937e-12 2.109622e-10) (-6.123604e-11 1.840328e-11 -1.034959e-10)) ((1.748476e-14 6.842278e-12 -3.600123e-15) (8.498617e-13 5.046041e-08 1.709547e-12))
182.803099    	((2.443737e-11 -8.000620e-12 1.915861e-10) (-7.466097e-11 2.527317e-11 -9.732563e-11)) ((1.828159e-14 6.478238e-12 -2.960527e-15) (1.011829e-12 4.857702e-08 1.451996e-12))
219.375719    	((-3.159691e-11 5.961692e-13 8.853921e-11) (-7.345336e-11 2.671692e-11 -8.688175e-11)) ((1.844119e-14 6.155221e-12 -4.173219e-15) (1.112799e-12 4.688257e-08 1.063692e-12))
263.262863    	((-7.727080e-11 1.552890e-11 5.774282e-11) (-8.155912e-11 2.391797e-11 -7.971527e-11)) ((1.746008e-14 5.884774e-12 -4.676155e-15) (1.152543e-12 4.536296e-08 6.234151e-13))
315.243551    	((-1.011149e-10 9.703086e-12 2.525707e-11) (-9.754508e-11 1.825441e-11 -7.221672e-11)) ((1.670781e-14 5.651199e-12 -3.771062e-15) (1.147663e-12 4.401158e-08 2.216386e-13))
375.316299    	((-9.079236e-11 -3.898143e-13 3.329124e-11) (-8.869033e-11 8.678955e-12 -6.496570e-11)) ((1.645528e-14 5.456985e-12 -2.785595e-15) (1.073422e-12 4.282331e-08 -5.740868e-14))
443.479507    	((-1.028783e-10 -7.583593e-12 2.780293e-11) (-9.257471e-11 3.748403e-12 -5.582642e-11)) ((1.678222e-14 5.295483e-12 -1.080388e-15) (9.559186e-13 4.178863e-08 -3.230059e-13))
519.731624    	((-1.219796e-10 1.656839e-12 1.548335e-11) (-8.784976e-11 2.585015e-12 -5.610466e-11)) ((1.675965e-14 5.159858e-12 9.010488e-16) (7.742487e-13 4.089603e-08 -5.543422e-13))
600.606011    	((-1.576852e-10 8.532061e-12 -2.757877e-12) (-7.122851e-11 4.599290e-12 -5.046186e-11)) ((1.671636e-14 5.043477e-12 1.508187e-15) (5.894719e-13 4.013913e-08 -6.773683e-13))
681.462217    	((-1.633725e-10 1.909016e-12 -1.964409e-11) (-5.453725e-11 6.645919e-12 -3.378303e-11)) ((1.687102e-14 4.947659e-12 1.420151e-15) (3.982668e-13 3.951034e-08 -6.428999e-13))
762.30232     	((-1.629472e-10 4.729816e-12 -3.116004e-11) (-4.386817e-11 8.614747e-12 -1.554091e-11)) ((1.710797e-14 4.866968e-12 1.126503e-15) (2.500367e-13 3.899399e-08 -5.797376e-13))
843.128733    	((-1.617586e-10 7.809808e-12 -4.340859e-11) (-3.479768e-11 1.186225e-11 -3.251840e-12)) ((1.693310e-14 4.799748e-12 1.268490e-15) (1.179665e-13 3.857341e-08 -5.122387e-13))
923.943785    	((-1.596482e-10 1.314756e-11 -4.343801e-11) (-2.377876e-11 1.409832e-11 6.921860e-12)) ((1.656472e-14 4.745605e-12 1.707165e-15) (1.796249e-14 3.823206e-08 -4.226831e-13))
1004.747586   	((-1.545056e-10 1.846666e-11 -4.384893e-11) (-1.307563e-11 1.512524e-11 1.284207e-11)) ((1.632446e-14 4.701577e-12 1.671044e-15) (-6.492797e-14 3.795594e-08 -2.980135e-13))
1085.540133   	((-1.593625e-10 1.890200e-11 -4.790783e-11) (-7.184979e-12 1.519809e-11 1.581723e-11)) ((1.624963e-14 4.664971e-12 1.874825e-15) (-1.303165e-13 3.773314e-08 -1.924831e-13))
1166.323755   	((-1.598128e-10 1.832056e-11 -5.246308e-11) (-2.400314e-12 1.615867e-11 1.800165e-11)) ((1.615598e-14 4.634654e-12 1.894807e-15) (-1.699307e-13 3.755432e-08 -1.462793e-13))
1247.100713   	((-1.605698e-10 1.971012e-11 -5.394217e-11) (-7.302480e-13 1.662447e-11 1.805702e-11)) ((1.624434e-14 4.609288e-12 1.848288e-15) (-2.229031e-13 3.741164e-08 -1.258256e-13))
1327.873184   	((-1.618791e-10 2.499805e-11 -5.897723e-11) (-1.012499e-12 1.608474e-11 1.900596e-11)) ((1.633522e-14 4.588953e-12 1.727269e-15) (-2.977572e-13 3.729877e-08 -9.662556e-14))
1408.643367   	((-1.611130e-10 2.605457e-11 -5.793566e-11) (-1.801522e-12 1.487682e-11 1.994218e-11)) ((1.653493e-14 4.573117e-12 1.627646e-15) (-3.965948e-13 3.721037e-08 -4.983034e-14))
1489.413407   	((-1.587513e-10 2.659242e-11 -5.439251e-11) (-1.474301e-12 1.401200e-11 2.101461e-11)) ((1.672872e-14 4.560254e-12 1.545179e-15) (-5.013467e-13 3.714209e-08 1.693645e-14))
1570.185218   	((-1.515714e-10 2.796687e-11 -4.992936e-11) (-1.596145e-13 1.340589e-11 2.105116e-11)) ((1.683024e-14 4.549180e-12 1.555097e-15) (-5.893605e-13 3.709027e-08 9.919932e-14))
1650.958628   	((-1.461017e-10 2.811694e-11 -4.841123e-11) (-3.222399e-13 1.278299e-11 2.211166e-11)) ((1.675644e-14 4.540303e-12 1.610354e-15) (-6.543695e-13 3.705197e-08 1.876688e-13))
1731.733068   	((-1.399703e-10 2.816379e-11 -4.744875e-11) (-1.179477e-13 1.226105e-11 2.368575e-11)) ((1.666067e-14 4.534009e-12 1.686134e-15) (-7.102422e-13 3.702474e-08 2.641419e-13))
1812.50984    	((-1.337085e-10 2.879331e-11 -4.476030e-11) (1.458669e-12 1.193622e-11 2.441481e-11)) ((1.652679e-14 4.529816e-12 1.770271e-15) (-7.476420e-13 3.700651e-08 3.313227e-13))
1893.290113   	((-1.303341e-10 2.878895e-11 -4.246127e-11) (5.090512e-12 1.182571e-11 2.509639e-11)) ((1.641635e-14 4.526878e-12 1.889649e-15) (-7.642078e-13 3.699552e-08 3.828346e-13))
