# Forces      
# CofR        : (0.000000e+00 0.000000e+00 0.000000e+00)
# Time        forces(pressure viscous)	moments(pressure viscous)
0             	((0.000000e+00 0.000000e+00 0.000000e+00) (0.000000e+00 0.000000e+00 0.000000e+00)) ((0.000000e+00 0.000000e+00 0.000000e+00) (0.000000e+00 0.000000e+00 0.000000e+00))
0.012         	((7.097560e-11 -1.092914e-10 -2.725378e-08) (1.921584e-13 -8.255205e-13 -5.727698e-10)) ((2.441960e-14 -1.060927e-09 -8.125286e-15) (9.975607e-17 -7.002906e-07 2.913276e-14))
0.0264        	((-1.192994e-10 9.704911e-11 1.023914e-08) (-7.178473e-14 -2.048821e-12 -9.960297e-10)) ((1.129939e-14 -5.318682e-10 -5.701883e-14) (-1.791000e-14 -6.414170e-07 3.409564e-14))
0.04368       	((-4.302258e-10 -6.377232e-10 -9.492571e-09) (-1.685385e-12 -1.738134e-12 -1.080984e-09)) ((-6.121652e-15 -2.943631e-10 -3.510594e-14) (3.302798e-14 -5.809316e-07 4.939476e-14))
0.064416      	((1.371395e-10 1.610433e-10 -3.540197e-10) (-5.134270e-12 3.103251e-13 -8.915978e-10)) ((2.369863e-15 -1.686512e-10 1.884412e-15) (1.116485e-13 -5.201680e-07 7.259203e-14))
0.0892992     	((-3.130979e-10 -1.874973e-10 -1.120649e-09) (-1.012580e-11 2.584083e-12 -7.349652e-10)) ((4.075549e-15 -1.259970e-10 -4.317124e-16) (1.600522e-13 -4.609117e-07 7.837166e-14))
0.119159      	((2.464722e-10 4.846338e-11 -2.509531e-10) (-1.349375e-11 4.912835e-12 -6.239893e-10)) ((-7.064304e-16 -9.112653e-11 -2.661237e-16) (2.285041e-13 -4.049954e-07 9.597037e-14))
0.154991      	((8.206397e-11 1.409388e-10 7.924900e-10) (-1.670260e-11 8.189706e-12 -5.060423e-10)) ((2.585344e-15 -7.253827e-11 -5.414058e-15) (3.023612e-13 -3.537146e-07 1.208117e-13))
0.197989      	((6.039209e-11 7.299306e-11 -5.451872e-11) (-1.948688e-11 1.088371e-11 -4.000026e-10)) ((2.507870e-15 -5.800983e-11 -5.565106e-15) (3.250591e-13 -3.082660e-07 1.440017e-13))
0.249587      	((-1.066360e-10 1.006336e-10 6.743221e-10) (-1.723769e-11 1.207030e-11 -3.211551e-10)) ((5.195203e-15 -4.802738e-11 2.114721e-15) (3.141249e-13 -2.692761e-07 1.440693e-13))
0.311504      	((-7.140769e-11 -3.484499e-11 1.264246e-10) (-1.159034e-11 1.302936e-11 -2.569391e-10)) ((1.994516e-15 -4.017126e-11 4.667978e-15) (3.137790e-13 -2.366386e-07 1.104962e-13))
0.385805      	((-7.058710e-11 -5.478208e-11 -2.691875e-11) (-4.288124e-12 1.350155e-11 -2.020771e-10)) ((1.058336e-15 -3.463643e-11 7.976611e-15) (3.097195e-13 -2.096530e-07 9.918548e-14))
0.474966      	((1.123729e-10 1.872142e-11 -2.474855e-10) (1.142955e-12 1.547165e-11 -1.485907e-10)) ((1.965489e-15 -3.096337e-11 6.630223e-15) (2.918959e-13 -1.872661e-07 8.864283e-14))
0.581959      	((1.997627e-11 8.868098e-11 1.284420e-10) (4.326216e-12 1.769896e-11 -1.055215e-10)) ((3.142086e-15 -2.775387e-11 4.763722e-15) (2.341073e-13 -1.684013e-07 3.346213e-14))
0.710351      	((1.657885e-10 1.041569e-10 -3.586375e-10) (6.076289e-12 1.344360e-11 -8.252682e-11)) ((3.224202e-15 -2.467688e-11 2.904552e-15) (7.651887e-14 -1.521770e-07 9.582602e-14))
0.864421      	((1.557982e-10 9.051889e-11 -1.424880e-10) (1.467564e-11 3.617865e-12 -6.188660e-11)) ((4.508146e-15 -2.259668e-11 -3.334895e-16) (-2.966681e-14 -1.379632e-07 2.679852e-13))
1.049306      	((5.987499e-10 7.956270e-11 -1.630046e-10) (6.655681e-12 -6.960667e-12 -1.914845e-11)) ((5.011469e-15 -2.129022e-11 -4.897476e-15) (5.760577e-15 -1.253371e-07 4.041574e-13))
1.271167      	((3.983464e-10 6.721587e-11 -2.728448e-10) (-1.381155e-11 -1.729118e-11 1.898101e-11)) ((3.517662e-15 -1.998506e-11 -3.226163e-15) (-1.229927e-13 -1.140098e-07 3.577671e-13))
1.5374        	((7.354368e-10 -3.315956e-11 -3.424061e-10) (-1.905478e-11 -2.374826e-11 4.545932e-11)) ((-5.031744e-15 -1.843497e-11 -7.129455e-15) (-4.347866e-13 -1.037940e-07 2.377708e-13))
1.85688       	((4.271455e-10 6.722548e-11 -3.202639e-10) (-2.812623e-11 -2.573537e-11 8.484326e-11)) ((-7.727601e-15 -1.698497e-11 -3.000180e-15) (-8.013213e-13 -9.458643e-08 -1.277142e-13))
2.240256      	((2.953138e-10 1.476150e-11 -4.289405e-10) (-4.961141e-11 -1.842843e-11 1.071604e-10)) ((-1.269949e-14 -1.595163e-11 -3.470832e-15) (-1.203337e-12 -8.633545e-08 -8.032136e-13))
2.700307      	((1.509571e-10 2.317185e-11 -3.998480e-10) (-9.485561e-11 -1.077933e-11 1.226364e-10)) ((-1.204904e-14 -1.521014e-11 -5.975346e-15) (-1.840517e-12 -7.900237e-08 -1.763714e-12))
3.252369      	((-1.300168e-12 2.094844e-11 -2.852682e-10) (-1.353883e-10 -5.081278e-12 1.655105e-10)) ((-1.137439e-14 -1.438494e-11 -7.659334e-15) (-2.394987e-12 -7.253325e-08 -2.910663e-12))
3.914842      	((-9.894057e-12 2.825960e-11 -9.702173e-11) (-1.630332e-10 2.283645e-12 2.293026e-10)) ((-4.618249e-15 -1.349446e-11 -1.218720e-14) (-3.001995e-12 -6.684535e-08 -3.603981e-12))
4.709811      	((-2.029373e-11 4.141697e-11 3.422735e-11) (-2.001155e-10 8.831225e-12 2.620369e-10)) ((-2.382641e-15 -1.256547e-11 -1.236246e-14) (-3.508676e-12 -6.182867e-08 -3.897051e-12))
5.663773      	((5.767241e-11 3.369357e-11 6.864430e-11) (-2.116964e-10 5.042634e-12 2.514016e-10)) ((-4.593199e-15 -1.161636e-11 -7.013297e-15) (-3.432147e-12 -5.736362e-08 -3.749365e-12))
6.808528      	((-6.329657e-12 2.175620e-11 4.384206e-11) (-1.951143e-10 -6.601817e-13 2.408191e-10)) ((-7.966290e-15 -1.062791e-11 -3.695060e-15) (-3.075237e-12 -5.334547e-08 -3.312796e-12))
8.182233      	((-5.573985e-11 1.142868e-11 -4.935905e-12) (-1.871303e-10 9.545263e-13 2.057509e-10)) ((-5.199330e-15 -9.681896e-12 -2.381112e-15) (-2.576845e-12 -4.969497e-08 -2.949837e-12))
9.83068       	((-6.587474e-11 2.398748e-11 3.419227e-12) (-1.567316e-10 -3.437518e-13 1.511704e-10)) ((-4.985528e-15 -8.765952e-12 -5.503852e-16) (-2.091367e-12 -4.635238e-08 -2.473638e-12))
11.808816     	((-1.534552e-11 -1.401962e-11 -5.045848e-11) (-1.236538e-10 -9.511926e-12 1.046199e-10)) ((-1.211870e-15 -7.943528e-12 5.649047e-15) (-1.842929e-12 -4.327576e-08 -1.766310e-12))
14.182579     	((1.222645e-11 1.599913e-11 -1.107875e-10) (-8.853278e-11 -1.610404e-11 7.334673e-11)) ((8.593219e-16 -7.199769e-12 8.944869e-15) (-1.478200e-12 -4.043952e-08 -1.160043e-12))
17.031095     	((-1.761563e-12 -1.694020e-11 -1.026257e-10) (-5.740261e-11 -1.838542e-11 5.029765e-11)) ((2.420429e-15 -6.546456e-12 8.131052e-15) (-1.047507e-12 -3.782863e-08 -6.336105e-13))
20.449314     	((3.177168e-11 1.900885e-11 -7.351258e-11) (-3.795894e-11 -1.525352e-11 4.248670e-11)) ((5.850929e-15 -5.963516e-12 8.145837e-15) (-6.667473e-13 -3.543597e-08 -3.417939e-13))
24.551176     	((3.214811e-11 3.684706e-12 -4.757965e-11) (-2.451553e-11 -1.166186e-11 5.193380e-11)) ((8.540162e-15 -5.462262e-12 8.183905e-15) (-4.367752e-13 -3.325211e-08 -1.623632e-13))
29.473411     	((5.687115e-11 8.042675e-12 -5.592426e-11) (-1.947175e-11 -1.146974e-11 6.008329e-11)) ((1.014344e-14 -5.032795e-12 7.543505e-15) (-3.687235e-13 -3.126319e-08 6.523992e-14))
35.380094     	((4.875428e-11 1.357672e-12 -4.372677e-11) (-1.399128e-11 -1.119458e-11 6.993523e-11)) ((1.091841e-14 -4.647106e-12 7.225442e-15) (-4.459894e-13 -2.945286e-08 1.860190e-13))
42.468112     	((4.657623e-11 3.524119e-12 -7.213128e-11) (-9.050731e-12 -1.160757e-11 7.839598e-11)) ((1.045265e-14 -4.308109e-12 6.222367e-15) (-6.299256e-13 -2.780566e-08 1.774650e-13))
50.973735     	((3.563617e-11 -1.357186e-12 -5.996966e-11) (-9.650962e-12 -1.195098e-11 8.033517e-11)) ((9.831352e-15 -4.002886e-12 5.586211e-15) (-7.798970e-13 -2.630673e-08 1.012436e-13))
61.180482     	((4.479178e-11 -3.802224e-12 -1.812060e-11) (-1.489196e-11 -1.178262e-11 8.724471e-11)) ((8.613084e-15 -3.739633e-12 4.865554e-15) (-8.687303e-13 -2.494206e-08 -4.394888e-14))
73.428578     	((5.239497e-11 -3.625204e-13 -6.976790e-12) (-2.154258e-11 -9.771655e-12 9.277920e-11)) ((8.155668e-15 -3.514003e-12 4.539651e-15) (-8.771104e-13 -2.370025e-08 -2.681275e-13))
88.126294     	((2.185529e-11 -3.259125e-12 -1.194405e-11) (-2.286550e-11 -6.438551e-12 9.701437e-11)) ((7.999408e-15 -3.316239e-12 3.256931e-15) (-8.105585e-13 -2.257153e-08 -4.535408e-13))
105.763553    	((-6.519783e-12 -9.027616e-12 -2.137835e-11) (-2.714980e-11 -4.125589e-12 1.003340e-10)) ((7.646610e-15 -3.140248e-12 2.097465e-15) (-6.567889e-13 -2.154772e-08 -5.886935e-13))
126.928263    	((1.054812e-11 -8.277887e-12 -2.367132e-11) (-2.719934e-11 -2.828942e-12 1.011277e-10)) ((6.954487e-15 -2.978529e-12 1.553709e-15) (-5.058036e-13 -2.062105e-08 -6.313791e-13))
152.325916    	((4.504612e-12 -3.045212e-12 -2.589312e-11) (-2.180708e-11 -2.213148e-12 9.420743e-11)) ((6.116521e-15 -2.832187e-12 1.912120e-15) (-4.131779e-13 -1.978212e-08 -6.268066e-13))
182.803099    	((1.305844e-11 -3.357150e-13 -2.669407e-11) (-2.090588e-11 -5.314466e-13 7.924292e-11)) ((4.894436e-15 -2.701809e-12 2.592100e-15) (-3.280996e-13 -1.902189e-08 -6.408947e-13))
219.375719    	((2.668093e-11 -3.155433e-13 -2.573719e-11) (-1.922759e-11 1.692148e-12 6.965249e-11)) ((3.829374e-15 -2.581640e-12 3.116856e-15) (-2.578777e-13 -1.833221e-08 -6.625894e-13))
263.262863    	((3.128218e-11 -1.070804e-12 -2.417971e-11) (-1.364202e-11 3.953217e-12 6.488848e-11)) ((2.834898e-15 -2.469347e-12 3.016732e-15) (-2.136164e-13 -1.770651e-08 -6.495442e-13))
315.927436    	((3.569955e-11 -5.390976e-12 -1.836528e-11) (-9.523260e-12 4.325089e-12 6.071756e-11)) ((1.946759e-15 -2.369623e-12 2.504916e-15) (-1.760253e-13 -1.713984e-08 -6.127472e-13))
379.124923    	((3.948944e-11 -3.210127e-12 -1.608138e-11) (-9.191148e-12 3.796655e-12 5.867207e-11)) ((1.036813e-15 -2.279768e-12 2.085953e-15) (-1.448361e-13 -1.662777e-08 -6.294659e-13))
454.961908    	((3.833982e-11 -7.637134e-12 -1.762399e-11) (-9.021865e-12 3.365789e-12 5.645491e-11)) ((5.666106e-16 -2.196979e-12 1.927890e-15) (-8.042123e-14 -1.616628e-08 -6.556394e-13))
545.966289    	((3.798084e-11 -5.356064e-12 -1.472495e-11) (-1.016417e-11 3.948976e-12 5.056106e-11)) ((2.524120e-16 -2.121956e-12 1.975570e-15) (-1.766173e-14 -1.575167e-08 -6.776133e-13))
655.171547    	((3.752290e-11 -7.383067e-12 -8.707937e-12) (-1.018501e-11 4.318470e-12 4.911360e-11)) ((-8.115663e-17 -2.056523e-12 1.756099e-15) (3.107382e-14 -1.538083e-08 -6.768852e-13))
784.711946    	((4.188508e-11 -7.182981e-12 -4.782632e-12) (-8.675064e-12 4.155918e-12 4.542587e-11)) ((-1.203709e-16 -1.999816e-12 1.826786e-15) (7.206196e-14 -1.505152e-08 -6.481189e-13))
934.586886    	((4.490005e-11 -8.671203e-12 4.716704e-13) (-7.561365e-12 3.570777e-12 4.200977e-11)) ((-7.965664e-17 -1.951320e-12 1.732341e-15) (1.106353e-13 -1.476196e-08 -5.983488e-13))
1104.79664    	((4.934992e-11 -8.146787e-12 4.558532e-12) (-6.147549e-12 3.685969e-12 3.944020e-11)) ((1.642460e-17 -1.909369e-12 1.670699e-15) (1.385709e-13 -1.450946e-08 -5.550942e-13))
1295.341944   	((5.225496e-11 -6.393465e-12 5.916458e-12) (-3.570458e-12 4.147368e-12 3.870187e-11)) ((7.506615e-17 -1.873301e-12 1.791518e-15) (1.504169e-13 -1.429083e-08 -5.127458e-13))
1498.705864   	((5.350459e-11 -2.601715e-12 7.957921e-12) (-1.020775e-12 4.648645e-12 3.798665e-11)) ((4.702976e-17 -1.842505e-12 1.862699e-15) (1.503257e-13 -1.410335e-08 -4.697410e-13))
1702.08504    	((5.576547e-11 -5.126195e-12 1.148418e-11) (1.873597e-12 4.885697e-12 3.811870e-11)) ((1.035922e-16 -1.816601e-12 1.779214e-15) (1.440902e-13 -1.394434e-08 -4.226696e-13))
1905.481972   	((5.756504e-11 -6.416126e-12 1.210828e-11) (4.364984e-12 4.365035e-12 4.032940e-11)) ((1.897396e-16 -1.794773e-12 1.746111e-15) (1.410429e-13 -1.381016e-08 -3.774704e-13))
2108.890553   	((5.989629e-11 -6.142175e-12 1.411483e-11) (7.561982e-12 3.596332e-12 4.092955e-11)) ((3.152284e-16 -1.775738e-12 1.710806e-15) (1.386515e-13 -1.369712e-08 -3.406875e-13))
2312.313652   	((6.259924e-11 -5.582471e-12 1.477036e-11) (1.039795e-11 2.773027e-12 3.967471e-11)) ((4.249818e-16 -1.759231e-12 1.755088e-15) (1.317374e-13 -1.360160e-08 -3.101604e-13))
2515.753398   	((6.344318e-11 -4.407285e-12 1.636174e-11) (1.263170e-11 2.278581e-12 3.820089e-11)) ((5.276102e-16 -1.745009e-12 1.749808e-15) (1.279229e-13 -1.352062e-08 -2.810569e-13))
2719.205741   	((6.367812e-11 -4.462065e-12 1.617425e-11) (1.411704e-11 1.935561e-12 3.727683e-11)) ((6.505627e-16 -1.732833e-12 1.751950e-15) (1.284292e-13 -1.345163e-08 -2.539151e-13))
2922.663204   	((6.350922e-11 -3.777234e-12 1.626699e-11) (1.528404e-11 1.862246e-12 3.650520e-11)) ((6.848487e-16 -1.722718e-12 1.717217e-15) (1.312149e-13 -1.339258e-08 -2.312038e-13))
3126.126045   	((6.260003e-11 -3.740065e-12 1.607674e-11) (1.597119e-11 1.967928e-12 3.562662e-11)) ((7.241066e-16 -1.713984e-12 1.677189e-15) (1.348973e-13 -1.334175e-08 -2.114948e-13))
3329.594276   	((6.170273e-11 -3.647146e-12 1.648358e-11) (1.636972e-11 2.153675e-12 3.468492e-11)) ((7.551245e-16 -1.706342e-12 1.614415e-15) (1.353198e-13 -1.329781e-08 -1.983882e-13))
3533.067778   	((6.077740e-11 -3.594382e-12 1.673183e-11) (1.699354e-11 2.358329e-12 3.410801e-11)) ((8.157440e-16 -1.699613e-12 1.586685e-15) (1.322920e-13 -1.325967e-08 -1.887956e-13))
3736.546464   	((5.955850e-11 -3.755957e-12 1.702705e-11) (1.766799e-11 2.510713e-12 3.383384e-11)) ((8.731809e-16 -1.693696e-12 1.549412e-15) (1.283291e-13 -1.322643e-08 -1.806896e-13))
3940.030205   	((5.837008e-11 -3.808544e-12 1.705674e-11) (1.832326e-11 2.586314e-12 3.361605e-11)) ((8.962973e-16 -1.688365e-12 1.517740e-15) (1.236389e-13 -1.319738e-08 -1.731990e-13))
4143.518698   	((5.758493e-11 -3.478995e-12 1.731130e-11) (1.879406e-11 2.600898e-12 3.324411e-11)) ((9.136164e-16 -1.683632e-12 1.493179e-15) (1.173142e-13 -1.317189e-08 -1.662518e-13))
4347.011819   	((5.683641e-11 -3.127894e-12 1.755813e-11) (1.911704e-11 2.651075e-12 3.295740e-11)) ((9.353377e-16 -1.679458e-12 1.460336e-15) (1.120606e-13 -1.314949e-08 -1.594403e-13))
4550.509605   	((5.596579e-11 -2.854908e-12 1.788951e-11) (1.933027e-11 2.754547e-12 3.282349e-11)) ((9.701057e-16 -1.675759e-12 1.432342e-15) (1.070762e-13 -1.312974e-08 -1.527831e-13))
4754.01171    	((5.505937e-11 -2.951279e-12 1.817925e-11) (1.949347e-11 2.876613e-12 3.274964e-11)) ((1.015197e-15 -1.672502e-12 1.409921e-15) (1.022964e-13 -1.311230e-08 -1.465284e-13))
