# Forces      
# CofR        : (0.000000e+00 0.000000e+00 0.000000e+00)
# Time        forces(pressure viscous)	moments(pressure viscous)
0             	((0.000000e+00 0.000000e+00 0.000000e+00) (0.000000e+00 0.000000e+00 0.000000e+00)) ((0.000000e+00 0.000000e+00 0.000000e+00) (0.000000e+00 0.000000e+00 0.000000e+00))
0.012         	((-1.108767e-12 1.422931e-12 -2.798389e-12) (1.239681e-15 2.672200e-15 1.843227e-14)) ((1.264441e-11 -1.206952e-15 -2.471736e-17) (8.816079e-09 9.665335e-16 -4.053555e-16))
0.0264        	((1.272355e-12 2.488998e-12 -5.053495e-12) (-1.497753e-14 -2.079910e-14 1.603404e-14)) ((6.237935e-12 -9.469790e-16 2.450306e-16) (8.074982e-09 1.667302e-15 -4.007000e-16))
0.04368       	((-5.550132e-12 -3.726572e-12 -5.897634e-12) (7.089975e-15 -6.377206e-14 5.226510e-15)) ((3.443841e-12 -7.884033e-16 2.740629e-16) (7.313357e-09 9.357503e-16 6.885595e-16))
0.064416      	((1.987770e-12 -1.768213e-13 -1.330226e-12) (8.017214e-14 -9.534493e-14 -1.089571e-14)) ((1.927943e-12 -5.307964e-16 -1.007482e-16) (6.547798e-09 -9.015741e-16 1.812032e-15))
0.0892992     	((-9.038443e-13 -1.037834e-12 -3.539205e-13) (1.589736e-13 -1.060731e-13 -3.345811e-14)) ((1.447723e-12 -5.168227e-16 7.193125e-17) (5.800604e-09 -2.714265e-15 2.442523e-15))
0.119159      	((-7.578037e-13 -1.728782e-12 -4.453948e-12) (2.072516e-13 -9.828717e-14 -5.343439e-14)) ((1.033973e-12 -3.669669e-16 -1.534411e-17) (5.094813e-09 -3.723552e-15 2.609504e-15))
0.154991      	((9.984907e-13 2.179932e-12 1.300220e-12) (2.295186e-13 -8.592147e-14 -6.008381e-14)) ((8.191394e-13 -2.885311e-16 -3.002804e-17) (4.446684e-09 -4.032229e-15 2.294834e-15))
0.197989      	((1.158625e-12 2.879496e-13 -1.339285e-12) (2.499311e-13 -7.142901e-14 -5.939853e-14)) ((6.505541e-13 -1.303287e-16 -2.430993e-17) (3.872079e-09 -3.957199e-15 1.889414e-15))
0.249587      	((4.340197e-13 4.237836e-13 -1.352301e-12) (2.528888e-13 -6.639299e-14 -6.087741e-14)) ((5.381463e-13 -8.111328e-17 -5.807950e-17) (3.379550e-09 -3.737130e-15 1.721396e-15))
0.311504      	((6.202474e-13 1.132517e-12 -1.637534e-12) (2.337800e-13 -6.990596e-14 -5.011870e-14)) ((4.491384e-13 -1.095899e-16 -1.623232e-17) (2.967905e-09 -3.342475e-15 1.781366e-15))
0.385805      	((-3.468454e-13 1.446389e-12 -2.240676e-12) (2.104596e-13 -6.451477e-14 -4.154782e-14)) ((3.862067e-13 -1.157642e-16 3.940031e-17) (2.628284e-09 -3.369935e-15 1.776716e-15))
0.474966      	((-3.166487e-13 1.986893e-12 -2.129721e-12) (1.782554e-13 -4.047145e-14 -6.944027e-14)) ((3.448968e-13 -7.110080e-17 6.271647e-17) (2.347352e-09 -4.457728e-15 1.736155e-15))
0.581959      	((1.363622e-12 2.889304e-12 -7.063082e-13) (1.199414e-13 -1.463045e-15 -1.013808e-13)) ((3.091258e-13 -8.692708e-17 9.659111e-17) (2.111230e-09 -5.560982e-15 2.061011e-15))
0.710351      	((1.561614e-12 3.368979e-12 -2.625989e-12) (4.570169e-14 3.640655e-15 -1.005081e-13)) ((2.731723e-13 -1.125870e-16 1.228123e-16) (1.908415e-09 -6.014100e-15 2.931509e-15))
0.864421      	((1.922613e-12 4.201901e-12 -1.631448e-12) (-2.838121e-14 -5.264097e-14 -7.477942e-14)) ((2.489993e-13 -1.763559e-16 1.365681e-16) (1.730753e-09 -5.562108e-15 4.216850e-15))
1.049306      	((1.218878e-12 4.242729e-12 -2.915395e-12) (-7.796892e-14 -1.059426e-13 -3.556367e-14)) ((2.329958e-13 -1.921309e-16 1.275143e-16) (1.572842e-09 -4.220613e-15 5.009088e-15))
1.271167      	((-7.265536e-14 5.384133e-12 -3.638162e-12) (-7.592113e-14 -1.540779e-13 1.971901e-14)) ((2.170101e-13 -1.643624e-16 1.102437e-16) (1.431070e-09 -2.154941e-15 6.197827e-15))
1.5374        	((-5.575174e-13 5.059642e-12 -4.848089e-12) (-3.575619e-14 -2.364201e-13 1.031542e-13)) ((1.985863e-13 -3.871125e-17 8.056739e-17) (1.303087e-09 -8.676216e-16 1.042221e-14))
1.85688       	((5.853561e-13 5.305394e-12 -4.774189e-12) (-6.404634e-14 -4.018441e-13 2.398264e-13)) ((1.824119e-13 1.393960e-18 3.843313e-17) (1.187615e-09 2.809870e-15 1.538477e-14))
2.240256      	((8.234670e-14 5.865952e-12 -4.334165e-12) (-6.558765e-14 -6.590099e-13 5.013994e-13)) ((1.724930e-13 7.226660e-17 -2.441144e-17) (1.083998e-09 8.295399e-15 2.228797e-14))
2.700307      	((9.494590e-14 5.304762e-12 -3.469920e-12) (-1.005818e-14 -1.053567e-12 9.183160e-13)) ((1.657189e-13 1.015000e-16 -6.544671e-17) (9.917710e-10 1.528216e-14 3.403011e-14))
3.252369      	((8.531247e-14 3.808603e-12 -3.567352e-12) (-7.670509e-14 -1.612257e-12 1.390887e-12)) ((1.590814e-13 1.564885e-16 -1.113444e-16) (9.103013e-10 2.553540e-14 4.555963e-14))
3.914842      	((3.905728e-13 1.730122e-12 -2.373399e-12) (-5.539579e-14 -2.151624e-12 1.851498e-12)) ((1.514452e-13 1.325206e-16 -8.631991e-17) (8.386361e-10 3.373251e-14 5.362365e-14))
4.709811      	((-1.195404e-13 5.941649e-13 -7.175903e-13) (6.377090e-14 -2.654092e-12 2.328275e-12)) ((1.424658e-13 1.407943e-16 -5.374250e-17) (7.754574e-10 3.912582e-14 5.889546e-14))
5.663773      	((1.940284e-13 7.259667e-15 5.397453e-13) (3.036011e-14 -3.011599e-12 2.699102e-12)) ((1.323640e-13 1.401726e-16 -3.449472e-17) (7.192890e-10 4.381205e-14 5.987468e-14))
6.808528      	((5.013017e-13 -6.950275e-13 9.821286e-13) (-5.533338e-15 -3.065292e-12 2.790964e-12)) ((1.222399e-13 1.449084e-16 -6.116109e-17) (6.688172e-10 4.412849e-14 5.843613e-14))
8.182233      	((6.213516e-14 -1.033553e-12 1.586668e-12) (-2.825297e-14 -2.877730e-12 2.627771e-12)) ((1.123807e-13 1.329586e-16 -5.971547e-17) (6.229942e-10 3.916981e-14 5.358880e-14))
9.83068       	((6.029993e-13 -1.265679e-12 1.469581e-12) (-8.665318e-14 -2.457749e-12 2.255525e-12)) ((1.024791e-13 1.160771e-16 -9.535587e-17) (5.810439e-10 3.162254e-14 4.356346e-14))
11.808816     	((2.431690e-13 2.297788e-13 4.754630e-13) (-2.130187e-13 -1.869603e-12 1.768873e-12)) ((9.349475e-14 1.054765e-16 -1.281644e-16) (5.424429e-10 2.580437e-14 3.098123e-14))
14.182579     	((1.389429e-13 2.831422e-13 -1.838145e-13) (-3.692030e-13 -1.311824e-12 1.314058e-12)) ((8.496313e-14 1.083926e-16 -1.429180e-16) (5.068727e-10 2.178334e-14 1.821202e-14))
17.031095     	((2.791929e-13 5.216475e-13 -7.984624e-14) (-3.816076e-13 -9.053844e-13 9.313415e-13)) ((7.787045e-14 8.049081e-17 -1.331456e-16) (4.741672e-10 1.610238e-14 9.265612e-15))
20.449314     	((1.082491e-13 5.961573e-13 -2.975876e-13) (-2.932403e-13 -6.111996e-13 6.277418e-13)) ((7.153255e-14 6.801961e-17 -1.254793e-16) (4.442120e-10 9.801224e-15 5.352485e-15))
24.551176     	((-5.700046e-14 5.422132e-13 -5.973869e-13) (-1.847624e-13 -4.337004e-13 4.245000e-13)) ((6.596248e-14 6.617357e-17 -1.319084e-16) (4.168298e-10 5.670257e-15 3.317447e-15))
29.473411     	((6.338177e-14 5.692796e-13 -3.337716e-13) (-1.002705e-13 -3.207739e-13 3.247253e-13)) ((6.128148e-14 5.208822e-17 -1.197564e-16) (3.918438e-10 3.616368e-15 2.661918e-15))
35.380094     	((-8.503400e-15 8.036165e-13 -3.316726e-13) (-4.838445e-14 -2.595775e-13 2.731408e-13)) ((5.709290e-14 4.187226e-17 -1.080994e-16) (3.690510e-10 1.872027e-15 3.943393e-15))
42.468112     	((-4.745711e-14 5.190978e-13 -3.548049e-13) (-1.054639e-14 -2.645167e-13 2.695002e-13)) ((5.343676e-14 3.813568e-17 -9.955084e-17) (3.482595e-10 1.254376e-15 5.397353e-15))
50.973735     	((-5.422258e-15 4.386079e-13 -2.319966e-13) (3.683349e-14 -2.915665e-13 2.948502e-13)) ((5.013652e-14 2.320916e-17 -8.962858e-17) (3.293030e-10 1.415489e-15 6.099320e-15))
61.180482     	((1.932901e-14 4.408429e-13 -3.277242e-13) (4.812035e-14 -3.441888e-13 3.474723e-13)) ((4.715657e-14 5.968226e-18 -8.182605e-17) (3.120419e-10 2.265732e-15 6.752719e-15))
73.428578     	((-4.278547e-15 2.707920e-13 -1.418209e-13) (3.433463e-14 -3.965944e-13 4.065787e-13)) ((4.455819e-14 -9.795758e-19 -7.234214e-17) (2.963616e-10 3.836494e-15 7.416200e-15))
88.126294     	((4.699388e-14 3.021965e-13 -5.727481e-14) (2.069733e-14 -4.337535e-13 4.517596e-13)) ((4.225958e-14 -1.120207e-17 -6.392945e-17) (2.821434e-10 5.412094e-15 8.027249e-15))
105.763553    	((1.797514e-14 1.456543e-13 6.775688e-15) (1.441097e-14 -4.485651e-13 4.697239e-13)) ((4.008758e-14 -2.056485e-17 -5.658386e-17) (2.692781e-10 5.956084e-15 8.556937e-15))
126.928263    	((4.321062e-14 8.941475e-14 1.008716e-13) (6.966375e-15 -4.478813e-13 4.625979e-13)) ((3.816056e-14 -2.449257e-17 -5.345505e-17) (2.576491e-10 5.984337e-15 8.835297e-15))
152.325916    	((1.256400e-14 -2.227564e-15 1.293053e-13) (-4.682158e-15 -4.269682e-13 4.366090e-13)) ((3.643727e-14 -2.766668e-17 -5.157183e-17) (2.471339e-10 6.155349e-15 8.960216e-15))
182.803099    	((2.667475e-14 -6.342747e-14 1.200559e-13) (-9.352708e-15 -3.938309e-13 3.938904e-13)) ((3.484086e-14 -3.035051e-17 -4.970335e-17) (2.376095e-10 6.500102e-15 8.989698e-15))
219.375719    	((3.805158e-14 -4.878775e-14 1.327040e-13) (-1.908928e-14 -3.694005e-13 3.650104e-13)) ((3.338029e-14 -3.117096e-17 -4.645393e-17) (2.289634e-10 7.114808e-15 9.150845e-15))
263.262863    	((4.449350e-14 -9.645191e-14 9.629814e-14) (-4.030250e-14 -3.650568e-13 3.539062e-13)) ((3.205657e-14 -2.855599e-17 -4.000239e-17) (2.211021e-10 7.576606e-15 9.485885e-15))
315.927436    	((1.258932e-14 -1.443467e-13 9.193595e-14) (-5.293996e-14 -3.695114e-13 3.537885e-13)) ((3.087230e-14 -2.430981e-17 -3.664020e-17) (2.139497e-10 7.873649e-15 9.782908e-15))
379.124923    	((1.613052e-15 -1.388638e-13 9.686025e-14) (-4.909047e-14 -3.716018e-13 3.572655e-13)) ((2.978651e-14 -1.822198e-17 -3.387201e-17) (2.074454e-10 7.955841e-15 9.977161e-15))
454.961908    	((4.996838e-15 -1.234032e-13 1.019075e-13) (-5.446091e-14 -3.665088e-13 3.604955e-13)) ((2.878192e-14 -1.470677e-17 -3.084438e-17) (2.015451e-10 7.944675e-15 9.835419e-15))
545.966289    	((7.621778e-15 -1.179770e-13 8.976672e-14) (-4.502523e-14 -3.543477e-13 3.536185e-13)) ((2.786914e-14 -1.241402e-17 -2.902609e-17) (1.962078e-10 7.987602e-15 9.396298e-15))
655.171547    	((2.905384e-14 -1.182123e-13 8.548764e-14) (-2.227043e-14 -3.371936e-13 3.383521e-13)) ((2.703729e-14 -1.059410e-17 -2.743555e-17) (1.913960e-10 7.778694e-15 8.825152e-15))
786.217856    	((3.618837e-14 -1.185136e-13 6.127655e-14) (-4.092587e-15 -3.206085e-13 3.213225e-13)) ((2.627936e-14 -8.214293e-18 -2.783581e-17) (1.870766e-10 7.523110e-15 8.337917e-15))
943.473427    	((3.691541e-14 -1.150673e-13 3.852828e-14) (-9.634642e-15 -3.007369e-13 3.030738e-13)) ((2.560314e-14 -5.482885e-18 -2.996162e-17) (1.832179e-10 7.162882e-15 7.894074e-15))
1132.180113   	((1.850600e-14 -1.261357e-13 3.041602e-14) (-6.834108e-15 -2.863445e-13 2.818836e-13)) ((2.501201e-14 -2.960198e-18 -2.976084e-17) (1.797888e-10 6.703616e-15 7.568649e-15))
1358.628135   	((1.313704e-14 -1.291572e-13 2.557279e-14) (-6.424760e-15 -2.733160e-13 2.610681e-13)) ((2.449282e-14 -2.314376e-18 -2.740253e-17) (1.767583e-10 6.280727e-15 7.284482e-15))
1630.365763   	((1.152743e-14 -1.334111e-13 2.037853e-14) (-9.106476e-15 -2.604826e-13 2.481081e-13)) ((2.403534e-14 -2.193699e-18 -2.626244e-17) (1.740940e-10 5.895821e-15 6.961234e-15))
1956.450915   	((9.240548e-15 -1.288872e-13 2.399702e-14) (-1.567642e-14 -2.506735e-13 2.393720e-13)) ((2.363767e-14 -1.377713e-18 -2.617381e-17) (1.717646e-10 5.477858e-15 6.690277e-15))
2347.753098   	((1.110207e-14 -1.194837e-13 2.276169e-14) (-1.822840e-14 -2.444870e-13 2.347248e-13)) ((2.329117e-14 -1.971561e-19 -2.629071e-17) (1.697401e-10 5.109886e-15 6.468520e-15))
2817.315718   	((3.393730e-14 -1.097207e-13 2.464673e-14) (-1.808843e-14 -2.403964e-13 2.326333e-13)) ((2.299548e-14 4.794766e-19 -2.616910e-17) (1.679918e-10 4.819431e-15 6.246626e-15))
3380.790861   	((5.448482e-14 -1.034436e-13 2.395732e-14) (-1.580960e-14 -2.358433e-13 2.297161e-13)) ((2.274594e-14 8.930850e-19 -2.594096e-17) (1.664929e-10 4.512051e-15 6.020125e-15))
4056.961033   	((7.913185e-14 -9.644409e-14 2.496917e-14) (-1.381965e-14 -2.320426e-13 2.255863e-13)) ((2.253440e-14 1.729580e-18 -2.586215e-17) (1.652164e-10 4.256775e-15 5.794438e-15))
4868.36524    	((1.070400e-13 -8.479519e-14 2.321453e-14) (-1.064529e-14 -2.316475e-13 2.217041e-13)) ((2.235474e-14 3.018145e-18 -2.585425e-17) (1.641371e-10 4.106491e-15 5.540342e-15))
5842.050288   	((1.264602e-13 -7.468859e-14 3.098743e-14) (-7.492495e-15 -2.327136e-13 2.180130e-13)) ((2.220168e-14 4.314895e-18 -2.587215e-17) (1.632311e-10 3.950678e-15 5.242942e-15))
7010.472346   	((1.407970e-13 -6.502237e-14 3.851913e-14) (-3.338488e-15 -2.318175e-13 2.145163e-13)) ((2.207280e-14 4.859641e-18 -2.612343e-17) (1.624762e-10 3.835189e-15 5.053938e-15))
8412.578815   	((1.479121e-13 -5.420478e-14 4.621814e-14) (-2.671414e-16 -2.298446e-13 2.110218e-13)) ((2.196474e-14 5.327709e-18 -2.637807e-17) (1.618517e-10 3.730325e-15 4.888777e-15))
10095.106578  	((1.540693e-13 -4.864648e-14 5.123390e-14) (2.808683e-15 -2.267308e-13 2.070044e-13)) ((2.187584e-14 5.366100e-18 -2.646982e-17) (1.613384e-10 3.627310e-15 4.730215e-15))
12114.139893  	((1.683043e-13 -4.668389e-14 5.422194e-14) (6.706747e-15 -2.232383e-13 2.028080e-13)) ((2.180339e-14 5.243371e-18 -2.639056e-17) (1.609192e-10 3.517432e-15 4.576690e-15))
14536.979872  	((1.885813e-13 -4.257299e-14 5.851994e-14) (1.093859e-14 -2.196807e-13 1.992768e-13)) ((2.174460e-14 5.255388e-18 -2.633596e-17) (1.605788e-10 3.424971e-15 4.440185e-15))
17444.387847  	((2.115604e-13 -3.700152e-14 6.416683e-14) (1.495831e-14 -2.167947e-13 1.964490e-13)) ((2.169750e-14 5.228385e-18 -2.622280e-17) (1.603039e-10 3.354467e-15 4.320391e-15))
20933.277416  	((2.373849e-13 -3.103797e-14 6.927164e-14) (1.836124e-14 -2.144822e-13 1.941790e-13)) ((2.165962e-14 5.192989e-18 -2.614095e-17) (1.600830e-10 3.291015e-15 4.219814e-15))
25119.944899  	((2.656781e-13 -2.460315e-14 7.536840e-14) (2.071862e-14 -2.124595e-13 1.921549e-13)) ((2.162920e-14 5.226283e-18 -2.607858e-17) (1.599063e-10 3.243079e-15 4.137476e-15))
30143.945879  	((2.971716e-13 -1.668566e-14 8.351583e-14) (2.260596e-14 -2.105002e-13 1.904017e-13)) ((2.160476e-14 5.252815e-18 -2.601206e-17) (1.597654e-10 3.207761e-15 4.068333e-15))
36172.747055  	((3.315842e-13 -6.185176e-15 9.468648e-14) (2.479327e-14 -2.086282e-13 1.888861e-13)) ((2.158531e-14 5.279286e-18 -2.599484e-17) (1.596534e-10 3.188364e-15 4.008501e-15))
43407.308466  	((3.722022e-13 9.227849e-15 1.080250e-13) (2.719340e-14 -2.067667e-13 1.877036e-13)) ((2.156989e-14 5.422676e-18 -2.602303e-17) (1.595647e-10 3.165509e-15 3.957836e-15))
52088.782159  	((4.181570e-13 3.049731e-14 1.239681e-13) (2.993727e-14 -2.049665e-13 1.867255e-13)) ((2.155770e-14 5.600108e-18 -2.606645e-17) (1.594945e-10 3.153357e-15 3.914121e-15))
62388.613083  	((4.744521e-13 6.017928e-14 1.411658e-13) (3.319229e-14 -2.031321e-13 1.857889e-13)) ((2.154826e-14 5.643067e-18 -2.615137e-17) (1.594392e-10 3.142368e-15 3.882542e-15))
74306.808383  	((5.260854e-13 8.281232e-14 1.566550e-13) (3.663977e-14 -2.019078e-13 1.859421e-13)) ((2.153516e-14 9.572294e-18 -2.543227e-17) (1.593957e-10 3.105112e-15 3.841613e-15))
87843.373585  	((5.877936e-13 1.462184e-13 1.829624e-13) (3.941867e-14 -1.995363e-13 1.865800e-13)) ((2.152401e-14 6.702729e-18 -2.620222e-17) (1.593615e-10 3.054553e-15 3.854514e-15))
102998.312954 	((6.354155e-13 2.243419e-13 2.176595e-13) (4.260599e-14 -1.973578e-13 1.871199e-13)) ((2.152102e-14 1.014815e-17 -2.730185e-17) (1.593348e-10 3.040994e-15 3.806445e-15))
119182.087559 	((6.710531e-13 3.050264e-13 2.627821e-13) (4.379628e-14 -1.951390e-13 1.893369e-13)) ((2.150913e-14 9.380102e-18 -2.642689e-17) (1.593138e-10 2.966181e-15 3.721461e-15))
135365.887841 	((7.495492e-13 3.905294e-13 3.047077e-13) (4.715220e-14 -1.917344e-13 1.897573e-13)) ((2.149880e-14 8.035445e-18 -2.731385e-17) (1.592974e-10 2.959286e-15 3.689691e-15))
151549.707771 	((7.558803e-13 5.032970e-13 3.797181e-13) (5.041142e-14 -1.850196e-13 1.879618e-13)) ((2.149558e-14 6.352910e-18 -3.173021e-17) (1.592848e-10 3.040286e-15 3.771244e-15))
167733.542427 	((7.983357e-13 6.553311e-13 4.249810e-13) (4.669331e-14 -1.784960e-13 1.862724e-13)) ((2.148334e-14 8.428310e-18 -2.814638e-17) (1.592747e-10 3.132474e-15 3.807345e-15))
183917.38871  	((7.859259e-13 8.112204e-13 4.896559e-13) (4.604068e-14 -1.760656e-13 1.857463e-13)) ((2.146940e-14 8.868124e-18 -2.879187e-17) (1.592668e-10 3.157639e-15 3.670058e-15))
200101.244501 	((7.888611e-13 9.539048e-13 5.423892e-13) (4.324786e-14 -1.700144e-13 1.854362e-13)) ((2.145681e-14 7.287942e-18 -2.846858e-17) (1.592607e-10 3.135642e-15 3.655295e-15))
216285.110135 	((7.848927e-13 1.068478e-12 5.626618e-13) (4.154996e-14 -1.621984e-13 1.867956e-13)) ((2.143591e-14 6.142475e-18 -2.792663e-17) (1.592555e-10 3.097277e-15 3.668680e-15))
232468.984395 	((7.664729e-13 1.122892e-12 5.498919e-13) (4.050945e-14 -1.564896e-13 1.894889e-13)) ((2.142603e-14 6.392544e-18 -2.948482e-17) (1.592509e-10 3.175442e-15 3.649613e-15))
248652.866841 	((7.792037e-13 1.162970e-12 5.326766e-13) (3.533698e-14 -1.517197e-13 1.867956e-13)) ((2.140409e-14 4.271986e-18 -2.653534e-17) (1.592470e-10 3.075782e-15 3.600839e-15))
264836.75702  	((7.906197e-13 1.142346e-12 5.033892e-13) (3.449462e-14 -1.498038e-13 1.829067e-13)) ((2.139017e-14 3.690731e-18 -2.543312e-17) (1.592433e-10 2.945404e-15 3.619100e-15))
281020.653778 	((7.458387e-13 1.084814e-12 4.694200e-13) (3.485436e-14 -1.484759e-13 1.833540e-13)) ((2.137750e-14 8.639639e-19 -2.494227e-17) (1.592397e-10 2.900912e-15 3.581741e-15))
297204.557188 	((6.735254e-13 9.627622e-13 4.421561e-13) (3.308681e-14 -1.494210e-13 1.819087e-13)) ((2.136550e-14 -2.239357e-18 -2.417971e-17) (1.592360e-10 2.807753e-15 3.563005e-15))
313388.466706 	((5.720861e-13 7.855919e-13 3.833788e-13) (3.040837e-14 -1.510011e-13 1.748326e-13)) ((2.135588e-14 -3.403760e-18 -2.319130e-17) (1.592322e-10 2.788861e-15 3.519948e-15))
329572.381359 	((4.403690e-13 6.013239e-13 3.168020e-13) (2.739027e-14 -1.556675e-13 1.668617e-13)) ((2.134882e-14 -3.246368e-18 -2.296650e-17) (1.592281e-10 2.785238e-15 3.486582e-15))
345756.300269 	((3.078775e-13 4.023774e-13 2.477294e-13) (2.271756e-14 -1.610848e-13 1.617833e-13)) ((2.134268e-14 -3.683387e-18 -2.233715e-17) (1.592239e-10 2.788872e-15 3.490570e-15))
361940.222898 	((1.874512e-13 2.275102e-13 1.880125e-13) (1.915873e-14 -1.674267e-13 1.577514e-13)) ((2.134087e-14 -4.532536e-18 -2.190659e-17) (1.592196e-10 2.802012e-15 3.495814e-15))
378124.14884  	((8.376220e-14 9.139452e-14 1.375545e-13) (1.603990e-14 -1.720776e-13 1.549155e-13)) ((2.134269e-14 -5.317113e-18 -2.150372e-17) (1.592154e-10 2.830336e-15 3.462658e-15))
