# Forces      
# CofR        : (0.000000e+00 0.000000e+00 0.000000e+00)
# Time        forces(pressure viscous)	moments(pressure viscous)
0             	((0.000000e+00 0.000000e+00 0.000000e+00) (0.000000e+00 0.000000e+00 0.000000e+00)) ((0.000000e+00 0.000000e+00 0.000000e+00) (0.000000e+00 0.000000e+00 0.000000e+00))
0.012         	((-1.493308e-10 4.513555e-08 8.988204e-11) (1.138683e-12 1.147324e-09 -3.716341e-12)) ((-1.323635e-14 2.013374e-15 -1.027437e-09) (6.428876e-16 -1.051547e-13 -1.396979e-06))
0.0264        	((-5.329327e-10 6.645388e-09 2.076393e-12) (1.947781e-12 1.694809e-09 -6.832890e-12)) ((5.020005e-15 -9.963173e-14 -4.724767e-10) (-8.497423e-15 -2.795351e-13 -1.279673e-06))
0.04368       	((-2.141461e-10 2.113918e-08 3.542627e-10) (1.602317e-13 1.789836e-09 -9.949126e-12)) ((-1.832054e-14 -1.138204e-13 -2.591901e-10) (-2.102788e-14 -4.967632e-13 -1.159105e-06))
0.064416      	((-5.360504e-10 -2.834376e-09 -2.986355e-10) (-1.000625e-11 1.550483e-09 -1.639231e-11)) ((6.689696e-15 -6.372785e-14 -1.412858e-10) (-4.284328e-14 -7.681798e-13 -1.037996e-06))
0.0892992     	((7.026531e-10 9.301677e-09 2.525432e-10) (-1.685198e-11 1.295479e-09 -2.535173e-11)) ((-2.292708e-14 -1.550178e-13 -1.071541e-10) (-6.796461e-14 -1.109394e-12 -9.199522e-07))
0.119159      	((-3.189256e-10 -1.557946e-09 5.448663e-11) (-2.136600e-11 1.065028e-09 -3.059692e-11)) ((4.617427e-15 -1.095789e-13 -8.113825e-11) (-3.510530e-14 -1.294545e-12 -8.086710e-07))
0.154991      	((1.295817e-10 4.665563e-09 -6.358959e-11) (-3.167201e-11 9.778284e-10 -3.252836e-11)) ((-1.539114e-14 -8.737764e-14 -6.702031e-11) (3.900110e-15 -1.371684e-12 -7.067502e-07))
0.197989      	((-2.386140e-10 1.772662e-09 2.890740e-11) (-3.600922e-11 8.756411e-10 -3.339656e-11)) ((-2.194883e-14 -8.115302e-14 -5.520365e-11) (3.786212e-15 -1.423411e-12 -6.164467e-07))
0.249587      	((2.794141e-10 3.519375e-09 9.076876e-11) (-2.947701e-11 8.020786e-10 -3.352899e-11)) ((-1.408748e-14 -7.976638e-14 -4.556993e-11) (-6.755600e-14 -1.379724e-12 -5.389096e-07))
0.311504      	((-3.294952e-10 2.132052e-09 4.662499e-11) (-1.203755e-11 7.563332e-10 -3.432550e-11)) ((-3.356655e-15 -5.426003e-14 -3.727831e-11) (-1.500149e-13 -1.298554e-12 -4.738998e-07))
0.385805      	((1.679233e-10 2.032454e-09 -3.649164e-11) (6.836880e-12 7.086850e-10 -3.455029e-11)) ((6.061085e-15 -1.969419e-14 -3.102186e-11) (-1.382037e-13 -1.209358e-12 -4.200207e-07))
0.474966      	((-4.746025e-10 1.770479e-09 3.597032e-11) (8.483768e-12 6.611699e-10 -3.814862e-11)) ((4.858411e-15 -1.189411e-14 -2.670657e-11) (-7.254455e-14 -1.156285e-12 -3.751871e-07))
0.581959      	((-2.751113e-10 1.579712e-09 9.035448e-11) (-1.123971e-11 5.919129e-10 -3.603623e-11)) ((2.218992e-14 1.453146e-14 -2.264894e-11) (5.056903e-14 -7.723878e-13 -3.373135e-07))
0.710351      	((-9.442813e-10 1.643775e-09 -5.139015e-11) (-4.764828e-11 5.182902e-10 -2.556034e-11)) ((2.521967e-14 3.259891e-14 -1.868927e-11) (8.229025e-14 -1.518921e-13 -3.047059e-07))
0.864421      	((-6.734954e-10 2.749455e-09 -1.114319e-10) (-1.030240e-10 4.852607e-10 -2.152468e-11)) ((2.215090e-14 5.395910e-14 -1.601349e-11) (2.518337e-13 2.267313e-13 -2.761449e-07))
1.049306      	((6.817328e-11 3.043126e-09 -7.980080e-11) (-1.149950e-10 4.163847e-10 -1.264635e-11)) ((2.562521e-14 6.353059e-14 -1.433654e-11) (2.307593e-13 4.650937e-13 -2.507921e-07))
1.271167      	((-2.442829e-10 2.827290e-09 -3.079229e-11) (-9.226042e-11 3.354023e-10 -3.172858e-12)) ((5.888643e-15 7.315263e-14 -1.305850e-11) (-4.949611e-13 4.342732e-13 -2.280667e-07))
1.5374        	((9.547240e-11 3.215982e-09 -7.489503e-11) (-5.452073e-11 3.195598e-10 1.592207e-12)) ((9.897832e-15 9.999609e-14 -1.195475e-11) (-1.689150e-12 -1.156313e-13 -2.075927e-07))
1.85688       	((-4.563227e-10 3.740771e-09 -1.713192e-11) (1.252382e-11 3.187939e-10 3.409173e-12)) ((6.008839e-16 1.060846e-13 -1.099498e-11) (-2.861426e-12 -1.248231e-12 -1.891608e-07))
2.240256      	((-6.824102e-10 2.791747e-09 3.068649e-12) (7.544094e-11 2.908556e-10 4.789828e-12)) ((-3.248581e-15 1.049602e-13 -1.041763e-11) (-4.015455e-12 -2.716162e-12 -1.726641e-07))
2.700307      	((-3.080069e-10 1.883155e-09 4.656385e-11) (1.411890e-10 2.337666e-10 3.872861e-12)) ((7.234372e-17 1.141171e-13 -9.812907e-12) (-5.305962e-12 -4.236783e-12 -1.580195e-07))
3.252369      	((-1.409602e-10 1.415202e-09 9.619526e-11) (2.092450e-10 1.459484e-10 1.544889e-11)) ((-5.427832e-15 1.112262e-13 -9.030985e-12) (-6.687683e-12 -5.440800e-12 -1.451127e-07))
3.914842      	((1.999413e-10 7.469364e-10 1.653945e-10) (3.425723e-10 3.663555e-11 1.960453e-11)) ((-1.644046e-14 9.859470e-14 -8.118291e-12) (-7.764210e-12 -6.416571e-12 -1.337754e-07))
4.709811      	((7.982202e-11 6.575993e-10 1.079586e-10) (4.340754e-10 -8.053973e-11 1.489995e-11)) ((-5.030038e-14 5.649073e-14 -7.223005e-12) (-7.780220e-12 -6.889851e-12 -1.237798e-07))
5.663773      	((3.863689e-10 -7.733006e-11 8.746921e-11) (4.392999e-10 -1.713187e-10 8.782950e-12)) ((-7.746537e-14 9.381797e-15 -6.373789e-12) (-7.628721e-12 -7.105954e-12 -1.148782e-07))
6.808528      	((5.940333e-10 -1.269893e-10 -3.080750e-11) (3.914266e-10 -1.946110e-10 -4.850592e-12)) ((-6.998279e-14 -8.697951e-15 -5.655241e-12) (-7.003933e-12 -6.753627e-12 -1.068605e-07))
8.182233      	((4.915583e-10 -3.904736e-10 -4.992146e-11) (2.668869e-10 -1.974016e-10 -1.839583e-11)) ((-7.315834e-14 -1.971009e-14 -5.089758e-12) (-5.988771e-12 -5.854720e-12 -9.956815e-08))
9.83068       	((5.215431e-10 1.606661e-11 -9.931156e-11) (1.753186e-10 -1.432431e-10 -3.051009e-11)) ((-7.639608e-14 -3.428160e-14 -4.624761e-12) (-4.764608e-12 -4.758954e-12 -9.288669e-08))
11.808816     	((2.702202e-10 1.501899e-10 -7.115067e-11) (1.257886e-10 -7.048816e-11 -3.475655e-11)) ((-6.541965e-14 -4.974744e-14 -4.257352e-12) (-3.818073e-12 -3.793091e-12 -8.673884e-08))
14.182579     	((-3.232461e-12 1.657650e-10 -7.735607e-11) (6.567908e-11 -1.659090e-11 -3.157284e-11)) ((-4.318838e-14 -6.185176e-14 -3.973931e-12) (-3.057263e-12 -3.173863e-12 -8.106715e-08))
17.031095     	((6.996567e-11 1.625747e-10 -7.515259e-11) (4.056007e-11 2.018910e-12 -2.683759e-11)) ((-3.328388e-14 -5.491143e-14 -3.731170e-12) (-2.010331e-12 -2.417179e-12 -7.583907e-08))
20.449314     	((2.530870e-10 1.604607e-10 -5.339440e-11) (1.838232e-11 3.628833e-12 -2.239787e-11)) ((-2.285011e-14 -5.533662e-14 -3.513496e-12) (-1.101771e-12 -1.967440e-12 -7.104624e-08))
24.551176     	((1.590147e-10 2.056191e-10 -1.366785e-11) (-4.800255e-12 2.589358e-11 -1.733908e-11)) ((-2.244626e-14 -5.619824e-14 -3.318204e-12) (-5.377142e-13 -1.764762e-12 -6.667548e-08))
29.473411     	((7.922193e-11 2.178124e-10 6.654126e-12) (-1.067164e-11 3.285625e-11 -1.119267e-11)) ((-1.970454e-14 -5.523356e-14 -3.160926e-12) (-6.904135e-14 -1.699833e-12 -6.270085e-08))
35.380094     	((-2.230142e-11 1.816906e-10 6.442538e-12) (-9.634075e-12 4.274262e-11 -4.574075e-12)) ((-1.591501e-14 -5.034290e-14 -3.026952e-12) (2.843609e-13 -1.831473e-12 -5.909093e-08))
42.468112     	((-4.456722e-11 1.613091e-10 5.733764e-12) (1.433451e-11 2.779608e-11 -8.247189e-13)) ((-1.176014e-14 -4.551398e-14 -2.912734e-12) (5.356046e-13 -1.985867e-12 -5.581156e-08))
50.973735     	((-3.450991e-11 1.978672e-10 5.276073e-12) (3.327428e-11 -9.936523e-12 1.362562e-12)) ((-4.003735e-15 -3.907676e-14 -2.808121e-12) (4.785450e-13 -2.028347e-12 -5.282912e-08))
61.180482     	((7.970992e-11 1.613655e-10 -8.092374e-12) (7.708039e-11 -4.156298e-11 2.992331e-12)) ((6.257939e-15 -3.141420e-14 -2.731419e-12) (2.115750e-13 -1.934062e-12 -5.011532e-08))
73.428578     	((1.223012e-10 1.553961e-10 -3.527077e-12) (7.402857e-11 -6.727931e-11 3.195121e-12)) ((8.665057e-15 -3.096619e-14 -2.648535e-12) (-1.634795e-13 -1.712198e-12 -4.764839e-08))
88.126294     	((1.340839e-10 1.537391e-10 -1.069443e-11) (5.334540e-11 -8.404651e-11 7.906197e-12)) ((4.232116e-15 -3.213339e-14 -2.553589e-12) (-4.921975e-13 -1.523596e-12 -4.540788e-08))
105.763553    	((8.204824e-11 1.722900e-10 -4.180000e-12) (3.025859e-11 -7.418188e-11 9.426754e-12)) ((6.649457e-17 -3.246608e-14 -2.464620e-12) (-6.093954e-13 -1.328549e-12 -4.337501e-08))
126.928263    	((6.056938e-11 1.449598e-10 -1.681065e-12) (3.211761e-11 -4.783509e-11 1.120264e-11)) ((-3.996935e-15 -3.329448e-14 -2.389066e-12) (-6.813283e-13 -1.159765e-12 -4.153257e-08))
152.325916    	((9.078220e-11 1.532924e-10 -4.292834e-12) (2.369828e-11 -2.949045e-11 1.336302e-11)) ((-6.108224e-15 -3.328708e-14 -2.327632e-12) (-7.759375e-13 -1.072680e-12 -3.986439e-08))
182.803099    	((1.275196e-10 1.755682e-10 5.308040e-13) (3.121077e-11 -2.766567e-11 1.549387e-11)) ((-6.097214e-15 -3.228877e-14 -2.273847e-12) (-8.700314e-13 -9.414466e-13 -3.835654e-08))
219.375719    	((8.111595e-11 1.548156e-10 -1.119780e-11) (4.325065e-11 -3.762968e-11 1.668089e-11)) ((-5.570167e-15 -3.133273e-14 -2.210653e-12) (-1.014527e-12 -7.071843e-13 -3.699373e-08))
263.262863    	((3.739510e-11 1.416534e-10 6.145185e-12) (3.963157e-11 -5.460018e-11 1.672420e-11)) ((-5.378005e-15 -2.873874e-14 -2.147690e-12) (-1.098370e-12 -5.144096e-13 -3.576397e-08))
315.927436    	((-1.713764e-11 1.093147e-10 8.164240e-12) (3.253806e-11 -7.320634e-11 1.629081e-11)) ((-3.864422e-15 -2.703979e-14 -2.105746e-12) (-1.138452e-12 -2.514648e-13 -3.465901e-08))
378.781481    	((-4.854834e-11 1.029136e-10 -1.537893e-11) (1.203870e-11 -7.088396e-11 1.455742e-11)) ((-4.038185e-15 -2.780720e-14 -2.069409e-12) (-1.192475e-12 1.178207e-15 -3.367172e-08))
451.823388    	((-5.945423e-11 9.886148e-11 -9.013105e-12) (-1.477239e-11 -5.823624e-11 1.432090e-11)) ((-4.077652e-15 -2.846755e-14 -2.042352e-12) (-1.172170e-12 1.885679e-13 -3.280064e-08))
535.051756    	((-7.993284e-11 9.693462e-11 -6.582641e-12) (-4.639022e-11 -5.479920e-11 1.460907e-11)) ((-1.692014e-15 -2.775964e-14 -2.017801e-12) (-1.108725e-12 3.739455e-13 -3.203981e-08))
628.464945    	((-7.728743e-11 8.377915e-11 -4.675662e-12) (-5.476918e-11 -4.731976e-11 1.424603e-11)) ((-6.061286e-16 -2.701692e-14 -1.996575e-12) (-9.408997e-13 5.798040e-13 -3.138109e-08))
730.298538    	((-8.028386e-11 8.295197e-11 -3.066531e-12) (-5.374074e-11 -3.268316e-11 1.284710e-11)) ((4.726840e-16 -2.603099e-14 -1.979436e-12) (-7.736258e-13 6.708312e-13 -3.081631e-08))
832.119259    	((-7.572847e-11 8.443890e-11 -1.378631e-11) (-5.079622e-11 -1.939698e-11 1.146639e-11)) ((1.027417e-15 -2.482134e-14 -1.964888e-12) (-6.252624e-13 6.493142e-13 -3.034285e-08))
933.924972    	((-7.682184e-11 8.363286e-11 -6.381885e-12) (-4.931407e-11 -7.797353e-12 1.023015e-11)) ((1.121412e-15 -2.387459e-14 -1.954203e-12) (-4.807379e-13 5.265967e-13 -2.994911e-08))
1035.718796   	((-8.032389e-11 7.515421e-11 1.424793e-12) (-4.684856e-11 3.733507e-12 1.066425e-11)) ((1.129789e-15 -2.288574e-14 -1.944686e-12) (-3.414613e-13 3.498141e-13 -2.962440e-08))
1137.504091   	((-8.364828e-11 6.421832e-11 5.134838e-12) (-4.171837e-11 8.506245e-12 1.108623e-11)) ((1.341153e-15 -2.158661e-14 -1.934808e-12) (-2.183036e-13 1.728127e-13 -2.935677e-08))
1239.284065   	((-8.679011e-11 5.115611e-11 4.228687e-12) (-3.605166e-11 8.731776e-12 1.234941e-11)) ((1.439580e-15 -2.075800e-14 -1.926328e-12) (-1.312836e-13 6.891295e-14 -2.913648e-08))
1341.059819   	((-8.411640e-11 3.914492e-11 2.136678e-12) (-3.607405e-11 8.761264e-12 1.274557e-11)) ((1.525894e-15 -2.009575e-14 -1.918661e-12) (-6.414882e-14 1.140425e-14 -2.895465e-08))
1442.830793   	((-8.591061e-11 3.186951e-11 5.480046e-12) (-3.603840e-11 9.084775e-12 1.327969e-11)) ((1.199531e-15 -1.938008e-14 -1.912351e-12) (-2.265708e-14 -1.704459e-14 -2.880446e-08))
1544.599647   	((-9.018125e-11 2.449947e-11 7.331447e-12) (-3.614294e-11 8.413743e-12 1.355796e-11)) ((7.530979e-16 -1.874697e-14 -1.906666e-12) (-3.083265e-15 -3.031093e-14 -2.868013e-08))
1646.368837   	((-9.449500e-11 1.649372e-11 1.128630e-11) (-3.660849e-11 7.423649e-12 1.385644e-11)) ((3.512379e-16 -1.808406e-14 -1.901530e-12) (1.433059e-14 -3.483029e-14 -2.857700e-08))
1748.140638   	((-9.704070e-11 9.838746e-12 1.087865e-11) (-3.811600e-11 5.914805e-12 1.411656e-11)) ((1.602892e-16 -1.746435e-14 -1.897518e-12) (3.196035e-14 -3.402174e-14 -2.849120e-08))
1849.917181   	((-9.769202e-11 8.209172e-12 1.242327e-11) (-3.983839e-11 5.492139e-12 1.440229e-11)) ((9.699830e-17 -1.699909e-14 -1.894303e-12) (5.602366e-14 -2.771660e-14 -2.841968e-08))
1951.700381   	((-9.642593e-11 6.920612e-12 1.310365e-11) (-4.239769e-11 5.803406e-12 1.487957e-11)) ((-8.728272e-17 -1.652068e-14 -1.891610e-12) (8.442367e-14 -2.759408e-14 -2.835997e-08))
2053.491904   	((-9.582913e-11 7.177695e-12 1.361494e-11) (-4.560872e-11 6.428265e-12 1.537766e-11)) ((-2.693377e-16 -1.614125e-14 -1.889169e-12) (1.147134e-13 -3.813399e-14 -2.831010e-08))
2155.292569   	((-9.480076e-11 8.707582e-12 1.426790e-11) (-4.817062e-11 7.585823e-12 1.579015e-11)) ((-5.530278e-16 -1.580499e-14 -1.887144e-12) (1.410322e-13 -5.307509e-14 -2.826845e-08))
2257.099054   	((-9.428710e-11 8.249065e-12 1.519991e-11) (-5.027621e-11 8.423413e-12 1.612193e-11)) ((-8.970603e-16 -1.547338e-14 -1.885484e-12) (1.632290e-13 -6.589004e-14 -2.823363e-08))
2358.912224   	((-9.379597e-11 7.782862e-12 1.626321e-11) (-5.199189e-11 8.911121e-12 1.650218e-11)) ((-1.236181e-15 -1.520177e-14 -1.884091e-12) (1.784530e-13 -7.638077e-14 -2.820450e-08))
