# Forces      
# CofR        : (0.000000e+00 0.000000e+00 0.000000e+00)
# Time        forces(pressure viscous)	moments(pressure viscous)
0             	((0.000000e+00 0.000000e+00 0.000000e+00) (1.847287e-13 -3.217245e-03 4.360178e-13)) ((0.000000e+00 0.000000e+00 0.000000e+00) (-2.190441e-14 5.778254e-16 1.171035e-09))
0.012         	((-2.174283e-06 -9.288716e-01 -2.139915e-06) (1.789441e-09 -3.682633e-03 -4.005014e-09)) ((-9.444928e-11 -9.399772e-12 1.714521e-07) (-6.627839e-12 -8.136051e-13 1.542188e-09))
0.0264        	((-9.257089e-06 1.251603e-01 -4.396947e-06) (2.411189e-08 -3.701692e-03 -9.603911e-09)) ((-1.427163e-09 -2.462476e-10 -9.299453e-09) (-2.882250e-10 7.952355e-12 -3.873739e-10))
0.04368       	((1.142088e-05 1.606829e-01 1.547339e-05) (3.021999e-08 -3.229433e-03 1.384237e-09)) ((1.134544e-09 1.483692e-10 -5.259382e-08) (-2.761066e-10 1.113566e-11 -2.894806e-09))
0.064416      	((-2.889841e-07 5.996368e-04 -6.479234e-06) (-1.652750e-08 -2.843472e-03 -5.229957e-09)) ((3.466353e-11 3.890092e-11 9.456679e-09) (-1.324248e-10 -1.666522e-11 -2.468403e-09))
0.0892992     	((-2.125492e-06 1.047520e-03 -4.763046e-06) (-4.156576e-08 -2.615824e-03 -3.633994e-08)) ((8.015126e-12 -1.861793e-11 -1.841672e-10) (-1.600404e-10 -2.790107e-12 -2.143815e-09))
0.119159      	((-9.110425e-07 2.015721e-03 -2.296160e-07) (-1.650218e-07 -2.422113e-03 -4.413228e-08)) ((2.451195e-11 5.116860e-11 -6.639853e-10) (-1.621563e-10 2.652509e-11 -2.497697e-09))
0.154991      	((-4.481842e-06 2.118897e-04 -1.064480e-06) (-3.593401e-07 -2.235625e-03 -3.816803e-08)) ((-2.230170e-12 -2.016008e-12 -3.438994e-11) (-5.949284e-11 1.794365e-11 -4.611363e-09))
0.197989      	((-2.182020e-06 -3.404408e-04 -1.169298e-06) (-5.132084e-07 -2.065787e-03 -3.731414e-08)) ((3.306075e-12 -1.027484e-11 3.472007e-10) (-7.825799e-11 2.032116e-11 -5.839205e-09))
0.249587      	((-2.509298e-06 -5.780088e-04 -2.981746e-07) (-6.269370e-07 -1.917097e-03 -3.570633e-08)) ((-3.091401e-11 -7.462487e-12 5.394578e-11) (-2.479716e-10 3.422848e-11 -5.902159e-09))
0.311504      	((-1.878464e-06 -7.350733e-04 -3.637986e-07) (-6.442153e-07 -1.787914e-03 -3.123809e-08)) ((-3.456761e-11 8.952209e-12 2.191277e-10) (-3.934597e-10 4.370410e-11 -6.082512e-09))
0.385805      	((-1.421334e-06 -8.239770e-04 -1.370229e-07) (-5.350639e-07 -1.672900e-03 -2.650886e-08)) ((-3.229556e-11 -3.921800e-13 3.545668e-10) (-3.291750e-10 4.973987e-11 -7.541902e-09))
0.474966      	((-5.577581e-07 -8.716742e-04 -5.191277e-08) (-4.005309e-07 -1.565080e-03 -2.172398e-08)) ((-2.444337e-11 -3.745973e-12 5.476743e-10) (-1.072893e-10 4.313244e-11 -9.859110e-09))
0.581959      	((-5.561154e-07 -8.998144e-04 -2.791431e-08) (-3.305414e-07 -1.459805e-03 -1.795369e-08)) ((-1.620644e-11 -3.465087e-12 7.387059e-10) (1.423385e-11 2.788238e-11 -1.134813e-08))
0.710351      	((-4.818640e-07 -9.265613e-04 -3.795245e-09) (-3.049186e-07 -1.357449e-03 -1.674139e-08)) ((-1.109397e-11 -1.401564e-12 9.047595e-10) (5.406247e-11 1.494164e-11 -1.204168e-08))
0.864421      	((-4.109919e-07 -9.646616e-04 -5.928161e-08) (-2.865970e-07 -1.260476e-03 -1.783713e-08)) ((-9.722449e-12 -4.836973e-12 1.086450e-09) (4.135861e-11 1.853446e-11 -1.207420e-08))
1.049306      	((-2.155338e-07 -1.025610e-03 -1.740450e-07) (-2.439395e-07 -1.170785e-03 -2.021165e-08)) ((-1.320086e-11 -8.272430e-12 1.449939e-09) (-1.537995e-11 3.595426e-11 -1.199373e-08))
1.271167      	((1.069491e-09 -1.113037e-03 -2.153741e-07) (-1.681408e-07 -1.089373e-03 -1.873672e-08)) ((-2.213362e-11 -6.286990e-12 1.763373e-09) (-7.517222e-11 4.783807e-11 -1.235430e-08))
1.5374        	((2.680611e-07 -1.234177e-03 -2.702878e-07) (-6.447155e-08 -1.016979e-03 -1.636248e-08)) ((-2.446862e-11 -2.617670e-12 2.162405e-09) (-9.734523e-11 5.084329e-11 -1.390971e-08))
1.853638      	((6.198655e-07 -1.395163e-03 -2.222706e-07) (3.706734e-08 -9.544229e-04 -1.467855e-08)) ((-2.477331e-11 -1.614031e-12 2.663926e-09) (-1.063925e-10 4.947437e-11 -1.678344e-08))
2.21946       	((9.639379e-07 -1.596380e-03 -1.629233e-07) (1.124602e-07 -9.021844e-04 -1.692504e-08)) ((-1.991330e-11 8.622896e-13 3.278549e-09) (-1.288919e-10 4.211283e-11 -2.192748e-08))
2.634467      	((1.485095e-06 -1.835538e-03 1.206812e-07) (1.222666e-07 -8.591400e-04 -2.059476e-08)) ((-8.637251e-12 1.130682e-12 4.025486e-09) (-1.769870e-10 4.856285e-11 -2.735754e-08))
3.09818       	((1.667691e-06 -2.110231e-03 3.546772e-07) (7.585002e-08 -8.238233e-04 -1.972932e-08)) ((4.165698e-13 -4.400273e-12 4.911022e-09) (-7.677631e-11 6.004198e-11 -3.126005e-08))
3.579456      	((1.980676e-06 -2.402472e-03 6.160951e-07) (8.054757e-08 -7.963903e-04 -2.089990e-08)) ((1.249514e-11 -1.788784e-11 5.738541e-09) (4.432913e-10 6.342139e-11 -3.393635e-08))
4.054066      	((2.501672e-06 -2.684256e-03 1.004094e-06) (9.299599e-08 -7.753324e-04 -2.436188e-08)) ((1.461817e-11 -1.791040e-11 6.345485e-09) (1.297028e-09 5.205405e-11 -3.450236e-08))
4.521837      	((3.048451e-06 -2.944380e-03 1.410356e-06) (5.456651e-08 -7.589187e-04 -1.971762e-08)) ((1.021099e-12 -2.039881e-11 6.932758e-09) (1.872319e-09 6.506093e-11 -3.322865e-08))
4.984191      	((3.891094e-06 -3.161304e-03 2.082686e-06) (6.674310e-08 -7.462943e-04 3.097092e-09)) ((7.147124e-13 -2.670142e-11 7.662155e-09) (1.719100e-09 7.922372e-11 -3.080689e-08))
5.443692      	((4.576612e-06 -3.317049e-03 2.827280e-06) (1.014484e-07 -7.362777e-04 4.476973e-08)) ((1.164461e-11 -2.635084e-11 8.382143e-09) (1.074563e-09 5.607598e-11 -2.760941e-08))
5.902421      	((5.539823e-06 -3.413369e-03 3.590018e-06) (1.264011e-07 -7.273244e-04 9.579615e-08)) ((6.389377e-12 -2.031113e-11 9.128049e-09) (1.911056e-10 4.704657e-11 -2.580414e-08))
6.360879      	((6.371890e-06 -3.448476e-03 4.276601e-06) (1.722878e-07 -7.186422e-04 1.344353e-07)) ((2.308751e-12 -2.847951e-11 9.673770e-09) (-1.214197e-10 1.028565e-10 -2.526504e-08))
6.818411      	((6.953703e-06 -3.421434e-03 4.289505e-06) (1.976803e-07 -7.102492e-04 1.540062e-07)) ((1.434797e-11 -2.745734e-11 1.004107e-08) (3.671767e-10 1.467422e-10 -2.746055e-08))
7.274226      	((7.815345e-06 -3.360493e-03 4.750058e-06) (2.667178e-07 -7.023229e-04 1.741214e-07)) ((2.973880e-11 -2.130193e-11 1.010493e-08) (1.007172e-09 1.135202e-10 -2.830214e-08))
7.72804       	((8.872248e-06 -3.297443e-03 5.676239e-06) (3.697205e-07 -6.954236e-04 2.118205e-07)) ((3.039377e-11 -2.817795e-12 9.939468e-09) (1.353158e-09 4.254594e-11 -2.746065e-08))
8.180017      	((9.488019e-06 -3.237657e-03 6.321324e-06) (4.503561e-07 -6.896201e-04 2.635810e-07)) ((2.610287e-11 6.614775e-12 9.640295e-09) (1.365499e-09 2.976753e-11 -2.611903e-08))
8.630534      	((1.036690e-05 -3.200095e-03 6.798623e-06) (5.167527e-07 -6.847218e-04 3.109914e-07)) ((1.096476e-11 5.894125e-12 9.442350e-09) (1.229572e-09 6.518881e-11 -2.438627e-08))
9.079902      	((1.156291e-05 -3.185050e-03 7.410092e-06) (5.890457e-07 -6.804789e-04 3.511541e-07)) ((1.172882e-11 -1.336147e-11 9.390264e-09) (1.195914e-09 4.653928e-11 -2.327494e-08))
9.528266      	((1.294108e-05 -3.181762e-03 8.209568e-06) (6.751440e-07 -6.766614e-04 3.893842e-07)) ((1.899361e-11 -2.672608e-11 9.406315e-09) (1.257528e-09 -5.197918e-12 -2.068155e-08))
9.975694      	((1.387029e-05 -3.178063e-03 8.789417e-06) (7.468634e-07 -6.731526e-04 4.190225e-07)) ((2.710659e-11 -4.759752e-11 9.452838e-09) (1.574034e-09 6.082144e-11 -1.846887e-08))
10.422238     	((1.533074e-05 -3.167023e-03 9.412099e-06) (7.963733e-07 -6.698375e-04 4.414213e-07)) ((2.844237e-11 -5.047891e-11 9.437754e-09) (2.390738e-09 2.072275e-10 -1.832732e-08))
10.867999     	((1.724594e-05 -3.141791e-03 1.075060e-05) (8.491716e-07 -6.664944e-04 4.724414e-07)) ((3.873217e-11 -5.096735e-11 9.365112e-09) (3.655253e-09 4.993189e-10 -1.917955e-08))
11.313084     	((1.929201e-05 -3.104847e-03 1.173893e-05) (9.090450e-07 -6.629518e-04 5.066261e-07)) ((4.209508e-11 -5.479960e-11 9.271693e-09) (5.354446e-09 7.902204e-10 -2.085218e-08))
11.757582     	((2.163290e-05 -3.068789e-03 1.280213e-05) (9.805209e-07 -6.593181e-04 5.474884e-07)) ((5.302522e-11 -5.789327e-11 9.171298e-09) (6.820833e-09 8.782284e-10 -2.288692e-08))
12.201554     	((2.418904e-05 -3.035965e-03 1.404405e-05) (1.064135e-06 -6.557512e-04 5.941737e-07)) ((6.624606e-11 -5.119666e-11 9.074091e-09) (8.211854e-09 8.478611e-10 -2.510022e-08))
12.645035     	((2.717467e-05 -3.011713e-03 1.546590e-05) (1.165894e-06 -6.524131e-04 6.458980e-07)) ((7.493288e-11 -4.415884e-11 8.985799e-09) (9.670114e-09 7.603964e-10 -2.749463e-08))
13.088067     	((3.074754e-05 -2.995115e-03 1.705368e-05) (1.283155e-06 -6.493705e-04 7.061498e-07)) ((7.675708e-11 -3.536879e-11 8.924258e-09) (1.102960e-08 5.323515e-10 -3.034081e-08))
13.530694     	((3.393367e-05 -2.985019e-03 1.853123e-05) (1.405585e-06 -6.465616e-04 7.698730e-07)) ((8.509758e-11 -2.817197e-11 8.890188e-09) (1.280078e-08 3.280389e-10 -3.391713e-08))
13.972959     	((3.802260e-05 -2.977871e-03 2.048004e-05) (1.542951e-06 -6.439096e-04 8.380213e-07)) ((1.058872e-10 -2.642521e-11 8.866471e-09) (1.525364e-08 2.587176e-10 -3.799330e-08))
14.414885     	((4.111041e-05 -2.970341e-03 2.213083e-05) (1.686607e-06 -6.413644e-04 9.047191e-07)) ((1.074901e-10 -1.156929e-11 8.855612e-09) (1.812362e-08 3.058874e-10 -4.208215e-08))
14.856471     	((4.471646e-05 -2.961610e-03 2.407029e-05) (1.845550e-06 -6.389015e-04 9.741954e-07)) ((1.140860e-10 1.066123e-11 8.847423e-09) (2.117583e-08 3.134797e-10 -4.561378e-08))
15.29774      	((4.849961e-05 -2.949885e-03 2.604526e-05) (2.022968e-06 -6.365061e-04 1.051095e-06)) ((1.201297e-10 3.233710e-11 8.832517e-09) (2.412416e-08 2.753323e-10 -4.873375e-08))
15.738699     	((5.296025e-05 -2.936962e-03 2.839332e-05) (2.210861e-06 -6.341858e-04 1.143757e-06)) ((1.282711e-10 4.995363e-11 8.811301e-09) (2.661970e-08 2.757612e-10 -5.192339e-08))
16.17932      	((5.769872e-05 -2.924203e-03 3.078167e-05) (2.419683e-06 -6.319635e-04 1.248574e-06)) ((1.378392e-10 6.156780e-11 8.783325e-09) (2.873450e-08 2.828835e-10 -5.458152e-08))
16.619661     	((6.265835e-05 -2.912627e-03 3.313572e-05) (2.657300e-06 -6.298889e-04 1.356610e-06)) ((1.474992e-10 5.991010e-11 8.760552e-09) (3.056214e-08 1.712157e-10 -5.639720e-08))
17.059762     	((6.809591e-05 -2.902213e-03 3.561880e-05) (2.927418e-06 -6.280071e-04 1.469507e-06)) ((1.581815e-10 5.531401e-11 8.742205e-09) (3.226445e-08 -1.038921e-10 -5.774671e-08))
17.49963      	((7.452560e-05 -2.890797e-03 3.896293e-05) (3.232731e-06 -6.262731e-04 1.605524e-06)) ((1.790248e-10 5.215379e-11 8.722314e-09) (3.371934e-08 -2.730281e-10 -5.949988e-08))
17.939271     	((8.168012e-05 -2.878655e-03 4.226527e-05) (3.572565e-06 -6.245963e-04 1.769306e-06)) ((1.997576e-10 4.841155e-11 8.706262e-09) (3.493132e-08 -2.636708e-10 -6.201547e-08))
18.378685     	((8.840885e-05 -2.870231e-03 4.523222e-05) (3.934567e-06 -6.229759e-04 1.938647e-06)) ((2.149282e-10 4.482677e-11 8.697622e-09) (3.660122e-08 -2.360727e-10 -6.500508e-08))
18.817885     	((9.524077e-05 -2.860537e-03 4.831740e-05) (4.309879e-06 -6.213756e-04 2.108911e-06)) ((2.374171e-10 4.587572e-11 8.690254e-09) (3.872049e-08 -2.775459e-10 -6.826881e-08))
19.256888     	((1.027419e-04 -2.849899e-03 5.177722e-05) (4.706168e-06 -6.197484e-04 2.285932e-06)) ((2.589285e-10 4.541398e-11 8.675977e-09) (4.099905e-08 -3.780770e-10 -7.187705e-08))
19.69571      	((1.110875e-04 -2.839266e-03 5.574834e-05) (5.134962e-06 -6.181005e-04 2.475727e-06)) ((2.883544e-10 4.307846e-11 8.652167e-09) (4.348341e-08 -4.609385e-10 -7.584353e-08))
20.134388     	((1.199352e-04 -2.829616e-03 5.984617e-05) (5.594905e-06 -6.164611e-04 2.677740e-06)) ((3.158841e-10 4.286975e-11 8.623945e-09) (4.629037e-08 -5.490217e-10 -8.029906e-08))
20.572954     	((1.284807e-04 -2.820524e-03 6.376182e-05) (6.065499e-06 -6.148516e-04 2.884029e-06)) ((3.390967e-10 4.300457e-11 8.596666e-09) (4.946083e-08 -6.206098e-10 -8.557438e-08))
21.011401     	((1.381936e-04 -2.812485e-03 6.892185e-05) (6.549040e-06 -6.132968e-04 3.106831e-06)) ((3.735212e-10 4.303566e-11 8.571144e-09) (5.297457e-08 -6.114218e-10 -9.177074e-08))
21.449721     	((1.492874e-04 -2.805081e-03 7.433758e-05) (7.067058e-06 -6.118176e-04 3.355028e-06)) ((4.060542e-10 4.357778e-11 8.543915e-09) (5.664925e-08 -6.100739e-10 -9.876221e-08))
21.887923     	((1.620207e-04 -2.797838e-03 8.070993e-05) (7.641962e-06 -6.104148e-04 3.637300e-06)) ((4.481625e-10 4.059458e-11 8.514770e-09) (6.036458e-08 -6.751055e-10 -1.063088e-07))
22.32601      	((1.764454e-04 -2.790389e-03 8.771482e-05) (8.295462e-06 -6.090734e-04 3.962225e-06)) ((4.918946e-10 3.608475e-11 8.485732e-09) (6.403063e-08 -7.496183e-10 -1.139405e-07))
22.76399      	((1.925414e-04 -2.783385e-03 9.562587e-05) (9.042688e-06 -6.077749e-04 4.336199e-06)) ((5.424898e-10 3.256219e-11 8.456296e-09) (6.756294e-08 -7.954088e-10 -1.215351e-07))
23.201857     	((2.105096e-04 -2.776368e-03 1.042581e-04) (9.887976e-06 -6.065002e-04 4.759663e-06)) ((5.999112e-10 2.627527e-11 8.424793e-09) (7.114789e-08 -8.000194e-10 -1.296447e-07))
23.639615     	((2.303160e-04 -2.769168e-03 1.135828e-04) (1.082449e-05 -6.052381e-04 5.223433e-06)) ((6.618375e-10 2.148642e-11 8.391090e-09) (7.532753e-08 -7.144941e-10 -1.391788e-07))
24.077265     	((2.522486e-04 -2.762392e-03 1.238439e-04) (1.184403e-05 -6.039945e-04 5.720930e-06)) ((7.306775e-10 1.251136e-11 8.352964e-09) (8.075380e-08 -5.918374e-10 -1.510615e-07))
24.514806     	((2.758051e-04 -2.755981e-03 1.350101e-04) (1.294059e-05 -6.027807e-04 6.249997e-06)) ((7.995895e-10 -2.254019e-12 8.317287e-09) (8.768854e-08 -4.852517e-10 -1.655666e-07))
24.952239     	((3.012184e-04 -2.750735e-03 1.468643e-04) (1.412948e-05 -6.015982e-04 6.815907e-06)) ((8.650213e-10 -2.313026e-11 8.287715e-09) (9.606692e-08 -4.082920e-10 -1.821595e-07))
25.389563     	((3.278788e-04 -2.746826e-03 1.593420e-04) (1.541830e-05 -6.004562e-04 7.421616e-06)) ((9.246965e-10 -4.720176e-11 8.264110e-09) (1.054084e-07 -3.449549e-10 -2.003757e-07))
25.826778     	((3.561996e-04 -2.743031e-03 1.727169e-04) (1.681070e-05 -5.993582e-04 8.075176e-06)) ((9.854751e-10 -8.033977e-11 8.239465e-09) (1.152316e-07 -2.618193e-10 -2.196494e-07))
26.263882     	((3.869473e-04 -2.740362e-03 1.872107e-04) (1.832579e-05 -5.983225e-04 8.794808e-06)) ((1.046558e-09 -1.220528e-10 8.216614e-09) (1.249346e-07 -3.241543e-11 -2.393523e-07))
26.70087      	((4.202815e-04 -2.737945e-03 2.028887e-04) (1.997640e-05 -5.973566e-04 9.591360e-06)) ((1.114869e-09 -1.719037e-10 8.189437e-09) (1.342386e-07 4.354247e-10 -2.594614e-07))
27.137736     	((4.565985e-04 -2.736547e-03 2.197843e-04) (2.177434e-05 -5.964456e-04 1.045752e-05)) ((1.190268e-09 -2.255586e-10 8.159411e-09) (1.437281e-07 9.323238e-10 -2.805445e-07))
27.574476     	((4.951999e-04 -2.736441e-03 2.376891e-04) (2.372875e-05 -5.956062e-04 1.138628e-05)) ((1.275660e-09 -2.849070e-10 8.121972e-09) (1.536867e-07 1.227470e-09 -3.022617e-07))
28.011085     	((5.370268e-04 -2.737087e-03 2.572420e-04) (2.586131e-05 -5.948611e-04 1.239381e-05)) ((1.381876e-09 -3.498877e-10 8.071893e-09) (1.633449e-07 1.417161e-09 -3.236300e-07))
28.447557     	((5.818199e-04 -2.739150e-03 2.782574e-04) (2.818919e-05 -5.942268e-04 1.349103e-05)) ((1.496423e-09 -4.151043e-10 8.014651e-09) (1.723647e-07 1.604499e-09 -3.442257e-07))
28.883881     	((6.300651e-04 -2.741986e-03 3.008974e-04) (3.072681e-05 -5.936968e-04 1.468476e-05)) ((1.624154e-09 -4.920386e-10 7.950528e-09) (1.810030e-07 1.787317e-09 -3.642977e-07))
29.320049     	((6.824111e-04 -2.745938e-03 3.251566e-04) (3.349404e-05 -5.932543e-04 1.598678e-05)) ((1.760726e-09 -5.786851e-10 7.883108e-09) (1.895768e-07 1.844911e-09 -3.846065e-07))
29.756047     	((7.398554e-04 -2.751164e-03 3.514303e-04) (3.651156e-05 -5.928842e-04 1.739867e-05)) ((1.908145e-09 -6.737795e-10 7.812409e-09) (1.986304e-07 1.758879e-09 -4.064116e-07))
30.191865     	((8.021294e-04 -2.758421e-03 3.800926e-04) (3.979860e-05 -5.925867e-04 1.892670e-05)) ((2.070766e-09 -7.732382e-10 7.734153e-09) (2.088714e-07 1.534416e-09 -4.305278e-07))
30.627492     	((8.705297e-04 -2.767960e-03 4.112142e-04) (4.338104e-05 -5.923763e-04 2.058263e-05)) ((2.240049e-09 -8.902638e-10 7.651600e-09) (2.207472e-07 1.197955e-09 -4.574916e-07))
31.062914     	((9.452914e-04 -2.781099e-03 4.451766e-04) (4.729285e-05 -5.922899e-04 2.238165e-05)) ((2.423641e-09 -1.022019e-09 7.564846e-09) (2.342803e-07 9.552270e-10 -4.872010e-07))
31.498144     	((1.026910e-03 -2.797692e-03 4.823238e-04) (5.156014e-05 -5.923697e-04 2.433705e-05)) ((2.621537e-09 -1.177203e-09 7.474525e-09) (2.495445e-07 9.349374e-10 -5.199538e-07))
31.933212     	((1.115899e-03 -2.818617e-03 5.227806e-04) (5.621777e-05 -5.926757e-04 2.646560e-05)) ((2.830996e-09 -1.355392e-09 7.374446e-09) (2.661327e-07 1.283958e-09 -5.556750e-07))
32.36808      	((1.211795e-03 -2.845059e-03 5.670336e-04) (6.129233e-05 -5.932794e-04 2.879142e-05)) ((3.076923e-09 -1.565611e-09 7.252668e-09) (2.835618e-07 2.130725e-09 -5.928716e-07))
32.802704     	((1.314274e-03 -2.876936e-03 6.140983e-04) (6.681008e-05 -5.942488e-04 3.131824e-05)) ((3.326399e-09 -1.803453e-09 7.112861e-09) (3.014736e-07 2.824345e-09 -6.302018e-07))
33.237084     	((1.423073e-03 -2.913987e-03 6.642612e-04) (7.279910e-05 -5.955780e-04 3.405354e-05)) ((3.587555e-09 -2.068163e-09 6.953050e-09) (3.198921e-07 2.761717e-09 -6.681260e-07))
33.671186     	((1.537336e-03 -2.957042e-03 7.167673e-04) (7.922339e-05 -5.972207e-04 3.698720e-05)) ((3.833779e-09 -2.361692e-09 6.777542e-09) (3.403807e-07 2.278856e-09 -7.098524e-07))
34.104944     	((1.658387e-03 -3.006765e-03 7.725246e-04) (8.608090e-05 -5.992365e-04 4.013108e-05)) ((4.081879e-09 -2.699961e-09 6.595290e-09) (3.631429e-07 2.143643e-09 -7.553255e-07))
34.538368     	((1.785531e-03 -3.064583e-03 8.313579e-04) (9.336990e-05 -6.017010e-04 4.348968e-05)) ((4.309001e-09 -3.097320e-09 6.415180e-09) (3.880517e-07 2.646699e-09 -8.044578e-07))
34.971494     	((1.917627e-03 -3.131030e-03 8.925662e-04) (1.010779e-04 -6.046592e-04 4.704283e-05)) ((4.493034e-09 -3.539673e-09 6.230490e-09) (4.156841e-07 2.911518e-09 -8.568952e-07))
35.404329     	((2.053760e-03 -3.205985e-03 9.560513e-04) (1.092093e-04 -6.081619e-04 5.079239e-05)) ((4.648089e-09 -4.015575e-09 6.045255e-09) (4.444102e-07 2.750553e-09 -9.102999e-07))
35.836864     	((2.191029e-03 -3.289945e-03 1.021031e-03) (1.177498e-04 -6.122880e-04 5.473496e-05)) ((4.754930e-09 -4.535880e-09 5.873490e-09) (4.723894e-07 2.272486e-09 -9.615972e-07))
36.269049     	((2.329088e-03 -3.383204e-03 1.087095e-03) (1.266546e-04 -6.170641e-04 5.887425e-05)) ((4.825060e-09 -5.104406e-09 5.705115e-09) (4.983548e-07 1.422877e-09 -1.010959e-06))
36.70085      	((2.465855e-03 -3.486254e-03 1.152640e-03) (1.358723e-04 -6.225462e-04 6.318674e-05)) ((4.837750e-09 -5.708866e-09 5.550016e-09) (5.224539e-07 9.203873e-10 -1.058456e-06))
37.132293     	((2.600369e-03 -3.598765e-03 1.216722e-03) (1.453045e-04 -6.287805e-04 6.759845e-05)) ((4.789460e-09 -6.342854e-09 5.402984e-09) (5.464920e-07 1.899081e-09 -1.104381e-06))
37.563397     	((2.728825e-03 -3.720282e-03 1.277666e-03) (1.548478e-04 -6.357776e-04 7.204296e-05)) ((4.699943e-09 -6.996716e-09 5.278646e-09) (5.695640e-07 4.165309e-09 -1.146409e-06))
37.994204     	((2.847731e-03 -3.849883e-03 1.334469e-03) (1.643957e-04 -6.435276e-04 7.648616e-05)) ((4.587642e-09 -7.660480e-09 5.160927e-09) (5.888332e-07 6.362591e-09 -1.182833e-06))
38.42477      	((2.952772e-03 -3.982340e-03 1.384803e-03) (1.737987e-04 -6.519928e-04 8.089811e-05)) ((4.459546e-09 -8.274371e-09 5.065107e-09) (6.018561e-07 8.344999e-09 -1.212078e-06))
38.855109     	((3.037631e-03 -4.112756e-03 1.425278e-03) (1.828689e-04 -6.610183e-04 8.517919e-05)) ((4.312188e-09 -8.812762e-09 4.990271e-09) (6.085939e-07 1.131882e-08 -1.230397e-06))
39.285235     	((3.095623e-03 -4.238329e-03 1.453823e-03) (1.913506e-04 -6.703774e-04 8.920007e-05)) ((4.128215e-09 -9.276147e-09 4.921664e-09) (6.092009e-07 1.568712e-08 -1.236491e-06))
39.71516      	((3.123235e-03 -4.352143e-03 1.467414e-03) (1.990284e-04 -6.797771e-04 9.282086e-05)) ((3.847925e-09 -9.644364e-09 4.893085e-09) (6.023041e-07 2.032044e-08 -1.225960e-06))
40.144905     	((3.115595e-03 -4.446333e-03 1.463438e-03) (2.056822e-04 -6.888695e-04 9.588380e-05)) ((3.466603e-09 -9.892262e-09 4.903808e-09) (5.864490e-07 2.512756e-08 -1.193106e-06))
40.574532     	((3.067081e-03 -4.516474e-03 1.438924e-03) (2.109634e-04 -6.974759e-04 9.822610e-05)) ((3.069352e-09 -9.973952e-09 4.929562e-09) (5.590335e-07 3.130259e-08 -1.133806e-06))
41.004099     	((2.971609e-03 -4.552610e-03 1.391614e-03) (2.144765e-04 -7.053576e-04 9.969776e-05)) ((2.689534e-09 -9.849834e-09 4.902151e-09) (5.180594e-07 3.990779e-08 -1.045660e-06))
41.433659     	((2.821764e-03 -4.547742e-03 1.317260e-03) (2.156656e-04 -7.120397e-04 9.999125e-05)) ((2.295250e-09 -9.485066e-09 4.785103e-09) (4.681849e-07 5.026956e-08 -9.347535e-07))
41.863271     	((2.606062e-03 -4.495042e-03 1.213333e-03) (2.138266e-04 -7.170179e-04 9.873724e-05)) ((1.944294e-09 -8.761781e-09 4.577676e-09) (4.165046e-07 6.216699e-08 -8.105801e-07))
42.29299      	((2.319598e-03 -4.394451e-03 1.079049e-03) (2.082824e-04 -7.198459e-04 9.568069e-05)) ((1.706087e-09 -7.625849e-09 4.257309e-09) (3.666713e-07 7.600154e-08 -6.796840e-07))
42.722878     	((1.960749e-03 -4.251519e-03 9.100943e-04) (1.983733e-04 -7.202362e-04 9.052248e-05)) ((1.460018e-09 -6.078651e-09 3.955076e-09) (3.223071e-07 9.077704e-08 -5.501238e-07))
43.153029     	((1.526812e-03 -4.083772e-03 7.044290e-04) (1.835096e-04 -7.183041e-04 8.295699e-05)) ((7.657543e-10 -4.171788e-09 4.013314e-09) (2.853390e-07 1.045568e-07 -4.300114e-07))
43.583562     	((1.025016e-03 -3.906127e-03 4.711483e-04) (1.635925e-04 -7.146273e-04 7.291569e-05)) ((-6.167308e-10 -2.206861e-09 4.610313e-09) (2.531669e-07 1.162170e-07 -3.154109e-07))
44.014571     	((4.759138e-04 -3.755944e-03 2.128348e-04) (1.392243e-04 -7.102727e-04 6.062267e-05)) ((-2.850030e-09 -3.615799e-10 5.548095e-09) (2.224643e-07 1.281608e-07 -1.908887e-07))
44.446119     	((-8.677858e-05 -3.665443e-03 -4.774380e-05) (1.114624e-04 -7.067017e-04 4.670820e-05)) ((-5.492203e-09 9.059579e-10 6.396107e-09) (1.857435e-07 1.441505e-07 -3.928657e-08))
44.87825      	((-6.216684e-04 -3.637700e-03 -2.963401e-04) (8.167229e-05 -7.051913e-04 3.185286e-05)) ((-7.873923e-09 1.362054e-09 7.022088e-09) (1.387088e-07 1.650093e-07 1.409219e-07))
45.310824     	((-1.098355e-03 -3.664841e-03 -5.106966e-04) (5.156407e-05 -7.065741e-04 1.699748e-05)) ((-9.344693e-09 1.255485e-09 7.436633e-09) (7.124782e-08 1.889551e-07 3.543277e-07))
