# Forces      
# CofR        : (0.000000e+00 0.000000e+00 0.000000e+00)
# Time        forces(pressure viscous)	moments(pressure viscous)
0             	((0.000000e+00 0.000000e+00 0.000000e+00) (-4.464878e-15 4.005630e-16 -6.340765e-05)) ((0.000000e+00 0.000000e+00 0.000000e+00) (-1.150164e-16 -2.432959e-11 -1.107500e-17))
0.012         	((2.520553e-09 6.603327e-09 -1.842885e-02) (5.406946e-11 5.708818e-11 -7.276053e-05)) ((-7.767747e-12 -4.883483e-09 -7.840483e-14) (4.951491e-13 -7.153996e-11 -3.404534e-15))
0.0264        	((-3.809533e-07 -3.747119e-07 1.287853e-03) (-2.191487e-10 -2.048216e-10 -7.422810e-05)) ((1.041887e-11 3.049912e-10 -6.275259e-14) (4.185441e-13 -9.493105e-11 -1.794233e-13))
0.04368       	((4.030479e-07 3.164738e-07 3.847586e-03) (-2.174445e-10 -2.090482e-10 -6.595772e-05)) ((4.219740e-11 8.695927e-10 5.985347e-13) (-1.176378e-12 -9.693326e-11 -1.693365e-13))
0.064416      	((-1.475760e-08 -6.768435e-08 3.646909e-05) (-8.722325e-10 -3.820678e-10 -5.842377e-05)) ((-1.387421e-11 -1.630061e-11 -3.003278e-13) (5.648933e-12 -1.146390e-10 -9.214697e-14))
0.0892992     	((-7.242839e-08 4.925414e-08 -4.905612e-05) (-1.474394e-09 -6.430911e-10 -5.393613e-05)) ((-5.450374e-12 2.900832e-11 -1.769762e-13) (2.423535e-12 -1.437050e-10 2.101130e-13))
0.119159      	((-5.748722e-08 -3.455051e-08 5.878983e-05) (-1.236421e-09 -6.264676e-10 -4.979932e-05)) ((-2.449755e-12 3.668300e-11 2.369825e-13) (-3.973843e-12 -1.584810e-10 6.191892e-13))
0.154991      	((4.635971e-10 -1.580739e-09 3.179877e-05) (-9.924064e-10 -4.980472e-10 -4.542312e-05)) ((1.535340e-12 2.860553e-11 -1.868885e-13) (-1.250715e-12 -1.618206e-10 1.409705e-12))
0.197989      	((-1.059291e-08 9.065742e-09 7.725021e-06) (-3.822740e-10 -1.894267e-10 -4.101592e-05)) ((-5.995761e-13 1.367970e-11 -1.692371e-13) (8.356551e-13 -1.473107e-10 3.790893e-12))
0.249587      	((3.199770e-09 -1.143893e-09 -1.020546e-06) (1.388140e-10 7.345747e-12 -3.670035e-05)) ((-5.250888e-13 7.884364e-12 -1.211458e-14) (3.046639e-12 -1.339186e-10 5.365290e-12))
0.311504      	((1.230177e-09 5.626253e-10 -4.968329e-06) (2.653498e-10 1.409494e-10 -3.260705e-05)) ((3.986416e-15 2.855944e-12 -3.239112e-14) (4.590489e-12 -1.301098e-10 4.644420e-12))
0.385805      	((3.424688e-10 4.959116e-10 -6.854349e-06) (2.972137e-10 2.511942e-10 -2.884164e-05)) ((1.360040e-13 -5.190638e-13 -2.472992e-14) (4.719993e-12 -1.261545e-10 3.434588e-12))
0.474966      	((2.130684e-09 9.629742e-10 -7.792180e-06) (2.324318e-10 2.595028e-10 -2.547203e-05)) ((3.053647e-14 -2.200017e-12 -1.696263e-14) (4.011828e-12 -1.102290e-10 2.511898e-12))
0.581959      	((1.027413e-09 7.812423e-10 -8.184520e-06) (1.772259e-10 2.350973e-10 -2.251682e-05)) ((4.649596e-15 -2.953146e-12 -4.114796e-15) (3.901755e-12 -8.812903e-11 1.866094e-12))
0.710351      	((-1.584453e-10 4.260034e-10 -8.162125e-06) (1.267125e-10 1.644600e-10 -1.996830e-05)) ((3.562189e-14 -3.826253e-12 -2.965250e-15) (2.256928e-12 -6.306891e-11 1.575774e-12))
0.864421      	((-2.935824e-10 1.744565e-10 -7.871066e-06) (1.261345e-10 8.960866e-11 -1.779511e-05)) ((6.564109e-14 -4.473624e-12 -2.166884e-15) (1.417198e-13 -3.806227e-11 1.412222e-12))
1.049306      	((-5.865903e-11 6.295604e-11 -7.436984e-06) (1.400918e-10 4.382559e-11 -1.594657e-05)) ((6.317520e-14 -4.725724e-12 -8.052299e-17) (-1.170709e-12 -1.710293e-11 1.134160e-12))
1.271167      	((6.388821e-11 -1.277980e-11 -6.949160e-06) (1.062296e-10 2.345155e-11 -1.436901e-05)) ((5.616030e-14 -4.669251e-12 -3.780739e-15) (-1.951228e-12 -5.412418e-12 8.906390e-13))
1.5374        	((7.268014e-11 1.246420e-11 -6.445314e-06) (1.076515e-10 3.028773e-11 -1.300732e-05)) ((5.012856e-14 -4.415221e-12 -4.460375e-15) (-2.431871e-12 -1.146765e-13 7.395020e-13))
1.85688       	((-1.451762e-10 -6.268471e-11 -5.950038e-06) (1.142397e-10 3.973686e-11 -1.181192e-05)) ((4.619789e-14 -4.299502e-12 -2.903297e-15) (-2.826030e-12 1.132450e-12 6.786269e-13))
2.240256      	((-5.181770e-10 -1.264885e-10 -5.480104e-06) (7.487836e-11 3.818982e-11 -1.074971e-05)) ((4.263002e-14 -4.217065e-12 -3.472342e-15) (-3.578007e-12 4.120663e-14 6.719684e-13))
2.700307      	((-4.968999e-10 -1.631902e-10 -5.041607e-06) (4.430788e-11 3.632642e-11 -9.799435e-06)) ((3.243162e-14 -4.129610e-12 -4.067286e-15) (-4.359994e-12 -3.441052e-12 6.195334e-13))
3.252369      	((-4.802179e-10 -2.278854e-10 -4.634538e-06) (7.243875e-11 4.462406e-11 -8.945729e-06)) ((2.267730e-14 -3.964034e-12 -4.044351e-15) (-4.984973e-12 -6.245454e-12 5.249051e-13))
3.914842      	((-3.498663e-10 -2.316442e-10 -4.254750e-06) (1.026943e-10 4.711322e-11 -8.177021e-06)) ((7.598935e-15 -3.724532e-12 -4.788943e-15) (-5.541325e-12 -7.895725e-12 4.251415e-13))
4.709811      	((-2.949745e-10 -1.561674e-10 -3.904353e-06) (6.399268e-11 3.834513e-11 -7.484988e-06)) ((-6.895918e-15 -3.487290e-12 -4.273659e-15) (-5.548243e-12 -8.392209e-12 3.391000e-13))
5.663773      	((-2.676284e-10 -8.540895e-11 -3.583975e-06) (4.084058e-11 3.490515e-11 -6.863222e-06)) ((-2.017335e-14 -3.259319e-12 -4.564039e-15) (-5.216931e-12 -6.659793e-12 2.186114e-13))
6.808528      	((-1.690924e-10 2.366336e-11 -3.294328e-06) (7.704691e-11 3.370665e-11 -6.305788e-06)) ((-2.619322e-14 -3.039013e-12 -5.822067e-15) (-4.638297e-12 -4.642398e-12 2.017940e-13))
8.182233      	((-3.111286e-10 -1.052332e-10 -3.034728e-06) (6.288407e-11 2.566832e-11 -5.806270e-06)) ((-2.319593e-14 -2.855818e-12 -7.680433e-15) (-3.831294e-12 -6.682933e-13 2.364846e-13))
9.83068       	((-5.430972e-10 -3.128873e-10 -2.802610e-06) (4.062548e-11 1.047272e-11 -5.357801e-06)) ((-1.622077e-14 -2.693711e-12 -8.211760e-15) (-3.925469e-12 3.587365e-12 1.960204e-13))
11.808816     	((-6.460543e-10 -4.757378e-10 -2.595139e-06) (3.927698e-11 -9.791573e-12 -4.953937e-06)) ((-1.546533e-14 -2.517224e-12 -7.302358e-15) (-5.496424e-12 7.756030e-12 1.854847e-13))
14.182579     	((-7.107591e-10 -5.745634e-10 -2.410619e-06) (2.073938e-11 -3.267434e-11 -4.589129e-06)) ((-2.181165e-14 -2.330251e-12 -6.211215e-15) (-8.404167e-12 1.314926e-11 1.238900e-13))
17.031095     	((-6.419690e-10 -6.572792e-10 -2.247768e-06) (-1.415794e-11 -5.158906e-11 -4.259093e-06)) ((-2.359736e-14 -2.153220e-12 -4.315086e-15) (-1.193457e-11 2.001086e-11 7.299956e-14))
20.449314     	((-5.949631e-10 -7.202419e-10 -2.105892e-06) (-4.418739e-11 -7.277217e-11 -3.960754e-06)) ((-2.529930e-14 -1.988437e-12 -2.948719e-15) (-1.556680e-11 2.685298e-11 3.064810e-14))
24.551176     	((-7.665688e-10 -8.495048e-10 -1.984521e-06) (-7.629058e-11 -1.020431e-10 -3.691754e-06)) ((-2.618522e-14 -1.836318e-12 -8.288429e-16) (-1.842127e-11 2.988821e-11 -2.424096e-14))
29.473411     	((-8.528748e-10 -9.620990e-10 -1.883604e-06) (-9.667146e-11 -1.281809e-10 -3.450264e-06)) ((-3.561694e-14 -1.704629e-12 -3.299409e-16) (-1.997279e-11 2.919130e-11 -8.290033e-14))
35.380094     	((-7.998945e-10 -8.458293e-10 -1.801982e-06) (-1.190381e-10 -1.423131e-10 -3.234645e-06)) ((-3.842111e-14 -1.594709e-12 -1.902274e-15) (-2.161862e-11 2.881146e-11 -1.565133e-13))
42.468112     	((-7.853447e-10 -8.129355e-10 -1.738913e-06) (-1.251745e-10 -1.540537e-10 -3.043220e-06)) ((-3.645820e-14 -1.492595e-12 -2.494721e-15) (-2.455840e-11 2.745648e-11 -2.287359e-13))
50.973735     	((-7.676583e-10 -7.481572e-10 -1.693022e-06) (-1.223580e-10 -1.669131e-10 -2.874354e-06)) ((-3.323353e-14 -1.405581e-12 -2.051631e-15) (-2.875898e-11 2.667952e-11 -1.874788e-13))
61.180482     	((-7.281530e-10 -6.937869e-10 -1.663717e-06) (-1.167872e-10 -1.762141e-10 -2.726485e-06)) ((-3.175949e-14 -1.332354e-12 -1.232337e-15) (-3.405071e-11 2.893078e-11 -9.208150e-14))
73.428578     	((-6.449962e-10 -5.703560e-10 -1.650649e-06) (-1.211108e-10 -1.839040e-10 -2.598328e-06)) ((-3.252564e-14 -1.269312e-12 -6.731847e-16) (-3.934029e-11 3.304296e-11 -7.215795e-14))
88.126294     	((-4.527496e-10 -3.478484e-10 -1.650990e-06) (-1.253138e-10 -1.837634e-10 -2.488806e-06)) ((-3.115078e-14 -1.219301e-12 -8.802340e-16) (-4.421489e-11 3.886893e-11 -6.742580e-14))
105.763553    	((-3.263660e-10 -1.488614e-10 -1.662534e-06) (-1.238098e-10 -1.803174e-10 -2.396871e-06)) ((-3.096630e-14 -1.178274e-12 -1.696199e-15) (-4.833011e-11 4.487958e-11 -5.698784e-14))
126.928263    	((-1.992213e-10 1.852897e-11 -1.682419e-06) (-1.225328e-10 -1.706507e-10 -2.321463e-06)) ((-2.839923e-14 -1.147330e-12 -1.512181e-15) (-5.082097e-11 4.882731e-11 -8.476580e-14))
152.089595    	((-6.671319e-12 1.873262e-10 -1.706733e-06) (-1.056140e-10 -1.494582e-10 -2.261172e-06)) ((-2.613569e-14 -1.123862e-12 -1.325916e-15) (-5.145525e-11 5.100597e-11 -3.247216e-14))
181.225948    	((1.004443e-10 2.944227e-10 -1.730669e-06) (-7.697043e-11 -1.190443e-10 -2.213855e-06)) ((-2.343126e-14 -1.106184e-12 -1.642288e-15) (-5.023530e-11 5.149534e-11 7.383338e-15))
214.319685    	((3.896499e-10 5.745157e-10 -1.749133e-06) (-2.928261e-11 -6.929689e-11 -2.176451e-06)) ((-1.965541e-14 -1.097685e-12 -1.731644e-15) (-4.806538e-11 5.060159e-11 4.505026e-14))
251.365015    	((5.934044e-10 7.679198e-10 -1.760518e-06) (4.526076e-11 6.163086e-12 -2.146122e-06)) ((-1.691573e-14 -1.090849e-12 -1.608372e-15) (-4.535169e-11 4.886405e-11 8.533639e-14))
290.927709    	((6.964472e-10 8.563549e-10 -1.766715e-06) (1.213726e-10 7.949907e-11 -2.121249e-06)) ((-1.515263e-14 -1.085420e-12 -1.328913e-15) (-4.285553e-11 4.717169e-11 8.556469e-14))
330.569368    	((7.660269e-10 9.201520e-10 -1.769952e-06) (1.833681e-10 1.408366e-10 -2.100813e-06)) ((-1.217659e-14 -1.078487e-12 -1.332609e-15) (-4.076246e-11 4.565557e-11 9.867521e-14))
370.271871    	((7.815052e-10 9.246136e-10 -1.771114e-06) (2.334015e-10 1.922672e-10 -2.083735e-06)) ((-1.019924e-14 -1.070858e-12 -1.310766e-15) (-3.860439e-11 4.396793e-11 1.183791e-13))
410.014339    	((7.548245e-10 8.893122e-10 -1.771640e-06) (2.729612e-10 2.324400e-10 -2.069524e-06)) ((-8.871836e-15 -1.064923e-12 -1.124723e-15) (-3.636778e-11 4.198018e-11 1.204815e-13))
449.787059    	((7.034036e-10 8.293512e-10 -1.771695e-06) (3.010466e-10 2.611352e-10 -2.057659e-06)) ((-7.693546e-15 -1.059639e-12 -1.083433e-15) (-3.400153e-11 3.971333e-11 1.179210e-13))
489.586813    	((6.332900e-10 7.531303e-10 -1.771488e-06) (3.197331e-10 2.801159e-10 -2.047748e-06)) ((-7.181883e-15 -1.054577e-12 -1.037326e-15) (-3.157838e-11 3.735998e-11 1.046955e-13))
529.41089     	((5.280528e-10 6.455665e-10 -1.771054e-06) (3.274041e-10 2.882300e-10 -2.039439e-06)) ((-6.882376e-15 -1.050349e-12 -1.044655e-15) (-2.920561e-11 3.504650e-11 9.146091e-14))
569.256077    	((4.189587e-10 5.324417e-10 -1.770542e-06) (3.263095e-10 2.872217e-10 -2.032464e-06)) ((-6.725977e-15 -1.046714e-12 -9.797764e-16) (-2.689418e-11 3.280377e-11 8.080199e-14))
609.119303    	((3.140439e-10 4.226832e-10 -1.770010e-06) (3.194140e-10 2.799909e-10 -2.026596e-06)) ((-6.602796e-15 -1.043885e-12 -9.296613e-16) (-2.469128e-11 3.068295e-11 7.205178e-14))
648.997948    	((2.078926e-10 3.129697e-10 -1.769503e-06) (3.074835e-10 2.677055e-10 -2.021652e-06)) ((-6.517282e-15 -1.041474e-12 -8.485683e-16) (-2.261091e-11 2.869689e-11 6.574065e-14))
688.889509    	((1.116394e-10 2.098234e-10 -1.769001e-06) (2.927639e-10 2.525309e-10 -2.017477e-06)) ((-6.300190e-15 -1.039537e-12 -7.931010e-16) (-2.066617e-11 2.685632e-11 6.317036e-14))
728.791869    	((1.648197e-11 1.095079e-10 -1.768543e-06) (2.763999e-10 2.355496e-10 -2.013945e-06)) ((-6.131044e-15 -1.037868e-12 -7.414959e-16) (-1.886061e-11 2.514022e-11 6.610618e-14))
768.703414    	((-7.629064e-11 1.233591e-11 -1.768120e-06) (2.587428e-10 2.170442e-10 -2.010954e-06)) ((-6.099239e-15 -1.036444e-12 -7.053045e-16) (-1.719832e-11 2.354593e-11 7.030887e-14))
808.622775    	((-1.626983e-10 -7.722024e-11 -1.767730e-06) (2.402507e-10 1.978366e-10 -2.008417e-06)) ((-6.074330e-15 -1.035206e-12 -6.960336e-16) (-1.567976e-11 2.209227e-11 7.225418e-14))
848.548801    	((-2.440077e-10 -1.601015e-10 -1.767377e-06) (2.212496e-10 1.782732e-10 -2.006262e-06)) ((-5.963759e-15 -1.034228e-12 -6.822169e-16) (-1.431782e-11 2.078501e-11 7.394270e-14))
888.480512    	((-3.159502e-10 -2.334441e-10 -1.767055e-06) (2.025132e-10 1.590205e-10 -2.004428e-06)) ((-5.866550e-15 -1.033398e-12 -6.814405e-16) (-1.310331e-11 1.961779e-11 7.437963e-14))
928.41708     	((-3.802803e-10 -2.985490e-10 -1.766769e-06) (1.845519e-10 1.405472e-10 -2.002865e-06)) ((-5.755793e-15 -1.032709e-12 -6.750438e-16) (-1.202523e-11 1.858184e-11 7.489892e-14))
968.357802    	((-4.365578e-10 -3.558507e-10 -1.766512e-06) (1.675652e-10 1.231044e-10 -2.001533e-06)) ((-5.657307e-15 -1.032118e-12 -6.703557e-16) (-1.107811e-11 1.766778e-11 7.562114e-14))
1008.302075   	((-4.850453e-10 -4.048310e-10 -1.766283e-06) (1.519434e-10 1.071412e-10 -2.000395e-06)) ((-5.564568e-15 -1.031619e-12 -6.620056e-16) (-1.024405e-11 1.686385e-11 7.669600e-14))
1048.249388   	((-5.274503e-10 -4.475214e-10 -1.766081e-06) (1.377574e-10 9.271102e-11 -1.999422e-06)) ((-5.507248e-15 -1.031184e-12 -6.731450e-16) (-9.510700e-12 1.616260e-11 7.830023e-14))
1088.199305   	((-5.638717e-10 -4.837974e-10 -1.765902e-06) (1.250015e-10 7.984857e-11 -1.998590e-06)) ((-5.429709e-15 -1.030819e-12 -6.632824e-16) (-8.868932e-12 1.555161e-11 8.003163e-14))
1128.151455   	((-5.943393e-10 -5.143721e-10 -1.765747e-06) (1.137075e-10 6.847725e-11 -1.997878e-06)) ((-5.348267e-15 -1.030531e-12 -6.625429e-16) (-8.314381e-12 1.502239e-11 8.131748e-14))
1168.105518   	((-6.205523e-10 -5.403526e-10 -1.765607e-06) (1.038032e-10 5.853788e-11 -1.997268e-06)) ((-5.273207e-15 -1.030283e-12 -6.628816e-16) (-7.836765e-12 1.456602e-11 8.265098e-14))
1208.061224   	((-6.421736e-10 -5.622089e-10 -1.765487e-06) (9.519964e-11 4.995247e-11 -1.996745e-06)) ((-5.199220e-15 -1.030077e-12 -6.609600e-16) (-7.426340e-12 1.417609e-11 8.395025e-14))
1248.018338   	((-6.607031e-10 -5.807680e-10 -1.765381e-06) (8.780284e-11 4.254626e-11 -1.996297e-06)) ((-5.132708e-15 -1.029905e-12 -6.556958e-16) (-7.074872e-12 1.384133e-11 8.508487e-14))
1287.976662   	((-6.759547e-10 -5.962317e-10 -1.765289e-06) (8.149944e-11 3.622378e-11 -1.995913e-06)) ((-5.070179e-15 -1.029759e-12 -6.555934e-16) (-6.774026e-12 1.355446e-11 8.613983e-14))
1327.936024   	((-6.890419e-10 -6.092445e-10 -1.765209e-06) (7.614847e-11 3.087208e-11 -1.995583e-06)) ((-5.018346e-15 -1.029632e-12 -6.615437e-16) (-6.516343e-12 1.330909e-11 8.717520e-14))
1367.896279   	((-6.996888e-10 -6.200201e-10 -1.765140e-06) (7.161851e-11 2.638081e-11 -1.995300e-06)) ((-4.978079e-15 -1.029513e-12 -6.656400e-16) (-6.295291e-12 1.310014e-11 8.833999e-14))
1407.8573     	((-7.091718e-10 -6.293125e-10 -1.765078e-06) (6.777888e-11 2.260619e-11 -1.995056e-06)) ((-4.949203e-15 -1.029410e-12 -6.710812e-16) (-6.104838e-12 1.292144e-11 8.933100e-14))
1447.818979   	((-7.170990e-10 -6.372663e-10 -1.765026e-06) (6.455721e-11 1.942384e-11 -1.994847e-06)) ((-4.922839e-15 -1.029318e-12 -6.724445e-16) (-5.941825e-12 1.276840e-11 9.007882e-14))
1487.781225   	((-7.238902e-10 -6.440456e-10 -1.764980e-06) (6.184843e-11 1.675033e-11 -1.994667e-06)) ((-4.899654e-15 -1.029238e-12 -6.738143e-16) (-5.801572e-12 1.263687e-11 9.067866e-14))
1527.743958   	((-7.297216e-10 -6.499492e-10 -1.764940e-06) (5.956658e-11 1.449031e-11 -1.994513e-06)) ((-4.881965e-15 -1.029167e-12 -6.738046e-16) (-5.680857e-12 1.252383e-11 9.124296e-14))
1567.70711    	((-7.346981e-10 -6.549792e-10 -1.764905e-06) (5.763264e-11 1.257399e-11 -1.994380e-06)) ((-4.866231e-15 -1.029108e-12 -6.743025e-16) (-5.577296e-12 1.242692e-11 9.169190e-14))
1607.670621   	((-7.390500e-10 -6.594511e-10 -1.764876e-06) (5.599356e-11 1.094587e-11 -1.994266e-06)) ((-4.852286e-15 -1.029057e-12 -6.741055e-16) (-5.487867e-12 1.234331e-11 9.211632e-14))
1647.634442   	((-7.427261e-10 -6.632255e-10 -1.764850e-06) (5.459967e-11 9.552957e-12 -1.994167e-06)) ((-4.842178e-15 -1.029012e-12 -6.751376e-16) (-5.411201e-12 1.227179e-11 9.248222e-14))
1687.59853    	((-7.459248e-10 -6.664874e-10 -1.764828e-06) (5.340857e-11 8.356832e-12 -1.994083e-06)) ((-4.832583e-15 -1.028975e-12 -6.747548e-16) (-5.345097e-12 1.221017e-11 9.277569e-14))
1727.562846   	((-7.488095e-10 -6.694916e-10 -1.764808e-06) (5.237875e-11 7.318036e-12 -1.994010e-06)) ((-4.826834e-15 -1.028939e-12 -6.765347e-16) (-5.288053e-12 1.215711e-11 9.302139e-14))
1767.52736    	((-7.513856e-10 -6.721323e-10 -1.764792e-06) (5.148478e-11 6.412258e-12 -1.993947e-06)) ((-4.821757e-15 -1.028909e-12 -6.769049e-16) (-5.238811e-12 1.211130e-11 9.327417e-14))
1807.492043   	((-7.536309e-10 -6.743859e-10 -1.764777e-06) (5.070547e-11 5.621330e-12 -1.993894e-06)) ((-4.817209e-15 -1.028884e-12 -6.771710e-16) (-5.196315e-12 1.207184e-11 9.345475e-14))
1847.456873   	((-7.556002e-10 -6.764795e-10 -1.764765e-06) (5.002541e-11 4.924366e-12 -1.993847e-06)) ((-4.813251e-15 -1.028861e-12 -6.754275e-16) (-5.159664e-12 1.203785e-11 9.360274e-14))
1887.421828   	((-7.572020e-10 -6.784231e-10 -1.764755e-06) (4.942342e-11 4.308553e-12 -1.993807e-06)) ((-4.811953e-15 -1.028841e-12 -6.766369e-16) (-5.128022e-12 1.200841e-11 9.372344e-14))
1927.386892   	((-7.588593e-10 -6.797664e-10 -1.764745e-06) (4.889346e-11 3.768828e-12 -1.993773e-06)) ((-4.807343e-15 -1.028825e-12 -6.757295e-16) (-5.100674e-12 1.198317e-11 9.383801e-14))
1967.352049   	((-7.600315e-10 -6.811587e-10 -1.764738e-06) (4.842775e-11 3.288442e-12 -1.993743e-06)) ((-4.805073e-15 -1.028813e-12 -6.769505e-16) (-5.076930e-12 1.196114e-11 9.395665e-14))
2007.317286   	((-7.613193e-10 -6.823047e-10 -1.764730e-06) (4.801450e-11 2.875484e-12 -1.993718e-06)) ((-4.801272e-15 -1.028801e-12 -6.756507e-16) (-5.056438e-12 1.194220e-11 9.402665e-14))
2047.282592   	((-7.621253e-10 -6.833788e-10 -1.764725e-06) (4.765714e-11 2.506282e-12 -1.993696e-06)) ((-4.801203e-15 -1.028790e-12 -6.767313e-16) (-5.038703e-12 1.192577e-11 9.413462e-14))
2087.247958   	((-7.630960e-10 -6.841576e-10 -1.764719e-06) (4.734301e-11 2.189056e-12 -1.993677e-06)) ((-4.798170e-15 -1.028780e-12 -6.757806e-16) (-5.023422e-12 1.191164e-11 9.421146e-14))
2127.213375   	((-7.638400e-10 -6.849681e-10 -1.764715e-06) (4.706503e-11 1.913377e-12 -1.993661e-06)) ((-4.794877e-15 -1.028774e-12 -6.777810e-16) (-5.010144e-12 1.189937e-11 9.429654e-14))
2167.178836   	((-7.643928e-10 -6.857262e-10 -1.764711e-06) (4.683007e-11 1.672857e-12 -1.993647e-06)) ((-4.793188e-15 -1.028766e-12 -6.758436e-16) (-4.998696e-12 1.188883e-11 9.438062e-14))
2207.144334   	((-7.648972e-10 -6.861140e-10 -1.764708e-06) (4.662492e-11 1.470675e-12 -1.993635e-06)) ((-4.793773e-15 -1.028762e-12 -6.758525e-16) (-4.988826e-12 1.187981e-11 9.441359e-14))
2247.109866   	((-7.654067e-10 -6.866282e-10 -1.764705e-06) (4.644436e-11 1.292064e-12 -1.993624e-06)) ((-4.792362e-15 -1.028758e-12 -6.754077e-16) (-4.980373e-12 1.187212e-11 9.442436e-14))
