# Forces      
# CofR        : (0.000000e+00 0.000000e+00 0.000000e+00)
# Time        forces(pressure viscous)	moments(pressure viscous)
0             	((0.000000e+00 0.000000e+00 0.000000e+00) (0.000000e+00 0.000000e+00 0.000000e+00)) ((0.000000e+00 0.000000e+00 0.000000e+00) (0.000000e+00 0.000000e+00 0.000000e+00))
0.012         	((-2.694854e-12 4.514521e-12 1.084922e-09) (-2.494462e-15 2.381971e-14 2.278759e-11)) ((-4.895950e-16 4.220228e-11 -2.236238e-17) (5.546631e-17 2.787903e-08 -1.647846e-15))
0.0264        	((4.529077e-12 -4.794499e-12 -4.078922e-10) (-3.593656e-15 6.739242e-14 3.962600e-11)) ((-1.038796e-16 2.112403e-11 2.054491e-15) (7.562056e-16 2.553502e-08 -2.326602e-15))
0.04368       	((1.579100e-11 2.598337e-11 3.779162e-10) (3.950685e-14 5.059210e-14 4.295451e-11)) ((3.826274e-16 1.164965e-11 1.335261e-15) (-1.268744e-15 2.312619e-08 -3.346967e-15))
0.064416      	((-4.518112e-12 -7.167453e-12 1.419849e-11) (1.227906e-13 -3.721259e-14 3.551180e-11)) ((6.238198e-18 6.630222e-12 -9.280656e-17) (-4.279179e-15 2.070513e-08 -4.356287e-15))
0.0892992     	((1.372076e-11 8.029819e-12 4.736035e-11) (1.776001e-13 -1.271788e-13 2.950931e-11)) ((-9.969511e-17 4.922334e-12 -9.772347e-18) (-5.859974e-15 1.834241e-08 -4.482348e-15))
0.119159      	((-5.325122e-12 -2.133964e-12 1.253802e-11) (2.123173e-13 -2.212339e-13 2.501577e-11)) ((6.647990e-17 3.530958e-12 -1.937131e-17) (-7.828311e-15 1.611071e-08 -5.127824e-15))
0.154991      	((-4.528333e-12 -5.111479e-12 -3.098050e-11) (2.446231e-13 -3.462890e-13 2.014874e-11)) ((-6.252682e-17 2.789364e-12 2.147792e-16) (-1.037572e-14 1.406144e-08 -6.301361e-15))
0.197989      	((-3.655388e-12 -3.439188e-12 3.324762e-12) (2.571201e-13 -4.474891e-13 1.573335e-11)) ((-9.499797e-17 2.217020e-12 2.151990e-16) (-1.171642e-14 1.224463e-08 -7.246002e-15))
0.249587      	((1.958961e-13 -3.539841e-12 -2.997800e-11) (2.565479e-13 -5.038497e-13 1.242593e-11)) ((-1.461405e-16 1.827439e-12 -4.375605e-17) (-1.153615e-14 1.068735e-08 -6.297449e-15))
0.311504      	((-7.182541e-13 8.843938e-13 -5.758992e-12) (2.410116e-13 -5.456790e-13 9.674914e-12)) ((-1.216708e-16 1.521050e-12 -2.146456e-16) (-1.089666e-14 9.385850e-09 -4.272790e-15))
0.385805      	((-2.130306e-12 2.998837e-12 1.119435e-13) (2.363462e-13 -5.597039e-13 7.408322e-12)) ((-3.639771e-17 1.304012e-12 -3.432300e-16) (-1.054750e-14 8.312097e-09 -3.334714e-15))
0.474966      	((-3.972871e-12 -8.056130e-13 6.355970e-12) (1.998194e-13 -5.961504e-13 5.257896e-12)) ((-2.727394e-17 1.161340e-12 -2.697628e-16) (-1.008223e-14 7.423850e-09 -9.624644e-16))
0.581959      	((-6.244214e-12 -3.452606e-12 -6.489358e-12) (1.341417e-13 -6.223942e-13 3.465481e-12)) ((-6.291618e-17 1.040072e-12 -1.022942e-16) (-9.999004e-15 6.677190e-09 2.350774e-15))
0.710351      	((-9.111636e-12 -4.865450e-12 1.478464e-11) (1.555347e-13 -4.454899e-13 3.090247e-12)) ((-1.617296e-16 9.233663e-13 -9.654378e-17) (-8.037169e-15 6.035774e-09 -3.979296e-16))
0.864421      	((-9.377935e-12 -4.088045e-12 7.303676e-12) (2.316342e-13 4.995053e-14 2.915676e-12)) ((-2.216429e-16 8.446598e-13 1.267348e-16) (-3.514265e-15 5.473831e-09 -7.790211e-15))
1.049306      	((-1.362104e-11 -3.958728e-12 -4.782938e-13) (3.423257e-13 5.039719e-13 1.879993e-12)) ((-3.180787e-16 7.945358e-13 1.158021e-16) (2.766603e-15 4.974383e-09 -1.230404e-14))
1.271167      	((-1.808192e-11 -3.229076e-12 1.477710e-11) (5.890868e-13 7.258364e-13 8.294114e-13)) ((-1.310151e-16 7.431972e-13 2.303640e-16) (1.171994e-14 4.526002e-09 -9.511872e-15))
1.5374        	((-1.760862e-11 1.404367e-12 1.738421e-11) (1.018401e-12 8.092923e-13 -5.632755e-13)) ((2.162081e-16 6.835312e-13 3.574226e-16) (2.310024e-14 4.121244e-09 -1.609406e-15))
1.85688       	((-1.740756e-11 -2.076530e-12 1.196562e-11) (1.515224e-12 8.769187e-13 -2.691728e-12)) ((4.289587e-16 6.308689e-13 1.623939e-16) (3.915398e-14 3.756077e-09 1.435616e-14))
2.240256      	((-1.685001e-11 -9.552813e-13 1.466117e-11) (2.230993e-12 7.214604e-13 -4.076624e-12)) ((4.495068e-16 5.968421e-13 1.144538e-16) (5.385800e-14 3.428417e-09 3.539877e-14))
2.700307      	((-1.655530e-11 -2.165339e-13 1.233438e-11) (3.434793e-12 4.585904e-13 -4.844382e-12)) ((3.995920e-16 5.722380e-13 1.410743e-16) (7.840128e-14 3.136786e-09 7.870673e-14))
3.252369      	((-1.214048e-11 -1.088514e-12 8.081899e-12) (5.005753e-12 2.310883e-13 -7.498597e-12)) ((4.616911e-16 5.475470e-13 2.265741e-16) (1.101910e-13 2.879191e-09 1.312901e-13))
3.914842      	((-5.636814e-12 -1.044107e-12 2.304854e-12) (6.612847e-12 -6.525822e-14 -1.176412e-11)) ((2.378473e-16 5.188788e-13 3.766300e-16) (1.329813e-13 2.652620e-09 1.571708e-13))
4.709811      	((-2.599791e-12 -3.463492e-14 -2.125601e-12) (8.384269e-12 -4.496772e-13 -1.343623e-11)) ((2.996216e-16 4.870887e-13 3.076344e-16) (1.520888e-13 2.452863e-09 1.775212e-13))
5.663773      	((2.130045e-13 -7.885743e-13 3.449407e-12) (9.402143e-12 -4.260696e-13 -1.263274e-11)) ((2.945424e-16 4.525640e-13 7.746974e-17) (1.626149e-13 2.275221e-09 1.798191e-13))
6.808528      	((2.692250e-12 -1.271325e-12 9.232993e-13) (9.285378e-12 -1.568321e-13 -1.215907e-11)) ((3.143674e-16 4.173177e-13 -1.634146e-16) (1.568444e-13 2.115521e-09 1.627995e-13))
8.182233      	((3.564891e-12 -8.929607e-14 -3.726399e-13) (8.571706e-12 -2.297165e-13 -1.110473e-11)) ((3.037354e-16 3.830394e-13 -1.081256e-16) (1.376467e-13 1.970534e-09 1.490410e-13))
9.83068       	((3.419391e-12 -1.740071e-12 7.295987e-13) (7.401937e-12 -3.592343e-13 -8.499078e-12)) ((1.935771e-16 3.479269e-13 -1.071626e-16) (1.117340e-13 1.837812e-09 1.295058e-13))
11.808816     	((1.607415e-13 -6.759551e-13 3.460497e-12) (5.752259e-12 7.979899e-15 -5.320665e-12)) ((1.744016e-16 3.163671e-13 -2.065318e-16) (8.956600e-14 1.715651e-09 9.822082e-14))
14.182579     	((-9.745727e-13 -6.217571e-13 4.523408e-12) (4.081748e-12 7.627606e-13 -3.600415e-12)) ((1.488051e-16 2.875131e-13 -2.774818e-16) (6.915375e-14 1.603075e-09 5.304929e-14))
17.031095     	((-1.331899e-12 -8.308451e-13 3.612671e-12) (2.786122e-12 9.659710e-13 -2.432413e-12)) ((2.696812e-17 2.627362e-13 -3.197388e-16) (4.821934e-14 1.499571e-09 2.441419e-14))
20.449314     	((-1.418932e-12 -3.778815e-13 4.910968e-12) (1.778562e-12 6.333364e-13 -1.448528e-12)) ((1.800579e-17 2.407784e-13 -3.685392e-16) (2.931836e-14 1.404810e-09 1.653442e-14))
24.551176     	((-1.060279e-12 1.859821e-13 4.547957e-12) (1.168601e-12 3.104335e-13 -1.259021e-12)) ((2.043112e-17 2.212263e-13 -3.817032e-16) (1.580717e-14 1.318222e-09 1.270211e-14))
29.473411     	((-1.208803e-12 -1.125169e-13 5.016636e-12) (8.097312e-13 1.231031e-13 -1.521674e-12)) ((-2.634641e-17 2.048656e-13 -3.503232e-16) (1.103795e-14 1.239204e-09 9.978640e-15))
35.380094     	((-1.778072e-12 -8.561921e-14 4.582299e-12) (6.605412e-13 -5.674576e-14 -1.807000e-12)) ((-2.505557e-17 1.903502e-13 -3.340163e-16) (8.580429e-15 1.167110e-09 8.068482e-15))
42.468112     	((-1.241077e-12 2.146035e-14 4.020431e-12) (6.569263e-13 -1.425599e-13 -1.942272e-12)) ((-6.785430e-18 1.778756e-13 -2.564786e-16) (8.368431e-15 1.101328e-09 8.890243e-15))
50.973735     	((-7.856586e-13 8.026278e-14 3.616369e-12) (7.251443e-13 -2.161516e-13 -1.792936e-12)) ((2.741981e-17 1.667734e-13 -1.899826e-16) (9.456569e-15 1.041359e-09 1.262451e-14))
61.180482     	((-1.301847e-12 8.144461e-14 2.999362e-12) (7.507987e-13 -2.656862e-13 -1.589405e-12)) ((-3.733068e-18 1.567804e-13 -1.737038e-16) (1.268715e-14 9.867666e-10 1.900452e-14))
73.428578     	((-4.932941e-13 1.674113e-14 2.456377e-12) (8.304122e-13 -2.627636e-13 -1.548132e-12)) ((-3.690300e-17 1.478947e-13 -1.363685e-16) (1.698506e-14 9.371906e-10 2.233679e-14))
88.126294     	((-5.746437e-13 -1.578891e-14 2.783245e-12) (9.061501e-13 -2.494844e-13 -1.626326e-12)) ((-6.287918e-17 1.398894e-13 -9.004647e-17) (2.116444e-14 8.922530e-10 2.562094e-14))
105.763553    	((-1.201160e-13 -1.133029e-13 2.449451e-12) (9.849095e-13 -2.374402e-13 -1.756887e-12)) ((-8.176857e-17 1.323179e-13 -4.657921e-17) (2.411102e-14 8.515978e-10 2.805178e-14))
126.928263    	((1.203560e-14 -1.830914e-13 1.966895e-12) (1.021930e-12 -2.383169e-13 -1.755517e-12)) ((-9.311923e-17 1.254325e-13 -2.069977e-17) (2.455718e-14 8.148465e-10 2.923042e-14))
152.325916    	((2.491389e-13 -1.680167e-13 1.398203e-12) (1.047289e-12 -2.317851e-13 -1.703881e-12)) ((-8.557351e-17 1.192992e-13 -1.380278e-17) (2.433349e-14 7.816131e-10 2.985226e-14))
182.803099    	((5.216861e-14 -5.697142e-14 8.110861e-13) (1.064909e-12 -2.497892e-13 -1.759488e-12)) ((-6.416715e-17 1.137621e-13 -1.302606e-17) (2.454806e-14 7.515067e-10 3.030655e-14))
219.375719    	((2.289768e-14 -1.120195e-13 3.764483e-13) (1.085912e-12 -2.164864e-13 -2.003504e-12)) ((-5.264271e-17 1.087308e-13 -1.221639e-17) (2.620460e-14 7.241615e-10 2.916727e-14))
263.262863    	((2.276425e-13 -2.907301e-14 2.770057e-13) (1.097095e-12 -1.557006e-13 -2.369575e-12)) ((-4.274637e-17 1.041660e-13 -1.047845e-17) (2.829852e-14 6.992891e-10 2.723332e-14))
315.927436    	((3.927237e-13 -1.677815e-14 1.119616e-13) (1.062236e-12 -1.222423e-13 -2.677114e-12)) ((-1.866515e-17 1.000412e-13 -6.744175e-18) (2.953688e-14 6.766610e-10 2.572100e-14))
379.124923    	((3.597312e-13 3.710136e-14 -1.239692e-13) (1.087911e-12 -1.166800e-13 -2.972418e-12)) ((-4.012331e-18 9.626636e-14 8.400273e-18) (3.040312e-14 6.560919e-10 2.462838e-14))
454.961908    	((6.252915e-13 3.892715e-14 -1.011225e-13) (1.109370e-12 -1.328324e-13 -3.216877e-12)) ((-3.955060e-19 9.281119e-14 1.873575e-17) (3.076867e-14 6.374414e-10 2.410840e-14))
545.966289    	((6.241205e-13 8.689044e-14 -1.814796e-13) (1.090793e-12 -1.466662e-13 -3.411956e-12)) ((3.231872e-18 8.964357e-14 3.090951e-17) (3.006623e-14 6.205730e-10 2.365225e-14))
655.171547    	((5.792773e-13 1.223615e-13 -1.921622e-13) (1.030111e-12 -1.418243e-13 -3.476660e-12)) ((6.783709e-18 8.677278e-14 4.129028e-17) (2.877095e-14 6.053681e-10 2.261969e-14))
786.217856    	((6.763831e-13 1.959716e-13 -1.562871e-13) (1.025554e-12 -1.328117e-13 -3.431570e-12)) ((9.171602e-18 8.420123e-14 4.851734e-17) (2.722284e-14 5.917270e-10 2.217455e-14))
943.473427    	((6.371563e-13 2.104870e-13 -9.664869e-14) (1.042823e-12 -1.132110e-13 -3.352425e-12)) ((9.139470e-18 8.191058e-14 4.655758e-17) (2.591981e-14 5.795428e-10 2.213945e-14))
1132.180113   	((5.947035e-13 2.295366e-13 -7.898221e-14) (1.008533e-12 -7.559749e-14 -3.261926e-12)) ((1.375363e-17 7.988274e-14 3.990168e-17) (2.468686e-14 5.687126e-10 2.205528e-14))
1358.628135   	((5.778327e-13 1.761295e-13 -6.763838e-14) (9.430868e-13 -4.923965e-14 -3.151182e-12)) ((1.546692e-17 7.806929e-14 2.874572e-17) (2.314850e-14 5.591396e-10 2.163097e-14))
1630.365763   	((6.756955e-13 1.585253e-13 -3.295844e-14) (9.129963e-13 -3.581500e-14 -3.069741e-12)) ((1.339531e-17 7.647029e-14 1.982353e-17) (2.162361e-14 5.507225e-10 2.077340e-14))
1956.450915   	((7.441732e-13 1.714474e-13 1.631018e-14) (9.057796e-13 -2.539613e-14 -3.035295e-12)) ((1.573648e-17 7.508907e-14 1.193193e-17) (2.033306e-14 5.433639e-10 1.952540e-14))
2347.753098   	((8.169647e-13 1.981251e-13 1.450511e-13) (9.091173e-13 -2.207312e-14 -3.011321e-12)) ((1.750757e-17 7.389875e-14 5.197244e-18) (1.918151e-14 5.369693e-10 1.813627e-14))
2817.315718   	((8.809243e-13 1.928913e-13 2.448368e-13) (9.232793e-13 -2.941296e-14 -2.987957e-12)) ((1.562160e-17 7.288123e-14 4.237963e-18) (1.786816e-14 5.314460e-10 1.694874e-14))
3380.790861   	((9.009625e-13 1.860746e-13 2.385499e-13) (9.263238e-13 -3.401104e-14 -2.971717e-12)) ((1.411993e-17 7.201920e-14 6.135972e-18) (1.660316e-14 5.267065e-10 1.607980e-14))
4056.961033   	((9.235193e-13 1.629116e-13 2.515285e-13) (9.120553e-13 -4.070956e-14 -2.960775e-12)) ((9.960901e-18 7.128913e-14 1.012540e-17) (1.560245e-14 5.226684e-10 1.521908e-14))
4868.36524    	((9.500472e-13 1.237727e-13 3.322887e-13) (8.884722e-13 -4.286934e-14 -2.951392e-12)) ((3.102036e-18 7.067913e-14 1.622144e-17) (1.509972e-14 5.192510e-10 1.399296e-14))
5842.050288   	((9.545092e-13 1.141616e-13 3.158565e-13) (8.856186e-13 -3.353918e-14 -2.931831e-12)) ((-3.295100e-18 7.015642e-14 1.228458e-17) (1.462509e-14 5.163796e-10 1.270338e-14))
7010.472346   	((9.396760e-13 1.255728e-13 2.631359e-13) (8.902862e-13 -1.626148e-14 -2.913145e-12)) ((-1.182758e-17 6.971300e-14 6.043083e-18) (1.441685e-14 5.139843e-10 1.131995e-14))
8412.578815   	((9.072646e-13 1.106459e-13 2.318245e-13) (8.787684e-13 -7.993097e-15 -2.904897e-12)) ((-1.528157e-17 6.934725e-14 1.946957e-18) (1.393405e-14 5.120005e-10 1.053412e-14))
10095.106578  	((8.675301e-13 1.026827e-13 1.899140e-13) (8.668969e-13 -3.984264e-15 -2.896909e-12)) ((-1.760461e-17 6.904204e-14 -1.749399e-18) (1.345098e-14 5.103681e-10 9.978242e-15))
12114.139893  	((8.639937e-13 1.054277e-13 1.326010e-13) (8.533779e-13 -1.348519e-15 -2.887860e-12)) ((-1.953248e-17 6.879013e-14 -4.140793e-18) (1.294397e-14 5.090330e-10 9.504233e-15))
14536.979872  	((9.018003e-13 1.165808e-13 4.668744e-14) (8.334672e-13 -4.673027e-16 -2.880585e-12)) ((-2.129872e-17 6.858507e-14 -5.762467e-18) (1.249433e-14 5.079470e-10 9.103043e-15))
17444.387847  	((9.517221e-13 1.882506e-13 -1.335546e-13) (8.063190e-13 1.147775e-15 -2.872690e-12)) ((-1.589173e-17 6.840050e-14 -2.000266e-17) (1.216237e-14 5.070678e-10 8.909389e-15))
20863.516617  	((9.542971e-13 1.903386e-13 -2.182513e-13) (8.084590e-13 3.592890e-15 -2.861322e-12)) ((-2.275134e-17 6.825849e-14 -1.175790e-17) (1.170007e-14 5.063603e-10 8.753851e-15))
24794.375903  	((9.662639e-13 2.426219e-13 -2.916911e-13) (8.039437e-13 6.482965e-15 -2.847492e-12)) ((-1.726518e-17 6.816233e-14 -2.307538e-17) (1.149633e-14 5.057922e-10 8.694498e-15))
29236.973425  	((9.803320e-13 3.077246e-13 -2.873415e-13) (7.945799e-13 9.275199e-15 -2.830685e-12)) ((-1.595961e-17 6.805321e-14 -2.532285e-17) (1.132760e-14 5.053385e-10 8.417311e-15))
34191.315297  	((9.794630e-13 3.815894e-13 -3.346799e-13) (7.997521e-13 1.272735e-14 -2.818364e-12)) ((-1.419517e-17 6.799879e-14 -2.696181e-17) (1.115830e-14 5.049765e-10 8.290084e-15))
39308.8072    	((9.509130e-13 4.052624e-13 -4.602769e-13) (8.028605e-13 1.274062e-14 -2.813427e-12)) ((-1.952009e-17 6.793058e-14 -1.355110e-17) (1.097285e-14 5.046893e-10 8.025244e-15))
44426.337056  	((1.018486e-12 4.108812e-13 -5.008583e-13) (8.042199e-13 7.099601e-15 -2.794853e-12)) ((-1.996285e-17 6.784986e-14 -2.183012e-17) (1.104290e-14 5.044623e-10 7.706187e-15))
49543.896841  	((1.103235e-12 4.012805e-13 -5.835846e-13) (7.997580e-13 -7.616855e-16 -2.780028e-12)) ((-2.705623e-17 6.779425e-14 -1.556550e-17) (1.080756e-14 5.042825e-10 7.801647e-15))
54661.480228  	((1.154631e-12 5.181915e-13 -5.698272e-13) (7.944089e-13 -6.441189e-15 -2.763880e-12)) ((-1.724375e-17 6.776739e-14 -3.126629e-17) (1.066829e-14 5.041406e-10 7.997395e-15))
59779.082267  	((1.239394e-12 5.003181e-13 -7.155477e-13) (7.887073e-13 -3.238780e-15 -2.758395e-12)) ((-2.346103e-17 6.771050e-14 -2.749890e-17) (1.050552e-14 5.040291e-10 7.937983e-15))
64896.699047  	((1.239848e-12 4.586878e-13 -8.453179e-13) (7.911188e-13 1.414685e-17 -2.768301e-12)) ((-8.867359e-18 6.764536e-14 -1.859524e-17) (1.071803e-14 5.039418e-10 8.056516e-15))
70014.327515  	((1.405123e-12 5.447897e-13 -9.504145e-13) (7.873266e-13 -8.721407e-15 -2.774976e-12)) ((-4.525667e-18 6.760050e-14 -7.123392e-18) (1.039243e-14 5.038734e-10 7.426788e-15))
75131.965146  	((1.498205e-12 5.914269e-13 -1.145289e-12) (7.707963e-13 -8.548634e-15 -2.783077e-12)) ((-1.255282e-18 6.754684e-14 -6.205323e-18) (9.759817e-15 5.038196e-10 6.978024e-15))
80249.609902  	((1.738435e-12 6.068580e-13 -1.337236e-12) (7.809201e-13 -8.444774e-15 -2.787921e-12)) ((-3.887500e-18 6.751597e-14 -6.548986e-18) (9.656383e-15 5.037775e-10 6.814675e-15))
85367.260294  	((1.793577e-12 5.934260e-13 -1.569730e-12) (7.763536e-13 -5.277617e-15 -2.791304e-12)) ((3.158253e-18 6.749478e-14 -9.290813e-18) (9.201187e-15 5.037439e-10 6.904287e-15))
90484.915131  	((1.866287e-12 5.641413e-13 -1.766913e-12) (7.886322e-13 -9.451076e-15 -2.801714e-12)) ((-2.714212e-17 6.746264e-14 -9.188712e-18) (9.676852e-15 5.037177e-10 7.027309e-15))
95602.573521  	((2.142827e-12 6.120182e-13 -1.973336e-12) (7.956085e-13 -1.031308e-14 -2.804783e-12)) ((-9.694194e-18 6.745240e-14 -5.790594e-18) (1.027442e-14 5.036961e-10 6.935794e-15))
100720.234733 	((2.597182e-12 5.762618e-13 -2.170687e-12) (8.102206e-13 -1.093112e-14 -2.811814e-12)) ((-1.529963e-17 6.742334e-14 -1.891466e-17) (1.059791e-14 5.036788e-10 7.222196e-15))
105837.898203 	((2.910474e-12 6.197714e-13 -2.340967e-12) (8.202710e-13 -1.369237e-14 -2.810802e-12)) ((-2.817019e-18 6.742783e-14 3.933016e-18) (1.054577e-14 5.036648e-10 7.152239e-15))
110955.563489 	((3.321299e-12 5.595766e-13 -2.596068e-12) (8.229843e-13 -1.448396e-14 -2.804739e-12)) ((-5.779036e-18 6.740007e-14 -7.937025e-18) (1.068063e-14 5.036541e-10 7.467119e-15))
116073.230239 	((3.953392e-12 4.958137e-13 -2.794391e-12) (8.470413e-13 -9.744760e-15 -2.802766e-12)) ((-1.851517e-17 6.738091e-14 5.302211e-18) (1.061751e-14 5.036447e-10 7.650302e-15))
121190.898114 	((4.569000e-12 4.228674e-13 -3.007445e-12) (8.712842e-13 -1.188709e-14 -2.811615e-12)) ((-9.076636e-18 6.735367e-14 -7.841706e-18) (1.055401e-14 5.036370e-10 7.739160e-15))
