# Forces      
# CofR        : (0.000000e+00 0.000000e+00 0.000000e+00)
# Time        forces(pressure viscous)	moments(pressure viscous)
0             	((0.000000e+00 0.000000e+00 0.000000e+00) (0.000000e+00 0.000000e+00 0.000000e+00)) ((0.000000e+00 0.000000e+00 0.000000e+00) (0.000000e+00 0.000000e+00 0.000000e+00))
0.012         	((-1.033196e-09 3.436491e-09 -7.236172e-09) (7.990371e-11 5.421434e-12 4.557107e-11)) ((3.257734e-08 -3.114039e-12 -6.580358e-14) (2.215026e-05 2.477078e-12 -1.048429e-12))
0.0264        	((1.783099e-09 5.586611e-09 -1.247133e-08) (4.558171e-10 -3.865282e-11 2.683893e-11)) ((1.687080e-08 -2.473084e-12 4.786234e-13) (2.029321e-05 3.401163e-12 -7.706845e-13))
0.04368       	((-2.555711e-08 -9.893239e-09 -1.391908e-08) (1.120429e-09 -1.138836e-10 -1.907903e-11)) ((1.031554e-08 -2.180010e-12 5.939124e-13) (1.840117e-05 1.432872e-12 1.152712e-12))
0.064416      	((2.374961e-08 -2.825076e-09 -4.629848e-09) (2.088049e-09 -1.581506e-10 -5.072901e-11)) ((6.824564e-09 -1.538565e-12 -3.746628e-13) (1.652887e-05 -2.209460e-12 3.152403e-12))
0.0892992     	((2.166678e-09 -6.299271e-09 5.273413e-09) (3.362680e-09 -1.505748e-10 -8.208667e-11)) ((5.795418e-09 -1.270693e-12 -5.524159e-13) (1.474299e-05 -6.332445e-12 4.777142e-12))
0.119159      	((8.947811e-09 -1.304983e-09 7.078067e-09) (4.256280e-09 -1.208531e-10 -8.792507e-11)) ((4.733334e-09 -1.208137e-12 -5.221060e-13) (1.310423e-05 -8.888029e-12 6.052749e-12))
0.154991      	((2.956740e-08 6.220759e-10 2.699775e-09) (4.284824e-09 -1.075478e-10 -8.625749e-11)) ((4.054035e-09 -8.764808e-13 -5.654976e-13) (1.165120e-05 -9.562865e-12 7.146746e-12))
0.197989      	((1.267642e-08 -1.989766e-09 8.167872e-10) (3.996385e-09 -1.093143e-10 -9.951999e-11)) ((3.484410e-09 -6.307530e-13 -4.686619e-13) (1.038444e-05 -1.036439e-11 8.142480e-12))
0.249587      	((1.649372e-08 5.756311e-11 -1.577852e-09) (3.854487e-09 -8.052026e-11 -1.365249e-10)) ((3.082837e-09 -5.876618e-13 -3.872542e-13) (9.273738e-06 -1.277524e-11 9.001634e-12))
0.311504      	((5.723336e-09 1.151362e-09 -2.829902e-09) (2.025434e-09 -4.465160e-11 -2.167343e-10)) ((2.741968e-09 -6.220647e-13 -2.947879e-13) (8.281305e-06 -1.463928e-11 8.528506e-12))
0.385805      	((-2.389544e-08 2.326929e-09 -2.406002e-09) (-3.072816e-10 -7.986557e-11 -3.135291e-10)) ((2.469602e-09 -4.606029e-13 -1.769977e-13) (7.392996e-06 -1.472550e-11 7.327655e-12))
0.474966      	((-3.888441e-08 2.760394e-09 -3.250758e-09) (-2.175822e-09 -8.722132e-11 -3.911653e-10)) ((2.229962e-09 -3.187373e-13 -7.768009e-14) (6.604325e-06 -1.289165e-11 5.218366e-12))
0.581959      	((-4.326829e-08 8.823710e-09 2.151493e-09) (-3.001751e-09 2.238695e-11 -2.546876e-10)) ((1.998069e-09 -2.413582e-13 2.945050e-13) (5.911143e-06 -1.203963e-11 4.967828e-12))
0.710351      	((-3.243102e-08 1.155552e-08 6.662824e-09) (-7.805430e-10 -2.719962e-11 -2.727031e-10)) ((1.771388e-09 -2.716069e-13 4.981752e-13) (5.305709e-06 -1.040374e-11 5.791605e-12))
0.864421      	((-1.440314e-08 1.759329e-08 3.995065e-10) (-5.279724e-10 1.208570e-10 -5.389896e-10)) ((1.562608e-09 7.767151e-14 1.805008e-13) (4.776785e-06 -8.521431e-12 4.959681e-12))
1.049306      	((-7.062661e-09 1.173064e-08 -7.691640e-09) (-2.112190e-09 5.218000e-10 -6.310261e-10)) ((1.390634e-09 -2.160677e-13 4.534051e-13) (4.312125e-06 -3.852084e-12 4.657233e-12))
1.271167      	((6.025949e-09 1.931415e-08 -4.849071e-09) (-6.215645e-10 2.327754e-10 -4.735863e-10)) ((1.253022e-09 5.124795e-13 -2.036409e-13) (3.901591e-06 -2.403155e-12 1.318258e-11))
1.5374        	((-4.089529e-09 3.293533e-08 2.673872e-09) (8.864992e-10 2.532404e-12 1.917825e-10)) ((1.138684e-09 1.141955e-12 -1.034120e-12) (3.538637e-06 -7.162684e-12 3.047851e-11))
1.85688       	((9.214640e-09 4.313160e-08 1.382777e-08) (1.108690e-09 5.634058e-10 1.708470e-09)) ((1.039776e-09 1.933921e-12 -1.530004e-12) (3.219564e-06 -2.102482e-11 4.485527e-11))
2.240256      	((3.564953e-09 3.968105e-08 1.828136e-08) (4.609447e-10 6.845634e-10 2.235504e-09)) ((9.438640e-10 1.753926e-12 -1.309547e-12) (2.941510e-06 -2.717697e-11 4.982868e-11))
2.700307      	((2.352109e-09 3.491822e-08 1.159527e-08) (-5.611364e-10 1.531318e-09 2.187298e-09)) ((8.554143e-10 1.011917e-12 -1.016884e-12) (2.700393e-06 -3.370051e-11 3.803801e-11))
3.252369      	((5.559711e-09 1.663402e-08 5.808976e-09) (6.310254e-10 2.737096e-09 5.938684e-10)) ((7.704374e-10 2.567431e-13 -5.004371e-13) (2.490802e-06 -5.892550e-11 1.663112e-11))
3.914842      	((1.140087e-08 8.015747e-09 1.374899e-08) (-1.331389e-09 5.010566e-09 -1.461046e-09)) ((6.924311e-10 -3.140515e-14 -4.649819e-13) (2.306886e-06 -9.242507e-11 -9.227282e-12))
4.709811      	((7.090341e-09 1.358806e-08 1.795042e-08) (-9.682716e-10 8.020556e-09 -2.935570e-09)) ((6.207773e-10 -1.768629e-14 -5.636139e-13) (2.143618e-06 -1.268652e-10 -3.093490e-11))
5.663773      	((8.849113e-09 1.170080e-08 1.258917e-08) (-3.655048e-10 9.899216e-09 -4.407025e-09)) ((5.538773e-10 -3.538125e-13 -4.872465e-13) (1.997223e-06 -1.496638e-10 -4.799660e-11))
6.808528      	((-3.134481e-09 7.979711e-09 1.281530e-08) (-1.302925e-09 1.146939e-08 -4.292368e-09)) ((4.964647e-10 -4.953956e-13 -6.671036e-13) (1.864867e-06 -1.435631e-10 -6.348579e-11))
8.182233      	((1.742311e-10 5.362477e-09 7.398164e-09) (-3.883520e-09 1.102372e-08 -3.888274e-09)) ((4.480938e-10 -7.790419e-13 -5.205158e-13) (1.744429e-06 -1.160971e-10 -7.304055e-11))
9.83068       	((-7.540687e-10 3.415160e-09 4.263391e-09) (-4.067659e-09 9.631409e-09 -4.425017e-09)) ((4.046824e-10 -1.033805e-12 -2.741244e-13) (1.634424e-06 -8.038418e-11 -7.889415e-11))
11.808816     	((-2.224826e-09 2.729017e-09 3.436112e-09) (-1.683214e-09 8.262745e-09 -4.783792e-09)) ((3.675066e-10 -1.091950e-12 -1.745905e-14) (1.533953e-06 -4.086141e-11 -9.253941e-11))
14.182579     	((-6.071881e-10 3.523072e-09 -1.155727e-09) (-5.320084e-10 7.745962e-09 -4.612046e-09)) ((3.371511e-10 -8.915935e-13 9.046713e-14) (1.442934e-06 -3.769204e-12 -1.096432e-10))
17.031095     	((-2.789691e-09 -1.539899e-09 1.121637e-10) (-8.018416e-10 7.402652e-09 -3.620571e-09)) ((3.132955e-10 -8.647410e-13 7.747255e-14) (1.361594e-06 3.443282e-11 -1.238401e-10))
20.449314     	((-2.908065e-09 -5.019576e-09 -1.640112e-09) (-9.066658e-10 7.507875e-09 -2.832494e-09)) ((2.917753e-10 -9.056485e-13 4.439604e-14) (1.290085e-06 7.450953e-11 -1.328960e-10))
24.476636     	((-3.849636e-09 -4.597151e-09 1.522348e-09) (-1.449452e-09 7.540239e-09 -3.343402e-09)) ((2.737532e-10 -9.090857e-13 1.697725e-14) (1.228900e-06 1.121277e-10 -1.311161e-10))
29.130068     	((-1.592279e-09 -3.379578e-09 -1.563866e-10) (-2.828069e-09 8.171787e-09 -3.472707e-09)) ((2.591550e-10 -7.890481e-13 -6.109476e-14) (1.177845e-06 1.494150e-10 -1.281814e-10))
34.426737     	((-2.624083e-09 -5.536692e-09 -5.210693e-09) (-1.905854e-09 8.532119e-09 -3.555923e-09)) ((2.462311e-10 -6.282328e-13 -1.364791e-13) (1.136280e-06 1.713036e-10 -1.237376e-10))
40.366582     	((-2.225720e-09 -7.397237e-09 -9.848948e-09) (-1.808375e-09 8.815681e-09 -3.463211e-09)) ((2.365151e-10 -5.964831e-13 -8.903260e-14) (1.103362e-06 1.741561e-10 -1.154876e-10))
46.797633     	((-4.772795e-09 1.636111e-09 -1.288015e-09) (-1.341794e-09 8.683302e-09 -3.902891e-09)) ((2.295339e-10 -4.989568e-13 -2.042969e-13) (1.078681e-06 1.621407e-10 -1.106503e-10))
53.227799     	((-6.487949e-09 6.673557e-09 3.518036e-09) (-1.584876e-09 8.381675e-09 -3.441099e-09)) ((2.233322e-10 -3.789201e-13 -3.953288e-13) (1.062096e-06 1.451894e-10 -1.080722e-10))
59.657043     	((-6.460252e-09 1.498724e-08 1.055595e-08) (-2.641920e-09 8.817088e-09 -1.886642e-09)) ((2.188285e-10 -2.158811e-13 -6.627978e-13) (1.052455e-06 1.391264e-10 -1.074618e-10))
66.085208     	((-4.349170e-09 1.473280e-08 1.467335e-08) (-3.185282e-09 8.761891e-09 -5.583872e-10)) ((2.150348e-10 -8.464973e-14 -7.979199e-13) (1.048971e-06 1.460621e-10 -1.054649e-10))
72.512164     	((-4.715469e-09 1.146196e-08 1.527952e-08) (-2.238836e-09 6.840329e-09 -4.286001e-10)) ((2.128238e-10 2.124532e-14 -8.891673e-13) (1.050905e-06 1.616975e-10 -9.803659e-11))
78.937846     	((-4.278237e-09 7.960176e-09 1.397319e-08) (-1.505600e-09 5.140918e-09 7.360319e-10)) ((2.124105e-10 1.287429e-13 -8.754245e-13) (1.057760e-06 1.775779e-10 -8.380110e-11))
85.362211     	((-4.949662e-09 5.814721e-09 1.455197e-08) (-1.049364e-09 3.791965e-09 1.845958e-09)) ((2.131091e-10 9.005852e-14 -7.382941e-13) (1.069074e-06 1.885986e-10 -6.326413e-11))
91.784992     	((-4.178612e-09 4.121329e-09 1.174607e-08) (-8.714065e-10 2.522575e-09 2.524205e-09)) ((2.147060e-10 -3.250067e-14 -5.161135e-13) (1.084351e-06 1.938000e-10 -4.232146e-11))
98.205947     	((-5.058840e-09 1.914696e-09 6.870889e-09) (-8.201196e-10 1.236734e-09 2.450875e-09)) ((2.182473e-10 -1.046779e-13 -3.335844e-13) (1.102975e-06 1.907737e-10 -2.571625e-11))
104.50654     	((-5.340518e-09 2.046950e-09 5.214891e-09) (-6.385684e-10 1.033880e-10 1.644517e-09)) ((2.222784e-10 -1.485845e-13 -1.907042e-13) (1.123795e-06 1.805988e-10 -1.691210e-11))
110.68637     	((-5.309601e-09 -1.151194e-09 -3.850154e-09) (-3.126949e-10 -2.967353e-10 5.942359e-10)) ((2.271253e-10 -2.660406e-13 1.786676e-15) (1.145403e-06 1.638709e-10 -1.533910e-11))
116.76024     	((-7.157365e-09 2.005392e-09 -2.425508e-09) (-5.790675e-11 -1.488505e-10 -3.539064e-10)) ((2.328468e-10 -3.167919e-13 4.384437e-14) (1.166232e-06 1.479963e-10 -2.364467e-11))
122.741762    	((-9.097234e-09 8.055201e-09 1.748195e-11) (-3.886077e-11 3.901205e-10 -1.186842e-09)) ((2.379722e-10 -2.908067e-13 -1.347231e-14) (1.184943e-06 1.363582e-10 -3.892981e-11))
128.646719    	((-1.031497e-08 8.520357e-09 1.420104e-09) (-6.807883e-11 1.860453e-09 -7.214685e-10)) ((2.437430e-10 -3.580001e-13 3.773726e-14) (1.200596e-06 1.321487e-10 -5.667734e-11))
134.492201    	((-1.211698e-08 4.452363e-09 2.120479e-09) (8.574539e-10 3.833284e-09 1.229092e-09)) ((2.485393e-10 -4.670623e-13 1.116990e-13) (1.212574e-06 1.464582e-10 -8.010496e-11))
140.29543     	((-1.160257e-08 1.298052e-09 2.982237e-09) (2.191894e-09 4.343303e-09 2.120383e-09)) ((2.523265e-10 -5.075704e-13 1.099139e-13) (1.220640e-06 1.733456e-10 -1.024683e-10))
146.071691    	((-1.149578e-08 1.995452e-09 6.518926e-09) (2.435495e-09 4.596647e-09 2.661959e-09)) ((2.545841e-10 -5.344023e-13 9.974755e-14) (1.224954e-06 2.011850e-10 -1.150077e-10))
151.804723    	((-8.581399e-09 -2.886080e-09 7.657196e-09) (1.993646e-09 4.798790e-09 2.869905e-09)) ((2.560652e-10 -6.052151e-13 1.753211e-13) (1.225972e-06 2.214225e-10 -1.130950e-10))
