# Forces      
# CofR        : (0.000000e+00 0.000000e+00 0.000000e+00)
# Time        forces(pressure viscous)	moments(pressure viscous)
0             	((0.000000e+00 0.000000e+00 0.000000e+00) (0.000000e+00 0.000000e+00 0.000000e+00)) ((0.000000e+00 0.000000e+00 0.000000e+00) (0.000000e+00 0.000000e+00 0.000000e+00))
0.012         	((-2.597721e-10 3.558056e-10 -7.050011e-10) (1.673894e-12 7.005062e-13 4.573111e-12)) ((3.184270e-09 -3.039898e-13 -6.213626e-15) (2.214517e-06 2.428848e-13 -1.019792e-13))
0.0264        	((2.938448e-10 6.180398e-10 -1.267794e-09) (3.610606e-12 -5.284006e-12 3.861068e-12)) ((1.578913e-09 -2.393913e-13 6.001510e-14) (2.028415e-06 4.158447e-13 -9.244081e-14))
0.04368       	((-1.370947e-09 -9.547934e-10 -1.485567e-09) (1.898128e-11 -1.584630e-11 1.624223e-12)) ((8.818721e-10 -2.000039e-13 6.843588e-14) (1.837324e-06 2.414723e-13 1.865973e-13))
0.064416      	((5.919718e-10 -1.180868e-10 -3.669911e-10) (4.578435e-11 -2.309354e-11 -3.033987e-12)) ((5.044373e-10 -1.389829e-13 -2.693336e-14) (1.645549e-06 -2.156580e-13 4.704876e-13))
0.0892992     	((-2.118939e-10 -3.244835e-10 -2.987189e-11) (6.938992e-11 -2.575304e-11 -8.280161e-12)) ((3.860698e-10 -1.330734e-13 1.448672e-14) (1.458818e-06 -6.587766e-13 6.375940e-13))
0.119159      	((3.181426e-10 -3.259920e-10 -9.081305e-10) (9.129341e-11 -2.462610e-11 -1.241106e-11)) ((2.828707e-10 -9.241653e-14 -1.375608e-14) (1.282988e-06 -9.225385e-13 7.073249e-13))
0.154991      	((9.427334e-10 4.045188e-10 2.942319e-10) (8.771280e-11 -2.168783e-11 -1.441903e-11)) ((2.287761e-10 -7.980661e-14 -1.184781e-14) (1.122182e-06 -1.091658e-12 6.665055e-13))
0.197989      	((4.592934e-10 1.230802e-10 -2.611741e-10) (6.086420e-11 -1.906379e-11 -1.555574e-11)) ((1.848239e-10 -3.358360e-14 -1.513365e-14) (9.797775e-07 -1.202848e-12 6.018588e-13))
0.249587      	((7.976156e-10 -1.479148e-12 -4.028950e-10) (2.816939e-11 -2.043791e-11 -1.603888e-11)) ((1.545268e-10 -2.996742e-14 -1.712518e-14) (8.573768e-07 -1.257033e-12 5.887604e-13))
0.311504      	((-3.840230e-11 2.511928e-10 -4.088840e-10) (4.761195e-12 -2.061277e-11 -1.733133e-11)) ((1.307786e-10 -3.051126e-14 -7.776435e-15) (7.545449e-07 -1.184024e-12 5.484891e-13))
0.385805      	((-3.092273e-10 1.890365e-10 -5.393523e-10) (6.073506e-13 -1.590303e-11 -2.272249e-11)) ((1.144196e-10 -2.740216e-14 8.698615e-15) (6.690779e-07 -1.002639e-12 3.672249e-13))
0.474966      	((1.016729e-10 4.346067e-10 -4.596940e-10) (-2.232042e-11 -1.008854e-11 -3.166381e-11)) ((1.032853e-10 -2.577209e-14 1.346679e-14) (5.977171e-07 -9.986828e-13 2.267301e-13))
0.581959      	((7.493356e-10 9.084315e-10 -2.001730e-10) (6.514151e-11 1.957529e-12 -3.477315e-11)) ((9.278693e-11 -3.025784e-14 2.524311e-14) (5.372760e-07 -1.048852e-12 2.319988e-13))
0.710351      	((-2.382955e-10 1.004056e-09 -4.551245e-10) (1.643510e-10 7.057157e-12 -2.823691e-11)) ((8.259408e-11 -3.314021e-14 2.857836e-14) (4.851823e-07 -9.091325e-13 3.190193e-13))
0.864421      	((-4.344889e-10 1.143138e-09 -2.012737e-10) (1.531563e-10 8.282704e-12 -1.018510e-11)) ((7.540494e-11 -3.680352e-14 3.110444e-14) (4.395495e-07 -5.567874e-13 4.220803e-13))
1.049306      	((-9.672011e-11 1.564784e-09 -2.173993e-10) (1.302906e-10 9.739060e-12 8.146152e-12)) ((7.065846e-11 -3.343135e-14 2.073157e-14) (3.990609e-07 -3.217640e-13 7.808340e-13))
1.271167      	((-5.519557e-10 1.806077e-09 -3.624967e-10) (7.170930e-11 -1.071111e-11 2.437853e-11)) ((6.615592e-11 -3.633288e-14 2.312460e-14) (3.628022e-07 -4.542598e-13 1.708333e-12))
1.5374        	((-8.559544e-11 1.504287e-09 -3.974244e-10) (-2.119510e-12 -5.688012e-11 4.416169e-11)) ((6.101350e-11 -1.808984e-14 1.326171e-14) (3.301668e-07 -8.358897e-13 2.962280e-12))
1.85688       	((1.814298e-10 1.087350e-09 -6.904808e-10) (-1.222634e-11 -1.159622e-10 9.137790e-11)) ((5.569124e-11 -1.438298e-14 7.482916e-15) (3.008143e-07 -3.185345e-13 4.355072e-12))
2.240256      	((7.744664e-11 9.542203e-10 -8.486915e-10) (1.356722e-11 -1.735430e-10 1.464488e-10)) ((5.151912e-11 -1.628804e-14 6.970046e-15) (2.745803e-07 1.109963e-12 6.007845e-12))
2.700307      	((-1.185156e-10 6.605851e-11 -1.271485e-09) (4.210994e-11 -2.580923e-10 1.973161e-10)) ((4.825580e-11 -1.982589e-15 4.104775e-15) (2.513298e-07 2.742902e-12 7.868721e-12))
3.252369      	((-4.069852e-12 -1.652183e-10 -1.076016e-09) (1.307529e-10 -3.478345e-10 2.715790e-10)) ((4.490321e-11 -1.316299e-14 1.454090e-14) (2.308664e-07 4.481561e-12 9.289230e-12))
3.914842      	((1.480897e-10 1.733147e-10 -4.774063e-10) (1.565495e-10 -4.204567e-10 3.660743e-10)) ((4.150772e-11 -2.395298e-15 -4.384258e-16) (2.128953e-07 6.163843e-12 1.010506e-11))
4.709811      	((1.164847e-10 5.538906e-10 3.379967e-10) (1.353495e-10 -4.628732e-10 4.383564e-10)) ((3.830182e-11 2.732540e-15 -2.191544e-15) (1.970360e-07 7.207176e-12 1.057114e-11))
5.663773      	((-6.840380e-12 4.952491e-10 5.227705e-10) (1.110295e-10 -4.450893e-10 4.594675e-10)) ((3.495557e-11 1.996145e-14 -1.476586e-14) (1.828948e-07 7.062297e-12 1.051164e-11))
6.808528      	((-2.777599e-10 2.555624e-10 7.723473e-10) (5.545374e-11 -3.929604e-10 4.120492e-10)) ((3.171222e-11 1.897954e-14 -1.914966e-14) (1.701419e-07 6.563015e-12 9.666799e-12))
8.182233      	((5.910843e-11 8.454916e-11 6.363749e-10) (-3.763453e-11 -2.887647e-10 3.505858e-10)) ((2.870231e-11 2.055095e-14 -2.648722e-14) (1.585385e-07 6.155908e-12 8.286937e-12))
9.83068       	((-1.595186e-10 2.353719e-10 7.125668e-10) (-6.804521e-11 -1.765872e-10 2.945054e-10)) ((2.587944e-11 2.329090e-14 -3.896247e-14) (1.479079e-07 5.612794e-12 6.560720e-12))
11.808816     	((-7.556169e-11 1.318302e-10 2.613632e-10) (-6.618068e-11 -1.012116e-10 2.331837e-10)) ((2.338697e-11 2.586903e-14 -4.134262e-14) (1.381180e-07 5.387103e-12 4.442326e-12))
14.182579     	((-2.494168e-10 1.545960e-10 6.890332e-11) (-4.808472e-11 -5.160514e-11 1.768927e-10)) ((2.115233e-11 1.055928e-14 -3.429120e-14) (1.290811e-07 4.792473e-12 2.658370e-12))
17.031095     	((-1.431335e-10 1.290308e-10 9.312038e-11) (-3.622644e-11 -3.512026e-11 1.323086e-10)) ((1.916905e-11 -8.536761e-15 -2.155098e-14) (1.207574e-07 4.100177e-12 1.207658e-12))
20.449314     	((-2.118370e-11 2.843001e-11 1.062668e-10) (-5.652387e-11 -2.108293e-11 1.015085e-10)) ((1.747410e-11 -1.669556e-14 -1.442764e-14) (1.131331e-07 3.274930e-12 9.168373e-14))
24.551176     	((-7.172417e-11 1.331457e-12 4.846433e-11) (-5.576733e-11 1.283460e-11 6.773995e-11)) ((1.601099e-11 -2.204267e-14 -7.602088e-15) (1.061857e-07 2.678882e-12 -7.966516e-13))
29.473411     	((-9.400712e-11 -3.088724e-11 -6.574533e-12) (-6.399617e-11 3.861547e-11 5.002943e-11)) ((1.471457e-11 -2.586999e-14 2.500704e-15) (9.988175e-08 2.635358e-12 -1.513829e-12))
35.380094     	((-8.602974e-11 -7.693037e-11 3.336348e-12) (-4.236438e-11 4.417101e-11 4.328700e-11)) ((1.356272e-11 -2.710351e-14 7.355616e-15) (9.417633e-08 2.896937e-12 -1.765777e-12))
42.468112     	((-8.860811e-11 -1.053114e-10 -2.239924e-11) (-5.537425e-11 3.844247e-11 3.960651e-11)) ((1.257233e-11 -2.785090e-14 9.870252e-15) (8.901150e-08 3.305468e-12 -1.705451e-12))
50.973735     	((-8.391583e-11 -1.762024e-11 1.370393e-11) (-5.586599e-11 3.900565e-11 2.992144e-11)) ((1.170213e-11 -2.554592e-14 5.084217e-15) (8.433078e-08 3.544514e-12 -1.442325e-12))
61.180482     	((-5.676905e-11 7.379138e-11 9.773844e-11) (-3.602431e-11 4.393000e-11 8.773571e-12)) ((1.093608e-11 -2.125035e-14 -8.279818e-16) (8.007842e-08 3.453116e-12 -9.694855e-13))
73.428578     	((-7.349093e-12 1.013877e-10 1.123699e-10) (-1.297618e-11 4.644457e-11 -1.702730e-11)) ((1.032394e-11 -2.087480e-14 -5.678112e-15) (7.620505e-08 3.026386e-12 -4.351334e-13))
88.126294     	((3.411407e-12 1.229749e-10 1.784371e-10) (-5.625245e-13 5.773602e-11 -2.312924e-11)) ((9.782027e-12 -1.602337e-14 -1.084468e-14) (7.268064e-08 2.705660e-12 -6.222249e-14))
105.763553    	((-8.734991e-13 1.175612e-10 1.359247e-10) (-1.215383e-11 6.355045e-11 -2.991597e-11)) ((9.275167e-12 -1.406715e-14 -1.092670e-14) (6.948428e-08 2.364185e-12 2.865287e-13))
126.928263    	((2.298639e-11 8.023337e-11 5.132425e-11) (-1.585249e-11 5.866169e-11 -4.077700e-11)) ((8.751953e-12 -1.417524e-14 -9.368306e-15) (6.659418e-08 1.968805e-12 5.527638e-13))
152.325916    	((3.076529e-11 5.211427e-11 2.019748e-11) (-2.221677e-11 3.234495e-11 -5.495726e-11)) ((8.244096e-12 -1.501630e-14 -6.480297e-15) (6.399230e-08 1.576695e-12 7.664681e-13))
182.803099    	((4.449367e-11 -4.213868e-11 -9.293598e-11) (-2.391133e-11 1.275223e-11 -6.014323e-11)) ((7.832583e-12 -1.391163e-14 -5.654495e-15) (6.165812e-08 1.068355e-12 9.356066e-13))
219.375719    	((4.952787e-11 -7.086292e-11 -1.739270e-10) (-3.001912e-11 -6.404281e-12 -6.790958e-11)) ((7.507455e-12 -1.347310e-14 -5.421173e-15) (5.956957e-08 3.781393e-13 1.144869e-12))
262.377219    	((6.100512e-11 -1.140607e-10 -2.317879e-10) (-1.785777e-11 -2.066590e-11 -7.889334e-11)) ((7.226176e-12 -1.133047e-14 -4.509427e-15) (5.772017e-08 -3.289912e-13 1.215830e-12))
311.806231    	((3.385125e-11 -1.104537e-10 -2.565749e-10) (-9.874174e-12 -1.567115e-11 -8.217094e-11)) ((6.995994e-12 -8.868133e-15 -5.005812e-15) (5.610074e-08 -9.565613e-13 1.152196e-12))
367.661416    	((6.891785e-12 -8.828060e-11 -2.407372e-10) (-2.393946e-12 3.846345e-13 -7.865634e-11)) ((6.793326e-12 -7.123054e-15 -5.589217e-15) (5.469909e-08 -1.376486e-12 9.453928e-13))
429.941307    	((3.156235e-11 -9.780514e-11 -2.531974e-10) (-6.134043e-12 1.243900e-11 -8.337014e-11)) ((6.628151e-12 -7.217134e-15 -5.143864e-15) (5.349895e-08 -1.602057e-12 6.570980e-13))
494.171172    	((4.998695e-11 -9.173748e-11 -2.396558e-10) (8.683094e-12 2.016098e-11 -9.104239e-11)) ((6.497097e-12 -7.773486e-15 -4.450002e-15) (5.249797e-08 -1.617790e-12 3.564661e-13))
558.38437     	((6.609483e-11 -9.196777e-11 -2.305774e-10) (2.448519e-11 3.131454e-11 -8.963070e-11)) ((6.389856e-12 -8.326377e-15 -3.665161e-15) (5.167715e-08 -1.504963e-12 1.065565e-13))
622.582493    	((6.865309e-11 -8.287185e-11 -2.137965e-10) (3.628940e-11 3.926526e-11 -8.361744e-11)) ((6.304055e-12 -8.674229e-15 -2.910080e-15) (5.101410e-08 -1.349135e-12 -6.802191e-14))
686.7672      	((7.326796e-11 -9.418321e-11 -2.029678e-10) (4.259449e-11 4.512337e-11 -7.501146e-11)) ((6.234647e-12 -9.108192e-15 -2.237236e-15) (5.048292e-08 -1.182731e-12 -1.837500e-13))
750.936615    	((4.696384e-11 -8.949472e-11 -1.852101e-10) (4.381100e-11 4.928738e-11 -6.718510e-11)) ((6.174876e-12 -8.612017e-15 -1.930539e-15) (5.006150e-08 -9.606819e-13 -3.128580e-13))
815.091646    	((4.530574e-11 -9.141253e-11 -1.647918e-10) (4.206567e-11 5.268895e-11 -6.134452e-11)) ((6.125381e-12 -9.019734e-15 -1.584190e-15) (4.973096e-08 -7.771566e-13 -4.158678e-13))
879.234086    	((3.717939e-11 -9.128017e-11 -1.529226e-10) (4.061125e-11 5.500531e-11 -5.895458e-11)) ((6.085688e-12 -9.524809e-15 -1.041849e-15) (4.947573e-08 -6.501526e-13 -4.808417e-13))
943.365741    	((3.744911e-11 -8.813691e-11 -1.424535e-10) (4.235032e-11 5.764708e-11 -5.829345e-11)) ((6.053960e-12 -9.798499e-15 -6.536102e-16) (4.928226e-08 -5.779427e-13 -5.431652e-13))
1007.488279   	((3.986360e-11 -8.207022e-11 -1.326055e-10) (4.554308e-11 6.216006e-11 -5.690663e-11)) ((6.029816e-12 -9.882709e-15 -5.179648e-16) (4.913940e-08 -5.411699e-13 -6.264746e-13))
1071.603531   	((4.003275e-11 -7.894912e-11 -1.255158e-10) (4.923925e-11 6.627261e-11 -5.742352e-11)) ((6.010471e-12 -9.874074e-15 -1.933246e-16) (4.903812e-08 -5.237268e-13 -6.972539e-13))
1135.713415   	((3.880483e-11 -7.407439e-11 -1.164641e-10) (5.171974e-11 7.074809e-11 -5.737149e-11)) ((5.995419e-12 -1.012041e-14 6.442692e-17) (4.897119e-08 -5.082831e-13 -7.486654e-13))
1199.819658   	((4.064953e-11 -6.302057e-11 -1.077523e-10) (5.673699e-11 7.608214e-11 -5.609982e-11)) ((5.983411e-12 -1.031039e-14 1.277028e-16) (4.893242e-08 -4.921930e-13 -7.526379e-13))
1263.920702   	((4.273225e-11 -5.033775e-11 -9.737755e-11) (6.191147e-11 8.192869e-11 -5.477904e-11)) ((5.974988e-12 -1.064134e-14 1.876668e-17) (4.891670e-08 -4.637869e-13 -7.025016e-13))
1328.01792    	((3.807596e-11 -4.329973e-11 -8.760745e-11) (6.511641e-11 8.646491e-11 -5.239328e-11)) ((5.970084e-12 -1.064623e-14 -6.194671e-17) (4.891950e-08 -4.310240e-13 -6.270390e-13))
1392.112675   	((3.688250e-11 -3.760548e-11 -7.969282e-11) (6.656345e-11 8.727125e-11 -5.187528e-11)) ((5.968265e-12 -1.057797e-14 -1.401219e-16) (4.893693e-08 -4.002650e-13 -5.400556e-13))
1456.206259   	((3.761435e-11 -3.894325e-11 -7.302564e-11) (6.839816e-11 8.687277e-11 -5.159968e-11)) ((5.969592e-12 -1.054101e-14 -2.080167e-16) (4.896576e-08 -3.807863e-13 -4.443062e-13))
1520.299873   	((3.701254e-11 -3.915001e-11 -6.901026e-11) (6.925285e-11 8.613814e-11 -5.180222e-11)) ((5.973092e-12 -1.052113e-14 -1.473374e-16) (4.900327e-08 -3.779063e-13 -3.621623e-13))
