# Forces      
# CofR        : (0.000000e+00 0.000000e+00 0.000000e+00)
# Time        forces(pressure viscous)	moments(pressure viscous)
0             	((0.000000e+00 0.000000e+00 0.000000e+00) (0.000000e+00 0.000000e+00 0.000000e+00)) ((0.000000e+00 0.000000e+00 0.000000e+00) (0.000000e+00 0.000000e+00 0.000000e+00))
0.012         	((1.800945e-09 -2.267149e-07 -4.504031e-10) (3.056661e-11 -5.802523e-09 1.913077e-11)) ((5.894246e-14 -3.646676e-14 5.181780e-09) (-2.364692e-14 4.813213e-13 7.001753e-06))
0.0264        	((4.149123e-09 -3.396200e-08 -4.501017e-12) (8.475120e-11 -8.551706e-09 3.402688e-11)) ((-2.934433e-14 4.702339e-13 2.415197e-09) (1.029873e-15 1.341211e-12 6.414236e-06))
0.04368       	((6.429130e-09 -1.083842e-07 -1.701058e-09) (5.607628e-11 -9.114830e-09 5.033875e-11)) ((1.487376e-13 6.097146e-13 1.366070e-09) (4.430353e-15 2.486474e-12 5.811694e-06))
0.064416      	((7.278846e-09 1.105459e-08 1.231326e-09) (-1.007010e-10 -8.048751e-09 8.744525e-11)) ((2.716317e-14 3.921852e-13 7.897086e-10) (-3.002591e-15 3.805717e-12 5.208856e-06))
0.0892992     	((5.649018e-09 -5.016429e-08 -1.575505e-09) (-2.212252e-10 -6.873985e-09 1.355555e-10)) ((2.140094e-13 8.134240e-13 6.276158e-10) (2.786813e-13 5.366287e-12 4.624779e-06))
0.119159      	((4.746855e-10 1.772737e-09 1.372208e-11) (-2.542196e-10 -5.885251e-09 1.733137e-10)) ((1.284349e-13 4.998476e-13 4.995703e-10) (9.635184e-13 6.571409e-12 4.078441e-06))
0.154991      	((2.828255e-10 -2.927499e-08 -4.464633e-10) (-1.275844e-10 -5.698876e-09 1.904652e-10)) ((2.263488e-13 5.059084e-13 4.270932e-10) (1.549814e-12 7.129932e-12 3.583009e-06))
0.197989      	((-1.173639e-09 -7.622314e-09 -3.725416e-10) (8.010948e-11 -5.395567e-09 1.947179e-10)) ((1.334046e-13 4.434277e-13 3.538532e-10) (1.702704e-12 7.466112e-12 3.145467e-06))
0.249587      	((-2.636556e-09 -1.217196e-08 -9.002908e-10) (1.847631e-10 -4.833670e-09 1.838108e-10)) ((9.958852e-14 3.025450e-13 2.958337e-10) (1.099854e-12 7.310915e-12 2.767317e-06))
0.311504      	((6.872919e-09 -1.403438e-08 -4.590893e-10) (2.742096e-10 -4.344211e-09 1.696447e-10)) ((5.719630e-14 2.544606e-13 2.484980e-10) (1.260525e-14 6.652914e-12 2.445930e-06))
0.385805      	((2.264157e-09 -1.834246e-08 -1.363179e-10) (1.735565e-10 -4.036282e-09 1.900199e-10)) ((5.678289e-14 2.029400e-13 2.132981e-10) (-5.753307e-13 6.306080e-12 2.174023e-06))
0.474966      	((-2.932097e-09 -1.832834e-08 2.713559e-10) (-1.005756e-10 -3.895847e-09 2.087474e-10)) ((4.088764e-14 5.663936e-14 1.854776e-10) (-7.861678e-13 6.172525e-12 1.942453e-06))
0.581959      	((-2.731073e-09 -1.230786e-08 3.736920e-10) (-4.377727e-10 -3.163514e-09 2.179008e-10)) ((4.145066e-14 2.145217e-14 1.572302e-10) (-1.262359e-12 5.373078e-12 1.743719e-06))
0.710351      	((3.194967e-09 -7.698519e-09 -1.452771e-10) (-8.970095e-10 -1.976899e-09 1.957964e-10)) ((-4.188499e-14 -7.614744e-14 1.298949e-10) (-9.677839e-13 4.356496e-12 1.571508e-06))
0.864421      	((2.776602e-09 -1.932654e-08 -3.928520e-10) (-8.270928e-10 -1.094472e-09 1.539841e-10)) ((-1.561913e-13 -1.592670e-13 1.108642e-10) (2.458397e-14 4.629891e-12 1.420797e-06))
1.049306      	((5.647588e-09 -1.081840e-08 -8.175881e-10) (-4.657603e-10 -1.194715e-10 1.054255e-10)) ((-2.412595e-13 -3.728850e-13 9.804252e-11) (7.681706e-13 3.572909e-12 1.287565e-06))
1.271167      	((4.183516e-09 -1.787597e-08 -3.865309e-10) (-5.406285e-10 4.857690e-10 6.155551e-11)) ((-5.303924e-13 -5.078324e-13 8.787251e-11) (3.789992e-12 4.499628e-12 1.168768e-06))
1.5374        	((5.530874e-09 -1.728373e-08 4.604009e-10) (-1.066036e-09 9.214733e-10 -2.949437e-11)) ((-7.581621e-13 -4.659863e-13 7.686023e-11) (8.167424e-12 8.527494e-12 1.062434e-06))
1.85688       	((8.512625e-09 -1.791356e-08 3.165063e-10) (-1.222244e-09 1.195808e-09 -6.341454e-11)) ((-9.387816e-13 -4.916696e-13 6.664252e-11) (1.206344e-11 1.232186e-11 9.674571e-07))
2.240256      	((1.275267e-08 -1.097020e-08 1.223902e-09) (-1.022971e-09 1.085010e-09 -1.850024e-11)) ((-1.045940e-12 -3.500276e-13 5.905018e-11) (1.603108e-11 1.490893e-11 8.832130e-07))
2.700307      	((1.308130e-08 -1.120731e-08 1.055576e-09) (-3.547489e-10 9.636886e-10 -1.051311e-10)) ((-9.812039e-13 -7.158646e-14 5.205574e-11) (1.879149e-11 1.647390e-11 8.091029e-07))
3.252369      	((1.081543e-08 -5.439214e-09 8.734479e-10) (-5.072944e-10 8.527592e-10 -1.610739e-10)) ((-7.314374e-13 7.921508e-14 4.508613e-11) (1.897664e-11 1.813765e-11 7.442037e-07))
3.914842      	((7.990276e-09 -1.338563e-10 8.759910e-10) (-7.019406e-10 8.077575e-10 -1.310125e-10)) ((-5.059201e-13 1.351842e-13 3.805326e-11) (1.544505e-11 1.893027e-11 6.872787e-07))
4.709811      	((4.555139e-09 1.886927e-09 8.278734e-10) (-5.216434e-10 9.199771e-10 -1.511823e-10)) ((-2.533666e-13 2.901830e-13 3.227809e-11) (1.048398e-11 2.020935e-11 6.369480e-07))
5.663773      	((3.379295e-09 2.952809e-09 1.689517e-09) (-2.953090e-10 1.062987e-09 -1.409607e-10)) ((-8.645709e-14 3.286916e-13 2.764065e-11) (3.814763e-12 1.899577e-11 5.918940e-07))
6.808528      	((2.902248e-09 1.063030e-09 1.375516e-09) (1.510033e-10 5.962861e-10 -2.066650e-10)) ((-2.333666e-13 3.317159e-13 2.446918e-11) (-1.835959e-12 1.487658e-11 5.511151e-07))
8.182233      	((1.599106e-09 1.218156e-09 9.243724e-10) (-1.034624e-10 4.677859e-10 -3.700594e-10)) ((-1.801933e-13 3.715656e-13 2.203542e-11) (-4.555908e-12 1.121822e-11 5.139320e-07))
9.83068       	((1.476640e-09 1.910226e-09 9.555562e-11) (-6.992362e-10 5.491329e-10 -4.166527e-10)) ((-1.413902e-13 3.548386e-13 2.027638e-11) (-5.680135e-12 8.766945e-12 4.798288e-07))
11.808816     	((1.518082e-09 4.489182e-10 -8.030022e-11) (-1.484313e-09 6.127606e-10 -3.367874e-10)) ((1.653629e-15 3.395523e-13 1.872364e-11) (-2.030914e-12 7.202334e-12 4.483813e-07))
14.182579     	((4.895561e-10 1.321054e-09 -3.231022e-10) (-1.484525e-09 3.755922e-10 -3.985444e-10)) ((1.054096e-13 2.885262e-13 1.755355e-11) (2.955350e-12 2.439707e-12 4.193331e-07))
17.031095     	((-1.025060e-09 9.966425e-10 -8.374522e-11) (-1.717569e-09 5.288435e-10 -3.455541e-10)) ((1.538443e-13 1.958767e-13 1.650610e-11) (5.220842e-12 -5.053487e-12 3.926740e-07))
20.449314     	((-1.239793e-09 5.614136e-10 -1.313640e-10) (-1.477100e-09 5.890202e-10 -2.983950e-10)) ((2.442250e-13 1.246328e-13 1.592175e-11) (7.830109e-12 -9.865987e-12 3.684337e-07))
24.551176     	((-2.275031e-09 -2.716037e-10 1.038409e-10) (-1.231645e-09 8.611137e-12 -2.602828e-10)) ((2.495466e-13 1.174818e-13 1.524974e-11) (1.055961e-11 -1.066204e-11 3.465809e-07))
29.473411     	((-1.768781e-09 -1.123309e-09 2.429540e-11) (-7.911193e-10 -1.652065e-10 -2.267513e-10)) ((2.764531e-13 1.609926e-13 1.490011e-11) (1.225322e-11 -1.135986e-11 3.269824e-07))
35.380094     	((-2.473378e-09 -1.856004e-09 -1.192390e-10) (-7.145886e-10 -1.596033e-10 -1.799079e-10)) ((2.715166e-13 2.144325e-13 1.433772e-11) (1.437315e-11 -1.278635e-11 3.094390e-07))
42.468112     	((-2.869842e-09 -1.731089e-09 -2.004833e-10) (-1.015896e-09 4.758973e-10 -1.588433e-10)) ((2.505445e-13 2.075266e-13 1.365585e-11) (1.651644e-11 -1.395281e-11 2.937220e-07))
50.973735     	((-2.844603e-09 -1.971142e-09 -4.074058e-10) (-8.252323e-10 8.236692e-10 -1.064250e-10)) ((2.455177e-13 1.637722e-13 1.292052e-11) (1.528768e-11 -1.578847e-11 2.796393e-07))
61.180482     	((-1.682408e-09 -1.564404e-09 -3.542066e-10) (-2.801903e-10 5.425308e-10 -1.343206e-10)) ((2.760419e-13 1.069295e-13 1.222617e-11) (1.216918e-11 -1.780490e-11 2.670377e-07))
73.421285     	((-8.878590e-10 -1.273491e-09 -4.619778e-10) (1.402634e-11 1.694065e-10 -1.408494e-10)) ((3.085932e-13 1.006259e-13 1.154181e-11) (9.196161e-12 -1.802429e-11 2.558092e-07))
87.695888     	((-5.166393e-10 -1.887470e-09 -3.360514e-10) (4.177042e-10 1.123324e-10 -9.832723e-11)) ((3.289541e-13 1.321086e-13 1.112389e-11) (5.786358e-12 -1.664945e-11 2.460377e-07))
104.003955    	((-8.250060e-10 -2.379477e-09 -3.444973e-10) (1.898619e-10 -2.173571e-10 -9.047488e-11)) ((3.004037e-13 1.583992e-13 1.087494e-11) (2.435846e-12 -1.592227e-11 2.377114e-07))
122.345102    	((-6.497211e-10 -2.311825e-09 -3.192209e-10) (-1.468024e-10 -2.154198e-10 -1.164272e-10)) ((2.383720e-13 1.811995e-13 1.060182e-11) (6.323898e-14 -1.643809e-11 2.307675e-07))
142.671341    	((-6.439054e-10 -2.087180e-09 -4.077354e-10) (8.495464e-11 3.072388e-11 -1.227003e-10)) ((1.858746e-13 1.875387e-13 1.026823e-11) (-6.977540e-13 -1.867578e-11 2.250972e-07))
162.991688    	((-4.253946e-10 -1.731196e-09 -3.380537e-10) (3.221223e-10 2.612381e-10 -1.231717e-10)) ((1.382674e-13 1.851645e-13 9.886402e-12) (2.396538e-13 -2.090934e-11 2.207716e-07))
183.305805    	((-3.309147e-10 -1.280291e-09 -3.372308e-10) (5.777573e-10 3.554152e-10 -9.447879e-11)) ((1.142357e-13 1.753338e-13 9.498011e-12) (1.570762e-12 -2.242474e-11 2.175730e-07))
203.613344    	((-8.348921e-11 -5.042732e-10 -2.229402e-10) (8.621058e-10 4.876272e-10 -7.961324e-11)) ((9.051247e-14 1.835968e-13 9.186490e-12) (2.810365e-12 -2.230155e-11 2.153548e-07))
223.913843    	((9.282146e-11 -1.415147e-10 -1.912855e-10) (8.045537e-10 6.967248e-10 -6.207428e-11)) ((6.413351e-14 2.017568e-13 8.983188e-12) (3.708424e-12 -2.108677e-11 2.139609e-07))
244.206911    	((-4.429726e-11 -4.217541e-11 -1.595733e-10) (4.219580e-10 6.922630e-10 -6.060198e-11)) ((4.505338e-14 2.038304e-13 8.826023e-12) (4.123443e-12 -1.998022e-11 2.132829e-07))
264.492346    	((5.114926e-11 1.412032e-10 -2.323764e-10) (-2.578850e-11 6.147587e-10 -1.002777e-10)) ((2.938332e-14 2.024431e-13 8.666886e-12) (4.636338e-12 -1.898477e-11 2.132147e-07))
284.769974    	((8.477390e-12 8.965351e-11 -1.057609e-10) (-1.221655e-10 5.091625e-10 -1.266669e-10)) ((3.333600e-14 1.974605e-13 8.549389e-12) (4.855194e-12 -1.749510e-11 2.136634e-07))
305.039657    	((-1.350584e-10 1.941465e-10 -1.414243e-10) (-3.634388e-11 4.498442e-10 -1.359549e-10)) ((3.163529e-14 1.950490e-13 8.460671e-12) (4.408278e-12 -1.602352e-11 2.145490e-07))
325.301376    	((-4.460717e-11 3.274205e-10 -5.470756e-11) (1.167594e-10 3.497175e-10 -1.360655e-10)) ((2.721955e-14 1.923939e-13 8.409414e-12) (3.392763e-12 -1.511806e-11 2.158007e-07))
345.555175    	((-4.935967e-11 3.671094e-10 -4.298578e-11) (1.430754e-10 3.263402e-10 -1.232504e-10)) ((2.251377e-14 1.913905e-13 8.376658e-12) (2.480969e-12 -1.439340e-11 2.173483e-07))
365.800987    	((-1.674534e-11 2.933851e-10 -3.461556e-13) (1.553579e-10 3.173904e-10 -1.049912e-10)) ((2.191176e-14 1.912649e-13 8.359091e-12) (2.027409e-12 -1.408298e-11 2.191234e-07))
386.03874     	((-6.308519e-12 1.779451e-10 -7.093458e-12) (2.199377e-10 2.232950e-10 -8.782473e-11)) ((2.525352e-14 1.920339e-13 8.338351e-12) (2.198815e-12 -1.444910e-11 2.210569e-07))
406.268467    	((-5.376540e-11 1.205131e-10 -7.016395e-11) (3.028172e-10 9.362199e-11 -7.301696e-11)) ((2.765827e-14 1.913011e-13 8.334403e-12) (3.061664e-12 -1.499817e-11 2.230793e-07))
426.4902      	((-2.645621e-11 1.810084e-10 -1.038576e-10) (4.076977e-10 -2.746205e-11 -6.047715e-11)) ((3.035782e-14 1.920374e-13 8.329036e-12) (4.240653e-12 -1.564533e-11 2.251189e-07))
446.703948    	((-4.457067e-11 1.524440e-10 -1.130158e-10) (5.251486e-10 -1.439900e-10 -5.140070e-11)) ((3.391362e-14 1.958079e-13 8.341443e-12) (5.419129e-12 -1.617810e-11 2.271104e-07))
466.909902    	((-3.281716e-11 1.177507e-10 -1.234093e-10) (6.388699e-10 -2.408117e-10 -5.280989e-11)) ((3.447243e-14 2.020106e-13 8.366530e-12) (6.422195e-12 -1.672384e-11 2.289965e-07))
