# Forces      
# CofR        : (0.000000e+00 0.000000e+00 0.000000e+00)
# Time        forces(pressure viscous)	moments(pressure viscous)
0             	((0.000000e+00 0.000000e+00 0.000000e+00) (0.000000e+00 0.000000e+00 0.000000e+00)) ((0.000000e+00 0.000000e+00 0.000000e+00) (0.000000e+00 0.000000e+00 0.000000e+00))
0.012         	((-3.431111e-10 4.675369e-09 1.092408e-06) (8.120700e-11 3.035459e-11 2.375597e-08)) ((-4.894368e-13 4.359104e-08 9.058221e-15) (1.504292e-13 2.788844e-05 -1.688037e-12))
0.0264        	((-2.378212e-09 -4.665465e-09 -3.996154e-07) (-3.643744e-10 4.219688e-11 4.189551e-08)) ((-1.882856e-14 2.317295e-08 2.111801e-12) (3.186972e-13 2.555129e-05 -2.915668e-12))
0.04368       	((-1.019624e-10 2.747812e-08 3.549831e-07) (-6.870577e-10 1.670168e-12 4.737686e-08)) ((1.226558e-14 1.445024e-08 1.237119e-12) (5.417774e-14 2.317559e-05 -3.202359e-12))
0.064416      	((5.574732e-08 -1.035931e-08 -3.818462e-08) (-7.184377e-10 -1.336316e-10 4.023914e-08)) ((-9.889000e-14 9.985595e-09 4.609324e-13) (-1.825343e-12 2.083416e-05 -2.621784e-12))
0.0892992     	((5.546686e-08 5.127129e-09 3.059367e-08) (-2.306423e-09 -2.752557e-10 3.268819e-08)) ((-9.982593e-14 8.572645e-09 5.769858e-13) (-4.296195e-12 1.861346e-05 -2.811028e-12))
0.119159      	((-4.299087e-08 -1.118122e-09 6.167973e-08) (-3.325928e-09 -3.229686e-10 2.727152e-08)) ((-2.660074e-13 7.077200e-09 1.218944e-13) (-5.508164e-12 1.658913e-05 -3.640366e-12))
0.154991      	((-2.098121e-08 -5.297304e-09 -2.584772e-08) (-1.904934e-09 -3.250264e-10 2.009642e-08)) ((8.646744e-14 6.091605e-09 6.722851e-13) (-8.476116e-12 1.480574e-05 -4.877873e-12))
0.197989      	((1.347936e-08 1.182185e-09 3.877317e-08) (2.986289e-09 -3.401747e-10 1.417402e-08)) ((4.884674e-13 5.314141e-09 8.713765e-13) (-1.220271e-11 1.325907e-05 -5.400515e-12))
0.249587      	((2.614846e-08 -1.727970e-09 5.270775e-09) (1.051341e-08 -3.726583e-10 1.347239e-08)) ((7.419556e-14 4.723780e-09 9.920803e-13) (-1.310811e-11 1.189576e-05 -5.628067e-12))
0.311504      	((4.169052e-08 -3.294103e-09 4.833699e-09) (1.587832e-08 -3.718516e-10 1.442274e-08)) ((-9.585345e-14 4.211167e-09 1.074884e-12) (-1.194609e-11 1.065458e-05 -6.856778e-12))
0.385805      	((2.318683e-08 -7.084010e-10 -2.039824e-08) (1.758154e-08 -3.144658e-10 1.013083e-08)) ((-1.918421e-13 3.788900e-09 1.117686e-12) (-1.060410e-11 9.522522e-06 -8.148553e-12))
0.474966      	((2.941006e-08 -1.242786e-09 2.285925e-08) (1.437857e-08 -2.020236e-10 3.271797e-09)) ((-4.998206e-13 3.407710e-09 8.094605e-13) (-9.351941e-12 8.506663e-06 -1.112672e-11))
0.581959      	((3.598093e-08 1.141008e-09 -1.455543e-08) (9.224564e-09 -5.138929e-11 -6.717871e-10)) ((-7.995647e-13 3.048543e-09 5.283160e-13) (-1.419703e-11 7.609137e-06 -1.205923e-11))
0.710351      	((2.189236e-08 8.918999e-10 1.158005e-09) (4.546886e-09 2.482637e-10 7.359602e-10)) ((-1.160036e-12 2.689973e-09 1.046406e-12) (-2.048441e-11 6.823818e-06 -6.826421e-12))
0.864421      	((1.987152e-08 -4.656608e-09 2.452028e-08) (4.640552e-09 4.463241e-10 6.224663e-09)) ((-8.566640e-13 2.357885e-09 8.645820e-13) (-2.478690e-11 6.137448e-06 2.826331e-12))
1.049306      	((-1.658402e-08 1.292887e-11 8.699867e-09) (8.574532e-09 3.078846e-10 5.621471e-09)) ((-2.208321e-13 2.078195e-09 3.861942e-13) (-2.269311e-11 5.534945e-06 9.534333e-12))
1.271167      	((-1.641127e-08 3.427849e-09 2.331217e-08) (9.024250e-10 1.714011e-10 4.594028e-09)) ((-4.191696e-13 1.869313e-09 3.386998e-13) (5.336092e-13 5.003780e-06 1.807164e-11))
1.5374        	((-4.330916e-08 1.641948e-09 5.390386e-08) (-3.782788e-09 -6.164868e-10 5.618313e-09)) ((-1.758430e-12 1.702356e-09 5.010343e-13) (3.510595e-11 4.536023e-06 2.084469e-11))
1.85688       	((1.476321e-08 -5.566389e-10 5.864274e-08) (-1.819186e-09 -1.662021e-10 5.659398e-09)) ((-2.389083e-12 1.561568e-09 -2.376627e-13) (5.512055e-11 4.126961e-06 9.605603e-12))
2.240256      	((1.131698e-08 6.370915e-09 5.529760e-08) (3.623696e-09 5.143266e-10 6.666639e-09)) ((-1.142664e-12 1.423022e-09 -3.041228e-13) (5.767856e-11 3.772353e-06 -2.643892e-11))
2.700307      	((1.815498e-08 4.007003e-09 4.540208e-08) (5.076087e-09 -3.530652e-11 8.088760e-09)) ((-6.195255e-14 1.286543e-09 4.700005e-14) (4.462717e-11 3.466126e-06 -7.494846e-11))
3.252369      	((1.152698e-08 9.960967e-09 8.318116e-09) (4.155901e-09 -1.080255e-10 1.064989e-08)) ((2.104104e-13 1.158666e-09 -1.610090e-13) (7.389628e-12 3.200288e-06 -1.155888e-10))
3.914842      	((2.793474e-08 6.245507e-09 1.441411e-08) (3.752929e-09 -2.096919e-10 1.623645e-08)) ((8.474645e-13 1.039160e-09 2.815315e-13) (-4.634352e-11 2.966968e-06 -1.787963e-10))
4.709811      	((3.064070e-08 6.067831e-09 2.263847e-08) (-1.307201e-09 -7.011049e-10 1.925116e-08)) ((1.461308e-12 9.292413e-10 2.309943e-14) (-8.625106e-11 2.759953e-06 -2.310196e-10))
5.663773      	((2.455698e-08 4.804622e-09 2.206965e-08) (-1.322622e-09 -3.961528e-10 2.370010e-08)) ((1.539098e-12 8.299866e-10 -3.514359e-13) (-1.171562e-10 2.574529e-06 -2.393854e-10))
6.808528      	((1.690737e-08 3.558607e-09 1.400138e-08) (-2.716570e-09 -5.805516e-10 2.353537e-08)) ((1.026594e-12 7.464270e-10 -7.210772e-13) (-1.272194e-10 2.407156e-06 -1.993874e-10))
8.182233      	((1.290147e-08 1.186115e-09 1.320822e-08) (-4.559935e-09 -6.880994e-10 2.105884e-08)) ((1.166807e-12 6.741479e-10 -6.185241e-13) (-1.228831e-10 2.255156e-06 -1.500074e-10))
9.83068       	((1.303778e-08 -3.610916e-09 1.666785e-08) (-4.239727e-09 -6.050223e-10 1.786748e-08)) ((1.763755e-12 6.079080e-10 -1.886958e-13) (-1.341008e-10 2.116702e-06 -1.040857e-10))
11.808816     	((7.903406e-09 -3.114311e-10 1.227206e-08) (-4.485932e-09 -1.023230e-09 1.888106e-08)) ((2.220667e-12 5.562232e-10 1.159702e-13) (-1.716721e-10 1.991108e-06 -4.966100e-11))
14.182579     	((-2.498474e-09 -6.164028e-09 1.111914e-08) (-6.572581e-09 -1.573607e-09 1.552176e-08)) ((1.927369e-12 5.142792e-10 7.004118e-13) (-1.952039e-10 1.878488e-06 3.320304e-12))
17.016073     	((-2.199746e-09 -1.649098e-09 3.605219e-09) (-1.012067e-08 -2.396638e-09 1.537814e-08)) ((1.829355e-12 4.804650e-10 2.732299e-13) (-2.068209e-10 1.779521e-06 6.008063e-11))
20.321624     	((-5.461167e-09 -3.561374e-09 -1.522468e-09) (-1.027248e-08 -2.812107e-09 1.397861e-08)) ((1.857178e-12 4.517784e-10 -1.602060e-13) (-2.138125e-10 1.695413e-06 1.201364e-10))
24.11251      	((-3.535053e-09 -6.662755e-10 2.152303e-09) (-9.411277e-09 -2.573814e-09 1.210767e-08)) ((1.507402e-12 4.287142e-10 -6.687357e-13) (-1.920309e-10 1.625962e-06 1.849455e-10))
28.402606     	((-1.020858e-08 -7.773471e-10 -1.877712e-09) (-9.372821e-09 -1.457314e-09 1.473887e-08)) ((1.284607e-12 4.076770e-10 -7.974983e-13) (-1.643906e-10 1.570179e-06 2.248640e-10))
33.203612     	((-1.435252e-08 4.604489e-10 4.617422e-09) (-9.293629e-09 -1.280327e-09 1.114984e-08)) ((1.320678e-12 3.877729e-10 -6.772904e-13) (-1.425379e-10 1.526827e-06 2.461331e-10))
38.312205     	((-6.526451e-09 -1.490497e-09 9.104658e-09) (-8.766693e-09 -1.257864e-09 1.164611e-08)) ((1.155059e-12 3.724787e-10 -6.761914e-13) (-1.215732e-10 1.495716e-06 2.408777e-10))
43.420192     	((1.099329e-08 -1.520317e-09 2.411411e-08) (-5.710048e-09 -1.001859e-09 1.312517e-08)) ((9.634634e-13 3.632495e-10 -3.438267e-13) (-1.186931e-10 1.476128e-06 2.198770e-10))
48.527542     	((1.615295e-08 -1.896606e-09 2.728658e-08) (-1.879432e-09 -1.048689e-09 1.310171e-08)) ((7.333090e-13 3.568215e-10 -8.559519e-14) (-1.254418e-10 1.466369e-06 1.986958e-10))
53.634171     	((2.779942e-08 -2.649754e-09 3.578073e-08) (1.301357e-09 -6.170479e-10 1.267999e-08)) ((2.515712e-13 3.514238e-10 3.319008e-14) (-1.248126e-10 1.465406e-06 1.960716e-10))
58.739954     	((2.742174e-08 -1.864683e-09 2.961898e-08) (1.086923e-09 -6.215618e-10 1.082347e-08)) ((5.860165e-14 3.484044e-10 1.922738e-13) (-1.276047e-10 1.472340e-06 2.044915e-10))
63.844862     	((2.937322e-08 -2.795046e-09 2.828015e-08) (4.695436e-09 -3.945338e-10 9.703768e-09)) ((-4.254194e-14 3.493333e-10 4.711136e-13) (-1.169082e-10 1.486463e-06 2.255384e-10))
68.948876     	((2.133451e-08 -1.803239e-09 2.071460e-08) (6.579270e-09 -3.557183e-10 8.014858e-09)) ((-2.106376e-14 3.517098e-10 6.517803e-13) (-1.004220e-10 1.507066e-06 2.567752e-10))
73.996126     	((2.098002e-08 -3.527233e-09 2.209409e-08) (7.759414e-09 -2.533479e-10 5.671262e-09)) ((6.014739e-14 3.581190e-10 7.954393e-13) (-7.250374e-11 1.533198e-06 2.762942e-10))
78.941907     	((6.922445e-09 -2.864294e-09 1.465162e-08) (5.528138e-09 -3.169702e-12 2.330881e-09)) ((1.665701e-13 3.646257e-10 7.967814e-13) (-4.186333e-11 1.563500e-06 2.796824e-10))
83.793408     	((3.180469e-09 -5.480504e-09 1.598626e-08) (4.226910e-09 -7.923469e-11 -7.827743e-10)) ((3.811397e-13 3.738900e-10 8.197494e-13) (-1.603736e-11 1.596030e-06 2.565813e-10))
88.559799     	((-1.229774e-08 -4.233745e-09 1.024128e-08) (1.704601e-09 -3.596724e-11 -1.772750e-09)) ((6.044900e-13 3.842877e-10 7.918966e-13) (-2.191424e-12 1.628406e-06 2.188441e-10))
93.252128     	((-1.709365e-08 -4.199925e-09 1.875636e-08) (-1.206385e-09 7.717467e-11 3.315962e-10)) ((1.119610e-12 3.951029e-10 8.716278e-13) (-9.166305e-12 1.658142e-06 1.875384e-10))
97.881796     	((-2.143906e-08 -6.724591e-09 1.676563e-08) (-2.534210e-09 4.398439e-10 1.411809e-09)) ((1.470580e-12 4.055175e-10 9.051971e-13) (-3.451954e-11 1.683335e-06 1.751467e-10))
102.462201    	((-2.008378e-08 -7.034811e-09 1.889902e-08) (-2.777900e-09 1.643841e-09 2.195767e-09)) ((1.744581e-12 4.146192e-10 8.990148e-13) (-7.654403e-11 1.702877e-06 1.872286e-10))
107.006913    	((-9.159234e-09 -6.828402e-09 2.015894e-08) (-3.951123e-10 2.478897e-09 5.619754e-09)) ((1.717714e-12 4.223712e-10 8.449889e-13) (-1.169459e-10 1.716218e-06 2.179866e-10))
111.489413    	((-7.346022e-09 -3.646295e-09 2.008444e-08) (1.890768e-09 3.145710e-09 7.881226e-09)) ((1.735838e-12 4.274401e-10 7.545718e-13) (-1.348796e-10 1.723421e-06 2.419883e-10))
115.914838    	((4.779338e-09 -4.543697e-09 1.949030e-08) (4.148953e-09 3.007788e-09 9.618009e-09)) ((1.567857e-12 4.290864e-10 7.735097e-13) (-1.329575e-10 1.725342e-06 2.585419e-10))
120.303519    	((1.726020e-08 6.101253e-10 1.422390e-08) (4.587361e-09 2.746180e-09 6.662952e-09)) ((1.469146e-12 4.302412e-10 7.325214e-13) (-1.190736e-10 1.723003e-06 2.665942e-10))
