# Forces      
# CofR        : (0.000000e+00 0.000000e+00 0.000000e+00)
# Time        forces(pressure viscous)	moments(pressure viscous)
0             	((0.000000e+00 0.000000e+00 0.000000e+00) (1.536892e-12 -2.524276e-02 3.652175e-12)) ((0.000000e+00 0.000000e+00 0.000000e+00) (-8.241947e-14 4.560500e-15 7.945528e-09))
0.012         	((4.575833e-04 -7.461055e+00 4.536976e-04) (1.201578e-06 -4.124914e-02 2.021225e-07)) ((-1.635625e-09 -1.279109e-10 1.390919e-06) (8.475222e-08 2.036977e-10 -1.180948e-07))
0.0264        	((8.475798e-05 2.698953e+00 5.074601e-06) (3.283616e-06 -3.991851e-02 -7.487281e-08)) ((-4.852931e-08 1.659111e-09 -3.472299e-07) (1.602776e-08 2.289869e-10 -1.692906e-07))
0.04368       	((-5.459691e-04 -9.354606e-03 -3.187006e-04) (-1.403998e-06 -3.254095e-02 6.535838e-07)) ((4.338828e-08 -7.012739e-10 -2.411994e-07) (1.407016e-08 1.821021e-10 -2.303073e-07))
0.064416      	((-4.623959e-04 1.008882e-01 1.016366e-05) (-1.594807e-05 -2.895377e-02 2.196125e-06)) ((-1.227986e-08 -2.381142e-09 6.785073e-08) (6.752626e-08 1.382369e-09 -3.726350e-07))
0.0892992     	((-2.824389e-04 -6.228184e-02 -5.667523e-05) (-9.634745e-06 -2.666990e-02 7.876666e-07)) ((-4.169341e-10 4.819858e-10 2.244799e-08) (3.075266e-08 1.389479e-09 -5.220587e-07))
0.119159      	((3.005851e-05 -1.348755e-02 -2.419195e-05) (-3.735968e-06 -2.522090e-02 -1.160101e-07)) ((-1.048561e-09 1.529242e-09 9.910051e-08) (2.171959e-08 1.848737e-09 -6.442056e-07))
0.154991      	((-1.881260e-04 -3.397527e-02 5.374118e-06) (-1.260021e-05 -2.419686e-02 8.394738e-07)) ((1.633484e-09 -3.290496e-10 4.478455e-08) (2.661062e-08 1.363395e-09 -6.427749e-07))
0.197398      	((-3.402842e-04 -2.932734e-02 6.932617e-07) (-1.790294e-05 -2.341468e-02 3.074842e-07)) ((-2.382419e-09 -9.480726e-10 1.400523e-07) (1.583690e-08 9.125949e-10 -6.061287e-07))
0.246363      	((-7.474375e-05 -3.659035e-02 8.074193e-06) (-1.687657e-05 -2.280070e-02 1.262439e-07)) ((-2.242603e-10 6.179094e-11 1.246241e-07) (-3.674215e-10 1.008866e-09 -6.617756e-07))
0.301884      	((-1.152924e-04 -3.993494e-02 7.984377e-06) (-1.577322e-05 -2.232204e-02 1.765500e-07)) ((-9.626878e-10 -6.679641e-10 1.806168e-07) (-4.188574e-09 1.522750e-09 -7.039550e-07))
0.363969      	((3.685247e-05 -4.664708e-02 9.531426e-06) (-1.275969e-05 -2.196760e-02 -1.667428e-08)) ((-1.855986e-10 -4.867813e-10 2.132827e-07) (-9.969237e-09 1.599638e-09 -7.017484e-07))
0.429581      	((1.276833e-04 -5.213777e-02 1.129772e-05) (-9.318302e-06 -2.171746e-02 -3.649778e-08)) ((9.964725e-10 -1.818594e-10 2.612942e-07) (-1.797135e-08 1.695754e-09 -7.570543e-07))
0.494813      	((2.624051e-04 -5.856982e-02 2.423853e-05) (-6.560910e-06 -2.153418e-02 4.173016e-09)) ((1.806594e-09 -7.884142e-10 3.032737e-07) (-1.777814e-08 1.776744e-09 -8.118495e-07))
0.559611      	((3.450837e-04 -6.415401e-02 3.693114e-05) (-4.796987e-06 -2.137081e-02 1.717431e-08)) ((2.237832e-09 -3.826502e-10 3.496921e-07) (-4.836732e-09 1.625104e-09 -8.828924e-07))
0.624071      	((4.448617e-04 -6.942092e-02 4.923593e-05) (-3.955038e-06 -2.119287e-02 -2.225836e-07)) ((1.978325e-09 -1.162963e-09 3.896902e-07) (2.013180e-08 1.218796e-09 -9.458500e-07))
0.688408      	((5.439557e-04 -7.364624e-02 7.330473e-05) (-3.120951e-06 -2.099118e-02 -3.366660e-07)) ((1.124991e-09 -1.663963e-09 4.276101e-07) (3.991354e-08 7.313294e-10 -9.974795e-07))
0.75284       	((6.403559e-04 -7.659639e-02 1.007099e-04) (-2.194693e-06 -2.078270e-02 3.916077e-08)) ((1.141063e-09 -1.761628e-09 4.597428e-07) (4.057900e-08 7.886681e-10 -1.040822e-06))
0.817462      	((7.506208e-04 -7.841997e-02 1.314785e-04) (-4.823291e-07 -2.058532e-02 7.295362e-07)) ((1.618605e-09 -2.064084e-09 4.914892e-07) (3.069311e-08 1.243871e-09 -1.076453e-06))
0.882236      	((8.983296e-04 -7.926969e-02 1.608644e-04) (1.955524e-06 -2.040565e-02 1.263483e-06)) ((2.129826e-09 -2.555399e-09 5.155601e-07) (2.789499e-08 1.114520e-09 -1.128615e-06))
0.947084      	((1.078114e-03 -7.915555e-02 1.911658e-04) (4.225801e-06 -2.024098e-02 1.450861e-06)) ((2.559570e-09 -2.708657e-09 5.359488e-07) (3.753574e-08 5.008624e-10 -1.215607e-06))
1.011968      	((1.275419e-03 -7.840611e-02 2.239190e-04) (5.681835e-06 -2.009046e-02 1.483582e-06)) ((2.854723e-09 -2.980401e-09 5.535886e-07) (5.431658e-08 -2.599013e-10 -1.343956e-06))
1.0769        	((1.483858e-03 -7.752167e-02 2.602579e-04) (6.677392e-06 -1.995346e-02 1.621618e-06)) ((3.162218e-09 -4.282816e-09 5.659753e-07) (7.241376e-08 -3.664832e-10 -1.497608e-06))
1.141896      	((1.700683e-03 -7.674217e-02 2.962751e-04) (7.705166e-06 -1.982776e-02 1.782066e-06)) ((3.733128e-09 -5.788860e-09 5.721379e-07) (8.549583e-08 1.306047e-10 -1.669717e-06))
1.206956      	((1.952674e-03 -7.600871e-02 3.325816e-04) (8.559970e-06 -1.971095e-02 2.088524e-06)) ((4.373489e-09 -7.729584e-09 5.746454e-07) (9.568832e-08 6.843446e-10 -1.865788e-06))
1.272071      	((2.242518e-03 -7.554348e-02 3.817033e-04) (9.066210e-06 -1.960371e-02 2.514998e-06)) ((5.142573e-09 -9.799619e-09 5.749004e-07) (1.135978e-07 1.708563e-09 -2.090455e-06))
1.337235      	((2.553558e-03 -7.502578e-02 4.359280e-04) (9.857112e-06 -1.950600e-02 2.864056e-06)) ((5.728290e-09 -1.142813e-08 5.738337e-07) (1.406834e-07 3.002836e-09 -2.324792e-06))
1.402445      	((2.900986e-03 -7.458385e-02 4.970199e-04) (1.138969e-05 -1.941642e-02 3.033845e-06)) ((6.036279e-09 -1.332648e-08 5.744307e-07) (1.756085e-07 2.143647e-09 -2.560541e-06))
1.4677        	((3.299308e-03 -7.417634e-02 5.597657e-04) (1.335929e-05 -1.933328e-02 3.254679e-06)) ((6.185821e-09 -1.480507e-08 5.771075e-07) (2.085452e-07 2.817741e-10 -2.800829e-06))
1.532995      	((3.733118e-03 -7.377792e-02 6.186844e-04) (1.576171e-05 -1.925544e-02 3.705232e-06)) ((6.513163e-09 -1.605853e-08 5.809904e-07) (2.370826e-07 -6.167203e-10 -3.030444e-06))
1.598326      	((4.200414e-03 -7.343125e-02 7.025299e-04) (1.881218e-05 -1.918287e-02 4.258098e-06)) ((7.571908e-09 -1.743023e-08 5.844079e-07) (2.593573e-07 1.110223e-09 -3.245453e-06))
1.663691      	((4.715792e-03 -7.315012e-02 7.798917e-04) (2.225594e-05 -1.911647e-02 4.773511e-06)) ((8.811635e-09 -1.918421e-08 5.876406e-07) (2.807425e-07 5.099396e-09 -3.457160e-06))
1.729086      	((5.324094e-03 -7.284587e-02 8.954114e-04) (2.619546e-05 -1.905690e-02 5.521586e-06)) ((1.126929e-08 -2.147256e-08 5.898383e-07) (3.055443e-07 7.610290e-09 -3.681211e-06))
1.794509      	((6.040034e-03 -7.253701e-02 1.051799e-03) (3.112394e-05 -1.900374e-02 6.605889e-06)) ((1.483442e-08 -2.381190e-08 5.912751e-07) (3.320868e-07 8.573136e-09 -3.919597e-06))
1.859956      	((6.860143e-03 -7.216216e-02 1.232665e-03) (3.696665e-05 -1.895611e-02 7.939837e-06)) ((1.803043e-08 -2.555148e-08 5.918853e-07) (3.644343e-07 8.146225e-09 -4.175142e-06))
1.925426      	((7.820647e-03 -7.172738e-02 1.419322e-03) (4.354960e-05 -1.891314e-02 9.346789e-06)) ((2.068241e-08 -2.707201e-08 5.917950e-07) (4.056107e-07 2.941314e-09 -4.467318e-06))
1.990913      	((8.934373e-03 -7.127836e-02 1.629784e-03) (5.090510e-05 -1.887406e-02 1.089761e-05)) ((2.305017e-08 -2.794394e-08 5.914907e-07) (4.564568e-07 -7.074976e-09 -4.815470e-06))
2.056414      	((1.017915e-02 -7.086574e-02 1.831330e-03) (5.900212e-05 -1.883834e-02 1.254874e-05)) ((2.457072e-08 -2.802053e-08 5.917659e-07) (5.195260e-07 -1.912708e-08 -5.232813e-06))
2.121925      	((1.158142e-02 -7.047763e-02 2.057554e-03) (6.768532e-05 -1.880564e-02 1.426250e-05)) ((2.698813e-08 -2.841797e-08 5.931574e-07) (5.967653e-07 -2.943503e-08 -5.735207e-06))
2.187443      	((1.323258e-02 -7.008948e-02 2.328396e-03) (7.730309e-05 -1.877544e-02 1.605455e-05)) ((2.997004e-08 -2.902558e-08 5.956936e-07) (6.889418e-07 -3.832979e-08 -6.327281e-06))
2.252961      	((1.513409e-02 -6.975839e-02 2.652555e-03) (8.845562e-05 -1.874735e-02 1.799162e-05)) ((3.377928e-08 -2.956807e-08 5.990740e-07) (7.965680e-07 -4.460758e-08 -7.010465e-06))
2.318476      	((1.729476e-02 -6.952956e-02 3.029866e-03) (1.015463e-04 -1.872165e-02 2.036113e-05)) ((3.806461e-08 -2.986508e-08 6.032503e-07) (9.163863e-07 -4.470237e-08 -7.784090e-06))
2.383982      	((1.976385e-02 -6.938097e-02 3.444344e-03) (1.169380e-04 -1.869866e-02 2.320779e-05)) ((4.232695e-08 -2.991327e-08 6.080353e-07) (1.051307e-06 -3.905323e-08 -8.649159e-06))
2.449475      	((2.255660e-02 -6.930066e-02 3.911060e-03) (1.350075e-04 -1.867855e-02 2.646675e-05)) ((4.687363e-08 -2.932510e-08 6.135171e-07) (1.205457e-06 -3.136294e-08 -9.610967e-06))
2.514948      	((2.571833e-02 -6.929251e-02 4.441447e-03) (1.561007e-04 -1.866165e-02 3.027664e-05)) ((5.150647e-08 -2.857532e-08 6.195340e-07) (1.375553e-06 -2.632063e-08 -1.067898e-05))
2.580395      	((2.927052e-02 -6.937244e-02 5.028137e-03) (1.805101e-04 -1.864841e-02 3.459990e-05)) ((5.671781e-08 -2.797694e-08 6.263074e-07) (1.566650e-06 -1.760155e-08 -1.186546e-05))
2.645812      	((3.327121e-02 -6.955290e-02 5.687089e-03) (2.086314e-04 -1.863912e-02 3.932660e-05)) ((6.258227e-08 -2.724371e-08 6.326977e-07) (1.793951e-06 -2.515923e-09 -1.318137e-05))
2.71119       	((3.775455e-02 -6.982099e-02 6.448792e-03) (2.409913e-04 -1.863392e-02 4.451527e-05)) ((6.915475e-08 -2.646917e-08 6.377552e-07) (2.059729e-06 1.053047e-08 -1.462981e-05))
2.776523      	((4.277274e-02 -7.023826e-02 7.307158e-03) (2.781366e-04 -1.863313e-02 5.048017e-05)) ((7.723273e-08 -2.702819e-08 6.430400e-07) (2.356706e-06 2.248791e-08 -1.622078e-05))
2.841804      	((4.835338e-02 -7.085187e-02 8.270782e-03) (3.206317e-04 -1.863724e-02 5.756172e-05)) ((8.503318e-08 -3.033175e-08 6.499146e-07) (2.672590e-06 3.666203e-08 -1.795896e-05))
2.907024      	((5.455795e-02 -7.164048e-02 9.353911e-03) (3.689296e-04 -1.864710e-02 6.579656e-05)) ((9.367271e-08 -3.502317e-08 6.573129e-07) (3.013318e-06 5.047416e-08 -1.985571e-05))
2.972176      	((6.137343e-02 -7.260819e-02 1.056655e-02) (4.239695e-04 -1.866353e-02 7.559784e-05)) ((1.021556e-07 -3.921831e-08 6.647832e-07) (3.364861e-06 5.805089e-08 -2.188607e-05))
3.03725       	((6.875859e-02 -7.389175e-02 1.187442e-02) (4.865246e-04 -1.868812e-02 8.738295e-05)) ((1.111561e-07 -4.180283e-08 6.702305e-07) (3.706428e-06 5.729095e-08 -2.399659e-05))
3.10224       	((7.667935e-02 -7.552816e-02 1.329138e-02) (5.570861e-04 -1.872145e-02 1.004747e-04)) ((1.223954e-07 -4.433326e-08 6.746444e-07) (4.072854e-06 3.580998e-08 -2.619544e-05))
3.167136      	((8.500307e-02 -7.760553e-02 1.482188e-02) (6.349138e-04 -1.876344e-02 1.144285e-04)) ((1.367231e-07 -5.123322e-08 6.802170e-07) (4.497502e-06 -1.129160e-08 -2.856484e-05))
3.231932      	((9.376999e-02 -8.027735e-02 1.646521e-02) (7.202894e-04 -1.881502e-02 1.288665e-04)) ((1.554828e-07 -6.392354e-08 6.853486e-07) (5.000208e-06 -6.218550e-08 -3.107769e-05))
3.296622      	((1.028184e-01 -8.360710e-02 1.814893e-02) (8.129549e-04 -1.887804e-02 1.447240e-04)) ((1.721542e-07 -7.928352e-08 6.914147e-07) (5.533725e-06 -9.412189e-08 -3.366679e-05))
3.361188      	((1.117901e-01 -8.761786e-02 1.981620e-02) (9.122161e-04 -1.895429e-02 1.628173e-04)) ((1.849678e-07 -9.703812e-08 6.997523e-07) (6.047573e-06 -1.009306e-07 -3.625199e-05))
3.425613      	((1.204501e-01 -9.213113e-02 2.156032e-02) (1.017529e-03 -1.904548e-02 1.836110e-04)) ((1.956314e-07 -1.156603e-07 7.132078e-07) (6.507621e-06 -7.421408e-08 -3.875032e-05))
3.489894      	((1.282029e-01 -9.724625e-02 2.311535e-02) (1.126281e-03 -1.915194e-02 2.062754e-04)) ((2.004575e-07 -1.370426e-07 7.315262e-07) (6.907686e-06 -3.581815e-08 -4.108627e-05))
3.554029      	((1.346321e-01 -1.025141e-01 2.449060e-02) (1.234365e-03 -1.927181e-02 2.289384e-04)) ((2.051891e-07 -1.587128e-07 7.499203e-07) (7.276909e-06 -2.612481e-08 -4.326627e-05))
3.618019      	((1.393994e-01 -1.077266e-01 2.546415e-02) (1.336004e-03 -1.940189e-02 2.492644e-04)) ((2.050767e-07 -1.735326e-07 7.631369e-07) (7.647821e-06 -4.815201e-08 -4.531573e-05))
3.681867      	((1.420387e-01 -1.123971e-01 2.603502e-02) (1.426011e-03 -1.953843e-02 2.662424e-04)) ((2.052279e-07 -1.817357e-07 7.732205e-07) (8.005330e-06 -6.899951e-08 -4.714927e-05))
3.745584      	((1.420511e-01 -1.163747e-01 2.603420e-02) (1.499000e-03 -1.967579e-02 2.806558e-04)) ((1.974900e-07 -1.839866e-07 7.782473e-07) (8.279353e-06 -6.622401e-08 -4.868113e-05))
3.809188      	((1.393358e-01 -1.186832e-01 2.549604e-02) (1.548682e-03 -1.980614e-02 2.920183e-04)) ((1.822661e-07 -1.819618e-07 7.844723e-07) (8.434812e-06 -4.450082e-08 -4.985720e-05))
3.872697      	((1.338480e-01 -1.192451e-01 2.437431e-02) (1.570436e-03 -1.992294e-02 2.988192e-04)) ((1.617507e-07 -1.723028e-07 8.006682e-07) (8.459175e-06 -3.173464e-09 -5.057427e-05))
3.936134      	((1.252672e-01 -1.181326e-01 2.274067e-02) (1.558094e-03 -2.002074e-02 2.994131e-04)) ((1.380712e-07 -1.515435e-07 8.132025e-07) (8.355981e-06 5.189281e-08 -5.086058e-05))
3.999527      	((1.142684e-01 -1.156391e-01 2.065878e-02) (1.507225e-03 -2.009893e-02 2.920030e-04)) ((1.105586e-07 -1.217816e-07 8.052252e-07) (8.176252e-06 1.060352e-07 -5.069967e-05))
4.062905      	((1.022770e-01 -1.119824e-01 1.859420e-02) (1.419289e-03 -2.015826e-02 2.773227e-04)) ((8.862556e-08 -9.497568e-08 7.738291e-07) (7.950911e-06 1.358571e-07 -5.009661e-05))
4.1263        	((9.029906e-02 -1.082179e-01 1.660121e-02) (1.300100e-03 -2.020246e-02 2.573210e-04)) ((6.374178e-08 -7.072151e-08 7.298346e-07) (7.691971e-06 1.344409e-07 -4.920455e-05))
4.18974       	((7.960459e-02 -1.045522e-01 1.488778e-02) (1.156350e-03 -2.023462e-02 2.334668e-04)) ((4.250053e-08 -5.403765e-08 6.781510e-07) (7.462163e-06 1.029073e-07 -4.842040e-05))
4.253251      	((7.142525e-02 -1.009565e-01 1.368087e-02) (1.002136e-03 -2.026175e-02 2.089601e-04)) ((3.556052e-08 -4.230213e-08 6.371816e-07) (7.246837e-06 6.327233e-08 -4.775737e-05))
4.316849      	((6.618676e-02 -9.757922e-02 1.291719e-02) (8.508233e-04 -2.028482e-02 1.853867e-04)) ((4.049883e-08 -3.831959e-08 6.206062e-07) (7.076437e-06 -5.606562e-09 -4.733911e-05))
4.380543      	((6.374395e-02 -9.443019e-02 1.267808e-02) (7.144487e-04 -2.030799e-02 1.649203e-04)) ((5.582955e-08 -4.808151e-08 6.330118e-07) (6.941719e-06 -1.065785e-07 -4.707712e-05))
4.444333      	((6.357748e-02 -9.157659e-02 1.275489e-02) (6.055533e-04 -2.033397e-02 1.484460e-04)) ((7.384093e-08 -7.410673e-08 6.645320e-07) (6.847791e-06 -2.340365e-07 -4.668904e-05))
4.508212      	((6.458192e-02 -8.905782e-02 1.301747e-02) (5.354487e-04 -2.036150e-02 1.373265e-04)) ((9.174953e-08 -1.047214e-07 6.924546e-07) (6.739135e-06 -3.477697e-07 -4.578014e-05))
4.57217       	((6.619781e-02 -8.640862e-02 1.348105e-02) (5.049277e-04 -2.038455e-02 1.318875e-04)) ((1.096440e-07 -1.287591e-07 6.887912e-07) (6.615693e-06 -3.984450e-07 -4.425218e-05))
4.63619       	((6.794138e-02 -8.334599e-02 1.406768e-02) (5.056266e-04 -2.039495e-02 1.312303e-04)) ((1.235192e-07 -1.388946e-07 6.564321e-07) (6.523743e-06 -3.419648e-07 -4.236953e-05))
4.700257      	((6.928378e-02 -8.045773e-02 1.455051e-02) (5.199729e-04 -2.038688e-02 1.331837e-04)) ((1.432798e-07 -1.406609e-07 6.218084e-07) (6.529268e-06 -1.699383e-07 -4.078070e-05))
4.764356      	((7.006718e-02 -7.824831e-02 1.485541e-02) (5.320738e-04 -2.036346e-02 1.360028e-04)) ((1.633818e-07 -1.318544e-07 6.041390e-07) (6.593616e-06 8.482637e-08 -3.990773e-05))
4.828471      	((7.059144e-02 -7.721412e-02 1.509184e-02) (5.388974e-04 -2.033558e-02 1.386023e-04)) ((1.664573e-07 -1.057953e-07 6.111071e-07) (6.669834e-06 3.289084e-07 -3.956959e-05))
4.892591      	((7.059318e-02 -7.761638e-02 1.520538e-02) (5.450648e-04 -2.031233e-02 1.410331e-04)) ((1.551672e-07 -7.812928e-08 6.307829e-07) (6.729187e-06 5.101297e-07 -3.941275e-05))
4.956705      	((6.998322e-02 -7.882845e-02 1.520961e-02) (5.511400e-04 -2.029715e-02 1.436658e-04)) ((1.312046e-07 -4.491041e-08 6.437988e-07) (6.730236e-06 6.387584e-07 -3.928256e-05))
5.020809      	((6.849416e-02 -8.037823e-02 1.492376e-02) (5.564851e-04 -2.029055e-02 1.460127e-04)) ((1.022948e-07 -7.020503e-09 6.379723e-07) (6.661392e-06 7.239267e-07 -3.901952e-05))
5.084899      	((6.623992e-02 -8.163941e-02 1.444497e-02) (5.627459e-04 -2.029103e-02 1.464571e-04)) ((8.256240e-08 1.784570e-08 6.107711e-07) (6.577441e-06 7.660733e-07 -3.843219e-05))
5.148976      	((6.295923e-02 -8.268795e-02 1.367176e-02) (5.538478e-04 -2.029149e-02 1.431799e-04)) ((6.656131e-08 4.041804e-08 5.735314e-07) (6.532465e-06 7.862908e-07 -3.816654e-05))
5.213042      	((5.873483e-02 -8.334578e-02 1.283117e-02) (5.166198e-04 -2.028630e-02 1.361575e-04)) ((6.382740e-08 5.038011e-08 5.409553e-07) (6.516873e-06 7.986593e-07 -3.869289e-05))
5.277107      	((5.429827e-02 -8.374047e-02 1.198311e-02) (4.588878e-04 -2.027611e-02 1.268543e-04)) ((5.866165e-08 5.665722e-08 5.217641e-07) (6.501781e-06 7.995581e-07 -3.966383e-05))
5.34118       	((5.042302e-02 -8.376327e-02 1.133530e-02) (3.948953e-04 -2.026835e-02 1.164577e-04)) ((5.411615e-08 6.154180e-08 5.119048e-07) (6.472182e-06 7.735968e-07 -4.044948e-05))
5.405274      	((4.747827e-02 -8.334518e-02 1.090125e-02) (3.266855e-04 -2.026439e-02 1.054480e-04)) ((6.040655e-08 5.110235e-08 5.204377e-07) (6.454928e-06 7.155444e-07 -4.111700e-05))
5.469399      	((4.584188e-02 -8.255917e-02 1.064088e-02) (2.526979e-04 -2.026063e-02 9.388735e-05)) ((7.310957e-08 3.120993e-08 5.465490e-07) (6.482930e-06 6.060267e-07 -4.204895e-05))
5.53356       	((4.554780e-02 -8.131990e-02 1.066979e-02) (1.853846e-04 -2.025701e-02 8.215929e-05)) ((8.411648e-08 9.051048e-09 5.815130e-07) (6.593869e-06 4.084709e-07 -4.293308e-05))
5.597761      	((4.635746e-02 -7.982181e-02 1.094974e-02) (1.378578e-04 -2.025398e-02 7.269117e-05)) ((9.730784e-08 -1.710017e-08 6.098485e-07) (6.733355e-06 1.265782e-07 -4.330909e-05))
5.662002      	((4.821520e-02 -7.812194e-02 1.141394e-02) (1.171363e-04 -2.025070e-02 6.903910e-05)) ((1.121599e-07 -4.114835e-08 6.206214e-07) (6.769489e-06 -1.471827e-07 -4.297390e-05))
