# Forces      
# CofR        : (0.000000e+00 0.000000e+00 0.000000e+00)
# Time        forces(pressure viscous)	moments(pressure viscous)
0             	((0.000000e+00 0.000000e+00 0.000000e+00) (0.000000e+00 0.000000e+00 0.000000e+00)) ((0.000000e+00 0.000000e+00 0.000000e+00) (0.000000e+00 0.000000e+00 0.000000e+00))
0.012         	((-1.701013e-12 2.848404e-12 6.845376e-10) (-1.655646e-15 1.502634e-14 1.437783e-11)) ((-3.089142e-16 2.662752e-11 -1.411789e-17) (3.516980e-17 1.759048e-08 -1.039700e-15))
0.0264        	((2.858686e-12 -3.024902e-12 -2.573629e-10) (-2.300352e-15 4.251767e-14 2.500197e-11)) ((-6.554951e-17 1.332788e-11 1.296246e-15) (4.774657e-16 1.611150e-08 -1.467894e-15))
0.04368       	((9.977046e-12 1.639417e-11 2.384452e-10) (2.513070e-14 3.189310e-14 2.710159e-11)) ((2.415632e-16 7.349767e-12 8.427492e-16) (-8.012131e-16 1.459163e-08 -2.111968e-15))
0.064416      	((-2.861161e-12 -4.521302e-12 8.965537e-12) (7.810421e-14 -2.355491e-14 2.240654e-11)) ((4.225292e-18 4.182579e-12 -5.877241e-17) (-2.700292e-15 1.306402e-08 -2.746736e-15))
0.0892992     	((8.648808e-12 5.065281e-12 2.989501e-11) (1.136876e-13 -8.031778e-14 1.862212e-11)) ((-6.292397e-17 3.104876e-12 -6.219100e-18) (-3.697898e-15 1.157321e-08 -2.825724e-15))
0.119159      	((-3.395093e-12 -1.347660e-12 7.940288e-12) (1.364290e-13 -1.396803e-13 1.578642e-11)) ((4.247497e-17 2.226944e-12 -1.245660e-17) (-4.944391e-15 1.016505e-08 -3.232349e-15))
0.154991      	((-2.858956e-12 -3.226298e-12 -1.954091e-11) (1.578190e-13 -2.184887e-13 1.271293e-11)) ((-3.926202e-17 1.759016e-12 1.350699e-16) (-6.557221e-15 8.871976e-09 -3.978658e-15))
0.197989      	((-2.282323e-12 -2.174096e-12 2.107925e-12) (1.663010e-13 -2.822539e-13 9.924306e-12)) ((-5.946407e-17 1.397945e-12 1.355503e-16) (-7.396598e-15 7.725574e-09 -4.575245e-15))
0.249587      	((1.504288e-13 -2.231780e-12 -1.892317e-11) (1.648867e-13 -3.177984e-13 7.835338e-12)) ((-9.208490e-17 1.152201e-12 -2.662823e-17) (-7.264637e-15 6.742942e-09 -3.974813e-15))
0.311504      	((-4.072100e-13 5.529275e-13 -3.633826e-12) (1.540352e-13 -3.443835e-13 6.098806e-12)) ((-7.632310e-17 9.589361e-13 -1.359679e-16) (-6.866932e-15 5.921733e-09 -2.700726e-15))
0.385805      	((-1.305239e-12 1.893315e-12 5.641828e-14) (1.487573e-13 -3.535557e-13 4.670857e-12)) ((-2.313730e-17 8.220389e-13 -2.169284e-16) (-6.670773e-15 5.244246e-09 -2.112337e-15))
0.474966      	((-2.467414e-12 -5.088143e-13 3.990871e-12) (1.252768e-13 -3.765010e-13 3.315496e-12)) ((-1.788923e-17 7.320627e-13 -1.713836e-16) (-6.364445e-15 4.683829e-09 -6.179223e-16))
0.581959      	((-3.922218e-12 -2.176233e-12 -4.078019e-12) (8.461700e-14 -3.928189e-13 2.184542e-12)) ((-3.934992e-17 6.556063e-13 -6.436857e-17) (-6.268564e-15 4.212761e-09 1.474426e-15))
0.710351      	((-5.701857e-12 -3.062694e-12 9.352611e-12) (9.870202e-14 -2.806979e-13 1.948695e-12)) ((-1.001125e-16 5.820220e-13 -6.013179e-17) (-5.006179e-15 3.808098e-09 -2.404257e-16))
0.864421      	((-5.899742e-12 -2.579037e-12 4.559505e-12) (1.403580e-13 3.206240e-14 1.840105e-12)) ((-1.378140e-16 5.323988e-13 8.283128e-17) (-2.124036e-15 3.453574e-09 -4.928692e-15))
1.049306      	((-8.675976e-12 -2.484279e-12 -3.276785e-13) (2.124417e-13 3.171866e-13 1.183919e-12)) ((-1.995509e-16 5.007950e-13 7.287419e-17) (1.771719e-15 3.138474e-09 -7.738682e-15))
1.271167      	((-1.139046e-11 -2.032692e-12 9.268351e-12) (3.718290e-13 4.557402e-13 5.226319e-13)) ((-8.164566e-17 4.684100e-13 1.455176e-16) (7.310301e-15 2.855589e-09 -5.893131e-15))
1.5374        	((-1.118341e-11 8.871245e-13 1.098859e-11) (6.402314e-13 5.089975e-13 -3.529438e-13)) ((1.378318e-16 4.307730e-13 2.249197e-16) (1.450930e-14 2.600223e-09 -9.564193e-16))
1.85688       	((-1.100192e-11 -1.324446e-12 7.517460e-12) (9.558061e-13 5.549872e-13 -1.695666e-12)) ((2.701884e-16 3.975937e-13 1.010009e-16) (2.475945e-14 2.369832e-09 9.021260e-15))
2.240256      	((-1.061033e-11 -6.191118e-13 9.288826e-12) (1.409642e-12 4.562947e-13 -2.563868e-12)) ((2.820641e-16 3.761888e-13 7.020030e-17) (3.412036e-14 2.163101e-09 2.226595e-14))
2.700307      	((-1.032195e-11 -1.261572e-13 7.902075e-12) (2.180011e-12 2.912670e-13 -3.048438e-12)) ((2.527065e-16 3.607086e-13 8.977811e-17) (4.960817e-14 1.979097e-09 4.965884e-14))
3.252369      	((-7.620905e-12 -6.809102e-13 5.183797e-12) (3.181351e-12 1.524366e-13 -4.728864e-12)) ((2.947722e-16 3.451956e-13 1.443018e-16) (6.982096e-14 1.816566e-09 8.296982e-14))
3.914842      	((-3.485927e-12 -6.571272e-13 1.490320e-12) (4.190948e-12 -3.449382e-14 -7.436620e-12)) ((1.501578e-16 3.271697e-13 2.411247e-16) (8.435298e-14 1.673608e-09 9.929092e-14))
4.709811      	((-1.596251e-12 -2.685159e-14 -1.294402e-12) (5.302464e-12 -2.790892e-13 -8.490328e-12)) ((1.893585e-16 3.071512e-13 1.961859e-16) (9.640133e-14 1.547568e-09 1.121767e-13))
5.663773      	((1.201246e-13 -5.045922e-13 2.213136e-12) (5.951195e-12 -2.671127e-13 -7.973643e-12)) ((1.849179e-16 2.853870e-13 5.381849e-17) (1.028482e-13 1.435485e-09 1.136872e-13))
6.808528      	((1.654915e-12 -7.887369e-13 5.871880e-13) (5.885836e-12 -9.927963e-14 -7.691736e-12)) ((1.982035e-16 2.631876e-13 -1.009097e-16) (9.907189e-14 1.334724e-09 1.029269e-13))
8.182233      	((2.274591e-12 -1.407084e-14 -2.806151e-13) (5.439579e-12 -1.443972e-13 -7.042858e-12)) ((1.884177e-16 2.415899e-13 -6.936949e-17) (8.696254e-14 1.243247e-09 9.431309e-14))
9.83068       	((2.167794e-12 -9.885061e-13 5.165461e-13) (4.705146e-12 -2.227667e-13 -5.393193e-12)) ((1.318303e-16 2.194564e-13 -7.589311e-17) (7.093016e-14 1.159509e-09 8.218379e-14))
11.808816     	((6.031839e-14 -3.565189e-13 2.189217e-12) (3.662822e-12 1.053204e-14 -3.372198e-12)) ((1.205592e-16 1.995468e-13 -1.383356e-16) (5.708361e-14 1.082434e-09 6.228304e-14))
14.182579     	((-5.565457e-13 -3.924793e-13 2.897083e-12) (2.601159e-12 4.873267e-13 -2.285063e-12)) ((9.033373e-17 1.813455e-13 -1.744204e-16) (4.405643e-14 1.011407e-09 3.370100e-14))
17.031095     	((-8.524001e-13 -5.438421e-13 2.323861e-12) (1.776525e-12 6.141031e-13 -1.541299e-12)) ((1.621308e-17 1.657101e-13 -2.001914e-16) (3.054648e-14 9.461051e-10 1.564648e-14))
20.449314     	((-8.749118e-13 -2.332109e-13 3.100075e-12) (1.129050e-12 4.036569e-13 -9.223772e-13)) ((8.412686e-18 1.518639e-13 -2.338244e-16) (1.840910e-14 8.863203e-10 1.045292e-14))
24.551176     	((-7.431368e-13 1.328866e-13 2.895145e-12) (7.338929e-13 2.049735e-13 -7.968128e-13)) ((1.019388e-17 1.395299e-13 -2.421694e-16) (9.806483e-15 8.316918e-10 7.949935e-15))
29.473411     	((-7.562359e-13 -6.603960e-14 3.183079e-12) (5.093059e-13 8.531637e-14 -9.689549e-13)) ((-2.100125e-17 1.292121e-13 -2.237531e-16) (6.696047e-15 7.818366e-10 6.293830e-15))
35.380094     	((-1.160377e-12 -3.846166e-14 2.906805e-12) (4.109708e-13 -2.780950e-14 -1.143869e-12)) ((-1.890847e-17 1.200611e-13 -2.142576e-16) (5.120142e-15 7.363484e-10 5.039986e-15))
42.468112     	((-8.059187e-13 2.055689e-14 2.560085e-12) (4.023023e-13 -8.314904e-14 -1.225753e-12)) ((-7.302331e-18 1.121948e-13 -1.647092e-16) (4.878430e-15 6.948401e-10 5.506709e-15))
50.973735     	((-5.280107e-13 5.944048e-14 2.274208e-12) (4.518155e-13 -1.258589e-13 -1.133645e-12)) ((1.167224e-17 1.052025e-13 -1.259702e-16) (5.614552e-15 6.569986e-10 7.849530e-15))
61.180482     	((-8.285493e-13 5.973180e-14 1.918585e-12) (4.770283e-13 -1.547627e-13 -9.982710e-13)) ((-5.258077e-18 9.891020e-14 -1.128497e-16) (7.728138e-15 6.225483e-10 1.192234e-14))
73.428578     	((-3.704600e-13 2.461976e-14 1.537592e-12) (5.284900e-13 -1.524743e-13 -9.445416e-13)) ((-2.473286e-17 9.329752e-14 -9.072358e-17) (1.042621e-14 5.912651e-10 1.420680e-14))
88.126294     	((-3.398381e-13 -9.195955e-15 1.802001e-12) (5.863337e-13 -1.474143e-13 -1.002948e-12)) ((-4.141683e-17 8.825171e-14 -5.891279e-17) (1.281270e-14 5.629107e-10 1.642675e-14))
105.763553    	((-1.319415e-13 -5.126654e-14 1.550410e-12) (6.419011e-13 -1.426586e-13 -1.091319e-12)) ((-5.142105e-17 8.347043e-14 -3.195439e-17) (1.452621e-14 5.372597e-10 1.816498e-14))
126.928263    	((-1.970317e-14 -1.094283e-13 1.272704e-12) (6.814771e-13 -1.437173e-13 -1.078399e-12)) ((-5.969599e-17 7.912885e-14 -1.612301e-17) (1.476906e-14 5.140732e-10 1.906883e-14))
152.325916    	((1.184067e-13 -9.731442e-14 8.916579e-13) (6.902511e-13 -1.357209e-13 -1.040890e-12)) ((-5.607588e-17 7.526838e-14 -1.336492e-17) (1.476682e-14 4.931067e-10 1.954849e-14))
182.803099    	((4.159759e-14 -3.291181e-14 4.886866e-13) (6.797214e-13 -1.423025e-13 -1.079288e-12)) ((-4.636488e-17 7.176231e-14 -1.484666e-17) (1.505320e-14 4.741121e-10 1.983890e-14))
219.375719    	((8.141024e-14 -4.508197e-14 2.902650e-13) (6.741549e-13 -1.224722e-13 -1.220380e-12)) ((-3.874082e-17 6.858811e-14 -1.297664e-17) (1.587943e-14 4.568607e-10 1.925372e-14))
263.262863    	((1.559514e-13 -1.542605e-14 6.002342e-14) (6.701214e-13 -9.285336e-14 -1.474958e-12)) ((-3.208618e-17 6.570991e-14 -1.001731e-17) (1.707022e-14 4.411683e-10 1.821169e-14))
315.927436    	((2.119825e-13 1.253529e-15 -8.298485e-14) (6.512263e-13 -7.042314e-14 -1.691405e-12)) ((-1.785734e-17 6.311310e-14 -5.312270e-18) (1.798730e-14 4.268894e-10 1.749647e-14))
379.124923    	((2.408484e-13 3.336766e-14 -1.791120e-13) (6.649863e-13 -6.338583e-14 -1.886408e-12)) ((-7.654105e-18 6.073036e-14 3.686007e-18) (1.837902e-14 4.139098e-10 1.705957e-14))
454.961908    	((3.655452e-13 -9.972559e-18 -2.296686e-13) (6.721788e-13 -6.871856e-14 -2.039202e-12)) ((-2.833815e-18 5.854831e-14 1.162009e-17) (1.861966e-14 4.021400e-10 1.651348e-14))
545.966289    	((2.922018e-13 5.600825e-15 -2.254641e-13) (6.578451e-13 -7.665841e-14 -2.133821e-12)) ((-1.067650e-18 5.654553e-14 1.844579e-17) (1.822841e-14 3.914950e-10 1.603732e-14))
655.171547    	((1.591308e-13 5.231857e-14 -2.099116e-13) (6.250845e-13 -6.749448e-14 -2.171484e-12)) ((1.311919e-19 5.473592e-14 2.371301e-17) (1.748782e-14 3.818978e-10 1.512776e-14))
786.217856    	((1.620002e-13 9.615054e-14 -2.269437e-13) (5.993632e-13 -5.805698e-14 -2.158642e-12)) ((2.653788e-18 5.310495e-14 2.721139e-17) (1.649186e-14 3.732854e-10 1.434192e-14))
943.473427    	((1.936529e-13 8.994797e-14 -9.491797e-14) (5.893828e-13 -4.909763e-14 -2.119704e-12)) ((4.166808e-18 5.166411e-14 2.633612e-17) (1.561543e-14 3.655938e-10 1.407478e-14))
1132.180113   	((2.190067e-13 5.806490e-14 -3.960509e-14) (5.616644e-13 -3.400358e-14 -2.062221e-12)) ((5.399359e-18 5.039227e-14 2.122698e-17) (1.453711e-14 3.587559e-10 1.384311e-14))
1358.628135   	((2.243166e-13 1.809009e-14 -3.076279e-14) (5.431444e-13 -2.409062e-14 -1.987194e-12)) ((5.302643e-18 4.926138e-14 1.440085e-17) (1.349381e-14 3.527112e-10 1.356208e-14))
1630.365763   	((2.121068e-13 1.570071e-14 -1.309768e-14) (5.403221e-13 -1.453279e-14 -1.922644e-12)) ((6.326292e-18 4.825319e-14 9.044475e-18) (1.263572e-14 3.473973e-10 1.308906e-14))
1956.450915   	((1.755038e-13 3.617449e-14 -3.072181e-14) (5.409094e-13 -8.939583e-15 -1.885209e-12)) ((7.779809e-18 4.738549e-14 3.571030e-18) (1.191997e-14 3.427542e-10 1.227828e-14))
2347.753098   	((1.951909e-13 5.147069e-14 -4.518179e-14) (5.415594e-13 -5.190759e-15 -1.855261e-12)) ((9.274312e-18 4.663438e-14 -1.471659e-19) (1.137416e-14 3.387203e-10 1.130262e-14))
2817.315718   	((2.380824e-13 6.191206e-14 -4.669573e-15) (5.398049e-13 -6.058705e-15 -1.830252e-12)) ((9.634146e-18 4.599411e-14 -3.233260e-19) (1.094258e-14 3.352363e-10 1.042138e-14))
3380.790861   	((2.766306e-13 8.227649e-14 3.714986e-14) (5.315101e-13 -3.645275e-15 -1.818719e-12)) ((7.404985e-18 4.544950e-14 1.295965e-18) (1.055417e-14 3.322471e-10 9.605903e-15))
4056.961033   	((3.032136e-13 1.154070e-13 8.485337e-14) (5.165414e-13 -3.290979e-15 -1.810938e-12)) ((5.682657e-18 4.498364e-14 3.504187e-18) (1.000240e-14 3.297003e-10 8.991599e-15))
4868.36524    	((3.264463e-13 1.595693e-13 1.360207e-13) (5.038806e-13 -5.740516e-15 -1.800530e-12)) ((7.230287e-18 4.458819e-14 2.607528e-18) (9.597741e-15 3.275459e-10 8.475260e-15))
5842.050288   	((3.619278e-13 1.957340e-13 1.751408e-13) (4.966233e-13 -6.732735e-15 -1.790560e-12)) ((6.345896e-18 4.425480e-14 6.917972e-19) (9.327071e-15 3.257366e-10 8.021614e-15))
7010.472346   	((3.896164e-13 2.254749e-13 1.957762e-13) (4.962417e-13 -1.463346e-15 -1.780716e-12)) ((3.737947e-18 4.397635e-14 -2.524155e-18) (9.077513e-15 3.242284e-10 7.489563e-15))
8412.578815   	((4.076904e-13 2.365007e-13 1.859549e-13) (5.011277e-13 6.820070e-15 -1.775011e-12)) ((-8.683935e-19 4.374358e-14 -5.588531e-18) (8.970862e-15 3.229799e-10 6.866068e-15))
10095.106578  	((4.197170e-13 2.355821e-13 1.649346e-13) (4.972771e-13 9.969773e-15 -1.770946e-12)) ((-2.491111e-18 4.355175e-14 -7.607513e-18) (8.695199e-15 3.219534e-10 6.541852e-15))
12114.139893  	((4.422419e-13 2.290364e-13 1.431646e-13) (4.917532e-13 1.028090e-14 -1.767044e-12)) ((-3.988798e-18 4.339480e-14 -8.984066e-18) (8.383620e-15 3.211147e-10 6.305398e-15))
14536.979872  	((4.865724e-13 2.193492e-13 1.057907e-13) (4.842186e-13 9.281079e-15 -1.764085e-12)) ((-4.991626e-18 4.326654e-14 -1.058586e-17) (8.070720e-15 3.204333e-10 6.116850e-15))
17444.387847  	((5.796495e-13 1.765655e-13 4.238131e-14) (4.716937e-13 5.951521e-15 -1.759829e-12)) ((-8.130371e-18 4.315927e-14 -1.017423e-17) (7.869333e-15 3.198822e-10 6.098605e-15))
20933.277416  	((6.783571e-13 2.135387e-13 1.522462e-14) (4.587934e-13 6.675054e-15 -1.754836e-12)) ((-4.306581e-18 4.307343e-14 -1.344634e-17) (7.596958e-15 3.194388e-10 5.743674e-15))
25119.944899  	((7.667078e-13 2.078798e-13 5.050836e-14) (4.552074e-13 8.093788e-15 -1.749734e-12)) ((-4.978940e-18 4.300876e-14 -1.396159e-17) (7.338721e-15 3.190837e-10 5.521906e-15))
30117.675445  	((8.466157e-13 2.038018e-13 8.488682e-14) (4.545217e-13 8.020922e-15 -1.744716e-12)) ((-5.309254e-18 4.295654e-14 -1.431239e-17) (7.173117e-15 3.188003e-10 5.351935e-15))
35926.478674  	((9.147228e-13 1.987724e-13 1.150835e-13) (4.548554e-13 7.768540e-15 -1.739959e-12)) ((-5.628504e-18 4.291518e-14 -1.457399e-17) (7.074387e-15 3.185749e-10 5.218345e-15))
42546.36215   	((9.736870e-13 1.993280e-13 1.470239e-13) (4.561538e-13 8.193992e-15 -1.734887e-12)) ((-5.861249e-18 4.288258e-14 -1.499540e-17) (7.038436e-15 3.183960e-10 5.114020e-15))
49977.331819  	((1.035803e-12 2.197661e-13 1.765732e-13) (4.588447e-13 9.714533e-15 -1.727792e-12)) ((-5.587207e-18 4.285594e-14 -1.662155e-17) (7.096028e-15 3.182543e-10 5.000985e-15))
58088.240379  	((1.073761e-12 2.352660e-13 2.137937e-13) (4.606946e-13 1.072455e-14 -1.722344e-12)) ((-5.562712e-18 4.283585e-14 -1.719128e-17) (7.088300e-15 3.181424e-10 4.896434e-15))
66199.185334  	((1.085947e-12 2.577103e-13 2.129599e-13) (4.633545e-13 1.278916e-14 -1.720005e-12)) ((-4.962260e-18 4.281028e-14 -1.793460e-17) (7.071830e-15 3.180544e-10 4.880499e-15))
74310.158561  	((1.077652e-12 2.830859e-13 2.341982e-13) (4.573734e-13 1.449771e-14 -1.717199e-12)) ((-5.064388e-18 4.280316e-14 -1.714327e-17) (7.061895e-15 3.179848e-10 4.859141e-15))
82421.153898  	((1.046222e-12 3.126935e-13 2.681356e-13) (4.543738e-13 1.631262e-14 -1.711871e-12)) ((-4.707084e-18 4.279185e-14 -1.666736e-17) (7.037846e-15 3.179301e-10 4.844891e-15))
90532.166481  	((9.890984e-13 2.793420e-13 2.800501e-13) (4.538063e-13 1.475513e-14 -1.707588e-12)) ((-3.083641e-18 4.275682e-14 -1.880135e-17) (6.972528e-15 3.178876e-10 4.921868e-15))
98643.192507  	((9.209351e-13 3.039884e-13 3.803699e-13) (4.489092e-13 1.131935e-14 -1.699029e-12)) ((-7.026181e-18 4.273826e-14 -8.220638e-18) (7.018200e-15 3.178541e-10 4.621033e-15))
106754.22908  	((8.060698e-13 3.597388e-13 5.008794e-13) (4.252133e-13 9.223217e-15 -1.688485e-12)) ((-5.612524e-18 4.271243e-14 -7.552026e-18) (6.923202e-15 3.178286e-10 4.576073e-15))
114865.274012 	((7.377001e-13 4.015372e-13 5.475948e-13) (4.208780e-13 1.223770e-14 -1.681407e-12)) ((-2.933817e-18 4.266929e-14 -1.315053e-17) (6.961708e-15 3.178094e-10 4.587164e-15))
122976.325599 	((6.803847e-13 4.429913e-13 6.104724e-13) (4.281046e-13 1.495347e-14 -1.666283e-12)) ((-2.628872e-18 4.265659e-14 -1.030237e-17) (6.878908e-15 3.177944e-10 4.889436e-15))
131087.382519 	((7.031850e-13 4.567823e-13 6.815636e-13) (4.347246e-13 1.643401e-14 -1.648676e-12)) ((-3.402151e-18 4.264447e-14 -7.683950e-18) (6.682414e-15 3.177824e-10 4.913789e-15))
139198.443801 	((6.972287e-13 5.079015e-13 7.475857e-13) (4.398306e-13 1.122827e-14 -1.642860e-12)) ((-1.224291e-17 4.261376e-14 -4.739569e-18) (6.961633e-15 3.177724e-10 4.786876e-15))
147309.508695 	((5.640700e-13 5.326286e-13 8.029937e-13) (4.428186e-13 1.594079e-14 -1.645698e-12)) ((-7.556097e-19 4.258778e-14 -5.133511e-18) (7.011981e-15 3.177648e-10 4.957076e-15))
155420.576416 	((7.592864e-13 5.821709e-13 8.569034e-13) (4.494502e-13 1.265233e-14 -1.644427e-12)) ((-1.823293e-19 4.256681e-14 -2.710962e-18) (6.986481e-15 3.177583e-10 4.901339e-15))
163531.646491 	((9.709828e-13 6.559495e-13 8.795280e-13) (4.457108e-13 1.462212e-14 -1.655876e-12)) ((-1.917991e-18 4.256373e-14 -4.633534e-18) (6.884470e-15 3.177522e-10 5.004062e-15))
171642.718621 	((1.278619e-12 7.907164e-13 9.955093e-13) (4.572734e-13 1.432951e-14 -1.657853e-12)) ((1.385358e-18 4.255161e-14 -4.314003e-18) (6.919592e-15 3.177467e-10 4.869061e-15))
179753.79229  	((1.614998e-12 8.689750e-13 1.100962e-12) (4.616439e-13 1.799762e-14 -1.650600e-12)) ((2.777471e-20 4.253833e-14 -4.844195e-18) (6.779474e-15 3.177410e-10 4.989278e-15))
187864.867255 	((1.897511e-12 1.008277e-12 1.190683e-12) (4.766570e-13 1.874313e-14 -1.651931e-12)) ((4.698087e-18 4.251136e-14 -3.850080e-18) (6.794351e-15 3.177357e-10 4.861098e-15))
