# Forces      
# CofR        : (0.000000e+00 0.000000e+00 0.000000e+00)
# Time        forces(pressure viscous)	moments(pressure viscous)
0             	((0.000000e+00 0.000000e+00 0.000000e+00) (0.000000e+00 0.000000e+00 0.000000e+00)) ((0.000000e+00 0.000000e+00 0.000000e+00) (0.000000e+00 0.000000e+00 0.000000e+00))
0.012         	((-2.766763e-11 3.572518e-11 -7.031002e-11) (4.554220e-14 6.764960e-14 4.627313e-13)) ((3.176917e-10 -3.032521e-14 -6.208559e-16) (2.214500e-07 2.425742e-14 -1.016877e-14))
0.0264        	((3.170715e-11 6.252896e-11 -1.269036e-10) (-3.043261e-13 -5.231229e-13 4.036568e-13)) ((1.568057e-10 -2.380387e-14 6.140183e-15) (2.028350e-07 4.181855e-14 -9.997740e-15))
0.04368       	((-1.392475e-10 -9.380803e-11 -1.483582e-10) (3.315694e-13 -1.610550e-12 1.427916e-13)) ((8.666789e-11 -1.982318e-14 6.871801e-15) (1.837060e-07 2.309145e-14 1.754488e-14))
0.064416      	((5.071709e-11 -5.085495e-12 -3.357633e-11) (2.229611e-12 -2.403628e-12 -2.728680e-13)) ((4.862265e-11 -1.337928e-14 -2.537832e-15) (1.644811e-07 -2.346106e-14 4.583870e-14))
0.0892992     	((-2.115087e-11 -2.609362e-11 -7.777835e-12) (4.173194e-12 -2.671371e-12 -8.503315e-13)) ((3.658249e-11 -1.303019e-14 1.780871e-15) (1.457217e-07 -6.874415e-14 6.174754e-14))
0.119159      	((-1.467367e-11 -4.406770e-11 -1.116453e-10) (5.368288e-12 -2.473492e-12 -1.349167e-12)) ((2.619674e-11 -9.308739e-15 -3.407697e-16) (1.280072e-07 -9.401767e-14 6.602298e-14))
0.154991      	((3.070031e-11 5.369797e-11 3.238753e-11) (5.886084e-12 -2.142861e-12 -1.520277e-12)) ((2.080064e-11 -7.358697e-15 -7.490475e-16) (1.117465e-07 -1.020538e-13 5.771129e-14))
0.197989      	((3.133220e-11 6.946831e-12 -3.328476e-11) (6.222666e-12 -1.776112e-12 -1.553162e-12)) ((1.655326e-11 -3.239383e-15 -7.155402e-16) (9.733187e-08 -1.015717e-13 4.745327e-14))
0.249587      	((1.872364e-11 1.152152e-11 -3.266615e-11) (5.791516e-12 -1.635235e-12 -1.581908e-12)) ((1.371516e-11 -2.120863e-15 -1.496460e-15) (8.497285e-08 -9.514854e-14 4.290797e-14))
0.311504      	((1.631134e-11 3.023520e-11 -4.235069e-11) (5.060940e-12 -1.736570e-12 -1.292562e-12)) ((1.146563e-11 -2.893447e-15 -3.930611e-16) (7.463826e-08 -8.701536e-14 4.455025e-14))
0.385805      	((-1.782164e-11 3.786748e-11 -5.486176e-11) (4.780366e-12 -1.624465e-12 -1.130865e-12)) ((9.877802e-12 -3.006736e-15 1.018660e-15) (6.610601e-08 -8.806211e-14 4.219038e-14))
0.474966      	((-6.228816e-12 4.980540e-11 -5.634325e-11) (4.261894e-12 -1.142384e-12 -2.049502e-12)) ((8.830688e-12 -1.718062e-15 1.499448e-15) (5.904181e-08 -1.119984e-13 3.814111e-14))
0.581959      	((3.318123e-11 7.389334e-11 -1.936377e-11) (4.553366e-12 7.245902e-14 -2.895009e-12)) ((7.915800e-12 -2.119285e-15 2.406372e-15) (5.309968e-08 -1.405639e-13 4.756825e-14))
0.710351      	((2.877380e-11 8.650010e-11 -6.629515e-11) (4.538229e-12 2.445526e-13 -2.775179e-12)) ((7.001803e-12 -2.762492e-15 2.962249e-15) (4.799390e-08 -1.534365e-13 7.262113e-14))
0.864421      	((3.717084e-11 1.047071e-10 -3.490708e-11) (3.240946e-12 -1.153139e-12 -1.838118e-12)) ((6.382309e-12 -4.403037e-15 3.639622e-15) (4.352135e-08 -1.428070e-13 1.066258e-13))
1.049306      	((2.330691e-11 1.113436e-10 -6.517924e-11) (2.940808e-12 -2.214642e-12 -9.208220e-13)) ((5.975337e-12 -4.846569e-15 3.293157e-15) (3.954674e-08 -1.112382e-13 1.232104e-13))
1.271167      	((-1.850624e-11 1.418503e-10 -8.134657e-11) (2.678022e-12 -3.422071e-12 1.915964e-14)) ((5.569657e-12 -3.997005e-15 2.760385e-15) (3.597924e-08 -7.200641e-14 1.571874e-13))
1.5374        	((-1.765539e-11 1.324597e-10 -1.166467e-10) (1.718836e-12 -5.412446e-12 2.028329e-12)) ((5.105773e-12 -1.177836e-15 1.961985e-15) (3.275959e-08 -4.064669e-14 2.591642e-13))
1.85688       	((1.410139e-11 1.327868e-10 -1.100200e-10) (-8.197267e-13 -9.583592e-12 5.652334e-12)) ((4.687657e-12 -1.231312e-16 1.109810e-15) (2.985560e-08 5.211837e-14 3.870754e-13))
2.240256      	((-2.406192e-12 1.441318e-10 -1.067927e-10) (-1.840617e-13 -1.570433e-11 1.207003e-11)) ((4.424549e-12 1.623952e-15 -6.107655e-16) (2.725077e-08 2.059408e-13 5.516852e-13))
2.700307      	((1.134825e-11 1.243689e-10 -8.821527e-11) (6.001843e-13 -2.518476e-11 2.174424e-11)) ((4.240098e-12 2.403926e-15 -1.592908e-15) (2.493333e-08 3.771954e-13 8.293421e-13))
3.252369      	((-4.120710e-12 8.247896e-11 -8.946494e-11) (-1.474361e-12 -3.919058e-11 3.270815e-11)) ((4.059674e-12 3.816536e-15 -2.511029e-15) (2.288703e-08 5.980501e-13 1.129706e-12))
3.914842      	((5.420572e-12 3.446623e-11 -5.780136e-11) (-2.388656e-12 -5.166260e-11 4.320684e-11)) ((3.851788e-12 3.104104e-15 -1.763656e-15) (2.108728e-08 7.858278e-13 1.320934e-12))
4.709811      	((-1.010153e-13 1.340507e-11 -1.686307e-11) (-6.989511e-13 -6.263888e-11 5.461778e-11)) ((3.615559e-12 3.032207e-15 -7.770514e-16) (1.950038e-08 9.332764e-13 1.421970e-12))
5.663773      	((4.135245e-12 4.115529e-12 2.059522e-11) (3.244379e-13 -7.103123e-11 6.377629e-11)) ((3.356422e-12 3.132529e-15 -4.855317e-16) (1.808916e-08 1.046121e-12 1.457588e-12))
6.808528      	((8.558141e-12 -9.714369e-12 3.339395e-11) (-6.231808e-13 -7.237742e-11 6.601663e-11)) ((3.093975e-12 3.284563e-15 -1.407344e-15) (1.682061e-08 1.026494e-12 1.449217e-12))
8.182233      	((7.657660e-12 -2.165960e-11 4.590827e-11) (-3.235459e-12 -6.840102e-11 6.232932e-11)) ((2.839197e-12 2.308387e-15 -2.088371e-15) (1.566844e-08 9.064205e-13 1.343205e-12))
9.83068       	((8.245107e-12 -2.329477e-11 2.871094e-11) (-8.391904e-12 -5.771347e-11 5.275957e-11)) ((2.584733e-12 2.530577e-15 -2.888373e-15) (1.461374e-08 7.550376e-13 1.090877e-12))
11.808816     	((-2.636740e-12 1.094705e-11 1.790761e-11) (-1.232682e-11 -4.394083e-11 4.190531e-11)) ((2.355029e-12 2.836830e-15 -3.220788e-15) (1.364320e-08 6.591816e-13 7.876247e-13))
14.182579     	((4.175931e-12 -1.839288e-12 -1.721289e-11) (-1.484433e-11 -3.159293e-11 3.176459e-11)) ((2.142287e-12 2.122031e-15 -3.686476e-15) (1.274880e-08 5.529422e-13 5.008974e-13))
17.031095     	((7.866890e-12 9.048880e-12 -2.300035e-12) (-1.363251e-11 -2.213445e-11 2.245731e-11)) ((1.961508e-12 1.095387e-15 -3.734588e-15) (1.192616e-08 4.197133e-13 2.801441e-13))
20.449314     	((1.228805e-11 5.298735e-12 -1.330785e-11) (-1.036262e-11 -1.579063e-11 1.536585e-11)) ((1.800647e-12 5.579265e-16 -3.503429e-15) (1.117245e-08 2.879046e-13 1.641619e-13))
24.551176     	((3.930795e-12 1.659383e-11 -1.081290e-11) (-7.231334e-12 -1.150826e-11 1.069057e-11)) ((1.658577e-12 3.421091e-16 -3.346106e-15) (1.048373e-08 1.840565e-13 1.099816e-13))
29.473411     	((8.633165e-12 2.367453e-11 5.910757e-12) (-4.761002e-12 -8.304536e-12 9.047584e-12)) ((1.537348e-12 -9.940362e-17 -2.990135e-15) (9.855758e-09 1.376014e-13 8.905370e-14))
35.380094     	((5.326979e-12 2.160154e-11 -6.994899e-12) (-3.807573e-12 -6.402297e-12 7.800922e-12)) ((1.430446e-12 -4.576497e-16 -2.567285e-15) (9.283364e-09 1.091020e-13 8.565350e-14))
42.468112     	((1.960309e-12 1.721682e-11 -4.631150e-12) (-4.531600e-12 -5.667269e-12 7.628950e-12)) ((1.336782e-12 -5.344708e-16 -2.299147e-15) (8.761622e-09 8.561208e-14 9.952968e-14))
50.973735     	((3.806736e-12 1.561559e-11 -4.169461e-12) (-4.111239e-12 -5.698084e-12 7.924110e-12)) ((1.252296e-12 -6.925923e-16 -2.014167e-15) (8.286148e-09 7.658231e-14 1.192420e-13))
61.180482     	((4.214909e-13 1.055636e-11 -3.271527e-12) (-3.572201e-12 -6.166026e-12 8.628929e-12)) ((1.176843e-12 -8.087550e-16 -1.787063e-15) (7.853119e-09 9.185148e-14 1.301255e-13))
73.428578     	((3.240921e-12 7.776121e-12 -1.640861e-12) (-3.162718e-12 -6.739294e-12 8.891876e-12)) ((1.110513e-12 -7.967234e-16 -1.652770e-15) (7.459580e-09 1.100656e-13 1.485960e-13))
88.126294     	((5.470667e-12 9.773643e-12 5.029603e-12) (-3.460126e-12 -6.821334e-12 9.511496e-12)) ((1.050556e-12 -7.068697e-16 -1.486562e-15) (7.102625e-09 1.227059e-13 1.638061e-13))
105.763553    	((3.902614e-12 5.406313e-12 4.955768e-12) (-3.997139e-12 -6.936133e-12 1.004417e-11)) ((9.964519e-13 -7.116483e-16 -1.300530e-15) (6.779443e-09 1.323904e-13 1.772082e-13))
126.928263    	((3.328697e-12 3.360092e-12 4.056250e-12) (-4.934745e-12 -7.037558e-12 9.830212e-12)) ((9.479081e-13 -6.774879e-16 -1.182973e-15) (6.486934e-09 1.392442e-13 1.779138e-13))
152.325916    	((3.221874e-12 7.540857e-13 3.346700e-12) (-5.456537e-12 -7.241688e-12 9.459323e-12)) ((9.040636e-13 -5.644768e-16 -1.212247e-15) (6.222121e-09 1.370825e-13 1.784395e-13))
182.803099    	((2.635913e-12 -6.721793e-13 2.678905e-12) (-4.669426e-12 -7.413708e-12 9.248462e-12)) ((8.646899e-13 -4.798608e-16 -1.208253e-15) (5.982119e-09 1.349843e-13 1.833226e-13))
219.375719    	((3.132137e-12 -3.279632e-12 1.775514e-12) (-3.733048e-12 -7.658330e-12 9.336097e-12)) ((8.287894e-13 -4.967199e-16 -1.109581e-15) (5.764210e-09 1.392573e-13 1.825750e-13))
263.262863    	((5.074518e-12 -6.390048e-12 1.189547e-12) (-1.911779e-12 -8.175110e-12 9.403991e-12)) ((7.956199e-13 -4.893575e-16 -1.008158e-15) (5.566240e-09 1.469925e-13 1.794131e-13))
315.927436    	((5.793566e-12 -7.630685e-12 1.728482e-12) (-8.394749e-13 -8.618132e-12 9.237890e-12)) ((7.653336e-13 -4.955279e-16 -9.070673e-16) (5.386451e-09 1.526506e-13 1.808607e-13))
379.124923    	((4.217444e-12 -7.321717e-12 1.860508e-12) (-1.433638e-13 -8.621898e-12 8.837114e-12)) ((7.368651e-13 -4.887366e-16 -8.282452e-16) (5.223371e-09 1.466738e-13 1.868809e-13))
454.961908    	((5.438189e-12 -6.812591e-12 2.074198e-12) (9.904367e-13 -8.554975e-12 8.339029e-12)) ((7.110217e-13 -4.591985e-16 -7.633165e-16) (5.075659e-09 1.395930e-13 1.935409e-13))
545.966289    	((5.764661e-12 -6.101498e-12 2.582554e-12) (1.470671e-12 -8.404663e-12 7.977583e-12)) ((6.880005e-13 -4.567350e-16 -7.354678e-16) (4.942191e-09 1.391125e-13 1.935566e-13))
655.171547    	((4.935985e-12 -4.948768e-12 3.438047e-12) (9.745617e-13 -8.199608e-12 7.733729e-12)) ((6.677349e-13 -4.502684e-16 -7.524463e-16) (4.822047e-09 1.385111e-13 1.877768e-13))
786.217856    	((4.473313e-12 -3.730912e-12 3.541956e-12) (3.106615e-13 -7.880720e-12 7.526044e-12)) ((6.499908e-13 -3.958408e-16 -7.661552e-16) (4.714400e-09 1.353454e-13 1.802488e-13))
943.473427    	((4.426930e-12 -2.686728e-12 3.917270e-12) (-1.656663e-13 -7.423906e-12 7.215044e-12)) ((6.341946e-13 -3.609584e-16 -7.847632e-16) (4.618380e-09 1.318081e-13 1.663090e-13))
1132.180113   	((3.834972e-12 -2.234181e-12 3.945584e-12) (-5.001630e-13 -6.969095e-12 6.804053e-12)) ((6.201052e-13 -3.219058e-16 -7.876450e-16) (4.533098e-09 1.224047e-13 1.526162e-13))
1358.628135   	((2.708587e-12 -2.146475e-12 3.392501e-12) (-9.101651e-13 -6.533778e-12 6.282725e-12)) ((6.075862e-13 -2.766843e-16 -7.838504e-16) (4.457708e-09 1.092041e-13 1.432418e-13))
1630.365763   	((2.014460e-12 -2.385437e-12 2.586037e-12) (-1.277749e-12 -6.204596e-12 5.805486e-12)) ((5.963949e-13 -2.809261e-16 -7.493442e-16) (4.391404e-09 1.009621e-13 1.349905e-13))
1956.450915   	((2.212637e-12 -2.660224e-12 1.448089e-12) (-1.377101e-12 -5.923401e-12 5.369463e-12)) ((5.868479e-13 -2.980799e-16 -7.088202e-16) (4.333377e-09 9.677354e-14 1.270543e-13))
2346.891888   	((9.853485e-13 -3.059641e-12 1.163724e-13) (-1.374295e-12 -5.760074e-12 4.927877e-12)) ((5.786285e-13 -2.957256e-16 -6.791613e-16) (4.282855e-09 9.306597e-14 1.186957e-13))
2801.693575   	((7.211201e-13 -3.130998e-12 -8.115181e-13) (-1.098167e-12 -5.698093e-12 4.544739e-12)) ((5.716719e-13 -3.263481e-16 -6.534749e-16) (4.239186e-09 8.860703e-14 1.104659e-13))
3320.861096   	((1.165020e-12 -3.266525e-12 -1.078309e-12) (-6.929654e-13 -5.657457e-12 4.238812e-12)) ((5.658694e-13 -3.282383e-16 -6.439811e-16) (4.201696e-09 8.457333e-14 1.031036e-13))
3904.399516   	((9.358529e-13 -3.426805e-12 -1.451316e-12) (-2.828795e-13 -5.599742e-12 4.023801e-12)) ((5.608917e-13 -3.198374e-16 -6.388200e-16) (4.169717e-09 8.147548e-14 9.727525e-14))
4548.156583   	((3.118969e-13 -3.522143e-12 -1.394360e-12) (-9.339423e-16 -5.516537e-12 3.856705e-12)) ((5.566526e-13 -3.213943e-16 -6.403828e-16) (4.142580e-09 7.929346e-14 9.193146e-14))
5191.958092   	((-3.498890e-13 -3.720065e-12 -1.590576e-12) (1.808166e-13 -5.412599e-12 3.717380e-12)) ((5.530988e-13 -3.205540e-16 -6.393936e-16) (4.119762e-09 7.798661e-14 8.689685e-14))
5835.798333   	((-8.722988e-13 -3.845863e-12 -1.740559e-12) (3.666291e-13 -5.306613e-12 3.627844e-12)) ((5.500844e-13 -3.177008e-16 -6.361056e-16) (4.100659e-09 7.680990e-14 8.228906e-14))
6479.673019   	((-9.114556e-13 -3.828407e-12 -1.836169e-12) (5.244645e-13 -5.218937e-12 3.558652e-12)) ((5.475517e-13 -3.160282e-16 -6.289840e-16) (4.084720e-09 7.584413e-14 7.798706e-14))
7123.577869   	((-8.452232e-13 -3.877890e-12 -1.863035e-12) (6.580345e-13 -5.143886e-12 3.513700e-12)) ((5.454191e-13 -3.140620e-16 -6.210948e-16) (4.071422e-09 7.535032e-14 7.423536e-14))
7767.509036   	((-9.019005e-13 -3.837714e-12 -1.827398e-12) (7.456315e-13 -5.075714e-12 3.478800e-12)) ((5.436524e-13 -3.148686e-16 -6.176038e-16) (4.060335e-09 7.525595e-14 7.064531e-14))
8411.462923   	((-1.026896e-12 -3.675938e-12 -1.768028e-12) (7.835724e-13 -5.012222e-12 3.442331e-12)) ((5.421809e-13 -3.194287e-16 -6.142323e-16) (4.051080e-09 7.519294e-14 6.736215e-14))
9055.436381   	((-1.211000e-12 -3.497319e-12 -1.776054e-12) (7.807754e-13 -4.954360e-12 3.416306e-12)) ((5.409393e-13 -3.320510e-16 -6.126384e-16) (4.043353e-09 7.580849e-14 6.395497e-14))
9699.426602   	((-1.595798e-12 -3.473508e-12 -1.842471e-12) (7.711764e-13 -4.902842e-12 3.390291e-12)) ((5.398813e-13 -3.229508e-16 -6.070912e-16) (4.036891e-09 7.660574e-14 6.107575e-14))
10343.431138  	((-1.619346e-12 -3.609897e-12 -1.991830e-12) (7.806206e-13 -4.850186e-12 3.383424e-12)) ((5.389932e-13 -3.127590e-16 -5.950582e-16) (4.031483e-09 7.779130e-14 5.865696e-14))
10987.447859  	((-1.413047e-12 -3.784925e-12 -2.059190e-12) (8.092760e-13 -4.794857e-12 3.377228e-12)) ((5.382717e-13 -3.109452e-16 -5.923918e-16) (4.026953e-09 7.920207e-14 5.586615e-14))
11631.474941  	((-1.277689e-12 -3.908530e-12 -2.074844e-12) (8.352010e-13 -4.751387e-12 3.364376e-12)) ((5.376663e-13 -3.088402e-16 -5.886247e-16) (4.023156e-09 7.981971e-14 5.380147e-14))
12275.510828  	((-1.128736e-12 -3.992862e-12 -2.075232e-12) (8.683946e-13 -4.712979e-12 3.350868e-12)) ((5.371552e-13 -3.124737e-16 -5.883544e-16) (4.019971e-09 8.021728e-14 5.205128e-14))
12919.554176  	((-9.540297e-13 -4.065012e-12 -2.083035e-12) (8.949639e-13 -4.683973e-12 3.338788e-12)) ((5.367304e-13 -3.095682e-16 -5.868121e-16) (4.017299e-09 8.059434e-14 5.086765e-14))
13563.603847  	((-7.763416e-13 -4.120292e-12 -2.092630e-12) (9.192654e-13 -4.660662e-12 3.326745e-12)) ((5.363726e-13 -3.093460e-16 -5.851963e-16) (4.015056e-09 8.094860e-14 4.999099e-14))
14207.658875  	((-6.274306e-13 -4.152635e-12 -2.098343e-12) (9.430250e-13 -4.640654e-12 3.316459e-12)) ((5.360709e-13 -3.089128e-16 -5.839027e-16) (4.013172e-09 8.129438e-14 4.930313e-14))
14851.718439  	((-5.194775e-13 -4.166163e-12 -2.099091e-12) (9.655994e-13 -4.623300e-12 3.308071e-12)) ((5.358172e-13 -3.085791e-16 -5.831618e-16) (4.011589e-09 8.163626e-14 4.877364e-14))
