# Forces      
# CofR        : (0.000000e+00 0.000000e+00 0.000000e+00)
# Time        forces(pressure viscous)	moments(pressure viscous)
0             	((0.000000e+00 0.000000e+00 0.000000e+00) (-6.072331e-12 6.158111e-13 -7.981996e-02)) ((0.000000e+00 0.000000e+00 0.000000e+00) (-1.787857e-13 -2.684006e-08 -1.400005e-14))
0.0075768     	((9.106431e-03 9.079917e-03 -3.691323e+01) (4.562562e-06 4.051901e-06 -2.246888e-01)) ((-1.599353e-07 -1.222833e-05 -2.110939e-08) (-1.020267e-06 8.116224e-07 4.457510e-09))
0.0166689     	((-5.696762e-03 -3.896112e-03 1.752126e+01) (-3.310898e-05 -8.940411e-06 -2.081946e-01)) ((-3.373843e-07 2.189286e-06 -1.408015e-09) (-5.798641e-07 -1.423400e-06 -4.534922e-10))
0.0275795     	((-4.949991e-03 -2.161605e-03 -3.944555e+00) (-8.299387e-05 -4.522173e-06 -1.707311e-01)) ((3.178419e-07 -2.495408e-06 7.246803e-09) (-6.496733e-07 -1.247497e-06 -5.326633e-09))
0.0405889     	((-2.262712e-03 -1.140021e-04 1.510455e+00) (-4.298545e-05 7.833967e-06 -1.586497e-01)) ((-1.336986e-07 -7.228708e-07 -4.061437e-10) (-7.657712e-07 1.190470e-06 4.949124e-09))
0.0557074     	((-6.274330e-04 -5.128067e-04 -1.078048e+00) (8.407808e-06 -8.492353e-07 -1.508727e-01)) ((4.937865e-08 -1.881998e-06 7.764291e-09) (-4.970409e-07 1.033482e-07 8.303506e-09))
0.0729228     	((6.068067e-04 -9.204531e-06 9.754030e-02) (6.099142e-05 -4.044972e-06 -1.483394e-01)) ((-5.165051e-08 -1.762788e-06 5.080414e-09) (-4.166147e-07 -1.335366e-06 2.406611e-09))
0.0922195     	((1.022111e-03 1.008446e-04 -4.731279e-01) (8.553306e-05 -1.637643e-06 -1.462747e-01)) ((1.897489e-08 -1.917932e-06 3.052867e-09) (-1.055815e-07 -2.853027e-06 4.344102e-09))
0.112855      	((3.325061e-04 1.676056e-05 -2.357040e-01) (7.256010e-05 -1.461143e-06 -1.452329e-01)) ((-2.218073e-09 -1.808789e-06 -2.764013e-09) (6.074911e-08 -3.472414e-06 1.097605e-08))
0.133511      	((-6.308558e-04 2.751568e-05 -3.959423e-01) (6.936261e-05 -8.170649e-07 -1.447985e-01)) ((5.985411e-09 -2.036791e-06 -2.143315e-09) (1.192086e-07 -3.455042e-06 1.549170e-08))
0.154107      	((-6.259046e-04 1.377848e-04 -3.583400e-01) (7.390221e-05 -3.130003e-07 -1.447197e-01)) ((-3.446899e-09 -1.943848e-06 1.031985e-09) (1.312906e-07 -3.658885e-06 1.698332e-08))
0.17459       	((-7.997632e-04 2.357832e-04 -4.206751e-01) (8.264664e-05 -6.979141e-08 -1.446314e-01)) ((-4.205992e-09 -2.091256e-06 -2.506821e-09) (1.200941e-07 -3.644354e-06 1.730038e-08))
0.194935      	((-7.242062e-04 3.935487e-04 -4.279723e-01) (8.868203e-05 1.768443e-07 -1.444181e-01)) ((-1.010919e-08 -2.033851e-06 -2.170641e-09) (9.928644e-08 -3.634706e-06 1.670554e-08))
0.215187      	((-1.351663e-03 5.570935e-04 -4.525573e-01) (8.797462e-05 2.108047e-07 -1.439561e-01)) ((-1.083327e-08 -2.086465e-06 -2.589510e-09) (2.325457e-08 -3.714543e-06 1.593146e-08))
0.235378      	((-1.507287e-03 7.162330e-04 -4.570492e-01) (8.923792e-05 -2.211933e-07 -1.433049e-01)) ((-1.120598e-08 -2.044838e-06 -2.567609e-09) (-1.033483e-07 -3.680342e-06 1.367212e-08))
0.255584      	((-2.169227e-03 9.323799e-04 -4.632971e-01) (8.621441e-05 1.858055e-07 -1.425787e-01)) ((-6.767674e-09 -2.032891e-06 -7.675113e-10) (-1.913640e-07 -3.671459e-06 1.253377e-08))
0.275844      	((-2.706541e-03 1.160951e-03 -4.635859e-01) (8.484061e-05 1.916278e-06 -1.418898e-01)) ((-2.596540e-09 -1.956153e-06 -1.913265e-09) (-1.892441e-07 -3.809797e-06 1.310306e-08))
0.296154      	((-3.392339e-03 1.370409e-03 -4.634267e-01) (8.416204e-05 4.450476e-06 -1.412705e-01)) ((9.339646e-09 -1.927384e-06 -4.320641e-10) (-1.410532e-07 -3.956597e-06 1.266502e-08))
0.316487      	((-4.042369e-03 1.576617e-03 -4.615025e-01) (8.200831e-05 6.228838e-06 -1.407086e-01)) ((2.157594e-08 -1.892507e-06 -5.656196e-11) (-1.360878e-07 -4.141126e-06 1.356482e-08))
0.336827      	((-4.924381e-03 1.824962e-03 -4.595356e-01) (7.746445e-05 6.988194e-06 -1.401982e-01)) ((3.062434e-08 -1.858441e-06 -2.751176e-09) (-1.876423e-07 -4.334412e-06 1.399949e-08))
0.357173      	((-5.844109e-03 2.126378e-03 -4.578209e-01) (7.368880e-05 7.647982e-06 -1.397317e-01)) ((3.385262e-08 -1.802863e-06 -4.676024e-09) (-2.551453e-07 -4.547432e-06 1.339297e-08))
0.377534      	((-6.867585e-03 2.470308e-03 -4.559912e-01) (7.117643e-05 8.472789e-06 -1.393028e-01)) ((3.244529e-08 -1.759166e-06 -5.341679e-09) (-3.327888e-07 -4.789002e-06 1.277004e-08))
0.397913      	((-8.057419e-03 2.862691e-03 -4.547962e-01) (6.750399e-05 9.316971e-06 -1.389062e-01)) ((2.746496e-08 -1.705539e-06 -5.249993e-09) (-4.451579e-07 -5.087710e-06 1.080440e-08))
0.418306      	((-9.533291e-03 3.361324e-03 -4.541711e-01) (6.275872e-05 9.405329e-06 -1.385391e-01)) ((2.833121e-08 -1.653393e-06 -4.138675e-09) (-6.141806e-07 -5.458559e-06 8.973674e-09))
0.438709      	((-1.133378e-02 3.870619e-03 -4.534011e-01) (5.802430e-05 8.657695e-06 -1.382016e-01)) ((2.640301e-08 -1.603181e-06 -4.959432e-09) (-8.540284e-07 -5.922209e-06 9.715473e-09))
0.459123      	((-1.344984e-02 4.528770e-03 -4.527157e-01) (5.288991e-05 7.895832e-06 -1.378953e-01)) ((2.853637e-08 -1.558942e-06 -5.829229e-09) (-1.145976e-06 -6.501668e-06 1.032354e-08))
0.479548      	((-1.571861e-02 5.359226e-03 -4.521277e-01) (4.680154e-05 7.427810e-06 -1.376181e-01)) ((3.166344e-08 -1.515284e-06 -6.360868e-09) (-1.474100e-06 -7.167275e-06 9.136319e-09))
0.499977      	((-1.810093e-02 6.299583e-03 -4.516051e-01) (4.005278e-05 7.138630e-06 -1.373662e-01)) ((3.587337e-08 -1.481160e-06 -8.165316e-09) (-1.841759e-06 -7.910913e-06 7.961458e-09))
0.520411      	((-2.072098e-02 7.347494e-03 -4.509857e-01) (3.212927e-05 7.566051e-06 -1.371361e-01)) ((4.406758e-08 -1.442030e-06 -8.436425e-09) (-2.226236e-06 -8.684946e-06 5.785670e-09))
0.54085       	((-2.353026e-02 8.508270e-03 -4.499445e-01) (2.290815e-05 8.944326e-06 -1.369236e-01)) ((5.512618e-08 -1.403375e-06 -9.688897e-09) (-2.613483e-06 -9.480515e-06 4.166889e-09))
0.561293      	((-2.660887e-02 9.749889e-03 -4.486391e-01) (1.304536e-05 1.156785e-05 -1.367258e-01)) ((6.724493e-08 -1.361986e-06 -1.123090e-08) (-2.996571e-06 -1.032943e-05 2.162962e-09))
0.58174       	((-3.003695e-02 1.114876e-02 -4.473325e-01) (2.462112e-06 1.531263e-05 -1.365413e-01)) ((8.097164e-08 -1.314512e-06 -1.314779e-08) (-3.377988e-06 -1.126437e-05 1.038413e-10))
0.602191      	((-3.389857e-02 1.272685e-02 -4.460474e-01) (-8.739682e-06 1.982367e-05 -1.363693e-01)) ((9.825152e-08 -1.264040e-06 -1.559061e-08) (-3.782625e-06 -1.232381e-05 3.203466e-10))
0.622646      	((-3.827196e-02 1.453741e-02 -4.449198e-01) (-2.048829e-05 2.498700e-05 -1.362087e-01)) ((1.221986e-07 -1.208562e-06 -1.808795e-08) (-4.229560e-06 -1.353429e-05 2.746724e-09))
0.643104      	((-4.316784e-02 1.655358e-02 -4.439650e-01) (-3.281637e-05 3.070876e-05 -1.360587e-01)) ((1.464011e-07 -1.147086e-06 -2.078367e-08) (-4.729878e-06 -1.492265e-05 4.043527e-09))
0.663566      	((-4.876369e-02 1.879467e-02 -4.431842e-01) (-4.592033e-05 3.708286e-05 -1.359188e-01)) ((1.708397e-07 -1.078565e-06 -2.360916e-08) (-5.293292e-06 -1.650969e-05 5.003883e-09))
0.684031      	((-5.509925e-02 2.129327e-02 -4.425023e-01) (-6.016992e-05 4.426787e-05 -1.357887e-01)) ((1.964625e-07 -1.006318e-06 -2.558421e-08) (-5.928845e-06 -1.830718e-05 9.422058e-09))
0.704499      	((-6.227085e-02 2.411138e-02 -4.418830e-01) (-7.599423e-05 5.196856e-05 -1.356683e-01)) ((2.217781e-07 -9.306577e-07 -2.658010e-08) (-6.657315e-06 -2.032876e-05 1.598416e-08))
0.72497       	((-7.041579e-02 2.726585e-02 -4.413531e-01) (-9.365397e-05 5.995207e-05 -1.355571e-01)) ((2.475834e-07 -8.467029e-07 -2.601174e-08) (-7.503724e-06 -2.261440e-05 2.219670e-08))
0.745444      	((-7.968994e-02 3.083101e-02 -4.409214e-01) (-1.136812e-04 6.832211e-05 -1.354550e-01)) ((2.757020e-07 -7.531858e-07 -2.554907e-08) (-8.487719e-06 -2.519798e-05 2.747116e-08))
0.765921      	((-9.025284e-02 3.489245e-02 -4.405014e-01) (-1.365640e-04 7.715043e-05 -1.353616e-01)) ((3.108952e-07 -6.481685e-07 -2.614909e-08) (-9.626790e-06 -2.811539e-05 3.273971e-08))
0.786402      	((-1.023712e-01 3.945096e-02 -4.402069e-01) (-1.626475e-04 8.662729e-05 -1.352772e-01)) ((3.532279e-07 -5.274710e-07 -2.684345e-08) (-1.093500e-05 -3.140527e-05 3.989764e-08))
0.806885      	((-1.161814e-01 4.461133e-02 -4.401133e-01) (-1.922043e-04 9.702504e-05 -1.352023e-01)) ((4.055411e-07 -3.877641e-07 -2.835692e-08) (-1.242445e-05 -3.512729e-05 5.281519e-08))
0.827371      	((-1.319550e-01 5.048544e-02 -4.401528e-01) (-2.262838e-04 1.086971e-04 -1.351366e-01)) ((4.649284e-07 -2.285064e-07 -3.021111e-08) (-1.411092e-05 -3.934361e-05 6.416310e-08))
0.847857      	((-1.499075e-01 5.718615e-02 -4.404951e-01) (-2.655257e-04 1.218859e-04 -1.350806e-01)) ((5.281354e-07 -5.293435e-08 -3.253677e-08) (-1.601760e-05 -4.413920e-05 6.618945e-08))
0.868339      	((-1.702805e-01 6.463819e-02 -4.410250e-01) (-3.103512e-04 1.370731e-04 -1.350353e-01)) ((5.958483e-07 1.441297e-07 -3.620796e-08) (-1.815794e-05 -4.959288e-05 5.945983e-08))
0.888815      	((-1.931638e-01 7.300061e-02 -4.417775e-01) (-3.618530e-04 1.547318e-04 -1.350012e-01)) ((6.742680e-07 3.633004e-07 -4.022559e-08) (-2.052748e-05 -5.574047e-05 4.898838e-08))
0.909285      	((-2.187793e-01 8.244805e-02 -4.430386e-01) (-4.213082e-04 1.751370e-04 -1.349796e-01)) ((7.668960e-07 6.010639e-07 -4.654407e-08) (-2.315017e-05 -6.259345e-05 3.329144e-08))
0.929747      	((-2.471087e-01 9.291916e-02 -4.448521e-01) (-4.891692e-04 1.979275e-04 -1.349716e-01)) ((8.749919e-07 8.588253e-07 -5.462025e-08) (-2.609555e-05 -7.023623e-05 6.144646e-09))
0.950202      	((-2.786203e-01 1.045908e-01 -4.472406e-01) (-5.656653e-04 2.233070e-04 -1.349785e-01)) ((1.000370e-06 1.143340e-06 -6.457569e-08) (-2.939917e-05 -7.880366e-05 -2.737161e-08))
0.97064       	((-3.134511e-01 1.176516e-01 -4.505100e-01) (-6.517458e-04 2.524090e-04 -1.350023e-01)) ((1.146801e-06 1.455167e-06 -7.809989e-08) (-3.307585e-05 -8.836592e-05 -5.370151e-08))
0.991061      	((-3.517962e-01 1.321406e-01 -4.549017e-01) (-7.489506e-04 2.857588e-04 -1.350459e-01)) ((1.297559e-06 1.798318e-06 -9.882619e-08) (-3.715834e-05 -9.894876e-05 -7.696519e-08))
1.011463      	((-3.940663e-01 1.480754e-01 -4.606423e-01) (-8.600581e-04 3.237040e-04 -1.351119e-01)) ((1.445181e-06 2.172743e-06 -1.183156e-07) (-4.167110e-05 -1.105860e-04 -1.051387e-07))
1.031842      	((-4.399770e-01 1.653645e-01 -4.680771e-01) (-9.877887e-04 3.668136e-04 -1.352042e-01)) ((1.605515e-06 2.564318e-06 -1.342510e-07) (-4.662432e-05 -1.232496e-04 -1.297270e-07))
1.052197      	((-4.895206e-01 1.840321e-01 -4.772914e-01) (-1.135208e-03 4.151826e-04 -1.353274e-01)) ((1.792877e-06 2.991282e-06 -1.522341e-07) (-5.200978e-05 -1.368395e-04 -1.670248e-07))
1.072525      	((-5.428397e-01 2.039986e-01 -4.883618e-01) (-1.301930e-03 4.714034e-04 -1.354840e-01)) ((1.991794e-06 3.473888e-06 -1.784317e-07) (-5.772302e-05 -1.514227e-04 -2.178978e-07))
1.092824      	((-5.994856e-01 2.250629e-01 -5.022648e-01) (-1.487642e-03 5.390530e-04 -1.356744e-01)) ((2.199494e-06 3.980545e-06 -2.204635e-07) (-6.364971e-05 -1.671013e-04 -2.414227e-07))
1.113092      	((-6.577665e-01 2.471430e-01 -5.205554e-01) (-1.694991e-03 6.197556e-04 -1.359013e-01)) ((2.415009e-06 4.459660e-06 -2.631575e-07) (-6.970921e-05 -1.837134e-04 -1.699730e-07))
1.133327      	((-7.170247e-01 2.687228e-01 -5.423603e-01) (-1.917429e-03 7.095332e-04 -1.361705e-01)) ((2.619446e-06 4.921491e-06 -2.973037e-07) (-7.596430e-05 -2.013094e-04 -5.033234e-08))
1.153526      	((-7.738559e-01 2.889483e-01 -5.681664e-01) (-2.148896e-03 8.038990e-04 -1.364857e-01)) ((2.767758e-06 5.309144e-06 -3.174749e-07) (-8.240336e-05 -2.197665e-04 1.193297e-07))
1.173689      	((-8.266138e-01 3.067705e-01 -5.952322e-01) (-2.379722e-03 9.002092e-04 -1.368464e-01)) ((2.861891e-06 5.606582e-06 -3.221931e-07) (-8.872063e-05 -2.388411e-04 3.743621e-07))
1.193816      	((-8.711727e-01 3.207497e-01 -6.247560e-01) (-2.600358e-03 9.967793e-04 -1.372530e-01)) ((2.898448e-06 5.769050e-06 -3.167140e-07) (-9.448004e-05 -2.578053e-04 7.391470e-07))
1.213908      	((-9.054086e-01 3.305884e-01 -6.538357e-01) (-2.808236e-03 1.094181e-03 -1.377005e-01)) ((2.884847e-06 5.759881e-06 -3.549391e-07) (-9.932095e-05 -2.758229e-04 1.207328e-06))
1.233968      	((-9.247709e-01 3.346735e-01 -6.808090e-01) (-3.006381e-03 1.190158e-03 -1.381799e-01)) ((2.823083e-06 5.571728e-06 -4.040882e-07) (-1.030052e-04 -2.915502e-04 1.785997e-06))
1.253998      	((-9.277604e-01 3.319497e-01 -7.029507e-01) (-3.183533e-03 1.272910e-03 -1.386741e-01)) ((2.764584e-06 5.364966e-06 -4.083234e-07) (-1.054066e-04 -3.039135e-04 2.447108e-06))
1.274003      	((-9.139497e-01 3.220016e-01 -7.193097e-01) (-3.308762e-03 1.327038e-03 -1.391603e-01)) ((2.678524e-06 5.139706e-06 -3.771566e-07) (-1.064976e-04 -3.129677e-04 3.198341e-06))
1.293987      	((-8.830913e-01 3.053870e-01 -7.277314e-01) (-3.350657e-03 1.340964e-03 -1.396135e-01)) ((2.513569e-06 4.729487e-06 -3.421806e-07) (-1.064348e-04 -3.193248e-04 3.856031e-06))
1.313953      	((-8.396540e-01 2.847262e-01 -7.277340e-01) (-3.289306e-03 1.305740e-03 -1.400146e-01)) ((2.283994e-06 4.135182e-06 -2.857124e-07) (-1.057450e-04 -3.234738e-04 4.248461e-06))
1.333907      	((-7.877854e-01 2.632436e-01 -7.199448e-01) (-3.115105e-03 1.221253e-03 -1.403542e-01)) ((2.075872e-06 3.413605e-06 -2.171611e-07) (-1.048092e-04 -3.259141e-04 4.424609e-06))
1.353855      	((-7.338231e-01 2.436538e-01 -7.088572e-01) (-2.841936e-03 1.103538e-03 -1.406387e-01)) ((1.996524e-06 2.585413e-06 -1.138343e-07) (-1.035313e-04 -3.266880e-04 4.508014e-06))
1.373805      	((-6.880735e-01 2.276748e-01 -6.963328e-01) (-2.509377e-03 9.751894e-04 -1.408803e-01)) ((1.917782e-06 1.700454e-06 -4.578122e-08) (-1.017535e-04 -3.258806e-04 4.807457e-06))
1.39376       	((-6.551665e-01 2.166946e-01 -6.827262e-01) (-2.164123e-03 8.465576e-04 -1.410913e-01)) ((1.851483e-06 8.924411e-07 3.610890e-10) (-9.977495e-05 -3.238115e-04 5.483915e-06))
1.413724      	((-6.377118e-01 2.126269e-01 -6.699672e-01) (-1.850164e-03 7.286527e-04 -1.412781e-01)) ((1.806595e-06 2.674386e-07 1.226529e-08) (-9.780408e-05 -3.210216e-04 6.358718e-06))
1.433699      	((-6.348455e-01 2.135416e-01 -6.576389e-01) (-1.602447e-03 6.357738e-04 -1.414403e-01)) ((1.663741e-06 -1.553611e-07 -8.373353e-08) (-9.588507e-05 -3.179631e-04 7.111301e-06))
1.453685      	((-6.436214e-01 2.175682e-01 -6.470333e-01) (-1.455535e-03 5.736060e-04 -1.415835e-01)) ((1.530462e-06 -3.479566e-07 -2.116381e-07) (-9.426322e-05 -3.142574e-04 7.632253e-06))
1.473682      	((-6.565247e-01 2.229989e-01 -6.370820e-01) (-1.421043e-03 5.453030e-04 -1.417129e-01)) ((1.611593e-06 -9.590250e-08 -3.056222e-07) (-9.289040e-05 -3.095198e-04 8.049689e-06))
1.493687      	((-6.698073e-01 2.281691e-01 -6.281490e-01) (-1.494257e-03 5.584192e-04 -1.418306e-01)) ((1.931977e-06 7.298212e-07 -3.824031e-07) (-9.115499e-05 -3.032154e-04 8.615397e-06))
1.513697      	((-6.791320e-01 2.315317e-01 -6.185863e-01) (-1.631114e-03 5.981573e-04 -1.419164e-01)) ((2.205378e-06 1.682775e-06 -4.959304e-07) (-8.933043e-05 -2.966664e-04 9.335219e-06))
1.533711      	((-6.796231e-01 2.310774e-01 -6.114171e-01) (-1.749689e-03 6.413368e-04 -1.419622e-01)) ((2.253051e-06 2.392996e-06 -6.366298e-07) (-8.765190e-05 -2.921122e-04 1.022463e-05))
1.553726      	((-6.694516e-01 2.255407e-01 -6.076633e-01) (-1.799095e-03 6.747626e-04 -1.419889e-01)) ((2.248317e-06 2.850877e-06 -6.782351e-07) (-8.575221e-05 -2.897108e-04 1.131388e-05))
1.57374       	((-6.509502e-01 2.175411e-01 -6.072032e-01) (-1.780723e-03 6.907639e-04 -1.420072e-01)) ((2.265550e-06 3.078300e-06 -6.020850e-07) (-8.357358e-05 -2.884109e-04 1.232575e-05))
1.593754      	((-6.251450e-01 2.068722e-01 -6.088768e-01) (-1.709791e-03 6.793724e-04 -1.420210e-01)) ((2.350242e-06 3.163101e-06 -4.242334e-07) (-8.156207e-05 -2.871395e-04 1.286507e-05))
1.613768      	((-5.959093e-01 1.954457e-01 -6.089272e-01) (-1.596613e-03 6.377211e-04 -1.420272e-01)) ((2.461628e-06 3.077210e-06 -1.561665e-07) (-8.001360e-05 -2.854528e-04 1.290391e-05))
1.633784      	((-5.670631e-01 1.848954e-01 -6.075513e-01) (-1.450269e-03 5.673051e-04 -1.420245e-01)) ((2.411821e-06 2.692401e-06 1.900103e-08) (-7.906394e-05 -2.832962e-04 1.268029e-05))
1.653802      	((-5.412122e-01 1.762129e-01 -6.089850e-01) (-1.257026e-03 4.852571e-04 -1.420153e-01)) ((2.220305e-06 1.888033e-06 1.188964e-07) (-7.850734e-05 -2.817646e-04 1.265869e-05))
1.673825      	((-5.241478e-01 1.714039e-01 -6.097298e-01) (-1.033762e-03 4.063207e-04 -1.420000e-01)) ((2.063553e-06 1.072544e-06 2.026937e-07) (-7.818990e-05 -2.812982e-04 1.289502e-05))
1.693855      	((-5.189062e-01 1.702072e-01 -6.092781e-01) (-8.100358e-04 3.217800e-04 -1.419818e-01)) ((1.988644e-06 3.727381e-07 2.621104e-07) (-7.878714e-05 -2.818171e-04 1.286290e-05))
1.713892      	((-5.246406e-01 1.731395e-01 -6.057815e-01) (-6.006187e-04 2.325402e-04 -1.419504e-01)) ((1.882942e-06 -1.053483e-07 1.920910e-07) (-8.060219e-05 -2.840335e-04 1.218208e-05))
1.733936      	((-5.389252e-01 1.789372e-01 -5.976294e-01) (-4.381918e-04 1.596396e-04 -1.418986e-01)) ((1.791670e-06 -1.571090e-07 1.633821e-08) (-8.283581e-05 -2.872798e-04 1.098254e-05))
1.753987      	((-5.585766e-01 1.868339e-01 -5.885474e-01) (-3.795269e-04 1.255982e-04 -1.418419e-01)) ((1.732866e-06 1.696198e-07 -2.199545e-07) (-8.448446e-05 -2.888820e-04 9.661142e-06))
1.774043      	((-5.782727e-01 1.961600e-01 -5.800876e-01) (-4.537262e-04 1.429978e-04 -1.418009e-01)) ((1.658866e-06 6.721526e-07 -5.041837e-07) (-8.497589e-05 -2.868679e-04 8.667644e-06))
1.794102      	((-5.938667e-01 2.048188e-01 -5.758505e-01) (-6.150078e-04 2.101329e-04 -1.417751e-01)) ((1.610123e-06 1.203360e-06 -7.403995e-07) (-8.419258e-05 -2.825852e-04 8.328106e-06))
