# Forces      
# CofR        : (0.000000e+00 0.000000e+00 0.000000e+00)
# Time        forces(pressure viscous)	moments(pressure viscous)
0             	((0.000000e+00 0.000000e+00 0.000000e+00) (-5.491391e-16 5.121446e-17 -7.982384e-06)) ((0.000000e+00 0.000000e+00 0.000000e+00) (-1.450523e-17 -3.040550e-12 -1.395748e-18))
0.012         	((5.155691e-10 1.038251e-09 -2.319826e-03) (6.841336e-12 7.427040e-12 -9.161447e-06)) ((-9.931916e-13 -6.146592e-10 -1.045079e-14) (6.355726e-14 -8.982272e-12 -3.683128e-16))
0.0264        	((-4.609505e-08 -4.791303e-08 1.590707e-04) (-2.549149e-11 -2.554268e-11 -9.349667e-06)) ((1.478470e-12 3.803524e-11 9.010757e-15) (5.568572e-14 -1.192228e-11 -2.370555e-14))
0.04368       	((4.641046e-08 4.005271e-08 4.859401e-04) (-2.334506e-11 -2.673886e-11 -8.311008e-06)) ((5.248467e-12 1.093906e-10 3.639100e-14) (-1.457925e-13 -1.216591e-11 -2.123410e-14))
0.064416      	((-1.491952e-09 -8.029452e-09 4.600980e-06) (-8.034511e-11 -6.923769e-11 -7.362604e-06)) ((-1.748928e-12 -1.584087e-12 -1.818629e-14) (6.188438e-13 -1.382985e-11 -9.091017e-15))
0.0892992     	((-6.760639e-09 5.487104e-09 -6.499525e-06) (-1.468540e-10 -1.156317e-10 -6.797713e-06)) ((-6.911313e-13 3.502767e-12 1.010368e-15) (7.765809e-14 -1.695721e-11 4.042877e-14))
0.119159      	((-5.250500e-09 -4.298519e-09 7.314359e-06) (-1.391214e-10 -1.084511e-10 -6.276709e-06)) ((-2.923575e-13 4.692962e-12 -6.988664e-14) (-9.605991e-13 -1.810400e-11 9.088033e-14))
0.154991      	((-2.515506e-10 5.673241e-10 4.014982e-06) (-1.117325e-10 -9.121723e-11 -5.724144e-06)) ((2.519806e-13 4.113471e-12 -2.282713e-14) (-4.863138e-13 -1.751163e-11 8.389104e-14))
0.197989      	((-8.107326e-10 1.328044e-09 9.850253e-07) (-6.523563e-11 -5.767962e-11 -5.166126e-06)) ((-2.243508e-15 2.073814e-12 -6.958315e-15) (2.445443e-13 -1.539519e-11 1.279112e-13))
0.249587      	((-3.994652e-11 -1.960860e-10 -1.174776e-07) (-3.007208e-11 -3.383304e-11 -4.618250e-06)) ((-8.625357e-14 1.275233e-12 1.197794e-15) (8.461038e-13 -1.362274e-11 1.692165e-13))
0.311504      	((-9.972766e-13 -7.662915e-12 -6.158054e-07) (-8.659565e-12 -1.192449e-11 -4.096626e-06)) ((5.736325e-15 5.840699e-13 1.469734e-15) (1.177043e-12 -1.281715e-11 1.377341e-13))
0.385805      	((3.311060e-11 1.182980e-10 -8.507591e-07) (1.060922e-11 4.130114e-12 -3.614450e-06)) ((1.347403e-14 1.605527e-13 -1.602381e-15) (1.310780e-12 -1.347094e-11 1.168481e-13))
0.474966      	((1.595487e-10 1.421177e-10 -9.613184e-07) (1.649370e-11 8.195653e-12 -3.181453e-06)) ((1.389483e-14 -7.803387e-14 -6.903812e-16) (1.066806e-12 -1.357447e-11 8.072603e-14))
0.581959      	((1.736380e-10 7.470657e-11 -1.006198e-06) (6.566600e-12 9.008346e-12 -2.802116e-06)) ((5.589757e-15 -2.029383e-13 1.216115e-15) (7.340167e-13 -1.236864e-11 5.149319e-14))
0.710351      	((6.941702e-11 7.731356e-11 -1.003020e-06) (-7.340823e-12 5.207623e-12 -2.476969e-06)) ((-6.330089e-16 -3.218888e-13 -1.321698e-16) (5.175314e-13 -9.817270e-12 4.905117e-14))
0.864421      	((2.672072e-11 4.302939e-11 -9.674002e-07) (-8.318362e-12 4.108812e-12 -2.202123e-06)) ((-3.039627e-16 -3.961888e-13 -7.123887e-16) (6.095816e-13 -6.649177e-12 6.162416e-14))
1.049306      	((-1.253847e-11 3.782943e-11 -9.143810e-07) (2.925283e-12 2.107821e-12 -1.970679e-06)) ((-8.644901e-16 -4.455882e-13 -4.437538e-16) (7.292583e-13 -3.673144e-12 7.862112e-14))
1.271167      	((-2.679828e-11 3.108812e-11 -8.552758e-07) (1.261697e-11 -4.945480e-13 -1.775269e-06)) ((-2.605492e-16 -4.641011e-13 -6.113405e-16) (7.326612e-13 -8.799156e-13 8.655511e-14))
1.5374        	((-4.285762e-11 2.846121e-11 -7.951607e-07) (1.424434e-11 -4.321171e-14 -1.608029e-06)) ((-7.615408e-16 -4.538101e-13 -6.052399e-16) (6.603634e-13 1.902417e-12 8.858805e-14))
1.85688       	((-3.810938e-11 1.718876e-11 -7.366476e-07) (1.167505e-11 1.492951e-13 -1.461802e-06)) ((-1.836714e-16 -4.617979e-13 -7.168291e-16) (5.474567e-13 4.448657e-12 8.851821e-14))
2.240256      	((-2.469864e-11 7.843241e-12 -6.810492e-07) (9.170228e-12 -2.577003e-13 -1.331866e-06)) ((-1.198535e-16 -4.668895e-13 -5.082877e-16) (3.969233e-13 6.870124e-12 8.433539e-14))
2.700307      	((-3.240137e-11 -3.303648e-12 -6.290704e-07) (9.118771e-12 7.598584e-14 -1.215279e-06)) ((5.632411e-17 -4.693532e-13 -4.352974e-16) (2.058484e-13 9.048771e-12 7.338956e-14))
3.252369      	((-4.299337e-11 -1.265190e-11 -5.805472e-07) (4.544848e-12 3.762053e-13 -1.110103e-06)) ((1.023581e-16 -4.586746e-13 -3.688601e-16) (-2.731767e-14 1.069986e-11 6.625491e-14))
3.914842      	((-5.523623e-11 -1.787528e-11 -5.348964e-07) (-5.326186e-12 1.054830e-12 -1.015010e-06)) ((-9.511029e-17 -4.372311e-13 -3.199580e-16) (-2.095792e-13 1.186684e-11 5.831433e-14))
4.709811      	((-4.507872e-11 -1.154786e-11 -4.924436e-07) (-7.052448e-12 9.883430e-13 -9.290720e-07)) ((-8.884685e-16 -4.104800e-13 -4.165756e-16) (-2.910937e-13 1.266687e-11 4.787383e-14))
5.663773      	((-2.227406e-11 -3.416572e-12 -4.532810e-07) (1.983124e-12 4.688542e-13 -8.516130e-07)) ((-1.969401e-15 -3.798263e-13 -5.484766e-16) (-2.768762e-13 1.299055e-11 4.134189e-14))
6.808528      	((-2.104774e-11 -9.603685e-13 -4.174182e-07) (1.905380e-11 -6.081661e-13 -7.820057e-07)) ((-2.258318e-15 -3.515968e-13 -5.737015e-16) (-2.579463e-13 1.251373e-11 3.801287e-14))
8.182233      	((-2.254701e-11 -5.121276e-12 -3.847091e-07) (3.524777e-11 -1.358025e-12 -7.195423e-07)) ((-1.442308e-15 -3.297580e-13 -3.108454e-16) (-2.797849e-13 1.120080e-11 3.252146e-14))
9.83068       	((-2.350967e-11 -1.961880e-11 -3.550077e-07) (4.282004e-11 -1.249745e-12 -6.634373e-07)) ((-7.385286e-16 -3.091373e-13 -2.282443e-17) (-4.296111e-13 9.724602e-12 1.700255e-14))
11.808816     	((-9.500059e-12 -2.206027e-11 -3.277780e-07) (4.480339e-11 -1.151876e-12 -6.128806e-07)) ((-9.902450e-16 -2.864872e-13 1.244752e-16) (-8.428935e-13 8.639629e-12 4.504690e-15))
14.182579     	((-1.097360e-13 -1.979125e-11 -3.028917e-07) (4.237290e-11 -5.695951e-13 -5.671210e-07)) ((-2.339323e-15 -2.645563e-13 1.194413e-16) (-1.459547e-12 7.866341e-12 3.351678e-15))
17.031095     	((-1.415880e-11 -3.245119e-11 -2.802281e-07) (3.654625e-11 2.684259e-13 -5.255342e-07)) ((-2.841034e-15 -2.463686e-13 2.902946e-16) (-2.176680e-12 7.302797e-12 9.743573e-15))
20.449314     	((-2.935464e-11 -4.458355e-11 -2.595746e-07) (3.035321e-11 4.383187e-13 -4.876421e-07)) ((-2.691177e-15 -2.310278e-13 3.590441e-16) (-2.970078e-12 6.902284e-12 1.788940e-14))
24.551176     	((-3.989497e-11 -5.853169e-11 -2.406258e-07) (2.678684e-11 9.361547e-13 -4.530861e-07)) ((-3.223368e-15 -2.159910e-13 2.204923e-16) (-3.745622e-12 6.631234e-12 2.559960e-14))
29.473411     	((-2.666256e-11 -4.004025e-11 -2.233074e-07) (2.503113e-11 3.128744e-12 -4.215965e-07)) ((-3.189794e-15 -2.014446e-13 1.231896e-17) (-4.447980e-12 6.541833e-12 2.164726e-14))
35.380094     	((-2.455403e-11 -3.643363e-11 -2.074936e-07) (2.457709e-11 5.435195e-12 -3.929560e-07)) ((-3.155833e-15 -1.878546e-13 -4.546490e-17) (-5.123167e-12 6.643697e-12 1.839974e-14))
42.468112     	((-2.612906e-11 -3.824007e-11 -1.931512e-07) (2.549747e-11 7.535793e-12 -3.669550e-07)) ((-3.563279e-15 -1.749903e-13 -3.893976e-17) (-5.803567e-12 6.954881e-12 1.634101e-14))
50.973735     	((-1.537480e-11 -2.728553e-11 -1.801294e-07) (2.769110e-11 1.107952e-11 -3.433753e-07)) ((-4.062758e-15 -1.633133e-13 -4.772438e-17) (-6.571508e-12 7.544634e-12 -3.627324e-15))
61.180482     	((7.805677e-12 -1.321264e-12 -1.683566e-07) (3.058864e-11 1.553460e-11 -3.219896e-07)) ((-4.627192e-15 -1.526392e-13 -6.386696e-17) (-7.456597e-12 8.397445e-12 -2.391295e-14))
73.428578     	((2.224761e-11 1.458304e-11 -1.577496e-07) (3.429316e-11 2.027259e-11 -3.025794e-07)) ((-4.749878e-15 -1.432316e-13 -9.789592e-18) (-8.463863e-12 9.410651e-12 -3.387435e-14))
88.126294     	((2.543013e-11 1.899996e-11 -1.481888e-07) (3.765463e-11 2.431143e-11 -2.849437e-07)) ((-5.046713e-15 -1.344547e-13 -1.598168e-17) (-9.564351e-12 1.054411e-11 -3.987961e-14))
105.763553    	((3.028526e-11 2.814380e-11 -1.395976e-07) (4.058513e-11 2.781491e-11 -2.688981e-07)) ((-5.346602e-15 -1.264508e-13 -6.768579e-17) (-1.071160e-11 1.172735e-11 -4.489619e-14))
126.928263    	((3.242246e-11 3.181476e-11 -1.319766e-07) (4.329206e-11 3.091277e-11 -2.542922e-07)) ((-5.335803e-15 -1.194315e-13 -1.076573e-16) (-1.181948e-11 1.287085e-11 -3.948707e-14))
152.325916    	((3.275629e-11 3.452144e-11 -1.251939e-07) (4.578682e-11 3.338516e-11 -2.410038e-07)) ((-5.256254e-15 -1.131008e-13 -1.323210e-16) (-1.278422e-11 1.388135e-11 -3.459085e-14))
182.803099    	((3.464873e-11 3.852716e-11 -1.191507e-07) (4.834605e-11 3.526983e-11 -2.289283e-07)) ((-4.940515e-15 -1.075709e-13 -1.768736e-16) (-1.356340e-11 1.470599e-11 -3.100158e-14))
219.375719    	((4.058225e-11 4.578464e-11 -1.137731e-07) (4.990407e-11 3.695092e-11 -2.179735e-07)) ((-4.382946e-15 -1.027321e-13 -2.361256e-16) (-1.412525e-11 1.531496e-11 -2.544231e-14))
263.262863    	((3.983796e-11 4.595394e-11 -1.090415e-07) (5.022959e-11 3.773478e-11 -2.080561e-07)) ((-3.990741e-15 -9.812236e-14 -2.394311e-16) (-1.446909e-11 1.570459e-11 -2.000560e-14))
315.927436    	((3.886426e-11 4.721177e-11 -1.049477e-07) (4.898509e-11 3.762290e-11 -1.991037e-07)) ((-3.696339e-15 -9.382832e-14 -2.168318e-16) (-1.461861e-11 1.587909e-11 -1.645942e-14))
379.124923    	((3.847220e-11 4.814503e-11 -1.014623e-07) (4.753387e-11 3.715035e-11 -1.910539e-07)) ((-3.504394e-15 -8.994262e-14 -1.681644e-16) (-1.460116e-11 1.585503e-11 -1.682213e-14))
454.961908    	((3.961115e-11 4.706179e-11 -9.851565e-08) (4.620649e-11 3.610260e-11 -1.838517e-07)) ((-3.315544e-15 -8.644777e-14 -1.304288e-16) (-1.442389e-11 1.565644e-11 -1.635616e-14))
545.966289    	((3.904188e-11 4.390831e-11 -9.605471e-08) (4.429281e-11 3.477354e-11 -1.774458e-07)) ((-3.150596e-15 -8.322429e-14 -1.094315e-16) (-1.410291e-11 1.533220e-11 -1.515273e-14))
655.171547    	((3.889953e-11 4.122091e-11 -9.402921e-08) (4.207257e-11 3.306845e-11 -1.717877e-07)) ((-2.885368e-15 -8.039593e-14 -1.180913e-16) (-1.366818e-11 1.492176e-11 -1.711950e-14))
786.217856    	((3.593706e-11 3.732916e-11 -9.238848e-08) (3.945349e-11 3.108666e-11 -1.668297e-07)) ((-2.652857e-15 -7.783076e-14 -9.159403e-17) (-1.313959e-11 1.442938e-11 -2.224598e-14))
943.473427    	((3.458521e-11 3.530624e-11 -9.107119e-08) (3.652883e-11 2.928938e-11 -1.625235e-07)) ((-2.486344e-15 -7.567983e-14 -9.468587e-17) (-1.250991e-11 1.387775e-11 -2.766238e-14))
1132.180113   	((3.580945e-11 3.612642e-11 -9.002502e-08) (3.401586e-11 2.800572e-11 -1.588184e-07)) ((-2.367802e-15 -7.393967e-14 -9.676231e-17) (-1.179431e-11 1.325847e-11 -3.110479e-14))
1358.628135   	((3.828075e-11 3.792155e-11 -8.919479e-08) (3.220340e-11 2.693436e-11 -1.556597e-07)) ((-2.257154e-15 -7.258785e-14 -9.051226e-17) (-1.101619e-11 1.257412e-11 -3.497431e-14))
1630.365763   	((4.038890e-11 3.938023e-11 -8.853351e-08) (3.076565e-11 2.631207e-11 -1.529895e-07)) ((-2.099700e-15 -7.146560e-14 -6.446516e-17) (-1.020723e-11 1.183870e-11 -3.494876e-14))
1955.348407   	((4.222277e-11 4.042300e-11 -8.800146e-08) (2.923967e-11 2.591301e-11 -1.507502e-07)) ((-1.941141e-15 -7.053544e-14 -5.239404e-17) (-9.382809e-12 1.107404e-11 -2.790105e-14))
2333.712526   	((4.309575e-11 4.101929e-11 -8.757909e-08) (2.788338e-11 2.573069e-11 -1.488872e-07)) ((-1.775189e-15 -6.973802e-14 -4.396385e-17) (-8.565538e-12 1.029865e-11 -2.415180e-14))
2765.568776   	((4.300999e-11 4.076696e-11 -8.723842e-08) (2.689844e-11 2.559865e-11 -1.473465e-07)) ((-1.605356e-15 -6.904225e-14 -2.792326e-17) (-7.771069e-12 9.534232e-12 -2.286652e-14))
3251.00848    	((4.180546e-11 3.983689e-11 -8.696404e-08) (2.605067e-11 2.552001e-11 -1.460792e-07)) ((-1.451540e-15 -6.850988e-14 -3.626924e-17) (-7.009741e-12 8.801001e-12 -2.054561e-14))
3787.601216   	((4.024999e-11 3.835589e-11 -8.674187e-08) (2.532262e-11 2.533723e-11 -1.450406e-07)) ((-1.356095e-15 -6.815119e-14 -5.413369e-17) (-6.296231e-12 8.114449e-12 -1.907777e-14))
4324.824803   	((3.819673e-11 3.665390e-11 -8.656759e-08) (2.461460e-11 2.525624e-11 -1.441950e-07)) ((-1.256185e-15 -6.791503e-14 -5.381095e-17) (-5.644505e-12 7.481124e-12 -1.827602e-14))
4862.57041    	((3.551400e-11 3.476848e-11 -8.642318e-08) (2.393690e-11 2.504306e-11 -1.435059e-07)) ((-1.144295e-15 -6.771948e-14 -4.418036e-17) (-5.054995e-12 6.906328e-12 -1.744454e-14))
5400.750403   	((3.266491e-11 3.284257e-11 -8.630537e-08) (2.329630e-11 2.468620e-11 -1.429461e-07)) ((-1.038608e-15 -6.757860e-14 -3.156922e-17) (-4.527568e-12 6.391442e-12 -1.616523e-14))
5939.28988    	((3.012881e-11 3.096247e-11 -8.620710e-08) (2.263816e-11 2.419042e-11 -1.424904e-07)) ((-9.543057e-16 -6.746376e-14 -2.517922e-17) (-4.060254e-12 5.933856e-12 -1.519466e-14))
6478.127734   	((2.788621e-11 2.925151e-11 -8.612656e-08) (2.197140e-11 2.359436e-11 -1.421197e-07)) ((-8.881135e-16 -6.737038e-14 -2.003602e-17) (-3.650293e-12 5.531752e-12 -1.400582e-14))
7017.212527   	((2.596831e-11 2.768715e-11 -8.605960e-08) (2.129220e-11 2.294362e-11 -1.418176e-07)) ((-8.344226e-16 -6.729317e-14 -1.520381e-17) (-3.292195e-12 5.180801e-12 -1.285674e-14))
7556.502067   	((2.431365e-11 2.631343e-11 -8.600441e-08) (2.061335e-11 2.227904e-11 -1.415712e-07)) ((-7.902718e-16 -6.723041e-14 -1.377132e-17) (-2.981675e-12 4.875692e-12 -1.182624e-14))
8095.96096    	((2.287821e-11 2.512215e-11 -8.595856e-08) (1.993206e-11 2.161656e-11 -1.413698e-07)) ((-7.524930e-16 -6.717891e-14 -1.154608e-17) (-2.713681e-12 4.611867e-12 -1.092004e-14))
8635.560165   	((2.164391e-11 2.410286e-11 -8.592072e-08) (1.927189e-11 2.098180e-11 -1.412050e-07)) ((-7.199608e-16 -6.713614e-14 -9.849632e-18) (-2.483470e-12 4.384813e-12 -1.025349e-14))
9175.275526   	((2.059659e-11 2.320573e-11 -8.588934e-08) (1.864208e-11 2.037245e-11 -1.410700e-07)) ((-6.926695e-16 -6.710047e-14 -8.321360e-18) (-2.286497e-12 4.190004e-12 -9.675679e-15))
9715.087158   	((1.968767e-11 2.242442e-11 -8.586338e-08) (1.804751e-11 1.979940e-11 -1.409592e-07)) ((-6.705455e-16 -6.707208e-14 -7.337461e-18) (-2.118671e-12 4.023508e-12 -9.204156e-15))
10254.978562  	((1.888479e-11 2.174705e-11 -8.584178e-08) (1.749368e-11 1.926127e-11 -1.408682e-07)) ((-6.512330e-16 -6.705002e-14 -6.939886e-18) (-1.975989e-12 3.881785e-12 -8.797312e-15))
10794.93613   	((1.818845e-11 2.116273e-11 -8.582387e-08) (1.698019e-11 1.876318e-11 -1.407933e-07)) ((-6.347064e-16 -6.703274e-14 -6.789823e-18) (-1.854918e-12 3.761562e-12 -8.404383e-15))
11334.948575  	((1.758726e-11 2.065762e-11 -8.580897e-08) (1.651098e-11 1.830623e-11 -1.407316e-07)) ((-6.209394e-16 -6.701848e-14 -6.682388e-18) (-1.752445e-12 3.659858e-12 -8.048413e-15))
11875.006564  	((1.706925e-11 2.022542e-11 -8.579657e-08) (1.608662e-11 1.789220e-11 -1.406807e-07)) ((-6.093044e-16 -6.700715e-14 -6.653416e-18) (-1.665967e-12 3.574028e-12 -7.729333e-15))
12415.102359  	((1.662573e-11 1.985480e-11 -8.578625e-08) (1.570592e-11 1.752003e-11 -1.406387e-07)) ((-5.994713e-16 -6.699795e-14 -6.594557e-18) (-1.593144e-12 3.501766e-12 -7.463133e-15))
12955.229552  	((1.624714e-11 1.954055e-11 -8.577763e-08) (1.536709e-11 1.718748e-11 -1.406039e-07)) ((-5.913234e-16 -6.699049e-14 -6.537493e-18) (-1.531961e-12 3.441078e-12 -7.245489e-15))
13495.382831  	((1.592910e-11 1.927290e-11 -8.577045e-08) (1.506807e-11 1.689365e-11 -1.405752e-07)) ((-5.843505e-16 -6.698457e-14 -6.526593e-18) (-1.480669e-12 3.390178e-12 -7.068770e-15))
14035.557791  	((1.566335e-11 1.904757e-11 -8.576444e-08) (1.480600e-11 1.663559e-11 -1.405513e-07)) ((-5.785519e-16 -6.697968e-14 -6.505249e-18) (-1.437742e-12 3.347558e-12 -6.921055e-15))
14575.750772  	((1.544178e-11 1.885795e-11 -8.575943e-08) (1.457790e-11 1.641000e-11 -1.405316e-07)) ((-5.738258e-16 -6.697560e-14 -6.451459e-18) (-1.401868e-12 3.311933e-12 -6.794779e-15))
15115.958747  	((1.525468e-11 1.870124e-11 -8.575520e-08) (1.438044e-11 1.621424e-11 -1.405152e-07)) ((-5.697840e-16 -6.697227e-14 -6.419549e-18) (-1.371940e-12 3.282199e-12 -6.691090e-15))
15656.179196  	((1.509865e-11 1.857120e-11 -8.575172e-08) (1.421031e-11 1.604522e-11 -1.405015e-07)) ((-5.664809e-16 -6.696938e-14 -6.433473e-18) (-1.347007e-12 3.257416e-12 -6.606117e-15))
16196.410025  	((1.496995e-11 1.846294e-11 -8.574877e-08) (1.406441e-11 1.590025e-11 -1.404902e-07)) ((-5.635726e-16 -6.696713e-14 -6.370920e-18) (-1.326263e-12 3.236803e-12 -6.531439e-15))
16736.649497  	((1.486409e-11 1.837604e-11 -8.574634e-08) (1.394031e-11 1.577669e-11 -1.404807e-07)) ((-5.611663e-16 -6.696514e-14 -6.346656e-18) (-1.309030e-12 3.219666e-12 -6.470898e-15))
17276.896172  	((1.477707e-11 1.830061e-11 -8.574432e-08) (1.383492e-11 1.567159e-11 -1.404728e-07)) ((-5.593819e-16 -6.696353e-14 -6.313426e-18) (-1.294710e-12 3.205429e-12 -6.419018e-15))
17817.148843  	((1.470419e-11 1.824103e-11 -8.574261e-08) (1.374568e-11 1.558266e-11 -1.404663e-07)) ((-5.574889e-16 -6.696215e-14 -6.325096e-18) (-1.282836e-12 3.193613e-12 -6.374606e-15))
