# Forces      
# CofR        : (0.000000e+00 0.000000e+00 0.000000e+00)
# Time        forces(pressure viscous)	moments(pressure viscous)
0             	((0.000000e+00 0.000000e+00 0.000000e+00) (-5.526741e-14 5.044799e-15 -7.992883e-04)) ((0.000000e+00 0.000000e+00 0.000000e+00) (-1.518880e-15 -3.091353e-10 -1.395953e-16))
0.012         	((-1.904086e-07 -1.524395e-07 -2.323002e-01) (5.293835e-10 3.884352e-10 -9.155138e-04)) ((-7.873089e-11 -6.165634e-08 -3.005391e-13) (5.585444e-12 -8.760293e-10 -6.327715e-14))
0.0264        	((-4.020542e-06 -4.110865e-06 2.014068e-02) (-2.203281e-09 -2.669502e-09 -9.298665e-04)) ((-2.935648e-11 4.669769e-09 1.467827e-11) (6.530418e-12 -1.167570e-09 -2.285887e-12))
0.04368       	((5.818129e-06 4.222271e-06 4.642396e-02) (-7.928601e-10 -2.539992e-09 -8.223782e-04)) ((5.421778e-10 1.047841e-08 -1.337230e-11) (-1.593916e-11 -1.161134e-09 -2.876727e-12))
0.064416      	((-1.558956e-06 -1.444970e-06 4.205988e-04) (-4.484002e-09 3.692705e-09 -7.266672e-04)) ((-1.683171e-10 -4.851205e-10 1.012829e-11) (-6.994938e-11 -1.460660e-09 -2.621322e-12))
0.0892992     	((-3.220689e-07 9.031979e-07 -2.590188e-04) (-9.742274e-09 3.875113e-09 -6.697694e-04)) ((-7.013117e-11 5.186916e-11 -3.949229e-12) (-1.515204e-10 -1.882685e-09 1.151598e-11))
0.119159      	((-9.782154e-07 -4.339924e-07 8.097272e-04) (-1.423523e-08 -7.240877e-10 -6.183950e-04)) ((-3.123298e-11 1.626137e-10 6.627366e-12) (-1.684330e-10 -2.065409e-09 1.417934e-11))
0.154991      	((-1.062237e-07 -1.000880e-07 3.356774e-04) (-1.709940e-08 -2.811273e-09 -5.653201e-04)) ((2.068177e-11 -2.338967e-10 -2.829243e-12) (-1.840328e-10 -1.966840e-09 5.892248e-12))
0.197989      	((-7.967424e-08 1.259342e-08 5.645800e-05) (-1.612595e-08 -3.559371e-09 -5.135692e-04)) ((-6.925407e-12 -2.394958e-10 2.942846e-13) (-2.019467e-10 -1.771699e-09 9.653276e-12))
0.249587      	((9.605946e-09 -6.329545e-08 -3.870695e-05) (-1.569578e-08 -4.780097e-09 -4.648495e-04)) ((1.917728e-12 -2.570842e-10 1.024438e-12) (-1.731686e-10 -1.667309e-09 1.850093e-11))
0.311504      	((-1.278655e-07 -7.998118e-08 -8.713097e-05) (-1.572293e-08 -6.114250e-09 -4.204584e-04)) ((4.250064e-12 -2.797891e-10 4.822350e-13) (-1.237574e-10 -1.664175e-09 2.623104e-11))
0.385805      	((-1.087873e-07 -6.650145e-08 -1.139302e-04) (-1.262295e-08 -5.619216e-09 -3.810568e-04)) ((4.605484e-12 -2.756073e-10 5.556141e-13) (-8.661086e-11 -1.792811e-09 1.939341e-11))
0.474966      	((-3.899715e-08 -3.972033e-08 -1.266710e-04) (-4.575375e-09 -4.011270e-09 -3.466079e-04)) ((9.118786e-13 -2.544120e-10 4.585364e-13) (-6.775426e-11 -2.079197e-09 5.672510e-12))
0.581959      	((-1.479578e-08 -2.810111e-08 -1.312527e-04) (-4.235796e-10 -3.240082e-09 -3.162563e-04)) ((2.718093e-13 -2.313079e-10 4.221969e-13) (-4.930058e-11 -2.294582e-09 -2.455567e-14))
0.710351      	((-1.374180e-08 -1.280028e-08 -1.307131e-04) (-8.569829e-10 -2.546562e-09 -2.885191e-04)) ((7.268319e-13 -2.141365e-10 1.873668e-13) (-3.922522e-11 -2.191534e-09 -1.543908e-12))
0.864421      	((-5.045360e-09 -4.195068e-09 -1.267232e-04) (4.711434e-10 -1.841043e-09 -2.623297e-04)) ((2.770112e-13 -1.915809e-10 4.122605e-14) (-4.182762e-11 -1.814021e-09 -3.225145e-12))
1.049306      	((2.326962e-09 -1.607068e-09 -1.205578e-04) (2.721274e-10 -1.314687e-09 -2.376260e-04)) ((2.593533e-13 -1.712680e-10 -1.278139e-13) (-4.857608e-11 -1.264442e-09 -5.484535e-12))
1.271167      	((1.116886e-08 3.184833e-09 -1.135047e-04) (-1.791489e-09 -8.281223e-10 -2.147671e-04)) ((2.178411e-14 -1.571374e-10 -2.078070e-13) (-5.160142e-11 -8.721301e-10 -7.063556e-12))
1.5374        	((-1.606967e-08 1.336936e-09 -1.067641e-04) (-2.563233e-09 -5.095978e-10 -1.940710e-04)) ((-1.980980e-13 -1.453897e-10 -2.111517e-13) (-5.944185e-11 -8.089086e-10 -7.869849e-12))
1.85688       	((-2.434187e-08 -3.306900e-09 -1.011019e-04) (-2.832194e-09 -5.027406e-10 -1.756732e-04)) ((-6.389263e-13 -1.317187e-10 -2.267752e-13) (-6.752059e-11 -8.474813e-10 -6.605314e-12))
2.240256      	((-2.396999e-08 1.158561e-10 -9.693920e-05) (-1.981455e-09 -5.186712e-10 -1.595089e-04)) ((-1.039471e-12 -1.180624e-10 -2.848782e-13) (-7.617390e-11 -8.034798e-10 -4.321637e-12))
2.700307      	((-2.672031e-08 -1.113808e-08 -9.439379e-05) (-3.362817e-10 -7.329852e-10 -1.454092e-04)) ((-1.136624e-12 -1.091347e-10 -2.461546e-13) (-9.007734e-11 -6.366527e-10 -1.107796e-12))
3.252369      	((-2.473925e-08 -1.949160e-08 -9.375263e-05) (-2.825315e-11 -1.235988e-09 -1.331941e-04)) ((-1.313474e-12 -1.010740e-10 -2.897385e-13) (-1.094938e-10 -3.536609e-10 3.470805e-12))
3.914842      	((-2.799955e-08 -2.800170e-08 -9.493064e-05) (-2.930610e-10 -1.858114e-09 -1.227149e-04)) ((-1.351356e-12 -9.423535e-11 -3.006500e-13) (-1.220490e-10 -1.577172e-10 6.500403e-12))
4.709811      	((-3.836356e-08 -3.509615e-08 -9.826654e-05) (-1.219387e-09 -2.623554e-09 -1.138233e-04)) ((-1.120487e-12 -8.799541e-11 -2.946374e-13) (-1.109956e-10 -1.126107e-10 8.505158e-12))
5.663773      	((-4.209420e-08 -3.648121e-08 -1.038391e-04) (-2.098412e-09 -3.191463e-09 -1.063362e-04)) ((-7.739111e-13 -8.301637e-11 -2.278080e-13) (-8.040261e-11 -1.405714e-10 1.005406e-11))
6.808528      	((-4.283818e-08 -3.206558e-08 -1.116014e-04) (-3.986718e-09 -3.493978e-09 -1.001198e-04)) ((-8.107177e-13 -7.866641e-11 -1.995973e-13) (-5.975266e-11 -2.343179e-10 9.940101e-12))
8.177152      	((-3.413829e-08 -2.810943e-08 -1.214379e-04) (-5.582615e-09 -3.962558e-09 -9.504788e-05)) ((-9.331843e-13 -7.398330e-11 -1.758284e-13) (-4.718831e-11 -3.073650e-10 9.612776e-12))
9.770203      	((-2.262213e-08 -1.777818e-08 -1.329927e-04) (-5.684050e-09 -4.377136e-09 -9.101613e-05)) ((-7.375355e-13 -7.057631e-11 -1.352615e-13) (-2.857416e-11 -3.432613e-10 1.013673e-11))
11.587956     	((-2.809539e-08 -1.385508e-08 -1.455454e-04) (-5.973728e-09 -4.787660e-09 -8.789853e-05)) ((-7.400957e-13 -6.609826e-11 -1.055544e-13) (-1.850956e-11 -4.565112e-10 1.157930e-11))
13.630065     	((-3.694405e-08 -1.170076e-08 -1.587385e-04) (-8.046260e-09 -5.306992e-09 -8.553149e-05)) ((-3.055158e-13 -6.281375e-11 -8.119387e-14) (-2.048131e-11 -9.507051e-10 1.184978e-11))
15.864066     	((-3.612128e-08 -8.768072e-09 -1.715816e-04) (-9.757116e-09 -5.286958e-09 -8.371399e-05)) ((-2.307823e-13 -6.035465e-11 -7.749397e-14) (-1.833278e-11 -1.830000e-09 9.739627e-12))
18.084537     	((-2.933091e-08 -2.263670e-09 -1.827637e-04) (-7.760502e-09 -3.864150e-09 -8.236484e-05)) ((-1.906214e-13 -6.082415e-11 -3.775574e-14) (3.125587e-11 -2.522946e-09 7.250180e-12))
20.293639     	((-6.232329e-09 2.589753e-08 -1.919023e-04) (-3.673177e-09 -1.221927e-09 -8.118006e-05)) ((1.921039e-13 -6.075278e-11 -3.716990e-14) (1.054355e-10 -2.866698e-09 8.771374e-12))
22.499086     	((8.807808e-09 5.407327e-08 -1.980816e-04) (-1.976544e-10 2.526650e-09 -8.006438e-05)) ((5.821469e-13 -6.100613e-11 -6.265872e-14) (1.885272e-10 -2.817470e-09 1.077418e-11))
24.710394     	((2.069301e-08 8.345597e-08 -2.024837e-04) (3.258681e-09 6.600044e-09 -7.905164e-05)) ((9.448555e-13 -6.096431e-11 -1.054960e-13) (2.695928e-10 -2.538678e-09 9.414096e-12))
26.932841     	((5.323302e-09 9.090813e-08 -2.044220e-04) (3.175118e-09 9.350987e-09 -7.814160e-05)) ((8.305286e-13 -6.174253e-11 -1.023324e-13) (2.925251e-10 -2.310626e-09 1.153911e-11))
29.166746     	((-5.264049e-09 1.037238e-07 -2.046595e-04) (1.450915e-09 1.074927e-08 -7.728403e-05)) ((7.933551e-13 -6.281547e-11 -1.552120e-13) (2.644399e-10 -2.128832e-09 1.351141e-11))
31.410431     	((-1.853416e-08 1.192046e-07 -2.037049e-04) (5.003725e-10 1.160423e-08 -7.643359e-05)) ((7.689118e-13 -6.347714e-11 -2.141574e-13) (1.968938e-10 -1.967665e-09 1.393577e-11))
33.662845     	((-2.129923e-08 1.363113e-07 -2.025209e-04) (1.005395e-09 1.209731e-08 -7.562281e-05)) ((9.439776e-13 -6.387220e-11 -2.282811e-13) (9.538300e-11 -1.884558e-09 1.377012e-11))
35.923719     	((-1.457967e-08 1.544257e-07 -2.015305e-04) (2.337767e-09 1.294202e-08 -7.489553e-05)) ((1.063090e-12 -6.398525e-11 -2.016510e-13) (-1.953544e-12 -1.847358e-09 1.501538e-11))
38.19223      	((-2.330280e-08 1.661874e-07 -2.002013e-04) (2.835696e-09 1.379220e-08 -7.424081e-05)) ((1.072542e-12 -6.349382e-11 -1.109093e-13) (-9.815546e-11 -1.729947e-09 1.439939e-11))
40.466842     	((-1.374668e-08 1.815483e-07 -1.986101e-04) (2.460785e-09 1.437478e-08 -7.362978e-05)) ((1.324397e-12 -6.331199e-11 -4.316654e-15) (-2.077052e-10 -1.501636e-09 1.301167e-11))
42.744551     	((7.326245e-09 1.958867e-07 -1.970269e-04) (2.006634e-09 1.468519e-08 -7.305146e-05)) ((1.602043e-12 -6.286428e-11 3.644091e-14) (-3.198764e-10 -1.221214e-09 1.377254e-11))
45.025447     	((2.864727e-08 2.043187e-07 -1.959034e-04) (1.199324e-09 1.490164e-08 -7.251512e-05)) ((1.663238e-12 -6.201294e-11 4.689012e-14) (-4.293291e-10 -8.763096e-10 1.415609e-11))
47.310237     	((5.754224e-08 2.259379e-07 -1.948271e-04) (-2.708607e-10 1.533681e-08 -7.201676e-05)) ((1.799689e-12 -6.097549e-11 6.548587e-14) (-5.334785e-10 -5.130734e-10 1.390566e-11))
49.599056     	((1.307454e-07 2.731401e-07 -1.938654e-04) (-2.486720e-10 1.708184e-08 -7.154847e-05)) ((2.188649e-12 -6.040316e-11 5.976110e-14) (-6.301867e-10 -1.818300e-10 1.477003e-11))
51.892136     	((1.803133e-07 3.033153e-07 -1.930195e-04) (1.613663e-09 1.963966e-08 -7.111368e-05)) ((2.303960e-12 -5.938906e-11 4.997200e-14) (-7.232772e-10 1.146767e-10 1.504318e-11))
54.189571     	((2.436948e-07 3.371454e-07 -1.921883e-04) (4.567754e-09 2.217908e-08 -7.071034e-05)) ((2.642175e-12 -5.858527e-11 6.653259e-14) (-8.162704e-10 3.776035e-10 1.514756e-11))
56.491688     	((3.222346e-07 3.793609e-07 -1.915049e-04) (9.621608e-09 2.497351e-08 -7.034067e-05)) ((3.025292e-12 -5.781399e-11 8.032405e-14) (-9.075518e-10 6.143776e-10 1.578621e-11))
58.799078     	((4.050685e-07 4.305065e-07 -1.908979e-04) (1.611249e-08 2.845182e-08 -7.000288e-05)) ((3.466319e-12 -5.715648e-11 6.793372e-14) (-9.968494e-10 8.279670e-10 1.537458e-11))
61.11176      	((4.838003e-07 4.752101e-07 -1.902788e-04) (2.341340e-08 3.224614e-08 -6.968996e-05)) ((4.047032e-12 -5.679093e-11 7.564118e-14) (-1.078826e-09 1.016933e-09 1.431595e-11))
63.429604     	((5.681526e-07 5.351527e-07 -1.895858e-04) (3.161605e-08 3.676442e-08 -6.939509e-05)) ((4.708133e-12 -5.649823e-11 5.292863e-14) (-1.157586e-09 1.188391e-09 1.415562e-11))
65.75251      	((6.539471e-07 5.972921e-07 -1.889029e-04) (4.047426e-08 4.210403e-08 -6.911689e-05)) ((5.358333e-12 -5.640019e-11 4.752240e-14) (-1.234353e-09 1.324595e-09 1.373673e-11))
68.08028      	((7.435389e-07 6.705419e-07 -1.880802e-04) (5.004474e-08 4.813270e-08 -6.884827e-05)) ((5.971431e-12 -5.628295e-11 6.670987e-14) (-1.316722e-09 1.435144e-09 1.300366e-11))
70.412756     	((8.247911e-07 7.417210e-07 -1.873265e-04) (5.989271e-08 5.453518e-08 -6.858856e-05)) ((6.419601e-12 -5.603959e-11 8.471316e-14) (-1.408800e-09 1.538311e-09 1.261494e-11))
72.749824     	((9.029379e-07 8.129964e-07 -1.867404e-04) (6.984629e-08 6.122214e-08 -6.834452e-05)) ((6.805290e-12 -5.574845e-11 1.079265e-13) (-1.498471e-09 1.619327e-09 1.246152e-11))
75.091381     	((1.011652e-06 9.044335e-07 -1.862494e-04) (8.114741e-08 6.906128e-08 -6.811797e-05)) ((7.449441e-12 -5.588584e-11 1.281734e-13) (-1.586307e-09 1.688586e-09 1.174709e-11))
77.437351     	((1.104347e-06 9.888460e-07 -1.857065e-04) (9.281759e-08 7.743690e-08 -6.790401e-05)) ((7.931799e-12 -5.593534e-11 1.312642e-13) (-1.676606e-09 1.747116e-09 1.179546e-11))
79.78768      	((1.222472e-06 1.098353e-06 -1.851696e-04) (1.049852e-07 8.682851e-08 -6.769886e-05)) ((8.655149e-12 -5.635983e-11 9.273309e-14) (-1.770528e-09 1.796761e-09 1.183304e-11))
82.142231     	((1.375385e-06 1.223350e-06 -1.846824e-04) (1.189158e-07 9.767578e-08 -6.750158e-05)) ((9.455598e-12 -5.719183e-11 6.253246e-14) (-1.872116e-09 1.862622e-09 1.224165e-11))
84.500812     	((1.548668e-06 1.365480e-06 -1.841719e-04) (1.347565e-07 1.099732e-07 -6.730934e-05)) ((1.043110e-11 -5.831886e-11 1.560929e-14) (-1.985491e-09 1.952606e-09 1.314984e-11))
86.863256     	((1.736177e-06 1.525377e-06 -1.836337e-04) (1.519929e-07 1.237588e-07 -6.712120e-05)) ((1.161401e-11 -5.962521e-11 -3.597393e-14) (-2.124511e-09 2.074141e-09 1.410439e-11))
89.229413     	((1.985048e-06 1.715462e-06 -1.831049e-04) (1.719171e-07 1.394354e-07 -6.693941e-05)) ((1.290437e-11 -6.140418e-11 -1.136629e-13) (-2.296388e-09 2.240458e-09 1.598797e-11))
91.599135     	((2.235747e-06 1.912508e-06 -1.825451e-04) (1.941242e-07 1.569514e-07 -6.676347e-05)) ((1.407762e-11 -6.290467e-11 -1.783433e-13) (-2.501186e-09 2.458347e-09 1.763912e-11))
93.972282     	((2.509568e-06 2.124702e-06 -1.820511e-04) (2.177978e-07 1.757188e-07 -6.659465e-05)) ((1.519197e-11 -6.405729e-11 -2.592731e-13) (-2.739341e-09 2.741821e-09 1.824210e-11))
96.348736     	((2.819140e-06 2.366304e-06 -1.816296e-04) (2.431739e-07 1.961171e-07 -6.643530e-05)) ((1.632524e-11 -6.515807e-11 -3.576908e-13) (-3.012810e-09 3.106316e-09 1.753182e-11))
98.728379     	((3.183824e-06 2.640255e-06 -1.812367e-04) (2.715851e-07 2.189112e-07 -6.628449e-05)) ((1.798516e-11 -6.678215e-11 -4.666511e-13) (-3.321554e-09 3.553248e-09 1.696002e-11))
101.111078    	((3.598600e-06 2.952921e-06 -1.808779e-04) (3.043138e-07 2.450359e-07 -6.614134e-05)) ((1.990880e-11 -6.855833e-11 -5.430629e-13) (-3.660993e-09 4.070615e-09 1.675292e-11))
103.496699    	((4.059438e-06 3.298738e-06 -1.805339e-04) (3.419293e-07 2.750744e-07 -6.600539e-05)) ((2.195395e-11 -7.038312e-11 -6.135662e-13) (-4.023198e-09 4.647546e-09 1.616951e-11))
105.885084    	((4.538103e-06 3.656301e-06 -1.802087e-04) (3.832930e-07 3.081362e-07 -6.587651e-05)) ((2.394094e-11 -7.208648e-11 -6.652402e-13) (-4.403858e-09 5.276965e-09 1.381884e-11))
108.276084    	((5.045316e-06 4.034868e-06 -1.798786e-04) (4.278336e-07 3.437046e-07 -6.575403e-05)) ((2.619083e-11 -7.399231e-11 -7.225194e-13) (-4.800488e-09 5.950042e-09 1.091543e-11))
110.669559    	((5.591241e-06 4.442595e-06 -1.795448e-04) (4.762446e-07 3.821488e-07 -6.563716e-05)) ((2.870412e-11 -7.628949e-11 -8.032468e-13) (-5.209715e-09 6.650019e-09 8.474047e-12))
113.065382    	((6.181009e-06 4.888093e-06 -1.792095e-04) (5.290485e-07 4.238749e-07 -6.552494e-05)) ((3.159824e-11 -7.885561e-11 -9.140677e-13) (-5.638268e-09 7.371694e-09 6.539205e-12))
115.463428    	((6.813776e-06 5.375180e-06 -1.788747e-04) (5.866068e-07 4.694433e-07 -6.541641e-05)) ((3.471950e-11 -8.160262e-11 -1.024150e-12) (-6.095492e-09 8.117221e-09 4.136316e-12))
117.863562    	((7.506573e-06 5.910792e-06 -1.785664e-04) (6.498524e-07 5.196012e-07 -6.531172e-05)) ((3.808247e-11 -8.482946e-11 -1.143749e-12) (-6.581014e-09 8.882388e-09 2.261841e-12))
120.265643    	((8.248586e-06 6.494785e-06 -1.782862e-04) (7.190937e-07 5.744596e-07 -6.521144e-05)) ((4.178074e-11 -8.840868e-11 -1.266622e-12) (-7.106178e-09 9.664529e-09 3.299865e-12))
122.669539    	((9.047866e-06 7.133318e-06 -1.780420e-04) (7.945165e-07 6.342651e-07 -6.511636e-05)) ((4.588448e-11 -9.239572e-11 -1.457057e-12) (-7.684428e-09 1.046377e-08 6.656851e-12))
125.075121    	((9.914585e-06 7.836765e-06 -1.778200e-04) (8.769060e-07 6.998625e-07 -6.502674e-05)) ((5.050135e-11 -9.702482e-11 -1.659570e-12) (-8.312383e-09 1.127464e-08 1.177520e-11))
127.482261    	((1.084405e-05 8.603061e-06 -1.776361e-04) (9.663491e-07 7.718308e-07 -6.494317e-05)) ((5.543410e-11 -1.021752e-10 -1.866091e-12) (-8.982382e-09 1.211207e-08 1.430790e-11))
129.890819    	((1.185037e-05 9.433040e-06 -1.774827e-04) (1.063558e-06 8.505545e-07 -6.486644e-05)) ((6.068395e-11 -1.080147e-10 -2.063658e-12) (-9.696525e-09 1.297662e-08 1.412626e-11))
132.300664    	((1.296129e-05 1.035770e-05 -1.773363e-04) (1.170259e-06 9.373103e-07 -6.479588e-05)) ((6.663168e-11 -1.147773e-10 -2.285524e-12) (-1.047637e-08 1.387505e-08 1.561344e-11))
134.710827    	((1.419869e-05 1.138463e-05 -1.772139e-04) (1.288334e-06 1.033501e-06 -6.473165e-05)) ((7.328526e-11 -1.226022e-10 -2.544371e-12) (-1.132832e-08 1.481910e-08 1.771462e-11))
137.12079     	((1.557640e-05 1.252422e-05 -1.771091e-04) (1.419571e-06 1.140244e-06 -6.467374e-05)) ((8.060454e-11 -1.314790e-10 -2.823123e-12) (-1.226181e-08 1.581634e-08 1.844625e-11))
139.530311    	((1.710680e-05 1.378659e-05 -1.770226e-04) (1.565647e-06 1.258391e-06 -6.462123e-05)) ((8.873312e-11 -1.415310e-10 -3.136809e-12) (-1.329593e-08 1.689305e-08 2.090137e-11))
141.939119    	((1.881510e-05 1.517921e-05 -1.769760e-04) (1.728057e-06 1.388335e-06 -6.457373e-05)) ((9.777624e-11 -1.527922e-10 -3.461586e-12) (-1.449193e-08 1.808610e-08 2.660816e-11))
144.346917    	((2.071894e-05 1.672441e-05 -1.769577e-04) (1.908407e-06 1.531560e-06 -6.453148e-05)) ((1.078342e-10 -1.652605e-10 -3.947755e-12) (-1.585262e-08 1.944429e-08 3.559905e-11))
146.75338     	((2.283816e-05 1.844031e-05 -1.769942e-04) (2.108626e-06 1.690606e-06 -6.449635e-05)) ((1.189311e-10 -1.788208e-10 -4.516521e-12) (-1.733203e-08 2.098664e-08 4.633240e-11))
149.158146    	((2.517256e-05 2.033235e-05 -1.771086e-04) (2.330275e-06 1.866918e-06 -6.447099e-05)) ((1.309614e-10 -1.932980e-10 -5.120378e-12) (-1.893925e-08 2.271062e-08 6.139512e-11))
151.560809    	((2.775755e-05 2.241287e-05 -1.772757e-04) (2.575085e-06 2.061541e-06 -6.445556e-05)) ((1.438158e-10 -2.092667e-10 -5.751050e-12) (-2.070738e-08 2.467348e-08 7.202556e-11))
153.960932    	((3.059061e-05 2.470492e-05 -1.775262e-04) (2.843567e-06 2.276231e-06 -6.445007e-05)) ((1.577938e-10 -2.262399e-10 -6.473982e-12) (-2.264750e-08 2.694100e-08 8.366336e-11))
156.358067    	((3.371807e-05 2.721206e-05 -1.778769e-04) (3.137846e-06 2.512628e-06 -6.445517e-05)) ((1.726988e-10 -2.446328e-10 -7.256053e-12) (-2.479356e-08 2.954618e-08 9.872821e-11))
158.751735    	((3.712988e-05 2.994872e-05 -1.783700e-04) (3.460696e-06 2.772158e-06 -6.447334e-05)) ((1.888341e-10 -2.642420e-10 -8.104150e-12) (-2.714461e-08 3.247490e-08 1.133853e-10))
161.141418    	((4.085193e-05 3.293347e-05 -1.790162e-04) (3.814197e-06 3.056394e-06 -6.450816e-05)) ((2.063984e-10 -2.852717e-10 -8.949953e-12) (-2.969773e-08 3.570544e-08 1.196095e-10))
163.526548    	((4.489627e-05 3.617745e-05 -1.798308e-04) (4.200457e-06 3.367192e-06 -6.456305e-05)) ((2.251912e-10 -3.074070e-10 -9.872864e-12) (-3.240911e-08 3.919430e-08 1.061283e-10))
165.906568    	((4.930093e-05 3.969845e-05 -1.808265e-04) (4.624673e-06 3.708789e-06 -6.464064e-05)) ((2.447300e-10 -3.307029e-10 -1.087040e-11) (-3.517391e-08 4.279237e-08 7.726376e-11))
168.280929    	((5.407490e-05 4.351565e-05 -1.820436e-04) (5.092001e-06 4.085756e-06 -6.474507e-05)) ((2.650301e-10 -3.549783e-10 -1.203874e-11) (-3.791537e-08 4.639801e-08 5.310071e-11))
170.649098    	((5.919099e-05 4.760547e-05 -1.835345e-04) (5.601338e-06 4.496571e-06 -6.488092e-05)) ((2.855517e-10 -3.798079e-10 -1.344077e-11) (-4.074614e-08 5.014236e-08 2.736621e-11))
173.01053     	((6.465075e-05 5.198108e-05 -1.853169e-04) (6.151315e-06 4.940831e-06 -6.505294e-05)) ((3.063375e-10 -4.052589e-10 -1.495420e-11) (-4.374361e-08 5.412637e-08 -1.576531e-11))
175.364617    	((7.041227e-05 5.661005e-05 -1.874625e-04) (6.741333e-06 5.418211e-06 -6.526766e-05)) ((3.265701e-10 -4.298123e-10 -1.662605e-11) (-4.687820e-08 5.830514e-08 -4.576233e-11))
177.710747    	((7.644014e-05 6.144254e-05 -1.899950e-04) (7.370039e-06 5.927681e-06 -6.553101e-05)) ((3.450896e-10 -4.522321e-10 -1.839963e-11) (-5.009749e-08 6.262646e-08 -6.560120e-11))
180.048544    	((8.266763e-05 6.645961e-05 -1.929308e-04) (8.038727e-06 6.469240e-06 -6.584348e-05)) ((3.603989e-10 -4.711054e-10 -2.011166e-11) (-5.327819e-08 6.686088e-08 -9.050535e-11))
