# Forces      
# CofR        : (0.000000e+00 0.000000e+00 0.000000e+00)
# Time        forces(pressure viscous)	moments(pressure viscous)
0             	((0.000000e+00 0.000000e+00 0.000000e+00) (0.000000e+00 0.000000e+00 0.000000e+00)) ((0.000000e+00 0.000000e+00 0.000000e+00) (0.000000e+00 0.000000e+00 0.000000e+00))
0.012         	((-8.618602e-11 1.128518e-10 -2.224657e-10) (2.403816e-13 2.167864e-13 1.453440e-12)) ((1.005188e-09 -9.595330e-14 -1.962108e-15) (7.002872e-07 7.674614e-14 -3.225886e-14))
0.0264        	((9.853774e-11 1.976718e-10 -4.010264e-10) (-4.467706e-13 -1.663991e-12 1.269664e-12)) ((4.966882e-10 -7.537814e-14 1.928887e-14) (6.414252e-07 1.321739e-13 -3.132528e-14))
0.04368       	((-4.387857e-10 -2.969463e-10 -4.700016e-10) (2.167473e-12 -5.144428e-12 4.744570e-13)) ((2.752242e-10 -6.279557e-14 2.165247e-14) (5.809493e-07 7.194815e-14 5.681567e-14))
0.064416      	((1.645224e-10 -2.135215e-11 -1.075101e-10) (8.641727e-12 -7.615603e-12 -9.245922e-13)) ((1.551450e-10 -4.275874e-14 -8.028566e-15) (5.201909e-07 -7.811669e-14 1.480419e-13))
0.0892992     	((-6.462825e-11 -8.495980e-11 -1.680845e-11) (1.464951e-11 -8.471231e-12 -2.722761e-12)) ((1.172305e-10 -4.133487e-14 5.181222e-15) (4.609343e-07 -2.200149e-13 1.985294e-13))
0.119159      	((-1.277606e-11 -1.378648e-10 -3.472299e-10) (1.873878e-11 -7.880765e-12 -4.193909e-12)) ((8.443915e-11 -2.993245e-14 -1.062003e-15) (4.050168e-07 -2.976379e-13 2.120742e-13))
0.154991      	((1.430149e-10 1.688789e-10 1.107573e-10) (2.038315e-11 -6.766587e-12 -4.850787e-12)) ((6.737024e-11 -2.314969e-14 -3.405305e-15) (3.537342e-07 -3.270202e-13 1.862105e-13))
0.197989      	((1.099341e-10 1.094967e-11 -1.116347e-10) (1.967998e-11 -5.633581e-12 -5.021329e-12)) ((5.384887e-11 -1.007464e-14 -2.594102e-15) (3.082847e-07 -3.359154e-13 1.594341e-13))
0.249587      	((1.109270e-10 4.202478e-11 -9.735667e-11) (1.425764e-11 -5.082490e-12 -4.976866e-12)) ((4.475799e-11 -7.436059e-15 -5.069429e-15) (2.692928e-07 -3.213261e-13 1.451150e-13))
0.311504      	((4.376774e-11 1.013250e-10 -1.379035e-10) (1.043341e-11 -5.423208e-12 -4.358641e-12)) ((3.753686e-11 -9.295388e-15 -1.419308e-15) (2.366510e-07 -2.998291e-13 1.441295e-13))
0.385805      	((-1.185338e-10 1.301878e-10 -1.719987e-10) (1.003418e-11 -5.288086e-12 -4.513857e-12)) ((3.247090e-11 -1.041908e-14 3.333966e-15) (2.096595e-07 -2.985637e-13 1.307707e-13))
0.474966      	((-2.960002e-11 1.596152e-10 -1.717714e-10) (1.035344e-11 -4.125884e-12 -7.467572e-12)) ((2.909600e-11 -6.760079e-15 5.070797e-15) (1.872666e-07 -3.577899e-13 1.127271e-13))
0.581959      	((1.207247e-10 2.306381e-10 -8.688445e-11) (2.471134e-11 -1.031504e-12 -8.975850e-12)) ((2.608083e-11 -7.105960e-15 7.881922e-15) (1.683978e-07 -4.063744e-13 1.237090e-13))
0.710351      	((2.339261e-11 2.872749e-10 -2.014225e-10) (3.359364e-11 8.172813e-13 -8.624756e-12)) ((2.312278e-11 -9.087348e-15 9.156205e-15) (1.521720e-07 -4.460432e-13 1.906640e-13))
0.864421      	((3.196432e-11 3.505107e-10 -9.120150e-11) (3.101931e-11 -1.148933e-12 -6.902804e-12)) ((2.106786e-11 -1.407499e-14 1.153177e-14) (1.379588e-07 -4.552998e-13 3.028153e-13))
1.049306      	((4.236486e-11 3.780395e-10 -1.500698e-10) (3.123932e-11 -3.262095e-12 -2.341840e-12)) ((1.976523e-11 -1.366884e-14 9.737806e-15) (1.253327e-07 -3.850468e-13 3.834353e-13))
1.271167      	((-1.031749e-10 5.075026e-10 -2.011468e-10) (2.768316e-11 -7.458473e-12 4.058681e-14)) ((1.844385e-11 -1.223498e-14 7.884825e-15) (1.140061e-07 -3.230731e-13 5.259082e-13))
1.5374        	((-8.288664e-11 4.632409e-10 -2.950435e-10) (1.480943e-11 -1.533967e-11 4.030499e-12)) ((1.695402e-11 -6.509790e-15 6.694328e-15) (1.037903e-07 -2.323842e-13 8.286189e-13))
1.85688       	((5.217698e-11 4.235623e-10 -2.957815e-10) (8.076782e-12 -2.750797e-11 1.588089e-11)) ((1.553634e-11 -3.658288e-16 2.793184e-15) (9.458244e-08 8.755016e-14 1.223860e-12))
2.240256      	((-7.380534e-12 4.016249e-10 -3.229145e-10) (7.956758e-12 -4.695625e-11 3.464392e-11)) ((1.460070e-11 4.394000e-15 -3.331892e-15) (8.633130e-08 5.524657e-13 1.758900e-12))
2.700307      	((-1.281332e-11 2.419567e-10 -3.164307e-10) (-1.193402e-12 -7.759336e-11 5.975688e-11)) ((1.394609e-11 7.555475e-15 -5.659038e-15) (7.899691e-08 1.099696e-12 2.549317e-12))
3.252369      	((2.402011e-11 1.425255e-10 -3.228750e-10) (5.119002e-12 -1.186111e-10 8.973528e-11)) ((1.323277e-11 1.060584e-14 -6.192281e-15) (7.252588e-08 1.621492e-12 3.499014e-12))
3.914842      	((-1.373195e-11 3.990961e-11 -2.014564e-10) (1.044037e-11 -1.536095e-10 1.200338e-10)) ((1.245623e-11 6.684271e-15 -3.100008e-15) (6.683762e-08 2.163445e-12 3.983543e-12))
4.709811      	((4.894009e-11 4.964311e-11 -2.407358e-11) (3.382182e-13 -1.824444e-10 1.580538e-10)) ((1.161475e-11 5.475257e-15 -7.173702e-16) (6.181996e-08 2.692746e-12 4.233010e-12))
5.663773      	((-2.088065e-11 7.045832e-11 1.288983e-10) (-7.858848e-13 -2.014749e-10 1.859856e-10)) ((1.074037e-11 7.012502e-15 -6.610678e-16) (5.735590e-08 2.930061e-12 4.404384e-12))
6.808528      	((1.558499e-11 2.704714e-11 1.286833e-10) (-7.567225e-12 -2.058241e-10 1.915116e-10)) ((9.858936e-12 7.439161e-15 -4.294671e-15) (5.333980e-08 2.858186e-12 4.303369e-12))
8.182233      	((3.928662e-12 -5.986797e-11 1.260940e-10) (-2.204560e-11 -1.894394e-10 1.803221e-10)) ((8.999304e-12 7.241755e-15 -6.610608e-15) (4.968920e-08 2.484700e-12 3.966811e-12))
9.83068       	((-3.006978e-11 -4.238174e-11 9.879211e-11) (-4.264073e-11 -1.537577e-10 1.514674e-10)) ((8.175188e-12 7.807042e-15 -8.313557e-15) (4.634750e-08 2.125443e-12 3.281906e-12))
11.808816     	((-4.450250e-11 -3.952645e-12 5.048735e-11) (-5.126976e-11 -1.163060e-10 1.224163e-10)) ((7.419585e-12 7.340909e-15 -1.025838e-14) (4.327300e-08 1.924597e-12 2.417040e-12))
14.182579     	((-1.786220e-11 9.251647e-12 -2.563775e-11) (-5.486136e-11 -8.436940e-11 9.418792e-11)) ((6.740512e-12 6.923307e-15 -1.187784e-14) (4.043878e-08 1.684672e-12 1.603259e-12))
17.031095     	((-1.406624e-11 1.483897e-11 -1.632716e-11) (-5.043733e-11 -6.172836e-11 6.960123e-11)) ((6.141111e-12 3.212016e-15 -1.099753e-14) (3.782915e-08 1.350262e-12 9.563323e-13))
20.449314     	((3.460726e-11 2.957012e-11 1.555965e-11) (-4.759569e-11 -4.441841e-11 4.880518e-11)) ((5.612775e-12 -1.955193e-16 -8.900017e-15) (3.543751e-08 9.696110e-13 5.509778e-13))
24.551176     	((9.244831e-12 2.982509e-11 1.553378e-11) (-4.251290e-11 -2.889398e-11 3.393168e-11)) ((5.155405e-12 -2.402211e-15 -7.750471e-15) (3.325416e-08 6.915639e-13 2.766088e-13))
29.473411     	((1.557904e-11 2.824175e-11 2.555343e-12) (-3.656143e-11 -1.474915e-11 2.355691e-11)) ((4.759361e-12 -3.197817e-15 -6.517955e-15) (3.126557e-08 6.065001e-13 2.930659e-14))
35.380094     	((1.994179e-11 3.157336e-11 3.520417e-12) (-3.082648e-11 -3.669053e-12 1.598919e-11)) ((4.405043e-12 -3.908664e-15 -5.224348e-15) (2.945561e-08 6.002652e-13 -1.825853e-13))
42.468112     	((2.364196e-11 2.753131e-11 -1.295161e-11) (-2.825704e-11 1.428717e-12 1.344634e-11)) ((4.097154e-12 -3.926479e-15 -4.190353e-15) (2.780854e-08 6.297803e-13 -2.823402e-13))
50.973735     	((3.267236e-12 3.351552e-11 -1.875903e-11) (-2.564302e-11 2.421380e-12 1.441545e-11)) ((3.818724e-12 -3.803235e-15 -3.392095e-15) (2.630948e-08 6.785891e-13 -2.706216e-13))
61.180482     	((-3.911453e-12 4.690910e-11 9.122477e-12) (-2.026355e-11 -1.065527e-12 1.779175e-11)) ((3.579917e-12 -3.387094e-15 -2.568174e-15) (2.494481e-08 7.107283e-13 -1.603168e-13))
73.428578     	((2.334911e-12 4.933530e-11 2.201253e-11) (-1.245051e-11 -3.239595e-12 2.393162e-11)) ((3.369233e-12 -3.160205e-15 -2.092495e-15) (2.370291e-08 6.974562e-13 -1.100576e-14))
88.126294     	((1.334231e-12 1.613505e-11 1.805850e-11) (-7.809886e-12 -6.954474e-12 2.861331e-11)) ((3.182425e-12 -3.270937e-15 -1.146560e-15) (2.257387e-08 6.307570e-13 1.293444e-13))
105.763553    	((-1.283865e-11 -3.140426e-11 -8.907432e-12) (-3.974836e-12 -1.281868e-11 2.648812e-11)) ((3.020447e-12 -3.278799e-15 -1.282902e-16) (2.154966e-08 5.188112e-13 2.528775e-13))
126.928263    	((8.023826e-12 -3.218036e-11 -5.044256e-12) (-1.662963e-12 -1.731309e-11 2.217736e-11)) ((2.871764e-12 -2.891363e-15 -9.352118e-17) (2.062224e-08 3.737694e-13 3.442127e-13))
152.325916    	((3.136327e-11 -2.788977e-11 -4.151625e-12) (-2.332694e-13 -1.822632e-11 1.869007e-11)) ((2.737534e-12 -2.614366e-15 -4.035036e-16) (1.978283e-08 2.592714e-13 3.951026e-13))
182.803099    	((4.447368e-11 -7.464042e-12 3.260461e-12) (1.516794e-13 -1.846662e-11 1.494967e-11)) ((2.618956e-12 -2.112055e-15 -1.413379e-15) (1.902237e-08 1.903356e-13 4.383990e-13))
219.375719    	((5.210910e-11 2.369658e-12 6.401482e-12) (2.542651e-12 -1.997759e-11 1.182597e-11)) ((2.509916e-12 -1.862413e-15 -1.986089e-15) (1.833258e-08 1.509103e-13 4.829289e-13))
263.262863    	((4.535259e-11 1.356768e-11 1.310659e-11) (6.669192e-12 -1.914350e-11 9.077560e-12)) ((2.408425e-12 -1.541839e-15 -2.414469e-15) (1.770680e-08 1.348215e-13 4.960466e-13))
315.927436    	((3.304583e-11 1.755606e-11 2.122926e-11) (9.203133e-12 -1.836059e-11 6.492904e-12)) ((2.316588e-12 -1.019381e-15 -2.698676e-15) (1.714012e-08 1.184536e-13 4.892905e-13))
379.124923    	((4.469752e-11 2.084976e-11 1.594619e-11) (8.793395e-12 -1.895107e-11 4.235222e-12)) ((2.233403e-12 -8.707032e-16 -2.924767e-15) (1.662805e-08 9.166817e-14 5.080232e-13))
454.961908    	((4.164997e-11 2.093084e-11 8.390858e-12) (9.855893e-12 -1.922302e-11 2.878921e-12)) ((2.157679e-12 -6.263726e-16 -3.274731e-15) (1.616646e-08 4.599367e-14 5.547375e-13))
545.966289    	((4.046598e-11 2.471401e-11 8.236238e-12) (1.356895e-11 -1.969409e-11 7.079253e-13)) ((2.090045e-12 -4.352717e-16 -3.639769e-15) (1.575162e-08 -3.502823e-15 5.961438e-13))
655.171547    	((3.893157e-11 3.063525e-11 1.108126e-11) (1.527149e-11 -1.856424e-11 -2.239026e-13)) ((2.030018e-12 -3.272419e-16 -3.835027e-15) (1.538053e-08 -5.883630e-14 6.320339e-13))
784.711965    	((3.474808e-11 3.613800e-11 1.512765e-11) (1.581216e-11 -1.710454e-11 -1.876873e-12)) ((1.977871e-12 -2.217424e-16 -3.689748e-15) (1.505109e-08 -1.152974e-13 6.403927e-13))
934.586931    	((3.238100e-11 3.586266e-11 1.461442e-11) (1.652463e-11 -1.492799e-11 -3.121944e-12)) ((1.932575e-12 -4.041709e-16 -3.684921e-15) (1.476144e-08 -1.551818e-13 6.120952e-13))
1104.796717   	((3.129581e-11 3.730386e-11 1.704088e-11) (1.805299e-11 -1.200034e-11 -2.543189e-12)) ((1.893920e-12 -4.604450e-16 -3.582786e-15) (1.450887e-08 -1.782316e-13 5.651111e-13))
1295.342057   	((3.297792e-11 3.755765e-11 1.585172e-11) (1.880230e-11 -9.796707e-12 -2.731322e-12)) ((1.860814e-12 -4.919000e-16 -3.456512e-15) (1.429018e-08 -1.831631e-13 5.040570e-13))
1498.706038   	((3.489103e-11 3.678475e-11 1.613590e-11) (1.931319e-11 -7.860805e-12 -2.928539e-12)) ((1.831986e-12 -4.559350e-16 -3.423111e-15) (1.410263e-08 -1.745855e-13 4.406220e-13))
1702.08525    	((2.781980e-11 3.870288e-11 1.839648e-11) (1.912584e-11 -5.930831e-12 -2.665407e-12)) ((1.807867e-12 -3.821990e-16 -3.340900e-15) (1.394357e-08 -1.691882e-13 3.885796e-13))
1905.482167   	((2.447830e-11 3.962070e-11 1.874371e-11) (1.926784e-11 -4.152108e-12 -2.442165e-12)) ((1.787571e-12 -3.342712e-16 -3.328071e-15) (1.380937e-08 -1.721854e-13 3.460616e-13))
2108.890716   	((2.386683e-11 3.976440e-11 1.963705e-11) (1.912201e-11 -2.752092e-12 -2.138725e-12)) ((1.770094e-12 -3.472951e-16 -3.263897e-15) (1.369631e-08 -1.729807e-13 3.077994e-13))
2312.313776   	((2.447884e-11 3.969058e-11 1.993228e-11) (1.823070e-11 -1.411442e-12 -1.838685e-12)) ((1.755073e-12 -3.979330e-16 -3.217135e-15) (1.360077e-08 -1.716620e-13 2.742984e-13))
2515.753479   	((2.496334e-11 3.989063e-11 2.054289e-11) (1.764856e-11 -3.636986e-13 -1.652656e-12)) ((1.742131e-12 -4.292775e-16 -3.207969e-15) (1.351977e-08 -1.697208e-13 2.410567e-13))
2719.205842   	((2.271797e-11 4.003636e-11 2.017769e-11) (1.730354e-11 6.147886e-13 -1.428406e-12)) ((1.731073e-12 -4.481938e-16 -3.190992e-15) (1.345077e-08 -1.645800e-13 2.104414e-13))
2922.663331   	((2.188310e-11 3.981104e-11 2.001902e-11) (1.730195e-11 1.317138e-12 -1.065699e-12)) ((1.721691e-12 -4.836783e-16 -3.157116e-15) (1.339169e-08 -1.602396e-13 1.879005e-13))
3126.126201   	((2.246152e-11 4.008210e-11 2.014858e-11) (1.740808e-11 1.696269e-12 -7.397238e-13)) ((1.713514e-12 -5.500479e-16 -3.104062e-15) (1.334085e-08 -1.542368e-13 1.698775e-13))
3329.594462   	((2.298873e-11 4.005671e-11 2.049951e-11) (1.773160e-11 2.007258e-12 -5.332805e-13)) ((1.706291e-12 -6.007767e-16 -3.047232e-15) (1.329690e-08 -1.472150e-13 1.561905e-13))
3533.067995   	((2.266716e-11 4.027762e-11 2.062601e-11) (1.805377e-11 2.297452e-12 -3.065369e-13)) ((1.699963e-12 -6.385757e-16 -3.002618e-15) (1.325875e-08 -1.400739e-13 1.435730e-13))
3736.546713   	((2.155009e-11 3.998735e-11 2.057932e-11) (1.836100e-11 2.543266e-12 -1.175963e-13)) ((1.694425e-12 -6.793934e-16 -2.955332e-15) (1.322551e-08 -1.337853e-13 1.312366e-13))
3940.030481   	((2.094592e-11 3.966667e-11 2.033134e-11) (1.864001e-11 2.730570e-12 -2.625381e-14)) ((1.689495e-12 -7.327725e-16 -2.911120e-15) (1.319645e-08 -1.276172e-13 1.194551e-13))
4143.518993   	((2.092119e-11 3.934848e-11 2.004078e-11) (1.904012e-11 2.864639e-12 2.652639e-14)) ((1.685155e-12 -7.639862e-16 -2.864323e-15) (1.317098e-08 -1.204310e-13 1.074529e-13))
4347.012133   	((2.094966e-11 3.893866e-11 1.973702e-11) (1.939627e-11 2.936452e-12 1.032002e-13)) ((1.681403e-12 -7.946838e-16 -2.817937e-15) (1.314859e-08 -1.128071e-13 9.595348e-14))
4550.50994    	((2.079090e-11 3.846298e-11 1.948062e-11) (1.980736e-11 2.982803e-12 1.674137e-13)) ((1.678125e-12 -8.240009e-16 -2.777121e-15) (1.312884e-08 -1.048058e-13 8.613275e-14))
4754.012066   	((2.031855e-11 3.802062e-11 1.913317e-11) (2.028480e-11 3.033531e-12 2.123450e-13)) ((1.675229e-12 -8.519383e-16 -2.740179e-15) (1.311139e-08 -9.672250e-14 7.742818e-14))
