# Forces      
# CofR        : (0.000000e+00 0.000000e+00 0.000000e+00)
# Time        forces(pressure viscous)	moments(pressure viscous)
0             	((0.000000e+00 0.000000e+00 0.000000e+00) (0.000000e+00 0.000000e+00 0.000000e+00)) ((0.000000e+00 0.000000e+00 0.000000e+00) (0.000000e+00 0.000000e+00 0.000000e+00))
0.012         	((1.440512e-12 -3.583186e-10 -7.359778e-13) (1.922991e-15 -9.096841e-12 3.003885e-14)) ((9.437004e-17 -6.737155e-17 8.148525e-12) (-3.899717e-17 7.396995e-16 1.109655e-08))
0.0264        	((4.561639e-12 -5.245415e-11 3.604167e-15) (1.285220e-14 -1.343470e-11 5.447931e-14)) ((-7.145123e-17 7.123812e-16 3.734517e-12) (-1.151579e-17 2.055642e-15 1.016459e-08))
0.04368       	((3.368905e-12 -1.668009e-10 -2.635920e-12) (1.579084e-14 -1.415086e-11 7.805683e-14)) ((1.427005e-16 8.647292e-16 2.032412e-12) (2.394351e-18 3.676118e-15 9.206184e-09))
0.064416      	((5.489282e-12 2.370377e-11 2.319736e-12) (1.112843e-14 -1.221530e-11 1.279453e-13)) ((-4.592841e-17 4.567092e-16 1.090144e-12) (2.286514e-16 5.752817e-15 8.242533e-09))
0.0892992     	((-2.884146e-12 -7.410424e-11 -2.048021e-12) (6.274540e-15 -1.015833e-11 1.945693e-13)) ((2.201698e-16 1.184409e-15 8.152967e-13) (7.153240e-16 8.360074e-15 7.301858e-09))
0.119159      	((1.877562e-12 1.342112e-11 -3.182048e-13) (3.169424e-15 -8.260667e-12 2.299917e-13)) ((-8.782625e-18 8.620220e-16 6.075896e-13) (9.501642e-16 9.760717e-15 6.413313e-09))
0.154991      	((-1.090694e-12 -3.649438e-11 6.283015e-13) (-1.950562e-15 -7.460892e-12 2.375902e-13)) ((1.015531e-16 6.481800e-16 4.951894e-13) (1.189015e-15 1.017445e-14 5.597397e-09))
0.197989      	((2.193609e-13 -1.125200e-11 1.000308e-13) (-1.241909e-14 -6.475054e-12 2.340318e-13)) ((1.773058e-16 5.670072e-16 4.052142e-13) (1.559595e-15 1.020236e-14 4.873987e-09))
0.249587      	((-1.132168e-12 -2.928553e-11 -8.579162e-13) (-1.957664e-14 -5.715097e-12 2.404494e-13)) ((1.368524e-16 6.306830e-16 3.335364e-13) (1.636596e-15 9.736866e-15 4.253935e-09))
0.311504      	((4.758273e-13 -1.693586e-11 -3.662222e-13) (-1.872760e-14 -5.176468e-12 2.644926e-13)) ((8.209073e-17 3.891883e-16 2.710068e-13) (1.304368e-15 9.316567e-15 3.735759e-09))
0.385805      	((2.001097e-12 -1.322702e-11 1.017507e-13) (-9.810891e-15 -4.931933e-12 2.928285e-13)) ((3.705423e-17 1.517044e-16 2.227401e-13) (4.425708e-16 9.461771e-15 3.308260e-09))
0.474966      	((3.579080e-12 -1.336727e-11 -4.208763e-13) (5.984431e-15 -4.924561e-12 2.991275e-13)) ((3.352134e-18 9.008022e-17 1.900502e-13) (1.407416e-16 9.437231e-15 2.954612e-09))
0.581959      	((2.781440e-12 -9.101489e-12 -3.529452e-13) (-3.042359e-14 -4.514112e-12 2.321642e-13)) ((2.953176e-17 -1.173784e-16 1.613244e-13) (3.117682e-16 6.356936e-15 2.657347e-09))
0.710351      	((4.378947e-12 -6.857598e-12 2.585968e-13) (-8.259857e-14 -3.865549e-12 1.270055e-13)) ((-8.929437e-17 -2.214350e-16 1.337508e-13) (2.194312e-16 1.257573e-15 2.401983e-09))
0.864421      	((4.127966e-12 -1.192140e-11 5.652817e-13) (-1.138843e-13 -3.753352e-12 5.416901e-14)) ((-1.517691e-16 -4.754343e-16 1.145131e-13) (-3.565977e-16 -3.135232e-15 2.178310e-09))
1.049306      	((4.417879e-12 -1.882415e-11 4.152095e-13) (-1.457737e-13 -3.562108e-12 -2.439879e-14)) ((-1.661146e-16 -6.117777e-16 1.031691e-13) (6.940463e-16 -5.608577e-15 1.979548e-09))
1.271167      	((5.817545e-12 -2.138500e-11 5.114125e-14) (-1.641108e-13 -3.221118e-12 -1.300263e-13)) ((-1.410378e-16 -6.207506e-16 9.419240e-14) (3.459390e-15 -6.002306e-15 1.801103e-09))
1.5374        	((6.512399e-12 -2.317417e-11 1.590858e-13) (-3.025187e-13 -3.421719e-12 -2.288747e-13)) ((-1.594323e-16 -8.956461e-16 8.693596e-14) (7.927446e-15 -3.570401e-15 1.640046e-09))
1.85688       	((7.753974e-12 -3.188791e-11 9.101729e-13) (-5.909139e-13 -3.883854e-12 -2.083891e-13)) ((-1.927486e-16 -9.688986e-16 8.129761e-14) (1.467060e-14 4.278356e-15 1.494749e-09))
2.240256      	((6.088316e-12 -2.203303e-11 5.390492e-14) (-9.822378e-13 -3.539157e-12 -1.716673e-13)) ((-2.076623e-16 -1.029856e-15 7.920024e-14) (2.491691e-14 1.622277e-14 1.364393e-09))
2.700307      	((6.036284e-12 -1.314772e-11 -5.762030e-14) (-1.544033e-12 -2.433848e-12 -2.365013e-13)) ((-1.676883e-16 -1.038785e-15 7.676823e-14) (3.950454e-14 3.043822e-14 1.248390e-09))
3.252369      	((4.772793e-12 -9.545386e-12 -7.129062e-14) (-2.219426e-12 -1.459045e-12 -3.735809e-13)) ((-9.538820e-17 -9.660997e-16 7.294810e-14) (5.482994e-14 4.066475e-14 1.145915e-09))
3.914842      	((3.661094e-12 -6.259133e-12 -3.593698e-13) (-2.926249e-12 -5.644721e-13 -3.480652e-13)) ((-1.659944e-16 -7.962490e-16 6.727168e-14) (6.471079e-14 5.211533e-14 1.055711e-09))
4.709811      	((6.860001e-13 -3.373878e-12 -4.108221e-13) (-3.516691e-12 6.625716e-13 -1.953093e-13)) ((-7.249989e-17 -5.830111e-16 6.064127e-14) (6.935285e-14 6.051899e-14 9.762042e-10))
5.663773      	((-7.504290e-13 1.427729e-12 6.046416e-14) (-3.904498e-12 2.218008e-12 -3.574426e-14)) ((2.094892e-17 -3.967175e-16 5.469162e-14) (7.072275e-14 6.423359e-14 9.055853e-10))
6.808528      	((-9.993471e-13 1.277954e-12 -5.423602e-14) (-3.970108e-12 2.870508e-12 1.879499e-14)) ((2.650389e-17 -2.190630e-16 4.918514e-14) (6.702969e-14 6.112547e-14 8.420888e-10))
8.182233      	((-1.508982e-12 3.233275e-12 2.351531e-13) (-3.623463e-12 2.579146e-12 -7.115404e-15)) ((6.677360e-17 -1.361063e-16 4.436795e-14) (5.798859e-14 5.116144e-14 7.843909e-10))
9.83068       	((-1.317049e-12 1.232265e-12 -6.994575e-14) (-3.152068e-12 1.866552e-12 2.842733e-14)) ((1.277162e-16 4.234172e-17 4.048636e-14) (4.621543e-14 4.135946e-14 7.315643e-10))
11.808816     	((-1.636590e-13 -1.330814e-12 1.586924e-13) (-2.534904e-12 9.035378e-13 -2.440780e-14)) ((1.516939e-16 1.190623e-16 3.712821e-14) (3.504319e-14 2.877449e-14 6.829830e-10))
14.182579     	((3.335049e-13 -1.222293e-12 1.233677e-13) (-1.900336e-12 3.298025e-13 2.567516e-14)) ((1.650773e-16 2.426683e-16 3.450316e-14) (2.502480e-14 2.106181e-14 6.382462e-10))
17.031095     	((3.537681e-13 -8.864450e-13 9.989885e-14) (-1.416705e-12 6.331013e-14 9.335529e-14)) ((1.320012e-16 2.905053e-16 3.247026e-14) (1.690035e-14 1.519067e-14 5.971194e-10))
20.449314     	((5.351275e-13 -1.525597e-12 1.895918e-13) (-1.054987e-12 -1.695661e-13 3.990220e-14)) ((1.019680e-16 3.219609e-16 3.084145e-14) (1.222199e-14 8.258189e-15 5.594358e-10))
24.551176     	((6.594478e-13 -1.918708e-12 2.071838e-13) (-8.229659e-13 -9.738760e-14 -7.332008e-15)) ((8.066636e-17 3.020262e-16 2.936449e-14) (8.714950e-15 4.837186e-15 5.250026e-10))
29.473411     	((5.300074e-13 -1.717221e-12 1.534738e-13) (-6.561362e-13 1.147429e-13 -3.115007e-14)) ((6.668401e-17 2.628729e-16 2.817446e-14) (7.191569e-15 4.242184e-15 4.935916e-10))
35.380094     	((7.709824e-13 -1.746750e-12 1.525080e-13) (-5.654058e-13 3.526149e-13 -2.094868e-14)) ((7.714963e-17 2.550924e-16 2.709149e-14) (7.408201e-15 5.723379e-15 4.649217e-10))
42.468112     	((5.253469e-13 -1.690010e-12 1.457242e-13) (-5.365082e-13 5.853747e-13 -1.694950e-14)) ((9.291512e-17 2.304128e-16 2.624012e-14) (8.219339e-15 7.245198e-15 4.387494e-10))
50.973735     	((3.470746e-13 -1.741722e-12 9.853800e-14) (-5.707048e-13 8.624631e-13 -4.195954e-14)) ((8.867055e-17 2.200485e-16 2.542322e-14) (9.476787e-15 8.108281e-15 4.148795e-10))
61.180482     	((4.222729e-13 -1.579748e-12 5.845630e-14) (-5.931855e-13 1.096779e-12 -6.875965e-14)) ((7.749263e-17 2.000832e-16 2.480707e-14) (1.111709e-14 8.492190e-15 3.931419e-10))
73.428578     	((1.199342e-13 -1.282202e-12 1.897136e-14) (-6.253662e-13 1.311600e-12 -6.543985e-14)) ((7.157399e-17 1.796101e-16 2.441423e-14) (1.266803e-14 9.752531e-15 3.733914e-10))
88.126294     	((2.085292e-13 -1.329507e-12 -3.598947e-14) (-6.575787e-13 1.497519e-12 -6.833927e-14)) ((6.480738e-17 1.559291e-16 2.402864e-14) (1.398203e-14 1.106599e-14 3.554817e-10))
105.763553    	((-7.147991e-14 -1.244238e-12 -2.129602e-14) (-6.769192e-13 1.588258e-12 -5.799460e-14)) ((6.188207e-17 1.330265e-16 2.360764e-14) (1.453350e-14 1.185969e-14 3.392668e-10))
126.928263    	((-1.376510e-13 -1.085506e-12 -3.328722e-14) (-7.092725e-13 1.561762e-12 -4.633067e-14)) ((6.118584e-17 1.142272e-16 2.325008e-14) (1.422330e-14 1.209726e-14 3.246062e-10))
152.325916    	((-2.677500e-13 -1.085120e-12 -2.779422e-14) (-7.026228e-13 1.506716e-12 -2.651621e-14)) ((5.646586e-17 9.603102e-17 2.292188e-14) (1.324965e-14 1.195890e-14 3.113497e-10))
182.803099    	((-3.378315e-13 -1.128505e-12 3.986539e-15) (-6.570292e-13 1.450541e-12 -1.001520e-14)) ((5.021646e-17 7.791091e-17 2.262167e-14) (1.231788e-14 1.154187e-14 2.993392e-10))
219.375719    	((-2.588196e-13 -1.311090e-12 1.406063e-14) (-6.272972e-13 1.438906e-12 -4.592287e-15)) ((4.913878e-17 7.684637e-17 2.236297e-14) (1.199176e-14 1.142459e-14 2.884321e-10))
263.262863    	((-3.323135e-13 -1.392993e-12 3.885843e-14) (-5.790988e-13 1.492908e-12 5.354325e-15)) ((4.746800e-17 7.561866e-17 2.210975e-14) (1.149797e-14 1.138200e-14 2.785126e-10))
315.927436    	((-3.818200e-13 -1.453854e-12 1.524891e-14) (-5.703836e-13 1.470310e-12 7.948950e-15)) ((5.054972e-17 7.498355e-17 2.185925e-14) (1.090714e-14 1.166991e-14 2.694874e-10))
379.124923    	((-4.397254e-13 -1.482391e-12 2.457714e-14) (-5.669476e-13 1.414547e-12 4.175422e-15)) ((4.758614e-17 7.420139e-17 2.162358e-14) (1.047942e-14 1.188502e-14 2.612834e-10))
454.961908    	((-4.188999e-13 -1.575229e-12 2.149821e-14) (-5.526543e-13 1.351991e-12 -6.190733e-15)) ((4.514002e-17 6.690840e-17 2.140391e-14) (1.022098e-14 1.160542e-14 2.538448e-10))
545.966289    	((-3.777559e-13 -1.617805e-12 4.967883e-15) (-5.401728e-13 1.339952e-12 -1.173329e-14)) ((4.252585e-17 5.583424e-17 2.119839e-14) (9.792916e-15 1.123147e-14 2.471213e-10))
655.171547    	((-4.264218e-13 -1.707763e-12 2.708923e-14) (-5.397198e-13 1.323506e-12 -1.231241e-14)) ((3.487019e-17 5.025536e-17 2.100952e-14) (9.163340e-15 1.057891e-14 2.410635e-10))
786.217856    	((-4.643560e-13 -1.721982e-12 5.045142e-14) (-5.317410e-13 1.312404e-12 -4.367855e-15)) ((3.040312e-17 4.618171e-17 2.083029e-14) (8.301495e-15 9.840088e-15 2.356253e-10))
943.473427    	((-4.205353e-13 -1.690484e-12 5.345376e-14) (-4.844019e-13 1.297662e-12 8.097577e-15)) ((2.805910e-17 4.394450e-17 2.065646e-14) (7.367920e-15 9.184392e-15 2.307649e-10))
1132.180113   	((-3.307358e-13 -1.664922e-12 3.081468e-14) (-4.233003e-13 1.273915e-12 1.465977e-14)) ((2.771891e-17 4.387244e-17 2.049401e-14) (6.645066e-15 8.543564e-15 2.264445e-10))
1358.628135   	((-2.835719e-13 -1.713675e-12 9.092933e-15) (-3.916813e-13 1.248433e-12 1.354794e-14)) ((2.825023e-17 4.261355e-17 2.034188e-14) (6.016702e-15 7.959100e-15 2.226248e-10))
1630.365763   	((-2.665825e-13 -1.768906e-12 4.195090e-16) (-3.719089e-13 1.236078e-12 1.879780e-14)) ((2.728873e-17 4.409190e-17 2.020545e-14) (5.515248e-15 7.582609e-15 2.192655e-10))
1956.450915   	((-2.231838e-13 -1.805941e-12 6.528103e-15) (-3.587511e-13 1.224542e-12 2.286235e-14)) ((2.829359e-17 4.522715e-17 2.007757e-14) (5.163480e-15 7.295984e-15 2.163281e-10))
2347.753098   	((-2.000566e-13 -1.811242e-12 1.504833e-14) (-3.568476e-13 1.204666e-12 2.308993e-14)) ((2.950910e-17 4.643763e-17 1.996406e-14) (4.805230e-15 7.110600e-15 2.137751e-10))
2817.315718   	((-2.273567e-13 -1.812314e-12 2.715680e-14) (-3.568575e-13 1.178031e-12 2.330470e-14)) ((3.068292e-17 4.727977e-17 1.986487e-14) (4.371937e-15 6.989271e-15 2.115707e-10))
3380.790861   	((-2.317831e-13 -1.832439e-12 3.553350e-14) (-3.567624e-13 1.145475e-12 2.245228e-14)) ((2.980873e-17 4.701018e-17 1.977864e-14) (3.953733e-15 6.850732e-15 2.096797e-10))
4056.961033   	((-2.341572e-13 -1.849275e-12 5.623639e-14) (-3.604607e-13 1.114083e-12 2.217779e-14)) ((2.860641e-17 4.768844e-17 1.970415e-14) (3.566274e-15 6.611196e-15 2.080689e-10))
4868.36524    	((-2.237165e-13 -1.861094e-12 7.688170e-14) (-3.634026e-13 1.085644e-12 2.131767e-14)) ((2.909467e-17 4.613915e-17 1.963992e-14) (3.220545e-15 6.249314e-15 2.067065e-10))
5842.050288   	((-2.402729e-13 -1.876113e-12 9.501241e-14) (-3.622167e-13 1.058207e-12 2.030911e-14)) ((2.894434e-17 4.517737e-17 1.958757e-14) (2.944608e-15 5.819737e-15 2.055624e-10))
7010.472346   	((-2.437169e-13 -1.875213e-12 1.129755e-13) (-3.577660e-13 1.033432e-12 2.033376e-14)) ((2.936350e-17 4.551468e-17 1.954483e-14) (2.737412e-15 5.414282e-15 2.046086e-10))
8412.578815   	((-2.393187e-13 -1.865923e-12 1.243618e-13) (-3.541540e-13 1.012907e-12 1.989296e-14)) ((2.900746e-17 4.520702e-17 1.950933e-14) (2.618795e-15 5.164228e-15 2.038191e-10))
10095.106578  	((-2.193688e-13 -1.838767e-12 1.342099e-13) (-3.512307e-13 9.964726e-13 1.970696e-14)) ((2.877182e-17 4.532575e-17 1.948057e-14) (2.511930e-15 4.973085e-15 2.031701e-10))
12114.139893  	((-1.863926e-13 -1.812100e-12 1.393707e-13) (-3.483178e-13 9.845044e-13 2.016267e-14)) ((2.897229e-17 4.557195e-17 1.945757e-14) (2.414663e-15 4.823861e-15 2.026400e-10))
14536.979872  	((-1.614151e-13 -1.786108e-12 1.430737e-13) (-3.450106e-13 9.754289e-13 2.140768e-14)) ((2.880444e-17 4.532088e-17 1.943748e-14) (2.361327e-15 4.681372e-15 2.022095e-10))
17444.387847  	((-1.339532e-13 -1.765162e-12 1.514992e-13) (-3.383325e-13 9.668697e-13 2.201856e-14)) ((2.937742e-17 4.515287e-17 1.942199e-14) (2.289625e-15 4.571384e-15 2.018617e-10))
20933.277416  	((-1.048482e-13 -1.742347e-12 1.585854e-13) (-3.362727e-13 9.603053e-13 2.301789e-14)) ((2.961092e-17 4.497632e-17 1.940863e-14) (2.249336e-15 4.474598e-15 2.015823e-10))
25119.944899  	((-6.925373e-14 -1.716851e-12 1.647541e-13) (-3.357847e-13 9.548030e-13 2.398219e-14)) ((2.973808e-17 4.481432e-17 1.939810e-14) (2.210570e-15 4.390922e-15 2.013587e-10))
30143.945879  	((-2.235442e-14 -1.684361e-12 1.728412e-13) (-3.359024e-13 9.505263e-13 2.468854e-14)) ((3.001701e-17 4.454040e-17 1.938986e-14) (2.173030e-15 4.333104e-15 2.011804e-10))
36172.747055  	((4.306898e-14 -1.641336e-12 1.840433e-13) (-3.361302e-13 9.470956e-13 2.501895e-14)) ((3.040847e-17 4.416842e-17 1.938348e-14) (2.147091e-15 4.306543e-15 2.010387e-10))
43407.308466  	((1.292373e-13 -1.585095e-12 2.011058e-13) (-3.366246e-13 9.443758e-13 2.464897e-14)) ((3.082073e-17 4.350665e-17 1.937876e-14) (2.122850e-15 4.328616e-15 2.009263e-10))
51927.365869  	((2.339545e-13 -1.506578e-12 2.294025e-13) (-3.375267e-13 9.418917e-13 2.351661e-14)) ((3.119126e-17 4.163937e-17 1.937588e-14) (2.066859e-15 4.383209e-15 2.008374e-10))
61732.926541  	((3.969511e-13 -1.422907e-12 2.359733e-13) (-3.361563e-13 9.436959e-13 2.405080e-14)) ((3.236560e-17 4.198966e-17 1.937378e-14) (2.016855e-15 4.325364e-15 2.007673e-10))
72823.996133  	((5.951115e-13 -1.310424e-12 2.177685e-13) (-3.356767e-13 9.481778e-13 2.354920e-14)) ((3.509758e-17 4.016723e-17 1.937089e-14) (1.973350e-15 4.216976e-15 2.007121e-10))
85200.579012  	((8.158689e-13 -1.226640e-12 2.340573e-13) (-3.340340e-13 9.513190e-13 2.189585e-14)) ((3.608729e-17 4.129508e-17 1.936766e-14) (2.045512e-15 4.105122e-15 2.006688e-10))
98055.745853  	((1.050153e-12 -1.170207e-12 2.590942e-13) (-3.287098e-13 9.585912e-13 2.146602e-14)) ((3.340859e-17 4.609935e-17 1.935974e-14) (2.153297e-15 4.056462e-15 2.006350e-10))
110910.93906  	((1.304443e-12 -1.138290e-12 2.255930e-13) (-3.240439e-13 9.622971e-13 2.320439e-14)) ((4.258617e-17 3.455474e-17 1.935507e-14) (1.936370e-15 4.058673e-15 2.006084e-10))
123766.152494 	((1.589263e-12 -1.107065e-12 2.171210e-13) (-3.181562e-13 9.634892e-13 2.092498e-14)) ((3.777671e-17 3.859872e-17 1.935459e-14) (2.114175e-15 4.026154e-15 2.005876e-10))
136621.38135  	((1.728060e-12 -1.058518e-12 2.467930e-13) (-3.091304e-13 9.830471e-13 2.147591e-14)) ((4.292199e-17 4.648011e-17 1.933570e-14) (2.003764e-15 3.858566e-15 2.005718e-10))
149476.622146 	((1.947099e-12 -1.003268e-12 1.729707e-13) (-3.011672e-13 9.943475e-13 2.498917e-14)) ((4.112341e-17 3.742805e-17 1.932354e-14) (2.054745e-15 3.633995e-15 2.005596e-10))
162331.872413 	((2.126465e-12 -9.055825e-13 2.282587e-13) (-2.914412e-13 1.003392e-12 2.099186e-14)) ((4.247102e-17 4.451540e-17 1.931321e-14) (1.941364e-15 3.594062e-15 2.005499e-10))
175187.130603 	((2.224104e-12 -7.827179e-13 2.031729e-13) (-2.810357e-13 1.019465e-12 2.512234e-14)) ((4.951708e-17 4.275390e-17 1.929138e-14) (2.028951e-15 3.535174e-15 2.005424e-10))
188042.39635  	((2.452332e-12 -7.674440e-13 2.490044e-13) (-2.705856e-13 1.024528e-12 2.360855e-14)) ((3.325266e-17 1.502436e-17 1.925718e-14) (1.971369e-15 3.719177e-15 2.005365e-10))
200897.668273 	((2.510661e-12 -7.488976e-13 1.950964e-13) (-2.734066e-13 1.015841e-12 2.245040e-14)) ((3.412574e-17 2.732828e-17 1.924152e-14) (2.273089e-15 3.961023e-15 2.005319e-10))
213752.946402 	((2.499008e-12 -7.491840e-13 1.409356e-13) (-2.755535e-13 1.008781e-12 1.484343e-14)) ((3.853574e-17 4.508971e-17 1.921983e-14) (2.576745e-15 4.187274e-15 2.005269e-10))
226608.230076 	((2.403859e-12 -8.844418e-13 5.779598e-14) (-2.718592e-13 9.995302e-13 9.476000e-15)) ((3.380990e-17 4.678546e-17 1.919821e-14) (2.541333e-15 4.170641e-15 2.005217e-10))
239463.518321 	((2.248394e-12 -1.162458e-12 -5.035703e-15) (-2.737712e-13 9.821906e-13 8.989576e-15)) ((3.006371e-17 5.348135e-17 1.918751e-14) (2.583839e-15 4.238211e-15 2.005165e-10))
252318.81116  	((1.982035e-12 -1.459503e-12 -2.687011e-14) (-2.828932e-13 9.603736e-13 1.013173e-14)) ((2.819999e-17 4.330141e-17 1.917916e-14) (2.690665e-15 4.125307e-15 2.005113e-10))
265174.108449 	((1.738332e-12 -1.644942e-12 -3.213772e-14) (-2.920642e-13 9.402215e-13 9.776871e-15)) ((2.937897e-17 3.730230e-17 1.916628e-14) (2.563740e-15 4.173991e-15 2.005060e-10))
278029.409854 	((1.486771e-12 -1.818502e-12 -4.645762e-14) (-3.061958e-13 9.292642e-13 9.352018e-15)) ((2.866245e-17 3.663547e-17 1.914715e-14) (2.486347e-15 4.249100e-15 2.005009e-10))
290884.71489  	((1.276172e-12 -1.998226e-12 -6.470468e-14) (-3.196410e-13 9.247956e-13 1.096566e-14)) ((2.742822e-17 3.583528e-17 1.912778e-14) (2.446518e-15 4.277042e-15 2.004960e-10))
303740.023206 	((1.138540e-12 -2.137865e-12 -9.052461e-14) (-3.286202e-13 9.203535e-13 1.306554e-14)) ((2.679500e-17 3.707587e-17 1.911330e-14) (2.444475e-15 4.287872e-15 2.004914e-10))
