# Forces      
# CofR        : (0.000000e+00 0.000000e+00 0.000000e+00)
# Time        forces(pressure viscous)	moments(pressure viscous)
0             	((0.000000e+00 0.000000e+00 0.000000e+00) (0.000000e+00 0.000000e+00 0.000000e+00)) ((0.000000e+00 0.000000e+00 0.000000e+00) (0.000000e+00 0.000000e+00 0.000000e+00))
0.012         	((2.959844e-11 -7.149997e-09 -1.467150e-11) (6.652360e-14 -1.815570e-10 5.995893e-13)) ((1.882307e-15 -1.338717e-15 1.626229e-10) (-7.808831e-16 1.477933e-14 2.214053e-07))
0.0264        	((9.223123e-11 -1.047440e-09 7.411134e-14) (3.256950e-13 -2.681409e-10 1.084944e-12)) ((-1.416576e-15 1.423752e-14 7.456944e-11) (-2.339513e-16 4.098404e-14 2.028108e-07))
0.04368       	((7.189376e-11 -3.330758e-09 -5.263064e-11) (3.074153e-13 -2.825533e-10 1.549691e-12)) ((2.910017e-15 1.732187e-14 4.063201e-11) (8.106367e-17 7.328646e-14 1.836903e-07))
0.064416      	((1.133522e-10 4.685028e-10 4.601419e-11) (-1.258926e-13 -2.440079e-10 2.546405e-12)) ((-8.283467e-16 9.229584e-15 2.184873e-11) (4.719506e-15 1.146518e-13 1.644679e-07))
0.0892992     	((-5.004988e-11 -1.477297e-09 -4.116319e-11) (-4.007654e-13 -2.029531e-10 3.890040e-12)) ((4.508990e-15 2.372036e-14 1.637632e-11) (1.448541e-14 1.664085e-13 1.457082e-07))
0.119159      	((3.824842e-11 2.671984e-10 -6.809858e-12) (-5.610957e-13 -1.651753e-10 4.616179e-12)) ((2.613007e-17 1.733610e-14 1.223492e-11) (1.911119e-14 1.939154e-13 1.279934e-07))
0.154991      	((-2.226565e-11 -7.327661e-10 1.187597e-11) (-9.512325e-13 -1.494230e-10 4.759661e-12)) ((2.221003e-15 1.300781e-14 9.993129e-12) (2.542872e-14 2.023292e-13 1.117330e-07))
0.197989      	((-2.704848e-12 -2.303394e-10 1.899533e-12) (-1.132759e-12 -1.301030e-10 4.698221e-12)) ((3.438984e-15 1.113899e-14 8.187390e-12) (3.377864e-14 2.037284e-13 9.731769e-08))
0.249587      	((-2.013011e-11 -5.813047e-10 -1.854981e-11) (-1.212734e-12 -1.154416e-10 4.847854e-12)) ((2.472663e-15 1.233424e-14 6.743922e-12) (3.467024e-14 1.972302e-13 8.495863e-08))
0.311504      	((5.701320e-12 -3.407183e-10 -7.451840e-12) (-8.594057e-13 -1.056282e-10 5.335663e-12)) ((1.534835e-15 7.743611e-15 5.485976e-12) (2.418301e-14 1.895338e-13 7.462506e-08))
0.385805      	((5.057986e-11 -2.707464e-10 2.629105e-12) (-3.915351e-13 -1.006925e-10 5.812866e-12)) ((7.119845e-16 2.916554e-15 4.516381e-12) (7.673198e-15 1.915265e-13 6.609402e-08))
0.474966      	((6.702306e-11 -2.680322e-10 -6.687168e-12) (-3.129673e-13 -9.960547e-11 5.787133e-12)) ((2.834569e-16 1.568652e-15 3.859985e-12) (6.307603e-15 1.892426e-13 5.903045e-08))
0.581959      	((5.220148e-11 -1.851303e-10 -6.464767e-12) (-1.235398e-12 -9.122023e-11 4.600943e-12)) ((1.268548e-15 -2.478596e-15 3.275162e-12) (4.642186e-15 1.220876e-13 5.308837e-08))
0.710351      	((7.934074e-11 -1.390381e-10 4.293666e-12) (-2.744300e-12 -7.737093e-11 2.879595e-12)) ((-2.040855e-15 -4.744496e-15 2.712801e-12) (-2.223662e-15 1.932470e-14 4.798201e-08))
0.864421      	((7.881625e-11 -2.575771e-10 9.174940e-12) (-5.141172e-12 -7.420816e-11 1.153577e-12)) ((-2.722303e-15 -9.764599e-15 2.322770e-12) (-4.817123e-15 -7.053996e-14 4.350932e-08))
1.049306      	((9.595137e-11 -3.976482e-10 8.930397e-12) (-5.482188e-12 -6.965142e-11 -2.418802e-13)) ((-2.861982e-15 -1.244265e-14 2.090647e-12) (5.717548e-15 -1.151595e-13 3.953551e-08))
1.271167      	((1.277249e-10 -4.371220e-10 -2.718123e-12) (-6.926634e-12 -6.210347e-11 -2.240475e-12)) ((-4.240840e-15 -1.250503e-14 1.907742e-12) (3.831286e-14 -1.189709e-13 3.596884e-08))
1.5374        	((1.496303e-10 -4.817388e-10 6.869039e-12) (-9.191031e-12 -6.568603e-11 -4.721179e-12)) ((-4.572482e-15 -1.873249e-14 1.758688e-12) (1.268496e-13 -8.252242e-14 3.275047e-08))
1.85688       	((1.697006e-10 -6.365504e-10 1.294963e-11) (-1.328164e-11 -7.557139e-11 -4.569756e-12)) ((-5.457281e-15 -1.997992e-14 1.640280e-12) (2.636098e-13 7.425108e-14 2.984784e-08))
2.240256      	((1.297304e-10 -4.567021e-10 2.424755e-13) (-2.165524e-11 -7.090848e-11 -3.273843e-12)) ((-6.112818e-15 -2.154993e-14 1.593499e-12) (4.527369e-13 3.132716e-13 2.724469e-08))
2.700307      	((1.328927e-10 -2.934869e-10 3.429659e-13) (-3.358849e-11 -5.084947e-11 -3.996192e-12)) ((-5.466105e-15 -2.119176e-14 1.540855e-12) (7.279980e-13 5.892979e-13 2.492929e-08))
3.252369      	((1.056477e-10 -2.080501e-10 -1.142275e-12) (-4.544035e-11 -2.939637e-11 -6.214447e-12)) ((-3.693729e-15 -1.884644e-14 1.457336e-12) (1.035799e-12 8.291393e-13 2.288480e-08))
3.914842      	((8.647519e-11 -1.199899e-10 -5.362364e-12) (-5.614367e-11 -1.417297e-11 -5.098562e-12)) ((-4.776910e-15 -1.497483e-14 1.338358e-12) (1.241453e-12 1.058743e-12 2.108556e-08))
4.709811      	((9.916079e-12 -8.080418e-11 -5.351831e-12) (-6.515802e-11 7.818873e-12 -2.273329e-12)) ((-2.918189e-15 -1.044513e-14 1.203534e-12) (1.360410e-12 1.226632e-12 1.949939e-08))
5.663773      	((-7.009671e-12 1.952072e-11 5.959780e-12) (-7.149874e-11 3.718602e-11 1.338492e-12)) ((-2.848683e-15 -6.754523e-15 1.083056e-12) (1.377390e-12 1.305547e-12 1.808985e-08))
6.808528      	((-4.261370e-12 4.286170e-11 -1.476722e-12) (-6.949718e-11 4.896635e-11 2.391471e-12)) ((-2.221024e-15 -3.200516e-15 9.737431e-13) (1.266905e-12 1.227699e-12 1.682209e-08))
8.182233      	((-2.476547e-11 6.822923e-11 2.456426e-12) (-6.043954e-11 4.490135e-11 3.465346e-13)) ((-2.139596e-16 -1.908447e-15 8.774072e-13) (1.108005e-12 1.029980e-12 1.566995e-08))
9.83068       	((-2.204012e-11 1.797029e-11 -4.233376e-12) (-5.411336e-11 3.188432e-11 -8.407043e-13)) ((6.706736e-16 1.045791e-15 7.997278e-13) (9.508717e-13 8.202487e-13 1.461517e-08))
11.808816     	((-4.650695e-12 -1.792582e-11 -4.023976e-12) (-4.593827e-11 1.489250e-11 -1.312738e-12)) ((2.803962e-15 3.417797e-15 7.354297e-13) (7.423500e-13 6.000334e-13 1.364515e-08))
14.182579     	((-6.622975e-12 -2.828551e-11 1.818733e-12) (-3.648175e-11 5.713988e-12 8.656704e-14)) ((3.330462e-15 6.002474e-15 6.850271e-13) (5.464782e-13 4.620364e-13 1.275171e-08))
17.031095     	((1.486898e-13 -2.158043e-11 -2.750198e-12) (-2.989138e-11 2.857953e-14 5.238182e-13)) ((3.709804e-15 7.528294e-15 6.456990e-13) (4.045098e-13 3.271787e-13 1.192999e-08))
20.449314     	((-3.231219e-14 -3.555029e-11 -5.547880e-13) (-2.482511e-11 -4.287630e-12 -6.918317e-13)) ((3.922382e-15 7.842245e-15 6.136491e-13) (3.003629e-13 1.793341e-13 1.117687e-08))
24.551176     	((1.523048e-11 -3.317626e-11 -2.085595e-12) (-1.937793e-11 -2.883190e-12 -2.151872e-12)) ((3.618593e-15 7.565648e-15 5.842082e-13) (2.354307e-13 1.122477e-13 1.048886e-08))
29.473411     	((1.894742e-11 -2.623499e-11 -3.507406e-12) (-1.385890e-11 2.062588e-12 -3.099575e-12)) ((3.627199e-15 6.606843e-15 5.603511e-13) (2.062971e-13 1.079512e-13 9.861649e-09))
35.380094     	((1.514034e-11 -3.481929e-11 -1.840643e-12) (-1.161541e-11 5.483320e-12 -2.531769e-12)) ((3.946577e-15 6.567116e-15 5.382742e-13) (2.090243e-13 1.465616e-13 9.289700e-09))
42.468112     	((8.194894e-12 -3.485585e-11 -4.328584e-12) (-1.073743e-11 7.965883e-12 -2.070846e-12)) ((3.611465e-15 6.559332e-15 5.208549e-13) (2.212465e-13 1.936058e-13 8.767906e-09))
50.973735     	((-1.022928e-12 -3.396924e-11 1.940459e-13) (-9.943990e-12 1.123139e-11 -1.691238e-12)) ((3.503869e-15 6.231298e-15 5.055578e-13) (2.326106e-13 2.057336e-13 8.292330e-09))
61.180482     	((-1.005205e-11 -2.999589e-11 -4.900094e-12) (-9.675142e-12 1.334911e-11 -2.036955e-12)) ((3.261138e-15 5.496066e-15 4.929066e-13) (2.462624e-13 2.037354e-13 7.859465e-09))
73.428578     	((-1.196209e-11 -2.096857e-11 -3.250102e-12) (-7.942195e-12 1.591265e-11 -2.168824e-12)) ((2.935805e-15 4.822918e-15 4.827719e-13) (2.573411e-13 2.199579e-13 7.466026e-09))
88.126294     	((-5.848304e-12 -2.224630e-11 -4.155654e-12) (-6.840778e-12 1.892304e-11 -1.746025e-12)) ((2.510475e-15 3.983120e-15 4.728373e-13) (2.639843e-13 2.469870e-13 7.108776e-09))
105.763553    	((-8.690918e-12 -2.269771e-11 -3.284402e-12) (-5.283023e-12 2.305625e-11 -1.307259e-12)) ((2.131710e-15 3.306572e-15 4.636014e-13) (2.682166e-13 2.712022e-13 6.784951e-09))
126.928263    	((-1.191527e-11 -2.154976e-11 -3.371209e-12) (-5.407758e-12 2.615202e-11 -9.139351e-13)) ((1.732185e-15 2.679322e-15 4.559107e-13) (2.573181e-13 2.745577e-13 6.491881e-09))
152.325916    	((-1.479190e-11 -2.122755e-11 -2.545701e-12) (-4.700535e-12 2.634818e-11 -6.261216e-13)) ((1.475062e-15 2.156925e-15 4.488963e-13) (2.368763e-13 2.649663e-13 6.226640e-09))
182.803099    	((-1.499395e-11 -2.109940e-11 -1.755447e-12) (-3.655017e-12 2.580615e-11 -5.556169e-13)) ((1.508899e-15 1.868525e-15 4.428916e-13) (2.228720e-13 2.534835e-13 5.986266e-09))
219.375719    	((-1.316523e-11 -2.354215e-11 -9.654856e-13) (-4.528444e-12 2.522810e-11 -3.615314e-13)) ((1.714520e-15 1.667418e-15 4.374025e-13) (2.110842e-13 2.425666e-13 5.768002e-09))
263.262863    	((-1.437348e-11 -2.887019e-11 -5.097532e-13) (-5.203927e-12 2.337339e-11 -8.523669e-14)) ((1.942585e-15 1.460086e-15 4.322477e-13) (2.098409e-13 2.391542e-13 5.569681e-09))
315.927436    	((-1.567795e-11 -3.033966e-11 2.488770e-13) (-5.180026e-12 2.137094e-11 5.418684e-14)) ((2.021843e-15 1.315374e-15 4.273576e-13) (2.113445e-13 2.500147e-13 5.389633e-09))
379.124923    	((-1.366009e-11 -2.995396e-11 -2.061626e-13) (-5.225009e-12 2.009980e-11 3.904811e-13)) ((1.968610e-15 1.172876e-15 4.221632e-13) (1.998172e-13 2.635583e-13 5.226310e-09))
454.961908    	((-1.076674e-11 -2.932402e-11 8.821329e-13) (-5.756768e-12 1.888380e-11 4.555023e-13)) ((1.749242e-15 1.126754e-15 4.166516e-13) (1.882381e-13 2.603062e-13 5.078329e-09))
545.966289    	((-7.244094e-12 -2.523567e-11 3.838591e-13) (-6.932428e-12 1.830714e-11 4.878372e-13)) ((1.612141e-15 1.108508e-15 4.112105e-13) (1.809699e-13 2.510243e-13 4.944587e-09))
655.171547    	((-4.606552e-12 -2.188591e-11 4.464204e-13) (-7.468429e-12 1.828623e-11 4.749132e-13)) ((1.566184e-15 9.996986e-16 4.062927e-13) (1.775531e-13 2.354284e-13 4.824197e-09))
786.217856    	((-5.905075e-13 -2.055736e-11 4.788301e-13) (-7.631482e-12 1.806754e-11 4.619551e-13)) ((1.385054e-15 1.203775e-15 4.014569e-13) (1.701018e-13 2.151562e-13 4.716326e-09))
943.473427    	((2.630866e-12 -1.816044e-11 9.415991e-13) (-6.864503e-12 1.741509e-11 4.635499e-13)) ((1.199169e-15 1.305036e-15 3.974723e-13) (1.651273e-13 1.973486e-13 4.620122e-09))
1132.180113   	((4.992175e-12 -1.672339e-11 1.649984e-12) (-5.804326e-12 1.683085e-11 4.062648e-13)) ((9.828289e-16 1.422052e-15 3.936771e-13) (1.525763e-13 1.825778e-13 4.534685e-09))
1358.628135   	((7.121535e-12 -1.582720e-11 1.848320e-12) (-4.768738e-12 1.673579e-11 2.667983e-13)) ((6.978029e-16 1.488411e-15 3.902797e-13) (1.389400e-13 1.689934e-13 4.459161e-09))
1630.365763   	((7.277483e-12 -1.510958e-11 1.519946e-12) (-4.075020e-12 1.678355e-11 -8.316003e-14)) ((6.369625e-16 1.442493e-15 3.873051e-13) (1.344131e-13 1.562984e-13 4.392748e-09))
1956.450915   	((6.966578e-12 -1.476884e-11 1.727773e-12) (-3.516006e-12 1.666969e-11 -3.189342e-13)) ((6.429973e-16 1.403156e-15 3.846084e-13) (1.316590e-13 1.448870e-13 4.334630e-09))
2346.89189    	((6.359078e-12 -1.591210e-11 9.850754e-13) (-3.153291e-12 1.626222e-11 -4.120202e-13)) ((6.808845e-16 1.338589e-15 3.823749e-13) (1.286274e-13 1.376562e-13 4.284045e-09))
2801.693575   	((6.775452e-12 -1.808993e-11 4.853948e-13) (-3.111229e-12 1.562909e-11 -4.591429e-13)) ((7.155859e-16 1.262748e-15 3.804344e-13) (1.223716e-13 1.311701e-13 4.240331e-09))
3320.861088   	((7.208162e-12 -1.966536e-11 3.721739e-13) (-3.050992e-12 1.498376e-11 -5.062990e-13)) ((7.470597e-16 1.219718e-15 3.787851e-13) (1.165140e-13 1.251108e-13 4.202809e-09))
3904.399491   	((7.176306e-12 -2.032772e-11 3.195337e-13) (-2.926506e-12 1.457145e-11 -5.316376e-13)) ((7.611189e-16 1.176699e-15 3.773573e-13) (1.120311e-13 1.196957e-13 4.170807e-09))
4548.156477   	((7.328185e-12 -2.020501e-11 3.883914e-13) (-2.764065e-12 1.429136e-11 -5.298576e-13)) ((7.807646e-16 1.193185e-15 3.760784e-13) (1.088447e-13 1.147190e-13 4.143650e-09))
5191.957906   	((7.012789e-12 -2.001302e-11 3.822731e-13) (-2.539709e-12 1.407485e-11 -5.381667e-13)) ((7.984004e-16 1.201571e-15 3.749993e-13) (1.060698e-13 1.097868e-13 4.120810e-09))
5835.79808    	((6.331452e-12 -2.012579e-11 4.171113e-13) (-2.322559e-12 1.391375e-11 -5.307206e-13)) ((8.168240e-16 1.222262e-15 3.741392e-13) (1.044027e-13 1.042602e-13 4.101688e-09))
6479.672706   	((5.775565e-12 -2.041863e-11 6.839280e-13) (-2.139112e-12 1.373733e-11 -4.991739e-13)) ((8.355211e-16 1.239408e-15 3.734115e-13) (1.035229e-13 9.912024e-14 4.085732e-09))
7123.577498   	((5.163019e-12 -2.071274e-11 8.913067e-13) (-2.005470e-12 1.359861e-11 -4.469544e-13)) ((8.518690e-16 1.253723e-15 3.727988e-13) (1.028534e-13 9.408693e-14 4.072414e-09))
7767.508605   	((5.075943e-12 -2.076408e-11 1.092552e-12) (-1.903259e-12 1.346154e-11 -3.750336e-13)) ((8.624655e-16 1.268444e-15 3.722867e-13) (1.023818e-13 8.972990e-14 4.061306e-09))
8411.462423   	((4.948229e-12 -2.091570e-11 1.236146e-12) (-1.834095e-12 1.332376e-11 -3.056865e-13)) ((8.737314e-16 1.278239e-15 3.718686e-13) (1.020258e-13 8.639927e-14 4.052031e-09))
9055.435804   	((4.741573e-12 -2.098781e-11 1.297073e-12) (-1.786990e-12 1.318666e-11 -2.494975e-13)) ((8.837488e-16 1.284428e-15 3.715149e-13) (1.018650e-13 8.421907e-14 4.044284e-09))
9699.425944   	((4.525211e-12 -2.094244e-11 1.265685e-12) (-1.769833e-12 1.306298e-11 -2.099581e-13)) ((8.985539e-16 1.293735e-15 3.712149e-13) (1.017628e-13 8.308066e-14 4.037806e-09))
10343.430385  	((4.324766e-12 -2.094361e-11 1.314037e-12) (-1.769429e-12 1.295529e-11 -1.784399e-13)) ((9.121667e-16 1.303157e-15 3.709770e-13) (1.017427e-13 8.249736e-14 4.032386e-09))
10987.446996  	((4.221599e-12 -2.084410e-11 1.314780e-12) (-1.763231e-12 1.286955e-11 -1.545563e-13)) ((9.181400e-16 1.304380e-15 3.707699e-13) (1.016324e-13 8.191964e-14 4.027846e-09))
11631.473949  	((4.092766e-12 -2.070962e-11 1.283794e-12) (-1.759468e-12 1.279411e-11 -1.388807e-13)) ((9.259532e-16 1.306394e-15 3.705943e-13) (1.017439e-13 8.138391e-14 4.024042e-09))
12275.509695  	((3.949170e-12 -2.056755e-11 1.268973e-12) (-1.747375e-12 1.273462e-11 -1.285271e-13)) ((9.346830e-16 1.311199e-15 3.704472e-13) (1.020083e-13 8.097769e-14 4.020851e-09))
12919.552892  	((3.843823e-12 -2.043891e-11 1.263026e-12) (-1.731646e-12 1.268839e-11 -1.235143e-13)) ((9.403472e-16 1.314787e-15 3.703261e-13) (1.022954e-13 8.059575e-14 4.018174e-09))
13563.602409  	((3.766231e-12 -2.036240e-11 1.262865e-12) (-1.714958e-12 1.265390e-11 -1.227327e-13)) ((9.432684e-16 1.317586e-15 3.702250e-13) (1.024776e-13 8.017779e-14 4.015927e-09))
14207.657276  	((3.702201e-12 -2.031097e-11 1.281288e-12) (-1.695196e-12 1.262691e-11 -1.237078e-13)) ((9.452745e-16 1.320940e-15 3.701406e-13) (1.025729e-13 7.974945e-14 4.014039e-09))
14851.716673  	((3.652090e-12 -2.028288e-11 1.301544e-12) (-1.676883e-12 1.260473e-11 -1.246508e-13)) ((9.472637e-16 1.324153e-15 3.700694e-13) (1.025873e-13 7.934006e-14 4.012453e-09))
