# Forces      
# CofR        : (0.000000e+00 0.000000e+00 0.000000e+00)
# Time        forces(pressure viscous)	moments(pressure viscous)
0             	((0.000000e+00 0.000000e+00 0.000000e+00) (7.702706e-13 -1.265135e-02 1.830424e-12)) ((0.000000e+00 0.000000e+00 0.000000e+00) (-4.130752e-14 2.285665e-15 3.982197e-09))
0.012         	((3.917359e-05 -3.730510e+00 3.926002e-05) (4.477912e-09 -1.690944e-02 -5.800395e-08)) ((6.398446e-10 -2.636350e-11 6.687881e-07) (8.336375e-09 9.076982e-12 -8.015958e-09))
0.0264        	((3.522933e-05 9.831348e-01 2.158971e-05) (-6.221366e-08 -1.675018e-02 -1.584051e-07)) ((-2.004219e-08 -4.889301e-10 -9.983162e-08) (-4.990508e-09 -1.286497e-10 -1.900377e-08))
0.04368       	((-2.841429e-05 3.060979e-01 -1.741452e-06) (6.762710e-07 -1.403008e-02 9.008654e-08)) ((1.449478e-08 9.795233e-10 -1.353694e-07) (-2.992194e-09 -1.852432e-10 -5.864134e-08))
0.064416      	((-1.263491e-05 7.057704e-03 -3.936614e-05) (-8.607536e-07 -1.240335e-02 1.343147e-08)) ((-9.648840e-10 -3.091414e-10 1.182638e-08) (1.051709e-08 -2.373641e-10 -7.753867e-08))
0.0892992     	((-9.751451e-05 -1.606212e-03 -3.543814e-05) (-4.016444e-06 -1.139800e-02 -5.542824e-07)) ((-1.828066e-09 3.016060e-10 -1.318001e-08) (8.823202e-09 -6.151382e-10 -7.808718e-08))
0.119159      	((-1.096082e-04 -4.273290e-03 -1.172538e-05) (-5.941271e-06 -1.058555e-02 -4.468478e-07)) ((-9.217222e-10 -4.424513e-10 -3.147208e-09) (7.905118e-09 -6.941494e-10 -9.864999e-08))
0.154991      	((-1.224200e-04 -6.629697e-03 -5.558044e-06) (-7.285506e-06 -9.955449e-03 -2.361760e-07)) ((-3.222003e-10 -1.345843e-10 -2.848834e-10) (8.560896e-09 -6.916190e-10 -1.269855e-07))
0.197989      	((-8.592703e-05 -7.530891e-03 -5.391867e-06) (-7.479600e-06 -9.467629e-03 -1.630636e-07)) ((3.680300e-10 -7.569579e-11 1.662324e-08) (9.512668e-09 -5.760304e-11 -1.527677e-07))
0.249587      	((-4.574071e-05 -8.373916e-03 -2.971738e-06) (-6.368529e-06 -9.052900e-03 -7.378205e-08)) ((-8.328121e-11 -1.256239e-10 1.568081e-08) (1.103989e-08 -8.406987e-11 -1.821769e-07))
0.311504      	((-2.783877e-05 -9.197145e-03 -1.111605e-06) (-5.102047e-06 -8.682605e-03 3.741587e-08)) ((-1.371036e-10 1.122336e-11 2.496465e-08) (1.013602e-08 1.653629e-10 -1.839522e-07))
0.385805      	((-2.082005e-05 -1.037107e-02 1.075196e-06) (-4.548613e-06 -8.348346e-03 -6.230282e-09)) ((-1.915166e-10 -5.530628e-11 3.090570e-08) (4.587228e-09 3.271873e-10 -1.707496e-07))
0.473247      	((-5.810675e-06 -1.188133e-02 -4.032639e-08) (-3.814166e-06 -8.053654e-03 -7.689446e-08)) ((-1.882550e-10 -1.381881e-10 4.126855e-08) (2.226644e-09 3.050907e-10 -1.755734e-07))
0.573853      	((7.652990e-06 -1.380737e-02 1.201517e-06) (-2.687959e-06 -7.804575e-03 -1.070061e-07)) ((-1.555361e-10 -1.145823e-10 5.130419e-08) (1.025821e-09 3.867175e-10 -1.934743e-07))
0.687636      	((2.628187e-05 -1.609938e-02 1.678825e-06) (-1.581882e-06 -7.598978e-03 -1.046477e-07)) ((4.353495e-11 -1.445468e-10 6.420185e-08) (-1.024242e-09 4.593443e-10 -2.138718e-07))
0.814575      	((4.446382e-05 -1.851791e-02 4.755321e-06) (-4.249067e-07 -7.432781e-03 -9.912974e-09)) ((1.764148e-10 -1.392135e-10 7.915568e-08) (-1.125829e-09 4.729804e-10 -2.376414e-07))
0.945575      	((6.410717e-05 -2.117086e-02 6.736636e-06) (8.970542e-07 -7.304579e-03 3.585481e-08)) ((3.658607e-10 -1.460541e-10 9.423580e-08) (1.266485e-09 4.685813e-10 -2.688016e-07))
1.075826      	((8.836403e-05 -2.364906e-02 1.109547e-05) (2.147962e-06 -7.196687e-03 -3.505205e-08)) ((3.530008e-10 -2.496654e-10 1.069860e-07) (7.505548e-09 3.734322e-10 -3.080463e-07))
1.205298      	((1.131593e-04 -2.588716e-02 1.600065e-05) (2.940673e-06 -7.094354e-03 -1.584927e-07)) ((2.687132e-10 -3.189382e-10 1.171312e-07) (1.606567e-08 3.176625e-10 -3.553848e-07))
1.334471      	((1.366108e-04 -2.771074e-02 2.286641e-05) (3.275168e-06 -6.992565e-03 -1.319619e-07)) ((1.367304e-10 -4.681655e-10 1.237651e-07) (1.919421e-08 3.584831e-10 -3.952873e-07))
1.463886      	((1.580351e-04 -2.903817e-02 3.017773e-05) (3.214911e-06 -6.896363e-03 9.282758e-08)) ((1.863288e-10 -7.215646e-10 1.297450e-07) (1.297328e-08 3.220713e-10 -4.201103e-07))
1.593663      	((1.792118e-04 -2.975707e-02 3.820343e-05) (3.312087e-06 -6.807676e-03 3.899769e-07)) ((3.895969e-10 -9.785487e-10 1.337959e-07) (4.242316e-09 1.608803e-10 -4.467569e-07))
1.723492      	((2.080707e-04 -2.993360e-02 4.463579e-05) (3.510916e-06 -6.725778e-03 6.063226e-07)) ((4.346653e-10 -1.084848e-09 1.357452e-07) (6.068246e-10 -6.797104e-11 -4.832647e-07))
1.853021      	((2.371226e-04 -2.966468e-02 5.142774e-05) (3.661560e-06 -6.651677e-03 7.160242e-07)) ((3.988203e-10 -1.157265e-09 1.370005e-07) (2.068234e-09 9.512843e-11 -5.252918e-07))
1.982161      	((2.717258e-04 -2.905070e-02 6.200755e-05) (4.075732e-06 -6.586103e-03 8.157822e-07)) ((7.345810e-10 -1.131859e-09 1.373807e-07) (3.788013e-09 4.124527e-10 -5.610439e-07))
2.111035      	((3.066173e-04 -2.853250e-02 6.738319e-05) (4.653748e-06 -6.529445e-03 9.552222e-07)) ((9.814179e-10 -1.094431e-09 1.379487e-07) (4.182066e-09 6.080507e-10 -5.889239e-07))
2.239771      	((3.425498e-04 -2.818305e-02 7.687433e-05) (5.010983e-06 -6.480016e-03 1.142869e-06)) ((1.060521e-09 -1.030404e-09 1.377075e-07) (3.674602e-09 9.068598e-10 -6.118333e-07))
2.368389      	((3.838980e-04 -2.802874e-02 8.869959e-05) (5.279609e-06 -6.435777e-03 1.344788e-06)) ((1.175791e-09 -9.032008e-10 1.372818e-07) (4.524093e-09 1.150954e-09 -6.296062e-07))
2.496866      	((4.287550e-04 -2.799399e-02 9.776376e-05) (5.668429e-06 -6.395666e-03 1.521423e-06)) ((1.182469e-09 -7.335076e-10 1.376092e-07) (7.997960e-09 1.728531e-09 -6.441743e-07))
2.625197      	((4.918551e-04 -2.789554e-02 1.105380e-04) (6.197585e-06 -6.358025e-03 1.673526e-06)) ((1.070307e-09 -5.544099e-10 1.386323e-07) (1.383832e-08 2.576146e-09 -6.550752e-07))
2.753395      	((5.553244e-04 -2.771915e-02 1.263071e-04) (6.873756e-06 -6.321420e-03 1.827695e-06)) ((9.495276e-10 -4.051913e-10 1.395732e-07) (2.173056e-08 3.036221e-09 -6.669669e-07))
2.881467      	((6.096731e-04 -2.739765e-02 1.427115e-04) (7.662801e-06 -6.286001e-03 2.013563e-06)) ((1.007708e-09 -3.592684e-10 1.400396e-07) (2.999530e-08 3.415329e-09 -6.826539e-07))
3.009417      	((6.810545e-04 -2.708055e-02 1.621058e-04) (8.566611e-06 -6.252582e-03 2.218331e-06)) ((1.215540e-09 -1.854947e-10 1.401542e-07) (4.054650e-08 3.433754e-09 -7.052043e-07))
3.137247      	((7.653598e-04 -2.682577e-02 1.833359e-04) (9.571149e-06 -6.221958e-03 2.439780e-06)) ((1.503283e-09 6.930443e-11 1.401855e-07) (5.294158e-08 3.036325e-09 -7.297535e-07))
3.264962      	((8.679744e-04 -2.663669e-02 2.088018e-04) (1.076274e-05 -6.194442e-03 2.702811e-06)) ((1.830808e-09 3.571861e-10 1.405991e-07) (6.530655e-08 2.273926e-09 -7.520436e-07))
3.392571      	((9.757811e-04 -2.653848e-02 2.367593e-04) (1.212220e-05 -6.169852e-03 3.014561e-06)) ((2.110679e-09 5.785706e-10 1.413027e-07) (7.725222e-08 1.383438e-09 -7.764349e-07))
3.520077      	((1.095642e-03 -2.647487e-02 2.683083e-04) (1.357545e-05 -6.147603e-03 3.301142e-06)) ((2.333832e-09 8.938014e-10 1.422290e-07) (9.382662e-08 6.153710e-10 -8.043080e-07))
3.64748       	((1.240284e-03 -2.642902e-02 3.074060e-04) (1.535692e-05 -6.127300e-03 3.622245e-06)) ((2.474488e-09 1.067387e-09 1.431081e-07) (1.137380e-07 1.104384e-09 -8.355580e-07))
3.774784      	((1.404160e-03 -2.633512e-02 3.492304e-04) (1.756815e-05 -6.108463e-03 4.063828e-06)) ((2.670143e-09 1.258894e-09 1.437292e-07) (1.339163e-07 2.222905e-09 -8.736663e-07))
3.901997      	((1.585295e-03 -2.620003e-02 3.982725e-04) (2.008339e-05 -6.090547e-03 4.666590e-06)) ((2.980634e-09 1.526877e-09 1.441397e-07) (1.531369e-07 2.871415e-09 -9.237122e-07))
4.029134      	((1.787868e-03 -2.603829e-02 4.538783e-04) (2.291289e-05 -6.073379e-03 5.439679e-06)) ((3.394909e-09 1.787812e-09 1.443397e-07) (1.722007e-07 2.774630e-09 -9.843200e-07))
4.156203      	((2.004755e-03 -2.589401e-02 5.138462e-04) (2.606252e-05 -6.057195e-03 6.325473e-06)) ((3.924721e-09 2.091473e-09 1.446137e-07) (1.921593e-07 2.174096e-09 -1.054879e-06))
4.283208      	((2.237041e-03 -2.578055e-02 5.765212e-04) (2.960094e-05 -6.042357e-03 7.283294e-06)) ((4.437664e-09 2.287475e-09 1.449400e-07) (2.142211e-07 1.871835e-09 -1.130430e-06))
4.410151      	((2.489253e-03 -2.568886e-02 6.436668e-04) (3.368195e-05 -6.028982e-03 8.349385e-06)) ((4.983464e-09 2.375987e-09 1.454973e-07) (2.362272e-07 1.663516e-09 -1.203234e-06))
4.537034      	((2.767767e-03 -2.561324e-02 7.151811e-04) (3.835870e-05 -6.016899e-03 9.576925e-06)) ((5.411580e-09 2.387182e-09 1.461188e-07) (2.566145e-07 9.619818e-10 -1.274309e-06))
4.663859      	((3.077654e-03 -2.553081e-02 7.980382e-04) (4.362062e-05 -6.005764e-03 1.102188e-05)) ((5.856185e-09 2.277135e-09 1.466192e-07) (2.759040e-07 -5.061446e-11 -1.350578e-06))
4.790633      	((3.422742e-03 -2.543257e-02 8.912906e-04) (4.942522e-05 -5.995264e-03 1.266722e-05)) ((6.331737e-09 2.117898e-09 1.470315e-07) (2.952402e-07 -1.165692e-09 -1.439979e-06))
4.917358      	((3.807402e-03 -2.532818e-02 9.945502e-04) (5.576614e-05 -5.985262e-03 1.447356e-05)) ((6.810046e-09 1.959178e-09 1.473421e-07) (3.170255e-07 -1.867445e-09 -1.547398e-06))
5.044035      	((4.233197e-03 -2.523283e-02 1.110214e-03) (6.269721e-05 -5.975754e-03 1.647703e-05)) ((7.425311e-09 1.713175e-09 1.475251e-07) (3.413804e-07 -9.709553e-10 -1.676223e-06))
5.170665      	((4.707056e-03 -2.515276e-02 1.238594e-03) (7.028285e-05 -5.966798e-03 1.865609e-05)) ((8.259552e-09 1.527232e-09 1.477311e-07) (3.705948e-07 1.322010e-09 -1.827019e-06))
5.297248      	((5.229645e-03 -2.509456e-02 1.381709e-03) (7.865381e-05 -5.958471e-03 2.101219e-05)) ((9.271215e-09 1.424393e-09 1.480995e-07) (4.057725e-07 3.865808e-09 -1.995871e-06))
5.42378       	((5.809253e-03 -2.505550e-02 1.541125e-03) (8.799100e-05 -5.950827e-03 2.358877e-05)) ((1.039764e-08 1.261901e-09 1.485186e-07) (4.480545e-07 5.195023e-09 -2.180482e-06))
5.55026       	((6.445186e-03 -2.502467e-02 1.718564e-03) (9.844347e-05 -5.943896e-03 2.646072e-05)) ((1.156241e-08 1.028655e-09 1.488857e-07) (4.964539e-07 4.769089e-09 -2.377452e-06))
5.676687      	((7.144817e-03 -2.499618e-02 1.912186e-03) (1.101960e-04 -5.937607e-03 2.960670e-05)) ((1.272457e-08 7.304338e-10 1.492316e-07) (5.538003e-07 1.883232e-09 -2.582458e-06))
5.803061      	((7.908505e-03 -2.497877e-02 2.124939e-03) (1.233283e-04 -5.931947e-03 3.303427e-05)) ((1.395716e-08 3.792613e-10 1.493441e-07) (6.219053e-07 -1.922274e-09 -2.797548e-06))
5.929382      	((8.740230e-03 -2.497945e-02 2.351725e-03) (1.377248e-04 -5.927014e-03 3.679866e-05)) ((1.526439e-08 -1.276671e-10 1.492763e-07) (6.994049e-07 -4.917990e-09 -3.033214e-06))
6.055652      	((9.645333e-03 -2.500033e-02 2.596531e-03) (1.533701e-04 -5.923029e-03 4.096598e-05)) ((1.654352e-08 -8.954296e-10 1.491592e-07) (7.825308e-07 -7.676519e-09 -3.293585e-06))
6.181877      	((1.062613e-02 -2.504997e-02 2.864799e-03) (1.703962e-04 -5.920254e-03 4.554729e-05)) ((1.789810e-08 -1.925591e-09 1.490878e-07) (8.713565e-07 -1.082969e-08 -3.575837e-06))
6.308062      	((1.169474e-02 -2.514695e-02 3.152386e-03) (1.889737e-04 -5.918900e-03 5.047745e-05)) ((1.926694e-08 -3.053058e-09 1.491526e-07) (9.691280e-07 -1.211756e-08 -3.880841e-06))
6.434206      	((1.288166e-02 -2.527668e-02 3.460343e-03) (2.093243e-04 -5.919049e-03 5.572965e-05)) ((2.070240e-08 -4.167562e-09 1.493507e-07) (1.080027e-06 -9.679001e-09 -4.214043e-06))
6.560308      	((1.419040e-02 -2.547239e-02 3.796954e-03) (2.318936e-04 -5.920992e-03 6.138808e-05)) ((2.256144e-08 -5.854318e-09 1.496970e-07) (1.204338e-06 -4.834765e-09 -4.572123e-06))
6.686366      	((1.563719e-02 -2.572077e-02 4.163318e-03) (2.571037e-04 -5.924975e-03 6.760449e-05)) ((2.450735e-08 -8.014833e-09 1.500257e-07) (1.335789e-06 1.302034e-09 -4.954631e-06))
6.812378      	((1.724916e-02 -2.602512e-02 4.564019e-03) (2.852565e-04 -5.931031e-03 7.449234e-05)) ((2.616554e-08 -1.063790e-08 1.504615e-07) (1.469697e-06 7.004145e-09 -5.369345e-06))
6.938344      	((1.903621e-02 -2.637910e-02 5.007688e-03) (3.165404e-04 -5.939031e-03 8.216500e-05)) ((2.753052e-08 -1.401009e-08 1.509665e-07) (1.607600e-06 1.124855e-08 -5.825337e-06))
7.064256      	((2.101295e-02 -2.681549e-02 5.492236e-03) (3.514612e-04 -5.949543e-03 9.073387e-05)) ((2.894612e-08 -1.816035e-08 1.517985e-07) (1.750882e-06 1.485894e-08 -6.309883e-06))
7.190113      	((2.312438e-02 -2.736806e-02 6.019396e-03) (3.902237e-04 -5.963463e-03 1.003411e-04)) ((3.064535e-08 -2.290239e-08 1.529575e-07) (1.889412e-06 1.681071e-08 -6.805011e-06))
7.31591       	((2.535270e-02 -2.811131e-02 6.564096e-03) (4.327080e-04 -5.981692e-03 1.108804e-04)) ((3.237771e-08 -2.805474e-08 1.546042e-07) (2.022764e-06 1.372748e-08 -7.313983e-06))
7.441652      	((2.771847e-02 -2.900431e-02 7.129444e-03) (4.788963e-04 -6.004731e-03 1.223184e-04)) ((3.464524e-08 -3.314881e-08 1.570010e-07) (2.151779e-06 6.456676e-09 -7.850677e-06))
7.567348      	((3.013150e-02 -3.002931e-02 7.711208e-03) (5.287129e-04 -6.032737e-03 1.347763e-04)) ((3.750043e-08 -3.828786e-08 1.602139e-07) (2.271735e-06 -2.364328e-09 -8.412388e-06))
7.693003      	((3.257144e-02 -3.121478e-02 8.303627e-03) (5.820082e-04 -6.065444e-03 1.485367e-04)) ((4.036447e-08 -4.391907e-08 1.640611e-07) (2.371252e-06 -1.025646e-08 -8.990360e-06))
7.818618      	((3.493774e-02 -3.260999e-02 8.864795e-03) (6.382291e-04 -6.103339e-03 1.634882e-04)) ((4.239659e-08 -4.980407e-08 1.686292e-07) (2.439890e-06 -1.800060e-08 -9.551652e-06))
7.944193      	((3.719368e-02 -3.417940e-02 9.417711e-03) (6.966875e-04 -6.147857e-03 1.792239e-04)) ((4.404448e-08 -5.609813e-08 1.730024e-07) (2.478408e-06 -1.990061e-08 -1.002069e-05))
8.069735      	((3.923713e-02 -3.586186e-02 9.923142e-03) (7.563959e-04 -6.199396e-03 1.953079e-04)) ((4.522540e-08 -6.190192e-08 1.771624e-07) (2.491673e-06 -1.136057e-08 -1.037568e-05))
8.195243      	((4.095509e-02 -3.760556e-02 1.033234e-02) (8.157739e-04 -6.257059e-03 2.111357e-04)) ((4.589983e-08 -6.692336e-08 1.817599e-07) (2.485137e-06 6.783486e-09 -1.063491e-05))
8.320716      	((4.220882e-02 -3.934008e-02 1.063970e-02) (8.726807e-04 -6.319481e-03 2.260604e-04)) ((4.636416e-08 -7.089943e-08 1.856380e-07) (2.460506e-06 3.783603e-08 -1.080352e-05))
8.446159      	((4.285270e-02 -4.091372e-02 1.077283e-02) (9.241329e-04 -6.384396e-03 2.389507e-04)) ((4.672137e-08 -7.266431e-08 1.873554e-07) (2.437871e-06 8.295787e-08 -1.089103e-05))
8.571576      	((4.276452e-02 -4.213263e-02 1.073972e-02) (9.675229e-04 -6.448359e-03 2.485542e-04)) ((4.693578e-08 -7.223220e-08 1.865087e-07) (2.445182e-06 1.419492e-07 -1.088257e-05))
8.696978      	((4.180829e-02 -4.287757e-02 1.046436e-02) (9.994194e-04 -6.507115e-03 2.541477e-04)) ((4.472825e-08 -6.921747e-08 1.843243e-07) (2.477068e-06 2.037858e-07 -1.078432e-05))
8.822378      	((3.986329e-02 -4.309443e-02 9.933601e-03) (1.015247e-03 -6.557364e-03 2.550373e-04)) ((4.049621e-08 -6.225857e-08 1.816871e-07) (2.512800e-06 2.529239e-07 -1.062321e-05))
8.947796      	((3.692461e-02 -4.254436e-02 9.125772e-03) (1.011247e-03 -6.596597e-03 2.501686e-04)) ((3.459846e-08 -5.138120e-08 1.786254e-07) (2.545321e-06 2.915333e-07 -1.040291e-05))
9.073263      	((3.295779e-02 -4.135245e-02 8.091223e-03) (9.838123e-04 -6.622830e-03 2.388577e-04)) ((2.633172e-08 -3.704289e-08 1.748431e-07) (2.588755e-06 3.489094e-07 -1.015145e-05))
9.198809      	((2.810437e-02 -3.973029e-02 6.886932e-03) (9.297171e-04 -6.635985e-03 2.213997e-04)) ((1.458897e-08 -1.988875e-08 1.716906e-07) (2.633169e-06 4.344280e-07 -9.929877e-06))
9.324462      	((2.274178e-02 -3.791302e-02 5.517236e-03) (8.497773e-04 -6.639372e-03 1.983028e-04)) ((-1.480290e-09 -3.067376e-09 1.670411e-07) (2.644805e-06 5.174499e-07 -9.719689e-06))
9.450253      	((1.734509e-02 -3.613610e-02 4.215891e-03) (7.496466e-04 -6.636414e-03 1.713334e-04)) ((-1.661775e-08 1.143290e-08 1.560181e-07) (2.600824e-06 5.789748e-07 -9.477647e-06))
9.576208      	((1.240002e-02 -3.449231e-02 3.091934e-03) (6.361078e-04 -6.629659e-03 1.425943e-04)) ((-2.669033e-08 2.048420e-08 1.361436e-07) (2.525209e-06 6.140647e-07 -9.226466e-06))
9.702349      	((8.242723e-03 -3.314479e-02 2.194891e-03) (5.214495e-04 -6.622101e-03 1.146119e-04)) ((-2.900722e-08 2.321253e-08 1.165159e-07) (2.424396e-06 6.342341e-07 -8.844736e-06))
9.82869       	((5.109363e-03 -3.205821e-02 1.552838e-03) (4.111658e-04 -6.616067e-03 8.772189e-05)) ((-2.616226e-08 2.386342e-08 1.050458e-07) (2.359556e-06 6.237574e-07 -8.430563e-06))
9.955239      	((3.105646e-03 -3.128227e-02 1.188949e-03) (3.098841e-04 -6.610431e-03 6.340101e-05)) ((-2.137207e-08 2.313300e-08 1.071900e-07) (2.350488e-06 6.047306e-07 -8.148163e-06))
10.081996     	((2.016244e-03 -3.074726e-02 1.073314e-03) (2.238175e-04 -6.607094e-03 4.428513e-05)) ((-1.590477e-08 2.242243e-08 1.144324e-07) (2.317900e-06 5.900496e-07 -7.919271e-06))
10.208949     	((1.650076e-03 -3.031220e-02 1.131243e-03) (1.523156e-04 -6.607646e-03 3.091541e-05)) ((-1.019251e-08 2.281124e-08 1.223480e-07) (2.237773e-06 5.801327e-07 -7.795614e-06))
10.336082     	((1.872337e-03 -2.984520e-02 1.325623e-03) (9.239862e-05 -6.610660e-03 2.298242e-05)) ((-3.631719e-09 2.178770e-08 1.282213e-07) (2.128045e-06 5.865302e-07 -7.925065e-06))
10.463389     	((2.404064e-03 -2.929153e-02 1.605308e-03) (4.357521e-05 -6.613212e-03 1.929730e-05)) ((5.981443e-10 1.780574e-08 1.334647e-07) (2.019848e-06 5.916777e-07 -8.290947e-06))
10.59085      	((3.001232e-03 -2.851466e-02 1.935492e-03) (7.731804e-06 -6.612168e-03 1.810197e-05)) ((6.286645e-10 1.149565e-08 1.374680e-07) (1.950103e-06 5.645257e-07 -8.681158e-06))
10.718431     	((3.563256e-03 -2.740623e-02 2.251928e-03) (-1.233715e-05 -6.605457e-03 1.814143e-05)) ((-5.886130e-10 4.266962e-09 1.391165e-07) (1.938934e-06 4.892190e-07 -8.783500e-06))
10.846099     	((4.091071e-03 -2.612792e-02 2.557342e-03) (-1.633154e-05 -6.589782e-03 1.908006e-05)) ((3.056732e-09 -2.323324e-09 1.363767e-07) (1.988876e-06 3.906292e-07 -8.475040e-06))
10.973826     	((4.691409e-03 -2.506122e-02 2.866265e-03) (-4.805958e-06 -6.566305e-03 2.271110e-05)) ((1.474595e-08 -7.761354e-09 1.313866e-07) (2.000607e-06 3.108346e-07 -7.734769e-06))
11.101583     	((5.344427e-03 -2.442236e-02 3.177200e-03) (1.676685e-05 -6.540420e-03 3.031778e-05)) ((2.919022e-08 -9.772706e-09 1.276697e-07) (1.891168e-06 2.705463e-07 -6.766466e-06))
11.22934      	((6.043000e-03 -2.415828e-02 3.499012e-03) (3.837731e-05 -6.514977e-03 3.984325e-05)) ((3.780456e-08 -5.837321e-09 1.252006e-07) (1.732290e-06 2.584252e-07 -5.975783e-06))
11.357066     	((6.786145e-03 -2.413125e-02 3.891536e-03) (5.614040e-05 -6.489057e-03 4.923756e-05)) ((3.689928e-08 1.844223e-09 1.239689e-07) (1.645356e-06 2.703048e-07 -5.530790e-06))
