# Forces      
# CofR        : (0.000000e+00 0.000000e+00 0.000000e+00)
# Time        forces(pressure viscous)	moments(pressure viscous)
0             	((0.000000e+00 0.000000e+00 0.000000e+00) (-4.823424e-12 4.891563e-13 -6.340324e-02)) ((0.000000e+00 0.000000e+00 0.000000e+00) (-1.420150e-13 -2.131982e-08 -1.112064e-14))
0.00953862    	((5.747244e-03 5.730525e-03 -2.329532e+01) (2.905411e-06 2.655528e-06 -1.537395e-01)) ((-1.007630e-07 -7.713697e-06 -1.341361e-08) (-6.850264e-07 5.285537e-07 3.149034e-09))
0.020985      	((-3.550693e-03 -2.441240e-03 1.105077e+01) (-2.187939e-05 -6.182573e-06 -1.415624e-01)) ((-2.133716e-07 1.383196e-06 -7.376251e-10) (-3.872284e-07 -9.380261e-07 -8.146487e-11))
0.0347206     	((-3.064755e-03 -1.361838e-03 -2.491846e+00) (-5.607499e-05 -3.303772e-06 -1.160506e-01)) ((2.002901e-07 -1.563952e-06 4.298504e-09) (-4.391927e-07 -8.071755e-07 -2.300033e-09))
0.0510988     	((-1.436182e-03 -6.335782e-05 9.493466e-01) (-3.128850e-05 4.733165e-06 -1.077523e-01)) ((-8.161865e-08 -4.441898e-07 -1.199517e-09) (-5.196206e-07 8.209044e-07 3.585712e-09))
0.0701328     	((-3.844604e-04 -3.298618e-04 -6.845232e-01) (3.356158e-06 -9.147432e-07 -1.024080e-01)) ((3.065632e-08 -1.203221e-06 3.287637e-09) (-3.416664e-07 1.074929e-07 4.638347e-09))
0.0918076     	((3.699452e-04 -8.648970e-06 5.504594e-02) (4.172330e-05 -2.470215e-06 -1.005833e-01)) ((-3.450412e-08 -1.132167e-06 2.957591e-09) (-2.732063e-07 -8.829991e-07 1.255340e-09))
0.116103      	((6.049216e-04 8.604369e-05 -3.067095e-01) (5.595426e-05 -8.667239e-07 -9.907286e-02)) ((1.201894e-08 -1.221744e-06 2.063264e-09) (-7.003736e-08 -1.889503e-06 3.437660e-09))
0.142103      	((4.805413e-05 2.193840e-05 -1.589259e-01) (4.553099e-05 -9.883719e-07 -9.826364e-02)) ((-4.313917e-10 -1.142699e-06 -1.716218e-09) (2.997375e-08 -2.265388e-06 7.148458e-09))
0.168124      	((-3.124223e-04 1.596243e-05 -2.622887e-01) (4.775391e-05 -7.343452e-07 -9.787341e-02)) ((4.359208e-09 -1.288115e-06 -9.948318e-10) (7.436640e-08 -2.205102e-06 1.046804e-08))
0.194077      	((-2.441298e-04 1.115777e-04 -2.411290e-01) (5.090162e-05 -2.555358e-07 -9.772548e-02)) ((-2.908296e-09 -1.229144e-06 1.162404e-09) (8.296813e-08 -2.301474e-06 1.241541e-08))
0.219875      	((-4.116509e-04 1.666360e-04 -2.827098e-01) (5.526166e-05 1.635070e-07 -9.757801e-02)) ((-3.109160e-09 -1.302061e-06 -1.407908e-09) (7.481187e-08 -2.272199e-06 1.146697e-08))
0.245503      	((-4.438177e-04 2.564376e-04 -2.895486e-01) (5.822232e-05 2.083493e-07 -9.735463e-02)) ((-9.829730e-09 -1.281658e-06 -5.896088e-10) (5.831803e-08 -2.294074e-06 9.499630e-09))
0.271038      	((-7.081845e-04 3.385698e-04 -3.070236e-01) (6.022500e-05 1.116179e-07 -9.698055e-02)) ((-9.728812e-09 -1.300208e-06 -1.376399e-10) (2.745571e-09 -2.296027e-06 9.017417e-09))
0.2965        	((-8.148219e-04 4.665335e-04 -3.102204e-01) (6.041439e-05 3.292221e-08 -9.649034e-02)) ((-7.134799e-09 -1.253606e-06 -8.031609e-10) (-7.885335e-08 -2.273698e-06 9.380189e-09))
0.321985      	((-1.261345e-03 5.717933e-04 -3.149479e-01) (5.693561e-05 2.405725e-07 -9.595615e-02)) ((-5.073295e-09 -1.222988e-06 -3.019245e-10) (-1.223266e-07 -2.338709e-06 9.250403e-09))
0.347541      	((-1.583953e-03 7.184543e-04 -3.146372e-01) (5.347775e-05 1.305826e-06 -9.545349e-02)) ((-2.706897e-09 -1.175173e-06 -2.923550e-10) (-1.192938e-07 -2.457442e-06 9.794633e-09))
0.373164      	((-1.982637e-03 8.495234e-04 -3.142029e-01) (5.221772e-05 2.854475e-06 -9.500005e-02)) ((4.126046e-09 -1.165626e-06 -4.545012e-10) (-1.083208e-07 -2.553432e-06 1.004731e-08))
0.398818      	((-2.386073e-03 9.836019e-04 -3.126343e-01) (5.118780e-05 3.852106e-06 -9.458836e-02)) ((1.015517e-08 -1.133515e-06 -3.463375e-10) (-1.194052e-07 -2.624898e-06 9.567841e-09))
0.424481      	((-2.860094e-03 1.127067e-03 -3.118734e-01) (4.808625e-05 4.313319e-06 -9.421377e-02)) ((1.303726e-08 -1.103886e-06 -1.048949e-09) (-1.556432e-07 -2.700684e-06 8.186120e-09))
0.450157      	((-3.430049e-03 1.363263e-03 -3.097265e-01) (4.404665e-05 4.847968e-06 -9.386851e-02)) ((1.465554e-08 -1.057776e-06 -1.481261e-09) (-2.094388e-07 -2.809378e-06 6.962868e-09))
0.475854      	((-3.988278e-03 1.606990e-03 -3.085859e-01) (4.012055e-05 5.731471e-06 -9.354753e-02)) ((1.465548e-08 -1.027787e-06 -1.641685e-09) (-2.708327e-07 -2.928368e-06 5.906207e-09))
0.501569      	((-4.601968e-03 1.911344e-03 -3.078644e-01) (3.692053e-05 6.486054e-06 -9.324757e-02)) ((1.529045e-08 -9.968142e-07 -2.507714e-09) (-3.550283e-07 -3.058763e-06 6.238328e-09))
0.527292      	((-5.386685e-03 2.279768e-03 -3.070535e-01) (3.319471e-05 6.966751e-06 -9.296929e-02)) ((1.667590e-08 -9.670461e-07 -2.901663e-09) (-4.720206e-07 -3.215087e-06 6.441972e-09))
0.553024      	((-6.178205e-03 2.675237e-03 -3.063984e-01) (2.897897e-05 7.279856e-06 -9.271502e-02)) ((1.869313e-08 -9.364367e-07 -3.329587e-09) (-6.239246e-07 -3.394363e-06 6.396674e-09))
0.578764      	((-7.135157e-03 3.122713e-03 -3.057345e-01) (2.438804e-05 7.362779e-06 -9.248621e-02)) ((2.079140e-08 -9.093375e-07 -3.694096e-09) (-8.138164e-07 -3.603555e-06 6.602676e-09))
0.604512      	((-8.194026e-03 3.627445e-03 -3.048872e-01) (1.999959e-05 7.298029e-06 -9.228099e-02)) ((2.349510e-08 -8.811730e-07 -3.667552e-09) (-1.032664e-06 -3.875102e-06 7.332382e-09))
0.630267      	((-9.371350e-03 4.166640e-03 -3.039156e-01) (1.604485e-05 7.638955e-06 -9.209535e-02)) ((2.496377e-08 -8.566688e-07 -4.375449e-09) (-1.261222e-06 -4.203613e-06 9.248963e-09))
0.656029      	((-1.065381e-02 4.821628e-03 -3.027646e-01) (1.226487e-05 8.644004e-06 -9.192505e-02)) ((2.923522e-08 -8.337903e-07 -5.066902e-09) (-1.491288e-06 -4.579568e-06 1.091633e-08))
0.681797      	((-1.212045e-02 5.554420e-03 -3.015402e-01) (8.509097e-06 1.010317e-05 -9.176701e-02)) ((3.388125e-08 -8.090632e-07 -6.025232e-09) (-1.728170e-06 -5.001493e-06 1.092247e-08))
0.707571      	((-1.381108e-02 6.385811e-03 -3.003064e-01) (4.563905e-06 1.204077e-05 -9.161933e-02)) ((4.315374e-08 -7.847927e-07 -6.690101e-09) (-1.985166e-06 -5.471585e-06 1.090136e-08))
0.733352      	((-1.572944e-02 7.334634e-03 -2.991176e-01) (2.685132e-07 1.441098e-05 -9.148158e-02)) ((5.481937e-08 -7.568886e-07 -8.075215e-09) (-2.273146e-06 -6.012527e-06 1.339048e-08))
0.759137      	((-1.789438e-02 8.374825e-03 -2.979353e-01) (-4.622524e-06 1.709225e-05 -9.135355e-02)) ((6.630201e-08 -7.289509e-07 -8.676211e-09) (-2.590522e-06 -6.638054e-06 1.637045e-08))
0.784927      	((-2.031619e-02 9.519569e-03 -2.969552e-01) (-1.033579e-05 2.019888e-05 -9.123482e-02)) ((7.837102e-08 -6.981654e-07 -9.745429e-09) (-2.933332e-06 -7.348561e-06 1.857847e-08))
0.810722      	((-2.305941e-02 1.082497e-02 -2.962031e-01) (-1.724237e-05 2.392866e-05 -9.112502e-02)) ((9.378790e-08 -6.621104e-07 -1.203345e-08) (-3.302755e-06 -8.136820e-06 2.042860e-08))
0.836522      	((-2.615271e-02 1.233904e-02 -2.955802e-01) (-2.568632e-05 2.845348e-05 -9.102340e-02)) ((1.092007e-07 -6.237958e-07 -1.350678e-08) (-3.711602e-06 -9.001199e-06 2.175376e-08))
0.862326      	((-2.964728e-02 1.404950e-02 -2.950382e-01) (-3.579114e-05 3.375850e-05 -9.092905e-02)) ((1.249893e-07 -5.843916e-07 -1.453119e-08) (-4.172456e-06 -9.951092e-06 2.254526e-08))
0.888133      	((-3.357766e-02 1.598887e-02 -2.946175e-01) (-4.752436e-05 3.981106e-05 -9.084151e-02)) ((1.419028e-07 -5.439490e-07 -1.603308e-08) (-4.693554e-06 -1.100526e-05 2.673343e-08))
0.913945      	((-3.802333e-02 1.820579e-02 -2.942353e-01) (-6.102717e-05 4.655507e-05 -9.076042e-02)) ((1.623157e-07 -4.999572e-07 -1.735239e-08) (-5.292275e-06 -1.218633e-05 3.344531e-08))
0.939761      	((-4.306037e-02 2.070484e-02 -2.938959e-01) (-7.660846e-05 5.387961e-05 -9.068575e-02)) ((1.867251e-07 -4.507183e-07 -1.803286e-08) (-5.984372e-06 -1.351321e-05 3.894917e-08))
0.965581      	((-4.878339e-02 2.356083e-02 -2.935525e-01) (-9.453335e-05 6.205375e-05 -9.061774e-02)) ((2.171034e-07 -3.926089e-07 -1.873090e-08) (-6.772219e-06 -1.500411e-05 4.204301e-08))
0.991404      	((-5.528762e-02 2.682125e-02 -2.932104e-01) (-1.149498e-04 7.148393e-05 -9.055662e-02)) ((2.537404e-07 -3.258439e-07 -1.968673e-08) (-7.657932e-06 -1.668696e-05 4.226611e-08))
1.01723       	((-6.261015e-02 3.054379e-02 -2.929297e-01) (-1.378942e-04 8.214363e-05 -9.050252e-02)) ((2.943280e-07 -2.490223e-07 -2.062685e-08) (-8.665189e-06 -1.860189e-05 4.101149e-08))
1.043062      	((-7.086976e-02 3.475340e-02 -2.926268e-01) (-1.636884e-04 9.389658e-05 -9.045541e-02)) ((3.386321e-07 -1.617580e-07 -2.187842e-08) (-9.824380e-06 -2.077690e-05 4.199483e-08))
1.068896      	((-8.015730e-02 3.950969e-02 -2.923799e-01) (-1.927650e-04 1.068362e-04 -9.041504e-02)) ((3.895782e-07 -6.516530e-08 -2.265905e-08) (-1.116211e-05 -2.323714e-05 4.383239e-08))
1.094728      	((-9.052693e-02 4.489578e-02 -2.923082e-01) (-2.253969e-04 1.211763e-04 -9.038170e-02)) ((4.508431e-07 4.030397e-08 -2.300374e-08) (-1.270039e-05 -2.601648e-05 4.145123e-08))
1.120553      	((-1.021270e-01 5.096185e-02 -2.923631e-01) (-2.614699e-04 1.374742e-04 -9.035548e-02)) ((5.203286e-07 1.556880e-07 -2.347360e-08) (-1.444418e-05 -2.917767e-05 3.471989e-08))
1.146372      	((-1.150620e-01 5.774999e-02 -2.926588e-01) (-3.008743e-04 1.558595e-04 -9.033633e-02)) ((5.981944e-07 2.807153e-07 -2.550582e-08) (-1.641312e-05 -3.278694e-05 2.448754e-08))
1.172183      	((-1.294946e-01 6.523115e-02 -2.932575e-01) (-3.440999e-04 1.759754e-04 -9.032452e-02)) ((6.792140e-07 4.141861e-07 -2.913565e-08) (-1.864678e-05 -3.689699e-05 7.576756e-09))
1.197984      	((-1.456396e-01 7.357130e-02 -2.944272e-01) (-3.916986e-04 1.980201e-04 -9.032096e-02)) ((7.644097e-07 5.557283e-07 -3.080947e-08) (-2.117644e-05 -4.155797e-05 -1.343316e-08))
1.223774      	((-1.637401e-01 8.282813e-02 -2.961108e-01) (-4.442441e-04 2.226101e-04 -9.032702e-02)) ((8.511815e-07 7.112942e-07 -3.210251e-08) (-2.401820e-05 -4.684584e-05 -2.586248e-08))
1.249552      	((-1.838038e-01 9.302610e-02 -2.985199e-01) (-5.024322e-04 2.498362e-04 -9.034417e-02)) ((9.449465e-07 8.803374e-07 -3.167717e-08) (-2.717771e-05 -5.281615e-05 -2.888791e-08))
1.275316      	((-2.060703e-01 1.044148e-01 -3.016034e-01) (-5.676265e-04 2.802956e-04 -9.037360e-02)) ((1.049120e-06 1.063594e-06 -2.876157e-08) (-3.069410e-05 -5.946826e-05 -3.169128e-08))
1.301064      	((-2.305813e-01 1.169192e-01 -3.055924e-01) (-6.412508e-04 3.141766e-04 -9.041694e-02)) ((1.161863e-06 1.260756e-06 -2.368581e-08) (-3.462299e-05 -6.678774e-05 -4.160808e-08))
1.326796      	((-2.577370e-01 1.309419e-01 -3.101332e-01) (-7.246858e-04 3.526248e-04 -9.047489e-02)) ((1.293897e-06 1.477007e-06 -1.840119e-08) (-3.895491e-05 -7.481837e-05 -6.835503e-08))
1.352507      	((-2.874410e-01 1.463457e-01 -3.157247e-01) (-8.207432e-04 3.977943e-04 -9.054954e-02)) ((1.433904e-06 1.710157e-06 -1.979815e-08) (-4.363390e-05 -8.356843e-05 -1.072914e-07))
1.378184      	((-3.197782e-01 1.630272e-01 -3.222967e-01) (-9.327249e-04 4.509616e-04 -9.064414e-02)) ((1.579409e-06 1.960646e-06 -3.510540e-08) (-4.859774e-05 -9.294389e-05 -1.648315e-07))
1.403823      	((-3.545716e-01 1.809144e-01 -3.305369e-01) (-1.060968e-03 5.137473e-04 -9.076154e-02)) ((1.739145e-06 2.225791e-06 -5.464570e-08) (-5.377546e-05 -1.029818e-04 -2.083884e-07))
1.42942       	((-3.907652e-01 1.995835e-01 -3.411494e-01) (-1.202930e-03 5.878398e-04 -9.090498e-02)) ((1.907507e-06 2.483532e-06 -6.882385e-08) (-5.910571e-05 -1.137611e-04 -1.916460e-07))
1.454972      	((-4.282690e-01 2.184909e-01 -3.543893e-01) (-1.357499e-03 6.729642e-04 -9.107690e-02)) ((2.081022e-06 2.744211e-06 -8.950882e-08) (-6.448427e-05 -1.251287e-04 -1.348009e-07))
1.480478      	((-4.663012e-01 2.370221e-01 -3.701133e-01) (-1.524306e-03 7.662901e-04 -9.128274e-02)) ((2.250715e-06 3.003684e-06 -1.261401e-07) (-6.986306e-05 -1.368778e-04 -8.793218e-08))
1.505935      	((-5.028477e-01 2.544797e-01 -3.872631e-01) (-1.702931e-03 8.661175e-04 -9.152179e-02)) ((2.404072e-06 3.243681e-06 -1.509213e-07) (-7.523192e-05 -1.488287e-04 4.930176e-09))
1.531341      	((-5.356651e-01 2.696691e-01 -4.065198e-01) (-1.887247e-03 9.693737e-04 -9.179284e-02)) ((2.514874e-06 3.422735e-06 -1.615869e-07) (-8.044178e-05 -1.607718e-04 2.170997e-07))
1.556696      	((-5.635976e-01 2.824000e-01 -4.271874e-01) (-2.070435e-03 1.075320e-03 -9.209758e-02)) ((2.567174e-06 3.509829e-06 -1.780156e-07) (-8.524095e-05 -1.724892e-04 5.476096e-07))
1.582002      	((-5.849292e-01 2.911508e-01 -4.469364e-01) (-2.247368e-03 1.182718e-03 -9.242990e-02)) ((2.553342e-06 3.489520e-06 -1.995607e-07) (-8.927745e-05 -1.835304e-04 9.849411e-07))
1.607259      	((-5.958115e-01 2.948670e-01 -4.653945e-01) (-2.411404e-03 1.285349e-03 -9.277735e-02)) ((2.505999e-06 3.336552e-06 -2.270056e-07) (-9.233475e-05 -1.931898e-04 1.560584e-06))
1.632473      	((-5.953861e-01 2.924082e-01 -4.804581e-01) (-2.549742e-03 1.371794e-03 -9.312384e-02)) ((2.424667e-06 3.173787e-06 -2.402062e-07) (-9.433377e-05 -2.008499e-04 2.247785e-06))
1.657651      	((-5.836615e-01 2.831236e-01 -4.905997e-01) (-2.640890e-03 1.426247e-03 -9.345535e-02)) ((2.273122e-06 3.042732e-06 -2.340227e-07) (-9.537684e-05 -2.065188e-04 2.980512e-06))
1.682798      	((-5.607228e-01 2.683854e-01 -4.952061e-01) (-2.662231e-03 1.435746e-03 -9.375526e-02)) ((2.077638e-06 2.839005e-06 -2.373408e-07) (-9.559351e-05 -2.106046e-04 3.503731e-06))
1.707924      	((-5.295867e-01 2.502850e-01 -4.934497e-01) (-2.595320e-03 1.393557e-03 -9.401589e-02)) ((1.890605e-06 2.558715e-06 -2.339808e-07) (-9.528142e-05 -2.135899e-04 3.674142e-06))
1.733035      	((-4.948833e-01 2.313000e-01 -4.868785e-01) (-2.444025e-03 1.303256e-03 -9.423268e-02)) ((1.765156e-06 2.252302e-06 -1.744907e-07) (-9.480041e-05 -2.155754e-04 3.545663e-06))
1.758143      	((-4.588992e-01 2.128234e-01 -4.779619e-01) (-2.220340e-03 1.180564e-03 -9.441680e-02)) ((1.699018e-06 1.833795e-06 -9.984403e-08) (-9.395038e-05 -2.165160e-04 3.488339e-06))
1.783254      	((-4.286593e-01 1.978945e-01 -4.683282e-01) (-1.950847e-03 1.040266e-03 -9.457186e-02)) ((1.609030e-06 1.313338e-06 -3.167424e-08) (-9.281461e-05 -2.166334e-04 3.614474e-06))
1.808377      	((-4.073964e-01 1.875420e-01 -4.579216e-01) (-1.680742e-03 9.015498e-04 -9.470860e-02)) ((1.449620e-06 7.296756e-07 -2.138815e-09) (-9.133917e-05 -2.154765e-04 3.911223e-06))
1.833516      	((-3.969453e-01 1.821689e-01 -4.477389e-01) (-1.439651e-03 7.801572e-04 -9.483587e-02)) ((1.279838e-06 1.962314e-07 -2.032726e-08) (-8.954522e-05 -2.133740e-04 4.322116e-06))
1.858674      	((-3.963675e-01 1.816194e-01 -4.381352e-01) (-1.253450e-03 6.822210e-04 -9.495599e-02)) ((1.202325e-06 -9.240719e-08 -6.273904e-08) (-8.787992e-05 -2.108533e-04 4.491389e-06))
1.883849      	((-4.031581e-01 1.843439e-01 -4.287076e-01) (-1.150301e-03 6.149993e-04 -9.507220e-02)) ((1.141656e-06 -1.607283e-07 -1.534595e-07) (-8.647850e-05 -2.074829e-04 4.390441e-06))
1.909041      	((-4.126525e-01 1.887116e-01 -4.198362e-01) (-1.142763e-03 5.908408e-04 -9.518392e-02)) ((1.154190e-06 -6.908232e-08 -2.164380e-07) (-8.485005e-05 -2.027812e-04 4.304941e-06))
1.934247      	((-4.212815e-01 1.929259e-01 -4.110326e-01) (-1.223182e-03 6.100215e-04 -9.528798e-02)) ((1.348316e-06 3.898502e-07 -2.629883e-07) (-8.275595e-05 -1.965347e-04 4.411365e-06))
1.959461      	((-4.263572e-01 1.946246e-01 -4.026813e-01) (-1.346217e-03 6.584617e-04 -9.536627e-02)) ((1.558912e-06 9.903787e-07 -3.227088e-07) (-8.035451e-05 -1.901892e-04 4.837355e-06))
1.984681      	((-4.250175e-01 1.926529e-01 -3.947045e-01) (-1.436503e-03 7.064631e-04 -9.540664e-02)) ((1.662794e-06 1.520064e-06 -3.963645e-07) (-7.806619e-05 -1.859957e-04 5.562211e-06))
2.009903      	((-4.161447e-01 1.873965e-01 -3.907245e-01) (-1.460506e-03 7.338474e-04 -9.542017e-02)) ((1.695967e-06 1.948270e-06 -4.267554e-07) (-7.612714e-05 -1.841076e-04 6.393825e-06))
2.035126      	((-3.990725e-01 1.782817e-01 -3.898769e-01) (-1.430379e-03 7.364707e-04 -9.542362e-02)) ((1.758470e-06 2.217799e-06 -3.632804e-07) (-7.433165e-05 -1.830913e-04 7.006109e-06))
2.060349      	((-3.758473e-01 1.664297e-01 -3.901071e-01) (-1.364667e-03 7.121475e-04 -9.542622e-02)) ((1.845055e-06 2.402703e-06 -2.472169e-07) (-7.252113e-05 -1.815253e-04 7.187073e-06))
2.085572      	((-3.478992e-01 1.538504e-01 -3.896422e-01) (-1.273912e-03 6.603212e-04 -9.542699e-02)) ((1.891374e-06 2.406414e-06 -1.153807e-07) (-7.080751e-05 -1.788042e-04 6.926919e-06))
2.110798      	((-3.169522e-01 1.405691e-01 -3.882405e-01) (-1.160891e-03 5.875414e-04 -9.542443e-02)) ((1.775316e-06 2.139883e-06 -1.902783e-08) (-6.917689e-05 -1.747348e-04 6.285612e-06))
2.13603       	((-2.865557e-01 1.287228e-01 -3.883311e-01) (-1.027118e-03 4.972420e-04 -9.542292e-02)) ((1.571360e-06 1.574087e-06 8.831514e-08) (-6.782795e-05 -1.694825e-04 5.562327e-06))
2.161272      	((-2.619935e-01 1.194312e-01 -3.893985e-01) (-8.505721e-04 3.993353e-04 -9.541077e-02)) ((1.376064e-06 7.938605e-07 2.196920e-07) (-6.693838e-05 -1.651918e-04 5.245256e-06))
2.186528      	((-2.447070e-01 1.148771e-01 -3.881266e-01) (-6.449763e-04 3.067564e-04 -9.537602e-02)) ((1.248236e-06 -9.950165e-08 3.516591e-07) (-6.656550e-05 -1.626593e-04 5.360479e-06))
2.211802      	((-2.381112e-01 1.148930e-01 -3.856844e-01) (-4.274550e-04 2.122963e-04 -9.532666e-02)) ((1.167557e-06 -7.777690e-07 4.108659e-07) (-6.721207e-05 -1.621452e-04 5.517057e-06))
2.237093      	((-2.401697e-01 1.193052e-01 -3.819773e-01) (-2.063357e-04 1.234511e-04 -9.526937e-02)) ((1.140699e-06 -1.092107e-06 4.196275e-07) (-6.888948e-05 -1.639713e-04 5.536617e-06))
2.262402      	((-2.493154e-01 1.270198e-01 -3.759594e-01) (-1.468456e-05 4.736409e-05 -9.520845e-02)) ((1.120812e-06 -1.113110e-06 3.615996e-07) (-7.139930e-05 -1.669748e-04 5.124076e-06))
