# Forces      
# CofR        : (0.000000e+00 0.000000e+00 0.000000e+00)
# Time        forces(pressure viscous)	moments(pressure viscous)
0             	((0.000000e+00 0.000000e+00 0.000000e+00) (1.388409e-15 -2.524406e-05 3.439279e-15)) ((0.000000e+00 0.000000e+00 0.000000e+00) (-1.651697e-16 4.550942e-18 9.094486e-12))
0.012         	((-6.213894e-10 -7.341534e-03 1.714848e-09) (1.555230e-11 -2.897170e-05 2.200919e-11)) ((-3.024001e-12 -4.617578e-14 1.387046e-09) (-2.481146e-13 -6.955281e-15 1.892269e-11))
0.0264        	((-1.544162e-07 5.061736e-04 -1.337434e-07) (-8.952013e-11 -2.956284e-05 -7.766289e-11)) ((6.739797e-12 -3.481975e-13 -9.177825e-11) (-7.497724e-14 7.620347e-14 2.565117e-11))
0.04368       	((9.319173e-08 1.536932e-03 1.476036e-07) (-1.036880e-10 -2.627397e-05 -4.976310e-11)) ((3.286317e-12 -4.095593e-13 -3.696234e-10) (8.608986e-13 9.104297e-14 2.216097e-11))
0.064416      	((3.651300e-09 1.456194e-05 -1.701466e-08) (-2.628264e-10 -2.327225e-05 -3.120482e-10)) ((-2.527463e-12 6.846692e-14 1.722004e-11) (-2.650201e-12 -9.957692e-15 2.804126e-11))
0.0892992     	((8.053718e-09 -2.033745e-05 -2.323539e-08) (-4.228552e-10 -2.148596e-05 -5.102112e-10)) ((-5.660747e-13 9.801022e-13 1.992416e-11) (-5.661915e-12 1.472282e-13 3.019885e-11))
0.119159      	((-6.986739e-09 2.297535e-05 -1.351084e-08) (-4.260460e-10 -1.984042e-05 -4.429653e-10)) ((-2.331634e-12 -4.670546e-14 -5.260598e-12) (-6.798943e-13 1.630265e-13 2.522755e-11))
0.154991      	((1.638693e-09 1.239191e-05 5.238182e-09) (-4.166998e-10 -1.809532e-05 -3.958275e-10)) ((-1.235364e-12 -2.865843e-13 -1.538858e-12) (3.911197e-12 -4.416498e-14 1.772693e-11))
0.197989      	((7.317462e-09 3.001038e-06 3.193282e-09) (-3.118031e-10 -1.633386e-05 -2.362995e-10)) ((-1.602040e-12 1.160425e-13 -3.931811e-13) (2.308254e-12 -8.528002e-14 3.873351e-12))
0.249587      	((6.176340e-12 -4.039413e-07 1.572941e-09) (-1.796534e-10 -1.460569e-05 -9.440980e-11)) ((-1.116364e-12 -1.156241e-13 1.182162e-12) (-1.098827e-13 2.311324e-13 -2.572073e-12))
0.311504      	((-1.014048e-10 -1.962534e-06 7.270044e-10) (-6.046560e-11 -1.296257e-05 -1.402497e-11)) ((-7.172935e-13 -2.694944e-14 1.884071e-12) (-1.111718e-12 2.893339e-13 -4.780845e-12))
0.385805      	((2.751839e-10 -2.707821e-06 2.813034e-10) (2.692618e-11 -1.144624e-05 3.287926e-11)) ((-5.250870e-13 5.097289e-15 1.553094e-12) (-2.130829e-12 2.017228e-13 -8.612332e-12))
0.474966      	((5.763994e-10 -3.061379e-06 1.051766e-09) (7.543234e-11 -1.008669e-05 4.451889e-11)) ((-3.159624e-13 2.299920e-14 1.275279e-12) (-2.344366e-12 2.638803e-13 -6.109979e-12))
0.581959      	((2.169277e-10 -3.204726e-06 3.519825e-10) (8.924520e-11 -8.896190e-06 4.094703e-11)) ((-2.038811e-13 1.901299e-14 1.069593e-12) (-2.423719e-12 2.248650e-13 2.262037e-12))
0.710351      	((2.374564e-10 -3.192968e-06 2.840472e-10) (1.039661e-10 -7.874697e-06 2.076359e-11)) ((-1.089292e-13 1.809709e-14 8.809449e-13) (-1.875397e-12 2.098533e-13 6.744342e-12))
0.864421      	((1.160328e-10 -3.078043e-06 -5.040417e-12) (1.570517e-10 -7.009157e-06 1.386050e-11)) ((-5.736069e-14 1.665880e-14 9.099376e-13) (-1.251942e-12 1.879625e-13 5.167692e-12))
1.049306      	((1.848512e-10 -2.908882e-06 6.349879e-11) (2.111457e-10 -6.277735e-06 1.643429e-11)) ((-2.510274e-14 1.386345e-14 9.053640e-13) (-4.938689e-13 1.160150e-13 2.381850e-12))
1.271167      	((1.993404e-10 -2.720891e-06 -2.692281e-11) (2.523836e-10 -5.657834e-06 1.607765e-11)) ((-9.267587e-15 1.075212e-14 8.236981e-13) (2.396041e-14 6.694210e-14 1.289235e-12))
1.5374        	((2.477115e-10 -2.528412e-06 4.481955e-11) (2.428075e-10 -5.125531e-06 1.463190e-11)) ((-2.119485e-15 7.349838e-15 8.101810e-13) (2.882487e-13 8.656660e-14 8.258673e-13))
1.85688       	((2.335774e-10 -2.339999e-06 -2.447972e-11) (2.004253e-10 -4.659156e-06 1.905529e-11)) ((-3.867547e-15 5.013688e-15 8.142269e-13) (5.517227e-13 1.562407e-13 9.071944e-13))
2.240256      	((1.568383e-10 -2.160891e-06 -1.217425e-12) (1.568321e-10 -4.244537e-06 2.275955e-11)) ((-7.173949e-15 3.283812e-15 8.159547e-13) (9.026340e-13 1.798961e-13 1.829807e-12))
2.700307      	((9.846321e-11 -1.993540e-06 -2.807806e-11) (1.255707e-10 -3.872860e-06 2.167670e-11)) ((-8.420752e-15 2.293604e-15 8.160035e-13) (1.315120e-12 1.692705e-13 4.453974e-12))
3.252369      	((1.226918e-10 -1.837440e-06 -3.794102e-11) (1.233877e-10 -3.538118e-06 2.174111e-11)) ((-8.717000e-15 2.062527e-15 7.609360e-13) (1.722991e-12 1.628751e-13 8.303516e-12))
3.914842      	((8.624031e-11 -1.690465e-06 -6.998067e-11) (9.728609e-11 -3.235925e-06 2.031701e-11)) ((-8.438707e-15 2.072626e-15 6.926858e-13) (2.127429e-12 1.537429e-13 1.144236e-11))
4.709811      	((7.861138e-11 -1.553863e-06 -1.236696e-11) (6.796669e-11 -2.962984e-06 1.615753e-11)) ((-9.499758e-15 3.310616e-15 6.237577e-13) (2.522993e-12 1.194132e-13 1.213408e-11))
5.663773      	((1.077241e-10 -1.428243e-06 4.687939e-11) (4.853434e-11 -2.716944e-06 1.408035e-11)) ((-1.198312e-14 4.061670e-15 5.625844e-13) (2.616375e-12 8.095874e-14 1.154550e-11))
6.808528      	((1.039062e-10 -1.313476e-06 3.616384e-11) (2.578277e-11 -2.495814e-06 1.492823e-11)) ((-1.261990e-14 3.183576e-15 4.905584e-13) (2.593054e-12 4.384653e-14 1.184292e-11))
8.182233      	((1.085482e-10 -1.208760e-06 7.170772e-12) (-2.719245e-12 -2.297360e-06 1.332286e-11)) ((-1.059487e-14 3.797745e-15 4.234348e-13) (2.757400e-12 9.053885e-15 1.183064e-11))
9.83068       	((1.140764e-10 -1.113609e-06 -1.308837e-11) (-2.664849e-11 -2.119052e-06 8.965143e-12)) ((-9.844694e-15 4.925579e-15 3.649961e-13) (3.336723e-12 9.092658e-15 1.156070e-11))
11.808816     	((9.843672e-11 -1.026666e-06 -3.996202e-11) (-3.375626e-11 -1.958310e-06 8.676693e-12)) ((-6.828827e-15 5.522318e-15 3.117878e-13) (4.558198e-12 3.363146e-14 1.116141e-11))
14.182579     	((6.549084e-11 -9.473849e-07 -4.774183e-11) (-2.040549e-11 -1.812815e-06 1.131737e-11)) ((-7.076433e-15 5.021443e-15 2.672956e-13) (6.276504e-12 4.604078e-14 1.006043e-11))
17.031095     	((1.921224e-11 -8.753926e-07 -1.089934e-10) (-1.617537e-11 -1.680649e-06 9.514560e-12)) ((-7.172669e-15 3.234120e-15 2.315510e-13) (8.391290e-12 3.541959e-14 8.573019e-12))
20.449314     	((-6.510382e-11 -8.100067e-07 -1.937032e-10) (-1.851540e-11 -1.560343e-06 5.256129e-12)) ((-7.113050e-15 1.744244e-15 2.064102e-13) (1.065257e-11 2.693486e-14 6.510339e-12))
24.551176     	((-1.464288e-10 -7.508682e-07 -2.631414e-10) (-2.464625e-11 -1.450872e-06 -5.989240e-13)) ((-5.944212e-15 6.894237e-16 1.883632e-13) (1.265851e-11 8.166747e-15 4.455704e-12))
29.473411     	((-9.745524e-11 -6.977841e-07 -2.153935e-10) (-2.630055e-11 -1.351441e-06 -3.601795e-12)) ((-4.186668e-15 2.711269e-17 1.743642e-13) (1.418734e-11 8.622397e-15 2.740051e-12))
35.380094     	((-4.489443e-11 -6.501944e-07 -1.773595e-10) (-2.126309e-11 -1.261348e-06 -3.478589e-12)) ((-2.424183e-15 -3.437512e-16 1.644175e-13) (1.541187e-11 5.356096e-15 1.034850e-12))
42.468112     	((-6.590813e-11 -6.079827e-07 -2.126540e-10) (-1.719364e-11 -1.179894e-06 -6.030873e-12)) ((-2.007560e-15 -3.455505e-16 1.593605e-13) (1.672403e-11 2.577569e-15 -1.124707e-12))
50.973735     	((-1.318957e-10 -5.707535e-07 -2.541881e-10) (-1.460569e-11 -1.106379e-06 -9.707608e-12)) ((-2.291844e-15 1.159538e-16 1.558428e-13) (1.855639e-11 4.968757e-15 -3.931228e-12))
61.180482     	((-1.103646e-10 -5.382211e-07 -2.206887e-10) (-1.658492e-11 -1.040142e-06 -1.121904e-11)) ((-2.959197e-15 -4.473160e-17 1.530350e-13) (2.102119e-11 -4.706491e-16 -7.691140e-12))
73.428578     	((-8.902169e-11 -5.101300e-07 -2.061576e-10) (-2.020686e-11 -9.805347e-07 -1.334596e-11)) ((-4.158719e-15 4.538691e-16 1.536518e-13) (2.403123e-11 -2.588905e-14 -1.217596e-11))
88.126294     	((-7.225219e-11 -4.861740e-07 -1.909455e-10) (-2.004808e-11 -9.269686e-07 -1.439566e-11)) ((-4.993638e-15 3.062983e-16 1.562276e-13) (2.740214e-11 -7.118416e-14 -1.708683e-11))
105.763553    	((-4.024416e-11 -4.662526e-07 -1.565479e-10) (-1.377898e-11 -8.789438e-07 -1.420298e-11)) ((-5.328357e-15 3.149197e-16 1.602071e-13) (3.093805e-11 -7.743767e-14 -2.226648e-11))
126.928263    	((-1.590978e-14 -4.501529e-07 -1.290862e-10) (-2.432783e-12 -8.360563e-07 -1.422584e-11)) ((-5.506354e-15 2.260499e-16 1.649091e-13) (3.438878e-11 -8.133430e-14 -2.708611e-11))
152.325916    	((-9.136108e-12 -4.375880e-07 -1.245385e-10) (7.669168e-12 -7.979972e-07 -1.487936e-11)) ((-5.657438e-15 3.114701e-16 1.710951e-13) (3.739800e-11 -6.800034e-14 -3.130071e-11))
182.803099    	((1.583006e-11 -4.284731e-07 -8.025398e-11) (1.651992e-11 -7.645310e-07 -1.422787e-11)) ((-5.103370e-15 4.755831e-16 1.798181e-13) (3.980425e-11 -5.169585e-14 -3.473885e-11))
219.375719    	((4.184813e-11 -4.222543e-07 -4.384174e-11) (2.590249e-11 -7.354417e-07 -1.366491e-11)) ((-4.620249e-15 6.028067e-16 1.901010e-13) (4.156116e-11 -5.028628e-14 -3.735545e-11))
263.262863    	((7.644600e-11 -4.186677e-07 -2.027134e-12) (3.287723e-11 -7.105307e-07 -1.283232e-11)) ((-4.113437e-15 1.113078e-15 2.021198e-13) (4.256652e-11 -4.744976e-14 -3.899199e-11))
315.927436    	((1.061667e-10 -4.171475e-07 2.972479e-11) (3.917542e-11 -6.895519e-07 -9.848827e-12)) ((-3.813447e-15 1.293790e-15 2.139039e-13) (4.278442e-11 -3.758257e-14 -3.971959e-11))
379.124923    	((1.295276e-10 -4.171339e-07 6.432915e-11) (4.634064e-11 -6.721797e-07 -5.365972e-12)) ((-3.479082e-15 1.658761e-15 2.239854e-13) (4.226976e-11 -3.980734e-14 -3.957261e-11))
454.460575    	((1.597622e-10 -4.178523e-07 9.432962e-11) (5.572471e-11 -6.580088e-07 9.838913e-13)) ((-3.382155e-15 1.615323e-15 2.314201e-13) (4.108104e-11 -2.715899e-14 -3.864857e-11))
541.918349    	((1.890968e-10 -4.187292e-07 1.254846e-10) (6.818140e-11 -6.465793e-07 1.146105e-11)) ((-3.061676e-15 1.566753e-15 2.357320e-13) (3.939125e-11 -4.219654e-15 -3.715817e-11))
641.493624    	((2.076606e-10 -4.192394e-07 1.473891e-10) (8.323251e-11 -6.373554e-07 2.482815e-11)) ((-2.864520e-15 1.410148e-15 2.382888e-13) (3.740584e-11 9.772923e-15 -3.535040e-11))
753.193485    	((2.077836e-10 -4.193942e-07 1.490539e-10) (9.938271e-11 -6.298875e-07 3.914039e-11)) ((-3.139124e-15 1.271488e-15 2.399295e-13) (3.530931e-11 2.521628e-14 -3.340924e-11))
874.568488    	((1.927612e-10 -4.193539e-07 1.404668e-10) (1.139209e-10 -6.238372e-07 5.324805e-11)) ((-3.309477e-15 9.156158e-16 2.411549e-13) (3.328096e-11 3.642068e-14 -3.147610e-11))
996.078124    	((1.756695e-10 -4.193387e-07 1.258918e-10) (1.264782e-10 -6.189714e-07 6.581089e-11)) ((-3.407319e-15 6.233543e-16 2.421162e-13) (3.138150e-11 4.303538e-14 -2.961908e-11))
1117.704506   	((1.548327e-10 -4.192202e-07 1.067801e-10) (1.360917e-10 -6.150286e-07 7.559803e-11)) ((-3.599940e-15 3.999833e-16 2.430317e-13) (2.961277e-11 4.698322e-14 -2.786570e-11))
1239.42918    	((1.319125e-10 -4.191191e-07 8.448436e-11) (1.428643e-10 -6.118505e-07 8.224573e-11)) ((-3.835786e-15 2.182270e-16 2.436239e-13) (2.797026e-11 4.684512e-14 -2.622265e-11))
1361.2362     	((1.073248e-10 -4.190048e-07 6.140734e-11) (1.469821e-10 -6.092783e-07 8.622595e-11)) ((-4.075825e-15 6.375685e-17 2.441672e-13) (2.643924e-11 4.606309e-14 -2.467862e-11))
1483.112862   	((8.369504e-11 -4.189054e-07 3.874071e-11) (1.487738e-10 -6.071995e-07 8.786448e-11)) ((-4.198858e-15 -4.581653e-17 2.448357e-13) (2.503008e-11 4.455058e-14 -2.325390e-11))
1605.048091   	((6.011758e-11 -4.188090e-07 1.607924e-11) (1.485461e-10 -6.055153e-07 8.762204e-11)) ((-4.401904e-15 -1.308059e-16 2.451649e-13) (2.373870e-11 4.231574e-14 -2.195468e-11))
1727.032344   	((3.799634e-11 -4.187285e-07 -5.276034e-12) (1.468443e-10 -6.041521e-07 8.583550e-11)) ((-4.557907e-15 -2.314127e-16 2.455285e-13) (2.257123e-11 3.985059e-14 -2.077611e-11))
1849.05736    	((1.767484e-11 -4.186552e-07 -2.479125e-11) (1.441555e-10 -6.030462e-07 8.300482e-11)) ((-4.717811e-15 -3.070497e-16 2.457904e-13) (2.152226e-11 3.725719e-14 -1.971330e-11))
1971.116188   	((-1.090642e-12 -4.185940e-07 -4.296927e-11) (1.406768e-10 -6.021498e-07 7.945164e-11)) ((-4.818876e-15 -3.830583e-16 2.460184e-13) (2.058789e-11 3.489557e-14 -1.876916e-11))
2093.20302    	((-1.807121e-11 -4.185410e-07 -5.933521e-11) (1.366886e-10 -6.014216e-07 7.539668e-11)) ((-4.934933e-15 -4.434631e-16 2.461462e-13) (1.976617e-11 3.304536e-14 -1.793789e-11))
2215.313054   	((-3.305024e-11 -4.184973e-07 -7.379654e-11) (1.325508e-10 -6.008300e-07 7.121936e-11)) ((-5.035416e-15 -4.932961e-16 2.462920e-13) (1.904221e-11 3.142225e-14 -1.720616e-11))
2337.442286   	((-4.632577e-11 -4.184597e-07 -8.661067e-11) (1.283708e-10 -6.003486e-07 6.700806e-11)) ((-5.128267e-15 -5.306660e-16 2.464324e-13) (1.841228e-11 3.021066e-14 -1.656861e-11))
2459.587377   	((-5.777981e-11 -4.184281e-07 -9.784522e-11) (1.242813e-10 -5.999568e-07 6.286394e-11)) ((-5.226830e-15 -5.613718e-16 2.465814e-13) (1.786880e-11 2.914037e-14 -1.601676e-11))
2581.745552   	((-6.765288e-11 -4.184022e-07 -1.074074e-10) (1.203715e-10 -5.996376e-07 5.896165e-11)) ((-5.288867e-15 -5.828836e-16 2.467142e-13) (1.740035e-11 2.827447e-14 -1.554254e-11))
2703.914512   	((-7.590688e-11 -4.183802e-07 -1.154543e-10) (1.167624e-10 -5.993775e-07 5.534974e-11)) ((-5.349260e-15 -5.990903e-16 2.468269e-13) (1.699936e-11 2.744476e-14 -1.513561e-11))
2826.092354   	((-8.298618e-11 -4.183625e-07 -1.223479e-10) (1.134784e-10 -5.991655e-07 5.206625e-11)) ((-5.395214e-15 -6.125114e-16 2.468974e-13) (1.665866e-11 2.677689e-14 -1.478966e-11))
2948.277506   	((-8.880219e-11 -4.183472e-07 -1.279617e-10) (1.105496e-10 -5.989926e-07 4.914027e-11)) ((-5.429887e-15 -6.250042e-16 2.469549e-13) (1.637029e-11 2.615632e-14 -1.449641e-11))
3070.468667   	((-9.365869e-11 -4.183349e-07 -1.326745e-10) (1.079704e-10 -5.988514e-07 4.655951e-11)) ((-5.461673e-15 -6.350734e-16 2.470016e-13) (1.612743e-11 2.560137e-14 -1.424895e-11))
3192.664765   	((-9.767864e-11 -4.183241e-07 -1.365878e-10) (1.057174e-10 -5.987361e-07 4.430589e-11)) ((-5.489600e-15 -6.433617e-16 2.470365e-13) (1.592372e-11 2.507631e-14 -1.404175e-11))
3314.86492    	((-1.009364e-10 -4.183161e-07 -1.396934e-10) (1.037815e-10 -5.986420e-07 4.236547e-11)) ((-5.512388e-15 -6.489504e-16 2.470674e-13) (1.575354e-11 2.460051e-14 -1.386842e-11))
3437.0684     	((-1.036660e-10 -4.183090e-07 -1.423767e-10) (1.021332e-10 -5.985652e-07 4.071417e-11)) ((-5.529129e-15 -6.550252e-16 2.470916e-13) (1.561155e-11 2.419419e-14 -1.372382e-11))
3559.274609   	((-1.058583e-10 -4.183035e-07 -1.444492e-10) (1.007419e-10 -5.985024e-07 3.932271e-11)) ((-5.542428e-15 -6.596482e-16 2.471086e-13) (1.549362e-11 2.385306e-14 -1.360347e-11))
3681.483051   	((-1.076902e-10 -4.182984e-07 -1.463644e-10) (9.957205e-11 -5.984511e-07 3.815214e-11)) ((-5.554844e-15 -6.635637e-16 2.471240e-13) (1.539589e-11 2.357246e-14 -1.350379e-11))
3803.693324   	((-1.090957e-10 -4.182945e-07 -1.476304e-10) (9.859865e-11 -5.984091e-07 3.718236e-11)) ((-5.564306e-15 -6.663570e-16 2.471369e-13) (1.531496e-11 2.333510e-14 -1.342130e-11))
3925.905094   	((-1.102775e-10 -4.182911e-07 -1.487327e-10) (9.779281e-11 -5.983748e-07 3.638099e-11)) ((-5.573173e-15 -6.684125e-16 2.471469e-13) (1.524804e-11 2.312403e-14 -1.335319e-11))
4048.118091   	((-1.112014e-10 -4.182888e-07 -1.496387e-10) (9.713158e-11 -5.983468e-07 3.572445e-11)) ((-5.579903e-15 -6.701350e-16 2.471557e-13) (1.519284e-11 2.293906e-14 -1.329694e-11))
4170.33209    	((-1.120050e-10 -4.182865e-07 -1.504544e-10) (9.658946e-11 -5.983238e-07 3.518398e-11)) ((-5.586034e-15 -6.715410e-16 2.471623e-13) (1.514732e-11 2.277779e-14 -1.325052e-11))
4292.546909   	((-1.126632e-10 -4.182847e-07 -1.510991e-10) (9.614758e-11 -5.983051e-07 3.474523e-11)) ((-5.590981e-15 -6.726897e-16 2.471673e-13) (1.510993e-11 2.263699e-14 -1.321237e-11))
4414.762398   	((-1.132097e-10 -4.182833e-07 -1.516491e-10) (9.578724e-11 -5.982897e-07 3.438743e-11)) ((-5.595071e-15 -6.736782e-16 2.471716e-13) (1.507907e-11 2.251608e-14 -1.318090e-11))
4536.978434   	((-1.136545e-10 -4.182822e-07 -1.520886e-10) (9.549409e-11 -5.982772e-07 3.409738e-11)) ((-5.598569e-15 -6.743598e-16 2.471751e-13) (1.505361e-11 2.241319e-14 -1.315495e-11))
4659.194919   	((-1.140235e-10 -4.182812e-07 -1.524573e-10) (9.525540e-11 -5.982669e-07 3.386143e-11)) ((-5.601336e-15 -6.749820e-16 2.471781e-13) (1.503261e-11 2.232749e-14 -1.313355e-11))
4781.41177    	((-1.143308e-10 -4.182806e-07 -1.527703e-10) (9.506127e-11 -5.982585e-07 3.366967e-11)) ((-5.603753e-15 -6.754415e-16 2.471805e-13) (1.501528e-11 2.225423e-14 -1.311588e-11))
4903.628922   	((-1.145878e-10 -4.182799e-07 -1.530260e-10) (9.490254e-11 -5.982516e-07 3.351290e-11)) ((-5.605670e-15 -6.758629e-16 2.471825e-13) (1.500098e-11 2.219494e-14 -1.310130e-11))
5025.846319   	((-1.148332e-10 -4.182792e-07 -1.533179e-10) (9.477163e-11 -5.982459e-07 3.338378e-11)) ((-5.605962e-15 -6.763531e-16 2.471841e-13) (1.498918e-11 2.214602e-14 -1.308927e-11))
5148.063918   	((-1.149999e-10 -4.182787e-07 -1.535209e-10) (9.466555e-11 -5.982413e-07 3.327831e-11)) ((-5.607713e-15 -6.765426e-16 2.471854e-13) (1.497940e-11 2.210478e-14 -1.307932e-11))
5270.281681   	((-1.151184e-10 -4.182784e-07 -1.535550e-10) (9.457774e-11 -5.982376e-07 3.319121e-11)) ((-5.609186e-15 -6.767750e-16 2.471866e-13) (1.497129e-11 2.207338e-14 -1.307108e-11))
5392.499579   	((-1.152434e-10 -4.182781e-07 -1.536730e-10) (9.450445e-11 -5.982345e-07 3.311808e-11)) ((-5.610149e-15 -6.769692e-16 2.471875e-13) (1.496461e-11 2.204809e-14 -1.306427e-11))
5514.717587   	((-1.153641e-10 -4.182777e-07 -1.537833e-10) (9.444456e-11 -5.982319e-07 3.306141e-11)) ((-5.611501e-15 -6.772811e-16 2.471882e-13) (1.495907e-11 2.202654e-14 -1.305861e-11))
5636.935686   	((-1.154573e-10 -4.182776e-07 -1.538657e-10) (9.439418e-11 -5.982299e-07 3.301202e-11)) ((-5.612071e-15 -6.774506e-16 2.471888e-13) (1.495452e-11 2.200765e-14 -1.305399e-11))
