# Forces      
# CofR        : (0.000000e+00 0.000000e+00 0.000000e+00)
# Time        forces(pressure viscous)	moments(pressure viscous)
0             	((0.000000e+00 0.000000e+00 0.000000e+00) (0.000000e+00 0.000000e+00 0.000000e+00)) ((0.000000e+00 0.000000e+00 0.000000e+00) (0.000000e+00 0.000000e+00 0.000000e+00))
0.012         	((-1.391442e-11 1.790958e-11 -3.523394e-11) (1.908666e-14 3.374875e-14 2.319304e-13)) ((1.592026e-10 -1.519654e-14 -3.111566e-16) (1.109879e-07 1.216274e-14 -5.100424e-15))
0.0264        	((1.595540e-11 3.133815e-11 -6.361189e-11) (-1.711516e-13 -2.620194e-13 2.020640e-13)) ((7.855885e-11 -1.192571e-14 3.081409e-15) (1.016581e-07 2.097355e-14 -5.025008e-15))
0.04368       	((-6.983856e-11 -4.696459e-11 -7.431431e-11) (1.263819e-13 -8.047561e-13 6.885514e-14)) ((4.339453e-11 -9.930595e-15 3.448469e-15) (9.207038e-08 1.167482e-14 8.733156e-15))
0.064416      	((2.522740e-11 -2.374847e-12 -1.679096e-11) (1.060888e-12 -1.202569e-12 -1.361871e-13)) ((2.431831e-11 -6.691334e-15 -1.270216e-15) (8.243378e-08 -1.154229e-14 2.286834e-14))
0.0892992     	((-1.095685e-11 -1.305040e-11 -4.258543e-12) (2.053261e-12 -1.336812e-12 -4.226873e-13)) ((1.827808e-11 -6.520978e-15 9.002781e-16) (7.302940e-08 -3.428771e-14 3.085280e-14))
0.119159      	((-8.448932e-12 -2.205904e-11 -5.600451e-11) (2.657152e-12 -1.237981e-12 -6.741193e-13)) ((1.307101e-11 -4.645156e-15 -1.812222e-16) (6.414744e-08 -4.704290e-14 3.306575e-14))
0.154991      	((1.391208e-11 2.725314e-11 1.622530e-11) (2.918060e-12 -1.074090e-12 -7.584676e-13)) ((1.036654e-11 -3.659712e-15 -3.713816e-16) (5.599268e-08 -5.099621e-14 2.906292e-14))
0.197989      	((1.524786e-11 3.609816e-12 -1.679260e-11) (3.129568e-12 -8.904856e-13 -7.617117e-13)) ((8.241017e-12 -1.643710e-15 -3.260380e-16) (4.876337e-08 -5.036508e-14 2.391754e-14))
0.249587      	((7.318603e-12 5.583311e-12 -1.660253e-11) (3.034510e-12 -8.269780e-13 -7.771490e-13)) ((6.822361e-12 -1.030336e-15 -7.419575e-16) (4.256587e-08 -4.731473e-14 2.156661e-14))
0.311504      	((8.229471e-12 1.471608e-11 -2.113111e-11) (2.741630e-12 -8.788222e-13 -6.344467e-13)) ((5.698683e-12 -1.409696e-15 -2.052036e-16) (3.738488e-08 -4.280885e-14 2.230588e-14))
0.385805      	((-6.656483e-12 1.851748e-11 -2.782279e-11) (2.505453e-12 -8.123715e-13 -5.386862e-13)) ((4.904772e-12 -1.485497e-15 5.064043e-16) (3.310898e-08 -4.328517e-14 2.170256e-14))
0.474966      	((-3.289108e-12 2.498628e-11 -2.779823e-11) (2.181769e-12 -5.277407e-13 -9.532843e-13)) ((4.382437e-12 -8.666326e-16 7.587063e-16) (2.957045e-08 -5.612751e-14 2.030891e-14))
0.581959      	((1.674255e-11 3.675813e-11 -8.696740e-12) (1.918915e-12 2.879721e-14 -1.372788e-12)) ((3.928214e-12 -1.099369e-15 1.232251e-15) (2.659519e-08 -7.028333e-14 2.470215e-14))
0.710351      	((1.718953e-11 4.277275e-11 -3.326099e-11) (1.446838e-12 6.275327e-14 -1.312569e-12)) ((3.472837e-12 -1.394053e-15 1.517268e-15) (2.403918e-08 -7.658236e-14 3.711208e-14))
0.864421      	((2.176493e-11 5.335099e-11 -1.891340e-11) (5.857347e-13 -6.589788e-13 -8.964288e-13)) ((3.165636e-12 -2.224684e-15 1.772222e-15) (2.180017e-08 -7.086756e-14 5.443067e-14))
1.049306      	((1.391717e-11 5.414973e-11 -3.503741e-11) (1.549536e-13 -1.248186e-12 -4.611484e-13)) ((2.962867e-12 -2.437692e-15 1.633998e-15) (1.981024e-08 -5.422048e-14 6.301522e-14))
1.271167      	((-5.678743e-12 6.943939e-11 -4.338944e-11) (1.021115e-13 -1.819730e-12 1.253619e-13)) ((2.760845e-12 -2.025099e-15 1.369759e-15) (1.802391e-08 -3.119094e-14 7.801558e-14))
1.5374        	((-7.481217e-12 6.471649e-11 -5.988873e-11) (9.936443e-14 -2.838355e-12 1.172981e-12)) ((2.528360e-12 -5.114088e-16 1.011095e-15) (1.641153e-08 -1.548839e-14 1.302865e-13))
1.85688       	((6.709708e-12 6.650532e-11 -5.795299e-11) (-7.842967e-13 -4.959183e-12 2.900718e-12)) ((2.322114e-12 -6.383610e-18 4.971230e-16) (1.495699e-08 3.006384e-14 1.937058e-13))
2.240256      	((-2.533091e-13 7.291608e-11 -5.426867e-11) (-5.928071e-13 -8.091724e-12 6.140241e-12)) ((2.193982e-12 8.838887e-16 -3.444521e-16) (1.365202e-08 1.044883e-13 2.778536e-13))
2.700307      	((3.426574e-12 6.486452e-11 -4.443016e-11) (8.954760e-14 -1.295533e-11 1.121539e-11)) ((2.105022e-12 1.229488e-15 -7.921645e-16) (1.249075e-08 1.922565e-13 4.202166e-13))
3.252369      	((-9.406925e-13 4.472469e-11 -4.515704e-11) (-8.664355e-13 -1.997169e-11 1.693388e-11)) ((2.018270e-12 1.941569e-15 -1.347939e-15) (1.146513e-08 3.117915e-13 5.669572e-13))
3.914842      	((4.172823e-12 1.970909e-11 -2.966293e-11) (-1.236006e-12 -2.644799e-11 2.242325e-11)) ((1.918570e-12 1.630294e-15 -9.924439e-16) (1.056301e-08 4.110928e-13 6.670820e-13))
4.709811      	((-1.369505e-12 6.958080e-12 -8.716403e-12) (-1.131153e-13 -3.238105e-11 2.829424e-11)) ((1.802941e-12 1.660910e-15 -5.383904e-16) (9.767690e-09 4.816701e-13 7.265105e-13))
5.663773      	((2.119599e-12 8.478774e-13 7.929194e-12) (3.226359e-13 -3.675381e-11 3.289985e-11)) ((1.674490e-12 1.672901e-15 -3.185742e-16) (9.060495e-09 5.388662e-13 7.419460e-13))
6.808528      	((6.641885e-12 -7.420056e-12 1.471633e-11) (-2.252643e-13 -3.737888e-11 3.399310e-11)) ((1.545077e-12 1.784757e-15 -7.345089e-16) (8.424882e-09 5.345284e-13 7.322595e-13))
8.182233      	((1.343270e-12 -1.228060e-11 2.102548e-11) (-1.034035e-12 -3.513998e-11 3.206976e-11)) ((1.419410e-12 1.384705e-15 -8.622139e-16) (7.847735e-09 4.747204e-13 6.704886e-13))
9.83068       	((5.576701e-12 -1.428395e-11 1.655466e-11) (-3.021464e-12 -2.994246e-11 2.731111e-11)) ((1.293354e-12 1.410762e-15 -1.345600e-15) (7.319397e-09 3.909461e-13 5.448618e-13))
11.808816     	((1.936194e-12 3.380015e-12 7.457834e-12) (-4.902455e-12 -2.277867e-11 2.154164e-11)) ((1.179440e-12 1.202958e-15 -1.705476e-15) (6.833222e-09 3.267874e-13 3.918790e-13))
14.182579     	((1.683541e-12 2.153987e-12 -4.885936e-12) (-6.436737e-12 -1.604751e-11 1.610289e-11)) ((1.072300e-12 1.115154e-15 -1.864108e-15) (6.385182e-09 2.747733e-13 2.396565e-13))
17.031095     	((4.840200e-12 3.764657e-12 -1.475044e-12) (-6.002394e-12 -1.121393e-11 1.134334e-11)) ((9.825286e-13 5.998730e-16 -1.843978e-15) (5.973170e-09 2.063264e-13 1.286332e-13))
20.449314     	((4.304454e-12 6.869068e-12 -4.072786e-12) (-4.514352e-12 -7.674364e-12 7.736766e-12)) ((9.022379e-13 3.664518e-16 -1.779938e-15) (5.595732e-09 1.332181e-13 7.524636e-14))
24.551176     	((5.128076e-13 7.745864e-12 -4.685493e-12) (-3.223598e-12 -5.553620e-12 5.518755e-12)) ((8.317078e-13 3.331022e-16 -1.807045e-15) (5.250782e-09 8.316940e-14 4.901378e-14))
29.473411     	((2.919174e-12 1.054568e-11 -4.502892e-13) (-1.992404e-12 -4.079507e-12 4.513170e-12)) ((7.720616e-13 1.274176e-16 -1.659498e-15) (4.936125e-09 6.010166e-14 3.967242e-14))
35.380094     	((2.699306e-12 1.122670e-11 -3.892982e-12) (-9.517313e-13 -3.228436e-12 3.897129e-12)) ((7.191110e-13 1.091769e-17 -1.472822e-15) (4.649201e-09 4.370157e-14 4.737399e-14))
42.468112     	((1.399920e-13 6.905289e-12 -3.509909e-12) (-9.555826e-13 -3.346606e-12 3.756374e-12)) ((6.723789e-13 8.531241e-18 -1.340103e-15) (4.387576e-09 3.318127e-14 6.014235e-14))
50.973735     	((1.774726e-12 7.878668e-12 -2.155297e-12) (-6.687852e-13 -3.535892e-12 4.194175e-12)) ((6.305008e-13 -9.269621e-17 -1.175495e-15) (4.149137e-09 3.059398e-14 7.245723e-14))
61.180482     	((1.624396e-13 4.632568e-12 -4.538407e-12) (-5.164235e-13 -4.239649e-12 4.787753e-12)) ((5.929344e-13 -2.083574e-16 -1.063918e-15) (3.932026e-09 3.927062e-14 8.237998e-14))
73.428578     	((1.692565e-12 5.681719e-12 1.185448e-13) (-4.427755e-13 -4.774853e-12 5.401245e-12)) ((5.599310e-13 -3.077506e-16 -9.585264e-16) (3.734708e-09 5.607338e-14 9.108963e-14))
88.126294     	((2.435239e-12 4.542355e-12 5.135373e-13) (-5.087786e-13 -5.067827e-12 6.003442e-12)) ((5.305303e-13 -3.653295e-16 -8.819706e-16) (3.555751e-09 6.915279e-14 1.017275e-13))
105.763553    	((2.764940e-12 3.887351e-12 2.934944e-12) (-1.009939e-12 -5.216963e-12 6.337277e-12)) ((5.032105e-13 -4.024907e-16 -7.738845e-16) (3.393799e-09 7.420735e-14 1.116006e-13))
126.928263    	((3.377993e-12 2.233547e-12 2.811804e-12) (-1.501131e-12 -5.193159e-12 6.224894e-12)) ((4.788345e-13 -3.731369e-16 -7.069908e-16) (3.247382e-09 7.425298e-14 1.131879e-13))
152.325916    	((2.128872e-12 1.515302e-12 2.685346e-12) (-2.222175e-12 -4.986362e-12 5.817248e-12)) ((4.572154e-13 -3.110191e-16 -6.969415e-16) (3.114982e-09 7.217558e-14 1.122504e-13))
182.803099    	((1.374043e-12 7.039507e-14 2.233426e-12) (-3.091631e-12 -4.713235e-12 5.324881e-12)) ((4.371987e-13 -2.502153e-16 -6.783630e-16) (2.994963e-09 7.016373e-14 1.120699e-13))
219.375719    	((5.191305e-13 -6.143464e-13 2.159999e-12) (-2.969730e-12 -4.552896e-12 5.066138e-12)) ((4.188637e-13 -1.884859e-16 -6.724815e-16) (2.885928e-09 7.297388e-14 1.117937e-13))
263.262863    	((5.175569e-13 -5.790785e-13 2.371699e-12) (-2.906519e-12 -4.592971e-12 5.112080e-12)) ((4.023002e-13 -1.752626e-16 -6.434304e-16) (2.786782e-09 7.498248e-14 1.133102e-13))
315.927436    	((5.896133e-13 -4.098722e-14 2.905233e-12) (-2.567390e-12 -4.661366e-12 5.308667e-12)) ((3.874141e-13 -1.137949e-16 -6.012565e-16) (2.696646e-09 7.613299e-14 1.145285e-13))
379.124923    	((9.622519e-13 -2.392166e-13 2.460024e-12) (-2.040646e-12 -4.717889e-12 5.546121e-12)) ((3.738983e-13 -7.409576e-17 -5.535306e-16) (2.614833e-09 7.629992e-14 1.152809e-13))
454.961908    	((1.554106e-12 -8.973943e-13 2.159904e-12) (-1.411538e-12 -4.795165e-12 5.613058e-12)) ((3.613170e-13 -5.432646e-17 -5.173141e-16) (2.540726e-09 7.746356e-14 1.154819e-13))
545.966289    	((1.689897e-12 -1.436893e-12 1.885385e-12) (-9.697385e-13 -4.791597e-12 5.474723e-12)) ((3.496567e-13 -7.765456e-17 -4.629003e-16) (2.473775e-09 7.607822e-14 1.159505e-13))
655.171547    	((1.670020e-12 -1.977655e-12 1.593337e-12) (-7.895570e-13 -4.657256e-12 5.072174e-12)) ((3.391308e-13 -9.799490e-17 -4.164412e-16) (2.413521e-09 7.518024e-14 1.144849e-13))
786.217856    	((9.965590e-13 -1.734143e-12 1.667933e-12) (-7.616929e-13 -4.422662e-12 4.547939e-12)) ((3.294600e-13 -9.926635e-17 -3.996176e-16) (2.359498e-09 7.151126e-14 1.118797e-13))
943.473427    	((6.207120e-13 -1.540493e-12 1.871509e-12) (-7.384269e-13 -4.133614e-12 4.096994e-12)) ((3.206584e-13 -1.062774e-16 -3.790724e-16) (2.311252e-09 6.849338e-14 1.077487e-13))
1132.180113   	((2.270232e-13 -1.150705e-12 1.820555e-12) (-7.881886e-13 -3.853444e-12 3.797989e-12)) ((3.129608e-13 -1.243469e-16 -3.641964e-16) (2.268360e-09 6.810201e-14 1.024915e-13))
1358.628135   	((6.314226e-13 -1.112655e-12 1.859692e-12) (-9.401608e-13 -3.585920e-12 3.519661e-12)) ((3.062198e-13 -1.290075e-16 -3.154436e-16) (2.230427e-09 6.724607e-14 9.618654e-14))
1630.365763   	((4.258727e-13 -1.163656e-12 1.586204e-12) (-1.105004e-12 -3.379807e-12 3.271017e-12)) ((3.003472e-13 -1.290673e-16 -2.938721e-16) (2.197051e-09 6.523373e-14 9.121166e-14))
1956.450915   	((7.740379e-13 -1.200734e-12 1.532958e-12) (-1.145520e-12 -3.285355e-12 3.113714e-12)) ((2.952606e-13 -1.350038e-16 -2.856746e-16) (2.167846e-09 6.247059e-14 8.764391e-14))
2347.753098   	((7.246188e-13 -1.357528e-12 1.409775e-12) (-1.223156e-12 -3.190953e-12 2.981361e-12)) ((2.908648e-13 -1.210693e-16 -2.999994e-16) (2.142442e-09 6.051416e-14 8.337353e-14))
2817.315718   	((7.512015e-13 -1.311460e-12 1.223759e-12) (-1.203962e-12 -3.066638e-12 2.920671e-12)) ((2.870901e-13 -1.017364e-16 -3.169649e-16) (2.120479e-09 5.998097e-14 7.770969e-14))
3380.790861   	((9.055557e-13 -1.411177e-12 1.019188e-12) (-1.046827e-12 -2.952600e-12 2.875641e-12)) ((2.839545e-13 -9.685846e-17 -3.186461e-16) (2.101601e-09 6.025977e-14 7.126750e-14))
4056.961033   	((8.373366e-13 -1.496441e-12 9.142353e-13) (-9.135142e-13 -2.822420e-12 2.789183e-12)) ((2.813216e-13 -9.477020e-17 -3.100568e-16) (2.085476e-09 5.969861e-14 6.570019e-14))
4861.599897   	((7.371364e-13 -1.642426e-12 7.426256e-13) (-8.587545e-13 -2.719815e-12 2.690792e-12)) ((2.791307e-13 -1.010711e-16 -3.001890e-16) (2.071786e-09 5.889547e-14 6.118629e-14))
5794.717785   	((7.012245e-13 -1.751137e-12 5.851359e-13) (-8.643680e-13 -2.629328e-12 2.599726e-12)) ((2.772534e-13 -1.095779e-16 -2.910320e-16) (2.060247e-09 5.807286e-14 5.698888e-14))
6856.323755   	((6.321947e-13 -1.850155e-12 4.740758e-13) (-9.051181e-13 -2.547628e-12 2.516306e-12)) ((2.756782e-13 -1.131662e-16 -2.856931e-16) (2.050589e-09 5.716528e-14 5.331601e-14))
8046.425621   	((6.421599e-13 -1.898082e-12 4.320282e-13) (-9.444498e-13 -2.474178e-12 2.441002e-12)) ((2.743651e-13 -1.153510e-16 -2.823322e-16) (2.042556e-09 5.654917e-14 5.006475e-14))
9331.450882   	((6.435335e-13 -1.923405e-12 3.854796e-13) (-9.648606e-13 -2.411351e-12 2.387641e-12)) ((2.732987e-13 -1.253861e-16 -2.767169e-16) (2.035913e-09 5.607303e-14 4.664442e-14))
10616.531348  	((5.897395e-13 -1.978787e-12 2.182179e-13) (-9.614697e-13 -2.332702e-12 2.356554e-12)) ((2.724143e-13 -1.542847e-16 -2.693803e-16) (2.030453e-09 5.688981e-14 4.224927e-14))
11901.657002  	((1.439411e-13 -1.943232e-12 2.322958e-13) (-1.005399e-12 -2.279610e-12 2.334361e-12)) ((2.716913e-13 -1.529529e-16 -2.693998e-16) (2.025983e-09 5.667360e-14 3.942213e-14))
13186.820113  	((8.315051e-14 -1.909368e-12 2.294047e-13) (-1.057509e-12 -2.240189e-12 2.318190e-12)) ((2.711235e-13 -1.555563e-16 -2.696510e-16) (2.022332e-09 5.598914e-14 3.724168e-14))
14472.014047  	((5.416305e-14 -1.883393e-12 2.092232e-13) (-1.102206e-12 -2.207649e-12 2.304536e-12)) ((2.706600e-13 -1.563175e-16 -2.702252e-16) (2.019356e-09 5.525759e-14 3.555873e-14))
15757.233393  	((4.627877e-14 -1.859159e-12 1.854792e-13) (-1.135545e-12 -2.179341e-12 2.294002e-12)) ((2.702845e-13 -1.559216e-16 -2.707118e-16) (2.016932e-09 5.472776e-14 3.432840e-14))
17042.473538  	((9.962455e-14 -1.812031e-12 2.044870e-13) (-1.156874e-12 -2.156692e-12 2.289571e-12)) ((2.699773e-13 -1.525053e-16 -2.674299e-16) (2.014959e-09 5.439296e-14 3.348188e-14))
18327.730677  	((2.084219e-13 -1.745771e-12 2.510028e-13) (-1.167259e-12 -2.133231e-12 2.291304e-12)) ((2.697261e-13 -1.495872e-16 -2.633442e-16) (2.013353e-09 5.426125e-14 3.280864e-14))
19613.00172   	((2.697152e-13 -1.712676e-12 2.708848e-13) (-1.177523e-12 -2.112125e-12 2.291708e-12)) ((2.695246e-13 -1.487654e-16 -2.627358e-16) (2.012046e-09 5.413705e-14 3.208571e-14))
20898.284159  	((3.008556e-13 -1.689310e-12 2.770167e-13) (-1.186213e-12 -2.092740e-12 2.293026e-12)) ((2.693629e-13 -1.495541e-16 -2.625934e-16) (2.010983e-09 5.406520e-14 3.147074e-14))
22183.575919  	((3.160002e-13 -1.664748e-12 2.862928e-13) (-1.192237e-12 -2.076108e-12 2.294021e-12)) ((2.692332e-13 -1.505421e-16 -2.625889e-16) (2.010118e-09 5.396429e-14 3.097659e-14))
23468.875293  	((3.266199e-13 -1.654859e-12 2.925595e-13) (-1.195500e-12 -2.062281e-12 2.295151e-12)) ((2.691280e-13 -1.514032e-16 -2.626057e-16) (2.009414e-09 5.383527e-14 3.058762e-14))
24754.180882  	((3.358930e-13 -1.653503e-12 2.960470e-13) (-1.197202e-12 -2.050674e-12 2.296038e-12)) ((2.690429e-13 -1.520904e-16 -2.626378e-16) (2.008841e-09 5.372025e-14 3.027244e-14))
26039.491556  	((3.499602e-13 -1.655156e-12 2.940281e-13) (-1.197827e-12 -2.041630e-12 2.297287e-12)) ((2.689739e-13 -1.528710e-16 -2.628638e-16) (2.008376e-09 5.362371e-14 3.000718e-14))
27324.806385  	((3.659406e-13 -1.659332e-12 2.838668e-13) (-1.197637e-12 -2.034496e-12 2.298692e-12)) ((2.689178e-13 -1.533956e-16 -2.628401e-16) (2.007997e-09 5.353914e-14 2.976873e-14))
28610.124597  	((3.793982e-13 -1.666637e-12 2.737039e-13) (-1.196937e-12 -2.028591e-12 2.299863e-12)) ((2.688720e-13 -1.538781e-16 -2.628781e-16) (2.007688e-09 5.346537e-14 2.955956e-14))
29895.445568  	((3.921832e-13 -1.676115e-12 2.615430e-13) (-1.196114e-12 -2.023766e-12 2.300796e-12)) ((2.688346e-13 -1.542638e-16 -2.628331e-16) (2.007437e-09 5.339986e-14 2.938205e-14))
