# Forces      
# CofR        : (0.000000e+00 0.000000e+00 0.000000e+00)
# Time        forces(pressure viscous)	moments(pressure viscous)
0             	((0.000000e+00 0.000000e+00 0.000000e+00) (0.000000e+00 0.000000e+00 0.000000e+00)) ((0.000000e+00 0.000000e+00 0.000000e+00) (0.000000e+00 0.000000e+00 0.000000e+00))
0.012         	((7.213991e-13 -1.795843e-10 -3.688710e-13) (9.450641e-16 -4.559191e-12 1.505493e-14)) ((4.729747e-17 -3.376941e-17 4.083912e-12) (-1.954284e-17 3.707138e-16 5.561449e-09))
0.0264        	((2.285430e-12 -2.628879e-11 1.797942e-15) (6.395480e-15 -6.733247e-12 2.730557e-14)) ((-3.581624e-17 3.570208e-16 1.871655e-12) (-5.743482e-18 1.030264e-15 5.094361e-09))
0.04368       	((1.685427e-12 -8.359672e-11 -1.321068e-12) (7.922607e-15 -7.092094e-12 3.912394e-14)) ((7.147795e-17 4.333499e-16 1.018566e-12) (1.303173e-18 1.842516e-15 4.614020e-09))
0.064416      	((2.748596e-12 1.188296e-11 1.162818e-12) (5.817301e-15 -6.121959e-12 6.412481e-14)) ((-2.307191e-17 2.288262e-16 5.463019e-13) (1.146258e-16 2.883581e-15 4.131047e-09))
0.0892992     	((-1.450425e-12 -3.714102e-11 -1.026205e-12) (3.505031e-15 -5.091045e-12 9.750661e-14)) ((1.102680e-16 5.935430e-16 4.085442e-13) (3.584498e-16 4.190488e-15 3.659587e-09))
0.119159      	((9.402076e-13 6.726940e-12 -1.592059e-13) (2.026783e-15 -4.139913e-12 1.152487e-13)) ((-4.543192e-18 4.319279e-16 3.044421e-13) (4.759617e-16 4.892532e-15 3.214250e-09))
0.154991      	((-5.465326e-13 -1.828683e-11 3.149704e-13) (-3.283684e-16 -3.738966e-12 1.190655e-13)) ((5.079759e-17 3.248231e-16 2.481080e-13) (5.949516e-16 5.100264e-15 2.805310e-09))
0.197989      	((1.139184e-13 -5.636096e-12 5.008135e-14) (-5.609705e-15 -3.244673e-12 1.172658e-13)) ((8.895883e-17 2.842260e-16 2.030205e-13) (7.801861e-16 5.113784e-15 2.442734e-09))
0.249587      	((-5.679421e-13 -1.467929e-11 -4.290073e-13) (-9.377937e-15 -2.863434e-12 1.204666e-13)) ((6.873223e-17 3.161542e-16 1.671050e-13) (8.178005e-16 4.877655e-15 2.131964e-09))
0.311504      	((2.396946e-13 -8.483972e-12 -1.833649e-13) (-9.011287e-15 -2.593018e-12 1.324981e-13)) ((4.129538e-17 1.951503e-16 1.357730e-13) (6.534899e-16 4.665805e-15 1.872257e-09))
0.385805      	((9.962428e-13 -6.627280e-12 5.069038e-14) (-4.766519e-15 -2.470390e-12 1.466800e-13)) ((1.849495e-17 7.606715e-17 1.115865e-13) (2.229020e-16 4.740511e-15 1.658001e-09))
0.474966      	((1.794315e-12 -6.697973e-12 -2.112064e-13) (3.152171e-15 -2.466875e-12 1.498732e-13)) ((1.547583e-18 4.539238e-17 9.520590e-14) (7.055965e-17 4.728941e-15 1.480762e-09))
0.581959      	((1.397686e-12 -4.561456e-12 -1.773950e-13) (-1.501923e-14 -2.261192e-12 1.162514e-13)) ((1.426735e-17 -5.871228e-17 8.081665e-14) (1.614490e-16 3.189850e-15 1.331784e-09))
0.710351      	((2.203398e-12 -3.432766e-12 1.305109e-13) (-4.088316e-14 -1.936986e-12 6.350293e-14)) ((-4.487568e-17 -1.108032e-16 6.700493e-14) (1.181674e-16 6.371019e-16 1.203806e-09))
0.864421      	((2.069392e-12 -5.960750e-12 2.845243e-13) (-5.535302e-14 -1.883072e-12 2.722729e-14)) ((-7.622763e-17 -2.383509e-16 5.736733e-14) (-1.818729e-16 -1.566453e-15 1.091710e-09))
1.049306      	((2.214318e-12 -9.422070e-12 2.083468e-13) (-7.131813e-14 -1.787401e-12 -1.223357e-14)) ((-8.377695e-17 -3.062711e-16 5.168570e-14) (3.509451e-16 -2.800115e-15 9.920987e-10))
1.271167      	((2.901588e-12 -1.070749e-11 2.674311e-14) (-7.992801e-14 -1.615738e-12 -6.537245e-14)) ((-6.979836e-17 -3.107649e-16 4.718871e-14) (1.756494e-15 -3.000266e-15 9.026687e-10))
1.5374        	((3.249824e-12 -1.160308e-11 7.718496e-14) (-1.500966e-13 -1.716159e-12 -1.143838e-13)) ((-7.929713e-17 -4.481807e-16 4.355553e-14) (3.996198e-15 -1.775561e-15 8.219520e-10))
1.85688       	((3.874600e-12 -1.598149e-11 4.590585e-13) (-2.956823e-13 -1.946747e-12 -1.040314e-13)) ((-9.546666e-17 -4.852411e-16 4.073251e-14) (7.368529e-15 2.152379e-15 7.491336e-10))
2.240256      	((3.049668e-12 -1.102909e-11 2.657906e-14) (-4.912123e-13 -1.773840e-12 -8.607008e-14)) ((-1.032544e-16 -5.157821e-16 3.968461e-14) (1.252613e-14 8.146114e-15 6.838021e-10))
2.700307      	((3.010196e-12 -6.574140e-12 -2.875439e-14) (-7.727061e-13 -1.219564e-12 -1.189156e-13)) ((-8.219446e-17 -5.205578e-16 3.846855e-14) (1.984582e-14 1.528565e-14 6.256637e-10))
3.252369      	((2.375472e-12 -4.771717e-12 -3.702450e-14) (-1.111940e-12 -7.306987e-13 -1.878262e-13)) ((-4.626670e-17 -4.846131e-16 3.655756e-14) (2.750806e-14 2.038751e-14 5.743042e-10))
3.914842      	((1.826731e-12 -3.141185e-12 -1.809166e-13) (-1.467144e-12 -2.812366e-13 -1.754052e-13)) ((-8.193604e-17 -4.000869e-16 3.371701e-14) (3.246424e-14 2.613929e-14 5.290947e-10))
4.709811      	((3.358521e-13 -1.685369e-12 -2.083261e-13) (-1.766443e-12 3.354076e-13 -9.881694e-14)) ((-3.532743e-17 -2.929500e-16 3.039556e-14) (3.478361e-14 3.034535e-14 4.892470e-10))
5.663773      	((-3.786320e-13 7.226934e-13 2.600895e-14) (-1.961968e-12 1.115870e-12 -1.943758e-14)) ((1.267309e-17 -1.993728e-16 2.741364e-14) (3.545960e-14 3.219867e-14 4.538540e-10))
6.808528      	((-5.131339e-13 6.338235e-13 -2.264013e-14) (-1.995602e-12 1.443360e-12 8.074140e-15)) ((1.570978e-17 -1.102420e-16 2.465419e-14) (3.362202e-14 3.065031e-14 4.220309e-10))
8.182233      	((-7.613768e-13 1.615622e-12 1.152505e-13) (-1.825015e-12 1.297555e-12 -3.260283e-15)) ((3.474732e-17 -6.875137e-17 2.223952e-14) (2.906016e-14 2.564116e-14 3.931142e-10))
9.83068       	((-6.718674e-13 6.269993e-13 -3.527074e-14) (-1.586874e-12 9.416913e-13 1.493546e-14)) ((6.687376e-17 1.970995e-17 2.029238e-14) (2.311893e-14 2.072965e-14 3.666387e-10))
11.808816     	((-8.396024e-14 -6.653205e-13 7.952807e-14) (-1.272917e-12 4.570577e-13 -1.215916e-14)) ((7.708260e-17 5.833557e-17 1.860896e-14) (1.751273e-14 1.441642e-14 3.422909e-10))
14.182579     	((1.683059e-13 -6.097414e-13 6.644852e-14) (-9.523861e-13 1.679669e-13 1.301847e-14)) ((8.214188e-17 1.219933e-16 1.729398e-14) (1.249242e-14 1.053460e-14 3.198700e-10))
17.031095     	((1.846003e-13 -4.376598e-13 4.636924e-14) (-7.054743e-13 3.462999e-14 4.689388e-14)) ((6.590594e-17 1.450261e-16 1.627478e-14) (8.400443e-15 7.584255e-15 2.992585e-10))
20.449314     	((2.765587e-13 -7.574629e-13 9.686825e-14) (-5.228213e-13 -8.148324e-14 2.074822e-14)) ((5.033695e-17 1.613967e-16 1.545851e-14) (6.054532e-15 4.118048e-15 2.803728e-10))
24.551176     	((3.166111e-13 -9.671961e-13 1.064925e-13) (-4.076760e-13 -4.727274e-14 -2.864348e-15)) ((3.952607e-17 1.507876e-16 1.471794e-14) (4.320849e-15 2.430244e-15 2.631161e-10))
29.473411     	((2.546392e-13 -8.625134e-13 7.601825e-14) (-3.249878e-13 5.869581e-14 -1.485693e-14)) ((3.213540e-17 1.316420e-16 1.412078e-14) (3.579712e-15 2.142910e-15 2.473737e-10))
35.380094     	((3.805406e-13 -8.801610e-13 7.933849e-14) (-2.794275e-13 1.779309e-13 -9.153800e-15)) ((3.677259e-17 1.273233e-16 1.357846e-14) (3.636726e-15 2.876905e-15 2.330046e-10))
42.468112     	((2.655597e-13 -8.420463e-13 7.475138e-14) (-2.658208e-13 2.952423e-13 -6.878324e-15)) ((4.495608e-17 1.150810e-16 1.315088e-14) (4.052753e-15 3.574893e-15 2.198870e-10))
50.973735     	((1.754360e-13 -8.731544e-13 5.149913e-14) (-2.829885e-13 4.344389e-13 -1.879806e-14)) ((4.326713e-17 1.094983e-16 1.274126e-14) (4.655877e-15 3.978970e-15 2.079231e-10))
61.180482     	((2.293951e-13 -7.865982e-13 2.997189e-14) (-2.952711e-13 5.522056e-13 -3.268465e-14)) ((3.757858e-17 9.987794e-17 1.243304e-14) (5.487967e-15 4.187972e-15 1.970279e-10))
73.428578     	((6.447197e-14 -6.529323e-13 1.395070e-14) (-3.171738e-13 6.618847e-13 -3.228170e-14)) ((3.466519e-17 8.995907e-17 1.223565e-14) (6.299410e-15 4.828658e-15 1.871287e-10))
88.126294     	((1.117060e-13 -6.726932e-13 -1.613615e-14) (-3.370066e-13 7.548704e-13 -3.347628e-14)) ((3.203765e-17 7.816594e-17 1.204187e-14) (6.927771e-15 5.489753e-15 1.781523e-10))
105.763553    	((-1.305189e-14 -6.377178e-13 -9.269117e-15) (-3.479671e-13 7.987785e-13 -2.882768e-14)) ((3.019537e-17 6.600361e-17 1.183101e-14) (7.247463e-15 5.879420e-15 1.700255e-10))
126.928263    	((-4.774825e-14 -5.465478e-13 -1.428410e-14) (-3.586433e-13 7.826756e-13 -2.192549e-14)) ((2.943430e-17 5.659031e-17 1.165229e-14) (7.094552e-15 5.972181e-15 1.626778e-10))
152.325916    	((-1.145873e-13 -5.425434e-13 -9.456719e-15) (-3.510545e-13 7.534057e-13 -1.114578e-14)) ((2.718412e-17 4.792070e-17 1.148759e-14) (6.630401e-15 5.893588e-15 1.560341e-10))
182.803099    	((-1.346727e-13 -5.812633e-13 7.500582e-16) (-3.267943e-13 7.223316e-13 -2.288736e-15)) ((2.386547e-17 3.872604e-17 1.133798e-14) (6.175581e-15 5.697212e-15 1.500151e-10))
219.375719    	((-1.135155e-13 -6.610143e-13 7.287609e-15) (-3.113775e-13 7.143947e-13 9.682119e-16)) ((2.328528e-17 3.740474e-17 1.120878e-14) (6.026543e-15 5.631333e-15 1.445488e-10))
263.262863    	((-1.498429e-13 -7.087002e-13 1.599150e-14) (-2.957827e-13 7.462010e-13 4.750295e-15)) ((2.262316e-17 3.794482e-17 1.108141e-14) (5.802465e-15 5.582875e-15 1.395775e-10))
315.927436    	((-1.718623e-13 -7.367262e-13 7.096067e-15) (-2.933062e-13 7.383868e-13 5.789243e-15)) ((2.441428e-17 3.801168e-17 1.095655e-14) (5.553892e-15 5.722754e-15 1.350540e-10))
379.124923    	((-1.924912e-13 -7.529010e-13 8.980535e-15) (-2.897261e-13 7.076691e-13 4.033925e-15)) ((2.295599e-17 3.729095e-17 1.083833e-14) (5.398739e-15 5.811415e-15 1.309418e-10))
454.961908    	((-1.825882e-13 -7.930382e-13 1.321699e-14) (-2.821835e-13 6.776245e-13 -8.982875e-16)) ((2.083214e-17 3.382157e-17 1.072783e-14) (5.279615e-15 5.650854e-15 1.272131e-10))
545.966289    	((-1.643764e-13 -8.131398e-13 2.379645e-15) (-2.736283e-13 6.723941e-13 -4.103889e-15)) ((1.911039e-17 2.846508e-17 1.062430e-14) (5.083356e-15 5.489799e-15 1.238429e-10))
655.171547    	((-1.799297e-13 -8.563654e-13 1.302413e-14) (-2.667598e-13 6.688289e-13 -3.867495e-15)) ((1.583053e-17 2.573194e-17 1.053027e-14) (4.780467e-15 5.189478e-15 1.208063e-10))
786.217856    	((-1.795200e-13 -8.629480e-13 1.858265e-14) (-2.602528e-13 6.674695e-13 3.686831e-16)) ((1.383921e-17 2.336116e-17 1.043962e-14) (4.330122e-15 4.865754e-15 1.180802e-10))
943.473427    	((-1.656163e-13 -8.443300e-13 2.474130e-14) (-2.414693e-13 6.568137e-13 4.944326e-15)) ((1.289820e-17 2.164394e-17 1.035249e-14) (3.880701e-15 4.546338e-15 1.156439e-10))
1132.180113   	((-1.440155e-13 -8.291376e-13 2.054537e-14) (-2.193422e-13 6.425302e-13 7.703985e-15)) ((1.339701e-17 2.141063e-17 1.027038e-14) (3.495589e-15 4.261879e-15 1.134780e-10))
1358.628135   	((-1.156456e-13 -8.323481e-13 1.491839e-14) (-2.056714e-13 6.295516e-13 8.012816e-15)) ((1.313184e-17 2.095140e-17 1.019459e-14) (3.138481e-15 4.001592e-15 1.115632e-10))
1630.365763   	((-1.003884e-13 -8.578588e-13 1.336962e-14) (-1.971496e-13 6.238069e-13 1.050233e-14)) ((1.269507e-17 2.216291e-17 1.012630e-14) (2.842530e-15 3.785677e-15 1.098792e-10))
1956.450915   	((-1.061169e-13 -8.882476e-13 1.524881e-14) (-1.949012e-13 6.199350e-13 1.336377e-14)) ((1.305052e-17 2.366891e-17 1.006238e-14) (2.638732e-15 3.647858e-15 1.084068e-10))
2347.753098   	((-1.002954e-13 -8.818344e-13 1.561435e-14) (-1.951899e-13 6.103527e-13 1.395014e-14)) ((1.399122e-17 2.381257e-17 1.000321e-14) (2.491546e-15 3.568804e-15 1.071270e-10))
2817.315718   	((-1.075077e-13 -8.717307e-13 1.529770e-14) (-1.933192e-13 5.967171e-13 1.499681e-14)) ((1.376213e-17 2.388845e-17 9.952121e-15) (2.293917e-15 3.517089e-15 1.060216e-10))
3380.790861   	((-1.106824e-13 -8.803149e-13 1.584912e-14) (-1.926981e-13 5.794814e-13 1.505611e-14)) ((1.344732e-17 2.394516e-17 9.908912e-15) (2.104088e-15 3.436968e-15 1.050735e-10))
4056.961033   	((-1.120863e-13 -8.897531e-13 1.690610e-14) (-1.912419e-13 5.621054e-13 1.473189e-14)) ((1.352033e-17 2.402047e-17 9.871718e-15) (1.924027e-15 3.316490e-15 1.042662e-10))
4868.36524    	((-1.190395e-13 -8.945465e-13 2.073409e-14) (-1.900710e-13 5.451379e-13 1.459907e-14)) ((1.348715e-17 2.384680e-17 9.839986e-15) (1.741208e-15 3.162239e-15 1.035837e-10))
5842.050288   	((-1.217490e-13 -8.922255e-13 2.342437e-14) (-1.873289e-13 5.299094e-13 1.469735e-14)) ((1.330013e-17 2.315229e-17 9.812679e-15) (1.605026e-15 2.988928e-15 1.030110e-10))
7010.472346   	((-1.276795e-13 -8.798283e-13 2.798934e-14) (-1.833751e-13 5.165840e-13 1.561806e-14)) ((1.367541e-17 2.326218e-17 9.791224e-15) (1.489051e-15 2.814236e-15 1.025338e-10))
8412.578815   	((-1.257181e-13 -8.643517e-13 3.053000e-14) (-1.802986e-13 5.067241e-13 1.551074e-14)) ((1.354849e-17 2.292987e-17 9.772899e-15) (1.400036e-15 2.715380e-15 1.021391e-10))
10095.106578  	((-1.210219e-13 -8.495463e-13 3.136685e-14) (-1.785857e-13 4.980210e-13 1.503849e-14)) ((1.344407e-17 2.246380e-17 9.758651e-15) (1.328766e-15 2.644789e-15 1.018148e-10))
12114.139893  	((-1.181848e-13 -8.326889e-13 3.651763e-14) (-1.776204e-13 4.900817e-13 1.442436e-14)) ((1.340612e-17 2.157252e-17 9.747393e-15) (1.250886e-15 2.594052e-15 1.015500e-10))
14536.979872  	((-1.121490e-13 -8.194451e-13 3.705782e-14) (-1.763639e-13 4.849810e-13 1.452848e-14)) ((1.358999e-17 2.188119e-17 9.738198e-15) (1.174766e-15 2.497659e-15 1.013352e-10))
17444.387847  	((-1.063414e-13 -8.039711e-13 3.871451e-14) (-1.741320e-13 4.810499e-13 1.453899e-14)) ((1.379814e-17 2.189938e-17 9.730532e-15) (1.112386e-15 2.423170e-15 1.011618e-10))
20933.277416  	((-9.730812e-14 -7.894870e-13 4.485856e-14) (-1.699246e-13 4.771565e-13 1.442197e-14)) ((1.425204e-17 2.208348e-17 9.724606e-15) (1.051604e-15 2.361896e-15 1.010224e-10))
25119.944899  	((-8.418279e-14 -7.782137e-13 4.821624e-14) (-1.682213e-13 4.740249e-13 1.455505e-14)) ((1.442010e-17 2.198861e-17 9.719504e-15) (1.017305e-15 2.301449e-15 1.009110e-10))
30143.945879  	((-6.787504e-14 -7.664883e-13 5.150420e-14) (-1.674500e-13 4.716814e-13 1.449107e-14)) ((1.460441e-17 2.189003e-17 9.715650e-15) (9.900328e-16 2.239224e-15 1.008222e-10))
36172.747055  	((-4.485534e-14 -7.545043e-13 5.542691e-14) (-1.670750e-13 4.703143e-13 1.445866e-14)) ((1.484001e-17 2.192478e-17 9.712992e-15) (9.719179e-16 2.175106e-15 1.007517e-10))
43407.308466  	((-1.949915e-14 -7.346535e-13 5.011822e-14) (-1.677815e-13 4.697613e-13 1.435796e-14)) ((1.582810e-17 2.086420e-17 9.710848e-15) (9.531000e-16 2.114341e-15 1.006959e-10))
52088.782159  	((5.174782e-16 -7.164398e-13 6.057556e-14) (-1.682064e-13 4.684296e-13 1.361877e-14)) ((1.595892e-17 2.107513e-17 9.708931e-15) (9.835034e-16 2.057742e-15 1.006518e-10))
62506.550591  	((2.576945e-14 -6.950150e-13 7.231338e-14) (-1.683398e-13 4.673660e-13 1.348129e-14)) ((1.596464e-17 2.126102e-17 9.707345e-15) (1.000564e-15 2.031379e-15 1.006170e-10))
75007.872709  	((5.472600e-14 -6.711682e-13 8.387568e-14) (-1.684253e-13 4.668338e-13 1.335722e-14)) ((1.608363e-17 2.131950e-17 9.705993e-15) (1.015539e-15 2.019952e-15 1.005897e-10))
90009.45925   	((8.957602e-14 -6.441700e-13 9.666173e-14) (-1.684664e-13 4.674861e-13 1.328443e-14)) ((1.623875e-17 2.129199e-17 9.704538e-15) (1.031471e-15 2.013742e-15 1.005683e-10))
107576.00677  	((1.400534e-13 -6.182394e-13 1.097356e-13) (-1.680666e-13 4.693794e-13 1.334583e-14)) ((1.655946e-17 2.107421e-17 9.703020e-15) (1.047206e-15 2.005258e-15 1.005515e-10))
127707.520427 	((2.003929e-13 -5.894669e-13 1.332817e-13) (-1.669643e-13 4.734574e-13 1.300440e-14)) ((1.537290e-17 2.278068e-17 9.699765e-15) (1.084255e-15 1.992658e-15 1.005384e-10))
150404.00412  	((2.681633e-13 -5.568055e-13 1.322177e-13) (-1.659638e-13 4.770167e-13 1.376148e-14)) ((1.964541e-17 1.706255e-17 9.698061e-15) (9.965199e-16 1.999290e-15 1.005282e-10))
175665.460859 	((3.429768e-13 -5.169915e-13 1.701550e-13) (-1.648415e-13 4.874054e-13 1.234155e-14)) ((1.787299e-17 2.001920e-17 9.690495e-15) (1.037693e-15 2.040332e-15 1.005205e-10))
201315.213996 	((4.620290e-13 -4.558382e-13 1.957267e-13) (-1.634555e-13 4.935991e-13 1.365446e-14)) ((1.831071e-17 1.902305e-17 9.687304e-15) (1.063880e-15 1.970394e-15 1.005143e-10))
226964.984489 	((6.051801e-13 -4.083300e-13 1.900897e-13) (-1.614804e-13 4.964860e-13 1.504891e-14)) ((1.893316e-17 1.818429e-17 9.682618e-15) (1.158676e-15 1.886681e-15 1.005095e-10))
252614.769241 	((7.319307e-13 -2.916528e-13 1.881659e-13) (-1.605100e-13 4.998110e-13 1.433240e-14)) ((2.020588e-17 1.761170e-17 9.671399e-15) (1.059132e-15 1.906053e-15 1.005057e-10))
278264.56852  	((8.505052e-13 -2.305716e-13 2.056097e-13) (-1.567615e-13 5.060499e-13 1.382399e-14)) ((1.910261e-17 1.937688e-17 9.658161e-15) (1.102305e-15 2.029474e-15 1.005027e-10))
303914.382206 	((9.123054e-13 -2.048637e-13 2.250562e-13) (-1.524898e-13 5.088215e-13 1.341593e-14)) ((1.782405e-17 2.115803e-17 9.649225e-15) (1.147620e-15 1.847752e-15 1.005003e-10))
329564.210712 	((9.096233e-13 -1.842559e-13 2.124964e-13) (-1.480753e-13 5.080777e-13 1.568912e-14)) ((1.438539e-17 1.418379e-17 9.639940e-15) (1.002696e-15 1.959743e-15 1.004980e-10))
355214.052139 	((8.591920e-13 -2.165190e-13 2.177591e-13) (-1.451689e-13 5.056419e-13 1.644048e-14)) ((9.589477e-18 1.240578e-17 9.632270e-15) (9.956315e-16 2.099919e-15 1.004954e-10))
380863.904041 	((7.886432e-13 -3.061560e-13 2.069770e-13) (-1.491045e-13 5.025452e-13 1.829319e-14)) ((1.026931e-17 1.678728e-17 9.623403e-15) (1.026483e-15 2.030632e-15 1.004927e-10))
406513.765416 	((7.075031e-13 -4.118765e-13 1.620754e-13) (-1.541616e-13 4.960500e-13 1.682016e-14)) ((1.190699e-17 1.877269e-17 9.616667e-15) (1.098565e-15 2.136389e-15 1.004901e-10))
432163.634372 	((6.445685e-13 -5.013824e-13 1.013674e-13) (-1.575091e-13 4.844406e-13 1.509700e-14)) ((1.338037e-17 2.074845e-17 9.610190e-15) (1.182406e-15 2.256149e-15 1.004874e-10))
457813.510643 	((5.787575e-13 -6.292946e-13 3.844486e-14) (-1.597131e-13 4.773692e-13 1.352044e-14)) ((1.318669e-17 2.055696e-17 9.596594e-15) (1.209953e-15 2.265927e-15 1.004846e-10))
483463.394483 	((5.169013e-13 -7.373160e-13 -1.227931e-14) (-1.612136e-13 4.727886e-13 1.276105e-14)) ((1.322239e-17 2.046009e-17 9.584509e-15) (1.207923e-15 2.240032e-15 1.004819e-10))
509113.285995 	((4.700177e-13 -8.067694e-13 -5.796880e-14) (-1.614501e-13 4.690058e-13 1.197419e-14)) ((1.387188e-17 2.056577e-17 9.576289e-15) (1.195817e-15 2.204843e-15 1.004792e-10))
534763.184575 	((4.399405e-13 -8.531189e-13 -9.855380e-14) (-1.608768e-13 4.658821e-13 1.102979e-14)) ((1.422644e-17 2.032533e-17 9.570314e-15) (1.171558e-15 2.166515e-15 1.004768e-10))
560413.088903 	((4.177206e-13 -8.814265e-13 -1.328461e-13) (-1.603749e-13 4.632268e-13 1.038377e-14)) ((1.451606e-17 2.030857e-17 9.565898e-15) (1.145575e-15 2.116789e-15 1.004747e-10))
586062.998268 	((3.991281e-13 -8.977230e-13 -1.591121e-13) (-1.594739e-13 4.610285e-13 9.942208e-15)) ((1.480025e-17 2.021475e-17 9.562655e-15) (1.121525e-15 2.064380e-15 1.004728e-10))
611712.911891 	((3.831533e-13 -9.057093e-13 -1.793420e-13) (-1.585766e-13 4.594137e-13 9.463889e-15)) ((1.498058e-17 2.010872e-17 9.560216e-15) (1.107500e-15 2.018615e-15 1.004712e-10))
