# Forces      
# CofR        : (0.000000e+00 0.000000e+00 0.000000e+00)
# Time        forces(pressure viscous)	moments(pressure viscous)
0             	((0.000000e+00 0.000000e+00 0.000000e+00) (0.000000e+00 0.000000e+00 0.000000e+00)) ((0.000000e+00 0.000000e+00 0.000000e+00) (0.000000e+00 0.000000e+00 0.000000e+00))
0.012         	((-4.194405e-10 9.107828e-10 2.167655e-07) (9.078644e-12 5.273434e-12 4.584679e-09)) ((-9.760709e-14 8.475581e-09 -3.021284e-15) (-5.372749e-15 5.562765e-06 -3.341113e-13))
0.0264        	((6.842893e-10 -9.810264e-10 -8.119851e-08) (8.103664e-12 1.324179e-11 7.966593e-09)) ((-1.854413e-14 4.296461e-09 4.180404e-13) (9.565476e-14 5.095396e-06 -5.136205e-13))
0.04368       	((1.124117e-09 5.292722e-09 7.586510e-08) (1.932810e-11 1.178850e-11 8.719608e-09)) ((6.670788e-14 2.437355e-09 2.495680e-13) (-1.186698e-13 4.616150e-06 -6.408677e-13))
0.064416      	((1.775028e-09 -1.652615e-09 1.006198e-09) (-5.524359e-11 -1.183395e-11 7.152171e-09)) ((-1.273962e-14 1.459597e-09 4.149309e-14) (-8.055477e-13 4.136366e-06 -9.606297e-13))
0.0892992     	((5.113915e-09 1.722861e-09 5.373010e-09) (-2.405747e-10 -2.952769e-11 5.719081e-09)) ((-2.106436e-15 1.134032e-09 2.992444e-14) (-1.145570e-12 3.670903e-06 -1.478085e-12))
0.119159      	((2.115498e-09 -4.776986e-10 3.184594e-09) (-2.935032e-10 -5.060970e-11 4.783841e-09)) ((-3.334192e-15 8.605741e-10 4.160455e-15) (-1.473702e-12 3.234658e-06 -1.813515e-12))
0.154991      	((-1.698086e-09 -8.855215e-10 -7.200772e-09) (-1.905533e-10 -8.456145e-11 3.908693e-09)) ((-4.589144e-14 7.114328e-10 7.356272e-14) (-1.939551e-12 2.838058e-06 -1.615517e-12))
0.197989      	((-1.175433e-09 -6.405857e-10 1.159685e-09) (-5.171735e-12 -1.078112e-10 3.271791e-09)) ((-8.807028e-14 5.807689e-10 4.015011e-15) (-2.041575e-12 2.487523e-06 -1.357951e-12))
0.249587      	((-1.854719e-09 -6.250523e-10 -4.172439e-09) (1.250770e-10 -1.087409e-10 2.783839e-09)) ((-8.557494e-14 4.901624e-10 3.544048e-15) (-1.599489e-12 2.185067e-06 -1.113733e-12))
0.311504      	((-2.576603e-09 4.270009e-10 1.750323e-09) (6.306889e-11 -8.932714e-11 2.388611e-09)) ((-5.541325e-14 4.219658e-10 -3.208091e-14) (-1.144773e-12 1.928953e-06 -9.094339e-13))
0.385805      	((-1.240288e-09 3.192637e-10 -1.586839e-09) (-1.027239e-10 -6.619472e-11 2.127444e-09)) ((-4.590440e-14 3.739695e-10 -1.549752e-14) (-5.880579e-13 1.713479e-06 -6.887152e-13))
0.474966      	((1.081296e-09 -6.389672e-12 -2.320505e-10) (-5.184120e-11 -5.380679e-11 1.747340e-09)) ((-4.657382e-14 3.390971e-10 1.247931e-14) (1.968053e-14 1.531032e-06 -1.471952e-13))
0.581959      	((-8.487606e-10 -4.687895e-10 -1.460900e-09) (1.926762e-10 -6.390264e-11 1.027801e-09)) ((-3.081264e-14 3.061681e-10 5.198977e-14) (1.323079e-13 1.374995e-06 9.216884e-14))
0.710351      	((1.445099e-09 -9.119638e-10 -7.808077e-10) (8.523915e-11 -8.694586e-11 5.045951e-10)) ((-7.577553e-14 2.746627e-10 8.653216e-14) (-3.584634e-13 1.239952e-06 -3.703425e-13))
0.864421      	((-5.668781e-10 -1.342597e-09 5.324489e-09) (1.597699e-10 -9.979610e-11 7.073205e-11)) ((-6.613890e-14 2.519498e-10 9.292104e-14) (-1.119062e-12 1.121705e-06 -2.041330e-12))
1.049306      	((2.254212e-09 -7.046606e-10 4.390062e-09) (3.623119e-10 -7.820165e-11 -2.321799e-10)) ((-5.643093e-15 2.356342e-10 1.227359e-13) (-1.398787e-12 1.017049e-06 -3.500040e-12))
1.271167      	((-2.700056e-09 -1.214782e-10 5.967496e-09) (2.358353e-10 -3.949269e-11 -3.796553e-10)) ((4.461822e-14 2.208345e-10 1.260466e-13) (2.567976e-13 9.236154e-07 -3.071999e-12))
1.5374        	((-4.134749e-11 4.781915e-10 4.046676e-09) (2.567250e-10 -6.497876e-11 -5.922891e-10)) ((7.360765e-14 2.022749e-10 1.412018e-13) (3.056326e-12 8.398431e-07 -2.100806e-12))
1.85688       	((-1.625024e-09 -5.061220e-10 4.753191e-09) (3.928470e-10 -1.314007e-10 -5.135456e-10)) ((1.310829e-13 1.831652e-10 1.448913e-13) (5.863181e-12 7.648875e-07 -4.658891e-13))
2.240256      	((-1.713748e-09 4.284776e-10 2.245458e-09) (2.294462e-10 -1.394321e-10 -4.496651e-10)) ((1.242528e-13 1.670777e-10 1.413665e-13) (8.286512e-12 6.982892e-07 3.532019e-12))
2.700307      	((-1.384143e-09 1.080813e-10 5.224843e-09) (1.683811e-10 -1.867361e-10 -3.748939e-10)) ((8.576253e-14 1.540751e-10 5.799203e-14) (8.886375e-12 6.395803e-07 7.406230e-12))
3.252369      	((-6.321742e-10 4.383778e-10 3.298800e-09) (3.535888e-10 -2.079892e-10 -5.026622e-10)) ((9.968546e-15 1.411931e-10 -4.651896e-15) (8.694575e-12 5.880838e-07 1.123815e-11))
3.914842      	((1.329600e-09 3.811300e-10 3.929592e-09) (5.673988e-10 -1.891263e-10 -3.060164e-10)) ((3.752896e-14 1.281856e-10 -3.184647e-14) (9.248805e-12 5.428794e-07 1.256770e-11))
4.709811      	((2.686070e-09 4.461313e-10 2.170108e-09) (6.790396e-10 -2.093411e-10 -1.664965e-10)) ((4.072239e-14 1.162866e-10 1.254637e-14) (1.098999e-11 5.029108e-07 1.054844e-11))
5.663773      	((2.846691e-09 7.391432e-10 1.467721e-09) (7.818289e-10 -1.941216e-10 4.230608e-11)) ((8.172557e-14 1.048636e-10 4.048198e-14) (1.224592e-11 4.671587e-07 7.586939e-12))
6.808528      	((2.232184e-09 1.219045e-09 7.552370e-10) (5.474279e-10 -2.389042e-10 3.842212e-10)) ((9.983062e-14 9.447401e-11 -9.954965e-15) (1.095105e-11 4.348206e-07 4.513345e-12))
8.182233      	((1.619459e-09 3.042362e-10 6.336891e-10) (3.174587e-10 -3.621365e-10 5.800784e-10)) ((1.000889e-13 8.500943e-11 -1.376271e-14) (8.525663e-12 4.053404e-07 3.145124e-12))
9.83068       	((6.037383e-10 -2.097975e-11 1.160963e-09) (1.149064e-10 -3.797341e-10 7.786425e-10)) ((5.677222e-14 7.637787e-11 -1.908753e-14) (6.550794e-12 3.783185e-07 3.707183e-12))
11.808816     	((-4.007655e-11 -3.040087e-10 6.820212e-10) (-2.669425e-10 -3.314931e-10 4.523732e-10)) ((9.229894e-14 6.871045e-11 -3.727837e-14) (5.189171e-12 3.534263e-07 5.269461e-12))
14.182579     	((-2.356148e-10 -4.613106e-10 6.102963e-10) (-5.931921e-10 -3.453825e-10 4.164871e-10)) ((1.246169e-13 6.185836e-11 -4.201832e-14) (2.360540e-12 3.304584e-07 6.195411e-12))
17.031095     	((1.869649e-10 -3.643310e-10 3.003162e-10) (-5.244197e-10 -2.742049e-10 6.065316e-10)) ((1.601809e-13 5.584534e-11 -4.325783e-14) (-9.412566e-13 3.093472e-07 6.183039e-12))
20.449314     	((-6.389374e-10 -3.082562e-10 5.413225e-14) (-3.601859e-10 -2.518330e-10 4.813227e-10)) ((1.995532e-13 5.085911e-11 -3.913254e-14) (-4.396515e-12 2.900982e-07 6.763929e-12))
24.551176     	((-3.861445e-10 -1.241440e-10 -3.855674e-10) (-3.097565e-10 -2.145828e-10 4.083978e-10)) ((2.111730e-13 4.670306e-11 -2.009480e-14) (-7.233602e-12 2.726783e-07 8.719837e-12))
29.473411     	((-3.041144e-10 4.642733e-12 1.378896e-10) (-3.192391e-10 -1.419954e-10 1.291002e-10)) ((1.836415e-13 4.327170e-11 -2.390167e-14) (-8.943707e-12 2.570015e-07 1.066615e-11))
35.380094     	((-2.902217e-10 2.324641e-10 1.195725e-10) (-3.303537e-10 -6.878722e-11 8.172313e-11)) ((1.392747e-13 4.000509e-11 -3.950540e-14) (-9.976631e-12 2.429431e-07 1.228094e-11))
42.468112     	((-6.927792e-10 -2.565047e-11 -1.689177e-10) (-2.659670e-10 -5.580316e-11 6.795675e-11)) ((1.199936e-13 3.722199e-11 -3.258521e-14) (-1.041099e-11 2.303156e-07 1.316489e-11))
50.973735     	((-5.552037e-10 -2.637675e-11 -6.680410e-11) (-3.394618e-10 -6.804605e-11 2.106834e-10)) ((1.051627e-13 3.484977e-11 -2.579422e-14) (-1.089958e-11 2.189292e-07 1.284588e-11))
61.180482     	((-7.585934e-10 -2.531833e-10 -3.805823e-10) (-5.008095e-10 -7.696502e-11 2.541248e-10)) ((1.059265e-13 3.277666e-11 -1.473036e-14) (-1.148606e-11 2.086550e-07 1.178296e-11))
73.428578     	((-5.390788e-11 -1.153250e-10 4.866107e-10) (-5.340426e-10 -3.619909e-11 2.926028e-10)) ((9.961075e-14 3.082189e-11 1.653292e-15) (-1.114646e-11 1.994028e-07 9.998931e-12))
88.126294     	((-7.145184e-10 -2.017818e-10 3.363813e-10) (-5.015082e-10 -1.449913e-11 3.790720e-10)) ((8.767312e-14 2.897244e-11 -3.047220e-15) (-1.028054e-11 1.911325e-07 7.393939e-12))
105.384292    	((-1.008131e-09 -1.384155e-10 2.127355e-10) (-2.465800e-10 -4.629348e-11 3.368517e-10)) ((8.021734e-14 2.733187e-11 -8.749011e-15) (-1.045381e-11 1.838985e-07 4.553447e-12))
125.202113    	((-1.226103e-09 -2.279603e-10 5.890566e-11) (-5.139795e-11 -9.906128e-11 2.784672e-10)) ((7.994419e-14 2.589951e-11 -1.346289e-14) (-1.044010e-11 1.776834e-07 2.268287e-12))
147.579241    	((-1.241012e-09 -2.209843e-10 -4.667248e-12) (-9.409888e-11 -1.176253e-10 3.627732e-10)) ((6.904816e-14 2.473548e-11 -1.419419e-14) (-1.036517e-11 1.724358e-07 3.591896e-13))
172.515058    	((-1.242191e-09 -2.135693e-10 -2.273385e-11) (-1.787217e-10 -8.839847e-11 3.657724e-10)) ((6.288739e-14 2.379951e-11 9.422123e-16) (-1.050625e-11 1.680786e-07 -5.076942e-13))
198.094195    	((-1.073007e-09 -8.071237e-11 1.032212e-10) (-1.596717e-10 -3.748060e-11 3.142464e-10)) ((6.062905e-14 2.306730e-11 8.274148e-15) (-1.093334e-11 1.646336e-07 -6.592397e-13))
223.664991    	((-8.267927e-10 -7.992672e-11 1.266997e-10) (-1.277893e-10 -5.298190e-12 3.277154e-10)) ((5.574749e-14 2.251896e-11 1.192336e-14) (-1.131661e-11 1.619965e-07 -3.019298e-13))
249.227301    	((-6.019961e-10 -3.754259e-11 3.943591e-10) (-3.300723e-11 2.239382e-11 4.208997e-10)) ((6.856343e-14 2.207333e-11 3.466478e-15) (-1.140087e-11 1.600614e-07 2.928597e-13))
274.780725    	((-2.690341e-10 1.569447e-11 3.844963e-10) (-4.431470e-12 5.376948e-11 4.674200e-10)) ((6.836847e-14 2.172189e-11 3.407125e-15) (-1.066614e-11 1.587189e-07 6.979939e-13))
300.32477     	((3.134557e-11 1.470350e-11 6.286310e-10) (-5.095718e-11 6.391138e-11 5.696206e-10)) ((7.077330e-14 2.145750e-11 2.346696e-15) (-9.485947e-12 1.578798e-07 9.571435e-13))
325.859372    	((1.405689e-10 3.825399e-11 5.150508e-10) (-6.265398e-11 5.988276e-11 6.023396e-10)) ((7.408831e-14 2.126406e-11 1.898531e-16) (-8.349434e-12 1.574667e-07 8.883572e-13))
351.384685    	((1.570317e-10 1.208511e-11 4.974312e-10) (-2.620693e-11 5.399747e-11 6.024242e-10)) ((7.633107e-14 2.120962e-11 1.010824e-15) (-7.310749e-12 1.574129e-07 7.438139e-13))
376.90074     	((1.181511e-10 6.079521e-11 4.107954e-10) (3.042579e-12 4.411584e-11 5.707604e-10)) ((8.186068e-14 2.120006e-11 2.378972e-15) (-6.614891e-12 1.576590e-07 7.010052e-13))
402.407574    	((8.231604e-11 2.335500e-11 4.326535e-10) (7.125010e-12 3.293641e-11 5.455091e-10)) ((8.727881e-14 2.118897e-11 2.186075e-15) (-6.342173e-12 1.581577e-07 7.320375e-13))
427.905419    	((3.178176e-11 3.256583e-11 4.497658e-10) (-8.591074e-12 2.240997e-11 5.665628e-10)) ((9.243634e-14 2.122738e-11 1.841305e-15) (-6.497346e-12 1.588662e-07 8.691129e-13))
453.39464     	((1.029783e-11 4.596653e-11 4.690509e-10) (-1.152822e-11 1.638675e-11 5.874354e-10)) ((9.850067e-14 2.132526e-11 5.155481e-16) (-6.947843e-12 1.597443e-07 1.155023e-12))
478.875368    	((1.409933e-11 3.647772e-12 5.592073e-10) (-3.651729e-12 8.737926e-12 5.845267e-10)) ((1.022345e-13 2.145371e-11 -1.195390e-16) (-7.550095e-12 1.607540e-07 1.664163e-12))
504.347755    	((1.032733e-10 -4.974513e-12 6.438110e-10) (3.440970e-11 -2.539941e-12 6.008462e-10)) ((1.069125e-13 2.159997e-11 -8.101621e-19) (-8.217249e-12 1.618579e-07 2.310587e-12))
529.812025    	((1.654662e-10 -2.486580e-12 6.874974e-10) (7.399999e-11 -8.225502e-12 6.103720e-10)) ((1.108829e-13 2.176414e-11 -7.494485e-16) (-8.715682e-12 1.630186e-07 2.964881e-12))
555.268148    	((2.365922e-10 1.646363e-11 7.067643e-10) (1.105323e-10 -9.012123e-12 6.093119e-10)) ((1.147879e-13 2.194127e-11 -1.089854e-15) (-9.049513e-12 1.642008e-07 3.528507e-12))
580.71648     	((2.637104e-10 -3.071208e-12 7.102456e-10) (1.316826e-10 -5.074451e-12 6.104320e-10)) ((1.185582e-13 2.212849e-11 -9.439033e-16) (-9.199802e-12 1.653717e-07 3.873241e-12))
606.157434    	((2.726234e-10 4.401669e-13 6.645778e-10) (1.351852e-10 -1.683678e-12 6.061557e-10)) ((1.216097e-13 2.232428e-11 -1.020125e-15) (-9.276154e-12 1.665024e-07 4.127057e-12))
