# Forces      
# CofR        : (0.000000e+00 0.000000e+00 0.000000e+00)
# Time        forces(pressure viscous)	moments(pressure viscous)
0             	((0.000000e+00 0.000000e+00 0.000000e+00) (8.746169e-16 -1.592789e-05 2.175367e-15)) ((0.000000e+00 0.000000e+00 0.000000e+00) (-1.037700e-16 2.871831e-18 5.735191e-12))
0.012         	((-3.315821e-10 -4.632118e-03 1.149314e-09) (9.864388e-12 -1.828041e-05 1.397290e-11)) ((-1.913393e-12 -2.915451e-14 8.752173e-10) (-1.565761e-13 -4.371527e-15 1.193895e-11))
0.0264        	((-9.461338e-08 3.183464e-04 -8.410148e-08) (-5.437587e-11 -1.865456e-05 -4.863010e-11)) ((4.304119e-12 -1.906741e-13 -5.842286e-11) (-4.426233e-14 4.786950e-14 1.618642e-11))
0.04368       	((5.410057e-08 9.702607e-04 9.270144e-08) (-5.964682e-11 -1.658027e-05 -3.117801e-11)) ((2.045650e-12 -2.702210e-13 -2.324459e-10) (5.502681e-13 5.636018e-14 1.397898e-11))
0.064416      	((5.824018e-09 9.193535e-06 -1.100301e-08) (-1.773747e-10 -1.468645e-05 -1.853023e-10)) ((-1.629415e-12 2.884536e-14 1.009468e-11) (-1.644311e-12 5.471308e-15 1.766896e-11))
0.0892992     	((2.497723e-09 -1.294570e-05 -1.422653e-08) (-2.796595e-10 -1.355946e-05 -3.105916e-10)) ((-3.572466e-13 5.960328e-13 1.295115e-11) (-3.420249e-12 1.490892e-13 1.955199e-11))
0.119159      	((-4.087756e-09 1.446466e-05 -9.077044e-09) (-2.709736e-10 -1.252110e-05 -2.792928e-10)) ((-1.479244e-12 -4.731966e-14 -3.284268e-12) (-2.311533e-13 2.427541e-13 1.671313e-11))
0.154991      	((2.239829e-09 7.817922e-06 2.323900e-09) (-2.612785e-10 -1.141950e-05 -2.524777e-10)) ((-8.684028e-13 -1.364567e-13 -1.053117e-12) (2.694666e-12 2.455763e-13 1.185779e-11))
0.197989      	((3.940224e-09 1.894171e-06 1.824853e-09) (-1.919963e-10 -1.030700e-05 -1.478525e-10)) ((-1.038201e-12 1.184139e-13 -2.417503e-13) (1.956373e-12 4.644835e-13 2.509265e-12))
0.249587      	((2.055742e-10 -2.519697e-07 1.318906e-09) (-1.179246e-10 -9.215020e-06 -5.918510e-11)) ((-7.191127e-13 -4.082902e-14 7.623160e-13) (3.347498e-13 7.357626e-13 -1.768852e-12))
0.311504      	((1.374581e-10 -1.234449e-06 7.166127e-10) (-3.840952e-11 -8.176115e-06 -1.083380e-11)) ((-4.519996e-13 9.351991e-15 1.205881e-12) (-4.645388e-13 6.911056e-13 -2.891927e-12))
0.385805      	((1.877458e-10 -1.703945e-06 1.870468e-10) (2.320627e-11 -7.216551e-06 1.699286e-11)) ((-3.291883e-13 7.054827e-15 1.018384e-12) (-1.084148e-12 4.413473e-13 -4.826720e-12))
0.474966      	((2.630999e-10 -1.924949e-06 5.896781e-10) (4.355670e-11 -6.355703e-06 2.291491e-11)) ((-1.954276e-13 1.859785e-14 8.363043e-13) (-1.266306e-12 2.902218e-13 -4.045029e-12))
0.581959      	((1.945632e-11 -2.013942e-06 1.923241e-10) (5.887526e-11 -5.602077e-06 2.203971e-11)) ((-1.286230e-13 1.370490e-14 7.117183e-13) (-1.192166e-12 2.173901e-13 3.540060e-13))
0.710351      	((7.580870e-11 -2.006155e-06 1.752729e-10) (8.821311e-11 -4.956128e-06 8.544930e-12)) ((-7.207888e-14 1.125151e-14 5.778452e-13) (-6.269406e-13 1.585861e-13 4.352540e-12))
0.864421      	((9.185152e-11 -1.933629e-06 3.038193e-11) (1.346291e-10 -4.409605e-06 2.717810e-12)) ((-3.905888e-14 1.181171e-14 5.862475e-13) (-4.626351e-13 7.667162e-14 4.781223e-12))
1.049306      	((1.017856e-10 -1.826941e-06 5.189937e-11) (1.612501e-10 -3.948547e-06 6.107889e-12)) ((-1.635925e-14 9.024752e-15 5.743552e-13) (-3.929530e-13 1.877623e-14 2.833338e-12))
1.271167      	((1.070089e-10 -1.708736e-06 2.458692e-11) (1.501427e-10 -3.558493e-06 9.697524e-12)) ((-5.008407e-15 7.139656e-15 5.266575e-13) (-2.800160e-13 1.490765e-14 4.680672e-13))
1.5374        	((1.434687e-10 -1.588041e-06 5.275186e-11) (1.233977e-10 -3.224099e-06 1.058913e-11)) ((-5.639982e-16 4.445978e-15 5.191669e-13) (-6.411580e-14 4.074809e-14 -1.230000e-12))
1.85688       	((1.363785e-10 -1.470349e-06 2.425493e-11) (1.033880e-10 -2.931377e-06 1.129843e-11)) ((-9.624848e-16 2.373225e-15 5.251955e-13) (1.801898e-13 7.303408e-14 -1.942420e-12))
2.240256      	((8.620979e-11 -1.358669e-06 1.784233e-11) (8.033043e-11 -2.671160e-06 1.283156e-11)) ((-3.488418e-15 2.119388e-15 5.275971e-13) (3.795226e-13 9.205961e-14 -1.490930e-12))
2.700307      	((5.571122e-11 -1.254524e-06 -4.975348e-12) (7.409293e-11 -2.437800e-06 1.270308e-11)) ((-3.989758e-15 1.364803e-15 5.230423e-13) (6.529381e-13 9.062182e-14 4.676583e-13))
3.252369      	((1.465509e-11 -1.157360e-06 -3.418753e-11) (7.256208e-11 -2.227494e-06 1.303348e-11)) ((-4.461609e-15 1.260621e-15 4.855685e-13) (9.047114e-13 6.905248e-14 3.594292e-12))
3.914842      	((1.940578e-11 -1.065933e-06 -5.629346e-11) (6.498415e-11 -2.037465e-06 1.241648e-11)) ((-4.770949e-15 1.707434e-15 4.417594e-13) (1.127488e-12 5.993445e-14 6.658343e-12))
4.709811      	((4.960421e-11 -9.809681e-07 -4.550669e-11) (5.054594e-11 -1.865733e-06 1.043292e-11)) ((-5.059535e-15 2.672888e-15 3.950073e-13) (1.258996e-12 5.756587e-14 8.441898e-12))
5.663773      	((1.121568e-10 -9.025411e-07 -1.763803e-11) (3.970517e-11 -1.710839e-06 8.915603e-12)) ((-6.588280e-15 2.936129e-15 3.541757e-13) (1.298591e-12 5.535202e-14 8.821426e-12))
6.808528      	((1.488557e-10 -8.305754e-07 7.517441e-12) (3.796718e-11 -1.571529e-06 6.875824e-12)) ((-8.080773e-15 1.983365e-15 3.110973e-13) (1.303419e-12 6.530644e-14 8.615972e-12))
8.182233      	((1.379632e-10 -7.648112e-07 -1.446874e-12) (3.862852e-11 -1.446467e-06 4.773198e-12)) ((-8.347371e-15 1.936096e-15 2.695279e-13) (1.427756e-12 7.527551e-14 8.374197e-12))
9.83068       	((1.081120e-10 -7.051144e-07 -1.814328e-11) (3.358271e-11 -1.334127e-06 4.015652e-12)) ((-8.532815e-15 2.188607e-15 2.332146e-13) (1.814458e-12 6.457772e-14 8.122537e-12))
11.808816     	((1.170179e-10 -6.505228e-07 -1.569162e-11) (2.169712e-11 -1.232872e-06 3.394895e-12)) ((-6.450814e-15 2.399057e-15 2.024873e-13) (2.588708e-12 4.253619e-14 7.049896e-12))
14.182579     	((1.210688e-10 -6.006184e-07 -1.813299e-11) (1.686373e-11 -1.141198e-06 2.096290e-12)) ((-5.703333e-15 1.960816e-15 1.761126e-13) (3.736523e-12 -9.681530e-15 5.314716e-12))
17.031095     	((5.032346e-11 -5.551156e-07 -4.920802e-11) (1.429298e-11 -1.057883e-06 3.513803e-12)) ((-4.870551e-15 1.338776e-15 1.523353e-13) (5.171702e-12 -5.099960e-14 3.665807e-12))
20.449314     	((-1.364362e-11 -5.135899e-07 -9.300127e-11) (9.801819e-12 -9.819702e-07 3.560077e-12)) ((-4.946433e-15 9.364472e-16 1.339417e-13) (6.774606e-12 -2.499631e-14 2.093758e-12))
24.551176     	((-4.006566e-11 -4.758024e-07 -1.149235e-10) (5.952946e-12 -9.127782e-07 4.111184e-12)) ((-4.695990e-15 -1.167768e-17 1.200725e-13) (8.305198e-12 -6.508019e-15 8.388926e-13))
29.473411     	((-1.396749e-11 -4.415254e-07 -8.059257e-11) (3.488305e-12 -8.497965e-07 7.728274e-12)) ((-4.244272e-15 -5.893069e-16 1.085785e-13) (9.572769e-12 2.765464e-14 -1.550610e-13))
35.380094     	((-1.827974e-11 -4.104047e-07 -7.801146e-11) (2.529186e-12 -7.925854e-07 9.361651e-12)) ((-3.718360e-15 -7.922526e-16 9.969346e-14) (1.058356e-11 6.415136e-14 -1.243628e-12))
42.468112     	((-5.850427e-11 -3.823750e-07 -1.114503e-10) (5.190822e-12 -7.406987e-07 9.432212e-12)) ((-3.318114e-15 -5.573727e-16 9.276611e-14) (1.166202e-11 6.304218e-14 -2.618390e-12))
50.973735     	((-6.885278e-11 -3.572189e-07 -1.263157e-10) (9.389193e-12 -6.937011e-07 9.063875e-12)) ((-3.643127e-15 -5.242957e-16 8.699777e-14) (1.307401e-11 7.018710e-14 -4.499012e-12))
61.180482     	((-3.272378e-11 -3.347477e-07 -9.769712e-11) (1.487093e-11 -6.511634e-07 1.227022e-11)) ((-3.658681e-15 -2.115192e-16 8.254495e-14) (1.486149e-11 7.344319e-14 -6.856944e-12))
73.428578     	((4.062338e-12 -3.147189e-07 -6.668584e-11) (2.248722e-11 -6.126512e-07 1.766349e-11)) ((-3.122696e-15 3.285402e-16 7.968388e-14) (1.715956e-11 6.377082e-14 -9.688337e-12))
88.126294     	((3.019168e-11 -2.969737e-07 -4.218504e-11) (3.214738e-11 -5.777714e-07 2.376671e-11)) ((-2.482084e-15 4.691332e-16 7.796992e-14) (1.984163e-11 5.769484e-14 -1.283062e-11))
105.763553    	((6.257463e-11 -2.814036e-07 -1.536915e-11) (4.243726e-11 -5.461795e-07 2.992994e-11)) ((-1.905060e-15 8.663543e-16 7.671196e-14) (2.264088e-11 6.537156e-14 -1.610094e-11))
126.928263    	((9.023321e-11 -2.679524e-07 7.820264e-12) (4.822549e-11 -5.176039e-07 3.512320e-11)) ((-1.258718e-15 1.300390e-15 7.567127e-14) (2.536258e-11 6.696181e-14 -1.927038e-11))
152.325916    	((1.122225e-10 -2.564429e-07 2.838836e-11) (5.129965e-11 -4.918310e-07 3.986057e-11)) ((-8.146593e-16 1.644853e-15 7.539508e-14) (2.776198e-11 6.010460e-14 -2.210608e-11))
182.803099    	((1.321162e-10 -2.467593e-07 4.941664e-11) (5.370370e-11 -4.686790e-07 4.380116e-11)) ((-3.905058e-16 1.750122e-15 7.610807e-14) (2.976398e-11 6.606746e-14 -2.451156e-11))
219.375719    	((1.577287e-10 -2.386970e-07 8.215680e-11) (5.703726e-11 -4.479874e-07 4.696323e-11)) ((1.135617e-16 1.887445e-15 7.784154e-14) (3.126659e-11 7.124408e-14 -2.640436e-11))
263.262863    	((1.801388e-10 -2.322171e-07 1.106126e-10) (6.120222e-11 -4.296232e-07 4.958348e-11)) ((5.535701e-16 1.809871e-15 8.068636e-14) (3.223374e-11 7.113481e-14 -2.776279e-11))
315.927436    	((1.882621e-10 -2.272006e-07 1.305508e-10) (6.559296e-11 -4.134709e-07 5.194453e-11)) ((7.957929e-16 1.706427e-15 8.417489e-14) (3.268834e-11 6.798040e-14 -2.856213e-11))
379.124923    	((1.932370e-10 -2.235092e-07 1.426907e-10) (6.820446e-11 -3.994222e-07 5.358891e-11)) ((7.189203e-16 1.663138e-15 8.832141e-14) (3.263024e-11 6.108958e-14 -2.882711e-11))
454.961908    	((1.958307e-10 -2.209676e-07 1.551203e-10) (7.026922e-11 -3.873610e-07 5.529809e-11)) ((4.551282e-16 1.570481e-15 9.240354e-14) (3.207794e-11 5.436419e-14 -2.859314e-11))
545.966289    	((1.997749e-10 -2.193351e-07 1.665529e-10) (7.246082e-11 -3.771461e-07 5.747827e-11)) ((2.681158e-16 1.478548e-15 9.575709e-14) (3.112727e-11 5.678906e-14 -2.788164e-11))
655.171547    	((1.998684e-10 -2.183444e-07 1.729447e-10) (7.493380e-11 -3.686071e-07 5.990022e-11)) ((1.186914e-16 1.466468e-15 9.829830e-14) (2.985342e-11 6.225908e-14 -2.677016e-11))
786.217856    	((1.968408e-10 -2.177366e-07 1.732935e-10) (7.835999e-11 -3.615433e-07 6.284862e-11)) ((8.876393e-18 1.445185e-15 1.001098e-13) (2.832483e-11 5.828330e-14 -2.534033e-11))
939.130632    	((1.906629e-10 -2.173533e-07 1.684813e-10) (8.318638e-11 -3.557628e-07 6.664178e-11)) ((-1.023214e-16 1.329464e-15 1.012798e-13) (2.663552e-11 4.878448e-14 -2.374352e-11))
1113.928252   	((1.823979e-10 -2.170197e-07 1.578183e-10) (8.879431e-11 -3.510490e-07 7.089540e-11)) ((-2.695493e-16 1.273627e-15 1.017846e-13) (2.489620e-11 4.160764e-14 -2.210868e-11))
1310.633424   	((1.693979e-10 -2.167220e-07 1.481434e-10) (9.446366e-11 -3.472222e-07 7.541535e-11)) ((-3.083175e-16 1.189217e-15 1.018860e-13) (2.318952e-11 3.519589e-14 -2.048766e-11))
1529.270385   	((1.550690e-10 -2.164548e-07 1.358905e-10) (9.915484e-11 -3.441194e-07 7.925865e-11)) ((-3.380531e-16 1.082440e-15 1.018064e-13) (2.156718e-11 3.042555e-14 -1.893079e-11))
1748.818731   	((1.392075e-10 -2.162763e-07 1.224089e-10) (1.024625e-10 -3.416299e-07 8.217547e-11)) ((-4.412786e-16 9.740443e-16 1.016799e-13) (2.005370e-11 2.374622e-14 -1.747470e-11))
1968.56915    	((1.235378e-10 -2.160964e-07 1.097396e-10) (1.044093e-10 -3.396204e-07 8.405881e-11)) ((-5.540798e-16 8.760047e-16 1.016400e-13) (1.865846e-11 1.909099e-14 -1.612386e-11))
2188.493133   	((1.100666e-10 -2.159549e-07 9.711557e-11) (1.051777e-10 -3.380089e-07 8.489511e-11)) ((-6.837735e-16 8.286048e-16 1.016600e-13) (1.738857e-11 1.554765e-14 -1.489520e-11))
2408.56328    	((9.694998e-11 -2.158261e-07 8.487653e-11) (1.050358e-10 -3.367116e-07 8.487176e-11)) ((-8.046952e-16 7.733357e-16 1.016729e-13) (1.623193e-11 1.292451e-14 -1.377564e-11))
2628.756186   	((8.491738e-11 -2.157212e-07 7.306062e-11) (1.040953e-10 -3.356700e-07 8.410678e-11)) ((-9.125675e-16 7.200646e-16 1.017042e-13) (1.519509e-11 1.099974e-14 -1.277282e-11))
2849.051412   	((7.407389e-11 -2.156303e-07 6.233077e-11) (1.025989e-10 -3.348312e-07 8.278272e-11)) ((-1.033895e-15 6.737863e-16 1.017410e-13) (1.427276e-11 9.840280e-15 -1.187958e-11))
3069.431789   	((6.418538e-11 -2.155563e-07 5.239227e-11) (1.007486e-10 -3.341562e-07 8.104311e-11)) ((-1.143064e-15 6.454252e-16 1.017769e-13) (1.345837e-11 8.855580e-15 -1.108809e-11))
3289.882654   	((5.559792e-11 -2.154935e-07 4.402713e-11) (9.870091e-11 -3.336118e-07 7.907485e-11)) ((-1.239294e-15 6.211769e-16 1.018102e-13) (1.274347e-11 8.128772e-15 -1.039003e-11))
3510.391768   	((4.795298e-11 -2.154423e-07 3.648799e-11) (9.655697e-11 -3.331728e-07 7.696389e-11)) ((-1.319144e-15 5.988049e-16 1.018435e-13) (1.212121e-11 7.785447e-15 -9.778913e-12))
3730.948879   	((4.126460e-11 -2.153993e-07 3.004692e-11) (9.436528e-11 -3.328182e-07 7.479078e-11)) ((-1.387334e-15 5.804599e-16 1.018735e-13) (1.158386e-11 7.591463e-15 -9.250169e-12))
3951.545504   	((3.551336e-11 -2.153643e-07 2.442743e-11) (9.221194e-11 -3.325316e-07 7.262225e-11)) ((-1.448521e-15 5.645835e-16 1.019018e-13) (1.112256e-11 7.413981e-15 -8.794950e-12))
4172.174607   	((3.065493e-11 -2.153350e-07 1.976240e-11) (9.014646e-11 -3.322998e-07 7.053834e-11)) ((-1.500870e-15 5.518317e-16 1.019276e-13) (1.072815e-11 7.253397e-15 -8.405542e-12))
4392.830386   	((2.647597e-11 -2.153111e-07 1.559897e-11) (8.820722e-11 -3.321121e-07 6.858309e-11)) ((-1.546255e-15 5.419080e-16 1.019509e-13) (1.039221e-11 7.111178e-15 -8.074135e-12))
4613.508055   	((2.296219e-11 -2.152913e-07 1.213447e-11) (8.642586e-11 -3.319601e-07 6.679032e-11)) ((-1.583270e-15 5.334734e-16 1.019708e-13) (1.010725e-11 6.993799e-15 -7.793101e-12))
4834.203672   	((2.001357e-11 -2.152754e-07 9.202199e-12) (8.480647e-11 -3.318369e-07 6.516540e-11)) ((-1.616102e-15 5.271188e-16 1.019888e-13) (9.866729e-12 6.897586e-15 -7.556199e-12))
5054.913996   	((1.754632e-11 -2.152617e-07 6.718347e-12) (8.335456e-11 -3.317369e-07 6.370693e-11)) ((-1.642498e-15 5.223257e-16 1.020041e-13) (9.664529e-12 6.809068e-15 -7.357248e-12))
5275.636368   	((1.556534e-11 -2.152510e-07 4.795961e-12) (8.207192e-11 -3.316558e-07 6.242060e-11)) ((-1.664225e-15 5.186690e-16 1.020177e-13) (9.495137e-12 6.730714e-15 -7.190737e-12))
5496.368601   	((1.386202e-11 -2.152421e-07 3.182177e-12) (8.095020e-11 -3.315900e-07 6.129359e-11)) ((-1.682925e-15 5.150221e-16 1.020291e-13) (9.353730e-12 6.665964e-15 -7.051752e-12))
5717.108902   	((1.247229e-11 -2.152347e-07 1.780532e-12) (7.998008e-11 -3.315365e-07 6.031792e-11)) ((-1.697877e-15 5.123706e-16 1.020380e-13) (9.235922e-12 6.611072e-15 -6.936018e-12))
5937.855798   	((1.132617e-11 -2.152287e-07 6.638782e-13) (7.914804e-11 -3.314930e-07 5.948331e-11)) ((-1.710750e-15 5.099136e-16 1.020457e-13) (9.138013e-12 6.568596e-15 -6.839930e-12))
6158.608081   	((1.041913e-11 -2.152239e-07 -2.110411e-13) (7.844124e-11 -3.314576e-07 5.877320e-11)) ((-1.720735e-15 5.083895e-16 1.020523e-13) (9.056836e-12 6.540936e-15 -6.760340e-12))
6379.364767   	((9.608246e-12 -2.152196e-07 -1.126890e-12) (7.784327e-11 -3.314288e-07 5.817099e-11)) ((-1.729867e-15 5.069882e-16 1.020579e-13) (8.989759e-12 6.512462e-15 -6.694590e-12))
6600.125047   	((8.991599e-12 -2.152162e-07 -1.715200e-12) (7.734197e-11 -3.314054e-07 5.766597e-11)) ((-1.736779e-15 5.059826e-16 1.020622e-13) (8.934362e-12 6.491864e-15 -6.640301e-12))
6820.888261   	((8.486267e-12 -2.152134e-07 -2.236400e-12) (7.692404e-11 -3.313864e-07 5.724361e-11)) ((-1.742849e-15 5.051963e-16 1.020661e-13) (8.888734e-12 6.479086e-15 -6.595616e-12))
7041.653869   	((8.087109e-12 -2.152115e-07 -2.633729e-12) (7.657878e-11 -3.313709e-07 5.689480e-11)) ((-1.746825e-15 5.048518e-16 1.020689e-13) (8.851192e-12 6.471356e-15 -6.558858e-12))
7262.421429   	((7.739891e-12 -2.152095e-07 -3.009109e-12) (7.629306e-11 -3.313582e-07 5.660609e-11)) ((-1.751896e-15 5.046301e-16 1.020716e-13) (8.820337e-12 6.467755e-15 -6.528668e-12))
7483.190581   	((7.482436e-12 -2.152082e-07 -3.234512e-12) (7.605985e-11 -3.313479e-07 5.637092e-11)) ((-1.755108e-15 5.040623e-16 1.020737e-13) (8.795023e-12 6.470911e-15 -6.503895e-12))
7703.961033   	((7.290457e-12 -2.152069e-07 -3.390713e-12) (7.586814e-11 -3.313395e-07 5.617727e-11)) ((-1.757808e-15 5.041161e-16 1.020751e-13) (8.774255e-12 6.472482e-15 -6.483585e-12))
7924.732542   	((7.113059e-12 -2.152060e-07 -3.566177e-12) (7.571230e-11 -3.313327e-07 5.601973e-11)) ((-1.759911e-15 5.039232e-16 1.020766e-13) (8.757244e-12 6.475570e-15 -6.466948e-12))
8145.504914   	((6.976050e-12 -2.152052e-07 -3.694709e-12) (7.558489e-11 -3.313271e-07 5.589033e-11)) ((-1.761594e-15 5.038575e-16 1.020777e-13) (8.743311e-12 6.476792e-15 -6.453338e-12))
8366.277991   	((6.854938e-12 -2.152046e-07 -3.824738e-12) (7.548153e-11 -3.313226e-07 5.578478e-11)) ((-1.763014e-15 5.037072e-16 1.020785e-13) (8.731898e-12 6.479686e-15 -6.442189e-12))
8587.051642   	((6.761354e-12 -2.152042e-07 -3.927945e-12) (7.539773e-11 -3.313189e-07 5.569911e-11)) ((-1.764265e-15 5.035990e-16 1.020792e-13) (8.722552e-12 6.483042e-15 -6.433064e-12))
8807.825761   	((6.678375e-12 -2.152038e-07 -4.018482e-12) (7.532980e-11 -3.313159e-07 5.562973e-11)) ((-1.765270e-15 5.034897e-16 1.020798e-13) (8.714899e-12 6.486446e-15 -6.425593e-12))
9028.600262   	((6.612705e-12 -2.152035e-07 -4.091889e-12) (7.527483e-11 -3.313134e-07 5.557369e-11)) ((-1.766164e-15 5.034132e-16 1.020803e-13) (8.708625e-12 6.489752e-15 -6.419471e-12))
