# Forces      
# CofR        : (0.000000e+00 0.000000e+00 0.000000e+00)
# Time        forces(pressure viscous)	moments(pressure viscous)
0             	((0.000000e+00 0.000000e+00 0.000000e+00) (-2.005097e-02 2.591322e-12 -6.182838e-13)) ((0.000000e+00 0.000000e+00 0.000000e+00) (1.193705e-15 8.022338e-14 2.765910e-13))
0.012         	((-5.925763e+00 1.998821e-04 2.003723e-04) (-3.035463e-02 5.012201e-08 6.982305e-08)) ((-4.181460e-10 3.826225e-10 9.273389e-12) (-2.683387e-11 -4.351026e-08 4.206682e-08))
0.0264        	((1.939592e+00 1.201210e-04 1.302773e-04) (-2.970937e-02 1.937380e-07 6.459647e-08)) ((-8.354805e-10 3.486968e-08 9.394908e-09) (2.060836e-10 -2.941079e-09 4.017785e-09))
0.04368       	((1.708869e-01 -2.225286e-04 -2.698212e-04) (-2.440689e-02 -2.413616e-07 -4.895116e-07)) ((1.208325e-09 -3.516018e-08 -8.054912e-09) (1.550351e-10 -1.433744e-09 3.941410e-09))
0.064416      	((4.858433e-02 -7.094268e-05 -4.631417e-05) (-2.163666e-02 1.053546e-07 -4.480262e-07)) ((9.964724e-10 6.248328e-09 -5.972550e-10) (-1.225254e-10 -3.855868e-08 3.210757e-08))
0.0892992     	((-2.654893e-02 -5.735428e-05 -8.138828e-05) (-1.988079e-02 5.340399e-07 3.174698e-07)) ((3.510006e-10 -7.345700e-10 1.651802e-10) (-1.461714e-09 -2.377525e-08 1.116786e-08))
0.119159      	((-1.192270e-02 1.443203e-05 2.271652e-05) (-1.862943e-02 7.987907e-08 1.488438e-07)) ((-6.735905e-10 3.386336e-10 -9.941574e-10) (-2.350711e-09 -1.250636e-08 5.453747e-09))
0.154991      	((-1.923216e-02 -2.249351e-05 -2.707235e-05) (-1.773929e-02 1.039496e-08 -2.261459e-07)) ((4.812471e-10 6.064124e-10 -5.146970e-10) (-8.507217e-10 -9.124134e-09 4.212095e-09))
0.197989      	((-1.877836e-02 8.518709e-06 5.272238e-06) (-1.704954e-02 3.582368e-08 7.911169e-08)) ((-3.366777e-10 -2.537930e-12 -8.499988e-10) (-5.709524e-10 -8.154255e-09 5.568370e-09))
0.249286      	((-2.196560e-02 -1.374594e-05 -5.005788e-06) (-1.647980e-02 -4.157436e-07 1.552133e-07)) ((-9.261629e-11 7.155193e-10 3.086496e-11) (-7.629089e-12 -3.360347e-09 3.487938e-09))
0.308877      	((-2.431681e-02 1.620984e-06 5.853608e-06) (-1.600561e-02 -3.841512e-07 -1.778913e-08)) ((2.280027e-10 3.035591e-10 -2.168318e-10) (3.008786e-10 5.821716e-09 -1.513842e-09))
0.376766      	((-2.828343e-02 5.186149e-06 -5.117250e-06) (-1.562488e-02 -9.609882e-08 -1.219212e-07)) ((3.166052e-10 2.242611e-10 -2.005475e-10) (-9.360247e-11 9.239491e-09 -3.938617e-09))
0.452947      	((-3.241439e-02 6.484555e-06 4.181177e-06) (-1.532994e-02 -1.385618e-07 -5.677261e-08)) ((1.041295e-10 6.917440e-10 -3.108439e-10) (-1.339970e-10 9.889795e-09 -4.963003e-09))
0.535601      	((-3.690429e-02 1.105478e-05 6.838915e-06) (-1.510797e-02 -1.836876e-08 5.835760e-08)) ((3.074187e-10 -4.866660e-10 6.884609e-11) (-1.688239e-10 1.020360e-08 -6.395181e-09))
0.617803      	((-4.149026e-02 1.932869e-05 1.735267e-05) (-1.494262e-02 1.403170e-08 1.409969e-07)) ((3.641668e-10 -3.798094e-10 -3.199201e-11) (1.300083e-10 7.639561e-09 -3.925636e-09))
0.699478      	((-4.575537e-02 2.413389e-05 2.249559e-05) (-1.479703e-02 -1.783432e-07 5.044035e-08)) ((6.439245e-10 -6.324967e-10 4.386348e-11) (3.661177e-10 -4.040814e-09 8.148658e-09))
0.780737      	((-4.952727e-02 3.313098e-05 3.345127e-05) (-1.464807e-02 -4.033817e-07 -1.134239e-07)) ((9.861448e-10 -6.131124e-10 -4.264196e-10) (4.922803e-10 -2.461322e-08 2.861596e-08))
0.861847      	((-5.276935e-02 4.669381e-05 4.882298e-05) (-1.448854e-02 -4.883830e-07 -8.586518e-08)) ((1.079354e-09 -7.988145e-10 -5.196169e-10) (5.805242e-10 -3.935389e-08 4.397229e-08))
0.943082      	((-5.502821e-02 6.107379e-05 6.439608e-05) (-1.432673e-02 -1.883920e-07 2.237304e-07)) ((1.298345e-09 -1.511353e-09 -4.639513e-10) (5.653101e-10 -3.552568e-08 4.079339e-08))
1.02457       	((-5.610389e-02 7.512024e-05 7.940008e-05) (-1.417432e-02 3.237033e-07 7.146153e-07)) ((1.917714e-09 -1.809452e-09 -3.978299e-10) (5.120605e-10 -2.188544e-08 2.700498e-08))
1.10627       	((-5.649770e-02 8.784618e-05 9.052188e-05) (-1.403271e-02 6.448740e-07 9.531958e-07)) ((2.462475e-09 -1.552317e-09 -2.374168e-10) (7.217502e-10 -1.567332e-08 1.999752e-08))
1.188086      	((-5.660376e-02 1.053207e-04 1.103016e-04) (-1.390146e-02 7.659023e-07 9.671931e-07)) ((2.559496e-09 -1.468474e-09 2.516321e-11) (7.100865e-10 -2.227896e-08 2.399358e-08))
1.269971      	((-5.632362e-02 1.255701e-04 1.288406e-04) (-1.378112e-02 8.185593e-07 9.346213e-07)) ((2.923326e-09 -1.517310e-09 2.049171e-10) (9.370861e-10 -3.483718e-08 3.250606e-08))
1.351935      	((-5.593651e-02 1.465490e-04 1.488449e-04) (-1.367176e-02 9.489835e-07 9.591134e-07)) ((3.847707e-09 -2.292573e-09 1.279373e-10) (9.699034e-10 -4.519331e-08 4.016645e-08))
1.434         	((-5.554752e-02 1.632278e-04 1.668313e-04) (-1.357275e-02 1.138969e-06 1.097055e-06)) ((5.246065e-09 -3.129240e-09 -1.925095e-10) (9.241443e-10 -5.109341e-08 4.512024e-08))
1.516165      	((-5.514155e-02 1.877960e-04 1.941444e-04) (-1.348351e-02 1.445904e-06 1.318796e-06)) ((6.410243e-09 -3.489783e-09 -5.407772e-10) (1.687660e-09 -5.600567e-08 4.722553e-08))
1.598421      	((-5.461492e-02 2.119658e-04 2.144053e-04) (-1.340402e-02 1.749735e-06 1.669901e-06)) ((7.325905e-09 -3.494714e-09 -8.527806e-10) (9.032722e-10 -5.886499e-08 5.002682e-08))
1.680758      	((-5.414889e-02 2.432865e-04 2.464455e-04) (-1.333276e-02 2.077168e-06 2.056238e-06)) ((8.003733e-09 -4.014479e-09 -1.214945e-09) (-2.825291e-10 -6.443553e-08 5.611081e-08))
1.763175      	((-5.378113e-02 2.714303e-04 2.786978e-04) (-1.326735e-02 2.427417e-06 2.414693e-06)) ((8.975976e-09 -4.344328e-09 -1.562345e-09) (-3.158942e-10 -7.414961e-08 6.540076e-08))
1.845668      	((-5.339003e-02 3.151233e-04 3.204703e-04) (-1.320684e-02 2.765414e-06 2.795125e-06)) ((1.024394e-08 -4.855801e-09 -1.824268e-09) (7.065178e-10 -8.477317e-08 7.894608e-08))
1.928231      	((-5.294315e-02 3.599609e-04 3.685439e-04) (-1.315039e-02 3.065163e-06 3.224554e-06)) ((1.069383e-08 -5.182735e-09 -1.995651e-09) (1.429276e-09 -9.901198e-08 9.809571e-08))
2.010859      	((-5.250090e-02 4.160292e-04 4.208306e-04) (-1.309795e-02 3.377845e-06 3.635252e-06)) ((1.104770e-08 -5.207883e-09 -2.299801e-09) (2.618806e-09 -1.208025e-07 1.218963e-07))
2.093545      	((-5.206765e-02 4.775134e-04 4.784309e-04) (-1.305017e-02 3.715362e-06 4.058317e-06)) ((1.104733e-08 -5.112905e-09 -2.496838e-09) (1.403344e-09 -1.460020e-07 1.479961e-07))
2.176286      	((-5.170445e-02 5.416147e-04 5.481042e-04) (-1.300687e-02 4.145979e-06 4.545511e-06)) ((1.069524e-08 -5.052235e-09 -2.777487e-09) (-1.151694e-09 -1.746914e-07 1.761786e-07))
2.25908       	((-5.144292e-02 6.233342e-04 6.231948e-04) (-1.296740e-02 4.694853e-06 5.073379e-06)) ((1.049510e-08 -5.416477e-09 -3.122414e-09) (-2.512672e-09 -2.076924e-07 2.075163e-07))
2.341921      	((-5.125493e-02 7.117790e-04 7.147681e-04) (-1.293124e-02 5.297164e-06 5.698407e-06)) ((1.027553e-08 -6.027062e-09 -3.508519e-09) (-2.023106e-09 -2.429595e-07 2.437436e-07))
2.424805      	((-5.106233e-02 8.234883e-04 8.189274e-04) (-1.289782e-02 6.020972e-06 6.444637e-06)) ((1.000627e-08 -6.714120e-09 -3.967902e-09) (-1.476904e-09 -2.849801e-07 2.855966e-07))
2.507729      	((-5.079555e-02 9.608921e-04 9.422456e-04) (-1.286631e-02 7.028848e-06 7.353298e-06)) ((9.852017e-09 -7.559470e-09 -4.433736e-09) (-1.728178e-09 -3.328094e-07 3.296256e-07))
2.590689      	((-5.044017e-02 1.116376e-03 1.081493e-03) (-1.283597e-02 8.274241e-06 8.528080e-06)) ((9.613421e-09 -8.656188e-09 -4.793729e-09) (-4.118051e-09 -3.799368e-07 3.755148e-07))
2.67368       	((-5.013343e-02 1.284732e-03 1.238256e-03) (-1.280708e-02 9.736995e-06 9.958116e-06)) ((9.307624e-09 -9.972500e-09 -5.276484e-09) (-9.630294e-09 -4.264102e-07 4.255380e-07))
2.756698      	((-4.989826e-02 1.472638e-03 1.417854e-03) (-1.278042e-02 1.151381e-05 1.159196e-05)) ((8.651769e-09 -1.142904e-08 -5.944161e-09) (-1.661432e-08 -4.784136e-07 4.798771e-07))
2.839741      	((-4.972184e-02 1.684550e-03 1.621941e-03) (-1.275635e-02 1.364152e-05 1.347946e-05)) ((7.715305e-09 -1.289723e-08 -6.654991e-09) (-2.265892e-08 -5.372023e-07 5.353734e-07))
2.922806      	((-4.957813e-02 1.928605e-03 1.855027e-03) (-1.273468e-02 1.611526e-05 1.571572e-05)) ((6.389316e-09 -1.480597e-08 -7.528501e-09) (-2.729731e-08 -6.022125e-07 5.923053e-07))
3.005889      	((-4.945020e-02 2.211619e-03 2.126092e-03) (-1.271506e-02 1.903035e-05 1.840482e-05)) ((4.922991e-09 -1.721260e-08 -8.610010e-09) (-3.032324e-08 -6.715645e-07 6.525808e-07))
3.088988      	((-4.932088e-02 2.533489e-03 2.431533e-03) (-1.269706e-02 2.233645e-05 2.164621e-05)) ((3.310632e-09 -1.957520e-08 -9.935622e-09) (-3.191975e-08 -7.419206e-07 7.225548e-07))
3.172099      	((-4.917262e-02 2.902528e-03 2.777792e-03) (-1.268033e-02 2.603327e-05 2.540096e-05)) ((1.724946e-09 -2.177870e-08 -1.161316e-08) (-3.185430e-08 -8.154748e-07 8.072624e-07))
3.255218      	((-4.900076e-02 3.323056e-03 3.174297e-03) (-1.266462e-02 3.024309e-05 2.968763e-05)) ((2.104158e-10 -2.415781e-08 -1.374903e-08) (-2.922222e-08 -8.973545e-07 9.067558e-07))
3.338342      	((-4.883643e-02 3.800781e-03 3.630746e-03) (-1.264982e-02 3.503592e-05 3.459985e-05)) ((-1.298167e-09 -2.697645e-08 -1.606886e-08) (-2.355545e-08 -9.925495e-07 1.022199e-06))
3.421466      	((-4.869205e-02 4.342290e-03 4.148098e-03) (-1.263588e-02 4.053061e-05 4.009384e-05)) ((-2.613322e-09 -3.035642e-08 -1.858266e-08) (-1.573265e-08 -1.106217e-06 1.153747e-06))
3.504587      	((-4.858772e-02 4.958251e-03 4.733992e-03) (-1.262283e-02 4.685371e-05 4.612658e-05)) ((-3.835588e-09 -3.448592e-08 -2.154091e-08) (-6.415338e-09 -1.245033e-06 1.300997e-06))
3.5877        	((-4.850344e-02 5.658059e-03 5.392831e-03) (-1.261072e-02 5.411966e-05 5.272970e-05)) ((-4.827485e-09 -3.921703e-08 -2.502452e-08) (5.236507e-09 -1.415651e-06 1.466164e-06))
3.6708        	((-4.844125e-02 6.446701e-03 6.129810e-03) (-1.259957e-02 6.233419e-05 5.998748e-05)) ((-5.503479e-09 -4.450289e-08 -2.898448e-08) (1.660271e-08 -1.619187e-06 1.656389e-06))
3.753885      	((-4.838507e-02 7.330425e-03 6.957886e-03) (-1.258943e-02 7.154186e-05 6.808284e-05)) ((-6.175718e-09 -5.035890e-08 -3.342851e-08) (2.545441e-08 -1.853767e-06 1.877084e-06))
3.836948      	((-4.834493e-02 8.323069e-03 7.891142e-03) (-1.258024e-02 8.178288e-05 7.714529e-05)) ((-6.216984e-09 -5.664892e-08 -3.812765e-08) (3.148142e-08 -2.122006e-06 2.133278e-06))
3.919985      	((-4.833140e-02 9.446504e-03 8.949778e-03) (-1.257212e-02 9.316216e-05 8.727630e-05)) ((-5.702926e-09 -6.353611e-08 -4.319631e-08) (3.564279e-08 -2.430385e-06 2.430843e-06))
4.00299       	((-4.834866e-02 1.071882e-02 1.015001e-02) (-1.256515e-02 1.058985e-04 9.857775e-05)) ((-4.507593e-09 -7.110806e-08 -4.884308e-08) (3.806362e-08 -2.787704e-06 2.774790e-06))
4.085955      	((-4.840539e-02 1.216234e-02 1.151339e-02) (-1.255941e-02 1.201599e-04 1.112684e-04)) ((-2.970046e-09 -7.960984e-08 -5.513590e-08) (3.277552e-08 -3.199340e-06 3.175245e-06))
4.168876      	((-4.849592e-02 1.379808e-02 1.306850e-02) (-1.255513e-02 1.359683e-04 1.256025e-04)) ((-5.967889e-10 -8.935014e-08 -6.176491e-08) (2.009155e-08 -3.673446e-06 3.647718e-06))
4.251743      	((-4.860346e-02 1.566460e-02 1.484536e-02) (-1.255211e-02 1.535140e-04 1.416505e-04)) ((2.278074e-09 -1.006283e-07 -6.857519e-08) (5.072736e-09 -4.231284e-06 4.203467e-06))
4.334548      	((-4.877199e-02 1.775338e-02 1.683200e-02) (-1.255054e-02 1.730668e-04 1.594210e-04)) ((5.275078e-09 -1.122817e-07 -7.597132e-08) (-9.395552e-09 -4.888485e-06 4.849774e-06))
4.417283      	((-4.904771e-02 2.007571e-02 1.904991e-02) (-1.255138e-02 1.947169e-04 1.791014e-04)) ((8.923247e-09 -1.234063e-07 -8.379884e-08) (-2.348709e-08 -5.646991e-06 5.594867e-06))
4.499938      	((-4.943588e-02 2.265887e-02 2.149566e-02) (-1.255573e-02 2.188622e-04 2.012510e-04)) ((1.340607e-08 -1.346474e-07 -9.186764e-08) (-3.236894e-08 -6.486194e-06 6.432404e-06))
4.582501      	((-4.995523e-02 2.552793e-02 2.418344e-02) (-1.256426e-02 2.460975e-04 2.270051e-04)) ((1.934678e-08 -1.472924e-07 -9.989100e-08) (-3.743005e-08 -7.364879e-06 7.350495e-06))
4.664961      	((-5.061071e-02 2.867291e-02 2.710943e-02) (-1.257736e-02 2.769729e-04 2.567396e-04)) ((2.680170e-08 -1.610813e-07 -1.074068e-07) (-3.878783e-08 -8.278298e-06 8.349748e-06))
4.747307      	((-5.147764e-02 3.209446e-02 3.031441e-02) (-1.259580e-02 3.124973e-04 2.904853e-04)) ((3.655810e-08 -1.772963e-07 -1.153885e-07) (-2.834748e-08 -9.244081e-06 9.406612e-06))
4.829526      	((-5.256589e-02 3.576884e-02 3.378295e-02) (-1.261972e-02 3.532793e-04 3.286121e-04)) ((4.971784e-08 -1.943703e-07 -1.234704e-07) (-7.824288e-09 -1.026178e-05 1.049609e-05))
4.911606      	((-5.389780e-02 3.970120e-02 3.750648e-02) (-1.264982e-02 3.989680e-04 3.714648e-04)) ((6.610063e-08 -2.122410e-07 -1.316063e-07) (1.720215e-08 -1.131895e-05 1.162367e-05))
4.993537      	((-5.549388e-02 4.388772e-02 4.147219e-02) (-1.268738e-02 4.498257e-04 4.195220e-04)) ((8.703856e-08 -2.313206e-07 -1.395365e-07) (3.886786e-08 -1.240586e-05 1.279006e-05))
5.075307      	((-5.752878e-02 4.827771e-02 4.565348e-02) (-1.273411e-02 5.062079e-04 4.730185e-04)) ((1.130242e-07 -2.505750e-07 -1.464518e-07) (4.885043e-08 -1.349898e-05 1.395538e-05))
5.156907      	((-6.002682e-02 5.269544e-02 4.990144e-02) (-1.279133e-02 5.673959e-04 5.311743e-04)) ((1.442629e-07 -2.680944e-07 -1.512442e-07) (4.530175e-08 -1.460638e-05 1.511316e-05))
5.238327      	((-6.289866e-02 5.712856e-02 5.416460e-02) (-1.285978e-02 6.329724e-04 5.940385e-04)) ((1.773014e-07 -2.829917e-07 -1.545920e-07) (4.084200e-08 -1.568869e-05 1.622954e-05))
5.319561      	((-6.609240e-02 6.138122e-02 5.828084e-02) (-1.293936e-02 7.023966e-04 6.609445e-04)) ((2.099285e-07 -2.943493e-07 -1.576820e-07) (3.804920e-08 -1.670007e-05 1.727654e-05))
5.4006        	((-6.964645e-02 6.526730e-02 6.201665e-02) (-1.302920e-02 7.741009e-04 7.302896e-04)) ((2.401014e-07 -2.979093e-07 -1.643573e-07) (2.402906e-08 -1.761280e-05 1.824936e-05))
5.481442      	((-7.335423e-02 6.841942e-02 6.512656e-02) (-1.312893e-02 8.454954e-04 8.002252e-04)) ((2.633361e-07 -2.908174e-07 -1.769056e-07) (9.999835e-09 -1.840541e-05 1.911212e-05))
5.56209       	((-7.705525e-02 7.056823e-02 6.726074e-02) (-1.323771e-02 9.135993e-04 8.679842e-04)) ((2.768284e-07 -2.738007e-07 -1.914472e-07) (-2.271498e-09 -1.900550e-05 1.980146e-05))
5.642551      	((-8.033023e-02 7.163446e-02 6.832279e-02) (-1.335064e-02 9.750042e-04 9.293419e-04)) ((2.810875e-07 -2.511631e-07 -2.044165e-07) (-1.514462e-08 -1.942262e-05 2.030584e-05))
5.722836      	((-8.280674e-02 7.136885e-02 6.808826e-02) (-1.345970e-02 1.026235e-03 9.801382e-04)) ((2.744624e-07 -2.212195e-07 -2.103335e-07) (-2.943519e-08 -1.969423e-05 2.064689e-05))
5.802966      	((-8.411297e-02 6.955873e-02 6.633747e-02) (-1.355674e-02 1.062116e-03 1.015201e-03)) ((2.557901e-07 -1.839148e-07 -2.092191e-07) (-4.298396e-08 -1.985442e-05 2.086057e-05))
5.882969      	((-8.419157e-02 6.612103e-02 6.299303e-02) (-1.363685e-02 1.077308e-03 1.029890e-03)) ((2.274174e-07 -1.394319e-07 -2.028335e-07) (-5.332407e-08 -1.986135e-05 2.091902e-05))
5.962879      	((-8.306272e-02 6.096445e-02 5.795656e-02) (-1.369834e-02 1.066894e-03 1.019643e-03)) ((1.900412e-07 -8.444006e-08 -1.885407e-07) (-5.930585e-08 -1.968953e-05 2.080185e-05))
6.04274       	((-8.089795e-02 5.426248e-02 5.146908e-02) (-1.374057e-02 1.026027e-03 9.799317e-04)) ((1.416150e-07 -2.225597e-08 -1.730277e-07) (-6.132547e-08 -1.942587e-05 2.059948e-05))
6.1226        	((-7.794080e-02 4.686822e-02 4.424966e-02) (-1.376526e-02 9.548894e-04 9.111169e-04)) ((9.249232e-08 4.883214e-08 -1.667284e-07) (-6.312021e-08 -1.914167e-05 2.040119e-05))
6.202508      	((-7.468344e-02 3.915287e-02 3.675404e-02) (-1.377882e-02 8.582309e-04 8.188083e-04)) ((5.226817e-08 1.241438e-07 -1.682366e-07) (-6.525324e-08 -1.880569e-05 2.017324e-05))
6.282512      	((-7.126999e-02 3.218019e-02 3.004568e-02) (-1.378806e-02 7.449772e-04 7.118672e-04)) ((2.563903e-08 1.841924e-07 -1.689864e-07) (-6.542041e-08 -1.836628e-05 1.983516e-05))
6.362657      	((-6.820416e-02 2.656445e-02 2.466763e-02) (-1.379674e-02 6.262156e-04 5.993249e-04)) ((1.293512e-08 2.112666e-07 -1.671360e-07) (-6.701767e-08 -1.790734e-05 1.941415e-05))
6.442971      	((-6.537761e-02 2.290380e-02 2.113836e-02) (-1.380629e-02 5.106837e-04 4.896231e-04)) ((1.223481e-08 1.867761e-07 -1.554007e-07) (-7.166862e-08 -1.753543e-05 1.910457e-05))
6.523473      	((-6.308182e-02 2.111325e-02 1.940708e-02) (-1.381832e-02 4.068324e-04 3.910121e-04)) ((2.060250e-08 1.296226e-07 -1.348522e-07) (-8.171589e-08 -1.732045e-05 1.897717e-05))
6.60416       	((-6.137086e-02 2.079021e-02 1.902727e-02) (-1.383743e-02 3.223043e-04 3.107694e-04)) ((4.264212e-08 6.424267e-08 -1.190890e-07) (-1.002472e-07 -1.711460e-05 1.883656e-05))
6.685018      	((-5.986569e-02 2.136207e-02 1.960676e-02) (-1.386175e-02 2.624798e-04 2.542407e-04)) ((7.393823e-08 7.478723e-09 -1.094980e-07) (-1.240351e-07 -1.674689e-05 1.851398e-05))
6.766023      	((-5.831311e-02 2.249220e-02 2.068770e-02) (-1.388555e-02 2.304657e-04 2.239290e-04)) ((1.111336e-07 -2.734540e-08 -1.056919e-07) (-1.463347e-07 -1.609975e-05 1.786366e-05))
6.847146      	((-5.631834e-02 2.380967e-02 2.193848e-02) (-1.390128e-02 2.236501e-04 2.169440e-04)) ((1.422414e-07 -4.505549e-08 -1.067445e-07) (-1.383161e-07 -1.519750e-05 1.691016e-05))
6.928358      	((-5.361266e-02 2.520913e-02 2.333603e-02) (-1.389824e-02 2.338927e-04 2.261436e-04)) ((1.601522e-07 -6.907907e-08 -1.064374e-07) (-9.042395e-08 -1.426705e-05 1.593969e-05))
7.009626      	((-5.069904e-02 2.667550e-02 2.477184e-02) (-1.387350e-02 2.499441e-04 2.422988e-04)) ((1.632732e-07 -1.156981e-07 -9.431454e-08) (-4.838966e-08 -1.360667e-05 1.530107e-05))
7.090922      	((-4.876938e-02 2.824145e-02 2.627925e-02) (-1.383931e-02 2.678444e-04 2.613098e-04)) ((1.555755e-07 -1.742607e-07 -7.473003e-08) (-3.554350e-08 -1.318762e-05 1.493806e-05))
7.172217      	((-4.837142e-02 2.985924e-02 2.777093e-02) (-1.380721e-02 2.874616e-04 2.814847e-04)) ((1.428205e-07 -2.144548e-07 -6.695661e-08) (-4.432880e-08 -1.297359e-05 1.475303e-05))
