# Forces      
# CofR        : (0.000000e+00 0.000000e+00 0.000000e+00)
# Time        forces(pressure viscous)	moments(pressure viscous)
0             	((0.000000e+00 0.000000e+00 0.000000e+00) (0.000000e+00 0.000000e+00 0.000000e+00)) ((0.000000e+00 0.000000e+00 0.000000e+00) (0.000000e+00 0.000000e+00 0.000000e+00))
0.012         	((-6.877193e-11 8.967004e-11 -1.766806e-10) (1.692096e-13 1.704985e-13 1.155296e-12)) ((7.983157e-10 -7.620492e-14 -1.558905e-15) (5.562576e-07 6.094579e-14 -2.565596e-14))
0.0264        	((7.867966e-11 1.569922e-10 -3.186037e-10) (-4.775119e-13 -1.320913e-12 1.007601e-12)) ((3.943363e-10 -5.985052e-14 1.534284e-14) (5.095010e-07 1.049866e-13 -2.504364e-14))
0.04368       	((-3.487499e-10 -2.357808e-10 -3.731116e-10) (1.446238e-12 -4.088554e-12 3.754105e-13)) ((2.183422e-10 -4.985763e-14 1.721786e-14) (4.614597e-07 5.712275e-14 4.490394e-14))
0.064416      	((1.295363e-10 -1.582507e-11 -8.507967e-11) (6.460898e-12 -6.060079e-12 -7.173310e-13)) ((1.229049e-10 -3.384856e-14 -6.372430e-15) (4.131890e-07 -6.164798e-14 1.170531e-13))
0.0892992     	((-5.120944e-11 -6.656298e-11 -1.503105e-11) (1.123446e-11 -6.731342e-12 -2.157372e-12)) ((9.275023e-11 -3.276743e-14 4.163332e-15) (3.661040e-07 -1.746473e-13 1.570822e-13))
0.119159      	((-1.839609e-11 -1.099214e-10 -2.782683e-10) (1.434815e-11 -6.255218e-12 -3.330966e-12)) ((6.669078e-11 -2.363667e-14 -8.583746e-16) (3.216632e-07 -2.362742e-13 1.676185e-13))
0.154991      	((1.020258e-10 1.342386e-10 8.651653e-11) (1.559112e-11 -5.405430e-12 -3.831995e-12)) ((5.313371e-11 -1.845386e-14 -2.353751e-15) (2.808950e-07 -2.582987e-13 1.467477e-13))
0.197989      	((8.151517e-11 1.090012e-11 -8.745442e-11) (1.547291e-11 -4.512431e-12 -3.989197e-12)) ((4.241631e-11 -7.970449e-15 -2.109693e-15) (2.447613e-07 -2.634274e-13 1.237696e-13))
0.249587      	((7.792879e-11 3.165928e-11 -7.980061e-11) (1.205184e-11 -4.098878e-12 -3.990609e-12)) ((3.522496e-11 -5.740847e-15 -3.931543e-15) (2.137673e-07 -2.502980e-13 1.119215e-13))
0.311504      	((3.565827e-11 7.875266e-11 -1.095397e-10) (9.269582e-12 -4.364523e-12 -3.411162e-12)) ((2.951561e-11 -7.393727e-15 -1.049507e-15) (1.878297e-07 -2.323754e-13 1.148366e-13))
0.385805      	((-7.784738e-11 1.007068e-10 -1.368169e-10) (9.163745e-12 -4.199215e-12 -3.348641e-12)) ((2.550101e-11 -8.092129e-15 2.603921e-15) (1.663920e-07 -2.335081e-13 1.045040e-13))
0.474966      	((-1.506020e-11 1.234161e-10 -1.418941e-10) (9.773687e-12 -3.203287e-12 -5.712200e-12)) ((2.283333e-11 -4.937043e-15 3.987225e-15) (1.486176e-07 -2.800952e-13 8.669270e-14))
0.581959      	((8.603269e-11 1.846457e-10 -6.313609e-11) (1.842232e-11 -4.326856e-13 -7.212606e-12)) ((2.046772e-11 -5.540567e-15 6.217201e-15) (1.336483e-07 -3.322196e-13 1.047948e-13))
0.710351      	((3.518717e-11 2.234189e-10 -1.648645e-10) (2.334379e-11 4.839353e-13 -7.216872e-12)) ((1.813363e-11 -6.895835e-15 7.094058e-15) (1.207787e-07 -3.701268e-13 1.700939e-13))
0.864421      	((4.479151e-11 2.729842e-10 -7.315364e-11) (2.022061e-11 -2.056703e-12 -5.773348e-12)) ((1.652265e-11 -1.130050e-14 9.302333e-15) (1.095053e-07 -3.616594e-13 2.498170e-13))
1.049306      	((3.413118e-11 2.905429e-10 -1.309265e-10) (2.091765e-11 -3.887100e-12 -2.199552e-12)) ((1.549327e-11 -1.113799e-14 7.758072e-15) (9.948967e-08 -2.972580e-13 3.038114e-13))
1.271167      	((-6.886718e-11 3.875540e-10 -1.709560e-10) (1.925679e-11 -6.615235e-12 -3.851818e-13)) ((1.445409e-11 -9.813442e-15 6.583827e-15) (9.050337e-08 -2.428882e-13 4.165859e-13))
1.5374        	((-6.405581e-11 3.572248e-10 -2.547809e-10) (9.738694e-12 -1.236750e-11 3.152298e-12)) ((1.327763e-11 -4.381965e-15 5.272538e-15) (8.239692e-08 -1.714522e-13 6.608039e-13))
1.85688       	((4.301763e-11 3.356435e-10 -2.473440e-10) (3.478938e-12 -2.251992e-11 1.298955e-11)) ((1.217348e-11 -3.335036e-16 2.566863e-15) (7.508861e-08 8.398440e-14 9.796188e-13))
2.240256      	((-1.000469e-11 3.433687e-10 -2.550562e-10) (5.207651e-12 -3.767430e-11 2.826293e-11)) ((1.145363e-11 3.519006e-15 -2.074825e-15) (6.853779e-08 4.775140e-13 1.388750e-12))
2.700307      	((7.863467e-12 2.209360e-10 -2.385506e-10) (1.706077e-13 -6.129495e-11 4.928827e-11)) ((1.095259e-11 6.279481e-15 -4.884525e-15) (6.271343e-08 9.090792e-13 2.029542e-12))
3.252369      	((4.775758e-12 1.475874e-10 -2.405405e-10) (1.991853e-12 -9.459766e-11 7.384965e-11)) ((1.041970e-11 9.045225e-15 -5.290984e-15) (5.757348e-08 1.350335e-12 2.793328e-12))
3.914842      	((6.075019e-15 5.226795e-11 -1.527077e-10) (2.559465e-12 -1.235592e-10 9.853038e-11)) ((9.832401e-12 6.037310e-15 -2.890648e-15) (5.305448e-08 1.789322e-12 3.204606e-12))
4.709811      	((2.274818e-11 3.282914e-11 -2.998851e-11) (-6.994056e-13 -1.474832e-10 1.276993e-10)) ((9.188318e-12 4.781986e-15 -5.427937e-16) (4.906849e-08 2.184174e-12 3.409240e-12))
5.663773      	((-1.683874e-12 3.816008e-11 9.904043e-11) (-6.532903e-13 -1.648546e-10 1.502387e-10)) ((8.508744e-12 5.742058e-15 -2.839327e-16) (4.552285e-08 2.405582e-12 3.549386e-12))
6.808528      	((1.084249e-11 -3.277183e-12 9.738308e-11) (-7.010923e-12 -1.689500e-10 1.560312e-10)) ((7.820160e-12 6.531197e-15 -3.434986e-15) (4.233395e-08 2.366661e-12 3.487652e-12))
8.182233      	((2.902583e-11 -4.543545e-11 1.137135e-10) (-1.657856e-11 -1.554806e-10 1.467193e-10)) ((7.146027e-12 5.414690e-15 -4.970649e-15) (3.943555e-08 2.064868e-12 3.186274e-12))
9.83068       	((-2.001013e-11 -4.093067e-11 6.566671e-11) (-3.386018e-11 -1.283618e-10 1.235032e-10)) ((6.498016e-12 6.957159e-15 -6.677302e-15) (3.678235e-08 1.737875e-12 2.673959e-12))
11.808816     	((-2.393227e-11 1.099340e-12 4.160993e-11) (-4.242740e-11 -9.848684e-11 1.001667e-10)) ((5.902018e-12 7.157541e-15 -8.153673e-15) (3.434117e-08 1.583827e-12 1.990541e-12))
14.182579     	((-1.138436e-11 -2.461037e-12 -3.345790e-11) (-4.412233e-11 -7.229502e-11 7.740359e-11)) ((5.367219e-12 6.155957e-15 -9.521867e-15) (3.209133e-08 1.363082e-12 1.320645e-12))
17.031095     	((-4.837263e-12 2.313239e-11 -7.928165e-12) (-4.074755e-11 -5.320254e-11 5.677980e-11)) ((4.895275e-12 3.885921e-15 -9.023482e-15) (3.002036e-08 1.077323e-12 8.226628e-13))
20.449314     	((3.962697e-11 2.355081e-11 1.181885e-12) (-3.531335e-11 -3.864685e-11 4.005429e-11)) ((4.479556e-12 1.102586e-15 -7.345409e-15) (2.812263e-08 7.477682e-13 5.111814e-13))
24.551176     	((1.689217e-11 3.585214e-11 1.379950e-11) (-3.331950e-11 -2.620324e-11 2.820910e-11)) ((4.117288e-12 1.636480e-16 -6.550643e-15) (2.638990e-08 4.945510e-13 3.107711e-13))
29.473411     	((1.382363e-11 3.890697e-11 3.367504e-12) (-3.001578e-11 -1.621802e-11 2.109829e-11)) ((3.806409e-12 -1.023005e-15 -5.767371e-15) (2.481106e-08 4.140453e-13 1.567149e-13))
35.380094     	((2.528766e-11 3.525473e-11 2.698309e-12) (-2.716329e-11 -8.068040e-12 1.497127e-11)) ((3.529730e-12 -1.601775e-15 -4.989743e-15) (2.337339e-08 3.593597e-13 5.689633e-14))
42.468112     	((1.886891e-11 3.368965e-11 8.489929e-14) (-2.490327e-11 -2.545262e-12 1.214680e-11)) ((3.287347e-12 -1.892201e-15 -4.009021e-15) (2.206442e-08 3.485412e-13 -2.543240e-14))
50.973735     	((1.283866e-11 2.625571e-11 -1.498628e-11) (-2.309593e-11 -6.083226e-13 1.233029e-11)) ((3.069091e-12 -2.251931e-15 -3.096997e-15) (2.087271e-08 4.073041e-13 -7.126168e-14))
61.180482     	((-1.099808e-12 3.684628e-11 6.434992e-12) (-1.952753e-11 -2.667396e-12 1.415702e-11)) ((2.874715e-12 -2.328420e-15 -2.542498e-15) (1.978801e-08 4.604337e-13 -2.686402e-14))
73.428578     	((2.143537e-12 4.407381e-11 2.097410e-11) (-1.631829e-11 -4.891429e-12 1.789252e-11)) ((2.707304e-12 -2.012604e-15 -2.247220e-15) (1.880117e-08 4.808559e-13 5.950200e-14))
88.126294     	((2.124488e-12 3.332220e-11 2.384305e-11) (-1.072578e-11 -6.459434e-12 2.209871e-11)) ((2.557768e-12 -1.690128e-15 -2.009213e-15) (1.790419e-08 4.734614e-13 1.498571e-13))
105.763553    	((-5.217615e-12 7.117063e-13 4.831162e-12) (-6.968702e-12 -9.333057e-12 2.300863e-11)) ((2.423393e-12 -1.772002e-15 -1.600112e-15) (1.709027e-08 4.278299e-13 2.214233e-13))
126.928263    	((-2.057143e-12 -2.264608e-11 -2.452321e-12) (-3.771910e-12 -1.312225e-11 2.144751e-11)) ((2.305574e-12 -1.583325e-15 -1.086274e-15) (1.635319e-08 3.342333e-13 2.900208e-13))
152.325916    	((1.254019e-11 -2.616012e-11 -2.966200e-12) (1.315397e-12 -1.583484e-11 1.804692e-11)) ((2.197019e-12 -1.861852e-15 -8.849007e-16) (1.568608e-08 2.196170e-13 3.546276e-13))
182.803099    	((2.435800e-11 -2.379298e-11 -4.146671e-12) (2.940100e-12 -1.731104e-11 1.520637e-11)) ((2.099979e-12 -2.340327e-15 -6.224696e-16) (1.508166e-08 1.434766e-13 3.953769e-13))
219.375719    	((3.141690e-11 -1.630122e-11 1.021529e-12) (3.479665e-12 -1.740969e-11 1.266709e-11)) ((2.012220e-12 -2.209876e-15 -8.735940e-16) (1.453375e-08 8.859139e-14 4.249655e-13))
263.262863    	((3.730585e-11 -5.350535e-12 3.242873e-12) (3.524748e-12 -1.705777e-11 1.050100e-11)) ((1.933836e-12 -2.100916e-15 -1.269113e-15) (1.403656e-08 5.197335e-14 4.294509e-13))
315.927436    	((3.679122e-11 3.076156e-12 9.235556e-12) (3.994440e-12 -1.601969e-11 8.668014e-12)) ((1.862796e-12 -1.758588e-15 -1.654500e-15) (1.358542e-08 4.833671e-14 4.055174e-13))
379.124923    	((2.822087e-11 8.847408e-12 1.230461e-11) (3.716817e-12 -1.532275e-11 6.645602e-12)) ((1.798025e-12 -1.371773e-15 -1.962407e-15) (1.317675e-08 6.648730e-14 3.696634e-13))
454.961908    	((2.996331e-11 7.875310e-12 8.987416e-12) (4.068514e-12 -1.446922e-11 6.123002e-12)) ((1.739472e-12 -1.240752e-15 -2.024775e-15) (1.280777e-08 6.504073e-14 3.722002e-13))
545.966289    	((3.126222e-11 8.467950e-12 2.830127e-12) (5.191624e-12 -1.390073e-11 6.427803e-12)) ((1.687506e-12 -1.028117e-15 -2.105792e-15) (1.247588e-08 4.343787e-14 3.980159e-13))
655.171547    	((3.236315e-11 1.030369e-11 -4.699602e-13) (7.032506e-12 -1.418639e-11 5.409342e-12)) ((1.639717e-12 -8.450065e-16 -2.258605e-15) (1.217826e-08 1.439973e-14 4.198332e-13))
786.217856    	((2.923173e-11 1.410018e-11 2.280861e-12) (8.675260e-12 -1.457924e-11 4.501358e-12)) ((1.597117e-12 -7.193763e-16 -2.399059e-15) (1.191261e-08 -1.831645e-14 4.455877e-13))
942.868692    	((2.881614e-11 1.577857e-11 2.436221e-12) (9.756128e-12 -1.451422e-11 3.996008e-12)) ((1.559019e-12 -5.949419e-16 -2.529713e-15) (1.167674e-08 -4.774485e-14 4.696355e-13))
1125.124803   	((2.384566e-11 1.784751e-11 4.428346e-12) (9.198775e-12 -1.386979e-11 2.756399e-12)) ((1.525795e-12 -5.955322e-16 -2.458185e-15) (1.146937e-08 -8.031419e-14 4.800541e-13))
1332.98751    	((2.381808e-11 1.957311e-11 6.269854e-12) (9.009983e-12 -1.237987e-11 1.607824e-12)) ((1.497619e-12 -6.044894e-16 -2.379998e-15) (1.128862e-08 -1.176409e-13 4.725231e-13))
1566.459162   	((2.613165e-11 2.100937e-11 7.857916e-12) (9.427999e-12 -1.060089e-11 6.747706e-13)) ((1.473402e-12 -5.631100e-16 -2.312100e-15) (1.113225e-08 -1.469939e-13 4.512098e-13))
1822.565262   	((2.491822e-11 2.146875e-11 8.966126e-12) (9.687060e-12 -8.796041e-12 5.779412e-13)) ((1.452124e-12 -5.649845e-16 -2.209639e-15) (1.099775e-08 -1.602875e-13 4.190265e-13))
2078.694105   	((2.054005e-11 2.203688e-11 9.259505e-12) (9.889080e-12 -7.492930e-12 1.179046e-14)) ((1.434199e-12 -6.292704e-16 -2.107762e-15) (1.088339e-08 -1.586824e-13 3.782598e-13))
2334.838261   	((1.929934e-11 2.354409e-11 1.087570e-11) (9.819984e-12 -6.248400e-12 -3.681246e-13)) ((1.418545e-12 -6.768568e-16 -2.050566e-15) (1.078649e-08 -1.540862e-13 3.385198e-13))
2590.990435   	((1.913676e-11 2.502378e-11 1.260851e-11) (9.909261e-12 -5.238852e-12 -5.677405e-13)) ((1.405175e-12 -6.472135e-16 -2.124271e-15) (1.070460e-08 -1.443231e-13 3.018926e-13))
2847.151005   	((1.788749e-11 2.598721e-11 1.390057e-11) (1.020699e-11 -4.333610e-12 -6.988892e-13)) ((1.393827e-12 -6.277809e-16 -2.176481e-15) (1.063517e-08 -1.298265e-13 2.662828e-13))
3103.320155   	((1.598119e-11 2.662937e-11 1.463305e-11) (1.083599e-11 -3.396832e-12 -6.156189e-13)) ((1.384138e-12 -6.263550e-16 -2.204121e-15) (1.057619e-08 -1.133129e-13 2.364037e-13))
3359.498376   	((1.367138e-11 2.700931e-11 1.503455e-11) (1.139738e-11 -2.596190e-12 -5.309059e-13)) ((1.375821e-12 -6.251658e-16 -2.228082e-15) (1.052585e-08 -1.006280e-13 2.138864e-13))
3615.685704   	((1.191317e-11 2.690305e-11 1.535116e-11) (1.173478e-11 -1.949032e-12 -4.556674e-13)) ((1.368657e-12 -6.574920e-16 -2.205525e-15) (1.048275e-08 -9.190203e-14 1.970193e-13))
3871.882012   	((1.066930e-11 2.683722e-11 1.561376e-11) (1.190987e-11 -1.445217e-12 -3.632295e-13)) ((1.362439e-12 -6.671693e-16 -2.194473e-15) (1.044571e-08 -8.634652e-14 1.839584e-13))
4128.087141   	((1.022640e-11 2.680540e-11 1.585502e-11) (1.190303e-11 -1.033674e-12 -2.863539e-13)) ((1.357006e-12 -6.924411e-16 -2.181930e-15) (1.041376e-08 -8.147002e-14 1.737856e-13))
4384.300632   	((1.075188e-11 2.669152e-11 1.600247e-11) (1.190235e-11 -6.960297e-13 -2.365880e-13)) ((1.352265e-12 -7.102647e-16 -2.173858e-15) (1.038611e-08 -7.769498e-14 1.660544e-13))
4640.521882   	((1.104143e-11 2.681018e-11 1.600005e-11) (1.190924e-11 -4.421645e-13 -2.143299e-13)) ((1.348167e-12 -7.190725e-16 -2.168196e-15) (1.036212e-08 -7.637602e-14 1.603189e-13))
4896.750333   	((1.110094e-11 2.697439e-11 1.592161e-11) (1.196956e-11 -2.205397e-13 -1.738341e-13)) ((1.344596e-12 -7.260321e-16 -2.162824e-15) (1.034126e-08 -7.572954e-14 1.546835e-13))
5152.985542   	((1.070636e-11 2.695878e-11 1.585063e-11) (1.212069e-11 -5.347334e-14 -1.144682e-13)) ((1.341506e-12 -7.294247e-16 -2.159333e-15) (1.032307e-08 -7.372828e-14 1.486615e-13))
5409.226942   	((9.708897e-12 2.692345e-11 1.574882e-11) (1.224098e-11 6.807096e-14 -4.002519e-14)) ((1.338829e-12 -7.333903e-16 -2.156034e-15) (1.030717e-08 -7.158245e-14 1.425903e-13))
5665.474051   	((8.691361e-12 2.691613e-11 1.562769e-11) (1.233016e-11 1.561457e-13 1.393851e-14)) ((1.336496e-12 -7.366411e-16 -2.151132e-15) (1.029326e-08 -6.946285e-14 1.363919e-13))
5921.726388   	((7.916811e-12 2.694552e-11 1.568611e-11) (1.237891e-11 2.099456e-13 5.402860e-14)) ((1.334449e-12 -7.375506e-16 -2.147235e-15) (1.028105e-08 -6.761003e-14 1.304943e-13))
