# Forces      
# CofR        : (0.000000e+00 0.000000e+00 0.000000e+00)
# Time        forces(pressure viscous)	moments(pressure viscous)
0             	((0.000000e+00 0.000000e+00 0.000000e+00) (0.000000e+00 0.000000e+00 0.000000e+00)) ((0.000000e+00 0.000000e+00 0.000000e+00) (0.000000e+00 0.000000e+00 0.000000e+00))
0.012         	((-2.141072e-12 3.585965e-12 8.617828e-10) (-2.038779e-15 1.891865e-14 1.810071e-11)) ((-3.888995e-16 3.352224e-11 -1.776881e-17) (4.417979e-17 2.214510e-08 -1.308917e-15))
0.0264        	((3.598295e-12 -3.808248e-12 -3.240005e-10) (-2.877635e-15 5.352885e-14 3.147581e-11)) ((-8.251852e-17 1.677908e-11 1.631905e-15) (6.009095e-16 2.028318e-08 -1.848021e-15))
0.04368       	((1.255278e-11 2.063916e-11 3.001868e-10) (3.152424e-14 4.016684e-14 3.411937e-11)) ((3.040312e-16 9.253180e-12 1.060816e-15) (-1.008281e-15 1.836978e-08 -2.658712e-15))
0.064416      	((-3.596178e-12 -5.692561e-12 1.128311e-11) (9.797716e-14 -2.961404e-14 2.820810e-11)) ((5.156261e-18 5.266005e-12 -7.386654e-17) (-3.399365e-15 1.644665e-08 -3.458999e-15))
0.0892992     	((1.089303e-11 6.377350e-12 3.762851e-11) (1.422165e-13 -1.010769e-13 2.344218e-11)) ((-7.920561e-17 3.909313e-12 -7.791108e-18) (-4.655205e-15 1.456985e-08 -3.558770e-15))
0.119159      	((-4.254613e-12 -1.695873e-12 9.979918e-12) (1.703823e-13 -1.758028e-13 1.987251e-11)) ((5.318572e-17 2.804080e-12 -1.555549e-17) (-6.222060e-15 1.279711e-08 -4.070897e-15))
0.154991      	((-3.598242e-12 -4.060863e-12 -2.460397e-11) (1.967286e-13 -2.750740e-13 1.600466e-11)) ((-4.952966e-17 2.215002e-12 1.703094e-16) (-8.249639e-15 1.116926e-08 -5.006927e-15))
0.197989      	((-2.886934e-12 -2.734720e-12 2.648117e-12) (2.070591e-13 -3.554018e-13 1.249551e-11)) ((-7.513094e-17 1.760410e-12 1.707799e-16) (-9.309974e-15 9.726070e-09 -5.757417e-15))
0.249587      	((1.748019e-13 -2.810626e-12 -2.381845e-11) (2.058766e-13 -4.001635e-13 9.866846e-12)) ((-1.159752e-16 1.451001e-12 -3.406791e-17) (-9.154124e-15 8.489038e-09 -5.002850e-15))
0.311504      	((-5.387577e-13 6.986924e-13 -4.574535e-12) (1.928043e-13 -4.335372e-13 7.681102e-12)) ((-9.634397e-17 1.207665e-12 -1.708596e-16) (-8.650416e-15 7.455209e-09 -3.397660e-15))
0.385805      	((-1.664253e-12 2.382189e-12 7.957549e-14) (1.874006e-13 -4.448907e-13 5.882237e-12)) ((-2.910907e-17 1.035297e-12 -2.728888e-16) (-8.390539e-15 6.602300e-09 -2.655601e-15))
0.474966      	((-3.128894e-12 -6.403751e-13 5.034116e-12) (1.580545e-13 -4.737371e-13 4.175016e-12)) ((-2.212033e-17 9.219987e-13 -2.151075e-16) (-8.010222e-15 5.896761e-09 -7.727360e-16))
0.581959      	((-4.947702e-12 -2.740969e-12 -5.143226e-12) (1.064229e-13 -4.943835e-13 2.751373e-12)) ((-4.970927e-17 8.257135e-13 -8.118672e-17) (-7.911504e-15 5.303697e-09 1.861610e-15))
0.710351      	((-7.205982e-12 -3.859220e-12 1.176221e-11) (1.241461e-13 -3.534960e-13 2.454145e-12)) ((-1.270399e-16 7.330471e-13 -7.610321e-17) (-6.338008e-15 4.794233e-09 -3.098318e-16))
0.864421      	((-7.435893e-12 -3.247299e-12 5.763965e-12) (1.801712e-13 4.012556e-14 2.316642e-12)) ((-1.745443e-16 6.705545e-13 1.025611e-16) (-2.730851e-15 4.347892e-09 -6.196318e-15))
1.049306      	((-1.087842e-11 -3.135307e-12 -3.969071e-13) (2.694944e-13 3.997330e-13 1.491946e-12)) ((-2.517950e-16 6.307554e-13 9.187884e-17) (2.207398e-15 3.951188e-09 -9.753653e-15))
1.271167      	((-1.435133e-11 -2.560709e-12 1.169958e-11) (4.680555e-13 5.752557e-13 6.587429e-13)) ((-1.034128e-16 5.899808e-13 1.831374e-16) (9.247196e-15 3.595043e-09 -7.495732e-15))
1.5374        	((-1.403887e-11 1.115332e-12 1.382227e-11) (8.073331e-13 6.419538e-13 -4.453383e-13)) ((1.729185e-16 5.425930e-13 2.834312e-16) (1.830398e-14 3.273546e-09 -1.250047e-15))
1.85688       	((-1.383886e-11 -1.660607e-12 9.485946e-12) (1.203632e-12 6.977580e-13 -2.136087e-12)) ((3.407018e-16 5.007960e-13 1.278695e-16) (3.114514e-14 2.983493e-09 1.137706e-14))
2.240256      	((-1.336985e-11 -7.691975e-13 1.166793e-11) (1.773636e-12 5.737983e-13 -3.232104e-12)) ((3.558618e-16 4.738130e-13 8.960472e-17) (4.287992e-14 2.723230e-09 2.806954e-14))
2.700307      	((-1.306409e-11 -1.638828e-13 9.880984e-12) (2.737240e-12 3.656496e-13 -3.842279e-12)) ((3.176906e-16 4.542998e-13 1.125691e-16) (6.237618e-14 2.491581e-09 6.251583e-14))
3.252369      	((-9.617757e-12 -8.606070e-13 6.480578e-12) (3.992545e-12 1.879079e-13 -5.954812e-12)) ((3.690532e-16 4.347334e-13 1.809061e-16) (8.772882e-14 2.286966e-09 1.043739e-13))
3.914842      	((-4.427312e-12 -8.274555e-13 1.850073e-12) (5.265767e-12 -4.731674e-14 -9.354915e-12)) ((1.890577e-16 4.120055e-13 3.015329e-16) (1.059360e-13 2.106993e-09 1.249315e-13))
4.709811      	((-2.034967e-12 -3.194871e-14 -1.652053e-12) (6.668475e-12 -3.536239e-13 -1.068158e-11)) ((2.381274e-16 3.867812e-13 2.459583e-16) (1.211076e-13 1.948319e-09 1.411192e-13))
5.663773      	((1.595803e-13 -6.303932e-13 2.762559e-12) (7.481649e-12 -3.371710e-13 -1.003699e-11)) ((2.333248e-16 3.593710e-13 6.501024e-17) (1.293486e-13 1.807214e-09 1.429864e-13))
6.808528      	((2.106540e-12 -1.000547e-12 7.416827e-13) (7.394426e-12 -1.246348e-13 -9.671919e-12)) ((2.496983e-16 3.314023e-13 -1.280103e-16) (1.246712e-13 1.680362e-09 1.294563e-13))
8.182233      	((2.851059e-12 -4.085718e-14 -3.306045e-13) (6.830551e-12 -1.819786e-13 -8.846943e-12)) ((2.390059e-16 3.041951e-13 -8.679426e-17) (1.094243e-13 1.565197e-09 1.185710e-13))
9.83068       	((2.711481e-12 -1.260208e-12 6.572051e-13) (5.906649e-12 -2.818681e-13 -6.775033e-12)) ((1.657369e-16 2.763234e-13 -9.471763e-17) (8.914147e-14 1.459775e-09 1.032931e-13))
11.808816     	((9.527248e-14 -4.596131e-13 2.770885e-12) (4.593318e-12 1.232614e-14 -4.239416e-12)) ((1.503245e-16 2.512569e-13 -1.736115e-16) (7.169009e-14 1.362742e-09 7.829124e-14))
14.182579     	((-7.323602e-13 -4.984583e-13 3.621648e-12) (3.260068e-12 6.104640e-13 -2.869700e-12)) ((1.156244e-16 2.283362e-13 -2.198214e-16) (5.524476e-14 1.273322e-09 4.230913e-14))
17.031095     	((-1.068432e-12 -6.730508e-13 2.900646e-12) (2.227387e-12 7.699793e-13 -1.935661e-12)) ((2.071266e-17 2.086528e-13 -2.526199e-16) (3.834098e-14 1.191109e-09 1.958590e-14))
20.449314     	((-1.107117e-12 -3.011773e-13 3.903827e-12) (1.418325e-12 5.054248e-13 -1.155769e-12)) ((1.210815e-17 1.912178e-13 -2.937371e-16) (2.320696e-14 1.115842e-09 1.316922e-14))
24.551176     	((-9.004070e-13 1.591199e-13 3.637449e-12) (9.260870e-13 2.529046e-13 -1.001197e-12)) ((1.427067e-17 1.756880e-13 -3.043690e-16) (1.241939e-14 1.047066e-09 1.003730e-14))
29.473411     	((-9.529428e-13 -8.706341e-14 3.992604e-12) (6.417295e-13 1.024116e-13 -1.216142e-12)) ((-2.418441e-17 1.626969e-13 -2.802289e-16) (8.563547e-15 9.843007e-10 7.925372e-15))
35.380094     	((-1.447732e-12 -5.783017e-14 3.653116e-12) (5.213265e-13 -4.018055e-14 -1.438048e-12)) ((-2.210595e-17 1.511725e-13 -2.677111e-16) (6.588322e-15 9.270346e-10 6.384099e-15))
42.468112     	((-9.989508e-13 2.384447e-14 3.206056e-12) (5.133832e-13 -1.085655e-13 -1.542656e-12)) ((-7.584690e-18 1.412657e-13 -2.057661e-16) (6.362344e-15 8.747801e-10 7.010138e-15))
50.973735     	((-6.452629e-13 6.999246e-14 2.876314e-12) (5.722388e-13 -1.639678e-13 -1.425259e-12)) ((1.812359e-17 1.324574e-13 -1.550980e-16) (7.240631e-15 8.271426e-10 9.910956e-15))
61.180482     	((-1.040191e-12 7.099580e-14 2.396243e-12) (6.003182e-13 -2.023704e-13 -1.258258e-12)) ((-4.929792e-18 1.245280e-13 -1.402207e-16) (9.857816e-15 7.837748e-10 1.501685e-14))
73.428578     	((-4.334819e-13 2.259257e-14 1.943637e-12) (6.626128e-13 -1.999112e-13 -1.204586e-12)) ((-2.986666e-17 1.174650e-13 -1.113335e-16) (1.325567e-14 7.443933e-10 1.781149e-14))
88.126294     	((-4.436354e-13 -1.132010e-14 2.252655e-12) (7.303260e-13 -1.918439e-13 -1.276080e-12)) ((-5.112158e-17 1.111101e-13 -7.300687e-17) (1.640158e-14 7.086977e-10 2.055667e-14))
105.763553    	((-1.485434e-13 -7.409216e-14 1.957492e-12) (7.964725e-13 -1.852170e-13 -1.385648e-12)) ((-6.449863e-17 1.050932e-13 -3.876241e-17) (1.859828e-14 6.764046e-10 2.260627e-14))
126.928263    	((-1.279433e-14 -1.452820e-13 1.588127e-12) (8.382986e-13 -1.864600e-13 -1.375956e-12)) ((-7.489804e-17 9.962727e-14 -1.831625e-17) (1.894592e-14 6.472132e-10 2.364470e-14))
152.325916    	((1.654449e-13 -1.289774e-13 1.093867e-12) (8.525691e-13 -1.790157e-13 -1.327748e-12)) ((-6.989106e-17 9.476301e-14 -1.408570e-17) (1.886964e-14 6.208168e-10 2.423171e-14))
182.803099    	((4.586389e-14 -4.113942e-14 6.175901e-13) (8.521307e-13 -1.895524e-13 -1.376525e-12)) ((-5.582902e-17 9.035595e-14 -1.432398e-17) (1.916446e-14 5.969034e-10 2.463540e-14))
219.375719    	((5.316284e-14 -7.732952e-14 3.218873e-13) (8.584593e-13 -1.639979e-13 -1.558469e-12)) ((-4.665472e-17 8.635845e-14 -1.319452e-17) (2.033957e-14 5.751842e-10 2.384020e-14))
263.262863    	((1.786630e-13 -2.023075e-14 1.412664e-13) (8.573739e-13 -1.201557e-13 -1.866332e-12)) ((-3.724920e-17 8.273363e-14 -1.071170e-17) (2.191562e-14 5.554280e-10 2.238150e-14))
315.927436    	((2.616346e-13 -6.144998e-15 -3.787514e-14) (8.267019e-13 -9.267971e-14 -2.123617e-12)) ((-1.855940e-17 7.946113e-14 -6.129910e-18) (2.302111e-14 5.374524e-10 2.135083e-14))
379.124923    	((2.760705e-13 3.787898e-14 -1.774917e-13) (8.433960e-13 -8.441415e-14 -2.363812e-12)) ((-5.732800e-18 7.646049e-14 5.794021e-18) (2.360203e-14 5.211127e-10 2.064478e-14))
454.961908    	((4.561154e-13 2.205508e-14 -2.039688e-13) (8.591200e-13 -9.599070e-14 -2.558825e-12)) ((-9.586744e-19 7.371560e-14 1.502518e-17) (2.391983e-14 5.062972e-10 2.013858e-14))
545.966289    	((4.064932e-13 4.798471e-14 -2.279690e-13) (8.425227e-13 -1.069979e-13 -2.692840e-12)) ((1.498491e-18 7.119803e-14 2.440895e-17) (2.332571e-14 4.928968e-10 1.960195e-14))
655.171547    	((2.947153e-13 8.906911e-14 -2.312315e-13) (7.949905e-13 -9.976441e-14 -2.740066e-12)) ((3.477570e-18 6.891621e-14 3.147776e-17) (2.237626e-14 4.808162e-10 1.860381e-14))
786.217856    	((3.322804e-13 1.435487e-13 -2.415774e-13) (7.778907e-13 -8.786841e-14 -2.716126e-12)) ((4.871895e-18 6.687011e-14 3.624951e-17) (2.115874e-14 4.699768e-10 1.785448e-14))
943.473427    	((3.587343e-13 1.496489e-13 -1.235444e-13) (7.765087e-13 -7.527586e-14 -2.663640e-12)) ((7.236939e-18 6.505220e-14 3.499250e-17) (2.007411e-14 4.602961e-10 1.761576e-14))
1132.180113   	((3.251956e-13 1.241718e-13 -7.723932e-14) (7.472729e-13 -5.084267e-14 -2.593077e-12)) ((9.134295e-18 6.344804e-14 2.873487e-17) (1.890273e-14 4.516900e-10 1.748103e-14))
1358.628135   	((3.056954e-13 9.112181e-14 -5.922166e-14) (7.160482e-13 -3.501635e-14 -2.493771e-12)) ((9.319487e-18 6.201711e-14 1.998740e-17) (1.759295e-14 4.440827e-10 1.719033e-14))
1630.365763   	((2.756673e-13 8.232067e-14 -4.719265e-14) (7.031957e-13 -2.167670e-14 -2.416155e-12)) ((8.789357e-18 6.074238e-14 1.274248e-17) (1.644020e-14 4.373950e-10 1.653728e-14))
1956.450915   	((2.496736e-13 1.072156e-13 -7.196295e-14) (7.012069e-13 -9.100924e-15 -2.372578e-12)) ((1.063732e-17 5.964533e-14 6.703941e-18) (1.550840e-14 4.315501e-10 1.548184e-14))
2347.753098   	((2.588179e-13 1.296309e-13 -9.594787e-15) (6.977548e-13 -5.264632e-15 -2.339164e-12)) ((1.210098e-17 5.869978e-14 8.284645e-19) (1.476057e-14 4.264713e-10 1.437750e-14))
2817.315718   	((2.809493e-13 1.414928e-13 3.668422e-14) (7.000745e-13 -9.662564e-15 -2.313692e-12)) ((1.231146e-17 5.789640e-14 7.649543e-19) (1.396954e-14 4.220848e-10 1.335853e-14))
3380.790861   	((2.845177e-13 1.540666e-13 5.180274e-14) (6.965223e-13 -1.064290e-14 -2.307103e-12)) ((1.121067e-17 5.721108e-14 2.299800e-18) (1.330216e-14 4.183209e-10 1.254644e-14))
4056.961033   	((2.561121e-13 1.830929e-13 7.749921e-14) (6.833688e-13 -1.367281e-14 -2.299792e-12)) ((7.762878e-18 5.661810e-14 5.705110e-18) (1.257416e-14 4.151140e-10 1.191835e-14))
4868.36524    	((2.609760e-13 2.364822e-13 1.137057e-13) (6.693583e-13 -1.250466e-14 -2.288562e-12)) ((7.034799e-18 5.612071e-14 4.672430e-18) (1.214119e-14 4.124006e-10 1.111746e-14))
5842.050288   	((2.366449e-13 3.097907e-13 8.422150e-14) (6.702920e-13 -3.687256e-15 -2.278604e-12)) ((3.170247e-18 5.570049e-14 -1.243018e-19) (1.192186e-14 4.101213e-10 9.985848e-15))
7010.472346   	((2.274624e-13 3.386230e-13 9.008966e-14) (6.644362e-13 4.911013e-15 -2.273794e-12)) ((2.270484e-18 5.535139e-14 -5.797984e-18) (1.172087e-14 4.082209e-10 9.251594e-15))
8412.578815   	((2.685241e-13 3.332056e-13 9.946252e-14) (6.535642e-13 9.900839e-15 -2.271126e-12)) ((-4.548060e-19 5.506384e-14 -8.457356e-18) (1.140410e-14 4.066473e-10 8.809929e-15))
10095.106578  	((3.010195e-13 3.202121e-13 7.003793e-14) (6.393497e-13 1.177042e-14 -2.271279e-12)) ((-2.973382e-18 5.482427e-14 -1.062265e-17) (1.100980e-14 4.053529e-10 8.447889e-15))
12114.139893  	((3.145437e-13 3.086261e-13 -1.088264e-14) (6.222282e-13 1.133960e-14 -2.271140e-12)) ((-5.075881e-18 5.462594e-14 -1.184732e-17) (1.056569e-14 4.042948e-10 8.106000e-15))
14536.979872  	((3.387768e-13 3.124150e-13 -1.654810e-13) (5.960035e-13 1.017188e-14 -2.266351e-12)) ((-6.359582e-18 5.445730e-14 -1.309669e-17) (1.015337e-14 4.034341e-10 7.813976e-15))
17444.387847  	((3.014184e-13 3.200710e-13 -2.145086e-13) (5.856597e-13 9.273428e-15 -2.257892e-12)) ((-6.657832e-18 5.432890e-14 -1.425436e-17) (9.783074e-15 4.027385e-10 7.556233e-15))
20933.277416  	((2.582921e-13 3.340436e-13 -2.577001e-13) (5.786977e-13 9.119243e-15 -2.248407e-12)) ((-6.680362e-18 5.422454e-14 -1.543945e-17) (9.497495e-15 4.021787e-10 7.334836e-15))
25066.403301  	((2.074798e-13 3.557928e-13 -2.961682e-13) (5.741576e-13 9.697954e-15 -2.238826e-12)) ((-6.672042e-18 5.414048e-14 -1.657793e-17) (9.285731e-15 4.017300e-10 7.156053e-15))
29843.775191  	((1.435651e-13 3.850627e-13 -3.386171e-13) (5.709514e-13 1.096638e-14 -2.228759e-12)) ((-6.266288e-18 5.407231e-14 -1.777027e-17) (9.163485e-15 4.013715e-10 7.003900e-15))
35265.400747  	((7.895099e-14 4.356730e-13 -3.908140e-13) (5.712668e-13 1.279822e-14 -2.216927e-12)) ((-5.075921e-18 5.401560e-14 -2.052084e-17) (9.165537e-15 4.010860e-10 6.797253e-15))
41331.286008  	((-1.531631e-14 4.761263e-13 -4.372943e-13) (5.707457e-13 1.365032e-14 -2.208974e-12)) ((-4.425881e-18 5.397037e-14 -2.144840e-17) (9.094594e-15 4.008593e-10 6.645130e-15))
47773.930563  	((-1.264085e-13 5.489707e-13 -5.160123e-13) (5.708196e-13 1.629999e-14 -2.204586e-12)) ((3.371387e-19 5.392681e-14 -2.853003e-17) (9.036950e-15 4.006799e-10 6.679690e-15))
54216.612319  	((-2.446521e-13 5.122480e-13 -5.864501e-13) (5.655348e-13 1.477354e-14 -2.202149e-12)) ((-4.689983e-18 5.387813e-14 -1.981765e-17) (8.968749e-15 4.005384e-10 6.558708e-15))
60659.323233  	((-3.556719e-13 5.130270e-13 -6.039362e-13) (5.639399e-13 8.246661e-15 -2.198188e-12)) ((-3.239352e-18 5.385318e-14 -2.116170e-17) (8.964399e-15 4.004270e-10 6.419116e-15))
67102.057003  	((-4.605591e-13 5.684189e-13 -6.217667e-13) (5.545982e-13 5.489321e-15 -2.193032e-12)) ((-7.868606e-18 5.381236e-14 -1.517745e-17) (8.821297e-15 4.003394e-10 6.414916e-15))
73544.808729  	((-5.348133e-13 6.242534e-13 -6.720406e-13) (5.424352e-13 7.220370e-15 -2.188006e-12)) ((-7.544170e-19 5.378396e-14 -6.438155e-18) (8.666415e-15 4.002704e-10 6.215439e-15))
79987.574536  	((-6.400967e-13 7.044393e-13 -6.818542e-13) (5.312486e-13 9.407161e-15 -2.171177e-12)) ((-6.343237e-18 5.374792e-14 -2.622046e-17) (8.346241e-15 4.002165e-10 6.190015e-15))
86430.35139   	((-7.351983e-13 7.442081e-13 -8.366990e-13) (5.281187e-13 1.661487e-14 -2.167848e-12)) ((3.985655e-19 5.373270e-14 -1.275878e-17) (8.220917e-15 4.001743e-10 6.650923e-15))
92873.136918  	((-6.841285e-13 7.108455e-13 -9.222266e-13) (5.301896e-13 2.234555e-14 -2.162979e-12)) ((-5.940718e-18 5.370066e-14 -1.038026e-17) (8.115479e-15 4.001412e-10 6.459750e-15))
99315.92931   	((-7.796665e-13 6.506095e-13 -9.530035e-13) (5.318957e-13 2.435370e-14 -2.165891e-12)) ((3.039090e-18 5.365296e-14 -1.072785e-17) (7.971494e-15 4.001156e-10 6.214561e-15))
105758.727175 	((-7.525772e-13 6.097542e-13 -1.053219e-12) (5.336997e-13 1.803729e-14 -2.159833e-12)) ((1.529534e-17 5.362858e-14 -1.289913e-17) (7.674431e-15 4.000957e-10 6.157656e-15))
112201.529386 	((-6.576645e-13 6.417267e-13 -1.204752e-12) (5.383591e-13 8.330239e-15 -2.162281e-12)) ((1.287837e-17 5.360857e-14 -1.277416e-17) (7.116624e-15 4.000800e-10 6.080027e-15))
118644.334963 	((-5.848477e-13 7.453503e-13 -1.350416e-12) (5.518764e-13 2.406749e-15 -2.169296e-12)) ((-4.278059e-18 5.356404e-14 -9.829819e-18) (7.490432e-15 4.000677e-10 5.996506e-15))
125087.143079 	((-5.120000e-13 7.873300e-13 -1.508439e-12) (5.543595e-13 9.065817e-15 -2.178275e-12)) ((-3.570366e-18 5.354760e-14 -8.421695e-18) (8.030267e-15 4.000579e-10 6.185280e-15))
131529.953224 	((-3.725459e-13 8.486953e-13 -1.609844e-12) (5.593244e-13 1.005762e-14 -2.197156e-12)) ((-3.667272e-18 5.351705e-14 -7.186660e-18) (8.310670e-15 4.000500e-10 6.248745e-15))
137972.76496  	((-2.691835e-13 9.089173e-13 -1.737220e-12) (5.577921e-13 8.628264e-15 -2.197384e-12)) ((-3.592723e-18 5.353102e-14 -7.141502e-18) (8.557629e-15 4.000422e-10 6.334203e-15))
144415.578022 	((-1.371759e-14 1.057482e-12 -1.739210e-12) (5.736397e-13 1.060319e-14 -2.209742e-12)) ((-4.095781e-18 5.350325e-14 -6.561651e-18) (8.622100e-15 4.000366e-10 6.394968e-15))
150858.392209 	((2.570482e-13 1.204219e-12 -1.795988e-12) (5.730758e-13 1.362833e-14 -2.201349e-12)) ((-6.539454e-18 5.352571e-14 -5.988168e-18) (8.769527e-15 4.000307e-10 6.389868e-15))
