# Forces      
# CofR        : (0.000000e+00 0.000000e+00 0.000000e+00)
# Time        forces(pressure viscous)	moments(pressure viscous)
0             	((0.000000e+00 0.000000e+00 0.000000e+00) (0.000000e+00 0.000000e+00 0.000000e+00)) ((0.000000e+00 0.000000e+00 0.000000e+00) (0.000000e+00 0.000000e+00 0.000000e+00))
0.012         	((-8.502071e-12 1.427812e-11 3.430875e-09) (-5.487405e-15 7.540901e-14 7.206585e-11)) ((-1.548217e-15 1.334649e-10 -7.047620e-17) (1.703182e-16 8.816124e-08 -5.211510e-15))
0.0264        	((1.429195e-11 -1.516792e-11 -1.289857e-09) (-1.039740e-14 2.132331e-13 1.253188e-10)) ((-3.283181e-16 6.681418e-11 6.498323e-15) (2.381562e-15 8.074888e-08 -7.360042e-15))
0.04368       	((4.953588e-11 8.217423e-11 1.195189e-09) (1.189498e-13 1.608191e-13 1.358597e-10)) ((1.205788e-15 3.685902e-11 4.214963e-15) (-3.991785e-15 7.313175e-08 -1.057896e-14))
0.064416      	((-1.399153e-11 -2.270778e-11 4.468623e-11) (3.696561e-13 -1.155956e-13 1.122949e-10)) ((1.160262e-17 2.099034e-11 -2.871442e-16) (-1.351529e-14 6.547626e-08 -1.382215e-14))
0.0892992     	((4.364101e-11 2.545073e-11 1.493351e-10) (5.136982e-13 -4.003258e-13 9.322727e-11)) ((-3.204757e-16 1.559239e-11 -3.020922e-17) (-1.851172e-14 5.800573e-08 -1.424886e-14))
0.119159      	((-1.579146e-11 -6.728990e-12 3.882695e-11) (5.981472e-13 -6.966050e-13 7.903533e-11)) ((1.961434e-16 1.119347e-11 -5.387450e-17) (-2.461611e-14 5.095008e-08 -1.634312e-14))
0.154991      	((-1.427151e-11 -1.612095e-11 -9.819121e-11) (6.597070e-13 -1.095206e-12 6.368619e-11)) ((-2.065379e-16 8.848747e-12 6.841375e-16) (-3.247933e-14 4.447193e-08 -1.995492e-14))
0.197989      	((-1.225847e-11 -1.078307e-11 9.995771e-12) (6.877767e-13 -1.418471e-12 4.978857e-11)) ((-3.188458e-16 7.037340e-12 6.813159e-16) (-3.689792e-14 3.872879e-08 -2.295050e-14))
0.249587      	((-7.100852e-14 -1.121044e-11 -9.440092e-11) (7.249725e-13 -1.594259e-12 3.941594e-11)) ((-4.746229e-16 5.803329e-12 -1.607222e-16) (-3.678838e-14 3.380565e-08 -2.002653e-14))
0.311504      	((-3.966995e-12 2.905924e-12 -1.845934e-11) (7.098794e-13 -1.721924e-12 3.072933e-11)) ((-4.118877e-16 4.832789e-12 -6.667716e-16) (-3.473716e-14 2.969058e-08 -1.348663e-14))
0.385805      	((-7.477068e-12 9.147423e-12 1.040118e-12) (7.668495e-13 -1.759197e-12 2.349057e-11)) ((-1.103847e-16 4.145226e-12 -1.092190e-15) (-3.301574e-14 2.629492e-08 -1.025248e-14))
0.474966      	((-1.365381e-11 -2.364914e-12 2.094342e-11) (6.619305e-13 -1.873570e-12 1.668765e-11)) ((-6.202365e-17 3.692842e-12 -8.245438e-16) (-3.192249e-14 2.348520e-08 -2.604539e-15))
0.581959      	((-2.077274e-11 -1.111722e-11 -2.117814e-11) (4.356392e-13 -1.960024e-12 1.102353e-11)) ((-2.181132e-16 3.307578e-12 -3.205698e-16) (-3.278564e-14 2.112281e-08 7.702239e-15))
0.710351      	((-2.977420e-11 -1.546240e-11 4.597214e-11) (4.575888e-13 -1.401135e-12 9.823210e-12)) ((-5.629551e-16 2.936955e-12 -3.209535e-16) (-2.766512e-14 1.909319e-08 -1.303821e-15))
0.864421      	((-3.036133e-11 -1.310950e-11 2.476218e-11) (8.581690e-13 1.668544e-13 9.185897e-12)) ((-7.482644e-16 2.687033e-12 3.284736e-16) (-1.373156e-14 1.731506e-08 -2.390752e-14))
1.049306      	((-4.064374e-11 -1.283012e-11 -6.377290e-13) (1.136777e-12 1.600963e-12 5.926400e-12)) ((-1.049769e-15 2.527905e-12 3.835632e-16) (8.654533e-15 1.573477e-08 -3.915399e-14))
1.271167      	((-5.751078e-11 -1.037081e-11 4.805936e-11) (1.817337e-12 2.294722e-12 2.558294e-12)) ((-4.416449e-16 2.365364e-12 7.157280e-16) (4.018369e-14 1.431614e-08 -3.104687e-14))
1.5374        	((-5.378389e-11 4.419821e-12 5.525861e-11) (3.286075e-12 2.552972e-12 -1.901220e-12)) ((6.247490e-16 2.176386e-12 1.119416e-15) (7.519728e-14 1.303563e-08 -6.044105e-15))
1.85688       	((-5.417541e-11 -6.298519e-12 3.798952e-11) (4.782829e-12 2.695853e-12 -8.656335e-12)) ((1.356538e-15 2.008297e-12 5.240090e-16) (1.219381e-13 1.188047e-08 4.562592e-14))
2.240256      	((-5.360848e-11 -2.624138e-12 4.621810e-11) (6.998342e-12 2.234158e-12 -1.319574e-11)) ((1.497046e-15 1.898819e-12 4.224243e-16) (1.670365e-13 1.084408e-08 1.146737e-13))
2.700307      	((-5.599769e-11 -8.839583e-13 3.605888e-11) (1.050092e-11 1.387076e-12 -1.563679e-11)) ((1.225241e-15 1.819741e-12 4.415399e-16) (2.437090e-13 9.921768e-09 2.489652e-13))
3.252369      	((-3.933440e-11 -3.652626e-12 2.304100e-11) (1.513387e-11 5.885217e-13 -2.379522e-11)) ((1.368959e-15 1.739777e-12 6.771617e-16) (3.421099e-13 9.107190e-09 4.111440e-13))
3.914842      	((-1.986733e-11 -3.214385e-12 6.421341e-12) (2.041287e-11 -3.746377e-13 -3.677977e-11)) ((7.536391e-16 1.647173e-12 1.109521e-15) (4.108068e-13 8.390747e-09 4.940288e-13))
4.709811      	((-9.704301e-12 -8.512656e-14 -8.042583e-12) (2.605411e-11 -1.547196e-12 -4.207587e-11)) ((9.369007e-16 1.545527e-12 9.072961e-16) (4.689324e-13 7.759083e-09 5.579930e-13))
5.663773      	((6.170976e-13 -2.441547e-12 1.004412e-11) (2.907272e-11 -1.340184e-12 -3.976751e-11)) ((9.716584e-16 1.435701e-12 1.279984e-16) (5.059608e-13 7.197296e-09 5.615207e-13))
6.808528      	((1.023295e-11 -4.324256e-12 2.855325e-12) (2.851616e-11 -4.668259e-13 -3.793643e-11)) ((9.610968e-16 1.323056e-12 -5.506135e-16) (4.930846e-13 6.692198e-09 5.088415e-13))
8.182233      	((1.143049e-11 -1.789810e-12 2.565462e-13) (2.630260e-11 -8.046013e-13 -3.401354e-11)) ((1.034570e-15 1.213818e-12 -3.315564e-16) (4.313911e-13 6.233599e-09 4.649417e-13))
9.83068       	((9.635787e-12 -5.277413e-12 1.024720e-12) (2.242424e-11 -1.240353e-12 -2.582857e-11)) ((7.120986e-16 1.102084e-12 -3.141889e-16) (3.456175e-13 5.813788e-09 4.067819e-13))
11.808816     	((2.140135e-12 -2.580872e-12 1.078325e-11) (1.726810e-11 -6.717355e-14 -1.622515e-11)) ((6.197530e-16 1.001931e-12 -6.939161e-16) (2.762505e-13 5.427396e-09 3.089378e-13))
14.182579     	((-4.788790e-12 -1.988132e-12 1.193507e-11) (1.200641e-11 2.263308e-12 -1.090654e-11)) ((5.204432e-16 9.105972e-13 -8.831339e-16) (2.143837e-13 5.071296e-09 1.652729e-13))
17.031095     	((-3.852339e-12 -2.204104e-12 8.466902e-12) (8.170153e-12 2.927326e-12 -7.575176e-12)) ((1.677664e-16 8.320603e-13 -1.019261e-15) (1.484183e-13 4.743852e-09 7.787390e-14))
20.449314     	((-5.137649e-12 -1.337237e-12 1.289045e-11) (5.419041e-12 1.869914e-12 -4.585515e-12)) ((1.392878e-16 7.624601e-13 -1.145779e-15) (9.381390e-14 4.444023e-09 5.505045e-14))
24.551176     	((-6.038587e-13 5.887153e-13 1.212283e-11) (3.728256e-12 8.038708e-13 -4.076379e-12)) ((1.541105e-16 7.005330e-13 -1.147575e-15) (5.474843e-14 4.170079e-09 4.147210e-14))
29.473411     	((-3.421791e-12 -5.079045e-13 1.377155e-11) (2.616972e-12 2.905213e-13 -4.944311e-12)) ((5.847325e-17 6.485997e-13 -1.001580e-15) (4.040720e-14 3.920140e-09 3.019652e-14))
35.380094     	((-3.238667e-12 -6.416268e-14 1.325552e-11) (2.316056e-12 -1.851933e-13 -5.747558e-12)) ((6.354872e-17 6.024894e-13 -9.176206e-16) (3.487941e-14 3.692166e-09 2.252025e-14))
42.468112     	((-3.245037e-12 -3.173717e-13 1.079264e-11) (2.654961e-12 -5.119747e-13 -6.449341e-12)) ((8.391943e-17 5.628525e-13 -6.787230e-16) (3.794352e-14 3.484203e-09 2.359580e-14))
50.973735     	((-1.559131e-12 6.678129e-13 1.013314e-11) (2.784089e-12 -7.332747e-13 -6.052586e-12)) ((1.874913e-16 5.273293e-13 -5.003780e-16) (4.449590e-14 3.294689e-09 3.619257e-14))
61.180482     	((-3.361055e-12 -2.856410e-13 7.624632e-12) (2.552234e-12 -9.064019e-13 -5.694308e-12)) ((5.341884e-17 4.955234e-13 -5.018729e-16) (5.751021e-14 3.122193e-09 5.642851e-14))
73.428578     	((5.187521e-13 -5.299560e-13 6.804115e-12) (2.660516e-12 -9.028791e-13 -5.832080e-12)) ((-5.825377e-17 4.675478e-13 -3.728321e-16) (7.397458e-14 2.965485e-09 6.487635e-14))
88.126294     	((-8.365799e-14 -5.505221e-13 6.436974e-12) (2.633586e-12 -9.002928e-13 -5.742961e-12)) ((-1.026810e-16 4.419324e-13 -2.417597e-16) (8.600999e-14 2.823392e-09 6.953638e-14))
105.763553    	((1.381769e-12 -9.376592e-13 6.169097e-12) (2.667729e-12 -8.270118e-13 -6.240352e-12)) ((-1.309451e-16 4.179222e-13 -1.004392e-16) (9.691823e-14 2.694786e-09 7.249320e-14))
126.928263    	((1.716664e-12 -8.689079e-13 5.793502e-12) (2.631937e-12 -7.267039e-13 -6.559063e-12)) ((-1.480428e-16 3.961864e-13 -6.618832e-18) (1.009251e-13 2.578527e-09 7.354750e-14))
152.325916    	((1.436014e-12 -7.331630e-13 5.761121e-12) (2.629514e-12 -6.645919e-13 -7.031256e-12)) ((-1.142766e-16 3.768165e-13 1.377976e-17) (9.821913e-14 2.473377e-09 7.319636e-14))
182.803099    	((1.416604e-12 -6.864033e-13 3.956452e-12) (3.078978e-12 -6.958774e-13 -7.608229e-12)) ((-5.112489e-17 3.593406e-13 1.000915e-17) (9.838180e-14 2.378109e-09 7.102900e-14))
219.375719    	((1.717963e-12 -6.054232e-13 2.825662e-12) (3.677434e-12 -5.342710e-13 -8.380904e-12)) ((-2.732071e-18 3.433584e-13 -2.355715e-17) (1.049263e-13 2.291586e-09 6.424319e-14))
263.262863    	((2.425955e-12 -1.418162e-13 1.914353e-12) (4.165008e-12 -4.360553e-13 -9.198744e-12)) ((5.096605e-18 3.289062e-13 -9.465302e-18) (1.105853e-13 2.212871e-09 5.773484e-14))
315.927436    	((3.193568e-12 3.859572e-14 2.347731e-12) (4.333104e-12 -4.125812e-13 -9.669798e-12)) ((3.422009e-17 3.158584e-13 7.541683e-18) (1.124316e-13 2.141261e-09 5.540400e-14))
379.124923    	((4.529860e-12 1.694380e-13 2.313868e-12) (4.429648e-12 -4.239523e-13 -1.015361e-11)) ((6.364129e-17 3.040104e-13 6.051948e-17) (1.124636e-13 2.076212e-09 5.485317e-14))
454.961908    	((5.104778e-12 4.609917e-13 1.779494e-12) (4.462391e-12 -4.907148e-13 -1.079644e-11)) ((7.378484e-17 2.930107e-13 1.023189e-16) (1.094557e-13 2.017278e-09 5.685774e-14))
545.966289    	((5.264415e-12 6.708162e-13 1.658303e-12) (4.408161e-12 -5.160442e-13 -1.133703e-11)) ((1.058884e-16 2.831058e-13 1.401865e-16) (1.036135e-13 1.964042e-09 5.883008e-14))
655.171547    	((5.618269e-12 6.563213e-13 1.834290e-12) (4.377454e-12 -5.477102e-13 -1.151126e-11)) ((1.303016e-16 2.741513e-13 1.565652e-16) (9.684823e-14 1.916130e-09 5.930881e-14))
786.217856    	((5.589755e-12 5.392999e-13 2.473758e-12) (4.226387e-12 -5.891112e-13 -1.134180e-11)) ((1.347947e-16 2.659773e-13 1.472144e-16) (9.158681e-14 1.873175e-09 5.829226e-14))
943.473427    	((4.547872e-12 4.072137e-13 2.358884e-12) (4.020429e-12 -6.338086e-13 -1.127915e-11)) ((1.232734e-16 2.585624e-13 1.429619e-16) (8.543470e-14 1.834820e-09 5.749426e-14))
1132.180113   	((4.413880e-12 3.690679e-13 2.566859e-12) (3.935968e-12 -6.475479e-13 -1.126264e-11)) ((1.220641e-16 2.519133e-13 1.425656e-16) (8.028123e-14 1.800733e-09 5.552345e-14))
1358.628135   	((4.023082e-12 2.984159e-13 2.314230e-12) (3.837012e-12 -6.518677e-13 -1.119871e-11)) ((1.367046e-16 2.460192e-13 1.415141e-16) (7.544915e-14 1.770592e-09 5.343126e-14))
1630.365763   	((3.538714e-12 3.111644e-13 2.575874e-12) (3.738411e-12 -5.981006e-13 -1.113254e-11)) ((1.486285e-16 2.409261e-13 1.391022e-16) (7.211382e-14 1.744074e-09 4.994315e-14))
1956.450915   	((3.279468e-12 4.577571e-13 2.781675e-12) (3.655810e-12 -5.644693e-13 -1.097619e-11)) ((1.448908e-16 2.362966e-13 1.460033e-16) (6.926982e-14 1.720871e-09 4.739978e-14))
2347.753098   	((2.962750e-12 5.755658e-13 2.505800e-12) (3.611722e-12 -5.222610e-13 -1.076650e-11)) ((1.350361e-16 2.324783e-13 1.423389e-16) (6.803911e-14 1.700679e-09 4.436820e-14))
2817.315718   	((2.845154e-12 7.113003e-13 2.826331e-12) (3.562416e-12 -4.240137e-13 -1.058702e-11)) ((1.336534e-16 2.291767e-13 1.025671e-16) (6.500845e-14 1.683217e-09 4.199608e-14))
3380.790861   	((2.566852e-12 9.910972e-13 3.221277e-12) (3.511850e-12 -3.321173e-13 -1.041437e-11)) ((1.008337e-16 2.263348e-13 4.473511e-17) (6.101940e-14 1.668207e-09 3.981453e-14))
4056.961033   	((2.683417e-12 1.168840e-12 3.160366e-12) (3.527542e-12 -2.576789e-13 -1.026961e-11)) ((7.979439e-17 2.239985e-13 1.493195e-17) (5.778136e-14 1.655383e-09 3.625777e-14))
4868.36524    	((2.636899e-12 1.184840e-12 3.285266e-12) (3.432048e-12 -2.448452e-13 -1.012288e-11)) ((8.076590e-17 2.220316e-13 7.700761e-18) (5.363544e-14 1.644505e-09 3.564947e-14))
5841.520959   	((2.601986e-12 1.160991e-12 3.267223e-12) (3.392892e-12 -2.374535e-13 -9.983514e-12)) ((8.576140e-17 2.203839e-13 8.755242e-18) (5.082605e-14 1.635338e-09 3.423760e-14))
6976.43993    	((2.679717e-12 1.186209e-12 2.995670e-12) (3.349480e-12 -2.304662e-13 -9.872627e-12)) ((9.405472e-17 2.189908e-13 1.289381e-18) (4.840323e-14 1.627672e-09 3.272131e-14))
8273.132212   	((2.639796e-12 1.180663e-12 2.773712e-12) (3.291715e-12 -2.220957e-13 -9.793164e-12)) ((1.016330e-16 2.178385e-13 -1.332482e-18) (4.657127e-14 1.621305e-09 3.131940e-14))
9731.606294   	((2.609288e-12 1.199648e-12 2.684697e-12) (3.234502e-12 -2.121034e-13 -9.717338e-12)) ((1.051674e-16 2.168911e-13 -3.007068e-18) (4.483466e-14 1.616050e-09 3.024374e-14))
11349.494968  	((2.640067e-12 1.213127e-12 2.683818e-12) (3.200701e-12 -1.956792e-13 -9.647835e-12)) ((1.044167e-16 2.161169e-13 -1.642860e-18) (4.333238e-14 1.611733e-09 2.903817e-14))
12967.442078  	((2.727333e-12 1.297496e-12 2.811605e-12) (3.180008e-12 -1.762974e-13 -9.588131e-12)) ((9.655177e-17 2.154973e-13 -6.951139e-18) (4.215465e-14 1.608210e-09 2.832818e-14))
14585.436219  	((2.922894e-12 1.161141e-12 2.831408e-12) (3.170503e-12 -1.600939e-13 -9.544426e-12)) ((1.144336e-16 2.149980e-13 8.093889e-18) (4.107417e-14 1.605345e-09 2.707419e-14))
16203.468893  	((3.278563e-12 1.185981e-12 2.543964e-12) (3.131181e-12 -1.502519e-13 -9.501845e-12)) ((1.101891e-16 2.145751e-13 3.718210e-18) (3.986039e-14 1.603023e-09 2.644622e-14))
17821.53275   	((3.702105e-12 1.187476e-12 2.061604e-12) (3.077451e-12 -1.390271e-13 -9.458488e-12)) ((1.084574e-16 2.142205e-13 3.702829e-18) (3.889929e-14 1.601142e-09 2.585861e-14))
19439.622062  	((3.981180e-12 1.198133e-12 1.841093e-12) (3.047275e-12 -1.303054e-13 -9.417252e-12)) ((1.061265e-16 2.139529e-13 3.736575e-18) (3.823178e-14 1.599623e-09 2.550839e-14))
21057.731981  	((4.208764e-12 1.220716e-12 1.659639e-12) (3.038163e-12 -1.220666e-13 -9.384503e-12)) ((1.051189e-16 2.137404e-13 3.890138e-18) (3.766649e-14 1.598397e-09 2.519013e-14))
22675.858598  	((4.396283e-12 1.245244e-12 1.488531e-12) (3.035970e-12 -1.155083e-13 -9.360336e-12)) ((1.045875e-16 2.135704e-13 4.160598e-18) (3.722413e-14 1.597407e-09 2.492272e-14))
24293.998708  	((4.542034e-12 1.271827e-12 1.327128e-12) (3.037359e-12 -1.107760e-13 -9.342159e-12)) ((1.043724e-16 2.134339e-13 4.959552e-18) (3.685240e-14 1.596608e-09 2.470465e-14))
25912.149742  	((4.655285e-12 1.297745e-12 1.191001e-12) (3.040019e-12 -1.081079e-13 -9.328522e-12)) ((1.051959e-16 2.133245e-13 5.515044e-18) (3.652796e-14 1.595963e-09 2.454786e-14))
27530.309625  	((4.748994e-12 1.326799e-12 1.079951e-12) (3.043235e-12 -1.069751e-13 -9.317763e-12)) ((1.055294e-16 2.132365e-13 6.262360e-18) (3.624702e-14 1.595443e-09 2.443626e-14))
29148.476676  	((4.829717e-12 1.348284e-12 1.003253e-12) (3.046066e-12 -1.065555e-13 -9.309454e-12)) ((1.057959e-16 2.131657e-13 6.919753e-18) (3.600423e-14 1.595024e-09 2.436720e-14))
30766.649528  	((4.899865e-12 1.358435e-12 9.558330e-13) (3.048563e-12 -1.062923e-13 -9.303040e-12)) ((1.060767e-16 2.131087e-13 7.620170e-18) (3.580403e-14 1.594685e-09 2.433065e-14))
32384.827076  	((4.960990e-12 1.358996e-12 9.314302e-13) (3.050559e-12 -1.063727e-13 -9.297931e-12)) ((1.062950e-16 2.130633e-13 8.268977e-18) (3.563143e-14 1.594412e-09 2.431103e-14))
34003.008427  	((5.012184e-12 1.351911e-12 9.278637e-13) (3.052072e-12 -1.066865e-13 -9.294016e-12)) ((1.062963e-16 2.130271e-13 8.836831e-18) (3.548253e-14 1.594192e-09 2.429312e-14))
35621.192853  	((5.055334e-12 1.341759e-12 9.444027e-13) (3.052706e-12 -1.071401e-13 -9.290999e-12)) ((1.061976e-16 2.129983e-13 9.249773e-18) (3.535532e-14 1.594014e-09 2.428202e-14))
37239.379763  	((5.088361e-12 1.329520e-12 9.760872e-13) (3.052967e-12 -1.076862e-13 -9.288522e-12)) ((1.060000e-16 2.129753e-13 9.737859e-18) (3.524804e-14 1.593871e-09 2.426643e-14))
