# Forces      
# CofR        : (0.000000e+00 0.000000e+00 0.000000e+00)
# Time        forces(pressure viscous)	moments(pressure viscous)
0             	((0.000000e+00 0.000000e+00 0.000000e+00) (-1.386018e-14 1.266753e-15 -2.005355e-04)) ((0.000000e+00 0.000000e+00 0.000000e+00) (-3.776166e-16 -7.760544e-11 -3.502551e-17))
0.012         	((-3.652902e-09 8.688758e-09 -5.829128e-02) (1.647637e-10 1.662604e-10 -2.300226e-04)) ((-2.363401e-11 -1.545125e-08 -2.142684e-13) (1.461943e-12 -2.255556e-10 -1.149550e-14))
0.0264        	((-1.149240e-06 -1.161886e-06 4.261194e-03) (-6.901594e-10 -6.504452e-10 -2.344547e-04)) ((2.449716e-11 9.987551e-10 3.499320e-12) (1.240010e-12 -2.992956e-10 -2.534569e-13))
0.04368       	((1.279787e-06 1.019935e-06 1.207068e-02) (-4.640167e-10 -6.482602e-10 -2.081418e-04)) ((1.353699e-10 2.738247e-09 -3.545010e-12) (-3.907888e-12 -3.033407e-10 -5.383356e-13))
0.064416      	((-4.458844e-08 -2.382761e-07 1.143809e-04) (-2.151091e-09 -1.204336e-09 -1.843154e-04)) ((-4.430876e-11 -7.406431e-11 1.915480e-12) (2.132563e-11 -3.800787e-10 7.005812e-13))
0.0892992     	((-2.632233e-07 1.658334e-07 -1.361284e-04) (-5.063552e-09 -1.993767e-09 -1.701228e-04)) ((-1.586001e-11 9.045393e-11 -1.616703e-12) (1.328925e-11 -4.492657e-10 5.443502e-12))
0.119159      	((-1.497670e-07 -1.077711e-07 1.911948e-04) (-5.243099e-09 -1.705857e-09 -1.570591e-04)) ((-6.187037e-12 1.140275e-10 -1.496963e-12) (-7.075329e-12 -4.984425e-10 7.034138e-12))
0.154991      	((-7.610880e-08 -5.470171e-08 9.948768e-05) (-4.744274e-09 -1.801041e-09 -1.433110e-04)) ((1.379978e-12 5.658068e-11 -3.562583e-13) (-2.026069e-11 -4.923051e-10 6.257552e-12))
0.197989      	((-8.524315e-08 -1.781309e-09 2.371945e-05) (-3.452999e-09 -1.589234e-09 -1.295454e-04)) ((7.686603e-12 6.409017e-12 -5.847715e-13) (-2.391303e-11 -4.169613e-10 7.158261e-12))
0.249587      	((-2.095046e-08 -1.807080e-08 -3.426446e-06) (-2.217209e-09 -1.034199e-09 -1.161807e-04)) ((3.172190e-12 1.725678e-12 -1.702985e-13) (-3.524114e-12 -3.572253e-10 6.820246e-12))
0.311504      	((-9.534058e-09 -9.154536e-09 -1.558340e-05) (-1.693782e-09 -6.085666e-10 -1.036155e-04)) ((1.245437e-12 -1.268544e-11 -2.740975e-13) (1.148514e-11 -3.095791e-10 5.480476e-12))
0.385805      	((-1.250285e-08 -6.277659e-09 -2.210860e-05) (-1.165711e-09 -4.218798e-10 -9.217422e-05)) ((1.143029e-12 -2.079045e-11 -1.677335e-13) (1.170215e-11 -2.615715e-10 4.121096e-12))
0.474966      	((-4.278487e-09 -1.330158e-09 -2.563972e-05) (-1.024162e-09 -4.704752e-10 -8.202391e-05)) ((6.939724e-13 -2.092573e-11 -5.771753e-14) (7.880696e-13 -2.262243e-10 3.017248e-12))
0.581959      	((-3.176871e-09 -2.909356e-09 -2.710401e-05) (-1.232095e-09 -4.324179e-10 -7.309898e-05)) ((6.047981e-13 -2.250280e-11 -3.336935e-14) (-7.365805e-12 -1.893310e-10 2.128370e-12))
0.710351      	((-4.356348e-09 -2.689314e-09 -2.709404e-05) (-1.519515e-09 -3.247682e-10 -6.528436e-05)) ((4.287929e-13 -2.427336e-11 -1.731507e-14) (-1.129671e-11 -1.423594e-10 1.530277e-12))
0.864421      	((-4.188380e-09 -2.990477e-09 -2.613661e-05) (-1.543808e-09 -2.080583e-10 -5.847602e-05)) ((3.169809e-13 -2.482271e-11 -1.654251e-14) (-9.486127e-12 -1.128660e-10 1.162525e-12))
1.049306      	((-1.826957e-09 -2.575248e-09 -2.470427e-05) (-1.369940e-09 -1.431173e-10 -5.254983e-05)) ((2.238436e-13 -2.390216e-11 -1.450049e-14) (-5.626014e-12 -1.196976e-10 8.636470e-13))
1.271167      	((-2.855342e-09 -2.327828e-09 -2.304913e-05) (-1.140942e-09 -9.963633e-11 -4.737666e-05)) ((1.749756e-13 -2.224292e-11 -7.564181e-15) (-3.115446e-12 -1.449737e-10 5.777058e-13))
1.5374        	((-9.645622e-10 -1.495912e-09 -2.130492e-05) (-7.761757e-10 -5.384363e-11 -4.283028e-05)) ((1.312291e-13 -2.032254e-11 -1.363494e-14) (-3.350389e-12 -1.700010e-10 3.983965e-13))
1.85688       	((-1.277364e-09 -1.129707e-09 -1.960020e-05) (-1.888829e-10 -3.073793e-12 -3.881088e-05)) ((1.260388e-13 -1.889690e-11 -1.576604e-14) (-5.810070e-12 -1.949257e-10 3.533205e-13))
2.240256      	((-1.768261e-09 -1.337111e-09 -1.801362e-05) (1.753697e-10 3.882335e-11 -3.524554e-05)) ((1.211908e-13 -1.757048e-11 -2.039067e-14) (-9.048157e-12 -2.092809e-10 2.915219e-13))
2.700307      	((-2.530879e-09 -1.466905e-09 -1.656410e-05) (1.120893e-10 4.550364e-11 -3.207512e-05)) ((8.702863e-14 -1.651735e-11 -2.253426e-14) (-1.115836e-11 -1.851151e-10 3.116624e-13))
3.252369      	((-2.880631e-09 -1.922656e-09 -1.524591e-05) (-3.808815e-11 1.268225e-11 -2.924751e-05)) ((2.341647e-14 -1.544945e-11 -3.199185e-14) (-1.159309e-11 -1.371434e-10 3.836767e-13))
3.914842      	((-2.730144e-09 -2.383462e-09 -1.406525e-05) (-1.319956e-10 -3.719265e-11 -2.672040e-05)) ((-5.308234e-15 -1.445527e-11 -2.691680e-14) (-1.128666e-11 -8.984706e-11 3.914570e-13))
4.709811      	((-3.013003e-09 -2.481607e-09 -1.303060e-05) (-2.550975e-10 -8.884941e-11 -2.446442e-05)) ((-3.493949e-14 -1.352420e-11 -2.152558e-14) (-1.023657e-11 -6.202828e-11 4.447476e-13))
5.663773      	((-2.813750e-09 -2.061878e-09 -1.214874e-05) (-3.672572e-10 -1.237020e-10 -2.245921e-05)) ((-3.992950e-14 -1.253684e-11 -1.046076e-14) (-7.992937e-12 -7.234458e-11 5.013028e-13))
6.808528      	((-3.344703e-09 -2.575001e-09 -1.141187e-05) (-3.887396e-10 -1.522683e-10 -2.068371e-05)) ((-6.163549e-14 -1.153486e-11 -1.356499e-14) (-4.052533e-12 -9.826391e-11 3.377017e-13))
8.182233      	((-5.168974e-09 -4.203426e-09 -1.081995e-05) (-4.520685e-10 -2.291178e-10 -1.911373e-05)) ((-8.403794e-14 -1.066634e-11 -1.766198e-14) (7.162786e-13 -1.131526e-10 4.541935e-13))
9.83068       	((-5.640151e-09 -4.628653e-09 -1.037507e-05) (-4.976606e-10 -3.336734e-10 -1.772571e-05)) ((-1.003887e-13 -9.918043e-12 -1.739158e-14) (3.518256e-12 -1.038515e-10 7.684189e-13))
11.808816     	((-6.273958e-09 -5.972489e-09 -1.007884e-05) (-5.774760e-10 -4.789374e-10 -1.649970e-05)) ((-1.249858e-13 -9.195260e-12 -1.017203e-14) (1.812506e-12 -7.950847e-11 8.642493e-13))
14.182579     	((-6.994442e-09 -6.237925e-09 -9.931739e-06) (-7.499203e-10 -6.501988e-10 -1.542046e-05)) ((-1.289566e-13 -8.558001e-12 -9.498912e-15) (-4.565636e-12 -5.134755e-11 9.584919e-13))
17.031095     	((-6.116686e-09 -5.395070e-09 -9.929050e-06) (-9.357369e-10 -7.689311e-10 -1.447613e-05)) ((-1.583894e-13 -8.007334e-12 -5.823208e-15) (-1.299630e-11 -3.119662e-11 9.168737e-13))
20.449314     	((-6.173217e-09 -5.411134e-09 -1.005863e-05) (-1.124763e-09 -8.719050e-10 -1.365642e-05)) ((-1.627202e-13 -7.627825e-12 -3.350717e-15) (-2.067103e-11 -2.065050e-11 9.816059e-13))
24.551176     	((-5.742866e-09 -4.918420e-09 -1.030934e-05) (-1.270525e-09 -9.613537e-10 -1.295274e-05)) ((-1.863985e-13 -7.240108e-12 -1.461597e-15) (-3.017471e-11 -1.490630e-11 1.119461e-12))
29.473411     	((-4.987069e-09 -4.243084e-09 -1.066738e-05) (-1.278290e-09 -1.029891e-09 -1.235898e-05)) ((-1.992456e-13 -6.905039e-12 -1.719047e-15) (-4.489666e-11 -1.018242e-11 1.281997e-12))
35.380094     	((-3.787150e-09 -2.852140e-09 -1.110617e-05) (-1.289226e-09 -1.049151e-09 -1.186785e-05)) ((-2.061550e-13 -6.659863e-12 -1.492370e-15) (-6.288276e-11 -7.225782e-12 7.044814e-13))
42.45004      	((-3.882417e-09 -2.786477e-09 -1.158643e-05) (-1.306875e-09 -1.056233e-09 -1.147283e-05)) ((-1.975192e-13 -6.482895e-12 -3.458908e-15) (-7.996022e-11 7.738434e-13 3.628166e-13))
50.673522     	((-3.240800e-09 -2.143487e-09 -1.206884e-05) (-1.175745e-09 -9.906807e-10 -1.116856e-05)) ((-1.815878e-13 -6.319713e-12 9.332010e-16) (-9.019189e-11 1.437179e-11 6.068733e-13))
60.041755     	((-2.432921e-09 -1.201067e-09 -1.248952e-05) (-9.409178e-10 -8.232729e-10 -1.093399e-05)) ((-1.639504e-13 -6.236182e-12 -8.025979e-15) (-9.243083e-11 3.058326e-11 8.201890e-13))
70.549314     	((-1.063227e-09 2.275750e-10 -1.282725e-05) (-6.225538e-10 -5.212840e-10 -1.074541e-05)) ((-1.475740e-13 -6.240610e-12 -1.299049e-14) (-8.792447e-11 4.165849e-11 1.102041e-12))
81.938248     	((1.008088e-09 2.570676e-09 -1.307643e-05) (-1.752576e-10 -5.526332e-11 -1.058760e-05)) ((-1.330443e-13 -6.253446e-12 -8.675159e-15) (-8.289683e-11 5.136207e-11 1.165044e-12))
93.366716     	((1.986824e-09 3.900254e-09 -1.324860e-05) (2.981455e-10 4.377078e-10 -1.045595e-05)) ((-1.166177e-13 -6.263340e-12 -6.304938e-15) (-8.086049e-11 6.404662e-11 1.191961e-12))
104.832867    	((2.216970e-09 4.515404e-09 -1.332579e-05) (6.678297e-10 8.895609e-10 -1.034212e-05)) ((-9.162150e-14 -6.245882e-12 -4.540271e-15) (-7.935596e-11 7.419884e-11 1.232230e-12))
116.31591     	((1.052412e-09 3.772705e-09 -1.334475e-05) (8.935474e-10 1.197948e-09 -1.024280e-05)) ((-8.462920e-14 -6.190700e-12 -1.614263e-15) (-7.877530e-11 7.908050e-11 1.415689e-12))
127.804262    	((2.124360e-10 3.165606e-09 -1.332759e-05) (1.019986e-09 1.366144e-09 -1.015500e-05)) ((-7.300293e-14 -6.160888e-12 7.943516e-16) (-7.598373e-11 8.074144e-11 1.589020e-12))
139.298379    	((-2.840138e-10 2.759220e-09 -1.329565e-05) (1.077407e-09 1.437118e-09 -1.007649e-05)) ((-6.462018e-14 -6.135593e-12 1.782039e-15) (-7.166618e-11 7.968828e-11 1.605318e-12))
150.800618    	((-5.107800e-10 2.490960e-09 -1.326082e-05) (1.143162e-09 1.490503e-09 -1.000659e-05)) ((-6.840503e-14 -6.116892e-12 7.287937e-16) (-6.794198e-11 7.635111e-11 1.589526e-12))
162.310745    	((-9.450262e-10 1.894344e-09 -1.322863e-05) (1.180535e-09 1.502371e-09 -9.944643e-06)) ((-8.395947e-14 -6.084883e-12 -2.345705e-16) (-6.430213e-11 7.379531e-11 1.553083e-12))
173.827495    	((-1.362229e-09 1.167270e-09 -1.319325e-05) (1.170892e-09 1.457662e-09 -9.889172e-06)) ((-9.149894e-14 -6.049804e-12 4.743077e-16) (-6.104745e-11 7.299551e-11 1.450108e-12))
185.350072    	((-1.519249e-09 5.284631e-10 -1.316395e-05) (1.134817e-09 1.373412e-09 -9.839597e-06)) ((-7.781106e-14 -6.027946e-12 4.865372e-15) (-5.802432e-11 7.150237e-11 1.732975e-12))
196.877959    	((-1.441013e-09 -8.891762e-11 -1.313613e-05) (1.127142e-09 1.289200e-09 -9.795380e-06)) ((-6.547806e-14 -5.999713e-12 7.273727e-15) (-5.401842e-11 6.884277e-11 1.789485e-12))
208.410617    	((-1.721040e-09 -7.658521e-10 -1.310892e-05) (1.117116e-09 1.209455e-09 -9.755808e-06)) ((-5.963343e-14 -5.974050e-12 9.416745e-15) (-4.907178e-11 6.594371e-11 1.632314e-12))
219.947571    	((-1.714346e-09 -1.610790e-09 -1.308192e-05) (1.096636e-09 1.114063e-09 -9.720268e-06)) ((-5.577856e-14 -5.953863e-12 1.163313e-14) (-4.374775e-11 6.352115e-11 1.306164e-12))
231.488423    	((-1.982328e-09 -2.451005e-09 -1.305814e-05) (1.043854e-09 1.004279e-09 -9.688450e-06)) ((-5.490867e-14 -5.926365e-12 1.345766e-14) (-3.865655e-11 6.121397e-11 9.415417e-13))
243.032822    	((-2.120647e-09 -3.277989e-09 -1.303559e-05) (9.792768e-10 8.863495e-10 -9.659946e-06)) ((-5.573445e-14 -5.901698e-12 1.526345e-14) (-3.375992e-11 5.914117e-11 7.639683e-13))
254.580434    	((-2.337511e-09 -4.277009e-09 -1.301256e-05) (9.164399e-10 7.487870e-10 -9.634203e-06)) ((-5.930191e-14 -5.879198e-12 1.688361e-14) (-2.904488e-11 5.726546e-11 7.098303e-13))
266.130962    	((-2.871231e-09 -5.486987e-09 -1.299245e-05) (8.373774e-10 5.783363e-10 -9.610978e-06)) ((-6.171569e-14 -5.858726e-12 1.756673e-14) (-2.446807e-11 5.499867e-11 6.007813e-13))
277.684147    	((-3.243275e-09 -6.656879e-09 -1.297321e-05) (7.657125e-10 3.899724e-10 -9.589976e-06)) ((-6.527309e-14 -5.841322e-12 1.775659e-14) (-1.998698e-11 5.176580e-11 4.982353e-13))
289.239757    	((-3.714563e-09 -7.859415e-09 -1.295580e-05) (6.901266e-10 1.899029e-10 -9.570983e-06)) ((-7.255270e-14 -5.823274e-12 1.744394e-14) (-1.580547e-11 4.784354e-11 5.795897e-13))
300.797581    	((-4.233333e-09 -9.071166e-09 -1.293970e-05) (6.069699e-10 -1.695246e-11 -9.553808e-06)) ((-8.054586e-14 -5.807814e-12 1.685336e-14) (-1.198744e-11 4.351729e-11 7.135505e-13))
312.357423    	((-4.601743e-09 -1.020627e-08 -1.292441e-05) (5.272523e-10 -2.284546e-10 -9.538227e-06)) ((-8.773769e-14 -5.796156e-12 1.655926e-14) (-8.546604e-12 3.893536e-11 8.174892e-13))
323.919107    	((-4.930666e-09 -1.126686e-08 -1.291037e-05) (4.520163e-10 -4.359117e-10 -9.524084e-06)) ((-9.303262e-14 -5.786116e-12 1.592866e-14) (-5.339460e-12 3.421962e-11 8.558226e-13))
335.482475    	((-5.302667e-09 -1.229275e-08 -1.289726e-05) (3.813135e-10 -6.384991e-10 -9.511230e-06)) ((-9.818049e-14 -5.775569e-12 1.552876e-14) (-2.304439e-12 2.959669e-11 8.097472e-13))
347.0474      	((-5.689982e-09 -1.333685e-08 -1.288504e-05) (3.153722e-10 -8.376317e-10 -9.499523e-06)) ((-1.042307e-13 -5.764228e-12 1.550655e-14) (6.696176e-13 2.514805e-11 7.578199e-13))
358.613777    	((-6.073267e-09 -1.432785e-08 -1.287394e-05) (2.526214e-10 -1.032726e-09 -9.488860e-06)) ((-1.095970e-13 -5.753677e-12 1.535657e-14) (3.469024e-12 2.093324e-11 7.078001e-13))
370.181494    	((-6.504619e-09 -1.534578e-08 -1.286350e-05) (1.904907e-10 -1.225692e-09 -9.479124e-06)) ((-1.159423e-13 -5.742915e-12 1.495370e-14) (6.242766e-12 1.688840e-11 6.702717e-13))
381.750441    	((-6.891651e-09 -1.627885e-08 -1.285371e-05) (1.318984e-10 -1.411485e-09 -9.470210e-06)) ((-1.217313e-13 -5.733438e-12 1.446320e-14) (9.006417e-12 1.291003e-11 6.294535e-13))
393.320518    	((-7.326595e-09 -1.719197e-08 -1.284433e-05) (7.214658e-11 -1.590161e-09 -9.462022e-06)) ((-1.268253e-13 -5.724606e-12 1.430515e-14) (1.152821e-11 9.051016e-12 5.890477e-13))
404.891633    	((-7.751533e-09 -1.803411e-08 -1.283545e-05) (1.089105e-11 -1.759689e-09 -9.454480e-06)) ((-1.314295e-13 -5.715836e-12 1.379754e-14) (1.391199e-11 5.334902e-12 5.441304e-13))
416.463704    	((-8.162699e-09 -1.888963e-08 -1.282705e-05) (-4.850290e-11 -1.922614e-09 -9.447518e-06)) ((-1.363942e-13 -5.706858e-12 1.318940e-14) (1.625904e-11 1.667798e-12 4.902528e-13))
428.036658    	((-8.687249e-09 -1.970452e-08 -1.281933e-05) (-1.142037e-10 -2.076264e-09 -9.441097e-06)) ((-1.413958e-13 -5.697643e-12 1.281159e-14) (1.863317e-11 -1.901299e-12 4.226283e-13))
439.610426    	((-9.144261e-09 -2.053727e-08 -1.281211e-05) (-1.805734e-10 -2.225238e-09 -9.435170e-06)) ((-1.461325e-13 -5.689624e-12 1.262604e-14) (2.106012e-11 -5.398684e-12 3.426849e-13))
451.184947    	((-9.634267e-09 -2.133097e-08 -1.280535e-05) (-2.459442e-10 -2.368701e-09 -9.429694e-06)) ((-1.502187e-13 -5.681250e-12 1.252758e-14) (2.350434e-11 -8.861257e-12 2.716972e-13))
462.760165    	((-1.018354e-08 -2.214621e-08 -1.279908e-05) (-3.144525e-10 -2.508427e-09 -9.424636e-06)) ((-1.543919e-13 -5.672583e-12 1.264240e-14) (2.603555e-11 -1.227715e-11 2.445492e-13))
474.336025    	((-1.077622e-08 -2.296338e-08 -1.279327e-05) (-3.890203e-10 -2.645544e-09 -9.419969e-06)) ((-1.581823e-13 -5.664487e-12 1.274576e-14) (2.867722e-11 -1.563376e-11 2.280032e-13))
485.912478    	((-1.143032e-08 -2.380040e-08 -1.278784e-05) (-4.723288e-10 -2.781912e-09 -9.415658e-06)) ((-1.621686e-13 -5.656489e-12 1.279719e-14) (3.142030e-11 -1.896185e-11 2.057116e-13))
497.489476    	((-1.205922e-08 -2.462925e-08 -1.278272e-05) (-5.597338e-10 -2.917903e-09 -9.411669e-06)) ((-1.660602e-13 -5.648838e-12 1.284985e-14) (3.422714e-11 -2.225892e-11 1.843943e-13))
509.066976    	((-1.268960e-08 -2.550066e-08 -1.277794e-05) (-6.506319e-10 -3.056135e-09 -9.407973e-06)) ((-1.699054e-13 -5.641732e-12 1.284058e-14) (3.708475e-11 -2.552837e-11 1.608511e-13))
520.644937    	((-1.332598e-08 -2.634768e-08 -1.277348e-05) (-7.457163e-10 -3.194679e-09 -9.404547e-06)) ((-1.739029e-13 -5.634842e-12 1.266336e-14) (3.997258e-11 -2.869490e-11 1.432722e-13))
532.223322    	((-1.396249e-08 -2.721884e-08 -1.276933e-05) (-8.442697e-10 -3.334592e-09 -9.401370e-06)) ((-1.777191e-13 -5.627869e-12 1.242280e-14) (4.287602e-11 -3.173047e-11 1.325248e-13))
543.802095    	((-1.462001e-08 -2.810031e-08 -1.276549e-05) (-9.469967e-10 -3.477589e-09 -9.398423e-06)) ((-1.821449e-13 -5.621230e-12 1.224214e-14) (4.579799e-11 -3.459050e-11 1.176162e-13))
555.381226    	((-1.529455e-08 -2.899598e-08 -1.276195e-05) (-1.055022e-09 -3.623784e-09 -9.395693e-06)) ((-1.864955e-13 -5.614303e-12 1.202754e-14) (4.866576e-11 -3.725960e-11 1.029904e-13))
566.960684    	((-1.594858e-08 -2.994121e-08 -1.275868e-05) (-1.166372e-09 -3.776569e-09 -9.393165e-06)) ((-1.915234e-13 -5.608162e-12 1.192754e-14) (5.146733e-11 -3.973366e-11 8.841236e-14))
578.540441    	((-1.662012e-08 -3.087896e-08 -1.275565e-05) (-1.281722e-09 -3.933971e-09 -9.390824e-06)) ((-1.963165e-13 -5.602104e-12 1.181167e-14) (5.419533e-11 -4.201397e-11 7.282388e-14))
590.120472    	((-1.726854e-08 -3.181600e-08 -1.275280e-05) (-1.398958e-09 -4.094528e-09 -9.388654e-06)) ((-2.008896e-13 -5.596453e-12 1.164872e-14) (5.685907e-11 -4.413196e-11 5.375460e-14))
601.700752    	((-1.791277e-08 -3.276053e-08 -1.275012e-05) (-1.516810e-09 -4.258035e-09 -9.386643e-06)) ((-2.054758e-13 -5.590986e-12 1.148121e-14) (5.946008e-11 -4.613883e-11 3.455646e-14))
613.28126     	((-1.854171e-08 -3.372856e-08 -1.274760e-05) (-1.634459e-09 -4.425753e-09 -9.384775e-06)) ((-2.104112e-13 -5.585874e-12 1.136928e-14) (6.199852e-11 -4.806220e-11 1.587714e-14))
624.861976    	((-1.916149e-08 -3.471626e-08 -1.274520e-05) (-1.751535e-09 -4.598480e-09 -9.383037e-06)) ((-2.155337e-13 -5.580931e-12 1.135731e-14) (6.447337e-11 -4.990623e-11 -8.148390e-16))
636.44288     	((-1.978216e-08 -3.571507e-08 -1.274295e-05) (-1.868431e-09 -4.775966e-09 -9.381419e-06)) ((-2.207615e-13 -5.575980e-12 1.129210e-14) (6.688280e-11 -5.168562e-11 -1.448625e-14))
648.023954    	((-2.039494e-08 -3.672933e-08 -1.274086e-05) (-1.985244e-09 -4.958205e-09 -9.379914e-06)) ((-2.261469e-13 -5.571091e-12 1.132276e-14) (6.922712e-11 -5.341745e-11 -2.682147e-14))
659.605184    	((-2.099840e-08 -3.773951e-08 -1.273892e-05) (-2.101522e-09 -5.143569e-09 -9.378515e-06)) ((-2.316409e-13 -5.566393e-12 1.137046e-14) (7.151547e-11 -5.510015e-11 -3.974889e-14))
671.186553    	((-2.159832e-08 -3.875529e-08 -1.273710e-05) (-2.217059e-09 -5.331568e-09 -9.377215e-06)) ((-2.372891e-13 -5.561766e-12 1.146718e-14) (7.376208e-11 -5.674652e-11 -5.298183e-14))
682.768049    	((-2.218851e-08 -3.977219e-08 -1.273539e-05) (-2.331033e-09 -5.521819e-09 -9.376005e-06)) ((-2.430665e-13 -5.557304e-12 1.156551e-14) (7.596922e-11 -5.837039e-11 -6.666853e-14))
694.349659    	((-2.278558e-08 -4.079085e-08 -1.273378e-05) (-2.444088e-09 -5.713638e-09 -9.374877e-06)) ((-2.489557e-13 -5.552692e-12 1.168240e-14) (7.814917e-11 -5.998563e-11 -8.046111e-14))
705.931371    	((-2.338432e-08 -4.181079e-08 -1.273227e-05) (-2.556433e-09 -5.906707e-09 -9.373827e-06)) ((-2.549601e-13 -5.548159e-12 1.184694e-14) (8.029643e-11 -6.160388e-11 -9.437037e-14))
717.513174    	((-2.398383e-08 -4.282937e-08 -1.273086e-05) (-2.667853e-09 -6.100706e-09 -9.372850e-06)) ((-2.610428e-13 -5.543673e-12 1.197952e-14) (8.239548e-11 -6.322992e-11 -1.102169e-13))
