# Forces      
# CofR        : (0.000000e+00 0.000000e+00 0.000000e+00)
# Time        forces(pressure viscous)	moments(pressure viscous)
0             	((0.000000e+00 0.000000e+00 0.000000e+00) (-1.599115e-03 2.124662e-13 -9.474624e-14)) ((0.000000e+00 0.000000e+00 0.000000e+00) (8.097434e-17 1.278142e-14 2.205344e-14))
0.012         	((-4.644230e-01 -6.077059e-07 -6.907438e-07) (-1.829787e-03 -3.686125e-11 -2.345384e-10)) ((-3.400893e-12 1.146968e-10 6.587949e-11) (1.445907e-13 3.307836e-12 -2.197119e-11))
0.0264        	((4.817599e-02 -5.449990e-06 1.613309e-06) (-1.850985e-03 -4.993147e-09 2.994459e-10)) ((9.564352e-12 2.129647e-10 8.343086e-11) (-3.413160e-13 6.978566e-12 -5.489711e-11))
0.04368       	((8.857786e-02 1.347577e-05 5.638506e-06) (-1.629246e-03 3.078303e-09 5.443543e-09)) ((-8.129051e-11 -2.958781e-10 -4.284041e-10) (-1.989869e-12 -4.775777e-11 -4.397103e-11))
0.064416      	((6.922133e-04 -2.436900e-06 -1.705999e-06) (-1.435833e-03 1.609627e-10 -8.502782e-10)) ((4.203852e-11 8.807249e-11 1.208536e-10) (-4.197761e-12 7.514372e-12 -8.628097e-11))
0.0892992     	((2.316609e-05 -1.947432e-06 -1.701655e-06) (-1.321544e-03 -1.644021e-08 -1.838685e-08)) ((-2.311635e-11 6.257392e-12 7.575737e-11) (4.485157e-12 7.913670e-11 -3.383863e-10))
0.119159      	((1.471702e-03 -6.064791e-07 -9.795374e-07) (-1.221723e-03 -1.917342e-08 -1.973675e-08)) ((2.780516e-12 3.584312e-11 2.882107e-11) (1.905049e-11 1.543005e-11 -3.736190e-10))
0.154991      	((4.141618e-04 -1.586514e-08 1.685550e-08) (-1.120755e-03 -1.110276e-08 -1.123281e-08)) ((7.789795e-12 9.267943e-12 2.084741e-11) (1.797886e-11 -8.025395e-11 -2.829820e-10))
0.197989      	((-9.806607e-06 -2.798574e-07 -2.299864e-07) (-1.024874e-03 -6.661956e-09 -6.108479e-09)) ((-3.000033e-12 -7.409109e-12 1.375790e-11) (5.907405e-12 -6.404146e-11 -3.095244e-10))
0.249587      	((-1.562525e-04 -1.951694e-07 -1.518254e-07) (-9.373329e-04 -9.103784e-09 -3.469445e-09)) ((4.939283e-12 -9.713610e-12 7.840961e-12) (-1.701676e-12 1.474725e-11 -2.780175e-10))
0.311504      	((-2.435746e-04 -1.197131e-07 -1.172569e-07) (-8.597460e-04 -1.070299e-08 -2.755398e-09)) ((4.391110e-12 -1.231736e-12 2.460926e-12) (-4.466115e-12 3.364061e-11 -2.305381e-10))
0.385805      	((-2.908323e-04 -1.172444e-07 -9.198509e-08) (-7.916064e-04 -1.003302e-08 -3.355119e-09)) ((5.867465e-12 -1.004978e-12 -6.610564e-13) (-6.011112e-12 4.019139e-11 -2.090439e-10))
0.474966      	((-3.137739e-04 -2.055643e-08 -3.963720e-08) (-7.311467e-04 -7.647148e-09 -3.711007e-09)) ((3.359160e-12 1.793121e-12 -2.983042e-13) (-2.945108e-12 4.175792e-11 -1.523722e-10))
0.581959      	((-3.224238e-04 7.156298e-09 4.047989e-09) (-6.753403e-04 -3.832678e-09 -3.000849e-09)) ((1.417700e-12 1.995685e-12 -1.375926e-12) (5.052660e-13 3.159477e-11 -1.256340e-10))
0.710351      	((-3.211216e-04 1.863581e-08 9.462774e-09) (-6.216996e-04 -2.010463e-09 -1.967231e-09)) ((1.461039e-13 1.623954e-12 -2.544149e-12) (3.967059e-12 -9.896457e-12 -8.705225e-11))
0.864421      	((-3.150915e-04 2.579370e-08 1.730705e-08) (-5.699997e-04 -1.655423e-09 -1.004733e-09)) ((-1.533184e-13 1.935960e-12 -2.092860e-12) (4.185844e-12 -4.795563e-11 -3.724325e-11))
1.049306      	((-3.082789e-04 2.646106e-08 2.151759e-08) (-5.211920e-04 -1.239665e-09 -1.956281e-10)) ((-7.523939e-13 1.469019e-12 -1.080086e-12) (3.865859e-12 -7.854924e-11 1.274367e-11))
1.271167      	((-3.042532e-04 1.192069e-08 6.538308e-09) (-4.760883e-04 -1.313367e-09 -2.869486e-10)) ((-1.240826e-12 1.971399e-12 -5.106325e-13) (4.613660e-12 -1.075426e-10 5.335466e-11))
1.5374        	((-3.052013e-04 9.800099e-10 -3.484818e-10) (-4.351325e-04 -9.068918e-10 -4.772767e-10)) ((-8.823214e-13 3.432280e-12 -5.678129e-13) (4.662043e-12 -1.572199e-10 9.145992e-11))
1.85688       	((-3.121695e-04 -2.257237e-08 -4.033957e-08) (-3.985956e-04 -1.303364e-09 -9.661383e-10)) ((-1.605759e-13 4.916464e-12 -1.328031e-13) (3.357608e-12 -2.062115e-10 1.461280e-10))
2.240256      	((-3.259531e-04 -5.437467e-08 -3.762229e-08) (-3.665636e-04 -3.118484e-09 -1.940955e-09)) ((6.098697e-14 6.352919e-12 -2.400806e-13) (2.032200e-12 -2.521202e-10 2.147918e-10))
2.700307      	((-3.485030e-04 -9.674907e-08 -9.991416e-08) (-3.390330e-04 -5.411120e-09 -4.105168e-09)) ((2.793300e-13 7.035610e-12 -5.286120e-13) (-1.416362e-13 -2.982828e-10 2.834265e-10))
3.252369      	((-3.803269e-04 -6.972942e-08 -7.979872e-08) (-3.158140e-04 -6.962390e-09 -5.964113e-09)) ((-1.728806e-13 6.159537e-12 -9.977608e-13) (-3.606937e-12 -2.978696e-10 3.258714e-10))
3.905843      	((-4.217993e-04 -4.853457e-08 -5.606072e-08) (-2.967328e-04 -7.775533e-09 -6.343518e-09)) ((-3.674321e-13 4.901332e-12 -8.634701e-13) (-6.653295e-12 -2.667265e-10 3.141592e-10))
4.660291      	((-4.721476e-04 -3.183548e-09 -5.082640e-09) (-2.813766e-04 -8.406782e-09 -6.162351e-09)) ((-5.877048e-14 3.702461e-12 -7.037339e-13) (-4.702245e-12 -2.494675e-10 3.136702e-10))
5.515125      	((-5.299033e-04 1.165512e-08 9.120029e-09) (-2.690828e-04 -8.659127e-09 -6.910912e-09)) ((1.072485e-12 2.966955e-12 -7.066440e-13) (1.279290e-12 -2.650413e-10 3.479884e-10))
6.469572      	((-5.937942e-04 5.216904e-08 4.539054e-08) (-2.593244e-04 -9.977202e-09 -8.574319e-09)) ((2.961691e-12 1.958608e-12 -1.631158e-12) (1.816286e-12 -3.244925e-10 4.041917e-10))
7.456202      	((-6.609203e-04 1.118847e-07 1.099168e-07) (-2.521362e-04 -1.159994e-08 -1.038100e-08)) ((5.264896e-12 1.601377e-12 -2.830966e-12) (8.932279e-12 -4.738092e-10 5.359768e-10))
8.432338      	((-7.225180e-04 1.894864e-07 1.910920e-07) (-2.469459e-04 -1.004807e-08 -1.033310e-08)) ((6.566030e-12 2.573800e-12 -2.514637e-12) (3.153695e-11 -6.455773e-10 6.180545e-10))
9.398727      	((-7.757387e-04 2.986452e-07 2.982533e-07) (-2.429326e-04 -3.180345e-09 -4.018366e-09)) ((1.024799e-11 1.759843e-12 -2.261843e-12) (5.841172e-12 -6.143940e-10 5.454776e-10))
10.358513     	((-8.184551e-04 4.378120e-07 4.400676e-07) (-2.395059e-04 9.120049e-09 8.488295e-09)) ((1.154112e-11 1.735115e-12 -1.784656e-12) (1.368608e-11 -3.489409e-10 3.106930e-10))
11.31624      	((-8.515784e-04 5.258748e-07 5.433320e-07) (-2.365745e-04 2.115353e-08 2.146350e-08)) ((1.289252e-11 -2.532809e-13 3.691076e-13) (2.758919e-11 -8.239770e-11 6.335107e-11))
12.275013     	((-8.698226e-04 6.731247e-07 6.886016e-07) (-2.340482e-04 3.148184e-08 3.210027e-08)) ((1.376766e-11 -2.189538e-12 1.034475e-12) (3.410607e-11 1.314189e-11 -4.609447e-11))
13.235513     	((-8.752272e-04 8.295366e-07 8.445981e-07) (-2.316735e-04 4.090392e-08 4.153851e-08)) ((1.398404e-11 -3.169807e-12 9.288182e-13) (3.756983e-11 -7.491501e-11 2.465442e-11))
14.197074     	((-8.714725e-04 8.944984e-07 9.246546e-07) (-2.293751e-04 4.849675e-08 4.939603e-08)) ((1.413060e-11 -4.574116e-12 8.596881e-13) (2.398047e-11 -2.416836e-10 1.647558e-10))
15.158956     	((-8.620542e-04 1.024609e-06 1.029758e-06) (-2.272757e-04 5.788926e-08 5.746884e-08)) ((1.101979e-11 -5.002175e-12 -5.727925e-13) (1.897394e-11 -4.221889e-10 2.612308e-10))
16.121206     	((-8.490398e-04 1.062671e-06 1.074548e-06) (-2.253249e-04 6.662037e-08 6.590608e-08)) ((8.330715e-12 -4.214492e-12 -9.261224e-13) (1.480648e-11 -5.919967e-10 3.336194e-10))
17.084561     	((-8.360558e-04 1.135577e-06 1.162784e-06) (-2.234213e-04 7.281103e-08 7.306969e-08)) ((1.024483e-11 -4.481509e-12 -2.539463e-12) (1.033430e-11 -7.307243e-10 4.981392e-10))
18.049403     	((-8.265538e-04 1.340926e-06 1.381428e-06) (-2.216195e-04 8.027038e-08 8.224728e-08)) ((1.089288e-11 -6.182181e-12 -4.430499e-12) (-1.952089e-12 -8.125335e-10 6.787710e-10))
19.015644     	((-8.210815e-04 1.419829e-06 1.464631e-06) (-2.200202e-04 8.944897e-08 9.336450e-08)) ((1.242448e-11 -6.068223e-12 -5.440498e-12) (1.765369e-11 -8.456296e-10 8.078368e-10))
19.983304     	((-8.166304e-04 1.489347e-06 1.539640e-06) (-2.185937e-04 9.649021e-08 1.016316e-07)) ((1.293160e-11 -6.540995e-12 -4.275761e-12) (4.683003e-11 -9.592306e-10 9.922675e-10))
20.952562     	((-8.102356e-04 1.692944e-06 1.739626e-06) (-2.172269e-04 1.032788e-07 1.098128e-07)) ((1.123171e-11 -7.853995e-12 -4.049834e-12) (4.164634e-11 -1.166496e-09 1.283068e-09))
21.923417     	((-8.043658e-04 1.839970e-06 1.892968e-06) (-2.158896e-04 1.103263e-07 1.179653e-07)) ((1.019930e-11 -8.942608e-12 -4.048291e-12) (2.272061e-11 -1.450434e-09 1.646041e-09))
22.895854     	((-7.999549e-04 2.027113e-06 2.107691e-06) (-2.146085e-04 1.180205e-07 1.277268e-07)) ((8.939839e-12 -9.864457e-12 -4.463120e-12) (-4.132627e-11 -1.823667e-09 2.021458e-09))
23.869767     	((-7.958955e-04 2.226733e-06 2.254035e-06) (-2.133820e-04 1.289999e-07 1.374764e-07)) ((7.134137e-12 -9.053014e-12 -4.856211e-12) (-8.609232e-11 -2.275215e-09 2.327655e-09))
24.845108     	((-7.922529e-04 2.443696e-06 2.518733e-06) (-2.122112e-04 1.412388e-07 1.486908e-07)) ((6.091203e-12 -1.008469e-11 -5.729900e-12) (-5.271452e-11 -2.690252e-09 2.689273e-09))
25.821734     	((-7.882300e-04 2.659214e-06 2.775051e-06) (-2.110872e-04 1.534769e-07 1.626831e-07)) ((4.837682e-12 -1.085762e-11 -6.056786e-12) (-3.029718e-11 -3.094835e-09 3.105786e-09))
26.798887     	((-7.845097e-04 2.913754e-06 2.994740e-06) (-2.100138e-04 1.666567e-07 1.768274e-07)) ((3.302467e-12 -1.097639e-11 -5.776686e-12) (-3.108552e-11 -3.492902e-09 3.551198e-09))
27.776264     	((-7.809760e-04 3.174269e-06 3.224943e-06) (-2.089998e-04 1.819975e-07 1.918387e-07)) ((1.345835e-12 -1.133982e-11 -5.559006e-12) (-2.437683e-11 -3.872565e-09 4.007871e-09))
28.753954     	((-7.776605e-04 3.414018e-06 3.494575e-06) (-2.080455e-04 1.981124e-07 2.083002e-07)) ((-1.001146e-12 -1.183037e-11 -5.126222e-12) (-2.623815e-11 -4.253157e-09 4.453067e-09))
29.732064     	((-7.746875e-04 3.769422e-06 3.870800e-06) (-2.071499e-04 2.149880e-07 2.282127e-07)) ((-4.611751e-12 -1.354836e-11 -5.106592e-12) (-4.670095e-11 -4.693183e-09 5.014221e-09))
30.710694     	((-7.717476e-04 4.071948e-06 4.168974e-06) (-2.063078e-04 2.335615e-07 2.477281e-07)) ((-8.551470e-12 -1.513571e-11 -5.008533e-12) (-6.390554e-11 -5.297370e-09 5.611994e-09))
31.689881     	((-7.690566e-04 4.348070e-06 4.493430e-06) (-2.055154e-04 2.544230e-07 2.659767e-07)) ((-1.250606e-11 -1.582338e-11 -5.553546e-12) (-5.771581e-11 -5.982785e-09 6.079864e-09))
32.669711     	((-7.665158e-04 4.708587e-06 4.897425e-06) (-2.047675e-04 2.768218e-07 2.893420e-07)) ((-1.479819e-11 -1.787479e-11 -5.966616e-12) (-3.496576e-11 -6.539398e-09 6.552530e-09))
33.650248     	((-7.630863e-04 5.208897e-06 5.416501e-06) (-2.040321e-04 3.027008e-07 3.190794e-07)) ((-1.650818e-11 -2.086851e-11 -6.461919e-12) (-1.578205e-11 -7.007641e-09 7.108881e-09))
34.631509     	((-7.603514e-04 5.559929e-06 5.824670e-06) (-2.033158e-04 3.292564e-07 3.497826e-07)) ((-1.713416e-11 -2.150765e-11 -7.139171e-12) (-4.434879e-12 -7.544136e-09 7.699416e-09))
35.613562     	((-7.576562e-04 6.086203e-06 6.380917e-06) (-2.026236e-04 3.587672e-07 3.834311e-07)) ((-1.685503e-11 -2.542545e-11 -7.177897e-12) (2.175751e-12 -8.125686e-09 8.291692e-09))
36.596409     	((-7.547821e-04 6.603449e-06 6.859727e-06) (-2.019389e-04 3.930006e-07 4.184934e-07)) ((-1.644998e-11 -2.789525e-11 -7.090997e-12) (3.951217e-12 -8.724675e-09 8.846489e-09))
37.580053     	((-7.526059e-04 7.217235e-06 7.500470e-06) (-2.012747e-04 4.313185e-07 4.562713e-07)) ((-1.696348e-11 -3.143897e-11 -7.132618e-12) (2.064405e-11 -9.367095e-09 9.412225e-09))
38.564508     	((-7.506221e-04 7.836353e-06 8.155582e-06) (-2.006433e-04 4.727356e-07 4.975263e-07)) ((-1.723138e-11 -3.404087e-11 -7.587017e-12) (4.510429e-11 -1.012170e-08 1.005624e-08))
39.549779     	((-7.485753e-04 8.492588e-06 8.871861e-06) (-2.000425e-04 5.164326e-07 5.422309e-07)) ((-1.707398e-11 -3.572041e-11 -8.192931e-12) (6.997126e-11 -1.098140e-08 1.075316e-08))
40.535881     	((-7.463215e-04 9.238023e-06 9.724381e-06) (-1.994646e-04 5.643221e-07 5.929630e-07)) ((-1.782476e-11 -3.830511e-11 -8.588639e-12) (7.853018e-11 -1.185952e-08 1.148008e-08))
41.522827     	((-7.442037e-04 1.008850e-05 1.062674e-05) (-1.989053e-04 6.189340e-07 6.505046e-07)) ((-1.871389e-11 -4.039547e-11 -9.029574e-12) (5.888609e-11 -1.269473e-08 1.221146e-08))
42.510615     	((-7.422221e-04 1.102284e-05 1.164723e-05) (-1.983613e-04 6.807284e-07 7.162745e-07)) ((-2.002201e-11 -4.464818e-11 -9.821440e-12) (3.003559e-11 -1.348014e-08 1.292329e-08))
43.499326     	((-7.402535e-04 1.202290e-05 1.271430e-05) (-1.978283e-04 7.480805e-07 7.890681e-07)) ((-2.149040e-11 -5.090390e-11 -1.015185e-11) (3.928279e-12 -1.428099e-08 1.367833e-08))
44.489016     	((-7.381660e-04 1.316811e-05 1.390502e-05) (-1.973055e-04 8.215597e-07 8.673440e-07)) ((-2.267623e-11 -5.930628e-11 -9.671777e-12) (-1.301749e-11 -1.522844e-08 1.454002e-08))
45.479651     	((-7.357487e-04 1.441594e-05 1.524902e-05) (-1.967919e-04 9.024741e-07 9.526690e-07)) ((-2.412287e-11 -6.871023e-11 -8.943838e-12) (-1.600516e-11 -1.630303e-08 1.550359e-08))
46.471187     	((-7.331911e-04 1.577992e-05 1.677953e-05) (-1.962864e-04 9.930234e-07 1.049786e-06)) ((-2.549828e-11 -7.821022e-11 -8.633170e-12) (-4.506793e-12 -1.739292e-08 1.647370e-08))
47.463574     	((-7.311700e-04 1.723881e-05 1.835413e-05) (-1.958017e-04 1.094597e-06 1.158941e-06)) ((-2.663641e-11 -8.523537e-11 -9.298266e-12) (1.513629e-11 -1.843683e-08 1.737689e-08))
48.456771     	((-7.295187e-04 1.876397e-05 1.999112e-05) (-1.953446e-04 1.205791e-06 1.277297e-06)) ((-2.730008e-11 -9.115009e-11 -9.697241e-12) (3.987635e-11 -1.951406e-08 1.827987e-08))
49.450736     	((-7.280206e-04 2.045490e-05 2.168677e-05) (-1.949116e-04 1.327145e-06 1.403069e-06)) ((-2.755593e-11 -9.748304e-11 -9.570518e-12) (6.519881e-11 -2.067755e-08 1.924952e-08))
50.445426     	((-7.266192e-04 2.213566e-05 2.341312e-05) (-1.945012e-04 1.456160e-06 1.534466e-06)) ((-2.796776e-11 -1.040152e-10 -9.225079e-12) (8.690042e-11 -2.192939e-08 2.029900e-08))
51.440807     	((-7.251520e-04 2.391964e-05 2.530773e-05) (-1.941089e-04 1.592598e-06 1.673966e-06)) ((-2.867329e-11 -1.124646e-10 -8.681120e-12) (1.124881e-10 -2.324030e-08 2.138710e-08))
52.436845     	((-7.236337e-04 2.585232e-05 2.736838e-05) (-1.937286e-04 1.739081e-06 1.826171e-06)) ((-2.793932e-11 -1.225040e-10 -8.582716e-12) (1.300953e-10 -2.453367e-08 2.251722e-08))
53.433509     	((-7.221580e-04 2.797018e-05 2.966421e-05) (-1.933585e-04 1.897275e-06 1.993741e-06)) ((-2.579069e-11 -1.339657e-10 -8.673170e-12) (1.406125e-10 -2.583479e-08 2.373617e-08))
54.43077      	((-7.207702e-04 3.031268e-05 3.212915e-05) (-1.929998e-04 2.069646e-06 2.176352e-06)) ((-2.264243e-11 -1.468525e-10 -8.625861e-12) (1.568347e-10 -2.721774e-08 2.507767e-08))
55.428591     	((-7.194484e-04 3.286446e-05 3.482952e-05) (-1.926522e-04 2.256994e-06 2.374490e-06)) ((-1.850220e-11 -1.609467e-10 -8.360149e-12) (1.700532e-10 -2.878475e-08 2.658482e-08))
56.426888     	((-7.182344e-04 3.563475e-05 3.773261e-05) (-1.923169e-04 2.459793e-06 2.588365e-06)) ((-1.334577e-11 -1.757596e-10 -8.452032e-12) (1.673110e-10 -3.057835e-08 2.827891e-08))
57.425576     	((-7.171344e-04 3.863470e-05 4.089251e-05) (-1.919957e-04 2.678724e-06 2.818718e-06)) ((-7.244524e-12 -1.912553e-10 -8.442736e-12) (1.429000e-10 -3.257619e-08 3.017979e-08))
58.424589     	((-7.161772e-04 4.193913e-05 4.433473e-05) (-1.916904e-04 2.916093e-06 3.067873e-06)) ((-3.543573e-13 -2.079535e-10 -8.324159e-12) (1.069272e-10 -3.475201e-08 3.230825e-08))
59.423858     	((-7.152658e-04 4.551046e-05 4.815840e-05) (-1.914004e-04 3.173183e-06 3.339897e-06)) ((7.302654e-12 -2.264847e-10 -8.166569e-12) (6.703448e-11 -3.711837e-08 3.470064e-08))
60.42332      	((-7.144038e-04 4.946103e-05 5.239244e-05) (-1.911236e-04 3.453476e-06 3.638375e-06)) ((1.537972e-11 -2.467336e-10 -8.307009e-12) (3.275561e-11 -3.974431e-08 3.734361e-08))
61.422901     	((-7.136495e-04 5.382309e-05 5.707833e-05) (-1.908609e-04 3.761570e-06 3.966694e-06)) ((2.360674e-11 -2.681663e-10 -9.214193e-12) (8.851504e-13 -4.269189e-08 4.024784e-08))
62.422523     	((-7.130024e-04 5.867309e-05 6.229622e-05) (-1.906141e-04 4.101173e-06 4.328977e-06)) ((3.230354e-11 -2.918786e-10 -1.038705e-11) (-2.293122e-11 -4.599188e-08 4.344517e-08))
63.422095     	((-7.125122e-04 6.403842e-05 6.807896e-05) (-1.903863e-04 4.477355e-06 4.730133e-06)) ((4.139859e-11 -3.182235e-10 -1.201601e-11) (-1.071507e-11 -4.964226e-08 4.687651e-08))
64.421518     	((-7.121182e-04 6.998222e-05 7.447644e-05) (-1.901789e-04 4.894989e-06 5.175550e-06)) ((5.045979e-11 -3.468546e-10 -1.393390e-11) (1.204489e-11 -5.359345e-08 5.054529e-08))
65.420683     	((-7.119214e-04 7.657188e-05 8.146889e-05) (-1.899929e-04 5.357336e-06 5.667171e-06)) ((6.026130e-11 -3.775143e-10 -1.577021e-11) (2.448017e-11 -5.793853e-08 5.458921e-08))
66.419474     	((-7.119218e-04 8.377994e-05 8.913239e-05) (-1.898281e-04 5.865563e-06 6.205132e-06)) ((7.148145e-11 -4.120565e-10 -1.709725e-11) (2.950904e-11 -6.297777e-08 5.916405e-08))
67.417769     	((-7.121441e-04 9.156330e-05 9.738806e-05) (-1.896872e-04 6.417749e-06 6.790770e-06)) ((8.481211e-11 -4.492301e-10 -1.806970e-11) (-4.059834e-12 -6.864320e-08 6.431682e-08))
68.41544      	((-7.125394e-04 1.000485e-04 1.063252e-04) (-1.895751e-04 7.019315e-06 7.428816e-06)) ((9.984951e-11 -4.896015e-10 -1.889945e-11) (-4.317018e-11 -7.466807e-08 6.990350e-08))
69.412357     	((-7.131456e-04 1.092076e-04 1.160345e-04) (-1.894964e-04 7.677744e-06 8.128045e-06)) ((1.171992e-10 -5.343284e-10 -1.991093e-11) (-4.597883e-11 -8.087519e-08 7.570205e-08))
70.408385     	((-7.139903e-04 1.190501e-04 1.265858e-04) (-1.894475e-04 8.395660e-06 8.895518e-06)) ((1.367922e-10 -5.831147e-10 -2.049842e-11) (-1.177703e-11 -8.731792e-08 8.174945e-08))
71.403384     	((-7.151616e-04 1.296967e-04 1.379081e-04) (-1.894225e-04 9.176283e-06 9.731891e-06)) ((1.597406e-10 -6.341463e-10 -2.022286e-11) (-1.364320e-11 -9.417381e-08 8.822570e-08))
72.397207     	((-7.167362e-04 1.411852e-04 1.502430e-04) (-1.894235e-04 1.002263e-05 1.064176e-05)) ((1.869431e-10 -6.908448e-10 -1.922693e-11) (-1.609138e-11 -1.014927e-07 9.527378e-08))
73.389693     	((-7.187992e-04 1.536489e-04 1.635883e-04) (-1.894537e-04 1.094228e-05 1.163157e-05)) ((2.197376e-10 -7.524090e-10 -1.775328e-11) (-4.704500e-11 -1.093169e-07 1.028078e-07))
74.380692     	((-7.216065e-04 1.670687e-04 1.779722e-04) (-1.895213e-04 1.194215e-05 1.270760e-05)) ((2.575907e-10 -8.188597e-10 -1.571872e-11) (-1.182317e-10 -1.176435e-07 1.107861e-07))
75.370066     	((-7.251387e-04 1.814781e-04 1.933739e-04) (-1.896337e-04 1.302493e-05 1.387314e-05)) ((3.023613e-10 -8.898149e-10 -1.370165e-11) (-1.732766e-10 -1.265565e-07 1.193249e-07))
76.357671     	((-7.293248e-04 1.969340e-04 2.099501e-04) (-1.897947e-04 1.419675e-05 1.513530e-05)) ((3.557599e-10 -9.658459e-10 -1.241775e-11) (-1.844404e-10 -1.360150e-07 1.282961e-07))
77.343358     	((-7.346616e-04 2.134750e-04 2.277038e-04) (-1.900213e-04 1.546497e-05 1.649918e-05)) ((4.194710e-10 -1.044688e-09 -1.254122e-11) (-1.295572e-10 -1.460359e-07 1.376600e-07))
78.32697      	((-7.411237e-04 2.311830e-04 2.467285e-04) (-1.903276e-04 1.683050e-05 1.796670e-05)) ((4.957624e-10 -1.126571e-09 -1.305527e-11) (-9.337981e-11 -1.568805e-07 1.477558e-07))
79.308545     	((-7.489327e-04 2.500964e-04 2.670085e-04) (-1.907384e-04 1.829632e-05 1.954067e-05)) ((5.801323e-10 -1.210256e-09 -1.356687e-11) (-1.265346e-10 -1.684308e-07 1.584268e-07))
80.288174     	((-7.583594e-04 2.704296e-04 2.888807e-04) (-1.912849e-04 1.988004e-05 2.124070e-05)) ((6.735383e-10 -1.296865e-09 -1.485401e-11) (-1.599714e-10 -1.802249e-07 1.691485e-07))
81.265707     	((-7.696690e-04 2.921011e-04 3.120405e-04) (-1.919747e-04 2.159088e-05 2.307964e-05)) ((7.788630e-10 -1.381391e-09 -1.400987e-11) (-1.532673e-10 -1.922689e-07 1.802141e-07))
82.241082     	((-7.832115e-04 3.147277e-04 3.362502e-04) (-1.928190e-04 2.342123e-05 2.504653e-05)) ((8.945607e-10 -1.457496e-09 -1.230698e-11) (-1.488992e-10 -2.051610e-07 1.920336e-07))
83.214256     	((-7.986146e-04 3.384151e-04 3.616376e-04) (-1.938277e-04 2.537118e-05 2.713245e-05)) ((1.016847e-09 -1.530438e-09 -9.492009e-12) (-2.003326e-10 -2.189054e-07 2.043283e-07))
84.185165     	((-8.159024e-04 3.630720e-04 3.879689e-04) (-1.950030e-04 2.743817e-05 2.934158e-05)) ((1.148433e-09 -1.599764e-09 -6.718799e-12) (-3.174279e-10 -2.328026e-07 2.169153e-07))
85.153813     	((-8.359324e-04 3.884546e-04 4.151003e-04) (-1.963804e-04 2.961580e-05 3.167656e-05)) ((1.289283e-09 -1.665588e-09 -1.382615e-12) (-4.288891e-10 -2.462142e-07 2.293476e-07))
86.12025      	((-8.587403e-04 4.142808e-04 4.425903e-04) (-1.979984e-04 3.189128e-05 3.412195e-05)) ((1.435728e-09 -1.722739e-09 1.043019e-11) (-4.199745e-10 -2.589411e-07 2.412835e-07))
87.084629     	((-8.839307e-04 4.399276e-04 4.697609e-04) (-1.998449e-04 3.424941e-05 3.664674e-05)) ((1.583547e-09 -1.759974e-09 2.746480e-11) (-2.705674e-10 -2.712152e-07 2.527224e-07))
88.047167     	((-9.113615e-04 4.649823e-04 4.962892e-04) (-2.019361e-04 3.665384e-05 3.920814e-05)) ((1.731443e-09 -1.777913e-09 5.052522e-11) (-9.751063e-11 -2.838341e-07 2.641519e-07))
89.008131     	((-9.406110e-04 4.883547e-04 5.210759e-04) (-2.042820e-04 3.905323e-05 4.176025e-05)) ((1.873903e-09 -1.774046e-09 8.242767e-11) (1.239461e-10 -2.962682e-07 2.755845e-07))
89.966916     	((-9.707060e-04 5.095269e-04 5.435200e-04) (-2.068652e-04 4.141064e-05 4.426880e-05)) ((2.001155e-09 -1.748734e-09 1.262848e-10) (3.804820e-10 -3.071444e-07 2.860365e-07))
