# Forces      
# CofR        : (0.000000e+00 0.000000e+00 0.000000e+00)
# Time        forces(pressure viscous)	moments(pressure viscous)
0             	((0.000000e+00 0.000000e+00 0.000000e+00) (2.490437e-12 -5.036594e-02 -3.190361e-12)) ((0.000000e+00 0.000000e+00 0.000000e+00) (1.567395e-13 -2.231643e-14 1.585602e-08))
0.0112126     	((3.714102e-03 -1.580457e+01 3.392215e-03) (1.246456e-05 -1.077185e-01 1.913683e-06)) ((-3.375789e-08 -1.063520e-09 3.369501e-06) (4.345227e-07 9.567487e-10 -5.357376e-07))
0.0246677     	((-7.018747e-04 7.290944e+00 -1.378608e-03) (2.992355e-05 -9.929098e-02 -4.153283e-06)) ((-8.710015e-08 8.898413e-11 -1.439351e-06) (2.348942e-07 -2.364507e-10 -6.422383e-07))
0.0408139     	((-8.073674e-04 -1.503269e+00 -8.690708e-04) (1.513896e-05 -8.101332e-02 -4.329081e-06)) ((1.155155e-07 6.860115e-09 1.809801e-07) (2.490713e-07 -6.310732e-10 -7.719805e-07))
0.0601893     	((-1.085228e-03 5.886834e-01 -1.261370e-04) (-1.940756e-05 -7.485093e-02 1.242725e-06)) ((-4.097345e-08 4.291907e-09 5.325973e-07) (3.336700e-07 2.506341e-09 -1.568656e-06))
0.0829009     	((-9.307835e-04 -4.227117e-01 -1.183139e-04) (-4.641500e-05 -7.090229e-02 -1.923447e-06)) ((2.544068e-08 2.336372e-09 3.978288e-07) (2.189408e-07 4.717735e-09 -2.051763e-06))
0.10893       	((-1.602379e-03 2.620422e-02 -1.457089e-04) (-6.292142e-05 -6.938210e-02 -4.484837e-06)) ((-1.413039e-08 2.065066e-09 5.009126e-07) (1.822077e-07 4.587953e-09 -2.183148e-06))
0.138256      	((-3.979166e-04 -1.908888e-01 7.378221e-05) (-5.755330e-05 -6.809704e-02 -1.454457e-06)) ((1.130637e-08 2.258166e-09 5.839738e-07) (5.030729e-08 5.842030e-09 -2.310260e-06))
0.170858      	((-7.287521e-04 -1.057556e-01 3.666747e-05) (-5.519704e-05 -6.731900e-02 -2.409253e-07)) ((-1.234460e-08 -5.439462e-09 7.241328e-07) (4.340282e-08 7.547329e-09 -2.613399e-06))
0.20365       	((-7.100315e-05 -1.702943e-01 6.568002e-05) (-5.070383e-05 -6.689471e-02 -2.221950e-08)) ((6.956439e-09 1.451996e-09 7.971484e-07) (-7.036776e-09 7.711558e-09 -2.777706e-06))
0.23637       	((9.238721e-05 -1.601581e-01 1.056962e-04) (-4.537654e-05 -6.666825e-02 6.996303e-07)) ((4.928958e-09 6.792606e-10 9.141348e-07) (-3.797072e-08 6.756421e-09 -3.038201e-06))
0.268875      	((6.601629e-04 -1.877481e-01 1.270512e-04) (-4.520692e-05 -6.649867e-02 5.761276e-07)) ((6.643734e-09 -1.771876e-09 9.554715e-07) (-2.855022e-08 6.267756e-09 -3.277572e-06))
0.301156      	((8.753008e-04 -1.944780e-01 1.446920e-04) (-4.566282e-05 -6.630752e-02 -2.004044e-07)) ((9.046161e-09 -3.638001e-10 1.044147e-06) (-3.323267e-08 4.542876e-09 -3.517887e-06))
0.333306      	((1.595766e-03 -2.079984e-01 1.954246e-04) (-4.538416e-05 -6.601251e-02 -1.019295e-07)) ((8.042506e-09 1.096233e-09 1.088808e-06) (-6.997280e-10 1.487265e-09 -3.962897e-06))
0.365429      	((2.034125e-03 -2.121688e-01 2.934985e-04) (-4.937218e-05 -6.563155e-02 1.198076e-06)) ((4.005890e-09 -1.947282e-09 1.156016e-06) (5.657356e-08 2.519952e-09 -4.328145e-06))
0.397561      	((2.775236e-03 -2.157950e-01 3.441363e-04) (-4.933636e-05 -6.522147e-02 8.937881e-07)) ((5.890650e-09 -1.199295e-09 1.225580e-06) (7.618741e-08 4.444029e-09 -4.561797e-06))
0.429785      	((3.746211e-03 -2.161301e-01 4.211799e-04) (-4.179232e-05 -6.482747e-02 1.521095e-06)) ((1.023608e-08 -2.827917e-09 1.306648e-06) (5.331295e-08 4.358052e-09 -4.770098e-06))
0.462105      	((4.817859e-03 -2.163053e-01 5.350181e-04) (-3.107531e-05 -6.447463e-02 3.169656e-06)) ((1.278067e-08 -3.614692e-09 1.363009e-06) (3.408865e-08 5.471861e-09 -5.023197e-06))
0.494429      	((5.890336e-03 -2.146843e-01 5.967995e-04) (-2.162534e-05 -6.415727e-02 3.237414e-06)) ((1.724135e-08 -3.573771e-09 1.410568e-06) (3.861834e-08 5.143478e-09 -5.252523e-06))
0.526757      	((7.048377e-03 -2.134412e-01 7.238343e-04) (-1.364523e-05 -6.386215e-02 3.600820e-06)) ((2.215155e-08 -3.599746e-09 1.450751e-06) (6.823304e-08 5.457366e-09 -5.474486e-06))
0.5591        	((8.281029e-03 -2.118137e-01 8.993474e-04) (-5.892714e-06 -6.359373e-02 4.843340e-06)) ((2.460750e-08 -2.251330e-09 1.492871e-06) (1.096326e-07 6.652492e-09 -5.698225e-06))
0.591465      	((9.703643e-03 -2.107997e-01 1.083669e-03) (2.684203e-06 -6.334134e-02 5.678292e-06)) ((2.539754e-08 -3.252047e-09 1.537134e-06) (1.602251e-07 7.668979e-09 -5.915614e-06))
0.623846      	((1.134272e-02 -2.099488e-01 1.288867e-03) (1.229663e-05 -6.310571e-02 6.069228e-06)) ((2.865225e-08 -3.104839e-09 1.577366e-06) (2.262159e-07 7.703417e-09 -6.191376e-06))
0.656239      	((1.310074e-02 -2.093511e-01 1.544326e-03) (2.165615e-05 -6.289121e-02 6.507834e-06)) ((3.343084e-08 -8.297263e-10 1.609642e-06) (3.114563e-07 6.938556e-09 -6.584755e-06))
0.68864       	((1.505724e-02 -2.089675e-01 1.820514e-03) (3.049678e-05 -6.269748e-02 6.811066e-06)) ((3.720046e-08 -7.138255e-10 1.636813e-06) (4.181373e-07 5.911809e-09 -7.098825e-06))
0.721052      	((1.715825e-02 -2.083662e-01 2.148172e-03) (3.887036e-05 -6.252610e-02 7.302373e-06)) ((4.303585e-08 -1.374078e-09 1.662912e-06) (5.487929e-07 5.541238e-09 -7.729507e-06))
0.753472      	((1.946701e-02 -2.077473e-01 2.538795e-03) (4.637321e-05 -6.237371e-02 7.690777e-06)) ((4.859920e-08 -3.622658e-09 1.687096e-06) (7.024465e-07 5.950423e-09 -8.521342e-06))
0.7859        	((2.215576e-02 -2.069016e-01 2.986790e-03) (5.345864e-05 -6.223561e-02 8.516461e-06)) ((5.518407e-08 -5.006767e-09 1.710904e-06) (8.703473e-07 7.497956e-09 -9.482811e-06))
0.818334      	((2.526599e-02 -2.060528e-01 3.505536e-03) (6.118520e-05 -6.210946e-02 9.830753e-06)) ((6.294460e-08 -5.770966e-09 1.737434e-06) (1.043499e-06 9.425746e-09 -1.059548e-05))
0.850773      	((2.880922e-02 -2.050637e-01 4.115286e-03) (7.022134e-05 -6.199281e-02 1.162988e-05)) ((6.993053e-08 -7.051048e-09 1.764243e-06) (1.223538e-06 9.918412e-09 -1.185523e-05))
0.883216      	((3.285446e-02 -2.040838e-01 4.791308e-03) (8.096762e-05 -6.188404e-02 1.396672e-05)) ((7.918502e-08 -7.836207e-09 1.791416e-06) (1.419776e-06 8.796908e-09 -1.325441e-05))
0.915662      	((3.742458e-02 -2.030877e-01 5.545102e-03) (9.393833e-05 -6.178339e-02 1.660169e-05)) ((8.997482e-08 -9.330696e-09 1.818293e-06) (1.647107e-06 7.569380e-09 -1.479384e-05))
0.94811       	((4.258233e-02 -2.021559e-01 6.436262e-03) (1.095508e-04 -6.169006e-02 1.988330e-05)) ((1.016097e-07 -1.099809e-08 1.843835e-06) (1.906884e-06 6.819629e-09 -1.648177e-05))
0.980559      	((4.830002e-02 -2.014330e-01 7.405774e-03) (1.279657e-04 -6.160333e-02 2.370665e-05)) ((1.129618e-07 -1.099652e-08 1.869864e-06) (2.190568e-06 6.694876e-09 -1.833365e-05))
1.013007      	((5.460469e-02 -2.009498e-01 8.498097e-03) (1.489507e-04 -6.152376e-02 2.820559e-05)) ((1.268253e-07 -1.220021e-08 1.896325e-06) (2.503552e-06 5.771763e-09 -2.038141e-05))
1.045453      	((6.159947e-02 -2.007269e-01 9.776983e-03) (1.724226e-04 -6.145093e-02 3.306366e-05)) ((1.435583e-07 -1.381241e-08 1.921486e-06) (2.849619e-06 1.154474e-09 -2.266638e-05))
1.077895      	((6.936394e-02 -2.007002e-01 1.119408e-02) (1.985575e-04 -6.138423e-02 3.868471e-05)) ((1.600880e-07 -1.735800e-08 1.942575e-06) (3.233326e-06 -6.143817e-09 -2.521617e-05))
1.110332      	((7.797969e-02 -2.009156e-01 1.277870e-02) (2.276281e-04 -6.132405e-02 4.520629e-05)) ((1.754481e-07 -2.210147e-08 1.961716e-06) (3.679976e-06 -1.091664e-08 -2.804990e-05))
1.142763      	((8.758710e-02 -2.013670e-01 1.454445e-02) (2.596982e-04 -6.127075e-02 5.174915e-05)) ((1.943319e-07 -2.738914e-08 1.980379e-06) (4.211518e-06 -1.433472e-08 -3.121376e-05))
1.175186      	((9.834731e-02 -2.021222e-01 1.656292e-02) (2.942756e-04 -6.122452e-02 5.828736e-05)) ((2.176266e-07 -3.672714e-08 1.998474e-06) (4.864321e-06 -1.199130e-08 -3.479221e-05))
1.207599      	((1.104870e-01 -2.031143e-01 1.887249e-02) (3.321210e-04 -6.118582e-02 6.532589e-05)) ((2.421206e-07 -4.865670e-08 2.015506e-06) (5.639650e-06 -3.758610e-09 -3.883597e-05))
1.24          	((1.241197e-01 -2.044385e-01 2.145507e-02) (3.747377e-04 -6.115513e-02 7.337400e-05)) ((2.657630e-07 -6.021905e-08 2.034181e-06) (6.518841e-06 1.724330e-09 -4.338525e-05))
1.272388      	((1.394236e-01 -2.060917e-01 2.429436e-02) (4.231630e-04 -6.113236e-02 8.235216e-05)) ((2.941985e-07 -7.355003e-08 2.052508e-06) (7.522124e-06 1.850488e-09 -4.848130e-05))
1.304761      	((1.565335e-01 -2.081788e-01 2.736183e-02) (4.791308e-04 -6.111865e-02 9.205120e-05)) ((3.293789e-07 -8.907574e-08 2.070498e-06) (8.647025e-06 3.056694e-09 -5.410255e-05))
1.337115      	((1.754442e-01 -2.109090e-01 3.081589e-02) (5.447842e-04 -6.111621e-02 1.028694e-04)) ((3.729539e-07 -1.121715e-07 2.083852e-06) (9.874991e-06 1.931103e-09 -6.020059e-05))
1.369449      	((1.962514e-01 -2.143260e-01 3.455970e-02) (6.220600e-04 -6.112827e-02 1.162555e-04)) ((4.204017e-07 -1.411137e-07 2.092531e-06) (1.115456e-05 8.079088e-10 -6.671268e-05))
1.401759      	((2.190477e-01 -2.185321e-01 3.865794e-02) (7.119269e-04 -6.115873e-02 1.322210e-04)) ((4.752525e-07 -1.769616e-07 2.101594e-06) (1.249128e-05 -4.601138e-09 -7.363313e-05))
1.434043      	((2.438814e-01 -2.235472e-01 4.307387e-02) (8.155340e-04 -6.121010e-02 1.509587e-04)) ((5.302608e-07 -2.193377e-07 2.116140e-06) (1.386817e-05 -2.170410e-08 -8.095665e-05))
1.466297      	((2.704786e-01 -2.295214e-01 4.790961e-02) (9.355289e-04 -6.128261e-02 1.740242e-04)) ((5.864684e-07 -2.686399e-07 2.134545e-06) (1.524266e-05 -4.462030e-08 -8.859015e-05))
1.498514      	((2.983910e-01 -2.370172e-01 5.297889e-02) (1.071519e-03 -6.137964e-02 2.013788e-04)) ((6.394483e-07 -3.249321e-07 2.154177e-06) (1.662321e-05 -6.354962e-08 -9.654078e-05))
1.53069       	((3.271414e-01 -2.462317e-01 5.828397e-02) (1.221096e-03 -6.150317e-02 2.328520e-04)) ((6.878076e-07 -3.949696e-07 2.179993e-06) (1.801131e-05 -7.070503e-08 -1.048672e-04))
1.562823      	((3.560415e-01 -2.570670e-01 6.358407e-02) (1.381882e-03 -6.165460e-02 2.681901e-04)) ((7.292409e-07 -4.668348e-07 2.222566e-06) (1.940274e-05 -7.204515e-08 -1.135988e-04))
1.594911      	((3.836156e-01 -2.691065e-01 6.883884e-02) (1.549869e-03 -6.183292e-02 3.054426e-04)) ((7.651208e-07 -5.291822e-07 2.266400e-06) (2.084314e-05 -1.207755e-07 -1.226583e-04))
1.626939      	((4.084370e-01 -2.824257e-01 7.355070e-02) (1.719724e-03 -6.203686e-02 3.413938e-04)) ((7.882116e-07 -5.755162e-07 2.307864e-06) (2.235913e-05 -2.484677e-07 -1.318306e-04))
1.658906      	((4.295924e-01 -2.969783e-01 7.741425e-02) (1.885175e-03 -6.226747e-02 3.732324e-04)) ((7.969665e-07 -6.138167e-07 2.357871e-06) (2.392853e-05 -3.989502e-07 -1.409645e-04))
1.690812      	((4.449463e-01 -3.117343e-01 8.027262e-02) (2.041355e-03 -6.251944e-02 4.023815e-04)) ((8.062980e-07 -6.536316e-07 2.411317e-06) (2.544965e-05 -5.302026e-07 -1.496787e-04))
1.722662      	((4.526361e-01 -3.249135e-01 8.185092e-02) (2.181640e-03 -6.278469e-02 4.282896e-04)) ((8.069643e-07 -6.731750e-07 2.469885e-06) (2.677197e-05 -6.993836e-07 -1.573411e-04))
1.754466      	((4.522438e-01 -3.357439e-01 8.192064e-02) (2.293167e-03 -6.304944e-02 4.469941e-04)) ((7.852302e-07 -6.470758e-07 2.548384e-06) (2.784842e-05 -9.259539e-07 -1.637340e-04))
1.786231      	((4.433882e-01 -3.428941e-01 8.022913e-02) (2.356458e-03 -6.330147e-02 4.595983e-04)) ((7.271264e-07 -5.818414e-07 2.638182e-06) (2.857324e-05 -1.048301e-06 -1.689964e-04))
1.817958      	((4.259951e-01 -3.461112e-01 7.674439e-02) (2.358712e-03 -6.353323e-02 4.657855e-04)) ((6.379685e-07 -4.961230e-07 2.677007e-06) (2.886502e-05 -9.737571e-07 -1.729601e-04))
1.849654      	((4.021041e-01 -3.449316e-01 7.189601e-02) (2.290741e-03 -6.373808e-02 4.628529e-04)) ((5.432910e-07 -4.078641e-07 2.605786e-06) (2.872711e-05 -7.464078e-07 -1.756416e-04))
1.88133       	((3.755452e-01 -3.401752e-01 6.588097e-02) (2.150755e-03 -6.390931e-02 4.481386e-04)) ((4.611718e-07 -3.270854e-07 2.481937e-06) (2.821230e-05 -4.570581e-07 -1.774834e-04))
1.913         	((3.482056e-01 -3.339959e-01 6.030076e-02) (1.953077e-03 -6.405166e-02 4.214591e-04)) ((4.150856e-07 -2.580259e-07 2.354155e-06) (2.744410e-05 -2.345300e-07 -1.784017e-04))
1.944673      	((3.253404e-01 -3.261643e-01 5.526289e-02) (1.727048e-03 -6.417690e-02 3.872788e-04)) ((3.831341e-07 -2.019611e-07 2.258405e-06) (2.655695e-05 -8.792788e-08 -1.781354e-04))
1.976359      	((3.093443e-01 -3.184078e-01 5.145887e-02) (1.505670e-03 -6.428994e-02 3.504326e-04)) ((3.719939e-07 -1.810499e-07 2.217204e-06) (2.565052e-05 4.246326e-08 -1.767910e-04))
2.008065      	((3.002946e-01 -3.108147e-01 4.935507e-02) (1.312655e-03 -6.439897e-02 3.141418e-04)) ((4.065708e-07 -2.159259e-07 2.248653e-06) (2.479480e-05 1.958971e-07 -1.745342e-04))
2.039792      	((2.979171e-01 -3.041232e-01 4.844453e-02) (1.168327e-03 -6.450752e-02 2.838695e-04)) ((4.571416e-07 -2.870418e-07 2.303956e-06) (2.397369e-05 3.526273e-07 -1.715242e-04))
2.071541      	((3.000567e-01 -2.969583e-01 4.832050e-02) (1.088465e-03 -6.460962e-02 2.641324e-04)) ((4.927338e-07 -3.628456e-07 2.323569e-06) (2.310670e-05 5.013357e-07 -1.677535e-04))
2.103309      	((3.040353e-01 -2.900384e-01 4.883661e-02) (1.076248e-03 -6.469610e-02 2.593649e-04)) ((5.123524e-07 -4.407617e-07 2.310647e-06) (2.208669e-05 7.619159e-07 -1.632025e-04))
2.135091      	((3.079371e-01 -2.830335e-01 4.920096e-02) (1.110150e-03 -6.475070e-02 2.680917e-04)) ((5.177509e-07 -4.973311e-07 2.267020e-06) (2.094742e-05 1.122931e-06 -1.587964e-04))
2.166883      	((3.093365e-01 -2.766614e-01 4.924473e-02) (1.147109e-03 -6.477110e-02 2.798854e-04)) ((5.448516e-07 -5.295527e-07 2.222834e-06) (1.991698e-05 1.498818e-06 -1.557424e-04))
2.198681      	((3.061099e-01 -2.723670e-01 4.873850e-02) (1.157706e-03 -6.477246e-02 2.875261e-04)) ((5.487044e-07 -5.168959e-07 2.220097e-06) (1.910240e-05 1.824166e-06 -1.541462e-04))
2.230482      	((2.983607e-01 -2.708012e-01 4.770432e-02) (1.136681e-03 -6.477049e-02 2.866166e-04)) ((4.846800e-07 -4.162477e-07 2.200557e-06) (1.860046e-05 1.977036e-06 -1.533242e-04))
2.262285      	((2.871858e-01 -2.708902e-01 4.633523e-02) (1.087925e-03 -6.476976e-02 2.736824e-04)) ((3.680747e-07 -2.364687e-07 2.121661e-06) (1.849776e-05 1.925416e-06 -1.527685e-04))
2.294089      	((2.736152e-01 -2.713084e-01 4.450520e-02) (1.021744e-03 -6.477042e-02 2.506204e-04)) ((2.740852e-07 -6.062057e-08 1.965593e-06) (1.870923e-05 1.768329e-06 -1.518669e-04))
2.325897      	((2.594761e-01 -2.709467e-01 4.262801e-02) (9.456797e-04 -6.477445e-02 2.214449e-04)) ((2.160415e-07 7.907486e-08 1.770106e-06) (1.907089e-05 1.610220e-06 -1.502534e-04))
2.357709      	((2.458909e-01 -2.709454e-01 4.081946e-02) (8.519736e-04 -6.477453e-02 1.935741e-04)) ((2.223276e-07 1.529597e-07 1.597090e-06) (1.935466e-05 1.617120e-06 -1.485834e-04))
2.389529      	((2.347188e-01 -2.717441e-01 3.942740e-02) (7.378259e-04 -6.476654e-02 1.700384e-04)) ((2.606836e-07 1.705475e-07 1.507137e-06) (1.947793e-05 1.794268e-06 -1.474814e-04))
2.42136       	((2.275863e-01 -2.723663e-01 3.873277e-02) (6.114862e-04 -6.475343e-02 1.514229e-04)) ((3.222426e-07 1.407626e-07 1.524776e-06) (1.947171e-05 2.106375e-06 -1.471253e-04))
2.453203      	((2.257451e-01 -2.720513e-01 3.849337e-02) (4.749266e-04 -6.473621e-02 1.333072e-04)) ((3.847255e-07 8.344217e-08 1.639622e-06) (1.957073e-05 2.351975e-06 -1.479497e-04))
2.485061      	((2.285071e-01 -2.700577e-01 3.910615e-02) (3.405687e-04 -6.470894e-02 1.159110e-04)) ((4.793259e-07 -2.766969e-09 1.779666e-06) (1.980827e-05 2.375935e-06 -1.500489e-04))
2.516932      	((2.351476e-01 -2.663257e-01 4.028426e-02) (2.375369e-04 -6.467267e-02 1.003325e-04)) ((5.539775e-07 -8.621938e-08 1.916702e-06) (2.019271e-05 2.078077e-06 -1.524258e-04))
2.548815      	((2.438431e-01 -2.626811e-01 4.198698e-02) (2.008249e-04 -6.463834e-02 8.775521e-05)) ((6.173022e-07 -1.656740e-07 2.022376e-06) (2.069223e-05 1.480994e-06 -1.533439e-04))
2.580708      	((2.534778e-01 -2.592233e-01 4.364757e-02) (2.371212e-04 -6.461230e-02 8.590722e-05)) ((6.622238e-07 -2.348802e-07 2.069526e-06) (2.097657e-05 9.237236e-07 -1.522521e-04))
2.612606      	((2.627379e-01 -2.577447e-01 4.525562e-02) (3.237645e-04 -6.459231e-02 9.871175e-05)) ((7.036459e-07 -2.884057e-07 2.085653e-06) (2.092514e-05 6.233336e-07 -1.500682e-04))
2.644507      	((2.700125e-01 -2.572208e-01 4.653145e-02) (4.282391e-04 -6.457559e-02 1.203754e-04)) ((7.200153e-07 -2.974373e-07 2.072115e-06) (2.062578e-05 5.551312e-07 -1.478967e-04))
2.676408      	((2.747981e-01 -2.592651e-01 4.774869e-02) (5.302510e-04 -6.456097e-02 1.445804e-04)) ((7.236520e-07 -2.677455e-07 2.061815e-06) (2.019944e-05 6.247652e-07 -1.462618e-04))
2.708305      	((2.782090e-01 -2.620818e-01 4.902628e-02) (6.162018e-04 -6.454817e-02 1.682405e-04)) ((7.065592e-07 -2.063263e-07 2.051508e-06) (1.984435e-05 7.293586e-07 -1.455088e-04))
2.740197      	((2.800923e-01 -2.653554e-01 4.983746e-02) (6.754824e-04 -6.453726e-02 1.859351e-04)) ((6.794192e-07 -1.259327e-07 2.047081e-06) (1.972062e-05 8.157596e-07 -1.458887e-04))
2.772081      	((2.793862e-01 -2.689084e-01 4.941269e-02) (7.013307e-04 -6.452875e-02 1.906754e-04)) ((6.454871e-07 -5.046266e-08 2.036142e-06) (1.985304e-05 8.402926e-07 -1.473641e-04))
2.803958      	((2.763196e-01 -2.717537e-01 4.848751e-02) (6.929225e-04 -6.452754e-02 1.873323e-04)) ((6.074760e-07 1.433668e-08 1.999856e-06) (2.009027e-05 8.581394e-07 -1.495195e-04))
2.835826      	((2.711677e-01 -2.730559e-01 4.699284e-02) (6.582565e-04 -6.453585e-02 1.827213e-04)) ((5.748158e-07 7.601898e-08 1.947876e-06) (2.017228e-05 1.014926e-06 -1.517128e-04))
2.867687      	((2.647253e-01 -2.733836e-01 4.496573e-02) (6.138944e-04 -6.455377e-02 1.754081e-04)) ((5.539010e-07 1.239022e-07 1.883019e-06) (1.996141e-05 1.269218e-06 -1.530909e-04))
