# Forces      
# CofR        : (0.000000e+00 0.000000e+00 0.000000e+00)
# Time        forces(pressure viscous)	moments(pressure viscous)
0             	((0.000000e+00 0.000000e+00 0.000000e+00) (-1.106622e-13 1.007261e-14 -1.599027e-03)) ((0.000000e+00 0.000000e+00 0.000000e+00) (-3.098248e-15 -6.177096e-10 -2.792324e-16))
0.012         	((-7.191399e-07 -6.636537e-07 -4.641004e-01) (6.899823e-10 -3.998199e-11 -1.829649e-03)) ((-1.209651e-10 -1.233952e-07 5.178561e-13) (1.271004e-11 -1.731513e-09 -1.507112e-13))
0.0264        	((-5.444696e-06 -5.178836e-06 4.816429e-02) (-4.629235e-09 -4.437030e-09 -1.850902e-03)) ((-3.327839e-10 1.112386e-08 2.674260e-11) (3.159384e-11 -2.476566e-09 3.977144e-12))
0.04368       	((9.663104e-06 6.095081e-06 8.847948e-02) (-1.322812e-09 -3.125512e-09 -1.629308e-03)) ((1.129306e-09 1.969179e-08 -1.359729e-11) (-1.399250e-11 -2.550153e-09 6.257413e-12))
0.064416      	((-3.128971e-06 -2.700813e-06 6.974227e-04) (-2.484280e-08 1.159994e-09 -1.436672e-03)) ((-3.134154e-10 -1.343387e-09 2.729880e-12) (-1.049236e-10 -3.084561e-09 -1.909978e-11))
0.0892992     	((-8.407140e-07 1.381039e-06 1.460270e-05) (-4.526413e-08 -2.078853e-09 -1.322648e-03)) ((-2.005503e-10 -2.747522e-10 1.820067e-12) (-2.526393e-10 -3.750171e-09 -5.748453e-11))
0.119159      	((-1.751571e-07 -5.132276e-07 1.469052e-03) (-2.654243e-08 -3.856263e-09 -1.222355e-03)) ((-3.081354e-11 -5.845014e-10 1.055540e-11) (-3.993875e-10 -3.317220e-09 -6.898920e-11))
0.154991      	((-1.463676e-07 -2.116280e-07 4.124041e-04) (-1.248253e-08 -5.249287e-09 -1.121064e-03)) ((2.650130e-11 -7.511386e-10 -4.994048e-12) (-4.370629e-10 -2.435787e-09 -5.389079e-11))
0.197989      	((4.476884e-08 -1.793201e-07 -9.875985e-06) (-1.600897e-08 -7.785271e-09 -1.024956e-03)) ((-1.635234e-12 -8.596647e-10 2.826261e-12) (-3.504683e-10 -2.177099e-09 -4.295742e-11))
0.249587      	((-1.805344e-07 -1.557039e-07 -1.568814e-04) (-1.173652e-08 -8.949368e-09 -9.372748e-04)) ((6.959209e-12 -9.625263e-10 -1.558040e-12) (-2.327020e-10 -2.485903e-09 -4.049807e-11))
0.311504      	((-1.512400e-07 -1.236537e-07 -2.442220e-04) (9.056698e-09 -9.096353e-09 -8.595575e-04)) ((6.180298e-12 -9.077066e-10 1.614140e-12) (-1.512947e-10 -3.027338e-09 -4.250464e-11))
0.385805      	((3.415203e-08 -8.523916e-08 -2.911962e-04) (2.828813e-08 -6.480034e-09 -7.912947e-04)) ((1.980977e-12 -8.781539e-10 -8.424488e-14) (-1.104210e-10 -3.774535e-09 -5.694126e-11))
0.474966      	((5.570853e-08 -3.426089e-09 -3.140728e-04) (3.824917e-08 -3.023706e-09 -7.307590e-04)) ((-2.074195e-12 -8.176390e-10 -2.978126e-13) (-9.517211e-11 -4.352427e-09 -6.360109e-11))
0.581959      	((6.792324e-08 9.082009e-09 -3.225421e-04) (3.529356e-08 -1.548587e-09 -6.749350e-04)) ((-8.329015e-13 -7.164647e-10 -2.112766e-14) (-1.056676e-10 -4.211027e-09 -6.252677e-11))
0.710351      	((-1.227482e-08 -3.374374e-09 -3.212361e-04) (2.225590e-08 -2.095337e-09 -6.213040e-04)) ((-4.389138e-13 -6.520177e-10 -1.249408e-12) (-1.226800e-10 -3.429138e-09 -5.805315e-11))
0.864421      	((-2.499963e-08 3.991918e-09 -3.151560e-04) (8.092253e-09 -2.535464e-09 -5.696389e-04)) ((-9.526416e-13 -5.973110e-10 -1.410710e-12) (-1.280741e-10 -2.983822e-09 -4.864514e-11))
1.049306      	((-5.304849e-08 -7.057020e-10 -3.082875e-04) (6.273425e-10 -1.966405e-09 -5.208615e-04)) ((-2.041841e-12 -5.584128e-10 -1.197751e-12) (-1.251115e-10 -3.304088e-09 -4.047596e-11))
1.271167      	((-6.185152e-08 2.190340e-09 -3.042102e-04) (1.676045e-09 -1.138829e-09 -4.757701e-04)) ((-3.792242e-12 -5.109178e-10 -9.751342e-13) (-1.254893e-10 -3.922814e-09 -3.430921e-11))
1.5374        	((-8.097504e-08 -3.989422e-08 -3.051313e-04) (9.332828e-09 -1.755287e-09 -4.348277e-04)) ((-3.929798e-12 -4.674502e-10 -9.454605e-13) (-1.384330e-10 -3.965312e-09 -2.564187e-11))
1.85688       	((-1.113429e-07 -4.489438e-08 -3.120258e-04) (1.720751e-08 -2.808358e-09 -3.982934e-04)) ((-3.212813e-12 -4.275601e-10 -1.202317e-12) (-1.657428e-10 -3.244130e-09 -1.424474e-11))
2.240256      	((-1.362267e-07 -9.469724e-08 -3.258048e-04) (1.311122e-08 -4.255623e-09 -3.662901e-04)) ((-2.657837e-12 -3.938169e-10 -1.034599e-12) (-2.133358e-10 -2.351040e-09 -2.212386e-12))
2.700307      	((-1.376274e-07 -1.175010e-07 -3.482591e-04) (-8.675858e-10 -6.776654e-09 -3.387937e-04)) ((-2.637053e-12 -3.725470e-10 -1.351124e-12) (-2.491893e-10 -1.579070e-09 9.953308e-12))
3.252369      	((-1.438594e-07 -9.299515e-08 -3.800139e-04) (-1.143441e-08 -8.604178e-09 -3.156040e-04)) ((-2.781589e-12 -3.460303e-10 -1.267255e-12) (-2.496475e-10 -1.000788e-09 1.907946e-11))
3.905086      	((-1.214145e-07 -7.755088e-08 -4.214203e-04) (-1.841633e-08 -9.797909e-09 -2.965749e-04)) ((-2.740187e-12 -3.202820e-10 -9.445958e-13) (-2.517812e-10 -1.160148e-09 2.428845e-11))
4.65813       	((-6.622866e-08 -3.058218e-08 -4.715644e-04) (-1.948317e-08 -1.019276e-08 -2.812933e-04)) ((-2.531560e-12 -2.984519e-10 -1.039670e-12) (-2.676477e-10 -2.082119e-09 2.654472e-11))
5.511017      	((-1.298869e-08 -5.403874e-09 -5.289905e-04) (-1.715396e-08 -1.064990e-08 -2.691519e-04)) ((-2.242609e-12 -2.746705e-10 -9.892537e-13) (-3.159479e-10 -2.989857e-09 2.838435e-11))
6.46305       	((-4.640058e-08 3.030952e-08 -5.924645e-04) (-2.200208e-08 -1.191465e-08 -2.596271e-04)) ((-4.230783e-12 -2.507124e-10 -1.059340e-12) (-3.974256e-10 -4.097461e-09 2.958079e-11))
7.44601       	((-2.755774e-08 9.509642e-08 -6.591931e-04) (-2.745626e-08 -1.345870e-08 -2.526510e-04)) ((-4.326718e-12 -2.448791e-10 -1.260070e-12) (-5.306239e-10 -6.105361e-09 3.041316e-11))
8.419469      	((3.915923e-08 1.852050e-07 -7.204660e-04) (-2.241359e-08 -1.202890e-08 -2.475828e-04)) ((-1.477821e-12 -2.454755e-10 -1.265539e-12) (-6.275966e-10 -8.095753e-09 2.259266e-11))
9.38366       	((1.652873e-07 2.964111e-07 -7.735743e-04) (-5.176047e-09 -4.360787e-09 -2.435643e-04)) ((1.607782e-12 -2.493981e-10 -1.228351e-12) (-5.374733e-10 -9.091610e-09 2.565540e-11))
10.341334     	((3.238863e-07 4.483712e-07 -8.161072e-04) (1.702950e-08 8.345408e-09 -2.400463e-04)) ((4.440451e-12 -2.491563e-10 -1.227432e-12) (-2.982680e-10 -9.168760e-09 3.091641e-11))
11.297003     	((3.887959e-07 5.575888e-07 -8.491340e-04) (3.293730e-08 2.169877e-08 -2.370183e-04)) ((4.491758e-12 -2.486254e-10 -1.273401e-12) (-2.358703e-11 -8.694029e-09 3.630073e-11))
12.254172     	((4.681029e-07 7.127328e-07 -8.671157e-04) (3.399925e-08 3.395341e-08 -2.343956e-04)) ((4.644251e-12 -2.428302e-10 -1.681604e-12) (1.292384e-10 -7.344482e-09 3.584690e-11))
13.213881     	((5.084838e-07 8.659541e-07 -8.722376e-04) (3.387195e-08 4.424321e-08 -2.319214e-04)) ((6.518445e-12 -2.413354e-10 -2.180124e-12) (8.222001e-11 -6.052594e-09 3.429250e-11))
14.175463     	((4.397893e-07 9.465430e-07 -8.685218e-04) (3.397877e-08 5.144804e-08 -2.295062e-04)) ((7.278399e-12 -2.398628e-10 -2.248112e-12) (-1.347304e-10 -5.376100e-09 3.300928e-11))
15.138055     	((4.401923e-07 1.101990e-06 -8.590659e-04) (2.916711e-08 5.996353e-08 -2.272703e-04)) ((9.697933e-12 -2.500865e-10 -1.762523e-12) (-3.621951e-10 -5.127525e-09 3.868533e-11))
16.101529     	((3.562590e-07 1.123741e-06 -8.463412e-04) (2.382241e-08 6.936046e-08 -2.251724e-04)) ((9.041240e-12 -2.565875e-10 -9.771659e-13) (-5.159544e-10 -4.974314e-09 3.477782e-11))
17.066253     	((3.874194e-07 1.221426e-06 -8.337304e-04) (2.597174e-08 7.699902e-08 -2.231444e-04)) ((1.049079e-11 -2.572057e-10 -9.495661e-13) (-7.011593e-10 -5.064870e-09 3.066052e-11))
18.03253      	((4.863970e-07 1.441020e-06 -8.247102e-04) (2.867868e-08 8.560573e-08 -2.212699e-04)) ((1.415099e-11 -2.621216e-10 -6.041944e-13) (-8.895128e-10 -4.962440e-09 2.871871e-11))
19.00029      	((5.858268e-07 1.537010e-06 -8.194086e-04) (3.390406e-08 9.583480e-08 -2.196264e-04)) ((1.365284e-11 -2.628625e-10 2.430376e-13) (-1.043474e-09 -4.690356e-09 2.634520e-11))
19.96947      	((7.567034e-07 1.608963e-06 -8.151709e-04) (4.059907e-08 1.038585e-07 -2.181633e-04)) ((1.345063e-11 -2.594451e-10 4.826873e-13) (-1.205452e-09 -4.330321e-09 2.991438e-11))
20.94046      	((9.270288e-07 1.794786e-06 -8.091977e-04) (4.652848e-08 1.115250e-07 -2.167614e-04)) ((1.496485e-11 -2.501292e-10 4.106320e-13) (-1.423089e-09 -3.800589e-09 3.086180e-11))
21.91356      	((1.224817e-06 1.976658e-06 -8.035123e-04) (5.566125e-08 1.200347e-07 -2.153862e-04)) ((1.521422e-11 -2.389132e-10 2.542409e-13) (-1.742654e-09 -3.014320e-09 3.129641e-11))
22.888072     	((1.529907e-06 2.184083e-06 -7.992612e-04) (6.661160e-08 1.293408e-07 -2.140719e-04)) ((1.556859e-11 -2.264074e-10 2.778196e-13) (-2.141715e-09 -1.972935e-09 4.512999e-11))
23.863964     	((1.829700e-06 2.379360e-06 -7.952615e-04) (7.920494e-08 1.403908e-07 -2.128169e-04)) ((1.524357e-11 -2.165058e-10 7.981662e-13) (-2.515806e-09 -9.105114e-10 5.195518e-11))
24.841435     	((2.164892e-06 2.621592e-06 -7.917543e-04) (9.407203e-08 1.536601e-07 -2.116298e-04)) ((1.560357e-11 -2.088167e-10 5.884858e-13) (-2.863808e-09 1.376227e-10 4.453377e-11))
25.820435     	((2.541347e-06 2.895647e-06 -7.878345e-04) (1.126771e-07 1.688276e-07 -2.104960e-04)) ((1.704558e-11 -2.042292e-10 6.926909e-13) (-3.274979e-09 1.187682e-09 3.537457e-11))
26.80084      	((2.840731e-06 3.138585e-06 -7.841722e-04) (1.333752e-07 1.842881e-07 -2.094091e-04)) ((1.739136e-11 -1.985248e-10 9.618267e-13) (-3.704132e-09 2.134370e-09 3.286091e-11))
27.782421     	((3.174890e-06 3.408044e-06 -7.806778e-04) (1.561099e-07 2.005219e-07 -2.083809e-04)) ((1.797045e-11 -1.938724e-10 1.034563e-12) (-4.138603e-09 2.924388e-09 3.050660e-11))
28.765079     	((3.544907e-06 3.713674e-06 -7.773881e-04) (1.824116e-07 2.186179e-07 -2.074126e-04)) ((1.935463e-11 -1.895287e-10 8.898450e-13) (-4.594274e-09 3.536219e-09 2.785387e-11))
29.748197     	((3.973757e-06 4.066037e-06 -7.744051e-04) (2.125857e-07 2.387280e-07 -2.065040e-04)) ((2.117379e-11 -1.865786e-10 9.534544e-13) (-5.119456e-09 4.049493e-09 2.708335e-11))
30.731425     	((4.398007e-06 4.402105e-06 -7.715292e-04) (2.442241e-07 2.588497e-07 -2.056523e-04)) ((2.317536e-11 -1.844295e-10 1.098992e-12) (-5.772726e-09 4.633431e-09 3.052931e-11))
31.714927     	((4.793468e-06 4.744231e-06 -7.687148e-04) (2.763786e-07 2.801789e-07 -2.048534e-04)) ((2.385003e-11 -1.816054e-10 1.248849e-12) (-6.409626e-09 5.202994e-09 3.319216e-11))
32.698827     	((5.227934e-06 5.124326e-06 -7.662126e-04) (3.123767e-07 3.051996e-07 -2.040996e-04)) ((2.643259e-11 -1.804785e-10 1.393243e-12) (-6.914007e-09 5.571895e-09 3.226958e-11))
33.683218     	((5.854145e-06 5.675286e-06 -7.627732e-04) (3.540118e-07 3.353491e-07 -2.033572e-04)) ((2.921433e-11 -1.805286e-10 1.491424e-12) (-7.403807e-09 5.868713e-09 2.905444e-11))
34.668161     	((6.329304e-06 6.113919e-06 -7.600363e-04) (3.960917e-07 3.669386e-07 -2.026323e-04)) ((2.964310e-11 -1.780721e-10 1.804131e-12) (-7.981005e-09 6.212983e-09 2.918105e-11))
35.653713     	((6.905354e-06 6.669802e-06 -7.573884e-04) (4.384580e-07 4.003546e-07 -2.019337e-04)) ((3.137165e-11 -1.771866e-10 1.776328e-12) (-8.648854e-09 6.622682e-09 2.667488e-11))
36.639934     	((7.481290e-06 7.217884e-06 -7.545925e-04) (4.828229e-07 4.367085e-07 -2.012448e-04)) ((3.236412e-11 -1.752326e-10 1.687119e-12) (-9.329971e-09 7.050003e-09 2.372860e-11))
37.626859     	((8.230749e-06 7.899685e-06 -7.524737e-04) (5.318089e-07 4.780062e-07 -2.005780e-04)) ((3.470985e-11 -1.751799e-10 1.517216e-12) (-1.001361e-08 7.502166e-09 2.336324e-11))
38.614524     	((8.971174e-06 8.588979e-06 -7.505406e-04) (5.834036e-07 5.232544e-07 -1.999433e-04)) ((3.730968e-11 -1.752955e-10 1.382403e-12) (-1.078735e-08 8.111935e-09 2.621201e-11))
39.602964     	((9.843948e-06 9.321318e-06 -7.484707e-04) (6.378413e-07 5.708552e-07 -1.993379e-04)) ((3.950870e-11 -1.759430e-10 1.136705e-12) (-1.164969e-08 8.885610e-09 2.576740e-11))
40.592208     	((1.094807e-05 1.021722e-05 -7.462257e-04) (7.006448e-07 6.243966e-07 -1.987545e-04)) ((4.509346e-11 -1.805943e-10 8.160788e-13) (-1.255359e-08 9.785542e-09 2.574576e-11))
41.582262     	((1.216146e-05 1.115547e-05 -7.441245e-04) (7.739591e-07 6.849944e-07 -1.981875e-04)) ((5.057805e-11 -1.856791e-10 4.743562e-13) (-1.343831e-08 1.074011e-08 2.983909e-11))
42.573114     	((1.352480e-05 1.221915e-05 -7.421496e-04) (8.580466e-07 7.543288e-07 -1.976345e-04)) ((5.655671e-11 -1.916894e-10 1.471681e-13) (-1.425064e-08 1.174704e-08 3.939685e-11))
43.564755     	((1.500462e-05 1.336528e-05 -7.401630e-04) (9.515734e-07 8.318433e-07 -1.970923e-04)) ((6.282214e-11 -1.980480e-10 -1.810075e-13) (-1.504998e-08 1.288612e-08 4.885380e-11))
44.55719      	((1.666928e-05 1.464628e-05 -7.380637e-04) (1.053920e-06 9.162846e-07 -1.965606e-04)) ((7.031306e-11 -2.050354e-10 -5.288865e-13) (-1.596157e-08 1.425112e-08 5.316474e-11))
45.550426     	((1.843505e-05 1.601590e-05 -7.357112e-04) (1.164796e-06 1.006740e-06 -1.960389e-04)) ((7.820145e-11 -2.117280e-10 -9.470454e-13) (-1.705347e-08 1.586269e-08 5.576338e-11))
46.54451      	((2.041046e-05 1.758801e-05 -7.332551e-04) (1.287568e-06 1.106609e-06 -1.955268e-04)) ((8.696782e-11 -2.180168e-10 -1.296140e-12) (-1.824955e-08 1.761517e-08 6.048034e-11))
47.539518     	((2.254945e-05 1.923204e-05 -7.313380e-04) (1.425083e-06 1.218317e-06 -1.950373e-04)) ((9.523801e-11 -2.241130e-10 -1.420627e-12) (-1.943606e-08 1.940983e-08 6.857178e-11))
48.535472     	((2.477452e-05 2.095818e-05 -7.297580e-04) (1.575915e-06 1.340629e-06 -1.945768e-04)) ((1.033756e-10 -2.321130e-10 -1.412730e-12) (-2.063079e-08 2.127005e-08 7.349250e-11))
49.532367     	((2.718355e-05 2.279440e-05 -7.282811e-04) (1.740146e-06 1.472485e-06 -1.941413e-04)) ((1.131703e-10 -2.410109e-10 -1.360695e-12) (-2.191725e-08 2.322714e-08 7.691625e-11))
50.530205     	((2.958986e-05 2.468179e-05 -7.269449e-04) (1.913823e-06 1.612422e-06 -1.937286e-04)) ((1.218352e-10 -2.486790e-10 -1.374115e-12) (-2.329839e-08 2.533551e-08 7.840975e-11))
51.528972     	((3.222301e-05 2.671373e-05 -7.255469e-04) (2.099133e-06 1.761619e-06 -1.933338e-04)) ((1.317165e-10 -2.564862e-10 -1.679690e-12) (-2.477287e-08 2.757143e-08 8.046348e-11))
52.528653     	((3.505277e-05 2.891739e-05 -7.240749e-04) (2.299991e-06 1.922850e-06 -1.929514e-04)) ((1.432575e-10 -2.659992e-10 -2.420862e-12) (-2.631467e-08 2.989443e-08 9.106351e-11))
53.529247     	((3.808309e-05 3.132297e-05 -7.226599e-04) (2.517186e-06 2.098395e-06 -1.925802e-04)) ((1.570869e-10 -2.774149e-10 -3.296274e-12) (-2.791003e-08 3.229711e-08 1.000335e-10))
54.530727     	((4.138087e-05 3.398974e-05 -7.213002e-04) (2.753116e-06 2.290676e-06 -1.922196e-04)) ((1.732105e-10 -2.913582e-10 -4.057849e-12) (-2.959948e-08 3.481425e-08 9.861043e-11))
55.53301      	((4.489294e-05 3.688077e-05 -7.201248e-04) (3.008811e-06 2.500648e-06 -1.918730e-04)) ((1.903633e-10 -3.069195e-10 -5.160425e-12) (-3.142438e-08 3.745030e-08 8.939437e-11))
56.536023     	((4.867310e-05 4.000640e-05 -7.190465e-04) (3.284654e-06 2.727921e-06 -1.915420e-04)) ((2.083169e-10 -3.242819e-10 -6.092153e-12) (-3.341936e-08 4.020109e-08 8.510713e-11))
57.539705     	((5.272564e-05 4.344765e-05 -7.181107e-04) (3.582663e-06 2.974703e-06 -1.912285e-04)) ((2.278491e-10 -3.428081e-10 -6.756050e-12) (-3.559123e-08 4.302768e-08 8.439790e-11))
58.543998     	((5.715234e-05 4.721196e-05 -7.172335e-04) (3.906692e-06 3.244179e-06 -1.909326e-04)) ((2.488958e-10 -3.641048e-10 -7.907305e-12) (-3.794049e-08 4.589733e-08 8.106873e-11))
59.548692     	((6.199668e-05 5.133167e-05 -7.163865e-04) (4.260759e-06 3.538104e-06 -1.906525e-04)) ((2.717372e-10 -3.885285e-10 -9.546646e-12) (-4.052557e-08 4.884092e-08 7.501442e-11))
60.553475     	((6.730549e-05 5.590179e-05 -7.156556e-04) (4.647339e-06 3.859638e-06 -1.903892e-04)) ((2.973894e-10 -4.160236e-10 -1.136621e-11) (-4.339468e-08 5.193911e-08 6.945650e-11))
61.558258     	((7.317861e-05 6.100391e-05 -7.150898e-04) (5.071198e-06 4.212991e-06 -1.901459e-04)) ((3.263929e-10 -4.474839e-10 -1.310951e-11) (-4.660431e-08 5.524793e-08 7.614752e-11))
62.562942     	((7.971480e-05 6.661624e-05 -7.146345e-04) (5.538617e-06 4.604162e-06 -1.899265e-04)) ((3.588654e-10 -4.840443e-10 -1.468858e-11) (-5.004086e-08 5.875656e-08 6.998702e-11))
63.567424     	((8.696502e-05 7.284287e-05 -7.143432e-04) (6.056344e-06 5.040279e-06 -1.897341e-04)) ((3.954205e-10 -5.255818e-10 -1.608354e-11) (-5.357287e-08 6.244826e-08 1.168117e-11))
64.571591     	((9.495228e-05 7.973273e-05 -7.142899e-04) (6.628180e-06 5.523775e-06 -1.895682e-04)) ((4.356820e-10 -5.709210e-10 -1.733639e-11) (-5.738531e-08 6.647075e-08 -4.898476e-11))
65.575317     	((1.037054e-04 8.721574e-05 -7.144959e-04) (7.255814e-06 6.053062e-06 -1.894290e-04)) ((4.781280e-10 -6.207271e-10 -1.909971e-11) (-6.172198e-08 7.107919e-08 -5.327887e-11))
66.578464     	((1.132268e-04 9.535937e-05 -7.149217e-04) (7.941535e-06 6.631121e-06 -1.893226e-04)) ((5.243886e-10 -6.754809e-10 -2.075076e-11) (-6.647888e-08 7.612881e-08 -5.492488e-11))
67.580884     	((1.236360e-04 1.042012e-04 -7.155624e-04) (8.692789e-06 7.264789e-06 -1.892556e-04)) ((5.759122e-10 -7.363049e-10 -2.326676e-11) (-7.138872e-08 8.140999e-08 -3.171643e-11))
68.582422     	((1.350877e-04 1.137164e-04 -7.164794e-04) (9.521381e-06 7.957857e-06 -1.892253e-04)) ((6.299874e-10 -8.027404e-10 -2.568865e-11) (-7.635829e-08 8.697345e-08 1.875984e-11))
69.582922     	((1.475803e-04 1.240092e-04 -7.177419e-04) (1.043481e-05 8.714717e-06 -1.892252e-04)) ((6.866654e-10 -8.730077e-10 -2.944627e-11) (-8.161512e-08 9.298122e-08 9.524618e-11))
70.582215     	((1.611851e-04 1.351455e-04 -7.195026e-04) (1.143885e-05 9.538565e-06 -1.892596e-04)) ((7.464221e-10 -9.474920e-10 -3.350202e-11) (-8.737499e-08 9.944165e-08 1.603466e-10))
71.580134     	((1.760232e-04 1.472618e-04 -7.217614e-04) (1.253278e-05 1.043336e-05 -1.893311e-04)) ((8.091389e-10 -1.024653e-09 -3.817289e-11) (-9.376874e-08 1.067882e-07 1.656078e-10))
72.576516     	((1.920479e-04 1.603027e-04 -7.247091e-04) (1.371918e-05 1.140674e-05 -1.894427e-04)) ((8.741045e-10 -1.100498e-09 -4.332524e-11) (-1.007106e-07 1.151638e-07 6.855508e-11))
73.571193     	((2.091484e-04 1.741884e-04 -7.285725e-04) (1.500066e-05 1.246078e-05 -1.896028e-04)) ((9.388825e-10 -1.176962e-09 -4.834468e-11) (-1.083173e-07 1.246309e-07 -9.305611e-11))
74.564002     	((2.276424e-04 1.891933e-04 -7.332257e-04) (1.638450e-05 1.360141e-05 -1.898224e-04)) ((1.007278e-09 -1.258785e-09 -5.391560e-11) (-1.165379e-07 1.351614e-07 -2.190053e-10))
75.55485      	((2.472898e-04 2.051704e-04 -7.390321e-04) (1.787659e-05 1.483279e-05 -1.901162e-04)) ((1.078621e-09 -1.342989e-09 -5.964846e-11) (-1.253641e-07 1.467528e-07 -2.576175e-10))
76.543653     	((2.682968e-04 2.222951e-04 -7.459641e-04) (1.947758e-05 1.615468e-05 -1.904988e-04)) ((1.149733e-09 -1.426461e-09 -6.543760e-11) (-1.351208e-07 1.594803e-07 -2.934014e-10))
77.530471     	((2.907448e-04 2.406102e-04 -7.543677e-04) (2.119926e-05 1.757171e-05 -1.909969e-04)) ((1.212413e-09 -1.501033e-09 -7.051838e-11) (-1.457747e-07 1.729433e-07 -2.529773e-10))
78.515256     	((3.145829e-04 2.601238e-04 -7.645393e-04) (2.305979e-05 1.909864e-05 -1.916358e-04)) ((1.267168e-09 -1.568020e-09 -7.741426e-11) (-1.568958e-07 1.866673e-07 -2.226302e-10))
79.497863     	((3.396661e-04 2.808230e-04 -7.764000e-04) (2.506266e-05 2.074490e-05 -1.924093e-04)) ((1.321582e-09 -1.634340e-09 -8.594403e-11) (-1.684131e-07 2.008815e-07 -2.839186e-10))
80.478263     	((3.658127e-04 3.024352e-04 -7.904248e-04) (2.719909e-05 2.250725e-05 -1.933238e-04)) ((1.369033e-09 -1.693312e-09 -9.351421e-11) (-1.804387e-07 2.158280e-07 -4.334791e-10))
81.456412     	((3.929421e-04 3.250717e-04 -8.064479e-04) (2.946265e-05 2.438283e-05 -1.943958e-04)) ((1.403220e-09 -1.737637e-09 -1.002814e-10) (-1.928810e-07 2.311195e-07 -6.880215e-10))
82.432241     	((4.209874e-04 3.483926e-04 -8.244437e-04) (3.184837e-05 2.636497e-05 -1.956375e-04)) ((1.418122e-09 -1.763839e-09 -1.054047e-10) (-2.054940e-07 2.465103e-07 -9.617017e-10))
83.40581      	((4.496298e-04 3.723316e-04 -8.451773e-04) (3.435636e-05 2.845085e-05 -1.970829e-04)) ((1.412069e-09 -1.763881e-09 -1.090178e-10) (-2.175688e-07 2.610197e-07 -1.363271e-09))
84.377309     	((4.782188e-04 3.965884e-04 -8.686477e-04) (3.696658e-05 3.062909e-05 -1.987659e-04)) ((1.382456e-09 -1.733880e-09 -1.133325e-10) (-2.288343e-07 2.741784e-07 -1.867233e-09))
85.346929     	((5.066688e-04 4.207667e-04 -8.944688e-04) (3.964381e-05 3.287826e-05 -2.006837e-04)) ((1.322915e-09 -1.670113e-09 -1.168535e-10) (-2.396940e-07 2.870626e-07 -2.319938e-09))
86.314888     	((5.338913e-04 4.440044e-04 -9.225791e-04) (4.233584e-05 3.515453e-05 -2.028451e-04)) ((1.229587e-09 -1.569968e-09 -1.198044e-10) (-2.509388e-07 3.005393e-07 -2.678569e-09))
87.280675     	((5.592993e-04 4.656380e-04 -9.522795e-04) (4.500739e-05 3.741957e-05 -2.052595e-04)) ((1.103335e-09 -1.437341e-09 -1.178759e-10) (-2.619201e-07 3.134081e-07 -2.945506e-09))
88.243488     	((5.815565e-04 4.845689e-04 -9.826913e-04) (4.761921e-05 3.962785e-05 -2.079019e-04)) ((9.421474e-10 -1.264611e-09 -1.114070e-10) (-2.714153e-07 3.239900e-07 -3.124875e-09))
89.203072     	((5.997137e-04 5.000209e-04 -1.012971e-03) (5.012668e-05 4.174059e-05 -2.107263e-04)) ((7.497838e-10 -1.056870e-09 -1.018965e-10) (-2.776836e-07 3.304549e-07 -3.304284e-09))
90.159443     	((6.119596e-04 5.105915e-04 -1.041971e-03) (5.244834e-05 4.370519e-05 -2.136741e-04)) ((5.232584e-10 -8.137097e-10 -8.779882e-11) (-2.794057e-07 3.319432e-07 -3.507041e-09))
