# Forces      
# CofR        : (0.000000e+00 0.000000e+00 0.000000e+00)
# Time        forces(pressure viscous)	moments(pressure viscous)
0             	((0.000000e+00 0.000000e+00 0.000000e+00) (2.931240e-14 -6.346806e-04 -4.079059e-14)) ((0.000000e+00 0.000000e+00 0.000000e+00) (2.170749e-15 -2.902319e-16 2.319775e-10))
0.012         	((-1.640052e-07 -1.846064e-01 -1.248038e-07) (3.888982e-10 -7.272197e-04 3.430250e-10)) ((-6.235670e-11 -1.154505e-12 3.471755e-08) (-5.057799e-12 -1.007809e-13 4.436569e-10))
0.0264        	((-3.748260e-06 1.532033e-02 -2.880773e-06) (-1.518495e-09 -7.392859e-04 -1.922855e-09)) ((6.077490e-11 -4.726841e-12 -1.945678e-09) (-8.963873e-13 1.955022e-12 5.349516e-10))
0.04368       	((2.483934e-06 3.726870e-02 3.964503e-06) (1.028912e-09 -6.544410e-04 -6.546186e-10)) ((1.196813e-10 -9.841649e-12 -9.898867e-09) (1.652648e-11 2.947641e-12 3.767270e-10))
0.064416      	((1.234842e-07 3.404417e-04 -5.261070e-07) (8.325533e-09 -5.785016e-04 1.205292e-10)) ((-6.334299e-11 3.306181e-12 1.027122e-09) (-3.516124e-11 5.023503e-12 2.472250e-10))
0.0892992     	((6.645081e-07 -2.604035e-04 -7.103310e-07) (1.175679e-08 -5.333626e-04 -5.936323e-09)) ((1.905153e-12 1.424253e-11 5.240373e-10) (-6.627072e-11 1.335112e-11 -3.581502e-10))
0.119159      	((-2.559248e-07 6.404548e-04 -3.020317e-07) (1.348290e-08 -4.924055e-04 -8.578741e-09)) ((-2.902174e-11 2.152811e-12 -5.351789e-10) (-4.826210e-12 8.178454e-12 -7.929922e-10))
0.154991      	((-3.787204e-07 2.855409e-04 -1.161132e-07) (1.654643e-08 -4.498539e-04 -6.621027e-09)) ((-2.981900e-11 -3.541372e-12 -3.190819e-10) (6.181369e-11 1.368595e-12 -8.248646e-10))
0.197989      	((-2.186970e-09 5.576073e-05 -2.818045e-08) (1.361670e-08 -4.081516e-04 -5.861804e-09)) ((-1.438129e-11 1.925101e-12 -8.349236e-11) (8.380053e-11 2.137593e-12 -9.030722e-10))
0.249587      	((-5.301790e-08 -2.324612e-05 -2.595183e-08) (-1.780444e-10 -3.686237e-04 -5.145640e-09)) ((-4.675649e-12 6.886777e-13 -3.725243e-11) (7.825755e-11 2.190337e-12 -1.150612e-09))
0.311504      	((-1.198149e-07 -6.282072e-05 -3.609246e-08) (-1.558765e-08 -3.323052e-04 -3.585612e-09)) ((-4.878957e-12 4.860389e-13 -1.927167e-11) (6.456055e-11 3.330405e-12 -1.214327e-09))
0.385805      	((-1.193225e-07 -8.450622e-05 -3.345215e-08) (-2.088632e-08 -2.998682e-04 -2.593273e-09)) ((-2.503774e-12 5.208026e-13 -7.939002e-12) (4.850330e-11 4.013300e-12 -1.025004e-09))
0.474966      	((-7.443367e-08 -9.514289e-05 -2.825287e-08) (-1.967870e-08 -2.714827e-04 -2.201012e-09)) ((-1.956101e-12 5.841918e-13 -4.222844e-13) (3.569625e-11 3.518019e-12 -8.143773e-10))
0.581959      	((-4.495107e-08 -9.927361e-05 -1.978223e-08) (-1.859434e-08 -2.465663e-04 -1.662375e-09)) ((-1.344200e-12 6.113653e-13 5.541280e-12) (1.542891e-11 2.825839e-12 -7.181707e-10))
0.710351      	((-1.944429e-08 -9.913612e-05 -1.247076e-08) (-1.443024e-08 -2.239749e-04 -1.041184e-09)) ((-9.526588e-13 8.029883e-13 8.855995e-12) (5.642989e-12 2.813771e-12 -7.760679e-10))
0.864421      	((1.003068e-08 -9.588882e-05 -6.988971e-09) (-8.204872e-09 -2.029304e-04 -8.687442e-10)) ((-7.762639e-13 4.302485e-13 5.519524e-12) (5.333634e-12 2.341039e-12 -8.978096e-10))
1.049306      	((5.070096e-09 -9.085362e-05 -2.338943e-09) (-3.373916e-09 -1.834125e-04 -7.889841e-10)) ((-4.097006e-13 1.588907e-13 2.539439e-12) (8.228833e-12 2.599032e-12 -1.046487e-09))
1.271167      	((3.281158e-09 -8.499091e-05 2.062563e-09) (-1.261647e-09 -1.655961e-04 -5.792834e-10)) ((-5.400058e-14 -6.914202e-14 1.609268e-12) (1.904141e-11 3.176000e-12 -1.169830e-09))
1.5374        	((7.071597e-09 -7.919373e-05 3.545450e-09) (-6.032750e-10 -1.495541e-04 -3.180914e-10)) ((8.266717e-14 -8.427435e-14 8.163793e-12) (3.754912e-11 3.402430e-12 -1.213263e-09))
1.85688       	((1.418321e-08 -7.405999e-05 1.076917e-09) (5.070510e-10 -1.352846e-04 -1.776998e-10)) ((-6.272132e-14 -8.125333e-14 1.301305e-11) (5.360617e-11 3.427416e-12 -1.148202e-09))
2.240256      	((7.924458e-09 -6.981109e-05 -1.796364e-09) (1.092085e-09 -1.227099e-04 -2.260290e-10)) ((-4.727549e-13 -8.941747e-15 1.695605e-11) (6.780752e-11 3.614880e-12 -1.041175e-09))
2.700307      	((-1.996764e-09 -6.658447e-05 -1.604486e-09) (1.264473e-10 -1.116848e-04 -2.992542e-10)) ((-8.175663e-13 -7.549412e-14 1.955760e-11) (7.924880e-11 4.404087e-12 -9.223762e-10))
3.252369      	((-9.647422e-09 -6.448310e-05 -9.328865e-09) (-9.450718e-10 -1.020457e-04 -3.935857e-10)) ((-1.029053e-12 -1.583466e-13 2.571662e-11) (8.500842e-11 4.452551e-12 -8.148139e-10))
3.914842      	((-1.694513e-08 -6.356386e-05 -1.430910e-08) (-1.255770e-09 -9.366628e-05 -6.206435e-10)) ((-1.000657e-12 -2.525932e-13 3.214668e-11) (8.746977e-11 3.765130e-12 -7.503181e-10))
4.709811      	((-1.835207e-08 -6.383074e-05 -1.650103e-08) (-1.673831e-09 -8.644913e-05 -9.581151e-10)) ((-7.658854e-13 -3.094582e-13 3.931235e-11) (8.245402e-11 3.919329e-12 -6.621888e-10))
5.663773      	((-2.364831e-08 -6.548952e-05 -2.730377e-08) (-1.976223e-09 -8.030309e-05 -1.560700e-09)) ((-8.600317e-13 -4.099251e-13 4.905619e-11) (7.092040e-11 3.479987e-12 -6.060435e-10))
6.808528      	((-1.517552e-08 -6.853667e-05 -2.416962e-08) (-8.839376e-10 -7.511485e-05 -2.071295e-09)) ((-8.716725e-13 -2.735877e-13 6.354611e-11) (5.846600e-11 3.208250e-12 -6.197499e-10))
8.182233      	((-1.488872e-08 -7.292506e-05 -2.607228e-08) (8.486738e-10 -7.078776e-05 -2.482075e-09)) ((-8.558058e-13 -2.224296e-13 8.061136e-11) (4.644545e-11 3.058822e-12 -6.913432e-10))
9.83068       	((-5.802049e-09 -7.857986e-05 -2.406558e-08) (1.681734e-09 -6.721424e-05 -2.850298e-09)) ((-8.929923e-13 -2.204223e-13 1.020918e-10) (4.047654e-11 3.550650e-12 -9.039210e-10))
11.776645     	((4.826743e-09 -8.528861e-05 -1.627332e-08) (1.708623e-09 -6.432078e-05 -3.059744e-09)) ((-6.350523e-13 -3.264951e-13 1.247359e-10) (3.261521e-11 3.355131e-12 -1.243429e-09))
14.021243     	((1.006164e-08 -9.267862e-05 -1.410821e-08) (1.136288e-09 -6.204969e-05 -3.197568e-09)) ((-5.814846e-13 -3.846415e-13 1.505932e-10) (3.744565e-11 4.780727e-12 -1.518968e-09))
16.564598     	((1.384384e-08 -1.003074e-04 -1.310349e-08) (1.312255e-09 -6.030227e-05 -3.542231e-09)) ((-7.383611e-13 -4.854795e-13 1.762054e-10) (5.065624e-11 5.555286e-12 -1.716651e-09))
19.405935     	((8.395565e-09 -1.077480e-04 -1.393866e-08) (9.525103e-10 -5.894691e-05 -3.808458e-09)) ((-1.410482e-12 -6.937150e-13 1.975015e-10) (5.907809e-11 4.811242e-12 -1.734621e-09))
22.370569     	((2.061221e-08 -1.143687e-04 -5.489599e-09) (1.854198e-09 -5.789938e-05 -3.170122e-09)) ((-1.588695e-12 -9.725511e-13 2.152729e-10) (4.556454e-11 4.421897e-12 -1.560589e-09))
25.3198       	((3.986894e-08 -1.197739e-04 1.139644e-08) (4.852720e-09 -5.705753e-05 -1.112668e-09)) ((-1.694989e-12 -1.075438e-12 2.295330e-10) (-1.082778e-11 5.954515e-12 -1.273260e-09))
28.263136     	((5.473365e-08 -1.236064e-04 2.381540e-08) (8.255921e-09 -5.628762e-05 1.354173e-09)) ((-1.426974e-12 -1.139125e-12 2.424229e-10) (-7.375354e-11 6.192253e-12 -1.027648e-09))
31.214167     	((6.374924e-08 -1.259760e-04 4.042391e-08) (1.190178e-08 -5.556899e-05 3.851287e-09)) ((-9.302455e-13 -9.645119e-13 2.527249e-10) (-1.112370e-10 6.593096e-12 -8.228439e-10))
34.180882     	((5.918423e-08 -1.271658e-04 4.008638e-08) (1.266684e-08 -5.492131e-05 5.486873e-09)) ((-7.414627e-13 -9.774647e-13 2.604914e-10) (-1.052917e-10 4.570166e-12 -7.909244e-10))
37.164649     	((5.519368e-08 -1.272897e-04 4.018373e-08) (1.178419e-08 -5.431147e-05 5.997534e-09)) ((-7.913644e-13 -8.300061e-13 2.655637e-10) (-6.360193e-11 2.307705e-12 -8.801225e-10))
40.160211     	((5.789689e-08 -1.270232e-04 4.306871e-08) (1.159647e-08 -5.373518e-05 5.962461e-09)) ((-6.688346e-13 -5.084156e-13 2.687444e-10) (-4.385801e-12 1.999134e-12 -9.610499e-10))
43.160019     	((7.368166e-08 -1.263714e-04 5.420255e-08) (1.184060e-08 -5.320264e-05 6.137577e-09)) ((-4.939815e-13 -1.013395e-13 2.695375e-10) (4.683275e-11 2.158136e-12 -1.028615e-09))
46.164961     	((8.965323e-08 -1.256763e-04 6.330808e-08) (1.311648e-08 -5.271519e-05 6.465230e-09)) ((-4.225817e-13 3.364225e-13 2.696149e-10) (9.774088e-11 3.293534e-12 -1.070707e-09))
49.177281     	((1.020216e-07 -1.247780e-04 6.931764e-08) (1.442352e-08 -5.226149e-05 6.732049e-09)) ((-3.337035e-13 6.426624e-13 2.695455e-10) (1.584772e-10 2.295017e-12 -1.115734e-09))
52.197533     	((1.130782e-07 -1.239406e-04 6.701678e-08) (1.542279e-08 -5.184004e-05 6.580558e-09)) ((-4.772510e-13 8.123804e-13 2.696393e-10) (2.190810e-10 1.920641e-12 -1.152893e-09))
55.226538     	((1.264410e-07 -1.232579e-04 6.804899e-08) (1.629005e-08 -5.145376e-05 6.055579e-09)) ((-6.154255e-13 8.677572e-13 2.701247e-10) (2.830891e-10 2.014004e-12 -1.188752e-09))
58.264925     	((1.499698e-07 -1.227114e-04 7.067145e-08) (1.716398e-08 -5.109962e-05 5.563492e-09)) ((-6.392633e-13 9.177864e-13 2.708300e-10) (3.465237e-10 2.308648e-12 -1.262153e-09))
61.31226      	((1.800968e-07 -1.221355e-04 7.522170e-08) (1.827721e-08 -5.076958e-05 5.214050e-09)) ((-5.475766e-13 8.551366e-13 2.715348e-10) (4.078490e-10 4.605517e-12 -1.375690e-09))
64.368134     	((2.157264e-07 -1.216126e-04 7.885441e-08) (1.970688e-08 -5.046133e-05 4.916469e-09)) ((-5.455118e-13 8.157923e-13 2.722818e-10) (4.621642e-10 4.388256e-12 -1.501949e-09))
67.432208     	((2.588087e-07 -1.211486e-04 8.507759e-08) (2.170154e-08 -5.017719e-05 4.692054e-09)) ((-5.347456e-13 6.759312e-13 2.729576e-10) (5.088259e-10 4.649325e-12 -1.625860e-09))
70.504145     	((3.121293e-07 -1.206868e-04 1.013601e-07) (2.490980e-08 -4.991537e-05 5.218765e-09)) ((-4.190031e-13 5.637723e-13 2.734560e-10) (5.495383e-10 4.456369e-12 -1.744332e-09))
73.583678     	((3.699249e-07 -1.202074e-04 1.177097e-07) (2.937131e-08 -4.967235e-05 6.402072e-09)) ((-3.723649e-13 5.329620e-13 2.739438e-10) (5.791168e-10 3.394047e-12 -1.842821e-09))
76.670528     	((4.267783e-07 -1.198296e-04 1.295991e-07) (3.436493e-08 -4.945042e-05 7.627804e-09)) ((-3.225815e-13 4.498295e-13 2.744687e-10) (5.998660e-10 3.199798e-12 -1.927481e-09))
79.764464     	((4.872902e-07 -1.194292e-04 1.413980e-07) (4.009167e-08 -4.924761e-05 8.951895e-09)) ((-3.055401e-13 3.879427e-13 2.748691e-10) (6.157791e-10 4.228407e-12 -2.001314e-09))
82.865253     	((5.535061e-07 -1.190207e-04 1.544468e-07) (4.683110e-08 -4.905995e-05 1.022534e-08)) ((-2.081139e-13 4.419954e-13 2.751408e-10) (6.339551e-10 5.026880e-12 -2.063733e-09))
85.972777     	((6.200259e-07 -1.184988e-04 1.719969e-07) (5.414634e-08 -4.888020e-05 1.171608e-08)) ((-2.264456e-14 5.558379e-13 2.751925e-10) (6.510100e-10 5.708757e-12 -2.131658e-09))
89.086736     	((6.824040e-07 -1.179984e-04 1.874515e-07) (6.154909e-08 -4.870615e-05 1.345792e-08)) ((7.593642e-14 6.489406e-13 2.752462e-10) (6.686978e-10 5.357407e-12 -2.199894e-09))
92.206865     	((7.577666e-07 -1.176239e-04 2.029982e-07) (6.938145e-08 -4.854417e-05 1.525524e-08)) ((1.861339e-13 8.074085e-13 2.752531e-10) (6.848273e-10 4.277328e-12 -2.254541e-09))
95.330428     	((8.443555e-07 -1.172691e-04 2.240161e-07) (7.817916e-08 -4.839412e-05 1.728178e-08)) ((3.511815e-13 9.795415e-13 2.751726e-10) (6.991686e-10 3.605219e-12 -2.297349e-09))
98.457264     	((9.436958e-07 -1.168943e-04 2.469753e-07) (8.820996e-08 -4.825154e-05 1.964677e-08)) ((4.616307e-13 1.125225e-12 2.751015e-10) (7.114932e-10 2.021087e-12 -2.333759e-09))
101.587274    	((1.039215e-06 -1.165484e-04 2.709814e-07) (9.892653e-08 -4.811469e-05 2.238518e-08)) ((6.246344e-13 1.223741e-12 2.752274e-10) (7.126160e-10 6.845141e-13 -2.366718e-09))
104.720453    	((1.155254e-06 -1.162087e-04 2.951041e-07) (1.108316e-07 -4.798242e-05 2.542010e-08)) ((7.846796e-13 1.287188e-12 2.753880e-10) (7.056247e-10 9.031058e-13 -2.400613e-09))
107.856839    	((1.283269e-06 -1.158748e-04 3.228780e-07) (1.238669e-07 -4.785470e-05 2.867487e-08)) ((9.834703e-13 1.258936e-12 2.755141e-10) (7.026817e-10 2.851085e-12 -2.453638e-09))
110.996353    	((1.426109e-06 -1.155141e-04 3.542973e-07) (1.379872e-07 -4.773084e-05 3.210397e-08)) ((1.244103e-12 1.173405e-12 2.755403e-10) (7.075350e-10 4.058983e-12 -2.526671e-09))
114.138883    	((1.604633e-06 -1.151660e-04 3.927526e-07) (1.543811e-07 -4.761109e-05 3.587595e-08)) ((1.561326e-12 1.025618e-12 2.755333e-10) (7.215499e-10 3.677623e-12 -2.620994e-09))
117.284478    	((1.794727e-06 -1.148477e-04 4.441266e-07) (1.728005e-07 -4.749652e-05 4.037506e-08)) ((1.949714e-12 8.856026e-13 2.755138e-10) (7.463127e-10 3.601572e-12 -2.756528e-09))
120.43338     	((1.991746e-06 -1.145669e-04 4.911505e-07) (1.922618e-07 -4.738796e-05 4.530554e-08)) ((2.286245e-12 6.840681e-13 2.755116e-10) (7.804435e-10 3.708158e-12 -2.943192e-09))
123.585711    	((2.212621e-06 -1.143112e-04 5.416689e-07) (2.129564e-07 -4.728543e-05 5.045297e-08)) ((2.582448e-12 4.173762e-13 2.754641e-10) (8.259781e-10 2.708013e-12 -3.185549e-09))
126.741443    	((2.461581e-06 -1.140876e-04 6.028276e-07) (2.356470e-07 -4.718899e-05 5.614100e-08)) ((3.035786e-12 1.518481e-13 2.754157e-10) (8.883688e-10 2.143616e-12 -3.488161e-09))
129.900501    	((2.739072e-06 -1.138743e-04 6.686416e-07) (2.608402e-07 -4.709820e-05 6.241147e-08)) ((3.527652e-12 -5.134708e-14 2.753540e-10) (9.665367e-10 2.475524e-12 -3.849600e-09))
133.062824    	((3.043264e-06 -1.136751e-04 7.434501e-07) (2.887455e-07 -4.701268e-05 6.940664e-08)) ((4.052888e-12 -1.903292e-13 2.752868e-10) (1.056827e-09 2.699869e-12 -4.262903e-09))
136.228394    	((3.379437e-06 -1.134657e-04 8.236640e-07) (3.197810e-07 -4.693150e-05 7.719630e-08)) ((4.621689e-12 -3.013643e-13 2.751812e-10) (1.157169e-09 3.409986e-12 -4.719592e-09))
139.397168    	((3.747588e-06 -1.132412e-04 9.113440e-07) (3.542110e-07 -4.685312e-05 8.570828e-08)) ((5.205510e-12 -3.205322e-13 2.750637e-10) (1.267288e-09 4.793916e-12 -5.221370e-09))
142.569073    	((4.152839e-06 -1.130249e-04 1.007847e-06) (3.924482e-07 -4.677726e-05 9.509686e-08)) ((5.870796e-12 -2.892992e-13 2.749756e-10) (1.386964e-09 7.123680e-12 -5.766577e-09))
145.744059    	((4.590077e-06 -1.128218e-04 1.114810e-06) (4.345448e-07 -4.670424e-05 1.054740e-07)) ((6.641962e-12 -1.641995e-13 2.749173e-10) (1.516827e-09 9.321926e-12 -6.352155e-09))
148.922107    	((5.067379e-06 -1.126368e-04 1.231366e-06) (4.808177e-07 -4.663413e-05 1.169811e-07)) ((7.459478e-12 -1.566897e-14 2.748825e-10) (1.653665e-09 1.180334e-11 -6.978293e-09))
152.1032      	((5.586699e-06 -1.124750e-04 1.359728e-06) (5.318129e-07 -4.656743e-05 1.296862e-07)) ((8.367074e-12 1.021755e-13 2.748761e-10) (1.800956e-09 1.511855e-11 -7.640281e-09))
155.285815    	((6.155380e-06 -1.123380e-04 1.499194e-06) (5.881351e-07 -4.650467e-05 1.436082e-07)) ((9.371962e-12 1.901500e-13 2.748666e-10) (1.960089e-09 2.095341e-11 -8.332941e-09))
158.469043    	((6.776155e-06 -1.122172e-04 1.652011e-06) (6.503002e-07 -4.644612e-05 1.587883e-07)) ((1.044793e-11 2.314613e-13 2.748300e-10) (2.134956e-09 2.863162e-11 -9.055073e-09))
161.652689    	((7.454988e-06 -1.121090e-04 1.822300e-06) (7.187681e-07 -4.639192e-05 1.755965e-07)) ((1.165528e-11 2.225000e-13 2.747472e-10) (2.323414e-09 3.681906e-11 -9.810824e-09))
164.836552    	((8.200358e-06 -1.120091e-04 2.009060e-06) (7.941328e-07 -4.634203e-05 1.941991e-07)) ((1.293389e-11 1.404883e-13 2.746027e-10) (2.530276e-09 4.451327e-11 -1.060789e-08))
168.020424    	((9.019959e-06 -1.119170e-04 2.216867e-06) (8.772759e-07 -4.629620e-05 2.147521e-07)) ((1.432859e-11 -3.509744e-14 2.744228e-10) (2.758017e-09 5.048165e-11 -1.145364e-08))
171.204077    	((9.922615e-06 -1.118365e-04 2.442041e-06) (9.694685e-07 -4.625432e-05 2.373630e-07)) ((1.579416e-11 -3.412932e-13 2.742412e-10) (3.006058e-09 5.466234e-11 -1.233798e-08))
174.387273    	((1.091770e-05 -1.117657e-04 2.690868e-06) (1.072086e-06 -4.621641e-05 2.623190e-07)) ((1.734665e-11 -7.371471e-13 2.740407e-10) (3.274241e-09 5.685870e-11 -1.324191e-08))
177.569759    	((1.201865e-05 -1.117018e-04 2.964073e-06) (1.186457e-06 -4.618240e-05 2.899360e-07)) ((1.903221e-11 -1.166504e-12 2.737944e-10) (3.561839e-09 5.793261e-11 -1.416620e-08))
180.751261    	((1.323278e-05 -1.116463e-04 3.264511e-06) (1.313419e-06 -4.615197e-05 3.205733e-07)) ((2.091550e-11 -1.687154e-12 2.735261e-10) (3.861984e-09 6.060455e-11 -1.514372e-08))
183.931494    	((1.456032e-05 -1.116180e-04 3.596625e-06) (1.453460e-06 -4.612555e-05 3.545967e-07)) ((2.298966e-11 -2.339447e-12 2.732656e-10) (4.180759e-09 6.021434e-11 -1.619965e-08))
187.110159    	((1.601454e-05 -1.116099e-04 3.962084e-06) (1.607103e-06 -4.610335e-05 3.922948e-07)) ((2.522656e-11 -3.069429e-12 2.729608e-10) (4.521572e-09 5.447806e-11 -1.736540e-08))
190.286948    	((1.760267e-05 -1.116383e-04 4.365907e-06) (1.775011e-06 -4.608580e-05 4.342728e-07)) ((2.762867e-11 -3.903360e-12 2.726534e-10) (4.869566e-09 4.161280e-11 -1.867638e-08))
193.461538    	((1.933795e-05 -1.117067e-04 4.813950e-06) (1.958429e-06 -4.607354e-05 4.813122e-07)) ((3.035188e-11 -4.809424e-12 2.722919e-10) (5.224272e-09 2.838510e-11 -2.013048e-08))
196.633578    	((2.123982e-05 -1.118146e-04 5.303575e-06) (2.158531e-06 -4.606622e-05 5.333579e-07)) ((3.322675e-11 -5.880254e-12 2.718827e-10) (5.607049e-09 2.127084e-11 -2.177436e-08))
199.802692    	((2.332292e-05 -1.119833e-04 5.837852e-06) (2.376569e-06 -4.606465e-05 5.903698e-07)) ((3.630739e-11 -7.029086e-12 2.714195e-10) (6.038072e-09 2.935575e-11 -2.365431e-08))
202.968522    	((2.558643e-05 -1.122140e-04 6.418259e-06) (2.614181e-06 -4.606972e-05 6.525958e-07)) ((3.971212e-11 -8.433499e-12 2.708903e-10) (6.522266e-09 4.790955e-11 -2.576150e-08))
206.130653    	((2.805900e-05 -1.125213e-04 7.048125e-06) (2.874033e-06 -4.608357e-05 7.202232e-07)) ((4.331135e-11 -1.005952e-11 2.704127e-10) (7.064486e-09 5.894259e-11 -2.805763e-08))
209.288617    	((3.074659e-05 -1.129192e-04 7.741090e-06) (3.159108e-06 -4.610941e-05 7.940791e-07)) ((4.728720e-11 -1.201290e-11 2.699887e-10) (7.649502e-09 6.768822e-11 -3.047378e-08))
212.441881    	((3.366294e-05 -1.134026e-04 8.495663e-06) (3.472253e-06 -4.614871e-05 8.749669e-07)) ((5.161195e-11 -1.436780e-11 2.695259e-10) (8.268461e-09 7.242923e-11 -3.294915e-08))
215.589963    	((3.680663e-05 -1.139988e-04 9.307828e-06) (3.814097e-06 -4.620312e-05 9.625363e-07)) ((5.599390e-11 -1.725528e-11 2.690387e-10) (8.946607e-09 6.994639e-11 -3.549230e-08))
218.732555    	((4.020343e-05 -1.147275e-04 1.018280e-05) (4.183994e-06 -4.627507e-05 1.057293e-06)) ((6.056911e-11 -2.067018e-11 2.685974e-10) (9.679454e-09 5.962608e-11 -3.823783e-08))
221.869375    	((4.383523e-05 -1.156006e-04 1.112061e-05) (4.583069e-06 -4.636768e-05 1.160002e-06)) ((6.561730e-11 -2.442625e-11 2.682213e-10) (1.044692e-08 4.322744e-11 -4.120043e-08))
225.000238    	((4.768575e-05 -1.166314e-04 1.211586e-05) (5.013001e-06 -4.648161e-05 1.270985e-06)) ((7.097033e-11 -2.871278e-11 2.679485e-10) (1.122192e-08 1.907051e-11 -4.428721e-08))
228.125026    	((5.172987e-05 -1.178571e-04 1.315836e-05) (5.473582e-06 -4.662106e-05 1.390393e-06)) ((7.648704e-11 -3.372501e-11 2.678160e-10) (1.198495e-08 1.742304e-11 -4.744349e-08))
