# Forces      
# CofR        : (0.000000e+00 0.000000e+00 0.000000e+00)
# Time        forces(pressure viscous)	moments(pressure viscous)
0             	((0.000000e+00 0.000000e+00 0.000000e+00) (0.000000e+00 0.000000e+00 0.000000e+00)) ((0.000000e+00 0.000000e+00 0.000000e+00) (0.000000e+00 0.000000e+00 0.000000e+00))
0.012         	((-2.200839e-11 2.838051e-11 -5.584627e-11) (3.373269e-14 5.363574e-14 3.675609e-13)) ((2.523381e-10 -2.408682e-14 -4.931578e-16) (1.759039e-07 1.927179e-14 -8.079941e-15))
0.0264        	((2.522771e-11 4.966887e-11 -1.008096e-10) (-2.539037e-13 -4.154117e-13 3.204695e-13)) ((1.245355e-10 -1.890511e-14 4.879969e-15) (1.611175e-07 3.322720e-14 -7.950852e-15))
0.04368       	((-1.106437e-10 -7.448459e-11 -1.178195e-10) (2.373136e-13 -1.277579e-12 1.116236e-13)) ((6.881510e-11 -1.574311e-14 5.461474e-15) (1.459224e-07 1.840462e-14 1.389658e-14))
0.064416      	((4.017370e-11 -3.932263e-12 -2.664560e-11) (1.733855e-12 -1.907731e-12 -2.163877e-13)) ((3.858919e-11 -1.061841e-14 -2.014666e-15) (1.306506e-07 -1.850347e-14 3.633894e-14))
0.0892992     	((-1.699370e-11 -2.068687e-11 -6.432898e-12) (3.288556e-12 -2.120872e-12 -6.730115e-13)) ((2.902152e-11 -1.034557e-14 1.419996e-15) (1.157479e-07 -5.451573e-14 4.896286e-14))
0.119159      	((-1.245523e-11 -3.502853e-11 -8.874342e-11) (4.240356e-12 -1.965848e-12 -1.071906e-12)) ((2.077062e-11 -7.379673e-15 -2.766310e-16) (1.016744e-07 -7.468038e-14 5.245673e-14))
0.154991      	((2.344727e-11 4.283943e-11 2.564316e-11) (4.652354e-12 -1.702918e-12 -1.206814e-12)) ((1.648434e-11 -5.824587e-15 -5.935825e-16) (8.875474e-08 -8.103044e-14 4.600952e-14))
0.197989      	((2.461499e-11 5.626178e-12 -2.641642e-11) (4.950508e-12 -1.410101e-12 -1.222285e-12)) ((1.311262e-11 -2.583895e-15 -5.431738e-16) (7.730161e-08 -8.037524e-14 3.781270e-14))
0.249587      	((1.340117e-11 9.033789e-12 -2.610322e-11) (4.689941e-12 -1.303137e-12 -1.245323e-12)) ((1.086069e-11 -1.660177e-15 -1.183828e-15) (6.748233e-08 -7.534059e-14 3.403105e-14))
0.311504      	((1.317799e-11 2.376809e-11 -3.363653e-11) (4.153032e-12 -1.385091e-12 -1.020340e-12)) ((9.076362e-12 -2.270389e-15 -3.156656e-16) (5.927234e-08 -6.866011e-14 3.519704e-14))
0.385805      	((-1.267251e-11 2.971735e-11 -4.379557e-11) (3.874770e-12 -1.288335e-12 -8.810288e-13)) ((7.816294e-12 -2.374341e-15 8.046549e-16) (5.249517e-08 -6.948754e-14 3.369423e-14))
0.474966      	((-5.043828e-12 3.966195e-11 -4.441169e-11) (3.434585e-12 -8.812849e-13 -1.590322e-12)) ((6.986219e-12 -1.364339e-15 1.193951e-15) (4.688515e-08 -8.942021e-14 3.098721e-14))
0.581959      	((2.644326e-11 5.867738e-11 -1.455209e-11) (3.393802e-12 7.584871e-14 -2.256446e-12)) ((6.262287e-12 -1.721519e-15 1.939418e-15) (4.216702e-08 -1.122772e-13 3.847541e-14))
0.710351      	((2.480496e-11 6.827626e-11 -5.258733e-11) (3.106243e-12 1.758026e-13 -2.158178e-12)) ((5.538045e-12 -2.197788e-15 2.369634e-15) (3.811327e-08 -1.222365e-13 5.844872e-14))
0.864421      	((3.163094e-11 8.376269e-11 -2.861140e-11) (1.945605e-12 -9.537951e-13 -1.425589e-12)) ((5.048108e-12 -3.524418e-15 2.854534e-15) (3.456228e-08 -1.135022e-13 8.567408e-14))
1.049306      	((2.024146e-11 8.750909e-11 -5.329788e-11) (1.471760e-12 -1.835839e-12 -7.207334e-13)) ((4.725454e-12 -3.861793e-15 2.622011e-15) (3.140651e-08 -8.705608e-14 9.826953e-14))
1.271167      	((-1.304750e-11 1.115494e-10 -6.619749e-11) (1.358203e-12 -2.777437e-12 8.656869e-14)) ((4.404265e-12 -3.173843e-15 2.175012e-15) (2.857382e-08 -5.393889e-14 1.241537e-13))
1.5374        	((-1.281662e-11 1.043456e-10 -9.363586e-11) (9.277292e-13 -4.369438e-12 1.713496e-12)) ((4.035714e-12 -8.846415e-16 1.592698e-15) (2.601719e-08 -2.872375e-14 2.059960e-13))
1.85688       	((1.068740e-11 1.051855e-10 -8.917365e-11) (-9.151919e-13 -7.729924e-12 4.526704e-12)) ((3.705779e-12 -5.861760e-17 8.339639e-16) (2.371107e-08 4.410097e-14 3.068722e-13))
2.240256      	((-1.355113e-12 1.146889e-10 -8.555236e-11) (-4.976093e-13 -1.263640e-11 9.658817e-12)) ((3.499334e-12 1.338738e-15 -5.244431e-16) (2.164232e-08 1.638880e-13 4.393380e-13))
2.700307      	((7.533634e-12 1.006444e-10 -7.030158e-11) (3.891717e-13 -2.020383e-11 1.747756e-11)) ((3.354892e-12 1.927551e-15 -1.290992e-15) (1.980164e-08 3.015937e-13 6.609705e-13))
3.252369      	((-2.428228e-12 6.764856e-11 -7.089096e-11) (-1.262907e-12 -3.133625e-11 2.632768e-11)) ((3.214097e-12 3.036394e-15 -2.047156e-15) (1.817618e-08 4.832537e-13 8.957197e-13))
3.914842      	((5.246072e-12 2.889560e-11 -4.630770e-11) (-2.090675e-12 -4.136479e-11 3.475677e-11)) ((3.052086e-12 2.558908e-15 -1.483453e-15) (1.674651e-08 6.353455e-13 1.052204e-12))
4.709811      	((-9.271535e-13 1.053786e-11 -1.348374e-11) (-5.454634e-13 -5.034301e-11 4.390095e-11)) ((2.866194e-12 2.511891e-15 -7.264830e-16) (1.548601e-08 7.503861e-13 1.138657e-12))
5.663773      	((3.226587e-12 2.763775e-12 1.445110e-11) (3.670522e-13 -5.712963e-11 5.124151e-11)) ((2.661242e-12 2.551911e-15 -4.249028e-16) (1.436511e-08 8.416671e-13 1.163670e-12))
6.808528      	((8.598721e-12 -9.556877e-12 2.542822e-11) (-4.044355e-13 -5.816626e-11 5.300440e-11)) ((2.454292e-12 2.665947e-15 -1.163848e-15) (1.335757e-08 8.275811e-13 1.154713e-12))
8.182233      	((4.371952e-12 -1.780311e-11 3.463770e-11) (-2.238571e-12 -5.483488e-11 5.004774e-11)) ((2.253227e-12 2.103147e-15 -1.462816e-15) (1.244257e-08 7.337386e-13 1.063349e-12))
9.83068       	((6.880911e-12 -2.144877e-11 2.361510e-11) (-6.101790e-12 -4.645104e-11 4.247631e-11)) ((2.051957e-12 2.226125e-15 -2.159091e-15) (1.160496e-08 6.102693e-13 8.612317e-13))
11.808816     	((1.756354e-12 7.413958e-12 1.360753e-11) (-8.974924e-12 -3.524699e-11 3.356551e-11)) ((1.870230e-12 1.929338e-15 -2.683399e-15) (1.083419e-08 5.209135e-13 6.155765e-13))
14.182579     	((3.084768e-12 -9.791642e-15 -1.144705e-11) (-1.113901e-11 -2.509579e-11 2.531854e-11)) ((1.701008e-12 1.680262e-15 -2.941261e-15) (1.012388e-08 4.377727e-13 3.830749e-13))
17.031095     	((7.156575e-12 6.397317e-12 -2.330118e-12) (-1.028730e-11 -1.762830e-11 1.788754e-11)) ((1.558177e-12 8.574636e-16 -2.920859e-15) (9.470623e-09 3.324777e-13 2.131124e-13))
20.449314     	((8.059289e-12 6.572169e-12 -8.597604e-12) (-7.796284e-12 -1.234470e-11 1.219880e-11)) ((1.430816e-12 4.993817e-16 -2.779193e-15) (8.872129e-09 2.228345e-13 1.261627e-13))
24.551176     	((1.770693e-12 1.272624e-11 -8.508311e-12) (-5.674455e-12 -8.874838e-12 8.578079e-12)) ((1.318440e-12 3.446693e-16 -2.719460e-15) (8.325193e-09 1.439243e-13 8.210172e-14))
29.473411     	((5.579315e-12 1.795288e-11 2.644850e-12) (-3.749915e-12 -6.473168e-12 7.108700e-12)) ((1.222717e-12 1.953419e-17 -2.472866e-15) (7.826419e-09 1.075838e-13 6.443188e-14))
35.380094     	((3.271522e-12 1.842248e-11 -6.786963e-12) (-2.479620e-12 -5.048068e-12 6.131490e-12)) ((1.138272e-12 -1.510146e-16 -2.185751e-15) (7.371738e-09 8.480740e-14 6.448754e-14))
42.468112     	((1.857107e-12 1.135398e-11 -5.650043e-12) (-3.023641e-12 -4.935643e-12 5.978169e-12)) ((1.063903e-12 -1.526874e-16 -1.999667e-15) (6.957225e-09 6.451227e-14 8.208001e-14))
50.973735     	((3.370080e-12 1.229572e-11 -3.884631e-12) (-2.665240e-12 -5.261860e-12 6.472251e-12)) ((9.970104e-13 -2.698016e-16 -1.792810e-15) (6.579478e-09 5.411242e-14 1.017388e-13))
61.180482     	((2.781922e-13 8.680411e-12 -4.424464e-12) (-2.384144e-12 -5.772200e-12 7.212321e-12)) ((9.373425e-13 -4.371857e-16 -1.573756e-15) (6.235450e-09 6.746251e-14 1.134932e-13))
73.428578     	((3.437402e-12 8.046763e-12 -7.972057e-13) (-2.020304e-12 -6.285671e-12 7.549021e-12)) ((8.849083e-13 -5.521410e-16 -1.375653e-15) (5.922759e-09 8.567519e-14 1.262833e-13))
88.126294     	((5.921285e-12 7.403357e-12 2.928145e-12) (-2.299935e-12 -6.495033e-12 8.175318e-12)) ((8.375778e-13 -5.520226e-16 -1.285367e-15) (5.639154e-09 9.787606e-14 1.407167e-13))
105.763553    	((5.793432e-12 4.683074e-12 4.204490e-12) (-2.616809e-12 -6.406691e-12 8.680338e-12)) ((7.944915e-13 -5.713916e-16 -1.123916e-15) (5.382460e-09 1.083194e-13 1.471896e-13))
126.928263    	((5.164965e-12 3.523751e-12 4.280189e-12) (-3.462193e-12 -6.396940e-12 8.625244e-12)) ((7.560489e-13 -5.322143e-16 -1.044908e-15) (5.150294e-09 1.138921e-13 1.501243e-13))
152.325916    	((4.115180e-12 1.422240e-12 3.487698e-12) (-4.328134e-12 -6.350391e-12 8.163812e-12)) ((7.214760e-13 -4.402848e-16 -1.058837e-15) (4.940165e-09 1.142812e-13 1.516484e-13))
182.803099    	((2.864638e-12 4.489924e-13 3.219626e-12) (-4.499618e-12 -6.317307e-12 7.825598e-12)) ((6.897077e-13 -3.614106e-16 -1.023814e-15) (4.749648e-09 1.110854e-13 1.559450e-13))
219.375719    	((2.346688e-12 -3.166075e-13 3.161939e-12) (-4.514026e-12 -6.414896e-12 7.871200e-12)) ((6.611074e-13 -3.061123e-16 -1.008364e-15) (4.576647e-09 1.113863e-13 1.608218e-13))
263.262863    	((3.647917e-12 -1.769116e-12 2.353490e-12) (-3.739902e-12 -6.743125e-12 8.085116e-12)) ((6.347525e-13 -2.804173e-16 -9.474215e-16) (4.419435e-09 1.168177e-13 1.608730e-13))
315.927436    	((3.372351e-12 -4.182010e-12 1.379745e-12) (-2.280794e-12 -7.141159e-12 8.253750e-12)) ((6.110473e-13 -2.352668e-16 -8.748651e-16) (4.276619e-09 1.235777e-13 1.577570e-13))
379.124923    	((2.904233e-12 -5.326467e-12 1.337429e-12) (-1.441210e-12 -7.328733e-12 7.936425e-12)) ((5.890214e-13 -2.257563e-16 -8.029347e-16) (4.147055e-09 1.218799e-13 1.590401e-13))
454.961908    	((2.802803e-12 -5.507637e-12 1.443931e-12) (-1.004232e-12 -7.311611e-12 7.471341e-12)) ((5.686404e-13 -2.420376e-16 -7.659925e-16) (4.029773e-09 1.186581e-13 1.611722e-13))
545.966289    	((3.157773e-12 -4.837058e-12 1.987421e-12) (-7.981371e-13 -7.171275e-12 7.122550e-12)) ((5.498344e-13 -2.088272e-16 -7.153348e-16) (3.923831e-09 1.185856e-13 1.629369e-13))
655.171547    	((3.792543e-12 -4.108436e-12 2.618899e-12) (-7.488006e-13 -6.935018e-12 6.868008e-12)) ((5.327811e-13 -1.875072e-16 -6.929959e-16) (3.828436e-09 1.188607e-13 1.610476e-13))
786.217856    	((2.813536e-12 -3.325128e-12 3.560225e-12) (-6.566170e-13 -6.699159e-12 6.507232e-12)) ((5.177458e-13 -1.798184e-16 -7.082516e-16) (3.742887e-09 1.124777e-13 1.591102e-13))
943.473427    	((1.810703e-12 -2.619324e-12 3.801422e-12) (-7.334983e-13 -6.335412e-12 6.177188e-12)) ((5.045919e-13 -1.964761e-16 -6.663608e-16) (3.666499e-09 1.062268e-13 1.520051e-13))
1132.180113   	((5.922523e-13 -2.448560e-12 3.699161e-12) (-7.483659e-13 -5.970066e-12 5.769037e-12)) ((4.932184e-13 -1.976621e-16 -6.141421e-16) (3.598630e-09 1.004831e-13 1.421602e-13))
1358.628135   	((3.917572e-13 -2.951358e-12 2.974023e-12) (-6.526630e-13 -5.611609e-12 5.407325e-12)) ((4.830928e-13 -1.915602e-16 -5.837991e-16) (3.538635e-09 9.475692e-14 1.314331e-13))
1630.365763   	((1.931062e-13 -3.314691e-12 2.276835e-12) (-7.318581e-13 -5.257044e-12 5.126669e-12)) ((4.740874e-13 -1.828039e-16 -5.574410e-16) (3.485854e-09 8.934630e-14 1.216256e-13))
1956.450915   	((-1.411798e-13 -3.799713e-12 1.582081e-12) (-8.286568e-13 -4.905734e-12 4.811678e-12)) ((4.662914e-13 -1.934298e-16 -5.167213e-16) (3.439635e-09 8.415043e-14 1.131996e-13))
2347.753098   	((-1.224511e-12 -4.223235e-12 9.208021e-13) (-9.507150e-13 -4.700596e-12 4.459643e-12)) ((4.596179e-13 -2.189560e-16 -4.702613e-16) (3.399379e-09 7.858851e-14 1.083302e-13))
2817.315718   	((-2.258815e-12 -4.356899e-12 2.542974e-13) (-1.052124e-12 -4.610565e-12 4.162299e-12)) ((4.539783e-13 -2.380100e-16 -4.517411e-16) (3.364513e-09 7.428383e-14 1.036207e-13))
3367.914808   	((-2.838452e-12 -4.373512e-12 -1.217725e-13) (-1.121638e-12 -4.509844e-12 3.917458e-12)) ((4.492270e-13 -2.416274e-16 -4.387446e-16) (3.334533e-09 7.123602e-14 9.853746e-14))
3999.557286   	((-2.736673e-12 -4.398835e-12 -4.264294e-13) (-1.130334e-12 -4.372341e-12 3.706455e-12)) ((4.452123e-13 -2.445046e-16 -4.224485e-16) (3.308936e-09 6.940908e-14 9.384944e-14))
4712.249666   	((-2.864708e-12 -4.365164e-12 -7.433528e-13) (-1.133671e-12 -4.244226e-12 3.539647e-12)) ((4.418319e-13 -2.500964e-16 -4.153929e-16) (3.287221e-09 6.751143e-14 8.950128e-14))
5505.997907   	((-3.033079e-12 -4.359549e-12 -1.030376e-12) (-1.159419e-12 -4.170466e-12 3.398019e-12)) ((4.390072e-13 -2.492140e-16 -4.187083e-16) (3.268898e-09 6.597317e-14 8.514971e-14))
6316.609807   	((-2.988628e-12 -4.348588e-12 -1.213456e-12) (-1.170939e-12 -4.125188e-12 3.283215e-12)) ((4.366379e-13 -2.441283e-16 -4.186127e-16) (3.253563e-09 6.450478e-14 8.164136e-14))
7127.267078   	((-2.821293e-12 -4.342156e-12 -1.283112e-12) (-1.138400e-12 -4.078480e-12 3.194830e-12)) ((4.346732e-13 -2.367880e-16 -4.225355e-16) (3.240794e-09 6.333393e-14 7.822320e-14))
7937.963295   	((-2.564591e-12 -4.286902e-12 -1.362981e-12) (-1.093987e-12 -4.036709e-12 3.128556e-12)) ((4.330507e-13 -2.317890e-16 -4.258154e-16) (3.230203e-09 6.268311e-14 7.515746e-14))
8748.692787   	((-2.100097e-12 -4.184022e-12 -1.312425e-12) (-1.043635e-12 -3.993434e-12 3.067545e-12)) ((4.316904e-13 -2.275339e-16 -4.267981e-16) (3.221426e-09 6.232316e-14 7.238500e-14))
9559.450531   	((-1.776106e-12 -4.037163e-12 -1.283005e-12) (-9.890785e-13 -3.957133e-12 3.020542e-12)) ((4.305525e-13 -2.232005e-16 -4.280976e-16) (3.214164e-09 6.219441e-14 7.008731e-14))
10370.232192  	((-1.526962e-12 -3.893786e-12 -1.209966e-12) (-9.362029e-13 -3.926561e-12 2.986645e-12)) ((4.296174e-13 -2.200174e-16 -4.296520e-16) (3.208154e-09 6.198292e-14 6.831932e-14))
11181.034047  	((-1.445723e-12 -3.785982e-12 -1.190759e-12) (-8.922299e-13 -3.900847e-12 2.958681e-12)) ((4.288485e-13 -2.148143e-16 -4.306260e-16) (3.203181e-09 6.163072e-14 6.697250e-14))
11991.852942  	((-1.415172e-12 -3.738560e-12 -1.186641e-12) (-8.525039e-13 -3.879762e-12 2.940958e-12)) ((4.282114e-13 -2.117549e-16 -4.304349e-16) (3.199065e-09 6.132158e-14 6.583120e-14))
12802.686179  	((-1.140835e-12 -3.663930e-12 -1.161569e-12) (-8.225019e-13 -3.857879e-12 2.929587e-12)) ((4.276933e-13 -2.137081e-16 -4.312336e-16) (3.195658e-09 6.112699e-14 6.476724e-14))
13613.531426  	((-7.968385e-13 -3.646506e-12 -1.189907e-12) (-7.868044e-13 -3.850860e-12 2.913822e-12)) ((4.272605e-13 -2.010637e-16 -4.350822e-16) (3.192834e-09 6.104738e-14 6.414769e-14))
14424.386723  	((-5.038494e-13 -3.645490e-12 -1.226256e-12) (-7.514048e-13 -3.847022e-12 2.898501e-12)) ((4.268991e-13 -1.869754e-16 -4.354501e-16) (3.190494e-09 6.114715e-14 6.359627e-14))
15235.25043   	((-2.981088e-13 -3.641644e-12 -1.246061e-12) (-7.252211e-13 -3.838507e-12 2.885666e-12)) ((4.266071e-13 -1.847236e-16 -4.356085e-16) (3.188554e-09 6.138828e-14 6.285663e-14))
16046.121176  	((-1.648036e-13 -3.637210e-12 -1.256733e-12) (-7.051325e-13 -3.834563e-12 2.872014e-12)) ((4.263634e-13 -1.795264e-16 -4.370607e-16) (3.186945e-09 6.155473e-14 6.195987e-14))
16856.997814  	((-8.281988e-14 -3.639529e-12 -1.260781e-12) (-6.902583e-13 -3.827263e-12 2.861541e-12)) ((4.261605e-13 -1.793379e-16 -4.382469e-16) (3.185609e-09 6.160183e-14 6.133341e-14))
17667.879383  	((-3.219201e-14 -3.616600e-12 -1.265245e-12) (-6.795950e-13 -3.821898e-12 2.851338e-12)) ((4.259925e-13 -1.784762e-16 -4.394435e-16) (3.184500e-09 6.166683e-14 6.072563e-14))
18478.76507   	((-1.000514e-14 -3.591206e-12 -1.258866e-12) (-6.721887e-13 -3.816808e-12 2.842186e-12)) ((4.258522e-13 -1.797614e-16 -4.402040e-16) (3.183579e-09 6.169713e-14 6.019731e-14))
19289.654195  	((-9.675635e-15 -3.554303e-12 -1.245964e-12) (-6.668624e-13 -3.810904e-12 2.830986e-12)) ((4.257330e-13 -1.854270e-16 -4.420021e-16) (3.182814e-09 6.156840e-14 5.974441e-14))
