# Forces      
# CofR        : (0.000000e+00 0.000000e+00 0.000000e+00)
# Time        forces(pressure viscous)	moments(pressure viscous)
0             	((0.000000e+00 0.000000e+00 0.000000e+00) (0.000000e+00 0.000000e+00 0.000000e+00)) ((0.000000e+00 0.000000e+00 0.000000e+00) (0.000000e+00 0.000000e+00 0.000000e+00))
0.012         	((-4.367313e-11 5.660375e-11 -1.114507e-10) (8.549687e-14 1.074103e-13 7.321118e-13)) ((5.035831e-10 -4.806988e-14 -9.839169e-16) (3.509746e-07 3.843835e-14 -1.613717e-14))
0.0264        	((5.001534e-11 9.908352e-11 -2.010912e-10) (-4.136559e-13 -8.305941e-13 6.387173e-13)) ((2.486321e-10 -3.774174e-14 9.712193e-15) (3.214724e-07 6.624153e-14 -1.582915e-14))
0.04368       	((-2.204407e-10 -1.488542e-10 -2.353140e-10) (6.732319e-13 -2.563416e-12 2.339721e-13)) ((1.375162e-10 -3.143472e-14 1.088502e-14) (2.911571e-07 3.630285e-14 2.801484e-14))
0.064416      	((8.083002e-11 -8.699221e-12 -5.329501e-11) (3.747038e-12 -3.818668e-12 -4.398836e-13)) ((7.724982e-11 -2.125722e-14 -4.026303e-15) (2.606926e-07 -3.790798e-14 7.312552e-14))
0.0892992     	((-3.271106e-11 -4.153465e-11 -1.114180e-11) (6.795790e-12 -4.242925e-12 -1.360204e-12)) ((5.818918e-11 -2.063727e-14 2.721620e-15) (2.309699e-07 -1.094942e-13 9.844633e-14))
0.119159      	((-1.871479e-11 -6.999139e-11 -1.766646e-10) (8.693432e-12 -3.938089e-12 -2.135548e-12)) ((4.173578e-11 -1.479163e-14 -5.511646e-16) (2.029080e-07 -1.490829e-13 1.051401e-13))
0.154991      	((5.414804e-11 8.455848e-11 5.208887e-11) (9.503985e-12 -3.410975e-12 -2.415422e-12)) ((3.318289e-11 -1.175597e-14 -1.154836e-15) (1.771552e-07 -1.621745e-13 9.190088e-14))
0.197989      	((5.040431e-11 1.013852e-11 -5.332904e-11) (9.829348e-12 -2.840985e-12 -2.486438e-12)) ((2.643970e-11 -5.079512e-15 -1.295227e-15) (1.543277e-07 -1.626246e-13 7.616737e-14))
0.249587      	((3.837407e-11 1.855857e-11 -5.135358e-11) (8.571365e-12 -2.583332e-12 -2.493672e-12)) ((2.192716e-11 -3.479021e-15 -2.398223e-15) (1.347523e-07 -1.527207e-13 6.877967e-14))
0.311504      	((2.360227e-11 4.887199e-11 -6.738582e-11) (7.119708e-12 -2.733394e-12 -2.046975e-12)) ((1.834756e-11 -4.677008e-15 -5.944264e-16) (1.183784e-07 -1.409588e-13 7.159562e-14))
0.385805      	((-3.527491e-11 6.131925e-11 -8.634798e-11) (6.875474e-12 -2.596270e-12 -1.889139e-12)) ((1.582453e-11 -4.901494e-15 1.624326e-15) (1.048543e-07 -1.421131e-13 6.650608e-14))
0.474966      	((-8.952826e-12 7.823129e-11 -8.968609e-11) (6.504109e-12 -1.934345e-12 -3.310046e-12)) ((1.415505e-11 -2.932582e-15 2.528573e-15) (9.365104e-08 -1.733885e-13 5.699520e-14))
0.581959      	((4.925387e-11 1.161576e-10 -3.558180e-11) (8.774210e-12 -4.075219e-14 -4.578519e-12)) ((1.268898e-11 -3.108689e-15 3.599302e-15) (8.422282e-08 -2.162439e-13 7.089400e-14))
0.710351      	((3.863099e-11 1.399985e-10 -1.035433e-10) (1.005564e-11 4.028590e-13 -4.508404e-12)) ((1.123111e-11 -4.312172e-15 4.714690e-15) (7.611981e-08 -2.387229e-13 1.109063e-13))
0.864421      	((4.523818e-11 1.666805e-10 -5.067063e-11) (8.089021e-12 -1.542980e-12 -3.117013e-12)) ((1.023592e-11 -6.941134e-15 5.885424e-15) (6.902178e-08 -2.280117e-13 1.648499e-13))
1.049306      	((2.772015e-11 1.791206e-10 -9.530566e-11) (8.665189e-12 -3.069023e-12 -1.364121e-12)) ((9.588280e-12 -7.366338e-15 5.042540e-15) (6.271468e-08 -1.863987e-13 1.989761e-13))
1.271167      	((-3.525070e-11 2.335737e-10 -1.186310e-10) (7.852315e-12 -5.007701e-12 -1.236476e-13)) ((8.941510e-12 -6.423665e-15 4.433228e-15) (5.705444e-08 -1.371107e-13 2.593928e-13))
1.5374        	((-3.725182e-11 2.144949e-10 -1.772902e-10) (4.403795e-12 -8.103643e-12 2.581760e-12)) ((8.203906e-12 -2.032424e-15 3.005510e-15) (5.194696e-08 -8.587280e-14 4.105928e-13))
1.85688       	((2.774097e-11 2.113886e-10 -1.673279e-10) (3.650060e-13 -1.469650e-11 8.804111e-12)) ((7.528579e-12 -3.444769e-16 1.874989e-15) (4.734104e-08 7.302041e-14 6.155118e-13))
2.240256      	((-7.938232e-12 2.277226e-10 -1.651801e-10) (1.730745e-12 -2.418704e-11 1.863137e-11)) ((7.097077e-12 2.326695e-15 -9.124401e-16) (4.321074e-08 3.210706e-13 8.710175e-13))
2.700307      	((2.278876e-11 1.738859e-10 -1.388740e-10) (1.134854e-12 -3.930226e-11 3.283875e-11)) ((6.795349e-12 3.895542e-15 -2.640641e-15) (3.953709e-08 5.885563e-13 1.296608e-12))
3.252369      	((-9.093974e-12 1.201046e-10 -1.463285e-10) (-7.857178e-13 -6.121716e-11 4.977061e-11)) ((6.491077e-12 5.979315e-15 -3.652272e-15) (3.629404e-08 9.137047e-13 1.783896e-12))
3.914842      	((5.598042e-12 4.285294e-11 -9.248150e-11) (-1.792806e-12 -8.029347e-11 6.613830e-11)) ((6.144153e-12 4.525517e-15 -2.481516e-15) (3.344203e-08 1.203341e-12 2.063917e-12))
4.709811      	((6.271356e-12 2.443344e-11 -2.561456e-11) (-8.369116e-13 -9.630019e-11 8.401870e-11)) ((5.759491e-12 3.877936e-15 -6.199557e-16) (3.092690e-08 1.435700e-12 2.201406e-12))
5.663773      	((5.765266e-12 9.559759e-12 4.669766e-11) (7.020021e-13 -1.086447e-10 9.804100e-11)) ((5.343085e-12 4.690867e-15 -4.092626e-16) (2.869001e-08 1.592842e-12 2.280721e-12))
6.808528      	((1.139113e-11 -9.230167e-12 5.917807e-11) (-2.022993e-12 -1.113863e-10 1.018177e-10)) ((4.919423e-12 4.670272e-15 -1.952096e-15) (2.667889e-08 1.567740e-12 2.275245e-12))
8.182233      	((1.884645e-11 -3.183450e-11 7.737228e-11) (-6.334311e-12 -1.049088e-10 9.663012e-11)) ((4.505993e-12 3.942614e-15 -3.480134e-15) (2.485177e-08 1.383763e-12 2.098267e-12))
9.83068       	((1.226739e-14 -2.916471e-11 3.513116e-11) (-1.582582e-11 -8.817282e-11 8.169412e-11)) ((4.099285e-12 4.488309e-15 -4.277658e-15) (2.317918e-08 1.154110e-12 1.724401e-12))
11.808816     	((-1.187467e-11 1.020116e-11 3.470095e-11) (-2.310395e-11 -6.750474e-11 6.503752e-11)) ((3.730434e-12 4.230887e-15 -5.063612e-15) (2.164009e-08 1.029228e-12 1.260040e-12))
14.182579     	((2.520858e-12 -3.987246e-12 -3.173606e-11) (-2.550176e-11 -4.945424e-11 4.964135e-11)) ((3.395513e-12 3.653006e-15 -5.955159e-15) (2.022177e-08 8.701591e-13 8.206551e-13))
17.031095     	((-3.279763e-12 1.252623e-11 -2.971602e-12) (-2.375830e-11 -3.544203e-11 3.542916e-11)) ((3.104626e-12 2.681412e-15 -5.878729e-15) (1.891685e-08 6.670870e-13 5.051655e-13))
20.449314     	((1.911077e-11 1.225387e-11 -1.466041e-11) (-1.920505e-11 -2.549422e-11 2.475245e-11)) ((2.846024e-12 1.246435e-15 -5.197475e-15) (1.772118e-08 4.476393e-13 3.234002e-13))
24.551176     	((1.308985e-12 2.926412e-11 -2.522423e-12) (-1.494055e-11 -1.872457e-11 1.687827e-11)) ((2.618098e-12 8.112749e-16 -4.753522e-15) (1.662897e-08 2.632703e-13 2.383130e-13))
29.473411     	((5.526503e-12 3.850520e-11 8.169499e-12) (-1.326370e-11 -1.286236e-11 1.367179e-11)) ((2.424687e-12 1.196560e-16 -4.214002e-15) (1.563337e-08 1.936101e-13 1.915848e-13))
35.380094     	((2.491897e-12 3.253300e-11 -1.560974e-12) (-1.248339e-11 -8.617388e-12 1.163807e-11)) ((2.253383e-12 -1.890448e-16 -3.644107e-15) (1.472625e-08 1.562390e-13 1.600889e-13))
42.468112     	((-9.734050e-13 3.028520e-11 3.916171e-13) (-1.271447e-11 -5.831487e-12 1.028189e-11)) ((2.101506e-12 -3.840191e-16 -3.290360e-15) (1.389971e-08 1.361401e-13 1.386016e-13))
50.973735     	((6.272922e-13 2.025350e-11 -5.811885e-12) (-1.357624e-11 -5.045404e-12 9.953722e-12)) ((1.967312e-12 -7.383284e-16 -2.760028e-15) (1.314675e-08 1.372732e-13 1.298043e-13))
61.180482     	((-9.542323e-14 2.152484e-11 1.460455e-13) (-1.198446e-11 -5.498270e-12 1.074199e-11)) ((1.847737e-12 -9.823994e-16 -2.380134e-15) (1.246128e-08 1.615077e-13 1.384623e-13))
73.428578     	((2.282035e-12 1.638382e-11 5.041577e-12) (-1.041222e-11 -6.722097e-12 1.172531e-11)) ((1.739291e-12 -1.018996e-15 -1.933501e-15) (1.183823e-08 1.885861e-13 1.599609e-13))
88.126294     	((3.163461e-12 1.547296e-11 1.081102e-11) (-1.009969e-11 -7.829249e-12 1.272763e-11)) ((1.643101e-12 -1.094335e-15 -1.560320e-15) (1.127249e-08 2.079752e-13 1.886919e-13))
105.763553    	((2.067380e-12 8.211011e-12 8.299955e-12) (-9.237802e-12 -8.129984e-12 1.346730e-11)) ((1.556939e-12 -1.025707e-15 -1.485934e-15) (1.075943e-08 2.202503e-13 2.070568e-13))
126.928263    	((3.582724e-12 3.345974e-12 4.510433e-12) (-6.830530e-12 -8.360744e-12 1.362413e-11)) ((1.479527e-12 -9.512909e-16 -1.520489e-15) (1.029487e-08 2.133889e-13 2.232963e-13))
152.325916    	((5.900973e-12 -3.445904e-12 3.532883e-12) (-3.873676e-12 -9.278664e-12 1.384630e-11)) ((1.411535e-12 -1.025036e-15 -1.543912e-15) (9.874253e-09 2.052517e-13 2.389963e-13))
182.803099    	((6.397565e-12 -1.089697e-11 3.944164e-13) (-1.224516e-12 -1.099021e-11 1.309876e-11)) ((1.350021e-12 -1.139140e-15 -1.292701e-15) (9.493211e-09 1.857587e-13 2.577153e-13))
219.375719    	((8.423560e-12 -1.279234e-11 2.984618e-13) (2.372567e-13 -1.161557e-11 1.209138e-11)) ((1.292068e-12 -1.335363e-15 -1.100917e-15) (9.147697e-09 1.618477e-13 2.818482e-13))
263.262863    	((1.033063e-11 -1.274806e-11 -8.138879e-13) (1.238601e-12 -1.225487e-11 1.130440e-11)) ((1.238456e-12 -1.469549e-15 -9.630746e-16) (8.834033e-09 1.410138e-13 3.037390e-13))
315.927436    	((1.125282e-11 -1.229461e-11 1.204790e-13) (2.697204e-12 -1.281520e-11 1.084467e-11)) ((1.190341e-12 -1.450024e-15 -9.674985e-16) (8.549133e-09 1.219948e-13 3.200319e-13))
379.124923    	((1.117135e-11 -1.076907e-11 -4.719711e-14) (3.199243e-12 -1.286984e-11 1.025023e-11)) ((1.148161e-12 -1.306665e-15 -9.411623e-16) (8.290588e-09 1.118281e-13 3.177468e-13))
454.961908    	((1.172792e-11 -7.302526e-12 1.777046e-12) (3.591729e-12 -1.273530e-11 9.569639e-12)) ((1.111255e-12 -1.176545e-15 -1.019608e-15) (8.056573e-09 1.100776e-13 3.047945e-13))
545.966289    	((1.196075e-11 -3.437593e-12 5.022284e-12) (3.370408e-12 -1.229946e-11 9.345627e-12)) ((1.077743e-12 -1.142272e-15 -1.045928e-15) (7.845550e-09 1.128505e-13 2.901869e-13))
655.171547    	((1.530801e-11 -9.554592e-13 5.204587e-12) (2.894018e-12 -1.159778e-11 9.041490e-12)) ((1.046685e-12 -1.145655e-15 -1.038010e-15) (7.655893e-09 1.189257e-13 2.724716e-13))
786.217856    	((1.572778e-11 -6.674287e-13 3.099196e-12) (2.527320e-12 -1.108355e-11 8.690019e-12)) ((1.018642e-12 -1.025625e-15 -1.140523e-15) (7.486062e-09 1.109974e-13 2.553303e-13))
943.473427    	((1.539331e-11 -1.075011e-12 3.288709e-13) (2.403441e-12 -1.083317e-11 8.347908e-12)) ((9.938006e-13 -9.150959e-16 -1.182236e-15) (7.334617e-09 1.036786e-13 2.401312e-13))
1132.180113   	((1.478454e-11 -7.483477e-13 -6.023450e-13) (2.492167e-12 -1.047991e-11 7.886846e-12)) ((9.718963e-13 -8.421570e-16 -1.232342e-15) (7.200260e-09 1.022610e-13 2.194552e-13))
1358.628135   	((1.230102e-11 4.654979e-14 -1.143603e-12) (2.805518e-12 -1.029731e-11 7.362911e-12)) ((9.526644e-13 -8.001652e-16 -1.188263e-15) (7.081739e-09 1.018610e-13 2.068573e-13))
1625.673895   	((1.310305e-11 3.363045e-14 -1.180795e-12) (2.887396e-12 -1.000728e-11 6.729840e-12)) ((9.360881e-13 -8.407663e-16 -1.089852e-15) (6.977930e-09 9.245268e-14 2.014632e-13))
1933.318907   	((1.100029e-11 -5.115695e-13 -1.735951e-12) (2.569276e-12 -9.665418e-12 6.004743e-12)) ((9.218083e-13 -8.570834e-16 -9.939507e-16) (6.887648e-09 7.520333e-14 1.974619e-13))
2281.565138   	((7.500025e-12 -7.086238e-13 -1.724208e-12) (2.187697e-12 -9.230118e-12 5.286812e-12)) ((9.095041e-13 -8.741844e-16 -9.054289e-16) (6.809685e-09 5.889204e-14 1.939033e-13))
2670.414862   	((5.686141e-12 -2.380485e-13 -1.480660e-12) (1.773117e-12 -8.757102e-12 4.785325e-12)) ((8.988932e-13 -9.309041e-16 -8.115862e-16) (6.742729e-09 4.667079e-14 1.901006e-13))
3076.474324   	((4.408103e-12 2.768464e-13 -9.964798e-13) (1.559181e-12 -8.252939e-12 4.379196e-12)) ((8.900896e-13 -9.654848e-16 -7.444020e-16) (6.685689e-09 3.684576e-14 1.869527e-13))
3482.558333   	((3.732719e-12 1.096834e-12 -1.020796e-13) (1.436820e-12 -7.772699e-12 4.022296e-12)) ((8.826342e-13 -9.739683e-16 -6.917862e-16) (6.637392e-09 2.754035e-14 1.835666e-13))
3888.666099   	((3.136896e-12 1.848133e-12 7.084928e-13) (1.351280e-12 -7.312380e-12 3.727586e-12)) ((8.763706e-13 -9.955218e-16 -6.483715e-16) (6.596633e-09 2.252150e-14 1.770229e-13))
4294.796512   	((2.510541e-12 2.575395e-12 1.612612e-12) (1.154158e-12 -6.837271e-12 3.526754e-12)) ((8.711339e-13 -1.031697e-15 -6.199052e-16) (6.562246e-09 2.083673e-14 1.691256e-13))
4700.947591   	((1.928388e-12 3.056412e-12 2.150692e-12) (7.624107e-13 -6.364410e-12 3.412637e-12)) ((8.666629e-13 -1.032106e-15 -5.999029e-16) (6.533203e-09 2.003269e-14 1.629129e-13))
5107.117812   	((1.278603e-12 3.370934e-12 2.624784e-12) (3.593989e-13 -5.954434e-12 3.328143e-12)) ((8.628227e-13 -1.044826e-15 -5.913829e-16) (6.508631e-09 1.858791e-14 1.577916e-13))
5513.305575   	((5.171007e-13 3.653717e-12 3.059863e-12) (2.444091e-14 -5.597380e-12 3.269809e-12)) ((8.595493e-13 -1.059973e-15 -5.765917e-16) (6.487804e-09 1.735320e-14 1.530879e-13))
5919.509131   	((3.756826e-14 3.928321e-12 3.456845e-12) (-2.711982e-13 -5.268367e-12 3.234708e-12)) ((8.567348e-13 -1.071196e-15 -5.617023e-16) (6.470114e-09 1.676884e-14 1.484941e-13))
6325.726813   	((6.351127e-14 4.146583e-12 3.771569e-12) (-5.067535e-13 -4.977798e-12 3.219316e-12)) ((8.542835e-13 -1.080767e-15 -5.494379e-16) (6.455055e-09 1.655350e-14 1.444098e-13))
6731.957055   	((-5.819010e-14 4.343796e-12 3.898845e-12) (-6.506521e-13 -4.740629e-12 3.207948e-12)) ((8.522232e-13 -1.091815e-15 -5.424609e-16) (6.442211e-09 1.657245e-14 1.405384e-13))
7138.19837    	((5.930375e-14 4.448202e-12 3.954064e-12) (-7.290810e-13 -4.542360e-12 3.190310e-12)) ((8.504474e-13 -1.099496e-15 -5.383710e-16) (6.431233e-09 1.665904e-14 1.366448e-13))
7544.449426   	((-1.461141e-13 4.479195e-12 3.857693e-12) (-7.653472e-13 -4.374054e-12 3.165993e-12)) ((8.489236e-13 -1.104255e-15 -5.336058e-16) (6.421836e-09 1.688871e-14 1.332741e-13))
7950.709011   	((-2.909544e-13 4.493377e-12 3.851244e-12) (-7.618136e-13 -4.235074e-12 3.134165e-12)) ((8.476140e-13 -1.108251e-15 -5.287416e-16) (6.413783e-09 1.682398e-14 1.302753e-13))
8356.976071   	((-4.102492e-13 4.504447e-12 3.851278e-12) (-7.496338e-13 -4.118360e-12 3.102402e-12)) ((8.464867e-13 -1.111847e-15 -5.252914e-16) (6.406872e-09 1.683090e-14 1.277393e-13))
8763.249691   	((-4.523981e-13 4.511756e-12 3.840245e-12) (-7.448965e-13 -4.017258e-12 3.067573e-12)) ((8.455199e-13 -1.116116e-15 -5.219379e-16) (6.400936e-09 1.697756e-14 1.256891e-13))
9169.529056   	((-4.428845e-13 4.556885e-12 3.830413e-12) (-7.476597e-13 -3.927474e-12 3.034686e-12)) ((8.446876e-13 -1.118931e-15 -5.188024e-16) (6.395833e-09 1.712317e-14 1.239558e-13))
9575.813441   	((-4.676697e-13 4.586413e-12 3.844109e-12) (-7.642512e-13 -3.846869e-12 3.006266e-12)) ((8.439758e-13 -1.121397e-15 -5.154276e-16) (6.391443e-09 1.726804e-14 1.225154e-13))
