# Forces      
# CofR        : (0.000000e+00 0.000000e+00 0.000000e+00)
# Time        forces(pressure viscous)	moments(pressure viscous)
0             	((0.000000e+00 0.000000e+00 0.000000e+00) (1.105706e-15 -2.005204e-05 2.711702e-15)) ((0.000000e+00 0.000000e+00 0.000000e+00) (-1.305236e-16 3.624933e-18 7.223559e-12))
0.012         	((-4.511770e-10 -5.831534e-03 1.409333e-09) (1.238959e-11 -2.301339e-05 1.754209e-11)) ((-2.405822e-12 -3.668871e-14 1.101805e-09) (-1.971226e-13 -5.507481e-15 1.502940e-11))
0.0264        	((-1.206539e-07 4.013472e-04 -1.060644e-07) (-6.960958e-11 -2.348377e-05 -6.145225e-11)) ((5.390141e-12 -2.580856e-13 -7.327035e-11) (-5.740045e-14 6.050280e-14 2.037413e-11))
0.04368       	((7.068354e-08 1.221195e-03 1.169472e-07) (-7.825538e-11 -2.087192e-05 -3.938353e-11)) ((2.589873e-12 -3.329058e-13 -2.930535e-10) (6.894061e-13 7.169584e-14 1.759667e-11))
0.064416      	((5.623377e-09 1.157093e-05 -1.367886e-08) (-2.166671e-10 -1.848767e-05 -2.397818e-10)) ((-2.032575e-12 4.509219e-14 1.311744e-11) (-2.091595e-12 -3.133020e-15 2.225286e-11))
0.0892992     	((4.358479e-09 -1.623431e-05 -1.823537e-08) (-3.415547e-10 -1.706882e-05 -3.956064e-10)) ((-4.524714e-13 7.647471e-13 1.611591e-11) (-4.511279e-12 1.220736e-13 2.443968e-11))
0.119159      	((-5.449421e-09 1.822756e-05 -1.122232e-08) (-3.357330e-10 -1.576165e-05 -3.487113e-10)) ((-1.837707e-12 -4.794475e-14 -4.164654e-12) (-5.817637e-13 1.684846e-13 2.072173e-11))
0.154991      	((2.441957e-09 9.842765e-06 3.657716e-09) (-3.277851e-10 -1.437511e-05 -3.149727e-10)) ((-1.050300e-12 -1.913883e-13 -1.308148e-12) (3.119979e-12 9.156323e-14 1.460832e-11))
0.197989      	((5.186061e-09 2.384276e-06 2.242693e-09) (-2.424521e-10 -1.297517e-05 -1.875141e-10)) ((-1.298089e-12 1.424829e-13 -3.002349e-13) (1.997761e-12 2.030849e-13 3.029164e-12))
0.249587      	((1.646210e-10 -3.188254e-07 1.667075e-09) (-1.412602e-10 -1.160133e-05 -7.501384e-11)) ((-9.031779e-13 -6.100399e-14 9.531392e-13) (-7.434648e-15 5.486774e-13 -2.388313e-12))
0.311504      	((1.008116e-10 -1.556243e-06 6.964324e-10) (-4.096691e-11 -1.029463e-05 -1.218420e-11)) ((-5.802335e-13 5.463151e-15 1.516403e-12) (-9.356869e-13 6.046833e-13 -3.747487e-12))
0.385805      	((2.763689e-10 -2.147853e-06 2.702211e-10) (3.321605e-11 -9.088182e-06 2.382636e-11)) ((-4.177822e-13 1.080868e-14 1.265941e-12) (-1.701518e-12 4.405316e-13 -6.255082e-12))
0.474966      	((3.991267e-10 -2.427089e-06 7.869331e-10) (6.400206e-11 -8.006116e-06 3.252798e-11)) ((-2.491155e-13 2.548343e-14 1.039808e-12) (-1.782267e-12 4.019705e-13 -4.864080e-12))
0.581959      	((1.171531e-10 -2.539869e-06 2.936654e-10) (7.635500e-11 -7.058731e-06 3.077865e-11)) ((-1.626219e-13 1.926087e-14 8.761352e-13) (-1.601097e-12 3.520844e-13 1.087088e-12))
0.710351      	((1.276189e-10 -2.530327e-06 1.938941e-10) (9.777646e-11 -6.246336e-06 1.324740e-11)) ((-9.031528e-14 1.529272e-14 7.148724e-13) (-9.954568e-13 3.148886e-13 5.541030e-12))
0.864421      	((1.010624e-10 -2.439078e-06 8.412602e-12) (1.632758e-10 -5.558534e-06 4.302388e-12)) ((-4.909204e-14 1.548724e-14 7.323554e-13) (-7.404470e-13 2.245056e-13 5.405514e-12))
1.049306      	((1.396214e-10 -2.304709e-06 2.915805e-11) (2.184035e-10 -4.977850e-06 8.961954e-12)) ((-2.111932e-14 1.208415e-14 7.200226e-13) (-4.705808e-13 1.156568e-13 3.126003e-12))
1.271167      	((1.658097e-10 -2.155616e-06 4.615165e-12) (2.189756e-10 -4.486198e-06 1.838256e-11)) ((-7.162112e-15 9.178046e-15 6.552940e-13) (-2.907254e-13 8.659777e-14 1.184608e-12))
1.5374        	((1.730894e-10 -2.003309e-06 3.367492e-11) (1.826607e-10 -4.064398e-06 1.780357e-11)) ((-7.723479e-16 5.799238e-15 6.468002e-13) (-3.757356e-14 1.160631e-13 -3.302404e-13))
1.85688       	((1.577728e-10 -1.854535e-06 -5.919218e-12) (1.490620e-10 -3.695023e-06 1.326977e-11)) ((-2.368389e-15 3.633682e-15 6.540095e-13) (3.174438e-13 1.442980e-13 -7.666962e-13))
2.240256      	((7.399509e-11 -1.713306e-06 -1.145316e-11) (1.252168e-10 -3.366669e-06 1.319018e-11)) ((-5.957090e-15 2.815860e-15 6.575817e-13) (6.183547e-13 1.495636e-13 3.051404e-13))
2.700307      	((2.621744e-11 -1.581436e-06 -2.559801e-11) (1.003379e-10 -3.072258e-06 1.389756e-11)) ((-6.562962e-15 1.596653e-15 6.551850e-13) (9.449197e-13 1.500362e-13 2.391396e-12))
3.252369      	((4.703546e-11 -1.458437e-06 -3.918984e-11) (7.906282e-11 -2.807006e-06 1.519922e-11)) ((-6.691273e-15 1.862301e-15 6.105491e-13) (1.242500e-12 1.270624e-13 5.825213e-12))
3.914842      	((5.684658e-11 -1.342654e-06 -5.158072e-11) (7.962711e-11 -2.567389e-06 1.585344e-11)) ((-6.777406e-15 2.323427e-15 5.532096e-13) (1.524137e-12 8.808308e-14 9.236525e-12))
4.709811      	((6.493817e-11 -1.234912e-06 -2.409312e-11) (7.379671e-11 -2.350910e-06 1.429879e-11)) ((-6.617300e-15 3.377641e-15 4.935728e-13) (1.768503e-12 7.110997e-14 1.059116e-11))
5.663773      	((1.257417e-10 -1.135630e-06 2.630153e-11) (6.113998e-11 -2.155709e-06 1.230248e-11)) ((-8.174439e-15 3.329000e-15 4.449188e-13) (1.900568e-12 5.783617e-14 1.022216e-11))
6.808528      	((1.414225e-10 -1.044680e-06 3.594981e-11) (5.767173e-11 -1.980180e-06 9.867135e-12)) ((-9.624277e-15 1.717613e-15 3.908773e-13) (1.944773e-12 5.041684e-14 9.668461e-12))
8.182233      	((1.147994e-10 -9.616722e-07 6.333252e-12) (4.316657e-11 -1.822636e-06 9.037852e-12)) ((-8.838084e-15 1.670159e-15 3.364508e-13) (2.014151e-12 4.731308e-14 9.437231e-12))
9.83068       	((1.150520e-10 -8.863188e-07 -2.264888e-11) (2.228763e-11 -1.681115e-06 6.350167e-12)) ((-8.838465e-15 3.062173e-15 2.911852e-13) (2.458757e-12 3.956566e-14 8.729619e-12))
11.808816     	((1.049422e-10 -8.173827e-07 -3.105953e-11) (5.625324e-12 -1.553549e-06 5.137634e-12)) ((-6.866913e-15 3.674191e-15 2.519811e-13) (3.463754e-12 1.451468e-14 7.556756e-12))
14.182579     	((1.127911e-10 -7.543612e-07 -1.920227e-11) (-9.660398e-12 -1.438091e-06 7.101900e-12)) ((-6.494320e-15 2.897016e-15 2.183901e-13) (4.803772e-12 -3.067450e-14 6.234079e-12))
17.031095     	((5.908744e-11 -6.970242e-07 -5.138867e-11) (-1.908072e-11 -1.333177e-06 6.091870e-12)) ((-5.847762e-15 1.542615e-15 1.899567e-13) (6.534013e-12 -4.245104e-14 5.028016e-12))
20.449314     	((-3.626128e-11 -6.448178e-07 -1.184904e-10) (-2.345159e-11 -1.237629e-06 3.918848e-12)) ((-5.994618e-15 4.241179e-16 1.686856e-13) (8.463797e-12 -2.577166e-14 3.940342e-12))
24.551176     	((-8.272942e-11 -5.974076e-07 -1.513370e-10) (-1.839729e-11 -1.150592e-06 1.782134e-12)) ((-5.326743e-15 -6.763401e-16 1.519983e-13) (1.019136e-11 1.961965e-14 2.749933e-12))
29.473411     	((-6.454741e-11 -5.545628e-07 -1.209072e-10) (-1.419888e-11 -1.071426e-06 3.198446e-12)) ((-4.689465e-15 -1.112626e-15 1.377726e-13) (1.152608e-11 7.490483e-14 1.377664e-12))
35.380094     	((-5.843231e-11 -5.158264e-07 -1.086583e-10) (-1.168027e-11 -9.995786e-07 5.070775e-12)) ((-2.993911e-15 -5.838068e-16 1.278631e-13) (1.259552e-11 7.670164e-14 -6.345968e-14))
42.468112     	((-9.233179e-11 -4.811643e-07 -1.560064e-10) (-5.963878e-12 -9.345026e-07 3.781068e-12)) ((-1.888032e-15 5.065318e-17 1.210368e-13) (1.375687e-11 5.424641e-14 -1.825189e-12))
50.973735     	((-1.126944e-10 -4.502885e-07 -1.889529e-10) (-2.999060e-12 -8.756512e-07 1.122476e-12)) ((-2.067790e-15 4.838253e-16 1.153785e-13) (1.534001e-11 3.715761e-14 -3.951909e-12))
61.180482     	((-9.104833e-11 -4.229611e-07 -1.704071e-10) (-5.824747e-13 -8.224803e-07 1.977488e-12)) ((-2.574714e-15 5.735837e-16 1.117177e-13) (1.748045e-11 1.193417e-14 -6.707763e-12))
73.428578     	((-6.393601e-11 -3.989020e-07 -1.373002e-10) (1.916858e-12 -7.744630e-07 4.616976e-12)) ((-2.526177e-15 6.356351e-16 1.098695e-13) (2.019320e-11 -6.933308e-15 -1.003512e-11))
88.126294     	((-1.247341e-11 -3.779178e-07 -1.061140e-10) (7.411869e-12 -7.311087e-07 8.120773e-12)) ((-2.161975e-15 6.182259e-16 1.097474e-13) (2.334423e-11 -1.556955e-14 -1.388937e-11))
105.763553    	((3.739998e-11 -3.598168e-07 -6.093328e-11) (1.450825e-11 -6.919929e-07 1.262785e-11)) ((-1.908475e-15 8.798226e-16 1.108095e-13) (2.667632e-11 -3.519702e-14 -1.800812e-11))
126.928263    	((6.188817e-11 -3.445649e-07 -4.189761e-11) (2.099683e-11 -6.567938e-07 1.610668e-11)) ((-1.866190e-15 1.185557e-15 1.113736e-13) (2.993454e-11 -4.957233e-14 -2.208617e-11))
152.325916    	((8.183386e-11 -3.319284e-07 -1.824935e-11) (2.568028e-11 -6.252579e-07 1.847097e-11)) ((-2.113099e-15 1.239353e-15 1.131126e-13) (3.281864e-11 -5.975971e-14 -2.576617e-11))
182.803099    	((9.461186e-11 -3.217978e-07 1.855647e-12) (2.719367e-11 -5.971739e-07 2.026345e-11)) ((-2.047578e-15 1.323194e-15 1.159651e-13) (3.515345e-11 -6.841009e-14 -2.879517e-11))
219.375719    	((1.202889e-10 -3.138856e-07 3.538897e-11) (2.793826e-11 -5.723628e-07 2.167389e-11)) ((-2.059351e-15 1.271671e-15 1.204058e-13) (3.691351e-11 -5.571963e-14 -3.111393e-11))
263.262863    	((1.568258e-10 -3.080189e-07 8.277530e-11) (3.223454e-11 -5.506612e-07 2.402232e-11)) ((-2.144888e-15 1.401344e-15 1.266067e-13) (3.805064e-11 -2.367676e-14 -3.265843e-11))
315.927436    	((1.732337e-10 -3.040548e-07 1.041557e-10) (3.795957e-11 -5.319196e-07 2.580622e-11)) ((-2.172326e-15 1.357438e-15 1.337069e-13) (3.851286e-11 -1.998863e-15 -3.350262e-11))
379.124923    	((1.706264e-10 -3.017380e-07 1.201968e-10) (4.287333e-11 -5.159758e-07 2.679232e-11)) ((-2.250883e-15 1.391305e-15 1.403982e-13) (3.831950e-11 2.012851e-14 -3.371790e-11))
454.961908    	((1.714855e-10 -3.005856e-07 1.313522e-10) (4.714643e-11 -5.026219e-07 2.735910e-11)) ((-2.398617e-15 1.694860e-15 1.466093e-13) (3.751604e-11 3.434702e-14 -3.333665e-11))
545.966289    	((1.874491e-10 -3.001457e-07 1.464562e-10) (5.340147e-11 -4.915865e-07 2.950385e-11)) ((-2.403450e-15 1.800296e-15 1.510980e-13) (3.620867e-11 3.186390e-14 -3.242045e-11))
653.224432    	((1.942637e-10 -3.000831e-07 1.502565e-10) (6.147021e-11 -4.825831e-07 3.372329e-11)) ((-2.182704e-15 1.710237e-15 1.535298e-13) (3.453809e-11 2.747747e-14 -3.106184e-11))
776.736085    	((1.933264e-10 -3.000539e-07 1.490573e-10) (7.104056e-11 -4.752784e-07 4.095989e-11)) ((-1.937524e-15 1.710458e-15 1.548986e-13) (3.264552e-11 2.971548e-14 -2.940572e-11))
916.510465    	((1.853276e-10 -2.999410e-07 1.443546e-10) (8.185135e-11 -4.693592e-07 4.992405e-11)) ((-1.848977e-15 1.630355e-15 1.557176e-13) (3.070369e-11 3.570072e-14 -2.761728e-11))
1072.563333   	((1.727298e-10 -2.997558e-07 1.338478e-10) (9.273371e-11 -4.645544e-07 5.947166e-11)) ((-1.977716e-15 1.579623e-15 1.562288e-13) (2.881406e-11 3.946829e-14 -2.584462e-11))
1235.524465   	((1.566145e-10 -2.996145e-07 1.203383e-10) (1.019946e-10 -4.606810e-07 6.783462e-11)) ((-2.045126e-15 1.512258e-15 1.565297e-13) (2.704531e-11 4.233494e-14 -2.419147e-11))
1398.648685   	((1.401174e-10 -2.994673e-07 1.043252e-10) (1.096338e-10 -4.575574e-07 7.422126e-11)) ((-2.086252e-15 1.386384e-15 1.566448e-13) (2.539776e-11 4.339587e-14 -2.261556e-11))
1561.913909   	((1.214592e-10 -2.993236e-07 8.738657e-11) (1.150850e-10 -4.550422e-07 7.881376e-11)) ((-2.259144e-15 1.251076e-15 1.567784e-13) (2.385872e-11 4.266763e-14 -2.113170e-11))
1725.298489   	((1.025657e-10 -2.991917e-07 7.022524e-11) (1.185641e-10 -4.530166e-07 8.157265e-11)) ((-2.448609e-15 1.125771e-15 1.569077e-13) (2.243579e-11 4.146609e-14 -1.974956e-11))
1888.783623   	((8.468983e-11 -2.990739e-07 5.351000e-11) (1.203247e-10 -4.513855e-07 8.269930e-11)) ((-2.631902e-15 1.040802e-15 1.570739e-13) (2.113806e-11 3.903382e-14 -1.848092e-11))
2052.353123   	((6.769166e-11 -2.989727e-07 3.681495e-11) (1.206611e-10 -4.500716e-07 8.246039e-11)) ((-2.770030e-15 9.566464e-16 1.572425e-13) (1.996402e-11 3.583296e-14 -1.733142e-11))
2215.993094   	((5.238188e-11 -2.988855e-07 2.212598e-11) (1.198361e-10 -4.490128e-07 8.120510e-11)) ((-2.872164e-15 8.844950e-16 1.573901e-13) (1.891037e-11 3.241818e-14 -1.630146e-11))
2379.691664   	((3.843535e-11 -2.988112e-07 8.185453e-12) (1.180973e-10 -4.481584e-07 7.916189e-11)) ((-2.986923e-15 8.213327e-16 1.575198e-13) (1.797494e-11 2.892759e-14 -1.538937e-11))
2543.438815   	((2.587093e-11 -2.987486e-07 -4.316963e-12) (1.157286e-10 -4.474682e-07 7.659346e-11)) ((-3.094900e-15 7.668007e-16 1.576194e-13) (1.715093e-11 2.619711e-14 -1.458622e-11))
2707.226125   	((1.447322e-11 -2.986963e-07 -1.560251e-11) (1.129889e-10 -4.469102e-07 7.375097e-11)) ((-3.186158e-15 7.249333e-16 1.577304e-13) (1.642794e-11 2.408870e-14 -1.388237e-11))
2871.046552   	((4.541753e-12 -2.986530e-07 -2.532967e-11) (1.100595e-10 -4.464586e-07 7.080221e-11)) ((-3.275131e-15 6.892608e-16 1.578287e-13) (1.579849e-11 2.232108e-14 -1.327105e-11))
3034.894231   	((-4.172307e-12 -2.986176e-07 -3.376409e-11) (1.070772e-10 -4.460929e-07 6.782909e-11)) ((-3.345366e-15 6.597890e-16 1.578900e-13) (1.525542e-11 2.090974e-14 -1.274338e-11))
3198.764314   	((-1.158515e-11 -2.985878e-07 -4.111296e-11) (1.041711e-10 -4.457967e-07 6.495062e-11)) ((-3.408407e-15 6.337695e-16 1.579392e-13) (1.478829e-11 1.978103e-14 -1.229014e-11))
3362.652801   	((-1.786727e-11 -2.985633e-07 -4.733339e-11) (1.014182e-10 -4.455564e-07 6.223063e-11)) ((-3.461108e-15 6.131907e-16 1.579884e-13) (1.438930e-11 1.878054e-14 -1.190286e-11))
3526.556393   	((-2.315493e-11 -2.985430e-07 -5.263310e-11) (9.888125e-11 -4.453616e-07 5.971027e-11)) ((-3.509603e-15 5.977169e-16 1.580334e-13) (1.405024e-11 1.793703e-14 -1.157308e-11))
3690.472372   	((-2.758594e-11 -2.985263e-07 -5.696208e-11) (9.658560e-11 -4.452035e-07 5.742841e-11)) ((-3.547954e-15 5.847826e-16 1.580703e-13) (1.376314e-11 1.722177e-14 -1.129349e-11))
3854.398504   	((-3.121368e-11 -2.985128e-07 -6.056151e-11) (9.453538e-11 -4.450751e-07 5.538710e-11)) ((-3.578984e-15 5.735558e-16 1.581039e-13) (1.352125e-11 1.666117e-14 -1.105795e-11))
4018.332954   	((-3.426997e-11 -2.985019e-07 -6.360917e-11) (9.272609e-11 -4.449708e-07 5.358999e-11)) ((-3.604890e-15 5.645671e-16 1.581331e-13) (1.331831e-11 1.626620e-14 -1.086041e-11))
4182.27421    	((-3.676195e-11 -2.984920e-07 -6.612389e-11) (9.115240e-11 -4.448860e-07 5.202452e-11)) ((-3.626411e-15 5.573756e-16 1.581595e-13) (1.314847e-11 1.598011e-14 -1.069534e-11))
4346.221036   	((-3.878388e-11 -2.984848e-07 -6.810049e-11) (8.980054e-11 -4.448172e-07 5.067932e-11)) ((-3.644449e-15 5.515089e-16 1.581812e-13) (1.300698e-11 1.576846e-14 -1.055785e-11))
4510.172415   	((-4.046891e-11 -2.984784e-07 -6.983635e-11) (8.864921e-11 -4.447611e-07 4.952565e-11)) ((-3.658775e-15 5.462248e-16 1.582002e-13) (1.288935e-11 1.559397e-14 -1.044353e-11))
4674.127515   	((-4.182479e-11 -2.984733e-07 -7.118446e-11) (8.767667e-11 -4.447156e-07 4.854958e-11)) ((-3.670356e-15 5.423333e-16 1.582163e-13) (1.279193e-11 1.544491e-14 -1.034886e-11))
4838.085651   	((-4.293724e-11 -2.984692e-07 -7.229658e-11) (8.686277e-11 -4.446785e-07 4.772785e-11)) ((-3.680213e-15 5.392133e-16 1.582297e-13) (1.271141e-11 1.530987e-14 -1.027051e-11))
5002.046264   	((-4.382566e-11 -2.984656e-07 -7.319493e-11) (8.618599e-11 -4.446483e-07 4.704301e-11)) ((-3.688664e-15 5.363340e-16 1.582409e-13) (1.264490e-11 1.519177e-14 -1.020580e-11))
5166.008899   	((-4.454474e-11 -2.984628e-07 -7.391537e-11) (8.562861e-11 -4.446237e-07 4.647761e-11)) ((-3.695638e-15 5.345071e-16 1.582505e-13) (1.259009e-11 1.508957e-14 -1.015244e-11))
5329.973178   	((-4.512896e-11 -2.984605e-07 -7.450385e-11) (8.517113e-11 -4.446037e-07 4.601229e-11)) ((-3.701504e-15 5.328972e-16 1.582582e-13) (1.254502e-11 1.500805e-14 -1.010854e-11))
5493.938799   	((-4.559563e-11 -2.984588e-07 -7.490728e-11) (8.479709e-11 -4.445874e-07 4.563309e-11)) ((-3.705813e-15 5.314678e-16 1.582642e-13) (1.250796e-11 1.493826e-14 -1.007245e-11))
5657.905513   	((-4.595898e-11 -2.984572e-07 -7.527879e-11) (8.449294e-11 -4.445741e-07 4.532377e-11)) ((-3.710279e-15 5.308821e-16 1.582692e-13) (1.247753e-11 1.488490e-14 -1.004284e-11))
5821.873117   	((-4.628942e-11 -2.984560e-07 -7.562206e-11) (8.424560e-11 -4.445633e-07 4.507187e-11)) ((-3.713559e-15 5.299851e-16 1.582730e-13) (1.245256e-11 1.483973e-14 -1.001854e-11))
5985.841446   	((-4.655449e-11 -2.984551e-07 -7.589960e-11) (8.404555e-11 -4.445545e-07 4.486807e-11)) ((-3.716322e-15 5.292341e-16 1.582762e-13) (1.243207e-11 1.480304e-14 -9.998602e-12))
6149.810364   	((-4.677585e-11 -2.984544e-07 -7.614088e-11) (8.388328e-11 -4.445473e-07 4.470270e-11)) ((-3.718691e-15 5.286792e-16 1.582788e-13) (1.241526e-11 1.477281e-14 -9.982250e-12))
6313.779764   	((-4.695316e-11 -2.984538e-07 -7.632443e-11) (8.375199e-11 -4.445415e-07 4.456902e-11)) ((-3.720582e-15 5.282175e-16 1.582809e-13) (1.240147e-11 1.474804e-14 -9.968838e-12))
6477.749556   	((-4.710109e-11 -2.984533e-07 -7.648281e-11) (8.364570e-11 -4.445367e-07 4.446070e-11)) ((-3.722209e-15 5.278764e-16 1.582826e-13) (1.239014e-11 1.472722e-14 -9.957821e-12))
6641.719668   	((-4.722391e-11 -2.984529e-07 -7.660839e-11) (8.355940e-11 -4.445328e-07 4.437283e-11)) ((-3.723514e-15 5.275568e-16 1.582840e-13) (1.238084e-11 1.470929e-14 -9.948771e-12))
6805.690041   	((-4.735000e-11 -2.984524e-07 -7.676440e-11) (8.348867e-11 -4.445297e-07 4.430044e-11)) ((-3.723620e-15 5.272688e-16 1.582854e-13) (1.237320e-11 1.469062e-14 -9.941336e-12))
6969.660625   	((-4.743626e-11 -2.984518e-07 -7.682618e-11) (8.343188e-11 -4.445271e-07 4.424451e-11)) ((-3.725781e-15 5.266269e-16 1.582860e-13) (1.236692e-11 1.467945e-14 -9.935234e-12))
7133.631381   	((-4.749481e-11 -2.984518e-07 -7.685833e-11) (8.338492e-11 -4.445250e-07 4.419548e-11)) ((-3.726611e-15 5.265131e-16 1.582871e-13) (1.236174e-11 1.467063e-14 -9.930195e-12))
