# Forces      
# CofR        : (0.000000e+00 0.000000e+00 0.000000e+00)
# Time        forces(pressure viscous)	moments(pressure viscous)
0             	((0.000000e+00 0.000000e+00 0.000000e+00) (0.000000e+00 0.000000e+00 0.000000e+00)) ((0.000000e+00 0.000000e+00 0.000000e+00) (0.000000e+00 0.000000e+00 0.000000e+00))
0.012         	((9.279230e-10 -1.429005e-07 -2.874663e-10) (1.240505e-11 -3.647443e-09 1.203320e-11)) ((3.736117e-14 -2.431200e-14 3.260059e-09) (-1.479255e-14 3.012859e-13 4.417714e-06))
0.0264        	((2.333422e-09 -2.122403e-08 -5.589686e-12) (3.498732e-11 -5.382543e-09 2.152181e-11)) ((-2.380403e-14 2.938098e-13 1.510159e-09) (-8.524507e-16 8.372353e-13 4.046902e-06))
0.04368       	((3.099047e-09 -6.762273e-08 -1.061836e-09) (1.874182e-11 -5.713324e-09 3.073686e-11)) ((7.822366e-14 3.685349e-13 8.424836e-10) (2.490323e-14 1.518756e-12 3.666224e-06))
0.064416      	((3.817140e-09 7.889975e-09 7.930362e-10) (-5.164604e-11 -4.995722e-09 5.165239e-11)) ((1.100599e-14 2.117649e-13 4.745867e-10) (1.022575e-13 2.331415e-12 3.284661e-06))
0.0892992     	((2.136134e-09 -3.057595e-08 -9.350737e-10) (-1.248391e-10 -4.237357e-09 8.137534e-11)) ((1.125087e-13 4.950909e-13 3.697408e-10) (3.041999e-13 3.356732e-12 2.913956e-06))
0.119159      	((5.682432e-11 2.783306e-09 -6.502946e-11) (-1.680515e-10 -3.579858e-09 1.059557e-10)) ((5.127202e-14 3.384885e-13 2.883922e-10) (6.107711e-13 4.198301e-12 2.565972e-06))
0.154991      	((-1.012824e-10 -1.609670e-08 -1.035814e-10) (-1.647451e-10 -3.412056e-09 1.210530e-10)) ((7.474496e-14 2.866063e-13 2.435775e-10) (9.955967e-13 4.639252e-12 2.248998e-06))
0.197989      	((-8.236974e-10 -6.127520e-09 -3.223934e-10) (-1.102248e-10 -3.220557e-09 1.251891e-10)) ((7.915175e-14 2.757126e-13 2.015299e-10) (1.072238e-12 4.750773e-12 1.968615e-06))
0.249587      	((-9.412786e-11 -8.341011e-09 -3.302532e-10) (-6.217722e-11 -2.987942e-09 1.263051e-10)) ((4.562692e-14 2.012106e-13 1.674738e-10) (9.167330e-13 4.807772e-12 1.726992e-06))
0.311504      	((1.095133e-09 -8.177833e-09 -3.071043e-10) (-2.152438e-11 -2.775290e-09 1.191452e-10)) ((4.121252e-14 9.680249e-14 1.390964e-10) (6.297684e-13 4.546465e-12 1.522940e-06))
0.385805      	((1.978841e-09 -9.067893e-09 7.820766e-12) (-5.404534e-11 -2.560017e-09 1.122765e-10)) ((3.176128e-14 7.380759e-14 1.180559e-10) (2.799355e-13 4.231036e-12 1.351997e-06))
0.474966      	((-1.252224e-09 -1.058299e-08 -9.397416e-11) (-1.440290e-10 -2.302742e-09 1.232822e-10)) ((5.442006e-14 6.551586e-14 1.025151e-10) (-2.797104e-13 4.272655e-12 1.207937e-06))
0.581959      	((-1.288285e-11 -8.106662e-09 1.212242e-10) (-2.789782e-10 -2.046913e-09 1.250267e-10)) ((-1.100333e-14 -8.105131e-15 8.712996e-11) (-3.743599e-13 3.849182e-12 1.085104e-06))
0.710351      	((2.323388e-09 -6.080862e-09 -1.395253e-10) (-4.113326e-10 -1.566318e-09 1.121556e-10)) ((1.463691e-15 -1.071995e-13 7.182623e-11) (5.080430e-13 3.043764e-12 9.789347e-07))
0.864421      	((5.497582e-09 -6.560128e-09 -2.506137e-10) (-4.940030e-10 -9.585292e-10 8.963070e-11)) ((-5.378984e-14 -1.784321e-13 6.108425e-11) (1.453832e-12 2.338278e-12 8.859759e-07))
1.049306      	((5.176068e-09 -7.867612e-09 -1.907823e-10) (-5.508017e-10 -5.613568e-10 5.870406e-11)) ((-9.156381e-14 -2.523997e-13 5.436011e-11) (1.451437e-12 1.470269e-12 8.036528e-07))
1.271167      	((6.643535e-09 -7.410490e-09 -1.808043e-10) (-7.573758e-10 -3.877662e-10 3.103761e-11)) ((-2.257820e-13 -3.100667e-13 4.933631e-11) (1.678924e-12 1.695747e-12 7.300771e-07))
1.5374        	((3.110378e-09 -1.035019e-08 1.086106e-10) (-9.236990e-10 -1.249900e-10 3.222469e-11)) ((-3.819739e-13 -3.701317e-13 4.400543e-11) (3.229385e-12 4.668547e-12 6.640198e-07))
1.85688       	((4.054096e-09 -1.131280e-08 -5.104964e-11) (-7.355918e-10 -3.297899e-11 2.902777e-11)) ((-4.859895e-13 -3.374950e-13 3.882437e-11) (4.810470e-12 8.514310e-12 6.048124e-07))
2.240256      	((3.442358e-09 -9.700183e-09 5.533498e-10) (-7.204882e-10 -1.160845e-10 -1.382507e-11)) ((-4.772936e-13 -2.826154e-13 3.503364e-11) (7.575192e-12 1.086989e-11 5.521053e-07))
2.700307      	((5.567204e-09 -8.961531e-09 3.882257e-10) (-5.307028e-10 -4.390908e-12 -5.598580e-11)) ((-5.358803e-13 -2.737666e-13 3.157506e-11) (1.143234e-11 1.235186e-11 5.055731e-07))
3.252369      	((5.288407e-09 -5.661242e-09 3.450425e-10) (-5.163297e-10 8.691552e-11 -7.943091e-11)) ((-4.985786e-13 -1.134922e-13 2.795751e-11) (1.384738e-11 1.271114e-11 4.647237e-07))
3.914842      	((3.256795e-09 -8.792513e-10 7.936145e-11) (-5.908512e-10 1.643814e-10 -5.916225e-11)) ((-3.475998e-13 1.905450e-14 2.414302e-11) (1.301185e-11 1.300632e-11 4.288758e-07))
4.709811      	((3.743440e-09 1.397509e-09 3.325276e-10) (-6.118252e-10 6.548586e-10 -5.899067e-11)) ((-3.037593e-13 6.036117e-14 2.082972e-11) (1.100919e-11 1.468389e-11 3.972259e-07))
5.663773      	((6.859498e-10 2.072812e-09 2.496140e-10) (-5.180192e-10 8.867600e-10 -9.106649e-11)) ((-1.554812e-13 1.371103e-13 1.791628e-11) (9.785812e-12 1.442472e-11 3.689582e-07))
6.808528      	((1.857392e-09 1.357530e-09 5.379320e-10) (-5.082478e-10 7.655645e-10 -1.152989e-10)) ((-6.249594e-14 1.316479e-13 1.573031e-11) (5.922225e-12 1.274568e-11 3.433997e-07))
8.182233      	((1.012244e-09 1.483944e-09 3.094372e-10) (-3.237028e-10 8.392302e-10 -1.557905e-10)) ((-1.209871e-13 1.824494e-13 1.414961e-11) (2.344866e-12 1.098727e-11 3.201072e-07))
9.83068       	((1.763472e-09 6.201375e-10 4.309051e-11) (-3.354311e-10 7.354795e-10 -1.870738e-10)) ((-1.131693e-13 1.461938e-13 1.294870e-11) (2.697947e-12 9.132286e-12 2.987588e-07))
11.808816     	((1.144259e-09 2.514747e-10 -1.005729e-10) (-5.631714e-10 7.562882e-10 -1.826750e-10)) ((-4.012387e-14 1.741167e-13 1.188554e-11) (3.986436e-12 6.569241e-12 2.790760e-07))
14.182579     	((1.241662e-09 -1.634821e-10 -1.936133e-10) (-7.016224e-10 5.364808e-10 -1.963258e-10)) ((2.591750e-14 1.712231e-13 1.110493e-11) (4.571962e-12 4.142938e-12 2.608831e-07))
17.031095     	((4.280447e-10 1.072506e-09 -9.353182e-11) (-7.470035e-10 1.431908e-10 -1.862728e-10)) ((6.173486e-14 1.637345e-13 1.048023e-11) (4.798337e-12 1.254255e-12 2.441317e-07))
20.449314     	((-2.921147e-10 -1.359346e-11 -7.252993e-12) (-7.700199e-10 1.444664e-10 -1.602039e-10)) ((1.025549e-13 1.221561e-13 9.852723e-12) (5.339565e-12 -1.571874e-12 2.288234e-07))
24.551176     	((-9.141496e-10 -1.443488e-11 1.448891e-11) (-7.537817e-10 1.783515e-10 -1.404135e-10)) ((1.498535e-13 8.674524e-14 9.316100e-12) (5.956072e-12 -3.823810e-12 2.149399e-07))
29.473411     	((-1.085796e-09 -5.601587e-11 -6.258867e-11) (-4.807877e-10 -1.764011e-11 -1.274942e-10)) ((1.764851e-13 7.998974e-14 8.907836e-12) (6.977188e-12 -5.257195e-12 2.024215e-07))
35.380094     	((-7.262509e-10 -5.228626e-10 5.227166e-11) (-1.793765e-10 -2.708928e-10 -8.369288e-11)) ((1.591526e-13 1.054254e-13 8.584021e-12) (7.768704e-12 -6.050484e-12 1.911542e-07))
42.468112     	((-8.019501e-10 -7.374341e-10 -4.014393e-11) (-9.887142e-11 -1.850469e-10 -5.502648e-11)) ((1.177135e-13 1.175663e-13 8.266601e-12) (8.909181e-12 -5.099604e-12 1.810051e-07))
50.973735     	((-4.573798e-10 -7.396731e-10 -4.758944e-11) (-2.648353e-11 2.782467e-11 -3.032299e-11)) ((1.174987e-13 1.238919e-13 7.888620e-12) (9.100946e-12 -4.492083e-12 1.718340e-07))
61.180482     	((-6.352923e-10 -5.669628e-10 -1.509284e-10) (4.899070e-11 1.859290e-10 -2.879094e-11)) ((1.117331e-13 1.221585e-13 7.494433e-12) (7.996219e-12 -4.863158e-12 1.635295e-07))
73.428578     	((-1.111372e-10 -2.318566e-10 -2.108230e-11) (2.932682e-12 3.287727e-10 -5.688551e-13)) ((1.361193e-13 9.269209e-14 7.020043e-12) (5.968197e-12 -5.166686e-12 1.560140e-07))
88.126294     	((-3.813538e-10 -4.120594e-10 -1.483737e-10) (-8.262955e-11 2.050368e-10 3.506281e-12)) ((1.424139e-13 8.079773e-14 6.740724e-12) (3.523004e-12 -5.103188e-12 1.492420e-07))
105.763553    	((-2.545173e-10 -7.517396e-10 -3.353807e-11) (-5.324189e-11 9.165890e-11 1.167805e-11)) ((1.381698e-13 7.102236e-14 6.510776e-12) (1.923834e-12 -4.366382e-12 1.431856e-07))
126.623899    	((-6.131922e-10 -1.050174e-09 -1.478835e-10) (-2.269541e-10 9.846670e-11 1.769779e-11)) ((1.276607e-13 7.526809e-14 6.397737e-12) (-2.716093e-14 -3.621010e-12 1.378507e-07))
150.706717    	((-6.017326e-10 -1.176432e-09 -8.543191e-11) (-3.362292e-10 -2.169361e-11 9.927288e-12)) ((1.097018e-13 8.293667e-14 6.298646e-12) (-2.109713e-12 -3.044455e-12 1.332317e-07))
178.011323    	((-8.241257e-10 -1.478337e-09 -1.310325e-10) (-3.844369e-10 -1.183793e-10 -3.785708e-12)) ((9.633860e-14 8.926973e-14 6.175633e-12) (-3.775020e-12 -2.741154e-12 1.292878e-07))
208.536921    	((-6.895675e-10 -1.415989e-09 -2.932109e-11) (-3.347396e-10 -8.239207e-11 9.882147e-12)) ((8.299790e-14 9.024213e-14 6.005987e-12) (-4.502217e-12 -3.101073e-12 1.259659e-07))
240.737286    	((-6.175515e-10 -1.303073e-09 -1.223677e-10) (-2.651979e-10 -7.917422e-11 1.408681e-11)) ((7.902760e-14 9.427787e-14 5.855821e-12) (-4.171244e-12 -3.981807e-12 1.232598e-07))
272.927139    	((-4.184993e-10 -1.076565e-09 -1.280693e-10) (-1.642350e-10 1.186347e-11 1.808776e-11)) ((7.306137e-14 9.732876e-14 5.751635e-12) (-3.527436e-12 -4.887234e-12 1.211322e-07))
305.10626     	((-3.610861e-10 -9.723153e-10 -1.139898e-10) (-2.361654e-11 9.534330e-11 3.048893e-11)) ((6.091191e-14 9.433980e-14 5.670135e-12) (-2.870141e-12 -5.406612e-12 1.195066e-07))
337.274213    	((-2.569298e-10 -7.249083e-10 -6.446725e-11) (6.876963e-11 8.439689e-11 3.380651e-11)) ((4.843491e-14 9.054488e-14 5.609790e-12) (-2.246494e-12 -5.481752e-12 1.183087e-07))
369.430589    	((-2.709919e-10 -5.712398e-10 -2.137668e-11) (1.614002e-10 3.513478e-11 3.244400e-11)) ((3.786150e-14 8.875317e-14 5.541077e-12) (-1.841580e-12 -5.412115e-12 1.174672e-07))
401.575349    	((-1.990395e-10 -3.863358e-10 -6.344585e-12) (2.100698e-10 5.682398e-11 2.794519e-11)) ((2.975606e-14 9.124501e-14 5.468834e-12) (-1.566590e-12 -5.085770e-12 1.169239e-07))
433.70882     	((-2.246823e-10 -3.180200e-10 -1.888462e-11) (1.905919e-10 9.474608e-11 1.372274e-11)) ((2.223434e-14 9.218060e-14 5.396829e-12) (-1.366002e-12 -4.878059e-12 1.166308e-07))
465.831263    	((-1.870637e-10 -2.623869e-10 -1.720444e-11) (1.142243e-10 1.300314e-10 2.511018e-12)) ((1.522311e-14 8.969139e-14 5.339413e-12) (-1.224903e-12 -4.826347e-12 1.165485e-07))
497.942927    	((-1.584715e-10 -2.717590e-10 -2.530768e-11) (2.470240e-11 1.817591e-10 -9.778001e-12)) ((7.888789e-15 8.910661e-14 5.297300e-12) (-1.191613e-12 -4.944826e-12 1.166423e-07))
530.044314    	((-1.207501e-10 -2.104582e-10 -2.504702e-11) (-1.500813e-11 2.148012e-10 -2.154966e-11)) ((2.815988e-15 8.718980e-14 5.263732e-12) (-1.186922e-12 -5.281956e-12 1.168818e-07))
562.135967    	((-5.369994e-11 -1.700489e-10 -1.148056e-12) (-3.813837e-11 2.565914e-10 -3.151757e-11)) ((-9.845534e-16 8.619887e-14 5.241101e-12) (-1.137098e-12 -5.703646e-12 1.172414e-07))
594.218238    	((-1.227265e-11 -1.201410e-10 -2.217852e-12) (-5.469325e-11 3.005232e-10 -3.881492e-11)) ((-3.222052e-15 8.679698e-14 5.221796e-12) (-9.081554e-13 -5.969871e-12 1.176979e-07))
626.291531    	((3.792970e-11 -1.214216e-10 -2.599555e-11) (-5.685627e-11 3.200125e-10 -4.101195e-11)) ((-5.340341e-15 8.715023e-14 5.201082e-12) (-5.683623e-13 -6.128154e-12 1.182299e-07))
658.356416    	((6.452184e-11 -1.124621e-10 -4.907500e-11) (-4.125868e-11 3.224306e-10 -4.389551e-11)) ((-6.511277e-15 8.811800e-14 5.185395e-12) (-2.330621e-13 -6.304149e-12 1.188171e-07))
690.413521    	((8.491644e-11 -7.278891e-11 -4.003067e-11) (-2.272557e-11 3.163547e-10 -4.551540e-11)) ((-7.203844e-15 8.920318e-14 5.171323e-12) (7.033599e-14 -6.418598e-12 1.194403e-07))
722.463394    	((8.380591e-11 -4.871980e-11 -3.599464e-11) (-1.168970e-12 3.069951e-10 -4.556220e-11)) ((-7.022939e-15 9.003646e-14 5.167003e-12) (2.905662e-13 -6.452719e-12 1.200822e-07))
754.506741    	((9.980145e-11 -4.234429e-11 -3.078785e-11) (1.392915e-11 2.996414e-10 -4.158294e-11)) ((-6.592127e-15 9.090926e-14 5.170719e-12) (3.961295e-13 -6.400479e-12 1.207273e-07))
