# Forces      
# CofR        : (0.000000e+00 0.000000e+00 0.000000e+00)
# Time        forces(pressure viscous)	moments(pressure viscous)
0             	((0.000000e+00 0.000000e+00 0.000000e+00) (1.813725e-15 -4.000935e-05 -2.587379e-15)) ((0.000000e+00 0.000000e+00 0.000000e+00) (1.221404e-16 -1.827821e-17 1.445316e-11))
0.012         	((-1.487713e-09 -1.163585e-02 1.814291e-09) (2.431840e-11 -4.591512e-05 3.427755e-11)) ((-4.760935e-12 -6.874284e-14 2.198571e-09) (-3.938014e-13 -5.547488e-15 3.003584e-11))
0.0264        	((-2.558833e-07 8.063177e-04 -2.108833e-07) (-1.505611e-10 -4.684739e-05 -1.229010e-10)) ((1.051936e-11 -6.857880e-13 -1.431556e-10) (-1.309571e-13 1.298417e-13 4.068189e-11))
0.04368       	((1.670822e-07 2.433796e-03 2.362684e-07) (-1.898565e-10 -4.163152e-05 -7.680017e-11)) ((5.318584e-12 -5.026768e-13 -5.893266e-10) (1.356662e-12 1.617742e-13 3.521970e-11))
0.064416      	((-3.915120e-09 2.305815e-05 -3.021254e-08) (-3.863621e-10 -3.687359e-05 -4.873241e-10)) ((-4.178917e-12 3.884020e-14 3.012499e-11) (-4.269169e-12 7.866760e-15 4.479998e-11))
0.0892992     	((1.696502e-08 -3.178672e-05 -3.308027e-08) (-6.482927e-10 -3.404220e-05 -7.957146e-10)) ((-4.065011e-13 1.517808e-12 3.074912e-11) (-8.333735e-12 -2.645517e-13 4.806178e-11))
0.119159      	((-1.498702e-08 3.654397e-05 -2.168397e-08) (-7.050140e-10 -3.143455e-05 -6.849970e-10)) ((-3.565370e-12 -1.311435e-13 -8.864575e-12) (-3.255008e-14 -7.537090e-13 4.060660e-11))
0.154991      	((2.683231e-10 1.964342e-05 8.026516e-09) (-6.860354e-10 -2.867074e-05 -5.947007e-10)) ((-1.841357e-12 -5.197479e-13 -2.090207e-12) (7.005165e-12 -4.079704e-13 2.944610e-11))
0.197989      	((1.386670e-08 4.748499e-06 4.138371e-09) (-5.312597e-10 -2.588325e-05 -3.609649e-10)) ((-2.208406e-12 -1.194251e-13 -5.160983e-13) (4.185756e-12 -2.752538e-13 1.107588e-11))
0.249587      	((8.282451e-10 -6.509322e-07 3.762686e-09) (-3.362057e-10 -2.315054e-05 -1.634110e-10)) ((-1.594124e-12 -3.501935e-13 1.848616e-12) (-3.460434e-14 -2.262014e-13 2.468315e-12))
0.311504      	((-2.063722e-09 -3.123811e-06 1.593026e-10) (-1.499180e-10 -2.055505e-05 -3.073242e-11)) ((-1.010795e-12 -9.051523e-14 2.792456e-12) (-1.422974e-12 -7.013534e-14 -4.872921e-12))
0.385805      	((3.984164e-11 -4.305682e-06 1.323173e-09) (8.069750e-12 -1.816324e-05 5.868138e-11)) ((-8.041937e-13 -2.656685e-14 2.214232e-12) (-2.717497e-12 -2.454663e-13 -1.373902e-11))
0.474966      	((7.944836e-10 -4.876823e-06 1.028656e-09) (9.961233e-11 -1.602072e-05 8.292158e-11)) ((-4.761577e-13 -1.393581e-14 1.833895e-12) (-3.880985e-12 -3.005501e-13 -9.006603e-12))
0.581959      	((1.077415e-09 -5.111245e-06 9.594373e-10) (1.464777e-10 -1.414385e-05 7.550702e-11)) ((-2.922586e-13 1.227469e-14 1.527323e-12) (-5.042420e-12 -3.042618e-13 2.839639e-12))
0.710351      	((6.954484e-10 -5.094474e-06 4.059302e-10) (1.920244e-10 -1.253050e-05 4.319259e-11)) ((-1.626123e-13 2.387389e-14 1.289892e-12) (-4.235692e-12 -1.671755e-13 6.328851e-12))
0.864421      	((4.495695e-10 -4.912086e-06 3.551749e-10) (2.562557e-10 -1.116008e-05 3.432775e-11)) ((-7.569751e-14 1.867566e-14 1.379453e-12) (-3.013203e-12 1.571941e-15 4.003936e-12))
1.049306      	((3.693699e-10 -4.642058e-06 1.039869e-10) (2.901627e-10 -9.998892e-06 3.885085e-11)) ((-3.110606e-14 1.448189e-14 1.394600e-12) (-1.831653e-12 1.098368e-13 1.792003e-12))
1.271167      	((4.274966e-10 -4.340612e-06 1.118146e-10) (3.110771e-10 -9.011918e-06 3.855803e-11)) ((-1.002971e-14 8.887743e-15 1.275044e-12) (-6.714670e-13 2.005150e-13 1.612193e-12))
1.5374        	((4.672638e-10 -4.031052e-06 4.393180e-11) (3.072817e-10 -8.162381e-06 3.414044e-11)) ((-3.481520e-15 8.308279e-15 1.244501e-12) (1.229766e-13 2.654269e-13 3.145140e-12))
1.85688       	((5.928671e-10 -3.727333e-06 -3.624467e-12) (2.716154e-10 -7.417192e-06 2.840606e-11)) ((-9.225854e-15 3.407405e-15 1.229639e-12) (7.426750e-13 3.652978e-13 5.276375e-12))
2.240256      	((4.048734e-10 -3.438127e-06 -7.181944e-11) (1.879070e-10 -6.754781e-06 1.937285e-11)) ((-1.198322e-14 4.865259e-15 1.203058e-12) (1.434164e-12 4.676115e-13 9.221721e-12))
2.700307      	((1.524252e-10 -3.167645e-06 -1.292347e-10) (1.005890e-10 -6.161523e-06 2.448875e-11)) ((-1.447352e-14 2.526478e-15 1.187858e-12) (2.178731e-12 4.561856e-13 1.424030e-11))
3.252369      	((2.712468e-11 -2.915522e-06 -1.578244e-10) (7.501792e-11 -5.627765e-06 2.593244e-11)) ((-1.278513e-14 3.710010e-15 1.128734e-12) (2.974761e-12 3.948953e-13 1.806673e-11))
3.914842      	((3.990400e-11 -2.679329e-06 -8.246322e-11) (1.068997e-10 -5.146347e-06 2.268824e-11)) ((-1.501347e-14 3.246475e-15 1.037343e-12) (3.551917e-12 3.847298e-13 2.001585e-11))
4.709811      	((1.415471e-10 -2.460727e-06 4.611187e-11) (1.157396e-10 -4.711980e-06 2.832331e-11)) ((-1.448612e-14 4.254492e-15 9.207824e-13) (3.757713e-12 3.266944e-13 1.978742e-11))
5.663773      	((2.615964e-10 -2.259846e-06 1.100600e-10) (9.969148e-11 -4.320681e-06 2.788654e-11)) ((-1.708547e-14 3.997652e-15 8.209842e-13) (3.610103e-12 2.620011e-13 1.706737e-11))
6.808528      	((3.254029e-10 -2.076474e-06 1.514993e-10) (1.166964e-10 -3.969037e-06 2.617010e-11)) ((-1.801721e-14 2.556512e-15 7.086560e-13) (3.466475e-12 2.116307e-13 1.632093e-11))
8.182233      	((3.211086e-10 -1.909874e-06 8.206532e-11) (9.827213e-11 -3.653432e-06 2.341833e-11)) ((-1.536307e-14 2.826933e-15 6.041830e-13) (3.652443e-12 1.972719e-13 1.701722e-11))
9.83068       	((2.118577e-10 -1.759203e-06 -5.896190e-11) (5.271481e-11 -3.369906e-06 1.591725e-11)) ((-1.557329e-14 4.154437e-15 5.203380e-13) (4.322950e-12 1.862091e-13 1.749926e-11))
11.808816     	((8.703711e-11 -1.622598e-06 -1.512462e-10) (3.625898e-11 -3.114502e-06 7.053762e-12)) ((-1.276296e-14 5.883031e-15 4.506309e-13) (5.634363e-12 1.310627e-13 1.735858e-11))
14.182579     	((3.147302e-11 -1.498907e-06 -2.357820e-10) (1.608608e-11 -2.883615e-06 -2.824560e-12)) ((-1.298643e-14 5.070969e-15 3.923025e-13) (8.038253e-12 2.836505e-14 1.546434e-11))
17.031095     	((-2.680409e-11 -1.387562e-06 -3.241100e-10) (-2.781044e-13 -2.674261e-06 -1.475205e-11)) ((-1.270577e-14 3.698581e-15 3.450808e-13) (1.116946e-11 -7.222367e-14 1.175048e-11))
20.449314     	((-8.523695e-11 -1.287966e-06 -4.575348e-10) (-2.081256e-11 -2.484237e-06 -2.822592e-11)) ((-1.165136e-14 2.952550e-15 3.123065e-13) (1.431880e-11 -1.108299e-13 6.435867e-12))
24.551176     	((-1.799007e-10 -1.199445e-06 -5.711184e-10) (-4.704295e-11 -2.311899e-06 -4.335670e-11)) ((-1.131655e-14 1.803816e-15 2.940342e-13) (1.705558e-11 -1.742019e-13 1.459477e-12))
29.473411     	((-1.380440e-10 -1.121926e-06 -5.018219e-10) (-5.669746e-11 -2.155960e-06 -5.361332e-11)) ((-1.101981e-14 5.875758e-16 2.792652e-13) (1.894124e-11 -1.950842e-13 -1.672608e-12))
35.380094     	((-4.482124e-11 -1.054298e-06 -3.745291e-10) (-4.925538e-11 -2.015271e-06 -5.558020e-11)) ((-8.586295e-15 8.293410e-16 2.776429e-13) (2.057557e-11 -1.672711e-13 -4.256472e-12))
42.468112     	((-1.909242e-10 -9.963521e-07 -4.486047e-10) (-5.154227e-11 -1.888742e-06 -6.060995e-11)) ((-1.017889e-14 1.576324e-15 2.830564e-13) (2.253610e-11 -9.813235e-14 -6.577606e-12))
50.973735     	((-2.931608e-10 -9.472377e-07 -5.007742e-10) (-6.825298e-11 -1.775342e-06 -7.265550e-11)) ((-1.080372e-14 1.714769e-15 2.937642e-13) (2.521523e-11 -7.782254e-14 -9.440995e-12))
61.180482     	((-3.241873e-10 -9.068986e-07 -4.852290e-10) (-8.410529e-11 -1.674046e-06 -8.684082e-11)) ((-1.152289e-14 1.878362e-15 3.110544e-13) (2.864701e-11 -6.312984e-14 -1.324195e-11))
73.428578     	((-2.721632e-10 -8.747203e-07 -4.066612e-10) (-9.742357e-11 -1.583949e-06 -9.209582e-11)) ((-1.192158e-14 2.075360e-15 3.347812e-13) (3.251661e-11 -5.197546e-14 -1.764743e-11))
88.126294     	((-2.100647e-10 -8.505818e-07 -3.216219e-10) (-1.066330e-10 -1.504289e-06 -9.411263e-11)) ((-1.251834e-14 2.231123e-15 3.646179e-13) (3.649958e-11 -3.686279e-14 -2.234818e-11))
105.763553    	((-1.372372e-10 -8.336770e-07 -2.559654e-10) (-1.166188e-10 -1.434392e-06 -9.762668e-11)) ((-1.203997e-14 2.205591e-15 3.961791e-13) (4.049637e-11 -4.878875e-14 -2.715527e-11))
126.928263    	((-9.987497e-11 -8.234429e-07 -1.901994e-10) (-1.219275e-10 -1.373703e-06 -9.686581e-11)) ((-1.253504e-14 1.458938e-15 4.293599e-13) (4.409986e-11 -3.090982e-14 -3.132953e-11))
152.325916    	((-6.328506e-11 -8.194917e-07 -1.472649e-10) (-1.228058e-10 -1.321768e-06 -9.752764e-11)) ((-1.259838e-14 7.043418e-16 4.649693e-13) (4.685319e-11 -3.533122e-14 -3.435986e-11))
182.803099    	((-2.587730e-12 -8.205727e-07 -7.318332e-11) (-1.251680e-10 -1.278151e-06 -9.890699e-11)) ((-1.184182e-14 -3.541859e-16 5.017479e-13) (4.845016e-11 -3.020049e-14 -3.633340e-11))
219.375719    	((1.053703e-10 -8.250805e-07 3.008094e-11) (-1.281840e-10 -1.242284e-06 -9.319570e-11)) ((-1.144142e-14 -6.575928e-16 5.370172e-13) (4.880945e-11 -3.000568e-15 -3.745284e-11))
262.832409    	((1.758471e-10 -8.312712e-07 1.138582e-10) (-1.191592e-10 -1.213415e-06 -8.306142e-11)) ((-1.060497e-14 -2.614891e-16 5.651994e-13) (4.799120e-11 3.409616e-16 -3.745179e-11))
313.147617    	((2.556164e-10 -8.372630e-07 1.970325e-10) (-1.030938e-10 -1.190466e-06 -6.783572e-11)) ((-9.664011e-15 -3.979516e-17 5.838902e-13) (4.621916e-11 -1.128946e-14 -3.627444e-11))
370.307791    	((3.273839e-10 -8.414796e-07 2.868759e-10) (-7.641518e-11 -1.172155e-06 -4.196415e-11)) ((-8.699519e-15 3.546691e-16 5.952842e-13) (4.382445e-11 -2.651533e-14 -3.424557e-11))
434.313671    	((3.823675e-10 -8.437023e-07 3.495392e-10) (-4.304858e-11 -1.157336e-06 -9.718735e-12)) ((-7.491221e-15 4.884316e-17 6.047048e-13) (4.121991e-11 -4.622311e-14 -3.181210e-11))
502.855869    	((3.973454e-10 -8.448074e-07 3.748947e-10) (-9.411948e-12 -1.145277e-06 2.404951e-11)) ((-7.094192e-15 -6.580837e-16 6.124092e-13) (3.862427e-11 -9.936945e-14 -2.939749e-11))
571.490019    	((3.940011e-10 -8.454583e-07 3.699812e-10) (2.076442e-11 -1.135493e-06 5.316116e-11)) ((-6.767444e-15 -1.193800e-15 6.179772e-13) (3.611033e-11 -1.521798e-13 -2.708595e-11))
640.195758    	((3.786249e-10 -8.456239e-07 3.532295e-10) (4.717419e-11 -1.127468e-06 7.853790e-11)) ((-6.769639e-15 -1.565490e-15 6.217474e-13) (3.365752e-11 -1.981660e-13 -2.482122e-11))
708.956869    	((3.441881e-10 -8.457020e-07 3.193343e-10) (6.784110e-11 -1.120910e-06 9.805782e-11)) ((-7.077989e-15 -1.898316e-15 6.255943e-13) (3.131654e-11 -2.347364e-13 -2.261181e-11))
777.763862    	((3.013408e-10 -8.456732e-07 2.755479e-10) (8.151850e-11 -1.115533e-06 1.106322e-10)) ((-7.397868e-15 -2.194356e-15 6.285953e-13) (2.909852e-11 -2.620333e-13 -2.049055e-11))
846.610503    	((2.539434e-10 -8.455960e-07 2.293807e-10) (9.000403e-11 -1.111130e-06 1.184256e-10)) ((-7.511633e-15 -2.363998e-15 6.313403e-13) (2.698399e-11 -2.794937e-13 -1.846500e-11))
915.491135    	((2.025297e-10 -8.454851e-07 1.775541e-10) (9.333634e-11 -1.107516e-06 1.210688e-10)) ((-7.888814e-15 -2.589755e-15 6.335719e-13) (2.502432e-11 -2.912612e-13 -1.656694e-11))
984.400544    	((1.492323e-10 -8.453630e-07 1.244657e-10) (9.228075e-11 -1.104546e-06 1.196634e-10)) ((-8.210937e-15 -2.713847e-15 6.354416e-13) (2.323086e-11 -2.976601e-13 -1.483277e-11))
1053.33413    	((9.759475e-11 -8.452435e-07 7.200571e-11) (8.823897e-11 -1.102097e-06 1.151200e-10)) ((-8.483631e-15 -2.864142e-15 6.370766e-13) (2.160422e-11 -3.003860e-13 -1.324088e-11))
1122.28799    	((4.869883e-11 -8.451295e-07 2.334008e-11) (8.216847e-11 -1.100076e-06 1.087706e-10)) ((-8.774963e-15 -3.024770e-15 6.383843e-13) (2.011875e-11 -3.019061e-13 -1.178868e-11))
1191.258853   	((3.800452e-12 -8.450277e-07 -2.288454e-11) (7.411819e-11 -1.098407e-06 1.004923e-10)) ((-9.038141e-15 -3.109217e-15 6.394103e-13) (1.878834e-11 -3.035520e-13 -1.049104e-11))
1260.243979   	((-3.728561e-11 -8.449371e-07 -6.394364e-11) (6.499596e-11 -1.097028e-06 9.149405e-11)) ((-9.301840e-15 -3.205433e-15 6.402293e-13) (1.760736e-11 -3.042514e-13 -9.346270e-12))
1329.241073   	((-7.411966e-11 -8.448553e-07 -1.011422e-10) (5.549042e-11 -1.095886e-06 8.197080e-11)) ((-9.465405e-15 -3.289795e-15 6.408987e-13) (1.656353e-11 -3.054029e-13 -8.336400e-12))
1398.248202   	((-1.071188e-10 -8.447855e-07 -1.335990e-10) (4.589984e-11 -1.094941e-06 7.236895e-11)) ((-9.674302e-15 -3.336725e-15 6.413975e-13) (1.565311e-11 -3.065949e-13 -7.448912e-12))
1467.263746   	((-1.356441e-10 -8.447213e-07 -1.620512e-10) (3.660015e-11 -1.094158e-06 6.313020e-11)) ((-9.830981e-15 -3.395129e-15 6.418157e-13) (1.485559e-11 -3.072222e-13 -6.674383e-12))
1536.286341   	((-1.605474e-10 -8.446658e-07 -1.865751e-10) (2.785544e-11 -1.093508e-06 5.438884e-11)) ((-9.940500e-15 -3.443628e-15 6.421627e-13) (1.416323e-11 -3.072963e-13 -5.999560e-12))
1605.31484    	((-1.817716e-10 -8.446196e-07 -2.073860e-10) (1.980722e-11 -1.092968e-06 4.634920e-11)) ((-1.005160e-14 -3.485035e-15 6.424733e-13) (1.356696e-11 -3.071355e-13 -5.417076e-12))
1674.348282   	((-1.997277e-10 -8.445768e-07 -2.250954e-10) (1.255207e-11 -1.092520e-06 3.913066e-11)) ((-1.014777e-14 -3.516640e-15 6.427236e-13) (1.305305e-11 -3.068818e-13 -4.914642e-12))
1743.38586    	((-2.147169e-10 -8.445438e-07 -2.399325e-10) (6.098229e-12 -1.092147e-06 3.272921e-11)) ((-1.023312e-14 -3.538706e-15 6.429354e-13) (1.261347e-11 -3.064732e-13 -4.485664e-12))
1812.426897   	((-2.272795e-10 -8.445122e-07 -2.522478e-10) (4.224407e-13 -1.091837e-06 2.711556e-11)) ((-1.031480e-14 -3.557409e-15 6.431088e-13) (1.224149e-11 -3.062217e-13 -4.121914e-12))
1881.470825   	((-2.378517e-10 -8.444871e-07 -2.628055e-10) (-4.523276e-12 -1.091578e-06 2.221121e-11)) ((-1.038587e-14 -3.573996e-15 6.432518e-13) (1.192815e-11 -3.062237e-13 -3.813942e-12))
1950.517169   	((-2.465355e-10 -8.444640e-07 -2.713776e-10) (-8.769811e-12 -1.091363e-06 1.801626e-11)) ((-1.043107e-14 -3.585722e-15 6.433696e-13) (1.166373e-11 -3.062513e-13 -3.553881e-12))
2019.56553    	((-2.537262e-10 -8.444459e-07 -2.784117e-10) (-1.239042e-11 -1.091184e-06 1.447518e-11)) ((-1.046222e-14 -3.592917e-15 6.434722e-13) (1.143980e-11 -3.063224e-13 -3.334258e-12))
2088.615574   	((-2.596271e-10 -8.444299e-07 -2.843327e-10) (-1.545632e-11 -1.091035e-06 1.149443e-11)) ((-1.049004e-14 -3.598805e-15 6.435566e-13) (1.125094e-11 -3.064101e-13 -3.149226e-12))
2157.667022   	((-2.644775e-10 -8.444172e-07 -2.891641e-10) (-1.801506e-11 -1.090911e-06 9.006492e-12)) ((-1.050832e-14 -3.603614e-15 6.436254e-13) (1.109194e-11 -3.064642e-13 -2.993548e-12))
2226.719641   	((-2.684718e-10 -8.444059e-07 -2.930450e-10) (-2.014162e-11 -1.090807e-06 6.933493e-12)) ((-1.052135e-14 -3.607965e-15 6.436832e-13) (1.095857e-11 -3.065555e-13 -2.862568e-12))
2295.773236   	((-2.718004e-10 -8.443965e-07 -2.964537e-10) (-2.189954e-11 -1.090721e-06 5.204759e-12)) ((-1.053656e-14 -3.611325e-15 6.437312e-13) (1.084673e-11 -3.066422e-13 -2.752373e-12))
2364.827643   	((-2.745648e-10 -8.443884e-07 -2.992798e-10) (-2.334697e-11 -1.090649e-06 3.773513e-12)) ((-1.055038e-14 -3.614682e-15 6.437719e-13) (1.075298e-11 -3.067141e-13 -2.659844e-12))
2433.882728   	((-2.767784e-10 -8.443823e-07 -3.015641e-10) (-2.453701e-11 -1.090588e-06 2.592673e-12)) ((-1.056128e-14 -3.618376e-15 6.438079e-13) (1.067465e-11 -3.067514e-13 -2.582524e-12))
2502.938378   	((-2.786519e-10 -8.443769e-07 -3.035251e-10) (-2.551918e-11 -1.090538e-06 1.615005e-12)) ((-1.056971e-14 -3.621696e-15 6.438388e-13) (1.060907e-11 -3.067882e-13 -2.517884e-12))
2571.994498   	((-2.802627e-10 -8.443719e-07 -3.051746e-10) (-2.633242e-11 -1.090496e-06 8.035840e-13)) ((-1.057733e-14 -3.624121e-15 6.438631e-13) (1.055428e-11 -3.068165e-13 -2.463790e-12))
2641.051011   	((-2.816358e-10 -8.443675e-07 -3.065931e-10) (-2.700456e-11 -1.090461e-06 1.284352e-13)) ((-1.058363e-14 -3.625660e-15 6.438830e-13) (1.050834e-11 -3.068442e-13 -2.418403e-12))
2710.107851   	((-2.828174e-10 -8.443640e-07 -3.077915e-10) (-2.756347e-11 -1.090432e-06 -4.366458e-13)) ((-1.058821e-14 -3.627166e-15 6.438994e-13) (1.046993e-11 -3.068627e-13 -2.380333e-12))
2779.164965   	((-2.838261e-10 -8.443612e-07 -3.088327e-10) (-2.802834e-11 -1.090408e-06 -9.084755e-13)) ((-1.059236e-14 -3.628412e-15 6.439130e-13) (1.043769e-11 -3.068824e-13 -2.348374e-12))
2848.222306   	((-2.846888e-10 -8.443589e-07 -3.096909e-10) (-2.841657e-11 -1.090388e-06 -1.303936e-12)) ((-1.059579e-14 -3.629583e-15 6.439243e-13) (1.041061e-11 -3.069016e-13 -2.321489e-12))
2917.279838   	((-2.854243e-10 -8.443570e-07 -3.104254e-10) (-2.874271e-11 -1.090371e-06 -1.637385e-12)) ((-1.059890e-14 -3.630511e-15 6.439336e-13) (1.038789e-11 -3.069190e-13 -2.298923e-12))
2986.33753    	((-2.861436e-10 -8.443543e-07 -3.112125e-10) (-2.901986e-11 -1.090357e-06 -1.921562e-12)) ((-1.060170e-14 -3.631894e-15 6.439412e-13) (1.036874e-11 -3.069352e-13 -2.279910e-12))
3055.395354   	((-2.865496e-10 -8.443534e-07 -3.115526e-10) (-2.925096e-11 -1.090345e-06 -2.156729e-12)) ((-1.060410e-14 -3.631897e-15 6.439482e-13) (1.035259e-11 -3.069432e-13 -2.263887e-12))
3124.453291   	((-2.870317e-10 -8.443523e-07 -3.120315e-10) (-2.945096e-11 -1.090335e-06 -2.360594e-12)) ((-1.060590e-14 -3.632415e-15 6.439537e-13) (1.033899e-11 -3.069520e-13 -2.250353e-12))
3193.51132    	((-2.873960e-10 -8.443515e-07 -3.123821e-10) (-2.961869e-11 -1.090327e-06 -2.530462e-12)) ((-1.060732e-14 -3.632923e-15 6.439583e-13) (1.032753e-11 -3.069560e-13 -2.238957e-12))
3262.569428   	((-2.877371e-10 -8.443506e-07 -3.127357e-10) (-2.976406e-11 -1.090320e-06 -2.677608e-12)) ((-1.060861e-14 -3.633321e-15 6.439620e-13) (1.031788e-11 -3.069573e-13 -2.229354e-12))
3331.627601   	((-2.881214e-10 -8.443500e-07 -3.131108e-10) (-2.988969e-11 -1.090314e-06 -2.803766e-12)) ((-1.060833e-14 -3.633722e-15 6.439650e-13) (1.030973e-11 -3.069571e-13 -2.221256e-12))
3400.685828   	((-2.883206e-10 -8.443486e-07 -3.132018e-10) (-2.999169e-11 -1.090309e-06 -2.903950e-12)) ((-1.061000e-14 -3.635016e-15 6.439681e-13) (1.030288e-11 -3.069558e-13 -2.214456e-12))
3469.744101   	((-2.884940e-10 -8.443485e-07 -3.134405e-10) (-3.008112e-11 -1.090305e-06 -2.995463e-12)) ((-1.061088e-14 -3.634855e-15 6.439701e-13) (1.029716e-11 -3.069583e-13 -2.208757e-12))
3538.802411   	((-2.885967e-10 -8.443483e-07 -3.134056e-10) (-3.015676e-11 -1.090302e-06 -3.067775e-12)) ((-1.061135e-14 -3.634524e-15 6.439710e-13) (1.029233e-11 -3.069555e-13 -2.203918e-12))
3607.860754   	((-2.886966e-10 -8.443483e-07 -3.136706e-10) (-3.022159e-11 -1.090299e-06 -3.136441e-12)) ((-1.061184e-14 -3.634455e-15 6.439728e-13) (1.028827e-11 -3.069511e-13 -2.199883e-12))
