# Forces      
# CofR        : (0.000000e+00 0.000000e+00 0.000000e+00)
# Time        forces(pressure viscous)	moments(pressure viscous)
0             	((0.000000e+00 0.000000e+00 0.000000e+00) (2.490437e-13 -5.036594e-03 -3.190361e-13)) ((0.000000e+00 0.000000e+00 0.000000e+00) (1.567395e-14 -2.231643e-15 1.585602e-09))
0.012         	((-2.895854e-06 -1.475705e+00 -2.632770e-06) (2.483099e-09 -5.948376e-03 -1.335693e-08)) ((1.859539e-11 -1.747971e-11 2.696102e-07) (8.120797e-11 7.848018e-14 1.797038e-09))
0.0264        	((5.070705e-06 2.459934e-01 -1.271946e-06) (-5.230910e-08 -5.949450e-03 -3.383198e-08)) ((-3.889474e-09 -6.273559e-10 -1.960837e-08) (-9.183143e-10 1.205008e-11 -1.141785e-09))
0.04368       	((5.407085e-06 2.258067e-01 2.156817e-05) (-1.114735e-07 -5.140669e-03 -2.384872e-08)) ((2.525932e-09 3.201711e-10 -8.190828e-08) (-8.743817e-10 1.281128e-11 -5.179469e-09))
0.064416      	((-7.516601e-06 7.595286e-05 -1.300575e-05) (-5.978328e-09 -4.529387e-03 -3.480084e-08)) ((3.055430e-10 5.821163e-11 1.389881e-08) (-3.773846e-10 2.911221e-11 -8.080279e-09))
0.0892992     	((-3.847283e-06 1.828368e-03 -7.480590e-06) (-2.202818e-07 -4.166990e-03 -5.756180e-08)) ((-1.837670e-10 -7.440476e-11 -1.208955e-09) (-6.800603e-10 4.131072e-11 -1.211924e-08))
0.119159      	((-8.937591e-06 1.768318e-03 -8.652457e-07) (-7.544268e-07 -3.862438e-03 -4.431096e-08)) ((-3.476805e-10 3.533848e-12 -3.680717e-10) (-1.019154e-09 3.216693e-11 -1.600254e-08))
0.154991      	((-1.397232e-05 -3.554891e-04 -3.171480e-06) (-1.147459e-06 -3.584417e-03 -1.965489e-08)) ((-3.973313e-10 2.950176e-11 -8.605036e-10) (-7.456072e-10 -2.499391e-11 -1.784679e-08))
0.197989      	((-6.300984e-06 -1.036308e-03 -6.625490e-07) (-1.463835e-06 -3.341837e-03 -5.466683e-09)) ((-2.062195e-10 5.637558e-11 -7.784026e-10) (-2.680946e-10 1.265591e-12 -1.650404e-08))
0.249587      	((-9.482162e-06 -1.400031e-03 -5.931690e-07) (-1.539668e-06 -3.135701e-03 -4.552950e-09)) ((-1.138867e-10 1.652793e-13 -4.801011e-12) (-3.919202e-10 1.344461e-11 -1.793372e-08))
0.311504      	((-2.913943e-06 -1.629236e-03 -1.483991e-07) (-1.288427e-06 -2.956148e-03 -1.207099e-08)) ((-5.022536e-11 7.032585e-12 1.692410e-09) (-2.902486e-10 -7.530092e-13 -2.159752e-08))
0.385805      	((-3.361487e-06 -1.764072e-03 -1.737594e-07) (-1.038610e-06 -2.790194e-03 -2.211170e-08)) ((-2.675563e-11 -3.428909e-12 1.887615e-09) (-1.423019e-10 2.479055e-12 -2.544542e-08))
0.474966      	((-2.399650e-06 -1.874174e-03 -3.830295e-08) (-9.566899e-07 -2.629647e-03 -3.516661e-08)) ((-2.603368e-11 -1.554842e-12 2.265924e-09) (1.045450e-10 2.084248e-11 -2.683273e-08))
0.581959      	((-2.443758e-06 -2.003410e-03 -2.021018e-07) (-8.701782e-07 -2.474174e-03 -3.569727e-08)) ((-3.608341e-11 -8.122209e-12 2.861005e-09) (3.094248e-10 1.867553e-11 -2.674772e-08))
0.710351      	((-1.232893e-06 -2.176585e-03 -2.811173e-07) (-6.867376e-07 -2.327128e-03 -3.529792e-08)) ((-3.071676e-11 -1.927160e-11 3.802153e-09) (6.342467e-11 1.594941e-11 -2.796199e-08))
0.864421      	((-3.863081e-08 -2.415683e-03 -3.169339e-07) (-5.125952e-07 -2.191366e-03 -4.098279e-08)) ((-3.680856e-11 -2.515162e-11 4.779533e-09) (-3.200917e-10 3.834536e-11 -2.953565e-08))
1.049306      	((8.526560e-07 -2.737336e-03 -4.247974e-07) (-3.075337e-07 -2.068588e-03 -2.994159e-08)) ((-4.363933e-11 -1.742192e-11 6.068503e-09) (-5.290173e-10 4.077524e-11 -3.274705e-08))
1.266302      	((2.799202e-06 -3.152652e-03 -1.319162e-07) (-5.447521e-09 -1.961477e-03 -9.840072e-09)) ((-4.597341e-11 -5.428278e-12 7.593094e-09) (-6.117169e-10 4.275320e-11 -3.970280e-08))
1.515139      	((4.718112e-06 -3.661828e-03 9.013391e-08) (2.745093e-07 -1.870713e-03 -6.574556e-09)) ((-3.317480e-11 -2.065480e-12 9.341343e-09) (-6.971138e-10 4.836641e-11 -4.926792e-08))
1.795552      	((5.980086e-06 -4.261250e-03 5.778787e-07) (4.546816e-07 -1.795369e-03 -1.498585e-08)) ((-6.696194e-12 -3.811973e-12 1.125446e-08) (-9.227733e-10 6.503102e-11 -6.182805e-08))
2.10722       	((7.388351e-06 -4.936217e-03 8.738031e-07) (4.127268e-07 -1.734316e-03 -1.966508e-08)) ((6.614362e-12 -2.060944e-11 1.346269e-08) (-6.261827e-10 1.278705e-10 -7.451355e-08))
2.415833      	((7.837361e-06 -5.613899e-03 1.426603e-06) (3.295616e-07 -1.686856e-03 -3.319866e-08)) ((2.090455e-11 -2.453664e-11 1.536380e-08) (8.769424e-10 1.209722e-10 -8.318971e-08))
2.720313      	((8.919754e-06 -6.255400e-03 2.463930e-06) (3.168758e-07 -1.648302e-03 -4.974644e-08)) ((5.817784e-11 -1.822390e-11 1.687784e-08) (2.921812e-09 1.107520e-10 -8.872896e-08))
3.021113      	((1.186458e-05 -6.827655e-03 4.392510e-06) (2.862851e-07 -1.617188e-03 -3.746057e-08)) ((6.055807e-11 -5.570389e-11 1.826948e-08) (4.361947e-09 8.515076e-11 -9.431238e-08))
3.319724      	((1.372493e-05 -7.267461e-03 5.729648e-06) (1.727743e-07 -1.591221e-03 2.878843e-08)) ((4.407344e-11 -1.134787e-10 2.013413e-08) (3.305486e-09 8.362702e-11 -9.630114e-08))
3.61767       	((1.598747e-05 -7.557619e-03 7.323175e-06) (1.292442e-07 -1.568989e-03 1.292038e-07)) ((2.425991e-11 -1.023556e-10 2.219075e-08) (9.022630e-10 2.794342e-11 -9.417599e-08))
3.915577      	((1.845149e-05 -7.702460e-03 8.323868e-06) (1.800202e-07 -1.548588e-03 2.166707e-07)) ((2.272627e-11 -1.016921e-10 2.428296e-08) (-1.049207e-09 8.000817e-11 -9.220247e-08))
4.213224      	((2.038687e-05 -7.701665e-03 8.386141e-06) (2.481067e-07 -1.529474e-03 2.447916e-07)) ((1.792811e-11 -9.115854e-11 2.586590e-08) (-9.885058e-10 1.552809e-10 -8.921532e-08))
4.510007      	((2.301326e-05 -7.564110e-03 1.005844e-05) (3.701280e-07 -1.511597e-03 2.580900e-07)) ((5.611875e-11 -1.097150e-10 2.651349e-08) (4.925885e-10 1.256583e-10 -8.291738e-08))
4.805484      	((2.561332e-05 -7.400376e-03 1.138030e-05) (5.095037e-07 -1.494683e-03 2.860730e-07)) ((8.358262e-11 -9.557690e-11 2.642858e-08) (1.963307e-09 1.330993e-10 -7.649650e-08))
5.099714      	((2.873188e-05 -7.276019e-03 1.304833e-05) (6.695072e-07 -1.479705e-03 3.564270e-07)) ((9.927152e-11 -6.427752e-11 2.608536e-08) (1.921105e-09 1.201258e-10 -6.903586e-08))
5.392989      	((3.103527e-05 -7.213568e-03 1.455195e-05) (8.466078e-07 -1.468044e-03 4.478072e-07)) ((1.018876e-10 -6.892732e-11 2.592778e-08) (1.493254e-09 1.483172e-10 -6.199683e-08))
5.685448      	((3.368065e-05 -7.187635e-03 1.707627e-05) (1.043685e-06 -1.459052e-03 5.353564e-07)) ((9.018555e-11 -8.534389e-11 2.600899e-08) (1.431900e-09 1.713477e-11 -5.631527e-08))
5.977088      	((3.778751e-05 -7.159128e-03 1.900381e-05) (1.284728e-06 -1.451136e-03 6.357743e-07)) ((9.286752e-11 -9.665063e-11 2.646580e-08) (1.231503e-09 -2.617604e-10 -5.087166e-08))
6.267881      	((4.218605e-05 -7.117109e-03 2.057271e-05) (1.513765e-06 -1.443207e-03 7.296994e-07)) ((1.365390e-10 -1.527809e-10 2.694648e-08) (1.555966e-09 -2.089567e-10 -4.701257e-08))
6.557846      	((4.587097e-05 -7.049449e-03 2.230954e-05) (1.710133e-06 -1.434726e-03 8.007178e-07)) ((1.369660e-10 -1.664815e-10 2.718138e-08) (2.726175e-09 4.887187e-11 -4.437928e-08))
6.847042      	((5.128503e-05 -6.968510e-03 2.453159e-05) (1.889584e-06 -1.425943e-03 8.536920e-07)) ((1.306253e-10 -1.699813e-10 2.725220e-08) (5.388745e-09 3.376017e-10 -4.454728e-08))
7.135544      	((5.636303e-05 -6.897079e-03 2.648093e-05) (2.068519e-06 -1.417708e-03 9.027580e-07)) ((1.432149e-10 -1.790571e-10 2.723397e-08) (8.424478e-09 4.688554e-10 -4.808331e-08))
7.423392      	((6.348407e-05 -6.828745e-03 2.925141e-05) (2.237165e-06 -1.410415e-03 9.604168e-07)) ((1.654005e-10 -1.837481e-10 2.713147e-08) (1.144950e-08 3.502780e-10 -5.336121e-08))
7.710671      	((7.191875e-05 -6.754586e-03 3.299339e-05) (2.414028e-06 -1.403700e-03 1.034106e-06)) ((1.932983e-10 -1.856593e-10 2.697466e-08) (1.457169e-08 8.902227e-11 -5.890368e-08))
7.997512      	((7.961090e-05 -6.703591e-03 3.605179e-05) (2.627227e-06 -1.397335e-03 1.114308e-06)) ((1.932148e-10 -1.922804e-10 2.682850e-08) (1.780803e-08 -3.944049e-10 -6.382649e-08))
8.283996      	((8.982190e-05 -6.668969e-03 4.024591e-05) (2.894473e-06 -1.391330e-03 1.217807e-06)) ((2.108794e-10 -1.931177e-10 2.671976e-08) (2.062246e-08 -7.379683e-10 -6.798331e-08))
8.570137      	((9.956946e-05 -6.643378e-03 4.344943e-05) (3.191637e-06 -1.385758e-03 1.341806e-06)) ((2.073979e-10 -1.945969e-10 2.667304e-08) (2.254156e-08 -6.560261e-10 -7.207192e-08))
8.855938      	((1.107757e-04 -6.626174e-03 4.726947e-05) (3.506837e-06 -1.380742e-03 1.466688e-06)) ((2.029736e-10 -1.871291e-10 2.669840e-08) (2.418727e-08 -5.309520e-10 -7.626845e-08))
9.141413      	((1.219133e-04 -6.605013e-03 5.258362e-05) (3.850719e-06 -1.376199e-03 1.609978e-06)) ((2.104621e-10 -1.830542e-10 2.674603e-08) (2.648225e-08 -7.147969e-10 -8.106589e-08))
9.426572      	((1.343508e-04 -6.577829e-03 5.803036e-05) (4.250601e-06 -1.371820e-03 1.772955e-06)) ((2.412700e-10 -1.688243e-10 2.672788e-08) (3.028691e-08 -1.011177e-09 -8.745875e-08))
9.711424      	((1.495512e-04 -6.543849e-03 6.353838e-05) (4.710069e-06 -1.367376e-03 1.944329e-06)) ((2.916301e-10 -1.490802e-10 2.667273e-08) (3.541123e-08 -1.216222e-09 -9.531669e-08))
9.995986      	((1.664103e-04 -6.507031e-03 7.092574e-05) (5.232270e-06 -1.362884e-03 2.143968e-06)) ((3.452793e-10 -1.143845e-10 2.660332e-08) (4.041267e-08 -1.333050e-09 -1.041641e-07))
10.280275     	((1.818866e-04 -6.474111e-03 7.715429e-05) (5.791908e-06 -1.358512e-03 2.371549e-06)) ((3.465339e-10 -7.251744e-11 2.654540e-08) (4.492892e-08 -1.309171e-09 -1.136292e-07))
10.5643       	((1.981451e-04 -6.445005e-03 8.554095e-05) (6.394626e-06 -1.354374e-03 2.633321e-06)) ((3.848031e-10 -5.369940e-11 2.650391e-08) (4.913180e-08 -1.009579e-09 -1.230345e-07))
10.848071     	((2.152237e-04 -6.421647e-03 9.203679e-05) (7.037460e-06 -1.350497e-03 2.915143e-06)) ((3.933062e-10 -2.702207e-11 2.648363e-08) (5.329677e-08 -4.391365e-10 -1.327296e-07))
11.131589     	((2.353021e-04 -6.402306e-03 1.009412e-04) (7.730946e-06 -1.346851e-03 3.211788e-06)) ((4.538423e-10 -8.769767e-12 2.648080e-08) (5.793147e-08 1.305428e-10 -1.435796e-07))
11.414859     	((2.582165e-04 -6.385283e-03 1.097066e-04) (8.496847e-06 -1.343374e-03 3.521502e-06)) ((5.193310e-10 2.443563e-11 2.649437e-08) (6.334591e-08 6.313329e-10 -1.556960e-07))
11.697888     	((2.840522e-04 -6.366577e-03 1.198189e-04) (9.338167e-06 -1.339986e-03 3.848626e-06)) ((6.026627e-10 6.927141e-11 2.649331e-08) (6.935875e-08 1.031443e-09 -1.695400e-07))
11.980681     	((3.135665e-04 -6.348021e-03 1.318104e-04) (1.027570e-05 -1.336668e-03 4.210815e-06)) ((6.942816e-10 1.099537e-10 2.648489e-08) (7.657768e-08 1.111871e-09 -1.845895e-07))
12.263245     	((3.453463e-04 -6.327704e-03 1.441294e-04) (1.131550e-05 -1.333427e-03 4.613610e-06)) ((7.710745e-10 1.421646e-10 2.645279e-08) (8.501538e-08 1.050269e-09 -2.005421e-07))
12.545584     	((3.818362e-04 -6.308976e-03 1.587880e-04) (1.246189e-05 -1.330309e-03 5.077938e-06)) ((8.610381e-10 1.720046e-10 2.641121e-08) (9.342209e-08 1.092484e-09 -2.173462e-07))
12.827705     	((4.219933e-04 -6.288326e-03 1.748185e-04) (1.374517e-05 -1.327341e-03 5.592319e-06)) ((9.632063e-10 1.761210e-10 2.635674e-08) (1.017908e-07 1.223720e-09 -2.335850e-07))
13.109613     	((4.658053e-04 -6.268673e-03 1.918216e-04) (1.519200e-05 -1.324545e-03 6.146622e-06)) ((1.043252e-09 1.720511e-10 2.630710e-08) (1.095453e-07 1.073238e-09 -2.483566e-07))
13.391317     	((5.136163e-04 -6.249788e-03 2.097793e-04) (1.683495e-05 -1.321902e-03 6.763281e-06)) ((1.110661e-09 1.786822e-10 2.624813e-08) (1.156473e-07 5.054002e-10 -2.619630e-07))
13.672818     	((5.660600e-04 -6.230546e-03 2.300750e-04) (1.867858e-05 -1.319290e-03 7.469419e-06)) ((1.212450e-09 1.860395e-10 2.617921e-08) (1.203663e-07 -4.731683e-10 -2.772214e-07))
13.954121     	((6.216934e-04 -6.213468e-03 2.526291e-04) (2.070694e-05 -1.316669e-03 8.261017e-06)) ((1.334135e-09 1.902442e-10 2.611514e-08) (1.260294e-07 -1.537144e-09 -2.953843e-07))
14.235231     	((6.808814e-04 -6.200045e-03 2.774820e-04) (2.289950e-05 -1.314091e-03 9.123357e-06)) ((1.482450e-09 1.798503e-10 2.604672e-08) (1.353430e-07 -2.279729e-09 -3.165515e-07))
14.516157     	((7.437657e-04 -6.187612e-03 3.028820e-04) (2.525997e-05 -1.311583e-03 1.004424e-05)) ((1.626987e-09 1.680652e-10 2.598042e-08) (1.482288e-07 -2.642585e-09 -3.405936e-07))
14.796904     	((8.111341e-04 -6.176866e-03 3.301336e-04) (2.779100e-05 -1.309148e-03 1.102442e-05)) ((1.783774e-09 1.484345e-10 2.589982e-08) (1.630993e-07 -2.734184e-09 -3.678703e-07))
15.077421     	((8.860513e-04 -6.168936e-03 3.595122e-04) (3.051282e-05 -1.306816e-03 1.207808e-05)) ((1.943791e-09 1.095283e-10 2.581063e-08) (1.786139e-07 -2.764985e-09 -3.989229e-07))
15.357709     	((9.680807e-04 -6.161249e-03 3.919648e-04) (3.345567e-05 -1.304603e-03 1.322548e-05)) ((2.120696e-09 5.508848e-11 2.570436e-08) (1.944336e-07 -2.769517e-09 -4.338896e-07))
15.637775     	((1.058899e-03 -6.155128e-03 4.274666e-04) (3.667571e-05 -1.302514e-03 1.448254e-05)) ((2.303900e-09 -8.229163e-12 2.560054e-08) (2.110839e-07 -2.726562e-09 -4.719227e-07))
15.917622     	((1.159296e-03 -6.149375e-03 4.674716e-04) (4.024124e-05 -1.300541e-03 1.588237e-05)) ((2.522092e-09 -9.424026e-11 2.548705e-08) (2.283510e-07 -2.669877e-09 -5.121172e-07))
16.197253     	((1.269279e-03 -6.145104e-03 5.117418e-04) (4.421170e-05 -1.298660e-03 1.746699e-05)) ((2.789300e-09 -1.890884e-10 2.536196e-08) (2.456664e-07 -2.498528e-09 -5.541650e-07))
16.476681     	((1.390512e-03 -6.143643e-03 5.607745e-04) (4.862530e-05 -1.296880e-03 1.925565e-05)) ((3.088962e-09 -2.847285e-10 2.522624e-08) (2.626461e-07 -2.534147e-09 -5.986223e-07))
16.755925     	((1.524445e-03 -6.144803e-03 6.142286e-04) (5.350347e-05 -1.295191e-03 2.125118e-05)) ((3.412129e-09 -3.991668e-10 2.508266e-08) (2.797266e-07 -2.964673e-09 -6.474497e-07))
17.035        	((1.670172e-03 -6.150085e-03 6.711686e-04) (5.885046e-05 -1.293624e-03 2.344296e-05)) ((3.733576e-09 -5.408438e-10 2.494005e-08) (2.982588e-07 -3.631138e-09 -7.033283e-07))
17.313914     	((1.827613e-03 -6.160399e-03 7.329599e-04) (6.467504e-05 -1.292258e-03 2.581633e-05)) ((4.059251e-09 -7.368604e-10 2.480335e-08) (3.192302e-07 -4.104273e-09 -7.666554e-07))
17.592666     	((1.998277e-03 -6.176851e-03 8.004787e-04) (7.101816e-05 -1.291167e-03 2.838563e-05)) ((4.417220e-09 -9.950834e-10 2.467302e-08) (3.431341e-07 -3.898091e-09 -8.358457e-07))
17.871256     	((2.181934e-03 -6.200597e-03 8.730058e-04) (7.792183e-05 -1.290427e-03 3.118236e-05)) ((4.833681e-09 -1.296998e-09 2.451971e-08) (3.694250e-07 -2.723665e-09 -9.088063e-07))
18.149704     	((2.377941e-03 -6.234752e-03 9.500390e-04) (8.543866e-05 -1.290147e-03 3.423042e-05)) ((5.263709e-09 -1.611643e-09 2.432050e-08) (3.970799e-07 -8.013561e-10 -9.827798e-07))
18.428016     	((2.589164e-03 -6.275612e-03 1.032912e-03) (9.362964e-05 -1.290404e-03 3.755125e-05)) ((5.735880e-09 -1.991763e-09 2.407670e-08) (4.248371e-07 1.124147e-09 -1.056126e-06))
18.706113     	((2.817723e-03 -6.328097e-03 1.122700e-03) (1.025939e-04 -1.291230e-03 4.115431e-05)) ((6.238608e-09 -2.478979e-09 2.380779e-08) (4.519849e-07 1.750711e-09 -1.130176e-06))
18.983895     	((3.064735e-03 -6.390419e-03 1.219491e-03) (1.123428e-04 -1.292475e-03 4.502069e-05)) ((6.811870e-09 -3.075988e-09 2.348945e-08) (4.836746e-07 6.663532e-10 -1.212282e-06))
19.261432     	((3.329199e-03 -6.465288e-03 1.324486e-03) (1.228788e-04 -1.294121e-03 4.916036e-05)) ((7.425677e-09 -3.790845e-09 2.311330e-08) (5.228868e-07 -5.984515e-10 -1.306351e-06))
19.53878      	((3.610732e-03 -6.554557e-03 1.438717e-03) (1.342597e-04 -1.296359e-03 5.361326e-05)) ((8.077138e-09 -4.594932e-09 2.268212e-08) (5.681291e-07 -7.423145e-10 -1.407607e-06))
19.816048     	((3.909805e-03 -6.662181e-03 1.562939e-03) (1.465272e-04 -1.299406e-03 5.844233e-05)) ((8.749657e-09 -5.503319e-09 2.218256e-08) (6.175441e-07 7.821893e-10 -1.511157e-06))
20.093293     	((4.225054e-03 -6.787143e-03 1.695456e-03) (1.596674e-04 -1.303370e-03 6.369697e-05)) ((9.413012e-09 -6.501137e-09 2.162134e-08) (6.693140e-07 4.334336e-09 -1.618006e-06))
20.370496     	((4.553230e-03 -6.931002e-03 1.833754e-03) (1.737518e-04 -1.308356e-03 6.936346e-05)) ((1.000895e-08 -7.591054e-09 2.101759e-08) (7.212747e-07 8.348898e-09 -1.723477e-06))
20.647644     	((4.893798e-03 -7.094164e-03 1.977794e-03) (1.888423e-04 -1.314392e-03 7.543818e-05)) ((1.053632e-08 -8.748332e-09 2.037081e-08) (7.720889e-07 1.078272e-08 -1.825338e-06))
20.92472      	((5.244874e-03 -7.275444e-03 2.128193e-03) (2.048447e-04 -1.321394e-03 8.194574e-05)) ((1.111631e-08 -1.000513e-08 1.971872e-08) (8.244877e-07 1.208165e-08 -1.928297e-06))
21.201725     	((5.606283e-03 -7.486360e-03 2.282925e-03) (2.216586e-04 -1.329451e-03 8.888167e-05)) ((1.166192e-08 -1.139221e-08 1.911938e-08) (8.794029e-07 1.330050e-08 -2.035403e-06))
21.478676     	((5.970593e-03 -7.728025e-03 2.438673e-03) (2.392635e-04 -1.338812e-03 9.622199e-05)) ((1.208059e-08 -1.292038e-08 1.858303e-08) (9.316475e-07 1.448925e-08 -2.139519e-06))
21.755611     	((6.335134e-03 -7.997684e-03 2.594122e-03) (2.576014e-04 -1.349736e-03 1.038857e-04)) ((1.235108e-08 -1.453225e-08 1.802234e-08) (9.785758e-07 1.532128e-08 -2.233511e-06))
22.032599     	((6.687513e-03 -8.296205e-03 2.743127e-03) (2.764745e-04 -1.362304e-03 1.117870e-04)) ((1.241706e-08 -1.607018e-08 1.746616e-08) (1.019534e-06 1.645902e-08 -2.319372e-06))
22.309701     	((7.023464e-03 -8.612928e-03 2.887300e-03) (2.956638e-04 -1.376484e-03 1.198618e-04)) ((1.237325e-08 -1.756349e-08 1.691385e-08) (1.055316e-06 1.909495e-08 -2.397648e-06))
22.586977     	((7.330652e-03 -8.949461e-03 3.017660e-03) (3.149426e-04 -1.392427e-03 1.280042e-04)) ((1.215094e-08 -1.892861e-08 1.643048e-08) (1.084174e-06 2.342213e-08 -2.460166e-06))
22.864479     	((7.597261e-03 -9.292079e-03 3.132783e-03) (3.340058e-04 -1.410026e-03 1.360548e-04)) ((1.185444e-08 -2.021469e-08 1.602465e-08) (1.103620e-06 3.031471e-08 -2.499469e-06))
23.14202      	((7.801868e-03 -9.631036e-03 3.224514e-03) (3.523792e-04 -1.428909e-03 1.438077e-04)) ((1.152935e-08 -2.139361e-08 1.563926e-08) (1.113134e-06 3.920893e-08 -2.512293e-06))
23.419631     	((7.922220e-03 -9.947138e-03 3.281790e-03) (3.693921e-04 -1.448504e-03 1.510032e-04)) ((1.101799e-08 -2.238779e-08 1.529247e-08) (1.113819e-06 4.830346e-08 -2.500256e-06))
23.697351     	((7.950821e-03 -1.022258e-02 3.298676e-03) (3.844366e-04 -1.468029e-03 1.572476e-04)) ((1.018223e-08 -2.314239e-08 1.506355e-08) (1.107380e-06 5.822099e-08 -2.458446e-06))
23.975225     	((7.878497e-03 -1.043407e-02 3.269730e-03) (3.969889e-04 -1.486546e-03 1.622584e-04)) ((9.140570e-09 -2.359342e-08 1.496613e-08) (1.088987e-06 7.172036e-08 -2.379235e-06))
24.253319     	((7.676101e-03 -1.056438e-02 3.186162e-03) (4.061492e-04 -1.503383e-03 1.657462e-04)) ((8.075341e-09 -2.342650e-08 1.485966e-08) (1.053067e-06 9.055248e-08 -2.261234e-06))
24.53171      	((7.326824e-03 -1.059125e-02 3.036403e-03) (4.109720e-04 -1.517854e-03 1.673859e-04)) ((7.146347e-09 -2.249610e-08 1.452600e-08) (9.941282e-07 1.118203e-07 -2.100375e-06))
24.810486     	((6.811184e-03 -1.048580e-02 2.818537e-03) (4.102436e-04 -1.529027e-03 1.665711e-04)) ((6.432931e-09 -2.078321e-08 1.390542e-08) (9.175982e-07 1.343312e-07 -1.900175e-06))
25.089729     	((6.102192e-03 -1.025794e-02 2.523436e-03) (4.022628e-04 -1.536108e-03 1.626364e-04)) ((5.804182e-09 -1.794852e-08 1.301513e-08) (8.355361e-07 1.609578e-07 -1.677428e-06))
25.369528     	((5.204697e-03 -9.902277e-03 2.153768e-03) (3.855069e-04 -1.538348e-03 1.550204e-04)) ((4.899288e-09 -1.400730e-08 1.229144e-08) (7.583448e-07 1.913948e-07 -1.457154e-06))
25.649976     	((4.130275e-03 -9.467346e-03 1.714754e-03) (3.592358e-04 -1.535947e-03 1.432987e-04)) ((3.038733e-09 -9.266815e-09 1.259516e-08) (6.911464e-07 2.178629e-07 -1.241774e-06))
25.931172     	((2.905515e-03 -9.006232e-03 1.211979e-03) (3.236234e-04 -1.529977e-03 1.273160e-04)) ((-5.925362e-10 -4.075503e-09 1.400562e-08) (6.388710e-07 2.362060e-07 -1.025262e-06))
26.213066     	((1.586690e-03 -8.604354e-03 6.796861e-04) (2.797297e-04 -1.522145e-03 1.075281e-04)) ((-5.697658e-09 6.188402e-10 1.565650e-08) (6.010338e-07 2.532559e-07 -7.895755e-07))
26.495222     	((2.585029e-04 -8.330127e-03 1.478275e-04) (2.295724e-04 -1.514452e-03 8.498345e-05)) ((-1.106354e-08 3.612510e-09 1.700914e-08) (5.714465e-07 2.741869e-07 -5.294513e-07))
26.777604     	((-9.943752e-04 -8.191845e-03 -3.475771e-04) (1.759583e-04 -1.509062e-03 6.107457e-05)) ((-1.562709e-08 5.075082e-09 1.831714e-08) (5.321964e-07 2.996648e-07 -2.323256e-07))
27.060144     	((-2.093570e-03 -8.170600e-03 -7.701718e-04) (1.219732e-04 -1.507820e-03 3.763612e-05)) ((-1.802433e-08 5.188444e-09 1.914070e-08) (4.492776e-07 3.302270e-07 1.278150e-07))
27.342845     	((-3.000511e-03 -8.254429e-03 -1.113853e-03) (7.022093e-05 -1.511336e-03 1.574882e-05)) ((-1.808442e-08 4.713717e-09 1.958875e-08) (3.407532e-07 3.605371e-07 5.428860e-07))
27.625707     	((-3.724343e-03 -8.400187e-03 -1.361484e-03) (2.234348e-05 -1.518693e-03 -3.809786e-06)) ((-1.629116e-08 4.270147e-09 2.072719e-08) (2.168507e-07 3.872181e-07 9.758201e-07))
27.908694     	((-4.258380e-03 -8.554915e-03 -1.534815e-03) (-1.966194e-05 -1.529074e-03 -2.003860e-05)) ((-1.451531e-08 4.452849e-09 2.245576e-08) (5.587516e-08 4.071752e-07 1.441423e-06))
28.191776     	((-4.642677e-03 -8.701671e-03 -1.652275e-03) (-5.533237e-05 -1.541006e-03 -3.257758e-05)) ((-1.309844e-08 4.868628e-09 2.415132e-08) (-1.452182e-07 4.170230e-07 1.901820e-06))
28.474945     	((-4.882844e-03 -8.797659e-03 -1.712773e-03) (-8.466767e-05 -1.552940e-03 -4.192343e-05)) ((-1.245233e-08 4.878647e-09 2.542669e-08) (-3.559873e-07 4.146555e-07 2.336067e-06))
