# Forces      
# CofR        : (0.000000e+00 0.000000e+00 0.000000e+00)
# Time        forces(pressure viscous)	moments(pressure viscous)
0             	((0.000000e+00 0.000000e+00 0.000000e+00) (1.571360e-12 -3.177876e-02 -2.012982e-12)) ((0.000000e+00 0.000000e+00 0.000000e+00) (9.889667e-14 -1.408072e-14 1.000447e-08))
0.0119218     	((9.400398e-04 -9.444602e+00 8.996474e-04) (1.600988e-06 -5.646439e-02 6.038236e-07)) ((-5.647784e-09 -6.119702e-10 1.827167e-06) (1.566818e-07 2.769743e-10 -1.796345e-07))
0.0262281     	((-5.516538e-05 3.734790e+00 -1.430607e-04) (2.328956e-06 -5.369161e-02 -1.084636e-06)) ((-6.269197e-08 1.647038e-09 -5.897427e-07) (6.131908e-08 5.318511e-10 -2.234349e-07))
0.0433955     	((-7.859338e-04 -3.013836e-01 -4.751799e-04) (-2.918434e-06 -4.353347e-02 -2.383421e-06)) ((6.156079e-08 9.368661e-10 -1.539364e-07) (6.536779e-08 1.403165e-09 -3.273170e-07))
0.0639965     	((-7.250628e-04 1.905504e-01 -1.218996e-04) (-2.787053e-05 -3.916706e-02 -1.164165e-06)) ((-2.220481e-08 -2.153218e-09 8.608607e-08) (1.476373e-07 3.380489e-09 -5.956972e-07))
0.0887176     	((-8.338899e-04 -1.273339e-01 -1.190628e-04) (-3.388192e-05 -3.632466e-02 -9.180253e-07)) ((6.999990e-09 -1.561863e-09 1.016754e-07) (9.970861e-08 5.324308e-09 -8.971830e-07))
0.118383      	((-4.750881e-04 -9.469358e-03 -5.852384e-05) (-2.982326e-05 -3.472688e-02 -1.350558e-06)) ((7.031997e-10 -1.382305e-09 1.438744e-07) (8.096194e-08 4.462137e-09 -9.962363e-07))
0.15329       	((-3.232993e-04 -6.115042e-02 2.927545e-05) (-2.697098e-05 -3.360024e-02 6.158716e-07)) ((1.582512e-09 1.136578e-09 1.505496e-07) (6.006275e-08 3.898680e-09 -1.042027e-06))
0.193406      	((-3.047163e-04 -4.525903e-02 4.815676e-05) (-2.363436e-05 -3.276452e-02 9.202474e-07)) ((-4.453546e-09 -3.633308e-10 2.282632e-07) (4.177550e-08 2.210013e-09 -1.054039e-06))
0.238727      	((-5.875744e-05 -6.190122e-02 3.345964e-05) (-2.238807e-05 -3.214303e-02 3.456870e-07)) ((-7.553218e-10 -9.812439e-10 2.494252e-07) (1.243387e-08 1.799094e-09 -1.059428e-06))
0.28925       	((-9.226104e-05 -6.483042e-02 2.240153e-05) (-2.257047e-05 -3.170526e-02 1.688242e-07)) ((-3.256385e-10 -1.076254e-10 3.214714e-07) (1.976593e-09 1.909884e-09 -1.160907e-06))
0.341323      	((1.535208e-04 -7.566475e-02 4.293835e-05) (-1.922598e-05 -3.141720e-02 -7.314853e-08)) ((1.860274e-09 8.855544e-12 3.741677e-07) (3.840305e-09 2.366113e-09 -1.238985e-06))
0.393101      	((3.006738e-04 -8.232433e-02 4.237060e-05) (-1.572308e-05 -3.121670e-02 -1.607067e-07)) ((4.555954e-09 -1.968582e-10 4.313279e-07) (-6.636523e-09 3.014151e-09 -1.300653e-06))
0.444523      	((4.916893e-04 -9.112069e-02 7.581689e-05) (-1.304525e-05 -3.103839e-02 8.029737e-08)) ((3.830566e-09 1.903020e-10 4.861147e-07) (2.747760e-10 2.792155e-09 -1.369620e-06))
0.495662      	((6.387266e-04 -9.754586e-02 1.041050e-04) (-1.191392e-05 -3.083555e-02 2.654145e-07)) ((5.363299e-09 -8.894323e-10 5.396757e-07) (3.348863e-08 2.444484e-09 -1.452286e-06))
0.546691      	((8.531852e-04 -1.035824e-01 1.404767e-04) (-1.222258e-05 -3.059208e-02 -1.369631e-07)) ((3.736103e-09 -1.645940e-09 5.902296e-07) (5.962573e-08 2.063043e-09 -1.561499e-06))
0.59778       	((1.080238e-03 -1.072550e-01 1.777429e-04) (-1.163340e-05 -3.032870e-02 9.101214e-08)) ((2.884541e-09 -1.760195e-09 6.429064e-07) (6.935920e-08 2.146989e-09 -1.712288e-06))
0.64901       	((1.335914e-03 -1.094105e-01 2.315148e-04) (-1.042846e-05 -3.007396e-02 7.482461e-07)) ((4.698596e-09 -2.490157e-09 6.938610e-07) (7.089005e-08 2.413513e-09 -1.875170e-06))
0.700353      	((1.600636e-03 -1.102180e-01 2.747261e-04) (-8.668364e-06 -2.984544e-02 1.337853e-06)) ((4.784041e-09 -2.240654e-09 7.369316e-07) (6.751352e-08 1.964915e-09 -2.040398e-06))
0.751745      	((1.929115e-03 -1.094292e-01 3.296799e-04) (-6.826658e-06 -2.963964e-02 1.783906e-06)) ((5.880360e-09 -2.539825e-09 7.686570e-07) (7.474132e-08 1.670389e-09 -2.243261e-06))
0.803158      	((2.342064e-03 -1.079275e-01 3.875393e-04) (-5.689171e-06 -2.944987e-02 1.946151e-06)) ((6.691047e-09 -2.995056e-09 7.929062e-07) (9.529379e-08 1.085944e-09 -2.488518e-06))
0.854599      	((2.825059e-03 -1.062624e-01 4.648217e-04) (-4.012646e-06 -2.927565e-02 2.282870e-06)) ((7.476877e-09 -3.269003e-09 8.124239e-07) (1.205252e-07 7.368835e-10 -2.751547e-06))
0.90608       	((3.423808e-03 -1.050014e-01 5.497228e-04) (-1.475627e-06 -2.911996e-02 2.773487e-06)) ((8.713817e-09 -3.429130e-09 8.276360e-07) (1.437957e-07 1.282090e-10 -3.046816e-06))
0.957601      	((4.090721e-03 -1.040812e-01 6.550072e-04) (1.620226e-06 -2.898102e-02 3.366712e-06)) ((1.095442e-08 -4.238371e-09 8.387625e-07) (1.693768e-07 -1.147160e-09 -3.356926e-06))
1.009154      	((4.763432e-03 -1.033027e-01 7.758168e-04) (5.034641e-06 -2.885549e-02 3.996869e-06)) ((1.332732e-08 -5.153523e-09 8.470802e-07) (2.041448e-07 -2.748836e-09 -3.680743e-06))
1.060733      	((5.564578e-03 -1.026670e-01 9.075939e-04) (8.877114e-06 -2.874158e-02 4.639605e-06)) ((1.439250e-08 -6.511060e-09 8.546958e-07) (2.444089e-07 -3.378483e-09 -4.020707e-06))
1.112337      	((6.391127e-03 -1.019245e-01 1.047018e-03) (1.298815e-05 -2.863712e-02 5.373134e-06)) ((1.503165e-08 -8.467527e-09 8.625821e-07) (2.938316e-07 -4.134361e-09 -4.386268e-06))
1.163965      	((7.314649e-03 -1.012920e-01 1.223303e-03) (1.735209e-05 -2.854081e-02 6.129692e-06)) ((1.572242e-08 -1.055669e-08 8.710112e-07) (3.626948e-07 -7.252542e-09 -4.781398e-06))
1.215615      	((8.361208e-03 -1.005750e-01 1.416855e-03) (2.234012e-05 -2.845145e-02 6.886406e-06)) ((1.711299e-08 -1.270454e-08 8.796856e-07) (4.398687e-07 -1.050213e-08 -5.216691e-06))
1.267283      	((9.538109e-03 -9.989933e-02 1.628023e-03) (2.797453e-05 -2.836808e-02 7.769851e-06)) ((1.957618e-08 -1.548456e-08 8.885488e-07) (5.191528e-07 -1.175641e-08 -5.708184e-06))
1.318967      	((1.081360e-02 -9.933294e-02 1.837556e-03) (3.384179e-05 -2.829053e-02 8.766142e-06)) ((2.204153e-08 -1.830165e-08 8.973887e-07) (6.099175e-07 -1.283988e-08 -6.272151e-06))
1.370665      	((1.221136e-02 -9.887914e-02 2.075932e-03) (3.976410e-05 -2.821874e-02 9.796504e-06)) ((2.434940e-08 -2.024892e-08 9.050575e-07) (7.169847e-07 -1.325029e-08 -6.915563e-06))
1.422376      	((1.374511e-02 -9.855423e-02 2.311654e-03) (4.558979e-05 -2.815276e-02 1.085142e-05)) ((2.548071e-08 -2.249502e-08 9.123655e-07) (8.437618e-07 -1.385230e-08 -7.643443e-06))
1.474096      	((1.547424e-02 -9.833788e-02 2.589445e-03) (5.164302e-05 -2.809257e-02 1.189440e-05)) ((2.742215e-08 -2.442402e-08 9.199678e-07) (9.882175e-07 -1.674834e-08 -8.451943e-06))
1.525825      	((1.742690e-02 -9.815493e-02 2.934521e-03) (5.890641e-05 -2.803791e-02 1.319811e-05)) ((3.016065e-08 -2.567394e-08 9.274394e-07) (1.137992e-06 -2.159450e-08 -9.325316e-06))
1.577559      	((1.962770e-02 -9.799891e-02 3.324155e-03) (6.804739e-05 -2.798837e-02 1.511252e-05)) ((3.359754e-08 -2.608799e-08 9.347073e-07) (1.290061e-06 -2.633594e-08 -1.026345e-05))
1.629295      	((2.210585e-02 -9.783084e-02 3.757225e-03) (7.910396e-05 -2.794338e-02 1.733394e-05)) ((3.841017e-08 -2.664723e-08 9.422126e-07) (1.459515e-06 -3.361416e-08 -1.128521e-05))
1.681032      	((2.488886e-02 -9.767230e-02 4.261673e-03) (9.217752e-05 -2.790276e-02 1.972348e-05)) ((4.486705e-08 -2.794175e-08 9.489271e-07) (1.648280e-06 -4.534672e-08 -1.240276e-05))
1.732766      	((2.805296e-02 -9.753986e-02 4.846753e-03) (1.073883e-04 -2.786606e-02 2.231612e-05)) ((5.231024e-08 -2.915671e-08 9.551189e-07) (1.862082e-06 -5.524383e-08 -1.362716e-05))
1.784494      	((3.165869e-02 -9.742824e-02 5.526673e-03) (1.249497e-04 -2.783270e-02 2.533757e-05)) ((6.110911e-08 -3.018724e-08 9.607834e-07) (2.113514e-06 -5.784058e-08 -1.497818e-05))
1.836212      	((3.571544e-02 -9.737093e-02 6.310438e-03) (1.453468e-04 -2.780254e-02 2.883976e-05)) ((7.098792e-08 -3.218745e-08 9.663314e-07) (2.411753e-06 -5.640336e-08 -1.646458e-05))
1.887917      	((4.031573e-02 -9.739710e-02 7.216093e-03) (1.693101e-04 -2.777557e-02 3.272502e-05)) ((8.249699e-08 -3.460911e-08 9.727995e-07) (2.761673e-06 -5.520113e-08 -1.808116e-05))
1.939606      	((4.551026e-02 -9.752423e-02 8.263096e-03) (1.973330e-04 -2.775209e-02 3.713205e-05)) ((9.579092e-08 -3.625128e-08 9.798005e-07) (3.156776e-06 -5.841580e-08 -1.983400e-05))
1.991275      	((5.134185e-02 -9.776429e-02 9.445851e-03) (2.298880e-04 -2.773252e-02 4.203874e-05)) ((1.107633e-07 -3.821752e-08 9.876276e-07) (3.605062e-06 -7.152301e-08 -2.172672e-05))
2.042918      	((5.787140e-02 -9.820337e-02 1.077726e-02) (2.677789e-04 -2.771699e-02 4.773611e-05)) ((1.275971e-07 -4.156871e-08 9.963311e-07) (4.105837e-06 -9.701984e-08 -2.375684e-05))
2.094533      	((6.509788e-02 -9.888228e-02 1.225184e-02) (3.118247e-04 -2.770580e-02 5.479490e-05)) ((1.455973e-07 -4.428112e-08 1.005017e-06) (4.648258e-06 -1.311009e-07 -2.593754e-05))
2.146113      	((7.311768e-02 -9.988339e-02 1.388946e-02) (3.620794e-04 -2.770030e-02 6.344124e-05)) ((1.661924e-07 -5.035051e-08 1.013340e-06) (5.213799e-06 -1.606579e-07 -2.831125e-05))
2.197654      	((8.198873e-02 -1.012170e-01 1.570885e-02) (4.189441e-04 -2.770229e-02 7.371858e-05)) ((1.889740e-07 -5.867207e-08 1.019754e-06) (5.802985e-06 -1.809392e-07 -3.090272e-05))
2.24915       	((9.169213e-02 -1.029459e-01 1.770117e-02) (4.826035e-04 -2.771375e-02 8.587890e-05)) ((2.135445e-07 -6.980062e-08 1.023387e-06) (6.429747e-06 -1.927076e-07 -3.371893e-05))
2.300597      	((1.023469e-01 -1.051647e-01 1.989468e-02) (5.536365e-04 -2.773593e-02 1.000564e-04)) ((2.400668e-07 -8.400997e-08 1.025901e-06) (7.102005e-06 -1.972628e-07 -3.677111e-05))
2.351989      	((1.139660e-01 -1.079239e-01 2.227718e-02) (6.332681e-04 -2.776979e-02 1.163684e-04)) ((2.683554e-07 -9.916880e-08 1.030086e-06) (7.817401e-06 -1.898498e-07 -4.005743e-05))
2.403318      	((1.263461e-01 -1.111810e-01 2.485343e-02) (7.221532e-04 -2.781707e-02 1.357357e-04)) ((2.961123e-07 -1.180997e-07 1.035984e-06) (8.547906e-06 -1.585829e-07 -4.356174e-05))
2.454572      	((1.392452e-01 -1.152441e-01 2.757491e-02) (8.194542e-04 -2.787928e-02 1.581483e-04)) ((3.247068e-07 -1.396327e-07 1.042748e-06) (9.280585e-06 -9.741101e-08 -4.723855e-05))
2.505741      	((1.524542e-01 -1.199464e-01 3.036721e-02) (9.241377e-04 -2.795768e-02 1.831514e-04)) ((3.493150e-07 -1.620237e-07 1.051226e-06) (1.002073e-05 -2.730338e-08 -5.107260e-05))
2.556821      	((1.657271e-01 -1.254923e-01 3.314136e-02) (1.036925e-03 -2.805223e-02 2.092392e-04)) ((3.677467e-07 -1.889696e-07 1.064694e-06) (1.080682e-05 5.437151e-09 -5.504121e-05))
2.607808      	((1.784959e-01 -1.319565e-01 3.587448e-02) (1.156790e-03 -2.816315e-02 2.355776e-04)) ((3.807288e-07 -2.171404e-07 1.083452e-06) (1.164702e-05 -6.562146e-08 -5.908706e-05))
2.658699      	((1.899253e-01 -1.389747e-01 3.853662e-02) (1.280294e-03 -2.829105e-02 2.632473e-04)) ((3.848561e-07 -2.440162e-07 1.103337e-06) (1.248779e-05 -2.131755e-07 -6.310191e-05))
2.709494      	((1.993717e-01 -1.463716e-01 4.078188e-02) (1.403309e-03 -2.843544e-02 2.922079e-04)) ((3.839175e-07 -2.658499e-07 1.120191e-06) (1.327295e-05 -3.448971e-07 -6.692239e-05))
2.760193      	((2.061297e-01 -1.535915e-01 4.239043e-02) (1.519759e-03 -2.859418e-02 3.203048e-04)) ((3.824750e-07 -2.809828e-07 1.135726e-06) (1.396417e-05 -4.224014e-07 -7.041333e-05))
2.810799      	((2.096802e-01 -1.602134e-01 4.329691e-02) (1.624696e-03 -2.876263e-02 3.458530e-04)) ((3.762671e-07 -2.911408e-07 1.148222e-06) (1.448793e-05 -4.745251e-07 -7.335978e-05))
2.861319      	((2.093452e-01 -1.656346e-01 4.334602e-02) (1.711229e-03 -2.893120e-02 3.677782e-04)) ((3.578865e-07 -2.884698e-07 1.163825e-06) (1.483408e-05 -4.890274e-07 -7.567820e-05))
2.911763      	((2.048905e-01 -1.689054e-01 4.238278e-02) (1.768963e-03 -2.909103e-02 3.843195e-04)) ((3.383011e-07 -2.719921e-07 1.188120e-06) (1.497939e-05 -4.336200e-07 -7.743021e-05))
2.962118      	((1.963275e-01 -1.693473e-01 4.045649e-02) (1.789563e-03 -2.923388e-02 3.936879e-04)) ((3.121871e-07 -2.430340e-07 1.216700e-06) (1.490316e-05 -3.135350e-07 -7.853781e-05))
3.012407      	((1.837373e-01 -1.674701e-01 3.775755e-02) (1.764588e-03 -2.935488e-02 3.930455e-04)) ((2.748877e-07 -2.062439e-07 1.218507e-06) (1.466195e-05 -1.772481e-07 -7.901016e-05))
3.062656      	((1.687531e-01 -1.641540e-01 3.458357e-02) (1.691405e-03 -2.945081e-02 3.811916e-04)) ((2.282096e-07 -1.687677e-07 1.186322e-06) (1.430394e-05 -8.377123e-08 -7.896696e-05))
3.112891      	((1.531812e-01 -1.600257e-01 3.123870e-02) (1.576094e-03 -2.952690e-02 3.600673e-04)) ((1.845101e-07 -1.312875e-07 1.134861e-06) (1.386920e-05 -7.597650e-08 -7.850056e-05))
3.163137      	((1.382690e-01 -1.552119e-01 2.821623e-02) (1.427280e-03 -2.958524e-02 3.311130e-04)) ((1.455430e-07 -9.604683e-08 1.067892e-06) (1.345221e-05 -1.300374e-07 -7.786789e-05))
3.213417      	((1.262357e-01 -1.501454e-01 2.595346e-02) (1.258181e-03 -2.963562e-02 2.989949e-04)) ((1.306852e-07 -8.389075e-08 1.007847e-06) (1.300885e-05 -1.485206e-07 -7.707848e-05))
3.263747      	((1.180761e-01 -1.455063e-01 2.433033e-02) (1.086713e-03 -2.968163e-02 2.672529e-04)) ((1.304227e-07 -8.649135e-08 9.824405e-07) (1.257466e-05 -1.145108e-07 -7.629689e-05))
3.31414       	((1.136528e-01 -1.410707e-01 2.359824e-02) (9.326854e-04 -2.972670e-02 2.392230e-04)) ((1.529812e-07 -1.089661e-07 9.989027e-07) (1.219278e-05 -6.482975e-08 -7.542328e-05))
3.3646        	((1.126559e-01 -1.367859e-01 2.356426e-02) (8.134954e-04 -2.977326e-02 2.176516e-04)) ((1.870291e-07 -1.509673e-07 1.037965e-06) (1.183530e-05 -3.163938e-08 -7.416249e-05))
3.415122      	((1.134973e-01 -1.330850e-01 2.387532e-02) (7.409221e-04 -2.981881e-02 2.041926e-04)) ((2.173967e-07 -2.000330e-07 1.060351e-06) (1.144015e-05 -1.143261e-08 -7.224102e-05))
3.465698      	((1.155343e-01 -1.291531e-01 2.449208e-02) (7.140142e-04 -2.985650e-02 1.975345e-04)) ((2.387091e-07 -2.308110e-07 1.046688e-06) (1.111420e-05 1.357459e-08 -6.973303e-05))
3.516316      	((1.174812e-01 -1.252255e-01 2.517840e-02) (7.195317e-04 -2.987644e-02 1.962438e-04)) ((2.556543e-07 -2.506586e-07 1.008921e-06) (1.091882e-05 7.272045e-08 -6.715377e-05))
3.566964      	((1.186867e-01 -1.215340e-01 2.558010e-02) (7.315225e-04 -2.987160e-02 1.985765e-04)) ((2.748221e-07 -2.586090e-07 9.645890e-07) (1.082528e-05 2.373038e-07 -6.541579e-05))
3.61763       	((1.188177e-01 -1.188480e-01 2.582623e-02) (7.321787e-04 -2.984972e-02 2.021642e-04)) ((2.890945e-07 -2.419105e-07 9.453452e-07) (1.078735e-05 5.047445e-07 -6.476450e-05))
3.668305      	((1.176965e-01 -1.175727e-01 2.588145e-02) (7.205144e-04 -2.982270e-02 2.046417e-04)) ((2.830320e-07 -2.028963e-07 9.497247e-07) (1.080416e-05 8.073577e-07 -6.478941e-05))
3.718982      	((1.148101e-01 -1.179255e-01 2.557322e-02) (7.030343e-04 -2.979993e-02 2.048480e-04)) ((2.511394e-07 -1.492821e-07 9.550706e-07) (1.084362e-05 1.099565e-06 -6.490884e-05))
3.769657      	((1.104728e-01 -1.189011e-01 2.493520e-02) (6.803965e-04 -2.978605e-02 2.018213e-04)) ((1.914589e-07 -6.965081e-08 9.392246e-07) (1.088621e-05 1.326946e-06 -6.479325e-05))
3.82033       	((1.046990e-01 -1.198643e-01 2.395509e-02) (6.580140e-04 -2.978121e-02 1.959242e-04)) ((1.417547e-07 -1.029415e-09 8.811685e-07) (1.090482e-05 1.463441e-06 -6.404712e-05))
3.871002      	((9.801938e-02 -1.202901e-01 2.262257e-02) (6.280012e-04 -2.977891e-02 1.858735e-04)) ((1.084998e-07 5.319775e-08 8.001606e-07) (1.092149e-05 1.517847e-06 -6.304323e-05))
3.921679      	((9.062234e-02 -1.209029e-01 2.133185e-02) (5.789351e-04 -2.977480e-02 1.724748e-04)) ((1.075745e-07 7.582581e-08 7.360236e-07) (1.092416e-05 1.545075e-06 -6.224745e-05))
3.972368      	((8.366696e-02 -1.214483e-01 2.017379e-02) (5.104315e-04 -2.977037e-02 1.569434e-04)) ((1.188921e-07 7.944651e-08 7.150474e-07) (1.092818e-05 1.594024e-06 -6.174592e-05))
4.02308       	((7.830161e-02 -1.214599e-01 1.941295e-02) (4.201125e-04 -2.976275e-02 1.414447e-04)) ((1.342428e-07 7.485131e-08 7.250982e-07) (1.092756e-05 1.674641e-06 -6.195861e-05))
4.073822      	((7.500053e-02 -1.206074e-01 1.906300e-02) (3.250308e-04 -2.975053e-02 1.263377e-04)) ((1.575784e-07 5.549717e-08 7.502993e-07) (1.097622e-05 1.695822e-06 -6.253271e-05))
4.1246        	((7.382950e-02 -1.191745e-01 1.916110e-02) (2.356508e-04 -2.973879e-02 1.106158e-04)) ((1.952410e-07 2.187793e-08 7.838503e-07) (1.114587e-05 1.571974e-06 -6.323072e-05))
4.175417      	((7.467462e-02 -1.173705e-01 1.975378e-02) (1.595061e-04 -2.972716e-02 9.358613e-05)) ((2.321862e-07 -2.161632e-08 8.409783e-07) (1.153615e-05 1.253668e-06 -6.398228e-05))
4.226271      	((7.697385e-02 -1.151858e-01 2.063261e-02) (1.121459e-04 -2.971528e-02 7.813232e-05)) ((2.639006e-07 -6.938042e-08 8.915112e-07) (1.206286e-05 7.658414e-07 -6.418016e-05))
4.277153      	((8.051020e-02 -1.129487e-01 2.156710e-02) (1.019892e-04 -2.970401e-02 6.918182e-05)) ((2.931441e-07 -1.131999e-07 9.153871e-07) (1.251355e-05 2.757113e-07 -6.347492e-05))
4.328057      	((8.464032e-02 -1.107890e-01 2.275978e-02) (1.285671e-04 -2.969347e-02 6.921438e-05)) ((3.104519e-07 -1.427804e-07 9.182211e-07) (1.277932e-05 -8.977037e-08 -6.190674e-05))
4.378977      	((8.904160e-02 -1.090409e-01 2.396541e-02) (1.815851e-04 -2.968338e-02 7.811761e-05)) ((3.186703e-07 -1.630596e-07 9.121478e-07) (1.285292e-05 -2.515355e-07 -5.986197e-05))
4.429905      	((9.367299e-02 -1.077728e-01 2.507024e-02) (2.500588e-04 -2.967328e-02 9.394390e-05)) ((3.138810e-07 -1.675088e-07 8.963150e-07) (1.276060e-05 -1.869178e-07 -5.777617e-05))
4.480836      	((9.835646e-02 -1.072850e-01 2.616406e-02) (3.267547e-04 -2.966396e-02 1.135566e-04)) ((3.027929e-07 -1.590918e-07 8.774247e-07) (1.256273e-05 2.618214e-09 -5.590850e-05))
4.531762      	((1.030590e-01 -1.076771e-01 2.738524e-02) (4.064717e-04 -2.965611e-02 1.339987e-04)) ((3.056626e-07 -1.487830e-07 8.659564e-07) (1.237938e-05 2.004416e-07 -5.443531e-05))
