# Forces      
# CofR        : (0.000000e+00 0.000000e+00 0.000000e+00)
# Time        forces(pressure viscous)	moments(pressure viscous)
0             	((0.000000e+00 0.000000e+00 0.000000e+00) (-1.211589e-12 1.228705e-13 -1.592617e-02)) ((0.000000e+00 0.000000e+00 0.000000e+00) (-3.567250e-14 -5.355297e-09 -2.793378e-15))
0.012         	((9.701631e-05 9.218247e-05 -4.699497e+00) (-5.422945e-08 -4.226383e-08 -2.253580e-02)) ((-2.260405e-10 -1.305892e-06 -1.819043e-10) (-2.069681e-08 -3.863230e-09 2.780710e-11))
0.0264        	((2.603589e-05 5.001741e-05 1.383593e+00) (-7.436011e-07 -1.181056e-07 -2.221711e-02)) ((-2.844550e-08 2.798995e-07 2.031543e-11) (3.226721e-09 -5.486691e-08 -2.737615e-11))
0.04368       	((-1.006059e-04 -7.539082e-05 2.667874e-01) (-6.616179e-07 -1.772845e-07 -1.843197e-02)) ((2.388361e-08 -2.680857e-08 -1.200008e-10) (5.251464e-09 -8.131757e-08 -1.260669e-11))
0.064416      	((-8.505648e-05 -8.990349e-06 2.000491e-02) (2.897539e-07 -4.357050e-07 -1.631113e-02)) ((8.327331e-10 -8.568018e-08 -3.257707e-10) (-1.949543e-08 -6.474754e-08 -1.587556e-10))
0.0892992     	((-4.540693e-05 -7.816237e-05 -9.244468e-03) (1.299864e-06 -4.383457e-07 -1.496886e-02)) ((-3.938468e-09 -4.842861e-08 -1.141208e-10) (-1.748489e-08 -4.046474e-08 -7.508617e-10))
0.119159      	((1.406342e-05 2.597569e-05 -8.121971e-03) (1.952258e-06 -2.092541e-07 -1.393496e-02)) ((1.791201e-09 -7.979727e-08 3.578809e-10) (-1.568205e-08 -8.075916e-08 -2.026477e-09))
0.154991      	((-1.172598e-06 -3.305906e-05 -1.126983e-02) (2.253346e-06 -2.911160e-07 -1.317363e-02)) ((-1.615940e-09 -6.722989e-08 6.645925e-10) (-1.381797e-08 -1.654672e-07 -1.994179e-09))
0.197989      	((-4.755412e-06 8.112056e-06 -1.186007e-02) (2.606816e-06 -1.562673e-07 -1.258899e-02)) ((-3.591616e-11 -7.993901e-08 -2.986418e-10) (-1.148765e-08 -2.028699e-07 -1.450039e-09))
0.249587      	((2.107663e-06 -1.157166e-05 -1.341409e-02) (3.555408e-06 2.301236e-08 -1.209271e-02)) ((-5.457227e-10 -6.891122e-08 5.131246e-11) (-1.251497e-08 -1.923528e-07 -9.883172e-10))
0.311504      	((8.399479e-06 4.348315e-06 -1.480716e-02) (3.968173e-06 -5.305389e-08 -1.165772e-02)) ((4.030595e-11 -7.745644e-08 2.492962e-10) (-4.725521e-09 -1.812700e-07 -5.467661e-10))
0.383841      	((1.242622e-06 -4.912955e-06 -1.704532e-02) (4.166957e-06 -8.548467e-08 -1.128699e-02)) ((-3.427053e-10 -7.236875e-08 6.478459e-11) (2.300442e-09 -1.922385e-07 -3.517199e-11))
0.466614      	((5.758853e-06 2.598058e-06 -1.965013e-02) (4.663349e-06 -9.456896e-08 -1.098137e-02)) ((2.010988e-10 -7.361965e-08 -3.688752e-11) (2.927602e-09 -1.888479e-07 3.989252e-10))
0.559846      	((4.980857e-06 -7.645855e-08 -2.286790e-02) (4.935024e-06 -8.989433e-08 -1.073575e-02)) ((-4.809387e-12 -6.903896e-08 -7.229958e-11) (2.930139e-09 -1.698349e-07 6.567570e-10))
0.663516      	((-5.648630e-07 7.234484e-06 -2.617199e-02) (4.782792e-06 -4.992289e-08 -1.054210e-02)) ((-7.823589e-12 -6.741655e-08 -6.611524e-11) (3.370930e-09 -1.613132e-07 7.929548e-10))
0.767362      	((-1.098351e-05 1.039873e-05 -2.968647e-02) (4.247395e-06 -2.486960e-08 -1.039637e-02)) ((-3.069997e-10 -6.180522e-08 -1.048845e-10) (9.092163e-10 -1.534237e-07 7.951305e-10))
0.870575      	((-1.895962e-05 1.661740e-05 -3.300131e-02) (3.360395e-06 -1.128182e-07 -1.027015e-02)) ((-5.266925e-10 -5.711742e-08 -8.568021e-11) (-9.247557e-09 -1.416441e-07 7.963453e-10))
0.973274      	((-2.528779e-05 2.422476e-05 -3.590060e-02) (2.728820e-06 -2.644067e-07 -1.014478e-02)) ((-8.288809e-10 -4.973700e-08 -1.169910e-10) (-2.412505e-08 -1.279101e-07 7.800325e-10))
1.075784      	((-3.102193e-05 3.461006e-05 -3.828648e-02) (2.351092e-06 -2.526370e-07 -1.001933e-02)) ((-6.225089e-10 -4.436827e-08 -1.404419e-10) (-3.121532e-08 -1.192003e-07 7.284985e-10))
1.178463      	((-3.945055e-05 4.665211e-05 -3.999529e-02) (2.185328e-06 5.080031e-08 -9.899280e-03)) ((-1.746955e-10 -3.869889e-08 -1.451849e-10) (-2.369860e-08 -1.308234e-07 6.410054e-10))
1.281493      	((-4.749933e-05 5.999880e-05 -4.079277e-02) (2.011482e-06 4.689013e-07 -9.785830e-03)) ((3.510153e-10 -3.450616e-08 -1.328947e-10) (-1.162744e-08 -1.549070e-07 6.376246e-10))
1.384834      	((-5.780338e-05 7.095756e-05 -4.096719e-02) (1.760169e-06 7.607352e-07 -9.678778e-03)) ((5.141324e-10 -3.137941e-08 -1.333700e-10) (-6.649677e-09 -1.762657e-07 9.321775e-10))
1.48836       	((-7.737369e-05 8.037596e-05 -4.080135e-02) (1.395851e-06 8.736818e-07 -9.580574e-03)) ((7.436159e-10 -2.966204e-08 -1.455114e-10) (-1.005505e-08 -1.893184e-07 9.898994e-10))
1.591968      	((-9.126746e-05 9.644795e-05 -4.038817e-02) (1.185055e-06 9.599408e-07 -9.493174e-03)) ((1.313617e-09 -2.979499e-08 -1.238650e-10) (-1.493244e-08 -2.032776e-07 8.243720e-10))
1.695503      	((-1.103404e-04 1.098617e-04 -4.008035e-02) (1.237757e-06 1.129292e-06 -9.417321e-03)) ((1.669382e-09 -2.978971e-08 -1.524951e-10) (-1.608297e-08 -2.285889e-07 8.494061e-10))
1.799018      	((-1.374888e-04 1.249650e-04 -3.987104e-02) (1.266705e-06 1.378697e-06 -9.351591e-03)) ((2.166374e-09 -2.939549e-08 -1.754260e-10) (-1.609174e-08 -2.635425e-07 6.529402e-10))
1.902507      	((-1.650051e-04 1.422155e-04 -3.956721e-02) (1.122262e-06 1.622088e-06 -9.293320e-03)) ((2.518805e-09 -2.887270e-08 -2.169539e-10) (-1.914864e-08 -3.055496e-07 5.146294e-10))
2.005943      	((-2.063472e-04 1.614369e-04 -3.911215e-02) (9.435271e-07 1.819079e-06 -9.239259e-03)) ((2.466815e-09 -2.860955e-08 -1.486535e-10) (-2.762556e-08 -3.520268e-07 3.655776e-10))
2.109319      	((-2.569673e-04 1.848601e-04 -3.867314e-02) (6.900603e-07 1.977864e-06 -9.188333e-03)) ((2.398212e-09 -2.837889e-08 -2.115891e-10) (-4.134269e-08 -3.971107e-07 4.544131e-10))
2.212646      	((-3.150048e-04 2.131806e-04 -3.827688e-02) (3.658226e-07 2.154569e-06 -9.141107e-03)) ((2.480509e-09 -2.863615e-08 -2.305190e-10) (-5.743601e-08 -4.453493e-07 7.939311e-10))
2.315935      	((-3.854127e-04 2.398557e-04 -3.791522e-02) (-1.421602e-09 2.355835e-06 -9.098000e-03)) ((2.831583e-09 -2.875116e-08 -2.545935e-10) (-7.353016e-08 -4.960521e-07 8.784731e-10))
2.419184      	((-4.581227e-04 2.657079e-04 -3.758109e-02) (-4.757218e-07 2.629086e-06 -9.059200e-03)) ((3.229796e-09 -2.908858e-08 -2.798890e-10) (-9.028800e-08 -5.476030e-07 7.611693e-10))
2.522395      	((-5.494214e-04 3.091058e-04 -3.731367e-02) (-1.145987e-06 2.994542e-06 -9.024293e-03)) ((3.705596e-09 -2.915039e-08 -2.943969e-10) (-1.071556e-07 -5.977077e-07 5.509603e-10))
2.625569      	((-6.438432e-04 3.536582e-04 -3.708875e-02) (-2.020127e-06 3.473311e-06 -8.992753e-03)) ((4.326174e-09 -2.918836e-08 -3.590941e-10) (-1.220709e-07 -6.454316e-07 4.119826e-10))
2.728709      	((-7.601842e-04 4.072688e-04 -3.684336e-02) (-3.204819e-06 4.089895e-06 -8.963876e-03)) ((5.159877e-09 -2.854814e-08 -3.808571e-10) (-1.370811e-07 -6.896093e-07 5.118256e-10))
2.831818      	((-8.823592e-04 4.637723e-04 -3.656303e-02) (-4.685801e-06 4.808583e-06 -8.937045e-03)) ((5.955620e-09 -2.782914e-08 -4.635897e-10) (-1.530016e-07 -7.311918e-07 6.642358e-10))
2.9349        	((-1.023080e-03 5.334310e-04 -3.625502e-02) (-6.398604e-06 5.622933e-06 -8.911874e-03)) ((6.908326e-09 -2.673602e-08 -5.561332e-10) (-1.718800e-07 -7.756016e-07 8.711714e-10))
3.037955      	((-1.168522e-03 6.041999e-04 -3.598582e-02) (-8.284799e-06 6.538051e-06 -8.888159e-03)) ((7.696363e-09 -2.537521e-08 -6.705075e-10) (-1.947778e-07 -8.255869e-07 1.314316e-09))
3.140986      	((-1.334881e-03 6.867495e-04 -3.579316e-02) (-1.037272e-05 7.568342e-06 -8.865856e-03)) ((8.775589e-09 -2.350069e-08 -8.151500e-10) (-2.208200e-07 -8.802371e-07 2.151179e-09))
3.243991      	((-1.527514e-03 7.811678e-04 -3.566219e-02) (-1.282768e-05 8.804070e-06 -8.845122e-03)) ((1.005340e-08 -2.110703e-08 -8.198514e-10) (-2.485819e-07 -9.390135e-07 2.519668e-09))
3.346971      	((-1.737103e-03 8.856511e-04 -3.555798e-02) (-1.566360e-05 1.027619e-05 -8.826022e-03)) ((1.142662e-08 -1.864412e-08 -8.648535e-10) (-2.758296e-07 -1.000735e-06 2.702432e-09))
3.449924      	((-1.971258e-03 9.977892e-04 -3.545339e-02) (-1.884688e-05 1.190312e-05 -8.808521e-03)) ((1.272239e-08 -1.625622e-08 -9.430820e-10) (-3.035225e-07 -1.063951e-06 3.436507e-09))
3.552851      	((-2.227018e-03 1.128910e-03 -3.533164e-02) (-2.231828e-05 1.363102e-05 -8.792346e-03)) ((1.411211e-08 -1.399899e-08 -1.089099e-09) (-3.367604e-07 -1.134175e-06 3.754373e-09))
3.655754      	((-2.515383e-03 1.273214e-03 -3.519452e-02) (-2.605954e-05 1.550263e-05 -8.777163e-03)) ((1.582838e-08 -1.132174e-08 -1.140898e-09) (-3.786063e-07 -1.216847e-06 2.665542e-09))
3.758633      	((-2.835336e-03 1.430565e-03 -3.504305e-02) (-3.012674e-05 1.751942e-05 -8.762928e-03)) ((1.763959e-08 -8.236899e-09 -1.149607e-09) (-4.284204e-07 -1.309572e-06 4.573862e-11))
3.861487      	((-3.194691e-03 1.611914e-03 -3.489220e-02) (-3.467350e-05 1.972952e-05 -8.749671e-03)) ((1.953059e-08 -4.936368e-09 -1.067737e-09) (-4.840300e-07 -1.410176e-06 -4.084381e-09))
3.964318      	((-3.597862e-03 1.817027e-03 -3.475441e-02) (-3.977594e-05 2.223166e-05 -8.737319e-03)) ((2.149572e-08 -1.347311e-09 -1.066137e-09) (-5.435064e-07 -1.523735e-06 -1.024212e-08))
4.067126      	((-4.047844e-03 2.044277e-03 -3.463793e-02) (-4.538569e-05 2.503820e-05 -8.725824e-03)) ((2.371527e-08 2.900077e-09 -1.122077e-09) (-6.086318e-07 -1.659293e-06 -1.530050e-08))
4.169915      	((-4.548357e-03 2.296850e-03 -3.454856e-02) (-5.150590e-05 2.819731e-05 -8.715115e-03)) ((2.616717e-08 7.927246e-09 -1.260060e-09) (-6.791040e-07 -1.821333e-06 -1.728359e-08))
4.272684      	((-5.110948e-03 2.576145e-03 -3.447406e-02) (-5.824752e-05 3.179991e-05 -8.705116e-03)) ((2.898811e-08 1.371351e-08 -1.330077e-09) (-7.538664e-07 -2.007242e-06 -1.764060e-08))
4.375434      	((-5.746043e-03 2.886137e-03 -3.440752e-02) (-6.573677e-05 3.588687e-05 -8.695796e-03)) ((3.218764e-08 2.038010e-08 -1.393506e-09) (-8.345633e-07 -2.215517e-06 -1.807079e-08))
4.478163      	((-6.458361e-03 3.227686e-03 -3.435293e-02) (-7.409730e-05 4.040235e-05 -8.687212e-03)) ((3.581865e-08 2.769044e-08 -1.291588e-09) (-9.252691e-07 -2.445929e-06 -1.992365e-08))
4.580865      	((-7.258314e-03 3.612910e-03 -3.430050e-02) (-8.352534e-05 4.536097e-05 -8.679339e-03)) ((4.006863e-08 3.583526e-08 -1.093923e-09) (-1.028845e-06 -2.698602e-06 -2.343400e-08))
4.683539      	((-8.148566e-03 4.050410e-03 -3.426412e-02) (-9.414820e-05 5.083871e-05 -8.672074e-03)) ((4.477267e-08 4.491626e-08 -1.164958e-09) (-1.151537e-06 -2.977796e-06 -2.723887e-08))
4.786183      	((-9.146324e-03 4.544060e-03 -3.424121e-02) (-1.060447e-04 5.676945e-05 -8.665306e-03)) ((4.982356e-08 5.492632e-08 -1.335945e-09) (-1.305944e-06 -3.291236e-06 -3.123657e-08))
4.888797      	((-1.025716e-02 5.101924e-03 -3.423602e-02) (-1.192949e-04 6.316349e-05 -8.659037e-03)) ((5.526789e-08 6.637510e-08 -1.618335e-09) (-1.498478e-06 -3.648024e-06 -3.420449e-08))
4.991379      	((-1.148324e-02 5.720720e-03 -3.424599e-02) (-1.339990e-04 7.018855e-05 -8.653399e-03)) ((6.095809e-08 7.920395e-08 -2.093495e-09) (-1.723071e-06 -4.055742e-06 -3.355818e-08))
5.093927      	((-1.284371e-02 6.409811e-03 -3.428453e-02) (-1.503883e-04 7.798274e-05 -8.648497e-03)) ((6.711109e-08 9.357486e-08 -2.538118e-09) (-1.983578e-06 -4.512567e-06 -2.808019e-08))
5.196438      	((-1.434885e-02 7.178752e-03 -3.436713e-02) (-1.689247e-04 8.679056e-05 -8.644537e-03)) ((7.413506e-08 1.093972e-07 -2.808941e-09) (-2.280345e-06 -5.006876e-06 -1.728328e-08))
5.298909      	((-1.599509e-02 8.027704e-03 -3.450512e-02) (-1.898521e-04 9.702520e-05 -8.641987e-03)) ((8.235738e-08 1.262312e-07 -2.795447e-09) (-2.600642e-06 -5.529253e-06 4.669046e-10))
5.401338      	((-1.780101e-02 8.961453e-03 -3.471921e-02) (-2.133641e-04 1.088594e-04 -8.641530e-03)) ((9.183788e-08 1.443519e-07 -2.439807e-09) (-2.937673e-06 -6.075952e-06 2.132568e-08))
5.50372       	((-1.979350e-02 9.980807e-03 -3.498882e-02) (-2.398885e-04 1.221784e-04 -8.643682e-03)) ((1.017569e-07 1.634992e-07 -1.765759e-09) (-3.295393e-06 -6.646989e-06 3.752366e-08))
5.606052      	((-2.199248e-02 1.111438e-02 -3.532887e-02) (-2.698617e-04 1.371537e-04 -8.648598e-03)) ((1.116133e-07 1.830538e-07 -1.077943e-09) (-3.663921e-06 -7.241707e-06 4.777377e-08))
5.708329      	((-2.440992e-02 1.234852e-02 -3.580433e-02) (-3.035701e-04 1.539660e-04 -8.656241e-03)) ((1.218304e-07 2.020450e-07 -4.279387e-10) (-4.040842e-06 -7.869760e-06 5.005039e-08))
5.810544      	((-2.707606e-02 1.370189e-02 -3.640750e-02) (-3.413854e-04 1.728081e-04 -8.666950e-03)) ((1.327445e-07 2.204644e-07 -4.208664e-10) (-4.428397e-06 -8.537985e-06 4.466949e-08))
5.912693      	((-2.997825e-02 1.515727e-02 -3.717483e-02) (-3.839781e-04 1.938001e-04 -8.681693e-03)) ((1.439755e-07 2.379313e-07 -6.065157e-10) (-4.818443e-06 -9.225522e-06 2.760441e-08))
6.014769      	((-3.310113e-02 1.672883e-02 -3.811505e-02) (-4.318091e-04 2.171875e-04 -8.701157e-03)) ((1.556678e-07 2.538268e-07 -1.287026e-09) (-5.203509e-06 -9.911450e-06 1.510627e-09))
6.116765      	((-3.641658e-02 1.838080e-02 -3.925234e-02) (-4.844718e-04 2.430089e-04 -8.726180e-03)) ((1.668961e-07 2.668493e-07 -2.364197e-09) (-5.579855e-06 -1.061068e-05 -2.875709e-08))
6.218675      	((-3.985531e-02 2.010280e-02 -4.067668e-02) (-5.412432e-04 2.712898e-04 -8.757741e-03)) ((1.765010e-07 2.756004e-07 -3.766642e-09) (-5.946535e-06 -1.134144e-05 -5.024583e-08))
6.320494      	((-4.335205e-02 2.187587e-02 -4.243258e-02) (-6.016593e-04 3.020887e-04 -8.796662e-03)) ((1.837134e-07 2.787559e-07 -5.592064e-09) (-6.287999e-06 -1.209948e-05 -5.580818e-08))
6.422216      	((-4.682590e-02 2.364463e-02 -4.444586e-02) (-6.657453e-04 3.352647e-04 -8.843217e-03)) ((1.876218e-07 2.765602e-07 -6.875926e-09) (-6.587933e-06 -1.284772e-05 -5.656408e-08))
6.523836      	((-5.017847e-02 2.533925e-02 -4.665259e-02) (-7.332107e-04 3.701032e-04 -8.898039e-03)) ((1.890658e-07 2.714516e-07 -7.577731e-09) (-6.858991e-06 -1.354742e-05 -5.404599e-08))
6.62535       	((-5.316889e-02 2.694951e-02 -4.908727e-02) (-8.025458e-04 4.063140e-04 -8.961718e-03)) ((1.891744e-07 2.627789e-07 -9.028237e-09) (-7.084595e-06 -1.415952e-05 -5.609575e-08))
6.726756      	((-5.563565e-02 2.829343e-02 -5.167992e-02) (-8.714910e-04 4.428402e-04 -9.034119e-03)) ((1.865643e-07 2.497572e-07 -1.235208e-08) (-7.238155e-06 -1.465253e-05 -6.041831e-08))
6.828055      	((-5.741622e-02 2.921678e-02 -5.423962e-02) (-9.381354e-04 4.781661e-04 -9.114244e-03)) ((1.805374e-07 2.334852e-07 -1.773802e-08) (-7.304307e-06 -1.497077e-05 -4.142712e-08))
6.929252      	((-5.835014e-02 2.966368e-02 -5.655728e-02) (-9.998385e-04 5.102578e-04 -9.199439e-03)) ((1.685036e-07 2.123103e-07 -2.448865e-08) (-7.304083e-06 -1.508114e-05 1.736257e-08))
7.030358      	((-5.828696e-02 2.956867e-02 -5.834721e-02) (-1.052803e-03 5.365039e-04 -9.284048e-03)) ((1.495749e-07 1.829504e-07 -3.256561e-08) (-7.295539e-06 -1.502916e-05 1.085277e-07))
7.131388      	((-5.707481e-02 2.880290e-02 -5.942366e-02) (-1.092220e-03 5.548538e-04 -9.360577e-03)) ((1.211239e-07 1.429294e-07 -4.008079e-08) (-7.287967e-06 -1.490763e-05 2.165096e-07))
7.232362      	((-5.455659e-02 2.730754e-02 -5.973460e-02) (-1.112977e-03 5.630109e-04 -9.424569e-03)) ((8.749964e-08 9.030214e-08 -4.651025e-08) (-7.239440e-06 -1.474989e-05 3.335878e-07))
7.333303      	((-5.077305e-02 2.519459e-02 -5.900346e-02) (-1.109736e-03 5.588688e-04 -9.474110e-03)) ((5.729128e-08 3.230272e-08 -4.978314e-08) (-7.126830e-06 -1.459558e-05 4.607216e-07))
7.434242      	((-4.566425e-02 2.242631e-02 -5.738215e-02) (-1.078392e-03 5.405886e-04 -9.507628e-03)) ((3.488176e-08 -1.966254e-08 -4.865186e-08) (-6.973348e-06 -1.445941e-05 6.022128e-07))
7.535219      	((-3.951718e-02 1.912975e-02 -5.527619e-02) (-1.016625e-03 5.065932e-04 -9.526679e-03)) ((2.596825e-08 -4.706215e-08 -4.385544e-08) (-6.821279e-06 -1.436024e-05 7.284313e-07))
7.636275      	((-3.292212e-02 1.560222e-02 -5.294195e-02) (-9.261631e-04 4.570546e-04 -9.536157e-03)) ((2.962525e-08 -5.184986e-08 -3.866563e-08) (-6.681753e-06 -1.428030e-05 8.165826e-07))
7.737451      	((-2.658281e-02 1.224556e-02 -5.042935e-02) (-8.160083e-04 3.963227e-04 -9.539610e-03)) ((3.097378e-08 -5.753226e-08 -3.658687e-08) (-6.544316e-06 -1.413472e-05 8.647798e-07))
7.838785      	((-2.094295e-02 9.380503e-03 -4.809937e-02) (-6.961649e-04 3.306862e-04 -9.540497e-03)) ((2.584940e-08 -7.870539e-08 -3.384376e-08) (-6.410179e-06 -1.388154e-05 8.658869e-07))
7.940305      	((-1.662875e-02 7.265544e-03 -4.607201e-02) (-5.763302e-04 2.662263e-04 -9.541810e-03)) ((1.234457e-08 -9.414996e-08 -2.977827e-08) (-6.273968e-06 -1.355087e-05 8.564359e-07))
8.042032      	((-1.373406e-02 6.008305e-03 -4.449358e-02) (-4.658396e-04 2.079963e-04 -9.544877e-03)) ((-6.168030e-09 -1.043985e-07 -2.612928e-08) (-6.172440e-06 -1.319449e-05 8.553835e-07))
8.143969      	((-1.217957e-02 5.502996e-03 -4.331612e-02) (-3.671463e-04 1.589063e-04 -9.550732e-03)) ((-1.483610e-08 -1.136974e-07 -2.235639e-08) (-6.105644e-06 -1.300112e-05 8.800259e-07))
8.246106      	((-1.163412e-02 5.574523e-03 -4.247562e-02) (-2.820436e-04 1.218755e-04 -9.560324e-03)) ((-1.903405e-08 -1.169351e-07 -1.988436e-08) (-6.002345e-06 -1.301257e-05 9.420074e-07))
8.348424      	((-1.188453e-02 6.119303e-03 -4.173122e-02) (-2.140117e-04 9.858046e-05 -9.572700e-03)) ((-1.936485e-08 -1.160632e-07 -1.825849e-08) (-5.804574e-06 -1.310819e-05 1.012813e-06))
8.4509        	((-1.264835e-02 6.927243e-03 -4.082347e-02) (-1.667254e-04 8.747110e-05 -9.585193e-03)) ((-1.824062e-08 -1.006846e-07 -1.994900e-08) (-5.519063e-06 -1.309173e-05 1.036300e-06))
8.553501      	((-1.367552e-02 7.830365e-03 -3.958120e-02) (-1.424460e-04 8.577506e-05 -9.592931e-03)) ((-7.138674e-09 -6.658648e-08 -2.063834e-08) (-5.196414e-06 -1.278983e-05 9.555931e-07))
8.656197      	((-1.479547e-02 8.775588e-03 -3.785698e-02) (-1.401660e-04 9.102208e-05 -9.589602e-03)) ((1.271042e-08 -1.907104e-08 -1.984555e-08) (-4.894838e-06 -1.214349e-05 7.475159e-07))
8.758956      	((-1.600869e-02 9.726150e-03 -3.590973e-02) (-1.540293e-04 1.024700e-04 -9.570295e-03)) ((4.237497e-08 3.464678e-08 -1.797568e-08) (-4.641506e-06 -1.134940e-05 5.023991e-07))
8.861749      	((-1.726729e-02 1.063917e-02 -3.434358e-02) (-1.763751e-04 1.187098e-04 -9.540153e-03)) ((7.406288e-08 8.052435e-08 -1.596212e-08) (-4.412536e-06 -1.059341e-05 3.460834e-07))
8.964552      	((-1.870930e-02 1.158852e-02 -3.362987e-02) (-2.014356e-04 1.376764e-04 -9.507916e-03)) ((1.024740e-07 1.139914e-07 -1.305808e-08) (-4.238980e-06 -1.000429e-05 3.403338e-07))
9.067342      	((-2.043643e-02 1.253300e-02 -3.387950e-02) (-2.267473e-04 1.569979e-04 -9.479657e-03)) ((1.250241e-07 1.346171e-07 -9.145787e-09) (-4.188750e-06 -9.685805e-06 4.668543e-07))
