# Forces      
# CofR        : (0.000000e+00 0.000000e+00 0.000000e+00)
# Time        forces(pressure viscous)	moments(pressure viscous)
0             	((0.000000e+00 0.000000e+00 0.000000e+00) (0.000000e+00 0.000000e+00 0.000000e+00)) ((0.000000e+00 0.000000e+00 0.000000e+00) (0.000000e+00 0.000000e+00 0.000000e+00))
0.012         	((-1.344804e-11 2.263192e-11 5.437639e-09) (-5.436371e-15 1.196297e-13 1.142242e-10)) ((-2.453733e-15 2.115404e-10 -1.113722e-16) (2.631951e-16 1.397262e-07 -8.260261e-15))
0.0264        	((2.260696e-11 -2.404849e-11 -2.044268e-09) (-1.515386e-14 3.381156e-13 1.986315e-10)) ((-5.199414e-16 1.059125e-10 1.030108e-14) (3.761591e-15 1.279784e-07 -1.166894e-14))
0.04368       	((7.797002e-11 1.302506e-10 1.894398e-09) (1.805101e-13 2.560037e-13 2.153583e-10)) ((1.905403e-15 5.844417e-11 6.670037e-15) (-6.297011e-15 1.159064e-07 -1.675968e-14))
0.064416      	((-2.178020e-11 -3.603537e-11 7.049316e-11) (5.598118e-13 -1.808964e-13 1.779699e-10)) ((6.744518e-18 3.329964e-11 -4.454704e-16) (-2.138506e-14 1.037741e-07 -2.196355e-14))
0.0892992     	((6.950155e-11 4.041285e-11 2.360188e-10) (7.441411e-13 -6.320562e-13 1.476460e-10)) ((-5.175067e-16 2.474832e-11 -4.714091e-17) (-2.932867e-14 9.193550e-08 -2.268057e-14))
0.119159      	((-2.364351e-11 -1.059652e-11 6.057062e-11) (8.439549e-13 -1.099578e-12 1.251896e-10)) ((2.921126e-16 1.777780e-11 -7.026669e-17) (-3.890570e-14 8.075523e-08 -2.609804e-14))
0.154991      	((-2.246128e-11 -2.548022e-11 -1.557654e-10) (8.941112e-13 -1.734762e-12 1.008949e-10)) ((-3.405181e-16 1.406225e-11 1.083829e-15) (-5.114734e-14 7.049103e-08 -3.162662e-14))
0.197989      	((-2.034072e-11 -1.704407e-11 1.499473e-11) (9.301970e-13 -2.251824e-12 7.893838e-11)) ((-5.262012e-16 1.118940e-11 1.091922e-15) (-5.834001e-14 6.139165e-08 -3.631716e-14))
0.249587      	((-1.234678e-12 -1.779692e-11 -1.491039e-10) (1.046845e-12 -2.526570e-12 6.260433e-11)) ((-7.868438e-16 9.230744e-12 -2.931512e-16) (-5.853440e-14 5.359096e-08 -3.189122e-14))
0.311504      	((-8.527353e-12 4.882867e-12 -2.970943e-11) (1.064045e-12 -2.721717e-12 4.885701e-11)) ((-6.973401e-16 7.690222e-12 -1.049327e-15) (-5.527921e-14 4.706984e-08 -2.143253e-14))
0.385805      	((-1.329512e-11 1.390673e-11 3.097376e-12) (1.241645e-12 -2.778827e-12 3.733213e-11)) ((-1.940412e-16 6.598860e-12 -1.781165e-15) (-5.210948e-14 4.168787e-08 -1.590765e-14))
0.474966      	((-2.254340e-11 -3.415133e-12 3.399045e-11) (1.123553e-12 -2.963867e-12 2.657448e-11)) ((-6.376903e-17 5.880288e-12 -1.256157e-15) (-5.058123e-14 3.723361e-08 -3.475081e-15))
0.581959      	((-3.552635e-11 -1.795308e-11 -3.423289e-11) (7.352938e-13 -3.105249e-12 1.765702e-11)) ((-3.922486e-16 5.267278e-12 -5.081467e-16) (-5.314722e-14 3.348780e-08 1.226416e-14))
0.710351      	((-4.900335e-11 -2.463817e-11 7.290396e-11) (7.125796e-13 -2.216511e-12 1.570348e-11)) ((-9.715786e-16 4.677698e-12 -5.380147e-16) (-4.640505e-14 3.026934e-08 -2.610192e-15))
0.864421      	((-4.892225e-11 -2.126152e-11 4.016118e-11) (1.562614e-12 2.656316e-13 1.440453e-11)) ((-1.208815e-15 4.280177e-12 4.392467e-16) (-2.431793e-14 2.744969e-08 -3.711882e-14))
1.049306      	((-6.000153e-11 -2.075603e-11 1.619978e-12) (1.915355e-12 2.543042e-12 9.232135e-12)) ((-1.719789e-15 4.027389e-12 6.205992e-16) (1.458244e-14 2.494387e-08 -6.211291e-14))
1.271167      	((-9.092371e-11 -1.674964e-11 7.746630e-11) (2.832629e-12 3.609485e-12 3.873186e-12)) ((-6.825215e-16 3.769366e-12 1.114274e-15) (6.892578e-14 2.269451e-08 -4.990205e-14))
1.5374        	((-8.211557e-11 6.744797e-12 8.797134e-11) (5.323308e-12 3.952659e-12 -3.183222e-12)) ((8.972148e-16 3.469598e-12 1.723100e-15) (1.212615e-13 2.066429e-08 -9.495039e-15))
1.85688       	((-8.555166e-11 -9.624310e-12 5.985505e-11) (7.614266e-12 4.122046e-12 -1.385606e-11)) ((2.128329e-15 3.200858e-12 8.789203e-16) (1.898098e-13 1.883295e-08 7.251962e-14))
2.240256      	((-8.667230e-11 -3.779184e-12 7.217522e-11) (1.106269e-11 3.451206e-12 -2.129002e-11)) ((2.465045e-15 3.024741e-12 7.655905e-16) (2.624291e-13 1.719006e-08 1.848863e-13))
2.700307      	((-9.215408e-11 -1.807134e-12 5.486615e-11) (1.615640e-11 2.094576e-12 -2.530834e-11)) ((1.902437e-15 2.897619e-12 7.597409e-16) (3.791822e-13 1.572817e-08 3.944821e-13))
3.252369      	((-6.469439e-11 -5.770954e-12 3.179769e-11) (2.309153e-11 7.418922e-13 -3.789798e-11)) ((2.053564e-15 2.768274e-12 9.835398e-16) (5.319264e-13 1.443716e-08 6.452521e-13))
3.914842      	((-3.326210e-11 -4.757507e-12 8.864664e-12) (3.170321e-11 -8.237320e-13 -5.769727e-11)) ((1.203305e-15 2.618970e-12 1.697363e-15) (6.397249e-13 1.330173e-08 7.797589e-13))
4.709811      	((-1.793500e-11 -3.488575e-14 -1.397166e-11) (4.059388e-11 -2.588210e-12 -6.591897e-11)) ((1.505865e-15 2.456119e-12 1.386322e-15) (7.288809e-13 1.230063e-08 8.805016e-13))
5.663773      	((1.533365e-12 -3.998820e-12 1.516814e-11) (4.518214e-11 -2.054936e-12 -6.240617e-11)) ((1.621678e-15 2.281278e-12 1.334198e-16) (7.881306e-13 1.141021e-08 8.771653e-13))
6.808528      	((1.773434e-11 -6.969069e-12 5.460412e-12) (4.408077e-11 -6.906391e-13 -5.921572e-11)) ((1.553230e-15 2.101098e-12 -8.252723e-16) (7.745295e-13 1.060957e-08 7.968055e-13))
8.182233      	((1.860357e-11 -5.045587e-12 1.823081e-12) (4.062483e-11 -1.359661e-12 -5.256528e-11)) ((1.710175e-15 1.926850e-12 -4.614489e-16) (6.763127e-13 9.882607e-09 7.292587e-13))
9.83068       	((1.270031e-11 -7.333158e-12 1.823335e-12) (3.444046e-11 -2.017182e-12 -3.952809e-11)) ((1.247912e-15 1.748674e-12 -5.084784e-16) (5.431461e-13 9.217113e-09 6.413475e-13))
11.808816     	((5.406461e-12 -6.067965e-12 1.763492e-11) (2.659189e-11 -1.630287e-13 -2.478253e-11)) ((9.259761e-16 1.589522e-12 -1.050864e-15) (4.303339e-13 8.604606e-09 4.806685e-13))
14.182579     	((-9.832234e-12 -2.485490e-12 1.765671e-11) (1.836513e-11 3.301538e-12 -1.645803e-11)) ((7.788212e-16 1.444802e-12 -1.367912e-15) (3.324640e-13 8.040076e-09 2.569799e-13))
17.031095     	((-6.110702e-12 -4.105492e-12 1.156131e-11) (1.257575e-11 4.405944e-12 -1.152909e-11)) ((2.173495e-16 1.320147e-12 -1.607882e-15) (2.361599e-13 7.520922e-09 1.250778e-13))
20.449314     	((-9.986639e-12 -2.444407e-12 1.673018e-11) (8.686914e-12 2.808739e-12 -7.218026e-12)) ((1.886650e-16 1.209505e-12 -1.782465e-15) (1.558669e-13 7.045507e-09 8.934451e-14))
24.551176     	((3.038360e-13 -1.237615e-13 1.802076e-11) (5.812609e-12 1.165998e-12 -6.279613e-12)) ((2.465219e-16 1.111386e-12 -1.752897e-15) (9.753861e-14 6.611176e-09 6.430830e-14))
29.473411     	((-4.656118e-12 -1.633675e-12 2.026733e-11) (4.173499e-12 4.882996e-13 -7.600204e-12)) ((1.537265e-16 1.028745e-12 -1.466829e-15) (7.502049e-14 6.214986e-09 4.207461e-14))
35.380094     	((-4.532739e-12 -5.507944e-13 2.021405e-11) (4.059948e-12 -1.155277e-13 -8.724631e-12)) ((1.615117e-16 9.551893e-13 -1.330045e-15) (6.799545e-14 5.853689e-09 2.375021e-14))
42.468112     	((-4.512974e-12 -1.199546e-12 1.544883e-11) (4.642438e-12 -6.949580e-13 -9.643818e-12)) ((1.978556e-16 8.919744e-13 -9.805368e-16) (7.417353e-14 5.524197e-09 2.632950e-14))
50.973735     	((-1.935816e-12 1.120960e-12 1.345701e-11) (4.460966e-12 -1.000182e-12 -9.694869e-12)) ((4.394711e-16 8.351297e-13 -7.453104e-16) (9.105631e-14 5.223991e-09 5.184713e-14))
61.180482     	((-3.393079e-12 -1.627835e-12 1.042029e-11) (4.189592e-12 -1.265234e-12 -9.507162e-12)) ((2.375747e-16 7.846009e-13 -6.985062e-16) (1.179625e-13 4.950755e-09 8.337360e-14))
73.428578     	((1.940943e-12 -9.122793e-13 1.065330e-11) (4.768920e-12 -1.371203e-12 -9.980146e-12)) ((1.315529e-16 7.395634e-13 -4.556781e-16) (1.396625e-13 4.702459e-09 9.769717e-14))
88.126294     	((3.361661e-12 -1.865239e-12 9.890683e-12) (4.854917e-12 -1.313335e-12 -1.034736e-11)) ((1.177024e-16 6.983068e-13 -2.324887e-16) (1.505078e-13 4.477251e-09 9.783127e-14))
105.763553    	((3.499952e-12 -2.134744e-12 8.508060e-12) (4.380582e-12 -1.024776e-12 -1.098454e-11)) ((4.789622e-17 6.604186e-13 -4.624715e-17) (1.625727e-13 4.273380e-09 9.678488e-14))
126.928263    	((2.013318e-12 -1.807696e-12 7.795412e-12) (3.867963e-12 -8.792558e-13 -1.211734e-11)) ((-1.370691e-17 6.262833e-13 4.173026e-17) (1.664667e-13 4.089070e-09 9.927678e-14))
152.325916    	((1.335251e-12 -1.281179e-12 5.787061e-12) (4.416740e-12 -9.111262e-13 -1.321807e-11)) ((1.146914e-17 5.959296e-13 7.025200e-17) (1.595784e-13 3.922296e-09 1.027665e-13))
182.803099    	((3.532341e-12 -1.166878e-12 5.459490e-12) (5.523445e-12 -8.100031e-13 -1.479144e-11)) ((8.676307e-17 5.681246e-13 5.322920e-17) (1.569600e-13 3.771097e-09 9.923762e-14))
219.375719    	((4.250209e-12 -7.480539e-13 4.661820e-12) (6.255006e-12 -4.243836e-13 -1.627856e-11)) ((1.751979e-16 5.432464e-13 3.274983e-17) (1.653480e-13 3.633751e-09 9.234431e-14))
263.262863    	((5.054680e-12 3.319332e-14 3.571074e-12) (6.871483e-12 -1.194678e-13 -1.757144e-11)) ((2.338323e-16 5.204503e-13 5.382884e-17) (1.744576e-13 3.508869e-09 8.179494e-14))
315.927436    	((5.277046e-12 2.520107e-13 2.268634e-12) (7.187263e-12 -1.120009e-13 -1.881030e-11)) ((2.865230e-16 4.995753e-13 9.544553e-17) (1.734057e-13 3.395366e-09 8.206097e-14))
379.124923    	((5.866988e-12 3.258497e-13 1.739509e-12) (7.618261e-12 -5.188514e-14 -1.983489e-11)) ((3.648289e-16 4.805101e-13 1.711765e-16) (1.682645e-13 3.292364e-09 8.260320e-14))
454.961908    	((5.876862e-12 3.553912e-13 1.959675e-12) (8.000712e-12 -4.949746e-14 -2.027234e-11)) ((4.227670e-16 4.630457e-13 2.387070e-16) (1.608928e-13 3.199122e-09 8.038765e-14))
545.966289    	((5.683354e-12 7.734872e-13 1.637605e-12) (7.922227e-12 -8.686984e-14 -1.994835e-11)) ((4.666080e-16 4.468777e-13 2.462353e-16) (1.532112e-13 3.114943e-09 7.686910e-14))
655.171547    	((6.860813e-12 8.874359e-13 2.414479e-12) (7.641816e-12 -2.466373e-13 -1.920598e-11)) ((4.242039e-16 4.319497e-13 2.919601e-16) (1.456915e-13 3.039173e-09 7.712046e-14))
786.217856    	((7.405403e-12 4.439608e-13 2.999900e-12) (7.511186e-12 -3.845784e-13 -1.861639e-11)) ((3.954928e-16 4.183983e-13 3.203082e-16) (1.387290e-13 2.971228e-09 7.977806e-14))
943.473427    	((7.450319e-12 -1.063810e-13 2.075865e-12) (7.556977e-12 -6.123034e-13 -1.839039e-11)) ((4.166552e-16 4.065553e-13 3.269924e-16) (1.291577e-13 2.910584e-09 8.309404e-14))
1132.180113   	((7.644426e-12 -1.097407e-13 1.805565e-12) (7.525448e-12 -7.039469e-13 -1.831568e-11)) ((3.940864e-16 3.961299e-13 2.781225e-16) (1.206187e-13 2.856703e-09 8.421666e-14))
1358.628135   	((8.097056e-12 3.746768e-13 1.468894e-12) (7.759855e-12 -7.528798e-13 -1.810003e-11)) ((3.439587e-16 3.869912e-13 2.222603e-16) (1.142389e-13 2.809048e-09 8.290416e-14))
1630.365763   	((7.338520e-12 1.073876e-12 9.083883e-13) (7.742602e-12 -6.580392e-13 -1.818678e-11)) ((2.991045e-16 3.790413e-13 1.589863e-16) (1.125889e-13 2.767122e-09 7.981826e-14))
1956.450915   	((7.142232e-12 1.563187e-12 8.297517e-13) (7.560931e-12 -5.575090e-13 -1.803938e-11)) ((2.391041e-16 3.720967e-13 1.081246e-16) (1.087183e-13 2.730440e-09 7.606528e-14))
2347.753098   	((6.879949e-12 1.718214e-12 2.991363e-14) (7.382076e-12 -4.636854e-13 -1.787932e-11)) ((2.092715e-16 3.660895e-13 4.441278e-17) (1.032194e-13 2.698518e-09 7.289469e-14))
2817.315718   	((7.144542e-12 1.797251e-12 -2.864204e-13) (7.157279e-12 -3.822395e-13 -1.762947e-11)) ((1.702375e-16 3.609231e-13 1.455776e-17) (9.778474e-14 2.670881e-09 6.950448e-14))
3380.790861   	((7.537722e-12 1.587997e-12 -2.341628e-13) (6.817760e-12 -3.224541e-13 -1.728173e-11)) ((1.728307e-16 3.566895e-13 2.082448e-17) (9.289048e-14 2.647091e-09 6.450325e-14))
4046.298969   	((8.000600e-12 1.257447e-12 -6.522557e-14) (6.542482e-12 -3.149461e-13 -1.688205e-11)) ((1.695224e-16 3.531029e-13 4.101098e-17) (8.828753e-14 2.626753e-09 5.952039e-14))
4813.848745   	((8.012696e-12 9.494643e-13 -5.139007e-14) (6.347485e-12 -3.330101e-13 -1.648221e-11)) ((1.622801e-16 3.500439e-13 6.014339e-17) (8.379571e-14 2.609490e-09 5.513425e-14))
5683.448076   	((7.890308e-12 6.108822e-13 -2.117902e-13) (6.291936e-12 -3.424289e-13 -1.611633e-11)) ((1.595779e-16 3.474618e-13 7.236013e-17) (8.043683e-14 2.594937e-09 5.166590e-14))
6655.103935   	((7.578762e-12 3.953904e-13 -3.588177e-13) (6.287412e-12 -3.514237e-13 -1.575601e-11)) ((1.571081e-16 3.453073e-13 7.152025e-17) (7.786447e-14 2.582740e-09 4.844791e-14))
7675.729819   	((7.155338e-12 2.372696e-13 -6.131621e-13) (6.280257e-12 -3.589594e-13 -1.544281e-11)) ((1.581981e-16 3.435209e-13 7.827873e-17) (7.518187e-14 2.572583e-09 4.558460e-14))
8696.406683   	((6.722110e-12 2.643017e-13 -8.243523e-13) (6.268618e-12 -3.676058e-13 -1.520446e-11)) ((1.581667e-16 3.420457e-13 8.624138e-17) (7.267882e-14 2.564172e-09 4.299452e-14))
9717.125979   	((6.238645e-12 4.181502e-13 -9.322987e-13) (6.248703e-12 -3.795529e-13 -1.502100e-11)) ((1.591166e-16 3.408329e-13 9.299973e-17) (7.034305e-14 2.557234e-09 4.092346e-14))
10737.88091   	((5.846373e-12 6.342998e-13 -1.028755e-12) (6.225106e-12 -3.941939e-13 -1.488406e-11)) ((1.593396e-16 3.398399e-13 9.783241e-17) (6.823127e-14 2.551525e-09 3.922804e-14))
11758.66567   	((5.530996e-12 8.522555e-13 -1.138450e-12) (6.204118e-12 -4.048918e-13 -1.477222e-11)) ((1.599664e-16 3.390273e-13 1.016010e-16) (6.653552e-14 2.546833e-09 3.797403e-14))
12779.475282  	((5.249772e-12 1.046443e-12 -1.227296e-12) (6.171184e-12 -4.110751e-13 -1.468156e-11)) ((1.595163e-16 3.383658e-13 1.065250e-16) (6.511312e-14 2.542981e-09 3.709130e-14))
13800.30551   	((4.924035e-12 1.199152e-12 -1.254301e-12) (6.127751e-12 -4.145492e-13 -1.460913e-11)) ((1.580860e-16 3.378350e-13 1.098638e-16) (6.399564e-14 2.539818e-09 3.638081e-14))
14821.152836  	((4.551791e-12 1.342053e-12 -1.172874e-12) (6.065216e-12 -4.152005e-13 -1.455284e-11)) ((1.570709e-16 3.374102e-13 1.136368e-16) (6.311717e-14 2.537223e-09 3.582014e-14))
15842.014335  	((4.250279e-12 1.532862e-12 -1.071750e-12) (6.024336e-12 -4.169414e-13 -1.450892e-11)) ((1.769609e-16 3.370263e-13 1.038978e-16) (6.294843e-14 2.535094e-09 3.497611e-14))
16862.887585  	((3.889864e-12 1.730968e-12 -9.087006e-13) (5.974882e-12 -4.087322e-13 -1.445401e-11)) ((1.810869e-16 3.367366e-13 1.034334e-16) (6.250119e-14 2.533346e-09 3.460838e-14))
17883.77057   	((3.625533e-12 1.840630e-12 -7.912107e-13) (5.930244e-12 -4.144980e-13 -1.440449e-11)) ((1.803842e-16 3.364952e-13 1.023740e-16) (6.221453e-14 2.531912e-09 3.428163e-14))
18904.661602  	((3.418030e-12 1.897862e-12 -6.949732e-13) (5.896656e-12 -4.178407e-13 -1.436036e-11)) ((1.794926e-16 3.362932e-13 1.023389e-16) (6.200682e-14 2.530735e-09 3.422129e-14))
19925.559277  	((3.243004e-12 1.932353e-12 -6.043234e-13) (5.871843e-12 -4.174012e-13 -1.432834e-11)) ((1.796421e-16 3.361284e-13 1.039709e-16) (6.172197e-14 2.529768e-09 3.411318e-14))
20946.462431  	((3.073345e-12 1.947604e-12 -5.056200e-13) (5.847755e-12 -4.159735e-13 -1.429927e-11)) ((1.798112e-16 3.359931e-13 1.069552e-16) (6.145521e-14 2.528974e-09 3.393153e-14))
21967.370108  	((2.921416e-12 1.963590e-12 -4.028370e-13) (5.825518e-12 -4.136487e-13 -1.427345e-11)) ((1.802206e-16 3.358822e-13 1.102382e-16) (6.118410e-14 2.528323e-09 3.373093e-14))
22988.281512  	((2.809761e-12 1.978794e-12 -3.131747e-13) (5.813609e-12 -4.118252e-13 -1.425461e-11)) ((1.805336e-16 3.357917e-13 1.121871e-16) (6.095327e-14 2.527787e-09 3.359525e-14))
24009.195985  	((2.718922e-12 1.991814e-12 -2.300206e-13) (5.805243e-12 -4.116569e-13 -1.424003e-11)) ((1.805588e-16 3.357179e-13 1.129340e-16) (6.078059e-14 2.527348e-09 3.354513e-14))
