# Forces      
# CofR        : (0.000000e+00 0.000000e+00 0.000000e+00)
# Time        forces(pressure viscous)	moments(pressure viscous)
0             	((0.000000e+00 0.000000e+00 0.000000e+00) (-1.592933e-04 2.122154e-14 -9.495783e-15)) ((0.000000e+00 0.000000e+00 0.000000e+00) (8.129501e-18 1.274644e-15 2.189686e-15))
0.012         	((-4.633135e-02 1.541921e-08 1.575742e-08) (-1.827420e-04 1.246348e-10 1.066369e-10)) ((-1.255284e-13 1.867719e-11 7.727679e-12) (1.438650e-14 9.194662e-14 -3.012110e-12))
0.0264        	((3.340900e-03 -7.393650e-07 -3.109938e-07) (-1.863097e-04 -3.574714e-10 -9.201254e-11)) ((-2.485441e-12 -3.646578e-11 -5.366468e-12) (-5.085087e-13 -9.910978e-13 -5.353543e-12))
0.04368       	((9.620933e-03 1.162321e-06 6.742709e-07) (-1.654354e-04 2.066655e-10 1.825410e-10)) ((-5.158293e-12 -2.027394e-11 -3.898198e-11) (-3.066527e-13 -8.318591e-12 -2.928642e-12))
0.064416      	((9.144457e-05 -7.564240e-08 -6.313964e-08) (-1.464795e-04 -1.603775e-09 -1.317128e-09)) ((5.345600e-12 1.723071e-11 1.372402e-11) (5.933417e-13 1.038719e-11 -2.548797e-11))
0.0892992     	((-1.127984e-04 -1.319939e-07 -9.799329e-08) (-1.351994e-04 -3.175899e-09 -2.526259e-09)) ((-4.347563e-12 1.212219e-12 6.540649e-12) (5.490067e-13 7.171926e-12 -3.218964e-11))
0.119159      	((1.495356e-04 -4.149510e-08 -1.185881e-08) (-1.248295e-04 -2.617687e-09 -2.123121e-09)) ((2.401179e-12 8.185744e-12 4.389925e-12) (-5.203255e-12 -3.150499e-11 -9.769160e-12))
0.154991      	((7.807150e-05 8.101907e-08 -9.566154e-09) (-1.138869e-04 -2.341864e-09 -1.636932e-09)) ((-6.776284e-13 1.718393e-12 2.769225e-13) (-1.167711e-11 -4.016803e-11 1.100940e-11))
0.197989      	((1.866228e-05 -1.202962e-08 -4.887061e-10) (-1.029131e-04 -1.625781e-09 -7.197720e-10)) ((-1.611700e-12 2.717706e-12 6.630054e-13) (-1.691724e-11 -1.469948e-11 2.038748e-11))
0.249587      	((-2.818704e-06 -2.003721e-08 2.065116e-10) (-9.223728e-05 -7.497629e-10 5.546209e-11)) ((1.351480e-13 2.069315e-12 6.401810e-13) (-1.904792e-11 8.227948e-12 1.469366e-11))
0.311504      	((-1.243001e-05 -1.282518e-08 -8.772169e-09) (-8.218106e-05 -1.237861e-10 4.198436e-10)) ((1.874644e-13 1.623397e-12 1.429650e-13) (-1.692027e-11 1.883543e-11 5.890741e-12))
0.385805      	((-1.740392e-05 -4.830007e-09 -3.675970e-09) (-7.300262e-05 1.143388e-10 5.107582e-10)) ((-1.251766e-14 1.308458e-12 -1.425587e-13) (-1.338279e-11 2.018478e-11 2.825118e-12))
0.474966      	((-2.008435e-05 -1.707271e-09 -1.468798e-09) (-6.483950e-05 7.228162e-11 5.088788e-10)) ((-1.549496e-13 9.828621e-13 -1.876055e-13) (-1.019925e-11 1.612322e-11 7.053389e-12))
0.581959      	((-2.120682e-05 -1.249809e-09 -1.081141e-09) (-5.766474e-05 6.075260e-11 4.860026e-10)) ((-6.268566e-14 5.017570e-13 -1.709356e-13) (-7.381594e-12 1.098144e-11 9.265196e-12))
0.710351      	((-2.118316e-05 -1.006155e-09 -7.963035e-10) (-5.140875e-05 9.591524e-11 3.773699e-10)) ((-5.256605e-14 2.281769e-13 -7.970280e-14) (-5.053437e-12 6.375366e-12 5.477343e-12))
0.864421      	((-2.042769e-05 -1.387674e-09 -1.142182e-09) (-4.598947e-05 1.431464e-10 2.801153e-10)) ((-2.575020e-14 7.664208e-14 -2.043124e-14) (-3.501834e-12 6.104956e-12 -9.939888e-13))
1.049306      	((-1.930982e-05 -1.586633e-09 -1.579547e-09) (-4.130200e-05 1.193117e-10 2.242837e-10)) ((-1.992827e-14 1.017127e-13 -2.693323e-14) (-2.400575e-12 4.192012e-12 -5.980989e-12))
1.271167      	((-1.802493e-05 -1.256208e-09 -1.476225e-09) (-3.723559e-05 1.061000e-10 2.078705e-10)) ((-1.206401e-14 1.304032e-13 -1.479236e-14) (-1.583084e-12 1.969584e-12 -8.216504e-12))
1.5374        	((-1.667460e-05 -6.233978e-10 -8.541816e-10) (-3.367812e-05 1.173053e-10 2.145450e-10)) ((-2.648826e-15 1.370190e-13 -4.981931e-15) (-8.495299e-13 -3.526997e-13 -7.976532e-12))
1.85688       	((-1.535049e-05 -6.756249e-10 -6.611547e-10) (-3.053713e-05 1.241260e-10 2.350857e-10)) ((1.093755e-14 1.449323e-13 -9.719958e-15) (-3.881427e-13 -2.727134e-12 -5.958235e-12))
2.240256      	((-1.410884e-05 -6.826212e-10 -5.420357e-10) (-2.774800e-05 1.195979e-10 2.432328e-10)) ((3.636248e-15 1.543299e-13 -1.563184e-14) (-2.551626e-13 -6.390309e-12 -2.606981e-12))
2.700307      	((-1.296523e-05 -8.621432e-10 -7.521356e-10) (-2.526367e-05 1.112908e-10 2.220695e-10)) ((-6.552851e-15 1.568139e-13 -1.311598e-14) (-1.983854e-13 -9.920908e-12 2.103344e-12))
3.252369      	((-1.191455e-05 -9.596093e-10 -9.445034e-10) (-2.304397e-05 1.036555e-10 1.828060e-10)) ((-2.351833e-15 1.423946e-13 -7.291820e-15) (-1.371018e-13 -1.129932e-11 6.392523e-12))
3.914842      	((-1.096042e-05 -1.169421e-09 -1.182440e-09) (-2.105591e-05 8.605619e-11 1.404583e-10)) ((-6.529792e-15 1.220080e-13 -4.382051e-15) (-1.639798e-13 -1.158107e-11 8.381286e-12))
4.709811      	((-1.010811e-05 -1.411223e-09 -1.393717e-09) (-1.927658e-05 5.423995e-11 1.023229e-10)) ((-9.103326e-15 1.147133e-13 -6.174373e-15) (-3.693887e-13 -1.093352e-11 9.120422e-12))
5.663773      	((-9.363492e-06 -1.097289e-09 -1.051974e-09) (-1.768924e-05 3.679074e-11 8.550418e-11)) ((-9.599946e-15 1.074985e-13 -1.389283e-14) (-4.319767e-13 -9.528688e-12 9.019833e-12))
6.808528      	((-8.719164e-06 -1.116305e-09 -1.179248e-09) (-1.627720e-05 3.265298e-11 6.814720e-11)) ((-3.777672e-16 9.848229e-14 -1.763837e-14) (-2.967340e-13 -8.238254e-12 7.524707e-12))
8.182233      	((-8.172679e-06 -2.273178e-09 -2.100776e-09) (-1.502213e-05 -1.073416e-11 1.537824e-11)) ((8.635217e-15 1.068141e-13 -1.151892e-14) (-4.068710e-13 -7.948304e-12 6.309401e-12))
9.83068       	((-7.729193e-06 -2.640360e-09 -2.843487e-09) (-1.390600e-05 -8.136074e-11 -7.114789e-11)) ((1.841004e-14 9.269816e-14 -7.424216e-15) (-7.546150e-13 -9.383557e-12 7.137116e-12))
11.808816     	((-7.383101e-06 -2.999290e-09 -3.093711e-09) (-1.291287e-05 -1.582289e-10 -1.640644e-10)) ((2.066353e-14 8.836894e-14 -7.820004e-15) (-1.035176e-12 -1.181554e-11 9.373001e-12))
14.182579     	((-7.132617e-06 -3.702016e-09 -3.580221e-09) (-1.202980e-05 -2.713365e-10 -2.729319e-10)) ((3.283457e-14 9.473679e-14 -1.150527e-14) (-1.148274e-12 -1.573646e-11 1.381210e-11))
17.031095     	((-6.979799e-06 -3.699261e-09 -3.760898e-09) (-1.124707e-05 -3.799167e-10 -3.919888e-10)) ((3.540755e-14 8.053311e-14 -1.692302e-14) (-1.196610e-12 -2.186780e-11 2.046259e-11))
20.449314     	((-6.919556e-06 -3.375460e-09 -3.544735e-09) (-1.055744e-05 -4.596462e-10 -4.721711e-10)) ((2.194695e-14 8.146923e-14 -2.397456e-14) (-1.058295e-12 -3.035706e-11 2.908283e-11))
24.551176     	((-6.945723e-06 -3.830299e-09 -3.956833e-09) (-9.955803e-06 -5.520367e-10 -5.677870e-10)) ((1.815445e-14 9.126010e-14 -2.049020e-14) (-1.007083e-12 -4.189689e-11 3.964635e-11))
29.473411     	((-7.051204e-06 -3.273009e-09 -3.421255e-09) (-9.436609e-06 -6.373916e-10 -6.599444e-10)) ((1.045367e-14 7.982706e-14 -2.246408e-14) (-8.332323e-13 -5.440364e-11 5.126648e-11))
35.380094     	((-7.227864e-06 -2.684568e-09 -2.829402e-09) (-8.997240e-06 -6.870932e-10 -7.073520e-10)) ((-8.346659e-16 7.514003e-14 -2.626483e-14) (-9.810107e-13 -6.696680e-11 6.026129e-11))
42.468112     	((-7.461225e-06 -1.966370e-09 -2.173102e-09) (-8.632413e-06 -6.751406e-10 -7.277791e-10)) ((-5.298019e-15 7.798556e-14 -3.350355e-14) (-7.594527e-13 -7.741728e-11 6.838368e-11))
50.973735     	((-7.726560e-06 -1.890390e-09 -2.075790e-09) (-8.337260e-06 -6.915905e-10 -7.310503e-10)) ((-1.237875e-14 7.880213e-14 -2.661199e-14) (-5.996988e-13 -8.323084e-11 7.312422e-11))
60.948187     	((-8.001303e-06 -9.095549e-10 -1.172385e-09) (-8.107106e-06 -6.206687e-10 -6.547787e-10)) ((-2.021917e-14 7.049693e-14 -2.921570e-14) (-6.822395e-13 -8.253964e-11 7.019858e-11))
72.379831     	((-8.251338e-06 -5.744193e-11 -2.524366e-10) (-7.930489e-06 -4.444071e-10 -4.592818e-10)) ((-3.390136e-14 6.011389e-14 -2.758190e-14) (-5.623992e-13 -7.548951e-11 6.261890e-11))
85.261663     	((-8.447589e-06 9.244417e-10 7.337674e-10) (-7.790896e-06 -1.709564e-10 -1.778505e-10)) ((-4.253906e-14 4.573632e-14 -3.109951e-14) (-3.855552e-13 -6.560468e-11 5.169190e-11))
99.591229     	((-8.583135e-06 2.038085e-09 1.792238e-09) (-7.674942e-06 1.927649e-10 1.759673e-10)) ((-5.189234e-14 3.168206e-14 -3.152717e-14) (-2.595954e-13 -5.554431e-11 4.148817e-11))
114.11056     	((-8.681886e-06 2.811316e-09 2.629500e-09) (-7.579104e-06 5.670669e-10 5.383397e-10)) ((-5.824529e-14 2.439004e-14 -3.239231e-14) (-2.375610e-13 -4.748959e-11 3.456113e-11))
128.68121     	((-8.731301e-06 2.989074e-09 2.835849e-09) (-7.496921e-06 8.915764e-10 8.557964e-10)) ((-5.817405e-14 2.057492e-14 -2.943915e-14) (-2.264082e-13 -4.078005e-11 2.750192e-11))
143.277646    	((-8.750874e-06 2.686343e-09 2.593043e-09) (-7.426226e-06 1.136582e-09 1.103798e-09)) ((-6.301166e-14 1.883054e-14 -2.473021e-14) (1.399862e-14 -3.374494e-11 2.088032e-11))
157.880446    	((-8.753255e-06 2.041719e-09 1.930120e-09) (-7.364844e-06 1.301587e-09 1.259682e-09)) ((-6.278687e-14 2.589494e-14 -2.306047e-14) (2.116149e-13 -2.687375e-11 1.414511e-11))
172.487161    	((-8.746710e-06 1.270025e-09 1.147333e-09) (-7.311245e-06 1.378547e-09 1.329287e-09)) ((-6.346585e-14 3.347312e-14 -2.267868e-14) (4.372145e-13 -2.011871e-11 7.876082e-12))
187.101054    	((-8.730234e-06 5.389362e-10 4.321935e-10) (-7.264147e-06 1.386796e-09 1.330985e-09)) ((-6.070281e-14 3.457650e-14 -2.250575e-14) (6.335021e-13 -1.361221e-11 2.514931e-12))
201.722871    	((-8.711481e-06 -1.534921e-10 -2.022811e-10) (-7.222406e-06 1.351376e-09 1.296228e-09)) ((-5.597570e-14 3.191692e-14 -2.154479e-14) (6.829092e-13 -7.361552e-12 -3.177046e-12))
216.351435    	((-8.694057e-06 -9.314993e-10 -9.125392e-10) (-7.185374e-06 1.285177e-09 1.231496e-09)) ((-5.060401e-14 3.143367e-14 -2.175134e-14) (7.008299e-13 -1.146890e-12 -8.959585e-12))
230.985778    	((-8.678050e-06 -1.588554e-09 -1.541367e-09) (-7.152600e-06 1.199132e-09 1.144336e-09)) ((-4.486439e-14 3.155307e-14 -2.192170e-14) (7.438648e-13 4.206511e-12 -1.431923e-11))
245.62534     	((-8.662827e-06 -2.324201e-09 -2.255814e-09) (-7.123568e-06 1.093805e-09 1.043241e-09)) ((-3.775101e-14 3.189954e-14 -2.189198e-14) (7.791298e-13 8.703487e-12 -1.899475e-11))
260.269593    	((-8.649678e-06 -3.156614e-09 -3.098018e-09) (-7.097889e-06 9.742748e-10 9.217886e-10)) ((-3.192548e-14 3.292426e-14 -2.130559e-14) (7.184258e-13 1.289198e-11 -2.305523e-11))
274.918014    	((-8.637397e-06 -3.980435e-09 -3.906934e-09) (-7.075162e-06 8.416718e-10 7.850299e-10)) ((-2.855808e-14 3.448256e-14 -1.821623e-14) (6.770137e-13 1.675139e-11 -2.667399e-11))
289.570173    	((-8.625887e-06 -4.766233e-09 -4.680721e-09) (-7.054993e-06 6.991314e-10 6.399402e-10)) ((-2.457330e-14 3.635394e-14 -1.521580e-14) (6.528082e-13 2.022196e-11 -2.984810e-11))
304.225721    	((-8.615224e-06 -5.539670e-09 -5.441758e-09) (-7.037063e-06 5.514494e-10 4.929453e-10)) ((-2.117494e-14 3.879721e-14 -1.440573e-14) (6.580650e-13 2.341657e-11 -3.242310e-11))
318.884332    	((-8.604734e-06 -6.288266e-09 -6.206280e-09) (-7.021029e-06 3.983185e-10 3.418109e-10)) ((-1.810096e-14 4.279178e-14 -1.405106e-14) (6.714992e-13 2.640304e-11 -3.467451e-11))
333.545697    	((-8.595400e-06 -7.051987e-09 -6.958871e-09) (-7.006686e-06 2.421164e-10 1.857474e-10)) ((-1.543508e-14 4.737573e-14 -1.361377e-14) (6.454068e-13 2.932813e-11 -3.679706e-11))
348.209543    	((-8.587009e-06 -7.689551e-09 -7.583020e-09) (-6.993872e-06 9.493079e-11 3.851811e-11)) ((-1.288470e-14 4.833680e-14 -1.208846e-14) (6.351139e-13 3.204086e-11 -3.878061e-11))
362.875628    	((-8.578863e-06 -8.318901e-09 -8.214681e-09) (-6.982386e-06 -4.518761e-11 -1.028983e-10)) ((-1.081065e-14 4.977644e-14 -1.084069e-14) (6.070653e-13 3.461780e-11 -4.072138e-11))
377.54373     	((-8.571138e-06 -8.902933e-09 -8.786119e-09) (-6.972059e-06 -1.815502e-10 -2.388646e-10)) ((-1.031871e-14 5.150005e-14 -1.008281e-14) (5.680604e-13 3.704671e-11 -4.252888e-11))
392.213655    	((-8.563981e-06 -9.465794e-09 -9.332747e-09) (-6.962752e-06 -3.138939e-10 -3.690884e-10)) ((-9.247979e-15 5.316867e-14 -9.223053e-15) (5.247123e-13 3.927412e-11 -4.425596e-11))
406.88523     	((-8.557457e-06 -9.968463e-09 -9.837081e-09) (-6.954364e-06 -4.394112e-10 -4.924609e-10)) ((-8.491307e-15 5.445500e-14 -8.212240e-15) (4.768644e-13 4.139032e-11 -4.589637e-11))
421.558304    	((-8.551655e-06 -1.041015e-08 -1.027579e-08) (-6.946820e-06 -5.531297e-10 -6.064654e-10)) ((-8.154972e-15 5.555874e-14 -7.356522e-15) (4.324725e-13 4.336543e-11 -4.747621e-11))
436.232738    	((-8.546018e-06 -1.087340e-08 -1.072012e-08) (-6.940000e-06 -6.617796e-10 -7.134948e-10)) ((-8.105055e-15 5.690443e-14 -6.545085e-15) (3.959807e-13 4.526735e-11 -4.902871e-11))
450.908406    	((-8.541046e-06 -1.123927e-08 -1.108908e-08) (-6.933844e-06 -7.600385e-10 -8.115043e-10)) ((-8.186426e-15 5.756829e-14 -5.688228e-15) (3.727302e-13 4.710081e-11 -5.058999e-11))
465.585201    	((-8.536398e-06 -1.161614e-08 -1.145849e-08) (-6.928281e-06 -8.503353e-10 -9.019836e-10)) ((-8.018783e-15 5.849791e-14 -5.019567e-15) (3.632343e-13 4.891478e-11 -5.215261e-11))
480.263025    	((-8.532095e-06 -1.195753e-08 -1.179196e-08) (-6.923243e-06 -9.328709e-10 -9.839579e-10)) ((-7.857564e-15 5.928647e-14 -4.326849e-15) (3.602765e-13 5.071276e-11 -5.368330e-11))
494.94179     	((-8.528160e-06 -1.227622e-08 -1.210421e-08) (-6.918680e-06 -1.008156e-09 -1.057459e-09)) ((-7.852910e-15 5.999597e-14 -3.783977e-15) (3.589840e-13 5.250134e-11 -5.516908e-11))
509.621412    	((-8.524505e-06 -1.258536e-08 -1.240488e-08) (-6.914541e-06 -1.079167e-09 -1.125902e-09)) ((-8.014272e-15 6.078045e-14 -3.314919e-15) (3.552078e-13 5.423289e-11 -5.659671e-11))
524.301813    	((-8.521089e-06 -1.286820e-08 -1.268116e-08) (-6.910782e-06 -1.144322e-09 -1.188715e-09)) ((-7.993911e-15 6.133010e-14 -3.052508e-15) (3.484053e-13 5.589284e-11 -5.799427e-11))
538.982926    	((-8.517878e-06 -1.314700e-08 -1.295507e-08) (-6.907360e-06 -1.204187e-09 -1.246492e-09)) ((-7.909488e-15 6.213890e-14 -2.831527e-15) (3.367357e-13 5.750573e-11 -5.938486e-11))
553.664686    	((-8.514878e-06 -1.344404e-08 -1.325788e-08) (-6.904241e-06 -1.261536e-09 -1.303058e-09)) ((-7.860220e-15 6.335609e-14 -2.593862e-15) (3.272906e-13 5.908249e-11 -6.076473e-11))
568.347038    	((-8.512097e-06 -1.375505e-08 -1.356852e-08) (-6.901395e-06 -1.318716e-09 -1.359626e-09)) ((-7.830966e-15 6.469599e-14 -2.405677e-15) (3.196768e-13 6.063237e-11 -6.213127e-11))
583.029928    	((-8.509529e-06 -1.406194e-08 -1.388309e-08) (-6.898795e-06 -1.375546e-09 -1.416362e-09)) ((-7.839933e-15 6.596475e-14 -2.181219e-15) (3.130934e-13 6.216947e-11 -6.348614e-11))
597.713307    	((-8.507176e-06 -1.438783e-08 -1.421158e-08) (-6.896423e-06 -1.433116e-09 -1.473730e-09)) ((-7.939467e-15 6.740832e-14 -1.977818e-15) (3.078514e-13 6.370170e-11 -6.484063e-11))
612.39713     	((-8.505018e-06 -1.472536e-08 -1.455093e-08) (-6.894255e-06 -1.492172e-09 -1.532237e-09)) ((-7.925254e-15 6.899935e-14 -1.794885e-15) (3.047120e-13 6.523383e-11 -6.619415e-11))
627.081357    	((-8.503051e-06 -1.507450e-08 -1.490221e-08) (-6.892276e-06 -1.553096e-09 -1.592522e-09)) ((-7.823135e-15 7.078068e-14 -1.545783e-15) (3.019134e-13 6.676335e-11 -6.754117e-11))
641.765948    	((-8.501230e-06 -1.542911e-08 -1.526326e-08) (-6.890466e-06 -1.615956e-09 -1.654920e-09)) ((-7.682737e-15 7.263554e-14 -1.366537e-15) (2.993956e-13 6.828427e-11 -6.887653e-11))
656.450869    	((-8.499553e-06 -1.578984e-08 -1.563247e-08) (-6.888810e-06 -1.680692e-09 -1.719649e-09)) ((-7.526602e-15 7.457961e-14 -1.187359e-15) (2.971835e-13 6.978198e-11 -7.019450e-11))
671.136085    	((-8.498007e-06 -1.615512e-08 -1.600753e-08) (-6.887293e-06 -1.747429e-09 -1.786903e-09)) ((-7.404541e-15 7.655000e-14 -1.051478e-15) (2.954154e-13 7.124387e-11 -7.148874e-11))
685.821569    	((-8.496565e-06 -1.651793e-08 -1.637715e-08) (-6.885902e-06 -1.815661e-09 -1.855745e-09)) ((-7.357347e-15 7.845650e-14 -9.193108e-16) (2.940020e-13 7.265990e-11 -7.274800e-11))
700.507291    	((-8.495221e-06 -1.688014e-08 -1.674878e-08) (-6.884624e-06 -1.885236e-09 -1.926055e-09)) ((-7.255626e-15 8.036259e-14 -7.824558e-16) (2.924174e-13 7.401936e-11 -7.396654e-11))
715.193229    	((-8.493980e-06 -1.723095e-08 -1.710896e-08) (-6.883450e-06 -1.955292e-09 -1.997161e-09)) ((-7.186883e-15 8.214450e-14 -6.315284e-16) (2.913094e-13 7.531157e-11 -7.513831e-11))
729.87936     	((-8.492849e-06 -1.757312e-08 -1.745937e-08) (-6.882372e-06 -2.025361e-09 -2.068471e-09)) ((-7.167912e-15 8.383952e-14 -4.860453e-16) (2.901098e-13 7.652992e-11 -7.625396e-11))
744.565664    	((-8.491809e-06 -1.790206e-08 -1.779704e-08) (-6.881383e-06 -2.094804e-09 -2.139352e-09)) ((-7.144964e-15 8.540909e-14 -3.332155e-16) (2.888550e-13 7.767421e-11 -7.730817e-11))
759.252124    	((-8.490848e-06 -1.821457e-08 -1.811957e-08) (-6.880475e-06 -2.162884e-09 -2.209295e-09)) ((-7.120091e-15 8.689550e-14 -2.039913e-16) (2.878898e-13 7.874545e-11 -7.830103e-11))
773.938724    	((-8.489962e-06 -1.851410e-08 -1.842485e-08) (-6.879641e-06 -2.229330e-09 -2.277515e-09)) ((-7.088642e-15 8.823579e-14 -6.221322e-17) (2.873221e-13 7.974083e-11 -7.922683e-11))
788.625451    	((-8.489145e-06 -1.879771e-08 -1.871479e-08) (-6.878875e-06 -2.293648e-09 -2.343577e-09)) ((-7.090128e-15 8.948983e-14 6.363333e-17) (2.862847e-13 8.067084e-11 -8.009627e-11))
803.312292    	((-8.488388e-06 -1.906451e-08 -1.898785e-08) (-6.878170e-06 -2.355444e-09 -2.407165e-09)) ((-7.085055e-15 9.065153e-14 1.795922e-16) (2.847604e-13 8.154075e-11 -8.091616e-11))
817.999235    	((-8.487694e-06 -1.931479e-08 -1.924369e-08) (-6.877523e-06 -2.414437e-09 -2.467894e-09)) ((-7.090268e-15 9.172290e-14 2.931271e-16) (2.826500e-13 8.235278e-11 -8.168708e-11))
832.686271    	((-8.487050e-06 -1.954840e-08 -1.948240e-08) (-6.876928e-06 -2.470397e-09 -2.525455e-09)) ((-7.134772e-15 9.271364e-14 3.981338e-16) (2.797778e-13 8.311127e-11 -8.240891e-11))
847.373392    	((-8.486455e-06 -1.976915e-08 -1.970673e-08) (-6.876380e-06 -2.523379e-09 -2.579857e-09)) ((-7.154946e-15 9.367197e-14 5.039352e-16) (2.769220e-13 8.382413e-11 -8.308810e-11))
862.06059     	((-8.485907e-06 -1.997434e-08 -1.991526e-08) (-6.875876e-06 -2.573249e-09 -2.630982e-09)) ((-7.183710e-15 9.454831e-14 6.124493e-16) (2.743755e-13 8.449681e-11 -8.372961e-11))
876.747858    	((-8.485402e-06 -2.016825e-08 -2.011281e-08) (-6.875413e-06 -2.620096e-09 -2.679001e-09)) ((-7.207358e-15 9.539738e-14 7.178356e-16) (2.721969e-13 8.513274e-11 -8.433845e-11))
891.43519     	((-8.484940e-06 -2.035200e-08 -2.029731e-08) (-6.874986e-06 -2.664136e-09 -2.723931e-09)) ((-7.243098e-15 9.618875e-14 8.136458e-16) (2.703289e-13 8.573711e-11 -8.492026e-11))
906.12258     	((-8.484508e-06 -2.052529e-08 -2.047196e-08) (-6.874593e-06 -2.705425e-09 -2.765921e-09)) ((-7.278563e-15 9.695837e-14 9.051516e-16) (2.686853e-13 8.631559e-11 -8.547882e-11))
