# Forces      
# CofR        : (0.000000e+00 0.000000e+00 0.000000e+00)
# Time        forces(pressure viscous)	moments(pressure viscous)
0             	((0.000000e+00 0.000000e+00 0.000000e+00) (0.000000e+00 0.000000e+00 0.000000e+00)) ((0.000000e+00 0.000000e+00 0.000000e+00) (0.000000e+00 0.000000e+00 0.000000e+00))
0.012         	((6.254303e-09 -4.356468e-09 9.726305e-09) (1.100752e-10 -4.827837e-12 -6.897333e-11)) ((-4.127848e-08 4.437958e-12 4.680669e-14) (-2.788832e-05 -3.358521e-12 1.239722e-12))
0.0264        	((-3.812660e-09 -6.114392e-09 1.718636e-08) (7.745290e-10 3.532895e-12 -4.293925e-11)) ((-2.162877e-08 3.451485e-12 -8.746204e-13) (-2.555162e-05 -5.044218e-12 2.413609e-12))
0.04368       	((-1.614115e-09 9.388681e-09 1.651285e-08) (1.648684e-09 8.572953e-11 -3.957385e-11)) ((-1.351742e-08 2.583128e-12 -7.772593e-13) (-2.317620e-05 -4.319925e-12 7.365063e-14))
0.064416      	((2.856178e-08 -2.678831e-09 7.135569e-09) (2.732496e-09 1.839255e-10 -8.968221e-11)) ((-9.222349e-09 2.349708e-12 5.123953e-14) (-2.083490e-05 -4.206612e-12 -2.565151e-12))
0.0892992     	((-3.251914e-10 4.521496e-09 1.162890e-08) (4.149014e-09 2.313154e-10 -1.061651e-10)) ((-7.962981e-09 1.614923e-12 1.799580e-13) (-1.861423e-05 -5.126331e-12 -3.106273e-12))
0.119159      	((1.369922e-08 -1.316002e-09 6.114839e-09) (4.970876e-09 1.611766e-10 -4.040018e-11)) ((-6.565531e-09 1.309169e-12 2.008785e-13) (-1.658991e-05 -4.477715e-12 -2.470951e-12))
0.154991      	((1.217789e-08 -3.290895e-09 -4.397494e-09) (4.490422e-09 6.293273e-11 1.456729e-10)) ((-5.668893e-09 1.198436e-12 3.618774e-14) (-1.480647e-05 -7.813995e-13 -8.997002e-13))
0.197989      	((-5.750814e-09 -6.222071e-09 -5.047755e-09) (4.226319e-09 5.740645e-12 2.263178e-10)) ((-4.948118e-09 8.207959e-13 -2.530783e-13) (-1.325973e-05 3.836384e-12 -1.662307e-12))
0.249587      	((1.049891e-08 -1.170270e-09 2.309681e-09) (4.470294e-09 3.284269e-11 3.169693e-10)) ((-4.406676e-09 7.549013e-13 -4.803102e-13) (-1.189628e-05 7.691427e-12 -3.972245e-12))
0.311504      	((-6.861106e-09 -1.947600e-09 6.691059e-09) (1.888821e-09 2.370217e-10 5.939331e-10)) ((-3.927493e-09 1.594273e-12 -1.076397e-12) (-1.065487e-05 1.107282e-11 -4.424786e-12))
0.385805      	((-4.198980e-08 -3.755633e-09 8.958078e-09) (-1.155940e-09 2.186012e-10 5.941170e-10)) ((-3.528038e-09 1.576027e-12 -1.046276e-12) (-9.522536e-06 1.038346e-11 -2.122947e-12))
0.474966      	((-4.465613e-08 -6.906355e-09 7.543654e-09) (-3.898322e-09 -3.229940e-11 4.538308e-10)) ((-3.171145e-09 1.323245e-12 -7.540276e-13) (-8.506401e-06 7.574111e-12 1.031608e-12))
0.581959      	((-5.758456e-08 -2.019047e-09 1.504581e-08) (-4.654507e-09 7.095987e-11 7.904251e-10)) ((-2.829260e-09 1.275261e-12 -8.518165e-13) (-7.608592e-06 1.102617e-11 1.410389e-12))
0.710351      	((-3.873216e-08 -2.111558e-09 1.878847e-08) (-9.387329e-10 5.101761e-10 1.171146e-09)) ((-2.495508e-09 1.526348e-12 -1.066323e-12) (-6.823195e-06 1.985516e-11 -6.225956e-12))
0.864421      	((-2.681089e-08 -7.604192e-09 2.298127e-08) (-3.898674e-10 1.499357e-09 1.755929e-09)) ((-2.179708e-09 1.497729e-12 -9.139643e-13) (-6.137079e-06 2.881825e-11 -2.014607e-11))
1.049306      	((-1.592050e-08 -9.363097e-09 2.163276e-08) (-1.268113e-09 2.109927e-09 1.862231e-09)) ((-1.921624e-09 1.106339e-12 -8.620594e-13) (-5.534702e-06 3.240873e-11 -3.025891e-11))
1.271167      	((3.287616e-09 -1.013052e-08 2.860418e-08) (1.721868e-09 2.344723e-09 1.873221e-09)) ((-1.729548e-09 7.460169e-13 -1.288430e-12) (-5.003528e-06 2.036832e-11 -2.348807e-11))
1.5374        	((-1.034795e-08 1.133688e-08 5.014326e-08) (1.437041e-09 2.572497e-09 1.511064e-09)) ((-1.574269e-09 5.880588e-13 -2.137682e-12) (-4.535795e-06 -9.691733e-13 -8.401037e-12))
1.85688       	((1.023893e-08 3.004697e-08 5.800508e-08) (1.407409e-09 3.192945e-09 1.878464e-09)) ((-1.443175e-09 1.038430e-12 -2.914360e-12) (-4.126871e-06 -1.111253e-11 5.198867e-12))
2.240256      	((5.642647e-09 2.331211e-08 5.499794e-08) (2.393323e-09 3.189796e-09 2.448415e-09)) ((-1.313174e-09 8.513190e-13 -1.984743e-12) (-3.772296e-06 -1.037873e-11 3.301173e-11))
2.700307      	((1.315032e-08 1.865282e-08 4.013598e-08) (-5.477571e-10 1.934032e-09 4.672678e-09)) ((-1.189632e-09 2.218094e-13 -1.275863e-12) (-3.466051e-06 5.542453e-13 7.781046e-11))
3.252369      	((8.379686e-09 1.387274e-08 2.164508e-08) (-4.027636e-10 -8.912712e-10 7.220076e-09)) ((-1.069921e-09 -1.222820e-13 -1.041227e-12) (-3.200331e-06 1.811998e-11 1.327832e-10))
3.914842      	((9.523985e-09 1.755737e-08 1.008299e-08) (1.893083e-09 -2.571063e-09 1.034867e-08)) ((-9.618937e-10 -9.972814e-13 -2.924297e-13) (-2.967144e-06 4.466500e-11 1.894713e-10))
4.709811      	((6.200151e-09 2.148056e-08 2.213490e-08) (1.682828e-09 -4.650498e-09 1.552286e-08)) ((-8.600656e-10 -1.414576e-12 3.620956e-13) (-2.760198e-06 8.718416e-11 2.331894e-10))
5.663773      	((7.547240e-09 1.802970e-08 1.419031e-08) (2.998155e-10 -5.289100e-09 1.978420e-08)) ((-7.666402e-10 -1.669208e-12 9.191022e-13) (-2.574795e-06 1.246008e-10 2.489168e-10))
6.808528      	((-2.626985e-09 1.550243e-08 1.156061e-08) (-1.733197e-09 -4.733741e-09 2.006122e-08)) ((-6.883157e-10 -1.638310e-12 1.078685e-12) (-2.407336e-06 1.443087e-10 2.207806e-10))
8.182233      	((2.222387e-09 1.082120e-08 7.962030e-09) (-4.759124e-09 -4.291853e-09 1.860274e-08)) ((-6.226362e-10 -1.422023e-12 9.783064e-13) (-2.255209e-06 1.499364e-10 1.653547e-10))
9.83068       	((-3.680604e-09 9.945305e-09 1.100696e-08) (-6.066513e-09 -3.708271e-09 1.628869e-08)) ((-5.632224e-10 -1.131519e-12 9.493645e-13) (-2.116724e-06 1.533292e-10 1.093986e-10))
11.808816     	((1.334515e-10 4.625432e-09 7.261409e-09) (-4.708882e-09 -4.850353e-09 1.396320e-08)) ((-5.151027e-10 -8.992477e-13 6.890969e-13) (-1.991133e-06 1.787430e-10 5.342014e-11))
14.182579     	((-5.355012e-09 -3.185769e-10 7.370350e-09) (-3.966703e-09 -4.715016e-09 1.315664e-08)) ((-4.771833e-10 -5.056437e-13 4.756215e-13) (-1.878509e-06 1.993546e-10 3.788170e-13))
17.016046     	((-2.999236e-09 -2.073618e-10 -1.168978e-10) (-4.961466e-09 -6.422843e-09 1.035799e-08)) ((-4.467512e-10 -8.179708e-13 9.916870e-13) (-1.779520e-06 2.098809e-10 -6.038813e-11))
20.321515     	((-5.571748e-09 -1.088887e-09 -2.901038e-09) (-7.260199e-09 -7.596992e-09 9.613369e-09)) ((-4.202153e-10 -9.344938e-13 1.401149e-12) (-1.695419e-06 2.119872e-10 -1.359379e-10))
24.112501     	((-2.408785e-09 -1.216455e-09 -1.425181e-09) (-7.119356e-09 -8.037868e-09 9.842777e-09)) ((-3.993394e-10 -1.093398e-12 1.786016e-12) (-1.625950e-06 1.987987e-10 -2.030201e-10))
28.402845     	((-3.327923e-09 -6.557689e-09 -7.819017e-09) (-6.792793e-09 -8.705669e-09 8.888070e-09)) ((-3.810568e-10 -1.182907e-12 2.075335e-12) (-1.570150e-06 1.731128e-10 -2.462524e-10))
33.2041       	((-1.271871e-09 -1.199982e-08 -5.406879e-09) (-3.865284e-09 -6.920628e-09 1.041587e-08)) ((-3.639636e-10 -9.478280e-13 1.904485e-12) (-1.526785e-06 1.475216e-10 -2.613495e-10))
38.312696     	((-3.967255e-09 -5.922514e-09 -2.190820e-09) (-2.859095e-09 -6.920051e-09 1.098145e-08)) ((-3.512565e-10 -9.042657e-13 1.858206e-12) (-1.495673e-06 1.273727e-10 -2.462205e-10))
43.420692     	((-3.836777e-09 1.048243e-08 1.299631e-08) (-2.361448e-09 -7.158132e-09 1.038433e-08)) ((-3.439736e-10 -6.143731e-13 1.661849e-12) (-1.476081e-06 1.232937e-10 -2.231235e-10))
48.528054     	((-4.051029e-09 1.670546e-08 1.691311e-08) (-2.549380e-09 -4.184954e-09 1.081327e-08)) ((-3.392213e-10 -2.890334e-13 1.230334e-12) (-1.466293e-06 1.265223e-10 -2.018205e-10))
53.634709     	((-4.255790e-09 2.900616e-08 2.613545e-08) (-1.726866e-09 -9.754025e-10 1.184047e-08)) ((-3.353126e-10 -9.580911e-14 9.487307e-13) (-1.465294e-06 1.313465e-10 -1.993662e-10))
58.740519     	((-4.669415e-09 2.788483e-08 1.861434e-08) (-4.607063e-10 -8.929739e-10 9.792113e-09)) ((-3.327212e-10 1.055666e-13 7.167716e-13) (-1.472207e-06 1.314475e-10 -2.130371e-10))
63.845452     	((-5.858531e-09 2.948812e-08 1.703250e-08) (-3.480715e-13 1.056444e-09 7.891003e-09)) ((-3.341501e-10 2.364335e-13 4.334176e-13) (-1.486320e-06 1.217324e-10 -2.371954e-10))
68.949474     	((-6.160943e-09 2.379079e-08 9.090290e-09) (1.549014e-10 2.651608e-09 5.562554e-09)) ((-3.364999e-10 2.727377e-13 2.532986e-13) (-1.506920e-06 1.035121e-10 -2.671922e-10))
73.994717     	((-9.769963e-09 2.279826e-08 9.321426e-09) (-2.525067e-10 4.101225e-09 3.247592e-09)) ((-3.424198e-10 2.669957e-13 4.353165e-14) (-1.533040e-06 7.465934e-11 -2.853303e-10))
78.941358     	((-8.513916e-09 9.121261e-09 4.401079e-09) (-3.276746e-10 3.668770e-09 1.175727e-09)) ((-3.483087e-10 1.901568e-13 -1.767045e-14) (-1.563341e-06 4.434525e-11 -2.865413e-10))
83.794866     	((-1.190397e-08 7.521661e-09 5.555038e-09) (-6.101815e-10 2.059368e-09 -6.794651e-10)) ((-3.568452e-10 6.744528e-14 -8.573216e-14) (-1.595873e-06 1.678907e-11 -2.617865e-10))
88.563222     	((-1.080933e-08 -3.764434e-09 2.527027e-09) (-8.293009e-10 4.687834e-10 -8.182073e-10)) ((-3.665336e-10 -1.425701e-13 -4.704344e-14) (-1.628254e-06 3.336432e-12 -2.252403e-10))
93.256559     	((-1.214765e-08 -8.575671e-09 7.098003e-09) (-9.427281e-10 7.970186e-12 9.653855e-10)) ((-3.763592e-10 -4.194253e-13 7.621454e-14) (-1.657996e-06 6.120951e-12 -1.867012e-10))
97.886574     	((-1.569365e-08 -1.028302e-08 4.884875e-09) (-1.176744e-10 -5.858490e-10 2.404711e-09)) ((-3.866780e-10 -5.411264e-13 1.944648e-13) (-1.683191e-06 3.158924e-11 -1.713646e-10))
102.467363    	((-1.349387e-08 -1.124162e-08 4.380727e-09) (2.789983e-09 -1.947368e-09 2.883755e-09)) ((-3.955482e-10 -7.628310e-13 5.941566e-13) (-1.702745e-06 7.603704e-11 -1.885561e-10))
107.012116    	((-1.175191e-08 -3.335962e-09 2.986850e-09) (4.559175e-09 -4.955203e-10 4.807401e-09)) ((-4.025405e-10 -7.222161e-13 6.130725e-13) (-1.716081e-06 1.144428e-10 -2.257911e-10))
111.496753    	((-8.706439e-09 -2.947107e-09 5.750264e-10) (5.188738e-09 8.500644e-10 6.403925e-09)) ((-4.068813e-10 -6.770391e-13 6.852691e-13) (-1.723284e-06 1.341153e-10 -2.580347e-10))
115.92414     	((-1.342173e-08 7.968643e-09 9.843690e-10) (3.894105e-09 1.811021e-09 7.349765e-09)) ((-4.081521e-10 -6.014799e-13 6.679739e-13) (-1.725202e-06 1.335934e-10 -2.766884e-10))
120.314581    	((-4.736736e-09 1.694182e-08 -1.659721e-09) (2.518525e-09 2.428214e-09 7.353625e-09)) ((-4.087779e-10 -5.227748e-13 6.414849e-13) (-1.722855e-06 1.196124e-10 -2.838685e-10))
