# Forces      
# CofR        : (0.000000e+00 0.000000e+00 0.000000e+00)
# Time        forces(pressure viscous)	moments(pressure viscous)
0             	((0.000000e+00 0.000000e+00 0.000000e+00) (-2.005466e-04 2.671674e-14 -1.195445e-14)) ((0.000000e+00 0.000000e+00 0.000000e+00) (1.023401e-17 1.604766e-15 2.756852e-15))
0.012         	((-5.833194e-02 1.616742e-08 1.257715e-08) (-2.300413e-04 1.520291e-10 1.305488e-10)) ((-1.711081e-13 2.322805e-11 9.679782e-12) (1.793025e-14 2.768306e-13 -3.761210e-12))
0.0264        	((4.262443e-03 -9.371151e-07 -3.833712e-07) (-2.344709e-04 -4.674483e-10 -1.164056e-10)) ((-1.983622e-12 -4.353062e-11 -6.151293e-12) (-7.557836e-13 -9.211845e-13 -6.586827e-12))
0.04368       	((1.208309e-02 1.503867e-06 8.785812e-07) (-2.081437e-04 2.510099e-10 2.499923e-10)) ((-7.768464e-12 -2.640945e-11 -4.909744e-11) (-3.824185e-13 -1.018251e-11 -3.772434e-12))
0.064416      	((1.147331e-04 -1.116052e-07 -9.829723e-08) (-1.842728e-04 -1.847382e-09 -1.422072e-09)) ((6.677334e-12 2.236296e-11 1.689606e-11) (2.708233e-13 1.314337e-11 -3.206175e-11))
0.0892992     	((-1.363279e-04 -1.717208e-07 -1.278124e-07) (-1.700684e-04 -3.716942e-09 -2.883986e-09)) ((-4.767319e-12 2.571428e-12 8.106655e-12) (-2.921604e-12 3.702732e-12 -3.744495e-11))
0.119159      	((1.899162e-04 -6.270905e-08 5.179396e-09) (-1.570188e-04 -2.956251e-09 -2.458268e-09)) ((1.976464e-12 7.493787e-12 5.960590e-12) (-9.223042e-12 -4.687995e-11 -8.122935e-12))
0.154991      	((9.814613e-05 7.779891e-08 -1.962680e-08) (-1.432677e-04 -2.804167e-09 -1.836620e-09)) ((-7.481094e-13 3.847947e-12 3.916826e-13) (-1.697170e-11 -5.501549e-11 2.732863e-11))
0.197989      	((2.343638e-05 -2.939748e-08 -8.312565e-09) (-1.295049e-04 -2.423234e-09 -7.515392e-10)) ((-5.950545e-13 1.669948e-12 4.029274e-13) (-2.267755e-11 -2.649264e-11 5.466393e-11))
0.249587      	((-3.518584e-06 -2.723764e-08 -8.504498e-10) (-1.161518e-04 -1.821121e-09 1.497822e-10)) ((-3.724838e-13 3.762659e-12 -8.988145e-16) (-2.257774e-11 -5.602111e-12 4.987083e-11))
0.311504      	((-1.560208e-05 -1.770434e-08 -9.500087e-09) (-1.036029e-04 -1.306974e-09 5.927232e-10)) ((8.632082e-14 2.108839e-12 3.189308e-13) (-1.967601e-11 7.292450e-13 3.815220e-11))
0.385805      	((-2.209592e-05 -6.767725e-09 -3.087099e-09) (-9.217939e-05 -1.080054e-09 7.053332e-10)) ((-2.503557e-13 9.516590e-13 -2.634225e-15) (-1.627164e-11 3.719634e-12 3.816268e-11))
0.474966      	((-2.562942e-05 -4.100870e-09 -3.512663e-09) (-8.204549e-05 -1.061423e-09 6.047968e-10)) ((-1.665932e-13 7.683800e-13 -5.875022e-14) (-1.266330e-11 3.514544e-12 4.291017e-11))
0.581959      	((-2.709434e-05 -3.203440e-09 -2.302857e-09) (-7.313225e-05 -7.865408e-10 4.709324e-10)) ((-7.943944e-14 3.955621e-13 -1.237161e-13) (-9.308946e-12 5.953987e-12 4.075808e-11))
0.710351      	((-2.707723e-05 -2.933012e-09 -1.991530e-09) (-6.532578e-05 -4.320936e-10 3.374509e-10)) ((-4.228393e-14 2.205827e-13 -6.035980e-15) (-6.490740e-12 5.816414e-12 2.659632e-11))
0.864421      	((-2.611638e-05 -2.931242e-09 -2.685651e-09) (-5.852191e-05 -2.274713e-10 2.616513e-10)) ((-4.435463e-14 1.457896e-13 1.118320e-14) (-4.153501e-12 7.225243e-12 1.056865e-11))
1.049306      	((-2.468936e-05 -2.851881e-09 -2.657157e-09) (-5.259706e-05 -1.517170e-10 2.141209e-10)) ((9.216411e-15 1.842200e-13 -6.202933e-15) (-2.311447e-12 6.865723e-12 1.290580e-12))
1.271167      	((-2.303585e-05 -1.741198e-09 -2.107569e-09) (-4.742368e-05 -6.026057e-11 2.008048e-10)) ((-1.223214e-14 1.880556e-13 8.924783e-15) (-9.780468e-13 4.606090e-12 -3.396339e-12))
1.5374        	((-2.129377e-05 -1.043775e-09 -1.194028e-09) (-4.287652e-05 1.322316e-11 2.271993e-10)) ((8.865919e-15 1.994700e-13 1.452755e-14) (-2.627616e-13 1.346737e-12 -4.680099e-12))
1.85688       	((-1.959040e-05 -8.139564e-10 -6.869698e-10) (-3.885636e-05 5.512780e-11 2.556126e-10)) ((2.266479e-16 1.898590e-13 5.993419e-15) (-4.486200e-14 -2.971431e-12 -3.561369e-12))
2.240256      	((-1.800467e-05 -7.395750e-10 -7.121728e-10) (-3.528873e-05 8.112635e-11 2.460406e-10)) ((-1.033555e-14 1.909390e-13 -5.329703e-15) (2.271142e-13 -7.236129e-12 -1.711777e-13))
2.700307      	((-1.655733e-05 -8.658908e-10 -8.520295e-10) (-3.211589e-05 8.902376e-11 2.118141e-10)) ((-4.578297e-15 1.673547e-13 -9.501568e-15) (3.648124e-13 -1.083693e-11 4.366310e-12))
3.252369      	((-1.523919e-05 -1.149625e-09 -1.295486e-09) (-2.928668e-05 9.100428e-11 1.783152e-10)) ((-1.135248e-14 1.639768e-13 -8.061028e-17) (3.312561e-13 -1.322146e-11 8.407024e-12))
3.914842      	((-1.406045e-05 -1.822802e-09 -1.762396e-09) (-2.675813e-05 6.652642e-11 1.469781e-10)) ((-1.024016e-14 1.598935e-13 1.091263e-15) (1.364507e-13 -1.399397e-11 1.119428e-11))
4.709811      	((-1.302683e-05 -1.923913e-09 -2.212828e-09) (-2.450166e-05 3.020593e-11 1.074576e-10)) ((-1.682679e-14 1.580380e-13 -9.340768e-15) (-4.703051e-14 -1.374799e-11 1.264606e-11))
5.663773      	((-1.214679e-05 -1.373137e-09 -1.657736e-09) (-2.249615e-05 1.212153e-11 7.360444e-11)) ((-5.832275e-16 1.381425e-13 -2.566070e-14) (-1.465038e-13 -1.265743e-11 1.218639e-11))
6.808528      	((-1.141140e-05 -2.309708e-09 -2.160674e-09) (-2.071917e-05 -1.475389e-11 3.539748e-11)) ((1.062718e-14 1.307298e-13 -3.461179e-14) (-4.683911e-13 -1.158597e-11 1.116867e-11))
8.182233      	((-1.082089e-05 -3.129701e-09 -3.427803e-09) (-1.914628e-05 -7.036418e-11 -5.428199e-11)) ((1.974021e-14 1.305307e-13 -2.437288e-14) (-7.987552e-13 -1.145347e-11 9.781770e-12))
9.83068       	((-1.037729e-05 -3.987465e-09 -4.229009e-09) (-1.775477e-05 -1.601479e-10 -1.667579e-10)) ((2.332438e-14 1.166592e-13 -9.309668e-15) (-9.947076e-13 -1.153271e-11 1.000458e-11))
11.808816     	((-1.008194e-05 -5.671633e-09 -5.511954e-09) (-1.652519e-05 -3.297213e-10 -3.276148e-10)) ((3.749503e-14 1.321823e-13 -1.418437e-14) (-1.269190e-12 -1.372411e-11 1.230708e-11))
14.182579     	((-9.936366e-06 -5.830313e-09 -5.962875e-09) (-1.544148e-05 -5.279975e-10 -5.302558e-10)) ((4.589979e-14 1.213367e-13 -2.954345e-14) (-1.505102e-12 -1.905006e-11 1.712724e-11))
17.031095     	((-9.934880e-06 -4.970953e-09 -5.288377e-09) (-1.449176e-05 -6.358186e-10 -6.631520e-10)) ((3.871947e-14 1.005261e-13 -2.795932e-14) (-1.526637e-12 -2.667032e-11 2.463974e-11))
20.449314     	((-1.006538e-05 -5.012335e-09 -5.138027e-09) (-1.366683e-05 -7.386910e-10 -7.424260e-10)) ((3.339635e-14 1.248943e-13 -2.830139e-14) (-1.421287e-12 -3.733040e-11 3.471353e-11))
24.551176     	((-1.031665e-05 -4.524065e-09 -4.731639e-09) (-1.295942e-05 -8.149613e-10 -8.479799e-10)) ((2.355440e-14 1.382994e-13 -2.700180e-14) (-1.358042e-12 -5.084487e-11 4.545214e-11))
29.473411     	((-1.067505e-05 -3.701279e-09 -3.817317e-09) (-1.236399e-05 -8.564598e-10 -9.191959e-10)) ((1.197790e-14 1.230124e-13 -3.001598e-14) (-8.535778e-13 -6.490942e-11 5.990914e-11))
35.380094     	((-1.111344e-05 -2.320712e-09 -2.583060e-09) (-1.187288e-05 -8.806291e-10 -9.518131e-10)) ((1.112605e-14 1.063075e-13 -3.244132e-14) (-6.707521e-13 -8.005927e-11 7.536477e-11))
42.45266      	((-1.159374e-05 -2.354267e-09 -2.485631e-09) (-1.147791e-05 -9.010649e-10 -9.748713e-10)) ((1.228811e-15 1.191417e-13 -3.701976e-14) (-4.467288e-13 -9.565298e-11 8.703820e-11))
50.68192      	((-1.207706e-05 -1.685460e-09 -1.819910e-09) (-1.117368e-05 -8.490460e-10 -8.740738e-10)) ((-1.960013e-14 1.365083e-13 -3.942905e-14) (-5.180110e-13 -1.066835e-10 9.487946e-11))
60.059069     	((-1.249884e-05 -7.394758e-10 -9.066743e-10) (-1.093900e-05 -6.748558e-10 -7.031607e-10)) ((-3.443999e-14 1.425243e-13 -4.111342e-14) (-5.823690e-13 -1.094146e-10 9.619137e-11))
70.578813     	((-1.283748e-05 7.869171e-10 7.520477e-10) (-1.074998e-05 -3.521520e-10 -3.705551e-10)) ((-6.181434e-14 1.326939e-13 -3.685833e-14) (-4.635971e-13 -1.076479e-10 9.167633e-11))
82.00059      	((-1.308721e-05 3.075368e-09 3.028085e-09) (-1.059212e-05 1.118089e-10 1.002342e-10)) ((-7.746674e-14 1.155516e-13 -3.200116e-14) (-3.881453e-13 -1.040483e-10 8.622222e-11))
93.462122     	((-1.325984e-05 4.359931e-09 4.395413e-09) (-1.046059e-05 6.084838e-10 5.859481e-10)) ((-9.276186e-14 1.000149e-13 -2.283242e-14) (-4.583077e-13 -1.001583e-10 8.258784e-11))
104.961328    	((-1.333654e-05 5.021007e-09 5.066130e-09) (-1.034653e-05 1.048981e-09 1.025681e-09)) ((-1.021447e-13 9.376252e-14 -1.798412e-14) (-8.514560e-14 -9.546424e-11 8.011255e-11))
116.47727     	((-1.335482e-05 4.356673e-09 4.423272e-09) (-1.024679e-05 1.359856e-09 1.319601e-09)) ((-1.012074e-13 1.039761e-13 -1.110893e-14) (2.254072e-13 -9.045908e-11 7.651602e-11))
127.998426    	((-1.333731e-05 3.741188e-09 3.900052e-09) (-1.015872e-05 1.536944e-09 1.484719e-09)) ((-9.991458e-14 1.107746e-13 -1.200103e-14) (4.672776e-13 -8.471437e-11 7.134112e-11))
139.525332    	((-1.330557e-05 3.257072e-09 3.454316e-09) (-1.008007e-05 1.622260e-09 1.570690e-09)) ((-1.016383e-13 1.086232e-13 -1.300700e-14) (5.887183e-13 -7.882171e-11 6.637332e-11))
151.060358    	((-1.327020e-05 2.959642e-09 3.197503e-09) (-1.000995e-05 1.664379e-09 1.622968e-09)) ((-9.806118e-14 9.956855e-14 -1.564832e-14) (6.845934e-13 -7.292137e-11 6.226988e-11))
162.603248    	((-1.323832e-05 2.228013e-09 2.460580e-09) (-9.947626e-06 1.649248e-09 1.617069e-09)) ((-8.991038e-14 9.978729e-14 -1.336961e-14) (6.295831e-13 -6.704903e-11 5.830209e-11))
174.152742    	((-1.320282e-05 1.614677e-09 1.763613e-09) (-9.891786e-06 1.602719e-09 1.574480e-09)) ((-8.279802e-14 9.048333e-14 -8.087798e-15) (3.417433e-13 -6.175053e-11 5.369630e-11))
185.70808     	((-1.317353e-05 9.594108e-10 1.119611e-09) (-9.841963e-06 1.533216e-09 1.505237e-09)) ((-8.087787e-14 8.342539e-14 -7.928952e-15) (9.788890e-14 -5.702803e-11 4.919745e-11))
197.268805    	((-1.314575e-05 2.387704e-10 4.674999e-10) (-9.797610e-06 1.451660e-09 1.428304e-09)) ((-7.775738e-14 7.605808e-14 -1.031545e-14) (-8.577615e-14 -5.217490e-11 4.486138e-11))
208.834426    	((-1.311869e-05 -5.422446e-10 -2.761789e-10) (-9.757994e-06 1.358147e-09 1.342637e-09)) ((-7.516589e-14 7.477042e-14 -1.427493e-14) (-6.085435e-14 -4.709159e-11 4.075701e-11))
220.404449    	((-1.309201e-05 -1.462782e-09 -1.091766e-09) (-9.722471e-06 1.251852e-09 1.245902e-09)) ((-7.179522e-14 7.552818e-14 -1.531148e-14) (-5.264861e-14 -4.246808e-11 3.655923e-11))
231.97844     	((-1.306820e-05 -2.346920e-09 -1.989483e-09) (-9.690700e-06 1.136752e-09 1.138126e-09)) ((-6.850825e-14 7.603634e-14 -1.444870e-14) (-6.692837e-14 -3.838145e-11 3.226181e-11))
243.556024    	((-1.304574e-05 -3.199393e-09 -2.799114e-09) (-9.662262e-06 1.010000e-09 1.015778e-09)) ((-6.673048e-14 7.613271e-14 -1.200886e-14) (-8.929677e-14 -3.463162e-11 2.825654e-11))
255.136853    	((-1.302266e-05 -4.193231e-09 -3.733937e-09) (-9.636582e-06 8.641046e-10 8.784200e-10)) ((-6.332593e-14 7.750570e-14 -9.764375e-15) (-1.892361e-13 -3.085490e-11 2.463288e-11))
266.720617    	((-1.300262e-05 -5.403917e-09 -4.913713e-09) (-9.613437e-06 6.943021e-10 7.139434e-10)) ((-5.664823e-14 8.408503e-14 -9.850684e-15) (-3.107929e-13 -2.701174e-11 2.117357e-11))
278.30705     	((-1.298346e-05 -6.485315e-09 -5.976678e-09) (-9.592535e-06 5.150716e-10 5.389958e-10)) ((-5.106348e-14 8.857682e-14 -1.013965e-14) (-4.153132e-13 -2.303564e-11 1.784935e-11))
289.895921    	((-1.296607e-05 -7.675332e-09 -7.135209e-09) (-9.573639e-06 3.241039e-10 3.511348e-10)) ((-4.588005e-14 9.228778e-14 -9.715120e-15) (-4.812404e-13 -1.913120e-11 1.440696e-11))
301.487017    	((-1.295008e-05 -8.838102e-09 -8.247223e-09) (-9.556566e-06 1.208396e-10 1.526369e-10)) ((-4.152127e-14 9.560053e-14 -9.081643e-15) (-5.081268e-13 -1.532415e-11 1.096478e-11))
313.080146    	((-1.293479e-05 -9.927657e-09 -9.343751e-09) (-9.541085e-06 -8.599178e-11 -5.519345e-11)) ((-3.693790e-14 9.884173e-14 -9.710707e-15) (-5.085833e-13 -1.163000e-11 7.604408e-12))
324.675129    	((-1.292079e-05 -1.096850e-08 -1.037814e-08) (-9.527034e-06 -2.891199e-10 -2.594491e-10)) ((-3.278836e-14 1.001467e-13 -9.498333e-15) (-4.928890e-13 -8.067437e-12 4.278453e-12))
336.271805    	((-1.290767e-05 -1.193438e-08 -1.137677e-08) (-9.514261e-06 -4.839926e-10 -4.562937e-10)) ((-2.867496e-14 1.017736e-13 -9.416102e-15) (-4.844755e-13 -4.685281e-12 9.943864e-13))
347.870025    	((-1.289547e-05 -1.289739e-08 -1.238551e-08) (-9.502628e-06 -6.736224e-10 -6.517306e-10)) ((-2.352871e-14 1.040299e-13 -8.254001e-15) (-4.799329e-13 -1.452869e-12 -2.247137e-12))
359.469662    	((-1.288446e-05 -1.383256e-08 -1.334282e-08) (-9.492038e-06 -8.565675e-10 -8.416239e-10)) ((-1.882355e-14 1.070536e-13 -6.941418e-15) (-4.615640e-13 1.743348e-12 -5.403887e-12))
371.070602    	((-1.287398e-05 -1.478116e-08 -1.432280e-08) (-9.482367e-06 -1.035345e-09 -1.026487e-09)) ((-1.554122e-14 1.109675e-13 -5.642681e-15) (-4.440422e-13 4.977205e-12 -8.483540e-12))
382.672739    	((-1.286425e-05 -1.565779e-08 -1.521773e-08) (-9.473518e-06 -1.207189e-09 -1.203567e-09)) ((-1.264859e-14 1.134943e-13 -4.493266e-15) (-4.425888e-13 8.233256e-12 -1.148164e-11))
394.275978    	((-1.285488e-05 -1.653735e-08 -1.612603e-08) (-9.465396e-06 -1.374191e-09 -1.375681e-09)) ((-1.019710e-14 1.171178e-13 -3.648710e-15) (-4.567809e-13 1.157674e-11 -1.430750e-11))
405.880231    	((-1.284602e-05 -1.734428e-08 -1.696197e-08) (-9.457917e-06 -1.532573e-09 -1.538471e-09)) ((-7.760523e-15 1.203554e-13 -3.008026e-15) (-4.950999e-13 1.494982e-11 -1.705867e-11))
417.485415    	((-1.283761e-05 -1.815426e-08 -1.778656e-08) (-9.451007e-06 -1.683207e-09 -1.691136e-09)) ((-5.217982e-15 1.238303e-13 -2.584666e-15) (-5.165744e-13 1.836384e-11 -1.983015e-11))
429.091449    	((-1.282999e-05 -1.893546e-08 -1.860382e-08) (-9.444638e-06 -1.826691e-09 -1.836108e-09)) ((-3.221313e-15 1.282870e-13 -2.381002e-15) (-5.310745e-13 2.188205e-11 -2.274609e-11))
440.698267    	((-1.282273e-05 -1.968936e-08 -1.940450e-08) (-9.438755e-06 -1.964808e-09 -1.976326e-09)) ((-8.200869e-16 1.330352e-13 -2.485797e-15) (-5.421911e-13 2.541030e-11 -2.575384e-11))
452.305809    	((-1.281598e-05 -2.043221e-08 -2.016437e-08) (-9.433316e-06 -2.097804e-09 -2.111530e-09)) ((8.816252e-16 1.373321e-13 -2.520818e-15) (-5.562724e-13 2.888134e-11 -2.876269e-11))
463.914021    	((-1.280976e-05 -2.120436e-08 -2.097351e-08) (-9.428296e-06 -2.228134e-09 -2.245300e-09)) ((2.598153e-15 1.424295e-13 -2.790005e-15) (-5.695856e-13 3.225958e-11 -3.178468e-11))
475.522851    	((-1.280399e-05 -2.198610e-08 -2.177172e-08) (-9.423663e-06 -2.358134e-09 -2.378302e-09)) ((4.033880e-15 1.473726e-13 -3.146721e-15) (-5.805588e-13 3.555751e-11 -3.479920e-11))
487.132251    	((-1.279857e-05 -2.281073e-08 -2.261863e-08) (-9.419381e-06 -2.490371e-09 -2.513841e-09)) ((5.633567e-15 1.529553e-13 -3.329755e-15) (-5.891930e-13 3.877431e-11 -3.779116e-11))
498.742183    	((-1.279351e-05 -2.360358e-08 -2.342639e-08) (-9.415419e-06 -2.621948e-09 -2.649177e-09)) ((6.891781e-15 1.580743e-13 -3.666140e-15) (-5.951860e-13 4.191845e-11 -4.078736e-11))
510.352607    	((-1.278875e-05 -2.442505e-08 -2.426591e-08) (-9.411749e-06 -2.754695e-09 -2.785748e-09)) ((7.983893e-15 1.633562e-13 -4.000778e-15) (-6.005610e-13 4.501026e-11 -4.376487e-11))
521.963484    	((-1.278432e-05 -2.524540e-08 -2.511936e-08) (-9.408346e-06 -2.889149e-09 -2.925521e-09)) ((8.899082e-15 1.682763e-13 -4.194176e-15) (-6.037045e-13 4.804335e-11 -4.671388e-11))
533.574778    	((-1.278020e-05 -2.607294e-08 -2.595476e-08) (-9.405191e-06 -3.025431e-09 -3.065856e-09)) ((9.844347e-15 1.731456e-13 -4.429670e-15) (-6.066606e-13 5.102184e-11 -4.960479e-11))
545.186455    	((-1.277640e-05 -2.694297e-08 -2.682109e-08) (-9.402267e-06 -3.166338e-09 -3.208698e-09)) ((1.076252e-14 1.781504e-13 -4.468192e-15) (-6.074337e-13 5.396323e-11 -5.245028e-11))
556.798482    	((-1.277290e-05 -2.781054e-08 -2.771202e-08) (-9.399558e-06 -3.310895e-09 -3.355662e-09)) ((1.147843e-14 1.833649e-13 -4.451054e-15) (-6.057665e-13 5.687041e-11 -5.523728e-11))
568.410828    	((-1.276966e-05 -2.871255e-08 -2.861602e-08) (-9.397050e-06 -3.460882e-09 -3.507319e-09)) ((1.227688e-14 1.884378e-13 -4.457742e-15) (-6.041972e-13 5.968919e-11 -5.793517e-11))
580.023467    	((-1.276668e-05 -2.961303e-08 -2.952412e-08) (-9.394732e-06 -3.615661e-09 -3.662903e-09)) ((1.286641e-14 1.933630e-13 -4.260632e-15) (-5.880718e-13 6.241368e-11 -6.051068e-11))
591.636371    	((-1.276385e-05 -3.051599e-08 -3.042973e-08) (-9.392586e-06 -3.773728e-09 -3.821706e-09)) ((1.345637e-14 1.983120e-13 -3.989487e-15) (-5.752140e-13 6.503375e-11 -6.297462e-11))
603.249517    	((-1.276118e-05 -3.143246e-08 -3.134696e-08) (-9.390596e-06 -3.935351e-09 -3.984157e-09)) ((1.421930e-14 2.031958e-13 -3.666994e-15) (-5.721394e-13 6.754225e-11 -6.534522e-11))
614.862883    	((-1.275865e-05 -3.236771e-08 -3.227862e-08) (-9.388748e-06 -4.101505e-09 -4.150488e-09)) ((1.491164e-14 2.082317e-13 -3.385031e-15) (-5.678085e-13 6.994651e-11 -6.765433e-11))
626.476447    	((-1.275626e-05 -3.331077e-08 -3.322796e-08) (-9.387027e-06 -4.271993e-09 -4.321397e-09)) ((1.561100e-14 2.134178e-13 -3.113980e-15) (-5.647838e-13 7.224440e-11 -6.989498e-11))
638.09019     	((-1.275402e-05 -3.425762e-08 -3.417942e-08) (-9.385427e-06 -4.446048e-09 -4.496067e-09)) ((1.621335e-14 2.185007e-13 -2.883648e-15) (-5.653174e-13 7.444117e-11 -7.205476e-11))
649.704095    	((-1.275193e-05 -3.521426e-08 -3.513977e-08) (-9.383937e-06 -4.623548e-09 -4.673936e-09)) ((1.673836e-14 2.237672e-13 -2.674767e-15) (-5.669716e-13 7.657186e-11 -7.415424e-11))
661.318145    	((-1.275000e-05 -3.617866e-08 -3.609552e-08) (-9.382553e-06 -4.804113e-09 -4.853971e-09)) ((1.720160e-14 2.289486e-13 -2.514631e-15) (-5.704296e-13 7.865243e-11 -7.620305e-11))
672.932324    	((-1.274819e-05 -3.714895e-08 -3.705590e-08) (-9.381266e-06 -4.987360e-09 -5.035921e-09)) ((1.767115e-14 2.342738e-13 -2.311068e-15) (-5.751603e-13 8.069983e-11 -7.821036e-11))
684.546618    	((-1.274649e-05 -3.811263e-08 -3.800606e-08) (-9.380069e-06 -5.172048e-09 -5.218580e-09)) ((1.811424e-14 2.394039e-13 -1.963724e-15) (-5.801841e-13 8.272524e-11 -8.018799e-11))
696.161014    	((-1.274488e-05 -3.907781e-08 -3.896840e-08) (-9.378955e-06 -5.357637e-09 -5.402212e-09)) ((1.849062e-14 2.447559e-13 -1.610615e-15) (-5.871359e-13 8.473802e-11 -8.214317e-11))
707.775501    	((-1.274339e-05 -4.004029e-08 -3.992334e-08) (-9.377916e-06 -5.543637e-09 -5.586412e-09)) ((1.886002e-14 2.499459e-13 -1.239927e-15) (-5.947198e-13 8.672968e-11 -8.408450e-11))
719.390067    	((-1.274197e-05 -4.100684e-08 -4.088320e-08) (-9.376949e-06 -5.730141e-09 -5.771178e-09)) ((1.920752e-14 2.551860e-13 -8.482717e-16) (-6.020961e-13 8.870504e-11 -8.602011e-11))
