# Forces      
# CofR        : (0.000000e+00 0.000000e+00 0.000000e+00)
# Time        forces(pressure viscous)	moments(pressure viscous)
0             	((0.000000e+00 0.000000e+00 0.000000e+00) (-1.265193e-05 4.810329e-17 1.339826e-15)) ((0.000000e+00 0.000000e+00 0.000000e+00) (-4.213820e-18 -3.683273e-16 3.222069e-18))
0.012         	((-3.679274e-03 2.057634e-09 1.882933e-09) (-1.452089e-05 1.114336e-11 8.004467e-12)) ((-6.407615e-15 1.348168e-12 5.921502e-13) (1.294140e-15 -2.695339e-14 -2.415283e-13))
0.0264        	((2.526010e-04 -5.569832e-08 -2.726629e-08) (-1.481852e-05 -2.363646e-11 -1.035115e-11)) ((-6.345575e-13 -3.338555e-12 -8.558708e-13) (-8.261225e-15 -1.654923e-13 -4.270551e-13))
0.04368       	((7.707415e-04 8.312966e-08 4.937919e-08) (-1.317108e-05 1.787181e-11 6.765130e-12)) ((2.285721e-14 -1.532901e-12 -2.739215e-12) (-3.610994e-14 -7.474078e-13 -2.170202e-13))
0.064416      	((7.328353e-06 -5.452773e-09 -1.201260e-09) (-1.166687e-05 -1.678018e-10 -1.561789e-10)) ((3.011005e-13 1.405838e-12 9.774060e-13) (-4.760018e-14 6.276259e-13 -1.852096e-12))
0.0892992     	((-1.030153e-05 -5.921356e-09 -8.351891e-09) (-1.077176e-05 -2.924082e-10 -2.915829e-10)) ((-4.982022e-13 2.092557e-13 6.526218e-13) (-1.665138e-14 1.207155e-12 -3.027751e-12))
0.119159      	((1.147774e-05 -5.388990e-09 -1.481791e-09) (-9.947017e-06 -2.212669e-10 -2.562302e-10)) ((2.774723e-13 9.421943e-13 1.904772e-13) (-1.039024e-13 -9.322902e-13 -7.031429e-13))
0.154991      	((6.198184e-06 3.436770e-09 3.380522e-10) (-9.071825e-06 -1.715971e-10 -1.981219e-10)) ((-1.412771e-13 4.452453e-13 -1.852024e-13) (-8.990056e-14 -1.853063e-12 8.021356e-13))
0.197989      	((1.508283e-06 -1.514942e-09 7.049525e-10) (-8.187733e-06 -8.012818e-11 -1.120499e-10)) ((-1.174464e-14 7.828981e-13 -3.072568e-13) (-1.571487e-13 -5.989636e-13 -7.269445e-15))
0.249587      	((-1.976762e-07 -5.157382e-10 -1.604069e-10) (-7.319729e-06 -1.311078e-11 -4.270285e-11)) ((4.703910e-14 4.571417e-13 -1.123950e-13) (-2.656399e-13 2.948553e-13 -1.200288e-12))
0.311504      	((-9.782175e-07 -2.751691e-10 -4.551033e-10) (-6.493828e-06 2.425561e-11 -4.603413e-12)) ((4.962908e-15 3.305294e-13 -2.207869e-14) (-1.858458e-13 4.160169e-13 -1.709684e-12))
0.385805      	((-1.351208e-06 4.896888e-11 1.277875e-10) (-5.730918e-06 4.456418e-11 1.310013e-11)) ((-5.176516e-15 2.325421e-13 -3.099626e-14) (-1.437955e-13 3.648724e-13 -2.154241e-12))
0.474966      	((-1.526290e-06 2.994845e-10 1.342369e-10) (-5.046410e-06 4.658771e-11 1.978386e-11)) ((-7.677039e-15 1.406587e-13 -1.725434e-14) (-9.203281e-14 -7.660004e-15 -2.566134e-12))
0.581959      	((-1.596970e-06 1.668338e-10 1.167781e-10) (-4.447205e-06 4.898909e-11 2.738931e-11)) ((-6.943830e-15 8.468333e-14 -8.619544e-15) (-3.911535e-15 -3.922926e-13 -2.771130e-12))
0.710351      	((-1.590765e-06 7.451341e-11 3.832650e-11) (-3.933784e-06 4.006417e-11 2.780039e-11)) ((-7.878616e-15 4.345059e-14 -6.021118e-15) (-1.305840e-14 -9.752883e-13 -2.508539e-12))
0.864421      	((-1.533189e-06 3.490525e-11 5.829201e-11) (-3.499606e-06 2.893683e-11 2.650288e-11)) ((-6.787077e-15 2.192884e-14 3.904725e-15) (-9.466386e-14 -1.093158e-12 -1.989810e-12))
1.049306      	((-1.448632e-06 4.194467e-11 4.274143e-11) (-3.133527e-06 2.051801e-11 2.334458e-11)) ((-6.106581e-15 7.816556e-15 1.321964e-15) (-1.413816e-13 -1.055507e-12 -1.340395e-12))
1.271167      	((-1.354911e-06 3.445192e-11 4.898605e-11) (-2.824009e-06 1.105851e-11 2.225240e-11)) ((-5.344592e-15 -5.004859e-16 1.621976e-15) (-1.465138e-13 -1.018575e-12 -9.121986e-13))
1.5374        	((-1.259366e-06 2.853136e-11 4.073742e-11) (-2.558804e-06 4.116375e-12 2.334481e-11)) ((-4.024544e-15 -2.923238e-15 1.566196e-15) (-1.503910e-13 -9.193901e-13 -6.350653e-13))
1.85688       	((-1.166208e-06 2.418025e-11 4.131660e-11) (-2.326716e-06 3.644764e-12 2.279865e-11)) ((-2.651400e-15 2.756632e-16 7.065882e-16) (-1.542486e-13 -7.898708e-13 -3.009771e-13))
2.240256      	((-1.077832e-06 1.611746e-11 1.969327e-11) (-2.120383e-06 6.023396e-12 1.944440e-11)) ((-1.753530e-15 3.543956e-15 1.014586e-15) (-1.477886e-13 -7.167420e-13 4.683807e-15))
2.700307      	((-9.953152e-07 -2.973363e-13 1.151984e-11) (-1.935280e-06 8.609205e-12 1.560144e-11)) ((-1.332296e-15 4.826571e-15 7.246822e-16) (-1.397283e-13 -7.453321e-13 2.436965e-13))
3.252369      	((-9.183417e-07 -1.671052e-11 -1.302942e-11) (-1.768428e-06 8.530323e-12 1.393907e-11)) ((-1.475207e-15 5.650668e-15 1.319593e-15) (-1.350053e-13 -8.724715e-13 5.034735e-13))
3.914842      	((-8.460281e-07 -2.831515e-11 -2.455568e-11) (-1.617667e-06 7.991478e-12 1.261443e-11)) ((-1.554301e-15 6.367504e-15 1.427227e-15) (-1.293450e-13 -1.019140e-12 6.990470e-13))
4.709811      	((-7.789004e-07 -2.432311e-11 -2.812545e-11) (-1.481406e-06 8.510785e-12 1.032985e-11)) ((-1.862943e-15 6.813994e-15 1.383239e-15) (-1.240314e-13 -1.040886e-12 7.344453e-13))
5.663773      	((-7.169786e-07 -1.129157e-11 -1.892228e-11) (-1.358466e-06 8.107498e-12 7.432133e-12)) ((-2.068495e-15 7.348291e-15 8.461178e-16) (-1.221301e-13 -9.941928e-13 7.196721e-13))
6.808528      	((-6.601240e-07 -4.580202e-13 -2.890358e-12) (-1.247858e-06 6.829882e-12 4.461986e-12)) ((-1.349427e-15 7.940135e-15 1.124843e-16) (-1.252992e-13 -9.790710e-13 6.967383e-13))
8.182233      	((-6.081087e-07 -4.285351e-12 -3.501380e-12) (-1.148565e-06 4.865669e-12 2.803437e-12)) ((-9.713109e-16 7.827416e-15 -2.645056e-16) (-1.405453e-13 -1.059634e-12 7.651161e-13))
9.83068       	((-5.608239e-07 -2.852827e-11 -1.708692e-11) (-1.059376e-06 3.108260e-12 2.066190e-12)) ((-7.263856e-16 8.469564e-15 -3.523597e-16) (-1.300138e-13 -1.338239e-12 1.046786e-12))
11.808816     	((-5.175786e-07 -3.244969e-11 -2.145944e-11) (-9.789636e-07 2.273995e-12 2.112977e-12)) ((-3.588891e-16 6.824789e-15 5.056794e-17) (-1.006321e-13 -1.939947e-12 1.684063e-12))
14.182579     	((-4.780643e-07 -2.386719e-11 -2.606715e-11) (-9.061495e-07 3.218565e-12 2.951865e-12)) ((-4.659090e-16 6.082848e-15 5.083668e-16) (-6.949728e-14 -2.825429e-12 2.636619e-12))
17.031095     	((-4.420011e-07 -5.421324e-11 -5.070440e-11) (-8.399623e-07 5.039572e-12 3.690703e-12)) ((-5.263411e-16 4.833154e-15 1.218910e-15) (-1.956204e-14 -3.988029e-12 3.749648e-12))
20.449314     	((-4.091272e-07 -8.115165e-11 -7.125860e-11) (-7.796453e-07 5.174394e-12 3.915838e-12)) ((-3.341757e-16 4.893544e-15 1.097164e-15) (1.000636e-14 -5.297029e-12 5.000812e-12))
24.551176     	((-3.790823e-07 -8.881032e-11 -8.399637e-11) (-7.246332e-07 4.907504e-12 4.667649e-12)) ((-1.040203e-16 4.754603e-15 1.158760e-15) (2.690894e-14 -6.587263e-12 6.199703e-12))
29.473411     	((-3.517168e-07 -5.430444e-11 -5.791183e-11) (-6.745277e-07 7.874298e-12 7.227362e-12)) ((6.337603e-16 4.553754e-15 9.821415e-16) (3.489438e-14 -7.707044e-12 7.143369e-12))
35.380094     	((-3.268066e-07 -5.266949e-11 -5.412836e-11) (-6.289761e-07 1.059496e-11 1.097298e-11)) ((9.966126e-16 3.863927e-15 4.360071e-16) (3.663260e-14 -8.666779e-12 8.076373e-12))
42.468112     	((-3.043147e-07 -6.527839e-11 -6.621724e-11) (-5.876305e-07 1.184222e-11 1.397157e-11)) ((1.126327e-15 3.331871e-15 3.997017e-16) (1.187204e-14 -9.664081e-12 9.130401e-12))
50.973735     	((-2.840366e-07 -6.062379e-11 -6.465415e-11) (-5.501465e-07 1.461644e-11 1.717300e-11)) ((7.726835e-16 3.679827e-15 8.544524e-16) (8.021321e-15 -1.087348e-11 1.027989e-11))
61.180482     	((-2.658037e-07 -3.996597e-11 -4.340468e-11) (-5.161745e-07 1.873207e-11 2.189389e-11)) ((5.229182e-16 3.666179e-15 1.263864e-15) (2.841060e-14 -1.236242e-11 1.167832e-11))
73.428578     	((-2.494556e-07 -1.633611e-11 -1.935947e-11) (-4.853826e-07 2.471000e-11 2.664244e-11)) ((1.942833e-16 3.257534e-15 1.451561e-15) (2.955862e-14 -1.414800e-11 1.338972e-11))
88.126294     	((-2.348326e-07 3.016066e-12 4.697490e-12) (-4.574360e-07 3.078585e-11 3.328663e-11)) ((-1.719548e-16 2.666157e-15 1.761813e-15) (2.994377e-14 -1.615688e-11 1.537247e-11))
105.763553    	((-2.218589e-07 2.447668e-11 2.408466e-11) (-4.320676e-07 3.728698e-11 3.967056e-11)) ((-6.797738e-16 2.154514e-15 2.135550e-15) (2.259753e-14 -1.825261e-11 1.751742e-11))
126.928263    	((-2.104691e-07 4.125113e-11 4.217374e-11) (-4.090474e-07 4.318029e-11 4.512535e-11)) ((-9.800094e-16 1.515514e-15 2.441721e-15) (1.249961e-14 -2.026885e-11 1.961492e-11))
152.325916    	((-2.005364e-07 5.394792e-11 5.245750e-11) (-3.881921e-07 4.714418e-11 4.910010e-11)) ((-1.177261e-15 9.146895e-16 2.648083e-15) (1.468490e-15 -2.206118e-11 2.148247e-11))
182.803099    	((-1.919571e-07 6.664315e-11 6.344916e-11) (-3.693474e-07 5.028436e-11 5.132306e-11)) ((-1.465819e-15 4.075593e-16 2.887241e-15) (-5.487171e-15 -2.353151e-11 2.304304e-11))
219.375719    	((-1.845796e-07 9.036964e-11 8.802325e-11) (-3.523829e-07 5.347480e-11 5.404159e-11)) ((-1.738260e-15 -1.541365e-16 2.755350e-15) (-1.748733e-15 -2.464736e-11 2.424851e-11))
263.262863    	((-1.783357e-07 1.079258e-10 1.041715e-10) (-3.371826e-07 5.669512e-11 5.624276e-11)) ((-1.742298e-15 -5.542453e-16 2.562445e-15) (1.009212e-15 -2.536711e-11 2.507657e-11))
315.927436    	((-1.732194e-07 1.174029e-10 1.123644e-10) (-3.236461e-07 5.910105e-11 5.790842e-11)) ((-1.604485e-15 -7.513609e-16 2.557315e-15) (-1.249916e-15 -2.569416e-11 2.548545e-11))
379.124923    	((-1.691272e-07 1.251007e-10 1.182921e-10) (-3.116867e-07 6.005762e-11 5.896607e-11)) ((-1.505763e-15 -6.840657e-16 2.603758e-15) (-9.128471e-15 -2.567940e-11 2.552526e-11))
454.961908    	((-1.659810e-07 1.353833e-10 1.276134e-10) (-3.012198e-07 6.104334e-11 5.900578e-11)) ((-1.469103e-15 -5.090357e-16 2.586015e-15) (-2.135881e-14 -2.537124e-11 2.523272e-11))
545.966289    	((-1.636574e-07 1.416120e-10 1.343473e-10) (-2.921600e-07 6.210916e-11 5.999712e-11)) ((-1.356202e-15 -2.328821e-16 2.478692e-15) (-3.784583e-14 -2.478165e-11 2.464158e-11))
655.171547    	((-1.619842e-07 1.465995e-10 1.406525e-10) (-2.844105e-07 6.280717e-11 6.103312e-11)) ((-1.220074e-15 -6.734966e-17 2.402363e-15) (-4.984149e-14 -2.392721e-11 2.378593e-11))
786.217856    	((-1.608026e-07 1.462243e-10 1.437960e-10) (-2.778569e-07 6.328211e-11 6.171170e-11)) ((-1.135739e-15 8.880939e-17 2.274054e-15) (-5.816461e-14 -2.283733e-11 2.270843e-11))
943.473427    	((-1.599625e-07 1.433765e-10 1.439099e-10) (-2.723726e-07 6.430637e-11 6.306587e-11)) ((-1.012638e-15 3.233401e-16 2.192642e-15) (-6.698691e-14 -2.158870e-11 2.145325e-11))
1130.196026   	((-1.593508e-07 1.396136e-10 1.395705e-10) (-2.678278e-07 6.575540e-11 6.476647e-11)) ((-9.350124e-16 4.610502e-16 2.081451e-15) (-7.491140e-14 -2.022796e-11 2.009337e-11))
1346.425188   	((-1.588835e-07 1.314764e-10 1.336301e-10) (-2.640924e-07 6.732964e-11 6.661080e-11)) ((-8.393090e-16 6.686206e-16 1.986256e-15) (-7.913336e-14 -1.882104e-11 1.867858e-11))
1592.197583   	((-1.584991e-07 1.219673e-10 1.268224e-10) (-2.610387e-07 6.886108e-11 6.853486e-11)) ((-7.436861e-16 8.725344e-16 1.899643e-15) (-8.161606e-14 -1.741728e-11 1.726373e-11))
1867.547973   	((-1.581823e-07 1.127680e-10 1.190026e-10) (-2.585535e-07 7.031441e-11 7.013305e-11)) ((-6.870809e-16 1.056182e-15 1.824364e-15) (-8.393733e-14 -1.605658e-11 1.589889e-11))
2163.64638    	((-1.579303e-07 1.034398e-10 1.104166e-10) (-2.565412e-07 7.147323e-11 7.136334e-11)) ((-6.310043e-16 1.215159e-15 1.740816e-15) (-8.542494e-14 -1.477235e-11 1.461221e-11))
2460.024979   	((-1.577365e-07 9.546945e-11 1.024975e-10) (-2.549206e-07 7.215913e-11 7.208610e-11)) ((-5.209745e-16 1.319616e-15 1.662184e-15) (-8.598172e-14 -1.359128e-11 1.342913e-11))
2756.641897   	((-1.575728e-07 8.834858e-11 9.550010e-11) (-2.536144e-07 7.239973e-11 7.236767e-11)) ((-4.746592e-16 1.386429e-15 1.598975e-15) (-8.696870e-14 -1.251734e-11 1.235069e-11))
3053.458878   	((-1.574390e-07 8.176992e-11 8.855393e-11) (-2.525643e-07 7.212401e-11 7.216374e-11)) ((-4.196192e-16 1.448259e-15 1.539068e-15) (-8.833585e-14 -1.155164e-11 1.138622e-11))
3350.441687   	((-1.573258e-07 7.556315e-11 8.187656e-11) (-2.517186e-07 7.139956e-11 7.155389e-11)) ((-3.779392e-16 1.515392e-15 1.474638e-15) (-8.909127e-14 -1.069079e-11 1.053044e-11))
3647.561592   	((-1.572325e-07 7.008130e-11 7.561120e-11) (-2.510378e-07 7.037321e-11 7.059005e-11)) ((-3.579652e-16 1.580015e-15 1.416956e-15) (-8.945923e-14 -9.932487e-12 9.777626e-12))
3944.794243   	((-1.571548e-07 6.515410e-11 7.011170e-11) (-2.504889e-07 6.913105e-11 6.937510e-11)) ((-3.371600e-16 1.641224e-15 1.366859e-15) (-8.942837e-14 -9.270574e-12 9.118475e-12))
4242.119472   	((-1.570907e-07 6.066377e-11 6.511351e-11) (-2.500462e-07 6.775151e-11 6.800947e-11)) ((-3.177775e-16 1.696470e-15 1.326320e-15) (-8.922667e-14 -8.695266e-12 8.545106e-12))
4539.520476   	((-1.570376e-07 5.655960e-11 6.057838e-11) (-2.496885e-07 6.630688e-11 6.655585e-11)) ((-3.021758e-16 1.750489e-15 1.291938e-15) (-8.891042e-14 -8.198494e-12 8.048784e-12))
4836.983462   	((-1.569939e-07 5.289718e-11 5.670302e-11) (-2.493994e-07 6.484558e-11 6.507617e-11)) ((-2.882931e-16 1.797946e-15 1.261857e-15) (-8.853091e-14 -7.771411e-12 7.621638e-12))
5134.497074   	((-1.569582e-07 4.970776e-11 5.328897e-11) (-2.491654e-07 6.340625e-11 6.360827e-11)) ((-2.754585e-16 1.836735e-15 1.237081e-15) (-8.799866e-14 -7.406130e-12 7.255720e-12))
5432.052028   	((-1.569287e-07 4.695114e-11 5.039122e-11) (-2.489758e-07 6.201972e-11 6.219668e-11)) ((-2.642204e-16 1.870004e-15 1.216778e-15) (-8.757164e-14 -7.094649e-12 6.943764e-12))
5729.640726   	((-1.569043e-07 4.457290e-11 4.794823e-11) (-2.488221e-07 6.071783e-11 6.086720e-11)) ((-2.562099e-16 1.897880e-15 1.200831e-15) (-8.728566e-14 -6.830278e-12 6.678409e-12))
6027.256965   	((-1.568842e-07 4.256405e-11 4.595560e-11) (-2.486973e-07 5.952146e-11 5.964462e-11)) ((-2.505075e-16 1.921193e-15 1.188380e-15) (-8.706263e-14 -6.606431e-12 6.453511e-12))
6324.895672   	((-1.568678e-07 4.086140e-11 4.421106e-11) (-2.485959e-07 5.843480e-11 5.853896e-11)) ((-2.458456e-16 1.942506e-15 1.177661e-15) (-8.688582e-14 -6.417340e-12 6.263926e-12))
6622.552715   	((-1.568542e-07 3.942875e-11 4.265830e-11) (-2.485135e-07 5.746058e-11 5.754766e-11)) ((-2.415275e-16 1.959828e-15 1.168438e-15) (-8.673066e-14 -6.258270e-12 6.104574e-12))
6920.224725   	((-1.568432e-07 3.822812e-11 4.140119e-11) (-2.484465e-07 5.659545e-11 5.666834e-11)) ((-2.378282e-16 1.974611e-15 1.160961e-15) (-8.658858e-14 -6.125030e-12 5.971185e-12))
7217.908952   	((-1.568340e-07 3.721547e-11 4.030542e-11) (-2.483919e-07 5.583605e-11 5.589552e-11)) ((-2.351103e-16 1.986690e-15 1.155073e-15) (-8.643152e-14 -6.013684e-12 5.859752e-12))
7515.603154   	((-1.568264e-07 3.639696e-11 3.952553e-11) (-2.483474e-07 5.517621e-11 5.522758e-11)) ((-2.326820e-16 1.996569e-15 1.150343e-15) (-8.627812e-14 -5.920824e-12 5.766892e-12))
7813.305507   	((-1.568203e-07 3.573279e-11 3.880573e-11) (-2.483111e-07 5.460624e-11 5.465213e-11)) ((-2.308086e-16 2.005544e-15 1.146274e-15) (-8.614521e-14 -5.843561e-12 5.689739e-12))
8111.014516   	((-1.568152e-07 3.519709e-11 3.829601e-11) (-2.482815e-07 5.411833e-11 5.416166e-11)) ((-2.292851e-16 2.012882e-15 1.143032e-15) (-8.603938e-14 -5.779425e-12 5.625790e-12))
8408.728964   	((-1.568110e-07 3.474419e-11 3.781441e-11) (-2.482574e-07 5.370273e-11 5.374101e-11)) ((-2.280704e-16 2.019046e-15 1.140237e-15) (-8.594784e-14 -5.726303e-12 5.572884e-12))
8706.447858   	((-1.568076e-07 3.437416e-11 3.742547e-11) (-2.482377e-07 5.335134e-11 5.338477e-11)) ((-2.270391e-16 2.024114e-15 1.137891e-15) (-8.587408e-14 -5.682410e-12 5.529205e-12))
9004.170387   	((-1.568047e-07 3.406909e-11 3.711641e-11) (-2.482215e-07 5.305660e-11 5.308527e-11)) ((-2.261942e-16 2.028458e-15 1.135988e-15) (-8.581052e-14 -5.646222e-12 5.493182e-12))
9301.895889   	((-1.568023e-07 3.381990e-11 3.682732e-11) (-2.482084e-07 5.281062e-11 5.283436e-11)) ((-2.255177e-16 2.032346e-15 1.134510e-15) (-8.576267e-14 -5.616411e-12 5.463513e-12))
9599.623826   	((-1.568004e-07 3.361467e-11 3.657484e-11) (-2.481976e-07 5.260590e-11 5.262521e-11)) ((-2.249515e-16 2.035364e-15 1.133295e-15) (-8.572220e-14 -5.591907e-12 5.439120e-12))
9897.353758   	((-1.567988e-07 3.344250e-11 3.636352e-11) (-2.481888e-07 5.243691e-11 5.245209e-11)) ((-2.245248e-16 2.037916e-15 1.132287e-15) (-8.568813e-14 -5.571782e-12 5.419088e-12))
10195.085323  	((-1.567975e-07 3.330477e-11 3.620687e-11) (-2.481816e-07 5.229772e-11 5.230982e-11)) ((-2.241565e-16 2.039836e-15 1.131323e-15) (-8.565999e-14 -5.555258e-12 5.402648e-12))
10492.818225  	((-1.567965e-07 3.319764e-11 3.608018e-11) (-2.481757e-07 5.218390e-11 5.219293e-11)) ((-2.238584e-16 2.041587e-15 1.130655e-15) (-8.563723e-14 -5.541689e-12 5.389163e-12))
10790.552225  	((-1.567957e-07 3.310679e-11 3.597184e-11) (-2.481708e-07 5.209082e-11 5.209776e-11)) ((-2.236177e-16 2.042930e-15 1.130052e-15) (-8.561811e-14 -5.530569e-12 5.378106e-12))
11088.287124  	((-1.567950e-07 3.303749e-11 3.592060e-11) (-2.481669e-07 5.201516e-11 5.202023e-11)) ((-2.234304e-16 2.044047e-15 1.129547e-15) (-8.560242e-14 -5.521454e-12 5.369046e-12))
11386.022756  	((-1.567945e-07 3.298052e-11 3.587304e-11) (-2.481636e-07 5.195365e-11 5.195692e-11)) ((-2.232752e-16 2.045018e-15 1.129146e-15) (-8.558944e-14 -5.513982e-12 5.361621e-12))
