# Forces      
# CofR        : (0.000000e+00 0.000000e+00 0.000000e+00)
# Time        forces(pressure viscous)	moments(pressure viscous)
0             	((0.000000e+00 0.000000e+00 0.000000e+00) (9.448348e-14 -2.016868e-03 -1.284399e-13)) ((0.000000e+00 0.000000e+00 0.000000e+00) (6.802985e-15 -9.227097e-16 7.352406e-10))
0.012         	((-1.091489e-06 -5.850700e-01 -9.609952e-07) (1.500538e-09 -2.307225e-03 -6.718259e-10)) ((-1.148858e-10 -4.662330e-12 1.088800e-07) (-1.645900e-11 -3.151271e-13 1.150599e-09))
0.0264        	((-7.034383e-06 6.562746e-02 -5.221566e-06) (-4.043352e-09 -2.329616e-03 -6.055139e-09)) ((-4.562556e-10 -7.172038e-11 -5.904513e-09) (-4.231873e-11 8.673850e-12 8.732999e-10))
0.04368       	((6.998510e-06 1.088585e-01 1.162994e-05) (-2.883363e-10 -2.045660e-03 5.661966e-10)) ((5.543075e-10 5.381736e-11 -3.284559e-08) (2.072282e-11 1.893838e-11 2.826066e-11))
0.064416      	((-1.365848e-06 7.391437e-04 -3.442152e-06) (-4.499897e-08 -1.802163e-03 -1.868578e-09)) ((-1.235687e-10 -2.915558e-11 4.743413e-09) (1.733691e-12 3.702040e-13 5.279068e-10))
0.0892992     	((1.751608e-06 2.834798e-04 -2.818407e-06) (-5.485874e-08 -1.658394e-03 -1.939571e-08)) ((-3.990672e-11 4.336164e-11 2.182421e-10) (-2.002321e-10 -1.586114e-11 5.970797e-10))
0.119159      	((1.499775e-06 1.702417e-03 2.635631e-07) (-5.022272e-08 -1.533747e-03 -2.597351e-08)) ((-4.961915e-11 1.013804e-11 -6.940632e-10) (-3.022028e-10 -2.487971e-11 2.741871e-10))
0.154991      	((-1.329314e-06 3.970677e-04 -1.659719e-07) (-1.075217e-07 -1.409337e-03 -2.184296e-08)) ((-9.107432e-12 4.577592e-12 1.240886e-10) (-3.047545e-10 -2.148066e-11 -1.132355e-10))
0.197989      	((-5.537231e-07 -7.186426e-05 -3.048679e-07) (-1.712275e-07 -1.292665e-03 -1.616499e-08)) ((-7.665345e-12 1.841962e-11 3.907585e-11) (-2.995763e-10 -3.061090e-12 -9.685830e-10))
0.249587      	((-8.810035e-07 -2.429554e-04 -1.348591e-07) (-2.063814e-07 -1.187532e-03 -1.193598e-08)) ((5.828828e-12 7.995746e-12 1.161331e-10) (-2.374426e-10 -5.973445e-12 -1.901590e-09))
0.311504      	((-3.461230e-07 -3.481403e-04 -1.027421e-07) (-2.052396e-07 -1.095076e-03 -1.004814e-08)) ((1.839788e-12 7.693815e-12 9.802278e-11) (-1.733863e-10 -1.384688e-11 -2.318553e-09))
0.385805      	((-4.465700e-07 -4.056514e-04 -6.263326e-08) (-1.926186e-07 -1.013794e-03 -1.091274e-08)) ((6.045265e-12 -2.312989e-12 6.735133e-11) (-1.295027e-10 -1.699325e-11 -2.427634e-09))
0.474966      	((-3.033095e-07 -4.350829e-04 -3.944695e-08) (-1.786622e-07 -9.407751e-04 -1.031947e-08)) ((3.693545e-12 -2.037855e-12 1.171097e-10) (-8.081733e-11 -2.334905e-11 -2.781785e-09))
0.581959      	((-2.211811e-07 -4.462203e-04 1.130523e-10) (-1.533944e-07 -8.718742e-04 -8.900620e-09)) ((2.332580e-12 -2.943593e-12 1.392534e-10) (-3.585923e-11 -2.876179e-11 -3.668836e-09))
0.710351      	((-1.423011e-07 -4.467992e-04 -2.975549e-08) (-1.245866e-07 -8.047992e-04 -7.352151e-09)) ((-1.520664e-12 -2.606146e-12 1.940989e-10) (2.089835e-11 -2.981247e-11 -4.748005e-09))
0.864421      	((-1.313577e-07 -4.440201e-04 2.003581e-09) (-9.933018e-08 -7.402491e-04 -5.359637e-09)) ((-2.835369e-12 -1.107019e-12 2.525132e-10) (6.411332e-11 -2.467789e-11 -5.541890e-09))
1.049306      	((-2.493814e-08 -4.437172e-04 5.546618e-09) (-8.260516e-08 -6.796055e-04 -4.270515e-09)) ((-1.931543e-12 -4.713083e-13 3.118809e-10) (1.026072e-10 -1.849742e-11 -5.954522e-09))
1.271167      	((-1.585848e-08 -4.504707e-04 -2.299299e-08) (-7.353304e-08 -6.238238e-04 -4.294577e-09)) ((-3.884891e-12 -6.821136e-13 3.896993e-10) (1.406932e-10 -8.185159e-12 -6.110599e-09))
1.5374        	((-4.660003e-08 -4.664673e-04 -9.143715e-08) (-5.602850e-08 -5.734816e-04 -5.188127e-09)) ((-6.489805e-12 -1.239767e-12 4.809804e-10) (1.930089e-10 7.811968e-12 -6.154090e-09))
1.85688       	((-1.662746e-08 -4.933729e-04 -9.528244e-08) (-2.953361e-08 -5.288484e-04 -7.329298e-09)) ((-8.265140e-12 -1.575154e-12 5.920084e-10) (2.451051e-10 1.771289e-11 -5.927318e-09))
2.240256      	((-3.028339e-08 -5.339104e-04 -1.700551e-07) (-3.643207e-09 -4.900524e-04 -9.791441e-09)) ((-1.007281e-11 -1.760940e-12 7.286168e-10) (3.219351e-10 2.200562e-11 -5.797421e-09))
2.700307      	((4.653113e-09 -5.898451e-04 -1.339439e-07) (1.938816e-08 -4.569676e-04 -1.090514e-08)) ((-8.460943e-12 -1.196518e-12 8.812675e-10) (3.462642e-10 2.056816e-11 -6.685784e-09))
3.239532      	((1.801920e-07 -6.614191e-04 -6.843663e-08) (2.062609e-08 -4.296958e-04 -1.136801e-08)) ((-6.873665e-12 -6.817878e-13 1.082854e-09) (3.116062e-10 1.902904e-11 -8.688127e-09))
3.85733       	((2.620914e-07 -7.471804e-04 -1.440463e-08) (1.836789e-08 -4.075750e-04 -1.252614e-08)) ((-5.234366e-12 -5.668021e-13 1.332028e-09) (3.014847e-10 2.567676e-11 -1.080878e-08))
4.553062      	((4.845967e-07 -8.454189e-04 6.206161e-08) (2.344468e-08 -3.896734e-04 -1.276637e-08)) ((-2.661885e-12 -1.602212e-12 1.624920e-09) (3.409208e-10 3.005372e-11 -1.294946e-08))
5.324408      	((5.846230e-07 -9.553584e-04 1.015385e-07) (2.408290e-08 -3.752883e-04 -1.468940e-08)) ((5.086206e-13 -5.532027e-12 1.935539e-09) (5.183531e-10 2.739418e-11 -1.470715e-08))
6.086174      	((8.147611e-07 -1.065985e-03 2.594671e-07) (2.455021e-08 -3.649695e-04 -1.648329e-08)) ((2.247662e-12 -7.592683e-12 2.165042e-09) (7.821900e-10 2.050843e-11 -1.615219e-08))
6.838027      	((9.635058e-07 -1.167092e-03 4.219745e-07) (2.785292e-08 -3.572975e-04 -1.449671e-08)) ((-1.690391e-12 -1.235816e-11 2.367075e-09) (1.081098e-09 3.611898e-11 -1.622222e-08))
7.581258      	((1.214219e-06 -1.255794e-03 6.343777e-07) (4.501761e-08 -3.514595e-04 -5.397401e-09)) ((-5.049262e-12 -1.527493e-11 2.616201e-09) (1.137398e-09 3.555522e-11 -1.514156e-08))
8.319147      	((1.466767e-06 -1.324647e-03 8.874821e-07) (5.768891e-08 -3.466286e-04 1.323408e-08)) ((-4.218824e-12 -1.809786e-11 2.848087e-09) (7.877729e-10 1.708990e-11 -1.395672e-08))
9.055434      	((1.731510e-06 -1.374930e-03 1.102341e-06) (6.807981e-08 -3.426368e-04 3.387819e-08)) ((-5.212280e-12 -1.744404e-11 3.076024e-09) (4.448175e-10 1.769695e-11 -1.252766e-08))
9.792302      	((2.008360e-06 -1.401927e-03 1.371884e-06) (9.245468e-08 -3.390083e-04 5.324620e-08)) ((-3.661224e-12 -2.048168e-11 3.253627e-09) (2.082066e-10 3.509541e-11 -1.134956e-08))
10.52992      	((2.274364e-06 -1.405442e-03 1.575206e-06) (1.182841e-07 -3.355094e-04 6.777454e-08)) ((-1.965554e-13 -1.789683e-11 3.388456e-09) (3.226555e-10 4.699746e-11 -1.080883e-08))
11.267413     	((2.437924e-06 -1.391833e-03 1.712699e-06) (1.352748e-07 -3.321088e-04 7.843777e-08)) ((3.458325e-12 -1.825937e-11 3.462459e-09) (5.981327e-10 3.721166e-11 -1.083847e-08))
12.003922     	((2.780937e-06 -1.372314e-03 1.992387e-06) (1.528380e-07 -3.289693e-04 9.240456e-08)) ((8.317232e-12 -1.350004e-11 3.452108e-09) (9.137616e-10 1.086548e-11 -1.086485e-08))
12.739437     	((2.941974e-06 -1.346591e-03 2.148241e-06) (1.716377e-07 -3.262004e-04 1.092027e-07)) ((7.297092e-12 -1.013417e-11 3.382552e-09) (1.164030e-09 1.072928e-11 -1.059910e-08))
13.474459     	((3.201296e-06 -1.324497e-03 2.268434e-06) (1.952914e-07 -3.235988e-04 1.262407e-07)) ((4.080386e-12 -1.228384e-11 3.298557e-09) (1.249160e-09 3.348623e-12 -1.023244e-08))
14.209296     	((3.548865e-06 -1.308955e-03 2.581485e-06) (2.276245e-07 -3.211373e-04 1.431293e-07)) ((4.079620e-12 -1.377935e-11 3.257922e-09) (1.254139e-09 3.614382e-11 -9.618388e-09))
14.943959     	((3.868034e-06 -1.302929e-03 2.700023e-06) (2.655636e-07 -3.189931e-04 1.611789e-07)) ((2.122602e-12 -1.618510e-11 3.245316e-09) (1.220593e-09 1.571545e-11 -8.686159e-09))
15.67834      	((4.202217e-06 -1.299755e-03 2.792993e-06) (2.889450e-07 -3.171489e-04 1.742991e-07)) ((3.636093e-12 -2.032786e-11 3.241453e-09) (1.213757e-09 2.916937e-11 -8.166892e-09))
16.412505     	((4.765043e-06 -1.294691e-03 3.083783e-06) (3.023171e-07 -3.154263e-04 1.858204e-07)) ((8.289345e-12 -2.235074e-11 3.240813e-09) (1.330091e-09 9.824484e-11 -8.269965e-09))
17.14659      	((5.317061e-06 -1.285456e-03 3.355892e-06) (3.165155e-07 -3.136843e-04 1.958701e-07)) ((1.254872e-11 -2.198927e-11 3.240950e-09) (1.805331e-09 1.408917e-10 -8.871693e-09))
17.880686     	((6.152378e-06 -1.276370e-03 3.805685e-06) (3.345902e-07 -3.119255e-04 2.062564e-07)) ((1.687996e-11 -2.043638e-11 3.237036e-09) (2.548143e-09 1.658119e-10 -9.790482e-09))
18.614605     	((7.040362e-06 -1.267683e-03 4.177956e-06) (3.615781e-07 -3.102013e-04 2.208354e-07)) ((1.534787e-11 -1.644010e-11 3.231829e-09) (3.312711e-09 1.562492e-10 -1.081831e-08))
19.348479     	((8.027590e-06 -1.259657e-03 4.742086e-06) (3.971116e-07 -3.085295e-04 2.424069e-07)) ((1.617237e-11 -1.356245e-11 3.224299e-09) (4.037118e-09 1.358001e-10 -1.203619e-08))
20.082488     	((9.226571e-06 -1.252223e-03 5.184382e-06) (4.432797e-07 -3.069129e-04 2.666955e-07)) ((2.017503e-11 -1.090557e-11 3.215374e-09) (4.794567e-09 1.176588e-10 -1.342314e-08))
20.816673     	((1.041153e-05 -1.245104e-03 5.766418e-06) (5.001883e-07 -3.053499e-04 2.925832e-07)) ((2.606415e-11 -8.235255e-12 3.204552e-09) (5.631135e-09 8.957951e-11 -1.484106e-08))
21.551037     	((1.158138e-05 -1.238772e-03 6.321946e-06) (5.633917e-07 -3.038560e-04 3.216382e-07)) ((2.915192e-11 -3.497647e-12 3.193867e-09) (6.474280e-09 6.956433e-11 -1.624485e-08))
22.285575     	((1.272312e-05 -1.233055e-03 6.809130e-06) (6.327312e-07 -3.024496e-04 3.516338e-07)) ((3.046541e-11 1.241358e-12 3.182556e-09) (7.330613e-09 7.013271e-11 -1.746361e-08))
23.020305     	((1.398077e-05 -1.227961e-03 7.386525e-06) (7.091436e-07 -3.011375e-04 3.831227e-07)) ((3.395027e-11 7.770394e-12 3.173739e-09) (8.273625e-09 9.313374e-11 -1.844594e-08))
23.755263     	((1.533363e-05 -1.223777e-03 8.041885e-06) (7.932854e-07 -2.999229e-04 4.179601e-07)) ((3.668062e-11 1.533766e-11 3.168042e-09) (9.275830e-09 9.241473e-11 -1.935827e-08))
24.490483     	((1.671567e-05 -1.219971e-03 8.643733e-06) (8.833273e-07 -2.987923e-04 4.554541e-07)) ((4.000204e-11 2.191720e-11 3.164763e-09) (1.014714e-08 8.032102e-11 -2.027300e-08))
25.225992     	((1.810822e-05 -1.216284e-03 9.290846e-06) (9.765377e-07 -2.977306e-04 4.940048e-07)) ((4.104448e-11 2.516192e-11 3.165285e-09) (1.098509e-08 3.510829e-11 -2.122773e-08))
25.961764     	((1.999464e-05 -1.212599e-03 1.003650e-05) (1.080119e-06 -2.967310e-04 5.330345e-07)) ((4.476001e-11 2.576686e-11 3.165498e-09) (1.190116e-08 -4.116135e-11 -2.233736e-08))
26.697532     	((2.187730e-05 -1.207209e-03 1.094239e-05) (1.195588e-06 -2.957502e-04 5.778920e-07)) ((5.154747e-11 2.526851e-11 3.162083e-09) (1.285349e-08 -1.083917e-10 -2.358528e-08))
27.433258     	((2.374595e-05 -1.202742e-03 1.192944e-05) (1.317375e-06 -2.947925e-04 6.290967e-07)) ((5.679000e-11 2.388064e-11 3.160818e-09) (1.382943e-08 -1.748459e-10 -2.494302e-08))
28.169055     	((2.567031e-05 -1.198237e-03 1.275092e-05) (1.443210e-06 -2.938630e-04 6.826705e-07)) ((5.766650e-11 2.274030e-11 3.158021e-09) (1.476598e-08 -2.234615e-10 -2.646653e-08))
28.904994     	((2.775217e-05 -1.193379e-03 1.382981e-05) (1.574869e-06 -2.929399e-04 7.445150e-07)) ((6.298098e-11 2.163237e-11 3.155436e-09) (1.559613e-08 -2.305388e-10 -2.806685e-08))
29.641202     	((3.007860e-05 -1.188968e-03 1.489269e-05) (1.719248e-06 -2.920274e-04 8.141738e-07)) ((6.800511e-11 1.884448e-11 3.153172e-09) (1.645375e-08 -1.998269e-10 -2.964952e-08))
30.377795     	((3.248252e-05 -1.185442e-03 1.609310e-05) (1.877444e-06 -2.911483e-04 8.891982e-07)) ((7.408526e-11 1.795368e-11 3.151310e-09) (1.731554e-08 -1.724199e-10 -3.120373e-08))
31.114716     	((3.492039e-05 -1.182237e-03 1.731930e-05) (2.043913e-06 -2.903131e-04 9.691051e-07)) ((8.201973e-11 1.760010e-11 3.149287e-09) (1.814381e-08 -1.680536e-10 -3.277468e-08))
31.851897     	((3.770550e-05 -1.179097e-03 1.868323e-05) (2.220565e-06 -2.895220e-04 1.054613e-06)) ((9.077321e-11 1.652381e-11 3.146886e-09) (1.897605e-08 -1.588523e-10 -3.444087e-08))
32.589339     	((4.118959e-05 -1.175540e-03 2.028432e-05) (2.419678e-06 -2.887635e-04 1.150861e-06)) ((1.019437e-10 1.665860e-11 3.142538e-09) (1.980273e-08 -1.448602e-10 -3.628911e-08))
33.32704      	((4.509693e-05 -1.172002e-03 2.196864e-05) (2.649134e-06 -2.880288e-04 1.259087e-06)) ((1.120811e-10 1.901217e-11 3.137635e-09) (2.060128e-08 -1.305015e-10 -3.826341e-08))
34.065001     	((4.930824e-05 -1.168546e-03 2.387954e-05) (2.909331e-06 -2.873108e-04 1.380429e-06)) ((1.251231e-10 2.282377e-11 3.133191e-09) (2.143766e-08 -1.143440e-10 -4.026944e-08))
34.803212     	((5.397619e-05 -1.165157e-03 2.602220e-05) (3.199080e-06 -2.866024e-04 1.515402e-06)) ((1.412378e-10 2.574639e-11 3.127160e-09) (2.242485e-08 -1.131145e-10 -4.247763e-08))
35.541667     	((5.929608e-05 -1.161788e-03 2.831421e-05) (3.517951e-06 -2.859058e-04 1.661109e-06)) ((1.589653e-10 2.823646e-11 3.119572e-09) (2.366481e-08 -1.092943e-10 -4.523669e-08))
36.28038      	((6.502783e-05 -1.158238e-03 3.084029e-05) (3.863843e-06 -2.852231e-04 1.816601e-06)) ((1.767368e-10 3.078324e-11 3.111143e-09) (2.518972e-08 -1.010996e-10 -4.874868e-08))
37.019349     	((7.109705e-05 -1.154891e-03 3.355664e-05) (4.236597e-06 -2.845599e-04 1.983528e-06)) ((1.940047e-10 3.307310e-11 3.103213e-09) (2.698586e-08 -9.836019e-11 -5.295126e-08))
37.758561     	((7.748947e-05 -1.152159e-03 3.666322e-05) (4.637519e-06 -2.839269e-04 2.168794e-06)) ((2.102849e-10 3.390916e-11 3.096691e-09) (2.899039e-08 -9.682810e-11 -5.767134e-08))
38.497998     	((8.447391e-05 -1.149689e-03 3.975379e-05) (5.070796e-06 -2.833205e-04 2.370924e-06)) ((2.246075e-10 3.298160e-11 3.089003e-09) (3.121715e-08 -6.078433e-11 -6.290471e-08))
39.237641     	((9.173052e-05 -1.147682e-03 4.308561e-05) (5.535859e-06 -2.827402e-04 2.586096e-06)) ((2.387011e-10 3.009890e-11 3.081222e-09) (3.373813e-08 2.216504e-12 -6.862294e-08))
39.977467     	((9.960403e-05 -1.145942e-03 4.664163e-05) (6.036766e-06 -2.821882e-04 2.815898e-06)) ((2.564284e-10 2.518567e-11 3.072455e-09) (3.653144e-08 4.761803e-11 -7.469641e-08))
40.717454     	((1.082397e-04 -1.144080e-03 5.046968e-05) (6.583720e-06 -2.816573e-04 3.063197e-06)) ((2.777274e-10 1.980484e-11 3.063762e-09) (3.948476e-08 5.877787e-11 -8.104236e-08))
41.457583     	((1.175194e-04 -1.142087e-03 5.479524e-05) (7.180356e-06 -2.811403e-04 3.334884e-06)) ((3.050675e-10 1.152711e-11 3.054426e-09) (4.251801e-08 2.706038e-11 -8.765712e-08))
42.197833     	((1.275938e-04 -1.140134e-03 5.939414e-05) (7.831251e-06 -2.806365e-04 3.632825e-06)) ((3.334322e-10 1.044583e-12 3.045556e-09) (4.560884e-08 -1.886197e-11 -9.452251e-08))
42.938064     	((1.384241e-04 -1.138529e-03 6.436294e-05) (8.539079e-06 -2.801525e-04 3.957342e-06)) ((3.614828e-10 -1.299270e-11 3.036867e-09) (4.881650e-08 -6.621092e-11 -1.016596e-07))
43.678225     	((1.501571e-04 -1.137268e-03 6.976030e-05) (9.304042e-06 -2.796944e-04 4.310916e-06)) ((3.892168e-10 -2.971952e-11 3.028348e-09) (5.218359e-08 -9.126763e-11 -1.092760e-07))
44.41828      	((1.628753e-04 -1.136265e-03 7.569182e-05) (1.013083e-05 -2.792631e-04 4.696661e-06)) ((4.192311e-10 -4.955964e-11 3.019187e-09) (5.576354e-08 -4.598520e-11 -1.174598e-07))
45.158184     	((1.766494e-04 -1.135713e-03 8.204871e-05) (1.102813e-05 -2.788607e-04 5.115693e-06)) ((4.510019e-10 -7.214091e-11 3.010215e-09) (5.958592e-08 9.300886e-11 -1.262476e-07))
45.897895     	((1.916175e-04 -1.135513e-03 8.891248e-05) (1.200399e-05 -2.784935e-04 5.569894e-06)) ((4.852238e-10 -9.611661e-11 2.999708e-09) (6.365765e-08 3.508769e-10 -1.355215e-07))
46.637365     	((2.078022e-04 -1.135549e-03 9.645888e-05) (1.306727e-05 -2.781697e-04 6.064226e-06)) ((5.239514e-10 -1.207076e-10 2.985880e-09) (6.794907e-08 6.527276e-10 -1.449731e-07))
47.376543     	((2.254394e-04 -1.136040e-03 1.046930e-04) (1.423087e-05 -2.778975e-04 6.602952e-06)) ((5.668956e-10 -1.459336e-10 2.969298e-09) (7.239733e-08 8.917091e-10 -1.543077e-07))
48.115375     	((2.447656e-04 -1.136931e-03 1.137480e-04) (1.550961e-05 -2.776833e-04 7.193214e-06)) ((6.158692e-10 -1.731816e-10 2.951041e-09) (7.695508e-08 1.040056e-09 -1.634784e-07))
48.853802     	((2.658371e-04 -1.138364e-03 1.235825e-04) (1.691398e-05 -2.775251e-04 7.839714e-06)) ((6.703028e-10 -2.020098e-10 2.931822e-09) (8.179266e-08 1.061963e-09 -1.727886e-07))
49.591763     	((2.887669e-04 -1.140436e-03 1.342764e-04) (1.845250e-05 -2.774184e-04 8.548103e-06)) ((7.307872e-10 -2.294433e-10 2.910854e-09) (8.696109e-08 1.008940e-09 -1.827274e-07))
50.329195     	((3.137136e-04 -1.143473e-03 1.458521e-04) (2.013217e-05 -2.773602e-04 9.318149e-06)) ((7.952834e-10 -2.558091e-10 2.886642e-09) (9.276596e-08 9.238843e-10 -1.937152e-07))
51.066027     	((3.411228e-04 -1.147381e-03 1.586045e-04) (2.196659e-05 -2.773542e-04 1.015542e-05)) ((8.650706e-10 -2.874397e-10 2.861438e-09) (9.926708e-08 7.310378e-10 -2.060946e-07))
51.802188     	((3.711080e-04 -1.152393e-03 1.724298e-04) (2.396972e-05 -2.774124e-04 1.107006e-05)) ((9.375337e-10 -3.282640e-10 2.835257e-09) (1.062464e-07 4.420105e-10 -2.199665e-07))
52.53764      	((4.034134e-04 -1.159095e-03 1.873045e-04) (2.614106e-05 -2.775539e-04 1.206624e-05)) ((1.013317e-09 -3.800608e-10 2.807688e-09) (1.139101e-07 2.532918e-10 -2.356923e-07))
53.272359     	((4.382476e-04 -1.167333e-03 2.032163e-04) (2.848425e-05 -2.777967e-04 1.314565e-05)) ((1.091992e-09 -4.428342e-10 2.777681e-09) (1.223618e-07 2.519346e-10 -2.534218e-07))
54.00628      	((4.756312e-04 -1.177181e-03 2.203599e-04) (3.101034e-05 -2.781623e-04 1.431117e-05)) ((1.175385e-09 -5.177953e-10 2.738160e-09) (1.316467e-07 3.462015e-10 -2.728685e-07))
54.739348     	((5.153675e-04 -1.189272e-03 2.385447e-04) (3.373107e-05 -2.786765e-04 1.556584e-05)) ((1.262499e-09 -6.028812e-10 2.691823e-09) (1.416513e-07 4.978384e-10 -2.934094e-07))
55.471558     	((5.576211e-04 -1.203743e-03 2.579557e-04) (3.667168e-05 -2.793724e-04 1.691427e-05)) ((1.354209e-09 -6.978297e-10 2.640313e-09) (1.518596e-07 5.543070e-10 -3.140907e-07))
56.202934     	((6.023128e-04 -1.220562e-03 2.787127e-04) (3.983544e-05 -2.802539e-04 1.836423e-05)) ((1.450410e-09 -8.182959e-10 2.585604e-09) (1.623275e-07 3.277746e-10 -3.354245e-07))
56.933524     	((6.493135e-04 -1.240022e-03 3.004578e-04) (4.320123e-05 -2.813180e-04 1.991570e-05)) ((1.545264e-09 -9.611981e-10 2.529689e-09) (1.735101e-07 1.469271e-10 -3.588976e-07))
57.663195     	((6.984800e-04 -1.262302e-03 3.233110e-04) (4.676981e-05 -2.825793e-04 2.156814e-05)) ((1.631785e-09 -1.119389e-09 2.476490e-09) (1.853829e-07 1.199871e-10 -3.843147e-07))
58.391442     	((7.498803e-04 -1.287748e-03 3.470138e-04) (5.055799e-05 -2.840682e-04 2.332056e-05)) ((1.705890e-09 -1.295720e-09 2.422766e-09) (1.977895e-07 1.031922e-10 -4.105760e-07))
59.11812      	((8.023636e-04 -1.316533e-03 3.714889e-04) (5.455690e-05 -2.858118e-04 2.517549e-05)) ((1.766107e-09 -1.493178e-09 2.366154e-09) (2.103662e-07 1.301265e-10 -4.367060e-07))
59.843264     	((8.556258e-04 -1.349034e-03 3.963297e-04) (5.874394e-05 -2.878374e-04 2.712801e-05)) ((1.816952e-09 -1.706004e-09 2.306557e-09) (2.223123e-07 3.696116e-10 -4.619914e-07))
60.56689      	((9.087618e-04 -1.385230e-03 4.213075e-04) (6.309105e-05 -2.901649e-04 2.916236e-05)) ((1.853241e-09 -1.930193e-09 2.250971e-09) (2.334299e-07 6.313164e-10 -4.866488e-07))
61.288995     	((9.613799e-04 -1.424572e-03 4.461970e-04) (6.755197e-05 -2.928028e-04 3.126231e-05)) ((1.875802e-09 -2.162860e-09 2.204402e-09) (2.440291e-07 1.059296e-09 -5.111339e-07))
62.009111     	((1.012577e-03 -1.467697e-03 4.704855e-04) (7.207734e-05 -2.957606e-04 3.340252e-05)) ((1.882750e-09 -2.398418e-09 2.171053e-09) (2.544562e-07 1.854639e-09 -5.346405e-07))
62.727129     	((1.061590e-03 -1.513666e-03 4.932970e-04) (7.662968e-05 -2.990505e-04 3.554436e-05)) ((1.869760e-09 -2.633151e-09 2.145289e-09) (2.643472e-07 2.726209e-09 -5.563564e-07))
63.443113     	((1.106207e-03 -1.561729e-03 5.138548e-04) (8.114561e-05 -3.026698e-04 3.766114e-05)) ((1.833391e-09 -2.861576e-09 2.121981e-09) (2.724292e-07 3.776716e-09 -5.749293e-07))
64.157288     	((1.143985e-03 -1.611100e-03 5.314154e-04) (8.553314e-05 -3.065870e-04 3.972132e-05)) ((1.791400e-09 -3.068553e-09 2.102992e-09) (2.777035e-07 5.106891e-09 -5.888212e-07))
64.869826     	((1.173199e-03 -1.659941e-03 5.451730e-04) (8.968821e-05 -3.107399e-04 4.167163e-05)) ((1.734438e-09 -3.254137e-09 2.091616e-09) (2.800989e-07 6.641815e-09 -5.966509e-07))
65.580813     	((1.191472e-03 -1.705736e-03 5.540096e-04) (9.349731e-05 -3.150260e-04 4.345829e-05)) ((1.651494e-09 -3.414057e-09 2.086441e-09) (2.791407e-07 8.290280e-09 -5.961168e-07))
66.290411     	((1.197217e-03 -1.745573e-03 5.560884e-04) (9.684985e-05 -3.192923e-04 4.500023e-05)) ((1.523665e-09 -3.525528e-09 2.086657e-09) (2.739757e-07 9.933891e-09 -5.848906e-07))
66.998744     	((1.187637e-03 -1.777983e-03 5.507507e-04) (9.959744e-05 -3.234393e-04 4.621843e-05)) ((1.367348e-09 -3.585950e-09 2.090866e-09) (2.632451e-07 1.185982e-08 -5.606161e-07))
67.705948     	((1.161140e-03 -1.799787e-03 5.377731e-04) (1.015285e-04 -3.273721e-04 4.704141e-05)) ((1.196897e-09 -3.579633e-09 2.087062e-09) (2.464691e-07 1.468617e-08 -5.230522e-07))
68.412219     	((1.115379e-03 -1.807579e-03 5.147377e-04) (1.023972e-04 -3.308754e-04 4.733847e-05)) ((1.008657e-09 -3.487926e-09 2.069541e-09) (2.252406e-07 1.808400e-08 -4.750043e-07))
69.117779     	((1.045523e-03 -1.798931e-03 4.810700e-04) (1.019217e-04 -3.336887e-04 4.697506e-05)) ((8.496525e-10 -3.290520e-09 2.011316e-09) (2.009763e-07 2.146038e-08 -4.184149e-07))
69.82288      	((9.483830e-04 -1.771852e-03 4.353681e-04) (9.975981e-05 -3.355568e-04 4.581519e-05)) ((7.204358e-10 -2.941343e-09 1.895328e-09) (1.752690e-07 2.514372e-08 -3.562690e-07))
70.527833     	((8.220454e-04 -1.726178e-03 3.764433e-04) (9.553674e-05 -3.362459e-04 4.367872e-05)) ((5.947068e-10 -2.432867e-09 1.747247e-09) (1.511548e-07 2.910577e-08 -2.945737e-07))
71.233019     	((6.646829e-04 -1.669409e-03 3.024841e-04) (8.890289e-05 -3.357698e-04 4.039822e-05)) ((3.622663e-10 -1.766070e-09 1.661010e-09) (1.300521e-07 3.315911e-08 -2.378840e-07))
71.938852     	((4.788785e-04 -1.603797e-03 2.155568e-04) (7.974621e-05 -3.342575e-04 3.590367e-05)) ((-9.677174e-11 -1.034455e-09 1.739698e-09) (1.128346e-07 3.640745e-08 -1.860541e-07))
