# Forces      
# CofR        : (0.000000e+00 0.000000e+00 0.000000e+00)
# Time        forces(pressure viscous)	moments(pressure viscous)
0             	((0.000000e+00 0.000000e+00 0.000000e+00) (0.000000e+00 0.000000e+00 0.000000e+00)) ((0.000000e+00 0.000000e+00 0.000000e+00) (0.000000e+00 0.000000e+00 0.000000e+00))
0.012         	((5.844935e-08 -1.832975e-06 -2.907226e-09) (1.966461e-09 -4.816637e-08 1.629596e-10)) ((4.697699e-13 3.159674e-15 4.339089e-08) (-1.000851e-13 4.473310e-12 5.566950e-05))
0.0264        	((7.253047e-08 -3.172906e-07 1.429285e-09) (3.810523e-09 -6.852887e-08 3.524265e-10)) ((-1.600739e-13 4.920303e-12 2.241926e-08) (-3.048893e-12 1.275199e-11 5.102182e-05))
0.04368       	((1.368113e-07 -1.026328e-06 -1.361158e-08) (5.691246e-09 -7.239505e-08 5.764674e-10)) ((2.176516e-12 7.331124e-12 1.528191e-08) (-7.920670e-12 3.098709e-11 4.634329e-05))
0.064416      	((8.129349e-08 -1.070259e-07 4.166295e-09) (9.638768e-09 -6.504081e-08 8.379145e-10)) ((2.212755e-12 7.640132e-12 1.158229e-08) (-5.840979e-12 5.425697e-11 4.181624e-05))
0.0892992     	((1.156351e-07 -6.007251e-07 -8.498981e-09) (1.602613e-08 -5.768965e-08 1.192339e-09)) ((5.425661e-12 8.394842e-12 1.050723e-08) (4.865415e-12 7.305244e-11 3.763091e-05))
0.119159      	((-9.288910e-08 -6.450273e-10 -9.333918e-09) (2.322888e-08 -4.705950e-08 1.492792e-09)) ((6.685307e-12 7.240318e-12 9.001658e-09) (6.957489e-12 7.761257e-11 3.391847e-05))
0.154991      	((1.613455e-08 -4.185136e-07 -2.182126e-09) (2.931901e-08 -3.208004e-08 1.659468e-09)) ((6.812453e-12 6.393533e-12 8.033250e-09) (2.657467e-12 7.417825e-11 3.070854e-05))
0.197989      	((-2.602604e-08 -1.439703e-07 3.901979e-11) (3.259389e-08 -1.627082e-08 1.630316e-09)) ((5.345039e-12 4.537416e-12 7.123098e-09) (5.287464e-12 7.469488e-11 2.792846e-05))
0.249587      	((-1.210493e-07 -2.007271e-07 -8.750024e-10) (3.463706e-08 -4.481812e-09 1.942338e-09)) ((3.545799e-12 5.409452e-12 6.346450e-09) (1.380107e-11 7.902017e-11 2.539830e-05))
0.311504      	((-1.755032e-07 -1.514549e-07 5.988518e-09) (3.982131e-08 -6.214089e-09 2.653708e-09)) ((-2.504718e-12 1.896436e-12 5.617666e-09) (4.818103e-12 7.704520e-11 2.298045e-05))
0.385805      	((-6.456851e-08 -2.543240e-07 9.741504e-09) (4.011815e-08 -1.839113e-08 2.299380e-09)) ((-4.082711e-12 1.297807e-12 4.894026e-09) (-2.121172e-11 6.737687e-11 2.067391e-05))
0.474966      	((-1.129704e-07 -1.046522e-07 3.919460e-09) (3.522955e-08 -2.858202e-08 1.576806e-09)) ((-5.710153e-12 -2.461942e-12 4.226496e-09) (-3.802037e-11 5.220686e-11 1.852380e-05))
0.581959      	((3.175319e-08 -2.365044e-07 -7.172901e-09) (2.038986e-08 -3.769991e-08 1.309471e-09)) ((-6.876118e-12 -3.647591e-12 3.587992e-09) (-4.219862e-11 3.583585e-11 1.657126e-05))
0.710351      	((-3.351039e-08 -2.776952e-07 -6.873149e-09) (1.789348e-09 -4.199277e-08 2.360106e-09)) ((-1.009074e-11 -2.689449e-12 3.052811e-09) (-1.841392e-11 3.570823e-11 1.483841e-05))
0.864421      	((-4.362349e-09 -2.572069e-07 9.501097e-09) (-4.308549e-09 -2.715077e-08 4.170801e-09)) ((-9.134662e-12 -3.340844e-12 2.596043e-09) (-1.578807e-12 2.094836e-11 1.331511e-05))
1.049306      	((-2.495329e-08 -8.054343e-08 1.146233e-08) (-6.689826e-09 -1.177850e-08 3.875887e-09)) ((-1.286843e-11 -3.702345e-12 2.215911e-09) (-2.587825e-12 1.775078e-11 1.197682e-05))
1.271167      	((4.802216e-08 -5.302049e-08 9.563418e-09) (-9.865425e-11 -3.384587e-09 7.749215e-10)) ((-1.777312e-11 -3.991570e-12 1.916569e-09) (1.147831e-11 3.675200e-11 1.080676e-05))
1.5374        	((-5.125686e-08 5.603906e-08 2.641129e-08) (-3.049638e-09 -2.339679e-10 -2.264535e-09)) ((-1.470861e-11 -6.270895e-13 1.652438e-09) (-2.722859e-11 1.283446e-11 9.794935e-06))
1.85688       	((2.023105e-08 -8.299967e-08 1.327924e-08) (-9.180374e-09 6.629582e-09 -2.645190e-09)) ((-1.010298e-11 4.449649e-12 1.410830e-09) (-4.973307e-11 4.011895e-12 8.929280e-06))
2.240256      	((-1.006413e-07 -8.194273e-08 2.029419e-08) (-3.339150e-08 1.724907e-09 -1.967851e-09)) ((-1.373571e-11 4.189080e-12 1.209667e-09) (-1.002260e-10 -6.791573e-11 8.192721e-06))
2.700307      	((-7.342521e-08 -5.531376e-08 1.929863e-08) (-5.166972e-08 3.652486e-09 -2.893198e-09)) ((-1.775138e-11 3.833843e-12 1.039938e-09) (-2.767900e-10 -1.859100e-10 7.564058e-06))
3.252369      	((-7.761464e-08 3.864410e-08 2.037236e-08) (-3.010190e-08 1.705016e-08 -3.666713e-09)) ((-1.566619e-11 5.050083e-12 9.058621e-10) (-4.308200e-10 -3.599592e-10 7.021277e-06))
3.914842      	((-1.588292e-08 7.648527e-08 1.994015e-08) (1.890881e-08 1.264160e-08 -3.950524e-09)) ((-1.172831e-11 8.361811e-12 7.885671e-10) (-5.029433e-10 -5.056921e-10 6.545975e-06))
4.709811      	((-1.010335e-08 1.591100e-07 1.190269e-08) (5.594664e-08 1.429244e-08 -5.180189e-09)) ((-5.763018e-12 1.246693e-11 6.917525e-10) (-4.853769e-10 -6.283616e-10 6.125471e-06))
5.663773      	((5.544929e-08 1.178295e-07 1.439566e-09) (8.219291e-08 2.852718e-08 -5.542847e-09)) ((-5.205791e-12 1.516767e-11 6.233916e-10) (-3.940405e-10 -7.209292e-10 5.751409e-06))
6.808528      	((6.951015e-08 1.065049e-07 -1.410084e-08) (8.491075e-08 2.127510e-08 -4.902137e-09)) ((-4.567371e-12 8.239728e-12 5.771675e-10) (-2.496810e-10 -6.952074e-10 5.417095e-06))
8.168574      	((6.683522e-08 4.823704e-08 -3.004339e-08) (6.388971e-08 -1.426905e-08 -4.584720e-09)) ((-3.970929e-12 2.844635e-12 5.424038e-10) (-7.068467e-11 -6.796217e-10 5.120864e-06))
9.747901      	((2.568856e-08 1.044244e-10 -3.210827e-08) (4.146929e-08 -2.076391e-08 -7.517217e-09)) ((-2.272195e-12 -3.313820e-12 5.132104e-10) (1.168064e-10 -6.636149e-10 4.864228e-06))
11.55114      	((1.005832e-09 2.610291e-08 -2.578076e-08) (7.700630e-09 -3.655538e-09 -7.195151e-09)) ((-2.039618e-12 -3.172628e-12 4.932882e-10) (2.779666e-10 -6.125871e-10 4.648392e-06))
13.583537     	((-3.009364e-08 1.044570e-08 -2.245020e-08) (9.290708e-09 6.578468e-09 -7.472178e-09)) ((-3.123421e-13 -5.404932e-13 4.857535e-10) (3.982253e-10 -5.722739e-10 4.473188e-06))
15.851227     	((-1.965710e-09 1.769571e-08 -2.524761e-08) (3.800914e-08 -3.669446e-09 -9.461334e-09)) ((-1.835792e-12 1.938393e-12 4.759135e-10) (5.610929e-10 -4.771826e-10 4.336333e-06))
18.266894     	((6.421197e-09 2.418897e-08 -1.615670e-08) (5.664734e-08 -3.186472e-10 -6.407283e-09)) ((-5.233787e-12 3.200375e-12 4.692256e-10) (6.679769e-10 -3.604813e-10 4.238144e-06))
20.750486     	((4.847131e-09 1.028769e-08 -3.975996e-09) (5.596222e-08 2.683943e-09 -3.748748e-09)) ((-5.157184e-12 4.131534e-12 4.672175e-10) (7.276070e-10 -2.133388e-10 4.175794e-06))
23.260995     	((-2.385358e-08 1.406896e-08 -2.950609e-10) (3.330424e-08 1.452199e-08 1.781060e-09)) ((-4.387787e-12 3.956168e-12 4.633098e-10) (7.102969e-10 -1.040387e-10 4.145805e-06))
25.772131     	((-1.853604e-08 3.240591e-08 2.601452e-09) (3.605371e-08 5.258243e-09 4.696124e-09)) ((-3.989931e-13 1.557286e-12 4.579248e-10) (6.011074e-10 -8.258592e-11 4.144973e-06))
28.269994     	((1.298396e-08 5.875040e-08 9.249370e-10) (3.347945e-08 -6.139895e-09 4.395903e-09)) ((1.862345e-12 -3.514480e-13 4.546758e-10) (4.623222e-10 -1.194519e-10 4.170758e-06))
30.741676     	((2.492169e-08 1.035791e-07 6.960088e-10) (8.555446e-09 1.407621e-08 5.089819e-09)) ((3.524750e-12 -5.652566e-13 4.542773e-10) (3.588488e-10 -2.072968e-10 4.220990e-06))
33.178215     	((2.742657e-08 1.346200e-07 -2.643413e-09) (-2.096131e-10 1.501745e-08 6.054080e-09)) ((4.080624e-12 -1.136782e-13 4.540584e-10) (3.322041e-10 -3.053167e-10 4.293248e-06))
35.575902     	((1.905510e-08 1.176187e-07 -3.423087e-09) (3.073787e-09 2.198760e-08 5.401250e-09)) ((4.961685e-12 1.623176e-12 4.565896e-10) (4.067008e-10 -3.662790e-10 4.384334e-06))
37.934315     	((2.747853e-08 9.982730e-08 -4.742057e-09) (7.322996e-09 4.012712e-08 5.401721e-09)) ((5.563177e-12 4.475160e-12 4.624575e-10) (5.455500e-10 -4.039247e-10 4.488911e-06))
40.254672     	((-1.725066e-09 6.868240e-08 -7.067110e-09) (2.081620e-09 4.413625e-08 4.872000e-09)) ((5.478819e-12 5.943288e-12 4.728117e-10) (6.524959e-10 -3.804301e-10 4.599122e-06))
42.540426     	((-8.337617e-09 -6.496247e-09 -5.537664e-09) (-1.376592e-08 4.621801e-08 5.377533e-09)) ((6.763172e-12 5.432497e-12 4.811247e-10) (7.116604e-10 -3.320878e-10 4.705495e-06))
44.795862     	((-6.798980e-09 -7.404054e-08 1.942346e-09) (-1.032749e-08 5.006711e-08 8.066598e-09)) ((9.005629e-12 4.334303e-12 4.962614e-10) (7.398662e-10 -2.776337e-10 4.798826e-06))
47.025502     	((-2.245629e-08 -9.565861e-08 1.468688e-08) (-4.525557e-09 3.945317e-08 9.804474e-09)) ((9.176601e-12 4.462675e-12 5.114473e-10) (7.606872e-10 -2.092206e-10 4.871677e-06))
49.221732     	((1.056071e-08 -8.917575e-08 2.201977e-08) (1.557376e-08 2.500738e-08 1.213265e-08)) ((9.719824e-12 4.639067e-12 5.215567e-10) (6.589562e-10 -9.110026e-11 4.919752e-06))
51.373128     	((1.608253e-08 -8.178202e-08 1.025033e-08) (4.977938e-08 1.960670e-08 1.305325e-08)) ((9.576432e-12 5.279990e-12 5.247118e-10) (4.894301e-10 -2.400787e-11 4.943687e-06))
53.490883     	((-1.997662e-08 -5.201348e-08 2.471499e-08) (5.820879e-08 9.123614e-09 1.291099e-08)) ((8.533019e-12 6.044413e-12 5.224469e-10) (3.486609e-10 -4.157870e-12 4.947747e-06))
55.58325      	((-4.990715e-08 -3.360851e-08 3.443336e-08) (4.221155e-08 7.023779e-09 1.183614e-08)) ((8.242246e-12 7.305942e-12 5.178970e-10) (1.993674e-10 -3.587538e-11 4.937397e-06))
57.659473     	((-1.226927e-07 -4.598992e-08 2.813959e-08) (3.800881e-08 1.828698e-08 8.369915e-09)) ((9.788940e-12 9.869840e-12 5.139112e-10) (8.211836e-11 -1.384495e-10 4.918046e-06))
59.725263     	((-7.431533e-08 3.740242e-08 1.102134e-08) (3.670743e-08 3.227405e-08 7.910032e-09)) ((9.980007e-12 1.141436e-11 5.078350e-10) (1.358238e-11 -2.526270e-10 4.893548e-06))
