# Forces      
# CofR        : (0.000000e+00 0.000000e+00 0.000000e+00)
# Time        forces(pressure viscous)	moments(pressure viscous)
0             	((0.000000e+00 0.000000e+00 0.000000e+00) (0.000000e+00 0.000000e+00 0.000000e+00)) ((0.000000e+00 0.000000e+00 0.000000e+00) (0.000000e+00 0.000000e+00 0.000000e+00))
0.012         	((-5.550921e-12 7.131007e-12 -1.402578e-11) (6.695661e-15 1.339727e-14 9.235700e-14)) ((6.337477e-11 -6.049354e-15 -1.238770e-16) (4.418506e-08 4.843374e-15 -2.031359e-15))
0.0264        	((6.368022e-12 1.247468e-11 -2.532704e-11) (-7.261916e-14 -1.042859e-13 8.040029e-14)) ((3.126758e-11 -4.746670e-15 1.227656e-15) (4.047080e-08 8.353191e-15 -2.003681e-15))
0.04368       	((-2.781329e-11 -1.868285e-11 -2.956858e-11) (4.074854e-14 -3.199408e-13 2.669837e-14)) ((1.726548e-11 -3.952192e-15 1.373750e-15) (3.665371e-08 4.675805e-15 3.463331e-15))
0.064416      	((9.992949e-12 -9.076502e-13 -6.675182e-12) (4.090523e-13 -4.783642e-13 -5.428213e-14)) ((9.669075e-12 -2.661294e-15 -5.051889e-16) (3.281699e-08 -4.539098e-15 9.090684e-15))
0.0892992     	((-4.466817e-12 -5.196798e-12 -1.750183e-12) (8.041941e-13 -5.320539e-13 -1.677924e-13)) ((7.263015e-12 -2.592198e-15 3.597271e-16) (2.907245e-08 -1.361263e-14 1.225774e-14))
0.119159      	((-3.649744e-12 -8.704828e-12 -2.230501e-11) (1.046308e-12 -4.930142e-13 -2.680109e-13)) ((5.189593e-12 -1.841923e-15 -7.585747e-17) (2.553559e-08 -1.868355e-14 1.310904e-14))
0.154991      	((5.184589e-12 1.090968e-11 6.498679e-12) (1.155386e-12 -4.304885e-13 -3.009909e-13)) ((4.112894e-12 -1.450282e-15 -1.493674e-16) (2.228790e-08 -2.022559e-14 1.151057e-14))
0.197989      	((5.911600e-12 1.445372e-12 -6.729181e-12) (1.250753e-12 -3.577039e-13 -2.988623e-13)) ((3.267526e-12 -6.542866e-16 -1.235255e-16) (1.940868e-08 -1.988776e-14 9.471138e-15))
0.249587      	((2.419736e-12 2.170924e-12 -6.681682e-12) (1.244624e-12 -3.314734e-13 -3.063988e-13)) ((2.703668e-12 -4.067292e-16 -2.924197e-16) (1.694061e-08 -1.876349e-14 8.608494e-15))
0.311504      	((3.138082e-12 5.741067e-12 -8.308185e-12) (1.143510e-12 -3.497341e-13 -2.504943e-13)) ((2.257153e-12 -5.533851e-16 -8.274220e-17) (1.487768e-08 -1.685134e-14 8.918297e-15))
0.385805      	((-2.054984e-12 7.284982e-12 -1.119016e-11) (1.033333e-12 -3.233474e-13 -2.096214e-13)) ((1.941527e-12 -5.844388e-16 1.974052e-16) (1.317550e-08 -1.701764e-14 8.872476e-15))
0.474966      	((-1.486948e-12 9.972200e-12 -1.078231e-11) (8.810151e-13 -2.057765e-13 -3.608401e-13)) ((1.734170e-12 -3.506428e-16 3.085533e-16) (1.176725e-08 -2.238828e-14 8.603083e-15))
0.581959      	((6.773546e-12 1.449512e-11 -3.542365e-12) (6.575771e-13 -4.760433e-15 -5.255839e-13)) ((1.554353e-12 -4.330012e-16 4.858753e-16) (1.058347e-08 -2.792931e-14 1.021943e-14))
0.710351      	((7.449383e-12 1.694496e-11 -1.315601e-11) (3.453800e-13 1.611395e-14 -5.116210e-13)) ((1.373757e-12 -5.618001e-16 6.128889e-16) (9.566615e-09 -3.029393e-14 1.474434e-14))
0.864421      	((9.331854e-12 2.109612e-11 -7.972325e-12) (-2.189388e-14 -2.689627e-13 -3.671264e-13)) ((1.252210e-12 -8.862717e-16 6.913970e-16) (8.675868e-09 -2.787777e-14 2.131008e-14))
1.049306      	((5.988073e-12 2.137733e-11 -1.437743e-11) (-2.443236e-13 -5.204365e-13 -1.785313e-13)) ((1.171844e-12 -9.642650e-16 6.415138e-16) (7.884171e-09 -2.119440e-14 2.516417e-14))
1.271167      	((-1.069583e-12 2.720909e-11 -1.794667e-11) (-2.452190e-13 -7.563389e-13 8.686177e-14)) ((1.091603e-12 -8.139425e-16 5.521839e-16) (7.173416e-09 -1.114276e-14 3.098813e-14))
1.5374        	((-2.864595e-12 2.549776e-11 -2.414587e-11) (-1.068334e-13 -1.170284e-12 5.032871e-13)) ((9.991989e-13 -1.980968e-16 4.042992e-16) (6.531820e-09 -4.888447e-15 5.207747e-14))
1.85688       	((2.811817e-12 2.645275e-11 -2.366125e-11) (-3.281937e-13 -2.001403e-12 1.178047e-12)) ((9.177743e-13 2.873843e-18 1.978338e-16) (5.952976e-09 1.336318e-14 7.713238e-14))
2.240256      	((2.492402e-13 2.927478e-11 -2.170122e-11) (-3.217384e-13 -3.275454e-12 2.483176e-12)) ((8.676277e-13 3.545763e-16 -1.265669e-16) (5.433590e-09 4.179144e-14 1.111867e-13))
2.700307      	((7.747921e-13 2.630095e-11 -1.751200e-11) (-3.218368e-14 -5.235848e-12 4.552386e-12)) ((8.331691e-13 5.055634e-16 -3.256778e-16) (4.971330e-09 7.678096e-14 1.691777e-13))
3.252369      	((8.624441e-14 1.861012e-11 -1.795716e-11) (-3.844911e-13 -8.027445e-12 6.886457e-12)) ((7.994348e-13 7.748657e-16 -5.479350e-16) (4.563019e-09 1.269501e-13 2.272554e-13))
3.914842      	((1.889241e-12 8.387123e-12 -1.193207e-11) (-3.831130e-13 -1.069879e-11 9.156773e-12)) ((7.607056e-13 6.569808e-16 -4.202660e-16) (4.203854e-09 1.674425e-13 2.674886e-13))
4.709811      	((-6.168963e-13 2.955621e-12 -3.607999e-12) (1.574996e-13 -1.316831e-11 1.153311e-11)) ((7.153719e-13 6.833473e-16 -2.479197e-16) (3.887219e-09 1.946432e-13 2.929952e-13))
5.663773      	((9.221658e-13 1.700335e-13 2.833647e-12) (1.272792e-13 -1.494033e-11 1.337454e-11)) ((6.645555e-13 6.911383e-16 -1.583625e-16) (3.605700e-09 2.175713e-13 2.985277e-13))
6.808528      	((2.636434e-12 -3.363875e-12 5.259005e-12) (-7.064784e-14 -1.519351e-11 1.381909e-11)) ((6.135334e-13 7.127741e-16 -3.014882e-16) (3.352711e-09 2.180274e-13 2.922719e-13))
8.182233      	((4.442746e-13 -4.901650e-12 8.079172e-12) (-2.352307e-13 -1.427217e-11 1.302097e-11)) ((5.639117e-13 6.702660e-16 -2.980202e-16) (3.123015e-09 1.937321e-13 2.685935e-13))
9.83068       	((2.690003e-12 -6.242555e-12 7.019568e-12) (-6.965452e-13 -1.216060e-11 1.115611e-11)) ((5.141783e-13 6.001932e-16 -4.779396e-16) (2.912736e-09 1.580577e-13 2.176314e-13))
11.808816     	((6.518297e-13 1.282347e-12 2.713967e-12) (-1.421960e-12 -9.272631e-12 8.742679e-12)) ((4.690127e-13 4.659372e-16 -6.656016e-16) (2.719244e-09 1.288046e-13 1.564076e-13))
14.182579     	((5.731940e-13 1.272068e-12 -1.417145e-12) (-2.130538e-12 -6.565006e-12 6.506742e-12)) ((4.262312e-13 5.471397e-16 -7.903943e-16) (2.540939e-09 1.090777e-13 9.553349e-14))
17.031095     	((1.521466e-12 2.339623e-12 -5.239343e-13) (-2.078502e-12 -4.556416e-12 4.579929e-12)) ((3.905985e-13 4.056508e-16 -7.956060e-16) (2.376985e-09 8.084446e-14 5.041342e-14))
20.449314     	((6.258225e-13 3.085580e-12 -1.599218e-12) (-1.606436e-12 -3.086764e-12 3.090785e-12)) ((3.587133e-13 3.328777e-16 -7.840518e-16) (2.226807e-09 4.946471e-14 2.976019e-14))
24.551176     	((-3.590283e-13 3.132416e-12 -2.714108e-12) (-1.027673e-12 -2.203292e-12 2.124747e-12)) ((3.307425e-13 3.282146e-16 -8.109710e-16) (2.089537e-09 2.806748e-14 1.932868e-14))
29.473411     	((5.251147e-13 3.517229e-12 -1.303768e-12) (-5.552132e-13 -1.629358e-12 1.654646e-12)) ((3.072227e-13 2.576480e-16 -7.539149e-16) (1.964294e-09 1.782414e-14 1.578989e-14))
35.380094     	((2.800527e-13 4.211361e-12 -1.643191e-12) (-2.502744e-13 -1.296712e-12 1.425393e-12)) ((2.862117e-13 1.971133e-16 -6.784256e-16) (1.850060e-09 1.008546e-14 2.085592e-14))
42.468112     	((-2.873076e-13 2.827239e-12 -1.574207e-12) (-1.162480e-13 -1.301556e-12 1.380317e-12)) ((2.678228e-13 1.800728e-16 -6.294607e-16) (1.745874e-09 7.421672e-15 2.575708e-14))
50.973735     	((2.097488e-13 2.801301e-12 -8.467487e-13) (1.760156e-13 -1.420959e-12 1.567868e-12)) ((2.512597e-13 1.116477e-16 -5.571087e-16) (1.650902e-09 8.074897e-15 2.960287e-14))
61.180482     	((1.436208e-14 2.208973e-12 -1.829280e-12) (2.160945e-13 -1.724934e-12 1.830963e-12)) ((2.363132e-13 3.256516e-17 -4.916037e-16) (1.564423e-09 1.250434e-14 3.311514e-14))
73.428578     	((-1.874378e-14 1.811678e-12 -4.794807e-13) (1.143503e-13 -1.994425e-12 2.133829e-12)) ((2.233108e-13 -3.948227e-18 -4.447928e-16) (1.485849e-09 2.083943e-14 3.738228e-14))
88.126294     	((4.474496e-13 1.669737e-12 -2.651089e-13) (1.089192e-13 -2.190978e-12 2.374105e-12)) ((2.117564e-13 -6.961634e-17 -3.802218e-16) (1.414597e-09 2.781400e-14 4.177129e-14))
105.763553    	((4.807664e-13 1.183256e-12 4.221365e-13) (-5.811808e-14 -2.285796e-12 2.470559e-12)) ((2.008715e-13 -1.061746e-16 -3.347287e-16) (1.350119e-09 2.971976e-14 4.489931e-14))
126.928263    	((5.244856e-13 6.683769e-13 6.978326e-13) (-2.704226e-13 -2.274331e-12 2.450666e-12)) ((1.911601e-13 -1.158688e-16 -3.100568e-16) (1.291833e-09 2.892159e-14 4.649900e-14))
152.325916    	((1.789146e-13 3.170246e-13 8.954611e-13) (-4.465851e-13 -2.174144e-12 2.324276e-12)) ((1.825052e-13 -1.320451e-16 -2.821966e-16) (1.239130e-09 2.825948e-14 4.700268e-14))
182.803099    	((2.086371e-13 -3.439273e-14 8.384059e-13) (-4.876612e-13 -2.044336e-12 2.119891e-12)) ((1.745454e-13 -1.371401e-16 -2.639986e-16) (1.191389e-09 2.865013e-14 4.717850e-14))
219.375719    	((2.189073e-13 -1.633862e-13 8.427177e-13) (-5.836689e-13 -1.943366e-12 1.980172e-12)) ((1.672690e-13 -1.228051e-16 -2.575794e-16) (1.148042e-09 3.055807e-14 4.766489e-14))
263.262863    	((1.671105e-13 -3.296114e-13 7.547799e-13) (-7.775154e-13 -1.926115e-12 1.941903e-12)) ((1.606428e-13 -1.047825e-16 -2.309854e-16) (1.108630e-09 3.221318e-14 4.950423e-14))
315.927436    	((1.291286e-13 -3.160229e-13 7.586952e-13) (-8.123727e-13 -1.979297e-12 1.954700e-12)) ((1.546762e-13 -8.594076e-17 -2.148942e-16) (1.072783e-09 3.375585e-14 5.152131e-14))
379.124923    	((8.274420e-14 -3.072471e-13 7.525772e-13) (-6.912130e-13 -1.996406e-12 2.003744e-12)) ((1.492368e-13 -6.886369e-17 -1.924443e-16) (1.040197e-09 3.483501e-14 5.206707e-14))
454.961908    	((5.633083e-14 -3.917892e-13 6.925280e-13) (-7.006889e-13 -1.985205e-12 2.010569e-12)) ((1.442885e-13 -5.387079e-17 -1.728835e-16) (1.010639e-09 3.488677e-14 5.129041e-14))
545.966289    	((3.385588e-13 -3.520013e-13 5.331860e-13) (-5.817783e-13 -1.936960e-12 2.001013e-12)) ((1.397328e-13 -4.158681e-17 -1.661816e-16) (9.839174e-10 3.497462e-14 4.986129e-14))
655.171547    	((5.199935e-13 -3.482130e-13 5.137643e-13) (-4.322758e-13 -1.856542e-12 1.949077e-12)) ((1.355661e-13 -2.833914e-17 -1.629184e-16) (9.598424e-10 3.520052e-14 4.743947e-14))
786.217856    	((6.203473e-13 -4.865675e-13 5.032765e-13) (-3.333153e-13 -1.778694e-12 1.890981e-12)) ((1.317866e-13 -1.535916e-17 -1.608082e-16) (9.382348e-10 3.559236e-14 4.464929e-14))
943.473427    	((5.315002e-13 -7.157506e-13 4.023672e-13) (-2.160897e-13 -1.684435e-12 1.774328e-12)) ((1.284115e-13 -8.182100e-18 -1.515569e-16) (9.189365e-10 3.486675e-14 4.247756e-14))
1132.180113   	((4.932090e-13 -8.496930e-13 4.151350e-13) (-1.767278e-13 -1.597419e-12 1.638776e-12)) ((1.254072e-13 -7.761106e-18 -1.368957e-16) (9.017856e-10 3.391846e-14 4.038172e-14))
1358.628135   	((4.627101e-13 -8.399404e-13 3.815444e-13) (-1.833392e-13 -1.514397e-12 1.509676e-12)) ((1.227530e-13 -4.538126e-18 -1.318350e-16) (8.866201e-10 3.257562e-14 3.893006e-14))
1630.365763   	((4.347521e-13 -8.164764e-13 3.908577e-13) (-1.345196e-13 -1.422447e-12 1.392122e-12)) ((1.204643e-13 2.270180e-18 -1.282557e-16) (8.732818e-10 3.092996e-14 3.779720e-14))
1956.450915   	((3.200258e-13 -7.108947e-13 5.565120e-13) (-1.035444e-13 -1.349955e-12 1.325293e-12)) ((1.184521e-13 6.439244e-18 -1.258962e-16) (8.616172e-10 2.952772e-14 3.651999e-14))
2347.753098   	((1.598556e-13 -6.651184e-13 5.528855e-13) (-8.650662e-14 -1.293930e-12 1.280074e-12)) ((1.167248e-13 1.209231e-17 -1.242517e-16) (8.514770e-10 2.878212e-14 3.497466e-14))
2817.315718   	((-9.079446e-14 -6.027322e-13 5.705224e-13) (-7.015221e-14 -1.241921e-12 1.237022e-12)) ((1.152117e-13 1.295987e-17 -1.209943e-16) (8.427199e-10 2.802854e-14 3.311495e-14))
3380.790861   	((-1.213568e-13 -4.955443e-13 4.991120e-13) (-1.153772e-13 -1.202931e-12 1.187024e-12)) ((1.139845e-13 1.701253e-17 -1.187024e-16) (8.352041e-10 2.711292e-14 3.118693e-14))
4056.961033   	((-1.038986e-13 -3.585759e-13 5.872989e-13) (-1.438965e-13 -1.151192e-12 1.139599e-12)) ((1.129226e-13 1.393108e-17 -1.194049e-16) (8.287950e-10 2.572234e-14 2.982864e-14))
4868.36524    	((-1.167294e-13 -2.635914e-13 6.930756e-13) (-1.659088e-13 -1.099522e-12 1.096554e-12)) ((1.120223e-13 1.372680e-17 -1.198487e-16) (8.233657e-10 2.423990e-14 2.844263e-14))
5842.050288   	((-1.266518e-13 -2.165214e-13 8.149307e-13) (-1.929953e-13 -1.034348e-12 1.065797e-12)) ((1.112497e-13 3.187308e-18 -1.277651e-16) (8.187975e-10 2.307747e-14 2.759544e-14))
7010.472346   	((-1.402040e-13 -1.931287e-13 1.016141e-12) (-1.988984e-13 -9.682668e-13 1.042783e-12)) ((1.105981e-13 1.038763e-17 -1.085464e-16) (8.149824e-10 2.237286e-14 2.581029e-14))
8412.578815   	((-1.313173e-13 -1.773262e-13 1.062719e-12) (-1.904289e-13 -9.223154e-13 1.016893e-12)) ((1.100519e-13 5.698033e-18 -1.211442e-16) (8.118170e-10 2.163485e-14 2.421155e-14))
10095.106578  	((-8.392529e-14 -1.704613e-13 1.122321e-12) (-1.872610e-13 -8.754248e-13 9.938582e-13)) ((1.096179e-13 9.918240e-18 -1.132521e-16) (8.092064e-10 2.103946e-14 2.253917e-14))
12100.470281  	((3.042896e-14 -1.576296e-13 1.205858e-12) (-1.821481e-13 -8.409400e-13 9.779340e-13)) ((1.092537e-13 7.705898e-18 -1.136329e-16) (8.070669e-10 2.059669e-14 2.127901e-14))
14428.681671  	((1.700248e-13 -1.311022e-13 1.176648e-12) (-1.701597e-13 -8.191884e-13 9.591219e-13)) ((1.089168e-13 7.228897e-19 -1.142016e-16) (8.053241e-10 2.031273e-14 2.026263e-14))
17079.750254  	((3.465312e-13 -1.020018e-13 1.277186e-12) (-1.572546e-13 -8.060947e-13 9.539608e-13)) ((1.087018e-13 -6.634926e-18 -1.124578e-16) (8.039113e-10 2.025156e-14 1.942796e-14))
20053.683695  	((4.412995e-13 -1.757672e-14 1.326933e-12) (-1.514159e-13 -7.921030e-13 9.449940e-13)) ((1.084925e-13 1.118114e-19 -9.950167e-17) (8.027716e-10 2.009229e-14 1.881640e-14))
23282.393752  	((5.554371e-13 7.035330e-14 1.437787e-12) (-1.479523e-13 -7.680375e-13 9.383805e-13)) ((1.083366e-13 -5.354468e-18 -1.156872e-16) (8.018554e-10 1.990475e-14 1.860684e-14))
26511.152903  	((6.931146e-13 1.631121e-13 1.557800e-12) (-1.452243e-13 -7.517295e-13 9.350128e-13)) ((1.082090e-13 -5.824077e-18 -1.175673e-16) (8.011221e-10 1.973505e-14 1.827808e-14))
29739.950909  	((7.298486e-13 2.757954e-13 1.639123e-12) (-1.469603e-13 -7.411884e-13 9.305880e-13)) ((1.080727e-13 -2.138806e-18 -1.099278e-16) (8.005368e-10 1.956067e-14 1.785830e-14))
32968.77995   	((8.678815e-13 3.835195e-13 1.776460e-12) (-1.487191e-13 -7.466659e-13 9.308329e-13)) ((1.079926e-13 1.154293e-18 -1.025186e-16) (8.000705e-10 1.915430e-14 1.698349e-14))
36197.633604  	((1.026863e-12 4.953182e-13 1.904447e-12) (-1.446044e-13 -7.411101e-13 9.282792e-13)) ((1.079163e-13 4.152565e-18 -9.900329e-17) (7.996994e-10 1.897565e-14 1.656205e-14))
39426.506873  	((1.138954e-12 5.968390e-13 2.097858e-12) (-1.418269e-13 -7.271716e-13 9.260051e-13)) ((1.078269e-13 -2.138269e-19 -1.150566e-16) (7.994046e-10 1.897677e-14 1.655633e-14))
42655.395723  	((1.395656e-12 6.816523e-13 2.087144e-12) (-1.407658e-13 -7.087806e-13 9.186844e-13)) ((1.077764e-13 -2.011440e-18 -1.009616e-16) (7.991705e-10 1.889616e-14 1.682300e-14))
45884.296991  	((1.491018e-12 8.804497e-13 2.248190e-12) (-1.297484e-13 -6.886079e-13 9.217701e-13)) ((1.077496e-13 2.277261e-17 -1.184771e-16) (7.989846e-10 1.897896e-14 1.679390e-14))
49113.208136  	((1.590603e-12 9.966692e-13 2.406828e-12) (-1.183311e-13 -6.826353e-13 9.388182e-13)) ((1.076751e-13 2.520337e-17 -1.207936e-16) (7.988371e-10 1.839769e-14 1.657936e-14))
52342.127146  	((1.708205e-12 1.066924e-12 2.358685e-12) (-1.091653e-13 -6.815400e-13 9.334935e-13)) ((1.076374e-13 2.549389e-17 -1.363114e-16) (7.987204e-10 1.824858e-14 1.665862e-14))
55571.05243   	((1.783394e-12 1.188034e-12 2.680500e-12) (-1.011416e-13 -6.863284e-13 9.405144e-13)) ((1.075950e-13 2.151448e-17 -1.346614e-16) (7.986281e-10 1.776194e-14 1.733772e-14))
58799.982716  	((1.877115e-12 1.294694e-12 2.767587e-12) (-9.457457e-14 -6.945761e-13 9.308265e-13)) ((1.075308e-13 6.855312e-18 -1.209379e-16) (7.985551e-10 1.773868e-14 1.790426e-14))
62028.916994  	((1.942329e-12 1.392294e-12 2.803396e-12) (-8.418551e-14 -6.805241e-13 9.155434e-13)) ((1.074708e-13 -6.045172e-18 -1.021452e-16) (7.984986e-10 1.871021e-14 1.739046e-14))
65257.854465  	((1.931541e-12 1.713846e-12 3.116825e-12) (-7.171821e-14 -6.659164e-13 9.077183e-13)) ((1.074429e-13 1.059347e-17 -9.273629e-17) (7.984541e-10 1.869581e-14 1.639294e-14))
68486.794494  	((2.085718e-12 1.796578e-12 3.235614e-12) (-6.076182e-14 -6.689621e-13 8.975824e-13)) ((1.073915e-13 -3.796288e-18 -8.892825e-17) (7.984186e-10 1.867859e-14 1.631098e-14))
71715.736567  	((2.112570e-12 1.918200e-12 3.196413e-12) (-4.304843e-14 -6.529641e-13 8.980296e-13)) ((1.073848e-13 5.988504e-18 -1.236930e-16) (7.983902e-10 1.919595e-14 1.612007e-14))
74944.680274  	((2.143766e-12 2.031103e-12 3.336567e-12) (-3.479239e-14 -6.215970e-13 9.052488e-13)) ((1.073388e-13 1.188312e-17 -1.398850e-16) (7.983676e-10 1.890954e-14 1.674741e-14))
