# Forces      
# CofR        : (0.000000e+00 0.000000e+00 0.000000e+00)
# Time        forces(pressure viscous)	moments(pressure viscous)
0             	((0.000000e+00 0.000000e+00 0.000000e+00) (0.000000e+00 0.000000e+00 0.000000e+00)) ((0.000000e+00 0.000000e+00 0.000000e+00) (0.000000e+00 0.000000e+00 0.000000e+00))
0.012         	((-6.758167e-12 1.134105e-11 2.725229e-09) (-4.932420e-15 5.987932e-14 5.724266e-11)) ((-1.229797e-15 1.060126e-10 -5.603851e-17) (1.365030e-16 7.002896e-08 -4.139512e-15))
0.0264        	((1.135977e-11 -1.204679e-11 -1.024572e-09) (-8.490017e-15 1.693485e-13 9.954174e-11)) ((-2.608374e-16 5.306902e-11 5.161455e-15) (1.894066e-15 6.414110e-08 -5.845637e-15))
0.04368       	((3.944323e-11 6.527126e-11 9.493453e-10) (9.591328e-14 1.275440e-13 1.079111e-10)) ((9.588012e-16 2.927348e-11 3.349856e-15) (-3.175709e-15 5.809054e-08 -8.404378e-15))
0.064416      	((-1.118424e-11 -1.802880e-11 3.554848e-11) (2.981528e-13 -9.225690e-14 8.919989e-11)) ((1.113019e-17 1.666755e-11 -2.296662e-16) (-1.074084e-14 5.200943e-08 -1.097112e-14))
0.0892992     	((3.460425e-11 2.020200e-11 1.187286e-10) (4.194733e-13 -3.183471e-13 7.407471e-11)) ((-2.526988e-16 1.237912e-11 -2.416588e-17) (-1.471128e-14 4.607513e-08 -1.130157e-14))
0.119159      	((-1.279174e-11 -5.351293e-12 3.103287e-11) (4.924857e-13 -5.540313e-13 6.279687e-11)) ((1.594085e-16 8.884695e-12 -4.471338e-17) (-1.958414e-14 4.047025e-08 -1.294826e-14))
0.154991      	((-1.135255e-11 -1.281788e-11 -7.795744e-11) (5.508938e-13 -8.688212e-13 5.059639e-11)) ((-1.623571e-16 7.022120e-12 5.437297e-16) (-2.585598e-14 3.532394e-08 -1.583593e-14))
0.197989      	((-9.576890e-12 -8.577833e-12 8.083293e-12) (5.750705e-13 -1.124407e-12 3.954362e-11)) ((-2.465755e-16 5.583620e-12 5.428650e-16) (-2.932016e-14 3.076150e-08 -1.821515e-14))
0.249587      	((1.149208e-13 -8.909529e-12 -7.510965e-11) (5.955463e-13 -1.265648e-12 3.128376e-11)) ((-3.727104e-16 4.603914e-12 -1.234434e-16) (-2.913208e-14 2.685056e-08 -1.587424e-14))
0.311504      	((-2.718574e-12 2.294103e-12 -1.458658e-11) (5.756999e-13 -1.368480e-12 2.438079e-11)) ((-3.190877e-16 3.833385e-12 -5.321779e-16) (-2.749986e-14 2.358170e-08 -1.069969e-14))
0.385805      	((-5.762635e-12 7.372523e-12 6.247387e-13) (6.052558e-13 -1.398988e-12 1.864676e-11)) ((-8.656780e-17 3.287522e-12 -8.643387e-16) (-2.627162e-14 2.088447e-08 -8.208337e-15))
0.474966      	((-1.057932e-11 -1.942826e-12 1.641618e-11) (5.211576e-13 -1.490221e-12 1.324211e-11)) ((-5.817981e-17 2.928460e-12 -6.640352e-16) (-2.528727e-14 1.865282e-08 -2.160415e-15))
0.581959      	((-1.620726e-11 -8.773502e-12 -1.668588e-11) (3.449810e-13 -1.559605e-12 8.744234e-12)) ((-1.671171e-16 2.622874e-12 -2.560666e-16) (-2.573920e-14 1.677661e-08 6.096241e-15))
0.710351      	((-2.336138e-11 -1.226893e-11 3.665971e-11) (3.726472e-13 -1.115652e-12 7.790228e-12)) ((-4.351193e-16 2.328856e-12 -2.514429e-16) (-2.142461e-14 1.516473e-08 -1.007447e-15))
0.864421      	((-2.393165e-11 -1.035518e-11 1.942190e-11) (6.556221e-13 1.306466e-13 7.306309e-12)) ((-5.889151e-16 2.130582e-12 2.740873e-16) (-1.025000e-14 1.375258e-08 -1.917568e-14))
1.049306      	((-3.282789e-11 -1.012471e-11 -8.225296e-13) (8.937140e-13 1.272102e-12 4.717817e-12)) ((-8.245842e-16 2.004313e-12 2.999145e-16) (6.929419e-15 1.249752e-08 -3.114907e-14))
1.271167      	((-4.567212e-11 -8.200619e-12 3.795641e-11) (1.461428e-12 1.826672e-12 2.055616e-12)) ((-3.459188e-16 1.875255e-12 5.736350e-16) (3.110620e-14 1.137084e-08 -2.472452e-14))
1.5374        	((-4.316978e-11 3.524020e-12 4.370375e-11) (2.598787e-12 2.038368e-12 -1.469866e-12)) ((5.128018e-16 1.725207e-12 8.973120e-16) (5.949257e-14 1.035383e-08 -4.643704e-15))
1.85688       	((-4.325962e-11 -5.062547e-12 3.020136e-11) (3.802164e-12 2.163219e-12 -6.830098e-12)) ((1.077165e-15 1.592083e-12 4.153603e-16) (9.756191e-14 9.436345e-09 3.634300e-14))
2.240256      	((-4.251660e-11 -2.150726e-12 3.671638e-11) (5.567176e-12 1.791407e-12 -1.040998e-11)) ((1.167707e-15 1.505564e-12 3.235139e-16) (1.335673e-13 8.613168e-09 9.036109e-14))
2.700307      	((-4.366494e-11 -6.753390e-13 2.923119e-11) (8.426318e-12 1.118104e-12 -1.233876e-11)) ((9.826284e-16 1.443061e-12 3.477919e-16) (1.948953e-13 7.880572e-09 1.977274e-13))
3.252369      	((-3.103355e-11 -2.871686e-12 1.905043e-11) (1.218175e-11 4.996414e-13 -1.886587e-11)) ((1.108166e-15 1.379996e-12 5.494398e-16) (2.733097e-13 7.233527e-09 3.274855e-13))
3.914842      	((-1.535563e-11 -2.582863e-12 5.248905e-12) (1.632549e-11 -2.569754e-13 -2.930918e-11)) ((5.990144e-16 1.306890e-12 8.979222e-16) (3.284244e-13 6.664428e-09 3.929481e-13))
4.709811      	((-7.308387e-12 -8.252395e-14 -6.123302e-12) (2.081801e-11 -1.198290e-12 -3.353003e-11)) ((7.408237e-16 1.226442e-12 7.333607e-16) (3.751206e-13 6.162675e-09 4.438023e-13))
5.663773      	((5.586696e-13 -1.905644e-12 8.171751e-12) (2.327865e-11 -1.065956e-12 -3.165279e-11)) ((7.602397e-16 1.139349e-12 1.203711e-16) (4.038974e-13 5.716440e-09 4.477342e-13))
6.808528      	((7.789482e-12 -3.359198e-12 2.209915e-12) (2.286146e-11 -3.741688e-13 -3.027525e-11)) ((7.714101e-16 1.050159e-12 -4.384031e-16) (3.925153e-13 5.315246e-09 4.056755e-13))
8.182233      	((9.013351e-12 -1.057516e-12 -1.095731e-13) (2.107815e-11 -6.139291e-13 -2.727976e-11)) ((8.002586e-16 9.635760e-13 -2.692579e-16) (3.439315e-13 4.950993e-09 3.706912e-13))
9.83068       	((7.956154e-12 -4.140824e-12 1.121181e-12) (1.803597e-11 -9.359614e-13 -2.079862e-11)) ((5.722002e-16 8.750319e-13 -2.700095e-16) (2.776712e-13 4.617551e-09 3.238371e-13))
11.808816     	((1.385123e-12 -1.889603e-12 8.246083e-12) (1.384229e-11 -1.040652e-14 -1.304184e-11)) ((4.877845e-16 7.955197e-13 -5.493480e-16) (2.219834e-13 4.310651e-09 2.455371e-13))
14.182579     	((-3.364755e-12 -1.550396e-12 9.683255e-12) (9.655975e-12 1.851163e-12 -8.797351e-12)) ((4.035516e-16 7.229723e-13 -7.052545e-16) (1.715553e-13 4.027815e-09 1.315932e-13))
17.031095     	((-3.062594e-12 -1.903387e-12 6.927852e-12) (6.547125e-12 2.365996e-12 -6.078386e-12)) ((1.037893e-16 6.606109e-13 -8.049181e-16) (1.190919e-13 3.767749e-09 6.095342e-14))
20.449314     	((-3.752658e-12 -9.994840e-13 1.072244e-11) (4.298213e-12 1.515504e-12 -3.629030e-12)) ((1.009439e-16 6.053604e-13 -9.131673e-16) (7.430656e-14 3.529624e-09 4.307361e-14))
24.551176     	((-1.052871e-12 4.769127e-13 9.498865e-12) (2.963934e-12 6.622721e-13 -3.230841e-12)) ((9.055942e-17 5.561896e-13 -9.253999e-16) (4.177943e-14 3.312053e-09 3.272295e-14))
29.473411     	((-2.736871e-12 -3.913309e-13 1.119626e-11) (2.100926e-12 2.290475e-13 -3.908904e-12)) ((8.832331e-18 5.149802e-13 -8.211341e-16) (3.046788e-14 3.113531e-09 2.399661e-14))
35.380094     	((-3.332079e-12 -1.372175e-13 1.004693e-11) (1.785246e-12 -1.824234e-13 -4.602579e-12)) ((1.935583e-17 4.784139e-13 -7.630685e-16) (2.563283e-14 2.932441e-09 1.930569e-14))
42.468112     	((-2.633691e-12 -1.599106e-13 8.719167e-12) (2.001713e-12 -4.079408e-13 -5.102110e-12)) ((4.355847e-17 4.469873e-13 -5.682425e-16) (2.690544e-14 2.767237e-09 2.032553e-14))
50.973735     	((-1.503472e-12 4.419465e-13 8.022980e-12) (2.151063e-12 -5.840940e-13 -4.739488e-12)) ((1.271128e-16 4.188827e-13 -4.110994e-16) (3.154803e-14 2.616673e-09 3.013229e-14))
61.180482     	((-2.878200e-12 -9.797480e-14 6.318092e-12) (1.993433e-12 -7.444459e-13 -4.419353e-12)) ((2.785443e-17 3.936635e-13 -3.912946e-16) (4.111013e-14 2.479620e-09 4.660005e-14))
73.428578     	((7.667882e-14 -2.627706e-13 5.494544e-12) (2.146312e-12 -7.264566e-13 -4.484615e-12)) ((-7.572565e-17 3.714463e-13 -3.049785e-16) (5.410890e-14 2.355133e-09 5.295905e-14))
88.126294     	((-5.857635e-13 -2.971421e-13 5.333533e-12) (2.143789e-12 -7.092911e-13 -4.400636e-12)) ((-1.195642e-16 3.512126e-13 -2.033938e-16) (6.400256e-14 2.242263e-09 5.727108e-14))
105.763553    	((9.047534e-13 -6.468716e-13 5.212401e-12) (2.128061e-12 -6.523706e-13 -4.824222e-12)) ((-1.594773e-16 3.321456e-13 -9.585778e-17) (7.281338e-14 2.140114e-09 6.133687e-14))
126.928263    	((1.090171e-12 -6.216996e-13 4.633919e-12) (2.186852e-12 -6.159371e-13 -4.963371e-12)) ((-1.759320e-16 3.148279e-13 -2.349997e-17) (7.618752e-14 2.047777e-09 6.333499e-14))
152.325916    	((1.078383e-12 -5.054562e-13 4.359070e-12) (2.260275e-12 -5.530205e-13 -5.253397e-12)) ((-1.433544e-16 2.994152e-13 2.174908e-18) (7.528663e-14 1.964270e-09 6.285775e-14))
182.803099    	((7.531386e-13 -4.684265e-13 2.711430e-12) (2.500465e-12 -6.025607e-13 -5.498526e-12)) ((-7.534524e-17 2.855667e-13 4.123625e-18) (7.423241e-14 1.888611e-09 6.188279e-14))
219.375719    	((8.340296e-13 -4.713984e-13 1.405168e-12) (2.897667e-12 -4.819178e-13 -6.132936e-12)) ((-4.381244e-17 2.729376e-13 -9.685756e-18) (8.034256e-14 1.819908e-09 5.680431e-14))
263.262863    	((1.218854e-12 -2.517317e-13 1.162164e-12) (3.182518e-12 -3.826238e-13 -6.825945e-12)) ((-3.184326e-17 2.614300e-13 -9.815215e-18) (8.522511e-14 1.757412e-09 5.087621e-14))
315.927436    	((2.009823e-12 -8.277769e-14 1.508563e-12) (3.206291e-12 -3.338690e-13 -7.301712e-12)) ((-4.192507e-19 2.510030e-13 4.436697e-18) (8.731142e-14 1.700555e-09 4.667356e-14))
379.124923    	((2.735472e-12 6.136298e-14 1.432043e-12) (3.321480e-12 -3.578614e-13 -7.704239e-12)) ((1.623426e-17 2.415215e-13 4.456815e-17) (8.797385e-14 1.648881e-09 4.554230e-14))
454.961908    	((3.821568e-12 2.874517e-13 1.251395e-12) (3.397226e-12 -4.260211e-13 -8.175048e-12)) ((2.340123e-17 2.328659e-13 6.999690e-17) (8.592474e-14 1.602036e-09 4.752723e-14))
545.966289    	((4.375842e-12 4.679140e-13 1.095122e-12) (3.337105e-12 -4.878648e-13 -8.612373e-12)) ((4.172345e-17 2.249666e-13 1.047873e-16) (8.193591e-14 1.559714e-09 4.925880e-14))
655.171547    	((4.542210e-12 3.912924e-13 1.077787e-12) (3.172036e-12 -5.050455e-13 -8.902889e-12)) ((5.358801e-17 2.178645e-13 1.247551e-16) (7.739102e-14 1.521616e-09 5.030362e-14))
786.217856    	((4.302316e-12 3.606864e-13 1.234247e-12) (3.047271e-12 -5.188510e-13 -8.835096e-12)) ((6.285321e-17 2.114927e-13 1.312370e-16) (7.291687e-14 1.487455e-09 4.957896e-14))
943.473427    	((3.680485e-12 2.848938e-13 1.186517e-12) (2.964633e-12 -5.262165e-13 -8.638614e-12)) ((6.802003e-17 2.057647e-13 1.189203e-16) (6.811505e-14 1.456953e-09 4.853157e-14))
1132.180113   	((3.408338e-12 3.395495e-13 1.175995e-12) (2.961028e-12 -5.068406e-13 -8.538187e-12)) ((6.916515e-17 2.005521e-13 1.070247e-16) (6.316689e-14 1.429837e-09 4.654688e-14))
1358.628135   	((2.523426e-12 3.901626e-13 8.831040e-13) (2.864059e-12 -5.080208e-13 -8.541999e-12)) ((7.737125e-17 1.959073e-13 9.164626e-17) (5.893679e-14 1.405860e-09 4.480308e-14))
1630.365763   	((1.954717e-12 3.986363e-13 1.088821e-12) (2.738117e-12 -5.042750e-13 -8.516333e-12)) ((8.124990e-17 1.918299e-13 8.562359e-17) (5.652395e-14 1.384775e-09 4.269325e-14))
1956.450915   	((1.675587e-12 3.861383e-13 1.173678e-12) (2.671529e-12 -5.078426e-13 -8.524062e-12)) ((7.834202e-17 1.882901e-13 7.833834e-17) (5.414356e-14 1.366332e-09 4.091248e-14))
2347.753098   	((1.046226e-12 4.310079e-13 6.195173e-13) (2.635102e-12 -4.951476e-13 -8.546263e-12)) ((7.715421e-17 1.851740e-13 6.607543e-17) (5.163398e-14 1.350294e-09 3.921107e-14))
2817.315718   	((9.310489e-13 4.831466e-13 8.351424e-13) (2.642272e-12 -4.778400e-13 -8.456247e-12)) ((7.195534e-17 1.825102e-13 6.751671e-17) (4.911519e-14 1.336427e-09 3.666681e-14))
3380.790861   	((8.571162e-13 5.778509e-13 9.926254e-13) (2.657927e-12 -3.931154e-13 -8.304638e-12)) ((8.066994e-17 1.803662e-13 5.551051e-17) (4.681729e-14 1.324506e-09 3.339313e-14))
4056.961033   	((8.103582e-13 7.740109e-13 1.101458e-12) (2.630180e-12 -2.910276e-13 -8.148262e-12)) ((6.568507e-17 1.784759e-13 3.541355e-17) (4.525493e-14 1.314322e-09 2.934631e-14))
4868.36524    	((9.146450e-13 9.453988e-13 1.323015e-12) (2.573031e-12 -2.175462e-13 -8.001223e-12)) ((6.243602e-17 1.768612e-13 -1.887660e-18) (4.313471e-14 1.305681e-09 2.810969e-14))
5842.050288   	((1.050195e-12 1.099746e-12 1.462553e-12) (2.546778e-12 -1.598680e-13 -7.888961e-12)) ((4.637706e-17 1.755332e-13 3.712524e-18) (4.133779e-14 1.298400e-09 2.634100e-14))
7010.472346   	((1.283998e-12 1.132429e-12 1.711083e-12) (2.516589e-12 -1.307134e-13 -7.783605e-12)) ((4.871891e-17 1.743876e-13 -1.591263e-17) (3.956402e-14 1.292307e-09 2.542008e-14))
8382.561208   	((1.552387e-12 1.201881e-12 1.743215e-12) (2.489734e-12 -1.242729e-13 -7.696929e-12)) ((5.084119e-17 1.734582e-13 -1.391025e-17) (3.784145e-14 1.287244e-09 2.465838e-14))
9958.32769    	((1.848244e-12 1.275290e-12 1.779448e-12) (2.489130e-12 -1.256715e-13 -7.612041e-12)) ((5.505772e-17 1.726875e-13 -1.570291e-17) (3.630173e-14 1.283063e-09 2.374644e-14))
11737.780773  	((2.126481e-12 1.304036e-12 1.789282e-12) (2.485475e-12 -1.250617e-13 -7.544784e-12)) ((5.603478e-17 1.720684e-13 -1.156702e-17) (3.473022e-14 1.279633e-09 2.327265e-14))
13720.927838  	((2.405134e-12 1.377032e-12 1.796150e-12) (2.483373e-12 -1.257100e-13 -7.490322e-12)) ((5.662484e-17 1.715664e-13 -1.506690e-17) (3.363521e-14 1.276833e-09 2.270242e-14))
15757.927881  	((2.738875e-12 1.365943e-12 1.710702e-12) (2.484354e-12 -1.232488e-13 -7.460057e-12)) ((6.556707e-17 1.711635e-13 -9.783076e-18) (3.280315e-14 1.274558e-09 2.204417e-14))
17794.976192  	((2.960021e-12 1.384121e-12 1.357343e-12) (2.443350e-12 -1.209363e-13 -7.455457e-12)) ((6.824948e-17 1.707694e-13 -1.128953e-17) (3.184351e-14 1.272719e-09 2.156402e-14))
19832.063483  	((3.164667e-12 1.473695e-12 1.254595e-12) (2.420616e-12 -1.235044e-13 -7.452644e-12)) ((6.448025e-17 1.705047e-13 -1.254669e-17) (3.111350e-14 1.271236e-09 2.103104e-14))
21869.182144  	((3.400078e-12 1.511027e-12 1.130590e-12) (2.410964e-12 -1.172112e-13 -7.443997e-12)) ((6.574441e-17 1.702966e-13 -1.262695e-17) (3.080087e-14 1.270043e-09 2.080145e-14))
23906.326109  	((3.619316e-12 1.542135e-12 1.005535e-12) (2.405994e-12 -1.126731e-13 -7.428410e-12)) ((6.637537e-17 1.701284e-13 -1.233430e-17) (3.045287e-14 1.269084e-09 2.056643e-14))
25943.490396  	((3.822242e-12 1.564089e-12 8.859610e-13) (2.403192e-12 -1.089649e-13 -7.412743e-12)) ((6.688355e-17 1.699930e-13 -1.215755e-17) (3.013708e-14 1.268314e-09 2.036990e-14))
27980.671018  	((4.004939e-12 1.576220e-12 7.669996e-13) (2.401459e-12 -1.057050e-13 -7.398788e-12)) ((6.699358e-17 1.698838e-13 -1.195649e-17) (2.988865e-14 1.267696e-09 2.021271e-14))
30017.864747  	((4.172069e-12 1.579990e-12 6.476101e-13) (2.400557e-12 -1.028730e-13 -7.387130e-12)) ((6.703352e-17 1.697959e-13 -1.188308e-17) (2.969241e-14 1.267200e-09 2.009401e-14))
32055.068995  	((4.324695e-12 1.576524e-12 5.389134e-13) (2.400307e-12 -1.006292e-13 -7.377488e-12)) ((6.697345e-17 1.697253e-13 -1.177565e-17) (2.953140e-14 1.266803e-09 1.999688e-14))
34092.281676  	((4.468377e-12 1.568683e-12 4.389214e-13) (2.400441e-12 -9.896702e-14 -7.369557e-12)) ((6.695379e-17 1.696687e-13 -1.171215e-17) (2.939710e-14 1.266484e-09 1.991884e-14))
36129.501115  	((4.604256e-12 1.558637e-12 3.467392e-13) (2.400979e-12 -9.772648e-14 -7.363301e-12)) ((6.686101e-17 1.696232e-13 -1.161083e-17) (2.928811e-14 1.266228e-09 1.985458e-14))
38166.725968  	((4.734426e-12 1.547329e-12 2.616688e-13) (2.401692e-12 -9.682866e-14 -7.358427e-12)) ((6.674098e-17 1.695868e-13 -1.154098e-17) (2.920144e-14 1.266024e-09 1.980466e-14))
40203.95516   	((4.857692e-12 1.535346e-12 1.837626e-13) (2.402500e-12 -9.617400e-14 -7.354773e-12)) ((6.658092e-17 1.695575e-13 -1.147852e-17) (2.913392e-14 1.265860e-09 1.976521e-14))
42241.187826  	((4.974070e-12 1.523372e-12 1.124013e-13) (2.403379e-12 -9.568870e-14 -7.352078e-12)) ((6.644048e-17 1.695340e-13 -1.141541e-17) (2.908188e-14 1.265728e-09 1.973374e-14))
44278.423276  	((5.083230e-12 1.511565e-12 4.681101e-14) (2.404315e-12 -9.535796e-14 -7.350150e-12)) ((6.629305e-17 1.695153e-13 -1.132923e-17) (2.904195e-14 1.265623e-09 1.970888e-14))
46315.660955  	((5.185040e-12 1.500278e-12 -1.370762e-14) (2.405283e-12 -9.515850e-14 -7.348817e-12)) ((6.614098e-17 1.695002e-13 -1.125823e-17) (2.901095e-14 1.265538e-09 1.968930e-14))
48352.900419  	((5.278982e-12 1.489973e-12 -6.993854e-14) (2.406210e-12 -9.507316e-14 -7.347980e-12)) ((6.599296e-17 1.694882e-13 -1.117210e-17) (2.898752e-14 1.265470e-09 1.967283e-14))
