# Forces      
# CofR        : (0.000000e+00 0.000000e+00 0.000000e+00)
# Time        forces(pressure viscous)	moments(pressure viscous)
0             	((0.000000e+00 0.000000e+00 0.000000e+00) (-3.217236e-03 4.256026e-13 -1.890780e-13)) ((0.000000e+00 0.000000e+00 0.000000e+00) (1.606701e-16 2.572184e-14 4.460705e-14))
0.012         	((-9.288385e-01 -1.879469e-06 -1.839776e-06) (-3.682648e-03 -3.150632e-09 -3.690475e-09)) ((-1.086991e-11 1.075927e-10 1.158602e-10) (2.655498e-13 3.583821e-12 -2.722864e-11))
0.0264        	((1.251631e-01 -4.028329e-06 1.035624e-05) (-3.701745e-03 -5.961495e-09 2.527424e-09)) ((1.397773e-10 1.354232e-09 4.056093e-10) (3.546240e-12 2.464876e-10 -2.864362e-10))
0.04368       	((1.606552e-01 1.875832e-05 4.883965e-06) (-3.229548e-03 8.612533e-09 1.247310e-08)) ((-2.132236e-10 -9.432214e-10 -8.623792e-10) (5.050647e-13 2.217127e-10 -2.686002e-10))
0.064416      	((6.083654e-04 -6.960363e-06 -7.335125e-06) (-2.843628e-03 6.272614e-09 -2.325582e-09)) ((1.073163e-10 -1.136013e-10 2.033753e-10) (1.887249e-11 1.526017e-10 -2.105336e-10))
0.0892992     	((1.048986e-03 -3.360948e-06 -2.458073e-06) (-2.615887e-03 -2.142389e-08 -3.060108e-08)) ((-1.297935e-11 -6.283632e-11 1.536370e-10) (3.111096e-11 2.614665e-10 -2.855428e-10))
0.119159      	((2.014365e-03 -1.327187e-06 -1.673406e-06) (-2.422079e-03 -2.942128e-08 -3.726584e-08)) ((1.301337e-11 -3.500594e-11 5.049550e-11) (4.996559e-13 2.869363e-10 -1.542909e-10))
0.154991      	((2.118836e-04 -1.280659e-06 -1.165342e-06) (-2.235627e-03 -2.001223e-08 -2.332235e-08)) ((3.964843e-11 -1.608835e-11 -4.846043e-11) (-3.357826e-11 1.762932e-10 7.132936e-11))
0.197989      	((-3.402962e-04 -8.864230e-07 -9.057153e-07) (-2.065941e-03 -2.026750e-08 -2.272015e-08)) ((1.865942e-11 -1.407916e-11 -2.070173e-12) (-2.756295e-11 1.859854e-10 5.817515e-11))
0.249587      	((-5.781880e-04 -4.433605e-07 -4.378906e-07) (-1.917402e-03 -1.526406e-08 -2.576026e-08)) ((2.297623e-11 1.332760e-11 -1.243292e-11) (-1.448217e-11 1.506315e-10 -5.182325e-11))
0.311504      	((-7.354802e-04 -1.445663e-07 -2.488626e-07) (-1.788271e-03 -1.128603e-08 -2.671784e-08)) ((8.147702e-12 -6.904066e-13 -9.805019e-13) (-7.000906e-12 1.707114e-10 -1.236302e-10))
0.385805      	((-8.242703e-04 -3.145290e-08 -1.555268e-07) (-1.673251e-03 -1.251177e-08 -3.037441e-08)) ((2.138755e-11 8.771620e-12 -1.213943e-11) (-1.377929e-11 1.889283e-10 -1.331596e-10))
0.474966      	((-8.719312e-04 9.513612e-08 5.264118e-09) (-1.565412e-03 -6.098325e-09 -2.469875e-08)) ((8.438103e-12 8.741914e-12 -1.576117e-11) (-1.425513e-11 7.837934e-11 -4.550371e-11))
0.581959      	((-8.999345e-04 1.153444e-07 3.357447e-08) (-1.460117e-03 -7.538840e-09 -2.103366e-08)) ((5.695852e-12 6.088379e-12 -8.282774e-12) (1.744575e-13 -3.262906e-11 1.240306e-11))
0.710351      	((-9.266551e-04 7.823415e-08 -1.624206e-08) (-1.357763e-03 -1.075001e-08 -1.865856e-08)) ((-1.444056e-12 7.279859e-12 -4.805878e-12) (-4.108898e-12 -1.318777e-10 9.057118e-11))
0.864421      	((-9.647567e-04 7.915028e-08 -1.191757e-08) (-1.260794e-03 -6.964999e-09 -1.507097e-08)) ((-1.726475e-12 1.029115e-11 -7.620484e-12) (-1.480367e-11 -1.704289e-10 1.710486e-10))
1.049306      	((-1.025787e-03 -7.774946e-08 -1.092674e-07) (-1.171084e-03 -8.391344e-09 -1.347973e-08)) ((1.906241e-12 1.300085e-11 -4.892101e-12) (-1.474095e-11 -1.136422e-10 1.195166e-10))
1.271167      	((-1.113277e-03 -1.582630e-07 -1.493884e-07) (-1.089632e-03 -1.427644e-08 -1.269615e-08)) ((-6.248757e-14 2.027613e-11 -3.525735e-12) (-1.118675e-11 -6.230585e-11 4.283711e-11))
1.5374        	((-1.234448e-03 -2.257513e-07 -2.319396e-07) (-1.017170e-03 -1.569224e-08 -1.233426e-08)) ((-5.598334e-13 2.393276e-11 -4.894053e-12) (-8.941470e-12 -5.508469e-11 1.213211e-10))
1.853901      	((-1.395554e-03 -1.795775e-07 -2.358112e-07) (-9.544696e-04 -1.787535e-08 -1.290654e-08)) ((-2.793355e-13 2.429449e-11 -6.401072e-12) (2.753299e-12 -1.616331e-11 1.685851e-10))
2.220223      	((-1.597008e-03 -9.367041e-08 -1.221230e-07) (-9.020571e-04 -2.112689e-08 -1.500603e-08)) ((-2.281340e-12 1.978970e-11 -5.838631e-12) (2.353849e-11 4.115521e-11 1.343158e-10))
2.635962      	((-1.836522e-03 1.875898e-07 1.767103e-07) (-8.588380e-04 -2.076038e-08 -1.704068e-08)) ((-2.043936e-12 9.374522e-12 -5.433514e-12) (3.171060e-11 8.868302e-11 1.077165e-10))
3.100637      	((-2.111593e-03 4.003794e-07 3.770341e-07) (-8.233969e-04 -2.043012e-08 -1.717519e-08)) ((3.760589e-12 4.153525e-12 -5.720341e-12) (2.952611e-11 9.333441e-12 1.981108e-10))
3.584142      	((-2.404511e-03 7.069274e-07 6.488764e-07) (-7.958538e-04 -2.025934e-08 -1.938488e-08)) ((1.503022e-11 -2.740767e-12 -1.019474e-11) (-6.606234e-12 -4.985142e-10 6.570118e-10))
4.060866      	((-2.687156e-03 1.040136e-06 1.004153e-06) (-7.747997e-04 -1.979464e-08 -2.335455e-08)) ((1.734528e-11 -2.022129e-12 -1.419992e-11) (2.305367e-11 -1.368838e-09 1.371725e-09))
4.530662      	((-2.947867e-03 1.399894e-06 1.395274e-06) (-7.584606e-04 -1.592182e-08 -1.871113e-08)) ((1.971596e-11 2.615886e-12 -2.013966e-11) (4.733393e-11 -1.967033e-09 1.888788e-09))
4.994979      	((-3.165060e-03 2.088008e-06 2.116884e-06) (-7.459142e-04 7.534554e-09 6.172272e-09)) ((2.671461e-11 -3.996286e-12 -2.318203e-11) (1.696597e-11 -1.714154e-09 1.610817e-09))
5.456358      	((-3.320526e-03 2.761792e-06 2.790764e-06) (-7.359275e-04 5.233677e-08 5.187017e-08)) ((2.148774e-11 -1.916449e-11 -1.449378e-11) (4.952216e-11 -8.482986e-10 7.795190e-10))
5.916986      	((-3.416116e-03 3.489768e-06 3.558465e-06) (-7.269861e-04 9.824091e-08 1.035160e-07)) ((1.822746e-11 -1.759403e-11 -1.338647e-11) (8.687613e-11 6.736903e-12 -2.487433e-11))
6.377377      	((-3.449863e-03 4.117591e-06 4.132160e-06) (-7.183344e-04 1.318126e-07 1.391895e-07)) ((3.224899e-11 -2.293088e-11 -3.483940e-12) (4.010607e-11 2.403368e-10 -1.771969e-10))
6.836781      	((-3.421540e-03 4.084554e-06 4.094925e-06) (-7.099349e-04 1.500650e-07 1.550876e-07)) ((3.650562e-11 -3.777144e-11 1.719248e-11) (-4.437660e-12 -2.418615e-10 2.441361e-10))
7.294417      	((-3.359832e-03 4.559443e-06 4.537806e-06) (-7.019854e-04 1.727298e-07 1.736214e-07)) ((2.626702e-11 -4.416673e-11 1.222117e-11) (-1.372667e-12 -8.014258e-10 4.657630e-10))
7.750028      	((-3.296430e-03 5.528713e-06 5.489578e-06) (-6.950733e-04 2.138595e-07 2.115662e-07)) ((3.646563e-12 -4.178348e-11 -2.968393e-12) (5.558123e-11 -1.000605e-09 4.375860e-10))
8.203782      	((-3.235968e-03 6.261447e-06 6.302673e-06) (-6.892721e-04 2.671604e-07 2.669757e-07)) ((-4.646917e-12 -4.256316e-11 -9.827553e-12) (4.996960e-11 -8.687111e-10 2.020163e-10))
8.656082      	((-3.198893e-03 6.934599e-06 6.923392e-06) (-6.844060e-04 3.178596e-07 3.169664e-07)) ((-6.049320e-13 -3.263426e-11 -1.720704e-11) (-3.440247e-11 -7.946097e-10 -4.070264e-11))
9.107257      	((-3.183931e-03 7.732076e-06 7.610373e-06) (-6.801919e-04 3.617258e-07 3.580082e-07)) ((1.538371e-11 -3.611172e-11 -2.785320e-11) (-3.971998e-11 -7.883244e-10 7.705532e-11))
9.557444      	((-3.181325e-03 8.479105e-06 8.495641e-06) (-6.764063e-04 3.964413e-07 3.969201e-07)) ((1.912876e-11 -4.106912e-11 -3.530223e-11) (-4.122018e-11 -1.187279e-09 5.835902e-10))
10.006686     	((-3.178259e-03 8.904450e-06 8.982524e-06) (-6.729216e-04 4.244662e-07 4.271680e-07)) ((2.650797e-11 -4.206985e-11 -3.884686e-11) (-1.476166e-10 -1.910532e-09 1.383686e-09))
10.455026     	((-3.167135e-03 9.628034e-06 9.669915e-06) (-6.696060e-04 4.505221e-07 4.521572e-07)) ((2.306527e-11 -4.005808e-11 -3.265049e-11) (-3.168695e-10 -2.794563e-09 2.552263e-09))
10.902569     	((-3.140647e-03 1.092631e-05 1.103308e-05) (-6.662551e-04 4.803893e-07 4.859208e-07)) ((2.064388e-11 -4.935390e-11 -3.268772e-11) (-6.726335e-10 -3.977190e-09 4.094534e-09))
11.349417     	((-3.103603e-03 1.218694e-05 1.207557e-05) (-6.627139e-04 5.148995e-07 5.260974e-07)) ((2.809224e-11 -5.545971e-11 -3.445835e-11) (-9.809808e-10 -5.415069e-09 5.841337e-09))
11.795654     	((-3.067188e-03 1.326352e-05 1.330194e-05) (-6.590870e-04 5.566236e-07 5.721805e-07)) ((3.722068e-11 -6.577169e-11 -3.562048e-11) (-1.036369e-09 -6.756342e-09 7.408686e-09))
12.24135      	((-3.034561e-03 1.469373e-05 1.464248e-05) (-6.555143e-04 6.123087e-07 6.239838e-07)) ((3.443144e-11 -7.703015e-11 -3.573407e-11) (-9.796141e-10 -8.207258e-09 8.692022e-09))
12.686553     	((-3.010493e-03 1.621749e-05 1.614259e-05) (-6.521747e-04 6.799314e-07 6.821874e-07)) ((3.234201e-11 -8.655886e-11 -3.405295e-11) (-8.260245e-10 -9.655948e-09 9.980337e-09))
13.131306     	((-2.994084e-03 1.806313e-05 1.779781e-05) (-6.491415e-04 7.484997e-07 7.473212e-07)) ((2.616174e-11 -9.471413e-11 -3.334783e-11) (-5.787800e-10 -1.108992e-08 1.168450e-08))
13.575653     	((-2.984469e-03 1.975959e-05 1.926433e-05) (-6.463432e-04 8.159003e-07 8.116484e-07)) ((2.663217e-11 -1.037069e-10 -2.943847e-11) (-3.664671e-10 -1.298801e-08 1.396521e-08))
14.01963      	((-2.977036e-03 2.180818e-05 2.143699e-05) (-6.436911e-04 8.858852e-07 8.824581e-07)) ((2.651549e-11 -1.201455e-10 -1.557285e-11) (-3.146115e-10 -1.541275e-08 1.670375e-08))
14.463259     	((-2.969833e-03 2.325236e-05 2.301661e-05) (-6.411416e-04 9.507066e-07 9.556097e-07)) ((1.292295e-11 -1.154830e-10 -1.164919e-11) (-3.732894e-10 -1.812088e-08 1.964922e-08))
14.90654      	((-2.960874e-03 2.520243e-05 2.516414e-05) (-6.386710e-04 1.018399e-06 1.031354e-06)) ((-1.116614e-11 -1.209123e-10 -1.393364e-11) (-3.491425e-10 -2.108726e-08 2.261941e-08))
15.349486     	((-2.948980e-03 2.709796e-05 2.737238e-05) (-6.362642e-04 1.098407e-06 1.115280e-06)) ((-3.606979e-11 -1.228505e-10 -1.783980e-11) (-3.135938e-10 -2.404429e-08 2.531333e-08))
15.792059     	((-2.936196e-03 2.928295e-05 2.983789e-05) (-6.339284e-04 1.186360e-06 1.211424e-06)) ((-5.671343e-11 -1.231988e-10 -2.069664e-11) (-3.782845e-10 -2.674484e-08 2.772427e-08))
16.23433      	((-2.922874e-03 3.173419e-05 3.248594e-05) (-6.316846e-04 1.284714e-06 1.318545e-06)) ((-7.563741e-11 -1.270811e-10 -2.263857e-11) (-4.697405e-10 -2.922023e-08 2.966237e-08))
16.676349     	((-2.911423e-03 3.409888e-05 3.491301e-05) (-6.296007e-04 1.392706e-06 1.436865e-06)) ((-7.688913e-11 -1.293349e-10 -2.938655e-11) (-4.751237e-10 -3.118009e-08 3.139265e-08))
17.118128     	((-2.901184e-03 3.683831e-05 3.765148e-05) (-6.277362e-04 1.522622e-06 1.563558e-06)) ((-7.358371e-11 -1.433678e-10 -3.786642e-11) (-2.702080e-10 -3.280974e-08 3.275575e-08))
17.559672     	((-2.889989e-03 4.036636e-05 4.111975e-05) (-6.260304e-04 1.678913e-06 1.714533e-06)) ((-7.366854e-11 -1.618972e-10 -4.379384e-11) (-4.829157e-11 -3.410417e-08 3.417649e-08))
18.000977     	((-2.877833e-03 4.378487e-05 4.489714e-05) (-6.243753e-04 1.848126e-06 1.895471e-06)) ((-7.203815e-11 -1.860870e-10 -4.830637e-11) (3.087447e-11 -3.535572e-08 3.621040e-08))
18.442073     	((-2.868995e-03 4.700274e-05 4.787426e-05) (-6.227543e-04 2.025061e-06 2.080100e-06)) ((-6.936608e-11 -1.952024e-10 -5.654842e-11) (-6.288774e-12 -3.733362e-08 3.843947e-08))
18.883025     	((-2.860090e-03 5.047133e-05 5.131148e-05) (-6.211501e-04 2.208767e-06 2.265972e-06)) ((-6.918396e-11 -2.105683e-10 -6.011021e-11) (-3.950073e-11 -3.982779e-08 4.078694e-08))
19.323823     	((-2.849488e-03 5.427747e-05 5.506949e-05) (-6.195207e-04 2.400469e-06 2.457635e-06)) ((-7.326482e-11 -2.290143e-10 -6.153592e-11) (-6.511344e-12 -4.230980e-08 4.328376e-08))
19.764458     	((-2.838257e-03 5.851375e-05 5.937908e-05) (-6.178537e-04 2.605960e-06 2.663344e-06)) ((-7.450123e-11 -2.527990e-10 -6.090931e-11) (3.459019e-11 -4.493215e-08 4.589412e-08))
20.204949     	((-2.827970e-03 6.302419e-05 6.380115e-05) (-6.161795e-04 2.828870e-06 2.882191e-06)) ((-7.444363e-11 -2.771606e-10 -5.716524e-11) (4.670591e-11 -4.800728e-08 4.862156e-08))
20.645311     	((-2.819200e-03 6.760033e-05 6.858727e-05) (-6.145447e-04 3.060039e-06 3.112569e-06)) ((-7.558320e-11 -3.081023e-10 -5.420344e-11) (-1.094021e-12 -5.149799e-08 5.179186e-08))
21.085551     	((-2.811173e-03 7.225780e-05 7.341108e-05) (-6.129773e-04 3.296962e-06 3.353067e-06)) ((-7.672806e-11 -3.344122e-10 -5.307389e-11) (-8.506935e-11 -5.521961e-08 5.539749e-08))
21.525675     	((-2.803474e-03 7.749226e-05 7.920117e-05) (-6.114881e-04 3.547900e-06 3.613655e-06)) ((-8.005573e-11 -3.654256e-10 -4.945229e-11) (-1.016219e-10 -5.910738e-08 5.923122e-08))
21.96569      	((-2.795651e-03 8.361619e-05 8.600242e-05) (-6.100725e-04 3.827294e-06 3.912844e-06)) ((-8.250155e-11 -4.055182e-10 -4.579080e-11) (-1.160371e-10 -6.304371e-08 6.311485e-08))
22.405604     	((-2.787758e-03 9.036406e-05 9.340295e-05) (-6.087114e-04 4.144389e-06 4.256985e-06)) ((-8.661943e-11 -4.447188e-10 -4.143969e-11) (-1.941488e-10 -6.685835e-08 6.686496e-08))
22.845425     	((-2.780154e-03 9.795994e-05 1.015447e-04) (-6.073833e-04 4.506270e-06 4.647390e-06)) ((-8.942238e-11 -4.890989e-10 -3.888194e-11) (-2.901937e-10 -7.059855e-08 7.040703e-08))
23.285146     	((-2.772463e-03 1.064457e-04 1.106173e-04) (-6.060685e-04 4.913235e-06 5.082784e-06)) ((-8.889060e-11 -5.406870e-10 -3.604679e-11) (-3.708231e-10 -7.468283e-08 7.407567e-08))
23.72477      	((-2.764821e-03 1.157638e-04 1.208927e-04) (-6.047635e-04 5.354684e-06 5.561262e-06)) ((-8.293757e-11 -6.014992e-10 -3.002938e-11) (-4.391050e-10 -7.973734e-08 7.853672e-08))
24.1643       	((-2.757433e-03 1.259820e-04 1.318616e-04) (-6.034853e-04 5.823710e-06 6.076251e-06)) ((-7.717329e-11 -6.653945e-10 -2.155670e-11) (-5.047934e-10 -8.608502e-08 8.422957e-08))
24.603739     	((-2.749883e-03 1.371118e-04 1.440143e-04) (-6.022427e-04 6.331237e-06 6.632847e-06)) ((-6.749352e-11 -7.327254e-10 -1.324334e-11) (-5.087277e-10 -9.353097e-08 9.085564e-08))
25.043088     	((-2.742522e-03 1.492277e-04 1.568343e-04) (-6.010314e-04 6.891676e-06 7.244366e-06)) ((-5.161846e-11 -7.944297e-10 -9.096404e-12) (-4.621975e-10 -1.015043e-07 9.800764e-08))
25.482346     	((-2.736626e-03 1.617933e-04 1.704416e-04) (-5.998565e-04 7.505387e-06 7.913352e-06)) ((-3.241165e-11 -8.467090e-10 -9.751414e-12) (-4.305237e-10 -1.098990e-07 1.056060e-07))
25.92151      	((-2.731752e-03 1.753587e-04 1.848768e-04) (-5.987201e-04 8.167641e-06 8.635285e-06)) ((-5.617804e-12 -8.924701e-10 -1.456383e-11) (-3.920559e-10 -1.190692e-07 1.139589e-07))
26.360541     	((-2.728035e-03 1.898770e-04 2.001550e-04) (-5.976300e-04 8.882401e-06 9.407452e-06)) ((2.864499e-11 -9.407138e-10 -1.952457e-11) (-3.758773e-10 -1.290953e-07 1.230966e-07))
26.79943      	((-2.724324e-03 2.056371e-04 2.163974e-04) (-5.965806e-04 9.657275e-06 1.022968e-05)) ((7.253980e-11 -9.954895e-10 -2.364085e-11) (-3.671347e-10 -1.400469e-07 1.329308e-07))
27.238189     	((-2.720919e-03 2.227830e-04 2.341534e-04) (-5.955653e-04 1.050312e-05 1.111207e-05)) ((1.247383e-10 -1.060599e-09 -2.550739e-11) (-2.749274e-10 -1.517501e-07 1.432828e-07))
27.676819     	((-2.717572e-03 2.413059e-04 2.533918e-04) (-5.945891e-04 1.143021e-05 1.206896e-05)) ((1.775376e-10 -1.136100e-09 -2.366146e-11) (-4.901166e-11 -1.638473e-07 1.539436e-07))
28.115324     	((-2.714211e-03 2.612633e-04 2.744360e-04) (-5.936499e-04 1.244047e-05 1.311433e-05)) ((2.285522e-10 -1.227026e-09 -1.935528e-11) (1.719674e-10 -1.762336e-07 1.649152e-07))
28.553707     	((-2.711866e-03 2.829572e-04 2.971829e-04) (-5.927565e-04 1.353698e-05 1.425619e-05)) ((2.789264e-10 -1.326310e-09 -1.486537e-11) (2.417004e-10 -1.888571e-07 1.763210e-07))
28.991974     	((-2.710028e-03 3.066802e-04 3.217750e-04) (-5.919159e-04 1.472909e-05 1.549543e-05)) ((3.349360e-10 -1.435108e-09 -1.211813e-11) (1.679157e-10 -2.020481e-07 1.882622e-07))
29.430129     	((-2.708563e-03 3.323325e-04 3.485107e-04) (-5.911269e-04 1.602929e-05 1.684328e-05)) ((3.979020e-10 -1.552448e-09 -1.241111e-11) (9.392301e-11 -2.156959e-07 2.006745e-07))
29.868178     	((-2.708383e-03 3.599208e-04 3.775122e-04) (-5.904118e-04 1.744755e-05 1.831383e-05)) ((4.702210e-10 -1.676018e-09 -1.644481e-11) (1.149999e-10 -2.294081e-07 2.133511e-07))
30.306125     	((-2.709140e-03 3.896532e-04 4.087057e-04) (-5.897812e-04 1.898918e-05 1.991659e-05)) ((5.423557e-10 -1.805176e-09 -1.933379e-11) (2.608137e-10 -2.431389e-07 2.264500e-07))
30.743978     	((-2.711110e-03 4.215679e-04 4.423622e-04) (-5.892449e-04 2.066458e-05 2.166743e-05)) ((6.103149e-10 -1.940142e-09 -2.122065e-11) (5.303477e-10 -2.567260e-07 2.398361e-07))
31.1817       	((-2.713915e-03 4.567792e-04 4.795961e-04) (-5.887918e-04 2.249307e-05 2.358698e-05)) ((6.850888e-10 -2.099297e-09 -2.313611e-11) (8.846498e-10 -2.706504e-07 2.537458e-07))
31.619244     	((-2.717956e-03 4.954279e-04 5.202354e-04) (-5.884057e-04 2.449757e-05 2.569065e-05)) ((7.674455e-10 -2.279055e-09 -2.618486e-11) (1.127786e-09 -2.857327e-07 2.686856e-07))
32.056588     	((-2.723846e-03 5.370584e-04 5.644126e-04) (-5.880904e-04 2.668778e-05 2.799594e-05)) ((8.537682e-10 -2.478827e-09 -3.188804e-11) (1.204535e-09 -3.022780e-07 2.849283e-07))
32.493718     	((-2.731090e-03 5.830133e-04 6.130394e-04) (-5.878450e-04 2.908157e-05 3.052345e-05)) ((9.614938e-10 -2.702754e-09 -3.853282e-11) (1.310886e-09 -3.207267e-07 3.030123e-07))
32.930617     	((-2.740185e-03 6.328500e-04 6.656211e-04) (-5.876883e-04 3.170000e-05 3.328415e-05)) ((1.095988e-09 -2.941535e-09 -4.635480e-11) (1.404542e-09 -3.412421e-07 3.228275e-07))
33.367267     	((-2.751869e-03 6.872443e-04 7.229913e-04) (-5.876536e-04 3.455733e-05 3.629292e-05)) ((1.257812e-09 -3.205760e-09 -5.207583e-11) (1.287914e-09 -3.637215e-07 3.441854e-07))
33.803649     	((-2.766403e-03 7.462204e-04 7.855141e-04) (-5.877649e-04 3.766316e-05 3.957133e-05)) ((1.446444e-09 -3.490040e-09 -5.128016e-11) (8.489532e-10 -3.884690e-07 3.677858e-07))
34.23974      	((-2.784474e-03 8.100660e-04 8.531812e-04) (-5.880590e-04 4.102288e-05 4.312208e-05)) ((1.659310e-09 -3.792043e-09 -4.810951e-11) (1.360904e-10 -4.160527e-07 3.940141e-07))
34.675589     	((-2.807238e-03 8.787797e-04 9.259624e-04) (-5.886154e-04 4.464492e-05 4.696117e-05)) ((1.891737e-09 -4.108789e-09 -5.122603e-11) (-7.508285e-10 -4.457778e-07 4.225760e-07))
35.111231     	((-2.835359e-03 9.527113e-04 1.004553e-03) (-5.895061e-04 4.855915e-05 5.113630e-05)) ((2.170114e-09 -4.450290e-09 -5.563667e-11) (-1.473099e-09 -4.764355e-07 4.525190e-07))
35.54666      	((-2.868964e-03 1.031994e-03 1.088483e-03) (-5.907321e-04 5.281049e-05 5.566878e-05)) ((2.498572e-09 -4.802964e-09 -5.630736e-11) (-1.875100e-09 -5.088892e-07 4.838908e-07))
35.98187      	((-2.908377e-03 1.114843e-03 1.176380e-03) (-5.922670e-04 5.738321e-05 6.053211e-05)) ((2.869236e-09 -5.152396e-09 -4.198244e-11) (-2.058566e-09 -5.457671e-07 5.189436e-07))
36.416864     	((-2.953807e-03 1.201471e-03 1.268618e-03) (-5.941224e-04 6.223698e-05 6.571816e-05)) ((3.281120e-09 -5.510476e-09 -1.512671e-11) (-2.287167e-09 -5.871850e-07 5.582026e-07))
36.851653     	((-3.005494e-03 1.292832e-03 1.365014e-03) (-5.963485e-04 6.738744e-05 7.122001e-05)) ((3.734865e-09 -5.856622e-09 2.739167e-11) (-2.513654e-09 -6.317624e-07 6.004717e-07))
37.28617      	((-3.063207e-03 1.387848e-03 1.466331e-03) (-5.989852e-04 7.285256e-05 7.703952e-05)) ((4.228056e-09 -6.179598e-09 7.536873e-11) (-2.974157e-09 -6.785555e-07 6.445988e-07))
37.720356     	((-3.130903e-03 1.488073e-03 1.572167e-03) (-6.021155e-04 7.864863e-05 8.320228e-05)) ((4.756400e-09 -6.480081e-09 1.330591e-10) (-3.432496e-09 -7.263214e-07 6.897057e-07))
38.154234     	((-3.207326e-03 1.591348e-03 1.680805e-03) (-6.058463e-04 8.483360e-05 8.975825e-05)) ((5.341205e-09 -6.741518e-09 1.887984e-10) (-3.655403e-09 -7.704713e-07 7.316057e-07))
38.587849     	((-3.293331e-03 1.695843e-03 1.791541e-03) (-6.102551e-04 9.144599e-05 9.674575e-05)) ((5.979353e-09 -6.960728e-09 2.397439e-10) (-3.772601e-09 -8.060290e-07 7.655878e-07))
39.021164     	((-3.388887e-03 1.800810e-03 1.902156e-03) (-6.152776e-04 9.839267e-05 1.040734e-04)) ((6.681882e-09 -7.086885e-09 2.890069e-10) (-3.718132e-09 -8.372414e-07 7.962198e-07))
39.454188     	((-3.495875e-03 1.906475e-03 2.012485e-03) (-6.209376e-04 1.055890e-04 1.116435e-04)) ((7.398250e-09 -7.179412e-09 3.771427e-10) (-3.390908e-09 -8.677736e-07 8.265644e-07))
39.886925     	((-3.614130e-03 2.008631e-03 2.119303e-03) (-6.273907e-04 1.129402e-04 1.193483e-04)) ((8.115360e-09 -7.218416e-09 5.282299e-10) (-2.964838e-09 -8.973735e-07 8.547098e-07))
40.319354     	((-3.739086e-03 2.108093e-03 2.222561e-03) (-6.346241e-04 1.203758e-04 1.271168e-04)) ((8.808810e-09 -7.222386e-09 7.240671e-10) (-2.222324e-09 -9.257848e-07 8.809172e-07))
40.75146      	((-3.869835e-03 2.198704e-03 2.316653e-03) (-6.425493e-04 1.277640e-04 1.348276e-04)) ((9.455618e-09 -7.143821e-09 9.917742e-10) (-1.095399e-09 -9.531134e-07 9.068858e-07))
41.183246     	((-4.003427e-03 2.278491e-03 2.399774e-03) (-6.510868e-04 1.349963e-04 1.424089e-04)) ((1.002660e-08 -6.976646e-09 1.321831e-09) (1.644644e-10 -9.741113e-07 9.284933e-07))
41.6148       	((-4.136169e-03 2.342875e-03 2.466295e-03) (-6.601127e-04 1.419842e-04 1.497743e-04)) ((1.049563e-08 -6.724708e-09 1.665639e-09) (1.540581e-09 -9.829119e-07 9.397132e-07))
42.046195     	((-4.263900e-03 2.387885e-03 2.511977e-03) (-6.694688e-04 1.485739e-04 1.567046e-04)) ((1.083732e-08 -6.384350e-09 1.998821e-09) (3.057799e-09 -9.795250e-07 9.386209e-07))
42.477473     	((-4.379217e-03 2.406514e-03 2.530426e-03) (-6.788873e-04 1.545158e-04 1.629441e-04)) ((1.100932e-08 -5.908565e-09 2.303288e-09) (4.493836e-09 -9.624168e-07 9.246268e-07))
42.908667     	((-4.475011e-03 2.396554e-03 2.517794e-03) (-6.880853e-04 1.595743e-04 1.682318e-04)) ((1.099136e-08 -5.290272e-09 2.598514e-09) (5.580522e-09 -9.282053e-07 8.942301e-07))
43.339795     	((-4.544774e-03 2.354366e-03 2.470791e-03) (-6.968836e-04 1.634591e-04 1.722650e-04)) ((1.077442e-08 -4.514317e-09 2.886476e-09) (6.247189e-09 -8.731099e-07 8.435226e-07))
43.770894     	((-4.582329e-03 2.273370e-03 2.383810e-03) (-7.048793e-04 1.658873e-04 1.747545e-04)) ((1.032762e-08 -3.576773e-09 3.137743e-09) (6.684001e-09 -7.951798e-07 7.706477e-07))
44.202044     	((-4.575943e-03 2.149329e-03 2.250339e-03) (-7.115423e-04 1.664756e-04 1.752660e-04)) ((9.567448e-09 -2.525611e-09 3.411158e-09) (6.538707e-09 -6.994295e-07 6.797318e-07))
44.633323     	((-4.515498e-03 1.972328e-03 2.062923e-03) (-7.163542e-04 1.646068e-04 1.731900e-04)) ((8.438293e-09 -1.442959e-09 3.764741e-09) (6.053223e-09 -5.951338e-07 5.802664e-07))
45.064797     	((-4.405713e-03 1.737923e-03 1.815319e-03) (-7.188169e-04 1.596098e-04 1.678588e-04)) ((6.971823e-09 -2.642748e-10 4.097982e-09) (5.841216e-09 -4.911847e-07 4.816475e-07))
