# Forces      
# CofR        : (0.000000e+00 0.000000e+00 0.000000e+00)
# Time        forces(pressure viscous)	moments(pressure viscous)
0             	((0.000000e+00 0.000000e+00 0.000000e+00) (-1.592705e-02 2.058361e-12 -4.911202e-13)) ((0.000000e+00 0.000000e+00 0.000000e+00) (9.481934e-16 6.372377e-14 2.197042e-13))
0.012         	((-4.702835e+00 8.785537e-05 8.836179e-05) (-2.253707e-02 -3.488454e-08 -1.411840e-08)) ((-3.080845e-10 -2.946517e-10 2.793937e-10) (-2.067369e-11 -2.005300e-08 1.952217e-08))
0.0264        	((1.384270e+00 1.004266e-04 1.095261e-04) (-2.221849e-02 1.278721e-08 -2.798360e-08)) ((-5.941575e-10 2.543343e-08 6.750953e-09) (3.473864e-11 3.262489e-09 -4.323385e-09))
0.04368       	((2.671820e-01 -5.190046e-05 -8.690981e-05) (-1.842649e-02 4.855839e-07 1.281352e-07)) ((-3.551804e-10 -2.311049e-08 -6.972785e-09) (1.621641e-10 2.389201e-10 -3.209580e-09))
0.064416      	((2.004745e-02 -3.755755e-06 4.729354e-06) (-1.630896e-02 2.337681e-07 -1.072829e-07)) ((9.399409e-10 1.253315e-09 5.146644e-10) (3.030654e-10 -2.546711e-08 1.865991e-08))
0.0892992     	((-9.083312e-03 -7.112188e-05 -7.968391e-05) (-1.498265e-02 6.279834e-08 -6.815563e-08)) ((2.627477e-09 -4.738190e-10 -1.882329e-09) (8.482258e-10 -2.176597e-08 1.669567e-08))
0.119159      	((-8.177232e-03 4.363436e-05 4.562205e-05) (-1.395932e-02 2.393040e-07 9.734587e-07)) ((1.711982e-09 1.951485e-10 -1.371566e-10) (1.696761e-09 -1.592425e-08 1.204904e-08))
0.154991      	((-1.132207e-02 -2.277369e-05 -5.061490e-06) (-1.320113e-02 -1.770512e-07 8.430369e-07)) ((-4.852038e-10 1.086505e-09 8.849346e-10) (1.742775e-09 -1.504643e-08 7.470529e-09))
0.197989      	((-1.193130e-02 4.355272e-06 1.175165e-05) (-1.261307e-02 -1.697206e-07 2.955670e-07)) ((5.230988e-10 -1.994784e-10 -8.095440e-10) (1.067278e-09 -8.895447e-09 6.177982e-09))
0.249587      	((-1.345022e-02 -1.280233e-05 -1.478539e-05) (-1.211781e-02 -1.437420e-07 2.286622e-07)) ((3.131890e-10 3.862834e-10 -6.428768e-10) (3.156833e-10 -6.993060e-09 6.446546e-09))
0.311504      	((-1.485938e-02 2.004961e-06 6.731814e-06) (-1.168651e-02 -3.269124e-07 3.494924e-08)) ((5.035283e-11 2.802866e-10 7.651401e-11) (-1.937049e-11 -5.522718e-09 5.357483e-09))
0.383879      	((-1.707688e-02 -4.496524e-06 -5.757602e-06) (-1.131504e-02 -1.981073e-07 -1.574078e-07)) ((1.971500e-10 2.158926e-10 -1.002457e-10) (-2.404895e-11 -8.430379e-10 -2.845402e-10))
0.466715      	((-1.967909e-02 5.575880e-06 1.201870e-06) (-1.100885e-02 -9.617674e-08 -1.705764e-07)) ((9.203408e-11 3.836965e-10 -3.000355e-10) (-6.784071e-11 3.933313e-09 -2.166413e-09))
0.560002      	((-2.287073e-02 1.208447e-06 -4.517765e-07) (-1.076389e-02 -1.104684e-07 -8.151259e-08)) ((2.342559e-10 6.509337e-11 -2.780918e-11) (-9.499205e-11 3.247417e-09 -1.335900e-09))
0.663712      	((-2.615605e-02 7.695315e-06 6.415688e-06) (-1.057054e-02 -8.623136e-08 2.140766e-08)) ((2.579147e-10 -4.767761e-11 5.595386e-11) (5.447036e-11 3.552305e-09 -2.100724e-09))
0.767421      	((-2.964439e-02 9.066415e-06 9.520651e-06) (-1.042495e-02 -1.117635e-07 1.018519e-07)) ((3.166402e-10 -3.210448e-10 -6.570364e-12) (1.260623e-10 1.623432e-09 5.107861e-10))
0.870494      	((-3.291855e-02 1.540649e-05 1.665880e-05) (-1.029878e-02 -2.038592e-07 2.766626e-08)) ((3.790953e-10 -2.796048e-10 -6.944183e-11) (3.745770e-10 -8.618080e-09 1.036763e-08))
0.973053      	((-3.578428e-02 2.159373e-05 2.201593e-05) (-1.017324e-02 -3.409284e-07 -1.197834e-07)) ((5.078158e-10 -2.776750e-10 -2.200062e-10) (4.866964e-10 -2.325449e-08 2.412645e-08))
1.075424      	((-3.817108e-02 3.035807e-05 3.054642e-05) (-1.004710e-02 -2.991567e-07 -1.114877e-07)) ((7.034771e-10 -6.057586e-10 -3.340264e-10) (3.094183e-10 -3.033726e-08 2.992846e-08))
1.177967      	((-3.986802e-02 4.015767e-05 4.116259e-05) (-9.925495e-03 1.938045e-09 1.477750e-07)) ((9.504396e-10 -1.042828e-09 -3.266538e-10) (3.978289e-10 -2.212652e-08 2.193006e-08))
1.28086       	((-4.065246e-02 5.097877e-05 5.266238e-05) (-9.810030e-03 3.946538e-07 5.002691e-07)) ((1.327503e-09 -1.137732e-09 -2.126229e-10) (4.733140e-10 -9.398537e-09 9.158245e-09))
1.384065      	((-4.083095e-02 5.915728e-05 6.111114e-05) (-9.700862e-03 6.689902e-07 7.101919e-07)) ((1.553203e-09 -9.427155e-10 -8.110617e-11) (2.755109e-10 -4.724332e-09 4.595584e-09))
1.487453      	((-4.066331e-02 6.657330e-05 6.961537e-05) (-9.600375e-03 7.695671e-07 7.589215e-07)) ((1.762239e-09 -8.163835e-10 1.363098e-10) (-1.589711e-10 -8.811299e-09 7.226550e-09))
1.590958      	((-4.022214e-02 7.941638e-05 8.423505e-05) (-9.510124e-03 8.283123e-07 8.241602e-07)) ((2.071505e-09 -1.164290e-09 3.452375e-10) (-2.668533e-10 -1.422581e-08 1.045503e-08))
1.694587      	((-3.988668e-02 8.920514e-05 9.826127e-05) (-9.430487e-03 9.808971e-07 9.919949e-07)) ((2.470457e-09 -1.631951e-09 2.465449e-10) (2.908266e-10 -1.630146e-08 9.934445e-09))
1.798363      	((-3.965360e-02 9.943608e-05 1.134014e-04) (-9.360628e-03 1.189943e-06 1.238286e-06)) ((2.599434e-09 -1.728450e-09 1.897563e-11) (1.184142e-09 -1.623714e-08 8.031028e-09))
1.902288      	((-3.934841e-02 1.128176e-04 1.293516e-04) (-9.298454e-03 1.362311e-06 1.489992e-06)) ((2.709126e-09 -1.703374e-09 -2.258271e-10) (2.252383e-09 -1.781743e-08 8.902727e-09))
2.006347      	((-3.896085e-02 1.289147e-04 1.469208e-04) (-9.241223e-03 1.511737e-06 1.715807e-06)) ((2.891887e-09 -1.932343e-09 -4.596201e-10) (2.347390e-09 -2.405814e-08 1.462724e-08))
2.110531      	((-3.858847e-02 1.448545e-04 1.669394e-04) (-9.187380e-03 1.661518e-06 1.896188e-06)) ((3.139997e-09 -2.096211e-09 -7.944964e-10) (2.513435e-09 -3.517478e-08 2.364618e-08))
2.214835      	((-3.823041e-02 1.670214e-04 1.890771e-04) (-9.137083e-03 1.815625e-06 2.050938e-06)) ((3.493887e-09 -2.214875e-09 -1.010305e-09) (2.499227e-09 -4.954002e-08 3.587822e-08))
2.319134      	((-3.792065e-02 1.855660e-04 2.128716e-04) (-9.091058e-03 1.962934e-06 2.216224e-06)) ((3.481435e-09 -2.266210e-09 -1.256997e-09) (1.647399e-09 -6.535733e-08 5.157754e-08))
2.42336       	((-3.762812e-02 2.102879e-04 2.355245e-04) (-9.049583e-03 2.156302e-06 2.445496e-06)) ((3.497386e-09 -2.445572e-09 -1.525306e-09) (6.786778e-10 -8.113289e-08 6.601976e-08))
2.527514      	((-3.740334e-02 2.405367e-04 2.711707e-04) (-9.012294e-03 2.449474e-06 2.766215e-06)) ((3.458061e-09 -2.566870e-09 -1.611929e-09) (-7.145322e-10 -9.618446e-08 7.912053e-08))
2.631599      	((-3.722147e-02 2.766850e-04 3.075831e-04) (-8.978588e-03 2.792391e-06 3.145451e-06)) ((3.251318e-09 -2.856109e-09 -1.740619e-09) (-2.440973e-09 -1.116376e-07 9.321048e-08))
2.735622      	((-3.700794e-02 3.167975e-04 3.516123e-04) (-8.947602e-03 3.256433e-06 3.616825e-06)) ((2.894912e-09 -3.080942e-09 -1.922506e-09) (-3.041854e-09 -1.274082e-07 1.064253e-07))
2.839588      	((-3.673337e-02 3.594957e-04 3.987586e-04) (-8.918478e-03 3.813939e-06 4.201893e-06)) ((2.727779e-09 -3.363075e-09 -2.219190e-09) (-2.777842e-09 -1.425825e-07 1.198306e-07))
2.943501      	((-3.646716e-02 4.119650e-04 4.506684e-04) (-8.891068e-03 4.450379e-06 4.884506e-06)) ((2.444451e-09 -3.512816e-09 -2.523247e-09) (-2.055298e-09 -1.577338e-07 1.329637e-07))
3.047366      	((-3.623634e-02 4.664027e-04 5.208454e-04) (-8.865435e-03 5.188768e-06 5.641085e-06)) ((2.014542e-09 -3.864266e-09 -2.637285e-09) (-1.837316e-09 -1.756402e-07 1.475385e-07))
3.151189      	((-3.605179e-02 5.343678e-04 5.890130e-04) (-8.841544e-03 6.069621e-06 6.493095e-06)) ((1.496403e-09 -4.270432e-09 -2.818772e-09) (-1.348250e-09 -1.953952e-07 1.637701e-07))
3.254972      	((-3.592801e-02 6.085512e-04 6.635698e-04) (-8.819508e-03 7.072505e-06 7.476920e-06)) ((8.412979e-10 -4.785581e-09 -2.988422e-09) (-9.057630e-10 -2.150456e-07 1.835697e-07))
3.35872       	((-3.584001e-02 6.904810e-04 7.511565e-04) (-8.799353e-03 8.188917e-06 8.580497e-06)) ((2.685764e-10 -5.446438e-09 -3.215907e-09) (-1.989375e-09 -2.387514e-07 2.064022e-07))
3.462434      	((-3.574111e-02 7.837060e-04 8.497532e-04) (-8.780772e-03 9.444202e-06 9.812207e-06)) ((-2.304662e-10 -6.071705e-09 -3.444924e-09) (-3.563011e-09 -2.666809e-07 2.308875e-07))
3.566112      	((-3.562963e-02 8.875898e-04 9.574831e-04) (-8.763471e-03 1.086780e-05 1.119213e-05)) ((-7.139713e-10 -6.700300e-09 -3.638833e-09) (-4.496277e-09 -2.963620e-07 2.575094e-07))
3.669755      	((-3.549580e-02 1.002117e-03 1.078147e-03) (-8.747235e-03 1.240200e-05 1.270626e-05)) ((-1.281179e-09 -7.493384e-09 -3.922925e-09) (-5.110876e-09 -3.309749e-07 2.893923e-07))
3.773363      	((-3.535232e-02 1.126548e-03 1.210211e-03) (-8.731871e-03 1.399772e-05 1.435357e-05)) ((-1.786665e-09 -8.537812e-09 -4.218983e-09) (-6.376230e-09 -3.724078e-07 3.276821e-07))
3.876936      	((-3.520528e-02 1.267536e-03 1.357455e-03) (-8.717446e-03 1.569215e-05 1.617954e-05)) ((-2.326579e-09 -9.801305e-09 -4.457584e-09) (-7.957380e-09 -4.185090e-07 3.686740e-07))
3.980475      	((-3.507175e-02 1.427120e-03 1.521475e-03) (-8.704161e-03 1.754183e-05 1.816577e-05)) ((-2.843952e-09 -1.121616e-08 -4.655150e-09) (-9.781300e-09 -4.670839e-07 4.107126e-07))
4.083979      	((-3.495564e-02 1.605007e-03 1.709571e-03) (-8.691897e-03 1.962144e-05 2.035213e-05)) ((-3.274306e-09 -1.262817e-08 -4.904216e-09) (-1.229655e-08 -5.201730e-07 4.572087e-07))
4.187452      	((-3.486593e-02 1.803287e-03 1.924642e-03) (-8.680420e-03 2.201096e-05 2.283528e-05)) ((-3.623447e-09 -1.407134e-08 -5.228010e-09) (-1.498961e-08 -5.818016e-07 5.113705e-07))
4.290894      	((-3.478380e-02 2.024199e-03 2.175530e-03) (-8.669565e-03 2.470937e-05 2.566511e-05)) ((-3.832145e-09 -1.566932e-08 -5.688732e-09) (-1.687204e-08 -6.555571e-07 5.741301e-07))
4.394307      	((-3.470872e-02 2.267109e-03 2.465886e-03) (-8.659233e-03 2.772617e-05 2.885263e-05)) ((-4.034895e-09 -1.739947e-08 -6.257526e-09) (-1.783425e-08 -7.443606e-07 6.461296e-07))
4.49769       	((-3.462434e-02 2.542397e-03 2.789796e-03) (-8.649380e-03 3.114080e-05 3.237682e-05)) ((-4.225455e-09 -1.915234e-08 -6.965038e-09) (-1.879541e-08 -8.500021e-07 7.280542e-07))
4.601045      	((-3.454327e-02 2.852101e-03 3.153399e-03) (-8.640040e-03 3.500662e-05 3.622520e-05)) ((-4.389463e-09 -2.114648e-08 -7.952026e-09) (-2.001939e-08 -9.741291e-07 8.203928e-07))
4.704373      	((-3.446107e-02 3.201773e-03 3.559664e-03) (-8.631140e-03 3.933898e-05 4.045517e-05)) ((-4.566080e-09 -2.345289e-08 -9.027189e-09) (-2.053445e-08 -1.117846e-06 9.222100e-07))
4.807675      	((-3.437532e-02 3.597790e-03 4.013421e-03) (-8.622507e-03 4.419095e-05 4.518929e-05)) ((-4.719213e-09 -2.603540e-08 -1.017976e-08) (-2.092730e-08 -1.282168e-06 1.034959e-06))
4.910951      	((-3.429006e-02 4.042681e-03 4.522260e-03) (-8.614080e-03 4.959147e-05 5.064263e-05)) ((-4.730011e-09 -2.885990e-08 -1.147245e-08) (-2.101859e-08 -1.463937e-06 1.162632e-06))
5.014201      	((-3.421547e-02 4.534058e-03 5.087453e-03) (-8.606026e-03 5.558735e-05 5.690560e-05)) ((-4.799096e-09 -3.169152e-08 -1.288755e-08) (-2.027063e-08 -1.661140e-06 1.307271e-06))
5.117425      	((-3.415942e-02 5.076629e-03 5.712983e-03) (-8.598576e-03 6.229558e-05 6.403983e-05)) ((-4.833262e-09 -3.473074e-08 -1.438652e-08) (-1.653769e-08 -1.874589e-06 1.466967e-06))
5.220623      	((-3.411308e-02 5.678544e-03 6.404226e-03) (-8.591831e-03 6.986230e-05 7.215691e-05)) ((-4.887588e-09 -3.812664e-08 -1.579792e-08) (-7.700114e-09 -2.106594e-06 1.639159e-06))
5.323794      	((-3.408455e-02 6.346815e-03 7.173398e-03) (-8.585856e-03 7.840332e-05 8.149436e-05)) ((-5.148974e-09 -4.174559e-08 -1.717369e-08) (6.092168e-09 -2.354913e-06 1.822953e-06))
5.42694       	((-3.407367e-02 7.090023e-03 8.028798e-03) (-8.580637e-03 8.801296e-05 9.220389e-05)) ((-5.290755e-09 -4.541179e-08 -1.861678e-08) (2.418780e-08 -2.620162e-06 2.024123e-06))
5.530059      	((-3.409411e-02 7.911285e-03 8.972407e-03) (-8.576121e-03 9.875488e-05 1.043232e-04)) ((-4.860020e-09 -4.955185e-08 -2.060327e-08) (4.661031e-08 -2.904670e-06 2.250093e-06))
5.63315       	((-3.414385e-02 8.813586e-03 1.001075e-02) (-8.572452e-03 1.105966e-04 1.180001e-04)) ((-3.817862e-09 -5.467575e-08 -2.300584e-08) (7.142532e-08 -3.206236e-06 2.513605e-06))
5.736213      	((-3.422536e-02 9.815832e-03 1.115787e-02) (-8.569781e-03 1.235728e-04 1.334746e-04)) ((-1.968274e-09 -6.069288e-08 -2.593961e-08) (8.914182e-08 -3.524752e-06 2.824592e-06))
5.839248      	((-3.434828e-02 1.091707e-02 1.242283e-02) (-8.568335e-03 1.376493e-04 1.509312e-04)) ((6.868188e-10 -6.727749e-08 -2.959130e-08) (9.502538e-08 -3.863666e-06 3.190330e-06))
5.942254      	((-3.453009e-02 1.213999e-02 1.381148e-02) (-8.568393e-03 1.529439e-04 1.702057e-04)) ((4.171074e-09 -7.405605e-08 -3.369779e-08) (9.555608e-08 -4.242177e-06 3.611994e-06))
6.045231      	((-3.478660e-02 1.347928e-02 1.533068e-02) (-8.570298e-03 1.698913e-04 1.911910e-04)) ((8.185888e-09 -8.109833e-08 -3.835438e-08) (9.003817e-08 -4.674391e-06 4.078008e-06))
6.148178      	((-3.511142e-02 1.496712e-02 1.701825e-02) (-8.574467e-03 1.891147e-04 2.142276e-04)) ((1.311523e-08 -8.901203e-08 -4.271950e-08) (7.484339e-08 -5.156751e-06 4.570700e-06))
6.251094      	((-3.551768e-02 1.660741e-02 1.887529e-02) (-8.581426e-03 2.109116e-04 2.398920e-04)) ((1.936096e-08 -9.729368e-08 -4.713248e-08) (5.178224e-08 -5.675691e-06 5.083002e-06))
6.353977      	((-3.601271e-02 1.841616e-02 2.093515e-02) (-8.591330e-03 2.357051e-04 2.688157e-04)) ((2.698334e-08 -1.066174e-07 -5.192762e-08) (2.622611e-08 -6.211663e-06 5.606616e-06))
6.456826      	((-3.663599e-02 2.041784e-02 2.320727e-02) (-8.604683e-03 2.639041e-04 3.012261e-04)) ((3.669747e-08 -1.168397e-07 -5.743777e-08) (5.204353e-09 -6.777067e-06 6.144377e-06))
6.559635      	((-3.745090e-02 2.260016e-02 2.567650e-02) (-8.622583e-03 2.957832e-04 3.372893e-04)) ((4.798090e-08 -1.283197e-07 -6.257741e-08) (-4.592195e-09 -7.368271e-06 6.686791e-06))
6.662403      	((-3.842690e-02 2.493909e-02 2.832807e-02) (-8.645900e-03 3.310533e-04 3.770483e-04)) ((6.021994e-08 -1.409786e-07 -6.644725e-08) (-2.992225e-09 -7.996291e-06 7.252726e-06))
6.765133      	((-3.962596e-02 2.743647e-02 3.118115e-02) (-8.674988e-03 3.697959e-04 4.211803e-04)) ((7.460559e-08 -1.541897e-07 -6.941327e-08) (-2.005469e-09 -8.652526e-06 7.848343e-06))
6.867834      	((-4.111354e-02 3.001082e-02 3.414585e-02) (-8.710501e-03 4.123011e-04 4.701285e-04)) ((9.164848e-08 -1.658440e-07 -7.178717e-08) (-4.865485e-09 -9.314631e-06 8.449218e-06))
6.97051       	((-4.289992e-02 3.263225e-02 3.712714e-02) (-8.753781e-03 4.583648e-04 5.233108e-04)) ((1.105764e-07 -1.744550e-07 -7.339079e-08) (-1.102546e-08 -9.962814e-06 9.030320e-06))
7.073154      	((-4.497976e-02 3.521382e-02 4.003606e-02) (-8.806029e-03 5.077328e-04 5.797838e-04)) ((1.297089e-07 -1.800650e-07 -7.503577e-08) (-1.713660e-08 -1.055252e-05 9.548605e-06))
7.175765      	((-4.721803e-02 3.770926e-02 4.284251e-02) (-8.867085e-03 5.598983e-04 6.387906e-04)) ((1.480403e-07 -1.839061e-07 -7.660904e-08) (-2.474833e-08 -1.107732e-05 9.995630e-06))
7.2783        	((-4.970139e-02 3.997529e-02 4.537339e-02) (-8.936285e-03 6.134967e-04 6.995163e-04)) ((1.648462e-07 -1.831713e-07 -7.832688e-08) (-3.676593e-08 -1.153308e-05 1.038632e-05))
7.380562      	((-5.236105e-02 4.186992e-02 4.743560e-02) (-9.013848e-03 6.666164e-04 7.596669e-04)) ((1.778116e-07 -1.762500e-07 -8.081276e-08) (-5.467503e-08 -1.191666e-05 1.072466e-05))
7.482552      	((-5.493488e-02 4.318873e-02 4.885399e-02) (-9.098353e-03 7.176316e-04 8.167697e-04)) ((1.850369e-07 -1.623641e-07 -8.332754e-08) (-7.726662e-08 -1.219580e-05 1.096285e-05))
7.584278      	((-5.719869e-02 4.386298e-02 4.951127e-02) (-9.185452e-03 7.642201e-04 8.679330e-04)) ((1.867132e-07 -1.441845e-07 -8.551889e-08) (-9.482422e-08 -1.236852e-05 1.108586e-05))
7.685754      	((-5.891099e-02 4.375467e-02 4.930132e-02) (-9.269278e-03 8.031136e-04 9.100688e-04)) ((1.825024e-07 -1.209442e-07 -8.567721e-08) (-1.015722e-07 -1.245399e-05 1.114112e-05))
7.787007      	((-5.989225e-02 4.268577e-02 4.801504e-02) (-9.344401e-03 8.304982e-04 9.395732e-04)) ((1.699853e-07 -9.035920e-08 -8.296329e-08) (-9.910134e-08 -1.245644e-05 1.115932e-05))
7.888072      	((-6.005269e-02 4.057612e-02 4.556879e-02) (-9.407044e-03 8.423552e-04 9.515919e-04)) ((1.501016e-07 -5.545560e-08 -7.777371e-08) (-9.210655e-08 -1.239598e-05 1.111806e-05))
7.988999      	((-5.924239e-02 3.748678e-02 4.205794e-02) (-9.454778e-03 8.355752e-04 9.425417e-04)) ((1.245020e-07 -2.047730e-08 -6.906016e-08) (-9.019087e-08 -1.228586e-05 1.101470e-05))
8.089846      	((-5.755498e-02 3.332255e-02 3.731468e-02) (-9.486238e-03 8.076015e-04 9.097568e-04)) ((9.205100e-08 1.820068e-08 -5.956955e-08) (-9.643342e-08 -1.214318e-05 1.086671e-05))
8.190677      	((-5.529386e-02 2.829211e-02 3.172432e-02) (-9.502239e-03 7.560224e-04 8.507722e-04)) ((5.657779e-08 6.290711e-08 -5.450423e-08) (-1.069721e-07 -1.201370e-05 1.071366e-05))
8.291567      	((-5.279619e-02 2.298058e-02 2.585238e-02) (-9.508269e-03 6.824883e-04 7.685334e-04)) ((2.154651e-08 1.106591e-07 -5.676598e-08) (-1.289940e-07 -1.184196e-05 1.053710e-05))
8.392592      	((-5.027599e-02 1.788562e-02 2.020641e-02) (-9.508302e-03 5.936907e-04 6.700431e-04)) ((-8.820791e-09 1.560800e-07 -6.155726e-08) (-1.483722e-07 -1.160143e-05 1.032394e-05))
8.493821      	((-4.797596e-02 1.346059e-02 1.528664e-02) (-9.506925e-03 4.985286e-04 5.646833e-04)) ((-2.678790e-08 1.884427e-07 -6.679219e-08) (-1.583476e-07 -1.126529e-05 1.002145e-05))
8.595309      	((-4.598675e-02 1.011385e-02 1.156044e-02) (-9.506748e-03 4.046581e-04 4.612204e-04)) ((-3.150695e-08 1.980490e-07 -6.877616e-08) (-1.743878e-07 -1.082407e-05 9.631541e-06))
8.697092      	((-4.449611e-02 8.071813e-03 9.166041e-03) (-9.506713e-03 3.163349e-04 3.641087e-04)) ((-2.741119e-08 1.820791e-07 -6.264213e-08) (-2.008127e-07 -1.051902e-05 9.407923e-06))
8.799182      	((-4.355916e-02 7.090108e-03 7.920860e-03) (-9.510190e-03 2.383777e-04 2.759030e-04)) ((-1.906652e-08 1.460591e-07 -5.128576e-08) (-1.936696e-07 -1.045850e-05 9.385781e-06))
8.901568      	((-4.277949e-02 6.997855e-03 7.613328e-03) (-9.519868e-03 1.757020e-04 2.013851e-04)) ((-9.566903e-09 1.023820e-07 -4.131093e-08) (-1.455264e-07 -1.051623e-05 9.383428e-06))
9.004222      	((-4.205478e-02 7.600989e-03 8.044261e-03) (-9.534055e-03 1.310625e-04 1.442942e-04)) ((4.672623e-09 5.804715e-08 -3.326574e-08) (-7.807173e-08 -1.058791e-05 9.307105e-06))
