# Forces      
# CofR        : (0.000000e+00 0.000000e+00 0.000000e+00)
# Time        forces(pressure viscous)	moments(pressure viscous)
0             	((0.000000e+00 0.000000e+00 0.000000e+00) (-6.938401e-15 6.348718e-16 -1.004968e-04)) ((0.000000e+00 0.000000e+00 0.000000e+00) (-1.891199e-16 -3.879515e-11 -1.755284e-17))
0.012         	((2.265285e-09 8.357984e-09 -2.920969e-02) (8.507296e-11 8.813315e-11 -1.153073e-04)) ((-1.218235e-11 -7.740927e-09 -1.191188e-13) (7.725797e-13 -1.134064e-10 -6.023019e-15))
0.0264        	((-6.085245e-07 -5.898856e-07 2.066792e-03) (-3.587358e-10 -3.255603e-10 -1.176045e-04)) ((1.544850e-11 4.870869e-10 7.120866e-13) (6.640018e-13 -1.504214e-10 -2.053151e-13))
0.04368       	((6.590872e-07 5.026565e-07 6.084908e-03) (-3.395262e-10 -3.305255e-10 -1.044752e-04)) ((6.706014e-11 1.377766e-09 -2.446374e-13) (-1.868973e-12 -1.537364e-10 -2.597581e-13))
0.064416      	((-2.715989e-08 -1.093746e-07 5.769764e-05) (-1.503488e-09 -4.758200e-10 -9.253451e-05)) ((-2.198732e-11 -2.889063e-11 1.364255e-13) (9.149086e-12 -1.857555e-10 1.143007e-13))
0.0892992     	((-1.231345e-07 8.181946e-08 -7.510301e-05) (-2.654818e-09 -8.394055e-10 -8.542196e-05)) ((-8.384246e-12 4.674345e-11 -3.153685e-13) (4.162210e-12 -2.300643e-10 1.816435e-12))
0.119159      	((-9.751613e-08 -6.207819e-08 9.391301e-05) (-2.157899e-09 -8.615147e-10 -7.886764e-05)) ((-3.291810e-12 5.638853e-11 2.411662e-13) (-4.678946e-12 -2.604820e-10 2.863732e-12))
0.154991      	((-3.476561e-09 -9.701167e-09 5.023224e-05) (-1.716770e-09 -6.564945e-10 -7.194476e-05)) ((2.319760e-12 3.897090e-11 -4.758482e-13) (4.100007e-13 -2.640047e-10 3.893420e-12))
0.197989      	((-3.122255e-08 1.439682e-08 1.211666e-05) (-7.810278e-10 -1.125971e-10 -6.498405e-05)) ((-4.636408e-13 1.499803e-11 -3.950633e-13) (8.367359e-12 -2.395020e-10 6.011056e-12))
0.249587      	((4.658022e-09 -2.991720e-09 -1.684678e-06) (2.652154e-11 3.408212e-10 -5.818279e-05)) ((-9.675328e-13 8.762673e-12 -1.136261e-13) (1.686889e-11 -2.209468e-10 7.033522e-12))
0.311504      	((3.175464e-09 -1.013128e-09 -7.869300e-06) (1.412096e-10 6.202430e-10 -5.174775e-05)) ((2.604496e-14 1.464805e-12 -1.713399e-14) (2.239950e-11 -2.161616e-10 5.835209e-12))
0.385805      	((-2.443380e-10 6.722890e-11 -1.089920e-05) (1.202060e-10 7.459720e-10 -4.584658e-05)) ((2.111426e-13 -3.511911e-12 -2.720606e-14) (2.429220e-11 -2.000320e-10 4.325685e-12))
0.474966      	((6.168982e-10 1.038970e-09 -1.246659e-05) (1.472342e-10 7.005273e-10 -4.057874e-05)) ((9.582534e-14 -5.920139e-12 -4.896332e-14) (2.266843e-11 -1.652102e-10 3.496153e-12))
0.581959      	((1.660131e-09 1.188850e-09 -1.312336e-05) (1.927628e-10 6.174687e-10 -3.595399e-05)) ((6.464951e-14 -6.803920e-12 -3.076178e-14) (2.011754e-11 -1.287286e-10 2.698643e-12))
0.710351      	((6.473069e-10 1.138107e-09 -1.309513e-05) (1.754587e-10 4.985013e-10 -3.194805e-05)) ((8.090616e-14 -7.998382e-12 -1.981380e-14) (1.461387e-11 -9.084986e-11 2.109669e-12))
0.864421      	((2.915895e-10 5.572428e-10 -1.263202e-05) (1.067859e-10 3.759181e-10 -2.851226e-05)) ((1.172794e-13 -8.701386e-12 -1.330412e-14) (9.436274e-12 -6.053675e-11 1.695331e-12))
1.049306      	((5.873534e-10 3.255973e-10 -1.193838e-05) (4.586625e-12 2.587041e-10 -2.557207e-05)) ((1.074943e-13 -8.942110e-12 -1.016533e-14) (5.084368e-12 -4.847756e-11 1.383904e-12))
1.271167      	((5.339545e-10 5.602614e-11 -1.114870e-05) (-2.866380e-11 1.762818e-10 -2.304659e-05)) ((8.824428e-14 -8.573664e-12 -1.245876e-14) (1.638153e-12 -4.992998e-11 1.208430e-12))
1.5374        	((2.075781e-10 1.853981e-11 -1.032474e-05) (4.153731e-11 1.388088e-10 -2.085459e-05)) ((6.790211e-14 -8.020783e-12 -1.183418e-14) (-5.228068e-13 -5.470979e-11 1.075630e-12))
1.85688       	((-8.075575e-10 -1.798648e-10 -9.515081e-06) (1.396246e-10 1.172328e-10 -1.892621e-05)) ((5.507118e-14 -7.684956e-12 -8.724040e-15) (-2.431750e-12 -5.217613e-11 9.794259e-13))
2.240256      	((-7.300756e-10 -2.854097e-10 -8.750734e-06) (2.175079e-10 9.387066e-11 -1.721351e-05)) ((4.220775e-14 -7.332364e-12 -9.503567e-15) (-4.156338e-12 -4.345306e-11 8.808677e-13))
2.700307      	((-8.770280e-10 -6.574867e-10 -8.041710e-06) (1.986793e-10 7.578937e-11 -1.568386e-05)) ((3.543075e-14 -7.071188e-12 -9.123038e-15) (-5.642433e-12 -3.745892e-11 7.999992e-13))
3.252369      	((-8.437481e-10 -7.989179e-10 -7.387020e-06) (6.920511e-11 6.856960e-11 -1.431266e-05)) ((2.962597e-14 -6.708999e-12 -1.162319e-14) (-7.276642e-12 -3.361709e-11 7.411268e-13))
3.914842      	((-9.597534e-10 -8.484481e-10 -6.782909e-06) (1.736894e-11 6.882991e-11 -1.308097e-05)) ((1.788404e-14 -6.342709e-12 -1.048150e-14) (-8.501781e-12 -2.845958e-11 6.272413e-13))
4.709811      	((-1.334466e-09 -8.913107e-10 -6.231079e-06) (2.854488e-11 6.132380e-11 -1.197445e-05)) ((-2.356717e-15 -5.964045e-12 -8.516944e-15) (-8.442090e-12 -2.915929e-11 4.502369e-13))
5.663773      	((-1.447483e-09 -7.531162e-10 -5.733854e-06) (3.964131e-11 3.983629e-11 -1.098228e-05)) ((-2.471812e-14 -5.585333e-12 -9.207588e-15) (-6.805933e-12 -2.983328e-11 3.010491e-13))
6.808528      	((-9.970824e-10 -5.970271e-10 -5.289526e-06) (6.518525e-11 1.644359e-11 -1.009471e-05)) ((-3.157456e-14 -5.208329e-12 -1.064279e-14) (-4.022763e-12 -2.545907e-11 1.084113e-13))
8.182233      	((-1.274080e-09 -9.180041e-10 -4.896001e-06) (5.068251e-11 -9.696268e-12 -9.301033e-06)) ((-3.083213e-14 -4.837076e-12 -9.929632e-15) (-1.426319e-12 -2.098367e-11 -1.523607e-14))
9.83068       	((-1.724803e-09 -1.252333e-09 -4.551480e-06) (-8.212934e-12 -3.858790e-11 -8.590263e-06)) ((-1.978261e-14 -4.473408e-12 -1.204280e-14) (1.987997e-13 -2.044170e-11 1.003275e-13))
11.808816     	((-1.847451e-09 -1.316935e-09 -4.255031e-06) (-5.931113e-11 -7.448335e-11 -7.952624e-06)) ((-2.573620e-14 -4.178112e-12 -1.034245e-14) (-3.424185e-13 -1.956827e-11 6.314323e-14))
14.182579     	((-1.912852e-09 -1.479924e-09 -4.004262e-06) (-6.728877e-11 -1.159206e-10 -7.379508e-06)) ((-3.995331e-14 -3.902832e-12 -4.979246e-15) (-3.543200e-12 -1.944256e-11 1.741512e-14))
17.031095     	((-2.188044e-09 -1.650711e-09 -3.796401e-06) (-5.468308e-11 -1.563600e-10 -6.864609e-06)) ((-5.547797e-14 -3.610088e-12 -1.506484e-15) (-8.742783e-12 -2.134270e-11 4.013669e-14))
20.449314     	((-2.347799e-09 -1.817120e-09 -3.630846e-06) (-5.618854e-11 -2.044315e-10 -6.403455e-06)) ((-6.374553e-14 -3.323002e-12 5.847883e-16) (-1.456144e-11 -1.965859e-11 -8.326057e-14))
24.551176     	((-2.630766e-09 -2.092919e-09 -3.506641e-06) (-1.075849e-10 -2.653555e-10 -5.992449e-06)) ((-6.480894e-14 -3.087260e-12 -2.007785e-16) (-2.005600e-11 -1.308102e-11 -1.292834e-13))
29.473411     	((-2.283745e-09 -2.003278e-09 -3.422269e-06) (-1.818809e-10 -3.279165e-10 -5.628675e-06)) ((-6.793469e-14 -2.896801e-12 -1.090344e-15) (-2.464102e-11 -7.916798e-13 -9.103027e-14))
35.380094     	((-2.057007e-09 -1.915330e-09 -3.376887e-06) (-2.488504e-10 -3.829296e-10 -5.309510e-06)) ((-7.165901e-14 -2.740798e-12 -2.378736e-15) (-2.823082e-11 1.310227e-11 5.956466e-14))
42.468112     	((-1.762414e-09 -1.652621e-09 -3.368225e-06) (-3.128260e-10 -4.104359e-10 -5.032603e-06)) ((-7.258095e-14 -2.607738e-12 -2.062099e-15) (-3.124062e-11 2.444244e-11 2.289142e-13))
50.973735     	((-1.323112e-09 -1.111403e-09 -3.393131e-06) (-3.572889e-10 -4.078837e-10 -4.795550e-06)) ((-7.045944e-14 -2.497386e-12 -3.273392e-15) (-3.459362e-11 3.329488e-11 3.114869e-13))
61.180482     	((-7.951365e-10 -6.684380e-10 -3.445016e-06) (-3.558405e-10 -3.744785e-10 -4.596411e-06)) ((-6.634214e-14 -2.413582e-12 -5.443168e-15) (-3.912214e-11 4.019772e-11 3.088493e-13))
73.428578     	((-6.427416e-10 -4.349020e-10 -3.516489e-06) (-3.189739e-10 -3.363711e-10 -4.432823e-06)) ((-5.853548e-14 -2.340763e-12 -4.924927e-15) (-4.552104e-11 4.718216e-11 3.356887e-13))
88.07034      	((-4.147566e-10 -1.442086e-10 -3.599199e-06) (-2.544345e-10 -2.820903e-10 -4.301659e-06)) ((-4.882505e-14 -2.297665e-12 -6.836394e-15) (-5.138638e-11 5.494080e-11 3.018155e-13))
105.091124    	((-1.049570e-10 1.989633e-10 -3.683261e-06) (-1.567198e-10 -2.283030e-10 -4.199638e-06)) ((-4.122542e-14 -2.254228e-12 -6.026177e-15) (-5.599635e-11 6.184171e-11 4.031041e-13))
124.474577    	((1.440373e-10 4.898957e-10 -3.752843e-06) (-3.707959e-11 -1.470646e-10 -4.119877e-06)) ((-3.518281e-14 -2.236387e-12 -4.266667e-15) (-5.749936e-11 6.605648e-11 4.482599e-13))
146.210533    	((4.803899e-10 8.268900e-10 -3.801717e-06) (9.487713e-11 -2.592469e-11 -4.055739e-06)) ((-3.057755e-14 -2.233550e-12 -2.860392e-15) (-5.763684e-11 6.851342e-11 3.905484e-13))
169.734413    	((8.305180e-10 1.185222e-09 -3.831435e-06) (2.380926e-10 1.159158e-10 -4.002527e-06)) ((-2.575424e-14 -2.222710e-12 -1.917156e-15) (-5.781047e-11 7.036704e-11 2.135111e-13))
193.319416    	((9.555830e-10 1.378108e-09 -3.849338e-06) (3.735131e-10 2.629907e-10 -3.958514e-06)) ((-2.166269e-14 -2.210173e-12 -1.673949e-15) (-5.771627e-11 7.135284e-11 1.737127e-13))
216.96231     	((1.054320e-09 1.511234e-09 -3.856561e-06) (4.887678e-10 3.899300e-10 -3.921039e-06)) ((-1.879938e-14 -2.194796e-12 -1.564151e-15) (-5.790041e-11 7.178612e-11 1.761706e-13))
240.637415    	((1.045954e-09 1.529027e-09 -3.859731e-06) (5.789036e-10 4.873684e-10 -3.889182e-06)) ((-1.656575e-14 -2.180459e-12 -1.616664e-15) (-5.695597e-11 7.110667e-11 1.587318e-13))
264.329649    	((9.374268e-10 1.453824e-09 -3.860297e-06) (6.379294e-10 5.571924e-10 -3.862012e-06)) ((-1.524957e-14 -2.166305e-12 -1.177520e-15) (-5.535255e-11 6.995783e-11 1.427980e-13))
288.036902    	((7.600496e-10 1.259352e-09 -3.859633e-06) (6.698815e-10 5.941751e-10 -3.838823e-06)) ((-1.585244e-14 -2.152260e-12 -6.701426e-16) (-5.308902e-11 6.861306e-11 9.302222e-14))
311.75973     	((5.429072e-10 1.078738e-09 -3.857722e-06) (6.773668e-10 6.064418e-10 -3.818946e-06)) ((-1.613489e-14 -2.139314e-12 -1.125120e-16) (-5.063849e-11 6.724310e-11 3.310409e-14))
335.496882    	((3.553446e-10 8.866183e-10 -3.855154e-06) (6.687402e-10 6.011429e-10 -3.801849e-06)) ((-1.657478e-14 -2.129071e-12 2.347840e-16) (-4.814051e-11 6.572291e-11 -2.801899e-14))
359.246341    	((2.009456e-10 7.432130e-10 -3.852561e-06) (6.540086e-10 5.889356e-10 -3.787128e-06)) ((-1.604994e-14 -2.120897e-12 4.022928e-16) (-4.570967e-11 6.412678e-11 -8.761049e-14))
383.006454    	((3.264692e-11 5.678997e-10 -3.849853e-06) (6.339838e-10 5.708233e-10 -3.774420e-06)) ((-1.610620e-14 -2.113547e-12 3.633068e-16) (-4.339244e-11 6.255868e-11 -1.103045e-13))
406.77591     	((-1.523737e-10 3.835466e-10 -3.847310e-06) (6.080617e-10 5.464519e-10 -3.763435e-06)) ((-1.614888e-14 -2.106766e-12 1.290149e-16) (-4.119324e-11 6.097767e-11 -1.169561e-13))
430.553554    	((-3.186446e-10 2.143933e-10 -3.844816e-06) (5.793936e-10 5.187164e-10 -3.753920e-06)) ((-1.661094e-14 -2.100497e-12 -2.349828e-16) (-3.905779e-11 5.944369e-11 -1.313764e-13))
454.338363    	((-4.659551e-10 5.871505e-11 -3.842431e-06) (5.497653e-10 4.894033e-10 -3.745651e-06)) ((-1.683372e-14 -2.094998e-12 -5.074276e-16) (-3.707970e-11 5.798213e-11 -1.325354e-13))
478.129456    	((-6.035512e-10 -9.262644e-11 -3.840311e-06) (5.207080e-10 4.598740e-10 -3.738458e-06)) ((-1.698019e-14 -2.090281e-12 -5.787244e-16) (-3.523072e-11 5.652935e-11 -1.353827e-13))
501.926068    	((-7.271980e-10 -2.358589e-10 -3.838300e-06) (4.919753e-10 4.296038e-10 -3.732189e-06)) ((-1.692264e-14 -2.086085e-12 -5.674154e-16) (-3.350663e-11 5.515392e-11 -1.440153e-13))
525.727524    	((-8.374895e-10 -3.637563e-10 -3.836410e-06) (4.649265e-10 4.010423e-10 -3.726710e-06)) ((-1.659223e-14 -2.082487e-12 -5.840748e-16) (-3.189212e-11 5.381438e-11 -1.522715e-13))
549.533241    	((-9.533340e-10 -5.017195e-10 -3.834636e-06) (4.381441e-10 3.724735e-10 -3.721911e-06)) ((-1.655329e-14 -2.079176e-12 -5.475474e-16) (-3.037947e-11 5.250638e-11 -1.575223e-13))
573.342717    	((-1.048451e-09 -6.160675e-10 -3.833070e-06) (4.132674e-10 3.451346e-10 -3.717708e-06)) ((-1.623229e-14 -2.076546e-12 -5.231269e-16) (-2.896646e-11 5.126407e-11 -1.657722e-13))
597.155509    	((-1.142560e-09 -7.289523e-10 -3.831604e-06) (3.901685e-10 3.194294e-10 -3.714018e-06)) ((-1.609665e-14 -2.073994e-12 -4.514163e-16) (-2.763653e-11 5.009969e-11 -1.760075e-13))
620.971226    	((-1.230396e-09 -8.363729e-10 -3.830276e-06) (3.681361e-10 2.943579e-10 -3.710774e-06)) ((-1.602656e-14 -2.071700e-12 -3.557559e-16) (-2.641578e-11 4.904201e-11 -1.871663e-13))
644.789528    	((-1.310629e-09 -9.348802e-10 -3.829078e-06) (3.476597e-10 2.707843e-10 -3.707921e-06)) ((-1.594808e-14 -2.069739e-12 -2.617255e-16) (-2.529122e-11 4.806874e-11 -2.009418e-13))
668.610115    	((-1.385601e-09 -1.025861e-09 -3.827988e-06) (3.286547e-10 2.485899e-10 -3.705406e-06)) ((-1.585328e-14 -2.067998e-12 -1.592815e-16) (-2.425662e-11 4.716472e-11 -2.151841e-13))
692.432721    	((-1.453513e-09 -1.107525e-09 -3.827003e-06) (3.110878e-10 2.281426e-10 -3.703189e-06)) ((-1.578751e-14 -2.066405e-12 -7.165002e-17) (-2.330339e-11 4.633929e-11 -2.257034e-13))
716.257115    	((-1.518809e-09 -1.185649e-09 -3.826111e-06) (2.947362e-10 2.090917e-10 -3.701231e-06)) ((-1.574262e-14 -2.065003e-12 4.344234e-18) (-2.243269e-11 4.558125e-11 -2.329712e-13))
740.083092    	((-1.577954e-09 -1.258673e-09 -3.825310e-06) (2.798079e-10 1.913741e-10 -3.699502e-06)) ((-1.575185e-14 -2.063749e-12 5.811149e-17) (-2.163903e-11 4.488130e-11 -2.374911e-13))
763.910471    	((-1.635497e-09 -1.326521e-09 -3.824587e-06) (2.659098e-10 1.749565e-10 -3.697974e-06)) ((-1.582248e-14 -2.062531e-12 1.011800e-16) (-2.091161e-11 4.423215e-11 -2.412326e-13))
787.739093    	((-1.689171e-09 -1.390451e-09 -3.823936e-06) (2.528641e-10 1.596101e-10 -3.696621e-06)) ((-1.592489e-14 -2.061408e-12 1.156476e-16) (-2.024721e-11 4.363802e-11 -2.427913e-13))
811.568817    	((-1.739435e-09 -1.450336e-09 -3.823353e-06) (2.405830e-10 1.451845e-10 -3.695423e-06)) ((-1.602862e-14 -2.060440e-12 1.524763e-16) (-1.964071e-11 4.309991e-11 -2.430818e-13))
835.39952     	((-1.787124e-09 -1.505914e-09 -3.822825e-06) (2.290079e-10 1.316578e-10 -3.694361e-06)) ((-1.608556e-14 -2.059581e-12 1.748330e-16) (-1.908627e-11 4.260809e-11 -2.431510e-13))
859.231092    	((-1.832722e-09 -1.558639e-09 -3.822353e-06) (2.179580e-10 1.187988e-10 -3.693420e-06)) ((-1.616651e-14 -2.058806e-12 1.970540e-16) (-1.857941e-11 4.215761e-11 -2.426549e-13))
883.063435    	((-1.874577e-09 -1.606680e-09 -3.821927e-06) (2.074283e-10 1.066471e-10 -3.692585e-06)) ((-1.623534e-14 -2.058113e-12 2.259767e-16) (-1.811707e-11 4.174533e-11 -2.401259e-13))
906.896464    	((-1.913820e-09 -1.651692e-09 -3.821546e-06) (1.974986e-10 9.526067e-11 -3.691844e-06)) ((-1.631033e-14 -2.057469e-12 2.371300e-16) (-1.769540e-11 4.136806e-11 -2.373052e-13))
930.730101    	((-1.950997e-09 -1.693438e-09 -3.821206e-06) (1.880358e-10 8.454578e-11 -3.691186e-06)) ((-1.638783e-14 -2.056871e-12 2.623941e-16) (-1.730942e-11 4.102218e-11 -2.344008e-13))
954.56428     	((-1.984704e-09 -1.731874e-09 -3.820898e-06) (1.791294e-10 7.452470e-11 -3.690602e-06)) ((-1.647208e-14 -2.056341e-12 2.764886e-16) (-1.695796e-11 4.070781e-11 -2.318699e-13))
978.39894     	((-2.015443e-09 -1.766780e-09 -3.820628e-06) (1.707485e-10 6.516163e-11 -3.690082e-06)) ((-1.654337e-14 -2.055866e-12 2.979211e-16) (-1.663969e-11 4.042278e-11 -2.297472e-13))
1002.234029   	((-2.044356e-09 -1.798920e-09 -3.820380e-06) (1.629132e-10 5.644802e-11 -3.689621e-06)) ((-1.661833e-14 -2.055429e-12 3.135867e-16) (-1.635330e-11 4.016416e-11 -2.277747e-13))
1026.069498   	((-2.070101e-09 -1.828083e-09 -3.820162e-06) (1.556491e-10 4.837139e-11 -3.689210e-06)) ((-1.668200e-14 -2.055045e-12 3.341681e-16) (-1.609655e-11 3.992940e-11 -2.261056e-13))
1049.905305   	((-2.094090e-09 -1.854304e-09 -3.819962e-06) (1.488972e-10 4.093338e-11 -3.688845e-06)) ((-1.674240e-14 -2.054703e-12 3.512930e-16) (-1.586731e-11 3.971727e-11 -2.247543e-13))
1073.741414   	((-2.115053e-09 -1.878232e-09 -3.819789e-06) (1.426957e-10 3.410075e-11 -3.688520e-06)) ((-1.679436e-14 -2.054401e-12 3.768335e-16) (-1.566236e-11 3.952661e-11 -2.237044e-13))
1097.577792   	((-2.134448e-09 -1.899218e-09 -3.819627e-06) (1.370049e-10 2.790030e-11 -3.688231e-06)) ((-1.684620e-14 -2.054131e-12 3.919827e-16) (-1.547905e-11 3.935775e-11 -2.226794e-13))
1121.414409   	((-2.151323e-09 -1.918136e-09 -3.819488e-06) (1.318299e-10 2.227412e-11 -3.687974e-06)) ((-1.689109e-14 -2.053890e-12 4.062432e-16) (-1.531416e-11 3.920692e-11 -2.217551e-13))
1145.251239   	((-2.166529e-09 -1.934927e-09 -3.819361e-06) (1.271578e-10 1.720243e-11 -3.687744e-06)) ((-1.692701e-14 -2.053672e-12 4.154022e-16) (-1.516566e-11 3.907084e-11 -2.207523e-13))
1169.088258   	((-2.179859e-09 -1.949881e-09 -3.819249e-06) (1.229780e-10 1.265053e-11 -3.687540e-06)) ((-1.695469e-14 -2.053476e-12 4.173467e-16) (-1.503184e-11 3.894792e-11 -2.199043e-13))
1192.925445   	((-2.191878e-09 -1.963249e-09 -3.819148e-06) (1.192541e-10 8.576178e-12 -3.687358e-06)) ((-1.697652e-14 -2.053299e-12 4.229016e-16) (-1.491162e-11 3.883632e-11 -2.190721e-13))
1216.762783   	((-2.202020e-09 -1.974795e-09 -3.819058e-06) (1.159526e-10 4.949749e-12 -3.687196e-06)) ((-1.699103e-14 -2.053149e-12 4.210787e-16) (-1.480393e-11 3.873542e-11 -2.183541e-13))
1240.600255   	((-2.211418e-09 -1.985408e-09 -3.818978e-06) (1.130236e-10 1.706681e-12 -3.687052e-06)) ((-1.700482e-14 -2.053012e-12 4.201305e-16) (-1.470745e-11 3.864475e-11 -2.176204e-13))
1264.437846   	((-2.219843e-09 -1.994962e-09 -3.818906e-06) (1.104287e-10 -1.180907e-12 -3.686924e-06)) ((-1.702335e-14 -2.052896e-12 4.192225e-16) (-1.462089e-11 3.856298e-11 -2.169742e-13))
1288.275543   	((-2.227188e-09 -2.003348e-09 -3.818842e-06) (1.081328e-10 -3.743911e-12 -3.686809e-06)) ((-1.703881e-14 -2.052797e-12 4.199643e-16) (-1.454337e-11 3.848947e-11 -2.164492e-13))
1312.113335   	((-2.233828e-09 -2.011275e-09 -3.818787e-06) (1.060921e-10 -6.035029e-12 -3.686707e-06)) ((-1.705939e-14 -2.052706e-12 4.184905e-16) (-1.447380e-11 3.842342e-11 -2.159325e-13))
1335.951211   	((-2.240084e-09 -2.017695e-09 -3.818733e-06) (1.042720e-10 -8.068829e-12 -3.686616e-06)) ((-1.706960e-14 -2.052622e-12 4.186390e-16) (-1.441115e-11 3.836392e-11 -2.154729e-13))
1359.789162   	((-2.245525e-09 -2.024103e-09 -3.818688e-06) (1.026568e-10 -9.893873e-12 -3.686535e-06)) ((-1.708473e-14 -2.052547e-12 4.210256e-16) (-1.435497e-11 3.831063e-11 -2.151132e-13))
1383.627181   	((-2.250332e-09 -2.029809e-09 -3.818650e-06) (1.012072e-10 -1.153327e-11 -3.686463e-06)) ((-1.709807e-14 -2.052482e-12 4.223185e-16) (-1.430429e-11 3.826254e-11 -2.147252e-13))
1407.46526    	((-2.255095e-09 -2.034649e-09 -3.818611e-06) (9.989234e-11 -1.299170e-11 -3.686398e-06)) ((-1.710800e-14 -2.052422e-12 4.219235e-16) (-1.425884e-11 3.821934e-11 -2.144413e-13))
1431.303392   	((-2.259206e-09 -2.039419e-09 -3.818580e-06) (9.871081e-11 -1.432224e-11 -3.686341e-06)) ((-1.711228e-14 -2.052372e-12 4.199160e-16) (-1.421791e-11 3.818030e-11 -2.140574e-13))
