# Forces      
# CofR        : (0.000000e+00 0.000000e+00 0.000000e+00)
# Time        forces(pressure viscous)	moments(pressure viscous)
0             	((0.000000e+00 0.000000e+00 0.000000e+00) (3.695812e-14 -7.993344e-04 -5.133619e-14)) ((0.000000e+00 0.000000e+00 0.000000e+00) (2.730965e-15 -3.655395e-16 2.921002e-10))
0.012         	((-2.461189e-07 -2.324701e-01 -2.009844e-07) (5.162752e-10 -9.155822e-04 3.528523e-10)) ((-7.421040e-11 -1.527578e-12 4.366188e-08) (-6.432518e-12 -1.442476e-13 5.461043e-10))
0.0264        	((-4.596439e-06 2.014498e-02 -3.550721e-06) (-1.687369e-09 -9.299146e-04 -2.493110e-09)) ((4.690414e-11 -1.814179e-11 -2.375234e-09) (-1.798602e-12 2.360063e-12 6.269866e-10))
0.04368       	((3.186547e-06 4.647892e-02 5.046877e-06) (1.921625e-09 -8.223577e-04 -7.517633e-10)) ((1.618265e-10 1.508165e-12 -1.266819e-08) (1.978565e-11 4.325718e-12 3.897220e-10))
0.064416      	((1.236087e-07 4.169481e-04 -6.450645e-07) (9.031542e-09 -7.264114e-04 2.296925e-10)) ((-8.125521e-11 -9.983033e-13 1.412230e-09) (-2.304668e-11 7.416094e-12 2.027753e-10))
0.0892992     	((5.513631e-07 -2.576957e-04 -9.991539e-07) (1.826786e-08 -6.694297e-04 -7.479359e-09)) ((-1.002452e-11 1.615565e-11 5.505214e-10) (-6.111981e-11 1.532808e-11 -4.527001e-10))
0.119159      	((7.125567e-08 8.116708e-04 -3.350879e-07) (2.791943e-08 -6.181238e-04 -1.004643e-08)) ((-2.276995e-11 5.795640e-12 -7.502474e-10) (-3.260976e-11 1.613357e-11 -1.056221e-09))
0.154991      	((-2.703951e-07 3.364778e-04 -3.543916e-08) (2.612989e-08 -5.650904e-04 -8.104046e-09)) ((-3.423525e-11 -7.616546e-13 -3.464196e-10) (-3.399720e-12 9.250388e-12 -1.257707e-09))
0.197989      	((9.370717e-08 5.580120e-05 -4.979707e-08) (1.429384e-08 -5.134479e-04 -7.040916e-09)) ((-2.258806e-11 2.568617e-12 -8.068851e-11) (3.479468e-12 3.978075e-12 -1.389315e-09))
0.249587      	((-6.035603e-08 -3.882275e-05 -1.897260e-08) (-7.051970e-09 -4.648389e-04 -5.541362e-09)) ((-1.577257e-11 3.815749e-13 -4.261370e-11) (-5.829230e-12 4.412991e-12 -1.532574e-09))
0.311504      	((-1.436850e-07 -8.694157e-05 -4.997442e-08) (-2.475990e-08 -4.205234e-04 -4.552701e-09)) ((-7.914783e-12 5.456931e-13 -2.053320e-11) (-1.653352e-11 7.128014e-12 -1.457035e-09))
0.385805      	((-1.354162e-07 -1.137376e-04 -4.268679e-08) (-3.201737e-08 -3.811556e-04 -3.904846e-09)) ((-3.902833e-12 2.173615e-13 -2.882128e-12) (-1.740690e-11 9.077272e-12 -1.254257e-09))
0.474966      	((-1.077891e-07 -1.265239e-04 -3.459238e-08) (-3.463965e-08 -3.467185e-04 -3.500677e-09)) ((-2.778278e-12 9.424679e-13 8.354601e-12) (-2.105392e-11 9.417934e-12 -1.062546e-09))
0.581959      	((-6.867922e-08 -1.311403e-04 -2.390598e-08) (-3.277343e-08 -3.163737e-04 -3.060611e-09)) ((-1.965634e-12 5.351248e-13 1.682611e-11) (-3.258445e-11 7.292601e-12 -9.858045e-10))
0.710351      	((-3.643735e-08 -1.306425e-04 -1.321059e-08) (-2.644045e-08 -2.886399e-04 -2.073354e-09)) ((-1.383093e-12 3.480738e-13 1.798849e-11) (-3.839669e-11 7.188782e-12 -1.174173e-09))
0.864421      	((2.860859e-09 -1.266573e-04 -2.522402e-09) (-1.626736e-08 -2.624457e-04 -1.444111e-09)) ((-6.179068e-13 5.429227e-13 7.643654e-12) (-3.348438e-11 9.116997e-12 -1.436646e-09))
1.049306      	((2.145027e-08 -1.205140e-04 1.276794e-09) (-7.884021e-09 -2.377421e-04 -1.242567e-09)) ((-1.125205e-13 -9.156117e-15 1.275194e-12) (-1.624410e-11 1.192422e-11 -1.681109e-09))
1.271167      	((1.666709e-08 -1.134496e-04 6.909128e-09) (-4.879129e-09 -2.148848e-04 -8.562900e-10)) ((8.877483e-14 -1.698046e-13 6.282746e-12) (1.156884e-11 1.323863e-11 -1.827998e-09))
1.5374        	((2.337771e-08 -1.067372e-04 2.899061e-09) (-4.262569e-09 -1.941799e-04 -6.439614e-10)) ((9.192354e-14 -4.807551e-16 1.706398e-11) (3.936556e-11 1.296440e-11 -1.770611e-09))
1.85688       	((1.273119e-08 -1.010962e-04 -1.466528e-09) (-2.877363e-09 -1.757743e-04 -6.616551e-10)) ((-4.708323e-13 4.528654e-14 2.587172e-11) (6.527172e-11 1.178191e-11 -1.622012e-09))
2.240256      	((3.851288e-09 -9.693194e-05 1.509795e-09) (-1.830650e-09 -1.596078e-04 -5.515418e-10)) ((-9.551833e-13 1.080258e-14 3.255868e-11) (8.613141e-11 1.072502e-11 -1.449198e-09))
2.700307      	((-9.566567e-09 -9.439772e-05 -5.135491e-09) (-2.575052e-09 -1.455064e-04 -4.192224e-10)) ((-1.429033e-12 -1.439270e-13 3.896285e-11) (1.018744e-10 9.524993e-12 -1.260251e-09))
3.252369      	((-2.282486e-08 -9.378540e-05 -1.851201e-08) (-2.571987e-09 -1.332841e-04 -7.287511e-10)) ((-1.652054e-12 -2.746036e-13 5.063729e-11) (1.188442e-10 8.251067e-12 -1.177199e-09))
3.914842      	((-2.436874e-08 -9.497321e-05 -1.896396e-08) (-3.155274e-09 -1.227862e-04 -1.295458e-09)) ((-1.465071e-12 -4.169051e-13 6.332097e-11) (1.288667e-10 7.494423e-12 -1.108052e-09))
4.709811      	((-2.785922e-08 -9.833116e-05 -3.348667e-08) (-3.673235e-09 -1.138715e-04 -1.999945e-09)) ((-1.388627e-12 -5.364214e-13 7.937720e-11) (1.232107e-10 6.905654e-12 -1.046088e-09))
5.663773      	((-1.432539e-08 -1.039030e-04 -3.140559e-08) (-1.609740e-09 -1.063727e-04 -2.612239e-09)) ((-1.531691e-12 -4.463792e-13 1.016391e-10) (1.074963e-10 6.304188e-12 -1.077941e-09))
6.808528      	((-5.030881e-09 -1.116783e-04 -2.884131e-08) (2.137137e-09 -1.001539e-04 -2.962360e-09)) ((-1.328136e-12 -3.309662e-13 1.309508e-10) (8.927957e-11 5.899372e-12 -1.188142e-09))
8.177412      	((1.255117e-08 -1.215287e-04 -2.478179e-08) (3.926783e-09 -9.506737e-05 -3.224197e-09)) ((-1.130057e-12 -2.391988e-13 1.669499e-10) (7.275729e-11 6.564603e-12 -1.515902e-09))
9.770817      	((2.768931e-08 -1.331184e-04 -1.539374e-08) (4.618596e-09 -9.100253e-05 -3.476161e-09)) ((-9.355346e-13 -4.082253e-13 2.050372e-10) (5.008924e-11 6.776705e-12 -1.963690e-09))
11.58881      	((3.264524e-08 -1.457221e-04 -1.070699e-08) (3.827783e-09 -8.783356e-05 -3.857771e-09)) ((-7.120582e-13 -5.220511e-13 2.488441e-10) (3.893151e-11 7.744319e-12 -2.326628e-09))
13.630853     	((3.859199e-08 -1.589608e-04 -1.040732e-08) (3.401703e-09 -8.540267e-05 -4.518373e-09)) ((-8.358289e-13 -8.520215e-13 2.905432e-10) (6.141764e-11 7.406527e-12 -2.535655e-09))
15.860383     	((4.533275e-08 -1.718356e-04 -3.687255e-09) (4.240350e-09 -8.354629e-05 -4.660141e-09)) ((-1.635215e-12 -1.455559e-12 3.259518e-10) (7.665408e-11 5.821699e-12 -2.543027e-09))
18.075613     	((4.979518e-08 -1.830146e-04 1.762953e-09) (5.688941e-09 -8.218731e-05 -3.497232e-09)) ((-2.110779e-12 -1.608582e-12 3.534813e-10) (4.388544e-11 5.176845e-12 -2.394047e-09))
20.278795     	((8.239030e-08 -1.921887e-04 2.885279e-08) (8.897898e-09 -8.102614e-05 -9.469888e-10)) ((-2.088633e-12 -2.001834e-12 3.786794e-10) (-3.543057e-11 8.127503e-12 -2.056760e-09))
22.478431     	((1.084566e-07 -1.984082e-04 5.696593e-08) (1.506386e-08 -7.993578e-05 2.909614e-09)) ((-1.957472e-12 -2.343993e-12 3.995647e-10) (-1.334500e-10 7.642699e-12 -1.630637e-09))
24.684033     	((1.276843e-07 -2.028701e-04 8.581527e-08) (2.042609e-08 -7.893671e-05 6.941043e-09)) ((-1.190495e-12 -2.185774e-12 4.182385e-10) (-2.041456e-10 6.068312e-12 -1.341688e-09))
26.900406     	((1.249062e-07 -2.048638e-04 8.786678e-08) (2.101993e-08 -7.804339e-05 9.573047e-09)) ((-8.106921e-13 -1.821691e-12 4.314235e-10) (-2.071407e-10 3.890584e-12 -1.317835e-09))
29.127337     	((1.241825e-07 -2.051428e-04 9.044119e-08) (1.929113e-08 -7.720960e-05 1.089594e-08)) ((-6.864251e-13 -1.691029e-12 4.397957e-10) (-1.706817e-10 2.871501e-12 -1.469785e-09))
31.362765     	((1.258115e-07 -2.042020e-04 9.770298e-08) (1.963526e-08 -7.639034e-05 1.134661e-08)) ((-5.177145e-13 -1.518311e-12 4.446461e-10) (-1.050187e-10 3.079713e-12 -1.547586e-09))
33.605402     	((1.441262e-07 -2.030227e-04 1.064235e-07) (1.982057e-08 -7.561575e-05 1.125315e-08)) ((-2.779341e-13 -1.007516e-12 4.462540e-10) (-2.120013e-11 3.311183e-12 -1.563003e-09))
35.852957     	((1.755050e-07 -2.020156e-04 1.178728e-07) (2.148536e-08 -7.492254e-05 1.151470e-08)) ((-1.316494e-13 -4.908890e-13 4.454180e-10) (5.108180e-11 5.650918e-12 -1.586643e-09))
38.103669     	((1.855596e-07 -2.006811e-04 1.245530e-07) (2.335623e-08 -7.430064e-05 1.192573e-08)) ((-2.106805e-14 1.530033e-13 4.440948e-10) (1.256106e-10 7.323498e-13 -1.605251e-09))
40.358409     	((2.167673e-07 -1.990441e-04 1.293370e-07) (2.501803e-08 -7.371954e-05 1.180481e-08)) ((-8.489402e-14 6.849687e-13 4.433727e-10) (2.127260e-10 -1.663076e-13 -1.593811e-09))
42.61771      	((2.480708e-07 -1.974142e-04 1.395378e-07) (2.753987e-08 -7.316696e-05 1.159044e-08)) ((-2.162948e-13 8.527377e-13 4.429378e-10) (3.062046e-10 2.007608e-12 -1.612329e-09))
44.88151      	((2.839302e-07 -1.962178e-04 1.434497e-07) (2.992259e-08 -7.265232e-05 1.138018e-08)) ((-5.043885e-13 9.566599e-13 4.429756e-10) (3.983866e-10 3.782458e-12 -1.715756e-09))
47.149849     	((3.477580e-07 -1.950993e-04 1.523620e-07) (3.252947e-08 -7.217327e-05 1.108868e-08)) ((-5.581778e-13 1.039742e-12 4.433104e-10) (4.812329e-10 6.825370e-12 -1.859999e-09))
49.422698     	((4.345713e-07 -1.941017e-04 1.854132e-07) (3.651426e-08 -7.172312e-05 1.162633e-08)) ((-2.192432e-13 9.669361e-13 4.436440e-10) (5.539343e-10 7.275838e-12 -2.035316e-09))
51.7001       	((5.107489e-07 -1.932042e-04 2.081690e-07) (4.125418e-08 -7.130364e-05 1.296784e-08)) ((-2.802999e-13 9.766561e-13 4.438507e-10) (6.219739e-10 7.493356e-12 -2.219436e-09))
53.982286     	((6.002625e-07 -1.923258e-04 2.279085e-07) (4.701210e-08 -7.091241e-05 1.443290e-08)) ((-2.345896e-13 9.047603e-13 4.439731e-10) (6.887133e-10 6.479672e-12 -2.416490e-09))
56.269659     	((7.059584e-07 -1.916070e-04 2.511840e-07) (5.392612e-08 -7.055215e-05 1.588370e-08)) ((-1.120855e-13 9.551692e-13 4.442525e-10) (7.560681e-10 3.245815e-12 -2.623236e-09))
58.562166     	((8.267582e-07 -1.909756e-04 2.853849e-07) (6.233644e-08 -7.022241e-05 1.783757e-08)) ((1.272013e-13 1.034319e-12 4.447363e-10) (8.238499e-10 9.493070e-13 -2.823051e-09))
60.859629     	((9.420355e-07 -1.903307e-04 3.126565e-07) (7.177486e-08 -6.991678e-05 2.020086e-08)) ((2.248829e-13 1.042811e-12 4.452203e-10) (8.705455e-10 1.332102e-13 -3.019558e-09))
63.161892     	((1.072810e-06 -1.896255e-04 3.439187e-07) (8.234526e-08 -6.962861e-05 2.295183e-08)) ((4.299698e-13 1.202766e-12 4.455038e-10) (8.991884e-10 1.281302e-12 -3.197377e-09))
65.468767     	((1.213491e-06 -1.889406e-04 3.806242e-07) (9.450712e-08 -6.935655e-05 2.609995e-08)) ((6.909085e-13 1.457407e-12 4.457116e-10) (9.364872e-10 1.751582e-12 -3.337114e-09))
67.780102     	((1.367524e-06 -1.881129e-04 4.204436e-07) (1.082765e-07 -6.909341e-05 2.952347e-08)) ((9.517724e-13 1.786602e-12 4.456376e-10) (9.870291e-10 2.428913e-12 -3.469753e-09))
70.095805     	((1.509432e-06 -1.873485e-04 4.651984e-07) (1.226705e-07 -6.883796e-05 3.337794e-08)) ((1.199115e-12 2.103522e-12 4.456085e-10) (1.046136e-09 6.615767e-12 -3.596745e-09))
72.415815     	((1.647918e-06 -1.867494e-04 5.089379e-07) (1.370802e-07 -6.859741e-05 3.747848e-08)) ((1.392006e-12 2.461818e-12 4.456173e-10) (1.103859e-09 1.225836e-11 -3.713246e-09))
74.740101     	((1.837540e-06 -1.862430e-04 5.579760e-07) (1.535730e-07 -6.837317e-05 4.197892e-08)) ((1.610572e-12 2.813581e-12 4.455147e-10) (1.152718e-09 1.467187e-11 -3.822910e-09))
77.068525     	((2.016785e-06 -1.857044e-04 6.065672e-07) (1.718012e-07 -6.816116e-05 4.690191e-08)) ((1.780162e-12 3.114685e-12 4.454679e-10) (1.192625e-09 1.345435e-11 -3.926137e-09))
79.400954     	((2.232322e-06 -1.851659e-04 6.657733e-07) (1.917716e-07 -6.795789e-05 5.232894e-08)) ((2.072126e-12 3.279256e-12 4.455287e-10) (1.232285e-09 1.189749e-11 -4.034318e-09))
81.737255     	((2.483453e-06 -1.846754e-04 7.421454e-07) (2.145728e-07 -6.776199e-05 5.880126e-08)) ((2.666156e-12 3.284221e-12 4.458778e-10) (1.277732e-09 9.482813e-12 -4.162025e-09))
84.077239     	((2.779698e-06 -1.841734e-04 8.247159e-07) (2.408141e-07 -6.757084e-05 6.626072e-08)) ((3.301943e-12 3.142687e-12 4.462153e-10) (1.332233e-09 6.974634e-12 -4.334410e-09))
86.420769     	((3.097751e-06 -1.836395e-04 9.149612e-07) (2.696518e-07 -6.738335e-05 7.454854e-08)) ((4.046894e-12 2.841105e-12 4.463901e-10) (1.391660e-09 6.725299e-12 -4.574657e-09))
88.767712     	((3.492763e-06 -1.831132e-04 1.015680e-06) (3.028175e-07 -6.720170e-05 8.370095e-08)) ((4.849694e-12 2.467798e-12 4.463433e-10) (1.463040e-09 5.577473e-12 -4.881585e-09))
91.117906     	((3.907094e-06 -1.825692e-04 1.136309e-06) (3.399474e-07 -6.702631e-05 9.404079e-08)) ((5.783707e-12 2.142924e-12 4.461414e-10) (1.562082e-09 5.767738e-12 -5.249624e-09))
93.471212     	((4.352040e-06 -1.820781e-04 1.257905e-06) (3.799899e-07 -6.685829e-05 1.051146e-07)) ((6.709436e-12 1.757785e-12 4.460377e-10) (1.687825e-09 8.093028e-12 -5.691115e-09))
95.827493     	((4.849923e-06 -1.816438e-04 1.399578e-06) (4.235026e-07 -6.669872e-05 1.172822e-07)) ((7.601927e-12 1.439623e-12 4.458786e-10) (1.835380e-09 9.067739e-12 -6.214152e-09))
98.186618     	((5.411432e-06 -1.812466e-04 1.558493e-06) (4.716461e-07 -6.654726e-05 1.309701e-07)) ((8.783479e-12 1.050485e-12 4.456144e-10) (2.004007e-09 9.042204e-12 -6.816473e-09))
100.548459    	((6.055608e-06 -1.808996e-04 1.732488e-06) (5.262939e-07 -6.640411e-05 1.461096e-07)) ((9.980014e-12 6.920277e-13 4.453148e-10) (2.191534e-09 9.151599e-12 -7.499046e-09))
102.912876    	((6.752737e-06 -1.805686e-04 1.934666e-06) (5.873798e-07 -6.626887e-05 1.632672e-07)) ((1.139818e-11 5.053415e-13 4.449913e-10) (2.401382e-09 9.308154e-12 -8.253166e-09))
105.279711    	((7.504599e-06 -1.802497e-04 2.146336e-06) (6.545054e-07 -6.614084e-05 1.824089e-07)) ((1.283092e-11 5.015541e-13 4.446578e-10) (2.628337e-09 9.272530e-12 -9.072692e-09))
107.64879     	((8.309623e-06 -1.799321e-04 2.374579e-06) (7.274561e-07 -6.601922e-05 2.033065e-07)) ((1.434395e-11 6.339918e-13 4.442867e-10) (2.868224e-09 6.769376e-12 -9.965078e-09))
110.019938    	((9.176776e-06 -1.796168e-04 2.616739e-06) (8.064735e-07 -6.590335e-05 2.258082e-07)) ((1.592462e-11 9.050247e-13 4.439107e-10) (3.124512e-09 -7.454198e-13 -1.093426e-08))
112.392966    	((1.011508e-05 -1.793031e-04 2.880403e-06) (8.924190e-07 -6.579259e-05 2.501333e-07)) ((1.778709e-11 1.217426e-12 4.435528e-10) (3.394352e-09 -1.017595e-11 -1.196604e-08))
114.767686    	((1.114095e-05 -1.789837e-04 3.175716e-06) (9.866187e-07 -6.568588e-05 2.769815e-07)) ((1.989926e-11 1.462729e-12 4.433121e-10) (3.681717e-09 -1.973216e-11 -1.304130e-08))
117.143909    	((1.225892e-05 -1.786943e-04 3.494990e-06) (1.090060e-06 -6.558346e-05 3.067380e-07)) ((2.214221e-11 1.594920e-12 4.431599e-10) (3.984744e-09 -3.207819e-11 -1.416351e-08))
119.521452    	((1.347837e-05 -1.784395e-04 3.840345e-06) (1.203460e-06 -6.548585e-05 3.395573e-07)) ((2.450277e-11 1.604574e-12 4.430026e-10) (4.297545e-09 -4.245550e-11 -1.535500e-08))
121.900115    	((1.480406e-05 -1.782148e-04 4.218375e-06) (1.327810e-06 -6.539353e-05 3.755712e-07)) ((2.711774e-11 1.415614e-12 4.428087e-10) (4.623430e-09 -5.228946e-11 -1.661790e-08))
124.278991    	((1.625259e-05 -1.780395e-04 4.634390e-06) (1.464183e-06 -6.530775e-05 4.151987e-07)) ((2.997138e-11 9.912556e-13 4.425593e-10) (4.962833e-09 -5.975662e-11 -1.795163e-08))
126.657852    	((1.784379e-05 -1.778990e-04 5.074895e-06) (1.614074e-06 -6.522911e-05 4.583263e-07)) ((3.273761e-11 4.800930e-13 4.422767e-10) (5.320072e-09 -6.190672e-11 -1.936331e-08))
129.036461    	((1.960060e-05 -1.777943e-04 5.559058e-06) (1.779590e-06 -6.515777e-05 5.050679e-07)) ((3.562377e-11 -2.937000e-13 4.419789e-10) (5.715085e-09 -6.790149e-11 -2.086086e-08))
131.414571    	((2.154920e-05 -1.777110e-04 6.094465e-06) (1.962725e-06 -6.509355e-05 5.559603e-07)) ((3.876522e-11 -1.480346e-12 4.416205e-10) (6.169825e-09 -8.255018e-11 -2.246615e-08))
133.791915    	((2.371554e-05 -1.776541e-04 6.686953e-06) (2.165767e-06 -6.503614e-05 6.114928e-07)) ((4.231259e-11 -2.964976e-12 4.411305e-10) (6.701515e-09 -9.643205e-11 -2.420980e-08))
136.168202    	((2.610229e-05 -1.776456e-04 7.357802e-06) (2.390634e-06 -6.498608e-05 6.726782e-07)) ((4.643657e-11 -4.898741e-12 4.405614e-10) (7.332548e-09 -1.150985e-10 -2.611005e-08))
138.543117    	((2.873834e-05 -1.776777e-04 8.096825e-06) (2.639728e-06 -6.494399e-05 7.400710e-07)) ((5.073387e-11 -7.033843e-12 4.399452e-10) (8.071315e-09 -1.458226e-10 -2.817672e-08))
140.916319    	((3.164512e-05 -1.777683e-04 8.907308e-06) (2.915200e-06 -6.491061e-05 8.145256e-07)) ((5.537065e-11 -9.273663e-12 4.394339e-10) (8.873535e-09 -1.795045e-10 -3.044544e-08))
143.287446    	((3.482546e-05 -1.779422e-04 9.800223e-06) (3.218814e-06 -6.488769e-05 8.980266e-07)) ((6.029661e-11 -1.162900e-11 4.389863e-10) (9.673021e-09 -2.015763e-10 -3.292902e-08))
145.656109    	((3.829317e-05 -1.781992e-04 1.079169e-05) (3.550459e-06 -6.487596e-05 9.918523e-07)) ((6.569081e-11 -1.419859e-11 4.384303e-10) (1.047040e-08 -2.059785e-10 -3.571928e-08))
148.021883    	((4.210937e-05 -1.785433e-04 1.188836e-05) (3.912342e-06 -6.487465e-05 1.096385e-06)) ((7.187658e-11 -1.703664e-11 4.377113e-10) (1.130765e-08 -1.832790e-10 -3.890630e-08))
150.384319    	((4.627050e-05 -1.790199e-04 1.308864e-05) (4.308163e-06 -6.488617e-05 1.211412e-06)) ((7.891696e-11 -2.041850e-11 4.366378e-10) (1.223533e-08 -1.250909e-10 -4.245093e-08))
152.742952    	((5.077587e-05 -1.796191e-04 1.439851e-05) (4.740183e-06 -6.491300e-05 1.337591e-06)) ((8.633762e-11 -2.438550e-11 4.354542e-10) (1.325080e-08 -4.470154e-11 -4.627659e-08))
155.097295    	((5.566489e-05 -1.804109e-04 1.583175e-05) (5.212841e-06 -6.495908e-05 1.475769e-06)) ((9.441153e-11 -2.881250e-11 4.341984e-10) (1.435585e-08 1.251732e-11 -5.030360e-08))
157.446835    	((6.097807e-05 -1.813958e-04 1.737720e-05) (5.730842e-06 -6.502767e-05 1.626487e-06)) ((1.030777e-10 -3.433179e-11 4.328242e-10) (1.551260e-08 1.667682e-11 -5.449025e-08))
159.791043    	((6.669342e-05 -1.825930e-04 1.904284e-05) (6.295215e-06 -6.512249e-05 1.789382e-06)) ((1.121573e-10 -4.049738e-11 4.312621e-10) (1.677599e-08 -1.499260e-11 -5.888042e-08))
162.129403    	((7.281695e-05 -1.840682e-04 2.082446e-05) (6.903771e-06 -6.524748e-05 1.965243e-06)) ((1.214851e-10 -4.778106e-11 4.296582e-10) (1.816826e-08 -3.606053e-11 -6.369331e-08))
164.461428    	((7.938247e-05 -1.858155e-04 2.272837e-05) (7.559830e-06 -6.540562e-05 2.155375e-06)) ((1.314594e-10 -5.620182e-11 4.282105e-10) (1.964714e-08 -5.439201e-11 -6.885342e-08))
166.786591    	((8.630334e-05 -1.878731e-04 2.476524e-05) (8.265904e-06 -6.560071e-05 2.360367e-06)) ((1.419530e-10 -6.602615e-11 4.269743e-10) (2.120228e-08 -7.313615e-11 -7.417502e-08))
169.104382    	((9.354039e-05 -1.902841e-04 2.686746e-05) (9.021943e-06 -6.583825e-05 2.579963e-06)) ((1.522688e-10 -7.722592e-11 4.255908e-10) (2.277708e-08 -8.349504e-11 -7.955014e-08))
171.414311    	((1.010478e-04 -1.931383e-04 2.906582e-05) (9.827486e-06 -6.612422e-05 2.814258e-06)) ((1.621476e-10 -8.994153e-11 4.243333e-10) (2.433795e-08 -1.273747e-10 -8.483927e-08))
173.716009    	((1.087102e-04 -1.964503e-04 3.129119e-05) (1.067885e-05 -6.646408e-05 3.061454e-06)) ((1.708509e-10 -1.042692e-10 4.233843e-10) (2.584987e-08 -1.614447e-10 -8.989768e-08))
176.009122    	((1.164615e-04 -2.002323e-04 3.355090e-05) (1.156794e-05 -6.686451e-05 3.319500e-06)) ((1.792185e-10 -1.198023e-10 4.234585e-10) (2.735177e-08 -1.535091e-10 -9.468662e-08))
178.293354    	((1.241427e-04 -2.044362e-04 3.581499e-05) (1.248433e-05 -6.732912e-05 3.588102e-06)) ((1.875889e-10 -1.365949e-10 4.241531e-10) (2.875044e-08 -1.317547e-10 -9.918125e-08))
180.568437    	((1.315922e-04 -2.090456e-04 3.797864e-05) (1.341571e-05 -6.785754e-05 3.862846e-06)) ((1.936140e-10 -1.542179e-10 4.254396e-10) (2.992755e-08 -1.208956e-10 -1.032682e-07))
