# Forces      
# CofR        : (0.000000e+00 0.000000e+00 0.000000e+00)
# Time        forces(pressure viscous)	moments(pressure viscous)
0             	((0.000000e+00 0.000000e+00 0.000000e+00) (0.000000e+00 0.000000e+00 0.000000e+00)) ((0.000000e+00 0.000000e+00 0.000000e+00) (0.000000e+00 0.000000e+00 0.000000e+00))
0.012         	((-1.046100e-09 2.191860e-09 -4.524341e-09) (4.663959e-11 4.333270e-12 2.859553e-11)) ((2.036493e-08 -1.945937e-12 -4.012811e-14) (1.397420e-05 1.556787e-12 -6.544860e-13))
0.0264        	((1.498123e-09 3.676691e-09 -7.855637e-09) (1.955397e-10 -2.688457e-11 2.192346e-11)) ((1.036548e-08 -1.545381e-12 3.257351e-13) (1.280154e-05 2.364651e-12 -5.231781e-13))
0.04368       	((-1.124413e-08 -6.417879e-09 -8.997198e-09) (4.965739e-10 -9.574019e-11 -1.920924e-12)) ((6.124951e-09 -1.344848e-12 4.067234e-13) (1.160298e-05 1.278606e-12 8.770816e-13))
0.064416      	((8.288238e-09 -1.368858e-09 -2.873841e-09) (8.414253e-10 -1.370032e-10 -2.001271e-11)) ((3.850574e-09 -8.771330e-13 -2.398390e-13) (1.041012e-05 -1.218283e-12 2.339383e-12))
0.0892992     	((4.170428e-09 -2.326813e-09 2.121349e-09) (1.402052e-09 -1.436353e-10 -4.518797e-11)) ((3.166871e-09 -7.236801e-13 -2.368867e-13) (9.262874e-06 -3.596959e-12 3.331242e-12))
0.119159      	((3.896578e-09 -1.381016e-09 1.381769e-09) (1.788027e-09 -1.153098e-10 -7.038023e-11)) ((2.522359e-09 -7.340423e-13 -2.996333e-13) (8.199519e-06 -5.287454e-12 3.761868e-12))
0.154991      	((2.383744e-08 7.037549e-10 1.913853e-09) (1.783227e-09 -8.368246e-11 -9.303855e-11)) ((2.134422e-09 -6.059032e-13 -3.061272e-13) (7.245848e-06 -6.632772e-12 4.161847e-12))
0.197989      	((1.046036e-08 -6.227242e-10 -6.888020e-10) (1.550157e-09 -4.807334e-11 -1.123037e-10)) ((1.786261e-09 -2.977111e-13 -2.801594e-13) (6.408030e-06 -8.065786e-12 4.586494e-12))
0.249587      	((1.252936e-08 -1.037505e-09 -1.346811e-09) (1.214249e-09 -1.112716e-11 -1.357565e-10)) ((1.554982e-09 -2.084226e-13 -2.141588e-13) (5.678878e-06 -9.906908e-12 4.702900e-12))
0.311504      	((5.007148e-09 3.265967e-10 -1.286926e-09) (8.405162e-10 -5.107489e-12 -1.663200e-10)) ((1.372844e-09 -2.941061e-13 -1.411856e-13) (5.046170e-06 -1.084969e-11 4.545950e-12))
0.385805      	((-5.983183e-09 8.529366e-10 -2.000193e-09) (4.035095e-10 -1.801970e-11 -2.132667e-10)) ((1.237189e-09 -2.460893e-13 -3.944453e-14) (4.496559e-06 -1.066346e-11 4.136007e-12))
0.474966      	((-8.961697e-09 9.618973e-10 -3.327158e-09) (-1.641839e-10 -1.848027e-11 -2.391910e-10)) ((1.123650e-09 -2.005845e-13 5.694710e-14) (4.017673e-06 -9.777995e-12 3.662259e-12))
0.581959      	((-1.436045e-08 3.826706e-10 -3.749912e-09) (-6.751045e-10 -3.280413e-11 -2.479978e-10)) ((1.012907e-09 -1.853478e-13 1.810713e-13) (3.601023e-06 -8.454845e-12 3.548171e-12))
0.710351      	((-1.787630e-08 4.508787e-09 1.486038e-09) (-1.015921e-09 -1.127166e-10 -2.684413e-10)) ((9.015177e-10 -3.999560e-14 1.790812e-13) (3.238201e-06 -6.596997e-12 4.405850e-12))
0.864421      	((-1.531570e-08 7.654143e-09 -7.380631e-10) (-1.262616e-09 -4.558559e-11 -3.133709e-10)) ((8.121128e-10 1.698704e-15 2.126668e-13) (2.920975e-06 -7.258665e-12 6.627359e-12))
1.049306      	((-7.677989e-09 1.140532e-08 -3.034126e-09) (-1.445216e-09 1.900867e-10 -3.294332e-10)) ((7.387384e-10 8.180520e-14 1.017084e-13) (2.641614e-06 -6.910184e-12 9.498094e-12))
1.271167      	((1.532133e-09 9.947338e-09 -5.163656e-09) (-6.968874e-10 7.396532e-11 -3.878421e-10)) ((6.734685e-10 6.951185e-14 8.830335e-14) (2.393815e-06 -2.068198e-12 1.323969e-11))
1.5374        	((-2.383387e-09 1.449791e-08 -4.984669e-09) (2.124037e-10 -2.561034e-10 -2.028948e-10)) ((6.134004e-10 4.249361e-13 -2.787226e-13) (2.173412e-06 1.343648e-13 2.028707e-11))
1.85688       	((-3.050073e-11 1.982642e-08 -7.530565e-10) (1.393747e-09 -6.855057e-10 -2.364236e-11)) ((5.561526e-10 7.897271e-13 -5.728846e-13) (1.978091e-06 -1.880350e-12 3.111979e-11))
2.240256      	((3.758593e-09 1.726200e-08 4.056247e-09) (1.823401e-09 -7.309413e-10 7.637677e-10)) ((5.039392e-10 7.817980e-13 -5.862287e-13) (1.806361e-06 -1.655898e-12 3.672710e-11))
2.700307      	((1.323696e-09 1.986065e-08 7.309504e-09) (1.176064e-09 -5.013875e-10 1.180028e-09)) ((4.569512e-10 6.766903e-13 -5.787295e-13) (1.656413e-06 -1.954336e-12 3.477240e-11))
3.252369      	((-6.293022e-10 1.512976e-08 8.962072e-09) (3.078076e-10 -3.521932e-11 1.041588e-09)) ((4.138655e-10 4.682920e-13 -5.705865e-13) (1.525626e-06 -9.017618e-12 3.181190e-11))
3.914842      	((5.805288e-09 6.929685e-09 7.507936e-09) (-1.899991e-10 1.151975e-09 1.054926e-09)) ((3.713957e-10 2.790345e-13 -4.878177e-13) (1.410861e-06 -2.524168e-11 2.449748e-11))
4.709811      	((6.795773e-09 5.072446e-09 8.981411e-09) (-2.120689e-10 2.038450e-09 -4.440386e-10)) ((3.330490e-10 2.224083e-13 -3.894640e-13) (1.309036e-06 -3.872554e-11 1.013858e-11))
5.663773      	((6.317520e-09 3.085759e-09 5.395622e-09) (2.867469e-11 3.088310e-09 -1.314422e-09)) ((2.993825e-10 1.105483e-13 -3.252693e-13) (1.217734e-06 -5.195760e-11 1.706082e-13))
6.808528      	((2.004780e-09 2.929205e-09 5.930853e-09) (1.008223e-10 4.144260e-09 -1.385533e-09)) ((2.676620e-10 6.553819e-14 -3.893444e-13) (1.135108e-06 -6.185205e-11 -7.258962e-12))
8.182233      	((2.405139e-10 1.489415e-09 3.859967e-09) (-1.482529e-09 4.133265e-09 -1.957828e-09)) ((2.403366e-10 2.003718e-14 -4.293973e-13) (1.059810e-06 -5.803069e-11 -1.304966e-11))
9.83068       	((-2.112066e-09 1.521677e-09 3.148343e-09) (-1.551407e-09 4.018743e-09 -1.921997e-09)) ((2.169580e-10 -1.497569e-13 -3.019841e-13) (9.908265e-07 -4.278746e-11 -1.653402e-11))
11.808816     	((-3.908441e-10 9.544209e-10 1.583408e-09) (-1.263869e-09 3.761178e-09 -1.931961e-09)) ((1.952998e-10 -4.927914e-13 -2.254272e-14) (9.274153e-07 -2.338211e-11 -2.356733e-11))
14.182579     	((-1.194033e-09 2.192491e-10 2.616454e-09) (-1.663581e-09 3.168605e-09 -1.705668e-09)) ((1.785688e-10 -5.126402e-13 8.116326e-14) (8.693004e-07 -7.530764e-12 -3.113545e-11))
17.031095     	((-1.561732e-09 -6.487185e-10 -3.499309e-10) (-1.772218e-09 2.720981e-09 -1.493062e-09)) ((1.641066e-10 -4.524770e-13 1.049268e-13) (8.165472e-07 6.414898e-12 -4.019392e-11))
20.449314     	((-1.749601e-09 -2.331053e-09 -1.107736e-10) (-6.320334e-10 2.467486e-09 -1.367944e-09)) ((1.512832e-10 -4.306018e-13 9.598106e-14) (7.692225e-07 2.135910e-11 -4.937815e-11))
24.551176     	((-1.931866e-09 -3.086618e-09 -1.011257e-09) (-4.263470e-10 2.391433e-09 -1.478112e-09)) ((1.401562e-10 -4.671528e-13 6.686215e-14) (7.272028e-07 3.548689e-11 -5.476760e-11))
29.473411     	((-1.687237e-09 -4.526004e-09 1.147883e-10) (-1.007209e-09 2.544353e-09 -1.656686e-09)) ((1.311196e-10 -4.359931e-13 1.896208e-14) (6.901568e-07 5.001200e-11 -5.833415e-11))
35.380094     	((-1.004852e-09 -5.190933e-09 -3.358136e-09) (-8.210705e-10 2.932027e-09 -1.822799e-09)) ((1.233721e-10 -4.132078e-13 4.596980e-15) (6.577193e-07 6.319802e-11 -6.271189e-11))
42.306284     	((-1.169913e-09 -5.468198e-09 -4.864266e-09) (-1.142992e-11 3.531131e-09 -1.713965e-09)) ((1.167726e-10 -3.496782e-13 -2.312396e-14) (6.299801e-07 6.910845e-11 -6.473891e-11))
50.251881     	((-1.041181e-09 -3.267467e-09 -4.502824e-09) (8.090643e-11 3.559450e-09 -1.981603e-09)) ((1.114288e-10 -3.010012e-13 -1.738016e-14) (6.067143e-07 7.037196e-11 -6.481372e-11))
59.216769     	((-1.910504e-09 -1.344587e-09 -4.129270e-09) (-4.854492e-10 3.614922e-09 -2.132030e-09)) ((1.061578e-10 -2.535994e-13 -5.317608e-14) (5.875633e-07 6.128805e-11 -6.261376e-11))
69.2008       	((-2.264501e-09 2.471570e-09 -1.159157e-09) (-5.979948e-10 3.568052e-09 -2.278606e-09)) ((1.014615e-10 -1.484462e-13 -1.863728e-13) (5.722171e-07 5.042247e-11 -6.286144e-11))
79.390454     	((-2.347465e-09 4.049372e-09 -7.000637e-12) (-5.844225e-10 3.684322e-09 -2.038614e-09)) ((9.757183e-11 -1.072113e-13 -2.457759e-13) (5.609384e-07 4.407569e-11 -6.374135e-11))
89.578116     	((-1.700223e-09 4.277407e-09 9.635914e-10) (-9.645244e-10 4.131443e-09 -1.202871e-09)) ((9.475573e-11 -4.765610e-14 -2.903421e-13) (5.532056e-07 4.302745e-11 -6.311903e-11))
99.763496     	((-1.348129e-09 3.752770e-09 2.208369e-09) (-1.227594e-09 4.024537e-09 -7.249214e-10)) ((9.263284e-11 -1.015947e-14 -3.165841e-13) (5.485508e-07 4.637765e-11 -6.263270e-11))
109.94642     	((-1.488802e-09 3.852948e-09 3.736616e-09) (-1.148480e-09 3.490130e-09 -5.847421e-10)) ((9.130726e-11 1.658102e-14 -3.195576e-13) (5.465661e-07 5.368004e-11 -6.249136e-11))
120.12668     	((-1.473034e-09 3.544174e-09 4.611752e-09) (-1.285313e-09 3.334250e-09 1.859992e-10)) ((9.093539e-11 3.782359e-14 -3.035399e-13) (5.469578e-07 6.025020e-11 -5.975140e-11))
130.304145    	((-1.438045e-09 2.302778e-09 4.417123e-09) (-1.055960e-09 2.976778e-09 5.502871e-10)) ((9.101340e-11 2.730762e-14 -2.475752e-13) (5.494802e-07 6.718118e-11 -5.587478e-11))
140.47823     	((-1.526108e-09 1.437181e-09 4.216994e-09) (-8.260258e-10 2.617648e-09 9.831239e-10)) ((9.155710e-11 -3.405586e-15 -1.899087e-13) (5.539155e-07 7.351632e-11 -5.175718e-11))
150.648744    	((-1.855073e-09 7.653251e-10 3.560753e-09) (-8.868067e-10 2.201222e-09 1.166907e-09)) ((9.250831e-11 -1.581574e-14 -1.366991e-13) (5.600042e-07 7.849948e-11 -4.708168e-11))
160.815456    	((-2.060522e-09 5.842472e-11 2.716002e-09) (-9.254114e-10 1.812651e-09 1.177391e-09)) ((9.358375e-11 -4.011173e-14 -8.408872e-14) (5.674216e-07 8.173485e-11 -4.224932e-11))
170.97808     	((-2.020549e-09 -1.158073e-10 1.800069e-09) (-9.963520e-10 1.479816e-09 9.673868e-10)) ((9.478679e-11 -7.330812e-14 -3.429167e-14) (5.757730e-07 8.262773e-11 -3.812225e-11))
181.136343    	((-2.228342e-09 -1.397816e-10 1.012970e-09) (-1.037197e-09 1.198063e-09 6.033952e-10)) ((9.622536e-11 -1.173432e-13 5.563854e-15) (5.846169e-07 8.154607e-11 -3.552226e-11))
191.289995    	((-2.293584e-09 -8.276443e-10 2.237323e-10) (-9.945236e-10 1.046786e-09 2.499873e-10)) ((9.788894e-11 -1.655285e-13 4.548236e-14) (5.934830e-07 7.823854e-11 -3.436302e-11))
201.289103    	((-2.828907e-09 -1.390411e-09 4.189955e-12) (-8.709249e-10 1.009480e-09 -6.633500e-11)) ((9.976054e-11 -2.031179e-13 9.887336e-14) (6.018678e-07 7.291027e-11 -3.516193e-11))
211.146904    	((-3.043898e-09 -8.334013e-10 7.631941e-10) (-6.807033e-10 9.400110e-10 -4.047432e-10)) ((1.013678e-10 -2.220132e-13 9.739086e-14) (6.094051e-07 6.736691e-11 -3.797904e-11))
220.892026    	((-3.723820e-09 -8.352066e-10 1.686486e-09) (-6.338032e-10 1.063355e-09 -5.291315e-10)) ((1.026623e-10 -2.116792e-13 8.585356e-14) (6.158042e-07 6.356676e-11 -4.182916e-11))
230.551944    	((-4.368314e-09 -6.539779e-10 2.296303e-09) (-6.859298e-10 1.249279e-09 -5.175535e-10)) ((1.037653e-10 -1.761864e-13 5.363555e-14) (6.208756e-07 6.103411e-11 -4.508477e-11))
240.151323    	((-4.243927e-09 -1.363940e-09 2.443184e-09) (-7.207112e-10 1.457174e-09 -4.521126e-10)) ((1.046874e-10 -1.492605e-13 3.285698e-14) (6.245288e-07 6.032074e-11 -4.699032e-11))
