# Forces      
# CofR        : (0.000000e+00 0.000000e+00 0.000000e+00)
# Time        forces(pressure viscous)	moments(pressure viscous)
0             	((0.000000e+00 0.000000e+00 0.000000e+00) (0.000000e+00 0.000000e+00 0.000000e+00)) ((0.000000e+00 0.000000e+00 0.000000e+00) (0.000000e+00 0.000000e+00 0.000000e+00))
0.012         	((-8.528148e-13 1.427556e-12 3.430808e-10) (-8.647304e-16 7.529782e-15 7.205917e-12)) ((-1.548241e-16 1.334523e-11 -7.079205e-18) (1.770056e-17 8.816123e-09 -5.210752e-16))
0.0264        	((1.433181e-12 -1.515948e-12 -1.289872e-10) (-1.166966e-15 2.130756e-14 1.253052e-11)) ((-3.285532e-17 6.679560e-12 6.496410e-16) (2.394399e-16 8.074879e-09 -7.356502e-16))
0.04368       	((5.006179e-12 8.216447e-12 1.195040e-10) (1.268221e-14 1.597233e-14 1.358260e-11)) ((1.211290e-16 3.683324e-12 4.224848e-16) (-4.018532e-16 7.313134e-09 -1.058567e-15))
0.064416      	((-1.438425e-12 -2.265597e-12 4.496366e-12) (3.941428e-14 -1.183599e-14 1.122992e-11)) ((2.244965e-18 2.095909e-12 -2.955086e-17) (-1.353401e-15 6.547509e-09 -1.375810e-15))
0.0892992     	((4.330956e-12 2.538201e-12 1.498829e-11) (5.765977e-14 -4.028292e-14 9.334454e-12)) ((-3.151053e-17 1.555737e-12 -3.140990e-18) (-1.853390e-15 5.800319e-09 -1.415099e-15))
0.119159      	((-1.716442e-12 -6.759569e-13 3.992223e-12) (6.941278e-14 -7.003735e-14 7.913032e-12)) ((2.150357e-17 1.115714e-12 -6.339617e-18) (-2.480177e-15 5.094543e-09 -1.618713e-15))
0.154991      	((-1.433508e-12 -1.617573e-12 -9.790662e-12) (8.057234e-14 -1.095004e-13 6.371560e-12)) ((-1.961223e-17 8.811890e-13 6.749816e-17) (-3.290865e-15 4.446438e-09 -1.994692e-15))
0.197989      	((-1.133067e-12 -1.091601e-12 1.060959e-12) (8.507819e-14 -1.414312e-13 4.972774e-12)) ((-2.955605e-17 7.002474e-13 6.777383e-17) (-3.708759e-15 3.871844e-09 -2.293438e-15))
0.249587      	((8.624428e-14 -1.117748e-12 -9.487109e-12) (8.394110e-14 -1.592416e-13 3.924875e-12)) ((-4.613419e-17 5.771116e-13 -1.291543e-17) (-3.634993e-15 3.379341e-09 -1.991410e-15))
0.311504      	((-1.812872e-13 2.749697e-13 -1.821535e-12) (7.806302e-14 -1.726441e-13 3.054318e-12)) ((-3.815485e-17 4.802727e-13 -6.840065e-17) (-3.437406e-15 2.967753e-09 -1.354068e-15))
0.385805      	((-6.398449e-13 9.502835e-13 2.076334e-14) (7.450597e-14 -1.773869e-13 2.339606e-12)) ((-1.146847e-17 4.116799e-13 -1.089335e-16) (-3.348688e-15 2.628207e-09 -1.060435e-15))
0.474966      	((-1.218706e-12 -2.558645e-13 1.993226e-12) (6.255711e-14 -1.889510e-13 1.660939e-12)) ((-9.291858e-18 3.666039e-13 -8.635096e-17) (-3.192541e-15 2.347345e-09 -3.120374e-16))
0.581959      	((-1.959159e-12 -1.089313e-12 -2.035564e-12) (4.244894e-14 -1.971732e-13 1.094004e-12)) ((-1.961977e-17 3.283098e-13 -3.212495e-17) (-3.127534e-15 2.111270e-09 7.341184e-16))
0.710351      	((-2.834453e-12 -1.532772e-12 4.697039e-12) (4.911788e-14 -1.408221e-13 9.758189e-13)) ((-4.941303e-17 2.914527e-13 -2.988845e-17) (-2.480573e-15 1.908477e-09 -1.168682e-16))
0.864421      	((-2.952074e-12 -1.291609e-12 2.272133e-12) (6.740272e-14 1.626611e-14 9.217831e-13)) ((-6.823500e-17 2.665980e-13 4.287490e-17) (-1.024883e-15 1.730810e-09 -2.471110e-15))
1.049306      	((-4.380515e-12 -1.239309e-12 -1.780923e-13) (1.050474e-13 1.587935e-13 5.916846e-13)) ((-9.944824e-17 2.507679e-13 3.655952e-17) (8.973887e-16 1.572899e-09 -3.868004e-15))
1.271167      	((-5.698991e-12 -1.017532e-12 4.620661e-12) (1.864472e-13 2.275996e-13 2.609474e-13)) ((-4.056442e-17 2.345404e-13 7.301191e-17) (3.637747e-15 1.431131e-09 -2.915121e-15))
1.5374        	((-5.635741e-12 4.451591e-13 5.518312e-12) (3.199266e-13 2.544516e-13 -1.762695e-13)) ((6.971114e-17 2.156819e-13 1.125471e-16) (7.247931e-15 1.303153e-09 -4.598236e-16))
1.85688       	((-5.525715e-12 -6.677350e-13 3.747627e-12) (4.786441e-13 2.785953e-13 -8.486732e-13)) ((1.349843e-16 1.990734e-13 5.027523e-17) (1.241760e-14 1.187690e-09 4.508751e-15))
2.240256      	((-5.307354e-12 -3.185902e-13 4.684421e-12) (7.068819e-13 2.289862e-13 -1.281415e-12)) ((1.408142e-16 1.883726e-13 3.428325e-17) (1.713529e-14 1.084083e-09 1.113713e-14))
2.700307      	((-5.119291e-12 -5.979958e-14 4.006717e-12) (1.097872e-12 1.466387e-13 -1.524312e-12)) ((1.270033e-16 1.806333e-13 4.534127e-17) (2.491682e-14 9.918636e-10 2.488975e-14))
3.252369      	((-3.803074e-12 -3.383915e-13 2.635009e-12) (1.603840e-12 7.924884e-14 -2.369325e-12)) ((1.493788e-16 1.728863e-13 7.304246e-17) (3.512923e-14 9.104048e-10 4.163618e-14))
3.914842      	((-1.721552e-12 -3.280245e-13 7.666310e-13) (2.107891e-12 -1.399369e-14 -3.732355e-12)) ((7.527844e-17 1.638788e-13 1.225450e-16) (4.245865e-14 8.387555e-10 4.980081e-14))
4.709811      	((-7.810359e-13 -1.465685e-14 -6.274976e-13) (2.662712e-12 -1.379030e-13 -4.260630e-12)) ((9.503202e-17 1.538621e-13 9.908258e-17) (4.848185e-14 7.755856e-10 5.629175e-14))
5.663773      	((5.371331e-14 -2.567955e-13 1.123940e-12) (2.990929e-12 -1.335779e-13 -3.996427e-12)) ((9.224430e-17 1.429633e-13 2.899563e-17) (5.162930e-14 7.194112e-10 5.709791e-14))
6.808528      	((8.115637e-13 -3.898802e-13 2.915513e-13) (2.961682e-12 -5.039243e-14 -3.864043e-12)) ((9.884033e-17 1.318532e-13 -5.015258e-17) (4.967605e-14 6.689127e-10 5.168330e-14))
8.182233      	((1.146766e-12 3.881413e-15 -1.533100e-13) (2.740208e-12 -7.258462e-14 -3.544236e-12)) ((9.293124e-17 1.210421e-13 -3.468479e-17) (4.362431e-14 6.230672e-10 4.738744e-14))
9.83068       	((1.097484e-12 -4.909485e-13 2.477143e-13) (2.370575e-12 -1.108949e-13 -2.713528e-12)) ((6.471048e-17 1.099540e-13 -3.737887e-17) (3.564940e-14 5.811002e-10 4.128204e-14))
11.808816     	((3.839989e-15 -1.758828e-13 1.092673e-12) (1.848781e-12 5.739039e-15 -1.694620e-12)) ((6.110523e-17 9.997698e-14 -6.892761e-17) (2.870631e-14 5.424728e-10 3.129023e-14))
14.182579     	((-2.581130e-13 -1.936756e-13 1.464429e-12) (1.315736e-12 2.463769e-13 -1.150454e-12)) ((4.448519e-17 9.085906e-14 -8.751652e-17) (2.224641e-14 5.068763e-10 1.697903e-14))
17.031095     	((-4.386036e-13 -2.808254e-13 1.185803e-12) (8.972972e-13 3.101374e-13 -7.778198e-13)) ((7.806570e-18 8.302272e-14 -1.002564e-16) (1.539165e-14 4.741501e-10 7.897142e-15))
20.449314     	((-4.311759e-13 -1.034113e-13 1.535738e-12) (5.679418e-13 2.049872e-13 -4.674047e-13)) ((2.100135e-18 7.608612e-14 -1.177902e-16) (9.198094e-15 4.441890e-10 5.216850e-15))
24.551176     	((-4.057285e-13 6.197694e-14 1.456806e-12) (3.669663e-13 1.071666e-13 -4.007395e-13)) ((4.500856e-18 6.990567e-14 -1.220640e-16) (4.893960e-15 4.168118e-10 3.959033e-15))
29.473411     	((-3.742777e-13 -2.444155e-14 1.602671e-12) (2.540494e-13 4.756138e-14 -4.874621e-13)) ((-1.275476e-17 6.473792e-14 -1.130368e-16) (3.290992e-15 3.918260e-10 3.137120e-15))
35.380094     	((-5.940534e-13 -1.484130e-14 1.456887e-12) (2.041894e-13 -9.090430e-15 -5.779859e-13)) ((-1.113368e-17 6.015339e-14 -1.084734e-16) (2.480862e-15 3.690278e-10 2.510153e-15))
42.468112     	((-4.074014e-13 1.429762e-14 1.284034e-12) (1.996694e-13 -3.773355e-14 -6.166564e-13)) ((-5.259152e-18 5.621335e-14 -8.386938e-17) (2.320547e-15 3.482233e-10 2.759339e-15))
50.973735     	((-2.852849e-13 3.457217e-14 1.121700e-12) (2.242932e-13 -5.882388e-14 -5.686872e-13)) ((2.868818e-18 5.271309e-14 -6.544365e-17) (2.715886e-15 3.292560e-10 3.965880e-15))
61.180482     	((-4.174740e-13 3.396744e-14 9.853064e-13) (2.401253e-13 -7.233120e-14 -5.011240e-13)) ((-4.542120e-18 4.956609e-14 -5.873570e-17) (3.793272e-15 3.119882e-10 6.029122e-15))
73.428578     	((-2.128876e-13 2.171355e-14 7.742168e-13) (2.686821e-13 -6.851741e-14 -4.666208e-13)) ((-1.369625e-17 4.675055e-14 -4.779778e-17) (5.176322e-15 2.963081e-10 7.179789e-15))
88.126294     	((-1.810484e-13 -5.206062e-15 8.947768e-13) (3.009230e-13 -6.730537e-14 -4.986709e-13)) ((-2.086559e-17 4.422355e-14 -3.039531e-17) (6.244279e-15 2.820969e-10 8.267502e-15))
105.763553    	((-8.707849e-14 -1.850768e-14 7.695395e-13) (3.328886e-13 -6.523937e-14 -5.406596e-13)) ((-2.700758e-17 4.182468e-14 -1.744300e-17) (7.041051e-15 2.692413e-10 9.281955e-15))
126.928263    	((-2.319173e-14 -4.755564e-14 6.440508e-13) (3.577875e-13 -6.628005e-14 -5.282241e-13)) ((-3.093974e-17 3.964722e-14 -1.057470e-17) (7.140336e-15 2.576214e-10 9.832240e-15))
152.325916    	((2.771185e-14 -4.079856e-14 4.564590e-13) (3.600313e-13 -6.120626e-14 -5.212886e-13)) ((-2.856045e-17 3.771794e-14 -8.965523e-18) (7.134657e-15 2.471143e-10 1.008618e-14))
182.803099    	((3.550019e-14 -2.222991e-14 2.804773e-13) (3.467535e-13 -6.250906e-14 -5.356391e-13)) ((-2.414132e-17 3.595571e-14 -1.028091e-17) (7.328761e-15 2.375948e-10 1.020255e-14))
219.375719    	((6.257063e-14 -1.715536e-14 1.993474e-13) (3.328433e-13 -5.412822e-14 -6.048795e-13)) ((-2.186787e-17 3.436776e-14 -8.782385e-18) (7.682115e-15 2.289491e-10 1.004101e-14))
263.262863    	((8.786754e-14 -7.767176e-15 5.302630e-15) (3.236013e-13 -4.087999e-14 -7.399407e-13)) ((-1.835863e-17 3.292381e-14 -6.744809e-18) (8.191808e-15 2.210849e-10 9.571103e-15))
315.927436    	((1.255802e-13 -2.757161e-15 -3.023562e-14) (3.220872e-13 -2.987288e-14 -8.540063e-13)) ((-1.132170e-17 3.162009e-14 -3.917038e-18) (8.733741e-15 2.139283e-10 9.293842e-15))
379.124923    	((1.157977e-13 6.365654e-15 -9.098690e-14) (3.290649e-13 -2.643844e-14 -9.544886e-13)) ((-6.254612e-18 3.042815e-14 1.210964e-18) (8.965940e-15 2.074221e-10 9.158128e-15))
454.961908    	((1.429822e-13 -7.126104e-15 -1.365971e-13) (3.255666e-13 -2.551307e-14 -1.021911e-12)) ((-4.033001e-18 2.933749e-14 4.726314e-18) (9.018928e-15 2.015215e-10 8.786587e-15))
545.966289    	((1.219231e-13 -1.755033e-14 -1.201669e-13) (3.202735e-13 -2.957838e-14 -1.068444e-12)) ((-2.769370e-18 2.833118e-14 7.385487e-18) (8.772655e-15 1.961849e-10 8.469836e-15))
655.171547    	((7.302754e-14 7.713522e-15 -1.182167e-13) (3.113102e-13 -2.310407e-14 -1.085535e-12)) ((-1.840925e-18 2.742655e-14 9.503945e-18) (8.424892e-15 1.913740e-10 7.944079e-15))
786.217856    	((4.961830e-14 2.478386e-14 -1.137400e-13) (2.973204e-13 -2.012337e-14 -1.084033e-12)) ((-9.443712e-19 2.660905e-14 1.129058e-17) (7.945546e-15 1.870562e-10 7.511210e-15))
943.473427    	((6.182014e-14 2.078400e-14 -3.736394e-14) (2.812004e-13 -1.835494e-14 -1.058260e-12)) ((-3.367609e-19 2.588769e-14 1.055147e-17) (7.502022e-15 1.831992e-10 7.314841e-15))
1132.180113   	((9.404130e-14 1.091097e-14 -1.548225e-14) (2.654451e-13 -1.350702e-14 -1.032706e-12)) ((9.212288e-19 2.525563e-14 7.664791e-18) (6.999230e-15 1.797706e-10 7.108711e-15))
1358.628135   	((1.129829e-13 7.113396e-15 -2.961928e-15) (2.575385e-13 -9.658249e-15 -1.001593e-12)) ((2.316156e-18 2.469099e-14 4.975495e-18) (6.498153e-15 1.767398e-10 6.867548e-15))
1630.365763   	((8.595888e-14 1.185423e-14 -2.584512e-15) (2.568288e-13 -6.603565e-15 -9.691406e-13)) ((2.943780e-18 2.419153e-14 2.260320e-18) (6.090080e-15 1.740758e-10 6.570322e-15))
1956.450915   	((7.019178e-14 2.337636e-14 -9.417470e-15) (2.575815e-13 -3.285590e-15 -9.445957e-13)) ((4.055912e-18 2.375524e-14 -1.055336e-18) (5.745513e-15 1.717478e-10 6.102515e-15))
2347.753098   	((6.924298e-14 3.238788e-14 -3.239928e-14) (2.573979e-13 1.747492e-15 -9.288801e-13)) ((4.815607e-18 2.337665e-14 -2.678866e-18) (5.545510e-15 1.697253e-10 5.553236e-15))
2817.315718   	((6.962274e-14 3.509203e-14 -3.504698e-14) (2.548447e-13 5.443916e-15 -9.153996e-13)) ((4.319278e-18 2.305406e-14 -1.355700e-18) (5.394211e-15 1.679789e-10 5.084949e-15))
3380.790861   	((6.321900e-14 3.259832e-14 -3.207095e-14) (2.521568e-13 6.327320e-15 -9.060962e-13)) ((3.311858e-18 2.278180e-14 1.600107e-19) (5.287574e-15 1.664809e-10 4.657193e-15))
4056.961033   	((5.969762e-14 3.773316e-14 -1.812212e-14) (2.519808e-13 7.431963e-15 -8.990577e-13)) ((2.156779e-18 2.255009e-14 1.546529e-18) (5.081956e-15 1.652055e-10 4.340409e-15))
4868.36524    	((6.013413e-14 5.128366e-14 7.188436e-15) (2.508932e-13 7.181380e-15 -8.903077e-13)) ((2.475383e-18 2.235384e-14 1.993431e-18) (4.837759e-15 1.641271e-10 4.091274e-15))
5842.050288   	((5.064313e-14 6.994064e-14 1.274912e-14) (2.494373e-13 6.214683e-15 -8.819608e-13)) ((2.024026e-18 2.218765e-14 1.425471e-18) (4.619660e-15 1.632219e-10 3.842126e-15))
7010.472346   	((3.559558e-14 1.066397e-13 -6.453894e-15) (2.507973e-13 6.683442e-15 -8.749774e-13)) ((1.432427e-19 2.204634e-14 -4.756989e-19) (4.465102e-15 1.624674e-10 3.478839e-15))
8412.578815   	((3.476723e-14 1.249334e-13 -5.592590e-15) (2.504831e-13 7.660370e-15 -8.700062e-13)) ((-3.151262e-21 2.193036e-14 -2.112108e-18) (4.334844e-15 1.618434e-10 3.196020e-15))
10095.106578  	((3.038086e-14 1.389285e-13 -2.247770e-15) (2.499968e-13 7.850827e-15 -8.671825e-13)) ((3.732753e-19 2.183540e-14 -3.805139e-18) (4.187403e-15 1.613306e-10 3.017425e-15))
12114.139893  	((2.650369e-14 1.489756e-13 8.326827e-15) (2.491787e-13 8.393356e-15 -8.649767e-13)) ((-1.532994e-19 2.175870e-14 -4.621463e-18) (4.028192e-15 1.609120e-10 2.865070e-15))
14536.979872  	((2.036137e-14 1.605014e-13 1.967510e-14) (2.478022e-13 8.873761e-15 -8.640765e-13)) ((-3.619933e-19 2.169658e-14 -5.261815e-18) (3.888431e-15 1.605722e-10 2.726093e-15))
17444.387847  	((1.278522e-14 1.733424e-13 2.747887e-14) (2.465523e-13 9.572457e-15 -8.644300e-13)) ((-3.865682e-19 2.164569e-14 -5.668509e-18) (3.757682e-15 1.602978e-10 2.611143e-15))
20933.277416  	((6.286422e-15 1.871369e-13 3.219326e-14) (2.451454e-13 9.912338e-15 -8.651565e-13)) ((-4.120341e-19 2.160484e-14 -6.014463e-18) (3.656347e-15 1.600774e-10 2.524682e-15))
25119.944899  	((-1.385723e-16 2.022945e-13 3.515617e-14) (2.436900e-13 1.026649e-14 -8.658235e-13)) ((-4.348664e-19 2.157248e-14 -6.294137e-18) (3.579079e-15 1.599010e-10 2.458167e-15))
30143.945879  	((-7.389483e-15 2.188760e-13 3.800750e-14) (2.422984e-13 1.076679e-14 -8.662865e-13)) ((-4.345547e-19 2.154676e-14 -6.507814e-18) (3.521189e-15 1.597604e-10 2.407842e-15))
36172.747055  	((-1.338625e-14 2.353074e-13 4.187806e-14) (2.410856e-13 1.130992e-14 -8.666008e-13)) ((-4.303227e-19 2.152649e-14 -6.704320e-18) (3.478455e-15 1.596486e-10 2.369469e-15))
43407.308466  	((-1.961601e-14 2.512008e-13 4.589604e-14) (2.398366e-13 1.196445e-14 -8.668836e-13)) ((-4.750410e-19 2.151055e-14 -6.851200e-18) (3.447202e-15 1.595601e-10 2.335979e-15))
52088.782159  	((-2.626548e-14 2.683639e-13 4.724531e-14) (2.386355e-13 1.268112e-14 -8.670884e-13)) ((-5.275630e-19 2.149831e-14 -6.997619e-18) (3.422225e-15 1.594901e-10 2.310071e-15))
62388.614029  	((-3.421122e-14 2.862389e-13 4.877832e-14) (2.374866e-13 1.327612e-14 -8.670599e-13)) ((-5.902614e-19 2.148919e-14 -7.112490e-18) (3.402057e-15 1.594348e-10 2.288018e-15))
74306.811226  	((-3.912062e-14 3.050644e-13 5.666341e-14) (2.364184e-13 1.358991e-14 -8.667227e-13)) ((-6.184069e-19 2.148224e-14 -7.299625e-18) (3.385654e-15 1.593913e-10 2.271000e-15))
87843.379283  	((-3.675636e-14 3.268458e-13 7.791779e-14) (2.355252e-13 1.384558e-14 -8.659463e-13)) ((-6.505512e-19 2.147645e-14 -7.361400e-18) (3.373646e-15 1.593571e-10 2.254408e-15))
102998.322476 	((-2.588274e-14 3.507925e-13 1.160473e-13) (2.349727e-13 1.421565e-14 -8.642422e-13)) ((-5.821747e-19 2.147141e-14 -7.487878e-18) (3.383782e-15 1.593302e-10 2.230679e-15))
119182.106861 	((6.568725e-17 3.855476e-13 1.690315e-13) (2.361553e-13 1.563451e-14 -8.605561e-13)) ((-1.772706e-20 2.146621e-14 -8.915969e-18) (3.451086e-15 1.593091e-10 2.193496e-15))
135365.916705 	((2.133285e-14 3.790576e-13 2.230838e-13) (2.375399e-13 1.459685e-14 -8.576612e-13)) ((-9.148244e-19 2.145369e-14 -5.928055e-18) (3.469857e-15 1.592928e-10 2.165792e-15))
151549.746209 	((2.686333e-14 3.968709e-13 2.714254e-13) (2.394020e-13 1.537964e-14 -8.531781e-13)) ((-8.802160e-19 2.144419e-14 -8.852280e-18) (3.605194e-15 1.592801e-10 2.179693e-15))
167733.590363 	((6.648613e-14 3.764195e-13 3.730840e-13) (2.336491e-13 1.587807e-14 -8.449925e-13)) ((-9.333899e-19 2.143259e-14 -7.192988e-18) (3.575316e-15 1.592705e-10 2.287793e-15))
183917.445815 	((1.036147e-13 3.817139e-13 5.146515e-13) (2.289329e-13 1.464806e-14 -8.370752e-13)) ((5.173507e-18 2.142951e-14 -7.286986e-18) (3.414206e-15 1.592627e-10 2.430467e-15))
200101.310113 	((1.360415e-13 4.036690e-13 6.470547e-13) (2.264584e-13 1.448445e-14 -8.278611e-13)) ((9.582317e-19 2.141167e-14 -1.241927e-18) (3.291089e-15 1.592568e-10 2.309303e-15))
216285.182246 	((1.708692e-13 3.822416e-13 7.411380e-13) (2.223327e-13 1.655100e-14 -8.137137e-13)) ((3.629902e-18 2.140093e-14 -3.524316e-20) (3.410829e-15 1.592523e-10 2.157618e-15))
232469.062405 	((1.572139e-13 4.244265e-13 8.335575e-13) (2.143430e-13 1.567966e-14 -8.109428e-13)) ((-2.803755e-18 2.139025e-14 -4.827272e-19) (3.485619e-15 1.592486e-10 2.144939e-15))
248652.948917 	((1.407690e-13 3.944815e-13 8.958220e-13) (2.168023e-13 1.634561e-14 -8.196093e-13)) ((4.727463e-18 2.136840e-14 -1.213660e-18) (3.653507e-15 1.592456e-10 2.372696e-15))
264836.842018 	((2.083899e-13 3.853632e-13 9.090404e-13) (2.180044e-13 1.301474e-14 -8.186611e-13)) ((4.843873e-18 2.136290e-14 -2.490876e-18) (3.533762e-15 1.592423e-10 2.434256e-15))
281020.740713 	((3.166336e-13 4.054785e-13 8.602354e-13) (2.161215e-13 1.277781e-14 -8.185269e-13)) ((3.546423e-18 2.134795e-14 -2.034846e-18) (3.399366e-15 1.592386e-10 2.401332e-15))
297204.643918 	((5.375126e-13 3.740062e-13 7.796866e-13) (2.186397e-13 1.359517e-14 -8.213813e-13)) ((6.056410e-18 2.133573e-14 -2.123311e-20) (3.399136e-15 1.592351e-10 2.478288e-15))
313388.551699 	((8.039823e-13 3.416202e-13 7.015849e-13) (2.267368e-13 1.235781e-14 -8.191175e-13)) ((6.180024e-18 2.132682e-14 4.586041e-19) (3.306592e-15 1.592317e-10 2.450468e-15))
329572.464333 	((1.078886e-12 2.905806e-13 5.806053e-13) (2.355093e-13 1.036979e-14 -8.165717e-13)) ((8.037251e-18 2.131898e-14 2.481227e-19) (3.224608e-15 1.592282e-10 2.511452e-15))
345756.381412 	((1.323451e-12 2.225966e-13 4.477362e-13) (2.412723e-13 7.567079e-15 -8.198835e-13)) ((8.430136e-18 2.130985e-14 6.008264e-19) (3.141155e-15 1.592246e-10 2.602005e-15))
361940.302115 	((1.467663e-12 1.526232e-13 3.118591e-13) (2.448011e-13 5.031242e-15 -8.272958e-13)) ((8.171489e-18 2.130230e-14 5.746602e-19) (3.062162e-15 1.592209e-10 2.679888e-15))
378124.226022 	((1.489357e-12 8.975103e-14 1.976915e-13) (2.469350e-13 3.099546e-15 -8.345111e-13)) ((8.205037e-18 2.129352e-14 1.689341e-19) (3.050845e-15 1.592170e-10 2.752182e-15))
