# Forces      
# CofR        : (0.000000e+00 0.000000e+00 0.000000e+00)
# Time        forces(pressure viscous)	moments(pressure viscous)
0             	((0.000000e+00 0.000000e+00 0.000000e+00) (-3.096662e-09 -5.253628e-12 -3.174980e-04)) ((0.000000e+00 0.000000e+00 0.000000e+00) (5.532458e-13 -3.216465e-11 7.377606e-15))
0.012         	((-1.609240e-05 -7.525319e-06 -2.424731e-01) (-1.492069e-08 -7.162183e-09 -3.095588e-04)) ((1.216375e-09 -6.298790e-07 -3.276708e-11) (-5.690975e-10 1.138612e-09 -4.857433e-13))
0.0264        	((7.094174e-06 7.334620e-07 1.774370e-02) (-1.957785e-08 -9.756013e-09 -2.930088e-04)) ((-2.858028e-10 4.096711e-08 1.471289e-10) (-7.114190e-10 7.746109e-10 7.505561e-12))
0.04368       	((4.022167e-06 1.374136e-05 3.077598e-02) (-1.867244e-08 -7.195934e-10 -2.634370e-04)) ((-7.738386e-10 6.662833e-08 -5.120380e-10) (2.827755e-10 -1.832553e-09 4.636131e-11))
0.064416      	((9.126362e-06 1.013421e-06 5.641528e-03) (-5.910996e-09 1.528133e-08 -2.360294e-04)) ((-3.884681e-11 2.158906e-08 1.352633e-10) (1.218069e-09 -3.904173e-09 6.350141e-11))
0.0892992     	((2.852574e-06 7.522215e-07 3.149383e-03) (1.448041e-08 2.175284e-08 -2.183845e-04)) ((-7.674465e-11 1.251913e-08 -2.163639e-11) (1.376270e-09 -4.506960e-09 5.911496e-11))
0.119159      	((1.506946e-06 8.349619e-07 2.431238e-03) (2.463264e-08 1.895850e-08 -2.027894e-04)) ((-3.267472e-11 7.970504e-09 -2.485442e-12) (1.261186e-09 -4.686857e-09 8.116508e-11))
0.154991      	((8.432685e-07 2.151656e-07 1.404970e-03) (2.676897e-08 1.586757e-08 -1.864146e-04)) ((-2.966443e-11 5.180610e-09 1.967303e-11) (1.035812e-09 -4.625585e-09 9.296559e-11))
0.197989      	((2.786479e-07 3.904640e-08 9.085613e-04) (2.766542e-08 1.432120e-08 -1.702106e-04)) ((-4.585267e-11 3.377983e-09 -2.229276e-12) (8.937819e-10 -4.460930e-09 9.890915e-11))
0.249587      	((-2.306381e-07 -1.164299e-07 6.226263e-04) (2.747361e-08 1.237761e-08 -1.546380e-04)) ((-1.889565e-11 2.188083e-09 2.458319e-11) (7.812269e-10 -4.139694e-09 1.180785e-10))
0.311504      	((-1.494698e-07 9.800753e-09 4.231283e-04) (2.645922e-08 1.023070e-08 -1.400659e-04)) ((-1.050036e-11 1.444747e-09 -4.498562e-12) (6.458551e-10 -3.767923e-09 9.563743e-11))
0.385805      	((-1.224146e-07 -2.470662e-09 2.834853e-04) (2.382562e-08 8.109133e-09 -1.266300e-04)) ((-1.664332e-11 9.405634e-10 -1.033891e-11) (4.853647e-10 -3.253502e-09 3.088075e-11))
0.474966      	((-1.141934e-07 -2.206373e-09 1.844878e-04) (1.866771e-08 5.545858e-09 -1.143772e-04)) ((-1.917847e-11 6.131626e-10 2.086626e-12) (2.939508e-10 -2.585332e-09 -7.287009e-13))
0.581959      	((1.765790e-08 1.818628e-08 1.142634e-04) (1.344061e-08 4.143691e-09 -1.032797e-04)) ((-1.815839e-11 3.891163e-10 -1.994269e-12) (1.612906e-10 -2.060319e-09 -7.657015e-12))
0.710351      	((8.434612e-08 8.777759e-08 6.484650e-05) (9.875485e-09 3.688283e-09 -9.318119e-05)) ((-1.962401e-11 2.390025e-10 9.272718e-15) (9.137202e-11 -1.607466e-09 -1.327973e-11))
0.864421      	((1.372988e-07 1.339192e-07 2.998941e-05) (7.711017e-09 4.632572e-09 -8.393488e-05)) ((-1.947050e-11 1.375842e-10 4.530033e-13) (7.337021e-11 -1.253554e-09 -1.488671e-11))
1.049306      	((1.500458e-07 1.622623e-07 5.555746e-06) (5.953568e-09 5.560472e-09 -7.541956e-05)) ((-2.071541e-11 7.249252e-11 8.962422e-13) (1.286448e-10 -1.147265e-09 -1.641998e-11))
1.271167      	((1.234253e-07 1.680153e-07 -1.148353e-05) (4.752928e-09 5.648974e-09 -6.762717e-05)) ((-2.257801e-11 3.282143e-11 7.183168e-14) (2.513993e-10 -1.168349e-09 -1.604577e-11))
1.5374        	((1.273651e-07 1.620773e-07 -2.376809e-05) (4.225364e-09 5.067478e-09 -6.060743e-05)) ((-2.321294e-11 -4.728493e-13 1.431723e-13) (4.483508e-10 -1.239965e-09 -1.329526e-11))
1.85688       	((1.547648e-07 1.848350e-07 -3.297693e-05) (4.244144e-09 4.586018e-09 -5.438048e-05)) ((-2.241639e-11 -2.688982e-11 9.365064e-13) (7.612116e-10 -1.364918e-09 -8.823922e-12))
2.240256      	((2.138412e-07 2.267619e-07 -4.013640e-05) (6.002700e-09 5.335972e-09 -4.893745e-05)) ((-1.907547e-11 -4.739794e-11 5.383521e-13) (1.135929e-09 -1.635974e-09 -4.598891e-12))
2.700307      	((2.257455e-07 2.389444e-07 -4.574546e-05) (9.220651e-09 7.280307e-09 -4.424866e-05)) ((-9.152389e-12 -7.056797e-11 2.695877e-13) (1.346272e-09 -1.936792e-09 -2.341997e-12))
3.252369      	((2.000343e-07 2.182258e-07 -5.038324e-05) (1.231104e-08 9.238809e-09 -4.028544e-05)) ((3.197161e-13 -9.107936e-11 -1.137071e-14) (1.399373e-09 -2.053285e-09 -2.176667e-12))
3.914842      	((1.802898e-07 2.008731e-07 -5.429129e-05) (1.502953e-08 1.080411e-08 -3.698960e-05)) ((3.261062e-12 -1.009723e-10 -2.464181e-13) (1.515451e-09 -2.047257e-09 -3.037368e-12))
4.709811      	((1.314227e-07 1.450373e-07 -5.748368e-05) (1.734174e-08 1.268968e-08 -3.427730e-05)) ((6.117424e-12 -1.044278e-10 1.022791e-13) (1.705797e-09 -2.094061e-09 4.497999e-13))
5.663773      	((1.172828e-07 1.291607e-07 -5.997941e-05) (1.923062e-08 1.467651e-08 -3.207654e-05)) ((9.960911e-12 -1.045591e-10 3.015349e-13) (1.873195e-09 -2.216104e-09 -2.188167e-12))
6.808528      	((1.051666e-07 1.079439e-07 -6.231451e-05) (2.084238e-08 1.539756e-08 -3.033867e-05)) ((1.331186e-11 -1.018355e-10 9.653750e-13) (1.885691e-09 -2.243975e-09 -7.787681e-13))
8.182233      	((1.102119e-07 1.079704e-07 -6.478706e-05) (2.096871e-08 1.542734e-08 -2.902389e-05)) ((1.585683e-11 -9.797611e-11 9.864275e-13) (1.763605e-09 -2.136885e-09 -3.434869e-12))
9.83068       	((1.249196e-07 1.266107e-07 -6.693969e-05) (1.979205e-08 1.471472e-08 -2.805580e-05)) ((1.535946e-11 -8.851391e-11 2.967524e-13) (1.570654e-09 -1.933965e-09 -9.851486e-12))
11.808816     	((1.526445e-07 1.609210e-07 -6.815063e-05) (1.921395e-08 1.439841e-08 -2.735049e-05)) ((1.509746e-11 -7.637105e-11 -1.009815e-13) (1.451917e-09 -1.761760e-09 -1.569566e-11))
14.182579     	((1.742622e-07 1.869262e-07 -6.908248e-05) (1.900200e-08 1.503292e-08 -2.685253e-05)) ((1.533624e-11 -6.415998e-11 -3.489136e-13) (1.456433e-09 -1.728824e-09 -1.425560e-11))
17.031095     	((1.661656e-07 1.847917e-07 -6.880871e-05) (1.961558e-08 1.626279e-08 -2.651571e-05)) ((1.423135e-11 -4.925142e-11 1.770534e-13) (1.535135e-09 -1.813914e-09 -9.887403e-12))
20.449314     	((1.610711e-07 1.828569e-07 -6.750314e-05) (2.037786e-08 1.744443e-08 -2.627511e-05)) ((1.309244e-11 -3.426877e-11 5.795128e-13) (1.636834e-09 -1.974394e-09 -6.076855e-12))
24.551176     	((1.472320e-07 1.724076e-07 -6.624543e-05) (2.243765e-08 1.886255e-08 -2.610109e-05)) ((1.410692e-11 -2.300220e-11 3.730839e-13) (1.766311e-09 -2.191340e-09 -2.338018e-12))
29.449152     	((1.297829e-07 1.618110e-07 -6.537939e-05) (2.515673e-08 2.144733e-08 -2.598465e-05)) ((1.558428e-11 -1.581008e-11 6.781445e-13) (1.891336e-09 -2.347020e-09 -4.631076e-12))
35.141669     	((9.342437e-08 1.310107e-07 -6.462278e-05) (2.691099e-08 2.347284e-08 -2.591129e-05)) ((1.757457e-11 -1.068035e-11 8.615224e-14) (2.017256e-09 -2.479241e-09 -1.980114e-12))
41.62748      	((4.287206e-08 9.056467e-08 -6.370810e-05) (2.770776e-08 2.470809e-08 -2.587442e-05)) ((1.929902e-11 -5.990962e-12 1.445686e-13) (2.088930e-09 -2.563875e-09 3.855926e-13))
48.905534     	((-2.233512e-08 3.154921e-08 -6.290428e-05) (2.647364e-08 2.418977e-08 -2.587235e-05)) ((2.109710e-11 -2.465242e-12 1.074759e-13) (2.094781e-09 -2.540148e-09 2.874366e-12))
56.819478     	((-8.292724e-08 -2.174328e-08 -6.173159e-05) (2.387455e-08 2.231744e-08 -2.587004e-05)) ((2.218592e-11 5.981609e-13 2.060011e-13) (2.065785e-09 -2.470276e-09 5.131301e-12))
64.727124     	((-1.339002e-07 -6.807564e-08 -6.029253e-05) (2.076330e-08 1.978664e-08 -2.584371e-05)) ((2.279612e-11 4.223703e-12 4.696869e-13) (2.005174e-09 -2.377043e-09 4.893702e-12))
72.630995     	((-1.811352e-07 -1.086026e-07 -5.925880e-05) (1.710378e-08 1.686536e-08 -2.581743e-05)) ((2.332036e-11 7.179642e-12 5.699294e-13) (1.939233e-09 -2.276460e-09 6.766426e-12))
80.53174      	((-2.255232e-07 -1.466084e-07 -5.856426e-05) (1.367395e-08 1.392222e-08 -2.579991e-05)) ((2.383416e-11 9.201050e-12 7.466496e-13) (1.875260e-09 -2.209065e-09 6.859516e-12))
88.429976     	((-2.703142e-07 -1.847249e-07 -5.804225e-05) (1.045451e-08 1.101887e-08 -2.578561e-05)) ((2.421103e-11 1.065467e-11 7.604525e-13) (1.813817e-09 -2.156808e-09 6.139027e-12))
96.326236     	((-3.143441e-07 -2.205788e-07 -5.763558e-05) (7.050415e-09 8.033236e-09 -2.577422e-05)) ((2.451638e-11 1.171943e-11 7.191559e-13) (1.748439e-09 -2.102700e-09 6.472995e-12))
104.220895    	((-3.580858e-07 -2.544970e-07 -5.730196e-05) (3.555568e-09 4.991813e-09 -2.576450e-05)) ((2.483247e-11 1.244818e-11 6.415168e-13) (1.677355e-09 -2.056409e-09 7.085165e-12))
112.1142      	((-3.998936e-07 -2.842439e-07 -5.700274e-05) (2.679056e-10 2.191827e-09 -2.575605e-05)) ((2.515262e-11 1.301582e-11 5.518936e-13) (1.612934e-09 -2.023475e-09 8.083245e-12))
