# Forces      
# CofR        : (0.000000e+00 0.000000e+00 0.000000e+00)
# Time        forces(pressure viscous)	moments(pressure viscous)
0             	((0.000000e+00 0.000000e+00 0.000000e+00) (-2.546081e-15 -5.025260e-06 4.539053e-16)) ((0.000000e+00 0.000000e+00 0.000000e+00) (-1.129123e-07 -1.386230e-17 2.404401e-12))
0.012         	((1.545313e-09 -1.461358e-03 3.298667e-04) (8.354914e-12 -5.767139e-06 -1.345981e-09)) ((1.723553e-08 1.123916e-09 2.755541e-10) (-1.664133e-07 -7.429005e-15 4.989613e-12))
0.0264        	((-2.298928e-08 1.003925e-04 -2.051783e-05) (-5.120635e-12 -5.885120e-06 -2.024095e-09)) ((-1.204829e-09 -7.070379e-11 -1.824453e-11) (-1.863392e-07 1.025004e-12 6.573132e-12))
0.04368       	((1.046935e-08 3.061336e-04 -2.371697e-05) (-2.649747e-12 -5.230888e-06 -1.323266e-09)) ((-3.984031e-09 -8.257802e-11 -7.418127e-11) (-1.660096e-07 1.684854e-12 5.596583e-12))
0.064416      	((6.869762e-09 2.877133e-06 -1.186919e-05) (-9.327925e-11 -4.633632e-06 -5.680593e-10)) ((1.952882e-11 -3.991462e-11 3.422321e-12) (-1.490133e-07 9.573083e-13 6.583221e-12))
0.0892992     	((-4.251191e-09 -4.169262e-06 -7.283908e-06) (-1.624070e-10 -4.278204e-06 -3.909764e-10)) ((1.645833e-10 -2.381728e-11 4.328471e-12) (-1.408574e-07 2.165501e-13 7.145960e-12))
0.119159      	((-1.628082e-09 4.557709e-06 -4.388699e-06) (-1.462103e-10 -3.950609e-06 -6.191347e-10)) ((-8.621588e-11 -1.484487e-11 -8.352984e-13) (-1.317918e-07 4.075451e-13 6.294266e-12))
0.154991      	((2.466297e-09 2.466721e-06 -2.743373e-06) (-1.202706e-10 -3.602990e-06 -9.657150e-10)) ((-5.250932e-11 -8.916357e-12 -8.809087e-14) (-1.216939e-07 4.331164e-13 5.627885e-12))
0.197989      	((5.982773e-10 5.990281e-07 -1.680877e-06) (-7.254195e-11 -3.251838e-06 -1.121847e-09)) ((-1.847549e-11 -5.317977e-12 -1.046784e-13) (-1.114112e-07 2.410169e-13 3.684061e-12))
0.249587      	((-2.024715e-10 -7.859757e-08 -1.040058e-06) (-3.772351e-11 -2.907047e-06 -1.220584e-09)) ((-4.819572e-12 -3.316253e-12 2.757910e-13) (-1.011220e-07 5.274307e-14 2.344741e-12))
0.311504      	((-1.965652e-10 -3.887007e-07 -6.149803e-07) (-1.107309e-11 -2.578873e-06 -1.310987e-09)) ((-6.217731e-13 -1.879426e-12 3.553666e-13) (-9.102311e-08 -4.544834e-13 1.283993e-12))
0.385805      	((-1.080352e-10 -5.370470e-07 -3.614383e-07) (1.137613e-11 -2.275600e-06 -1.373649e-09)) ((5.788731e-13 -1.019639e-12 3.148570e-13) (-8.136134e-08 -8.699463e-13 8.084786e-14))
0.474966      	((-1.210979e-10 -6.062766e-07 -1.915956e-07) (1.985334e-11 -2.003449e-06 -1.428330e-09)) ((1.732622e-12 -4.422580e-13 2.649379e-13) (-7.240858e-08 -1.076733e-12 -1.599945e-13))
0.581959      	((-7.108832e-11 -6.336617e-07 -9.344118e-08) (2.178883e-11 -1.765244e-06 -1.491121e-09)) ((2.753314e-12 -1.087764e-13 2.348723e-13) (-6.433797e-08 -1.071456e-12 8.319330e-13))
0.710351      	((-1.834083e-11 -6.309349e-07 -2.895067e-08) (2.866933e-11 -1.561203e-06 -1.555565e-09)) ((3.446856e-12 1.081152e-13 1.920172e-13) (-5.724762e-08 -9.454941e-13 2.063210e-12))
0.864421      	((1.217562e-11 -6.080562e-07 5.465713e-09) (3.948105e-11 -1.388727e-06 -1.606234e-09)) ((3.732715e-12 2.201877e-13 1.881505e-13) (-5.113947e-08 -7.797730e-13 2.164411e-12))
1.049306      	((7.290873e-12 -5.745920e-07 2.737190e-08) (4.454895e-11 -1.243370e-06 -1.657893e-09)) ((3.677265e-12 2.841542e-13 1.823300e-13) (-4.592157e-08 -6.476368e-13 1.261380e-12))
1.271167      	((2.391938e-11 -5.374641e-07 3.711792e-08) (4.311785e-11 -1.120540e-06 -1.710795e-09)) ((3.465620e-12 3.124934e-13 1.686915e-13) (-4.145371e-08 -5.190647e-13 1.434510e-13))
1.5374        	((3.680179e-11 -4.995894e-07 4.206167e-08) (3.449672e-11 -1.015352e-06 -1.775529e-09)) ((3.226801e-12 3.292212e-13 1.680168e-13) (-3.758500e-08 -3.781747e-13 -6.614310e-13))
1.85688       	((3.238869e-11 -4.626588e-07 4.179215e-08) (2.252310e-11 -9.233303e-07 -1.860237e-09)) ((2.956180e-12 3.239864e-13 1.699354e-13) (-3.418397e-08 -2.875709e-13 -1.060027e-12))
2.240256      	((2.110865e-11 -4.276454e-07 3.978349e-08) (1.712962e-11 -8.415314e-07 -1.959534e-09)) ((2.717222e-12 3.124373e-13 1.696449e-13) (-3.115543e-08 -1.933635e-13 -1.101386e-12))
2.700307      	((4.760256e-12 -3.949468e-07 3.571044e-08) (2.097990e-11 -7.681445e-07 -2.070996e-09)) ((2.517201e-12 2.949262e-13 1.676165e-13) (-2.843603e-08 -6.219857e-14 -4.551025e-13))
3.252369      	((-4.836481e-12 -3.644612e-07 3.135811e-08) (2.300481e-11 -7.019807e-07 -2.194846e-09)) ((2.316009e-12 2.769913e-13 1.549047e-13) (-2.598341e-08 6.908461e-14 6.646351e-13))
3.914842      	((-8.462874e-14 -3.358181e-07 2.650510e-08) (1.861490e-11 -6.421881e-07 -2.329604e-09)) ((2.116776e-12 2.571048e-13 1.410651e-13) (-2.376697e-08 1.680978e-13 1.736402e-12))
4.709811      	((1.687093e-11 -3.092470e-07 2.187251e-08) (1.567318e-11 -5.881479e-07 -2.478315e-09)) ((1.934708e-12 2.401380e-13 1.273603e-13) (-2.176343e-08 1.882153e-13 2.684278e-12))
5.663773      	((3.105231e-11 -2.847533e-07 1.731260e-08) (1.292998e-11 -5.393991e-07 -2.644134e-09)) ((1.774363e-12 2.236039e-13 1.156552e-13) (-1.995559e-08 1.019577e-13 3.339833e-12))
6.808528      	((3.309250e-11 -2.622556e-07 1.312294e-08) (1.118851e-11 -4.955506e-07 -2.815296e-09)) ((1.634711e-12 2.060068e-13 1.022697e-13) (-1.832952e-08 -2.788814e-14 3.605691e-12))
8.182233      	((2.093219e-11 -2.416545e-07 9.191781e-09) (8.642509e-12 -4.561912e-07 -2.989058e-09)) ((1.513204e-12 1.878478e-13 8.856436e-14) (-1.687035e-08 -1.069336e-13 3.496603e-12))
9.83068       	((1.455069e-11 -2.229467e-07 5.614628e-09) (4.487542e-12 -4.208441e-07 -3.175540e-09)) ((1.402182e-12 1.727682e-13 7.693209e-14) (-1.556032e-08 -1.116944e-13 3.181927e-12))
11.808816     	((1.552135e-11 -2.058151e-07 2.357628e-09) (4.247303e-12 -3.889864e-07 -3.376330e-09)) ((1.298340e-12 1.607576e-13 6.709511e-14) (-1.437990e-08 -9.543018e-14 2.764282e-12))
14.182579     	((2.340957e-11 -1.901475e-07 -5.699137e-10) (6.528054e-12 -3.601463e-07 -3.592108e-09)) ((1.203179e-12 1.497077e-13 5.834401e-14) (-1.331117e-08 -1.265402e-13 2.265094e-12))
17.031095     	((1.681668e-11 -1.758647e-07 -3.284893e-09) (7.325781e-12 -3.339349e-07 -3.827069e-09)) ((1.117184e-12 1.367242e-13 5.097981e-14) (-1.233956e-08 -1.553690e-13 1.779775e-12))
20.449314     	((-4.129352e-12 -1.628638e-07 -5.714068e-09) (6.710993e-12 -3.100543e-07 -4.083955e-09)) ((1.039100e-12 1.244072e-13 4.512973e-14) (-1.145400e-08 -1.062292e-13 1.308852e-12))
24.551176     	((-2.551268e-11 -1.509621e-07 -7.922423e-09) (6.640676e-12 -2.882817e-07 -4.360855e-09)) ((9.691122e-13 1.131684e-13 4.063870e-14) (-1.064626e-08 1.027257e-14 8.344408e-13))
29.473411     	((-2.966435e-11 -1.401002e-07 -9.807213e-09) (6.213428e-12 -2.684466e-07 -4.652824e-09)) ((9.059649e-13 1.034990e-13 3.685114e-14) (-9.910223e-09 1.210432e-13 3.346249e-13))
35.380094     	((-2.039699e-11 -1.302084e-07 -1.148534e-08) (6.886282e-12 -2.504104e-07 -4.957464e-09)) ((8.489228e-13 9.565917e-14 3.347643e-14) (-9.240942e-09 1.645964e-13 -2.194183e-13))
42.468112     	((-2.000299e-11 -1.212587e-07 -1.292029e-08) (7.500245e-12 -2.340359e-07 -5.273467e-09)) ((7.973508e-13 8.844355e-14 3.072496e-14) (-8.633417e-09 1.763807e-13 -8.400870e-13))
50.973735     	((-2.095016e-11 -1.131814e-07 -1.413374e-08) (7.826085e-12 -2.191853e-07 -5.593373e-09)) ((7.507590e-13 8.159955e-14 2.870293e-14) (-8.082528e-09 1.554508e-13 -1.568273e-12))
61.180482     	((-5.804596e-12 -1.058971e-07 -1.514894e-08) (9.728690e-12 -2.057203e-07 -5.916843e-09)) ((7.095554e-13 7.651084e-14 2.672896e-14) (-7.583084e-09 7.621540e-14 -2.394011e-12))
73.428578     	((6.713689e-12 -9.932521e-08 -1.600154e-08) (1.269428e-11 -1.935024e-07 -6.247298e-09)) ((6.723033e-13 7.230415e-14 2.520558e-14) (-7.129904e-09 -4.046034e-14 -3.294206e-12))
88.126294     	((1.178544e-11 -9.343829e-08 -1.670422e-08) (1.540638e-11 -1.824049e-07 -6.585769e-09)) ((6.398814e-13 6.840870e-14 2.398778e-14) (-6.718207e-09 -1.666615e-13 -4.254739e-12))
105.763553    	((1.620670e-11 -8.815757e-08 -1.730179e-08) (1.762604e-11 -1.723140e-07 -6.932580e-09)) ((6.107325e-13 6.492124e-14 2.296667e-14) (-6.343859e-09 -2.937178e-13 -5.215201e-12))
126.928263    	((2.293438e-11 -8.347897e-08 -1.774820e-08) (1.937716e-11 -1.631400e-07 -7.290177e-09)) ((5.855187e-13 6.220651e-14 2.199616e-14) (-6.003522e-09 -4.353670e-13 -6.115767e-12))
152.325916    	((2.847240e-11 -7.936696e-08 -1.810409e-08) (2.133895e-11 -1.548083e-07 -7.658950e-09)) ((5.645791e-13 5.996725e-14 2.113631e-14) (-5.694520e-09 -5.846126e-13 -6.903125e-12))
182.803099    	((3.278945e-11 -7.574265e-08 -1.834463e-08) (2.290949e-11 -1.472528e-07 -8.038912e-09)) ((5.473936e-13 5.803300e-14 2.044479e-14) (-5.414537e-09 -7.263723e-13 -7.548174e-12))
219.375719    	((3.914388e-11 -7.256155e-08 -1.851165e-08) (2.463800e-11 -1.404163e-07 -8.429120e-09)) ((5.335201e-13 5.645993e-14 2.003762e-14) (-5.161551e-09 -8.600458e-13 -8.064681e-12))
263.262863    	((4.360883e-11 -6.979459e-08 -1.858693e-08) (2.633877e-11 -1.342482e-07 -8.830882e-09)) ((5.228352e-13 5.523917e-14 1.988501e-14) (-4.933729e-09 -9.982134e-13 -8.460110e-12))
315.927436    	((4.442321e-11 -6.743683e-08 -1.858789e-08) (2.743122e-11 -1.287050e-07 -9.243027e-09)) ((5.151424e-13 5.433560e-14 1.985320e-14) (-4.729460e-09 -1.135551e-12 -8.748141e-12))
379.124923    	((4.704281e-11 -6.547044e-08 -1.851087e-08) (2.807722e-11 -1.237470e-07 -9.664123e-09)) ((5.101425e-13 5.381043e-14 1.996727e-14) (-4.547325e-09 -1.269872e-12 -8.942135e-12))
454.961908    	((4.955205e-11 -6.385727e-08 -1.837387e-08) (2.817115e-11 -1.193405e-07 -1.009383e-08)) ((5.074997e-13 5.381484e-14 2.014600e-14) (-4.386017e-09 -1.384061e-12 -9.026819e-12))
545.966289    	((5.192918e-11 -6.256401e-08 -1.817674e-08) (2.791855e-11 -1.154528e-07 -1.052933e-08)) ((5.066460e-13 5.429412e-14 2.037628e-14) (-4.244262e-09 -1.487140e-12 -9.021000e-12))
655.171547    	((5.205280e-11 -6.154465e-08 -1.793779e-08) (2.752173e-11 -1.120506e-07 -1.096639e-08)) ((5.068785e-13 5.522198e-14 2.066083e-14) (-4.120732e-09 -1.575455e-12 -8.928845e-12))
786.217856    	((5.210039e-11 -6.075594e-08 -1.766692e-08) (2.691103e-11 -1.090992e-07 -1.139777e-08)) ((5.078761e-13 5.642947e-14 2.101177e-14) (-4.014017e-09 -1.647630e-12 -8.755383e-12))
943.473427    	((5.291440e-11 -6.015093e-08 -1.737149e-08) (2.638172e-11 -1.065613e-07 -1.181478e-08)) ((5.091207e-13 5.779479e-14 2.126236e-14) (-3.922619e-09 -1.707629e-12 -8.514293e-12))
1132.180113   	((5.568005e-11 -5.968538e-08 -1.706397e-08) (2.618901e-11 -1.043974e-07 -1.220846e-08)) ((5.100866e-13 5.922573e-14 2.147316e-14) (-3.844950e-09 -1.760836e-12 -8.206494e-12))
1358.628135   	((5.652432e-11 -5.932267e-08 -1.675730e-08) (2.609790e-11 -1.025659e-07 -1.257170e-08)) ((5.106436e-13 6.066595e-14 2.159472e-14) (-3.779410e-09 -1.807001e-12 -7.844688e-12))
1624.719305   	((5.660204e-11 -5.904110e-08 -1.646085e-08) (2.599356e-11 -1.010276e-07 -1.289945e-08)) ((5.106497e-13 6.202336e-14 2.163049e-14) (-3.724528e-09 -1.840877e-12 -7.442336e-12))
1930.538286   	((5.551550e-11 -5.881382e-08 -1.617035e-08) (2.597471e-11 -9.974090e-08 -1.318951e-08)) ((5.100477e-13 6.337205e-14 2.161037e-14) (-3.678806e-09 -1.859536e-12 -7.011416e-12))
2276.156624   	((5.333645e-11 -5.862804e-08 -1.589686e-08) (2.594601e-11 -9.866883e-08 -1.344242e-08)) ((5.090454e-13 6.467654e-14 2.158997e-14) (-3.640911e-09 -1.863869e-12 -6.569651e-12))
2661.635592   	((5.142091e-11 -5.847398e-08 -1.563870e-08) (2.598259e-11 -9.777705e-08 -1.366081e-08)) ((5.077139e-13 6.590930e-14 2.158213e-14) (-3.609611e-09 -1.858135e-12 -6.128596e-12))
3060.76888    	((4.970011e-11 -5.835158e-08 -1.540256e-08) (2.604825e-11 -9.703846e-08 -1.384764e-08)) ((5.062515e-13 6.703188e-14 2.155179e-14) (-3.583920e-09 -1.844872e-12 -5.696177e-12))
3460.35206    	((4.774326e-11 -5.824984e-08 -1.518975e-08) (2.602562e-11 -9.642623e-08 -1.400704e-08)) ((5.047184e-13 6.804289e-14 2.151424e-14) (-3.562850e-09 -1.822217e-12 -5.277830e-12))
3860.319906   	((4.548135e-11 -5.816569e-08 -1.499636e-08) (2.589477e-11 -9.591898e-08 -1.414279e-08)) ((5.032019e-13 6.891551e-14 2.147700e-14) (-3.545602e-09 -1.789482e-12 -4.878253e-12))
4260.615791   	((4.322367e-11 -5.809483e-08 -1.483042e-08) (2.565167e-11 -9.549785e-08 -1.425846e-08)) ((5.017407e-13 6.965305e-14 2.143562e-14) (-3.531467e-09 -1.747790e-12 -4.497975e-12))
4661.191712   	((4.100087e-11 -5.803594e-08 -1.468677e-08) (2.534626e-11 -9.514782e-08 -1.435703e-08)) ((5.003852e-13 7.029218e-14 2.139705e-14) (-3.519879e-09 -1.699289e-12 -4.137193e-12))
5062.006492   	((3.884823e-11 -5.798637e-08 -1.455935e-08) (2.500642e-11 -9.485613e-08 -1.444121e-08)) ((4.991458e-13 7.085259e-14 2.136425e-14) (-3.510356e-09 -1.645393e-12 -3.795317e-12))
5463.025192   	((3.675490e-11 -5.794488e-08 -1.445103e-08) (2.464268e-11 -9.461268e-08 -1.451324e-08)) ((4.980421e-13 7.132366e-14 2.133650e-14) (-3.502513e-09 -1.587657e-12 -3.473144e-12))
5864.218013   	((3.474022e-11 -5.790991e-08 -1.435599e-08) (2.426818e-11 -9.440901e-08 -1.457499e-08)) ((4.970705e-13 7.173562e-14 2.131875e-14) (-3.496037e-09 -1.527009e-12 -3.171794e-12))
6265.559675   	((3.286256e-11 -5.788043e-08 -1.428101e-08) (2.388872e-11 -9.423836e-08 -1.462797e-08)) ((4.962199e-13 7.206277e-14 2.130532e-14) (-3.490678e-09 -1.464745e-12 -2.891368e-12))
6667.028595   	((3.105032e-11 -5.785561e-08 -1.420791e-08) (2.348509e-11 -9.409506e-08 -1.467350e-08)) ((4.954669e-13 7.236626e-14 2.129036e-14) (-3.486232e-09 -1.402685e-12 -2.632581e-12))
7068.606407   	((2.936704e-11 -5.783475e-08 -1.414607e-08) (2.306810e-11 -9.397456e-08 -1.471264e-08)) ((4.948127e-13 7.262227e-14 2.127916e-14) (-3.482535e-09 -1.341768e-12 -2.394365e-12))
7470.277445   	((2.778231e-11 -5.781707e-08 -1.409676e-08) (2.264510e-11 -9.387303e-08 -1.474634e-08)) ((4.942432e-13 7.282539e-14 2.127125e-14) (-3.479453e-09 -1.282543e-12 -2.175866e-12))
7872.028349   	((2.631476e-11 -5.780215e-08 -1.405108e-08) (2.222138e-11 -9.378738e-08 -1.477535e-08)) ((4.937496e-13 7.300773e-14 2.126628e-14) (-3.476877e-09 -1.225319e-12 -1.976116e-12))
8273.84773    	((2.490643e-11 -5.778944e-08 -1.401449e-08) (2.179425e-11 -9.371501e-08 -1.480034e-08)) ((4.933236e-13 7.315018e-14 2.126311e-14) (-3.474720e-09 -1.170360e-12 -1.794392e-12))
8675.725878   	((2.362167e-11 -5.777877e-08 -1.398256e-08) (2.136404e-11 -9.365379e-08 -1.482186e-08)) ((4.929612e-13 7.327374e-14 2.126172e-14) (-3.472910e-09 -1.117862e-12 -1.629540e-12))
9077.65448    	((2.239541e-11 -5.776966e-08 -1.395416e-08) (2.093633e-11 -9.360195e-08 -1.484040e-08)) ((4.926486e-13 7.338228e-14 2.126195e-14) (-3.471388e-09 -1.068075e-12 -1.480599e-12))
9479.62643    	((2.125705e-11 -5.776191e-08 -1.392743e-08) (2.051298e-11 -9.355799e-08 -1.485636e-08)) ((4.923810e-13 7.348125e-14 2.126282e-14) (-3.470106e-09 -1.020936e-12 -1.346334e-12))
9881.635644   	((2.022631e-11 -5.775534e-08 -1.390642e-08) (2.009964e-11 -9.352068e-08 -1.487010e-08)) ((4.921504e-13 7.355896e-14 2.126361e-14) (-3.469024e-09 -9.766328e-13 -1.225470e-12))
10283.676903  	((1.929378e-11 -5.774961e-08 -1.388898e-08) (1.969954e-11 -9.348897e-08 -1.488194e-08)) ((4.919525e-13 7.362315e-14 2.126477e-14) (-3.468109e-09 -9.351851e-13 -1.116953e-12))
10685.745722  	((1.842997e-11 -5.774486e-08 -1.387320e-08) (1.931421e-11 -9.346202e-08 -1.489212e-08)) ((4.917822e-13 7.367976e-14 2.126631e-14) (-3.467334e-09 -8.966199e-13 -1.019845e-12))
11087.83826   	((1.765079e-11 -5.774068e-08 -1.385966e-08) (1.894734e-11 -9.343908e-08 -1.490089e-08)) ((4.916359e-13 7.372831e-14 2.126689e-14) (-3.466677e-09 -8.609501e-13 -9.329724e-13))
11489.951225  	((1.695437e-11 -5.773719e-08 -1.384801e-08) (1.860094e-11 -9.341955e-08 -1.490843e-08)) ((4.915104e-13 7.376931e-14 2.126779e-14) (-3.466119e-09 -8.280717e-13 -8.553865e-13))
11892.081775  	((1.631811e-11 -5.773422e-08 -1.383788e-08) (1.827510e-11 -9.340291e-08 -1.491491e-08)) ((4.914028e-13 7.380368e-14 2.126878e-14) (-3.465644e-09 -7.978907e-13 -7.862152e-13))
12294.227473  	((1.574480e-11 -5.773162e-08 -1.382919e-08) (1.797087e-11 -9.338872e-08 -1.492048e-08)) ((4.913104e-13 7.383350e-14 2.126959e-14) (-3.465240e-09 -7.702848e-13 -7.246297e-13))
12696.386221  	((1.521549e-11 -5.772938e-08 -1.382171e-08) (1.768686e-11 -9.337661e-08 -1.492527e-08)) ((4.912303e-13 7.385755e-14 2.127037e-14) (-3.464896e-09 -7.450897e-13 -6.699034e-13))
13098.556214  	((1.476000e-11 -5.772748e-08 -1.381547e-08) (1.742494e-11 -9.336628e-08 -1.492938e-08)) ((4.911617e-13 7.387737e-14 2.127196e-14) (-3.464603e-09 -7.221745e-13 -6.213411e-13))
13500.7359    	((1.436778e-11 -5.772583e-08 -1.381000e-08) (1.718251e-11 -9.335746e-08 -1.493291e-08)) ((4.911047e-13 7.389648e-14 2.127324e-14) (-3.464353e-09 -7.014532e-13 -5.783409e-13))
13902.923936  	((1.404058e-11 -5.772456e-08 -1.380526e-08) (1.696178e-11 -9.334993e-08 -1.493594e-08)) ((4.910570e-13 7.391420e-14 2.127300e-14) (-3.464139e-09 -6.827442e-13 -5.402601e-13))
14305.119168  	((1.373088e-11 -5.772336e-08 -1.380177e-08) (1.675794e-11 -9.334350e-08 -1.493854e-08)) ((4.910144e-13 7.392325e-14 2.127408e-14) (-3.463957e-09 -6.658346e-13 -5.066216e-13))
