# Forces      
# CofR        : (0.000000e+00 0.000000e+00 0.000000e+00)
# Time        forces(pressure viscous)	moments(pressure viscous)
0             	((0.000000e+00 0.000000e+00 0.000000e+00) (-3.991501e-02 1.112140e-11 -3.846165e-07)) ((0.000000e+00 0.000000e+00 0.000000e+00) (-8.794340e-14 8.968394e-04 -1.229309e-13))
0.00764281    	((-1.831012e+01 4.247226e-03 -9.620514e-01) (-1.121431e-01 3.937996e-06 -1.732238e-02)) ((-3.253526e-08 -2.540445e-04 -6.422628e-09) (-3.339183e-07 3.728259e-03 5.885640e-07))
0.0168142     	((8.707578e+00 -1.769049e-03 -4.104970e+00) (-1.038053e-01 -6.415829e-06 -2.170658e-02)) ((3.432401e-08 1.119105e-04 5.021911e-08) (-2.675749e-07 3.796867e-03 4.085304e-07))
0.0278198     	((-1.977132e+00 -1.106324e-03 -2.499105e+00) (-8.516150e-02 -5.142185e-06 -1.507675e-02)) ((2.509836e-08 -2.024683e-05 -1.866018e-08) (-2.450987e-07 3.035043e-03 3.859852e-07))
0.0409211     	((7.573624e-01 -3.584131e-04 -2.628301e+00) (-7.934275e-02 5.845824e-07 -1.425433e-02)) ((5.468253e-08 4.274257e-06 3.649934e-08) (-3.426671e-07 2.823512e-03 3.671656e-07))
0.0561282     	((-5.404212e-01 -1.377529e-04 -2.456237e+00) (-7.564614e-02 -1.934001e-06 -1.430802e-02)) ((6.146050e-09 -7.836571e-06 -1.257284e-08) (-2.601541e-07 2.699411e-03 2.361030e-07))
0.0734278     	((4.702960e-02 1.078031e-04 -2.543202e+00) (-7.451107e-02 -1.878389e-06 -1.467928e-02)) ((2.705799e-08 -5.862746e-06 -3.000809e-10) (-1.749188e-07 2.663538e-03 2.430092e-07))
0.092805      	((-2.376088e-01 9.577554e-05 -2.473200e+00) (-7.347081e-02 -6.614155e-07 -1.524736e-02)) ((-1.754574e-08 -8.428635e-06 -3.464001e-09) (-1.003334e-07 2.617093e-03 9.784062e-08))
0.11354       	((-1.192702e-01 1.773509e-04 -2.520920e+00) (-7.294912e-02 -7.071591e-07 -1.582756e-02)) ((2.171663e-08 -9.752492e-06 -7.270901e-10) (-8.875730e-08 2.595945e-03 2.098085e-08))
0.134248      	((-1.996527e-01 2.275426e-04 -2.491437e+00) (-7.270681e-02 6.925473e-07 -1.630951e-02)) ((-2.481310e-08 -1.106687e-05 -5.381736e-09) (-7.979826e-08 2.584201e-03 1.235730e-08))
0.154838      	((-1.808345e-01 3.237446e-04 -2.508376e+00) (-7.265469e-02 1.679912e-06 -1.676795e-02)) ((-2.273670e-08 -1.204770e-05 -5.265899e-09) (-3.118207e-08 2.578259e-03 1.935638e-08))
0.175282      	((-2.116428e-01 4.104993e-04 -2.486473e+00) (-7.260828e-02 1.964064e-06 -1.709840e-02)) ((2.185704e-08 -1.299060e-05 -9.556475e-11) (-2.867899e-08 2.571279e-03 2.344430e-08))
0.195591      	((-2.156381e-01 5.028200e-04 -2.482858e+00) (-7.249146e-02 1.661880e-06 -1.731614e-02)) ((-2.073760e-08 -1.404325e-05 -3.663331e-09) (-7.519425e-09 2.561639e-03 3.206395e-08))
0.215833      	((-2.274020e-01 6.077013e-04 -2.459564e+00) (-7.225861e-02 2.054852e-06 -1.744133e-02)) ((-2.573039e-08 -1.475081e-05 -7.592656e-09) (3.180000e-08 2.548471e-03 6.913818e-08))
0.236078      	((-2.299199e-01 7.174955e-04 -2.446989e+00) (-7.192542e-02 2.307761e-06 -1.758565e-02)) ((-1.260014e-08 -1.558677e-05 1.408455e-11) (4.209753e-08 2.533676e-03 1.534520e-07))
0.25637       	((-2.331066e-01 7.404519e-04 -2.426227e+00) (-7.155729e-02 3.864888e-07 -1.771594e-02)) ((-1.464941e-08 -1.624309e-05 -2.508983e-09) (3.794354e-08 2.518871e-03 2.182565e-07))
0.2767        	((-2.335965e-01 9.667299e-04 -2.410073e+00) (-7.120486e-02 2.255332e-06 -1.782190e-02)) ((-2.366777e-08 -1.661754e-05 -1.329313e-09) (5.427842e-08 2.504941e-03 2.592549e-07))
0.297044      	((-2.337084e-01 1.061875e-03 -2.393863e+00) (-7.088975e-02 3.859169e-06 -1.793695e-02)) ((-1.985394e-08 -1.701661e-05 1.147339e-09) (8.543519e-08 2.492926e-03 2.709328e-07))
0.317384      	((-2.324734e-01 1.088020e-03 -2.379294e+00) (-7.060830e-02 3.945366e-06 -1.801975e-02)) ((-1.312486e-08 -1.742202e-05 -8.481905e-09) (1.031173e-07 2.482381e-03 2.215743e-07))
0.337725      	((-2.317728e-01 1.348866e-03 -2.365371e+00) (-7.034350e-02 6.942136e-06 -1.807789e-02)) ((-2.417982e-08 -1.755581e-05 -2.751965e-09) (1.399252e-07 2.472609e-03 2.268785e-07))
0.358074      	((-2.308232e-01 1.391492e-03 -2.354392e+00) (-7.010263e-02 7.036353e-06 -1.814239e-02)) ((-1.351515e-08 -1.784637e-05 -9.893733e-09) (1.742007e-07 2.464092e-03 2.035871e-07))
0.378434      	((-2.300017e-01 1.573058e-03 -2.343066e+00) (-6.988570e-02 8.940698e-06 -1.819893e-02)) ((-1.597495e-08 -1.793556e-05 -1.837550e-08) (1.986923e-07 2.456358e-03 2.030001e-07))
0.398802      	((-2.296075e-01 1.770088e-03 -2.333324e+00) (-6.967868e-02 1.079370e-05 -1.824629e-02)) ((-2.916244e-08 -1.797159e-05 -1.036262e-08) (2.406956e-07 2.448640e-03 2.492641e-07))
0.419175      	((-2.292854e-01 1.894953e-03 -2.324412e+00) (-6.948907e-02 9.248120e-06 -1.830658e-02)) ((-2.635681e-08 -1.815029e-05 -1.866155e-08) (2.748108e-07 2.441509e-03 2.755973e-07))
0.439554      	((-2.289346e-01 2.081100e-03 -2.316383e+00) (-6.932038e-02 9.519480e-06 -1.836625e-02)) ((-2.906508e-08 -1.818392e-05 -1.490834e-08) (3.016909e-07 2.435201e-03 3.279156e-07))
0.459939      	((-2.285183e-01 2.330015e-03 -2.308189e+00) (-6.916066e-02 1.012520e-05 -1.839883e-02)) ((-2.748247e-08 -1.830031e-05 -1.037531e-08) (3.250564e-07 2.429401e-03 4.082568e-07))
0.480329      	((-2.282052e-01 2.553293e-03 -2.301463e+00) (-6.901634e-02 9.359275e-06 -1.843726e-02)) ((-1.454593e-08 -1.837526e-05 -9.913919e-09) (3.349912e-07 2.424418e-03 5.107949e-07))
0.500724      	((-2.280676e-01 2.907413e-03 -2.295069e+00) (-6.888995e-02 9.782956e-06 -1.846843e-02)) ((-3.126301e-08 -1.840061e-05 -7.779336e-09) (3.740105e-07 2.420167e-03 6.545397e-07))
0.521123      	((-2.277336e-01 3.342329e-03 -2.288695e+00) (-6.877347e-02 1.074349e-05 -1.847877e-02)) ((-5.422652e-08 -1.852189e-05 -6.584792e-09) (4.460753e-07 2.416299e-03 8.328424e-07))
0.541526      	((-2.272913e-01 3.713024e-03 -2.283647e+00) (-6.866718e-02 9.812973e-06 -1.850801e-02)) ((-4.061206e-08 -1.847436e-05 -7.580948e-09) (4.912378e-07 2.412846e-03 9.883837e-07))
0.561934      	((-2.266592e-01 4.217043e-03 -2.278426e+00) (-6.857117e-02 1.087665e-05 -1.852551e-02)) ((-5.016255e-08 -1.852028e-05 -8.906827e-09) (5.618153e-07 2.409683e-03 1.130702e-06))
0.582344      	((-2.258588e-01 4.813065e-03 -2.273475e+00) (-6.848312e-02 1.271530e-05 -1.853503e-02)) ((-9.568087e-08 -1.859868e-05 -9.830738e-09) (6.869029e-07 2.406600e-03 1.313656e-06))
0.602758      	((-2.249895e-01 5.284834e-03 -2.269395e+00) (-6.839943e-02 1.244482e-05 -1.856547e-02)) ((-7.744331e-08 -1.850009e-05 -1.288276e-08) (7.795771e-07 2.403703e-03 1.505202e-06))
0.623175      	((-2.242285e-01 5.931628e-03 -2.264907e+00) (-6.831745e-02 1.427766e-05 -1.858090e-02)) ((-7.388741e-08 -1.855769e-05 -1.445870e-08) (8.644477e-07 2.400829e-03 1.697578e-06))
0.643595      	((-2.237548e-01 6.712769e-03 -2.261556e+00) (-6.824632e-02 1.710017e-05 -1.860321e-02)) ((-1.370443e-07 -1.853194e-05 -1.696375e-08) (1.007899e-06 2.398069e-03 1.938600e-06))
0.664017      	((-2.232504e-01 7.452717e-03 -2.258107e+00) (-6.817772e-02 1.797598e-05 -1.862874e-02)) ((-1.190968e-07 -1.846699e-05 -2.279720e-08) (1.145481e-06 2.395565e-03 2.189556e-06))
0.684441      	((-2.229108e-01 8.378933e-03 -2.254592e+00) (-6.810651e-02 1.991326e-05 -1.864338e-02)) ((-1.114581e-07 -1.850002e-05 -2.503853e-08) (1.258928e-06 2.393013e-03 2.433160e-06))
0.704867      	((-2.227071e-01 9.543891e-03 -2.252319e+00) (-6.805000e-02 2.411162e-05 -1.867439e-02)) ((-1.802724e-07 -1.838631e-05 -2.949777e-08) (1.429394e-06 2.390752e-03 2.717075e-06))
0.725296      	((-2.222828e-01 1.073579e-02 -2.248925e+00) (-6.799124e-02 2.726253e-05 -1.868742e-02)) ((-1.832784e-07 -1.837972e-05 -3.555597e-08) (1.644837e-06 2.388624e-03 3.027282e-06))
0.745726      	((-2.220535e-01 1.201305e-02 -2.246266e+00) (-6.793013e-02 2.985188e-05 -1.870462e-02)) ((-1.773768e-07 -1.836555e-05 -3.988325e-08) (1.833213e-06 2.386376e-03 3.332687e-06))
0.766157      	((-2.219102e-01 1.366029e-02 -2.244443e+00) (-6.788617e-02 3.560532e-05 -1.873572e-02)) ((-2.549377e-07 -1.824037e-05 -4.540875e-08) (2.078834e-06 2.384594e-03 3.706498e-06))
0.78659       	((-2.215083e-01 1.545398e-02 -2.241220e+00) (-6.783513e-02 4.100559e-05 -1.873841e-02)) ((-2.859505e-07 -1.826517e-05 -5.085696e-08) (2.396917e-06 2.382778e-03 4.154132e-06))
0.807024      	((-2.213230e-01 1.743833e-02 -2.239402e+00) (-6.778709e-02 4.452437e-05 -1.875804e-02)) ((-2.922272e-07 -1.819016e-05 -5.975537e-08) (2.702577e-06 2.380959e-03 4.635292e-06))
0.827458      	((-2.211006e-01 1.986486e-02 -2.237534e+00) (-6.775370e-02 5.155724e-05 -1.877814e-02)) ((-3.858436e-07 -1.811387e-05 -6.539383e-08) (3.074979e-06 2.379646e-03 5.246667e-06))
0.847894      	((-2.206631e-01 2.252489e-02 -2.234979e+00) (-6.771301e-02 5.871917e-05 -1.877883e-02)) ((-4.267371e-07 -1.812615e-05 -6.914968e-08) (3.528719e-06 2.378243e-03 5.957718e-06))
0.868329      	((-2.204519e-01 2.544367e-02 -2.233937e+00) (-6.767947e-02 6.426985e-05 -1.880004e-02)) ((-4.354140e-07 -1.801061e-05 -7.700133e-08) (3.980577e-06 2.376972e-03 6.723326e-06))
0.888765      	((-2.200906e-01 2.887158e-02 -2.231971e+00) (-6.765316e-02 7.372368e-05 -1.880460e-02)) ((-5.354018e-07 -1.800311e-05 -8.297314e-08) (4.513724e-06 2.376041e-03 7.616954e-06))
0.9092        	((-2.197414e-01 3.261294e-02 -2.230387e+00) (-6.762131e-02 8.404591e-05 -1.880913e-02)) ((-5.663612e-07 -1.799411e-05 -9.102914e-08) (5.127834e-06 2.375004e-03 8.613825e-06))
0.929635      	((-2.195339e-01 3.679120e-02 -2.229932e+00) (-6.760156e-02 9.412664e-05 -1.883165e-02)) ((-6.158685e-07 -1.786675e-05 -1.043967e-07) (5.766907e-06 2.374317e-03 9.689684e-06))
0.950068      	((-2.191845e-01 4.157855e-02 -2.227974e+00) (-6.757948e-02 1.087935e-04 -1.882332e-02)) ((-7.488993e-07 -1.791370e-05 -1.172627e-07) (6.535191e-06 2.373662e-03 1.091645e-05))
0.970501      	((-2.190418e-01 4.678416e-02 -2.227220e+00) (-6.755435e-02 1.240978e-04 -1.883001e-02)) ((-7.805110e-07 -1.786901e-05 -1.356021e-07) (7.386873e-06 2.372895e-03 1.228464e-05))
0.990931      	((-2.190465e-01 5.261081e-02 -2.226821e+00) (-6.754304e-02 1.395661e-04 -1.884666e-02)) ((-8.870055e-07 -1.778840e-05 -1.555428e-07) (8.289791e-06 2.372607e-03 1.378854e-05))
1.01136       	((-2.190228e-01 5.922760e-02 -2.225220e+00) (-6.752673e-02 1.607760e-04 -1.883404e-02)) ((-1.048137e-06 -1.785609e-05 -1.764673e-07) (9.376018e-06 2.372262e-03 1.551586e-05))
1.031786      	((-2.192891e-01 6.642597e-02 -2.225065e+00) (-6.751236e-02 1.814214e-04 -1.884202e-02)) ((-1.106686e-06 -1.778028e-05 -2.017373e-07) (1.055651e-05 2.371968e-03 1.745733e-05))
1.052208      	((-2.195554e-01 7.451694e-02 -2.224392e+00) (-6.750821e-02 2.031302e-04 -1.884331e-02)) ((-1.282720e-06 -1.777010e-05 -2.222212e-07) (1.182613e-05 2.372112e-03 1.963357e-05))
1.072628      	((-2.199111e-01 8.365355e-02 -2.223482e+00) (-6.750144e-02 2.310638e-04 -1.882969e-02)) ((-1.468334e-06 -1.782340e-05 -2.493395e-07) (1.333619e-05 2.372218e-03 2.214951e-05))
1.093042      	((-2.205279e-01 9.376751e-02 -2.223870e+00) (-6.750256e-02 2.566674e-04 -1.883503e-02)) ((-1.584940e-06 -1.771965e-05 -2.719646e-07) (1.496057e-05 2.372597e-03 2.497462e-05))
1.113452      	((-2.211116e-01 1.052383e-01 -2.223024e+00) (-6.750662e-02 2.861710e-04 -1.881760e-02)) ((-1.800449e-06 -1.775947e-05 -2.955596e-07) (1.673862e-05 2.373255e-03 2.813806e-05))
1.133857      	((-2.221365e-01 1.181821e-01 -2.223081e+00) (-6.751192e-02 3.231132e-04 -1.879965e-02)) ((-2.040616e-06 -1.777243e-05 -3.290358e-07) (1.884037e-05 2.373965e-03 3.176828e-05))
1.154254      	((-2.233319e-01 1.323665e-01 -2.224008e+00) (-6.753052e-02 3.589757e-04 -1.879470e-02)) ((-2.261893e-06 -1.767442e-05 -3.607200e-07) (2.113161e-05 2.375252e-03 3.579165e-05))
1.174645      	((-2.246470e-01 1.482394e-01 -2.223828e+00) (-6.754641e-02 4.029574e-04 -1.876311e-02)) ((-2.521245e-06 -1.770974e-05 -3.897393e-07) (2.365966e-05 2.376694e-03 4.018793e-05))
1.195027      	((-2.264823e-01 1.661483e-01 -2.224976e+00) (-6.756933e-02 4.598805e-04 -1.873911e-02)) ((-2.932665e-06 -1.766437e-05 -4.299611e-07) (2.662799e-05 2.378293e-03 4.513430e-05))
1.215399      	((-2.286827e-01 1.855788e-01 -2.226549e+00) (-6.760880e-02 5.176246e-04 -1.871834e-02)) ((-3.336066e-06 -1.759118e-05 -4.701117e-07) (2.993244e-05 2.380626e-03 5.053427e-05))
1.235761      	((-2.311424e-01 2.064965e-01 -2.227523e+00) (-6.764764e-02 5.767585e-04 -1.867632e-02)) ((-3.600397e-06 -1.756172e-05 -5.023815e-07) (3.340140e-05 2.383225e-03 5.626470e-05))
1.256112      	((-2.344684e-01 2.298379e-01 -2.229725e+00) (-6.769736e-02 6.488594e-04 -1.863795e-02)) ((-4.098033e-06 -1.748750e-05 -5.496760e-07) (3.730266e-05 2.386237e-03 6.253941e-05))
1.27645       	((-2.390528e-01 2.552221e-01 -2.232484e+00) (-6.776647e-02 7.324031e-04 -1.858849e-02)) ((-4.593168e-06 -1.747286e-05 -5.989026e-07) (4.179299e-05 2.390155e-03 6.951564e-05))
1.296774      	((-2.449717e-01 2.819588e-01 -2.235830e+00) (-6.784054e-02 8.128448e-04 -1.852268e-02)) ((-4.917996e-06 -1.744451e-05 -6.198643e-07) (4.660045e-05 2.394721e-03 7.702088e-05))
1.317082      	((-2.523162e-01 3.107204e-01 -2.240767e+00) (-6.793143e-02 9.014008e-04 -1.845986e-02)) ((-5.441315e-06 -1.739776e-05 -6.655883e-07) (5.177185e-05 2.400167e-03 8.522489e-05))
1.337374      	((-2.615465e-01 3.414322e-01 -2.246854e+00) (-6.804776e-02 1.007244e-03 -1.838169e-02)) ((-5.948542e-06 -1.742178e-05 -7.352346e-07) (5.756508e-05 2.406692e-03 9.437627e-05))
1.357648      	((-2.718443e-01 3.721349e-01 -2.254100e+00) (-6.818016e-02 1.112696e-03 -1.829441e-02)) ((-6.352688e-06 -1.738884e-05 -7.831386e-07) (6.376724e-05 2.414013e-03 1.043370e-04))
1.377902      	((-2.833232e-01 4.015901e-01 -2.262817e+00) (-6.832764e-02 1.209592e-03 -1.821154e-02)) ((-6.778193e-06 -1.732413e-05 -8.700107e-07) (7.013230e-05 2.422251e-03 1.148135e-04))
1.398136      	((-2.964728e-01 4.295502e-01 -2.272775e+00) (-6.849299e-02 1.310156e-03 -1.811616e-02)) ((-7.163314e-06 -1.733469e-05 -9.795554e-07) (7.674009e-05 2.431261e-03 1.259614e-04))
1.418349      	((-3.104180e-01 4.546059e-01 -2.283880e+00) (-6.868059e-02 1.408090e-03 -1.801327e-02)) ((-7.466956e-06 -1.730343e-05 -1.078411e-06) (8.346959e-05 2.440884e-03 1.375029e-04))
1.438541      	((-3.246387e-01 4.749182e-01 -2.296065e+00) (-6.888914e-02 1.485969e-03 -1.791068e-02)) ((-7.644407e-06 -1.727203e-05 -1.219854e-06) (8.989861e-05 2.451250e-03 1.487363e-04))
1.458712      	((-3.387022e-01 4.891213e-01 -2.309266e+00) (-6.911068e-02 1.552093e-03 -1.779559e-02)) ((-7.639361e-06 -1.731255e-05 -1.360547e-06) (9.573674e-05 2.462019e-03 1.595790e-04))
1.478863      	((-3.509854e-01 4.973948e-01 -2.323487e+00) (-6.934255e-02 1.601205e-03 -1.767856e-02)) ((-7.518682e-06 -1.725334e-05 -1.483206e-06) (1.007460e-04 2.473092e-03 1.697713e-04))
1.498996      	((-3.599921e-01 4.993936e-01 -2.337504e+00) (-6.957646e-02 1.617968e-03 -1.756536e-02)) ((-7.271640e-06 -1.714526e-05 -1.610298e-06) (1.045756e-04 2.484364e-03 1.788577e-04))
1.519112      	((-3.667356e-01 4.952228e-01 -2.351413e+00) (-6.980093e-02 1.605403e-03 -1.744957e-02)) ((-6.894348e-06 -1.708569e-05 -1.718389e-06) (1.070271e-04 2.495082e-03 1.867526e-04))
1.539211      	((-3.707139e-01 4.857249e-01 -2.365247e+00) (-7.001751e-02 1.561520e-03 -1.735110e-02)) ((-6.447914e-06 -1.694355e-05 -1.778178e-06) (1.079647e-04 2.505012e-03 1.932682e-04))
1.559295      	((-3.725212e-01 4.734661e-01 -2.378400e+00) (-7.022285e-02 1.488581e-03 -1.726766e-02)) ((-5.987279e-06 -1.675143e-05 -1.773921e-06) (1.074215e-04 2.514227e-03 1.982683e-04))
1.579369      	((-3.719119e-01 4.604959e-01 -2.390283e+00) (-7.040339e-02 1.393658e-03 -1.718645e-02)) ((-5.607050e-06 -1.646113e-05 -1.690981e-06) (1.057196e-04 2.522474e-03 2.019227e-04))
1.599435      	((-3.695933e-01 4.483229e-01 -2.401712e+00) (-7.056804e-02 1.283928e-03 -1.713261e-02)) ((-5.379345e-06 -1.607735e-05 -1.584979e-06) (1.032082e-04 2.530053e-03 2.043839e-04))
1.619497      	((-3.659232e-01 4.385377e-01 -2.412013e+00) (-7.071935e-02 1.179031e-03 -1.709635e-02)) ((-5.253826e-06 -1.566561e-05 -1.486573e-06) (1.004554e-04 2.537002e-03 2.056149e-04))
1.639558      	((-3.617866e-01 4.303927e-01 -2.421146e+00) (-7.084549e-02 1.096853e-03 -1.706553e-02)) ((-5.227002e-06 -1.530911e-05 -1.402670e-06) (9.800852e-05 2.542922e-03 2.053786e-04))
1.659619      	((-3.574580e-01 4.235701e-01 -2.430735e+00) (-7.095596e-02 1.043663e-03 -1.707688e-02)) ((-5.350382e-06 -1.491047e-05 -1.333940e-06) (9.607566e-05 2.547790e-03 2.038371e-04))
1.67968       	((-3.531640e-01 4.176778e-01 -2.439432e+00) (-7.104582e-02 1.014942e-03 -1.711493e-02)) ((-5.479944e-06 -1.449663e-05 -1.281576e-06) (9.467602e-05 2.551360e-03 2.015452e-04))
1.699744      	((-3.491850e-01 4.112892e-01 -2.445869e+00) (-7.109810e-02 1.000363e-03 -1.714974e-02)) ((-5.560830e-06 -1.404233e-05 -1.254862e-06) (9.362815e-05 2.553245e-03 1.987670e-04))
1.71981       	((-3.472269e-01 4.046900e-01 -2.451911e+00) (-7.113417e-02 9.864299e-04 -1.720762e-02)) ((-5.577665e-06 -1.378288e-05 -1.248828e-06) (9.247004e-05 2.554337e-03 1.962048e-04))
1.739879      	((-3.484305e-01 3.990367e-01 -2.456665e+00) (-7.116595e-02 9.608561e-04 -1.725978e-02)) ((-5.461769e-06 -1.379394e-05 -1.251406e-06) (9.090194e-05 2.555409e-03 1.945831e-04))
1.75995       	((-3.508160e-01 3.950050e-01 -2.458618e+00) (-7.117213e-02 9.170274e-04 -1.726576e-02)) ((-5.177085e-06 -1.385299e-05 -1.277363e-06) (8.891555e-05 2.556215e-03 1.940387e-04))
1.780024      	((-3.542148e-01 3.934716e-01 -2.461389e+00) (-7.116723e-02 8.597866e-04 -1.727271e-02)) ((-4.981954e-06 -1.394346e-05 -1.332538e-06) (8.663502e-05 2.557212e-03 1.946808e-04))
1.800101      	((-3.585021e-01 3.936531e-01 -2.465197e+00) (-7.116964e-02 8.017707e-04 -1.728587e-02)) ((-4.900596e-06 -1.394094e-05 -1.441475e-06) (8.442297e-05 2.558607e-03 1.962316e-04))
