# Forces      
# CofR        : (0.000000e+00 0.000000e+00 0.000000e+00)
# Time        forces(pressure viscous)	moments(pressure viscous)
0             	((0.000000e+00 0.000000e+00 0.000000e+00) (-2.547993e-14 -5.025486e-05 4.534847e-15)) ((0.000000e+00 0.000000e+00 0.000000e+00) (-1.129174e-06 -1.385569e-16 2.438607e-11))
0.012         	((1.369346e-08 -1.461592e-02 3.295261e-03) (8.190242e-11 -5.765747e-05 -2.779342e-08)) ((1.723543e-07 1.124131e-08 2.753975e-09) (-1.664261e-06 5.219632e-14 4.986342e-11))
0.0264        	((-2.345628e-07 1.035252e-03 -2.159415e-04) (-5.656350e-11 -5.880214e-05 -4.309410e-08)) ((-1.234825e-08 -7.149938e-10 -1.800876e-10) (-1.862788e-06 1.047274e-11 6.476441e-11))
0.04368       	((1.121663e-07 3.045338e-03 -2.431517e-04) (1.491136e-12 -5.223389e-05 -3.667792e-08)) ((-3.966506e-08 -8.306878e-10 -7.440715e-10) (-1.659423e-06 1.695802e-11 5.438731e-11))
0.064416      	((6.330502e-08 2.861606e-05 -1.242310e-04) (-1.014101e-09 -4.625753e-05 -1.714963e-08)) ((1.796719e-10 -3.990503e-10 4.069255e-11) (-1.490112e-06 1.003460e-11 6.609888e-11))
0.0892992     	((-4.948096e-08 -3.831695e-05 -7.703068e-05) (-1.986992e-09 -4.270088e-05 -1.355549e-08)) ((1.572841e-09 -2.368131e-10 4.381424e-11) (-1.408739e-06 7.368771e-12 7.438367e-11))
0.119159      	((-9.379180e-09 4.656071e-05 -4.876740e-05) (-1.947968e-09 -3.942757e-05 -2.620092e-08)) ((-8.590898e-10 -1.504386e-10 -1.375721e-11) (-1.318482e-06 1.498908e-11 6.362816e-11))
0.154991      	((7.762249e-09 2.464685e-05 -3.200529e-05) (-1.732888e-09 -3.596653e-05 -3.623034e-08)) ((-5.322355e-10 -8.681335e-11 1.174794e-12) (-1.218275e-06 1.411321e-11 3.992506e-11))
0.197989      	((-9.420424e-10 5.884337e-06 -2.120320e-05) (-1.490414e-09 -3.248615e-05 -4.498898e-08)) ((-1.905668e-10 -5.079187e-11 3.261697e-12) (-1.116500e-06 4.972563e-12 1.290116e-11))
0.249587      	((-9.890984e-09 -8.916080e-07 -1.452474e-05) (-1.234421e-09 -2.908649e-05 -5.505912e-08)) ((-6.483976e-11 -2.905071e-11 2.856219e-12) (-1.015060e-06 -3.661963e-12 -4.078364e-12))
0.311504      	((-8.161929e-09 -3.939172e-06 -1.033206e-05) (-9.362386e-10 -2.587216e-05 -6.666173e-08)) ((-2.123895e-11 -1.525240e-11 2.410196e-12) (-9.160575e-07 -8.961073e-12 -2.117594e-11))
0.385805      	((-2.601496e-09 -5.450139e-06 -7.682735e-06) (-6.927323e-10 -2.292618e-05 -7.873886e-08)) ((-4.661792e-12 -6.534990e-12 1.794020e-12) (-8.219639e-07 -1.186183e-11 -2.934986e-11))
0.474966      	((-1.130846e-09 -6.229379e-06 -5.978188e-06) (-3.562496e-10 -2.029708e-05 -9.055229e-08)) ((8.613873e-12 -1.548565e-12 1.603887e-12) (-7.351476e-07 -1.254751e-11 -3.087991e-11))
0.581959      	((5.317911e-10 -6.555757e-06 -4.914923e-06) (-5.457517e-11 -1.798962e-05 -1.024447e-07)) ((1.860058e-11 1.439073e-12 1.510330e-12) (-6.566383e-07 -8.718488e-12 -2.789028e-11))
0.710351      	((8.592319e-10 -6.540404e-06 -4.258635e-06) (1.142334e-10 -1.599078e-05 -1.134147e-07)) ((2.490744e-11 3.442329e-12 1.251855e-12) (-5.869159e-07 -5.756547e-12 -2.378648e-11))
0.864421      	((1.142197e-09 -6.308162e-06 -3.871804e-06) (3.044264e-10 -1.427548e-05 -1.225298e-07)) ((2.782425e-11 4.612725e-12 1.388992e-12) (-5.259780e-07 -5.602832e-12 -1.520962e-11))
1.049306      	((6.958887e-10 -5.961998e-06 -3.642338e-06) (4.174022e-10 -1.280642e-05 -1.305018e-07)) ((2.825553e-11 5.177419e-12 1.426948e-12) (-4.730377e-07 -5.621009e-12 -3.912307e-12))
1.271167      	((7.154614e-10 -5.568886e-06 -3.516055e-06) (4.508761e-10 -1.154373e-05 -1.387271e-07)) ((2.734358e-11 5.417709e-12 1.250702e-12) (-4.269390e-07 -4.210042e-12 6.602302e-12))
1.5374        	((4.750869e-10 -5.157941e-06 -3.453058e-06) (4.439188e-10 -1.044712e-05 -1.482762e-07)) ((2.555439e-11 5.427315e-12 1.155975e-12) (-3.865481e-07 -1.491370e-12 1.521498e-11))
1.85688       	((3.348211e-10 -4.753986e-06 -3.433018e-06) (3.877257e-10 -9.482017e-06 -1.595887e-07)) ((2.340023e-11 5.289966e-12 1.102838e-12) (-3.508746e-07 9.549013e-13 2.110250e-11))
2.240256      	((2.327522e-10 -4.372152e-06 -3.432869e-06) (2.764052e-10 -8.624768e-06 -1.723194e-07)) ((2.173769e-11 5.142623e-12 1.081858e-12) (-3.191550e-07 2.980669e-12 2.444694e-11))
2.700307      	((2.131541e-10 -4.017969e-06 -3.448891e-06) (1.602391e-10 -7.859142e-06 -1.860311e-07)) ((2.026047e-11 4.922150e-12 1.091405e-12) (-2.908168e-07 4.079700e-12 2.506012e-11))
3.252369      	((1.895960e-11 -3.691116e-06 -3.465918e-06) (1.101222e-10 -7.172782e-06 -2.007612e-07)) ((1.886610e-11 4.635438e-12 1.081655e-12) (-2.654082e-07 4.199316e-12 2.337893e-11))
3.914842      	((-8.334814e-11 -3.389366e-06 -3.486457e-06) (6.747758e-11 -6.556118e-06 -2.167669e-07)) ((1.747303e-11 4.333987e-12 9.966096e-13) (-2.425738e-07 5.118250e-12 2.164790e-11))
4.709811      	((-1.104906e-10 -3.113706e-06 -3.503500e-06) (6.834652e-11 -6.002217e-06 -2.339279e-07)) ((1.629533e-11 4.103727e-12 8.631580e-13) (-2.220569e-07 5.798151e-12 2.197460e-11))
5.663773      	((-4.803882e-11 -2.865153e-06 -3.517317e-06) (8.741056e-11 -5.505791e-06 -2.520345e-07)) ((1.544940e-11 3.858158e-12 7.491242e-13) (-2.036646e-07 4.786337e-12 2.258968e-11))
6.808528      	((-4.783996e-11 -2.643096e-06 -3.525131e-06) (4.476312e-11 -5.061800e-06 -2.710863e-07)) ((1.490644e-11 3.605696e-12 6.607649e-13) (-1.872129e-07 4.111699e-12 2.324387e-11))
8.182233      	((-1.663566e-10 -2.446393e-06 -3.525924e-06) (2.570506e-11 -4.664921e-06 -2.911903e-07)) ((1.457580e-11 3.389697e-12 5.955043e-13) (-1.725066e-07 4.673487e-12 2.194959e-11))
9.83068       	((-3.666082e-10 -2.274179e-06 -3.519806e-06) (-9.861914e-12 -4.309689e-06 -3.124891e-07)) ((1.443053e-11 3.195848e-12 5.692710e-13) (-1.593429e-07 5.641631e-12 1.821413e-11))
11.808816     	((-5.085379e-10 -2.125898e-06 -3.507967e-06) (-5.530262e-11 -3.990929e-06 -3.349896e-07)) ((1.446300e-11 3.012921e-12 5.718862e-13) (-1.475285e-07 6.794010e-12 1.444602e-11))
14.182579     	((-3.451321e-10 -2.000659e-06 -3.491494e-06) (-5.988808e-11 -3.704461e-06 -3.585779e-07)) ((1.468252e-11 2.830653e-12 5.922363e-13) (-1.369082e-07 8.093972e-12 1.034947e-11))
17.031095     	((-3.091339e-10 -1.896552e-06 -3.469119e-06) (-5.462087e-11 -3.447181e-06 -3.831456e-07)) ((1.508219e-11 2.650940e-12 6.284016e-13) (-1.273658e-07 9.483909e-12 5.028572e-12))
20.449314     	((-3.974975e-10 -1.813519e-06 -3.442622e-06) (-6.398094e-11 -3.216740e-06 -4.084837e-07)) ((1.571353e-11 2.465356e-12 6.738157e-13) (-1.188138e-07 1.164540e-11 -6.419980e-13))
24.551176     	((-4.848547e-10 -1.751200e-06 -3.410775e-06) (-9.213505e-11 -3.011320e-06 -4.342655e-07)) ((1.657151e-11 2.288567e-12 7.339643e-13) (-1.111863e-07 1.392994e-11 -6.267981e-12))
29.473411     	((-6.123242e-10 -1.708948e-06 -3.373273e-06) (-1.246739e-10 -2.829526e-06 -4.600100e-07)) ((1.766689e-11 2.146541e-12 8.207161e-13) (-1.044363e-07 1.512236e-11 -1.106708e-11))
35.380094     	((-6.068074e-10 -1.685947e-06 -3.330264e-06) (-1.443481e-10 -2.670049e-06 -4.852026e-07)) ((1.899149e-11 2.016383e-12 9.291479e-13) (-9.852389e-08 1.506882e-11 -1.473135e-11))
42.468112     	((-4.817143e-10 -1.680806e-06 -3.281981e-06) (-1.648638e-10 -2.531581e-06 -5.093622e-07)) ((2.055510e-11 1.895871e-12 1.049626e-12) (-9.340836e-08 1.380469e-11 -1.787829e-11))
50.973735     	((-2.973830e-10 -1.692363e-06 -3.228056e-06) (-1.689414e-10 -2.412890e-06 -5.320739e-07)) ((2.241046e-11 1.789461e-12 1.191519e-12) (-8.905709e-08 1.105543e-11 -2.108980e-11))
61.180482     	((-8.030734e-11 -1.717615e-06 -3.170314e-06) (-1.474142e-10 -2.312890e-06 -5.531284e-07)) ((2.447639e-11 1.695351e-12 1.354854e-12) (-8.543793e-08 7.344373e-12 -2.498676e-11))
73.428578     	((7.328783e-12 -1.752641e-06 -3.105965e-06) (-1.244300e-10 -2.230468e-06 -5.725354e-07)) ((2.660081e-11 1.652859e-12 1.525028e-12) (-8.250693e-08 3.500197e-12 -2.999334e-11))
88.075216     	((1.594606e-10 -1.793407e-06 -3.035743e-06) (-8.637608e-11 -2.164227e-06 -5.899685e-07)) ((2.861880e-11 1.675585e-12 1.681858e-12) (-8.019686e-08 -3.627090e-13 -3.398079e-11))
105.10507     	((3.912292e-10 -1.835263e-06 -2.958660e-06) (-4.150392e-11 -2.112672e-06 -6.043573e-07)) ((3.026856e-11 1.735751e-12 1.836426e-12) (-7.842281e-08 -3.899972e-12 -3.601911e-11))
124.502098    	((5.686467e-10 -1.870671e-06 -2.875141e-06) (6.497805e-12 -2.072433e-06 -6.149082e-07)) ((3.152979e-11 1.824156e-12 1.932643e-12) (-7.704187e-08 -6.544671e-12 -3.663296e-11))
146.256224    	((7.935095e-10 -1.895969e-06 -2.785633e-06) (6.585033e-11 -2.040131e-06 -6.217719e-07)) ((3.243801e-11 1.912496e-12 2.003858e-12) (-7.592261e-08 -9.037152e-12 -3.646429e-11))
169.824794    	((9.455599e-10 -1.911855e-06 -2.695380e-06) (1.441606e-10 -2.013380e-06 -6.255870e-07)) ((3.315964e-11 2.006984e-12 2.057800e-12) (-7.499854e-08 -1.149542e-11 -3.594555e-11))
193.453113    	((1.148293e-09 -1.921835e-06 -2.612875e-06) (2.175927e-10 -1.991185e-06 -6.276037e-07)) ((3.369982e-11 2.114383e-12 2.111768e-12) (-7.424041e-08 -1.402820e-11 -3.629981e-11))
217.138171    	((1.256915e-09 -1.926451e-06 -2.539417e-06) (2.948582e-10 -1.972154e-06 -6.287607e-07)) ((3.407020e-11 2.230846e-12 2.158893e-12) (-7.360137e-08 -1.645254e-11 -3.687853e-11))
240.854823    	((1.341838e-09 -1.928788e-06 -2.474902e-06) (3.615491e-10 -1.955880e-06 -6.295573e-07)) ((3.432027e-11 2.352361e-12 2.195175e-12) (-7.306193e-08 -1.867782e-11 -3.742707e-11))
264.588488    	((1.373730e-09 -1.929828e-06 -2.418362e-06) (4.148870e-10 -1.941933e-06 -6.302173e-07)) ((3.449189e-11 2.464695e-12 2.221832e-12) (-7.260269e-08 -2.043648e-11 -3.772489e-11))
288.33719     	((1.343920e-09 -1.930026e-06 -2.368595e-06) (4.511819e-10 -1.929961e-06 -6.307990e-07)) ((3.461355e-11 2.564853e-12 2.243285e-12) (-7.221018e-08 -2.154964e-11 -3.790162e-11))
312.101421    	((1.289996e-09 -1.929543e-06 -2.324133e-06) (4.736484e-10 -1.919647e-06 -6.313381e-07)) ((3.470031e-11 2.656958e-12 2.261837e-12) (-7.187324e-08 -2.200250e-11 -3.788534e-11))
335.879954    	((1.228839e-09 -1.928766e-06 -2.284173e-06) (4.866010e-10 -1.910751e-06 -6.318467e-07)) ((3.476145e-11 2.744557e-12 2.278257e-12) (-7.158357e-08 -2.201892e-11 -3.755349e-11))
359.670815    	((1.176295e-09 -1.927628e-06 -2.247940e-06) (4.892123e-10 -1.903043e-06 -6.323420e-07)) ((3.480174e-11 2.827766e-12 2.291231e-12) (-7.133296e-08 -2.178451e-11 -3.711440e-11))
383.472397    	((1.128242e-09 -1.926489e-06 -2.215462e-06) (4.887341e-10 -1.896355e-06 -6.328227e-07)) ((3.483002e-11 2.903992e-12 2.302481e-12) (-7.111567e-08 -2.142952e-11 -3.659693e-11))
407.283426    	((1.081093e-09 -1.925307e-06 -2.186346e-06) (4.894281e-10 -1.890536e-06 -6.332834e-07)) ((3.485116e-11 2.972723e-12 2.311951e-12) (-7.092676e-08 -2.106506e-11 -3.599310e-11))
431.102773    	((1.022945e-09 -1.924167e-06 -2.160344e-06) (4.865825e-10 -1.885469e-06 -6.337108e-07)) ((3.486701e-11 3.033515e-12 2.320557e-12) (-7.076244e-08 -2.060348e-11 -3.533326e-11))
454.929444    	((9.715852e-10 -1.923093e-06 -2.137044e-06) (4.810870e-10 -1.881048e-06 -6.340993e-07)) ((3.488000e-11 3.089122e-12 2.328066e-12) (-7.061944e-08 -2.011613e-11 -3.468674e-11))
478.762583    	((9.209189e-10 -1.922011e-06 -2.116062e-06) (4.739150e-10 -1.877177e-06 -6.344549e-07)) ((3.488872e-11 3.139888e-12 2.334477e-12) (-7.049439e-08 -1.957515e-11 -3.407140e-11))
502.601441    	((8.632472e-10 -1.921032e-06 -2.097281e-06) (4.652489e-10 -1.873782e-06 -6.347762e-07)) ((3.489651e-11 3.186189e-12 2.340118e-12) (-7.038500e-08 -1.899746e-11 -3.342318e-11))
526.445349    	((8.135935e-10 -1.920099e-06 -2.080493e-06) (4.567178e-10 -1.870801e-06 -6.350672e-07)) ((3.490166e-11 3.227679e-12 2.345026e-12) (-7.028905e-08 -1.843560e-11 -3.272303e-11))
550.29372     	((7.677194e-10 -1.919227e-06 -2.065344e-06) (4.483525e-10 -1.868178e-06 -6.353294e-07)) ((3.490595e-11 3.265632e-12 2.349096e-12) (-7.020469e-08 -1.788864e-11 -3.206428e-11))
574.146043    	((7.177334e-10 -1.918416e-06 -2.051806e-06) (4.394911e-10 -1.865867e-06 -6.355630e-07)) ((3.490910e-11 3.299430e-12 2.352767e-12) (-7.013043e-08 -1.734867e-11 -3.142738e-11))
598.001876    	((6.766091e-10 -1.917669e-06 -2.039647e-06) (4.300556e-10 -1.863826e-06 -6.357705e-07)) ((3.491149e-11 3.330012e-12 2.355940e-12) (-7.006496e-08 -1.683808e-11 -3.082588e-11))
621.860831    	((6.330243e-10 -1.916977e-06 -2.028762e-06) (4.202482e-10 -1.862022e-06 -6.359539e-07)) ((3.491336e-11 3.357375e-12 2.358600e-12) (-7.000716e-08 -1.633579e-11 -3.026975e-11))
645.722566    	((5.929383e-10 -1.916332e-06 -2.018978e-06) (4.111002e-10 -1.860423e-06 -6.361172e-07)) ((3.491451e-11 3.382192e-12 2.360936e-12) (-6.995600e-08 -1.585299e-11 -2.972779e-11))
669.586776    	((5.501295e-10 -1.915755e-06 -2.010223e-06) (4.021903e-10 -1.859006e-06 -6.362608e-07)) ((3.491578e-11 3.404048e-12 2.363097e-12) (-6.991073e-08 -1.537394e-11 -2.922660e-11))
693.453189    	((5.098072e-10 -1.915224e-06 -2.002362e-06) (3.938535e-10 -1.857750e-06 -6.363872e-07)) ((3.491662e-11 3.423910e-12 2.364960e-12) (-6.987061e-08 -1.491107e-11 -2.875745e-11))
717.321566    	((4.689123e-10 -1.914742e-06 -1.995314e-06) (3.861658e-10 -1.856634e-06 -6.364982e-07)) ((3.491753e-11 3.441685e-12 2.366568e-12) (-6.983504e-08 -1.444347e-11 -2.830231e-11))
741.191695    	((4.292147e-10 -1.914305e-06 -1.988989e-06) (3.784708e-10 -1.855644e-06 -6.365951e-07)) ((3.491854e-11 3.457643e-12 2.367999e-12) (-6.980346e-08 -1.397330e-11 -2.787823e-11))
765.063388    	((3.891700e-10 -1.913911e-06 -1.983321e-06) (3.709539e-10 -1.854763e-06 -6.366791e-07)) ((3.491956e-11 3.471827e-12 2.369306e-12) (-6.977543e-08 -1.350624e-11 -2.747391e-11))
788.936478    	((3.541771e-10 -1.913550e-06 -1.978228e-06) (3.636733e-10 -1.853979e-06 -6.367520e-07)) ((3.492047e-11 3.484630e-12 2.370476e-12) (-6.975052e-08 -1.306294e-11 -2.709140e-11))
812.810817    	((3.185957e-10 -1.913225e-06 -1.973660e-06) (3.564576e-10 -1.853281e-06 -6.368152e-07)) ((3.492136e-11 3.496043e-12 2.371525e-12) (-6.972836e-08 -1.263488e-11 -2.673678e-11))
836.686272    	((2.841837e-10 -1.912930e-06 -1.969563e-06) (3.492904e-10 -1.852660e-06 -6.368700e-07)) ((3.492223e-11 3.506251e-12 2.372462e-12) (-6.970864e-08 -1.221498e-11 -2.640489e-11))
860.562727    	((2.520378e-10 -1.912666e-06 -1.965888e-06) (3.422381e-10 -1.852106e-06 -6.369175e-07)) ((3.492307e-11 3.515429e-12 2.373294e-12) (-6.969108e-08 -1.181021e-11 -2.609735e-11))
884.440077    	((2.211569e-10 -1.912425e-06 -1.962592e-06) (3.353295e-10 -1.851612e-06 -6.369587e-07)) ((3.492387e-11 3.523669e-12 2.374041e-12) (-6.967543e-08 -1.142361e-11 -2.581244e-11))
908.318228    	((1.923563e-10 -1.912206e-06 -1.959629e-06) (3.286639e-10 -1.851170e-06 -6.369944e-07)) ((3.492457e-11 3.531058e-12 2.374717e-12) (-6.966148e-08 -1.105756e-11 -2.554845e-11))
932.197098    	((1.648624e-10 -1.912009e-06 -1.956973e-06) (3.222426e-10 -1.850777e-06 -6.370255e-07)) ((3.492522e-11 3.537693e-12 2.375318e-12) (-6.964903e-08 -1.071108e-11 -2.530437e-11))
956.076611    	((1.396205e-10 -1.911833e-06 -1.954591e-06) (3.161218e-10 -1.850425e-06 -6.370524e-07)) ((3.492581e-11 3.543617e-12 2.375851e-12) (-6.963791e-08 -1.038268e-11 -2.508009e-11))
979.956701    	((1.155146e-10 -1.911673e-06 -1.952452e-06) (3.102972e-10 -1.850110e-06 -6.370758e-07)) ((3.492634e-11 3.548919e-12 2.376322e-12) (-6.962798e-08 -1.007168e-11 -2.487278e-11))
1003.837308   	((9.299309e-11 -1.911528e-06 -1.950534e-06) (3.047760e-10 -1.849829e-06 -6.370962e-07)) ((3.492684e-11 3.553629e-12 2.376746e-12) (-6.961911e-08 -9.776023e-12 -2.468261e-11))
1027.718379   	((7.248353e-11 -1.911400e-06 -1.948816e-06) (2.995887e-10 -1.849578e-06 -6.371140e-07)) ((3.492735e-11 3.557842e-12 2.377117e-12) (-6.961117e-08 -9.496585e-12 -2.450727e-11))
1051.599867   	((5.333323e-11 -1.911282e-06 -1.947271e-06) (2.947369e-10 -1.849353e-06 -6.371294e-07)) ((3.492780e-11 3.561604e-12 2.377455e-12) (-6.960407e-08 -9.235535e-12 -2.434486e-11))
1075.481727   	((3.522185e-11 -1.911176e-06 -1.945884e-06) (2.901818e-10 -1.849152e-06 -6.371428e-07)) ((3.492823e-11 3.564962e-12 2.377757e-12) (-6.959773e-08 -8.990601e-12 -2.419528e-11))
1099.363922   	((1.861363e-11 -1.911081e-06 -1.944641e-06) (2.859262e-10 -1.848972e-06 -6.371544e-07)) ((3.492864e-11 3.567981e-12 2.378019e-12) (-6.959205e-08 -8.762236e-12 -2.405808e-11))
1123.246418   	((3.039737e-12 -1.910994e-06 -1.943526e-06) (2.819595e-10 -1.848810e-06 -6.371645e-07)) ((3.492901e-11 3.570660e-12 2.378255e-12) (-6.958697e-08 -8.549413e-12 -2.393137e-11))
1147.129182   	((-1.122125e-11 -1.910917e-06 -1.942528e-06) (2.782610e-10 -1.848666e-06 -6.371732e-07)) ((3.492936e-11 3.573071e-12 2.378464e-12) (-6.958242e-08 -8.351350e-12 -2.381514e-11))
1171.012188   	((-2.423944e-11 -1.910848e-06 -1.941628e-06) (2.748461e-10 -1.848537e-06 -6.371808e-07)) ((3.492969e-11 3.575246e-12 2.378658e-12) (-6.957835e-08 -8.168215e-12 -2.370775e-11))
1194.895412   	((-3.619527e-11 -1.910786e-06 -1.940821e-06) (2.717012e-10 -1.848421e-06 -6.371873e-07)) ((3.493001e-11 3.577183e-12 2.378832e-12) (-6.957471e-08 -7.998923e-12 -2.360777e-11))
1218.778831   	((-4.721675e-11 -1.910730e-06 -1.940096e-06) (2.688031e-10 -1.848317e-06 -6.371930e-07)) ((3.493029e-11 3.578914e-12 2.378992e-12) (-6.957145e-08 -7.842498e-12 -2.351561e-11))
1242.662424   	((-5.702917e-11 -1.910681e-06 -1.939442e-06) (2.661353e-10 -1.848224e-06 -6.371980e-07)) ((3.493057e-11 3.580483e-12 2.379139e-12) (-6.956852e-08 -7.698556e-12 -2.343119e-11))
1266.546173   	((-6.618069e-11 -1.910635e-06 -1.938861e-06) (2.636811e-10 -1.848141e-06 -6.372023e-07)) ((3.493082e-11 3.581867e-12 2.379265e-12) (-6.956590e-08 -7.566403e-12 -2.335403e-11))
1290.430064   	((-7.457216e-11 -1.910594e-06 -1.938336e-06) (2.614260e-10 -1.848067e-06 -6.372060e-07)) ((3.493103e-11 3.583119e-12 2.379382e-12) (-6.956356e-08 -7.445027e-12 -2.328371e-11))
1314.31408    	((-8.224880e-11 -1.910557e-06 -1.937868e-06) (2.593560e-10 -1.848000e-06 -6.372092e-07)) ((3.493124e-11 3.584229e-12 2.379486e-12) (-6.956145e-08 -7.333623e-12 -2.321982e-11))
1338.19821    	((-8.915128e-11 -1.910524e-06 -1.937446e-06) (2.574623e-10 -1.847940e-06 -6.372121e-07)) ((3.493144e-11 3.585231e-12 2.379580e-12) (-6.955957e-08 -7.231953e-12 -2.316174e-11))
1362.082442   	((-9.543499e-11 -1.910494e-06 -1.937069e-06) (2.557377e-10 -1.847886e-06 -6.372146e-07)) ((3.493161e-11 3.586123e-12 2.379665e-12) (-6.955788e-08 -7.139198e-12 -2.310904e-11))
1385.966766   	((-1.011156e-10 -1.910467e-06 -1.936731e-06) (2.541557e-10 -1.847838e-06 -6.372167e-07)) ((3.493177e-11 3.586921e-12 2.379743e-12) (-6.955637e-08 -7.054608e-12 -2.306152e-11))
1409.851171   	((-1.064048e-10 -1.910444e-06 -1.936430e-06) (2.527138e-10 -1.847795e-06 -6.372186e-07)) ((3.493191e-11 3.587626e-12 2.379809e-12) (-6.955501e-08 -6.977432e-12 -2.301862e-11))
1433.73565    	((-1.110968e-10 -1.910422e-06 -1.936155e-06) (2.513960e-10 -1.847756e-06 -6.372202e-07)) ((3.493205e-11 3.588274e-12 2.379871e-12) (-6.955379e-08 -6.907230e-12 -2.297976e-11))
