# Forces      
# CofR        : (0.000000e+00 0.000000e+00 0.000000e+00)
# Time        forces(pressure viscous)	moments(pressure viscous)
0             	((0.000000e+00 0.000000e+00 0.000000e+00) (-1.372734e-11 -2.518474e-02 2.170538e-12)) ((0.000000e+00 0.000000e+00 0.000000e+00) (-5.658727e-04 -6.919667e-14 1.085973e-08))
0.0112174     	((1.823086e-03 -7.899023e+00 5.389422e-01) (6.418098e-06 -5.384088e-02 -7.688628e-03)) ((9.306819e-05 6.614444e-06 1.679825e-06) (-1.775378e-03 1.175969e-07 -2.904404e-07))
0.0246783     	((-2.867887e-04 3.641936e+00 -2.154144e+00) (1.396656e-05 -4.963812e-02 -9.817605e-03)) ((-4.364358e-05 -1.922204e-06 -7.101266e-07) (-1.811781e-03 2.688690e-08 -3.659625e-07))
0.0408314     	((-4.878387e-04 -7.496425e-01 -1.122254e+00) (7.245320e-06 -4.051278e-02 -7.020408e-03)) ((3.601519e-06 9.143307e-07 9.131597e-08) (-1.450705e-03 2.292348e-08 -4.232292e-07))
0.0602152     	((-5.435858e-04 2.933121e-01 -1.175270e+00) (-8.996775e-06 -3.743021e-02 -6.595559e-03)) ((-3.371543e-06 8.215560e-07 2.689965e-07) (-1.335947e-03 4.735212e-08 -7.947749e-07))
0.0829353     	((-4.800531e-04 -2.110160e-01 -1.077407e+00) (-2.193563e-05 -3.545977e-02 -6.592365e-03)) ((5.249660e-07 9.257946e-07 2.053304e-07) (-1.267311e-03 3.408679e-08 -1.036266e-06))
0.108974      	((-7.623615e-04 1.287340e-02 -1.118377e+00) (-3.208591e-05 -3.470512e-02 -6.756859e-03)) ((1.398095e-07 9.341706e-07 2.535881e-07) (-1.242858e-03 6.341683e-08 -1.095272e-06))
0.13831       	((-2.929588e-04 -9.539725e-02 -1.084852e+00) (-3.076703e-05 -3.406525e-02 -7.068389e-03)) ((1.013587e-06 9.164686e-07 2.952986e-07) (-1.215282e-03 7.452002e-08 -1.141653e-06))
0.170924      	((-3.555520e-04 -5.296434e-02 -1.102997e+00) (-2.890081e-05 -3.367371e-02 -7.394830e-03)) ((1.619707e-06 9.169160e-07 3.690720e-07) (-1.199178e-03 9.741418e-08 -1.291486e-06))
0.203722      	((-8.645081e-05 -8.511690e-02 -1.089324e+00) (-2.655976e-05 -3.345697e-02 -7.672727e-03)) ((2.146690e-06 9.879525e-07 4.022394e-07) (-1.189190e-03 1.027683e-07 -1.376094e-06))
0.236447      	((5.148548e-05 -8.004008e-02 -1.094638e+00) (-2.314893e-05 -3.333862e-02 -7.930561e-03)) ((2.591511e-06 1.071780e-06 4.642380e-07) (-1.182718e-03 8.301013e-08 -1.496163e-06))
0.268955      	((3.467617e-04 -9.376922e-02 -1.084403e+00) (-2.277584e-05 -3.324978e-02 -8.121667e-03)) ((2.994202e-06 1.143269e-06 4.860201e-07) (-1.176534e-03 2.132021e-08 -1.621677e-06))
0.301237      	((4.747621e-04 -9.715600e-02 -1.081276e+00) (-2.298866e-05 -3.315267e-02 -8.263135e-03)) ((3.375618e-06 1.227275e-06 5.313538e-07) (-1.169849e-03 -3.678855e-08 -1.726000e-06))
0.333387      	((8.309051e-04 -1.039175e-01 -1.070463e+00) (-2.229368e-05 -3.300463e-02 -8.344252e-03)) ((3.756094e-06 1.290152e-06 5.570417e-07) (-1.161955e-03 -8.415900e-08 -1.930964e-06))
0.36552       	((1.055488e-03 -1.060627e-01 -1.062817e+00) (-2.414945e-05 -3.281363e-02 -8.415095e-03)) ((4.116023e-06 1.303559e-06 5.924965e-07) (-1.153493e-03 -1.331043e-07 -2.130083e-06))
0.397663      	((1.416639e-03 -1.078889e-01 -1.052810e+00) (-2.479407e-05 -3.260886e-02 -8.479360e-03)) ((4.370919e-06 1.354338e-06 6.287560e-07) (-1.145292e-03 -1.888655e-07 -2.265378e-06))
0.429895      	((1.918545e-03 -1.081059e-01 -1.044678e+00) (-2.096411e-05 -3.241211e-02 -8.532933e-03)) ((4.606657e-06 1.388212e-06 6.685008e-07) (-1.137863e-03 -2.752471e-07 -2.365150e-06))
0.462214      	((2.439497e-03 -1.082069e-01 -1.036832e+00) (-1.536273e-05 -3.223529e-02 -8.585711e-03)) ((4.745825e-06 1.403484e-06 6.975531e-07) (-1.131298e-03 -3.722500e-07 -2.477096e-06))
0.494536      	((3.002816e-03 -1.073534e-01 -1.029880e+00) (-1.021804e-05 -3.207590e-02 -8.625577e-03)) ((4.900089e-06 1.439649e-06 7.243333e-07) (-1.125449e-03 -4.764315e-07 -2.576202e-06))
0.526862      	((3.555544e-03 -1.067682e-01 -1.023265e+00) (-6.396863e-06 -3.192749e-02 -8.656245e-03)) ((5.017376e-06 1.459306e-06 7.460463e-07) (-1.120078e-03 -5.812918e-07 -2.682062e-06))
0.559203      	((4.179081e-03 -1.059932e-01 -1.017428e+00) (-2.758045e-06 -3.179242e-02 -8.687080e-03)) ((5.066678e-06 1.490014e-06 7.664182e-07) (-1.115245e-03 -6.926906e-07 -2.807975e-06))
0.591567      	((4.897845e-03 -1.054807e-01 -1.011678e+00) (1.415691e-06 -3.166566e-02 -8.712657e-03)) ((5.118619e-06 1.521423e-06 7.870471e-07) (-1.110646e-03 -8.290178e-07 -2.929412e-06))
0.623949      	((5.708750e-03 -1.049909e-01 -1.006602e+00) (6.105958e-06 -3.154748e-02 -8.742553e-03)) ((5.140222e-06 1.544887e-06 8.071569e-07) (-1.106200e-03 -9.891821e-07 -3.065781e-06))
0.656345      	((6.568912e-03 -1.047398e-01 -1.001940e+00) (1.107377e-05 -3.144023e-02 -8.770618e-03)) ((5.166776e-06 1.573921e-06 8.226485e-07) (-1.102147e-03 -1.168019e-06 -3.239949e-06))
0.688754      	((7.529575e-03 -1.044929e-01 -9.978339e-01) (1.595190e-05 -3.134351e-02 -8.793385e-03)) ((5.204099e-06 1.597612e-06 8.358958e-07) (-1.098590e-03 -1.361408e-06 -3.453046e-06))
0.721175      	((8.609409e-03 -1.041937e-01 -9.940375e-01) (2.074551e-05 -3.125822e-02 -8.811347e-03)) ((5.226196e-06 1.620188e-06 8.474465e-07) (-1.095584e-03 -1.571973e-06 -3.721437e-06))
0.753605      	((9.766084e-03 -1.038266e-01 -9.904261e-01) (2.522808e-05 -3.118294e-02 -8.823812e-03)) ((5.246836e-06 1.645291e-06 8.587454e-07) (-1.093040e-03 -1.809424e-06 -4.075983e-06))
0.786042      	((1.103276e-02 -1.033894e-01 -9.870101e-01) (2.927564e-05 -3.111526e-02 -8.833598e-03)) ((5.258436e-06 1.663309e-06 8.709405e-07) (-1.090798e-03 -2.071872e-06 -4.516186e-06))
0.818486      	((1.253119e-02 -1.027786e-01 -9.837721e-01) (3.357055e-05 -3.105371e-02 -8.842882e-03)) ((5.263262e-06 1.684002e-06 8.835234e-07) (-1.088756e-03 -2.367544e-06 -5.027007e-06))
0.850936      	((1.424095e-02 -1.021865e-01 -9.807878e-01) (3.859367e-05 -3.099675e-02 -8.852374e-03)) ((5.266053e-06 1.705842e-06 8.972450e-07) (-1.086844e-03 -2.712113e-06 -5.606363e-06))
0.883391      	((1.613436e-02 -1.016512e-01 -9.780901e-01) (4.430115e-05 -3.094365e-02 -8.861890e-03)) ((5.270069e-06 1.729268e-06 9.110124e-07) (-1.085040e-03 -3.105363e-06 -6.245852e-06))
0.915849      	((1.825972e-02 -1.011432e-01 -9.756384e-01) (5.107128e-05 -3.089470e-02 -8.871462e-03)) ((5.274724e-06 1.758114e-06 9.257955e-07) (-1.083383e-03 -3.552958e-06 -6.941372e-06))
0.94831       	((2.061678e-02 -1.006305e-01 -9.733072e-01) (5.898857e-05 -3.084935e-02 -8.880079e-03)) ((5.274932e-06 1.790278e-06 9.406376e-07) (-1.081869e-03 -4.065035e-06 -7.704187e-06))
0.980773      	((2.326680e-02 -1.002699e-01 -9.711712e-01) (6.831857e-05 -3.080726e-02 -8.887681e-03)) ((5.273800e-06 1.824771e-06 9.544872e-07) (-1.080480e-03 -4.639956e-06 -8.532871e-06))
1.013236      	((2.617089e-02 -1.000539e-01 -9.692316e-01) (7.926873e-05 -3.076886e-02 -8.894799e-03)) ((5.270464e-06 1.860678e-06 9.686207e-07) (-1.079228e-03 -5.275240e-06 -9.430042e-06))
1.045699      	((2.937509e-02 -9.996323e-02 -9.674810e-01) (9.153269e-05 -3.073385e-02 -8.900876e-03)) ((5.260971e-06 1.898655e-06 9.817422e-07) (-1.078099e-03 -5.972537e-06 -1.041788e-05))
1.07816       	((3.293561e-02 -9.993431e-02 -9.658621e-01) (1.048581e-04 -3.070182e-02 -8.906080e-03)) ((5.248009e-06 1.942944e-06 9.919611e-07) (-1.077077e-03 -6.736244e-06 -1.152376e-05))
1.110617      	((3.690031e-02 -9.998325e-02 -9.643591e-01) (1.191812e-04 -3.067272e-02 -8.910160e-03)) ((5.233758e-06 1.992322e-06 1.000255e-06) (-1.076182e-03 -7.572305e-06 -1.277705e-05))
1.143071      	((4.134966e-02 -1.001962e-01 -9.630171e-01) (1.347280e-04 -3.064678e-02 -8.912553e-03)) ((5.216593e-06 2.049495e-06 1.007729e-06) (-1.075434e-03 -8.495321e-06 -1.419778e-05))
1.175519      	((4.633615e-02 -1.004658e-01 -9.617781e-01) (1.517550e-04 -3.062438e-02 -8.913086e-03)) ((5.195293e-06 2.114494e-06 1.015291e-06) (-1.074851e-03 -9.523363e-06 -1.579451e-05))
1.207959      	((5.193039e-02 -1.008757e-01 -9.607521e-01) (1.703552e-04 -3.060590e-02 -8.911482e-03)) ((5.172076e-06 2.188602e-06 1.022459e-06) (-1.074450e-03 -1.067593e-05 -1.758473e-05))
1.240391      	((5.822138e-02 -1.014046e-01 -9.598946e-01) (1.910916e-04 -3.059123e-02 -8.907699e-03)) ((5.144664e-06 2.270348e-06 1.029934e-06) (-1.074228e-03 -1.197508e-05 -1.959330e-05))
1.272812      	((6.529204e-02 -1.020423e-01 -9.591825e-01) (2.144758e-04 -3.058051e-02 -8.901761e-03)) ((5.108445e-06 2.363268e-06 1.039691e-06) (-1.074194e-03 -1.344137e-05 -2.185304e-05))
1.305221      	((7.321605e-02 -1.028513e-01 -9.586547e-01) (2.411935e-04 -3.057418e-02 -8.893541e-03)) ((5.064183e-06 2.472662e-06 1.049602e-06) (-1.074367e-03 -1.510300e-05 -2.437889e-05))
1.337615      	((8.200553e-02 -1.039014e-01 -9.583240e-01) (2.720311e-04 -3.057245e-02 -8.882647e-03)) ((5.014928e-06 2.598829e-06 1.059522e-06) (-1.074778e-03 -1.698444e-05 -2.716394e-05))
1.369992      	((9.182338e-02 -1.053032e-01 -9.582431e-01) (3.081272e-04 -3.057605e-02 -8.868400e-03)) ((4.969277e-06 2.740021e-06 1.066461e-06) (-1.075476e-03 -1.911348e-05 -3.017786e-05))
1.402349      	((1.025372e-01 -1.071638e-01 -9.584960e-01) (3.501473e-04 -3.058649e-02 -8.850142e-03)) ((4.929531e-06 2.892237e-06 1.072969e-06) (-1.076534e-03 -2.149894e-05 -3.340790e-05))
1.434685      	((1.142724e-01 -1.094983e-01 -9.591322e-01) (3.978054e-04 -3.060563e-02 -8.827011e-03)) ((4.886630e-06 3.065726e-06 1.080614e-06) (-1.078042e-03 -2.414774e-05 -3.689774e-05))
1.466995      	((1.269698e-01 -1.123752e-01 -9.602586e-01) (4.508049e-04 -3.063458e-02 -8.799069e-03)) ((4.843890e-06 3.261373e-06 1.089925e-06) (-1.080055e-03 -2.708413e-05 -4.069197e-05))
1.499278      	((1.406342e-01 -1.158145e-01 -9.618304e-01) (5.108303e-04 -3.067416e-02 -8.765264e-03)) ((4.806664e-06 3.478898e-06 1.099196e-06) (-1.082648e-03 -3.031954e-05 -4.475559e-05))
1.531531      	((1.550485e-01 -1.200172e-01 -9.639158e-01) (5.780427e-04 -3.072387e-02 -8.725235e-03)) ((4.785524e-06 3.700363e-06 1.106135e-06) (-1.085858e-03 -3.386642e-05 -4.911495e-05))
1.563748      	((1.695580e-01 -1.251369e-01 -9.667142e-01) (6.502260e-04 -3.078600e-02 -8.680508e-03)) ((4.770061e-06 3.911271e-06 1.111905e-06) (-1.089682e-03 -3.769281e-05 -5.377051e-05))
1.595921      	((1.839389e-01 -1.309420e-01 -9.700903e-01) (7.263309e-04 -3.086289e-02 -8.633325e-03)) ((4.755439e-06 4.112790e-06 1.121060e-06) (-1.094048e-03 -4.176180e-05 -5.862270e-05))
1.628049      	((1.973978e-01 -1.371172e-01 -9.739354e-01) (8.046520e-04 -3.095213e-02 -8.584611e-03)) ((4.737302e-06 4.290557e-06 1.135117e-06) (-1.098863e-03 -4.598785e-05 -6.366960e-05))
1.660129      	((2.096071e-01 -1.442334e-01 -9.784196e-01) (8.818374e-04 -3.105110e-02 -8.534678e-03)) ((4.727867e-06 4.444436e-06 1.161168e-06) (-1.104078e-03 -5.024083e-05 -6.887229e-05))
1.69215       	((2.193571e-01 -1.520484e-01 -9.837316e-01) (9.530300e-04 -3.116034e-02 -8.481217e-03)) ((4.729838e-06 4.541586e-06 1.196382e-06) (-1.109743e-03 -5.434117e-05 -7.414489e-05))
1.724112      	((2.261733e-01 -1.592720e-01 -9.892183e-01) (1.013924e-03 -3.127900e-02 -8.424649e-03)) ((4.725980e-06 4.565496e-06 1.228237e-06) (-1.115749e-03 -5.810953e-05 -7.933618e-05))
1.756018      	((2.299963e-01 -1.658180e-01 -9.950845e-01) (1.061242e-03 -3.140482e-02 -8.367252e-03)) ((4.717441e-06 4.516494e-06 1.260761e-06) (-1.121914e-03 -6.139473e-05 -8.421854e-05))
1.787874      	((2.302697e-01 -1.708782e-01 -1.000613e+00) (1.093530e-03 -3.153145e-02 -8.310233e-03)) ((4.705353e-06 4.405411e-06 1.292700e-06) (-1.127950e-03 -6.403646e-05 -8.847827e-05))
1.819691      	((2.270279e-01 -1.743086e-01 -1.006330e+00) (1.105176e-03 -3.165353e-02 -8.256192e-03)) ((4.688497e-06 4.223112e-06 1.320068e-06) (-1.133634e-03 -6.578526e-05 -9.210791e-05))
1.851478      	((2.207367e-01 -1.760366e-01 -1.011680e+00) (1.089953e-03 -3.176904e-02 -8.206777e-03)) ((4.670611e-06 3.995696e-06 1.319689e-06) (-1.138905e-03 -6.643780e-05 -9.517181e-05))
1.883241      	((2.124369e-01 -1.757303e-01 -1.016712e+00) (1.047345e-03 -3.187439e-02 -8.161207e-03)) ((4.644445e-06 3.753565e-06 1.284826e-06) (-1.143733e-03 -6.594262e-05 -9.762169e-05))
1.914986      	((2.034237e-01 -1.747114e-01 -1.021480e+00) (9.844420e-04 -3.196956e-02 -8.118801e-03)) ((4.625654e-06 3.520154e-06 1.242529e-06) (-1.148200e-03 -6.440315e-05 -9.928971e-05))
1.946718      	((1.945038e-01 -1.726830e-01 -1.026364e+00) (9.099959e-04 -3.205583e-02 -8.080176e-03)) ((4.584535e-06 3.331958e-06 1.206503e-06) (-1.152395e-03 -6.209183e-05 -1.001028e-04))
1.978447      	((1.870077e-01 -1.698996e-01 -1.030872e+00) (8.347143e-04 -3.213535e-02 -8.046673e-03)) ((4.495843e-06 3.234215e-06 1.185641e-06) (-1.156367e-03 -5.938439e-05 -1.000221e-04))
2.010177      	((1.813089e-01 -1.666852e-01 -1.035431e+00) (7.698848e-04 -3.220862e-02 -8.024031e-03)) ((4.340779e-06 3.229434e-06 1.179659e-06) (-1.159950e-03 -5.670593e-05 -9.907497e-05))
2.041914      	((1.771218e-01 -1.630636e-01 -1.040033e+00) (7.229154e-04 -3.227408e-02 -8.020826e-03)) ((4.101358e-06 3.303829e-06 1.185159e-06) (-1.162755e-03 -5.445347e-05 -9.738147e-05))
2.07366       	((1.741714e-01 -1.594757e-01 -1.044758e+00) (6.978247e-04 -3.233009e-02 -8.041075e-03)) ((3.832318e-06 3.429496e-06 1.186918e-06) (-1.164496e-03 -5.287718e-05 -9.504891e-05))
2.105414      	((1.716928e-01 -1.554922e-01 -1.049160e+00) (6.868033e-04 -3.237025e-02 -8.083029e-03)) ((3.560043e-06 3.569015e-06 1.171092e-06) (-1.165120e-03 -5.194757e-05 -9.263139e-05))
2.137177      	((1.688948e-01 -1.519394e-01 -1.052735e+00) (6.735251e-04 -3.239120e-02 -8.135221e-03)) ((3.335972e-06 3.682211e-06 1.149564e-06) (-1.164901e-03 -5.131860e-05 -9.081018e-05))
2.168948      	((1.653338e-01 -1.489919e-01 -1.055248e+00) (6.504829e-04 -3.239689e-02 -8.183639e-03)) ((3.182267e-06 3.709120e-06 1.142777e-06) (-1.164244e-03 -5.057220e-05 -8.966489e-05))
2.200726      	((1.614069e-01 -1.471230e-01 -1.056351e+00) (6.160517e-04 -3.239218e-02 -8.221479e-03)) ((3.136208e-06 3.636747e-06 1.148103e-06) (-1.163386e-03 -4.950865e-05 -8.909904e-05))
2.232511      	((1.571325e-01 -1.461023e-01 -1.056431e+00) (5.698967e-04 -3.238223e-02 -8.244534e-03)) ((3.219664e-06 3.439592e-06 1.140147e-06) (-1.162553e-03 -4.804069e-05 -8.899096e-05))
2.264303      	((1.531626e-01 -1.457791e-01 -1.055805e+00) (5.209375e-04 -3.237177e-02 -8.249657e-03)) ((3.370147e-06 3.171550e-06 1.121778e-06) (-1.161959e-03 -4.616865e-05 -8.891915e-05))
2.296103      	((1.495393e-01 -1.457149e-01 -1.054845e+00) (4.753701e-04 -3.236426e-02 -8.247469e-03)) ((3.499565e-06 2.908514e-06 1.082502e-06) (-1.161347e-03 -4.421854e-05 -8.861020e-05))
2.327912      	((1.467607e-01 -1.465066e-01 -1.054064e+00) (4.279613e-04 -3.235881e-02 -8.245337e-03)) ((3.630550e-06 2.665576e-06 1.046335e-06) (-1.160679e-03 -4.238992e-05 -8.839152e-05))
2.359728      	((1.455129e-01 -1.476645e-01 -1.053780e+00) (3.809293e-04 -3.235231e-02 -8.237211e-03)) ((3.717241e-06 2.507247e-06 1.031164e-06) (-1.160312e-03 -4.055793e-05 -8.849271e-05))
2.391553      	((1.459295e-01 -1.483763e-01 -1.053629e+00) (3.371709e-04 -3.234448e-02 -8.225675e-03)) ((3.745241e-06 2.480080e-06 1.034109e-06) (-1.160295e-03 -3.886551e-05 -8.895048e-05))
2.423386      	((1.474141e-01 -1.489455e-01 -1.054416e+00) (2.978118e-04 -3.233631e-02 -8.220175e-03)) ((3.693235e-06 2.600121e-06 1.060142e-06) (-1.160467e-03 -3.756926e-05 -8.973491e-05))
2.455226      	((1.504536e-01 -1.493967e-01 -1.056288e+00) (2.672306e-04 -3.232668e-02 -8.226650e-03)) ((3.570650e-06 2.835349e-06 1.115819e-06) (-1.160662e-03 -3.687226e-05 -9.078302e-05))
2.487072      	((1.542331e-01 -1.487428e-01 -1.058215e+00) (2.584571e-04 -3.231561e-02 -8.248341e-03)) ((3.318971e-06 3.192224e-06 1.179171e-06) (-1.160628e-03 -3.697366e-05 -9.149421e-05))
2.518922      	((1.576634e-01 -1.480396e-01 -1.060352e+00) (2.791534e-04 -3.230637e-02 -8.288652e-03)) ((3.025542e-06 3.549642e-06 1.219738e-06) (-1.160139e-03 -3.792074e-05 -9.135261e-05))
2.550775      	((1.599480e-01 -1.477700e-01 -1.062067e+00) (3.149851e-04 -3.229851e-02 -8.343307e-03)) ((2.769129e-06 3.821706e-06 1.234395e-06) (-1.159142e-03 -3.943086e-05 -9.076765e-05))
2.582629      	((1.607941e-01 -1.484572e-01 -1.063338e+00) (3.499592e-04 -3.228971e-02 -8.400195e-03)) ((2.628445e-06 3.956521e-06 1.237984e-06) (-1.157818e-03 -4.105351e-05 -9.023688e-05))
2.614482      	((1.606406e-01 -1.496381e-01 -1.063412e+00) (3.744370e-04 -3.227721e-02 -8.448856e-03)) ((2.605704e-06 3.949678e-06 1.239942e-06) (-1.156490e-03 -4.233601e-05 -9.014608e-05))
2.646333      	((1.597662e-01 -1.517987e-01 -1.063331e+00) (3.825703e-04 -3.226123e-02 -8.478750e-03)) ((2.711669e-06 3.789993e-06 1.240937e-06) (-1.155469e-03 -4.294151e-05 -9.068420e-05))
2.678183      	((1.590401e-01 -1.537444e-01 -1.062608e+00) (3.726332e-04 -3.224129e-02 -8.488189e-03)) ((2.847590e-06 3.566213e-06 1.247276e-06) (-1.154813e-03 -4.285397e-05 -9.186603e-05))
2.710029      	((1.584012e-01 -1.558125e-01 -1.061878e+00) (3.498030e-04 -3.222047e-02 -8.482150e-03)) ((2.987839e-06 3.317722e-06 1.263259e-06) (-1.154581e-03 -4.216917e-05 -9.346300e-05))
2.741874      	((1.570647e-01 -1.577657e-01 -1.061513e+00) (3.174941e-04 -3.220041e-02 -8.464372e-03)) ((3.129251e-06 3.061704e-06 1.271846e-06) (-1.154719e-03 -4.099737e-05 -9.529691e-05))
2.773716      	((1.551725e-01 -1.593066e-01 -1.061095e+00) (2.789874e-04 -3.218108e-02 -8.441941e-03)) ((3.252028e-06 2.878105e-06 1.259576e-06) (-1.155021e-03 -3.954009e-05 -9.711397e-05))
2.805558      	((1.530846e-01 -1.600005e-01 -1.060969e+00) (2.424196e-04 -3.216661e-02 -8.424964e-03)) ((3.319549e-06 2.814206e-06 1.227285e-06) (-1.155409e-03 -3.808595e-05 -9.845728e-05))
2.837401      	((1.511998e-01 -1.603964e-01 -1.061794e+00) (2.147185e-04 -3.216124e-02 -8.417623e-03)) ((3.296663e-06 2.892116e-06 1.203786e-06) (-1.155825e-03 -3.687379e-05 -9.896380e-05))
