# Forces      
# CofR        : (0.000000e+00 0.000000e+00 0.000000e+00)
# Time        forces(pressure viscous)	moments(pressure viscous)
0             	((0.000000e+00 0.000000e+00 0.000000e+00) (-4.040257e-15 -7.964508e-06 7.203045e-16)) ((0.000000e+00 0.000000e+00 0.000000e+00) (-1.789541e-07 -2.196902e-17 3.814294e-12))
0.012         	((2.430437e-09 -2.316120e-03 5.227685e-04) (1.322015e-11 -9.140133e-06 -2.280407e-09)) ((2.731647e-08 1.781309e-09 4.367077e-10) (-2.637479e-07 -1.049340e-14 7.904101e-12))
0.0264        	((-3.722379e-08 1.594351e-04 -3.262893e-05) (-8.829897e-12 -9.326752e-06 -3.442732e-09)) ((-1.912465e-09 -1.121335e-10 -2.876578e-11) (-2.953206e-07 1.632269e-12 1.041124e-11))
0.04368       	((1.788134e-08 4.850245e-04 -3.765446e-05) (-6.072680e-12 -8.289602e-06 -2.336512e-09)) ((-6.312689e-09 -1.309601e-10 -1.177939e-10) (-2.630999e-07 2.673934e-12 8.858136e-12))
0.064416      	((9.935732e-09 4.558232e-06 -1.886565e-05) (-1.440497e-10 -7.342974e-06 -1.019989e-09)) ((3.094577e-11 -6.322981e-11 5.644562e-12) (-2.361695e-07 1.507885e-12 1.042557e-11))
0.0892992     	((-6.040792e-09 -6.571872e-06 -1.159301e-05) (-2.532666e-10 -6.779629e-06 -7.180769e-10)) ((2.599332e-10 -3.775701e-11 6.744662e-12) (-2.232452e-07 3.505148e-13 1.130100e-11))
0.119159      	((-2.933463e-09 7.233434e-06 -7.001768e-06) (-2.300702e-10 -6.260451e-06 -1.181179e-09)) ((-1.366126e-10 -2.354320e-11 -1.330654e-12) (-2.088813e-07 6.924103e-13 9.919070e-12))
0.154991      	((3.778649e-09 3.909787e-06 -4.398552e-06) (-1.917144e-10 -5.709678e-06 -1.797197e-09)) ((-8.337788e-11 -1.409824e-11 -1.269280e-13) (-1.928858e-07 6.675598e-13 8.939879e-12))
0.197989      	((1.293961e-09 9.489432e-07 -2.708561e-06) (-1.174139e-10 -5.153490e-06 -2.115089e-09)) ((-2.940491e-11 -8.413031e-12 -1.368609e-13) (-1.766010e-07 1.896391e-13 6.103910e-12))
0.249587      	((-7.429277e-11 -1.256599e-07 -1.691812e-06) (-5.790104e-11 -4.607539e-06 -2.363332e-09)) ((-7.835935e-12 -5.270647e-12 4.316378e-13) (-1.603091e-07 -3.731550e-13 3.921236e-12))
0.311504      	((-1.128929e-10 -6.173252e-07 -1.017868e-06) (-1.538511e-11 -4.088107e-06 -2.622246e-09)) ((-1.191058e-12 -2.988715e-12 5.618987e-13) (-1.443237e-07 -1.212095e-12 2.108184e-12))
0.385805      	((-3.387727e-11 -8.529234e-07 -6.160647e-07) (1.838936e-11 -3.608331e-06 -2.841227e-09)) ((7.741091e-13 -1.599150e-12 4.839819e-13) (-1.290362e-07 -1.860503e-12 7.986394e-14))
0.474966      	((-6.577262e-11 -9.631702e-07 -3.461570e-07) (3.434647e-11 -3.177937e-06 -3.040490e-09)) ((2.636140e-12 -6.724710e-13 4.105767e-13) (-1.148744e-07 -2.236682e-12 -3.681835e-13))
0.581959      	((-7.367853e-11 -1.006975e-06 -1.897358e-07) (4.105991e-11 -2.801169e-06 -3.254414e-09)) ((4.260623e-12 -1.419491e-13 3.613689e-13) (-1.021052e-07 -2.182579e-12 1.481737e-12))
0.710351      	((-3.235672e-11 -1.002855e-06 -8.730651e-08) (5.305924e-11 -2.478236e-06 -3.473334e-09)) ((5.369410e-12 2.020431e-13 2.966422e-13) (-9.088036e-08 -1.905723e-12 3.369858e-12))
0.864421      	((1.880739e-11 -9.665590e-07 -3.223662e-08) (7.515012e-11 -2.205008e-06 -3.659492e-09)) ((5.822022e-12 3.799483e-13 2.911923e-13) (-8.120207e-08 -1.546692e-12 3.388432e-12))
1.049306      	((9.042670e-12 -9.133889e-07 2.463074e-09) (8.793612e-11 -1.974494e-06 -3.825668e-09)) ((5.742157e-12 4.793792e-13 2.822036e-13) (-7.292507e-08 -1.244044e-12 2.219967e-12))
1.271167      	((3.714020e-11 -8.543422e-07 1.813464e-08) (8.361555e-11 -1.779485e-06 -3.985978e-09)) ((5.415195e-12 5.224684e-13 2.603083e-13) (-6.582981e-08 -1.002870e-12 8.123287e-13))
1.5374        	((5.964732e-11 -7.940400e-07 2.603631e-08) (7.085602e-11 -1.612317e-06 -4.171584e-09)) ((5.039012e-12 5.480255e-13 2.599289e-13) (-5.968066e-08 -7.769938e-13 -1.701587e-13))
1.85688       	((6.024007e-11 -7.352054e-07 2.576397e-08) (5.941735e-11 -1.465987e-06 -4.405750e-09)) ((4.614950e-12 5.387921e-13 2.634724e-13) (-5.427230e-08 -5.751460e-13 -5.515247e-13))
2.240256      	((2.460073e-11 -6.794102e-07 2.262782e-08) (4.536776e-11 -1.335914e-06 -4.683379e-09)) ((4.247761e-12 5.214572e-13 2.637603e-13) (-4.945617e-08 -3.228887e-13 -3.666069e-13))
2.700307      	((1.243901e-11 -6.273723e-07 1.627953e-08) (3.892380e-11 -1.219269e-06 -4.990973e-09)) ((3.942119e-12 4.907909e-13 2.612528e-13) (-4.513347e-08 6.172299e-15 5.246663e-13))
3.252369      	((-8.291758e-12 -5.788238e-07 9.508988e-09) (3.600093e-11 -1.114151e-06 -5.317891e-09)) ((3.635998e-12 4.594480e-13 2.426845e-13) (-4.123704e-08 3.094187e-13 2.015034e-12))
3.914842      	((-1.198487e-11 -5.331462e-07 1.965873e-09) (2.967508e-11 -1.019180e-06 -5.673211e-09)) ((3.322020e-12 4.248100e-13 2.212159e-13) (-3.771681e-08 4.968825e-13 3.520719e-12))
4.709811      	((-5.487175e-12 -4.906890e-07 -5.204014e-09) (1.938291e-11 -9.333704e-07 -6.059253e-09)) ((3.030332e-12 3.952053e-13 1.982776e-13) (-3.453564e-08 5.035802e-13 4.373130e-12))
5.663773      	((3.151888e-11 -4.514772e-07 -1.217140e-08) (1.273627e-11 -8.559869e-07 -6.467606e-09)) ((2.774629e-12 3.648326e-13 1.789191e-13) (-3.166658e-08 3.459960e-13 4.526747e-12))
6.808528      	((7.448688e-11 -4.154657e-07 -1.833190e-08) (1.380494e-11 -7.863991e-07 -6.893226e-09)) ((2.552734e-12 3.353404e-13 1.581554e-13) (-2.908654e-08 4.804509e-14 4.346046e-12))
8.182233      	((7.556729e-11 -3.825287e-07 -2.412379e-08) (1.645921e-11 -7.239434e-07 -7.333028e-09)) ((2.357676e-12 3.091418e-13 1.375647e-13) (-2.677130e-08 -1.926986e-13 4.242147e-12))
9.83068       	((5.846775e-11 -3.526495e-07 -2.924216e-08) (1.521051e-11 -6.678545e-07 -7.803950e-09)) ((2.184343e-12 2.861856e-13 1.197698e-13) (-2.469265e-08 -2.433575e-13 4.155173e-12))
11.808816     	((5.486279e-11 -3.253206e-07 -3.391740e-08) (1.146769e-11 -6.173129e-07 -8.313499e-09)) ((2.024716e-12 2.651115e-13 1.049289e-13) (-2.281994e-08 -1.607522e-13 3.647098e-12))
14.182579     	((6.542194e-11 -3.003451e-07 -3.803060e-08) (1.180484e-11 -5.715701e-07 -8.866819e-09)) ((1.875658e-12 2.459565e-13 9.190803e-14) (-2.112486e-08 -1.065680e-13 2.897660e-12))
17.031095     	((3.354262e-11 -2.775906e-07 -4.185002e-08) (1.214206e-11 -5.300127e-07 -9.471000e-09)) ((1.740924e-12 2.246460e-13 8.041058e-14) (-1.958439e-08 -3.442985e-14 2.216968e-12))
20.449314     	((-1.739917e-11 -2.568469e-07 -4.513003e-08) (9.770062e-12 -4.921654e-07 -1.012319e-08)) ((1.619916e-12 2.046195e-13 7.129327e-14) (-1.818109e-08 1.928448e-13 1.600916e-12))
24.551176     	((-4.142310e-11 -2.379719e-07 -4.809280e-08) (5.658536e-12 -4.576907e-07 -1.081976e-08)) ((1.511007e-12 1.858308e-13 6.510324e-14) (-1.690222e-08 4.121088e-13 1.080166e-12))
29.473411     	((-4.292426e-11 -2.208700e-07 -5.047617e-08) (1.535514e-12 -4.263284e-07 -1.155132e-08)) ((1.414639e-12 1.695899e-13 6.008952e-14) (-1.573844e-08 5.724224e-13 6.663343e-13))
35.380094     	((-4.749826e-11 -2.053588e-07 -5.261703e-08) (-7.414285e-13 -3.978519e-07 -1.231399e-08)) ((1.329275e-12 1.553449e-13 5.584890e-14) (-1.468177e-08 7.025275e-13 1.883892e-13))
42.468112     	((-5.661669e-11 -1.913962e-07 -5.429701e-08) (-2.861221e-12 -3.720331e-07 -1.310273e-08)) ((1.255112e-12 1.429061e-13 5.201397e-14) (-1.372404e-08 8.032622e-13 -4.513393e-13))
50.973735     	((-6.586619e-11 -1.788815e-07 -5.573192e-08) (-2.738188e-12 -3.486485e-07 -1.391165e-08)) ((1.190434e-12 1.310915e-13 4.923432e-14) (-1.285685e-08 8.931055e-13 -1.359834e-12))
61.180482     	((-5.227307e-11 -1.676836e-07 -5.677098e-08) (-1.431385e-12 -3.274822e-07 -1.473443e-08)) ((1.134122e-12 1.228214e-13 4.664196e-14) (-1.207197e-08 9.220081e-13 -2.563011e-12))
73.428578     	((-3.601772e-11 -1.576970e-07 -5.755702e-08) (1.948598e-12 -3.083147e-07 -1.557376e-08)) ((1.086760e-12 1.161671e-13 4.467488e-14) (-1.136131e-08 8.457693e-13 -3.945784e-12))
88.126294     	((-1.801973e-11 -1.488767e-07 -5.809930e-08) (7.396845e-12 -2.909493e-07 -1.643103e-08)) ((1.048140e-12 1.103989e-13 4.315487e-14) (-1.071753e-08 6.803138e-13 -5.472990e-12))
105.763553    	((-7.779939e-15 -1.411257e-07 -5.849332e-08) (1.282893e-11 -2.752174e-07 -1.730736e-08)) ((1.016935e-12 1.058263e-13 4.216192e-14) (-1.013440e-08 4.881987e-13 -7.105639e-12))
126.928263    	((1.978703e-11 -1.344197e-07 -5.861210e-08) (1.618846e-11 -2.609848e-07 -1.820297e-08)) ((9.927843e-13 1.026982e-13 4.158387e-14) (-9.607026e-09 2.657868e-13 -8.718441e-12))
152.325916    	((3.728995e-11 -1.286842e-07 -5.856861e-08) (1.908906e-11 -2.481435e-07 -1.911529e-08)) ((9.761667e-13 9.998356e-14 4.113689e-14) (-9.131539e-09 1.015153e-15 -1.017737e-11))
182.803099    	((4.937343e-11 -1.238508e-07 -5.835881e-08) (2.159135e-11 -2.366035e-07 -2.004275e-08)) ((9.663724e-13 9.803463e-14 4.103774e-14) (-8.704772e-09 -2.454055e-13 -1.148379e-11))
219.375719    	((6.430064e-11 -1.198177e-07 -5.799224e-08) (2.427727e-11 -2.262823e-07 -2.098548e-08)) ((9.633206e-13 9.671137e-14 4.157059e-14) (-8.323901e-09 -5.067760e-13 -1.261781e-11))
263.262863    	((7.613008e-11 -1.165386e-07 -5.746969e-08) (2.742667e-11 -2.171083e-07 -2.194171e-08)) ((9.666265e-13 9.677146e-14 4.253957e-14) (-7.986462e-09 -7.634831e-13 -1.354521e-11))
315.927436    	((8.177112e-11 -1.139915e-07 -5.680082e-08) (3.036273e-11 -2.090215e-07 -2.290904e-08)) ((9.756541e-13 9.768082e-14 4.390360e-14) (-7.690303e-09 -1.000437e-12 -1.425998e-11))
379.124923    	((8.949686e-11 -1.121104e-07 -5.600505e-08) (3.247910e-11 -2.019662e-07 -2.388098e-08)) ((9.887149e-13 9.937630e-14 4.556028e-14) (-7.433336e-09 -1.242283e-12 -1.476227e-11))
454.961908    	((9.657533e-11 -1.108048e-07 -5.507117e-08) (3.401454e-11 -1.958839e-07 -2.484557e-08)) ((1.003638e-12 1.021586e-13 4.727405e-14) (-7.213089e-09 -1.503018e-12 -1.503625e-11))
545.966289    	((1.030632e-10 -1.099489e-07 -5.399824e-08) (3.549813e-11 -1.907052e-07 -2.578083e-08)) ((1.018380e-12 1.058074e-13 4.880510e-14) (-7.026545e-09 -1.755014e-12 -1.508659e-11))
655.171547    	((1.077773e-10 -1.094207e-07 -5.281095e-08) (3.729971e-11 -1.863470e-07 -2.666141e-08)) ((1.031793e-12 1.100925e-13 4.997116e-14) (-6.870193e-09 -2.014685e-12 -1.493689e-11))
786.217856    	((1.107545e-10 -1.090940e-07 -5.154299e-08) (3.960974e-11 -1.827134e-07 -2.746440e-08)) ((1.042734e-12 1.145831e-13 5.073555e-14) (-6.740185e-09 -2.275120e-12 -1.462987e-11))
939.163877    	((1.122838e-10 -1.088905e-07 -5.025768e-08) (4.243030e-11 -1.797122e-07 -2.817168e-08)) ((1.050952e-12 1.187689e-13 5.114127e-14) (-6.633018e-09 -2.515077e-12 -1.420953e-11))
1114.029666   	((1.117369e-10 -1.087205e-07 -4.902200e-08) (4.542173e-11 -1.772379e-07 -2.878053e-08)) ((1.056221e-12 1.224886e-13 5.135217e-14) (-6.544882e-09 -2.706202e-12 -1.370231e-11))
1310.837691   	((1.093750e-10 -1.085695e-07 -4.785875e-08) (4.835589e-11 -1.752017e-07 -2.929589e-08)) ((1.059155e-12 1.260117e-13 5.140507e-14) (-6.472650e-09 -2.846121e-12 -1.313796e-11))
1529.611212   	((1.065253e-10 -1.084303e-07 -4.679341e-08) (5.139099e-11 -1.735242e-07 -2.972953e-08)) ((1.060158e-12 1.293454e-13 5.135503e-14) (-6.413511e-09 -2.949375e-12 -1.254168e-11))
1749.488681   	((1.021599e-10 -1.083340e-07 -4.586527e-08) (5.406808e-11 -1.721529e-07 -3.009135e-08)) ((1.060033e-12 1.322332e-13 5.126072e-14) (-6.365589e-09 -3.012874e-12 -1.192987e-11))
1969.565959   	((9.714554e-11 -1.082359e-07 -4.507004e-08) (5.623632e-11 -1.710238e-07 -3.039533e-08)) ((1.058824e-12 1.347374e-13 5.115166e-14) (-6.326567e-09 -3.032051e-12 -1.131207e-11))
2189.819889   	((9.165500e-11 -1.081578e-07 -4.438861e-08) (5.795828e-11 -1.700975e-07 -3.065034e-08)) ((1.057398e-12 1.369255e-13 5.105723e-14) (-6.294970e-09 -3.010747e-12 -1.069307e-11))
2410.227546   	((8.576115e-11 -1.080855e-07 -4.381865e-08) (5.916583e-11 -1.693335e-07 -3.086603e-08)) ((1.055734e-12 1.387959e-13 5.099994e-14) (-6.269260e-09 -2.956796e-12 -1.008598e-11))
2630.768983   	((7.968412e-11 -1.080266e-07 -4.333272e-08) (5.978291e-11 -1.687035e-07 -3.104869e-08)) ((1.054098e-12 1.403834e-13 5.097067e-14) (-6.248363e-09 -2.876536e-12 -9.504145e-12))
2851.425999   	((7.360477e-11 -1.079748e-07 -4.293016e-08) (5.994812e-11 -1.681819e-07 -3.120406e-08)) ((1.052519e-12 1.416955e-13 5.095310e-14) (-6.231300e-09 -2.773616e-12 -8.949892e-12))
3072.182692   	((6.746194e-11 -1.079315e-07 -4.258748e-08) (5.980643e-11 -1.677497e-07 -3.133631e-08)) ((1.051042e-12 1.428086e-13 5.093814e-14) (-6.217358e-09 -2.652250e-12 -8.422748e-12))
3293.024992   	((6.158900e-11 -1.078937e-07 -4.230759e-08) (5.943779e-11 -1.673903e-07 -3.144921e-08)) ((1.049715e-12 1.437069e-13 5.093049e-14) (-6.205918e-09 -2.518640e-12 -7.922261e-12))
3513.940705   	((5.598507e-11 -1.078620e-07 -4.205618e-08) (5.887903e-11 -1.670913e-07 -3.154561e-08)) ((1.048525e-12 1.445215e-13 5.093822e-14) (-6.196516e-09 -2.378351e-12 -7.451009e-12))
3734.919222   	((5.058803e-11 -1.078347e-07 -4.185245e-08) (5.811891e-11 -1.668417e-07 -3.162804e-08)) ((1.047450e-12 1.451638e-13 5.095348e-14) (-6.188761e-09 -2.234956e-12 -7.011114e-12))
3955.95144    	((4.549103e-11 -1.078118e-07 -4.167764e-08) (5.721494e-11 -1.666331e-07 -3.169852e-08)) ((1.046506e-12 1.456923e-13 5.096778e-14) (-6.182352e-09 -2.091376e-12 -6.603158e-12))
4177.029546   	((4.069527e-11 -1.077922e-07 -4.153208e-08) (5.624168e-11 -1.664585e-07 -3.175875e-08)) ((1.045687e-12 1.461227e-13 5.097987e-14) (-6.177041e-09 -1.949174e-12 -6.225025e-12))
4398.146856   	((3.617320e-11 -1.077757e-07 -4.140222e-08) (5.522432e-11 -1.663121e-07 -3.181020e-08)) ((1.044976e-12 1.465071e-13 5.098882e-14) (-6.172632e-09 -1.810381e-12 -5.876169e-12))
4619.297658   	((3.202840e-11 -1.077616e-07 -4.129600e-08) (5.414784e-11 -1.661893e-07 -3.185414e-08)) ((1.044359e-12 1.468189e-13 5.099668e-14) (-6.168963e-09 -1.676753e-12 -5.558404e-12))
4840.477077   	((2.818247e-11 -1.077496e-07 -4.120529e-08) (5.302589e-11 -1.660861e-07 -3.189165e-08)) ((1.043828e-12 1.470831e-13 5.100399e-14) (-6.165905e-09 -1.549105e-12 -5.270791e-12))
5061.680946   	((2.467993e-11 -1.077396e-07 -4.112907e-08) (5.189998e-11 -1.659992e-07 -3.192364e-08)) ((1.043371e-12 1.473015e-13 5.101049e-14) (-6.163350e-09 -1.428364e-12 -5.010827e-12))
5282.90571    	((2.148519e-11 -1.077310e-07 -4.106393e-08) (5.079216e-11 -1.659261e-07 -3.195092e-08)) ((1.042980e-12 1.474898e-13 5.101660e-14) (-6.161214e-09 -1.314952e-12 -4.776360e-12))
5504.148335   	((1.859578e-11 -1.077238e-07 -4.100925e-08) (4.972625e-11 -1.658646e-07 -3.197416e-08)) ((1.042650e-12 1.476469e-13 5.102332e-14) (-6.159424e-09 -1.209482e-12 -4.565115e-12))
5725.406228   	((1.596680e-11 -1.077176e-07 -4.096256e-08) (4.871649e-11 -1.658126e-07 -3.199395e-08)) ((1.042367e-12 1.477779e-13 5.103079e-14) (-6.157922e-09 -1.111966e-12 -4.374970e-12))
5946.677175   	((1.359703e-11 -1.077125e-07 -4.092281e-08) (4.776634e-11 -1.657688e-07 -3.201079e-08)) ((1.042128e-12 1.478877e-13 5.103718e-14) (-6.156661e-09 -1.022237e-12 -4.204377e-12))
6167.959284   	((1.151178e-11 -1.077081e-07 -4.088896e-08) (4.687475e-11 -1.657318e-07 -3.202512e-08)) ((1.041923e-12 1.479789e-13 5.104341e-14) (-6.155600e-09 -9.400181e-13 -4.051946e-12))
6389.250938   	((9.639797e-12 -1.077043e-07 -4.086017e-08) (4.604321e-11 -1.657005e-07 -3.203730e-08)) ((1.041750e-12 1.480556e-13 5.104958e-14) (-6.154708e-09 -8.650543e-13 -3.916273e-12))
6610.550752   	((7.952437e-12 -1.077012e-07 -4.083568e-08) (4.526988e-11 -1.656741e-07 -3.204764e-08)) ((1.041602e-12 1.481197e-13 5.105508e-14) (-6.153956e-09 -7.969149e-13 -3.795839e-12))
6831.857544   	((6.449784e-12 -1.076985e-07 -4.081499e-08) (4.455387e-11 -1.656518e-07 -3.205643e-08)) ((1.041477e-12 1.481727e-13 5.106009e-14) (-6.153322e-09 -7.352118e-13 -3.689232e-12))
7053.170302   	((5.125516e-12 -1.076961e-07 -4.079757e-08) (4.389409e-11 -1.656329e-07 -3.206389e-08)) ((1.041372e-12 1.482164e-13 5.106466e-14) (-6.152788e-09 -6.795341e-13 -3.595009e-12))
7274.488164   	((3.944250e-12 -1.076942e-07 -4.078274e-08) (4.329178e-11 -1.656169e-07 -3.207022e-08)) ((1.041283e-12 1.482519e-13 5.106876e-14) (-6.152337e-09 -6.294849e-13 -3.511853e-12))
7495.810389   	((2.904616e-12 -1.076926e-07 -4.077010e-08) (4.274420e-11 -1.656034e-07 -3.207559e-08)) ((1.041207e-12 1.482822e-13 5.107260e-14) (-6.151956e-09 -5.846192e-13 -3.438532e-12))
7717.136344   	((1.985170e-12 -1.076911e-07 -4.075941e-08) (4.224827e-11 -1.655919e-07 -3.208015e-08)) ((1.041142e-12 1.483069e-13 5.107611e-14) (-6.151634e-09 -5.444973e-13 -3.374000e-12))
7938.465489   	((1.181473e-12 -1.076900e-07 -4.075046e-08) (4.180241e-11 -1.655822e-07 -3.208402e-08)) ((1.041090e-12 1.483263e-13 5.107899e-14) (-6.151363e-09 -5.087286e-13 -3.317270e-12))
8159.797362   	((4.634273e-13 -1.076890e-07 -4.074288e-08) (4.140141e-11 -1.655740e-07 -3.208730e-08)) ((1.041044e-12 1.483421e-13 5.108171e-14) (-6.151132e-09 -4.769281e-13 -3.267485e-12))
8381.131563   	((-1.466551e-13 -1.076882e-07 -4.073635e-08) (4.104311e-11 -1.655671e-07 -3.209009e-08)) ((1.041004e-12 1.483555e-13 5.108401e-14) (-6.150938e-09 -4.487203e-13 -3.223842e-12))
8602.467758   	((-6.905122e-13 -1.076874e-07 -4.073078e-08) (4.072303e-11 -1.655612e-07 -3.209245e-08)) ((1.040970e-12 1.483664e-13 5.108606e-14) (-6.150773e-09 -4.237468e-13 -3.185637e-12))
8823.805657   	((-1.167165e-12 -1.076868e-07 -4.072591e-08) (4.043868e-11 -1.655562e-07 -3.209445e-08)) ((1.040942e-12 1.483757e-13 5.108784e-14) (-6.150634e-09 -4.016992e-13 -3.152227e-12))
9045.14501    	((-1.582625e-12 -1.076863e-07 -4.072268e-08) (4.018654e-11 -1.655520e-07 -3.209615e-08)) ((1.040918e-12 1.483801e-13 5.108940e-14) (-6.150516e-09 -3.822705e-13 -3.123045e-12))
