# Forces      
# CofR        : (0.000000e+00 0.000000e+00 0.000000e+00)
# Time        forces(pressure viscous)	moments(pressure viscous)
0             	((0.000000e+00 0.000000e+00 0.000000e+00) (-6.260237e-08 1.697280e-10 -6.327715e-03)) ((0.000000e+00 0.000000e+00 0.000000e+00) (-7.196080e-11 -1.255376e-09 3.621360e-14))
0.012         	((-1.954617e-04 -2.339978e-05 -4.868084e+00) (-1.719975e-07 -5.165275e-08 -6.502788e-03)) ((1.811979e-08 -1.280121e-05 -1.216134e-09) (-7.670893e-09 2.195670e-08 -4.952885e-13))
0.0264        	((5.586271e-05 1.957296e-05 5.947007e-01) (-3.918415e-07 -1.124717e-07 -5.628962e-03)) ((-2.064626e-08 8.518351e-07 3.857336e-09) (2.670319e-09 2.757249e-08 4.241391e-10))
0.04368       	((2.489756e-04 2.969919e-04 4.635102e-01) (-4.815785e-07 5.140616e-08 -4.789292e-03)) ((-1.553012e-08 1.015875e-06 2.686400e-09) (2.123850e-08 1.050070e-08 1.107740e-09))
0.064416      	((-8.302173e-06 -9.115809e-06 1.443179e-01) (-1.804368e-07 2.546211e-07 -4.317782e-03)) ((-5.150377e-09 2.400793e-07 2.541027e-09) (1.941097e-08 1.876783e-08 1.022425e-09))
0.0892992     	((2.055827e-05 4.005067e-05 6.773487e-02) (-6.353010e-07 -9.972064e-08 -4.009320e-03)) ((-1.110024e-08 2.850360e-08 1.809754e-08) (3.394117e-09 4.144756e-08 6.717417e-10))
0.119159      	((9.326273e-05 5.808405e-05 3.121196e-02) (-3.884316e-07 1.003117e-07 -3.740054e-03)) ((-1.263944e-08 -8.257375e-08 1.734904e-08) (-1.231088e-08 6.613438e-08 -9.067902e-10))
0.154991      	((7.444755e-05 4.955919e-05 1.049004e-02) (3.076915e-07 4.881713e-07 -3.499966e-03)) ((-1.131527e-08 -1.436805e-07 1.425431e-08) (4.177952e-09 4.256263e-08 -3.782193e-09))
0.197989      	((-2.068645e-05 9.017485e-06 -1.913592e-03) (4.194413e-07 2.902147e-07 -3.288308e-03)) ((-7.494719e-09 -1.820160e-07 1.110200e-08) (2.912567e-08 -2.599343e-08 -5.558113e-09))
0.249587      	((-2.173197e-05 1.322913e-05 -9.259082e-03) (-6.233729e-07 1.404253e-07 -3.100721e-03)) ((-3.554781e-09 -2.066172e-07 1.442008e-09) (2.517579e-08 -7.473291e-08 -6.891269e-09))
0.311504      	((-2.967406e-05 1.646510e-05 -1.364956e-02) (-5.300492e-07 9.160166e-07 -2.934190e-03)) ((-4.267714e-09 -2.206227e-07 -3.004525e-09) (2.537428e-08 -9.252592e-08 -5.556395e-09))
0.385805      	((-2.160958e-05 5.038710e-06 -1.614331e-02) (3.543234e-07 1.355691e-06 -2.785508e-03)) ((-5.065895e-09 -2.207278e-07 -3.495245e-09) (4.075431e-08 -1.144380e-07 -2.801124e-09))
0.474966      	((-3.179230e-05 -3.135498e-06 -1.755092e-02) (4.491052e-07 9.691290e-07 -2.652174e-03)) ((-4.815664e-09 -2.186162e-07 -2.961242e-09) (3.960094e-08 -1.427721e-07 -1.640519e-10))
0.581959      	((-2.905590e-05 -1.393799e-05 -1.841734e-02) (1.255167e-06 7.925571e-07 -2.534666e-03)) ((-4.596115e-09 -2.172393e-07 -2.513362e-09) (4.487964e-08 -1.540532e-07 4.891075e-10))
0.710351      	((-3.273359e-05 -1.876078e-05 -1.906254e-02) (1.705430e-06 6.996724e-07 -2.431826e-03)) ((-4.960809e-09 -2.141614e-07 -2.161226e-09) (5.947693e-08 -1.628183e-07 -4.221443e-10))
0.864317      	((-3.832770e-05 -2.224889e-05 -1.962859e-02) (1.495194e-06 6.253965e-07 -2.346478e-03)) ((-4.702296e-09 -2.095806e-07 -2.426993e-09) (6.525516e-08 -1.629956e-07 -1.269023e-09))
1.04408       	((-4.835051e-05 -2.888467e-05 -1.987826e-02) (1.153989e-06 5.383076e-07 -2.280851e-03)) ((-4.357837e-09 -2.058178e-07 -1.265310e-09) (6.445496e-08 -1.447197e-07 -1.579854e-09))
1.249872      	((-6.053864e-05 -3.692682e-05 -2.025628e-02) (9.382150e-07 4.091335e-07 -2.231292e-03)) ((-3.957033e-09 -2.022627e-07 -1.088031e-09) (5.752825e-08 -1.200027e-07 -2.280217e-09))
1.481911      	((-7.753899e-05 -4.739263e-05 -2.054944e-02) (6.771809e-07 3.103623e-07 -2.195366e-03)) ((-3.567580e-09 -1.992871e-07 -9.435749e-10) (4.573865e-08 -8.614464e-08 -3.407118e-09))
1.740376      	((-1.067702e-04 -6.419402e-05 -2.017742e-02) (-4.463540e-08 1.167198e-07 -2.168972e-03)) ((-2.837548e-09 -1.957986e-07 -2.267617e-10) (2.765137e-08 -4.604657e-08 -4.371700e-09))
2.006551      	((-1.273017e-04 -7.550773e-05 -1.955045e-02) (-1.001189e-06 -2.478644e-07 -2.150960e-03)) ((-2.452410e-09 -1.920650e-07 -4.150788e-10) (1.411111e-08 -1.343972e-08 -4.174402e-09))
2.274388      	((-1.478556e-04 -8.708915e-05 -1.886446e-02) (-1.929805e-06 -5.848534e-07 -2.138937e-03)) ((-1.996982e-09 -1.893828e-07 -5.752775e-10) (1.278734e-09 1.651014e-08 -2.910176e-09))
2.543632      	((-1.661353e-04 -9.963847e-05 -1.843889e-02) (-2.621515e-06 -8.182624e-07 -2.131368e-03)) ((-1.660391e-09 -1.876262e-07 -8.183212e-10) (-4.640182e-09 3.653146e-08 -1.804872e-09))
2.813882      	((-1.844067e-04 -1.117142e-04 -1.830955e-02) (-3.104772e-06 -1.005973e-06 -2.128792e-03)) ((-1.098466e-09 -1.870423e-07 -1.214865e-09) (-3.970987e-09 4.782793e-08 -9.745141e-10))
3.084828      	((-2.128522e-04 -1.305650e-04 -1.831024e-02) (-3.477609e-06 -1.203024e-06 -2.130247e-03)) ((-6.575517e-10 -1.869934e-07 -1.687925e-09) (-3.176880e-09 5.388903e-08 -5.429291e-10))
3.356146      	((-2.485964e-04 -1.553639e-04 -1.824656e-02) (-3.979987e-06 -1.544175e-06 -2.133866e-03)) ((-2.969069e-10 -1.870805e-07 -1.888090e-09) (-6.329536e-09 6.136668e-08 -4.989231e-10))
3.627648      	((-2.858202e-04 -1.831575e-04 -1.809954e-02) (-4.491701e-06 -1.950206e-06 -2.138188e-03)) ((2.145586e-10 -1.876836e-07 -1.540738e-09) (-1.008655e-08 6.757633e-08 -7.682809e-10))
3.899187      	((-3.201662e-04 -2.079510e-04 -1.797127e-02) (-4.879439e-06 -2.301162e-06 -2.141846e-03)) ((8.039727e-10 -1.887081e-07 -1.042516e-09) (-1.058908e-08 6.720126e-08 -1.485635e-09))
4.170752      	((-3.578871e-04 -2.355473e-04 -1.787540e-02) (-5.197290e-06 -2.640866e-06 -2.144090e-03)) ((1.450664e-09 -1.897895e-07 -2.419340e-10) (-1.051966e-08 6.333781e-08 -2.489551e-09))
4.442294      	((-3.986122e-04 -2.649015e-04 -1.779865e-02) (-5.464114e-06 -2.969682e-06 -2.145267e-03)) ((2.216038e-09 -1.910589e-07 3.778115e-10) (-1.106365e-08 5.669835e-08 -3.429942e-09))
4.71375       	((-4.414653e-04 -2.950413e-04 -1.774838e-02) (-5.751514e-06 -3.306821e-06 -2.146017e-03)) ((2.989698e-09 -1.922510e-07 3.914160e-10) (-1.341847e-08 5.165627e-08 -4.144745e-09))
4.985167      	((-4.884857e-04 -3.272169e-04 -1.771339e-02) (-6.151086e-06 -3.713178e-06 -2.146604e-03)) ((3.556462e-09 -1.932969e-07 -2.734609e-10) (-1.959623e-08 5.235458e-08 -4.371548e-09))
5.256545      	((-5.371644e-04 -3.606010e-04 -1.768912e-02) (-6.697498e-06 -4.172361e-06 -2.147157e-03)) ((3.856158e-09 -1.940916e-07 -1.100645e-09) (-3.033807e-08 5.925252e-08 -4.250376e-09))
5.527979      	((-5.890699e-04 -3.938876e-04 -1.766849e-02) (-7.365681e-06 -4.724355e-06 -2.147787e-03)) ((4.157789e-09 -1.947050e-07 -2.152393e-09) (-4.390459e-08 7.046539e-08 -4.114132e-09))
5.799463      	((-6.447203e-04 -4.285430e-04 -1.765139e-02) (-8.138285e-06 -5.340636e-06 -2.148526e-03)) ((4.637417e-09 -1.953373e-07 -2.414287e-09) (-5.840738e-08 8.407285e-08 -4.278415e-09))
