# Forces      
# CofR        : (0.000000e+00 0.000000e+00 0.000000e+00)
# Time        forces(pressure viscous)	moments(pressure viscous)
0             	((0.000000e+00 0.000000e+00 0.000000e+00) (-1.874431e-08 5.494525e-11 -2.001012e-03)) ((0.000000e+00 0.000000e+00 0.000000e+00) (-2.289552e-11 5.737022e-11 5.447315e-14))
0.012         	((-9.078523e-05 -3.664512e-05 -1.533056e+00) (-8.166508e-08 -3.663105e-08 -1.941145e-03)) ((7.382052e-09 -3.994991e-06 -2.628828e-10) (-3.240227e-09 7.018041e-09 -2.049294e-12))
0.0264        	((4.131746e-05 8.392291e-06 1.380974e-01) (-6.760816e-08 -5.015778e-08 -1.782947e-03)) ((-2.126330e-09 2.636358e-07 1.768126e-09) (-2.368993e-09 6.569337e-09 1.637511e-10))
0.04368       	((3.546518e-05 8.845531e-05 1.765516e-01) (5.453665e-08 3.169563e-09 -1.567661e-03)) ((-6.521132e-09 3.851017e-07 -8.003801e-09) (7.452419e-09 -2.857332e-09 -3.982602e-11))
0.064416      	((3.781771e-05 4.243851e-06 4.002593e-02) (7.136698e-08 1.510249e-08 -1.401893e-03)) ((-1.598282e-09 1.216063e-07 5.941437e-10) (1.432051e-08 -1.268630e-08 -3.962093e-10))
0.0892992     	((5.008513e-06 9.750394e-06 2.299265e-02) (-2.623829e-08 5.529238e-08 -1.299125e-03)) ((-5.374014e-10 5.944006e-08 -2.082619e-09) (1.441638e-08 -1.557377e-08 -4.652533e-10))
0.119159      	((9.172531e-06 5.865872e-06 1.480424e-02) (1.030494e-07 1.373035e-07 -1.210697e-03)) ((-5.342951e-10 2.824234e-08 -2.094606e-10) (1.482266e-08 -1.385588e-08 -2.501289e-10))
0.154991      	((4.950693e-06 -5.643878e-08 8.527568e-03) (1.444945e-07 1.686068e-07 -1.125384e-03)) ((-3.720808e-10 8.037813e-09 -4.297644e-10) (1.444937e-08 -1.045946e-08 1.429011e-10))
0.197989      	((-5.844981e-06 6.156109e-07 4.815059e-03) (-2.164795e-08 1.409683e-07 -1.044493e-03)) ((-6.607192e-10 -2.402178e-09 2.513047e-10) (1.326509e-08 -7.008726e-09 3.914790e-10))
0.249587      	((2.836601e-06 1.911340e-06 2.487093e-03) (-6.070360e-08 8.265340e-08 -9.689864e-04)) ((-6.081487e-10 -9.911481e-09 9.433499e-11) (1.267123e-08 -4.553919e-09 6.394282e-10))
0.311504      	((3.160583e-06 2.296485e-06 9.498308e-04) (-2.844461e-08 2.695133e-08 -8.983040e-04)) ((-5.368435e-10 -1.425541e-08 5.324215e-10) (1.259579e-08 -3.234584e-09 6.605452e-10))
0.385805      	((2.720156e-06 8.631239e-07 -5.739175e-05) (-1.171286e-08 3.200448e-08 -8.320701e-04)) ((-6.241812e-10 -1.683516e-08 2.434699e-10) (1.311431e-08 -3.526085e-09 5.008776e-10))
0.474966      	((1.902658e-06 -4.463704e-07 -7.431367e-04) (1.584285e-08 6.946390e-08 -7.701450e-04)) ((-6.441611e-10 -1.834470e-08 7.342359e-11) (1.456537e-08 -4.878802e-09 4.064447e-10))
0.581959      	((7.370245e-07 -1.157815e-06 -1.208215e-03) (3.676808e-08 1.005811e-07 -7.121036e-04)) ((-5.962994e-10 -1.921984e-08 1.098416e-10) (1.639675e-08 -6.165227e-09 2.943610e-10))
0.710351      	((-1.271288e-07 -1.611226e-06 -1.515546e-03) (2.983096e-08 1.330574e-07 -6.582011e-04)) ((-4.043264e-10 -1.968976e-08 5.157200e-11) (1.684447e-08 -6.623221e-09 7.139906e-11))
0.864421      	((-1.599906e-06 -1.848266e-06 -1.728415e-03) (1.408859e-08 1.227761e-07 -6.094446e-04)) ((-3.415094e-10 -1.968831e-08 3.236663e-11) (1.565658e-08 -6.939169e-09 -7.770936e-11))
1.049306      	((-2.244367e-06 -2.368117e-06 -1.881521e-03) (-2.267813e-08 7.477008e-08 -5.662043e-04)) ((-3.781715e-10 -1.931463e-08 7.088226e-11) (1.431067e-08 -6.543894e-09 -8.427307e-11))
1.271167      	((-3.171241e-06 -2.622215e-06 -1.996147e-03) (-5.632278e-08 6.302797e-08 -5.286921e-04)) ((-3.485113e-10 -1.878891e-08 6.369658e-11) (1.375097e-08 -5.954798e-09 -2.336531e-10))
1.5374        	((-4.386267e-06 -3.112005e-06 -2.089355e-03) (-7.169918e-09 7.434535e-08 -4.966336e-04)) ((-2.891564e-10 -1.829541e-08 3.189418e-11) (1.368113e-08 -7.360380e-09 -3.007111e-10))
1.85688       	((-4.503100e-06 -3.430118e-06 -2.184314e-03) (3.403470e-08 5.778926e-08 -4.703878e-04)) ((-2.432663e-10 -1.776971e-08 3.857997e-11) (1.224714e-08 -7.591015e-09 -2.829363e-10))
2.240256      	((-4.339727e-06 -3.466255e-06 -2.275767e-03) (2.337337e-08 3.236089e-08 -4.501562e-04)) ((-2.020719e-10 -1.723790e-08 -1.957317e-11) (1.077745e-08 -6.935066e-09 -2.146853e-10))
2.700307      	((-4.406268e-06 -3.468806e-06 -2.332105e-03) (9.328231e-08 2.127116e-08 -4.346687e-04)) ((-1.656887e-10 -1.664898e-08 -3.679134e-11) (1.044184e-08 -6.223405e-09 -5.664669e-11))
3.252117      	((-4.888587e-06 -4.295050e-06 -2.390818e-03) (2.178048e-07 -2.642836e-08 -4.233025e-04)) ((-1.351336e-10 -1.609152e-08 -4.653676e-11) (8.703419e-09 -3.789734e-09 1.148198e-10))
3.89573       	((-6.404424e-06 -5.386743e-06 -2.446272e-03) (1.556432e-07 -6.347349e-08 -4.165384e-04)) ((-1.136726e-10 -1.554143e-08 -4.351926e-11) (6.718126e-09 -9.982491e-10 1.371644e-10))
4.631124      	((-8.097751e-06 -6.826618e-06 -2.423298e-03) (8.908963e-09 -9.107749e-08 -4.132408e-04)) ((-5.380478e-11 -1.500629e-08 -3.552658e-11) (4.343889e-09 2.518230e-09 1.446227e-10))
5.458343      	((-1.048242e-05 -8.764927e-06 -2.321698e-03) (-2.083592e-07 -1.480081e-07 -4.113430e-04)) ((-2.753498e-12 -1.443980e-08 1.251319e-11) (1.250007e-09 7.205695e-09 8.953172e-11))
6.377325      	((-1.306002e-05 -1.093037e-05 -2.240002e-03) (-4.386490e-07 -1.915827e-07 -4.106628e-04)) ((6.075064e-11 -1.397443e-08 4.564345e-11) (-1.405664e-09 1.066286e-08 -7.779320e-11))
7.297381      	((-1.545216e-05 -1.317604e-05 -2.210228e-03) (-5.710658e-07 -2.819638e-07 -4.111605e-04)) ((1.109226e-10 -1.377091e-08 5.489397e-11) (-3.603484e-09 1.318107e-08 -1.790757e-10))
8.21876       	((-1.890909e-05 -1.656730e-05 -2.219321e-03) (-6.949508e-07 -4.220546e-07 -4.124567e-04)) ((1.119754e-10 -1.373879e-08 5.008825e-11) (-6.765894e-09 1.616312e-08 -1.082081e-10))
9.14074       	((-2.300199e-05 -2.021721e-05 -2.222217e-03) (-8.460469e-07 -5.732932e-07 -4.142580e-04)) ((1.071261e-10 -1.381868e-08 3.531888e-11) (-1.080816e-08 1.991020e-08 6.122530e-12))
10.062942     	((-2.641342e-05 -2.314046e-05 -2.170347e-03) (-1.037848e-06 -7.607619e-07 -4.152265e-04)) ((1.300322e-10 -1.384099e-08 -4.076552e-12) (-1.622584e-08 2.557702e-08 4.913480e-11))
10.98524      	((-2.944115e-05 -2.570434e-05 -2.113210e-03) (-1.216615e-06 -9.335527e-07 -4.150808e-04)) ((1.381626e-10 -1.381654e-08 -1.963672e-11) (-2.118125e-08 3.092592e-08 4.015342e-11))
11.907486     	((-3.246081e-05 -2.824422e-05 -2.073526e-03) (-1.364413e-06 -1.071058e-06 -4.146379e-04)) ((1.781684e-10 -1.380117e-08 -2.181546e-11) (-2.464404e-08 3.454064e-08 3.900360e-11))
12.829636     	((-3.571337e-05 -3.099276e-05 -2.048132e-03) (-1.489877e-06 -1.181097e-06 -4.142220e-04)) ((2.263394e-10 -1.379766e-08 -2.246760e-11) (-2.690771e-08 3.691538e-08 2.997513e-11))
13.751746     	((-3.962449e-05 -3.445963e-05 -2.027661e-03) (-1.618596e-06 -1.287458e-06 -4.138533e-04)) ((2.921000e-10 -1.379749e-08 -1.923182e-11) (-2.857230e-08 3.889679e-08 1.406169e-11))
14.673879     	((-4.393221e-05 -3.834750e-05 -2.016063e-03) (-1.763284e-06 -1.404609e-06 -4.135742e-04)) ((3.653953e-10 -1.381694e-08 -1.719472e-11) (-3.013674e-08 4.081041e-08 1.716736e-11))
15.596065     	((-4.841940e-05 -4.232455e-05 -2.009546e-03) (-1.911953e-06 -1.520882e-06 -4.134226e-04)) ((4.368640e-10 -1.383993e-08 -7.940712e-12) (-3.130746e-08 4.229044e-08 2.503880e-11))
16.51832      	((-5.285415e-05 -4.628488e-05 -2.004943e-03) (-2.064496e-06 -1.639221e-06 -4.134022e-04)) ((5.027094e-10 -1.387702e-08 3.062879e-12) (-3.236226e-08 4.374966e-08 1.867861e-11))
17.440651     	((-5.751299e-05 -5.045184e-05 -1.999985e-03) (-2.233908e-06 -1.776202e-06 -4.134660e-04)) ((5.642501e-10 -1.392081e-08 1.286994e-11) (-3.422340e-08 4.616097e-08 -2.876018e-11))
18.363022     	((-6.238350e-05 -5.471501e-05 -1.992922e-03) (-2.430279e-06 -1.941254e-06 -4.135397e-04)) ((6.190584e-10 -1.397372e-08 1.807599e-11) (-3.730300e-08 4.980670e-08 -8.675663e-11))
