# Forces      
# CofR        : (0.000000e+00 0.000000e+00 0.000000e+00)
# Time        forces(pressure viscous)	moments(pressure viscous)
0             	((0.000000e+00 0.000000e+00 0.000000e+00) (0.000000e+00 0.000000e+00 0.000000e+00)) ((0.000000e+00 0.000000e+00 0.000000e+00) (0.000000e+00 0.000000e+00 0.000000e+00))
0.012         	((8.433845e-11 -1.905324e-08 2.459228e-10) (2.480717e-12 -2.135838e-10 1.071717e-12)) ((1.372594e-12 6.815821e-15 2.625073e-10) (-4.076977e-12 -1.092213e-13 5.332242e-07))
0.0264        	((-6.990102e-11 6.901582e-09 -6.202091e-10) (3.008463e-12 -2.279323e-10 1.054343e-12)) ((3.227568e-12 -1.826114e-14 7.906853e-11) (-7.243810e-12 -1.021433e-13 4.667051e-07))
0.04368       	((3.511545e-10 -3.496669e-09 1.463229e-10) (3.505881e-12 -1.488616e-10 1.997353e-12)) ((-1.473595e-12 1.177438e-14 4.170472e-11) (-6.078904e-12 -1.327564e-13 4.036485e-07))
0.064416      	((2.818899e-10 -3.131619e-10 -4.794014e-10) (2.528192e-12 -7.889732e-11 2.318670e-12)) ((4.258531e-13 1.284864e-14 2.822093e-11) (-3.033549e-12 -1.252474e-13 3.457950e-07))
0.0892992     	((3.816431e-10 -1.706460e-09 -4.199939e-10) (1.545406e-12 -4.939083e-11 2.634800e-12)) ((-4.470850e-13 4.897616e-14 2.283964e-11) (-1.433000e-12 -8.903097e-14 2.946828e-07))
0.119159      	((2.293979e-10 -1.673658e-10 -6.437367e-10) (2.549487e-12 -4.287974e-11 8.952009e-12)) ((-2.696182e-13 5.147003e-14 1.822936e-11) (5.401985e-13 -1.768137e-13 2.509969e-07))
0.154991      	((3.250361e-10 -1.454144e-09 -8.632770e-10) (1.551271e-12 -3.201519e-11 2.541882e-11)) ((-2.628633e-13 5.507595e-14 1.459325e-11) (2.014739e-12 -2.030341e-13 2.149926e-07))
0.197989      	((1.923488e-10 -1.121275e-09 -9.889689e-10) (-4.294543e-12 -1.848559e-11 6.196345e-11)) ((-2.147010e-13 4.611667e-14 1.148175e-11) (2.865623e-12 -5.487816e-14 1.860307e-07))
0.249587      	((4.139124e-10 -1.344172e-09 -1.167445e-09) (-9.851325e-12 -7.255186e-12 1.153431e-10)) ((-2.169989e-13 5.852323e-14 9.542965e-12) (2.526360e-12 2.539845e-13 1.629394e-07))
0.311504      	((5.382796e-10 -1.578672e-09 -1.203677e-09) (-1.239709e-11 3.367406e-12 1.789665e-10)) ((-1.641512e-13 3.703790e-14 8.478944e-12) (1.966851e-12 4.143997e-13 1.443320e-07))
0.385805      	((6.959088e-10 -2.049967e-09 -1.423098e-09) (-1.289735e-11 1.170992e-12 2.509103e-10)) ((-1.093456e-13 3.729506e-14 7.418982e-12) (1.416048e-12 3.936483e-13 1.289653e-07))
0.474966      	((7.537029e-10 -2.548352e-09 -1.458752e-09) (-1.630137e-11 -7.890218e-13 3.292281e-10)) ((2.435695e-14 -8.077264e-15 6.506020e-12) (2.764773e-13 6.398455e-13 1.159150e-07))
0.581959      	((1.105155e-09 -3.122087e-09 -1.527623e-09) (-2.706048e-11 -1.332705e-11 4.183194e-10)) ((9.415420e-14 2.674757e-14 6.031066e-12) (-1.953637e-12 9.976798e-13 1.045687e-07))
0.710351      	((1.401412e-09 -3.054593e-09 -1.727012e-09) (-3.766644e-11 -4.132455e-11 5.299620e-10)) ((1.446449e-13 3.013657e-14 5.730351e-12) (-3.582681e-12 1.555085e-12 9.454030e-08))
0.864421      	((1.556069e-09 -2.450153e-09 -2.027378e-09) (-5.325110e-11 -1.826750e-11 6.434718e-10)) ((2.358195e-13 3.048392e-14 5.437245e-12) (-2.876197e-12 2.274230e-12 8.558439e-08))
1.049306      	((1.778832e-09 -2.222131e-09 -2.420105e-09) (-8.668277e-11 5.568731e-11 7.816059e-10)) ((3.056344e-13 1.884714e-14 5.139933e-12) (-6.735110e-13 2.916459e-12 7.754990e-08))
1.271167      	((1.518222e-09 -1.948210e-09 -2.769068e-09) (-1.565377e-10 1.399143e-10 9.517444e-10)) ((3.767010e-13 3.638180e-14 4.911615e-12) (1.488673e-12 4.546869e-12 7.036067e-08))
1.5374        	((1.035774e-09 -2.073316e-09 -3.119215e-09) (-2.689749e-10 2.323318e-10 1.128892e-09)) ((3.516117e-13 3.183013e-14 4.723262e-12) (3.608631e-12 7.140246e-12 6.398083e-08))
1.85688       	((7.117034e-10 -1.844497e-09 -3.488173e-09) (-4.022743e-10 3.086416e-10 1.297152e-09)) ((3.260044e-13 4.253542e-14 4.498722e-12) (6.196145e-12 1.015767e-11 5.837487e-08))
2.240256      	((3.587267e-10 -1.522436e-09 -4.074906e-09) (-5.392571e-10 3.855305e-10 1.480830e-09)) ((3.592030e-13 5.501583e-14 4.237125e-12) (9.270583e-12 1.350141e-11 5.348398e-08))
2.700307      	((1.825518e-10 -1.164039e-09 -4.636008e-09) (-6.729958e-10 5.023070e-10 1.698218e-09)) ((3.466974e-13 1.774421e-14 3.991377e-12) (1.329745e-11 1.726660e-11 4.922305e-08))
3.252369      	((-1.286830e-10 -5.795013e-10 -5.094114e-09) (-7.916652e-10 6.357761e-10 1.936742e-09)) ((2.879474e-13 -3.010398e-14 3.716527e-12) (1.719990e-11 2.165143e-11 4.548951e-08))
3.914842      	((-2.312689e-10 -1.355787e-10 -5.632632e-09) (-8.584620e-10 7.731191e-10 2.190886e-09)) ((2.154707e-13 -4.628021e-14 3.454816e-12) (2.014215e-11 2.448194e-11 4.218072e-08))
4.709811      	((-3.184128e-10 1.030806e-10 -6.339096e-09) (-8.852023e-10 8.514270e-10 2.501083e-09)) ((1.832019e-13 -4.475999e-14 3.212306e-12) (2.073245e-11 2.564491e-11 3.921106e-08))
5.663773      	((-4.352949e-10 2.109082e-10 -6.975527e-09) (-8.646813e-10 8.472253e-10 2.849686e-09)) ((1.595835e-13 -6.814671e-14 2.974436e-12) (1.980196e-11 2.549023e-11 3.651789e-08))
6.808528      	((-3.928975e-10 1.282548e-10 -7.849161e-09) (-7.869588e-10 7.697666e-10 3.206268e-09)) ((1.350585e-13 -6.644803e-14 2.764775e-12) (1.752653e-11 2.401246e-11 3.405504e-08))
8.182233      	((-9.748274e-11 1.682321e-10 -8.528183e-09) (-6.776462e-10 6.571554e-10 3.600132e-09)) ((9.858091e-14 -8.516225e-14 2.557276e-12) (1.532131e-11 2.150676e-11 3.178894e-08))
9.83068       	((-2.352386e-10 -1.820020e-10 -9.488931e-09) (-5.514837e-10 5.270874e-10 4.014320e-09)) ((8.183811e-14 -1.209074e-13 2.366421e-12) (1.261940e-11 1.839063e-11 2.970195e-08))
11.808816     	((7.357107e-11 -3.792900e-10 -1.030263e-08) (-4.189843e-10 4.037302e-10 4.447326e-09)) ((5.205764e-14 -1.300251e-13 2.192865e-12) (8.486056e-12 1.433463e-11 2.778118e-08))
14.182579     	((1.396081e-10 -2.689097e-10 -1.125949e-08) (-3.090958e-10 3.073456e-10 4.916893e-09)) ((-1.145866e-14 -1.345280e-13 2.024186e-12) (5.278863e-12 1.108873e-11 2.601587e-08))
17.031095     	((1.982650e-10 -2.023493e-10 -1.229763e-08) (-2.277352e-10 2.315265e-10 5.402677e-09)) ((-4.782233e-14 -1.357889e-13 1.876221e-12) (3.757381e-12 9.012867e-12 2.439830e-08))
20.449314     	((2.473512e-10 -2.953581e-10 -1.340169e-08) (-1.797041e-10 1.905885e-10 5.912381e-09)) ((-6.884802e-14 -1.330154e-13 1.740813e-12) (3.317449e-12 7.668698e-12 2.292128e-08))
24.551176     	((1.993297e-10 -2.076438e-10 -1.456178e-08) (-1.592055e-10 1.905379e-10 6.429719e-09)) ((-9.005472e-14 -1.303646e-13 1.619894e-12) (4.375453e-12 6.891082e-12 2.157459e-08))
29.473411     	((1.090669e-10 -2.444427e-10 -1.588287e-08) (-1.674943e-10 2.136190e-10 6.976795e-09)) ((-9.465693e-14 -1.373546e-13 1.516095e-12) (5.804588e-12 6.888248e-12 2.034595e-08))
35.380094     	((9.582194e-11 -1.921135e-10 -1.753709e-08) (-1.916893e-10 2.575121e-10 7.564145e-09)) ((-9.976641e-14 -1.429698e-13 1.422570e-12) (7.503917e-12 7.417051e-12 1.922467e-08))
42.468112     	((4.480953e-11 -1.952109e-10 -1.923121e-08) (-2.203832e-10 3.051211e-10 8.239065e-09)) ((-1.031577e-13 -1.508472e-13 1.336927e-12) (9.078617e-12 8.076921e-12 1.820131e-08))
50.973735     	((3.416934e-11 -1.854921e-10 -2.079963e-08) (-2.527774e-10 3.458675e-10 9.019361e-09)) ((-1.061496e-13 -1.596730e-13 1.258358e-12) (1.027367e-11 8.933025e-12 1.726740e-08))
61.180482     	((-2.989556e-11 -1.799043e-10 -2.227621e-08) (-2.897742e-10 3.786366e-10 9.886847e-09)) ((-1.036822e-13 -1.699664e-13 1.184716e-12) (1.102175e-11 9.954416e-12 1.641503e-08))
73.428578     	((-8.962221e-11 -2.007710e-10 -2.378188e-08) (-3.271481e-10 3.974906e-10 1.081669e-08)) ((-9.742022e-14 -1.759605e-13 1.117910e-12) (1.102615e-11 1.101239e-11 1.563735e-08))
88.126294     	((-1.313565e-10 -2.140484e-10 -2.522925e-08) (-3.626789e-10 4.006488e-10 1.178433e-08)) ((-9.214382e-14 -1.804725e-13 1.058752e-12) (1.032274e-11 1.200494e-11 1.492856e-08))
105.763553    	((-1.550848e-10 -1.593739e-10 -2.670167e-08) (-3.967256e-10 3.956449e-10 1.277502e-08)) ((-9.348596e-14 -1.848066e-13 1.004678e-12) (9.584035e-12 1.294484e-11 1.428334e-08))
126.928263    	((-1.607128e-10 -1.157674e-10 -2.818478e-08) (-4.190832e-10 3.876052e-10 1.380245e-08)) ((-9.674007e-14 -1.866468e-13 9.562253e-13) (9.187405e-12 1.338152e-11 1.369659e-08))
152.325916    	((-1.503531e-10 -7.465254e-11 -2.967939e-08) (-4.316106e-10 3.783929e-10 1.487692e-08)) ((-1.009036e-13 -1.861672e-13 9.120388e-13) (9.114488e-12 1.331259e-11 1.316295e-08))
182.803099    	((-1.559790e-10 -8.268053e-11 -3.111314e-08) (-4.381687e-10 3.675375e-10 1.597720e-08)) ((-1.005271e-13 -1.852317e-13 8.705746e-13) (8.974934e-12 1.302221e-11 1.267754e-08))
219.375719    	((-1.833345e-10 -9.773728e-11 -3.248664e-08) (-4.430571e-10 3.512213e-10 1.707459e-08)) ((-1.006013e-13 -1.863235e-13 8.335653e-13) (8.503816e-12 1.283477e-11 1.223621e-08))
263.262863    	((-2.086257e-10 -1.158188e-10 -3.383408e-08) (-4.454882e-10 3.322956e-10 1.816344e-08)) ((-1.014085e-13 -1.877165e-13 7.999567e-13) (7.694620e-12 1.273687e-11 1.183476e-08))
315.927436    	((-2.280634e-10 -1.179203e-10 -3.513699e-08) (-4.444982e-10 3.102304e-10 1.925686e-08)) ((-1.044857e-13 -1.888558e-13 7.691845e-13) (6.727812e-12 1.261727e-11 1.146964e-08))
379.124923    	((-2.344329e-10 -1.313285e-10 -3.640610e-08) (-4.390081e-10 2.864438e-10 2.035719e-08)) ((-1.068298e-13 -1.908462e-13 7.411687e-13) (5.832344e-12 1.243896e-11 1.113810e-08))
454.961908    	((-2.123284e-10 -1.354868e-10 -3.759590e-08) (-4.277367e-10 2.633372e-10 2.147473e-08)) ((-1.088654e-13 -1.922813e-13 7.142323e-13) (5.003118e-12 1.216021e-11 1.083751e-08))
545.966289    	((-1.915563e-10 -1.417570e-10 -3.872817e-08) (-4.135630e-10 2.393018e-10 2.260898e-08)) ((-1.086531e-13 -1.961362e-13 6.896744e-13) (4.241458e-12 1.172260e-11 1.056557e-08))
653.114048    	((-1.746520e-10 -1.429167e-10 -3.979521e-08) (-3.941865e-10 2.146396e-10 2.374716e-08)) ((-1.071069e-13 -2.027742e-13 6.680169e-13) (3.559711e-12 1.107634e-11 1.032085e-08))
776.404098    	((-1.576176e-10 -1.410939e-10 -4.076681e-08) (-3.710326e-10 1.933383e-10 2.487657e-08)) ((-1.040474e-13 -2.080398e-13 6.487322e-13) (3.008213e-12 1.023227e-11 1.010180e-08))
915.835488    	((-1.439370e-10 -1.392144e-10 -4.164535e-08) (-3.439973e-10 1.731694e-10 2.598192e-08)) ((-1.007894e-13 -2.135103e-13 6.315881e-13) (2.565330e-12 9.289240e-12 9.906698e-09))
1071.407529   	((-1.306306e-10 -1.323634e-10 -4.243026e-08) (-3.165761e-10 1.541890e-10 2.705478e-08)) ((-9.909018e-14 -2.189459e-13 6.161788e-13) (2.209170e-12 8.367199e-12 9.733451e-09))
1232.807383   	((-1.221667e-10 -1.307593e-10 -4.313892e-08) (-2.904094e-10 1.382725e-10 2.808157e-08)) ((-9.758387e-14 -2.246626e-13 6.019193e-13) (1.917771e-12 7.498153e-12 9.580512e-09))
1394.203845   	((-1.175230e-10 -1.311735e-10 -4.375700e-08) (-2.654228e-10 1.252487e-10 2.905222e-08)) ((-9.648687e-14 -2.304581e-13 5.891594e-13) (1.692100e-12 6.753129e-12 9.445828e-09))
1555.599094   	((-1.164328e-10 -1.320939e-10 -4.429404e-08) (-2.414284e-10 1.153057e-10 2.996014e-08)) ((-9.543648e-14 -2.360802e-13 5.786816e-13) (1.570565e-12 6.132803e-12 9.327330e-09))
1716.995938   	((-1.181879e-10 -1.316820e-10 -4.476306e-08) (-2.215848e-10 1.081414e-10 3.080440e-08)) ((-9.480695e-14 -2.408391e-13 5.694198e-13) (1.512673e-12 5.626127e-12 9.222862e-09))
1878.396165   	((-1.211722e-10 -1.326614e-10 -4.518036e-08) (-2.053160e-10 1.035713e-10 3.158626e-08)) ((-9.390088e-14 -2.434597e-13 5.612061e-13) (1.524711e-12 5.179133e-12 9.130500e-09))
2039.803904   	((-1.247966e-10 -1.382377e-10 -4.555396e-08) (-1.917224e-10 1.002199e-10 3.231218e-08)) ((-9.224850e-14 -2.454879e-13 5.538313e-13) (1.569317e-12 4.795618e-12 9.048538e-09))
2201.218844   	((-1.306378e-10 -1.418656e-10 -4.588807e-08) (-1.793020e-10 9.799482e-11 3.298912e-08)) ((-9.023166e-14 -2.472719e-13 5.470261e-13) (1.622592e-12 4.510483e-12 8.975542e-09))
2362.643429   	((-1.337596e-10 -1.461607e-10 -4.618525e-08) (-1.693896e-10 9.776806e-11 3.362262e-08)) ((-8.850230e-14 -2.494090e-13 5.408229e-13) (1.679298e-12 4.309328e-12 8.910280e-09))
2524.080409   	((-1.334471e-10 -1.480258e-10 -4.645085e-08) (-1.618272e-10 9.797184e-11 3.421673e-08)) ((-8.712159e-14 -2.514349e-13 5.352307e-13) (1.729611e-12 4.161893e-12 8.851737e-09))
2685.529709   	((-1.319039e-10 -1.496679e-10 -4.669051e-08) (-1.562115e-10 9.868179e-11 3.477400e-08)) ((-8.599426e-14 -2.529763e-13 5.303363e-13) (1.778154e-12 4.047456e-12 8.799055e-09))
2846.991376   	((-1.334342e-10 -1.499137e-10 -4.690873e-08) (-1.516043e-10 9.956511e-11 3.529724e-08)) ((-8.516415e-14 -2.540499e-13 5.259430e-13) (1.829372e-12 3.956351e-12 8.751506e-09))
3008.466828   	((-1.352216e-10 -1.498526e-10 -4.710745e-08) (-1.476856e-10 1.004649e-10 3.578820e-08)) ((-8.472030e-14 -2.552413e-13 5.219854e-13) (1.898717e-12 3.899191e-12 8.708474e-09))
3169.956975   	((-1.363785e-10 -1.504936e-10 -4.729051e-08) (-1.444597e-10 1.011294e-10 3.624777e-08)) ((-8.420044e-14 -2.567366e-13 5.184342e-13) (1.979591e-12 3.872344e-12 8.669438e-09))
3331.45966    	((-1.379567e-10 -1.539743e-10 -4.745958e-08) (-1.415347e-10 1.016362e-10 3.667740e-08)) ((-8.305987e-14 -2.586440e-13 5.151774e-13) (2.051094e-12 3.860608e-12 8.633932e-09))
3492.974933   	((-1.383192e-10 -1.571529e-10 -4.761503e-08) (-1.392771e-10 1.022353e-10 3.707928e-08)) ((-8.179366e-14 -2.604307e-13 5.121552e-13) (2.107963e-12 3.850090e-12 8.601558e-09))
3654.503226   	((-1.378336e-10 -1.592680e-10 -4.775889e-08) (-1.371298e-10 1.032133e-10 3.745547e-08)) ((-8.090336e-14 -2.617984e-13 5.092655e-13) (2.163704e-12 3.823325e-12 8.571973e-09))
3816.044722   	((-1.372989e-10 -1.608243e-10 -4.789243e-08) (-1.347979e-10 1.043085e-10 3.780814e-08)) ((-8.016874e-14 -2.630029e-13 5.065574e-13) (2.221455e-12 3.784109e-12 8.544875e-09))
