# Forces      
# CofR        : (0.000000e+00 0.000000e+00 0.000000e+00)
# Time        forces(pressure viscous)	moments(pressure viscous)
0             	((0.000000e+00 0.000000e+00 0.000000e+00) (0.000000e+00 0.000000e+00 0.000000e+00)) ((0.000000e+00 0.000000e+00 0.000000e+00) (0.000000e+00 0.000000e+00 0.000000e+00))
0.012         	((-1.672414e-11 7.236100e-07 1.171981e-07) (-2.058536e-13 1.664512e-06 -1.501842e-12)) ((1.057225e-10 3.821147e-13 -9.684255e-13) (1.107659e-07 9.991982e-15 1.788768e-13))
0.0264        	((-4.192901e-10 9.725939e-07 2.482366e-07) (-9.520569e-13 1.524704e-06 -4.912110e-12)) ((-4.797176e-11 8.304685e-13 -4.282492e-13) (1.015723e-07 2.430000e-14 1.841087e-13))
0.04368       	((3.276730e-10 6.576542e-07 1.346512e-07) (-1.254409e-12 1.380430e-06 -1.128065e-11)) ((-3.560641e-11 4.350857e-13 -4.824040e-13) (9.211283e-08 6.880890e-15 3.453613e-13))
0.064416      	((-3.708709e-10 7.435233e-07 1.741756e-07) (-1.713294e-12 1.234881e-06 -2.155128e-11)) ((-7.034463e-11 5.753814e-13 -3.038370e-13) (8.260221e-08 -2.586043e-14 1.354600e-13))
0.0892992     	((1.885323e-10 5.488710e-07 1.161226e-07) (-1.773842e-12 1.092221e-06 -3.465515e-11)) ((-5.018676e-11 3.772907e-13 -2.015650e-13) (7.331198e-08 -5.361045e-14 -4.030302e-13))
0.119159      	((-1.327235e-10 5.628538e-07 1.259994e-07) (-1.309271e-12 9.570140e-07 -4.963418e-11)) ((-6.145454e-11 4.113003e-13 -1.057913e-13) (6.454712e-08 -4.937499e-14 -6.213530e-13))
0.154991      	((9.572356e-11 4.239591e-07 8.991207e-08) (-9.980476e-13 8.334691e-07 -6.849778e-11)) ((-4.293352e-11 2.942324e-13 -4.731510e-14) (5.649466e-08 -4.670511e-14 -7.034844e-13))
0.197989      	((-2.870140e-11 4.184955e-07 9.050580e-08) (-6.753046e-13 7.241449e-07 -9.160724e-11)) ((-4.844648e-11 2.982513e-13 -7.111175e-14) (4.936291e-08 -4.526667e-14 -7.487063e-13))
0.249587      	((3.582873e-11 3.251737e-07 7.014624e-08) (-6.602305e-13 6.309613e-07 -1.174577e-10)) ((-3.471489e-11 2.244402e-13 -5.764005e-14) (4.323826e-08 -2.899729e-14 -7.037666e-13))
0.311504      	((1.269457e-11 3.156594e-07 6.788108e-08) (-2.465857e-13 5.534703e-07 -1.420560e-10)) ((-3.825368e-11 2.239291e-13 -1.033494e-13) (3.812298e-08 -2.100263e-14 -5.653302e-13))
0.385805      	((4.981196e-12 2.544707e-07 5.632422e-08) (-1.099482e-13 4.894174e-07 -1.663093e-10)) ((-2.852051e-11 1.796909e-13 -6.544069e-14) (3.389009e-08 -1.374409e-14 -3.273967e-13))
0.474966      	((9.031403e-12 2.466206e-07 5.305563e-08) (-2.555748e-13 4.363930e-07 -1.817445e-10)) ((-3.099405e-11 1.746033e-13 -8.971833e-14) (3.039203e-08 -1.631886e-14 -1.201604e-13))
0.581959      	((-7.414416e-12 2.054808e-07 4.564448e-08) (-7.923232e-13 3.917299e-07 -1.988092e-10)) ((-2.391649e-11 1.433249e-13 -6.088963e-14) (2.744329e-08 2.180896e-15 -1.194088e-13))
0.710351      	((6.212648e-12 1.990264e-07 4.215782e-08) (-1.297437e-12 3.533502e-07 -2.064794e-10)) ((-2.577840e-11 1.381685e-13 -9.232443e-14) (2.491827e-08 -1.459525e-14 -9.609936e-14))
0.864421      	((-2.090776e-11 1.695016e-07 3.725321e-08) (-1.322879e-12 3.196066e-07 -2.191240e-10)) ((-2.077329e-11 1.167776e-13 -6.428236e-14) (2.270009e-08 -3.278277e-14 -1.941249e-13))
1.049306      	((3.819505e-12 1.629772e-07 3.421984e-08) (-2.163829e-12 2.895728e-07 -2.203500e-10)) ((-2.222630e-11 1.128115e-13 -5.350458e-14) (2.073447e-08 -9.646953e-14 -3.534876e-13))
1.271167      	((-1.109786e-11 1.401526e-07 3.054160e-08) (-2.100923e-12 2.624849e-07 -2.356671e-10)) ((-1.878332e-11 9.893340e-14 4.033014e-16) (1.896358e-08 -1.201848e-13 -4.131652e-13))
1.5374        	((-7.874119e-12 1.331339e-07 2.778340e-08) (-1.760466e-12 2.380274e-07 -2.215784e-10)) ((-1.957023e-11 9.492468e-14 7.215519e-15) (1.736653e-08 -1.814747e-13 -3.599883e-13))
1.85688       	((-8.570041e-12 1.154020e-07 2.502186e-08) (-2.790715e-12 2.159331e-07 -2.346663e-10)) ((-1.706122e-11 8.656386e-14 3.445877e-14) (1.592721e-08 -2.980516e-13 -3.631403e-13))
2.240256      	((-8.325443e-12 1.080925e-07 2.293182e-08) (-2.258669e-12 1.960873e-07 -2.301755e-10)) ((-1.728486e-11 8.131393e-14 2.759389e-14) (1.463319e-08 -4.550051e-13 -5.364886e-13))
2.700307      	((-4.543300e-12 9.485925e-08 2.103241e-08) (-3.542277e-12 1.785418e-07 -2.266358e-10)) ((-1.552252e-11 7.595870e-14 4.337191e-14) (1.349017e-08 -5.985802e-13 -7.294888e-13))
3.252369      	((-1.146832e-11 8.820801e-08 1.953278e-08) (-5.023860e-12 1.630553e-07 -2.300385e-10)) ((-1.553510e-11 7.071811e-14 3.389974e-14) (1.248039e-08 -7.405430e-13 -7.489365e-13))
3.914842      	((-3.653675e-12 7.874098e-08 1.813178e-08) (-1.868125e-12 1.494311e-07 -2.181970e-10)) ((-1.452399e-11 6.721105e-14 3.495735e-14) (1.159452e-08 -9.620010e-13 -6.278993e-13))
4.709811      	((4.965921e-14 7.284248e-08 1.683311e-08) (-4.313717e-13 1.374383e-07 -2.169594e-10)) ((-1.436917e-11 5.254598e-14 3.071023e-14) (1.081638e-08 -1.122318e-12 -3.873748e-13))
5.663773      	((4.736323e-12 6.587885e-08 1.548116e-08) (-2.209015e-12 1.267994e-07 -2.272176e-10)) ((-1.371062e-11 4.859961e-14 3.224946e-14) (1.012828e-08 -1.026207e-12 -1.682767e-13))
6.808528      	((-1.221835e-11 6.077050e-08 1.417036e-08) (-2.453248e-12 1.172598e-07 -2.430295e-10)) ((-1.338498e-11 4.248227e-14 3.273137e-14) (9.513191e-09 -8.040982e-13 -4.472494e-14))
8.182233      	((-7.803806e-12 5.534509e-08 1.276205e-08) (-3.729993e-12 1.086037e-07 -2.667540e-10)) ((-1.295243e-11 3.626256e-14 3.697607e-14) (8.957939e-09 -7.060338e-13 -3.211750e-15))
9.83068       	((-1.258094e-12 5.083476e-08 1.150867e-08) (-3.841345e-12 1.006857e-07 -2.967935e-10)) ((-1.261404e-11 2.458823e-14 3.790352e-14) (8.453075e-09 -7.786561e-13 -1.518977e-14))
11.808816     	((8.583924e-12 4.645372e-08 1.028619e-08) (-4.287827e-12 9.341729e-08 -3.370760e-10)) ((-1.229148e-11 2.106454e-14 3.870486e-14) (7.992835e-09 -6.947467e-13 6.257919e-14))
14.182579     	((1.017284e-12 4.270632e-08 9.312777e-09) (-5.968703e-12 8.673954e-08 -3.844871e-10)) ((-1.199166e-11 1.146217e-14 3.850416e-14) (7.572482e-09 -5.541937e-13 6.755090e-14))
17.031095     	((-1.353520e-12 3.911827e-08 8.467695e-09) (-6.713262e-12 8.059874e-08 -4.147995e-10)) ((-1.174974e-11 1.084316e-14 3.887622e-14) (7.188947e-09 -3.475575e-13 3.160597e-15))
20.449314     	((-1.091384e-11 3.595040e-08 7.844051e-09) (-6.986947e-12 7.496366e-08 -4.343400e-10)) ((-1.151405e-11 7.382201e-15 4.026990e-14) (6.839374e-09 -1.270955e-13 -3.348091e-14))
24.551176     	((-4.111558e-12 3.293831e-08 7.303166e-09) (-7.667864e-12 6.980561e-08 -4.375159e-10)) ((-1.133550e-11 5.381907e-15 4.142072e-14) (6.521619e-09 5.124737e-16 1.209918e-14))
29.473411     	((-9.749212e-12 3.024570e-08 6.755974e-09) (-7.533995e-12 6.509362e-08 -4.325577e-10)) ((-1.117280e-11 3.353872e-15 4.239908e-14) (6.233213e-09 9.679902e-14 6.932427e-14))
35.380094     	((-1.071961e-11 2.776649e-08 6.209098e-09) (-6.326845e-12 6.079455e-08 -4.230880e-10)) ((-1.104154e-11 1.975910e-15 4.345158e-14) (5.971420e-09 1.235548e-13 1.443135e-13))
42.468112     	((-6.927218e-12 2.553911e-08 5.636112e-09) (-5.598787e-12 5.686822e-08 -4.156836e-10)) ((-1.091829e-11 6.761328e-16 4.362795e-14) (5.733537e-09 9.592874e-14 2.293487e-13))
50.973735     	((-3.767284e-12 2.346093e-08 5.067364e-09) (-5.239360e-12 5.328067e-08 -4.156343e-10)) ((-1.081769e-11 -1.529036e-15 4.345053e-14) (5.517373e-09 5.218970e-14 3.067230e-13))
61.180482     	((-2.459081e-12 2.159492e-08 4.549503e-09) (-4.132971e-12 5.000618e-08 -4.197103e-10)) ((-1.072455e-11 -4.508605e-15 4.357508e-14) (5.321289e-09 -3.461511e-14 3.713019e-13))
73.428578     	((7.726473e-13 1.990001e-08 4.055300e-09) (-2.879478e-12 4.702318e-08 -4.239541e-10)) ((-1.064775e-11 -7.010933e-15 4.344884e-14) (5.143958e-09 -1.746618e-13 4.487066e-13))
88.126294     	((1.780855e-12 1.839373e-08 3.563689e-09) (-1.984537e-12 4.431128e-08 -4.276453e-10)) ((-1.058013e-11 -9.522247e-15 4.332257e-14) (4.983917e-09 -2.332481e-13 5.426638e-13))
105.763553    	((-9.282536e-14 1.704750e-08 3.120229e-09) (-1.588466e-12 4.185149e-08 -4.313187e-10)) ((-1.052440e-11 -1.191600e-14 4.335842e-14) (4.840001e-09 -2.808829e-13 6.062115e-13))
126.928263    	((2.909536e-13 1.584131e-08 2.725437e-09) (-1.088561e-12 3.962474e-08 -4.380135e-10)) ((-1.047796e-11 -1.392693e-14 4.324539e-14) (4.711071e-09 -3.066070e-13 6.249456e-13))
152.325916    	((4.125990e-12 1.478060e-08 2.361359e-09) (-5.055228e-13 3.761268e-08 -4.493813e-10)) ((-1.044143e-11 -1.579813e-14 4.290941e-14) (4.595832e-09 -3.369680e-13 6.343603e-13))
182.803099    	((6.419821e-12 1.385625e-08 2.005472e-09) (-2.923422e-13 3.579936e-08 -4.680417e-10)) ((-1.041144e-11 -1.758939e-14 4.252403e-14) (4.493093e-09 -3.824932e-13 6.384088e-13))
219.375719    	((7.519459e-12 1.305182e-08 1.679861e-09) (-2.492969e-13 3.416849e-08 -4.950630e-10)) ((-1.038821e-11 -1.932279e-14 4.224321e-14) (4.401655e-09 -4.169656e-13 6.344965e-13))
263.262863    	((8.368592e-12 1.235324e-08 1.363491e-09) (-6.133593e-13 3.270505e-08 -5.291576e-10)) ((-1.036895e-11 -2.024878e-14 4.213212e-14) (4.320446e-09 -4.206987e-13 6.051841e-13))
315.927436    	((8.302557e-12 1.175095e-08 1.037743e-09) (-1.061380e-12 3.139546e-08 -5.703352e-10)) ((-1.035421e-11 -2.182049e-14 4.220488e-14) (4.248553e-09 -4.067493e-13 5.531009e-13))
379.124923    	((8.406361e-12 1.123640e-08 7.172789e-10) (-9.657754e-13 3.022874e-08 -6.198117e-10)) ((-1.034316e-11 -2.289836e-14 4.222286e-14) (4.185185e-09 -3.959765e-13 5.090309e-13))
454.961908    	((8.663440e-12 1.080391e-08 4.324723e-10) (-9.351835e-13 2.919641e-08 -6.781126e-10)) ((-1.033451e-11 -2.378683e-14 4.199486e-14) (4.129675e-09 -3.847243e-13 4.786146e-13))
545.966289    	((8.883993e-12 1.044488e-08 1.844205e-10) (-6.810805e-13 2.829150e-08 -7.438052e-10)) ((-1.032719e-11 -2.425874e-14 4.176771e-14) (4.081508e-09 -3.773996e-13 4.561155e-13))
655.171547    	((9.314623e-12 1.015724e-08 -4.572405e-11) (-2.689122e-13 2.750886e-08 -8.149564e-10)) ((-1.032139e-11 -2.481183e-14 4.162325e-14) (4.040222e-09 -3.715778e-13 4.385125e-13))
786.217856    	((9.389007e-12 9.931803e-09 -2.615210e-10) (4.445305e-14 2.684213e-08 -8.909699e-10)) ((-1.031698e-11 -2.542619e-14 4.159368e-14) (4.005315e-09 -3.693731e-13 4.180237e-13))
943.473427    	((9.081643e-12 9.758676e-09 -4.568784e-10) (2.795074e-13 2.628417e-08 -9.700125e-10)) ((-1.031375e-11 -2.592824e-14 4.162927e-14) (3.976263e-09 -3.695939e-13 3.892589e-13))
1132.180113   	((8.863075e-12 9.627437e-09 -6.252579e-10) (5.243299e-13 2.582629e-08 -1.049645e-09)) ((-1.031143e-11 -2.622030e-14 4.172188e-14) (3.952485e-09 -3.706345e-13 3.576091e-13))
1355.475464   	((8.824200e-12 9.530808e-09 -7.686151e-10) (7.390698e-13 2.545904e-08 -1.127088e-09)) ((-1.030969e-11 -2.645476e-14 4.175853e-14) (3.933393e-09 -3.678837e-13 3.270758e-13))
1613.357321   	((9.192590e-12 9.461958e-09 -8.920097e-10) (8.752867e-13 2.517166e-08 -1.199569e-09)) ((-1.030849e-11 -2.666818e-14 4.179757e-14) (3.918363e-09 -3.623396e-13 3.016735e-13))
1905.824166   	((9.666159e-12 9.413048e-09 -9.962950e-10) (9.274226e-13 2.495233e-08 -1.264733e-09)) ((-1.030764e-11 -2.686852e-14 4.183308e-14) (3.906763e-09 -3.549352e-13 2.804657e-13))
2232.875027   	((1.012012e-11 9.378942e-09 -1.081257e-09) (9.451593e-13 2.478872e-08 -1.321021e-09)) ((-1.030693e-11 -2.703451e-14 4.181189e-14) (3.897967e-09 -3.487833e-13 2.651142e-13))
2578.709086   	((1.035919e-11 9.355253e-09 -1.147615e-09) (9.297992e-13 2.466943e-08 -1.367608e-09)) ((-1.030662e-11 -2.713324e-14 4.179689e-14) (3.891427e-09 -3.426034e-13 2.552566e-13))
2924.539692   	((1.061060e-11 9.338530e-09 -1.199731e-09) (8.844518e-13 2.458402e-08 -1.404666e-09)) ((-1.030667e-11 -2.719566e-14 4.179641e-14) (3.886643e-09 -3.362517e-13 2.494772e-13))
3270.368914   	((1.086322e-11 9.326260e-09 -1.241115e-09) (8.268073e-13 2.452346e-08 -1.433318e-09)) ((-1.030673e-11 -2.725324e-14 4.178978e-14) (3.883173e-09 -3.301182e-13 2.454786e-13))
3616.198054   	((1.110188e-11 9.316891e-09 -1.273248e-09) (7.780564e-13 2.448065e-08 -1.455034e-09)) ((-1.030677e-11 -2.729683e-14 4.178071e-14) (3.880665e-09 -3.253780e-13 2.424380e-13))
3962.027765   	((1.128814e-11 9.309518e-09 -1.298960e-09) (7.442918e-13 2.445028e-08 -1.471268e-09)) ((-1.030678e-11 -2.733412e-14 4.176962e-14) (3.878848e-09 -3.215146e-13 2.405820e-13))
4307.85833    	((1.142359e-11 9.303631e-09 -1.319171e-09) (7.198747e-13 2.442854e-08 -1.483327e-09)) ((-1.030679e-11 -2.736305e-14 4.175897e-14) (3.877527e-09 -3.181074e-13 2.396984e-13))
4653.68985    	((1.153656e-11 9.298891e-09 -1.335279e-09) (6.979202e-13 2.441275e-08 -1.492277e-09)) ((-1.030679e-11 -2.739037e-14 4.174922e-14) (3.876558e-09 -3.152389e-13 2.393050e-13))
4999.522399   	((1.162573e-11 9.295015e-09 -1.348165e-09) (6.779094e-13 2.440110e-08 -1.498966e-09)) ((-1.030679e-11 -2.741320e-14 4.174398e-14) (3.875840e-09 -3.130547e-13 2.389746e-13))
5345.355949   	((1.170406e-11 9.291825e-09 -1.358535e-09) (6.642438e-13 2.439233e-08 -1.504018e-09)) ((-1.030680e-11 -2.743435e-14 4.174155e-14) (3.875302e-09 -3.116057e-13 2.390436e-13))
5691.190417   	((1.176789e-11 9.289193e-09 -1.366868e-09) (6.535840e-13 2.438562e-08 -1.507887e-09)) ((-1.030681e-11 -2.745452e-14 4.173723e-14) (3.874893e-09 -3.106238e-13 2.393810e-13))
6037.025692   	((1.179912e-11 9.287035e-09 -1.373710e-09) (6.451384e-13 2.438038e-08 -1.510894e-09)) ((-1.030682e-11 -2.747115e-14 4.173335e-14) (3.874578e-09 -3.097992e-13 2.398341e-13))
6382.861656   	((1.182610e-11 9.285272e-09 -1.379300e-09) (6.389958e-13 2.437626e-08 -1.513273e-09)) ((-1.030683e-11 -2.748504e-14 4.172955e-14) (3.874333e-09 -3.092288e-13 2.403964e-13))
6728.6982     	((1.184820e-11 9.283817e-09 -1.383891e-09) (6.340256e-13 2.437296e-08 -1.515181e-09)) ((-1.030684e-11 -2.749770e-14 4.172584e-14) (3.874140e-09 -3.088609e-13 2.409951e-13))
7074.535221   	((1.187678e-11 9.282622e-09 -1.387663e-09) (6.307158e-13 2.437030e-08 -1.516731e-09)) ((-1.030685e-11 -2.750858e-14 4.172192e-14) (3.873988e-09 -3.086129e-13 2.415858e-13))
7420.372635   	((1.188098e-11 9.281625e-09 -1.390778e-09) (6.277054e-13 2.436815e-08 -1.518003e-09)) ((-1.030686e-11 -2.751649e-14 4.171812e-14) (3.873866e-09 -3.083884e-13 2.421407e-13))
7766.210367   	((1.189972e-11 9.280814e-09 -1.393367e-09) (6.259745e-13 2.436640e-08 -1.519055e-09)) ((-1.030687e-11 -2.752398e-14 4.171431e-14) (3.873768e-09 -3.082287e-13 2.426796e-13))
8112.048356   	((1.191545e-11 9.280144e-09 -1.395548e-09) (6.254531e-13 2.436496e-08 -1.519930e-09)) ((-1.030688e-11 -2.753049e-14 4.171105e-14) (3.873689e-09 -3.081086e-13 2.431959e-13))
8457.886554   	((1.193581e-11 9.279571e-09 -1.397296e-09) (6.259960e-13 2.436379e-08 -1.520661e-09)) ((-1.030689e-11 -2.753699e-14 4.170815e-14) (3.873626e-09 -3.080561e-13 2.436668e-13))
8803.724921   	((1.199296e-11 9.279098e-09 -1.398743e-09) (6.297260e-13 2.436282e-08 -1.521275e-09)) ((-1.030690e-11 -2.754064e-14 4.170682e-14) (3.873574e-09 -3.080905e-13 2.440849e-13))
9149.563423   	((1.202167e-11 9.278705e-09 -1.399947e-09) (6.325337e-13 2.436202e-08 -1.521791e-09)) ((-1.030691e-11 -2.754541e-14 4.170306e-14) (3.873532e-09 -3.081364e-13 2.444352e-13))
9495.402036   	((1.199524e-11 9.278387e-09 -1.400972e-09) (6.342380e-13 2.436137e-08 -1.522227e-09)) ((-1.030692e-11 -2.755205e-14 4.170020e-14) (3.873498e-09 -3.082251e-13 2.447446e-13))
9841.240739   	((1.197220e-11 9.278126e-09 -1.401822e-09) (6.369194e-13 2.436083e-08 -1.522594e-09)) ((-1.030693e-11 -2.755793e-14 4.169712e-14) (3.873470e-09 -3.083428e-13 2.450344e-13))
10187.079515  	((1.194268e-11 9.277900e-09 -1.402525e-09) (6.396353e-13 2.436038e-08 -1.522904e-09)) ((-1.030694e-11 -2.756304e-14 4.169402e-14) (3.873447e-09 -3.084641e-13 2.452892e-13))
10532.918351  	((1.191267e-11 9.277724e-09 -1.403099e-09) (6.423581e-13 2.436001e-08 -1.523166e-09)) ((-1.030694e-11 -2.756774e-14 4.169113e-14) (3.873428e-09 -3.085825e-13 2.455088e-13))
10878.757236  	((1.188697e-11 9.277582e-09 -1.403580e-09) (6.434118e-13 2.435971e-08 -1.523387e-09)) ((-1.030695e-11 -2.757173e-14 4.168859e-14) (3.873413e-09 -3.086408e-13 2.457131e-13))
11224.596161  	((1.187007e-11 9.277461e-09 -1.403984e-09) (6.410272e-13 2.435945e-08 -1.523575e-09)) ((-1.030696e-11 -2.757511e-14 4.168661e-14) (3.873401e-09 -3.085350e-13 2.459219e-13))
11570.435119  	((1.185980e-11 9.277358e-09 -1.404319e-09) (6.379018e-13 2.435924e-08 -1.523734e-09)) ((-1.030696e-11 -2.757813e-14 4.168479e-14) (3.873390e-09 -3.083924e-13 2.461145e-13))
11916.274104  	((1.185229e-11 9.277269e-09 -1.404596e-09) (6.346695e-13 2.435906e-08 -1.523869e-09)) ((-1.030696e-11 -2.758087e-14 4.168304e-14) (3.873382e-09 -3.082459e-13 2.462885e-13))
12262.113112  	((1.184569e-11 9.277193e-09 -1.404826e-09) (6.314722e-13 2.435892e-08 -1.523983e-09)) ((-1.030697e-11 -2.758335e-14 4.168141e-14) (3.873375e-09 -3.081017e-13 2.464450e-13))
12607.952138  	((1.183952e-11 9.277128e-09 -1.405016e-09) (6.283920e-13 2.435879e-08 -1.524080e-09)) ((-1.030697e-11 -2.758561e-14 4.167989e-14) (3.873369e-09 -3.079638e-13 2.465845e-13))
12953.791179  	((1.176595e-11 9.277076e-09 -1.405190e-09) (6.225458e-13 2.435869e-08 -1.524162e-09)) ((-1.030697e-11 -2.758910e-14 4.167713e-14) (3.873364e-09 -3.077921e-13 2.467161e-13))
13299.630234  	((1.179159e-11 9.277035e-09 -1.405333e-09) (6.218902e-13 2.435860e-08 -1.524233e-09)) ((-1.030698e-11 -2.759023e-14 4.167788e-14) (3.873360e-09 -3.077307e-13 2.468421e-13))
13645.469298  	((1.180125e-11 9.276996e-09 -1.405433e-09) (6.194493e-13 2.435853e-08 -1.524292e-09)) ((-1.030698e-11 -2.759132e-14 4.167618e-14) (3.873357e-09 -3.076134e-13 2.469265e-13))
13991.308372  	((1.173580e-11 9.276964e-09 -1.405534e-09) (6.144095e-13 2.435848e-08 -1.524342e-09)) ((-1.030698e-11 -2.759402e-14 4.167353e-14) (3.873354e-09 -3.074696e-13 2.470155e-13))
14337.147453  	((1.176879e-11 9.276941e-09 -1.405612e-09) (6.143629e-13 2.435842e-08 -1.524385e-09)) ((-1.030698e-11 -2.759460e-14 4.167443e-14) (3.873352e-09 -3.074289e-13 2.471178e-13))
14682.98654   	((1.178179e-11 9.276917e-09 -1.405661e-09) (6.125428e-13 2.435838e-08 -1.524422e-09)) ((-1.030699e-11 -2.759520e-14 4.167296e-14) (3.873350e-09 -3.073364e-13 2.471780e-13))
15028.825632  	((1.171858e-11 9.276897e-09 -1.405720e-09) (6.080291e-13 2.435835e-08 -1.524452e-09)) ((-1.030699e-11 -2.759741e-14 4.167057e-14) (3.873349e-09 -3.072159e-13 2.472448e-13))
