# Forces      
# CofR        : (0.000000e+00 0.000000e+00 0.000000e+00)
# Time        forces(pressure viscous)	moments(pressure viscous)
0             	((0.000000e+00 0.000000e+00 0.000000e+00) (-2.397352e-15 -7.964508e-06 5.155937e-16)) ((0.000000e+00 0.000000e+00 0.000000e+00) (-1.789541e-07 -1.992934e-17 3.814275e-12))
0.012         	((2.433936e-09 -2.316120e-03 5.227685e-04) (1.320941e-11 -9.140132e-06 -2.280241e-09)) ((2.731644e-08 1.781321e-09 4.366795e-10) (-2.637479e-07 -8.458614e-15 7.904053e-12))
0.0264        	((-3.720477e-08 1.594351e-04 -3.262894e-05) (-8.825943e-12 -9.326751e-06 -3.442574e-09)) ((-1.912466e-09 -1.121357e-10 -2.876544e-11) (-2.953206e-07 1.631971e-12 1.041262e-11))
0.04368       	((1.787264e-08 4.850245e-04 -3.765444e-05) (-6.066661e-12 -8.289601e-06 -2.336091e-09)) ((-6.312682e-09 -1.309694e-10 -1.177783e-10) (-2.630999e-07 2.677872e-12 8.860476e-12))
0.064416      	((9.914043e-09 4.558235e-06 -1.886565e-05) (-1.445562e-10 -7.342973e-06 -1.019602e-09)) ((3.094533e-11 -6.319983e-11 5.647717e-12) (-2.361695e-07 1.503900e-12 1.043158e-11))
0.0892992     	((-6.051692e-09 -6.571859e-06 -1.159301e-05) (-2.541287e-10 -6.779629e-06 -7.177537e-10)) ((2.599336e-10 -3.778884e-11 6.734863e-12) (-2.232453e-07 3.480865e-13 1.131157e-11))
0.119159      	((-2.909199e-09 7.233425e-06 -7.001766e-06) (-2.307601e-10 -6.260451e-06 -1.180813e-09)) ((-1.366135e-10 -2.353960e-11 -1.330163e-12) (-2.088813e-07 6.979721e-13 9.934567e-12))
0.154991      	((3.751493e-09 3.909775e-06 -4.398554e-06) (-1.922851e-10 -5.709678e-06 -1.796830e-09)) ((-8.337712e-11 -1.410399e-11 -1.218667e-13) (-1.928858e-07 6.757783e-13 8.959297e-12))
0.197989      	((1.288798e-09 9.489417e-07 -2.708565e-06) (-1.178881e-10 -5.153490e-06 -2.114634e-09)) ((-2.940374e-11 -8.409757e-12 -1.357894e-13) (-1.766010e-07 2.031452e-13 6.116484e-12))
0.249587      	((-7.108285e-11 -1.256606e-07 -1.691812e-06) (-5.828986e-11 -4.607539e-06 -2.362944e-09)) ((-7.836084e-12 -5.272725e-12 4.324740e-13) (-1.603091e-07 -3.619129e-13 3.935892e-12))
0.311504      	((-1.144895e-10 -6.173235e-07 -1.017868e-06) (-1.569582e-11 -4.088107e-06 -2.621960e-09)) ((-1.191358e-12 -2.988698e-12 5.622243e-13) (-1.443237e-07 -1.200868e-12 2.132039e-12))
0.385805      	((-3.271991e-11 -8.529224e-07 -6.160647e-07) (1.819518e-11 -3.608331e-06 -2.841016e-09)) ((7.738570e-13 -1.599436e-12 4.843180e-13) (-1.290362e-07 -1.850346e-12 9.905802e-14))
0.474966      	((-6.653960e-11 -9.631700e-07 -3.461571e-07) (3.422650e-11 -3.177937e-06 -3.040324e-09)) ((2.636189e-12 -6.720038e-13 4.109647e-13) (-1.148744e-07 -2.228260e-12 -3.553545e-13))
0.581959      	((-7.331831e-11 -1.006975e-06 -1.897358e-07) (4.101102e-11 -2.801169e-06 -3.254288e-09)) ((4.260407e-12 -1.421028e-13 3.615268e-13) (-1.021052e-07 -2.174587e-12 1.491703e-12))
0.710351      	((-3.208191e-11 -1.002855e-06 -8.730650e-08) (5.303316e-11 -2.478236e-06 -3.473226e-09)) ((5.369406e-12 2.022559e-13 2.968234e-13) (-9.088037e-08 -1.900008e-12 3.377834e-12))
0.864421      	((1.887937e-11 -9.665589e-07 -3.223660e-08) (7.512307e-11 -2.205008e-06 -3.659380e-09)) ((5.821990e-12 3.799880e-13 2.912660e-13) (-8.120208e-08 -1.542120e-12 3.394712e-12))
1.049306      	((9.024197e-12 -9.133889e-07 2.463021e-09) (8.792354e-11 -1.974494e-06 -3.825553e-09)) ((5.742198e-12 4.794476e-13 2.822558e-13) (-7.292507e-08 -1.239896e-12 2.225353e-12))
1.271167      	((3.713858e-11 -8.543423e-07 1.813464e-08) (8.361427e-11 -1.779485e-06 -3.985861e-09)) ((5.415218e-12 5.224038e-13 2.603432e-13) (-6.582981e-08 -9.995115e-13 8.166799e-13))
1.5374        	((5.963898e-11 -7.940400e-07 2.603628e-08) (7.085815e-11 -1.612317e-06 -4.171474e-09)) ((5.039027e-12 5.480735e-13 2.599585e-13) (-5.968067e-08 -7.739394e-13 -1.670432e-13))
1.85688       	((6.022893e-11 -7.352055e-07 2.576399e-08) (5.941489e-11 -1.465987e-06 -4.405650e-09)) ((4.614957e-12 5.388009e-13 2.634958e-13) (-5.427230e-08 -5.727427e-13 -5.491040e-13))
2.240256      	((2.466746e-11 -6.794102e-07 2.262781e-08) (4.536365e-11 -1.335915e-06 -4.683290e-09)) ((4.247772e-12 5.214751e-13 2.637797e-13) (-4.945617e-08 -3.213660e-13 -3.646764e-13))
2.700307      	((1.244277e-11 -6.273723e-07 1.627952e-08) (3.891483e-11 -1.219269e-06 -4.990906e-09)) ((3.942129e-12 4.907834e-13 2.612653e-13) (-4.513347e-08 7.377252e-15 5.259786e-13))
3.252369      	((-8.292552e-12 -5.788238e-07 9.508970e-09) (3.599296e-11 -1.114151e-06 -5.317836e-09)) ((3.635997e-12 4.594361e-13 2.426972e-13) (-4.123704e-08 3.101854e-13 2.015696e-12))
3.914842      	((-1.200336e-11 -5.331462e-07 1.965862e-09) (2.967295e-11 -1.019180e-06 -5.673165e-09)) ((3.322019e-12 4.247748e-13 2.212285e-13) (-3.771681e-08 4.976189e-13 3.520863e-12))
4.709811      	((-5.519909e-12 -4.906890e-07 -5.204014e-09) (1.938384e-11 -9.333704e-07 -6.059212e-09)) ((3.030331e-12 3.951949e-13 1.982863e-13) (-3.453564e-08 5.043709e-13 4.373074e-12))
5.663773      	((3.149699e-11 -4.514772e-07 -1.217140e-08) (1.273373e-11 -8.559869e-07 -6.467568e-09)) ((2.774628e-12 3.647976e-13 1.789292e-13) (-3.166658e-08 3.466966e-13 4.526140e-12))
6.808528      	((7.447380e-11 -4.154657e-07 -1.833192e-08) (1.379815e-11 -7.863992e-07 -6.893198e-09)) ((2.552736e-12 3.353123e-13 1.581630e-13) (-2.908654e-08 4.874443e-14 4.345102e-12))
8.182233      	((7.554447e-11 -3.825287e-07 -2.412380e-08) (1.645302e-11 -7.239434e-07 -7.333003e-09)) ((2.357674e-12 3.091230e-13 1.375716e-13) (-2.677130e-08 -1.921923e-13 4.241250e-12))
9.83068       	((5.844239e-11 -3.526495e-07 -2.924217e-08) (1.520768e-11 -6.678545e-07 -7.803927e-09)) ((2.184344e-12 2.861682e-13 1.197758e-13) (-2.469265e-08 -2.428083e-13 4.154430e-12))
11.808816     	((5.483979e-11 -3.253206e-07 -3.391741e-08) (1.146856e-11 -6.173129e-07 -8.313479e-09)) ((2.024716e-12 2.650944e-13 1.049345e-13) (-2.281994e-08 -1.601463e-13 3.646632e-12))
14.182579     	((6.541598e-11 -3.003451e-07 -3.803060e-08) (1.180870e-11 -5.715702e-07 -8.866799e-09)) ((1.875659e-12 2.459441e-13 9.191329e-14) (-2.112486e-08 -1.060808e-13 2.897154e-12))
17.031095     	((3.352356e-11 -2.775906e-07 -4.185003e-08) (1.214517e-11 -5.300127e-07 -9.470981e-09)) ((1.740924e-12 2.246387e-13 8.041322e-14) (-1.958439e-08 -3.397486e-14 2.216410e-12))
20.449314     	((-1.741274e-11 -2.568469e-07 -4.513004e-08) (9.774445e-12 -4.921654e-07 -1.012318e-08)) ((1.619915e-12 2.046114e-13 7.129562e-14) (-1.818109e-08 1.932656e-13 1.600389e-12))
24.551176     	((-4.144504e-11 -2.379719e-07 -4.809281e-08) (5.664650e-12 -4.576907e-07 -1.081974e-08)) ((1.511007e-12 1.858248e-13 6.510528e-14) (-1.690222e-08 4.125005e-13 1.079588e-12))
29.473411     	((-4.293753e-11 -2.208700e-07 -5.047618e-08) (1.548503e-12 -4.263284e-07 -1.155130e-08)) ((1.414639e-12 1.695807e-13 6.009057e-14) (-1.573844e-08 5.727943e-13 6.658978e-13))
35.380094     	((-4.750654e-11 -2.053588e-07 -5.261703e-08) (-7.287943e-13 -3.978519e-07 -1.231397e-08)) ((1.329275e-12 1.553407e-13 5.584899e-14) (-1.468177e-08 7.028604e-13 1.880978e-13))
42.468112     	((-5.661526e-11 -1.913962e-07 -5.429701e-08) (-2.850478e-12 -3.720331e-07 -1.310271e-08)) ((1.255112e-12 1.428998e-13 5.201337e-14) (-1.372404e-08 8.035127e-13 -4.514974e-13))
50.973735     	((-6.586961e-11 -1.788815e-07 -5.573192e-08) (-2.726597e-12 -3.486485e-07 -1.391164e-08)) ((1.190434e-12 1.310868e-13 4.923307e-14) (-1.285685e-08 8.933372e-13 -1.359816e-12))
61.180482     	((-5.227345e-11 -1.676836e-07 -5.677099e-08) (-1.420308e-12 -3.274822e-07 -1.473442e-08)) ((1.134122e-12 1.228171e-13 4.664041e-14) (-1.207197e-08 9.222283e-13 -2.562877e-12))
73.428578     	((-3.601603e-11 -1.576970e-07 -5.755702e-08) (1.959864e-12 -3.083148e-07 -1.557374e-08)) ((1.086760e-12 1.161635e-13 4.467300e-14) (-1.136131e-08 8.459692e-13 -3.945513e-12))
88.126294     	((-1.802023e-11 -1.488767e-07 -5.809930e-08) (7.407894e-12 -2.909493e-07 -1.643101e-08)) ((1.048139e-12 1.103954e-13 4.315262e-14) (-1.071753e-08 6.804694e-13 -5.472650e-12))
105.763553    	((-4.976534e-15 -1.411257e-07 -5.849333e-08) (1.283905e-11 -2.752175e-07 -1.730734e-08)) ((1.016935e-12 1.058238e-13 4.215961e-14) (-1.013440e-08 4.882877e-13 -7.105274e-12))
126.928263    	((1.978830e-11 -1.344197e-07 -5.861210e-08) (1.619796e-11 -2.609848e-07 -1.820295e-08)) ((9.927840e-13 1.026965e-13 4.158145e-14) (-9.607026e-09 2.659227e-13 -8.718055e-12))
152.325916    	((3.729422e-11 -1.286842e-07 -5.856862e-08) (1.909804e-11 -2.481435e-07 -1.911527e-08)) ((9.761664e-13 9.998191e-14 4.113428e-14) (-9.131539e-09 1.123726e-15 -1.017695e-11))
182.803099    	((4.937727e-11 -1.238508e-07 -5.835881e-08) (2.159930e-11 -2.366036e-07 -2.004273e-08)) ((9.663721e-13 9.803312e-14 4.103480e-14) (-8.704772e-09 -2.453230e-13 -1.148333e-11))
219.375719    	((6.430500e-11 -1.198177e-07 -5.799224e-08) (2.428530e-11 -2.262823e-07 -2.098546e-08)) ((9.633196e-13 9.670991e-14 4.156732e-14) (-8.323901e-09 -5.067136e-13 -1.261736e-11))
263.262863    	((7.613589e-11 -1.165386e-07 -5.746969e-08) (2.743452e-11 -2.171084e-07 -2.194170e-08)) ((9.666251e-13 9.677018e-14 4.253611e-14) (-7.986462e-09 -7.634371e-13 -1.354476e-11))
315.927436    	((8.177723e-11 -1.139915e-07 -5.680082e-08) (3.036947e-11 -2.090216e-07 -2.290902e-08)) ((9.756525e-13 9.767936e-14 4.389987e-14) (-7.690303e-09 -1.000368e-12 -1.425952e-11))
379.124923    	((8.950291e-11 -1.121104e-07 -5.600506e-08) (3.248507e-11 -2.019662e-07 -2.388096e-08)) ((9.887129e-13 9.937513e-14 4.555645e-14) (-7.433336e-09 -1.242226e-12 -1.476185e-11))
454.961908    	((9.658155e-11 -1.108048e-07 -5.507118e-08) (3.401923e-11 -1.958839e-07 -2.484555e-08)) ((1.003636e-12 1.021573e-13 4.727006e-14) (-7.213089e-09 -1.502983e-12 -1.503586e-11))
545.966289    	((1.030663e-10 -1.099489e-07 -5.399825e-08) (3.550128e-11 -1.907052e-07 -2.578082e-08)) ((1.018378e-12 1.058055e-13 4.880094e-14) (-7.026545e-09 -1.754971e-12 -1.508623e-11))
655.171547    	((1.077764e-10 -1.094207e-07 -5.281096e-08) (3.730122e-11 -1.863470e-07 -2.666140e-08)) ((1.031792e-12 1.100902e-13 4.996685e-14) (-6.870193e-09 -2.014597e-12 -1.493656e-11))
786.217856    	((1.107525e-10 -1.090940e-07 -5.154299e-08) (3.961062e-11 -1.827134e-07 -2.746439e-08)) ((1.042732e-12 1.145809e-13 5.073115e-14) (-6.740185e-09 -2.275003e-12 -1.462960e-11))
939.163878    	((1.122814e-10 -1.088905e-07 -5.025768e-08) (4.243011e-11 -1.797122e-07 -2.817166e-08)) ((1.050950e-12 1.187669e-13 5.113676e-14) (-6.633018e-09 -2.514934e-12 -1.420932e-11))
1114.029668   	((1.117335e-10 -1.087205e-07 -4.902200e-08) (4.542082e-11 -1.772379e-07 -2.878052e-08)) ((1.056219e-12 1.224864e-13 5.134759e-14) (-6.544882e-09 -2.706052e-12 -1.370215e-11))
1310.837694   	((1.093706e-10 -1.085695e-07 -4.785875e-08) (4.835445e-11 -1.752017e-07 -2.929588e-08)) ((1.059153e-12 1.260094e-13 5.140042e-14) (-6.472650e-09 -2.845969e-12 -1.313782e-11))
1529.611219   	((1.065215e-10 -1.084303e-07 -4.679341e-08) (5.138903e-11 -1.735243e-07 -2.972952e-08)) ((1.060156e-12 1.293434e-13 5.135031e-14) (-6.413511e-09 -2.949235e-12 -1.254156e-11))
1749.488696   	((1.021547e-10 -1.083340e-07 -4.586527e-08) (5.406569e-11 -1.721529e-07 -3.009134e-08)) ((1.060031e-12 1.322308e-13 5.125595e-14) (-6.365589e-09 -3.012734e-12 -1.192976e-11))
1969.565983   	((9.714067e-11 -1.082359e-07 -4.507004e-08) (5.623370e-11 -1.710238e-07 -3.039532e-08)) ((1.058823e-12 1.347350e-13 5.114685e-14) (-6.326567e-09 -3.031906e-12 -1.131199e-11))
2189.819922   	((9.164959e-11 -1.081578e-07 -4.438861e-08) (5.795571e-11 -1.700976e-07 -3.065033e-08)) ((1.057397e-12 1.369229e-13 5.105237e-14) (-6.294970e-09 -3.010588e-12 -1.069304e-11))
2410.227589   	((8.575593e-11 -1.080855e-07 -4.381866e-08) (5.916328e-11 -1.693335e-07 -3.086602e-08)) ((1.055733e-12 1.387933e-13 5.099505e-14) (-6.269260e-09 -2.956632e-12 -1.008597e-11))
2630.769036   	((7.967870e-11 -1.080266e-07 -4.333272e-08) (5.978061e-11 -1.687035e-07 -3.104868e-08)) ((1.054097e-12 1.403807e-13 5.096576e-14) (-6.248363e-09 -2.876372e-12 -9.504159e-12))
2851.426062   	((7.359935e-11 -1.079748e-07 -4.293017e-08) (5.994600e-11 -1.681819e-07 -3.120405e-08)) ((1.052517e-12 1.416929e-13 5.094819e-14) (-6.231300e-09 -2.773457e-12 -8.949926e-12))
3072.182766   	((6.745674e-11 -1.079315e-07 -4.258748e-08) (5.980421e-11 -1.677497e-07 -3.133630e-08)) ((1.051040e-12 1.428061e-13 5.093320e-14) (-6.217358e-09 -2.652090e-12 -8.422818e-12))
3293.025076   	((6.158379e-11 -1.078937e-07 -4.230759e-08) (5.943554e-11 -1.673903e-07 -3.144920e-08)) ((1.049714e-12 1.437045e-13 5.092555e-14) (-6.205918e-09 -2.518482e-12 -7.922354e-12))
3513.940799   	((5.597977e-11 -1.078620e-07 -4.205618e-08) (5.887703e-11 -1.670913e-07 -3.154560e-08)) ((1.048524e-12 1.445191e-13 5.093325e-14) (-6.196516e-09 -2.378178e-12 -7.451109e-12))
3734.919327   	((5.058233e-11 -1.078347e-07 -4.185246e-08) (5.811697e-11 -1.668417e-07 -3.162803e-08)) ((1.047449e-12 1.451614e-13 5.094847e-14) (-6.188761e-09 -2.234780e-12 -7.011236e-12))
3955.951556   	((4.548547e-11 -1.078118e-07 -4.167765e-08) (5.721303e-11 -1.666331e-07 -3.169851e-08)) ((1.046504e-12 1.456899e-13 5.096275e-14) (-6.182352e-09 -2.091206e-12 -6.603297e-12))
4177.029673   	((4.068983e-11 -1.077922e-07 -4.153208e-08) (5.623998e-11 -1.664585e-07 -3.175874e-08)) ((1.045685e-12 1.461204e-13 5.097483e-14) (-6.177041e-09 -1.949011e-12 -6.225176e-12))
4398.146995   	((3.616794e-11 -1.077757e-07 -4.140222e-08) (5.522289e-11 -1.663121e-07 -3.181020e-08)) ((1.044974e-12 1.465048e-13 5.098378e-14) (-6.172632e-09 -1.810224e-12 -5.876327e-12))
4619.297808   	((3.202340e-11 -1.077616e-07 -4.129600e-08) (5.414657e-11 -1.661893e-07 -3.185413e-08)) ((1.044357e-12 1.468165e-13 5.099164e-14) (-6.168963e-09 -1.676602e-12 -5.558573e-12))
4840.477238   	((2.817757e-11 -1.077496e-07 -4.120529e-08) (5.302483e-11 -1.660861e-07 -3.189164e-08)) ((1.043826e-12 1.470807e-13 5.099896e-14) (-6.165905e-09 -1.548958e-12 -5.270965e-12))
5061.681118   	((2.467512e-11 -1.077396e-07 -4.112907e-08) (5.189907e-11 -1.659992e-07 -3.192363e-08)) ((1.043369e-12 1.472992e-13 5.100545e-14) (-6.163350e-09 -1.428221e-12 -5.011009e-12))
5282.905893   	((2.148045e-11 -1.077310e-07 -4.106393e-08) (5.079139e-11 -1.659262e-07 -3.195091e-08)) ((1.042979e-12 1.474875e-13 5.101156e-14) (-6.161214e-09 -1.314813e-12 -4.776549e-12))
5504.148529   	((1.859094e-11 -1.077238e-07 -4.100926e-08) (4.972560e-11 -1.658646e-07 -3.197415e-08)) ((1.042648e-12 1.476446e-13 5.101827e-14) (-6.159424e-09 -1.209346e-12 -4.565310e-12))
5725.406433   	((1.596193e-11 -1.077176e-07 -4.096256e-08) (4.871593e-11 -1.658126e-07 -3.199394e-08)) ((1.042366e-12 1.477756e-13 5.102577e-14) (-6.157922e-09 -1.111832e-12 -4.375172e-12))
5946.677392   	((1.359218e-11 -1.077125e-07 -4.092281e-08) (4.776591e-11 -1.657688e-07 -3.201078e-08)) ((1.042126e-12 1.478853e-13 5.103215e-14) (-6.156661e-09 -1.022105e-12 -4.204581e-12))
6167.959513   	((1.150795e-11 -1.077081e-07 -4.088896e-08) (4.687442e-11 -1.657318e-07 -3.202511e-08)) ((1.041921e-12 1.479765e-13 5.103839e-14) (-6.155600e-09 -9.398963e-13 -4.052156e-12))
6389.251178   	((9.635979e-12 -1.077043e-07 -4.086018e-08) (4.604293e-11 -1.657005e-07 -3.203729e-08)) ((1.041748e-12 1.480532e-13 5.104456e-14) (-6.154707e-09 -8.649372e-13 -3.916492e-12))
6610.551003   	((7.948645e-12 -1.077012e-07 -4.083568e-08) (4.526966e-11 -1.656741e-07 -3.204764e-08)) ((1.041600e-12 1.481173e-13 5.105006e-14) (-6.153956e-09 -7.968001e-13 -3.796065e-12))
6831.857806   	((6.445998e-12 -1.076985e-07 -4.081499e-08) (4.455374e-11 -1.656518e-07 -3.205642e-08)) ((1.041475e-12 1.481704e-13 5.105507e-14) (-6.153322e-09 -7.350983e-13 -3.689462e-12))
7053.170576   	((5.121759e-12 -1.076961e-07 -4.079758e-08) (4.389405e-11 -1.656329e-07 -3.206388e-08)) ((1.041370e-12 1.482140e-13 5.105964e-14) (-6.152788e-09 -6.794221e-13 -3.595242e-12))
7274.488449   	((3.940486e-12 -1.076942e-07 -4.078274e-08) (4.329182e-11 -1.656169e-07 -3.207021e-08)) ((1.041281e-12 1.482496e-13 5.106375e-14) (-6.152337e-09 -6.293741e-13 -3.512088e-12))
7495.810685   	((2.900883e-12 -1.076926e-07 -4.077010e-08) (4.274429e-11 -1.656034e-07 -3.207559e-08)) ((1.041205e-12 1.482799e-13 5.106758e-14) (-6.151956e-09 -5.845096e-13 -3.438768e-12))
7717.136652   	((1.982732e-12 -1.076912e-07 -4.075941e-08) (4.224843e-11 -1.655919e-07 -3.208015e-08)) ((1.041140e-12 1.483045e-13 5.107109e-14) (-6.151634e-09 -5.443888e-13 -3.374238e-12))
7938.465809   	((1.177991e-12 -1.076900e-07 -4.075046e-08) (4.180257e-11 -1.655822e-07 -3.208401e-08)) ((1.041088e-12 1.483239e-13 5.107398e-14) (-6.151362e-09 -5.086198e-13 -3.317509e-12))
8159.797693   	((4.597553e-13 -1.076890e-07 -4.074288e-08) (4.140159e-11 -1.655740e-07 -3.208730e-08)) ((1.041042e-12 1.483397e-13 5.107669e-14) (-6.151132e-09 -4.768201e-13 -3.267726e-12))
8381.131906   	((-1.503289e-13 -1.076882e-07 -4.073635e-08) (4.104333e-11 -1.655671e-07 -3.209008e-08)) ((1.041002e-12 1.483531e-13 5.107899e-14) (-6.150938e-09 -4.486130e-13 -3.224084e-12))
8602.468113   	((-6.941901e-13 -1.076874e-07 -4.073078e-08) (4.072326e-11 -1.655612e-07 -3.209244e-08)) ((1.040968e-12 1.483640e-13 5.108104e-14) (-6.150773e-09 -4.236403e-13 -3.185880e-12))
8823.806023   	((-1.170826e-12 -1.076868e-07 -4.072591e-08) (4.043894e-11 -1.655562e-07 -3.209445e-08)) ((1.040940e-12 1.483733e-13 5.108282e-14) (-6.150634e-09 -4.015933e-13 -3.152470e-12))
9045.145388   	((-1.586283e-12 -1.076863e-07 -4.072268e-08) (4.018682e-11 -1.655520e-07 -3.209614e-08)) ((1.040916e-12 1.483778e-13 5.108438e-14) (-6.150516e-09 -3.821651e-13 -3.123289e-12))
