# Forces      
# CofR        : (0.000000e+00 0.000000e+00 0.000000e+00)
# Time        forces(pressure viscous)	moments(pressure viscous)
0             	((0.000000e+00 0.000000e+00 0.000000e+00) (0.000000e+00 0.000000e+00 0.000000e+00)) ((0.000000e+00 0.000000e+00 0.000000e+00) (0.000000e+00 0.000000e+00 0.000000e+00))
0.012         	((-1.419477e-04 6.459336e-09 -4.836190e-05) (-3.323218e-04 4.522952e-12 -8.283151e-08)) ((-2.272026e-12 2.270552e-08 -1.793124e-12) (-2.019037e-13 2.211595e-05 -3.273118e-13))
0.0264        	((-1.957596e-04 1.104052e-07 -6.363691e-05) (-3.045361e-04 -7.947240e-11 -1.891632e-07)) ((-1.289911e-12 -9.496838e-09 -5.962624e-13) (-3.601926e-12 2.029037e-05 4.717135e-12))
0.04368       	((-1.304430e-04 -6.368692e-08 -4.434998e-05) (-2.763210e-04 -2.567861e-10 -4.066791e-07)) ((-2.652309e-12 -5.666471e-09 -1.793348e-12) (-8.731560e-12 1.844641e-05 1.038963e-11))
0.064416      	((-1.494641e-04 8.390953e-08 -5.019951e-05) (-2.486629e-04 -2.955977e-10 -7.387122e-07)) ((-1.665658e-12 -1.272699e-08 4.498026e-14) (-1.509494e-11 1.665006e-05 1.246328e-11))
0.0892992     	((-1.100264e-04 -4.438884e-08 -3.950307e-05) (-2.226445e-04 -3.416260e-10 -1.163619e-06)) ((-1.759735e-12 -8.313126e-09 -8.787647e-13) (-2.519253e-11 1.497349e-05 1.171969e-11))
0.119159      	((-1.140145e-04 4.818462e-08 -4.062687e-05) (-1.992024e-04 -2.805636e-10 -1.638331e-06)) ((-1.926915e-12 -1.088588e-08 -2.701586e-13) (-2.716494e-11 1.347468e-05 1.182084e-11))
0.154991      	((-8.963890e-05 -2.293444e-08 -3.465173e-05) (-1.787970e-04 -1.866493e-10 -2.184693e-06)) ((-1.806175e-12 -7.980428e-09 -4.125677e-13) (-2.158205e-11 1.217171e-05 1.089498e-11))
0.197989      	((-8.892471e-05 1.989536e-08 -3.486384e-05) (-1.612261e-04 -1.380197e-10 -2.824834e-06)) ((-2.158214e-12 -9.598224e-09 -6.982371e-13) (-1.311610e-11 1.104659e-05 7.530373e-12))
0.249587      	((-7.424462e-05 -8.239228e-09 -3.173853e-05) (-1.457362e-04 -1.330985e-11 -3.633407e-06)) ((-1.564540e-12 -7.891757e-09 -9.580224e-13) (-1.154552e-11 1.004023e-05 1.903757e-12))
0.311504      	((-7.166734e-05 1.111435e-08 -3.157406e-05) (-1.312954e-04 2.315642e-11 -4.543804e-06)) ((-6.601343e-13 -8.659109e-09 -4.478213e-13) (-1.081839e-11 9.090977e-06 -3.824077e-12))
0.385805      	((-6.161734e-05 -1.888341e-09 -3.006723e-05) (-1.176280e-04 -6.217036e-11 -5.467755e-06)) ((-5.541793e-13 -7.788531e-09 -7.465985e-13) (-9.540573e-12 8.188817e-06 -7.017893e-12))
0.474966      	((-5.786734e-05 9.121342e-09 -2.964320e-05) (-1.050167e-04 1.018957e-10 -6.284509e-06)) ((1.324447e-13 -7.937268e-09 -4.492322e-13) (-6.817224e-12 7.358367e-06 -6.549514e-12))
0.581959      	((-5.119768e-05 6.157967e-09 -2.870836e-05) (-9.372191e-05 2.060997e-10 -6.960847e-06)) ((4.961239e-13 -7.429886e-09 1.640706e-14) (-6.000877e-13 6.619315e-06 3.596304e-13))
0.710351      	((-4.770419e-05 7.312014e-09 -2.866321e-05) (-8.378441e-05 1.097672e-10 -7.532516e-06)) ((1.068153e-12 -7.447541e-09 7.476017e-13) (8.285249e-12 5.974611e-06 4.145955e-12))
0.864421      	((-4.307157e-05 2.748933e-09 -2.854504e-05) (-7.507029e-05 2.566197e-10 -8.053440e-06)) ((1.914355e-12 -7.145246e-09 3.867804e-13) (9.797112e-12 5.415009e-06 5.508937e-13))
1.049306      	((-4.008191e-05 4.187123e-09 -2.894631e-05) (-6.740673e-05 4.368859e-10 -8.587456e-06)) ((8.699592e-13 -7.088584e-09 1.180589e-12) (4.281722e-12 4.927995e-06 -1.037771e-11))
1.271167      	((-3.675287e-05 8.348854e-09 -2.961281e-05) (-6.067730e-05 7.814130e-10 -9.140878e-06)) ((2.430889e-12 -6.901319e-09 2.414962e-12) (-6.642945e-12 4.504897e-06 -2.848854e-11))
1.5374        	((-3.446114e-05 7.619149e-09 -3.056876e-05) (-5.482151e-05 2.427010e-09 -9.705442e-06)) ((3.125039e-12 -6.899207e-09 2.903719e-12) (-1.710938e-11 4.139838e-06 -4.700233e-11))
1.85688       	((-3.233957e-05 7.316149e-09 -3.176540e-05) (-4.979702e-05 2.069057e-09 -1.028012e-05)) ((3.350322e-12 -6.894569e-09 1.690369e-12) (-2.147795e-11 3.828308e-06 -6.527813e-11))
2.240256      	((-3.125041e-05 5.545815e-10 -3.303569e-05) (-4.553250e-05 1.187288e-09 -1.086932e-05)) ((2.612563e-12 -7.028007e-09 7.417756e-13) (-8.176206e-12 3.565536e-06 -7.417097e-11))
2.700307      	((-3.052770e-05 -3.904970e-09 -3.459370e-05) (-4.192551e-05 2.565644e-09 -1.150213e-05)) ((1.476807e-12 -7.161015e-09 -2.525626e-13) (7.395028e-11 3.344585e-06 -7.650299e-11))
3.252369      	((-3.048411e-05 -1.550695e-08 -3.655350e-05) (-3.887522e-05 2.502117e-09 -1.221530e-05)) ((6.376942e-14 -7.374770e-09 7.678744e-13) (1.766995e-10 3.157847e-06 -8.753082e-11))
3.914842      	((-3.071186e-05 -1.314038e-08 -3.868127e-05) (-3.628916e-05 2.424367e-09 -1.297986e-05)) ((-7.134524e-13 -7.587029e-09 1.446570e-12) (2.492803e-10 2.998707e-06 -1.190608e-10))
4.709811      	((-3.153454e-05 -4.492915e-09 -4.088204e-05) (-3.407991e-05 2.153104e-09 -1.377746e-05)) ((-1.166050e-12 -7.815892e-09 5.003577e-13) (2.524740e-10 2.863113e-06 -1.587213e-10))
5.663773      	((-3.261361e-05 2.511813e-09 -4.320121e-05) (-3.221711e-05 2.351031e-09 -1.461089e-05)) ((-1.079954e-12 -8.025330e-09 -3.671219e-13) (1.887519e-10 2.747991e-06 -1.565319e-10))
6.808528      	((-3.397089e-05 3.751896e-09 -4.563981e-05) (-3.069045e-05 2.653471e-09 -1.545389e-05)) ((-1.524592e-12 -8.228182e-09 -8.146411e-13) (1.184489e-10 2.650733e-06 -1.181437e-10))
8.146968      	((-3.544071e-05 5.172290e-10 -4.821925e-05) (-2.948166e-05 8.650035e-10 -1.628212e-05)) ((-2.838648e-12 -8.419062e-09 -7.907030e-13) (5.326171e-11 2.570504e-06 -7.129343e-11))
9.677946      	((-3.714025e-05 -1.720400e-09 -5.074992e-05) (-2.858146e-05 -5.941077e-10 -1.706558e-05)) ((-2.931524e-12 -8.600052e-09 -3.812184e-13) (-1.123456e-13 2.505473e-06 -4.222729e-11))
11.40054      	((-3.895574e-05 -8.617741e-09 -5.310228e-05) (-2.796207e-05 -1.194795e-09 -1.778159e-05)) ((-2.186195e-12 -8.772932e-09 -1.307593e-14) (-2.159929e-11 2.453904e-06 -2.931261e-11))
13.310815     	((-4.080723e-05 -6.334033e-09 -5.517061e-05) (-2.758749e-05 -9.712628e-10 -1.839897e-05)) ((-2.019145e-12 -8.955774e-09 3.814081e-14) (-2.364862e-12 2.414234e-06 -1.433741e-11))
15.217116     	((-4.247942e-05 -5.720782e-09 -5.687234e-05) (-2.741382e-05 -6.295024e-10 -1.885504e-05)) ((-2.023032e-12 -9.139011e-09 1.798140e-13) (2.220304e-11 2.385942e-06 1.280514e-11))
17.120997     	((-4.401536e-05 -3.024223e-09 -5.824648e-05) (-2.735651e-05 -7.403597e-10 -1.917666e-05)) ((-2.019517e-12 -9.306423e-09 4.609713e-13) (4.358735e-11 2.366254e-06 5.071620e-11))
19.024515     	((-4.527148e-05 -3.410874e-09 -5.929343e-05) (-2.736370e-05 -5.806235e-10 -1.938045e-05)) ((-2.102405e-12 -9.439199e-09 5.080053e-13) (5.808119e-11 2.353336e-06 6.905279e-11))
20.918867     	((-4.630052e-05 -2.955062e-09 -6.010111e-05) (-2.739930e-05 -2.710230e-10 -1.949946e-05)) ((-1.869588e-12 -9.539278e-09 5.424380e-13) (7.044083e-11 2.345362e-06 6.856564e-11))
22.793593     	((-4.712162e-05 -6.408761e-09 -6.072535e-05) (-2.743906e-05 1.765095e-10 -1.955854e-05)) ((-1.392245e-12 -9.614819e-09 3.895801e-13) (8.008785e-11 2.340930e-06 5.426372e-11))
24.646793     	((-4.772464e-05 -6.989340e-09 -6.118133e-05) (-2.747410e-05 7.495918e-10 -1.957943e-05)) ((-1.020236e-12 -9.670766e-09 2.576985e-13) (8.585829e-11 2.338843e-06 2.917783e-11))
26.48042      	((-4.810629e-05 -8.473996e-09 -6.148740e-05) (-2.750107e-05 1.217968e-09 -1.957707e-05)) ((-6.382624e-13 -9.709152e-09 7.621981e-14) (8.277764e-11 2.338275e-06 2.238071e-12))
28.298886     	((-4.836667e-05 -7.213268e-09 -6.171476e-05) (-2.752040e-05 1.537979e-09 -1.956105e-05)) ((-5.755544e-13 -9.737022e-09 -1.759707e-14) (7.619946e-11 2.338643e-06 -1.707359e-11))
30.107026     	((-4.851787e-05 -6.941689e-09 -6.186429e-05) (-2.753513e-05 1.647887e-09 -1.953997e-05)) ((-6.618982e-13 -9.754935e-09 -3.216149e-14) (6.998058e-11 2.339455e-06 -2.723682e-11))
31.909103     	((-4.859798e-05 -4.222292e-09 -6.197128e-05) (-2.754722e-05 1.716343e-09 -1.951502e-05)) ((-7.760988e-13 -9.764523e-09 -5.753707e-14) (6.745643e-11 2.340561e-06 -3.059646e-11))
33.707725     	((-4.862906e-05 -5.207249e-09 -6.206396e-05) (-2.755765e-05 1.700697e-09 -1.948540e-05)) ((-8.399106e-13 -9.764565e-09 -4.172611e-14) (6.785672e-11 2.341932e-06 -2.988162e-11))
35.50486      	((-4.862217e-05 -5.345743e-09 -6.214946e-05) (-2.756674e-05 1.621680e-09 -1.945301e-05)) ((-8.379127e-13 -9.757143e-09 -4.662173e-14) (6.649763e-11 2.343404e-06 -2.825305e-11))
37.301698     	((-4.863655e-05 -5.048473e-09 -6.221959e-05) (-2.757549e-05 1.542856e-09 -1.941668e-05)) ((-9.284741e-13 -9.754033e-09 -9.183426e-14) (6.709356e-11 2.344999e-06 -2.560678e-11))
39.098619     	((-4.863266e-05 -7.271473e-09 -6.226493e-05) (-2.758328e-05 1.481117e-09 -1.937889e-05)) ((-8.686090e-13 -9.758310e-09 -5.493293e-14) (6.211638e-11 2.346586e-06 -3.064534e-11))
40.895496     	((-4.862108e-05 -7.220031e-09 -6.229608e-05) (-2.758987e-05 1.395842e-09 -1.934801e-05)) ((-8.457393e-13 -9.771029e-09 -1.330253e-13) (5.390072e-11 2.347743e-06 -3.732774e-11))
42.692047     	((-4.861164e-05 -9.477551e-09 -6.230917e-05) (-2.759480e-05 1.080410e-09 -1.932730e-05)) ((-7.459110e-13 -9.793310e-09 -2.588321e-13) (3.886899e-11 2.348368e-06 -3.756431e-11))
44.488098     	((-4.859426e-05 -8.842678e-09 -6.232437e-05) (-2.759820e-05 8.728028e-10 -1.931539e-05)) ((-8.697173e-13 -9.814279e-09 -2.828928e-13) (2.426167e-11 2.348537e-06 -3.505851e-11))
46.283632     	((-4.855887e-05 -7.568644e-09 -6.233180e-05) (-2.759988e-05 7.644026e-10 -1.930686e-05)) ((-1.015155e-12 -9.828434e-09 -3.128598e-13) (1.468602e-11 2.348472e-06 -2.901815e-11))
48.078752     	((-4.849604e-05 -6.951847e-09 -6.233063e-05) (-2.759971e-05 6.705008e-10 -1.929908e-05)) ((-1.010489e-12 -9.834938e-09 -3.040813e-13) (7.865854e-12 2.348299e-06 -2.189369e-11))
49.8736       	((-4.840801e-05 -9.404554e-09 -6.233126e-05) (-2.759767e-05 5.093978e-10 -1.928929e-05)) ((-9.527789e-13 -9.835718e-09 -2.944886e-13) (7.805443e-13 2.348095e-06 -1.454437e-11))
51.66829      	((-4.829529e-05 -1.008352e-08 -6.233482e-05) (-2.759373e-05 3.165194e-10 -1.927663e-05)) ((-8.298521e-13 -9.832999e-09 -2.356613e-13) (-5.955899e-12 2.347824e-06 -6.793326e-12))
53.462888     	((-4.818626e-05 -1.238926e-08 -6.233979e-05) (-2.758871e-05 1.186890e-10 -1.926230e-05)) ((-6.755807e-13 -9.830000e-09 -2.322651e-13) (-1.381154e-11 2.347477e-06 -1.119262e-13))
55.257444     	((-4.808628e-05 -1.563759e-08 -6.234025e-05) (-2.758278e-05 -1.673381e-10 -1.924835e-05)) ((-4.804833e-13 -9.827435e-09 -2.340022e-13) (-2.710461e-11 2.347078e-06 7.182077e-12))
57.051987     	((-4.800392e-05 -1.017876e-08 -6.233853e-05) (-2.757648e-05 -2.472372e-10 -1.923578e-05)) ((-5.699449e-13 -9.825437e-09 -2.104142e-13) (-2.824193e-11 2.346661e-06 1.570907e-11))
58.846538     	((-4.793428e-05 -7.022613e-09 -6.234290e-05) (-2.757048e-05 -1.767049e-10 -1.922451e-05)) ((-5.217341e-13 -9.824443e-09 -2.820884e-13) (-2.247858e-11 2.346250e-06 2.129306e-11))
60.64114      	((-4.788567e-05 -6.953004e-09 -6.236131e-05) (-2.756522e-05 -1.478663e-10 -1.921583e-05)) ((-4.781171e-13 -9.825007e-09 -3.244555e-13) (-1.597941e-11 2.345863e-06 2.283599e-11))
62.435853     	((-4.783709e-05 -8.205496e-09 -6.239519e-05) (-2.756046e-05 -2.106922e-10 -1.920971e-05)) ((-3.476208e-13 -9.825921e-09 -3.614205e-13) (-1.297411e-11 2.345530e-06 2.047414e-11))
64.230739     	((-4.778534e-05 -8.275415e-09 -6.242436e-05) (-2.755676e-05 -2.825331e-10 -1.920444e-05)) ((-3.508435e-13 -9.826498e-09 -4.074401e-13) (-1.401259e-11 2.345262e-06 1.471579e-11))
66.025853     	((-4.775011e-05 -6.898383e-09 -6.243663e-05) (-2.755448e-05 -2.339360e-10 -1.919865e-05)) ((-3.562440e-13 -9.826354e-09 -4.188863e-13) (-1.181585e-11 2.345063e-06 7.278116e-12))
67.821208     	((-4.772936e-05 -8.209123e-09 -6.243373e-05) (-2.755357e-05 -2.465458e-10 -1.919220e-05)) ((-2.210942e-13 -9.825563e-09 -4.224842e-13) (-1.367672e-11 2.344946e-06 -2.545363e-12))
69.616723     	((-4.771419e-05 -3.268569e-09 -6.240978e-05) (-2.755376e-05 -9.036234e-11 -1.918512e-05)) ((-2.424321e-13 -9.823837e-09 -4.375568e-13) (-9.194295e-12 2.344898e-06 -1.281051e-11))
71.412272     	((-4.769821e-05 -9.378227e-09 -6.235882e-05) (-2.755437e-05 -1.179701e-10 -1.917706e-05)) ((1.269184e-13 -9.821251e-09 -3.985060e-13) (-2.235040e-11 2.344888e-06 -2.419680e-11))
73.207668     	((-4.767452e-05 -7.065423e-09 -6.230313e-05) (-2.755474e-05 -1.687381e-10 -1.916831e-05)) ((-1.673017e-13 -9.817941e-09 -3.535692e-13) (-3.444055e-11 2.344884e-06 -3.462924e-11))
75.002745     	((-4.766175e-05 -9.415037e-09 -6.228234e-05) (-2.755518e-05 -2.879205e-10 -1.915918e-05)) ((-3.750739e-13 -9.814841e-09 -3.079510e-13) (-4.937498e-11 2.344899e-06 -4.470173e-11))
