# Forces      
# CofR        : (0.000000e+00 0.000000e+00 0.000000e+00)
# Time        forces(pressure viscous)	moments(pressure viscous)
0             	((0.000000e+00 0.000000e+00 0.000000e+00) (0.000000e+00 0.000000e+00 0.000000e+00)) ((0.000000e+00 0.000000e+00 0.000000e+00) (0.000000e+00 0.000000e+00 0.000000e+00))
0.012         	((-9.279021e-13 3.626612e-08 5.874054e-09) (-9.921103e-15 8.342320e-08 -5.082389e-15)) ((5.297138e-12 1.917380e-14 -4.851979e-14) (5.551444e-09 5.135175e-16 8.966903e-15))
0.0264        	((-2.116459e-11 4.874521e-08 1.244228e-08) (-4.767667e-14 7.641603e-08 -2.250027e-14)) ((-2.406397e-12 4.167333e-14 -2.142841e-14) (5.090661e-09 1.278177e-15 9.251429e-15))
0.04368       	((1.632012e-11 3.296083e-08 6.750221e-09) (-6.138346e-14 6.918440e-08 -4.598961e-14)) ((-1.787563e-12 2.193516e-14 -2.413364e-14) (4.616507e-09 3.871906e-16 1.728551e-14))
0.064416      	((-1.861120e-11 3.726473e-08 8.732247e-09) (-8.343977e-14 6.188793e-08 -9.650885e-14)) ((-3.529275e-12 2.903901e-14 -1.517427e-14) (4.139718e-09 -1.125115e-15 6.613487e-15))
0.0892992     	((9.203890e-12 2.750833e-08 5.823570e-09) (-8.481146e-14 5.473473e-08 -1.185832e-13)) ((-2.519365e-12 1.912951e-14 -1.008375e-14) (3.673868e-09 -2.506414e-15 -2.042012e-14))
0.119159      	((-6.783001e-12 2.821014e-08 6.319970e-09) (-5.330826e-14 4.795341e-08 -1.022076e-13)) ((-3.084891e-12 2.082483e-14 -5.285134e-15) (3.234226e-09 -2.458313e-15 -3.115331e-14))
0.154991      	((4.616546e-12 2.124369e-08 4.511497e-09) (-2.596606e-14 4.175474e-08 -1.171140e-13)) ((-2.156162e-12 1.505331e-14 -2.363612e-15) (2.830149e-09 -2.444266e-15 -3.509026e-14))
0.197989      	((-1.550100e-12 2.096739e-08 4.543443e-09) (-1.190005e-14 3.626889e-08 -1.687187e-13)) ((-2.431028e-12 1.519182e-14 -3.537938e-15) (2.472231e-09 -2.248862e-15 -3.706094e-14))
0.249587      	((1.511109e-12 1.628594e-08 3.522940e-09) (-3.934715e-15 3.159453e-08 -2.460373e-13)) ((-1.741482e-12 1.157100e-14 -2.812697e-15) (2.164938e-09 -9.248768e-16 -3.460037e-14))
0.311504      	((5.736600e-13 1.580861e-08 3.412635e-09) (9.440325e-15 2.770879e-08 -3.357098e-13)) ((-1.917450e-12 1.150738e-14 -5.092554e-15) (1.908420e-09 -1.043262e-16 -2.731772e-14))
0.385805      	((2.398508e-15 1.273987e-08 2.833840e-09) (1.773589e-14 2.449895e-08 -4.083909e-13)) ((-1.428593e-12 9.315941e-15 -3.154679e-15) (1.696296e-09 6.373374e-16 -1.542622e-14))
0.474966      	((3.634645e-13 1.234963e-08 2.674322e-09) (1.309487e-14 2.184406e-08 -4.588101e-13)) ((-1.551512e-12 9.124032e-15 -4.429915e-15) (1.521171e-09 3.151884e-16 -5.263963e-15))
0.581959      	((-5.618751e-13 1.028739e-08 2.303211e-09) (-1.308416e-14 1.960961e-08 -5.298756e-13)) ((-1.195620e-12 7.462919e-15 -2.987293e-15) (1.373669e-09 5.223621e-16 -5.937200e-15))
0.710351      	((1.413223e-13 9.969407e-09 2.133580e-09) (-3.495948e-14 1.769036e-08 -6.248794e-13)) ((-1.288236e-12 7.316772e-15 -4.627507e-15) (1.247427e-09 -5.869708e-16 -5.814985e-15))
0.864421      	((-1.149719e-12 8.487678e-09 1.887712e-09) (-4.622477e-14 1.600287e-08 -6.837995e-13)) ((-1.035932e-12 6.184156e-15 -3.265295e-15) (1.136510e-09 -1.052125e-15 -1.193564e-14))
1.049306      	((-2.922201e-14 8.168067e-09 1.742026e-09) (-5.589279e-14 1.450068e-08 -6.797201e-13)) ((-1.108847e-12 6.008993e-15 -2.744992e-15) (1.038228e-09 -2.831885e-15 -1.939863e-14))
1.271167      	((-8.046930e-13 7.020397e-09 1.558394e-09) (-6.290731e-14 1.314518e-08 -7.058276e-13)) ((-9.345552e-13 5.265954e-15 -1.421386e-17) (9.496358e-10 -4.480126e-15 -2.170866e-14))
1.5374        	((-6.965405e-13 6.677165e-09 1.428155e-09) (-6.993387e-14 1.192158e-08 -6.713738e-13)) ((-9.749206e-13 5.054100e-15 3.252661e-16) (8.697695e-10 -8.193944e-15 -1.774740e-14))
1.85688       	((-6.185447e-13 5.783228e-09 1.290295e-09) (-9.823470e-14 1.081554e-08 -6.671284e-13)) ((-8.471203e-13 4.602300e-15 1.754582e-15) (7.977257e-10 -1.426634e-14 -1.890937e-14))
2.240256      	((-6.305363e-13 5.425302e-09 1.193992e-09) (-1.392211e-13 9.821897e-09 -4.851402e-13)) ((-8.595002e-13 4.359616e-15 1.419134e-15) (7.329420e-10 -2.112055e-14 -2.813924e-14))
2.700307      	((-1.631147e-13 4.755781e-09 1.099330e-09) (-1.932075e-13 8.942803e-09 -2.474134e-13)) ((-7.691182e-13 4.062263e-15 2.196831e-15) (6.756750e-10 -2.798651e-14 -3.695645e-14))
3.252369      	((-1.021622e-12 4.428214e-09 1.031094e-09) (-2.218278e-13 8.166195e-09 7.639452e-14)) ((-7.712379e-13 3.901566e-15 1.653315e-15) (6.250355e-10 -3.542238e-14 -3.846402e-14))
3.914842      	((1.620134e-13 3.947564e-09 9.601359e-10) (-1.352886e-13 7.483281e-09 3.976509e-13)) ((-7.188210e-13 3.550364e-15 1.727423e-15) (5.806353e-10 -4.495345e-14 -3.094712e-14))
4.709811      	((-2.606967e-13 3.653052e-09 9.029862e-10) (-5.493277e-14 6.882155e-09 6.699500e-13)) ((-7.126801e-13 3.232181e-15 1.527596e-15) (5.416299e-10 -5.169765e-14 -1.971463e-14))
5.663773      	((6.021635e-14 3.303678e-09 8.374622e-10) (-6.779935e-14 6.348944e-09 9.410047e-13)) ((-6.784043e-13 2.877342e-15 1.621576e-15) (5.071285e-10 -5.169552e-14 -1.029738e-14))
6.808528      	((-7.924707e-13 3.046941e-09 7.769759e-10) (-1.093207e-13 5.870893e-09 1.144989e-12)) ((-6.640202e-13 2.868422e-15 1.643280e-15) (4.762857e-10 -4.869667e-14 -1.260545e-15))
8.182233      	((-8.203588e-13 2.776436e-09 7.115475e-10) (-1.848448e-13 5.437219e-09 1.220299e-12)) ((-6.420280e-13 2.542567e-15 1.893894e-15) (4.484500e-10 -4.541293e-14 2.836310e-15))
9.83068       	((-7.163997e-13 2.545890e-09 6.528042e-10) (-2.475186e-13 5.040303e-09 1.084310e-12)) ((-6.263527e-13 2.411833e-15 1.872512e-15) (4.231139e-10 -4.179512e-14 3.430470e-15))
11.808816     	((-2.836420e-13 2.328328e-09 5.978563e-10) (-2.866531e-13 4.676156e-09 7.485993e-13)) ((-6.102235e-13 2.087577e-15 1.940326e-15) (4.000236e-10 -3.695589e-14 5.127155e-15))
14.182579     	((-4.557276e-13 2.137790e-09 5.552688e-10) (-3.103806e-13 4.341731e-09 3.430994e-13)) ((-5.946096e-13 1.941701e-15 1.929705e-15) (3.789311e-10 -3.225084e-14 1.756726e-15))
17.031095     	((-5.711088e-13 1.959912e-09 5.197470e-10) (-3.207409e-13 4.034389e-09 5.309114e-14)) ((-5.822611e-13 1.777482e-15 1.984148e-15) (3.597183e-10 -2.641456e-14 -4.109028e-16))
20.449314     	((-7.278986e-13 1.801229e-09 4.956326e-10) (-3.223057e-13 3.752600e-09 -1.693352e-13)) ((-5.700207e-13 1.713661e-15 2.034687e-15) (3.422375e-10 -1.940130e-14 1.749144e-15))
24.551176     	((-5.139829e-13 1.652183e-09 4.754632e-10) (-3.266605e-13 3.494669e-09 -2.992770e-13)) ((-5.612615e-13 1.625114e-15 2.081666e-15) (3.263559e-10 -1.340482e-14 3.049458e-15))
29.473411     	((-4.275667e-13 1.518113e-09 4.545670e-10) (-3.210173e-13 3.259099e-09 -4.139500e-13)) ((-5.527106e-13 1.578819e-15 2.125263e-15) (3.119414e-10 -1.037291e-14 1.334797e-15))
35.380094     	((-3.885245e-13 1.393247e-09 4.344397e-10) (-3.409934e-13 3.043992e-09 -4.592475e-13)) ((-5.460468e-13 1.513787e-15 2.166747e-15) (2.988476e-10 -8.412378e-15 4.230510e-15))
42.468112     	((-3.181435e-13 1.281253e-09 4.139774e-10) (-3.494536e-13 2.847339e-09 -4.561934e-13)) ((-5.397600e-13 1.480714e-15 2.184748e-15) (2.869213e-10 -7.551499e-15 8.621413e-15))
50.973735     	((-2.856170e-13 1.177451e-09 3.938305e-10) (-3.465702e-13 2.667428e-09 -4.601957e-13)) ((-5.344491e-13 1.420368e-15 2.193315e-15) (2.760579e-10 -8.494360e-15 1.232024e-14))
61.180482     	((-3.301198e-13 1.083245e-09 3.759605e-10) (-3.284096e-13 2.503053e-09 -4.271439e-13)) ((-5.295489e-13 1.338179e-15 2.191489e-15) (2.661921e-10 -9.133501e-15 1.531453e-14))
73.428578     	((-1.840153e-13 9.976266e-10 3.591878e-10) (-2.934521e-13 2.353243e-09 -4.005269e-13)) ((-5.254865e-13 1.266584e-15 2.163412e-15) (2.572643e-10 -1.071415e-14 1.845782e-14))
88.126294     	((-1.886278e-13 9.196874e-10 3.427115e-10) (-2.613536e-13 2.216955e-09 -4.076618e-13)) ((-5.219777e-13 1.173013e-15 2.167351e-15) (2.492090e-10 -1.265929e-14 2.010762e-14))
105.763553    	((-9.798885e-16 8.517014e-10 3.282476e-10) (-1.994760e-13 2.093291e-09 -3.977922e-13)) ((-5.191607e-13 1.125311e-15 2.164781e-15) (2.419643e-10 -1.452492e-14 2.281267e-14))
126.928263    	((8.351721e-14 7.898104e-10 3.161727e-10) (-1.547680e-13 1.981432e-09 -3.826914e-13)) ((-5.167489e-13 1.077376e-15 2.147397e-15) (2.354707e-10 -1.623750e-14 2.519896e-14))
152.325916    	((1.779040e-13 7.351359e-10 3.061479e-10) (-1.237966e-13 1.880353e-09 -3.750719e-13)) ((-5.147394e-13 1.036875e-15 2.144536e-15) (2.296524e-10 -1.773765e-14 2.648112e-14))
182.803099    	((2.109885e-13 6.865028e-10 2.959894e-10) (-1.041967e-13 1.789125e-09 -3.870033e-13)) ((-5.130255e-13 9.920753e-16 2.125182e-15) (2.244422e-10 -1.892946e-14 2.722376e-14))
219.375719    	((1.821483e-13 6.436447e-10 2.870969e-10) (-7.176067e-14 1.706851e-09 -4.228495e-13)) ((-5.116375e-13 9.601330e-16 2.103348e-15) (2.197822e-10 -2.029441e-14 2.782740e-14))
263.262863    	((2.019004e-13 6.053634e-10 2.790007e-10) (-3.953917e-14 1.632730e-09 -5.251196e-13)) ((-5.105415e-13 9.279535e-16 2.076201e-15) (2.156215e-10 -2.040502e-14 2.853650e-14))
315.927436    	((1.804559e-13 5.718842e-10 2.711775e-10) (-2.210714e-14 1.566080e-09 -6.352192e-13)) ((-5.096462e-13 8.969943e-16 2.057248e-15) (2.119154e-10 -1.931018e-14 2.877559e-14))
379.124923    	((2.007765e-13 5.425951e-10 2.633256e-10) (-1.155202e-14 1.506359e-09 -7.718455e-13)) ((-5.089231e-13 8.625906e-16 2.063768e-15) (2.086262e-10 -1.803420e-14 2.839004e-14))
454.961908    	((2.002238e-13 5.175798e-10 2.566556e-10) (-3.225290e-15 1.453154e-09 -9.269484e-13)) ((-5.083818e-13 8.395020e-16 2.066328e-15) (2.057248e-10 -1.767020e-14 2.811022e-14))
545.966289    	((2.035778e-13 4.963503e-10 2.519278e-10) (7.646070e-16 1.406106e-09 -1.102720e-12)) ((-5.079491e-13 8.235759e-16 2.067362e-15) (2.031841e-10 -1.778922e-14 2.811476e-14))
655.171547    	((1.875915e-13 4.786800e-10 2.479252e-10) (-2.813422e-15 1.364894e-09 -1.263998e-12)) ((-5.076047e-13 8.104851e-16 2.067398e-15) (2.009784e-10 -1.731778e-14 2.826282e-14))
786.217856    	((1.881162e-13 4.640081e-10 2.444728e-10) (-1.027452e-14 1.329221e-09 -1.411611e-12)) ((-5.073013e-13 8.032100e-16 2.066851e-15) (1.990831e-10 -1.655621e-14 2.820240e-14))
943.473427    	((1.812114e-13 4.520547e-10 2.416771e-10) (-1.607925e-14 1.298756e-09 -1.563216e-12)) ((-5.070287e-13 7.904519e-16 2.068187e-15) (1.974720e-10 -1.599217e-14 2.780003e-14))
1132.180113   	((1.686263e-13 4.423655e-10 2.395007e-10) (-2.097279e-14 1.273134e-09 -1.725330e-12)) ((-5.068005e-13 7.817948e-16 2.070271e-15) (1.961203e-10 -1.559478e-14 2.723679e-14))
1358.628135   	((1.564004e-13 4.345877e-10 2.377954e-10) (-2.542069e-14 1.251928e-09 -1.888349e-12)) ((-5.066194e-13 7.753131e-16 2.072309e-15) (1.950017e-10 -1.545955e-14 2.659018e-14))
1630.365763   	((1.349962e-13 4.284049e-10 2.363905e-10) (-2.736378e-14 1.234656e-09 -2.047187e-12)) ((-5.064796e-13 7.685659e-16 2.075583e-15) (1.940887e-10 -1.529173e-14 2.599128e-14))
1956.450915   	((1.249659e-13 4.235385e-10 2.352638e-10) (-2.876798e-14 1.220817e-09 -2.196348e-12)) ((-5.063723e-13 7.635139e-16 2.078665e-15) (1.933538e-10 -1.511690e-14 2.538790e-14))
2347.753098   	((1.187177e-13 4.197483e-10 2.344017e-10) (-2.970757e-14 1.209902e-09 -2.330027e-12)) ((-5.062869e-13 7.592833e-16 2.080887e-15) (1.927698e-10 -1.495206e-14 2.477653e-14))
2817.315718   	((1.206156e-13 4.168247e-10 2.337105e-10) (-2.973604e-14 1.201420e-09 -2.444104e-12)) ((-5.062189e-13 7.548139e-16 2.082914e-15) (1.923111e-10 -1.479747e-14 2.423194e-14))
3380.790861   	((1.221838e-13 4.145804e-10 2.331924e-10) (-2.966049e-14 1.194917e-09 -2.539374e-12)) ((-5.061654e-13 7.524776e-16 2.085044e-15) (1.919545e-10 -1.467349e-14 2.379096e-14))
4056.961033   	((1.229989e-13 4.128645e-10 2.328021e-10) (-2.946076e-14 1.189992e-09 -2.615626e-12)) ((-5.061219e-13 7.512022e-16 2.086732e-15) (1.916798e-10 -1.457239e-14 2.344816e-14))
4868.36524    	((1.228063e-13 4.115566e-10 2.325210e-10) (-2.868019e-14 1.186303e-09 -2.676177e-12)) ((-5.060863e-13 7.504794e-16 2.088140e-15) (1.914698e-10 -1.452642e-14 2.318226e-14))
5842.050288   	((1.225586e-13 4.105647e-10 2.322994e-10) (-2.736244e-14 1.183567e-09 -2.724357e-12)) ((-5.060571e-13 7.498692e-16 2.089487e-15) (1.913102e-10 -1.452618e-14 2.297291e-14))
7010.472346   	((1.225447e-13 4.098117e-10 2.321582e-10) (-2.602664e-14 1.181555e-09 -2.762162e-12)) ((-5.060332e-13 7.494437e-16 2.090669e-15) (1.911895e-10 -1.453790e-14 2.280851e-14))
8412.578815   	((1.215849e-13 4.092391e-10 2.320430e-10) (-2.484401e-14 1.180088e-09 -2.791720e-12)) ((-5.060138e-13 7.490926e-16 2.091630e-15) (1.910986e-10 -1.455401e-14 2.267693e-14))
10095.106578  	((1.213933e-13 4.088063e-10 2.319446e-10) (-2.376563e-14 1.179027e-09 -2.814462e-12)) ((-5.059977e-13 7.488441e-16 2.092426e-15) (1.910303e-10 -1.457390e-14 2.257259e-14))
12114.139893  	((1.218811e-13 4.084766e-10 2.318871e-10) (-2.285872e-14 1.178263e-09 -2.831795e-12)) ((-5.059845e-13 7.486871e-16 2.093050e-15) (1.909791e-10 -1.459396e-14 2.249488e-14))
14536.979872  	((1.223662e-13 4.082244e-10 2.318474e-10) (-2.217705e-14 1.177717e-09 -2.844816e-12)) ((-5.059736e-13 7.485694e-16 2.093498e-15) (1.909407e-10 -1.460948e-14 2.243988e-14))
17444.387847  	((1.230908e-13 4.080308e-10 2.318194e-10) (-2.168629e-14 1.177329e-09 -2.854438e-12)) ((-5.059647e-13 7.484786e-16 2.093865e-15) (1.909120e-10 -1.461943e-14 2.239987e-14))
20933.277416  	((1.229571e-13 4.078821e-10 2.318058e-10) (-2.128931e-14 1.177054e-09 -2.861491e-12)) ((-5.059573e-13 7.484500e-16 2.094113e-15) (1.908905e-10 -1.462620e-14 2.236928e-14))
25112.342794  	((1.232238e-13 4.077662e-10 2.317843e-10) (-2.102077e-14 1.176861e-09 -2.866550e-12)) ((-5.059513e-13 7.483790e-16 2.094319e-15) (1.908744e-10 -1.463063e-14 2.234786e-14))
29981.582687  	((1.231907e-13 4.076765e-10 2.317770e-10) (-2.081414e-14 1.176727e-09 -2.870168e-12)) ((-5.059469e-13 7.483253e-16 2.094487e-15) (1.908623e-10 -1.463406e-14 2.233280e-14))
35540.996146  	((1.228657e-13 4.076069e-10 2.317681e-10) (-2.065200e-14 1.176633e-09 -2.872734e-12)) ((-5.059438e-13 7.482619e-16 2.094644e-15) (1.908532e-10 -1.463741e-14 2.232241e-14))
41790.582487  	((1.211662e-13 4.075527e-10 2.317672e-10) (-2.055252e-14 1.176569e-09 -2.874569e-12)) ((-5.059414e-13 7.482414e-16 2.094764e-15) (1.908464e-10 -1.464071e-14 2.231770e-14))
48692.306355  	((1.196579e-13 4.075108e-10 2.317592e-10) (-2.047612e-14 1.176524e-09 -2.875877e-12)) ((-5.059397e-13 7.481942e-16 2.094879e-15) (1.908413e-10 -1.464277e-14 2.231474e-14))
55594.026658  	((1.184646e-13 4.074788e-10 2.317549e-10) (-2.041614e-14 1.176495e-09 -2.876743e-12)) ((-5.059397e-13 7.481832e-16 2.094952e-15) (1.908375e-10 -1.464490e-14 2.231230e-14))
62495.744881  	((1.174622e-13 4.074544e-10 2.317566e-10) (-2.037896e-14 1.176475e-09 -2.877366e-12)) ((-5.059399e-13 7.481952e-16 2.095020e-15) (1.908346e-10 -1.464624e-14 2.231040e-14))
69397.462037  	((1.179527e-13 4.074348e-10 2.317558e-10) (-2.029156e-14 1.176461e-09 -2.877757e-12)) ((-5.059401e-13 7.481939e-16 2.095133e-15) (1.908324e-10 -1.464898e-14 2.230768e-14))
76299.1786    	((1.184116e-13 4.074191e-10 2.317552e-10) (-2.024881e-14 1.176452e-09 -2.878048e-12)) ((-5.059404e-13 7.482008e-16 2.095158e-15) (1.908307e-10 -1.464968e-14 2.230894e-14))
83200.894817  	((1.186503e-13 4.074065e-10 2.317548e-10) (-2.021359e-14 1.176447e-09 -2.878244e-12)) ((-5.059406e-13 7.481991e-16 2.095184e-15) (1.908294e-10 -1.465005e-14 2.230899e-14))
90102.610831  	((1.187619e-13 4.073964e-10 2.317545e-10) (-2.018405e-14 1.176443e-09 -2.878379e-12)) ((-5.059407e-13 7.481941e-16 2.095208e-15) (1.908285e-10 -1.465039e-14 2.230886e-14))
97004.32673   	((1.169123e-13 4.073883e-10 2.317550e-10) (-2.012186e-14 1.176441e-09 -2.878496e-12)) ((-5.059409e-13 7.481929e-16 2.095214e-15) (1.908277e-10 -1.465199e-14 2.230838e-14))
103906.042566 	((1.177444e-13 4.073813e-10 2.317537e-10) (-2.013343e-14 1.176440e-09 -2.878583e-12)) ((-5.059410e-13 7.481911e-16 2.095241e-15) (1.908271e-10 -1.465164e-14 2.230783e-14))
110807.758374 	((1.181096e-13 4.073758e-10 2.317537e-10) (-2.012828e-14 1.176439e-09 -2.878638e-12)) ((-5.059412e-13 7.481878e-16 2.095260e-15) (1.908267e-10 -1.465168e-14 2.230751e-14))
117709.474177 	((1.163600e-13 4.073714e-10 2.317540e-10) (-2.007931e-14 1.176439e-09 -2.878686e-12)) ((-5.059413e-13 7.481855e-16 2.095259e-15) (1.908264e-10 -1.465323e-14 2.230691e-14))
124611.189985 	((1.172722e-13 4.073677e-10 2.317528e-10) (-2.010346e-14 1.176439e-09 -2.878717e-12)) ((-5.059413e-13 7.481868e-16 2.095268e-15) (1.908261e-10 -1.465297e-14 2.230668e-14))
131512.905807 	((1.157928e-13 4.073649e-10 2.317533e-10) (-2.006793e-14 1.176439e-09 -2.878754e-12)) ((-5.059414e-13 7.481867e-16 2.095272e-15) (1.908259e-10 -1.465410e-14 2.230667e-14))
138414.621642 	((1.168274e-13 4.073624e-10 2.317521e-10) (-2.009716e-14 1.176439e-09 -2.878779e-12)) ((-5.059415e-13 7.481859e-16 2.095293e-15) (1.908258e-10 -1.465349e-14 2.230704e-14))
145316.337494 	((1.163164e-13 4.073600e-10 2.317527e-10) (-2.011200e-14 1.176440e-09 -2.878800e-12)) ((-5.059415e-13 7.481473e-16 2.095325e-15) (1.908256e-10 -1.465269e-14 2.230749e-14))
152218.053361 	((1.171466e-13 4.073583e-10 2.317534e-10) (-2.010905e-14 1.176440e-09 -2.878798e-12)) ((-5.059416e-13 7.481542e-16 2.095318e-15) (1.908255e-10 -1.465254e-14 2.230735e-14))
159119.769241 	((1.177185e-13 4.073569e-10 2.317530e-10) (-2.010372e-14 1.176440e-09 -2.878803e-12)) ((-5.059416e-13 7.481620e-16 2.095309e-15) (1.908255e-10 -1.465234e-14 2.230516e-14))
166021.485134 	((1.160501e-13 4.073559e-10 2.317530e-10) (-2.006396e-14 1.176440e-09 -2.878818e-12)) ((-5.059417e-13 7.481670e-16 2.095297e-15) (1.908254e-10 -1.465373e-14 2.230586e-14))
172923.201037 	((1.169655e-13 4.073550e-10 2.317517e-10) (-2.009229e-14 1.176440e-09 -2.878831e-12)) ((-5.059417e-13 7.481712e-16 2.095312e-15) (1.908254e-10 -1.465324e-14 2.230626e-14))
179824.916949 	((1.163781e-13 4.073540e-10 2.317523e-10) (-2.010700e-14 1.176441e-09 -2.878844e-12)) ((-5.059417e-13 7.481354e-16 2.095340e-15) (1.908253e-10 -1.465255e-14 2.230667e-14))
186726.63287  	((1.171722e-13 4.073533e-10 2.317529e-10) (-2.010464e-14 1.176441e-09 -2.878836e-12)) ((-5.059417e-13 7.481443e-16 2.095327e-15) (1.908253e-10 -1.465246e-14 2.230636e-14))
193628.348796 	((1.177083e-13 4.073528e-10 2.317525e-10) (-2.010349e-14 1.176441e-09 -2.878834e-12)) ((-5.059418e-13 7.481544e-16 2.095325e-15) (1.908253e-10 -1.465225e-14 2.230661e-14))
200530.064728 	((1.160159e-13 4.073525e-10 2.317524e-10) (-2.006139e-14 1.176441e-09 -2.878847e-12)) ((-5.059418e-13 7.481613e-16 2.095310e-15) (1.908253e-10 -1.465368e-14 2.230663e-14))
207431.780664 	((1.169191e-13 4.073522e-10 2.317512e-10) (-2.009009e-14 1.176441e-09 -2.878857e-12)) ((-5.059418e-13 7.481668e-16 2.095323e-15) (1.908252e-10 -1.465323e-14 2.230683e-14))
214333.496604 	((1.163200e-13 4.073516e-10 2.317518e-10) (-2.010517e-14 1.176441e-09 -2.878867e-12)) ((-5.059418e-13 7.481319e-16 2.095349e-15) (1.908252e-10 -1.465256e-14 2.230705e-14))
221235.212547 	((1.171111e-13 4.073513e-10 2.317523e-10) (-2.010323e-14 1.176441e-09 -2.878858e-12)) ((-5.059418e-13 7.481417e-16 2.095335e-15) (1.908252e-10 -1.465247e-14 2.230664e-14))
228136.928492 	((1.176442e-13 4.073511e-10 2.317519e-10) (-2.010200e-14 1.176441e-09 -2.878853e-12)) ((-5.059418e-13 7.481525e-16 2.095332e-15) (1.908252e-10 -1.465228e-14 2.230663e-14))
235038.64444  	((1.159504e-13 4.073511e-10 2.317519e-10) (-2.005982e-14 1.176441e-09 -2.878865e-12)) ((-5.059418e-13 7.481599e-16 2.095316e-15) (1.908252e-10 -1.465372e-14 2.230649e-14))
241940.360388 	((1.168554e-13 4.073510e-10 2.317506e-10) (-2.008891e-14 1.176441e-09 -2.878874e-12)) ((-5.059418e-13 7.481658e-16 2.095329e-15) (1.908252e-10 -1.465327e-14 2.230664e-14))
248842.076338 	((1.162575e-13 4.073506e-10 2.317513e-10) (-2.010423e-14 1.176441e-09 -2.878883e-12)) ((-5.059418e-13 7.481312e-16 2.095354e-15) (1.908252e-10 -1.465260e-14 2.230686e-14))
255743.792289 	((1.170516e-13 4.073505e-10 2.317518e-10) (-2.010252e-14 1.176441e-09 -2.878872e-12)) ((-5.059418e-13 7.481413e-16 2.095339e-15) (1.908252e-10 -1.465250e-14 2.230644e-14))
262645.50824  	((1.175894e-13 4.073504e-10 2.317515e-10) (-2.010138e-14 1.176441e-09 -2.878867e-12)) ((-5.059418e-13 7.481524e-16 2.095335e-15) (1.908252e-10 -1.465230e-14 2.230639e-14))
269547.224193 	((1.158985e-13 4.073505e-10 2.317514e-10) (-2.005933e-14 1.176441e-09 -2.878878e-12)) ((-5.059419e-13 7.481601e-16 2.095317e-15) (1.908252e-10 -1.465373e-14 2.230615e-14))
276448.940145 	((1.168052e-13 4.073505e-10 2.317502e-10) (-2.008818e-14 1.176441e-09 -2.878886e-12)) ((-5.059418e-13 7.481660e-16 2.095331e-15) (1.908252e-10 -1.465330e-14 2.230635e-14))
283350.656099 	((1.162098e-13 4.073502e-10 2.317508e-10) (-2.010359e-14 1.176441e-09 -2.878894e-12)) ((-5.059418e-13 7.481314e-16 2.095356e-15) (1.908252e-10 -1.465263e-14 2.230660e-14))
290252.372053 	((1.170061e-13 4.073501e-10 2.317514e-10) (-2.010200e-14 1.176441e-09 -2.878883e-12)) ((-5.059418e-13 7.481416e-16 2.095340e-15) (1.908252e-10 -1.465252e-14 2.230620e-14))
297154.088007 	((1.175461e-13 4.073501e-10 2.317511e-10) (-2.010092e-14 1.176441e-09 -2.878877e-12)) ((-5.059419e-13 7.481527e-16 2.095336e-15) (1.908252e-10 -1.465232e-14 2.230614e-14))
304055.803961 	((1.158564e-13 4.073502e-10 2.317510e-10) (-2.005888e-14 1.176441e-09 -2.878887e-12)) ((-5.059419e-13 7.481605e-16 2.095318e-15) (1.908252e-10 -1.465375e-14 2.230591e-14))
