# Forces      
# CofR        : (0.000000e+00 0.000000e+00 0.000000e+00)
# Time        forces(pressure viscous)	moments(pressure viscous)
0             	((0.000000e+00 0.000000e+00 0.000000e+00) (-3.996944e-04 1.134889e-13 -3.887155e-09)) ((0.000000e+00 0.000000e+00 0.000000e+00) (-8.760276e-16 8.980654e-06 -2.498512e-15))
0.012         	((-1.162337e-01 6.548380e-08 1.207076e-02) (-4.577894e-04 5.373669e-10 -1.140730e-06)) ((5.162009e-12 -1.569211e-06 1.767445e-11) (-3.609058e-12 1.324647e-05 -8.608553e-12))
0.0264        	((1.008191e-02 -1.554019e-06 -1.215431e-03) (-4.649396e-04 -5.219550e-10 -1.781024e-06)) ((3.165052e-11 1.331979e-07 -3.413887e-12) (-7.923234e-11 1.478607e-05 -1.316361e-11))
0.04368       	((2.323153e-02 1.734767e-06 -7.704660e-04) (-4.111649e-04 -3.740490e-10 -1.747792e-06)) ((-3.965054e-11 3.536984e-07 -2.947508e-11) (-8.399140e-11 1.316093e-05 -7.001766e-12))
0.064416      	((2.073455e-04 1.278970e-07 -8.533841e-04) (-3.632024e-04 -1.868545e-09 -1.523581e-06)) ((1.002855e-11 -4.383107e-09 -6.143749e-12) (-3.545817e-11 1.184945e-05 -2.836804e-11))
0.0892992     	((-1.337319e-04 1.880361e-08 -6.035135e-04) (-3.347174e-04 -5.380405e-09 -1.761814e-06)) ((-2.022024e-11 -1.272937e-08 -3.464868e-12) (-9.753121e-12 1.120940e-05 -5.428785e-11))
0.119159      	((4.052832e-04 -3.314574e-07 -4.724370e-04) (-3.090607e-04 -6.012665e-09 -2.321669e-06)) ((1.177859e-11 6.562576e-09 1.037337e-11) (-1.595777e-11 1.050864e-05 -2.980026e-11))
0.154991      	((1.675170e-04 -1.992328e-08 -3.902692e-04) (-2.825384e-04 -5.100045e-09 -2.797577e-06)) ((5.723928e-12 3.166787e-09 -5.558157e-12) (-4.562187e-11 9.750085e-06 2.055831e-12))
0.197989      	((2.749574e-05 -1.003290e-07 -3.321198e-04) (-2.567135e-04 -4.175908e-09 -3.294410e-06)) ((-3.206259e-14 1.327627e-09 -1.453182e-12) (-5.513760e-11 8.995898e-06 1.366123e-11))
0.249587      	((-1.921277e-05 -5.771405e-08 -2.984578e-04) (-2.324074e-04 -4.003356e-09 -3.862779e-06)) ((1.852344e-12 6.289045e-10 -5.894385e-12) (-6.088471e-11 8.262662e-06 1.581395e-11))
0.311504      	((-4.335844e-05 -5.595491e-08 -2.778317e-04) (-2.102498e-04 -3.755028e-09 -4.480227e-06)) ((2.866763e-12 3.495778e-10 -4.474116e-12) (-6.937057e-11 7.565931e-06 2.130813e-11))
0.385805      	((-5.684638e-05 -3.697986e-08 -2.643879e-04) (-1.905716e-04 -3.173685e-09 -5.107714e-06)) ((3.230441e-12 1.584461e-10 -2.743633e-12) (-7.793441e-11 6.921214e-06 2.802705e-11))
0.474966      	((-6.326695e-05 -2.403063e-08 -2.552616e-04) (-1.733651e-04 -3.237977e-09 -5.719139e-06)) ((3.343961e-12 1.587048e-11 -1.464407e-12) (-8.255061e-11 6.335779e-06 2.663515e-11))
0.581959      	((-6.558989e-05 -2.200686e-08 -2.490178e-04) (-1.582061e-04 -2.942501e-09 -6.329335e-06)) ((2.483291e-12 -1.166062e-10 -8.163760e-13) (-8.556004e-11 5.804839e-06 1.006990e-11))
0.710351      	((-6.535523e-05 -1.022219e-08 -2.446854e-04) (-1.443466e-04 -2.042520e-09 -6.967573e-06)) ((1.982503e-12 -2.297331e-10 -5.229226e-13) (-8.787572e-11 5.309333e-06 -3.301644e-12))
0.864421      	((-6.336465e-05 -4.618937e-09 -2.416091e-04) (-1.312543e-04 -1.359269e-09 -7.657449e-06)) ((1.486492e-12 -3.342716e-10 -2.380902e-13) (-8.824706e-11 4.834634e-06 -1.228706e-11))
1.049306      	((-6.029347e-05 -1.408104e-09 -2.391430e-04) (-1.189082e-04 -9.862620e-10 -8.417068e-06)) ((1.493889e-12 -4.187268e-10 -2.019845e-13) (-9.074095e-11 4.383170e-06 -1.356381e-11))
1.271167      	((-5.675875e-05 9.803119e-10 -2.372348e-04) (-1.074845e-04 -6.662795e-10 -9.224533e-06)) ((1.122754e-12 -4.844471e-10 -3.813795e-13) (-9.549617e-11 3.963240e-06 -7.385841e-12))
1.5374        	((-5.339441e-05 2.034370e-09 -2.354944e-04) (-9.713342e-05 -4.660208e-10 -1.005974e-05)) ((1.026238e-12 -5.566599e-10 -3.747321e-13) (-1.011000e-10 3.581434e-06 1.960663e-12))
1.85688       	((-5.057313e-05 -1.360781e-09 -2.337090e-04) (-8.793031e-05 -4.550662e-10 -1.093206e-05)) ((8.594982e-13 -6.294547e-10 -3.507725e-13) (-1.103456e-10 3.241295e-06 1.144986e-11))
2.240256      	((-4.849005e-05 -1.334423e-10 -2.318610e-04) (-7.984836e-05 -5.560415e-10 -1.184714e-05)) ((5.479168e-13 -7.059270e-10 -2.707450e-13) (-1.166817e-10 2.942267e-06 2.295865e-11))
2.700307      	((-4.721187e-05 -2.996835e-09 -2.298283e-04) (-7.280105e-05 -6.283896e-10 -1.279399e-05)) ((6.353035e-13 -7.953996e-10 -2.082827e-13) (-1.201185e-10 2.681385e-06 3.230659e-11))
3.252369      	((-4.689720e-05 -1.143162e-08 -2.275633e-04) (-6.669407e-05 -8.970780e-10 -1.374945e-05)) ((9.564105e-13 -9.072275e-10 -1.146675e-13) (-1.313516e-10 2.455387e-06 4.078974e-11))
3.914842      	((-4.748793e-05 -1.368440e-08 -2.250053e-04) (-6.144892e-05 -1.260978e-09 -1.468457e-05)) ((8.607503e-13 -1.037680e-09 -1.020847e-13) (-1.438233e-10 2.261536e-06 4.801678e-11))
4.709811      	((-4.915789e-05 -2.044987e-08 -2.220934e-04) (-5.699293e-05 -1.741803e-09 -1.557445e-05)) ((1.141446e-12 -1.187143e-09 -1.398724e-13) (-1.618716e-10 2.097183e-06 5.434894e-11))
5.663773      	((-5.192511e-05 -2.051598e-08 -2.188725e-04) (-5.324487e-05 -2.181897e-09 -1.639784e-05)) ((8.708832e-13 -1.355248e-09 -2.244176e-13) (-1.785558e-10 1.959554e-06 6.568309e-11))
6.808528      	((-5.578653e-05 -2.238356e-08 -2.153088e-04) (-5.013689e-05 -2.611868e-09 -1.714792e-05)) ((7.199779e-13 -1.544703e-09 -3.594133e-13) (-1.849935e-10 1.845575e-06 8.002438e-11))
8.178572      	((-6.067401e-05 -2.266659e-08 -2.114313e-04) (-4.758669e-05 -3.230447e-09 -1.783703e-05)) ((7.969858e-13 -1.751097e-09 -4.890980e-13) (-1.921922e-10 1.751963e-06 9.291373e-11))
9.774253      	((-6.643170e-05 -2.134723e-08 -2.072570e-04) (-4.554161e-05 -3.863862e-09 -1.844789e-05)) ((9.484060e-13 -1.960709e-09 -6.544469e-13) (-2.045633e-10 1.677763e-06 9.969443e-11))
11.595606     	((-7.269143e-05 -1.899169e-08 -2.028416e-04) (-4.394661e-05 -4.386177e-09 -1.896652e-05)) ((1.166529e-12 -2.155187e-09 -9.534187e-13) (-2.144421e-10 1.620402e-06 1.147392e-10))
13.642092     	((-7.925962e-05 -2.548377e-08 -1.980731e-04) (-4.272552e-05 -4.938218e-09 -1.936839e-05)) ((2.094891e-12 -2.315117e-09 -1.223343e-12) (-2.470499e-10 1.575995e-06 1.165194e-10))
15.882409     	((-8.568644e-05 -1.479262e-08 -1.926332e-04) (-4.179428e-05 -4.593054e-09 -1.960814e-05)) ((2.615237e-12 -2.446175e-09 -1.208211e-12) (-2.909788e-10 1.541108e-06 7.180247e-11))
18.10818      	((-9.127128e-05 -9.743168e-09 -1.868076e-04) (-4.111339e-05 -3.245403e-09 -1.967083e-05)) ((2.858253e-12 -2.552239e-09 -9.182718e-13) (-3.306361e-10 1.514793e-06 -4.978544e-12))
20.321758     	((-9.587198e-05 -2.123869e-09 -1.807094e-04) (-4.053717e-05 -1.233336e-09 -1.962799e-05)) ((2.820960e-12 -2.647071e-09 -6.340315e-13) (-3.524761e-10 1.492440e-06 -7.384813e-11))
22.531914     	((-9.902721e-05 1.343792e-08 -1.744851e-04) (-3.999728e-05 1.195038e-09 -1.953897e-05)) ((2.512698e-12 -2.723471e-09 -5.239918e-13) (-3.492794e-10 1.472138e-06 -1.412178e-10))
24.748151     	((-1.013085e-04 2.771504e-08 -1.685843e-04) (-3.950094e-05 3.849475e-09 -1.942403e-05)) ((1.757349e-12 -2.789908e-09 -4.185167e-13) (-3.065285e-10 1.454427e-06 -2.243178e-10))
26.975368     	((-1.023946e-04 3.033829e-08 -1.630335e-04) (-3.905307e-05 6.224248e-09 -1.930015e-05)) ((1.371259e-12 -2.833553e-09 -3.296713e-13) (-2.397017e-10 1.439341e-06 -2.966320e-10))
29.213472     	((-1.025332e-04 3.590861e-08 -1.577081e-04) (-3.863249e-05 7.710693e-09 -1.918750e-05)) ((1.310728e-12 -2.851092e-09 -3.069812e-13) (-1.783962e-10 1.425722e-06 -3.368940e-10))
31.460097     	((-1.021296e-04 4.501868e-08 -1.525102e-04) (-3.822580e-05 8.746712e-09 -1.908916e-05)) ((9.177864e-13 -2.857055e-09 -3.316019e-13) (-1.098068e-10 1.412915e-06 -3.491554e-10))
33.713519     	((-1.015051e-04 4.086195e-08 -1.476170e-04) (-3.783920e-05 9.209799e-09 -1.900703e-05)) ((7.078100e-13 -2.845310e-09 -3.324595e-13) (-5.504784e-11 1.400849e-06 -3.374711e-10))
35.971007     	((-1.010175e-04 3.483747e-08 -1.434272e-04) (-3.749023e-05 8.886116e-09 -1.893485e-05)) ((5.023507e-13 -2.829589e-09 -2.073420e-13) (-2.503372e-11 1.390048e-06 -3.040052e-10))
38.231977     	((-1.003353e-04 2.729522e-08 -1.395992e-04) (-3.717521e-05 8.063694e-09 -1.887285e-05)) ((-5.522538e-14 -2.808748e-09 -2.141843e-13) (-2.305159e-12 1.380348e-06 -2.806944e-10))
40.497434     	((-9.953837e-05 2.100035e-08 -1.358754e-04) (-3.687959e-05 7.072585e-09 -1.882150e-05)) ((-2.715568e-13 -2.785520e-09 -3.396187e-13) (1.246980e-11 1.371232e-06 -2.615424e-10))
42.767651     	((-9.881151e-05 1.674423e-08 -1.323675e-04) (-3.660289e-05 6.341992e-09 -1.877807e-05)) ((-3.471584e-13 -2.764628e-09 -5.156586e-13) (2.146185e-11 1.362587e-06 -2.373689e-10))
45.042768     	((-9.817601e-05 7.603966e-09 -1.290651e-04) (-3.634503e-05 5.348749e-09 -1.874279e-05)) ((-2.276033e-13 -2.744774e-09 -6.344039e-13) (1.797211e-11 1.354363e-06 -2.049165e-10))
47.322675     	((-9.767526e-05 -9.611460e-11 -1.259736e-04) (-3.610655e-05 4.113795e-09 -1.871336e-05)) ((-3.562938e-14 -2.728479e-09 -7.116954e-13) (3.843639e-12 1.346638e-06 -1.665030e-10))
49.60722      	((-9.716134e-05 -6.429302e-09 -1.230059e-04) (-3.588319e-05 2.897659e-09 -1.869023e-05)) ((1.588846e-13 -2.711596e-09 -7.714642e-13) (-1.289784e-11 1.339297e-06 -1.197634e-10))
51.896324     	((-9.667920e-05 -6.812424e-10 -1.201710e-04) (-3.567234e-05 1.699009e-09 -1.867001e-05)) ((-2.762238e-13 -2.697801e-09 -8.107452e-13) (-1.967614e-11 1.332375e-06 -6.312046e-11))
54.190372     	((-9.624961e-05 6.614922e-09 -1.174444e-04) (-3.547468e-05 9.613889e-10 -1.864616e-05)) ((-8.103588e-13 -2.687854e-09 -8.642173e-13) (5.618623e-12 1.326039e-06 -1.260745e-12))
56.489612     	((-9.589523e-05 1.140140e-08 -1.148724e-04) (-3.529264e-05 3.418607e-10 -1.861673e-05)) ((-1.077092e-12 -2.680443e-09 -8.508011e-13) (3.861835e-11 1.320380e-06 5.713152e-11))
58.793905     	((-9.554326e-05 1.134321e-08 -1.123865e-04) (-3.512421e-05 -2.054147e-10 -1.858305e-05)) ((-1.231889e-12 -2.673674e-09 -7.958883e-13) (5.731581e-11 1.315294e-06 1.050885e-10))
61.103094     	((-9.518672e-05 9.319900e-09 -1.100004e-04) (-3.496670e-05 -7.969844e-10 -1.854731e-05)) ((-1.434398e-12 -2.666749e-09 -7.536869e-13) (6.519247e-11 1.310652e-06 1.409072e-10))
63.417047     	((-9.485672e-05 1.326009e-08 -1.077357e-04) (-3.481934e-05 -1.103650e-09 -1.851078e-05)) ((-1.541025e-12 -2.659945e-09 -7.213563e-13) (7.475679e-11 1.306405e-06 1.630532e-10))
65.735635     	((-9.451155e-05 1.138722e-08 -1.055834e-04) (-3.468000e-05 -1.299328e-09 -1.847807e-05)) ((-1.414904e-12 -2.650824e-09 -7.271036e-13) (7.652090e-11 1.302386e-06 1.853460e-10))
68.058719     	((-9.412677e-05 1.275719e-08 -1.034797e-04) (-3.454637e-05 -1.496179e-09 -1.845072e-05)) ((-1.361856e-12 -2.640937e-09 -7.145948e-13) (7.902259e-11 1.298481e-06 2.051730e-10))
70.386241     	((-9.374822e-05 9.488843e-09 -1.014529e-04) (-3.441783e-05 -1.604810e-09 -1.842678e-05)) ((-1.180469e-12 -2.631585e-09 -6.814910e-13) (7.676319e-11 1.294714e-06 2.138216e-10))
72.718164     	((-9.344284e-05 4.851676e-09 -9.956750e-05) (-3.429647e-05 -1.704221e-09 -1.840489e-05)) ((-9.890312e-13 -2.623799e-09 -6.092107e-13) (6.265821e-11 1.291174e-06 2.105878e-10))
75.05441      	((-9.318695e-05 2.420071e-11 -9.780674e-05) (-3.418338e-05 -1.888302e-09 -1.838396e-05)) ((-7.576089e-13 -2.617426e-09 -5.392613e-13) (3.996137e-11 1.287934e-06 2.015718e-10))
77.394817     	((-9.292605e-05 -7.453732e-09 -9.611463e-05) (-3.407695e-05 -2.108886e-09 -1.836418e-05)) ((-4.133415e-13 -2.610684e-09 -4.798697e-13) (1.136785e-11 1.284945e-06 1.930609e-10))
79.73922      	((-9.265136e-05 -1.916073e-08 -9.449849e-05) (-3.397519e-05 -2.508871e-09 -1.834889e-05)) ((3.454929e-14 -2.601431e-09 -4.118385e-13) (-2.978277e-11 1.281996e-06 1.784038e-10))
82.087449     	((-9.241009e-05 -3.006315e-08 -9.295951e-05) (-3.387785e-05 -3.063151e-09 -1.834083e-05)) ((3.402985e-13 -2.591068e-09 -3.402191e-13) (-8.181161e-11 1.278966e-06 1.537191e-10))
84.43931      	((-9.215159e-05 -4.291108e-08 -9.148881e-05) (-3.378316e-05 -3.660169e-09 -1.834093e-05)) ((5.992854e-13 -2.578975e-09 -2.977026e-13) (-1.351721e-10 1.275772e-06 1.241691e-10))
86.794573     	((-9.187721e-05 -5.873701e-08 -9.005348e-05) (-3.368972e-05 -4.500173e-09 -1.834668e-05)) ((8.791560e-13 -2.566836e-09 -2.636372e-13) (-1.944346e-10 1.272470e-06 9.350825e-11))
89.153061     	((-9.160952e-05 -7.113150e-08 -8.866083e-05) (-3.359868e-05 -5.450471e-09 -1.835284e-05)) ((1.091252e-12 -2.556215e-09 -2.393551e-13) (-2.545762e-10 1.269267e-06 6.343378e-11))
91.514653     	((-9.134286e-05 -8.389413e-08 -8.728610e-05) (-3.351080e-05 -6.509139e-09 -1.835658e-05)) ((1.232013e-12 -2.546902e-09 -2.207464e-13) (-3.134022e-10 1.266258e-06 3.490887e-11))
93.879232     	((-9.110270e-05 -9.622531e-08 -8.594953e-05) (-3.342659e-05 -7.561109e-09 -1.835704e-05)) ((1.360388e-12 -2.539537e-09 -1.808875e-13) (-3.675015e-10 1.263464e-06 5.824209e-12))
96.246693     	((-9.089940e-05 -1.102151e-07 -8.466712e-05) (-3.334681e-05 -8.558282e-09 -1.835411e-05)) ((1.623385e-12 -2.533818e-09 -1.640534e-13) (-4.221676e-10 1.260898e-06 -2.725923e-11))
98.616946     	((-9.069848e-05 -1.254341e-07 -8.342847e-05) (-3.327089e-05 -9.649102e-09 -1.834860e-05)) ((1.914691e-12 -2.528760e-09 -1.622731e-13) (-4.825832e-10 1.258506e-06 -6.394745e-11))
100.98994     	((-9.050651e-05 -1.392843e-07 -8.223985e-05) (-3.319844e-05 -1.090257e-08 -1.834116e-05)) ((2.152711e-12 -2.524460e-09 -1.889035e-13) (-5.446668e-10 1.256253e-06 -9.469005e-11))
103.365628    	((-9.031029e-05 -1.542618e-07 -8.109064e-05) (-3.312879e-05 -1.243019e-08 -1.833277e-05)) ((2.335604e-12 -2.519941e-09 -1.950798e-13) (-6.074927e-10 1.254093e-06 -1.141072e-10))
105.743954    	((-9.014690e-05 -1.656241e-07 -8.001434e-05) (-3.306236e-05 -1.389211e-08 -1.832344e-05)) ((2.391992e-12 -2.516529e-09 -2.196392e-13) (-6.657833e-10 1.252041e-06 -1.298101e-10))
108.124863    	((-8.998286e-05 -1.775850e-07 -7.898399e-05) (-3.299921e-05 -1.509971e-08 -1.831310e-05)) ((2.516061e-12 -2.513308e-09 -2.291877e-13) (-7.248133e-10 1.250109e-06 -1.576498e-10))
110.508306    	((-8.983059e-05 -1.895231e-07 -7.801192e-05) (-3.293927e-05 -1.639253e-08 -1.830220e-05)) ((2.704140e-12 -2.510471e-09 -2.169393e-13) (-7.868862e-10 1.248287e-06 -1.806710e-10))
112.894236    	((-8.966734e-05 -2.035810e-07 -7.707854e-05) (-3.288188e-05 -1.797683e-08 -1.829168e-05)) ((2.972380e-12 -2.507169e-09 -2.072246e-13) (-8.531683e-10 1.246533e-06 -1.867895e-10))
115.282589    	((-8.949370e-05 -2.170891e-07 -7.617708e-05) (-3.282619e-05 -1.977338e-08 -1.828268e-05)) ((3.211050e-12 -2.503167e-09 -2.032105e-13) (-9.196374e-10 1.244799e-06 -1.796906e-10))
117.67327     	((-8.932768e-05 -2.351800e-07 -7.531351e-05) (-3.277236e-05 -2.175476e-08 -1.827522e-05)) ((3.561484e-12 -2.498932e-09 -1.862294e-13) (-9.914477e-10 1.243091e-06 -1.703246e-10))
120.066176    	((-8.916997e-05 -2.553419e-07 -7.448644e-05) (-3.272053e-05 -2.396639e-08 -1.826881e-05)) ((3.934280e-12 -2.494664e-09 -1.673107e-13) (-1.072605e-09 1.241426e-06 -1.621319e-10))
122.461216    	((-8.902566e-05 -2.794013e-07 -7.368206e-05) (-3.267079e-05 -2.642523e-08 -1.826278e-05)) ((4.344035e-12 -2.490682e-09 -1.380303e-13) (-1.164165e-09 1.239827e-06 -1.592018e-10))
124.858312    	((-8.889678e-05 -3.083271e-07 -7.291021e-05) (-3.262338e-05 -2.913026e-08 -1.825635e-05)) ((4.833441e-12 -2.487346e-09 -1.051299e-13) (-1.270497e-09 1.238326e-06 -1.665767e-10))
127.257389    	((-8.878074e-05 -3.412720e-07 -7.216628e-05) (-3.257844e-05 -3.208072e-08 -1.824875e-05)) ((5.401350e-12 -2.484834e-09 -6.965977e-14) (-1.393931e-09 1.236949e-06 -1.835643e-10))
129.658384    	((-8.866615e-05 -3.801499e-07 -7.144588e-05) (-3.253573e-05 -3.543290e-08 -1.823958e-05)) ((6.055081e-12 -2.483056e-09 -2.747466e-14) (-1.537240e-09 1.235698e-06 -2.070074e-10))
132.061243    	((-8.855270e-05 -4.225813e-07 -7.074449e-05) (-3.249503e-05 -3.920681e-08 -1.822847e-05)) ((6.724796e-12 -2.482045e-09 2.342524e-14) (-1.698021e-09 1.234569e-06 -2.359855e-10))
134.465916    	((-8.844208e-05 -4.712289e-07 -7.006187e-05) (-3.245631e-05 -4.332530e-08 -1.821501e-05)) ((7.474523e-12 -2.481773e-09 8.087543e-14) (-1.878101e-09 1.233564e-06 -2.794078e-10))
136.872343    	((-8.833357e-05 -5.266075e-07 -6.939325e-05) (-3.241946e-05 -4.791665e-08 -1.819893e-05)) ((8.309380e-12 -2.482127e-09 1.330284e-13) (-2.081045e-09 1.232674e-06 -3.374342e-10))
139.280386    	((-8.823075e-05 -5.895418e-07 -6.874050e-05) (-3.238457e-05 -5.304883e-08 -1.817991e-05)) ((9.264557e-12 -2.483146e-09 1.796770e-13) (-2.311899e-09 1.231903e-06 -4.100230e-10))
141.690015    	((-8.812978e-05 -6.606110e-07 -6.809868e-05) (-3.235154e-05 -5.878900e-08 -1.815785e-05)) ((1.035016e-11 -2.484587e-09 2.188554e-13) (-2.574803e-09 1.231243e-06 -4.970031e-10))
144.101212    	((-8.802717e-05 -7.371825e-07 -6.746620e-05) (-3.232000e-05 -6.522958e-08 -1.813314e-05)) ((1.151604e-11 -2.486182e-09 2.686065e-13) (-2.866697e-09 1.230664e-06 -5.909854e-10))
146.513963    	((-8.792333e-05 -8.207074e-07 -6.684491e-05) (-3.228960e-05 -7.240537e-08 -1.810660e-05)) ((1.273022e-11 -2.487564e-09 3.274408e-13) (-3.184375e-09 1.230120e-06 -6.884629e-10))
148.928266    	((-8.781481e-05 -9.115346e-07 -6.623494e-05) (-3.225994e-05 -8.026686e-08 -1.807965e-05)) ((1.402146e-11 -2.488221e-09 3.784242e-13) (-3.528814e-09 1.229552e-06 -7.951977e-10))
151.343554    	((-8.770945e-05 -1.008586e-06 -6.564150e-05) (-3.223073e-05 -8.872450e-08 -1.805335e-05)) ((1.540492e-11 -2.488336e-09 3.964877e-13) (-3.900486e-09 1.228918e-06 -9.166204e-10))
153.759511    	((-8.760412e-05 -1.115726e-06 -6.506197e-05) (-3.220184e-05 -9.811286e-08 -1.802808e-05)) ((1.695186e-11 -2.488035e-09 3.924091e-13) (-4.310344e-09 1.228216e-06 -1.045963e-09))
156.176061    	((-8.749908e-05 -1.231520e-06 -6.449602e-05) (-3.217333e-05 -1.085899e-07 -1.800363e-05)) ((1.863443e-11 -2.487605e-09 3.772376e-13) (-4.763429e-09 1.227474e-06 -1.175729e-09))
158.593135    	((-8.739622e-05 -1.352475e-06 -6.394528e-05) (-3.214553e-05 -1.199931e-07 -1.797964e-05)) ((2.041816e-11 -2.487033e-09 3.661062e-13) (-5.254937e-09 1.226731e-06 -1.308621e-09))
161.010674    	((-8.728956e-05 -1.482465e-06 -6.339905e-05) (-3.211836e-05 -1.323370e-07 -1.795623e-05)) ((2.231368e-11 -2.486124e-09 3.449686e-13) (-5.784336e-09 1.225998e-06 -1.446694e-09))
163.428629    	((-8.718635e-05 -1.617389e-06 -6.286391e-05) (-3.209175e-05 -1.456171e-07 -1.793396e-05)) ((2.428585e-11 -2.484907e-09 3.298995e-13) (-6.348301e-09 1.225266e-06 -1.586574e-09))
165.846961    	((-8.709217e-05 -1.758637e-06 -6.234498e-05) (-3.206586e-05 -1.598329e-07 -1.791319e-05)) ((2.635399e-11 -2.483576e-09 3.323319e-13) (-6.945309e-09 1.224536e-06 -1.722969e-09))
168.265644    	((-8.699883e-05 -1.909905e-06 -6.183627e-05) (-3.204054e-05 -1.751666e-07 -1.789406e-05)) ((2.861443e-11 -2.482082e-09 3.447691e-13) (-7.582136e-09 1.223812e-06 -1.852018e-09))
170.684658    	((-8.691047e-05 -2.069519e-06 -6.133979e-05) (-3.201577e-05 -1.916584e-07 -1.787656e-05)) ((3.104141e-11 -2.480586e-09 4.053221e-13) (-8.261865e-09 1.223103e-06 -1.973429e-09))
173.103989    	((-8.682472e-05 -2.243610e-06 -6.085362e-05) (-3.199154e-05 -2.094862e-07 -1.786050e-05)) ((3.376827e-11 -2.479170e-09 4.727066e-13) (-8.993304e-09 1.222417e-06 -2.089799e-09))
175.523627    	((-8.674451e-05 -2.432838e-06 -6.038056e-05) (-3.196789e-05 -2.288840e-07 -1.784563e-05)) ((3.681844e-11 -2.477939e-09 5.367512e-13) (-9.787833e-09 1.221766e-06 -2.202931e-09))
177.943563    	((-8.666715e-05 -2.639968e-06 -5.991824e-05) (-3.194484e-05 -2.500637e-07 -1.783174e-05)) ((4.020803e-11 -2.476900e-09 6.014005e-13) (-1.065514e-08 1.221151e-06 -2.315108e-09))
180.363783    	((-8.659299e-05 -2.867056e-06 -5.947016e-05) (-3.192235e-05 -2.732423e-07 -1.781861e-05)) ((4.394191e-11 -2.476163e-09 6.592546e-13) (-1.160472e-08 1.220576e-06 -2.430369e-09))
