# Forces      
# CofR        : (0.000000e+00 0.000000e+00 0.000000e+00)
# Time        forces(pressure viscous)	moments(pressure viscous)
0             	((0.000000e+00 0.000000e+00 0.000000e+00) (0.000000e+00 0.000000e+00 0.000000e+00)) ((0.000000e+00 0.000000e+00 0.000000e+00) (0.000000e+00 0.000000e+00 0.000000e+00))
0.012         	((1.738991e-10 -3.802589e-08 4.869989e-10) (5.024433e-12 -4.261715e-10 2.482371e-12)) ((2.743789e-12 1.713544e-14 5.243802e-10) (-8.131486e-12 -2.129266e-13 1.063925e-06))
0.0264        	((-1.550587e-10 1.375674e-08 -1.329778e-09) (6.513643e-12 -4.550426e-10 1.409226e-12)) ((6.448262e-12 -2.552457e-14 1.586913e-10) (-1.442975e-11 -1.974018e-13 9.312250e-07))
0.04368       	((6.626014e-10 -7.004689e-09 -1.025496e-10) (7.309994e-12 -2.963913e-10 1.800565e-12)) ((-2.918889e-12 3.936656e-14 8.435650e-11) (-1.204140e-11 -2.666586e-13 8.054966e-07))
0.064416      	((6.129713e-10 -6.903697e-10 -1.626685e-09) (3.724235e-12 -1.562195e-10 4.406046e-12)) ((8.711124e-13 3.718766e-14 5.760704e-11) (-5.906656e-12 -1.782623e-13 6.902438e-07))
0.0892992     	((8.087626e-10 -3.469819e-09 -1.903626e-09) (2.085213e-12 -9.603154e-11 1.175428e-11)) ((-8.811569e-13 1.312065e-13 4.688314e-11) (-2.801979e-12 -3.703211e-15 5.885460e-07))
0.119159      	((6.125782e-10 -3.918590e-10 -2.737597e-09) (3.118399e-12 -8.313102e-11 3.858643e-11)) ((-5.263527e-13 1.539777e-13 3.762902e-11) (9.409143e-13 -2.248785e-13 5.017095e-07))
0.154991      	((7.248619e-10 -3.009044e-09 -3.578561e-09) (-3.217260e-12 -6.394746e-11 1.050871e-10)) ((-5.119505e-13 1.714319e-13 3.017922e-11) (3.775035e-12 -4.075852e-13 4.301157e-07))
0.197989      	((2.695232e-10 -2.317355e-09 -4.108145e-09) (-1.674256e-11 -3.357809e-11 2.557519e-10)) ((-4.261834e-13 1.399434e-13 2.391791e-11) (5.594090e-12 -1.308301e-13 3.724289e-07))
0.249587      	((9.458827e-10 -2.811951e-09 -4.798754e-09) (-2.615775e-11 -9.569612e-12 4.757172e-10)) ((-4.197573e-13 2.058945e-13 2.001930e-11) (4.799232e-12 5.281766e-13 3.263306e-07))
0.311504      	((9.543939e-10 -3.017817e-09 -5.041562e-09) (-3.280506e-11 3.852867e-12 7.318845e-10)) ((-3.595388e-13 1.485113e-13 1.785875e-11) (3.451807e-12 1.110766e-12 2.890788e-07))
0.385805      	((1.282654e-09 -4.094427e-09 -5.866814e-09) (-4.405799e-11 4.503262e-12 1.014849e-09)) ((-2.091250e-13 1.253009e-13 1.568608e-11) (2.117914e-12 1.327074e-12 2.582448e-07))
0.474966      	((1.416890e-09 -5.065268e-09 -6.201106e-09) (-5.677534e-11 6.970109e-12 1.310631e-09)) ((1.094828e-13 1.171391e-14 1.383210e-11) (-6.044430e-13 1.703542e-12 2.320367e-07))
0.581959      	((1.967501e-09 -5.749248e-09 -6.656112e-09) (-6.978318e-11 -2.523947e-11 1.659071e-09)) ((1.880320e-13 5.322995e-14 1.280545e-11) (-4.442383e-12 2.958104e-12 2.092557e-07))
0.710351      	((2.551281e-09 -5.596619e-09 -7.565993e-09) (-8.853787e-11 -5.478869e-11 2.101129e-09)) ((3.278472e-13 1.029820e-13 1.215090e-11) (-6.777904e-12 4.753515e-12 1.891328e-07))
0.864421      	((3.037072e-09 -4.507537e-09 -8.859219e-09) (-1.127326e-10 3.085185e-11 2.580938e-09)) ((4.945577e-13 6.033929e-14 1.148050e-11) (-4.721014e-12 6.031026e-12 1.711747e-07))
1.049306      	((3.481020e-09 -4.025507e-09 -1.025092e-08) (-1.659797e-10 1.730785e-10 3.144933e-09)) ((6.635980e-13 6.778216e-14 1.082817e-11) (-3.890233e-13 7.174699e-12 1.550786e-07))
1.271167      	((2.653547e-09 -3.881888e-09 -1.166432e-08) (-3.076767e-10 2.921638e-10 3.818823e-09)) ((7.884117e-13 2.325407e-14 1.030630e-11) (3.051982e-12 1.017609e-11 1.406909e-07))
1.5374        	((1.482004e-09 -3.976819e-09 -1.289425e-08) (-5.427141e-10 4.263046e-10 4.529010e-09)) ((7.439279e-13 -2.210846e-14 9.831735e-12) (6.874422e-12 1.556567e-11 1.279417e-07))
1.85688       	((1.058141e-09 -3.744042e-09 -1.419249e-08) (-8.086842e-10 5.586214e-10 5.228621e-09)) ((6.461836e-13 1.033420e-14 9.303844e-12) (1.175672e-11 2.162416e-11 1.167595e-07))
2.240256      	((2.149722e-10 -2.947639e-09 -1.603115e-08) (-1.051147e-09 7.088628e-10 6.007700e-09)) ((6.665491e-13 -1.055232e-14 8.715508e-12) (1.834957e-11 2.798269e-11 1.070217e-07))
2.700307      	((1.462638e-11 -2.246158e-09 -1.766701e-08) (-1.283984e-09 9.254379e-10 6.892914e-09)) ((6.356334e-13 -7.544215e-14 8.166835e-12) (2.634657e-11 3.490579e-11 9.854813e-08))
3.252369      	((-2.923709e-10 -1.417338e-09 -1.954343e-08) (-1.460856e-09 1.145673e-09 7.815356e-09)) ((5.667754e-13 -1.286196e-13 7.579744e-12) (3.273454e-11 4.103291e-11 9.112486e-08))
3.914842      	((-6.550318e-10 -3.734941e-10 -2.168928e-08) (-1.545178e-09 1.342262e-09 8.816646e-09)) ((4.420108e-13 -1.791361e-13 7.019838e-12) (3.601467e-11 4.519848e-11 8.454380e-08))
4.709811      	((-1.237643e-09 4.065864e-11 -2.436877e-08) (-1.570695e-09 1.454682e-09 9.969191e-09)) ((3.673868e-13 -2.293568e-13 6.493834e-12) (3.605710e-11 4.820219e-11 7.862805e-08))
5.663773      	((-9.174690e-10 2.274287e-10 -2.735364e-08) (-1.491050e-09 1.429849e-09 1.132235e-08)) ((3.096594e-13 -2.497823e-13 5.993364e-12) (3.288031e-11 4.798400e-11 7.324912e-08))
6.808528      	((-7.719942e-10 -5.593182e-11 -3.088752e-08) (-1.337126e-09 1.281413e-09 1.279330e-08)) ((2.390229e-13 -2.611238e-13 5.550547e-12) (2.926230e-11 4.403958e-11 6.831974e-08))
8.182233      	((-2.399268e-10 1.770595e-10 -3.362484e-08) (-1.124093e-09 1.093410e-09 1.439078e-08)) ((2.013308e-13 -3.174412e-13 5.122040e-12) (2.622468e-11 3.847523e-11 6.378151e-08))
9.83068       	((-3.388987e-10 -3.694507e-10 -3.693424e-08) (-9.028786e-10 9.137851e-10 1.606942e-08)) ((1.535066e-13 -4.301133e-13 4.726604e-12) (2.186173e-11 3.315213e-11 5.959648e-08))
11.808816     	((-2.887812e-11 -6.327381e-10 -4.039663e-08) (-7.255149e-10 7.333725e-10 1.780670e-08)) ((6.863081e-14 -4.540828e-13 4.360360e-12) (1.532310e-11 2.694500e-11 5.573516e-08))
14.182579     	((2.198659e-10 -3.607978e-10 -4.414810e-08) (-5.458848e-10 5.873865e-10 1.972132e-08)) ((-3.941527e-14 -4.508919e-13 4.023700e-12) (1.024082e-11 2.087242e-11 5.217914e-08))
17.031095     	((9.870289e-11 -2.307351e-10 -4.807531e-08) (-4.269076e-10 4.806309e-10 2.175058e-08)) ((-1.008203e-13 -4.241898e-13 3.714075e-12) (7.704695e-12 1.668219e-11 4.891927e-08))
20.449314     	((1.407645e-10 -4.019056e-10 -5.234325e-08) (-3.405662e-10 4.238252e-10 2.381255e-08)) ((-1.399767e-13 -4.480086e-13 3.438325e-12) (8.013793e-12 1.385085e-11 4.594829e-08))
24.551176     	((-1.433377e-10 -5.759332e-10 -5.726627e-08) (-3.158280e-10 4.429016e-10 2.597363e-08)) ((-1.768160e-13 -4.777879e-13 3.202374e-12) (9.914465e-12 1.283764e-11 4.324662e-08))
29.473411     	((-8.619488e-11 -5.068440e-10 -6.217912e-08) (-3.335081e-10 5.080650e-10 2.831149e-08)) ((-1.883525e-13 -4.964123e-13 2.997069e-12) (1.242100e-11 1.352454e-11 4.079002e-08))
35.380094     	((-2.249069e-10 -5.726059e-10 -6.744820e-08) (-3.709911e-10 5.864395e-10 3.085659e-08)) ((-1.974956e-13 -5.256218e-13 2.808517e-12) (1.488420e-11 1.495126e-11 3.855617e-08))
42.468112     	((-1.759566e-10 -6.054929e-10 -7.293955e-08) (-4.375167e-10 6.653488e-10 3.366014e-08)) ((-1.974011e-13 -5.471662e-13 2.636144e-12) (1.661730e-11 1.665985e-11 3.652306e-08))
50.973735     	((-1.802147e-10 -5.826759e-10 -7.812462e-08) (-5.234315e-10 7.221761e-10 3.676401e-08)) ((-1.916416e-13 -5.728280e-13 2.479038e-12) (1.748368e-11 1.855753e-11 3.466968e-08))
61.180482     	((-1.865344e-10 -4.651406e-10 -8.322362e-08) (-6.058973e-10 7.568897e-10 4.018599e-08)) ((-1.850503e-13 -6.029396e-13 2.337983e-12) (1.731257e-11 2.053853e-11 3.297767e-08))
73.428578     	((-2.507269e-10 -4.453812e-10 -8.811187e-08) (-6.859492e-10 7.632994e-10 4.383383e-08)) ((-1.938493e-13 -6.105234e-13 2.203980e-12) (1.677971e-11 2.259068e-11 3.143362e-08))
88.126294     	((-2.700537e-10 -4.811785e-10 -9.278039e-08) (-7.620089e-10 7.426241e-10 4.755850e-08)) ((-2.001120e-13 -5.961936e-13 2.083131e-12) (1.570058e-11 2.374843e-11 3.002708e-08))
105.763553    	((-3.577902e-10 -5.286802e-10 -9.750491e-08) (-8.275553e-10 7.083209e-10 5.128831e-08)) ((-2.036165e-13 -5.777599e-13 1.975317e-12) (1.442800e-11 2.448152e-11 2.874887e-08))
126.928263    	((-4.073517e-10 -5.721653e-10 -1.023811e-07) (-8.699107e-10 6.643676e-10 5.504067e-08)) ((-2.129870e-13 -5.811435e-13 1.876943e-12) (1.289282e-11 2.522767e-11 2.758889e-08))
152.325916    	((-5.295017e-10 -6.396329e-10 -1.072443e-07) (-8.970625e-10 6.077767e-10 5.883175e-08)) ((-2.197827e-13 -5.873350e-13 1.789949e-12) (1.073889e-11 2.579980e-11 2.653632e-08))
182.803099    	((-5.600934e-10 -6.832185e-10 -1.121495e-07) (-9.114394e-10 5.416759e-10 6.269308e-08)) ((-2.200268e-13 -6.037039e-13 1.711968e-12) (8.182879e-12 2.607947e-11 2.558075e-08))
219.375719    	((-6.110044e-10 -7.366558e-10 -1.170234e-07) (-9.146150e-10 4.691678e-10 6.663710e-08)) ((-2.170685e-13 -6.322465e-13 1.637986e-12) (5.102269e-12 2.622225e-11 2.471338e-08))
263.262863    	((-5.475334e-10 -7.380388e-10 -1.218114e-07) (-8.994749e-10 3.946362e-10 7.065739e-08)) ((-2.110580e-13 -6.560252e-13 1.565578e-12) (1.935219e-12 2.594442e-11 2.392779e-08))
315.23793     	((-5.409969e-10 -7.664880e-10 -1.264038e-07) (-8.639991e-10 3.254253e-10 7.475481e-08)) ((-2.063399e-13 -6.777092e-13 1.505216e-12) (-1.053009e-12 2.500279e-11 2.322021e-08))
375.299143    	((-5.273415e-10 -7.901166e-10 -1.306953e-07) (-8.062055e-10 2.605659e-10 7.890033e-08)) ((-2.020034e-13 -6.944808e-13 1.451325e-12) (-3.944063e-12 2.342256e-11 2.258692e-08))
443.444843    	((-5.232054e-10 -7.781223e-10 -1.346621e-07) (-7.418978e-10 2.086039e-10 8.306685e-08)) ((-1.943525e-13 -7.116462e-13 1.400940e-12) (-6.214518e-12 2.088629e-11 2.202355e-08))
519.673379    	((-5.402314e-10 -7.739100e-10 -1.382943e-07) (-6.802211e-10 1.597737e-10 8.722139e-08)) ((-1.856702e-13 -7.295792e-13 1.355849e-12) (-7.740277e-12 1.824142e-11 2.152541e-08))
600.482841    	((-5.603951e-10 -7.614607e-10 -1.416282e-07) (-6.178001e-10 1.259651e-10 9.126948e-08)) ((-1.798817e-13 -7.465646e-13 1.318421e-12) (-8.747560e-12 1.553392e-11 2.108964e-08))
681.273299    	((-5.718740e-10 -7.439050e-10 -1.446276e-07) (-5.530895e-10 9.972108e-11 9.514122e-08)) ((-1.713980e-13 -7.601469e-13 1.284547e-12) (-9.474097e-12 1.308553e-11 2.071219e-08))
762.043975    	((-5.670046e-10 -7.237761e-10 -1.471772e-07) (-4.923324e-10 8.390783e-11 9.880772e-08)) ((-1.621546e-13 -7.747367e-13 1.255335e-12) (-9.633971e-12 1.089987e-11 2.038626e-08))
842.797669    	((-5.641736e-10 -7.009458e-10 -1.493924e-07) (-4.373898e-10 7.820457e-11 1.022560e-07)) ((-1.554758e-13 -7.880964e-13 1.229969e-12) (-9.168071e-12 9.101599e-12 2.010554e-08))
923.534013    	((-5.554731e-10 -6.672867e-10 -1.512973e-07) (-3.898722e-10 8.306759e-11 1.054963e-07)) ((-1.501045e-13 -8.020030e-13 1.206805e-12) (-8.177692e-12 7.625487e-12 1.986349e-08))
1004.25553    	((-5.502281e-10 -6.366947e-10 -1.529583e-07) (-3.477923e-10 9.155938e-11 1.085451e-07)) ((-1.450098e-13 -8.161315e-13 1.186099e-12) (-6.991509e-12 6.352013e-12 1.965437e-08))
1084.963226   	((-5.620006e-10 -6.232174e-10 -1.544123e-07) (-3.143187e-10 1.039163e-10 1.114214e-07)) ((-1.399825e-13 -8.298308e-13 1.167790e-12) (-5.851342e-12 5.355637e-12 1.947328e-08))
1165.657756   	((-5.721967e-10 -6.108081e-10 -1.556896e-07) (-2.888404e-10 1.153023e-10 1.141437e-07)) ((-1.352785e-13 -8.426916e-13 1.152288e-12) (-4.923290e-12 4.745997e-12 1.931625e-08))
1246.341757   	((-5.819895e-10 -5.991339e-10 -1.568022e-07) (-2.710191e-10 1.242891e-10 1.167227e-07)) ((-1.304440e-13 -8.537148e-13 1.138282e-12) (-4.213045e-12 4.398188e-12 1.917998e-08))
1327.017467   	((-5.862554e-10 -5.860318e-10 -1.577617e-07) (-2.590130e-10 1.321218e-10 1.191665e-07)) ((-1.274247e-13 -8.644379e-13 1.125477e-12) (-3.598902e-12 4.211209e-12 1.906158e-08))
1407.685442   	((-5.918224e-10 -5.829340e-10 -1.586094e-07) (-2.532263e-10 1.395816e-10 1.214815e-07)) ((-1.245897e-13 -8.735873e-13 1.113557e-12) (-3.055506e-12 4.097557e-12 1.895854e-08))
1488.346714   	((-5.964892e-10 -5.795161e-10 -1.593606e-07) (-2.485915e-10 1.463374e-10 1.236700e-07)) ((-1.217395e-13 -8.830262e-13 1.102622e-12) (-2.592026e-12 4.016165e-12 1.886872e-08))
1569.00319    	((-5.885144e-10 -5.704646e-10 -1.600166e-07) (-2.431527e-10 1.517183e-10 1.257368e-07)) ((-1.196063e-13 -8.927922e-13 1.093369e-12) (-2.228690e-12 3.954500e-12 1.879043e-08))
1649.656936   	((-5.787737e-10 -5.621644e-10 -1.605969e-07) (-2.370814e-10 1.571216e-10 1.276895e-07)) ((-1.172236e-13 -9.020744e-13 1.084889e-12) (-1.933923e-12 3.903091e-12 1.872220e-08))
1730.309827   	((-5.686421e-10 -5.534321e-10 -1.610941e-07) (-2.292102e-10 1.623884e-10 1.295389e-07)) ((-1.156869e-13 -9.111320e-13 1.077277e-12) (-1.612825e-12 3.850231e-12 1.866277e-08))
1810.962818   	((-5.558525e-10 -5.477243e-10 -1.615204e-07) (-2.212271e-10 1.681392e-10 1.312934e-07)) ((-1.135162e-13 -9.199864e-13 1.070687e-12) (-1.262905e-12 3.796780e-12 1.861104e-08))
1891.615967   	((-5.511325e-10 -5.423932e-10 -1.618872e-07) (-2.134898e-10 1.734184e-10 1.329582e-07)) ((-1.117481e-13 -9.290307e-13 1.064712e-12) (-9.110663e-13 3.732482e-12 1.856605e-08))
