# Forces      
# CofR        : (0.000000e+00 0.000000e+00 0.000000e+00)
# Time        forces(pressure viscous)	moments(pressure viscous)
0             	((0.000000e+00 0.000000e+00 0.000000e+00) (-7.964489e-06 -2.684523e-15 -7.743033e-11)) ((0.000000e+00 0.000000e+00 0.000000e+00) (1.541255e-17 1.789525e-07 -2.301826e-16))
0.012         	((-2.316041e-03 3.861705e-09 2.451102e-04) (-9.140284e-06 1.366991e-11 -2.601138e-09)) ((1.952829e-13 -3.129424e-08 3.425465e-13) (7.814303e-14 2.637527e-07 -2.279910e-13))
0.0264        	((1.594442e-04 -4.032561e-08 -1.339498e-05) (-9.326990e-06 -9.126053e-12 -3.858032e-09)) ((9.859633e-13 2.196132e-09 -4.932791e-13) (-1.809360e-12 2.953300e-07 -4.344748e-13))
0.04368       	((4.849532e-04 3.319442e-08 -8.279807e-06) (-8.289818e-06 -5.224237e-12 -2.700600e-09)) ((-1.349694e-12 7.346656e-09 -4.216546e-13) (-2.104322e-12 2.631121e-07 -2.336970e-13))
0.064416      	((4.571041e-06 3.632559e-09 -1.106202e-05) (-7.343183e-06 -1.659812e-10 -1.466356e-09)) ((4.103973e-13 -8.156818e-11 -2.813027e-14) (-5.117717e-13 2.361853e-07 -7.590449e-13))
0.0892992     	((-6.562139e-06 4.855717e-09 -6.790044e-06) (-6.779852e-06 -2.502477e-10 -1.200729e-09)) ((-2.151625e-13 -3.341628e-10 4.603496e-14) (6.322221e-13 2.232619e-07 -6.868267e-13))
0.119159      	((7.233670e-06 -3.972344e-09 -4.024800e-06) (-6.260675e-06 -1.915914e-10 -1.683341e-09)) ((1.711608e-13 1.416844e-10 -1.525693e-13) (7.637991e-13 2.088961e-07 1.037349e-12))
0.154991      	((3.905895e-06 1.814488e-09 -2.475850e-06) (-5.709878e-06 -1.669241e-10 -2.200442e-09)) ((-5.030028e-14 8.268911e-11 -2.013215e-13) (8.006489e-13 1.928976e-07 2.559686e-12))
0.197989      	((9.501384e-07 -2.562946e-09 -1.560157e-06) (-5.153630e-06 -1.274813e-10 -2.357270e-09)) ((2.546740e-13 2.302181e-11 -2.100287e-13) (8.129218e-13 1.766089e-07 3.135581e-12))
0.249587      	((-1.242744e-07 -1.382358e-09 -9.793279e-07) (-4.607590e-06 -8.823406e-11 -2.533979e-09)) ((2.682908e-13 2.511623e-12 -4.408311e-15) (5.103378e-13 1.603144e-07 2.970659e-12))
0.311504      	((-6.159989e-07 -3.345831e-10 -6.244681e-07) (-4.088135e-06 -5.131349e-11 -2.776090e-09)) ((1.190098e-13 -3.624907e-12 -8.067989e-15) (5.015524e-13 1.443289e-07 2.395704e-12))
0.385805      	((-8.521857e-07 -9.457920e-11 -3.957330e-07) (-3.608424e-06 -2.700000e-11 -3.006279e-09)) ((6.273819e-14 -4.685817e-12 8.788924e-16) (4.633807e-13 1.290434e-07 1.747095e-12))
0.474966      	((-9.624199e-07 6.828582e-11 -2.538160e-07) (-3.178122e-06 -1.157026e-11 -3.212854e-09)) ((2.946892e-14 -5.910746e-12 3.259339e-15) (4.640766e-13 1.148834e-07 1.235660e-12))
0.581959      	((-1.006655e-06 5.175825e-12 -1.614206e-07) (-2.801422e-06 -2.154369e-12 -3.430336e-09)) ((1.299697e-14 -7.172443e-12 -1.253643e-16) (5.452983e-13 1.021145e-07 7.791371e-13))
0.710351      	((-1.002579e-06 3.729513e-11 -1.070762e-07) (-2.478539e-06 3.889221e-13 -3.627854e-09)) ((5.258817e-15 -7.989835e-12 -2.707447e-15) (5.894660e-13 9.088843e-08 4.191501e-13))
0.864421      	((-9.663904e-07 -8.704553e-12 -7.329534e-08) (-2.205349e-06 -6.757316e-14 -3.774765e-09)) ((3.992293e-15 -8.135523e-12 -8.923217e-16) (4.898826e-13 8.120823e-08 2.593882e-13))
1.049306      	((-9.132400e-07 3.495042e-12 -5.430877e-08) (-1.974855e-06 -2.537091e-12 -3.914577e-09)) ((1.579264e-15 -7.779798e-12 -5.457533e-16) (3.220351e-13 7.292977e-08 2.141291e-13))
1.271167      	((-8.542315e-07 -9.289727e-12 -4.309795e-08) (-1.779858e-06 -3.638881e-12 -4.053575e-09)) ((1.894897e-15 -7.231287e-12 -1.558477e-15) (1.990510e-13 6.583361e-08 2.085954e-13))
1.5374        	((-7.939551e-07 -1.197330e-11 -3.806750e-08) (-1.612680e-06 -3.966476e-12 -4.222168e-09)) ((1.562078e-15 -6.681304e-12 -2.136964e-15) (1.074016e-13 5.968395e-08 2.033320e-13))
1.85688       	((-7.351951e-07 -1.624611e-12 -3.632677e-08) (-1.466337e-06 -2.585399e-12 -4.451719e-09)) ((2.182511e-15 -6.112789e-12 -1.871741e-15) (5.973665e-14 5.427481e-08 1.725298e-13))
2.240256      	((-6.794532e-07 -1.007273e-11 -3.723826e-08) (-1.336255e-06 7.192322e-13 -4.738626e-09)) ((2.812596e-15 -5.614148e-12 -8.670406e-16) (2.439759e-14 4.945779e-08 1.481475e-13))
2.700307      	((-6.274276e-07 -2.567059e-11 -3.932663e-08) (-1.219592e-06 2.941317e-12 -5.043255e-09)) ((3.991021e-15 -5.191427e-12 -2.459109e-16) (-4.597674e-14 4.513467e-08 2.172447e-13))
3.252369      	((-5.788625e-07 -3.892866e-11 -4.210419e-08) (-1.114447e-06 2.610234e-12 -5.349678e-09)) ((4.590091e-15 -4.785364e-12 -1.994862e-16) (-1.343506e-13 4.123829e-08 3.286419e-13))
3.914842      	((-5.331709e-07 -4.784541e-11 -4.497013e-08) (-1.019469e-06 7.603687e-13 -5.691514e-09)) ((4.702941e-15 -4.381987e-12 -9.589369e-17) (-2.347257e-13 3.771819e-08 4.105200e-13))
4.709811      	((-4.907160e-07 -4.845452e-11 -4.789427e-08) (-9.336635e-07 -3.018675e-13 -6.076961e-09)) ((4.405139e-15 -4.008462e-12 -3.517443e-16) (-3.241374e-13 3.453685e-08 4.290245e-13))
5.663773      	((-4.515040e-07 -3.083010e-11 -5.052788e-08) (-8.562622e-07 6.010378e-13 -6.484736e-09)) ((3.464279e-15 -3.674604e-12 -5.574215e-16) (-3.687145e-13 3.166739e-08 3.759504e-13))
6.808528      	((-4.154961e-07 -6.714351e-12 -5.283072e-08) (-7.866599e-07 4.512339e-14 -6.909984e-09)) ((3.067948e-15 -3.386581e-12 -8.857628e-16) (-3.940221e-13 2.908719e-08 3.566406e-13))
8.182233      	((-3.825678e-07 -1.435643e-11 -5.482144e-08) (-7.241999e-07 -7.962511e-13 -7.352291e-09)) ((2.755826e-15 -3.135251e-12 -9.601691e-16) (-4.048307e-13 2.677187e-08 4.374765e-13))
9.83068       	((-3.526967e-07 -3.141186e-11 -5.655747e-08) (-6.681041e-07 -3.118913e-14 -7.821707e-09)) ((2.272920e-15 -2.911469e-12 -9.785439e-16) (-4.221003e-13 2.469298e-08 5.841785e-13))
11.808816     	((-3.253774e-07 -3.898931e-11 -5.799209e-08) (-6.175539e-07 1.533103e-12 -8.327884e-09)) ((2.745988e-15 -2.709094e-12 -8.539676e-16) (-4.885777e-13 2.281980e-08 8.721895e-13))
14.182579     	((-3.004124e-07 -2.871046e-11 -5.918890e-08) (-5.717980e-07 4.590844e-12 -8.881632e-09)) ((2.612261e-15 -2.520795e-12 -4.942439e-16) (-5.396552e-13 2.112417e-08 1.309053e-12))
17.031095     	((-2.776548e-07 -5.035562e-11 -6.018210e-08) (-5.302317e-07 6.040985e-12 -9.487223e-09)) ((3.907379e-15 -2.348152e-12 -3.813876e-17) (-6.206216e-13 1.958342e-08 1.853061e-12))
20.449314     	((-2.568983e-07 -8.659362e-11 -6.098060e-08) (-4.923849e-07 5.094969e-12 -1.014263e-08)) ((5.467585e-15 -2.190794e-12 -3.839874e-17) (-8.051860e-13 1.818006e-08 2.407877e-12))
24.551176     	((-2.380138e-07 -9.870075e-11 -6.151354e-08) (-4.579066e-07 3.586556e-12 -1.083636e-08)) ((7.209166e-15 -2.048068e-12 -1.174999e-16) (-9.962386e-13 1.690139e-08 2.931156e-12))
29.473411     	((-2.209056e-07 -8.716251e-11 -6.181729e-08) (-4.265355e-07 2.973937e-12 -1.156153e-08)) ((9.240661e-15 -1.921963e-12 -5.145539e-16) (-1.177981e-12 1.573787e-08 3.358636e-12))
35.380094     	((-2.053849e-07 -8.312255e-11 -6.192334e-08) (-3.980468e-07 1.461848e-12 -1.231679e-08)) ((9.737164e-15 -1.809491e-12 -7.194228e-16) (-1.331283e-12 1.468142e-08 3.853307e-12))
42.468112     	((-1.914185e-07 -8.973248e-11 -6.181733e-08) (-3.722225e-07 2.758981e-13 -1.310444e-08)) ((9.760855e-15 -1.710461e-12 -5.766291e-16) (-1.423519e-12 1.372381e-08 4.468693e-12))
50.973735     	((-1.789029e-07 -9.883819e-11 -6.151611e-08) (-3.488333e-07 -2.717597e-13 -1.391120e-08)) ((1.017691e-14 -1.623587e-12 -1.433574e-16) (-1.508663e-12 1.285677e-08 5.229730e-12))
61.180482     	((-1.677071e-07 -8.465409e-11 -6.099067e-08) (-3.276559e-07 3.650261e-13 -1.473043e-08)) ((9.806331e-15 -1.547301e-12 1.333216e-16) (-1.527614e-12 1.207200e-08 6.186676e-12))
73.428578     	((-1.577237e-07 -6.921533e-11 -6.030621e-08) (-3.084812e-07 2.549109e-12 -1.556965e-08)) ((8.619172e-15 -1.481431e-12 4.909630e-16) (-1.457157e-12 1.136136e-08 7.363042e-12))
88.126294     	((-1.489013e-07 -5.613426e-11 -5.949699e-08) (-2.911072e-07 5.257941e-12 -1.642537e-08)) ((7.572632e-15 -1.426590e-12 8.819206e-16) (-1.330185e-12 1.071757e-08 8.676420e-12))
105.763553    	((-1.411472e-07 -4.323591e-11 -5.857452e-08) (-2.753696e-07 8.274643e-12 -1.729965e-08)) ((6.462970e-15 -1.380743e-12 1.294604e-15) (-1.152846e-12 1.013445e-08 1.007282e-11))
126.928263    	((-1.344416e-07 -2.443054e-11 -5.754329e-08) (-2.611353e-07 1.166479e-11 -1.819244e-08)) ((5.065704e-15 -1.343659e-12 1.539493e-15) (-9.119656e-13 9.607110e-09 1.145455e-11))
152.325916    	((-1.287070e-07 -7.910304e-12 -5.641070e-08) (-2.482917e-07 1.557043e-11 -1.910145e-08)) ((3.936281e-15 -1.315508e-12 1.728644e-15) (-6.344574e-13 9.131589e-09 1.273755e-11))
182.803099    	((-1.238759e-07 5.845235e-12 -5.524061e-08) (-2.367481e-07 1.861748e-11 -2.002701e-08)) ((3.055580e-15 -1.295504e-12 1.894166e-15) (-3.724908e-13 8.704737e-09 1.387246e-11))
219.375719    	((-1.198419e-07 2.099197e-11 -5.397531e-08) (-2.264232e-07 2.071338e-11 -2.096871e-08)) ((2.384159e-15 -1.283509e-12 1.897465e-15) (-1.142566e-13 8.323852e-09 1.482221e-11))
263.262863    	((-1.165615e-07 3.371226e-11 -5.266966e-08) (-2.172468e-07 2.213846e-11 -2.192404e-08)) ((1.747303e-15 -1.279259e-12 1.823764e-15) (1.420890e-13 7.986487e-09 1.556530e-11))
315.927436    	((-1.140158e-07 3.992067e-11 -5.132721e-08) (-2.091580e-07 2.346875e-11 -2.289097e-08)) ((1.186948e-15 -1.282264e-12 1.740026e-15) (3.841559e-13 7.690431e-09 1.610118e-11))
379.124923    	((-1.121351e-07 4.947025e-11 -4.997785e-08) (-2.021001e-07 2.452939e-11 -2.386362e-08)) ((9.106392e-16 -1.289915e-12 1.701074e-15) (6.296417e-13 7.433542e-09 1.641069e-11))
454.961908    	((-1.108311e-07 5.924277e-11 -4.864810e-08) (-1.960144e-07 2.541936e-11 -2.482907e-08)) ((6.633364e-16 -1.299945e-12 1.538818e-15) (8.788519e-13 7.213355e-09 1.651971e-11))
545.966289    	((-1.099773e-07 6.865064e-11 -4.733972e-08) (-1.908314e-07 2.644202e-11 -2.576488e-08)) ((5.269618e-16 -1.310246e-12 1.391731e-15) (1.128642e-12 7.026844e-09 1.643010e-11))
655.171547    	((-1.094500e-07 7.734145e-11 -4.607232e-08) (-1.864682e-07 2.793595e-11 -2.664569e-08)) ((4.092351e-16 -1.319235e-12 1.304470e-15) (1.385309e-12 6.870472e-09 1.616566e-11))
786.217856    	((-1.091230e-07 8.481696e-11 -4.484809e-08) (-1.828293e-07 2.975680e-11 -2.744862e-08)) ((2.802375e-16 -1.325819e-12 1.214981e-15) (1.636047e-12 6.740420e-09 1.576485e-11))
939.163903    	((-1.089189e-07 8.851847e-11 -4.368378e-08) (-1.798228e-07 3.187471e-11 -2.815586e-08)) ((3.630826e-16 -1.329831e-12 1.142365e-15) (1.867588e-12 6.633186e-09 1.525266e-11))
1114.026363   	((-1.087477e-07 8.965615e-11 -4.262337e-08) (-1.773437e-07 3.423623e-11 -2.876461e-08)) ((6.167921e-16 -1.331119e-12 1.078382e-15) (2.067686e-12 6.544990e-09 1.467000e-11))
1310.825578   	((-1.085953e-07 8.869511e-11 -4.169084e-08) (-1.753035e-07 3.658601e-11 -2.927986e-08)) ((8.214340e-16 -1.330261e-12 1.038706e-15) (2.222875e-12 6.472710e-09 1.404635e-11))
1529.583087   	((-1.084552e-07 8.643230e-11 -4.090538e-08) (-1.736223e-07 3.894043e-11 -2.971336e-08)) ((1.059650e-15 -1.327852e-12 9.909496e-16) (2.337528e-12 6.413532e-09 1.340166e-11))
1749.36909    	((-1.083591e-07 8.328848e-11 -4.026735e-08) (-1.722479e-07 4.111128e-11 -3.007509e-08)) ((1.306974e-15 -1.324758e-12 9.274155e-16) (2.411803e-12 6.365584e-09 1.275825e-11))
1969.331486   	((-1.082614e-07 7.947677e-11 -3.975083e-08) (-1.711165e-07 4.294977e-11 -3.037924e-08)) ((1.568775e-15 -1.320881e-12 8.808319e-16) (2.438793e-12 6.326537e-09 1.211885e-11))
2189.443878   	((-1.081833e-07 7.465007e-11 -3.932993e-08) (-1.701886e-07 4.439664e-11 -3.063452e-08)) ((1.868097e-15 -1.317003e-12 8.394836e-16) (2.421012e-12 6.294918e-09 1.148938e-11))
2409.681505   	((-1.081116e-07 6.916318e-11 -3.898653e-08) (-1.694231e-07 4.538107e-11 -3.085020e-08)) ((2.178837e-15 -1.313242e-12 8.005149e-16) (2.367707e-12 6.269195e-09 1.087182e-11))
2630.023811   	((-1.080529e-07 6.324802e-11 -3.870291e-08) (-1.687919e-07 4.599724e-11 -3.103266e-08)) ((2.506747e-15 -1.309898e-12 7.639108e-16) (2.284878e-12 6.248289e-09 1.027143e-11))
2850.453075   	((-1.080010e-07 5.732614e-11 -3.846845e-08) (-1.682691e-07 4.623318e-11 -3.118785e-08)) ((2.802768e-15 -1.306858e-12 7.296762e-16) (2.180170e-12 6.231218e-09 9.697017e-12))
3070.954739   	((-1.079575e-07 5.171667e-11 -3.827419e-08) (-1.678358e-07 4.616050e-11 -3.132003e-08)) ((3.051972e-15 -1.304171e-12 7.014747e-16) (2.060749e-12 6.217266e-09 9.156030e-12))
3291.516448   	((-1.079195e-07 4.622096e-11 -3.810850e-08) (-1.674754e-07 4.582977e-11 -3.143287e-08)) ((3.288820e-15 -1.301805e-12 6.691502e-16) (1.929555e-12 6.205816e-09 8.648859e-12))
3512.128015   	((-1.078876e-07 4.096042e-11 -3.797607e-08) (-1.671755e-07 4.529919e-11 -3.152927e-08)) ((3.497528e-15 -1.299739e-12 6.437626e-16) (1.790553e-12 6.196405e-09 8.172078e-12))
3732.780959   	((-1.078603e-07 3.587564e-11 -3.786183e-08) (-1.669252e-07 4.460429e-11 -3.161167e-08)) ((3.695345e-15 -1.297927e-12 6.170054e-16) (1.648378e-12 6.188644e-09 7.728176e-12))
3953.468303   	((-1.078372e-07 3.101559e-11 -3.776699e-08) (-1.667162e-07 4.376864e-11 -3.168212e-08)) ((3.870504e-15 -1.296357e-12 5.953152e-16) (1.506621e-12 6.182230e-09 7.317997e-12))
4174.184284   	((-1.078176e-07 2.632753e-11 -3.768692e-08) (-1.665411e-07 4.281537e-11 -3.174234e-08)) ((4.031454e-15 -1.294990e-12 5.806950e-16) (1.367484e-12 6.176915e-09 6.940338e-12))
4394.924159   	((-1.078010e-07 2.192835e-11 -3.762019e-08) (-1.663944e-07 4.179263e-11 -3.179380e-08)) ((4.176570e-15 -1.293810e-12 5.624774e-16) (1.232474e-12 6.172501e-09 6.594366e-12))
4615.684014   	((-1.077870e-07 1.786508e-11 -3.756372e-08) (-1.662712e-07 4.073730e-11 -3.183774e-08)) ((4.307776e-15 -1.292797e-12 5.447094e-16) (1.102815e-12 6.168828e-09 6.278758e-12))
4836.46062    	((-1.077751e-07 1.408721e-11 -3.751620e-08) (-1.661678e-07 3.965603e-11 -3.187523e-08)) ((4.425629e-15 -1.291929e-12 5.288030e-16) (9.790226e-13 6.165766e-09 5.991925e-12))
5057.251299   	((-1.077651e-07 1.058979e-11 -3.747604e-08) (-1.660807e-07 3.858058e-11 -3.190720e-08)) ((4.532177e-15 -1.291182e-12 5.139921e-16) (8.616200e-13 6.163210e-09 5.731799e-12))
5278.053831   	((-1.077566e-07 7.428081e-12 -3.744225e-08) (-1.660074e-07 3.752817e-11 -3.193444e-08)) ((4.629839e-15 -1.290546e-12 5.003908e-16) (7.510867e-13 6.161071e-09 5.496544e-12))
5498.866366   	((-1.077492e-07 4.540909e-12 -3.741371e-08) (-1.659456e-07 3.650899e-11 -3.195766e-08)) ((4.719079e-15 -1.290002e-12 4.880838e-16) (6.476816e-13 6.159279e-09 5.284584e-12))
5719.687364   	((-1.077431e-07 1.957551e-12 -3.738981e-08) (-1.658935e-07 3.553300e-11 -3.197744e-08)) ((4.797345e-15 -1.289540e-12 4.772567e-16) (5.517730e-13 6.157776e-09 5.094313e-12))
5940.515533   	((-1.077379e-07 -3.652865e-13 -3.736948e-08) (-1.658496e-07 3.460481e-11 -3.199427e-08)) ((4.868015e-15 -1.289142e-12 4.677120e-16) (4.634036e-13 6.156513e-09 4.924101e-12))
6161.34979    	((-1.077335e-07 -2.443964e-12 -3.735225e-08) (-1.658125e-07 3.373164e-11 -3.200859e-08)) ((4.929605e-15 -1.288803e-12 4.595785e-16) (3.824034e-13 6.155451e-09 4.772176e-12))
6382.189221   	((-1.077297e-07 -4.313428e-12 -3.733766e-08) (-1.657811e-07 3.291649e-11 -3.202076e-08)) ((4.984349e-15 -1.288516e-12 4.525576e-16) (3.085093e-13 6.154558e-09 4.636897e-12))
6603.033055   	((-1.077266e-07 -5.984471e-12 -3.732534e-08) (-1.657546e-07 3.215891e-11 -3.203111e-08)) ((5.032907e-15 -1.288272e-12 4.462445e-16) (2.413023e-13 6.153805e-09 4.516737e-12))
6823.880639   	((-1.077238e-07 -7.478952e-12 -3.731493e-08) (-1.657322e-07 3.145900e-11 -3.203990e-08)) ((5.074310e-15 -1.288064e-12 4.407881e-16) (1.804445e-13 6.153170e-09 4.410235e-12))
7044.731419   	((-1.077215e-07 -8.790615e-12 -3.730624e-08) (-1.657132e-07 3.081661e-11 -3.204736e-08)) ((5.110920e-15 -1.287889e-12 4.357847e-16) (1.255415e-13 6.152635e-09 4.316003e-12))
7265.584928   	((-1.077196e-07 -9.958138e-12 -3.729878e-08) (-1.656972e-07 3.022963e-11 -3.205369e-08)) ((5.143337e-15 -1.287740e-12 4.312236e-16) (7.614188e-14 6.152183e-09 4.232782e-12))
7486.440765   	((-1.077179e-07 -1.100773e-11 -3.729211e-08) (-1.656836e-07 2.969492e-11 -3.205907e-08)) ((5.172326e-15 -1.287610e-12 4.272274e-16) (3.180010e-14 6.151801e-09 4.159428e-12))
7707.298592   	((-1.077165e-07 -1.190947e-11 -3.728683e-08) (-1.656721e-07 2.921027e-11 -3.206364e-08)) ((5.197484e-15 -1.287502e-12 4.236900e-16) (-7.853929e-15 6.151479e-09 4.094907e-12))
7928.158118   	((-1.077153e-07 -1.270555e-11 -3.728228e-08) (-1.656624e-07 2.877236e-11 -3.206751e-08)) ((5.219834e-15 -1.287409e-12 4.205036e-16) (-4.324339e-14 6.151206e-09 4.038225e-12))
8149.019098   	((-1.077143e-07 -1.341313e-11 -3.727848e-08) (-1.656541e-07 2.837867e-11 -3.207080e-08)) ((5.239479e-15 -1.287333e-12 4.176795e-16) (-7.473194e-14 6.150975e-09 3.988485e-12))
8369.88132    	((-1.077135e-07 -1.401956e-11 -3.727528e-08) (-1.656471e-07 2.802639e-11 -3.207359e-08)) ((5.256327e-15 -1.287268e-12 4.152970e-16) (-1.026590e-13 6.150780e-09 3.944911e-12))
8590.744603   	((-1.077128e-07 -1.455221e-11 -3.727252e-08) (-1.656412e-07 2.771186e-11 -3.207595e-08)) ((5.271151e-15 -1.287212e-12 4.131607e-16) (-1.273954e-13 6.150615e-09 3.906755e-12))
8811.608793   	((-1.077122e-07 -1.503386e-11 -3.727030e-08) (-1.656362e-07 2.743161e-11 -3.207796e-08)) ((5.284392e-15 -1.287165e-12 4.112503e-16) (-1.492613e-13 6.150475e-09 3.873402e-12))
9032.47376    	((-1.077117e-07 -1.543384e-11 -3.726829e-08) (-1.656320e-07 2.718318e-11 -3.207966e-08)) ((5.295375e-15 -1.287125e-12 4.096185e-16) (-1.685217e-13 6.150357e-09 3.844274e-12))
