# Forces      
# CofR        : (0.000000e+00 0.000000e+00 0.000000e+00)
# Time        forces(pressure viscous)	moments(pressure viscous)
0             	((0.000000e+00 0.000000e+00 0.000000e+00) (-6.449582e-14 -1.262529e-04 1.142577e-14)) ((0.000000e+00 0.000000e+00 0.000000e+00) (-2.836770e-06 -3.477583e-16 6.142880e-11))
0.012         	((2.740556e-08 -3.672333e-02 8.263027e-03) (1.984967e-10 -1.447882e-04 -1.308438e-07)) ((4.329312e-07 2.824647e-08 6.911066e-09) (-4.181491e-06 6.121856e-13 1.234390e-10))
0.0264        	((-6.828114e-07 2.731299e-03 -5.879541e-04) (-1.577459e-10 -1.475201e-04 -2.049545e-07)) ((-3.229055e-08 -1.834982e-09 -4.311684e-10) (-4.677265e-06 3.006339e-11 1.571095e-10))
0.04368       	((4.114794e-07 7.582391e-03 -6.365432e-04) (9.507772e-12 -1.309100e-04 -1.913821e-07)) ((-9.888975e-08 -2.103740e-09 -1.900081e-09) (-4.165986e-06 4.195363e-11 1.283948e-10))
0.064416      	((4.155375e-08 7.097696e-05 -3.342437e-04) (-9.146445e-10 -1.158784e-04 -1.005681e-07)) ((3.894987e-10 -1.004395e-09 1.346328e-10) (-3.743240e-06 2.767471e-11 1.540301e-10))
0.0892992     	((7.132005e-09 -8.290500e-05 -2.120173e-04) (-2.663475e-09 -1.069335e-04 -8.984868e-08)) ((3.680826e-09 -5.820116e-10 1.109435e-10) (-3.539482e-06 1.511419e-11 1.285805e-10))
0.119159      	((-4.428337e-08 1.206827e-04 -1.421033e-04) (-2.551429e-09 -9.872555e-05 -1.644917e-07)) ((-2.144225e-09 -3.832198e-10 -6.135977e-11) (-3.314308e-06 1.749038e-11 5.786918e-11))
0.154991      	((-5.440054e-08 6.148101e-05 -9.941352e-05) (-1.661130e-09 -9.009271e-05 -2.190177e-07)) ((-1.302072e-09 -2.200760e-10 -5.528656e-12) (-3.065519e-06 3.057082e-11 -9.046288e-13))
0.197989      	((-4.131795e-08 1.442048e-05 -7.106335e-05) (-8.970210e-10 -8.147333e-05 -2.728142e-07)) ((-5.000506e-10 -1.195800e-10 1.244775e-11) (-2.813831e-06 3.107698e-11 -3.518086e-11))
0.249587      	((-2.699731e-08 -2.243157e-06 -5.370377e-05) (-1.128177e-09 -7.313641e-05 -3.372593e-07)) ((-2.144679e-10 -6.277462e-11 4.128033e-13) (-2.564840e-06 2.847608e-11 -6.151376e-11))
0.311504      	((-1.333082e-08 -9.850533e-06 -4.278876e-05) (-2.248659e-09 -6.532453e-05 -4.116402e-07)) ((-1.099575e-10 -2.875516e-11 1.290071e-12) (-2.323666e-06 1.991445e-11 -1.027008e-10))
0.385805      	((-8.196568e-09 -1.414766e-05 -3.599628e-05) (-2.470087e-09 -5.823471e-05 -4.920882e-07)) ((-6.205641e-11 -9.663853e-12 1.393322e-12) (-2.096396e-06 1.044973e-11 -1.335903e-10))
0.474966      	((-6.746237e-09 -1.643398e-05 -3.151314e-05) (-1.809997e-09 -5.196493e-05 -5.705543e-07)) ((-2.663006e-11 3.382864e-12 1.022069e-12) (-1.888058e-06 8.807237e-12 -1.502723e-10))
0.581959      	((-1.502476e-09 -1.737896e-05 -2.877482e-05) (-9.899889e-10 -4.644711e-05 -6.481123e-07)) ((6.253040e-13 1.207286e-11 5.292827e-13) (-1.698926e-06 1.696557e-11 -1.364200e-10))
0.710351      	((-1.586352e-09 -1.736892e-05 -2.701483e-05) (-4.240111e-10 -4.158883e-05 -7.159940e-07)) ((2.001387e-11 1.797441e-11 1.247998e-12) (-1.528331e-06 2.689691e-11 -1.131585e-10))
0.864421      	((-9.087596e-10 -1.675927e-05 -2.600065e-05) (-1.209554e-10 -3.732121e-05 -7.727027e-07)) ((3.152241e-11 2.058705e-11 2.352180e-12) (-1.375755e-06 3.262466e-11 -9.836094e-11))
1.049306      	((-1.318458e-09 -1.584440e-05 -2.534554e-05) (1.024172e-10 -3.357141e-05 -8.260817e-07)) ((3.700472e-11 2.182111e-11 2.303443e-12) (-1.239719e-06 3.395799e-11 -9.000547e-11))
1.271167      	((-1.325834e-09 -1.477412e-05 -2.498282e-05) (3.068379e-10 -3.027270e-05 -8.853140e-07)) ((3.852646e-11 2.204021e-11 1.949591e-12) (-1.118720e-06 2.959310e-11 -7.587493e-11))
1.5374        	((-1.512013e-09 -1.364809e-05 -2.476716e-05) (4.731936e-10 -2.736030e-05 -9.546176e-07)) ((3.669333e-11 2.187328e-11 1.641069e-12) (-1.011292e-06 2.315748e-11 -5.881935e-11))
1.85688       	((-4.498947e-10 -1.255505e-05 -2.465235e-05) (6.275068e-10 -2.478102e-05 -1.033179e-06)) ((3.501832e-11 2.135112e-11 1.501233e-12) (-9.159712e-07 1.594358e-11 -4.037315e-11))
2.240256      	((-7.917839e-10 -1.155012e-05 -2.456790e-05) (7.031728e-10 -2.249439e-05 -1.119239e-06)) ((3.477454e-11 2.084284e-11 1.636027e-12) (-8.314220e-07 1.228387e-11 -2.662491e-11))
2.700307      	((-1.152401e-09 -1.064216e-05 -2.450416e-05) (6.624173e-10 -2.046560e-05 -1.211661e-06)) ((3.539205e-11 1.995537e-11 1.901296e-12) (-7.563818e-07 1.311281e-11 -2.286011e-11))
3.252369      	((-1.135995e-09 -9.826084e-06 -2.443596e-05) (6.274045e-10 -1.866032e-05 -1.310313e-06)) ((3.698353e-11 1.899672e-11 2.020232e-12) (-6.895916e-07 1.446769e-11 -2.808154e-11))
3.914842      	((-1.389721e-09 -9.112744e-06 -2.435685e-05) (5.757401e-10 -1.705112e-05 -1.414913e-06)) ((3.964321e-11 1.792868e-11 1.929248e-12) (-6.300495e-07 1.644014e-11 -3.321267e-11))
4.709811      	((-2.373620e-09 -8.504732e-06 -2.426543e-05) (4.775499e-10 -1.562036e-05 -1.524696e-06)) ((4.337998e-11 1.692302e-11 1.959274e-12) (-5.771019e-07 1.949210e-11 -4.104727e-11))
5.663773      	((-1.490173e-09 -8.007142e-06 -2.415092e-05) (4.308609e-10 -1.435457e-05 -1.638743e-06)) ((4.828549e-11 1.592406e-11 2.212814e-12) (-5.302351e-07 2.180384e-11 -5.200490e-11))
6.808528      	((-2.544465e-09 -7.614921e-06 -2.400550e-05) (2.689483e-10 -1.323954e-05 -1.756315e-06)) ((5.438556e-11 1.502221e-11 2.554088e-12) (-4.889211e-07 2.589771e-11 -5.578128e-11))
8.182233      	((-3.020140e-09 -7.335104e-06 -2.382438e-05) (4.689039e-11 -1.225929e-05 -1.876700e-06)) ((6.175175e-11 1.427471e-11 3.047891e-12) (-4.525789e-07 3.036837e-11 -5.232898e-11))
9.83068       	((-3.109986e-09 -7.168953e-06 -2.360866e-05) (-1.357866e-10 -1.139810e-05 -1.998877e-06)) ((7.042644e-11 1.351129e-11 3.580297e-12) (-4.206382e-07 3.323896e-11 -5.044752e-11))
11.808816     	((-3.619223e-09 -7.115874e-06 -2.336198e-05) (-2.709138e-10 -1.064384e-05 -2.121322e-06)) ((8.056898e-11 1.251095e-11 4.130906e-12) (-3.926500e-07 3.873058e-11 -5.360959e-11))
14.182579     	((-2.999627e-09 -7.172040e-06 -2.307579e-05) (-3.099283e-10 -9.987553e-06 -2.241620e-06)) ((9.210651e-11 1.147506e-11 4.900026e-12) (-3.682958e-07 4.250617e-11 -6.388095e-11))
17.031095     	((-2.876174e-09 -7.332632e-06 -2.275479e-05) (-3.911735e-10 -9.421428e-06 -2.356622e-06)) ((1.050201e-10 1.033298e-11 5.907855e-12) (-3.473435e-07 4.424700e-11 -8.361669e-11))
20.449314     	((-2.657159e-09 -7.585152e-06 -2.239825e-05) (-5.234638e-10 -8.940393e-06 -2.464183e-06)) ((1.194307e-10 9.054507e-12 7.155497e-12) (-3.295972e-07 4.544340e-11 -9.829482e-11))
24.551176     	((-2.745551e-09 -7.919905e-06 -2.201032e-05) (-5.150338e-10 -8.537870e-06 -2.563203e-06)) ((1.353876e-10 7.837975e-12 8.419871e-12) (-3.148920e-07 4.164371e-11 -1.145888e-10))
29.473411     	((-2.090509e-09 -8.316104e-06 -2.159013e-05) (-3.553545e-10 -8.208163e-06 -2.652440e-06)) ((1.517995e-10 6.830987e-12 9.905826e-12) (-3.030646e-07 3.522485e-11 -1.364538e-10))
35.310746     	((-1.041146e-09 -8.738347e-06 -2.113622e-05) (-2.025432e-10 -7.946296e-06 -2.729544e-06)) ((1.675172e-10 6.142306e-12 1.141818e-11) (-2.938967e-07 2.954276e-11 -1.544983e-10))
42.056616     	((-4.783946e-10 -9.154566e-06 -2.063742e-05) (-9.076461e-11 -7.744306e-06 -2.789246e-06)) ((1.806405e-10 5.756862e-12 1.279500e-11) (-2.869464e-07 2.583162e-11 -1.706668e-10))
49.70404      	((1.299653e-11 -9.514064e-06 -2.007636e-05) (5.956212e-11 -7.586838e-06 -2.827742e-06)) ((1.906301e-10 5.538214e-12 1.391087e-11) (-2.815047e-07 2.249975e-11 -1.845553e-10))
58.248927     	((6.142496e-10 -9.806188e-06 -1.945525e-05) (2.089778e-10 -7.458007e-06 -2.845366e-06)) ((1.983927e-10 5.320403e-12 1.476842e-11) (-2.769846e-07 1.733982e-11 -1.906078e-10))
67.228751     	((1.787789e-09 -1.004008e-05 -1.883297e-05) (4.503320e-10 -7.350112e-06 -2.847333e-06)) ((2.048049e-10 5.068289e-12 1.550408e-11) (-2.732103e-07 8.277469e-12 -1.906461e-10))
76.241334     	((2.815432e-09 -1.019050e-05 -1.823118e-05) (6.920418e-10 -7.258892e-06 -2.841554e-06)) ((2.101439e-10 5.050901e-12 1.616351e-11) (-2.700946e-07 -2.096039e-12 -1.863502e-10))
85.281383     	((2.908674e-09 -1.025658e-05 -1.766132e-05) (9.467757e-10 -7.179246e-06 -2.833232e-06)) ((2.137903e-10 5.418777e-12 1.669829e-11) (-2.674519e-07 -1.357153e-11 -1.775826e-10))
94.333916     	((2.143839e-09 -1.027058e-05 -1.713325e-05) (1.124561e-09 -7.107980e-06 -2.824863e-06)) ((2.158498e-10 6.057371e-12 1.709133e-11) (-2.651398e-07 -2.111675e-11 -1.689049e-10))
103.392365    	((1.543907e-09 -1.025922e-05 -1.665348e-05) (1.210552e-09 -7.043484e-06 -2.817693e-06)) ((2.168809e-10 6.797911e-12 1.736072e-11) (-2.630591e-07 -2.450171e-11 -1.649821e-10))
112.457762    	((1.373813e-09 -1.022978e-05 -1.621395e-05) (1.256759e-09 -6.985406e-06 -2.811862e-06)) ((2.172068e-10 7.525339e-12 1.754138e-11) (-2.611841e-07 -2.826955e-11 -1.638125e-10))
121.531363    	((9.777864e-10 -1.019298e-05 -1.580220e-05) (1.239492e-09 -6.932523e-06 -2.807508e-06)) ((2.172200e-10 8.266670e-12 1.768111e-11) (-2.594731e-07 -3.096715e-11 -1.630687e-10))
130.612567    	((7.712512e-10 -1.015585e-05 -1.541386e-05) (1.210057e-09 -6.884442e-06 -2.804422e-06)) ((2.170133e-10 9.023380e-12 1.778959e-11) (-2.579108e-07 -3.289241e-11 -1.610369e-10))
139.700346    	((4.538714e-10 -1.012352e-05 -1.505771e-05) (1.161535e-09 -6.840918e-06 -2.802629e-06)) ((2.166657e-10 9.719554e-12 1.789988e-11) (-2.564801e-07 -3.336221e-11 -1.596368e-10))
148.794093    	((3.966808e-10 -1.009441e-05 -1.472825e-05) (1.099379e-09 -6.801725e-06 -2.801807e-06)) ((2.163365e-10 1.036960e-11 1.800053e-11) (-2.551759e-07 -3.318979e-11 -1.597253e-10))
157.893361    	((1.476158e-10 -1.006604e-05 -1.442366e-05) (1.024465e-09 -6.766348e-06 -2.801478e-06)) ((2.160119e-10 1.097142e-11 1.808117e-11) (-2.539922e-07 -3.302666e-11 -1.594245e-10))
166.997654    	((1.300535e-10 -1.004006e-05 -1.413978e-05) (9.721690e-10 -6.734400e-06 -2.801464e-06)) ((2.157036e-10 1.154767e-11 1.815398e-11) (-2.529205e-07 -3.286094e-11 -1.584653e-10))
176.106519    	((9.702243e-11 -1.001716e-05 -1.387756e-05) (9.441091e-10 -6.705676e-06 -2.801485e-06)) ((2.154908e-10 1.208291e-11 1.821379e-11) (-2.519602e-07 -3.278503e-11 -1.585102e-10))
185.219574    	((7.880081e-11 -9.997371e-06 -1.363385e-05) (9.038401e-10 -6.679976e-06 -2.801326e-06)) ((2.153830e-10 1.257643e-11 1.826457e-11) (-2.511112e-07 -3.190701e-11 -1.595745e-10))
194.336138    	((-7.769139e-11 -9.977253e-06 -1.340672e-05) (8.447806e-10 -6.656858e-06 -2.800931e-06)) ((2.152978e-10 1.304111e-11 1.831057e-11) (-2.503604e-07 -3.010048e-11 -1.614797e-10))
203.455827    	((-4.983076e-11 -9.957286e-06 -1.319352e-05) (7.897988e-10 -6.635987e-06 -2.800400e-06)) ((2.152069e-10 1.350373e-11 1.835132e-11) (-2.496916e-07 -2.810949e-11 -1.633259e-10))
212.57838     	((2.254339e-10 -9.936592e-06 -1.299188e-05) (7.775750e-10 -6.616934e-06 -2.799904e-06)) ((2.150839e-10 1.395722e-11 1.838770e-11) (-2.490842e-07 -2.692204e-11 -1.646916e-10))
221.703573    	((3.540292e-10 -9.917379e-06 -1.280226e-05) (8.009280e-10 -6.599478e-06 -2.799487e-06)) ((2.149665e-10 1.438493e-11 1.842180e-11) (-2.485282e-07 -2.600316e-11 -1.653359e-10))
230.831205    	((5.978065e-10 -9.899807e-06 -1.262537e-05) (8.412294e-10 -6.583521e-06 -2.799094e-06)) ((2.148560e-10 1.478687e-11 1.845364e-11) (-2.480198e-07 -2.559579e-11 -1.652619e-10))
239.961096    	((9.152602e-10 -9.883437e-06 -1.245943e-05) (8.925275e-10 -6.568916e-06 -2.798693e-06)) ((2.147478e-10 1.516546e-11 1.848314e-11) (-2.475554e-07 -2.582083e-11 -1.644871e-10))
249.093084    	((1.116712e-09 -9.868078e-06 -1.230445e-05) (9.474115e-10 -6.555551e-06 -2.798329e-06)) ((2.146246e-10 1.552371e-11 1.851000e-11) (-2.471309e-07 -2.615613e-11 -1.627697e-10))
258.227021    	((1.212920e-09 -9.853290e-06 -1.215884e-05) (1.003912e-09 -6.543285e-06 -2.798019e-06)) ((2.144902e-10 1.586504e-11 1.853294e-11) (-2.467416e-07 -2.637344e-11 -1.608100e-10))
267.362767    	((1.357830e-09 -9.839055e-06 -1.202191e-05) (1.068794e-09 -6.531984e-06 -2.797787e-06)) ((2.143465e-10 1.619220e-11 1.855453e-11) (-2.463828e-07 -2.674472e-11 -1.586525e-10))
276.500194    	((1.422964e-09 -9.825654e-06 -1.189360e-05) (1.132234e-09 -6.521569e-06 -2.797616e-06)) ((2.142117e-10 1.649982e-11 1.857483e-11) (-2.460521e-07 -2.690262e-11 -1.561441e-10))
285.639182    	((1.476080e-09 -9.813103e-06 -1.177277e-05) (1.196509e-09 -6.511963e-06 -2.797464e-06)) ((2.140937e-10 1.679003e-11 1.859283e-11) (-2.457485e-07 -2.688271e-11 -1.534684e-10))
294.779623    	((1.410322e-09 -9.801157e-06 -1.165870e-05) (1.254687e-09 -6.503100e-06 -2.797293e-06)) ((2.140013e-10 1.706515e-11 1.861040e-11) (-2.454709e-07 -2.660513e-11 -1.506148e-10))
303.921416    	((1.330307e-09 -9.789744e-06 -1.155058e-05) (1.305774e-09 -6.494908e-06 -2.797056e-06)) ((2.139327e-10 1.732978e-11 1.862642e-11) (-2.452182e-07 -2.617266e-11 -1.476198e-10))
313.06447     	((9.784644e-10 -9.779105e-06 -1.144853e-05) (1.332814e-09 -6.487328e-06 -2.796731e-06)) ((2.138875e-10 1.757674e-11 1.864195e-11) (-2.449889e-07 -2.485861e-11 -1.446379e-10))
322.2087      	((7.615611e-10 -9.768709e-06 -1.135190e-05) (1.344124e-09 -6.480292e-06 -2.796344e-06)) ((2.138458e-10 1.781602e-11 1.865464e-11) (-2.447798e-07 -2.322819e-11 -1.417217e-10))
331.354028    	((5.020171e-10 -9.759227e-06 -1.126065e-05) (1.348597e-09 -6.473772e-06 -2.795869e-06)) ((2.138279e-10 1.804081e-11 1.866687e-11) (-2.445897e-07 -2.173243e-11 -1.389372e-10))
340.500405    	((2.378454e-10 -9.750596e-06 -1.117434e-05) (1.348758e-09 -6.467749e-06 -2.795301e-06)) ((2.138286e-10 1.825381e-11 1.867947e-11) (-2.444180e-07 -2.030267e-11 -1.363433e-10))
349.647773    	((1.112919e-10 -9.742445e-06 -1.109274e-05) (1.349173e-09 -6.462190e-06 -2.794657e-06)) ((2.138349e-10 1.845849e-11 1.869122e-11) (-2.442632e-07 -1.932469e-11 -1.340098e-10))
358.796069    	((-1.759922e-10 -9.734652e-06 -1.101564e-05) (1.344117e-09 -6.457048e-06 -2.793959e-06)) ((2.138471e-10 1.864835e-11 1.870143e-11) (-2.441230e-07 -1.820335e-11 -1.316607e-10))
367.945235    	((-3.517002e-10 -9.727069e-06 -1.094247e-05) (1.338599e-09 -6.452267e-06 -2.793230e-06)) ((2.138612e-10 1.883050e-11 1.871034e-11) (-2.439951e-07 -1.712976e-11 -1.293505e-10))
377.095215    	((-8.276434e-10 -9.720003e-06 -1.087359e-05) (1.312881e-09 -6.447823e-06 -2.792479e-06)) ((2.138775e-10 1.899738e-11 1.871913e-11) (-2.438782e-07 -1.540579e-11 -1.272637e-10))
386.245958    	((-1.225873e-09 -9.713376e-06 -1.080888e-05) (1.271336e-09 -6.443697e-06 -2.791736e-06)) ((2.138873e-10 1.915664e-11 1.872664e-11) (-2.437707e-07 -1.337946e-11 -1.255143e-10))
395.397412    	((-1.663951e-09 -9.707096e-06 -1.074835e-05) (1.216884e-09 -6.439861e-06 -2.791017e-06)) ((2.138918e-10 1.930250e-11 1.873332e-11) (-2.436708e-07 -1.100667e-11 -1.241325e-10))
404.549529    	((-2.044375e-09 -9.701044e-06 -1.069147e-05) (1.154348e-09 -6.436281e-06 -2.790340e-06)) ((2.138879e-10 1.944020e-11 1.873886e-11) (-2.435769e-07 -8.388962e-12 -1.230514e-10))
413.702264    	((-2.426652e-09 -9.695071e-06 -1.063778e-05) (1.087874e-09 -6.432912e-06 -2.789722e-06)) ((2.138763e-10 1.957170e-11 1.874412e-11) (-2.434874e-07 -5.755469e-12 -1.222391e-10))
422.855572    	((-2.762693e-09 -9.689510e-06 -1.058738e-05) (1.016905e-09 -6.429743e-06 -2.789170e-06)) ((2.138618e-10 1.969590e-11 1.874886e-11) (-2.434017e-07 -3.125307e-12 -1.217018e-10))
432.009396    	((-3.126641e-09 -9.684281e-06 -1.053985e-05) (9.390664e-10 -6.426762e-06 -2.788676e-06)) ((2.138473e-10 1.981295e-11 1.875341e-11) (-2.433200e-07 -4.694263e-13 -1.214905e-10))
441.163701    	((-3.451207e-09 -9.679473e-06 -1.049503e-05) (8.599867e-10 -6.423963e-06 -2.788227e-06)) ((2.138344e-10 1.992347e-11 1.875774e-11) (-2.432422e-07 2.172859e-12 -1.215018e-10))
450.318458    	((-3.790856e-09 -9.674934e-06 -1.045290e-05) (7.808211e-10 -6.421332e-06 -2.787814e-06)) ((2.138237e-10 2.002657e-11 1.876185e-11) (-2.431686e-07 4.888367e-12 -1.216524e-10))
459.473637    	((-4.099948e-09 -9.670736e-06 -1.041326e-05) (7.032383e-10 -6.418862e-06 -2.787424e-06)) ((2.138152e-10 2.012371e-11 1.876560e-11) (-2.430992e-07 7.577134e-12 -1.218755e-10))
468.629213    	((-4.434166e-09 -9.666775e-06 -1.037581e-05) (6.270507e-10 -6.416545e-06 -2.787052e-06)) ((2.138086e-10 2.021453e-11 1.876919e-11) (-2.430340e-07 1.030309e-11 -1.221077e-10))
477.785163    	((-4.754972e-09 -9.663098e-06 -1.034039e-05) (5.526181e-10 -6.414370e-06 -2.786690e-06)) ((2.138046e-10 2.030041e-11 1.877260e-11) (-2.429728e-07 1.304357e-11 -1.223043e-10))
486.941463    	((-5.116069e-09 -9.659675e-06 -1.030717e-05) (4.782978e-10 -6.412333e-06 -2.786335e-06)) ((2.138035e-10 2.037928e-11 1.877579e-11) (-2.429157e-07 1.588968e-11 -1.224216e-10))
496.098092    	((-5.482879e-09 -9.656486e-06 -1.027583e-05) (4.046186e-10 -6.410425e-06 -2.785983e-06)) ((2.138050e-10 2.045314e-11 1.877874e-11) (-2.428626e-07 1.883117e-11 -1.224312e-10))
505.25503     	((-5.929840e-09 -9.653481e-06 -1.024645e-05) (3.284691e-10 -6.408639e-06 -2.785632e-06)) ((2.138091e-10 2.052022e-11 1.878151e-11) (-2.428133e-07 2.203505e-11 -1.222907e-10))
514.412257    	((-6.419033e-09 -9.650702e-06 -1.021853e-05) (2.473909e-10 -6.406968e-06 -2.785281e-06)) ((2.138160e-10 2.058336e-11 1.878406e-11) (-2.427678e-07 2.554836e-11 -1.220124e-10))
523.569756    	((-6.934463e-09 -9.648098e-06 -1.019233e-05) (1.629214e-10 -6.405405e-06 -2.784930e-06)) ((2.138249e-10 2.064157e-11 1.878643e-11) (-2.427257e-07 2.930086e-11 -1.215728e-10))
532.727507    	((-7.485893e-09 -9.645646e-06 -1.016753e-05) (7.474198e-11 -6.403944e-06 -2.784579e-06)) ((2.138352e-10 2.069586e-11 1.878869e-11) (-2.426869e-07 3.329353e-11 -1.209627e-10))
541.885494    	((-8.083650e-09 -9.643330e-06 -1.014422e-05) (-1.781280e-11 -6.402577e-06 -2.784233e-06)) ((2.138461e-10 2.074573e-11 1.879091e-11) (-2.426510e-07 3.753465e-11 -1.201860e-10))
551.043701    	((-8.739237e-09 -9.641169e-06 -1.012219e-05) (-1.156762e-10 -6.401299e-06 -2.783892e-06)) ((2.138584e-10 2.079168e-11 1.879302e-11) (-2.426179e-07 4.205075e-11 -1.192286e-10))
560.202111    	((-9.494797e-09 -9.639137e-06 -1.010146e-05) (-2.223945e-10 -6.400104e-06 -2.783556e-06)) ((2.138716e-10 2.083319e-11 1.879513e-11) (-2.425872e-07 4.695855e-11 -1.180917e-10))
569.360711    	((-1.034158e-08 -9.637225e-06 -1.008191e-05) (-3.406725e-10 -6.398986e-06 -2.783228e-06)) ((2.138854e-10 2.087078e-11 1.879720e-11) (-2.425588e-07 5.234065e-11 -1.167803e-10))
