# Forces      
# CofR        : (0.000000e+00 0.000000e+00 0.000000e+00)
# Time        forces(pressure viscous)	moments(pressure viscous)
0             	((0.000000e+00 0.000000e+00 0.000000e+00) (-1.231894e-09 -2.093788e-12 -1.263069e-04)) ((0.000000e+00 0.000000e+00 0.000000e+00) (2.212202e-13 -1.279294e-11 2.934018e-15))
0.012         	((-6.480873e-06 -3.067110e-06 -9.650475e-02) (-6.049084e-09 -2.911464e-09 -1.235686e-04)) ((4.857120e-10 -2.506125e-07 -1.273184e-11) (-2.295234e-10 4.555491e-10 -2.168895e-13))
0.0264        	((3.742459e-06 5.369793e-07 6.849315e-03) (-7.640413e-09 -3.778184e-09 -1.174332e-04)) ((-1.069032e-10 1.632316e-08 8.325514e-11) (-2.509775e-10 1.590495e-10 9.477189e-12))
0.04368       	((2.468637e-06 5.567928e-06 1.241867e-02) (-6.458995e-09 5.598801e-10 -1.059662e-04)) ((-3.046233e-10 2.677032e-08 -1.883275e-10) (1.058751e-10 -9.808453e-10 3.601293e-11))
0.064416      	((3.701324e-06 2.784684e-07 2.206391e-03) (-5.252554e-09 5.358388e-09 -9.513635e-05)) ((-1.820094e-11 8.689022e-09 3.881048e-11) (4.227593e-10 -1.663247e-09 2.270207e-11))
0.0892992     	((1.157708e-06 6.023925e-08 1.210078e-03) (-1.855648e-11 6.964392e-09 -8.812513e-05)) ((-4.437275e-11 5.100214e-09 6.491390e-12) (4.831398e-10 -1.824795e-09 -3.412362e-12))
0.119159      	((2.617455e-07 1.092343e-07 9.657786e-04) (3.916825e-09 6.671182e-09 -8.180890e-05)) ((-1.034292e-11 3.306061e-09 -1.046627e-11) (4.205521e-10 -1.862763e-09 1.426454e-12))
0.154991      	((1.804930e-07 -5.265338e-08 5.497144e-04) (5.404822e-09 5.958014e-09 -7.498930e-05)) ((-1.643440e-11 2.239185e-09 2.270187e-11) (3.473464e-10 -1.864134e-09 5.827725e-12))
0.197989      	((1.075562e-07 -8.694788e-08 3.536947e-04) (6.647553e-09 5.196364e-09 -6.814059e-05)) ((-1.939787e-11 1.511472e-09 1.327693e-11) (2.853537e-10 -1.874122e-09 4.478061e-12))
0.249587      	((4.572072e-08 -2.972040e-08 2.508417e-04) (6.864685e-09 4.453722e-09 -6.147262e-05)) ((-1.611740e-11 1.060713e-09 2.715341e-12) (2.433189e-10 -1.790400e-09 1.381624e-11))
0.311504      	((-6.657746e-08 -2.803632e-08 1.759470e-04) (6.764939e-09 3.805750e-09 -5.515275e-05)) ((-1.231066e-11 7.497561e-10 -1.504981e-12) (2.389733e-10 -1.664243e-09 2.311726e-11))
0.385805      	((-8.379362e-08 -9.506155e-09 1.231376e-04) (5.981722e-09 3.407883e-09 -4.934572e-05)) ((-1.132253e-11 5.483939e-10 -1.815779e-12) (2.445510e-10 -1.511014e-09 2.169374e-11))
0.474966      	((-3.161324e-08 -2.415153e-09 8.608743e-05) (5.876875e-09 3.134448e-09 -4.415068e-05)) ((-1.015909e-11 4.112220e-10 -1.103010e-13) (2.579144e-10 -1.365620e-09 1.756850e-11))
0.581959      	((-2.080813e-08 1.074575e-08 5.998368e-05) (6.082408e-09 2.765640e-09 -3.953113e-05)) ((-1.002515e-11 3.137761e-10 -8.260318e-13) (2.556103e-10 -1.180525e-09 1.192133e-11))
0.710351      	((-9.126617e-10 1.315346e-08 4.079664e-05) (5.718820e-09 2.462867e-09 -3.542086e-05)) ((-9.172147e-12 2.444182e-10 -2.480622e-12) (2.261777e-10 -9.958249e-10 4.425844e-12))
0.864421      	((5.406536e-09 2.351321e-08 2.704274e-05) (5.422272e-09 1.975289e-09 -3.175568e-05)) ((-9.690464e-12 1.967972e-10 -1.584525e-12) (1.873055e-10 -8.652665e-10 3.950332e-13))
1.049306      	((2.823199e-08 3.531438e-08 1.706401e-05) (5.177763e-09 1.556650e-09 -2.850040e-05)) ((-1.104703e-11 1.633439e-10 -4.896045e-13) (1.523103e-10 -7.697538e-10 -6.344853e-13))
1.271167      	((5.542379e-08 5.395189e-08 9.939126e-06) (3.900855e-09 1.589312e-09 -2.563265e-05)) ((-1.337757e-11 1.403226e-10 -2.829671e-13) (1.079655e-10 -6.368726e-10 -3.141770e-12))
1.5374        	((6.797113e-08 6.771199e-08 4.762503e-06) (3.229014e-09 1.796057e-09 -2.310617e-05)) ((-1.454691e-11 1.248763e-10 -2.000677e-13) (6.176549e-11 -4.956558e-10 -5.255977e-12))
1.85688       	((7.563004e-08 8.165243e-08 1.127336e-06) (3.202598e-09 2.125388e-09 -2.087797e-05)) ((-1.546117e-11 1.146177e-10 -6.420682e-13) (4.859870e-11 -3.995987e-10 -4.209771e-12))
2.240256      	((8.755107e-08 9.513413e-08 -1.580602e-06) (3.574599e-09 2.662083e-09 -1.891751e-05)) ((-1.642531e-11 1.071820e-10 2.751387e-14) (7.596665e-11 -3.587565e-10 -3.101331e-12))
2.700307      	((6.898441e-08 7.269831e-08 -3.644955e-06) (3.945972e-09 3.097500e-09 -1.718758e-05)) ((-1.335616e-11 9.678363e-11 5.178574e-13) (1.261443e-10 -3.647873e-10 -2.693096e-12))
3.252369      	((4.442898e-08 4.749728e-08 -5.210360e-06) (4.018985e-09 3.315591e-09 -1.565222e-05)) ((-8.615220e-12 8.487902e-11 6.643106e-13) (1.819086e-10 -3.898745e-10 -1.775689e-12))
3.914842      	((2.510330e-08 2.943594e-08 -6.444844e-06) (4.197658e-09 3.742340e-09 -1.429022e-05)) ((-3.460914e-12 7.227756e-11 9.081812e-13) (2.563671e-10 -4.218740e-10 -1.616288e-12))
4.709811      	((2.551186e-09 4.356686e-09 -7.460659e-06) (4.499925e-09 4.384846e-09 -1.309249e-05)) ((2.984827e-12 5.902417e-11 9.043463e-13) (3.591606e-10 -4.616496e-10 -1.855434e-12))
5.663773      	((-5.822585e-09 -5.248330e-09 -8.302268e-06) (4.939133e-09 4.978274e-09 -1.205223e-05)) ((6.522382e-12 5.016476e-11 7.856908e-13) (4.588757e-10 -5.203510e-10 -1.782747e-12))
6.808528      	((-1.041817e-08 -8.806482e-09 -9.017852e-06) (5.296138e-09 5.284684e-09 -1.116241e-05)) ((7.509863e-12 4.598078e-11 8.418277e-13) (5.225102e-10 -5.842238e-10 -2.296923e-12))
8.182233      	((-5.996611e-09 -9.155589e-10 -9.621498e-06) (5.345951e-09 5.332187e-09 -1.041391e-05)) ((6.736862e-12 4.489586e-11 5.678960e-13) (5.606144e-10 -6.332339e-10 -1.686657e-12))
9.83068       	((-3.143601e-09 1.281256e-09 -1.013842e-05) (5.204173e-09 5.166571e-09 -9.792258e-06)) ((6.015218e-12 4.477385e-11 6.257199e-13) (5.798103e-10 -6.644938e-10 -7.145935e-13))
11.808816     	((1.782474e-09 5.868572e-09 -1.057443e-05) (4.990943e-09 4.865513e-09 -9.280781e-06)) ((5.280661e-12 4.539806e-11 5.403571e-13) (5.777158e-10 -6.685255e-10 -3.946281e-13))
14.182579     	((1.068621e-08 1.523753e-08 -1.097687e-05) (4.873077e-09 4.747023e-09 -8.864562e-06)) ((4.792734e-12 4.641066e-11 4.202787e-13) (5.761968e-10 -6.641795e-10 5.176218e-13))
17.031095     	((1.097164e-08 1.558977e-08 -1.136751e-05) (4.907856e-09 4.771949e-09 -8.533256e-06)) ((4.986272e-12 4.702444e-11 3.287174e-13) (5.740039e-10 -6.570898e-10 1.690305e-12))
20.449314     	((1.442248e-08 2.000640e-08 -1.168283e-05) (5.191003e-09 5.050964e-09 -8.274484e-06)) ((4.988118e-12 4.804828e-11 2.803080e-13) (5.702938e-10 -6.452893e-10 2.323334e-12))
24.551176     	((1.591396e-08 2.126898e-08 -1.187980e-05) (5.369183e-09 5.266351e-09 -8.076656e-06)) ((4.991844e-12 4.948845e-11 3.365476e-13) (5.684977e-10 -6.300106e-10 1.120394e-12))
29.473411     	((1.393134e-08 2.072785e-08 -1.203356e-05) (5.454761e-09 5.383703e-09 -7.931231e-06)) ((5.041688e-12 5.100484e-11 3.170063e-13) (5.749476e-10 -6.287711e-10 -1.731801e-12))
35.380094     	((1.558869e-08 2.264206e-08 -1.196723e-05) (5.598279e-09 5.511085e-09 -7.827497e-06)) ((5.093825e-12 5.286079e-11 1.952455e-13) (5.874602e-10 -6.340053e-10 -2.852425e-12))
42.468112     	((1.610690e-08 2.406590e-08 -1.170093e-05) (5.589968e-09 5.652684e-09 -7.749802e-06)) ((5.153105e-12 5.469407e-11 9.355348e-14) (5.952030e-10 -6.274858e-10 -4.620717e-13))
50.973735     	((1.931050e-08 2.607823e-08 -1.147188e-05) (5.492543e-09 5.766904e-09 -7.690535e-06)) ((5.162779e-12 5.614449e-11 1.239900e-13) (5.969224e-10 -6.096206e-10 4.084149e-13))
61.180482     	((2.133381e-08 2.801728e-08 -1.132506e-05) (5.319639e-09 5.780106e-09 -7.649708e-06)) ((5.201109e-12 5.726279e-11 4.155328e-14) (5.942179e-10 -5.875698e-10 -4.385997e-14))
73.176107     	((2.387260e-08 3.055755e-08 -1.112298e-05) (5.111757e-09 5.691323e-09 -7.623196e-06)) ((5.235270e-12 5.831858e-11 1.000227e-13) (5.848602e-10 -5.683223e-10 -1.914374e-13))
86.957973     	((2.605834e-08 3.254820e-08 -1.087831e-05) (4.999263e-09 5.634434e-09 -7.603939e-06)) ((5.166241e-12 5.945753e-11 3.856449e-14) (5.786303e-10 -5.588667e-10 -1.777227e-13))
102.52398     	((2.767254e-08 3.385069e-08 -1.064948e-05) (5.000695e-09 5.675435e-09 -7.588874e-06)) ((5.091312e-12 6.042838e-11 2.267102e-14) (5.781791e-10 -5.576620e-10 1.576898e-13))
119.872533    	((2.860337e-08 3.447487e-08 -1.046739e-05) (5.078024e-09 5.758983e-09 -7.577843e-06)) ((5.036496e-12 6.118538e-11 3.791200e-14) (5.807615e-10 -5.615255e-10 3.995933e-13))
137.685624    	((2.901539e-08 3.426725e-08 -1.032564e-05) (5.164388e-09 5.820674e-09 -7.570704e-06)) ((4.991607e-12 6.181780e-11 5.904689e-14) (5.833023e-10 -5.668794e-10 3.313896e-13))
155.490479    	((2.880649e-08 3.380465e-08 -1.021656e-05) (5.226403e-09 5.846212e-09 -7.566520e-06)) ((4.973380e-12 6.229121e-11 8.711313e-14) (5.842523e-10 -5.701702e-10 1.238717e-13))
173.289675    	((2.840063e-08 3.318873e-08 -1.011366e-05) (5.254173e-09 5.842328e-09 -7.563894e-06)) ((4.972246e-12 6.269057e-11 9.722259e-14) (5.843101e-10 -5.717567e-10 5.982645e-15))
191.084859    	((2.820160e-08 3.263398e-08 -1.002407e-05) (5.255792e-09 5.817461e-09 -7.562046e-06)) ((4.976604e-12 6.302192e-11 9.984418e-14) (5.835907e-10 -5.723126e-10 1.221464e-13))
208.877227    	((2.801939e-08 3.227090e-08 -9.949116e-06) (5.248195e-09 5.787282e-09 -7.560682e-06)) ((4.974255e-12 6.328072e-11 1.015962e-13) (5.824589e-10 -5.721786e-10 4.258944e-13))
226.667597    	((2.807382e-08 3.219802e-08 -9.885627e-06) (5.244275e-09 5.765285e-09 -7.559633e-06)) ((4.968173e-12 6.349574e-11 9.926473e-14) (5.815244e-10 -5.719223e-10 7.178268e-13))
244.456553    	((2.820857e-08 3.225388e-08 -9.835567e-06) (5.253323e-09 5.762152e-09 -7.558833e-06)) ((4.962418e-12 6.366250e-11 1.016944e-13) (5.814704e-10 -5.720816e-10 9.298286e-13))
262.244493    	((2.835705e-08 3.234223e-08 -9.793297e-06) (5.277742e-09 5.780803e-09 -7.558221e-06)) ((4.958793e-12 6.380284e-11 1.031498e-13) (5.823572e-10 -5.728671e-10 1.040925e-12))
280.031708    	((2.850828e-08 3.243800e-08 -9.757534e-06) (5.307022e-09 5.809013e-09 -7.557752e-06)) ((4.956153e-12 6.392199e-11 1.021337e-13) (5.835311e-10 -5.737820e-10 1.099098e-12))
