# Forces      
# CofR        : (0.000000e+00 0.000000e+00 0.000000e+00)
# Time        forces(pressure viscous)	moments(pressure viscous)
0             	((0.000000e+00 0.000000e+00 0.000000e+00) (0.000000e+00 0.000000e+00 0.000000e+00)) ((0.000000e+00 0.000000e+00 0.000000e+00) (0.000000e+00 0.000000e+00 0.000000e+00))
0.012         	((-4.929477e-11 1.201976e-08 -1.543546e-10) (-1.464565e-12 1.347916e-10 -5.184925e-13)) ((-8.656080e-13 -3.117825e-15 -1.655596e-10) (2.571578e-12 7.198102e-14 -3.364415e-07))
0.0264        	((3.276539e-11 -4.357255e-09 3.370082e-10) (-1.580064e-12 1.438972e-10 -1.024010e-12)) ((-2.035734e-12 1.663060e-14 -4.978011e-11) (4.573538e-12 7.057627e-14 -2.944680e-07))
0.04368       	((-2.373833e-10 2.198942e-09 -2.914657e-10) (-2.103808e-12 9.422366e-11 -2.412623e-12)) ((9.332507e-13 2.994507e-16 -2.618055e-11) (3.850716e-12 9.893184e-14 -2.546718e-07))
0.064416      	((-1.615679e-10 1.892782e-10 -5.075134e-11) (-2.528311e-12 5.019813e-11 -1.707124e-12)) ((-2.659733e-13 -7.436151e-16 -1.765406e-11) (1.936232e-12 1.359684e-13 -2.181476e-07))
0.0892992     	((-2.235608e-10 1.056365e-09 -2.760648e-10) (-2.407052e-12 3.161629e-11 4.799671e-13)) ((2.822809e-13 -1.511390e-14 -1.425703e-11) (9.171093e-13 1.506301e-13 -1.858645e-07))
0.119159      	((-7.045558e-11 1.062309e-10 -3.415648e-10) (-3.413644e-12 2.736519e-11 4.346380e-12)) ((1.719077e-13 -5.445391e-15 -1.135222e-11) (-3.645110e-13 1.743919e-13 -1.582619e-07))
0.154991      	((-1.567183e-10 8.977644e-10 -4.067949e-10) (-4.883527e-12 2.057466e-11 1.206779e-11)) ((1.693356e-13 -1.213130e-14 -9.080682e-12) (-1.331230e-12 2.040696e-13 -1.355160e-07))
0.197989      	((-1.849250e-10 7.016236e-10 -4.857504e-10) (-5.681482e-12 1.255486e-11 2.642540e-11)) ((1.327631e-13 -8.308487e-17 -7.125298e-12) (-1.872742e-12 1.520401e-13 -1.172306e-07))
0.249587      	((-1.929310e-10 8.224209e-10 -5.317408e-10) (-4.460930e-12 4.712196e-12 4.682353e-11)) ((1.340409e-13 1.426631e-14 -5.905608e-12) (-1.683965e-12 7.961103e-14 -1.026636e-07))
0.311504      	((-3.840798e-10 1.007436e-09 -6.217702e-10) (-1.681957e-12 -2.314291e-12 7.216809e-11)) ((9.864095e-14 1.696649e-14 -5.237416e-12) (-1.365355e-12 -2.443226e-14 -9.093776e-08))
0.385805      	((-4.446092e-10 1.315934e-09 -7.068875e-10) (6.336422e-14 2.350336e-12 1.009970e-10)) ((7.227281e-14 1.944649e-14 -4.575911e-12) (-1.003771e-12 -1.250784e-13 -8.126245e-08))
0.474966      	((-6.885489e-10 1.639282e-09 -7.978245e-10) (9.450095e-13 4.215702e-12 1.320762e-10)) ((-7.220415e-15 5.237084e-15 -4.005225e-12) (-2.711385e-13 -8.938873e-14 -7.304823e-08))
0.581959      	((-8.800630e-10 2.035650e-09 -8.970299e-10) (1.106157e-12 9.888863e-12 1.645680e-10)) ((-5.023348e-14 1.614666e-14 -3.712618e-12) (1.157970e-12 -7.038475e-14 -6.590600e-08))
0.710351      	((-1.011290e-09 2.025230e-09 -1.027984e-09) (1.130770e-11 2.952049e-11 2.026261e-10)) ((-8.810890e-14 1.668806e-14 -3.529073e-12) (2.237974e-12 -1.342056e-13 -5.959197e-08))
0.864421      	((-1.202114e-09 1.607023e-09 -1.111013e-09) (3.098838e-11 1.958580e-11 2.446647e-10)) ((-1.465082e-13 4.002803e-15 -3.355530e-12) (1.818233e-12 -4.126388e-13 -5.395177e-08))
1.049306      	((-1.210911e-09 1.451916e-09 -1.232690e-09) (5.389871e-11 -2.727023e-11 2.926090e-10)) ((-1.913847e-13 -1.413748e-14 -3.173488e-12) (4.100408e-13 -6.993623e-13 -4.889022e-08))
1.271167      	((-1.108530e-09 1.214410e-09 -1.361246e-09) (9.609409e-11 -8.732471e-11 3.522604e-10)) ((-2.300523e-13 -1.464415e-14 -3.036116e-12) (-1.249487e-12 -1.405242e-12 -4.435925e-08))
1.5374        	((-8.785963e-10 1.211830e-09 -1.479600e-09) (1.538546e-10 -1.524134e-10 4.202811e-10)) ((-2.063072e-13 -2.885516e-14 -2.928515e-12) (-2.927078e-12 -3.044081e-12 -4.033609e-08))
1.85688       	((-6.145576e-10 9.729755e-10 -1.548820e-09) (2.252737e-10 -2.051434e-10 4.830764e-10)) ((-1.876145e-13 -3.206107e-14 -2.794919e-12) (-4.790910e-12 -5.058349e-12 -3.679866e-08))
2.240256      	((-3.848136e-10 6.823067e-10 -1.744662e-09) (3.201253e-10 -2.596728e-10 5.527923e-10)) ((-2.177353e-13 -3.472652e-14 -2.638146e-12) (-7.017408e-12 -7.793921e-12 -3.371030e-08))
2.700307      	((-2.476500e-10 4.480048e-10 -1.843387e-09) (4.206803e-10 -3.461289e-10 6.267170e-10)) ((-2.093980e-13 -5.548268e-14 -2.494454e-12) (-9.902601e-12 -1.103224e-11 -3.101793e-08))
3.252369      	((-1.272938e-10 2.584148e-10 -2.041415e-09) (5.121704e-10 -4.443695e-10 7.022055e-10)) ((-1.770835e-13 -6.821086e-14 -2.325957e-12) (-1.249152e-11 -1.381485e-11 -2.865837e-08))
3.914842      	((-1.519903e-11 -9.735095e-11 -2.228907e-09) (5.788941e-10 -5.333445e-10 7.892375e-10)) ((-1.198281e-13 -5.494041e-14 -2.163893e-12) (-1.433583e-11 -1.564877e-11 -2.656743e-08))
4.709811      	((3.655591e-11 -1.810193e-10 -2.459240e-09) (6.008080e-10 -5.883999e-10 9.072670e-10)) ((-9.970932e-14 -2.909661e-14 -2.015839e-12) (-1.515631e-11 -1.641137e-11 -2.469205e-08))
5.663773      	((6.678297e-11 -1.714215e-10 -2.733912e-09) (5.849834e-10 -5.880235e-10 1.049930e-09)) ((-9.373665e-14 -2.238599e-14 -1.870466e-12) (-1.481002e-11 -1.623986e-11 -2.299319e-08))
6.808528      	((1.391217e-10 -1.385202e-10 -3.076256e-09) (5.313129e-10 -5.412492e-10 1.196652e-09)) ((-7.970194e-14 -1.708460e-14 -1.740064e-12) (-1.340990e-11 -1.480475e-11 -2.144086e-08))
8.182233      	((2.476497e-10 -4.034589e-11 -3.337284e-09) (4.544623e-10 -4.584535e-10 1.357487e-09)) ((-5.405843e-14 -1.402477e-14 -1.614580e-12) (-1.180167e-11 -1.264209e-11 -2.001336e-08))
9.83068       	((8.823516e-11 4.840747e-11 -3.755053e-09) (3.600854e-10 -3.718993e-10 1.516832e-09)) ((-5.210407e-14 -1.385814e-14 -1.498897e-12) (-9.671542e-12 -1.023708e-11 -1.869930e-08))
11.808816     	((9.339407e-11 2.615920e-10 -4.055075e-09) (2.703568e-10 -2.910604e-10 1.686941e-09)) ((-2.927180e-14 -1.671163e-15 -1.389879e-12) (-6.661349e-12 -8.164143e-12 -1.749121e-08))
14.182579     	((-6.819028e-11 2.028425e-10 -4.495129e-09) (1.926532e-10 -2.204193e-10 1.878689e-09)) ((1.379085e-14 -7.364303e-16 -1.284219e-12) (-4.260175e-12 -6.201277e-12 -1.638170e-08))
17.031095     	((-1.142244e-10 1.730760e-10 -4.957499e-09) (1.323965e-10 -1.652716e-10 2.074827e-09)) ((3.983958e-14 -4.532803e-15 -1.190605e-12) (-3.231063e-12 -4.603004e-12 -1.536539e-08))
20.449314     	((-1.682895e-10 2.686371e-10 -5.427394e-09) (9.634278e-11 -1.285901e-10 2.278327e-09)) ((4.924162e-14 -8.786800e-15 -1.107316e-12) (-2.849608e-12 -3.634879e-12 -1.443691e-08))
24.551176     	((-1.931723e-10 2.100924e-10 -5.849427e-09) (8.537899e-11 -1.153789e-10 2.489105e-09)) ((6.282821e-14 -1.274993e-14 -1.032670e-12) (-2.993585e-12 -3.429938e-12 -1.358943e-08))
29.473411     	((-1.864213e-10 1.937292e-10 -6.392497e-09) (9.663115e-11 -1.241738e-10 2.705833e-09)) ((6.510000e-14 -1.933839e-14 -9.658847e-13) (-3.444428e-12 -3.652826e-12 -1.281506e-08))
35.380094     	((-1.671228e-10 1.401642e-10 -7.130770e-09) (1.209739e-10 -1.483442e-10 2.937254e-09)) ((6.883821e-14 -2.536880e-14 -9.064360e-13) (-4.210981e-12 -4.162875e-12 -1.210712e-08))
42.468112     	((-1.469309e-10 1.018569e-10 -7.833411e-09) (1.504081e-10 -1.767317e-10 3.199952e-09)) ((6.919902e-14 -3.229330e-14 -8.529748e-13) (-5.016319e-12 -4.902147e-12 -1.146028e-08))
50.973735     	((-1.325681e-10 8.290386e-11 -8.537179e-09) (1.793434e-10 -2.057704e-10 3.515447e-09)) ((6.747502e-14 -4.234329e-14 -8.032845e-13) (-5.822559e-12 -5.516290e-12 -1.086987e-08))
61.180482     	((-1.295568e-10 7.331906e-11 -9.172170e-09) (2.026363e-10 -2.332574e-10 3.876173e-09)) ((6.254725e-14 -5.088296e-14 -7.585446e-13) (-6.596750e-12 -5.980215e-12 -1.033135e-08))
73.428578     	((-1.281556e-10 5.558583e-11 -9.789071e-09) (2.196915e-10 -2.556334e-10 4.251054e-09)) ((6.015267e-14 -5.584433e-14 -7.179153e-13) (-7.229801e-12 -6.246755e-12 -9.840546e-09))
88.126294     	((-1.427484e-10 1.592892e-11 -1.043720e-08) (2.279754e-10 -2.739753e-10 4.641032e-09)) ((5.899479e-14 -6.170871e-14 -6.811035e-13) (-7.672316e-12 -6.224643e-12 -9.393659e-09))
105.763553    	((-1.349002e-10 2.767843e-12 -1.108690e-08) (2.302756e-10 -2.894450e-10 5.043592e-09)) ((5.648402e-14 -6.575138e-14 -6.471228e-13) (-7.973780e-12 -5.988533e-12 -8.986930e-09))
126.928263    	((-1.173111e-10 9.316328e-12 -1.175569e-08) (2.306080e-10 -3.007905e-10 5.452662e-09)) ((5.468180e-14 -6.789896e-14 -6.160796e-13) (-8.225725e-12 -5.803389e-12 -8.616714e-09))
152.325916    	((-1.028194e-10 3.327771e-12 -1.244023e-08) (2.293305e-10 -3.090329e-10 5.874836e-09)) ((5.307389e-14 -7.143250e-14 -5.875678e-13) (-8.459287e-12 -5.546668e-12 -8.279845e-09))
182.803099    	((-8.119800e-11 -1.775633e-11 -1.309935e-08) (2.237508e-10 -3.130536e-10 6.320101e-09)) ((5.257667e-14 -7.403604e-14 -5.611759e-13) (-8.641898e-12 -5.198307e-12 -7.973316e-09))
219.375719    	((-7.132014e-11 -3.515333e-11 -1.373834e-08) (2.134463e-10 -3.120873e-10 6.787140e-09)) ((5.312472e-14 -7.494687e-14 -5.376762e-13) (-8.761113e-12 -4.871592e-12 -7.694158e-09))
263.262863    	((-7.389273e-11 -4.822381e-11 -1.435584e-08) (2.006378e-10 -3.070233e-10 7.266078e-09)) ((5.361761e-14 -7.619987e-14 -5.163176e-13) (-8.732470e-12 -4.463225e-12 -7.439869e-09))
315.927436    	((-8.619488e-11 -5.589650e-11 -1.493988e-08) (1.856713e-10 -2.992356e-10 7.746258e-09)) ((5.336490e-14 -7.914690e-14 -4.972447e-13) (-8.624400e-12 -3.932339e-12 -7.208223e-09))
379.124923    	((-9.124889e-11 -6.259941e-11 -1.549233e-08) (1.694570e-10 -2.905343e-10 8.222702e-09)) ((5.355493e-14 -8.090209e-14 -4.796331e-13) (-8.450402e-12 -3.310037e-12 -6.997457e-09))
454.961908    	((-9.626875e-11 -6.468554e-11 -1.601234e-08) (1.527206e-10 -2.819017e-10 8.696133e-09)) ((5.408018e-14 -8.178881e-14 -4.634230e-13) (-8.251686e-12 -2.727311e-12 -6.806055e-09))
545.966289    	((-9.830418e-11 -6.656701e-11 -1.649047e-08) (1.356834e-10 -2.731028e-10 9.169547e-09)) ((5.361980e-14 -8.266801e-14 -4.480970e-13) (-8.009759e-12 -2.195800e-12 -6.632581e-09))
655.171547    	((-1.001684e-10 -7.108663e-11 -1.692849e-08) (1.189880e-10 -2.619596e-10 9.651515e-09)) ((5.260762e-14 -8.268380e-14 -4.339630e-13) (-7.715848e-12 -1.629367e-12 -6.475598e-09))
786.217856    	((-1.003897e-10 -7.180326e-11 -1.732842e-08) (1.053961e-10 -2.490289e-10 1.013269e-08)) ((5.279546e-14 -8.329067e-14 -4.215952e-13) (-7.410401e-12 -1.200966e-12 -6.333776e-09))
942.861449    	((-1.013234e-10 -7.660723e-11 -1.769474e-08) (9.412727e-11 -2.351260e-10 1.060295e-08)) ((5.257331e-14 -8.409412e-14 -4.103055e-13) (-7.063065e-12 -9.348129e-13 -6.205985e-09))
1125.102746   	((-1.056292e-10 -7.644712e-11 -1.803355e-08) (8.442482e-11 -2.201646e-10 1.105662e-08)) ((5.321158e-14 -8.505766e-14 -4.002763e-13) (-6.682587e-12 -7.984619e-13 -6.091287e-09))
1332.942415   	((-1.099381e-10 -7.512454e-11 -1.834047e-08) (7.651635e-11 -2.056351e-10 1.149050e-08)) ((5.421955e-14 -8.637363e-14 -3.916292e-13) (-6.295266e-12 -7.441088e-13 -5.988726e-09))
1566.381542   	((-1.116174e-10 -7.152515e-11 -1.861324e-08) (6.918416e-11 -1.920610e-10 1.190290e-08)) ((5.471388e-14 -8.803462e-14 -3.837367e-13) (-5.905461e-12 -7.252699e-13 -5.897289e-09))
1822.392533   	((-1.099906e-10 -6.994360e-11 -1.885774e-08) (6.282863e-11 -1.795822e-10 1.229150e-08)) ((5.465952e-14 -8.966707e-14 -3.766286e-13) (-5.524444e-12 -7.476378e-13 -5.815929e-09))
2078.421465   	((-1.081982e-10 -6.597459e-11 -1.907867e-08) (5.700306e-11 -1.670549e-10 1.265449e-08)) ((5.465866e-14 -9.144987e-14 -3.701264e-13) (-5.133457e-12 -7.777982e-13 -5.743883e-09))
2334.470171   	((-1.064379e-10 -6.087223e-11 -1.927248e-08) (5.210789e-11 -1.550969e-10 1.299199e-08)) ((5.471951e-14 -9.331118e-14 -3.642556e-13) (-4.747927e-12 -8.048625e-13 -5.680007e-09))
2590.539811   	((-1.029865e-10 -5.611769e-11 -1.944437e-08) (4.837510e-11 -1.440570e-10 1.330558e-08)) ((5.486672e-14 -9.484903e-14 -3.591020e-13) (-4.379502e-12 -8.409143e-13 -5.623303e-09))
2846.628899   	((-1.010292e-10 -5.537963e-11 -1.959623e-08) (4.587211e-11 -1.337644e-10 1.359760e-08)) ((5.525534e-14 -9.606128e-14 -3.543855e-13) (-4.033486e-12 -8.866674e-13 -5.572769e-09))
3102.738132   	((-1.006396e-10 -5.583516e-11 -1.973219e-08) (4.398964e-11 -1.245245e-10 1.386984e-08)) ((5.569205e-14 -9.723147e-14 -3.502259e-13) (-3.739650e-12 -9.333067e-13 -5.527609e-09))
3358.862389   	((-1.007700e-10 -5.473715e-11 -1.985437e-08) (4.279609e-11 -1.163842e-10 1.412376e-08)) ((5.594733e-14 -9.841933e-14 -3.464384e-13) (-3.500314e-12 -9.798775e-13 -5.487115e-09))
3614.998407   	((-1.016804e-10 -5.462236e-11 -1.996623e-08) (4.222284e-11 -1.097313e-10 1.436021e-08)) ((5.626792e-14 -9.960319e-14 -3.429797e-13) (-3.306961e-12 -1.028920e-12 -5.450705e-09))
3871.14197    	((-1.022126e-10 -5.500536e-11 -2.006852e-08) (4.195692e-11 -1.041006e-10 1.457999e-08)) ((5.647121e-14 -1.007702e-13 -3.398364e-13) (-3.150438e-12 -1.080230e-12 -5.417861e-09))
4127.288323   	((-1.026575e-10 -5.619998e-11 -2.016167e-08) (4.187993e-11 -9.931300e-11 1.478357e-08)) ((5.667736e-14 -1.019333e-13 -3.370107e-13) (-3.021607e-12 -1.129644e-12 -5.388150e-09))
4383.437496   	((-1.036209e-10 -5.754892e-11 -2.024734e-08) (4.203060e-11 -9.534210e-11 1.497224e-08)) ((5.693841e-14 -1.028515e-13 -3.343785e-13) (-2.926526e-12 -1.180681e-12 -5.361180e-09))
4639.589509   	((-1.044025e-10 -5.883690e-11 -2.032665e-08) (4.267130e-11 -9.214623e-11 1.514760e-08)) ((5.725169e-14 -1.037929e-13 -3.320149e-13) (-2.855735e-12 -1.237115e-12 -5.336631e-09))
4895.744345   	((-1.051183e-10 -5.941229e-11 -2.039993e-08) (4.322778e-11 -8.941311e-11 1.531107e-08)) ((5.739087e-14 -1.044705e-13 -3.297980e-13) (-2.794456e-12 -1.290052e-12 -5.314234e-09))
5151.901954   	((-1.057376e-10 -5.928609e-11 -2.046730e-08) (4.375775e-11 -8.708129e-11 1.546382e-08)) ((5.746418e-14 -1.049957e-13 -3.277394e-13) (-2.743774e-12 -1.333824e-12 -5.293759e-09))
5408.062222   	((-1.062012e-10 -5.919985e-11 -2.052923e-08) (4.428733e-11 -8.533629e-11 1.560669e-08)) ((5.760367e-14 -1.054494e-13 -3.258580e-13) (-2.700137e-12 -1.369518e-12 -5.275009e-09))
5664.225057   	((-1.063853e-10 -5.879437e-11 -2.058618e-08) (4.482488e-11 -8.369804e-11 1.574045e-08)) ((5.761119e-14 -1.059925e-13 -3.241296e-13) (-2.665038e-12 -1.402314e-12 -5.257811e-09))
5920.390358   	((-1.065531e-10 -5.831875e-11 -2.063842e-08) (4.543163e-11 -8.226900e-11 1.586562e-08)) ((5.750455e-14 -1.066326e-13 -3.225407e-13) (-2.633871e-12 -1.434649e-12 -5.242009e-09))
