# Forces      
# CofR        : (0.000000e+00 0.000000e+00 0.000000e+00)
# Time        forces(pressure viscous)	moments(pressure viscous)
0             	((0.000000e+00 0.000000e+00 0.000000e+00) (0.000000e+00 0.000000e+00 0.000000e+00)) ((0.000000e+00 0.000000e+00 0.000000e+00) (0.000000e+00 0.000000e+00 0.000000e+00))
0.012         	((6.833856e-09 4.570392e-05 7.372794e-06) (-5.606455e-11 1.050353e-04 -5.535790e-09)) ((6.795071e-09 2.246121e-11 -6.263035e-11) (6.989705e-06 -4.413157e-13 1.144829e-11))
0.0264        	((-1.483072e-08 6.141941e-05 1.558071e-05) (-1.333770e-10 9.622697e-05 -1.775444e-08)) ((-2.867794e-09 4.760543e-11 -3.008802e-11) (6.410656e-06 -5.455023e-13 9.767904e-12))
0.04368       	((2.948649e-08 4.152084e-05 8.356960e-06) (-2.760379e-10 8.718316e-05 -4.176868e-08)) ((-2.006291e-09 1.688909e-11 -3.444198e-11) (5.818265e-06 2.346790e-12 2.210310e-11))
0.064416      	((-1.659239e-08 4.696359e-05 1.076560e-05) (-3.667820e-10 7.814223e-05 -7.885289e-08)) ((-4.157468e-09 2.022567e-11 -2.388610e-11) (5.228630e-06 -1.153510e-11 2.691081e-11))
0.0892992     	((2.541481e-08 3.470889e-05 7.026377e-06) (-3.601378e-10 6.940014e-05 -1.282457e-07)) ((-2.861667e-09 3.192374e-12 -1.523830e-11) (4.661265e-06 -2.079772e-11 8.439699e-12))
0.119159      	((5.626643e-09 3.558320e-05 7.542027e-06) (-5.137017e-10 6.125983e-05 -1.867927e-07)) ((-3.543815e-09 5.709127e-12 -8.395420e-12) (4.136191e-06 -3.295141e-11 -5.339623e-12))
0.154991      	((2.093412e-08 2.723957e-05 5.227175e-06) (-8.093776e-10 5.396576e-05 -2.562415e-07)) ((-2.447575e-09 -8.202377e-12 -4.471699e-12) (3.665384e-06 -5.135931e-11 -9.402562e-12))
0.197989      	((1.216061e-08 2.693876e-05 5.120459e-06) (-1.127379e-09 4.758456e-05 -3.402609e-07)) ((-2.866945e-09 -3.867352e-12 -8.532071e-12) (3.252448e-06 -8.246640e-11 -1.480670e-11))
0.249587      	((1.737494e-08 2.158288e-05 3.802300e-06) (-1.668646e-09 4.207098e-05 -4.321048e-07)) ((-2.157239e-09 -1.763577e-11 -1.124447e-11) (2.892463e-06 -9.867904e-11 -1.519494e-11))
0.311504      	((1.797637e-08 2.078460e-05 3.417480e-06) (-1.733580e-09 3.731119e-05 -5.119253e-07)) ((-2.430559e-09 -1.008047e-11 -1.668735e-11) (2.579518e-06 -1.406988e-10 -2.774258e-11))
0.385805      	((1.400223e-08 1.731703e-05 2.607365e-06) (-1.674763e-09 3.318308e-05 -5.940266e-07)) ((-1.991222e-09 -1.742018e-11 -1.568870e-11) (2.307042e-06 -1.771053e-10 -3.596453e-11))
0.474966      	((1.346819e-08 1.631599e-05 2.119195e-06) (-1.813161e-09 2.959304e-05 -6.591119e-07)) ((-2.089157e-09 -1.784035e-11 -1.601766e-11) (2.069375e-06 -1.833290e-10 -3.486270e-11))
0.581959      	((1.515686e-08 1.398757e-05 1.515432e-06) (-1.560415e-09 2.647077e-05 -7.262560e-07)) ((-1.828938e-09 -1.619943e-11 -1.406797e-11) (1.862581e-06 -1.914776e-10 -2.597792e-11))
0.710351      	((1.021359e-08 1.308901e-05 1.070608e-06) (-9.814057e-10 2.375191e-05 -7.853316e-07)) ((-1.842330e-09 -2.997783e-11 -1.210108e-11) (1.682891e-06 -2.076678e-10 -1.275888e-11))
0.864421      	((1.630042e-08 1.142871e-05 5.517443e-07) (-7.767175e-10 2.137105e-05 -8.435245e-07)) ((-1.683976e-09 -2.194520e-11 -8.906286e-12) (1.526042e-06 -2.338082e-10 -2.988091e-12))
1.049306      	((8.813302e-09 1.066187e-05 1.036203e-07) (-6.931345e-10 1.927016e-05 -8.927547e-07)) ((-1.681861e-09 -3.604003e-11 -5.764341e-12) (1.388325e-06 -2.382184e-10 1.098596e-12))
1.271167      	((1.356897e-08 9.417439e-06 -3.710802e-07) (-1.200225e-09 1.740134e-05 -9.390764e-07)) ((-1.575414e-09 -2.992296e-11 -3.583000e-12) (1.266358e-06 -2.463585e-10 1.959843e-11))
1.5374        	((6.337813e-09 8.743667e-06 -8.094012e-07) (-1.363605e-09 1.573683e-05 -9.784966e-07)) ((-1.562524e-09 -4.292550e-11 -1.952063e-12) (1.158269e-06 -2.796810e-10 5.835505e-11))
1.85688       	((1.354790e-08 7.804255e-06 -1.243294e-06) (-1.311023e-09 1.426088e-05 -1.016548e-06)) ((-1.488476e-09 -3.806659e-11 -1.567477e-12) (1.062820e-06 -3.074909e-10 9.931726e-11))
2.240256      	((6.828643e-09 7.268292e-06 -1.666404e-06) (-1.275665e-09 1.296435e-05 -1.050285e-06)) ((-1.477598e-09 -4.562681e-11 -2.794446e-12) (9.794585e-07 -3.167682e-10 1.226799e-10))
2.700307      	((8.325696e-09 6.577245e-06 -2.069112e-06) (-8.467646e-10 1.183382e-05 -1.086222e-06)) ((-1.432928e-09 -4.358521e-11 -3.930558e-12) (9.071438e-07 -3.261997e-10 1.345060e-10))
3.252369      	((4.903388e-09 6.183286e-06 -2.487325e-06) (-6.074383e-10 1.085279e-05 -1.125979e-06)) ((-1.426483e-09 -4.999582e-11 -4.124092e-12) (8.446525e-07 -3.089530e-10 1.383828e-10))
3.914842      	((5.757716e-09 5.707669e-06 -2.902186e-06) (-5.093209e-10 9.996227e-06 -1.171044e-06)) ((-1.403198e-09 -5.130013e-11 -4.522261e-12) (7.902896e-07 -2.863998e-10 1.433885e-10))
4.709811      	((6.031702e-09 5.435385e-06 -3.373344e-06) (-7.805053e-10 9.240295e-06 -1.220089e-06)) ((-1.403328e-09 -5.724985e-11 -4.549642e-12) (7.425727e-07 -2.697410e-10 1.293336e-10))
5.663773      	((6.368769e-09 5.144918e-06 -3.838315e-06) (-7.418808e-10 8.567033e-06 -1.276338e-06)) ((-1.395325e-09 -6.030589e-11 -4.506758e-12) (7.003275e-07 -2.664920e-10 1.092244e-10))
6.808528      	((6.119765e-09 4.962753e-06 -4.331789e-06) (-1.892791e-10 7.962261e-06 -1.340923e-06)) ((-1.400585e-09 -6.533078e-11 -4.631618e-12) (6.627967e-07 -2.737920e-10 9.158476e-11))
8.182233      	((5.777976e-09 4.774070e-06 -4.799316e-06) (1.896155e-10 7.417300e-06 -1.413521e-06)) ((-1.400465e-09 -6.835553e-11 -4.791000e-12) (6.294023e-07 -2.900110e-10 6.814309e-11))
9.83068       	((5.534774e-09 4.663722e-06 -5.283401e-06) (7.535532e-10 6.926487e-06 -1.491558e-06)) ((-1.408643e-09 -7.185610e-11 -5.127969e-12) (5.996401e-07 -3.056034e-10 5.090882e-11))
11.808816     	((5.108838e-09 4.587747e-06 -5.774532e-06) (2.313266e-10 6.484531e-06 -1.580040e-06)) ((-1.416474e-09 -7.412508e-11 -5.243165e-12) (5.731360e-07 -3.046313e-10 3.648570e-11))
14.182579     	((6.340451e-09 4.586233e-06 -6.268854e-06) (9.093424e-11 6.090436e-06 -1.679777e-06)) ((-1.428814e-09 -7.689360e-11 -5.348302e-12) (5.497131e-07 -3.042589e-10 2.458677e-11))
17.031095     	((7.755046e-09 4.607204e-06 -6.758240e-06) (-2.163257e-10 5.746150e-06 -1.787626e-06)) ((-1.440524e-09 -7.899114e-11 -5.338195e-12) (5.292536e-07 -2.993747e-10 1.380026e-11))
20.449314     	((9.174827e-09 4.691304e-06 -7.229229e-06) (-4.022615e-10 5.454023e-06 -1.902400e-06)) ((-1.455746e-09 -8.122415e-11 -5.546481e-12) (5.117522e-07 -2.898731e-10 1.759337e-12))
24.438077     	((1.167082e-08 4.795462e-06 -7.685008e-06) (-5.150569e-10 5.218814e-06 -2.021520e-06)) ((-1.470719e-09 -8.315848e-11 -5.709608e-12) (4.973076e-07 -2.759167e-10 -8.446534e-12))
28.996261     	((1.427191e-08 4.937412e-06 -8.091245e-06) (-7.048518e-10 5.040195e-06 -2.138511e-06)) ((-1.484012e-09 -8.508639e-11 -5.822333e-12) (4.856632e-07 -2.634676e-10 -1.491868e-11))
34.123148     	((1.555682e-08 5.092742e-06 -8.473655e-06) (-6.496518e-10 4.914724e-06 -2.246467e-06)) ((-1.493769e-09 -8.683280e-11 -5.912199e-12) (4.765192e-07 -2.568135e-10 -2.016685e-11))
39.806459     	((1.569467e-08 5.282283e-06 -8.823440e-06) (-7.450126e-10 4.835364e-06 -2.338102e-06)) ((-1.502360e-09 -8.880797e-11 -6.054766e-12) (4.695948e-07 -2.527126e-10 -2.570390e-11))
45.488425     	((1.553424e-08 5.457179e-06 -9.110744e-06) (-9.414791e-10 4.794409e-06 -2.404211e-06)) ((-1.511407e-09 -9.045366e-11 -6.193208e-12) (4.648105e-07 -2.490477e-10 -2.667078e-11))
51.172806     	((1.515577e-08 5.617567e-06 -9.301720e-06) (-1.063480e-09 4.777450e-06 -2.445994e-06)) ((-1.520197e-09 -9.163676e-11 -6.324808e-12) (4.616946e-07 -2.401026e-10 -2.176060e-11))
56.863129     	((1.523148e-08 5.740852e-06 -9.436030e-06) (-1.287660e-09 4.773676e-06 -2.469189e-06)) ((-1.527818e-09 -9.229670e-11 -6.479286e-12) (4.598059e-07 -2.305449e-10 -1.039484e-11))
62.561988     	((1.529269e-08 5.837021e-06 -9.523176e-06) (-1.556660e-09 4.775437e-06 -2.480501e-06)) ((-1.534316e-09 -9.262192e-11 -6.578751e-12) (4.586933e-07 -2.230094e-10 6.504226e-12))
68.270844     	((1.566409e-08 5.904820e-06 -9.592458e-06) (-1.765257e-09 4.778720e-06 -2.484912e-06)) ((-1.539051e-09 -9.271880e-11 -6.684565e-12) (4.580659e-07 -2.186567e-10 2.522559e-11))
73.990595     	((1.565259e-08 5.948300e-06 -9.643268e-06) (-1.914261e-09 4.781343e-06 -2.486153e-06)) ((-1.542386e-09 -9.277558e-11 -6.809911e-12) (4.577095e-07 -2.180770e-10 4.289262e-11))
79.721084     	((1.598135e-08 5.975481e-06 -9.683459e-06) (-2.007445e-09 4.782922e-06 -2.486330e-06)) ((-1.544413e-09 -9.282699e-11 -6.922868e-12) (4.574987e-07 -2.208190e-10 5.804568e-11))
85.460636     	((1.637630e-08 5.993384e-06 -9.717337e-06) (-2.033230e-09 4.783847e-06 -2.486579e-06)) ((-1.545678e-09 -9.288896e-11 -7.028787e-12) (4.573649e-07 -2.263995e-10 7.054145e-11))
91.177817     	((1.656045e-08 6.008255e-06 -9.750158e-06) (-1.991095e-09 4.784643e-06 -2.486769e-06)) ((-1.547321e-09 -9.300026e-11 -7.137995e-12) (4.573025e-07 -2.328599e-10 7.912711e-11))
96.876887     	((1.675757e-08 6.018047e-06 -9.780299e-06) (-1.914635e-09 4.785710e-06 -2.486536e-06)) ((-1.548677e-09 -9.313682e-11 -7.166247e-12) (4.573076e-07 -2.396338e-10 8.393917e-11))
102.563827    	((1.654990e-08 6.022939e-06 -9.807835e-06) (-1.844752e-09 4.787004e-06 -2.486451e-06)) ((-1.549262e-09 -9.328553e-11 -7.152058e-12) (4.573301e-07 -2.458571e-10 8.611312e-11))
108.242956    	((1.622562e-08 6.024704e-06 -9.831702e-06) (-1.791636e-09 4.788373e-06 -2.486516e-06)) ((-1.549425e-09 -9.343243e-11 -7.153954e-12) (4.573548e-07 -2.507156e-10 8.607979e-11))
113.9168      	((1.604917e-08 6.024289e-06 -9.853222e-06) (-1.741350e-09 4.789734e-06 -2.486686e-06)) ((-1.549322e-09 -9.358980e-11 -7.168450e-12) (4.573766e-07 -2.540924e-10 8.494606e-11))
119.586741    	((1.572257e-08 6.022739e-06 -9.871994e-06) (-1.706727e-09 4.790984e-06 -2.487004e-06)) ((-1.549110e-09 -9.374217e-11 -7.193404e-12) (4.573928e-07 -2.552187e-10 8.379467e-11))
125.253516    	((1.569209e-08 6.021582e-06 -9.889251e-06) (-1.686501e-09 4.792181e-06 -2.487424e-06)) ((-1.548845e-09 -9.387441e-11 -7.224870e-12) (4.574077e-07 -2.546917e-10 8.335075e-11))
130.91742     	((1.573216e-08 6.019236e-06 -9.904436e-06) (-1.678730e-09 4.793323e-06 -2.487949e-06)) ((-1.548550e-09 -9.399198e-11 -7.254237e-12) (4.574203e-07 -2.533971e-10 8.420138e-11))
136.578586    	((1.567054e-08 6.016648e-06 -9.919208e-06) (-1.695765e-09 4.794423e-06 -2.488497e-06)) ((-1.548258e-09 -9.410450e-11 -7.279130e-12) (4.574300e-07 -2.520049e-10 8.633228e-11))
142.237153    	((1.559490e-08 6.012586e-06 -9.934341e-06) (-1.718773e-09 4.795457e-06 -2.488983e-06)) ((-1.547960e-09 -9.421256e-11 -7.299881e-12) (4.574351e-07 -2.507612e-10 8.926403e-11))
147.893314    	((1.602085e-08 6.006631e-06 -9.949864e-06) (-1.730333e-09 4.796349e-06 -2.489325e-06)) ((-1.547635e-09 -9.429710e-11 -7.316406e-12) (4.574314e-07 -2.501941e-10 9.230707e-11))
153.547299    	((1.671077e-08 5.998093e-06 -9.965952e-06) (-1.713713e-09 4.797000e-06 -2.489474e-06)) ((-1.547276e-09 -9.436935e-11 -7.324804e-12) (4.574139e-07 -2.510269e-10 9.475511e-11))
159.199352    	((1.729796e-08 5.986853e-06 -9.982149e-06) (-1.680525e-09 4.797308e-06 -2.489384e-06)) ((-1.546878e-09 -9.442485e-11 -7.331802e-12) (4.573781e-07 -2.533306e-10 9.621904e-11))
164.849706    	((1.825318e-08 5.973412e-06 -9.999189e-06) (-1.608863e-09 4.797230e-06 -2.489015e-06)) ((-1.546452e-09 -9.446971e-11 -7.338824e-12) (4.573203e-07 -2.577862e-10 9.647809e-11))
170.498561    	((1.869544e-08 5.958664e-06 -1.001508e-05) (-1.541627e-09 4.796699e-06 -2.488402e-06)) ((-1.546045e-09 -9.452963e-11 -7.349977e-12) (4.572401e-07 -2.624787e-10 9.560282e-11))
176.146072    	((1.938794e-08 5.943128e-06 -1.003209e-05) (-1.481252e-09 4.795733e-06 -2.487650e-06)) ((-1.545683e-09 -9.459021e-11 -7.364070e-12) (4.571422e-07 -2.669345e-10 9.386919e-11))
181.792341    	((2.006678e-08 5.926398e-06 -1.004993e-05) (-1.422515e-09 4.794362e-06 -2.486828e-06)) ((-1.545281e-09 -9.466401e-11 -7.372012e-12) (4.570274e-07 -2.709906e-10 9.164973e-11))
187.437426    	((2.108719e-08 5.910002e-06 -1.006837e-05) (-1.352221e-09 4.792677e-06 -2.485934e-06)) ((-1.544894e-09 -9.474769e-11 -7.377908e-12) (4.568978e-07 -2.752305e-10 8.891269e-11))
193.081339    	((2.166956e-08 5.894065e-06 -1.008688e-05) (-1.277775e-09 4.790765e-06 -2.485067e-06)) ((-1.544523e-09 -9.486183e-11 -7.383884e-12) (4.567585e-07 -2.794265e-10 8.581962e-11))
198.724047    	((2.123104e-08 5.880674e-06 -1.010585e-05) (-1.248167e-09 4.788767e-06 -2.484365e-06)) ((-1.544109e-09 -9.502106e-11 -7.388388e-12) (4.566181e-07 -2.810136e-10 8.330358e-11))
204.36549     	((2.094758e-08 5.871266e-06 -1.012435e-05) (-1.255216e-09 4.786903e-06 -2.483951e-06)) ((-1.543786e-09 -9.518236e-11 -7.394447e-12) (4.564873e-07 -2.790689e-10 8.237365e-11))
210.005593    	((2.086984e-08 5.866521e-06 -1.014275e-05) (-1.264621e-09 4.785473e-06 -2.483977e-06)) ((-1.543652e-09 -9.531197e-11 -7.404511e-12) (4.563799e-07 -2.750561e-10 8.366117e-11))
215.644282    	((2.052406e-08 5.865013e-06 -1.016219e-05) (-1.279720e-09 4.784688e-06 -2.484499e-06)) ((-1.543599e-09 -9.540086e-11 -7.417404e-12) (4.563048e-07 -2.706714e-10 8.733422e-11))
221.281489    	((2.042534e-08 5.866427e-06 -1.018129e-05) (-1.284749e-09 4.784671e-06 -2.485397e-06)) ((-1.543624e-09 -9.545826e-11 -7.427634e-12) (4.562657e-07 -2.682663e-10 9.254287e-11))
226.917131    	((2.000409e-08 5.869467e-06 -1.019988e-05) (-1.281664e-09 4.785439e-06 -2.486466e-06)) ((-1.543701e-09 -9.551186e-11 -7.445252e-12) (4.562608e-07 -2.679729e-10 9.806543e-11))
232.551103    	((1.967593e-08 5.873034e-06 -1.021841e-05) (-1.270492e-09 4.786879e-06 -2.487517e-06)) ((-1.543801e-09 -9.555168e-11 -7.467577e-12) (4.562842e-07 -2.697149e-10 1.027301e-10))
238.183303    	((1.937272e-08 5.876762e-06 -1.023560e-05) (-1.250361e-09 4.788812e-06 -2.488449e-06)) ((-1.543906e-09 -9.558698e-11 -7.487897e-12) (4.563295e-07 -2.730746e-10 1.057193e-10))
