# Forces      
# CofR        : (0.000000e+00 0.000000e+00 0.000000e+00)
# Time        forces(pressure viscous)	moments(pressure viscous)
0             	((0.000000e+00 0.000000e+00 0.000000e+00) (-1.223632e-13 -3.996953e-04 2.597523e-14)) ((0.000000e+00 0.000000e+00 0.000000e+00) (-8.980738e-06 -9.978121e-16 1.942960e-10))
0.012         	((1.805420e-08 -1.162378e-01 2.596876e-02) (5.648529e-10 -4.577841e-04 -1.124154e-06)) ((1.369033e-06 8.944481e-08 2.177828e-08) (-1.324621e-05 6.487100e-12 3.699057e-10))
0.0264        	((-1.821438e-06 1.008159e-02 -2.374116e-03) (-1.314835e-10 -4.649298e-04 -1.758001e-06)) ((-1.162546e-07 -6.291692e-09 -1.178153e-09) (-1.478555e-05 6.372884e-11 4.314106e-10))
0.04368       	((9.843076e-07 2.323467e-02 -2.297214e-03) (1.286618e-09 -4.111539e-04 -1.727405e-06)) ((-3.049029e-07 -6.849661e-09 -6.382633e-09) (-1.316028e-05 1.335808e-10 2.939308e-10))
0.064416      	((-1.975122e-08 2.065679e-04 -1.298296e-03) (1.704922e-09 -3.631913e-04 -1.515925e-06)) ((1.151576e-09 -3.182533e-09 7.229615e-10) (-1.184868e-05 1.683303e-10 1.877267e-10))
0.0892992     	((2.519342e-07 -1.338978e-04 -8.853630e-04) (5.317780e-09 -3.347061e-04 -1.759106e-06)) ((9.225189e-09 -1.652742e-09 2.710694e-10) (-1.120863e-05 1.479809e-10 -1.584888e-10))
0.119159      	((5.105973e-08 4.054791e-04 -6.579911e-04) (1.074312e-08 -3.090522e-04 -2.310123e-06)) ((-7.306363e-09 -1.133527e-09 -3.738273e-10) (-1.050781e-05 1.318066e-10 -5.318952e-10))
0.154991      	((-1.615506e-07 1.677698e-04 -5.162693e-04) (9.895776e-09 -2.825353e-04 -2.785860e-06)) ((-3.967295e-09 -6.259155e-10 -1.726457e-10) (-9.749172e-06 1.308838e-10 -6.318852e-10))
0.197989      	((-3.606403e-08 2.755955e-05 -4.182315e-04) (3.695972e-09 -2.567159e-04 -3.283445e-06)) ((-2.080541e-09 -2.697238e-10 -4.612142e-11) (-8.995033e-06 1.012529e-10 -6.539340e-10))
0.249587      	((-3.919708e-08 -1.917665e-05 -3.601475e-04) (-7.450708e-09 -2.324182e-04 -3.848918e-06)) ((-1.410304e-09 -1.020304e-10 -2.547521e-11) (-8.261953e-06 8.763416e-11 -7.118027e-10))
0.311504      	((-8.930946e-08 -4.335935e-05 -3.234241e-04) (-1.695111e-08 -2.102687e-04 -4.463708e-06)) ((-1.078201e-09 2.485249e-12 -1.191876e-11) (-7.565374e-06 9.789075e-11 -6.713543e-10))
0.385805      	((-7.740564e-08 -5.683461e-05 -3.005057e-04) (-2.062713e-08 -1.905907e-04 -5.089226e-06)) ((-8.472531e-10 7.374342e-11 -1.891972e-12) (-6.920699e-06 1.277142e-10 -5.840915e-10))
0.474966      	((-6.298447e-08 -6.326262e-05 -2.851524e-04) (-2.117834e-08 -1.733769e-04 -5.702903e-06)) ((-6.780498e-10 1.205793e-10 3.964025e-12) (-6.335225e-06 1.461128e-10 -4.995659e-10))
0.581959      	((-4.085967e-08 -6.558727e-05 -2.754992e-04) (-1.953293e-08 -1.582087e-04 -6.316470e-06)) ((-5.293442e-10 1.409408e-10 8.444711e-12) (-5.804212e-06 1.522005e-10 -4.682342e-10))
0.710351      	((-2.562136e-08 -6.535102e-05 -2.689962e-04) (-1.575541e-08 -1.443452e-04 -6.958543e-06)) ((-3.995854e-10 1.533020e-10 9.396131e-12) (-5.308709e-06 1.508903e-10 -5.704968e-10))
0.864421      	((-4.094073e-09 -6.336197e-05 -2.650003e-04) (-1.007506e-08 -1.312515e-04 -7.651977e-06)) ((-2.838329e-10 1.599515e-10 4.289355e-12) (-4.834028e-06 1.280953e-10 -7.034517e-10))
1.049306      	((6.036174e-09 -6.028916e-05 -2.621202e-04) (-5.328771e-09 -1.189025e-04 -8.408934e-06)) ((-1.901459e-10 1.632242e-10 1.022473e-12) (-4.382524e-06 9.236824e-11 -8.245406e-10))
1.271167      	((4.223038e-09 -5.675285e-05 -2.603201e-04) (-3.490095e-09 -1.074762e-04 -9.212982e-06)) ((-1.185455e-10 1.577513e-10 3.522449e-12) (-3.962571e-06 6.740038e-11 -8.929088e-10))
1.5374        	((1.081553e-08 -5.338920e-05 -2.588680e-04) (-2.952241e-09 -9.712559e-05 -1.004848e-05)) ((-4.313285e-11 1.528831e-10 8.798350e-12) (-3.580861e-06 4.930659e-11 -8.608122e-10))
1.85688       	((4.636220e-09 -5.056531e-05 -2.575231e-04) (-2.094471e-09 -8.792418e-05 -1.092184e-05)) ((3.585120e-11 1.479138e-10 1.328914e-11) (-3.240865e-06 7.710678e-12 -7.894713e-10))
2.240256      	((-9.352697e-10 -4.848032e-05 -2.561084e-04) (-1.519720e-09 -7.984231e-05 -1.183809e-05)) ((1.185589e-10 1.405175e-10 1.666097e-11) (-2.941916e-06 -2.682032e-11 -7.041166e-10))
2.700307      	((-6.891828e-09 -4.720475e-05 -2.545876e-04) (-1.847924e-09 -7.279327e-05 -1.278571e-05)) ((2.117368e-10 1.321885e-10 1.986265e-11) (-2.681054e-06 -3.760579e-11 -6.055739e-10))
3.252369      	((-1.695230e-08 -4.689221e-05 -2.527425e-04) (-2.009146e-09 -6.668384e-05 -1.374140e-05)) ((3.234421e-10 1.228959e-10 2.572605e-11) (-2.455061e-06 -3.183668e-11 -5.656299e-10))
3.914842      	((-1.501570e-08 -4.748355e-05 -2.506037e-04) (-2.297145e-09 -6.143690e-05 -1.467702e-05)) ((4.515199e-10 1.146011e-10 3.235086e-11) (-2.261207e-06 -1.462025e-11 -5.359020e-10))
4.709811      	((-1.781715e-08 -4.915285e-05 -2.480444e-04) (-2.728166e-09 -5.698215e-05 -1.556798e-05)) ((5.951571e-10 1.044434e-10 4.040437e-11) (-2.096911e-06 4.148350e-12 -5.111626e-10))
5.663773      	((-1.292126e-08 -5.192111e-05 -2.451417e-04) (-1.894905e-09 -5.323481e-05 -1.639207e-05)) ((7.504729e-10 9.295191e-11 5.152215e-11) (-1.959307e-06 1.808133e-11 -5.363953e-10))
6.808528      	((-1.104060e-08 -5.578223e-05 -2.418605e-04) (-1.970672e-10 -5.012627e-05 -1.714276e-05)) ((9.221596e-10 8.056616e-11 6.619585e-11) (-1.845295e-06 2.747499e-11 -6.090834e-10))
8.177596      	((-5.472370e-09 -6.067067e-05 -2.381534e-04) (3.111791e-10 -4.758232e-05 -1.783348e-05)) ((1.105630e-09 6.618374e-11 8.427286e-11) (-1.751813e-06 3.066483e-11 -7.892447e-10))
9.77135       	((5.403093e-10 -6.642016e-05 -2.341854e-04) (-3.117552e-11 -4.554755e-05 -1.844504e-05)) ((1.288972e-09 4.952638e-11 1.035924e-10) (-1.677841e-06 3.604912e-11 -1.017901e-09))
11.589853     	((2.851373e-09 -7.268054e-05 -2.298992e-04) (-5.291764e-10 -4.395985e-05 -1.896313e-05)) ((1.458430e-09 3.299232e-11 1.254410e-10) (-1.620606e-06 5.787188e-11 -1.218646e-09))
13.632563     	((-6.115760e-11 -7.924279e-05 -2.253500e-04) (-8.901305e-10 -4.274133e-05 -1.936422e-05)) ((1.595905e-09 1.512681e-11 1.464589e-10) (-1.576179e-06 7.832082e-11 -1.348401e-09))
15.863594     	((9.985422e-09 -8.566564e-05 -2.200819e-04) (-5.022974e-10 -4.181124e-05 -1.960350e-05)) ((1.706550e-09 -3.254174e-12 1.641130e-10) (-1.541299e-06 8.008877e-11 -1.352790e-09))
18.080214     	((1.748475e-08 -9.124280e-05 -2.144270e-04) (7.173223e-10 -4.112892e-05 -1.966633e-05)) ((1.795600e-09 -2.034892e-11 1.777497e-10) (-1.514964e-06 9.206658e-11 -1.265308e-09))
20.284756     	((2.976698e-08 -9.584370e-05 -2.083965e-04) (3.429332e-09 -4.055003e-05 -1.962400e-05)) ((1.875387e-09 -3.625493e-11 1.906352e-10) (-1.492580e-06 9.500141e-11 -1.065948e-09))
22.485882     	((4.584811e-08 -9.900216e-05 -2.020890e-04) (7.356281e-09 -4.000687e-05 -1.953564e-05)) ((1.943496e-09 -4.704081e-11 2.014199e-10) (-1.472254e-06 6.555817e-11 -7.966661e-10))
24.693216     	((5.787877e-08 -1.012908e-04 -1.959906e-04) (1.083397e-08 -3.950736e-05 -1.942310e-05)) ((2.005209e-09 -5.224854e-11 2.109132e-10) (-1.454477e-06 2.270817e-11 -5.714790e-10))
26.911561     	((5.518561e-08 -1.023917e-04 -1.903209e-04) (1.246823e-08 -3.905783e-05 -1.930113e-05)) ((2.050772e-09 -5.199315e-11 2.179805e-10) (-1.439372e-06 -1.389163e-11 -4.712702e-10))
29.14064      	((5.098121e-08 -1.025431e-04 -1.849145e-04) (1.213689e-08 -3.863798e-05 -1.918896e-05)) ((2.077821e-09 -4.675243e-11 2.226062e-10) (-1.425796e-06 -4.930465e-11 -4.752926e-10))
31.378282     	((5.415726e-08 -1.021513e-04 -1.796395e-04) (1.213214e-08 -3.823253e-05 -1.908985e-05)) ((2.095801e-09 -3.922312e-11 2.252965e-10) (-1.413061e-06 -1.039445e-10 -4.914280e-10))
33.623161     	((4.885004e-08 -1.015234e-04 -1.746237e-04) (1.214250e-08 -3.784749e-05 -1.900591e-05)) ((2.099403e-09 -3.123079e-11 2.264349e-10) (-1.401102e-06 -1.552022e-10 -4.963279e-10))
35.873018     	((4.439013e-08 -1.010370e-04 -1.703498e-04) (1.192510e-08 -3.749988e-05 -1.893223e-05)) ((2.097614e-09 -2.638296e-11 2.261039e-10) (-1.390367e-06 -1.813031e-10 -4.899543e-10))
38.126095     	((3.754772e-08 -1.003690e-04 -1.663009e-04) (1.163441e-08 -3.718587e-05 -1.886904e-05)) ((2.090801e-09 -2.081034e-11 2.255767e-10) (-1.380713e-06 -1.957929e-10 -4.703957e-10))
40.383255     	((3.416876e-08 -9.957854e-05 -1.622506e-04) (1.100314e-08 -3.689203e-05 -1.881717e-05)) ((2.081101e-09 -1.426497e-11 2.253617e-10) (-1.371641e-06 -2.094498e-10 -4.563118e-10))
42.645009     	((3.719712e-08 -9.884560e-05 -1.583244e-04) (1.060782e-08 -3.661633e-05 -1.877358e-05)) ((2.071862e-09 -7.695372e-12 2.252130e-10) (-1.363021e-06 -2.456551e-10 -4.481867e-10))
44.911521     	((4.177088e-08 -9.820256e-05 -1.545751e-04) (1.027312e-08 -3.635872e-05 -1.873845e-05)) ((2.062525e-09 -1.204986e-12 2.251064e-10) (-1.354785e-06 -2.828344e-10 -4.928316e-10))
47.182742     	((5.126277e-08 -9.769736e-05 -1.510357e-04) (1.006022e-08 -3.612022e-05 -1.870939e-05)) ((2.055742e-09 5.082766e-12 2.251053e-10) (-1.347031e-06 -3.147342e-10 -5.744425e-10))
49.458507     	((6.676273e-08 -9.718588e-05 -1.475840e-04) (1.014267e-08 -3.589712e-05 -1.868689e-05)) ((2.048679e-09 1.191051e-11 2.250241e-10) (-1.339673e-06 -3.505691e-10 -6.712896e-10))
51.738778     	((9.782781e-08 -9.669604e-05 -1.442446e-04) (1.051578e-08 -3.568671e-05 -1.866781e-05)) ((2.043755e-09 1.897299e-11 2.249498e-10) (-1.332730e-06 -4.118400e-10 -7.699728e-10))
54.023713     	((1.294994e-07 -9.626375e-05 -1.409903e-04) (1.152816e-08 -3.548940e-05 -1.864503e-05)) ((2.042311e-09 2.565026e-11 2.249451e-10) (-1.326373e-06 -5.135012e-10 -8.623522e-10))
56.3137       	((1.571224e-07 -9.590755e-05 -1.378777e-04) (1.302802e-08 -3.530710e-05 -1.861639e-05)) ((2.043104e-09 3.190559e-11 2.249734e-10) (-1.320699e-06 -6.234679e-10 -9.427629e-10))
58.608706     	((1.884100e-07 -9.555726e-05 -1.348155e-04) (1.507404e-08 -3.513839e-05 -1.858339e-05)) ((2.044183e-09 3.843614e-11 2.249549e-10) (-1.315601e-06 -7.325155e-10 -1.015310e-09))
60.908576     	((2.184138e-07 -9.520368e-05 -1.318550e-04) (1.736575e-08 -3.498117e-05 -1.854796e-05)) ((2.045337e-09 4.503118e-11 2.249924e-10) (-1.310967e-06 -8.467599e-10 -1.080759e-09))
63.213189     	((2.538857e-07 -9.486938e-05 -1.290276e-04) (1.999719e-08 -3.483436e-05 -1.851175e-05)) ((2.046061e-09 5.134292e-11 2.250435e-10) (-1.306731e-06 -9.708893e-10 -1.137896e-09))
65.52238      	((2.875513e-07 -9.453421e-05 -1.263015e-04) (2.287268e-08 -3.469633e-05 -1.847870e-05)) ((2.044829e-09 5.778823e-11 2.251029e-10) (-1.302757e-06 -1.099536e-09 -1.182115e-09))
67.836044     	((3.217018e-07 -9.414878e-05 -1.236543e-04) (2.599322e-08 -3.456405e-05 -1.845085e-05)) ((2.042314e-09 6.425454e-11 2.250375e-10) (-1.298902e-06 -1.235193e-09 -1.219193e-09))
70.154122     	((3.524013e-07 -9.376435e-05 -1.210765e-04) (2.944872e-08 -3.443606e-05 -1.842675e-05)) ((2.039940e-09 7.025364e-11 2.249836e-10) (-1.295147e-06 -1.373603e-09 -1.240144e-09))
72.476518     	((3.759128e-07 -9.345361e-05 -1.186443e-04) (3.289252e-08 -3.431472e-05 -1.840478e-05)) ((2.038413e-09 7.563278e-11 2.249990e-10) (-1.291597e-06 -1.497614e-09 -1.238346e-09))
74.803152     	((4.175696e-07 -9.319241e-05 -1.163699e-04) (3.679867e-08 -3.420134e-05 -1.838395e-05)) ((2.037826e-09 8.083758e-11 2.250257e-10) (-1.288337e-06 -1.631957e-09 -1.226179e-09))
77.13391      	((4.511244e-07 -9.293419e-05 -1.141492e-04) (4.103381e-08 -3.409461e-05 -1.836414e-05)) ((2.037126e-09 8.601679e-11 2.249895e-10) (-1.285336e-06 -1.770363e-09 -1.201006e-09))
79.468629     	((4.960268e-07 -9.265885e-05 -1.120127e-04) (4.583392e-08 -3.399241e-05 -1.834876e-05)) ((2.033421e-09 9.132160e-11 2.250231e-10) (-1.282379e-06 -1.924521e-09 -1.166035e-09))
81.807127     	((5.497070e-07 -9.241520e-05 -1.099575e-04) (5.125956e-08 -3.389446e-05 -1.834035e-05)) ((2.028136e-09 9.696134e-11 2.251992e-10) (-1.279351e-06 -2.114629e-09 -1.133449e-09))
84.149219     	((5.979426e-07 -9.215321e-05 -1.079620e-04) (5.708518e-08 -3.379887e-05 -1.834041e-05)) ((2.020725e-09 1.025306e-10 2.253778e-10) (-1.276144e-06 -2.329585e-09 -1.109747e-09))
86.494707     	((6.675827e-07 -9.189340e-05 -1.060160e-04) (6.386513e-08 -3.370506e-05 -1.834586e-05)) ((2.013871e-09 1.083870e-10 2.255219e-10) (-1.272853e-06 -2.588863e-09 -1.105021e-09))
88.843402     	((7.283862e-07 -9.161928e-05 -1.040970e-04) (7.079657e-08 -3.361348e-05 -1.835213e-05)) ((2.007883e-09 1.138759e-10 2.255305e-10) (-1.269646e-06 -2.858374e-09 -1.117960e-09))
91.195155     	((8.084192e-07 -9.135859e-05 -1.022139e-04) (7.797333e-08 -3.352498e-05 -1.835641e-05)) ((2.003326e-09 1.194507e-10 2.254769e-10) (-1.266620e-06 -3.149997e-09 -1.156130e-09))
93.549837     	((8.965197e-07 -9.112259e-05 -1.003621e-04) (8.570555e-08 -3.344035e-05 -1.835745e-05)) ((2.000206e-09 1.250786e-10 2.254510e-10) (-1.263818e-06 -3.484790e-09 -1.223443e-09))
95.907334     	((9.910744e-07 -9.090675e-05 -9.856674e-05) (9.400599e-08 -3.335970e-05 -1.835530e-05)) ((1.998102e-09 1.305538e-10 2.253973e-10) (-1.261220e-06 -3.856719e-09 -1.314841e-09))
98.267553     	((1.100159e-06 -9.071207e-05 -9.682416e-05) (1.031814e-07 -3.328320e-05 -1.835016e-05)) ((1.996853e-09 1.359805e-10 2.252711e-10) (-1.258813e-06 -4.268096e-09 -1.427358e-09))
100.630417    	((1.226730e-06 -9.052448e-05 -9.514216e-05) (1.134745e-07 -3.321039e-05 -1.834298e-05)) ((1.995807e-09 1.415477e-10 2.251175e-10) (-1.256557e-06 -4.728844e-09 -1.564832e-09))
102.995861    	((1.365433e-06 -9.033637e-05 -9.351157e-05) (1.251653e-07 -3.314054e-05 -1.833460e-05)) ((1.994912e-09 1.472007e-10 2.250109e-10) (-1.254406e-06 -5.249679e-09 -1.723684e-09))
105.363812    	((1.507604e-06 -9.016456e-05 -9.194818e-05) (1.377768e-07 -3.307399e-05 -1.832493e-05)) ((1.994322e-09 1.525189e-10 2.248919e-10) (-1.252367e-06 -5.806762e-09 -1.903312e-09))
107.734195    	((1.670646e-06 -9.000751e-05 -9.044204e-05) (1.513142e-07 -3.301073e-05 -1.831448e-05)) ((1.994010e-09 1.580310e-10 2.247934e-10) (-1.250437e-06 -6.412945e-09 -2.113979e-09))
110.106926    	((1.850758e-06 -8.985690e-05 -8.900190e-05) (1.663485e-07 -3.295049e-05 -1.830363e-05)) ((1.993497e-09 1.638782e-10 2.247227e-10) (-1.248608e-06 -7.097676e-09 -2.350236e-09))
112.481909    	((2.050628e-06 -8.969658e-05 -8.760246e-05) (1.833184e-07 -3.289268e-05 -1.829324e-05)) ((1.992418e-09 1.701414e-10 2.246436e-10) (-1.246841e-06 -7.866432e-09 -2.591653e-09))
114.859044    	((2.263493e-06 -8.952810e-05 -8.626097e-05) (2.022010e-07 -3.283674e-05 -1.828416e-05)) ((1.990681e-09 1.766078e-10 2.246058e-10) (-1.245101e-06 -8.712005e-09 -2.830663e-09))
117.238227    	((2.493003e-06 -8.936110e-05 -8.494097e-05) (2.230410e-07 -3.278239e-05 -1.827663e-05)) ((1.988496e-09 1.832731e-10 2.245961e-10) (-1.243376e-06 -9.630103e-09 -3.070550e-09))
119.619344    	((2.737139e-06 -8.921307e-05 -8.367734e-05) (2.456835e-07 -3.273015e-05 -1.827011e-05)) ((1.986402e-09 1.899248e-10 2.246208e-10) (-1.241698e-06 -1.061707e-08 -3.324427e-09))
122.002285    	((2.996312e-06 -8.908161e-05 -8.244657e-05) (2.700371e-07 -3.268052e-05 -1.826379e-05)) ((1.984592e-09 1.967319e-10 2.246608e-10) (-1.240110e-06 -1.167199e-08 -3.595106e-09))
124.386953    	((3.276913e-06 -8.895580e-05 -8.125164e-05) (2.963860e-07 -3.263331e-05 -1.825717e-05)) ((1.982988e-09 2.038589e-10 2.247108e-10) (-1.238622e-06 -1.280571e-08 -3.877633e-09))
126.77326     	((3.581043e-06 -8.884358e-05 -8.009775e-05) (3.250785e-07 -3.258866e-05 -1.824960e-05)) ((1.981870e-09 2.112392e-10 2.247628e-10) (-1.237254e-06 -1.402912e-08 -4.168388e-09))
129.161116    	((3.915884e-06 -8.873607e-05 -7.897874e-05) (3.566051e-07 -3.254637e-05 -1.824072e-05)) ((1.981192e-09 2.190223e-10 2.247734e-10) (-1.236012e-06 -1.536162e-08 -4.468877e-09))
131.550434    	((4.287088e-06 -8.863241e-05 -7.788308e-05) (3.914587e-07 -3.250622e-05 -1.823028e-05)) ((1.980974e-09 2.273784e-10 2.247653e-10) (-1.234892e-06 -1.682816e-08 -4.781826e-09))
133.941128    	((4.693882e-06 -8.853720e-05 -7.682021e-05) (4.298984e-07 -3.246847e-05 -1.821781e-05)) ((1.981275e-09 2.362538e-10 2.247714e-10) (-1.233909e-06 -1.844580e-08 -5.111059e-09))
136.333109    	((5.143943e-06 -8.844439e-05 -7.577712e-05) (4.724496e-07 -3.243302e-05 -1.820291e-05)) ((1.982049e-09 2.458125e-10 2.247621e-10) (-1.233063e-06 -2.023486e-08 -5.457951e-09))
138.726299    	((5.641873e-06 -8.835203e-05 -7.475067e-05) (5.196941e-07 -3.239946e-05 -1.818559e-05)) ((1.983094e-09 2.561021e-10 2.247272e-10) (-1.232334e-06 -2.221887e-08 -5.824739e-09))
141.120621    	((6.199866e-06 -8.826024e-05 -7.373109e-05) (5.722880e-07 -3.236757e-05 -1.816607e-05)) ((1.984191e-09 2.672691e-10 2.246593e-10) (-1.231699e-06 -2.442694e-08 -6.229192e-09))
143.516005    	((6.814534e-06 -8.817531e-05 -7.274027e-05) (6.303631e-07 -3.233752e-05 -1.814475e-05)) ((1.985047e-09 2.792200e-10 2.245754e-10) (-1.231137e-06 -2.687105e-08 -6.686427e-09))
145.912387    	((7.498012e-06 -8.808839e-05 -7.174863e-05) (6.945606e-07 -3.230888e-05 -1.812268e-05)) ((1.985248e-09 2.923106e-10 2.244498e-10) (-1.230592e-06 -2.957738e-08 -7.198581e-09))
148.309706    	((8.245325e-06 -8.801587e-05 -7.078445e-05) (7.656838e-07 -3.228167e-05 -1.810019e-05)) ((1.985265e-09 3.062227e-10 2.242778e-10) (-1.230051e-06 -3.256542e-08 -7.754068e-09))
150.707908    	((9.078217e-06 -8.794869e-05 -6.982122e-05) (8.447943e-07 -3.225588e-05 -1.807723e-05)) ((1.984835e-09 3.216993e-10 2.240454e-10) (-1.229523e-06 -3.589094e-08 -8.347921e-09))
153.106924    	((9.992877e-06 -8.789955e-05 -6.889070e-05) (9.323713e-07 -3.223200e-05 -1.805304e-05)) ((1.984582e-09 3.382379e-10 2.237495e-10) (-1.229063e-06 -3.958717e-08 -9.001869e-09))
155.506056    	((1.100074e-05 -8.786439e-05 -6.797531e-05) (1.028528e-06 -3.221070e-05 -1.802728e-05)) ((1.984162e-09 3.561774e-10 2.233526e-10) (-1.228720e-06 -4.367205e-08 -9.759552e-09))
157.904193    	((1.211391e-05 -8.784315e-05 -6.708174e-05) (1.134240e-06 -3.219225e-05 -1.800034e-05)) ((1.983309e-09 3.757848e-10 2.228618e-10) (-1.228505e-06 -4.818216e-08 -1.062626e-08))
160.301085    	((1.333735e-05 -8.784755e-05 -6.621375e-05) (1.250294e-06 -3.217685e-05 -1.797296e-05)) ((1.982184e-09 3.969815e-10 2.223362e-10) (-1.228420e-06 -5.314537e-08 -1.159927e-08))
162.696437    	((1.468724e-05 -8.787860e-05 -6.537005e-05) (1.377788e-06 -3.216432e-05 -1.794606e-05)) ((1.980950e-09 4.199567e-10 2.218540e-10) (-1.228449e-06 -5.861053e-08 -1.269696e-08))
165.089957    	((1.617660e-05 -8.794538e-05 -6.456239e-05) (1.518167e-06 -3.215592e-05 -1.792061e-05)) ((1.979849e-09 4.451022e-10 2.213521e-10) (-1.228603e-06 -6.463852e-08 -1.392525e-08))
167.481368    	((1.780780e-05 -8.805324e-05 -6.381593e-05) (1.673037e-06 -3.215201e-05 -1.789702e-05)) ((1.978878e-09 4.725749e-10 2.207752e-10) (-1.228914e-06 -7.128645e-08 -1.526403e-08))
169.870634    	((1.960072e-05 -8.820269e-05 -6.312778e-05) (1.843789e-06 -3.215310e-05 -1.787510e-05)) ((1.977749e-09 5.026192e-10 2.201864e-10) (-1.229427e-06 -7.859987e-08 -1.669455e-08))
172.257608    	((2.156215e-05 -8.840999e-05 -6.251504e-05) (2.031348e-06 -3.216019e-05 -1.785499e-05)) ((1.976781e-09 5.351939e-10 2.195415e-10) (-1.230179e-06 -8.663589e-08 -1.825421e-08))
174.642006    	((2.370425e-05 -8.866958e-05 -6.195165e-05) (2.236955e-06 -3.217358e-05 -1.783732e-05)) ((1.975897e-09 5.706917e-10 2.189282e-10) (-1.231179e-06 -9.546626e-08 -1.998036e-08))
177.023593    	((2.605148e-05 -8.900919e-05 -6.147873e-05) (2.462918e-06 -3.219479e-05 -1.782158e-05)) ((1.975788e-09 6.090842e-10 2.184155e-10) (-1.232500e-06 -1.051532e-07 -2.184966e-08))
179.402092    	((2.860380e-05 -8.941356e-05 -6.106560e-05) (2.711323e-06 -3.222528e-05 -1.780689e-05)) ((1.976335e-09 6.504990e-10 2.179401e-10) (-1.234220e-06 -1.157378e-07 -2.382056e-08))
