# Forces      
# CofR        : (0.000000e+00 0.000000e+00 0.000000e+00)
# Time        forces(pressure viscous)	moments(pressure viscous)
0             	((0.000000e+00 0.000000e+00 0.000000e+00) (-2.518467e-03 7.017131e-13 -2.426766e-08)) ((0.000000e+00 0.000000e+00 0.000000e+00) (-5.548854e-15 5.658674e-05 -7.756413e-15))
0.012         	((-7.378355e-01 -4.720256e-07 6.893860e-02) (-2.974105e-03 -2.797637e-09 -4.805255e-05)) ((4.476109e-11 -9.926974e-06 9.929588e-11) (-4.344173e-10 8.744802e-05 4.926634e-11))
0.0264        	((1.229503e-01 4.154322e-06 -2.590407e-02) (-2.974540e-03 -2.971301e-09 -7.322393e-05)) ((4.240848e-10 1.524756e-06 3.837870e-10) (-6.236983e-10 9.679993e-05 -3.130064e-10))
0.04368       	((1.128714e-01 -1.233125e-06 -1.522450e-02) (-2.570220e-03 -6.555918e-09 -7.254365e-05)) ((-2.301699e-10 1.824635e-06 -3.179208e-10) (-5.466136e-10 8.535118e-05 -3.400453e-10))
0.064416      	((4.623338e-05 -3.760139e-06 -1.470490e-02) (-2.264437e-03 -2.621166e-08 -8.107777e-05)) ((-3.824365e-11 -3.098146e-08 -5.230541e-11) (-6.107179e-10 7.752735e-05 -5.860265e-11))
0.0892992     	((9.049307e-04 5.996069e-07 -1.255596e-02) (-2.083212e-03 -5.014115e-08 -9.819758e-05)) ((4.212130e-11 -7.137779e-09 -8.264201e-11) (-6.541047e-10 7.324431e-05 4.857652e-10))
0.119159      	((8.825499e-04 -1.063068e-06 -1.142498e-02) (-1.931176e-03 -7.311137e-08 -1.128319e-04)) ((1.234679e-10 3.733302e-08 -2.541678e-10) (-7.225827e-10 6.883531e-05 1.760758e-09))
0.154991      	((-1.778030e-04 -2.016874e-06 -1.084255e-02) (-1.792456e-03 -6.666181e-08 -1.233372e-04)) ((8.361285e-11 1.766448e-08 -3.031489e-10) (-1.035164e-09 6.457998e-05 2.262748e-09))
0.197989      	((-5.188858e-04 -5.555515e-07 -1.041508e-02) (-1.671311e-03 -4.977117e-08 -1.328957e-04)) ((5.012603e-11 1.236666e-08 -2.221918e-10) (-1.344421e-09 6.068307e-05 1.698027e-09))
0.249587      	((-7.014114e-04 -6.972296e-07 -1.015978e-02) (-1.568291e-03 -5.522487e-08 -1.428701e-04)) ((1.106233e-10 8.550873e-09 -1.472892e-10) (-1.700778e-09 5.716024e-05 1.280281e-09))
0.311504      	((-8.157205e-04 -2.478224e-07 -9.982266e-03) (-1.478590e-03 -4.777028e-08 -1.541229e-04)) ((9.657444e-11 3.611358e-09 -7.654349e-11) (-2.019252e-09 5.394247e-05 1.002004e-09))
0.385805      	((-8.828851e-04 -6.652424e-08 -9.851222e-03) (-1.395693e-03 -3.560033e-08 -1.680719e-04)) ((8.099149e-11 -2.918915e-09 -5.017107e-11) (-2.213940e-09 5.088356e-05 7.738434e-10))
0.474966      	((-9.379013e-04 1.379624e-07 -9.740608e-03) (-1.315492e-03 -2.863247e-08 -1.851236e-04)) ((2.980154e-11 -9.108330e-09 -2.946238e-11) (-2.220653e-09 4.788062e-05 6.647138e-10))
0.581959      	((-1.002209e-03 1.306752e-07 -9.641150e-03) (-1.237846e-03 -2.294674e-08 -2.048226e-04)) ((3.871580e-12 -1.537888e-08 -2.260312e-11) (-2.045927e-09 4.494740e-05 5.992812e-10))
0.710351      	((-1.088623e-03 1.190129e-07 -9.540871e-03) (-1.164418e-03 -2.695186e-08 -2.266232e-04)) ((3.712498e-12 -2.225061e-08 -1.442219e-11) (-1.845037e-09 4.214432e-05 4.809468e-10))
0.864421      	((-1.208391e-03 -8.965268e-08 -9.435887e-03) (-1.096588e-03 -3.476832e-08 -2.498599e-04)) ((9.138921e-12 -2.952653e-08 -8.070433e-12) (-1.673784e-09 3.952402e-05 3.405295e-10))
1.049306      	((-1.369019e-03 -2.075360e-07 -9.323252e-03) (-1.035187e-03 -3.349351e-08 -2.734259e-04)) ((1.498119e-11 -3.753057e-08 -1.366795e-11) (-1.592006e-09 3.713032e-05 3.343139e-10))
1.266514      	((-1.576413e-03 -5.863661e-08 -9.203681e-03) (-9.814903e-04 -2.573312e-08 -2.957739e-04)) ((8.881740e-12 -4.630517e-08 -1.349016e-11) (-1.497703e-09 3.502952e-05 4.422975e-10))
1.515773      	((-1.830524e-03 9.562577e-08 -9.080523e-03) (-9.358468e-04 -2.421335e-08 -3.158579e-04)) ((-8.803146e-13 -5.536914e-08 -1.207645e-11) (-1.298116e-09 3.325177e-05 5.850367e-10))
1.796825      	((-2.129895e-03 3.889753e-07 -8.950087e-03) (-8.978497e-04 -2.414301e-08 -3.335392e-04)) ((-8.484406e-12 -6.368824e-08 -9.960622e-12) (-1.066673e-09 3.177306e-05 7.610117e-10))
2.109342      	((-2.467008e-03 8.182257e-07 -8.797294e-03) (-8.670202e-04 -2.801032e-08 -3.489559e-04)) ((-7.065617e-12 -7.076667e-08 -8.667773e-12) (-8.980140e-10 3.054163e-05 1.210980e-09))
2.419838      	((-2.806266e-03 8.791499e-07 -8.622571e-03) (-8.430885e-04 -2.490889e-08 -3.605185e-04)) ((1.838110e-11 -7.633744e-08 -2.367621e-11) (-8.745969e-10 2.955153e-05 1.522915e-09))
2.725853      	((-3.127425e-03 5.455570e-07 -8.415619e-03) (-8.237159e-04 -1.845387e-08 -3.678421e-04)) ((3.474179e-11 -8.127581e-08 -6.683819e-11) (-1.047570e-09 2.874466e-05 1.367379e-09))
3.028119      	((-3.413387e-03 9.464201e-07 -8.188976e-03) (-8.080740e-04 7.622763e-09 -3.710116e-04)) ((9.277572e-11 -8.625578e-08 -8.866749e-11) (-1.416245e-09 2.811929e-05 5.205272e-10))
3.328246      	((-3.634754e-03 1.995014e-06 -7.945671e-03) (-7.950524e-04 5.518589e-08 -3.711075e-04)) ((1.109612e-10 -9.147288e-08 -5.475003e-11) (-1.867566e-09 2.763979e-05 -1.679931e-09))
3.627724      	((-3.781420e-03 2.492242e-06 -7.697398e-03) (-7.839241e-04 1.210543e-07 -3.697271e-04)) ((7.845409e-11 -9.603349e-08 -3.642519e-12) (-1.659186e-09 2.725495e-05 -4.789556e-09))
3.92713       	((-3.854675e-03 3.307540e-06 -7.442440e-03) (-7.737932e-04 1.980018e-07 -3.679357e-04)) ((1.802845e-11 -1.004162e-07 3.730090e-11) (-5.260551e-10 2.691766e-05 -8.023945e-09))
4.226143      	((-3.857184e-03 3.662173e-06 -7.193855e-03) (-7.643819e-04 2.445267e-07 -3.658879e-04)) ((-3.279198e-11 -1.042439e-07 5.306943e-11) (7.162724e-10 2.662557e-05 -9.594081e-09))
4.524258      	((-3.788921e-03 4.637048e-06 -6.952356e-03) (-7.555171e-04 2.654952e-07 -3.636572e-04)) ((-3.765264e-11 -1.060458e-07 4.437447e-11) (1.520722e-09 2.637666e-05 -9.582630e-09))
4.821157      	((-3.703794e-03 4.263263e-06 -6.729939e-03) (-7.470238e-04 2.749725e-07 -3.613522e-04)) ((-2.431107e-11 -1.070691e-07 3.075033e-11) (1.831710e-09 2.615941e-05 -9.250438e-09))
5.116803      	((-3.640767e-03 3.861045e-06 -6.543668e-03) (-7.394917e-04 2.692730e-07 -3.590335e-04)) ((1.807232e-12 -1.070815e-07 4.831015e-12) (2.019367e-09 2.598118e-05 -8.867240e-09))
5.411445      	((-3.607547e-03 4.772006e-06 -6.377025e-03) (-7.336057e-04 2.710021e-07 -3.565319e-04)) ((-9.610578e-12 -1.064510e-07 -1.028088e-12) (2.658089e-09 2.585597e-05 -8.282872e-09))
5.705266      	((-3.593680e-03 6.407434e-06 -6.216980e-03) (-7.290345e-04 2.785670e-07 -3.539029e-04)) ((-5.077825e-11 -1.052922e-07 -9.868900e-12) (4.051369e-09 2.576841e-05 -7.284143e-09))
5.998275      	((-3.578200e-03 7.474602e-06 -6.065007e-03) (-7.249823e-04 2.845676e-07 -3.514520e-04)) ((-7.184193e-11 -1.035228e-07 -2.832412e-11) (6.083553e-09 2.568806e-05 -5.544861e-09))
6.290449      	((-3.556685e-03 8.907548e-06 -5.925276e-03) (-7.209975e-04 2.989295e-07 -3.494883e-04)) ((-7.025055e-11 -1.019780e-07 -2.951940e-11) (8.112685e-09 2.559530e-05 -2.976928e-09))
6.581792      	((-3.524413e-03 1.002983e-05 -5.794777e-03) (-7.167976e-04 3.230858e-07 -3.480277e-04)) ((-6.151648e-11 -1.010977e-07 -2.422550e-11) (9.675190e-09 2.548472e-05 -1.947255e-10))
6.872348      	((-3.484375e-03 1.080308e-05 -5.673696e-03) (-7.124785e-04 3.466173e-07 -3.468877e-04)) ((-7.520937e-11 -1.004728e-07 -1.791213e-11) (1.096254e-08 2.536691e-05 2.015176e-09))
7.162179      	((-3.449598e-03 1.215830e-05 -5.572054e-03) (-7.084877e-04 3.737059e-07 -3.458853e-04)) ((-1.023551e-10 -9.999536e-08 -3.068604e-12) (1.263639e-08 2.526022e-05 3.749643e-09))
7.451369      	((-3.412917e-03 1.411937e-05 -5.479390e-03) (-7.049156e-04 4.090262e-07 -3.450025e-04)) ((-1.103313e-10 -9.943069e-08 -1.542749e-12) (1.478611e-08 2.516735e-05 5.636487e-09))
7.740063      	((-3.373299e-03 1.611423e-05 -5.383863e-03) (-7.015535e-04 4.572919e-07 -3.443061e-04)) ((-1.356991e-10 -9.866351e-08 -1.807540e-11) (1.729596e-08 2.507822e-05 7.214756e-09))
8.028372      	((-3.347063e-03 1.823799e-05 -5.297930e-03) (-6.983557e-04 5.173779e-07 -3.437761e-04)) ((-1.589552e-10 -9.803355e-08 -3.522390e-11) (1.979214e-08 2.498991e-05 8.296272e-09))
8.316334      	((-3.327963e-03 2.013443e-05 -5.216313e-03) (-6.953524e-04 5.743948e-07 -3.433898e-04)) ((-1.844438e-10 -9.749121e-08 -4.583598e-11) (2.214703e-08 2.490306e-05 9.543261e-09))
8.603956      	((-3.317183e-03 2.210022e-05 -5.139585e-03) (-6.925621e-04 6.222938e-07 -3.431184e-04)) ((-2.180582e-10 -9.716163e-08 -4.905514e-11) (2.467264e-08 2.481955e-05 1.125821e-08))
8.891238      	((-3.306931e-03 2.389182e-05 -5.060372e-03) (-6.900520e-04 6.854910e-07 -3.429206e-04)) ((-2.459157e-10 -9.685231e-08 -4.331549e-11) (2.758874e-08 2.474200e-05 1.222886e-08))
9.17819       	((-3.296147e-03 2.645333e-05 -4.984186e-03) (-6.878055e-04 7.696457e-07 -3.427581e-04)) ((-2.863080e-10 -9.671765e-08 -4.083263e-11) (3.113184e-08 2.467080e-05 1.330452e-08))
9.46482       	((-3.282613e-03 2.947432e-05 -4.910462e-03) (-6.856641e-04 8.552782e-07 -3.425790e-04)) ((-3.385861e-10 -9.662316e-08 -3.469378e-11) (3.539623e-08 2.460425e-05 1.580624e-08))
9.751146      	((-3.266535e-03 3.277166e-05 -4.838866e-03) (-6.834844e-04 9.498608e-07 -3.423866e-04)) ((-3.940811e-10 -9.655840e-08 -2.974050e-11) (4.038927e-08 2.453954e-05 1.839538e-08))
10.037184     	((-3.249256e-03 3.548951e-05 -4.769853e-03) (-6.812666e-04 1.056229e-06 -3.422005e-04)) ((-4.407422e-10 -9.641698e-08 -2.197851e-11) (4.555547e-08 2.447604e-05 2.045140e-08))
10.322947     	((-3.234826e-03 3.830638e-05 -4.703632e-03) (-6.790971e-04 1.172245e-06 -3.419901e-04)) ((-5.135391e-10 -9.624359e-08 -1.232401e-11) (5.082648e-08 2.441597e-05 2.229766e-08))
10.608444     	((-3.221903e-03 4.091990e-05 -4.638647e-03) (-6.770345e-04 1.286418e-06 -3.417464e-04)) ((-5.745863e-10 -9.597307e-08 -1.573539e-11) (5.623460e-08 2.436014e-05 2.408653e-08))
10.89368      	((-3.209458e-03 4.460300e-05 -4.573527e-03) (-6.750626e-04 1.407914e-06 -3.414904e-04)) ((-6.732596e-10 -9.563549e-08 -2.805566e-11) (6.222637e-08 2.430706e-05 2.609813e-08))
11.178658     	((-3.200694e-03 4.883532e-05 -4.510654e-03) (-6.731714e-04 1.548490e-06 -3.412175e-04)) ((-7.711613e-10 -9.538828e-08 -3.640750e-11) (6.904164e-08 2.425665e-05 2.851047e-08))
11.463386     	((-3.192664e-03 5.257181e-05 -4.449155e-03) (-6.713509e-04 1.705058e-06 -3.409039e-04)) ((-8.286446e-10 -9.524619e-08 -3.673115e-11) (7.609692e-08 2.420932e-05 3.097656e-08))
11.747868     	((-3.183037e-03 5.831201e-05 -4.388136e-03) (-6.695815e-04 1.871374e-06 -3.405632e-04)) ((-9.115978e-10 -9.509709e-08 -3.433454e-11) (8.363271e-08 2.416399e-05 3.333417e-08))
12.032105     	((-3.175525e-03 6.315607e-05 -4.330583e-03) (-6.679022e-04 2.038883e-06 -3.401994e-04)) ((-9.852126e-10 -9.503639e-08 -4.636113e-11) (9.157334e-08 2.412139e-05 3.564452e-08))
12.316095     	((-3.166113e-03 6.927277e-05 -4.273640e-03) (-6.663161e-04 2.222920e-06 -3.398229e-04)) ((-1.131248e-09 -9.491489e-08 -6.917062e-11) (1.001702e-07 2.408120e-05 3.809668e-08))
12.599845     	((-3.156331e-03 7.536478e-05 -4.217257e-03) (-6.647815e-04 2.436133e-06 -3.394515e-04)) ((-1.249992e-09 -9.475087e-08 -7.944000e-11) (1.098078e-07 2.404224e-05 4.129329e-08))
12.883363     	((-3.145973e-03 8.326633e-05 -4.161938e-03) (-6.632766e-04 2.674470e-06 -3.391014e-04)) ((-1.386817e-09 -9.451564e-08 -9.070455e-11) (1.207620e-07 2.400374e-05 4.552808e-08))
13.166657     	((-3.135602e-03 9.158632e-05 -4.107315e-03) (-6.618063e-04 2.943019e-06 -3.387818e-04)) ((-1.532101e-09 -9.424167e-08 -1.015826e-10) (1.331723e-07 2.396530e-05 4.974171e-08))
13.449732     	((-3.126281e-03 9.996737e-05 -4.054444e-03) (-6.603730e-04 3.237492e-06 -3.384845e-04)) ((-1.675078e-09 -9.397984e-08 -1.071555e-10) (1.464903e-07 2.392702e-05 5.342740e-08))
13.732593     	((-3.115267e-03 1.088960e-04 -4.000714e-03) (-6.589598e-04 3.555523e-06 -3.382021e-04)) ((-1.816076e-09 -9.371301e-08 -1.046766e-10) (1.603873e-07 2.388839e-05 5.708773e-08))
14.015245     	((-3.105794e-03 1.185338e-04 -3.949485e-03) (-6.575768e-04 3.905652e-06 -3.379208e-04)) ((-1.963308e-09 -9.350985e-08 -1.002225e-10) (1.750630e-07 2.385008e-05 6.082071e-08))
14.29769      	((-3.096996e-03 1.294075e-04 -3.900011e-03) (-6.562276e-04 4.284065e-06 -3.376414e-04)) ((-2.106747e-09 -9.335226e-08 -9.983510e-11) (1.911647e-07 2.381249e-05 6.548463e-08))
14.579931     	((-3.088184e-03 1.418768e-04 -3.851229e-03) (-6.548974e-04 4.695044e-06 -3.373691e-04)) ((-2.255553e-09 -9.324476e-08 -9.789064e-11) (2.093909e-07 2.377527e-05 7.141341e-08))
14.861972     	((-3.080170e-03 1.558687e-04 -3.804210e-03) (-6.535843e-04 5.149075e-06 -3.370944e-04)) ((-2.431655e-09 -9.320595e-08 -8.688614e-11) (2.305890e-07 2.373890e-05 7.893613e-08))
15.143816     	((-3.072390e-03 1.700378e-04 -3.758254e-03) (-6.523019e-04 5.640218e-06 -3.367940e-04)) ((-2.588060e-09 -9.323789e-08 -7.566813e-11) (2.543677e-07 2.370463e-05 8.786843e-08))
15.42547      	((-3.065093e-03 1.851864e-04 -3.713955e-03) (-6.510750e-04 6.166942e-06 -3.364472e-04)) ((-2.757922e-09 -9.332421e-08 -6.181445e-11) (2.800751e-07 2.367346e-05 9.769672e-08))
15.706938     	((-3.058361e-03 2.017026e-04 -3.670755e-03) (-6.499141e-04 6.739572e-06 -3.360409e-04)) ((-2.949937e-09 -9.345371e-08 -5.092086e-11) (3.076119e-07 2.364589e-05 1.082270e-07))
15.988226     	((-3.051909e-03 2.194984e-04 -3.628927e-03) (-6.488123e-04 7.364643e-06 -3.355805e-04)) ((-3.188148e-09 -9.356483e-08 -3.752311e-11) (3.372181e-07 2.362155e-05 1.195532e-07))
16.269339     	((-3.045937e-03 2.390601e-04 -3.588105e-03) (-6.477527e-04 8.048395e-06 -3.351051e-04)) ((-3.488599e-09 -9.363362e-08 -2.298632e-11) (3.693565e-07 2.359848e-05 1.315228e-07))
16.55028      	((-3.041107e-03 2.602956e-04 -3.549298e-03) (-6.467227e-04 8.801899e-06 -3.346519e-04)) ((-3.824336e-09 -9.368190e-08 -8.167636e-12) (4.044030e-07 2.357470e-05 1.440069e-07))
16.831056     	((-3.036001e-03 2.836386e-04 -3.511592e-03) (-6.457072e-04 9.636333e-06 -3.342400e-04)) ((-4.197199e-09 -9.370252e-08 3.306415e-12) (4.427710e-07 2.354926e-05 1.569093e-07))
17.111671     	((-3.030176e-03 3.095066e-04 -3.474233e-03) (-6.446946e-04 1.055433e-05 -3.338540e-04)) ((-4.599426e-09 -9.373410e-08 1.102979e-11) (4.847758e-07 2.352281e-05 1.705309e-07))
17.39213      	((-3.024253e-03 3.385345e-04 -3.437103e-03) (-6.436943e-04 1.155705e-05 -3.334584e-04)) ((-5.032306e-09 -9.378969e-08 1.877366e-11) (5.306582e-07 2.349711e-05 1.854421e-07))
17.67244      	((-3.017677e-03 3.701565e-04 -3.399914e-03) (-6.427086e-04 1.264212e-05 -3.330422e-04)) ((-5.493378e-09 -9.380812e-08 2.442837e-11) (5.804588e-07 2.347237e-05 2.022096e-07))
17.952603     	((-3.011810e-03 4.047425e-04 -3.363235e-03) (-6.417440e-04 1.381570e-05 -3.326113e-04)) ((-5.992363e-09 -9.379783e-08 1.938748e-11) (6.342518e-07 2.344834e-05 2.208700e-07))
18.232626     	((-3.006959e-03 4.423134e-04 -3.327430e-03) (-6.408106e-04 1.509567e-05 -3.321736e-04)) ((-6.530338e-09 -9.376749e-08 1.798936e-12) (6.924187e-07 2.342506e-05 2.410124e-07))
18.512514     	((-3.003613e-03 4.834869e-04 -3.292594e-03) (-6.399093e-04 1.649545e-05 -3.317258e-04)) ((-7.116257e-09 -9.373917e-08 -2.745310e-11) (7.556864e-07 2.340294e-05 2.629538e-07))
18.792269     	((-3.002060e-03 5.284199e-04 -3.259054e-03) (-6.390559e-04 1.803862e-05 -3.312577e-04)) ((-7.760776e-09 -9.373872e-08 -5.439106e-11) (8.245911e-07 2.338296e-05 2.863039e-07))
19.071892     	((-3.000983e-03 5.770171e-04 -3.226155e-03) (-6.382598e-04 1.974947e-05 -3.307620e-04)) ((-8.467766e-09 -9.373981e-08 -7.199655e-11) (8.996010e-07 2.336572e-05 3.104065e-07))
19.351388     	((-3.001521e-03 6.298502e-04 -3.195101e-03) (-6.375280e-04 2.164256e-05 -3.302369e-04)) ((-9.231128e-09 -9.376342e-08 -8.705613e-11) (9.812488e-07 2.335159e-05 3.351406e-07))
19.630759     	((-3.002823e-03 6.874714e-04 -3.166099e-03) (-6.368625e-04 2.374378e-05 -3.296961e-04)) ((-1.008426e-08 -9.378428e-08 -9.864685e-11) (1.070449e-06 2.333993e-05 3.599458e-07))
19.910009     	((-3.004540e-03 7.500506e-04 -3.138545e-03) (-6.362517e-04 2.607164e-05 -3.291665e-04)) ((-1.102909e-08 -9.378293e-08 -1.121491e-10) (1.168187e-06 2.332995e-05 3.843516e-07))
20.189143     	((-3.007613e-03 8.180652e-04 -3.112854e-03) (-6.356938e-04 2.863407e-05 -3.286638e-04)) ((-1.205907e-08 -9.378089e-08 -1.187776e-10) (1.275330e-06 2.332141e-05 4.088730e-07))
20.468171     	((-3.011349e-03 8.924253e-04 -3.088106e-03) (-6.351932e-04 3.144967e-05 -3.281844e-04)) ((-1.318143e-08 -9.377344e-08 -1.169606e-10) (1.392733e-06 2.331436e-05 4.343454e-07))
20.747104     	((-3.018455e-03 9.727641e-04 -3.065901e-03) (-6.347692e-04 3.453701e-05 -3.277017e-04)) ((-1.439630e-08 -9.382769e-08 -1.140519e-10) (1.521247e-06 2.330987e-05 4.609884e-07))
21.025954     	((-3.028474e-03 1.061034e-03 -3.045045e-03) (-6.344599e-04 3.792693e-05 -3.272085e-04)) ((-1.571228e-08 -9.390801e-08 -1.092029e-10) (1.662103e-06 2.330913e-05 4.886083e-07))
21.304733     	((-3.041766e-03 1.155881e-03 -3.026929e-03) (-6.343100e-04 4.164598e-05 -3.267101e-04)) ((-1.710121e-08 -9.400327e-08 -8.737340e-11) (1.816314e-06 2.331324e-05 5.165898e-07))
21.583447     	((-3.058868e-03 1.258703e-03 -3.011066e-03) (-6.343480e-04 4.571758e-05 -3.261929e-04)) ((-1.858822e-08 -9.411452e-08 -5.546437e-11) (1.984458e-06 2.332348e-05 5.452218e-07))
21.862099     	((-3.079769e-03 1.369723e-03 -2.997646e-03) (-6.345770e-04 5.017279e-05 -3.256330e-04)) ((-2.016496e-08 -9.423228e-08 -1.721792e-11) (2.167350e-06 2.334096e-05 5.746930e-07))
22.140684     	((-3.105509e-03 1.491785e-03 -2.986834e-03) (-6.350136e-04 5.505179e-05 -3.250130e-04)) ((-2.189403e-08 -9.437592e-08 3.597832e-11) (2.367316e-06 2.336685e-05 6.045808e-07))
22.419213     	((-3.136645e-03 1.624018e-03 -2.980066e-03) (-6.356773e-04 6.037715e-05 -3.243316e-04)) ((-2.371489e-08 -9.454794e-08 9.058635e-11) (2.585640e-06 2.340212e-05 6.353633e-07))
22.697704     	((-3.173308e-03 1.765079e-03 -2.977461e-03) (-6.366012e-04 6.615797e-05 -3.236007e-04)) ((-2.560797e-08 -9.474324e-08 1.396022e-10) (2.822518e-06 2.344801e-05 6.670308e-07))
22.976172     	((-3.219118e-03 1.916952e-03 -2.982421e-03) (-6.379195e-04 7.242554e-05 -3.228417e-04)) ((-2.761746e-08 -9.499470e-08 1.778474e-10) (3.079073e-06 2.350710e-05 6.996415e-07))
23.254617     	((-3.270809e-03 2.079795e-03 -2.992136e-03) (-6.396643e-04 7.920614e-05 -3.220371e-04)) ((-2.976260e-08 -9.520090e-08 2.116828e-10) (3.355991e-06 2.358154e-05 7.349726e-07))
23.532998     	((-3.330448e-03 2.253366e-03 -3.007626e-03) (-6.417991e-04 8.650390e-05 -3.211821e-04)) ((-3.205640e-08 -9.540744e-08 2.432336e-10) (3.654274e-06 2.367279e-05 7.736800e-07))
23.811253     	((-3.401083e-03 2.433761e-03 -3.031423e-03) (-6.443620e-04 9.431763e-05 -3.202923e-04)) ((-3.431002e-08 -9.570563e-08 2.742209e-10) (3.973075e-06 2.378233e-05 8.151424e-07))
24.089405     	((-3.481482e-03 2.619175e-03 -3.063919e-03) (-6.473771e-04 1.026085e-04 -3.193759e-04)) ((-3.646841e-08 -9.615007e-08 3.010286e-10) (4.310017e-06 2.391173e-05 8.604713e-07))
24.367501     	((-3.575585e-03 2.808075e-03 -3.108552e-03) (-6.508886e-04 1.113075e-04 -3.184163e-04)) ((-3.855372e-08 -9.675407e-08 3.280093e-10) (4.662445e-06 2.406416e-05 9.103008e-07))
24.645572     	((-3.682752e-03 3.002977e-03 -3.164555e-03) (-6.549423e-04 1.204070e-04 -3.174206e-04)) ((-4.063005e-08 -9.751310e-08 3.415198e-10) (5.028963e-06 2.424198e-05 9.655011e-07))
24.923635     	((-3.803031e-03 3.200158e-03 -3.232825e-03) (-6.596121e-04 1.298982e-04 -3.163959e-04)) ((-4.269277e-08 -9.854578e-08 3.878007e-10) (5.409051e-06 2.444708e-05 1.024561e-06))
25.2017       	((-3.935331e-03 3.398255e-03 -3.313153e-03) (-6.650183e-04 1.397752e-04 -3.153431e-04)) ((-4.481344e-08 -9.980279e-08 4.326570e-10) (5.802983e-06 2.468113e-05 1.080231e-06))
25.479787     	((-4.081099e-03 3.590796e-03 -3.406097e-03) (-6.712910e-04 1.499617e-04 -3.142355e-04)) ((-4.665119e-08 -1.013870e-07 4.877872e-10) (6.209129e-06 2.494683e-05 1.128455e-06))
25.757927     	((-4.237795e-03 3.766504e-03 -3.514503e-03) (-6.784533e-04 1.602631e-04 -3.130339e-04)) ((-4.798322e-08 -1.032471e-07 5.427275e-10) (6.618826e-06 2.524523e-05 1.172331e-06))
26.036198     	((-4.406193e-03 3.928284e-03 -3.638969e-03) (-6.864716e-04 1.705322e-04 -3.116759e-04)) ((-4.890808e-08 -1.054427e-07 5.886778e-10) (7.024735e-06 2.557685e-05 1.212018e-06))
26.314652     	((-4.576991e-03 4.065233e-03 -3.778497e-03) (-6.953197e-04 1.806081e-04 -3.101810e-04)) ((-4.926555e-08 -1.075770e-07 6.212506e-10) (7.419250e-06 2.593877e-05 1.240870e-06))
26.593304     	((-4.743567e-03 4.169150e-03 -3.929733e-03) (-7.048216e-04 1.902794e-04 -3.085936e-04)) ((-4.898748e-08 -1.097159e-07 6.515822e-10) (7.792860e-06 2.632346e-05 1.253885e-06))
26.872145     	((-4.898965e-03 4.229701e-03 -4.090820e-03) (-7.146675e-04 1.992122e-04 -3.068436e-04)) ((-4.791092e-08 -1.118035e-07 7.127504e-10) (8.132663e-06 2.672278e-05 1.251498e-06))
27.151201     	((-5.033016e-03 4.243390e-03 -4.259560e-03) (-7.244496e-04 2.071244e-04 -3.049419e-04)) ((-4.603782e-08 -1.135059e-07 8.114871e-10) (8.426686e-06 2.712399e-05 1.233527e-06))
27.430505     	((-5.133775e-03 4.203191e-03 -4.430332e-03) (-7.336958e-04 2.137177e-04 -3.030690e-04)) ((-4.347660e-08 -1.146716e-07 9.292475e-10) (8.666381e-06 2.750768e-05 1.195749e-06))
27.710094     	((-5.197903e-03 4.096992e-03 -4.601619e-03) (-7.421962e-04 2.185510e-04 -3.012908e-04)) ((-4.004082e-08 -1.155689e-07 1.021129e-09) (8.837214e-06 2.786155e-05 1.135359e-06))
27.990081     	((-5.212041e-03 3.918669e-03 -4.770729e-03) (-7.497149e-04 2.212590e-04 -2.995778e-04)) ((-3.588579e-08 -1.159093e-07 1.110043e-09) (8.919015e-06 2.817516e-05 1.043053e-06))
28.270592     	((-5.168793e-03 3.649597e-03 -4.935468e-03) (-7.558902e-04 2.212330e-04 -2.979540e-04)) ((-3.084591e-08 -1.154727e-07 1.299970e-09) (8.887860e-06 2.843403e-05 9.197517e-07))
28.551748     	((-5.064694e-03 3.283191e-03 -5.094309e-03) (-7.602612e-04 2.174749e-04 -2.963525e-04)) ((-2.460595e-08 -1.142214e-07 1.784704e-09) (8.709571e-06 2.862695e-05 7.831301e-07))
