# Forces      
# CofR        : (0.000000e+00 0.000000e+00 0.000000e+00)
# Time        forces(pressure viscous)	moments(pressure viscous)
0             	((0.000000e+00 0.000000e+00 0.000000e+00) (-3.719903e-12 -1.262227e-02 8.416433e-13)) ((0.000000e+00 0.000000e+00 0.000000e+00) (-2.836082e-04 -3.161132e-14 5.442563e-09))
0.012         	((2.272998e-04 -3.730592e+00 5.566255e-01) (6.406536e-07 -2.062157e-02 -1.637345e-03)) ((4.341331e-05 3.038454e-06 6.939328e-07) (-6.468523e-04 2.385695e-08 -5.830788e-08))
0.0264        	((4.466120e-05 1.348412e+00 -6.368226e-01) (1.737828e-06 -1.995952e-02 -2.416696e-03)) ((-1.596244e-05 -7.245109e-07 -1.718914e-07) (-6.969484e-04 3.800989e-09 -8.527216e-08))
0.04368       	((-3.070367e-04 -4.021703e-03 -3.348423e-01) (-9.441458e-07 -1.627383e-02 -2.144912e-03)) ((-2.309903e-06 8.209438e-08 -1.224811e-07) (-5.783902e-04 -6.205482e-09 -1.080218e-07))
0.064416      	((-2.094808e-04 5.035165e-02 -3.230544e-01) (-8.433261e-06 -1.447925e-02 -2.109469e-03)) ((-8.485281e-07 1.441113e-07 3.435882e-08) (-5.195052e-04 2.371713e-08 -1.703723e-07))
0.0892992     	((-1.799097e-04 -3.114715e-02 -2.845832e-01) (-5.121768e-06 -1.333777e-02 -2.052035e-03)) ((-4.380966e-07 2.005649e-07 1.312357e-08) (-4.780737e-04 3.501559e-08 -2.535148e-07))
0.119159      	((2.643829e-06 -6.750192e-03 -2.865297e-01) (-2.370469e-06 -1.261387e-02 -1.999538e-03)) ((-3.965603e-07 2.215518e-07 5.027766e-08) (-4.531417e-04 2.843080e-08 -3.211104e-07))
0.154991      	((-9.899924e-05 -1.698770e-02 -2.757248e-01) (-6.564180e-06 -1.210258e-02 -2.060565e-03)) ((-2.054971e-07 1.925437e-07 2.281900e-08) (-4.347920e-04 2.655996e-08 -3.232059e-07))
0.197399      	((-1.616692e-04 -1.466686e-02 -2.782369e-01) (-8.951888e-06 -1.171280e-02 -2.196282e-03)) ((-3.317170e-08 1.918201e-07 7.128309e-08) (-4.201117e-04 4.176798e-08 -3.082113e-07))
0.246367      	((-4.625892e-05 -1.829557e-02 -2.735195e-01) (-8.669068e-06 -1.140660e-02 -2.337295e-03)) ((1.624753e-07 2.046448e-07 6.312291e-08) (-4.078204e-04 3.603683e-08 -3.315302e-07))
0.301894      	((-5.909900e-05 -1.996872e-02 -2.738105e-01) (-7.952761e-06 -1.116689e-02 -2.486000e-03)) ((3.566692e-07 2.025676e-07 9.148798e-08) (-3.979331e-04 2.732727e-08 -3.439981e-07))
0.363986      	((1.711460e-05 -2.330923e-02 -2.710701e-01) (-6.305934e-06 -1.098842e-02 -2.627745e-03)) ((5.464749e-07 2.286942e-07 1.080120e-07) (-3.903355e-04 9.589882e-09 -3.399491e-07))
0.429611      	((6.154158e-05 -2.604803e-02 -2.700526e-01) (-4.699931e-06 -1.086171e-02 -2.756607e-03)) ((7.246300e-07 2.486294e-07 1.320769e-07) (-3.845696e-04 -1.433698e-08 -3.706089e-07))
0.494853      	((1.344889e-04 -2.924545e-02 -2.674567e-01) (-3.446444e-06 -1.076864e-02 -2.858567e-03)) ((8.602139e-07 2.667799e-07 1.533233e-07) (-3.799231e-04 -4.048072e-08 -3.973679e-07))
0.559655      	((1.752798e-04 -3.204236e-02 -2.651368e-01) (-2.602565e-06 -1.068630e-02 -2.935064e-03)) ((9.969184e-07 2.825709e-07 1.766039e-07) (-3.755805e-04 -6.106271e-08 -4.304882e-07))
0.624117      	((2.244964e-04 -3.467353e-02 -2.619572e-01) (-2.109049e-06 -1.059718e-02 -2.990616e-03)) ((1.129670e-06 2.862675e-07 1.974586e-07) (-3.711373e-04 -7.277822e-08 -4.569057e-07))
0.688453      	((2.785195e-04 -3.679503e-02 -2.588094e-01) (-1.577859e-06 -1.049648e-02 -3.031225e-03)) ((1.257553e-06 2.909041e-07 2.170855e-07) (-3.666641e-04 -8.208515e-08 -4.791071e-07))
0.752884      	((3.347618e-04 -3.826197e-02 -2.553176e-01) (-1.113321e-06 -1.039243e-02 -3.061621e-03)) ((1.364989e-06 2.932867e-07 2.338063e-07) (-3.624777e-04 -9.133308e-08 -5.030726e-07))
0.817504      	((4.040619e-04 -3.918669e-02 -2.520631e-01) (-2.561863e-07 -1.029384e-02 -3.085650e-03)) ((1.448111e-06 2.928666e-07 2.502862e-07) (-3.587458e-04 -1.010833e-07 -5.274894e-07))
0.882275      	((4.929719e-04 -3.960519e-02 -2.489564e-01) (1.009645e-06 -1.020395e-02 -3.105202e-03)) ((1.503286e-06 2.937229e-07 2.624622e-07) (-3.554381e-04 -1.144708e-07 -5.573013e-07))
0.947119      	((5.985673e-04 -3.953487e-02 -2.459639e-01) (2.223737e-06 -1.012149e-02 -3.121015e-03)) ((1.544256e-06 2.943810e-07 2.730910e-07) (-3.524572e-04 -1.293477e-07 -6.073864e-07))
1.012003      	((7.058866e-04 -3.917097e-02 -2.430643e-01) (3.000367e-06 -1.004589e-02 -3.133240e-03)) ((1.565777e-06 2.963919e-07 2.815404e-07) (-3.497965e-04 -1.447290e-07 -6.801647e-07))
1.076939      	((8.458284e-04 -3.873414e-02 -2.403840e-01) (3.577443e-06 -9.976507e-03 -3.141743e-03)) ((1.565935e-06 2.965242e-07 2.871947e-07) (-3.474532e-04 -1.640499e-07 -7.666060e-07))
1.141944      	((1.003096e-03 -3.833652e-02 -2.379982e-01) (4.240034e-06 -9.912868e-03 -3.149174e-03)) ((1.548511e-06 2.967057e-07 2.898393e-07) (-3.453225e-04 -1.934994e-07 -8.663891e-07))
1.207015      	((1.189182e-03 -3.801253e-02 -2.358944e-01) (4.861748e-06 -9.854829e-03 -3.157261e-03)) ((1.529888e-06 2.978312e-07 2.906514e-07) (-3.433220e-04 -2.378561e-07 -9.837268e-07))
1.272139      	((1.413494e-03 -3.777525e-02 -2.339528e-01) (5.459432e-06 -9.801932e-03 -3.165128e-03)) ((1.522810e-06 3.026424e-07 2.907642e-07) (-3.414744e-04 -2.946964e-07 -1.113039e-06))
1.33731       	((1.643779e-03 -3.749628e-02 -2.320552e-01) (6.166015e-06 -9.753486e-03 -3.171802e-03)) ((1.521887e-06 3.083488e-07 2.909178e-07) (-3.398126e-04 -3.620207e-07 -1.251961e-06))
1.402526      	((1.911140e-03 -3.726495e-02 -2.302922e-01) (7.306326e-06 -9.708707e-03 -3.177687e-03)) ((1.525419e-06 3.143611e-07 2.921389e-07) (-3.383033e-04 -4.439187e-07 -1.399098e-06))
1.467784      	((2.230521e-03 -3.706964e-02 -2.286266e-01) (8.927661e-06 -9.667233e-03 -3.183503e-03)) ((1.527761e-06 3.202798e-07 2.940778e-07) (-3.369017e-04 -5.398931e-07 -1.553626e-06))
1.533081      	((2.572807e-03 -3.688582e-02 -2.270747e-01) (1.079356e-05 -9.628816e-03 -3.189287e-03)) ((1.529784e-06 3.249884e-07 2.964978e-07) (-3.355873e-04 -6.468400e-07 -1.715805e-06))
1.598412      	((2.959558e-03 -3.671465e-02 -2.256097e-01) (1.295078e-05 -9.593472e-03 -3.194162e-03)) ((1.530853e-06 3.301472e-07 2.988344e-07) (-3.343909e-04 -7.675465e-07 -1.886238e-06))
1.663773      	((3.378390e-03 -3.656846e-02 -2.242467e-01) (1.543927e-05 -9.561443e-03 -3.197489e-03)) ((1.531070e-06 3.369305e-07 3.010550e-07) (-3.333482e-04 -9.068874e-07 -2.066950e-06))
1.729161      	((3.843103e-03 -3.643921e-02 -2.229892e-01) (1.817403e-05 -9.532790e-03 -3.199044e-03)) ((1.530513e-06 3.440944e-07 3.026218e-07) (-3.324653e-04 -1.065058e-06 -2.264231e-06))
1.794573      	((4.374954e-03 -3.627448e-02 -2.217987e-01) (2.140462e-05 -9.507058e-03 -3.199115e-03)) ((1.527670e-06 3.517045e-07 3.041682e-07) (-3.317199e-04 -1.244698e-06 -2.472643e-06))
1.860007      	((5.026816e-03 -3.605859e-02 -2.206536e-01) (2.556999e-05 -9.483721e-03 -3.198341e-03)) ((1.521471e-06 3.617162e-07 3.055199e-07) (-3.310780e-04 -1.457493e-06 -2.687162e-06))
1.925458      	((5.758780e-03 -3.585530e-02 -2.196185e-01) (3.081819e-05 -9.462622e-03 -3.197262e-03)) ((1.513406e-06 3.731224e-07 3.067434e-07) (-3.305160e-04 -1.710365e-06 -2.908742e-06))
1.990922      	((6.569029e-03 -3.564986e-02 -2.186751e-01) (3.679026e-05 -9.443642e-03 -3.196383e-03)) ((1.502669e-06 3.863088e-07 3.076681e-07) (-3.300146e-04 -2.002503e-06 -3.156541e-06))
2.056396      	((7.492369e-03 -3.545279e-02 -2.178443e-01) (4.328354e-05 -9.426500e-03 -3.196308e-03)) ((1.490068e-06 4.012701e-07 3.086967e-07) (-3.295478e-04 -2.338527e-06 -3.448840e-06))
2.121875      	((8.557007e-03 -3.526800e-02 -2.170921e-01) (5.053236e-05 -9.410949e-03 -3.197059e-03)) ((1.477664e-06 4.180422e-07 3.100008e-07) (-3.291100e-04 -2.726649e-06 -3.787275e-06))
2.187354      	((9.771270e-03 -3.512389e-02 -2.164250e-01) (5.874361e-05 -9.396949e-03 -3.198168e-03)) ((1.467956e-06 4.350825e-07 3.118241e-07) (-3.287160e-04 -3.167456e-06 -4.173347e-06))
2.252829      	((1.114163e-02 -3.503199e-02 -2.158375e-01) (6.812850e-05 -9.384517e-03 -3.199270e-03)) ((1.460512e-06 4.529123e-07 3.142093e-07) (-3.283759e-04 -3.661400e-06 -4.612931e-06))
2.318294      	((1.271642e-02 -3.498645e-02 -2.153054e-01) (7.881247e-05 -9.373682e-03 -3.200140e-03)) ((1.453996e-06 4.733839e-07 3.170519e-07) (-3.280962e-04 -4.215813e-06 -5.119788e-06))
2.383743      	((1.450036e-02 -3.500580e-02 -2.148589e-01) (9.100021e-05 -9.364538e-03 -3.200488e-03)) ((1.448263e-06 4.967278e-07 3.201570e-07) (-3.278875e-04 -4.839540e-06 -5.700101e-06))
2.449169      	((1.654755e-02 -3.507752e-02 -2.144695e-01) (1.050444e-04 -9.357075e-03 -3.200178e-03)) ((1.443409e-06 5.245502e-07 3.233198e-07) (-3.277549e-04 -5.548309e-06 -6.365534e-06))
2.514567      	((1.885513e-02 -3.524568e-02 -2.141642e-01) (1.209635e-04 -9.351366e-03 -3.199088e-03)) ((1.440336e-06 5.568524e-07 3.264192e-07) (-3.277044e-04 -6.357388e-06 -7.129445e-06))
2.57993       	((2.144561e-02 -3.551713e-02 -2.139661e-01) (1.388779e-04 -9.347997e-03 -3.196948e-03)) ((1.440146e-06 5.930532e-07 3.292147e-07) (-3.277609e-04 -7.278379e-06 -7.993421e-06))
2.645248      	((2.432658e-02 -3.585540e-02 -2.138631e-01) (1.590403e-04 -9.347529e-03 -3.193624e-03)) ((1.439719e-06 6.338459e-07 3.316995e-07) (-3.279498e-04 -8.318635e-06 -8.958385e-06))
2.710516      	((2.754010e-02 -3.624149e-02 -2.138128e-01) (1.819073e-04 -9.350156e-03 -3.189078e-03)) ((1.438148e-06 6.807460e-07 3.338548e-07) (-3.282846e-04 -9.492643e-06 -1.002181e-05))
2.775725      	((3.103805e-02 -3.676331e-02 -2.138660e-01) (2.080841e-04 -9.356206e-03 -3.183127e-03)) ((1.439280e-06 7.310720e-07 3.374586e-07) (-3.287793e-04 -1.081640e-05 -1.116404e-05))
2.840866      	((3.483120e-02 -3.745802e-02 -2.140394e-01) (2.383279e-04 -9.365957e-03 -3.175320e-03)) ((1.441361e-06 7.868083e-07 3.419855e-07) (-3.294528e-04 -1.229803e-05 -1.236304e-05))
2.905931      	((3.887689e-02 -3.836958e-02 -2.143614e-01) (2.731281e-04 -9.379975e-03 -3.165919e-03)) ((1.445123e-06 8.474243e-07 3.473461e-07) (-3.303165e-04 -1.395269e-05 -1.359872e-05))
2.970912      	((4.321877e-02 -3.952366e-02 -2.148249e-01) (3.122722e-04 -9.398697e-03 -3.154844e-03)) ((1.451246e-06 9.144213e-07 3.516133e-07) (-3.314001e-04 -1.578772e-05 -1.489444e-05))
3.035801      	((4.782113e-02 -4.098073e-02 -2.154341e-01) (3.550837e-04 -9.422473e-03 -3.141748e-03)) ((1.457395e-06 9.842880e-07 3.537151e-07) (-3.327191e-04 -1.779784e-05 -1.630562e-05))
3.100588      	((5.256355e-02 -4.273172e-02 -2.162703e-01) (4.004658e-04 -9.451654e-03 -3.126380e-03)) ((1.461133e-06 1.054120e-06 3.554896e-07) (-3.342803e-04 -1.995385e-05 -1.783210e-05))
3.165268      	((5.736287e-02 -4.479573e-02 -2.172329e-01) (4.479088e-04 -9.487437e-03 -3.108283e-03)) ((1.465814e-06 1.123038e-06 3.601691e-07) (-3.361296e-04 -2.222550e-05 -1.944373e-05))
3.229812      	((6.197842e-02 -4.723754e-02 -2.185073e-01) (4.971050e-04 -9.530663e-03 -3.087583e-03)) ((1.475599e-06 1.182907e-06 3.683415e-07) (-3.382893e-04 -2.457626e-05 -2.110422e-05))
3.294209      	((6.623002e-02 -4.989284e-02 -2.200132e-01) (5.473737e-04 -9.580732e-03 -3.064899e-03)) ((1.488629e-06 1.230817e-06 3.772321e-07) (-3.407311e-04 -2.695517e-05 -2.277041e-05))
3.358456      	((6.989638e-02 -5.271529e-02 -2.217681e-01) (5.977716e-04 -9.636790e-03 -3.040462e-03)) ((1.504694e-06 1.263136e-06 3.855381e-07) (-3.434167e-04 -2.930670e-05 -2.439921e-05))
3.422553      	((7.273024e-02 -5.554952e-02 -2.236865e-01) (6.456062e-04 -9.698579e-03 -3.013980e-03)) ((1.520527e-06 1.276815e-06 3.933764e-07) (-3.463236e-04 -3.152859e-05 -2.596209e-05))
3.486503      	((7.446186e-02 -5.816385e-02 -2.257625e-01) (6.868303e-04 -9.764658e-03 -2.984952e-03)) ((1.536233e-06 1.266678e-06 4.012666e-07) (-3.494083e-04 -3.348617e-05 -2.745687e-05))
3.550312      	((7.502258e-02 -6.028349e-02 -2.277729e-01) (7.180563e-04 -9.833109e-03 -2.953580e-03)) ((1.550892e-06 1.237386e-06 4.081533e-07) (-3.525804e-04 -3.507227e-05 -2.887536e-05))
3.613998      	((7.429803e-02 -6.172632e-02 -2.297105e-01) (7.379480e-04 -9.900263e-03 -2.921298e-03)) ((1.557092e-06 1.186822e-06 4.119962e-07) (-3.556954e-04 -3.620106e-05 -3.013231e-05))
3.67758       	((7.215879e-02 -6.233803e-02 -2.315467e-01) (7.451833e-04 -9.962310e-03 -2.890857e-03)) ((1.554563e-06 1.115949e-06 4.152700e-07) (-3.585526e-04 -3.678063e-05 -3.112111e-05))
3.741078      	((6.875998e-02 -6.220129e-02 -2.332396e-01) (7.375536e-04 -1.001746e-02 -2.863787e-03)) ((1.549970e-06 1.026613e-06 4.195627e-07) (-3.610319e-04 -3.672934e-05 -3.181883e-05))
3.804519      	((6.426728e-02 -6.127854e-02 -2.347170e-01) (7.127163e-04 -1.006428e-02 -2.839366e-03)) ((1.547933e-06 9.145768e-07 4.141439e-07) (-3.631286e-04 -3.597680e-05 -3.228054e-05))
3.867929      	((5.929630e-02 -5.984021e-02 -2.360266e-01) (6.710828e-04 -1.010318e-02 -2.816777e-03)) ((1.547958e-06 7.926372e-07 3.997167e-07) (-3.649093e-04 -3.453672e-05 -3.253131e-05))
3.931336      	((5.432950e-02 -5.823336e-02 -2.373315e-01) (6.162461e-04 -1.013544e-02 -2.796585e-03)) ((1.555636e-06 6.835985e-07 3.851314e-07) (-3.664440e-04 -3.253880e-05 -3.257667e-05))
3.994767      	((4.995698e-02 -5.648826e-02 -2.386309e-01) (5.539539e-04 -1.016270e-02 -2.780003e-03)) ((1.559362e-06 6.064119e-07 3.750626e-07) (-3.677986e-04 -3.020020e-05 -3.238927e-05))
4.058243      	((4.639515e-02 -5.467182e-02 -2.400678e-01) (4.907770e-04 -1.018589e-02 -2.767890e-03)) ((1.549579e-06 5.600649e-07 3.664338e-07) (-3.690170e-04 -2.775508e-05 -3.198156e-05))
4.121781      	((4.417685e-02 -5.284133e-02 -2.414254e-01) (4.345699e-04 -1.020678e-02 -2.762247e-03)) ((1.510839e-06 5.597217e-07 3.608144e-07) (-3.700687e-04 -2.546239e-05 -3.132395e-05))
4.18539       	((4.292256e-02 -5.107369e-02 -2.428422e-01) (3.911036e-04 -1.022567e-02 -2.765964e-03)) ((1.446282e-06 5.899394e-07 3.572666e-07) (-3.708268e-04 -2.354973e-05 -3.040925e-05))
4.249072      	((4.227291e-02 -4.940905e-02 -2.443156e-01) (3.625906e-04 -1.024130e-02 -2.782000e-03)) ((1.359163e-06 6.452570e-07 3.536164e-07) (-3.711155e-04 -2.218028e-05 -2.928016e-05))
4.312824      	((4.199929e-02 -4.769301e-02 -2.456720e-01) (3.491993e-04 -1.025093e-02 -2.811419e-03)) ((1.278275e-06 7.103015e-07 3.417316e-07) (-3.707966e-04 -2.140940e-05 -2.799596e-05))
4.376639      	((4.184470e-02 -4.608644e-02 -2.468746e-01) (3.439585e-04 -1.025144e-02 -2.849564e-03)) ((1.209401e-06 7.785961e-07 3.233566e-07) (-3.699462e-04 -2.107155e-05 -2.685134e-05))
4.440508      	((4.155949e-02 -4.469627e-02 -2.476334e-01) (3.377188e-04 -1.024244e-02 -2.887704e-03)) ((1.148270e-06 8.349222e-07 3.115823e-07) (-3.688341e-04 -2.089013e-05 -2.614408e-05))
4.504419      	((4.117723e-02 -4.386780e-02 -2.479297e-01) (3.289991e-04 -1.022678e-02 -2.918817e-03)) ((1.113868e-06 8.563964e-07 3.132319e-07) (-3.677083e-04 -2.070644e-05 -2.583958e-05))
4.568363      	((4.077424e-02 -4.331906e-02 -2.474462e-01) (3.192148e-04 -1.021006e-02 -2.938569e-03)) ((1.109220e-06 8.482732e-07 3.208559e-07) (-3.667292e-04 -2.042199e-05 -2.573410e-05))
4.632331      	((4.005344e-02 -4.333586e-02 -2.467934e-01) (3.075323e-04 -1.019489e-02 -2.946199e-03)) ((1.136274e-06 8.005459e-07 3.291559e-07) (-3.659751e-04 -1.998759e-05 -2.575837e-05))
4.696315      	((3.909119e-02 -4.361216e-02 -2.460907e-01) (2.926029e-04 -1.018316e-02 -2.943582e-03)) ((1.182878e-06 7.243385e-07 3.351472e-07) (-3.654796e-04 -1.937947e-05 -2.588150e-05))
4.760309      	((3.805467e-02 -4.389455e-02 -2.454105e-01) (2.759191e-04 -1.017374e-02 -2.934382e-03)) ((1.225247e-06 6.497698e-07 3.375330e-07) (-3.651705e-04 -1.863404e-05 -2.605546e-05))
4.824312      	((3.682321e-02 -4.425890e-02 -2.447915e-01) (2.566000e-04 -1.016715e-02 -2.921366e-03)) ((1.282022e-06 5.594129e-07 3.344217e-07) (-3.650039e-04 -1.776556e-05 -2.624251e-05))
4.888324      	((3.557383e-02 -4.475227e-02 -2.444249e-01) (2.296549e-04 -1.016211e-02 -2.905762e-03)) ((1.361121e-06 4.593432e-07 3.188883e-07) (-3.650105e-04 -1.677330e-05 -2.666619e-05))
4.952346      	((3.425284e-02 -4.485717e-02 -2.442400e-01) (1.973673e-04 -1.015557e-02 -2.888556e-03)) ((1.425157e-06 3.926513e-07 2.990576e-07) (-3.651905e-04 -1.566615e-05 -2.732707e-05))
5.016382      	((3.326888e-02 -4.462999e-02 -2.441849e-01) (1.649529e-04 -1.014893e-02 -2.873143e-03)) ((1.473448e-06 3.766771e-07 2.822563e-07) (-3.654597e-04 -1.457881e-05 -2.795309e-05))
5.080436      	((3.260691e-02 -4.410408e-02 -2.444285e-01) (1.419087e-04 -1.014635e-02 -2.862655e-03)) ((1.503033e-06 3.946206e-07 2.802748e-07) (-3.657700e-04 -1.369834e-05 -2.808420e-05))
5.144515      	((3.231566e-02 -4.299118e-02 -2.446967e-01) (1.305722e-04 -1.014693e-02 -2.859997e-03)) ((1.476094e-06 4.652477e-07 2.949255e-07) (-3.659875e-04 -1.312605e-05 -2.765450e-05))
5.208622      	((3.228941e-02 -4.193581e-02 -2.450534e-01) (1.286958e-04 -1.014774e-02 -2.866792e-03)) ((1.410695e-06 5.701720e-07 3.164697e-07) (-3.659793e-04 -1.289975e-05 -2.686641e-05))
5.272759      	((3.235281e-02 -4.101455e-02 -2.454730e-01) (1.324056e-04 -1.014741e-02 -2.883139e-03)) ((1.330070e-06 6.746933e-07 3.255614e-07) (-3.656595e-04 -1.297549e-05 -2.594183e-05))
5.336927      	((3.270061e-02 -4.040522e-02 -2.458339e-01) (1.389515e-04 -1.014543e-02 -2.905962e-03)) ((1.254280e-06 7.632597e-07 3.252994e-07) (-3.650697e-04 -1.325852e-05 -2.507168e-05))
5.401123      	((3.330570e-02 -4.003459e-02 -2.458015e-01) (1.460597e-04 -1.014062e-02 -2.928613e-03)) ((1.200652e-06 8.225982e-07 3.252839e-07) (-3.643886e-04 -1.359848e-05 -2.443386e-05))
5.465343      	((3.422318e-02 -4.014187e-02 -2.457023e-01) (1.534990e-04 -1.013360e-02 -2.945045e-03)) ((1.188064e-06 8.491149e-07 3.275756e-07) (-3.638434e-04 -1.390687e-05 -2.408249e-05))
5.52958       	((3.551273e-02 -4.044749e-02 -2.452674e-01) (1.622917e-04 -1.012561e-02 -2.953137e-03)) ((1.205545e-06 8.576267e-07 3.285402e-07) (-3.635438e-04 -1.418829e-05 -2.398232e-05))
5.593827      	((3.727898e-02 -4.093610e-02 -2.447323e-01) (1.737064e-04 -1.011805e-02 -2.954074e-03)) ((1.231243e-06 8.626402e-07 3.295999e-07) (-3.634837e-04 -1.450087e-05 -2.408485e-05))
5.658075      	((3.925576e-02 -4.163127e-02 -2.443680e-01) (1.883239e-04 -1.011250e-02 -2.951170e-03)) ((1.246695e-06 8.690971e-07 3.311124e-07) (-3.635887e-04 -1.490325e-05 -2.434364e-05))
5.722314      	((4.123314e-02 -4.241639e-02 -2.442409e-01) (2.052867e-04 -1.010998e-02 -2.947217e-03)) ((1.252453e-06 8.776253e-07 3.316150e-07) (-3.637891e-04 -1.540700e-05 -2.471174e-05))
