# Forces      
# CofR        : (0.000000e+00 0.000000e+00 0.000000e+00)
# Time        forces(pressure viscous)	moments(pressure viscous)
0             	((0.000000e+00 0.000000e+00 0.000000e+00) (0.000000e+00 0.000000e+00 0.000000e+00)) ((0.000000e+00 0.000000e+00 0.000000e+00) (0.000000e+00 0.000000e+00 0.000000e+00))
0.012         	((-5.634604e-08 2.051186e-12 -1.917412e-08) (-1.322140e-07 2.567770e-16 -1.198270e-11)) ((-8.688319e-16 8.528645e-12 -6.921989e-16) (-1.442641e-16 8.798389e-09 -5.728589e-17))
0.0264        	((-7.770802e-08 4.544483e-11 -2.510346e-08) (-1.211097e-07 1.383011e-14 -7.268453e-12)) ((-4.488516e-16 -4.389054e-12 -1.720147e-16) (-5.189129e-16 8.068093e-09 3.914700e-16))
0.04368       	((-5.172395e-08 -2.745614e-11 -1.718288e-08) (-1.096502e-07 -1.038140e-14 2.826584e-14)) ((-9.990844e-16 -3.175750e-12 -5.101602e-16) (-1.352604e-15 7.316751e-09 1.461177e-15))
0.064416      	((-5.920209e-08 3.232442e-11 -1.918372e-08) (-9.808781e-08 -2.443547e-14 5.038639e-12)) ((-4.955944e-16 -6.110500e-12 9.719309e-17) (-2.591388e-15 6.561248e-09 1.727320e-15))
0.0892992     	((-4.334327e-08 -1.411367e-11 -1.438251e-08) (-8.675114e-08 -2.928806e-14 5.764495e-12)) ((-3.058411e-16 -4.362550e-12 -3.386439e-16) (-4.165004e-15 5.823166e-09 9.202407e-16))
0.119159      	((-4.473235e-08 1.594273e-11 -1.427539e-08) (-7.600285e-08 -9.293952e-15 4.317190e-12)) ((-4.016426e-16 -5.296692e-12 -1.461782e-17) (-3.764202e-15 5.126639e-09 -1.806244e-16))
0.154991      	((-3.359105e-08 -8.064578e-12 -1.126608e-08) (-6.618020e-08 2.511966e-15 3.868330e-12)) ((1.154132e-16 -3.702856e-12 -2.321658e-17) (-3.774913e-15 4.486357e-09 -2.010117e-15))
0.197989      	((-3.324059e-08 5.984979e-12 -1.050808e-08) (-5.748698e-08 7.487055e-15 3.145978e-12)) ((2.010884e-16 -4.165359e-12 2.976354e-17) (-3.605387e-15 3.919158e-09 -3.651159e-15))
0.249587      	((-2.575639e-08 -3.209974e-12 -8.638167e-09) (-5.007773e-08 1.647559e-14 1.977127e-12)) ((1.263309e-16 -2.979572e-12 -1.113955e-17) (-2.976158e-15 3.432084e-09 -4.466439e-15))
0.311504      	((-2.504746e-08 9.220106e-13 -7.872992e-09) (-4.391867e-08 1.734493e-14 1.115672e-12)) ((3.467433e-16 -3.283080e-12 -3.103083e-17) (-3.352958e-15 3.025448e-09 -4.444408e-15))
0.385805      	((-2.016117e-08 -6.029457e-13 -6.744859e-09) (-3.883087e-08 1.220703e-14 6.136637e-13)) ((8.145290e-17 -2.444344e-12 -4.401228e-17) (-3.136328e-15 2.689176e-09 -4.481895e-15))
0.474966      	((-1.956519e-08 7.514313e-13 -6.150909e-09) (-3.462341e-08 1.575083e-14 -1.305029e-13)) ((3.485202e-16 -2.653621e-12 -3.063090e-17) (-2.714239e-15 2.411550e-09 -5.982675e-15))
0.581959      	((-1.628721e-08 1.299929e-13 -5.429511e-09) (-3.108249e-08 2.639727e-14 -7.836387e-13)) ((5.483370e-17 -2.046882e-12 3.848581e-17) (1.944598e-16 2.177715e-09 -4.658437e-15))
0.710351      	((-1.578945e-08 -5.122898e-13 -4.959933e-09) (-2.804137e-08 1.331775e-14 -4.505375e-13)) ((4.739321e-16 -2.202974e-12 5.841146e-17) (1.471277e-15 1.977584e-09 -1.020289e-16))
0.864421      	((-1.344678e-08 8.337599e-13 -4.466111e-09) (-2.536763e-08 2.936747e-15 -1.158458e-12)) ((2.421492e-16 -1.775626e-12 7.045926e-17) (1.593567e-15 1.801778e-09 3.995672e-16))
1.049306      	((-1.293781e-08 1.510954e-13 -4.065683e-09) (-2.298651e-08 -3.451836e-15 -1.255214e-12)) ((5.796039e-16 -1.896537e-12 6.651550e-17) (-4.518891e-15 1.645979e-09 -2.853339e-15))
1.271167      	((-1.112653e-08 8.595876e-13 -3.675085e-09) (-2.083709e-08 1.815236e-14 -1.936881e-12)) ((4.086416e-16 -1.599926e-12 2.501613e-16) (-1.053208e-14 1.505501e-09 -6.932550e-15))
1.5374        	((-1.057747e-08 1.000175e-12 -3.336390e-09) (-1.889730e-08 3.153057e-14 -2.558414e-12)) ((7.235469e-16 -1.664808e-12 3.679681e-16) (-1.618360e-14 1.378862e-09 -9.583457e-15))
1.85688       	((-9.163711e-09 9.617000e-13 -3.018875e-09) (-1.714402e-08 6.883755e-14 -3.764920e-12)) ((7.106281e-16 -1.443600e-12 3.422944e-16) (-2.209680e-14 1.264595e-09 -9.592326e-15))
2.240256      	((-8.594836e-09 7.917440e-13 -2.738136e-09) (-1.556980e-08 7.990207e-14 -4.065236e-12)) ((9.423344e-16 -1.464972e-12 2.938338e-16) (-3.170267e-14 1.161933e-09 -7.700522e-15))
2.700307      	((-7.534412e-09 6.218569e-13 -2.492704e-09) (-1.417567e-08 4.901299e-14 -3.924139e-12)) ((8.020390e-16 -1.307617e-12 3.298902e-16) (-4.886831e-14 1.071124e-09 5.733067e-16))
3.252369      	((-7.017423e-09 1.528319e-12 -2.269525e-09) (-1.294399e-08 2.519028e-14 -3.527931e-12)) ((9.269827e-16 -1.312098e-12 3.135479e-16) (-6.701890e-14 9.907821e-10 2.097001e-14))
3.914842      	((-6.254776e-09 -1.670275e-13 -2.076399e-09) (-1.186230e-08 -4.759475e-14 -2.782058e-12)) ((7.539093e-16 -1.221463e-12 3.763297e-16) (-8.328600e-14 9.204478e-10 4.774499e-14))
4.709811      	((-5.790257e-09 -4.361876e-14 -1.900953e-09) (-1.091065e-08 -4.908388e-14 -2.699852e-12)) ((6.268299e-16 -1.212476e-12 5.189585e-16) (-9.136397e-14 8.586825e-10 6.920777e-14))
5.663773      	((-5.235851e-09 -1.103252e-13 -1.750050e-09) (-1.006570e-08 7.552320e-15 -3.651966e-12)) ((3.860133e-16 -1.153582e-12 5.978904e-16) (-8.856873e-14 8.039714e-10 8.214683e-14))
6.808528      	((-4.829026e-09 1.346615e-12 -1.608331e-09) (-9.307474e-09 1.236821e-13 -4.869289e-12)) ((6.293834e-16 -1.129606e-12 6.363824e-16) (-8.242674e-14 7.550106e-10 8.459676e-14))
8.182233      	((-4.401058e-09 1.418271e-12 -1.485888e-09) (-8.619873e-09 2.252728e-13 -6.406473e-12)) ((5.004877e-16 -1.091408e-12 5.944949e-16) (-8.025644e-14 7.108609e-10 8.198234e-14))
9.83068       	((-4.034838e-09 1.513855e-12 -1.369373e-09) (-7.990743e-09 2.819141e-13 -7.597830e-12)) ((6.126453e-16 -1.064917e-12 5.449457e-16) (-7.887011e-14 6.706913e-10 7.856448e-14))
11.808816     	((-3.690713e-09 1.004775e-12 -1.268376e-09) (-7.413667e-09 2.951073e-13 -7.875958e-12)) ((3.705601e-16 -1.037140e-12 4.794698e-16) (-7.163950e-14 6.340803e-10 7.004585e-14))
14.182579     	((-3.388316e-09 9.859293e-13 -1.173625e-09) (-6.883675e-09 3.716815e-13 -7.648144e-12)) ((3.748591e-16 -1.010634e-12 4.142867e-16) (-5.928130e-14 6.006341e-10 5.925764e-14))
17.031095     	((-3.106602e-09 1.034979e-12 -1.086430e-09) (-6.396402e-09 4.536235e-13 -7.113790e-12)) ((2.620732e-16 -9.892180e-13 3.624476e-16) (-4.783739e-14 5.701620e-10 4.668062e-14))
20.449314     	((-2.853947e-09 1.151073e-12 -1.004415e-09) (-5.949633e-09 5.238574e-13 -7.113086e-12)) ((2.919620e-16 -9.676212e-13 2.932655e-16) (-3.647318e-14 5.424435e-10 3.064803e-14))
24.551176     	((-2.617941e-09 7.969747e-13 -9.289792e-10) (-5.540500e-09 5.679065e-13 -6.934838e-12)) ((2.465330e-16 -9.521864e-13 2.254456e-16) (-2.729338e-14 5.172431e-10 1.681478e-14))
29.473411     	((-2.404998e-09 6.422403e-13 -8.607699e-10) (-5.166535e-09 5.741566e-13 -6.725747e-12)) ((2.654699e-16 -9.370551e-13 1.806544e-16) (-2.104713e-14 4.943640e-10 6.062832e-15))
35.380094     	((-2.207862e-09 6.110576e-13 -8.001405e-10) (-4.825154e-09 5.828321e-13 -6.658192e-12)) ((2.548077e-16 -9.252663e-13 1.537412e-16) (-1.799879e-14 4.735945e-10 -9.625699e-16))
42.468112     	((-2.030484e-09 6.076152e-13 -7.466970e-10) (-4.513124e-09 5.840832e-13 -6.828659e-12)) ((2.647316e-16 -9.139854e-13 1.194063e-16) (-1.749989e-14 4.546957e-10 -3.586940e-15))
50.973735     	((-1.866105e-09 6.627624e-13 -6.995681e-10) (-4.227812e-09 5.821341e-13 -7.118585e-12)) ((2.473736e-16 -9.046183e-13 8.812333e-17) (-1.745075e-14 4.374984e-10 -4.813318e-15))
61.180482     	((-1.717105e-09 5.997452e-13 -6.551782e-10) (-3.967344e-09 5.669236e-13 -7.338862e-12)) ((2.368415e-16 -8.960283e-13 5.494131e-17) (-1.789671e-14 4.218745e-10 -3.784028e-15))
73.428578     	((-1.580994e-09 2.871046e-13 -6.170377e-10) (-3.729848e-09 4.931130e-13 -7.193053e-12)) ((2.575561e-16 -8.889001e-13 5.534564e-17) (-1.932531e-14 4.077367e-10 -3.806513e-15))
88.126294     	((-1.457359e-09 1.774651e-13 -5.821295e-10) (-3.513829e-09 4.280380e-13 -6.814925e-12)) ((2.234721e-16 -8.826365e-13 6.530545e-17) (-2.122184e-14 3.949766e-10 -2.553017e-15))
105.763553    	((-1.349673e-09 7.395161e-14 -5.516304e-10) (-3.318032e-09 3.395306e-13 -6.400742e-12)) ((1.923007e-16 -8.775356e-13 7.903613e-17) (-2.411310e-14 3.835042e-10 -2.839897e-15))
126.928263    	((-1.251905e-09 -7.266269e-14 -5.235304e-10) (-3.140950e-09 2.935273e-13 -6.072128e-12)) ((1.892516e-16 -8.732047e-13 9.255177e-17) (-2.627197e-14 3.732189e-10 -1.758386e-15))
152.325916    	((-1.165230e-09 -2.010824e-13 -4.950836e-10) (-2.980867e-09 2.671069e-13 -5.807364e-12)) ((1.797822e-16 -8.696605e-13 1.004190e-16) (-2.757963e-14 3.640003e-10 -1.024139e-16))
182.803099    	((-1.088301e-09 -2.310568e-13 -4.699898e-10) (-2.836430e-09 2.384325e-13 -5.692592e-12)) ((1.733903e-16 -8.665306e-13 1.005582e-16) (-2.917655e-14 3.557498e-10 1.462068e-15))
219.375719    	((-1.020370e-09 -1.977551e-13 -4.502990e-10) (-2.706223e-09 2.043250e-13 -5.675344e-12)) ((1.773579e-16 -8.640097e-13 9.287157e-17) (-3.051058e-14 3.483742e-10 2.091438e-15))
263.262863    	((-9.597026e-10 -1.717055e-13 -4.334707e-10) (-2.588877e-09 1.812033e-13 -5.803003e-12)) ((1.763318e-16 -8.619946e-13 9.580773e-17) (-2.992477e-14 3.417895e-10 2.100081e-15))
315.927436    	((-9.067007e-10 -1.875347e-13 -4.185289e-10) (-2.483329e-09 1.683388e-13 -5.938915e-12)) ((1.724122e-16 -8.603180e-13 9.540732e-17) (-2.869707e-14 3.359202e-10 2.112602e-15))
379.124923    	((-8.601985e-10 -2.117818e-13 -4.061851e-10) (-2.388714e-09 1.575086e-13 -6.129956e-12)) ((1.692594e-16 -8.589936e-13 9.301408e-17) (-2.716313e-14 3.307091e-10 2.068082e-15))
454.961908    	((-8.204427e-10 -2.473449e-13 -3.964721e-10) (-2.304406e-09 1.473898e-13 -6.384881e-12)) ((1.656822e-16 -8.579778e-13 9.183868e-17) (-2.593194e-14 3.261110e-10 1.694025e-15))
545.966289    	((-7.867362e-10 -2.276275e-13 -3.884401e-10) (-2.229828e-09 1.407182e-13 -6.724660e-12)) ((1.575596e-16 -8.571784e-13 8.913054e-17) (-2.496866e-14 3.220820e-10 1.463981e-15))
655.171547    	((-7.586679e-10 -2.390026e-13 -3.824799e-10) (-2.164514e-09 1.327988e-13 -7.136436e-12)) ((1.489868e-16 -8.565204e-13 9.029011e-17) (-2.412691e-14 3.185861e-10 1.380121e-15))
786.217856    	((-7.354795e-10 -2.514843e-13 -3.780550e-10) (-2.107980e-09 1.218037e-13 -7.570306e-12)) ((1.470863e-16 -8.559349e-13 9.149838e-17) (-2.349584e-14 3.155820e-10 1.017879e-15))
943.473427    	((-7.165058e-10 -2.605243e-13 -3.748698e-10) (-2.059711e-09 1.111118e-13 -7.980709e-12)) ((1.466135e-16 -8.554390e-13 9.044925e-17) (-2.309062e-14 3.130300e-10 2.829160e-16))
1132.180113   	((-7.011268e-10 -2.440879e-13 -3.725451e-10) (-2.019116e-09 1.032845e-13 -8.399915e-12)) ((1.450510e-16 -8.550386e-13 9.045334e-17) (-2.291716e-14 3.108897e-10 -9.128649e-16))
1358.628135   	((-6.887398e-10 -2.251267e-13 -3.706444e-10) (-1.985504e-09 9.855914e-14 -8.823148e-12)) ((1.429868e-16 -8.547149e-13 9.030806e-17) (-2.279777e-14 3.091186e-10 -2.488096e-15))
1630.365763   	((-6.788873e-10 -2.206737e-13 -3.692254e-10) (-1.958130e-09 9.418541e-14 -9.219053e-12)) ((1.409357e-16 -8.544617e-13 8.905838e-17) (-2.271786e-14 3.076734e-10 -4.054846e-15))
1956.450915   	((-6.711880e-10 -2.315440e-13 -3.682349e-10) (-1.936200e-09 9.054179e-14 -9.580278e-12)) ((1.391971e-16 -8.542647e-13 8.954779e-17) (-2.266239e-14 3.065102e-10 -5.555262e-15))
2347.753098   	((-6.652215e-10 -2.275098e-13 -3.675211e-10) (-1.918907e-09 8.691363e-14 -9.899170e-12)) ((1.379828e-16 -8.541101e-13 8.947145e-17) (-2.263269e-14 3.055858e-10 -6.813140e-15))
2817.315718   	((-6.606151e-10 -2.270434e-13 -3.669507e-10) (-1.905465e-09 8.309487e-14 -1.016984e-11)) ((1.380209e-16 -8.539869e-13 8.964952e-17) (-2.262554e-14 3.048595e-10 -7.851536e-15))
3380.790861   	((-6.570797e-10 -2.214919e-13 -3.665356e-10) (-1.895157e-09 7.950490e-14 -1.039495e-11)) ((1.380921e-16 -8.538905e-13 8.947288e-17) (-2.262408e-14 3.042949e-10 -8.646168e-15))
4056.961033   	((-6.543719e-10 -2.164203e-13 -3.662021e-10) (-1.887348e-09 7.637854e-14 -1.057878e-11)) ((1.378001e-16 -8.538110e-13 8.955757e-17) (-2.262193e-14 3.038598e-10 -9.258656e-15))
4868.36524    	((-6.523123e-10 -2.136952e-13 -3.659364e-10) (-1.881496e-09 7.370284e-14 -1.072569e-11)) ((1.375620e-16 -8.537460e-13 8.954196e-17) (-2.261937e-14 3.035271e-10 -9.731392e-15))
5842.050288   	((-6.507509e-10 -2.117889e-13 -3.657112e-10) (-1.877154e-09 7.133476e-14 -1.084095e-11)) ((1.374038e-16 -8.536929e-13 8.970123e-17) (-2.260390e-14 3.032742e-10 -1.007057e-14))
7010.472346   	((-6.495688e-10 -2.120534e-13 -3.655212e-10) (-1.873961e-09 6.928853e-14 -1.092939e-11)) ((1.370810e-16 -8.536496e-13 8.979115e-17) (-2.258948e-14 3.030830e-10 -1.030504e-14))
8412.578815   	((-6.486708e-10 -2.137469e-13 -3.653495e-10) (-1.871631e-09 6.752367e-14 -1.099622e-11)) ((1.366020e-16 -8.536146e-13 8.992833e-17) (-2.257728e-14 3.029389e-10 -1.047247e-14))
10095.106578  	((-6.479915e-10 -2.157543e-13 -3.652145e-10) (-1.869943e-09 6.602635e-14 -1.104598e-11)) ((1.363217e-16 -8.535859e-13 8.998152e-17) (-2.257026e-14 3.028306e-10 -1.059303e-14))
12114.139893  	((-6.474778e-10 -2.172213e-13 -3.650963e-10) (-1.868728e-09 6.481277e-14 -1.108229e-11)) ((1.361234e-16 -8.535623e-13 9.006535e-17) (-2.256961e-14 3.027494e-10 -1.067872e-14))
14536.979872  	((-6.470866e-10 -2.189651e-13 -3.649951e-10) (-1.867859e-09 6.391244e-14 -1.110834e-11)) ((1.359779e-16 -8.535428e-13 9.015652e-17) (-2.256832e-14 3.026885e-10 -1.073842e-14))
17395.351932  	((-6.467910e-10 -2.209873e-13 -3.649088e-10) (-1.867241e-09 6.322248e-14 -1.112672e-11)) ((1.358709e-16 -8.535279e-13 9.025328e-17) (-2.256638e-14 3.026429e-10 -1.078255e-14))
20689.254277  	((-6.465672e-10 -2.232811e-13 -3.648340e-10) (-1.866803e-09 6.267222e-14 -1.113949e-11)) ((1.357958e-16 -8.535168e-13 9.033009e-17) (-2.256535e-14 3.026088e-10 -1.081352e-14))
24418.685568  	((-6.463963e-10 -2.254866e-13 -3.647686e-10) (-1.866496e-09 6.224736e-14 -1.114819e-11)) ((1.357451e-16 -8.535085e-13 9.037931e-17) (-2.256363e-14 3.025833e-10 -1.083346e-14))
28583.644813  	((-6.462651e-10 -2.267899e-13 -3.647171e-10) (-1.866281e-09 6.191849e-14 -1.115398e-11)) ((1.356998e-16 -8.535021e-13 9.041589e-17) (-2.256179e-14 3.025642e-10 -1.084616e-14))
32938.916958  	((-6.461648e-10 -2.279349e-13 -3.646723e-10) (-1.866131e-09 6.166300e-14 -1.115772e-11)) ((1.356743e-16 -8.534993e-13 9.044160e-17) (-2.255970e-14 3.025499e-10 -1.085444e-14))
37294.183891  	((-6.460890e-10 -2.288695e-13 -3.646323e-10) (-1.866028e-09 6.148256e-14 -1.116000e-11)) ((1.356716e-16 -8.534990e-13 9.045570e-17) (-2.255729e-14 3.025391e-10 -1.086109e-14))
41649.447413  	((-6.460310e-10 -2.296297e-13 -3.646010e-10) (-1.865958e-09 6.122946e-14 -1.116133e-11)) ((1.356760e-16 -8.534991e-13 9.042540e-17) (-2.255559e-14 3.025311e-10 -1.086537e-14))
46004.708687  	((-6.459860e-10 -2.301417e-13 -3.645732e-10) (-1.865909e-09 6.113884e-14 -1.116220e-11)) ((1.356533e-16 -8.534993e-13 9.044179e-17) (-2.255313e-14 3.025250e-10 -1.087310e-14))
50359.9684    	((-6.459507e-10 -2.305614e-13 -3.645486e-10) (-1.865877e-09 6.105755e-14 -1.116268e-11)) ((1.356357e-16 -8.534995e-13 9.045083e-17) (-2.255103e-14 3.025204e-10 -1.087812e-14))
54715.227002  	((-6.459229e-10 -2.310510e-13 -3.645241e-10) (-1.865855e-09 6.103959e-14 -1.116285e-11)) ((1.356224e-16 -8.534998e-13 9.045739e-17) (-2.254919e-14 3.025169e-10 -1.088484e-14))
59070.484806  	((-6.459010e-10 -2.310273e-13 -3.645020e-10) (-1.865841e-09 6.099203e-14 -1.116279e-11)) ((1.356212e-16 -8.535000e-13 9.046096e-17) (-2.254749e-14 3.025142e-10 -1.089063e-14))
63425.742034  	((-6.458836e-10 -2.308687e-13 -3.644825e-10) (-1.865831e-09 6.095376e-14 -1.116261e-11)) ((1.356160e-16 -8.535001e-13 9.046884e-17) (-2.254630e-14 3.025121e-10 -1.089345e-14))
67780.998847  	((-6.458695e-10 -2.306451e-13 -3.644652e-10) (-1.865825e-09 6.092669e-14 -1.116235e-11)) ((1.356106e-16 -8.535003e-13 9.047809e-17) (-2.254532e-14 3.025106e-10 -1.089505e-14))
72136.25536   	((-6.458584e-10 -2.304278e-13 -3.644497e-10) (-1.865822e-09 6.090580e-14 -1.116211e-11)) ((1.356077e-16 -8.535004e-13 9.048345e-17) (-2.254447e-14 3.025094e-10 -1.089629e-14))
76491.511659  	((-6.458494e-10 -2.305847e-13 -3.644356e-10) (-1.865820e-09 6.089168e-14 -1.116187e-11)) ((1.356114e-16 -8.535005e-13 9.048804e-17) (-2.254376e-14 3.025084e-10 -1.089735e-14))
80846.767802  	((-6.458418e-10 -2.305805e-13 -3.644231e-10) (-1.865819e-09 6.087339e-14 -1.116164e-11)) ((1.356196e-16 -8.535006e-13 9.048577e-17) (-2.254369e-14 3.025077e-10 -1.089820e-14))
85202.023833  	((-6.458357e-10 -2.301441e-13 -3.644120e-10) (-1.865818e-09 6.086646e-14 -1.116139e-11)) ((1.356197e-16 -8.535007e-13 9.048728e-17) (-2.254326e-14 3.025072e-10 -1.089883e-14))
89557.279784  	((-6.458306e-10 -2.297592e-13 -3.644020e-10) (-1.865818e-09 6.086463e-14 -1.116116e-11)) ((1.356194e-16 -8.535008e-13 9.048810e-17) (-2.254272e-14 3.025068e-10 -1.089934e-14))
93912.535677  	((-6.458263e-10 -2.298302e-13 -3.643927e-10) (-1.865818e-09 6.086227e-14 -1.116094e-11)) ((1.356255e-16 -8.535009e-13 9.048851e-17) (-2.254232e-14 3.025064e-10 -1.089977e-14))
98267.79153   	((-6.458227e-10 -2.297830e-13 -3.643843e-10) (-1.865818e-09 6.086408e-14 -1.116073e-11)) ((1.356322e-16 -8.535010e-13 9.048932e-17) (-2.254200e-14 3.025062e-10 -1.090010e-14))
102623.047354 	((-6.458197e-10 -2.296701e-13 -3.643767e-10) (-1.865818e-09 6.086635e-14 -1.116053e-11)) ((1.356382e-16 -8.535011e-13 9.048909e-17) (-2.254179e-14 3.025060e-10 -1.090047e-14))
106978.303158 	((-6.458171e-10 -2.295188e-13 -3.643699e-10) (-1.865819e-09 6.086885e-14 -1.116036e-11)) ((1.356437e-16 -8.535011e-13 9.048845e-17) (-2.254163e-14 3.025058e-10 -1.090078e-14))
111333.558947 	((-6.458150e-10 -2.293439e-13 -3.643637e-10) (-1.865819e-09 6.087214e-14 -1.116020e-11)) ((1.356489e-16 -8.535012e-13 9.048746e-17) (-2.254151e-14 3.025057e-10 -1.090106e-14))
115688.814726 	((-6.458131e-10 -2.291540e-13 -3.643581e-10) (-1.865819e-09 6.087693e-14 -1.116005e-11)) ((1.356542e-16 -8.535012e-13 9.048599e-17) (-2.254141e-14 3.025056e-10 -1.090134e-14))
120044.070498 	((-6.458117e-10 -2.290025e-13 -3.643533e-10) (-1.865819e-09 6.087182e-14 -1.115993e-11)) ((1.356582e-16 -8.535013e-13 9.048421e-17) (-2.254137e-14 3.025055e-10 -1.090149e-14))
124399.326266 	((-6.458104e-10 -2.288484e-13 -3.643489e-10) (-1.865820e-09 6.087037e-14 -1.115982e-11)) ((1.356623e-16 -8.535013e-13 9.048190e-17) (-2.254135e-14 3.025054e-10 -1.090177e-14))
128754.58203  	((-6.458093e-10 -2.286947e-13 -3.643449e-10) (-1.865820e-09 6.087532e-14 -1.115971e-11)) ((1.356653e-16 -8.535013e-13 9.047825e-17) (-2.254122e-14 3.025054e-10 -1.090230e-14))
133109.837791 	((-6.458083e-10 -2.285166e-13 -3.643413e-10) (-1.865820e-09 6.088265e-14 -1.115963e-11)) ((1.356691e-16 -8.535013e-13 9.047904e-17) (-2.254094e-14 3.025054e-10 -1.090238e-14))
137465.093552 	((-6.458074e-10 -2.283482e-13 -3.643379e-10) (-1.865820e-09 6.088464e-14 -1.115954e-11)) ((1.356739e-16 -8.535014e-13 9.048133e-17) (-2.254083e-14 3.025053e-10 -1.090206e-14))
141820.349311 	((-6.458067e-10 -2.282036e-13 -3.643349e-10) (-1.865820e-09 6.088635e-14 -1.115945e-11)) ((1.356760e-16 -8.535014e-13 9.047257e-17) (-2.254082e-14 3.025053e-10 -1.090314e-14))
146175.60507  	((-6.458060e-10 -2.280407e-13 -3.643321e-10) (-1.865820e-09 6.088526e-14 -1.115937e-11)) ((1.356830e-16 -8.535014e-13 9.047193e-17) (-2.254086e-14 3.025053e-10 -1.090313e-14))
150530.860828 	((-6.458054e-10 -2.279535e-13 -3.643296e-10) (-1.865820e-09 6.088667e-14 -1.115931e-11)) ((1.356857e-16 -8.535014e-13 9.047227e-17) (-2.254084e-14 3.025053e-10 -1.090313e-14))
154886.116586 	((-6.458049e-10 -2.277230e-13 -3.643273e-10) (-1.865820e-09 6.089257e-14 -1.115925e-11)) ((1.356878e-16 -8.535014e-13 9.047224e-17) (-2.254093e-14 3.025053e-10 -1.090278e-14))
159241.372344 	((-6.458045e-10 -2.276464e-13 -3.643252e-10) (-1.865820e-09 6.089493e-14 -1.115920e-11)) ((1.356897e-16 -8.535015e-13 9.047251e-17) (-2.254092e-14 3.025053e-10 -1.090261e-14))
163596.628103 	((-6.458041e-10 -2.275908e-13 -3.643233e-10) (-1.865820e-09 6.089661e-14 -1.115915e-11)) ((1.356916e-16 -8.535015e-13 9.047234e-17) (-2.254090e-14 3.025053e-10 -1.090263e-14))
167951.883861 	((-6.458037e-10 -2.275376e-13 -3.643217e-10) (-1.865820e-09 6.090084e-14 -1.115912e-11)) ((1.356929e-16 -8.535015e-13 9.047191e-17) (-2.254075e-14 3.025053e-10 -1.090270e-14))
172307.139619 	((-6.458034e-10 -2.275088e-13 -3.643201e-10) (-1.865820e-09 6.090212e-14 -1.115907e-11)) ((1.356963e-16 -8.535015e-13 9.047290e-17) (-2.254070e-14 3.025053e-10 -1.090270e-14))
176662.395377 	((-6.458031e-10 -2.274765e-13 -3.643187e-10) (-1.865820e-09 6.090386e-14 -1.115902e-11)) ((1.356996e-16 -8.535015e-13 9.047212e-17) (-2.254057e-14 3.025052e-10 -1.090273e-14))
181017.651135 	((-6.458029e-10 -2.274203e-13 -3.643175e-10) (-1.865821e-09 6.090540e-14 -1.115902e-11)) ((1.356982e-16 -8.535015e-13 9.047172e-17) (-2.254074e-14 3.025052e-10 -1.090275e-14))
185372.906894 	((-6.458026e-10 -2.273764e-13 -3.643164e-10) (-1.865821e-09 6.090505e-14 -1.115899e-11)) ((1.357005e-16 -8.535015e-13 9.047157e-17) (-2.254091e-14 3.025052e-10 -1.090280e-14))
189728.162652 	((-6.458024e-10 -2.273401e-13 -3.643154e-10) (-1.865821e-09 6.090519e-14 -1.115896e-11)) ((1.357025e-16 -8.535015e-13 9.047146e-17) (-2.254101e-14 3.025052e-10 -1.090282e-14))
