# Forces      
# CofR        : (0.000000e+00 0.000000e+00 0.000000e+00)
# Time        forces(pressure viscous)	moments(pressure viscous)
0             	((0.000000e+00 0.000000e+00 0.000000e+00) (0.000000e+00 0.000000e+00 0.000000e+00)) ((0.000000e+00 0.000000e+00 0.000000e+00) (0.000000e+00 0.000000e+00 0.000000e+00))
0.012         	((-5.696105e-12 2.288243e-07 3.706236e-08) (-6.329799e-14 5.263648e-07 -1.561297e-13)) ((3.342540e-11 1.209384e-13 -3.061683e-13) (3.502724e-08 3.217496e-15 5.657339e-14))
0.0264        	((-1.332737e-10 3.075614e-07 7.850376e-08) (-3.008873e-13 4.821529e-07 -5.373861e-13)) ((-1.517960e-11 2.628503e-13 -1.352659e-13) (3.211993e-08 7.957689e-15 5.832940e-14))
0.04368       	((1.031445e-10 2.079687e-07 4.258806e-08) (-3.898599e-13 4.365258e-07 -1.207936e-12)) ((-1.127343e-11 1.381717e-13 -1.523507e-13) (2.912831e-08 2.363846e-15 1.091015e-13))
0.064416      	((-1.173772e-10 2.351240e-07 5.509183e-08) (-5.304496e-13 3.904913e-07 -2.347058e-12)) ((-2.226169e-11 1.828672e-13 -9.583836e-14) (2.612021e-08 -7.399402e-15 4.203198e-14))
0.0892992     	((5.850057e-11 1.735665e-07 3.673779e-08) (-5.418184e-13 3.453634e-07 -3.610247e-12)) ((-1.588892e-11 1.203108e-13 -6.365839e-14) (2.318131e-08 -1.610771e-14 -1.284915e-13))
0.119159      	((-4.256355e-11 1.779928e-07 3.986739e-08) (-3.577536e-13 3.025848e-07 -4.866454e-12)) ((-1.945574e-11 1.310203e-13 -3.337550e-14) (2.040799e-08 -1.550387e-14 -1.965802e-13))
0.154991      	((2.945403e-11 1.340468e-07 2.845640e-08) (-2.069975e-13 2.634859e-07 -6.607125e-12)) ((-1.359669e-11 9.443220e-14 -1.492238e-14) (1.785932e-08 -1.519492e-14 -2.218680e-13))
0.197989      	((-9.594247e-12 1.323077e-07 2.865409e-08) (-1.135340e-13 2.288842e-07 -8.889186e-12)) ((-1.533351e-11 9.541869e-14 -2.236804e-14) (1.560186e-08 -1.418775e-14 -2.349162e-13))
0.249587      	((1.004225e-11 1.027775e-07 2.221542e-08) (-7.399171e-14 1.993983e-07 -1.153668e-11)) ((-1.098516e-11 7.243557e-14 -1.787827e-14) (1.366357e-08 -6.795955e-15 -2.197211e-13))
0.311504      	((3.728315e-12 9.976664e-08 2.151372e-08) (2.513806e-14 1.748845e-07 -1.412596e-11)) ((-1.209791e-11 7.211025e-14 -3.229171e-14) (1.204531e-08 -2.386579e-15 -1.742343e-13))
0.385805      	((4.455762e-13 8.040769e-08 1.786106e-08) (7.174282e-14 1.546311e-07 -1.660816e-11)) ((-9.015257e-12 5.823568e-14 -2.012849e-14) (1.070685e-08 1.706970e-15 -9.912127e-14))
0.474966      	((2.450729e-12 7.794006e-08 1.684687e-08) (4.382585e-14 1.378752e-07 -1.820493e-11)) ((-9.792710e-12 5.691971e-14 -2.806222e-14) (9.601551e-09 -1.515046e-16 -3.461390e-14))
0.581959      	((-3.227509e-12 6.492841e-08 1.450479e-08) (-1.216091e-13 1.237697e-07 -2.002436e-11)) ((-7.549177e-12 4.659688e-14 -1.895462e-14) (8.670367e-09 2.239323e-15 -3.758775e-14))
0.710351      	((1.215843e-12 6.291296e-08 1.342542e-08) (-2.752251e-13 1.116524e-07 -2.116251e-11)) ((-8.134880e-12 4.546728e-14 -2.919917e-14) (7.873292e-09 -3.655694e-15 -3.488610e-14))
0.864421      	((-7.176456e-12 5.356680e-08 1.187496e-08) (-3.363423e-13 1.009985e-07 -2.252459e-11)) ((-6.545391e-12 3.841588e-14 -2.048003e-14) (7.172998e-09 -6.917195e-15 -7.088124e-14))
1.049306      	((2.933794e-13 5.153781e-08 1.094339e-08) (-4.388452e-13 9.151492e-08 -2.263001e-11)) ((-7.005446e-12 3.732141e-14 -1.716741e-14) (6.552469e-09 -2.069747e-14 -1.186338e-13))
1.271167      	((-4.750396e-12 4.430234e-08 9.783494e-09) (-4.632266e-13 8.295847e-08 -2.404878e-11)) ((-5.908595e-12 3.265629e-14 -8.969856e-18) (5.993201e-09 -2.974325e-14 -1.357581e-13))
1.5374        	((-3.779586e-12 4.212358e-08 8.947890e-09) (-4.829911e-13 7.523428e-08 -2.274344e-11)) ((-6.161957e-12 3.143698e-14 2.122046e-15) (5.488975e-09 -5.264792e-14 -1.122044e-13))
1.85688       	((-3.799187e-12 3.648972e-08 8.077265e-09) (-6.880477e-13 6.825334e-08 -2.387178e-11)) ((-5.358525e-12 2.854042e-14 1.103118e-14) (5.034244e-09 -9.145407e-14 -1.173853e-13))
2.240256      	((-3.280495e-12 3.421902e-08 7.454559e-09) (-8.163979e-13 6.198193e-08 -2.215046e-11)) ((-5.435421e-12 2.702476e-14 8.851318e-15) (4.625336e-09 -1.352893e-13 -1.740070e-13))
2.700307      	((-1.076117e-12 3.000384e-08 6.856084e-09) (-1.169725e-12 5.643483e-08 -2.083775e-11)) ((-4.868141e-12 2.518748e-14 1.381533e-14) (4.263970e-09 -1.792678e-13 -2.310975e-13))
3.252369      	((-5.427667e-12 2.792812e-08 6.413087e-09) (-1.473681e-12 5.153556e-08 -1.999815e-11)) ((-4.879347e-12 2.408992e-14 1.048622e-14) (3.944524e-09 -2.253275e-13 -2.410367e-13))
3.914842      	((3.825075e-13 2.490534e-08 5.967214e-09) (-7.912349e-13 4.722676e-08 -1.742350e-11)) ((-4.551311e-12 2.200650e-14 1.092549e-14) (3.664379e-09 -2.879854e-13 -1.972988e-13))
4.709811      	((-9.244014e-13 2.304456e-08 5.592056e-09) (-3.285980e-13 4.343398e-08 -1.565278e-11)) ((-4.510795e-12 1.936103e-14 9.597932e-15) (3.418268e-09 -3.377250e-13 -1.289959e-13))
5.663773      	((8.874528e-13 2.084147e-08 5.175591e-09) (-6.376133e-13 4.006960e-08 -1.494514e-11)) ((-4.296026e-12 1.743339e-14 1.027170e-14) (3.200581e-09 -3.254268e-13 -7.001676e-14))
6.808528      	((-4.770587e-12 1.922073e-08 4.783489e-09) (-7.182334e-13 3.705313e-08 -1.557396e-11)) ((-4.202583e-12 1.688281e-14 1.028951e-14) (3.006010e-09 -2.916745e-13 -1.379733e-14))
8.182233      	((-4.298102e-12 1.751404e-08 4.361408e-09) (-1.188818e-12 3.431648e-08 -1.724406e-11)) ((-4.064822e-12 1.492612e-14 1.185319e-14) (2.830389e-09 -2.683306e-13 1.114459e-14))
9.83068       	((-3.834582e-12 1.606470e-08 3.983481e-09) (-1.569635e-12 3.181209e-08 -2.020031e-11)) ((-3.963530e-12 1.337711e-14 1.179229e-14) (2.670554e-09 -2.506381e-13 1.326481e-14))
11.808816     	((3.933765e-14 1.469098e-08 3.627461e-09) (-1.695604e-12 2.951429e-08 -2.498189e-11)) ((-3.861663e-12 1.146936e-14 1.220581e-14) (2.524894e-09 -2.279761e-13 2.765972e-14))
14.182579     	((-1.750487e-12 1.349162e-08 3.347255e-09) (-1.907942e-12 2.740393e-08 -3.138565e-11)) ((-3.762613e-12 9.683537e-15 1.216007e-14) (2.391852e-09 -2.045858e-13 1.117488e-14))
17.031095     	((-2.854717e-12 1.236813e-08 3.111667e-09) (-1.995732e-12 2.546401e-08 -3.605968e-11)) ((-3.685275e-12 9.125689e-15 1.247165e-14) (2.270638e-09 -1.486706e-13 -3.632579e-15))
20.449314     	((-4.177835e-12 1.136597e-08 2.945890e-09) (-2.107709e-12 2.368497e-08 -3.910079e-11)) ((-3.608679e-12 8.423273e-15 1.279301e-14) (2.160300e-09 -9.521908e-14 4.981196e-15))
24.551176     	((-2.564498e-12 1.042280e-08 2.806645e-09) (-2.247249e-12 2.205646e-08 -4.022904e-11)) ((-3.553093e-12 7.853240e-15 1.313307e-14) (2.060041e-09 -5.597347e-14 1.761341e-14))
29.473411     	((-2.645698e-12 9.574608e-09 2.662673e-09) (-2.364028e-12 2.056918e-08 -4.074013e-11)) ((-3.499763e-12 7.475340e-15 1.341967e-14) (1.969040e-09 -3.236769e-14 7.608707e-15))
35.380094     	((-2.839287e-12 8.786517e-09 2.524074e-09) (-2.299978e-12 1.921138e-08 -4.003279e-11)) ((-3.457684e-12 7.088796e-15 1.372525e-14) (1.886367e-09 -2.329371e-14 2.690900e-14))
42.468112     	((-2.176756e-12 8.079793e-09 2.378776e-09) (-2.267682e-12 1.797028e-08 -3.902190e-11)) ((-3.418054e-12 6.942108e-15 1.379349e-14) (1.811118e-09 -9.095966e-15 5.882987e-14))
50.973735     	((-1.482945e-12 7.423367e-09 2.235794e-09) (-2.196602e-12 1.683512e-08 -3.913759e-11)) ((-3.385106e-12 6.518280e-15 1.381707e-14) (1.742613e-09 -2.815321e-14 8.507173e-14))
61.180482     	((-1.816113e-12 6.831621e-09 2.109136e-09) (-2.010343e-12 1.579853e-08 -3.924277e-11)) ((-3.354574e-12 5.742544e-15 1.386716e-14) (1.680409e-09 -4.376407e-14 1.081950e-13))
73.428578     	((-1.243096e-12 6.293750e-09 1.989472e-09) (-1.762619e-12 1.485369e-08 -3.943611e-11)) ((-3.329359e-12 5.027552e-15 1.371523e-14) (1.624136e-09 -6.237864e-14 1.246128e-13))
88.126294     	((-8.947815e-13 5.806017e-09 1.871515e-09) (-1.501160e-12 1.399439e-08 -3.921467e-11)) ((-3.307365e-12 4.415012e-15 1.363179e-14) (1.573372e-09 -9.018237e-14 1.441708e-13))
105.763553    	((1.486064e-13 5.375543e-09 1.767589e-09) (-1.068781e-12 1.321464e-08 -3.846790e-11)) ((-3.289488e-12 4.102104e-15 1.357610e-14) (1.527708e-09 -1.005816e-13 1.635264e-13))
126.928263    	((3.964064e-13 4.986976e-09 1.678692e-09) (-8.361813e-13 1.250889e-08 -3.778412e-11)) ((-3.274225e-12 3.689724e-15 1.349624e-14) (1.486760e-09 -1.126964e-13 1.744351e-13))
152.325916    	((8.524821e-13 4.642236e-09 1.599942e-09) (-5.864775e-13 1.187118e-08 -3.751055e-11)) ((-3.261980e-12 3.325227e-15 1.344791e-14) (1.450077e-09 -1.250086e-13 1.831205e-13))
182.803099    	((1.274927e-12 4.337344e-09 1.522292e-09) (-3.427460e-13 1.129580e-08 -3.788065e-11)) ((-3.251342e-12 2.947793e-15 1.338434e-14) (1.417259e-09 -1.331838e-13 1.892086e-13))
219.375719    	((1.629390e-12 4.068758e-09 1.452891e-09) (-1.024167e-13 1.077715e-08 -3.939063e-11)) ((-3.242567e-12 2.577840e-15 1.322744e-14) (1.387936e-09 -1.388657e-13 1.945121e-13))
263.262863    	((2.044880e-12 3.830276e-09 1.389195e-09) (1.668160e-13 1.031013e-08 -4.215481e-11)) ((-3.235799e-12 2.343830e-15 1.302108e-14) (1.361776e-09 -1.428740e-13 1.993343e-13))
315.927436    	((2.319310e-12 3.620639e-09 1.320982e-09) (2.506346e-13 9.890525e-09 -4.588920e-11)) ((-3.230470e-12 2.109832e-15 1.289826e-14) (1.338495e-09 -1.373362e-13 1.951800e-13))
379.124923    	((2.342579e-12 3.439031e-09 1.255508e-09) (2.540785e-13 9.514730e-09 -5.054517e-11)) ((-3.226158e-12 1.780343e-15 1.296424e-14) (1.317843e-09 -1.364937e-13 1.871069e-13))
454.961908    	((2.239086e-12 3.283332e-09 1.198055e-09) (2.557776e-13 9.180212e-09 -5.619362e-11)) ((-3.222854e-12 1.581297e-15 1.299272e-14) (1.299631e-09 -1.335157e-13 1.776840e-13))
545.966289    	((2.246606e-12 3.152235e-09 1.151287e-09) (2.432673e-13 8.884659e-09 -6.252718e-11)) ((-3.220145e-12 1.406091e-15 1.302367e-14) (1.283691e-09 -1.316132e-13 1.724118e-13))
655.171547    	((2.115922e-12 3.042853e-09 1.109399e-09) (1.509983e-13 8.626049e-09 -6.912429e-11)) ((-3.217784e-12 1.290744e-15 1.306699e-14) (1.269863e-09 -1.274700e-13 1.679154e-13))
786.217856    	((2.026849e-12 2.952912e-09 1.073254e-09) (5.080012e-14 8.402412e-09 -7.571681e-11)) ((-3.215813e-12 1.205958e-15 1.309573e-14) (1.257996e-09 -1.198447e-13 1.631401e-13))
943.473427    	((2.036589e-12 2.879755e-09 1.041777e-09) (-6.745861e-15 8.211634e-09 -8.235488e-11)) ((-3.214301e-12 1.111169e-15 1.312598e-14) (1.247927e-09 -1.133791e-13 1.593516e-13))
1132.180113   	((1.960931e-12 2.820663e-09 1.014701e-09) (-5.241233e-15 8.051381e-09 -8.907736e-11)) ((-3.213188e-12 1.008727e-15 1.316202e-14) (1.239500e-09 -1.093559e-13 1.534456e-13))
1358.628135   	((1.929549e-12 2.773496e-09 9.912769e-10) (6.905431e-15 7.918959e-09 -9.569143e-11)) ((-3.212335e-12 9.304916e-16 1.319674e-14) (1.232545e-09 -1.075542e-13 1.475785e-13))
1630.365763   	((1.961803e-12 2.736307e-09 9.716369e-10) (1.886434e-14 7.811319e-09 -1.020473e-10)) ((-3.211610e-12 8.558039e-16 1.322037e-14) (1.226887e-09 -1.065912e-13 1.427441e-13))
1956.450915   	((2.068666e-12 2.707246e-09 9.551075e-10) (2.359803e-14 7.725294e-09 -1.079800e-10)) ((-3.211035e-12 7.861879e-16 1.323997e-14) (1.222349e-09 -1.062363e-13 1.387884e-13))
2347.753098   	((2.125156e-12 2.684725e-09 9.407873e-10) (5.490288e-15 7.657667e-09 -1.133618e-10)) ((-3.210579e-12 7.446110e-16 1.326528e-14) (1.218758e-09 -1.050142e-13 1.356266e-13))
2817.315718   	((2.201703e-12 2.667501e-09 9.292161e-10) (-1.464443e-14 7.605313e-09 -1.180875e-10)) ((-3.210218e-12 7.061278e-16 1.327974e-14) (1.215949e-09 -1.034639e-13 1.328655e-13))
3380.790861   	((2.230480e-12 2.654351e-09 9.199277e-10) (-2.710451e-14 7.565349e-09 -1.221151e-10)) ((-3.209923e-12 6.786487e-16 1.329282e-14) (1.213777e-09 -1.018659e-13 1.304260e-13))
4053.646546   	((2.236280e-12 2.644387e-09 9.126700e-10) (-3.581766e-14 7.535232e-09 -1.254495e-10)) ((-3.209690e-12 6.591845e-16 1.330517e-14) (1.212112e-09 -1.004557e-13 1.285747e-13))
4835.880464   	((2.226088e-12 2.636860e-09 9.071125e-10) (-4.189697e-14 7.512807e-09 -1.281270e-10)) ((-3.209518e-12 6.444892e-16 1.331545e-14) (1.210848e-09 -9.933110e-14 1.270416e-13))
5727.490962   	((2.207142e-12 2.631142e-09 9.029122e-10) (-4.709578e-14 7.496271e-09 -1.302252e-10)) ((-3.209389e-12 6.335268e-16 1.332429e-14) (1.209894e-09 -9.834645e-14 1.258495e-13))
6728.476886   	((2.193281e-12 2.626811e-09 8.997658e-10) (-4.940271e-14 7.484181e-09 -1.318356e-10)) ((-3.209285e-12 6.277750e-16 1.333200e-14) (1.209178e-09 -9.759155e-14 1.250044e-13))
7822.221324   	((2.184906e-12 2.623513e-09 8.975187e-10) (-5.030535e-14 7.475402e-09 -1.330500e-10)) ((-3.209212e-12 6.235183e-16 1.333798e-14) (1.208643e-09 -9.702461e-14 1.243965e-13))
8915.958454   	((2.173729e-12 2.621034e-09 8.958349e-10) (-5.035815e-14 7.469074e-09 -1.339478e-10)) ((-3.209206e-12 6.196296e-16 1.334247e-14) (1.208246e-09 -9.658476e-14 1.240168e-13))
10009.69104   	((2.159149e-12 2.619165e-09 8.946495e-10) (-5.047564e-14 7.464524e-09 -1.346019e-10)) ((-3.209208e-12 6.167042e-16 1.334622e-14) (1.207950e-09 -9.625001e-14 1.237729e-13))
11103.421056  	((2.146784e-12 2.617738e-09 8.937324e-10) (-5.032730e-14 7.461262e-09 -1.350738e-10)) ((-3.209211e-12 6.146673e-16 1.334944e-14) (1.207730e-09 -9.600187e-14 1.236118e-13))
12197.149625  	((2.131788e-12 2.616648e-09 8.930782e-10) (-4.978377e-14 7.458923e-09 -1.354133e-10)) ((-3.209215e-12 6.130881e-16 1.335174e-14) (1.207565e-09 -9.579610e-14 1.235070e-13))
13290.877418  	((2.119794e-12 2.615815e-09 8.926073e-10) (-4.908563e-14 7.457247e-09 -1.356563e-10)) ((-3.209218e-12 6.118665e-16 1.335336e-14) (1.207442e-09 -9.562809e-14 1.234477e-13))
14384.604834  	((2.107698e-12 2.615170e-09 8.922598e-10) (-4.847960e-14 7.456046e-09 -1.358290e-10)) ((-3.209221e-12 6.110525e-16 1.335455e-14) (1.207349e-09 -9.549735e-14 1.234155e-13))
15478.332125  	((2.095267e-12 2.614668e-09 8.920490e-10) (-4.804946e-14 7.455186e-09 -1.359516e-10)) ((-3.209223e-12 6.106712e-16 1.335551e-14) (1.207278e-09 -9.539653e-14 1.234093e-13))
16572.059437  	((2.083223e-12 2.614280e-09 8.918688e-10) (-4.775721e-14 7.454568e-09 -1.360383e-10)) ((-3.209225e-12 6.103613e-16 1.335622e-14) (1.207225e-09 -9.531649e-14 1.234152e-13))
17665.786849  	((2.071113e-12 2.613976e-09 8.917207e-10) (-4.754350e-14 7.454125e-09 -1.360996e-10)) ((-3.209227e-12 6.101137e-16 1.335675e-14) (1.207184e-09 -9.525422e-14 1.234271e-13))
18759.514396  	((2.060118e-12 2.613742e-09 8.916561e-10) (-4.739740e-14 7.453807e-09 -1.361431e-10)) ((-3.209229e-12 6.100299e-16 1.335713e-14) (1.207153e-09 -9.520282e-14 1.234421e-13))
19853.242091  	((2.047673e-12 2.613558e-09 8.915700e-10) (-4.733519e-14 7.453578e-09 -1.361740e-10)) ((-3.209230e-12 6.099057e-16 1.335746e-14) (1.207129e-09 -9.516201e-14 1.234602e-13))
20946.969931  	((2.035900e-12 2.613418e-09 8.915574e-10) (-4.733856e-14 7.453413e-09 -1.361959e-10)) ((-3.209231e-12 6.099770e-16 1.335769e-14) (1.207111e-09 -9.512826e-14 1.234758e-13))
22040.697904  	((2.025374e-12 2.613309e-09 8.915274e-10) (-4.736391e-14 7.453295e-09 -1.362116e-10)) ((-3.209232e-12 6.099411e-16 1.335786e-14) (1.207097e-09 -9.510179e-14 1.234910e-13))
23134.425995  	((2.016751e-12 2.613224e-09 8.914767e-10) (-4.740258e-14 7.453210e-09 -1.362227e-10)) ((-3.209232e-12 6.098373e-16 1.335799e-14) (1.207086e-09 -9.508072e-14 1.235051e-13))
24228.15419   	((2.003002e-12 2.613161e-09 8.914761e-10) (-4.771529e-14 7.453149e-09 -1.362309e-10)) ((-3.209233e-12 6.097042e-16 1.335811e-14) (1.207077e-09 -9.506724e-14 1.235192e-13))
25321.882474  	((1.993840e-12 2.613112e-09 8.914584e-10) (-4.799673e-14 7.453105e-09 -1.362367e-10)) ((-3.209234e-12 6.096462e-16 1.335826e-14) (1.207071e-09 -9.504940e-14 1.235261e-13))
26415.610831  	((1.994140e-12 2.613065e-09 8.914664e-10) (-4.804886e-14 7.453073e-09 -1.362402e-10)) ((-3.209234e-12 6.096253e-16 1.335878e-14) (1.207065e-09 -9.504359e-14 1.235331e-13))
27509.33925   	((1.999211e-12 2.613035e-09 8.914762e-10) (-4.803802e-14 7.453051e-09 -1.362428e-10)) ((-3.209234e-12 6.098157e-16 1.335874e-14) (1.207061e-09 -9.501928e-14 1.235431e-13))
28603.06772   	((1.991322e-12 2.613007e-09 8.914833e-10) (-4.789922e-14 7.453035e-09 -1.362445e-10)) ((-3.209235e-12 6.099974e-16 1.335874e-14) (1.207058e-09 -9.500656e-14 1.235443e-13))
29696.796232  	((1.986383e-12 2.612986e-09 8.914860e-10) (-4.786233e-14 7.453024e-09 -1.362457e-10)) ((-3.209235e-12 6.100951e-16 1.335877e-14) (1.207056e-09 -9.499725e-14 1.235450e-13))
30790.524777  	((1.982721e-12 2.612969e-09 8.914893e-10) (-4.790981e-14 7.453016e-09 -1.362465e-10)) ((-3.209235e-12 6.101620e-16 1.335879e-14) (1.207054e-09 -9.498835e-14 1.235461e-13))
31884.253351  	((1.979897e-12 2.612955e-09 8.914927e-10) (-4.796846e-14 7.453010e-09 -1.362471e-10)) ((-3.209235e-12 6.102178e-16 1.335880e-14) (1.207052e-09 -9.498175e-14 1.235478e-13))
32977.981947  	((1.977358e-12 2.612944e-09 8.915081e-10) (-4.803446e-14 7.453005e-09 -1.362475e-10)) ((-3.209235e-12 6.102952e-16 1.335881e-14) (1.207051e-09 -9.497653e-14 1.235497e-13))
34071.710561  	((1.975246e-12 2.612935e-09 8.915119e-10) (-4.811910e-14 7.453002e-09 -1.362479e-10)) ((-3.209236e-12 6.103311e-16 1.335882e-14) (1.207050e-09 -9.497152e-14 1.235515e-13))
35165.439189  	((1.973532e-12 2.612929e-09 8.915149e-10) (-4.817984e-14 7.453000e-09 -1.362482e-10)) ((-3.209236e-12 6.103610e-16 1.335882e-14) (1.207049e-09 -9.496809e-14 1.235532e-13))
36259.167829  	((1.966579e-12 2.612922e-09 8.915078e-10) (-4.826541e-14 7.452998e-09 -1.362484e-10)) ((-3.209236e-12 6.101321e-16 1.335881e-14) (1.207048e-09 -9.496317e-14 1.235531e-13))
37352.896479  	((1.973843e-12 2.612914e-09 8.915193e-10) (-4.849649e-14 7.452997e-09 -1.362485e-10)) ((-3.209236e-12 6.099974e-16 1.335880e-14) (1.207048e-09 -9.495120e-14 1.235555e-13))
38446.625136  	((1.977516e-12 2.612908e-09 8.915302e-10) (-4.864227e-14 7.452997e-09 -1.362484e-10)) ((-3.209236e-12 6.099395e-16 1.335878e-14) (1.207048e-09 -9.494118e-14 1.235570e-13))
39540.353799  	((1.979282e-12 2.612903e-09 8.915394e-10) (-4.870461e-14 7.452996e-09 -1.362483e-10)) ((-3.209236e-12 6.099004e-16 1.335877e-14) (1.207047e-09 -9.493518e-14 1.235591e-13))
40634.082467  	((1.976784e-12 2.612902e-09 8.915417e-10) (-4.852200e-14 7.452996e-09 -1.362482e-10)) ((-3.209236e-12 6.101293e-16 1.335877e-14) (1.207047e-09 -9.494168e-14 1.235614e-13))
41727.811138  	((1.967969e-12 2.612900e-09 8.915412e-10) (-4.847592e-14 7.452995e-09 -1.362482e-10)) ((-3.209236e-12 6.100379e-16 1.335878e-14) (1.207047e-09 -9.494336e-14 1.235605e-13))
42821.539812  	((1.974204e-12 2.612897e-09 8.915461e-10) (-4.859230e-14 7.452995e-09 -1.362483e-10)) ((-3.209236e-12 6.099469e-16 1.335877e-14) (1.207047e-09 -9.493850e-14 1.235623e-13))
43915.268489  	((1.977105e-12 2.612894e-09 8.915526e-10) (-4.869936e-14 7.452995e-09 -1.362482e-10)) ((-3.209236e-12 6.099199e-16 1.335876e-14) (1.207047e-09 -9.493221e-14 1.235645e-13))
45008.997168  	((1.978621e-12 2.612892e-09 8.915576e-10) (-4.873054e-14 7.452995e-09 -1.362481e-10)) ((-3.209236e-12 6.098866e-16 1.335875e-14) (1.207046e-09 -9.492888e-14 1.235647e-13))
46102.725848  	((1.976020e-12 2.612892e-09 8.915568e-10) (-4.852421e-14 7.452995e-09 -1.362480e-10)) ((-3.209236e-12 6.101264e-16 1.335876e-14) (1.207046e-09 -9.493821e-14 1.235662e-13))
47196.45453   	((1.967228e-12 2.612892e-09 8.915537e-10) (-4.848808e-14 7.452995e-09 -1.362481e-10)) ((-3.209236e-12 6.100528e-16 1.335876e-14) (1.207046e-09 -9.494144e-14 1.235649e-13))
