# Forces      
# CofR        : (0.000000e+00 0.000000e+00 0.000000e+00)
# Time        forces(pressure viscous)	moments(pressure viscous)
0             	((0.000000e+00 0.000000e+00 0.000000e+00) (0.000000e+00 0.000000e+00 0.000000e+00)) ((0.000000e+00 0.000000e+00 0.000000e+00) (0.000000e+00 0.000000e+00 0.000000e+00))
0.012         	((-2.823997e-07 1.028598e-11 -9.609879e-08) (-6.626398e-07 1.288558e-15 -6.024445e-11)) ((-4.354536e-15 4.274860e-11 -3.469684e-15) (-7.240709e-16 4.409641e-08 -2.875555e-16))
0.0264        	((-3.894622e-07 2.277443e-10 -1.258169e-07) (-6.069867e-07 6.929546e-14 -3.702207e-11)) ((-2.252064e-15 -2.199185e-11 -8.624897e-16) (-2.604718e-15 4.043629e-08 1.957758e-15))
0.04368       	((-2.592337e-07 -1.375785e-10 -8.612209e-08) (-5.495553e-07 -5.151270e-14 -1.246335e-12)) ((-5.007266e-15 -1.590858e-11 -2.558344e-15) (-6.798913e-15 3.667081e-08 7.320597e-15))
0.064416      	((-2.967126e-07 1.620054e-10 -9.615352e-08) (-4.916109e-07 -1.216700e-13 2.267352e-11)) ((-2.479209e-15 -3.061549e-11 4.848424e-16) (-1.305437e-14 3.288467e-08 8.634022e-15))
0.0892992     	((-2.172322e-07 -7.070070e-11 -7.209351e-08) (-4.348016e-07 -1.478724e-13 2.470584e-11)) ((-1.539679e-15 -2.185441e-11 -1.687392e-15) (-2.092032e-14 2.918612e-08 4.519667e-15))
0.119159      	((-2.241921e-07 7.990172e-11 -7.156352e-08) (-3.809457e-07 -4.983883e-14 1.542086e-11)) ((-2.009213e-15 -2.653394e-11 -7.074569e-17) (-1.886036e-14 2.569617e-08 -1.172605e-15))
0.154991      	((-1.683668e-07 -4.041376e-11 -5.648534e-08) (-3.317339e-07 8.540369e-15 1.072002e-11)) ((5.660950e-16 -1.854762e-11 -1.165439e-16) (-1.896213e-14 2.248850e-08 -1.049036e-14))
0.197989      	((-1.666164e-07 2.993430e-11 -5.269574e-08) (-2.881823e-07 3.577885e-14 4.194568e-12)) ((1.010122e-15 -2.086933e-11 1.505354e-16) (-1.804054e-14 1.964706e-08 -1.862878e-14))
0.249587      	((-1.291170e-07 -1.606458e-11 -4.332605e-08) (-2.510592e-07 8.224473e-14 -4.949951e-12)) ((6.250294e-16 -1.492966e-11 -6.195413e-17) (-1.484919e-14 1.720681e-08 -2.268835e-14))
0.311504      	((-1.255667e-07 4.642180e-12 -3.950003e-08) (-2.201961e-07 8.527975e-14 -1.230866e-11)) ((1.754230e-15 -1.645510e-11 -1.697624e-16) (-1.694128e-14 1.516919e-08 -2.260817e-14))
0.385805      	((-1.010818e-07 -2.987021e-12 -3.384520e-08) (-1.946956e-07 5.869780e-14 -1.791524e-11)) ((3.929683e-16 -1.225424e-11 -2.325967e-16) (-1.592616e-14 1.348378e-08 -2.267368e-14))
0.474966      	((-9.808745e-08 3.847367e-12 -3.087647e-08) (-1.736013e-07 7.737350e-14 -2.364450e-11)) ((1.753487e-15 -1.330641e-11 -1.360414e-16) (-1.358799e-14 1.209183e-08 -2.972081e-14))
0.581959      	((-8.165760e-08 6.823312e-13 -2.725862e-08) (-1.558439e-07 1.118384e-13 -2.911331e-11)) ((2.789936e-16 -1.026814e-11 2.025583e-16) (7.915491e-16 1.091913e-08 -2.310748e-14))
0.710351      	((-7.915126e-08 -2.473737e-12 -2.491301e-08) (-1.405908e-07 4.473005e-14 -2.820893e-11)) ((2.381237e-15 -1.105340e-11 2.835344e-16) (7.406955e-15 9.915281e-09 -4.336264e-16))
0.864421      	((-6.741200e-08 4.323244e-12 -2.243480e-08) (-1.271803e-07 1.148659e-16 -3.317039e-11)) ((1.254682e-15 -8.914556e-12 3.445845e-16) (7.687823e-15 9.033467e-09 2.341273e-15))
1.049306      	((-6.484494e-08 9.112745e-13 -2.044145e-08) (-1.152381e-07 -1.491817e-14 -3.385217e-11)) ((2.858485e-15 -9.521170e-12 3.240518e-16) (-2.328821e-14 8.251992e-09 -1.394084e-14))
1.271167      	((-5.577468e-08 4.538715e-12 -1.848173e-08) (-1.044597e-07 1.198860e-13 -3.900960e-11)) ((2.091060e-15 -8.038458e-12 1.207364e-15) (-5.256221e-14 7.547482e-09 -3.452922e-14))
1.5374        	((-5.300273e-08 4.863658e-12 -1.680259e-08) (-9.473183e-08 1.600608e-13 -4.054575e-11)) ((3.647958e-15 -8.362590e-12 1.827084e-15) (-8.043340e-14 6.912325e-09 -4.720386e-14))
1.85688       	((-4.592720e-08 5.148427e-12 -1.521005e-08) (-8.594123e-08 3.452595e-13 -4.803623e-11)) ((3.612680e-15 -7.257223e-12 1.725782e-15) (-1.090534e-13 6.339378e-09 -4.798277e-14))
2.240256      	((-4.305632e-08 3.645125e-12 -1.382152e-08) (-7.804868e-08 3.522300e-13 -4.820829e-11)) ((4.678060e-15 -7.363206e-12 1.472333e-15) (-1.590081e-13 5.824606e-09 -3.989412e-14))
2.700307      	((-3.775453e-08 3.239917e-12 -1.259246e-08) (-7.106104e-08 2.312133e-13 -4.841376e-11)) ((4.012882e-15 -6.579259e-12 1.629708e-15) (-2.436988e-13 5.369431e-09 1.715932e-15))
3.252369      	((-3.515051e-08 7.804990e-12 -1.148743e-08) (-6.488943e-08 1.201077e-13 -4.892894e-11)) ((4.629229e-15 -6.598909e-12 1.551366e-15) (-3.337929e-13 4.966891e-09 1.049298e-13))
3.914842      	((-3.134740e-08 -1.122068e-12 -1.051440e-08) (-5.946832e-08 -2.446622e-13 -4.449994e-11)) ((3.771155e-15 -6.149073e-12 1.925731e-15) (-4.164451e-13 4.614382e-09 2.384215e-13))
4.709811      	((-2.901108e-08 7.643698e-14 -9.655144e-09) (-5.469840e-08 -1.980523e-13 -4.340212e-11)) ((3.109002e-15 -6.101235e-12 2.603748e-15) (-4.565013e-13 4.304814e-09 3.460911e-13))
5.663773      	((-2.623760e-08 -1.079955e-12 -8.900205e-09) (-5.046395e-08 1.037478e-13 -4.914163e-11)) ((1.981632e-15 -5.807981e-12 3.061739e-15) (-4.415750e-13 4.030618e-09 4.120228e-13))
6.808528      	((-2.419656e-08 7.177778e-12 -8.204058e-09) (-4.666399e-08 6.546438e-13 -5.887547e-11)) ((3.156859e-15 -5.683100e-12 3.207684e-15) (-4.084882e-13 3.785348e-09 4.231501e-13))
8.182233      	((-2.205004e-08 7.048234e-12 -7.601496e-09) (-4.321702e-08 1.127894e-12 -6.964455e-11)) ((2.531424e-15 -5.494292e-12 3.000629e-15) (-3.993855e-13 3.564072e-09 4.108190e-13))
9.83068       	((-2.022518e-08 7.852033e-12 -7.028606e-09) (-4.006392e-08 1.402986e-12 -7.789164e-11)) ((2.991559e-15 -5.358851e-12 2.696677e-15) (-3.906556e-13 3.362770e-09 3.912541e-13))
11.808816     	((-1.849598e-08 5.166553e-12 -6.536088e-09) (-3.717151e-08 1.536327e-12 -8.245095e-11)) ((1.811597e-15 -5.219715e-12 2.416748e-15) (-3.534243e-13 3.179305e-09 3.431196e-13))
14.182579     	((-1.698745e-08 5.357531e-12 -6.076591e-09) (-3.451441e-08 1.938927e-12 -8.725887e-11)) ((1.798751e-15 -5.086997e-12 2.117059e-15) (-2.928070e-13 3.011706e-09 2.899650e-13))
17.031095     	((-1.557294e-08 5.364078e-12 -5.655517e-09) (-3.207121e-08 2.285613e-12 -8.974821e-11)) ((1.321386e-15 -4.979987e-12 1.827337e-15) (-2.380042e-13 2.859027e-09 2.321193e-13))
20.449314     	((-1.430507e-08 5.961111e-12 -5.260834e-09) (-2.983059e-08 2.609981e-12 -9.302390e-11)) ((1.410268e-15 -4.873034e-12 1.483724e-15) (-1.848311e-13 2.720063e-09 1.525796e-13))
24.551176     	((-1.311882e-08 3.887155e-12 -4.899810e-09) (-2.777811e-08 2.805447e-12 -9.231036e-11)) ((1.173085e-15 -4.794702e-12 1.114835e-15) (-1.391239e-13 2.593696e-09 8.239814e-14))
29.473411     	((-1.204837e-08 3.278986e-12 -4.575283e-09) (-2.590257e-08 2.823682e-12 -9.112907e-11)) ((1.293044e-15 -4.719622e-12 8.994364e-16) (-1.067341e-13 2.478948e-09 2.674032e-14))
35.380094     	((-1.106040e-08 2.556633e-12 -4.290534e-09) (-2.419060e-08 2.796221e-12 -8.998405e-11)) ((1.317084e-15 -4.660796e-12 7.692193e-16) (-9.185512e-14 2.374786e-09 -9.492634e-15))
42.468112     	((-1.016950e-08 2.708366e-12 -4.042303e-09) (-2.262622e-08 2.684798e-12 -9.058103e-11)) ((1.324986e-15 -4.604604e-12 6.198695e-16) (-8.988938e-14 2.280064e-09 -2.536147e-14))
50.973735     	((-9.343689e-09 2.503986e-12 -3.828164e-09) (-2.119641e-08 2.655329e-12 -9.212575e-11)) ((1.273921e-15 -4.558772e-12 4.924772e-16) (-9.502611e-14 2.193894e-09 -3.145557e-14))
61.180482     	((-8.600010e-09 2.703544e-12 -3.627910e-09) (-1.989171e-08 2.577971e-12 -9.298235e-11)) ((1.306119e-15 -4.516156e-12 3.355337e-16) (-1.009088e-13 2.115657e-09 -3.034292e-14))
73.428578     	((-7.921457e-09 1.934851e-12 -3.459526e-09) (-1.870279e-08 2.317563e-12 -9.229642e-11)) ((1.198216e-15 -4.481107e-12 3.131908e-16) (-1.059741e-13 2.044856e-09 -3.248820e-14))
88.126294     	((-7.310289e-09 6.335083e-13 -3.307357e-09) (-1.762120e-08 1.814690e-12 -9.067178e-11)) ((1.170947e-15 -4.450224e-12 3.989146e-16) (-1.181774e-13 1.980977e-09 -3.807853e-14))
105.763553    	((-6.767771e-09 3.647710e-14 -3.172034e-09) (-1.664007e-08 1.520482e-12 -8.815384e-11)) ((9.626482e-16 -4.424673e-12 4.478702e-16) (-1.345826e-13 1.923534e-09 -2.620240e-14))
126.928263    	((-6.279612e-09 -1.890887e-13 -3.050976e-09) (-1.575259e-08 1.309306e-12 -8.576160e-11)) ((8.314408e-16 -4.403301e-12 5.224445e-16) (-1.451515e-13 1.872029e-09 -1.209815e-14))
152.325916    	((-5.845778e-09 -4.124077e-13 -2.928590e-09) (-1.495059e-08 1.114084e-12 -8.451107e-11)) ((8.195826e-16 -4.385850e-12 5.837691e-16) (-1.504946e-13 1.825900e-09 -7.140896e-15))
182.803099    	((-5.462992e-09 -5.777648e-13 -2.821816e-09) (-1.422713e-08 1.022035e-12 -8.436922e-11)) ((8.295139e-16 -4.370787e-12 5.941737e-16) (-1.534718e-13 1.784652e-09 -4.709637e-15))
219.375719    	((-5.126790e-09 -9.897819e-13 -2.741858e-09) (-1.357501e-08 9.588395e-13 -8.636550e-11)) ((8.532772e-16 -4.358672e-12 5.495719e-16) (-1.535052e-13 1.747816e-09 -4.426954e-15))
263.262863    	((-4.828290e-09 -1.139874e-12 -2.677254e-09) (-1.298803e-08 8.865384e-13 -9.046362e-11)) ((8.564299e-16 -4.348548e-12 5.023119e-16) (-1.527459e-13 1.714971e-09 -2.401448e-15))
315.927436    	((-4.565974e-09 -1.269855e-12 -2.623163e-09) (-1.246075e-08 8.213314e-13 -9.593206e-11)) ((8.827097e-16 -4.340508e-12 4.753285e-16) (-1.492287e-13 1.685745e-09 5.542280e-17))
379.124923    	((-4.338255e-09 -1.255132e-12 -2.581602e-09) (-1.198860e-08 8.684525e-13 -1.026465e-10)) ((8.735312e-16 -4.334406e-12 4.781926e-16) (-1.416480e-13 1.659821e-09 -1.358005e-15))
454.961908    	((-4.144717e-09 -1.322861e-12 -2.552166e-09) (-1.156845e-08 8.699282e-13 -1.109620e-10)) ((8.474831e-16 -4.329586e-12 5.115400e-16) (-1.338553e-13 1.636961e-09 -2.528458e-15))
545.966289    	((-3.980548e-09 -1.269657e-12 -2.530950e-09) (-1.119733e-08 8.204796e-13 -1.208115e-10)) ((8.028511e-16 -4.325647e-12 5.180829e-16) (-1.266234e-13 1.616962e-09 -1.501940e-15))
655.171547    	((-3.844636e-09 -1.318349e-12 -2.516722e-09) (-1.087270e-08 7.723990e-13 -1.311743e-10)) ((7.815982e-16 -4.322144e-12 5.179382e-16) (-1.196819e-13 1.599632e-09 -2.647476e-15))
786.217856    	((-3.733046e-09 -1.325381e-12 -2.508506e-09) (-1.059215e-08 7.005555e-13 -1.417407e-10)) ((7.540891e-16 -4.319170e-12 5.200950e-16) (-1.150974e-13 1.584773e-09 -4.718243e-15))
943.473427    	((-3.642391e-09 -1.626594e-12 -2.505896e-09) (-1.035309e-08 6.138565e-13 -1.525660e-10)) ((7.261846e-16 -4.316967e-12 5.247306e-16) (-1.121901e-13 1.572180e-09 -9.041284e-15))
1132.180113   	((-3.569425e-09 -1.785902e-12 -2.507459e-09) (-1.015248e-08 5.171338e-13 -1.635398e-10)) ((7.132235e-16 -4.315338e-12 5.276215e-16) (-1.098371e-13 1.561652e-09 -1.478809e-14))
1358.628135   	((-3.511422e-09 -1.859555e-12 -2.509986e-09) (-9.986900e-09 4.420283e-13 -1.744035e-10)) ((7.070355e-16 -4.314154e-12 5.268350e-16) (-1.083382e-13 1.552979e-09 -2.171992e-14))
1630.365763   	((-3.465968e-09 -1.790580e-12 -2.513472e-09) (-9.852627e-09 3.858998e-13 -1.847978e-10)) ((7.080300e-16 -4.313294e-12 5.201928e-16) (-1.073599e-13 1.545939e-09 -2.802054e-14))
1956.450915   	((-3.430925e-09 -1.752447e-12 -2.516865e-09) (-9.745615e-09 3.442721e-13 -1.943770e-10)) ((7.189529e-16 -4.312614e-12 5.163333e-16) (-1.064240e-13 1.540308e-09 -3.360558e-14))
2347.753098   	((-3.403958e-09 -1.687777e-12 -2.520375e-09) (-9.661727e-09 3.105378e-13 -2.029551e-10)) ((7.270649e-16 -4.312018e-12 5.121942e-16) (-1.059099e-13 1.535861e-09 -3.831491e-14))
2817.315718   	((-3.383278e-09 -1.682737e-12 -2.523375e-09) (-9.597012e-09 2.830423e-13 -2.104101e-10)) ((7.292688e-16 -4.311537e-12 5.039004e-16) (-1.054115e-13 1.532397e-09 -4.240618e-14))
3373.937514   	((-3.367667e-09 -1.688966e-12 -2.525778e-09) (-9.547837e-09 2.621643e-13 -2.167117e-10)) ((7.302417e-16 -4.311154e-12 4.973536e-16) (-1.048726e-13 1.529729e-09 -4.590782e-14))
4017.614186   	((-3.355866e-09 -1.671613e-12 -2.527453e-09) (-9.510977e-09 2.468151e-13 -2.218866e-10)) ((7.297773e-16 -4.310858e-12 4.933223e-16) (-1.045767e-13 1.527697e-09 -4.880371e-14))
4748.342321   	((-3.347009e-09 -1.648162e-12 -2.528597e-09) (-9.483664e-09 2.352708e-13 -2.260169e-10)) ((7.318984e-16 -4.310623e-12 4.889002e-16) (-1.044426e-13 1.526162e-09 -5.100752e-14))
5566.119251   	((-3.340326e-09 -1.626850e-12 -2.529327e-09) (-9.463613e-09 2.258749e-13 -2.292324e-10)) ((7.316425e-16 -4.310441e-12 4.856023e-16) (-1.043200e-13 1.525010e-09 -5.272028e-14))
6436.586322   	((-3.335293e-09 -1.605801e-12 -2.529779e-09) (-9.449018e-09 2.179483e-13 -2.316818e-10)) ((7.323515e-16 -4.310337e-12 4.835641e-16) (-1.042322e-13 1.524150e-09 -5.405716e-14))
7307.037222   	((-3.331510e-09 -1.586670e-12 -2.530030e-09) (-9.438466e-09 2.119086e-13 -2.335062e-10)) ((7.329213e-16 -4.310318e-12 4.818269e-16) (-1.041770e-13 1.523513e-09 -5.508069e-14))
8177.475941   	((-3.328661e-09 -1.566719e-12 -2.530120e-09) (-9.430858e-09 2.070557e-13 -2.348483e-10)) ((7.329695e-16 -4.310311e-12 4.805554e-16) (-1.041245e-13 1.523039e-09 -5.587340e-14))
9047.905486   	((-3.326499e-09 -1.550579e-12 -2.530097e-09) (-9.425379e-09 2.036545e-13 -2.358279e-10)) ((7.331012e-16 -4.310310e-12 4.794590e-16) (-1.040699e-13 1.522687e-09 -5.650414e-14))
9918.327973   	((-3.324855e-09 -1.539879e-12 -2.530040e-09) (-9.421432e-09 2.010562e-13 -2.365372e-10)) ((7.333922e-16 -4.310311e-12 4.782074e-16) (-1.040192e-13 1.522425e-09 -5.699180e-14))
10788.744987  	((-3.323592e-09 -1.527510e-12 -2.529993e-09) (-9.418587e-09 1.986273e-13 -2.370475e-10)) ((7.335537e-16 -4.310311e-12 4.770612e-16) (-1.039844e-13 1.522228e-09 -5.738081e-14))
11659.157734  	((-3.322624e-09 -1.518667e-12 -2.529885e-09) (-9.416531e-09 1.964548e-13 -2.374137e-10)) ((7.338428e-16 -4.310312e-12 4.762279e-16) (-1.039524e-13 1.522080e-09 -5.768610e-14))
12529.567145  	((-3.321879e-09 -1.512876e-12 -2.529791e-09) (-9.415044e-09 1.944375e-13 -2.376768e-10)) ((7.344127e-16 -4.310313e-12 4.752844e-16) (-1.039560e-13 1.521969e-09 -5.792694e-14))
13399.973943  	((-3.321301e-09 -1.507119e-12 -2.529697e-09) (-9.413965e-09 1.928474e-13 -2.378659e-10)) ((7.346980e-16 -4.310314e-12 4.748192e-16) (-1.039831e-13 1.521884e-09 -5.811349e-14))
14270.378692  	((-3.320857e-09 -1.492633e-12 -2.529608e-09) (-9.413179e-09 1.914925e-13 -2.380010e-10)) ((7.348127e-16 -4.310315e-12 4.743255e-16) (-1.040093e-13 1.521820e-09 -5.825038e-14))
15140.78183   	((-3.320518e-09 -1.474731e-12 -2.529531e-09) (-9.412604e-09 1.903853e-13 -2.380979e-10)) ((7.348134e-16 -4.310315e-12 4.738725e-16) (-1.040366e-13 1.521770e-09 -5.836020e-14))
16011.183699  	((-3.320253e-09 -1.468913e-12 -2.529447e-09) (-9.412184e-09 1.898250e-13 -2.381677e-10)) ((7.350056e-16 -4.310316e-12 4.735358e-16) (-1.040486e-13 1.521733e-09 -5.845194e-14))
16881.584568  	((-3.320047e-09 -1.467931e-12 -2.529372e-09) (-9.411875e-09 1.893486e-13 -2.382184e-10)) ((7.351476e-16 -4.310316e-12 4.732816e-16) (-1.040622e-13 1.521703e-09 -5.852557e-14))
17751.984648  	((-3.319881e-09 -1.464491e-12 -2.529311e-09) (-9.411648e-09 1.888669e-13 -2.382553e-10)) ((7.352482e-16 -4.310317e-12 4.730933e-16) (-1.040785e-13 1.521681e-09 -5.858384e-14))
18622.384106  	((-3.319751e-09 -1.461203e-12 -2.529261e-09) (-9.411480e-09 1.884900e-13 -2.382823e-10)) ((7.353390e-16 -4.310317e-12 4.729380e-16) (-1.040905e-13 1.521663e-09 -5.863067e-14))
19492.78307   	((-3.319647e-09 -1.458058e-12 -2.529218e-09) (-9.411355e-09 1.881740e-13 -2.383022e-10)) ((7.354439e-16 -4.310317e-12 4.727830e-16) (-1.041010e-13 1.521650e-09 -5.866723e-14))
20363.181646  	((-3.319565e-09 -1.456107e-12 -2.529174e-09) (-9.411262e-09 1.878966e-13 -2.383170e-10)) ((7.355602e-16 -4.310318e-12 4.726662e-16) (-1.041105e-13 1.521639e-09 -5.869854e-14))
21233.579913  	((-3.319500e-09 -1.453433e-12 -2.529148e-09) (-9.411193e-09 1.876837e-13 -2.383282e-10)) ((7.356277e-16 -4.310318e-12 4.725807e-16) (-1.041179e-13 1.521631e-09 -5.872467e-14))
22103.977936  	((-3.319448e-09 -1.452355e-12 -2.529121e-09) (-9.411142e-09 1.875391e-13 -2.383366e-10)) ((7.356950e-16 -4.310318e-12 4.725098e-16) (-1.041227e-13 1.521624e-09 -5.874559e-14))
22974.375766  	((-3.319404e-09 -1.451256e-12 -2.529097e-09) (-9.411103e-09 1.874204e-13 -2.383428e-10)) ((7.357424e-16 -4.310318e-12 4.724510e-16) (-1.041250e-13 1.521619e-09 -5.876187e-14))
23844.773442  	((-3.319371e-09 -1.450122e-12 -2.529082e-09) (-9.411074e-09 1.873132e-13 -2.383476e-10)) ((7.357779e-16 -4.310319e-12 4.724034e-16) (-1.041273e-13 1.521615e-09 -5.877522e-14))
24715.170998  	((-3.319345e-09 -1.449309e-12 -2.529065e-09) (-9.411052e-09 1.872293e-13 -2.383513e-10)) ((7.358081e-16 -4.310319e-12 4.723652e-16) (-1.041294e-13 1.521611e-09 -5.878612e-14))
25585.568457  	((-3.319324e-09 -1.448819e-12 -2.529053e-09) (-9.411035e-09 1.871618e-13 -2.383541e-10)) ((7.358327e-16 -4.310319e-12 4.723309e-16) (-1.041304e-13 1.521609e-09 -5.879458e-14))
26455.965839  	((-3.319309e-09 -1.458458e-12 -2.529030e-09) (-9.411023e-09 1.870352e-13 -2.383564e-10)) ((7.359351e-16 -4.310319e-12 4.723322e-16) (-1.041327e-13 1.521607e-09 -5.880297e-14))
27326.363161  	((-3.319299e-09 -1.457286e-12 -2.529023e-09) (-9.411013e-09 1.866519e-13 -2.383581e-10)) ((7.358342e-16 -4.310319e-12 4.723380e-16) (-1.041459e-13 1.521605e-09 -5.880775e-14))
28196.760434  	((-3.319293e-09 -1.456569e-12 -2.529016e-09) (-9.411006e-09 1.863607e-13 -2.383594e-10)) ((7.358017e-16 -4.310319e-12 4.723225e-16) (-1.041560e-13 1.521604e-09 -5.881198e-14))
29067.157669  	((-3.319289e-09 -1.456360e-12 -2.529013e-09) (-9.411001e-09 1.861991e-13 -2.383606e-10)) ((7.357792e-16 -4.310319e-12 4.723045e-16) (-1.041623e-13 1.521603e-09 -5.881482e-14))
29937.554874  	((-3.319285e-09 -1.456239e-12 -2.529010e-09) (-9.410997e-09 1.860767e-13 -2.383615e-10)) ((7.357692e-16 -4.310319e-12 4.722918e-16) (-1.041671e-13 1.521602e-09 -5.881669e-14))
30807.952055  	((-3.319282e-09 -1.456276e-12 -2.529009e-09) (-9.410994e-09 1.859932e-13 -2.383622e-10)) ((7.357648e-16 -4.310319e-12 4.722826e-16) (-1.041700e-13 1.521601e-09 -5.881796e-14))
31678.349216  	((-3.319279e-09 -1.456325e-12 -2.529007e-09) (-9.410991e-09 1.859244e-13 -2.383628e-10)) ((7.357628e-16 -4.310319e-12 4.722756e-16) (-1.041723e-13 1.521601e-09 -5.881878e-14))
32548.746363  	((-3.319277e-09 -1.456386e-12 -2.529006e-09) (-9.410989e-09 1.858752e-13 -2.383633e-10)) ((7.357619e-16 -4.310319e-12 4.722702e-16) (-1.041738e-13 1.521601e-09 -5.881924e-14))
33419.143497  	((-3.319275e-09 -1.456589e-12 -2.529005e-09) (-9.410988e-09 1.858322e-13 -2.383636e-10)) ((7.357603e-16 -4.310319e-12 4.722662e-16) (-1.041746e-13 1.521600e-09 -5.881944e-14))
34289.540621  	((-3.319272e-09 -1.457064e-12 -2.529005e-09) (-9.410987e-09 1.857597e-13 -2.383639e-10)) ((7.357539e-16 -4.310319e-12 4.722657e-16) (-1.041753e-13 1.521600e-09 -5.881950e-14))
35159.937738  	((-3.319274e-09 -1.455217e-12 -2.529005e-09) (-9.410986e-09 1.857090e-13 -2.383640e-10)) ((7.357699e-16 -4.310319e-12 4.722602e-16) (-1.041814e-13 1.521600e-09 -5.881920e-14))
36030.334849  	((-3.319274e-09 -1.454479e-12 -2.529004e-09) (-9.410985e-09 1.856640e-13 -2.383641e-10)) ((7.357858e-16 -4.310318e-12 4.722560e-16) (-1.041867e-13 1.521600e-09 -5.881912e-14))
36900.731954  	((-3.319273e-09 -1.454415e-12 -2.529004e-09) (-9.410985e-09 1.856686e-13 -2.383642e-10)) ((7.357882e-16 -4.310318e-12 4.722529e-16) (-1.041873e-13 1.521599e-09 -5.881905e-14))
37771.129056  	((-3.319273e-09 -1.454159e-12 -2.529004e-09) (-9.410985e-09 1.857048e-13 -2.383644e-10)) ((7.357928e-16 -4.310318e-12 4.722523e-16) (-1.041874e-13 1.521599e-09 -5.881805e-14))
