# Forces      
# CofR        : (0.000000e+00 0.000000e+00 0.000000e+00)
# Time        forces(pressure viscous)	moments(pressure viscous)
0             	((0.000000e+00 0.000000e+00 0.000000e+00) (0.000000e+00 0.000000e+00 0.000000e+00)) ((0.000000e+00 0.000000e+00 0.000000e+00) (0.000000e+00 0.000000e+00 0.000000e+00))
0.012         	((1.629045e-12 -3.800576e-10 4.943493e-12) (4.863775e-14 -4.262772e-12 1.800563e-14)) ((2.733664e-14 1.009697e-16 5.231708e-12) (-8.140323e-14 -2.226329e-15 1.063920e-08))
0.0264        	((-1.239617e-12 1.378455e-10 -1.146294e-11) (5.517741e-14 -4.547840e-12 2.774227e-14)) ((6.431466e-14 -4.716498e-16 1.568477e-12) (-1.448059e-13 -2.137155e-15 9.311742e-09))
0.04368       	((7.330209e-12 -6.944486e-11 6.805120e-12) (6.929086e-14 -2.981981e-12 6.047095e-14)) ((-2.957663e-14 8.041519e-17 8.208976e-13) (-1.223825e-13 -2.913326e-15 8.052745e-09))
0.064416      	((5.135953e-12 -5.528463e-12 -2.918094e-12) (6.877235e-14 -1.596935e-12 4.935630e-14)) ((8.255979e-15 1.305824e-16 5.502788e-13) (-6.253319e-14 -3.595907e-15 6.896635e-09))
0.0892992     	((7.409655e-12 -3.347474e-11 2.017600e-12) (5.825506e-14 -1.013289e-12 4.147118e-15)) ((-9.011884e-15 6.507378e-16 4.427531e-13) (-3.001001e-14 -3.512225e-15 5.873993e-09))
0.119159      	((2.984695e-12 -2.868488e-12 1.363562e-12) (8.415763e-14 -8.606868e-13 -2.005970e-14)) ((-5.519743e-15 5.039245e-16 3.511602e-13) (1.187366e-14 -4.298650e-15 4.999094e-09))
0.154991      	((5.571305e-12 -2.797962e-11 9.573166e-13) (1.010813e-13 -6.382520e-13 -3.195276e-14)) ((-5.278413e-15 6.528575e-16 2.803970e-13) (4.230663e-14 -4.727573e-15 4.278301e-09))
0.197989      	((5.184940e-12 -2.176728e-11 1.338824e-12) (5.783903e-14 -4.007985e-13 -1.897669e-14)) ((-4.177806e-15 3.842956e-16 2.190973e-13) (5.787631e-14 -2.233564e-15 3.699447e-09))
0.249587      	((7.138921e-12 -2.525528e-11 7.708697e-13) (-1.466752e-14 -1.388805e-13 1.828167e-14)) ((-4.245271e-15 2.501503e-16 1.806872e-13) (5.326656e-14 1.787313e-15 3.238937e-09))
0.311504      	((1.148768e-11 -3.279479e-11 2.222347e-12) (-6.159877e-14 8.427770e-14 4.102250e-14)) ((-3.041449e-15 -3.224591e-17 1.597111e-13) (4.453193e-14 4.276219e-15 2.868887e-09))
0.385805      	((1.389512e-11 -4.230112e-11 1.955653e-12) (-5.446872e-14 -8.684470e-14 6.511110e-14)) ((-2.293688e-15 5.926665e-17 1.392069e-13) (3.382670e-14 5.217956e-15 2.563996e-09))
0.474966      	((1.895524e-11 -5.127362e-11 3.626470e-12) (-1.281350e-13 -2.342654e-13 1.178216e-13)) ((2.611687e-16 -1.112003e-16 1.214317e-13) (1.070539e-14 6.175396e-15 2.305291e-09))
0.581959      	((2.500127e-11 -6.639332e-11 4.500018e-12) (-2.132817e-13 -4.427090e-13 2.142915e-13)) ((1.435349e-15 -1.842532e-17 1.126224e-13) (-3.507070e-14 7.755134e-15 2.080319e-09))
0.710351      	((3.083116e-11 -6.617035e-11 5.719834e-12) (-4.958328e-13 -1.053868e-12 3.720955e-13)) ((2.902121e-15 2.615591e-17 1.071649e-13) (-7.375612e-14 1.284151e-14 1.881356e-09))
0.864421      	((3.452944e-11 -5.331076e-11 5.196275e-12) (-1.052379e-12 -8.143977e-13 4.372506e-13)) ((4.466084e-15 2.569731e-16 1.020936e-13) (-6.676419e-14 2.437841e-14 1.703546e-09))
1.049306      	((3.661131e-11 -4.790045e-11 4.277576e-12) (-1.758808e-12 6.325836e-13 5.969642e-13)) ((5.632367e-15 4.458646e-16 9.665538e-14) (-2.551596e-14 3.643334e-14 1.543891e-09))
1.271167      	((3.226957e-11 -4.176746e-11 4.786543e-12) (-3.111469e-12 2.626589e-12 8.055073e-13)) ((7.129162e-15 7.609358e-16 9.257236e-14) (2.561632e-14 6.366119e-14 1.400874e-09))
1.5374        	((2.472597e-11 -4.080122e-11 3.418675e-12) (-5.226291e-12 4.901124e-12 8.972247e-13)) ((6.377237e-15 8.943054e-16 8.963378e-14) (8.221630e-14 1.189165e-13 1.273763e-09))
1.85688       	((1.750664e-11 -3.151540e-11 8.030169e-13) (-7.807700e-12 6.608723e-12 1.031339e-12)) ((5.822915e-15 1.146340e-15 8.587754e-14) (1.441616e-13 1.826970e-13 1.161860e-09))
2.240256      	((9.358563e-12 -2.103897e-11 -9.262179e-13) (-1.093411e-11 8.435411e-12 1.269777e-12)) ((6.765461e-15 1.298844e-15 8.123596e-14) (2.229977e-13 2.679158e-13 1.064054e-09))
2.700307      	((5.710361e-12 -1.288142e-11 -3.245895e-12) (-1.424543e-11 1.134498e-11 1.718924e-12)) ((6.256546e-15 1.306424e-15 7.716802e-14) (3.273323e-13 3.706810e-13 9.787004e-10))
3.252369      	((-4.831595e-13 -7.337274e-12 -1.937323e-12) (-1.741397e-11 1.477074e-11 2.143301e-12)) ((5.172904e-15 1.255727e-15 7.191163e-14) (4.232488e-13 4.654621e-13 9.038653e-10))
3.914842      	((-7.066792e-13 3.413353e-12 -2.974197e-12) (-1.953975e-11 1.766674e-11 2.345594e-12)) ((3.944506e-15 9.800929e-16 6.714269e-14) (4.786148e-13 5.271246e-13 8.375905e-10))
4.709811      	((-5.148201e-12 1.159631e-11 -4.098637e-12) (-2.047904e-11 1.945898e-11 2.565878e-12)) ((2.652275e-15 5.040732e-16 6.301782e-14) (5.122705e-13 5.591181e-13 7.782090e-10))
5.663773      	((-6.277386e-12 5.155460e-12 -4.649789e-12) (-2.021428e-11 1.967328e-11 2.687363e-12)) ((2.736138e-15 9.385745e-17 5.878503e-14) (5.034774e-13 5.619721e-13 7.245047e-10))
6.808528      	((-7.055059e-12 5.183454e-12 -4.660892e-12) (-1.859219e-11 1.817850e-11 2.769298e-12)) ((2.510015e-15 -7.029222e-17 5.476297e-14) (4.502421e-13 5.253752e-13 6.755196e-10))
8.182233      	((-5.435093e-12 3.718906e-12 -4.526758e-12) (-1.607246e-11 1.549826e-11 2.866878e-12)) ((1.716466e-15 -3.696258e-16 5.086529e-14) (3.872729e-13 4.577823e-13 6.305181e-10))
9.83068       	((-5.620702e-12 -1.972971e-12 -5.025314e-12) (-1.292698e-11 1.237943e-11 2.935350e-12)) ((1.806083e-15 -6.318788e-16 4.725196e-14) (3.089747e-13 3.788920e-13 5.890968e-10))
11.808816     	((-2.800704e-13 -9.062441e-12 -4.883247e-12) (-9.698937e-12 9.137840e-12 3.219795e-12)) ((9.625439e-16 -9.501077e-16 4.387539e-14) (2.119429e-13 2.954447e-13 5.510741e-10))
14.182579     	((5.762136e-13 -5.819061e-12 -5.229361e-12) (-6.890122e-12 6.482371e-12 3.466133e-12)) ((-8.992250e-18 -1.056599e-15 4.063244e-14) (1.281756e-13 2.237916e-13 5.162235e-10))
17.031095     	((4.265714e-12 -5.914607e-12 -4.720793e-12) (-4.726163e-12 4.473784e-12 3.615220e-12)) ((-8.565321e-16 -8.738180e-16 3.781544e-14) (8.426489e-14 1.684410e-13 4.843203e-10))
20.449314     	((5.135082e-12 -6.829235e-12 -4.635382e-12) (-3.435005e-12 3.255137e-12 3.721829e-12)) ((-1.105660e-15 -8.353584e-16 3.517539e-14) (6.304779e-14 1.378763e-13 4.551499e-10))
24.551176     	((6.967400e-12 -7.561868e-12 -4.775801e-12) (-2.975270e-12 2.867672e-12 3.731866e-12)) ((-1.434495e-15 -7.565459e-16 3.282969e-14) (6.548711e-14 1.273304e-13 4.284681e-10))
29.473411     	((5.871378e-12 -5.854867e-12 -5.249594e-12) (-3.226540e-12 3.349506e-12 3.858965e-12)) ((-1.474577e-15 -6.876932e-16 3.079159e-14) (8.250084e-14 1.323139e-13 4.040290e-10))
35.380094     	((5.295458e-12 -5.468777e-12 -6.283063e-12) (-3.988791e-12 4.475965e-12 3.916289e-12)) ((-1.509652e-15 -6.579142e-16 2.899283e-14) (1.173768e-13 1.471507e-13 3.816202e-10))
42.468112     	((3.984689e-12 -3.801033e-12 -7.205930e-12) (-4.981257e-12 5.817064e-12 4.007858e-12)) ((-1.582854e-15 -6.174644e-16 2.736988e-14) (1.562992e-13 1.665970e-13 3.610863e-10))
50.973735     	((3.855410e-12 -3.920507e-12 -7.932125e-12) (-5.896704e-12 6.935119e-12 4.214892e-12)) ((-1.600278e-15 -5.639587e-16 2.582318e-14) (1.894907e-13 1.859437e-13 3.423233e-10))
61.180482     	((2.985130e-12 -2.548718e-12 -8.894558e-12) (-6.633686e-12 7.861908e-12 4.516767e-12)) ((-1.587193e-15 -4.943529e-16 2.438128e-14) (2.177773e-13 2.013129e-13 3.252230e-10))
73.428578     	((2.332595e-12 -2.854724e-12 -9.779976e-12) (-7.248961e-12 8.507938e-12 4.899753e-12)) ((-1.616118e-15 -4.395235e-16 2.308247e-14) (2.360317e-13 2.151570e-13 3.096700e-10))
88.126294     	((1.785857e-12 -1.810532e-12 -1.054750e-11) (-7.682448e-12 8.881178e-12 5.324930e-12)) ((-1.680517e-15 -3.897219e-16 2.192337e-14) (2.451919e-13 2.238467e-13 2.955494e-10))
105.763553    	((1.001251e-12 -1.081779e-12 -1.139849e-11) (-7.940666e-12 9.149762e-12 5.717989e-12)) ((-1.715916e-15 -3.604219e-16 2.090488e-14) (2.532713e-13 2.271905e-13 2.827348e-10))
126.928263    	((5.099125e-13 -8.958802e-13 -1.216549e-11) (-8.046063e-12 9.299874e-12 6.090047e-12)) ((-1.693865e-15 -3.160630e-16 2.001318e-14) (2.575156e-13 2.261158e-13 2.710921e-10))
152.325916    	((3.301108e-13 -9.265269e-13 -1.314700e-11) (-8.059298e-12 9.267477e-12 6.469031e-12)) ((-1.620148e-15 -2.713037e-16 1.920035e-14) (2.566973e-13 2.241952e-13 2.604977e-10))
182.803099    	((1.897517e-13 -7.564095e-13 -1.396127e-11) (-7.961828e-12 9.163158e-12 6.915048e-12)) ((-1.525248e-15 -2.373639e-16 1.842503e-14) (2.530524e-13 2.206613e-13 2.508428e-10))
219.375719    	((3.334561e-14 -3.490757e-13 -1.486751e-11) (-7.761195e-12 8.997777e-12 7.353258e-12)) ((-1.470091e-15 -1.933886e-16 1.770113e-14) (2.463254e-13 2.143565e-13 2.420325e-10))
263.262863    	((-1.041615e-13 -2.557124e-14 -1.582089e-11) (-7.481133e-12 8.725025e-12 7.814844e-12)) ((-1.445575e-15 -1.579371e-16 1.703214e-14) (2.354859e-13 2.058314e-13 2.339879e-10))
315.927436    	((-3.463778e-13 1.766388e-13 -1.675858e-11) (-7.156800e-12 8.408911e-12 8.274390e-12)) ((-1.396326e-15 -1.030614e-16 1.642199e-14) (2.226712e-13 1.961802e-13 2.266404e-10))
379.124923    	((-5.566248e-13 1.163143e-13 -1.767711e-11) (-6.848147e-12 8.038003e-12 8.735178e-12)) ((-1.317278e-15 -7.062188e-17 1.586197e-14) (2.103494e-13 1.871742e-13 2.199334e-10))
454.961908    	((-7.581348e-13 -1.566646e-14 -1.821722e-11) (-6.546497e-12 7.632678e-12 9.243051e-12)) ((-1.239238e-15 -5.673112e-17 1.536533e-14) (1.971767e-13 1.790797e-13 2.138217e-10))
545.966289    	((-7.773237e-13 2.729429e-14 -1.894947e-11) (-6.228574e-12 7.182997e-12 9.733079e-12)) ((-1.193980e-15 -6.978807e-17 1.492163e-14) (1.825435e-13 1.704365e-13 2.082646e-10))
655.171547    	((-7.185656e-13 2.658579e-13 -1.964881e-11) (-5.883837e-12 6.747710e-12 1.020007e-11)) ((-1.175462e-15 -7.992700e-17 1.452321e-14) (1.689975e-13 1.603836e-13 2.032243e-10))
786.217856    	((-7.104582e-13 5.306945e-13 -2.032672e-11) (-5.522448e-12 6.329148e-12 1.064959e-11)) ((-1.185239e-15 -9.294930e-17 1.416743e-14) (1.566841e-13 1.495329e-13 1.986658e-10))
943.473427    	((-7.177254e-13 7.926500e-13 -2.098553e-11) (-5.157588e-12 5.901685e-12 1.108958e-11)) ((-1.200115e-15 -1.004083e-16 1.385522e-14) (1.444391e-13 1.377997e-13 1.945512e-10))
1132.180113   	((-7.206341e-13 1.075211e-12 -2.158781e-11) (-4.801394e-12 5.489806e-12 1.151768e-11)) ((-1.223007e-15 -1.201127e-16 1.355445e-14) (1.331139e-13 1.255600e-13 1.908457e-10))
1358.628135   	((-6.987255e-13 1.441530e-12 -2.220573e-11) (-4.457425e-12 5.114326e-12 1.194459e-11)) ((-1.233616e-15 -1.327886e-16 1.327715e-14) (1.231098e-13 1.137019e-13 1.875149e-10))
1630.365763   	((-6.821750e-13 1.776672e-12 -2.284329e-11) (-4.122690e-12 4.757086e-12 1.235499e-11)) ((-1.241732e-15 -1.388936e-16 1.302299e-14) (1.136983e-13 1.022368e-13 1.845234e-10))
1956.450915   	((-7.158110e-13 2.067190e-12 -2.339411e-11) (-3.812332e-12 4.422009e-12 1.275041e-11)) ((-1.248714e-15 -1.466278e-16 1.279522e-14) (1.048261e-13 9.178080e-14 1.818370e-10))
2347.753098   	((-7.399764e-13 2.428224e-12 -2.397647e-11) (-3.525370e-12 4.114317e-12 1.313288e-11)) ((-1.250511e-15 -1.552062e-16 1.259197e-14) (9.657780e-14 8.215867e-14 1.794257e-10))
2817.315718   	((-7.470702e-13 2.825425e-12 -2.459580e-11) (-3.257675e-12 3.837552e-12 1.351838e-11)) ((-1.244978e-15 -1.645653e-16 1.241121e-14) (8.904982e-14 7.320695e-14 1.772621e-10))
3380.790861   	((-7.277923e-13 3.227478e-12 -2.526246e-11) (-3.011099e-12 3.597262e-12 1.391405e-11)) ((-1.228498e-15 -1.720430e-16 1.224259e-14) (8.241241e-14 6.517919e-14 1.753197e-10))
4056.961033   	((-6.771021e-13 3.724991e-12 -2.598352e-11) (-2.795834e-12 3.387224e-12 1.430382e-11)) ((-1.205347e-15 -1.816615e-16 1.208977e-14) (7.650720e-14 5.841016e-14 1.735741e-10))
4868.36524    	((-5.336886e-13 4.303917e-12 -2.676575e-11) (-2.607105e-12 3.206136e-12 1.467011e-11)) ((-1.184098e-15 -1.954935e-16 1.195393e-14) (7.122493e-14 5.308616e-14 1.720038e-10))
5842.050288   	((-3.028354e-13 5.022729e-12 -2.764377e-11) (-2.442253e-12 3.052124e-12 1.500260e-11)) ((-1.162738e-15 -2.118019e-16 1.182965e-14) (6.658769e-14 4.856316e-14 1.705896e-10))
7010.472346   	((1.148716e-14 5.930204e-12 -2.865501e-11) (-2.294212e-12 2.919890e-12 1.529745e-11)) ((-1.136938e-15 -2.230527e-16 1.171419e-14) (6.257637e-14 4.481437e-14 1.693152e-10))
8412.578815   	((3.604820e-13 7.001711e-12 -2.979768e-11) (-2.164537e-12 2.807494e-12 1.555394e-11)) ((-1.103954e-15 -2.357958e-16 1.160567e-14) (5.920023e-14 4.175961e-14 1.681652e-10))
10095.106578  	((7.208981e-13 8.235743e-12 -3.109511e-11) (-2.053668e-12 2.713290e-12 1.577053e-11)) ((-1.064667e-15 -2.505442e-16 1.150493e-14) (5.610617e-14 3.939485e-14 1.671261e-10))
12114.139893  	((1.062688e-12 9.688645e-12 -3.255848e-11) (-1.949047e-12 2.632686e-12 1.595210e-11)) ((-1.013583e-15 -2.641353e-16 1.141385e-14) (5.317395e-14 3.733097e-14 1.661860e-10))
14536.979872  	((1.395546e-12 1.139119e-11 -3.417858e-11) (-1.850353e-12 2.566785e-12 1.610231e-11)) ((-9.555684e-16 -2.829938e-16 1.133095e-14) (5.034404e-14 3.529205e-14 1.653346e-10))
17444.387847  	((1.770066e-12 1.328362e-11 -3.598755e-11) (-1.756744e-12 2.515256e-12 1.622259e-11)) ((-8.878435e-16 -3.033224e-16 1.125806e-14) (4.767105e-14 3.340060e-14 1.645633e-10))
20933.277416  	((2.257258e-12 1.536451e-11 -3.799498e-11) (-1.661686e-12 2.474929e-12 1.631736e-11)) ((-8.137271e-16 -3.228539e-16 1.119185e-14) (4.496210e-14 3.162255e-14 1.638638e-10))
25119.944899  	((2.863969e-12 1.758238e-11 -4.015471e-11) (-1.563365e-12 2.444081e-12 1.639165e-11)) ((-7.368868e-16 -3.435216e-16 1.113064e-14) (4.245015e-14 3.008403e-14 1.632289e-10))
30117.00148   	((3.568973e-12 1.992770e-11 -4.246073e-11) (-1.460823e-12 2.423328e-12 1.644419e-11)) ((-6.605312e-16 -3.700275e-16 1.107289e-14) (4.017402e-14 2.863494e-14 1.626524e-10))
35924.459138  	((4.290461e-12 2.228203e-11 -4.479946e-11) (-1.358404e-12 2.412199e-12 1.648357e-11)) ((-5.903874e-16 -3.969134e-16 1.101871e-14) (3.834822e-14 2.720793e-14 1.621286e-10))
42542.328692  	((4.987183e-12 2.454595e-11 -4.713753e-11) (-1.258300e-12 2.406815e-12 1.651011e-11)) ((-5.300004e-16 -4.204031e-16 1.096793e-14) (3.673818e-14 2.587253e-14 1.616523e-10))
49970.619821  	((5.683107e-12 2.668956e-11 -4.939822e-11) (-1.165199e-12 2.403414e-12 1.652951e-11)) ((-4.767738e-16 -4.420556e-16 1.091863e-14) (3.523157e-14 2.476107e-14 1.612190e-10))
58074.922005  	((6.469520e-12 2.872186e-11 -5.154769e-11) (-1.079677e-12 2.395631e-12 1.653661e-11)) ((-4.313044e-16 -4.682208e-16 1.087123e-14) (3.353986e-14 2.400520e-14 1.608246e-10))
66179.300931  	((7.383255e-12 3.064158e-11 -5.356621e-11) (-1.000691e-12 2.382666e-12 1.654153e-11)) ((-3.862261e-16 -4.972058e-16 1.082745e-14) (3.176549e-14 2.347289e-14 1.604653e-10))
74283.748295  	((8.432394e-12 3.249388e-11 -5.544403e-11) (-9.283513e-13 2.367561e-12 1.654716e-11)) ((-3.492227e-16 -5.258440e-16 1.078675e-14) (2.996645e-14 2.307488e-14 1.601379e-10))
82388.256862  	((9.626898e-12 3.429115e-11 -5.721281e-11) (-8.570072e-13 2.346171e-12 1.655257e-11)) ((-3.200863e-16 -5.552327e-16 1.074666e-14) (2.789167e-14 2.273092e-14 1.598394e-10))
90492.82052   	((1.098265e-11 3.598927e-11 -5.881110e-11) (-7.915273e-13 2.317887e-12 1.656052e-11)) ((-2.999854e-16 -5.838234e-16 1.070575e-14) (2.561835e-14 2.255473e-14 1.595673e-10))
98597.434025  	((1.252455e-11 3.756395e-11 -6.028598e-11) (-7.278017e-13 2.284269e-12 1.657181e-11)) ((-2.869416e-16 -6.170956e-16 1.066480e-14) (2.315795e-14 2.242169e-14 1.593189e-10))
106702.092654 	((1.409168e-11 3.897008e-11 -6.158402e-11) (-6.673373e-13 2.248661e-12 1.658923e-11)) ((-2.770145e-16 -6.476622e-16 1.062367e-14) (2.062283e-14 2.233153e-14 1.590924e-10))
114806.792508 	((1.564237e-11 4.013809e-11 -6.275238e-11) (-6.102264e-13 2.207421e-12 1.661051e-11)) ((-2.715415e-16 -6.758012e-16 1.058532e-14) (1.807797e-14 2.233367e-14 1.588856e-10))
122911.530004 	((1.723214e-11 4.105135e-11 -6.361685e-11) (-5.551497e-13 2.163721e-12 1.663060e-11)) ((-2.679330e-16 -7.034868e-16 1.054807e-14) (1.571170e-14 2.252600e-14 1.586966e-10))
131016.301947 	((1.881998e-11 4.171598e-11 -6.449512e-11) (-5.019253e-13 2.118157e-12 1.664832e-11)) ((-2.678056e-16 -7.292902e-16 1.051305e-14) (1.342491e-14 2.278428e-14 1.585238e-10))
139121.105278 	((2.034942e-11 4.213373e-11 -6.532554e-11) (-4.501470e-13 2.068767e-12 1.666466e-11)) ((-2.709923e-16 -7.535014e-16 1.048114e-14) (1.113634e-14 2.301241e-14 1.583659e-10))
147225.937336 	((2.180229e-11 4.234520e-11 -6.610455e-11) (-3.985015e-13 2.015319e-12 1.668490e-11)) ((-2.777770e-16 -7.797711e-16 1.045261e-14) (8.768903e-15 2.292120e-14 1.582214e-10))
155330.795818 	((2.321394e-11 4.241887e-11 -6.678974e-11) (-3.463479e-13 1.960240e-12 1.670739e-11)) ((-2.866013e-16 -8.048051e-16 1.042805e-14) (6.415769e-15 2.250833e-14 1.580893e-10))
163435.679039 	((2.463578e-11 4.236846e-11 -6.741903e-11) (-2.931128e-13 1.903872e-12 1.672630e-11)) ((-2.964414e-16 -8.266213e-16 1.040486e-14) (4.165918e-15 2.199638e-14 1.579682e-10))
171540.585874 	((2.610663e-11 4.220091e-11 -6.807368e-11) (-2.361481e-13 1.849766e-12 1.674276e-11)) ((-3.048599e-16 -8.478145e-16 1.038273e-14) (2.071087e-15 2.129682e-14 1.578572e-10))
179645.515355 	((2.762778e-11 4.201691e-11 -6.870015e-11) (-1.751331e-13 1.802951e-12 1.675638e-11)) ((-3.127167e-16 -8.685593e-16 1.036255e-14) (2.556496e-16 2.035749e-14 1.577555e-10))
187750.466607 	((2.917344e-11 4.186851e-11 -6.933443e-11) (-1.112602e-13 1.765815e-12 1.676732e-11)) ((-3.189159e-16 -8.887218e-16 1.034478e-14) (-1.169156e-15 1.924159e-14 1.576620e-10))
