# Forces      
# CofR        : (0.000000e+00 0.000000e+00 0.000000e+00)
# Time        forces(pressure viscous)	moments(pressure viscous)
0             	((0.000000e+00 0.000000e+00 0.000000e+00) (0.000000e+00 0.000000e+00 0.000000e+00)) ((0.000000e+00 0.000000e+00 0.000000e+00) (0.000000e+00 0.000000e+00 0.000000e+00))
0.012         	((-1.124252e-07 4.093219e-12 -3.825746e-08) (-2.638016e-07 5.125137e-16 -2.392727e-11)) ((-1.733553e-15 1.701729e-11 -1.381166e-15) (-2.879449e-16 1.755509e-08 -1.143395e-16))
0.0264        	((-1.550478e-07 9.067247e-11 -5.008814e-08) (-2.416456e-07 2.759326e-14 -1.456110e-11)) ((-8.958045e-16 -8.756768e-12 -3.432689e-16) (-1.035763e-15 1.609797e-08 7.806401e-16))
0.04368       	((-1.032028e-07 -5.477944e-11 -3.428471e-08) (-2.187811e-07 -2.066138e-14 -8.069553e-14)) ((-1.993437e-15 -6.335676e-12 -1.018039e-15) (-2.700771e-15 1.459886e-08 2.915105e-15))
0.064416      	((-1.181236e-07 6.449543e-11 -3.827727e-08) (-1.957116e-07 -4.861170e-14 9.798650e-12)) ((-9.882109e-16 -1.219111e-11 1.934695e-16) (-5.176733e-15 1.309146e-08 3.444451e-15))
0.0892992     	((-8.648132e-08 -2.815670e-11 -2.869788e-08) (-1.730928e-07 -5.846494e-14 1.108830e-11)) ((-6.107389e-16 -8.703430e-12 -6.743642e-16) (-8.313625e-15 1.161886e-08 1.828562e-15))
0.119159      	((-8.925271e-08 3.180941e-11 -2.848485e-08) (-1.516485e-07 -1.883480e-14 7.999835e-12)) ((-8.013866e-16 -1.056707e-11 -2.840636e-17) (-7.509391e-15 1.022920e-08 -3.846263e-16))
0.154991      	((-6.702420e-08 -1.608966e-11 -2.248087e-08) (-1.320515e-07 4.669403e-15 6.862122e-12)) ((2.288580e-16 -7.387119e-12 -4.606837e-17) (-7.536783e-15 8.951800e-09 -4.046027e-15))
0.197989      	((-6.632557e-08 1.193265e-11 -2.096940e-08) (-1.147080e-07 1.478584e-14 5.134092e-12)) ((4.015047e-16 -8.310301e-12 5.979858e-17) (-7.193698e-15 7.820217e-09 -7.307967e-15))
0.249587      	((-5.139365e-08 -6.398293e-12 -1.723863e-08) (-9.992571e-08 3.278965e-14 2.477400e-12)) ((2.511822e-16 -5.944677e-12 -2.276697e-17) (-5.935125e-15 6.848465e-09 -8.936321e-15))
0.311504      	((-4.997941e-08 1.838668e-12 -1.571280e-08) (-8.763730e-08 3.420851e-14 4.575583e-13)) ((6.933001e-16 -6.550678e-12 -6.304834e-17) (-6.711991e-15 6.037159e-09 -8.894560e-15))
0.385805      	((-4.023045e-08 -1.198083e-12 -1.346180e-08) (-7.748569e-08 2.373201e-14 -8.481982e-13)) ((1.606361e-16 -4.877458e-12 -8.919259e-17) (-6.294428e-15 5.366201e-09 -8.952273e-15))
0.474966      	((-3.904058e-08 1.505191e-12 -1.227752e-08) (-6.909002e-08 3.115434e-14 -2.530433e-12)) ((6.961676e-16 -5.295340e-12 -5.962917e-17) (-5.419670e-15 4.812213e-09 -1.189320e-14))
0.581959      	((-3.250004e-08 2.665064e-13 -1.083790e-08) (-6.202389e-08 5.176269e-14 -4.049854e-12)) ((1.102943e-16 -4.084996e-12 7.746132e-17) (3.938759e-16 4.345578e-09 -9.235844e-15))
0.710351      	((-3.150576e-08 -1.016606e-12 -9.901759e-09) (-5.595494e-08 2.522130e-14 -3.463036e-12)) ((9.474361e-16 -4.396731e-12 1.164804e-16) (2.957763e-15 3.946183e-09 -1.617775e-16))
0.864421      	((-2.683168e-08 1.670406e-12 -8.916086e-09) (-5.061913e-08 4.525550e-15 -5.018460e-12)) ((4.877113e-16 -3.544347e-12 1.376292e-16) (3.148966e-15 3.595334e-09 8.406838e-16))
1.049306      	((-2.581452e-08 3.293235e-13 -8.118532e-09) (-4.586735e-08 -4.103213e-15 -5.223422e-12)) ((1.152095e-15 -3.785661e-12 1.328561e-16) (-8.983943e-15 3.284412e-09 -5.708549e-15))
1.271167      	((-2.220137e-08 1.725330e-12 -7.338939e-09) (-4.157811e-08 4.259901e-14 -6.757130e-12)) ((8.203982e-16 -3.194216e-12 4.974278e-16) (-2.087184e-14 3.004078e-09 -1.390098e-14))
1.5374        	((-2.110388e-08 1.999092e-12 -6.664981e-09) (-3.770714e-08 6.403604e-14 -7.848597e-12)) ((1.444870e-15 -3.323594e-12 7.351730e-16) (-3.213572e-14 2.751355e-09 -1.907056e-14))
1.85688       	((-1.828400e-08 1.946232e-12 -6.031335e-09) (-3.420855e-08 1.385427e-13 -1.040197e-11)) ((1.418818e-15 -2.882498e-12 6.879840e-16) (-4.382532e-14 2.523337e-09 -1.915492e-14))
2.240256      	((-1.714705e-08 1.557519e-12 -5.473030e-09) (-3.106729e-08 1.547973e-13 -1.086280e-11)) ((1.877550e-15 -2.925095e-12 5.822171e-16) (-6.329693e-14 2.318475e-09 -1.547187e-14))
2.700307      	((-1.503242e-08 1.252102e-12 -4.983433e-09) (-2.828561e-08 9.644225e-14 -1.067095e-11)) ((1.597621e-15 -2.611570e-12 6.586407e-16) (-9.741649e-14 2.137281e-09 1.041137e-15))
3.252369      	((-1.399953e-08 3.073468e-12 -4.539443e-09) (-2.582822e-08 4.961934e-14 -1.012496e-11)) ((1.849069e-15 -2.620262e-12 6.228482e-16) (-1.334707e-13 1.976990e-09 4.179632e-14))
3.914842      	((-1.247989e-08 -3.676894e-13 -4.153607e-09) (-2.366997e-08 -9.525939e-14 -8.538502e-12)) ((1.503351e-15 -2.439813e-12 7.563367e-16) (-1.660876e-13 1.836653e-09 9.506974e-14))
4.709811      	((-1.155178e-08 -7.730318e-14 -3.805570e-09) (-2.177112e-08 -9.519602e-14 -8.289682e-12)) ((1.249640e-15 -2.421693e-12 1.034957e-15) (-1.822727e-13 1.713415e-09 1.379649e-13))
5.663773      	((-1.044669e-08 -2.400941e-13 -3.504566e-09) (-2.008526e-08 2.090063e-14 -1.024784e-11)) ((7.706666e-16 -2.304313e-12 1.198544e-15) (-1.764823e-13 1.604250e-09 1.639718e-13))
6.808528      	((-9.634556e-09 2.723710e-12 -3.223208e-09) (-1.857239e-08 2.547550e-13 -1.304954e-11)) ((1.255349e-15 -2.256029e-12 1.270618e-15) (-1.639511e-13 1.506573e-09 1.689597e-13))
8.182233      	((-8.780530e-09 2.851209e-12 -2.980097e-09) (-1.720040e-08 4.505837e-13 -1.642248e-11)) ((9.945932e-16 -2.180042e-12 1.188256e-15) (-1.595921e-13 1.418482e-09 1.637881e-13))
9.83068       	((-8.050530e-09 3.033361e-12 -2.748646e-09) (-1.594509e-08 5.606032e-13 -1.904928e-11)) ((1.217805e-15 -2.126925e-12 1.086112e-15) (-1.567745e-13 1.338335e-09 1.567028e-13))
11.808816     	((-7.363861e-09 2.021705e-12 -2.548412e-09) (-1.479370e-08 5.956970e-13 -1.993233e-11)) ((7.325802e-16 -2.071543e-12 9.578328e-16) (-1.423403e-13 1.265290e-09 1.390032e-13))
14.182579     	((-6.761002e-09 1.999700e-12 -2.360889e-09) (-1.373615e-08 7.521396e-13 -2.002561e-11)) ((7.415150e-16 -2.018655e-12 8.315841e-16) (-1.178730e-13 1.198557e-09 1.174108e-13))
17.031095     	((-6.198550e-09 2.087798e-12 -2.188411e-09) (-1.276377e-08 9.058639e-13 -1.945530e-11)) ((5.230209e-16 -1.975949e-12 7.237014e-16) (-9.545322e-14 1.137759e-09 9.288521e-14))
20.449314     	((-5.694976e-09 2.308669e-12 -2.026523e-09) (-1.187219e-08 1.046208e-12 -1.984501e-11)) ((5.785160e-16 -1.932955e-12 5.875960e-16) (-7.262157e-14 1.082454e-09 6.112292e-14))
24.551176     	((-5.223249e-09 1.578356e-12 -1.877555e-09) (-1.105574e-08 1.131033e-12 -1.952562e-11)) ((4.862960e-16 -1.902099e-12 4.499667e-16) (-5.474668e-14 1.032167e-09 3.323733e-14))
29.473411     	((-4.798233e-09 1.261524e-12 -1.743148e-09) (-1.030942e-08 1.138636e-12 -1.915418e-11)) ((5.274223e-16 -1.871926e-12 3.612546e-16) (-4.231030e-14 9.865096e-10 1.187466e-14))
35.380094     	((-4.404717e-09 1.163243e-12 -1.624111e-09) (-9.628182e-09 1.147211e-12 -1.892423e-11)) ((5.100592e-16 -1.848459e-12 3.065468e-16) (-3.631272e-14 9.450645e-10 -1.946144e-15))
42.468112     	((-4.050743e-09 1.154696e-12 -1.519398e-09) (-9.005568e-09 1.137773e-12 -1.924289e-11)) ((5.306389e-16 -1.825975e-12 2.400707e-16) (-3.564177e-14 9.073557e-10 -7.740563e-15))
50.973735     	((-3.722615e-09 1.229587e-12 -1.427693e-09) (-8.436287e-09 1.137131e-12 -1.983962e-11)) ((4.975712e-16 -1.807418e-12 1.810287e-16) (-3.585510e-14 8.730462e-10 -1.041300e-14))
61.180482     	((-3.425967e-09 1.154145e-12 -1.341388e-09) (-7.916689e-09 1.102750e-12 -2.021568e-11)) ((4.828715e-16 -1.790309e-12 1.150761e-16) (-3.715727e-14 8.418773e-10 -8.922367e-15))
73.428578     	((-3.154401e-09 5.955936e-13 -1.267642e-09) (-7.442967e-09 9.636215e-13 -1.992881e-11)) ((5.160545e-16 -1.776146e-12 1.151668e-16) (-3.970465e-14 8.136749e-10 -8.767684e-15))
88.126294     	((-2.908286e-09 3.077236e-13 -1.200055e-09) (-7.012034e-09 8.205970e-13 -1.916270e-11)) ((4.566520e-16 -1.763677e-12 1.349554e-16) (-4.317515e-14 7.882225e-10 -7.809018e-15))
105.763553    	((-2.692971e-09 1.022714e-13 -1.140776e-09) (-6.621377e-09 6.500888e-13 -1.825908e-11)) ((3.836306e-16 -1.753495e-12 1.653780e-16) (-4.963302e-14 7.653379e-10 -6.932947e-15))
126.928263    	((-2.498115e-09 -1.145418e-13 -1.086654e-09) (-6.268036e-09 5.611969e-13 -1.744194e-11)) ((3.654782e-16 -1.744885e-12 1.966476e-16) (-5.385403e-14 7.448196e-10 -4.208787e-15))
152.325916    	((-2.325203e-09 -3.878205e-13 -1.032101e-09) (-5.948656e-09 5.065152e-13 -1.685192e-11)) ((3.524790e-16 -1.737846e-12 2.081326e-16) (-5.620551e-14 7.264303e-10 -1.145778e-15))
182.803099    	((-2.171955e-09 -4.345586e-13 -9.839312e-10) (-5.660521e-09 4.579672e-13 -1.653705e-11)) ((3.435661e-16 -1.731654e-12 2.020486e-16) (-5.953748e-14 7.099753e-10 1.159333e-15))
219.375719    	((-2.036542e-09 -4.638332e-13 -9.466821e-10) (-5.400744e-09 3.832035e-13 -1.670886e-11)) ((3.569614e-16 -1.726589e-12 1.843415e-16) (-6.158612e-14 6.952664e-10 2.048213e-15))
263.262863    	((-1.916038e-09 -4.228330e-13 -9.148417e-10) (-5.166638e-09 3.484833e-13 -1.721904e-11)) ((3.564996e-16 -1.722555e-12 1.874028e-16) (-6.083706e-14 6.821363e-10 2.323835e-15))
315.927436    	((-1.810269e-09 -4.417758e-13 -8.869005e-10) (-4.956167e-09 3.269329e-13 -1.789193e-11)) ((3.572726e-16 -1.719288e-12 1.861935e-16) (-5.870614e-14 6.704395e-10 1.959000e-15))
379.124923    	((-1.717858e-09 -4.198744e-13 -8.643653e-10) (-4.767528e-09 3.179818e-13 -1.887798e-11)) ((3.439559e-16 -1.716738e-12 1.871581e-16) (-5.538887e-14 6.600557e-10 2.387901e-15))
454.961908    	((-1.638638e-09 -4.485897e-13 -8.469551e-10) (-4.599465e-09 3.099817e-13 -2.010928e-11)) ((3.399554e-16 -1.714759e-12 1.874341e-16) (-5.241881e-14 6.508926e-10 3.027606e-15))
545.966289    	((-1.571659e-09 -3.871526e-13 -8.327545e-10) (-4.450847e-09 2.956011e-13 -2.158810e-11)) ((3.161601e-16 -1.713153e-12 1.798769e-16) (-5.022396e-14 6.428669e-10 3.559447e-15))
655.171547    	((-1.515723e-09 -4.035894e-13 -8.226054e-10) (-4.320705e-09 2.775800e-13 -2.330010e-11)) ((3.017978e-16 -1.711768e-12 1.806028e-16) (-4.865740e-14 6.359023e-10 3.770586e-15))
786.217856    	((-1.469378e-09 -4.623975e-13 -8.153161e-10) (-4.208029e-09 2.514180e-13 -2.502688e-11)) ((2.946892e-16 -1.710641e-12 1.854583e-16) (-4.730415e-14 6.299174e-10 3.255155e-15))
943.473427    	((-1.431662e-09 -5.174424e-13 -8.103181e-10) (-4.111822e-09 2.301875e-13 -2.668780e-11)) ((2.886045e-16 -1.709694e-12 1.872829e-16) (-4.617867e-14 6.248348e-10 1.862589e-15))
1132.180113   	((-1.401173e-09 -5.375670e-13 -8.070782e-10) (-4.030934e-09 2.115961e-13 -2.832674e-11)) ((2.852654e-16 -1.708936e-12 1.869274e-16) (-4.582702e-14 6.205736e-10 -4.124200e-16))
1358.628135   	((-1.376751e-09 -5.561121e-13 -8.047124e-10) (-3.963980e-09 1.943558e-13 -2.994681e-11)) ((2.808238e-16 -1.708334e-12 1.889848e-16) (-4.550032e-14 6.170487e-10 -3.439097e-15))
1630.365763   	((-1.357373e-09 -5.503581e-13 -8.030860e-10) (-3.909443e-09 1.813959e-13 -3.150613e-11)) ((2.772445e-16 -1.707846e-12 1.901984e-16) (-4.551904e-14 6.141728e-10 -6.617964e-15))
1956.450915   	((-1.342202e-09 -5.442232e-13 -8.020694e-10) (-3.865741e-09 1.726047e-13 -3.293897e-11)) ((2.759655e-16 -1.707452e-12 1.911961e-16) (-4.546227e-14 6.118583e-10 -9.581043e-15))
2347.753098   	((-1.330485e-09 -5.290358e-13 -8.013067e-10) (-3.831279e-09 1.684702e-13 -3.421730e-11)) ((2.762137e-16 -1.707144e-12 1.912748e-16) (-4.542086e-14 6.100196e-10 -1.211872e-14))
2817.315718   	((-1.321422e-09 -5.149388e-13 -8.007259e-10) (-3.804499e-09 1.680728e-13 -3.532246e-11)) ((2.761415e-16 -1.706894e-12 1.927465e-16) (-4.518879e-14 6.085759e-10 -1.415799e-14))
3380.790861   	((-1.314451e-09 -4.898125e-13 -8.002844e-10) (-3.783966e-09 1.668130e-13 -3.625452e-11)) ((2.759785e-16 -1.706698e-12 1.925977e-16) (-4.505089e-14 6.074536e-10 -1.578544e-14))
4056.961033   	((-1.309128e-09 -4.682674e-13 -7.999045e-10) (-3.768409e-09 1.654757e-13 -3.702042e-11)) ((2.756829e-16 -1.706543e-12 1.930165e-16) (-4.498907e-14 6.065890e-10 -1.705665e-14))
4868.36524    	((-1.305064e-09 -4.588185e-13 -7.995610e-10) (-3.756754e-09 1.629406e-13 -3.763693e-11)) ((2.753145e-16 -1.706418e-12 1.928675e-16) (-4.496078e-14 6.059279e-10 -1.801367e-14))
5842.050288   	((-1.301969e-09 -4.491031e-13 -7.992547e-10) (-3.748110e-09 1.604385e-13 -3.812088e-11)) ((2.748011e-16 -1.706315e-12 1.927859e-16) (-4.496159e-14 6.054256e-10 -1.872947e-14))
7010.472346   	((-1.299615e-09 -4.403392e-13 -7.989661e-10) (-3.741754e-09 1.582444e-13 -3.849291e-11)) ((2.742273e-16 -1.706231e-12 1.926172e-16) (-4.496084e-14 6.050459e-10 -1.923767e-14))
8397.265026   	((-1.297830e-09 -4.375608e-13 -7.986802e-10) (-3.737117e-09 1.564136e-13 -3.877321e-11)) ((2.739349e-16 -1.706164e-12 1.925322e-16) (-4.493791e-14 6.047601e-10 -1.960622e-14))
10002.425407  	((-1.296470e-09 -4.358706e-13 -7.984428e-10) (-3.733759e-09 1.547055e-13 -3.898020e-11)) ((2.737631e-16 -1.706116e-12 1.924197e-16) (-4.492988e-14 6.045456e-10 -1.986262e-14))
11825.951261  	((-1.295440e-09 -4.349879e-13 -7.982257e-10) (-3.731341e-09 1.535075e-13 -3.913036e-11)) ((2.735943e-16 -1.706079e-12 1.923973e-16) (-4.491873e-14 6.043850e-10 -2.004408e-14))
13867.840903  	((-1.294656e-09 -4.328232e-13 -7.980308e-10) (-3.729610e-09 1.526389e-13 -3.923765e-11)) ((2.734504e-16 -1.706051e-12 1.923017e-16) (-4.490868e-14 6.042648e-10 -2.017557e-14))
16051.466009  	((-1.294061e-09 -4.302747e-13 -7.978571e-10) (-3.728377e-09 1.520575e-13 -3.931314e-11)) ((2.733711e-16 -1.706035e-12 1.922017e-16) (-4.489564e-14 6.041750e-10 -2.027696e-14))
18235.08162   	((-1.293613e-09 -4.267036e-13 -7.977194e-10) (-3.727503e-09 1.517363e-13 -3.936515e-11)) ((2.733125e-16 -1.706033e-12 1.921320e-16) (-4.488183e-14 6.041080e-10 -2.035683e-14))
20418.690546  	((-1.293272e-09 -4.225661e-13 -7.975829e-10) (-3.726885e-09 1.515799e-13 -3.940068e-11)) ((2.732963e-16 -1.706033e-12 1.920444e-16) (-4.486993e-14 6.040580e-10 -2.042033e-14))
22602.294841  	((-1.293011e-09 -4.178644e-13 -7.974670e-10) (-3.726450e-09 1.514941e-13 -3.942475e-11)) ((2.733316e-16 -1.706033e-12 1.918273e-16) (-4.485960e-14 6.040204e-10 -2.047591e-14))
24785.89578   	((-1.292809e-09 -4.132259e-13 -7.973658e-10) (-3.726145e-09 1.514932e-13 -3.944106e-11)) ((2.733230e-16 -1.706034e-12 1.918136e-16) (-4.484801e-14 6.039921e-10 -2.051528e-14))
26969.49424   	((-1.292653e-09 -4.090834e-13 -7.972789e-10) (-3.725931e-09 1.515293e-13 -3.945190e-11)) ((2.733096e-16 -1.706035e-12 1.917975e-16) (-4.483662e-14 6.039707e-10 -2.054674e-14))
29153.090854  	((-1.292533e-09 -4.090452e-13 -7.972017e-10) (-3.725783e-09 1.515604e-13 -3.945902e-11)) ((2.733624e-16 -1.706035e-12 1.917829e-16) (-4.482579e-14 6.039545e-10 -2.057070e-14))
31336.686086  	((-1.292440e-09 -4.091749e-13 -7.971267e-10) (-3.725680e-09 1.515998e-13 -3.946362e-11)) ((2.733884e-16 -1.706036e-12 1.917625e-16) (-4.481697e-14 6.039422e-10 -2.059029e-14))
33520.280285  	((-1.292366e-09 -4.087589e-13 -7.970759e-10) (-3.725610e-09 1.516124e-13 -3.946649e-11)) ((2.734038e-16 -1.706036e-12 1.917422e-16) (-4.481079e-14 6.039328e-10 -2.060565e-14))
35703.87371   	((-1.292309e-09 -4.088416e-13 -7.970230e-10) (-3.725561e-09 1.516143e-13 -3.946816e-11)) ((2.734158e-16 -1.706037e-12 1.917242e-16) (-4.480627e-14 6.039257e-10 -2.061745e-14))
37887.466554  	((-1.292263e-09 -4.087905e-13 -7.969726e-10) (-3.725528e-09 1.515988e-13 -3.946902e-11)) ((2.734246e-16 -1.706037e-12 1.917101e-16) (-4.480363e-14 6.039202e-10 -2.062574e-14))
40071.058963  	((-1.292227e-09 -4.086381e-13 -7.969352e-10) (-3.725506e-09 1.515884e-13 -3.946935e-11)) ((2.734301e-16 -1.706037e-12 1.916968e-16) (-4.480185e-14 6.039159e-10 -2.063191e-14))
42254.651044  	((-1.292199e-09 -4.084917e-13 -7.969007e-10) (-3.725491e-09 1.515729e-13 -3.946938e-11)) ((2.734319e-16 -1.706038e-12 1.916836e-16) (-4.480105e-14 6.039126e-10 -2.063651e-14))
44438.242881  	((-1.292176e-09 -4.082348e-13 -7.968698e-10) (-3.725482e-09 1.515695e-13 -3.946918e-11)) ((2.734276e-16 -1.706038e-12 1.916742e-16) (-4.480003e-14 6.039101e-10 -2.063995e-14))
46621.834533  	((-1.292157e-09 -4.080281e-13 -7.968425e-10) (-3.725475e-09 1.515730e-13 -3.946885e-11)) ((2.734238e-16 -1.706038e-12 1.916641e-16) (-4.479912e-14 6.039082e-10 -2.064251e-14))
48805.426046  	((-1.292142e-09 -4.078696e-13 -7.968186e-10) (-3.725472e-09 1.515792e-13 -3.946848e-11)) ((2.734209e-16 -1.706038e-12 1.916523e-16) (-4.479830e-14 6.039067e-10 -2.064425e-14))
50989.017454  	((-1.292130e-09 -4.075381e-13 -7.967974e-10) (-3.725469e-09 1.515824e-13 -3.946809e-11)) ((2.734164e-16 -1.706038e-12 1.916409e-16) (-4.479773e-14 6.039055e-10 -2.064579e-14))
53172.608784  	((-1.292121e-09 -4.072612e-13 -7.967787e-10) (-3.725468e-09 1.515823e-13 -3.946771e-11)) ((2.734127e-16 -1.706039e-12 1.916306e-16) (-4.479745e-14 6.039046e-10 -2.064720e-14))
55356.200055  	((-1.292112e-09 -4.069768e-13 -7.967620e-10) (-3.725467e-09 1.515800e-13 -3.946731e-11)) ((2.734085e-16 -1.706039e-12 1.916205e-16) (-4.479717e-14 6.039039e-10 -2.064886e-14))
57539.791281  	((-1.292105e-09 -4.065259e-13 -7.967478e-10) (-3.725467e-09 1.515804e-13 -3.946696e-11)) ((2.734042e-16 -1.706039e-12 1.916109e-16) (-4.479697e-14 6.039033e-10 -2.065000e-14))
59723.382473  	((-1.292100e-09 -4.064127e-13 -7.967339e-10) (-3.725467e-09 1.515826e-13 -3.946665e-11)) ((2.734010e-16 -1.706039e-12 1.915983e-16) (-4.479672e-14 6.039029e-10 -2.065055e-14))
61906.97364   	((-1.292096e-09 -4.061325e-13 -7.967233e-10) (-3.725467e-09 1.515882e-13 -3.946638e-11)) ((2.733991e-16 -1.706039e-12 1.915894e-16) (-4.479645e-14 6.039025e-10 -2.065108e-14))
64090.564787  	((-1.292092e-09 -4.058880e-13 -7.967136e-10) (-3.725468e-09 1.515972e-13 -3.946615e-11)) ((2.733972e-16 -1.706039e-12 1.915815e-16) (-4.479623e-14 6.039022e-10 -2.065164e-14))
66274.15592   	((-1.292089e-09 -4.055974e-13 -7.967054e-10) (-3.725468e-09 1.516077e-13 -3.946594e-11)) ((2.733966e-16 -1.706039e-12 1.915744e-16) (-4.479606e-14 6.039020e-10 -2.065191e-14))
68457.747043  	((-1.292087e-09 -4.052832e-13 -7.966982e-10) (-3.725468e-09 1.516180e-13 -3.946575e-11)) ((2.733963e-16 -1.706039e-12 1.915678e-16) (-4.479595e-14 6.039018e-10 -2.065213e-14))
70641.338157  	((-1.292085e-09 -4.052176e-13 -7.966912e-10) (-3.725468e-09 1.516265e-13 -3.946558e-11)) ((2.733976e-16 -1.706039e-12 1.915611e-16) (-4.479593e-14 6.039017e-10 -2.065232e-14))
72824.929264  	((-1.292084e-09 -4.051064e-13 -7.966860e-10) (-3.725469e-09 1.516329e-13 -3.946543e-11)) ((2.733991e-16 -1.706039e-12 1.915547e-16) (-4.479597e-14 6.039016e-10 -2.065246e-14))
75008.520368  	((-1.292082e-09 -4.050010e-13 -7.966814e-10) (-3.725469e-09 1.516263e-13 -3.946530e-11)) ((2.733998e-16 -1.706039e-12 1.915491e-16) (-4.479635e-14 6.039015e-10 -2.065251e-14))
77192.111467  	((-1.292081e-09 -4.048669e-13 -7.966774e-10) (-3.725469e-09 1.516268e-13 -3.946519e-11)) ((2.734012e-16 -1.706039e-12 1.915439e-16) (-4.479648e-14 6.039015e-10 -2.065256e-14))
79375.702564  	((-1.292080e-09 -4.047290e-13 -7.966739e-10) (-3.725469e-09 1.516303e-13 -3.946507e-11)) ((2.734036e-16 -1.706039e-12 1.915411e-16) (-4.479697e-14 6.039014e-10 -2.065273e-14))
81559.293659  	((-1.292079e-09 -4.045183e-13 -7.966709e-10) (-3.725469e-09 1.516333e-13 -3.946498e-11)) ((2.734025e-16 -1.706039e-12 1.915364e-16) (-4.479717e-14 6.039014e-10 -2.065284e-14))
83742.884753  	((-1.292078e-09 -4.043678e-13 -7.966683e-10) (-3.725469e-09 1.516373e-13 -3.946490e-11)) ((2.734073e-16 -1.706039e-12 1.915284e-16) (-4.479767e-14 6.039013e-10 -2.065237e-14))
85926.475845  	((-1.292078e-09 -4.042647e-13 -7.966659e-10) (-3.725469e-09 1.516458e-13 -3.946483e-11)) ((2.734067e-16 -1.706039e-12 1.915257e-16) (-4.479744e-14 6.039013e-10 -2.065197e-14))
88110.066936  	((-1.292077e-09 -4.040793e-13 -7.966639e-10) (-3.725469e-09 1.516616e-13 -3.946478e-11)) ((2.734109e-16 -1.706039e-12 1.915170e-16) (-4.479758e-14 6.039013e-10 -2.065148e-14))
90293.658027  	((-1.292077e-09 -4.038264e-13 -7.966621e-10) (-3.725469e-09 1.516709e-13 -3.946474e-11)) ((2.734138e-16 -1.706039e-12 1.915144e-16) (-4.479757e-14 6.039013e-10 -2.065180e-14))
92477.249117  	((-1.292077e-09 -4.036632e-13 -7.966605e-10) (-3.725469e-09 1.516832e-13 -3.946468e-11)) ((2.734182e-16 -1.706039e-12 1.915172e-16) (-4.479685e-14 6.039013e-10 -2.065230e-14))
94660.840207  	((-1.292076e-09 -4.035997e-13 -7.966589e-10) (-3.725470e-09 1.516875e-13 -3.946464e-11)) ((2.734198e-16 -1.706039e-12 1.915130e-16) (-4.479541e-14 6.039012e-10 -2.065259e-14))
