# Forces      
# CofR        : (0.000000e+00 0.000000e+00 0.000000e+00)
# Time        forces(pressure viscous)	moments(pressure viscous)
0             	((0.000000e+00 0.000000e+00 0.000000e+00) (0.000000e+00 0.000000e+00 0.000000e+00)) ((0.000000e+00 0.000000e+00 0.000000e+00) (0.000000e+00 0.000000e+00 0.000000e+00))
0.012         	((-2.780284e-11 5.748262e-06 9.306610e-07) (-2.069676e-12 1.322175e-05 -9.316867e-11)) ((8.415610e-10 3.008807e-12 -7.711612e-12) (8.798494e-07 6.332747e-14 1.414076e-12))
0.0264        	((-3.157381e-09 7.725706e-06 1.970679e-06) (-7.749101e-12 1.211143e-05 -2.976647e-10)) ((-3.786151e-10 6.536777e-12 -3.442722e-12) (8.068376e-07 1.272669e-13 1.425364e-12))
0.04368       	((2.722527e-09 5.223939e-06 1.067638e-06) (-1.203677e-11 1.096627e-05 -6.903986e-10)) ((-2.793426e-10 3.305026e-12 -3.882628e-12) (7.317613e-07 4.802581e-15 2.759399e-12))
0.064416      	((-2.919838e-09 5.905875e-06 1.380297e-06) (-1.698201e-11 9.812191e-06 -1.309016e-09)) ((-5.545103e-10 4.336561e-12 -2.474988e-12) (6.563644e-07 -3.696101e-13 1.305601e-12))
0.0892992     	((1.785854e-09 4.360347e-06 9.181979e-07) (-1.782984e-11 8.682756e-06 -2.144273e-09)) ((-3.939656e-10 2.733839e-12 -1.623974e-12) (5.828406e-07 -6.541022e-13 -2.853566e-12))
0.119159      	((-9.031905e-10 4.470299e-06 9.950242e-07) (-2.447383e-11 7.614426e-06 -3.143460e-09)) ((-4.825387e-10 3.023798e-12 -8.585249e-13) (5.136311e-07 -5.650891e-13 -4.890829e-12))
0.154991      	((9.962879e-10 3.373463e-06 7.080998e-07) (-3.595026e-11 6.640799e-06 -4.365757e-09)) ((-3.362214e-10 1.981362e-12 -3.702389e-13) (4.502372e-07 -4.428752e-13 -5.885795e-12))
0.197989      	((-6.971997e-11 3.332500e-06 7.102705e-07) (-4.671241e-11 5.780062e-06 -5.827839e-09)) ((-3.815057e-10 2.073422e-12 -5.850322e-13) (3.941424e-07 -1.440625e-13 -6.498341e-12))
0.249587      	((5.838430e-10 2.595696e-06 5.486444e-07) (-7.145301e-11 5.044627e-06 -7.428463e-09)) ((-2.738087e-10 1.415678e-12 -5.328989e-13) (3.458761e-07 -1.188818e-13 -6.356409e-12))
0.311504      	((3.047748e-10 2.520749e-06 5.268466e-07) (-4.828853e-11 4.431386e-06 -8.921944e-09)) ((-3.035064e-10 1.442278e-12 -9.185923e-13) (3.054124e-07 -7.711006e-13 -5.583635e-12))
0.385805      	((2.918947e-10 2.036699e-06 4.345983e-07) (-4.798676e-11 3.922054e-06 -1.041896e-08)) ((-2.274631e-10 1.060719e-12 -6.343839e-13) (2.717559e-07 -1.436807e-12 -3.788134e-12))
0.474966      	((2.897176e-10 1.970437e-06 4.036258e-07) (-4.241008e-11 3.497715e-06 -1.134896e-08)) ((-2.483081e-10 9.675816e-13 -7.918082e-13) (2.437382e-07 -2.028934e-12 -2.071602e-12))
0.581959      	((1.243046e-10 1.644207e-06 3.444329e-07) (-3.411631e-11 3.138297e-06 -1.238898e-08)) ((-1.935397e-10 7.815882e-13 -5.470205e-13) (2.199886e-07 -1.644621e-12 -1.417574e-12))
0.710351      	((4.436077e-10 1.585218e-06 3.108323e-07) (-2.416868e-11 2.828547e-06 -1.267494e-08)) ((-2.088257e-10 6.989972e-13 -7.300366e-13) (1.995726e-07 -2.219739e-12 -4.791418e-13))
0.864421      	((1.482630e-11 1.355876e-06 2.716384e-07) (-2.247226e-11 2.556365e-06 -1.346627e-08)) ((-1.721969e-10 5.263428e-13 -4.905453e-13) (1.816620e-07 -2.374966e-12 -5.542904e-13))
1.049306      	((4.717311e-10 1.291381e-06 2.407060e-07) (-6.295958e-11 2.314260e-06 -1.332215e-08)) ((-1.821918e-10 4.932280e-13 -3.998384e-13) (1.657719e-07 -3.610285e-12 -1.340055e-12))
1.271167      	((9.982418e-11 1.118280e-06 2.103793e-07) (-6.007388e-11 2.096687e-06 -1.428285e-08)) ((-1.578277e-10 3.839782e-13 4.054212e-14) (1.515249e-07 -4.976855e-12 -2.313164e-12))
1.5374        	((3.688384e-10 1.048315e-06 1.807927e-07) (-2.148769e-11 1.900449e-06 -1.472855e-08)) ((-1.610816e-10 2.930183e-13 1.039793e-13) (1.386979e-07 -5.497163e-12 -2.655865e-12))
1.85688       	((2.270496e-10 9.182830e-07 1.563337e-07) (-3.435103e-11 1.723664e-06 -1.554993e-08)) ((-1.454766e-10 5.116784e-13 2.331036e-13) (1.271677e-07 -6.883782e-12 -2.712091e-12))
2.240256      	((2.209319e-10 8.492491e-07 1.338624e-07) (-2.936787e-11 1.565521e-06 -1.635635e-08)) ((-1.431575e-10 3.011196e-14 2.247570e-13) (1.168596e-07 -6.213853e-12 -2.497089e-12))
2.700307      	((1.670416e-10 7.524590e-07 1.156714e-07) (-2.465145e-11 1.425691e-06 -1.660013e-08)) ((-1.323583e-10 4.003985e-13 2.768000e-13) (1.077596e-07 -5.106256e-12 -1.775985e-12))
3.252369      	((-2.288124e-11 6.952425e-07 9.959267e-08) (-3.506740e-11 1.302700e-06 -1.718820e-08)) ((-1.286749e-10 -2.057223e-13 2.391746e-13) (9.976389e-08 -5.619762e-12 -7.783426e-13))
3.914842      	((4.821392e-11 6.255166e-07 8.545730e-08) (-2.286259e-11 1.194976e-06 -1.792223e-08)) ((-1.217429e-10 -7.666872e-14 2.492017e-13) (9.278668e-08 -6.921018e-12 1.668544e-12))
4.709811      	((6.715305e-11 5.795855e-07 6.984270e-08) (-3.820100e-11 1.100027e-06 -1.906744e-08)) ((-1.191112e-10 -5.705772e-13 2.366329e-13) (8.666158e-08 -5.971123e-12 3.285485e-12))
5.663773      	((1.124428e-10 5.250936e-07 5.360470e-08) (-6.474300e-11 1.015524e-06 -2.036031e-08)) ((-1.146653e-10 -5.491582e-13 2.694382e-13) (8.123240e-08 -4.318592e-12 3.960311e-12))
6.808528      	((1.107147e-10 4.861019e-07 3.708833e-08) (-3.919388e-11 9.396050e-07 -2.160567e-08)) ((-1.122139e-10 -8.018067e-13 3.111415e-13) (7.636313e-08 -2.313803e-12 4.153897e-12))
8.182233      	((2.583484e-10 4.437241e-07 1.991476e-08) (-9.226960e-12 8.706703e-07 -2.285001e-08)) ((-1.091609e-10 -7.733880e-13 3.234365e-13) (7.195998e-08 -1.171769e-12 4.267802e-12))
9.83068       	((2.779869e-10 4.105325e-07 3.743549e-09) (1.470053e-11 8.077345e-07 -2.396910e-08)) ((-1.072593e-10 -9.435665e-13 3.305555e-13) (6.795766e-08 4.839807e-13 3.877434e-12))
11.808816     	((4.172013e-10 3.761794e-07 -1.228589e-08) (2.773073e-11 7.499661e-07 -2.480773e-08)) ((-1.050437e-10 -9.755108e-13 3.086005e-13) (6.430472e-08 9.350871e-13 3.082702e-12))
14.182579     	((3.928714e-10 3.478257e-07 -2.745586e-08) (5.339441e-11 6.967193e-07 -2.540021e-08)) ((-1.034075e-10 -1.105576e-12 2.994325e-13) (6.096152e-08 2.088284e-13 2.489015e-12))
17.031095     	((3.979123e-10 3.198639e-07 -4.071963e-08) (5.495704e-11 6.475912e-07 -2.586644e-08)) ((-1.018252e-10 -1.138077e-12 2.912509e-13) (5.789963e-08 -1.784685e-14 2.006133e-12))
20.449314     	((2.944878e-10 2.957514e-07 -5.381296e-08) (5.095630e-11 6.024097e-07 -2.625317e-08)) ((-1.006254e-10 -1.231942e-12 2.977511e-13) (5.510932e-08 6.851398e-13 1.564206e-12))
24.551176     	((1.881349e-10 2.730740e-07 -6.542112e-08) (4.539364e-11 5.610842e-07 -2.668512e-08)) ((-9.960358e-11 -1.287612e-12 3.041970e-13) (5.258445e-08 2.679792e-12 9.926246e-13))
29.473411     	((1.543209e-10 2.536265e-07 -7.701697e-08) (4.266082e-11 5.235127e-07 -2.718346e-08)) ((-9.888182e-11 -1.389963e-12 3.138795e-13) (5.031160e-08 3.774464e-12 8.610342e-13))
35.380094     	((1.610025e-10 2.361955e-07 -8.881886e-08) (5.087899e-11 4.894673e-07 -2.790396e-08)) ((-9.833038e-11 -1.460371e-12 3.248125e-13) (4.827140e-08 3.966710e-12 7.811938e-13))
42.468112     	((1.806368e-10 2.213602e-07 -1.006389e-07) (5.863174e-11 4.587078e-07 -2.891077e-08)) ((-9.789690e-11 -1.544894e-12 3.308185e-13) (4.644746e-08 3.721495e-12 6.075723e-13))
50.973735     	((2.276223e-10 2.085384e-07 -1.121648e-07) (7.004070e-11 4.309499e-07 -3.020065e-08)) ((-9.753472e-11 -1.615804e-12 3.319817e-13) (4.482360e-08 2.914232e-12 6.952253e-13))
61.180482     	((2.583945e-10 1.978375e-07 -1.239060e-07) (7.913703e-11 4.059449e-07 -3.182317e-08)) ((-9.726267e-11 -1.678878e-12 3.320641e-13) (4.338258e-08 2.178106e-12 1.096328e-12))
73.428578     	((2.519888e-10 1.889015e-07 -1.354312e-07) (8.431693e-11 3.835216e-07 -3.378524e-08)) ((-9.707632e-11 -1.723212e-12 3.366796e-13) (4.210918e-08 1.514453e-12 1.304116e-12))
88.126294     	((2.390035e-10 1.822514e-07 -1.460733e-07) (9.770412e-11 3.635617e-07 -3.615119e-08)) ((-9.696761e-11 -1.761743e-12 3.430597e-13) (4.099232e-08 8.369654e-13 1.510579e-12))
105.763553    	((2.268106e-10 1.772953e-07 -1.563357e-07) (1.107057e-10 3.459879e-07 -3.889671e-08)) ((-9.691607e-11 -1.791130e-12 3.459147e-13) (4.002127e-08 5.246354e-14 1.566672e-12))
126.928263    	((2.401256e-10 1.742629e-07 -1.660393e-07) (1.249855e-10 3.307481e-07 -4.202062e-08)) ((-9.692687e-11 -1.824954e-12 3.440541e-13) (3.918552e-08 -8.679905e-13 1.522995e-12))
152.325916    	((2.354591e-10 1.727825e-07 -1.753196e-07) (1.341983e-10 3.177878e-07 -4.548355e-08)) ((-9.696230e-11 -1.856053e-12 3.372295e-13) (3.847539e-08 -1.568258e-12 1.424243e-12))
182.078743    	((2.159590e-10 1.729137e-07 -1.840438e-07) (1.312996e-10 3.071497e-07 -4.921530e-08)) ((-9.700120e-11 -1.889091e-12 3.349886e-13) (3.788645e-08 -1.964330e-12 1.433904e-12))
216.18763     	((2.101378e-10 1.743553e-07 -1.920392e-07) (1.208747e-10 2.987819e-07 -5.304718e-08)) ((-9.704170e-11 -1.918984e-12 3.322713e-13) (3.740866e-08 -2.057349e-12 1.370928e-12))
254.654137    	((2.087983e-10 1.770680e-07 -1.992698e-07) (1.104072e-10 2.925963e-07 -5.675335e-08)) ((-9.709396e-11 -1.950756e-12 3.270505e-13) (3.703345e-08 -2.164764e-12 1.028770e-12))
297.480372    	((2.046430e-10 1.804886e-07 -2.057810e-07) (1.026835e-10 2.884015e-07 -6.007596e-08)) ((-9.716805e-11 -1.982900e-12 3.224951e-13) (3.675139e-08 -2.266365e-12 6.488379e-13))
341.096968    	((2.042372e-10 1.836518e-07 -2.112482e-07) (9.674969e-11 2.859192e-07 -6.272876e-08)) ((-9.725836e-11 -2.011056e-12 3.181763e-13) (3.655503e-08 -2.310484e-12 2.982118e-13))
384.729322    	((2.080807e-10 1.859409e-07 -2.158889e-07) (9.152473e-11 2.846297e-07 -6.467739e-08)) ((-9.733576e-11 -2.033234e-12 3.144516e-13) (3.642430e-08 -2.427765e-12 6.261197e-14))
428.37649     	((2.066646e-10 1.872601e-07 -2.196955e-07) (8.703524e-11 2.840564e-07 -6.601205e-08)) ((-9.738383e-11 -2.049244e-12 3.095855e-13) (3.634025e-08 -2.515703e-12 -6.347093e-14))
472.036245    	((2.075043e-10 1.878353e-07 -2.227632e-07) (8.379683e-11 2.838219e-07 -6.689685e-08)) ((-9.740839e-11 -2.059476e-12 3.056247e-13) (3.628582e-08 -2.604601e-12 -1.243995e-13))
515.706375    	((2.113622e-10 1.879714e-07 -2.252120e-07) (8.179175e-11 2.837080e-07 -6.747470e-08)) ((-9.741426e-11 -2.062934e-12 3.018434e-13) (3.624954e-08 -2.619253e-12 -1.236207e-13))
559.385576    	((2.146479e-10 1.878557e-07 -2.272160e-07) (8.075735e-11 2.836095e-07 -6.786662e-08)) ((-9.741083e-11 -2.065046e-12 2.987740e-13) (3.622355e-08 -2.632024e-12 -7.596647e-14))
603.072431    	((2.148707e-10 1.875714e-07 -2.289118e-07) (8.002718e-11 2.834895e-07 -6.814485e-08)) ((-9.740188e-11 -2.067843e-12 2.967071e-13) (3.620322e-08 -2.665282e-12 9.220174e-15))
646.765494    	((2.131930e-10 1.871556e-07 -2.303736e-07) (7.947151e-11 2.833356e-07 -6.834453e-08)) ((-9.738820e-11 -2.071195e-12 2.954517e-13) (3.618568e-08 -2.704231e-12 1.054685e-13))
690.463514    	((2.115151e-10 1.867745e-07 -2.316359e-07) (7.896159e-11 2.831554e-07 -6.849508e-08)) ((-9.737677e-11 -2.075190e-12 2.947984e-13) (3.616968e-08 -2.746864e-12 2.011852e-13))
734.165486    	((2.094790e-10 1.864203e-07 -2.327653e-07) (7.846491e-11 2.829636e-07 -6.862425e-08)) ((-9.736762e-11 -2.079372e-12 2.945661e-13) (3.615508e-08 -2.806225e-12 2.960701e-13))
777.870593    	((2.087200e-10 1.861035e-07 -2.337945e-07) (7.793971e-11 2.827736e-07 -6.874844e-08)) ((-9.736026e-11 -2.083119e-12 2.945324e-13) (3.614199e-08 -2.857606e-12 3.878559e-13))
821.578219    	((2.077896e-10 1.858720e-07 -2.347260e-07) (7.777591e-11 2.825973e-07 -6.887810e-08)) ((-9.735569e-11 -2.086131e-12 2.946549e-13) (3.613055e-08 -2.901659e-12 4.743260e-13))
865.287941    	((2.082801e-10 1.857097e-07 -2.355835e-07) (7.812563e-11 2.824458e-07 -6.902077e-08)) ((-9.735292e-11 -2.088287e-12 2.949062e-13) (3.612097e-08 -2.939165e-12 5.467454e-13))
908.999473    	((2.107550e-10 1.855905e-07 -2.363797e-07) (7.907464e-11 2.823245e-07 -6.917747e-08)) ((-9.735131e-11 -2.090018e-12 2.953289e-13) (3.611327e-08 -2.991260e-12 6.076277e-13))
952.712634    	((2.137300e-10 1.855029e-07 -2.371234e-07) (8.037387e-11 2.822344e-07 -6.934294e-08)) ((-9.735004e-11 -2.091337e-12 2.958448e-13) (3.610728e-08 -3.053791e-12 6.484001e-13))
996.427314    	((2.178026e-10 1.854433e-07 -2.378163e-07) (8.168802e-11 2.821740e-07 -6.951035e-08)) ((-9.734951e-11 -2.092305e-12 2.962907e-13) (3.610277e-08 -3.133628e-12 6.650948e-13))
1040.143452   	((2.202186e-10 1.854050e-07 -2.384591e-07) (8.295512e-11 2.821395e-07 -6.967300e-08)) ((-9.734939e-11 -2.093199e-12 2.966794e-13) (3.609947e-08 -3.223222e-12 6.637228e-13))
1083.861011   	((2.212397e-10 1.853811e-07 -2.390558e-07) (8.408939e-11 2.821262e-07 -6.982681e-08)) ((-9.734968e-11 -2.094028e-12 2.970123e-13) (3.609718e-08 -3.309307e-12 6.436239e-13))
1127.579962   	((2.222303e-10 1.853620e-07 -2.396100e-07) (8.501965e-11 2.821291e-07 -6.996951e-08)) ((-9.735017e-11 -2.094708e-12 2.972816e-13) (3.609570e-08 -3.381395e-12 6.099208e-13))
1171.300271   	((2.235570e-10 1.853432e-07 -2.401254e-07) (8.585825e-11 2.821432e-07 -7.010029e-08)) ((-9.735070e-11 -2.095270e-12 2.975179e-13) (3.609485e-08 -3.432910e-12 5.760392e-13))
1215.021891   	((2.246135e-10 1.853226e-07 -2.406042e-07) (8.679906e-11 2.821640e-07 -7.021960e-08)) ((-9.735119e-11 -2.095723e-12 2.977121e-13) (3.609444e-08 -3.471412e-12 5.517233e-13))
1258.744763   	((2.254002e-10 1.852995e-07 -2.410485e-07) (8.774011e-11 2.821883e-07 -7.032887e-08)) ((-9.735152e-11 -2.096103e-12 2.978670e-13) (3.609433e-08 -3.505057e-12 5.337167e-13))
1302.468815   	((2.259085e-10 1.852741e-07 -2.414608e-07) (8.861388e-11 2.822139e-07 -7.042939e-08)) ((-9.735169e-11 -2.096435e-12 2.979711e-13) (3.609440e-08 -3.535989e-12 5.215427e-13))
1346.193971   	((2.263014e-10 1.852485e-07 -2.418441e-07) (8.933674e-11 2.822394e-07 -7.052250e-08)) ((-9.735178e-11 -2.096764e-12 2.980790e-13) (3.609457e-08 -3.560963e-12 5.162705e-13))
1389.920155   	((2.264867e-10 1.852240e-07 -2.422007e-07) (8.992396e-11 2.822645e-07 -7.060936e-08)) ((-9.735183e-11 -2.097076e-12 2.981989e-13) (3.609481e-08 -3.581574e-12 5.178271e-13))
1433.647292   	((2.265791e-10 1.852012e-07 -2.425330e-07) (9.042953e-11 2.822891e-07 -7.069080e-08)) ((-9.735188e-11 -2.097386e-12 2.983382e-13) (3.609510e-08 -3.601693e-12 5.228021e-13))
1477.375316   	((2.265586e-10 1.851804e-07 -2.428426e-07) (9.084536e-11 2.823132e-07 -7.076742e-08)) ((-9.735194e-11 -2.097697e-12 2.984707e-13) (3.609543e-08 -3.621299e-12 5.284514e-13))
1521.104168   	((2.268740e-10 1.851611e-07 -2.431324e-07) (9.119284e-11 2.823371e-07 -7.083959e-08)) ((-9.735199e-11 -2.097976e-12 2.985924e-13) (3.609579e-08 -3.641021e-12 5.332767e-13))
1564.833796   	((2.272782e-10 1.851430e-07 -2.434042e-07) (9.155544e-11 2.823605e-07 -7.090763e-08)) ((-9.735201e-11 -2.098227e-12 2.987123e-13) (3.609618e-08 -3.661369e-12 5.383780e-13))
1608.564151   	((2.276149e-10 1.851253e-07 -2.436591e-07) (9.192240e-11 2.823836e-07 -7.097177e-08)) ((-9.735200e-11 -2.098458e-12 2.988302e-13) (3.609658e-08 -3.681022e-12 5.429794e-13))
1652.29519    	((2.280032e-10 1.851078e-07 -2.438984e-07) (9.227933e-11 2.824062e-07 -7.103219e-08)) ((-9.735199e-11 -2.098683e-12 2.989470e-13) (3.609700e-08 -3.699635e-12 5.467657e-13))
1696.026872   	((2.284773e-10 1.850908e-07 -2.441235e-07) (9.266308e-11 2.824281e-07 -7.108905e-08)) ((-9.735197e-11 -2.098907e-12 2.990597e-13) (3.609742e-08 -3.717888e-12 5.510195e-13))
1739.759157   	((2.289500e-10 1.850740e-07 -2.443346e-07) (9.305955e-11 2.824492e-07 -7.114258e-08)) ((-9.735192e-11 -2.099105e-12 2.991610e-13) (3.609783e-08 -3.735942e-12 5.551010e-13))
1783.492012   	((2.293561e-10 1.850575e-07 -2.445331e-07) (9.345227e-11 2.824694e-07 -7.119305e-08)) ((-9.735188e-11 -2.099267e-12 2.992337e-13) (3.609822e-08 -3.753292e-12 5.589860e-13))
1827.225404   	((2.298186e-10 1.850416e-07 -2.447207e-07) (9.384300e-11 2.824886e-07 -7.124070e-08)) ((-9.735184e-11 -2.099416e-12 2.993087e-13) (3.609861e-08 -3.770574e-12 5.624921e-13))
1870.959304   	((2.302587e-10 1.850263e-07 -2.448981e-07) (9.423121e-11 2.825070e-07 -7.128579e-08)) ((-9.735178e-11 -2.099562e-12 2.993900e-13) (3.609897e-08 -3.787733e-12 5.657236e-13))
1914.693683   	((2.306747e-10 1.850116e-07 -2.450662e-07) (9.461385e-11 2.825245e-07 -7.132850e-08)) ((-9.735171e-11 -2.099698e-12 2.994686e-13) (3.609932e-08 -3.804116e-12 5.691339e-13))
