# Forces      
# CofR        : (0.000000e+00 0.000000e+00 0.000000e+00)
# Time        forces(pressure viscous)	moments(pressure viscous)
0             	((0.000000e+00 0.000000e+00 0.000000e+00) (0.000000e+00 0.000000e+00 0.000000e+00)) ((0.000000e+00 0.000000e+00 0.000000e+00) (0.000000e+00 0.000000e+00 0.000000e+00))
0.012         	((-2.243179e-07 8.169283e-12 -7.633387e-08) (-5.263535e-07 1.023238e-15 -4.781536e-11)) ((-3.458918e-15 3.395558e-11 -2.755975e-15) (-5.749400e-16 3.502702e-08 -2.283263e-16))
0.0264        	((-3.093609e-07 1.809078e-10 -9.993960e-08) (-4.821466e-07 5.504792e-14 -2.928656e-11)) ((-1.788354e-15 -1.746987e-11 -6.850480e-16) (-2.068192e-15 3.211968e-08 1.555921e-15))
0.04368       	((-2.059167e-07 -1.092883e-10 -6.840845e-08) (-4.365267e-07 -4.102207e-14 -7.067381e-13)) ((-3.977421e-15 -1.263824e-11 -2.031843e-15) (-5.396534e-15 2.912862e-08 5.815411e-15))
0.064416      	((-2.356874e-07 1.286856e-10 -7.637600e-08) (-3.904989e-07 -9.675643e-14 1.853635e-11)) ((-1.969981e-15 -2.432070e-11 3.853565e-16) (-1.035896e-14 2.612111e-08 6.866932e-15))
0.0892992     	((-1.725534e-07 -5.616640e-11 -5.726382e-08) (-3.453719e-07 -1.171917e-13 2.047820e-11)) ((-1.221046e-15 -1.736164e-11 -1.342487e-15) (-1.661160e-14 2.318312e-08 3.617283e-15))
0.119159      	((-1.780823e-07 6.346905e-11 -5.684145e-08) (-3.025900e-07 -3.894460e-14 1.351758e-11)) ((-1.596643e-15 -2.107919e-11 -5.614253e-17) (-1.498549e-14 2.041076e-08 -8.675453e-16))
0.154991      	((-1.337359e-07 -3.210205e-11 -4.486357e-08) (-2.634960e-07 7.648831e-15 1.028413e-11)) ((4.519252e-16 -1.473506e-11 -9.251291e-17) (-1.505782e-14 1.786254e-08 -8.235918e-15))
0.197989      	((-1.323443e-07 2.378958e-11 -4.185147e-08) (-2.288981e-07 2.891643e-14 5.693398e-12)) ((8.028631e-16 -1.657851e-11 1.191667e-16) (-1.434001e-14 1.560525e-08 -1.472191e-14))
0.249587      	((-1.025553e-07 -1.276188e-11 -3.440843e-08) (-1.994079e-07 6.548910e-14 -8.993575e-13)) ((4.976600e-16 -1.185979e-11 -4.835393e-17) (-1.181079e-14 1.366670e-08 -1.796495e-14))
0.311504      	((-9.973463e-08 3.681059e-12 -3.136751e-08) (-1.748914e-07 6.792285e-14 -6.124371e-12)) ((1.390787e-15 -1.307061e-11 -1.318319e-16) (-1.343366e-14 1.204809e-08 -1.789882e-14))
0.385805      	((-8.028469e-08 -2.377787e-12 -2.687587e-08) (-1.546358e-07 4.678800e-14 -9.946539e-12)) ((3.160755e-16 -9.733178e-12 -1.824604e-16) (-1.262553e-14 1.070933e-08 -1.797007e-14))
0.474966      	((-7.790769e-08 3.036763e-12 -2.451611e-08) (-1.378815e-07 6.184650e-14 -1.408907e-11)) ((1.391243e-15 -1.056827e-11 -1.122018e-16) (-1.079624e-14 9.603770e-09 -2.365786e-14))
0.581959      	((-6.485717e-08 5.464296e-13 -2.164278e-08) (-1.237785e-07 9.448821e-14 -1.798249e-11)) ((2.233985e-16 -8.154347e-12 1.606457e-16) (7.133311e-16 8.672416e-09 -1.837578e-14))
0.710351      	((-6.286877e-08 -1.986626e-12 -1.977801e-08) (-1.116648e-07 4.109216e-14 -1.711198e-11)) ((1.891053e-15 -8.777503e-12 2.286441e-16) (5.937882e-15 7.875196e-09 -3.268233e-16))
0.864421      	((-5.354345e-08 3.391351e-12 -1.781006e-08) (-1.010146e-07 3.975841e-15 -2.076216e-11)) ((9.914389e-16 -7.077918e-12 2.725267e-16) (6.158707e-15 7.174888e-09 1.793832e-15))
1.049306      	((-5.150771e-08 6.992238e-13 -1.622405e-08) (-9.153023e-08 -9.011597e-15 -2.125778e-11)) ((2.279258e-15 -7.559678e-12 2.599427e-16) (-1.830050e-14 6.554269e-09 -1.121055e-14))
1.271167      	((-4.430133e-08 3.548087e-12 -1.466774e-08) (-8.296979e-08 9.189929e-14 -2.500845e-11)) ((1.651562e-15 -6.381073e-12 9.749754e-16) (-4.166237e-14 5.994750e-09 -2.755177e-14))
1.5374        	((-4.210391e-08 3.907187e-12 -1.333024e-08) (-7.524389e-08 1.256067e-13 -2.656190e-11)) ((2.893979e-15 -6.638844e-12 1.455900e-15) (-6.390279e-14 5.490321e-09 -3.770782e-14))
1.85688       	((-3.648117e-08 4.023200e-12 -1.206550e-08) (-6.826195e-08 2.772692e-13 -3.221255e-11)) ((2.849827e-15 -5.759999e-12 1.375336e-15) (-8.669737e-14 5.035265e-09 -3.829753e-14))
2.240256      	((-3.420516e-08 2.984252e-12 -1.095880e-08) (-6.199324e-08 2.890716e-13 -3.263020e-11)) ((3.731698e-15 -5.844575e-12 1.161015e-15) (-1.262115e-13 4.626416e-09 -3.145174e-14))
2.700307      	((-2.999086e-08 2.575523e-12 -9.982360e-09) (-5.644288e-08 1.837247e-13 -3.261318e-11)) ((3.173917e-15 -5.220851e-12 1.305792e-15) (-1.939471e-13 4.264868e-09 1.786198e-15))
3.252369      	((-2.792515e-08 6.185358e-12 -9.101923e-09) (-5.154028e-08 9.645728e-14 -3.250210e-11)) ((3.690895e-15 -5.237098e-12 1.232803e-15) (-2.655204e-13 3.945093e-09 8.343431e-14))
3.914842      	((-2.490018e-08 -8.509251e-13 -8.329818e-09) (-4.723405e-08 -1.930173e-13 -2.902535e-11)) ((2.992481e-15 -4.878790e-12 1.525516e-15) (-3.308799e-13 3.665081e-09 1.894018e-13))
4.709811      	((-2.304568e-08 5.158137e-15 -7.643393e-09) (-4.344521e-08 -1.702908e-13 -2.825838e-11)) ((2.476564e-15 -4.841516e-12 2.065094e-15) (-3.631963e-13 3.419185e-09 2.750598e-13))
5.663773      	((-2.084204e-08 -7.501915e-13 -7.043308e-09) (-4.008163e-08 6.664040e-14 -3.253814e-11)) ((1.559865e-15 -4.608066e-12 2.418782e-15) (-3.512756e-13 3.201377e-09 3.273057e-13))
6.808528      	((-1.922138e-08 5.600398e-12 -6.487533e-09) (-3.706318e-08 5.170715e-13 -3.958191e-11)) ((2.508372e-15 -4.509864e-12 2.545897e-15) (-3.252639e-13 3.006532e-09 3.366238e-13))
8.182233      	((-1.751640e-08 5.618655e-12 -6.006771e-09) (-3.432535e-08 8.920390e-13 -4.751336e-11)) ((2.003042e-15 -4.359395e-12 2.380177e-15) (-3.175060e-13 2.830766e-09 3.266152e-13))
9.83068       	((-1.606413e-08 6.163979e-12 -5.549333e-09) (-3.182069e-08 1.108989e-12 -5.363662e-11)) ((2.394218e-15 -4.252312e-12 2.154851e-15) (-3.112713e-13 2.670859e-09 3.116997e-13))
11.808816     	((-1.469202e-08 4.094800e-12 -5.155283e-09) (-2.952326e-08 1.203639e-12 -5.659101e-11)) ((1.443369e-15 -4.141818e-12 1.919235e-15) (-2.820231e-13 2.525122e-09 2.745128e-13))
14.182579     	((-1.349242e-08 4.157916e-12 -4.787081e-09) (-2.741286e-08 1.531504e-12 -5.912410e-11)) ((1.443377e-15 -4.036270e-12 1.671876e-15) (-2.333480e-13 2.391987e-09 2.316418e-13))
17.031095     	((-1.236905e-08 4.239066e-12 -4.449250e-09) (-2.547230e-08 1.813209e-12 -6.008954e-11)) ((1.047985e-15 -3.951231e-12 1.448676e-15) (-1.896569e-13 2.270700e-09 1.847645e-13))
20.449314     	((-1.136304e-08 4.702803e-12 -4.132538e-09) (-2.369280e-08 2.067697e-12 -6.215655e-11)) ((1.126971e-15 -3.865967e-12 1.176049e-15) (-1.461794e-13 2.160334e-09 1.215128e-13))
24.551176     	((-1.042084e-08 3.110812e-12 -3.842251e-09) (-2.206295e-08 2.236090e-12 -6.159383e-11)) ((9.505615e-16 -3.803965e-12 8.924439e-16) (-1.104946e-13 2.059970e-09 6.622738e-14))
29.473411     	((-9.571531e-09 2.597156e-12 -3.580842e-09) (-2.057335e-08 2.243959e-12 -6.074762e-11)) ((1.039514e-15 -3.744120e-12 7.164331e-16) (-8.510567e-14 1.968839e-09 2.226493e-14))
35.380094     	((-8.786399e-09 2.178788e-12 -3.350819e-09) (-1.921373e-08 2.239952e-12 -5.997413e-11)) ((1.029021e-15 -3.697352e-12 6.092662e-16) (-7.269040e-14 1.886119e-09 -5.761189e-15))
42.468112     	((-8.079238e-09 2.189508e-12 -3.149413e-09) (-1.797117e-08 2.179554e-12 -6.051861e-11)) ((1.054770e-15 -3.652637e-12 4.876113e-16) (-7.156500e-14 1.810877e-09 -1.814526e-14))
50.973735     	((-7.424389e-09 2.136855e-12 -2.975214e-09) (-1.683540e-08 2.149537e-12 -6.177241e-11)) ((1.004276e-15 -3.616109e-12 3.800682e-16) (-7.437886e-14 1.742429e-09 -2.393937e-14))
61.180482     	((-6.832851e-09 2.177104e-12 -2.811860e-09) (-1.579894e-08 2.097843e-12 -6.255144e-11)) ((1.017280e-15 -3.582055e-12 2.548680e-16) (-7.816000e-14 1.680270e-09 -2.184115e-14))
73.428578     	((-6.293349e-09 1.380369e-12 -2.673821e-09) (-1.485432e-08 1.869058e-12 -6.189786e-11)) ((9.873813e-16 -3.554156e-12 2.452564e-16) (-8.232295e-14 1.624020e-09 -2.252778e-14))
88.126294     	((-5.805036e-09 5.019099e-13 -2.547537e-09) (-1.399492e-08 1.492708e-12 -6.043434e-11)) ((9.270403e-16 -3.529398e-12 3.000129e-16) (-9.210589e-14 1.573263e-09 -2.546583e-14))
105.763553    	((-5.374883e-09 1.505589e-14 -2.436227e-09) (-1.321555e-08 1.201706e-12 -5.840093e-11)) ((7.558716e-16 -3.509106e-12 3.454954e-16) (-1.054662e-13 1.527621e-09 -1.835597e-14))
126.928263    	((-4.986461e-09 -2.846899e-13 -2.336431e-09) (-1.251052e-08 1.027519e-12 -5.648663e-11)) ((6.832039e-16 -3.492094e-12 4.102711e-16) (-1.139860e-13 1.486698e-09 -9.360783e-15))
152.325916    	((-4.641679e-09 -4.180383e-13 -2.235429e-09) (-1.187341e-08 9.065178e-13 -5.539343e-11)) ((6.644264e-16 -3.478191e-12 4.571663e-16) (-1.176629e-13 1.450039e-09 -4.623529e-15))
182.803099    	((-4.336344e-09 -6.503301e-13 -2.146357e-09) (-1.129860e-08 8.341015e-13 -5.495152e-11)) ((6.628782e-16 -3.465995e-12 4.534621e-16) (-1.210200e-13 1.417247e-09 -1.993667e-15))
219.375719    	((-4.068214e-09 -8.173843e-13 -2.079613e-09) (-1.078047e-08 7.739727e-13 -5.606473e-11)) ((6.904684e-16 -3.456162e-12 4.196833e-16) (-1.220756e-13 1.387950e-09 -2.017770e-15))
263.262863    	((-3.830577e-09 -9.629481e-13 -2.023639e-09) (-1.031385e-08 6.771430e-13 -5.846106e-11)) ((6.829333e-16 -3.448082e-12 3.954191e-16) (-1.216807e-13 1.361810e-09 6.450955e-17))
315.927436    	((-3.620314e-09 -1.101670e-12 -1.976229e-09) (-9.894514e-09 6.588388e-13 -6.180014e-11)) ((7.107492e-16 -3.441676e-12 3.695659e-16) (-1.177844e-13 1.338551e-09 5.703188e-16))
379.124923    	((-3.437442e-09 -1.080202e-12 -1.939504e-09) (-9.518933e-09 6.850284e-13 -6.591630e-11)) ((6.962591e-16 -3.436778e-12 3.826676e-16) (-1.123451e-13 1.317909e-09 -1.334812e-16))
454.961908    	((-3.281786e-09 -9.567125e-13 -1.912370e-09) (-9.184593e-09 6.678137e-13 -7.115436e-11)) ((6.822878e-16 -3.433005e-12 3.973145e-16) (-1.067426e-13 1.299695e-09 9.639304e-16))
545.966289    	((-3.150079e-09 -8.762147e-13 -1.892263e-09) (-8.889177e-09 6.241869e-13 -7.734054e-11)) ((6.503633e-16 -3.429826e-12 3.885467e-16) (-1.013921e-13 1.283761e-09 3.901118e-15))
655.171547    	((-3.040508e-09 -8.335942e-13 -1.878030e-09) (-8.630513e-09 5.637639e-13 -8.406601e-11)) ((6.122576e-16 -3.427002e-12 3.869705e-16) (-9.754353e-14 1.269941e-09 4.585713e-15))
786.217856    	((-2.950657e-09 -1.013960e-12 -1.868786e-09) (-8.406831e-09 4.918076e-13 -9.082470e-11)) ((6.016150e-16 -3.424669e-12 3.973232e-16) (-9.435234e-14 1.258078e-09 2.433438e-15))
943.473427    	((-2.877973e-09 -1.213524e-12 -1.864023e-09) (-8.215949e-09 4.276141e-13 -9.760044e-11)) ((5.879992e-16 -3.422873e-12 4.072612e-16) (-9.203433e-14 1.248008e-09 -1.074373e-15))
1132.180113   	((-2.819112e-09 -1.311497e-12 -1.862037e-09) (-8.055588e-09 3.776992e-13 -1.043712e-10)) ((5.778993e-16 -3.421556e-12 4.125498e-16) (-9.024983e-14 1.239576e-09 -5.373697e-15))
1358.628135   	((-2.772073e-09 -1.352852e-12 -1.861349e-09) (-7.923064e-09 3.308069e-13 -1.109452e-10)) ((5.680387e-16 -3.420466e-12 4.114584e-16) (-8.814796e-14 1.232616e-09 -1.052805e-14))
1630.365763   	((-2.734963e-09 -1.328534e-12 -1.861946e-09) (-7.815381e-09 2.897698e-13 -1.172637e-10)) ((5.674570e-16 -3.419587e-12 4.119711e-16) (-8.708528e-14 1.226954e-09 -1.575530e-14))
1956.450915   	((-2.705926e-09 -1.319831e-12 -1.863096e-09) (-7.729314e-09 2.565934e-13 -1.231509e-10)) ((5.662171e-16 -3.418937e-12 4.119709e-16) (-8.664499e-14 1.222413e-09 -2.041097e-14))
2347.753098   	((-2.683426e-09 -1.297224e-12 -1.864501e-09) (-7.661624e-09 2.312932e-13 -1.284511e-10)) ((5.701839e-16 -3.418408e-12 4.108158e-16) (-8.673982e-14 1.218819e-09 -2.463270e-14))
2817.315718   	((-2.666157e-09 -1.263656e-12 -1.865713e-09) (-7.609215e-09 2.104614e-13 -1.330819e-10)) ((5.717148e-16 -3.417974e-12 4.075180e-16) (-8.686638e-14 1.216008e-09 -2.801395e-14))
3380.790861   	((-2.652990e-09 -1.226359e-12 -1.866645e-09) (-7.569198e-09 1.943036e-13 -1.370025e-10)) ((5.733556e-16 -3.417621e-12 4.036640e-16) (-8.699979e-14 1.213835e-09 -3.088478e-14))
4053.812603   	((-2.643028e-09 -1.210333e-12 -1.867287e-09) (-7.539036e-09 1.824369e-13 -1.402413e-10)) ((5.747382e-16 -3.417342e-12 4.008066e-16) (-8.703502e-14 1.212169e-09 -3.317960e-14))
4836.376585   	((-2.635501e-09 -1.197497e-12 -1.867694e-09) (-7.516577e-09 1.740047e-13 -1.428420e-10)) ((5.749403e-16 -3.417141e-12 3.974687e-16) (-8.703636e-14 1.210904e-09 -3.503792e-14))
5728.479396   	((-2.629770e-09 -1.190454e-12 -1.867869e-09) (-7.500019e-09 1.675753e-13 -1.448791e-10)) ((5.755168e-16 -3.416993e-12 3.950557e-16) (-8.701906e-14 1.209950e-09 -3.644909e-14))
6730.118388   	((-2.625400e-09 -1.182866e-12 -1.867864e-09) (-7.487912e-09 1.624321e-13 -1.464396e-10)) ((5.762108e-16 -3.416878e-12 3.927852e-16) (-8.696324e-14 1.209234e-09 -3.747755e-14))
7825.459578   	((-2.622070e-09 -1.172045e-12 -1.867756e-09) (-7.479121e-09 1.581213e-13 -1.476113e-10)) ((5.764048e-16 -3.416795e-12 3.913349e-16) (-8.691879e-14 1.208699e-09 -3.824503e-14))
8920.784832   	((-2.619555e-09 -1.162641e-12 -1.867602e-09) (-7.472785e-09 1.537112e-13 -1.484730e-10)) ((5.769305e-16 -3.416783e-12 3.902540e-16) (-8.689170e-14 1.208301e-09 -3.879955e-14))
10016.09824   	((-2.617660e-09 -1.149436e-12 -1.867424e-09) (-7.468230e-09 1.510244e-13 -1.490985e-10)) ((5.772495e-16 -3.416782e-12 3.895811e-16) (-8.686907e-14 1.208006e-09 -3.923398e-14))
11111.402878  	((-2.616223e-09 -1.138589e-12 -1.867241e-09) (-7.464964e-09 1.492815e-13 -1.495487e-10)) ((5.775826e-16 -3.416783e-12 3.888521e-16) (-8.683180e-14 1.207786e-09 -3.958284e-14))
12206.700871  	((-2.615126e-09 -1.128201e-12 -1.867063e-09) (-7.462623e-09 1.478490e-13 -1.498715e-10)) ((5.777971e-16 -3.416785e-12 3.882729e-16) (-8.680873e-14 1.207621e-09 -3.985815e-14))
13301.993767  	((-2.614284e-09 -1.118928e-12 -1.866925e-09) (-7.460945e-09 1.465987e-13 -1.501010e-10)) ((5.780336e-16 -3.416786e-12 3.877962e-16) (-8.680193e-14 1.207498e-09 -4.006986e-14))
14397.282738  	((-2.613640e-09 -1.110868e-12 -1.866767e-09) (-7.459742e-09 1.456107e-13 -1.502637e-10)) ((5.781630e-16 -3.416788e-12 3.874257e-16) (-8.679114e-14 1.207405e-09 -4.023249e-14))
15492.568676  	((-2.613146e-09 -1.105642e-12 -1.866642e-09) (-7.458880e-09 1.447317e-13 -1.503791e-10)) ((5.783957e-16 -3.416789e-12 3.870174e-16) (-8.677667e-14 1.207334e-09 -4.035799e-14))
16587.852264  	((-2.612763e-09 -1.095040e-12 -1.866524e-09) (-7.458262e-09 1.440593e-13 -1.504603e-10)) ((5.785549e-16 -3.416791e-12 3.868141e-16) (-8.676774e-14 1.207281e-09 -4.045616e-14))
17683.13403   	((-2.612472e-09 -1.080325e-12 -1.866427e-09) (-7.457817e-09 1.435286e-13 -1.505175e-10)) ((5.785628e-16 -3.416792e-12 3.865759e-16) (-8.676375e-14 1.207241e-09 -4.053029e-14))
18778.414378  	((-2.612248e-09 -1.072948e-12 -1.866334e-09) (-7.457497e-09 1.433223e-13 -1.505577e-10)) ((5.787337e-16 -3.416793e-12 3.863843e-16) (-8.675161e-14 1.207209e-09 -4.058692e-14))
19873.693623  	((-2.612073e-09 -1.069347e-12 -1.866253e-09) (-7.457268e-09 1.431372e-13 -1.505860e-10)) ((5.788579e-16 -3.416793e-12 3.862434e-16) (-8.674338e-14 1.207186e-09 -4.063371e-14))
20968.972008  	((-2.611935e-09 -1.065289e-12 -1.866183e-09) (-7.457104e-09 1.429261e-13 -1.506060e-10)) ((5.789057e-16 -3.416794e-12 3.861613e-16) (-8.673985e-14 1.207167e-09 -4.067152e-14))
22064.249723  	((-2.611825e-09 -1.061504e-12 -1.866124e-09) (-7.456985e-09 1.427488e-13 -1.506201e-10)) ((5.789708e-16 -3.416795e-12 3.860720e-16) (-8.673887e-14 1.207153e-09 -4.070154e-14))
23159.526915  	((-2.611738e-09 -1.058643e-12 -1.866067e-09) (-7.456899e-09 1.425756e-13 -1.506300e-10)) ((5.790667e-16 -3.416795e-12 3.859924e-16) (-8.673934e-14 1.207142e-09 -4.072632e-14))
24254.803699  	((-2.611669e-09 -1.054793e-12 -1.866028e-09) (-7.456837e-09 1.424346e-13 -1.506370e-10)) ((5.791118e-16 -3.416796e-12 3.859336e-16) (-8.673959e-14 1.207134e-09 -4.074647e-14))
25350.080163  	((-2.611616e-09 -1.061327e-12 -1.865988e-09) (-7.456793e-09 1.422837e-13 -1.506419e-10)) ((5.792400e-16 -3.416796e-12 3.859063e-16) (-8.674077e-14 1.207127e-09 -4.076457e-14))
26445.356378  	((-2.611576e-09 -1.058936e-12 -1.865945e-09) (-7.456761e-09 1.419246e-13 -1.506455e-10)) ((5.791818e-16 -3.416796e-12 3.858845e-16) (-8.675108e-14 1.207122e-09 -4.077813e-14))
27540.632398  	((-2.611541e-09 -1.056145e-12 -1.865928e-09) (-7.456738e-09 1.419908e-13 -1.506480e-10)) ((5.792603e-16 -3.416797e-12 3.858134e-16) (-8.674607e-14 1.207118e-09 -4.078907e-14))
28635.908266  	((-2.611515e-09 -1.060996e-12 -1.865895e-09) (-7.456721e-09 1.419443e-13 -1.506497e-10)) ((5.793625e-16 -3.416797e-12 3.857998e-16) (-8.674474e-14 1.207115e-09 -4.079848e-14))
29731.184014  	((-2.611495e-09 -1.058387e-12 -1.865872e-09) (-7.456709e-09 1.416928e-13 -1.506510e-10)) ((5.792865e-16 -3.416797e-12 3.857976e-16) (-8.675240e-14 1.207112e-09 -4.080489e-14))
30826.459667  	((-2.611478e-09 -1.055140e-12 -1.865869e-09) (-7.456700e-09 1.418203e-13 -1.506519e-10)) ((5.793441e-16 -3.416797e-12 3.857421e-16) (-8.674642e-14 1.207110e-09 -4.081070e-14))
31921.735248  	((-2.611465e-09 -1.060033e-12 -1.865843e-09) (-7.456694e-09 1.418140e-13 -1.506525e-10)) ((5.794286e-16 -3.416797e-12 3.857425e-16) (-8.674480e-14 1.207109e-09 -4.081606e-14))
33017.01077   	((-2.611455e-09 -1.057667e-12 -1.865829e-09) (-7.456689e-09 1.416078e-13 -1.506529e-10)) ((5.793382e-16 -3.416797e-12 3.857488e-16) (-8.675057e-14 1.207107e-09 -4.081915e-14))
34112.286247  	((-2.611446e-09 -1.054617e-12 -1.865836e-09) (-7.456686e-09 1.417563e-13 -1.506532e-10)) ((5.793847e-16 -3.416797e-12 3.857019e-16) (-8.674407e-14 1.207106e-09 -4.082235e-14))
35207.561689  	((-2.611439e-09 -1.059899e-12 -1.865813e-09) (-7.456684e-09 1.417678e-13 -1.506535e-10)) ((5.794544e-16 -3.416797e-12 3.857074e-16) (-8.674267e-14 1.207106e-09 -4.082532e-14))
36302.837103  	((-2.611435e-09 -1.057446e-12 -1.865804e-09) (-7.456682e-09 1.415690e-13 -1.506537e-10)) ((5.793535e-16 -3.416797e-12 3.857220e-16) (-8.674946e-14 1.207105e-09 -4.082674e-14))
37398.112495  	((-2.611430e-09 -1.054737e-12 -1.865817e-09) (-7.456681e-09 1.417132e-13 -1.506538e-10)) ((5.793939e-16 -3.416797e-12 3.856803e-16) (-8.674363e-14 1.207104e-09 -4.082843e-14))
38493.387869  	((-2.611426e-09 -1.060071e-12 -1.865795e-09) (-7.456681e-09 1.417162e-13 -1.506538e-10)) ((5.794623e-16 -3.416797e-12 3.856911e-16) (-8.674219e-14 1.207104e-09 -4.083042e-14))
39588.66323   	((-2.611425e-09 -1.057768e-12 -1.865789e-09) (-7.456680e-09 1.415171e-13 -1.506539e-10)) ((5.793561e-16 -3.416797e-12 3.857091e-16) (-8.674841e-14 1.207104e-09 -4.083112e-14))
40683.938581  	((-2.611422e-09 -1.054827e-12 -1.865805e-09) (-7.456680e-09 1.416551e-13 -1.506539e-10)) ((5.793979e-16 -3.416798e-12 3.856713e-16) (-8.674421e-14 1.207103e-09 -4.083223e-14))
41779.213923  	((-2.611419e-09 -1.059708e-12 -1.865786e-09) (-7.456680e-09 1.416214e-13 -1.506539e-10)) ((5.794709e-16 -3.416797e-12 3.856826e-16) (-8.674480e-14 1.207103e-09 -4.083363e-14))
42874.489259  	((-2.611420e-09 -1.056921e-12 -1.865782e-09) (-7.456679e-09 1.414146e-13 -1.506539e-10)) ((5.793710e-16 -3.416797e-12 3.857023e-16) (-8.675208e-14 1.207103e-09 -4.083386e-14))
43969.764589  	((-2.611418e-09 -1.061944e-12 -1.865787e-09) (-7.456679e-09 1.414706e-13 -1.506539e-10)) ((5.794682e-16 -3.416797e-12 3.856911e-16) (-8.674923e-14 1.207103e-09 -4.083541e-14))
45065.039915  	((-2.611419e-09 -1.058594e-12 -1.865781e-09) (-7.456679e-09 1.413408e-13 -1.506540e-10)) ((5.793838e-16 -3.416797e-12 3.857022e-16) (-8.675514e-14 1.207103e-09 -4.083485e-14))
46160.315238  	((-2.611420e-09 -1.055671e-12 -1.865779e-09) (-7.456679e-09 1.412919e-13 -1.506540e-10)) ((5.793469e-16 -3.416797e-12 3.857037e-16) (-8.675877e-14 1.207103e-09 -4.083409e-14))
47255.590558  	((-2.611419e-09 -1.061055e-12 -1.865784e-09) (-7.456679e-09 1.414908e-13 -1.506540e-10)) ((5.794653e-16 -3.416797e-12 3.856891e-16) (-8.675136e-14 1.207103e-09 -4.083473e-14))
