# Forces      
# CofR        : (0.000000e+00 0.000000e+00 0.000000e+00)
# Time        forces(pressure viscous)	moments(pressure viscous)
0             	((0.000000e+00 0.000000e+00 0.000000e+00) (-6.260379e-08 1.760123e-10 -6.327716e-03)) ((0.000000e+00 0.000000e+00 0.000000e+00) (-7.336877e-11 -1.257184e-09 1.760706e-13))
0.012         	((-1.952325e-04 -2.351627e-05 -4.868093e+00) (-1.721174e-07 -5.131358e-08 -6.502782e-03)) ((2.005071e-08 -1.280476e-05 -1.189737e-09) (-7.625330e-09 2.198436e-08 -2.301283e-12))
0.0264        	((5.488668e-05 1.909374e-05 5.947077e-01) (-3.922363e-07 -1.121576e-07 -5.628956e-03)) ((-2.084611e-08 8.521236e-07 3.846929e-09) (2.677866e-09 2.765406e-08 4.215508e-10))
0.04368       	((2.495039e-04 2.975412e-04 4.635062e-01) (-4.825839e-07 5.115750e-08 -4.789290e-03)) ((-1.576111e-08 1.016154e-06 2.756682e-09) (2.120821e-08 1.056533e-08 1.109095e-09))
0.064416      	((-8.340445e-06 -9.172278e-06 1.443230e-01) (-1.818616e-07 2.547576e-07 -4.317781e-03)) ((-5.186472e-09 2.401509e-07 2.551248e-09) (1.935531e-08 1.881363e-08 1.040300e-09))
0.0892992     	((2.064275e-05 4.083416e-05 6.773343e-02) (-6.340192e-07 -9.582398e-08 -4.009321e-03)) ((-1.117089e-08 2.859631e-08 1.856348e-08) (3.370622e-09 4.150171e-08 6.654078e-10))
0.119159      	((9.333962e-05 5.825931e-05 3.121063e-02) (-3.847046e-07 1.020233e-07 -3.740061e-03)) ((-1.269285e-08 -8.259813e-08 1.746732e-08) (-1.237543e-08 6.617257e-08 -9.727882e-10))
0.154991      	((7.443387e-05 4.969149e-05 1.049107e-02) (3.131129e-07 4.821099e-07 -3.499971e-03)) ((-1.136586e-08 -1.437248e-07 1.453169e-08) (4.152484e-09 4.255723e-08 -3.876381e-09))
0.197989      	((-2.060253e-05 8.885080e-06 -1.914295e-03) (4.286019e-07 2.884981e-07 -3.288301e-03)) ((-7.515537e-09 -1.820905e-07 1.117348e-08) (2.919461e-08 -2.604918e-08 -5.600260e-09))
0.249587      	((-2.174867e-05 1.348847e-05 -9.258279e-03) (-6.166640e-07 1.490475e-07 -3.100712e-03)) ((-3.543289e-09 -2.066762e-07 1.522614e-09) (2.521772e-08 -7.477503e-08 -6.994370e-09))
0.311504      	((-2.959562e-05 1.660337e-05 -1.365013e-02) (-5.245604e-07 9.133503e-07 -2.934174e-03)) ((-4.255284e-09 -2.206840e-07 -2.845385e-09) (2.531490e-08 -9.258847e-08 -5.773893e-09))
0.385805      	((-2.167489e-05 4.923892e-06 -1.614331e-02) (3.578772e-07 1.336628e-06 -2.785485e-03)) ((-5.091625e-09 -2.207360e-07 -3.509814e-09) (4.068953e-08 -1.145399e-07 -2.993572e-09))
0.474966      	((-3.179706e-05 -3.301355e-06 -1.755056e-02) (4.494416e-07 9.526448e-07 -2.652162e-03)) ((-4.858741e-09 -2.186258e-07 -2.980228e-09) (3.975726e-08 -1.428574e-07 -2.413271e-10))
0.581959      	((-2.912024e-05 -1.390012e-05 -1.841726e-02) (1.256459e-06 7.878200e-07 -2.534653e-03)) ((-4.597474e-09 -2.172878e-07 -2.523813e-09) (4.505665e-08 -1.540966e-07 4.760958e-10))
0.710351      	((-3.273822e-05 -1.878619e-05 -1.906289e-02) (1.705821e-06 7.020613e-07 -2.431814e-03)) ((-4.975441e-09 -2.141915e-07 -2.194777e-09) (5.972080e-08 -1.629017e-07 -4.394422e-10))
0.864317      	((-3.836781e-05 -2.226408e-05 -1.962861e-02) (1.495364e-06 6.289519e-07 -2.346471e-03)) ((-4.716297e-09 -2.096234e-07 -2.437383e-09) (6.558933e-08 -1.630950e-07 -1.285932e-09))
1.04408       	((-4.837534e-05 -2.893916e-05 -1.987839e-02) (1.154647e-06 5.423067e-07 -2.280844e-03)) ((-4.373479e-09 -2.058581e-07 -1.278421e-09) (6.473955e-08 -1.447937e-07 -1.589186e-09))
1.249871      	((-6.058684e-05 -3.701506e-05 -2.025631e-02) (9.386178e-07 4.124867e-07 -2.231286e-03)) ((-3.972751e-09 -2.023055e-07 -1.091570e-09) (5.774803e-08 -1.200394e-07 -2.284823e-09))
1.48191       	((-7.756260e-05 -4.744975e-05 -2.054974e-02) (6.772257e-07 3.129104e-07 -2.195363e-03)) ((-3.582347e-09 -1.993290e-07 -9.503075e-10) (4.588558e-08 -8.612581e-08 -3.419167e-09))
1.740375      	((-1.068050e-04 -6.430707e-05 -2.017712e-02) (-4.565155e-08 1.184187e-07 -2.168970e-03)) ((-2.848009e-09 -1.958399e-07 -2.248509e-10) (2.775954e-08 -4.600710e-08 -4.385547e-09))
2.006549      	((-1.273498e-04 -7.565749e-05 -1.955065e-02) (-1.002317e-06 -2.473878e-07 -2.150958e-03)) ((-2.469249e-09 -1.920966e-07 -4.165223e-10) (1.418342e-08 -1.340268e-08 -4.180235e-09))
2.274385      	((-1.479266e-04 -8.728884e-05 -1.886564e-02) (-1.930685e-06 -5.857019e-07 -2.138936e-03)) ((-2.012817e-09 -1.894198e-07 -5.797089e-10) (1.324925e-09 1.654167e-08 -2.909765e-09))
2.543628      	((-1.662095e-04 -9.988750e-05 -1.843803e-02) (-2.623082e-06 -8.213821e-07 -2.131366e-03)) ((-1.669816e-09 -1.876647e-07 -8.375394e-10) (-4.614311e-09 3.658248e-08 -1.801619e-09))
2.813877      	((-1.845383e-04 -1.120225e-04 -1.831024e-02) (-3.106692e-06 -1.010653e-06 -2.128791e-03)) ((-1.115707e-09 -1.870766e-07 -1.226940e-09) (-3.944142e-09 4.787910e-08 -9.765746e-10))
3.084823      	((-2.129996e-04 -1.308825e-04 -1.831001e-02) (-3.478042e-06 -1.207346e-06 -2.130246e-03)) ((-6.695725e-10 -1.870274e-07 -1.700551e-09) (-3.148968e-09 5.393210e-08 -5.379134e-10))
3.356141      	((-2.487855e-04 -1.556979e-04 -1.824686e-02) (-3.982487e-06 -1.549563e-06 -2.133864e-03)) ((-3.105706e-10 -1.871180e-07 -1.891478e-09) (-6.299579e-09 6.144022e-08 -5.005431e-10))
3.627643      	((-2.860269e-04 -1.834631e-04 -1.809932e-02) (-4.494694e-06 -1.955812e-06 -2.138186e-03)) ((2.068823e-10 -1.877224e-07 -1.539607e-09) (-1.003554e-08 6.766857e-08 -7.744289e-10))
3.899182      	((-3.204468e-04 -2.082654e-04 -1.797150e-02) (-4.883107e-06 -2.307632e-06 -2.141843e-03)) ((7.954450e-10 -1.887483e-07 -1.032861e-09) (-1.048097e-08 6.730098e-08 -1.494401e-09))
4.170748      	((-3.582375e-04 -2.358707e-04 -1.787530e-02) (-5.203192e-06 -2.647110e-06 -2.144085e-03)) ((1.443876e-09 -1.898318e-07 -2.262856e-10) (-1.031779e-08 6.344961e-08 -2.506127e-09))
4.44229       	((-3.991549e-04 -2.652479e-04 -1.779878e-02) (-5.467118e-06 -2.973059e-06 -2.145259e-03)) ((2.222055e-09 -1.910959e-07 3.876079e-10) (-1.079005e-08 5.697135e-08 -3.467140e-09))
4.713746      	((-4.420165e-04 -2.954617e-04 -1.774857e-02) (-5.751773e-06 -3.316337e-06 -2.146007e-03)) ((2.993951e-09 -1.922655e-07 4.048328e-10) (-1.306569e-08 5.201400e-08 -4.193875e-09))
4.985164      	((-4.892021e-04 -3.277019e-04 -1.771351e-02) (-6.145320e-06 -3.726984e-06 -2.146593e-03)) ((3.562075e-09 -1.933010e-07 -2.787487e-10) (-1.925818e-08 5.280062e-08 -4.449287e-09))
5.256543      	((-5.379674e-04 -3.610668e-04 -1.768917e-02) (-6.688805e-06 -4.196594e-06 -2.147144e-03)) ((3.853123e-09 -1.940970e-07 -1.086711e-09) (-2.990216e-08 5.991872e-08 -4.331889e-09))
5.527977      	((-5.899678e-04 -3.943688e-04 -1.766864e-02) (-7.361580e-06 -4.745599e-06 -2.147770e-03)) ((4.161664e-09 -1.947162e-07 -2.092883e-09) (-4.341521e-08 7.127832e-08 -4.163807e-09))
5.799462      	((-6.455836e-04 -4.292435e-04 -1.765154e-02) (-8.144767e-06 -5.354152e-06 -2.148509e-03)) ((4.634254e-09 -1.953539e-07 -2.409098e-09) (-5.770838e-08 8.503980e-08 -4.281515e-09))
