# Forces      
# CofR        : (0.000000e+00 0.000000e+00 0.000000e+00)
# Time        forces(pressure viscous)	moments(pressure viscous)
0             	((0.000000e+00 0.000000e+00 0.000000e+00) (0.000000e+00 0.000000e+00 0.000000e+00)) ((0.000000e+00 0.000000e+00 0.000000e+00) (0.000000e+00 0.000000e+00 0.000000e+00))
0.012         	((-3.489905e-10 9.556487e-08 -1.257228e-09) (-1.072138e-11 1.069793e-09 -4.318446e-13)) ((-6.932207e-12 1.440334e-14 -1.321824e-09) (2.034626e-11 6.216605e-13 -2.672493e-06))
0.0264        	((5.197524e-11 -3.451105e-08 1.673974e-09) (-6.864506e-12 1.147010e-09 -1.344688e-11)) ((-1.625765e-11 2.598773e-13 -4.056852e-10) (3.611258e-11 6.140712e-13 -2.339334e-06))
0.04368       	((-2.265412e-09 1.743923e-08 -6.654389e-09) (-1.052711e-11 7.469681e-10 -4.320428e-11)) ((7.210408e-12 1.525657e-13 -2.206091e-10) (2.988894e-11 7.031413e-13 -2.024170e-06))
0.064416      	((-1.196190e-09 2.398920e-09 -7.927774e-09) (-2.692497e-11 3.897922e-10 -2.239248e-11)) ((-2.367680e-12 1.554889e-13 -1.545393e-10) (1.402349e-11 1.318923e-12 -1.736028e-06))
0.0892992     	((-1.116401e-09 8.149783e-09 -1.367204e-08) (-3.690564e-11 2.318483e-10 2.723796e-11)) ((2.105432e-12 2.374897e-13 -1.276930e-10) (6.250491e-12 1.898700e-12 -1.482712e-06))
0.119159      	((6.628091e-10 2.138440e-09 -1.900271e-08) (-5.656191e-11 1.963585e-10 2.010111e-10)) ((1.257760e-12 4.341104e-13 -1.037932e-10) (-2.775245e-12 1.955961e-12 -1.267059e-06))
0.154991      	((-7.595699e-10 7.828644e-09 -2.419304e-08) (-9.271245e-11 1.515086e-10 6.752267e-10)) ((1.287056e-12 4.549536e-13 -8.359590e-11) (-8.520630e-12 1.843579e-12 -1.089065e-06))
0.197989      	((-8.386452e-10 5.822334e-09 -2.721320e-08) (-1.246447e-10 1.034208e-10 1.671074e-09)) ((1.191859e-12 5.511593e-13 -6.765834e-11) (-1.110222e-11 1.635991e-12 -9.449131e-07))
0.249587      	((-1.580522e-09 7.527936e-09 -3.160507e-08) (-1.570876e-10 5.657051e-11 3.100248e-09)) ((1.050772e-12 7.931928e-13 -5.768067e-11) (-9.295120e-12 3.557853e-12 -8.288958e-07))
0.311504      	((-3.697531e-09 8.392469e-09 -3.414046e-08) (-1.875037e-10 -2.235679e-11 4.716591e-09)) ((9.049471e-13 9.632384e-13 -5.170523e-11) (-6.405324e-12 6.011061e-12 -7.343415e-07))
0.385805      	((-5.943520e-09 1.113044e-08 -3.938014e-08) (-1.888573e-10 -9.628971e-11 6.507513e-09)) ((4.083251e-13 7.362436e-13 -4.586398e-11) (-1.619893e-12 5.991934e-12 -6.555855e-07))
0.474966      	((-7.174257e-09 1.331902e-08 -4.319373e-08) (-1.916839e-10 -1.576144e-10 8.457543e-09)) ((-1.269747e-13 6.288156e-13 -4.089272e-11) (3.948035e-12 6.902390e-12 -5.884951e-07))
0.581959      	((-1.012231e-08 1.424588e-08 -4.830500e-08) (-1.346042e-10 -1.097961e-10 1.070634e-08)) ((-5.852984e-13 3.323008e-13 -3.788668e-11) (9.334795e-12 1.138263e-11 -5.302152e-07))
0.710351      	((-8.474354e-09 1.268634e-08 -5.564570e-08) (4.665577e-11 -2.277167e-11 1.344426e-08)) ((-1.069584e-12 6.794007e-13 -3.557716e-11) (1.266696e-11 1.203099e-11 -4.788311e-07))
0.864421      	((-1.091642e-08 1.210915e-08 -6.269010e-08) (2.055406e-10 -1.767346e-10 1.675448e-08)) ((-1.666721e-12 1.992948e-13 -3.335472e-11) (8.161304e-12 9.650462e-12 -4.330662e-07))
1.049306      	((-1.080855e-08 1.019430e-08 -7.039353e-08) (4.035205e-10 -4.800103e-10 2.054554e-08)) ((-1.842544e-12 -4.851645e-14 -3.112825e-11) (-1.902357e-12 6.908598e-12 -3.921411e-07))
1.271167      	((-9.925691e-09 8.281287e-09 -7.838800e-08) (6.286142e-10 -8.267013e-10 2.483382e-08)) ((-1.994728e-12 -2.595625e-13 -2.922325e-11) (-1.295417e-11 -8.813161e-13 -3.556782e-07))
1.5374        	((-9.982019e-09 7.050882e-09 -8.605747e-08) (8.510755e-10 -1.159108e-09 2.965401e-08)) ((-1.678402e-12 -7.837581e-13 -2.737442e-11) (-2.541641e-11 -7.512897e-12 -3.235100e-07))
1.85688       	((-8.278013e-09 4.686810e-09 -9.187600e-08) (1.126071e-09 -1.509239e-09 3.482307e-08)) ((-1.235364e-12 -8.733402e-13 -2.554414e-11) (-4.243368e-11 -1.356201e-11 -2.954320e-07))
2.240256      	((-6.615196e-09 3.363250e-09 -9.905406e-08) (1.490686e-09 -1.960341e-09 4.036997e-08)) ((-1.244300e-12 -8.073258e-13 -2.387147e-11) (-5.955665e-11 -2.154479e-11 -2.710844e-07))
2.700307      	((-6.511345e-09 2.217160e-09 -1.081767e-07) (1.833093e-09 -2.421700e-09 4.614417e-08)) ((-1.180975e-12 -9.222754e-13 -2.219692e-11) (-7.228444e-11 -2.807437e-11 -2.499496e-07))
3.252369      	((-5.829672e-09 1.621341e-09 -1.199036e-07) (2.153212e-09 -2.642897e-09 5.206097e-08)) ((-1.055918e-12 -1.120570e-12 -2.050261e-11) (-7.999616e-11 -3.600724e-11 -2.314326e-07))
3.914842      	((-3.443155e-09 1.506712e-09 -1.325303e-07) (2.411111e-09 -2.771732e-09 5.851991e-08)) ((-7.755499e-13 -1.328716e-12 -1.891510e-11) (-8.306601e-11 -3.961733e-11 -2.149732e-07))
4.709811      	((-3.486422e-09 1.033202e-09 -1.491694e-07) (2.489140e-09 -2.645356e-09 6.572031e-08)) ((-6.369523e-13 -1.522322e-12 -1.745690e-11) (-7.886143e-11 -3.400758e-11 -2.001203e-07))
5.663773      	((-2.811657e-09 -1.064297e-09 -1.683214e-07) (2.310624e-09 -2.454484e-09 7.359291e-08)) ((-3.558969e-13 -1.534332e-12 -1.597299e-11) (-7.540179e-11 -3.065591e-11 -1.865539e-07))
6.808528      	((-2.588865e-09 -2.443963e-10 -1.892019e-07) (1.974050e-09 -2.244027e-09 8.217314e-08)) ((-1.467137e-13 -1.519074e-12 -1.461665e-11) (-7.281277e-11 -2.870822e-11 -1.740769e-07))
8.182233      	((-1.285331e-09 -7.039349e-10 -2.085618e-07) (1.798615e-09 -2.114410e-09 9.150681e-08)) ((1.112655e-13 -1.481490e-12 -1.346290e-11) (-6.968263e-11 -2.955892e-11 -1.625642e-07))
9.83068       	((-1.828788e-09 -7.895883e-11 -2.275131e-07) (1.627981e-09 -2.162029e-09 1.017013e-07)) ((2.610336e-13 -1.653967e-12 -1.244578e-11) (-6.261121e-11 -3.027186e-11 -1.519062e-07))
11.808816     	((-1.284327e-09 1.468493e-09 -2.480594e-07) (1.457716e-09 -2.046469e-09 1.126135e-07)) ((3.438016e-13 -1.781527e-12 -1.149186e-11) (-4.897598e-11 -3.042586e-11 -1.420327e-07))
14.182579     	((-2.013568e-09 4.825463e-10 -2.711980e-07) (1.313785e-09 -1.904862e-09 1.243474e-07)) ((4.338592e-13 -1.851743e-12 -1.060348e-11) (-3.782126e-11 -2.894731e-11 -1.329281e-07))
17.031095     	((-2.788290e-09 4.829253e-10 -2.929265e-07) (1.165486e-09 -1.599576e-09 1.366496e-07)) ((4.974719e-13 -1.870922e-12 -9.777767e-12) (-2.894714e-11 -2.442612e-11 -1.245996e-07))
20.449314     	((-2.616697e-09 2.377315e-10 -3.168625e-07) (1.128274e-09 -1.431325e-09 1.496145e-07)) ((5.893096e-13 -1.917674e-12 -9.037860e-12) (-2.242161e-11 -2.324664e-11 -1.170463e-07))
24.551176     	((-2.735318e-09 8.292364e-11 -3.417554e-07) (1.159713e-09 -1.403509e-09 1.636556e-07)) ((5.301865e-13 -2.035058e-12 -8.400127e-12) (-1.901835e-11 -2.490063e-11 -1.102326e-07))
29.473411     	((-2.851507e-09 -6.250953e-10 -3.665827e-07) (1.166365e-09 -1.471972e-09 1.787801e-07)) ((5.106318e-13 -2.163097e-12 -7.823196e-12) (-2.104504e-11 -2.824130e-11 -1.040891e-07))
35.380094     	((-3.223424e-09 -6.922748e-10 -3.914416e-07) (1.105820e-09 -1.579688e-09 1.948774e-07)) ((4.408364e-13 -2.225231e-12 -7.292818e-12) (-2.592768e-11 -3.002241e-11 -9.854378e-08))
42.468112     	((-3.255282e-09 -6.261427e-10 -4.167155e-07) (1.062239e-09 -1.731088e-09 2.120262e-07)) ((4.100657e-13 -2.359309e-12 -6.806168e-12) (-2.883814e-11 -2.885042e-11 -9.352691e-08))
50.973735     	((-3.261497e-09 -9.112249e-10 -4.426799e-07) (9.660391e-10 -1.887952e-09 2.302159e-07)) ((4.552508e-13 -2.472298e-12 -6.338718e-12) (-3.290839e-11 -2.591141e-11 -8.897030e-08))
61.180482     	((-3.408006e-09 -1.364500e-09 -4.679182e-07) (8.451470e-10 -2.065980e-09 2.492547e-07)) ((4.645403e-13 -2.581243e-12 -5.938490e-12) (-3.809538e-11 -2.067744e-11 -8.482156e-08))
73.428578     	((-3.298028e-09 -1.567728e-09 -4.924604e-07) (7.088431e-10 -2.213384e-09 2.689233e-07)) ((4.684705e-13 -2.649888e-12 -5.575823e-12) (-4.256914e-11 -1.303720e-11 -8.104766e-08))
88.126294     	((-3.561639e-09 -1.702334e-09 -5.172020e-07) (5.092783e-10 -2.298942e-09 2.890841e-07)) ((4.074149e-13 -2.711722e-12 -5.292538e-12) (-4.540542e-11 -2.283291e-12 -7.762410e-08))
105.763553    	((-3.629412e-09 -1.556442e-09 -5.435492e-07) (2.431777e-10 -2.287255e-09 3.096616e-07)) ((3.570190e-13 -2.835253e-12 -5.033642e-12) (-4.550687e-11 1.060101e-11 -7.453749e-08))
126.621656    	((-3.668956e-09 -1.655687e-09 -5.692481e-07) (-4.817495e-11 -2.233799e-09 3.306562e-07)) ((2.886857e-13 -2.985225e-12 -4.797842e-12) (-4.046023e-11 2.352537e-11 -7.178777e-08))
150.699699    	((-3.573331e-09 -1.319380e-09 -5.940281e-07) (-2.680525e-10 -2.114897e-09 3.517546e-07)) ((2.661697e-13 -3.138645e-12 -4.594723e-12) (-3.287127e-11 3.548337e-11 -6.936563e-08))
177.996669    	((-3.476734e-09 -9.140757e-10 -6.177460e-07) (-4.349926e-10 -1.940503e-09 3.728792e-07)) ((2.389947e-13 -3.296250e-12 -4.423972e-12) (-2.339499e-11 4.578003e-11 -6.724953e-08))
208.511454    	((-3.258230e-09 -5.434381e-10 -6.402455e-07) (-5.145495e-10 -1.658813e-09 3.940820e-07)) ((2.222290e-13 -3.434390e-12 -4.267396e-12) (-1.242886e-11 5.175109e-11 -6.541585e-08))
240.676836    	((-2.945670e-09 -4.321516e-10 -6.611053e-07) (-5.761028e-10 -1.357042e-09 4.151831e-07)) ((2.261435e-13 -3.578355e-12 -4.125809e-12) (-9.962501e-13 5.348393e-11 -6.385674e-08))
272.828188    	((-2.653748e-09 -3.423329e-10 -6.791399e-07) (-5.340774e-10 -1.075909e-09 4.357856e-07)) ((2.306970e-13 -3.706872e-12 -4.003947e-12) (9.663121e-12 5.138405e-11 -6.255583e-08))
304.965553    	((-2.361388e-09 -4.897596e-10 -6.941589e-07) (-4.199890e-10 -8.282717e-10 4.556407e-07)) ((2.574206e-13 -3.823666e-12 -3.895363e-12) (1.824235e-11 4.622352e-11 -6.148463e-08))
337.088637    	((-2.143141e-09 -6.606056e-10 -7.065154e-07) (-3.233160e-10 -6.186017e-10 4.745989e-07)) ((2.805024e-13 -3.966860e-12 -3.801964e-12) (2.462221e-11 3.966575e-11 -6.061350e-08))
369.19715     	((-1.949964e-09 -8.562819e-10 -7.167487e-07) (-2.367062e-10 -4.766076e-10 4.927846e-07)) ((2.836717e-13 -4.101311e-12 -3.721434e-12) (2.733049e-11 3.325943e-11 -5.991417e-08))
401.290606    	((-1.851959e-09 -1.086852e-09 -7.247392e-07) (-1.420087e-10 -4.233659e-10 5.101200e-07)) ((2.823129e-13 -4.229427e-12 -3.650567e-12) (2.727899e-11 2.775397e-11 -5.936350e-08))
433.369579    	((-1.829489e-09 -1.252609e-09 -7.310933e-07) (-9.974046e-11 -3.952175e-10 5.266829e-07)) ((2.672504e-13 -4.354209e-12 -3.585417e-12) (2.574157e-11 2.384873e-11 -5.894027e-08))
465.435007    	((-1.882758e-09 -1.425639e-09 -7.358922e-07) (-6.058411e-11 -3.991169e-10 5.424666e-07)) ((2.527470e-13 -4.469707e-12 -3.531759e-12) (2.386132e-11 2.129784e-11 -5.862702e-08))
497.486247    	((-1.989356e-09 -1.516693e-09 -7.393590e-07) (-4.451480e-11 -3.907312e-10 5.574472e-07)) ((2.371073e-13 -4.584423e-12 -3.486342e-12) (2.333706e-11 2.006934e-11 -5.840884e-08))
529.523641    	((-2.086020e-09 -1.558822e-09 -7.417519e-07) (-4.886891e-11 -3.698861e-10 5.715929e-07)) ((2.413370e-13 -4.693259e-12 -3.450947e-12) (2.373856e-11 1.903590e-11 -5.827252e-08))
561.547991    	((-2.175371e-09 -1.555495e-09 -7.432727e-07) (-6.361040e-11 -3.336410e-10 5.849309e-07)) ((2.553930e-13 -4.798255e-12 -3.423347e-12) (2.493797e-11 1.755424e-11 -5.820646e-08))
593.56018     	((-2.201834e-09 -1.519699e-09 -7.439529e-07) (-5.364811e-11 -2.755516e-10 5.974582e-07)) ((2.729681e-13 -4.911538e-12 -3.402435e-12) (2.669512e-11 1.542497e-11 -5.820032e-08))
625.561084    	((-2.191781e-09 -1.492459e-09 -7.438856e-07) (-2.634792e-11 -2.212156e-10 6.091913e-07)) ((2.831279e-13 -5.022320e-12 -3.386482e-12) (2.832400e-11 1.256323e-11 -5.824475e-08))
657.551566    	((-2.158536e-09 -1.491968e-09 -7.433048e-07) (1.166217e-11 -1.842642e-10 6.201481e-07)) ((2.934127e-13 -5.124274e-12 -3.375288e-12) (2.937273e-11 9.185793e-12 -5.833171e-08))
689.532447    	((-2.143596e-09 -1.523586e-09 -7.420202e-07) (5.204024e-11 -1.532638e-10 6.303323e-07)) ((3.001656e-13 -5.223563e-12 -3.368914e-12) (2.990091e-11 5.548557e-12 -5.845379e-08))
721.504634    	((-2.160695e-09 -1.593265e-09 -7.403101e-07) (9.955722e-11 -1.253246e-10 6.397610e-07)) ((3.023214e-13 -5.314303e-12 -3.367614e-12) (2.982431e-11 1.736177e-12 -5.860472e-08))
753.468564    	((-2.137742e-09 -1.644522e-09 -7.381865e-07) (1.585317e-10 -1.092804e-10 6.484633e-07)) ((3.114389e-13 -5.395410e-12 -3.368651e-12) (2.892546e-11 -2.037917e-12 -5.877958e-08))
