# Forces      
# CofR        : (0.000000e+00 0.000000e+00 0.000000e+00)
# Time        forces(pressure viscous)	moments(pressure viscous)
0             	((0.000000e+00 0.000000e+00 0.000000e+00) (-9.343973e-12 -3.170571e-02 2.114113e-12)) ((0.000000e+00 0.000000e+00 0.000000e+00) (-7.123915e-04 -7.940404e-14 1.367110e-08))
0.00967038    	((2.811367e-03 -1.149272e+01 5.997685e-01) (5.320565e-06 -7.662110e-02 -1.186438e-02)) ((1.358789e-04 9.689020e-06 2.515509e-06) (-2.548931e-03 2.038881e-07 -4.651478e-07))
0.0212748     	((-8.523410e-04 5.474026e+00 -3.349325e+00) (2.268232e-05 -7.044355e-02 -1.474991e-02)) ((-6.563981e-05 -2.877706e-06 -1.020066e-06) (-2.581346e-03 4.442210e-08 -7.135765e-07))
0.0352002     	((-7.716059e-04 -1.253029e+00 -1.746178e+00) (1.412425e-05 -5.779782e-02 -1.024057e-02)) ((7.373611e-06 1.597084e-06 2.946522e-07) (-2.062535e-03 -4.870652e-10 -7.300068e-07))
0.0517651     	((-7.229386e-04 4.764990e-01 -1.850966e+00) (-8.689314e-06 -5.381624e-02 -9.695784e-03)) ((-5.234369e-06 1.384142e-06 4.699295e-07) (-1.917993e-03 -3.849887e-08 -1.254990e-06))
0.0709818     	((-6.883775e-04 -3.436734e-01 -1.704455e+00) (-2.832255e-05 -5.128391e-02 -9.754333e-03)) ((1.293094e-06 1.511848e-06 3.522895e-07) (-1.832149e-03 -6.665011e-08 -1.645908e-06))
0.0928339     	((-1.213843e-03 2.720451e-02 -1.773506e+00) (-4.479473e-05 -5.046493e-02 -1.002575e-02)) ((4.664035e-07 1.545611e-06 4.181129e-07) (-1.805398e-03 3.036131e-08 -1.603090e-06))
0.117303      	((-5.646270e-04 -1.542393e-01 -1.721609e+00) (-4.674569e-05 -4.971736e-02 -1.043460e-02)) ((1.866741e-06 1.481812e-06 4.869592e-07) (-1.771629e-03 1.358035e-07 -1.680912e-06))
0.143314      	((-6.281147e-04 -7.984384e-02 -1.753107e+00) (-4.421683e-05 -4.932385e-02 -1.085007e-02)) ((2.722465e-06 1.487380e-06 5.895434e-07) (-1.755385e-03 1.907987e-07 -1.977788e-06))
0.16934       	((-1.837205e-04 -1.319136e-01 -1.732216e+00) (-4.074529e-05 -4.912719e-02 -1.120667e-02)) ((3.437604e-06 1.610409e-06 6.441059e-07) (-1.745545e-03 1.889045e-07 -2.094487e-06))
0.195278      	((-6.074875e-05 -1.209513e-01 -1.742023e+00) (-3.742335e-05 -4.904598e-02 -1.153254e-02)) ((4.073933e-06 1.711031e-06 7.241102e-07) (-1.739626e-03 1.971698e-07 -2.245516e-06))
0.221036      	((5.437895e-04 -1.416189e-01 -1.726468e+00) (-3.558582e-05 -4.897492e-02 -1.176612e-02)) ((4.613206e-06 1.821027e-06 7.350846e-07) (-1.732969e-03 9.981077e-08 -2.498179e-06))
0.246623      	((6.928721e-04 -1.447931e-01 -1.723019e+00) (-3.804690e-05 -4.886843e-02 -1.192600e-02)) ((5.171917e-06 1.949013e-06 7.910801e-07) (-1.724992e-03 1.588088e-08 -2.703897e-06))
0.272129      	((1.240128e-03 -1.529178e-01 -1.706453e+00) (-3.789409e-05 -4.867602e-02 -1.201328e-02)) ((5.696222e-06 2.022483e-06 7.981322e-07) (-1.714917e-03 -1.700417e-08 -2.943994e-06))
0.297605      	((1.738458e-03 -1.545479e-01 -1.696375e+00) (-3.887633e-05 -4.842653e-02 -1.211397e-02)) ((6.158169e-06 2.056146e-06 8.420943e-07) (-1.703928e-03 -9.539742e-08 -3.215764e-06))
0.323108      	((2.247781e-03 -1.568535e-01 -1.682135e+00) (-4.081180e-05 -4.816114e-02 -1.220069e-02)) ((6.555594e-06 2.169750e-06 8.818192e-07) (-1.693188e-03 -1.928265e-07 -3.406646e-06))
0.348682      	((3.042898e-03 -1.568337e-01 -1.671127e+00) (-3.443085e-05 -4.790440e-02 -1.227478e-02)) ((6.834722e-06 2.225869e-06 9.327116e-07) (-1.683313e-03 -3.024151e-07 -3.614623e-06))
0.374322      	((3.893639e-03 -1.568945e-01 -1.660482e+00) (-2.806724e-05 -4.767825e-02 -1.235302e-02)) ((7.039803e-06 2.264798e-06 9.715433e-07) (-1.674657e-03 -4.754386e-07 -3.849456e-06))
0.399964      	((4.620412e-03 -1.559001e-01 -1.650859e+00) (-2.517054e-05 -4.747590e-02 -1.240661e-02)) ((7.325871e-06 2.338451e-06 9.994762e-07) (-1.667056e-03 -6.324333e-07 -3.990989e-06))
0.425608      	((5.713448e-03 -1.553386e-01 -1.641968e+00) (-1.874346e-05 -4.728719e-02 -1.245336e-02)) ((7.423588e-06 2.373744e-06 1.036685e-06) (-1.660169e-03 -8.055331e-07 -4.189062e-06))
0.451265      	((6.735741e-03 -1.543866e-01 -1.633927e+00) (-1.407972e-05 -4.711180e-02 -1.249612e-02)) ((7.576096e-06 2.401338e-06 1.063873e-06) (-1.653869e-03 -9.871237e-07 -4.488340e-06))
0.476938      	((7.905786e-03 -1.540431e-01 -1.626199e+00) (-9.975833e-06 -4.694977e-02 -1.253433e-02)) ((7.684735e-06 2.469027e-06 1.088454e-06) (-1.647947e-03 -1.186545e-06 -4.782362e-06))
0.502623      	((9.183443e-03 -1.537563e-01 -1.619422e+00) (-5.307885e-06 -4.680156e-02 -1.258051e-02)) ((7.690574e-06 2.511605e-06 1.118124e-06) (-1.642310e-03 -1.428270e-06 -5.145375e-06))
0.528317      	((1.064624e-02 -1.534204e-01 -1.612618e+00) (-7.340849e-07 -4.666076e-02 -1.261622e-02)) ((7.794866e-06 2.554960e-06 1.136168e-06) (-1.636948e-03 -1.685905e-06 -5.570028e-06))
0.554021      	((1.220116e-02 -1.532108e-01 -1.606928e+00) (4.847172e-06 -4.653118e-02 -1.265210e-02)) ((7.844020e-06 2.605973e-06 1.153002e-06) (-1.632067e-03 -1.974496e-06 -6.006534e-06))
0.579733      	((1.394781e-02 -1.529112e-01 -1.601447e+00) (1.051391e-05 -4.641765e-02 -1.267935e-02)) ((7.883377e-06 2.647104e-06 1.169306e-06) (-1.627979e-03 -2.288155e-06 -6.499630e-06))
0.605452      	((1.589814e-02 -1.525940e-01 -1.596355e+00) (1.672411e-05 -4.631385e-02 -1.269333e-02)) ((7.958376e-06 2.690665e-06 1.182780e-06) (-1.624444e-03 -2.634084e-06 -7.066260e-06))
0.631175      	((1.805876e-02 -1.522076e-01 -1.592029e+00) (2.321875e-05 -4.622337e-02 -1.271094e-02)) ((7.954026e-06 2.726440e-06 1.197098e-06) (-1.621421e-03 -3.022975e-06 -7.702072e-06))
0.656901      	((2.043526e-02 -1.516363e-01 -1.587503e+00) (3.020664e-05 -4.614189e-02 -1.271901e-02)) ((7.987856e-06 2.773690e-06 1.213219e-06) (-1.618766e-03 -3.458501e-06 -8.413284e-06))
0.682632      	((2.308572e-02 -1.510783e-01 -1.583596e+00) (3.824459e-05 -4.606581e-02 -1.273065e-02)) ((7.999373e-06 2.812597e-06 1.233568e-06) (-1.616231e-03 -3.951061e-06 -9.191868e-06))
0.708365      	((2.607207e-02 -1.503989e-01 -1.580190e+00) (4.733269e-05 -4.599835e-02 -1.274635e-02)) ((7.971396e-06 2.855311e-06 1.253538e-06) (-1.613936e-03 -4.505039e-06 -1.005634e-05))
0.7341        	((2.942749e-02 -1.496840e-01 -1.576572e+00) (5.744283e-05 -4.593366e-02 -1.275382e-02)) ((7.986360e-06 2.912540e-06 1.274037e-06) (-1.611748e-03 -5.129391e-06 -1.102142e-05))
0.759836      	((3.322097e-02 -1.491018e-01 -1.573628e+00) (6.842214e-05 -4.587433e-02 -1.276809e-02)) ((7.966289e-06 2.959564e-06 1.294414e-06) (-1.609721e-03 -5.830646e-06 -1.211374e-05))
0.785573      	((3.745668e-02 -1.486689e-01 -1.570935e+00) (8.054918e-05 -4.582148e-02 -1.278134e-02)) ((7.936619e-06 3.022711e-06 1.314438e-06) (-1.607936e-03 -6.615119e-06 -1.335158e-05))
0.811309      	((4.221557e-02 -1.483490e-01 -1.568235e+00) (9.420256e-05 -4.577033e-02 -1.278890e-02)) ((7.916810e-06 3.093768e-06 1.335274e-06) (-1.606230e-03 -7.491523e-06 -1.473528e-05))
0.837044      	((4.753451e-02 -1.481962e-01 -1.566002e+00) (1.098570e-04 -4.572401e-02 -1.280129e-02)) ((7.874093e-06 3.161976e-06 1.355039e-06) (-1.604684e-03 -8.471862e-06 -1.627533e-05))
0.862777      	((5.347189e-02 -1.481475e-01 -1.563873e+00) (1.277313e-04 -4.568258e-02 -1.281135e-02)) ((7.833599e-06 3.249129e-06 1.373884e-06) (-1.603323e-03 -9.566787e-06 -1.798429e-05))
0.888507      	((6.005417e-02 -1.482915e-01 -1.561918e+00) (1.482611e-04 -4.564424e-02 -1.281822e-02)) ((7.792227e-06 3.342234e-06 1.389286e-06) (-1.602086e-03 -1.079308e-05 -1.987673e-05))
0.914234      	((6.738010e-02 -1.486328e-01 -1.560312e+00) (1.712445e-04 -4.561171e-02 -1.282641e-02)) ((7.745416e-06 3.442720e-06 1.400702e-06) (-1.601080e-03 -1.215955e-05 -2.197837e-05))
0.939955      	((7.553374e-02 -1.491388e-01 -1.558815e+00) (1.960259e-04 -4.558457e-02 -1.282978e-02)) ((7.704683e-06 3.559869e-06 1.408671e-06) (-1.600332e-03 -1.367186e-05 -2.433995e-05))
0.96567       	((8.478620e-02 -1.498705e-01 -1.557561e+00) (2.232349e-04 -4.556213e-02 -1.282923e-02)) ((7.658012e-06 3.688649e-06 1.416018e-06) (-1.599828e-03 -1.536214e-05 -2.701605e-05))
0.991378      	((9.512447e-02 -1.508572e-01 -1.556671e+00) (2.538307e-04 -4.554646e-02 -1.282712e-02)) ((7.613114e-06 3.835424e-06 1.423972e-06) (-1.599653e-03 -1.725865e-05 -3.001443e-05))
1.017077      	((1.066495e-01 -1.520891e-01 -1.556049e+00) (2.884472e-04 -4.553720e-02 -1.281912e-02)) ((7.557491e-06 4.003668e-06 1.432295e-06) (-1.599829e-03 -1.938154e-05 -3.334945e-05))
1.042766      	((1.193916e-01 -1.535166e-01 -1.555731e+00) (3.274818e-04 -4.553412e-02 -1.280677e-02)) ((7.482271e-06 4.191010e-06 1.440741e-06) (-1.600352e-03 -2.175708e-05 -3.705814e-05))
1.068443      	((1.334162e-01 -1.552803e-01 -1.555880e+00) (3.708771e-04 -4.553924e-02 -1.279164e-02)) ((7.386630e-06 4.399841e-06 1.447607e-06) (-1.601304e-03 -2.440649e-05 -4.116678e-05))
1.094107      	((1.488205e-01 -1.575299e-01 -1.556400e+00) (4.197205e-04 -4.555325e-02 -1.276943e-02)) ((7.276568e-06 4.626821e-06 1.458853e-06) (-1.602746e-03 -2.734968e-05 -4.566242e-05))
1.119755      	((1.657122e-01 -1.604300e-01 -1.557418e+00) (4.761419e-04 -4.557720e-02 -1.274052e-02)) ((7.174304e-06 4.874321e-06 1.471986e-06) (-1.604753e-03 -3.060923e-05 -5.052252e-05))
1.145387      	((1.839940e-01 -1.642448e-01 -1.559165e+00) (5.406512e-04 -4.561370e-02 -1.270483e-02)) ((7.076122e-06 5.146924e-06 1.482085e-06) (-1.607439e-03 -3.419170e-05 -5.576019e-05))
1.170999      	((2.036228e-01 -1.688790e-01 -1.561472e+00) (6.130062e-04 -4.566405e-02 -1.265901e-02)) ((6.979921e-06 5.442341e-06 1.491584e-06) (-1.610855e-03 -3.813545e-05 -6.138288e-05))
1.19659       	((2.244481e-01 -1.746200e-01 -1.564654e+00) (6.921861e-04 -4.572974e-02 -1.260646e-02)) ((6.894640e-06 5.758338e-06 1.508515e-06) (-1.615027e-03 -4.248568e-05 -6.745861e-05))
1.222153      	((2.456260e-01 -1.817999e-01 -1.568773e+00) (7.760236e-04 -4.581188e-02 -1.254969e-02)) ((6.842886e-06 6.069177e-06 1.537071e-06) (-1.619962e-03 -4.719578e-05 -7.409659e-05))
1.247678      	((2.666098e-01 -1.899998e-01 -1.573585e+00) (8.617922e-04 -4.590847e-02 -1.248728e-02)) ((6.800714e-06 6.374453e-06 1.570852e-06) (-1.625579e-03 -5.221598e-05 -8.134676e-05))
1.273163      	((2.865230e-01 -1.989767e-01 -1.579098e+00) (9.488065e-04 -4.602089e-02 -1.242213e-02)) ((6.758897e-06 6.650713e-06 1.608153e-06) (-1.631802e-03 -5.746977e-05 -8.899486e-05))
1.298607      	((3.045193e-01 -2.088769e-01 -1.585424e+00) (1.035669e-03 -4.615209e-02 -1.235465e-02)) ((6.737142e-06 6.868281e-06 1.653118e-06) (-1.638636e-03 -6.280194e-05 -9.669631e-05))
1.324013      	((3.196652e-01 -2.192039e-01 -1.592200e+00) (1.117416e-03 -4.629743e-02 -1.228041e-02)) ((6.732674e-06 6.994893e-06 1.699241e-06) (-1.646060e-03 -6.802196e-05 -1.043361e-04))
1.349384      	((3.303710e-01 -2.294495e-01 -1.600043e+00) (1.188710e-03 -4.645395e-02 -1.219940e-02)) ((6.732582e-06 6.999051e-06 1.758577e-06) (-1.653987e-03 -7.291136e-05 -1.118264e-04))
1.374723      	((3.365851e-01 -2.385251e-01 -1.608360e+00) (1.243152e-03 -4.661936e-02 -1.211509e-02)) ((6.725870e-06 6.913977e-06 1.826919e-06) (-1.662218e-03 -7.721085e-05 -1.189129e-04))
1.400032      	((3.379157e-01 -2.458460e-01 -1.616793e+00) (1.275437e-03 -4.678630e-02 -1.203156e-02)) ((6.715981e-06 6.742499e-06 1.893050e-06) (-1.670395e-03 -8.062157e-05 -1.253391e-04))
1.425311      	((3.344510e-01 -2.508899e-01 -1.624521e+00) (1.281439e-03 -4.694929e-02 -1.195281e-02)) ((6.706727e-06 6.494335e-06 1.933618e-06) (-1.678220e-03 -8.287962e-05 -1.309351e-04))
1.450561      	((3.263305e-01 -2.538795e-01 -1.632816e+00) (1.256735e-03 -4.710366e-02 -1.188093e-02)) ((6.696064e-06 6.171167e-06 1.930676e-06) (-1.685459e-03 -8.379573e-05 -1.355901e-04))
1.475789      	((3.157090e-01 -2.543167e-01 -1.639916e+00) (1.200714e-03 -4.724531e-02 -1.181627e-02)) ((6.659962e-06 5.854012e-06 1.882756e-06) (-1.692066e-03 -8.337813e-05 -1.392687e-04))
1.501         	((3.038701e-01 -2.537052e-01 -1.647253e+00) (1.119137e-03 -4.737325e-02 -1.176049e-02)) ((6.597463e-06 5.557203e-06 1.812914e-06) (-1.698101e-03 -8.177165e-05 -1.419966e-04))
1.526202      	((2.923342e-01 -2.517986e-01 -1.654459e+00) (1.023392e-03 -4.748949e-02 -1.171205e-02)) ((6.488841e-06 5.330294e-06 1.756659e-06) (-1.703706e-03 -7.922688e-05 -1.436949e-04))
1.551399      	((2.827956e-01 -2.481834e-01 -1.661024e+00) (9.253368e-04 -4.759479e-02 -1.167042e-02)) ((6.306816e-06 5.231126e-06 1.720579e-06) (-1.708961e-03 -7.617043e-05 -1.443878e-04))
1.576596      	((2.761685e-01 -2.440779e-01 -1.667490e+00) (8.390444e-04 -4.768973e-02 -1.164375e-02)) ((6.038125e-06 5.291130e-06 1.706418e-06) (-1.713704e-03 -7.316164e-05 -1.441062e-04))
1.601794      	((2.715998e-01 -2.401565e-01 -1.674355e+00) (7.791940e-04 -4.777414e-02 -1.163906e-02)) ((5.732490e-06 5.410561e-06 1.715045e-06) (-1.717589e-03 -7.069314e-05 -1.427403e-04))
1.626996      	((2.681556e-01 -2.363273e-01 -1.681366e+00) (7.514719e-04 -4.784595e-02 -1.166035e-02)) ((5.401322e-06 5.575395e-06 1.720853e-06) (-1.720249e-03 -6.904065e-05 -1.403375e-04))
1.652203      	((2.653635e-01 -2.323689e-01 -1.687995e+00) (7.438959e-04 -4.789988e-02 -1.170865e-02)) ((5.080599e-06 5.759868e-06 1.713387e-06) (-1.721628e-03 -6.814946e-05 -1.376422e-04))
1.677413      	((2.621831e-01 -2.285213e-01 -1.693361e+00) (7.416263e-04 -4.793399e-02 -1.176883e-02)) ((4.771377e-06 5.920204e-06 1.705553e-06) (-1.722014e-03 -6.765200e-05 -1.352594e-04))
1.702627      	((2.579675e-01 -2.256769e-01 -1.697357e+00) (7.324050e-04 -4.795154e-02 -1.182333e-02)) ((4.554867e-06 5.962038e-06 1.708710e-06) (-1.721834e-03 -6.700777e-05 -1.334241e-04))
1.727844      	((2.533276e-01 -2.247578e-01 -1.699790e+00) (7.055472e-04 -4.795554e-02 -1.186511e-02)) ((4.514738e-06 5.864260e-06 1.704968e-06) (-1.721541e-03 -6.588174e-05 -1.325205e-04))
1.753065      	((2.492281e-01 -2.248481e-01 -1.700766e+00) (6.616184e-04 -4.795324e-02 -1.188930e-02)) ((4.615593e-06 5.634441e-06 1.694161e-06) (-1.721352e-03 -6.429878e-05 -1.324161e-04))
1.778289      	((2.455033e-01 -2.259565e-01 -1.700795e+00) (6.087298e-04 -4.794756e-02 -1.189278e-02)) ((4.803821e-06 5.297710e-06 1.679308e-06) (-1.721280e-03 -6.234007e-05 -1.327424e-04))
1.803516      	((2.427495e-01 -2.271939e-01 -1.701064e+00) (5.567023e-04 -4.794137e-02 -1.188734e-02)) ((4.952229e-06 4.983194e-06 1.663295e-06) (-1.721338e-03 -6.016299e-05 -1.331759e-04))
1.828747      	((2.413435e-01 -2.287005e-01 -1.701449e+00) (5.055978e-04 -4.793871e-02 -1.188238e-02)) ((5.017951e-06 4.771009e-06 1.648994e-06) (-1.721481e-03 -5.808035e-05 -1.337039e-04))
1.853981      	((2.418699e-01 -2.312273e-01 -1.702288e+00) (4.563446e-04 -4.793508e-02 -1.187480e-02)) ((5.012747e-06 4.689572e-06 1.649585e-06) (-1.721626e-03 -5.633161e-05 -1.345253e-04))
1.879218      	((2.440550e-01 -2.332524e-01 -1.704151e+00) (4.128033e-04 -4.792934e-02 -1.187898e-02)) ((4.880115e-06 4.793667e-06 1.690375e-06) (-1.721770e-03 -5.509075e-05 -1.357600e-04))
1.904459      	((2.475154e-01 -2.341455e-01 -1.706661e+00) (3.830346e-04 -4.792417e-02 -1.190338e-02)) ((4.611652e-06 5.119027e-06 1.782111e-06) (-1.721859e-03 -5.460953e-05 -1.370885e-04))
1.929701      	((2.517179e-01 -2.345109e-01 -1.709740e+00) (3.785843e-04 -4.791460e-02 -1.193982e-02)) ((4.245750e-06 5.550953e-06 1.854552e-06) (-1.721470e-03 -5.512137e-05 -1.379709e-04))
1.954945      	((2.550064e-01 -2.344774e-01 -1.712912e+00) (4.016980e-04 -4.790255e-02 -1.200270e-02)) ((3.866614e-06 5.970531e-06 1.891645e-06) (-1.720382e-03 -5.656977e-05 -1.381019e-04))
1.98019       	((2.562931e-01 -2.346296e-01 -1.715869e+00) (4.381210e-04 -4.789332e-02 -1.208857e-02)) ((3.532732e-06 6.313469e-06 1.903179e-06) (-1.718792e-03 -5.856929e-05 -1.377374e-04))
2.005434      	((2.557061e-01 -2.359580e-01 -1.717165e+00) (4.730288e-04 -4.787452e-02 -1.216336e-02)) ((3.282764e-06 6.449787e-06 1.914332e-06) (-1.716632e-03 -6.060220e-05 -1.373770e-04))
2.030679      	((2.533551e-01 -2.391538e-01 -1.717777e+00) (4.891139e-04 -4.784572e-02 -1.222828e-02)) ((3.247354e-06 6.365189e-06 1.930501e-06) (-1.714387e-03 -6.198582e-05 -1.376730e-04))
2.055923      	((2.510473e-01 -2.432619e-01 -1.717888e+00) (4.758691e-04 -4.781599e-02 -1.227863e-02)) ((3.359895e-06 6.137422e-06 1.955995e-06) (-1.712757e-03 -6.227759e-05 -1.390128e-04))
2.081168      	((2.503173e-01 -2.469262e-01 -1.716148e+00) (4.372002e-04 -4.777075e-02 -1.228854e-02)) ((3.525336e-06 5.762746e-06 1.986281e-06) (-1.711430e-03 -6.158301e-05 -1.415063e-04))
2.106412      	((2.495236e-01 -2.503336e-01 -1.714908e+00) (3.831438e-04 -4.771882e-02 -1.228134e-02)) ((3.783696e-06 5.385912e-06 2.002164e-06) (-1.710557e-03 -6.008381e-05 -1.446703e-04))
2.131657      	((2.483322e-01 -2.532907e-01 -1.715116e+00) (3.245383e-04 -4.767573e-02 -1.227618e-02)) ((3.968233e-06 5.157667e-06 2.008702e-06) (-1.710322e-03 -5.820447e-05 -1.478431e-04))
2.156903      	((2.467181e-01 -2.555701e-01 -1.714726e+00) (2.729772e-04 -4.763084e-02 -1.225873e-02)) ((4.091540e-06 4.982265e-06 1.996808e-06) (-1.710099e-03 -5.644253e-05 -1.505276e-04))
2.182152      	((2.455224e-01 -2.571982e-01 -1.715315e+00) (2.377802e-04 -4.759367e-02 -1.225426e-02)) ((4.137714e-06 5.070688e-06 1.965097e-06) (-1.709900e-03 -5.504407e-05 -1.521162e-04))
2.207403      	((2.442117e-01 -2.567705e-01 -1.716681e+00) (2.235617e-04 -4.757267e-02 -1.227765e-02)) ((3.938055e-06 5.379716e-06 1.960752e-06) (-1.709750e-03 -5.422763e-05 -1.523183e-04))
2.232658      	((2.434001e-01 -2.556993e-01 -1.717707e+00) (2.309678e-04 -4.754850e-02 -1.230714e-02)) ((3.601462e-06 5.679752e-06 2.003819e-06) (-1.708999e-03 -5.414882e-05 -1.514196e-04))
2.25792       	((2.422500e-01 -2.545587e-01 -1.718422e+00) (2.553083e-04 -4.751995e-02 -1.235742e-02)) ((3.262528e-06 5.987643e-06 2.039171e-06) (-1.707657e-03 -5.465393e-05 -1.497480e-04))
