# Forces      
# CofR        : (0.000000e+00 0.000000e+00 0.000000e+00)
# Time        forces(pressure viscous)	moments(pressure viscous)
0             	((0.000000e+00 0.000000e+00 0.000000e+00) (-7.964489e-06 2.187931e-15 -7.743087e-11)) ((0.000000e+00 0.000000e+00 0.000000e+00) (-1.750515e-17 1.789525e-07 -4.532910e-17))
0.012         	((-2.316041e-03 3.850372e-09 2.451093e-04) (-9.140284e-06 1.357980e-11 -2.601247e-09)) ((8.905595e-14 -3.129425e-08 3.733565e-13) (7.493380e-14 2.637527e-07 -2.324134e-13))
0.0264        	((1.594442e-04 -4.047889e-08 -1.339409e-05) (-9.326990e-06 -9.577845e-12 -3.858249e-09)) ((9.846195e-13 2.196135e-09 -4.959402e-13) (-1.818495e-12 2.953300e-07 -4.446500e-13))
0.04368       	((4.849531e-04 3.331224e-08 -8.280100e-06) (-8.289817e-06 -5.601473e-12 -2.700705e-09)) ((-1.313740e-12 7.346666e-09 -4.241020e-13) (-2.123050e-12 2.631121e-07 -2.371400e-13))
0.064416      	((4.571134e-06 3.656742e-09 -1.106906e-05) (-7.343181e-06 -1.666320e-10 -1.466265e-09)) ((4.100481e-13 -8.157660e-11 -1.693206e-14) (-5.311252e-13 2.361853e-07 -7.707956e-13))
0.0892992     	((-6.561976e-06 4.940627e-09 -6.781152e-06) (-6.779848e-06 -2.502879e-10 -1.201133e-09)) ((-2.163173e-13 -3.341092e-10 7.764741e-14) (6.129914e-13 2.232619e-07 -6.794220e-13))
0.119159      	((7.233658e-06 -4.102875e-09 -4.030600e-06) (-6.260669e-06 -1.897711e-10 -1.684205e-09)) ((1.772484e-13 1.416968e-10 -1.018155e-13) (7.379124e-13 2.088961e-07 1.126865e-12))
0.154991      	((3.905893e-06 1.794382e-09 -2.471883e-06) (-5.709870e-06 -1.636610e-10 -2.202102e-09)) ((-4.454354e-14 8.272103e-11 -1.965011e-13) (7.620356e-13 1.928977e-07 2.723883e-12))
0.197989      	((9.500968e-07 -2.570056e-09 -1.562938e-06) (-5.153625e-06 -1.236501e-10 -2.358830e-09)) ((2.481821e-13 2.301238e-11 -2.134242e-13) (7.769365e-13 1.766090e-07 3.336074e-12))
0.249587      	((-1.242972e-07 -1.340034e-09 -9.773938e-07) (-4.607586e-06 -8.438184e-11 -2.534674e-09)) ((2.699045e-13 2.511358e-12 4.649179e-15) (4.975152e-13 1.603144e-07 3.183445e-12))
0.311504      	((-6.160284e-07 -3.483867e-10 -6.259217e-07) (-4.088133e-06 -4.805092e-11 -2.776994e-09)) ((1.211026e-13 -3.638664e-12 3.650501e-15) (4.999055e-13 1.443289e-07 2.573023e-12))
0.385805      	((-8.521883e-07 -7.914300e-11 -3.947960e-07) (-3.608422e-06 -2.436954e-11 -3.007628e-09)) ((6.447303e-14 -4.687193e-12 8.197463e-15) (4.658857e-13 1.290435e-07 1.881402e-12))
0.474966      	((-9.624141e-07 6.565029e-11 -2.545328e-07) (-3.178122e-06 -9.276979e-12 -3.213951e-09)) ((3.114582e-14 -5.914460e-12 1.065291e-14) (4.719908e-13 1.148835e-07 1.346287e-12))
0.581959      	((-1.006655e-06 1.153875e-11 -1.609423e-07) (-2.801422e-06 -2.025295e-13 -3.431172e-09)) ((1.369851e-14 -7.171038e-12 5.457691e-15) (5.558925e-13 1.021146e-07 8.672431e-13))
0.710351      	((-1.002578e-06 3.406780e-11 -1.073357e-07) (-2.478538e-06 2.236246e-12 -3.629052e-09)) ((5.792036e-15 -7.990881e-12 1.411723e-15) (5.989428e-13 9.088850e-08 5.001671e-13))
0.864421      	((-9.663890e-07 -5.799797e-12 -7.314774e-08) (-2.205348e-06 1.584388e-12 -3.776225e-09)) ((4.124272e-15 -8.135096e-12 1.390462e-15) (4.964820e-13 8.120830e-08 3.322958e-13))
1.049306      	((-9.132394e-07 1.943460e-12 -5.442095e-08) (-1.974854e-06 -1.353786e-12 -3.915775e-09)) ((1.771235e-15 -7.779989e-12 9.661666e-16) (3.258906e-13 7.292982e-08 2.670641e-13))
1.271167      	((-8.542311e-07 -8.100289e-12 -4.302237e-08) (-1.779857e-06 -2.843344e-12 -4.054389e-09)) ((1.944466e-15 -7.230667e-12 -6.123749e-16) (2.010922e-13 6.583365e-08 2.444772e-13))
1.5374        	((-7.939546e-07 -1.307430e-11 -3.812062e-08) (-1.612679e-06 -3.409606e-12 -4.222627e-09)) ((1.556269e-15 -6.681068e-12 -1.402310e-15) (1.084580e-13 5.968397e-08 2.282186e-13))
1.85688       	((-7.351951e-07 -1.036557e-12 -3.628991e-08) (-1.466336e-06 -2.173984e-12 -4.451908e-09)) ((2.215416e-15 -6.112313e-12 -1.331672e-15) (6.035703e-14 5.427481e-08 1.909742e-13))
2.240256      	((-6.794534e-07 -1.048901e-11 -3.726447e-08) (-1.336255e-06 1.009529e-12 -4.738607e-09)) ((2.819467e-15 -5.614017e-12 -3.718275e-16) (2.489266e-14 4.945779e-08 1.605146e-13))
2.700307      	((-6.274279e-07 -2.534688e-11 -3.930985e-08) (-1.219592e-06 3.114110e-12 -5.043141e-09)) ((4.022447e-15 -5.191225e-12 9.654130e-17) (-4.549074e-14 4.513467e-08 2.232683e-13))
3.252369      	((-5.788626e-07 -3.917417e-11 -4.211740e-08) (-1.114447e-06 2.693013e-12 -5.349538e-09)) ((4.560492e-15 -4.785349e-12 2.850238e-17) (-1.334655e-13 4.123828e-08 3.303037e-13))
3.914842      	((-5.331707e-07 -4.782222e-11 -4.496164e-08) (-1.019470e-06 7.987078e-13 -5.691346e-09)) ((4.715004e-15 -4.381976e-12 2.788111e-17) (-2.336860e-13 3.771819e-08 4.097775e-13))
4.709811      	((-4.907159e-07 -4.884644e-11 -4.789808e-08) (-9.336638e-07 -2.819921e-13 -6.076780e-09)) ((4.377494e-15 -4.008494e-12 -2.669511e-16) (-3.231411e-13 3.453685e-08 4.273753e-13))
5.663773      	((-4.515036e-07 -3.086187e-11 -5.052652e-08) (-8.562625e-07 6.155441e-13 -6.484575e-09)) ((3.454262e-15 -3.674607e-12 -5.080560e-16) (-3.676582e-13 3.166738e-08 3.744863e-13))
6.808528      	((-4.154959e-07 -6.988069e-12 -5.283232e-08) (-7.866601e-07 5.988519e-14 -6.909863e-09)) ((3.054006e-15 -3.386584e-12 -8.591017e-16) (-3.929808e-13 2.908719e-08 3.552974e-13))
8.182233      	((-3.825673e-07 -1.445311e-11 -5.482076e-08) (-7.242001e-07 -7.762342e-13 -7.352190e-09)) ((2.743830e-15 -3.135237e-12 -9.462738e-16) (-4.038380e-13 2.677187e-08 4.368078e-13))
9.83068       	((-3.526965e-07 -3.164126e-11 -5.655819e-08) (-6.681042e-07 -1.678785e-15 -7.821615e-09)) ((2.268493e-15 -2.911464e-12 -9.664338e-16) (-4.215269e-13 2.469298e-08 5.841196e-13))
11.808816     	((-3.253771e-07 -3.911864e-11 -5.799183e-08) (-6.175541e-07 1.570888e-12 -8.327812e-09)) ((2.731938e-15 -2.709077e-12 -8.428032e-16) (-4.880733e-13 2.281980e-08 8.726090e-13))
14.182579     	((-3.004123e-07 -2.892919e-11 -5.918915e-08) (-5.717981e-07 4.642101e-12 -8.881567e-09)) ((2.597971e-15 -2.520779e-12 -4.830144e-16) (-5.392040e-13 2.112417e-08 1.309985e-12))
17.031095     	((-2.776546e-07 -5.058390e-11 -6.018449e-08) (-5.302319e-07 6.101916e-12 -9.487170e-09)) ((3.896939e-15 -2.348143e-12 -2.922541e-17) (-6.201006e-13 1.958342e-08 1.854494e-12))
20.449314     	((-2.568981e-07 -8.686949e-11 -6.097593e-08) (-4.923851e-07 5.163527e-12 -1.014259e-08)) ((5.457116e-15 -2.190763e-12 -2.835659e-17) (-8.044133e-13 1.818006e-08 2.409901e-12))
24.551176     	((-2.380135e-07 -9.896954e-11 -6.151438e-08) (-4.579067e-07 3.662509e-12 -1.083632e-08)) ((7.204943e-15 -2.048055e-12 -1.081710e-16) (-9.954747e-13 1.690139e-08 2.933401e-12))
29.473411     	((-2.209058e-07 -8.709972e-11 -6.181670e-08) (-4.265356e-07 3.052621e-12 -1.156149e-08)) ((9.234362e-15 -1.921951e-12 -5.055971e-16) (-1.177434e-12 1.573787e-08 3.361127e-12))
35.380094     	((-2.053848e-07 -8.326145e-11 -6.192313e-08) (-3.980470e-07 1.541768e-12 -1.231676e-08)) ((9.733578e-15 -1.809479e-12 -7.105476e-16) (-1.330821e-12 1.468142e-08 3.855718e-12))
42.468112     	((-1.914184e-07 -8.987119e-11 -6.181772e-08) (-3.722227e-07 3.556707e-13 -1.310441e-08)) ((9.755147e-15 -1.710453e-12 -5.672014e-16) (-1.422982e-12 1.372381e-08 4.470910e-12))
50.973735     	((-1.789028e-07 -9.895865e-11 -6.151611e-08) (-3.488334e-07 -1.932735e-13 -1.391118e-08)) ((1.017229e-14 -1.623576e-12 -1.359587e-16) (-1.508191e-12 1.285677e-08 5.231799e-12))
61.180482     	((-1.677070e-07 -8.477782e-11 -6.099098e-08) (-3.276561e-07 4.395236e-13 -1.473041e-08)) ((9.801550e-15 -1.547290e-12 1.387176e-16) (-1.527172e-12 1.207200e-08 6.188613e-12))
73.428578     	((-1.577235e-07 -6.934437e-11 -6.030672e-08) (-3.084813e-07 2.617123e-12 -1.556964e-08)) ((8.614924e-15 -1.481421e-12 4.942726e-16) (-1.456766e-12 1.136136e-08 7.364684e-12))
88.126294     	((-1.489011e-07 -5.624261e-11 -5.949832e-08) (-2.911073e-07 5.316469e-12 -1.642537e-08)) ((7.566838e-15 -1.426584e-12 8.850311e-16) (-1.329874e-12 1.071757e-08 8.677591e-12))
105.763553    	((-1.411475e-07 -4.328030e-11 -5.857400e-08) (-2.753698e-07 8.327648e-12 -1.729966e-08)) ((6.457158e-15 -1.380727e-12 1.296505e-15) (-1.152616e-12 1.013445e-08 1.007366e-11))
126.928263    	((-1.344414e-07 -2.453810e-11 -5.754389e-08) (-2.611354e-07 1.170555e-11 -1.819246e-08)) ((5.059470e-15 -1.343648e-12 1.542005e-15) (-9.118237e-13 9.607112e-09 1.145509e-11))
152.325916    	((-1.287067e-07 -8.018776e-12 -5.641053e-08) (-2.482918e-07 1.560560e-11 -1.910149e-08)) ((3.930016e-15 -1.315496e-12 1.731702e-15) (-6.343135e-13 9.131591e-09 1.273777e-11))
182.803099    	((-1.238756e-07 5.729212e-12 -5.524094e-08) (-2.367482e-07 1.864809e-11 -2.002705e-08)) ((3.048884e-15 -1.295497e-12 1.895682e-15) (-3.723777e-13 8.704739e-09 1.387255e-11))
219.375719    	((-1.198416e-07 2.087778e-11 -5.397524e-08) (-2.264233e-07 2.074155e-11 -2.096874e-08)) ((2.377401e-15 -1.283500e-12 1.898534e-15) (-1.141608e-13 8.323854e-09 1.482224e-11))
263.262863    	((-1.165613e-07 3.361606e-11 -5.267005e-08) (-2.172469e-07 2.216382e-11 -2.192407e-08)) ((1.740173e-15 -1.279254e-12 1.823529e-15) (1.421817e-13 7.986489e-09 1.556526e-11))
315.927436    	((-1.140155e-07 3.981088e-11 -5.132722e-08) (-2.091581e-07 2.349036e-11 -2.289101e-08)) ((1.179805e-15 -1.282257e-12 1.740633e-15) (3.842587e-13 7.690433e-09 1.610104e-11))
379.124923    	((-1.121349e-07 4.936832e-11 -4.997800e-08) (-2.021002e-07 2.454970e-11 -2.386366e-08)) ((9.034270e-16 -1.289909e-12 1.702681e-15) (6.297498e-13 7.433545e-09 1.641052e-11))
454.961908    	((-1.108309e-07 5.914831e-11 -4.864817e-08) (-1.960145e-07 2.543908e-11 -2.482910e-08)) ((6.557253e-16 -1.299938e-12 1.540267e-15) (8.789569e-13 7.213358e-09 1.651958e-11))
545.966289    	((-1.099771e-07 6.857635e-11 -4.733987e-08) (-1.908315e-07 2.646220e-11 -2.576490e-08)) ((5.188389e-16 -1.310239e-12 1.392440e-15) (1.128763e-12 7.026845e-09 1.643009e-11))
655.171547    	((-1.094499e-07 7.727900e-11 -4.607239e-08) (-1.864683e-07 2.795676e-11 -2.664571e-08)) ((4.015229e-16 -1.319230e-12 1.305699e-15) (1.385420e-12 6.870474e-09 1.616577e-11))
786.217856    	((-1.091229e-07 8.476558e-11 -4.484817e-08) (-1.828294e-07 2.977822e-11 -2.744863e-08)) ((2.722049e-16 -1.325814e-12 1.216514e-15) (1.636132e-12 6.740422e-09 1.576505e-11))
939.163896    	((-1.089188e-07 8.847417e-11 -4.368379e-08) (-1.798228e-07 3.189611e-11 -2.815588e-08)) ((3.546822e-16 -1.329825e-12 1.143844e-15) (1.867653e-12 6.633188e-09 1.525292e-11))
1114.026342   	((-1.087475e-07 8.962230e-11 -4.262342e-08) (-1.773437e-07 3.425729e-11 -2.876462e-08)) ((6.076528e-16 -1.331113e-12 1.079754e-15) (2.067750e-12 6.544991e-09 1.467029e-11))
1310.825536   	((-1.085953e-07 8.866063e-11 -4.169087e-08) (-1.753035e-07 3.660573e-11 -2.927987e-08)) ((8.126024e-16 -1.330256e-12 1.040127e-15) (2.222875e-12 6.472712e-09 1.404665e-11))
1529.583017   	((-1.084551e-07 8.636348e-11 -4.090767e-08) (-1.736223e-07 3.895835e-11 -2.971337e-08)) ((1.051403e-15 -1.327853e-12 9.924894e-16) (2.337464e-12 6.413534e-09 1.340196e-11))
1749.368951   	((-1.083590e-07 8.326376e-11 -4.026098e-08) (-1.722480e-07 4.112908e-11 -3.007511e-08)) ((1.297938e-15 -1.324730e-12 9.289868e-16) (2.411749e-12 6.365585e-09 1.275861e-11))
1969.33128    	((-1.082613e-07 7.945091e-11 -3.974567e-08) (-1.711166e-07 4.296549e-11 -3.037925e-08)) ((1.559473e-15 -1.320858e-12 8.824127e-16) (2.438737e-12 6.326538e-09 1.211924e-11))
2189.443606   	((-1.081832e-07 7.459473e-11 -3.932486e-08) (-1.701886e-07 4.441192e-11 -3.063454e-08)) ((1.859324e-15 -1.316980e-12 8.411542e-16) (2.420985e-12 6.294919e-09 1.148978e-11))
2409.681167   	((-1.081115e-07 6.910507e-11 -3.898244e-08) (-1.694231e-07 4.539511e-11 -3.085021e-08)) ((2.169985e-15 -1.313222e-12 8.021436e-16) (2.367689e-12 6.269196e-09 1.087226e-11))
2630.023407   	((-1.080528e-07 6.321056e-11 -3.869911e-08) (-1.687919e-07 4.601028e-11 -3.103267e-08)) ((2.497571e-15 -1.309880e-12 7.654788e-16) (2.284862e-12 6.248290e-09 1.027189e-11))
2850.452605   	((-1.080009e-07 5.729348e-11 -3.846532e-08) (-1.682691e-07 4.624498e-11 -3.118787e-08)) ((2.793475e-15 -1.306842e-12 7.312612e-16) (2.180146e-12 6.231219e-09 9.697497e-12))
3070.954203   	((-1.079574e-07 5.172677e-11 -3.827130e-08) (-1.678358e-07 4.617053e-11 -3.132004e-08)) ((3.042515e-15 -1.304155e-12 7.031141e-16) (2.060727e-12 6.217267e-09 9.156519e-12))
3291.515844   	((-1.079195e-07 4.621566e-11 -3.810922e-08) (-1.674755e-07 4.583927e-11 -3.143289e-08)) ((3.279360e-15 -1.301802e-12 6.707038e-16) (1.929545e-12 6.205817e-09 8.649359e-12))
3512.127345   	((-1.078875e-07 4.095300e-11 -3.797354e-08) (-1.671755e-07 4.530890e-11 -3.152928e-08)) ((3.488126e-15 -1.299725e-12 6.452868e-16) (1.790577e-12 6.196406e-09 8.172591e-12))
3732.780224   	((-1.078602e-07 3.586054e-11 -3.785992e-08) (-1.669253e-07 4.461400e-11 -3.161168e-08)) ((3.685804e-15 -1.297916e-12 6.183036e-16) (1.648429e-12 6.188645e-09 7.728713e-12))
3953.4675     	((-1.078372e-07 3.096427e-11 -3.776491e-08) (-1.667162e-07 4.377864e-11 -3.168214e-08)) ((3.861745e-15 -1.296346e-12 5.969089e-16) (1.506702e-12 6.182231e-09 7.318545e-12))
4174.183413   	((-1.078174e-07 2.628233e-11 -3.768705e-08) (-1.665411e-07 4.282534e-11 -3.174236e-08)) ((4.022485e-15 -1.294984e-12 5.820771e-16) (1.367587e-12 6.176916e-09 6.940884e-12))
4394.92322    	((-1.078009e-07 2.192879e-11 -3.762002e-08) (-1.663944e-07 4.180273e-11 -3.179381e-08)) ((4.166595e-15 -1.293805e-12 5.641229e-16) (1.232604e-12 6.172502e-09 6.594956e-12))
4615.683009   	((-1.077869e-07 1.786578e-11 -3.756377e-08) (-1.662713e-07 4.074759e-11 -3.183776e-08)) ((4.298084e-15 -1.292792e-12 5.461619e-16) (1.102966e-12 6.168829e-09 6.279352e-12))
4836.459548   	((-1.077750e-07 1.408541e-11 -3.751610e-08) (-1.661678e-07 3.966621e-11 -3.187525e-08)) ((4.415962e-15 -1.291923e-12 5.302688e-16) (9.791853e-13 6.165767e-09 5.992526e-12))
5057.250161   	((-1.077650e-07 1.058496e-11 -3.747604e-08) (-1.660807e-07 3.859054e-11 -3.190721e-08)) ((4.522585e-15 -1.291177e-12 5.154507e-16) (8.617890e-13 6.163210e-09 5.732416e-12))
5278.052626   	((-1.077565e-07 7.423367e-12 -3.744219e-08) (-1.660074e-07 3.753806e-11 -3.193446e-08)) ((4.620190e-15 -1.290541e-12 5.018517e-16) (7.512637e-13 6.161072e-09 5.497164e-12))
5498.865095   	((-1.077491e-07 4.536144e-12 -3.741371e-08) (-1.659457e-07 3.651878e-11 -3.195768e-08)) ((4.709431e-15 -1.289998e-12 4.895424e-16) (6.478641e-13 6.159280e-09 5.285210e-12))
5719.686026   	((-1.077430e-07 1.953215e-12 -3.738978e-08) (-1.658936e-07 3.554270e-11 -3.197745e-08)) ((4.787694e-15 -1.289535e-12 4.787074e-16) (5.519600e-13 6.157777e-09 5.094943e-12))
5940.514128   	((-1.077378e-07 -3.675504e-13 -3.736946e-08) (-1.658496e-07 3.461452e-11 -3.199429e-08)) ((4.858326e-15 -1.289137e-12 4.691649e-16) (4.635982e-13 6.156514e-09 4.924735e-12))
6161.348318   	((-1.077334e-07 -2.452230e-12 -3.735224e-08) (-1.658125e-07 3.374122e-11 -3.200861e-08)) ((4.919981e-15 -1.288798e-12 4.610310e-16) (3.825997e-13 6.155452e-09 4.772814e-12))
6382.187682   	((-1.077297e-07 -4.323552e-12 -3.733767e-08) (-1.657811e-07 3.292609e-11 -3.202078e-08)) ((4.974738e-15 -1.288511e-12 4.540117e-16) (3.087115e-13 6.154559e-09 4.637540e-12))
6603.031449   	((-1.077265e-07 -5.996851e-12 -3.732534e-08) (-1.657546e-07 3.216845e-11 -3.203112e-08)) ((5.023352e-15 -1.288267e-12 4.477005e-16) (2.415067e-13 6.153806e-09 4.517382e-12))
6823.878965   	((-1.077237e-07 -7.491557e-12 -3.731494e-08) (-1.657322e-07 3.146853e-11 -3.203991e-08)) ((5.064774e-15 -1.288059e-12 4.422497e-16) (1.806481e-13 6.153171e-09 4.410883e-12))
7044.729679   	((-1.077215e-07 -8.824423e-12 -3.730609e-08) (-1.657132e-07 3.082596e-11 -3.204738e-08)) ((5.101838e-15 -1.287883e-12 4.372186e-16) (1.257423e-13 6.152636e-09 4.316650e-12))
7265.58312    	((-1.077195e-07 -9.995432e-12 -3.729845e-08) (-1.656972e-07 3.023867e-11 -3.205371e-08)) ((5.134100e-15 -1.287733e-12 4.326524e-16) (7.633001e-14 6.152184e-09 4.233431e-12))
7486.438889   	((-1.077179e-07 -1.102634e-11 -3.729218e-08) (-1.656836e-07 2.970435e-11 -3.205909e-08)) ((5.162843e-15 -1.287605e-12 4.286752e-16) (3.200358e-14 6.151802e-09 4.160078e-12))
7707.296647   	((-1.077165e-07 -1.192653e-11 -3.728687e-08) (-1.656721e-07 2.921964e-11 -3.206366e-08)) ((5.188018e-15 -1.287497e-12 4.251481e-16) (-7.651598e-15 6.151480e-09 4.095555e-12))
7928.156106   	((-1.077153e-07 -1.272096e-11 -3.728235e-08) (-1.656624e-07 2.878192e-11 -3.206753e-08)) ((5.210345e-15 -1.287405e-12 4.219662e-16) (-4.303208e-14 6.151207e-09 4.038870e-12))
8149.017018   	((-1.077142e-07 -1.342990e-11 -3.727852e-08) (-1.656541e-07 2.838818e-11 -3.207082e-08)) ((5.230004e-15 -1.287328e-12 4.191444e-16) (-7.452109e-14 6.150976e-09 3.989127e-12))
8369.879172   	((-1.077134e-07 -1.403561e-11 -3.727534e-08) (-1.656471e-07 2.803597e-11 -3.207361e-08)) ((5.246844e-15 -1.287263e-12 4.167619e-16) (-1.024444e-13 6.150781e-09 3.945552e-12))
8590.742388   	((-1.077127e-07 -1.456932e-11 -3.727256e-08) (-1.656412e-07 2.772142e-11 -3.207597e-08)) ((5.261677e-15 -1.287207e-12 4.146265e-16) (-1.271808e-13 6.150616e-09 3.907396e-12))
8811.606511   	((-1.077121e-07 -1.505172e-11 -3.727030e-08) (-1.656362e-07 2.744119e-11 -3.207798e-08)) ((5.274927e-15 -1.287160e-12 4.127159e-16) (-1.490447e-13 6.150476e-09 3.874042e-12))
9032.471409   	((-1.077116e-07 -1.545278e-11 -3.726829e-08) (-1.656320e-07 2.719276e-11 -3.207968e-08)) ((5.285918e-15 -1.287120e-12 4.110852e-16) (-1.683042e-13 6.150358e-09 3.844913e-12))
