# Forces      
# CofR        : (0.000000e+00 0.000000e+00 0.000000e+00)
# Time        forces(pressure viscous)	moments(pressure viscous)
0             	((0.000000e+00 0.000000e+00 0.000000e+00) (-9.543994e-15 -3.170789e-05 2.054679e-15)) ((0.000000e+00 0.000000e+00 0.000000e+00) (-7.124431e-07 -7.929997e-17 1.527181e-11))
0.012         	((9.099906e-09 -9.221418e-03 2.080050e-03) (5.201742e-11 -3.638269e-05 -1.381992e-08)) ((1.087484e-07 7.092278e-09 1.737933e-09) (-1.050035e-06 9.040043e-15 3.152203e-11))
0.0264        	((-1.587428e-07 6.451118e-04 -1.334506e-04) (-4.473187e-11 -3.711394e-05 -2.126231e-08)) ((-7.710735e-09 -4.488720e-10 -1.118998e-10) (-1.175484e-06 6.605458e-12 4.129266e-11))
0.04368       	((8.884812e-08 1.925620e-03 -1.519143e-04) (-4.343717e-11 -3.297642e-05 -1.702637e-08)) ((-2.507666e-08 -5.233079e-10 -4.724893e-10) (-1.047190e-06 1.069276e-11 3.488034e-11))
0.064416      	((2.575110e-08 1.809317e-05 -7.692503e-05) (-5.668937e-10 -2.920654e-05 -7.872207e-09)) ((1.204660e-10 -2.515172e-10 2.675594e-11) (-9.401966e-07 6.050381e-12 4.170491e-11))
0.0892992     	((-1.797830e-08 -2.503047e-05 -4.752842e-05) (-1.029895e-09 -2.696305e-05 -6.098218e-09)) ((1.008646e-09 -1.499905e-10 2.567394e-11) (-8.888071e-07 2.939102e-12 4.401302e-11))
0.119159      	((-1.299359e-08 2.912551e-05 -2.952368e-05) (-9.613321e-10 -2.489704e-05 -1.134996e-08)) ((-5.425753e-10 -9.436569e-11 -6.628189e-12) (-8.317545e-07 5.351988e-12 3.582975e-11))
0.154991      	((7.879258e-09 1.556277e-05 -1.901540e-05) (-8.320222e-10 -2.270943e-05 -1.594586e-08)) ((-3.347555e-10 -5.527831e-11 4.290825e-13) (-7.683380e-07 4.264044e-12 2.507580e-11))
0.197989      	((6.850353e-09 3.739683e-06 -1.224676e-05) (-6.821365e-10 -2.050588e-05 -1.953355e-08)) ((-1.189580e-10 -3.272553e-11 7.164221e-13) (-7.038704e-07 -2.876633e-13 9.013495e-12))
0.249587      	((1.762998e-10 -5.379334e-07 -8.093347e-06) (-5.199202e-10 -1.834838e-05 -2.347333e-08)) ((-3.664874e-11 -1.968840e-11 2.054036e-12) (-6.394925e-07 -4.611239e-12 -1.644306e-12))
0.311504      	((-3.276777e-09 -2.485448e-06 -5.441344e-06) (-3.275439e-10 -1.630276e-05 -2.808049e-08)) ((-9.830310e-12 -1.060333e-11 2.056806e-12) (-5.765080e-07 -9.879091e-12 -1.207114e-11))
0.385805      	((-1.204731e-09 -3.429601e-06 -3.808694e-06) (-1.626033e-10 -1.442182e-05 -3.280625e-08)) ((-4.933141e-13 -5.077339e-12 1.474146e-12) (-5.164886e-07 -1.419716e-11 -1.942040e-11))
0.474966      	((-3.903654e-10 -3.894165e-06 -2.735404e-06) (2.919719e-11 -1.273946e-05 -3.738271e-08)) ((7.730111e-12 -1.499830e-12 1.295799e-12) (-4.610181e-07 -1.558617e-11 -1.453820e-11))
0.581959      	((6.346948e-10 -4.087862e-06 -2.081714e-06) (2.527386e-10 -1.126465e-05 -4.197297e-08)) ((1.409978e-11 4.497996e-13 1.152700e-12) (-4.109246e-07 -1.464802e-11 -4.028024e-12))
0.710351      	((4.289180e-10 -4.074492e-06 -1.670799e-06) (3.696305e-10 -9.993125e-06 -4.630602e-08)) ((1.827000e-11 1.683380e-12 9.639215e-13) (-3.666386e-07 -1.316750e-11 1.204857e-12))
0.864421      	((6.327576e-10 -3.928987e-06 -1.437166e-06) (4.227981e-10 -8.908729e-06 -5.002736e-08)) ((2.000708e-11 2.349294e-12 1.016055e-12) (-3.281585e-07 -1.171892e-11 3.002100e-12))
1.049306      	((5.467462e-10 -3.712457e-06 -1.295826e-06) (4.409841e-10 -7.985917e-06 -5.332657e-08)) ((1.991424e-11 2.695166e-12 9.943651e-13) (-2.949539e-07 -9.854071e-12 4.335327e-12))
1.271167      	((6.128571e-10 -3.469646e-06 -1.223433e-06) (4.192665e-10 -7.198014e-06 -5.651042e-08)) ((1.900292e-11 2.849648e-12 8.908307e-13) (-2.662324e-07 -7.820469e-12 6.531759e-12))
1.5374        	((4.800490e-10 -3.217929e-06 -1.188329e-06) (3.617664e-10 -6.517480e-06 -6.002480e-08)) ((1.771395e-11 2.920451e-12 8.791547e-13) (-2.411816e-07 -6.230664e-12 1.045349e-11))
1.85688       	((4.063241e-10 -2.970654e-06 -1.180371e-06) (2.662954e-10 -5.919785e-06 -6.417945e-08)) ((1.620187e-11 2.842042e-12 8.528385e-13) (-2.190912e-07 -4.467558e-12 1.427681e-11))
2.240256      	((2.632032e-10 -2.736006e-06 -1.185959e-06) (1.654993e-10 -5.388624e-06 -6.894489e-08)) ((1.498384e-11 2.744576e-12 8.400213e-13) (-1.994349e-07 -2.898508e-12 1.738104e-11))
2.700307      	((2.709056e-10 -2.517229e-06 -1.201079e-06) (1.339110e-10 -4.913396e-06 -7.414276e-08)) ((1.392460e-11 2.626725e-12 8.189628e-13) (-1.818425e-07 -1.690738e-12 1.924972e-11))
3.252369      	((1.647229e-10 -2.314123e-06 -1.218466e-06) (1.353189e-10 -4.486462e-06 -7.969575e-08)) ((1.286996e-11 2.465070e-12 7.799105e-13) (-1.660350e-07 -7.580573e-13 1.902822e-11))
3.914842      	((1.113443e-10 -2.124862e-06 -1.238772e-06) (1.210702e-10 -4.101925e-06 -8.568125e-08)) ((1.182948e-11 2.298590e-12 7.151879e-13) (-1.517943e-07 -1.192869e-13 1.750696e-11))
4.709811      	((6.528305e-11 -1.950067e-06 -1.257554e-06) (9.720243e-11 -3.755510e-06 -9.215437e-08)) ((1.088241e-11 2.148817e-12 6.289419e-13) (-1.389611e-07 6.234264e-13 1.538013e-11))
5.663773      	((9.840070e-11 -1.790184e-06 -1.274642e-06) (6.506815e-11 -3.444063e-06 -9.909591e-08)) ((1.009422e-11 2.015302e-12 5.558016e-13) (-1.274196e-07 1.586781e-12 1.462330e-11))
6.808528      	((2.691502e-10 -1.645429e-06 -1.287693e-06) (3.745644e-11 -3.164803e-06 -1.064694e-07)) ((9.460139e-12 1.871429e-12 4.791751e-13) (-1.170698e-07 1.854902e-12 1.467906e-11))
8.182233      	((2.379787e-10 -1.515653e-06 -1.297462e-06) (1.475659e-11 -2.914660e-06 -1.142544e-07)) ((8.946692e-12 1.730400e-12 4.074898e-13) (-1.077999e-07 1.420898e-12 1.475494e-11))
9.83068       	((1.697612e-10 -1.399706e-06 -1.304088e-06) (-2.059695e-12 -2.690168e-06 -1.224833e-07)) ((8.484097e-12 1.620284e-12 3.592580e-13) (-9.948300e-08 9.051731e-13 1.460816e-11))
11.808816     	((9.246274e-11 -1.295855e-06 -1.308112e-06) (-1.261354e-11 -2.488107e-06 -1.312465e-07)) ((8.074740e-12 1.528593e-12 3.292885e-13) (-9.199908e-08 4.949579e-13 1.484977e-11))
14.182579     	((7.752125e-11 -1.203462e-06 -1.309120e-06) (-1.655050e-11 -2.305743e-06 -1.406123e-07)) ((7.750709e-12 1.447382e-12 3.052154e-13) (-8.524536e-08 6.142355e-13 1.491086e-11))
17.031095     	((2.758062e-11 -1.122073e-06 -1.308217e-06) (-2.948228e-11 -2.140846e-06 -1.506062e-07)) ((7.531048e-12 1.358861e-12 2.926849e-13) (-7.913726e-08 1.491411e-12 1.290320e-11))
20.449314     	((-2.585264e-11 -1.051394e-06 -1.304346e-06) (-6.260200e-11 -1.991762e-06 -1.612095e-07)) ((7.424451e-12 1.271707e-12 2.895629e-13) (-7.361206e-08 2.787447e-12 9.549002e-12))
24.551176     	((-1.426850e-10 -9.909678e-07 -1.299232e-06) (-8.922260e-11 -1.857296e-06 -1.723262e-07)) ((7.429752e-12 1.182426e-12 2.988962e-13) (-6.862524e-08 3.923267e-12 6.700183e-12))
29.473411     	((-2.403657e-10 -9.407355e-07 -1.291657e-06) (-1.004117e-10 -1.736561e-06 -1.837966e-07)) ((7.539563e-12 1.096512e-12 3.159644e-13) (-6.414443e-08 4.963854e-12 4.916058e-12))
35.380094     	((-2.006701e-10 -8.999842e-07 -1.282008e-06) (-1.046841e-10 -1.628750e-06 -1.954175e-07)) ((7.741374e-12 1.025540e-12 3.378925e-13) (-6.014208e-08 5.733450e-12 2.705626e-12))
42.468112     	((-2.739353e-10 -8.684911e-07 -1.269668e-06) (-1.142361e-10 -1.533027e-06 -2.069629e-07)) ((8.033589e-12 9.563542e-13 3.674524e-13) (-5.659006e-08 6.408178e-12 -1.108468e-13))
50.973735     	((-2.540991e-10 -8.454248e-07 -1.255302e-06) (-1.137914e-10 -1.448552e-06 -2.183012e-07)) ((8.415740e-12 8.933717e-13 3.981992e-13) (-5.345893e-08 6.768886e-12 -3.641988e-12))
61.180482     	((-2.505072e-10 -8.305632e-07 -1.238430e-06) (-1.150023e-10 -1.374540e-06 -2.293154e-07)) ((8.898688e-12 8.385576e-13 4.338034e-13) (-5.072231e-08 6.990408e-12 -7.698529e-12))
73.428578     	((-2.799438e-10 -8.237219e-07 -1.219528e-06) (-1.175943e-10 -1.310332e-06 -2.398764e-07)) ((9.489031e-12 7.919301e-13 4.774141e-13) (-4.836003e-08 7.280483e-12 -1.211748e-11))
88.126294     	((-1.976072e-10 -8.237591e-07 -1.198590e-06) (-1.279500e-10 -1.255380e-06 -2.499132e-07)) ((1.015530e-11 7.616427e-13 5.318081e-13) (-4.635603e-08 7.019480e-12 -1.662468e-11))
105.763553    	((-1.255265e-10 -8.292218e-07 -1.175215e-06) (-1.310793e-10 -1.209177e-06 -2.594371e-07)) ((1.086090e-11 7.530325e-13 5.904015e-13) (-4.469162e-08 6.242446e-12 -2.067163e-11))
126.928263    	((-4.419194e-11 -8.388632e-07 -1.150012e-06) (-1.392482e-10 -1.171161e-06 -2.683587e-07)) ((1.156213e-11 7.669525e-13 6.467268e-13) (-4.334243e-08 5.199518e-12 -2.383807e-11))
152.089686    	((3.923585e-11 -8.509474e-07 -1.122208e-06) (-1.411090e-10 -1.140665e-06 -2.763329e-07)) ((1.217922e-11 8.018352e-13 6.984000e-13) (-4.227470e-08 3.618480e-12 -2.567304e-11))
181.2262      	((1.547312e-10 -8.630613e-07 -1.091670e-06) (-1.370780e-10 -1.116666e-06 -2.829471e-07)) ((1.265694e-11 8.507533e-13 7.364625e-13) (-4.143866e-08 1.828351e-12 -2.670445e-11))
214.320073    	((3.122626e-10 -8.725718e-07 -1.059098e-06) (-1.221877e-10 -1.097662e-06 -2.879507e-07)) ((1.301797e-11 9.041346e-13 7.622081e-13) (-4.077543e-08 -3.431266e-14 -2.713388e-11))
251.365303    	((4.652514e-10 -8.787164e-07 -1.025435e-06) (-9.205920e-11 -1.082252e-06 -2.914477e-07)) ((1.329182e-11 9.574569e-13 7.815133e-13) (-4.023672e-08 -2.137582e-12 -2.731271e-11))
290.922774    	((5.816132e-10 -8.823342e-07 -9.935565e-07) (-5.315771e-11 -1.069585e-06 -2.938076e-07)) ((1.349610e-11 1.008110e-12 7.976837e-13) (-3.979575e-08 -4.058453e-12 -2.713775e-11))
330.554891    	((6.620912e-10 -8.843984e-07 -9.651724e-07) (-1.339426e-11 -1.059092e-06 -2.954651e-07)) ((1.363575e-11 1.060310e-12 8.097663e-13) (-3.943398e-08 -5.586101e-12 -2.675609e-11))
370.244832    	((7.244700e-10 -8.853124e-07 -9.405971e-07) (2.192291e-11 -1.050251e-06 -2.967279e-07)) ((1.372729e-11 1.110950e-12 8.215283e-13) (-3.913264e-08 -6.828415e-12 -2.639261e-11))
409.974089    	((7.622909e-10 -8.858088e-07 -9.193935e-07) (5.377630e-11 -1.042817e-06 -2.977558e-07)) ((1.378583e-11 1.157329e-12 8.304003e-13) (-3.888141e-08 -7.882853e-12 -2.583444e-11))
449.734061    	((7.823488e-10 -8.860312e-07 -9.012716e-07) (8.137439e-11 -1.036550e-06 -2.986256e-07)) ((1.382353e-11 1.197911e-12 8.383072e-13) (-3.867104e-08 -8.617424e-12 -2.513671e-11))
489.521131    	((7.838271e-10 -8.860910e-07 -8.856431e-07) (1.024482e-10 -1.031265e-06 -2.993764e-07)) ((1.385165e-11 1.233293e-12 8.442028e-13) (-3.849450e-08 -9.030606e-12 -2.437840e-11))
529.331811    	((7.720214e-10 -8.859961e-07 -8.720718e-07) (1.194240e-10 -1.026790e-06 -3.000318e-07)) ((1.387127e-11 1.264694e-12 8.486997e-13) (-3.834590e-08 -9.206503e-12 -2.342259e-11))
569.162969    	((7.497421e-10 -8.858252e-07 -8.601372e-07) (1.307798e-10 -1.022998e-06 -3.006099e-07)) ((1.388546e-11 1.293213e-12 8.523052e-13) (-3.822045e-08 -9.210959e-12 -2.241800e-11))
609.011612    	((7.111299e-10 -8.856123e-07 -8.496484e-07) (1.383802e-10 -1.019774e-06 -3.011227e-07)) ((1.389537e-11 1.318697e-12 8.553495e-13) (-3.811419e-08 -9.035018e-12 -2.137235e-11))
648.875195    	((6.705679e-10 -8.853864e-07 -8.404585e-07) (1.438012e-10 -1.017028e-06 -3.015778e-07)) ((1.390291e-11 1.341258e-12 8.580882e-13) (-3.802395e-08 -8.702133e-12 -2.025265e-11))
688.751546    	((6.235388e-10 -8.851685e-07 -8.323982e-07) (1.446182e-10 -1.014684e-06 -3.019777e-07)) ((1.390838e-11 1.361157e-12 8.603229e-13) (-3.794726e-08 -8.260708e-12 -1.918617e-11))
728.638864    	((5.754313e-10 -8.849515e-07 -8.253756e-07) (1.428969e-10 -1.012679e-06 -3.023289e-07)) ((1.391222e-11 1.378363e-12 8.622107e-13) (-3.788191e-08 -7.726580e-12 -1.815198e-11))
768.535631    	((5.259083e-10 -8.847487e-07 -8.192315e-07) (1.392597e-10 -1.010961e-06 -3.026363e-07)) ((1.391524e-11 1.393216e-12 8.639206e-13) (-3.782608e-08 -7.138261e-12 -1.716067e-11))
808.440553    	((4.743885e-10 -8.845558e-07 -8.138565e-07) (1.345588e-10 -1.009485e-06 -3.029060e-07)) ((1.391759e-11 1.406302e-12 8.654585e-13) (-3.777825e-08 -6.505674e-12 -1.617403e-11))
848.352527    	((4.228619e-10 -8.843814e-07 -8.091532e-07) (1.282732e-10 -1.008216e-06 -3.031413e-07)) ((1.391952e-11 1.417695e-12 8.667420e-13) (-3.773723e-08 -5.831606e-12 -1.523365e-11))
888.270605    	((3.729570e-10 -8.842169e-07 -8.050405e-07) (1.210713e-10 -1.007124e-06 -3.033467e-07)) ((1.392098e-11 1.427667e-12 8.678721e-13) (-3.770200e-08 -5.134133e-12 -1.434278e-11))
928.193973    	((3.250350e-10 -8.840674e-07 -8.014432e-07) (1.133338e-10 -1.006182e-06 -3.035255e-07)) ((1.392212e-11 1.436324e-12 8.688365e-13) (-3.767168e-08 -4.435224e-12 -1.350075e-11))
968.121935    	((2.788541e-10 -8.839326e-07 -7.983005e-07) (1.048379e-10 -1.005369e-06 -3.036810e-07)) ((1.392305e-11 1.443889e-12 8.696437e-13) (-3.764556e-08 -3.734347e-12 -1.273013e-11))
1008.05389    	((2.369549e-10 -8.838095e-07 -7.955504e-07) (9.603873e-11 -1.004666e-06 -3.038162e-07)) ((1.392376e-11 1.450546e-12 8.703451e-13) (-3.762301e-08 -3.058360e-12 -1.202485e-11))
1047.98932    	((1.969117e-10 -8.836980e-07 -7.931462e-07) (8.715308e-11 -1.004059e-06 -3.039338e-07)) ((1.392432e-11 1.456306e-12 8.709641e-13) (-3.760353e-08 -2.406756e-12 -1.137984e-11))
1087.927774   	((1.611097e-10 -8.835984e-07 -7.910441e-07) (7.828516e-11 -1.003532e-06 -3.040360e-07)) ((1.392477e-11 1.461364e-12 8.715046e-13) (-3.758667e-08 -1.793213e-12 -1.079063e-11))
1127.868861   	((1.284017e-10 -8.835090e-07 -7.892071e-07) (6.973205e-11 -1.003076e-06 -3.041249e-07)) ((1.392510e-11 1.465736e-12 8.719624e-13) (-3.757207e-08 -1.216786e-12 -1.025793e-11))
1167.812244   	((9.832986e-11 -8.834295e-07 -7.876011e-07) (6.152773e-11 -1.002680e-06 -3.042021e-07)) ((1.392540e-11 1.469536e-12 8.723556e-13) (-3.755941e-08 -6.765740e-13 -9.782357e-12))
1207.757629   	((7.210504e-11 -8.833594e-07 -7.861989e-07) (5.380336e-11 -1.002337e-06 -3.042692e-07)) ((1.392566e-11 1.472857e-12 8.726952e-13) (-3.754842e-08 -1.779280e-13 -9.357878e-12))
1247.704761   	((4.835315e-11 -8.832965e-07 -7.849724e-07) (4.659682e-11 -1.002038e-06 -3.043274e-07)) ((1.392589e-11 1.475757e-12 8.729885e-13) (-3.753889e-08 2.787083e-13 -8.979757e-12))
1287.653416   	((2.725786e-11 -8.832406e-07 -7.839005e-07) (3.996370e-11 -1.001779e-06 -3.043778e-07)) ((1.392609e-11 1.478269e-12 8.732568e-13) (-3.753060e-08 6.941529e-13 -8.642907e-12))
1327.603401   	((8.722839e-12 -8.831913e-07 -7.829652e-07) (3.391914e-11 -1.001554e-06 -3.044216e-07)) ((1.392627e-11 1.480460e-12 8.734884e-13) (-3.752341e-08 1.069914e-12 -8.343442e-12))
1367.554545   	((-7.429418e-12 -8.831474e-07 -7.821476e-07) (2.847749e-11 -1.001358e-06 -3.044596e-07)) ((1.392644e-11 1.482367e-12 8.736881e-13) (-3.751715e-08 1.406744e-12 -8.077800e-12))
1407.5067     	((-2.163103e-11 -8.831091e-07 -7.814346e-07) (2.361305e-11 -1.001187e-06 -3.044926e-07)) ((1.392661e-11 1.484050e-12 8.738700e-13) (-3.751171e-08 1.707865e-12 -7.841591e-12))
1447.459737   	((-3.372436e-11 -8.830757e-07 -7.808113e-07) (1.929830e-11 -1.001039e-06 -3.045213e-07)) ((1.392678e-11 1.485530e-12 8.740283e-13) (-3.750697e-08 1.974953e-12 -7.632204e-12))
1487.413544   	((-4.465020e-11 -8.830456e-07 -7.802660e-07) (1.547148e-11 -1.000910e-06 -3.045461e-07)) ((1.392691e-11 1.486822e-12 8.741677e-13) (-3.750285e-08 2.211431e-12 -7.447456e-12))
1527.368022   	((-5.411598e-11 -8.830191e-07 -7.797897e-07) (1.210172e-11 -1.000797e-06 -3.045677e-07)) ((1.392702e-11 1.487958e-12 8.742877e-13) (-3.749926e-08 2.420158e-12 -7.283976e-12))
1567.323086   	((-6.233460e-11 -8.829957e-07 -7.793705e-07) (9.158534e-12 -1.000699e-06 -3.045864e-07)) ((1.392713e-11 1.488959e-12 8.743954e-13) (-3.749613e-08 2.603730e-12 -7.139484e-12))
1607.278659   	((-6.955842e-11 -8.829751e-07 -7.790079e-07) (6.588859e-12 -1.000614e-06 -3.046026e-07)) ((1.392722e-11 1.489824e-12 8.744856e-13) (-3.749340e-08 2.765106e-12 -7.011861e-12))
1647.234678   	((-7.584848e-11 -8.829570e-07 -7.786903e-07) (4.341445e-12 -1.000540e-06 -3.046167e-07)) ((1.392731e-11 1.490579e-12 8.745640e-13) (-3.749103e-08 2.906554e-12 -6.899404e-12))
1687.191084   	((-8.133711e-11 -8.829408e-07 -7.784146e-07) (2.383498e-12 -1.000475e-06 -3.046290e-07)) ((1.392738e-11 1.491234e-12 8.746331e-13) (-3.748896e-08 3.030301e-12 -6.800700e-12))
1727.147828   	((-8.599575e-11 -8.829277e-07 -7.781749e-07) (6.692298e-13 -1.000418e-06 -3.046396e-07)) ((1.392746e-11 1.491804e-12 8.746934e-13) (-3.748715e-08 3.138684e-12 -6.714118e-12))
1767.104868   	((-9.026022e-11 -8.829156e-07 -7.779631e-07) (-8.295235e-13 -1.000369e-06 -3.046488e-07)) ((1.392751e-11 1.492305e-12 8.747447e-13) (-3.748558e-08 3.233537e-12 -6.638387e-12))
1807.062166   	((-9.395934e-11 -8.829048e-07 -7.777785e-07) (-2.144436e-12 -1.000326e-06 -3.046568e-07)) ((1.392757e-11 1.492744e-12 8.747915e-13) (-3.748421e-08 3.316519e-12 -6.572214e-12))
1847.019688   	((-9.718373e-11 -8.828952e-07 -7.776174e-07) (-3.293082e-12 -1.000289e-06 -3.046637e-07)) ((1.392761e-11 1.493127e-12 8.748317e-13) (-3.748301e-08 3.389166e-12 -6.514294e-12))
1886.977405   	((-1.001120e-10 -8.828869e-07 -7.774740e-07) (-4.305234e-12 -1.000256e-06 -3.046697e-07)) ((1.392765e-11 1.493466e-12 8.748654e-13) (-3.748197e-08 3.453023e-12 -6.463660e-12))
1926.935294   	((-1.025951e-10 -8.828798e-07 -7.773524e-07) (-5.190223e-12 -1.000228e-06 -3.046750e-07)) ((1.392768e-11 1.493753e-12 8.748961e-13) (-3.748106e-08 3.508995e-12 -6.419378e-12))
1966.893332   	((-1.047654e-10 -8.828736e-07 -7.772454e-07) (-5.969345e-12 -1.000203e-06 -3.046795e-07)) ((1.392771e-11 1.494003e-12 8.749231e-13) (-3.748026e-08 3.558148e-12 -6.380677e-12))
2006.851501   	((-1.066853e-10 -8.828681e-07 -7.771529e-07) (-6.654665e-12 -1.000181e-06 -3.046834e-07)) ((1.392775e-11 1.494221e-12 8.749457e-13) (-3.747957e-08 3.601314e-12 -6.347004e-12))
2046.809783   	((-1.084410e-10 -8.828633e-07 -7.770711e-07) (-7.262974e-12 -1.000163e-06 -3.046869e-07)) ((1.392777e-11 1.494410e-12 8.749654e-13) (-3.747896e-08 3.639414e-12 -6.317662e-12))
2086.768165   	((-1.098459e-10 -8.828589e-07 -7.770011e-07) (-7.800499e-12 -1.000146e-06 -3.046898e-07)) ((1.392779e-11 1.494574e-12 8.749825e-13) (-3.747844e-08 3.672920e-12 -6.291989e-12))
2126.726633   	((-1.112772e-10 -8.828550e-07 -7.769386e-07) (-8.269448e-12 -1.000132e-06 -3.046924e-07)) ((1.392781e-11 1.494719e-12 8.749970e-13) (-3.747798e-08 3.702281e-12 -6.269516e-12))
2166.685177   	((-1.123863e-10 -8.828518e-07 -7.768844e-07) (-8.689772e-12 -1.000119e-06 -3.046947e-07)) ((1.392783e-11 1.494845e-12 8.750101e-13) (-3.747757e-08 3.728264e-12 -6.249884e-12))
2206.643788   	((-1.134556e-10 -8.828491e-07 -7.768347e-07) (-9.061256e-12 -1.000108e-06 -3.046966e-07)) ((1.392784e-11 1.494962e-12 8.750215e-13) (-3.747722e-08 3.751191e-12 -6.232699e-12))
2246.602456   	((-1.143677e-10 -8.828466e-07 -7.767939e-07) (-9.386151e-12 -1.000099e-06 -3.046983e-07)) ((1.392785e-11 1.495055e-12 8.750313e-13) (-3.747692e-08 3.771254e-12 -6.217638e-12))
