# Forces      
# CofR        : (0.000000e+00 0.000000e+00 0.000000e+00)
# Time        forces(pressure viscous)	moments(pressure viscous)
0             	((0.000000e+00 0.000000e+00 0.000000e+00) (0.000000e+00 0.000000e+00 0.000000e+00)) ((0.000000e+00 0.000000e+00 0.000000e+00) (0.000000e+00 0.000000e+00 0.000000e+00))
0.012         	((-2.312811e-12 9.109643e-08 1.475491e-08) (-2.500005e-14 2.095496e-07 -2.683013e-14)) ((1.330612e-11 4.815787e-14 -1.218795e-13) (1.394460e-08 1.287338e-15 2.252342e-14))
0.0264        	((-5.313291e-11 1.224424e-07 3.125340e-08) (-1.197658e-13 1.919484e-07 -1.013463e-13)) ((-6.044172e-12 1.046684e-13 -5.383274e-14) (1.278717e-08 3.198366e-15 2.323369e-14))
0.04368       	((4.101360e-11 8.279385e-08 1.695545e-08) (-1.544654e-13 1.737836e-07 -2.195282e-13)) ((-4.489552e-12 5.507257e-14 -6.062978e-14) (1.159615e-08 9.626203e-16 4.342309e-14))
0.064416      	((-4.674294e-11 9.360470e-08 2.193385e-08) (-2.100212e-13 1.554560e-07 -4.394174e-13)) ((-8.864399e-12 7.290230e-14 -3.812686e-14) (1.039854e-08 -2.861782e-15 1.664610e-14))
0.0892992     	((2.316730e-11 6.909788e-08 1.462741e-08) (-2.137693e-13 1.374886e-07 -6.223845e-13)) ((-6.327543e-12 4.800714e-14 -2.533309e-14) (9.228427e-09 -6.329729e-15 -5.125444e-14))
0.119159      	((-1.701040e-11 7.086055e-08 1.587403e-08) (-1.363033e-13 1.204557e-07 -7.353944e-13)) ((-7.747919e-12 5.226695e-14 -1.327865e-14) (8.124167e-09 -6.175852e-15 -7.825726e-14))
0.154991      	((1.163089e-11 5.336268e-08 1.133133e-08) (-7.001412e-14 1.048867e-07 -9.595309e-13)) ((-5.415154e-12 3.774987e-14 -5.937865e-15) (7.109272e-09 -6.116968e-15 -8.820823e-14))
0.197989      	((-3.872645e-12 5.266911e-08 1.141113e-08) (-3.431800e-14 9.110820e-08 -1.311237e-12)) ((-6.105873e-12 3.811071e-14 -8.891751e-15) (6.210319e-09 -5.640275e-15 -9.323842e-14))
0.249587      	((3.853109e-12 4.091071e-08 8.847772e-09) (-1.558710e-14 7.936758e-08 -1.750554e-12)) ((-4.374081e-12 2.900025e-14 -7.080057e-15) (5.438502e-09 -2.422479e-15 -8.709105e-14))
0.311504      	((1.452977e-12 3.971183e-08 8.570051e-09) (1.985056e-14 6.960744e-08 -2.205158e-12)) ((-4.816374e-12 2.884926e-14 -1.281055e-14) (4.794187e-09 -4.521952e-16 -6.884171e-14))
0.385805      	((5.720189e-14 3.200388e-08 7.116096e-09) (4.018670e-14 6.154461e-08 -2.617305e-12)) ((-3.588628e-12 2.333912e-14 -7.949556e-15) (4.261350e-09 1.343667e-15 -3.895904e-14))
0.474966      	((9.286821e-13 3.102306e-08 6.714548e-09) (2.904884e-14 5.487531e-08 -2.888154e-12)) ((-3.897602e-12 2.284525e-14 -1.114011e-14) (3.821419e-09 5.371166e-16 -1.337600e-14))
0.581959      	((-1.373442e-12 2.584295e-08 5.782281e-09) (-3.674548e-14 4.926181e-08 -3.221825e-12)) ((-3.003867e-12 1.869111e-14 -7.515328e-15) (3.450851e-09 1.165536e-15 -1.492394e-14))
0.710351      	((3.893987e-13 2.504320e-08 5.355167e-09) (-9.398148e-14 4.444001e-08 -3.522421e-12)) ((-3.236659e-12 1.830033e-14 -1.162414e-14) (3.133686e-09 -1.482869e-15 -1.438597e-14))
0.864421      	((-2.887579e-12 2.132156e-08 4.737668e-09) (-1.206391e-13 4.020047e-08 -3.782448e-12)) ((-2.603169e-12 1.546496e-14 -8.187001e-15) (2.855023e-09 -2.637357e-15 -2.943858e-14))
1.049306      	((-1.072507e-14 2.051737e-08 4.370310e-09) (-1.495538e-13 3.642654e-08 -3.785963e-12)) ((-2.786331e-12 1.502691e-14 -6.877582e-15) (2.608103e-09 -7.407692e-15 -4.826021e-14))
1.271167      	((-1.986019e-12 1.763518e-08 3.908908e-09) (-1.651512e-13 3.302124e-08 -3.992500e-12)) ((-2.348834e-12 1.316261e-14 -2.755521e-17) (2.385536e-09 -1.147200e-14 -5.443744e-14))
1.5374        	((-1.677704e-12 1.677163e-08 3.580205e-09) (-1.790967e-13 2.994727e-08 -3.792600e-12)) ((-2.450107e-12 1.264585e-14 8.245080e-16) (2.184888e-09 -2.069091e-14 -4.458349e-14))
1.85688       	((-1.538359e-12 1.452674e-08 3.233825e-09) (-2.529757e-13 2.716876e-08 -3.910373e-12)) ((-2.129376e-12 1.150668e-14 4.402572e-15) (2.003903e-09 -3.604207e-14 -4.726593e-14))
2.240256      	((-1.514095e-12 1.362648e-08 2.990230e-09) (-3.413975e-13 2.467262e-08 -3.380526e-12)) ((-2.160380e-12 1.089485e-14 3.551808e-15) (1.841156e-09 -5.335934e-14 -7.027869e-14))
2.700307      	((-3.857110e-13 1.194553e-08 2.752294e-09) (-4.768500e-13 2.246439e-08 -2.805405e-12)) ((-1.933644e-12 1.016150e-14 5.514671e-15) (1.697304e-09 -7.063898e-14 -9.256489e-14))
3.252369      	((-2.469110e-12 1.112183e-08 2.579465e-09) (-5.635605e-13 2.051372e-08 -2.124982e-12)) ((-1.938772e-12 9.742703e-15 4.159689e-15) (1.570110e-09 -8.921066e-14 -9.640366e-14))
3.914842      	((3.443892e-13 9.915506e-09 2.401468e-09) (-3.314457e-13 1.879832e-08 -1.257702e-12)) ((-1.807369e-12 8.872124e-15 4.344472e-15) (1.458582e-09 -1.133856e-13 -7.807140e-14))
4.709811      	((-5.871428e-13 9.175392e-09 2.256214e-09) (-1.369061e-13 1.728838e-08 -5.554695e-13)) ((-1.791796e-12 8.008230e-15 3.832051e-15) (1.360604e-09 -1.312297e-13 -5.034896e-14))
5.663773      	((1.911897e-13 8.298184e-09 2.091369e-09) (-1.973363e-13 1.594902e-08 3.670510e-14)) ((-1.705833e-12 7.144832e-15 4.075064e-15) (1.273940e-09 -1.297709e-13 -2.659386e-14))
6.808528      	((-1.942554e-12 7.653105e-09 1.938125e-09) (-2.710957e-13 1.474818e-08 3.294053e-13)) ((-1.669423e-12 7.080546e-15 4.118662e-15) (1.196471e-09 -1.209000e-13 -3.694960e-15))
8.182233      	((-1.927585e-12 6.973757e-09 1.772804e-09) (-4.638350e-13 1.365880e-08 2.802834e-13)) ((-1.614301e-12 6.263524e-15 4.749773e-15) (1.126552e-09 -1.123336e-13 6.350835e-15))
9.83068       	((-1.752056e-12 6.394934e-09 1.624390e-09) (-6.190816e-13 1.266177e-08 -3.320610e-13)) ((-1.574660e-12 5.858452e-15 4.697791e-15) (1.062912e-09 -1.034443e-13 7.902523e-15))
11.808816     	((-5.310932e-13 5.848558e-09 1.485473e-09) (-7.032959e-13 1.174705e-08 -1.471747e-12)) ((-1.534128e-12 5.044755e-15 4.868843e-15) (1.004916e-09 -9.231127e-14 1.254695e-14))
14.182579     	((-9.925491e-13 5.370122e-09 1.377034e-09) (-7.682942e-13 1.090699e-08 -2.898110e-12)) ((-1.494848e-12 4.580226e-15 4.846131e-15) (9.519378e-10 -8.174530e-14 4.524636e-15))
17.031095     	((-1.356914e-12 4.923244e-09 1.286559e-09) (-7.949185e-13 1.013490e-08 -3.956447e-12)) ((-1.463850e-12 4.234896e-15 4.978298e-15) (9.036785e-10 -6.483488e-14 -1.189043e-15))
20.449314     	((-1.796841e-12 4.524890e-09 1.224415e-09) (-8.141588e-13 9.426963e-09 -4.742576e-12)) ((-1.433212e-12 4.032443e-15 5.106462e-15) (8.597660e-10 -4.585223e-14 3.860230e-15))
24.551176     	((-1.251339e-12 4.150008e-09 1.172406e-09) (-8.420817e-13 8.778952e-09 -5.102795e-12)) ((-1.411163e-12 3.801980e-15 5.230100e-15) (8.198681e-10 -3.029518e-14 7.397644e-15))
29.473411     	((-1.070388e-12 3.812976e-09 1.118567e-09) (-8.410178e-13 8.187127e-09 -5.377295e-12)) ((-1.389740e-12 3.686482e-15 5.338429e-15) (7.836552e-10 -2.201397e-14 2.947124e-15))
35.380094     	((-1.014766e-12 3.499340e-09 1.066610e-09) (-8.835509e-13 7.646724e-09 -5.408857e-12)) ((-1.373021e-12 3.527650e-15 5.449749e-15) (7.507594e-10 -1.766366e-14 1.074953e-14))
42.468112     	((-8.283974e-13 3.218023e-09 1.013499e-09) (-8.933712e-13 7.152739e-09 -5.291643e-12)) ((-1.357225e-12 3.450685e-15 5.487116e-15) (7.208031e-10 -1.419370e-14 2.189002e-14))
50.973735     	((-6.772597e-13 2.957017e-09 9.609174e-10) (-8.731190e-13 6.700826e-09 -5.302736e-12)) ((-1.343941e-12 3.291695e-15 5.505521e-15) (6.935186e-10 -1.866869e-14 3.152706e-14))
61.180482     	((-7.679978e-13 2.721007e-09 9.144826e-10) (-8.196132e-13 6.287996e-09 -5.232066e-12)) ((-1.331673e-12 3.060667e-15 5.503205e-15) (6.687427e-10 -2.082444e-14 3.945268e-14))
73.428578     	((-4.784204e-13 2.505834e-09 8.708761e-10) (-7.316061e-13 5.911758e-09 -5.189497e-12)) ((-1.321494e-12 2.845865e-15 5.438020e-15) (6.463245e-10 -2.622865e-14 4.733448e-14))
88.126294     	((-5.231270e-13 2.310508e-09 8.278898e-10) (-6.549525e-13 5.569480e-09 -5.164805e-12)) ((-1.312707e-12 2.597160e-15 5.441824e-15) (6.260976e-10 -3.242866e-14 5.229873e-14))
105.763553    	((9.951921e-15 2.139442e-09 7.902064e-10) (-4.868027e-13 5.258917e-09 -5.048929e-12)) ((-1.305609e-12 2.487904e-15 5.425879e-15) (6.079049e-10 -3.715193e-14 5.920662e-14))
126.928263    	((2.056233e-13 1.984236e-09 7.583153e-10) (-3.890289e-13 4.977921e-09 -4.910194e-12)) ((-1.299562e-12 2.361561e-15 5.387040e-15) (5.915946e-10 -4.164983e-14 6.535659e-14))
152.325916    	((4.446178e-13 1.846853e-09 7.314347e-10) (-3.102657e-13 4.724045e-09 -4.785982e-12)) ((-1.294555e-12 2.246579e-15 5.380098e-15) (5.769817e-10 -4.581908e-14 6.776614e-14))
182.803099    	((5.184396e-13 1.725064e-09 7.042832e-10) (-2.538730e-13 4.494906e-09 -4.783366e-12)) ((-1.290280e-12 2.112376e-15 5.339442e-15) (5.638990e-10 -4.907364e-14 7.020717e-14))
219.375719    	((5.248123e-13 1.617269e-09 6.808812e-10) (-1.538565e-13 4.288262e-09 -4.978795e-12)) ((-1.286744e-12 2.014277e-15 5.283500e-15) (5.521991e-10 -5.230275e-14 7.217416e-14))
263.262863    	((6.194111e-13 1.521437e-09 6.587757e-10) (-4.417085e-14 4.102134e-09 -5.478604e-12)) ((-1.283989e-12 1.922611e-15 5.206370e-15) (5.417554e-10 -5.378022e-14 7.375795e-14))
315.927436    	((5.760861e-13 1.437515e-09 6.369462e-10) (9.284054e-15 3.934798e-09 -6.124705e-12)) ((-1.281789e-12 1.839751e-15 5.153497e-15) (5.324530e-10 -5.044686e-14 7.396213e-14))
379.124923    	((6.292819e-13 1.364109e-09 6.153853e-10) (3.148202e-14 3.784851e-09 -6.918545e-12)) ((-1.280015e-12 1.753806e-15 5.163759e-15) (5.241985e-10 -4.697128e-14 7.306773e-14))
454.961908    	((6.353296e-13 1.301254e-09 5.969956e-10) (5.471849e-14 3.651262e-09 -7.835708e-12)) ((-1.278653e-12 1.690300e-15 5.168949e-15) (5.169154e-10 -4.759720e-14 7.116265e-14))
545.966289    	((6.315726e-13 1.248026e-09 5.829225e-10) (7.055433e-14 3.533155e-09 -8.879847e-12)) ((-1.277572e-12 1.638056e-15 5.178055e-15) (5.105387e-10 -4.815682e-14 6.997444e-14))
655.171547    	((5.715013e-13 1.203668e-09 5.707320e-10) (5.170262e-14 3.429753e-09 -9.934063e-12)) ((-1.276671e-12 1.606332e-15 5.187405e-15) (5.050038e-10 -4.712914e-14 6.949053e-14))
786.217856    	((5.335932e-13 1.167031e-09 5.603218e-10) (1.512452e-14 3.340241e-09 -1.093759e-11)) ((-1.275926e-12 1.588970e-15 5.182960e-15) (5.002475e-10 -4.517782e-14 6.847060e-14))
943.473427    	((5.178826e-13 1.137076e-09 5.516450e-10) (-1.836034e-14 3.263803e-09 -1.189004e-11)) ((-1.275294e-12 1.553973e-15 5.180494e-15) (4.962070e-10 -4.346016e-14 6.772798e-14))
1132.180113   	((4.661794e-13 1.112761e-09 5.446927e-10) (-4.136489e-14 3.199513e-09 -1.287988e-11)) ((-1.274751e-12 1.516907e-15 5.178214e-15) (4.928184e-10 -4.201139e-14 6.682017e-14))
1358.628135   	((4.493327e-13 1.093249e-09 5.387654e-10) (-5.719960e-14 3.146312e-09 -1.388371e-11)) ((-1.274313e-12 1.490958e-15 5.179266e-15) (4.900153e-10 -4.119412e-14 6.560129e-14))
1630.365763   	((4.407397e-13 1.077742e-09 5.337908e-10) (-7.074183e-14 3.102978e-09 -1.485522e-11)) ((-1.273970e-12 1.469069e-15 5.185707e-15) (4.877274e-10 -4.017878e-14 6.429147e-14))
1956.450915   	((4.305843e-13 1.065547e-09 5.298421e-10) (-8.799760e-14 3.068250e-09 -1.575980e-11)) ((-1.273695e-12 1.451219e-15 5.194175e-15) (4.858854e-10 -3.902920e-14 6.298800e-14))
2347.753098   	((4.317492e-13 1.056044e-09 5.266571e-10) (-9.956439e-14 3.040857e-09 -1.657530e-11)) ((-1.273482e-12 1.435605e-15 5.201357e-15) (4.844217e-10 -3.813144e-14 6.169842e-14))
2817.315718   	((4.254185e-13 1.048710e-09 5.242541e-10) (-1.035372e-13 3.019565e-09 -1.728893e-11)) ((-1.273315e-12 1.423482e-15 5.209997e-15) (4.832720e-10 -3.757506e-14 6.045195e-14))
3380.790861   	((4.161842e-13 1.043075e-09 5.222394e-10) (-1.037693e-13 3.003237e-09 -1.789374e-11)) ((-1.273181e-12 1.413241e-15 5.217257e-15) (4.823781e-10 -3.719264e-14 5.935777e-14))
4056.961033   	((4.104384e-13 1.038782e-09 5.207237e-10) (-1.025076e-13 2.990865e-09 -1.839182e-11)) ((-1.273072e-12 1.406224e-15 5.224277e-15) (4.816891e-10 -3.688304e-14 5.850918e-14))
4868.36524    	((4.014772e-13 1.035520e-09 5.195339e-10) (-1.008513e-13 2.981593e-09 -1.879292e-11)) ((-1.272983e-12 1.400771e-15 5.229810e-15) (4.811620e-10 -3.664102e-14 5.788341e-14))
5842.050288   	((3.918954e-13 1.033054e-09 5.186569e-10) (-9.937968e-14 2.974711e-09 -1.910981e-11)) ((-1.272911e-12 1.396546e-15 5.234170e-15) (4.807613e-10 -3.643765e-14 5.743090e-14))
7010.472346   	((3.881167e-13 1.031185e-09 5.179716e-10) (-9.762017e-14 2.969649e-09 -1.935405e-11)) ((-1.272852e-12 1.393675e-15 5.238054e-15) (4.804581e-10 -3.630057e-14 5.710121e-14))
8412.578815   	((3.884201e-13 1.029771e-09 5.175022e-10) (-9.564299e-14 2.965954e-09 -1.953997e-11)) ((-1.272804e-12 1.392015e-15 5.241376e-15) (4.802297e-10 -3.622034e-14 5.684364e-14))
10089.440467  	((3.873887e-13 1.028708e-09 5.171609e-10) (-9.370690e-14 2.963276e-09 -1.967895e-11)) ((-1.272765e-12 1.390861e-15 5.243962e-15) (4.800580e-10 -3.617180e-14 5.664652e-14))
12041.055601  	((3.882859e-13 1.027908e-09 5.169276e-10) (-9.184252e-14 2.961348e-09 -1.978093e-11)) ((-1.272736e-12 1.390395e-15 5.246040e-15) (4.799293e-10 -3.614246e-14 5.649520e-14))
14267.422996  	((3.903268e-13 1.027307e-09 5.167889e-10) (-9.037663e-14 2.959968e-09 -1.985478e-11)) ((-1.272714e-12 1.390147e-15 5.247613e-15) (4.798330e-10 -3.611544e-14 5.639194e-14))
16768.541793  	((3.920165e-13 1.026854e-09 5.166666e-10) (-8.920660e-14 2.958986e-09 -1.990746e-11)) ((-1.272697e-12 1.389907e-15 5.248827e-15) (4.797610e-10 -3.609324e-14 5.631761e-14))
19516.049793  	((3.931507e-13 1.026513e-09 5.166112e-10) (-8.826343e-14 2.958291e-09 -1.994460e-11)) ((-1.272685e-12 1.389828e-15 5.249706e-15) (4.797071e-10 -3.607361e-14 5.626752e-14))
22263.553634  	((3.933238e-13 1.026257e-09 5.165737e-10) (-8.754729e-14 2.957801e-09 -1.997022e-11)) ((-1.272683e-12 1.389797e-15 5.250353e-15) (4.796669e-10 -3.605604e-14 5.623823e-14))
25011.05502   	((3.932899e-13 1.026063e-09 5.165563e-10) (-8.707219e-14 2.957458e-09 -1.998761e-11)) ((-1.272683e-12 1.389772e-15 5.250808e-15) (4.796369e-10 -3.603737e-14 5.622131e-14))
27758.555114  	((3.914907e-13 1.025915e-09 5.165424e-10) (-8.671802e-14 2.957218e-09 -1.999938e-11)) ((-1.272684e-12 1.389740e-15 5.251155e-15) (4.796143e-10 -3.602028e-14 5.621642e-14))
30506.054529  	((3.884893e-13 1.025801e-09 5.165654e-10) (-8.649087e-14 2.957051e-09 -2.000718e-11)) ((-1.272684e-12 1.389807e-15 5.251404e-15) (4.795973e-10 -3.600558e-14 5.621811e-14))
33253.553603  	((3.826850e-13 1.025715e-09 5.165716e-10) (-8.640710e-14 2.956936e-09 -2.001240e-11)) ((-1.272684e-12 1.389823e-15 5.251547e-15) (4.795844e-10 -3.599357e-14 5.622632e-14))
36001.052532  	((3.800107e-13 1.025648e-09 5.165810e-10) (-8.634684e-14 2.956857e-09 -2.001559e-11)) ((-1.272684e-12 1.389788e-15 5.251700e-15) (4.795747e-10 -3.598028e-14 5.623438e-14))
38748.551431  	((3.750193e-13 1.025597e-09 5.165876e-10) (-8.639479e-14 2.956803e-09 -2.001771e-11)) ((-1.272685e-12 1.389788e-15 5.251699e-15) (4.795672e-10 -3.597029e-14 5.624730e-14))
41496.050361  	((3.714154e-13 1.025558e-09 5.165987e-10) (-8.654425e-14 2.956766e-09 -2.001893e-11)) ((-1.272685e-12 1.389780e-15 5.251686e-15) (4.795616e-10 -3.595714e-14 5.626301e-14))
44243.549356  	((3.696020e-13 1.025526e-09 5.166348e-10) (-8.676145e-14 2.956741e-09 -2.001954e-11)) ((-1.272685e-12 1.389790e-15 5.251561e-15) (4.795572e-10 -3.594287e-14 5.628365e-14))
46991.048432  	((3.673293e-13 1.025502e-09 5.166498e-10) (-8.707177e-14 2.956724e-09 -2.001970e-11)) ((-1.272685e-12 1.389721e-15 5.251211e-15) (4.795539e-10 -3.592446e-14 5.631399e-14))
49738.54759   	((3.626029e-13 1.025484e-09 5.166631e-10) (-8.762412e-14 2.956713e-09 -2.001944e-11)) ((-1.272685e-12 1.389579e-15 5.250351e-15) (4.795513e-10 -3.589851e-14 5.636615e-14))
52486.046829  	((3.590766e-13 1.025468e-09 5.166762e-10) (-8.841366e-14 2.956705e-09 -2.001867e-11)) ((-1.272684e-12 1.389400e-15 5.249382e-15) (4.795493e-10 -3.584971e-14 5.643555e-14))
55233.54614   	((3.603673e-13 1.025454e-09 5.166955e-10) (-8.883437e-14 2.956700e-09 -2.001803e-11)) ((-1.272684e-12 1.389482e-15 5.249504e-15) (4.795478e-10 -3.582620e-14 5.646965e-14))
57981.045516  	((3.614604e-13 1.025443e-09 5.167133e-10) (-8.904929e-14 2.956697e-09 -2.001753e-11)) ((-1.272685e-12 1.389554e-15 5.249492e-15) (4.795466e-10 -3.581153e-14 5.649347e-14))
60728.544948  	((3.619351e-13 1.025433e-09 5.167296e-10) (-8.916725e-14 2.956696e-09 -2.001707e-11)) ((-1.272685e-12 1.389592e-15 5.249509e-15) (4.795457e-10 -3.580223e-14 5.650548e-14))
63476.044426  	((3.614196e-13 1.025423e-09 5.167475e-10) (-8.925513e-14 2.956695e-09 -2.001662e-11)) ((-1.272685e-12 1.389504e-15 5.249558e-15) (4.795450e-10 -3.579565e-14 5.651239e-14))
66223.543945  	((3.630762e-13 1.025417e-09 5.167628e-10) (-8.927363e-14 2.956695e-09 -2.001618e-11)) ((-1.272685e-12 1.389575e-15 5.249552e-15) (4.795445e-10 -3.579167e-14 5.651666e-14))
68971.043495  	((3.618450e-13 1.025410e-09 5.167770e-10) (-8.931223e-14 2.956695e-09 -2.001580e-11)) ((-1.272685e-12 1.389501e-15 5.249587e-15) (4.795440e-10 -3.578775e-14 5.651945e-14))
71718.543074  	((3.630877e-13 1.025405e-09 5.167898e-10) (-8.931786e-14 2.956696e-09 -2.001540e-11)) ((-1.272685e-12 1.389577e-15 5.249578e-15) (4.795437e-10 -3.578637e-14 5.652179e-14))
74466.042674  	((3.604248e-13 1.025400e-09 5.168006e-10) (-8.935246e-14 2.956696e-09 -2.001508e-11)) ((-1.272685e-12 1.389523e-15 5.249606e-15) (4.795434e-10 -3.578435e-14 5.652393e-14))
77213.542292  	((3.614159e-13 1.025397e-09 5.168109e-10) (-8.937168e-14 2.956696e-09 -2.001481e-11)) ((-1.272685e-12 1.389615e-15 5.249600e-15) (4.795432e-10 -3.578381e-14 5.652476e-14))
79961.041925  	((3.589576e-13 1.025394e-09 5.168199e-10) (-8.940032e-14 2.956697e-09 -2.001459e-11)) ((-1.272686e-12 1.389553e-15 5.249623e-15) (4.795431e-10 -3.578291e-14 5.652666e-14))
82708.54157   	((3.601752e-13 1.025392e-09 5.168278e-10) (-8.941476e-14 2.956697e-09 -2.001435e-11)) ((-1.272686e-12 1.389637e-15 5.249610e-15) (4.795429e-10 -3.578278e-14 5.652696e-14))
85456.041225  	((3.543563e-13 1.025391e-09 5.168318e-10) (-8.937516e-14 2.956697e-09 -2.001420e-11)) ((-1.272686e-12 1.389746e-15 5.249577e-15) (4.795428e-10 -3.578556e-14 5.652761e-14))
88203.540887  	((3.539201e-13 1.025388e-09 5.168371e-10) (-8.945664e-14 2.956697e-09 -2.001410e-11)) ((-1.272686e-12 1.389647e-15 5.249626e-15) (4.795428e-10 -3.578527e-14 5.652896e-14))
90951.040556  	((3.563265e-13 1.025387e-09 5.168434e-10) (-8.948683e-14 2.956697e-09 -2.001394e-11)) ((-1.272686e-12 1.389711e-15 5.249616e-15) (4.795427e-10 -3.578443e-14 5.652876e-14))
93698.54023   	((3.548791e-13 1.025385e-09 5.168494e-10) (-8.950051e-14 2.956698e-09 -2.001382e-11)) ((-1.272686e-12 1.389633e-15 5.249638e-15) (4.795426e-10 -3.578363e-14 5.652990e-14))
96446.039909  	((3.567486e-13 1.025384e-09 5.168543e-10) (-8.950094e-14 2.956698e-09 -2.001365e-11)) ((-1.272686e-12 1.389703e-15 5.249623e-15) (4.795426e-10 -3.578344e-14 5.652955e-14))
99193.53959   	((3.515599e-13 1.025384e-09 5.168555e-10) (-8.944860e-14 2.956698e-09 -2.001357e-11)) ((-1.272686e-12 1.389800e-15 5.249590e-15) (4.795426e-10 -3.578621e-14 5.652959e-14))
101941.039273 	((3.514837e-13 1.025383e-09 5.168585e-10) (-8.952116e-14 2.956698e-09 -2.001354e-11)) ((-1.272686e-12 1.389693e-15 5.249637e-15) (4.795425e-10 -3.578579e-14 5.653055e-14))
104688.538959 	((3.542490e-13 1.025382e-09 5.168626e-10) (-8.954185e-14 2.956698e-09 -2.001343e-11)) ((-1.272686e-12 1.389750e-15 5.249626e-15) (4.795425e-10 -3.578486e-14 5.653001e-14))
107436.038646 	((3.496782e-13 1.025382e-09 5.168630e-10) (-8.949030e-14 2.956698e-09 -2.001338e-11)) ((-1.272686e-12 1.389839e-15 5.249591e-15) (4.795425e-10 -3.578719e-14 5.652997e-14))
110183.538335 	((3.499763e-13 1.025381e-09 5.168651e-10) (-8.956291e-14 2.956698e-09 -2.001337e-11)) ((-1.272686e-12 1.389724e-15 5.249640e-15) (4.795425e-10 -3.578642e-14 5.653092e-14))
112931.038025 	((3.530534e-13 1.025380e-09 5.168685e-10) (-8.957525e-14 2.956698e-09 -2.001328e-11)) ((-1.272686e-12 1.389777e-15 5.249628e-15) (4.795425e-10 -3.578547e-14 5.653005e-14))
115678.537715 	((3.487280e-13 1.025381e-09 5.168684e-10) (-8.952424e-14 2.956698e-09 -2.001323e-11)) ((-1.272686e-12 1.389855e-15 5.249591e-15) (4.795425e-10 -3.578765e-14 5.652948e-14))
118426.037406 	((3.491726e-13 1.025380e-09 5.168699e-10) (-8.959348e-14 2.956698e-09 -2.001324e-11)) ((-1.272686e-12 1.389741e-15 5.249643e-15) (4.795425e-10 -3.578657e-14 5.653075e-14))
