# Forces      
# CofR        : (0.000000e+00 0.000000e+00 0.000000e+00)
# Time        forces(pressure viscous)	moments(pressure viscous)
0             	((0.000000e+00 0.000000e+00 0.000000e+00) (-3.232378e-14 -6.326841e-05 5.726315e-15)) ((0.000000e+00 0.000000e+00 0.000000e+00) (-1.421575e-06 -1.742746e-16 3.076222e-11))
0.012         	((1.661988e-08 -1.840120e-02 4.147257e-03) (1.024842e-10 -7.258227e-05 -4.020400e-08)) ((2.169809e-07 1.415277e-08 3.466483e-09) (-2.095251e-06 1.144316e-13 6.264229e-11))
0.0264        	((-3.012438e-07 1.314595e-03 -2.757565e-04) (-7.154964e-11 -7.401080e-05 -6.254348e-08)) ((-1.565485e-08 -9.038342e-10 -2.244193e-10) (-2.344925e-06 1.317779e-11 8.108024e-11))
0.04368       	((1.487169e-07 3.828068e-03 -3.083287e-04) (1.163728e-11 -6.573236e-05 -5.468141e-08)) ((-4.987126e-08 -1.046663e-09 -9.396400e-10) (-2.088871e-06 2.132665e-11 6.783747e-11))
0.064416      	((7.239598e-08 3.596175e-05 -1.583317e-04) (-1.262787e-09 -5.820723e-05 -2.585691e-08)) ((2.203747e-10 -5.028657e-10 5.436338e-11) (-1.875948e-06 1.312859e-11 8.324032e-11))
0.0892992     	((-5.718094e-08 -4.706165e-05 -9.854985e-05) (-2.560664e-09 -5.372884e-05 -2.084251e-08)) ((1.955335e-09 -2.979615e-10 5.499421e-11) (-1.773567e-06 9.513565e-12 9.461994e-11))
0.119159      	((-6.954941e-09 5.895316e-05 -6.311028e-05) (-2.608756e-09 -4.960903e-05 -4.066426e-08)) ((-1.080783e-09 -1.898642e-10 -1.982048e-11) (-1.660082e-06 1.951349e-11 8.197438e-11))
0.154991      	((1.183122e-08 3.099902e-05 -4.195151e-05) (-2.319285e-09 -4.525714e-05 -5.590558e-08)) ((-6.698571e-10 -1.090612e-10 1.278755e-12) (-1.534192e-06 1.946809e-11 5.102695e-11))
0.197989      	((-9.001077e-09 7.376742e-06 -2.825478e-05) (-1.938377e-09 -4.088609e-05 -6.963978e-08)) ((-2.427024e-10 -6.195154e-11 4.862304e-12) (-1.406410e-06 5.960487e-12 1.174982e-11))
0.249587      	((-1.230658e-08 -1.138810e-06 -1.979723e-05) (-1.646707e-09 -3.662390e-05 -8.574157e-08)) ((-8.683230e-11 -3.521034e-11 3.007596e-12) (-1.279222e-06 -4.065521e-12 -1.479050e-11))
0.311504      	((-1.077407e-08 -4.944906e-06 -1.448025e-05) (-1.357875e-09 -3.260130e-05 -1.043061e-07)) ((-3.105048e-11 -1.818380e-11 2.548130e-12) (-1.155287e-06 -7.088234e-12 -3.117246e-11))
0.385805      	((-3.960450e-09 -6.876320e-06 -1.112212e-05) (-1.037413e-09 -2.892179e-05 -1.235747e-07)) ((-9.485597e-12 -7.388047e-12 2.054513e-12) (-1.037696e-06 -8.020155e-12 -4.002026e-11))
0.474966      	((-1.792837e-09 -7.895727e-06 -8.954708e-06) (-5.692792e-10 -2.564292e-05 -1.425290e-07)) ((7.063554e-12 -1.178724e-12 1.840769e-12) (-9.293117e-07 -7.592144e-12 -4.539340e-11))
0.581959      	((4.504943e-10 -8.323412e-06 -7.603563e-06) (-1.842826e-10 -2.276308e-05 -1.616925e-07)) ((1.973525e-11 2.707384e-12 1.587950e-12) (-8.312108e-07 -5.087428e-12 -4.424084e-11))
0.710351      	((5.294791e-10 -8.309527e-06 -6.770518e-06) (7.578910e-11 -2.026085e-05 -1.789519e-07)) ((2.790608e-11 5.151902e-12 1.331717e-12) (-7.438328e-07 -2.337031e-12 -3.898241e-11))
0.864421      	((6.379097e-10 -8.014366e-06 -6.275153e-06) (3.213361e-10 -1.810464e-05 -1.930467e-07)) ((3.179512e-11 6.542638e-12 1.607500e-12) (-6.671560e-07 5.511359e-13 -2.643391e-11))
1.049306      	((2.248581e-10 -7.576231e-06 -5.979674e-06) (4.614440e-10 -1.624974e-05 -2.055907e-07)) ((3.267267e-11 7.234201e-12 1.663476e-12) (-6.002313e-07 4.171187e-12 -1.042905e-11))
1.271167      	((3.364859e-10 -7.075533e-06 -5.815955e-06) (4.903371e-10 -1.464843e-05 -2.191116e-07)) ((3.192066e-11 7.574219e-12 1.417799e-12) (-5.417066e-07 6.280329e-12 1.622528e-12))
1.5374        	((1.869671e-10 -6.549663e-06 -5.731408e-06) (4.526924e-10 -1.325312e-05 -2.350021e-07)) ((2.983472e-11 7.565339e-12 1.282893e-12) (-4.902909e-07 6.483041e-12 6.854341e-12))
1.85688       	((1.669630e-10 -6.032911e-06 -5.700392e-06) (4.118853e-10 -1.202340e-05 -2.534522e-07)) ((2.738291e-11 7.410520e-12 1.225330e-12) (-4.448376e-07 6.427487e-12 1.274599e-11))
2.240256      	((1.393422e-10 -5.546739e-06 -5.695221e-06) (3.002714e-10 -1.093119e-05 -2.739815e-07)) ((2.553642e-11 7.225096e-12 1.229319e-12) (-4.044298e-07 6.509283e-12 1.823071e-11))
2.700307      	((-1.189578e-10 -5.096855e-06 -5.705686e-06) (1.672676e-10 -9.956842e-06 -2.962108e-07)) ((2.394337e-11 6.943646e-12 1.283485e-12) (-3.683691e-07 6.462512e-12 1.890601e-11))
3.252369      	((-5.375750e-11 -4.681956e-06 -5.718177e-06) (1.080807e-10 -9.084827e-06 -3.202501e-07)) ((2.245423e-11 6.516167e-12 1.280579e-12) (-3.360903e-07 6.260348e-12 1.921338e-11))
3.914842      	((-1.013232e-11 -4.301314e-06 -5.731613e-06) (1.320233e-10 -8.302711e-06 -3.461487e-07)) ((2.101969e-11 6.118424e-12 1.182631e-12) (-3.071334e-07 6.166313e-12 2.283672e-11))
4.709811      	((-5.258546e-11 -3.956546e-06 -5.740602e-06) (1.787603e-10 -7.601468e-06 -3.736645e-07)) ((1.999920e-11 5.748934e-12 1.022256e-12) (-2.811626e-07 6.063554e-12 2.283983e-11))
5.663773      	((-2.198477e-10 -3.649324e-06 -5.745918e-06) (1.463728e-10 -6.974112e-06 -4.026553e-07)) ((1.948195e-11 5.416666e-12 9.093377e-13) (-2.579203e-07 6.268567e-12 1.775030e-11))
6.808528      	((-2.486601e-10 -3.378330e-06 -5.742312e-06) (7.189614e-11 -6.414085e-06 -4.331229e-07)) ((1.934521e-11 5.106125e-12 8.427216e-13) (-2.371663e-07 6.669841e-12 1.410346e-11))
8.182233      	((-8.107059e-10 -3.141976e-06 -5.731018e-06) (3.652565e-11 -5.914601e-06 -4.651980e-07)) ((1.943595e-11 4.785689e-12 8.077248e-13) (-2.186515e-07 7.615023e-12 1.120972e-11))
9.83068       	((-1.112193e-09 -2.940727e-06 -5.707658e-06) (6.431708e-12 -5.468904e-06 -4.988944e-07)) ((1.982599e-11 4.481237e-12 8.094198e-13) (-2.021276e-07 9.952394e-12 6.807047e-12))
11.808816     	((-8.790221e-10 -2.773802e-06 -5.677783e-06) (-3.758493e-11 -5.070644e-06 -5.340974e-07)) ((2.049968e-11 4.205545e-12 8.515738e-13) (-1.873585e-07 1.241652e-11 1.255023e-12))
14.182579     	((-5.348308e-10 -2.638801e-06 -5.638796e-06) (-6.125541e-11 -4.714461e-06 -5.706534e-07)) ((2.148407e-11 3.942550e-12 9.216556e-13) (-1.741438e-07 1.444821e-11 -4.827719e-12))
17.031095     	((-5.758455e-10 -2.535340e-06 -5.591678e-06) (-7.254131e-11 -4.396315e-06 -6.082980e-07)) ((2.280861e-11 3.717254e-12 1.012167e-12) (-1.623351e-07 1.626236e-11 -1.030109e-11))
20.449314     	((-7.128622e-10 -2.463156e-06 -5.536969e-06) (-8.565205e-11 -4.113291e-06 -6.465749e-07)) ((2.447685e-11 3.499628e-12 1.131502e-12) (-1.518286e-07 1.720547e-11 -1.461606e-11))
24.551176     	((-8.821464e-10 -2.421660e-06 -5.472572e-06) (-1.132663e-10 -3.863185e-06 -6.847476e-07)) ((2.649926e-11 3.273569e-12 1.284995e-12) (-1.425489e-07 1.826733e-11 -1.917152e-11))
29.473411     	((-1.061385e-09 -2.408505e-06 -5.400921e-06) (-1.725544e-10 -3.644216e-06 -7.219295e-07)) ((2.891832e-11 3.059374e-12 1.465443e-12) (-1.344356e-07 1.937489e-11 -2.434157e-11))
35.380094     	((-9.452763e-10 -2.421078e-06 -5.320103e-06) (-2.103920e-10 -3.454761e-06 -7.572591e-07)) ((3.170121e-11 2.841713e-12 1.672991e-12) (-1.274444e-07 1.907752e-11 -2.943910e-11))
42.468112     	((-7.811226e-10 -2.458829e-06 -5.231523e-06) (-2.287779e-10 -3.293180e-06 -7.902118e-07)) ((3.490383e-11 2.625292e-12 1.922606e-12) (-1.215337e-07 1.734170e-11 -3.427491e-11))
50.973735     	((-3.981529e-10 -2.515911e-06 -5.134277e-06) (-2.179005e-10 -3.158287e-06 -8.206136e-07)) ((3.842742e-11 2.460272e-12 2.204040e-12) (-1.166654e-07 1.342481e-11 -3.867165e-11))
61.180482     	((-1.060254e-10 -2.585895e-06 -5.029271e-06) (-1.742561e-10 -3.048120e-06 -8.483257e-07)) ((4.202176e-11 2.364346e-12 2.485240e-12) (-1.127701e-07 8.060634e-12 -4.077551e-11))
73.257993     	((1.977314e-10 -2.662073e-06 -4.913446e-06) (-1.188044e-10 -2.961078e-06 -8.723170e-07)) ((4.525990e-11 2.345140e-12 2.793969e-12) (-1.097587e-07 2.638253e-12 -4.200565e-11))
87.192174     	((5.299969e-10 -2.734363e-06 -4.787744e-06) (-3.328496e-11 -2.893906e-06 -8.912234e-07)) ((4.792563e-11 2.425646e-12 3.006932e-12) (-1.074616e-07 -2.849231e-12 -4.256851e-11))
102.969647    	((8.341185e-10 -2.793654e-06 -4.649664e-06) (8.276822e-11 -2.841344e-06 -9.040412e-07)) ((4.988017e-11 2.536480e-12 3.176559e-12) (-1.056633e-07 -7.926236e-12 -4.182159e-11))
120.584351    	((1.221953e-09 -2.834990e-06 -4.501688e-06) (2.269303e-10 -2.798545e-06 -9.113681e-07)) ((5.136241e-11 2.654531e-12 3.303138e-12) (-1.041836e-07 -1.299977e-11 -3.982060e-11))
138.982773    	((1.510762e-09 -2.862777e-06 -4.357665e-06) (3.746764e-10 -2.763091e-06 -9.145836e-07)) ((5.254586e-11 2.764617e-12 3.415693e-12) (-1.029663e-07 -1.766881e-11 -3.811109e-11))
157.44071     	((1.703584e-09 -2.878978e-06 -4.225367e-06) (5.010869e-10 -2.733068e-06 -9.157485e-07)) ((5.341126e-11 2.908141e-12 3.515322e-12) (-1.019527e-07 -2.183993e-11 -3.716794e-11))
175.939612    	((1.812240e-09 -2.886842e-06 -4.106902e-06) (5.977640e-10 -2.707165e-06 -9.160658e-07)) ((5.402340e-11 3.085379e-12 3.598954e-12) (-1.010936e-07 -2.515599e-11 -3.657461e-11))
194.454962    	((1.886553e-09 -2.890721e-06 -4.002017e-06) (6.821501e-10 -2.684802e-06 -9.161073e-07)) ((5.443852e-11 3.267085e-12 3.665081e-12) (-1.003611e-07 -2.799777e-11 -3.596114e-11))
212.978565    	((1.861580e-09 -2.891500e-06 -3.908680e-06) (7.534367e-10 -2.665453e-06 -9.161053e-07)) ((5.471169e-11 3.439698e-12 3.713895e-12) (-9.973135e-08 -3.002320e-11 -3.527974e-11))
231.512196    	((1.803942e-09 -2.890556e-06 -3.825171e-06) (7.902779e-10 -2.648657e-06 -9.161138e-07)) ((5.489588e-11 3.600257e-12 3.757031e-12) (-9.918710e-08 -3.114145e-11 -3.480218e-11))
250.056737    	((1.609823e-09 -2.888401e-06 -3.749195e-06) (8.088725e-10 -2.634013e-06 -9.161948e-07)) ((5.501708e-11 3.751037e-12 3.793723e-12) (-9.871370e-08 -3.127013e-11 -3.429429e-11))
268.610916    	((1.372517e-09 -2.885847e-06 -3.680052e-06) (8.134903e-10 -2.621223e-06 -9.163652e-07)) ((5.509384e-11 3.893546e-12 3.824050e-12) (-9.830058e-08 -3.043330e-11 -3.370593e-11))
287.173407    	((1.095924e-09 -2.883121e-06 -3.617255e-06) (8.011286e-10 -2.610036e-06 -9.166179e-07)) ((5.513989e-11 4.026929e-12 3.848249e-12) (-9.793896e-08 -2.882914e-11 -3.319534e-11))
305.743358    	((8.493449e-10 -2.880285e-06 -3.560187e-06) (7.769049e-10 -2.600210e-06 -9.169407e-07)) ((5.516584e-11 4.152187e-12 3.867839e-12) (-9.762052e-08 -2.682690e-11 -3.259932e-11))
324.320002    	((6.097690e-10 -2.877715e-06 -3.508652e-06) (7.483553e-10 -2.591578e-06 -9.172790e-07)) ((5.518770e-11 4.269064e-12 3.885291e-12) (-9.734101e-08 -2.473631e-11 -3.199224e-11))
342.902598    	((3.704052e-10 -2.875136e-06 -3.462064e-06) (7.155089e-10 -2.583982e-06 -9.176218e-07)) ((5.519819e-11 4.377066e-12 3.900145e-12) (-9.709509e-08 -2.269638e-11 -3.138463e-11))
361.490503    	((1.216428e-10 -2.872551e-06 -3.419654e-06) (6.758439e-10 -2.577278e-06 -9.179629e-07)) ((5.520320e-11 4.477179e-12 3.913273e-12) (-9.687812e-08 -2.049442e-11 -3.074453e-11))
380.083169    	((-7.859645e-11 -2.870000e-06 -3.380999e-06) (6.347878e-10 -2.571339e-06 -9.182942e-07)) ((5.520247e-11 4.571049e-12 3.924925e-12) (-9.668599e-08 -1.834132e-11 -3.015455e-11))
398.680109    	((-2.728749e-10 -2.867588e-06 -3.345853e-06) (5.923283e-10 -2.566066e-06 -9.186073e-07)) ((5.520056e-11 4.656496e-12 3.934931e-12) (-9.651558e-08 -1.622649e-11 -2.959036e-11))
417.280882    	((-4.526204e-10 -2.865364e-06 -3.313966e-06) (5.497191e-10 -2.561380e-06 -9.188951e-07)) ((5.519887e-11 4.734263e-12 3.943809e-12) (-9.636442e-08 -1.422150e-11 -2.903243e-11))
435.885088    	((-6.210834e-10 -2.863258e-06 -3.284915e-06) (5.081989e-10 -2.557204e-06 -9.191611e-07)) ((5.519525e-11 4.805658e-12 3.951316e-12) (-9.622992e-08 -1.234675e-11 -2.845890e-11))
454.492373    	((-7.537255e-10 -2.861284e-06 -3.258598e-06) (4.687718e-10 -2.553473e-06 -9.194088e-07)) ((5.518987e-11 4.870892e-12 3.957925e-12) (-9.610987e-08 -1.065457e-11 -2.800350e-11))
473.102426    	((-8.581701e-10 -2.859472e-06 -3.234621e-06) (4.336032e-10 -2.550138e-06 -9.196412e-07)) ((5.518382e-11 4.931416e-12 3.963544e-12) (-9.600250e-08 -9.201302e-12 -2.762576e-11))
491.714971    	((-9.555101e-10 -2.857790e-06 -3.212792e-06) (4.024879e-10 -2.547152e-06 -9.198548e-07)) ((5.517840e-11 4.986659e-12 3.968670e-12) (-9.590634e-08 -7.906168e-12 -2.731004e-11))
510.329761    	((-1.042400e-09 -2.856251e-06 -3.192995e-06) (3.739682e-10 -2.544477e-06 -9.200464e-07)) ((5.517372e-11 5.036810e-12 3.973314e-12) (-9.582022e-08 -6.717142e-12 -2.706856e-11))
528.946574    	((-1.126629e-09 -2.854846e-06 -3.174990e-06) (3.475687e-10 -2.542079e-06 -9.202150e-07)) ((5.517002e-11 5.082416e-12 3.977415e-12) (-9.574314e-08 -5.641101e-12 -2.691278e-11))
547.565213    	((-1.201930e-09 -2.853568e-06 -3.158599e-06) (3.238346e-10 -2.539928e-06 -9.203618e-07)) ((5.516689e-11 5.124197e-12 3.981048e-12) (-9.567414e-08 -4.659776e-12 -2.684432e-11))
566.185501    	((-1.274619e-09 -2.852375e-06 -3.143671e-06) (3.024475e-10 -2.537995e-06 -9.204881e-07)) ((5.516429e-11 5.161912e-12 3.984241e-12) (-9.561229e-08 -3.722929e-12 -2.677053e-11))
584.807277    	((-1.325073e-09 -2.851282e-06 -3.130073e-06) (2.837568e-10 -2.536255e-06 -9.205968e-07)) ((5.516229e-11 5.196530e-12 3.987019e-12) (-9.555679e-08 -2.916435e-12 -2.669489e-11))
603.430397    	((-1.372513e-09 -2.850295e-06 -3.117715e-06) (2.676662e-10 -2.534691e-06 -9.206882e-07)) ((5.516127e-11 5.227909e-12 3.989493e-12) (-9.550703e-08 -2.238989e-12 -2.661266e-11))
622.054733    	((-1.421200e-09 -2.849398e-06 -3.106477e-06) (2.531280e-10 -2.533282e-06 -9.207637e-07)) ((5.516068e-11 5.256381e-12 3.991715e-12) (-9.546243e-08 -1.633469e-12 -2.653518e-11))
640.680167    	((-1.463004e-09 -2.848554e-06 -3.096225e-06) (2.402105e-10 -2.532011e-06 -9.208269e-07)) ((5.516012e-11 5.282584e-12 3.993707e-12) (-9.542233e-08 -1.089166e-12 -2.646933e-11))
659.306595    	((-1.500501e-09 -2.847791e-06 -3.086906e-06) (2.288054e-10 -2.530864e-06 -9.208788e-07)) ((5.516013e-11 5.306509e-12 3.995533e-12) (-9.538627e-08 -6.003771e-13 -2.641305e-11))
677.933923    	((-1.535150e-09 -2.847096e-06 -3.078430e-06) (2.183975e-10 -2.529829e-06 -9.209204e-07)) ((5.516059e-11 5.328246e-12 3.997149e-12) (-9.535386e-08 -1.600469e-13 -2.636376e-11))
696.562065    	((-1.567630e-09 -2.846461e-06 -3.070713e-06) (2.089215e-10 -2.528895e-06 -9.209535e-07)) ((5.516137e-11 5.348015e-12 3.998581e-12) (-9.532469e-08 2.461033e-13 -2.631802e-11))
715.190947    	((-1.597797e-09 -2.845881e-06 -3.063689e-06) (2.003320e-10 -2.528049e-06 -9.209799e-07)) ((5.516230e-11 5.366026e-12 3.999847e-12) (-9.529841e-08 6.137994e-13 -2.626876e-11))
733.820498    	((-1.626615e-09 -2.845344e-06 -3.057282e-06) (1.923292e-10 -2.527285e-06 -9.210002e-07)) ((5.516341e-11 5.382420e-12 4.000976e-12) (-9.527471e-08 9.530378e-13 -2.622213e-11))
752.450657    	((-1.653172e-09 -2.844864e-06 -3.051462e-06) (1.849554e-10 -2.526593e-06 -9.210150e-07)) ((5.516482e-11 5.397318e-12 4.001980e-12) (-9.525334e-08 1.267747e-12 -2.617477e-11))
771.081368    	((-1.680405e-09 -2.844423e-06 -3.046164e-06) (1.779633e-10 -2.525968e-06 -9.210253e-07)) ((5.516628e-11 5.410700e-12 4.002912e-12) (-9.523408e-08 1.568742e-12 -2.612546e-11))
789.71258     	((-1.706080e-09 -2.844017e-06 -3.041327e-06) (1.713391e-10 -2.525401e-06 -9.210322e-07)) ((5.516763e-11 5.422878e-12 4.003752e-12) (-9.521666e-08 1.858728e-12 -2.607583e-11))
808.344246    	((-1.731046e-09 -2.843653e-06 -3.036936e-06) (1.649176e-10 -2.524887e-06 -9.210359e-07)) ((5.516910e-11 5.433935e-12 4.004503e-12) (-9.520093e-08 2.136133e-12 -2.602634e-11))
826.976326    	((-1.750841e-09 -2.843316e-06 -3.032936e-06) (1.591476e-10 -2.524422e-06 -9.210370e-07)) ((5.517053e-11 5.444007e-12 4.005179e-12) (-9.518672e-08 2.386935e-12 -2.597605e-11))
845.60878     	((-1.772274e-09 -2.843010e-06 -3.029293e-06) (1.537861e-10 -2.524000e-06 -9.210360e-07)) ((5.517199e-11 5.453115e-12 4.005786e-12) (-9.517387e-08 2.619680e-12 -2.592558e-11))
864.241576    	((-1.792929e-09 -2.842734e-06 -3.025978e-06) (1.485620e-10 -2.523618e-06 -9.210334e-07)) ((5.517345e-11 5.461367e-12 4.006338e-12) (-9.516225e-08 2.845590e-12 -2.587858e-11))
882.874681    	((-1.813745e-09 -2.842478e-06 -3.022956e-06) (1.434887e-10 -2.523271e-06 -9.210295e-07)) ((5.517484e-11 5.468858e-12 4.006842e-12) (-9.515173e-08 3.066353e-12 -2.583224e-11))
901.508069    	((-1.832641e-09 -2.842244e-06 -3.020204e-06) (1.386963e-10 -2.522956e-06 -9.210246e-07)) ((5.517616e-11 5.475675e-12 4.007297e-12) (-9.514221e-08 3.278156e-12 -2.578503e-11))
920.141713    	((-1.851136e-09 -2.842032e-06 -3.017697e-06) (1.341020e-10 -2.522671e-06 -9.210188e-07)) ((5.517745e-11 5.481892e-12 4.007695e-12) (-9.513358e-08 3.481527e-12 -2.573752e-11))
938.775591    	((-1.868609e-09 -2.841838e-06 -3.015413e-06) (1.297089e-10 -2.522412e-06 -9.210124e-07)) ((5.517870e-11 5.487531e-12 4.008058e-12) (-9.512577e-08 3.676698e-12 -2.568939e-11))
957.409681    	((-1.884725e-09 -2.841662e-06 -3.013333e-06) (1.255636e-10 -2.522177e-06 -9.210057e-07)) ((5.517989e-11 5.492654e-12 4.008384e-12) (-9.511868e-08 3.861839e-12 -2.564235e-11))
976.043965    	((-1.900513e-09 -2.841500e-06 -3.011443e-06) (1.215889e-10 -2.521963e-06 -9.209987e-07)) ((5.518099e-11 5.497289e-12 4.008680e-12) (-9.511226e-08 4.040330e-12 -2.559610e-11))
994.678425    	((-1.914538e-09 -2.841353e-06 -3.009717e-06) (1.178559e-10 -2.521769e-06 -9.209916e-07)) ((5.518207e-11 5.501531e-12 4.008942e-12) (-9.510643e-08 4.208363e-12 -2.555108e-11))
1013.313046   	((-1.927973e-09 -2.841218e-06 -3.008135e-06) (1.143528e-10 -2.521592e-06 -9.209845e-07)) ((5.518306e-11 5.505420e-12 4.009195e-12) (-9.510114e-08 4.365855e-12 -2.550792e-11))
1031.947812   	((-1.940636e-09 -2.841097e-06 -3.006706e-06) (1.110382e-10 -2.521432e-06 -9.209773e-07)) ((5.518403e-11 5.508905e-12 4.009407e-12) (-9.509635e-08 4.515172e-12 -2.546690e-11))
1050.582711   	((-1.951684e-09 -2.840986e-06 -3.005405e-06) (1.079420e-10 -2.521286e-06 -9.209703e-07)) ((5.518492e-11 5.512073e-12 4.009612e-12) (-9.509200e-08 4.654459e-12 -2.542811e-11))
1069.217731   	((-1.962194e-09 -2.840885e-06 -3.004220e-06) (1.050646e-10 -2.521154e-06 -9.209634e-07)) ((5.518577e-11 5.514952e-12 4.009790e-12) (-9.508805e-08 4.784050e-12 -2.539226e-11))
1087.852861   	((-1.972109e-09 -2.840792e-06 -3.003138e-06) (1.023627e-10 -2.521034e-06 -9.209567e-07)) ((5.518656e-11 5.517576e-12 4.009961e-12) (-9.508446e-08 4.905955e-12 -2.535949e-11))
1106.488091   	((-1.981340e-09 -2.840708e-06 -3.002154e-06) (9.981991e-11 -2.520924e-06 -9.209501e-07)) ((5.518732e-11 5.519955e-12 4.010114e-12) (-9.508121e-08 5.020277e-12 -2.532965e-11))
1125.123413   	((-1.989369e-09 -2.840631e-06 -3.001257e-06) (9.747485e-11 -2.520825e-06 -9.209439e-07)) ((5.518803e-11 5.522128e-12 4.010257e-12) (-9.507826e-08 5.125851e-12 -2.530269e-11))
1143.758818   	((-1.996902e-09 -2.840560e-06 -3.000439e-06) (9.530287e-11 -2.520735e-06 -9.209378e-07)) ((5.518867e-11 5.524106e-12 4.010385e-12) (-9.507557e-08 5.223644e-12 -2.527850e-11))
