# Forces      
# CofR        : (0.000000e+00 0.000000e+00 0.000000e+00)
# Time        forces(pressure viscous)	moments(pressure viscous)
0             	((0.000000e+00 0.000000e+00 0.000000e+00) (-5.122992e-14 -1.002806e-04 9.075486e-15)) ((0.000000e+00 0.000000e+00 0.000000e+00) (-2.253201e-06 -2.762223e-16 4.879330e-11))
0.012         	((2.247390e-08 -2.916774e-02 6.567926e-03) (1.590527e-10 -1.150188e-04 -8.730721e-08)) ((3.438904e-07 2.243599e-08 5.491448e-09) (-3.321142e-06 4.027637e-13 9.852168e-11))
0.0264        	((-5.517311e-07 2.134183e-03 -4.551518e-04) (-1.462583e-10 -1.172272e-04 -1.364455e-07)) ((-2.530517e-08 -1.447927e-09 -3.497392e-10) (-3.715719e-06 2.589067e-11 1.259678e-10))
0.04368       	((3.596923e-07 6.041075e-03 -4.984227e-04) (-7.529630e-11 -1.040637e-04 -1.250642e-07)) ((-7.875115e-08 -1.664918e-09 -1.498279e-09) (-3.309732e-06 3.255740e-11 1.040978e-10))
0.064416      	((2.697109e-08 5.665777e-05 -2.597056e-04) (-1.212050e-09 -9.213056e-05 -6.190032e-08)) ((3.239357e-10 -7.968158e-10 9.603070e-11) (-2.973260e-06 1.872540e-11 1.278435e-10))
0.0892992     	((-2.780820e-08 -6.941395e-05 -1.632175e-04) (-2.750008e-09 -8.502878e-05 -5.229610e-08)) ((2.994784e-09 -4.696173e-10 8.938337e-11) (-2.811245e-06 1.048810e-11 1.189809e-10))
0.119159      	((-1.454473e-08 9.491751e-05 -1.077878e-04) (-2.857204e-09 -7.850405e-05 -1.007718e-07)) ((-1.706473e-09 -3.034912e-10 -4.222710e-11) (-2.631977e-06 1.640613e-11 7.632846e-11))
0.154991      	((2.060203e-09 4.902096e-05 -7.372038e-05) (-2.206760e-09 -7.163014e-05 -1.364827e-07)) ((-1.051145e-09 -1.749775e-10 -5.499643e-13) (-2.433591e-06 2.312675e-11 3.705128e-11))
0.197989      	((-4.321516e-09 1.159120e-05 -5.176901e-05) (-1.636121e-09 -6.475009e-05 -1.705251e-07)) ((-3.961401e-10 -9.830495e-11 1.077870e-11) (-2.232614e-06 1.411978e-11 -1.295484e-11))
0.249587      	((-1.462427e-08 -1.802504e-06 -3.802270e-05) (-1.737098e-09 -5.807358e-05 -2.112783e-07)) ((-1.577521e-10 -5.347436e-11 2.257070e-12) (-2.033301e-06 8.000817e-12 -4.682897e-11))
0.311504      	((-2.208354e-08 -7.776300e-06 -2.948952e-05) (-2.136955e-09 -5.179984e-05 -2.583666e-07)) ((-7.131544e-11 -2.658865e-11 1.981996e-12) (-1.839815e-06 3.623628e-12 -7.827040e-11))
0.385805      	((-1.082951e-08 -1.103659e-05 -2.407164e-05) (-2.036154e-09 -4.608951e-05 -3.085748e-07)) ((-3.556629e-11 -1.018210e-11 2.452951e-12) (-1.657019e-06 -1.315761e-12 -1.024080e-10))
0.474966      	((-4.306549e-09 -1.281098e-05 -2.059214e-05) (-1.343917e-09 -4.102380e-05 -3.580933e-07)) ((-7.893218e-12 6.606021e-14 1.672424e-12) (-1.489065e-06 -7.966570e-13 -1.139357e-10))
0.581959      	((-6.512118e-10 -1.354540e-05 -1.840573e-05) (-6.466998e-10 -3.656798e-05 -4.072241e-07)) ((1.331461e-11 6.907428e-12 1.163737e-12) (-1.336722e-06 5.656493e-12 -1.158206e-10))
0.710351      	((8.417402e-12 -1.353633e-05 -1.705713e-05) (-6.102887e-11 -3.266518e-05 -4.501607e-07)) ((2.775765e-11 1.138111e-11 1.435472e-12) (-1.199988e-06 1.362498e-11 -1.044414e-10))
0.864421      	((3.521361e-10 -1.305655e-05 -1.623967e-05) (4.001021e-10 -2.926336e-05 -4.855929e-07)) ((3.566753e-11 1.377032e-11 2.139329e-12) (-1.078638e-06 1.954600e-11 -7.912450e-11))
1.049306      	((8.594348e-12 -1.234342e-05 -1.575203e-05) (6.338275e-10 -2.630075e-05 -5.183981e-07)) ((3.878223e-11 1.492098e-11 2.103607e-12) (-9.713772e-07 2.194146e-11 -5.915269e-11))
1.271167      	((1.415331e-10 -1.151794e-05 -1.546661e-05) (6.411821e-10 -2.371398e-05 -5.545453e-07)) ((3.906007e-11 1.533574e-11 1.748973e-12) (-8.766012e-07 1.949555e-11 -4.650558e-11))
1.5374        	((-1.689925e-10 -1.064797e-05 -1.531729e-05) (6.216958e-10 -2.144054e-05 -5.969172e-07)) ((3.666549e-11 1.512938e-11 1.623559e-12) (-7.927672e-07 1.453039e-11 -3.267561e-11))
1.85688       	((-4.300734e-11 -9.796723e-06 -1.524119e-05) (6.419110e-10 -1.943053e-05 -6.454964e-07)) ((3.407017e-11 1.479125e-11 1.497471e-12) (-7.184784e-07 9.455697e-12 -1.609924e-11))
2.240256      	((-1.860054e-10 -9.003750e-06 -1.520127e-05) (5.934425e-10 -1.764697e-05 -6.991592e-07)) ((3.241588e-11 1.441038e-11 1.537209e-12) (-6.525188e-07 4.720069e-12 -2.640127e-12))
2.700307      	((-7.164910e-10 -8.280149e-06 -1.517492e-05) (4.673218e-10 -1.606116e-05 -7.569666e-07)) ((3.140156e-11 1.383031e-11 1.715276e-12) (-5.938510e-07 5.188746e-12 1.918655e-12))
3.252369      	((-9.480446e-10 -7.621218e-06 -1.515046e-05) (3.906589e-10 -1.464735e-05 -8.188094e-07)) ((3.102333e-11 1.313719e-11 1.786456e-12) (-5.415285e-07 8.009770e-12 2.133939e-12))
3.914842      	((-9.480425e-10 -7.031577e-06 -1.512211e-05) (3.742993e-10 -1.338380e-05 -8.847338e-07)) ((3.111349e-11 1.240857e-11 1.636904e-12) (-4.947596e-07 9.967654e-12 -3.641756e-12))
4.709811      	((-1.237807e-09 -6.514056e-06 -1.508567e-05) (3.552642e-10 -1.225605e-05 -9.544894e-07)) ((3.199373e-11 1.170742e-11 1.483243e-12) (-4.530074e-07 1.205121e-11 -1.630200e-11))
5.663773      	((-7.749296e-10 -6.073062e-06 -1.503667e-05) (3.225173e-10 -1.125364e-05 -1.027414e-06)) ((3.387527e-11 1.110520e-11 1.491397e-12) (-4.158809e-07 1.445552e-11 -2.928213e-11))
6.808528      	((-1.276530e-09 -5.704393e-06 -1.497165e-05) (2.806638e-10 -1.036574e-05 -1.103179e-06)) ((3.637535e-11 1.046990e-11 1.591086e-12) (-3.829781e-07 1.660450e-11 -4.008934e-11))
8.182233      	((-2.092778e-09 -5.408123e-06 -1.488261e-05) (1.972125e-10 -9.580352e-06 -1.181624e-06)) ((3.950873e-11 9.771945e-12 1.754271e-12) (-3.538580e-07 2.071122e-11 -4.442049e-11))
9.83068       	((-2.143882e-09 -5.185683e-06 -1.477203e-05) (8.721392e-11 -8.885825e-06 -1.262484e-06)) ((4.342107e-11 9.174498e-12 2.031154e-12) (-3.280981e-07 2.459139e-11 -4.597709e-11))
11.808816     	((-2.246398e-09 -5.037133e-06 -1.463988e-05) (-5.346706e-11 -8.272157e-06 -1.345216e-06)) ((4.817133e-11 8.668881e-12 2.345986e-12) (-3.053326e-07 2.817287e-11 -4.792906e-11))
14.182579     	((-2.122942e-09 -4.962345e-06 -1.448751e-05) (-1.886391e-10 -7.731369e-06 -1.428635e-06)) ((5.395513e-11 8.182007e-12 2.650858e-12) (-2.852636e-07 3.159613e-11 -5.262223e-11))
17.031095     	((-1.706511e-09 -4.959776e-06 -1.431076e-05) (-2.520641e-10 -7.257613e-06 -1.511025e-06)) ((6.065067e-11 7.551869e-12 3.092201e-12) (-2.676788e-07 3.285384e-11 -5.748928e-11))
20.449314     	((-1.473315e-09 -5.022729e-06 -1.411185e-05) (-2.498744e-10 -6.846167e-06 -1.590316e-06)) ((6.817662e-11 6.832579e-12 3.677440e-12) (-2.524319e-07 3.206634e-11 -6.346569e-11))
24.551176     	((-1.654299e-09 -5.146215e-06 -1.389388e-05) (-2.726970e-10 -6.493158e-06 -1.664679e-06)) ((7.665994e-11 6.052852e-12 4.349286e-12) (-2.394215e-07 3.131855e-11 -7.336965e-11))
29.473411     	((-1.340011e-09 -5.322103e-06 -1.365420e-05) (-3.073611e-10 -6.195996e-06 -1.733606e-06)) ((8.606077e-11 5.360433e-12 5.166743e-12) (-2.285520e-07 2.725219e-11 -8.560479e-11))
35.380094     	((-8.821624e-10 -5.537895e-06 -1.339544e-05) (-2.819413e-10 -5.950823e-06 -1.795992e-06)) ((9.603520e-11 4.786730e-12 5.960834e-12) (-2.197424e-07 2.072261e-11 -9.975674e-11))
42.450812     	((-7.011535e-10 -5.775417e-06 -1.311508e-05) (-2.095205e-10 -5.753761e-06 -1.851085e-06)) ((1.056326e-10 4.406864e-12 6.865695e-12) (-2.128273e-07 1.634759e-11 -1.091788e-10))
50.675856     	((-4.566104e-10 -6.015165e-06 -1.280744e-05) (-1.021329e-10 -5.601626e-06 -1.895562e-06)) ((1.140183e-10 4.276768e-12 7.678307e-12) (-2.075949e-07 1.352728e-11 -1.147346e-10))
60.046448     	((8.100070e-11 -6.226267e-06 -1.246735e-05) (3.243248e-11 -5.484046e-06 -1.926316e-06)) ((1.205246e-10 4.284375e-12 8.328101e-12) (-2.035756e-07 8.969399e-12 -1.189028e-10))
70.559177     	((7.712035e-10 -6.396762e-06 -1.208906e-05) (2.448333e-10 -5.389653e-06 -1.943043e-06)) ((1.254746e-10 4.368771e-12 8.835213e-12) (-2.003133e-07 3.143083e-12 -1.211779e-10))
81.98183      	((1.614625e-09 -6.522257e-06 -1.169656e-05) (4.685063e-10 -5.310868e-06 -1.948518e-06)) ((1.294114e-10 4.410756e-12 9.230946e-12) (-1.975817e-07 -4.165743e-12 -1.197324e-10))
93.443581     	((2.352476e-09 -6.613019e-06 -1.132882e-05) (6.885437e-10 -5.244940e-06 -1.947444e-06)) ((1.325514e-10 4.495970e-12 9.600395e-12) (-1.953354e-07 -1.294395e-11 -1.162957e-10))
104.942507    	((2.490555e-09 -6.657412e-06 -1.098313e-05) (8.737844e-10 -5.187671e-06 -1.944130e-06)) ((1.348041e-10 4.774351e-12 9.924686e-12) (-1.934270e-07 -2.087718e-11 -1.153846e-10))
116.457969    	((2.214077e-09 -6.673127e-06 -1.066606e-05) (1.020253e-09 -5.137557e-06 -1.940311e-06)) ((1.363649e-10 5.161254e-12 1.016800e-11) (-1.917916e-07 -2.634676e-11 -1.148505e-10))
127.978654    	((1.590439e-09 -6.669401e-06 -1.037672e-05) (1.126718e-09 -5.093173e-06 -1.936685e-06)) ((1.372384e-10 5.585349e-12 1.034547e-11) (-1.903635e-07 -2.908325e-11 -1.138601e-10))
139.505135    	((1.142800e-09 -6.656582e-06 -1.011186e-05) (1.177667e-09 -5.053481e-06 -1.933654e-06)) ((1.376447e-10 6.030156e-12 1.047794e-11) (-1.890907e-07 -3.008439e-11 -1.132378e-10))
151.03973     	((5.045024e-10 -6.640911e-06 -9.868795e-06) (1.186249e-09 -5.017882e-06 -1.931388e-06)) ((1.377984e-10 6.450399e-12 1.058643e-11) (-1.879454e-07 -2.943026e-11 -1.116658e-10))
162.581256    	((-8.539761e-11 -6.624784e-06 -9.643190e-06) (1.152171e-09 -4.986075e-06 -1.929779e-06)) ((1.378379e-10 6.844706e-12 1.067458e-11) (-1.869175e-07 -2.738803e-11 -1.097619e-10))
174.128017    	((-6.561328e-10 -6.608554e-06 -9.432804e-06) (1.086719e-09 -4.957637e-06 -1.928595e-06)) ((1.378009e-10 7.230696e-12 1.074805e-11) (-1.859965e-07 -2.454477e-11 -1.075672e-10))
185.679597    	((-1.114505e-09 -6.593535e-06 -9.237964e-06) (1.016576e-09 -4.932216e-06 -1.927803e-06)) ((1.377270e-10 7.605699e-12 1.081024e-11) (-1.851701e-07 -2.122266e-11 -1.064645e-10))
197.2356      	((-1.578836e-09 -6.578445e-06 -9.058972e-06) (9.346846e-10 -4.909415e-06 -1.927390e-06)) ((1.376142e-10 7.966114e-12 1.085908e-11) (-1.844252e-07 -1.755821e-11 -1.054968e-10))
208.79559     	((-1.859635e-09 -6.565173e-06 -8.894107e-06) (8.668403e-10 -4.889023e-06 -1.927222e-06)) ((1.375147e-10 8.311811e-12 1.090155e-11) (-1.837575e-07 -1.459518e-11 -1.037733e-10))
220.359204    	((-2.195131e-09 -6.551652e-06 -8.743191e-06) (8.057640e-10 -4.870710e-06 -1.927287e-06)) ((1.373853e-10 8.639437e-12 1.093525e-11) (-1.831560e-07 -1.182993e-11 -1.021134e-10))
231.926137    	((-2.510345e-09 -6.539000e-06 -8.602145e-06) (7.493843e-10 -4.854221e-06 -1.927459e-06)) ((1.372856e-10 8.955911e-12 1.096322e-11) (-1.826150e-07 -8.864240e-12 -1.005752e-10))
243.496094    	((-2.827342e-09 -6.527773e-06 -8.472571e-06) (6.914943e-10 -4.839425e-06 -1.927599e-06)) ((1.372150e-10 9.242997e-12 1.098895e-11) (-1.821335e-07 -5.685616e-12 -9.901376e-11))
255.0688      	((-3.079867e-09 -6.517278e-06 -8.352672e-06) (6.308345e-10 -4.826144e-06 -1.927682e-06)) ((1.371466e-10 9.512209e-12 1.101093e-11) (-1.817052e-07 -2.332711e-12 -9.732999e-11))
266.644006    	((-3.390287e-09 -6.506719e-06 -8.241478e-06) (5.685777e-10 -4.814154e-06 -1.927754e-06)) ((1.370699e-10 9.764796e-12 1.103078e-11) (-1.813203e-07 1.295719e-12 -9.565843e-11))
278.221492    	((-3.660133e-09 -6.496933e-06 -8.138058e-06) (5.092158e-10 -4.803294e-06 -1.927834e-06)) ((1.370007e-10 1.000121e-11 1.105039e-11) (-1.809727e-07 4.937168e-12 -9.398412e-11))
289.801059    	((-3.934778e-09 -6.487540e-06 -8.041865e-06) (4.543874e-10 -4.793427e-06 -1.927924e-06)) ((1.369334e-10 1.022124e-11 1.106908e-11) (-1.806573e-07 8.354257e-12 -9.246697e-11))
301.382532    	((-4.192499e-09 -6.478899e-06 -7.952350e-06) (3.973370e-10 -4.784450e-06 -1.927995e-06)) ((1.368813e-10 1.042613e-11 1.108750e-11) (-1.803712e-07 1.163194e-11 -9.096749e-11))
312.965753    	((-4.424161e-09 -6.471099e-06 -7.869536e-06) (3.450042e-10 -4.776293e-06 -1.928009e-06)) ((1.368414e-10 1.061802e-11 1.110428e-11) (-1.801130e-07 1.467340e-11 -8.932293e-11))
324.550581    	((-4.623970e-09 -6.463806e-06 -7.792415e-06) (3.001425e-10 -4.768869e-06 -1.927971e-06)) ((1.368042e-10 1.079881e-11 1.111943e-11) (-1.798798e-07 1.737762e-11 -8.778986e-11))
336.136883    	((-4.837742e-09 -6.457117e-06 -7.720809e-06) (2.603034e-10 -4.762109e-06 -1.927895e-06)) ((1.367704e-10 1.096843e-11 1.113303e-11) (-1.796689e-07 1.985448e-11 -8.630534e-11))
347.724543    	((-5.068352e-09 -6.450786e-06 -7.654314e-06) (2.216108e-10 -4.755938e-06 -1.927795e-06)) ((1.367363e-10 1.112675e-11 1.114432e-11) (-1.794775e-07 2.231352e-11 -8.476961e-11))
359.313454    	((-5.263217e-09 -6.444960e-06 -7.592294e-06) (1.856724e-10 -4.750303e-06 -1.927682e-06)) ((1.367059e-10 1.127665e-11 1.115420e-11) (-1.793035e-07 2.460987e-11 -8.323324e-11))
370.903519    	((-5.476945e-09 -6.439525e-06 -7.534578e-06) (1.516849e-10 -4.745146e-06 -1.927562e-06)) ((1.366780e-10 1.141568e-11 1.116350e-11) (-1.791451e-07 2.684048e-11 -8.165216e-11))
382.494649    	((-5.693293e-09 -6.434483e-06 -7.480939e-06) (1.186983e-10 -4.740423e-06 -1.927438e-06)) ((1.366522e-10 1.154594e-11 1.117194e-11) (-1.790005e-07 2.904440e-11 -7.994382e-11))
394.086764    	((-5.907869e-09 -6.429754e-06 -7.430932e-06) (8.772155e-11 -4.736087e-06 -1.927312e-06)) ((1.366280e-10 1.166897e-11 1.117930e-11) (-1.788684e-07 3.115100e-11 -7.821291e-11))
405.67979     	((-6.157237e-09 -6.425300e-06 -7.384362e-06) (5.571097e-11 -4.732101e-06 -1.927191e-06)) ((1.366048e-10 1.178436e-11 1.118580e-11) (-1.787474e-07 3.324248e-11 -7.652807e-11))
417.273662    	((-6.435676e-09 -6.421100e-06 -7.340857e-06) (2.087354e-11 -4.728429e-06 -1.927071e-06)) ((1.365853e-10 1.189212e-11 1.119221e-11) (-1.786363e-07 3.540260e-11 -7.488537e-11))
428.868319    	((-6.721516e-09 -6.417104e-06 -7.300163e-06) (-1.527411e-11 -4.725035e-06 -1.926948e-06)) ((1.365692e-10 1.199239e-11 1.119858e-11) (-1.785342e-07 3.760540e-11 -7.335670e-11))
440.463704    	((-7.045247e-09 -6.413419e-06 -7.262189e-06) (-5.397374e-11 -4.721899e-06 -1.926814e-06)) ((1.365597e-10 1.208522e-11 1.120467e-11) (-1.784406e-07 3.992318e-11 -7.182688e-11))
452.059768    	((-7.369543e-09 -6.409963e-06 -7.226653e-06) (-9.505458e-11 -4.719000e-06 -1.926661e-06)) ((1.365558e-10 1.217157e-11 1.121018e-11) (-1.783551e-07 4.230854e-11 -7.028638e-11))
463.656466    	((-7.686690e-09 -6.406666e-06 -7.193327e-06) (-1.375056e-10 -4.716314e-06 -1.926490e-06)) ((1.365556e-10 1.225260e-11 1.121549e-11) (-1.782767e-07 4.469137e-11 -6.876462e-11))
475.253756    	((-8.042949e-09 -6.403643e-06 -7.162148e-06) (-1.841354e-10 -4.713828e-06 -1.926298e-06)) ((1.365602e-10 1.232739e-11 1.122029e-11) (-1.782052e-07 4.718917e-11 -6.725014e-11))
486.851599    	((-8.352481e-09 -6.400824e-06 -7.132969e-06) (-2.306834e-10 -4.711526e-06 -1.926087e-06)) ((1.365674e-10 1.239815e-11 1.122453e-11) (-1.781399e-07 4.959851e-11 -6.574477e-11))
498.44996     	((-8.701013e-09 -6.398201e-06 -7.105726e-06) (-2.801798e-10 -4.709394e-06 -1.925863e-06)) ((1.365763e-10 1.246291e-11 1.122839e-11) (-1.780802e-07 5.209346e-11 -6.426612e-11))
510.048806    	((-9.012933e-09 -6.395782e-06 -7.080291e-06) (-3.309634e-10 -4.707421e-06 -1.925631e-06)) ((1.365868e-10 1.252391e-11 1.123202e-11) (-1.780256e-07 5.457615e-11 -6.286247e-11))
521.648107    	((-9.345832e-09 -6.393477e-06 -7.056477e-06) (-3.839650e-10 -4.705590e-06 -1.925398e-06)) ((1.365973e-10 1.258019e-11 1.123550e-11) (-1.779753e-07 5.711097e-11 -6.155009e-11))
533.247831    	((-9.659695e-09 -6.391340e-06 -7.034191e-06) (-4.380437e-10 -4.703891e-06 -1.925165e-06)) ((1.366092e-10 1.263302e-11 1.123879e-11) (-1.779290e-07 5.968233e-11 -6.036269e-11))
544.847951    	((-9.976596e-09 -6.389319e-06 -7.013320e-06) (-4.936201e-10 -4.702311e-06 -1.924933e-06)) ((1.366213e-10 1.268203e-11 1.124188e-11) (-1.778862e-07 6.226309e-11 -5.929567e-11))
556.448442    	((-1.029339e-08 -6.387454e-06 -6.993787e-06) (-5.511516e-10 -4.700844e-06 -1.924703e-06)) ((1.366342e-10 1.272742e-11 1.124479e-11) (-1.778467e-07 6.490116e-11 -5.832341e-11))
568.04928     	((-1.060065e-08 -6.385734e-06 -6.975535e-06) (-6.092141e-10 -4.699482e-06 -1.924476e-06)) ((1.366475e-10 1.276965e-11 1.124756e-11) (-1.778104e-07 6.754708e-11 -5.741864e-11))
579.650443    	((-1.090966e-08 -6.384148e-06 -6.958462e-06) (-6.680484e-10 -4.698220e-06 -1.924252e-06)) ((1.366613e-10 1.280885e-11 1.125031e-11) (-1.777769e-07 7.018448e-11 -5.656776e-11))
591.25191     	((-1.120064e-08 -6.382667e-06 -6.942487e-06) (-7.263399e-10 -4.697048e-06 -1.924033e-06)) ((1.366747e-10 1.284534e-11 1.125284e-11) (-1.777460e-07 7.278724e-11 -5.576954e-11))
602.853661    	((-1.148329e-08 -6.381272e-06 -6.927528e-06) (-7.835598e-10 -4.695962e-06 -1.923819e-06)) ((1.366872e-10 1.287936e-11 1.125530e-11) (-1.777176e-07 7.532467e-11 -5.500814e-11))
614.455678    	((-1.175201e-08 -6.379949e-06 -6.913540e-06) (-8.392091e-10 -4.694952e-06 -1.923612e-06)) ((1.366984e-10 1.291093e-11 1.125757e-11) (-1.776912e-07 7.779459e-11 -5.427325e-11))
626.057944    	((-1.202910e-08 -6.378690e-06 -6.900440e-06) (-8.941388e-10 -4.694012e-06 -1.923416e-06)) ((1.367084e-10 1.294021e-11 1.125963e-11) (-1.776666e-07 8.023577e-11 -5.356089e-11))
637.660444    	((-1.231132e-08 -6.377500e-06 -6.888168e-06) (-9.492169e-10 -4.693135e-06 -1.923231e-06)) ((1.367177e-10 1.296725e-11 1.126159e-11) (-1.776436e-07 8.268319e-11 -5.286905e-11))
649.263161    	((-1.259317e-08 -6.376385e-06 -6.876683e-06) (-1.004320e-09 -4.692318e-06 -1.923055e-06)) ((1.367267e-10 1.299236e-11 1.126340e-11) (-1.776223e-07 8.513258e-11 -5.219543e-11))
660.866083    	((-1.287113e-08 -6.375349e-06 -6.865944e-06) (-1.059170e-09 -4.691556e-06 -1.922886e-06)) ((1.367356e-10 1.301538e-11 1.126508e-11) (-1.776024e-07 8.757840e-11 -5.153860e-11))
672.469197    	((-1.315039e-08 -6.374387e-06 -6.855879e-06) (-1.113731e-09 -4.690847e-06 -1.922724e-06)) ((1.367445e-10 1.303652e-11 1.126669e-11) (-1.775839e-07 9.003311e-11 -5.089351e-11))
684.072492    	((-1.342759e-08 -6.373477e-06 -6.846338e-06) (-1.167927e-09 -4.690187e-06 -1.922567e-06)) ((1.367531e-10 1.305646e-11 1.126823e-11) (-1.775668e-07 9.248818e-11 -5.025418e-11))
695.675957    	((-1.370791e-08 -6.372633e-06 -6.837550e-06) (-1.221860e-09 -4.689572e-06 -1.922417e-06)) ((1.367616e-10 1.307432e-11 1.126971e-11) (-1.775510e-07 9.494536e-11 -4.961053e-11))
707.279581    	((-1.399208e-08 -6.371837e-06 -6.829264e-06) (-1.275646e-09 -4.689000e-06 -1.922271e-06)) ((1.367695e-10 1.309094e-11 1.127110e-11) (-1.775363e-07 9.740712e-11 -4.896073e-11))
718.883356    	((-1.428143e-08 -6.371083e-06 -6.821540e-06) (-1.329575e-09 -4.688466e-06 -1.922133e-06)) ((1.367771e-10 1.310605e-11 1.127240e-11) (-1.775227e-07 9.988216e-11 -4.829839e-11))
