# Forces      
# CofR        : (0.000000e+00 0.000000e+00 0.000000e+00)
# Time        forces(pressure viscous)	moments(pressure viscous)
0             	((0.000000e+00 0.000000e+00 0.000000e+00) (-6.464007e-13 -1.273035e-03 1.147118e-13)) ((0.000000e+00 0.000000e+00 0.000000e+00) (-2.860379e-05 -3.498440e-15 6.151702e-10))
0.012         	((-3.036919e-07 -3.685743e-01 8.051424e-02) (1.429275e-09 -1.456173e-03 -1.116785e-05)) ((4.329377e-06 2.842847e-07 6.817059e-08) (-4.239850e-05 6.908605e-11 9.751842e-10))
0.0264        	((-2.071648e-06 4.512331e-02 -1.255559e-02) (3.962282e-09 -1.467114e-03 -1.724460e-05)) ((-5.016826e-07 -2.565199e-08 -3.694504e-09) (-4.709618e-05 1.957675e-10 4.897784e-10))
0.04368       	((4.777834e-07 6.641810e-02 -9.835681e-03) (6.133852e-09 -1.284530e-03 -1.714005e-05)) ((-8.954209e-07 -2.189144e-08 -2.092708e-08) (-4.179192e-05 4.133943e-10 -3.486135e-10))
0.064416      	((-5.853726e-07 3.559866e-04 -6.322489e-03) (-3.793040e-08 -1.131212e-03 -1.915306e-05)) ((1.266729e-09 -9.745742e-09 3.222320e-09) (-3.782306e-05 7.130972e-10 2.231091e-10))
0.0892992     	((1.378748e-06 3.024540e-04 -4.850893e-03) (-5.720353e-08 -1.040746e-03 -2.364589e-05)) ((8.351683e-09 -4.694908e-09 7.233760e-11) (-3.580425e-05 9.322579e-10 1.432457e-10))
0.119159      	((1.013774e-06 9.496972e-04 -3.998534e-03) (-7.071047e-08 -9.630749e-04 -2.804891e-05)) ((-2.730841e-08 -1.779932e-09 -2.097494e-10) (-3.364029e-05 8.003725e-10 -6.991910e-10))
0.154991      	((-1.637453e-06 1.668039e-04 -3.528320e-03) (-1.246928e-07 -8.868147e-04 -3.194935e-05)) ((-1.568176e-08 -5.664426e-10 3.989674e-11) (-3.142158e-05 7.513269e-10 -1.393174e-09))
0.197989      	((-9.746829e-07 -8.748652e-05 -3.199489e-03) (-1.736069e-07 -8.162754e-04 -3.552453e-05)) ((-1.172066e-08 2.747267e-10 3.130923e-11) (-2.929615e-05 8.217302e-10 -1.941902e-09))
0.249587      	((-5.247339e-07 -1.875406e-04 -2.998738e-03) (-1.877660e-07 -7.535944e-04 -3.917241e-05)) ((-9.932711e-09 9.540117e-10 8.399065e-11) (-2.730562e-05 7.988940e-10 -2.153564e-09))
0.311504      	((-3.944812e-07 -2.513292e-04 -2.872131e-03) (-1.819227e-07 -6.988612e-04 -4.304746e-05)) ((-8.413580e-09 1.220348e-09 6.792259e-11) (-2.547336e-05 7.069924e-10 -2.189207e-09))
0.385805      	((-5.035365e-07 -2.872454e-04 -2.790284e-03) (-1.724126e-07 -6.505621e-04 -4.730036e-05)) ((-7.013795e-09 1.390592e-09 9.329416e-11) (-2.378576e-05 6.028447e-10 -2.299772e-09))
0.474966      	((-2.627642e-07 -3.060350e-04 -2.735494e-03) (-1.477336e-07 -6.063149e-04 -5.213930e-05)) ((-5.651855e-09 1.462338e-09 1.396611e-10) (-2.219280e-05 6.389707e-10 -2.864164e-09))
0.581959      	((-1.104050e-07 -3.139518e-04 -2.697941e-03) (-1.124227e-07 -5.637041e-04 -5.773710e-05)) ((-4.328047e-09 1.465949e-09 1.631910e-10) (-2.063338e-05 7.195940e-10 -3.642632e-09))
0.710351      	((-8.713765e-08 -3.176932e-04 -2.669181e-03) (-8.926591e-08 -5.220708e-04 -6.402602e-05)) ((-3.020151e-09 1.421292e-09 2.156195e-10) (-1.909878e-05 7.550978e-10 -4.104875e-09))
0.864421      	((-7.906379e-08 -3.218753e-04 -2.646854e-03) (-8.255669e-08 -4.822407e-04 -7.097061e-05)) ((-1.688926e-09 1.367085e-09 2.565650e-10) (-1.762321e-05 6.632237e-10 -4.199927e-09))
1.049306      	((-3.753308e-08 -3.308861e-04 -2.625822e-03) (-7.757433e-08 -4.450776e-04 -7.857504e-05)) ((-3.636787e-10 1.255826e-09 3.343554e-10) (-1.623886e-05 4.191792e-10 -4.157476e-09))
1.271167      	((-2.976784e-08 -3.471395e-04 -2.605277e-03) (-6.428926e-08 -4.111126e-04 -8.667619e-05)) ((9.526404e-10 1.117971e-09 4.176205e-10) (-1.496609e-05 6.509302e-11 -4.132482e-09))
1.5374        	((-2.451416e-08 -3.719245e-04 -2.582091e-03) (-4.000093e-08 -3.806228e-04 -9.491039e-05)) ((2.392467e-09 9.783902e-10 5.068020e-10) (-1.382029e-05 -2.120381e-10 -4.237451e-09))
1.85688       	((2.101612e-08 -4.074775e-04 -2.555733e-03) (-9.074289e-09 -3.538349e-04 -1.028086e-04)) ((3.974251e-09 7.984279e-10 6.271318e-10) (-1.281553e-05 -2.365311e-10 -4.500912e-09))
2.239375      	((5.575967e-08 -4.553405e-04 -2.526551e-03) (1.577483e-08 -3.307980e-04 -1.099931e-04)) ((5.708336e-09 5.678846e-10 7.724428e-10) (-1.195665e-05 -2.220218e-10 -5.329491e-09))
2.684343      	((1.365996e-07 -5.160242e-04 -2.494723e-03) (2.467418e-08 -3.116903e-04 -1.162779e-04)) ((7.504534e-09 2.997700e-10 9.580595e-10) (-1.124701e-05 -4.226889e-10 -6.759946e-09))
3.19134       	((2.271312e-07 -5.880481e-04 -2.460529e-03) (2.094162e-08 -2.960261e-04 -1.218780e-04)) ((9.227130e-09 5.507936e-12 1.184739e-09) (-1.066186e-05 -8.403913e-10 -8.502625e-09))
3.759809      	((2.357071e-07 -6.705885e-04 -2.423444e-03) (9.201757e-09 -2.832077e-04 -1.269226e-04)) ((1.077386e-08 -3.157164e-10 1.441226e-09) (-1.017423e-05 -1.140717e-09 -1.002566e-08))
4.367378      	((5.092342e-07 -7.615098e-04 -2.383284e-03) (6.023406e-09 -2.730342e-04 -1.310057e-04)) ((1.197442e-08 -6.493880e-10 1.691548e-09) (-9.777872e-06 -1.334342e-09 -1.097186e-08))
4.966602      	((4.653968e-07 -8.504943e-04 -2.335934e-03) (1.473166e-08 -2.655263e-04 -1.336714e-04)) ((1.290976e-08 -9.204826e-10 1.877706e-09) (-9.474667e-06 -1.390979e-09 -1.124368e-08))
5.557092      	((5.921846e-07 -9.331320e-04 -2.282779e-03) (2.605498e-08 -2.598663e-04 -1.349182e-04)) ((1.378077e-08 -1.172990e-09 2.044901e-09) (-9.243034e-06 -1.318751e-09 -1.055443e-08))
6.140226      	((6.813546e-07 -1.004257e-03 -2.225526e-03) (3.347767e-08 -2.556242e-04 -1.349422e-04)) ((1.471676e-08 -1.426255e-09 2.249124e-09) (-9.072217e-06 -1.341320e-09 -9.725228e-09))
6.71912       	((7.941798e-07 -1.057741e-03 -2.164096e-03) (3.546424e-08 -2.522380e-04 -1.343168e-04)) ((1.569136e-08 -1.624038e-09 2.436163e-09) (-8.939464e-06 -1.507794e-09 -8.535725e-09))
7.296678      	((9.172815e-07 -1.094058e-03 -2.101271e-03) (5.208477e-08 -2.493064e-04 -1.333353e-04)) ((1.674489e-08 -1.758754e-09 2.622836e-09) (-8.832419e-06 -1.831119e-09 -7.276022e-09))
7.874195      	((1.647977e-06 -1.111844e-03 -2.036199e-03) (8.711713e-08 -2.464812e-04 -1.321993e-04)) ((1.783240e-08 -1.761422e-09 2.759036e-09) (-8.740118e-06 -2.286847e-09 -6.470005e-09))
8.451289      	((2.153864e-06 -1.109318e-03 -1.969262e-03) (1.272365e-07 -2.437636e-04 -1.309908e-04)) ((1.863799e-08 -1.640617e-09 2.865240e-09) (-8.660750e-06 -3.071559e-09 -5.884136e-09))
9.026973      	((2.216151e-06 -1.093735e-03 -1.909301e-03) (1.539589e-07 -2.411518e-04 -1.297259e-04)) ((1.919879e-08 -1.491837e-09 2.925405e-09) (-8.593627e-06 -3.715598e-09 -6.115364e-09))
9.600826      	((1.951021e-06 -1.074966e-03 -1.861181e-03) (1.565991e-07 -2.387605e-04 -1.284446e-04)) ((1.951490e-08 -1.373376e-09 2.914201e-09) (-8.541102e-06 -4.036193e-09 -6.565775e-09))
10.17315      	((1.655271e-06 -1.054580e-03 -1.818539e-03) (1.507530e-07 -2.366708e-04 -1.271629e-04)) ((1.964500e-08 -1.278877e-09 2.843584e-09) (-8.503488e-06 -4.285240e-09 -6.511660e-09))
10.744451     	((1.918557e-06 -1.037769e-03 -1.775211e-03) (1.411159e-07 -2.347968e-04 -1.259838e-04)) ((1.958012e-08 -1.193640e-09 2.773290e-09) (-8.471309e-06 -4.736372e-09 -6.698294e-09))
11.315054     	((2.247719e-06 -1.028348e-03 -1.728446e-03) (1.414560e-07 -2.331512e-04 -1.249188e-04)) ((1.949979e-08 -1.149994e-09 2.748284e-09) (-8.441851e-06 -5.129403e-09 -6.886101e-09))
11.885046     	((2.472342e-06 -1.025401e-03 -1.689377e-03) (1.565347e-07 -2.317268e-04 -1.239749e-04)) ((1.932806e-08 -1.154187e-09 2.746334e-09) (-8.414291e-06 -5.480609e-09 -6.513354e-09))
12.454453     	((2.931620e-06 -1.025137e-03 -1.656743e-03) (1.760581e-07 -2.304878e-04 -1.231901e-04)) ((1.921762e-08 -1.155290e-09 2.751054e-09) (-8.387116e-06 -5.927645e-09 -5.896928e-09))
13.023346     	((3.394093e-06 -1.022705e-03 -1.626893e-03) (1.883746e-07 -2.293522e-04 -1.225746e-04)) ((1.916680e-08 -1.129728e-09 2.743955e-09) (-8.358629e-06 -6.416864e-09 -5.552504e-09))
13.591838     	((4.006112e-06 -1.015247e-03 -1.595118e-03) (2.036172e-07 -2.282041e-04 -1.221126e-04)) ((1.908608e-08 -1.059920e-09 2.723749e-09) (-8.326580e-06 -7.246192e-09 -5.509478e-09))
14.160042     	((4.546101e-06 -1.005987e-03 -1.563345e-03) (2.232304e-07 -2.270030e-04 -1.217849e-04)) ((1.898304e-08 -9.690380e-10 2.703801e-09) (-8.290758e-06 -8.361882e-09 -5.806673e-09))
14.728054     	((5.224689e-06 -9.965811e-04 -1.532782e-03) (2.463737e-07 -2.257831e-04 -1.215550e-04)) ((1.890970e-08 -8.786616e-10 2.686239e-09) (-8.253105e-06 -9.624604e-09 -6.359881e-09))
15.295953     	((5.949209e-06 -9.875866e-04 -1.503153e-03) (2.719574e-07 -2.245713e-04 -1.213823e-04)) ((1.885442e-08 -7.946816e-10 2.670501e-09) (-8.215410e-06 -1.107577e-08 -7.063760e-09))
15.863759     	((6.809969e-06 -9.799334e-04 -1.473516e-03) (3.016038e-07 -2.233940e-04 -1.212318e-04)) ((1.883484e-08 -7.120234e-10 2.657376e-09) (-8.179137e-06 -1.279479e-08 -7.789609e-09))
16.43143      	((7.645358e-06 -9.739780e-04 -1.444913e-03) (3.346644e-07 -2.222735e-04 -1.210903e-04)) ((1.882724e-08 -6.322054e-10 2.646956e-09) (-8.145040e-06 -1.468951e-08 -8.653842e-09))
16.998828     	((8.682850e-06 -9.693686e-04 -1.417237e-03) (3.758961e-07 -2.212152e-04 -1.209496e-04)) ((1.884226e-08 -5.571407e-10 2.636083e-09) (-8.113328e-06 -1.687098e-08 -9.559327e-09))
17.566008     	((9.555825e-06 -9.653206e-04 -1.390156e-03) (4.239614e-07 -2.202098e-04 -1.208073e-04)) ((1.887312e-08 -4.872662e-10 2.628248e-09) (-8.083776e-06 -1.921680e-08 -1.034099e-08))
18.133041     	((1.051500e-05 -9.619943e-04 -1.364052e-03) (4.763760e-07 -2.192618e-04 -1.206584e-04)) ((1.891319e-08 -4.196354e-10 2.622012e-09) (-8.056646e-06 -2.167743e-08 -1.104636e-08))
18.699943     	((1.136090e-05 -9.588954e-04 -1.338431e-03) (5.306910e-07 -2.183773e-04 -1.204977e-04)) ((1.895911e-08 -3.554989e-10 2.619560e-09) (-8.031992e-06 -2.410983e-08 -1.172843e-08))
19.266733     	((1.230788e-05 -9.564679e-04 -1.313480e-03) (5.884315e-07 -2.175594e-04 -1.203233e-04)) ((1.901475e-08 -2.834439e-10 2.617047e-09) (-8.009896e-06 -2.658233e-08 -1.236144e-08))
19.833434     	((1.354121e-05 -9.532720e-04 -1.288842e-03) (6.539275e-07 -2.167908e-04 -1.201420e-04)) ((1.905098e-08 -2.023598e-10 2.615491e-09) (-7.989783e-06 -2.935603e-08 -1.287876e-08))
20.400068     	((1.442227e-05 -9.504841e-04 -1.264994e-03) (7.213088e-07 -2.160674e-04 -1.199480e-04)) ((1.910335e-08 -1.355409e-10 2.616227e-09) (-7.971884e-06 -3.218578e-08 -1.325229e-08))
20.966651     	((1.544210e-05 -9.465107e-04 -1.241661e-03) (7.864708e-07 -2.153689e-04 -1.197516e-04)) ((1.911107e-08 -6.903388e-11 2.613550e-09) (-7.955176e-06 -3.503099e-08 -1.383299e-08))
21.533209     	((1.665655e-05 -9.427130e-04 -1.218598e-03) (8.554360e-07 -2.146886e-04 -1.195579e-04)) ((1.911509e-08 -4.341407e-12 2.610479e-09) (-7.938877e-06 -3.804348e-08 -1.456271e-08))
22.099769     	((1.780278e-05 -9.389099e-04 -1.195839e-03) (9.275527e-07 -2.140259e-04 -1.193746e-04)) ((1.910299e-08 5.843298e-11 2.607516e-09) (-7.922600e-06 -4.113632e-08 -1.543609e-08))
22.666356     	((1.921466e-05 -9.354007e-04 -1.173288e-03) (1.004480e-06 -2.133766e-04 -1.192012e-04)) ((1.908943e-08 1.197442e-10 2.605458e-09) (-7.906092e-06 -4.441451e-08 -1.650312e-08))
23.233026     	((2.074529e-05 -9.322856e-04 -1.151468e-03) (1.087067e-06 -2.127453e-04 -1.190361e-04)) ((1.906627e-08 1.865174e-10 2.604620e-09) (-7.889454e-06 -4.817157e-08 -1.781478e-08))
23.799756     	((2.251474e-05 -9.290945e-04 -1.130069e-03) (1.178217e-06 -2.121271e-04 -1.188791e-04)) ((1.903953e-08 2.583646e-10 2.603046e-09) (-7.872569e-06 -5.251420e-08 -1.915768e-08))
24.366502     	((2.448632e-05 -9.260249e-04 -1.109291e-03) (1.283403e-06 -2.115175e-04 -1.187265e-04)) ((1.901691e-08 3.311420e-10 2.600350e-09) (-7.855541e-06 -5.739793e-08 -2.029957e-08))
24.93322      	((2.678387e-05 -9.233117e-04 -1.089418e-03) (1.404745e-06 -2.109252e-04 -1.185702e-04)) ((1.900600e-08 4.072339e-10 2.596440e-09) (-7.838997e-06 -6.282558e-08 -2.132431e-08))
25.499717     	((2.917179e-05 -9.207299e-04 -1.070307e-03) (1.536977e-06 -2.103546e-04 -1.184108e-04)) ((1.899729e-08 4.873761e-10 2.591940e-09) (-7.823285e-06 -6.873222e-08 -2.256711e-08))
26.065959     	((3.190073e-05 -9.182593e-04 -1.052084e-03) (1.680757e-06 -2.098069e-04 -1.182518e-04)) ((1.899211e-08 5.736765e-10 2.586494e-09) (-7.808557e-06 -7.519342e-08 -2.417556e-08))
26.632009     	((3.480045e-05 -9.156184e-04 -1.034403e-03) (1.837253e-06 -2.092823e-04 -1.181003e-04)) ((1.897502e-08 6.646404e-10 2.579362e-09) (-7.794506e-06 -8.224573e-08 -2.610609e-08))
27.197895     	((3.786010e-05 -9.126856e-04 -1.016763e-03) (2.006045e-06 -2.087719e-04 -1.179706e-04)) ((1.894231e-08 7.588005e-10 2.571937e-09) (-7.780246e-06 -8.980733e-08 -2.825248e-08))
27.763644     	((4.124810e-05 -9.099120e-04 -9.994450e-04) (2.191033e-06 -2.082697e-04 -1.178710e-04)) ((1.890940e-08 8.542684e-10 2.566463e-09) (-7.765292e-06 -9.798080e-08 -3.048942e-08))
28.329277     	((4.510590e-05 -9.072002e-04 -9.823193e-04) (2.397484e-06 -2.077730e-04 -1.177968e-04)) ((1.888399e-08 9.521722e-10 2.562437e-09) (-7.749826e-06 -1.069775e-07 -3.283470e-08))
28.894819     	((4.938241e-05 -9.046124e-04 -9.654168e-04) (2.626816e-06 -2.072830e-04 -1.177281e-04)) ((1.887839e-08 1.050377e-09 2.557764e-09) (-7.734661e-06 -1.168767e-07 -3.543610e-08))
29.460284     	((5.395217e-05 -9.019802e-04 -9.484139e-04) (2.875338e-06 -2.068027e-04 -1.176423e-04)) ((1.888882e-08 1.149770e-09 2.552366e-09) (-7.720565e-06 -1.275884e-07 -3.851828e-08))
30.025681     	((5.883475e-05 -8.996270e-04 -9.316094e-04) (3.142688e-06 -2.063401e-04 -1.175319e-04)) ((1.890612e-08 1.252044e-09 2.547824e-09) (-7.707727e-06 -1.390976e-07 -4.207507e-08))
30.591017     	((6.388458e-05 -8.974254e-04 -9.152208e-04) (3.427326e-06 -2.058992e-04 -1.174036e-04)) ((1.892287e-08 1.359400e-09 2.541748e-09) (-7.695888e-06 -1.513906e-07 -4.604263e-08))
31.156295     	((6.928839e-05 -8.957937e-04 -8.996749e-04) (3.728355e-06 -2.054842e-04 -1.172606e-04)) ((1.894617e-08 1.472949e-09 2.533622e-09) (-7.684978e-06 -1.645158e-07 -5.040881e-08))
31.721532     	((7.517692e-05 -8.938947e-04 -8.841769e-04) (4.050585e-06 -2.050837e-04 -1.171096e-04)) ((1.895973e-08 1.598967e-09 2.523674e-09) (-7.674500e-06 -1.787159e-07 -5.520700e-08))
32.286768     	((8.160391e-05 -8.924998e-04 -8.692165e-04) (4.400355e-06 -2.046984e-04 -1.169506e-04)) ((1.897617e-08 1.733879e-09 2.513754e-09) (-7.664448e-06 -1.942395e-07 -6.033160e-08))
32.852012     	((8.856776e-05 -8.908920e-04 -8.543609e-04) (4.782849e-06 -2.043283e-04 -1.167859e-04)) ((1.897978e-08 1.881058e-09 2.503125e-09) (-7.654715e-06 -2.112159e-07 -6.558210e-08))
33.417261     	((9.600918e-05 -8.894822e-04 -8.397640e-04) (5.199195e-06 -2.039724e-04 -1.166153e-04)) ((1.898196e-08 2.031534e-09 2.492069e-09) (-7.645232e-06 -2.295968e-07 -7.094610e-08))
33.982518     	((1.039105e-04 -8.880097e-04 -8.254925e-04) (5.649324e-06 -2.036293e-04 -1.164394e-04)) ((1.897817e-08 2.185754e-09 2.479777e-09) (-7.635979e-06 -2.493372e-07 -7.647104e-08))
34.547787     	((1.125933e-04 -8.867200e-04 -8.115545e-04) (6.140368e-06 -2.032968e-04 -1.162580e-04)) ((1.897344e-08 2.350142e-09 2.467783e-09) (-7.626967e-06 -2.706334e-07 -8.214027e-08))
35.113069     	((1.220300e-04 -8.856868e-04 -7.980606e-04) (6.677979e-06 -2.029766e-04 -1.160717e-04)) ((1.896787e-08 2.524482e-09 2.454774e-09) (-7.618328e-06 -2.938216e-07 -8.805538e-08))
35.678368     	((1.322870e-04 -8.849554e-04 -7.851090e-04) (7.265042e-06 -2.026769e-04 -1.158842e-04)) ((1.895929e-08 2.709924e-09 2.441385e-09) (-7.610226e-06 -3.191463e-07 -9.428317e-08))
36.243723     	((1.432885e-04 -8.843763e-04 -7.727840e-04) (7.905607e-06 -2.023993e-04 -1.156964e-04)) ((1.894457e-08 2.905316e-09 2.427623e-09) (-7.602776e-06 -3.466360e-07 -1.007526e-07))
36.809136     	((1.552121e-04 -8.839989e-04 -7.610579e-04) (8.605331e-06 -2.021421e-04 -1.155139e-04)) ((1.892287e-08 3.114010e-09 2.413526e-09) (-7.595936e-06 -3.763706e-07 -1.073218e-07))
37.374567     	((1.682225e-04 -8.837205e-04 -7.495624e-04) (9.370202e-06 -2.019025e-04 -1.153438e-04)) ((1.889244e-08 3.340121e-09 2.398890e-09) (-7.589518e-06 -4.085351e-07 -1.139282e-07))
37.939835     	((1.824381e-04 -8.836593e-04 -7.383621e-04) (1.020623e-05 -2.016818e-04 -1.151871e-04)) ((1.885713e-08 3.582975e-09 2.383461e-09) (-7.583562e-06 -4.433532e-07 -1.206437e-07))
38.504874     	((1.979283e-04 -8.840472e-04 -7.275110e-04) (1.112146e-05 -2.014870e-04 -1.150425e-04)) ((1.881822e-08 3.846923e-09 2.366766e-09) (-7.578330e-06 -4.811827e-07 -1.274461e-07))
39.069663     	((2.149362e-04 -8.849479e-04 -7.171788e-04) (1.212390e-05 -2.013194e-04 -1.149092e-04)) ((1.877637e-08 4.135307e-09 2.348903e-09) (-7.573957e-06 -5.224051e-07 -1.345227e-07))
39.634181     	((2.335495e-04 -8.863007e-04 -7.073082e-04) (1.322274e-05 -2.011846e-04 -1.147857e-04)) ((1.873355e-08 4.452451e-09 2.328888e-09) (-7.570677e-06 -5.674884e-07 -1.419484e-07))
40.198438     	((2.537937e-04 -8.882341e-04 -6.981037e-04) (1.442625e-05 -2.010923e-04 -1.146686e-04)) ((1.869717e-08 4.794053e-09 2.308736e-09) (-7.569059e-06 -6.168256e-07 -1.497036e-07))
40.762432     	((2.754987e-04 -8.908889e-04 -6.897931e-04) (1.573666e-05 -2.010494e-04 -1.145512e-04)) ((1.867547e-08 5.154919e-09 2.285547e-09) (-7.569567e-06 -6.705875e-07 -1.579605e-07))
41.326153     	((2.992935e-04 -8.941400e-04 -6.818271e-04) (1.716267e-05 -2.010542e-04 -1.144370e-04)) ((1.866379e-08 5.545118e-09 2.260562e-09) (-7.572142e-06 -7.292407e-07 -1.667960e-07))
41.889598     	((3.250316e-04 -8.982080e-04 -6.744522e-04) (1.871076e-05 -2.011086e-04 -1.143295e-04)) ((1.866351e-08 5.956540e-09 2.233595e-09) (-7.576774e-06 -7.930649e-07 -1.764189e-07))
42.452767     	((3.533599e-04 -9.033456e-04 -6.675417e-04) (2.039627e-05 -2.012231e-04 -1.142220e-04)) ((1.867258e-08 6.411570e-09 2.205164e-09) (-7.584009e-06 -8.627618e-07 -1.871556e-07))
43.015669     	((3.837536e-04 -9.095747e-04 -6.611081e-04) (2.222663e-05 -2.014067e-04 -1.141082e-04)) ((1.869584e-08 6.907130e-09 2.171772e-09) (-7.594393e-06 -9.389049e-07 -1.992869e-07))
43.578322     	((4.162933e-04 -9.172408e-04 -6.557386e-04) (2.421039e-05 -2.016718e-04 -1.139802e-04)) ((1.874321e-08 7.439686e-09 2.129171e-09) (-7.608600e-06 -1.021807e-06 -2.124988e-07))
44.140657     	((4.511566e-04 -9.267650e-04 -6.515178e-04) (2.635761e-05 -2.020425e-04 -1.138326e-04)) ((1.882680e-08 7.992536e-09 2.077230e-09) (-7.627318e-06 -1.111776e-06 -2.266660e-07))
44.702418     	((4.881275e-04 -9.379132e-04 -6.483071e-04) (2.867412e-05 -2.025253e-04 -1.136584e-04)) ((1.893345e-08 8.564520e-09 2.021182e-09) (-7.651049e-06 -1.208617e-06 -2.417085e-07))
45.263522     	((5.268817e-04 -9.509165e-04 -6.464260e-04) (3.115179e-05 -2.031189e-04 -1.134615e-04)) ((1.904875e-08 9.154363e-09 1.959895e-09) (-7.680188e-06 -1.311911e-06 -2.579494e-07))
45.823942     	((5.675879e-04 -9.656119e-04 -6.461974e-04) (3.378167e-05 -2.038237e-04 -1.132604e-04)) ((1.917362e-08 9.742696e-09 1.898030e-09) (-7.714363e-06 -1.421362e-06 -2.758864e-07))
46.383661     	((6.107714e-04 -9.832022e-04 -6.474550e-04) (3.657817e-05 -2.046731e-04 -1.130507e-04)) ((1.934008e-08 1.034277e-08 1.839128e-09) (-7.754419e-06 -1.537177e-06 -2.948317e-07))
46.942689     	((6.555394e-04 -1.003473e-03 -6.508589e-04) (3.954072e-05 -2.057005e-04 -1.128234e-04)) ((1.953900e-08 1.094648e-08 1.786226e-09) (-7.801649e-06 -1.659182e-06 -3.138731e-07))
47.501023     	((7.015918e-04 -1.026346e-03 -6.554182e-04) (4.265668e-05 -2.069050e-04 -1.125844e-04)) ((1.977239e-08 1.154504e-08 1.735406e-09) (-7.856151e-06 -1.786088e-06 -3.335178e-07))
48.058681     	((7.488266e-04 -1.051981e-03 -6.618927e-04) (4.592057e-05 -2.082899e-04 -1.123411e-04)) ((2.002864e-08 1.214600e-08 1.684887e-09) (-7.918036e-06 -1.917025e-06 -3.541033e-07))
48.615471     	((7.963947e-04 -1.080376e-03 -6.708845e-04) (4.930514e-05 -2.098822e-04 -1.120972e-04)) ((2.030811e-08 1.273780e-08 1.636793e-09) (-7.987800e-06 -2.051551e-06 -3.756599e-07))
49.171355     	((8.435290e-04 -1.111301e-03 -6.821150e-04) (5.279515e-05 -2.117161e-04 -1.118675e-04)) ((2.062294e-08 1.330320e-08 1.597354e-09) (-8.065340e-06 -2.189296e-06 -3.964337e-07))
49.72639      	((8.907640e-04 -1.145444e-03 -6.959385e-04) (5.638492e-05 -2.138197e-04 -1.116418e-04)) ((2.098572e-08 1.388073e-08 1.572026e-09) (-8.151224e-06 -2.330363e-06 -4.153368e-07))
50.280583     	((9.360199e-04 -1.182272e-03 -7.122808e-04) (6.003712e-05 -2.161642e-04 -1.114000e-04)) ((2.138073e-08 1.441290e-08 1.571200e-09) (-8.245551e-06 -2.473312e-06 -4.332385e-07))
50.833899     	((9.777829e-04 -1.221439e-03 -7.309552e-04) (6.368674e-05 -2.187402e-04 -1.111274e-04)) ((2.182305e-08 1.486239e-08 1.597497e-09) (-8.348297e-06 -2.615432e-06 -4.500947e-07))
51.386306     	((1.014234e-03 -1.261883e-03 -7.522827e-04) (6.726875e-05 -2.215536e-04 -1.108193e-04)) ((2.229644e-08 1.520330e-08 1.648413e-09) (-8.459382e-06 -2.753870e-06 -4.639656e-07))
51.937806     	((1.044430e-03 -1.302648e-03 -7.753235e-04) (7.071446e-05 -2.245748e-04 -1.104753e-04)) ((2.283112e-08 1.543988e-08 1.709232e-09) (-8.577528e-06 -2.885770e-06 -4.734855e-07))
52.48844      	((1.067177e-03 -1.342238e-03 -7.999167e-04) (7.394567e-05 -2.277349e-04 -1.100869e-04)) ((2.338993e-08 1.556650e-08 1.776540e-09) (-8.701113e-06 -3.008048e-06 -4.782394e-07))
53.038204     	((1.080506e-03 -1.378992e-03 -8.252053e-04) (7.689416e-05 -2.309521e-04 -1.096562e-04)) ((2.394912e-08 1.555909e-08 1.844936e-09) (-8.827877e-06 -3.117761e-06 -4.771436e-07))
53.587094     	((1.081667e-03 -1.410694e-03 -8.513958e-04) (7.948128e-05 -2.341055e-04 -1.091951e-04)) ((2.447358e-08 1.537170e-08 1.917882e-09) (-8.954462e-06 -3.211524e-06 -4.676347e-07))
54.135141     	((1.068094e-03 -1.436320e-03 -8.785418e-04) (8.153271e-05 -2.371571e-04 -1.087056e-04)) ((2.499345e-08 1.494129e-08 1.987189e-09) (-9.077962e-06 -3.283197e-06 -4.492321e-07))
54.682449     	((1.038799e-03 -1.452810e-03 -9.063803e-04) (8.286536e-05 -2.400721e-04 -1.081690e-04)) ((2.543111e-08 1.428758e-08 2.044234e-09) (-9.195829e-06 -3.326172e-06 -4.209193e-07))
55.229276     	((9.939962e-04 -1.455354e-03 -9.307379e-04) (8.336505e-05 -2.426605e-04 -1.076296e-04)) ((2.564492e-08 1.347733e-08 2.104640e-09) (-9.301022e-06 -3.336284e-06 -3.826440e-07))
55.775821     	((9.278520e-04 -1.445390e-03 -9.571453e-04) (8.282415e-05 -2.447132e-04 -1.071434e-04)) ((2.569232e-08 1.237889e-08 2.146864e-09) (-9.386268e-06 -3.305930e-06 -3.364042e-07))
56.322257     	((8.366772e-04 -1.420998e-03 -9.863486e-04) (8.094884e-05 -2.460987e-04 -1.067133e-04)) ((2.563200e-08 1.087233e-08 2.140949e-09) (-9.446066e-06 -3.223942e-06 -2.858151e-07))
56.868816     	((7.206748e-04 -1.380632e-03 -1.017890e-03) (7.745074e-05 -2.466743e-04 -1.064240e-04)) ((2.532492e-08 9.061449e-09 2.048166e-09) (-9.472461e-06 -3.082169e-06 -2.343602e-07))
