# Forces      
# CofR        : (0.000000e+00 0.000000e+00 0.000000e+00)
# Time        forces(pressure viscous)	moments(pressure viscous)
0             	((0.000000e+00 0.000000e+00 0.000000e+00) (0.000000e+00 0.000000e+00 0.000000e+00)) ((0.000000e+00 0.000000e+00 0.000000e+00) (0.000000e+00 0.000000e+00 0.000000e+00))
0.012         	((-7.093583e-07 2.586420e-11 -2.413918e-07) (-1.664476e-06 3.248600e-15 -1.522220e-10)) ((-1.093839e-14 1.073992e-10 -8.717605e-15) (-1.821104e-15 1.107652e-07 -7.254167e-16))
0.0264        	((-9.782822e-07 5.719727e-10 -3.160453e-07) (-1.524684e-06 1.739691e-13 -9.581054e-11)) ((-5.669174e-15 -5.521479e-11 -2.167452e-15) (-6.558570e-15 1.015716e-07 4.897312e-15))
0.04368       	((-6.511648e-07 -3.454453e-10 -2.163467e-07) (-1.380433e-06 -1.267767e-13 -9.721933e-12)) ((-1.257737e-14 -3.992317e-11 -6.433509e-15) (-1.700886e-14 9.211380e-08 1.837960e-14))
0.064416      	((-7.453052e-07 4.069231e-10 -2.415604e-07) (-1.234905e-06 -3.078011e-13 4.470710e-11)) ((-6.220383e-15 -7.685733e-11 1.221144e-15) (-3.267182e-14 8.260506e-08 2.181794e-14))
0.0892992     	((-5.456686e-07 -1.774641e-10 -1.811395e-07) (-1.092248e-06 -3.766929e-13 4.219746e-11)) ((-3.903791e-15 -5.484771e-11 -4.181612e-15) (-5.238477e-14 7.331768e-08 1.150668e-14))
0.119159      	((-5.631413e-07 2.007257e-10 -1.798401e-07) (-9.570307e-07 -1.314141e-13 9.231333e-12)) ((-5.018149e-15 -6.659148e-11 -1.858799e-16) (-4.709016e-14 6.455588e-08 -3.454234e-15))
0.154991      	((-4.229785e-07 -1.015914e-10 -1.419848e-07) (-8.335016e-07 1.030060e-14 -1.426936e-11)) ((1.372279e-15 -4.653925e-11 -2.890137e-16) (-4.755307e-14 5.650488e-08 -2.740844e-14))
0.197989      	((-4.186092e-07 7.506001e-11 -1.325124e-07) (-7.241892e-07 8.572551e-14 -4.443062e-11)) ((2.553652e-15 -5.238876e-11 3.708266e-16) (-4.502746e-14 4.937369e-08 -4.738508e-14))
0.249587      	((-3.244661e-07 -4.049341e-11 -1.089838e-07) (-6.309923e-07 2.082838e-13 -8.292447e-11)) ((1.519297e-15 -3.748478e-11 -1.933659e-16) (-3.651745e-14 4.324828e-08 -5.724394e-14))
0.311504      	((-3.155622e-07 1.193315e-11 -9.941758e-08) (-5.534929e-07 2.200013e-13 -1.158784e-10)) ((4.481273e-15 -4.133634e-11 -4.943713e-16) (-4.210795e-14 3.813190e-08 -5.730688e-14))
0.385805      	((-2.540788e-07 -7.492607e-12 -8.520890e-08) (-4.894336e-07 1.488030e-13 -1.446874e-10)) ((9.130031e-16 -3.079783e-11 -6.336876e-16) (-4.069079e-14 3.389802e-08 -5.732029e-14))
0.474966      	((-2.465208e-07 9.877697e-12 -7.779054e-08) (-4.364134e-07 1.750318e-13 -1.684271e-10)) ((4.412371e-15 -3.345628e-11 -3.764578e-16) (-3.519782e-14 3.039913e-08 -7.249400e-14))
0.581959      	((-2.052466e-07 1.417029e-12 -6.869104e-08) (-3.917583e-07 2.369157e-13 -1.924962e-10)) ((7.269791e-16 -2.583712e-11 4.919808e-16) (1.860054e-15 2.744989e-08 -5.657505e-14))
0.710351      	((-1.988918e-07 -5.542257e-12 -6.283659e-08) (-3.533900e-07 3.321600e-14 -1.935611e-10)) ((6.032756e-15 -2.782253e-11 6.849784e-16) (1.765016e-14 2.492444e-08 -1.269977e-15))
0.864421      	((-1.694182e-07 1.156037e-11 -5.660371e-08) (-3.196564e-07 -1.171089e-13 -2.130218e-10)) ((3.188576e-15 -2.246527e-11 8.787915e-16) (1.306277e-14 2.270612e-08 5.747812e-15))
1.049306      	((-1.628897e-07 2.737157e-12 -5.165054e-08) (-2.896198e-07 -1.580030e-13 -2.160134e-10)) ((7.069254e-15 -2.399163e-11 7.121975e-16) (-6.423535e-14 2.074016e-08 -3.250174e-14))
1.271167      	((-1.401478e-07 1.246198e-11 -4.672532e-08) (-2.625186e-07 2.236464e-13 -2.372261e-10)) ((5.284875e-15 -2.028722e-11 2.876655e-15) (-1.370158e-13 1.896840e-08 -7.989878e-14))
1.5374        	((-1.330748e-07 1.224829e-11 -4.258841e-08) (-2.380553e-07 3.586531e-13 -2.327282e-10)) ((9.147868e-15 -2.109466e-11 4.471382e-15) (-2.025619e-13 1.737072e-08 -1.088528e-13))
1.85688       	((-1.153654e-07 1.362925e-11 -3.858461e-08) (-2.159583e-07 8.636425e-13 -2.592789e-10)) ((9.394908e-15 -1.833844e-11 4.218100e-15) (-2.675321e-13 1.593037e-08 -1.141200e-13))
2.240256      	((-1.080543e-07 7.653065e-12 -3.518198e-08) (-1.961204e-07 7.655526e-13 -2.536953e-10)) ((1.156882e-14 -1.859238e-11 3.839948e-15) (-3.977134e-13 1.463620e-08 -1.027647e-13))
2.700307      	((-9.480977e-08 8.607745e-12 -3.209503e-08) (-1.785665e-07 4.833767e-13 -2.574217e-10)) ((1.026298e-14 -1.664990e-11 3.941406e-15) (-6.043630e-13 1.349261e-08 -5.634525e-15))
3.252369      	((-8.820538e-08 1.863376e-11 -2.938014e-08) (-1.630710e-07 2.237551e-13 -2.714003e-10)) ((1.145626e-14 -1.668075e-11 3.938622e-15) (-8.302372e-13 1.248213e-08 2.642581e-13))
3.914842      	((-7.873833e-08 -2.859485e-12 -2.692857e-08) (-1.494555e-07 -6.549976e-13 -2.589884e-10)) ((9.402919e-15 -1.557607e-11 4.929920e-15) (-1.045832e-12 1.159675e-08 5.992988e-13))
4.709811      	((-7.285942e-08 1.643154e-14 -2.484627e-08) (-1.374754e-07 -4.413726e-13 -2.581437e-10)) ((7.874856e-15 -1.543120e-11 6.500663e-15) (-1.138441e-12 1.081928e-08 8.780347e-13))
5.663773      	((-6.588890e-08 -2.121809e-12 -2.297469e-08) (-1.268386e-07 4.145738e-13 -2.817140e-10)) ((5.196846e-15 -1.471516e-11 7.771801e-15) (-1.091359e-12 1.013078e-08 1.038628e-12))
6.808528      	((-6.078104e-08 1.735857e-11 -2.127645e-08) (-1.172942e-07 1.504769e-12 -3.196973e-10)) ((7.874359e-15 -1.437130e-11 8.136102e-15) (-1.014283e-12 9.515080e-09 1.059718e-12))
8.182233      	((-5.534577e-08 1.818287e-11 -1.981800e-08) (-1.086330e-07 2.886398e-12 -3.608665e-10)) ((6.201697e-15 -1.390212e-11 7.454101e-15) (-9.964477e-13 8.959322e-09 1.026543e-12))
9.83068       	((-5.083743e-08 2.080343e-11 -1.843561e-08) (-1.007138e-07 3.726251e-12 -3.966079e-10)) ((7.077746e-15 -1.355412e-11 6.741471e-15) (-9.545666e-13 8.453943e-09 9.567615e-13))
11.808816     	((-4.645529e-08 1.225950e-11 -1.727063e-08) (-9.344509e-08 4.160550e-12 -4.271532e-10)) ((4.304951e-15 -1.320404e-11 6.086285e-15) (-8.614721e-13 7.993374e-09 8.261856e-13))
14.182579     	((-4.270571e-08 1.547310e-11 -1.618862e-08) (-8.676769e-08 5.146960e-12 -4.636807e-10)) ((4.131234e-15 -1.288087e-11 5.431918e-15) (-7.125634e-13 7.572660e-09 6.948088e-13))
17.031095     	((-3.912284e-08 1.317440e-11 -1.520543e-08) (-8.062706e-08 6.027429e-12 -4.873238e-10)) ((3.291856e-15 -1.261386e-11 4.647433e-15) (-5.730722e-13 7.188996e-09 5.604075e-13))
20.449314     	((-3.595079e-08 1.544399e-11 -1.429112e-08) (-7.499001e-08 6.691313e-12 -5.060066e-10)) ((3.274273e-15 -1.235383e-11 3.757368e-15) (-4.474020e-13 6.839452e-09 3.616585e-13))
24.551176     	((-3.294080e-08 8.998723e-12 -1.346573e-08) (-6.982636e-08 7.098846e-12 -5.056339e-10)) ((2.765411e-15 -1.215473e-11 2.699595e-15) (-3.377077e-13 6.521576e-09 1.842030e-13))
29.473411     	((-3.025020e-08 8.048819e-12 -1.273136e-08) (-6.510774e-08 7.073151e-12 -4.981996e-10)) ((3.054610e-15 -1.197193e-11 2.250551e-15) (-2.665972e-13 6.232962e-09 4.246478e-14))
35.380094     	((-2.777401e-08 4.502736e-12 -1.211079e-08) (-6.080384e-08 6.991359e-12 -4.936247e-10)) ((3.240479e-15 -1.182571e-11 1.891947e-15) (-2.316949e-13 5.971024e-09 -5.644282e-14))
42.468112     	((-2.554328e-08 6.329662e-12 -1.158205e-08) (-5.687363e-08 6.737716e-12 -4.916071e-10)) ((2.984736e-15 -1.168776e-11 1.681792e-15) (-2.330745e-13 5.733058e-09 -1.059601e-13))
50.973735     	((-2.346682e-08 4.957499e-12 -1.113815e-08) (-5.328418e-08 6.140824e-12 -4.905485e-10)) ((3.241603e-15 -1.157653e-11 1.452378e-15) (-2.378212e-13 5.516814e-09 -1.257002e-13))
61.180482     	((-2.159837e-08 5.774705e-12 -1.072727e-08) (-5.001064e-08 5.858232e-12 -4.939552e-10)) ((3.346777e-15 -1.147243e-11 1.073491e-15) (-2.541468e-13 5.320730e-09 -1.356917e-13))
73.428578     	((-1.990169e-08 6.318495e-12 -1.040995e-08) (-4.702857e-08 5.047906e-12 -4.957538e-10)) ((2.926166e-15 -1.138697e-11 9.949312e-16) (-2.760167e-13 5.143410e-09 -1.533247e-13))
88.126294     	((-1.838927e-08 5.346091e-12 -1.013623e-08) (-4.431597e-08 4.615178e-12 -4.966210e-10)) ((2.650653e-15 -1.131150e-11 1.025723e-15) (-2.829989e-13 4.983339e-09 -1.436266e-13))
105.763553    	((-1.704362e-08 2.321451e-12 -9.889280e-09) (-4.185544e-08 4.134135e-12 -4.981132e-10)) ((2.654560e-15 -1.125034e-11 1.238205e-15) (-3.030820e-13 4.839369e-09 -1.168920e-13))
126.928263    	((-1.583722e-08 4.774866e-13 -9.673371e-09) (-3.962876e-08 3.554411e-12 -5.034046e-10)) ((2.227060e-15 -1.119824e-11 1.450267e-15) (-3.259418e-13 4.710432e-09 -8.214295e-14))
152.325916    	((-1.477766e-08 -2.069747e-13 -9.453538e-09) (-3.761836e-08 3.031066e-12 -5.143718e-10)) ((1.898295e-15 -1.115752e-11 1.558752e-15) (-3.461420e-13 4.595262e-09 -4.077593e-14))
182.803099    	((-1.385453e-08 -6.332912e-13 -9.275302e-09) (-3.580752e-08 2.551247e-12 -5.315911e-10)) ((1.863156e-15 -1.112387e-11 1.548388e-15) (-3.651507e-13 4.492646e-09 -1.469253e-14))
219.375719    	((-1.305095e-08 -1.483449e-12 -9.155058e-09) (-3.417889e-08 2.238246e-12 -5.563719e-10)) ((1.888487e-15 -1.109791e-11 1.552644e-15) (-3.747661e-13 4.401333e-09 3.838977e-16))
263.262863    	((-1.235345e-08 -2.028418e-12 -9.081282e-09) (-3.271655e-08 2.218641e-12 -5.878855e-10)) ((1.904102e-15 -1.107538e-11 1.534742e-15) (-3.667480e-13 4.320210e-09 1.061556e-15))
315.927436    	((-1.175271e-08 -2.329118e-12 -9.033054e-09) (-3.140763e-08 2.274996e-12 -6.262920e-10)) ((1.998263e-15 -1.105772e-11 1.454087e-15) (-3.539458e-13 4.248350e-09 -9.310899e-15))
379.124923    	((-1.123874e-08 -2.160326e-12 -9.021989e-09) (-3.024164e-08 2.318273e-12 -6.737987e-10)) ((2.012649e-15 -1.104447e-11 1.446647e-15) (-3.394742e-13 4.184991e-09 -2.513612e-14))
454.961908    	((-1.080581e-08 -2.233727e-12 -9.034529e-09) (-2.920962e-08 2.312142e-12 -7.313702e-10)) ((2.036879e-15 -1.103378e-11 1.444487e-15) (-3.242577e-13 4.129497e-09 -3.928829e-14))
545.966289    	((-1.044665e-08 -2.587775e-12 -9.062896e-09) (-2.830487e-08 2.210328e-12 -7.968453e-10)) ((2.061184e-15 -1.102452e-11 1.461834e-15) (-3.067711e-13 4.081345e-09 -4.958718e-14))
655.171547    	((-1.015922e-08 -2.874700e-12 -9.107565e-09) (-2.752202e-08 2.031653e-12 -8.679135e-10)) ((2.087929e-15 -1.101714e-11 1.424122e-15) (-2.821410e-13 4.040065e-09 -5.817677e-14))
786.217856    	((-9.933336e-09 -3.150933e-12 -9.163988e-09) (-2.685499e-08 1.851151e-12 -9.437202e-10)) ((2.103176e-15 -1.101190e-11 1.352576e-15) (-2.584129e-13 4.005160e-09 -7.212646e-14))
943.473427    	((-9.759712e-09 -3.301620e-12 -9.226219e-09) (-2.629680e-08 1.719973e-12 -1.022571e-09)) ((2.098823e-15 -1.100817e-11 1.304339e-15) (-2.393892e-13 3.976111e-09 -8.904015e-14))
1132.180113   	((-9.628569e-09 -3.270064e-12 -9.290317e-09) (-2.583878e-08 1.607968e-12 -1.102135e-09)) ((2.097358e-15 -1.100537e-11 1.243284e-15) (-2.240629e-13 3.952327e-09 -1.064308e-13))
1355.578      	((-9.531748e-09 -3.255886e-12 -9.351074e-09) (-2.547141e-08 1.563130e-12 -1.179554e-09)) ((2.127233e-15 -1.100332e-11 1.191460e-15) (-2.137772e-13 3.933226e-09 -1.217871e-13))
1613.664935   	((-9.462561e-09 -3.169922e-12 -9.405612e-09) (-2.518399e-08 1.535181e-12 -1.251898e-09)) ((2.127967e-15 -1.100195e-11 1.167464e-15) (-2.088881e-13 3.918185e-09 -1.360435e-13))
1906.4394     	((-9.413722e-09 -3.016930e-12 -9.450935e-09) (-2.496461e-08 1.544522e-12 -1.316784e-09)) ((2.152166e-15 -1.100094e-11 1.148471e-15) (-2.049070e-13 3.906569e-09 -1.521312e-13))
2233.900432   	((-9.379747e-09 -2.862249e-12 -9.487005e-09) (-2.480096e-08 1.547781e-12 -1.372808e-09)) ((2.153776e-15 -1.100014e-11 1.127182e-15) (-2.019116e-13 3.897760e-09 -1.687016e-13))
2580.76014    	((-9.356143e-09 -2.740959e-12 -9.514537e-09) (-2.468164e-08 1.540322e-12 -1.419209e-09)) ((2.145995e-15 -1.099977e-11 1.104967e-15) (-2.001536e-13 3.891209e-09 -1.841553e-13))
2927.616587   	((-9.339546e-09 -2.660055e-12 -9.535198e-09) (-2.459620e-08 1.523125e-12 -1.456091e-09)) ((2.139715e-15 -1.099980e-11 1.094137e-15) (-2.001142e-13 3.886416e-09 -1.964903e-13))
3274.471854   	((-9.327392e-09 -2.644545e-12 -9.550351e-09) (-2.453558e-08 1.499021e-12 -1.484605e-09)) ((2.134178e-15 -1.099983e-11 1.087739e-15) (-2.013084e-13 3.882938e-09 -2.055578e-13))
3621.327245   	((-9.318229e-09 -2.628225e-12 -9.561360e-09) (-2.449273e-08 1.468974e-12 -1.506175e-09)) ((2.132607e-15 -1.099984e-11 1.088408e-15) (-2.028753e-13 3.880422e-09 -2.125675e-13))
3968.183388   	((-9.311051e-09 -2.628521e-12 -9.569320e-09) (-2.446232e-08 1.443808e-12 -1.522291e-09)) ((2.130804e-15 -1.099984e-11 1.086399e-15) (-2.043815e-13 3.878600e-09 -2.178072e-13))
4315.040547   	((-9.305324e-09 -2.653535e-12 -9.575172e-09) (-2.444055e-08 1.418213e-12 -1.534266e-09)) ((2.124464e-15 -1.099984e-11 1.081893e-15) (-2.058241e-13 3.877276e-09 -2.217656e-13))
4661.898875   	((-9.300684e-09 -2.662851e-12 -9.579460e-09) (-2.442474e-08 1.399137e-12 -1.543153e-09)) ((2.121079e-15 -1.099984e-11 1.078340e-15) (-2.070131e-13 3.876305e-09 -2.246908e-13))
5008.758386   	((-9.296900e-09 -2.642217e-12 -9.582642e-09) (-2.441305e-08 1.386225e-12 -1.549770e-09)) ((2.119315e-15 -1.099984e-11 1.076276e-15) (-2.080232e-13 3.875585e-09 -2.268857e-13))
5355.619034   	((-9.293773e-09 -2.634148e-12 -9.585045e-09) (-2.440425e-08 1.375007e-12 -1.554759e-09)) ((2.117248e-15 -1.099984e-11 1.074225e-15) (-2.090293e-13 3.875045e-09 -2.284627e-13))
5702.480713   	((-9.291199e-09 -2.619469e-12 -9.586889e-09) (-2.439751e-08 1.364661e-12 -1.558577e-09)) ((2.113363e-15 -1.099984e-11 1.072656e-15) (-2.100973e-13 3.874634e-09 -2.296487e-13))
6049.343289   	((-9.289083e-09 -2.615750e-12 -9.588344e-09) (-2.439225e-08 1.355141e-12 -1.561548e-09)) ((2.110307e-15 -1.099984e-11 1.071319e-15) (-2.110636e-13 3.874318e-09 -2.306152e-13))
6396.206625   	((-9.287333e-09 -2.619840e-12 -9.589551e-09) (-2.438809e-08 1.345924e-12 -1.563900e-09)) ((2.108816e-15 -1.099984e-11 1.069494e-15) (-2.119361e-13 3.874072e-09 -2.314073e-13))
6743.070593   	((-9.285878e-09 -2.598138e-12 -9.590533e-09) (-2.438477e-08 1.338005e-12 -1.565785e-09)) ((2.106478e-15 -1.099985e-11 1.068229e-15) (-2.127224e-13 3.873878e-09 -2.320255e-13))
7089.935083   	((-9.284700e-09 -2.582753e-12 -9.591345e-09) (-2.438210e-08 1.331714e-12 -1.567315e-09)) ((2.104693e-15 -1.099985e-11 1.066784e-15) (-2.133594e-13 3.873724e-09 -2.325203e-13))
7436.799997   	((-9.283734e-09 -2.570797e-12 -9.591988e-09) (-2.437993e-08 1.327047e-12 -1.568571e-09)) ((2.102815e-15 -1.099986e-11 1.065641e-15) (-2.138839e-13 3.873602e-09 -2.329251e-13))
7783.665256   	((-9.282930e-09 -2.564768e-12 -9.592554e-09) (-2.437816e-08 1.322325e-12 -1.569612e-09)) ((2.101346e-15 -1.099986e-11 1.064680e-15) (-2.143713e-13 3.873503e-09 -2.332328e-13))
8130.530793   	((-9.282271e-09 -2.558066e-12 -9.592975e-09) (-2.437672e-08 1.319344e-12 -1.570477e-09)) ((2.099977e-15 -1.099987e-11 1.063948e-15) (-2.147579e-13 3.873424e-09 -2.334725e-13))
8477.396556   	((-9.281723e-09 -2.557554e-12 -9.593336e-09) (-2.437554e-08 1.316649e-12 -1.571201e-09)) ((2.098846e-15 -1.099987e-11 1.063352e-15) (-2.150906e-13 3.873360e-09 -2.336595e-13))
8824.262501   	((-9.281268e-09 -2.559969e-12 -9.593642e-09) (-2.437457e-08 1.314332e-12 -1.571809e-09)) ((2.097885e-15 -1.099987e-11 1.062810e-15) (-2.153809e-13 3.873308e-09 -2.338118e-13))
9171.128593   	((-9.280888e-09 -2.563958e-12 -9.593893e-09) (-2.437377e-08 1.312245e-12 -1.572320e-09)) ((2.096897e-15 -1.099988e-11 1.062379e-15) (-2.156410e-13 3.873266e-09 -2.339339e-13))
9517.994805   	((-9.280575e-09 -2.543454e-12 -9.594119e-09) (-2.437311e-08 1.309697e-12 -1.572752e-09)) ((2.096201e-15 -1.099988e-11 1.061647e-15) (-2.158740e-13 3.873232e-09 -2.340393e-13))
9864.861114   	((-9.280309e-09 -2.563695e-12 -9.594290e-09) (-2.437257e-08 1.308049e-12 -1.573116e-09)) ((2.096020e-15 -1.099988e-11 1.061161e-15) (-2.160490e-13 3.873203e-09 -2.341327e-13))
10211.727502  	((-9.280094e-09 -2.549210e-12 -9.594456e-09) (-2.437212e-08 1.305867e-12 -1.573424e-09)) ((2.095687e-15 -1.099988e-11 1.060449e-15) (-2.162201e-13 3.873181e-09 -2.342121e-13))
10558.593954  	((-9.279916e-09 -2.544922e-12 -9.594596e-09) (-2.437174e-08 1.304088e-12 -1.573684e-09)) ((2.095275e-15 -1.099988e-11 1.059845e-15) (-2.163657e-13 3.873162e-09 -2.342761e-13))
10905.46046   	((-9.279769e-09 -2.545046e-12 -9.594709e-09) (-2.437143e-08 1.302745e-12 -1.573903e-09)) ((2.094908e-15 -1.099988e-11 1.059277e-15) (-2.164888e-13 3.873146e-09 -2.343317e-13))
11252.327009  	((-9.279643e-09 -2.545932e-12 -9.594808e-09) (-2.437118e-08 1.301731e-12 -1.574090e-09)) ((2.094475e-15 -1.099988e-11 1.058721e-15) (-2.165900e-13 3.873134e-09 -2.343710e-13))
11599.193595  	((-9.279538e-09 -2.547166e-12 -9.594890e-09) (-2.437096e-08 1.300870e-12 -1.574248e-09)) ((2.093968e-15 -1.099988e-11 1.058164e-15) (-2.166749e-13 3.873123e-09 -2.344050e-13))
11946.060209  	((-9.279451e-09 -2.548185e-12 -9.594956e-09) (-2.437079e-08 1.300167e-12 -1.574381e-09)) ((2.093377e-15 -1.099988e-11 1.057553e-15) (-2.167452e-13 3.873115e-09 -2.344339e-13))
12292.926848  	((-9.279379e-09 -2.548849e-12 -9.595017e-09) (-2.437064e-08 1.299645e-12 -1.574494e-09)) ((2.092692e-15 -1.099988e-11 1.056892e-15) (-2.168024e-13 3.873108e-09 -2.344583e-13))
12639.793508  	((-9.279318e-09 -2.549246e-12 -9.595068e-09) (-2.437051e-08 1.299229e-12 -1.574589e-09)) ((2.091868e-15 -1.099988e-11 1.056158e-15) (-2.168538e-13 3.873102e-09 -2.344791e-13))
12986.660184  	((-9.279267e-09 -2.548945e-12 -9.595109e-09) (-2.437041e-08 1.298959e-12 -1.574670e-09)) ((2.090901e-15 -1.099988e-11 1.055349e-15) (-2.168977e-13 3.873097e-09 -2.344951e-13))
13333.526873  	((-9.279224e-09 -2.548772e-12 -9.595144e-09) (-2.437032e-08 1.298689e-12 -1.574739e-09)) ((2.089852e-15 -1.099988e-11 1.054482e-15) (-2.169375e-13 3.873093e-09 -2.345130e-13))
13680.393574  	((-9.279188e-09 -2.548544e-12 -9.595174e-09) (-2.437025e-08 1.298522e-12 -1.574798e-09)) ((2.088741e-15 -1.099988e-11 1.053567e-15) (-2.169726e-13 3.873090e-09 -2.345283e-13))
14027.260285  	((-9.279158e-09 -2.548215e-12 -9.595200e-09) (-2.437018e-08 1.298427e-12 -1.574847e-09)) ((2.087570e-15 -1.099988e-11 1.052607e-15) (-2.170052e-13 3.873087e-09 -2.345416e-13))
14374.127004  	((-9.279132e-09 -2.547781e-12 -9.595222e-09) (-2.437013e-08 1.298393e-12 -1.574889e-09)) ((2.086335e-15 -1.099988e-11 1.051598e-15) (-2.170364e-13 3.873085e-09 -2.345533e-13))
14720.993729  	((-9.279113e-09 -2.550649e-12 -9.595238e-09) (-2.437009e-08 1.298585e-12 -1.574926e-09)) ((2.084969e-15 -1.099988e-11 1.050606e-15) (-2.170826e-13 3.873083e-09 -2.345214e-13))
15067.860459  	((-9.279096e-09 -2.551617e-12 -9.595253e-09) (-2.437006e-08 1.298687e-12 -1.574957e-09)) ((2.083592e-15 -1.099988e-11 1.049521e-15) (-2.171171e-13 3.873081e-09 -2.345187e-13))
