# Forces      
# CofR        : (0.000000e+00 0.000000e+00 0.000000e+00)
# Time        forces(pressure viscous)	moments(pressure viscous)
0             	((0.000000e+00 0.000000e+00 0.000000e+00) (0.000000e+00 0.000000e+00 0.000000e+00)) ((0.000000e+00 0.000000e+00 0.000000e+00) (0.000000e+00 0.000000e+00 0.000000e+00))
0.012         	((-1.415365e-06 5.169372e-11 -4.816487e-07) (-3.321068e-06 6.554519e-15 -3.066693e-10)) ((-2.182612e-14 2.143539e-10 -1.740072e-14) (-3.620941e-15 2.210057e-07 -1.466046e-15))
0.0264        	((-1.951922e-06 1.140916e-09 -6.306183e-07) (-3.042154e-06 3.465961e-13 -2.004501e-10)) ((-1.135084e-14 -1.100815e-10 -4.325718e-15) (-1.314823e-14 2.026626e-07 9.708246e-15))
0.04368       	((-1.299242e-06 -6.889290e-10 -4.317271e-07) (-2.754365e-06 -2.450501e-13 -4.114150e-11)) ((-2.511232e-14 -7.953391e-11 -1.286001e-14) (-3.370210e-14 1.837942e-07 3.664590e-14))
0.064416      	((-1.487070e-06 8.118565e-10 -4.820879e-07) (-2.464074e-06 -6.278606e-13 4.881631e-11)) ((-1.239515e-14 -1.532012e-10 2.452596e-15) (-6.469562e-14 1.648271e-07 4.442147e-14))
0.0892992     	((-1.088773e-06 -3.535625e-10 -3.615816e-07) (-2.179571e-06 -7.755758e-13 1.875664e-11)) ((-7.939694e-15 -1.092771e-10 -8.183042e-15) (-1.041182e-13 1.463061e-07 2.436018e-14))
0.119159      	((-1.123601e-06 4.003446e-10 -3.590940e-07) (-1.909983e-06 -2.717363e-13 -7.860656e-11)) ((-9.998025e-15 -1.326739e-10 -4.103976e-16) (-9.319731e-14 1.288389e-07 -5.383819e-15))
0.154991      	((-8.441529e-07 -2.032980e-10 -2.836257e-07) (-1.663791e-06 3.923318e-14 -1.640239e-10)) ((2.459382e-15 -9.269273e-11 -6.711384e-16) (-9.477393e-14 1.127959e-07 -5.284484e-14))
0.197989      	((-8.355179e-07 1.501569e-10 -2.648825e-07) (-1.445962e-06 1.975181e-13 -2.695599e-10)) ((5.078541e-15 -1.044222e-10 7.922202e-16) (-9.159978e-14 9.858752e-08 -9.238691e-14))
0.249587      	((-6.478594e-07 -8.106531e-11 -2.179622e-07) (-1.260182e-06 4.198033e-13 -3.969131e-10)) ((2.919096e-15 -7.473738e-11 -3.647020e-16) (-7.470310e-14 8.637968e-08 -1.131778e-13))
0.311504      	((-6.301299e-07 2.421514e-11 -1.990183e-07) (-1.105633e-06 4.294559e-13 -5.102528e-10)) ((8.950268e-15 -8.248495e-11 -1.307132e-15) (-8.597290e-14 7.617734e-08 -1.153931e-13))
0.385805      	((-5.075252e-07 -1.491100e-11 -1.706581e-07) (-9.778009e-07 2.759013e-13 -6.167337e-10)) ((1.771413e-15 -6.150458e-11 -1.343288e-15) (-8.414579e-14 6.772859e-08 -1.154055e-13))
0.474966      	((-4.923022e-07 1.976257e-11 -1.559744e-07) (-8.719011e-07 3.069128e-13 -6.950020e-10)) ((8.788114e-15 -6.686003e-11 -9.326046e-16) (-7.031876e-14 6.073926e-08 -1.400285e-13))
0.581959      	((-4.099668e-07 2.047300e-12 -1.377770e-07) (-7.826343e-07 4.209942e-13 -7.769585e-10)) ((1.497840e-15 -5.170505e-11 8.976573e-16) (8.939969e-15 5.484299e-08 -1.080121e-13))
0.710351      	((-3.970560e-07 -8.902188e-12 -1.262260e-07) (-7.058996e-07 -3.165438e-13 -7.889778e-10)) ((1.209292e-14 -5.569700e-11 1.267265e-15) (3.018079e-14 4.979116e-08 -7.298464e-15))
0.864421      	((-3.383171e-07 2.528712e-11 -1.137493e-07) (-6.384374e-07 -6.182550e-13 -8.522653e-10)) ((6.577583e-15 -4.506335e-11 1.885192e-15) (3.946813e-15 4.535422e-08 -1.501331e-15))
1.049306      	((-3.250275e-07 5.265552e-12 -1.040365e-07) (-5.783799e-07 -4.796399e-13 -8.607222e-10)) ((1.411787e-14 -4.812405e-11 1.394105e-15) (-1.475651e-13 4.142188e-08 -7.936518e-14))
1.271167      	((-2.797602e-07 2.783170e-11 -9.426701e-08) (-5.242187e-07 -5.436433e-14 -9.303575e-10)) ((1.035684e-14 -4.078803e-11 6.259679e-15) (-2.984723e-13 3.787977e-08 -1.464766e-13))
1.5374        	((-2.652696e-07 2.666898e-11 -8.621657e-08) (-4.753133e-07 2.859697e-13 -8.943663e-10)) ((1.866190e-14 -4.237653e-11 8.157974e-15) (-4.085325e-13 3.468455e-08 -1.925673e-13))
1.85688       	((-2.301844e-07 2.754992e-11 -7.824521e-08) (-4.311698e-07 1.421613e-12 -9.718424e-10)) ((2.008545e-14 -3.695434e-11 7.819121e-15) (-5.231941e-13 3.180687e-08 -2.116523e-13))
2.240256      	((-2.152525e-07 1.239035e-11 -7.170713e-08) (-3.915672e-07 1.712427e-12 -9.838645e-10)) ((2.195524e-14 -3.740196e-11 8.381594e-15) (-7.927002e-13 2.922311e-08 -2.104528e-13))
2.700307      	((-1.891438e-07 1.846047e-11 -6.555157e-08) (-3.565302e-07 1.181078e-12 -9.912607e-10)) ((2.081274e-14 -3.362631e-11 8.021590e-15) (-1.184077e-12 2.693996e-08 -3.925375e-14))
3.252369      	((-1.756567e-07 3.341800e-11 -6.033408e-08) (-3.256193e-07 5.710170e-13 -1.024914e-09)) ((2.222836e-14 -3.363633e-11 8.166648e-15) (-1.633620e-12 2.492429e-08 5.131541e-13))
3.914842      	((-1.571080e-07 -5.927459e-12 -5.546717e-08) (-2.984731e-07 -1.498328e-12 -1.002195e-09)) ((1.895015e-14 -3.149356e-11 9.889162e-15) (-2.081257e-12 2.315865e-08 1.234831e-12))
4.709811      	((-1.453603e-07 -4.295195e-12 -5.148800e-08) (-2.745767e-07 -7.464381e-13 -1.029165e-09)) ((1.608380e-14 -3.109792e-11 1.321676e-14) (-2.242362e-12 2.160858e-08 1.795466e-12))
5.663773      	((-1.314405e-07 -6.992699e-12 -4.785647e-08) (-2.533424e-07 1.250460e-12 -1.126487e-09)) ((1.147826e-14 -2.974625e-11 1.557001e-14) (-2.105078e-12 2.023633e-08 2.078250e-12))
6.808528      	((-1.212742e-07 3.490049e-11 -4.463014e-08) (-2.342987e-07 2.797525e-12 -1.240929e-09)) ((1.537269e-14 -2.894867e-11 1.583349e-14) (-1.969462e-12 1.900867e-08 2.101744e-12))
8.182233      	((-1.104535e-07 3.783781e-11 -4.193114e-08) (-2.170165e-07 6.265384e-12 -1.368897e-09)) ((1.217909e-14 -2.803120e-11 1.457616e-14) (-1.932463e-12 1.790074e-08 2.005556e-12))
9.83068       	((-1.015674e-07 4.084638e-11 -3.937920e-08) (-2.012147e-07 8.373090e-12 -1.516199e-09)) ((1.217670e-14 -2.732290e-11 1.304907e-14) (-1.792735e-12 1.689450e-08 1.819488e-12))
11.808816     	((-9.280147e-08 2.571407e-11 -3.729775e-08) (-1.867113e-07 8.636444e-12 -1.641824e-09)) ((7.798047e-15 -2.664778e-11 1.200244e-14) (-1.617896e-12 1.597688e-08 1.598843e-12))
14.182579     	((-8.533764e-08 2.411573e-11 -3.536448e-08) (-1.733774e-07 9.931915e-12 -1.756108e-09)) ((7.783626e-15 -2.604555e-11 1.046640e-14) (-1.391887e-12 1.513785e-08 1.323033e-12))
17.031095     	((-7.819347e-08 2.276185e-11 -3.362441e-08) (-1.611073e-07 1.178273e-11 -1.840124e-09)) ((5.828972e-15 -2.552041e-11 9.102681e-15) (-1.122604e-12 1.437119e-08 9.937309e-13))
20.449314     	((-7.185579e-08 2.817074e-11 -3.205249e-08) (-1.498358e-07 1.336810e-11 -1.895431e-09)) ((6.097930e-15 -2.503990e-11 7.084497e-15) (-8.552683e-13 1.367163e-08 6.288757e-13))
24.551176     	((-6.582862e-08 1.989289e-11 -3.065556e-08) (-1.395119e-07 1.445163e-11 -1.897391e-09)) ((5.066550e-15 -2.464476e-11 5.370258e-15) (-6.248954e-13 1.303524e-08 2.901521e-13))
29.473411     	((-6.046226e-08 1.544805e-11 -2.949167e-08) (-1.300812e-07 1.391019e-11 -1.882483e-09)) ((5.584704e-15 -2.429742e-11 4.297189e-15) (-5.018806e-13 1.245773e-08 5.231487e-15))
35.380094     	((-5.550067e-08 1.327099e-11 -2.854671e-08) (-1.214802e-07 1.323042e-11 -1.854304e-09)) ((5.205020e-15 -2.401521e-11 3.791751e-15) (-4.951760e-13 1.193428e-08 -2.041780e-13))
42.468112     	((-5.106167e-08 1.422839e-11 -2.775283e-08) (-1.136397e-07 1.132805e-11 -1.839783e-09)) ((5.660933e-15 -2.375675e-11 3.526127e-15) (-5.128805e-13 1.145971e-08 -3.378984e-13))
50.973735     	((-4.695690e-08 1.252976e-11 -2.713608e-08) (-1.064911e-07 9.940248e-12 -1.844566e-09)) ((6.155021e-15 -2.353914e-11 3.171963e-15) (-5.422243e-13 1.102964e-08 -4.098195e-13))
61.180482     	((-4.329894e-08 1.197089e-11 -2.663890e-08) (-9.997059e-08 9.153887e-12 -1.861893e-09)) ((5.991148e-15 -2.334507e-11 2.830282e-15) (-5.471291e-13 1.064039e-08 -4.619104e-13))
73.428578     	((-4.002042e-08 1.300857e-11 -2.631837e-08) (-9.403915e-08 8.088794e-12 -1.890051e-09)) ((5.674850e-15 -2.318664e-11 2.450278e-15) (-5.088360e-13 1.028931e-08 -3.998557e-13))
88.126294     	((-3.711240e-08 1.150287e-11 -2.608708e-08) (-8.865101e-08 6.318437e-12 -1.930619e-09)) ((5.163826e-15 -2.304920e-11 2.611193e-15) (-4.931147e-13 9.973274e-09 -2.559218e-13))
105.763553    	((-3.454905e-08 8.769077e-12 -2.587013e-08) (-8.376385e-08 5.189556e-12 -1.989725e-09)) ((4.386569e-15 -2.294266e-11 2.591003e-15) (-4.930036e-13 9.689568e-09 -1.062613e-13))
126.928263    	((-3.229268e-08 5.284493e-12 -2.569109e-08) (-7.934606e-08 4.329802e-12 -2.070080e-09)) ((4.185973e-15 -2.285687e-11 2.491985e-15) (-4.968450e-13 9.435979e-09 -1.953002e-16))
152.325916    	((-3.033486e-08 3.680746e-13 -2.550273e-08) (-7.537009e-08 3.733408e-12 -2.170144e-09)) ((4.563135e-15 -2.279069e-11 2.339714e-15) (-4.903652e-13 9.210251e-09 7.925123e-14))
182.803099    	((-2.865889e-08 -1.624408e-12 -2.541496e-08) (-7.180442e-08 3.795139e-12 -2.293942e-09)) ((4.596516e-15 -2.273687e-11 2.395512e-15) (-4.618824e-13 9.010118e-09 1.042685e-13))
219.375719    	((-2.722955e-08 -3.157896e-12 -2.542507e-08) (-6.861704e-08 4.233224e-12 -2.445322e-09)) ((4.432501e-15 -2.269365e-11 2.525056e-15) (-4.307242e-13 8.833505e-09 8.821408e-14))
263.262863    	((-2.602530e-08 -4.765042e-12 -2.556172e-08) (-6.577756e-08 4.643531e-12 -2.626376e-09)) ((4.518021e-15 -2.266078e-11 2.582931e-15) (-3.773184e-13 8.678320e-09 5.251001e-14))
315.927436    	((-2.503970e-08 -5.908182e-12 -2.575579e-08) (-6.326435e-08 4.976474e-12 -2.844741e-09)) ((4.608656e-15 -2.263777e-11 2.624532e-15) (-3.130420e-13 8.542733e-09 1.434568e-14))
379.124923    	((-2.426463e-08 -7.066722e-12 -2.603578e-08) (-6.106117e-08 5.251650e-12 -3.099106e-09)) ((4.809855e-15 -2.262033e-11 2.592821e-15) (-2.628948e-13 8.425342e-09 -2.229980e-14))
454.961908    	((-2.368256e-08 -8.510100e-12 -2.636846e-08) (-5.915522e-08 5.529736e-12 -3.386815e-09)) ((4.769872e-15 -2.260799e-11 2.521513e-15) (-2.142954e-13 8.324986e-09 -6.420844e-14))
545.966289    	((-2.325311e-08 -8.517019e-12 -2.672528e-08) (-5.753372e-08 5.574438e-12 -3.704864e-09)) ((4.898402e-15 -2.260020e-11 2.144696e-15) (-1.740702e-13 8.240332e-09 -1.095819e-13))
654.353938    	((-2.296134e-08 -9.623634e-12 -2.709881e-08) (-5.618596e-08 5.489910e-12 -4.045625e-09)) ((4.924864e-15 -2.259696e-11 2.164368e-15) (-1.487766e-13 8.170121e-09 -1.593477e-13))
780.124241    	((-2.279268e-08 -1.058950e-11 -2.746099e-08) (-5.510039e-08 5.243045e-12 -4.394998e-09)) ((4.928838e-15 -2.259585e-11 2.267920e-15) (-1.462057e-13 8.113175e-09 -2.162311e-13))
923.276704    	((-2.271281e-08 -1.090769e-11 -2.779173e-08) (-5.425743e-08 4.907692e-12 -4.735078e-09)) ((4.872297e-15 -2.259524e-11 2.231351e-15) (-1.529309e-13 8.068117e-09 -2.761390e-13))
1083.811212   	((-2.268968e-08 -1.132815e-11 -2.806556e-08) (-5.362868e-08 4.643889e-12 -5.048893e-09)) ((4.841753e-15 -2.259448e-11 2.197765e-15) (-1.630683e-13 8.033381e-09 -3.315099e-13))
1257.632447   	((-2.270403e-08 -1.111622e-11 -2.828465e-08) (-5.318086e-08 4.283796e-12 -5.321244e-09)) ((4.774935e-15 -2.259461e-11 2.131348e-15) (-1.757322e-13 8.007435e-09 -3.758584e-13))
1431.455177   	((-2.272728e-08 -1.073960e-11 -2.844805e-08) (-5.287773e-08 3.971910e-12 -5.541374e-09)) ((4.765103e-15 -2.259673e-11 2.087122e-15) (-1.916440e-13 7.988817e-09 -4.066482e-13))
1605.279854   	((-2.274405e-08 -1.033348e-11 -2.856354e-08) (-5.267892e-08 3.660528e-12 -5.710480e-09)) ((4.763899e-15 -2.259816e-11 2.038937e-15) (-2.073960e-13 7.975788e-09 -4.267029e-13))
1779.107212   	((-2.275132e-08 -1.009566e-11 -2.864258e-08) (-5.255113e-08 3.384890e-12 -5.835550e-09)) ((4.751584e-15 -2.259904e-11 1.994667e-15) (-2.210517e-13 7.966830e-09 -4.381766e-13))
1952.938409   	((-2.274830e-08 -9.969226e-12 -2.869570e-08) (-5.246826e-08 3.138243e-12 -5.926583e-09)) ((4.730461e-15 -2.259952e-11 1.953063e-15) (-2.328391e-13 7.960668e-09 -4.449363e-13))
2126.773554   	((-2.273898e-08 -9.941511e-12 -2.873212e-08) (-5.241287e-08 2.950995e-12 -5.992583e-09)) ((4.705650e-15 -2.259968e-11 1.916657e-15) (-2.428406e-13 7.956386e-09 -4.495503e-13))
2300.612352   	((-2.272704e-08 -9.898622e-12 -2.875810e-08) (-5.237363e-08 2.807368e-12 -6.041266e-09)) ((4.684639e-15 -2.259976e-11 1.887911e-15) (-2.509229e-13 7.953333e-09 -4.521715e-13))
2474.454208   	((-2.271503e-08 -9.810720e-12 -2.877769e-08) (-5.234411e-08 2.702844e-12 -6.078137e-09)) ((4.645225e-15 -2.259979e-11 1.856621e-15) (-2.579140e-13 7.951099e-09 -4.529881e-13))
2648.298575   	((-2.270401e-08 -9.769174e-12 -2.879333e-08) (-5.232065e-08 2.605646e-12 -6.106996e-09)) ((4.624956e-15 -2.259981e-11 1.823258e-15) (-2.635986e-13 7.949416e-09 -4.531896e-13))
2822.144963   	((-2.269439e-08 -9.697761e-12 -2.880617e-08) (-5.230137e-08 2.509453e-12 -6.130292e-09)) ((4.615490e-15 -2.259987e-11 1.790763e-15) (-2.676930e-13 7.948115e-09 -4.529751e-13))
2995.992988   	((-2.268601e-08 -9.631214e-12 -2.881704e-08) (-5.228519e-08 2.435589e-12 -6.149620e-09)) ((4.606642e-15 -2.259993e-11 1.773273e-15) (-2.709931e-13 7.947090e-09 -4.529753e-13))
3169.84235    	((-2.267878e-08 -9.588749e-12 -2.882629e-08) (-5.227150e-08 2.376923e-12 -6.166053e-09)) ((4.597305e-15 -2.260000e-11 1.757318e-15) (-2.732934e-13 7.946270e-09 -4.529398e-13))
3343.692808   	((-2.267256e-08 -9.550913e-12 -2.883423e-08) (-5.225985e-08 2.331883e-12 -6.180212e-09)) ((4.588321e-15 -2.260006e-11 1.747584e-15) (-2.746089e-13 7.945607e-09 -4.523157e-13))
3517.544166   	((-2.266716e-08 -9.522308e-12 -2.884111e-08) (-5.224992e-08 2.297266e-12 -6.192511e-09)) ((4.581353e-15 -2.260012e-11 1.744768e-15) (-2.755321e-13 7.945065e-09 -4.514546e-13))
3691.396265   	((-2.266248e-08 -9.502212e-12 -2.884706e-08) (-5.224145e-08 2.269287e-12 -6.203287e-09)) ((4.575622e-15 -2.260017e-11 1.742203e-15) (-2.761046e-13 7.944619e-09 -4.506651e-13))
3865.248976   	((-2.265840e-08 -9.496017e-12 -2.885224e-08) (-5.223421e-08 2.247796e-12 -6.212760e-09)) ((4.572536e-15 -2.260021e-11 1.739799e-15) (-2.765554e-13 7.944251e-09 -4.499726e-13))
4039.102199   	((-2.265481e-08 -9.484407e-12 -2.885674e-08) (-5.222803e-08 2.231106e-12 -6.221129e-09)) ((4.570098e-15 -2.260024e-11 1.736585e-15) (-2.768776e-13 7.943944e-09 -4.495173e-13))
4212.955852   	((-2.265166e-08 -9.477332e-12 -2.886070e-08) (-5.222273e-08 2.218346e-12 -6.228539e-09)) ((4.567565e-15 -2.260027e-11 1.733752e-15) (-2.771093e-13 7.943687e-09 -4.492237e-13))
4386.809868   	((-2.264891e-08 -9.471996e-12 -2.886417e-08) (-5.221816e-08 2.206511e-12 -6.235113e-09)) ((4.565064e-15 -2.260029e-11 1.730881e-15) (-2.773227e-13 7.943472e-09 -4.490525e-13))
4560.664195   	((-2.264648e-08 -9.468323e-12 -2.886724e-08) (-5.221423e-08 2.194206e-12 -6.240961e-09)) ((4.562930e-15 -2.260031e-11 1.728928e-15) (-2.776506e-13 7.943289e-09 -4.489382e-13))
4734.518788   	((-2.264433e-08 -9.456860e-12 -2.886994e-08) (-5.221082e-08 2.182175e-12 -6.246170e-09)) ((4.560914e-15 -2.260033e-11 1.727647e-15) (-2.779580e-13 7.943135e-09 -4.488773e-13))
4908.373611   	((-2.264244e-08 -9.456542e-12 -2.887235e-08) (-5.220786e-08 2.171749e-12 -6.250811e-09)) ((4.558967e-15 -2.260034e-11 1.725533e-15) (-2.782996e-13 7.943003e-09 -4.487332e-13))
5082.228632   	((-2.264075e-08 -9.456065e-12 -2.887450e-08) (-5.220529e-08 2.162258e-12 -6.254956e-09)) ((4.557464e-15 -2.260035e-11 1.724604e-15) (-2.785367e-13 7.942890e-09 -4.485999e-13))
5256.083827   	((-2.263925e-08 -9.474114e-12 -2.887640e-08) (-5.220305e-08 2.154372e-12 -6.258658e-09)) ((4.556003e-15 -2.260037e-11 1.723096e-15) (-2.787713e-13 7.942793e-09 -4.484162e-13))
5429.939174   	((-2.263793e-08 -9.487937e-12 -2.887809e-08) (-5.220108e-08 2.146257e-12 -6.261968e-09)) ((4.554132e-15 -2.260038e-11 1.720181e-15) (-2.790435e-13 7.942709e-09 -4.482558e-13))
5603.794654   	((-2.263673e-08 -9.518255e-12 -2.887955e-08) (-5.219936e-08 2.138557e-12 -6.264931e-09)) ((4.553373e-15 -2.260038e-11 1.720384e-15) (-2.792952e-13 7.942636e-09 -4.481151e-13))
5777.65025    	((-2.263568e-08 -9.542659e-12 -2.888094e-08) (-5.219785e-08 2.131463e-12 -6.267586e-09)) ((4.552554e-15 -2.260039e-11 1.719145e-15) (-2.795186e-13 7.942574e-09 -4.479634e-13))
5951.505951   	((-2.263474e-08 -9.554777e-12 -2.888219e-08) (-5.219652e-08 2.125353e-12 -6.269967e-09)) ((4.551752e-15 -2.260040e-11 1.718060e-15) (-2.796769e-13 7.942519e-09 -4.478552e-13))
6125.361742   	((-2.263391e-08 -9.554358e-12 -2.888332e-08) (-5.219535e-08 2.119721e-12 -6.272102e-09)) ((4.550583e-15 -2.260040e-11 1.715352e-15) (-2.798193e-13 7.942471e-09 -4.477598e-13))
6299.217615   	((-2.263316e-08 -9.568084e-12 -2.888432e-08) (-5.219432e-08 2.115714e-12 -6.274020e-09)) ((4.549700e-15 -2.260041e-11 1.714304e-15) (-2.798862e-13 7.942430e-09 -4.476632e-13))
6473.073559   	((-2.263250e-08 -9.569651e-12 -2.888525e-08) (-5.219340e-08 2.112303e-12 -6.275744e-09)) ((4.548833e-15 -2.260041e-11 1.713457e-15) (-2.799448e-13 7.942393e-09 -4.475506e-13))
6646.929568   	((-2.263190e-08 -9.586333e-12 -2.888606e-08) (-5.219259e-08 2.109371e-12 -6.277292e-09)) ((4.548268e-15 -2.260042e-11 1.712766e-15) (-2.799738e-13 7.942361e-09 -4.474396e-13))
6820.785634   	((-2.263136e-08 -9.588932e-12 -2.888684e-08) (-5.219187e-08 2.105183e-12 -6.278685e-09)) ((4.548371e-15 -2.260042e-11 1.714907e-15) (-2.801167e-13 7.942332e-09 -4.472705e-13))
6994.641751   	((-2.263089e-08 -9.584175e-12 -2.888753e-08) (-5.219122e-08 2.101804e-12 -6.279941e-09)) ((4.547812e-15 -2.260042e-11 1.714271e-15) (-2.802357e-13 7.942307e-09 -4.471327e-13))
7168.497914   	((-2.263048e-08 -9.619079e-12 -2.888802e-08) (-5.219065e-08 2.100656e-12 -6.281073e-09)) ((4.548164e-15 -2.260043e-11 1.713372e-15) (-2.802161e-13 7.942285e-09 -4.470830e-13))
7342.354117   	((-2.263012e-08 -9.629151e-12 -2.888852e-08) (-5.219015e-08 2.098719e-12 -6.282092e-09)) ((4.547657e-15 -2.260043e-11 1.712939e-15) (-2.802289e-13 7.942265e-09 -4.470254e-13))
7516.210357   	((-2.262978e-08 -9.627078e-12 -2.888902e-08) (-5.218969e-08 2.096309e-12 -6.283011e-09)) ((4.547089e-15 -2.260043e-11 1.712568e-15) (-2.802624e-13 7.942248e-09 -4.469690e-13))
