# Forces      
# CofR        : (0.000000e+00 0.000000e+00 0.000000e+00)
# Time        forces(pressure viscous)	moments(pressure viscous)
0             	((0.000000e+00 0.000000e+00 0.000000e+00) (-3.991501e-03 1.112140e-12 -3.846165e-08)) ((0.000000e+00 0.000000e+00 0.000000e+00) (-8.794340e-15 8.968394e-05 -1.229307e-14))
0.012         	((-1.173037e+00 2.516982e-06 1.010510e-01) (-4.920314e-03 -1.102608e-08 -1.327481e-04)) ((5.493436e-11 -1.576221e-05 1.649020e-10) (-1.475250e-09 1.464337e-04 4.598264e-10))
0.0264        	((2.457001e-01 9.992152e-06 -5.973965e-02) (-4.899520e-03 -2.490669e-08 -2.018386e-04)) ((1.011298e-09 3.034563e-06 9.078817e-10) (-1.900344e-09 1.618529e-04 -1.268906e-09))
0.04368       	((1.445944e-01 -7.578262e-06 -3.359202e-02) (-4.176744e-03 -2.862882e-08 -1.995926e-04)) ((-6.393499e-10 2.476714e-06 -9.687836e-10) (-1.491124e-09 1.414120e-04 -1.282257e-09))
0.064416      	((8.863140e-05 -3.426319e-06 -3.333990e-02) (-3.685171e-03 -5.215843e-08 -2.219921e-04)) ((-1.979149e-10 -2.601978e-08 -2.095961e-10) (-1.422648e-09 1.285585e-04 2.897015e-10))
0.0892992     	((1.026578e-03 -2.903542e-06 -2.914666e-02) (-3.389939e-03 -1.007536e-07 -2.551390e-04)) ((1.993631e-10 2.630849e-08 -2.389703e-10) (-1.647930e-09 1.208393e-04 1.524545e-09))
0.119159      	((1.519910e-04 -4.815088e-06 -2.741492e-02) (-3.144779e-03 -1.332619e-07 -2.790338e-04)) ((9.889701e-11 5.109224e-08 -5.056943e-10) (-2.290755e-09 1.133068e-04 2.440032e-09))
0.154991      	((-1.019789e-03 -2.454093e-06 -2.633580e-02) (-2.935867e-03 -1.115636e-07 -2.948560e-04)) ((-1.948522e-10 2.532397e-08 -4.000984e-10) (-2.714524e-09 1.064692e-04 2.098103e-09))
0.197989      	((-1.457295e-03 -1.630445e-06 -2.566916e-02) (-2.764571e-03 -6.571391e-08 -3.086299e-04)) ((6.905714e-11 1.999329e-08 -2.124066e-10) (-3.315789e-09 1.005338e-04 1.705250e-09))
0.249587      	((-1.705976e-03 -9.291933e-07 -2.519144e-02) (-2.621438e-03 -3.150082e-08 -3.249877e-04)) ((2.815989e-10 6.112213e-09 -1.150941e-10) (-4.157646e-09 9.532198e-05 1.402082e-09))
0.311504      	((-1.873671e-03 -4.963427e-07 -2.488406e-02) (-2.493137e-03 -4.863905e-08 -3.479967e-04)) ((1.578987e-10 -1.172053e-08 -5.500776e-11) (-4.611284e-09 9.052437e-05 1.145714e-09))
0.385805      	((-2.038778e-03 -6.890979e-09 -2.461065e-02) (-2.372520e-03 -5.278221e-08 -3.784775e-04)) ((1.003063e-10 -2.984431e-08 -5.008476e-11) (-4.516468e-09 8.593900e-05 1.067365e-09))
0.474966      	((-2.247388e-03 1.637171e-07 -2.436007e-02) (-2.257975e-03 -5.622328e-08 -4.147360e-04)) ((3.125349e-11 -4.736161e-08 -5.842613e-11) (-4.100528e-09 8.151783e-05 1.052533e-09))
0.581959      	((-2.526039e-03 -1.503612e-07 -2.409706e-02) (-2.151109e-03 -6.236675e-08 -4.552790e-04)) ((2.795798e-11 -6.779042e-08 -4.402686e-11) (-3.627158e-09 7.732054e-05 1.082431e-09))
0.709895      	((-2.895927e-03 -2.383061e-07 -2.382433e-02) (-2.054555e-03 -5.876983e-08 -4.975947e-04)) ((5.673646e-12 -9.029420e-08 -3.945592e-11) (-3.152413e-09 7.346012e-05 1.131268e-09))
0.858788      	((-3.369063e-03 -4.682258e-09 -2.354541e-02) (-1.970522e-03 -5.433819e-08 -5.387225e-04)) ((2.281515e-11 -1.144949e-07 -2.597062e-11) (-2.702742e-09 7.006178e-05 1.315412e-09))
1.028563      	((-3.934502e-03 3.825527e-07 -2.325935e-02) (-1.898940e-03 -4.709284e-08 -5.769878e-04)) ((9.164197e-12 -1.390357e-07 -1.290934e-11) (-2.305879e-09 6.715798e-05 1.531168e-09))
1.219054      	((-4.593101e-03 1.208956e-06 -2.294569e-02) (-1.839931e-03 -4.804294e-08 -6.106040e-04)) ((1.565679e-11 -1.617275e-07 -2.020008e-11) (-1.945349e-09 6.475858e-05 1.630087e-09))
1.424023      	((-5.291581e-03 1.737202e-06 -2.256976e-02) (-1.793330e-03 -2.651210e-08 -6.381122e-04)) ((1.745820e-12 -1.805726e-07 -4.827943e-12) (-1.540406e-09 6.280751e-05 1.643803e-09))
1.626277      	((-5.974794e-03 2.182503e-06 -2.212612e-02) (-1.755252e-03 -1.988383e-08 -6.579564e-04)) ((8.358256e-11 -1.955796e-07 -4.488431e-11) (-1.580115e-09 6.119050e-05 2.172901e-09))
1.82598       	((-6.587396e-03 3.101796e-06 -2.161790e-02) (-1.721349e-03 -3.409216e-08 -6.707915e-04)) ((1.441716e-10 -2.094471e-07 -1.011955e-10) (-2.288536e-09 5.979100e-05 3.128676e-09))
2.024118      	((-7.104672e-03 6.343964e-06 -2.107139e-02) (-1.691569e-03 -2.934049e-09 -6.772645e-04)) ((1.844236e-10 -2.233716e-07 -9.329333e-11) (-2.857038e-09 5.863046e-05 2.940776e-09))
2.221927      	((-7.489912e-03 8.389323e-06 -2.050541e-02) (-1.665509e-03 7.047699e-08 -6.793959e-04)) ((1.860637e-10 -2.364357e-07 -2.905123e-11) (-2.630605e-09 5.768913e-05 1.580836e-09))
2.420069      	((-7.745878e-03 9.888007e-06 -1.995616e-02) (-1.641855e-03 1.559678e-07 -6.798854e-04)) ((1.344638e-10 -2.476080e-07 6.355517e-11) (-1.664299e-09 5.687596e-05 -4.749166e-10))
2.618392      	((-7.835752e-03 1.186787e-05 -1.940874e-02) (-1.619916e-03 2.446534e-07 -6.800671e-04)) ((6.989865e-11 -2.562989e-07 1.147605e-10) (-5.592399e-10 5.614531e-05 -2.664474e-09))
2.81633       	((-7.807759e-03 1.423455e-05 -1.887382e-02) (-1.599761e-03 3.220858e-07 -6.796684e-04)) ((8.481254e-11 -2.623010e-07 9.252211e-11) (1.937113e-10 5.551366e-05 -3.975857e-09))
3.013517      	((-7.727915e-03 1.624830e-05 -1.836442e-02) (-1.581743e-03 3.895305e-07 -6.780011e-04)) ((7.551298e-11 -2.662301e-07 6.671371e-11) (1.132777e-09 5.500031e-05 -4.183719e-09))
3.209985      	((-7.626946e-03 1.835277e-05 -1.790215e-02) (-1.566382e-03 4.596002e-07 -6.752739e-04)) ((7.358795e-11 -2.658484e-07 1.999798e-12) (2.804464e-09 5.459749e-05 -3.907365e-09))
3.40593       	((-7.513246e-03 2.055313e-05 -1.746634e-02) (-1.553437e-03 5.143240e-07 -6.725175e-04)) ((7.779620e-11 -2.620551e-07 -4.723411e-11) (4.448280e-09 5.425703e-05 -2.943369e-09))
3.601488      	((-7.425334e-03 2.631215e-05 -1.706378e-02) (-1.542030e-03 5.718546e-07 -6.701345e-04)) ((-2.316232e-11 -2.573099e-07 -5.140007e-11) (6.789771e-09 5.394612e-05 -1.494767e-09))
3.796716      	((-7.361131e-03 2.990077e-05 -1.671028e-02) (-1.531580e-03 6.350827e-07 -6.678999e-04)) ((-1.642754e-10 -2.524301e-07 -6.124378e-11) (1.057795e-08 5.365861e-05 5.411583e-10))
3.991632      	((-7.282694e-03 3.322154e-05 -1.637279e-02) (-1.521958e-03 7.105101e-07 -6.657212e-04)) ((-2.641347e-10 -2.472282e-07 -1.166434e-10) (1.540142e-08 5.339190e-05 2.653998e-09))
4.186275      	((-7.199620e-03 3.638012e-05 -1.606483e-02) (-1.513108e-03 8.098364e-07 -6.637250e-04)) ((-3.351302e-10 -2.428730e-07 -1.931226e-10) (2.047590e-08 5.314404e-05 3.549704e-09))
4.380678      	((-7.102734e-03 4.023702e-05 -1.576945e-02) (-1.504832e-03 9.143775e-07 -6.621299e-04)) ((-4.192757e-10 -2.393473e-07 -2.580505e-10) (2.581724e-08 5.290793e-05 4.584082e-09))
4.574848      	((-7.026599e-03 4.388867e-05 -1.550102e-02) (-1.497100e-03 1.009053e-06 -6.607683e-04)) ((-5.463111e-10 -2.372967e-07 -3.021671e-10) (3.200826e-08 5.268905e-05 7.521210e-09))
4.768781      	((-6.964650e-03 4.803305e-05 -1.525860e-02) (-1.489920e-03 1.099279e-06 -6.594722e-04)) ((-6.674082e-10 -2.360641e-07 -3.141328e-10) (3.868130e-08 5.249045e-05 1.110386e-08))
4.96248       	((-6.908639e-03 5.320480e-05 -1.503686e-02) (-1.483245e-03 1.209197e-06 -6.583065e-04)) ((-8.461832e-10 -2.353395e-07 -2.806737e-10) (4.544194e-08 5.230668e-05 1.440273e-08))
5.15595       	((-6.860677e-03 5.872218e-05 -1.483587e-02) (-1.477073e-03 1.328409e-06 -6.573260e-04)) ((-9.964112e-10 -2.350667e-07 -2.377527e-10) (5.246988e-08 5.213573e-05 1.811618e-08))
5.349176      	((-6.814388e-03 6.589585e-05 -1.464209e-02) (-1.471329e-03 1.448704e-06 -6.565254e-04)) ((-1.143296e-09 -2.348747e-07 -2.057873e-10) (6.011350e-08 5.197546e-05 2.253995e-08))
5.542168      	((-6.773024e-03 7.242243e-05 -1.445540e-02) (-1.465939e-03 1.570196e-06 -6.557844e-04)) ((-1.242861e-09 -2.348790e-07 -1.719087e-10) (6.800399e-08 5.182659e-05 2.696814e-08))
5.734941      	((-6.742362e-03 7.947091e-05 -1.428141e-02) (-1.460871e-03 1.711672e-06 -6.549864e-04)) ((-1.354731e-09 -2.350906e-07 -1.361735e-10) (7.599586e-08 5.169160e-05 3.067309e-08))
5.927502      	((-6.707173e-03 8.780145e-05 -1.411368e-02) (-1.456054e-03 1.882778e-06 -6.542178e-04)) ((-1.470304e-09 -2.352851e-07 -8.779235e-11) (8.503528e-08 5.156617e-05 3.463047e-08))
6.119861      	((-6.671653e-03 9.624334e-05 -1.395276e-02) (-1.451423e-03 2.082636e-06 -6.535892e-04)) ((-1.526559e-09 -2.355284e-07 -7.321361e-11) (9.490423e-08 5.144448e-05 3.901021e-08))
6.31203       	((-6.637665e-03 1.043117e-04 -1.379895e-02) (-1.446918e-03 2.309803e-06 -6.531451e-04)) ((-1.551620e-09 -2.357023e-07 -8.163716e-11) (1.045810e-07 5.132211e-05 4.286960e-08))
6.504018      	((-6.608154e-03 1.132487e-04 -1.365204e-02) (-1.442566e-03 2.545064e-06 -6.528592e-04)) ((-1.627437e-09 -2.356350e-07 -9.258773e-11) (1.142881e-07 5.119954e-05 4.618287e-08))
6.695832      	((-6.581431e-03 1.225786e-04 -1.351255e-02) (-1.438419e-03 2.801002e-06 -6.526922e-04)) ((-1.644048e-09 -2.353180e-07 -8.825509e-11) (1.245786e-07 5.107881e-05 4.919522e-08))
6.887476      	((-6.558406e-03 1.305159e-04 -1.337846e-02) (-1.434478e-03 3.075306e-06 -6.525598e-04)) ((-1.597730e-09 -2.349941e-07 -7.572081e-11) (1.342378e-07 5.096199e-05 5.215006e-08))
7.078957      	((-6.538470e-03 1.398399e-04 -1.324705e-02) (-1.430734e-03 3.358123e-06 -6.523661e-04)) ((-1.674722e-09 -2.346997e-07 -4.790721e-11) (1.436143e-07 5.085176e-05 5.519727e-08))
7.270278      	((-6.520588e-03 1.516922e-04 -1.312061e-02) (-1.427170e-03 3.654131e-06 -6.520649e-04)) ((-1.855585e-09 -2.344037e-07 -1.716955e-11) (1.540366e-07 5.074892e-05 5.862205e-08))
7.461445      	((-6.504160e-03 1.638807e-04 -1.299958e-02) (-1.423796e-03 3.966796e-06 -6.516556e-04)) ((-2.071820e-09 -2.341160e-07 5.692722e-12) (1.657094e-07 5.065307e-05 6.233853e-08))
7.652463      	((-6.487058e-03 1.768603e-04 -1.288257e-02) (-1.420613e-03 4.310168e-06 -6.511618e-04)) ((-2.265351e-09 -2.338167e-07 1.839862e-11) (1.787837e-07 5.056332e-05 6.598655e-08))
7.843336      	((-6.468849e-03 1.896791e-04 -1.276885e-02) (-1.417595e-03 4.670183e-06 -6.506079e-04)) ((-2.429802e-09 -2.334587e-07 2.164000e-11) (1.929114e-07 5.047883e-05 7.005791e-08))
8.034068      	((-6.447598e-03 2.046260e-04 -1.265658e-02) (-1.414722e-03 5.042521e-06 -6.500073e-04)) ((-2.641904e-09 -2.329762e-07 -5.251159e-14) (2.079278e-07 5.039904e-05 7.515364e-08))
8.224667      	((-6.427402e-03 2.226554e-04 -1.254637e-02) (-1.411992e-03 5.444541e-06 -6.493403e-04)) ((-2.934802e-09 -2.326020e-07 -5.363397e-11) (2.245045e-07 5.032455e-05 8.201861e-08))
8.415139      	((-6.406078e-03 2.445540e-04 -1.243617e-02) (-1.409402e-03 5.892796e-06 -6.485752e-04)) ((-3.294974e-09 -2.322084e-07 -1.431950e-10) (2.437067e-07 5.025608e-05 9.088274e-08))
8.605487      	((-6.385689e-03 2.698782e-04 -1.232870e-02) (-1.406924e-03 6.427891e-06 -6.477257e-04)) ((-3.695951e-09 -2.318085e-07 -2.430623e-10) (2.664790e-07 5.019278e-05 9.976370e-08))
8.795713      	((-6.365923e-03 2.987844e-04 -1.222382e-02) (-1.404542e-03 7.074372e-06 -6.468431e-04)) ((-4.163563e-09 -2.313811e-07 -3.347528e-10) (2.938203e-07 5.013339e-05 1.078673e-07))
8.985817      	((-6.345322e-03 3.312174e-04 -1.211952e-02) (-1.402235e-03 7.828836e-06 -6.459365e-04)) ((-4.649257e-09 -2.310182e-07 -4.195311e-10) (3.258807e-07 5.007721e-05 1.165018e-07))
9.1758        	((-6.323620e-03 3.680408e-04 -1.201547e-02) (-1.399985e-03 8.695614e-06 -6.449853e-04)) ((-5.223968e-09 -2.306907e-07 -4.881355e-10) (3.628013e-07 5.002410e-05 1.265140e-07))
9.365665      	((-6.301894e-03 4.091297e-04 -1.191345e-02) (-1.397779e-03 9.675724e-06 -6.439933e-04)) ((-5.923067e-09 -2.304010e-07 -5.378392e-10) (4.051169e-07 4.997356e-05 1.385073e-07))
9.555426      	((-6.280393e-03 4.555128e-04 -1.181465e-02) (-1.395621e-03 1.077450e-05 -6.429987e-04)) ((-6.721072e-09 -2.301512e-07 -5.802039e-10) (4.530944e-07 4.992498e-05 1.522198e-07))
9.745102      	((-6.260501e-03 5.060555e-04 -1.171942e-02) (-1.393524e-03 1.199379e-05 -6.420282e-04)) ((-7.588978e-09 -2.299168e-07 -6.170538e-10) (5.068936e-07 4.987755e-05 1.672154e-07))
9.934703      	((-6.242724e-03 5.627124e-04 -1.162870e-02) (-1.391494e-03 1.334833e-05 -6.410940e-04)) ((-8.592587e-09 -2.296775e-07 -6.526196e-10) (5.672689e-07 4.983092e-05 1.837438e-07))
10.12423      	((-6.230660e-03 6.252797e-04 -1.154442e-02) (-1.389593e-03 1.485775e-05 -6.401970e-04)) ((-9.682047e-09 -2.294827e-07 -6.736516e-10) (6.347751e-07 4.978716e-05 2.019728e-07))
10.313688     	((-6.215009e-03 6.938866e-04 -1.146121e-02) (-1.387816e-03 1.653220e-05 -6.393694e-04)) ((-1.083759e-08 -2.291294e-07 -6.818243e-10) (7.098172e-07 4.974569e-05 2.225417e-07))
10.503079     	((-6.200698e-03 7.702928e-04 -1.138012e-02) (-1.386128e-03 1.839605e-05 -6.386072e-04)) ((-1.209667e-08 -2.287933e-07 -6.986958e-10) (7.931622e-07 4.970593e-05 2.454099e-07))
10.692406     	((-6.183070e-03 8.543319e-04 -1.129781e-02) (-1.384484e-03 2.047850e-05 -6.378845e-04)) ((-1.342699e-08 -2.283100e-07 -7.128386e-10) (8.852639e-07 4.966733e-05 2.699480e-07))
10.881673     	((-6.169801e-03 9.450294e-04 -1.121894e-02) (-1.382886e-03 2.277977e-05 -6.372099e-04)) ((-1.480344e-08 -2.277777e-07 -7.535445e-10) (9.862511e-07 4.963005e-05 2.961078e-07))
11.070878     	((-6.161964e-03 1.045849e-03 -1.114647e-02) (-1.381396e-03 2.531894e-05 -6.365926e-04)) ((-1.639823e-08 -2.272557e-07 -8.001195e-10) (1.097777e-06 4.959586e-05 3.244942e-07))
11.260021     	((-6.152928e-03 1.154181e-03 -1.107691e-02) (-1.380010e-03 2.812989e-05 -6.360547e-04)) ((-1.808896e-08 -2.265929e-07 -8.431727e-10) (1.220860e-06 4.956384e-05 3.548891e-07))
11.449104     	((-6.146929e-03 1.272659e-03 -1.101120e-02) (-1.378754e-03 3.122182e-05 -6.356100e-04)) ((-1.993346e-08 -2.258864e-07 -8.673856e-10) (1.355669e-06 4.953415e-05 3.866115e-07))
11.638134     	((-6.141227e-03 1.406264e-03 -1.094616e-02) (-1.377618e-03 3.464081e-05 -6.352556e-04)) ((-2.196489e-08 -2.250765e-07 -9.125285e-10) (1.504035e-06 4.950682e-05 4.205680e-07))
11.827115     	((-6.140652e-03 1.555135e-03 -1.088287e-02) (-1.376561e-03 3.846329e-05 -6.349714e-04)) ((-2.415215e-08 -2.243133e-07 -9.829863e-10) (1.667754e-06 4.948160e-05 4.581062e-07))
12.016053     	((-6.145548e-03 1.719295e-03 -1.082362e-02) (-1.375589e-03 4.271823e-05 -6.347612e-04)) ((-2.651433e-08 -2.235450e-07 -1.090665e-09) (1.848291e-06 4.945821e-05 4.997962e-07))
12.204948     	((-6.156362e-03 1.900597e-03 -1.076857e-02) (-1.374713e-03 4.742906e-05 -6.346369e-04)) ((-2.905207e-08 -2.227726e-07 -1.225551e-09) (2.048253e-06 4.943665e-05 5.464545e-07))
12.393795     	((-6.170557e-03 2.099570e-03 -1.071722e-02) (-1.373981e-03 5.262498e-05 -6.345901e-04)) ((-3.185146e-08 -2.219329e-07 -1.382294e-09) (2.269753e-06 4.941852e-05 5.982642e-07))
12.582591     	((-6.194146e-03 2.320489e-03 -1.067336e-02) (-1.373468e-03 5.837317e-05 -6.345882e-04)) ((-3.501247e-08 -2.212393e-07 -1.559842e-09) (2.514968e-06 4.940689e-05 6.549099e-07))
12.771339     	((-6.224374e-03 2.562060e-03 -1.063748e-02) (-1.373200e-03 6.469439e-05 -6.345900e-04)) ((-3.856448e-08 -2.207287e-07 -1.787780e-09) (2.786298e-06 4.940376e-05 7.176024e-07))
12.960041     	((-6.263019e-03 2.829274e-03 -1.060962e-02) (-1.373209e-03 7.164782e-05 -6.345654e-04)) ((-4.253416e-08 -2.202893e-07 -2.000304e-09) (3.087531e-06 4.941228e-05 7.881684e-07))
13.148703     	((-6.309863e-03 3.121061e-03 -1.058860e-02) (-1.373521e-03 7.931210e-05 -6.344938e-04)) ((-4.677328e-08 -2.199508e-07 -2.206232e-09) (3.421188e-06 4.943548e-05 8.680917e-07))
13.337349     	((-6.366566e-03 3.436017e-03 -1.057507e-02) (-1.374173e-03 8.770516e-05 -6.343730e-04)) ((-5.111645e-08 -2.197587e-07 -2.445173e-09) (3.787335e-06 4.947596e-05 9.602259e-07))
13.526023     	((-6.437662e-03 3.773829e-03 -1.057202e-02) (-1.375280e-03 9.685001e-05 -6.342054e-04)) ((-5.572295e-08 -2.197530e-07 -2.702916e-09) (4.186857e-06 4.953722e-05 1.064675e-06))
13.714699     	((-6.528643e-03 4.134919e-03 -1.058507e-02) (-1.376994e-03 1.067664e-04 -6.339375e-04)) ((-6.072240e-08 -2.200661e-07 -3.001880e-09) (4.621313e-06 4.962561e-05 1.179977e-06))
13.903344     	((-6.639081e-03 4.521682e-03 -1.061360e-02) (-1.379441e-03 1.174987e-04 -6.335429e-04)) ((-6.613571e-08 -2.205684e-07 -3.305944e-09) (5.093024e-06 4.974582e-05 1.306034e-06))
14.091718     	((-6.771296e-03 4.934554e-03 -1.066194e-02) (-1.382711e-03 1.291115e-04 -6.329632e-04)) ((-7.184469e-08 -2.214406e-07 -3.624888e-09) (5.600988e-06 4.990252e-05 1.440086e-06))
14.279812     	((-6.921879e-03 5.373728e-03 -1.072726e-02) (-1.386837e-03 1.416264e-04 -6.321606e-04)) ((-7.778427e-08 -2.223856e-07 -4.079978e-09) (6.144022e-06 5.010079e-05 1.577271e-06))
14.467611     	((-7.104703e-03 5.836773e-03 -1.081877e-02) (-1.391971e-03 1.551090e-04 -6.310682e-04)) ((-8.416915e-08 -2.236394e-07 -4.593074e-09) (6.723609e-06 5.034773e-05 1.715040e-06))
14.655091     	((-7.314085e-03 6.317562e-03 -1.093280e-02) (-1.398257e-03 1.695486e-04 -6.295867e-04)) ((-9.058215e-08 -2.253203e-07 -5.203454e-09) (7.337358e-06 5.064723e-05 1.854874e-06))
14.842213     	((-7.548952e-03 6.819763e-03 -1.106848e-02) (-1.405762e-03 1.849572e-04 -6.277872e-04)) ((-9.696985e-08 -2.269811e-07 -5.788427e-09) (7.984090e-06 5.099820e-05 1.995927e-06))
15.028944     	((-7.820285e-03 7.329001e-03 -1.123596e-02) (-1.414696e-03 2.012480e-04 -6.257322e-04)) ((-1.030817e-07 -2.290557e-07 -6.302091e-09) (8.659877e-06 5.140396e-05 2.135068e-06))
15.215276     	((-8.129543e-03 7.837190e-03 -1.143512e-02) (-1.425151e-03 2.182880e-04 -6.233886e-04)) ((-1.087735e-07 -2.316562e-07 -6.767410e-09) (9.358178e-06 5.186798e-05 2.271034e-06))
15.401208     	((-8.475081e-03 8.335452e-03 -1.166528e-02) (-1.437062e-03 2.360147e-04 -6.207432e-04)) ((-1.136633e-07 -2.351769e-07 -7.083817e-09) (1.007279e-05 5.238945e-05 2.400638e-06))
15.586756     	((-8.851453e-03 8.808760e-03 -1.192826e-02) (-1.450401e-03 2.543200e-04 -6.177354e-04)) ((-1.174039e-07 -2.394593e-07 -7.356025e-09) (1.079464e-05 5.296820e-05 2.517336e-06))
15.77194      	((-9.254013e-03 9.241101e-03 -1.222969e-02) (-1.465302e-03 2.728907e-04 -6.143109e-04)) ((-1.200963e-07 -2.444229e-07 -7.436667e-09) (1.151414e-05 5.360403e-05 2.618128e-06))
15.956805     	((-9.667454e-03 9.613707e-03 -1.256541e-02) (-1.481870e-03 2.912264e-04 -6.104809e-04)) ((-1.214142e-07 -2.499043e-07 -7.339702e-09) (1.221938e-05 5.429230e-05 2.699653e-06))
16.141431     	((-1.006221e-02 9.902374e-03 -1.292606e-02) (-1.499798e-03 3.088070e-04 -6.061569e-04)) ((-1.210333e-07 -2.552433e-07 -7.204807e-09) (1.289280e-05 5.502371e-05 2.756618e-06))
16.325933     	((-1.043806e-02 1.008452e-02 -1.330916e-02) (-1.518467e-03 3.250492e-04 -6.012468e-04)) ((-1.182216e-07 -2.603601e-07 -7.070010e-09) (1.350998e-05 5.578473e-05 2.791180e-06))
16.510474     	((-1.075575e-02 1.013536e-02 -1.370578e-02) (-1.537095e-03 3.392535e-04 -5.957517e-04)) ((-1.131725e-07 -2.647076e-07 -6.912149e-09) (1.404151e-05 5.655275e-05 2.804404e-06))
16.695234     	((-1.098737e-02 1.002484e-02 -1.411232e-02) (-1.554858e-03 3.508212e-04 -5.899404e-04)) ((-1.053641e-07 -2.672645e-07 -6.661754e-09) (1.446032e-05 5.729355e-05 2.782426e-06))
16.880365     	((-1.111060e-02 9.715653e-03 -1.451180e-02) (-1.570878e-03 3.588056e-04 -5.839039e-04)) ((-9.458659e-08 -2.687672e-07 -6.263962e-09) (1.472850e-05 5.797700e-05 2.713344e-06))
17.066033     	((-1.110405e-02 9.175007e-03 -1.490655e-02) (-1.584529e-03 3.619261e-04 -5.778642e-04)) ((-8.087417e-08 -2.688076e-07 -5.709570e-09) (1.479586e-05 5.856837e-05 2.596155e-06))
17.252442     	((-1.093757e-02 8.402134e-03 -1.527707e-02) (-1.595038e-03 3.589412e-04 -5.720598e-04)) ((-6.552819e-08 -2.666712e-07 -4.556557e-09) (1.461535e-05 5.903853e-05 2.432865e-06))
17.439864     	((-1.059827e-02 7.378976e-03 -1.561303e-02) (-1.601403e-03 3.484112e-04 -5.669277e-04)) ((-4.863201e-08 -2.620123e-07 -2.215362e-09) (1.414798e-05 5.935195e-05 2.247437e-06))
17.628653     	((-1.014174e-02 6.112693e-03 -1.592924e-02) (-1.603381e-03 3.290107e-04 -5.630710e-04)) ((-3.002418e-08 -2.555916e-07 1.120887e-09) (1.336153e-05 5.948458e-05 2.054478e-06))
17.818673     	((-9.639781e-03 4.646010e-03 -1.623748e-02) (-1.601652e-03 3.002709e-04 -5.611259e-04)) ((-9.687930e-09 -2.479369e-07 4.402010e-09) (1.226715e-05 5.944182e-05 1.863980e-06))
18.009018     	((-9.160132e-03 3.070876e-03 -1.653924e-02) (-1.597696e-03 2.638018e-04 -5.617384e-04)) ((1.107898e-08 -2.397068e-07 6.787411e-09) (1.092205e-05 5.924106e-05 1.664516e-06))
