# Forces      
# CofR        : (0.000000e+00 0.000000e+00 0.000000e+00)
# Time        forces(pressure viscous)	moments(pressure viscous)
0             	((0.000000e+00 0.000000e+00 0.000000e+00) (-1.002804e-04 2.849847e-14 -9.753059e-10)) ((0.000000e+00 0.000000e+00 0.000000e+00) (-2.198205e-16 2.253180e-06 -6.342218e-16))
0.012         	((-2.916672e-02 3.980626e-08 3.072842e-03) (-1.150206e-04 1.587829e-10 -9.136693e-08)) ((1.169645e-12 -3.940171e-07 4.642202e-12) (5.303966e-13 3.321204e-06 -2.723325e-12))
0.0264        	((2.134269e-03 -4.842318e-07 -2.006928e-04) (-1.172302e-04 -1.322951e-10 -1.419034e-07)) ((1.126964e-11 2.906260e-08 -4.613060e-12) (-2.266957e-11 3.715840e-06 -5.077162e-12))
0.04368       	((6.040214e-03 4.243311e-07 -1.257050e-04) (-1.040665e-04 -6.607670e-11 -1.298251e-07)) ((-1.565210e-11 9.153373e-08 -6.086338e-12) (-2.520945e-11 3.309886e-06 -2.928598e-12))
0.064416      	((5.682891e-05 3.165589e-08 -1.576645e-04) (-9.213407e-05 -1.841373e-09 -6.560757e-08)) ((5.307346e-12 -9.725425e-10 -2.673437e-13) (-6.879105e-12 2.973462e-06 -1.252338e-11))
0.0892992     	((-6.937345e-05 6.517860e-08 -1.004074e-04) (-8.503337e-05 -2.891189e-09 -5.508581e-08)) ((-4.638062e-12 -3.924488e-09 -4.806613e-13) (5.769556e-13 2.811448e-06 -4.746479e-12))
0.119159      	((9.492172e-05 -5.434183e-08 -6.750380e-05) (-7.850808e-05 -2.238077e-09 -1.039636e-07)) ((4.118025e-12 1.708815e-09 -3.574083e-13) (-8.180670e-12 2.632158e-06 2.216775e-11))
0.154991      	((4.906606e-05 4.810281e-08 -4.776678e-05) (-7.163250e-05 -2.167566e-09 -1.396754e-07)) ((-1.658686e-12 9.961375e-10 -1.021780e-12) (-1.334990e-11 2.433743e-06 6.139370e-11))
0.197989      	((1.159091e-05 -3.321906e-08 -3.525754e-05) (-6.475166e-05 -1.985405e-09 -1.726120e-07)) ((-4.031134e-13 2.994684e-10 4.873137e-13) (-1.377129e-11 2.232728e-06 9.472251e-11))
0.249587      	((-1.816502e-06 -2.234835e-08 -2.746680e-05) (-5.807559e-05 -1.792001e-09 -2.127227e-07)) ((8.060503e-13 6.709368e-11 1.027738e-12) (-1.887768e-11 2.033424e-06 1.029536e-10))
0.311504      	((-7.794495e-06 -1.200545e-08 -2.281442e-05) (-5.180208e-05 -1.729097e-09 -2.595672e-07)) ((6.088548e-13 -1.907478e-11 1.595841e-13) (-1.949580e-11 1.839955e-06 1.003743e-10))
0.385805      	((-1.104184e-05 -5.438533e-09 -1.976642e-05) (-4.609145e-05 -1.640539e-09 -3.091518e-07)) ((6.925748e-14 -4.255800e-11 1.404125e-13) (-1.761438e-11 1.657147e-06 9.318948e-11))
0.474966      	((-1.281151e-05 -3.920682e-09 -1.782214e-05) (-4.102537e-05 -1.456957e-09 -3.579566e-07)) ((1.923139e-13 -6.227712e-11 1.514478e-13) (-1.510901e-11 1.489168e-06 8.202368e-11))
0.581959      	((-1.354458e-05 -2.228503e-09 -1.654015e-05) (-3.656944e-05 -1.113747e-09 -4.066222e-07)) ((1.073554e-13 -7.846989e-11 9.665713e-14) (-1.234516e-11 1.336807e-06 6.514865e-11))
0.710351      	((-1.353572e-05 -1.884768e-09 -1.575001e-05) (-3.266665e-05 -8.069579e-10 -4.494803e-07)) ((1.786178e-13 -8.897960e-11 7.148407e-14) (-1.003621e-11 1.200056e-06 4.810659e-11))
0.864421      	((-1.305622e-05 -1.634829e-09 -1.523414e-05) (-2.926502e-05 -5.855731e-10 -4.851807e-07)) ((2.067345e-13 -9.372894e-11 4.377792e-14) (-8.464535e-12 1.078699e-06 3.262233e-11))
1.049306      	((-1.234348e-05 -1.518182e-09 -1.491009e-05) (-2.630289e-05 -4.244825e-10 -5.183064e-07)) ((1.916495e-13 -9.371784e-11 -1.333018e-15) (-7.619773e-12 9.714435e-07 2.149573e-11))
1.271167      	((-1.151840e-05 -8.667660e-10 -1.468285e-05) (-2.371647e-05 -2.898631e-10 -5.545124e-07)) ((1.512164e-13 -9.142113e-11 -1.900404e-14) (-7.165563e-12 8.766683e-07 1.368422e-11))
1.5374        	((-1.064841e-05 -6.617417e-10 -1.453748e-05) (-2.144322e-05 -1.957910e-10 -5.968825e-07)) ((1.323279e-13 -8.672725e-11 -2.820207e-14) (-7.118211e-12 7.928293e-07 8.860249e-12))
1.85688       	((-9.797109e-06 -6.751450e-10 -1.442421e-05) (-1.943354e-05 -1.360497e-10 -6.456073e-07)) ((1.172693e-13 -8.219081e-11 -2.660060e-14) (-7.520068e-12 7.185395e-07 6.445857e-12))
2.240256      	((-9.004027e-06 -8.380601e-10 -1.433019e-05) (-1.765011e-05 -9.440845e-11 -6.993548e-07)) ((1.066120e-13 -7.904512e-11 -2.287827e-14) (-8.336006e-12 6.525812e-07 5.797901e-12))
2.700307      	((-8.280295e-06 -7.770939e-10 -1.423676e-05) (-1.606407e-05 -6.970743e-11 -7.570835e-07)) ((1.013857e-13 -7.662910e-11 -2.085468e-14) (-9.376076e-12 5.939119e-07 6.141723e-12))
3.252369      	((-7.621475e-06 -1.007391e-09 -1.414203e-05) (-1.464992e-05 -5.318846e-11 -8.188013e-07)) ((9.788299e-14 -7.475273e-11 -1.099663e-14) (-1.047772e-11 5.415857e-07 6.631454e-12))
3.914842      	((-7.031733e-06 -1.389599e-09 -1.404213e-05) (-1.338616e-05 -6.072477e-11 -8.847868e-07)) ((1.304081e-13 -7.345309e-11 -1.030146e-14) (-1.275918e-11 4.948118e-07 6.956956e-12))
4.709811      	((-6.514206e-06 -1.426791e-09 -1.393758e-05) (-1.225853e-05 -7.920197e-11 -9.546474e-07)) ((1.346310e-13 -7.321483e-11 -1.543088e-14) (-1.554664e-11 4.530599e-07 7.078213e-12))
5.663773      	((-6.073273e-06 -9.966145e-10 -1.382295e-05) (-1.125651e-05 -7.931991e-11 -1.027688e-06)) ((1.505613e-13 -7.419029e-11 -2.466068e-14) (-1.827218e-11 4.159410e-07 6.013846e-12))
6.808528      	((-5.704782e-06 -1.409170e-09 -1.369330e-05) (-1.036889e-05 -8.722011e-11 -1.103517e-06)) ((1.843227e-13 -7.596202e-11 -2.999150e-14) (-2.186987e-11 3.830433e-07 4.626582e-12))
8.182233      	((-5.408619e-06 -1.929284e-09 -1.354672e-05) (-9.583429e-06 -1.180279e-10 -1.181947e-06)) ((2.269725e-13 -7.849998e-11 -2.633352e-14) (-2.675111e-11 3.539206e-07 3.545697e-12))
9.83068       	((-5.186011e-06 -2.159162e-09 -1.338073e-05) (-8.888763e-06 -1.638056e-10 -1.262801e-06)) ((2.281740e-13 -8.199381e-11 -1.926822e-14) (-3.147490e-11 3.281567e-07 3.917087e-12))
11.808816     	((-5.037523e-06 -3.004922e-09 -1.319783e-05) (-8.275077e-06 -2.739908e-10 -1.345580e-06)) ((2.719574e-13 -8.645052e-11 -2.503110e-14) (-3.764318e-11 3.053894e-07 6.298252e-12))
14.182579     	((-4.962715e-06 -2.926971e-09 -1.299563e-05) (-7.734310e-06 -3.633863e-10 -1.429027e-06)) ((2.719067e-13 -9.212190e-11 -3.286113e-14) (-4.357646e-11 2.853206e-07 8.976547e-12))
17.031095     	((-4.960129e-06 -2.593932e-09 -1.277494e-05) (-7.260475e-06 -4.012116e-10 -1.511388e-06)) ((2.411426e-13 -9.893255e-11 -3.578203e-14) (-4.688835e-11 2.677351e-07 1.170192e-11))
20.449314     	((-5.023110e-06 -2.405492e-09 -1.253337e-05) (-6.848914e-06 -4.228490e-10 -1.590686e-06)) ((2.041169e-13 -1.067591e-10 -3.843922e-14) (-4.794204e-11 2.524880e-07 1.471688e-11))
24.551176     	((-5.146497e-06 -2.422844e-09 -1.227763e-05) (-6.495782e-06 -4.370669e-10 -1.665111e-06)) ((1.811670e-13 -1.157651e-10 -4.398604e-14) (-4.698000e-11 2.394791e-07 1.806060e-11))
29.473411     	((-5.322548e-06 -2.185117e-09 -1.200151e-05) (-6.198325e-06 -4.440659e-10 -1.733930e-06)) ((1.256687e-13 -1.258342e-10 -5.110638e-14) (-4.428329e-11 2.286094e-07 2.343471e-11))
35.380094     	((-5.538279e-06 -1.510600e-09 -1.171027e-05) (-5.952671e-06 -4.410478e-10 -1.796288e-06)) ((9.056662e-14 -1.365931e-10 -5.702103e-14) (-4.037326e-11 2.197930e-07 2.965579e-11))
42.451824     	((-5.775792e-06 -1.518464e-09 -1.140417e-05) (-5.754771e-06 -4.643997e-10 -1.851248e-06)) ((9.370296e-14 -1.468464e-10 -6.071890e-14) (-3.662509e-11 2.128598e-07 3.381063e-11))
50.678854     	((-6.015483e-06 -1.363970e-09 -1.108138e-05) (-5.602042e-06 -4.486029e-10 -1.895697e-06)) ((6.826098e-14 -1.556276e-10 -5.855774e-14) (-3.256192e-11 2.076133e-07 3.593675e-11))
60.052381     	((-6.226527e-06 -1.063141e-09 -1.073426e-05) (-5.484262e-06 -3.782834e-10 -1.926496e-06)) ((7.788316e-14 -1.621939e-10 -5.777887e-14) (-2.761787e-11 2.035889e-07 3.655844e-11))
70.568767     	((-6.397025e-06 -5.029035e-10 -1.036164e-05) (-5.389629e-06 -2.356825e-10 -1.943219e-06)) ((4.184275e-14 -1.670329e-10 -5.890995e-14) (-2.120010e-11 2.003196e-07 3.398208e-11))
81.992783     	((-6.522556e-06 2.214220e-10 -9.987650e-06) (-5.310689e-06 -1.436727e-11 -1.948708e-06)) ((2.395040e-15 -1.707787e-10 -5.953799e-14) (-1.326224e-11 1.975857e-07 3.108276e-11))
93.455972     	((-6.613190e-06 8.921693e-10 -9.656811e-06) (-5.244685e-06 2.070195e-10 -1.947662e-06)) ((-3.087993e-14 -1.737165e-10 -6.018820e-14) (-4.979445e-12 1.953408e-07 2.869539e-11))
104.956323    	((-6.657616e-06 1.058630e-09 -9.359670e-06) (-5.187362e-06 4.155017e-10 -1.944397e-06)) ((-3.804319e-14 -1.756444e-10 -5.998267e-14) (2.483417e-12 1.934335e-07 2.643368e-11))
116.473155    	((-6.673405e-06 8.468476e-10 -9.091973e-06) (-5.137178e-06 5.525820e-10 -1.940631e-06)) ((-2.092877e-14 -1.767754e-10 -5.692280e-14) (7.167158e-12 1.917973e-07 2.505209e-11))
127.995165    	((-6.669630e-06 2.243722e-10 -8.847614e-06) (-5.092813e-06 6.229098e-10 -1.936999e-06)) ((1.561692e-14 -1.771230e-10 -5.903316e-14) (8.136734e-12 1.903704e-07 2.337082e-11))
139.522954    	((-6.656909e-06 -2.006826e-10 -8.623667e-06) (-5.053179e-06 6.498277e-10 -1.933958e-06)) ((2.725064e-14 -1.769801e-10 -5.625380e-14) (7.438616e-12 1.890993e-07 2.160468e-11))
151.058853    	((-6.641256e-06 -7.646212e-10 -8.421177e-06) (-5.017660e-06 6.395952e-10 -1.931687e-06)) ((4.460093e-14 -1.766007e-10 -5.512925e-14) (5.252955e-12 1.879557e-07 1.871239e-11))
162.602577    	((-6.625153e-06 -1.293015e-09 -8.240315e-06) (-4.985956e-06 5.981149e-10 -1.930082e-06)) ((6.152069e-14 -1.761429e-10 -5.704551e-14) (2.194591e-12 1.869297e-07 1.612266e-11))
174.152877    	((-6.608884e-06 -1.966698e-09 -8.077095e-06) (-4.957588e-06 5.280671e-10 -1.928928e-06)) ((8.551700e-14 -1.756407e-10 -5.503891e-14) (-1.860789e-12 1.860095e-07 1.405478e-11))
185.70901     	((-6.593914e-06 -2.549295e-09 -7.928349e-06) (-4.932214e-06 4.348566e-10 -1.928149e-06)) ((1.072523e-13 -1.751311e-10 -5.304981e-14) (-6.591528e-12 1.851833e-07 1.251618e-11))
197.270527    	((-6.578883e-06 -3.217220e-09 -7.793587e-06) (-4.909452e-06 3.262685e-10 -1.927758e-06)) ((1.237105e-13 -1.746184e-10 -5.278501e-14) (-1.164375e-11 1.844386e-07 1.183514e-11))
208.836946    	((-6.565578e-06 -3.793042e-09 -7.671400e-06) (-4.889088e-06 2.130678e-10 -1.927611e-06)) ((1.338991e-13 -1.741510e-10 -5.235748e-14) (-1.661296e-11 1.837709e-07 1.122531e-11))
220.407787    	((-6.552111e-06 -4.442107e-09 -7.561004e-06) (-4.870814e-06 9.831710e-11 -1.927696e-06)) ((1.470238e-13 -1.736785e-10 -4.980015e-14) (-2.146750e-11 1.831697e-07 1.082071e-11))
231.982632    	((-6.539423e-06 -5.131792e-09 -7.460206e-06) (-4.854371e-06 -1.473386e-11 -1.927866e-06)) ((1.597554e-13 -1.732660e-10 -4.776423e-14) (-2.672365e-11 1.826296e-07 1.024637e-11))
243.561124    	((-6.528250e-06 -5.770231e-09 -7.369591e-06) (-4.839634e-06 -1.304997e-10 -1.927997e-06)) ((1.761574e-13 -1.729099e-10 -4.721413e-14) (-3.222707e-11 1.821494e-07 9.236339e-12))
255.14293     	((-6.517729e-06 -6.431834e-09 -7.287054e-06) (-4.826413e-06 -2.543777e-10 -1.928075e-06)) ((1.926814e-13 -1.725770e-10 -4.665491e-14) (-3.819225e-11 1.817222e-07 7.950617e-12))
266.727591    	((-6.507211e-06 -7.096504e-09 -7.211642e-06) (-4.814476e-06 -3.779063e-10 -1.928135e-06)) ((2.086417e-13 -1.722527e-10 -4.462551e-14) (-4.444726e-11 1.813387e-07 6.312785e-12))
278.314461    	((-6.497420e-06 -7.751739e-09 -7.142312e-06) (-4.803667e-06 -5.006485e-10 -1.928198e-06)) ((2.255634e-13 -1.719542e-10 -4.230323e-14) (-5.073657e-11 1.809922e-07 4.405915e-12))
289.903345    	((-6.488021e-06 -8.397832e-09 -7.078733e-06) (-4.793840e-06 -6.226752e-10 -1.928270e-06)) ((2.410795e-13 -1.716772e-10 -4.061540e-14) (-5.699793e-11 1.806777e-07 2.488587e-12))
301.494068    	((-6.479350e-06 -9.048495e-09 -7.020014e-06) (-4.784892e-06 -7.462094e-10 -1.928328e-06)) ((2.572484e-13 -1.714325e-10 -3.977844e-14) (-6.324415e-11 1.803921e-07 5.136704e-13))
313.086475    	((-6.471558e-06 -9.663199e-09 -6.966196e-06) (-4.776764e-06 -8.671360e-10 -1.928334e-06)) ((2.699027e-13 -1.712171e-10 -3.927521e-14) (-6.937296e-11 1.801344e-07 -1.534241e-12))
324.680425    	((-6.464245e-06 -1.032606e-08 -6.916652e-06) (-4.769370e-06 -9.901768e-10 -1.928292e-06)) ((2.845583e-13 -1.710169e-10 -4.000025e-14) (-7.550819e-11 1.799017e-07 -3.524409e-12))
336.275792    	((-6.457557e-06 -1.094071e-08 -6.871161e-06) (-4.762638e-06 -1.110815e-09 -1.928216e-06)) ((2.985103e-13 -1.708312e-10 -4.025260e-14) (-8.148753e-11 1.796913e-07 -5.513991e-12))
347.872458    	((-6.451220e-06 -1.151808e-08 -6.829137e-06) (-4.756496e-06 -1.229726e-09 -1.928119e-06)) ((3.123716e-13 -1.706550e-10 -3.959124e-14) (-8.732976e-11 1.795004e-07 -7.432994e-12))
359.47032     	((-6.445394e-06 -1.207179e-08 -6.790392e-06) (-4.750885e-06 -1.344203e-09 -1.928010e-06)) ((3.248002e-13 -1.704935e-10 -3.921087e-14) (-9.293378e-11 1.793270e-07 -9.398307e-12))
371.069281    	((-6.439957e-06 -1.263833e-08 -6.754568e-06) (-4.745754e-06 -1.454698e-09 -1.927887e-06)) ((3.381014e-13 -1.703432e-10 -3.921920e-14) (-9.842326e-11 1.791691e-07 -1.132531e-11))
382.669255    	((-6.434925e-06 -1.315824e-08 -6.721413e-06) (-4.741055e-06 -1.560279e-09 -1.927756e-06)) ((3.497641e-13 -1.702039e-10 -3.888001e-14) (-1.037576e-10 1.790253e-07 -1.320522e-11))
394.270163    	((-6.430184e-06 -1.368467e-08 -6.690764e-06) (-4.736744e-06 -1.660803e-09 -1.927623e-06)) ((3.602586e-13 -1.700730e-10 -3.809783e-14) (-1.088990e-10 1.788939e-07 -1.506960e-11))
405.871933    	((-6.425779e-06 -1.419474e-08 -6.662500e-06) (-4.732785e-06 -1.757173e-09 -1.927491e-06)) ((3.704106e-13 -1.699524e-10 -3.691564e-14) (-1.139015e-10 1.787737e-07 -1.694640e-11))
417.4745      	((-6.421553e-06 -1.468227e-08 -6.636203e-06) (-4.729135e-06 -1.848023e-09 -1.927360e-06)) ((3.796644e-13 -1.698403e-10 -3.613868e-14) (-1.187078e-10 1.786634e-07 -1.883283e-11))
429.077803    	((-6.417574e-06 -1.516903e-08 -6.611712e-06) (-4.725760e-06 -1.935517e-09 -1.927230e-06)) ((3.889647e-13 -1.697388e-10 -3.545322e-14) (-1.233213e-10 1.785618e-07 -2.071558e-11))
440.681786    	((-6.413869e-06 -1.563281e-08 -6.588971e-06) (-4.722638e-06 -2.019882e-09 -1.927090e-06)) ((3.973919e-13 -1.696505e-10 -3.519542e-14) (-1.277434e-10 1.784686e-07 -2.261935e-11))
452.286399    	((-6.410404e-06 -1.612640e-08 -6.567791e-06) (-4.719751e-06 -2.104333e-09 -1.926933e-06)) ((4.062613e-13 -1.695725e-10 -3.505729e-14) (-1.320946e-10 1.783833e-07 -2.445124e-11))
463.891595    	((-6.407113e-06 -1.660018e-08 -6.548027e-06) (-4.717076e-06 -2.188230e-09 -1.926760e-06)) ((4.148759e-13 -1.695024e-10 -3.511580e-14) (-1.363584e-10 1.783051e-07 -2.623419e-11))
475.497332    	((-6.404084e-06 -1.707001e-08 -6.529608e-06) (-4.714599e-06 -2.271701e-09 -1.926569e-06)) ((4.223172e-13 -1.694432e-10 -3.526384e-14) (-1.404766e-10 1.782337e-07 -2.795834e-11))
487.103569    	((-6.401253e-06 -1.752476e-08 -6.512420e-06) (-4.712306e-06 -2.353797e-09 -1.926362e-06)) ((4.298482e-13 -1.693905e-10 -3.548758e-14) (-1.444812e-10 1.781685e-07 -2.962242e-11))
498.71027     	((-6.398637e-06 -1.796595e-08 -6.496425e-06) (-4.710184e-06 -2.434362e-09 -1.926139e-06)) ((4.366718e-13 -1.693452e-10 -3.561679e-14) (-1.483525e-10 1.781090e-07 -3.123080e-11))
510.3174      	((-6.396215e-06 -1.840001e-08 -6.481545e-06) (-4.708222e-06 -2.513364e-09 -1.925906e-06)) ((4.433141e-13 -1.693044e-10 -3.577735e-14) (-1.520836e-10 1.780545e-07 -3.274421e-11))
521.924931    	((-6.393934e-06 -1.885265e-08 -6.467676e-06) (-4.706403e-06 -2.592085e-09 -1.925670e-06)) ((4.503740e-13 -1.692675e-10 -3.599413e-14) (-1.558150e-10 1.780044e-07 -3.422029e-11))
533.532831    	((-6.391796e-06 -1.930803e-08 -6.454761e-06) (-4.704715e-06 -2.671703e-09 -1.925434e-06)) ((4.572216e-13 -1.692348e-10 -3.606301e-14) (-1.595600e-10 1.779583e-07 -3.566510e-11))
545.141073    	((-6.389767e-06 -1.974365e-08 -6.442688e-06) (-4.703145e-06 -2.750326e-09 -1.925201e-06)) ((4.638898e-13 -1.692048e-10 -3.611573e-14) (-1.632568e-10 1.779157e-07 -3.708421e-11))
556.74963     	((-6.387904e-06 -2.018706e-08 -6.431447e-06) (-4.701687e-06 -2.828363e-09 -1.924970e-06)) ((4.707479e-13 -1.691792e-10 -3.603775e-14) (-1.669390e-10 1.778763e-07 -3.850041e-11))
568.35848     	((-6.386154e-06 -2.063580e-08 -6.420946e-06) (-4.700330e-06 -2.907311e-09 -1.924743e-06)) ((4.778487e-13 -1.691566e-10 -3.595813e-14) (-1.706519e-10 1.778400e-07 -3.988226e-11))
579.967601    	((-6.384574e-06 -2.108504e-08 -6.411173e-06) (-4.699073e-06 -2.987127e-09 -1.924517e-06)) ((4.848573e-13 -1.691375e-10 -3.586231e-14) (-1.743778e-10 1.778066e-07 -4.121932e-11))
591.57697     	((-6.383101e-06 -2.153243e-08 -6.402068e-06) (-4.697907e-06 -3.067672e-09 -1.924295e-06)) ((4.918385e-13 -1.691207e-10 -3.573352e-14) (-1.781117e-10 1.777759e-07 -4.250945e-11))
603.18657     	((-6.381731e-06 -2.198740e-08 -6.393593e-06) (-4.696828e-06 -3.149467e-09 -1.924078e-06)) ((4.988830e-13 -1.691049e-10 -3.563952e-14) (-1.818661e-10 1.777476e-07 -4.375318e-11))
614.796382    	((-6.380398e-06 -2.245305e-08 -6.385654e-06) (-4.695823e-06 -3.232948e-09 -1.923871e-06)) ((5.062142e-13 -1.690890e-10 -3.553446e-14) (-1.856754e-10 1.777213e-07 -4.495994e-11))
626.406389    	((-6.379157e-06 -2.292053e-08 -6.378242e-06) (-4.694888e-06 -3.317794e-09 -1.923673e-06)) ((5.134235e-13 -1.690746e-10 -3.544405e-14) (-1.895278e-10 1.776968e-07 -4.613175e-11))
638.016576    	((-6.377973e-06 -2.340099e-08 -6.371327e-06) (-4.694017e-06 -3.404532e-09 -1.923486e-06)) ((5.208452e-13 -1.690607e-10 -3.537277e-14) (-1.934424e-10 1.776740e-07 -4.726711e-11))
649.626927    	((-6.376862e-06 -2.388835e-08 -6.364863e-06) (-4.693205e-06 -3.493324e-09 -1.923308e-06)) ((5.283079e-13 -1.690478e-10 -3.534388e-14) (-1.974269e-10 1.776527e-07 -4.836959e-11))
661.23743     	((-6.375817e-06 -2.438663e-08 -6.358837e-06) (-4.692447e-06 -3.584338e-09 -1.923138e-06)) ((5.358615e-13 -1.690359e-10 -3.532260e-14) (-2.014797e-10 1.776329e-07 -4.944541e-11))
672.848071    	((-6.374845e-06 -2.489711e-08 -6.353198e-06) (-4.691740e-06 -3.677760e-09 -1.922975e-06)) ((5.436269e-13 -1.690255e-10 -3.529862e-14) (-2.056108e-10 1.776145e-07 -5.049962e-11))
684.458837    	((-6.373939e-06 -2.541744e-08 -6.347931e-06) (-4.691083e-06 -3.773667e-09 -1.922818e-06)) ((5.514986e-13 -1.690160e-10 -3.524700e-14) (-2.098260e-10 1.775974e-07 -5.153561e-11))
696.069718    	((-6.373094e-06 -2.594154e-08 -6.343015e-06) (-4.690470e-06 -3.871570e-09 -1.922667e-06)) ((5.594225e-13 -1.690074e-10 -3.520058e-14) (-2.141091e-10 1.775816e-07 -5.255828e-11))
707.680703    	((-6.372292e-06 -2.647165e-08 -6.338414e-06) (-4.689899e-06 -3.971261e-09 -1.922523e-06)) ((5.674838e-13 -1.689994e-10 -3.513663e-14) (-2.184582e-10 1.775669e-07 -5.356916e-11))
719.291781    	((-6.371546e-06 -2.700867e-08 -6.334122e-06) (-4.689367e-06 -4.072707e-09 -1.922385e-06)) ((5.756767e-13 -1.689922e-10 -3.508416e-14) (-2.228756e-10 1.775532e-07 -5.457020e-11))
