# Forces      
# CofR        : (0.000000e+00 0.000000e+00 0.000000e+00)
# Time        forces(pressure viscous)	moments(pressure viscous)
0             	((0.000000e+00 0.000000e+00 0.000000e+00) (0.000000e+00 0.000000e+00 0.000000e+00)) ((0.000000e+00 0.000000e+00 0.000000e+00) (0.000000e+00 0.000000e+00 0.000000e+00))
0.012         	((-1.781820e-07 6.488359e-12 -6.063408e-08) (-4.180974e-07 8.125833e-16 -3.795680e-11)) ((-2.747508e-15 2.697134e-11 -2.189089e-15) (-4.565579e-16 2.782295e-08 -1.813103e-16))
0.0264        	((-2.457342e-07 1.437027e-10 -7.938464e-08) (-3.829826e-07 4.372902e-14 -2.318672e-11)) ((-1.420208e-15 -1.387753e-11 -5.441201e-16) (-1.642308e-15 2.551356e-08 1.236440e-15))
0.04368       	((-1.635654e-07 -8.681439e-11 -5.433829e-08) (-3.467452e-07 -3.265064e-14 -3.826500e-13)) ((-3.159383e-15 -1.003992e-11 -1.613752e-15) (-4.284068e-15 2.313766e-08 4.619638e-15))
0.064416      	((-1.872132e-07 1.022185e-10 -6.066669e-08) (-3.101834e-07 -7.688610e-14 1.505629e-11)) ((-1.565289e-15 -1.931985e-11 3.062205e-16) (-8.217156e-15 2.074867e-08 5.457942e-15))
0.0892992     	((-1.370639e-07 -4.461949e-11 -4.548495e-08) (-2.743366e-07 -9.284864e-14 1.680555e-11)) ((-9.689051e-16 -1.379215e-11 -1.067125e-15) (-1.318500e-14 1.841486e-08 2.886596e-15))
0.119159      	((-1.414559e-07 5.041523e-11 -4.514857e-08) (-2.403520e-07 -3.043858e-14 1.153789e-11)) ((-1.268970e-15 -1.674539e-11 -4.471215e-17) (-1.190082e-14 1.621257e-08 -6.536928e-16))
0.154991      	((-1.062285e-07 -2.549971e-11 -3.563367e-08) (-2.092962e-07 6.755440e-15 9.284957e-12)) ((3.605206e-16 -1.170584e-11 -7.319902e-17) (-1.195164e-14 1.418828e-08 -6.481902e-15))
0.197989      	((-1.051224e-07 1.890274e-11 -3.323987e-08) (-1.818119e-07 2.332657e-14 6.012665e-12)) ((6.372566e-16 -1.316967e-11 9.461388e-17) (-1.139161e-14 1.239508e-08 -1.164006e-14))
0.249587      	((-8.145884e-08 -1.013747e-11 -2.732738e-08) (-1.583855e-07 5.209994e-14 1.198562e-12)) ((3.961747e-16 -9.421027e-12 -3.742230e-17) (-9.388130e-15 1.085512e-08 -1.422213e-14))
0.311504      	((-7.921788e-08 2.919003e-12 -2.491074e-08) (-1.389107e-07 5.408771e-14 -2.560500e-12)) ((1.102134e-15 -1.038226e-11 -1.025827e-16) (-1.065358e-14 9.569360e-09 -1.416458e-14))
0.385805      	((-6.376770e-08 -1.893246e-12 -2.134301e-08) (-1.228213e-07 3.737653e-14 -5.198004e-12)) ((2.527858e-16 -7.730892e-12 -1.432602e-16) (-1.000867e-14 8.505952e-09 -1.424061e-14))
0.474966      	((-6.188052e-08 2.401332e-12 -1.946755e-08) (-1.095137e-07 4.930599e-14 -8.231249e-12)) ((1.104051e-15 -8.393797e-12 -9.144879e-17) (-8.584656e-15 7.627844e-09 -1.882330e-14))
0.581959      	((-5.151425e-08 4.298464e-13 -1.718547e-08) (-9.831270e-08 7.847971e-14 -1.104081e-11)) ((1.767123e-16 -6.476014e-12 1.259655e-16) (5.997345e-16 6.888140e-09 -1.461736e-14))
0.710351      	((-4.993632e-08 -1.595322e-12 -1.570324e-08) (-8.869196e-08 3.603182e-14 -1.025169e-11)) ((1.502672e-15 -6.970622e-12 1.834240e-16) (4.704999e-15 6.254991e-09 -2.452663e-16))
0.864421      	((-4.252872e-08 2.674358e-12 -1.414042e-08) (-8.023344e-08 4.683110e-15 -1.297258e-11)) ((7.818800e-16 -5.620217e-12 2.172776e-16) (4.915548e-15 5.698806e-09 1.393468e-15))
1.049306      	((-4.091369e-08 5.403144e-13 -1.287890e-08) (-7.270084e-08 -5.808173e-15 -1.333368e-11)) ((1.817704e-15 -6.002803e-12 2.074758e-16) (-1.436282e-14 5.205912e-09 -8.980639e-15))
1.271167      	((-3.518859e-08 2.786195e-12 -1.164292e-08) (-6.590179e-08 7.189915e-14 -1.608984e-11)) ((1.306688e-15 -5.066110e-12 7.837964e-16) (-3.302546e-14 4.761528e-09 -2.195940e-14))
1.5374        	((-3.344570e-08 3.128495e-12 -1.057816e-08) (-5.976564e-08 9.983654e-14 -1.754037e-11)) ((2.296542e-15 -5.271016e-12 1.159438e-15) (-5.082324e-14 4.360906e-09 -3.006265e-14))
1.85688       	((-2.897808e-08 3.154581e-12 -9.573696e-09) (-5.422013e-08 2.206000e-13 -2.184588e-11)) ((2.252374e-15 -4.572457e-12 1.096147e-15) (-6.906964e-14 3.999475e-09 -3.044726e-14))
2.240256      	((-2.717269e-08 2.415443e-12 -8.692240e-09) (-4.924107e-08 2.360824e-13 -2.234472e-11)) ((2.971404e-15 -4.639830e-12 9.173333e-16) (-1.002300e-13 3.674746e-09 -2.486727e-14))
2.700307      	((-2.382351e-08 2.013517e-12 -7.916494e-09) (-4.483233e-08 1.477103e-13 -2.221073e-11)) ((2.523723e-15 -4.143764e-12 1.042560e-15) (-1.541905e-13 3.387565e-09 1.470970e-15))
3.252369      	((-2.218426e-08 4.914165e-12 -7.215454e-09) (-4.093787e-08 7.891875e-14 -2.179615e-11)) ((2.932732e-15 -4.157050e-12 9.798587e-16) (-2.110367e-13 3.133542e-09 6.622493e-14))
3.914842      	((-1.977906e-08 -6.615207e-13 -6.602658e-09) (-3.751728e-08 -1.529033e-13 -1.911663e-11)) ((2.379485e-15 -3.871830e-12 1.207338e-15) (-2.629261e-13 2.911121e-09 1.505876e-13))
4.709811      	((-1.830663e-08 -2.366292e-14 -6.054970e-09) (-3.450773e-08 -1.431964e-13 -1.858683e-11)) ((1.970180e-15 -3.842645e-12 1.638813e-15) (-2.887330e-13 2.715799e-09 2.186225e-13))
5.663773      	((-1.655610e-08 -5.215383e-13 -5.578055e-09) (-3.183592e-08 4.419109e-14 -2.183638e-11)) ((1.232277e-15 -3.656935e-12 1.911912e-15) (-2.793687e-13 2.542786e-09 2.600644e-13))
6.808528      	((-1.526877e-08 4.408472e-12 -5.134749e-09) (-2.943822e-08 4.107457e-13 -2.697450e-11)) ((1.987158e-15 -3.579534e-12 2.018662e-15) (-2.589448e-13 2.388001e-09 2.677014e-13))
8.182233      	((-1.391470e-08 4.484329e-12 -4.751560e-09) (-2.726360e-08 7.105195e-13 -3.286688e-11)) ((1.583157e-15 -3.459641e-12 1.888220e-15) (-2.525004e-13 2.248385e-09 2.595846e-13))
9.83068       	((-1.275965e-08 4.865567e-12 -4.386707e-09) (-2.527408e-08 8.818171e-13 -3.746445e-11)) ((1.915090e-15 -3.374938e-12 1.716631e-15) (-2.477563e-13 2.121364e-09 2.479840e-13))
11.808816     	((-1.167048e-08 3.212558e-12 -4.071895e-09) (-2.344921e-08 9.516788e-13 -3.941683e-11)) ((1.150299e-15 -3.287189e-12 1.521557e-15) (-2.245719e-13 2.005598e-09 2.190026e-13))
14.182579     	((-1.071654e-08 3.264995e-12 -3.777491e-09) (-2.177297e-08 1.209107e-12 -4.063302e-11)) ((1.159265e-15 -3.203325e-12 1.323999e-15) (-1.858775e-13 1.899840e-09 1.848096e-13))
17.031095     	((-9.824602e-09 3.335605e-12 -3.507013e-09) (-2.023164e-08 1.440868e-12 -4.071761e-11)) ((8.292758e-16 -3.135741e-12 1.147841e-15) (-1.509949e-13 1.803490e-09 1.469452e-13))
20.449314     	((-9.026073e-09 3.705603e-12 -3.253474e-09) (-1.881830e-08 1.650466e-12 -4.198670e-11)) ((9.031231e-16 -3.067809e-12 9.338016e-16) (-1.154582e-13 1.715832e-09 9.693014e-14))
24.551176     	((-8.277721e-09 2.470737e-12 -3.020505e-09) (-1.752397e-08 1.783052e-12 -4.150185e-11)) ((7.649040e-16 -3.018726e-12 7.125469e-16) (-8.742300e-14 1.636120e-09 5.274054e-14))
29.473411     	((-7.603802e-09 2.045052e-12 -2.810692e-09) (-1.634089e-08 1.787567e-12 -4.088190e-11)) ((8.294373e-16 -2.971053e-12 5.710950e-16) (-6.738807e-14 1.563742e-09 1.820577e-14))
35.380094     	((-6.979848e-09 1.782126e-12 -2.625514e-09) (-1.526105e-08 1.793467e-12 -4.037194e-11)) ((8.118989e-16 -2.933888e-12 4.840841e-16) (-5.749774e-14 1.498046e-09 -3.748042e-15))
42.468112     	((-6.418663e-09 1.748881e-12 -2.463042e-09) (-1.427412e-08 1.759585e-12 -4.083534e-11)) ((8.410632e-16 -2.898324e-12 3.842073e-16) (-5.682309e-14 1.438279e-09 -1.339741e-14))
50.973735     	((-5.898657e-09 1.814359e-12 -2.321878e-09) (-1.337191e-08 1.745217e-12 -4.180493e-11)) ((7.914995e-16 -2.869178e-12 2.948363e-16) (-5.821666e-14 1.383908e-09 -1.793184e-14))
61.180482     	((-5.428635e-09 1.731372e-12 -2.189337e-09) (-1.254855e-08 1.700654e-12 -4.243847e-11)) ((7.900910e-16 -2.842068e-12 1.939720e-16) (-6.088036e-14 1.334522e-09 -1.618630e-14))
73.428578     	((-4.999201e-09 1.057015e-12 -2.076729e-09) (-1.179801e-08 1.491590e-12 -4.190030e-11)) ((8.021985e-16 -2.819807e-12 1.950406e-16) (-6.438505e-14 1.289833e-09 -1.557351e-14))
88.126294     	((-4.610391e-09 4.110052e-13 -1.973447e-09) (-1.111523e-08 1.227043e-12 -4.072882e-11)) ((7.338669e-16 -2.800055e-12 2.280276e-16) (-7.129785e-14 1.249508e-09 -1.707797e-14))
105.763553    	((-4.268869e-09 8.483404e-14 -1.882623e-09) (-1.049613e-08 9.797153e-13 -3.913853e-11)) ((5.983848e-16 -2.783955e-12 2.709616e-16) (-8.176752e-14 1.213248e-09 -1.289587e-14))
126.928263    	((-3.959948e-09 -2.064630e-13 -1.800714e-09) (-9.936110e-09 8.356544e-13 -3.765163e-11)) ((5.632998e-16 -2.770361e-12 3.232698e-16) (-8.869381e-14 1.180735e-09 -6.656763e-15))
152.325916    	((-3.686150e-09 -4.275159e-13 -1.718038e-09) (-9.429982e-09 7.408829e-13 -3.676178e-11)) ((5.390128e-16 -2.759296e-12 3.517044e-16) (-9.229532e-14 1.151604e-09 -2.813803e-15))
182.803099    	((-3.443241e-09 -6.153389e-13 -1.645026e-09) (-8.973346e-09 6.867662e-13 -3.628475e-11)) ((5.338458e-16 -2.749534e-12 3.464864e-16) (-9.554210e-14 1.125541e-09 -3.917931e-16))
219.375719    	((-3.229726e-09 -6.369108e-13 -1.589723e-09) (-8.561713e-09 6.107991e-13 -3.693019e-11)) ((5.641276e-16 -2.741591e-12 3.132995e-16) (-9.790162e-14 1.102252e-09 7.282647e-17))
263.262863    	((-3.040012e-09 -7.344648e-13 -1.542637e-09) (-8.190866e-09 5.353650e-13 -3.829383e-11)) ((5.528495e-16 -2.735177e-12 3.110642e-16) (-9.722110e-14 1.081463e-09 1.408750e-15))
315.927436    	((-2.872389e-09 -8.035785e-13 -1.501955e-09) (-7.857529e-09 5.330261e-13 -4.030362e-11)) ((5.663152e-16 -2.730094e-12 2.968272e-16) (-9.354409e-14 1.062960e-09 6.818084e-16))
379.124923    	((-2.726754e-09 -7.159640e-13 -1.470331e-09) (-7.558876e-09 5.442304e-13 -4.291667e-11)) ((5.513712e-16 -2.726136e-12 3.110452e-16) (-8.929162e-14 1.046536e-09 9.785570e-16))
454.961908    	((-2.601874e-09 -6.393017e-13 -1.446474e-09) (-7.292952e-09 5.230603e-13 -4.614596e-11)) ((5.444949e-16 -2.723135e-12 3.047473e-16) (-8.418581e-14 1.032041e-09 2.633866e-15))
545.966289    	((-2.496512e-09 -6.330915e-13 -1.427763e-09) (-7.057955e-09 4.730234e-13 -4.999707e-11)) ((5.215405e-16 -2.720579e-12 2.969954e-16) (-8.087226e-14 1.019356e-09 4.807685e-15))
655.171547    	((-2.408712e-09 -6.761909e-13 -1.414982e-09) (-6.852144e-09 4.216683e-13 -5.428945e-11)) ((4.921927e-16 -2.718357e-12 3.011679e-16) (-7.832277e-14 1.008352e-09 5.734267e-15))
786.217856    	((-2.336223e-09 -7.325945e-13 -1.406039e-09) (-6.674006e-09 3.799743e-13 -5.861165e-11)) ((4.828254e-16 -2.716511e-12 3.026578e-16) (-7.592154e-14 9.988986e-10 4.733077e-15))
943.473427    	((-2.277308e-09 -8.652365e-13 -1.400609e-09) (-6.521867e-09 3.371672e-13 -6.289789e-11)) ((4.665077e-16 -2.715115e-12 3.110422e-16) (-7.404850e-14 9.908666e-10 2.106885e-15))
1132.180113   	((-2.229915e-09 -9.635920e-13 -1.397555e-09) (-6.394038e-09 2.965756e-13 -6.706061e-11)) ((4.608374e-16 -2.713969e-12 3.194626e-16) (-7.275718e-14 9.841386e-10 -1.571437e-15))
1358.628135   	((-2.191930e-09 -9.876444e-13 -1.395579e-09) (-6.288335e-09 2.594256e-13 -7.113961e-11)) ((4.519519e-16 -2.713053e-12 3.219914e-16) (-7.145425e-14 9.785806e-10 -5.804857e-15))
1630.365763   	((-2.161931e-09 -9.420311e-13 -1.394469e-09) (-6.202326e-09 2.398081e-13 -7.507037e-11)) ((4.485364e-16 -2.712326e-12 3.232624e-16) (-7.045073e-14 9.740525e-10 -1.008254e-14))
1956.450915   	((-2.138439e-09 -9.058139e-13 -1.393830e-09) (-6.133472e-09 2.246040e-13 -7.873637e-11)) ((4.467305e-16 -2.711736e-12 3.217109e-16) (-6.995248e-14 9.704134e-10 -1.397838e-14))
2347.753098   	((-2.120131e-09 -8.999680e-13 -1.393597e-09) (-6.079236e-09 2.135431e-13 -8.204432e-11)) ((4.444857e-16 -2.711272e-12 3.199907e-16) (-6.963961e-14 9.675273e-10 -1.772462e-14))
2817.315718   	((-2.106023e-09 -8.764247e-13 -1.393604e-09) (-6.037151e-09 1.997644e-13 -8.493349e-11)) ((4.446235e-16 -2.710908e-12 3.195967e-16) (-6.969378e-14 9.652657e-10 -2.082970e-14))
3380.790861   	((-2.095246e-09 -8.659259e-13 -1.393596e-09) (-6.004943e-09 1.906072e-13 -8.737893e-11)) ((4.445128e-16 -2.710612e-12 3.186902e-16) (-6.977612e-14 9.635122e-10 -2.330002e-14))
4056.961033   	((-2.087063e-09 -8.462660e-13 -1.393578e-09) (-5.980601e-09 1.840397e-13 -8.938479e-11)) ((4.445817e-16 -2.710371e-12 3.171019e-16) (-6.988428e-14 9.621646e-10 -2.536020e-14))
4868.36524    	((-2.080852e-09 -8.319767e-13 -1.393531e-09) (-5.962406e-09 1.793651e-13 -9.099339e-11)) ((4.446374e-16 -2.710175e-12 3.150656e-16) (-6.997435e-14 9.611368e-10 -2.697179e-14))
5817.622591   	((-2.076168e-09 -8.297518e-13 -1.393451e-09) (-5.948950e-09 1.757365e-13 -9.225283e-11)) ((4.441067e-16 -2.710033e-12 3.132045e-16) (-7.004444e-14 9.603588e-10 -2.823552e-14))
6904.72966    	((-2.072626e-09 -8.283228e-13 -1.393333e-09) (-5.939087e-09 1.723770e-13 -9.321581e-11)) ((4.441908e-16 -2.709927e-12 3.113829e-16) (-7.010338e-14 9.597731e-10 -2.919418e-14))
8129.683788   	((-2.069936e-09 -8.231321e-13 -1.393194e-09) (-5.931909e-09 1.692129e-13 -9.393979e-11)) ((4.445970e-16 -2.709847e-12 3.097692e-16) (-7.017724e-14 9.593338e-10 -2.993925e-14))
9492.482928   	((-2.067895e-09 -8.166098e-13 -1.393061e-09) (-5.926715e-09 1.668713e-13 -9.447550e-11)) ((4.448568e-16 -2.709785e-12 3.084841e-16) (-7.022833e-14 9.590049e-10 -3.050814e-14))
10870.91726   	((-2.066359e-09 -8.107791e-13 -1.392934e-09) (-5.922982e-09 1.651642e-13 -9.486441e-11)) ((4.450758e-16 -2.709771e-12 3.077968e-16) (-7.025822e-14 9.587599e-10 -3.093968e-14))
12249.339864  	((-2.065208e-09 -8.054485e-13 -1.392809e-09) (-5.920306e-09 1.639088e-13 -9.514201e-11)) ((4.451424e-16 -2.709769e-12 3.072870e-16) (-7.026054e-14 9.585775e-10 -3.126852e-14))
13627.753912  	((-2.064337e-09 -8.018305e-13 -1.392683e-09) (-5.918394e-09 1.629092e-13 -9.533812e-11)) ((4.451313e-16 -2.709769e-12 3.069935e-16) (-7.027265e-14 9.584413e-10 -3.152016e-14))
15006.161561  	((-2.063667e-09 -7.981952e-13 -1.392585e-09) (-5.917030e-09 1.621367e-13 -9.547544e-11)) ((4.451910e-16 -2.709770e-12 3.067990e-16) (-7.028978e-14 9.583392e-10 -3.171129e-14))
16384.564353  	((-2.063152e-09 -7.959338e-13 -1.392463e-09) (-5.916059e-09 1.615492e-13 -9.557083e-11)) ((4.452783e-16 -2.709771e-12 3.066494e-16) (-7.030454e-14 9.582625e-10 -3.185342e-14))
17762.963438  	((-2.062756e-09 -7.948775e-13 -1.392351e-09) (-5.915367e-09 1.609968e-13 -9.563665e-11)) ((4.454468e-16 -2.709773e-12 3.063250e-16) (-7.031205e-14 9.582047e-10 -3.195445e-14))
19141.359681  	((-2.062447e-09 -7.968355e-13 -1.392243e-09) (-5.914876e-09 1.606828e-13 -9.568174e-11)) ((4.455715e-16 -2.709774e-12 3.062972e-16) (-7.031718e-14 9.581609e-10 -3.203024e-14))
20519.753743  	((-2.062209e-09 -8.031816e-13 -1.392142e-09) (-5.914527e-09 1.604708e-13 -9.571235e-11)) ((4.457100e-16 -2.709775e-12 3.062516e-16) (-7.031889e-14 9.581276e-10 -3.209033e-14))
21898.146127  	((-2.062027e-09 -8.134844e-13 -1.392044e-09) (-5.914279e-09 1.603897e-13 -9.573293e-11)) ((4.458980e-16 -2.709776e-12 3.061974e-16) (-7.031757e-14 9.581023e-10 -3.213718e-14))
23276.537218  	((-2.061884e-09 -8.108752e-13 -1.391988e-09) (-5.914104e-09 1.603034e-13 -9.574663e-11)) ((4.459499e-16 -2.709776e-12 3.061757e-16) (-7.031655e-14 9.580829e-10 -3.217591e-14))
24654.927311  	((-2.061766e-09 -8.138496e-13 -1.391894e-09) (-5.913980e-09 1.602172e-13 -9.575566e-11)) ((4.460385e-16 -2.709777e-12 3.061540e-16) (-7.031652e-14 9.580680e-10 -3.220523e-14))
26033.316635  	((-2.061675e-09 -8.120365e-13 -1.391863e-09) (-5.913892e-09 1.601759e-13 -9.576148e-11)) ((4.460575e-16 -2.709778e-12 3.061768e-16) (-7.031633e-14 9.580566e-10 -3.222826e-14))
27411.705364  	((-2.061602e-09 -8.098635e-13 -1.391811e-09) (-5.913830e-09 1.601459e-13 -9.576513e-11)) ((4.460583e-16 -2.709779e-12 3.061854e-16) (-7.031518e-14 9.580477e-10 -3.224614e-14))
28790.093634  	((-2.061545e-09 -8.081233e-13 -1.391765e-09) (-5.913786e-09 1.601294e-13 -9.576735e-11)) ((4.460784e-16 -2.709779e-12 3.061796e-16) (-7.031419e-14 9.580409e-10 -3.226053e-14))
30168.481548  	((-2.061500e-09 -8.068401e-13 -1.391724e-09) (-5.913756e-09 1.601103e-13 -9.576863e-11)) ((4.461024e-16 -2.709779e-12 3.061686e-16) (-7.031343e-14 9.580356e-10 -3.227220e-14))
31546.869186  	((-2.061464e-09 -8.058293e-13 -1.391689e-09) (-5.913734e-09 1.601118e-13 -9.576933e-11)) ((4.461255e-16 -2.709780e-12 3.061568e-16) (-7.031213e-14 9.580314e-10 -3.228220e-14))
32925.25661   	((-2.061434e-09 -8.069248e-13 -1.391654e-09) (-5.913719e-09 1.601092e-13 -9.576962e-11)) ((4.461415e-16 -2.709780e-12 3.061451e-16) (-7.031103e-14 9.580282e-10 -3.228999e-14))
34303.643869  	((-2.061413e-09 -8.063097e-13 -1.391633e-09) (-5.913709e-09 1.601173e-13 -9.576968e-11)) ((4.461762e-16 -2.709780e-12 3.061358e-16) (-7.030999e-14 9.580257e-10 -3.229626e-14))
35682.030999  	((-2.061395e-09 -8.053949e-13 -1.391610e-09) (-5.913702e-09 1.601199e-13 -9.576954e-11)) ((4.461911e-16 -2.709780e-12 3.061280e-16) (-7.030936e-14 9.580237e-10 -3.230118e-14))
37060.41803   	((-2.061380e-09 -8.045881e-13 -1.391591e-09) (-5.913697e-09 1.601149e-13 -9.576935e-11)) ((4.461959e-16 -2.709781e-12 3.061200e-16) (-7.030883e-14 9.580222e-10 -3.230527e-14))
38438.804983  	((-2.061367e-09 -8.090627e-13 -1.391561e-09) (-5.913694e-09 1.600643e-13 -9.576914e-11)) ((4.462795e-16 -2.709781e-12 3.060919e-16) (-7.031044e-14 9.580209e-10 -3.230841e-14))
39817.191876  	((-2.061358e-09 -8.076735e-13 -1.391562e-09) (-5.913692e-09 1.600772e-13 -9.576892e-11)) ((4.462736e-16 -2.709781e-12 3.061026e-16) (-7.031016e-14 9.580200e-10 -3.231122e-14))
41195.578722  	((-2.061351e-09 -8.054875e-13 -1.391549e-09) (-5.913690e-09 1.600858e-13 -9.576870e-11)) ((4.462378e-16 -2.709781e-12 3.061035e-16) (-7.030888e-14 9.580192e-10 -3.231337e-14))
42573.965532  	((-2.061345e-09 -8.040821e-13 -1.391538e-09) (-5.913690e-09 1.601018e-13 -9.576848e-11)) ((4.462236e-16 -2.709781e-12 3.060989e-16) (-7.030744e-14 9.580186e-10 -3.231522e-14))
43952.352313  	((-2.061339e-09 -8.081675e-13 -1.391515e-09) (-5.913689e-09 1.600701e-13 -9.576827e-11)) ((4.463021e-16 -2.709781e-12 3.060728e-16) (-7.030892e-14 9.580182e-10 -3.231665e-14))
45330.739072  	((-2.061334e-09 -8.064105e-13 -1.391521e-09) (-5.913689e-09 1.601012e-13 -9.576807e-11)) ((4.462929e-16 -2.709781e-12 3.060855e-16) (-7.030855e-14 9.580178e-10 -3.231794e-14))
46709.125814  	((-2.061331e-09 -8.042132e-13 -1.391512e-09) (-5.913689e-09 1.601139e-13 -9.576790e-11)) ((4.462576e-16 -2.709781e-12 3.060879e-16) (-7.030751e-14 9.580175e-10 -3.231880e-14))
48087.512542  	((-2.061328e-09 -8.080586e-13 -1.391494e-09) (-5.913689e-09 1.600786e-13 -9.576773e-11)) ((4.463201e-16 -2.709781e-12 3.060599e-16) (-7.031006e-14 9.580173e-10 -3.231910e-14))
49465.89926   	((-2.061326e-09 -8.063087e-13 -1.391503e-09) (-5.913689e-09 1.601021e-13 -9.576760e-11)) ((4.463070e-16 -2.709781e-12 3.060764e-16) (-7.030923e-14 9.580171e-10 -3.232005e-14))
50844.285969  	((-2.061325e-09 -8.040351e-13 -1.391498e-09) (-5.913689e-09 1.601218e-13 -9.576749e-11)) ((4.462669e-16 -2.709781e-12 3.060779e-16) (-7.030850e-14 9.580169e-10 -3.232032e-14))
52222.672672  	((-2.061322e-09 -8.078628e-13 -1.391481e-09) (-5.913689e-09 1.601249e-13 -9.576737e-11)) ((4.463351e-16 -2.709781e-12 3.060586e-16) (-7.030841e-14 9.580168e-10 -3.232064e-14))
53601.05937   	((-2.061322e-09 -8.065241e-13 -1.391493e-09) (-5.913689e-09 1.601254e-13 -9.576735e-11)) ((4.463110e-16 -2.709781e-12 3.060719e-16) (-7.030761e-14 9.580167e-10 -3.232122e-14))
54979.446065  	((-2.061322e-09 -8.047613e-13 -1.391490e-09) (-5.913689e-09 1.601116e-13 -9.576736e-11)) ((4.462615e-16 -2.709781e-12 3.060765e-16) (-7.030588e-14 9.580166e-10 -3.232170e-14))
56357.832756  	((-2.061320e-09 -8.087669e-13 -1.391475e-09) (-5.913689e-09 1.600738e-13 -9.576733e-11)) ((4.463203e-16 -2.709781e-12 3.060543e-16) (-7.030689e-14 9.580166e-10 -3.232201e-14))
57736.219445  	((-2.061320e-09 -8.071796e-13 -1.391488e-09) (-5.913689e-09 1.600724e-13 -9.576732e-11)) ((4.462992e-16 -2.709781e-12 3.060702e-16) (-7.030692e-14 9.580165e-10 -3.232259e-14))
59114.606132  	((-2.061320e-09 -8.049454e-13 -1.391486e-09) (-5.913689e-09 1.601002e-13 -9.576727e-11)) ((4.462570e-16 -2.709781e-12 3.060745e-16) (-7.030530e-14 9.580165e-10 -3.232282e-14))
60492.992817  	((-2.061319e-09 -8.088201e-13 -1.391472e-09) (-5.913689e-09 1.600800e-13 -9.576724e-11)) ((4.463187e-16 -2.709781e-12 3.060526e-16) (-7.030611e-14 9.580164e-10 -3.232280e-14))
