# Forces      
# CofR        : (0.000000e+00 0.000000e+00 0.000000e+00)
# Time        forces(pressure viscous)	moments(pressure viscous)
0             	((0.000000e+00 0.000000e+00 0.000000e+00) (0.000000e+00 0.000000e+00 0.000000e+00)) ((0.000000e+00 0.000000e+00 0.000000e+00) (0.000000e+00 0.000000e+00 0.000000e+00))
0.012         	((8.187337e-12 -1.904839e-09 2.476119e-11) (2.441236e-13 -2.136364e-11 9.164494e-14)) ((1.370283e-13 5.203653e-16 2.622311e-11) (-4.079539e-13 -1.113832e-14 5.332232e-08))
0.0264        	((-6.277447e-12 6.907997e-10 -5.782468e-11) (2.780791e-13 -2.279355e-11 1.362642e-13)) ((3.223710e-13 -2.319824e-15 7.864751e-12) (-7.256249e-13 -1.064960e-14 4.666936e-08))
0.04368       	((3.664735e-11 -3.482134e-10 3.250927e-11) (3.461409e-13 -1.494001e-11 2.942783e-13)) ((-1.481716e-13 4.712452e-16 4.118818e-12) (-6.128662e-13 -1.443751e-14 4.035978e-08))
0.064416      	((2.594758e-11 -2.798361e-11 -1.734914e-11) (3.358175e-13 -7.993974e-12 2.472400e-13)) ((4.146547e-14 7.136837e-16 2.763174e-12) (-3.125086e-13 -1.758589e-14 3.456623e-08))
0.0892992     	((3.718805e-11 -1.679672e-10 5.850279e-12) (2.788750e-13 -5.067923e-12 4.141319e-14)) ((-4.511831e-14 3.382437e-15 2.224341e-12) (-1.497779e-13 -1.685919e-14 2.944204e-08))
0.119159      	((1.562982e-11 -1.454485e-11 1.035851e-12) (4.119983e-13 -4.319445e-12 -1.976387e-14)) ((-2.760051e-14 2.753372e-15 1.765128e-12) (5.900360e-14 -2.110415e-14 2.505849e-08))
0.154991      	((2.824094e-11 -1.406329e-10 -2.495121e-12) (4.875950e-13 -3.211268e-12 6.275120e-14)) ((-2.645889e-14 3.457274e-15 1.409792e-12) (2.112120e-13 -2.331467e-14 2.144696e-08))
0.197989      	((2.545858e-11 -1.093854e-10 -2.093004e-12) (2.193112e-13 -2.003929e-12 4.195989e-13)) ((-2.099783e-14 2.154062e-15 1.102170e-12) (2.901202e-13 -9.933244e-15 1.854622e-08))
0.249587      	((3.648724e-11 -1.271431e-10 -5.948749e-12) (-1.719450e-13 -6.999478e-13 1.018426e-12)) ((-2.132392e-14 1.678570e-15 9.095652e-13) (2.663240e-13 1.149787e-14 1.623812e-08))
0.311504      	((5.704679e-11 -1.637570e-10 3.636741e-13) (-4.080341e-13 4.439523e-13 1.639354e-12)) ((-1.525183e-14 1.041652e-16 8.043565e-13) (2.214465e-13 2.362401e-14 1.438298e-08))
0.385805      	((6.942416e-11 -2.114749e-10 -2.804531e-12) (-3.481007e-13 -3.947948e-13 2.347368e-12)) ((-1.151879e-14 5.054095e-16 7.013055e-13) (1.682975e-13 2.789417e-14 1.285420e-08))
0.474966      	((9.410595e-11 -2.567741e-10 4.811911e-12) (-7.034320e-13 -1.123874e-12 3.225749e-12)) ((1.515222e-15 -4.477948e-16 6.120390e-13) (5.344455e-14 3.306161e-14 1.155691e-08))
0.581959      	((1.237182e-10 -3.321032e-10 7.962069e-12) (-1.182297e-12 -2.136092e-12 4.411961e-12)) ((7.473895e-15 1.509985e-16 5.676147e-13) (-1.760074e-13 4.274628e-14 1.042880e-08))
0.710351      	((1.541642e-10 -3.287777e-10 1.243580e-11) (-2.606808e-12 -5.238882e-12 6.072797e-12)) ((1.435249e-14 4.040984e-16 5.399824e-13) (-3.668154e-13 7.180843e-14 9.431158e-09))
0.864421      	((1.703003e-10 -2.655385e-10 7.704532e-12) (-5.358893e-12 -3.975637e-12 7.246399e-12)) ((2.258082e-14 1.430612e-15 5.143060e-13) (-3.320658e-13 1.315871e-13 8.539635e-09))
1.049306      	((1.818776e-10 -2.386180e-10 2.861260e-13) (-8.872147e-12 3.329945e-12 9.006776e-12)) ((2.829421e-14 2.083506e-15 4.868181e-13) (-1.255082e-13 1.949867e-13 7.739195e-09))
1.271167      	((1.598190e-10 -2.074029e-10 -6.845589e-13) (-1.563891e-11 1.320491e-11 1.133093e-11)) ((3.593559e-14 3.797768e-15 4.662289e-13) (1.282019e-13 3.355131e-13 7.022240e-09))
1.5374        	((1.225060e-10 -2.035157e-10 -9.764419e-12) (-2.632570e-11 2.453463e-11 1.312649e-11)) ((3.211633e-14 4.292098e-15 4.512758e-13) (4.069387e-13 6.108193e-13 6.385105e-09))
1.85688       	((8.725466e-11 -1.574628e-10 -2.595365e-11) (-3.924863e-11 3.303968e-11 1.516174e-11)) ((2.945986e-14 5.812656e-15 4.321668e-13) (7.181345e-13 9.268862e-13 5.824289e-09))
2.240256      	((4.803952e-11 -1.059864e-10 -3.732352e-11) (-5.469829e-11 4.201924e-11 1.780771e-11)) ((3.420523e-14 6.564428e-15 4.086735e-13) (1.109974e-12 1.343063e-12 5.334196e-09))
2.700307      	((2.640815e-11 -6.694894e-11 -5.206674e-11) (-7.101351e-11 5.637741e-11 2.149558e-11)) ((3.155469e-14 6.255835e-15 3.880134e-13) (1.626008e-12 1.853428e-12 4.906557e-09))
3.252369      	((-4.612522e-12 -4.210825e-11 -5.044966e-11) (-8.654934e-11 7.320707e-11 2.530595e-11)) ((2.615471e-14 5.423930e-15 3.615147e-13) (2.097551e-12 2.322834e-12 4.531641e-09))
3.914842      	((-5.454003e-12 1.375370e-11 -6.059932e-11) (-9.700826e-11 8.757523e-11 2.841712e-11)) ((1.969820e-14 3.951755e-15 3.375568e-13) (2.376996e-12 2.630530e-12 4.199596e-09))
4.709811      	((-2.514815e-11 5.249141e-11 -6.984356e-11) (-1.014164e-10 9.638808e-11 3.217922e-11)) ((1.382379e-14 2.120774e-15 3.166299e-13) (2.527734e-12 2.784328e-12 3.902044e-09))
5.663773      	((-3.305488e-11 2.558548e-11 -8.023701e-11) (-9.978284e-11 9.730166e-11 3.580835e-11)) ((1.406998e-14 -6.142060e-17 2.951796e-13) (2.469684e-12 2.793467e-12 3.632880e-09))
6.808528      	((-3.515381e-11 2.484228e-11 -8.630709e-11) (-9.179795e-11 8.980562e-11 3.868740e-11)) ((1.263612e-14 -9.683132e-16 2.749274e-13) (2.203252e-12 2.614886e-12 3.387310e-09))
8.182233      	((-2.411124e-11 2.028811e-11 -9.151510e-11) (-7.928567e-11 7.654345e-11 4.240665e-11)) ((8.606513e-15 -2.286508e-15 2.553423e-13) (1.898835e-12 2.280502e-12 3.161680e-09))
9.83068       	((-2.763732e-11 -1.314156e-11 -1.015511e-10) (-6.390337e-11 6.104786e-11 4.611069e-11)) ((9.378992e-15 -3.708701e-15 2.371828e-13) (1.512083e-12 1.895658e-12 2.953978e-09))
11.808816     	((8.445589e-13 -4.281323e-11 -1.065257e-10) (-4.808529e-11 4.521449e-11 5.086333e-11)) ((4.915570e-15 -5.382212e-15 2.202336e-13) (1.036112e-12 1.479082e-12 2.763288e-09))
14.182579     	((2.043691e-12 -3.097062e-11 -1.168196e-10) (-3.434290e-11 3.213099e-11 5.587731e-11)) ((7.816233e-17 -5.870608e-15 2.039363e-13) (6.189112e-13 1.122110e-12 2.588458e-09))
17.031095     	((2.144186e-11 -2.952840e-11 -1.235583e-10) (-2.382837e-11 2.229525e-11 6.031304e-11)) ((-4.106411e-15 -4.951736e-15 1.896657e-13) (4.053711e-13 8.547237e-13 2.428398e-09))
20.449314     	((2.688812e-11 -3.423040e-11 -1.326894e-10) (-1.752104e-11 1.640662e-11 6.487593e-11)) ((-5.386049e-15 -4.851999e-15 1.764977e-13) (3.021861e-13 7.071805e-13 2.282065e-09))
24.551176     	((3.572716e-11 -3.647710e-11 -1.404055e-10) (-1.522290e-11 1.457552e-11 6.903067e-11)) ((-7.277610e-15 -4.426535e-15 1.647131e-13) (3.187974e-13 6.538344e-13 2.148251e-09))
29.473411     	((2.872778e-11 -2.908725e-11 -1.542117e-10) (-1.645439e-11 1.713790e-11 7.409797e-11)) ((-7.477210e-15 -4.178249e-15 1.544061e-13) (4.187976e-13 6.749584e-13 2.025736e-09))
35.380094     	((2.511078e-11 -2.685818e-11 -1.770651e-10) (-2.027363e-11 2.278765e-11 7.922829e-11)) ((-7.784841e-15 -3.946526e-15 1.453537e-13) (5.998727e-13 7.441163e-13 1.913446e-09))
42.468112     	((1.675495e-11 -1.969257e-11 -1.968305e-10) (-2.510061e-11 2.938785e-11 8.499113e-11)) ((-7.995076e-15 -3.912233e-15 1.372211e-13) (7.963116e-13 8.302478e-13 1.810588e-09))
50.973735     	((1.626077e-11 -1.913191e-11 -2.144961e-10) (-2.950885e-11 3.501838e-11 9.209864e-11)) ((-8.046629e-15 -3.743461e-15 1.294554e-13) (9.653575e-13 9.252629e-13 1.716616e-09))
61.180482     	((1.301912e-11 -1.434748e-11 -2.364180e-10) (-3.327785e-11 3.969938e-11 1.008603e-10)) ((-8.010848e-15 -3.674762e-15 1.222625e-13) (1.106816e-12 1.006611e-12 1.630980e-09))
73.428578     	((9.387241e-12 -1.368710e-11 -2.550460e-10) (-3.634156e-11 4.283695e-11 1.110032e-10)) ((-8.209994e-15 -3.554055e-15 1.158094e-13) (1.196731e-12 1.077303e-12 1.553074e-09))
88.126294     	((6.080257e-12 -8.774080e-12 -2.725348e-10) (-3.844606e-11 4.457437e-11 1.214074e-10)) ((-8.388806e-15 -3.263646e-15 1.100441e-13) (1.238413e-12 1.115339e-12 1.482321e-09))
105.763553    	((1.514015e-12 -6.335810e-12 -2.915328e-10) (-3.963477e-11 4.589561e-11 1.318292e-10)) ((-8.269034e-15 -3.258290e-15 1.049226e-13) (1.268842e-12 1.135423e-12 1.418088e-09))
126.928263    	((-6.321005e-13 -6.433464e-12 -3.111071e-10) (-4.025020e-11 4.654011e-11 1.424660e-10)) ((-8.025327e-15 -3.341214e-15 1.003728e-13) (1.280761e-12 1.141539e-12 1.359714e-09))
152.325916    	((-1.793174e-12 -5.020223e-12 -3.323253e-10) (-4.059697e-11 4.630084e-11 1.533738e-10)) ((-7.706580e-15 -3.209315e-15 9.619938e-14) (1.264499e-12 1.147856e-12 1.306584e-09))
182.803099    	((-2.000352e-12 -4.395783e-12 -3.531119e-10) (-4.055769e-11 4.556383e-11 1.646114e-10)) ((-7.312774e-15 -3.071062e-15 9.228647e-14) (1.227181e-12 1.147755e-12 1.258152e-09))
219.375719    	((-2.529418e-12 -2.851922e-12 -3.745486e-10) (-3.999107e-11 4.454104e-11 1.763535e-10)) ((-7.000654e-15 -2.821488e-15 8.867924e-14) (1.177679e-12 1.128782e-12 1.213958e-09))
263.262863    	((-2.464675e-12 -2.134202e-12 -3.962079e-10) (-3.878538e-11 4.314680e-11 1.885393e-10)) ((-6.637004e-15 -2.748891e-15 8.532845e-14) (1.119670e-12 1.093605e-12 1.173611e-09))
315.927436    	((-2.034546e-12 -1.309533e-13 -4.177177e-10) (-3.728620e-11 4.151443e-11 2.012663e-10)) ((-6.332534e-15 -2.675943e-15 8.225337e-14) (1.057632e-12 1.048181e-12 1.136775e-09))
379.124923    	((-2.058187e-12 1.208081e-12 -4.387616e-10) (-3.589101e-11 3.966472e-11 2.143844e-10)) ((-6.064988e-15 -2.629447e-15 7.947845e-14) (9.904664e-13 1.006654e-12 1.103178e-09))
454.961908    	((-1.778683e-12 2.563701e-12 -4.585356e-10) (-3.448181e-11 3.761259e-11 2.276161e-10)) ((-5.823054e-15 -2.721234e-15 7.695291e-14) (9.191955e-13 9.688725e-13 1.072589e-09))
545.966289    	((-2.200236e-12 5.105568e-12 -4.779870e-10) (-3.292083e-11 3.546408e-11 2.409371e-10)) ((-5.633779e-15 -2.972380e-15 7.463198e-14) (8.503499e-13 9.298088e-13 1.044796e-09))
655.171547    	((-1.818872e-12 8.094010e-12 -4.960425e-10) (-3.128233e-11 3.339199e-11 2.543946e-10)) ((-5.592337e-15 -3.163541e-15 7.257458e-14) (7.886784e-13 8.850705e-13 1.019608e-09))
786.217856    	((-1.190202e-12 1.080590e-11 -5.138536e-10) (-2.967646e-11 3.133664e-11 2.677636e-10)) ((-5.699832e-15 -3.372254e-15 7.073680e-14) (7.293197e-13 8.357285e-13 9.968438e-10))
943.473427    	((1.237632e-13 1.295368e-11 -5.306814e-10) (-2.805117e-11 2.928410e-11 2.806407e-10)) ((-5.889837e-15 -3.463648e-15 6.905367e-14) (6.717606e-13 7.804597e-13 9.763006e-10))
1132.180113   	((1.464486e-12 1.526646e-11 -5.467983e-10) (-2.633871e-11 2.725503e-11 2.933080e-10)) ((-5.974265e-15 -3.661247e-15 6.748786e-14) (6.147663e-13 7.193427e-13 9.577926e-10))
1358.628135   	((2.482934e-12 1.758886e-11 -5.614060e-10) (-2.464906e-11 2.536243e-11 3.058017e-10)) ((-6.007139e-15 -3.818819e-15 6.607716e-14) (5.622890e-13 6.608569e-13 9.411421e-10))
1630.365763   	((3.486350e-12 1.958077e-11 -5.752381e-10) (-2.310844e-11 2.363609e-11 3.179149e-10)) ((-6.119189e-15 -3.903582e-15 6.480872e-14) (5.164886e-13 6.110056e-13 9.261784e-10))
1956.450915   	((4.672730e-12 2.213486e-11 -5.882586e-10) (-2.171268e-11 2.212392e-11 3.296055e-10)) ((-6.262419e-15 -4.001677e-15 6.365444e-14) (4.770866e-13 5.676447e-13 9.127414e-10))
2347.753098   	((6.107652e-12 2.531141e-11 -6.004321e-10) (-2.039065e-11 2.078321e-11 3.407788e-10)) ((-6.364856e-15 -4.092847e-15 6.260656e-14) (4.426722e-13 5.269150e-13 9.006815e-10))
2817.315718   	((7.653753e-12 2.889759e-11 -6.118839e-10) (-1.914566e-11 1.958455e-11 3.512946e-10)) ((-6.387508e-15 -4.165725e-15 6.164241e-14) (4.131873e-13 4.893589e-13 8.898565e-10))
3380.790861   	((9.502314e-12 3.325397e-11 -6.227307e-10) (-1.798747e-11 1.848950e-11 3.610332e-10)) ((-6.355808e-15 -4.257501e-15 6.074155e-14) (3.849358e-13 4.548328e-13 8.801368e-10))
4056.961033   	((1.145209e-11 3.805459e-11 -6.333953e-10) (-1.688786e-11 1.748393e-11 3.699854e-10)) ((-6.263421e-15 -4.340229e-15 5.994180e-14) (3.589069e-13 4.247663e-13 8.714008e-10))
4868.36524    	((1.336876e-11 4.346026e-11 -6.440836e-10) (-1.590002e-11 1.656800e-11 3.781636e-10)) ((-6.096005e-15 -4.446312e-15 5.923982e-14) (3.355967e-13 4.003947e-13 8.635404e-10))
5841.422148   	((1.569510e-11 4.938959e-11 -6.549476e-10) (-1.501862e-11 1.576668e-11 3.855930e-10)) ((-5.924693e-15 -4.562633e-15 5.861031e-14) (3.143099e-13 3.809432e-13 8.564607e-10))
6976.136364   	((1.822810e-11 5.570826e-11 -6.659858e-10) (-1.421609e-11 1.506187e-11 3.922411e-10)) ((-5.749765e-15 -4.699331e-15 5.804125e-14) (2.949856e-13 3.635805e-13 8.500808e-10))
8272.512293   	((2.107377e-11 6.250682e-11 -6.771964e-10) (-1.345298e-11 1.443723e-11 3.980924e-10)) ((-5.549559e-15 -4.846501e-15 5.751399e-14) (2.775247e-13 3.472016e-13 8.443229e-10))
9730.554106   	((2.431311e-11 7.018750e-11 -6.888556e-10) (-1.268829e-11 1.388825e-11 4.032385e-10)) ((-5.322208e-15 -4.999619e-15 5.701955e-14) (2.605665e-13 3.299812e-13 8.391194e-10))
11347.251895  	((2.805692e-11 7.905064e-11 -7.011762e-10) (-1.189419e-11 1.341711e-11 4.077900e-10)) ((-5.070364e-15 -5.186759e-15 5.656395e-14) (2.437354e-13 3.109369e-13 8.344120e-10))
12963.985819  	((3.241729e-11 8.895099e-11 -7.137882e-10) (-1.109909e-11 1.301880e-11 4.118418e-10)) ((-4.829951e-15 -5.376576e-15 5.613346e-14) (2.281280e-13 2.913559e-13 8.301526e-10))
14580.752611  	((3.719357e-11 9.929413e-11 -7.264721e-10) (-1.030011e-11 1.271028e-11 4.154861e-10)) ((-4.612488e-15 -5.535558e-15 5.573930e-14) (2.138850e-13 2.702901e-13 8.262932e-10))
16197.549462  	((4.187853e-11 1.093901e-10 -7.388703e-10) (-9.512464e-12 1.246818e-11 4.188221e-10)) ((-4.399925e-15 -5.661631e-15 5.537381e-14) (2.013505e-13 2.481579e-13 8.227934e-10))
17814.373495  	((4.637756e-11 1.187819e-10 -7.507500e-10) (-8.757243e-12 1.226519e-11 4.218897e-10)) ((-4.215276e-15 -5.767326e-15 5.503586e-14) (1.903719e-13 2.263733e-13 8.196156e-10))
19431.221963  	((5.038717e-11 1.270944e-10 -7.618249e-10) (-8.044054e-12 1.208759e-11 4.247455e-10)) ((-4.088331e-15 -5.875528e-15 5.472968e-14) (1.813177e-13 2.063069e-13 8.167285e-10))
21048.092556  	((5.421872e-11 1.341829e-10 -7.720878e-10) (-7.385932e-12 1.193251e-11 4.274344e-10)) ((-3.997132e-15 -5.988517e-15 5.445066e-14) (1.733019e-13 1.884222e-13 8.141032e-10))
22664.983202  	((5.801238e-11 1.399076e-10 -7.814886e-10) (-6.791510e-12 1.178731e-11 4.299640e-10)) ((-3.956322e-15 -6.099732e-15 5.420155e-14) (1.665874e-13 1.732055e-13 8.117145e-10))
24281.891997  	((6.167278e-11 1.443768e-10 -7.899847e-10) (-6.248814e-12 1.164885e-11 4.323513e-10)) ((-3.941622e-15 -6.198571e-15 5.397256e-14) (1.608274e-13 1.600572e-13 8.095401e-10))
25898.817235  	((6.530559e-11 1.474901e-10 -7.976210e-10) (-5.754568e-12 1.150517e-11 4.346087e-10)) ((-3.941608e-15 -6.287194e-15 5.375992e-14) (1.562116e-13 1.486682e-13 8.075593e-10))
27515.757354  	((6.881525e-11 1.494024e-10 -8.044616e-10) (-5.329078e-12 1.136487e-11 4.367205e-10)) ((-3.966424e-15 -6.340754e-15 5.356314e-14) (1.531029e-13 1.389752e-13 8.057534e-10))
29132.71095   	((7.227508e-11 1.502588e-10 -8.106361e-10) (-4.959582e-12 1.123003e-11 4.386985e-10)) ((-4.008072e-15 -6.381279e-15 5.337493e-14) (1.512503e-13 1.308022e-13 8.041063e-10))
30749.676741  	((7.563096e-11 1.502879e-10 -8.162535e-10) (-4.644825e-12 1.108963e-11 4.405450e-10)) ((-4.032726e-15 -6.394627e-15 5.320688e-14) (1.497723e-13 1.241203e-13 8.026029e-10))
32366.653572  	((7.890720e-11 1.497073e-10 -8.213696e-10) (-4.369932e-12 1.095257e-11 4.422632e-10)) ((-4.062437e-15 -6.404669e-15 5.305337e-14) (1.484234e-13 1.184705e-13 8.012301e-10))
33983.640394  	((8.200662e-11 1.487862e-10 -8.259791e-10) (-4.131989e-12 1.082492e-11 4.438551e-10)) ((-4.091066e-15 -6.401276e-15 5.291091e-14) (1.471156e-13 1.137888e-13 7.999758e-10))
35600.636257  	((8.484665e-11 1.476932e-10 -8.301407e-10) (-3.932975e-12 1.070666e-11 4.453260e-10)) ((-4.122744e-15 -6.398002e-15 5.278398e-14) (1.458679e-13 1.102423e-13 7.988293e-10))
37217.640316  	((8.735591e-11 1.465413e-10 -8.332627e-10) (-3.756411e-12 1.059097e-11 4.466909e-10)) ((-4.156520e-15 -6.392570e-15 5.266707e-14) (1.446445e-13 1.071646e-13 7.977808e-10))
