# Forces      
# CofR        : (0.000000e+00 0.000000e+00 0.000000e+00)
# Time        forces(pressure viscous)	moments(pressure viscous)
0             	((0.000000e+00 0.000000e+00 0.000000e+00) (-5.083879e-15 -1.002673e-05 9.045453e-16)) ((0.000000e+00 0.000000e+00 0.000000e+00) (-2.252901e-07 -2.765682e-17 4.804554e-12))
0.012         	((3.043348e-09 -2.915844e-03 6.580956e-04) (1.662410e-11 -1.150660e-05 -3.000904e-09)) ((3.438939e-08 2.242554e-09 5.497682e-10) (-3.320396e-07 -1.208800e-14 9.949769e-12))
0.0264        	((-4.758860e-08 2.010028e-04 -4.117480e-05) (-1.173225e-11 -1.174122e-05 -4.541469e-09)) ((-2.410244e-09 -1.412335e-10 -3.607576e-11) (-3.717804e-07 2.061757e-12 1.310340e-11))
0.04368       	((2.371857e-08 6.104642e-04 -4.746211e-05) (-9.313224e-12 -1.043529e-05 -3.152780e-09)) ((-7.945820e-09 -1.649426e-10 -1.484998e-10) (-3.312165e-07 3.369385e-12 1.114413e-11))
0.064416      	((1.143806e-08 5.736883e-06 -2.379811e-05) (-1.771624e-10 -9.243520e-06 -1.390753e-09)) ((3.897404e-11 -7.957363e-11 7.319739e-12) (-2.973193e-07 1.891002e-12 1.311794e-11))
0.0892992     	((-6.778180e-09 -8.241780e-06 -1.463539e-05) (-3.131911e-10 -8.534290e-06 -9.930199e-10)) ((3.264100e-10 -4.752497e-11 8.382290e-12) (-2.810505e-07 3.924802e-13 1.397279e-11))
0.119159      	((-3.970712e-09 9.115265e-06 -8.858318e-06) (-2.862051e-10 -7.880708e-06 -1.667703e-09)) ((-1.719457e-10 -2.964877e-11 -1.678647e-12) (-2.629710e-07 7.995376e-13 1.200527e-11))
0.154991      	((4.364836e-09 4.922554e-06 -5.580279e-06) (-2.397892e-10 -7.187468e-06 -2.505024e-09)) ((-1.050685e-10 -1.772677e-11 -1.339756e-13) (-2.428413e-07 7.133585e-13 1.076956e-11))
0.197989      	((1.771188e-09 1.194319e-06 -3.449396e-06) (-1.470268e-10 -6.487573e-06 -2.967987e-09)) ((-3.709845e-11 -1.059511e-11 -1.528738e-13) (-2.223505e-07 -8.348600e-14 7.329724e-12))
0.249587      	((-8.582552e-11 -1.591099e-07 -2.167423e-06) (-6.929492e-11 -5.800706e-06 -3.359016e-09)) ((-1.002417e-11 -6.636581e-12 5.524306e-13) (-2.018536e-07 -8.941705e-13 4.724344e-12))
0.311504      	((-1.606513e-10 -7.781960e-07 -1.320083e-06) (-1.690152e-11 -5.147390e-06 -3.782559e-09)) ((-1.664672e-12 -3.759552e-12 7.076104e-13) (-1.817470e-07 -1.854130e-12 2.484248e-12))
0.385805      	((5.258059e-12 -1.075140e-06 -8.130603e-07) (2.326565e-11 -4.544172e-06 -4.162995e-09)) ((8.606814e-13 -1.985497e-12 6.022105e-13) (-1.625240e-07 -2.656004e-12 -1.036095e-13))
0.474966      	((-4.136842e-11 -1.214439e-06 -4.735187e-07) (4.567222e-11 -4.003176e-06 -4.514870e-09)) ((3.235176e-12 -8.165122e-13 5.111746e-13) (-1.447199e-07 -3.151557e-12 -3.313152e-13))
0.581959      	((-1.438018e-11 -1.269961e-06 -2.753740e-07) (5.271312e-11 -3.529537e-06 -4.886331e-09)) ((5.287702e-12 -1.496138e-13 4.459480e-13) (-1.286647e-07 -2.988737e-12 2.189238e-12))
0.710351      	((-1.004772e-11 -1.264902e-06 -1.463287e-07) (6.208647e-11 -3.123391e-06 -5.269473e-09)) ((6.683018e-12 2.800677e-13 3.684050e-13) (-1.145449e-07 -2.483426e-12 4.283661e-12))
0.864421      	((2.987925e-11 -1.219231e-06 -7.686756e-08) (9.176515e-11 -2.779532e-06 -5.602681e-09)) ((7.248847e-12 4.988189e-13 3.648789e-13) (-1.023627e-07 -1.967198e-12 3.997616e-12))
1.049306      	((2.161610e-11 -1.152258e-06 -3.309501e-08) (1.155628e-10 -2.489200e-06 -5.887171e-09)) ((7.148918e-12 6.246688e-13 3.543899e-13) (-9.193569e-08 -1.624252e-12 2.547119e-12))
1.271167      	((6.123446e-11 -1.077784e-06 -1.309415e-08) (1.176300e-10 -2.243397e-06 -6.154174e-09)) ((6.745010e-12 6.808708e-13 3.247072e-13) (-8.299003e-08 -1.370096e-12 1.310319e-12))
1.5374        	((6.516398e-11 -1.001683e-06 -3.059859e-09) (1.034345e-10 -2.032540e-06 -6.466366e-09)) ((6.275592e-12 7.136650e-13 3.242905e-13) (-7.523259e-08 -1.070600e-12 4.491140e-13))
1.85688       	((6.652276e-11 -9.273309e-07 -3.271413e-09) (8.577333e-11 -1.847888e-06 -6.858642e-09)) ((5.750311e-12 7.030444e-13 3.284985e-13) (-6.840745e-08 -7.540161e-13 2.182949e-13))
2.240256      	((1.791477e-11 -8.567745e-07 -7.139188e-09) (7.108368e-11 -1.683753e-06 -7.322665e-09)) ((5.293117e-12 6.796449e-13 3.295971e-13) (-6.232964e-08 -3.912039e-13 6.901703e-13))
2.700307      	((-1.201087e-12 -7.908829e-07 -1.496915e-08) (5.378071e-11 -1.536595e-06 -7.825760e-09)) ((4.913502e-12 6.393309e-13 3.279672e-13) (-5.687630e-08 3.586790e-15 1.623987e-12))
3.252369      	((-6.553480e-13 -7.294212e-07 -2.328469e-08) (3.792656e-11 -1.404015e-06 -8.355496e-09)) ((4.530996e-12 5.997267e-13 3.053221e-13) (-5.196241e-08 3.872471e-13 3.206903e-12))
3.914842      	((1.280729e-12 -6.715586e-07 -3.251119e-08) (3.629562e-11 -1.284262e-06 -8.913377e-09)) ((4.137615e-12 5.561324e-13 2.770391e-13) (-4.752414e-08 5.775888e-13 4.848823e-12))
4.709811      	((5.628551e-12 -6.176982e-07 -4.129987e-08) (3.106335e-11 -1.176096e-06 -9.519635e-09)) ((3.766834e-12 5.153072e-13 2.479121e-13) (-4.351445e-08 5.248950e-13 5.527282e-12))
5.663773      	((4.977586e-11 -5.680587e-07 -4.971957e-08) (2.441045e-11 -1.078580e-06 -1.017244e-08)) ((3.448850e-12 4.738319e-13 2.250162e-13) (-3.989918e-08 2.813590e-13 5.240221e-12))
6.808528      	((9.333415e-11 -5.225472e-07 -5.725710e-08) (2.497123e-11 -9.909010e-07 -1.084689e-08)) ((3.176095e-12 4.384404e-13 1.988534e-13) (-3.664910e-08 3.123785e-14 4.853450e-12))
8.182233      	((8.085921e-11 -4.809766e-07 -6.407172e-08) (1.753836e-11 -9.122206e-07 -1.154679e-08)) ((2.935087e-12 4.060523e-13 1.716563e-13) (-3.373286e-08 -1.804654e-14 4.659191e-12))
9.83068       	((6.480774e-11 -4.432545e-07 -7.012538e-08) (1.104534e-11 -8.415592e-07 -1.229367e-08)) ((2.717444e-12 3.743994e-13 1.495698e-13) (-3.111437e-08 7.479797e-14 4.343546e-12))
11.808816     	((4.417577e-11 -4.087454e-07 -7.547685e-08) (6.193051e-12 -7.778798e-07 -1.309661e-08)) ((2.517818e-12 3.453229e-13 1.309575e-13) (-2.875524e-08 3.177639e-13 3.844533e-12))
14.182579     	((5.282770e-11 -3.772044e-07 -8.023197e-08) (-1.645905e-12 -7.202681e-07 -1.397006e-08)) ((2.334044e-12 3.182922e-13 1.146169e-13) (-2.662037e-08 5.091687e-13 3.270770e-12))
17.031095     	((3.598372e-11 -3.485281e-07 -8.440232e-08) (-5.131882e-12 -6.679437e-07 -1.491685e-08)) ((2.169025e-12 2.914369e-13 1.010765e-13) (-2.468079e-08 5.979935e-13 2.863041e-12))
20.449314     	((-1.953717e-11 -3.224444e-07 -8.818903e-08) (-7.951569e-12 -6.203076e-07 -1.594296e-08)) ((2.022220e-12 2.645468e-13 9.053442e-14) (-2.291458e-08 7.305493e-13 2.585724e-12))
24.551176     	((-4.132574e-11 -2.987652e-07 -9.137787e-08) (-8.821928e-12 -5.769388e-07 -1.704435e-08)) ((1.891752e-12 2.406839e-13 8.309016e-14) (-2.130606e-08 8.717123e-13 2.231762e-12))
29.473411     	((-4.827518e-11 -2.773811e-07 -9.395809e-08) (-8.544999e-12 -5.375108e-07 -1.820848e-08)) ((1.778364e-12 2.198014e-13 7.682901e-14) (-1.984361e-08 1.011089e-12 1.717788e-12))
35.380094     	((-5.208562e-11 -2.580531e-07 -9.608754e-08) (-9.390906e-12 -5.017456e-07 -1.942720e-08)) ((1.679655e-12 2.040922e-13 7.170255e-14) (-1.851697e-08 1.173565e-12 1.154569e-12))
42.468112     	((-6.586825e-11 -2.407682e-07 -9.775876e-08) (-7.461563e-12 -4.693610e-07 -2.069186e-08)) ((1.595468e-12 1.891987e-13 6.765908e-14) (-1.731589e-08 1.317933e-12 3.066826e-13))
50.973735     	((-8.532341e-11 -2.253964e-07 -9.901548e-08) (-7.328976e-12 -4.400773e-07 -2.199042e-08)) ((1.524021e-12 1.747051e-13 6.455532e-14) (-1.623004e-08 1.423812e-12 -8.333909e-13))
61.180482     	((-7.520055e-11 -2.117978e-07 -9.984139e-08) (-7.877789e-12 -4.136195e-07 -2.331168e-08)) ((1.464716e-12 1.637286e-13 6.222685e-14) (-1.524907e-08 1.525623e-12 -2.260193e-12))
73.428578     	((-6.090282e-11 -1.998056e-07 -1.003168e-07) (-6.328661e-12 -3.897203e-07 -2.465261e-08)) ((1.417471e-12 1.554044e-13 6.063695e-14) (-1.436308e-08 1.574014e-12 -3.989335e-12))
88.126294     	((-3.546355e-11 -1.893470e-07 -1.005104e-07) (-3.193204e-12 -3.681343e-07 -2.601401e-08)) ((1.383082e-12 1.484132e-13 5.973071e-14) (-1.356297e-08 1.493973e-12 -5.960327e-12))
105.763553    	((-1.499793e-11 -1.803128e-07 -1.004378e-07) (1.820742e-12 -3.486533e-07 -2.739583e-08)) ((1.359957e-12 1.422333e-13 5.953627e-14) (-1.284110e-08 1.324828e-12 -7.999679e-12))
126.928263    	((3.700328e-12 -1.727125e-07 -1.001070e-07) (6.680887e-12 -3.311172e-07 -2.879500e-08)) ((1.346732e-12 1.382274e-13 5.961844e-14) (-1.219168e-08 1.102887e-12 -1.003534e-11))
152.325916    	((2.020148e-11 -1.664118e-07 -9.948816e-08) (9.703607e-12 -3.153972e-07 -3.020921e-08)) ((1.343906e-12 1.353300e-13 6.042983e-14) (-1.161026e-08 8.202560e-13 -1.191994e-11))
182.803099    	((2.980563e-11 -1.613138e-07 -9.867464e-08) (1.056870e-11 -3.013837e-07 -3.163567e-08)) ((1.351156e-12 1.337098e-13 6.165070e-14) (-1.109312e-08 5.144328e-13 -1.360929e-11))
219.375719    	((4.632360e-11 -1.573556e-07 -9.760577e-08) (1.123209e-11 -2.889868e-07 -3.307306e-08)) ((1.368455e-12 1.331470e-13 6.341136e-14) (-1.063724e-08 1.886343e-13 -1.509355e-11))
263.262863    	((6.496089e-11 -1.543658e-07 -9.632517e-08) (1.309579e-11 -2.781205e-07 -3.451813e-08)) ((1.393096e-12 1.342990e-13 6.592657e-14) (-1.023960e-08 -1.498782e-13 -1.623663e-11))
315.927436    	((8.044266e-11 -1.523186e-07 -9.482777e-08) (1.579431e-11 -2.687064e-07 -3.596089e-08)) ((1.423623e-12 1.371202e-13 6.889273e-14) (-9.897182e-09 -5.022392e-13 -1.707811e-11))
379.124923    	((8.946693e-11 -1.511049e-07 -9.310627e-08) (1.848825e-11 -2.606646e-07 -3.737726e-08)) ((1.456305e-12 1.414603e-13 7.160645e-14) (-9.606600e-09 -8.583585e-13 -1.764357e-11))
454.961908    	((9.521810e-11 -1.504842e-07 -9.115233e-08) (2.131738e-11 -2.538934e-07 -3.873194e-08)) ((1.486749e-12 1.466295e-13 7.423157e-14) (-9.363333e-09 -1.226173e-12 -1.794496e-11))
545.966289    	((1.001427e-10 -1.502432e-07 -8.895143e-08) (2.460968e-11 -2.482617e-07 -3.998394e-08)) ((1.513213e-12 1.520411e-13 7.628582e-14) (-9.161812e-09 -1.570152e-12 -1.796837e-11))
653.254346    	((1.072796e-10 -1.501984e-07 -8.661286e-08) (2.825135e-11 -2.436310e-07 -4.109327e-08)) ((1.534237e-12 1.577863e-13 7.757655e-14) (-8.996454e-09 -1.877256e-12 -1.775114e-11))
776.827274    	((1.109979e-10 -1.501815e-07 -8.425681e-08) (3.254692e-11 -2.398377e-07 -4.204121e-08)) ((1.549606e-12 1.635863e-13 7.828868e-14) (-8.861233e-09 -2.166077e-12 -1.734659e-11))
916.693442    	((1.138641e-10 -1.501358e-07 -8.199830e-08) (3.777306e-11 -2.367300e-07 -4.283300e-08)) ((1.559960e-12 1.693172e-13 7.861580e-14) (-8.750748e-09 -2.439017e-12 -1.682588e-11))
1072.866716   	((1.134990e-10 -1.500543e-07 -7.989810e-08) (4.321608e-11 -2.341773e-07 -4.348767e-08)) ((1.566210e-12 1.748649e-13 7.874080e-14) (-8.660434e-09 -2.678589e-12 -1.623035e-11))
1236.09596    	((1.107695e-10 -1.499892e-07 -7.804568e-08) (4.807472e-11 -2.320880e-07 -4.402746e-08)) ((1.569380e-12 1.800800e-13 7.876748e-14) (-8.587060e-09 -2.866750e-12 -1.559603e-11))
1399.477474   	((1.066506e-10 -1.499179e-07 -7.646582e-08) (5.242863e-11 -2.303741e-07 -4.447675e-08)) ((1.570144e-12 1.847012e-13 7.877868e-14) (-8.527422e-09 -2.996097e-12 -1.493266e-11))
1562.996202   	((1.013426e-10 -1.498475e-07 -7.512749e-08) (5.606777e-11 -2.289669e-07 -4.485286e-08)) ((1.569528e-12 1.887112e-13 7.880745e-14) (-8.478987e-09 -3.069454e-12 -1.425962e-11))
1726.635947   	((9.477425e-11 -1.497809e-07 -7.400257e-08) (5.896590e-11 -2.278094e-07 -4.516932e-08)) ((1.568253e-12 1.921552e-13 7.885729e-14) (-8.439614e-09 -3.086876e-12 -1.359000e-11))
1890.381392   	((8.806251e-11 -1.497199e-07 -7.306674e-08) (6.124927e-11 -2.268555e-07 -4.543687e-08)) ((1.566762e-12 1.950807e-13 7.889874e-14) (-8.407564e-09 -3.058335e-12 -1.292010e-11))
2054.218696   	((8.085097e-11 -1.496650e-07 -7.229625e-08) (6.292184e-11 -2.260677e-07 -4.566381e-08)) ((1.565166e-12 1.974920e-13 7.892644e-14) (-8.381421e-09 -2.985472e-12 -1.225475e-11))
2218.135338   	((7.315128e-11 -1.496171e-07 -7.163024e-08) (6.402144e-11 -2.254155e-07 -4.585679e-08)) ((1.563636e-12 1.995716e-13 7.895848e-14) (-8.360052e-09 -2.875615e-12 -1.160379e-11))
2382.1202     	((6.508882e-11 -1.495744e-07 -7.108162e-08) (6.450268e-11 -2.248745e-07 -4.602134e-08)) ((1.562091e-12 2.012559e-13 7.898968e-14) (-8.342530e-09 -2.736552e-12 -1.098146e-11))
2546.163522   	((5.695941e-11 -1.495377e-07 -7.062201e-08) (6.441274e-11 -2.244248e-07 -4.616173e-08)) ((1.560724e-12 2.026169e-13 7.902147e-14) (-8.328134e-09 -2.573520e-12 -1.039283e-11))
2710.256871   	((4.891931e-11 -1.495065e-07 -7.022906e-08) (6.386814e-11 -2.240502e-07 -4.628150e-08)) ((1.559547e-12 2.037788e-13 7.905837e-14) (-8.316280e-09 -2.396734e-12 -9.840491e-12))
2874.392963   	((4.115184e-11 -1.494800e-07 -6.989124e-08) (6.293471e-11 -2.237378e-07 -4.638366e-08)) ((1.558507e-12 2.047790e-13 7.908625e-14) (-8.306497e-09 -2.211174e-12 -9.324611e-12))
3038.565547   	((3.374500e-11 -1.494575e-07 -6.961692e-08) (6.173837e-11 -2.234768e-07 -4.647081e-08)) ((1.557556e-12 2.055849e-13 7.911201e-14) (-8.298404e-09 -2.020977e-12 -8.845121e-12))
3202.769269   	((2.670988e-11 -1.494382e-07 -6.937536e-08) (6.040711e-11 -2.232585e-07 -4.654509e-08)) ((1.556686e-12 2.062891e-13 7.914286e-14) (-8.291695e-09 -1.832112e-12 -8.400168e-12))
3366.999544   	((2.009441e-11 -1.494219e-07 -6.917679e-08) (5.896992e-11 -2.230756e-07 -4.660831e-08)) ((1.555931e-12 2.068583e-13 7.916869e-14) (-8.286124e-09 -1.648307e-12 -7.990770e-12))
3531.252456   	((1.394916e-11 -1.494078e-07 -6.900734e-08) (5.747778e-11 -2.229221e-07 -4.666208e-08)) ((1.555294e-12 2.073442e-13 7.918943e-14) (-8.281488e-09 -1.471940e-12 -7.615988e-12))
3695.52466    	((8.340592e-12 -1.493962e-07 -6.886582e-08) (5.596374e-11 -2.227932e-07 -4.670783e-08)) ((1.554780e-12 2.077500e-13 7.920761e-14) (-8.277623e-09 -1.304436e-12 -7.274238e-12))
3859.813309   	((3.118622e-12 -1.493866e-07 -6.874379e-08) (5.444394e-11 -2.226849e-07 -4.674672e-08)) ((1.554336e-12 2.080950e-13 7.922404e-14) (-8.274396e-09 -1.145755e-12 -6.964782e-12))
4024.115985   	((-1.665339e-12 -1.493783e-07 -6.864111e-08) (5.294418e-11 -2.225937e-07 -4.677976e-08)) ((1.553956e-12 2.083813e-13 7.924320e-14) (-8.271698e-09 -9.963662e-13 -6.685184e-12))
4188.430625   	((-5.982415e-12 -1.493713e-07 -6.855377e-08) (5.149974e-11 -2.225170e-07 -4.680782e-08)) ((1.553633e-12 2.086197e-13 7.926175e-14) (-8.269439e-09 -8.567755e-13 -6.432831e-12))
4352.755472   	((-9.875647e-12 -1.493651e-07 -6.848035e-08) (5.011367e-11 -2.224523e-07 -4.683166e-08)) ((1.553356e-12 2.088157e-13 7.928049e-14) (-8.267544e-09 -7.273255e-13 -6.206664e-12))
4517.089029   	((-1.334803e-11 -1.493600e-07 -6.841827e-08) (4.879669e-11 -2.223978e-07 -4.685190e-08)) ((1.553121e-12 2.089774e-13 7.929583e-14) (-8.265954e-09 -6.078640e-13 -6.004529e-12))
4681.430018   	((-1.647728e-11 -1.493557e-07 -6.836573e-08) (4.755470e-11 -2.223519e-07 -4.686906e-08)) ((1.552921e-12 2.091094e-13 7.931003e-14) (-8.264619e-09 -4.983321e-13 -5.824522e-12))
4845.777349   	((-1.928170e-11 -1.493520e-07 -6.832111e-08) (4.639393e-11 -2.223131e-07 -4.688361e-08)) ((1.552747e-12 2.092207e-13 7.932279e-14) (-8.263497e-09 -3.984694e-13 -5.664535e-12))
5010.130093   	((-2.177051e-11 -1.493490e-07 -6.828346e-08) (4.532179e-11 -2.222804e-07 -4.689595e-08)) ((1.552599e-12 2.093109e-13 7.933439e-14) (-8.262553e-09 -3.078661e-13 -5.522418e-12))
5174.487455   	((-2.397120e-11 -1.493464e-07 -6.825156e-08) (4.433811e-11 -2.222528e-07 -4.690641e-08)) ((1.552476e-12 2.093862e-13 7.934545e-14) (-8.261759e-09 -2.260521e-13 -5.396507e-12))
5338.848759   	((-2.592175e-11 -1.493441e-07 -6.822482e-08) (4.344057e-11 -2.222294e-07 -4.691528e-08)) ((1.552372e-12 2.094468e-13 7.935607e-14) (-8.261090e-09 -1.524481e-13 -5.285254e-12))
5503.213425   	((-2.759210e-11 -1.493422e-07 -6.820243e-08) (4.262640e-11 -2.222097e-07 -4.692279e-08)) ((1.552286e-12 2.094967e-13 7.936587e-14) (-8.260526e-09 -8.651678e-14 -5.187134e-12))
5667.580961   	((-2.909884e-11 -1.493406e-07 -6.818309e-08) (4.189238e-11 -2.221931e-07 -4.692916e-08)) ((1.552211e-12 2.095376e-13 7.937397e-14) (-8.260051e-09 -2.764559e-14 -5.100716e-12))
5831.950944   	((-3.043534e-11 -1.493392e-07 -6.816633e-08) (4.123244e-11 -2.221790e-07 -4.693455e-08)) ((1.552151e-12 2.095725e-13 7.938145e-14) (-8.259650e-09 2.478771e-14 -5.024777e-12))
5996.323016   	((-3.160316e-11 -1.493381e-07 -6.815221e-08) (4.064103e-11 -2.221671e-07 -4.693911e-08)) ((1.552098e-12 2.096005e-13 7.938793e-14) (-8.259312e-09 7.134696e-14 -4.958152e-12))
6160.696869   	((-3.261582e-11 -1.493372e-07 -6.814038e-08) (4.011455e-11 -2.221571e-07 -4.694298e-08)) ((1.552055e-12 2.096228e-13 7.939347e-14) (-8.259027e-09 1.125381e-13 -4.899749e-12))
6325.072239   	((-3.347370e-11 -1.493364e-07 -6.813193e-08) (3.964681e-11 -2.221486e-07 -4.694626e-08)) ((1.552018e-12 2.096358e-13 7.939809e-14) (-8.258786e-09 1.489214e-13 -4.848624e-12))
6489.448904   	((-3.426511e-11 -1.493356e-07 -6.812317e-08) (3.923149e-11 -2.221414e-07 -4.694904e-08)) ((1.551983e-12 2.096517e-13 7.940177e-14) (-8.258582e-09 1.810088e-13 -4.803931e-12))
6653.826674   	((-3.490510e-11 -1.493351e-07 -6.811634e-08) (3.886640e-11 -2.221353e-07 -4.695139e-08)) ((1.551957e-12 2.096629e-13 7.940523e-14) (-8.258410e-09 2.091676e-13 -4.764931e-12))
6818.205385   	((-3.550631e-11 -1.493346e-07 -6.810856e-08) (3.854400e-11 -2.221301e-07 -4.695339e-08)) ((1.551932e-12 2.096784e-13 7.940792e-14) (-8.258265e-09 2.338826e-13 -4.730959e-12))
6982.584898   	((-3.600181e-11 -1.493343e-07 -6.810393e-08) (3.826191e-11 -2.221258e-07 -4.695507e-08)) ((1.551913e-12 2.096846e-13 7.941055e-14) (-8.258143e-09 2.554756e-13 -4.701370e-12))
7146.965095   	((-3.646203e-11 -1.493338e-07 -6.810043e-08) (3.801333e-11 -2.221221e-07 -4.695650e-08)) ((1.551895e-12 2.096878e-13 7.941275e-14) (-8.258039e-09 2.743898e-13 -4.675618e-12))
