# Forces      
# CofR        : (0.000000e+00 0.000000e+00 0.000000e+00)
# Time        forces(pressure viscous)	moments(pressure viscous)
0             	((0.000000e+00 0.000000e+00 0.000000e+00) (-1.273032e-03 3.594332e-13 -1.237687e-08)) ((0.000000e+00 0.000000e+00 0.000000e+00) (-2.787566e-15 2.860353e-05 -7.359745e-15))
0.012         	((-3.685610e-01 -2.597667e-07 3.670026e-02) (-1.456182e-03 4.649195e-10 -1.122238e-05)) ((1.979510e-11 -4.967821e-06 5.133075e-11) (-7.771952e-11 4.239952e-05 -1.640041e-11))
0.0264        	((4.512441e-02 -2.253661e-06 -7.618773e-03) (-1.467126e-03 -2.035727e-09 -1.732014e-05)) ((1.728989e-10 5.700864e-07 6.939925e-11) (-2.608003e-10 4.709815e-05 -7.486266e-11))
0.04368       	((6.640736e-02 2.739345e-06 -4.726182e-03) (-1.284561e-03 -1.203453e-09 -1.721630e-05)) ((-1.163867e-10 1.031528e-06 -1.330379e-10) (-2.935326e-10 4.179472e-05 -6.074678e-11))
0.064416      	((3.590848e-04 1.529583e-07 -4.629297e-03) (-1.131295e-03 -2.008793e-09 -1.920662e-05)) ((-1.687383e-11 -1.657491e-08 -2.867654e-11) (-1.492310e-10 3.782579e-05 -1.101652e-10))
0.0892992     	((3.019814e-04 -5.978285e-07 -3.734183e-03) (-1.040825e-03 -1.613961e-08 -2.368597e-05)) ((-4.021814e-11 -2.151837e-08 -2.492826e-11) (-4.289104e-11 3.580646e-05 3.492756e-11))
0.119159      	((9.480229e-04 -8.545204e-08 -3.219545e-03) (-9.631281e-04 -3.048946e-08 -2.812458e-05)) ((2.924270e-11 2.039961e-08 -3.902619e-11) (-4.202178e-11 3.364273e-05 4.805350e-10))
0.154991      	((1.661547e-04 -4.877912e-07 -2.959924e-03) (-8.868555e-04 -3.437303e-08 -3.204290e-05)) ((2.351539e-11 9.391990e-09 -4.528776e-11) (-1.156711e-10 3.142430e-05 7.224998e-10))
0.197989      	((-8.751431e-05 -4.596164e-07 -2.761839e-03) (-8.163121e-04 -3.159044e-08 -3.563340e-05)) ((4.313393e-11 5.517847e-09 -3.793950e-11) (-1.995711e-10 2.929923e-05 6.768932e-10))
0.249587      	((-1.874316e-04 -9.469003e-08 -2.641846e-03) (-7.536755e-04 -2.488068e-08 -3.931644e-05)) ((2.187106e-11 3.993985e-09 -4.928069e-11) (-2.835098e-10 2.730978e-05 5.674779e-10))
0.311504      	((-2.513919e-04 -1.216967e-07 -2.563110e-03) (-6.989856e-04 -2.259047e-08 -4.320194e-05)) ((2.142900e-11 2.673297e-09 -3.334356e-11) (-3.667819e-10 2.547814e-05 4.975704e-10))
0.385805      	((-2.872965e-04 -8.377769e-08 -2.509912e-03) (-6.507060e-04 -2.036484e-08 -4.745612e-05)) ((2.242729e-11 1.303710e-09 -2.502150e-11) (-4.475405e-10 2.379061e-05 4.233127e-10))
0.474966      	((-3.060863e-04 -2.435332e-08 -2.470797e-03) (-6.064554e-04 -1.447183e-08 -5.232022e-05)) ((2.146868e-11 -6.350012e-11 -1.450170e-11) (-5.207312e-10 2.219737e-05 3.260523e-10))
0.581959      	((-3.139908e-04 3.370806e-08 -2.440781e-03) (-5.638295e-04 -1.095868e-08 -5.790051e-05)) ((1.525415e-11 -1.338134e-09 -8.203414e-12) (-5.819669e-10 2.063747e-05 2.261114e-10))
0.710351      	((-3.177388e-04 2.175858e-08 -2.415059e-03) (-5.221808e-04 -8.317630e-09 -6.413302e-05)) ((9.509039e-12 -2.627688e-09 -4.218028e-12) (-6.227477e-10 1.910232e-05 1.781443e-10))
0.864421      	((-3.219106e-04 4.205839e-08 -2.392474e-03) (-4.823465e-04 -6.011682e-09 -7.105464e-05)) ((4.883873e-12 -4.003547e-09 -2.269847e-12) (-6.500267e-10 1.762645e-05 1.558674e-10))
1.049306      	((-3.309133e-04 4.001238e-08 -2.370399e-03) (-4.451820e-04 -4.483207e-09 -7.865657e-05)) ((3.676820e-12 -5.410865e-09 -1.974005e-12) (-6.624372e-10 1.624192e-05 1.447778e-10))
1.271167      	((-3.472040e-04 -4.936318e-09 -2.347642e-03) (-4.112087e-04 -5.130614e-09 -8.674613e-05)) ((3.841771e-12 -6.803445e-09 -1.997192e-12) (-6.684316e-10 1.496896e-05 1.463202e-10))
1.5374        	((-3.719946e-04 -9.673306e-08 -2.322524e-03) (-3.807010e-04 -8.338884e-09 -9.496826e-05)) ((5.389423e-12 -8.351834e-09 -3.050755e-12) (-7.018957e-10 1.382294e-05 1.572686e-10))
1.85688       	((-4.075698e-04 -1.200709e-07 -2.294581e-03) (-3.538838e-04 -1.043843e-08 -1.028427e-04)) ((4.089102e-12 -1.010597e-08 -3.486001e-12) (-7.568571e-10 1.281785e-05 2.137728e-10))
2.23967       	((-4.554547e-04 -1.207640e-07 -2.263747e-03) (-3.307984e-04 -1.204611e-08 -1.100072e-04)) ((3.785717e-12 -1.207503e-08 -3.797389e-12) (-7.985731e-10 1.195787e-05 2.608910e-10))
2.685221      	((-5.162129e-04 -1.180975e-07 -2.231510e-03) (-3.116446e-04 -1.436844e-08 -1.162853e-04)) ((2.283717e-12 -1.418285e-08 -3.749883e-12) (-7.800512e-10 1.124707e-05 2.951953e-10))
3.19307       	((-5.883236e-04 -4.120592e-08 -2.196750e-03) (-2.959236e-04 -1.536850e-08 -1.218946e-04)) ((-1.349814e-12 -1.625365e-08 -3.602273e-12) (-6.807201e-10 1.066085e-05 3.794480e-10))
3.762673      	((-6.709873e-04 -5.532831e-08 -2.159425e-03) (-2.830627e-04 -1.864904e-08 -1.269666e-04)) ((2.281739e-12 -1.815683e-08 -6.589295e-12) (-6.498899e-10 1.017275e-05 5.172040e-10))
4.37305       	((-7.620986e-04 1.937180e-07 -2.118342e-03) (-2.728588e-04 -1.971918e-08 -1.310626e-04)) ((5.234471e-12 -1.972938e-08 -7.353812e-12) (-6.750421e-10 9.775536e-06 6.333615e-10))
4.974726      	((-8.513177e-04 4.353189e-08 -2.070347e-03) (-2.653440e-04 -1.353459e-08 -1.337138e-04)) ((1.403024e-11 -2.101285e-08 -1.414564e-11) (-7.683989e-10 9.472063e-06 4.872427e-10))
5.567425      	((-9.341338e-04 1.597580e-07 -2.016041e-03) (-2.597003e-04 -2.634294e-09 -1.349529e-04)) ((1.896967e-11 -2.220783e-08 -1.853223e-11) (-8.622362e-10 9.240708e-06 -7.961717e-11))
6.152682      	((-1.005341e-03 2.203890e-07 -1.957752e-03) (-2.554760e-04 1.025508e-08 -1.349694e-04)) ((1.882033e-11 -2.342844e-08 -1.818659e-11) (-8.681573e-10 9.070191e-06 -6.854998e-10))
6.733632      	((-1.058710e-03 3.144730e-07 -1.895603e-03) (-2.520992e-04 2.351786e-08 -1.343356e-04)) ((1.516733e-11 -2.460736e-08 -8.857811e-12) (-8.282531e-10 8.937539e-06 -1.220674e-09))
7.313225      	((-1.094869e-03 4.256634e-07 -1.832316e-03) (-2.491807e-04 3.823158e-08 -1.333475e-04)) ((8.644150e-12 -2.582800e-08 -2.163033e-12) (-6.704984e-10 8.830337e-06 -1.817361e-09))
7.892771      	((-1.112343e-03 1.046331e-06 -1.767053e-03) (-2.463618e-04 6.273950e-08 -1.322112e-04)) ((-8.169823e-12 -2.700318e-08 6.699028e-12) (-1.531681e-10 8.737460e-06 -2.461941e-09))
8.471879      	((-1.109448e-03 1.451910e-06 -1.699894e-03) (-2.436445e-04 9.034999e-08 -1.309974e-04)) ((-3.376948e-11 -2.774883e-08 1.568874e-11) (7.469618e-10 8.658185e-06 -2.846478e-09))
9.049566      	((-1.093737e-03 1.398985e-06 -1.638559e-03) (-2.410302e-04 1.026031e-07 -1.297344e-04)) ((-3.908247e-11 -2.813896e-08 1.143212e-11) (1.398200e-09 8.591387e-06 -2.587956e-09))
9.625401      	((-1.074723e-03 1.166792e-06 -1.586675e-03) (-2.386350e-04 1.013094e-07 -1.284551e-04)) ((-2.797997e-11 -2.823257e-08 5.290527e-13) (1.731781e-09 8.538937e-06 -2.239302e-09))
10.199664     	((-1.054179e-03 9.437325e-07 -1.540298e-03) (-2.365482e-04 9.618682e-08 -1.271784e-04)) ((-1.678940e-11 -2.811364e-08 -8.193087e-12) (1.932497e-09 8.500880e-06 -1.928371e-09))
10.772927     	((-1.037450e-03 1.190846e-06 -1.495808e-03) (-2.346752e-04 8.885118e-08 -1.259994e-04)) ((-1.479150e-11 -2.780277e-08 -9.939601e-12) (2.281857e-09 8.468322e-06 -1.328275e-09))
11.345504     	((-1.028050e-03 1.425275e-06 -1.451915e-03) (-2.330280e-04 8.339736e-08 -1.249239e-04)) ((-6.579953e-12 -2.751163e-08 -1.459147e-11) (2.653610e-09 8.438947e-06 -6.345748e-10))
11.917459     	((-1.025328e-03 1.529823e-06 -1.415159e-03) (-2.316082e-04 8.609099e-08 -1.239777e-04)) ((3.726621e-12 -2.717965e-08 -1.411606e-11) (2.888152e-09 8.411068e-06 -1.379080e-10))
12.488858     	((-1.025263e-03 1.826799e-06 -1.383892e-03) (-2.303778e-04 9.536851e-08 -1.231903e-04)) ((-1.236924e-12 -2.696655e-08 -7.504809e-12) (3.113338e-09 8.383548e-06 1.722472e-10))
13.059792     	((-1.022798e-03 2.121181e-06 -1.355027e-03) (-2.292428e-04 1.038748e-07 -1.225726e-04)) ((-1.111851e-11 -2.682084e-08 1.859962e-12) (3.407909e-09 8.354637e-06 4.273761e-10))
13.630343     	((-1.014980e-03 2.501684e-06 -1.325025e-03) (-2.280830e-04 1.155699e-07 -1.221165e-04)) ((-1.908402e-11 -2.661754e-08 5.470791e-12) (3.973244e-09 8.321851e-06 6.389431e-10))
14.200597     	((-1.005744e-03 2.712563e-06 -1.296295e-03) (-2.268779e-04 1.270065e-07 -1.217945e-04)) ((-2.384029e-11 -2.639575e-08 4.126801e-12) (4.582578e-09 8.285679e-06 1.002995e-09))
14.77066      	((-9.961957e-04 3.020487e-06 -1.268626e-03) (-2.256537e-04 1.385682e-07 -1.215687e-04)) ((-2.849303e-11 -2.620851e-08 3.882185e-13) (5.179269e-09 8.247889e-06 1.442086e-09))
15.340631     	((-9.872187e-04 3.353607e-06 -1.242154e-03) (-2.244378e-04 1.530426e-07 -1.214015e-04)) ((-3.092122e-11 -2.604829e-08 -4.577027e-12) (5.910899e-09 8.210200e-06 1.833636e-09))
15.910491     	((-9.796160e-04 3.802023e-06 -1.216128e-03) (-2.232660e-04 1.685400e-07 -1.212521e-04)) ((-3.620224e-11 -2.594123e-08 -7.775937e-12) (6.786452e-09 8.174354e-06 2.277314e-09))
16.480088     	((-9.737582e-04 4.176306e-06 -1.191243e-03) (-2.221544e-04 1.850138e-07 -1.211101e-04)) ((-4.249337e-11 -2.585272e-08 -8.925984e-12) (7.714958e-09 8.140801e-06 2.799955e-09))
17.049456     	((-9.691358e-04 4.702721e-06 -1.167285e-03) (-2.211010e-04 2.042162e-07 -1.209704e-04)) ((-5.331122e-11 -2.579949e-08 -7.511947e-12) (8.817310e-09 8.109540e-06 3.451784e-09))
17.61866      	((-9.652932e-04 5.169076e-06 -1.144253e-03) (-2.201008e-04 2.268759e-07 -1.208273e-04)) ((-6.702416e-11 -2.576252e-08 -6.671659e-12) (1.009608e-08 8.080500e-06 4.036322e-09))
18.187729     	((-9.619400e-04 5.625781e-06 -1.121976e-03) (-2.191593e-04 2.517585e-07 -1.206757e-04)) ((-8.063292e-11 -2.573518e-08 -3.838438e-12) (1.143594e-08 8.053888e-06 4.596721e-09))
18.756682     	((-9.589162e-04 5.951990e-06 -1.100278e-03) (-2.182786e-04 2.760392e-07 -1.205105e-04)) ((-9.513804e-11 -2.571761e-08 -7.489440e-13) (1.266886e-08 8.029749e-06 5.187768e-09))
19.325541     	((-9.565421e-04 6.348062e-06 -1.079591e-03) (-2.174630e-04 2.988011e-07 -1.203300e-04)) ((-1.127484e-10 -2.571780e-08 3.230816e-12) (1.385099e-08 8.008150e-06 5.784845e-09))
19.894332     	((-9.531391e-04 6.882056e-06 -1.058933e-03) (-2.166933e-04 3.275142e-07 -1.201444e-04)) ((-1.302916e-10 -2.568924e-08 3.770911e-12) (1.511094e-08 7.988328e-06 6.142591e-09))
20.463078     	((-9.503330e-04 7.154886e-06 -1.039446e-03) (-2.159739e-04 3.572912e-07 -1.199417e-04)) ((-1.360495e-10 -2.568240e-08 1.233603e-12) (1.635269e-08 7.970757e-06 6.388357e-09))
21.031849     	((-9.464417e-04 7.531754e-06 -1.020139e-03) (-2.152867e-04 3.821658e-07 -1.197330e-04)) ((-1.401818e-10 -2.562864e-08 -2.396212e-13) (1.757520e-08 7.954533e-06 6.798913e-09))
21.600697     	((-9.423819e-04 7.998532e-06 -1.001183e-03) (-2.146113e-04 4.076139e-07 -1.195331e-04)) ((-1.436873e-10 -2.556667e-08 -3.162226e-12) (1.880984e-08 7.938413e-06 7.276538e-09))
22.169617     	((-9.386839e-04 8.422638e-06 -9.825512e-04) (-2.139537e-04 4.338143e-07 -1.193448e-04)) ((-1.495243e-10 -2.549430e-08 -5.273943e-12) (2.000075e-08 7.922322e-06 7.827413e-09))
22.738589     	((-9.352194e-04 9.151852e-06 -9.643139e-04) (-2.133146e-04 4.612676e-07 -1.191620e-04)) ((-1.595122e-10 -2.542907e-08 -7.168398e-12) (2.140662e-08 7.906229e-06 8.650429e-09))
23.307611     	((-9.321380e-04 9.837488e-06 -9.468253e-04) (-2.126888e-04 4.929808e-07 -1.189851e-04)) ((-1.692227e-10 -2.536050e-08 -9.577903e-12) (2.319096e-08 7.889889e-06 9.515721e-09))
23.876622     	((-9.287828e-04 1.065681e-05 -9.295110e-04) (-2.120665e-04 5.328506e-07 -1.188205e-04)) ((-1.815443e-10 -2.528332e-08 -1.022800e-11) (2.529205e-08 7.872941e-06 1.014980e-08))
24.44538      	((-9.256791e-04 1.166917e-05 -9.128783e-04) (-2.114490e-04 5.836749e-07 -1.186612e-04)) ((-1.992745e-10 -2.521758e-08 -1.106956e-11) (2.777975e-08 7.855711e-06 1.057865e-08))
25.013832     	((-9.230535e-04 1.274261e-05 -8.969467e-04) (-2.108489e-04 6.420258e-07 -1.184976e-04)) ((-2.098917e-10 -2.516605e-08 -1.057839e-11) (3.054785e-08 7.839033e-06 1.103461e-08))
25.582068     	((-9.205347e-04 1.382695e-05 -8.819126e-04) (-2.102743e-04 7.031019e-07 -1.183283e-04)) ((-2.199448e-10 -2.511946e-08 -1.012556e-11) (3.340909e-08 7.823374e-06 1.165067e-08))
26.150124     	((-9.179386e-04 1.503717e-05 -8.674661e-04) (-2.097266e-04 7.675714e-07 -1.181573e-04)) ((-2.372107e-10 -2.507248e-08 -9.108226e-12) (3.642207e-08 7.808822e-06 1.244707e-08))
26.718042     	((-9.151420e-04 1.628557e-05 -8.535039e-04) (-2.092012e-04 8.370209e-07 -1.179979e-04)) ((-2.561590e-10 -2.500973e-08 -7.181644e-12) (3.959468e-08 7.794900e-06 1.332946e-08))
27.285854     	((-9.122520e-04 1.756426e-05 -8.399018e-04) (-2.086909e-04 9.110246e-07 -1.178621e-04)) ((-2.744006e-10 -2.494186e-08 -4.304360e-12) (4.287754e-08 7.780861e-06 1.422236e-08))
27.853597     	((-9.094722e-04 1.891067e-05 -8.267620e-04) (-2.081901e-04 9.898794e-07 -1.177572e-04)) ((-2.923703e-10 -2.487347e-08 -8.812326e-13) (4.631485e-08 7.766148e-06 1.512719e-08))
28.421286     	((-9.066860e-04 2.040724e-05 -8.139047e-04) (-2.076925e-04 1.074992e-06 -1.176795e-04)) ((-3.080337e-10 -2.481655e-08 2.114313e-12) (4.996813e-08 7.750756e-06 1.607857e-08))
28.988919     	((-9.040489e-04 2.218784e-05 -8.013084e-04) (-2.072002e-04 1.169417e-06 -1.176070e-04)) ((-3.276869e-10 -2.478570e-08 3.889669e-12) (5.397271e-08 7.735554e-06 1.712809e-08))
29.55651      	((-9.012074e-04 2.422331e-05 -7.885958e-04) (-2.067161e-04 1.275719e-06 -1.175189e-04)) ((-3.544159e-10 -2.477014e-08 4.640953e-12) (5.848232e-08 7.721234e-06 1.830618e-08))
30.12407      	((-8.982629e-04 2.632176e-05 -7.758058e-04) (-2.062403e-04 1.392628e-06 -1.174093e-04)) ((-3.831924e-10 -2.475828e-08 3.533971e-12) (6.344907e-08 7.707792e-06 1.959950e-08))
30.691641     	((-8.955722e-04 2.849505e-05 -7.631292e-04) (-2.057766e-04 1.517626e-06 -1.172834e-04)) ((-4.139035e-10 -2.474397e-08 6.406360e-13) (6.877467e-08 7.694978e-06 2.102306e-08))
31.259233     	((-8.936538e-04 3.085577e-05 -7.510955e-04) (-2.053364e-04 1.650880e-06 -1.171377e-04)) ((-4.475746e-10 -2.474558e-08 -1.848629e-12) (7.446346e-08 7.683010e-06 2.262757e-08))
31.826842     	((-8.918794e-04 3.334407e-05 -7.393322e-04) (-2.049212e-04 1.793263e-06 -1.169727e-04)) ((-4.826311e-10 -2.474321e-08 -2.184105e-12) (8.052416e-08 7.671883e-06 2.438061e-08))
32.394477     	((-8.903634e-04 3.590373e-05 -7.280629e-04) (-2.045283e-04 1.943663e-06 -1.167890e-04)) ((-5.186329e-10 -2.474455e-08 -8.920642e-13) (8.693946e-08 7.661495e-06 2.626540e-08))
32.962145     	((-8.887501e-04 3.870632e-05 -7.170289e-04) (-2.041547e-04 2.103047e-06 -1.165944e-04)) ((-5.591143e-10 -2.473264e-08 2.150554e-13) (9.383050e-08 7.651526e-06 2.828517e-08))
33.529854     	((-8.869349e-04 4.169852e-05 -7.061130e-04) (-2.037915e-04 2.273325e-06 -1.163991e-04)) ((-6.033474e-10 -2.470999e-08 1.411525e-12) (1.013096e-07 7.641520e-06 3.043938e-08))
34.097616     	((-8.851619e-04 4.497544e-05 -6.955738e-04) (-2.034361e-04 2.457380e-06 -1.162034e-04)) ((-6.499087e-10 -2.468665e-08 3.430515e-12) (1.094077e-07 7.631457e-06 3.272921e-08))
34.665443     	((-8.832629e-04 4.848560e-05 -6.851778e-04) (-2.030869e-04 2.656975e-06 -1.160094e-04)) ((-6.987294e-10 -2.465847e-08 5.270953e-12) (1.181465e-07 7.621292e-06 3.515098e-08))
35.233383     	((-8.814752e-04 5.238472e-05 -6.750842e-04) (-2.027428e-04 2.875434e-06 -1.158189e-04)) ((-7.540317e-10 -2.463134e-08 6.232136e-12) (1.276923e-07 7.611025e-06 3.771270e-08))
35.801478     	((-8.797855e-04 5.653500e-05 -6.654161e-04) (-2.024052e-04 3.113726e-06 -1.156326e-04)) ((-8.147165e-10 -2.460322e-08 6.757994e-12) (1.381256e-07 7.600814e-06 4.042681e-08))
36.369698     	((-8.780899e-04 6.115084e-05 -6.559508e-04) (-2.020754e-04 3.373826e-06 -1.154522e-04)) ((-8.813183e-10 -2.457068e-08 6.626140e-12) (1.494908e-07 7.590750e-06 4.329233e-08))
36.938015     	((-8.765918e-04 6.610882e-05 -6.468425e-04) (-2.017571e-04 3.656115e-06 -1.152799e-04)) ((-9.516084e-10 -2.453643e-08 6.195105e-12) (1.617803e-07 7.580888e-06 4.632350e-08))
37.506427     	((-8.753003e-04 7.152746e-05 -6.381038e-04) (-2.014525e-04 3.961731e-06 -1.151169e-04)) ((-1.027651e-09 -2.449990e-08 5.555870e-12) (1.750235e-07 7.571298e-06 4.954722e-08))
38.074925     	((-8.741655e-04 7.739082e-05 -6.297161e-04) (-2.011613e-04 4.293120e-06 -1.149660e-04)) ((-1.111466e-09 -2.446043e-08 5.129777e-12) (1.893122e-07 7.562005e-06 5.301320e-08))
38.643508     	((-8.732007e-04 8.380682e-05 -6.217555e-04) (-2.008830e-04 4.652886e-06 -1.148283e-04)) ((-1.205266e-09 -2.442047e-08 5.571085e-12) (2.047678e-07 7.553052e-06 5.673098e-08))
39.212175     	((-8.722759e-04 9.089322e-05 -6.140663e-04) (-2.006125e-04 5.046075e-06 -1.147023e-04)) ((-1.309711e-09 -2.438301e-08 6.160131e-12) (2.216129e-07 7.544393e-06 6.078063e-08))
39.780921     	((-8.714012e-04 9.867342e-05 -6.065704e-04) (-2.003504e-04 5.477782e-06 -1.145886e-04)) ((-1.424501e-09 -2.434753e-08 6.231438e-12) (2.400357e-07 7.536062e-06 6.511194e-08))
40.34973      	((-8.706017e-04 1.071666e-04 -5.993143e-04) (-2.000993e-04 5.951845e-06 -1.144874e-04)) ((-1.550542e-09 -2.431207e-08 7.037868e-12) (2.602100e-07 7.528145e-06 6.972849e-08))
40.91859      	((-8.698984e-04 1.164224e-04 -5.922628e-04) (-1.998605e-04 6.471906e-06 -1.143981e-04)) ((-1.689162e-09 -2.427459e-08 7.174200e-12) (2.823046e-07 7.520715e-06 7.466487e-08))
41.487488     	((-8.693860e-04 1.262980e-04 -5.855076e-04) (-1.996373e-04 7.038481e-06 -1.143181e-04)) ((-1.834414e-09 -2.423954e-08 6.128276e-12) (3.063219e-07 7.513921e-06 7.989348e-08))
42.056407     	((-8.691241e-04 1.370551e-04 -5.789365e-04) (-1.994326e-04 7.655710e-06 -1.142458e-04)) ((-1.993472e-09 -2.420570e-08 4.187145e-12) (3.324267e-07 7.507900e-06 8.543526e-08))
42.625325     	((-8.690833e-04 1.486841e-04 -5.725926e-04) (-1.992473e-04 8.330059e-06 -1.141793e-04)) ((-2.165003e-09 -2.417532e-08 1.847257e-12) (3.608384e-07 7.502645e-06 9.142764e-08))
43.194223     	((-8.692801e-04 1.612777e-04 -5.664114e-04) (-1.990795e-04 9.064230e-06 -1.141126e-04)) ((-2.349954e-09 -2.415049e-08 -5.702256e-13) (3.916925e-07 7.498282e-06 9.792077e-08))
43.763085     	((-8.696589e-04 1.749530e-04 -5.603907e-04) (-1.989324e-04 9.865062e-06 -1.140426e-04)) ((-2.549921e-09 -2.413062e-08 -1.815988e-12) (4.252182e-07 7.494944e-06 1.046719e-07))
44.331891     	((-8.703979e-04 1.896891e-04 -5.546756e-04) (-1.988151e-04 1.073992e-05 -1.139631e-04)) ((-2.765602e-09 -2.411990e-08 -5.485456e-13) (4.616791e-07 7.492936e-06 1.114865e-07))
44.900624     	((-8.713476e-04 2.056913e-04 -5.491554e-04) (-1.987287e-04 1.169683e-05 -1.138694e-04)) ((-2.999794e-09 -2.411156e-08 1.319059e-12) (5.013973e-07 7.492405e-06 1.183977e-07))
45.469264     	((-8.727004e-04 2.228277e-04 -5.440216e-04) (-1.986795e-04 1.273871e-05 -1.137627e-04)) ((-3.247838e-09 -2.410555e-08 3.445846e-12) (5.445438e-07 7.493373e-06 1.255613e-07))
46.037793     	((-8.743039e-04 2.412980e-04 -5.391715e-04) (-1.986650e-04 1.386811e-05 -1.136483e-04)) ((-3.514765e-09 -2.409408e-08 5.353239e-12) (5.912222e-07 7.495714e-06 1.330905e-07))
46.606192     	((-8.765091e-04 2.611581e-04 -5.347793e-04) (-1.986777e-04 1.508597e-05 -1.135307e-04)) ((-3.799131e-09 -2.408801e-08 7.357208e-12) (6.416002e-07 7.499209e-06 1.413065e-07))
47.174445     	((-8.792311e-04 2.828671e-04 -5.305880e-04) (-1.987166e-04 1.640326e-05 -1.134157e-04)) ((-4.106972e-09 -2.408009e-08 1.045092e-11) (6.961525e-07 7.503675e-06 1.503731e-07))
47.742535     	((-8.825486e-04 3.061889e-04 -5.267917e-04) (-1.987909e-04 1.783104e-05 -1.133064e-04)) ((-4.432182e-09 -2.407716e-08 1.615295e-11) (7.552179e-07 7.509220e-06 1.600234e-07))
48.310438     	((-8.869111e-04 3.313922e-04 -5.237580e-04) (-1.989098e-04 1.937485e-05 -1.131975e-04)) ((-4.781707e-09 -2.408526e-08 2.245175e-11) (8.190238e-07 7.516322e-06 1.704122e-07))
48.878127     	((-8.921633e-04 3.586077e-04 -5.215094e-04) (-1.990827e-04 2.104459e-05 -1.130913e-04)) ((-5.165768e-09 -2.409593e-08 2.876785e-11) (8.881390e-07 7.525350e-06 1.816690e-07))
49.445574     	((-8.985680e-04 3.876189e-04 -5.202239e-04) (-1.993217e-04 2.284692e-05 -1.129919e-04)) ((-5.584108e-09 -2.411827e-08 3.637371e-11) (9.629716e-07 7.536638e-06 1.936488e-07))
50.01275      	((-9.062818e-04 4.186196e-04 -5.200896e-04) (-1.996406e-04 2.479478e-05 -1.128995e-04)) ((-6.022946e-09 -2.415346e-08 4.538888e-11) (1.043699e-06 7.550636e-06 2.059303e-07))
50.579623     	((-9.154616e-04 4.516290e-04 -5.211904e-04) (-2.000454e-04 2.689382e-05 -1.128144e-04)) ((-6.483111e-09 -2.421041e-08 5.480573e-11) (1.130422e-06 7.567858e-06 2.186988e-07))
51.146169     	((-9.261304e-04 4.870190e-04 -5.232694e-04) (-2.005401e-04 2.915036e-05 -1.127363e-04)) ((-6.977509e-09 -2.426705e-08 5.875952e-11) (1.223411e-06 7.588739e-06 2.323111e-07))
51.712374     	((-9.387433e-04 5.245791e-04 -5.270075e-04) (-2.011263e-04 3.156146e-05 -1.126656e-04)) ((-7.506030e-09 -2.433618e-08 5.885534e-11) (1.323032e-06 7.613698e-06 2.473532e-07))
52.27821      	((-9.536579e-04 5.646931e-04 -5.324217e-04) (-2.018200e-04 3.413910e-05 -1.125994e-04)) ((-8.060366e-09 -2.443964e-08 5.754381e-11) (1.429761e-06 7.643455e-06 2.637023e-07))
52.843625     	((-9.705193e-04 6.067907e-04 -5.391095e-04) (-2.026553e-04 3.689873e-05 -1.125428e-04)) ((-8.619607e-09 -2.456256e-08 5.475616e-11) (1.543660e-06 7.678660e-06 2.800501e-07))
53.408568     	((-9.906096e-04 6.505686e-04 -5.485270e-04) (-2.036563e-04 3.983056e-05 -1.124806e-04)) ((-9.165364e-09 -2.474277e-08 5.443994e-11) (1.663941e-06 7.720589e-06 2.965521e-07))
53.973014     	((-1.013580e-03 6.964265e-04 -5.601066e-04) (-2.048289e-04 4.293114e-05 -1.124040e-04)) ((-9.715479e-09 -2.495732e-08 5.694307e-11) (1.790057e-06 7.770336e-06 3.140065e-07))
54.537012     	((-1.039935e-03 7.430986e-04 -5.746673e-04) (-2.061976e-04 4.618515e-05 -1.123064e-04)) ((-1.025636e-08 -2.523343e-08 6.470056e-11) (1.921327e-06 7.828816e-06 3.328750e-07))
55.100517     	((-1.068939e-03 7.900644e-04 -5.916689e-04) (-2.077891e-04 4.957353e-05 -1.121859e-04)) ((-1.076851e-08 -2.554204e-08 7.423242e-11) (2.057161e-06 7.896588e-06 3.520721e-07))
55.66328      	((-1.100671e-03 8.373144e-04 -6.113032e-04) (-2.096384e-04 5.308933e-05 -1.120555e-04)) ((-1.126655e-08 -2.589424e-08 8.554948e-11) (2.197303e-06 7.973498e-06 3.699727e-07))
56.225281     	((-1.135568e-03 8.841350e-04 -6.340709e-04) (-2.117612e-04 5.669768e-05 -1.118908e-04)) ((-1.174796e-08 -2.631790e-08 8.359916e-11) (2.340672e-06 8.060606e-06 3.870262e-07))
56.786344     	((-1.173215e-03 9.287505e-04 -6.598996e-04) (-2.141397e-04 6.034153e-05 -1.116634e-04)) ((-1.216436e-08 -2.680274e-08 7.182985e-11) (2.485089e-06 8.158601e-06 4.047478e-07))
