# Forces      
# CofR        : (0.000000e+00 0.000000e+00 0.000000e+00)
# Time        forces(pressure viscous)	moments(pressure viscous)
0             	((0.000000e+00 0.000000e+00 0.000000e+00) (-1.550947e-09 -2.796872e-12 -1.590228e-04)) ((0.000000e+00 0.000000e+00 0.000000e+00) (3.164972e-13 -1.607257e-11 1.890654e-16))
0.012         	((-8.144791e-06 -3.848100e-06 -1.214979e-01) (-7.584388e-09 -3.660007e-09 -1.554862e-04)) ((5.634388e-10 -3.154475e-07 -1.700745e-11) (-2.890679e-10 5.723988e-10 -2.260124e-13))
0.0264        	((4.785763e-06 6.614936e-07 8.669877e-03) (-9.342305e-09 -4.744034e-09 -1.476647e-04)) ((-1.333837e-10 2.054893e-08 1.074429e-10) (-3.186001e-10 1.865539e-10 8.296944e-12))
0.04368       	((2.970416e-06 7.117848e-06 1.559738e-02) (-7.801685e-09 8.267871e-10 -1.331596e-04)) ((-3.729341e-10 3.362848e-08 -2.459307e-10) (1.395211e-10 -1.274458e-09 4.065118e-11))
0.064416      	((4.903080e-06 2.865173e-07 2.786111e-03) (-5.822011e-09 8.226888e-09 -1.195018e-04)) ((-2.373994e-11 1.090914e-08 4.906567e-11) (5.628152e-10 -2.169441e-09 3.926767e-11))
0.0892992     	((1.524726e-06 1.481092e-07 1.533032e-03) (1.414349e-09 1.068484e-08 -1.106656e-04)) ((-4.829546e-11 6.396974e-09 1.397326e-11) (6.539249e-10 -2.416125e-09 1.670117e-11))
0.119159      	((3.675049e-07 7.718219e-08 1.217014e-03) (6.517510e-09 9.550880e-09 -1.027320e-04)) ((-1.175902e-11 4.119208e-09 -1.645058e-11) (5.794202e-10 -2.482815e-09 2.102035e-11))
0.154991      	((2.108510e-07 -9.857831e-08 6.948958e-04) (8.615963e-09 8.354271e-09 -9.421106e-05)) ((-2.107119e-11 2.780138e-09 2.559340e-11) (4.728750e-10 -2.465324e-09 3.053316e-11))
0.197989      	((1.745353e-07 -1.129545e-07 4.476533e-04) (1.050508e-08 7.183583e-09 -8.568332e-05)) ((-2.526513e-11 1.867412e-09 1.318227e-11) (3.822478e-10 -2.462005e-09 3.680664e-11))
0.249587      	((9.874100e-08 3.278821e-08 3.155074e-04) (1.085456e-08 6.124477e-09 -7.740472e-05)) ((-1.937186e-11 1.293475e-09 2.052334e-12) (3.514735e-10 -2.337735e-09 5.137145e-11))
0.311504      	((-6.810432e-08 -2.227784e-09 2.198361e-04) (1.048308e-08 5.615968e-09 -6.958263e-05)) ((-1.715828e-11 9.075068e-10 -4.913212e-13) (3.732241e-10 -2.159100e-09 5.672731e-11))
0.385805      	((-1.174243e-07 -2.204915e-08 1.528694e-04) (9.867917e-09 5.255167e-09 -6.241002e-05)) ((-1.540984e-11 6.521641e-10 -2.448672e-12) (3.724156e-10 -1.966084e-09 4.818306e-11))
0.474966      	((-5.983672e-08 8.270443e-09 1.060087e-04) (9.041522e-09 4.613608e-09 -5.598515e-05)) ((-1.294909e-11 4.803407e-10 7.006822e-13) (3.481492e-10 -1.738788e-09 4.627154e-11))
0.581959      	((-1.261365e-08 2.882877e-08 7.241439e-05) (8.370688e-09 3.875611e-09 -5.026017e-05)) ((-1.253349e-11 3.627237e-10 -2.774303e-12) (3.112868e-10 -1.480667e-09 3.498384e-11))
0.710351      	((1.626391e-08 4.682425e-08 4.801109e-05) (7.931657e-09 3.047476e-09 -4.509648e-05)) ((-1.302325e-11 2.796729e-10 -2.269151e-12) (2.569712e-10 -1.295353e-09 1.801375e-11))
0.864421      	((4.786615e-08 6.415562e-08 3.061536e-05) (7.774376e-09 2.321686e-09 -4.043188e-05)) ((-1.338239e-11 2.201081e-10 -3.256921e-13) (1.994755e-10 -1.176623e-09 1.040246e-11))
1.049306      	((8.969454e-08 8.990948e-08 1.814100e-05) (6.847387e-09 2.253271e-09 -3.627886e-05)) ((-1.567414e-11 1.795542e-10 2.051061e-13) (1.545246e-10 -1.016528e-09 6.469932e-12))
1.271167      	((1.240395e-07 1.248878e-07 9.171046e-06) (6.140596e-09 2.911556e-09 -3.261172e-05)) ((-1.830915e-11 1.531886e-10 -1.231523e-13) (1.206548e-10 -8.471490e-10 8.975054e-13))
1.5374        	((1.450744e-07 1.570814e-07 2.805971e-06) (6.303879e-09 3.901001e-09 -2.936512e-05)) ((-1.964949e-11 1.354601e-10 -5.316779e-13) (1.217843e-10 -7.211713e-10 -3.233005e-12))
1.85688       	((1.560565e-07 1.710663e-07 -1.730680e-06) (6.772976e-09 4.920885e-09 -2.649420e-05)) ((-2.053671e-11 1.216116e-10 -6.327773e-13) (1.821224e-10 -6.542120e-10 -2.558832e-12))
2.240256      	((1.498033e-07 1.566911e-07 -5.126399e-06) (7.777858e-09 5.929447e-09 -2.396667e-05)) ((-1.842733e-11 1.101030e-10 4.498258e-13) (2.668946e-10 -6.581052e-10 -1.543497e-12))
2.700307      	((1.272300e-07 1.299895e-07 -7.720531e-06) (8.358363e-09 6.722066e-09 -2.173637e-05)) ((-1.427065e-11 9.776114e-11 6.213537e-13) (3.563158e-10 -7.023872e-10 -1.556670e-12))
3.252369      	((9.362657e-08 9.541306e-08 -9.715913e-06) (8.547516e-09 7.257437e-09 -1.976098e-05)) ((-8.475070e-12 8.332607e-11 9.055187e-13) (4.444088e-10 -7.365482e-10 -1.536178e-12))
3.914842      	((5.715006e-08 5.747999e-08 -1.132114e-05) (8.514596e-09 7.748988e-09 -1.802058e-05)) ((-1.279863e-12 6.746957e-11 1.013474e-12) (5.329995e-10 -7.556122e-10 -1.783954e-12))
4.709811      	((2.702154e-08 2.447019e-08 -1.266198e-05) (8.894915e-09 8.441836e-09 -1.650990e-05)) ((6.343227e-12 5.208805e-11 1.014640e-12) (6.470531e-10 -8.319146e-10 -2.128324e-12))
5.663773      	((3.270258e-09 5.965752e-09 -1.377597e-05) (9.585722e-09 9.072445e-09 -1.521955e-05)) ((1.068991e-11 4.271767e-11 9.988689e-13) (7.512169e-10 -9.436130e-10 -1.340494e-12))
6.808528      	((-6.569012e-09 -2.128552e-09 -1.476089e-05) (9.869858e-09 9.136707e-09 -1.413650e-05)) ((1.133849e-11 3.938986e-11 8.930548e-13) (7.998685e-10 -1.024000e-09 -7.398420e-13))
8.182233      	((-3.373350e-09 2.007108e-09 -1.559202e-05) (9.534534e-09 8.714574e-09 -1.324219e-05)) ((1.028115e-11 3.916342e-11 6.301339e-13) (8.218603e-10 -1.068404e-09 -7.278480e-13))
9.83068       	((-1.687620e-09 2.034164e-09 -1.625638e-05) (8.469812e-09 7.657131e-09 -1.251281e-05)) ((9.254605e-12 4.008996e-11 3.073277e-13) (8.047947e-10 -1.057829e-09 -7.652970e-13))
11.808816     	((1.288754e-08 1.641988e-08 -1.687106e-05) (7.385334e-09 6.577575e-09 -1.192827e-05)) ((8.144655e-12 4.208227e-11 2.771400e-13) (7.802534e-10 -1.031524e-09 1.568912e-12))
14.182579     	((2.692846e-08 3.133070e-08 -1.747495e-05) (6.968722e-09 6.110372e-09 -1.146705e-05)) ((7.583211e-12 4.413714e-11 4.451294e-13) (7.619159e-10 -1.001249e-09 3.771341e-12))
17.031095     	((3.529032e-08 4.009308e-08 -1.796757e-05) (6.817278e-09 5.951901e-09 -1.111252e-05)) ((7.830094e-12 4.577144e-11 5.906517e-13) (7.500250e-10 -9.654404e-10 2.261144e-12))
20.449314     	((3.321787e-08 4.048293e-08 -1.825999e-05) (6.894774e-09 6.135002e-09 -1.084506e-05)) ((8.066931e-12 4.759249e-11 4.174723e-13) (7.656847e-10 -9.516785e-10 2.287447e-12))
24.551176     	((3.383047e-08 4.182517e-08 -1.849282e-05) (7.133485e-09 6.544948e-09 -1.064856e-05)) ((8.240706e-12 5.003737e-11 3.078229e-13) (8.025150e-10 -9.677375e-10 4.223438e-12))
29.473411     	((3.234749e-08 4.210227e-08 -1.837926e-05) (7.399348e-09 6.997572e-09 -1.051070e-05)) ((8.309225e-12 5.322451e-11 1.629231e-13) (8.418481e-10 -9.845863e-10 3.035419e-12))
35.380094     	((3.278568e-08 4.424163e-08 -1.798963e-05) (7.907567e-09 7.580876e-09 -1.040700e-05)) ((8.370630e-12 5.666889e-11 1.931564e-13) (8.762170e-10 -1.000383e-09 1.660832e-13))
42.468112     	((3.083190e-08 4.290046e-08 -1.764425e-05) (8.265534e-09 7.991979e-09 -1.032640e-05)) ((8.499146e-12 5.910577e-11 2.609404e-13) (9.004887e-10 -1.019912e-09 -1.646223e-12))
50.973735     	((2.940034e-08 4.335286e-08 -1.742294e-05) (8.344972e-09 8.192717e-09 -1.026897e-05)) ((8.534130e-12 6.111773e-11 1.557790e-14) (9.173400e-10 -1.031239e-09 -4.173855e-13))
60.936563     	((2.990265e-08 4.490607e-08 -1.713989e-05) (8.259218e-09 8.358955e-09 -1.023146e-05)) ((8.562395e-12 6.286775e-11 1.369227e-13) (9.212407e-10 -1.014298e-09 -1.257654e-12))
72.354572     	((3.200119e-08 4.800730e-08 -1.678325e-05) (8.102736e-09 8.501521e-09 -1.020488e-05)) ((8.442389e-12 6.461557e-11 9.534667e-14) (9.161768e-10 -9.820372e-10 -1.286755e-12))
85.225988     	((3.218564e-08 4.803804e-08 -1.644317e-05) (7.976749e-09 8.635103e-09 -1.018365e-05)) ((8.332369e-12 6.621870e-11 8.637486e-15) (9.112021e-10 -9.540634e-10 4.878781e-13))
99.549292     	((3.247999e-08 4.855304e-08 -1.616653e-05) (7.800855e-09 8.702945e-09 -1.016856e-05)) ((8.226710e-12 6.754165e-11 -2.933179e-14) (9.042252e-10 -9.286944e-10 5.050413e-13))
114.05544     	((3.416527e-08 4.975273e-08 -1.595735e-05) (7.634989e-09 8.695922e-09 -1.015941e-05)) ((8.081399e-12 6.867601e-11 -1.669419e-14) (8.945214e-10 -9.065294e-10 -3.470907e-13))
128.552955    	((3.562422e-08 5.086638e-08 -1.577683e-05) (7.500363e-09 8.678300e-09 -1.015382e-05)) ((7.960873e-12 6.955777e-11 -3.047693e-15) (8.873848e-10 -8.900653e-10 -1.151157e-12))
143.044585    	((3.713506e-08 5.170287e-08 -1.561418e-05) (7.408393e-09 8.664154e-09 -1.014982e-05)) ((7.883031e-12 7.025639e-11 -1.329681e-14) (8.825402e-10 -8.785288e-10 -1.344026e-12))
157.532097    	((3.876261e-08 5.267626e-08 -1.548070e-05) (7.377677e-09 8.668998e-09 -1.014664e-05)) ((7.817893e-12 7.080112e-11 -2.291419e-14) (8.789441e-10 -8.705888e-10 -1.123305e-12))
172.016724    	((4.050075e-08 5.383602e-08 -1.536750e-05) (7.409769e-09 8.699104e-09 -1.014404e-05)) ((7.770104e-12 7.123682e-11 -2.550083e-14) (8.760589e-10 -8.655333e-10 -7.361563e-13))
186.499289    	((4.244468e-08 5.521874e-08 -1.526990e-05) (7.516056e-09 8.773469e-09 -1.014187e-05)) ((7.733283e-12 7.160696e-11 -3.182639e-14) (8.745935e-10 -8.639931e-10 -3.697748e-13))
200.980417    	((4.418515e-08 5.657781e-08 -1.519082e-05) (7.668333e-09 8.883012e-09 -1.014010e-05)) ((7.701326e-12 7.190736e-11 -3.187925e-14) (8.746913e-10 -8.650810e-10 -1.158233e-13))
215.46047     	((4.582268e-08 5.794562e-08 -1.512418e-05) (7.840018e-09 9.010150e-09 -1.013876e-05)) ((7.671117e-12 7.216362e-11 -2.724941e-14) (8.759844e-10 -8.676566e-10 7.013445e-15))
229.939702    	((4.718480e-08 5.918956e-08 -1.506484e-05) (8.012907e-09 9.146929e-09 -1.013775e-05)) ((7.646440e-12 7.238277e-11 -2.339139e-14) (8.782316e-10 -8.710006e-10 5.005275e-14))
