# Forces      
# CofR        : (0.000000e+00 0.000000e+00 0.000000e+00)
# Time        forces(pressure viscous)	moments(pressure viscous)
0             	((0.000000e+00 0.000000e+00 0.000000e+00) (0.000000e+00 0.000000e+00 0.000000e+00)) ((0.000000e+00 0.000000e+00 0.000000e+00) (0.000000e+00 0.000000e+00 0.000000e+00))
0.012         	((3.606811e-09 -4.814615e-07 5.088397e-09) (9.064924e-11 -5.328676e-09 1.067480e-10)) ((3.604810e-11 1.201821e-12 6.779590e-09) (-1.006071e-10 -2.172157e-12 1.339627e-05))
0.0264        	((-7.391348e-09 1.715835e-07 -4.290447e-08) (9.786602e-11 -5.846191e-09 -3.096746e-10)) ((8.337964e-11 2.671982e-12 2.268410e-09) (-1.672858e-10 1.649992e-13 1.173182e-05))
0.04368       	((5.838324e-09 -8.196069e-08 -1.139154e-07) (1.016894e-10 -3.768458e-09 -1.219026e-09)) ((-3.122079e-11 5.323940e-12 1.395512e-09) (-1.201176e-10 3.369159e-12 1.017338e-05))
0.064416      	((6.967415e-09 -2.260176e-08 -2.122714e-07) (-3.371799e-10 -1.556670e-09 -5.959153e-10)) ((1.845173e-11 4.562201e-12 1.095652e-09) (-3.107124e-11 2.039851e-11 8.772908e-06))
0.0892992     	((6.832574e-09 -4.174027e-08 -3.372614e-07) (-9.539167e-10 -3.415973e-10 4.468894e-09)) ((-6.374529e-12 1.086927e-11 9.507493e-10) (1.339868e-11 4.485634e-11 7.569407e-06))
0.119159      	((5.951667e-09 -2.925788e-08 -4.555710e-07) (-1.628205e-09 3.787212e-10 1.107353e-08)) ((-3.527782e-12 9.880178e-12 7.834768e-10) (5.041122e-11 6.577938e-11 6.565716e-06))
0.154991      	((1.587905e-08 -3.602807e-08 -5.840820e-07) (-2.375870e-09 1.281801e-09 2.351828e-08)) ((-8.414175e-12 9.935337e-12 6.619153e-10) (7.043561e-11 8.315374e-11 5.731757e-06))
0.197989      	((1.508433e-08 -3.180918e-08 -6.981044e-07) (-2.639785e-09 1.710247e-09 4.725073e-08)) ((-7.056919e-12 9.473139e-12 5.764147e-10) (7.689903e-11 8.463848e-11 5.030341e-06))
0.249587      	((1.618355e-08 -3.402769e-08 -8.139673e-07) (-3.325007e-09 1.575849e-09 8.179500e-08)) ((-6.519697e-12 1.062606e-11 5.157224e-10) (6.244470e-11 7.828433e-11 4.436073e-06))
0.311504      	((1.308447e-08 -4.544003e-08 -9.342885e-07) (-3.632994e-09 1.545331e-09 1.262307e-07)) ((-4.819295e-12 1.271495e-11 4.644289e-10) (5.434394e-11 8.933993e-11 3.928199e-06))
0.385805      	((2.188250e-08 -3.362273e-08 -1.042353e-06) (-3.940780e-09 1.677349e-09 1.798096e-07)) ((-2.576320e-13 1.450912e-11 4.179789e-10) (5.838694e-11 1.246411e-10 3.493910e-06))
0.474966      	((3.711151e-08 -3.722690e-08 -1.143301e-06) (-4.073996e-09 2.201010e-09 2.409560e-07)) ((7.957020e-13 1.803415e-11 3.763448e-10) (6.907866e-11 1.581262e-10 3.121137e-06))
0.581959      	((3.957028e-08 -2.651009e-08 -1.264526e-06) (-4.620307e-09 2.258240e-09 3.102804e-07)) ((3.628459e-13 1.671743e-11 3.409831e-10) (8.926483e-11 1.654468e-10 2.798503e-06))
0.710351      	((3.111598e-08 -2.302235e-08 -1.419579e-06) (-5.086008e-09 2.448898e-09 3.906471e-07)) ((2.571197e-12 1.106476e-11 3.084292e-10) (1.249082e-10 1.620614e-10 2.516322e-06))
0.864421      	((2.529693e-08 -7.534064e-09 -1.579203e-06) (-4.128726e-09 3.569056e-09 4.814825e-07)) ((4.473480e-12 8.167872e-13 2.786212e-10) (1.426393e-10 1.609249e-10 2.267683e-06))
1.049306      	((2.477377e-08 -7.132442e-09 -1.770970e-06) (-4.673750e-09 4.357369e-09 5.849981e-07)) ((7.753152e-12 -3.184039e-12 2.544349e-10) (1.339290e-10 1.470470e-10 2.048518e-06))
1.271167      	((2.043530e-08 -6.951083e-09 -1.942620e-06) (-6.422761e-09 4.548804e-09 7.018585e-07)) ((7.675392e-12 -6.796173e-12 2.336411e-10) (1.100012e-10 1.390563e-10 1.856759e-06))
1.5374        	((1.217387e-08 4.456721e-09 -2.124573e-06) (-6.467272e-09 4.443942e-09 8.272328e-07)) ((6.387796e-12 -6.771207e-12 2.139722e-10) (5.982458e-11 1.383308e-10 1.690986e-06))
1.85688       	((1.762549e-08 -3.442703e-09 -2.336429e-06) (-2.950199e-09 3.069754e-09 9.603867e-07)) ((6.449126e-12 -5.089557e-12 1.954209e-10) (-2.346329e-11 9.372204e-11 1.549144e-06))
2.240256      	((1.648050e-08 -1.993752e-08 -2.543177e-06) (1.169402e-09 -3.196919e-10 1.098953e-06)) ((6.781871e-12 -5.619715e-12 1.785672e-10) (-1.178667e-10 2.814524e-11 1.427881e-06))
2.700307      	((9.824265e-09 -2.460137e-08 -2.767855e-06) (5.861463e-09 -3.230529e-09 1.241064e-06)) ((4.809818e-12 -8.884147e-12 1.629265e-10) (-2.230815e-10 -4.821064e-11 1.322979e-06))
3.252369      	((-2.117844e-09 -3.034531e-08 -3.049392e-06) (1.055013e-08 -6.882149e-09 1.387104e-06)) ((1.816329e-12 -1.497447e-11 1.479911e-10) (-3.012071e-10 -9.679857e-11 1.230399e-06))
3.914842      	((-7.363965e-09 -3.695847e-08 -3.380739e-06) (1.243122e-08 -8.522816e-09 1.538928e-06)) ((9.918097e-13 -1.757691e-11 1.340323e-10) (-3.465784e-10 -1.294525e-10 1.147102e-06))
4.709811      	((-1.923594e-08 -4.654132e-08 -3.736183e-06) (1.385652e-08 -9.651988e-09 1.698055e-06)) ((-5.554777e-14 -1.845199e-11 1.217394e-10) (-3.620765e-10 -1.360949e-10 1.071137e-06))
5.663773      	((-2.132810e-08 -4.065455e-08 -4.103730e-06) (1.346554e-08 -9.009327e-09 1.867821e-06)) ((-4.914752e-13 -1.866817e-11 1.109542e-10) (-3.313569e-10 -1.095245e-10 1.001245e-06))
6.808528      	((-2.388745e-08 -3.491414e-08 -4.499110e-06) (9.384795e-09 -8.089511e-09 2.052375e-06)) ((-1.752549e-12 -1.987333e-11 1.012484e-10) (-2.264293e-10 -3.290025e-11 9.365394e-07))
8.182233      	((-2.960917e-08 -3.981407e-08 -4.893909e-06) (5.179665e-09 -4.882707e-09 2.255022e-06)) ((-2.131006e-12 -2.126016e-11 9.257088e-11) (-1.197899e-10 1.111292e-10 8.765975e-07))
9.83068       	((-2.856928e-08 -4.738592e-08 -5.293056e-06) (-4.686109e-10 -2.104680e-09 2.480196e-06)) ((-1.188530e-12 -2.277994e-11 8.552319e-11) (-7.146059e-11 2.380511e-10 8.212157e-07))
11.808816     	((-2.199469e-08 -3.552239e-08 -5.682822e-06) (-3.107667e-09 -1.592983e-10 2.723212e-06)) ((-2.707025e-12 -2.411924e-11 7.849111e-11) (-1.861541e-11 2.633060e-10 7.704247e-07))
14.182579     	((-2.996838e-08 -3.449349e-08 -6.084985e-06) (-2.942075e-09 -6.024356e-10 2.981072e-06)) ((-2.736471e-12 -2.551117e-11 7.180166e-11) (2.174775e-11 1.731126e-10 7.245412e-07))
17.031095     	((-2.592854e-08 -3.001019e-08 -6.486061e-06) (-2.209688e-09 -9.871230e-10 3.254843e-06)) ((-3.749062e-12 -2.816132e-11 6.623690e-11) (6.608413e-11 1.871210e-11 6.838996e-07))
20.449314     	((-2.475686e-08 -2.830402e-08 -6.876913e-06) (-2.108095e-10 1.828434e-10 3.537911e-06)) ((-5.198566e-12 -3.119673e-11 6.165455e-11) (2.231413e-10 -1.370155e-10 6.485743e-07))
24.508737     	((-2.446784e-08 -3.783255e-08 -7.272233e-06) (1.677823e-09 1.577034e-09 3.823132e-06)) ((-4.882116e-12 -3.511325e-11 5.766759e-11) (3.449556e-10 -2.459414e-10 6.183872e-07))
29.211147     	((-2.308863e-08 -3.911038e-08 -7.672577e-06) (2.894669e-09 3.404848e-09 4.109089e-06)) ((-5.404397e-12 -3.890223e-11 5.414437e-11) (4.377109e-10 -3.110830e-10 5.930102e-07))
34.556451     	((-1.985833e-08 -3.671720e-08 -8.063293e-06) (3.398874e-09 3.991893e-09 4.393843e-06)) ((-4.773944e-12 -4.343490e-11 5.098729e-11) (4.847010e-10 -3.650723e-10 5.717939e-07))
40.544544     	((-1.319977e-08 -3.309433e-08 -8.417086e-06) (3.116773e-09 5.657611e-09 4.675961e-06)) ((-4.745469e-12 -4.829668e-11 4.825630e-11) (5.386731e-10 -4.246683e-10 5.541296e-07))
46.971131     	((-7.464657e-09 -3.817772e-08 -8.739655e-06) (3.568321e-09 6.153970e-09 4.951425e-06)) ((-3.821079e-12 -5.184901e-11 4.575649e-11) (6.043336e-10 -4.701458e-10 5.398952e-07))
53.396214     	((-2.084557e-09 -4.067738e-08 -9.039288e-06) (4.722234e-09 7.036577e-09 5.218067e-06)) ((-2.867690e-12 -5.556665e-11 4.387305e-11) (6.286824e-10 -5.124496e-10 5.291015e-07))
59.819643     	((1.966884e-09 -3.504497e-08 -9.266038e-06) (5.341824e-09 8.407419e-09 5.478114e-06)) ((-2.294945e-12 -5.961132e-11 4.233956e-11) (6.620425e-10 -5.547611e-10 5.213482e-07))
66.241222     	((3.764327e-09 -2.855964e-08 -9.422740e-06) (5.131161e-09 1.011803e-08 5.729536e-06)) ((-2.368292e-12 -6.355521e-11 4.115735e-11) (7.250976e-10 -5.866228e-10 5.163984e-07))
72.660794     	((5.305326e-10 -1.878437e-08 -9.515977e-06) (4.320450e-09 1.176594e-08 5.969787e-06)) ((-2.728795e-12 -6.714033e-11 4.001710e-11) (7.992213e-10 -5.804181e-10 5.139799e-07))
79.078226     	((-1.426453e-09 -9.292909e-09 -9.569363e-06) (3.265370e-09 1.333495e-08 6.199594e-06)) ((-3.028456e-12 -7.104659e-11 3.932984e-11) (8.899227e-10 -5.612191e-10 5.138182e-07))
85.493261     	((-7.506212e-09 -5.965959e-09 -9.589552e-06) (2.022827e-09 1.524383e-08 6.420630e-06)) ((-3.047530e-12 -7.529072e-11 3.906029e-11) (9.583152e-10 -5.314600e-10 5.156525e-07))
91.90574      	((-1.315351e-08 -4.133263e-09 -9.575828e-06) (1.303233e-09 1.598063e-08 6.633439e-06)) ((-3.062099e-12 -7.983503e-11 3.917658e-11) (1.004011e-09 -5.005814e-10 5.192832e-07))
98.265497     	((-1.970838e-08 -1.165811e-08 -9.531993e-06) (1.624950e-09 1.490720e-08 6.834884e-06)) ((-2.892628e-12 -8.437836e-11 3.968092e-11) (1.029924e-09 -4.612426e-10 5.245007e-07))
104.496883    	((-2.152386e-08 -1.861499e-08 -9.460228e-06) (7.763202e-10 1.316928e-08 7.019994e-06)) ((-2.855567e-12 -8.881711e-11 4.035011e-11) (1.034763e-09 -4.115952e-10 5.310370e-07))
110.613868    	((-1.807680e-08 -2.255271e-08 -9.361780e-06) (6.129573e-10 1.228617e-08 7.182153e-06)) ((-3.096544e-12 -9.235887e-11 4.129714e-11) (1.022329e-09 -3.769803e-10 5.386116e-07))
116.634212    	((-1.354226e-08 -2.200853e-08 -9.246197e-06) (3.639974e-10 1.086079e-08 7.313300e-06)) ((-3.738549e-12 -9.444121e-11 4.222864e-11) (1.004585e-09 -3.500213e-10 5.468967e-07))
122.536856    	((-8.274480e-09 -2.025266e-08 -9.122209e-06) (9.040099e-10 9.867763e-09 7.404771e-06)) ((-3.722484e-12 -9.508224e-11 4.321951e-11) (1.000687e-09 -3.267000e-10 5.554983e-07))
128.342499    	((-2.626937e-09 -2.027541e-08 -8.995286e-06) (1.607720e-09 9.314412e-09 7.455897e-06)) ((-3.411496e-12 -9.431641e-11 4.434209e-11) (9.986819e-10 -3.124159e-10 5.639880e-07))
134.045947    	((4.640051e-10 -2.294515e-08 -8.856407e-06) (2.628131e-09 8.905317e-09 7.466566e-06)) ((-3.007832e-12 -9.203487e-11 4.560628e-11) (9.902505e-10 -3.117329e-10 5.719298e-07))
139.667367    	((1.616416e-09 -2.418909e-08 -8.695323e-06) (3.468238e-09 7.962777e-09 7.435331e-06)) ((-3.158443e-12 -8.826142e-11 4.682642e-11) (9.773602e-10 -3.223502e-10 5.789670e-07))
145.225866    	((4.631090e-10 -2.098248e-08 -8.514801e-06) (3.427744e-09 6.608123e-09 7.366851e-06)) ((-3.536794e-12 -8.446132e-11 4.789899e-11) (9.601790e-10 -3.269444e-10 5.847718e-07))
150.743414    	((-3.228600e-09 -1.948938e-08 -8.327135e-06) (2.785534e-09 5.403696e-09 7.269330e-06)) ((-3.760014e-12 -8.088401e-11 4.879430e-11) (9.501536e-10 -3.098237e-10 5.891368e-07))
