# Forces      
# CofR        : (0.000000e+00 0.000000e+00 0.000000e+00)
# Time        forces(pressure viscous)	moments(pressure viscous)
0             	((0.000000e+00 0.000000e+00 0.000000e+00) (0.000000e+00 0.000000e+00 0.000000e+00)) ((0.000000e+00 0.000000e+00 0.000000e+00) (0.000000e+00 0.000000e+00 0.000000e+00))
0.012         	((1.444003e-09 -2.405794e-07 2.817674e-09) (3.727176e-11 -2.681195e-09 3.536980e-11)) ((1.765481e-11 3.413346e-13 3.349518e-09) (-5.086372e-11 -1.152918e-12 6.713306e-06))
0.0264        	((-1.925441e-09 8.661378e-08 -1.441588e-08) (4.352018e-11 -2.904848e-09 -3.783025e-11)) ((4.118084e-11 5.829637e-13 1.063536e-09) (-8.869956e-11 -5.129577e-13 5.877483e-06))
0.04368       	((1.902285e-09 -4.299991e-08 -2.692278e-08) (2.612248e-11 -1.906918e-09 -2.197208e-10)) ((-1.707262e-11 1.222720e-12 6.087010e-10) (-7.009287e-11 -3.636454e-13 5.089874e-06))
0.064416      	((5.027553e-09 -9.006748e-09 -5.442486e-08) (-9.626783e-11 -9.720561e-10 -1.110337e-10)) ((7.279760e-12 1.225989e-12 4.495488e-10) (-2.802516e-11 4.039577e-12 4.374519e-06))
0.0892992     	((6.959158e-09 -2.211262e-08 -8.289261e-08) (-3.191049e-10 -5.062948e-10 2.858012e-10)) ((-4.024156e-12 3.024876e-12 3.816546e-10) (-7.017775e-12 1.317087e-11 3.751259e-06))
0.119159      	((7.716344e-09 -7.918832e-09 -1.182034e-07) (-5.531486e-10 -4.656830e-10 1.683013e-09)) ((-2.484616e-12 3.756348e-12 3.131980e-10) (8.330184e-12 1.840922e-11 3.224697e-06))
0.154991      	((4.377886e-09 -2.105733e-08 -1.470781e-07) (-7.546099e-10 -3.421932e-10 5.018341e-09)) ((-3.717024e-12 2.734702e-12 2.570829e-10) (1.221523e-11 2.563832e-11 2.788929e-06))
0.197989      	((7.574756e-09 -1.808103e-08 -1.711941e-07) (-8.865917e-10 -1.834464e-10 1.119412e-08)) ((-3.523616e-12 2.744266e-12 2.161435e-10) (1.442119e-11 3.469594e-11 2.431414e-06))
0.249587      	((8.742444e-09 -1.706456e-08 -1.992512e-07) (-1.197444e-09 4.649691e-11 2.002728e-08)) ((-3.408895e-12 3.551908e-12 1.895534e-10) (1.454643e-11 4.041121e-11 2.138073e-06))
0.311504      	((3.919158e-09 -1.962254e-08 -2.238876e-07) (-1.457461e-09 2.536307e-10 3.058880e-08)) ((-2.725764e-12 4.402757e-12 1.706953e-10) (1.332695e-11 4.858468e-11 1.893997e-06))
0.385805      	((8.189417e-09 -2.162317e-08 -2.511183e-07) (-1.669406e-09 4.890028e-10 4.273509e-08)) ((-7.878720e-13 5.141462e-12 1.531022e-10) (1.020888e-11 5.764751e-11 1.688193e-06))
0.474966      	((9.198546e-09 -1.885658e-08 -2.749717e-07) (-1.624358e-09 8.582348e-10 5.650032e-08)) ((4.522226e-13 5.181764e-12 1.378789e-10) (9.500827e-12 6.999730e-11 1.512202e-06))
0.581959      	((1.575456e-08 -1.902377e-08 -3.039702e-07) (-1.132426e-09 1.195979e-09 7.215103e-08)) ((1.408342e-12 4.681692e-12 1.266893e-10) (1.156723e-11 7.787599e-11 1.359593e-06))
0.710351      	((1.918095e-08 -1.794482e-08 -3.426386e-07) (-6.771296e-10 1.065624e-09 9.044227e-08)) ((2.319449e-12 4.262480e-12 1.171012e-10) (1.435498e-11 6.605304e-11 1.225541e-06))
0.864421      	((1.971763e-08 -1.875048e-08 -3.840133e-07) (-7.314603e-10 8.075545e-10 1.121344e-07)) ((3.238400e-12 1.659608e-12 1.076014e-10) (1.548841e-11 5.102511e-11 1.106674e-06))
1.049306      	((2.033499e-08 -1.480074e-08 -4.363208e-07) (-1.422386e-09 1.312355e-09 1.379034e-07)) ((4.388428e-12 -8.136324e-13 9.876358e-11) (2.006664e-11 4.562472e-11 1.001005e-06))
1.271167      	((1.520123e-08 -7.731560e-09 -4.819406e-07) (-2.292345e-09 2.082827e-09 1.669259e-07)) ((4.848830e-12 -2.136592e-12 9.104741e-11) (2.953293e-11 4.843770e-11 9.075834e-07))
1.5374        	((6.856327e-09 -6.781677e-09 -5.248035e-07) (-3.300943e-09 2.610691e-09 1.989167e-07)) ((4.673185e-12 -3.675426e-12 8.411982e-11) (3.743271e-11 7.206360e-11 8.258749e-07))
1.85688       	((3.244316e-09 -2.876939e-09 -5.702344e-07) (-4.050504e-09 2.737238e-09 2.327931e-07)) ((4.333553e-12 -3.070201e-12 7.791006e-11) (3.683375e-11 9.308085e-11 7.552146e-07))
2.240256      	((4.128735e-09 -2.084474e-09 -6.238789e-07) (-3.998806e-09 2.701970e-09 2.678596e-07)) ((3.754764e-12 -2.580448e-12 7.189358e-11) (3.207088e-11 1.040735e-10 6.943996e-07))
2.700307      	((6.151868e-10 -7.064315e-09 -6.854909e-07) (-2.921206e-09 2.166116e-09 3.043386e-07)) ((3.017104e-12 -2.624557e-12 6.617163e-11) (1.944531e-11 1.070369e-10 6.417515e-07))
3.252369      	((-3.266969e-09 -1.021205e-08 -7.545128e-07) (-1.559902e-09 1.658761e-09 3.426885e-07)) ((2.639898e-12 -4.438885e-12 6.065182e-11) (-8.128035e-13 1.086509e-10 5.955102e-07))
3.914842      	((-2.075176e-09 -1.411800e-08 -8.396521e-07) (-2.223970e-10 8.887212e-10 3.830453e-07)) ((1.799711e-12 -5.734565e-12 5.536448e-11) (-2.628681e-11 1.070450e-10 5.541462e-07))
4.709811      	((-9.189537e-09 -1.521811e-08 -9.392009e-07) (2.329329e-10 7.168045e-10 4.252265e-07)) ((9.693970e-13 -6.235363e-12 5.049561e-11) (-4.424944e-11 1.000165e-10 5.165913e-07))
5.663773      	((-1.265463e-08 -1.428328e-08 -1.048181e-06) (1.367170e-10 9.330629e-10 4.700104e-07)) ((4.657750e-13 -6.408303e-12 4.603703e-11) (-4.497708e-11 9.322579e-11 4.821670e-07))
6.808528      	((-1.540902e-08 -1.482367e-08 -1.162234e-06) (5.466482e-11 1.241948e-09 5.181702e-07)) ((8.260169e-14 -6.921896e-12 4.201635e-11) (-3.986801e-11 9.736834e-11 4.503965e-07))
8.182233      	((-1.645466e-08 -1.122643e-08 -1.275068e-06) (-6.273229e-10 1.743233e-09 5.719277e-07)) ((-3.844970e-13 -7.345567e-12 3.861012e-11) (-2.124758e-11 1.239333e-10 4.209168e-07))
9.83068       	((-1.237365e-08 -1.096212e-08 -1.382193e-06) (-1.468544e-09 2.327859e-09 6.312203e-07)) ((-6.250243e-13 -7.647395e-12 3.551608e-11) (1.126668e-11 1.449333e-10 3.935108e-07))
11.808816     	((-7.890047e-09 -1.257475e-08 -1.497991e-06) (-2.517684e-09 2.684721e-09 6.972313e-07)) ((-5.297867e-13 -8.244349e-12 3.258808e-11) (2.813037e-11 1.617806e-10 3.681386e-07))
14.182579     	((-8.547061e-09 -9.817633e-09 -1.611330e-06) (-3.370945e-09 2.745128e-09 7.677693e-07)) ((-7.965283e-13 -8.859148e-12 2.986438e-11) (4.173083e-11 1.552913e-10 3.448658e-07))
17.031095     	((-9.488977e-09 -1.106329e-08 -1.726828e-06) (-3.199894e-09 2.745636e-09 8.420731e-07)) ((-6.772631e-13 -9.542336e-12 2.735577e-11) (4.078666e-11 1.202477e-10 3.237909e-07))
20.449314     	((-8.073983e-09 -9.981896e-09 -1.848991e-06) (-2.564269e-09 2.766221e-09 9.219218e-07)) ((-7.689223e-13 -1.009388e-11 2.516909e-11) (4.950355e-11 7.144326e-11 3.049214e-07))
24.551176     	((-8.455185e-09 -1.005851e-08 -1.966901e-06) (-1.893297e-09 2.722639e-09 1.005839e-06)) ((-1.304659e-12 -1.063872e-11 2.323788e-11) (7.519445e-11 2.811994e-11 2.881531e-07))
29.473411     	((-9.420892e-09 -1.148774e-08 -2.093096e-06) (-1.420232e-09 2.526127e-09 1.093072e-06)) ((-1.568175e-12 -1.113475e-11 2.165579e-11) (9.026589e-11 2.168026e-12 2.732979e-07))
35.380094     	((-8.371589e-09 -1.169233e-08 -2.224828e-06) (-1.072450e-09 2.444629e-09 1.183209e-06)) ((-1.825515e-12 -1.194691e-11 2.037369e-11) (9.229089e-11 -6.332501e-12 2.601096e-07))
42.468112     	((-7.467553e-09 -1.331692e-08 -2.360607e-06) (-1.184380e-09 2.004584e-09 1.276175e-06)) ((-1.883626e-12 -1.285420e-11 1.924265e-11) (7.659865e-11 -1.429581e-11 2.483664e-07))
50.838911     	((-6.695196e-09 -1.366675e-08 -2.488147e-06) (-1.245302e-09 1.469191e-09 1.372471e-06)) ((-1.760512e-12 -1.379170e-11 1.823246e-11) (5.388839e-11 -3.473791e-11 2.379916e-07))
60.492252     	((-6.120373e-09 -1.596979e-08 -2.609456e-06) (-1.355750e-09 8.882467e-10 1.470362e-06)) ((-1.507950e-12 -1.467919e-11 1.733844e-11) (2.781178e-11 -5.887823e-11 2.289350e-07))
71.427867     	((-4.835146e-09 -1.669473e-08 -2.725952e-06) (-1.137115e-09 3.908572e-10 1.568669e-06)) ((-1.323899e-12 -1.550553e-11 1.664343e-11) (1.075380e-12 -8.767493e-11 2.211281e-07))
83.645431     	((-3.268286e-09 -1.656053e-08 -2.838145e-06) (-5.725011e-10 1.370278e-10 1.666385e-06)) ((-1.139213e-12 -1.635933e-11 1.600281e-11) (-1.876304e-11 -1.225536e-10 2.145342e-07))
96.460834     	((-1.382932e-09 -1.511525e-08 -2.937648e-06) (5.469707e-11 1.325780e-10 1.761465e-06)) ((-9.948445e-13 -1.736115e-11 1.540865e-11) (-2.667808e-11 -1.623267e-10 2.092009e-07))
109.271643    	((3.491385e-11 -1.340049e-08 -3.022589e-06) (9.704521e-10 1.047131e-10 1.852598e-06)) ((-9.452830e-13 -1.829226e-11 1.486649e-11) (-2.059684e-11 -2.040277e-10 2.050426e-07))
122.077626    	((2.192328e-09 -1.038876e-08 -3.092863e-06) (1.905432e-09 3.873048e-10 1.940702e-06)) ((-9.231174e-13 -1.908560e-11 1.437088e-11) (1.257040e-11 -2.428963e-10 2.019048e-07))
134.87833     	((3.007742e-09 -8.100379e-09 -3.149300e-06) (2.493554e-09 1.278681e-09 2.025963e-06)) ((-9.596407e-13 -1.989530e-11 1.393737e-11) (6.246568e-11 -2.696059e-10 1.996515e-07))
147.673161    	((2.369258e-09 -6.074246e-09 -3.189137e-06) (2.960112e-09 2.241470e-09 2.107964e-06)) ((-1.038290e-12 -2.066723e-11 1.355345e-11) (1.148672e-10 -2.829944e-10 1.981690e-07))
160.461816    	((5.951673e-10 -5.194620e-09 -3.216713e-06) (3.074186e-09 3.168887e-09 2.186615e-06)) ((-1.056058e-12 -2.156491e-11 1.326216e-11) (1.590126e-10 -2.795746e-10 1.973665e-07))
173.244167    	((-1.770545e-09 -5.069355e-09 -3.232573e-06) (2.756869e-09 3.723120e-09 2.261930e-06)) ((-1.087740e-12 -2.258078e-11 1.307854e-11) (1.939529e-10 -2.645480e-10 1.971612e-07))
186.019902    	((-3.628670e-09 -5.076866e-09 -3.238077e-06) (2.312976e-09 3.901464e-09 2.334159e-06)) ((-1.066681e-12 -2.354334e-11 1.294544e-11) (2.180160e-10 -2.447401e-10 1.974844e-07))
198.788513    	((-5.027375e-09 -4.730395e-09 -3.235362e-06) (1.879812e-09 3.978052e-09 2.403477e-06)) ((-1.088287e-12 -2.459531e-11 1.285700e-11) (2.360047e-10 -2.243172e-10 1.982744e-07))
211.549878    	((-5.081374e-09 -5.453275e-09 -3.223890e-06) (1.951924e-09 3.870860e-09 2.468767e-06)) ((-1.119883e-12 -2.552593e-11 1.285070e-11) (2.491668e-10 -2.087907e-10 1.994703e-07))
224.304035    	((-5.436395e-09 -6.082451e-09 -3.204664e-06) (2.008332e-09 3.534411e-09 2.528772e-06)) ((-1.152355e-12 -2.630337e-11 1.291829e-11) (2.592186e-10 -1.976256e-10 2.010116e-07))
237.050795    	((-5.169526e-09 -6.284872e-09 -3.179586e-06) (2.070601e-09 3.308098e-09 2.582533e-06)) ((-1.161646e-12 -2.701323e-11 1.306204e-11) (2.679722e-10 -1.886466e-10 2.028324e-07))
249.789916    	((-5.082267e-09 -6.172474e-09 -3.149436e-06) (2.227839e-09 3.153290e-09 2.628960e-06)) ((-1.179607e-12 -2.765303e-11 1.321833e-11) (2.751316e-10 -1.786017e-10 2.048613e-07))
262.49386     	((-4.668413e-09 -5.871425e-09 -3.115484e-06) (2.339541e-09 3.035313e-09 2.667148e-06)) ((-1.197432e-12 -2.812155e-11 1.340812e-11) (2.822279e-10 -1.675830e-10 2.070151e-07))
275.04149     	((-5.289505e-09 -6.350816e-09 -3.079935e-06) (2.210742e-09 2.952229e-09 2.696487e-06)) ((-1.211583e-12 -2.840511e-11 1.359790e-11) (2.891184e-10 -1.526572e-10 2.092047e-07))
287.463305    	((-5.439536e-09 -6.601497e-09 -3.043503e-06) (2.022095e-09 2.907773e-09 2.716901e-06)) ((-1.202455e-12 -2.853114e-11 1.379793e-11) (2.911606e-10 -1.343729e-10 2.113611e-07))
299.785811    	((-5.752323e-09 -7.141175e-09 -3.006538e-06) (1.783911e-09 2.730782e-09 2.728828e-06)) ((-1.196703e-12 -2.850324e-11 1.400133e-11) (2.866110e-10 -1.182294e-10 2.134218e-07))
