# Forces      
# CofR        : (0.000000e+00 0.000000e+00 0.000000e+00)
# Time        forces(pressure viscous)	moments(pressure viscous)
0             	((0.000000e+00 0.000000e+00 0.000000e+00) (-1.176337e-11 -3.991513e-02 2.661510e-12)) ((0.000000e+00 0.000000e+00 0.000000e+00) (-8.968478e-04 -9.996376e-14 1.721090e-08))
0.00768146    	((4.454584e-03 -1.821105e+01 9.484339e-01) (7.953832e-06 -1.119853e-01 -1.738128e-02)) ((2.152935e-04 1.535550e-05 3.985484e-06) (-3.725233e-03 3.006434e-07 -6.899592e-07))
0.0168992     	((-1.325199e-03 8.679233e+00 -5.314745e+00) (3.380896e-05 -1.036008e-01 -2.174797e-02)) ((-1.040816e-04 -4.560925e-06 -1.620450e-06) (-3.790798e-03 6.469093e-08 -1.078196e-06))
0.0279605     	((-1.245385e-03 -1.983483e+00 -2.774249e+00) (1.965600e-05 -8.502680e-02 -1.509906e-02)) ((1.160126e-05 2.547702e-06 4.607852e-07) (-3.029769e-03 -2.363823e-09 -1.088313e-06))
0.0411182     	((-1.209167e-03 7.582239e-01 -2.942515e+00) (-1.470616e-05 -7.923935e-02 -1.426550e-02)) ((-8.414899e-06 2.229592e-06 7.419620e-07) (-2.820175e-03 -7.270683e-08 -1.878634e-06))
0.0563817     	((-1.104307e-03 -5.411639e-01 -2.710115e+00) (-4.196448e-05 -7.556648e-02 -1.430855e-02)) ((1.828518e-06 2.397759e-06 5.425824e-07) (-2.697161e-03 -1.069204e-07 -2.490915e-06))
0.0737377     	((-2.105400e-03 4.806834e-02 -2.821923e+00) (-7.128434e-05 -7.444878e-02 -1.467374e-02)) ((5.203250e-07 2.453031e-06 6.327968e-07) (-2.661541e-03 7.263377e-08 -2.396333e-06))
0.0931717     	((-1.044541e-03 -2.379326e-01 -2.740068e+00) (-7.297247e-05 -7.342241e-02 -1.523556e-02)) ((2.683981e-06 2.325579e-06 7.444685e-07) (-2.615177e-03 2.710023e-07 -2.556023e-06))
0.11382       	((-1.049915e-03 -1.186322e-01 -2.792830e+00) (-6.568922e-05 -7.291411e-02 -1.581387e-02)) ((3.971833e-06 2.350745e-06 8.985222e-07) (-2.594377e-03 3.351480e-07 -3.038078e-06))
0.13448       	((-4.659803e-04 -1.992146e-01 -2.760617e+00) (-6.430596e-05 -7.269110e-02 -1.630304e-02)) ((5.012682e-06 2.555567e-06 9.936400e-07) (-2.582862e-03 2.982807e-07 -3.159595e-06))
0.155073      	((-4.438028e-04 -1.798098e-01 -2.778353e+00) (-6.534982e-05 -7.263896e-02 -1.675330e-02)) ((5.995967e-06 2.661112e-06 1.104859e-06) (-2.576982e-03 3.463374e-07 -3.339847e-06))
0.175521      	((5.925016e-04 -2.107858e-01 -2.756246e+00) (-5.848241e-05 -7.259946e-02 -1.708047e-02)) ((6.761179e-06 2.840094e-06 1.106245e-06) (-2.569969e-03 2.530412e-07 -3.806440e-06))
0.195833      	((8.383431e-04 -2.143291e-01 -2.752664e+00) (-6.145092e-05 -7.249532e-02 -1.729241e-02)) ((7.617630e-06 3.052624e-06 1.170717e-06) (-2.560386e-03 1.435000e-07 -4.138973e-06))
0.216079      	((1.478599e-03 -2.258732e-01 -2.728641e+00) (-6.771063e-05 -7.225871e-02 -1.741345e-02)) ((8.347627e-06 3.127250e-06 1.155992e-06) (-2.547181e-03 1.444920e-07 -4.334369e-06))
0.236285      	((2.464803e-03 -2.281887e-01 -2.714897e+00) (-6.384285e-05 -7.193438e-02 -1.755803e-02)) ((9.068097e-06 3.221367e-06 1.217852e-06) (-2.532481e-03 3.645489e-08 -4.775802e-06))
0.256509      	((3.509419e-03 -2.312247e-01 -2.693343e+00) (-6.319109e-05 -7.157363e-02 -1.767945e-02)) ((9.667827e-06 3.391439e-06 1.258125e-06) (-2.517679e-03 -1.576788e-07 -5.186223e-06))
0.276787      	((4.326198e-03 -2.316273e-01 -2.677314e+00) (-6.338193e-05 -7.122045e-02 -1.778872e-02)) ((1.007128e-05 3.444151e-06 1.310825e-06) (-2.503790e-03 -2.477669e-07 -5.402788e-06))
0.297114      	((5.918338e-03 -2.316993e-01 -2.661841e+00) (-5.211260e-05 -7.091234e-02 -1.790778e-02)) ((1.043666e-05 3.532987e-06 1.375732e-06) (-2.491900e-03 -4.730111e-07 -5.769914e-06))
0.31746       	((7.146407e-03 -2.303468e-01 -2.647457e+00) (-4.730316e-05 -7.063301e-02 -1.798239e-02)) ((1.085199e-05 3.675564e-06 1.398816e-06) (-2.481261e-03 -7.750914e-07 -6.078140e-06))
0.337808      	((8.444841e-03 -2.295443e-01 -2.634460e+00) (-4.282367e-05 -7.037203e-02 -1.804160e-02)) ((1.101284e-05 3.724454e-06 1.435367e-06) (-2.471565e-03 -9.795068e-07 -6.294323e-06))
0.358164      	((1.041449e-02 -2.285632e-01 -2.623766e+00) (-3.156191e-05 -7.013628e-02 -1.810674e-02)) ((1.131474e-05 3.791043e-06 1.481240e-06) (-2.463168e-03 -1.266190e-06 -6.730556e-06))
0.378533      	((1.221544e-02 -2.277388e-01 -2.612236e+00) (-2.697311e-05 -6.992221e-02 -1.815730e-02)) ((1.147181e-05 3.901853e-06 1.502049e-06) (-2.455424e-03 -1.602915e-06 -7.187825e-06))
0.398909      	((1.440350e-02 -2.273217e-01 -2.602477e+00) (-1.974756e-05 -6.972126e-02 -1.820573e-02)) ((1.150790e-05 3.975636e-06 1.550328e-06) (-2.447860e-03 -1.934859e-06 -7.682979e-06))
0.419292      	((1.688484e-02 -2.270921e-01 -2.593416e+00) (-1.055538e-05 -6.953476e-02 -1.826358e-02)) ((1.171054e-05 4.071044e-06 1.572407e-06) (-2.440815e-03 -2.354433e-06 -8.446958e-06))
0.439682      	((1.932991e-02 -2.267558e-01 -2.585063e+00) (-6.923383e-06 -6.936817e-02 -1.831784e-02)) ((1.179230e-05 4.141973e-06 1.592503e-06) (-2.434527e-03 -2.770075e-06 -9.296575e-06))
0.460078      	((2.245785e-02 -2.264004e-01 -2.576953e+00) (9.320945e-07 -6.921244e-02 -1.835320e-02)) ((1.186341e-05 4.248112e-06 1.614873e-06) (-2.428852e-03 -3.239112e-06 -1.019358e-05))
0.480479      	((2.581449e-02 -2.262394e-01 -2.570064e+00) (7.373551e-06 -6.907154e-02 -1.838703e-02)) ((1.199635e-05 4.354527e-06 1.626530e-06) (-2.423904e-03 -3.774607e-06 -1.122946e-05))
0.500882      	((2.959296e-02 -2.261321e-01 -2.563741e+00) (1.351962e-05 -6.894964e-02 -1.841576e-02)) ((1.202069e-05 4.427743e-06 1.647783e-06) (-2.419748e-03 -4.349429e-06 -1.239222e-05))
0.521287      	((3.399557e-02 -2.258564e-01 -2.557606e+00) (2.228041e-05 -6.883669e-02 -1.842992e-02)) ((1.207080e-05 4.534894e-06 1.662038e-06) (-2.416020e-03 -5.024124e-06 -1.369961e-05))
0.541694      	((3.867932e-02 -2.255586e-01 -2.552472e+00) (2.973730e-05 -6.873539e-02 -1.845041e-02)) ((1.208651e-05 4.625240e-06 1.680357e-06) (-2.412658e-03 -5.776884e-06 -1.515476e-05))
0.562102      	((4.400384e-02 -2.250759e-01 -2.547598e+00) (4.078697e-05 -6.864543e-02 -1.846750e-02)) ((1.208784e-05 4.699646e-06 1.707485e-06) (-2.409692e-03 -6.613582e-06 -1.674064e-05))
0.582511      	((4.986740e-02 -2.245038e-01 -2.542813e+00) (5.334981e-05 -6.856011e-02 -1.847706e-02)) ((1.211757e-05 4.807324e-06 1.729337e-06) (-2.406876e-03 -7.556894e-06 -1.847865e-05))
0.602921      	((5.640069e-02 -2.239153e-01 -2.538819e+00) (6.751507e-05 -6.848386e-02 -1.849677e-02)) ((1.205684e-05 4.893833e-06 1.764534e-06) (-2.404299e-03 -8.617635e-06 -2.036360e-05))
0.623329      	((6.381523e-02 -2.234052e-01 -2.534853e+00) (8.642347e-05 -6.841306e-02 -1.851038e-02)) ((1.203453e-05 4.991843e-06 1.795138e-06) (-2.401939e-03 -9.807497e-06 -2.242785e-05))
0.643737      	((7.205478e-02 -2.231366e-01 -2.531522e+00) (1.065803e-04 -6.834581e-02 -1.852293e-02)) ((1.197408e-05 5.153655e-06 1.822556e-06) (-2.399703e-03 -1.115029e-05 -2.470517e-05))
0.664143      	((8.137971e-02 -2.230733e-01 -2.528778e+00) (1.300186e-04 -6.828775e-02 -1.854052e-02)) ((1.185315e-05 5.260432e-06 1.859792e-06) (-2.397796e-03 -1.265482e-05 -2.721067e-05))
0.684547      	((9.181620e-02 -2.232230e-01 -2.525999e+00) (1.570473e-04 -6.823365e-02 -1.854919e-02)) ((1.178767e-05 5.422144e-06 1.882783e-06) (-2.396111e-03 -1.432647e-05 -3.000899e-05))
0.704948      	((1.034459e-01 -2.236732e-01 -2.524015e+00) (1.860361e-04 -6.818574e-02 -1.856093e-02)) ((1.165467e-05 5.624513e-06 1.912562e-06) (-2.394647e-03 -1.620590e-05 -3.311144e-05))
0.725345      	((1.166054e-01 -2.243332e-01 -2.522128e+00) (2.200425e-04 -6.814666e-02 -1.857016e-02)) ((1.153998e-05 5.770131e-06 1.935680e-06) (-2.393542e-03 -1.831188e-05 -3.658758e-05))
0.745737      	((1.311747e-01 -2.252603e-01 -2.520435e+00) (2.569054e-04 -6.811241e-02 -1.857157e-02)) ((1.144964e-05 6.019562e-06 1.939589e-06) (-2.392693e-03 -2.067072e-05 -4.051981e-05))
0.766124      	((1.475437e-01 -2.265249e-01 -2.519464e+00) (2.972910e-04 -6.808905e-02 -1.857552e-02)) ((1.129265e-05 6.272662e-06 1.954845e-06) (-2.392322e-03 -2.332976e-05 -4.493762e-05))
0.786504      	((1.656447e-01 -2.281891e-01 -2.518471e+00) (3.435273e-04 -6.807410e-02 -1.856894e-02)) ((1.118636e-05 6.505373e-06 1.960631e-06) (-2.392428e-03 -2.629345e-05 -4.993360e-05))
0.806876      	((1.855802e-01 -2.304022e-01 -2.517957e+00) (3.927232e-04 -6.806648e-02 -1.855222e-02)) ((1.105277e-05 6.849983e-06 1.958122e-06) (-2.392997e-03 -2.957559e-05 -5.548536e-05))
0.827239      	((2.075495e-01 -2.333965e-01 -2.518424e+00) (4.496575e-04 -6.807463e-02 -1.853296e-02)) ((1.088176e-05 7.161039e-06 1.963765e-06) (-2.394380e-03 -3.322737e-05 -6.154535e-05))
0.847592      	((2.315753e-01 -2.369004e-01 -2.519225e+00) (5.160242e-04 -6.809631e-02 -1.850019e-02)) ((1.073234e-05 7.514697e-06 1.951295e-06) (-2.396544e-03 -3.725723e-05 -6.819122e-05))
0.867933      	((2.576388e-01 -2.413832e-01 -2.520918e+00) (5.898726e-04 -6.813284e-02 -1.845318e-02)) ((1.053247e-05 7.961921e-06 1.946507e-06) (-2.399561e-03 -4.167880e-05 -7.538601e-05))
0.888256      	((2.858373e-01 -2.469942e-01 -2.523798e+00) (6.759328e-04 -6.819010e-02 -1.839961e-02)) ((1.035153e-05 8.356318e-06 1.957959e-06) (-2.403634e-03 -4.652696e-05 -8.308514e-05))
0.908558      	((3.153396e-01 -2.541322e-01 -2.527968e+00) (7.719666e-04 -6.826625e-02 -1.833617e-02)) ((1.019267e-05 8.804051e-06 1.977444e-06) (-2.408610e-03 -5.181559e-05 -9.136212e-05))
0.928835      	((3.462367e-01 -2.631276e-01 -2.533451e+00) (8.738981e-04 -6.836443e-02 -1.826307e-02)) ((9.988090e-06 9.316466e-06 2.040953e-06) (-2.414586e-03 -5.757655e-05 -1.002917e-04))
0.949089      	((3.771845e-01 -2.741375e-01 -2.540267e+00) (9.821048e-04 -6.848395e-02 -1.818305e-02)) ((9.870188e-06 9.750344e-06 2.124866e-06) (-2.421489e-03 -6.381985e-05 -1.099672e-04))
0.969319      	((4.065742e-01 -2.860214e-01 -2.547709e+00) (1.090696e-03 -6.862282e-02 -1.810494e-02)) ((9.731937e-06 1.017943e-05 2.205280e-06) (-2.429110e-03 -7.043741e-05 -1.203324e-04))
0.989526      	((4.338664e-01 -2.991921e-01 -2.556259e+00) (1.195007e-03 -6.878252e-02 -1.802286e-02)) ((9.595937e-06 1.052429e-05 2.304285e-06) (-2.437631e-03 -7.726594e-05 -1.311624e-04))
1.00971       	((4.575060e-01 -3.136609e-01 -2.565487e+00) (1.293505e-03 -6.895791e-02 -1.792499e-02)) ((9.581501e-06 1.072874e-05 2.383468e-06) (-2.446927e-03 -8.410628e-05 -1.422862e-04))
1.029872      	((4.766140e-01 -3.279880e-01 -2.575728e+00) (1.378807e-03 -6.915236e-02 -1.782112e-02)) ((9.542685e-06 1.088476e-05 2.451320e-06) (-2.457011e-03 -9.069925e-05 -1.532871e-04))
1.050007      	((4.888723e-01 -3.416851e-01 -2.587025e+00) (1.443119e-03 -6.936835e-02 -1.770798e-02)) ((9.541091e-06 1.079874e-05 2.547426e-06) (-2.467976e-03 -9.659553e-05 -1.638665e-04))
1.070118      	((4.944487e-01 -3.534668e-01 -2.598713e+00) (1.484550e-03 -6.958918e-02 -1.757919e-02)) ((9.604659e-06 1.054298e-05 2.642820e-06) (-2.479127e-03 -1.014359e-04 -1.736388e-04))
1.090204      	((4.938109e-01 -3.624232e-01 -2.610136e+00) (1.497055e-03 -6.981018e-02 -1.746246e-02)) ((9.600913e-06 1.026351e-05 2.739642e-06) (-2.490016e-03 -1.049572e-04 -1.821947e-04))
1.110265      	((4.870722e-01 -3.689485e-01 -2.621955e+00) (1.476708e-03 -7.002968e-02 -1.735694e-02)) ((9.619490e-06 9.816693e-06 2.797947e-06) (-2.500491e-03 -1.069529e-04 -1.894342e-04))
1.130307      	((4.759286e-01 -3.722103e-01 -2.632984e+00) (1.424005e-03 -7.023217e-02 -1.725083e-02)) ((9.666485e-06 9.327463e-06 2.775709e-06) (-2.510052e-03 -1.073675e-04 -1.953130e-04))
1.150334      	((4.626360e-01 -3.730568e-01 -2.644257e+00) (1.340962e-03 -7.042349e-02 -1.717024e-02)) ((9.584813e-06 8.956229e-06 2.692247e-06) (-2.518972e-03 -1.062994e-04 -1.997260e-04))
1.17035       	((4.493726e-01 -3.710026e-01 -2.655095e+00) (1.239011e-03 -7.060089e-02 -1.710074e-02)) ((9.382035e-06 8.660411e-06 2.596052e-06) (-2.527300e-03 -1.041160e-04 -2.027994e-04))
1.19036       	((4.380299e-01 -3.669694e-01 -2.664962e+00) (1.132435e-03 -7.075269e-02 -1.703552e-02)) ((9.044245e-06 8.522788e-06 2.528592e-06) (-2.534661e-03 -1.013487e-04 -2.046310e-04))
1.210367      	((4.289304e-01 -3.620466e-01 -2.675821e+00) (1.035413e-03 -7.089202e-02 -1.700961e-02)) ((8.582505e-06 8.563378e-06 2.497915e-06) (-2.541274e-03 -9.854763e-05 -2.051590e-04))
1.230372      	((4.215404e-01 -3.574561e-01 -2.686844e+00) (9.659045e-04 -7.101655e-02 -1.700399e-02)) ((8.189152e-06 8.651115e-06 2.492739e-06) (-2.546876e-03 -9.619770e-05 -2.042869e-04))
1.250377      	((4.149894e-01 -3.526516e-01 -2.696977e+00) (9.286007e-04 -7.111351e-02 -1.701586e-02)) ((7.720965e-06 8.796999e-06 2.492621e-06) (-2.550758e-03 -9.450135e-05 -2.021122e-04))
1.270383      	((4.091387e-01 -3.479184e-01 -2.706605e+00) (9.110422e-04 -7.119075e-02 -1.707328e-02)) ((7.310417e-06 8.952223e-06 2.503642e-06) (-2.553248e-03 -9.332668e-05 -1.993186e-04))
1.29039       	((4.025308e-01 -3.437130e-01 -2.714241e+00) (8.981036e-04 -7.124418e-02 -1.713442e-02)) ((7.005114e-06 9.066132e-06 2.499512e-06) (-2.554609e-03 -9.229017e-05 -1.966190e-04))
1.3104        	((3.953128e-01 -3.414256e-01 -2.719512e+00) (8.748895e-04 -7.127060e-02 -1.717911e-02)) ((6.766918e-06 8.968519e-06 2.511828e-06) (-2.555086e-03 -9.098202e-05 -1.944858e-04))
1.330411      	((3.890282e-01 -3.414365e-01 -2.723616e+00) (8.320479e-04 -7.129270e-02 -1.722512e-02)) ((6.854289e-06 8.725226e-06 2.513260e-06) (-2.555677e-03 -8.911808e-05 -1.932060e-04))
1.350426      	((3.844223e-01 -3.423348e-01 -2.725668e+00) (7.745678e-04 -7.130760e-02 -1.724255e-02)) ((7.019555e-06 8.460666e-06 2.502107e-06) (-2.556594e-03 -8.669703e-05 -1.928258e-04))
1.370442      	((3.819763e-01 -3.441343e-01 -2.726690e+00) (7.110507e-04 -7.130433e-02 -1.723014e-02)) ((7.079714e-06 8.159537e-06 2.507954e-06) (-2.557425e-03 -8.408504e-05 -1.932897e-04))
1.390462      	((3.812630e-01 -3.478758e-01 -2.729348e+00) (6.480813e-04 -7.129821e-02 -1.722344e-02)) ((7.229194e-06 7.964798e-06 2.507695e-06) (-2.558419e-03 -8.158186e-05 -1.943476e-04))
1.410483      	((3.833491e-01 -3.520510e-01 -2.732647e+00) (5.949231e-04 -7.129656e-02 -1.722658e-02)) ((7.156903e-06 8.048562e-06 2.521958e-06) (-2.559563e-03 -7.956869e-05 -1.957399e-04))
1.430507      	((3.877971e-01 -3.548612e-01 -2.735536e+00) (5.626379e-04 -7.128975e-02 -1.723105e-02)) ((6.742993e-06 8.305733e-06 2.609901e-06) (-2.560080e-03 -7.861445e-05 -1.970959e-04))
1.450531      	((3.931886e-01 -3.567230e-01 -2.739799e+00) (5.539890e-04 -7.128379e-02 -1.727310e-02)) ((6.299588e-06 8.764325e-06 2.722969e-06) (-2.559964e-03 -7.890505e-05 -1.982263e-04))
1.470557      	((3.974764e-01 -3.584382e-01 -2.745565e+00) (5.693563e-04 -7.128678e-02 -1.735854e-02)) ((5.766000e-06 9.302229e-06 2.799287e-06) (-2.559332e-03 -8.031707e-05 -1.988306e-04))
1.490583      	((4.002092e-01 -3.589295e-01 -2.749785e+00) (6.038430e-04 -7.127556e-02 -1.744362e-02)) ((5.188857e-06 9.670446e-06 2.860171e-06) (-2.557625e-03 -8.250227e-05 -1.990337e-04))
1.510609      	((4.004130e-01 -3.604414e-01 -2.753135e+00) (6.393453e-04 -7.125334e-02 -1.754573e-02)) ((4.756173e-06 9.995938e-06 2.877433e-06) (-2.555151e-03 -8.488713e-05 -1.992245e-04))
1.530634      	((3.963798e-01 -3.642335e-01 -2.756300e+00) (6.581939e-04 -7.122982e-02 -1.765783e-02)) ((4.539845e-06 1.010116e-05 2.866405e-06) (-2.552511e-03 -8.684458e-05 -1.997614e-04))
1.550659      	((3.917198e-01 -3.684612e-01 -2.755478e+00) (6.507482e-04 -7.118808e-02 -1.772926e-02)) ((4.518723e-06 9.826497e-06 2.886133e-06) (-2.549625e-03 -8.794005e-05 -2.010232e-04))
1.570684      	((3.886027e-01 -3.748189e-01 -2.753816e+00) (6.097959e-04 -7.113020e-02 -1.777712e-02)) ((4.794000e-06 9.408400e-06 2.896478e-06) (-2.546976e-03 -8.791082e-05 -2.035409e-04))
1.590709      	((3.867327e-01 -3.803951e-01 -2.752549e+00) (5.398816e-04 -7.106614e-02 -1.780892e-02)) ((5.056651e-06 9.019228e-06 2.916720e-06) (-2.545157e-03 -8.664691e-05 -2.073986e-04))
1.610735      	((3.849791e-01 -3.858489e-01 -2.750764e+00) (4.533333e-04 -7.098871e-02 -1.780123e-02)) ((5.306264e-06 8.508305e-06 2.996295e-06) (-2.543842e-03 -8.445468e-05 -2.121490e-04))
1.630762      	((3.829975e-01 -3.897735e-01 -2.750574e+00) (3.607145e-04 -7.090689e-02 -1.778875e-02)) ((5.594972e-06 8.180403e-06 3.047542e-06) (-2.542881e-03 -8.187656e-05 -2.170418e-04))
1.650791      	((3.820924e-01 -3.923175e-01 -2.751790e+00) (2.851044e-04 -7.083802e-02 -1.779487e-02)) ((5.653323e-06 8.302401e-06 3.055596e-06) (-2.542372e-03 -7.966328e-05 -2.208656e-04))
1.670822      	((3.815121e-01 -3.924713e-01 -2.753209e+00) (2.516357e-04 -7.078273e-02 -1.780536e-02)) ((5.410252e-06 8.533586e-06 3.116631e-06) (-2.541841e-03 -7.836583e-05 -2.224875e-04))
1.690856      	((3.818040e-01 -3.912335e-01 -2.754222e+00) (2.553095e-04 -7.073593e-02 -1.784395e-02)) ((5.024453e-06 9.011800e-06 3.194624e-06) (-2.540824e-03 -7.807036e-05 -2.222257e-04))
1.710895      	((3.819703e-01 -3.902447e-01 -2.756377e+00) (2.872255e-04 -7.069054e-02 -1.791114e-02)) ((4.482404e-06 9.612068e-06 3.265203e-06) (-2.539209e-03 -7.868722e-05 -2.207229e-04))
1.730937      	((3.798158e-01 -3.911897e-01 -2.757983e+00) (3.361447e-04 -7.064384e-02 -1.798320e-02)) ((3.981138e-06 9.894252e-06 3.334080e-06) (-2.537071e-03 -7.981714e-05 -2.185069e-04))
1.750984      	((3.751830e-01 -3.937565e-01 -2.760036e+00) (3.786322e-04 -7.059637e-02 -1.806534e-02)) ((3.846749e-06 9.897343e-06 3.355353e-06) (-2.534666e-03 -8.079310e-05 -2.163585e-04))
1.771036      	((3.690855e-01 -3.977063e-01 -2.760568e+00) (4.005536e-04 -7.053837e-02 -1.813695e-02)) ((3.890128e-06 9.722096e-06 3.358649e-06) (-2.532079e-03 -8.110793e-05 -2.148346e-04))
1.79109       	((3.634840e-01 -4.019101e-01 -2.758588e+00) (4.013815e-04 -7.046827e-02 -1.817869e-02)) ((4.087236e-06 9.262039e-06 3.366871e-06) (-2.529741e-03 -8.044462e-05 -2.140707e-04))
