# Forces      
# CofR        : (0.000000e+00 0.000000e+00 0.000000e+00)
# Time        forces(pressure viscous)	moments(pressure viscous)
0             	((0.000000e+00 0.000000e+00 0.000000e+00) (-2.175637e-11 -3.991513e-02 3.440070e-12)) ((0.000000e+00 0.000000e+00 0.000000e+00) (-8.968478e-04 -1.096693e-13 1.721152e-08))
0.00768146    	((4.454348e-03 -1.821105e+01 9.484335e-01) (7.968893e-06 -1.119853e-01 -1.738128e-02)) ((2.152937e-04 1.535537e-05 3.985993e-06) (-3.725232e-03 3.005920e-07 -6.899844e-07))
0.0168992     	((-1.324723e-03 8.679232e+00 -5.314744e+00) (3.381848e-05 -1.036008e-01 -2.174797e-02)) ((-1.040815e-04 -4.560774e-06 -1.620224e-06) (-3.790797e-03 6.452490e-08 -1.078110e-06))
0.0279605     	((-1.245248e-03 -1.983484e+00 -2.774249e+00) (1.965688e-05 -8.502679e-02 -1.509906e-02)) ((1.160110e-05 2.547847e-06 4.609022e-07) (-3.029768e-03 -2.651178e-09 -1.088268e-06))
0.0411182     	((-1.209066e-03 7.582241e-01 -2.942515e+00) (-1.469676e-05 -7.923935e-02 -1.426551e-02)) ((-8.414883e-06 2.229576e-06 7.423095e-07) (-2.820175e-03 -7.303433e-08 -1.878385e-06))
0.0563817     	((-1.103952e-03 -5.411639e-01 -2.710115e+00) (-4.194829e-05 -7.556647e-02 -1.430855e-02)) ((1.828525e-06 2.397765e-06 5.428298e-07) (-2.697161e-03 -1.073137e-07 -2.491058e-06))
0.0737377     	((-2.105312e-03 4.806830e-02 -2.821923e+00) (-7.127701e-05 -7.444878e-02 -1.467374e-02)) ((5.203733e-07 2.453102e-06 6.330985e-07) (-2.661541e-03 7.207864e-08 -2.396543e-06))
0.0931717     	((-1.044428e-03 -2.379327e-01 -2.740068e+00) (-7.296929e-05 -7.342241e-02 -1.523556e-02)) ((2.683995e-06 2.325573e-06 7.447246e-07) (-2.615177e-03 2.703779e-07 -2.556145e-06))
0.11382       	((-1.050154e-03 -1.186323e-01 -2.792830e+00) (-6.569311e-05 -7.291411e-02 -1.581387e-02)) ((3.971869e-06 2.350682e-06 8.988016e-07) (-2.594377e-03 3.345827e-07 -3.037980e-06))
0.13448       	((-4.660704e-04 -1.992147e-01 -2.760617e+00) (-6.431039e-05 -7.269109e-02 -1.630303e-02)) ((5.012728e-06 2.555513e-06 9.938977e-07) (-2.582861e-03 2.976707e-07 -3.159486e-06))
0.155073      	((-4.440404e-04 -1.798099e-01 -2.778353e+00) (-6.535539e-05 -7.263895e-02 -1.675330e-02)) ((5.995989e-06 2.661000e-06 1.105107e-06) (-2.576982e-03 3.457622e-07 -3.339721e-06))
0.175521      	((5.924974e-04 -2.107859e-01 -2.756246e+00) (-5.848158e-05 -7.259945e-02 -1.708046e-02)) ((6.761154e-06 2.840160e-06 1.106484e-06) (-2.569969e-03 2.524626e-07 -3.806232e-06))
0.195833      	((8.386100e-04 -2.143291e-01 -2.752664e+00) (-6.144222e-05 -7.249531e-02 -1.729241e-02)) ((7.617611e-06 3.052537e-06 1.170934e-06) (-2.560386e-03 1.428013e-07 -4.138726e-06))
0.216079      	((1.478216e-03 -2.258733e-01 -2.728641e+00) (-6.771808e-05 -7.225871e-02 -1.741345e-02)) ((8.347610e-06 3.127103e-06 1.156179e-06) (-2.547181e-03 1.437908e-07 -4.333942e-06))
0.236285      	((2.464176e-03 -2.281888e-01 -2.714897e+00) (-6.385212e-05 -7.193438e-02 -1.755803e-02)) ((9.068069e-06 3.221195e-06 1.218033e-06) (-2.532481e-03 3.596571e-08 -4.775181e-06))
0.256509      	((3.509472e-03 -2.312247e-01 -2.693343e+00) (-6.318542e-05 -7.157363e-02 -1.767945e-02)) ((9.667790e-06 3.391262e-06 1.258282e-06) (-2.517679e-03 -1.582073e-07 -5.185631e-06))
0.276787      	((4.325624e-03 -2.316273e-01 -2.677314e+00) (-6.338331e-05 -7.122045e-02 -1.778872e-02)) ((1.007122e-05 3.443951e-06 1.310939e-06) (-2.503790e-03 -2.483883e-07 -5.402004e-06))
0.297114      	((5.917697e-03 -2.316993e-01 -2.661841e+00) (-5.211054e-05 -7.091235e-02 -1.790778e-02)) ((1.043659e-05 3.532788e-06 1.375873e-06) (-2.491900e-03 -4.734094e-07 -5.768863e-06))
0.31746       	((7.146223e-03 -2.303466e-01 -2.647457e+00) (-4.728906e-05 -7.063301e-02 -1.798239e-02)) ((1.085193e-05 3.675386e-06 1.398943e-06) (-2.481261e-03 -7.755063e-07 -6.077188e-06))
0.337808      	((8.444061e-03 -2.295441e-01 -2.634460e+00) (-4.281729e-05 -7.037203e-02 -1.804160e-02)) ((1.101275e-05 3.724342e-06 1.435449e-06) (-2.471565e-03 -9.801260e-07 -6.293147e-06))
0.358164      	((1.041348e-02 -2.285630e-01 -2.623767e+00) (-3.155264e-05 -7.013628e-02 -1.810674e-02)) ((1.131467e-05 3.790901e-06 1.481346e-06) (-2.463168e-03 -1.266535e-06 -6.729076e-06))
0.378533      	((1.221472e-02 -2.277386e-01 -2.612236e+00) (-2.695772e-05 -6.992221e-02 -1.815730e-02)) ((1.147176e-05 3.901734e-06 1.502158e-06) (-2.455424e-03 -1.603230e-06 -7.186398e-06))
0.398909      	((1.440186e-02 -2.273214e-01 -2.602477e+00) (-1.973888e-05 -6.972127e-02 -1.820573e-02)) ((1.150784e-05 3.975426e-06 1.550413e-06) (-2.447859e-03 -1.935208e-06 -7.681339e-06))
0.419292      	((1.688277e-02 -2.270916e-01 -2.593417e+00) (-1.054592e-05 -6.953477e-02 -1.826358e-02)) ((1.171047e-05 4.070911e-06 1.572485e-06) (-2.440815e-03 -2.354624e-06 -8.444916e-06))
0.439682      	((1.932761e-02 -2.267551e-01 -2.585063e+00) (-6.909426e-06 -6.936819e-02 -1.831784e-02)) ((1.179225e-05 4.141737e-06 1.592583e-06) (-2.434526e-03 -2.770219e-06 -9.294417e-06))
0.460078      	((2.245491e-02 -2.263995e-01 -2.576953e+00) (9.420427e-07 -6.921245e-02 -1.835320e-02)) ((1.186339e-05 4.247760e-06 1.614941e-06) (-2.428852e-03 -3.239115e-06 -1.019136e-05))
0.480479      	((2.581131e-02 -2.262383e-01 -2.570064e+00) (7.382032e-06 -6.907155e-02 -1.838703e-02)) ((1.199630e-05 4.354269e-06 1.626605e-06) (-2.423904e-03 -3.774496e-06 -1.122707e-05))
0.500882      	((2.958928e-02 -2.261311e-01 -2.563742e+00) (1.352709e-05 -6.894965e-02 -1.841576e-02)) ((1.202065e-05 4.427428e-06 1.647863e-06) (-2.419748e-03 -4.349291e-06 -1.238973e-05))
0.521287      	((3.399134e-02 -2.258555e-01 -2.557606e+00) (2.228438e-05 -6.883670e-02 -1.842992e-02)) ((1.207076e-05 4.534568e-06 1.662122e-06) (-2.416020e-03 -5.023866e-06 -1.369714e-05))
0.541694      	((3.867457e-02 -2.255577e-01 -2.552472e+00) (2.973969e-05 -6.873539e-02 -1.845041e-02)) ((1.208643e-05 4.625033e-06 1.680435e-06) (-2.412658e-03 -5.776583e-06 -1.515224e-05))
0.562102      	((4.399851e-02 -2.250751e-01 -2.547599e+00) (4.078538e-05 -6.864544e-02 -1.846750e-02)) ((1.208776e-05 4.699407e-06 1.707563e-06) (-2.409692e-03 -6.613230e-06 -1.673799e-05))
0.582511      	((4.986147e-02 -2.245033e-01 -2.542813e+00) (5.334643e-05 -6.856013e-02 -1.847706e-02)) ((1.211748e-05 4.807106e-06 1.729420e-06) (-2.406876e-03 -7.556415e-06 -1.847588e-05))
0.602921      	((5.639408e-02 -2.239147e-01 -2.538820e+00) (6.750980e-05 -6.848387e-02 -1.849678e-02)) ((1.205675e-05 4.893644e-06 1.764608e-06) (-2.404299e-03 -8.617075e-06 -2.036069e-05))
0.623329      	((6.380764e-02 -2.234043e-01 -2.534854e+00) (8.641413e-05 -6.841307e-02 -1.851039e-02)) ((1.203443e-05 4.991612e-06 1.795213e-06) (-2.401939e-03 -9.806811e-06 -2.242474e-05))
0.643737      	((7.204604e-02 -2.231358e-01 -2.531523e+00) (1.065699e-04 -6.834582e-02 -1.852294e-02)) ((1.197400e-05 5.153439e-06 1.822636e-06) (-2.399702e-03 -1.114943e-05 -2.470184e-05))
0.664144      	((8.136947e-02 -2.230722e-01 -2.528779e+00) (1.300061e-04 -6.828775e-02 -1.854053e-02)) ((1.185309e-05 5.260214e-06 1.859868e-06) (-2.397795e-03 -1.265376e-05 -2.720701e-05))
0.684547      	((9.180424e-02 -2.232219e-01 -2.526000e+00) (1.570300e-04 -6.823365e-02 -1.854920e-02)) ((1.178762e-05 5.421916e-06 1.882854e-06) (-2.396111e-03 -1.432517e-05 -3.000498e-05))
0.704948      	((1.034319e-01 -2.236718e-01 -2.524015e+00) (1.860146e-04 -6.818574e-02 -1.856095e-02)) ((1.165464e-05 5.624267e-06 1.912630e-06) (-2.394646e-03 -1.620433e-05 -3.310697e-05))
0.725345      	((1.165893e-01 -2.243318e-01 -2.522129e+00) (2.200156e-04 -6.814665e-02 -1.857018e-02)) ((1.153997e-05 5.769854e-06 1.935758e-06) (-2.393541e-03 -1.830998e-05 -3.658254e-05))
0.745738      	((1.311561e-01 -2.252587e-01 -2.520435e+00) (2.568723e-04 -6.811240e-02 -1.857160e-02)) ((1.144963e-05 6.019262e-06 1.939674e-06) (-2.392692e-03 -2.066842e-05 -4.051407e-05))
0.766124      	((1.475225e-01 -2.265227e-01 -2.519463e+00) (2.972521e-04 -6.808903e-02 -1.857556e-02)) ((1.129265e-05 6.272330e-06 1.954928e-06) (-2.392320e-03 -2.332699e-05 -4.493110e-05))
0.786504      	((1.656211e-01 -2.281861e-01 -2.518470e+00) (3.434847e-04 -6.807407e-02 -1.856898e-02)) ((1.118637e-05 6.505017e-06 1.960717e-06) (-2.392426e-03 -2.629025e-05 -4.992624e-05))
0.806876      	((1.855537e-01 -2.303985e-01 -2.517956e+00) (3.926731e-04 -6.806644e-02 -1.855227e-02)) ((1.105281e-05 6.849509e-06 1.958218e-06) (-2.392994e-03 -2.957190e-05 -5.547719e-05))
0.827239      	((2.075199e-01 -2.333918e-01 -2.518421e+00) (4.495961e-04 -6.807458e-02 -1.853302e-02)) ((1.088184e-05 7.160500e-06 1.963878e-06) (-2.394376e-03 -3.322314e-05 -6.153636e-05))
0.847592      	((2.315428e-01 -2.368950e-01 -2.519221e+00) (5.159518e-04 -6.809624e-02 -1.850026e-02)) ((1.073247e-05 7.514103e-06 1.951430e-06) (-2.396539e-03 -3.725243e-05 -6.818135e-05))
0.867933      	((2.576028e-01 -2.413762e-01 -2.520913e+00) (5.897854e-04 -6.813275e-02 -1.845326e-02)) ((1.053262e-05 7.961257e-06 1.946655e-06) (-2.399555e-03 -4.167340e-05 -7.537526e-05))
0.888256      	((2.857989e-01 -2.469858e-01 -2.523793e+00) (6.758301e-04 -6.818998e-02 -1.839970e-02)) ((1.035170e-05 8.355608e-06 1.958104e-06) (-2.403626e-03 -4.652098e-05 -8.307358e-05))
0.908558      	((3.152986e-01 -2.541210e-01 -2.527960e+00) (7.718499e-04 -6.826611e-02 -1.833627e-02)) ((1.019283e-05 8.803290e-06 1.977574e-06) (-2.408601e-03 -5.180896e-05 -9.134955e-05))
0.928836      	((3.461938e-01 -2.631139e-01 -2.533441e+00) (8.737708e-04 -6.836426e-02 -1.826318e-02)) ((9.988245e-06 9.315672e-06 2.041067e-06) (-2.414576e-03 -5.756924e-05 -1.002780e-04))
0.949089      	((3.771423e-01 -2.741223e-01 -2.540256e+00) (9.819690e-04 -6.848376e-02 -1.818317e-02)) ((9.870352e-06 9.749617e-06 2.124980e-06) (-2.421478e-03 -6.381197e-05 -1.099526e-04))
0.969319      	((4.065344e-01 -2.860047e-01 -2.547698e+00) (1.090555e-03 -6.862260e-02 -1.810506e-02)) ((9.732105e-06 1.017881e-05 2.205385e-06) (-2.429098e-03 -7.042905e-05 -1.203171e-04))
0.989527      	((4.338302e-01 -2.991719e-01 -2.556244e+00) (1.194867e-03 -6.878228e-02 -1.802298e-02)) ((9.595979e-06 1.052380e-05 2.304391e-06) (-2.437617e-03 -7.725736e-05 -1.311467e-04))
1.009711      	((4.574737e-01 -3.136419e-01 -2.565473e+00) (1.293373e-03 -6.895765e-02 -1.792513e-02)) ((9.581622e-06 1.072818e-05 2.383615e-06) (-2.446912e-03 -8.409764e-05 -1.422705e-04))
1.029872      	((4.765905e-01 -3.279678e-01 -2.575712e+00) (1.378692e-03 -6.915206e-02 -1.782127e-02)) ((9.542601e-06 1.088451e-05 2.451496e-06) (-2.456996e-03 -9.069102e-05 -1.532719e-04))
1.050008      	((4.888586e-01 -3.416656e-01 -2.587006e+00) (1.443031e-03 -6.936804e-02 -1.770815e-02)) ((9.540993e-06 1.079877e-05 2.547586e-06) (-2.467960e-03 -9.658840e-05 -1.638522e-04))
1.070119      	((4.944431e-01 -3.534506e-01 -2.598695e+00) (1.484494e-03 -6.958885e-02 -1.757936e-02)) ((9.604608e-06 1.054307e-05 2.643009e-06) (-2.479110e-03 -1.014303e-04 -1.736259e-04))
1.090204      	((4.938139e-01 -3.624110e-01 -2.610118e+00) (1.497044e-03 -6.980986e-02 -1.746262e-02)) ((9.600864e-06 1.026374e-05 2.739853e-06) (-2.490000e-03 -1.049535e-04 -1.821831e-04))
1.110266      	((4.870817e-01 -3.689384e-01 -2.621936e+00) (1.476743e-03 -7.002937e-02 -1.735707e-02)) ((9.619407e-06 9.816982e-06 2.798256e-06) (-2.500476e-03 -1.069513e-04 -1.894242e-04))
1.130307      	((4.759424e-01 -3.722043e-01 -2.632966e+00) (1.424087e-03 -7.023187e-02 -1.725095e-02)) ((9.666465e-06 9.327759e-06 2.776126e-06) (-2.510038e-03 -1.073679e-04 -1.953044e-04))
1.150334      	((4.626512e-01 -3.730539e-01 -2.644239e+00) (1.341081e-03 -7.042322e-02 -1.717034e-02)) ((9.584998e-06 8.956400e-06 2.692750e-06) (-2.518959e-03 -1.063014e-04 -1.997190e-04))
1.170351      	((4.493859e-01 -3.710027e-01 -2.655077e+00) (1.239147e-03 -7.060063e-02 -1.710082e-02)) ((9.382420e-06 8.660324e-06 2.596528e-06) (-2.527288e-03 -1.041190e-04 -2.027938e-04))
1.190361      	((4.380399e-01 -3.669722e-01 -2.664943e+00) (1.132566e-03 -7.075246e-02 -1.703557e-02)) ((9.044826e-06 8.522461e-06 2.529012e-06) (-2.534649e-03 -1.013520e-04 -2.046269e-04))
1.210367      	((4.289383e-01 -3.620498e-01 -2.675802e+00) (1.035517e-03 -7.089181e-02 -1.700963e-02)) ((8.583134e-06 8.562868e-06 2.498308e-06) (-2.541263e-03 -9.855058e-05 -2.051565e-04))
1.230372      	((4.215457e-01 -3.574587e-01 -2.686823e+00) (9.659645e-04 -7.101637e-02 -1.700397e-02)) ((8.189778e-06 8.650493e-06 2.493090e-06) (-2.546867e-03 -9.619985e-05 -2.042862e-04))
1.250378      	((4.149936e-01 -3.526540e-01 -2.696957e+00) (9.286189e-04 -7.111336e-02 -1.701580e-02)) ((7.721609e-06 8.796340e-06 2.492973e-06) (-2.550751e-03 -9.450263e-05 -2.021128e-04))
1.270384      	((4.091436e-01 -3.479201e-01 -2.706587e+00) (9.110415e-04 -7.119062e-02 -1.707318e-02)) ((7.311043e-06 8.951541e-06 2.503960e-06) (-2.553243e-03 -9.332739e-05 -1.993194e-04))
1.290391      	((4.025361e-01 -3.437134e-01 -2.714226e+00) (8.981044e-04 -7.124408e-02 -1.713431e-02)) ((7.005623e-06 9.065601e-06 2.499905e-06) (-2.554604e-03 -9.229103e-05 -1.966195e-04))
1.3104        	((3.953176e-01 -3.414217e-01 -2.719499e+00) (8.749151e-04 -7.127052e-02 -1.717902e-02)) ((6.767074e-06 8.968241e-06 2.512175e-06) (-2.555082e-03 -9.098358e-05 -1.944849e-04))
1.330412      	((3.890305e-01 -3.414300e-01 -2.723605e+00) (8.321045e-04 -7.129264e-02 -1.722507e-02)) ((6.854263e-06 8.725060e-06 2.513631e-06) (-2.555673e-03 -8.912048e-05 -1.932032e-04))
1.350426      	((3.844215e-01 -3.423280e-01 -2.725657e+00) (7.746440e-04 -7.130755e-02 -1.724252e-02)) ((7.019589e-06 8.460568e-06 2.502455e-06) (-2.556589e-03 -8.669997e-05 -1.928213e-04))
1.370443      	((3.819733e-01 -3.441266e-01 -2.726680e+00) (7.111335e-04 -7.130429e-02 -1.723012e-02)) ((7.079709e-06 8.159496e-06 2.508248e-06) (-2.557421e-03 -8.408790e-05 -1.932838e-04))
1.390462      	((3.812572e-01 -3.478662e-01 -2.729335e+00) (6.481531e-04 -7.129819e-02 -1.722342e-02)) ((7.229382e-06 7.964608e-06 2.507938e-06) (-2.558414e-03 -8.158400e-05 -1.943412e-04))
1.410484      	((3.833409e-01 -3.520408e-01 -2.732634e+00) (5.949754e-04 -7.129653e-02 -1.722654e-02)) ((7.157360e-06 8.048095e-06 2.522176e-06) (-2.559559e-03 -7.956972e-05 -1.957333e-04))
1.430507      	((3.877872e-01 -3.548508e-01 -2.735522e+00) (5.626697e-04 -7.128973e-02 -1.723097e-02)) ((6.743569e-06 8.305088e-06 2.610059e-06) (-2.560077e-03 -7.861417e-05 -1.970890e-04))
1.450532      	((3.931776e-01 -3.567123e-01 -2.739785e+00) (5.540029e-04 -7.128378e-02 -1.727298e-02)) ((6.300269e-06 8.763456e-06 2.723080e-06) (-2.559962e-03 -7.890355e-05 -1.982191e-04))
1.470558      	((3.974656e-01 -3.584249e-01 -2.745551e+00) (5.693615e-04 -7.128679e-02 -1.735839e-02)) ((5.766671e-06 9.301293e-06 2.799421e-06) (-2.559331e-03 -8.031461e-05 -1.988225e-04))
1.490584      	((4.001997e-01 -3.589158e-01 -2.749771e+00) (6.038416e-04 -7.127558e-02 -1.744344e-02)) ((5.189448e-06 9.669538e-06 2.860327e-06) (-2.557626e-03 -8.249924e-05 -1.990248e-04))
1.51061       	((4.004067e-01 -3.604247e-01 -2.753122e+00) (6.393465e-04 -7.125338e-02 -1.754555e-02)) ((4.756542e-06 9.995191e-06 2.877626e-06) (-2.555152e-03 -8.488401e-05 -1.992151e-04))
1.530635      	((3.963754e-01 -3.642149e-01 -2.756289e+00) (6.582040e-04 -7.122987e-02 -1.765765e-02)) ((4.540044e-06 1.010052e-05 2.866621e-06) (-2.552512e-03 -8.684173e-05 -1.997517e-04))
1.55066       	((3.917141e-01 -3.684412e-01 -2.755468e+00) (6.507772e-04 -7.118815e-02 -1.772909e-02)) ((4.518773e-06 9.825949e-06 2.886279e-06) (-2.549626e-03 -8.793786e-05 -2.010124e-04))
1.570685      	((3.885931e-01 -3.747971e-01 -2.753807e+00) (6.098527e-04 -7.113029e-02 -1.777696e-02)) ((4.793931e-06 9.407838e-06 2.896559e-06) (-2.546977e-03 -8.790942e-05 -2.035281e-04))
1.59071       	((3.867227e-01 -3.803723e-01 -2.752539e+00) (5.399696e-04 -7.106626e-02 -1.780879e-02)) ((5.056474e-06 9.018751e-06 2.916796e-06) (-2.545158e-03 -8.664635e-05 -2.073836e-04))
1.610736      	((3.849676e-01 -3.858256e-01 -2.750753e+00) (4.534399e-04 -7.098885e-02 -1.780110e-02)) ((5.306035e-06 8.507765e-06 2.996355e-06) (-2.543843e-03 -8.445462e-05 -2.121324e-04))
1.630763      	((3.829835e-01 -3.897515e-01 -2.750561e+00) (3.608123e-04 -7.090704e-02 -1.778859e-02)) ((5.594914e-06 8.179428e-06 3.047648e-06) (-2.542882e-03 -8.187595e-05 -2.170246e-04))
1.650791      	((3.820757e-01 -3.922923e-01 -2.751776e+00) (2.851587e-04 -7.083817e-02 -1.779468e-02)) ((5.653325e-06 8.301249e-06 3.055698e-06) (-2.542374e-03 -7.966146e-05 -2.208495e-04))
1.670823      	((3.814945e-01 -3.924503e-01 -2.753196e+00) (2.516395e-04 -7.078288e-02 -1.780514e-02)) ((5.410637e-06 8.532218e-06 3.116727e-06) (-2.541844e-03 -7.836242e-05 -2.224730e-04))
1.690857      	((3.817871e-01 -3.912102e-01 -2.754208e+00) (2.552647e-04 -7.073608e-02 -1.784369e-02)) ((5.024872e-06 9.010420e-06 3.194683e-06) (-2.540829e-03 -7.806530e-05 -2.222124e-04))
1.710895      	((3.819556e-01 -3.902220e-01 -2.756363e+00) (2.871489e-04 -7.069070e-02 -1.791085e-02)) ((4.482911e-06 9.610934e-06 3.265286e-06) (-2.539215e-03 -7.868094e-05 -2.207106e-04))
1.730938      	((3.798032e-01 -3.911635e-01 -2.757971e+00) (3.360606e-04 -7.064401e-02 -1.798289e-02)) ((3.981387e-06 9.893414e-06 3.334202e-06) (-2.537079e-03 -7.981049e-05 -2.184950e-04))
1.750985      	((3.751758e-01 -3.937285e-01 -2.760026e+00) (3.785746e-04 -7.059657e-02 -1.806502e-02)) ((3.846471e-06 9.897168e-06 3.355472e-06) (-2.534675e-03 -8.078711e-05 -2.163457e-04))
1.771037      	((3.690775e-01 -3.976784e-01 -2.760561e+00) (4.005437e-04 -7.053860e-02 -1.813665e-02)) ((3.889438e-06 9.722318e-06 3.358767e-06) (-2.532089e-03 -8.110355e-05 -2.148198e-04))
1.791091      	((3.634710e-01 -4.018796e-01 -2.758584e+00) (4.014184e-04 -7.046854e-02 -1.817843e-02)) ((4.086261e-06 9.262272e-06 3.366978e-06) (-2.529752e-03 -8.044189e-05 -2.140535e-04))
