# Forces      
# CofR        : (0.000000e+00 0.000000e+00 0.000000e+00)
# Time        forces(pressure viscous)	moments(pressure viscous)
0             	((0.000000e+00 0.000000e+00 0.000000e+00) (0.000000e+00 0.000000e+00 0.000000e+00)) ((0.000000e+00 0.000000e+00 0.000000e+00) (0.000000e+00 0.000000e+00 0.000000e+00))
0.012         	((-1.782337e-05 6.923405e-10 -6.067441e-06) (-4.181093e-05 7.459561e-14 -4.694861e-09)) ((-2.763083e-13 2.717286e-09 -2.198498e-13) (-4.473507e-14 2.782381e-06 -1.998796e-14))
0.0264        	((-2.457681e-05 1.426041e-08 -7.946277e-06) (-3.830164e-05 4.037221e-12 -5.158280e-09)) ((-1.495878e-13 -1.362139e-09 -5.822904e-14) (-1.738927e-13 2.551612e-06 1.398597e-13))
0.04368       	((-1.635926e-05 -8.533211e-09 -5.452813e-06) (-3.468755e-05 -3.675344e-12 -6.743551e-09)) ((-3.097671e-13 -9.659052e-10 -1.845251e-13) (-4.215703e-13 2.314740e-06 4.588694e-13))
0.064416      	((-1.872545e-05 1.022130e-08 -6.101423e-06) (-3.105443e-05 -9.268009e-12 -1.094437e-08)) ((-1.459888e-13 -1.887198e-09 1.321757e-14) (-9.223086e-13 2.077516e-06 5.560836e-13))
0.0892992     	((-1.371661e-05 -4.449809e-09 -4.599691e-06) (-2.751187e-05 -7.841866e-12 -1.848781e-08)) ((-1.307298e-13 -1.331501e-09 -1.316041e-13) (-1.551285e-12 1.847176e-06 1.552736e-13))
0.119159      	((-1.415051e-05 5.036197e-09 -4.597371e-06) (-2.417722e-05 4.543159e-12 -2.843555e-08)) ((-1.109587e-13 -1.619334e-09 9.932301e-15) (-1.410176e-12 1.631556e-06 -3.303135e-13))
0.154991      	((-1.069297e-05 -2.577910e-09 -3.666967e-06) (-2.115675e-05 1.005890e-11 -4.010467e-08)) ((-6.655954e-15 -1.124878e-09 -4.239432e-14) (-1.554925e-12 1.435426e-06 -9.281537e-13))
0.197989      	((-1.059822e-05 1.991428e-09 -3.471928e-06) (-1.849384e-05 1.218425e-11 -5.443643e-08)) ((3.997555e-14 -1.287044e-09 -1.483307e-14) (-1.780932e-12 1.262300e-06 -1.411394e-12))
0.249587      	((-8.291966e-06 -1.209918e-09 -2.894793e-06) (-1.620722e-05 1.240442e-11 -7.056079e-08)) ((1.442802e-14 -9.280668e-10 -4.407791e-14) (-1.675972e-12 1.112644e-06 -1.528395e-12))
0.311504      	((-8.067021e-06 5.573497e-10 -2.692149e-06) (-1.428389e-05 4.765830e-12 -8.523995e-08)) ((9.517355e-14 -1.042181e-09 -2.351782e-14) (-1.841360e-12 9.859562e-07 -1.317670e-12))
0.385805      	((-6.558776e-06 -1.851663e-10 -2.340004e-06) (-1.266734e-05 7.945124e-13 -9.993492e-08)) ((1.153126e-14 -7.970186e-10 -2.779497e-14) (-1.588920e-12 8.790876e-07 -1.176187e-12))
0.474966      	((-6.306181e-06 4.447981e-10 -2.180815e-06) (-1.129870e-05 -9.850739e-13 -1.083807e-07)) ((1.357416e-13 -8.723639e-10 -1.608840e-14) (-1.003942e-12 7.884999e-07 -1.028810e-12))
0.581959      	((-5.299945e-06 1.692991e-10 -1.947634e-06) (-1.012663e-05 5.091227e-12 -1.180119e-07)) ((2.193703e-14 -7.105226e-10 1.361655e-14) (4.682663e-14 7.108729e-07 -1.136800e-12))
0.710351      	((-5.037147e-06 2.224584e-10 -1.829238e-06) (-9.111507e-06 2.732231e-11 -1.226175e-07)) ((1.823353e-13 -7.465153e-10 1.655103e-14) (1.139143e-12 6.437102e-07 -1.805818e-12))
0.864421      	((-4.351351e-06 6.302097e-10 -1.672533e-06) (-8.221216e-06 3.725464e-11 -1.316732e-07)) ((1.101321e-13 -6.545352e-10 2.859557e-15) (1.420527e-12 5.849480e-07 -2.636055e-12))
1.049306      	((-4.085563e-06 3.955825e-10 -1.582077e-06) (-7.432365e-06 3.077197e-11 -1.393008e-07)) ((2.004057e-13 -6.599977e-10 5.516455e-14) (-5.676777e-13 5.330945e-07 -2.989029e-12))
1.271167      	((-3.576432e-06 7.634665e-10 -1.482319e-06) (-6.725812e-06 1.422070e-11 -1.498214e-07)) ((1.626120e-13 -5.981749e-10 8.759925e-14) (-4.120817e-12 4.868272e-07 -2.802888e-12))
1.5374        	((-3.329124e-06 6.333733e-10 -1.409508e-06) (-6.091358e-06 3.446045e-11 -1.582355e-07)) ((2.510092e-13 -5.911321e-10 1.379939e-13) (-6.310133e-12 4.454944e-07 -3.333556e-12))
1.85688       	((-2.951694e-06 5.520627e-10 -1.330043e-06) (-5.522951e-06 8.444082e-11 -1.666298e-07)) ((2.762357e-13 -5.442969e-10 1.499396e-13) (-9.186012e-12 4.085797e-07 -3.552752e-12))
2.240256      	((-2.722774e-06 3.174276e-10 -1.277749e-06) (-5.018730e-06 1.132030e-10 -1.734046e-07)) ((2.974885e-13 -5.370317e-10 1.419820e-13) (-1.205347e-11 3.758843e-07 -2.107603e-12))
2.700307      	((-2.435878e-06 -3.921112e-11 -1.226031e-06) (-4.574776e-06 1.214588e-10 -1.791878e-07)) ((3.009937e-13 -5.062146e-10 1.107917e-13) (-1.346515e-11 3.471219e-07 1.599487e-12))
3.252369      	((-2.251202e-06 5.840151e-11 -1.195885e-06) (-4.185574e-06 1.136827e-10 -1.848184e-07)) ((2.920863e-13 -4.996170e-10 9.510361e-14) (-1.471313e-11 3.219140e-07 6.752384e-12))
3.914842      	((-2.042276e-06 -1.632792e-10 -1.172296e-06) (-3.844709e-06 1.168043e-10 -1.901556e-07)) ((2.987415e-13 -4.795532e-10 8.611364e-14) (-1.416515e-11 2.999357e-07 1.141759e-11))
4.709811      	((-1.894802e-06 -3.276277e-10 -1.167245e-06) (-3.543846e-06 1.712405e-10 -1.974807e-07)) ((2.377672e-13 -4.745060e-10 7.942706e-14) (-1.137672e-11 2.806050e-07 1.517576e-11))
5.663773      	((-1.735213e-06 -2.493659e-10 -1.172774e-06) (-3.275673e-06 2.022054e-10 -2.036759e-07)) ((2.060797e-13 -4.634194e-10 6.267852e-14) (-8.526023e-12 2.634819e-07 1.723752e-11))
6.808528      	((-1.621843e-06 1.633483e-11 -1.181684e-06) (-3.034038e-06 2.104539e-10 -2.103143e-07)) ((1.289267e-13 -4.591593e-10 1.174562e-13) (-5.926094e-12 2.481298e-07 1.787177e-11))
8.182233      	((-1.506993e-06 -5.959623e-11 -1.198446e-06) (-2.814789e-06 2.009513e-10 -2.175073e-07)) ((9.915745e-14 -4.531235e-10 1.485125e-13) (-5.950776e-12 2.342733e-07 1.728525e-11))
9.83068       	((-1.415542e-06 1.116800e-10 -1.222647e-06) (-2.614498e-06 2.387363e-10 -2.251035e-07)) ((4.872174e-14 -4.505929e-10 1.763720e-13) (-8.174378e-12 2.217122e-07 1.470830e-11))
11.808816     	((-1.327276e-06 1.326193e-10 -1.251121e-06) (-2.430866e-06 2.630655e-10 -2.333983e-07)) ((2.216612e-14 -4.478755e-10 1.833349e-13) (-1.147141e-11 2.103094e-07 1.162127e-11))
14.182579     	((-1.255082e-06 4.472485e-10 -1.287244e-06) (-2.261889e-06 2.758205e-10 -2.429149e-07)) ((2.774048e-14 -4.467755e-10 1.719592e-13) (-1.413500e-11 1.999426e-07 9.414967e-12))
17.031095     	((-1.186796e-06 5.816460e-10 -1.327412e-06) (-2.106939e-06 2.212963e-10 -2.538076e-07)) ((5.590962e-14 -4.454665e-10 1.465296e-13) (-1.385789e-11 1.905740e-07 7.630775e-12))
20.449314     	((-1.133622e-06 5.092367e-10 -1.369689e-06) (-1.966354e-06 1.852780e-10 -2.665605e-07)) ((7.126501e-14 -4.447492e-10 1.203976e-13) (-1.247768e-11 1.821969e-07 6.157561e-12))
24.551176     	((-1.088312e-06 2.685572e-10 -1.414975e-06) (-1.840136e-06 1.674761e-10 -2.811919e-07)) ((5.642282e-14 -4.445226e-10 1.048781e-13) (-1.175952e-11 1.747699e-07 4.469387e-12))
29.473411     	((-1.058817e-06 2.293591e-10 -1.464560e-06) (-1.728295e-06 1.368471e-10 -2.975671e-07)) ((5.769794e-14 -4.451085e-10 8.516437e-14) (-1.116386e-11 1.682680e-07 2.970426e-12))
35.380094     	((-1.037555e-06 2.237511e-11 -1.517448e-06) (-1.630428e-06 9.151023e-11 -3.158528e-07)) ((5.679918e-14 -4.460983e-10 6.796270e-14) (-1.126889e-11 1.626509e-07 1.758770e-12))
42.468112     	((-1.026746e-06 -9.442714e-11 -1.573093e-06) (-1.546082e-06 5.031382e-11 -3.360284e-07)) ((5.337326e-14 -4.473401e-10 6.592497e-14) (-1.197099e-11 1.578464e-07 6.056159e-13))
50.955003     	((-1.025713e-06 -2.705390e-10 -1.631116e-06) (-1.474934e-06 -1.123874e-11 -3.579927e-07)) ((5.048042e-14 -4.484005e-10 6.679986e-14) (-1.258436e-11 1.537693e-07 -4.018465e-13))
60.839828     	((-1.036331e-06 -2.710353e-10 -1.694335e-06) (-1.417313e-06 -5.683113e-11 -3.810222e-07)) ((4.237850e-14 -4.495373e-10 6.784739e-14) (-1.318361e-11 1.503963e-07 -1.620025e-12))
72.122506     	((-1.057968e-06 -3.209990e-10 -1.758614e-06) (-1.372893e-06 -9.148076e-11 -4.040425e-07)) ((3.441598e-14 -4.508259e-10 6.859668e-14) (-1.334753e-11 1.476745e-07 -1.378762e-12))
84.803635     	((-1.090164e-06 -3.147335e-10 -1.818973e-06) (-1.341169e-06 -1.301073e-10 -4.258012e-07)) ((3.558903e-14 -4.523751e-10 6.377456e-14) (-1.338378e-11 1.455565e-07 -3.450288e-13))
98.800414     	((-1.127577e-06 -3.579681e-10 -1.870838e-06) (-1.320777e-06 -1.620872e-10 -4.445935e-07)) ((3.689603e-14 -4.540833e-10 6.013678e-14) (-1.350714e-11 1.439906e-07 3.404277e-13))
112.81544     	((-1.161108e-06 -3.664188e-10 -1.909919e-06) (-1.309902e-06 -1.827862e-10 -4.588272e-07)) ((4.141703e-14 -4.558044e-10 5.941092e-14) (-1.378402e-11 1.429394e-07 6.563193e-13))
126.852018    	((-1.185575e-06 -4.078509e-10 -1.934120e-06) (-1.304923e-06 -2.027294e-10 -4.691166e-07)) ((4.572470e-14 -4.570101e-10 5.669093e-14) (-1.425306e-11 1.422488e-07 5.673962e-13))
140.909383    	((-1.202614e-06 -4.213622e-10 -1.951053e-06) (-1.303215e-06 -2.192682e-10 -4.761324e-07)) ((4.897908e-14 -4.578937e-10 5.282091e-14) (-1.486145e-11 1.418067e-07 4.392746e-13))
154.986221    	((-1.214452e-06 -4.346490e-10 -1.965089e-06) (-1.303024e-06 -2.260417e-10 -4.807596e-07)) ((5.344676e-14 -4.584488e-10 5.030863e-14) (-1.536281e-11 1.415266e-07 3.129954e-13))
169.0796      	((-1.223285e-06 -4.262746e-10 -1.975314e-06) (-1.303471e-06 -2.342419e-10 -4.837549e-07)) ((5.668649e-14 -4.588371e-10 5.032527e-14) (-1.568230e-11 1.413558e-07 4.077723e-13))
183.185542    	((-1.229049e-06 -4.212075e-10 -1.982756e-06) (-1.304071e-06 -2.399402e-10 -4.857070e-07)) ((5.625664e-14 -4.590863e-10 5.085302e-14) (-1.585496e-11 1.412551e-07 5.032865e-13))
197.302383    	((-1.232444e-06 -4.214925e-10 -1.987861e-06) (-1.304589e-06 -2.440015e-10 -4.870638e-07)) ((5.639452e-14 -4.592235e-10 5.110536e-14) (-1.583511e-11 1.411960e-07 6.131104e-13))
211.428566    	((-1.234015e-06 -4.178182e-10 -1.991134e-06) (-1.304947e-06 -2.455987e-10 -4.881228e-07)) ((5.482268e-14 -4.593025e-10 5.157398e-14) (-1.586217e-11 1.411595e-07 6.128953e-13))
225.562469    	((-1.234618e-06 -4.161093e-10 -1.993507e-06) (-1.305187e-06 -2.453102e-10 -4.890416e-07)) ((5.315027e-14 -4.593335e-10 5.219427e-14) (-1.584085e-11 1.411351e-07 5.786517e-13))
239.702414    	((-1.234694e-06 -4.112758e-10 -1.995396e-06) (-1.305379e-06 -2.453374e-10 -4.898808e-07)) ((5.297004e-14 -4.593322e-10 5.225837e-14) (-1.583567e-11 1.411177e-07 5.610536e-13))
253.847092    	((-1.234414e-06 -4.045796e-10 -1.996749e-06) (-1.305568e-06 -2.451993e-10 -4.906606e-07)) ((5.239154e-14 -4.593204e-10 5.203028e-14) (-1.583994e-11 1.411048e-07 5.199219e-13))
267.995416    	((-1.233855e-06 -4.033165e-10 -1.998270e-06) (-1.305769e-06 -2.457443e-10 -4.913895e-07)) ((5.348122e-14 -4.593002e-10 5.139966e-14) (-1.581667e-11 1.410948e-07 4.645558e-13))
282.146457    	((-1.233163e-06 -4.016016e-10 -1.999595e-06) (-1.305982e-06 -2.470047e-10 -4.920663e-07)) ((5.449250e-14 -4.592745e-10 5.143048e-14) (-1.573865e-11 1.410866e-07 4.343385e-13))
296.299718    	((-1.232302e-06 -4.021892e-10 -2.000650e-06) (-1.306196e-06 -2.473583e-10 -4.926906e-07)) ((5.348648e-14 -4.592418e-10 5.194436e-14) (-1.567560e-11 1.410792e-07 3.914828e-13))
310.454858    	((-1.231263e-06 -4.060556e-10 -2.001766e-06) (-1.306407e-06 -2.480412e-10 -4.932584e-07)) ((5.277766e-14 -4.592037e-10 5.222337e-14) (-1.563058e-11 1.410724e-07 3.692805e-13))
324.611663    	((-1.229511e-06 -4.094891e-10 -2.002803e-06) (-1.306573e-06 -2.485240e-10 -4.937454e-07)) ((5.215947e-14 -4.591375e-10 5.272941e-14) (-1.560645e-11 1.410640e-07 3.698681e-13))
338.770018    	((-1.227565e-06 -4.124607e-10 -2.003929e-06) (-1.306664e-06 -2.496080e-10 -4.941241e-07)) ((5.187035e-14 -4.590616e-10 5.276913e-14) (-1.558085e-11 1.410521e-07 3.730533e-13))
352.929868    	((-1.226000e-06 -4.130262e-10 -2.004952e-06) (-1.306697e-06 -2.501881e-10 -4.944177e-07)) ((5.179411e-14 -4.590050e-10 5.264306e-14) (-1.556095e-11 1.410375e-07 3.903072e-13))
367.091165    	((-1.224778e-06 -4.153909e-10 -2.005903e-06) (-1.306706e-06 -2.512838e-10 -4.946935e-07)) ((5.192222e-14 -4.589707e-10 5.259922e-14) (-1.553711e-11 1.410229e-07 4.326434e-13))
381.253862    	((-1.223779e-06 -4.152517e-10 -2.007046e-06) (-1.306723e-06 -2.521246e-10 -4.950022e-07)) ((5.234720e-14 -4.589470e-10 5.288055e-14) (-1.548590e-11 1.410107e-07 4.773495e-13))
395.417928    	((-1.222963e-06 -4.234443e-10 -2.007908e-06) (-1.306762e-06 -2.527384e-10 -4.953580e-07)) ((5.315024e-14 -4.589225e-10 5.333244e-14) (-1.544456e-11 1.410013e-07 5.132808e-13))
409.583351    	((-1.222464e-06 -4.279548e-10 -2.008610e-06) (-1.306842e-06 -2.538326e-10 -4.957464e-07)) ((5.384365e-14 -4.588991e-10 5.371386e-14) (-1.543789e-11 1.409949e-07 5.286043e-13))
423.75014     	((-1.222279e-06 -4.280687e-10 -2.009345e-06) (-1.306980e-06 -2.546051e-10 -4.961452e-07)) ((5.411395e-14 -4.588809e-10 5.405784e-14) (-1.543112e-11 1.409916e-07 5.255129e-13))
437.918327    	((-1.222338e-06 -4.331389e-10 -2.010270e-06) (-1.307187e-06 -2.552499e-10 -4.965322e-07)) ((5.449088e-14 -4.588690e-10 5.433316e-14) (-1.539566e-11 1.409919e-07 5.218987e-13))
452.087963    	((-1.222388e-06 -4.402324e-10 -2.011144e-06) (-1.307454e-06 -2.560794e-10 -4.968925e-07)) ((5.484595e-14 -4.588589e-10 5.443169e-14) (-1.534960e-11 1.409953e-07 5.369665e-13))
466.259083    	((-1.222477e-06 -4.358678e-10 -2.012068e-06) (-1.307764e-06 -2.562110e-10 -4.972171e-07)) ((5.501832e-14 -4.588505e-10 5.429365e-14) (-1.527934e-11 1.410014e-07 5.791833e-13))
480.431689    	((-1.222419e-06 -4.313312e-10 -2.012891e-06) (-1.308096e-06 -2.565360e-10 -4.975052e-07)) ((5.492473e-14 -4.588384e-10 5.403200e-14) (-1.520037e-11 1.410093e-07 6.386613e-13))
494.605736    	((-1.222272e-06 -3.999356e-10 -2.013642e-06) (-1.308426e-06 -2.545548e-10 -4.977657e-07)) ((5.418638e-14 -4.588223e-10 5.385928e-14) (-1.503201e-11 1.410178e-07 6.928861e-13))
508.781129    	((-1.222072e-06 -3.807386e-10 -2.014023e-06) (-1.308743e-06 -2.513320e-10 -4.980041e-07)) ((5.373072e-14 -4.588018e-10 5.385386e-14) (-1.483224e-11 1.410263e-07 7.114590e-13))
522.957747    	((-1.221801e-06 -3.684848e-10 -2.014287e-06) (-1.309039e-06 -2.481886e-10 -4.982261e-07)) ((5.343818e-14 -4.587767e-10 5.387982e-14) (-1.464469e-11 1.410344e-07 6.904388e-13))
537.135476    	((-1.221456e-06 -3.530450e-10 -2.014474e-06) (-1.309308e-06 -2.439570e-10 -4.984335e-07)) ((5.311833e-14 -4.587479e-10 5.391661e-14) (-1.442594e-11 1.410417e-07 6.304286e-13))
551.314221    	((-1.221098e-06 -3.765406e-10 -2.014569e-06) (-1.309550e-06 -2.428777e-10 -4.986268e-07)) ((5.349220e-14 -4.587186e-10 5.397751e-14) (-1.433783e-11 1.410481e-07 5.409167e-13))
565.4939      	((-1.220690e-06 -2.893813e-10 -2.014712e-06) (-1.309765e-06 -2.392800e-10 -4.988071e-07)) ((5.218733e-14 -4.586886e-10 5.408180e-14) (-1.415249e-11 1.410537e-07 4.350906e-13))
579.674446    	((-1.220238e-06 -2.446130e-10 -2.014749e-06) (-1.309951e-06 -2.324367e-10 -4.989756e-07)) ((5.157209e-14 -4.586596e-10 5.413741e-14) (-1.381511e-11 1.410581e-07 3.004250e-13))
593.8558      	((-1.219791e-06 -2.642362e-10 -2.014670e-06) (-1.310110e-06 -2.301856e-10 -4.991290e-07)) ((5.172596e-14 -4.586328e-10 5.439509e-14) (-1.364473e-11 1.410616e-07 1.376412e-13))
