# Forces      
# CofR        : (0.000000e+00 0.000000e+00 0.000000e+00)
# Time        forces(pressure viscous)	moments(pressure viscous)
0             	((0.000000e+00 0.000000e+00 0.000000e+00) (-1.569907e-08 -2.815522e-11 -1.609386e-03)) ((0.000000e+00 0.000000e+00 0.000000e+00) (3.154061e-12 -1.623918e-10 2.044882e-15))
0.012         	((-7.434382e-05 -3.134906e-05 -1.217185e+00) (-6.704208e-08 -3.077320e-08 -1.540148e-03)) ((5.446358e-09 -3.168369e-06 -2.098851e-10) (-2.640656e-09 5.577445e-09 -1.296352e-12))
0.0264        	((3.062277e-05 1.117672e-06 1.050481e-01) (-5.460897e-08 -4.179158e-08 -1.424043e-03)) ((-1.662319e-09 2.086708e-07 4.475252e-10) (-2.926391e-09 5.000594e-09 9.513701e-11))
0.04368       	((2.834216e-05 7.881990e-05 1.431793e-01) (3.155832e-09 -2.180841e-09 -1.257630e-03)) ((-4.861414e-09 3.139408e-07 -1.197362e-09) (3.416493e-09 -3.770489e-09 2.594987e-10))
0.064416      	((3.211969e-05 1.746663e-06 3.104569e-02) (1.333426e-07 4.888048e-08 -1.123478e-03)) ((-1.047303e-09 9.906482e-08 9.528511e-10) (8.476389e-09 -1.248752e-08 2.094172e-10))
0.0892992     	((5.522635e-06 6.792298e-06 1.787994e-02) (1.811646e-07 8.449490e-08 -1.040712e-03)) ((-3.840333e-10 5.159353e-08 -3.037224e-10) (9.172743e-09 -1.522173e-08 1.178991e-10))
0.119159      	((3.789954e-06 5.879002e-06 1.189301e-02) (1.201644e-07 1.046543e-07 -9.700708e-04)) ((-5.708994e-10 2.796961e-08 2.381663e-11) (9.865673e-09 -1.376645e-08 4.769198e-12))
0.154991      	((1.509218e-06 2.659082e-06 7.002361e-03) (4.775734e-08 8.643076e-08 -9.004302e-04)) ((-2.411950e-10 1.102765e-08 -6.847394e-10) (9.721014e-09 -1.185111e-08 -1.546828e-10))
0.197989      	((-1.344140e-06 5.847619e-07 4.136704e-03) (-1.411311e-08 7.128146e-08 -8.338082e-04)) ((-4.018091e-10 3.187796e-09 -6.891793e-10) (8.982987e-09 -1.066209e-08 -1.314747e-10))
0.249587      	((1.421155e-06 5.721447e-07 2.333929e-03) (1.710208e-08 7.558888e-08 -7.714513e-04)) ((-3.716699e-10 -2.796561e-09 -4.656971e-10) (8.806003e-09 -9.666585e-09 -6.014549e-11))
0.311504      	((1.961924e-06 6.337191e-07 1.124790e-03) (7.466663e-08 8.086799e-08 -7.131970e-04)) ((-3.505992e-10 -6.546221e-09 -3.423051e-10) (8.689642e-09 -8.067547e-09 -4.247760e-13))
0.385805      	((1.873144e-06 9.260454e-07 3.306311e-04) (7.996125e-08 8.721017e-08 -6.585611e-04)) ((-3.561268e-10 -8.693680e-09 -4.712230e-10) (8.701634e-09 -6.627142e-09 -1.475585e-11))
0.474966      	((1.918276e-06 3.290332e-07 -2.010085e-04) (7.307189e-08 9.135539e-08 -6.074084e-04)) ((-3.571857e-10 -1.023540e-08 -3.624284e-10) (9.025313e-09 -5.943051e-09 2.114306e-11))
0.581959      	((1.553285e-06 -1.860180e-07 -5.732057e-04) (7.204358e-08 9.210472e-08 -5.593200e-04)) ((-3.497040e-10 -1.106525e-08 -3.136217e-10) (9.757406e-09 -6.267323e-09 1.885767e-10))
0.710351      	((9.551246e-07 -6.760359e-07 -8.312594e-04) (6.616554e-08 8.816873e-08 -5.142044e-04)) ((-2.962169e-10 -1.158169e-08 -2.425740e-10) (1.038096e-08 -6.461859e-09 2.756200e-10))
0.864421      	((6.293367e-08 -1.383798e-06 -1.005366e-03) (5.616926e-08 7.735062e-08 -4.728027e-04)) ((-2.641939e-10 -1.182013e-08 -1.635357e-10) (1.025370e-08 -6.031865e-09 3.183207e-10))
1.049306      	((-4.344165e-07 -1.591474e-06 -1.131333e-03) (3.455429e-08 6.030500e-08 -4.356927e-04)) ((-2.261319e-10 -1.185683e-08 -1.056127e-10) (9.229555e-09 -5.464225e-09 3.572685e-10))
1.271167      	((-6.506018e-08 -1.061366e-06 -1.223381e-03) (1.044640e-08 4.282040e-08 -4.031497e-04)) ((-2.292837e-10 -1.158565e-08 -8.024794e-11) (8.108508e-09 -4.564344e-09 3.680143e-10))
1.5374        	((-1.965027e-07 -1.119959e-06 -1.293896e-03) (-8.736725e-09 2.968397e-08 -3.751245e-04)) ((-2.303516e-10 -1.123110e-08 -2.570922e-11) (7.465299e-09 -4.913671e-09 2.915498e-10))
1.85688       	((-9.639716e-07 -1.169993e-06 -1.352163e-03) (-9.056405e-09 2.395617e-08 -3.517316e-04)) ((-1.992558e-10 -1.087726e-08 -9.920178e-13) (6.400274e-09 -5.791962e-09 2.034703e-10))
2.240256      	((-8.236810e-07 -1.087814e-06 -1.415802e-03) (5.961941e-08 1.595558e-08 -3.331902e-04)) ((-1.675357e-10 -1.054363e-08 3.997119e-12) (5.823726e-09 -6.862493e-09 1.161591e-10))
2.700307      	((-8.763646e-07 -1.466544e-06 -1.476916e-03) (7.993466e-08 -4.687701e-08 -3.187948e-04)) ((-1.549462e-10 -1.020823e-08 -4.335936e-12) (5.670122e-09 -8.340618e-09 7.782834e-11))
3.252369      	((-8.983086e-07 -1.547115e-06 -1.515274e-03) (1.071446e-07 -7.228345e-08 -3.075754e-04)) ((-1.190871e-10 -9.859178e-09 -2.920152e-11) (4.920293e-09 -7.697184e-09 5.620559e-11))
3.914842      	((-1.465997e-06 -1.858210e-06 -1.552608e-03) (1.793449e-07 6.350182e-09 -2.994906e-04)) ((-7.901894e-11 -9.500561e-09 -2.982120e-12) (4.476161e-09 -7.345198e-09 -6.668569e-11))
4.694806      	((-2.539463e-06 -2.418556e-06 -1.589353e-03) (1.855844e-07 1.383746e-09 -2.949944e-04)) ((-3.766594e-11 -9.160114e-09 -6.122595e-12) (5.000838e-09 -7.165983e-09 -1.369319e-10))
5.592658      	((-3.726665e-06 -3.457784e-06 -1.577026e-03) (1.535564e-07 -5.675918e-08 -2.930257e-04)) ((-3.155398e-13 -8.824861e-09 -2.338663e-12) (4.853918e-09 -5.744243e-09 -1.314403e-10))
6.608808      	((-4.964741e-06 -4.448560e-06 -1.518319e-03) (1.041957e-07 -9.181467e-08 -2.917803e-04)) ((4.234677e-11 -8.486739e-09 1.501463e-11) (3.159071e-09 -3.131039e-09 -9.310969e-11))
7.743484      	((-6.813806e-06 -6.140251e-06 -1.466558e-03) (2.176295e-08 -1.597961e-07 -2.912178e-04)) ((8.906194e-11 -8.173973e-09 1.314853e-11) (1.035092e-09 4.447272e-10 -5.492017e-11))
8.931186      	((-8.599235e-06 -7.875934e-06 -1.448390e-03) (-7.195447e-08 -2.278916e-07 -2.918676e-04)) ((1.184663e-10 -8.001103e-09 1.724599e-11) (-6.302515e-10 3.392687e-09 1.395379e-11))
10.12118      	((-1.077005e-05 -9.874093e-06 -1.454845e-03) (-1.926141e-07 -2.951442e-07 -2.933450e-04)) ((1.217660e-10 -7.945419e-09 3.944929e-11) (-2.454652e-09 6.426737e-09 4.161606e-11))
11.31273      	((-1.302240e-05 -1.202114e-05 -1.453320e-03) (-3.181715e-07 -3.701594e-07 -2.951035e-04)) ((1.212832e-10 -7.970316e-09 5.310738e-11) (-4.496770e-09 9.523064e-09 3.651655e-11))
12.505061     	((-1.490188e-05 -1.384492e-05 -1.416062e-03) (-4.563705e-07 -4.758893e-07 -2.960992e-04)) ((1.276333e-10 -7.972214e-09 4.411955e-11) (-7.690477e-09 1.362221e-08 5.502701e-11))
13.697474     	((-1.630914e-05 -1.527373e-05 -1.374042e-03) (-5.956742e-07 -6.052595e-07 -2.959566e-04)) ((1.268679e-10 -7.943037e-09 3.135150e-11) (-1.159751e-08 1.814011e-08 7.533252e-11))
14.889697     	((-1.763678e-05 -1.665084e-05 -1.344121e-03) (-7.062003e-07 -7.121936e-07 -2.953335e-04)) ((1.302514e-10 -7.905535e-09 2.977008e-11) (-1.478900e-08 2.142585e-08 9.629239e-11))
16.08187      	((-1.882628e-05 -1.785759e-05 -1.326115e-03) (-7.867216e-07 -7.944490e-07 -2.947245e-04)) ((1.431452e-10 -7.871782e-09 3.053115e-11) (-1.702467e-08 2.335732e-08 1.025263e-10))
17.274119     	((-2.036820e-05 -1.942163e-05 -1.310954e-03) (-8.578336e-07 -8.715773e-07 -2.942512e-04)) ((1.652794e-10 -7.841313e-09 3.112104e-11) (-1.892893e-08 2.482018e-08 9.710226e-11))
18.466521     	((-2.234950e-05 -2.133733e-05 -1.301982e-03) (-9.390946e-07 -9.579971e-07 -2.939500e-04)) ((1.989696e-10 -7.832949e-09 3.298554e-11) (-2.104799e-08 2.651288e-08 9.835446e-11))
19.659101     	((-2.459655e-05 -2.343883e-05 -1.296129e-03) (-1.023371e-06 -1.043109e-06 -2.938408e-04)) ((2.384702e-10 -7.837587e-09 3.530016e-11) (-2.283112e-08 2.804112e-08 9.221453e-11))
20.851851     	((-2.708097e-05 -2.571532e-05 -1.290970e-03) (-1.112871e-06 -1.132527e-06 -2.938685e-04)) ((2.752860e-10 -7.851416e-09 3.717500e-11) (-2.448945e-08 2.963718e-08 7.718168e-11))
22.044719     	((-2.987897e-05 -2.827321e-05 -1.284972e-03) (-1.217367e-06 -1.234374e-06 -2.939301e-04)) ((3.118248e-10 -7.877587e-09 3.985725e-11) (-2.642815e-08 3.152100e-08 6.676940e-11))
