# Forces      
# CofR        : (0.000000e+00 0.000000e+00 0.000000e+00)
# Time        forces(pressure viscous)	moments(pressure viscous)
0             	((0.000000e+00 0.000000e+00 0.000000e+00) (0.000000e+00 0.000000e+00 0.000000e+00)) ((0.000000e+00 0.000000e+00 0.000000e+00) (0.000000e+00 0.000000e+00 0.000000e+00))
0.012         	((4.825032e-08 1.150003e-04 1.841773e-05) (-2.326680e-10 2.639267e-04 -3.353351e-08)) ((1.754639e-08 5.024071e-11 -1.634297e-10) (1.756380e-05 -3.908143e-12 2.802754e-11))
0.0264        	((7.337324e-09 1.545601e-04 3.882052e-05) (-5.639545e-10 2.418402e-04 -1.091945e-07)) ((-6.609922e-09 1.000972e-10 -8.759102e-11) (1.611252e-05 -5.303329e-12 1.690268e-11))
0.04368       	((1.064265e-07 1.044733e-04 2.045607e-05) (-1.084069e-09 2.193378e-04 -2.586556e-07)) ((-4.145146e-09 3.835340e-12 -1.005531e-10) (1.464082e-05 2.808686e-11 6.001714e-11))
0.064416      	((-3.589107e-09 1.183135e-04 2.621422e-05) (-1.921728e-09 1.971497e-04 -4.827637e-07)) ((-9.431965e-09 -7.336139e-12 -7.772571e-11) (1.319805e-05 -1.444108e-12 1.034066e-10))
0.0892992     	((1.145022e-07 8.763259e-05 1.645103e-05) (-2.149011e-09 1.761093e-04 -7.681725e-07)) ((-6.162311e-09 -6.789024e-11 -5.212021e-11) (1.183955e-05 -5.419638e-11 9.736105e-11))
0.119159      	((5.674289e-08 9.011491e-05 1.747084e-05) (-2.932545e-09 1.569828e-04 -1.087791e-06)) ((-7.965074e-09 -7.232787e-11 -3.668603e-11) (1.061367e-05 -1.642900e-10 1.066978e-10))
0.154991      	((1.113460e-07 7.050237e-05 1.135190e-05) (-3.322660e-09 1.402239e-04 -1.450138e-06)) ((-5.690779e-09 -1.271207e-10 -3.223023e-11) (9.541242e-06 -2.753160e-10 1.547423e-10))
0.197989      	((7.508400e-08 6.970561e-05 1.062497e-05) (-3.551105e-09 1.257703e-04 -1.874071e-06)) ((-6.846889e-09 -1.294454e-10 -6.028911e-11) (8.614571e-06 -3.947265e-10 1.772176e-10))
0.249587      	((9.742693e-08 5.785528e-05 6.860310e-06) (-4.761001e-09 1.131245e-04 -2.397103e-06)) ((-5.509053e-09 -1.734877e-10 -6.714275e-11) (7.793440e-06 -5.392915e-10 1.794963e-10))
0.311504      	((7.856582e-08 5.559538e-05 5.307556e-06) (-5.391787e-09 1.015140e-04 -2.959301e-06)) ((-6.042180e-09 -1.603351e-10 -6.502862e-11) (7.030579e-06 -6.897385e-10 1.570574e-10))
0.385805      	((8.545388e-08 4.750038e-05 2.374503e-06) (-7.040822e-09 9.072911e-05 -3.528432e-06)) ((-5.360787e-09 -1.727549e-10 -6.142080e-11) (6.317933e-06 -7.162998e-10 8.623251e-11))
0.474966      	((7.624746e-08 4.443117e-05 4.452355e-07) (-7.570580e-09 8.093280e-05 -4.025400e-06)) ((-5.474483e-09 -1.861894e-10 -5.833133e-11) (5.670821e-06 -7.275490e-10 1.879235e-11))
0.581959      	((7.364735e-08 3.898023e-05 -1.911746e-06) (-5.628876e-09 7.221549e-05 -4.444759e-06)) ((-5.085294e-09 -1.886870e-10 -5.242876e-11) (5.097833e-06 -8.075026e-10 2.156596e-11))
0.710351      	((7.239545e-08 3.618475e-05 -3.966659e-06) (-3.051025e-09 6.456501e-05 -4.796101e-06)) ((-5.105237e-09 -2.147950e-10 -5.272228e-11) (4.597830e-06 -9.197327e-10 5.420746e-11))
0.864421      	((9.082925e-08 3.237726e-05 -6.144149e-06) (-1.355192e-09 5.786457e-05 -5.108500e-06)) ((-4.935391e-09 -2.093854e-10 -5.016959e-11) (4.163194e-06 -1.030968e-09 9.737140e-11))
1.049306      	((7.690440e-08 3.001199e-05 -8.158192e-06) (-7.192962e-10 5.197745e-05 -5.406052e-06)) ((-4.900423e-09 -2.367731e-10 -4.567296e-11) (3.784749e-06 -1.162828e-09 1.737171e-10))
1.271167      	((8.690476e-08 2.721636e-05 -1.022825e-05) (-1.098686e-10 4.679806e-05 -5.717051e-06)) ((-4.721901e-09 -2.431924e-10 -3.645977e-11) (3.454988e-06 -1.300389e-09 2.517548e-10))
1.5374        	((6.250402e-08 2.542628e-05 -1.225608e-05) (-1.337866e-09 4.226700e-05 -6.040869e-06)) ((-4.671218e-09 -2.684098e-10 -3.583237e-11) (3.169212e-06 -1.428025e-09 3.258227e-10))
1.85688       	((6.959692e-08 2.350199e-05 -1.437835e-05) (-1.431514e-09 3.833526e-05 -6.374148e-06)) ((-4.585341e-09 -2.814074e-10 -3.675961e-11) (2.923479e-06 -1.569958e-09 3.405488e-10))
2.240256      	((6.585125e-08 2.232385e-05 -1.649051e-05) (7.435855e-10 3.496123e-05 -6.718769e-06)) ((-4.614759e-09 -3.054170e-10 -3.728464e-11) (2.714337e-06 -1.671440e-09 2.841693e-10))
2.700307      	((7.459236e-08 2.148356e-05 -1.858810e-05) (1.821312e-09 3.208747e-05 -7.093877e-06)) ((-4.639270e-09 -3.177417e-10 -3.654290e-11) (2.537041e-06 -1.712457e-09 2.534825e-10))
3.252369      	((6.285512e-08 2.113869e-05 -2.082732e-05) (2.373959e-09 2.963946e-05 -7.506639e-06)) ((-4.732783e-09 -3.361450e-10 -3.786569e-11) (2.386040e-06 -1.783461e-09 2.634352e-10))
3.914842      	((6.171870e-08 2.093145e-05 -2.314663e-05) (1.275937e-09 2.753416e-05 -7.969598e-06)) ((-4.827257e-09 -3.556942e-10 -3.884938e-11) (2.256431e-06 -1.870441e-09 2.720060e-10))
4.709811      	((6.202077e-08 2.110772e-05 -2.554528e-05) (2.420589e-09 2.571515e-05 -8.457282e-06)) ((-4.945535e-09 -3.755597e-10 -3.907133e-11) (2.144651e-06 -1.924421e-09 2.115884e-10))
5.663773      	((6.194020e-08 2.141144e-05 -2.796258e-05) (3.334787e-09 2.413920e-05 -8.975214e-06)) ((-5.048587e-09 -3.924354e-10 -3.990645e-11) (2.048408e-06 -1.988969e-09 9.786722e-11))
6.808528      	((6.967881e-08 2.191824e-05 -3.039510e-05) (5.540494e-09 2.279023e-05 -9.515732e-06)) ((-5.154456e-09 -4.109798e-10 -4.034813e-11) (1.965807e-06 -2.041950e-09 -8.413116e-12))
8.182233      	((7.250784e-08 2.258020e-05 -3.278338e-05) (5.117078e-09 2.166010e-05 -1.007436e-05)) ((-5.255595e-09 -4.267552e-10 -3.927593e-11) (1.895209e-06 -2.068171e-09 -8.373381e-11))
9.794939      	((7.385887e-08 2.346350e-05 -3.522583e-05) (4.632582e-09 2.074873e-05 -1.062938e-05)) ((-5.360445e-09 -4.414737e-10 -3.924405e-11) (1.836168e-06 -2.100517e-09 -1.416777e-10))
11.645352     	((7.792640e-08 2.451525e-05 -3.752437e-05) (4.705569e-09 2.004877e-05 -1.116970e-05)) ((-5.456192e-09 -4.541579e-10 -3.993007e-11) (1.787882e-06 -2.104283e-09 -1.752878e-10))
13.732672     	((8.414833e-08 2.565039e-05 -3.963335e-05) (3.708334e-09 1.955166e-05 -1.168338e-05)) ((-5.552523e-09 -4.663367e-10 -3.975200e-11) (1.749262e-06 -2.059805e-09 -1.790537e-10))
16.056381     	((8.781150e-08 2.688814e-05 -4.140048e-05) (2.772981e-09 1.924071e-05 -1.213887e-05)) ((-5.650024e-09 -4.759561e-10 -4.028907e-11) (1.719369e-06 -1.981122e-09 -1.997081e-10))
18.417186     	((9.569591e-08 2.803907e-05 -4.288564e-05) (2.222620e-09 1.908452e-05 -1.248636e-05)) ((-5.746380e-09 -4.830243e-10 -4.109996e-11) (1.698051e-06 -1.908555e-09 -2.258111e-10))
20.776629     	((1.016778e-07 2.904025e-05 -4.385118e-05) (1.828494e-09 1.902655e-05 -1.273493e-05)) ((-5.829449e-09 -4.869462e-10 -4.193631e-11) (1.683328e-06 -1.851405e-09 -2.328779e-10))
23.136765     	((1.124456e-07 2.989421e-05 -4.450708e-05) (1.578621e-09 1.902547e-05 -1.289990e-05)) ((-5.898510e-09 -4.885935e-10 -4.272752e-11) (1.673722e-06 -1.844988e-09 -2.153932e-10))
25.498536     	((1.218474e-07 3.062827e-05 -4.492919e-05) (1.041278e-09 1.905232e-05 -1.299570e-05)) ((-5.957767e-09 -4.883469e-10 -4.374478e-11) (1.667888e-06 -1.855446e-09 -1.705385e-10))
27.842258     	((1.307018e-07 3.120035e-05 -4.528838e-05) (5.709788e-10 1.908710e-05 -1.303769e-05)) ((-6.008686e-09 -4.870081e-10 -4.441566e-11) (1.664865e-06 -1.876572e-09 -1.140170e-10))
30.158559     	((1.407005e-07 3.158068e-05 -4.552286e-05) (1.911137e-10 1.911800e-05 -1.304509e-05)) ((-6.046647e-09 -4.847464e-10 -4.485939e-11) (1.663618e-06 -1.922965e-09 -5.759769e-11))
32.449496     	((1.553489e-07 3.180851e-05 -4.568497e-05) (9.867584e-11 1.914010e-05 -1.303631e-05)) ((-6.072329e-09 -4.824640e-10 -4.540023e-11) (1.663322e-06 -1.990359e-09 -2.154253e-11))
34.720466     	((1.739571e-07 3.192578e-05 -4.578395e-05) (4.581351e-10 1.915370e-05 -1.302139e-05)) ((-6.088146e-09 -4.804418e-10 -4.607735e-11) (1.663425e-06 -2.083641e-09 -2.166535e-11))
36.977611     	((1.959467e-07 3.197607e-05 -4.587047e-05) (1.067735e-09 1.916126e-05 -1.300257e-05)) ((-6.094094e-09 -4.790626e-10 -4.661562e-11) (1.663767e-06 -2.191905e-09 -6.355076e-11))
39.225942     	((2.188512e-07 3.197316e-05 -4.594883e-05) (1.878746e-09 1.916439e-05 -1.298103e-05)) ((-6.092997e-09 -4.782087e-10 -4.708155e-11) (1.664245e-06 -2.297655e-09 -1.435160e-10))
41.469389     	((2.323296e-07 3.196281e-05 -4.602876e-05) (2.557281e-09 1.916533e-05 -1.295737e-05)) ((-6.089858e-09 -4.780163e-10 -4.749680e-11) (1.664806e-06 -2.373637e-09 -2.462389e-10))
43.710551     	((2.411706e-07 3.193031e-05 -4.610600e-05) (2.937488e-09 1.916468e-05 -1.293155e-05)) ((-6.086318e-09 -4.780908e-10 -4.820381e-11) (1.665479e-06 -2.391072e-09 -3.514812e-10))
45.951003     	((2.519412e-07 3.189093e-05 -4.619752e-05) (3.107167e-09 1.916260e-05 -1.290636e-05)) ((-6.084381e-09 -4.783352e-10 -4.910488e-11) (1.666100e-06 -2.368201e-09 -4.385806e-10))
48.191237     	((2.590398e-07 3.185753e-05 -4.627025e-05) (3.064537e-09 1.916000e-05 -1.288329e-05)) ((-6.083246e-09 -4.787524e-10 -4.992100e-11) (1.666613e-06 -2.318872e-09 -4.920202e-10))
50.431395     	((2.692123e-07 3.182027e-05 -4.633996e-05) (2.815013e-09 1.915739e-05 -1.286305e-05)) ((-6.078060e-09 -4.788943e-10 -5.011898e-11) (1.667005e-06 -2.260288e-09 -4.899622e-10))
52.671302     	((2.779131e-07 3.177937e-05 -4.640106e-05) (2.890856e-09 1.915493e-05 -1.284868e-05)) ((-6.073688e-09 -4.788745e-10 -4.947125e-11) (1.667143e-06 -2.212037e-09 -4.461524e-10))
54.91076      	((2.773858e-07 3.173587e-05 -4.644979e-05) (2.798571e-09 1.915233e-05 -1.283913e-05)) ((-6.072587e-09 -4.792050e-10 -4.921181e-11) (1.667063e-06 -2.177941e-09 -3.674977e-10))
57.149728     	((2.770371e-07 3.168569e-05 -4.648660e-05) (2.245444e-09 1.914958e-05 -1.283236e-05)) ((-6.070751e-09 -4.795813e-10 -4.903611e-11) (1.666851e-06 -2.154503e-09 -2.712187e-10))
59.388295     	((2.754976e-07 3.163716e-05 -4.650010e-05) (1.721153e-09 1.914666e-05 -1.282631e-05)) ((-6.068271e-09 -4.800989e-10 -4.881197e-11) (1.666610e-06 -2.143706e-09 -1.736903e-10))
61.626637     	((2.748977e-07 3.159525e-05 -4.649695e-05) (1.290082e-09 1.914412e-05 -1.281944e-05)) ((-6.064490e-09 -4.808383e-10 -4.854241e-11) (1.666399e-06 -2.137891e-09 -8.510941e-11))
63.864936     	((2.832228e-07 3.155548e-05 -4.648325e-05) (1.239803e-09 1.914228e-05 -1.281180e-05)) ((-6.060695e-09 -4.814072e-10 -4.822412e-11) (1.666223e-06 -2.144280e-09 -1.225427e-11))
66.103326     	((2.957865e-07 3.151072e-05 -4.645999e-05) (1.683607e-09 1.914054e-05 -1.280452e-05)) ((-6.056919e-09 -4.817946e-10 -4.786542e-11) (1.666048e-06 -2.169566e-09 4.448276e-11))
68.341849     	((3.048237e-07 3.147060e-05 -4.642931e-05) (2.592228e-09 1.913845e-05 -1.279818e-05)) ((-6.053924e-09 -4.820764e-10 -4.764355e-11) (1.665875e-06 -2.211324e-09 8.620018e-11))
70.580452     	((3.063090e-07 3.144115e-05 -4.639658e-05) (3.601454e-09 1.913631e-05 -1.279242e-05)) ((-6.051325e-09 -4.825024e-10 -4.758001e-11) (1.665718e-06 -2.260114e-09 1.167355e-10))
72.818995     	((3.014243e-07 3.141697e-05 -4.636381e-05) (4.364702e-09 1.913473e-05 -1.278685e-05)) ((-6.049208e-09 -4.830501e-10 -4.757178e-11) (1.665588e-06 -2.298851e-09 1.392174e-10))
75.05732      	((2.929557e-07 3.139254e-05 -4.633677e-05) (4.947910e-09 1.913354e-05 -1.278167e-05)) ((-6.047517e-09 -4.835386e-10 -4.764970e-11) (1.665490e-06 -2.322644e-09 1.575294e-10))
77.295284     	((2.764346e-07 3.137175e-05 -4.631017e-05) (5.118271e-09 1.913259e-05 -1.277697e-05)) ((-6.046095e-09 -4.842926e-10 -4.774597e-11) (1.665426e-06 -2.320725e-09 1.771577e-10))
79.532795     	((2.554587e-07 3.135247e-05 -4.628895e-05) (4.831409e-09 1.913202e-05 -1.277248e-05)) ((-6.044820e-09 -4.852033e-10 -4.783726e-11) (1.665387e-06 -2.289856e-09 2.051624e-10))
81.769851     	((2.379631e-07 3.134033e-05 -4.627894e-05) (4.417025e-09 1.913214e-05 -1.276826e-05)) ((-6.043920e-09 -4.860064e-10 -4.798845e-11) (1.665368e-06 -2.245480e-09 2.472540e-10))
84.006526     	((2.180559e-07 3.133159e-05 -4.628385e-05) (3.965895e-09 1.913312e-05 -1.276436e-05)) ((-6.043266e-09 -4.869106e-10 -4.812373e-11) (1.665372e-06 -2.193937e-09 3.018365e-10))
86.242937     	((1.971452e-07 3.132611e-05 -4.629165e-05) (3.303025e-09 1.913492e-05 -1.276071e-05)) ((-6.042851e-09 -4.878624e-10 -4.824876e-11) (1.665400e-06 -2.136396e-09 3.639142e-10))
88.479204     	((1.802371e-07 3.132120e-05 -4.630846e-05) (2.502443e-09 1.913735e-05 -1.275718e-05)) ((-6.042516e-09 -4.888043e-10 -4.836487e-11) (1.665446e-06 -2.081916e-09 4.269664e-10))
90.715384     	((1.659154e-07 3.131591e-05 -4.632639e-05) (1.632360e-09 1.914020e-05 -1.275387e-05)) ((-6.042124e-09 -4.896074e-10 -4.848198e-11) (1.665504e-06 -2.035994e-09 4.838112e-10))
92.951488     	((1.565869e-07 3.131093e-05 -4.635550e-05) (8.435650e-10 1.914329e-05 -1.275067e-05)) ((-6.041709e-09 -4.902197e-10 -4.859782e-11) (1.665566e-06 -2.005026e-09 5.288492e-10))
95.187506     	((1.501304e-07 3.130901e-05 -4.639462e-05) (2.573371e-10 1.914653e-05 -1.274776e-05)) ((-6.041452e-09 -4.906003e-10 -4.869799e-11) (1.665635e-06 -1.995406e-09 5.591100e-10))
