# Forces      
# CofR        : (0.000000e+00 0.000000e+00 0.000000e+00)
# Time        forces(pressure viscous)	moments(pressure viscous)
0             	((0.000000e+00 0.000000e+00 0.000000e+00) (-6.834965e-12 -1.253971e-02 1.080730e-12)) ((0.000000e+00 0.000000e+00 0.000000e+00) (-2.817530e-04 -3.445364e-14 5.407158e-09))
0.012         	((2.226837e-04 -3.706236e+00 5.550392e-01) (6.318240e-07 -2.043995e-02 -1.613199e-03)) ((4.312846e-05 3.017374e-06 6.887553e-07) (-6.408834e-04 2.347753e-08 -5.687499e-08))
0.0264        	((4.597101e-05 1.335928e+00 -6.296450e-01) (1.641181e-06 -1.979144e-02 -2.382142e-03)) ((-1.580000e-05 -7.189327e-07 -1.699867e-07) (-6.907723e-04 3.591323e-09 -8.204907e-08))
0.04368       	((-3.089394e-04 -7.220892e-04 -3.310806e-01) (-9.932864e-07 -1.613991e-02 -2.117820e-03)) ((-2.334786e-06 7.885693e-08 -1.228968e-07) (-5.735061e-04 -6.344539e-09 -1.043642e-07))
0.064416      	((-2.038926e-04 4.938887e-02 -3.192127e-01) (-8.214316e-06 -1.435760e-02 -2.085407e-03)) ((-8.357875e-07 1.396607e-07 3.406737e-08) (-5.151351e-04 2.261281e-08 -1.673771e-07))
0.0892992     	((-1.736788e-04 -3.046352e-02 -2.810564e-01) (-4.853751e-06 -1.322391e-02 -2.029676e-03)) ((-4.375457e-07 1.961905e-07 1.207701e-08) (-4.740144e-04 3.366988e-08 -2.487339e-07))
0.119159      	((4.446060e-06 -6.757962e-03 -2.828945e-01) (-2.192266e-06 -1.250245e-02 -1.977657e-03)) ((-3.968703e-07 2.193663e-07 4.982462e-08) (-4.491563e-04 2.664621e-08 -3.141158e-07))
0.154991      	((-9.657268e-05 -1.670601e-02 -2.721688e-01) (-6.426953e-06 -1.199306e-02 -2.036861e-03)) ((-2.072647e-07 1.906918e-07 2.180860e-08) (-4.308824e-04 2.469479e-08 -3.182548e-07))
0.197442      	((-1.586017e-04 -1.448341e-02 -2.746271e-01) (-8.823418e-06 -1.160433e-02 -2.170853e-03)) ((-3.819061e-08 1.890305e-07 7.045388e-08) (-4.162541e-04 3.963746e-08 -3.042880e-07))
0.246498      	((-4.706557e-05 -1.802385e-02 -2.699627e-01) (-8.581300e-06 -1.129857e-02 -2.310724e-03)) ((1.554445e-07 2.019332e-07 6.172130e-08) (-4.039938e-04 3.469670e-08 -3.265341e-07))
0.302156      	((-5.928962e-05 -1.968822e-02 -2.702322e-01) (-7.864542e-06 -1.105862e-02 -2.458290e-03)) ((3.474597e-07 1.993751e-07 9.006328e-08) (-3.941048e-04 2.691956e-08 -3.384626e-07))
0.364421      	((1.595400e-05 -2.298224e-02 -2.675257e-01) (-6.245408e-06 -1.087960e-02 -2.599179e-03)) ((5.353458e-07 2.249127e-07 1.062242e-07) (-3.864926e-04 9.659819e-09 -3.345603e-07))
0.43049       	((5.934544e-05 -2.569949e-02 -2.665114e-01) (-4.639978e-06 -1.075206e-02 -2.727851e-03)) ((7.124242e-07 2.446427e-07 1.301852e-07) (-3.807055e-04 -1.399764e-08 -3.648317e-07))
0.496176      	((1.319478e-04 -2.887215e-02 -2.639583e-01) (-3.374271e-06 -1.065864e-02 -2.829754e-03)) ((8.472244e-07 2.626077e-07 1.511853e-07) (-3.760611e-04 -3.997022e-08 -3.911490e-07))
0.56142       	((1.713496e-04 -3.165445e-02 -2.616673e-01) (-2.526818e-06 -1.057652e-02 -2.906332e-03)) ((9.825075e-07 2.783063e-07 1.743000e-07) (-3.717400e-04 -6.028032e-08 -4.244791e-07))
0.626316      	((2.206853e-04 -3.426706e-02 -2.585272e-01) (-2.023440e-06 -1.048818e-02 -2.961975e-03)) ((1.113758e-06 2.819101e-07 1.950041e-07) (-3.673291e-04 -7.166744e-08 -4.512444e-07))
0.691079      	((2.731706e-04 -3.639029e-02 -2.554146e-01) (-1.503934e-06 -1.038838e-02 -3.002540e-03)) ((1.240405e-06 2.863867e-07 2.144349e-07) (-3.628862e-04 -8.076585e-08 -4.738264e-07))
0.755933      	((3.276219e-04 -3.786060e-02 -2.519580e-01) (-1.079959e-06 -1.028504e-02 -3.032876e-03)) ((1.347160e-06 2.885844e-07 2.309946e-07) (-3.587201e-04 -8.957788e-08 -4.976993e-07))
0.820976      	((3.959115e-04 -3.879501e-02 -2.487329e-01) (-2.333620e-07 -1.018689e-02 -3.056853e-03)) ((1.430015e-06 2.880134e-07 2.472835e-07) (-3.549996e-04 -9.906259e-08 -5.212572e-07))
0.886175      	((4.835446e-04 -3.922229e-02 -2.456518e-01) (1.052173e-06 -1.009734e-02 -3.076392e-03)) ((1.485113e-06 2.888737e-07 2.593015e-07) (-3.517018e-04 -1.123783e-07 -5.496187e-07))
0.95145       	((5.868212e-04 -3.916963e-02 -2.426870e-01) (2.306534e-06 -1.001525e-02 -3.092214e-03)) ((1.526275e-06 2.895111e-07 2.697962e-07) (-3.487320e-04 -1.268868e-07 -5.964511e-07))
1.016765      	((6.913950e-04 -3.882208e-02 -2.398146e-01) (3.108210e-06 -9.940013e-03 -3.104438e-03)) ((1.548618e-06 2.913322e-07 2.781191e-07) (-3.460806e-04 -1.422176e-07 -6.664602e-07))
1.082132      	((8.264057e-04 -3.838571e-02 -2.371469e-01) (3.661513e-06 -9.871073e-03 -3.112910e-03)) ((1.548995e-06 2.915223e-07 2.837592e-07) (-3.437472e-04 -1.609431e-07 -7.521571e-07))
1.147569      	((9.802273e-04 -3.799342e-02 -2.347743e-01) (4.333309e-06 -9.807781e-03 -3.120197e-03)) ((1.531780e-06 2.916912e-07 2.865302e-07) (-3.416300e-04 -1.896019e-07 -8.494220e-07))
1.213073      	((1.161420e-03 -3.766699e-02 -2.326823e-01) (4.964513e-06 -9.749881e-03 -3.128140e-03)) ((1.512405e-06 2.928235e-07 2.872376e-07) (-3.396392e-04 -2.333540e-07 -9.625245e-07))
1.27863       	((1.381043e-03 -3.742781e-02 -2.307558e-01) (5.561585e-06 -9.697145e-03 -3.135918e-03)) ((1.504454e-06 2.974739e-07 2.872190e-07) (-3.377995e-04 -2.892214e-07 -1.087243e-06))
1.344236      	((1.604108e-03 -3.715533e-02 -2.288720e-01) (6.299048e-06 -9.648899e-03 -3.142569e-03)) ((1.503204e-06 3.033444e-07 2.872997e-07) (-3.361446e-04 -3.556012e-07 -1.221850e-06))
1.409887      	((1.866809e-03 -3.693012e-02 -2.271188e-01) (7.441265e-06 -9.604302e-03 -3.148407e-03)) ((1.507139e-06 3.092852e-07 2.884672e-07) (-3.346419e-04 -4.358801e-07 -1.366929e-06))
1.475582      	((2.179849e-03 -3.674547e-02 -2.254722e-01) (9.016422e-06 -9.563049e-03 -3.154123e-03)) ((1.509764e-06 3.149269e-07 2.903279e-07) (-3.332489e-04 -5.288985e-07 -1.518699e-06))
1.541315      	((2.510437e-03 -3.656450e-02 -2.239189e-01) (1.080799e-05 -9.524851e-03 -3.159728e-03)) ((1.511578e-06 3.194789e-07 2.927074e-07) (-3.319460e-04 -6.327477e-07 -1.677515e-06))
1.607083      	((2.885674e-03 -3.639261e-02 -2.224678e-01) (1.290445e-05 -9.489684e-03 -3.164433e-03)) ((1.512187e-06 3.246313e-07 2.949827e-07) (-3.307606e-04 -7.511624e-07 -1.843923e-06))
1.672882      	((3.294529e-03 -3.624581e-02 -2.211123e-01) (1.531824e-05 -9.457877e-03 -3.167680e-03)) ((1.512146e-06 3.314228e-07 2.970576e-07) (-3.297269e-04 -8.884892e-07 -2.019630e-06))
1.738709      	((3.747527e-03 -3.611222e-02 -2.198658e-01) (1.796784e-05 -9.429371e-03 -3.169179e-03)) ((1.511498e-06 3.380782e-07 2.986594e-07) (-3.288511e-04 -1.043582e-06 -2.211943e-06))
1.804561      	((4.273593e-03 -3.594289e-02 -2.186808e-01) (2.122793e-05 -9.403710e-03 -3.169200e-03)) ((1.508590e-06 3.455229e-07 3.001844e-07) (-3.281114e-04 -1.220976e-06 -2.411553e-06))
1.870435      	((4.915052e-03 -3.572462e-02 -2.175421e-01) (2.546091e-05 -9.380442e-03 -3.168394e-03)) ((1.502442e-06 3.552950e-07 3.013693e-07) (-3.274733e-04 -1.432951e-06 -2.616747e-06))
1.936326      	((5.630450e-03 -3.552336e-02 -2.165160e-01) (3.069787e-05 -9.359450e-03 -3.167339e-03)) ((1.494273e-06 3.664810e-07 3.024805e-07) (-3.269137e-04 -1.683641e-06 -2.830427e-06))
2.002232      	((6.422746e-03 -3.532138e-02 -2.155819e-01) (3.657892e-05 -9.340576e-03 -3.166562e-03)) ((1.483408e-06 3.792288e-07 3.032730e-07) (-3.264118e-04 -1.972496e-06 -3.072495e-06))
2.068147      	((7.327858e-03 -3.512715e-02 -2.147608e-01) (4.294823e-05 -9.323522e-03 -3.166600e-03)) ((1.470548e-06 3.938287e-07 3.041761e-07) (-3.259433e-04 -2.304642e-06 -3.359684e-06))
2.134067      	((8.372598e-03 -3.493788e-02 -2.140091e-01) (5.007649e-05 -9.308057e-03 -3.167453e-03)) ((1.458059e-06 4.101946e-07 3.054111e-07) (-3.255038e-04 -2.688097e-06 -3.691736e-06))
2.199989      	((9.560018e-03 -3.479446e-02 -2.133479e-01) (5.813690e-05 -9.294160e-03 -3.168616e-03)) ((1.448302e-06 4.265819e-07 3.071626e-07) (-3.251098e-04 -3.121040e-06 -4.072072e-06))
2.265906      	((1.090473e-02 -3.469830e-02 -2.127584e-01) (6.729027e-05 -9.281753e-03 -3.169747e-03)) ((1.441006e-06 4.440565e-07 3.094038e-07) (-3.247691e-04 -3.604861e-06 -4.508281e-06))
2.331813      	((1.244759e-02 -3.464932e-02 -2.122275e-01) (7.774595e-05 -9.270891e-03 -3.170641e-03)) ((1.434711e-06 4.639274e-07 3.122923e-07) (-3.244872e-04 -4.149200e-06 -5.009515e-06))
2.397704      	((1.419809e-02 -3.466224e-02 -2.117784e-01) (8.972306e-05 -9.261673e-03 -3.171055e-03)) ((1.429151e-06 4.871171e-07 3.153469e-07) (-3.242735e-04 -4.763190e-06 -5.582117e-06))
2.463574      	((1.620632e-02 -3.473241e-02 -2.113870e-01) (1.035165e-04 -9.254054e-03 -3.170786e-03)) ((1.424753e-06 5.147026e-07 3.185645e-07) (-3.241344e-04 -5.462105e-06 -6.235939e-06))
2.529415      	((1.847048e-02 -3.489334e-02 -2.110781e-01) (1.192753e-04 -9.248199e-03 -3.169774e-03)) ((1.421867e-06 5.461364e-07 3.217899e-07) (-3.240776e-04 -6.259746e-06 -6.983329e-06))
2.59522       	((2.101135e-02 -3.515995e-02 -2.108771e-01) (1.369781e-04 -9.244712e-03 -3.167733e-03)) ((1.421708e-06 5.814293e-07 3.245503e-07) (-3.241278e-04 -7.165802e-06 -7.831742e-06))
2.660981      	((2.384094e-02 -3.548484e-02 -2.107660e-01) (1.568229e-04 -9.244076e-03 -3.164518e-03)) ((1.421231e-06 6.215360e-07 3.271285e-07) (-3.243077e-04 -8.188734e-06 -8.779275e-06))
2.726692      	((2.699836e-02 -3.586377e-02 -2.107109e-01) (1.793717e-04 -9.246524e-03 -3.160102e-03)) ((1.420176e-06 6.678074e-07 3.294422e-07) (-3.246313e-04 -9.344182e-06 -9.823698e-06))
2.792344      	((3.042986e-02 -3.636671e-02 -2.107484e-01) (2.052357e-04 -9.252370e-03 -3.154314e-03)) ((1.421581e-06 7.169713e-07 3.330659e-07) (-3.251133e-04 -1.064782e-05 -1.094574e-05))
2.857929      	((3.415475e-02 -3.703450e-02 -2.108984e-01) (2.350359e-04 -9.261873e-03 -3.146663e-03)) ((1.423866e-06 7.718213e-07 3.375878e-07) (-3.257721e-04 -1.210900e-05 -1.212687e-05))
2.923437      	((3.813556e-02 -3.791836e-02 -2.112188e-01) (2.693345e-04 -9.275502e-03 -3.137399e-03)) ((1.427561e-06 8.310573e-07 3.427651e-07) (-3.266154e-04 -1.374290e-05 -1.334640e-05))
2.988861      	((4.241104e-02 -3.903811e-02 -2.116437e-01) (3.080576e-04 -9.293681e-03 -3.126534e-03)) ((1.433816e-06 8.963908e-07 3.470649e-07) (-3.276710e-04 -1.555681e-05 -1.462207e-05))
3.054191      	((4.694892e-02 -4.046266e-02 -2.122417e-01) (3.504838e-04 -9.316840e-03 -3.113654e-03)) ((1.441070e-06 9.650955e-07 3.492170e-07) (-3.289609e-04 -1.754514e-05 -1.600991e-05))
3.119421      	((5.163659e-02 -4.216775e-02 -2.130458e-01) (3.955359e-04 -9.345450e-03 -3.098482e-03)) ((1.444605e-06 1.034311e-06 3.509862e-07) (-3.304944e-04 -1.968041e-05 -1.751252e-05))
3.184541      	((5.638368e-02 -4.419044e-02 -2.139858e-01) (4.426490e-04 -9.380515e-03 -3.080629e-03)) ((1.449237e-06 1.102880e-06 3.556465e-07) (-3.323095e-04 -2.193279e-05 -1.909762e-05))
3.249529      	((6.097114e-02 -4.658203e-02 -2.152169e-01) (4.915142e-04 -9.423018e-03 -3.060152e-03)) ((1.458409e-06 1.163077e-06 3.635079e-07) (-3.344356e-04 -2.426762e-05 -2.073764e-05))
3.314367      	((6.520915e-02 -4.920349e-02 -2.166987e-01) (5.415281e-04 -9.472318e-03 -3.037663e-03)) ((1.471251e-06 1.211643e-06 3.722086e-07) (-3.368446e-04 -2.663452e-05 -2.238855e-05))
3.379054      	((6.888946e-02 -5.198497e-02 -2.184135e-01) (5.917667e-04 -9.527581e-03 -3.013423e-03)) ((1.487253e-06 1.245374e-06 3.804300e-07) (-3.394980e-04 -2.897987e-05 -2.400711e-05))
3.443589      	((7.176835e-02 -5.479935e-02 -2.203040e-01) (6.397513e-04 -9.588504e-03 -2.987260e-03)) ((1.503084e-06 1.260484e-06 3.884517e-07) (-3.423702e-04 -3.120585e-05 -2.555824e-05))
3.507975      	((7.357210e-02 -5.741055e-02 -2.223536e-01) (6.815010e-04 -9.653851e-03 -2.958619e-03)) ((1.518227e-06 1.252476e-06 3.962896e-07) (-3.454243e-04 -3.317701e-05 -2.704152e-05))
3.572217      	((7.421403e-02 -5.955240e-02 -2.243483e-01) (7.135282e-04 -9.721719e-03 -2.927628e-03)) ((1.532957e-06 1.225160e-06 4.035564e-07) (-3.485695e-04 -3.478743e-05 -2.844641e-05))
3.636333      	((7.360101e-02 -6.104079e-02 -2.262722e-01) (7.344286e-04 -9.788720e-03 -2.895607e-03)) ((1.539826e-06 1.177026e-06 4.073761e-07) (-3.516724e-04 -3.595118e-05 -2.969592e-05))
3.700343      	((7.157529e-02 -6.170730e-02 -2.280936e-01) (7.428758e-04 -9.850902e-03 -2.865217e-03)) ((1.538478e-06 1.108278e-06 4.105604e-07) (-3.545344e-04 -3.657515e-05 -3.068731e-05))
3.764267      	((6.828835e-02 -6.160870e-02 -2.297740e-01) (7.366900e-04 -9.906276e-03 -2.838167e-03)) ((1.533348e-06 1.022299e-06 4.148312e-07) (-3.570233e-04 -3.657595e-05 -3.138500e-05))
3.82813       	((6.391544e-02 -6.073753e-02 -2.312324e-01) (7.135417e-04 -9.953350e-03 -2.813803e-03)) ((1.531237e-06 9.134689e-07 4.102645e-07) (-3.591274e-04 -3.588198e-05 -3.184497e-05))
3.89196       	((5.897143e-02 -5.935001e-02 -2.325819e-01) (6.733708e-04 -9.992417e-03 -2.791255e-03)) ((1.531415e-06 7.919382e-07 3.964880e-07) (-3.609120e-04 -3.449663e-05 -3.210060e-05))
3.955785      	((5.401420e-02 -5.776050e-02 -2.338571e-01) (6.195347e-04 -1.002476e-02 -2.770899e-03)) ((1.538424e-06 6.816962e-07 3.819144e-07) (-3.624524e-04 -3.253666e-05 -3.215801e-05))
4.019633      	((4.962040e-02 -5.600956e-02 -2.351314e-01) (5.578425e-04 -1.005202e-02 -2.754136e-03)) ((1.542588e-06 6.028973e-07 3.718110e-07) (-3.638053e-04 -3.022066e-05 -3.198477e-05))
4.083526      	((4.597632e-02 -5.422771e-02 -2.365604e-01) (4.947498e-04 -1.007525e-02 -2.741662e-03)) ((1.535431e-06 5.532931e-07 3.631942e-07) (-3.650228e-04 -2.777738e-05 -3.158430e-05))
4.14748       	((4.368300e-02 -5.241518e-02 -2.379159e-01) (4.378535e-04 -1.009620e-02 -2.735398e-03)) ((1.499344e-06 5.493191e-07 3.571036e-07) (-3.660829e-04 -2.546580e-05 -3.094356e-05))
4.211506      	((4.237304e-02 -5.063600e-02 -2.392855e-01) (3.933660e-04 -1.011515e-02 -2.738379e-03)) ((1.436755e-06 5.772037e-07 3.533228e-07) (-3.668578e-04 -2.352277e-05 -3.004827e-05))
4.275606      	((4.166451e-02 -4.899159e-02 -2.407585e-01) (3.635554e-04 -1.013100e-02 -2.753368e-03)) ((1.353498e-06 6.284802e-07 3.499383e-07) (-3.671814e-04 -2.210637e-05 -2.894148e-05))
4.339778      	((4.137617e-02 -4.725970e-02 -2.421014e-01) (3.489479e-04 -1.014109e-02 -2.781786e-03)) ((1.270159e-06 6.933252e-07 3.386001e-07) (-3.669024e-04 -2.128733e-05 -2.766992e-05))
4.404014      	((4.121093e-02 -4.564416e-02 -2.433085e-01) (3.429401e-04 -1.014205e-02 -2.819529e-03)) ((1.201790e-06 7.602744e-07 3.207577e-07) (-3.660745e-04 -2.092116e-05 -2.652561e-05))
4.468306      	((4.092295e-02 -4.422635e-02 -2.440969e-01) (3.366246e-04 -1.013350e-02 -2.857909e-03)) ((1.140732e-06 8.175470e-07 3.080229e-07) (-3.649642e-04 -2.073034e-05 -2.579167e-05))
4.532642      	((4.055460e-02 -4.337001e-02 -2.444398e-01) (3.278433e-04 -1.011788e-02 -2.889652e-03)) ((1.103864e-06 8.425065e-07 3.091437e-07) (-3.638261e-04 -2.054416e-05 -2.547042e-05))
4.597012      	((4.017558e-02 -4.278673e-02 -2.439879e-01) (3.179854e-04 -1.010090e-02 -2.910309e-03)) ((1.096270e-06 8.378851e-07 3.170781e-07) (-3.628257e-04 -2.026811e-05 -2.536130e-05))
4.661407      	((3.945209e-02 -4.278606e-02 -2.433566e-01) (3.064652e-04 -1.008547e-02 -2.918678e-03)) ((1.121732e-06 7.926048e-07 3.254355e-07) (-3.620541e-04 -1.984436e-05 -2.537758e-05))
4.725819      	((3.852380e-02 -4.307680e-02 -2.426689e-01) (2.917188e-04 -1.007362e-02 -2.916549e-03)) ((1.168422e-06 7.184431e-07 3.316006e-07) (-3.615490e-04 -1.924803e-05 -2.549474e-05))
4.790242      	((3.751919e-02 -4.334959e-02 -2.419701e-01) (2.751962e-04 -1.006407e-02 -2.907592e-03)) ((1.211543e-06 6.440268e-07 3.340406e-07) (-3.612353e-04 -1.851561e-05 -2.567009e-05))
4.854673      	((3.631282e-02 -4.369437e-02 -2.413237e-01) (2.565022e-04 -1.005740e-02 -2.894699e-03)) ((1.265411e-06 5.573335e-07 3.315081e-07) (-3.610635e-04 -1.766299e-05 -2.584455e-05))
4.919114      	((3.507488e-02 -4.417354e-02 -2.409861e-01) (2.300925e-04 -1.005236e-02 -2.879310e-03)) ((1.343314e-06 4.571228e-07 3.165477e-07) (-3.610559e-04 -1.668949e-05 -2.625421e-05))
4.983564      	((3.375451e-02 -4.432073e-02 -2.407005e-01) (1.981750e-04 -1.004586e-02 -2.862105e-03)) ((1.408209e-06 3.877880e-07 2.968886e-07) (-3.612252e-04 -1.559371e-05 -2.690595e-05))
5.048029      	((3.272376e-02 -4.412736e-02 -2.407162e-01) (1.656877e-04 -1.003917e-02 -2.846355e-03)) ((1.458036e-06 3.674848e-07 2.793875e-07) (-3.614919e-04 -1.450024e-05 -2.754135e-05))
5.112512      	((3.201864e-02 -4.362985e-02 -2.408938e-01) (1.419364e-04 -1.003636e-02 -2.835227e-03)) ((1.490982e-06 3.806122e-07 2.758632e-07) (-3.618073e-04 -1.359775e-05 -2.770385e-05))
5.17702       	((3.170207e-02 -4.256040e-02 -2.411894e-01) (1.299839e-04 -1.003687e-02 -2.831645e-03)) ((1.468233e-06 4.474885e-07 2.889751e-07) (-3.620438e-04 -1.299590e-05 -2.729779e-05))
5.241555      	((3.163793e-02 -4.148806e-02 -2.415009e-01) (1.274289e-04 -1.003781e-02 -2.837464e-03)) ((1.407008e-06 5.482332e-07 3.107324e-07) (-3.620635e-04 -1.273826e-05 -2.652516e-05))
5.306122      	((3.165914e-02 -4.056741e-02 -2.419395e-01) (1.306718e-04 -1.003759e-02 -2.852816e-03)) ((1.329060e-06 6.506268e-07 3.212273e-07) (-3.617766e-04 -1.278280e-05 -2.560069e-05))
5.370719      	((3.198491e-02 -3.994196e-02 -2.422996e-01) (1.369414e-04 -1.003586e-02 -2.874995e-03)) ((1.252225e-06 7.404942e-07 3.218089e-07) (-3.612147e-04 -1.304055e-05 -2.471605e-05))
5.435346      	((3.254279e-02 -3.953358e-02 -2.422998e-01) (1.438244e-04 -1.003138e-02 -2.897634e-03)) ((1.196772e-06 8.019664e-07 3.211495e-07) (-3.605433e-04 -1.336548e-05 -2.405357e-05))
5.499999      	((3.342977e-02 -3.958388e-02 -2.421970e-01) (1.510873e-04 -1.002458e-02 -2.914580e-03)) ((1.179211e-06 8.317305e-07 3.231003e-07) (-3.599868e-04 -1.366747e-05 -2.367150e-05))
5.56467       	((3.469154e-02 -3.984940e-02 -2.417761e-01) (1.598178e-04 -1.001667e-02 -2.923416e-03)) ((1.193471e-06 8.421779e-07 3.240177e-07) (-3.596651e-04 -1.394816e-05 -2.353817e-05))
5.629352      	((3.640371e-02 -4.034903e-02 -2.412762e-01) (1.711852e-04 -1.000920e-02 -2.924895e-03)) ((1.219472e-06 8.469630e-07 3.249712e-07) (-3.595916e-04 -1.425525e-05 -2.360623e-05))
5.694036      	((3.837392e-02 -4.099567e-02 -2.408838e-01) (1.858506e-04 -1.000364e-02 -2.922305e-03)) ((1.234762e-06 8.540920e-07 3.264331e-07) (-3.596880e-04 -1.465127e-05 -2.383013e-05))
5.758711      	((4.037710e-02 -4.176866e-02 -2.407269e-01) (2.029967e-04 -1.000085e-02 -2.918699e-03)) ((1.239495e-06 8.644693e-07 3.270345e-07) (-3.598732e-04 -1.515759e-05 -2.417290e-05))
