# Forces      
# CofR        : (0.000000e+00 0.000000e+00 0.000000e+00)
# Time        forces(pressure viscous)	moments(pressure viscous)
0             	((0.000000e+00 0.000000e+00 0.000000e+00) (0.000000e+00 0.000000e+00 0.000000e+00)) ((0.000000e+00 0.000000e+00 0.000000e+00) (0.000000e+00 0.000000e+00 0.000000e+00))
0.012         	((-1.788401e-04 8.576807e-09 -6.095164e-05) (-4.184849e-04 4.730850e-12 -1.200315e-07)) ((-2.889354e-12 2.900128e-08 -2.275492e-12) (-3.838259e-13 2.785059e-05 -2.905493e-13))
0.0264        	((-2.466932e-04 1.377488e-07 -8.031234e-05) (-3.835282e-04 -9.982493e-11 -2.905732e-07)) ((-1.681322e-12 -1.147096e-08 -7.747197e-13) (-4.140000e-12 2.555441e-05 5.348423e-12))
0.04368       	((-1.644722e-04 -8.031758e-08 -5.623073e-05) (-3.481765e-04 -3.126428e-10 -6.365457e-07)) ((-3.082168e-12 -6.420333e-09 -2.280834e-12) (-1.045576e-11 2.324600e-05 1.213832e-11))
0.064416      	((-1.885168e-04 1.083198e-07 -6.387164e-05) (-3.137726e-04 -3.801360e-10 -1.154262e-06)) ((-2.059811e-12 -1.524052e-08 -1.512193e-13) (-2.039299e-11 2.101498e-05 1.670874e-11))
0.0892992     	((-1.390901e-04 -5.611260e-08 -5.078529e-05) (-2.817203e-04 -5.223282e-10 -1.802635e-06)) ((-2.772842e-12 -9.797045e-09 -1.069617e-12) (-3.489905e-11 1.895481e-05 1.848201e-11))
0.119159      	((-1.444214e-04 6.213991e-08 -5.250291e-05) (-2.531380e-04 -4.986624e-10 -2.514381e-06)) ((-2.722063e-12 -1.320683e-08 -8.773482e-13) (-3.345124e-11 1.713236e-05 1.924167e-11))
0.154991      	((-1.147299e-04 -2.841805e-08 -4.571531e-05) (-2.284119e-04 -3.520388e-10 -3.347758e-06)) ((-2.969512e-12 -9.932412e-09 -5.147192e-13) (-2.006479e-11 1.555762e-05 1.509825e-11))
0.197989      	((-1.138056e-04 2.315372e-08 -4.627641e-05) (-2.070808e-04 -2.289814e-10 -4.331644e-06)) ((-2.885638e-12 -1.187060e-08 -1.291151e-12) (-9.785064e-12 1.419168e-05 8.886137e-12))
0.249587      	((-9.625968e-05 -8.131107e-09 -4.299285e-05) (-1.879486e-04 -8.413136e-11 -5.546701e-06)) ((-2.570084e-12 -1.014598e-08 -1.040828e-12) (-1.135011e-11 1.294574e-05 8.199014e-13))
0.311504      	((-9.279119e-05 1.310769e-08 -4.316075e-05) (-1.698403e-04 -1.208622e-10 -6.922060e-06)) ((-1.114059e-12 -1.109923e-08 -6.642654e-13) (-1.037648e-11 1.175373e-05 -2.834102e-12))
0.385805      	((-8.069810e-05 5.733618e-10 -4.180303e-05) (-1.526389e-04 -7.340546e-11 -8.343870e-06)) ((-1.295274e-12 -1.013717e-08 -7.371249e-13) (-7.133383e-12 1.062031e-05 -1.835897e-12))
0.474966      	((-7.620540e-05 1.094436e-08 -4.166318e-05) (-1.366551e-04 3.426031e-10 -9.649537e-06)) ((-1.084344e-15 -1.032165e-08 -3.765091e-13) (-5.728603e-12 9.572932e-06 6.451863e-13))
0.581959      	((-6.811893e-05 1.010133e-08 -4.101094e-05) (-1.221560e-04 2.543845e-10 -1.074702e-05)) ((7.233738e-13 -9.777579e-09 1.018936e-12) (3.025394e-12 8.630665e-06 7.447165e-12))
0.710351      	((-6.404071e-05 5.500115e-09 -4.135838e-05) (-1.092737e-04 1.355907e-10 -1.169111e-05)) ((1.856319e-12 -9.827152e-09 1.334330e-12) (8.514587e-12 7.801667e-06 3.595387e-12))
0.864421      	((-5.822776e-05 9.904649e-09 -4.174920e-05) (-9.791379e-05 1.084384e-09 -1.260012e-05)) ((2.888236e-12 -9.507331e-09 1.499955e-12) (-4.126272e-12 7.079949e-06 -1.931173e-11))
1.049306      	((-5.461474e-05 9.905076e-09 -4.302137e-05) (-8.789990e-05 1.337776e-09 -1.353330e-05)) ((1.909528e-12 -9.510090e-09 2.237960e-12) (-2.622110e-11 6.451331e-06 -5.086631e-11))
1.271167      	((-5.047574e-05 1.327322e-08 -4.444551e-05) (-7.916442e-05 2.267110e-09 -1.448052e-05)) ((3.194920e-12 -9.391665e-09 3.484507e-12) (-4.697239e-11 5.906479e-06 -8.644283e-11))
1.5374        	((-4.790509e-05 1.597637e-08 -4.634333e-05) (-7.162616e-05 3.831221e-09 -1.546274e-05)) ((3.035193e-12 -9.470204e-09 3.869348e-12) (-4.639200e-11 5.440559e-06 -1.075087e-10))
1.85688       	((-4.576949e-05 7.949479e-11 -4.833166e-05) (-6.522950e-05 3.015342e-09 -1.644521e-05)) ((3.691687e-12 -9.591719e-09 1.430461e-12) (-3.660061e-11 5.047667e-06 -1.298543e-10))
2.240256      	((-4.498518e-05 -1.466080e-09 -5.061660e-05) (-5.987494e-05 1.146116e-09 -1.744817e-05)) ((1.807466e-12 -9.892779e-09 -7.494899e-13) (2.350414e-11 4.719457e-06 -1.376154e-10))
2.700307      	((-4.472485e-05 -1.283199e-08 -5.344769e-05) (-5.540780e-05 1.400739e-09 -1.852676e-05)) ((7.389572e-13 -1.019391e-08 -2.698376e-13) (1.461057e-10 4.445825e-06 -1.488504e-10))
3.252369      	((-4.539509e-05 -1.546109e-08 -5.671050e-05) (-5.167892e-05 1.739809e-09 -1.971955e-05)) ((-4.045285e-13 -1.058565e-08 1.839019e-12) (2.971385e-10 4.216111e-06 -2.028949e-10))
3.914842      	((-4.655110e-05 -2.651314e-09 -6.008968e-05) (-4.856134e-05 1.962296e-09 -2.094910e-05)) ((-2.517552e-13 -1.094619e-08 1.155730e-12) (4.093732e-10 4.021803e-06 -2.580749e-10))
4.709811      	((-4.854223e-05 1.679454e-09 -6.360474e-05) (-4.597076e-05 3.182592e-09 -2.220394e-05)) ((-1.076240e-12 -1.130914e-08 4.156035e-13) (3.739823e-10 3.858360e-06 -2.876949e-10))
5.66184       	((-5.085040e-05 7.171759e-09 -6.730541e-05) (-4.387046e-05 4.158313e-09 -2.347792e-05)) ((-2.677089e-12 -1.162874e-08 -1.337861e-12) (2.370451e-10 3.722614e-06 -2.749384e-10))
6.769791      	((-5.339943e-05 1.184920e-09 -7.103627e-05) (-4.225592e-05 3.019194e-09 -2.469690e-05)) ((-3.832379e-12 -1.193015e-08 -2.304839e-12) (1.219547e-10 3.612570e-06 -2.051416e-10))
8.032755      	((-5.612040e-05 -2.214339e-09 -7.463400e-05) (-4.108290e-05 1.221194e-09 -2.582566e-05)) ((-4.451482e-12 -1.221128e-08 -2.286298e-12) (7.414322e-12 3.524811e-06 -1.437792e-10))
9.449977      	((-5.895440e-05 -7.822368e-09 -7.794178e-05) (-4.031408e-05 2.847383e-10 -2.682593e-05)) ((-4.361554e-12 -1.248294e-08 -1.597288e-12) (-6.428498e-11 3.455986e-06 -1.143142e-10))
10.986786     	((-6.171663e-05 -1.104373e-08 -8.080446e-05) (-3.987720e-05 -6.324306e-10 -2.765336e-05)) ((-3.776602e-12 -1.276740e-08 -1.423873e-12) (-7.223074e-11 3.403853e-06 -8.719338e-11))
12.519713     	((-6.424659e-05 -1.398266e-08 -8.311173e-05) (-3.968689e-05 -9.998355e-10 -2.826220e-05)) ((-3.081354e-12 -1.305897e-08 -8.030232e-13) (-4.063126e-11 3.366791e-06 -6.136043e-11))
14.049534     	((-6.655764e-05 -7.518073e-09 -8.502605e-05) (-3.964524e-05 -1.091997e-09 -2.868176e-05)) ((-2.939895e-12 -1.333278e-08 -2.922720e-13) (3.272922e-13 3.341035e-06 -3.295285e-11))
15.577391     	((-6.846862e-05 -1.004920e-08 -8.654789e-05) (-3.966718e-05 -1.017946e-09 -2.894651e-05)) ((-2.425303e-12 -1.355924e-08 5.857369e-14) (1.666915e-11 3.323717e-06 -1.416370e-11))
17.090758     	((-6.997072e-05 -1.147926e-08 -8.771598e-05) (-3.970652e-05 -1.066735e-09 -2.909241e-05)) ((-2.380675e-12 -1.373154e-08 4.062889e-13) (2.810278e-11 3.312712e-06 -2.132334e-12))
18.588284     	((-7.108223e-05 -1.307863e-08 -8.858870e-05) (-3.974814e-05 -9.470356e-10 -2.916672e-05)) ((-2.435421e-12 -1.385081e-08 2.134242e-13) (2.189053e-11 3.306263e-06 -6.360113e-12))
20.069874     	((-7.188067e-05 -1.560416e-08 -8.925152e-05) (-3.978079e-05 -6.563307e-10 -2.919500e-05)) ((-1.992715e-12 -1.393329e-08 -1.368988e-13) (1.017666e-11 3.302960e-06 -3.338539e-11))
21.536943     	((-7.247080e-05 -1.327501e-08 -8.975368e-05) (-3.980592e-05 -8.861358e-11 -2.919470e-05)) ((-1.947649e-12 -1.398760e-08 -4.978741e-13) (1.632177e-11 3.301808e-06 -6.438762e-11))
22.992285     	((-7.292604e-05 -1.239642e-08 -9.014456e-05) (-3.982827e-05 3.570191e-10 -2.917763e-05)) ((-2.060866e-12 -1.403108e-08 -6.807326e-13) (2.137838e-11 3.302069e-06 -8.882954e-11))
24.439653     	((-7.325853e-05 -1.004809e-08 -9.045360e-05) (-3.984808e-05 5.789887e-10 -2.914889e-05)) ((-2.296463e-12 -1.406640e-08 -7.338128e-13) (1.632909e-11 3.303342e-06 -1.026070e-10))
25.882476     	((-7.347968e-05 -6.565705e-09 -9.069642e-05) (-3.986659e-05 7.407830e-10 -2.911376e-05)) ((-2.320132e-12 -1.408629e-08 -6.658298e-13) (8.699450e-12 3.305198e-06 -1.064114e-10))
27.323069     	((-7.362252e-05 -7.081752e-09 -9.086946e-05) (-3.988492e-05 6.311769e-10 -2.907339e-05)) ((-2.205903e-12 -1.409649e-08 -5.047208e-13) (3.793820e-12 3.307417e-06 -1.035165e-10))
28.76265      	((-7.370966e-05 -9.032038e-09 -9.099582e-05) (-3.990356e-05 2.048216e-10 -2.902792e-05)) ((-2.115577e-12 -1.409432e-08 -3.802021e-13) (-3.809187e-12 3.309913e-06 -9.669872e-11))
30.201645     	((-7.373386e-05 -7.265044e-09 -9.108686e-05) (-3.992173e-05 5.552598e-12 -2.898053e-05)) ((-2.305180e-12 -1.408287e-08 -3.285473e-13) (-1.147088e-11 3.312481e-06 -1.024006e-10))
31.640194     	((-7.374115e-05 -7.853706e-09 -9.116109e-05) (-3.994000e-05 -2.714507e-10 -2.894161e-05)) ((-2.342887e-12 -1.407696e-08 -4.111900e-13) (-2.384737e-11 3.314586e-06 -1.070367e-10))
33.078325     	((-7.375292e-05 -3.943085e-09 -9.121706e-05) (-3.995677e-05 -6.143517e-10 -2.890916e-05)) ((-2.412319e-12 -1.408253e-08 -4.261026e-13) (-3.120770e-11 3.316282e-06 -1.042330e-10))
34.515992     	((-7.375753e-05 -3.942217e-09 -9.125922e-05) (-3.997178e-05 -6.688281e-10 -2.887996e-05)) ((-2.332715e-12 -1.409195e-08 -3.286992e-13) (-3.927423e-11 3.317737e-06 -1.110371e-10))
35.953171     	((-7.375848e-05 -2.913572e-10 -9.128695e-05) (-3.998487e-05 -6.255700e-10 -2.885649e-05)) ((-2.413733e-12 -1.411123e-08 -2.033985e-13) (-4.595246e-11 3.318796e-06 -1.191815e-10))
37.3899       	((-7.374848e-05 -4.787866e-10 -9.129982e-05) (-3.999494e-05 -5.921309e-10 -2.883750e-05)) ((-2.399998e-12 -1.413719e-08 1.869442e-14) (-5.358473e-11 3.319529e-06 -1.290277e-10))
38.826271     	((-7.374212e-05 8.789420e-10 -9.129320e-05) (-4.000279e-05 -4.827490e-10 -2.882150e-05)) ((-2.440286e-12 -1.416569e-08 1.711752e-13) (-6.353365e-11 3.320060e-06 -1.429596e-10))
40.262416     	((-7.373545e-05 -6.702965e-10 -9.127542e-05) (-4.000940e-05 -5.457021e-10 -2.880843e-05)) ((-2.329078e-12 -1.419299e-08 3.287052e-13) (-7.823009e-11 3.320459e-06 -1.547823e-10))
41.698445     	((-7.371238e-05 1.822847e-09 -9.127975e-05) (-4.001493e-05 -6.942829e-10 -2.879796e-05)) ((-2.267445e-12 -1.421589e-08 5.990140e-13) (-9.192525e-11 3.320742e-06 -1.594444e-10))
43.134406     	((-7.367392e-05 2.651331e-09 -9.129085e-05) (-4.001891e-05 -7.951408e-10 -2.878832e-05)) ((-2.236163e-12 -1.423124e-08 7.527051e-13) (-1.029744e-10 3.320927e-06 -1.596504e-10))
44.570302     	((-7.360124e-05 2.588062e-09 -9.128370e-05) (-4.002191e-05 -7.002929e-10 -2.877695e-05)) ((-2.210559e-12 -1.423977e-08 5.152204e-13) (-1.109147e-10 3.321067e-06 -1.584191e-10))
46.006135     	((-7.349714e-05 -1.059260e-09 -9.125779e-05) (-4.002380e-05 -7.591870e-10 -2.876357e-05)) ((-2.200447e-12 -1.424380e-08 4.273931e-13) (-1.168672e-10 3.321063e-06 -1.523363e-10))
47.441916     	((-7.336481e-05 -3.153728e-09 -9.125157e-05) (-4.002277e-05 -8.810528e-10 -2.874689e-05)) ((-2.173597e-12 -1.424268e-08 3.648193e-13) (-1.210891e-10 3.320905e-06 -1.472376e-10))
48.877662     	((-7.321981e-05 -2.852011e-09 -9.123918e-05) (-4.001860e-05 -8.920825e-10 -2.872786e-05)) ((-2.171479e-12 -1.423784e-08 2.790618e-13) (-1.226122e-10 3.320607e-06 -1.429946e-10))
50.313393     	((-7.308192e-05 -8.840913e-09 -9.121361e-05) (-4.001227e-05 -9.524032e-10 -2.870848e-05)) ((-1.993059e-12 -1.423180e-08 1.493199e-13) (-1.306714e-10 3.320220e-06 -1.402169e-10))
51.749119     	((-7.295251e-05 -1.035608e-08 -9.120240e-05) (-4.000443e-05 -1.006700e-09 -2.868992e-05)) ((-1.865619e-12 -1.422515e-08 2.737298e-15) (-1.444173e-10 3.319789e-06 -1.375479e-10))
53.18484      	((-7.285084e-05 -7.757447e-09 -9.118935e-05) (-3.999608e-05 -9.345146e-10 -2.867436e-05)) ((-1.870741e-12 -1.421951e-08 -1.228458e-13) (-1.529480e-10 3.319366e-06 -1.346111e-10))
54.620561     	((-7.277560e-05 -8.840548e-09 -9.119802e-05) (-3.998852e-05 -1.015262e-09 -2.866254e-05)) ((-1.732367e-12 -1.421570e-08 -2.438143e-13) (-1.660571e-10 3.319000e-06 -1.336487e-10))
56.056303     	((-7.271128e-05 -1.687560e-08 -9.123008e-05) (-3.998241e-05 -1.484184e-09 -2.865410e-05)) ((-1.662154e-12 -1.421344e-08 -3.047236e-13) (-1.901313e-10 3.318711e-06 -1.340947e-10))
57.492097     	((-7.265219e-05 -3.422185e-09 -9.126802e-05) (-3.997747e-05 -1.658551e-09 -2.864814e-05)) ((-2.408898e-12 -1.421172e-08 -2.590599e-13) (-1.805850e-10 3.318499e-06 -1.317250e-10))
58.92801      	((-7.260779e-05 -1.387235e-09 -9.130698e-05) (-3.997431e-05 -1.598596e-09 -2.864314e-05)) ((-2.319349e-12 -1.420999e-08 -2.486054e-13) (-1.551319e-10 3.318394e-06 -1.304328e-10))
60.364134     	((-7.258118e-05 1.117805e-09 -9.133544e-05) (-3.997359e-05 -1.511849e-09 -2.863662e-05)) ((-2.182752e-12 -1.420797e-08 -2.755800e-13) (-1.254354e-10 3.318433e-06 -1.326340e-10))
