# Forces      
# CofR        : (0.000000e+00 0.000000e+00 0.000000e+00)
# Time        forces(pressure viscous)	moments(pressure viscous)
0             	((0.000000e+00 0.000000e+00 0.000000e+00) (0.000000e+00 0.000000e+00 0.000000e+00)) ((0.000000e+00 0.000000e+00 0.000000e+00) (0.000000e+00 0.000000e+00 0.000000e+00))
0.012         	((-3.128661e-11 7.583578e-09 -9.725619e-11) (-9.283263e-13 8.505520e-11 -3.431884e-13)) ((-5.459241e-13 -2.134062e-15 -1.044326e-10) (1.622944e-12 4.519363e-14 -2.122801e-07))
0.0264        	((2.171462e-11 -2.750318e-09 2.169844e-10) (-1.021904e-12 9.078398e-11 -6.153375e-13)) ((-1.284064e-12 9.955170e-15 -3.136575e-11) (2.886753e-12 4.414137e-14 -1.857956e-07))
0.04368       	((-1.482905e-10 1.387331e-09 -1.654409e-10) (-1.350030e-12 5.947612e-11 -1.415580e-12)) ((5.893882e-13 -4.558716e-16 -1.646547e-11) (2.433830e-12 6.154035e-14 -1.606819e-07))
0.064416      	((-1.022189e-10 1.158397e-10 -1.804224e-13) (-1.514987e-12 3.174729e-11 -1.053961e-12)) ((-1.665836e-13 -1.034391e-15 -1.107821e-11) (1.231390e-12 8.087201e-14 -1.376282e-07))
0.0892992     	((-1.436464e-10 6.667744e-10 -1.261376e-10) (-1.380872e-12 2.009095e-11 1.960982e-13)) ((1.787309e-13 -1.086771e-14 -8.934078e-12) (5.879386e-13 8.603076e-14 -1.172455e-07))
0.119159      	((-4.999061e-11 6.283238e-11 -1.479963e-10) (-1.991931e-12 1.730093e-11 1.937060e-12)) ((1.092842e-13 -5.768797e-15 -7.103335e-12) (-2.304043e-13 1.041073e-13 -9.981405e-08))
0.154991      	((-1.028150e-10 5.636916e-10 -1.713522e-10) (-2.739785e-12 1.290779e-11 5.068658e-12)) ((1.065184e-13 -9.609318e-15 -5.678466e-12) (-8.409997e-13 1.213039e-13 -8.545095e-08))
0.197989      	((-1.126274e-10 4.399523e-10 -2.064413e-10) (-2.886934e-12 7.956565e-12 1.075285e-11)) ((8.370733e-14 -2.570923e-15 -4.448311e-12) (-1.172493e-12 8.422710e-14 -7.390892e-08))
0.249587      	((-1.291012e-10 5.132451e-10 -2.211274e-10) (-1.824376e-12 2.890628e-12 1.872318e-11)) ((8.492808e-14 4.200723e-15 -3.680083e-12) (-1.069676e-12 2.562264e-14 -6.471887e-08))
0.311504      	((-2.373675e-10 6.400657e-10 -2.682177e-10) (-3.690584e-13 -1.573340e-12 2.893181e-11)) ((6.142275e-14 7.091905e-15 -3.259689e-12) (-8.813290e-13 -3.798173e-14 -5.732610e-08))
0.385805      	((-2.814507e-10 8.372044e-10 -3.011507e-10) (4.006303e-13 1.676608e-12 4.042967e-11)) ((4.605619e-14 6.306886e-15 -2.845507e-12) (-6.619645e-13 -8.506087e-14 -5.122951e-08))
0.474966      	((-4.101030e-10 1.031029e-09 -3.481698e-10) (1.370111e-12 3.673708e-12 5.237111e-11)) ((-5.811953e-15 3.554251e-15 -2.487310e-12) (-1.971220e-13 -8.395968e-14 -4.605466e-08))
0.581959      	((-5.368315e-10 1.304614e-09 -3.966163e-10) (1.886681e-12 6.847437e-12 6.474133e-11)) ((-3.014566e-14 7.166608e-15 -2.306315e-12) (7.138050e-13 -9.482195e-14 -4.155492e-08))
0.710351      	((-6.267852e-10 1.288843e-09 -4.570213e-10) (7.717559e-12 1.949743e-11 7.955400e-11)) ((-5.609229e-14 6.476595e-15 -2.192312e-12) (1.427652e-12 -1.489927e-13 -3.757638e-08))
0.864421      	((-7.411460e-10 1.034061e-09 -4.841399e-10) (1.982324e-11 1.396009e-11 9.585150e-11)) ((-9.107546e-14 4.181983e-17 -2.086409e-12) (1.210720e-12 -3.402283e-13 -3.402183e-08))
1.049306      	((-7.584445e-10 9.361230e-10 -5.251197e-10) (3.386929e-11 -1.570146e-11 1.135912e-10)) ((-1.170437e-13 -9.173697e-15 -1.974149e-12) (3.572235e-13 -5.257999e-13 -3.083129e-08))
1.271167      	((-6.847511e-10 7.770441e-10 -5.819653e-10) (6.058921e-11 -5.435930e-11 1.359451e-10)) ((-1.431056e-13 -1.102283e-14 -1.889626e-12) (-6.820415e-13 -9.884018e-13 -2.797448e-08))
1.5374        	((-5.163001e-10 7.754193e-10 -6.231306e-10) (9.891095e-11 -9.739622e-11 1.618252e-10)) ((-1.291021e-13 -1.841226e-14 -1.826012e-12) (-1.787163e-12 -2.052755e-12 -2.543694e-08))
1.85688       	((-3.689769e-10 5.970544e-10 -6.357083e-10) (1.465313e-10 -1.311095e-10 1.862198e-10)) ((-1.169050e-13 -1.990909e-14 -1.744926e-12) (-3.004144e-12 -3.346971e-12 -2.320470e-08))
2.240256      	((-2.077105e-10 3.999037e-10 -7.099315e-10) (2.082574e-10 -1.663606e-10 2.138275e-10)) ((-1.351732e-13 -2.270328e-14 -1.648702e-12) (-4.506339e-12 -5.100302e-12 -2.125502e-08))
2.700307      	((-1.454180e-10 2.726370e-10 -7.365550e-10) (2.727999e-10 -2.213457e-10 2.411327e-10)) ((-1.306473e-13 -3.259528e-14 -1.562209e-12) (-6.392775e-12 -7.130142e-12 -1.955467e-08))
3.252369      	((-5.124932e-11 1.710753e-10 -8.257676e-10) (3.321966e-10 -2.853353e-10 2.689516e-10)) ((-1.087492e-13 -3.754807e-14 -1.456777e-12) (-8.093367e-12 -8.950438e-12 -1.806424e-08))
3.914842      	((8.358170e-12 -6.898932e-11 -8.822794e-10) (3.740150e-10 -3.410990e-10 3.030142e-10)) ((-7.675907e-14 -2.919159e-14 -1.356799e-12) (-9.234191e-12 -1.007857e-11 -1.674382e-08))
4.709811      	((4.743189e-11 -1.460867e-10 -9.647216e-10) (3.895973e-10 -3.765283e-10 3.498979e-10)) ((-5.801969e-14 -1.485966e-14 -1.267809e-12) (-9.809899e-12 -1.062441e-11 -1.555995e-08))
5.663773      	((6.671585e-11 -1.250831e-10 -1.085031e-09) (3.816613e-10 -3.779086e-10 4.074630e-10)) ((-5.786649e-14 -9.613257e-15 -1.178542e-12) (-9.610541e-12 -1.058170e-11 -1.448823e-08))
6.808528      	((1.112247e-10 -9.111324e-11 -1.218749e-09) (3.484211e-10 -3.487467e-10 4.642766e-10)) ((-5.029998e-14 -5.678874e-15 -1.097400e-12) (-8.624952e-12 -9.761291e-12 -1.350958e-08))
8.182233      	((1.278543e-10 -4.200937e-11 -1.323843e-09) (2.995890e-10 -2.962781e-10 5.297018e-10)) ((-3.344039e-14 -2.903705e-15 -1.019128e-12) (-7.564629e-12 -8.419640e-12 -1.260995e-08))
9.83068       	((9.776746e-11 3.234837e-11 -1.486804e-09) (2.382613e-10 -2.381745e-10 5.948701e-10)) ((-3.445195e-14 7.091659e-16 -9.464470e-13) (-6.151313e-12 -6.844558e-12 -1.178179e-08))
11.808816     	((4.156540e-11 1.727806e-10 -1.606874e-09) (1.790653e-10 -1.822697e-10 6.611226e-10)) ((-1.926390e-14 6.420192e-15 -8.785013e-13) (-4.238661e-12 -5.421183e-12 -1.102090e-08))
14.182579     	((-3.257781e-11 1.294191e-10 -1.787597e-09) (1.275258e-10 -1.356902e-10 7.368823e-10)) ((5.317186e-15 8.234927e-15 -8.122966e-13) (-2.681443e-12 -4.100407e-12 -1.032259e-08))
17.031095     	((-8.414581e-11 1.142890e-10 -1.985274e-09) (8.706114e-11 -9.922016e-11 8.134416e-10)) ((2.137354e-14 4.847941e-15 -7.543340e-13) (-1.950095e-12 -3.041977e-12 -9.683064e-09))
20.449314     	((-8.987273e-11 1.714462e-10 -2.174202e-09) (6.410083e-11 -7.576828e-11 8.946197e-10)) ((2.641700e-14 3.093578e-15 -7.019032e-13) (-1.664261e-12 -2.428608e-12 -9.098586e-09))
24.551176     	((-1.286356e-10 1.546024e-10 -2.339583e-09) (5.634184e-11 -6.676792e-11 9.787652e-10)) ((3.360550e-14 4.237298e-16 -6.551974e-13) (-1.692164e-12 -2.250716e-12 -8.564721e-09))
29.473411     	((-1.116900e-10 1.363908e-10 -2.559360e-09) (6.197570e-11 -7.370232e-11 1.066454e-09)) ((3.487569e-14 -2.220016e-15 -6.134800e-13) (-1.960010e-12 -2.399507e-12 -8.076514e-09))
35.380094     	((-1.177431e-10 1.000859e-10 -2.878926e-09) (7.600292e-11 -9.142035e-11 1.161939e-09)) ((3.754211e-14 -5.987902e-15 -5.767179e-13) (-2.498024e-12 -2.740495e-12 -7.629648e-09))
42.468112     	((-9.797778e-11 6.676155e-11 -3.150681e-09) (9.424763e-11 -1.130589e-10 1.267447e-09)) ((3.952935e-14 -8.214468e-15 -5.435282e-13) (-3.129481e-12 -3.208350e-12 -7.220923e-09))
50.973735     	((-9.162689e-11 5.767453e-11 -3.441896e-09) (1.131331e-10 -1.335605e-10 1.390871e-09)) ((3.957469e-14 -1.346136e-14 -5.127727e-13) (-3.712114e-12 -3.655295e-12 -6.847743e-09))
61.180482     	((-8.128234e-11 4.591833e-11 -3.727366e-09) (1.303846e-10 -1.517119e-10 1.536414e-09)) ((3.698776e-14 -1.776400e-14 -4.842377e-13) (-4.216184e-12 -4.030708e-12 -6.507543e-09))
73.428578     	((-7.858534e-11 3.457053e-11 -3.985529e-09) (1.428299e-10 -1.666046e-10 1.691947e-09)) ((3.329680e-14 -2.133141e-14 -4.581846e-13) (-4.645845e-12 -4.315601e-12 -6.197723e-09))
88.126294     	((-7.650836e-11 2.044516e-11 -4.262191e-09) (1.498785e-10 -1.781151e-10 1.852398e-09)) ((3.052436e-14 -2.498338e-14 -4.348209e-13) (-4.936815e-12 -4.430783e-12 -5.915930e-09))
105.763553    	((-7.765799e-11 1.732978e-11 -4.539765e-09) (1.534066e-10 -1.862897e-10 2.015671e-09)) ((2.896520e-14 -2.649368e-14 -4.135985e-13) (-5.073600e-12 -4.361244e-12 -5.659777e-09))
126.928263    	((-7.041560e-11 1.741103e-11 -4.828534e-09) (1.533758e-10 -1.910834e-10 2.181997e-09)) ((2.799480e-14 -2.843240e-14 -3.945071e-13) (-5.153290e-12 -4.139160e-12 -5.426759e-09))
152.325916    	((-5.897229e-11 1.626914e-11 -5.128024e-09) (1.520691e-10 -1.933334e-10 2.353768e-09)) ((2.855918e-14 -2.938619e-14 -3.768303e-13) (-5.184477e-12 -3.922197e-12 -5.214657e-09))
182.803099    	((-5.110632e-11 1.641673e-11 -5.433221e-09) (1.485046e-10 -1.939186e-10 2.532678e-09)) ((2.880095e-14 -3.090975e-14 -3.602576e-13) (-5.178697e-12 -3.650314e-12 -5.021421e-09))
219.375719    	((-4.224848e-11 1.308998e-11 -5.736268e-09) (1.423385e-10 -1.931591e-10 2.718054e-09)) ((2.931410e-14 -3.303692e-14 -3.453679e-13) (-5.177276e-12 -3.320120e-12 -4.845357e-09))
263.262863    	((-2.908630e-11 4.640878e-12 -6.029557e-09) (1.339680e-10 -1.911713e-10 2.911308e-09)) ((2.941411e-14 -3.432114e-14 -3.321839e-13) (-5.205212e-12 -2.956749e-12 -4.684960e-09))
315.927436    	((-2.033102e-11 -3.442014e-12 -6.307517e-09) (1.249305e-10 -1.883078e-10 3.111958e-09)) ((3.013189e-14 -3.564823e-14 -3.204143e-13) (-5.294363e-12 -2.647856e-12 -4.538870e-09))
379.124923    	((-1.088070e-11 -9.367349e-12 -6.564786e-09) (1.160821e-10 -1.836583e-10 3.314814e-09)) ((3.135899e-14 -3.702857e-14 -3.090835e-13) (-5.327825e-12 -2.365430e-12 -4.405878e-09))
454.961908    	((-6.079639e-12 -1.042677e-11 -6.802767e-09) (1.071145e-10 -1.768922e-10 3.518302e-09)) ((3.271515e-14 -3.897744e-14 -2.985269e-13) (-5.270111e-12 -2.078839e-12 -4.284918e-09))
545.966289    	((-7.795089e-12 -7.237838e-12 -7.020614e-09) (9.828435e-11 -1.691774e-10 3.721058e-09)) ((3.340301e-14 -4.072870e-14 -2.889080e-13) (-5.156416e-12 -1.786154e-12 -4.175086e-09))
655.171547    	((-1.191935e-11 -4.797917e-12 -7.218208e-09) (8.935216e-11 -1.609572e-10 3.922403e-09)) ((3.384261e-14 -4.166518e-14 -2.802480e-13) (-4.990830e-12 -1.487103e-12 -4.075580e-09))
786.217856    	((-1.454097e-11 -4.259109e-12 -7.392637e-09) (8.092379e-11 -1.528456e-10 4.120715e-09)) ((3.453852e-14 -4.180785e-14 -2.723523e-13) (-4.792363e-12 -1.256542e-12 -3.985582e-09))
943.473427    	((-1.723863e-11 -5.959222e-12 -7.546906e-09) (7.301863e-11 -1.449094e-10 4.315327e-09)) ((3.514440e-14 -4.191882e-14 -2.650870e-13) (-4.583605e-12 -1.065830e-12 -3.904326e-09))
1132.180113   	((-1.870622e-11 -7.706315e-12 -7.681854e-09) (6.563781e-11 -1.367544e-10 4.504878e-09)) ((3.553259e-14 -4.178117e-14 -2.585758e-13) (-4.372754e-12 -9.116103e-13 -3.831124e-09))
1358.628135   	((-1.971079e-11 -9.128357e-12 -7.801631e-09) (5.949913e-11 -1.286749e-10 4.687820e-09)) ((3.566887e-14 -4.199337e-14 -2.528458e-13) (-4.157446e-12 -7.944216e-13 -3.765295e-09))
1625.664829   	((-2.680161e-11 -8.951935e-12 -7.909896e-09) (5.402187e-11 -1.209717e-10 4.863823e-09)) ((3.532154e-14 -4.296237e-14 -2.477323e-13) (-3.940163e-12 -6.819195e-13 -3.706206e-09))
1933.293156   	((-3.347868e-11 -5.581657e-12 -8.008080e-09) (4.899127e-11 -1.132080e-10 5.034713e-09)) ((3.477382e-14 -4.382658e-14 -2.430205e-13) (-3.712789e-12 -5.351699e-13 -3.653240e-09))
2281.515938   	((-2.848345e-11 -4.013554e-12 -8.091847e-09) (4.495642e-11 -1.057206e-10 5.198588e-09)) ((3.426035e-14 -4.327643e-14 -2.386115e-13) (-3.477641e-12 -4.541386e-13 -3.605811e-09))
2670.33524    	((-2.859676e-11 -3.117141e-12 -8.166507e-09) (4.174651e-11 -9.892768e-11 5.349742e-09)) ((3.372341e-14 -4.295308e-14 -2.347126e-13) (-3.245945e-12 -4.401770e-13 -3.563394e-09))
3076.307592   	((-2.952586e-11 -3.058996e-12 -8.233966e-09) (3.897602e-11 -9.264810e-11 5.487892e-09)) ((3.326026e-14 -4.282877e-14 -2.312264e-13) (-3.019789e-12 -4.313228e-13 -3.525535e-09))
3482.286176   	((-3.093328e-11 -4.211374e-12 -8.293393e-09) (3.653510e-11 -8.685006e-11 5.614736e-09)) ((3.276121e-14 -4.286022e-14 -2.280904e-13) (-2.808724e-12 -4.168144e-13 -3.491733e-09))
3888.271325   	((-3.222234e-11 -4.712122e-12 -8.346126e-09) (3.471212e-11 -8.151745e-11 5.731328e-09)) ((3.236591e-14 -4.318418e-14 -2.252431e-13) (-2.620705e-12 -4.054677e-13 -3.461517e-09))
4294.263254   	((-3.380980e-11 -5.227317e-12 -8.394510e-09) (3.325270e-11 -7.690047e-11 5.838153e-09)) ((3.203457e-14 -4.363153e-14 -2.226636e-13) (-2.453179e-12 -3.960708e-13 -3.434460e-09))
4700.262104   	((-3.488304e-11 -6.085530e-12 -8.439751e-09) (3.211236e-11 -7.280867e-11 5.936054e-09)) ((3.207466e-14 -4.408599e-14 -2.203611e-13) (-2.301970e-12 -3.954481e-13 -3.410173e-09))
5106.267805   	((-3.603678e-11 -6.931928e-12 -8.481378e-09) (3.118961e-11 -6.916278e-11 6.026080e-09)) ((3.226730e-14 -4.451475e-14 -2.182759e-13) (-2.173297e-12 -4.021450e-13 -3.388304e-09))
5512.280287   	((-3.658808e-11 -7.445469e-12 -8.519721e-09) (3.038632e-11 -6.590258e-11 6.109249e-09)) ((3.264146e-14 -4.487561e-14 -2.163768e-13) (-2.067688e-12 -4.166579e-13 -3.368562e-09))
5918.299345   	((-3.699701e-11 -7.675625e-12 -8.555247e-09) (2.964983e-11 -6.305425e-11 6.186278e-09)) ((3.301988e-14 -4.518364e-14 -2.146372e-13) (-1.976845e-12 -4.336206e-13 -3.350688e-09))
6324.324713   	((-3.726491e-11 -7.790673e-12 -8.588092e-09) (2.896072e-11 -6.056956e-11 6.257835e-09)) ((3.341291e-14 -4.541155e-14 -2.130611e-13) (-1.899558e-12 -4.491028e-13 -3.334463e-09))
6730.356042   	((-3.737453e-11 -7.876923e-12 -8.618432e-09) (2.841787e-11 -5.829930e-11 6.324429e-09)) ((3.374201e-14 -4.561123e-14 -2.116354e-13) (-1.833230e-12 -4.628605e-13 -3.319712e-09))
7136.393006   	((-3.741133e-11 -8.116432e-12 -8.646413e-09) (2.805149e-11 -5.625141e-11 6.386444e-09)) ((3.399430e-14 -4.579802e-14 -2.103110e-13) (-1.776812e-12 -4.764539e-13 -3.306272e-09))
7542.435385   	((-3.750746e-11 -8.569720e-12 -8.672187e-09) (2.780756e-11 -5.445522e-11 6.444211e-09)) ((3.417836e-14 -4.597915e-14 -2.091095e-13) (-1.729323e-12 -4.908387e-13 -3.294005e-09))
7948.482807   	((-3.769425e-11 -9.009221e-12 -8.695819e-09) (2.761609e-11 -5.283320e-11 6.498077e-09)) ((3.428459e-14 -4.615332e-14 -2.080129e-13) (-1.688378e-12 -5.043903e-13 -3.282794e-09))
8354.53491    	((-3.795535e-11 -9.343132e-12 -8.715512e-09) (2.745973e-11 -5.133011e-11 6.548348e-09)) ((3.435871e-14 -4.627840e-14 -2.070063e-13) (-1.651437e-12 -5.178082e-13 -3.272535e-09))
8760.591313   	((-3.843246e-11 -9.621050e-12 -8.735821e-09) (2.739485e-11 -4.996979e-11 6.595292e-09)) ((3.443017e-14 -4.639674e-14 -2.060706e-13) (-1.618532e-12 -5.321687e-13 -3.263130e-09))
9166.65177    	((-3.888404e-11 -9.954644e-12 -8.754639e-09) (2.740653e-11 -4.874214e-11 6.639169e-09)) ((3.448168e-14 -4.647509e-14 -2.052223e-13) (-1.587389e-12 -5.482523e-13 -3.254500e-09))
9572.716013   	((-3.906948e-11 -1.032438e-11 -8.772087e-09) (2.752388e-11 -4.764989e-11 6.680195e-09)) ((3.448514e-14 -4.653836e-14 -2.044506e-13) (-1.557694e-12 -5.669053e-13 -3.246572e-09))
