# Forces      
# CofR        : (0.000000e+00 0.000000e+00 0.000000e+00)
# Time        forces(pressure viscous)	moments(pressure viscous)
0             	((0.000000e+00 0.000000e+00 0.000000e+00) (0.000000e+00 0.000000e+00 0.000000e+00)) ((0.000000e+00 0.000000e+00 0.000000e+00) (0.000000e+00 0.000000e+00 0.000000e+00))
0.012         	((-4.479591e-05 1.824502e-09 -1.525253e-05) (-1.050331e-04 1.175107e-13 -1.508607e-08)) ((-6.998180e-13 6.902896e-09 -5.553617e-13) (-1.098875e-13 6.989661e-06 -4.906920e-14))
0.0264        	((-6.176542e-05 3.554432e-08 -1.999404e-05) (-9.622561e-05 1.062461e-12 -2.346090e-08)) ((-3.810942e-13 -3.329536e-09 -1.556201e-13) (-5.189960e-13 6.410605e-06 5.515333e-13))
0.04368       	((-4.111480e-05 -2.122998e-08 -1.376681e-05) (-8.718334e-05 -2.321588e-11 -4.208040e-08)) ((-8.465265e-13 -2.283496e-09 -4.768386e-13) (-1.324124e-12 5.818322e-06 1.458829e-12))
0.064416      	((-4.707729e-05 2.597589e-08 -1.545383e-05) (-7.814392e-05 -3.518093e-11 -7.442108e-08)) ((-3.941383e-13 -4.577548e-09 4.062254e-14) (-2.276770e-12 5.228784e-06 2.075414e-12))
0.0892992     	((-3.451016e-05 -1.196067e-08 -1.175135e-05) (-6.940190e-05 -4.356154e-11 -1.216078e-07)) ((-4.750303e-13 -3.173240e-09 -2.801189e-13) (-4.325467e-12 4.661529e-06 1.634284e-12))
0.119159      	((-3.562087e-05 1.304738e-08 -1.185955e-05) (-6.126077e-05 -3.805139e-11 -1.792882e-07)) ((-3.877640e-13 -3.893869e-09 2.202455e-13) (-5.571963e-12 4.136571e-06 1.239157e-12))
0.154991      	((-2.714392e-05 -5.947749e-09 -9.599029e-06) (-5.396754e-05 -3.557219e-11 -2.476153e-07)) ((-2.161257e-13 -2.697972e-09 5.914740e-14) (-6.453766e-12 3.665770e-06 7.372281e-13))
0.197989      	((-2.694208e-05 4.688498e-09 -9.253537e-06) (-4.758692e-05 -3.409572e-11 -3.309857e-07)) ((-7.589221e-14 -3.153266e-09 -5.980012e-14) (-6.661878e-12 3.252839e-06 3.718751e-13))
0.249587      	((-2.151325e-05 -2.871258e-09 -7.886723e-06) (-4.207325e-05 -3.629434e-11 -4.230608e-07)) ((-1.155572e-13 -2.369617e-09 -1.187964e-13) (-6.505412e-12 2.892796e-06 5.847753e-13))
0.311504      	((-2.078008e-05 1.721321e-09 -7.511040e-06) (-3.731361e-05 -3.816609e-11 -5.040954e-07)) ((7.331452e-14 -2.674548e-09 -5.121344e-14) (-6.041609e-12 2.579827e-06 1.037165e-12))
0.385805      	((-1.727757e-05 -1.530756e-10 -6.659659e-06) (-3.318568e-05 -8.620349e-12 -5.884327e-07)) ((-7.671224e-15 -2.184324e-09 -6.918298e-14) (-5.113498e-12 2.307363e-06 2.019047e-13))
0.474966      	((-1.632212e-05 1.818774e-09 -6.336214e-06) (-2.959699e-05 4.986645e-11 -6.543144e-07)) ((1.336929e-13 -2.300908e-09 9.006477e-15) (-3.420462e-12 2.069781e-06 -1.536915e-12))
0.581959      	((-1.395972e-05 9.341002e-10 -5.797448e-06) (-2.647590e-05 7.574361e-11 -7.212226e-07)) ((2.034883e-13 -2.001409e-09 2.945608e-15) (9.257425e-13 1.863033e-06 -2.001355e-12))
0.710351      	((-1.309148e-05 2.123070e-09 -5.519593e-06) (-2.375697e-05 1.196875e-10 -7.795313e-07)) ((3.341357e-13 -2.034353e-09 5.151342e-14) (4.446880e-12 1.683363e-06 -3.754383e-12))
0.864421      	((-1.141926e-05 1.598689e-09 -5.224434e-06) (-2.137520e-05 1.343225e-10 -8.395568e-07)) ((3.971151e-13 -1.848676e-09 2.275378e-14) (4.665386e-12 1.526488e-06 -5.578150e-12))
1.049306      	((-1.066067e-05 9.954588e-10 -5.064648e-06) (-1.927454e-05 1.359333e-10 -8.907977e-07)) ((4.147942e-13 -1.860781e-09 2.381264e-13) (5.169202e-12 1.388721e-06 -4.510109e-12))
1.271167      	((-9.400168e-06 1.205605e-09 -4.891248e-06) (-1.740460e-05 1.409075e-10 -9.378459e-07)) ((5.457837e-13 -1.737226e-09 3.303532e-13) (3.354840e-12 1.266650e-06 -3.072747e-12))
1.5374        	((-8.734271e-06 1.033554e-09 -4.794656e-06) (-1.573861e-05 1.785504e-10 -9.755729e-07)) ((6.285315e-13 -1.730328e-09 4.155423e-13) (2.687372e-12 1.158464e-06 -2.393659e-12))
1.85688       	((-7.787931e-06 1.760657e-09 -4.704721e-06) (-1.426303e-05 2.979653e-10 -1.011627e-06)) ((7.087601e-13 -1.639129e-09 4.651919e-13) (9.104319e-14 1.062994e-06 -8.900063e-13))
2.240256      	((-7.246828e-06 8.343789e-10 -4.714092e-06) (-1.296591e-05 3.415362e-10 -1.043976e-06)) ((7.165431e-13 -1.627537e-09 3.798581e-13) (-4.738800e-12 9.796695e-07 2.504609e-12))
2.700307      	((-6.555005e-06 6.503049e-10 -4.735366e-06) (-1.183488e-05 3.281920e-10 -1.082488e-06)) ((7.469472e-13 -1.574675e-09 3.101181e-13) (-6.368612e-12 9.073508e-07 9.679809e-12))
3.252369      	((-6.157977e-06 8.118959e-10 -4.810033e-06) (-1.085436e-05 4.173211e-10 -1.123455e-06)) ((7.972306e-13 -1.571363e-09 1.371763e-13) (2.002272e-12 8.448754e-07 1.975458e-11))
3.914842      	((-5.690505e-06 -5.301900e-10 -4.901161e-06) (-9.996764e-06 5.330246e-10 -1.168081e-06)) ((8.126453e-13 -1.546870e-09 1.581881e-13) (8.869165e-12 7.905306e-07 2.634444e-11))
4.709811      	((-5.422692e-06 -3.745747e-10 -5.070548e-06) (-9.241517e-06 5.509935e-10 -1.215002e-06)) ((7.019556e-13 -1.551137e-09 2.480723e-13) (1.531169e-11 7.428113e-07 2.926039e-11))
5.663773      	((-5.136934e-06 -1.075577e-09 -5.245478e-06) (-8.567647e-06 6.215474e-10 -1.270559e-06)) ((5.162852e-13 -1.544434e-09 3.494055e-13) (1.899217e-11 7.005224e-07 2.829767e-11))
6.808528      	((-4.951676e-06 -2.484469e-10 -5.482608e-06) (-7.961770e-06 6.360508e-10 -1.334601e-06)) ((1.637646e-13 -1.553068e-09 4.242985e-13) (1.696102e-11 6.629428e-07 2.603151e-11))
8.182233      	((-4.763859e-06 3.621057e-10 -5.693592e-06) (-7.416420e-06 7.509379e-10 -1.405619e-06)) ((3.019044e-14 -1.553596e-09 5.095947e-13) (9.332408e-12 6.295214e-07 2.626550e-11))
9.83068       	((-4.651281e-06 9.917813e-10 -5.951780e-06) (-6.924506e-06 6.323637e-10 -1.484814e-06)) ((-5.660952e-14 -1.563776e-09 5.465956e-13) (4.157288e-13 5.997346e-07 2.673594e-11))
11.808816     	((-4.575577e-06 1.446534e-09 -6.232089e-06) (-6.482410e-06 4.730317e-10 -1.573816e-06)) ((-9.562949e-14 -1.572806e-09 5.671733e-13) (-1.006544e-11 5.732159e-07 2.749805e-11))
14.182579     	((-4.576095e-06 2.270949e-09 -6.542433e-06) (-6.088300e-06 4.031428e-10 -1.673520e-06)) ((-1.273655e-13 -1.587255e-09 4.663898e-13) (-2.003275e-11 5.497482e-07 3.092199e-11))
17.031095     	((-4.599383e-06 9.093193e-10 -6.864917e-06) (-5.743587e-06 3.417651e-10 -1.782566e-06)) ((-7.202014e-14 -1.600528e-09 3.450557e-13) (-3.152272e-11 5.292362e-07 3.162739e-11))
20.449314     	((-4.683893e-06 4.431618e-10 -7.220019e-06) (-5.451223e-06 4.421782e-10 -1.898681e-06)) ((-6.823764e-14 -1.618224e-09 2.661956e-13) (-3.570580e-11 5.117063e-07 2.918443e-11))
24.440847     	((-4.787778e-06 -4.577779e-10 -7.585087e-06) (-5.215850e-06 3.922860e-10 -2.018447e-06)) ((-1.339571e-13 -1.635678e-09 1.785746e-13) (-3.760919e-11 4.972249e-07 2.708754e-11))
29.004478     	((-4.927709e-06 -7.390479e-10 -7.941245e-06) (-5.037287e-06 2.333639e-10 -2.135748e-06)) ((-1.935580e-13 -1.651525e-09 1.474354e-13) (-4.161111e-11 4.855631e-07 2.278826e-11))
34.139441     	((-5.080924e-06 -1.120007e-09 -8.263115e-06) (-4.911516e-06 1.909394e-11 -2.243337e-06)) ((-2.129857e-13 -1.663677e-09 1.448533e-13) (-4.748777e-11 4.764201e-07 2.245741e-11))
39.845369     	((-5.268379e-06 -1.071125e-09 -8.544787e-06) (-4.831805e-06 -2.115546e-10 -2.334532e-06)) ((-1.887928e-13 -1.674728e-09 1.384412e-13) (-5.467713e-11 4.694927e-07 2.591888e-11))
45.553571     	((-5.440237e-06 -1.265111e-09 -8.764850e-06) (-4.790516e-06 -3.571350e-10 -2.400383e-06)) ((-1.553288e-13 -1.686151e-09 1.446477e-13) (-6.127995e-11 4.647059e-07 3.114742e-11))
51.264121     	((-5.599251e-06 -1.401169e-09 -8.924772e-06) (-4.773229e-06 -4.880904e-10 -2.441944e-06)) ((-1.205042e-13 -1.696660e-09 1.529508e-13) (-6.585614e-11 4.615896e-07 3.624902e-11))
56.980478     	((-5.721607e-06 -1.389444e-09 -9.042250e-06) (-4.769164e-06 -5.631872e-10 -2.465005e-06)) ((-7.698566e-14 -1.705182e-09 1.611371e-13) (-6.815931e-11 4.596957e-07 3.859037e-11))
62.705387     	((-5.817342e-06 -1.509431e-09 -9.131413e-06) (-4.770665e-06 -5.924678e-10 -2.476345e-06)) ((-6.346146e-14 -1.712260e-09 1.737290e-13) (-6.906877e-11 4.585718e-07 3.890330e-11))
68.440421     	((-5.884712e-06 -1.532876e-09 -9.194159e-06) (-4.773745e-06 -6.020184e-10 -2.480633e-06)) ((1.439155e-14 -1.717187e-09 1.786486e-13) (-6.837705e-11 4.579372e-07 3.809496e-11))
74.186347     	((-5.928906e-06 -1.426471e-09 -9.236389e-06) (-4.776330e-06 -5.766415e-10 -2.481765e-06)) ((1.085527e-13 -1.720552e-09 1.697311e-13) (-6.566197e-11 4.575766e-07 3.644412e-11))
79.943038     	((-5.956647e-06 -1.374756e-09 -9.267680e-06) (-4.777989e-06 -5.344052e-10 -2.481911e-06)) ((1.649593e-13 -1.722506e-09 1.609798e-13) (-6.358448e-11 4.573641e-07 3.410889e-11))
85.689209     	((-5.975597e-06 -1.183946e-09 -9.293746e-06) (-4.779030e-06 -4.919297e-10 -2.482188e-06)) ((2.063075e-13 -1.723996e-09 1.541945e-13) (-6.196183e-11 4.572267e-07 3.204855e-11))
91.410647     	((-5.990999e-06 -1.143257e-09 -9.316161e-06) (-4.779974e-06 -4.626759e-10 -2.482454e-06)) ((2.160080e-13 -1.726176e-09 1.522453e-13) (-6.131675e-11 4.571572e-07 3.017830e-11))
97.114578     	((-6.000666e-06 -8.644435e-10 -9.333767e-06) (-4.781146e-06 -4.227869e-10 -2.482286e-06)) ((1.743916e-13 -1.728061e-09 1.528554e-13) (-6.206452e-11 4.571544e-07 2.807838e-11))
102.806849    	((-6.005537e-06 -8.930558e-10 -9.339127e-06) (-4.782523e-06 -3.943415e-10 -2.482185e-06)) ((1.351329e-13 -1.729085e-09 1.578017e-13) (-6.390661e-11 4.571717e-07 2.641598e-11))
108.491633    	((-6.007234e-06 -7.984715e-10 -9.340719e-06) (-4.783938e-06 -3.785615e-10 -2.482163e-06)) ((1.081278e-13 -1.729585e-09 1.615130e-13) (-6.549822e-11 4.571921e-07 2.580990e-11))
114.171527    	((-6.006635e-06 -6.746206e-10 -9.341076e-06) (-4.785290e-06 -3.617726e-10 -2.482245e-06)) ((9.263817e-14 -1.729697e-09 1.604858e-13) (-6.567191e-11 4.572098e-07 2.618281e-11))
119.84788     	((-6.004937e-06 -6.842231e-10 -9.339028e-06) (-4.786517e-06 -3.542280e-10 -2.482484e-06)) ((8.820101e-14 -1.729597e-09 1.603864e-13) (-6.541919e-11 4.572223e-07 2.711684e-11))
125.52128     	((-6.003113e-06 -4.013670e-10 -9.337969e-06) (-4.787658e-06 -3.267009e-10 -2.482872e-06)) ((7.771006e-14 -1.729362e-09 1.600711e-13) (-6.429136e-11 4.572322e-07 2.800946e-11))
131.191907    	((-6.001161e-06 -6.275156e-10 -9.337434e-06) (-4.788779e-06 -3.065633e-10 -2.483387e-06)) ((7.716853e-14 -1.729080e-09 1.599544e-13) (-6.368955e-11 4.572411e-07 2.847015e-11))
136.859875    	((-5.997744e-06 -3.994308e-10 -9.336909e-06) (-4.789878e-06 -2.791088e-10 -2.483956e-06)) ((6.229834e-14 -1.728764e-09 1.610407e-13) (-6.321900e-11 4.572469e-07 2.850748e-11))
142.525308    	((-5.992629e-06 -4.979680e-10 -9.338837e-06) (-4.790898e-06 -2.549062e-10 -2.484473e-06)) ((5.060213e-14 -1.728439e-09 1.633789e-13) (-6.309888e-11 4.572460e-07 2.828674e-11))
148.188396    	((-5.985238e-06 -3.662487e-10 -9.346227e-06) (-4.791758e-06 -2.342422e-10 -2.484825e-06)) ((3.672796e-14 -1.728097e-09 1.661463e-13) (-6.328557e-11 4.572343e-07 2.800978e-11))
153.849389    	((-5.974837e-06 -2.374973e-10 -9.353332e-06) (-4.792335e-06 -2.147256e-10 -2.484942e-06)) ((2.410954e-14 -1.727691e-09 1.703353e-13) (-6.351446e-11 4.572063e-07 2.774370e-11))
159.508568    	((-5.962033e-06 -1.046454e-10 -9.359876e-06) (-4.792525e-06 -1.951515e-10 -2.484732e-06)) ((1.043773e-14 -1.727259e-09 1.747433e-13) (-6.357605e-11 4.571580e-07 2.749781e-11))
165.16619     	((-5.947916e-06 -1.570114e-10 -9.365465e-06) (-4.792260e-06 -1.856407e-10 -2.484205e-06)) ((4.699557e-15 -1.726847e-09 1.790627e-13) (-6.397579e-11 4.570881e-07 2.729316e-11))
170.822466    	((-5.932747e-06 -1.265228e-10 -9.371188e-06) (-4.791549e-06 -1.777345e-10 -2.483457e-06)) ((-2.273944e-16 -1.726439e-09 1.809385e-13) (-6.446550e-11 4.570003e-07 2.732991e-11))
176.477531    	((-5.915693e-06 -6.059304e-11 -9.378686e-06) (-4.790397e-06 -1.501487e-10 -2.482572e-06)) ((3.099871e-16 -1.725921e-09 1.809853e-13) (-6.480684e-11 4.568940e-07 2.777547e-11))
182.13144     	((-5.898375e-06 -6.234478e-10 -9.385646e-06) (-4.788833e-06 -1.581790e-10 -2.481601e-06)) ((1.843601e-14 -1.725409e-09 1.771352e-13) (-6.616534e-11 4.567698e-07 2.841200e-11))
187.784199    	((-5.882027e-06 -2.807246e-10 -9.389810e-06) (-4.786939e-06 -1.590937e-10 -2.480646e-06)) ((2.249007e-14 -1.724962e-09 1.740691e-13) (-6.693308e-11 4.566337e-07 2.927934e-11))
193.435764    	((-5.866928e-06 -2.758054e-10 -9.391167e-06) (-4.784863e-06 -1.567505e-10 -2.479794e-06)) ((3.553845e-14 -1.724483e-09 1.700187e-13) (-6.699143e-11 4.564916e-07 3.026376e-11))
199.08606     	((-5.856005e-06 -6.600959e-10 -9.395414e-06) (-4.782852e-06 -1.766623e-10 -2.479213e-06)) ((5.938107e-14 -1.724148e-09 1.656660e-13) (-6.772665e-11 4.563540e-07 3.128444e-11))
204.735026    	((-5.849027e-06 -8.693663e-10 -9.401534e-06) (-4.781139e-06 -2.023056e-10 -2.479082e-06)) ((8.184579e-14 -1.724005e-09 1.608173e-13) (-6.855266e-11 4.562351e-07 3.235644e-11))
210.38262     	((-5.845923e-06 -9.821498e-10 -9.404904e-06) (-4.779976e-06 -2.272461e-10 -2.479466e-06)) ((1.025875e-13 -1.723950e-09 1.570507e-13) (-6.907507e-11 4.561455e-07 3.348549e-11))
216.028822    	((-5.846739e-06 -9.007599e-10 -9.407482e-06) (-4.779568e-06 -2.400999e-10 -2.480314e-06)) ((1.229515e-13 -1.723964e-09 1.525434e-13) (-6.895822e-11 4.560907e-07 3.460283e-11))
221.673614    	((-5.850022e-06 -8.827393e-10 -9.410688e-06) (-4.779988e-06 -2.426015e-10 -2.481434e-06)) ((1.457368e-13 -1.724050e-09 1.492223e-13) (-6.834327e-11 4.560716e-07 3.552816e-11))
227.316953    	((-5.854537e-06 -9.629216e-10 -9.415489e-06) (-4.781190e-06 -2.423974e-10 -2.482616e-06)) ((1.638321e-13 -1.724189e-09 1.476315e-13) (-6.766267e-11 4.560850e-07 3.613320e-11))
232.958763    	((-5.859231e-06 -9.904579e-10 -9.421838e-06) (-4.783023e-06 -2.404800e-10 -2.483705e-06)) ((1.764090e-13 -1.724349e-09 1.459904e-13) (-6.708474e-11 4.561251e-07 3.641343e-11))
238.59895     	((-5.863454e-06 -9.610556e-10 -9.427369e-06) (-4.785273e-06 -2.356105e-10 -2.484631e-06)) ((1.823114e-13 -1.724477e-09 1.453273e-13) (-6.663767e-11 4.561841e-07 3.648183e-11))
