# Forces      
# CofR        : (0.000000e+00 0.000000e+00 0.000000e+00)
# Time        forces(pressure viscous)	moments(pressure viscous)
0             	((0.000000e+00 0.000000e+00 0.000000e+00) (0.000000e+00 0.000000e+00 0.000000e+00)) ((0.000000e+00 0.000000e+00 0.000000e+00) (0.000000e+00 0.000000e+00 0.000000e+00))
0.012         	((6.927630e-09 -7.658950e-07 7.170173e-09) (1.545949e-10 -8.365256e-09 2.369364e-10)) ((5.868040e-11 2.824958e-12 1.092388e-08) (-1.569147e-10 -3.524875e-12 2.123526e-05))
0.0264        	((-1.858761e-08 2.674310e-07 -9.421040e-08) (1.071607e-10 -9.157026e-09 -9.937110e-10)) ((1.342979e-10 6.434447e-12 3.865783e-09) (-2.499356e-10 -2.832402e-13 1.860295e-05))
0.04368       	((2.009678e-08 -1.372132e-07 -2.880241e-07) (-6.303571e-11 -5.506643e-09 -3.413733e-09)) ((-4.472284e-11 1.246008e-11 2.548462e-09) (-1.628647e-10 1.332491e-11 1.615655e-05))
0.064416      	((6.390437e-10 -3.826112e-08 -5.294955e-07) (-9.961077e-10 -1.523623e-09 -1.206688e-09)) ((3.353347e-11 1.281166e-11 2.094277e-09) (-1.443846e-11 4.607078e-11 1.398465e-05))
0.0892992     	((-7.781692e-09 -7.804962e-08 -8.381160e-07) (-2.016360e-09 9.253438e-10 1.399057e-08)) ((-7.892360e-12 2.096383e-11 1.818683e-09) (7.550305e-11 9.134973e-11 1.214453e-05))
0.119159      	((7.624110e-09 -3.419136e-08 -1.114256e-06) (-3.641373e-09 3.265957e-09 3.063325e-08)) ((-1.990072e-12 2.225432e-11 1.525145e-09) (1.486812e-10 1.305852e-10 1.062896e-05))
0.154991      	((-4.740602e-09 -6.095428e-08 -1.466285e-06) (-5.551057e-09 5.301949e-09 6.141561e-08)) ((-1.136050e-11 2.057154e-11 1.326225e-09) (1.672617e-10 1.442933e-10 9.367074e-06))
0.197989      	((2.821287e-08 -3.544846e-08 -1.785629e-06) (-6.572553e-09 5.918743e-09 1.213935e-07)) ((-9.677358e-12 2.222900e-11 1.172892e-09) (1.625464e-10 1.285892e-10 8.274950e-06))
0.249587      	((1.110275e-08 -6.850033e-08 -2.091269e-06) (-7.199269e-09 5.090365e-09 2.106077e-07)) ((-9.289202e-12 2.541195e-11 1.052551e-09) (1.382936e-10 1.353272e-10 7.314075e-06))
0.311504      	((4.972788e-08 -6.578502e-08 -2.408293e-06) (-7.275010e-09 2.674890e-09 3.294067e-07)) ((-9.786936e-12 2.648771e-11 9.428640e-10) (1.284836e-10 1.944047e-10 6.474249e-06))
0.385805      	((7.169541e-08 -5.757396e-08 -2.689260e-06) (-6.871509e-09 7.155054e-11 4.747082e-07)) ((-4.499182e-12 2.846592e-11 8.440121e-10) (9.846569e-11 3.019601e-10 5.748325e-06))
0.474966      	((9.800244e-08 -5.442859e-08 -2.970815e-06) (-7.372582e-09 -8.275977e-10 6.402687e-07)) ((-1.991198e-12 3.593663e-11 7.555552e-10) (9.406497e-11 3.573784e-10 5.123585e-06))
0.581959      	((5.691540e-08 -1.066433e-08 -3.309922e-06) (-8.981750e-09 -2.571108e-09 8.263453e-07)) ((-3.820650e-12 3.339871e-11 6.739993e-10) (1.724200e-10 3.397317e-10 4.583491e-06))
0.710351      	((4.573597e-08 -1.451881e-08 -3.677936e-06) (-1.144547e-08 1.189457e-10 1.036879e-06)) ((2.663186e-12 1.815503e-11 6.025493e-10) (2.185040e-10 3.803267e-10 4.112500e-06))
0.864421      	((1.236227e-10 4.302302e-09 -4.093330e-06) (-1.204094e-08 3.714241e-09 1.271072e-06)) ((7.376823e-12 9.022601e-14 5.444055e-10) (2.341551e-10 4.085748e-10 3.699717e-06))
1.049306      	((2.323561e-08 2.265509e-08 -4.546436e-06) (-1.302114e-08 6.606745e-09 1.536336e-06)) ((1.244346e-11 -1.998157e-12 4.963183e-10) (2.389761e-10 3.487981e-10 3.338916e-06))
1.271167      	((1.924398e-08 4.141549e-08 -5.000843e-06) (-1.325946e-08 5.594450e-09 1.831184e-06)) ((1.002876e-11 -8.453352e-12 4.548771e-10) (1.865240e-10 3.232586e-10 3.026577e-06))
1.5374        	((6.316915e-08 3.174797e-08 -5.470392e-06) (-6.820198e-09 2.308621e-09 2.145763e-06)) ((1.025079e-11 -9.692874e-12 4.124782e-10) (4.281558e-11 2.409316e-10 2.759598e-06))
1.85688       	((8.479825e-08 -8.615136e-09 -5.947799e-06) (4.667639e-09 -1.883942e-09 2.471947e-06)) ((1.149209e-11 -9.425432e-12 3.761716e-10) (-1.583309e-10 -3.322476e-13 2.533206e-06))
2.240256      	((6.508140e-08 -3.565917e-08 -6.451193e-06) (1.435688e-08 -9.062623e-09 2.807442e-06)) ((9.058778e-12 -1.527619e-11 3.426401e-10) (-3.519270e-10 -2.742536e-10 2.340430e-06))
2.700307      	((2.475157e-08 -5.420168e-08 -7.055757e-06) (2.523186e-08 -1.630457e-08 3.152478e-06)) ((3.808024e-12 -2.761186e-11 3.107766e-10) (-5.288087e-10 -4.390946e-10 2.173488e-06))
3.252369      	((1.843616e-08 -6.081385e-08 -7.748215e-06) (3.500486e-08 -2.532233e-08 3.505963e-06)) ((-4.319651e-13 -3.484370e-11 2.800997e-10) (-6.504412e-10 -5.370486e-10 2.025482e-06))
3.914842      	((-9.909728e-10 -7.591211e-08 -8.509350e-06) (3.976878e-08 -2.984504e-08 3.872065e-06)) ((-2.194291e-12 -3.754758e-11 2.542839e-10) (-7.305743e-10 -5.784808e-10 1.891650e-06))
4.709811      	((1.159591e-09 -6.258785e-08 -9.303248e-06) (3.879770e-08 -2.843303e-08 4.261471e-06)) ((-4.174622e-12 -4.156239e-11 2.322277e-10) (-7.451541e-10 -5.476700e-10 1.769345e-06))
5.663773      	((7.503014e-09 -6.917505e-08 -1.016448e-05) (3.729052e-08 -2.342816e-08 4.676536e-06)) ((-2.098205e-12 -4.480836e-11 2.113428e-10) (-5.981165e-10 -4.574600e-10 1.656868e-06))
6.808528      	((-2.055017e-08 -1.010627e-07 -1.107699e-05) (2.761156e-08 -1.915983e-08 5.127584e-06)) ((-2.299224e-12 -4.729083e-11 1.927838e-10) (-4.283722e-10 -2.562836e-10 1.553070e-06))
8.182233      	((-2.724786e-08 -9.175646e-08 -1.200268e-05) (1.576824e-08 -1.470769e-08 5.618460e-06)) ((-2.022457e-12 -4.697498e-11 1.775525e-10) (-3.051314e-10 1.460113e-12 1.457530e-06))
9.83068       	((-4.011967e-08 -8.165145e-08 -1.290392e-05) (4.835638e-09 -6.792564e-09 6.150640e-06)) ((-4.486671e-12 -4.805203e-11 1.627351e-10) (-1.925514e-10 1.646148e-10 1.370221e-06))
11.808816     	((-5.389230e-08 -7.258833e-08 -1.379797e-05) (-2.413412e-09 -5.967552e-09 6.714750e-06)) ((-5.577598e-12 -5.182736e-11 1.489892e-10) (-1.021074e-10 1.298367e-10 1.291730e-06))
14.161304     	((-5.296581e-08 -6.975400e-08 -1.467199e-05) (-2.279641e-10 -8.777918e-09 7.297598e-06)) ((-8.070051e-12 -5.774445e-11 1.377185e-10) (6.227650e-12 -1.120614e-10 1.223186e-06))
16.897703     	((-2.380122e-08 -6.116965e-08 -1.550115e-05) (7.489500e-09 -7.396051e-09 7.887190e-06)) ((-1.137605e-11 -6.592266e-11 1.292428e-10) (3.437770e-10 -5.008238e-10 1.165615e-06))
20.029041     	((-3.527253e-08 -7.720248e-08 -1.629917e-05) (9.897003e-09 -1.819555e-09 8.466427e-06)) ((-1.112096e-11 -7.709368e-11 1.210168e-10) (7.534004e-10 -7.863148e-10 1.118557e-06))
23.566051     	((-3.339782e-08 -7.860866e-08 -1.703311e-05) (1.053933e-08 6.743443e-09 9.038058e-06)) ((-1.066923e-11 -8.810684e-11 1.134098e-10) (1.133895e-09 -9.186539e-10 1.080707e-06))
27.508679     	((-2.591785e-08 -7.382836e-08 -1.773134e-05) (1.056397e-08 1.451661e-08 9.599638e-06)) ((-8.498651e-12 -1.000596e-10 1.068675e-10) (1.416824e-09 -9.682873e-10 1.050645e-06))
31.564138     	((-9.423940e-09 -5.982859e-08 -1.836933e-05) (7.000243e-09 2.020243e-08 1.014064e-05)) ((-8.090726e-12 -1.119762e-10 1.015525e-10) (1.681766e-09 -9.608151e-10 1.028041e-06))
35.618852     	((5.432265e-09 -4.670911e-08 -1.890427e-05) (3.095287e-09 2.440365e-08 1.066347e-05)) ((-7.149292e-12 -1.210615e-10 9.733878e-11) (1.953168e-09 -8.839443e-10 1.011836e-06))
39.672748     	((8.396687e-09 -4.918359e-08 -1.932556e-05) (1.939566e-10 2.726480e-08 1.117016e-05)) ((-5.544535e-12 -1.298859e-10 9.364751e-11) (2.070069e-09 -8.007949e-10 1.001304e-06))
43.725724     	((2.315601e-09 -4.071690e-08 -1.961176e-05) (-2.206664e-09 3.033890e-08 1.166313e-05)) ((-5.381488e-12 -1.406827e-10 9.087242e-11) (2.103422e-09 -6.886353e-10 9.959705e-07))
47.777698     	((-3.354614e-09 -2.553292e-08 -1.975654e-05) (-4.560987e-09 3.117603e-08 1.213793e-05)) ((-6.312721e-12 -1.516564e-10 8.889371e-11) (2.101487e-09 -5.819648e-10 9.955933e-07))
51.828631     	((-1.756847e-08 -2.634544e-08 -1.978476e-05) (-7.643582e-09 2.889197e-08 1.259422e-05)) ((-7.561163e-12 -1.628174e-10 8.791312e-11) (2.057546e-09 -4.741400e-10 9.998904e-07))
55.807568     	((-1.944836e-08 -1.860164e-08 -1.974969e-05) (-8.640420e-09 3.019904e-08 1.302984e-05)) ((-8.288467e-12 -1.754749e-10 8.819720e-11) (2.036682e-09 -4.207802e-10 1.008414e-06))
59.714385     	((-2.380553e-08 -2.918137e-08 -1.965664e-05) (-8.489700e-09 2.731451e-08 1.344481e-05)) ((-7.916221e-12 -1.870814e-10 8.977035e-11) (2.012957e-09 -3.990169e-10 1.020637e-06))
63.546105     	((-3.244874e-08 -4.145167e-08 -1.950788e-05) (-9.887612e-09 2.257002e-08 1.382565e-05)) ((-7.269570e-12 -1.979681e-10 9.225590e-11) (1.976483e-09 -3.481996e-10 1.036001e-06))
67.287346     	((-1.859674e-08 -4.616358e-08 -1.930171e-05) (-8.599702e-09 2.022532e-08 1.414926e-05)) ((-7.469007e-12 -2.049788e-10 9.551469e-11) (1.909619e-09 -3.335996e-10 1.053841e-06))
70.941796     	((-5.774407e-09 -4.398545e-08 -1.904998e-05) (-5.844775e-09 1.745895e-08 1.439381e-05)) ((-7.733407e-12 -2.080648e-10 9.901049e-11) (1.832177e-09 -3.121020e-10 1.073299e-06))
74.524603     	((2.515480e-09 -5.002849e-08 -1.878616e-05) (-3.760402e-09 1.429726e-08 1.453951e-05)) ((-7.060526e-12 -2.063026e-10 1.027350e-10) (1.774450e-09 -3.063848e-10 1.093286e-06))
78.036471     	((1.672829e-08 -5.991354e-08 -1.852031e-05) (-1.433572e-09 1.013873e-08 1.458381e-05)) ((-6.609036e-12 -1.997638e-10 1.063510e-10) (1.707806e-09 -3.129935e-10 1.112503e-06))
81.488893     	((3.069427e-08 -6.037138e-08 -1.816108e-05) (2.112296e-09 7.191113e-09 1.452027e-05)) ((-6.498353e-12 -1.872105e-10 1.096287e-10) (1.633861e-09 -3.346274e-10 1.129738e-06))
84.895357     	((3.374397e-08 -5.786370e-08 -1.774119e-05) (2.794181e-09 5.852718e-09 1.435588e-05)) ((-7.030152e-12 -1.725004e-10 1.129702e-10) (1.564705e-09 -3.625529e-10 1.143969e-06))
88.268428     	((4.070196e-08 -5.079350e-08 -1.725191e-05) (3.426567e-09 3.635942e-09 1.410798e-05)) ((-8.182437e-12 -1.572616e-10 1.157345e-10) (1.542516e-09 -4.065815e-10 1.154513e-06))
91.618548     	((3.085348e-08 -3.659256e-08 -1.678216e-05) (6.226607e-09 5.672440e-10 1.382499e-05)) ((-9.645510e-12 -1.464080e-10 1.180006e-10) (1.542083e-09 -4.141171e-10 1.161079e-06))
94.948314     	((1.862445e-08 -2.461537e-08 -1.629950e-05) (8.117529e-09 -6.140745e-11 1.352826e-05)) ((-1.088907e-11 -1.386046e-10 1.192658e-10) (1.596423e-09 -4.001290e-10 1.163843e-06))
