# Forces      
# CofR        : (0.000000e+00 0.000000e+00 0.000000e+00)
# Time        forces(pressure viscous)	moments(pressure viscous)
0             	((0.000000e+00 0.000000e+00 0.000000e+00) (-1.939094e-14 -6.326841e-05 4.114390e-15)) ((0.000000e+00 0.000000e+00 0.000000e+00) (-1.421575e-06 -1.579684e-16 3.076207e-11))
0.012         	((1.664736e-08 -1.840120e-02 4.147257e-03) (1.023998e-10 -7.258227e-05 -4.020267e-08)) ((2.169808e-07 1.415288e-08 3.466258e-09) (-2.095251e-06 1.307800e-13 6.264177e-11))
0.0264        	((-3.011555e-07 1.314595e-03 -2.757566e-04) (-7.153834e-11 -7.401080e-05 -6.254198e-08)) ((-1.565486e-08 -9.038778e-10 -2.244189e-10) (-2.344925e-06 1.319542e-11 8.109130e-11))
0.04368       	((1.486378e-07 3.828068e-03 -3.083285e-04) (1.167123e-11 -6.573235e-05 -5.467771e-08)) ((-4.987119e-08 -1.046747e-09 -9.395117e-10) (-2.088871e-06 2.140028e-11 6.785694e-11))
0.064416      	((7.219645e-08 3.596179e-05 -1.583316e-04) (-1.265236e-09 -5.820722e-05 -2.585073e-08)) ((2.203744e-10 -5.028066e-10 5.437104e-11) (-1.875948e-06 1.327416e-11 8.329970e-11))
0.0892992     	((-5.713826e-08 -4.706152e-05 -9.854993e-05) (-2.563541e-09 -5.372883e-05 -2.083713e-08)) ((1.955327e-09 -2.980054e-10 5.492045e-11) (-1.773567e-06 9.651207e-12 9.471700e-11))
0.119159      	((-6.923983e-09 5.895311e-05 -6.311030e-05) (-2.610183e-09 -4.960903e-05 -4.066126e-08)) ((-1.080796e-09 -1.898368e-10 -1.980407e-11) (-1.660082e-06 1.956886e-11 8.211150e-11))
0.154991      	((1.167933e-08 3.099888e-05 -4.195152e-05) (-2.321069e-09 -4.525714e-05 -5.590433e-08)) ((-6.698487e-10 -1.090488e-10 1.311807e-12) (-1.534192e-06 1.951877e-11 5.118498e-11))
0.197989      	((-8.993130e-09 7.376678e-06 -2.825478e-05) (-1.939935e-09 -4.088609e-05 -6.963831e-08)) ((-2.426960e-10 -6.194437e-11 4.880867e-12) (-1.406410e-06 6.028836e-12 1.194270e-11))
0.249587      	((-1.230325e-08 -1.138836e-06 -1.979723e-05) (-1.647780e-09 -3.662390e-05 -8.573977e-08)) ((-8.683522e-11 -3.522888e-11 3.005265e-12) (-1.279222e-06 -4.022833e-12 -1.454361e-11))
0.311504      	((-1.079122e-08 -4.944905e-06 -1.448024e-05) (-1.358701e-09 -3.260130e-05 -1.043046e-07)) ((-3.105112e-11 -1.817959e-11 2.552878e-12) (-1.155287e-06 -7.044456e-12 -3.093066e-11))
0.385805      	((-3.956884e-09 -6.876321e-06 -1.112212e-05) (-1.037598e-09 -2.892179e-05 -1.235734e-07)) ((-9.486692e-12 -7.389967e-12 2.055341e-12) (-1.037696e-06 -7.979753e-12 -3.981186e-11))
0.474966      	((-1.794356e-09 -7.895729e-06 -8.954708e-06) (-5.692043e-10 -2.564292e-05 -1.425279e-07)) ((7.063473e-12 -1.174387e-12 1.842897e-12) (-9.293118e-07 -7.558686e-12 -4.521986e-11))
0.581959      	((4.511931e-10 -8.323412e-06 -7.603565e-06) (-1.842171e-10 -2.276308e-05 -1.616916e-07)) ((1.973469e-11 2.706825e-12 1.588644e-12) (-8.312108e-07 -5.054802e-12 -4.409851e-11))
0.710351      	((5.303844e-10 -8.309527e-06 -6.770520e-06) (7.588591e-11 -2.026085e-05 -1.789512e-07)) ((2.790576e-11 5.154127e-12 1.332316e-12) (-7.438328e-07 -2.307652e-12 -3.886820e-11))
0.864421      	((6.364181e-10 -8.014366e-06 -6.275154e-06) (3.213398e-10 -1.810464e-05 -1.930460e-07)) ((3.179508e-11 6.541769e-12 1.607651e-12) (-6.671561e-07 5.819264e-13 -2.634405e-11))
1.049306      	((2.256497e-10 -7.576231e-06 -5.979674e-06) (4.614238e-10 -1.624974e-05 -2.055900e-07)) ((3.267255e-11 7.235043e-12 1.663591e-12) (-6.002314e-07 4.204754e-12 -1.035696e-11))
1.271167      	((3.364955e-10 -7.075533e-06 -5.815956e-06) (4.903348e-10 -1.464843e-05 -2.191110e-07)) ((3.192045e-11 7.574642e-12 1.417536e-12) (-5.417066e-07 6.308907e-12 1.679725e-12))
1.5374        	((1.869408e-10 -6.549663e-06 -5.731409e-06) (4.526227e-10 -1.325312e-05 -2.350015e-07)) ((2.983461e-11 7.565186e-12 1.282734e-12) (-4.902909e-07 6.509230e-12 6.895933e-12))
1.85688       	((1.665104e-10 -6.032912e-06 -5.700391e-06) (4.117199e-10 -1.202340e-05 -2.534516e-07)) ((2.738285e-11 7.410382e-12 1.225111e-12) (-4.448376e-07 6.451728e-12 1.277341e-11))
2.240256      	((1.402062e-10 -5.546739e-06 -5.695221e-06) (3.000863e-10 -1.093119e-05 -2.739810e-07)) ((2.553641e-11 7.224432e-12 1.229109e-12) (-4.044299e-07 6.529282e-12 1.824696e-11))
2.700307      	((-1.202456e-10 -5.096855e-06 -5.705686e-06) (1.671268e-10 -9.956842e-06 -2.962104e-07)) ((2.394335e-11 6.943217e-12 1.283226e-12) (-3.683691e-07 6.481698e-12 1.891859e-11))
3.252369      	((-5.374733e-11 -4.681957e-06 -5.718177e-06) (1.079489e-10 -9.084827e-06 -3.202497e-07)) ((2.245417e-11 6.515999e-12 1.280412e-12) (-3.360903e-07 6.276375e-12 1.921709e-11))
3.914842      	((-1.057379e-11 -4.301314e-06 -5.731613e-06) (1.319075e-10 -8.302711e-06 -3.461483e-07)) ((2.101964e-11 6.118076e-12 1.182314e-12) (-3.071334e-07 6.179341e-12 2.283897e-11))
4.709811      	((-5.245318e-11 -3.956546e-06 -5.740602e-06) (1.786903e-10 -7.601468e-06 -3.736641e-07)) ((1.999915e-11 5.748821e-12 1.021920e-12) (-2.811626e-07 6.073245e-12 2.284509e-11))
5.663773      	((-2.199425e-10 -3.649324e-06 -5.745918e-06) (1.463082e-10 -6.974112e-06 -4.026550e-07)) ((1.948187e-11 5.416680e-12 9.089881e-13) (-2.579203e-07 6.275378e-12 1.775646e-11))
6.808528      	((-2.487026e-10 -3.378330e-06 -5.742312e-06) (7.185869e-11 -6.414085e-06 -4.331227e-07)) ((1.934516e-11 5.106061e-12 8.423422e-13) (-2.371664e-07 6.675124e-12 1.411256e-11))
8.182233      	((-8.107002e-10 -3.141976e-06 -5.731018e-06) (3.650714e-11 -5.914601e-06 -4.651978e-07)) ((1.943589e-11 4.785594e-12 8.073509e-13) (-2.186515e-07 7.620367e-12 1.121665e-11))
9.83068       	((-1.112188e-09 -2.940727e-06 -5.707658e-06) (6.425812e-12 -5.468904e-06 -4.988942e-07)) ((1.982595e-11 4.481280e-12 8.090372e-13) (-2.021276e-07 9.957390e-12 6.811397e-12))
11.808816     	((-8.788401e-10 -2.773802e-06 -5.677784e-06) (-3.758332e-11 -5.070644e-06 -5.340972e-07)) ((2.049965e-11 4.205585e-12 8.511657e-13) (-1.873585e-07 1.242007e-11 1.257151e-12))
14.182579     	((-5.345810e-10 -2.638801e-06 -5.638796e-06) (-6.126207e-11 -4.714461e-06 -5.706532e-07)) ((2.148404e-11 3.942526e-12 9.212435e-13) (-1.741438e-07 1.445198e-11 -4.826963e-12))
17.031095     	((-5.756575e-10 -2.535340e-06 -5.591678e-06) (-7.254416e-11 -4.396315e-06 -6.082979e-07)) ((2.280859e-11 3.717266e-12 1.011750e-12) (-1.623351e-07 1.626564e-11 -1.030150e-11))
20.449314     	((-7.126319e-10 -2.463155e-06 -5.536969e-06) (-8.564767e-11 -4.113292e-06 -6.465747e-07)) ((2.447683e-11 3.499634e-12 1.131083e-12) (-1.518286e-07 1.720809e-11 -1.461648e-11))
24.551176     	((-8.818034e-10 -2.421659e-06 -5.472572e-06) (-1.132590e-10 -3.863186e-06 -6.847474e-07)) ((2.649923e-11 3.273579e-12 1.284565e-12) (-1.425489e-07 1.826997e-11 -1.917085e-11))
29.473411     	((-1.061041e-09 -2.408504e-06 -5.400921e-06) (-1.725499e-10 -3.644217e-06 -7.219293e-07)) ((2.891828e-11 3.059392e-12 1.465013e-12) (-1.344356e-07 1.937626e-11 -2.434054e-11))
35.380094     	((-9.449319e-10 -2.421078e-06 -5.320103e-06) (-2.103954e-10 -3.454761e-06 -7.572589e-07)) ((3.170117e-11 2.841728e-12 1.672546e-12) (-1.274444e-07 1.907913e-11 -2.944018e-11))
42.468112     	((-7.807067e-10 -2.458828e-06 -5.231523e-06) (-2.287862e-10 -3.293181e-06 -7.902115e-07)) ((3.490378e-11 2.625325e-12 1.922152e-12) (-1.215337e-07 1.734303e-11 -3.427740e-11))
50.973735     	((-3.977716e-10 -2.515910e-06 -5.134277e-06) (-2.179219e-10 -3.158288e-06 -8.206133e-07)) ((3.842736e-11 2.460301e-12 2.203573e-12) (-1.166654e-07 1.342591e-11 -3.867493e-11))
61.180482     	((-1.056627e-10 -2.585894e-06 -5.029271e-06) (-1.742860e-10 -3.048120e-06 -8.483254e-07)) ((4.202170e-11 2.364362e-12 2.484769e-12) (-1.127701e-07 8.061938e-12 -4.077861e-11))
73.257993     	((1.980780e-10 -2.662072e-06 -4.913446e-06) (-1.188511e-10 -2.961079e-06 -8.723167e-07)) ((4.525984e-11 2.345146e-12 2.793498e-12) (-1.097587e-07 2.639521e-12 -4.200778e-11))
87.192174     	((5.303287e-10 -2.734362e-06 -4.787744e-06) (-3.333912e-11 -2.893906e-06 -8.912231e-07)) ((4.792557e-11 2.425647e-12 3.006463e-12) (-1.074616e-07 -2.848044e-12 -4.256937e-11))
102.969647    	((8.344190e-10 -2.793654e-06 -4.649664e-06) (8.271616e-11 -2.841344e-06 -9.040409e-07)) ((4.988011e-11 2.536476e-12 3.176096e-12) (-1.056633e-07 -7.924944e-12 -4.182220e-11))
120.584352    	((1.222226e-09 -2.834989e-06 -4.501688e-06) (2.268792e-10 -2.798545e-06 -9.113678e-07)) ((5.136235e-11 2.654519e-12 3.302680e-12) (-1.041836e-07 -1.299820e-11 -3.982135e-11))
138.982773    	((1.511028e-09 -2.862776e-06 -4.357665e-06) (3.746328e-10 -2.763091e-06 -9.145833e-07)) ((5.254580e-11 2.764613e-12 3.415240e-12) (-1.029663e-07 -1.766683e-11 -3.811198e-11))
157.44071     	((1.703843e-09 -2.878978e-06 -4.225367e-06) (5.010509e-10 -2.733068e-06 -9.157481e-07)) ((5.341121e-11 2.908142e-12 3.514876e-12) (-1.019527e-07 -2.183796e-11 -3.716902e-11))
175.939613    	((1.812470e-09 -2.886842e-06 -4.106902e-06) (5.977293e-10 -2.707166e-06 -9.160654e-07)) ((5.402335e-11 3.085376e-12 3.598514e-12) (-1.010936e-07 -2.515392e-11 -3.657630e-11))
194.454963    	((1.886773e-09 -2.890721e-06 -4.002017e-06) (6.821050e-10 -2.684803e-06 -9.161070e-07)) ((5.443847e-11 3.267085e-12 3.664648e-12) (-1.003611e-07 -2.799565e-11 -3.596372e-11))
212.978565    	((1.861792e-09 -2.891499e-06 -3.908680e-06) (7.533967e-10 -2.665453e-06 -9.161049e-07)) ((5.471164e-11 3.439702e-12 3.713466e-12) (-9.973135e-08 -3.002123e-11 -3.528177e-11))
231.512197    	((1.804160e-09 -2.890556e-06 -3.825171e-06) (7.902529e-10 -2.648658e-06 -9.161134e-07)) ((5.489583e-11 3.600265e-12 3.756604e-12) (-9.918710e-08 -3.113949e-11 -3.480441e-11))
250.056738    	((1.610047e-09 -2.888401e-06 -3.749195e-06) (8.088480e-10 -2.634013e-06 -9.161944e-07)) ((5.501704e-11 3.751045e-12 3.793298e-12) (-9.871371e-08 -3.126819e-11 -3.429742e-11))
268.610917    	((1.372750e-09 -2.885847e-06 -3.680052e-06) (8.134718e-10 -2.621223e-06 -9.163649e-07)) ((5.509379e-11 3.893556e-12 3.823627e-12) (-9.830058e-08 -3.043161e-11 -3.370929e-11))
287.173409    	((1.096155e-09 -2.883121e-06 -3.617255e-06) (8.011182e-10 -2.610036e-06 -9.166176e-07)) ((5.513984e-11 4.026939e-12 3.847829e-12) (-9.793896e-08 -2.882752e-11 -3.319877e-11))
305.743359    	((8.495953e-10 -2.880285e-06 -3.560187e-06) (7.769066e-10 -2.600210e-06 -9.169404e-07)) ((5.516579e-11 4.152199e-12 3.867421e-12) (-9.762053e-08 -2.682552e-11 -3.260274e-11))
324.320003    	((6.100233e-10 -2.877715e-06 -3.508652e-06) (7.483688e-10 -2.591578e-06 -9.172787e-07)) ((5.518765e-11 4.269076e-12 3.884875e-12) (-9.734101e-08 -2.473504e-11 -3.199548e-11))
342.9026      	((3.706805e-10 -2.875136e-06 -3.462065e-06) (7.155344e-10 -2.583982e-06 -9.176216e-07)) ((5.519814e-11 4.377079e-12 3.899730e-12) (-9.709509e-08 -2.269541e-11 -3.138832e-11))
361.490505    	((1.219268e-10 -2.872551e-06 -3.419654e-06) (6.758814e-10 -2.577278e-06 -9.179626e-07)) ((5.520315e-11 4.477194e-12 3.912859e-12) (-9.687812e-08 -2.049376e-11 -3.074833e-11))
380.083171    	((-7.830465e-11 -2.870000e-06 -3.380999e-06) (6.348286e-10 -2.571339e-06 -9.182939e-07)) ((5.520242e-11 4.571064e-12 3.924512e-12) (-9.668599e-08 -1.834104e-11 -3.015869e-11))
398.680111    	((-2.725599e-10 -2.867588e-06 -3.345853e-06) (5.923788e-10 -2.566066e-06 -9.186070e-07)) ((5.520052e-11 4.656516e-12 3.934519e-12) (-9.651558e-08 -1.622648e-11 -2.959443e-11))
417.280884    	((-4.523072e-10 -2.865364e-06 -3.313966e-06) (5.497780e-10 -2.561380e-06 -9.188949e-07)) ((5.519882e-11 4.734282e-12 3.943396e-12) (-9.636442e-08 -1.422163e-11 -2.903637e-11))
435.885091    	((-6.207595e-10 -2.863258e-06 -3.284915e-06) (5.082656e-10 -2.557204e-06 -9.191609e-07)) ((5.519520e-11 4.805678e-12 3.950904e-12) (-9.622992e-08 -1.234700e-11 -2.846276e-11))
454.492376    	((-7.533986e-10 -2.861284e-06 -3.258598e-06) (4.688446e-10 -2.553473e-06 -9.194086e-07)) ((5.518982e-11 4.870913e-12 3.957513e-12) (-9.610987e-08 -1.065490e-11 -2.800727e-11))
473.102429    	((-8.578483e-10 -2.859471e-06 -3.234622e-06) (4.336810e-10 -2.550138e-06 -9.196410e-07)) ((5.518377e-11 4.931437e-12 3.963132e-12) (-9.600250e-08 -9.201656e-12 -2.762949e-11))
491.714974    	((-9.551844e-10 -2.857790e-06 -3.212792e-06) (4.025692e-10 -2.547152e-06 -9.198546e-07)) ((5.517835e-11 4.986681e-12 3.968258e-12) (-9.590634e-08 -7.906602e-12 -2.731351e-11))
510.329764    	((-1.042075e-09 -2.856251e-06 -3.192995e-06) (3.740535e-10 -2.544477e-06 -9.200463e-07)) ((5.517367e-11 5.036836e-12 3.972902e-12) (-9.582022e-08 -6.717800e-12 -2.707187e-11))
528.946577    	((-1.126302e-09 -2.854846e-06 -3.174990e-06) (3.476453e-10 -2.542079e-06 -9.202149e-07)) ((5.516996e-11 5.082446e-12 3.977004e-12) (-9.574314e-08 -5.641453e-12 -2.691574e-11))
547.565217    	((-1.201593e-09 -2.853568e-06 -3.158599e-06) (3.239117e-10 -2.539928e-06 -9.203616e-07)) ((5.516684e-11 5.124232e-12 3.980638e-12) (-9.567414e-08 -4.660290e-12 -2.684712e-11))
566.185504    	((-1.274278e-09 -2.852375e-06 -3.143671e-06) (3.025280e-10 -2.537995e-06 -9.204880e-07)) ((5.516423e-11 5.161949e-12 3.983831e-12) (-9.561229e-08 -3.723741e-12 -2.677304e-11))
584.80728     	((-1.324737e-09 -2.851282e-06 -3.130073e-06) (2.838390e-10 -2.536255e-06 -9.205967e-07)) ((5.516223e-11 5.196568e-12 3.986608e-12) (-9.555679e-08 -2.917308e-12 -2.669722e-11))
603.430401    	((-1.372185e-09 -2.850295e-06 -3.117715e-06) (2.677489e-10 -2.534690e-06 -9.206881e-07)) ((5.516122e-11 5.227947e-12 3.989082e-12) (-9.550703e-08 -2.239898e-12 -2.661490e-11))
622.054737    	((-1.420880e-09 -2.849398e-06 -3.106477e-06) (2.532100e-10 -2.533282e-06 -9.207636e-07)) ((5.516062e-11 5.256419e-12 3.991304e-12) (-9.546243e-08 -1.634294e-12 -2.653736e-11))
640.680171    	((-1.462690e-09 -2.848554e-06 -3.096225e-06) (2.402917e-10 -2.532011e-06 -9.208268e-07)) ((5.516006e-11 5.282622e-12 3.993296e-12) (-9.542233e-08 -1.089972e-12 -2.647144e-11))
659.306599    	((-1.500201e-09 -2.847791e-06 -3.086906e-06) (2.288851e-10 -2.530864e-06 -9.208787e-07)) ((5.516008e-11 5.306547e-12 3.995122e-12) (-9.538627e-08 -6.010647e-13 -2.641509e-11))
677.933927    	((-1.534859e-09 -2.847095e-06 -3.078431e-06) (2.184752e-10 -2.529829e-06 -9.209203e-07)) ((5.516054e-11 5.328283e-12 3.996738e-12) (-9.535386e-08 -1.606518e-13 -2.636576e-11))
696.56207     	((-1.567346e-09 -2.846461e-06 -3.070713e-06) (2.089973e-10 -2.528894e-06 -9.209535e-07)) ((5.516131e-11 5.348052e-12 3.998170e-12) (-9.532469e-08 2.455633e-13 -2.631997e-11))
715.190951    	((-1.597523e-09 -2.845881e-06 -3.063689e-06) (2.004057e-10 -2.528049e-06 -9.209798e-07)) ((5.516224e-11 5.366064e-12 3.999436e-12) (-9.529841e-08 6.133208e-13 -2.627068e-11))
733.820503    	((-1.626350e-09 -2.845344e-06 -3.057282e-06) (1.924010e-10 -2.527285e-06 -9.210001e-07)) ((5.516336e-11 5.382457e-12 4.000565e-12) (-9.527471e-08 9.526152e-13 -2.622401e-11))
752.450662    	((-1.652918e-09 -2.844864e-06 -3.051462e-06) (1.850254e-10 -2.526593e-06 -9.210150e-07)) ((5.516476e-11 5.397354e-12 4.001569e-12) (-9.525334e-08 1.267440e-12 -2.617661e-11))
771.081373    	((-1.680155e-09 -2.844423e-06 -3.046164e-06) (1.780316e-10 -2.525967e-06 -9.210252e-07)) ((5.516622e-11 5.410737e-12 4.002500e-12) (-9.523407e-08 1.568498e-12 -2.612727e-11))
789.712585    	((-1.705837e-09 -2.844017e-06 -3.041327e-06) (1.714059e-10 -2.525400e-06 -9.210321e-07)) ((5.516757e-11 5.422916e-12 4.003340e-12) (-9.521666e-08 1.858533e-12 -2.607759e-11))
808.344252    	((-1.730810e-09 -2.843652e-06 -3.036936e-06) (1.649827e-10 -2.524887e-06 -9.210359e-07)) ((5.516904e-11 5.433974e-12 4.004091e-12) (-9.520093e-08 2.135993e-12 -2.602808e-11))
826.976331    	((-1.750611e-09 -2.843316e-06 -3.032936e-06) (1.592111e-10 -2.524422e-06 -9.210369e-07)) ((5.517047e-11 5.444046e-12 4.004767e-12) (-9.518672e-08 2.386857e-12 -2.597777e-11))
845.608786    	((-1.772048e-09 -2.843010e-06 -3.029293e-06) (1.538480e-10 -2.524000e-06 -9.210360e-07)) ((5.517193e-11 5.453153e-12 4.005374e-12) (-9.517387e-08 2.619670e-12 -2.592728e-11))
864.241582    	((-1.792708e-09 -2.842734e-06 -3.025979e-06) (1.486225e-10 -2.523618e-06 -9.210334e-07)) ((5.517339e-11 5.461405e-12 4.005926e-12) (-9.516225e-08 2.845631e-12 -2.588025e-11))
882.874687    	((-1.813528e-09 -2.842478e-06 -3.022956e-06) (1.435480e-10 -2.523271e-06 -9.210295e-07)) ((5.517478e-11 5.468897e-12 4.006430e-12) (-9.515172e-08 3.066432e-12 -2.583390e-11))
901.508075    	((-1.832430e-09 -2.842244e-06 -3.020204e-06) (1.387543e-10 -2.522956e-06 -9.210245e-07)) ((5.517610e-11 5.475713e-12 4.006885e-12) (-9.514221e-08 3.278281e-12 -2.578669e-11))
920.141719    	((-1.850930e-09 -2.842032e-06 -3.017697e-06) (1.341589e-10 -2.522671e-06 -9.210188e-07)) ((5.517740e-11 5.481930e-12 4.007283e-12) (-9.513358e-08 3.481705e-12 -2.573917e-11))
938.775597    	((-1.868406e-09 -2.841838e-06 -3.015413e-06) (1.297646e-10 -2.522412e-06 -9.210124e-07)) ((5.517864e-11 5.487569e-12 4.007646e-12) (-9.512577e-08 3.676920e-12 -2.569104e-11))
957.409688    	((-1.884526e-09 -2.841662e-06 -3.013334e-06) (1.256183e-10 -2.522176e-06 -9.210057e-07)) ((5.517983e-11 5.492693e-12 4.007972e-12) (-9.511868e-08 3.862101e-12 -2.564399e-11))
976.043972    	((-1.900316e-09 -2.841500e-06 -3.011443e-06) (1.216428e-10 -2.521963e-06 -9.209987e-07)) ((5.518094e-11 5.497327e-12 4.008267e-12) (-9.511226e-08 4.040626e-12 -2.559773e-11))
994.678432    	((-1.914345e-09 -2.841353e-06 -3.009717e-06) (1.179090e-10 -2.521769e-06 -9.209916e-07)) ((5.518202e-11 5.501569e-12 4.008529e-12) (-9.510643e-08 4.208699e-12 -2.555270e-11))
1013.313053   	((-1.927782e-09 -2.841218e-06 -3.008135e-06) (1.144050e-10 -2.521592e-06 -9.209844e-07)) ((5.518300e-11 5.505458e-12 4.008782e-12) (-9.510114e-08 4.366218e-12 -2.550953e-11))
1031.947819   	((-1.940449e-09 -2.841097e-06 -3.006706e-06) (1.110897e-10 -2.521432e-06 -9.209772e-07)) ((5.518397e-11 5.508943e-12 4.008994e-12) (-9.509635e-08 4.515570e-12 -2.546851e-11))
1050.582719   	((-1.951498e-09 -2.840986e-06 -3.005405e-06) (1.079929e-10 -2.521286e-06 -9.209702e-07)) ((5.518486e-11 5.512112e-12 4.009199e-12) (-9.509200e-08 4.654887e-12 -2.542973e-11))
1069.217739   	((-1.962010e-09 -2.840885e-06 -3.004220e-06) (1.051148e-10 -2.521154e-06 -9.209634e-07)) ((5.518571e-11 5.514990e-12 4.009378e-12) (-9.508805e-08 4.784510e-12 -2.539387e-11))
1087.852869   	((-1.971927e-09 -2.840792e-06 -3.003138e-06) (1.024124e-10 -2.521034e-06 -9.209567e-07)) ((5.518650e-11 5.517615e-12 4.009548e-12) (-9.508446e-08 4.906429e-12 -2.536110e-11))
1106.4881     	((-1.981162e-09 -2.840708e-06 -3.002154e-06) (9.986895e-11 -2.520924e-06 -9.209501e-07)) ((5.518726e-11 5.519994e-12 4.009702e-12) (-9.508121e-08 5.020777e-12 -2.533125e-11))
1125.123422   	((-1.989192e-09 -2.840631e-06 -3.001257e-06) (9.752327e-11 -2.520825e-06 -9.209439e-07)) ((5.518797e-11 5.522167e-12 4.009845e-12) (-9.507825e-08 5.126373e-12 -2.530429e-11))
1143.758827   	((-1.996728e-09 -2.840560e-06 -3.000439e-06) (9.535065e-11 -2.520734e-06 -9.209378e-07)) ((5.518861e-11 5.524145e-12 4.009973e-12) (-9.507557e-08 5.224190e-12 -2.528009e-11))
