# Forces      
# CofR        : (0.000000e+00 0.000000e+00 0.000000e+00)
# Time        forces(pressure viscous)	moments(pressure viscous)
0             	((0.000000e+00 0.000000e+00 0.000000e+00) (-1.201823e-14 -3.991827e-05 2.586371e-15)) ((0.000000e+00 0.000000e+00 0.000000e+00) (-8.969219e-07 -9.982532e-17 1.930321e-11))
0.012         	((1.120570e-08 -1.160942e-02 2.618137e-03) (6.526149e-11 -4.580121e-05 -1.946753e-08)) ((1.369060e-07 8.928961e-09 2.187703e-09) (-1.321938e-06 2.915540e-14 3.966270e-11))
0.0264        	((-1.863679e-07 8.166602e-04 -1.695692e-04) (-4.577557e-11 -4.671676e-05 -3.007384e-08)) ((-9.753131e-09 -5.665304e-10 -1.432606e-10) (-1.479764e-06 8.297499e-12 5.168242e-11))
0.04368       	((8.966916e-08 2.421902e-03 -1.920787e-04) (-1.088934e-11 -4.150417e-05 -2.485875e-08)) ((-3.154017e-08 -6.591651e-10 -5.909927e-10) (-1.318240e-06 1.348216e-11 4.348511e-11))
0.064416      	((5.072230e-08 2.275929e-05 -9.766593e-05) (-7.739509e-10 -3.675765e-05 -1.152879e-08)) ((1.463310e-10 -3.168494e-10 3.149003e-11) (-1.183637e-06 7.725720e-12 5.249179e-11))
0.0892992     	((-3.848933e-08 -3.103381e-05 -6.042728e-05) (-1.473497e-09 -3.393290e-05 -8.982569e-09)) ((1.261611e-09 -1.884813e-10 3.456952e-11) (-1.118967e-06 5.244023e-12 5.819616e-11))
0.119159      	((-1.009775e-08 3.680828e-05 -3.786818e-05) (-1.401831e-09 -3.133230e-05 -1.712897e-08)) ((-6.830145e-10 -1.192960e-10 -9.887175e-12) (-1.047199e-06 1.059054e-11 4.886659e-11))
0.154991      	((7.707154e-09 1.958920e-05 -2.458964e-05) (-1.237197e-09 -2.858041e-05 -2.385417e-08)) ((-4.222960e-10 -6.910091e-11 8.626761e-13) (-9.674704e-07 1.037484e-11 3.279499e-11))
0.197989      	((5.647986e-09 4.693886e-06 -1.605049e-05) (-1.041911e-09 -2.581058e-05 -2.945908e-08)) ((-1.503682e-10 -4.083580e-11 1.999833e-12) (-8.864546e-07 4.959869e-12 1.264980e-11))
0.249587      	((-2.145518e-09 -6.917428e-07 -1.078430e-05) (-8.134732e-10 -2.310137e-05 -3.576954e-08)) ((-4.857019e-11 -2.402633e-11 2.651995e-12) (-8.056168e-07 -1.288280e-12 -1.396135e-13))
0.311504      	((-4.993000e-09 -3.132515e-06 -7.453042e-06) (-5.744333e-10 -2.053590e-05 -4.309597e-08)) ((-1.447714e-11 -1.270454e-11 2.422744e-12) (-7.266130e-07 -7.322155e-12 -1.436624e-11))
0.385805      	((-1.072121e-09 -4.325247e-06 -5.377155e-06) (-3.899331e-10 -1.818045e-05 -5.067543e-08)) ((-2.038958e-12 -5.882749e-12 1.693703e-12) (-6.514185e-07 -1.134719e-11 -2.412985e-11))
0.474966      	((-4.515104e-10 -4.923020e-06 -4.022859e-06) (-1.198605e-10 -1.607580e-05 -5.803525e-08)) ((8.491108e-12 -1.643806e-12 1.468380e-12) (-5.819771e-07 -1.281034e-11 -2.317504e-11))
0.581959      	((9.150644e-10 -5.173560e-06 -3.193643e-06) (2.067406e-10 -1.422983e-05 -6.539172e-08)) ((1.649017e-11 7.846346e-13 1.345255e-12) (-5.192296e-07 -1.197413e-11 -1.527111e-11))
0.710351      	((7.391525e-10 -5.159379e-06 -2.671646e-06) (3.594212e-10 -1.263497e-05 -7.228279e-08)) ((2.164526e-11 2.366360e-12 1.122645e-12) (-4.636439e-07 -1.106922e-11 -1.086928e-11))
0.864421      	((1.020933e-09 -4.976230e-06 -2.373217e-06) (4.066258e-10 -1.127103e-05 -7.813771e-08)) ((2.385823e-11 3.216175e-12 1.209251e-12) (-4.152195e-07 -9.629509e-12 -7.032997e-12))
1.049306      	((7.819499e-10 -4.702113e-06 -2.191750e-06) (4.602876e-10 -1.010691e-05 -8.321959e-08)) ((2.392590e-11 3.686532e-12 1.200269e-12) (-3.733081e-07 -8.194807e-12 8.296407e-13))
1.271167      	((8.055403e-10 -4.392950e-06 -2.097054e-06) (4.315116e-10 -9.109958e-06 -8.828975e-08)) ((2.295066e-11 3.913110e-12 1.050107e-12) (-3.369455e-07 -6.865171e-12 9.664721e-12))
1.5374        	((5.835929e-10 -4.071313e-06 -2.049084e-06) (3.494434e-10 -8.246773e-06 -9.411182e-08)) ((2.140525e-11 3.962003e-12 1.015473e-12) (-3.051638e-07 -5.193829e-12 1.607796e-11))
1.85688       	((4.892312e-10 -3.755161e-06 -2.036348e-06) (3.056112e-10 -7.487948e-06 -1.009483e-07)) ((1.958566e-11 3.856005e-12 9.817148e-13) (-2.771164e-07 -2.991031e-12 2.020514e-11))
2.240256      	((3.706711e-10 -3.455700e-06 -2.039148e-06) (2.710622e-10 -6.813688e-06 -1.086648e-07)) ((1.816040e-11 3.732738e-12 9.628531e-13) (-2.521663e-07 -8.246711e-13 2.392477e-11))
2.700307      	((3.309114e-10 -3.177238e-06 -2.055831e-06) (2.116034e-10 -6.210918e-06 -1.171076e-07)) ((1.690266e-11 3.570195e-12 9.382622e-13) (-2.298544e-07 4.437616e-13 2.590304e-11))
3.252369      	((2.499105e-10 -2.919364e-06 -2.073965e-06) (1.473663e-10 -5.670009e-06 -1.262250e-07)) ((1.566324e-11 3.356321e-12 9.031462e-13) (-2.098278e-07 6.479906e-13 2.454855e-11))
3.914842      	((1.701504e-10 -2.679868e-06 -2.095750e-06) (9.190152e-11 -5.183403e-06 -1.360984e-07)) ((1.441646e-11 3.139455e-12 8.437284e-13) (-1.918068e-07 1.156487e-12 2.013206e-11))
4.709811      	((9.316191e-11 -2.459831e-06 -2.114952e-06) (4.499671e-11 -4.745498e-06 -1.466616e-07)) ((1.332838e-11 2.952090e-12 7.461570e-13) (-1.755848e-07 2.514928e-12 1.771564e-11))
5.663773      	((3.131169e-11 -2.260016e-06 -2.132202e-06) (1.928481e-11 -4.352299e-06 -1.578869e-07)) ((1.246885e-11 2.756969e-12 6.538973e-13) (-1.610150e-07 3.027794e-12 1.935334e-11))
6.808528      	((2.489174e-11 -2.080198e-06 -2.143787e-06) (1.030122e-11 -4.000212e-06 -1.697633e-07)) ((1.180855e-11 2.541194e-12 5.608800e-13) (-1.479673e-07 2.914126e-12 2.148665e-11))
8.182233      	((-8.107681e-11 -1.919774e-06 -2.151158e-06) (1.931176e-12 -3.685194e-06 -1.823035e-07)) ((1.129254e-11 2.365074e-12 4.769038e-13) (-1.362949e-07 3.261544e-12 2.309652e-11))
9.83068       	((-6.423541e-11 -1.777678e-06 -2.153944e-06) (-2.003944e-11 -3.402774e-06 -1.955788e-07)) ((1.090597e-11 2.248750e-12 4.312462e-13) (-1.258329e-07 3.624641e-12 2.247833e-11))
11.808816     	((-1.076997e-10 -1.652241e-06 -2.152226e-06) (-5.448661e-11 -3.148723e-06 -2.096874e-07)) ((1.063331e-11 2.142408e-12 4.181991e-13) (-1.164236e-07 3.906767e-12 2.001816e-11))
14.182579     	((-2.159316e-10 -1.542482e-06 -2.147606e-06) (-7.930722e-11 -2.919685e-06 -2.246758e-07)) ((1.047568e-11 2.014276e-12 4.132063e-13) (-1.079396e-07 4.648147e-12 1.690031e-11))
17.031095     	((-1.969635e-10 -1.447948e-06 -2.138597e-06) (-8.139766e-11 -2.713104e-06 -2.405156e-07)) ((1.044274e-11 1.898375e-12 4.154951e-13) (-1.002822e-07 5.513543e-12 1.245244e-11))
20.449314     	((-1.768171e-10 -1.368440e-06 -2.127378e-06) (-8.504694e-11 -2.527053e-06 -2.570751e-07)) ((1.056839e-11 1.779570e-12 4.281741e-13) (-9.338006e-08 6.462936e-12 7.160525e-12))
24.551176     	((-2.709922e-10 -1.303221e-06 -2.112679e-06) (-8.815194e-11 -2.360117e-06 -2.741364e-07)) ((1.085577e-11 1.649208e-12 4.564883e-13) (-8.718351e-08 7.468061e-12 2.483905e-12))
29.473411     	((-3.064799e-10 -1.252101e-06 -2.095045e-06) (-9.057451e-11 -2.211192e-06 -2.914455e-07)) ((1.129845e-11 1.536245e-12 4.943131e-13) (-8.165365e-08 8.361966e-12 -1.415676e-12))
35.380094     	((-3.634442e-10 -1.214349e-06 -2.073017e-06) (-1.043742e-10 -2.079211e-06 -3.087111e-07)) ((1.187659e-11 1.429497e-12 5.374227e-13) (-7.675365e-08 9.446348e-12 -4.996720e-12))
42.468112     	((-3.058200e-10 -1.189569e-06 -2.047956e-06) (-1.118484e-10 -1.963077e-06 -3.256553e-07)) ((1.260782e-11 1.339957e-12 5.948524e-13) (-7.244671e-08 1.011800e-11 -8.437589e-12))
50.973735     	((-2.480318e-10 -1.176669e-06 -2.019024e-06) (-1.114798e-10 -1.861799e-06 -3.420083e-07)) ((1.348680e-11 1.259305e-12 6.693278e-13) (-6.870226e-08 9.447260e-12 -1.237249e-11))
61.180482     	((-2.031873e-10 -1.175167e-06 -1.987183e-06) (-1.115282e-10 -1.774525e-06 -3.575426e-07)) ((1.452704e-11 1.189687e-12 7.526834e-13) (-6.549572e-08 8.075324e-12 -1.702202e-11))
73.428578     	((-1.099320e-10 -1.183508e-06 -1.951908e-06) (-1.094418e-10 -1.700456e-06 -3.721026e-07)) ((1.570641e-11 1.133864e-12 8.462080e-13) (-6.280443e-08 6.194666e-12 -2.169323e-11))
88.126294     	((-8.427420e-11 -1.199242e-06 -1.913451e-06) (-1.118534e-10 -1.638793e-06 -3.856985e-07)) ((1.693679e-11 1.109762e-12 9.478846e-13) (-6.059846e-08 4.233918e-12 -2.622001e-11))
105.763553    	((8.984870e-12 -1.220364e-06 -1.871017e-06) (-1.080301e-10 -1.588625e-06 -3.982024e-07)) ((1.814138e-11 1.126366e-12 1.040018e-12) (-5.883297e-08 2.355826e-12 -2.991690e-11))
126.474253    	((1.380667e-10 -1.243522e-06 -1.824524e-06) (-9.386534e-11 -1.549051e-06 -4.089885e-07)) ((1.916389e-11 1.176899e-12 1.126916e-12) (-5.746002e-08 4.119850e-13 -3.192476e-11))
150.238809    	((2.828004e-10 -1.264397e-06 -1.774110e-06) (-7.459882e-11 -1.518108e-06 -4.174411e-07)) ((1.994572e-11 1.244667e-12 1.190413e-12) (-5.639255e-08 -1.539860e-12 -3.241209e-11))
177.04436     	((4.847366e-10 -1.279859e-06 -1.719911e-06) (-3.831995e-11 -1.493500e-06 -4.234521e-07)) ((2.053108e-11 1.321241e-12 1.231327e-12) (-5.553819e-08 -3.939518e-12 -3.187046e-11))
206.889423    	((6.800901e-10 -1.289429e-06 -1.664353e-06) (1.390633e-11 -1.473249e-06 -4.272735e-07)) ((2.096650e-11 1.397363e-12 1.262688e-12) (-5.483523e-08 -6.498588e-12 -3.109692e-11))
237.345292    	((8.658844e-10 -1.295697e-06 -1.612857e-06) (7.285565e-11 -1.456615e-06 -4.296367e-07)) ((2.129554e-11 1.471116e-12 1.292313e-12) (-5.426125e-08 -9.247584e-12 -3.051001e-11))
267.865641    	((9.636334e-10 -1.298612e-06 -1.567672e-06) (1.289450e-10 -1.442540e-06 -4.312154e-07)) ((2.152089e-11 1.548253e-12 1.315263e-12) (-5.378231e-08 -1.158578e-11 -3.014462e-11))
298.425537    	((1.033042e-09 -1.300166e-06 -1.527752e-06) (1.765899e-10 -1.430623e-06 -4.323767e-07)) ((2.167496e-11 1.626858e-12 1.335527e-12) (-5.338202e-08 -1.336942e-11 -2.981682e-11))
329.008501    	((1.076011e-09 -1.300926e-06 -1.493344e-06) (2.182740e-10 -1.420505e-06 -4.333203e-07)) ((2.177648e-11 1.700270e-12 1.352189e-12) (-5.304504e-08 -1.474420e-11 -2.931990e-11))
359.610526    	((1.096636e-09 -1.301199e-06 -1.463232e-06) (2.543985e-10 -1.411907e-06 -4.341248e-07)) ((2.184852e-11 1.766306e-12 1.364803e-12) (-5.276043e-08 -1.573712e-11 -2.849973e-11))
390.231049    	((1.094382e-09 -1.301108e-06 -1.436961e-06) (2.807502e-10 -1.404584e-06 -4.348335e-07)) ((2.190061e-11 1.825527e-12 1.374860e-12) (-5.251899e-08 -1.634741e-11 -2.764208e-11))
420.868382    	((1.076347e-09 -1.300770e-06 -1.413605e-06) (2.982936e-10 -1.398324e-06 -4.354705e-07)) ((2.193700e-11 1.879591e-12 1.383213e-12) (-5.231341e-08 -1.664197e-11 -2.676986e-11))
451.520179    	((1.042900e-09 -1.300319e-06 -1.392844e-06) (3.119556e-10 -1.392960e-06 -4.360480e-07)) ((2.196255e-11 1.927838e-12 1.390047e-12) (-5.213778e-08 -1.667624e-11 -2.581067e-11))
482.184383    	((1.008894e-09 -1.299811e-06 -1.374333e-06) (3.223626e-10 -1.388355e-06 -4.365763e-07)) ((2.198181e-11 1.971839e-12 1.396037e-12) (-5.198732e-08 -1.656901e-11 -2.480727e-11))
512.85932     	((9.573068e-10 -1.299278e-06 -1.357960e-06) (3.279103e-10 -1.384390e-06 -4.370580e-07)) ((2.199592e-11 2.011413e-12 1.401136e-12) (-5.185808e-08 -1.625450e-11 -2.381382e-11))
543.543567    	((9.039398e-10 -1.298772e-06 -1.343491e-06) (3.299821e-10 -1.380973e-06 -4.374908e-07)) ((2.200716e-11 2.046476e-12 1.405118e-12) (-5.174701e-08 -1.579450e-11 -2.285349e-11))
574.235901    	((8.509989e-10 -1.298284e-06 -1.330718e-06) (3.290091e-10 -1.378021e-06 -4.378794e-07)) ((2.201596e-11 2.077727e-12 1.408516e-12) (-5.165127e-08 -1.529795e-11 -2.194973e-11))
604.935282    	((7.881303e-10 -1.297827e-06 -1.319399e-06) (3.247021e-10 -1.375467e-06 -4.382261e-07)) ((2.202238e-11 2.105644e-12 1.411438e-12) (-5.156860e-08 -1.471648e-11 -2.107969e-11))
635.640815    	((7.272015e-10 -1.297385e-06 -1.309351e-06) (3.188855e-10 -1.373252e-06 -4.385350e-07)) ((2.202713e-11 2.130287e-12 1.414037e-12) (-5.149702e-08 -1.406374e-11 -2.020607e-11))
666.351722    	((6.611665e-10 -1.296978e-06 -1.300474e-06) (3.115735e-10 -1.371327e-06 -4.388083e-07)) ((2.203137e-11 2.151638e-12 1.416205e-12) (-5.143494e-08 -1.334847e-11 -1.932126e-11))
697.067329    	((5.955752e-10 -1.296598e-06 -1.292617e-06) (3.023912e-10 -1.369653e-06 -4.390496e-07)) ((2.203492e-11 2.170649e-12 1.418354e-12) (-5.138101e-08 -1.257270e-11 -1.851588e-11))
727.787057    	((5.321453e-10 -1.296243e-06 -1.285663e-06) (2.916484e-10 -1.368194e-06 -4.392625e-07)) ((2.203748e-11 2.187620e-12 1.420218e-12) (-5.133406e-08 -1.177454e-11 -1.777368e-11))
758.510401    	((4.713661e-10 -1.295924e-06 -1.279506e-06) (2.802165e-10 -1.366920e-06 -4.394500e-07)) ((2.203935e-11 2.202566e-12 1.421842e-12) (-5.129311e-08 -1.096575e-11 -1.706281e-11))
789.236922    	((4.153310e-10 -1.295631e-06 -1.274057e-06) (2.686245e-10 -1.365808e-06 -4.396140e-07)) ((2.204088e-11 2.215872e-12 1.423210e-12) (-5.125738e-08 -1.017515e-11 -1.638825e-11))
819.966239    	((3.638819e-10 -1.295368e-06 -1.269235e-06) (2.570756e-10 -1.364835e-06 -4.397575e-07)) ((2.204220e-11 2.227436e-12 1.424439e-12) (-5.122617e-08 -9.413722e-12 -1.575383e-11))
850.698017    	((3.170036e-10 -1.295129e-06 -1.264967e-06) (2.453008e-10 -1.363985e-06 -4.398826e-07)) ((2.204338e-11 2.237714e-12 1.425517e-12) (-5.119890e-08 -8.692429e-12 -1.519582e-11))
881.431962    	((2.722555e-10 -1.294913e-06 -1.261191e-06) (2.337344e-10 -1.363240e-06 -4.399917e-07)) ((2.204435e-11 2.246811e-12 1.426454e-12) (-5.117502e-08 -8.010491e-12 -1.469316e-11))
912.167817    	((2.338049e-10 -1.294716e-06 -1.257848e-06) (2.231107e-10 -1.362586e-06 -4.400869e-07)) ((2.204516e-11 2.254950e-12 1.427251e-12) (-5.115410e-08 -7.378713e-12 -1.422687e-11))
942.905355    	((1.972812e-10 -1.294540e-06 -1.254890e-06) (2.131801e-10 -1.362013e-06 -4.401698e-07)) ((2.204584e-11 2.262139e-12 1.427924e-12) (-5.113574e-08 -6.792482e-12 -1.380189e-11))
973.64438     	((1.653537e-10 -1.294381e-06 -1.252273e-06) (2.040291e-10 -1.361509e-06 -4.402423e-07)) ((2.204642e-11 2.268484e-12 1.428507e-12) (-5.111963e-08 -6.252263e-12 -1.341467e-11))
1004.384714   	((1.363429e-10 -1.294241e-06 -1.249961e-06) (1.956062e-10 -1.361066e-06 -4.403054e-07)) ((2.204698e-11 2.274028e-12 1.429022e-12) (-5.110548e-08 -5.756481e-12 -1.306175e-11))
1035.126203   	((1.115642e-10 -1.294114e-06 -1.247914e-06) (1.880039e-10 -1.360677e-06 -4.403606e-07)) ((2.204743e-11 2.278948e-12 1.429469e-12) (-5.109305e-08 -5.307296e-12 -1.274278e-11))
1065.868709   	((8.967307e-11 -1.294001e-06 -1.246102e-06) (1.811953e-10 -1.360334e-06 -4.404086e-07)) ((2.204787e-11 2.283305e-12 1.429864e-12) (-5.108212e-08 -4.904770e-12 -1.245482e-11))
1096.612113   	((7.029136e-11 -1.293901e-06 -1.244500e-06) (1.750674e-10 -1.360033e-06 -4.404506e-07)) ((2.204823e-11 2.287173e-12 1.430206e-12) (-5.107250e-08 -4.543194e-12 -1.219547e-11))
1127.356309   	((5.352412e-11 -1.293810e-06 -1.243081e-06) (1.696444e-10 -1.359768e-06 -4.404870e-07)) ((2.204856e-11 2.290583e-12 1.430513e-12) (-5.106403e-08 -4.221123e-12 -1.196349e-11))
1158.101203   	((3.888621e-11 -1.293729e-06 -1.241827e-06) (1.648513e-10 -1.359534e-06 -4.405189e-07)) ((2.204886e-11 2.293606e-12 1.430777e-12) (-5.105657e-08 -3.935448e-12 -1.175848e-11))
1188.846714   	((2.641366e-11 -1.293657e-06 -1.240712e-06) (1.606846e-10 -1.359328e-06 -4.405467e-07)) ((2.204913e-11 2.296305e-12 1.431008e-12) (-5.105000e-08 -3.685030e-12 -1.157600e-11))
1219.592767   	((1.570587e-11 -1.293594e-06 -1.239732e-06) (1.570851e-10 -1.359146e-06 -4.405710e-07)) ((2.204938e-11 2.298682e-12 1.431215e-12) (-5.104421e-08 -3.465678e-12 -1.141234e-11))
1250.3393     	((5.986911e-12 -1.293537e-06 -1.238863e-06) (1.539822e-10 -1.358986e-06 -4.405923e-07)) ((2.204959e-11 2.300789e-12 1.431393e-12) (-5.103910e-08 -3.272965e-12 -1.126527e-11))
1281.086256   	((-2.756899e-12 -1.293486e-06 -1.238095e-06) (1.512883e-10 -1.358845e-06 -4.406108e-07)) ((2.204978e-11 2.302636e-12 1.431555e-12) (-5.103459e-08 -3.103038e-12 -1.113340e-11))
1311.833585   	((-1.060248e-11 -1.293441e-06 -1.237414e-06) (1.489463e-10 -1.358720e-06 -4.406271e-07)) ((2.204995e-11 2.304278e-12 1.431694e-12) (-5.103061e-08 -2.953324e-12 -1.101485e-11))
1342.581244   	((-1.771609e-11 -1.293400e-06 -1.236815e-06) (1.468980e-10 -1.358610e-06 -4.406413e-07)) ((2.205012e-11 2.305729e-12 1.431818e-12) (-5.102710e-08 -2.820875e-12 -1.090745e-11))
1373.329193   	((-2.417320e-11 -1.293364e-06 -1.236283e-06) (1.451122e-10 -1.358513e-06 -4.406538e-07)) ((2.205029e-11 2.307032e-12 1.431925e-12) (-5.102400e-08 -2.703330e-12 -1.080918e-11))
1404.0774     	((-3.021255e-11 -1.293332e-06 -1.235815e-06) (1.435292e-10 -1.358427e-06 -4.406646e-07)) ((2.205043e-11 2.308164e-12 1.432023e-12) (-5.102127e-08 -2.598106e-12 -1.071989e-11))
1434.825835   	((-3.569474e-11 -1.293304e-06 -1.235397e-06) (1.420998e-10 -1.358351e-06 -4.406742e-07)) ((2.205057e-11 2.309172e-12 1.432107e-12) (-5.101885e-08 -2.503270e-12 -1.063940e-11))
1465.574471   	((-4.054495e-11 -1.293280e-06 -1.235031e-06) (1.408086e-10 -1.358284e-06 -4.406826e-07)) ((2.205070e-11 2.310055e-12 1.432182e-12) (-5.101671e-08 -2.417480e-12 -1.056691e-11))
1496.323284   	((-4.523292e-11 -1.293257e-06 -1.234704e-06) (1.396232e-10 -1.358225e-06 -4.406899e-07)) ((2.205080e-11 2.310839e-12 1.432249e-12) (-5.101482e-08 -2.339469e-12 -1.050180e-11))
1527.072255   	((-4.962513e-11 -1.293237e-06 -1.234411e-06) (1.385266e-10 -1.358173e-06 -4.406963e-07)) ((2.205089e-11 2.311545e-12 1.432308e-12) (-5.101315e-08 -2.268106e-12 -1.044313e-11))
1557.821366   	((-5.367693e-11 -1.293219e-06 -1.234157e-06) (1.375110e-10 -1.358127e-06 -4.407019e-07)) ((2.205098e-11 2.312145e-12 1.432360e-12) (-5.101168e-08 -2.202732e-12 -1.039055e-11))
1588.570601   	((-5.738564e-11 -1.293204e-06 -1.233931e-06) (1.365631e-10 -1.358086e-06 -4.407068e-07)) ((2.205106e-11 2.312682e-12 1.432407e-12) (-5.101038e-08 -2.142747e-12 -1.034325e-11))
1619.319945   	((-6.073612e-11 -1.293190e-06 -1.233733e-06) (1.356833e-10 -1.358050e-06 -4.407111e-07)) ((2.205114e-11 2.313147e-12 1.432451e-12) (-5.100923e-08 -2.087674e-12 -1.030077e-11))
1650.069386   	((-6.385132e-11 -1.293178e-06 -1.233557e-06) (1.348689e-10 -1.358018e-06 -4.407149e-07)) ((2.205120e-11 2.313565e-12 1.432486e-12) (-5.100821e-08 -2.037035e-12 -1.026254e-11))
1680.818914   	((-6.675795e-11 -1.293167e-06 -1.233402e-06) (1.341092e-10 -1.357990e-06 -4.407182e-07)) ((2.205126e-11 2.313923e-12 1.432516e-12) (-5.100731e-08 -1.990565e-12 -1.022827e-11))
1711.568518   	((-6.928494e-11 -1.293158e-06 -1.233264e-06) (1.334085e-10 -1.357965e-06 -4.407211e-07)) ((2.205131e-11 2.314245e-12 1.432546e-12) (-5.100652e-08 -1.948171e-12 -1.019767e-11))
1742.31819    	((-7.158485e-11 -1.293149e-06 -1.233143e-06) (1.327624e-10 -1.357943e-06 -4.407236e-07)) ((2.205136e-11 2.314528e-12 1.432570e-12) (-5.100581e-08 -1.909470e-12 -1.017030e-11))
1773.067922   	((-7.367933e-11 -1.293141e-06 -1.233036e-06) (1.321730e-10 -1.357924e-06 -4.407259e-07)) ((2.205140e-11 2.314780e-12 1.432591e-12) (-5.100519e-08 -1.874386e-12 -1.014584e-11))
1803.817707   	((-7.546018e-11 -1.293135e-06 -1.232940e-06) (1.316244e-10 -1.357907e-06 -4.407278e-07)) ((2.205144e-11 2.315001e-12 1.432611e-12) (-5.100464e-08 -1.842260e-12 -1.012402e-11))
