# Forces      
# CofR        : (0.000000e+00 0.000000e+00 0.000000e+00)
# Time        forces(pressure viscous)	moments(pressure viscous)
0             	((0.000000e+00 0.000000e+00 0.000000e+00) (-5.131077e-13 -1.008505e-03 9.100459e-14)) ((0.000000e+00 0.000000e+00 0.000000e+00) (-2.266006e-05 -2.773589e-15 4.884412e-10))
0.012         	((-1.544316e-07 -2.925408e-01 6.433721e-02) (1.385100e-09 -1.153587e-03 -6.983241e-06)) ((3.438903e-06 2.254450e-07 5.430706e-08) (-3.352416e-05 3.928943e-11 8.169838e-10))
0.0264        	((-1.957379e-06 3.282268e-02 -8.779582e-03) (2.471326e-10 -1.164741e-03 -1.081799e-05)) ((-3.674660e-07 -1.898685e-08 -2.889060e-09) (-3.728437e-05 1.372076e-10 6.994303e-10))
0.04368       	((1.037243e-06 5.441962e-02 -7.229979e-03) (1.152271e-09 -1.022777e-03 -1.074829e-05)) ((-7.268411e-07 -1.741521e-08 -1.654894e-08) (-3.312035e-05 3.363258e-10 2.072799e-10))
0.064416      	((-1.145522e-06 3.661380e-04 -4.509045e-03) (-2.258949e-08 -9.010595e-04 -1.199380e-05)) ((1.881057e-09 -7.871681e-09 2.400330e-09) (-2.993654e-05 5.874755e-10 4.422523e-10))
0.0892992     	((1.099441e-06 1.294809e-04 -3.375237e-03) (-2.873680e-08 -8.291919e-04 -1.479717e-05)) ((1.165015e-08 -3.980036e-09 1.268759e-10) (-2.833918e-05 7.271106e-10 3.713890e-10))
0.119159      	((1.062571e-06 8.513917e-04 -2.720479e-03) (-3.312118e-08 -7.668671e-04 -1.755113e-05)) ((-2.114684e-08 -1.828604e-09 -2.963899e-10) (-2.661452e-05 5.364603e-10 -1.078139e-10))
0.154991      	((-9.401806e-07 1.980223e-04 -2.352707e-03) (-6.448240e-08 -7.046702e-04 -2.009765e-05)) ((-1.163880e-08 -7.764954e-10 8.173341e-11) (-2.481938e-05 4.113400e-10 -5.428241e-10))
0.197989      	((-4.161932e-07 -3.591114e-05 -2.098311e-03) (-9.478968e-08 -6.463564e-04 -2.254725e-05)) ((-8.057644e-09 -7.733516e-11 1.578039e-11) (-2.308290e-05 4.749535e-10 -9.739528e-10))
0.249587      	((-4.828191e-07 -1.214486e-04 -1.940913e-03) (-1.121714e-07 -5.938128e-04 -2.509857e-05)) ((-6.709056e-09 3.987590e-10 5.818898e-11) (-2.144140e-05 5.118721e-10 -1.415575e-09))
0.311504      	((-1.967971e-07 -1.741387e-04 -1.841927e-03) (-1.091731e-07 -5.476001e-04 -2.776103e-05)) ((-5.646168e-09 7.052705e-10 5.088933e-11) (-1.992161e-05 4.632875e-10 -1.565762e-09))
0.385805      	((-2.597485e-07 -2.029588e-04 -1.777989e-03) (-1.008246e-07 -5.069720e-04 -3.062784e-05)) ((-4.748042e-09 8.509685e-10 3.567102e-11) (-1.852539e-05 3.935015e-10 -1.544305e-09))
0.474966      	((-1.778634e-07 -2.177006e-04 -1.735395e-03) (-9.234399e-08 -4.704739e-04 -3.378663e-05)) ((-3.893752e-09 9.230103e-10 6.042221e-11) (-1.722888e-05 3.656695e-10 -1.653164e-09))
0.581959      	((-1.134745e-07 -2.232540e-04 -1.707177e-03) (-7.813311e-08 -4.360339e-04 -3.735706e-05)) ((-3.053375e-09 9.483056e-10 7.191538e-11) (-1.597973e-05 4.132654e-10 -1.998020e-09))
0.710351      	((-5.663318e-08 -2.235261e-04 -1.686696e-03) (-6.351836e-08 -4.025078e-04 -4.136429e-05)) ((-2.254399e-09 9.396245e-10 9.885767e-11) (-1.475136e-05 4.801510e-10 -2.465454e-09))
0.864421      	((-6.208169e-08 -2.221067e-04 -1.671430e-03) (-5.137740e-08 -3.702463e-04 -4.580987e-05)) ((-1.475363e-09 9.032191e-10 1.273478e-10) (-1.356275e-05 4.838002e-10 -2.828119e-09))
1.049306      	((4.357633e-09 -2.219201e-04 -1.658798e-03) (-4.295951e-08 -3.399376e-04 -5.071280e-05)) ((-7.121210e-10 8.553367e-10 1.568708e-10) (-1.244133e-05 3.825318e-10 -3.001849e-09))
1.271167      	((6.203694e-09 -2.252785e-04 -1.646966e-03) (-3.824650e-08 -3.120584e-04 -5.599376e-05)) ((4.715849e-11 7.823480e-10 1.968675e-10) (-1.140584e-05 1.769189e-10 -3.047417e-09))
1.5374        	((-2.053873e-08 -2.332626e-04 -1.634686e-03) (-3.036612e-08 -2.868976e-04 -6.150381e-05)) ((8.235860e-10 6.930562e-10 2.431364e-10) (-1.046782e-05 -3.737946e-11 -3.027572e-09))
1.85688       	((-2.639454e-08 -2.467211e-04 -1.620486e-03) (-1.735464e-08 -2.645928e-04 -6.700726e-05)) ((1.720501e-09 6.086653e-10 2.974445e-10) (-9.635806e-06 -1.415410e-10 -2.885584e-09))
2.240256      	((-2.141832e-08 -2.669574e-04 -1.604489e-03) (-4.512396e-09 -2.452024e-04 -7.219158e-05)) ((2.701881e-09 5.030190e-10 3.661835e-10) (-8.915318e-06 -1.593345e-10 -2.814122e-09))
2.700307      	((-3.448718e-08 -2.948436e-04 -1.586022e-03) (6.864023e-09 -2.286628e-04 -7.683925e-05)) ((3.789233e-09 3.778218e-10 4.438552e-10) (-8.305442e-06 -1.486991e-10 -3.265487e-09))
3.239565      	((4.776958e-08 -3.305000e-04 -1.565781e-03) (7.462194e-09 -2.150208e-04 -8.092926e-05)) ((4.922028e-09 2.346693e-10 5.464349e-10) (-7.803606e-06 -2.587371e-10 -4.336850e-09))
3.857439      	((6.394270e-08 -3.731602e-04 -1.543686e-03) (4.123187e-09 -2.039426e-04 -8.459945e-05)) ((6.037362e-09 7.855471e-11 6.718463e-10) (-7.393670e-06 -4.616316e-10 -5.474476e-09))
4.553305      	((1.707412e-07 -4.220662e-04 -1.520157e-03) (3.654695e-09 -1.949682e-04 -8.789641e-05)) ((7.061339e-09 -1.003242e-10 8.172747e-10) (-7.057071e-06 -6.372960e-10 -6.605645e-09))
5.325501      	((2.548966e-07 -4.768212e-04 -1.494769e-03) (3.698082e-09 -1.877491e-04 -9.065080e-05)) ((7.887793e-09 -2.971238e-10 9.709647e-10) (-6.780989e-06 -7.291949e-10 -7.517088e-09))
6.088399      	((3.056354e-07 -5.319100e-04 -1.466101e-03) (1.002363e-08 -1.825583e-04 -9.242549e-05)) ((8.511912e-09 -4.650673e-10 1.088185e-09) (-6.575716e-06 -7.422938e-10 -7.816287e-09))
6.841304      	((3.696774e-07 -5.824849e-04 -1.433584e-03) (1.633560e-08 -1.787061e-04 -9.327971e-05)) ((9.079074e-09 -6.157653e-10 1.191902e-09) (-6.418832e-06 -7.270113e-10 -7.586086e-09))
7.585517      	((4.579445e-07 -6.269093e-04 -1.397512e-03) (2.971059e-08 -1.757823e-04 -9.331017e-05)) ((9.659000e-09 -7.669115e-10 1.315776e-09) (-6.300674e-06 -8.228418e-10 -6.767798e-09))
8.324408      	((6.001608e-07 -6.614504e-04 -1.359212e-03) (3.882675e-08 -1.733729e-04 -9.290971e-05)) ((1.025042e-08 -8.935990e-10 1.425861e-09) (-6.205212e-06 -1.024692e-09 -6.002692e-09))
9.061748      	((7.582181e-07 -6.867212e-04 -1.320098e-03) (4.184077e-08 -1.713711e-04 -9.227674e-05)) ((1.085633e-08 -9.798962e-10 1.534087e-09) (-6.128680e-06 -1.296601e-09 -5.277114e-09))
9.799729      	((1.083014e-06 -7.007739e-04 -1.279923e-03) (5.866719e-08 -1.695418e-04 -9.149126e-05)) ((1.147305e-08 -1.008667e-09 1.617060e-09) (-6.065678e-06 -1.532494e-09 -4.479270e-09))
10.538548     	((1.342745e-06 -7.028068e-04 -1.239388e-03) (8.382042e-08 -1.677907e-04 -9.063573e-05)) ((1.194645e-08 -9.658504e-10 1.684922e-09) (-6.012347e-06 -1.969332e-09 -3.783035e-09))
11.277267     	((1.439853e-06 -6.962432e-04 -1.201014e-03) (1.009016e-07 -1.660947e-04 -8.974194e-05)) ((1.229349e-08 -8.840643e-10 1.726764e-09) (-5.967530e-06 -2.451002e-09 -3.630100e-09))
12.015        	((1.263987e-06 -6.866174e-04 -1.170236e-03) (1.052341e-07 -1.645154e-04 -8.883800e-05)) ((1.249909e-08 -8.151855e-10 1.733502e-09) (-5.932211e-06 -2.680479e-09 -3.708234e-09))
12.751778     	((1.191213e-06 -6.740160e-04 -1.142359e-03) (1.016560e-07 -1.631204e-04 -8.797247e-05)) ((1.256030e-08 -7.510719e-10 1.705008e-09) (-5.905391e-06 -2.787535e-09 -3.795347e-09))
13.488091     	((1.333456e-06 -6.629354e-04 -1.114407e-03) (9.841255e-08 -1.618146e-04 -8.720802e-05)) ((1.254179e-08 -6.920809e-10 1.666268e-09) (-5.880678e-06 -2.983230e-09 -4.106906e-09))
14.224242     	((1.513679e-06 -6.549865e-04 -1.083960e-03) (1.016728e-07 -1.605836e-04 -8.652721e-05)) ((1.249151e-08 -6.435479e-10 1.647590e-09) (-5.856108e-06 -3.270014e-09 -4.280960e-09))
14.960223     	((1.667894e-06 -6.515417e-04 -1.059644e-03) (1.086100e-07 -1.595052e-04 -8.592104e-05)) ((1.239553e-08 -6.266011e-10 1.643016e-09) (-5.833008e-06 -3.613275e-09 -4.284338e-09))
15.695904     	((1.918295e-06 -6.498908e-04 -1.039648e-03) (1.183646e-07 -1.585756e-04 -8.542023e-05)) ((1.232434e-08 -6.197613e-10 1.639216e-09) (-5.811020e-06 -3.958618e-09 -4.135388e-09))
16.43136      	((2.190638e-06 -6.471697e-04 -1.020132e-03) (1.294326e-07 -1.577110e-04 -8.502488e-05)) ((1.228220e-08 -5.999968e-10 1.631729e-09) (-5.788353e-06 -4.382095e-09 -3.953387e-09))
17.166736     	((2.499581e-06 -6.426053e-04 -9.985133e-04) (1.401688e-07 -1.568401e-04 -8.472728e-05)) ((1.222223e-08 -5.579408e-10 1.624816e-09) (-5.763247e-06 -4.981871e-09 -3.987553e-09))
17.902117     	((2.883075e-06 -6.382703e-04 -9.775913e-04) (1.530252e-07 -1.559689e-04 -8.449937e-05)) ((1.217827e-08 -5.132249e-10 1.619542e-09) (-5.736776e-06 -5.809929e-09 -4.198799e-09))
18.637298     	((3.283369e-06 -6.339739e-04 -9.572795e-04) (1.668914e-07 -1.551102e-04 -8.432415e-05)) ((1.213722e-08 -4.636271e-10 1.616532e-09) (-5.709832e-06 -6.802516e-09 -4.597757e-09))
19.372432     	((3.833040e-06 -6.298539e-04 -9.377169e-04) (1.848384e-07 -1.542695e-04 -8.419058e-05)) ((1.210834e-08 -4.130239e-10 1.613922e-09) (-5.682840e-06 -7.962741e-09 -5.210048e-09))
20.107686     	((4.359537e-06 -6.261906e-04 -9.185484e-04) (2.069701e-07 -1.534592e-04 -8.407495e-05)) ((1.210202e-08 -3.632936e-10 1.610860e-09) (-5.656890e-06 -9.306676e-09 -5.881526e-09))
20.843087     	((4.856633e-06 -6.228389e-04 -9.000380e-04) (2.323485e-07 -1.526869e-04 -8.396649e-05)) ((1.209882e-08 -3.127900e-10 1.606978e-09) (-5.632503e-06 -1.074096e-08 -6.478200e-09))
21.578666     	((5.471049e-06 -6.194786e-04 -8.817268e-04) (2.644445e-07 -1.519506e-04 -8.385600e-05)) ((1.210794e-08 -2.589222e-10 1.601162e-09) (-5.609904e-06 -1.234634e-08 -7.016465e-09))
22.31445      	((6.069794e-06 -6.166168e-04 -8.643827e-04) (3.008466e-07 -1.512564e-04 -8.373634e-05)) ((1.212552e-08 -2.108817e-10 1.596640e-09) (-5.589528e-06 -1.408324e-08 -7.555556e-09))
23.05045      	((6.687542e-06 -6.138346e-04 -8.472955e-04) (3.393194e-07 -1.506009e-04 -8.361533e-05)) ((1.213973e-08 -1.647780e-10 1.593146e-09) (-5.571003e-06 -1.589640e-08 -8.048943e-09))
23.786674     	((7.264713e-06 -6.118783e-04 -8.307580e-04) (3.803030e-07 -1.499913e-04 -8.348984e-05)) ((1.217120e-08 -1.241775e-10 1.591499e-09) (-5.554409e-06 -1.775365e-08 -8.498197e-09))
24.523157     	((7.938443e-06 -6.098406e-04 -8.144447e-04) (4.237992e-07 -1.494237e-04 -8.336237e-05)) ((1.219586e-08 -8.100636e-11 1.590006e-09) (-5.539428e-06 -1.969213e-08 -8.980321e-09))
25.259929     	((8.520465e-06 -6.080400e-04 -7.986594e-04) (4.677078e-07 -1.488918e-04 -8.323069e-05)) ((1.222214e-08 -4.073111e-11 1.589833e-09) (-5.525889e-06 -2.161239e-08 -9.484090e-09))
25.996984     	((9.200918e-06 -6.058770e-04 -7.831867e-04) (5.126282e-07 -1.483824e-04 -8.310161e-05)) ((1.223002e-08 2.040071e-12 1.588821e-09) (-5.513107e-06 -2.355569e-08 -9.959331e-09))
26.734065     	((1.005043e-05 -6.035548e-04 -7.678031e-04) (5.623794e-07 -1.478820e-04 -8.298428e-05)) ((1.222609e-08 4.680711e-11 1.587635e-09) (-5.500339e-06 -2.566661e-08 -1.050551e-08))
27.471103     	((1.070059e-05 -6.014204e-04 -7.528085e-04) (6.119435e-07 -1.473950e-04 -8.287253e-05)) ((1.222166e-08 8.493403e-11 1.586693e-09) (-5.487723e-06 -2.776561e-08 -1.119334e-08))
28.208207     	((1.152576e-05 -5.992226e-04 -7.380866e-04) (6.624406e-07 -1.469192e-04 -8.276156e-05)) ((1.221255e-08 1.263309e-10 1.585535e-09) (-5.475216e-06 -2.991030e-08 -1.194724e-08))
28.945444     	((1.240631e-05 -5.971600e-04 -7.237682e-04) (7.175427e-07 -1.464519e-04 -8.265234e-05)) ((1.220290e-08 1.702090e-10 1.585733e-09) (-5.462677e-06 -3.225979e-08 -1.267314e-08))
29.682921     	((1.340496e-05 -5.951814e-04 -7.099126e-04) (7.773044e-07 -1.459931e-04 -8.254738e-05)) ((1.219440e-08 2.138663e-10 1.586466e-09) (-5.450085e-06 -3.484069e-08 -1.346793e-08))
30.420765     	((1.463071e-05 -5.933658e-04 -6.966041e-04) (8.437144e-07 -1.455485e-04 -8.244363e-05)) ((1.218848e-08 2.612643e-10 1.587557e-09) (-5.437722e-06 -3.783491e-08 -1.435727e-08))
31.158936     	((1.589528e-05 -5.918388e-04 -6.838637e-04) (9.179185e-07 -1.451272e-04 -8.233448e-05)) ((1.218834e-08 3.096556e-10 1.588330e-09) (-5.426127e-06 -4.123475e-08 -1.529034e-08))
31.89735      	((1.734490e-05 -5.901932e-04 -6.714800e-04) (1.000977e-06 -1.447259e-04 -8.222251e-05)) ((1.218382e-08 3.628599e-10 1.587717e-09) (-5.415294e-06 -4.501356e-08 -1.626857e-08))
32.635997     	((1.896485e-05 -5.884320e-04 -6.594692e-04) (1.096334e-06 -1.443385e-04 -8.212118e-05)) ((1.216413e-08 4.204089e-10 1.585772e-09) (-5.404665e-06 -4.925662e-08 -1.725228e-08))
33.374872     	((2.069756e-05 -5.865831e-04 -6.475996e-04) (1.203336e-06 -1.439603e-04 -8.204173e-05)) ((1.213448e-08 4.796337e-10 1.582976e-09) (-5.393656e-06 -5.397336e-08 -1.826736e-08))
34.11398      	((2.260757e-05 -5.847781e-04 -6.359055e-04) (1.322764e-06 -1.435870e-04 -8.198772e-05)) ((1.210179e-08 5.408784e-10 1.580376e-09) (-5.381955e-06 -5.919589e-08 -1.930991e-08))
34.85333      	((2.474305e-05 -5.831349e-04 -6.245482e-04) (1.456024e-06 -1.432184e-04 -8.195224e-05)) ((1.207722e-08 6.021715e-10 1.577568e-09) (-5.369879e-06 -6.499627e-08 -2.045060e-08))
35.592933     	((2.712376e-05 -5.815031e-04 -6.133609e-04) (1.602096e-06 -1.428558e-04 -8.192050e-05)) ((1.206474e-08 6.634605e-10 1.574542e-09) (-5.358086e-06 -7.136928e-08 -2.185108e-08))
36.332802     	((2.976484e-05 -5.799141e-04 -6.021402e-04) (1.761688e-06 -1.425045e-04 -8.187581e-05)) ((1.206432e-08 7.260134e-10 1.571443e-09) (-5.347251e-06 -7.831678e-08 -2.356444e-08))
37.072946     	((3.257235e-05 -5.783259e-04 -5.909463e-04) (1.934835e-06 -1.421683e-04 -8.181414e-05)) ((1.206636e-08 7.906600e-10 1.569013e-09) (-5.337457e-06 -8.584412e-08 -2.555757e-08))
37.813381     	((3.555782e-05 -5.768622e-04 -5.800595e-04) (2.120752e-06 -1.418467e-04 -8.174110e-05)) ((1.207015e-08 8.567206e-10 1.566967e-09) (-5.328401e-06 -9.393016e-08 -2.786211e-08))
38.554108     	((3.859697e-05 -5.756455e-04 -5.695659e-04) (2.315749e-06 -1.415414e-04 -8.165681e-05)) ((1.208014e-08 9.231802e-10 1.564451e-09) (-5.320029e-06 -1.024469e-07 -3.048758e-08))
39.295132     	((4.196795e-05 -5.744270e-04 -5.592518e-04) (2.523364e-06 -1.412491e-04 -8.156549e-05)) ((1.208638e-08 9.960641e-10 1.561304e-09) (-5.312110e-06 -1.115457e-07 -3.335174e-08))
40.036453     	((4.559102e-05 -5.734770e-04 -5.492384e-04) (2.747941e-06 -1.409705e-04 -8.146788e-05)) ((1.209446e-08 1.072540e-09 1.557811e-09) (-5.304625e-06 -1.214100e-07 -3.643000e-08))
40.778082     	((4.956025e-05 -5.724877e-04 -5.394812e-04) (2.992905e-06 -1.407053e-04 -8.136578e-05)) ((1.209727e-08 1.156146e-09 1.553484e-09) (-5.297510e-06 -1.322062e-07 -3.970042e-08))
41.520002     	((5.383343e-05 -5.714641e-04 -5.298399e-04) (3.261674e-06 -1.404502e-04 -8.125939e-05)) ((1.209964e-08 1.243639e-09 1.548888e-09) (-5.290650e-06 -1.440271e-07 -4.304520e-08))
42.262192     	((5.842277e-05 -5.704687e-04 -5.203936e-04) (3.554728e-06 -1.402044e-04 -8.114501e-05)) ((1.210254e-08 1.335289e-09 1.543332e-09) (-5.284091e-06 -1.568200e-07 -4.647187e-08))
43.004649     	((6.339024e-05 -5.695838e-04 -5.112356e-04) (3.873774e-06 -1.399695e-04 -8.102192e-05)) ((1.210481e-08 1.432830e-09 1.537343e-09) (-5.277928e-06 -1.706416e-07 -5.003985e-08))
43.747365     	((6.879913e-05 -5.687192e-04 -5.023119e-04) (4.222795e-06 -1.397451e-04 -8.089459e-05)) ((1.210408e-08 1.537357e-09 1.530781e-09) (-5.272065e-06 -1.856915e-07 -5.369304e-08))
44.490335     	((7.465726e-05 -5.679035e-04 -4.937524e-04) (4.605080e-06 -1.395302e-04 -8.076573e-05)) ((1.209999e-08 1.648824e-09 1.523683e-09) (-5.266408e-06 -2.020626e-07 -5.740551e-08))
45.233547     	((8.100383e-05 -5.671717e-04 -4.855193e-04) (5.022018e-06 -1.393247e-04 -8.063697e-05)) ((1.209157e-08 1.766725e-09 1.516391e-09) (-5.260919e-06 -2.198482e-07 -6.130156e-08))
45.976984     	((8.799557e-05 -5.665870e-04 -4.774585e-04) (5.478018e-06 -1.391304e-04 -8.050880e-05)) ((1.207986e-08 1.895207e-09 1.508881e-09) (-5.255708e-06 -2.392646e-07 -6.544225e-08))
46.720625     	((9.562431e-05 -5.661576e-04 -4.696634e-04) (5.976505e-06 -1.389488e-04 -8.038303e-05)) ((1.206492e-08 2.032869e-09 1.501388e-09) (-5.250885e-06 -2.604301e-07 -6.981118e-08))
47.464442     	((1.039832e-04 -5.659334e-04 -4.620686e-04) (6.522244e-06 -1.387836e-04 -8.025971e-05)) ((1.204705e-08 2.180726e-09 1.494176e-09) (-5.246584e-06 -2.834385e-07 -7.431744e-08))
48.208414     	((1.131594e-04 -5.659875e-04 -4.547432e-04) (7.122418e-06 -1.386368e-04 -8.013913e-05)) ((1.202625e-08 2.340810e-09 1.486411e-09) (-5.242865e-06 -3.085286e-07 -7.892899e-08))
48.952094     	((1.231921e-04 -5.662977e-04 -4.477411e-04) (7.783586e-06 -1.385108e-04 -8.002410e-05)) ((1.200201e-08 2.515152e-09 1.478032e-09) (-5.239791e-06 -3.359706e-07 -8.368866e-08))
49.69535      	((1.341503e-04 -5.669031e-04 -4.409930e-04) (8.510713e-06 -1.384079e-04 -7.991834e-05)) ((1.197600e-08 2.705011e-09 1.469402e-09) (-5.237410e-06 -3.660223e-07 -8.860444e-08))
50.43812      	((1.460232e-04 -5.678496e-04 -4.346765e-04) (9.304456e-06 -1.383311e-04 -7.982078e-05)) ((1.195164e-08 2.910788e-09 1.459825e-09) (-5.235882e-06 -3.988111e-07 -9.389023e-08))
51.180343     	((1.588641e-04 -5.691793e-04 -4.288073e-04) (1.016678e-05 -1.382826e-04 -7.972594e-05)) ((1.193420e-08 3.130205e-09 1.448460e-09) (-5.235586e-06 -4.344562e-07 -9.970388e-08))
51.921961     	((1.728492e-04 -5.708011e-04 -4.232401e-04) (1.110244e-05 -1.382610e-04 -7.963413e-05)) ((1.192281e-08 3.366749e-09 1.436572e-09) (-5.236665e-06 -4.732020e-07 -1.061234e-07))
52.662916     	((1.882048e-04 -5.727969e-04 -4.178825e-04) (1.211863e-05 -1.382665e-04 -7.954780e-05)) ((1.191694e-08 3.621809e-09 1.423795e-09) (-5.239079e-06 -5.154702e-07 -1.133426e-07))
53.403138     	((2.049525e-04 -5.753750e-04 -4.128388e-04) (1.322539e-05 -1.383068e-04 -7.946410e-05)) ((1.191883e-08 3.893706e-09 1.407990e-09) (-5.243026e-06 -5.616415e-07 -1.213792e-07))
54.14256      	((2.229758e-04 -5.785537e-04 -4.081633e-04) (1.443279e-05 -1.383910e-04 -7.938303e-05)) ((1.192961e-08 4.184627e-09 1.388907e-09) (-5.248801e-06 -6.119923e-07 -1.299356e-07))
54.881111     	((2.423295e-04 -5.826006e-04 -4.040227e-04) (1.574681e-05 -1.385308e-04 -7.929922e-05)) ((1.195263e-08 4.499287e-09 1.366408e-09) (-5.256939e-06 -6.668607e-07 -1.389654e-07))
55.618778     	((2.629727e-04 -5.877043e-04 -4.006714e-04) (1.716789e-05 -1.387389e-04 -7.920564e-05)) ((1.199697e-08 4.833187e-09 1.340086e-09) (-5.267938e-06 -7.263673e-07 -1.485237e-07))
56.355516     	((2.850305e-04 -5.937733e-04 -3.978976e-04) (1.870413e-05 -1.390233e-04 -7.909665e-05)) ((1.205628e-08 5.183392e-09 1.309155e-09) (-5.282266e-06 -7.906571e-07 -1.584890e-07))
57.091308     	((3.085285e-04 -6.010177e-04 -3.960176e-04) (2.035365e-05 -1.393860e-04 -7.896785e-05)) ((1.212767e-08 5.545375e-09 1.275897e-09) (-5.300377e-06 -8.596294e-07 -1.694537e-07))
57.82618      	((3.332708e-04 -6.093851e-04 -3.949747e-04) (2.210991e-05 -1.398287e-04 -7.882950e-05)) ((1.220663e-08 5.918535e-09 1.241023e-09) (-5.322194e-06 -9.329845e-07 -1.817312e-07))
58.560184     	((3.593393e-04 -6.190274e-04 -3.948540e-04) (2.397820e-05 -1.403556e-04 -7.869264e-05)) ((1.229834e-08 6.296334e-09 1.207428e-09) (-5.347563e-06 -1.010630e-06 -1.950228e-07))
59.293371     	((3.868614e-04 -6.303912e-04 -3.959129e-04) (2.596862e-05 -1.409845e-04 -7.855560e-05)) ((1.241014e-08 6.683108e-09 1.176295e-09) (-5.376949e-06 -1.092693e-06 -2.089287e-07))
60.025263     	((4.153724e-04 -6.436035e-04 -3.979870e-04) (2.808001e-05 -1.417397e-04 -7.841100e-05)) ((1.254763e-08 7.067992e-09 1.147183e-09) (-5.411290e-06 -1.178986e-06 -2.228559e-07))
60.755499     	((4.447858e-04 -6.585514e-04 -4.012098e-04) (3.030381e-05 -1.426207e-04 -7.825853e-05)) ((1.270113e-08 7.450139e-09 1.118928e-09) (-5.450846e-06 -1.268648e-06 -2.371803e-07))
61.484052     	((4.747501e-04 -6.749276e-04 -4.053492e-04) (3.263274e-05 -1.436263e-04 -7.810369e-05)) ((1.286497e-08 7.835146e-09 1.091904e-09) (-5.495507e-06 -1.361130e-06 -2.519772e-07))
62.210927     	((5.045175e-04 -6.931705e-04 -4.115973e-04) (3.504137e-05 -1.447797e-04 -7.794505e-05)) ((1.305121e-08 8.200210e-09 1.070037e-09) (-5.545670e-06 -1.455849e-06 -2.671997e-07))
62.936163     	((5.342285e-04 -7.129797e-04 -4.187924e-04) (3.751575e-05 -1.461062e-04 -7.778923e-05)) ((1.326556e-08 8.565433e-09 1.057290e-09) (-5.601503e-06 -1.552614e-06 -2.817747e-07))
63.659481     	((5.632449e-04 -7.346631e-04 -4.276903e-04) (4.003924e-05 -1.476150e-04 -7.762160e-05)) ((1.351108e-08 8.914409e-09 1.052723e-09) (-5.663504e-06 -1.651026e-06 -2.949325e-07))
64.380739     	((5.905980e-04 -7.579440e-04 -4.378260e-04) (4.257168e-05 -1.492959e-04 -7.742855e-05)) ((1.378592e-08 9.222512e-09 1.061715e-09) (-5.731727e-06 -1.749385e-06 -3.072538e-07))
65.099912     	((6.149299e-04 -7.822624e-04 -4.499379e-04) (4.506545e-05 -1.511322e-04 -7.720811e-05)) ((1.408298e-08 9.468477e-09 1.084363e-09) (-5.805727e-06 -1.845459e-06 -3.184191e-07))
65.816952     	((6.355772e-04 -8.072409e-04 -4.632881e-04) (4.747687e-05 -1.531124e-04 -7.696085e-05)) ((1.441584e-08 9.647146e-09 1.115590e-09) (-5.884879e-06 -1.937231e-06 -3.268510e-07))
66.532008     	((6.517252e-04 -8.318270e-04 -4.778976e-04) (4.975344e-05 -1.552118e-04 -7.668737e-05)) ((1.477287e-08 9.763320e-09 1.152906e-09) (-5.968305e-06 -2.022840e-06 -3.315400e-07))
67.245362     	((6.622706e-04 -8.549235e-04 -4.929332e-04) (5.184581e-05 -1.573718e-04 -7.639054e-05)) ((1.513020e-08 9.801493e-09 1.193621e-09) (-6.054195e-06 -2.099935e-06 -3.319221e-07))
67.957167     	((6.658454e-04 -8.753719e-04 -5.082142e-04) (5.370050e-05 -1.595150e-04 -7.607525e-05)) ((1.547466e-08 9.740750e-09 1.238814e-09) (-6.140350e-06 -2.166294e-06 -3.268256e-07))
68.667549     	((6.602620e-04 -8.924573e-04 -5.250212e-04) (5.520872e-05 -1.616086e-04 -7.574659e-05)) ((1.581069e-08 9.541436e-09 1.283427e-09) (-6.224896e-06 -2.218125e-06 -3.151386e-07))
69.376716     	((6.451119e-04 -9.048361e-04 -5.421841e-04) (5.623866e-05 -1.636356e-04 -7.540038e-05)) ((1.612466e-08 9.200240e-09 1.322295e-09) (-6.306069e-06 -2.250690e-06 -2.963315e-07))
70.08489      	((6.203352e-04 -9.088023e-04 -5.580215e-04) (5.668626e-05 -1.654723e-04 -7.505205e-05)) ((1.631593e-08 8.753578e-09 1.355789e-09) (-6.379630e-06 -2.260725e-06 -2.714881e-07))
70.7923       	((5.830128e-04 -9.051885e-04 -5.748561e-04) (5.642752e-05 -1.669718e-04 -7.473592e-05)) ((1.639336e-08 8.142036e-09 1.376800e-09) (-6.440504e-06 -2.243804e-06 -2.412655e-07))
71.499234     	((5.305137e-04 -8.928881e-04 -5.929847e-04) (5.528280e-05 -1.680400e-04 -7.447173e-05)) ((1.639034e-08 7.295465e-09 1.371408e-09) (-6.484377e-06 -2.192780e-06 -2.066564e-07))
