# Forces      
# CofR        : (0.000000e+00 0.000000e+00 0.000000e+00)
# Time        forces(pressure viscous)	moments(pressure viscous)
0             	((0.000000e+00 0.000000e+00 0.000000e+00) (-7.719986e-14 -2.520204e-04 1.638341e-14)) ((0.000000e+00 0.000000e+00 0.000000e+00) (-5.662636e-06 -6.292040e-16 1.225744e-10))
0.012         	((3.362724e-08 -7.330451e-02 1.643983e-02) (3.675219e-10 -2.888256e-04 -4.653823e-07)) ((8.638040e-07 5.639289e-08 1.376679e-08) (-8.348660e-06 2.879339e-12 2.408508e-10))
0.0264        	((-1.303008e-06 5.874014e-03 -1.322863e-03) (-1.710856e-10 -2.938271e-04 -7.298439e-07)) ((-6.856677e-08 -3.798951e-09 -7.865522e-10) (-9.329086e-06 4.824436e-11 2.988759e-10))
0.04368       	((6.922095e-07 1.491037e-02 -1.353796e-03) (5.221971e-10 -2.603191e-04 -7.083417e-07)) ((-1.949476e-07 -4.256403e-09 -3.909791e-09) (-8.306859e-06 8.447776e-11 2.320247e-10))
0.064416      	((3.016214e-08 1.367707e-04 -7.380368e-04) (2.632619e-09 -2.302318e-04 -4.768682e-07)) ((7.063264e-10 -2.010805e-09 3.829411e-10) (-7.471014e-06 7.804457e-11 1.959856e-10))
0.0892992     	((2.552092e-07 -1.255687e-04 -4.850047e-04) (3.859100e-09 -2.123391e-04 -5.030037e-07)) ((6.591964e-09 -1.076677e-09 2.279547e-10) (-7.066118e-06 1.556768e-11 -4.248307e-11))
0.119159      	((-2.346332e-07 2.510090e-04 -3.455344e-04) (4.328394e-09 -1.960271e-04 -7.703306e-07)) ((-4.366687e-09 -7.603591e-10 -1.847303e-10) (-6.620834e-06 -6.246108e-12 -2.706360e-10))
0.154991      	((-2.505411e-07 1.181237e-04 -2.593170e-04) (4.967268e-09 -1.790061e-04 -9.744335e-07)) ((-2.475553e-09 -4.701454e-10 -9.384753e-11) (-6.132815e-06 7.861065e-11 -2.564907e-10))
0.197989      	((-1.371591e-08 2.526225e-05 -1.983585e-04) (3.104678e-09 -1.622271e-04 -1.188099e-06)) ((-1.145593e-09 -2.235103e-10 -1.949596e-11) (-5.643219e-06 1.238599e-10 -2.099863e-10))
0.249587      	((-1.172741e-08 -6.855451e-06 -1.628224e-04) (-1.784761e-09 -1.462264e-04 -1.435953e-06)) ((-6.518172e-10 -9.802563e-11 -1.528742e-11) (-5.163529e-06 1.057839e-10 -2.715754e-10))
0.311504      	((-4.846205e-08 -2.282913e-05 -1.401691e-04) (-6.929472e-09 -1.314297e-04 -1.713027e-06)) ((-4.471614e-10 -3.176397e-11 -6.530086e-12) (-4.703234e-06 8.820573e-11 -3.687596e-10))
0.385805      	((-4.029573e-08 -3.166589e-05 -1.262343e-04) (-8.956519e-09 -1.181458e-04 -2.005536e-06)) ((-3.278696e-10 7.084340e-12 -2.408985e-12) (-4.273588e-06 8.166436e-11 -3.701095e-10))
0.474966      	((-2.810180e-08 -3.605171e-05 -1.168463e-04) (-7.721833e-09 -1.064999e-04 -2.286159e-06)) ((-2.411303e-10 3.483087e-11 -1.757204e-12) (-3.882693e-06 8.105503e-11 -2.996469e-10))
0.581959      	((-1.790722e-08 -3.786151e-05 -1.111605e-04) (-6.253234e-09 -9.627680e-05 -2.576382e-06)) ((-1.679596e-10 5.192567e-11 1.313291e-13) (-3.529164e-06 9.283973e-11 -2.426989e-10))
0.710351      	((-8.735175e-09 -3.783255e-05 -1.073357e-04) (-4.932378e-09 -8.707824e-05 -2.844399e-06)) ((-1.022690e-10 6.339158e-11 2.186799e-12) (-3.203452e-06 1.017447e-10 -2.393930e-10))
0.864421      	((1.910059e-10 -3.655232e-05 -1.051452e-04) (-3.207931e-09 -7.867131e-05 -3.086743e-06)) ((-5.825653e-11 6.822235e-11 3.038348e-12) (-2.900244e-06 9.653147e-11 -2.629047e-10))
1.049306      	((-6.576357e-10 -3.457093e-05 -1.035912e-04) (-1.751474e-09 -7.100483e-05 -3.335286e-06)) ((-2.726926e-11 7.138522e-11 1.913703e-12) (-2.620134e-06 8.706775e-11 -2.978103e-10))
1.271167      	((-1.407490e-09 -3.224569e-05 -1.027186e-04) (-6.579433e-10 -6.407347e-05 -3.610966e-06)) ((-9.488823e-12 7.155150e-11 1.252414e-12) (-2.365026e-06 7.320155e-11 -3.344275e-10))
1.5374        	((2.833600e-10 -2.988267e-05 -1.020848e-04) (3.337480e-10 -5.786160e-05 -3.917091e-06)) ((6.240480e-12 6.968750e-11 2.198347e-12) (-2.135724e-06 4.434801e-11 -3.518230e-10))
1.85688       	((1.094290e-09 -2.771584e-05 -1.016060e-04) (9.835407e-10 -5.233897e-05 -4.250091e-06)) ((2.603838e-11 6.691372e-11 3.548436e-12) (-1.931701e-06 2.102305e-11 -3.409407e-10))
2.240256      	((2.907592e-09 -2.583251e-05 -1.011235e-04) (1.034582e-09 -4.746079e-05 -4.606554e-06)) ((4.662779e-11 6.476806e-11 4.735462e-12) (-1.751417e-06 1.480526e-11 -3.160199e-10))
2.700307      	((-9.215056e-11 -2.427729e-05 -1.006606e-04) (6.418326e-10 -4.316555e-05 -4.984185e-06)) ((6.945480e-11 6.237137e-11 5.369802e-12) (-1.592586e-06 1.480699e-11 -2.959368e-10))
3.252369      	((-3.191084e-09 -2.305253e-05 -1.001138e-04) (2.328957e-10 -3.938641e-05 -5.378892e-06)) ((9.898685e-11 5.887591e-11 6.410129e-12) (-1.452809e-06 1.374742e-11 -2.768721e-10))
3.914842      	((-4.908893e-09 -2.220323e-05 -9.952104e-05) (-7.514330e-11 -3.607123e-05 -5.783848e-06)) ((1.338439e-10 5.537366e-11 8.347395e-12) (-1.330220e-06 1.234519e-11 -2.468785e-10))
4.709811      	((-7.754337e-09 -2.172640e-05 -9.876880e-05) (-4.371375e-10 -3.318471e-05 -6.192196e-06)) ((1.734142e-10 5.278448e-11 1.081942e-11) (-1.223493e-06 1.928309e-11 -2.119015e-10))
5.663773      	((-9.434300e-09 -2.165538e-05 -9.790218e-05) (-7.667650e-10 -3.069469e-05 -6.596965e-06)) ((2.187789e-10 4.973132e-11 1.319059e-11) (-1.131423e-06 3.395966e-11 -1.750686e-10))
6.808528      	((-1.011947e-08 -2.202738e-05 -9.688156e-05) (-8.233800e-10 -2.856499e-05 -6.990576e-06)) ((2.693086e-10 4.628594e-11 1.609334e-11) (-1.052650e-06 4.895865e-11 -1.627327e-10))
8.182233      	((-1.003136e-08 -2.282980e-05 -9.572375e-05) (-7.990912e-10 -2.675384e-05 -7.365009e-06)) ((3.256116e-10 4.214378e-11 2.064712e-11) (-9.857416e-07 6.320696e-11 -1.861716e-10))
9.83068       	((-1.058840e-08 -2.404478e-05 -9.440983e-05) (-7.714522e-10 -2.522694e-05 -7.712716e-06)) ((3.884042e-10 3.748499e-11 2.566086e-11) (-9.294290e-07 7.830828e-11 -2.297262e-10))
11.808816     	((-9.276913e-09 -2.563444e-05 -9.295001e-05) (-6.218167e-10 -2.395519e-05 -8.033477e-06)) ((4.570786e-10 3.252896e-11 3.185788e-11) (-8.826086e-07 8.767752e-11 -3.073732e-10))
14.182579     	((-6.709298e-09 -2.754158e-05 -9.133785e-05) (-5.680890e-10 -2.290571e-05 -8.324547e-06)) ((5.287973e-10 2.694340e-11 3.862455e-11) (-8.444807e-07 8.221868e-11 -4.327405e-10))
16.955751     	((-5.876393e-09 -2.968175e-05 -8.962087e-05) (-9.383394e-10 -2.207687e-05 -8.576708e-06)) ((5.987335e-10 2.111585e-11 4.620555e-11) (-8.148998e-07 8.507315e-11 -5.227826e-10))
20.129254     	((-6.217157e-09 -3.188900e-05 -8.776066e-05) (-8.770132e-10 -2.143875e-05 -8.781026e-06)) ((6.588778e-10 1.572095e-11 5.383655e-11) (-7.923585e-07 9.098296e-11 -5.917937e-10))
23.702884     	((-6.035012e-09 -3.402304e-05 -8.568740e-05) (-9.219951e-10 -2.094528e-05 -8.921699e-06)) ((7.062373e-10 1.065625e-11 6.040473e-11) (-7.746954e-07 9.827349e-11 -6.268965e-10))
27.67524      	((-1.224067e-09 -3.595132e-05 -8.331242e-05) (-8.862034e-10 -2.054831e-05 -8.987294e-06)) ((7.443637e-10 5.813654e-12 6.561439e-11) (-7.601156e-07 1.118141e-10 -5.830962e-10))
31.644734     	((6.217112e-09 -3.754384e-05 -8.083617e-05) (3.441735e-10 -2.023356e-05 -8.988182e-06)) ((7.764816e-10 1.149053e-12 6.991034e-11) (-7.484896e-07 9.641449e-11 -4.944156e-10))
35.604081     	((7.335188e-09 -3.869772e-05 -7.835675e-05) (1.833101e-09 -1.996391e-05 -8.954587e-06)) ((8.030360e-10 -2.099015e-12 7.375495e-11) (-7.387406e-07 6.152924e-11 -3.930333e-10))
39.56719      	((7.221265e-09 -3.935354e-05 -7.585816e-05) (2.556937e-09 -1.971421e-05 -8.911978e-06)) ((8.243239e-10 -2.919957e-12 7.705281e-11) (-7.300433e-07 3.618165e-11 -3.266422e-10))
43.547397     	((5.849583e-09 -3.968821e-05 -7.355635e-05) (2.994974e-09 -1.948529e-05 -8.870497e-06)) ((8.389816e-10 -2.268752e-12 7.941271e-11) (-7.222899e-07 2.332907e-11 -2.808070e-10))
47.546992     	((4.912796e-09 -3.973974e-05 -7.135511e-05) (2.917921e-09 -1.927170e-05 -8.835108e-06)) ((8.476723e-10 -9.361146e-15 8.114937e-11) (-7.151727e-07 1.227779e-11 -2.620160e-10))
51.562793     	((2.530707e-09 -3.968200e-05 -6.936242e-05) (2.818173e-09 -1.907181e-05 -8.805610e-06)) ((8.521232e-10 2.419191e-12 8.224216e-11) (-7.086096e-07 7.952916e-13 -2.532028e-10))
55.595572     	((-1.589121e-10 -3.949623e-05 -6.750354e-05) (2.943797e-09 -1.888722e-05 -8.781446e-06)) ((8.517627e-10 5.155177e-12 8.274678e-11) (-7.025918e-07 -7.232804e-12 -2.505749e-10))
59.646292     	((-4.564009e-09 -3.926065e-05 -6.573025e-05) (2.979410e-09 -1.871498e-05 -8.763368e-06)) ((8.494706e-10 8.069339e-12 8.301236e-11) (-6.969625e-07 -1.657840e-11 -2.576512e-10))
63.714615     	((-9.789575e-09 -3.901658e-05 -6.403035e-05) (2.792981e-09 -1.855473e-05 -8.751018e-06)) ((8.462931e-10 1.083241e-11 8.328383e-11) (-6.916808e-07 -2.128899e-11 -2.743523e-10))
67.799553     	((-1.398585e-08 -3.881000e-05 -6.242681e-05) (2.358170e-09 -1.840766e-05 -8.742481e-06)) ((8.435514e-10 1.351903e-11 8.356240e-11) (-6.867826e-07 -1.750026e-11 -2.930446e-10))
71.899815     	((-1.483478e-08 -3.863572e-05 -6.091932e-05) (1.831286e-09 -1.827325e-05 -8.736622e-06)) ((8.411205e-10 1.612875e-11 8.378954e-11) (-6.822381e-07 -1.365258e-11 -3.135223e-10))
76.012392     	((-1.688767e-08 -3.847817e-05 -5.946689e-05) (1.231482e-09 -1.814966e-05 -8.733486e-06)) ((8.385910e-10 1.869341e-11 8.405421e-11) (-6.779877e-07 -5.833510e-12 -3.401800e-10))
80.133159     	((-1.763878e-08 -3.833746e-05 -5.808696e-05) (5.496778e-10 -1.803649e-05 -8.731136e-06)) ((8.366813e-10 2.114459e-11 8.428855e-11) (-6.740823e-07 6.682588e-12 -3.689913e-10))
84.261652     	((-1.728756e-08 -3.820889e-05 -5.677262e-05) (-1.653487e-11 -1.793307e-05 -8.727556e-06)) ((8.352586e-10 2.354569e-11 8.446711e-11) (-6.705602e-07 1.930858e-11 -3.968596e-10))
88.397441     	((-1.536890e-08 -3.807354e-05 -5.550886e-05) (-4.547893e-10 -1.783803e-05 -8.722557e-06)) ((8.340936e-10 2.600561e-11 8.461415e-11) (-6.673841e-07 3.096971e-11 -4.212091e-10))
92.540062     	((-1.388419e-08 -3.793904e-05 -5.428313e-05) (-8.183579e-10 -1.775010e-05 -8.716253e-06)) ((8.331114e-10 2.853282e-11 8.477429e-11) (-6.645068e-07 4.059982e-11 -4.457782e-10))
96.689209     	((-1.126323e-08 -3.782109e-05 -5.312328e-05) (-1.068238e-09 -1.766953e-05 -8.708433e-06)) ((8.324513e-10 3.089927e-11 8.497202e-11) (-6.619346e-07 4.531070e-11 -4.695715e-10))
100.844404    	((-1.077112e-08 -3.770496e-05 -5.201694e-05) (-1.246221e-09 -1.759588e-05 -8.699594e-06)) ((8.317701e-10 3.313636e-11 8.516063e-11) (-6.596384e-07 4.962980e-11 -4.851666e-10))
105.005365    	((-1.089228e-08 -3.757805e-05 -5.096319e-05) (-1.415837e-09 -1.752733e-05 -8.691489e-06)) ((8.305938e-10 3.541294e-11 8.531795e-11) (-6.575177e-07 5.590629e-11 -4.936723e-10))
109.172327    	((-1.109282e-08 -3.745863e-05 -4.996298e-05) (-1.504567e-09 -1.746366e-05 -8.683776e-06)) ((8.297239e-10 3.762305e-11 8.542749e-11) (-6.555709e-07 6.495812e-11 -4.981069e-10))
113.346288    	((-9.056989e-09 -3.734396e-05 -4.901420e-05) (-1.427200e-09 -1.740459e-05 -8.676035e-06)) ((8.289550e-10 3.978737e-11 8.549674e-11) (-6.537993e-07 6.714820e-11 -5.017631e-10))
117.527246    	((-8.045827e-09 -3.722767e-05 -4.811227e-05) (-1.140874e-09 -1.734928e-05 -8.668920e-06)) ((8.278798e-10 4.187022e-11 8.556243e-11) (-6.521571e-07 5.859149e-11 -4.987706e-10))
121.714812    	((-1.006697e-08 -3.710802e-05 -4.724808e-05) (-8.134928e-10 -1.729694e-05 -8.664045e-06)) ((8.259906e-10 4.378336e-11 8.561433e-11) (-6.505594e-07 5.216480e-11 -4.847900e-10))
125.908738    	((-1.139895e-08 -3.700369e-05 -4.642645e-05) (-4.820932e-10 -1.724755e-05 -8.661245e-06)) ((8.243572e-10 4.558926e-11 8.568225e-11) (-6.490045e-07 5.271254e-11 -4.631013e-10))
130.108739    	((-1.597820e-08 -3.688838e-05 -4.562181e-05) (-2.998130e-10 -1.720008e-05 -8.660342e-06)) ((8.225478e-10 4.737807e-11 8.575885e-11) (-6.474679e-07 6.157330e-11 -4.396017e-10))
134.314573    	((-1.954544e-08 -3.677859e-05 -4.484148e-05) (-1.896028e-10 -1.715437e-05 -8.660337e-06)) ((8.211275e-10 4.915047e-11 8.583674e-11) (-6.459795e-07 7.271493e-11 -4.145328e-10))
138.526051    	((-2.570311e-08 -3.667754e-05 -4.409014e-05) (-1.891838e-10 -1.711109e-05 -8.659967e-06)) ((8.201170e-10 5.081456e-11 8.591927e-11) (-6.445994e-07 8.750100e-11 -3.853486e-10))
142.742797    	((-3.157450e-08 -3.658151e-05 -4.335512e-05) (-2.813019e-10 -1.707025e-05 -8.659063e-06)) ((8.192082e-10 5.246100e-11 8.599928e-11) (-6.433274e-07 1.066176e-10 -3.515792e-10))
146.964609    	((-3.866059e-08 -3.649237e-05 -4.264320e-05) (-4.604370e-10 -1.703185e-05 -8.657750e-06)) ((8.183755e-10 5.405423e-11 8.607078e-11) (-6.421502e-07 1.292615e-10 -3.172416e-10))
151.191368    	((-4.537990e-08 -3.640997e-05 -4.195800e-05) (-7.611843e-10 -1.699584e-05 -8.656040e-06)) ((8.176136e-10 5.558788e-11 8.613439e-11) (-6.410585e-07 1.558998e-10 -2.822044e-10))
155.422909    	((-5.352126e-08 -3.632477e-05 -4.129147e-05) (-1.259875e-09 -1.696167e-05 -8.653747e-06)) ((8.168702e-10 5.706234e-11 8.616659e-11) (-6.400354e-07 1.865046e-10 -2.469988e-10))
159.659037    	((-6.124913e-08 -3.624750e-05 -4.065569e-05) (-1.897703e-09 -1.692925e-05 -8.650845e-06)) ((8.162742e-10 5.844007e-11 8.619240e-11) (-6.390795e-07 2.186475e-10 -2.135098e-10))
163.899553    	((-6.979862e-08 -3.618530e-05 -4.005620e-05) (-2.679918e-09 -1.689923e-05 -8.647044e-06)) ((8.160466e-10 5.965973e-11 8.621354e-11) (-6.382165e-07 2.552021e-10 -1.828660e-10))
168.14306     	((-7.746498e-08 -3.612424e-05 -3.948647e-05) (-3.586045e-09 -1.687147e-05 -8.642794e-06)) ((8.157558e-10 6.085081e-11 8.621801e-11) (-6.374286e-07 2.934997e-10 -1.584902e-10))
172.389241    	((-8.473721e-08 -3.606062e-05 -3.894655e-05) (-4.586836e-09 -1.684531e-05 -8.638717e-06)) ((8.153342e-10 6.199564e-11 8.620034e-11) (-6.366794e-07 3.322276e-10 -1.403156e-10))
176.637963    	((-9.023001e-08 -3.599265e-05 -3.843011e-05) (-5.609108e-09 -1.682020e-05 -8.635156e-06)) ((8.147057e-10 6.313305e-11 8.617590e-11) (-6.359426e-07 3.691933e-10 -1.274331e-10))
180.88909     	((-9.472598e-08 -3.592692e-05 -3.793543e-05) (-6.594825e-09 -1.679605e-05 -8.632073e-06)) ((8.140039e-10 6.423327e-11 8.615171e-11) (-6.352158e-07 4.019853e-10 -1.198214e-10))
185.142494    	((-9.855367e-08 -3.586005e-05 -3.745641e-05) (-7.574588e-09 -1.677263e-05 -8.629542e-06)) ((8.131721e-10 6.532293e-11 8.612877e-11) (-6.344908e-07 4.315329e-10 -1.188094e-10))
189.398062    	((-1.019558e-07 -3.580246e-05 -3.700149e-05) (-8.605594e-09 -1.675024e-05 -8.627407e-06)) ((8.123876e-10 6.634462e-11 8.611690e-11) (-6.337821e-07 4.595794e-10 -1.265532e-10))
193.655677    	((-1.055434e-07 -3.574786e-05 -3.655729e-05) (-9.712750e-09 -1.672886e-05 -8.625452e-06)) ((8.116653e-10 6.733994e-11 8.611417e-11) (-6.330977e-07 4.886679e-10 -1.413611e-10))
197.91521     	((-1.090948e-07 -3.570119e-05 -3.613539e-05) (-1.087937e-08 -1.670860e-05 -8.623490e-06)) ((8.110918e-10 6.827529e-11 8.611865e-11) (-6.324499e-07 5.199140e-10 -1.611192e-10))
202.176571    	((-1.133645e-07 -3.565795e-05 -3.572951e-05) (-1.206914e-08 -1.668951e-05 -8.621383e-06)) ((8.106419e-10 6.915827e-11 8.612737e-11) (-6.318483e-07 5.540295e-10 -1.826130e-10))
206.439685    	((-1.193070e-07 -3.561806e-05 -3.534156e-05) (-1.334432e-08 -1.667154e-05 -8.619043e-06)) ((8.103379e-10 6.996866e-11 8.613867e-11) (-6.312972e-07 5.932248e-10 -2.044702e-10))
210.704475    	((-1.272703e-07 -3.558041e-05 -3.496939e-05) (-1.475196e-08 -1.665465e-05 -8.616432e-06)) ((8.101503e-10 7.071321e-11 8.615109e-11) (-6.307984e-07 6.397876e-10 -2.242275e-10))
214.970868    	((-1.369573e-07 -3.554407e-05 -3.461053e-05) (-1.628977e-08 -1.663874e-05 -8.613607e-06)) ((8.100558e-10 7.140887e-11 8.616242e-11) (-6.303458e-07 6.943334e-10 -2.401020e-10))
219.238806    	((-1.491599e-07 -3.550796e-05 -3.426736e-05) (-1.796226e-08 -1.662363e-05 -8.610729e-06)) ((8.099654e-10 7.202393e-11 8.617371e-11) (-6.299273e-07 7.580505e-10 -2.497077e-10))
223.508235    	((-1.647276e-07 -3.547218e-05 -3.393598e-05) (-1.981343e-08 -1.660916e-05 -8.607962e-06)) ((8.098758e-10 7.255406e-11 8.618691e-11) (-6.295283e-07 8.331448e-10 -2.508343e-10))
227.779109    	((-1.844030e-07 -3.543837e-05 -3.361667e-05) (-2.189959e-08 -1.659527e-05 -8.605216e-06)) ((8.099052e-10 7.298201e-11 8.620551e-11) (-6.291470e-07 9.222132e-10 -2.421618e-10))
232.051387    	((-2.091025e-07 -3.540454e-05 -3.330678e-05) (-2.431168e-08 -1.658191e-05 -8.602332e-06)) ((8.100318e-10 7.330279e-11 8.622458e-11) (-6.287850e-07 1.029276e-09 -2.225419e-10))
236.325033    	((-2.386054e-07 -3.537180e-05 -3.300651e-05) (-2.711252e-08 -1.656910e-05 -8.599076e-06)) ((8.103030e-10 7.352789e-11 8.623977e-11) (-6.284491e-07 1.157043e-09 -1.912090e-10))
240.600016    	((-2.727524e-07 -3.534033e-05 -3.271540e-05) (-3.030528e-08 -1.655690e-05 -8.595315e-06)) ((8.106679e-10 7.366266e-11 8.625219e-11) (-6.281431e-07 1.305979e-09 -1.467204e-10))
244.876319    	((-3.119742e-07 -3.530920e-05 -3.243218e-05) (-3.391751e-08 -1.654527e-05 -8.591078e-06)) ((8.110763e-10 7.370162e-11 8.626547e-11) (-6.278618e-07 1.477096e-09 -8.828548e-11))
249.153927    	((-3.560335e-07 -3.527921e-05 -3.215691e-05) (-3.796876e-08 -1.653421e-05 -8.586418e-06)) ((8.115302e-10 7.365130e-11 8.628019e-11) (-6.276004e-07 1.670817e-09 -1.559766e-11))
253.432828    	((-4.046351e-07 -3.525060e-05 -3.189045e-05) (-4.246281e-08 -1.652370e-05 -8.581376e-06)) ((8.120119e-10 7.351926e-11 8.629561e-11) (-6.273572e-07 1.886471e-09 7.098131e-11))
257.713012    	((-4.575697e-07 -3.522226e-05 -3.163164e-05) (-4.741275e-08 -1.651369e-05 -8.576039e-06)) ((8.124865e-10 7.331563e-11 8.631305e-11) (-6.271277e-07 2.123306e-09 1.699644e-10))
261.994473    	((-5.148027e-07 -3.519491e-05 -3.138064e-05) (-5.285783e-08 -1.650413e-05 -8.570479e-06)) ((8.129602e-10 7.304372e-11 8.633586e-11) (-6.269104e-07 2.381246e-09 2.788914e-10))
266.277206    	((-5.767183e-07 -3.516788e-05 -3.113533e-05) (-5.887142e-08 -1.649501e-05 -8.564805e-06)) ((8.134177e-10 7.270591e-11 8.636142e-11) (-6.267023e-07 2.661398e-09 3.948297e-10))
270.56121     	((-6.424561e-07 -3.514130e-05 -3.089615e-05) (-6.549665e-08 -1.648624e-05 -8.559098e-06)) ((8.138577e-10 7.231477e-11 8.639199e-11) (-6.265007e-07 2.963144e-09 5.139210e-10))
274.846484    	((-7.127610e-07 -3.511518e-05 -3.066386e-05) (-7.282477e-08 -1.647781e-05 -8.553443e-06)) ((8.142843e-10 7.184834e-11 8.642845e-11) (-6.263049e-07 3.287716e-09 6.317636e-10))
279.133032    	((-7.871033e-07 -3.508906e-05 -3.043548e-05) (-8.089601e-08 -1.646967e-05 -8.547891e-06)) ((8.146894e-10 7.131633e-11 8.646708e-11) (-6.261144e-07 3.636417e-09 7.460838e-10))
283.42086     	((-8.654221e-07 -3.506330e-05 -3.021247e-05) (-8.973745e-08 -1.646178e-05 -8.542474e-06)) ((8.150766e-10 7.070383e-11 8.650821e-11) (-6.259288e-07 4.010552e-09 8.545049e-10))
