# Forces      
# CofR        : (0.000000e+00 0.000000e+00 0.000000e+00)
# Time        forces(pressure viscous)	moments(pressure viscous)
0             	((0.000000e+00 0.000000e+00 0.000000e+00) (0.000000e+00 0.000000e+00 0.000000e+00)) ((0.000000e+00 0.000000e+00 0.000000e+00) (0.000000e+00 0.000000e+00 0.000000e+00))
0.012         	((5.255142e-11 -1.202064e-08 1.555974e-10) (1.554877e-12 -1.347722e-10 6.361215e-13)) ((8.654504e-13 3.884281e-15 1.655594e-10) (-2.572990e-12 -6.946872e-14 3.364414e-07))
0.0264        	((-4.221148e-11 4.356433e-09 -3.804422e-10) (1.831343e-12 -1.438094e-10 7.470126e-13)) ((2.035448e-12 -1.280214e-14 4.977995e-11) (-4.573698e-12 -6.512085e-14 2.944680e-07))
0.04368       	((2.258692e-10 -2.202588e-09 1.385209e-10) (2.177522e-12 -9.403867e-11 1.498537e-12)) ((-9.320615e-13 5.731404e-15 2.618010e-11) (-3.847751e-12 -8.544974e-14 2.546719e-07))
0.064416      	((1.722110e-10 -1.888381e-10 -2.235323e-10) (1.787258e-12 -5.003597e-11 1.498111e-12)) ((2.657716e-13 6.765050e-15 1.765382e-11) (-1.936589e-12 -9.172341e-14 2.181476e-07))
0.0892992     	((2.368124e-10 -1.069754e-09 -1.410461e-10) (1.224626e-12 -3.152773e-11 1.042996e-12)) ((-2.829790e-13 2.680983e-14 1.425677e-11) (-9.211078e-13 -7.843430e-14 1.858645e-07))
0.119159      	((1.247307e-10 -9.885019e-11 -2.365944e-10) (1.914521e-12 -2.724149e-11 3.277181e-12)) ((-1.716155e-13 2.585703e-14 1.135292e-11) (3.522445e-13 -1.201012e-13 1.582619e-07))
0.154991      	((1.943332e-10 -9.048968e-10 -3.261201e-10) (1.751464e-12 -2.037241e-11 9.658399e-12)) ((-1.672522e-13 2.934159e-14 9.080904e-12) (1.299426e-12 -1.322076e-13 1.355160e-07))
0.197989      	((1.364607e-10 -7.013569e-10 -3.765589e-10) (-1.330795e-12 -1.220913e-11 2.403559e-11)) ((-1.340198e-13 2.324067e-14 7.125538e-12) (1.821637e-12 -3.981281e-14 1.172305e-07))
0.249587      	((2.532348e-10 -8.276334e-10 -4.491666e-10) (-4.814205e-12 -4.846451e-12 4.522260e-11)) ((-1.364750e-13 2.727868e-14 5.905706e-12) (1.635881e-12 1.449563e-13 1.026636e-07))
0.311504      	((3.448098e-10 -1.013529e-09 -4.482917e-10) (-6.345650e-12 2.361477e-12 7.080144e-11)) ((-9.839407e-14 1.249297e-14 5.237778e-12) (1.309493e-12 2.341125e-13 9.093772e-08))
0.385805      	((4.465308e-10 -1.308206e-09 -5.399637e-10) (-5.414374e-12 -2.854503e-13 9.991901e-11)) ((-7.182827e-14 1.961114e-14 4.575813e-12) (9.672622e-13 2.102443e-13 8.126238e-08))
0.474966      	((5.178782e-10 -1.615466e-09 -5.302773e-10) (-7.870162e-12 -2.564856e-12 1.313591e-10)) ((1.343802e-14 -5.808116e-15 4.005287e-12) (2.579615e-13 3.343114e-13 7.304814e-08))
0.581959      	((7.237954e-10 -2.021481e-09 -5.522462e-10) (-1.363663e-11 -1.012082e-11 1.683428e-10)) ((5.449909e-14 1.215436e-14 3.713594e-12) (-1.182813e-12 4.862042e-13 6.590589e-08))
0.710351      	((9.297718e-10 -1.992379e-09 -6.096240e-10) (-2.090693e-11 -2.997075e-11 2.145995e-10)) ((9.088915e-14 1.251589e-14 3.530069e-12) (-2.294062e-12 7.652828e-13 5.959186e-08))
0.864421      	((1.002933e-09 -1.602229e-09 -7.313122e-10) (-3.388480e-11 -1.813447e-11 2.585498e-10)) ((1.448296e-13 1.556348e-14 3.355290e-12) (-1.964618e-12 1.200142e-12 5.395158e-08))
1.049306      	((1.105458e-09 -1.444562e-09 -8.976145e-10) (-5.623198e-11 2.962137e-11 3.127653e-10)) ((1.864216e-13 9.247145e-15 3.172484e-12) (-6.113616e-13 1.639547e-12 4.888990e-08))
1.271167      	((9.847587e-10 -1.251148e-09 -1.032153e-09) (-9.913729e-11 8.591491e-11 3.816867e-10)) ((2.326399e-13 2.565090e-14 3.035773e-12) (8.733612e-13 2.611540e-12 4.435887e-08))
1.5374        	((6.985466e-10 -1.298435e-09 -1.186996e-09) (-1.690883e-10 1.500695e-10 4.506038e-10)) ((2.156515e-13 2.085003e-14 2.928422e-12) (2.377249e-12 4.275924e-12 4.033574e-08))
1.85688       	((4.940334e-10 -1.067627e-09 -1.366215e-09) (-2.539165e-10 2.014420e-10 5.185073e-10)) ((1.988698e-13 3.379585e-14 2.795932e-12) (4.180644e-12 6.277483e-12 3.679820e-08))
2.240256      	((2.703265e-10 -8.656988e-10 -1.613651e-09) (-3.431183e-10 2.532283e-10 5.932246e-10)) ((2.270097e-13 4.235839e-14 2.636974e-12) (6.304324e-12 8.560772e-12 3.370973e-08))
2.700307      	((1.455616e-10 -6.775876e-10 -1.886891e-09) (-4.344472e-10 3.308836e-10 6.830016e-10)) ((2.187192e-13 2.422139e-14 2.492526e-12) (8.905477e-12 1.119825e-11 3.101740e-08))
3.252369      	((-5.225774e-11 -3.703686e-10 -2.056587e-09) (-5.170125e-10 4.243441e-10 7.843412e-10)) ((1.806623e-13 2.042620e-15 2.321205e-12) (1.156731e-11 1.393312e-11 2.865800e-08))
3.914842      	((-7.432284e-11 -2.753803e-12 -2.277973e-09) (-5.684936e-10 5.133486e-10 8.874172e-10)) ((1.321189e-13 -7.533919e-15 2.163089e-12) (1.350797e-11 1.576915e-11 2.656745e-08))
4.709811      	((-1.640891e-10 1.155917e-10 -2.555466e-09) (-5.882074e-10 5.649810e-10 1.014879e-09)) ((1.073284e-13 -9.033086e-15 2.018461e-12) (1.413580e-11 1.652150e-11 2.469217e-08))
5.663773      	((-2.465842e-10 1.291674e-10 -2.806610e-09) (-5.744999e-10 5.650454e-10 1.152910e-09)) ((1.016053e-13 -1.968177e-14 1.872131e-12) (1.350201e-11 1.649144e-11 2.299330e-08))
6.808528      	((-2.529941e-10 7.656851e-11 -3.162067e-09) (-5.294079e-10 5.161752e-10 1.288874e-09)) ((7.935908e-14 -2.585955e-14 1.742962e-12) (1.194060e-11 1.562766e-11 2.144126e-08))
8.182233      	((-1.107843e-10 1.590510e-10 -3.416739e-09) (-4.559475e-10 4.420044e-10 1.445722e-09)) ((5.570232e-14 -3.857757e-14 1.616224e-12) (1.053527e-11 1.397644e-11 2.001389e-08))
9.83068       	((-1.623258e-10 -8.200471e-11 -3.823419e-09) (-3.701138e-10 3.538446e-10 1.607374e-09)) ((5.542143e-14 -5.417420e-14 1.498689e-12) (8.611577e-12 1.197693e-11 1.869947e-08))
11.808816     	((4.310227e-11 -2.481170e-10 -4.106227e-09) (-2.810243e-10 2.678516e-10 1.779387e-09)) ((3.320644e-14 -6.233323e-14 1.390505e-12) (5.789530e-12 9.370123e-12 1.749122e-08))
14.182579     	((4.360125e-11 -2.065878e-10 -4.522303e-09) (-2.069865e-10 1.982693e-10 1.968819e-09)) ((-4.011303e-15 -6.447225e-14 1.284778e-12) (3.413050e-12 7.208171e-12 1.638149e-08))
17.031095     	((1.516781e-10 -1.394394e-10 -4.936454e-09) (-1.481380e-10 1.455185e-10 2.158400e-09)) ((-2.861670e-14 -6.240265e-14 1.191521e-12) (2.326469e-12 5.656727e-12 1.536514e-08))
20.449314     	((1.654338e-10 -2.181205e-10 -5.383251e-09) (-1.142877e-10 1.144742e-10 2.355999e-09)) ((-3.859815e-14 -6.187946e-14 1.107255e-12) (1.990747e-12 4.763795e-12 1.443660e-08))
24.551176     	((1.743998e-10 -1.572547e-10 -5.795613e-09) (-1.022454e-10 1.088957e-10 2.559316e-09)) ((-5.280721e-14 -6.010649e-14 1.030808e-12) (2.411338e-12 4.342023e-12 1.358896e-08))
29.473411     	((1.442636e-10 -1.606105e-10 -6.329851e-09) (-1.086001e-10 1.250666e-10 2.771123e-09)) ((-5.759196e-14 -5.936631e-14 9.649369e-13) (3.295038e-12 4.439405e-12 1.281460e-08))
35.380094     	((1.231949e-10 -1.246630e-10 -7.072603e-09) (-1.283866e-10 1.555003e-10 2.999078e-09)) ((-6.215482e-14 -6.189693e-14 9.064049e-13) (4.472000e-12 4.863092e-12 1.210664e-08))
42.468112     	((6.424719e-11 -1.020700e-10 -7.785210e-09) (-1.504489e-10 1.876677e-10 3.254654e-09)) ((-6.378457e-14 -6.565327e-14 8.531792e-13) (5.544148e-12 5.318222e-12 1.145985e-08))
50.973735     	((3.439951e-11 -7.684392e-11 -8.501310e-09) (-1.725997e-10 2.161097e-10 3.565618e-09)) ((-6.508826e-14 -6.941784e-14 8.034575e-13) (6.393973e-12 5.847150e-12 1.086946e-08))
61.180482     	((1.014051e-12 -7.388583e-11 -9.139592e-09) (-1.954139e-10 2.390559e-10 3.921708e-09)) ((-6.213789e-14 -7.390967e-14 7.589196e-13) (6.989698e-12 6.509037e-12 1.033098e-08))
73.428578     	((-2.000342e-11 -7.427705e-11 -9.760711e-09) (-2.167352e-10 2.541024e-10 4.292700e-09)) ((-5.977091e-14 -7.688831e-14 7.182304e-13) (7.236197e-12 7.139697e-12 9.840283e-09))
88.126294     	((-4.518765e-11 -8.534339e-11 -1.041713e-08) (-2.351837e-10 2.621851e-10 4.678024e-09)) ((-5.789285e-14 -7.811991e-14 6.808689e-13) (7.197505e-12 7.599578e-12 9.393461e-09))
105.763553    	((-5.670313e-11 -8.696925e-11 -1.106514e-08) (-2.512892e-10 2.637513e-10 5.077056e-09)) ((-5.494878e-14 -7.962123e-14 6.469546e-13) (6.906096e-12 7.980574e-12 8.986753e-09))
126.928263    	((-4.948276e-11 -8.084023e-11 -1.174060e-08) (-2.627919e-10 2.628567e-10 5.482938e-09)) ((-5.112579e-14 -7.927115e-14 6.155973e-13) (6.618733e-12 8.186245e-12 8.616530e-09))
152.325916    	((-4.505398e-11 -6.998936e-11 -1.242641e-08) (-2.692871e-10 2.605176e-10 5.901686e-09)) ((-4.991654e-14 -8.221362e-14 5.870259e-13) (6.383943e-12 8.312225e-12 8.279667e-09))
182.803099    	((-4.265560e-11 -4.852932e-11 -1.308890e-08) (-2.697063e-10 2.557613e-10 6.342532e-09)) ((-5.116536e-14 -8.446776e-14 5.608420e-13) (6.125483e-12 8.325546e-12 7.973142e-09))
219.375719    	((-3.311557e-11 -3.209218e-11 -1.372652e-08) (-2.670851e-10 2.473062e-10 6.806125e-09)) ((-5.292489e-14 -8.491001e-14 5.375023e-13) (5.928225e-12 8.106343e-12 7.693993e-09))
263.262863    	((-3.068231e-11 -2.336939e-11 -1.434512e-08) (-2.635603e-10 2.356341e-10 7.283470e-09)) ((-5.438640e-14 -8.429244e-14 5.162224e-13) (5.593193e-12 7.874749e-12 7.439704e-09))
315.927436    	((-4.455869e-11 -2.389370e-11 -1.493067e-08) (-2.597455e-10 2.207359e-10 7.761564e-09)) ((-5.399906e-14 -8.542489e-14 4.968522e-13) (5.049668e-12 7.658347e-12 7.208036e-09))
379.124923    	((-5.478428e-11 -3.230551e-11 -1.548320e-08) (-2.545226e-10 2.046740e-10 8.236233e-09)) ((-5.480229e-14 -8.728589e-14 4.788158e-13) (4.432727e-12 7.473892e-12 6.997257e-09))
454.961908    	((-5.614180e-11 -3.704981e-11 -1.600189e-08) (-2.487148e-10 1.900551e-10 8.708997e-09)) ((-5.522711e-14 -8.782019e-14 4.619403e-13) (3.838631e-12 7.286331e-12 6.805871e-09))
545.966289    	((-5.958872e-11 -4.082236e-11 -1.647951e-08) (-2.435167e-10 1.767262e-10 9.182208e-09)) ((-5.564774e-14 -8.791875e-14 4.462079e-13) (3.301713e-12 7.063447e-12 6.632402e-09))
655.171547    	((-7.028803e-11 -4.269602e-11 -1.691712e-08) (-2.371280e-10 1.630496e-10 9.663300e-09)) ((-5.606191e-14 -8.769972e-14 4.316097e-13) (2.812950e-12 6.857867e-12 6.475422e-09))
786.217856    	((-6.602857e-11 -4.516421e-11 -1.731807e-08) (-2.279683e-10 1.503318e-10 1.014383e-08)) ((-5.677410e-14 -8.775665e-14 4.189109e-13) (2.457218e-12 6.598882e-12 6.333643e-09))
942.861389    	((-6.590248e-11 -4.598596e-11 -1.768710e-08) (-2.172885e-10 1.387540e-10 1.061359e-08)) ((-5.633643e-14 -8.796296e-14 4.076340e-13) (2.185505e-12 6.272193e-12 6.205907e-09))
1125.102564   	((-5.956395e-11 -4.617066e-11 -1.802619e-08) (-2.053629e-10 1.288708e-10 1.106682e-08)) ((-5.584737e-14 -8.840165e-14 3.975717e-13) (2.045228e-12 5.881152e-12 6.091254e-09))
1332.942052   	((-5.401578e-11 -4.739689e-11 -1.833338e-08) (-1.926594e-10 1.203961e-10 1.150044e-08)) ((-5.627633e-14 -8.912968e-14 3.886303e-13) (1.967715e-12 5.434322e-12 5.988739e-09))
1566.380937   	((-4.818853e-11 -4.681751e-11 -1.860762e-08) (-1.802477e-10 1.119109e-10 1.191239e-08)) ((-5.663315e-14 -9.038488e-14 3.807208e-13) (1.911268e-12 4.967837e-12 5.897341e-09))
1822.391367   	((-4.475609e-11 -4.601309e-11 -1.885425e-08) (-1.680891e-10 1.042686e-10 1.230053e-08)) ((-5.622090e-14 -9.158620e-14 3.738170e-13) (1.874295e-12 4.489237e-12 5.815998e-09))
2078.420161   	((-4.129270e-11 -4.397179e-11 -1.907687e-08) (-1.563235e-10 9.716905e-11 1.266303e-08)) ((-5.553746e-14 -9.299999e-14 3.674948e-13) (1.856206e-12 4.022360e-12 5.743944e-09))
2334.469066   	((-3.670283e-11 -4.403817e-11 -1.927148e-08) (-1.450822e-10 9.104275e-11 1.300035e-08)) ((-5.485812e-14 -9.451963e-14 3.617341e-13) (1.863853e-12 3.594355e-12 5.680039e-09))
2590.538878   	((-3.283193e-11 -4.282320e-11 -1.944372e-08) (-1.347030e-10 8.597838e-11 1.331400e-08)) ((-5.447893e-14 -9.592504e-14 3.566596e-13) (1.882386e-12 3.203693e-12 5.623315e-09))
2846.628113   	((-3.274475e-11 -4.148676e-11 -1.959641e-08) (-1.251655e-10 8.155888e-11 1.360607e-08)) ((-5.436255e-14 -9.715112e-14 3.520091e-13) (1.903002e-12 2.865574e-12 5.572761e-09))
3102.737466   	((-3.347979e-11 -3.932459e-11 -1.973261e-08) (-1.171336e-10 7.806570e-11 1.387804e-08)) ((-5.454774e-14 -9.830209e-14 3.478613e-13) (1.931828e-12 2.589590e-12 5.527587e-09))
3358.861836   	((-3.251561e-11 -3.766481e-11 -1.985463e-08) (-1.103386e-10 7.542616e-11 1.413165e-08)) ((-5.469551e-14 -9.938972e-14 3.441840e-13) (1.986993e-12 2.371739e-12 5.487086e-09))
3614.997937   	((-3.230233e-11 -3.659438e-11 -1.996616e-08) (-1.044458e-10 7.356678e-11 1.436789e-08)) ((-5.503283e-14 -1.006049e-13 3.407858e-13) (2.055979e-12 2.204307e-12 5.450676e-09))
3871.141493   	((-3.329384e-11 -3.573147e-11 -2.006832e-08) (-9.936217e-11 7.237340e-11 1.458755e-08)) ((-5.517089e-14 -1.018253e-13 3.377125e-13) (2.126382e-12 2.073468e-12 5.417839e-09))
4127.287841   	((-3.487614e-11 -3.509464e-11 -2.016177e-08) (-9.515543e-11 7.150198e-11 1.479112e-08)) ((-5.524345e-14 -1.030873e-13 3.349334e-13) (2.187635e-12 1.977658e-12 5.388134e-09))
4383.437019   	((-3.621946e-11 -3.469092e-11 -2.024790e-08) (-9.156715e-11 7.099013e-11 1.497986e-08)) ((-5.544237e-14 -1.040358e-13 3.324115e-13) (2.247421e-12 1.900980e-12 5.361165e-09))
4639.589041   	((-3.728648e-11 -3.479523e-11 -2.032737e-08) (-8.816090e-11 7.083746e-11 1.515528e-08)) ((-5.561362e-14 -1.048422e-13 3.301527e-13) (2.309259e-12 1.835473e-12 5.336617e-09))
4895.743889   	((-3.809986e-11 -3.536996e-11 -2.040047e-08) (-8.542120e-11 7.081084e-11 1.531872e-08)) ((-5.554946e-14 -1.054525e-13 3.281055e-13) (2.361315e-12 1.784129e-12 5.314218e-09))
5151.901512   	((-3.917831e-11 -3.597447e-11 -2.046780e-08) (-8.310675e-11 7.082953e-11 1.547139e-08)) ((-5.542215e-14 -1.059392e-13 3.261898e-13) (2.405587e-12 1.747302e-12 5.293742e-09))
5408.061794   	((-4.036186e-11 -3.632329e-11 -2.052962e-08) (-8.111401e-11 7.104314e-11 1.561418e-08)) ((-5.540355e-14 -1.063486e-13 3.244167e-13) (2.443072e-12 1.725137e-12 5.274992e-09))
5664.224647   	((-4.127687e-11 -3.686160e-11 -2.058620e-08) (-7.943728e-11 7.115431e-11 1.574782e-08)) ((-5.538349e-14 -1.067914e-13 3.227752e-13) (2.476531e-12 1.714215e-12 5.257792e-09))
5920.389965   	((-4.216065e-11 -3.722275e-11 -2.063815e-08) (-7.800995e-11 7.126865e-11 1.587300e-08)) ((-5.517923e-14 -1.073578e-13 3.212634e-13) (2.504116e-12 1.709672e-12 5.241983e-09))
