# Forces      
# CofR        : (0.000000e+00 0.000000e+00 0.000000e+00)
# Time        forces(pressure viscous)	moments(pressure viscous)
0             	((0.000000e+00 0.000000e+00 0.000000e+00) (-7.771979e-10 -1.320765e-12 -7.968665e-05)) ((0.000000e+00 0.000000e+00 0.000000e+00) (1.395063e-13 -8.071797e-12 1.851040e-15))
0.012         	((-4.101357e-06 -1.947494e-06 -6.088631e-02) (-3.832538e-09 -1.847679e-09 -7.802460e-05)) ((3.067016e-10 -1.581030e-07 -7.980139e-12) (-1.453459e-10 2.878198e-10 -1.426599e-13))
0.0264        	((2.313858e-06 3.790676e-07 4.287696e-03) (-4.922084e-09 -2.359771e-09 -7.422387e-05)) ((-6.666282e-11 1.029547e-08 4.691940e-11) (-1.577861e-10 1.149366e-10 7.022078e-12))
0.04368       	((1.782541e-06 3.474556e-06 7.862606e-03) (-4.006727e-09 3.453152e-10 -6.703947e-05)) ((-1.955098e-10 1.694233e-08 -1.108595e-10) (6.486930e-11 -5.762757e-10 2.307603e-11))
0.064416      	((2.150342e-06 2.000411e-07 1.385885e-03) (-3.415965e-09 2.710782e-09 -6.022284e-05)) ((-1.464474e-11 5.498626e-09 2.138630e-11) (2.594154e-10 -9.772976e-10 1.480367e-11))
0.0892992     	((5.910040e-07 7.037324e-08 7.566564e-04) (-6.719441e-10 3.536639e-09 -5.580593e-05)) ((-2.636884e-11 3.239976e-09 4.238296e-12) (2.991275e-10 -1.037385e-09 1.066192e-12))
0.119159      	((1.519191e-07 6.122350e-08 6.083895e-04) (1.436851e-09 3.764327e-09 -5.180915e-05)) ((-5.706030e-12 2.113359e-09 -3.411294e-12) (2.601026e-10 -1.065975e-09 3.974289e-12))
0.154991      	((8.484184e-08 -3.086677e-08 3.448869e-04) (2.256002e-09 3.432568e-09 -4.745975e-05)) ((-8.474769e-12 1.441531e-09 1.252189e-11) (2.232499e-10 -1.078417e-09 4.428990e-12))
0.197989      	((5.299336e-08 -6.988966e-08 2.216798e-04) (3.124348e-09 3.065841e-09 -4.307055e-05)) ((-1.113440e-11 9.809368e-10 4.792497e-12) (1.929756e-10 -1.085181e-09 1.017692e-12))
0.249587      	((4.258334e-08 -1.743771e-08 1.581288e-04) (3.345598e-09 2.664630e-09 -3.877562e-05)) ((-8.818102e-12 6.956377e-10 -1.120234e-12) (1.527398e-10 -1.045747e-09 -4.110481e-13))
0.311504      	((-2.226626e-08 -4.979640e-09 1.118994e-04) (3.282121e-09 2.147330e-09 -3.468568e-05)) ((-3.830177e-12 4.992547e-10 1.590073e-12) (1.277825e-10 -9.696932e-10 -8.727441e-13))
0.385805      	((-3.254867e-08 -7.411825e-09 7.905774e-05) (2.682352e-09 1.610910e-09 -3.091379e-05)) ((-4.036829e-12 3.721316e-10 1.913780e-13) (1.108205e-10 -8.606788e-10 -1.214116e-12))
0.474966      	((-2.131303e-08 -1.119312e-08 5.596823e-05) (2.620638e-09 1.258273e-09 -2.752826e-05)) ((-4.242152e-12 2.834421e-10 1.517824e-12) (1.015571e-10 -7.657667e-10 -3.304367e-12))
0.581959      	((-1.203093e-08 -1.441111e-09 3.977165e-05) (2.731146e-09 1.009346e-09 -2.452987e-05)) ((-4.736222e-12 2.203156e-10 -9.710814e-13) (1.023620e-10 -7.023583e-10 -5.235523e-12))
0.710351      	((-3.376198e-09 2.089653e-09 2.799460e-05) (2.953501e-09 8.882220e-10 -2.190095e-05)) ((-4.892395e-12 1.749049e-10 -7.702566e-13) (1.108333e-10 -6.383964e-10 -4.949095e-12))
0.864421      	((6.517207e-09 1.118757e-08 1.941872e-05) (3.288289e-09 8.273267e-10 -1.961568e-05)) ((-5.284645e-12 1.414289e-10 -6.565907e-13) (1.196221e-10 -5.813500e-10 -4.322460e-12))
1.049306      	((1.397286e-08 1.593683e-08 1.317161e-05) (3.319456e-09 9.076635e-10 -1.762877e-05)) ((-5.798315e-12 1.182568e-10 -3.803668e-13) (1.297922e-10 -5.255469e-10 -3.644529e-12))
1.271167      	((2.291524e-08 2.394696e-08 8.618833e-06) (3.368510e-09 1.031756e-09 -1.588901e-05)) ((-6.849806e-12 1.018369e-10 -4.019741e-13) (1.321723e-10 -4.741792e-10 -2.881813e-12))
1.5374        	((3.170739e-08 3.258417e-08 5.298835e-06) (2.922057e-09 1.003334e-09 -1.435723e-05)) ((-8.774362e-12 9.096216e-11 -4.650493e-13) (1.203991e-10 -4.097528e-10 -2.956498e-12))
1.85688       	((3.003004e-08 2.759431e-08 2.928298e-06) (2.311940e-09 9.766927e-10 -1.300565e-05)) ((-8.876783e-12 8.323004e-11 -1.979428e-13) (8.423600e-11 -3.201722e-10 -2.794466e-12))
2.240256      	((5.193950e-08 5.452701e-08 1.186521e-06) (2.108119e-09 1.141144e-09 -1.181371e-05)) ((-1.286405e-11 8.174893e-11 -3.175174e-13) (6.074342e-11 -2.555750e-10 -2.004156e-12))
2.700307      	((3.419556e-08 3.573544e-08 -1.578376e-07) (1.925483e-09 1.149471e-09 -1.076273e-05)) ((-1.129326e-11 7.546914e-11 -6.121626e-14) (5.387217e-11 -2.138706e-10 -1.636062e-12))
3.252369      	((1.292269e-08 1.594583e-08 -1.162346e-06) (1.620624e-09 9.591541e-10 -9.830433e-06)) ((-8.233778e-12 6.814583e-11 1.727381e-13) (5.194649e-11 -1.849095e-10 -1.511486e-12))
3.914842      	((-1.324334e-09 -4.093395e-10 -1.930664e-06) (1.371265e-09 8.842514e-10 -9.000814e-06)) ((-4.552021e-12 6.016717e-11 3.618078e-13) (7.089692e-11 -1.893240e-10 -1.050366e-12))
4.709811      	((-1.485090e-08 -1.276250e-08 -2.511927e-06) (1.266332e-09 9.546009e-10 -8.267099e-06)) ((-3.577585e-13 5.174694e-11 6.838601e-13) (1.114442e-10 -2.165192e-10 -1.449161e-12))
5.663773      	((-1.803611e-08 -1.570722e-08 -2.968225e-06) (1.435877e-09 1.218810e-09 -7.621582e-06)) ((2.554502e-12 4.500550e-11 6.627313e-13) (1.655148e-10 -2.536266e-10 -2.189888e-12))
6.808528      	((-1.629324e-08 -1.368617e-08 -3.337403e-06) (1.814795e-09 1.605477e-09 -7.055863e-06)) ((3.550180e-12 4.117141e-11 5.481434e-13) (2.159144e-10 -2.860536e-10 -2.323794e-12))
8.182233      	((-9.909903e-09 -8.100027e-09 -3.664096e-06) (2.098256e-09 1.877140e-09 -6.564997e-06)) ((3.185724e-12 3.965108e-11 3.908626e-13) (2.412688e-10 -2.937956e-10 -2.235460e-12))
9.83068       	((-5.800681e-09 -2.715206e-09 -3.940139e-06) (2.135051e-09 1.967881e-09 -6.143068e-06)) ((2.417297e-12 3.903377e-11 3.434080e-13) (2.474709e-10 -2.831741e-10 -2.115924e-12))
11.808816     	((-4.240401e-09 -6.246922e-10 -4.169707e-06) (2.032673e-09 1.996859e-09 -5.782161e-06)) ((2.039248e-12 3.853222e-11 2.966419e-13) (2.499454e-10 -2.695023e-10 -1.957903e-12))
14.182579     	((-5.140046e-10 1.849116e-09 -4.353516e-06) (2.012615e-09 2.080574e-09 -5.475643e-06)) ((2.021717e-12 3.819915e-11 1.740043e-13) (2.534028e-10 -2.607568e-10 -1.726253e-12))
17.031095     	((1.425713e-09 4.426085e-09 -4.527947e-06) (2.099555e-09 2.247690e-09 -5.217753e-06)) ((2.174941e-12 3.781007e-11 1.810836e-13) (2.598035e-10 -2.575790e-10 -1.287601e-12))
20.449314     	((-8.062591e-10 1.933576e-09 -4.709284e-06) (2.099262e-09 2.275984e-09 -5.003727e-06)) ((2.603784e-12 3.731083e-11 2.257641e-13) (2.552360e-10 -2.464265e-10 -7.102658e-13))
24.551176     	((2.700924e-09 5.091989e-09 -4.870348e-06) (2.150567e-09 2.283138e-09 -4.830906e-06)) ((2.717923e-12 3.729147e-11 2.671527e-13) (2.437719e-10 -2.344624e-10 -5.707001e-13))
29.473411     	((6.001763e-09 8.616942e-09 -4.994371e-06) (2.284148e-09 2.390050e-09 -4.693992e-06)) ((2.765005e-12 3.745897e-11 1.626226e-13) (2.385283e-10 -2.296159e-10 -5.644415e-13))
35.380094     	((8.081067e-09 1.045644e-08 -5.086507e-06) (2.381631e-09 2.469638e-09 -4.585462e-06)) ((2.766384e-12 3.779379e-11 1.243836e-13) (2.359979e-10 -2.270474e-10 -4.143222e-13))
42.468112     	((9.469109e-09 1.139050e-08 -5.142974e-06) (2.395553e-09 2.485901e-09 -4.502513e-06)) ((2.650843e-12 3.842143e-11 1.305760e-13) (2.334797e-10 -2.227882e-10 -3.374864e-13))
50.973735     	((1.188325e-08 1.346150e-08 -5.098648e-06) (2.396989e-09 2.499584e-09 -4.441058e-06)) ((2.560029e-12 3.916987e-11 1.609651e-13) (2.353401e-10 -2.223014e-10 -4.575275e-13))
61.180482     	((1.454134e-08 1.546652e-08 -4.989296e-06) (2.464374e-09 2.499960e-09 -4.393106e-06)) ((2.522478e-12 3.991054e-11 1.364445e-13) (2.382326e-10 -2.280199e-10 -6.071551e-13))
73.428578     	((1.684248e-08 1.833073e-08 -4.908187e-06) (2.633687e-09 2.639804e-09 -4.356660e-06)) ((2.493542e-12 4.046775e-11 1.370267e-13) (2.465805e-10 -2.366503e-10 -7.421022e-13))
88.126294     	((1.783625e-08 1.889982e-08 -4.855565e-06) (2.848411e-09 2.835697e-09 -4.331411e-06)) ((2.551739e-12 4.082983e-11 9.862386e-14) (2.571402e-10 -2.468651e-10 -8.413280e-13))
105.452486    	((1.612377e-08 1.723809e-08 -4.777535e-06) (2.901032e-09 2.865180e-09 -4.314038e-06)) ((2.661684e-12 4.108413e-11 1.188666e-13) (2.584993e-10 -2.489733e-10 -1.202590e-12))
125.402809    	((1.490536e-08 1.661246e-08 -4.680476e-06) (2.754635e-09 2.764194e-09 -4.301000e-06)) ((2.707986e-12 4.134104e-11 1.306957e-13) (2.531977e-10 -2.413600e-10 -1.751399e-12))
147.973739    	((1.449467e-08 1.589385e-08 -4.596303e-06) (2.588767e-09 2.629916e-09 -4.291002e-06)) ((2.746903e-12 4.154624e-11 1.129708e-13) (2.463651e-10 -2.329194e-10 -1.996720e-12))
173.162369    	((1.439129e-08 1.589061e-08 -4.526297e-06) (2.444070e-09 2.514380e-09 -4.283339e-06)) ((2.763663e-12 4.171361e-11 1.029809e-13) (2.401311e-10 -2.253828e-10 -2.052789e-12))
199.316351    	((1.481170e-08 1.618235e-08 -4.477741e-06) (2.345107e-09 2.436945e-09 -4.277793e-06)) ((2.747241e-12 4.187914e-11 9.192442e-14) (2.349579e-10 -2.196506e-10 -1.965034e-12))
225.45534     	((1.549268e-08 1.676126e-08 -4.442213e-06) (2.304190e-09 2.400900e-09 -4.274044e-06)) ((2.729367e-12 4.202130e-11 8.443401e-14) (2.312932e-10 -2.160116e-10 -1.781793e-12))
251.584762    	((1.634323e-08 1.751368e-08 -4.407300e-06) (2.326754e-09 2.423099e-09 -4.271466e-06)) ((2.718538e-12 4.215092e-11 7.519757e-14) (2.300356e-10 -2.147788e-10 -1.567427e-12))
277.707284    	((1.706581e-08 1.809899e-08 -4.374583e-06) (2.388979e-09 2.476177e-09 -4.269604e-06)) ((2.714189e-12 4.226861e-11 6.814482e-14) (2.301375e-10 -2.151701e-10 -1.337337e-12))
303.824719    	((1.762437e-08 1.858200e-08 -4.345754e-06) (2.461225e-09 2.537227e-09 -4.268219e-06)) ((2.710951e-12 4.236849e-11 6.360280e-14) (2.308992e-10 -2.163288e-10 -1.149206e-12))
329.938408    	((1.804364e-08 1.892131e-08 -4.321451e-06) (2.530708e-09 2.594749e-09 -4.267184e-06)) ((2.706788e-12 4.245164e-11 6.166092e-14) (2.319711e-10 -2.178822e-10 -1.006458e-12))
356.049254    	((1.833143e-08 1.916036e-08 -4.300411e-06) (2.590031e-09 2.643154e-09 -4.266416e-06)) ((2.703394e-12 4.252147e-11 6.009777e-14) (2.330912e-10 -2.194318e-10 -9.097772e-13))
382.157905    	((1.850395e-08 1.930913e-08 -4.283333e-06) (2.636674e-09 2.681981e-09 -4.265845e-06)) ((2.700185e-12 4.257838e-11 5.942479e-14) (2.341830e-10 -2.208213e-10 -8.493465e-13))
408.264918    	((1.861207e-08 1.939382e-08 -4.268958e-06) (2.671162e-09 2.710560e-09 -4.265422e-06)) ((2.697896e-12 4.262619e-11 5.940327e-14) (2.351161e-10 -2.219769e-10 -8.126709e-13))
434.370728    	((1.867032e-08 1.944211e-08 -4.256733e-06) (2.695518e-09 2.730414e-09 -4.265108e-06)) ((2.696321e-12 4.266625e-11 5.945619e-14) (2.358561e-10 -2.228839e-10 -7.910695e-13))
460.475659    	((1.868913e-08 1.946424e-08 -4.246423e-06) (2.711868e-09 2.744075e-09 -4.264875e-06)) ((2.695477e-12 4.269942e-11 5.924370e-14) (2.364535e-10 -2.235739e-10 -7.774254e-13))
