# Forces      
# CofR        : (0.000000e+00 0.000000e+00 0.000000e+00)
# Time        forces(pressure viscous)	moments(pressure viscous)
0             	((0.000000e+00 0.000000e+00 0.000000e+00) (0.000000e+00 0.000000e+00 0.000000e+00)) ((0.000000e+00 0.000000e+00 0.000000e+00) (0.000000e+00 0.000000e+00 0.000000e+00))
0.012         	((7.735008e-08 1.448838e-04 2.313597e-05) (-3.039843e-10 3.323282e-04 -5.231990e-08)) ((2.234791e-08 5.989594e-11 -2.090610e-10) (2.211609e-05 -5.872126e-12 3.429161e-11))
0.0264        	((3.327275e-08 1.947470e-04 4.870125e-05) (-7.278371e-10 3.045402e-04 -1.714087e-07)) ((-8.002853e-09 1.155195e-10 -1.166397e-10) (2.029052e-05 -8.744541e-12 1.775213e-11))
0.04368       	((1.547440e-07 1.316538e-04 2.546321e-05) (-1.589780e-09 2.763222e-04 -4.067883e-07)) ((-4.748269e-09 -1.679386e-11 -1.338996e-10) (1.844622e-05 3.955336e-11 6.131559e-11))
0.064416      	((2.111662e-08 1.491859e-04 3.256345e-05) (-2.800823e-09 2.486595e-04 -7.558955e-07)) ((-1.135036e-08 -4.032654e-11 -1.050905e-10) (1.664968e-05 -7.490195e-12 1.151922e-10))
0.0892992     	((1.739278e-07 1.106463e-04 2.006663e-05) (-2.874854e-09 2.226343e-04 -1.194279e-06)) ((-7.265276e-09 -1.224778e-10 -7.376381e-11) (1.497293e-05 -1.206394e-10 1.302404e-10))
0.119159      	((9.534856e-08 1.139805e-04 2.125727e-05) (-3.682270e-09 1.991896e-04 -1.675346e-06)) ((-9.633633e-09 -1.328471e-10 -5.482639e-11) (1.347385e-05 -3.380405e-10 1.504793e-10))
0.154991      	((1.617796e-07 8.993576e-05 1.328312e-05) (-4.063189e-09 1.787803e-04 -2.225575e-06)) ((-6.996430e-09 -2.197732e-10 -5.808951e-11) (1.217081e-05 -4.882817e-10 2.183835e-10))
0.197989      	((1.203559e-07 8.890954e-05 1.215577e-05) (-5.040598e-09 1.612097e-04 -2.863394e-06)) ((-8.432660e-09 -2.249467e-10 -9.382566e-11) (1.104579e-05 -6.318581e-10 3.050034e-10))
0.249587      	((1.361281e-07 7.442971e-05 7.108107e-06) (-8.481523e-09 1.457171e-04 -3.657873e-06)) ((-6.900844e-09 -2.851317e-10 -9.214958e-11) (1.003964e-05 -7.632550e-10 3.030013e-10))
0.311504      	((1.121907e-07 7.168361e-05 4.855705e-06) (-8.121665e-09 1.312743e-04 -4.553041e-06)) ((-7.589296e-09 -2.822516e-10 -8.976400e-11) (9.090447e-06 -9.324583e-10 2.298892e-10))
0.385805      	((1.240704e-07 6.165188e-05 6.350681e-07) (-8.524877e-09 1.176094e-04 -5.462575e-06)) ((-6.818314e-09 -2.976566e-10 -7.907594e-11) (8.187979e-06 -1.053472e-09 1.461332e-10))
0.474966      	((1.060074e-07 5.795341e-05 -2.109808e-06) (-9.392531e-09 1.049989e-04 -6.263065e-06)) ((-6.954779e-09 -3.246798e-10 -7.378718e-11) (7.356928e-06 -1.167546e-09 1.314568e-10))
0.581959      	((1.348024e-07 5.124630e-05 -5.585001e-06) (-6.544674e-09 9.370023e-05 -6.932158e-06)) ((-6.530080e-09 -3.347432e-10 -6.935576e-11) (6.617466e-06 -1.286657e-09 1.322827e-10))
0.710351      	((1.216464e-07 4.770935e-05 -8.617333e-06) (-2.716115e-09 8.376091e-05 -7.505666e-06)) ((-6.558382e-09 -3.586103e-10 -7.298423e-11) (5.972525e-06 -1.456098e-09 1.138784e-10))
0.864421      	((1.627791e-07 4.309845e-05 -1.178945e-05) (1.935805e-09 7.504536e-05 -8.042140e-06)) ((-6.345888e-09 -3.625882e-10 -6.399777e-11) (5.412690e-06 -1.642864e-09 1.913284e-10))
1.049306      	((1.281808e-07 4.009696e-05 -1.486455e-05) (5.837186e-09 6.738253e-05 -8.586468e-06)) ((-6.295640e-09 -3.971709e-10 -5.612032e-11) (4.925659e-06 -1.841988e-09 3.287790e-10))
1.271167      	((1.179382e-07 3.680965e-05 -1.802004e-05) (3.902825e-09 6.065485e-05 -9.147741e-06)) ((-6.127927e-09 -4.188594e-10 -4.896003e-11) (4.502798e-06 -2.097364e-09 4.309055e-10))
1.5374        	((8.897076e-08 3.455790e-05 -2.118110e-05) (-1.334163e-09 5.479711e-05 -9.722382e-06)) ((-6.096979e-09 -4.513598e-10 -4.887658e-11) (4.138308e-06 -2.389064e-09 4.168582e-10))
1.85688       	((1.272844e-07 3.244907e-05 -2.445765e-05) (-2.739659e-09 4.977760e-05 -1.029069e-05)) ((-6.083203e-09 -4.773286e-10 -5.584604e-11) (3.827344e-06 -2.626828e-09 3.576137e-10))
2.240256      	((1.121573e-07 3.135329e-05 -2.756389e-05) (2.662638e-10 4.551666e-05 -1.088683e-05)) ((-6.194869e-09 -5.068100e-10 -5.637340e-11) (3.564780e-06 -2.761328e-09 3.386730e-10))
2.700307      	((1.283571e-07 3.067980e-05 -3.084088e-05) (2.530277e-09 4.191448e-05 -1.152901e-05)) ((-6.309162e-09 -5.269316e-10 -5.722725e-11) (3.343847e-06 -2.828341e-09 3.462024e-10))
3.252369      	((1.039404e-07 3.065678e-05 -3.426805e-05) (5.268527e-09 3.887519e-05 -1.224411e-05)) ((-6.492672e-09 -5.519859e-10 -5.771643e-11) (3.157066e-06 -2.859837e-09 3.745501e-10))
3.914842      	((1.132749e-07 3.091982e-05 -3.786291e-05) (5.994939e-09 3.629382e-05 -1.301735e-05)) ((-6.674237e-09 -5.777247e-10 -5.830921e-11) (2.997835e-06 -2.861891e-09 3.733726e-10))
4.709811      	((1.061747e-07 3.174588e-05 -4.144189e-05) (7.270149e-09 3.409153e-05 -1.381835e-05)) ((-6.870232e-09 -6.060563e-10 -5.758161e-11) (2.862020e-06 -2.895206e-09 2.807053e-10))
5.663773      	((1.086800e-07 3.280310e-05 -4.505385e-05) (8.172505e-09 3.223122e-05 -1.465048e-05)) ((-7.045415e-09 -6.333190e-10 -5.937740e-11) (2.746929e-06 -2.910502e-09 1.559441e-10))
6.808528      	((1.064365e-07 3.412019e-05 -4.861247e-05) (7.905327e-09 3.069986e-05 -1.549126e-05)) ((-7.216539e-09 -6.606058e-10 -5.927411e-11) (2.649977e-06 -2.888361e-09 5.100052e-11))
8.145813      	((1.044177e-07 3.556621e-05 -5.219168e-05) (8.147080e-09 2.949391e-05 -1.631309e-05)) ((-7.382811e-09 -6.856996e-10 -5.860087e-11) (2.569967e-06 -2.877842e-09 -1.196891e-11))
9.674496      	((1.068720e-07 3.723789e-05 -5.552919e-05) (1.043902e-08 2.859335e-05 -1.709000e-05)) ((-7.538889e-09 -7.067291e-10 -5.909476e-11) (2.504985e-06 -2.878392e-09 -4.427136e-11))
11.393668     	((1.146573e-07 3.905160e-05 -5.859941e-05) (8.772028e-09 2.797369e-05 -1.780131e-05)) ((-7.688357e-09 -7.240712e-10 -5.977278e-11) (2.453350e-06 -2.797320e-09 -6.415382e-11))
13.292995     	((1.204374e-07 4.089925e-05 -6.112471e-05) (6.225574e-09 2.759933e-05 -1.842029e-05)) ((-7.845408e-09 -7.385024e-10 -6.116579e-11) (2.413596e-06 -2.675501e-09 -8.566833e-11))
15.188583     	((1.277015e-07 4.256561e-05 -6.307980e-05) (5.708363e-09 2.742522e-05 -1.887690e-05)) ((-8.003430e-09 -7.484906e-10 -6.313072e-11) (2.385186e-06 -2.559185e-09 -1.185896e-10))
17.081935     	((1.360502e-07 4.407621e-05 -6.440093e-05) (5.294410e-09 2.736681e-05 -1.919345e-05)) ((-8.150047e-09 -7.543517e-10 -6.529949e-11) (2.365422e-06 -2.487144e-09 -1.313585e-10))
18.975234     	((1.521223e-07 4.531224e-05 -6.533720e-05) (5.565906e-09 2.737060e-05 -1.939362e-05)) ((-8.270298e-09 -7.561939e-10 -6.705081e-11) (2.352409e-06 -2.489519e-09 -1.172392e-10))
20.869763     	((1.661193e-07 4.633259e-05 -6.603021e-05) (4.867723e-09 2.740231e-05 -1.951050e-05)) ((-8.364900e-09 -7.555612e-10 -6.876315e-11) (2.344295e-06 -2.529815e-09 -8.692541e-11))
22.744857     	((1.753677e-07 4.715326e-05 -6.651775e-05) (3.854240e-09 2.743961e-05 -1.956878e-05)) ((-8.440777e-09 -7.535437e-10 -7.024217e-11) (2.339720e-06 -2.597618e-09 -4.374120e-11))
24.598327     	((1.847208e-07 4.777529e-05 -6.680199e-05) (3.010439e-09 2.747389e-05 -1.958885e-05)) ((-8.499026e-09 -7.502047e-10 -7.070845e-11) (2.337574e-06 -2.662476e-09 6.125990e-13))
26.431255     	((1.928550e-07 4.816592e-05 -6.693886e-05) (2.487837e-09 2.750094e-05 -1.958621e-05)) ((-8.539130e-09 -7.466717e-10 -7.084275e-11) (2.336975e-06 -2.711830e-09 3.161468e-11))
28.247915     	((2.010204e-07 4.843051e-05 -6.708554e-05) (2.491574e-09 2.752086e-05 -1.957072e-05)) ((-8.566552e-09 -7.440790e-10 -7.122489e-11) (2.337299e-06 -2.758968e-09 3.210431e-11))
30.053422     	((2.124349e-07 4.858688e-05 -6.721895e-05) (2.879946e-09 2.753640e-05 -1.955042e-05)) ((-8.581762e-09 -7.421788e-10 -7.164601e-11) (2.338082e-06 -2.808711e-09 7.086075e-12))
31.852198     	((2.314834e-07 4.866334e-05 -6.737645e-05) (3.725165e-09 2.754947e-05 -1.952632e-05)) ((-8.586033e-09 -7.406833e-10 -7.197135e-11) (2.339176e-06 -2.870662e-09 -3.028366e-11))
33.647257     	((2.579098e-07 4.868489e-05 -6.750201e-05) (4.890127e-09 2.756045e-05 -1.949694e-05)) ((-8.579706e-09 -7.390709e-10 -7.197441e-11) (2.340559e-06 -2.947027e-09 -8.381832e-11))
35.440827     	((2.905267e-07 4.867293e-05 -6.760790e-05) (6.393796e-09 2.756999e-05 -1.946377e-05)) ((-8.567116e-09 -7.372863e-10 -7.174914e-11) (2.342073e-06 -3.041815e-09 -1.632122e-10))
37.234174     	((3.285066e-07 4.866491e-05 -6.770940e-05) (8.213347e-09 2.757849e-05 -1.942651e-05)) ((-8.556785e-09 -7.354236e-10 -7.190479e-11) (2.343707e-06 -3.159156e-09 -2.749489e-10))
39.027674     	((3.670834e-07 4.865489e-05 -6.780832e-05) (1.026405e-08 2.758583e-05 -1.938652e-05)) ((-8.551597e-09 -7.338999e-10 -7.278929e-11) (2.345377e-06 -3.296272e-09 -4.160629e-10))
40.821155     	((4.002021e-07 4.863080e-05 -6.788834e-05) (1.163108e-08 2.759180e-05 -1.935327e-05)) ((-8.551152e-09 -7.323398e-10 -7.387713e-11) (2.346638e-06 -3.424374e-09 -5.544519e-10))
42.614332     	((4.388528e-07 4.861709e-05 -6.796455e-05) (1.296028e-08 2.759634e-05 -1.933216e-05)) ((-8.562041e-09 -7.306431e-10 -7.519069e-11) (2.347261e-06 -3.530846e-09 -7.013930e-10))
44.40704      	((4.728497e-07 4.859675e-05 -6.803457e-05) (1.415932e-08 2.759907e-05 -1.932025e-05)) ((-8.573177e-09 -7.290071e-10 -7.576424e-11) (2.347439e-06 -3.604871e-09 -8.476420e-10))
46.199275     	((5.072748e-07 4.857604e-05 -6.810885e-05) (1.497188e-08 2.760102e-05 -1.931232e-05)) ((-8.579612e-09 -7.276841e-10 -7.570574e-11) (2.347468e-06 -3.648458e-09 -9.687258e-10))
47.991154     	((5.378723e-07 4.854770e-05 -6.816726e-05) (1.536257e-08 2.760297e-05 -1.930634e-05)) ((-8.581228e-09 -7.266702e-10 -7.522946e-11) (2.347481e-06 -3.654605e-09 -1.047371e-09))
49.78285      	((5.709793e-07 4.851371e-05 -6.821873e-05) (1.555841e-08 2.760531e-05 -1.929977e-05)) ((-8.578992e-09 -7.258010e-10 -7.442293e-11) (2.347572e-06 -3.640854e-09 -1.073696e-09))
51.574518     	((5.986731e-07 4.847166e-05 -6.827070e-05) (1.555841e-08 2.760816e-05 -1.929180e-05)) ((-8.574693e-09 -7.252912e-10 -7.356557e-11) (2.347725e-06 -3.618185e-09 -1.053547e-09))
53.366267     	((6.313342e-07 4.843274e-05 -6.832389e-05) (1.579550e-08 2.761148e-05 -1.928281e-05)) ((-8.570212e-09 -7.249156e-10 -7.279689e-11) (2.347892e-06 -3.601317e-09 -9.975324e-10))
55.158142     	((6.576316e-07 4.838653e-05 -6.836291e-05) (1.608270e-08 2.761465e-05 -1.927394e-05)) ((-8.565763e-09 -7.248227e-10 -7.215373e-11) (2.348038e-06 -3.579108e-09 -9.145306e-10))
56.950151     	((6.896484e-07 4.834438e-05 -6.839095e-05) (1.648633e-08 2.761747e-05 -1.926515e-05)) ((-8.561867e-09 -7.245847e-10 -7.166368e-11) (2.348151e-06 -3.560888e-09 -8.103124e-10))
58.742326     	((7.206903e-07 4.829768e-05 -6.835962e-05) (1.721259e-08 2.761998e-05 -1.925636e-05)) ((-8.558101e-09 -7.242131e-10 -7.127347e-11) (2.348202e-06 -3.564265e-09 -6.903101e-10))
60.534726     	((7.423536e-07 4.823570e-05 -6.830392e-05) (1.816647e-08 2.762145e-05 -1.924728e-05)) ((-8.554430e-09 -7.241111e-10 -7.091596e-11) (2.348186e-06 -3.584326e-09 -5.631537e-10))
62.327397     	((7.558518e-07 4.816177e-05 -6.821189e-05) (1.906422e-08 2.762132e-05 -1.923753e-05)) ((-8.550344e-09 -7.242971e-10 -7.051869e-11) (2.348094e-06 -3.609282e-09 -4.334003e-10))
64.12032      	((7.757998e-07 4.808284e-05 -6.810992e-05) (2.032148e-08 2.761921e-05 -1.922734e-05)) ((-8.546300e-09 -7.241428e-10 -7.025508e-11) (2.347930e-06 -3.658968e-09 -3.050406e-10))
65.913392     	((7.878830e-07 4.800761e-05 -6.798523e-05) (2.198393e-08 2.761554e-05 -1.921749e-05)) ((-8.542691e-09 -7.240887e-10 -7.015286e-11) (2.347734e-06 -3.727603e-09 -1.854986e-10))
67.70644      	((8.004085e-07 4.793167e-05 -6.783926e-05) (2.395949e-08 2.761080e-05 -1.920797e-05)) ((-8.539040e-09 -7.243077e-10 -6.997564e-11) (2.347532e-06 -3.811768e-09 -7.834206e-11))
69.499247     	((7.976098e-07 4.787323e-05 -6.768131e-05) (2.575123e-08 2.760578e-05 -1.919874e-05)) ((-8.536165e-09 -7.249220e-10 -6.975774e-11) (2.347369e-06 -3.876209e-09 1.713664e-11))
71.291685     	((7.967973e-07 4.782934e-05 -6.754090e-05) (2.744018e-08 2.760121e-05 -1.918998e-05)) ((-8.532905e-09 -7.252928e-10 -6.946872e-11) (2.347255e-06 -3.929076e-09 1.119370e-10))
73.083786     	((7.844224e-07 4.778705e-05 -6.746234e-05) (2.892611e-08 2.759721e-05 -1.918183e-05)) ((-8.529284e-09 -7.261481e-10 -6.926625e-11) (2.347158e-06 -3.967598e-09 2.120847e-10))
74.875663     	((7.697737e-07 4.774356e-05 -6.744801e-05) (3.027424e-08 2.759374e-05 -1.917415e-05)) ((-8.525424e-09 -7.269647e-10 -6.920801e-11) (2.347046e-06 -4.002036e-09 3.188092e-10))
