# Forces      
# CofR        : (0.000000e+00 0.000000e+00 0.000000e+00)
# Time        forces(pressure viscous)	moments(pressure viscous)
0             	((0.000000e+00 0.000000e+00 0.000000e+00) (-6.326826e-05 1.798446e-14 -6.152869e-10)) ((0.000000e+00 0.000000e+00 0.000000e+00) (-1.386850e-16 1.421562e-06 -4.013059e-16))
0.012         	((-1.840057e-02 2.729991e-08 1.942042e-03) (-7.258341e-05 1.040788e-10 -4.275663e-08)) ((7.264844e-13 -2.485965e-07 2.945134e-12) (4.471716e-13 2.095290e-06 -1.787842e-12))
0.0264        	((1.314654e-03 -3.118682e-07 -1.184329e-04) (-7.401263e-05 -7.954145e-11 -6.586622e-08)) ((7.381767e-12 1.797556e-08 -3.087840e-12) (-1.444324e-11 2.345001e-06 -3.353324e-12))
0.04368       	((3.827524e-03 2.653515e-07 -7.396622e-05) (-6.573405e-05 -4.120095e-11 -5.761978e-08)) ((-1.012325e-11 5.800077e-08 -3.934808e-12) (-1.628602e-11 2.088968e-06 -1.897103e-12))
0.064416      	((3.606572e-05 2.116812e-08 -9.481924e-05) (-5.820910e-05 -1.215147e-09 -2.839124e-08)) ((3.346679e-12 -6.294700e-10 -8.553135e-15) (-4.136800e-12 1.876074e-06 -6.971521e-12))
0.0892992     	((-4.701232e-05 4.004316e-08 -5.958141e-05) (-5.373097e-05 -1.874885e-09 -2.269089e-08)) ((-2.519940e-12 -2.543751e-09 -4.927660e-13) (1.409748e-12 1.773699e-06 -5.794105e-12))
0.119159      	((5.896370e-05 -2.442871e-08 -3.836644e-05) (-4.961085e-05 -1.461573e-09 -4.283593e-08)) ((2.408726e-12 1.100930e-09 2.330303e-13) (-1.915998e-12 1.660201e-06 7.304436e-12))
0.154991      	((3.101748e-05 2.943282e-08 -2.599168e-05) (-4.525844e-05 -1.335255e-09 -5.803166e-08)) ((-8.806003e-13 6.450734e-10 -6.784950e-13) (-1.142563e-12 1.534294e-06 2.777644e-11))
0.197989      	((7.368855e-06 -1.536996e-08 -1.827441e-05) (-4.088732e-05 -1.052655e-09 -7.092619e-08)) ((-4.299096e-13 1.870884e-10 1.312122e-13) (2.622823e-12 1.406490e-06 4.040305e-11))
0.249587      	((-1.147862e-06 -1.298768e-08 -1.352170e-05) (-3.662558e-05 -7.343133e-10 -8.664820e-08)) ((8.545705e-13 3.727737e-11 1.046965e-12) (7.090725e-13 1.279304e-06 3.710434e-11))
0.311504      	((-4.952975e-06 -7.918695e-09 -1.067167e-05) (-3.260299e-05 -4.627376e-10 -1.052102e-07)) ((5.039454e-13 -1.759324e-11 1.301357e-13) (-9.835370e-13 1.155367e-06 3.088751e-11))
0.385805      	((-6.879754e-06 -3.864911e-09 -8.794549e-06) (-2.892313e-05 -3.210309e-10 -1.243808e-07)) ((2.557700e-13 -3.111857e-11 1.878294e-13) (-1.969137e-12 1.037757e-06 2.699079e-11))
0.474966      	((-7.897005e-06 -1.509023e-09 -7.596678e-06) (-2.564402e-05 -2.793633e-10 -1.430907e-07)) ((1.391771e-13 -4.350633e-11 1.548866e-13) (-2.193111e-12 9.293542e-07 2.495447e-11))
0.581959      	((-8.324653e-06 -7.072711e-10 -6.808065e-06) (-2.276406e-05 -2.646508e-10 -1.620853e-07)) ((1.129359e-13 -5.374087e-11 9.059423e-14) (-1.761727e-12 8.312363e-07 2.349138e-11))
0.710351      	((-8.309751e-06 2.165395e-11 -6.329571e-06) (-2.026211e-05 -2.380299e-10 -1.790876e-07)) ((6.010674e-14 -5.944521e-11 5.986613e-14) (-1.099957e-12 7.438544e-07 2.071404e-11))
0.864421      	((-8.013869e-06 -8.366024e-11 -6.022362e-06) (-1.810630e-05 -1.410444e-10 -1.929769e-07)) ((3.583560e-14 -6.093357e-11 2.520753e-14) (-4.782699e-13 6.671871e-07 1.393572e-11))
1.049306      	((-7.575600e-06 -1.194163e-10 -5.836138e-06) (-1.625157e-05 -6.676325e-11 -2.055508e-07)) ((4.267200e-14 -5.976837e-11 3.952708e-15) (-2.591113e-13 6.002689e-07 7.978994e-12))
1.271167      	((-7.075176e-06 -3.552983e-11 -5.710879e-06) (-1.465013e-05 -4.050160e-11 -2.191056e-07)) ((5.726675e-14 -5.736975e-11 -2.238554e-14) (-3.246223e-13 5.417398e-07 4.698330e-12))
1.5374        	((-6.549691e-06 4.845692e-12 -5.637516e-06) (-1.325472e-05 -2.397572e-11 -2.349900e-07)) ((5.435460e-14 -5.389408e-11 -2.524941e-14) (-6.117298e-13 4.903157e-07 2.632672e-12))
1.85688       	((-6.033071e-06 -5.504677e-11 -5.586902e-06) (-1.202521e-05 -2.211845e-12 -2.535276e-07)) ((5.643616e-14 -5.021517e-11 -2.331450e-14) (-1.187742e-12 4.448600e-07 1.248712e-12))
2.240256      	((-5.546928e-06 -1.555158e-10 -5.553928e-06) (-1.093318e-05 2.155654e-11 -2.741971e-07)) ((5.770482e-14 -4.736679e-11 -1.801437e-14) (-1.928368e-12 4.044530e-07 1.270295e-12))
2.700307      	((-5.097073e-06 -2.711554e-10 -5.526604e-06) (-9.958881e-06 3.225185e-11 -2.964209e-07)) ((5.140337e-14 -4.488448e-11 -1.622025e-14) (-2.876318e-12 3.683935e-07 2.442827e-12))
3.252369      	((-4.682086e-06 -4.265536e-10 -5.499308e-06) (-9.086964e-06 2.265138e-11 -3.203205e-07)) ((5.485639e-14 -4.252984e-11 -9.441681e-15) (-4.101280e-12 3.361218e-07 3.605012e-12))
3.914842      	((-4.301285e-06 -4.953079e-10 -5.471259e-06) (-8.304951e-06 7.533236e-12 -3.460616e-07)) ((6.341970e-14 -4.033574e-11 -8.841280e-15) (-5.352596e-12 3.071770e-07 4.045052e-12))
4.709811      	((-3.956506e-06 -6.275055e-10 -5.440588e-06) (-7.603571e-06 -7.639005e-12 -3.734993e-07)) ((7.285125e-14 -3.862117e-11 -7.962934e-15) (-6.709516e-12 2.812083e-07 3.724761e-12))
5.663773      	((-3.649363e-06 -5.440842e-10 -5.406994e-06) (-6.975985e-06 -2.491229e-11 -4.024939e-07)) ((6.585688e-14 -3.750124e-11 -9.339295e-15) (-8.020347e-12 2.579596e-07 3.040946e-12))
6.808528      	((-3.378377e-06 -3.836193e-10 -5.367882e-06) (-6.415960e-06 -3.018692e-11 -4.330444e-07)) ((6.595810e-14 -3.682556e-11 -1.221688e-14) (-8.979211e-12 2.372039e-07 2.593113e-12))
8.182233      	((-3.141988e-06 -7.035424e-10 -5.321278e-06) (-5.916615e-06 -3.631297e-11 -4.652163e-07)) ((8.954120e-14 -3.643057e-11 -9.347994e-15) (-1.057374e-11 2.186897e-07 2.667404e-12))
9.83068       	((-2.940780e-06 -9.941902e-10 -5.266848e-06) (-5.471040e-06 -5.435276e-11 -4.989863e-07)) ((1.066558e-13 -3.641644e-11 -5.031222e-15) (-1.326542e-11 2.021663e-07 2.910930e-12))
11.808816     	((-2.773958e-06 -9.884630e-10 -5.205415e-06) (-5.072801e-06 -7.046968e-11 -5.342395e-07)) ((1.090693e-13 -3.676131e-11 -7.816705e-15) (-1.570179e-11 1.873969e-07 3.823855e-12))
14.182579     	((-2.639031e-06 -8.809583e-10 -5.138367e-06) (-4.716492e-06 -8.450596e-11 -5.708094e-07)) ((1.163863e-13 -3.746527e-11 -1.005829e-14) (-1.803301e-11 1.741791e-07 5.562141e-12))
17.031095     	((-2.535620e-06 -1.105970e-09 -5.064270e-06) (-4.398149e-06 -1.116741e-10 -6.084684e-07)) ((1.128417e-13 -3.858941e-11 -1.040037e-14) (-2.062741e-11 1.623657e-07 7.591838e-12))
20.449314     	((-2.463365e-06 -1.105928e-09 -4.983893e-06) (-4.114932e-06 -1.399212e-10 -6.467615e-07)) ((1.106208e-13 -4.014864e-11 -1.103253e-14) (-2.281844e-11 1.518545e-07 9.969396e-12))
24.551176     	((-2.421890e-06 -1.185390e-09 -4.896375e-06) (-3.864685e-06 -1.690821e-10 -6.849328e-07)) ((1.100514e-13 -4.210684e-11 -1.269034e-14) (-2.456117e-11 1.425719e-07 1.256781e-11))
29.473411     	((-2.408717e-06 -1.330522e-09 -4.801798e-06) (-3.645552e-06 -2.113529e-10 -7.220897e-07)) ((1.016784e-13 -4.453534e-11 -1.487929e-14) (-2.591286e-11 1.344565e-07 1.533321e-11))
35.380094     	((-2.421271e-06 -1.285939e-09 -4.700366e-06) (-3.455904e-06 -2.391650e-10 -7.573895e-07)) ((8.827663e-14 -4.739836e-11 -1.513559e-14) (-2.617514e-11 1.274626e-07 1.739554e-11))
42.468112     	((-2.458935e-06 -1.022931e-09 -4.591766e-06) (-3.294196e-06 -2.461220e-10 -7.903261e-07)) ((6.968153e-14 -5.074545e-11 -1.708398e-14) (-2.475958e-11 1.215508e-07 1.877095e-11))
50.973735     	((-2.516020e-06 -7.714015e-10 -4.477504e-06) (-3.159221e-06 -2.373032e-10 -8.207195e-07)) ((4.875035e-14 -5.445174e-11 -1.728362e-14) (-2.185657e-11 1.166829e-07 1.891881e-11))
61.180482     	((-2.585951e-06 -4.523814e-10 -4.358179e-06) (-3.048944e-06 -1.987149e-10 -8.484462e-07)) ((1.868147e-14 -5.821412e-11 -1.968428e-14) (-1.786347e-11 1.127867e-07 1.803959e-11))
73.261784     	((-2.662061e-06 -1.651012e-10 -4.233648e-06) (-2.961762e-06 -1.643848e-10 -8.724522e-07)) ((7.207457e-15 -6.153557e-11 -1.971307e-14) (-1.292412e-11 1.097726e-07 1.706763e-11))
87.203143     	((-2.734400e-06 1.766029e-10 -4.104569e-06) (-2.894469e-06 -1.121862e-10 -8.913184e-07)) ((-1.120968e-14 -6.418262e-11 -2.230012e-14) (-7.271156e-12 1.074737e-07 1.521632e-11))
102.991865    	((-2.793666e-06 4.858528e-10 -3.969268e-06) (-2.841766e-06 -2.162211e-11 -9.041233e-07)) ((-2.416346e-14 -6.603548e-11 -2.258356e-14) (-1.969868e-12 1.056727e-07 1.298404e-11))
120.621817    	((-2.835001e-06 8.689258e-10 -3.830038e-06) (-2.798820e-06 9.440806e-11 -9.114514e-07)) ((-3.043690e-14 -6.736358e-11 -2.479852e-14) (3.334005e-12 1.041899e-07 1.095953e-11))
139.059766    	((-2.862753e-06 1.177944e-09 -3.701845e-06) (-2.763206e-06 2.218128e-10 -9.146803e-07)) ((-3.700032e-14 -6.839343e-11 -2.754859e-14) (8.276336e-12 1.029688e-07 9.183392e-12))
157.557639    	((-2.878975e-06 1.358128e-09 -3.591297e-06) (-2.733075e-06 3.394324e-10 -9.158426e-07)) ((-4.143288e-14 -6.910632e-11 -2.754238e-14) (1.253828e-11 1.019528e-07 7.770182e-12))
176.09681     	((-2.886836e-06 1.438602e-09 -3.497280e-06) (-2.707087e-06 4.325432e-10 -9.161699e-07)) ((-4.501056e-14 -6.955655e-11 -2.602253e-14) (1.585613e-11 1.010917e-07 6.584756e-12))
194.652583    	((-2.890735e-06 1.466636e-09 -3.415795e-06) (-2.684681e-06 5.097439e-10 -9.162228e-07)) ((-4.411970e-14 -6.980130e-11 -2.650490e-14) (1.844985e-11 1.003583e-07 5.148405e-12))
213.216521    	((-2.891526e-06 1.413057e-09 -3.342974e-06) (-2.665311e-06 5.649974e-10 -9.162375e-07)) ((-4.104413e-14 -6.990269e-11 -2.596405e-14) (2.014400e-11 9.972795e-08 3.825712e-12))
231.790183    	((-2.890605e-06 1.328218e-09 -3.278041e-06) (-2.648501e-06 6.024632e-10 -9.162650e-07)) ((-3.465020e-14 -6.992352e-11 -2.653432e-14) (2.090128e-11 9.918339e-08 2.757494e-12))
250.374541    	((-2.888404e-06 1.147931e-09 -3.220189e-06) (-2.633842e-06 6.204083e-10 -9.163606e-07)) ((-2.731932e-14 -6.988993e-11 -2.714840e-14) (2.081159e-11 9.870967e-08 1.690455e-12))
268.968315    	((-2.885871e-06 9.298445e-10 -3.169386e-06) (-2.621043e-06 6.214361e-10 -9.165413e-07)) ((-1.817122e-14 -6.982597e-11 -2.764194e-14) (1.992547e-11 9.829630e-08 7.574537e-13))
287.570138    	((-2.883146e-06 6.635204e-10 -3.124623e-06) (-2.609848e-06 6.078277e-10 -9.167972e-07)) ((-8.562751e-15 -6.974283e-11 -2.717594e-14) (1.828189e-11 9.793440e-08 -6.892865e-15))
306.179197    	((-2.880324e-06 4.066312e-10 -3.084622e-06) (-2.600019e-06 5.808089e-10 -9.171175e-07)) ((7.624042e-17 -6.965093e-11 -2.618554e-14) (1.617335e-11 9.761590e-08 -8.250493e-13))
324.79479     	((-2.877760e-06 1.643074e-10 -3.048980e-06) (-2.591390e-06 5.464432e-10 -9.174534e-07)) ((6.205903e-15 -6.956638e-11 -2.610981e-14) (1.388815e-11 9.733644e-08 -1.638638e-12))
343.416172    	((-2.875190e-06 -8.563362e-11 -3.017287e-06) (-2.583804e-06 5.060902e-10 -9.177958e-07)) ((1.181159e-14 -6.948061e-11 -2.551887e-14) (1.157102e-11 9.709076e-08 -2.470720e-12))
362.042705    	((-2.872582e-06 -3.478645e-10 -2.988991e-06) (-2.577112e-06 4.599728e-10 -9.181356e-07)) ((1.790874e-14 -6.939691e-11 -2.502041e-14) (9.107086e-12 9.687401e-08 -3.197520e-12))
380.673838    	((-2.870038e-06 -5.672363e-10 -2.963630e-06) (-2.571187e-06 4.120203e-10 -9.184625e-07)) ((2.259825e-14 -6.931571e-11 -2.480450e-14) (6.678773e-12 9.668220e-08 -3.823038e-12))
399.309081    	((-2.867622e-06 -7.716140e-10 -2.940887e-06) (-2.565928e-06 3.647129e-10 -9.187716e-07)) ((2.676973e-14 -6.924038e-11 -2.458652e-14) (4.320955e-12 9.651213e-08 -4.399103e-12))
417.947994    	((-2.865414e-06 -9.548023e-10 -2.920462e-06) (-2.561259e-06 3.194793e-10 -9.190583e-07)) ((3.022307e-14 -6.917220e-11 -2.432331e-14) (2.124885e-12 9.636135e-08 -4.916568e-12))
436.590189    	((-2.863292e-06 -1.116548e-09 -2.902056e-06) (-2.557098e-06 2.764629e-10 -9.193259e-07)) ((3.247811e-14 -6.910802e-11 -2.403559e-14) (1.456770e-13 9.622711e-08 -5.415766e-12))
455.235326    	((-2.861314e-06 -1.259254e-09 -2.885449e-06) (-2.553381e-06 2.362235e-10 -9.195744e-07)) ((3.507140e-14 -6.904824e-11 -2.360322e-14) (-1.640109e-12 9.610729e-08 -5.798904e-12))
473.883106    	((-2.859498e-06 -1.379467e-09 -2.870490e-06) (-2.550057e-06 2.005755e-10 -9.198065e-07)) ((3.690190e-14 -6.899285e-11 -2.352479e-14) (-3.219328e-12 9.600010e-08 -6.140092e-12))
492.533263    	((-2.857824e-06 -1.494880e-09 -2.856971e-06) (-2.547084e-06 1.685256e-10 -9.200181e-07)) ((3.906167e-14 -6.894307e-11 -2.357817e-14) (-4.696012e-12 9.590418e-08 -6.457454e-12))
511.18556     	((-2.856285e-06 -1.599066e-09 -2.844774e-06) (-2.544422e-06 1.387053e-10 -9.202072e-07)) ((4.114284e-14 -6.889795e-11 -2.352971e-14) (-6.084555e-12 9.581833e-08 -6.735810e-12))
529.839788    	((-2.854881e-06 -1.704518e-09 -2.833739e-06) (-2.542035e-06 1.100431e-10 -9.203737e-07)) ((4.320873e-14 -6.885759e-11 -2.340381e-14) (-7.379288e-12 9.574150e-08 -6.954430e-12))
548.495757    	((-2.853602e-06 -1.804006e-09 -2.823796e-06) (-2.539895e-06 8.310536e-11 -9.205185e-07)) ((4.461984e-14 -6.882153e-11 -2.318808e-14) (-8.591299e-12 9.567276e-08 -7.127406e-12))
567.153297    	((-2.852407e-06 -1.893592e-09 -2.814786e-06) (-2.537972e-06 5.829454e-11 -9.206436e-07)) ((4.583384e-14 -6.878858e-11 -2.294665e-14) (-9.712853e-12 9.561113e-08 -7.288096e-12))
585.812255    	((-2.851321e-06 -1.971935e-09 -2.806645e-06) (-2.536241e-06 3.550067e-11 -9.207500e-07)) ((4.683031e-14 -6.875949e-11 -2.283178e-14) (-1.073149e-11 9.555588e-08 -7.452960e-12))
604.472495    	((-2.850340e-06 -2.043349e-09 -2.799278e-06) (-2.534685e-06 1.486707e-11 -9.208387e-07)) ((4.783713e-14 -6.873395e-11 -2.274143e-14) (-1.165258e-11 9.550639e-08 -7.625960e-12))
623.133893    	((-2.849445e-06 -2.109285e-09 -2.792634e-06) (-2.533284e-06 -3.770143e-12 -9.209120e-07)) ((4.892967e-14 -6.871117e-11 -2.274109e-14) (-1.248126e-11 9.546203e-08 -7.801678e-12))
641.796338    	((-2.848605e-06 -2.174387e-09 -2.786591e-06) (-2.532021e-06 -2.113876e-11 -9.209734e-07)) ((5.007460e-14 -6.869039e-11 -2.278977e-14) (-1.324847e-11 9.542215e-08 -7.966396e-12))
660.45973     	((-2.847849e-06 -2.230767e-09 -2.781126e-06) (-2.530880e-06 -3.701731e-11 -9.210238e-07)) ((5.104587e-14 -6.867226e-11 -2.280240e-14) (-1.395464e-11 9.538631e-08 -8.118053e-12))
679.12398     	((-2.847159e-06 -2.287550e-09 -2.776173e-06) (-2.529851e-06 -5.198394e-11 -9.210639e-07)) ((5.204715e-14 -6.865620e-11 -2.276130e-14) (-1.462512e-11 9.535412e-08 -8.259377e-12))
697.789006    	((-2.846527e-06 -2.338892e-09 -2.771679e-06) (-2.528922e-06 -6.592504e-11 -9.210960e-07)) ((5.286020e-14 -6.864180e-11 -2.269605e-14) (-1.525674e-11 9.532514e-08 -8.399855e-12))
716.454735    	((-2.845949e-06 -2.389944e-09 -2.767596e-06) (-2.528082e-06 -7.910319e-11 -9.211212e-07)) ((5.366612e-14 -6.862908e-11 -2.262991e-14) (-1.585317e-11 9.529904e-08 -8.540156e-12))
735.1211      	((-2.845423e-06 -2.435815e-09 -2.763892e-06) (-2.527322e-06 -9.137111e-11 -9.211404e-07)) ((5.435609e-14 -6.861780e-11 -2.254294e-14) (-1.640671e-11 9.527552e-08 -8.677639e-12))
753.788041    	((-2.844942e-06 -2.480303e-09 -2.760527e-06) (-2.526635e-06 -1.029025e-10 -9.211547e-07)) ((5.508260e-14 -6.860777e-11 -2.250063e-14) (-1.693113e-11 9.525431e-08 -8.808301e-12))
772.455504    	((-2.844503e-06 -2.520155e-09 -2.757463e-06) (-2.526013e-06 -1.136166e-10 -9.211644e-07)) ((5.570830e-14 -6.859889e-11 -2.245318e-14) (-1.742268e-11 9.523517e-08 -8.937092e-12))
791.123442    	((-2.844101e-06 -2.559799e-09 -2.754690e-06) (-2.525450e-06 -1.237395e-10 -9.211706e-07)) ((5.643099e-14 -6.859093e-11 -2.241010e-14) (-1.788968e-11 9.521789e-08 -9.060309e-12))
809.791808    	((-2.843735e-06 -2.596439e-09 -2.752169e-06) (-2.524939e-06 -1.333188e-10 -9.211740e-07)) ((5.701829e-14 -6.858389e-11 -2.234973e-14) (-1.833211e-11 9.520229e-08 -9.180465e-12))
828.460564    	((-2.843403e-06 -2.629074e-09 -2.749879e-06) (-2.524478e-06 -1.421750e-10 -9.211747e-07)) ((5.752414e-14 -6.857772e-11 -2.230531e-14) (-1.874314e-11 9.518819e-08 -9.297965e-12))
847.129673    	((-2.843098e-06 -2.659387e-09 -2.747796e-06) (-2.524059e-06 -1.503597e-10 -9.211736e-07)) ((5.798449e-14 -6.857215e-11 -2.226896e-14) (-1.912132e-11 9.517545e-08 -9.408718e-12))
865.799102    	((-2.842824e-06 -2.687837e-09 -2.745915e-06) (-2.523679e-06 -1.580573e-10 -9.211708e-07)) ((5.842926e-14 -6.856732e-11 -2.223770e-14) (-1.947334e-11 9.516392e-08 -9.509027e-12))
884.468821    	((-2.842569e-06 -2.714223e-09 -2.744197e-06) (-2.523335e-06 -1.652665e-10 -9.211668e-07)) ((5.882863e-14 -6.856293e-11 -2.221041e-14) (-1.980028e-11 9.515350e-08 -9.600703e-12))
903.138804    	((-2.842338e-06 -2.738822e-09 -2.742637e-06) (-2.523023e-06 -1.719822e-10 -9.211619e-07)) ((5.921119e-14 -6.855904e-11 -2.218438e-14) (-2.010449e-11 9.514406e-08 -9.684721e-12))
921.809026    	((-2.842128e-06 -2.761046e-09 -2.741214e-06) (-2.522739e-06 -1.781847e-10 -9.211561e-07)) ((5.955929e-14 -6.855558e-11 -2.216248e-14) (-2.038609e-11 9.513552e-08 -9.761426e-12))
940.479465    	((-2.841936e-06 -2.782104e-09 -2.739931e-06) (-2.522482e-06 -1.839045e-10 -9.211499e-07)) ((5.987999e-14 -6.855254e-11 -2.213560e-14) (-2.064790e-11 9.512777e-08 -9.830830e-12))
959.150102    	((-2.841761e-06 -2.800508e-09 -2.738753e-06) (-2.522248e-06 -1.891562e-10 -9.211433e-07)) ((6.013956e-14 -6.854982e-11 -2.210705e-14) (-2.088822e-11 9.512075e-08 -9.893998e-12))
977.820917    	((-2.841599e-06 -2.818394e-09 -2.737683e-06) (-2.522036e-06 -1.940682e-10 -9.211365e-07)) ((6.040423e-14 -6.854735e-11 -2.207555e-14) (-2.111341e-11 9.511439e-08 -9.951957e-12))
996.491896    	((-2.841455e-06 -2.834003e-09 -2.736712e-06) (-2.521844e-06 -1.985833e-10 -9.211295e-07)) ((6.061040e-14 -6.854524e-11 -2.204440e-14) (-2.132033e-11 9.510861e-08 -1.000550e-11))
1015.163022   	((-2.841321e-06 -2.848875e-09 -2.735826e-06) (-2.521669e-06 -2.027533e-10 -9.211225e-07)) ((6.081333e-14 -6.854329e-11 -2.201473e-14) (-2.151106e-11 9.510338e-08 -1.005479e-11))
1033.834282   	((-2.841201e-06 -2.862227e-09 -2.735024e-06) (-2.521510e-06 -2.065835e-10 -9.211155e-07)) ((6.098347e-14 -6.854162e-11 -2.199162e-14) (-2.168583e-11 9.509863e-08 -1.010044e-11))
1052.505664   	((-2.841090e-06 -2.874701e-09 -2.734292e-06) (-2.521365e-06 -2.100914e-10 -9.211087e-07)) ((6.115262e-14 -6.854007e-11 -2.196859e-14) (-2.184688e-11 9.509432e-08 -1.014182e-11))
1071.177158   	((-2.840988e-06 -2.885934e-09 -2.733623e-06) (-2.521234e-06 -2.133050e-10 -9.211020e-07)) ((6.131233e-14 -6.853868e-11 -2.194922e-14) (-2.199526e-11 9.509040e-08 -1.017944e-11))
1089.848752   	((-2.840897e-06 -2.896636e-09 -2.733017e-06) (-2.521115e-06 -2.162558e-10 -9.210954e-07)) ((6.148031e-14 -6.853747e-11 -2.193529e-14) (-2.213207e-11 9.508685e-08 -1.021395e-11))
1108.520437   	((-2.840814e-06 -2.906487e-09 -2.732452e-06) (-2.521006e-06 -2.189741e-10 -9.210891e-07)) ((6.163528e-14 -6.853636e-11 -2.192183e-14) (-2.225842e-11 9.508363e-08 -1.024539e-11))
1127.192206   	((-2.840737e-06 -2.915102e-09 -2.731953e-06) (-2.520908e-06 -2.214792e-10 -9.210830e-07)) ((6.177244e-14 -6.853540e-11 -2.190970e-14) (-2.237433e-11 9.508070e-08 -1.027395e-11))
