# Forces      
# CofR        : (0.000000e+00 0.000000e+00 0.000000e+00)
# Time        forces(pressure viscous)	moments(pressure viscous)
0             	((0.000000e+00 0.000000e+00 0.000000e+00) (0.000000e+00 0.000000e+00 0.000000e+00)) ((0.000000e+00 0.000000e+00 0.000000e+00) (0.000000e+00 0.000000e+00 0.000000e+00))
0.012         	((-2.475772e-11 1.146850e-06 1.857419e-07) (-3.339656e-13 2.638075e-06 -3.746899e-12)) ((1.675888e-10 6.051687e-13 -1.535171e-12) (1.755522e-07 1.558860e-14 2.834490e-13))
0.0264        	((-6.616095e-10 1.541457e-06 3.934094e-07) (-1.509684e-12 2.416498e-06 -1.214029e-11)) ((-7.598897e-11 1.315204e-12 -6.794077e-13) (1.609816e-07 3.734449e-14 2.913111e-13))
0.04368       	((5.213254e-10 1.042311e-06 2.133751e-07) (-2.015925e-12 2.187852e-06 -2.799469e-11)) ((-5.637366e-11 6.870587e-13 -7.654133e-13) (1.459904e-07 1.001476e-14 5.477009e-13))
0.064416      	((-5.874188e-10 1.178400e-06 2.759954e-07) (-2.758921e-12 1.957208e-06 -5.330926e-11)) ((-1.114169e-10 9.079758e-13 -4.825949e-13) (1.309196e-07 -4.477366e-14 2.179629e-13))
0.0892992     	((3.036901e-10 8.699096e-07 1.839708e-07) (-2.879673e-12 1.731171e-06 -8.643596e-11)) ((-7.946147e-11 5.936443e-13 -3.198113e-13) (1.162001e-07 -8.964058e-14 -6.339586e-13))
0.119159      	((-2.075836e-10 8.920515e-07 1.995977e-07) (-2.303108e-12 1.516977e-06 -1.250877e-10)) ((-9.730416e-11 6.478162e-13 -1.680161e-13) (1.023157e-07 -8.005267e-14 -9.840500e-13))
0.154991      	((1.550038e-10 6.720184e-07 1.423995e-07) (-2.043210e-12 1.321303e-06 -1.729906e-10)) ((-6.795982e-11 4.603282e-13 -7.509870e-14) (8.956309e-08 -7.368510e-14 -1.118392e-12))
0.197989      	((-4.256389e-11 6.634140e-07 1.432964e-07) (-1.619372e-12 1.148165e-06 -2.310114e-10)) ((-7.672589e-11 4.680101e-13 -1.131272e-13) (7.826945e-08 -7.087445e-14 -1.197671e-12))
0.249587      	((6.182871e-11 5.155816e-07 1.110319e-07) (-1.711296e-12 1.000559e-06 -2.955713e-10)) ((-5.498727e-11 3.494617e-13 -9.282664e-14) (6.856902e-08 -5.121609e-14 -1.131087e-12))
0.311504      	((2.247235e-11 5.005161e-07 1.073787e-07) (-9.224146e-13 8.777831e-07 -3.566860e-10)) ((-6.062341e-11 3.493510e-13 -1.656805e-13) (6.046470e-08 -4.449082e-14 -9.166535e-13))
0.385805      	((1.218318e-11 4.035724e-07 8.905059e-08) (-6.819386e-13 7.762577e-07 -4.172879e-10)) ((-4.521699e-11 2.787162e-13 -1.062831e-13) (5.375554e-08 -4.212442e-14 -5.351990e-13))
0.474966      	((1.662238e-11 3.910732e-07 8.379380e-08) (-1.006745e-12 6.921681e-07 -4.557840e-10)) ((-4.915892e-11 2.696154e-13 -1.436746e-13) (4.820768e-08 -4.210291e-14 -2.008906e-13))
0.581959      	((-6.699298e-12 3.258770e-07 7.203577e-08) (-1.820148e-12 6.213039e-07 -4.983202e-10)) ((-3.796397e-11 2.216917e-13 -9.770394e-14) (4.352874e-08 -4.085093e-15 -1.890867e-13))
0.710351      	((1.202659e-11 3.155383e-07 6.640666e-08) (-2.513865e-12 5.603928e-07 -5.155361e-10)) ((-4.092795e-11 2.115735e-13 -1.460979e-13) (3.952082e-08 -4.030193e-14 -1.344203e-13))
0.864421      	((-2.921588e-11 2.687823e-07 5.863361e-08) (-2.522019e-12 5.068413e-07 -5.470184e-10)) ((-3.302467e-11 1.792901e-13 -1.012381e-13) (3.600026e-08 -7.598293e-14 -2.767091e-13))
1.049306      	((1.008415e-11 2.582987e-07 5.371242e-08) (-4.599139e-12 4.591821e-07 -5.496175e-10)) ((-3.532672e-11 1.708084e-13 -8.402282e-14) (3.288049e-08 -1.901088e-13 -5.481352e-13))
1.271167      	((-1.213044e-11 2.221868e-07 4.787358e-08) (-4.275815e-12 4.162105e-07 -5.889276e-10)) ((-2.990105e-11 1.510339e-13 6.712449e-16) (3.007069e-08 -2.433406e-13 -6.478326e-13))
1.5374        	((-6.421389e-12 2.108976e-07 4.333457e-08) (-2.860052e-12 3.774043e-07 -5.501923e-10)) ((-3.113196e-11 1.441665e-13 1.205076e-14) (2.753590e-08 -3.139663e-13 -5.927391e-13))
1.85688       	((-8.816875e-12 1.829008e-07 3.895009e-08) (-5.498885e-12 3.423627e-07 -5.831201e-10)) ((-2.719917e-11 1.322484e-13 5.385766e-14) (2.525295e-08 -4.751049e-13 -5.885565e-13))
2.240256      	((-1.078362e-11 1.711602e-07 3.548441e-08) (-4.441944e-12 3.108976e-07 -5.956550e-10)) ((-2.752205e-11 1.232866e-13 4.317869e-14) (2.320166e-08 -6.528574e-13 -8.251391e-13))
2.700307      	((-4.447693e-12 1.503252e-07 3.246056e-08) (-6.215259e-12 2.830810e-07 -5.864673e-10)) ((-2.477453e-11 1.167680e-13 6.753145e-14) (2.138949e-08 -9.533235e-13 -1.138448e-12))
3.252369      	((-1.362126e-11 1.396477e-07 2.995872e-08) (-7.887664e-12 2.585399e-07 -5.901845e-10)) ((-2.476384e-11 1.025600e-13 5.400314e-14) (1.978909e-08 -1.278909e-12 -1.207450e-12))
3.914842      	((-8.980135e-12 1.247959e-07 2.772282e-08) (-1.826347e-12 2.369549e-07 -5.692081e-10)) ((-2.319813e-11 1.049126e-13 5.498220e-14) (1.838536e-08 -1.651122e-12 -9.705665e-13))
4.709811      	((3.145342e-12 1.154201e-07 2.554727e-08) (5.621018e-13 2.179509e-07 -5.768744e-10)) ((-2.290368e-11 7.163875e-14 4.879458e-14) (1.715256e-08 -1.840527e-12 -5.322784e-13))
5.663773      	((2.483023e-12 1.043800e-07 2.333958e-08) (-2.434968e-12 2.010864e-07 -6.123790e-10)) ((-2.189132e-11 6.847328e-14 5.106024e-14) (1.606253e-08 -1.551801e-12 -1.726302e-13))
6.808528      	((-1.623909e-11 9.632044e-08 2.117456e-08) (-2.134191e-12 1.859676e-07 -6.565718e-10)) ((-2.132163e-11 4.974161e-14 5.430310e-14) (1.508801e-08 -1.165354e-12 8.297037e-14))
8.182233      	((-8.177431e-13 8.771769e-08 1.884506e-08) (-3.380234e-12 1.722484e-07 -7.222764e-10)) ((-2.064264e-11 4.252147e-14 5.933011e-14) (1.420840e-08 -1.025090e-12 8.180179e-14))
9.83068       	((8.582947e-12 8.063025e-08 1.675278e-08) (-4.573310e-12 1.597002e-07 -8.096019e-10)) ((-2.008647e-11 1.315246e-14 6.071986e-14) (1.340948e-08 -1.204923e-12 -2.629796e-14))
11.808816     	((2.091408e-11 7.365442e-08 1.468773e-08) (-5.309951e-12 1.481765e-07 -9.072685e-10)) ((-1.958677e-11 1.253632e-14 6.154169e-14) (1.268092e-08 -1.026784e-12 9.896591e-14))
14.182579     	((9.636130e-12 6.772854e-08 1.301813e-08) (-8.891638e-12 1.375861e-07 -9.974140e-10)) ((-1.913583e-11 -3.965408e-15 6.220716e-14) (1.201457e-08 -6.582710e-13 8.688718e-14))
17.031095     	((6.093529e-12 6.203983e-08 1.157195e-08) (-9.630592e-12 1.278456e-07 -1.060938e-09)) ((-1.875431e-11 -8.692896e-15 6.144993e-14) (1.140589e-08 -3.995507e-13 -3.700913e-15))
20.449314     	((-1.093862e-11 5.700710e-08 1.043307e-08) (-8.592390e-12 1.189055e-07 -1.106327e-09)) ((-1.839513e-11 -1.490338e-14 6.339397e-14) (1.085099e-08 -1.393311e-13 -4.373704e-14))
24.551176     	((-3.529653e-12 5.223140e-08 9.454576e-09) (-8.510577e-12 1.107190e-07 -1.113505e-09)) ((-1.811309e-11 -1.739219e-14 6.559824e-14) (1.034632e-08 1.181253e-13 1.680722e-14))
29.473411     	((-1.233003e-11 4.796828e-08 8.449581e-09) (-7.467678e-12 1.032417e-07 -1.100252e-09)) ((-1.786210e-11 -2.143138e-14 6.777758e-14) (9.888431e-09 3.679314e-13 1.015218e-13))
35.380094     	((-1.079942e-11 4.404171e-08 7.442278e-09) (-6.086637e-12 9.642181e-08 -1.079004e-09)) ((-1.765736e-11 -2.506877e-14 6.906000e-14) (9.473161e-09 3.987049e-13 2.149655e-13))
42.468112     	((-5.436672e-12 4.050984e-08 6.384100e-09) (-5.122594e-12 9.019594e-08 -1.066787e-09)) ((-1.746902e-11 -2.827567e-14 6.856493e-14) (9.096346e-09 3.107089e-13 3.411344e-13))
50.973735     	((-3.839305e-12 3.723303e-08 5.343935e-09) (-4.653773e-12 8.451285e-08 -1.067377e-09)) ((-1.731206e-11 -3.341757e-14 6.879206e-14) (8.754390e-09 2.016588e-13 4.541439e-13))
61.180482     	((6.807725e-13 3.429611e-08 4.375766e-09) (-1.959275e-12 7.933087e-08 -1.075667e-09)) ((-1.716876e-11 -3.868587e-14 6.859587e-14) (8.444484e-09 -1.965221e-14 5.986056e-13))
73.428578     	((7.084792e-12 3.165386e-08 3.440942e-09) (-3.554547e-13 7.461441e-08 -1.087301e-09)) ((-1.705045e-11 -4.365166e-14 6.869798e-14) (8.164605e-09 -2.333065e-13 7.138122e-13))
88.126294     	((7.368993e-12 2.930690e-08 2.499045e-09) (7.526129e-13 7.032849e-08 -1.102656e-09)) ((-1.694765e-11 -4.809032e-14 6.933998e-14) (7.912450e-09 -3.853166e-13 8.156068e-13))
105.763553    	((1.116459e-11 2.722893e-08 1.642906e-09) (1.069791e-12 6.644117e-08 -1.126850e-09)) ((-1.686630e-11 -5.236927e-14 6.952994e-14) (7.685840e-09 -4.194220e-13 8.888154e-13))
126.928263    	((1.221548e-11 2.537281e-08 8.739736e-10) (1.194315e-12 6.292342e-08 -1.163913e-09)) ((-1.679949e-11 -5.611283e-14 6.942069e-14) (7.483034e-09 -4.192811e-13 9.212277e-13))
152.325916    	((1.255919e-11 2.376500e-08 1.629648e-10) (5.365081e-13 5.974920e-08 -1.216699e-09)) ((-1.674693e-11 -5.997726e-14 6.893072e-14) (7.302128e-09 -4.348009e-13 9.043736e-13))
182.803099    	((1.383238e-11 2.237740e-08 -5.475666e-10) (6.054351e-15 5.689476e-08 -1.286034e-09)) ((-1.670416e-11 -6.387726e-14 6.824179e-14) (7.141272e-09 -4.518967e-13 8.876902e-13))
219.375719    	((1.527638e-11 2.117906e-08 -1.203863e-09) (-4.227447e-13 5.433588e-08 -1.374139e-09)) ((-1.667249e-11 -6.675432e-14 6.771167e-14) (6.998734e-09 -4.668066e-13 8.706081e-13))
263.262863    	((1.778299e-11 2.015399e-08 -1.847443e-09) (-3.754782e-13 5.204648e-08 -1.480224e-09)) ((-1.664445e-11 -6.950868e-14 6.739240e-14) (6.872781e-09 -4.858363e-13 8.577675e-13))
315.927436    	((2.132323e-11 1.928322e-08 -2.505116e-09) (3.382653e-14 5.000911e-08 -1.605466e-09)) ((-1.662436e-11 -7.217022e-14 6.723827e-14) (6.762041e-09 -5.045108e-13 8.577875e-13))
379.124923    	((2.178225e-11 1.857555e-08 -3.126062e-09) (3.407574e-13 4.820926e-08 -1.752798e-09)) ((-1.660921e-11 -7.438230e-14 6.721810e-14) (6.665421e-09 -5.154263e-13 8.318501e-13))
454.961908    	((2.126253e-11 1.801110e-08 -3.705605e-09) (7.344326e-13 4.663514e-08 -1.922880e-09)) ((-1.659780e-11 -7.583385e-14 6.696020e-14) (6.581991e-09 -5.159231e-13 7.962034e-13))
545.966289    	((2.105533e-11 1.757147e-08 -4.210667e-09) (1.254633e-12 4.527643e-08 -2.112118e-09)) ((-1.658914e-11 -7.691284e-14 6.703932e-14) (6.510771e-09 -5.053509e-13 7.544127e-13))
655.171547    	((2.084070e-11 1.724632e-08 -4.677061e-09) (1.510551e-12 4.412397e-08 -2.317164e-09)) ((-1.658430e-11 -7.776478e-14 6.704704e-14) (6.450810e-09 -5.036472e-13 6.844469e-13))
786.200455    	((2.236262e-11 1.701734e-08 -5.107019e-09) (1.754795e-12 4.316683e-08 -2.532780e-09)) ((-1.658136e-11 -7.839861e-14 6.692086e-14) (6.401130e-09 -5.019215e-13 6.050436e-13))
939.051954    	((2.310930e-11 1.686342e-08 -5.479348e-09) (2.157051e-12 4.239434e-08 -2.751145e-09)) ((-1.657981e-11 -7.892925e-14 6.679175e-14) (6.360886e-09 -5.031186e-13 5.397255e-13))
1113.72508    	((2.468969e-11 1.676608e-08 -5.806761e-09) (2.791536e-12 4.179032e-08 -2.962498e-09)) ((-1.657880e-11 -7.928818e-14 6.674746e-14) (6.329002e-09 -5.054209e-13 4.758901e-13))
1310.219186   	((2.599453e-11 1.671299e-08 -6.085852e-09) (3.370499e-12 4.133399e-08 -3.157171e-09)) ((-1.657789e-11 -7.967958e-14 6.669909e-14) (6.304357e-09 -5.064915e-13 4.249867e-13))
1528.424812   	((2.662014e-11 1.668642e-08 -6.320636e-09) (3.824756e-12 4.100097e-08 -3.327100e-09)) ((-1.657713e-11 -8.004059e-14 6.666249e-14) (6.285772e-09 -5.090109e-13 3.825496e-13))
1746.62804    	((2.736088e-11 1.667561e-08 -6.500184e-09) (4.194801e-12 4.076804e-08 -3.466353e-09)) ((-1.657776e-11 -8.030287e-14 6.664110e-14) (6.272253e-09 -5.084072e-13 3.517567e-13))
1964.830836   	((2.780413e-11 1.666874e-08 -6.649479e-09) (4.492880e-12 4.060883e-08 -3.575633e-09)) ((-1.657817e-11 -8.056964e-14 6.662105e-14) (6.262586e-09 -5.043075e-13 3.309582e-13))
2183.034466   	((2.812177e-11 1.666309e-08 -6.764725e-09) (4.706659e-12 4.050208e-08 -3.658142e-09)) ((-1.657843e-11 -8.078188e-14 6.661817e-14) (6.255796e-09 -4.974623e-13 3.171374e-13))
2401.239778   	((2.841201e-11 1.665572e-08 -6.857976e-09) (4.870655e-12 4.043022e-08 -3.719236e-09)) ((-1.657851e-11 -8.094852e-14 6.660528e-14) (6.251030e-09 -4.910820e-13 3.101004e-13))
2619.447233   	((2.875052e-11 1.664762e-08 -6.931616e-09) (4.991935e-12 4.038129e-08 -3.764014e-09)) ((-1.657852e-11 -8.110022e-14 6.658168e-14) (6.247682e-09 -4.850243e-13 3.089513e-13))
2837.656918   	((2.903215e-11 1.663900e-08 -6.991020e-09) (5.073614e-12 4.034683e-08 -3.797020e-09)) ((-1.657848e-11 -8.120590e-14 6.656180e-14) (6.245295e-09 -4.801766e-13 3.107548e-13))
3055.86871    	((2.927318e-11 1.663080e-08 -7.038826e-09) (5.127685e-12 4.032167e-08 -3.821655e-09)) ((-1.657843e-11 -8.128484e-14 6.655568e-14) (6.243563e-09 -4.761183e-13 3.135201e-13))
3274.082396   	((2.946395e-11 1.662325e-08 -7.078098e-09) (5.168492e-12 4.030246e-08 -3.840499e-09)) ((-1.657839e-11 -8.135259e-14 6.655056e-14) (6.242274e-09 -4.727352e-13 3.161866e-13))
3492.297731   	((2.960302e-11 1.661668e-08 -7.110783e-09) (5.199500e-12 4.028730e-08 -3.855285e-09)) ((-1.657837e-11 -8.140936e-14 6.654822e-14) (6.241295e-09 -4.701598e-13 3.186293e-13))
3710.514468   	((2.968648e-11 1.661101e-08 -7.138350e-09) (5.213854e-12 4.027500e-08 -3.867193e-09)) ((-1.657837e-11 -8.146338e-14 6.654453e-14) (6.240535e-09 -4.680786e-13 3.204949e-13))
3928.732375   	((2.976376e-11 1.660619e-08 -7.161538e-09) (5.223364e-12 4.026488e-08 -3.876992e-09)) ((-1.657837e-11 -8.150940e-14 6.653955e-14) (6.239936e-09 -4.668047e-13 3.221082e-13))
4146.951248   	((2.982085e-11 1.660210e-08 -7.181226e-09) (5.226030e-12 4.025645e-08 -3.885217e-09)) ((-1.657838e-11 -8.155111e-14 6.653528e-14) (6.239457e-09 -4.660697e-13 3.236796e-13))
4365.170918   	((2.985978e-11 1.659864e-08 -7.198008e-09) (5.228735e-12 4.024940e-08 -3.892213e-09)) ((-1.657840e-11 -8.158636e-14 6.653158e-14) (6.239071e-09 -4.656484e-13 3.251280e-13))
4583.39126    	((2.985808e-11 1.659565e-08 -7.212426e-09) (5.231149e-12 4.024348e-08 -3.898217e-09)) ((-1.657841e-11 -8.161623e-14 6.652685e-14) (6.238757e-09 -4.653673e-13 3.263381e-13))
4801.612156   	((2.987030e-11 1.659311e-08 -7.224785e-09) (5.233363e-12 4.023849e-08 -3.903402e-09)) ((-1.657843e-11 -8.163929e-14 6.652619e-14) (6.238500e-09 -4.652587e-13 3.272095e-13))
5019.833509   	((2.988568e-11 1.659095e-08 -7.235401e-09) (5.237426e-12 4.023427e-08 -3.907900e-09)) ((-1.657845e-11 -8.165968e-14 6.652842e-14) (6.238289e-09 -4.652623e-13 3.280177e-13))
5238.055238   	((2.992802e-11 1.658911e-08 -7.244541e-09) (5.244343e-12 4.023070e-08 -3.911809e-09)) ((-1.657847e-11 -8.167734e-14 6.653111e-14) (6.238114e-09 -4.652842e-13 3.287863e-13))
5456.277278   	((2.993648e-11 1.658748e-08 -7.252408e-09) (5.249573e-12 4.022767e-08 -3.915220e-09)) ((-1.657849e-11 -8.169316e-14 6.653312e-14) (6.237970e-09 -4.653852e-13 3.294608e-13))
5674.499578   	((2.996690e-11 1.658611e-08 -7.259249e-09) (5.256744e-12 4.022509e-08 -3.918197e-09)) ((-1.657850e-11 -8.170605e-14 6.653483e-14) (6.237849e-09 -4.654761e-13 3.300243e-13))
5892.722094   	((2.999581e-11 1.658492e-08 -7.265198e-09) (5.263309e-12 4.022289e-08 -3.920803e-09)) ((-1.657851e-11 -8.171800e-14 6.653707e-14) (6.237748e-09 -4.655255e-13 3.305086e-13))
6110.944793   	((3.000906e-11 1.658389e-08 -7.270376e-09) (5.270530e-12 4.022101e-08 -3.923088e-09)) ((-1.657853e-11 -8.172732e-14 6.653850e-14) (6.237664e-09 -4.655361e-13 3.309831e-13))
6329.167645   	((3.002061e-11 1.658298e-08 -7.274864e-09) (5.277254e-12 4.021940e-08 -3.925092e-09)) ((-1.657854e-11 -8.173544e-14 6.653983e-14) (6.237592e-09 -4.655394e-13 3.313866e-13))
6547.390628   	((3.002601e-11 1.658220e-08 -7.278752e-09) (5.283528e-12 4.021802e-08 -3.926851e-09)) ((-1.657855e-11 -8.174315e-14 6.654145e-14) (6.237532e-09 -4.655709e-13 3.317137e-13))
6765.613723   	((3.002322e-11 1.658152e-08 -7.282163e-09) (5.289572e-12 4.021683e-08 -3.928395e-09)) ((-1.657855e-11 -8.174882e-14 6.654252e-14) (6.237481e-09 -4.656348e-13 3.319864e-13))
6983.836913   	((3.002223e-11 1.658092e-08 -7.285147e-09) (5.294529e-12 4.021581e-08 -3.929752e-09)) ((-1.657856e-11 -8.175426e-14 6.654371e-14) (6.237438e-09 -4.656874e-13 3.321863e-13))
7202.060184   	((3.002446e-11 1.658041e-08 -7.287759e-09) (5.298906e-12 4.021492e-08 -3.930946e-09)) ((-1.657857e-11 -8.175898e-14 6.654485e-14) (6.237401e-09 -4.657387e-13 3.323343e-13))
7420.283526   	((3.003181e-11 1.657996e-08 -7.290050e-09) (5.302950e-12 4.021415e-08 -3.931996e-09)) ((-1.657857e-11 -8.176299e-14 6.654597e-14) (6.237370e-09 -4.658072e-13 3.324326e-13))
7638.506928   	((3.003581e-11 1.657956e-08 -7.292055e-09) (5.306719e-12 4.021349e-08 -3.932921e-09)) ((-1.657858e-11 -8.176652e-14 6.654696e-14) (6.237343e-09 -4.658859e-13 3.324842e-13))
7856.730383   	((3.004398e-11 1.657922e-08 -7.293812e-09) (5.310113e-12 4.021291e-08 -3.933736e-09)) ((-1.657858e-11 -8.176948e-14 6.654779e-14) (6.237320e-09 -4.659849e-13 3.325123e-13))
8074.953884   	((2.991155e-11 1.657884e-08 -7.295282e-09) (5.307227e-12 4.021241e-08 -3.934460e-09)) ((-1.657857e-11 -8.177672e-14 6.654457e-14) (6.237300e-09 -4.659695e-13 3.325116e-13))
8293.177423   	((2.983189e-11 1.657854e-08 -7.296716e-09) (5.309149e-12 4.021198e-08 -3.935098e-09)) ((-1.657858e-11 -8.178101e-14 6.654898e-14) (6.237283e-09 -4.661536e-13 3.323735e-13))
8511.400997   	((2.979947e-11 1.657829e-08 -7.297929e-09) (5.309932e-12 4.021160e-08 -3.935660e-09)) ((-1.657859e-11 -8.178354e-14 6.655069e-14) (6.237268e-09 -4.662298e-13 3.322843e-13))
8729.624601   	((2.979248e-11 1.657807e-08 -7.298993e-09) (5.310973e-12 4.021127e-08 -3.936155e-09)) ((-1.657859e-11 -8.178557e-14 6.655169e-14) (6.237256e-09 -4.662794e-13 3.322216e-13))
8947.848231   	((2.979376e-11 1.657789e-08 -7.299918e-09) (5.311872e-12 4.021098e-08 -3.936593e-09)) ((-1.657859e-11 -8.178737e-14 6.655250e-14) (6.237245e-09 -4.663089e-13 3.321666e-13))
9166.071883   	((2.980146e-11 1.657774e-08 -7.300724e-09) (5.312439e-12 4.021072e-08 -3.936980e-09)) ((-1.657859e-11 -8.178943e-14 6.655367e-14) (6.237235e-09 -4.663293e-13 3.321093e-13))
9384.295555   	((2.980746e-11 1.657760e-08 -7.301431e-09) (5.313247e-12 4.021050e-08 -3.937322e-09)) ((-1.657860e-11 -8.179074e-14 6.655427e-14) (6.237227e-09 -4.663496e-13 3.320751e-13))
9602.519244   	((2.981380e-11 1.657748e-08 -7.302060e-09) (5.313932e-12 4.021030e-08 -3.937624e-09)) ((-1.657860e-11 -8.179177e-14 6.655467e-14) (6.237220e-09 -4.663674e-13 3.320455e-13))
