# Forces      
# CofR        : (0.000000e+00 0.000000e+00 0.000000e+00)
# Time        forces(pressure viscous)	moments(pressure viscous)
0             	((0.000000e+00 0.000000e+00 0.000000e+00) (-1.608529e-14 -3.170789e-05 2.865173e-15)) ((0.000000e+00 0.000000e+00 0.000000e+00) (-7.124431e-07 -8.742875e-17 1.527191e-11))
0.012         	((9.086042e-09 -9.221419e-03 2.080050e-03) (5.206021e-11 -3.638269e-05 -1.382058e-08)) ((1.087485e-07 7.092228e-09 1.738046e-09) (-1.050035e-06 9.007116e-16 3.152226e-11))
0.0264        	((-1.588036e-07 6.451117e-04 -1.334505e-04) (-4.475667e-11 -3.711394e-05 -2.126300e-08)) ((-7.710732e-09 -4.488580e-10 -1.119004e-10) (-1.175484e-06 6.602591e-12 4.128704e-11))
0.04368       	((8.887639e-08 1.925620e-03 -1.519144e-04) (-4.346812e-11 -3.297643e-05 -1.702803e-08)) ((-2.507669e-08 -5.232654e-10 -4.725527e-10) (-1.047190e-06 1.067022e-11 3.487093e-11))
0.064416      	((2.584850e-08 1.809315e-05 -7.692506e-05) (-5.650391e-10 -2.920654e-05 -7.874318e-09)) ((1.204663e-10 -2.515961e-10 2.674934e-11) (-9.401965e-07 6.028374e-12 4.167368e-11))
0.0892992     	((-1.796369e-08 -2.503053e-05 -4.752840e-05) (-1.026702e-09 -2.696305e-05 -6.099659e-09)) ((1.008648e-09 -1.499016e-10 2.571193e-11) (-8.888071e-07 2.937790e-12 4.398719e-11))
0.119159      	((-1.303608e-08 2.912553e-05 -2.952373e-05) (-9.586241e-10 -2.489704e-05 -1.135093e-08)) ((-5.425684e-10 -9.437517e-11 -6.636007e-12) (-8.317544e-07 5.349834e-12 3.581043e-11))
0.154991      	((7.949550e-09 1.556282e-05 -1.901537e-05) (-8.295655e-10 -2.270943e-05 -1.594653e-08)) ((-3.347561e-10 -5.526392e-11 4.101127e-13) (-7.683380e-07 4.251289e-12 2.504769e-11))
0.197989      	((6.880618e-09 3.739708e-06 -1.224677e-05) (-6.805820e-10 -2.050588e-05 -1.953465e-08)) ((-1.189615e-10 -3.272520e-11 7.111418e-13) (-7.038704e-07 -3.205088e-13 9.008010e-12))
0.249587      	((1.596066e-10 -5.379217e-07 -8.093336e-06) (-5.190261e-10 -1.834838e-05 -2.347452e-08)) ((-3.664713e-11 -1.969270e-11 2.052246e-12) (-6.394925e-07 -4.644688e-12 -1.659316e-12))
0.311504      	((-3.274553e-09 -2.485447e-06 -5.441351e-06) (-3.267026e-10 -1.630276e-05 -2.808137e-08)) ((-9.830949e-12 -1.059938e-11 2.054655e-12) (-5.765079e-07 -9.900418e-12 -1.209795e-11))
0.385805      	((-1.201936e-09 -3.429602e-06 -3.808689e-06) (-1.620739e-10 -1.442182e-05 -3.280709e-08)) ((-4.932371e-13 -5.075028e-12 1.473679e-12) (-5.164886e-07 -1.421583e-11 -1.944629e-11))
0.474966      	((-3.947420e-10 -3.894164e-06 -2.735407e-06) (2.960681e-11 -1.273946e-05 -3.738332e-08)) ((7.731073e-12 -1.503670e-12 1.294126e-12) (-4.610180e-07 -1.560259e-11 -1.455846e-11))
0.581959      	((6.342274e-10 -4.087862e-06 -2.081711e-06) (2.530810e-10 -1.126465e-05 -4.197341e-08)) ((1.409978e-11 4.499925e-13 1.152226e-12) (-4.109246e-07 -1.466390e-11 -4.046537e-12))
0.710351      	((4.287080e-10 -4.074493e-06 -1.670801e-06) (3.698317e-10 -9.993125e-06 -4.630649e-08)) ((1.826996e-11 1.683073e-12 9.635599e-13) (-3.666386e-07 -1.318177e-11 1.189907e-12))
0.864421      	((6.333391e-10 -3.928987e-06 -1.437164e-06) (4.229622e-10 -8.908730e-06 -5.002783e-08)) ((2.000727e-11 2.348564e-12 1.015837e-12) (-3.281585e-07 -1.172985e-11 2.994894e-12))
1.049306      	((5.466981e-10 -3.712457e-06 -1.295826e-06) (4.410893e-10 -7.985917e-06 -5.332702e-08)) ((1.991385e-11 2.695674e-12 9.943396e-13) (-2.949539e-07 -9.863492e-12 4.327739e-12))
1.271167      	((6.124698e-10 -3.469646e-06 -1.223433e-06) (4.193309e-10 -7.198014e-06 -5.651085e-08)) ((1.900283e-11 2.849813e-12 8.907657e-13) (-2.662324e-07 -7.829856e-12 6.524588e-12))
1.5374        	((4.801358e-10 -3.217929e-06 -1.188330e-06) (3.618522e-10 -6.517480e-06 -6.002520e-08)) ((1.771402e-11 2.920423e-12 8.791838e-13) (-2.411816e-07 -6.239520e-12 1.044657e-11))
1.85688       	((4.062552e-10 -2.970654e-06 -1.180371e-06) (2.664271e-10 -5.919785e-06 -6.417981e-08)) ((1.620186e-11 2.842147e-12 8.528290e-13) (-2.190912e-07 -4.475828e-12 1.427068e-11))
2.240256      	((2.632160e-10 -2.736006e-06 -1.185959e-06) (1.656340e-10 -5.388624e-06 -6.894522e-08)) ((1.498384e-11 2.744583e-12 8.400509e-13) (-1.994349e-07 -2.906237e-12 1.737773e-11))
2.700307      	((2.707077e-10 -2.517229e-06 -1.201079e-06) (1.339983e-10 -4.913396e-06 -7.414304e-08)) ((1.392460e-11 2.626743e-12 8.189984e-13) (-1.818425e-07 -1.696349e-12 1.924685e-11))
3.252369      	((1.649303e-10 -2.314123e-06 -1.218466e-06) (1.353970e-10 -4.486462e-06 -7.969599e-08)) ((1.286998e-11 2.465170e-12 7.799465e-13) (-1.660350e-07 -7.631158e-13 1.902784e-11))
3.914842      	((1.113251e-10 -2.124862e-06 -1.238772e-06) (1.211414e-10 -4.101925e-06 -8.568148e-08)) ((1.182948e-11 2.298609e-12 7.152236e-13) (-1.517943e-07 -1.227761e-13 1.750902e-11))
4.709811      	((6.539665e-11 -1.950067e-06 -1.257554e-06) (9.724929e-11 -3.755510e-06 -9.215453e-08)) ((1.088241e-11 2.148939e-12 6.289971e-13) (-1.389611e-07 6.201833e-13 1.538321e-11))
5.663773      	((9.853121e-11 -1.790184e-06 -1.274642e-06) (6.510462e-11 -3.444063e-06 -9.909605e-08)) ((1.009422e-11 2.015301e-12 5.558774e-13) (-1.274196e-07 1.583948e-12 1.462490e-11))
6.808528      	((2.691746e-10 -1.645429e-06 -1.287693e-06) (3.748333e-11 -3.164803e-06 -1.064696e-07)) ((9.460168e-12 1.871387e-12 4.792373e-13) (-1.170698e-07 1.852842e-12 1.468164e-11))
8.182233      	((2.380059e-10 -1.515653e-06 -1.297462e-06) (1.477548e-11 -2.914660e-06 -1.142545e-07)) ((8.946714e-12 1.730443e-12 4.075632e-13) (-1.077998e-07 1.418678e-12 1.475969e-11))
9.83068       	((1.697044e-10 -1.399706e-06 -1.304088e-06) (-2.044459e-12 -2.690168e-06 -1.224834e-07)) ((8.484112e-12 1.620269e-12 3.593355e-13) (-9.948300e-08 9.043847e-13 1.461264e-11))
11.808816     	((9.244465e-11 -1.295855e-06 -1.308112e-06) (-1.260458e-11 -2.488107e-06 -1.312466e-07)) ((8.074755e-12 1.528636e-12 3.293600e-13) (-9.199908e-08 4.943452e-13 1.485531e-11))
14.182579     	((7.753355e-11 -1.203462e-06 -1.309120e-06) (-1.655086e-11 -2.305743e-06 -1.406124e-07)) ((7.750717e-12 1.447401e-12 3.052926e-13) (-8.524536e-08 6.133743e-13 1.491524e-11))
17.031095     	((2.754350e-11 -1.122074e-06 -1.308217e-06) (-2.948791e-11 -2.140846e-06 -1.506063e-07)) ((7.531055e-12 1.358864e-12 2.927645e-13) (-7.913726e-08 1.491070e-12 1.290637e-11))
20.449314     	((-2.591406e-11 -1.051394e-06 -1.304346e-06) (-6.260782e-11 -1.991761e-06 -1.612096e-07)) ((7.424455e-12 1.271722e-12 2.896478e-13) (-7.361206e-08 2.787514e-12 9.552048e-12))
24.551176     	((-1.427717e-10 -9.909679e-07 -1.299232e-06) (-8.922499e-11 -1.857296e-06 -1.723263e-07)) ((7.429754e-12 1.182419e-12 2.989833e-13) (-6.862524e-08 3.923362e-12 6.702843e-12))
29.473411     	((-2.404778e-10 -9.407356e-07 -1.291657e-06) (-1.004103e-10 -1.736560e-06 -1.837967e-07)) ((7.539568e-12 1.096505e-12 3.160540e-13) (-6.414443e-08 4.964203e-12 4.917959e-12))
35.380094     	((-2.007726e-10 -8.999842e-07 -1.282008e-06) (-1.046784e-10 -1.628750e-06 -1.954175e-07)) ((7.741379e-12 1.025539e-12 3.379841e-13) (-6.014208e-08 5.733793e-12 2.707072e-12))
42.468112     	((-2.740201e-10 -8.684912e-07 -1.269668e-06) (-1.142281e-10 -1.533027e-06 -2.069630e-07)) ((8.033593e-12 9.563501e-13 3.675457e-13) (-5.659006e-08 6.408113e-12 -1.096852e-13))
50.973735     	((-2.541821e-10 -8.454249e-07 -1.255302e-06) (-1.137802e-10 -1.448552e-06 -2.183012e-07)) ((8.415745e-12 8.933628e-13 3.982956e-13) (-5.345893e-08 6.768880e-12 -3.641258e-12))
61.180482     	((-2.506059e-10 -8.305634e-07 -1.238430e-06) (-1.149914e-10 -1.374540e-06 -2.293155e-07)) ((8.898698e-12 8.385486e-13 4.339038e-13) (-5.072231e-08 6.990474e-12 -7.698251e-12))
73.428578     	((-2.800593e-10 -8.237220e-07 -1.219528e-06) (-1.175856e-10 -1.310332e-06 -2.398765e-07)) ((9.489044e-12 7.919207e-13 4.775181e-13) (-4.836003e-08 7.280608e-12 -1.211823e-11))
88.126294     	((-1.977125e-10 -8.237593e-07 -1.198590e-06) (-1.279393e-10 -1.255380e-06 -2.499133e-07)) ((1.015531e-11 7.616372e-13 5.319146e-13) (-4.635603e-08 7.019591e-12 -1.662589e-11))
105.763553    	((-1.256193e-10 -8.292220e-07 -1.175215e-06) (-1.310661e-10 -1.209177e-06 -2.594372e-07)) ((1.086092e-11 7.530261e-13 5.905109e-13) (-4.469163e-08 6.242640e-12 -2.067312e-11))
126.928263    	((-4.427512e-11 -8.388633e-07 -1.150012e-06) (-1.392322e-10 -1.171161e-06 -2.683588e-07)) ((1.156215e-11 7.669469e-13 6.468383e-13) (-4.334243e-08 5.199852e-12 -2.384000e-11))
152.089686    	((3.916313e-11 -8.509475e-07 -1.122208e-06) (-1.410926e-10 -1.140664e-06 -2.763330e-07)) ((1.217924e-11 8.018323e-13 6.985126e-13) (-4.227470e-08 3.618738e-12 -2.567527e-11))
181.2262      	((1.546626e-10 -8.630615e-07 -1.091670e-06) (-1.370591e-10 -1.116666e-06 -2.829472e-07)) ((1.265697e-11 8.507495e-13 7.365746e-13) (-4.143866e-08 1.828544e-12 -2.670690e-11))
214.320073    	((3.122145e-10 -8.725719e-07 -1.059098e-06) (-1.221694e-10 -1.097662e-06 -2.879508e-07)) ((1.301799e-11 9.041344e-13 7.623210e-13) (-4.077543e-08 -3.421326e-14 -2.713687e-11))
251.365303    	((4.652113e-10 -8.787166e-07 -1.025435e-06) (-9.204190e-11 -1.082252e-06 -2.914478e-07)) ((1.329184e-11 9.574586e-13 7.816257e-13) (-4.023672e-08 -2.137589e-12 -2.731571e-11))
290.922774    	((5.815654e-10 -8.823343e-07 -9.935565e-07) (-5.314435e-11 -1.069585e-06 -2.938078e-07)) ((1.349612e-11 1.008104e-12 7.977968e-13) (-3.979575e-08 -4.058377e-12 -2.714082e-11))
330.554892    	((6.620560e-10 -8.843985e-07 -9.651724e-07) (-1.338272e-11 -1.059092e-06 -2.954652e-07)) ((1.363577e-11 1.060306e-12 8.098795e-13) (-3.943398e-08 -5.586044e-12 -2.675897e-11))
370.244833    	((7.244418e-10 -8.853125e-07 -9.405971e-07) (2.193172e-11 -1.050250e-06 -2.967280e-07)) ((1.372731e-11 1.110947e-12 8.216406e-13) (-3.913264e-08 -6.828461e-12 -2.639514e-11))
409.974091    	((7.622815e-10 -8.858089e-07 -9.193935e-07) (5.378226e-11 -1.042817e-06 -2.977559e-07)) ((1.378585e-11 1.157329e-12 8.305130e-13) (-3.888141e-08 -7.882959e-12 -2.583687e-11))
449.734065    	((7.823456e-10 -8.860313e-07 -9.012716e-07) (8.137863e-11 -1.036550e-06 -2.986257e-07)) ((1.382356e-11 1.197910e-12 8.384198e-13) (-3.867104e-08 -8.617691e-12 -2.513885e-11))
489.521134    	((7.838292e-10 -8.860911e-07 -8.856431e-07) (1.024526e-10 -1.031264e-06 -2.993765e-07)) ((1.385167e-11 1.233293e-12 8.443150e-13) (-3.849450e-08 -9.030965e-12 -2.438029e-11))
529.331814    	((7.720327e-10 -8.859962e-07 -8.720718e-07) (1.194293e-10 -1.026790e-06 -3.000319e-07)) ((1.387129e-11 1.264696e-12 8.488119e-13) (-3.834590e-08 -9.206959e-12 -2.342416e-11))
569.162972    	((7.497576e-10 -8.858253e-07 -8.601371e-07) (1.307847e-10 -1.022997e-06 -3.006100e-07)) ((1.388548e-11 1.293214e-12 8.524171e-13) (-3.822045e-08 -9.211494e-12 -2.241916e-11))
609.011614    	((7.111479e-10 -8.856123e-07 -8.496484e-07) (1.383855e-10 -1.019774e-06 -3.011228e-07)) ((1.389539e-11 1.318699e-12 8.554614e-13) (-3.811419e-08 -9.035607e-12 -2.137324e-11))
648.875197    	((6.705870e-10 -8.853864e-07 -8.404584e-07) (1.438064e-10 -1.017028e-06 -3.015779e-07)) ((1.390293e-11 1.341261e-12 8.582001e-13) (-3.802395e-08 -8.702758e-12 -2.025336e-11))
688.751548    	((6.235552e-10 -8.851685e-07 -8.323982e-07) (1.446231e-10 -1.014684e-06 -3.019778e-07)) ((1.390840e-11 1.361158e-12 8.604349e-13) (-3.794726e-08 -8.261284e-12 -1.918691e-11))
728.638865    	((5.754471e-10 -8.849516e-07 -8.253756e-07) (1.429019e-10 -1.012679e-06 -3.023289e-07)) ((1.391224e-11 1.378364e-12 8.623229e-13) (-3.788191e-08 -7.727132e-12 -1.815265e-11))
768.535632    	((5.259219e-10 -8.847487e-07 -8.192315e-07) (1.392644e-10 -1.010961e-06 -3.026364e-07)) ((1.391526e-11 1.393217e-12 8.640329e-13) (-3.782608e-08 -7.138792e-12 -1.716127e-11))
808.440554    	((4.744002e-10 -8.845559e-07 -8.138564e-07) (1.345631e-10 -1.009485e-06 -3.029061e-07)) ((1.391761e-11 1.406302e-12 8.655706e-13) (-3.777825e-08 -6.506152e-12 -1.617453e-11))
848.352527    	((4.228707e-10 -8.843814e-07 -8.091532e-07) (1.282767e-10 -1.008216e-06 -3.031414e-07)) ((1.391954e-11 1.417695e-12 8.668540e-13) (-3.773723e-08 -5.832038e-12 -1.523408e-11))
888.270605    	((3.729639e-10 -8.842169e-07 -8.050405e-07) (1.210740e-10 -1.007124e-06 -3.033467e-07)) ((1.392100e-11 1.427666e-12 8.679840e-13) (-3.770200e-08 -5.134526e-12 -1.434313e-11))
928.193973    	((3.250394e-10 -8.840674e-07 -8.014432e-07) (1.133359e-10 -1.006182e-06 -3.035255e-07)) ((1.392214e-11 1.436324e-12 8.689484e-13) (-3.767168e-08 -4.435565e-12 -1.350103e-11))
968.121935    	((2.788560e-10 -8.839326e-07 -7.983004e-07) (1.048390e-10 -1.005369e-06 -3.036810e-07)) ((1.392307e-11 1.443889e-12 8.697557e-13) (-3.764556e-08 -3.734655e-12 -1.273038e-11))
1008.05389    	((2.369546e-10 -8.838095e-07 -7.955504e-07) (9.603906e-11 -1.004666e-06 -3.038162e-07)) ((1.392378e-11 1.450547e-12 8.704571e-13) (-3.762301e-08 -3.058646e-12 -1.202505e-11))
1047.989319   	((1.969090e-10 -8.836980e-07 -7.931461e-07) (8.715242e-11 -1.004059e-06 -3.039338e-07)) ((1.392434e-11 1.456306e-12 8.710761e-13) (-3.760353e-08 -2.407020e-12 -1.137999e-11))
1087.927772   	((1.611052e-10 -8.835984e-07 -7.910441e-07) (7.828389e-11 -1.003532e-06 -3.040360e-07)) ((1.392479e-11 1.461364e-12 8.716167e-13) (-3.758667e-08 -1.793448e-12 -1.079075e-11))
1127.868859   	((1.283948e-10 -8.835090e-07 -7.892071e-07) (6.972981e-11 -1.003076e-06 -3.041249e-07)) ((1.392512e-11 1.465736e-12 8.720745e-13) (-3.757207e-08 -1.217016e-12 -1.025814e-11))
1167.812241   	((9.832198e-11 -8.834295e-07 -7.876010e-07) (6.152473e-11 -1.002680e-06 -3.042022e-07)) ((1.392542e-11 1.469536e-12 8.724677e-13) (-3.755941e-08 -6.767860e-13 -9.782498e-12))
1207.757626   	((7.209368e-11 -8.833594e-07 -7.861989e-07) (5.379952e-11 -1.002337e-06 -3.042692e-07)) ((1.392568e-11 1.472857e-12 8.728074e-13) (-3.754842e-08 -1.781101e-13 -9.357935e-12))
1247.704758   	((4.834038e-11 -8.832966e-07 -7.849723e-07) (4.659252e-11 -1.002038e-06 -3.043274e-07)) ((1.392591e-11 1.475757e-12 8.731007e-13) (-3.753889e-08 2.785481e-13 -8.979775e-12))
1287.653413   	((2.724335e-11 -8.832407e-07 -7.839005e-07) (3.995896e-11 -1.001779e-06 -3.043779e-07)) ((1.392611e-11 1.478270e-12 8.733689e-13) (-3.753061e-08 6.940220e-13 -8.642893e-12))
1327.603398   	((8.707713e-12 -8.831913e-07 -7.829651e-07) (3.391391e-11 -1.001554e-06 -3.044216e-07)) ((1.392629e-11 1.480460e-12 8.736005e-13) (-3.752341e-08 1.069797e-12 -8.343409e-12))
1367.554541   	((-7.445811e-12 -8.831474e-07 -7.821476e-07) (2.847179e-11 -1.001358e-06 -3.044596e-07)) ((1.392646e-11 1.482367e-12 8.738003e-13) (-3.751715e-08 1.406647e-12 -8.077747e-12))
1407.506696   	((-2.164829e-11 -8.831091e-07 -7.814346e-07) (2.360699e-11 -1.001187e-06 -3.044927e-07)) ((1.392663e-11 1.484051e-12 8.739822e-13) (-3.751171e-08 1.707792e-12 -7.841521e-12))
1447.459733   	((-3.374281e-11 -8.830757e-07 -7.808113e-07) (1.929190e-11 -1.001039e-06 -3.045213e-07)) ((1.392680e-11 1.485530e-12 8.741404e-13) (-3.750697e-08 1.974906e-12 -7.632116e-12))
1487.41354    	((-4.466929e-11 -8.830456e-07 -7.802660e-07) (1.546477e-11 -1.000910e-06 -3.045461e-07)) ((1.392693e-11 1.486822e-12 8.742798e-13) (-3.750285e-08 2.211405e-12 -7.447352e-12))
1527.368018   	((-5.413588e-11 -8.830191e-07 -7.797896e-07) (1.209478e-11 -1.000797e-06 -3.045677e-07)) ((1.392704e-11 1.487958e-12 8.743999e-13) (-3.749926e-08 2.420147e-12 -7.283856e-12))
1567.323081   	((-6.235501e-11 -8.829957e-07 -7.793705e-07) (9.151351e-12 -1.000699e-06 -3.045864e-07)) ((1.392715e-11 1.488959e-12 8.745075e-13) (-3.749613e-08 2.603732e-12 -7.139352e-12))
1607.278654   	((-6.957920e-11 -8.829751e-07 -7.790079e-07) (6.581496e-12 -1.000614e-06 -3.046026e-07)) ((1.392724e-11 1.489824e-12 8.745978e-13) (-3.749341e-08 2.765118e-12 -7.011718e-12))
1647.234672   	((-7.586962e-11 -8.829570e-07 -7.786903e-07) (4.333938e-12 -1.000540e-06 -3.046167e-07)) ((1.392733e-11 1.490579e-12 8.746761e-13) (-3.749103e-08 2.906578e-12 -6.899252e-12))
1687.191078   	((-8.135858e-11 -8.829408e-07 -7.784146e-07) (2.375868e-12 -1.000475e-06 -3.046290e-07)) ((1.392740e-11 1.491234e-12 8.747453e-13) (-3.748896e-08 3.030332e-12 -6.800539e-12))
1727.147822   	((-8.601752e-11 -8.829278e-07 -7.781749e-07) (6.614933e-13 -1.000418e-06 -3.046396e-07)) ((1.392748e-11 1.491804e-12 8.748055e-13) (-3.748715e-08 3.138722e-12 -6.713950e-12))
1767.104862   	((-9.028214e-11 -8.829156e-07 -7.779631e-07) (-8.373314e-13 -1.000369e-06 -3.046488e-07)) ((1.392753e-11 1.492305e-12 8.748569e-13) (-3.748558e-08 3.233582e-12 -6.638212e-12))
1807.062159   	((-9.398155e-11 -8.829048e-07 -7.777785e-07) (-2.152311e-12 -1.000326e-06 -3.046568e-07)) ((1.392759e-11 1.492744e-12 8.749037e-13) (-3.748421e-08 3.316569e-12 -6.572032e-12))
1847.019681   	((-9.720591e-11 -8.828953e-07 -7.776174e-07) (-3.301008e-12 -1.000289e-06 -3.046637e-07)) ((1.392763e-11 1.493127e-12 8.749438e-13) (-3.748301e-08 3.389220e-12 -6.514108e-12))
1886.977398   	((-1.001346e-10 -8.828870e-07 -7.774740e-07) (-4.313226e-12 -1.000256e-06 -3.046697e-07)) ((1.392767e-11 1.493466e-12 8.749776e-13) (-3.748197e-08 3.453083e-12 -6.463469e-12))
1926.935287   	((-1.026178e-10 -8.828799e-07 -7.773524e-07) (-5.198253e-12 -1.000228e-06 -3.046750e-07)) ((1.392770e-11 1.493753e-12 8.750082e-13) (-3.748106e-08 3.509059e-12 -6.419182e-12))
1966.893324   	((-1.047882e-10 -8.828736e-07 -7.772454e-07) (-5.977445e-12 -1.000203e-06 -3.046795e-07)) ((1.392773e-11 1.494003e-12 8.750353e-13) (-3.748026e-08 3.558215e-12 -6.380478e-12))
2006.851493   	((-1.067082e-10 -8.828682e-07 -7.771529e-07) (-6.662799e-12 -1.000181e-06 -3.046834e-07)) ((1.392777e-11 1.494221e-12 8.750578e-13) (-3.747957e-08 3.601384e-12 -6.346801e-12))
2046.809775   	((-1.084641e-10 -8.828633e-07 -7.770711e-07) (-7.271128e-12 -1.000163e-06 -3.046869e-07)) ((1.392779e-11 1.494410e-12 8.750775e-13) (-3.747897e-08 3.639486e-12 -6.317455e-12))
2086.768156   	((-1.098691e-10 -8.828589e-07 -7.770011e-07) (-7.808682e-12 -1.000146e-06 -3.046898e-07)) ((1.392781e-11 1.494574e-12 8.750947e-13) (-3.747844e-08 3.672995e-12 -6.291780e-12))
2126.726624   	((-1.113005e-10 -8.828551e-07 -7.769386e-07) (-8.277659e-12 -1.000132e-06 -3.046924e-07)) ((1.392783e-11 1.494719e-12 8.751091e-13) (-3.747798e-08 3.702358e-12 -6.269305e-12))
2166.685168   	((-1.124096e-10 -8.828519e-07 -7.768844e-07) (-8.698008e-12 -1.000119e-06 -3.046947e-07)) ((1.392785e-11 1.494845e-12 8.751223e-13) (-3.747758e-08 3.728342e-12 -6.249671e-12))
2206.643778   	((-1.134790e-10 -8.828491e-07 -7.768347e-07) (-9.069513e-12 -1.000108e-06 -3.046966e-07)) ((1.392786e-11 1.494961e-12 8.751336e-13) (-3.747723e-08 3.751271e-12 -6.232484e-12))
2246.602446   	((-1.143913e-10 -8.828466e-07 -7.767939e-07) (-9.394428e-12 -1.000099e-06 -3.046983e-07)) ((1.392787e-11 1.495055e-12 8.751434e-13) (-3.747692e-08 3.771336e-12 -6.217421e-12))
