# Forces      
# CofR        : (0.000000e+00 0.000000e+00 0.000000e+00)
# Time        forces(pressure viscous)	moments(pressure viscous)
0             	((0.000000e+00 0.000000e+00 0.000000e+00) (-7.996138e-04 2.266118e-13 -7.775728e-09)) ((0.000000e+00 0.000000e+00 0.000000e+00) (-1.751993e-15 1.796637e-05 -4.872374e-15))
0.012         	((-2.322162e-01 -2.135433e-08 2.365565e-02) (-9.148798e-04 7.233214e-10 -4.424323e-06)) ((1.115381e-11 -3.132605e-06 3.356842e-11) (-2.442843e-11 2.654782e-05 -1.485980e-11))
0.0264        	((2.409861e-02 -2.888234e-06 -3.526290e-03) (-9.254460e-04 -1.581950e-09 -6.861935e-06)) ((1.035489e-10 3.102814e-07 2.976920e-11) (-1.764296e-10 2.955843e-05 -2.980615e-11))
0.04368       	((4.428011e-02 3.331065e-06 -2.224201e-03) (-8.145877e-04 -9.147168e-10 -6.794817e-06)) ((-9.645474e-11 6.801183e-07 -7.530836e-11) (-1.786120e-10 2.627717e-05 -1.223747e-11))
0.064416      	((3.423189e-04 1.795769e-07 -2.273970e-03) (-7.179072e-04 -2.871537e-09 -7.503707e-06)) ((9.421283e-13 -1.008852e-08 -1.431707e-11) (-5.317672e-11 2.372304e-05 -5.190916e-11))
0.0892992     	((9.937023e-07 -3.129348e-07 -1.745248e-03) (-6.607757e-04 -8.529710e-09 -9.242798e-06)) ((-1.124511e-11 -1.990798e-08 4.305883e-12) (6.034105e-13 2.245422e-05 -9.533427e-11))
0.119159      	((7.347584e-04 -1.877864e-07 -1.440635e-03) (-6.108655e-04 -1.042783e-08 -1.095753e-05)) ((1.736646e-11 1.347118e-08 -1.210197e-12) (1.634100e-11 2.107792e-05 3.997225e-11))
0.154991      	((2.063077e-04 -2.393714e-07 -1.278015e-03) (-5.603810e-04 -8.975452e-09 -1.259376e-05)) ((5.390010e-12 6.178794e-09 -1.133105e-11) (-9.701132e-12 1.962817e-05 1.883217e-10))
0.197989      	((-5.075172e-06 -2.737266e-07 -1.164408e-03) (-5.124513e-04 -8.350582e-09 -1.425656e-05)) ((1.670163e-11 2.979662e-09 -2.682112e-11) (-5.678302e-11 1.821302e-05 1.737284e-10))
0.249587      	((-7.809808e-05 -1.053163e-07 -1.090796e-03) (-4.686966e-04 -1.067828e-08 -1.603434e-05)) ((1.318533e-11 1.992798e-09 -2.659562e-11) (-1.063250e-10 1.686315e-05 1.430915e-10))
0.311504      	((-1.217628e-04 -9.512002e-08 -1.046005e-03) (-4.299142e-04 -1.124514e-08 -1.786725e-05)) ((1.082806e-11 1.318905e-09 -2.049884e-11) (-1.420995e-10 1.560553e-05 1.221354e-10))
0.385805      	((-1.454638e-04 -6.840636e-08 -1.014546e-03) (-3.958541e-04 -9.769695e-09 -1.978712e-05)) ((6.379263e-12 7.878692e-10 -1.392265e-11) (-1.664167e-10 1.445095e-05 8.732773e-11))
0.474966      	((-1.569878e-04 -2.680704e-08 -9.933964e-04) (-3.656331e-04 -7.781138e-09 -2.183667e-05)) ((7.876336e-12 2.715508e-10 -6.510797e-12) (-1.847980e-10 1.339019e-05 7.863010e-11))
0.581959      	((-1.613185e-04 -1.347427e-08 -9.778702e-04) (-3.377387e-04 -4.950086e-09 -2.410896e-05)) ((6.727836e-12 -2.315195e-10 -3.671996e-12) (-2.059089e-10 1.238734e-05 3.171211e-11))
0.710351      	((-1.606637e-04 -9.966110e-10 -9.664880e-04) (-3.109270e-04 -2.897358e-09 -2.664416e-05)) ((5.213957e-12 -7.074710e-10 -2.170498e-12) (-2.267280e-10 1.141023e-05 5.158255e-12))
0.864421      	((-1.576336e-04 1.349784e-08 -9.566479e-04) (-2.850854e-04 -2.259718e-09 -2.944623e-05)) ((4.881278e-12 -1.166036e-09 -1.574546e-12) (-2.475115e-10 1.046169e-05 1.285015e-11))
1.049306      	((-1.542014e-04 5.320425e-09 -9.483243e-04) (-2.606898e-04 -2.012478e-09 -3.254222e-05)) ((4.578563e-12 -1.615665e-09 -1.037729e-12) (-2.732908e-10 9.562496e-06 2.363590e-11))
1.271167      	((-1.521753e-04 5.054152e-09 -9.404637e-04) (-2.381452e-04 -2.153097e-09 -3.590817e-05)) ((3.060151e-12 -2.066933e-09 -5.155362e-13) (-2.976127e-10 8.729245e-06 2.946584e-11))
1.5374        	((-1.526347e-04 1.762853e-09 -9.325658e-04) (-2.176737e-04 -2.014677e-09 -3.946910e-05)) ((2.040691e-12 -2.515638e-09 -5.976098e-13) (-3.135923e-10 7.970981e-06 3.552885e-11))
1.85688       	((-1.561080e-04 -2.187911e-08 -9.238193e-04) (-1.994111e-04 -2.358117e-09 -4.311775e-05)) ((2.253966e-12 -3.015979e-09 -2.872346e-13) (-3.296280e-10 7.293265e-06 5.459872e-11))
2.240256      	((-1.629998e-04 -4.908203e-08 -9.139714e-04) (-1.834010e-04 -3.535800e-09 -4.668654e-05)) ((2.860057e-12 -3.597123e-09 -5.314397e-13) (-3.603683e-10 6.699800e-06 8.243458e-11))
2.700307      	((-1.742558e-04 -6.628645e-08 -9.028503e-04) (-1.696400e-04 -5.044724e-09 -5.001752e-05)) ((2.971491e-12 -4.271547e-09 -1.047724e-12) (-4.077986e-10 6.192286e-06 1.185539e-10))
3.252369      	((-1.901121e-04 -6.489840e-08 -8.904995e-04) (-1.580320e-04 -6.207977e-09 -5.300786e-05)) ((1.302064e-12 -5.023552e-09 -1.490273e-12) (-4.287716e-10 5.767326e-06 1.576531e-10))
3.905886      	((-2.107546e-04 -5.098733e-08 -8.768822e-04) (-1.484867e-04 -6.984940e-09 -5.565695e-05)) ((8.738270e-13 -5.836914e-09 -1.544089e-12) (-4.197447e-10 5.418287e-06 1.971172e-10))
4.660418      	((-2.357814e-04 -4.774851e-08 -8.624452e-04) (-1.407964e-04 -8.507518e-09 -5.804338e-05)) ((1.058275e-12 -6.669136e-09 -2.018219e-12) (-4.054492e-10 5.135356e-06 2.613935e-10))
5.51539       	((-2.645312e-04 -4.683449e-08 -8.470018e-04) (-1.346340e-04 -1.013883e-08 -6.018558e-05)) ((1.681357e-12 -7.464140e-09 -2.842211e-12) (-3.995696e-10 4.906819e-06 3.417030e-10))
6.470041      	((-2.963014e-04 -1.855112e-08 -8.302584e-04) (-1.297398e-04 -1.166106e-08 -6.196886e-05)) ((4.087408e-12 -8.156885e-09 -3.843108e-12) (-4.523892e-10 4.723379e-06 3.933868e-10))
7.457388      	((-3.296743e-04 -6.590281e-09 -8.120919e-04) (-1.261276e-04 -1.122701e-08 -6.317440e-05)) ((7.286626e-12 -8.713609e-09 -5.620261e-12) (-5.490808e-10 4.583721e-06 3.488452e-10))
8.434149      	((-3.604466e-04 3.052407e-08 -7.914632e-04) (-1.235232e-04 -6.817239e-09 -6.376280e-05)) ((8.989362e-12 -9.201117e-09 -6.669356e-12) (-6.257665e-10 4.478841e-06 1.618749e-10))
9.401233      	((-3.870549e-04 1.353186e-07 -7.682863e-04) (-1.215132e-04 -6.658921e-11 -6.382291e-05)) ((1.049357e-11 -9.663813e-09 -5.664346e-12) (-6.695699e-10 4.397217e-06 -5.763718e-11))
10.361784     	((-4.084572e-04 1.833430e-07 -7.437123e-04) (-1.198046e-04 7.643560e-09 -6.356685e-05)) ((1.062343e-11 -1.009052e-08 -3.403077e-12) (-6.358877e-10 4.329265e-06 -2.714424e-10))
11.320339     	((-4.251486e-04 3.024162e-07 -7.193490e-04) (-1.183373e-04 1.792720e-08 -6.315610e-05)) ((5.844850e-12 -1.050854e-08 8.665743e-13) (-5.110204e-10 4.272596e-06 -5.453618e-10))
12.279997     	((-4.345928e-04 3.829511e-07 -6.945457e-04) (-1.170682e-04 2.861158e-08 -6.263961e-05)) ((1.586495e-12 -1.087805e-08 3.548817e-12) (-3.018135e-10 4.227122e-06 -8.034411e-10))
13.241421     	((-4.375895e-04 5.073469e-07 -6.699657e-04) (-1.158817e-04 3.795987e-08 -6.205971e-05)) ((-2.259049e-12 -1.113331e-08 4.086688e-12) (-4.565943e-11 4.189750e-06 -9.686946e-10))
14.203917     	((-4.356986e-04 5.721863e-07 -6.463551e-04) (-1.147264e-04 4.617106e-08 -6.146445e-05)) ((-5.343396e-12 -1.127397e-08 2.456656e-12) (2.706278e-10 4.157884e-06 -1.021222e-09))
15.166682     	((-4.311741e-04 5.136076e-07 -6.255210e-04) (-1.136627e-04 4.955316e-08 -6.087887e-05)) ((-4.573657e-12 -1.131659e-08 6.825325e-13) (5.311001e-10 4.131989e-06 -9.377508e-10))
16.129776     	((-4.247688e-04 4.682905e-07 -6.065918e-04) (-1.126797e-04 4.729253e-08 -6.035458e-05)) ((-2.797069e-12 -1.126795e-08 -5.042581e-13) (6.807326e-10 4.109456e-06 -6.496923e-10))
17.093919     	((-4.184410e-04 5.717182e-07 -5.880386e-04) (-1.117287e-04 4.533280e-08 -5.990473e-05)) ((-2.576334e-12 -1.119162e-08 -1.920810e-12) (8.234922e-10 4.087539e-06 -3.204513e-10))
18.059579     	((-4.138038e-04 5.960385e-07 -5.704184e-04) (-1.108352e-04 4.381933e-08 -5.948835e-05)) ((-2.154842e-12 -1.111160e-08 -3.721584e-12) (9.623375e-10 4.066935e-06 -1.015190e-10))
19.026697     	((-4.108086e-04 6.558042e-07 -5.561052e-04) (-1.100360e-04 4.358384e-08 -5.912841e-05)) ((-1.672808e-12 -1.100083e-08 -4.335356e-12) (1.077284e-09 4.047413e-06 6.339286e-11))
19.995204     	((-4.086239e-04 7.604690e-07 -5.437004e-04) (-1.093222e-04 4.718800e-08 -5.884007e-05)) ((-4.219979e-12 -1.091829e-08 -3.263910e-12) (1.287622e-09 4.028699e-06 1.949493e-10))
20.965132     	((-4.053780e-04 8.124102e-07 -5.307520e-04) (-1.086403e-04 5.081301e-08 -5.860900e-05)) ((-7.852001e-12 -1.082496e-08 -1.329831e-12) (1.511704e-09 4.009786e-06 3.201879e-10))
21.936804     	((-4.024154e-04 9.128381e-07 -5.180524e-04) (-1.079705e-04 5.437945e-08 -5.843287e-05)) ((-1.252999e-11 -1.072391e-08 -1.621285e-13) (1.777802e-09 3.989806e-06 4.963464e-10))
22.910225     	((-4.001742e-04 9.999817e-07 -5.059094e-04) (-1.073318e-04 5.939385e-08 -5.829289e-05)) ((-1.521498e-11 -1.065160e-08 -6.367994e-13) (2.143998e-09 3.969817e-06 7.086130e-10))
23.885215     	((-3.981259e-04 1.089098e-06 -4.945359e-04) (-1.067226e-04 6.417026e-08 -5.817898e-05)) ((-1.560038e-11 -1.058604e-08 -2.231397e-12) (2.532599e-09 3.950256e-06 9.293477e-10))
24.861679     	((-3.962323e-04 1.214293e-06 -4.834153e-04) (-1.061373e-04 6.974883e-08 -5.808066e-05)) ((-1.662303e-11 -1.054246e-08 -3.340867e-12) (2.919305e-09 3.931307e-06 1.141536e-09))
25.839491     	((-3.942769e-04 1.382369e-06 -4.727933e-04) (-1.055753e-04 7.692991e-08 -5.799358e-05)) ((-1.942596e-11 -1.050119e-08 -3.807393e-12) (3.322180e-09 3.913111e-06 1.367737e-09))
26.817912     	((-3.924016e-04 1.517162e-06 -4.624867e-04) (-1.050389e-04 8.508130e-08 -5.791216e-05)) ((-2.185473e-11 -1.046788e-08 -3.861139e-12) (3.760395e-09 3.896014e-06 1.586576e-09))
27.796606     	((-3.905690e-04 1.622946e-06 -4.525135e-04) (-1.045315e-04 9.313591e-08 -5.782941e-05)) ((-2.439628e-11 -1.043715e-08 -3.377281e-12) (4.216463e-09 3.880355e-06 1.779358e-09))
28.775635     	((-3.889690e-04 1.762377e-06 -4.430545e-04) (-1.040560e-04 1.010375e-07 -5.774375e-05)) ((-2.858431e-11 -1.041106e-08 -2.841392e-12) (4.711230e-09 3.866254e-06 2.005463e-09))
29.755084     	((-3.874174e-04 1.964630e-06 -4.338407e-04) (-1.036100e-04 1.109872e-07 -5.765571e-05)) ((-3.330791e-11 -1.038955e-08 -2.783665e-12) (5.316623e-09 3.853569e-06 2.261783e-09))
30.735063     	((-3.860941e-04 2.145955e-06 -4.250165e-04) (-1.031919e-04 1.238287e-07 -5.756215e-05)) ((-3.748575e-11 -1.037884e-08 -2.439355e-12) (6.002004e-09 3.842258e-06 2.464129e-09))
31.715627     	((-3.847127e-04 2.244710e-06 -4.164453e-04) (-1.027956e-04 1.350832e-07 -5.746873e-05)) ((-3.878350e-11 -1.036536e-08 -2.499261e-12) (6.585956e-09 3.831911e-06 2.719897e-09))
32.696794     	((-3.832178e-04 2.421793e-06 -4.082214e-04) (-1.024137e-04 1.452939e-07 -5.738608e-05)) ((-4.203409e-11 -1.033879e-08 -2.120323e-12) (7.136462e-09 3.821854e-06 3.037015e-09))
33.678637     	((-3.817835e-04 2.641509e-06 -4.000650e-04) (-1.020453e-04 1.576734e-07 -5.731577e-05)) ((-4.449534e-11 -1.031019e-08 -2.008167e-12) (7.753587e-09 3.811935e-06 3.319990e-09))
34.661173     	((-3.802941e-04 2.754695e-06 -3.920710e-04) (-1.016848e-04 1.700213e-07 -5.725329e-05)) ((-4.353647e-11 -1.028201e-08 -1.765138e-12) (8.262819e-09 3.802121e-06 3.503258e-09))
35.64443      	((-3.789727e-04 2.991985e-06 -3.844251e-04) (-1.013314e-04 1.830547e-07 -5.719296e-05)) ((-4.787294e-11 -1.025569e-08 -1.877814e-12) (8.831187e-09 3.792416e-06 3.756096e-09))
36.628422     	((-3.776911e-04 3.234861e-06 -3.770250e-04) (-1.009855e-04 1.976743e-07 -5.713289e-05)) ((-5.093042e-11 -1.022914e-08 -1.876090e-12) (9.544922e-09 3.782807e-06 4.063623e-09))
37.613152     	((-3.766091e-04 3.487020e-06 -3.700125e-04) (-1.006508e-04 2.140051e-07 -5.706970e-05)) ((-5.452302e-11 -1.020834e-08 -1.645320e-12) (1.031453e-08 3.773529e-06 4.355146e-09))
38.598634     	((-3.756621e-04 3.792994e-06 -3.633407e-04) (-1.003334e-04 2.330679e-07 -5.699844e-05)) ((-5.983198e-11 -1.019242e-08 -1.477025e-12) (1.114965e-08 3.764939e-06 4.636301e-09))
39.584887     	((-3.746865e-04 4.080726e-06 -3.568507e-04) (-1.000331e-04 2.532027e-07 -5.691978e-05)) ((-6.535771e-11 -1.017543e-08 -1.825088e-12) (1.201303e-08 3.757055e-06 4.913534e-09))
40.571928     	((-3.735334e-04 4.446401e-06 -3.505355e-04) (-9.974315e-05 2.755975e-07 -5.684768e-05)) ((-7.272646e-11 -1.014214e-08 -2.138643e-12) (1.300548e-08 3.749257e-06 5.215845e-09))
41.559773     	((-3.725205e-04 4.810635e-06 -3.444875e-04) (-9.946317e-05 3.007743e-07 -5.679112e-05)) ((-7.711203e-11 -1.010535e-08 -2.009073e-12) (1.410062e-08 3.741180e-06 5.496686e-09))
42.548429     	((-3.714921e-04 5.228706e-06 -3.386464e-04) (-9.918974e-05 3.293740e-07 -5.675317e-05)) ((-8.340078e-11 -1.006567e-08 -1.735043e-12) (1.532345e-08 3.732606e-06 5.761294e-09))
43.537893     	((-3.704744e-04 5.687977e-06 -3.330018e-04) (-9.891892e-05 3.620072e-07 -5.672971e-05)) ((-9.043580e-11 -1.003075e-08 -1.468863e-12) (1.672060e-08 3.723632e-06 6.003863e-09))
44.528258     	((-3.694343e-04 6.226107e-06 -3.274452e-04) (-9.865190e-05 3.988349e-07 -5.670745e-05)) ((-9.856434e-11 -1.000556e-08 -1.052657e-12) (1.828832e-08 3.714812e-06 6.238994e-09))
45.519583     	((-3.683437e-04 6.844938e-06 -3.219415e-04) (-9.839126e-05 4.404804e-07 -5.667676e-05)) ((-1.078837e-10 -9.986834e-09 -7.531182e-13) (2.004458e-08 3.706550e-06 6.518379e-09))
46.511847     	((-3.671262e-04 7.485425e-06 -3.163632e-04) (-9.813505e-05 4.859610e-07 -5.663865e-05)) ((-1.171317e-10 -9.967788e-09 -6.718589e-13) (2.195651e-08 3.698726e-06 6.874402e-09))
47.50502      	((-3.660888e-04 8.172007e-06 -3.109553e-04) (-9.788634e-05 5.342826e-07 -5.659436e-05)) ((-1.274427e-10 -9.952433e-09 -1.198910e-12) (2.399991e-08 3.691288e-06 7.318819e-09))
48.499092     	((-3.652070e-04 8.975740e-06 -3.056725e-04) (-9.764884e-05 5.873718e-07 -5.654468e-05)) ((-1.400506e-10 -9.938726e-09 -1.838976e-12) (2.626565e-08 3.684260e-06 7.833953e-09))
49.494054     	((-3.644036e-04 9.762267e-06 -3.006022e-04) (-9.742170e-05 6.448589e-07 -5.649018e-05)) ((-1.517581e-10 -9.925350e-09 -2.450473e-12) (2.871498e-08 3.677569e-06 8.417098e-09))
50.489885     	((-3.637382e-04 1.057948e-05 -2.957615e-04) (-9.720626e-05 7.056292e-07 -5.642914e-05)) ((-1.615528e-10 -9.915989e-09 -3.161737e-12) (3.125910e-08 3.671292e-06 9.045547e-09))
51.486564     	((-3.630728e-04 1.142102e-05 -2.910554e-04) (-9.700185e-05 7.694725e-07 -5.636210e-05)) ((-1.698165e-10 -9.908886e-09 -4.147031e-12) (3.387529e-08 3.665418e-06 9.694843e-09))
52.484076     	((-3.623754e-04 1.231724e-05 -2.864731e-04) (-9.680566e-05 8.368681e-07 -5.629097e-05)) ((-1.798209e-10 -9.903450e-09 -5.042782e-12) (3.661073e-08 3.659834e-06 1.037111e-08))
53.482404     	((-3.617050e-04 1.334625e-05 -2.820760e-04) (-9.661776e-05 9.107155e-07 -5.621483e-05)) ((-1.946216e-10 -9.901446e-09 -5.861103e-12) (3.962989e-08 3.654560e-06 1.105504e-08))
54.481533     	((-3.609675e-04 1.449394e-05 -2.777810e-04) (-9.643656e-05 9.934416e-07 -5.613481e-05)) ((-2.136393e-10 -9.899065e-09 -6.294891e-12) (4.305054e-08 3.649529e-06 1.172124e-08))
55.481447     	((-3.602413e-04 1.572796e-05 -2.736239e-04) (-9.626129e-05 1.084992e-06 -5.605156e-05)) ((-2.343671e-10 -9.897431e-09 -6.880563e-12) (4.687473e-08 3.644691e-06 1.238811e-08))
56.482135     	((-3.594970e-04 1.706357e-05 -2.695368e-04) (-9.609176e-05 1.184872e-06 -5.596623e-05)) ((-2.564098e-10 -9.894121e-09 -7.559071e-12) (5.109183e-08 3.640002e-06 1.309212e-08))
57.483603     	((-3.588104e-04 1.852071e-05 -2.655568e-04) (-9.592846e-05 1.293073e-06 -5.587908e-05)) ((-2.799135e-10 -9.891274e-09 -8.361952e-12) (5.570723e-08 3.635465e-06 1.388470e-08))
58.485855     	((-3.581992e-04 2.011385e-05 -2.616935e-04) (-9.577220e-05 1.409823e-06 -5.579061e-05)) ((-3.050050e-10 -9.888345e-09 -9.137734e-12) (6.073309e-08 3.631082e-06 1.480508e-08))
59.488899     	((-3.576233e-04 2.189035e-05 -2.579276e-04) (-9.562219e-05 1.536713e-06 -5.570205e-05)) ((-3.321644e-10 -9.884648e-09 -9.643073e-12) (6.622078e-08 3.626810e-06 1.588136e-08))
60.492745     	((-3.571002e-04 2.385234e-05 -2.542891e-04) (-9.547937e-05 1.675430e-06 -5.561369e-05)) ((-3.618438e-10 -9.880285e-09 -9.960903e-12) (7.223919e-08 3.622691e-06 1.711976e-08))
61.49734      	((-3.565869e-04 2.601755e-05 -2.507564e-04) (-9.534388e-05 1.827425e-06 -5.552679e-05)) ((-3.942327e-10 -9.873403e-09 -1.015540e-11) (7.883270e-08 3.618732e-06 1.852090e-08))
62.502616     	((-3.560906e-04 2.840183e-05 -2.473298e-04) (-9.521464e-05 1.994341e-06 -5.544221e-05)) ((-4.300677e-10 -9.864416e-09 -1.032368e-11) (8.606997e-08 3.614911e-06 2.010766e-08))
63.50853      	((-3.556195e-04 3.103088e-05 -2.440053e-04) (-9.509080e-05 2.177400e-06 -5.536009e-05)) ((-4.697109e-10 -9.853635e-09 -1.044543e-11) (9.401432e-08 3.611219e-06 2.190835e-08))
64.515035     	((-3.551872e-04 3.393279e-05 -2.408103e-04) (-9.497297e-05 2.378315e-06 -5.528076e-05)) ((-5.133574e-10 -9.840321e-09 -1.085483e-11) (1.027394e-07 3.607701e-06 2.393006e-08))
65.522084     	((-3.547796e-04 3.709769e-05 -2.377292e-04) (-9.486070e-05 2.599580e-06 -5.520477e-05)) ((-5.610100e-10 -9.825487e-09 -1.148303e-11) (1.123214e-07 3.604380e-06 2.609543e-08))
66.529626     	((-3.544558e-04 4.054466e-05 -2.347775e-04) (-9.475529e-05 2.842348e-06 -5.513190e-05)) ((-6.127784e-10 -9.810746e-09 -1.239938e-11) (1.228048e-07 3.601297e-06 2.842787e-08))
67.537601     	((-3.541915e-04 4.436154e-05 -2.319287e-04) (-9.465842e-05 3.109125e-06 -5.506108e-05)) ((-6.703445e-10 -9.796386e-09 -1.318866e-11) (1.343339e-07 3.598542e-06 3.098863e-08))
68.545949     	((-3.540075e-04 4.855267e-05 -2.291874e-04) (-9.457020e-05 3.403694e-06 -5.499105e-05)) ((-7.333010e-10 -9.783870e-09 -1.377343e-11) (1.470254e-07 3.596195e-06 3.373359e-08))
69.554606     	((-3.539185e-04 5.311367e-05 -2.265386e-04) (-9.449174e-05 3.728705e-06 -5.492123e-05)) ((-8.005421e-10 -9.773229e-09 -1.413726e-11) (1.609144e-07 3.594337e-06 3.660624e-08))
70.563509     	((-3.539228e-04 5.809179e-05 -2.240050e-04) (-9.442407e-05 4.086730e-06 -5.485220e-05)) ((-8.733982e-10 -9.763314e-09 -1.415043e-11) (1.760930e-07 3.592993e-06 3.958957e-08))
71.572584     	((-3.540102e-04 6.347945e-05 -2.215892e-04) (-9.436791e-05 4.479484e-06 -5.478370e-05)) ((-9.511845e-10 -9.753680e-09 -1.389837e-11) (1.926369e-07 3.592165e-06 4.270477e-08))
72.581758     	((-3.541211e-04 6.930972e-05 -2.192508e-04) (-9.432173e-05 4.909305e-06 -5.471643e-05)) ((-1.035337e-09 -9.743013e-09 -1.318032e-11) (2.106300e-07 3.591792e-06 4.596624e-08))
73.590955     	((-3.543010e-04 7.562630e-05 -2.169650e-04) (-9.428314e-05 5.377742e-06 -5.465118e-05)) ((-1.126387e-09 -9.733442e-09 -1.230654e-11) (2.301577e-07 3.591795e-06 4.945118e-08))
74.600101     	((-3.546204e-04 8.248907e-05 -2.147776e-04) (-9.425442e-05 5.887773e-06 -5.458963e-05)) ((-1.226752e-09 -9.726233e-09 -1.101609e-11) (2.513931e-07 3.592187e-06 5.314406e-08))
75.60913      	((-3.551553e-04 8.987678e-05 -2.127388e-04) (-9.423932e-05 6.444400e-06 -5.453013e-05)) ((-1.335226e-09 -9.723376e-09 -9.389619e-12) (2.744456e-07 3.593122e-06 5.692672e-08))
76.617968     	((-3.559222e-04 9.789689e-05 -2.108246e-04) (-9.424140e-05 7.051801e-06 -5.446928e-05)) ((-1.454550e-09 -9.726109e-09 -7.247811e-12) (2.994822e-07 3.594841e-06 6.082695e-08))
77.626517     	((-3.569264e-04 1.065810e-04 -2.090810e-04) (-9.426294e-05 7.714438e-06 -5.440869e-05)) ((-1.584822e-09 -9.730427e-09 -5.987719e-12) (3.267432e-07 3.597399e-06 6.492321e-08))
78.634679     	((-3.582242e-04 1.159956e-04 -2.075748e-04) (-9.430343e-05 8.436056e-06 -5.434924e-05)) ((-1.724040e-09 -9.738591e-09 -4.787225e-12) (3.564018e-07 3.600753e-06 6.930249e-08))
79.64158      	((-3.599477e-04 1.260714e-04 -2.064745e-04) (-9.436573e-05 9.214138e-06 -5.429061e-05)) ((-1.872063e-09 -9.752478e-09 -3.400453e-12) (3.885005e-07 3.604978e-06 7.417338e-08))
80.646723     	((-3.619792e-04 1.369381e-04 -2.057344e-04) (-9.445265e-05 1.005031e-05 -5.423380e-05)) ((-2.030251e-09 -9.769843e-09 -2.557429e-12) (4.231447e-07 3.610122e-06 7.961472e-08))
81.649934     	((-3.644159e-04 1.487383e-04 -2.053163e-04) (-9.456810e-05 1.095346e-05 -5.418100e-05)) ((-2.202630e-09 -9.793665e-09 -1.507504e-12) (4.606881e-07 3.616252e-06 8.556672e-08))
82.651032     	((-3.673347e-04 1.614020e-04 -2.052404e-04) (-9.472146e-05 1.193273e-05 -5.413210e-05)) ((-2.384511e-09 -9.823458e-09 -4.210227e-14) (5.013053e-07 3.623588e-06 9.168093e-08))
83.649836     	((-3.710304e-04 1.752007e-04 -2.056095e-04) (-9.492369e-05 1.299593e-05 -5.408180e-05)) ((-2.580811e-09 -9.861932e-09 1.188391e-12) (5.453118e-07 3.632719e-06 9.805339e-08))
84.6462       	((-3.754874e-04 1.900491e-04 -2.064800e-04) (-9.517813e-05 1.414808e-05 -5.402638e-05)) ((-2.788913e-09 -9.905418e-09 1.647281e-12) (5.929298e-07 3.644129e-06 1.049893e-07))
85.640043     	((-3.808836e-04 2.058238e-04 -2.081054e-04) (-9.549662e-05 1.538432e-05 -5.396641e-05)) ((-3.004676e-09 -9.958913e-09 1.203467e-12) (6.440127e-07 3.658185e-06 1.128089e-07))
86.631448     	((-3.871320e-04 2.225707e-04 -2.103891e-04) (-9.588391e-05 1.670697e-05 -5.390447e-05)) ((-3.228260e-09 -1.001958e-08 -3.679428e-13) (6.985421e-07 3.675068e-06 1.214066e-07))
87.620325     	((-3.943012e-04 2.401056e-04 -2.133153e-04) (-9.634253e-05 1.812070e-05 -5.384101e-05)) ((-3.454326e-09 -1.008597e-08 -4.486648e-12) (7.564403e-07 3.695122e-06 1.303963e-07))
88.606743     	((-4.028063e-04 2.583485e-04 -2.173157e-04) (-9.689363e-05 1.962644e-05 -5.377181e-05)) ((-3.680656e-09 -1.017258e-08 -9.388019e-12) (8.175396e-07 3.719051e-06 1.394745e-07))
89.590619     	((-4.125079e-04 2.769792e-04 -2.223351e-04) (-9.754934e-05 2.121090e-05 -5.369269e-05)) ((-3.899235e-09 -1.027404e-08 -1.306102e-11) (8.813120e-07 3.747249e-06 1.486511e-07))
90.571888     	((-4.233508e-04 2.957639e-04 -2.284392e-04) (-9.831066e-05 2.285942e-05 -5.360387e-05)) ((-4.107438e-09 -1.039043e-08 -1.645389e-11) (9.469821e-07 3.779805e-06 1.580344e-07))
