# Forces      
# CofR        : (0.000000e+00 0.000000e+00 0.000000e+00)
# Time        forces(pressure viscous)	moments(pressure viscous)
0             	((0.000000e+00 0.000000e+00 0.000000e+00) (-6.403257e-15 -1.262292e-05 1.140561e-15)) ((0.000000e+00 0.000000e+00 0.000000e+00) (-2.836238e-07 -3.481761e-17 6.051725e-12))
0.012         	((3.805509e-09 -3.670864e-03 8.284442e-04) (2.090136e-11 -1.448573e-05 -3.984084e-09)) ((4.329366e-08 2.823240e-09 6.920945e-10) (-4.180142e-07 -1.345112e-14 1.252605e-11))
0.0264        	((-6.109121e-08 2.535003e-04 -5.199022e-05) (-1.577619e-11 -1.478058e-05 -6.045880e-09)) ((-3.038419e-09 -1.778986e-10 -4.518669e-11) (-4.680342e-07 2.605255e-12 1.649361e-11))
0.04368       	((3.182678e-08 7.682983e-04 -5.984314e-05) (-1.444470e-11 -1.313615e-05 -4.303789e-09)) ((-1.000101e-08 -2.077678e-10 -1.872878e-10) (-4.169664e-07 4.245381e-12 1.402238e-11))
0.064416      	((1.243171e-08 7.219663e-06 -3.003526e-05) (-2.185329e-10 -1.163574e-05 -1.921830e-09)) ((4.911633e-11 -1.001378e-10 9.576041e-12) (-3.743021e-07 2.382744e-12 1.649672e-11))
0.0892992     	((-7.099802e-09 -1.032554e-05 -1.848866e-05) (-3.901931e-10 -1.074284e-05 -1.394803e-09)) ((4.096144e-10 -5.982338e-11 1.037548e-11) (-3.538238e-07 5.620262e-13 1.724793e-11))
0.119159      	((-5.293909e-09 1.148957e-05 -1.122259e-05) (-3.592883e-10 -9.920064e-06 -2.389627e-09)) ((-2.164198e-10 -3.733111e-11 -2.143896e-12) (-3.310689e-07 1.147052e-12 1.455783e-11))
0.154991      	((4.673873e-09 6.197559e-06 -7.091909e-06) (-3.013953e-10 -9.047550e-06 -3.540812e-09)) ((-1.324034e-10 -2.228200e-11 -1.041908e-13) (-3.057388e-07 9.910896e-13 1.297208e-11))
0.197989      	((2.428493e-09 1.502917e-06 -4.404584e-06) (-1.885177e-10 -8.166914e-06 -4.222896e-09)) ((-4.684269e-11 -1.331010e-11 -1.688884e-13) (-2.799587e-07 -2.701365e-13 8.810708e-12))
0.249587      	((-1.718166e-10 -2.017717e-07 -2.789646e-06) (-8.761540e-11 -7.302897e-06 -4.841722e-09)) ((-1.285710e-11 -8.341477e-12 7.082969e-13) (-2.541756e-07 -1.547963e-12 5.791835e-12))
0.311504      	((-3.111830e-10 -9.813947e-07 -1.721345e-06) (-2.320734e-11 -6.481380e-06 -5.531232e-09)) ((-2.333792e-12 -4.712350e-12 8.927474e-13) (-2.288911e-07 -2.691446e-12 2.846453e-12))
0.385805      	((8.646389e-12 -1.355518e-06 -1.083854e-06) (2.363945e-11 -5.723230e-06 -6.174815e-09)) ((9.093775e-13 -2.452918e-12 7.444898e-13) (-2.047271e-07 -3.590884e-12 -8.160499e-13))
0.474966      	((-7.702376e-12 -1.531836e-06 -6.550257e-07) (5.585277e-11 -5.043502e-06 -6.775669e-09)) ((3.948035e-12 -9.634651e-13 6.332535e-13) (-1.823527e-07 -4.305561e-12 -5.568720e-13))
0.581959      	((3.986003e-11 -1.602397e-06 -4.049445e-07) (6.386858e-11 -4.448315e-06 -7.403903e-09)) ((6.530285e-12 -1.454166e-13 5.476362e-13) (-1.621731e-07 -4.170519e-12 3.302881e-12))
0.710351      	((9.730921e-12 -1.596151e-06 -2.414690e-07) (7.331235e-11 -3.937630e-06 -8.055095e-09)) ((8.289562e-12 3.859850e-13 4.560462e-13) (-1.444155e-07 -3.431837e-12 5.476888e-12))
0.864421      	((4.399129e-11 -1.538629e-06 -1.543395e-07) (9.987723e-11 -3.504913e-06 -8.627000e-09)) ((8.988808e-12 6.576279e-13 4.554088e-13) (-1.290814e-07 -2.550768e-12 4.466227e-12))
1.049306      	((4.021831e-11 -1.454303e-06 -9.870499e-08) (1.199546e-10 -3.139222e-06 -9.105104e-09)) ((8.868500e-12 8.176909e-13 4.476033e-13) (-1.159431e-07 -1.979808e-12 2.547228e-12))
1.271167      	((7.274473e-11 -1.360398e-06 -7.352043e-08) (1.392854e-10 -2.829301e-06 -9.551974e-09)) ((8.376878e-12 8.889735e-13 4.096671e-13) (-1.046599e-07 -1.692151e-12 1.466018e-12))
1.5374        	((9.239904e-11 -1.264228e-06 -6.046630e-08) (1.382910e-10 -2.563202e-06 -1.008293e-08)) ((7.791791e-12 9.343925e-13 4.069133e-13) (-9.486820e-08 -1.339055e-12 1.051014e-12))
1.85688       	((9.853963e-11 -1.170066e-06 -6.052482e-08) (1.155916e-10 -2.330058e-06 -1.073575e-08)) ((7.130528e-12 9.190500e-13 4.098814e-13) (-8.624999e-08 -9.516306e-13 1.149133e-12))
2.240256      	((4.514184e-11 -1.080594e-06 -6.517192e-08) (9.008009e-11 -2.122801e-06 -1.148793e-08)) ((6.556221e-12 8.856592e-13 4.099070e-13) (-7.857592e-08 -6.119970e-13 1.556146e-12))
2.700307      	((2.567378e-11 -9.969674e-07 -7.469070e-08) (6.920351e-11 -1.937019e-06 -1.228371e-08)) ((6.083567e-12 8.364310e-13 4.089166e-13) (-7.169311e-08 -1.584522e-13 2.718023e-12))
3.252369      	((4.091973e-11 -9.189675e-07 -8.488286e-08) (6.616109e-11 -1.769705e-06 -1.310556e-08)) ((5.615765e-12 7.872673e-13 3.811521e-13) (-6.549391e-08 2.067495e-13 4.547023e-12))
3.914842      	((3.501488e-11 -8.455191e-07 -9.605074e-08) (5.446244e-11 -1.618689e-06 -1.400563e-08)) ((5.136054e-12 7.277782e-13 3.477695e-13) (-5.989696e-08 4.041126e-13 6.108257e-12))
4.709811      	((4.345409e-11 -7.772339e-07 -1.066269e-07) (3.749284e-11 -1.482313e-06 -1.497517e-08)) ((4.683948e-12 6.757273e-13 3.143267e-13) (-5.484220e-08 3.109799e-13 6.422915e-12))
5.663773      	((6.357953e-11 -7.144188e-07 -1.168445e-07) (2.403951e-11 -1.359391e-06 -1.599374e-08)) ((4.288971e-12 6.269428e-13 2.851913e-13) (-5.028637e-08 1.386450e-13 6.122211e-12))
6.808528      	((7.870950e-11 -6.569746e-07 -1.257668e-07) (1.046550e-11 -1.248930e-06 -1.706303e-08)) ((3.951120e-12 5.802888e-13 2.495963e-13) (-4.619178e-08 1.868908e-13 6.206113e-12))
8.182233      	((7.124028e-11 -6.045317e-07 -1.337051e-07) (1.715607e-12 -1.149820e-06 -1.817700e-08)) ((3.650914e-12 5.331494e-13 2.160507e-13) (-4.251816e-08 3.833384e-13 6.191908e-12))
9.83068       	((5.665782e-11 -5.568889e-07 -1.404780e-07) (-1.079029e-11 -1.060793e-06 -1.935283e-08)) ((3.381507e-12 4.885271e-13 1.880864e-13) (-3.921934e-08 6.300750e-13 6.003501e-12))
11.808816     	((3.788283e-11 -5.133471e-07 -1.464419e-07) (-1.775263e-11 -9.805543e-07 -2.062069e-08)) ((3.141179e-12 4.486885e-13 1.629072e-13) (-3.624690e-08 8.273108e-13 5.787185e-12))
14.182579     	((3.410059e-11 -4.736779e-07 -1.516521e-07) (-1.134416e-11 -9.079558e-07 -2.200095e-08)) ((2.924257e-12 4.119525e-13 1.410209e-13) (-3.355723e-08 8.633827e-13 5.534786e-12))
17.031095     	((2.109462e-11 -4.376764e-07 -1.562927e-07) (-2.895840e-12 -8.420329e-07 -2.350973e-08)) ((2.728891e-12 3.766793e-13 1.238616e-13) (-3.111435e-08 8.555248e-13 5.058291e-12))
20.449314     	((-2.638630e-11 -4.050006e-07 -1.602588e-07) (-3.872311e-12 -7.820481e-07 -2.515212e-08)) ((2.552621e-12 3.461270e-13 1.112429e-13) (-2.889102e-08 1.013959e-12 4.290837e-12))
24.551176     	((-7.989964e-11 -3.754569e-07 -1.635004e-07) (-8.490659e-12 -7.274957e-07 -2.692314e-08)) ((2.398831e-12 3.190007e-13 1.028721e-13) (-2.686816e-08 1.242201e-12 3.323011e-12))
29.473411     	((-6.505939e-11 -3.489624e-07 -1.660647e-07) (-1.217855e-11 -6.779739e-07 -2.880054e-08)) ((2.267706e-12 2.949735e-13 9.628221e-14) (-2.503138e-08 1.551005e-12 2.357453e-12))
35.380094     	((-2.331866e-11 -3.252199e-07 -1.679304e-07) (-1.320339e-11 -6.331256e-07 -3.075882e-08)) ((2.155720e-12 2.789466e-13 9.109028e-14) (-2.336777e-08 1.837704e-12 1.416471e-12))
42.468112     	((-1.676079e-11 -3.041622e-07 -1.693180e-07) (-1.174380e-11 -5.925929e-07 -3.277917e-08)) ((2.063140e-12 2.623542e-13 8.847855e-14) (-2.186429e-08 2.056142e-12 3.703886e-13))
50.973735     	((-5.369998e-11 -2.856074e-07 -1.701366e-07) (-1.062570e-11 -5.560187e-07 -3.484060e-08)) ((1.991602e-12 2.444878e-13 8.630321e-14) (-2.050785e-08 2.325417e-12 -8.743723e-13))
61.180482     	((-5.253266e-11 -2.694023e-07 -1.703625e-07) (-1.299847e-11 -5.230606e-07 -3.692599e-08)) ((1.938546e-12 2.295984e-13 8.407819e-14) (-1.928579e-08 2.566926e-12 -2.686101e-12))
73.428578     	((-4.251900e-11 -2.553813e-07 -1.702212e-07) (-1.506141e-11 -4.933947e-07 -3.903096e-08)) ((1.902366e-12 2.161404e-13 8.351161e-14) (-1.818606e-08 2.690301e-12 -4.918559e-12))
88.126294     	((-3.479343e-11 -2.434515e-07 -1.695298e-07) (-1.387440e-11 -4.667236e-07 -4.114985e-08)) ((1.883364e-12 2.051467e-13 8.390435e-14) (-1.719788e-08 2.623973e-12 -7.445069e-12))
105.763553    	((-1.642268e-11 -2.334771e-07 -1.685988e-07) (-1.075097e-11 -4.427976e-07 -4.328184e-08)) ((1.880924e-12 1.971279e-13 8.498565e-14) (-1.631212e-08 2.451284e-12 -1.014687e-11))
126.928263    	((1.641895e-11 -2.254254e-07 -1.671964e-07) (-6.422708e-12 -4.214176e-07 -4.542311e-08)) ((1.893885e-12 1.917956e-13 8.702433e-14) (-1.552172e-08 2.161606e-12 -1.275212e-11))
152.325916    	((3.193907e-11 -2.191568e-07 -1.654982e-07) (-1.778781e-12 -4.024288e-07 -4.757021e-08)) ((1.923078e-12 1.880269e-13 8.973383e-14) (-1.482138e-08 1.797560e-12 -1.506640e-11))
182.803099    	((4.873184e-11 -2.144966e-07 -1.634433e-07) (2.923701e-12 -3.857047e-07 -4.972150e-08)) ((1.966771e-12 1.863340e-13 9.334531e-14) (-1.420683e-08 1.384258e-12 -1.703700e-11))
219.375719    	((6.609911e-11 -2.113634e-07 -1.610578e-07) (7.749456e-12 -3.711378e-07 -5.186800e-08)) ((2.024846e-12 1.863811e-13 9.778287e-14) (-1.367447e-08 8.658699e-13 -1.868958e-11))
263.262863    	((7.623765e-11 -2.094936e-07 -1.582744e-07) (1.056075e-11 -3.586233e-07 -5.399310e-08)) ((2.089476e-12 1.893419e-13 1.029159e-13) (-1.322036e-08 3.502322e-13 -2.002449e-11))
315.927436    	((9.369707e-11 -2.086702e-07 -1.551522e-07) (1.252834e-11 -3.480380e-07 -5.605351e-08)) ((2.154666e-12 1.942848e-13 1.083691e-13) (-1.283916e-08 -1.326968e-13 -2.094685e-11))
379.124923    	((1.094566e-10 -2.086009e-07 -1.516573e-07) (1.523441e-11 -3.392227e-07 -5.799085e-08)) ((2.213232e-12 2.016741e-13 1.130565e-13) (-1.252369e-08 -6.317919e-13 -2.143196e-11))
454.486724    	((1.196511e-10 -2.089342e-07 -1.477220e-07) (1.837179e-11 -3.319832e-07 -5.973602e-08)) ((2.262378e-12 2.108087e-13 1.165600e-13) (-1.226555e-08 -1.116546e-12 -2.152263e-11))
541.998702    	((1.334209e-10 -2.093803e-07 -1.435877e-07) (2.349067e-11 -3.260987e-07 -6.123356e-08)) ((2.300554e-12 2.202318e-13 1.187505e-13) (-1.205595e-08 -1.613616e-12 -2.130200e-11))
641.655929    	((1.456965e-10 -2.096695e-07 -1.394219e-07) (3.041284e-11 -3.213114e-07 -6.247382e-08)) ((2.327995e-12 2.298532e-13 1.200769e-13) (-1.188553e-08 -2.102812e-12 -2.085591e-11))
753.463609    	((1.564647e-10 -2.097913e-07 -1.354674e-07) (3.848280e-11 -3.174025e-07 -6.348074e-08)) ((2.346591e-12 2.393657e-13 1.208774e-13) (-1.174672e-08 -2.546181e-12 -2.025453e-11))
875.075566    	((1.605787e-10 -2.098129e-07 -1.318672e-07) (4.698014e-11 -3.142002e-07 -6.429592e-08)) ((2.357974e-12 2.485413e-13 1.213935e-13) (-1.163359e-08 -2.915331e-12 -1.953792e-11))
996.806403    	((1.594490e-10 -2.098334e-07 -1.287903e-07) (5.497995e-11 -3.115881e-07 -6.495770e-08)) ((2.364684e-12 2.567519e-13 1.217559e-13) (-1.154207e-08 -3.203633e-12 -1.876905e-11))
1118.646364   	((1.552777e-10 -2.097887e-07 -1.261816e-07) (6.203230e-11 -3.094367e-07 -6.550648e-08)) ((2.367146e-12 2.641021e-13 1.221344e-13) (-1.146742e-08 -3.423237e-12 -1.798454e-11))
1240.582798   	((1.487202e-10 -2.097500e-07 -1.240203e-07) (6.777181e-11 -3.076703e-07 -6.596393e-08)) ((2.367756e-12 2.703089e-13 1.224709e-13) (-1.140678e-08 -3.559537e-12 -1.720168e-11))
1362.603361   	((1.404247e-10 -2.096985e-07 -1.221923e-07) (7.216876e-11 -3.062122e-07 -6.634918e-08)) ((2.367360e-12 2.756367e-13 1.227846e-13) (-1.135727e-08 -3.609442e-12 -1.643417e-11))
1484.697372   	((1.305395e-10 -2.096519e-07 -1.206885e-07) (7.537747e-11 -3.050089e-07 -6.667454e-08)) ((2.366340e-12 2.800338e-13 1.229583e-13) (-1.131687e-08 -3.583413e-12 -1.567652e-11))
1606.855031   	((1.196072e-10 -2.096046e-07 -1.194243e-07) (7.749390e-11 -3.040116e-07 -6.695088e-08)) ((2.365330e-12 2.837529e-13 1.230698e-13) (-1.128377e-08 -3.499642e-12 -1.493451e-11))
1729.067576   	((1.078664e-10 -2.095619e-07 -1.183639e-07) (7.867878e-11 -3.031846e-07 -6.718599e-08)) ((2.364293e-12 2.867922e-13 1.232832e-13) (-1.125662e-08 -3.367522e-12 -1.421521e-11))
1851.327192   	((9.582351e-11 -2.095229e-07 -1.174645e-07) (7.913357e-11 -3.024968e-07 -6.738670e-08)) ((2.363112e-12 2.893526e-13 1.234433e-13) (-1.123426e-08 -3.193750e-12 -1.352393e-11))
1973.627075   	((8.396742e-11 -2.094894e-07 -1.167077e-07) (7.891453e-11 -3.019243e-07 -6.755794e-08)) ((2.362009e-12 2.914848e-13 1.235214e-13) (-1.121583e-08 -2.991382e-12 -1.286645e-11))
2095.961335   	((7.216821e-11 -2.094594e-07 -1.160673e-07) (7.817778e-11 -3.014463e-07 -6.770409e-08)) ((2.361049e-12 2.932591e-13 1.236161e-13) (-1.120059e-08 -2.769921e-12 -1.224148e-11))
2218.324927   	((6.061947e-11 -2.094338e-07 -1.155243e-07) (7.697822e-11 -3.010472e-07 -6.782900e-08)) ((2.360153e-12 2.947486e-13 1.236846e-13) (-1.118797e-08 -2.535620e-12 -1.165551e-11))
2340.713533   	((4.934200e-11 -2.094108e-07 -1.150730e-07) (7.544845e-11 -3.007130e-07 -6.793572e-08)) ((2.359233e-12 2.959795e-13 1.236952e-13) (-1.117749e-08 -2.294689e-12 -1.110646e-11))
2463.123383   	((3.854421e-11 -2.093916e-07 -1.146765e-07) (7.362543e-11 -3.004331e-07 -6.802685e-08)) ((2.358325e-12 2.970758e-13 1.237023e-13) (-1.116876e-08 -2.051406e-12 -1.059772e-11))
2585.551364   	((2.832299e-11 -2.093746e-07 -1.143477e-07) (7.156636e-11 -3.001982e-07 -6.810462e-08)) ((2.357515e-12 2.979803e-13 1.237216e-13) (-1.116149e-08 -1.810292e-12 -1.013049e-11))
2707.994829   	((1.868536e-11 -2.093596e-07 -1.140670e-07) (6.939474e-11 -3.000009e-07 -6.817099e-08)) ((2.356849e-12 2.987351e-13 1.237655e-13) (-1.115541e-08 -1.574129e-12 -9.700644e-12))
2830.451506   	((9.851697e-12 -2.093469e-07 -1.138311e-07) (6.718285e-11 -2.998351e-07 -6.822739e-08)) ((2.356330e-12 2.993666e-13 1.238179e-13) (-1.115034e-08 -1.346074e-12 -9.306825e-12))
2952.919454   	((1.784687e-12 -2.093363e-07 -1.136303e-07) (6.494361e-11 -2.996955e-07 -6.827531e-08)) ((2.355887e-12 2.998957e-13 1.238627e-13) (-1.114609e-08 -1.128727e-12 -8.949334e-12))
3075.397015   	((-5.575625e-12 -2.093271e-07 -1.134611e-07) (6.274834e-11 -2.995780e-07 -6.831607e-08)) ((2.355504e-12 3.003258e-13 1.239037e-13) (-1.114254e-08 -9.236876e-13 -8.626036e-12))
3197.882777   	((-1.219465e-11 -2.093194e-07 -1.133170e-07) (6.064006e-11 -2.994789e-07 -6.835068e-08)) ((2.355204e-12 3.006831e-13 1.239473e-13) (-1.113955e-08 -7.320305e-13 -8.334144e-12))
3320.375533   	((-1.817493e-11 -2.093126e-07 -1.131956e-07) (5.860715e-11 -2.993952e-07 -6.838005e-08)) ((2.354962e-12 3.009738e-13 1.239852e-13) (-1.113704e-08 -5.546206e-13 -8.073140e-12))
3442.874256   	((-2.346455e-11 -2.093070e-07 -1.130927e-07) (5.668626e-11 -2.993247e-07 -6.840500e-08)) ((2.354733e-12 3.012161e-13 1.240159e-13) (-1.113493e-08 -3.919189e-13 -7.839781e-12))
3565.378066   	((-2.812866e-11 -2.093023e-07 -1.130061e-07) (5.490260e-11 -2.992651e-07 -6.842621e-08)) ((2.354541e-12 3.014181e-13 1.240374e-13) (-1.113316e-08 -2.434238e-13 -7.631749e-12))
3687.886216   	((-3.230904e-11 -2.092981e-07 -1.129324e-07) (5.325343e-11 -2.992148e-07 -6.844420e-08)) ((2.354374e-12 3.015863e-13 1.240549e-13) (-1.113166e-08 -1.086769e-13 -7.446837e-12))
3810.398066   	((-3.601870e-11 -2.092944e-07 -1.128699e-07) (5.173394e-11 -2.991723e-07 -6.845945e-08)) ((2.354226e-12 3.017274e-13 1.240705e-13) (-1.113041e-08 1.301748e-14 -7.283282e-12))
3932.913074   	((-3.929866e-11 -2.092912e-07 -1.128164e-07) (5.034532e-11 -2.991364e-07 -6.847238e-08)) ((2.354099e-12 3.018463e-13 1.240842e-13) (-1.112935e-08 1.223899e-13 -7.138992e-12))
4055.430772   	((-4.210177e-11 -2.092890e-07 -1.127732e-07) (4.909421e-11 -2.991061e-07 -6.848335e-08)) ((2.353994e-12 3.019391e-13 1.240944e-13) (-1.112845e-08 2.200698e-13 -7.011767e-12))
4177.950766   	((-4.454914e-11 -2.092868e-07 -1.127329e-07) (4.797008e-11 -2.990804e-07 -6.849266e-08)) ((2.353904e-12 3.020311e-13 1.241032e-13) (-1.112770e-08 3.071241e-13 -6.899863e-12))
4300.472715   	((-4.672177e-11 -2.092849e-07 -1.127010e-07) (4.696293e-11 -2.990587e-07 -6.850056e-08)) ((2.353827e-12 3.020977e-13 1.241116e-13) (-1.112706e-08 3.843400e-13 -6.801797e-12))
4422.996332   	((-4.860838e-11 -2.092835e-07 -1.126738e-07) (4.607247e-11 -2.990404e-07 -6.850727e-08)) ((2.353763e-12 3.021520e-13 1.241184e-13) (-1.112652e-08 4.527338e-13 -6.715699e-12))
4545.521368   	((-5.024403e-11 -2.092822e-07 -1.126525e-07) (4.528210e-11 -2.990249e-07 -6.851297e-08)) ((2.353704e-12 3.021914e-13 1.241236e-13) (-1.112607e-08 5.131307e-13 -6.640257e-12))
4668.047614   	((-5.166300e-11 -2.092812e-07 -1.126327e-07) (4.458232e-11 -2.990117e-07 -6.851781e-08)) ((2.353651e-12 3.022314e-13 1.241283e-13) (-1.112568e-08 5.662335e-13 -6.574411e-12))
4790.574892   	((-5.290753e-11 -2.092803e-07 -1.126164e-07) (4.396195e-11 -2.990006e-07 -6.852192e-08)) ((2.353603e-12 3.022627e-13 1.241324e-13) (-1.112535e-08 6.129077e-13 -6.517032e-12))
4913.103047   	((-5.400150e-11 -2.092794e-07 -1.126005e-07) (4.341818e-11 -2.989912e-07 -6.852541e-08)) ((2.353563e-12 3.022952e-13 1.241356e-13) (-1.112508e-08 6.537513e-13 -6.466981e-12))
5035.631951   	((-5.491609e-11 -2.092788e-07 -1.125892e-07) (4.294381e-11 -2.989833e-07 -6.852836e-08)) ((2.353530e-12 3.023156e-13 1.241383e-13) (-1.112485e-08 6.894165e-13 -6.423316e-12))
5158.161491   	((-5.575416e-11 -2.092781e-07 -1.125802e-07) (4.252894e-11 -2.989765e-07 -6.853087e-08)) ((2.353500e-12 3.023297e-13 1.241411e-13) (-1.112465e-08 7.205721e-13 -6.385326e-12))
5280.691574   	((-5.642334e-11 -2.092778e-07 -1.125720e-07) (4.216924e-11 -2.989708e-07 -6.853299e-08)) ((2.353477e-12 3.023441e-13 1.241432e-13) (-1.112448e-08 7.476655e-13 -6.352219e-12))
5403.222118   	((-5.703119e-11 -2.092775e-07 -1.125647e-07) (4.185595e-11 -2.989660e-07 -6.853479e-08)) ((2.353457e-12 3.023566e-13 1.241452e-13) (-1.112434e-08 7.712597e-13 -6.323437e-12))
5525.753054   	((-5.755402e-11 -2.092771e-07 -1.125586e-07) (4.158515e-11 -2.989619e-07 -6.853632e-08)) ((2.353439e-12 3.023662e-13 1.241470e-13) (-1.112422e-08 7.917234e-13 -6.298428e-12))
5648.284324   	((-5.801375e-11 -2.092769e-07 -1.125521e-07) (4.134866e-11 -2.989585e-07 -6.853761e-08)) ((2.353424e-12 3.023791e-13 1.241485e-13) (-1.112412e-08 8.095591e-13 -6.276708e-12))
