# Forces      
# CofR        : (0.000000e+00 0.000000e+00 0.000000e+00)
# Time        forces(pressure viscous)	moments(pressure viscous)
0             	((0.000000e+00 0.000000e+00 0.000000e+00) (0.000000e+00 0.000000e+00 0.000000e+00)) ((0.000000e+00 0.000000e+00 0.000000e+00) (0.000000e+00 0.000000e+00 0.000000e+00))
0.012         	((5.519354e-08 -1.149997e-04 -1.873948e-05) (-1.641138e-10 -2.639267e-04 -3.352792e-08)) ((-1.754641e-08 -7.117246e-11 1.634798e-10) (-1.756380e-05 -7.440944e-12 -2.822132e-11))
0.0264        	((1.401587e-07 -1.545568e-04 -3.987911e-05) (-2.688755e-10 -2.418402e-04 -1.092072e-07)) ((6.610577e-09 -1.630158e-10 8.764544e-11) (-1.611252e-05 -1.402906e-11 -1.816847e-11))
0.04368       	((5.638515e-09 -1.044719e-04 -2.225466e-05) (-6.982199e-10 -2.193377e-04 -2.586796e-07)) ((4.145612e-09 -1.344773e-10 1.006514e-10) (-1.464081e-05 2.162687e-11 -6.385120e-11))
0.064416      	((1.206619e-07 -1.182893e-04 -2.919733e-05) (-1.465865e-09 -1.971496e-04 -4.827945e-07)) ((9.431795e-09 -1.911153e-10 7.804485e-11) (-1.319803e-05 -1.512019e-12 -1.113248e-10))
0.0892992     	((5.176330e-08 -8.764021e-05 -2.079822e-05) (-1.771804e-09 -1.761091e-04 -7.683252e-07)) ((6.162302e-09 -1.908236e-10 5.228876e-11) (-1.183953e-05 -4.291528e-11 -1.071586e-10))
0.119159      	((1.038244e-07 -9.010572e-05 -2.328289e-05) (-2.708749e-09 -1.569826e-04 -1.088145e-06)) ((7.965306e-09 -2.071349e-10 3.674579e-11) (-1.061365e-05 -1.465670e-10 -1.151969e-10))
0.154991      	((8.349356e-08 -7.051023e-05 -1.844884e-05) (-3.170896e-09 -1.402237e-04 -1.450643e-06)) ((5.691451e-09 -2.251325e-10 3.180816e-11) (-9.541223e-06 -2.565014e-10 -1.606223e-10))
0.197989      	((9.017549e-08 -6.970157e-05 -1.991934e-05) (-3.414510e-09 -1.257703e-04 -1.874706e-06)) ((6.847455e-09 -2.291123e-10 6.021956e-11) (-8.614558e-06 -3.844137e-10 -1.823935e-10))
0.249587      	((8.891767e-08 -5.786217e-05 -1.770394e-05) (-4.573349e-09 -1.131246e-04 -2.397882e-06)) ((5.509881e-09 -2.537547e-10 6.694853e-11) (-7.793432e-06 -5.436649e-10 -1.832582e-10))
0.311504      	((8.768783e-08 -5.560236e-05 -1.876014e-05) (-5.157165e-09 -1.015141e-04 -2.960383e-06)) ((6.043279e-09 -2.389301e-10 6.481755e-11) (-7.030569e-06 -7.086149e-10 -1.596017e-10))
0.385805      	((8.741865e-08 -4.751148e-05 -1.803674e-05) (-6.981745e-09 -9.072941e-05 -3.529773e-06)) ((5.361976e-09 -2.408281e-10 6.121828e-11) (-6.317924e-06 -7.470812e-10 -9.280177e-11))
0.474966      	((8.274650e-08 -4.443903e-05 -1.870342e-05) (-7.664651e-09 -8.093324e-05 -4.026881e-06)) ((5.475438e-09 -2.500720e-10 5.865792e-11) (-5.670814e-06 -7.672378e-10 -2.920025e-11))
0.581959      	((8.389388e-08 -3.898604e-05 -1.846785e-05) (-5.736810e-09 -7.221586e-05 -4.446492e-06)) ((5.086341e-09 -2.442967e-10 5.218128e-11) (-5.097813e-06 -8.543015e-10 -3.616173e-11))
0.710351      	((7.701428e-08 -3.618363e-05 -1.916697e-05) (-3.345124e-09 -6.456519e-05 -4.797996e-06)) ((5.105773e-09 -2.665868e-10 5.233974e-11) (-4.597793e-06 -9.700546e-10 -6.612719e-11))
0.864421      	((9.017254e-08 -3.238250e-05 -1.949878e-05) (-1.110820e-09 -5.786444e-05 -5.110577e-06)) ((4.934523e-09 -2.550953e-10 4.979749e-11) (-4.163128e-06 -1.088017e-09 -1.078655e-10))
1.049306      	((7.890015e-08 -3.000512e-05 -2.030147e-05) (1.477934e-10 -5.197714e-05 -5.408722e-06)) ((4.899109e-09 -2.780695e-10 4.531698e-11) (-3.784638e-06 -1.223309e-09 -1.834854e-10))
1.271167      	((8.286663e-08 -2.722288e-05 -2.095596e-05) (1.248262e-09 -4.679817e-05 -5.720135e-06)) ((4.720522e-09 -2.797290e-10 3.605619e-11) (-3.454840e-06 -1.358343e-09 -2.478990e-10))
1.5374        	((6.874553e-08 -2.541202e-05 -2.207512e-05) (6.167525e-10 -4.226823e-05 -6.044694e-06)) ((4.669480e-09 -3.038924e-10 3.611333e-11) (-3.169016e-06 -1.467413e-09 -2.874829e-10))
1.85688       	((8.446922e-08 -2.348391e-05 -2.328939e-05) (9.876265e-10 -3.833574e-05 -6.378600e-06)) ((4.581624e-09 -3.145606e-10 3.739482e-11) (-2.923245e-06 -1.583951e-09 -2.790705e-10))
2.240256      	((7.958380e-08 -2.229414e-05 -2.473215e-05) (3.028136e-09 -3.496032e-05 -6.722851e-06)) ((4.609416e-09 -3.354330e-10 3.895287e-11) (-2.714156e-06 -1.685374e-09 -2.097477e-10))
2.700307      	((8.416852e-08 -2.145978e-05 -2.616364e-05) (4.282565e-09 -3.208762e-05 -7.096821e-06)) ((4.633904e-09 -3.441617e-10 3.841135e-11) (-2.536960e-06 -1.780631e-09 -1.578703e-10))
3.252369      	((7.542325e-08 -2.110055e-05 -2.782183e-05) (5.346726e-09 -2.964090e-05 -7.507542e-06)) ((4.728768e-09 -3.593975e-10 3.858678e-11) (-2.386032e-06 -1.954252e-09 -1.325270e-10))
3.914842      	((7.171948e-08 -2.088741e-05 -2.956188e-05) (3.796423e-09 -2.753489e-05 -7.965791e-06)) ((4.823159e-09 -3.766777e-10 3.796923e-11) (-2.256490e-06 -2.143284e-09 -1.060575e-10))
4.709811      	((7.499505e-08 -2.104270e-05 -3.143667e-05) (4.241375e-09 -2.571371e-05 -8.449992e-06)) ((4.941509e-09 -3.949495e-10 3.842283e-11) (-2.144720e-06 -2.243875e-09 -4.499231e-11))
5.663773      	((7.771573e-08 -2.134673e-05 -3.335780e-05) (4.551908e-09 -2.413523e-05 -8.967799e-06)) ((5.045964e-09 -4.099136e-10 4.008166e-11) (-2.048381e-06 -2.289668e-09 3.686516e-11))
6.808528      	((8.740946e-08 -2.186662e-05 -3.533033e-05) (6.181887e-09 -2.278461e-05 -9.509637e-06)) ((5.153336e-09 -4.268787e-10 4.049450e-11) (-1.965672e-06 -2.278297e-09 1.075050e-10))
8.182233      	((9.438528e-08 -2.254424e-05 -3.729870e-05) (5.150161e-09 -2.165423e-05 -1.006899e-05)) ((5.255019e-09 -4.402996e-10 3.974996e-11) (-1.895018e-06 -2.219712e-09 1.533149e-10))
9.79501       	((9.709716e-08 -2.343455e-05 -3.926344e-05) (4.829983e-09 -2.074237e-05 -1.062485e-05)) ((5.360451e-09 -4.527892e-10 3.981627e-11) (-1.835956e-06 -2.190381e-09 1.881658e-10))
11.645562     	((9.658152e-08 -2.448951e-05 -4.113863e-05) (5.077833e-09 -2.004247e-05 -1.116528e-05)) ((5.456526e-09 -4.647382e-10 4.042055e-11) (-1.787674e-06 -2.170847e-09 2.143137e-10))
13.733086     	((9.951240e-08 -2.561810e-05 -4.282144e-05) (4.727745e-09 -1.954631e-05 -1.167851e-05)) ((5.552748e-09 -4.751792e-10 4.029311e-11) (-1.749072e-06 -2.148129e-09 2.472642e-10))
16.057068     	((1.034949e-07 -2.685887e-05 -4.423419e-05) (4.666198e-09 -1.923560e-05 -1.213334e-05)) ((5.649849e-09 -4.833024e-10 4.087467e-11) (-1.719206e-06 -2.114180e-09 2.930779e-10))
18.41856      	((1.106450e-07 -2.801052e-05 -4.538078e-05) (4.460170e-09 -1.907972e-05 -1.247854e-05)) ((5.745575e-09 -4.892687e-10 4.176559e-11) (-1.697933e-06 -2.085321e-09 3.090285e-10))
20.778692     	((1.154847e-07 -2.901618e-05 -4.616099e-05) (4.396336e-09 -1.902185e-05 -1.272551e-05)) ((5.829183e-09 -4.926067e-10 4.255364e-11) (-1.683238e-06 -2.059637e-09 3.008637e-10))
23.139481     	((1.233807e-07 -2.986646e-05 -4.675320e-05) (4.783043e-09 -1.902041e-05 -1.289071e-05)) ((5.899006e-09 -4.939096e-10 4.323919e-11) (-1.673601e-06 -2.062479e-09 2.902779e-10))
25.501889     	((1.294538e-07 -3.059477e-05 -4.722641e-05) (4.889889e-09 -1.904698e-05 -1.298726e-05)) ((5.958984e-09 -4.937622e-10 4.407153e-11) (-1.667708e-06 -2.077681e-09 2.682961e-10))
27.84241      	((1.371800e-07 -3.115901e-05 -4.759063e-05) (4.923420e-09 -1.908139e-05 -1.303017e-05)) ((6.010394e-09 -4.925246e-10 4.461837e-11) (-1.664609e-06 -2.101652e-09 2.398071e-10))
30.155988     	((1.455009e-07 -3.153255e-05 -4.782323e-05) (5.003910e-09 -1.911159e-05 -1.303858e-05)) ((6.048576e-09 -4.904713e-10 4.511179e-11) (-1.663294e-06 -2.140353e-09 2.155150e-10))
32.444898     	((1.610101e-07 -3.176088e-05 -4.799198e-05) (5.401353e-09 -1.913319e-05 -1.303027e-05)) ((6.074294e-09 -4.882619e-10 4.567768e-11) (-1.662967e-06 -2.196442e-09 2.118285e-10))
34.71455      	((1.793370e-07 -3.187362e-05 -4.811739e-05) (6.060663e-09 -1.914639e-05 -1.301553e-05)) ((6.089879e-09 -4.864367e-10 4.634402e-11) (-1.663053e-06 -2.277200e-09 2.356651e-10))
36.970688     	((2.012506e-07 -3.192398e-05 -4.823568e-05) (6.746539e-09 -1.915353e-05 -1.299664e-05)) ((6.095942e-09 -4.852061e-10 4.684534e-11) (-1.663388e-06 -2.374904e-09 2.886219e-10))
39.218201     	((2.224053e-07 -3.192823e-05 -4.833799e-05) (7.458517e-09 -1.915675e-05 -1.297476e-05)) ((6.094955e-09 -4.844977e-10 4.724645e-11) (-1.663881e-06 -2.468807e-09 3.724872e-10))
41.460891     	((2.378020e-07 -3.191752e-05 -4.842507e-05) (8.055645e-09 -1.915790e-05 -1.295078e-05)) ((6.091716e-09 -4.842303e-10 4.764250e-11) (-1.664469e-06 -2.539150e-09 4.731824e-10))
43.701291     	((2.463950e-07 -3.188487e-05 -4.848518e-05) (8.263585e-09 -1.915733e-05 -1.292502e-05)) ((6.088221e-09 -4.842520e-10 4.840187e-11) (-1.665147e-06 -2.558477e-09 5.725307e-10))
45.940907     	((2.585646e-07 -3.185117e-05 -4.853442e-05) (8.234432e-09 -1.915547e-05 -1.289991e-05)) ((6.086400e-09 -4.843954e-10 4.930878e-11) (-1.665766e-06 -2.542367e-09 6.531055e-10))
48.180223     	((2.650103e-07 -3.181819e-05 -4.856255e-05) (7.993697e-09 -1.915302e-05 -1.287682e-05)) ((6.085104e-09 -4.847662e-10 5.010961e-11) (-1.666283e-06 -2.495955e-09 7.030251e-10))
50.419435     	((2.709396e-07 -3.177883e-05 -4.858109e-05) (7.469834e-09 -1.915049e-05 -1.285691e-05)) ((6.079382e-09 -4.850128e-10 5.021541e-11) (-1.666657e-06 -2.428833e-09 7.025342e-10))
52.658351     	((2.781113e-07 -3.174036e-05 -4.859929e-05) (7.195493e-09 -1.914818e-05 -1.284309e-05)) ((6.075524e-09 -4.849519e-10 4.957915e-11) (-1.666771e-06 -2.368105e-09 6.606232e-10))
54.896771     	((2.792590e-07 -3.169902e-05 -4.859756e-05) (6.771209e-09 -1.914561e-05 -1.283402e-05)) ((6.074624e-09 -4.851597e-10 4.942450e-11) (-1.666674e-06 -2.327962e-09 5.805653e-10))
57.134664     	((2.776081e-07 -3.165065e-05 -4.858433e-05) (5.935956e-09 -1.914277e-05 -1.282766e-05)) ((6.072883e-09 -4.855526e-10 4.930608e-11) (-1.666450e-06 -2.295168e-09 4.856440e-10))
59.372139     	((2.746799e-07 -3.160664e-05 -4.855616e-05) (5.066188e-09 -1.913987e-05 -1.282202e-05)) ((6.070648e-09 -4.860309e-10 4.910774e-11) (-1.666206e-06 -2.272120e-09 3.912872e-10))
61.609383     	((2.732633e-07 -3.156389e-05 -4.852141e-05) (4.400605e-09 -1.913732e-05 -1.281555e-05)) ((6.066987e-09 -4.866416e-10 4.886200e-11) (-1.665993e-06 -2.251780e-09 3.059124e-10))
63.846587     	((2.842670e-07 -3.151807e-05 -4.849008e-05) (4.360579e-09 -1.913501e-05 -1.280872e-05)) ((6.063134e-09 -4.869406e-10 4.859852e-11) (-1.665799e-06 -2.250674e-09 2.355809e-10))
66.083908     	((2.948859e-07 -3.147422e-05 -4.847078e-05) (4.675327e-09 -1.913292e-05 -1.280190e-05)) ((6.059663e-09 -4.873107e-10 4.831084e-11) (-1.665611e-06 -2.268255e-09 1.818470e-10))
68.321405     	((3.049482e-07 -3.144139e-05 -4.846277e-05) (5.376756e-09 -1.913089e-05 -1.279551e-05)) ((6.056974e-09 -4.876355e-10 4.812274e-11) (-1.665441e-06 -2.307989e-09 1.433562e-10))
70.559021     	((3.065881e-07 -3.141394e-05 -4.847173e-05) (6.239334e-09 -1.912890e-05 -1.278978e-05)) ((6.054422e-09 -4.882335e-10 4.807617e-11) (-1.665293e-06 -2.354399e-09 1.172063e-10))
72.796596     	((2.996792e-07 -3.138919e-05 -4.848721e-05) (7.010421e-09 -1.912734e-05 -1.278438e-05)) ((6.052315e-09 -4.889289e-10 4.811603e-11) (-1.665164e-06 -2.387019e-09 9.938829e-11))
75.033928     	((2.869133e-07 -3.136864e-05 -4.851722e-05) (7.426845e-09 -1.912640e-05 -1.277924e-05)) ((6.050746e-09 -4.896733e-10 4.823023e-11) (-1.665069e-06 -2.397516e-09 8.453897e-11))
77.270832     	((2.699211e-07 -3.134371e-05 -4.853876e-05) (7.388954e-09 -1.912560e-05 -1.277452e-05)) ((6.049330e-09 -4.905036e-10 4.835196e-11) (-1.665005e-06 -2.381337e-09 6.639606e-11))
79.507214     	((2.499230e-07 -3.132164e-05 -4.856207e-05) (7.032114e-09 -1.912503e-05 -1.277002e-05)) ((6.048083e-09 -4.914470e-10 4.845939e-11) (-1.664966e-06 -2.342243e-09 3.729659e-11))
81.743108     	((2.321624e-07 -3.130650e-05 -4.859563e-05) (6.530264e-09 -1.912509e-05 -1.276572e-05)) ((6.047179e-09 -4.923391e-10 4.857309e-11) (-1.664952e-06 -2.290875e-09 -7.315698e-12))
83.97862      	((2.141583e-07 -3.129791e-05 -4.863144e-05) (5.997749e-09 -1.912604e-05 -1.276168e-05)) ((6.046516e-09 -4.931900e-10 4.868300e-11) (-1.664963e-06 -2.235952e-09 -6.576397e-11))
86.213875     	((1.918656e-07 -3.129098e-05 -4.866316e-05) (5.273972e-09 -1.912779e-05 -1.275794e-05)) ((6.046014e-09 -4.941508e-10 4.876891e-11) (-1.664996e-06 -2.174920e-09 -1.313671e-10))
88.448974     	((1.749177e-07 -3.128373e-05 -4.870831e-05) (4.418608e-09 -1.913007e-05 -1.275446e-05)) ((6.045515e-09 -4.950917e-10 4.885599e-11) (-1.665041e-06 -2.116374e-09 -1.960115e-10))
90.683963     	((1.614072e-07 -3.127817e-05 -4.875771e-05) (3.529349e-09 -1.913275e-05 -1.275111e-05)) ((6.044994e-09 -4.959475e-10 4.895852e-11) (-1.665094e-06 -2.068707e-09 -2.523040e-10))
92.918858     	((1.526975e-07 -3.127546e-05 -4.881030e-05) (2.740714e-09 -1.913578e-05 -1.274764e-05)) ((6.044528e-09 -4.966158e-10 4.906510e-11) (-1.665156e-06 -2.040003e-09 -2.949977e-10))
95.153656     	((1.454849e-07 -3.126883e-05 -4.886410e-05) (2.109677e-09 -1.913876e-05 -1.274450e-05)) ((6.044027e-09 -4.970812e-10 4.914633e-11) (-1.665214e-06 -2.032264e-09 -3.211911e-10))
