# Forces      
# CofR        : (0.000000e+00 0.000000e+00 0.000000e+00)
# Time        forces(pressure viscous)	moments(pressure viscous)
0             	((0.000000e+00 0.000000e+00 0.000000e+00) (0.000000e+00 0.000000e+00 0.000000e+00)) ((0.000000e+00 0.000000e+00 0.000000e+00) (0.000000e+00 0.000000e+00 0.000000e+00))
0.012         	((-8.930306e-07 3.257569e-11 -3.038957e-07) (-2.095452e-06 4.101216e-15 -1.921201e-10)) ((-1.377077e-14 1.352181e-10 -1.097598e-14) (-2.290713e-15 1.394451e-07 -9.160904e-16))
0.0264        	((-1.231583e-06 7.200186e-10 -3.978815e-07) (-1.919465e-06 2.189737e-13 -1.221425e-10)) ((-7.143563e-15 -6.949710e-11 -2.728844e-15) (-8.261389e-15 1.278711e-07 6.151861e-15))
0.04368       	((-8.197675e-07 -4.348348e-10 -2.723740e-07) (-1.737868e-06 -1.582462e-13 -1.580893e-11)) ((-1.583683e-14 -5.024005e-11 -8.103325e-15) (-2.136504e-14 1.159649e-07 2.312950e-14))
0.064416      	((-9.382820e-07 5.122824e-10 -3.041248e-07) (-1.554672e-06 -3.895651e-13 4.964951e-11)) ((-7.829328e-15 -9.673311e-11 1.540247e-15) (-4.106193e-14 1.039950e-07 2.758231e-14))
0.0892992     	((-6.869594e-07 -2.233374e-10 -2.280675e-07) (-1.375100e-06 -4.775210e-13 4.236956e-11)) ((-4.939061e-15 -6.902314e-11 -5.235701e-15) (-6.588756e-14 9.230446e-08 1.466522e-14))
0.119159      	((-7.089506e-07 2.526831e-10 -2.264489e-07) (-1.204905e-06 -1.663421e-13 -4.347296e-12)) ((-6.298915e-15 -8.380188e-11 -2.472648e-16) (-5.919515e-14 8.127647e-08 -4.184700e-15))
0.154991      	((-5.325312e-07 -1.279873e-10 -1.788021e-07) (-1.049437e-06 1.469086e-14 -4.027060e-11)) ((1.686262e-15 -5.856231e-11 -3.773672e-16) (-5.990552e-14 7.114427e-08 -3.465729e-14))
0.197989      	((-5.270442e-07 9.445818e-11 -1.669026e-07) (-9.118669e-07 1.100041e-13 -8.569138e-11)) ((3.214123e-15 -6.593592e-11 4.680792e-16) (-5.700211e-14 6.216996e-08 -6.005101e-14))
0.249587      	((-4.085548e-07 -5.094412e-11 -1.372863e-07) (-7.945671e-07 2.643125e-13 -1.424599e-10)) ((1.895183e-15 -4.718160e-11 -2.560627e-16) (-4.620359e-14 5.446082e-08 -7.251441e-14))
0.311504      	((-3.973516e-07 1.520697e-11 -1.252664e-07) (-6.970148e-07 2.820296e-13 -1.917706e-10)) ((5.655315e-15 -5.204083e-11 -6.520964e-16) (-5.292850e-14 4.802070e-08 -7.276615e-14))
0.385805      	((-3.199599e-07 -9.516974e-12 -1.073770e-07) (-6.163662e-07 1.892250e-13 -2.360891e-10)) ((1.142906e-15 -3.878124e-11 -8.269613e-16) (-5.140992e-14 4.269039e-08 -7.242568e-14))
0.474966      	((-3.104230e-07 1.246677e-11 -9.805800e-08) (-5.495996e-07 2.113501e-13 -2.710030e-10)) ((5.586904e-15 -4.213638e-11 -5.206660e-16) (-4.475215e-14 3.828421e-08 -8.990248e-14))
0.581959      	((-2.584633e-07 1.607499e-12 -8.659544e-08) (-4.933546e-07 2.863065e-13 -3.068047e-10)) ((9.037475e-16 -3.255232e-11 5.810091e-16) (2.990231e-15 3.456941e-08 -7.025803e-14))
0.710351      	((-2.504272e-07 -6.601584e-12 -7.924601e-08) (-4.450223e-07 -4.058823e-14 -3.098634e-10)) ((7.612190e-15 -3.505685e-11 8.531485e-16) (2.110027e-14 3.138794e-08 -1.463223e-15))
0.864421      	((-2.133325e-07 1.467841e-11 -7.139524e-08) (-4.025287e-07 -2.457860e-13 -3.383933e-10)) ((4.041513e-15 -2.832166e-11 1.090771e-15) (1.201220e-14 2.859347e-08 6.292246e-15))
1.049306      	((-2.050691e-07 3.706314e-12 -6.518437e-08) (-3.646936e-07 -2.306919e-13 -3.425941e-10)) ((8.910372e-15 -3.024517e-11 8.503130e-16) (-8.464462e-14 2.611687e-08 -4.319689e-14))
1.271167      	((-1.764565e-07 1.612015e-11 -5.899415e-08) (-3.305609e-07 2.535735e-13 -3.738744e-10)) ((6.603590e-15 -2.558976e-11 3.621050e-15) (-1.746255e-13 2.388520e-08 -9.965407e-14))
1.5374        	((-1.674941e-07 1.592169e-11 -5.381803e-08) (-2.997482e-07 3.922376e-13 -3.640786e-10)) ((1.158522e-14 -2.660441e-11 5.545481e-15) (-2.551858e-13 2.187263e-08 -1.342739e-13))
1.85688       	((-1.452379e-07 1.747848e-11 -4.878144e-08) (-2.719207e-07 1.061631e-12 -4.013415e-10)) ((1.196596e-14 -2.314648e-11 5.211113e-15) (-3.337340e-13 2.005871e-08 -1.416672e-13))
2.240256      	((-1.359768e-07 8.949146e-12 -4.453961e-08) (-2.469415e-07 1.053621e-12 -3.948463e-10)) ((1.429971e-14 -2.345784e-11 4.728623e-15) (-4.974366e-13 1.842904e-08 -1.289357e-13))
2.700307      	((-1.193461e-07 1.073737e-11 -4.065669e-08) (-2.248407e-07 5.837237e-13 -3.996420e-10)) ((1.306561e-14 -2.102742e-11 5.064236e-15) (-7.572293e-13 1.698912e-08 -1.162707e-14))
3.252369      	((-1.109941e-07 2.334931e-11 -3.726948e-08) (-2.053356e-07 3.138300e-13 -4.213776e-10)) ((1.427246e-14 -2.105809e-11 4.991567e-15) (-1.042653e-12 1.571723e-08 3.311171e-13))
3.914842      	((-9.912752e-08 -3.939662e-12 -3.418511e-08) (-1.881966e-07 -8.369036e-13 -4.057031e-10)) ((1.179225e-14 -1.967855e-11 6.263786e-15) (-1.316487e-12 1.460268e-08 7.598274e-13))
4.709811      	((-9.172621e-08 -5.253383e-13 -3.159449e-08) (-1.731155e-07 -5.961401e-13 -4.080411e-10)) ((9.991543e-15 -1.947967e-11 8.190603e-15) (-1.431152e-12 1.362408e-08 1.116621e-12))
5.663773      	((-8.293898e-08 -2.450649e-12 -2.925762e-08) (-1.597230e-07 6.058142e-13 -4.443236e-10)) ((6.731463e-15 -1.859153e-11 9.770531e-15) (-1.361106e-12 1.275749e-08 1.312389e-12))
6.808528      	((-7.652328e-08 2.137232e-11 -2.714333e-08) (-1.477073e-07 1.851796e-12 -4.991734e-10)) ((9.935864e-15 -1.814067e-11 1.023025e-14) (-1.269347e-12 1.198255e-08 1.329754e-12))
8.182233      	((-6.966148e-08 2.329993e-11 -2.534088e-08) (-1.368041e-07 3.848408e-12 -5.576936e-10)) ((7.752384e-15 -1.755128e-11 9.312901e-15) (-1.240952e-12 1.128297e-08 1.282199e-12))
9.83068       	((-6.402181e-08 2.609709e-11 -2.363340e-08) (-1.268334e-07 4.936959e-12 -6.132068e-10)) ((8.602171e-15 -1.711068e-11 8.446589e-15) (-1.181183e-12 1.064696e-08 1.180484e-12))
11.808816     	((-5.849462e-08 1.724646e-11 -2.220548e-08) (-1.176829e-07 5.524692e-12 -6.640050e-10)) ((5.170437e-15 -1.667029e-11 7.654085e-15) (-1.061658e-12 1.006744e-08 1.030101e-12))
14.182579     	((-5.377864e-08 1.816444e-11 -2.088182e-08) (-1.092740e-07 6.627688e-12 -7.194231e-10)) ((5.120628e-15 -1.627372e-11 6.811018e-15) (-8.817100e-13 9.537908e-09 8.607288e-13))
17.031095     	((-4.926517e-08 1.614796e-11 -1.968155e-08) (-1.015405e-07 7.750767e-12 -7.563227e-10)) ((3.977953e-15 -1.593706e-11 5.906524e-15) (-7.090255e-13 9.054699e-09 6.784930e-13))
20.449314     	((-4.527296e-08 1.914297e-11 -1.857314e-08) (-9.443954e-08 8.484439e-12 -7.845680e-10)) ((4.049744e-15 -1.561483e-11 4.711111e-15) (-5.580139e-13 8.614379e-09 4.381877e-13))
24.551176     	((-4.148018e-08 1.178111e-11 -1.757462e-08) (-8.793605e-08 9.106202e-12 -7.855755e-10)) ((3.374581e-15 -1.536407e-11 3.379870e-15) (-4.112751e-13 8.213877e-09 2.127178e-13))
29.473411     	((-3.809416e-08 1.017975e-11 -1.669911e-08) (-8.199285e-08 9.148044e-12 -7.764797e-10)) ((3.666410e-15 -1.513887e-11 2.853226e-15) (-3.124461e-13 7.850277e-09 3.669906e-14))
35.380094     	((-3.497447e-08 6.460136e-12 -1.597474e-08) (-7.657244e-08 8.791763e-12 -7.677140e-10)) ((3.786238e-15 -1.495532e-11 2.396551e-15) (-2.913493e-13 7.520401e-09 -9.537373e-14))
42.468112     	((-3.217717e-08 6.525348e-12 -1.535359e-08) (-7.162462e-08 8.244600e-12 -7.619039e-10)) ((3.857129e-15 -1.478546e-11 2.186473e-15) (-3.107965e-13 7.220755e-09 -1.637818e-13))
50.973735     	((-2.955955e-08 6.992789e-12 -1.484212e-08) (-6.710778e-08 7.355015e-12 -7.604115e-10)) ((3.956390e-15 -1.464574e-11 1.939085e-15) (-3.100591e-13 6.948771e-09 -1.836473e-13))
61.180482     	((-2.721435e-08 7.736948e-12 -1.437339e-08) (-6.298906e-08 6.910962e-12 -7.656175e-10)) ((4.038291e-15 -1.451683e-11 1.549419e-15) (-3.260452e-13 6.702252e-09 -2.120350e-13))
73.428578     	((-2.508236e-08 8.149506e-12 -1.403745e-08) (-5.923617e-08 5.942615e-12 -7.699966e-10)) ((3.721703e-15 -1.441059e-11 1.278000e-15) (-3.419252e-13 6.479327e-09 -2.152814e-13))
88.126294     	((-2.319710e-08 7.704416e-12 -1.373758e-08) (-5.582495e-08 5.415702e-12 -7.731247e-10)) ((3.215809e-15 -1.431707e-11 1.343358e-15) (-3.458785e-13 6.278257e-09 -1.864501e-13))
105.763553    	((-2.151130e-08 3.640749e-12 -1.347971e-08) (-5.273065e-08 4.925691e-12 -7.816999e-10)) ((3.323301e-15 -1.424169e-11 1.490453e-15) (-3.641583e-13 6.097420e-09 -1.511091e-13))
126.928263    	((-2.001456e-08 6.136453e-13 -1.324393e-08) (-4.993069e-08 4.294729e-12 -7.975406e-10)) ((2.995325e-15 -1.417879e-11 1.676070e-15) (-3.790288e-13 5.935508e-09 -9.861150e-14))
152.325916    	((-1.870502e-08 -1.299922e-12 -1.301387e-08) (-4.740411e-08 3.658884e-12 -8.237690e-10)) ((2.560009e-15 -1.412890e-11 1.919726e-15) (-3.984799e-13 5.791046e-09 -4.991972e-14))
182.803099    	((-1.757022e-08 -1.416267e-12 -1.283143e-08) (-4.512969e-08 3.208084e-12 -8.601020e-10)) ((2.494512e-15 -1.408843e-11 1.883617e-15) (-4.077212e-13 5.662483e-09 -1.511636e-14))
219.375719    	((-1.657897e-08 -1.325179e-12 -1.272403e-08) (-4.308734e-08 3.032529e-12 -9.055859e-10)) ((2.539816e-15 -1.405762e-11 1.874064e-15) (-4.109360e-13 5.548307e-09 1.862087e-15))
263.262863    	((-1.573134e-08 -1.758516e-12 -1.267957e-08) (-4.125571e-08 3.043486e-12 -9.609024e-10)) ((2.480706e-15 -1.403044e-11 1.817670e-15) (-4.050285e-13 5.447040e-09 1.447510e-15))
315.927436    	((-1.500325e-08 -2.154988e-12 -1.266433e-08) (-3.961915e-08 3.055497e-12 -1.028680e-09)) ((2.534291e-15 -1.401060e-11 1.776092e-15) (-3.941771e-13 5.357640e-09 -1.425393e-14))
379.124923    	((-1.438711e-08 -1.890750e-12 -1.269485e-08) (-3.816580e-08 3.136112e-12 -1.110035e-09)) ((2.543554e-15 -1.399537e-11 1.795860e-15) (-3.792437e-13 5.279140e-09 -4.370606e-14))
454.961908    	((-1.388114e-08 -2.572876e-12 -1.275364e-08) (-3.688558e-08 3.132100e-12 -1.205725e-09)) ((2.613032e-15 -1.398311e-11 1.719810e-15) (-3.586962e-13 5.210779e-09 -6.813854e-14))
545.966289    	((-1.347423e-08 -2.935525e-12 -1.283584e-08) (-3.577084e-08 3.066809e-12 -1.313690e-09)) ((2.645010e-15 -1.397298e-11 1.678988e-15) (-3.357446e-13 5.151901e-09 -9.210430e-14))
655.171547    	((-1.315485e-08 -3.685641e-12 -1.293775e-08) (-3.481376e-08 2.894319e-12 -1.433136e-09)) ((2.693135e-15 -1.396590e-11 1.650403e-15) (-3.135365e-13 5.101817e-09 -1.120432e-13))
786.217856    	((-1.291416e-08 -3.450703e-12 -1.305327e-08) (-3.400594e-08 2.718789e-12 -1.561074e-09)) ((2.743986e-15 -1.396144e-11 1.675610e-15) (-2.957996e-13 5.059816e-09 -1.289715e-13))
943.473427    	((-1.273629e-08 -3.515643e-12 -1.317244e-08) (-3.333784e-08 2.611340e-12 -1.693439e-09)) ((2.755981e-15 -1.395816e-11 1.649399e-15) (-2.803747e-13 5.025158e-09 -1.420720e-13))
1128.284784   	((-1.260845e-08 -3.628895e-12 -1.328658e-08) (-3.279934e-08 2.502572e-12 -1.825304e-09)) ((2.764656e-15 -1.395567e-11 1.559056e-15) (-2.708697e-13 4.997139e-09 -1.583054e-13))
1340.650301   	((-1.252059e-08 -3.678950e-12 -1.338869e-08) (-3.237696e-08 2.328101e-12 -1.951330e-09)) ((2.720368e-15 -1.395386e-11 1.468557e-15) (-2.663637e-13 4.974969e-09 -1.775027e-13))
1580.568845   	((-1.246304e-08 -3.598814e-12 -1.347551e-08) (-3.205518e-08 2.144546e-12 -2.066429e-09)) ((2.709578e-15 -1.395253e-11 1.432258e-15) (-2.631970e-13 4.957809e-09 -1.969431e-13))
1848.039689   	((-1.242618e-08 -3.542280e-12 -1.354489e-08) (-3.181677e-08 2.028252e-12 -2.166536e-09)) ((2.704780e-15 -1.395152e-11 1.389449e-15) (-2.613919e-13 4.944803e-09 -2.148664e-13))
2123.55815    	((-1.240329e-08 -3.671657e-12 -1.359764e-08) (-3.164554e-08 1.937676e-12 -2.249187e-09)) ((2.718004e-15 -1.395143e-11 1.370403e-15) (-2.614795e-13 4.935207e-09 -2.322797e-13))
2399.074274   	((-1.238746e-08 -3.608373e-12 -1.363609e-08) (-3.152505e-08 1.844297e-12 -2.314639e-09)) ((2.745724e-15 -1.395165e-11 1.371408e-15) (-2.637868e-13 4.928249e-09 -2.465406e-13))
2674.589786   	((-1.237611e-08 -3.532176e-12 -1.366364e-08) (-3.144148e-08 1.755550e-12 -2.364734e-09)) ((2.760506e-15 -1.395180e-11 1.364906e-15) (-2.670822e-13 4.923271e-09 -2.571140e-13))
2950.105885   	((-1.236683e-08 -3.423443e-12 -1.368330e-08) (-3.138359e-08 1.680378e-12 -2.402266e-09)) ((2.772452e-15 -1.395184e-11 1.360843e-15) (-2.704796e-13 4.919723e-09 -2.648446e-13))
3225.62318    	((-1.235907e-08 -3.335298e-12 -1.369746e-08) (-3.134326e-08 1.617523e-12 -2.430014e-09)) ((2.777159e-15 -1.395182e-11 1.357169e-15) (-2.734011e-13 4.917195e-09 -2.704075e-13))
3501.141929   	((-1.235219e-08 -3.253475e-12 -1.370770e-08) (-3.131466e-08 1.563056e-12 -2.450487e-09)) ((2.770280e-15 -1.395178e-11 1.355020e-15) (-2.759478e-13 4.915378e-09 -2.743111e-13))
3776.662228   	((-1.234616e-08 -3.188863e-12 -1.371531e-08) (-3.129390e-08 1.519141e-12 -2.465674e-09)) ((2.766397e-15 -1.395174e-11 1.352919e-15) (-2.782485e-13 4.914058e-09 -2.770003e-13))
4052.184101   	((-1.234095e-08 -3.136708e-12 -1.372109e-08) (-3.127842e-08 1.482780e-12 -2.477127e-09)) ((2.761611e-15 -1.395170e-11 1.351079e-15) (-2.802856e-13 4.913082e-09 -2.787224e-13))
4327.707451   	((-1.233653e-08 -3.106715e-12 -1.372556e-08) (-3.126657e-08 1.454294e-12 -2.485919e-09)) ((2.757301e-15 -1.395167e-11 1.349781e-15) (-2.819660e-13 4.912350e-09 -2.797176e-13))
4603.232107   	((-1.233279e-08 -3.097989e-12 -1.372913e-08) (-3.125726e-08 1.431376e-12 -2.492803e-09)) ((2.751925e-15 -1.395165e-11 1.347994e-15) (-2.832574e-13 4.911790e-09 -2.802432e-13))
4878.757875   	((-1.232965e-08 -3.087600e-12 -1.373205e-08) (-3.124982e-08 1.410347e-12 -2.498302e-09)) ((2.745614e-15 -1.395164e-11 1.345977e-15) (-2.843731e-13 4.911355e-09 -2.805353e-13))
5154.284565   	((-1.232701e-08 -3.082994e-12 -1.373451e-08) (-3.124378e-08 1.391754e-12 -2.502791e-09)) ((2.741193e-15 -1.395163e-11 1.343472e-15) (-2.852347e-13 4.911013e-09 -2.807858e-13))
5429.812014   	((-1.232482e-08 -3.089027e-12 -1.373656e-08) (-3.123884e-08 1.375343e-12 -2.506506e-09)) ((2.737987e-15 -1.395163e-11 1.342601e-15) (-2.859150e-13 4.910741e-09 -2.808904e-13))
5705.340084   	((-1.232297e-08 -3.088545e-12 -1.373827e-08) (-3.123477e-08 1.361040e-12 -2.509615e-09)) ((2.734798e-15 -1.395164e-11 1.342271e-15) (-2.865584e-13 4.910523e-09 -2.809362e-13))
5980.86866    	((-1.232143e-08 -3.085218e-12 -1.373971e-08) (-3.123139e-08 1.347132e-12 -2.512239e-09)) ((2.731902e-15 -1.395164e-11 1.341104e-15) (-2.871096e-13 4.910346e-09 -2.810470e-13))
6256.397648   	((-1.232013e-08 -3.064737e-12 -1.374094e-08) (-3.122858e-08 1.334651e-12 -2.514469e-09)) ((2.729121e-15 -1.395164e-11 1.340359e-15) (-2.875995e-13 4.910203e-09 -2.811271e-13))
6531.926972   	((-1.231904e-08 -3.045430e-12 -1.374202e-08) (-3.122623e-08 1.324181e-12 -2.516371e-09)) ((2.726582e-15 -1.395165e-11 1.339686e-15) (-2.880785e-13 4.910086e-09 -2.811339e-13))
6807.456569   	((-1.231812e-08 -3.036803e-12 -1.374291e-08) (-3.122428e-08 1.315376e-12 -2.518000e-09)) ((2.724416e-15 -1.395165e-11 1.339241e-15) (-2.885139e-13 4.909990e-09 -2.811157e-13))
7082.986389   	((-1.231735e-08 -3.040373e-12 -1.374365e-08) (-3.122264e-08 1.306450e-12 -2.519396e-09)) ((2.723555e-15 -1.395165e-11 1.340247e-15) (-2.889299e-13 4.909911e-09 -2.810846e-13))
7358.516391   	((-1.231669e-08 -3.041755e-12 -1.374428e-08) (-3.122126e-08 1.299840e-12 -2.520597e-09)) ((2.722187e-15 -1.395165e-11 1.339812e-15) (-2.892937e-13 4.909847e-09 -2.810372e-13))
7634.046544   	((-1.231614e-08 -3.042053e-12 -1.374482e-08) (-3.122011e-08 1.294292e-12 -2.521631e-09)) ((2.720681e-15 -1.395166e-11 1.339366e-15) (-2.896407e-13 4.909793e-09 -2.809917e-13))
7909.57682    	((-1.231567e-08 -3.043069e-12 -1.374529e-08) (-3.121914e-08 1.289669e-12 -2.522522e-09)) ((2.719819e-15 -1.395166e-11 1.338805e-15) (-2.899391e-13 4.909749e-09 -2.809498e-13))
8185.1072     	((-1.231527e-08 -3.018061e-12 -1.374570e-08) (-3.121832e-08 1.284857e-12 -2.523290e-09)) ((2.718352e-15 -1.395166e-11 1.338193e-15) (-2.902125e-13 4.909712e-09 -2.809195e-13))
8460.637665   	((-1.231493e-08 -3.007470e-12 -1.374606e-08) (-3.121762e-08 1.280865e-12 -2.523954e-09)) ((2.717321e-15 -1.395166e-11 1.337826e-15) (-2.904363e-13 4.909682e-09 -2.808957e-13))
8736.168201   	((-1.231464e-08 -3.009019e-12 -1.374635e-08) (-3.121704e-08 1.277466e-12 -2.524526e-09)) ((2.716539e-15 -1.395166e-11 1.337505e-15) (-2.906178e-13 4.909656e-09 -2.808753e-13))
9011.698797   	((-1.231440e-08 -3.011019e-12 -1.374662e-08) (-3.121654e-08 1.274499e-12 -2.525020e-09)) ((2.716293e-15 -1.395166e-11 1.337207e-15) (-2.907750e-13 4.909635e-09 -2.808589e-13))
9287.229443   	((-1.231419e-08 -3.013767e-12 -1.374684e-08) (-3.121612e-08 1.271931e-12 -2.525446e-09)) ((2.715808e-15 -1.395166e-11 1.336872e-15) (-2.909057e-13 4.909617e-09 -2.808509e-13))
9562.760131   	((-1.231401e-08 -3.015084e-12 -1.374704e-08) (-3.121576e-08 1.269500e-12 -2.525815e-09)) ((2.715217e-15 -1.395166e-11 1.336794e-15) (-2.910216e-13 4.909602e-09 -2.808480e-13))
9838.290854   	((-1.231386e-08 -3.017321e-12 -1.374720e-08) (-3.121546e-08 1.267510e-12 -2.526133e-09)) ((2.714905e-15 -1.395166e-11 1.336633e-15) (-2.911071e-13 4.909590e-09 -2.808526e-13))
10113.821607  	((-1.231372e-08 -3.018897e-12 -1.374735e-08) (-3.121520e-08 1.265810e-12 -2.526409e-09)) ((2.714598e-15 -1.395166e-11 1.336472e-15) (-2.911811e-13 4.909579e-09 -2.808548e-13))
10389.352385  	((-1.231361e-08 -3.020481e-12 -1.374747e-08) (-3.121498e-08 1.264358e-12 -2.526647e-09)) ((2.714336e-15 -1.395166e-11 1.336328e-15) (-2.912452e-13 4.909571e-09 -2.808582e-13))
10664.883185  	((-1.231351e-08 -3.021674e-12 -1.374758e-08) (-3.121479e-08 1.263079e-12 -2.526853e-09)) ((2.714108e-15 -1.395166e-11 1.336203e-15) (-2.913004e-13 4.909563e-09 -2.808625e-13))
10940.414003  	((-1.231343e-08 -3.022524e-12 -1.374767e-08) (-3.121463e-08 1.261960e-12 -2.527032e-09)) ((2.713908e-15 -1.395166e-11 1.336096e-15) (-2.913483e-13 4.909557e-09 -2.808671e-13))
11215.944836  	((-1.231336e-08 -3.023108e-12 -1.374775e-08) (-3.121449e-08 1.260985e-12 -2.527186e-09)) ((2.713735e-15 -1.395166e-11 1.336005e-15) (-2.913898e-13 4.909552e-09 -2.808715e-13))
11491.475682  	((-1.231330e-08 -3.023493e-12 -1.374782e-08) (-3.121437e-08 1.260150e-12 -2.527319e-09)) ((2.713588e-15 -1.395166e-11 1.335928e-15) (-2.914254e-13 4.909547e-09 -2.808755e-13))
11767.006539  	((-1.231325e-08 -3.023741e-12 -1.374788e-08) (-3.121427e-08 1.259412e-12 -2.527435e-09)) ((2.713458e-15 -1.395166e-11 1.335862e-15) (-2.914567e-13 4.909543e-09 -2.808794e-13))
12042.537406  	((-1.231320e-08 -3.024093e-12 -1.374793e-08) (-3.121418e-08 1.258785e-12 -2.527535e-09)) ((2.713292e-15 -1.395166e-11 1.335789e-15) (-2.914785e-13 4.909540e-09 -2.808817e-13))
