# Forces      
# CofR        : (0.000000e+00 0.000000e+00 0.000000e+00)
# Time        forces(pressure viscous)	moments(pressure viscous)
0             	((0.000000e+00 0.000000e+00 0.000000e+00) (0.000000e+00 0.000000e+00 0.000000e+00)) ((0.000000e+00 0.000000e+00 0.000000e+00) (0.000000e+00 0.000000e+00 0.000000e+00))
0.012         	((-4.565554e-11 3.626784e-06 5.872816e-07) (-1.193674e-12 8.342342e-06 -3.715563e-11)) ((5.305164e-10 1.905492e-12 -4.860589e-12) (5.551460e-07 4.439750e-14 8.944957e-13))
0.0264        	((-2.038301e-09 4.874535e-06 1.243717e-06) (-4.771458e-12 7.641719e-06 -1.190093e-10)) ((-2.395375e-10 4.140468e-12 -2.161203e-12) (5.090746e-07 9.538609e-14 9.122747e-13))
0.04368       	((1.685584e-09 3.296074e-06 6.741479e-07) (-6.873013e-12 6.918948e-06 -2.758362e-10)) ((-1.771821e-10 2.126026e-12 -2.436197e-12) (4.616879e-07 1.170432e-14 1.742276e-12))
0.064416      	((-1.852400e-09 3.726367e-06 8.717673e-07) (-9.651765e-12 6.190227e-06 -5.232026e-10)) ((-3.510029e-10 2.797846e-12 -1.544910e-12) (4.140761e-07 -2.019776e-13 7.629742e-13))
0.0892992     	((1.053248e-09 2.751051e-06 5.804560e-07) (-1.030541e-11 5.476604e-06 -8.559976e-10)) ((-2.498174e-10 1.796011e-12 -1.018450e-12) (3.676137e-07 -3.628870e-13 -1.906228e-12))
0.119159      	((-6.104614e-10 2.820712e-06 6.293724e-07) (-1.120288e-11 4.801028e-06 -1.253079e-09)) ((-3.059527e-10 1.973003e-12 -5.364361e-13) (3.238360e-07 -3.041309e-13 -3.106278e-12))
0.154991      	((5.577384e-10 2.126814e-06 4.484157e-07) (-1.507961e-11 4.184667e-06 -1.738760e-09)) ((-2.133649e-10 1.342872e-12 -2.365187e-13) (2.836866e-07 -2.525114e-13 -3.636278e-12))
0.197989      	((-8.302717e-11 2.100556e-06 4.504417e-07) (-1.750566e-11 3.639547e-06 -2.320278e-09)) ((-2.415940e-10 1.390795e-12 -3.645173e-13) (2.481462e-07 -1.347080e-13 -3.988973e-12))
0.249587      	((2.908236e-10 1.634364e-06 3.484521e-07) (-2.262842e-11 3.174254e-06 -2.959156e-09)) ((-1.732712e-10 9.905775e-13 -3.196226e-13) (2.175905e-07 -1.367721e-13 -3.866117e-12))
0.311504      	((1.236817e-10 1.586986e-06 3.357116e-07) (-1.679957e-11 2.786720e-06 -3.557895e-09)) ((-1.916045e-10 9.997755e-13 -5.537696e-13) (1.920149e-07 -3.446645e-13 -3.286910e-12))
0.385805      	((1.148639e-10 1.281006e-06 2.775845e-07) (-1.503782e-11 2.465505e-06 -4.159668e-09)) ((-1.432720e-10 7.674968e-13 -3.756027e-13) (1.707888e-07 -6.034643e-13 -2.114484e-12))
0.474966      	((1.188662e-10 1.240344e-06 2.594244e-07) (-1.427763e-11 2.198617e-06 -4.535840e-09)) ((-1.561206e-10 7.210833e-13 -4.784490e-13) (1.531733e-07 -7.289485e-13 -1.056553e-12))
0.581959      	((4.715106e-11 1.034338e-06 2.221554e-07) (-1.530479e-11 1.973074e-06 -4.954270e-09)) ((-1.211455e-10 5.854511e-13 -3.286924e-13) (1.382751e-07 -4.945755e-13 -7.505607e-13))
0.710351      	((1.198534e-10 9.992493e-07 2.025017e-07) (-1.388872e-11 1.778932e-06 -5.090230e-09)) ((-1.307278e-10 5.416938e-13 -4.649568e-13) (1.254893e-07 -8.468529e-13 -3.209017e-13))
0.864421      	((-3.342080e-11 8.528999e-07 1.778883e-07) (-1.134430e-11 1.608282e-06 -5.401601e-09)) ((-1.065694e-10 4.471962e-13 -3.184893e-13) (1.142653e-07 -1.068646e-12 -7.246913e-13))
1.049306      	((1.829934e-10 8.160840e-07 1.601661e-07) (-3.086533e-11 1.456466e-06 -5.348041e-09)) ((-1.135214e-10 4.088456e-13 -2.558505e-13) (1.043129e-07 -1.440528e-12 -1.504335e-12))
1.271167      	((2.071674e-11 7.040525e-07 1.414450e-07) (-3.263672e-11 1.319829e-06 -5.742952e-09)) ((-9.714293e-11 3.438067e-13 1.585860e-14) (9.537058e-08 -1.797602e-12 -1.757174e-12))
1.5374        	((1.230833e-10 6.640789e-07 1.243307e-07) (-8.106593e-12 1.196404e-06 -5.600924e-09)) ((-1.003386e-10 3.210629e-13 5.468038e-14) (8.730185e-08 -2.464190e-12 -2.030716e-12))
1.85688       	((1.005764e-10 5.788152e-07 1.099922e-07) (-2.232269e-11 1.085182e-06 -5.945110e-09)) ((-8.908362e-11 3.377442e-13 1.604033e-13) (8.005163e-08 -3.363441e-12 -2.309908e-12))
2.240256      	((7.874119e-11 5.378670e-07 9.661097e-08) (-2.392460e-11 9.855871e-07 -6.373422e-09)) ((-8.906620e-11 2.266592e-13 1.397163e-13) (7.356054e-08 -3.137702e-12 -2.471710e-12))
2.700307      	((6.860698e-11 4.748942e-07 8.639613e-08) (-2.258977e-11 8.974581e-07 -6.293248e-09)) ((-8.159436e-11 3.296405e-13 1.918815e-13) (6.781669e-08 -3.469142e-12 -2.842176e-12))
3.252369      	((-9.384735e-11 4.390000e-07 7.690795e-08) (-2.687801e-11 8.198356e-07 -6.357929e-09)) ((-8.027818e-11 8.848999e-14 1.694562e-13) (6.275827e-08 -4.759436e-12 -2.650170e-12))
3.914842      	((8.770941e-11 3.940445e-07 6.895922e-08) (-2.221781e-12 7.517409e-07 -6.529972e-09)) ((-7.597301e-11 2.208928e-13 1.678079e-13) (5.833656e-08 -5.449230e-12 -7.765553e-13))
4.709811      	((4.042660e-11 3.644104e-07 6.064756e-08) (-3.081257e-12 6.917453e-07 -6.906597e-09)) ((-7.394916e-11 -8.795723e-14 1.524385e-13) (5.445610e-08 -5.080320e-12 7.065976e-13))
5.663773      	((9.921214e-11 3.300050e-07 5.202122e-08) (-2.381369e-11 6.383901e-07 -7.499008e-09)) ((-7.096605e-11 -3.407323e-14 1.653841e-13) (5.102251e-08 -4.061501e-12 1.135689e-12))
6.808528      	((-9.942291e-12 3.046088e-07 4.321718e-08) (-2.433501e-11 5.905208e-07 -8.129988e-09)) ((-6.908943e-11 -2.351126e-13 1.986853e-13) (4.794976e-08 -2.717009e-12 1.391097e-12))
8.182233      	((1.232872e-10 2.781786e-07 3.408504e-08) (-1.493461e-11 5.471009e-07 -8.764490e-09)) ((-6.703709e-11 -2.161096e-13 2.067641e-13) (4.517603e-08 -2.026251e-12 1.320377e-12))
9.83068       	((8.918300e-11 2.563223e-07 2.541015e-08) (-6.526576e-12 5.074185e-07 -9.332522e-09)) ((-6.559525e-11 -3.114962e-13 2.174045e-13) (4.265540e-08 -8.010128e-13 1.273454e-12))
11.808816     	((1.709706e-10 2.348397e-07 1.708008e-08) (3.924464e-12 4.710130e-07 -9.828978e-09)) ((-6.409886e-11 -3.163982e-13 2.094126e-13) (4.035282e-08 1.888212e-13 1.023781e-12))
14.182579     	((1.396070e-10 2.163199e-07 9.329096e-09) (2.355681e-11 4.374778e-07 -1.023195e-08)) ((-6.291716e-11 -3.946253e-13 2.003673e-13) (3.824309e-08 2.571350e-15 7.843269e-13))
17.031095     	((1.767138e-10 1.984061e-07 2.764748e-09) (3.427304e-11 4.065387e-07 -1.050968e-08)) ((-6.181179e-11 -3.978175e-13 1.971085e-13) (3.630998e-08 3.584686e-13 2.896978e-13))
20.449314     	((1.375219e-10 1.826248e-07 -3.309836e-09) (3.758877e-11 3.781017e-07 -1.069722e-08)) ((-6.088837e-11 -4.457561e-13 1.999684e-13) (3.454552e-08 1.019950e-12 -2.749263e-13))
24.551176     	((1.239850e-10 1.675774e-07 -8.653937e-09) (3.453276e-11 3.520567e-07 -1.086225e-08)) ((-6.010701e-11 -4.818677e-13 1.994833e-13) (3.294270e-08 1.334928e-12 -7.001278e-14))
29.473411     	((7.698700e-11 1.546164e-07 -1.413764e-08) (2.887629e-11 3.283253e-07 -1.100083e-08)) ((-5.947143e-11 -5.249738e-13 2.037605e-13) (3.149307e-08 1.373396e-12 2.713298e-13))
35.380094     	((7.112847e-11 1.425817e-07 -1.978359e-08) (2.942656e-11 3.067340e-07 -1.113353e-08)) ((-5.896113e-11 -5.603032e-13 2.074743e-13) (3.018567e-08 1.402470e-12 4.968382e-13))
42.468112     	((5.926218e-11 1.321627e-07 -2.556194e-08) (3.268729e-11 2.871155e-07 -1.131981e-08)) ((-5.853641e-11 -5.983675e-13 2.085014e-13) (2.900800e-08 1.537220e-12 8.357921e-13))
50.973735     	((7.430865e-11 1.228435e-07 -3.115649e-08) (3.283245e-11 2.693017e-07 -1.159686e-08)) ((-5.820365e-11 -6.299762e-13 2.103363e-13) (2.794931e-08 1.443495e-12 1.185953e-12))
61.180482     	((6.925875e-11 1.148384e-07 -3.673277e-08) (3.035286e-11 2.531561e-07 -1.199885e-08)) ((-5.791880e-11 -6.608156e-13 2.107221e-13) (2.700065e-08 1.134944e-12 1.386280e-12))
73.428578     	((8.717178e-11 1.078413e-07 -4.213923e-08) (3.294168e-11 2.385583e-07 -1.254589e-08)) ((-5.769521e-11 -6.905408e-13 2.100031e-13) (2.615445e-08 8.067781e-13 1.649686e-12))
88.126294     	((9.043661e-11 1.018978e-07 -4.728100e-08) (3.532342e-11 2.253966e-07 -1.323937e-08)) ((-5.750726e-11 -7.154988e-13 2.090268e-13) (2.540176e-08 4.685559e-13 2.021805e-12))
105.763553    	((9.748823e-11 9.687565e-08 -5.221360e-08) (3.577991e-11 2.135682e-07 -1.408856e-08)) ((-5.737156e-11 -7.357482e-13 2.071871e-13) (2.473495e-08 3.337872e-13 2.270860e-12))
126.928263    	((1.011949e-10 9.280763e-08 -5.684046e-08) (3.869587e-11 2.030136e-07 -1.510993e-08)) ((-5.729348e-11 -7.568409e-13 2.054812e-13) (2.414794e-08 2.588414e-13 2.332046e-12))
152.325916    	((1.066341e-10 8.971569e-08 -6.132565e-08) (4.596161e-11 1.936962e-07 -1.631808e-08)) ((-5.725498e-11 -7.758678e-13 2.029702e-13) (2.363659e-08 -1.646695e-14 2.145624e-12))
182.803099    	((1.049816e-10 8.754280e-08 -6.557939e-08) (4.989028e-11 1.855934e-07 -1.770983e-08)) ((-5.722638e-11 -7.926983e-13 2.032231e-13) (2.319643e-08 -2.936093e-13 1.964399e-12))
219.375719    	((1.055503e-10 8.613861e-08 -6.972132e-08) (5.509277e-11 1.786560e-07 -1.929243e-08)) ((-5.721103e-11 -8.055575e-13 2.033512e-13) (2.282219e-08 -6.196503e-13 1.796450e-12))
262.845331    	((1.096136e-10 8.551117e-08 -7.357550e-08) (5.893563e-11 1.728552e-07 -2.103040e-08)) ((-5.720341e-11 -8.183358e-13 2.038231e-13) (2.250884e-08 -9.447474e-13 1.560330e-12))
313.211691    	((1.178724e-10 8.554633e-08 -7.730852e-08) (6.317688e-11 1.681725e-07 -2.286479e-08)) ((-5.720876e-11 -8.296206e-13 2.041327e-13) (2.225162e-08 -1.156955e-12 1.272260e-12))
370.475003    	((1.253623e-10 8.614826e-08 -8.046668e-08) (6.471564e-11 1.645611e-07 -2.468964e-08)) ((-5.722119e-11 -8.391495e-13 2.040519e-13) (2.204588e-08 -1.209822e-12 9.934027e-13))
434.636116    	((1.340987e-10 8.713249e-08 -8.324832e-08) (6.750551e-11 1.619421e-07 -2.638307e-08)) ((-5.723819e-11 -8.470721e-13 2.035666e-13) (2.188679e-08 -1.254504e-12 7.021758e-13))
503.624289    	((1.393093e-10 8.825017e-08 -8.560677e-08) (7.014747e-11 1.602053e-07 -2.782916e-08)) ((-5.726119e-11 -8.536691e-13 2.026964e-13) (2.176991e-08 -1.255963e-12 4.289786e-13))
572.623497    	((1.459240e-10 8.915323e-08 -8.756091e-08) (7.207613e-11 1.591731e-07 -2.895544e-08)) ((-5.728620e-11 -8.596036e-13 2.018676e-13) (2.168921e-08 -1.210003e-12 2.051103e-13))
641.635533    	((1.517590e-10 8.973897e-08 -8.920101e-08) (7.336595e-11 1.586158e-07 -2.977272e-08)) ((-5.730205e-11 -8.626395e-13 2.013125e-13) (2.163568e-08 -1.116356e-12 2.667073e-14))
710.659148    	((1.560280e-10 9.001700e-08 -9.051481e-08) (7.415606e-11 1.583359e-07 -3.033755e-08)) ((-5.731157e-11 -8.647689e-13 2.007407e-13) (2.160094e-08 -1.008756e-12 -8.515512e-14))
779.692474    	((1.577953e-10 9.009701e-08 -9.157144e-08) (7.468022e-11 1.581903e-07 -3.072652e-08)) ((-5.731585e-11 -8.663313e-13 2.002176e-13) (2.157797e-08 -9.078553e-13 -1.351493e-13))
848.733939    	((1.585648e-10 9.009082e-08 -9.243100e-08) (7.520473e-11 1.581003e-07 -3.100206e-08)) ((-5.731716e-11 -8.673733e-13 1.998901e-13) (2.156221e-08 -8.301998e-13 -1.398858e-13))
917.78189     	((1.583836e-10 9.006267e-08 -9.314288e-08) (7.544038e-11 1.580304e-07 -3.120855e-08)) ((-5.731768e-11 -8.685339e-13 1.994897e-13) (2.155086e-08 -7.762659e-13 -1.191108e-13))
986.835013    	((1.583622e-10 9.003276e-08 -9.374238e-08) (7.572660e-11 1.579695e-07 -3.137268e-08)) ((-5.731841e-11 -8.698832e-13 1.990810e-13) (2.154242e-08 -7.389682e-13 -7.726574e-14))
1055.892382   	((1.582898e-10 9.000184e-08 -9.425684e-08) (7.616041e-11 1.579150e-07 -3.151082e-08)) ((-5.731906e-11 -8.711393e-13 1.987350e-13) (2.153600e-08 -7.253319e-13 -3.132116e-14))
1124.953197   	((1.585110e-10 8.996954e-08 -9.470546e-08) (7.663249e-11 1.578671e-07 -3.163168e-08)) ((-5.731958e-11 -8.722129e-13 1.985003e-13) (2.153106e-08 -7.214672e-13 1.203336e-14))
1194.016782   	((1.586584e-10 8.993811e-08 -9.510089e-08) (7.719829e-11 1.578261e-07 -3.174004e-08)) ((-5.732005e-11 -8.732437e-13 1.983507e-13) (2.152720e-08 -7.281926e-13 5.311600e-14))
1263.082618   	((1.586987e-10 8.990899e-08 -9.545400e-08) (7.773568e-11 1.577921e-07 -3.183847e-08)) ((-5.732043e-11 -8.741331e-13 1.982347e-13) (2.152416e-08 -7.385285e-13 8.833075e-14))
1332.150312   	((1.584434e-10 8.988260e-08 -9.577041e-08) (7.819204e-11 1.577650e-07 -3.192833e-08)) ((-5.732075e-11 -8.749205e-13 1.981729e-13) (2.152177e-08 -7.458674e-13 1.156281e-13))
1401.21957    	((1.582331e-10 8.985828e-08 -9.605662e-08) (7.860440e-11 1.577438e-07 -3.201040e-08)) ((-5.732099e-11 -8.756410e-13 1.981247e-13) (2.151986e-08 -7.513381e-13 1.366758e-13))
1470.290174   	((1.579921e-10 8.983601e-08 -9.631546e-08) (7.898664e-11 1.577277e-07 -3.208533e-08)) ((-5.732118e-11 -8.763096e-13 1.980990e-13) (2.151835e-08 -7.564728e-13 1.544240e-13))
1539.361954   	((1.578028e-10 8.981579e-08 -9.655061e-08) (7.930495e-11 1.577158e-07 -3.215373e-08)) ((-5.732136e-11 -8.769256e-13 1.980778e-13) (2.151715e-08 -7.620806e-13 1.691049e-13))
1608.434778   	((1.577211e-10 8.979752e-08 -9.676527e-08) (7.960205e-11 1.577074e-07 -3.221628e-08)) ((-5.732154e-11 -8.774833e-13 1.980595e-13) (2.151618e-08 -7.695471e-13 1.801934e-13))
1677.508538   	((1.576067e-10 8.978083e-08 -9.696121e-08) (7.986643e-11 1.577016e-07 -3.227368e-08)) ((-5.732173e-11 -8.780086e-13 1.980433e-13) (2.151542e-08 -7.815248e-13 1.870437e-13))
1746.583146   	((1.575458e-10 8.976570e-08 -9.714016e-08) (8.013050e-11 1.576979e-07 -3.232651e-08)) ((-5.732190e-11 -8.784663e-13 1.980191e-13) (2.151480e-08 -7.938545e-13 1.909124e-13))
1815.658525   	((1.576171e-10 8.975185e-08 -9.730414e-08) (8.036595e-11 1.576957e-07 -3.237521e-08)) ((-5.732205e-11 -8.788658e-13 1.980018e-13) (2.151432e-08 -8.041922e-13 1.924175e-13))
1884.734608   	((1.577891e-10 8.973925e-08 -9.745418e-08) (8.057692e-11 1.576949e-07 -3.242012e-08)) ((-5.732220e-11 -8.792379e-13 1.979824e-13) (2.151393e-08 -8.141433e-13 1.923174e-13))
1953.811331   	((1.580519e-10 8.972779e-08 -9.759158e-08) (8.077648e-11 1.576949e-07 -3.246155e-08)) ((-5.732233e-11 -8.795710e-13 1.979635e-13) (2.151362e-08 -8.245871e-13 1.905065e-13))
2022.888628   	((1.582215e-10 8.971719e-08 -9.771930e-08) (8.096237e-11 1.576957e-07 -3.249984e-08)) ((-5.732245e-11 -8.798745e-13 1.979369e-13) (2.151337e-08 -8.353775e-13 1.876086e-13))
2091.966454   	((1.582120e-10 8.970705e-08 -9.783747e-08) (8.112291e-11 1.576969e-07 -3.253529e-08)) ((-5.732255e-11 -8.801478e-13 1.979118e-13) (2.151316e-08 -8.458241e-13 1.838009e-13))
2161.044766   	((1.582441e-10 8.969770e-08 -9.794680e-08) (8.126801e-11 1.576985e-07 -3.256813e-08)) ((-5.732264e-11 -8.803970e-13 1.978864e-13) (2.151300e-08 -8.552562e-13 1.791055e-13))
2230.123529   	((1.582625e-10 8.968896e-08 -9.804789e-08) (8.138819e-11 1.577002e-07 -3.259859e-08)) ((-5.732272e-11 -8.806210e-13 1.978680e-13) (2.151285e-08 -8.638985e-13 1.738246e-13))
2299.202707   	((1.582697e-10 8.968082e-08 -9.814173e-08) (8.148315e-11 1.577020e-07 -3.262689e-08)) ((-5.732279e-11 -8.808349e-13 1.978562e-13) (2.151274e-08 -8.714073e-13 1.677453e-13))
2368.282272   	((1.582511e-10 8.967313e-08 -9.822899e-08) (8.156515e-11 1.577040e-07 -3.265319e-08)) ((-5.732284e-11 -8.810329e-13 1.978480e-13) (2.151264e-08 -8.781157e-13 1.617230e-13))
2437.362197   	((1.582192e-10 8.966594e-08 -9.831007e-08) (8.162945e-11 1.577059e-07 -3.267768e-08)) ((-5.732287e-11 -8.812259e-13 1.978428e-13) (2.151255e-08 -8.838736e-13 1.559742e-13))
2506.442456   	((1.581996e-10 8.965918e-08 -9.838560e-08) (8.168564e-11 1.577079e-07 -3.270051e-08)) ((-5.732290e-11 -8.814048e-13 1.978362e-13) (2.151248e-08 -8.889423e-13 1.508595e-13))
2575.523028   	((1.582415e-10 8.965284e-08 -9.845607e-08) (8.174498e-11 1.577098e-07 -3.272182e-08)) ((-5.732294e-11 -8.815672e-13 1.978351e-13) (2.151241e-08 -8.935165e-13 1.466614e-13))
2644.603892   	((1.582728e-10 8.964681e-08 -9.852189e-08) (8.180311e-11 1.577117e-07 -3.274172e-08)) ((-5.732298e-11 -8.817153e-13 1.978327e-13) (2.151236e-08 -8.978134e-13 1.429254e-13))
2713.68503    	((1.583330e-10 8.964112e-08 -9.858345e-08) (8.186205e-11 1.577135e-07 -3.276031e-08)) ((-5.732301e-11 -8.818521e-13 1.978270e-13) (2.151230e-08 -9.021004e-13 1.395612e-13))
2782.766424   	((1.583625e-10 8.963570e-08 -9.864106e-08) (8.191341e-11 1.577153e-07 -3.277771e-08)) ((-5.732304e-11 -8.819754e-13 1.978189e-13) (2.151226e-08 -9.065995e-13 1.367636e-13))
2851.84806    	((1.583683e-10 8.963051e-08 -9.869504e-08) (8.195917e-11 1.577169e-07 -3.279402e-08)) ((-5.732306e-11 -8.820871e-13 1.978114e-13) (2.151222e-08 -9.110623e-13 1.343177e-13))
2920.929921   	((1.583500e-10 8.962559e-08 -9.874563e-08) (8.200229e-11 1.577185e-07 -3.280930e-08)) ((-5.732308e-11 -8.821909e-13 1.978052e-13) (2.151218e-08 -9.153792e-13 1.320923e-13))
2990.011995   	((1.583657e-10 8.962097e-08 -9.879317e-08) (8.204504e-11 1.577201e-07 -3.282365e-08)) ((-5.732310e-11 -8.822839e-13 1.977985e-13) (2.151214e-08 -9.194481e-13 1.300457e-13))
