# Forces      
# CofR        : (0.000000e+00 0.000000e+00 0.000000e+00)
# Time        forces(pressure viscous)	moments(pressure viscous)
0             	((0.000000e+00 0.000000e+00 0.000000e+00) (-5.025248e-06 1.376685e-15 -4.885427e-11)) ((0.000000e+00 0.000000e+00 0.000000e+00) (-1.104785e-17 1.129113e-07 -2.879403e-17))
0.012         	((-1.461308e-03 2.444953e-09 1.546739e-04) (-5.767235e-06 8.582522e-12 -1.548380e-09)) ((5.578065e-14 -1.974527e-08 2.360083e-13) (4.818783e-14 1.664163e-07 -1.469719e-13))
0.0264        	((1.003982e-04 -2.556573e-08 -8.400438e-06) (-5.885271e-06 -6.013528e-12 -2.286305e-09)) ((6.243449e-13 1.383523e-09 -3.166873e-13) (-1.146493e-12 1.863451e-07 -2.815117e-13))
0.04368       	((3.060886e-04 2.106822e-08 -5.188654e-06) (-5.231024e-06 -3.445971e-12 -1.552994e-09)) ((-8.259070e-13 4.636783e-09 -2.701855e-13) (-1.340064e-12 1.660173e-07 -1.500789e-13))
0.064416      	((2.885130e-06 2.298934e-09 -6.955125e-06) (-4.633764e-06 -1.048939e-10 -8.560824e-10)) ((2.566872e-13 -5.146187e-11 -9.462521e-15) (-3.328440e-13 1.490233e-07 -4.906522e-13))
0.0892992     	((-4.162852e-06 3.131980e-09 -4.254308e-06) (-4.278340e-06 -1.555840e-10 -7.042377e-10)) ((-1.360989e-13 -2.113524e-10 5.383445e-14) (4.162855e-13 1.408677e-07 -4.225589e-13))
0.119159      	((4.557835e-06 -2.656454e-09 -2.516202e-06) (-3.950739e-06 -1.159919e-10 -9.430929e-10)) ((1.027476e-13 8.948621e-11 -5.961907e-14) (5.228637e-13 1.318009e-07 7.480919e-13))
0.154991      	((2.464313e-06 1.170722e-09 -1.532725e-06) (-3.603107e-06 -1.001873e-10 -1.225489e-09)) ((-2.319457e-14 5.221392e-11 -1.195020e-13) (5.335181e-13 1.217012e-07 1.688533e-12))
0.197989      	((6.000442e-07 -1.431670e-09 -9.612023e-07) (-3.251922e-06 -7.269024e-11 -1.270973e-09)) ((1.536895e-13 1.445930e-11 -1.288262e-13) (5.902205e-13 1.114163e-07 2.038580e-12))
0.249587      	((-7.765421e-08 -7.919774e-10 -5.922048e-07) (-2.907074e-06 -4.581560e-11 -1.317528e-09)) ((1.658326e-13 1.481430e-12 9.350620e-15) (4.447354e-13 1.011254e-07 1.877716e-12))
0.311504      	((-3.877526e-07 -2.239860e-10 -3.704543e-07) (-2.578889e-06 -2.335035e-11 -1.397428e-09)) ((7.086133e-14 -2.381291e-12 3.543368e-15) (4.134012e-13 9.102634e-08 1.441281e-12))
0.385805      	((-5.366359e-07 -8.874939e-11 -2.244701e-07) (-2.275653e-06 -1.057911e-11 -1.467065e-09)) ((3.650885e-14 -3.011484e-12 6.084096e-15) (3.480369e-13 8.136563e-08 1.062608e-12))
0.474966      	((-6.058356e-07 -5.899866e-12 -1.364009e-07) (-2.003558e-06 -3.438438e-12 -1.528434e-09)) ((1.918721e-14 -3.760461e-12 7.164676e-15) (2.993927e-13 7.241412e-08 7.805422e-13))
0.581959      	((-6.334439e-07 -2.057190e-12 -7.779745e-08) (-1.765398e-06 1.705405e-12 -1.595809e-09)) ((8.015442e-15 -4.546574e-12 3.403396e-15) (3.123783e-13 6.434407e-08 5.313576e-13))
0.710351      	((-6.307376e-07 2.209078e-11 -4.424928e-08) (-1.561389e-06 2.127713e-12 -1.652574e-09)) ((2.281236e-15 -5.058946e-12 5.958139e-16) (3.287165e-13 5.725327e-08 3.054606e-13))
0.864421      	((-6.079172e-07 1.317630e-11 -2.273720e-08) (-1.388933e-06 1.270962e-12 -1.686755e-09)) ((6.072495e-16 -5.150117e-12 9.767710e-16) (2.993920e-13 5.114383e-08 2.002318e-13))
1.049306      	((-5.744714e-07 1.815407e-11 -1.105884e-08) (-1.243590e-06 4.912993e-13 -1.716768e-09)) ((6.749173e-16 -4.915198e-12 2.991180e-16) (2.272949e-13 4.592486e-08 1.523004e-13))
1.271167      	((-5.373804e-07 8.614043e-12 -3.988539e-09) (-1.120768e-06 -8.498592e-13 -1.747941e-09)) ((4.958151e-16 -4.562478e-12 -2.948102e-16) (1.459945e-13 4.145632e-08 1.083009e-13))
1.5374        	((-4.995301e-07 3.576916e-12 -1.012978e-09) (-1.015574e-06 -1.881552e-12 -1.798405e-09)) ((6.412420e-16 -4.211597e-12 -1.078395e-15) (8.308498e-14 3.758708e-08 7.352928e-14))
1.85688       	((-4.626325e-07 -1.221814e-12 4.989533e-11) (-9.235451e-07 -5.307917e-13 -1.877633e-09)) ((1.354929e-15 -3.848559e-12 -1.076368e-15) (5.129254e-14 3.418563e-08 5.423297e-14))
2.240256      	((-4.276489e-07 -1.057953e-11 -6.719384e-10) (-8.417428e-07 1.822294e-12 -1.981073e-09)) ((1.517005e-15 -3.525867e-12 -5.531858e-16) (2.701220e-14 3.115665e-08 5.994246e-14))
2.700307      	((-3.949589e-07 -1.917565e-11 -2.023415e-09) (-7.683485e-07 2.438895e-12 -2.098004e-09)) ((2.119724e-15 -3.252640e-12 -9.080495e-17) (-1.054537e-14 2.843697e-08 1.088743e-13))
3.252369      	((-3.644551e-07 -2.304971e-11 -3.930192e-09) (-7.021773e-07 1.840851e-12 -2.221083e-09)) ((2.089702e-15 -2.988340e-12 2.053460e-16) (-4.986790e-14 2.598441e-08 1.871955e-13))
3.914842      	((-3.358099e-07 -2.172644e-11 -5.842711e-09) (-6.423843e-07 1.469373e-12 -2.356983e-09)) ((2.249048e-15 -2.733003e-12 4.199780e-16) (-8.788968e-14 2.376809e-08 2.457966e-13))
4.709811      	((-3.092479e-07 -1.657296e-11 -7.837751e-09) (-5.883461e-07 1.188823e-12 -2.513266e-09)) ((1.932978e-15 -2.501166e-12 3.620474e-16) (-1.229302e-13 2.176461e-08 2.502874e-13))
5.663773      	((-2.847515e-07 -1.918070e-11 -9.702701e-09) (-5.395906e-07 7.163325e-13 -2.677699e-09)) ((1.625495e-15 -2.295895e-12 1.325358e-16) (-1.389665e-13 1.995688e-08 2.322244e-13))
6.808528      	((-2.622641e-07 -1.711677e-11 -1.145784e-08) (-4.957309e-07 3.904933e-13 -2.840603e-09)) ((1.836810e-15 -2.117340e-12 -4.657404e-16) (-1.417030e-13 1.833092e-08 2.250862e-13))
8.182233      	((-2.416816e-07 -2.226166e-11 -1.303701e-08) (-4.563647e-07 2.858789e-13 -3.009147e-09)) ((1.852661e-15 -1.960346e-12 -7.684554e-16) (-1.661033e-13 1.687172e-08 2.561555e-13))
9.83068       	((-2.229715e-07 -3.253629e-11 -1.448700e-08) (-4.210148e-07 1.865422e-13 -3.194276e-09)) ((1.964863e-15 -1.817867e-12 -8.251382e-16) (-2.318092e-13 1.556156e-08 3.621418e-13))
11.808816     	((-2.058322e-07 -3.589774e-11 -1.573372e-08) (-3.891548e-07 7.193882e-13 -3.395269e-09)) ((2.362906e-15 -1.687528e-12 -5.824233e-16) (-3.078977e-13 1.438091e-08 5.742037e-13))
14.182579     	((-1.901684e-07 -2.558593e-11 -1.683948e-08) (-3.603090e-07 1.803905e-12 -3.613509e-09)) ((2.008340e-15 -1.568593e-12 -1.500653e-16) (-3.490022e-13 1.331194e-08 8.814401e-13))
17.031095     	((-1.758847e-07 -2.607374e-11 -1.781654e-08) (-3.340933e-07 3.032900e-12 -3.851769e-09)) ((2.853725e-15 -1.460795e-12 3.745664e-16) (-3.645793e-13 1.234018e-08 1.239559e-12))
20.449314     	((-1.628848e-07 -3.996468e-11 -1.870654e-08) (-3.102032e-07 3.619296e-12 -4.109070e-09)) ((3.813411e-15 -1.361918e-12 6.010869e-16) (-4.087037e-13 1.145445e-08 1.629469e-12))
24.551176     	((-1.509812e-07 -5.430187e-11 -1.943690e-08) (-2.884187e-07 3.675152e-12 -4.383256e-09)) ((4.383535e-15 -1.271205e-12 7.053542e-16) (-4.918037e-13 1.064654e-08 2.042497e-12))
29.473411     	((-1.401185e-07 -4.915479e-11 -2.000158e-08) (-2.685772e-07 3.675523e-12 -4.672892e-09)) ((5.100312e-15 -1.189726e-12 5.555477e-16) (-5.536444e-13 9.910379e-09 2.421363e-12))
35.380094     	((-1.302263e-07 -3.722534e-11 -2.045772e-08) (-2.505374e-07 4.523860e-12 -4.975506e-09)) ((4.845253e-15 -1.115761e-12 3.644303e-16) (-5.599045e-13 9.241016e-09 2.860538e-12))
42.468112     	((-1.212773e-07 -3.549110e-11 -2.077215e-08) (-2.341610e-07 5.920767e-12 -5.289063e-09)) ((4.610292e-15 -1.048888e-12 4.177388e-16) (-5.436966e-13 8.633446e-09 3.361621e-12))
50.973735     	((-1.131993e-07 -3.515116e-11 -2.095978e-08) (-2.193088e-07 7.328300e-12 -5.608138e-09)) ((4.738566e-15 -9.888104e-13 4.720394e-16) (-5.028862e-13 8.082511e-09 3.896993e-12))
61.180482     	((-1.059138e-07 -2.018364e-11 -2.101082e-08) (-2.058398e-07 9.087260e-12 -5.929777e-09)) ((4.089748e-15 -9.346702e-13 5.365093e-16) (-4.119095e-13 7.583041e-09 4.529573e-12))
73.428578     	((-9.934105e-08 -8.210761e-12 -2.098437e-08) (-1.936187e-07 1.155853e-11 -6.257949e-09)) ((3.149289e-15 -8.855017e-13 5.926370e-16) (-2.819761e-13 7.129849e-09 5.265712e-12))
88.126294     	((-9.345426e-08 -4.230592e-12 -2.087520e-08) (-1.825143e-07 1.391533e-11 -6.594938e-09)) ((2.519436e-15 -8.423215e-13 7.245461e-16) (-1.404373e-13 6.718093e-09 6.047606e-12))
105.763553    	((-8.817291e-08 -1.888975e-13 -2.070665e-08) (-1.724184e-07 1.684755e-11 -6.941320e-09)) ((2.021716e-15 -8.034852e-13 9.155515e-16) (1.648027e-17 6.343692e-09 6.831153e-12))
126.928263    	((-8.349365e-08 6.132862e-12 -2.047386e-08) (-1.632398e-07 1.939613e-11 -7.296896e-09)) ((1.480101e-15 -7.696018e-13 1.056247e-15) (1.499199e-13 6.003339e-09 7.591686e-12))
152.325916    	((-7.938039e-08 1.141504e-11 -2.020191e-08) (-1.549035e-07 2.135324e-11 -7.662908e-09)) ((9.578188e-16 -7.409302e-13 1.165000e-15) (2.908503e-13 5.694371e-09 8.271724e-12))
182.803099    	((-7.575744e-08 1.478649e-11 -1.988256e-08) (-1.473448e-07 2.224423e-11 -8.040900e-09)) ((5.182565e-16 -7.166824e-13 1.219120e-15) (4.204353e-13 5.414422e-09 8.856129e-12))
219.375719    	((-7.257745e-08 1.928308e-11 -1.952920e-08) (-1.405051e-07 2.321758e-11 -8.430189e-09)) ((1.422485e-16 -6.966626e-13 1.177097e-15) (5.426192e-13 5.161449e-09 9.340231e-12))
263.262863    	((-6.981287e-08 2.295063e-11 -1.914117e-08) (-1.343336e-07 2.378888e-11 -8.831359e-09)) ((-1.224994e-16 -6.803982e-13 1.136088e-15) (6.728128e-13 4.933625e-09 9.710571e-12))
315.927436    	((-6.745448e-08 2.431258e-11 -1.872544e-08) (-1.287862e-07 2.439265e-11 -9.242966e-09)) ((-2.844766e-16 -6.679688e-13 1.119868e-15) (7.979363e-13 4.729348e-09 9.972805e-12))
379.124923    	((-6.548598e-08 2.693444e-11 -1.828837e-08) (-1.238248e-07 2.462569e-11 -9.664546e-09)) ((-2.595775e-16 -6.589156e-13 1.089314e-15) (9.093203e-13 4.547219e-09 1.013290e-11))
454.961908    	((-6.387050e-08 3.007028e-11 -1.784542e-08) (-1.194152e-07 2.464325e-11 -1.009472e-08)) ((-1.477046e-16 -6.527037e-13 1.078878e-15) (1.008590e-12 4.385933e-09 1.019110e-11))
545.966289    	((-6.257576e-08 3.284854e-11 -1.740825e-08) (-1.155241e-07 2.454029e-11 -1.053014e-08)) ((-9.593180e-17 -6.486672e-13 1.048712e-15) (1.099555e-12 4.244200e-09 1.016093e-11))
655.171547    	((-6.155620e-08 3.421569e-11 -1.697642e-08) (-1.121185e-07 2.427556e-11 -1.096649e-08)) ((-4.173792e-17 -6.460965e-13 1.030536e-15) (1.175712e-12 4.120680e-09 1.005209e-11))
786.217856    	((-6.076826e-08 3.485494e-11 -1.656491e-08) (-1.091647e-07 2.382609e-11 -1.139735e-08)) ((5.467031e-17 -6.445125e-13 1.013086e-15) (1.239263e-12 4.013964e-09 9.865618e-12))
943.473427    	((-6.016359e-08 3.568095e-11 -1.616569e-08) (-1.066254e-07 2.330959e-11 -1.181388e-08)) ((1.048572e-16 -6.434246e-13 9.958118e-16) (1.297105e-12 3.922566e-09 9.609245e-12))
1132.180113   	((-5.969931e-08 3.712773e-11 -1.578654e-08) (-1.044605e-07 2.284785e-11 -1.220718e-08)) ((2.528074e-16 -6.422593e-13 9.571841e-16) (1.347662e-12 3.844895e-09 9.291934e-12))
1358.628135   	((-5.933768e-08 3.842150e-11 -1.543013e-08) (-1.026279e-07 2.254670e-11 -1.257002e-08)) ((3.772155e-16 -6.408088e-13 9.169931e-16) (1.389798e-12 3.779347e-09 8.923611e-12))
1624.742575   	((-5.905636e-08 3.895614e-11 -1.509571e-08) (-1.010882e-07 2.231508e-11 -1.289716e-08)) ((4.129332e-16 -6.390343e-13 8.599892e-16) (1.421455e-12 3.724454e-09 8.513010e-12))
1930.607985   	((-5.882900e-08 3.895059e-11 -1.479140e-08) (-9.980016e-08 2.212851e-11 -1.318673e-08)) ((4.224424e-16 -6.367451e-13 7.988022e-16) (1.441615e-12 3.678721e-09 8.072342e-12))
2276.295805   	((-5.864315e-08 3.820129e-11 -1.452089e-08) (-9.872695e-08 2.193776e-11 -1.343934e-08)) ((4.624180e-16 -6.341437e-13 7.395462e-16) (1.448232e-12 3.640815e-09 7.615157e-12))
2661.864232   	((-5.848939e-08 3.688050e-11 -1.429006e-08) (-9.783422e-08 2.177133e-11 -1.365746e-08)) ((5.461726e-16 -6.313841e-13 6.915908e-16) (1.442337e-12 3.609505e-09 7.150615e-12))
3061.091467   	((-5.836733e-08 3.537950e-11 -1.408546e-08) (-9.709470e-08 2.164454e-11 -1.384396e-08)) ((6.123744e-16 -6.286051e-13 6.411020e-16) (1.428257e-12 3.583812e-09 6.685900e-12))
3460.669078   	((-5.826565e-08 3.377053e-11 -1.391439e-08) (-9.648164e-08 2.149949e-11 -1.400303e-08)) ((6.500282e-16 -6.258723e-13 5.896756e-16) (1.406742e-12 3.562744e-09 6.230840e-12))
3860.537216   	((-5.818124e-08 3.246968e-11 -1.377143e-08) (-9.597357e-08 2.138516e-11 -1.413834e-08)) ((6.818541e-16 -6.233013e-13 5.419106e-16) (1.377720e-12 3.545500e-09 5.789553e-12))
4260.644945   	((-5.811027e-08 3.092263e-11 -1.365445e-08) (-9.555168e-08 2.123660e-11 -1.425362e-08)) ((7.346800e-16 -6.209231e-13 5.039497e-16) (1.340344e-12 3.531370e-09 5.368890e-12))
4660.950282   	((-5.805140e-08 2.930206e-11 -1.355928e-08) (-9.520105e-08 2.103431e-11 -1.435188e-08)) ((7.898279e-16 -6.187950e-13 4.710751e-16) (1.296230e-12 3.519786e-09 4.972846e-12))
5061.418317   	((-5.800181e-08 2.757706e-11 -1.347243e-08) (-9.490887e-08 2.078276e-11 -1.443584e-08)) ((8.351186e-16 -6.168760e-13 4.395613e-16) (1.247153e-12 3.510264e-09 4.603292e-12))
5462.020466   	((-5.796033e-08 2.581847e-11 -1.339861e-08) (-9.466497e-08 2.047789e-11 -1.450770e-08)) ((8.848453e-16 -6.151760e-13 4.102841e-16) (1.194293e-12 3.502424e-09 4.260697e-12))
5862.733239   	((-5.792530e-08 2.408091e-11 -1.333695e-08) (-9.446088e-08 2.012291e-11 -1.456932e-08)) ((9.355182e-16 -6.136774e-13 3.847780e-16) (1.138299e-12 3.495949e-09 3.943589e-12))
6263.537468   	((-5.789585e-08 2.241156e-11 -1.328474e-08) (-9.428981e-08 1.973252e-11 -1.462223e-08)) ((9.953333e-16 -6.123671e-13 3.623309e-16) (1.080974e-12 3.490590e-09 3.650265e-12))
6664.417436   	((-5.787104e-08 2.082442e-11 -1.324215e-08) (-9.414613e-08 1.932828e-11 -1.466773e-08)) ((1.054870e-15 -6.112299e-13 3.437999e-16) (1.023354e-12 3.486143e-09 3.380474e-12))
7065.360271   	((-5.785010e-08 1.930767e-11 -1.320772e-08) (-9.402527e-08 1.894336e-11 -1.470689e-08)) ((1.115703e-15 -6.102536e-13 3.305488e-16) (9.664911e-13 3.482444e-09 3.133198e-12))
7466.355408   	((-5.783242e-08 1.785516e-11 -1.317839e-08) (-9.392342e-08 1.853883e-11 -1.474061e-08)) ((1.174464e-15 -6.094114e-13 3.185096e-16) (9.106195e-13 3.479359e-09 2.907374e-12))
7867.394188   	((-5.781739e-08 1.647031e-11 -1.315349e-08) (-9.383749e-08 1.812404e-11 -1.476964e-08)) ((1.228894e-15 -6.086840e-13 3.075479e-16) (8.561332e-13 3.476781e-09 2.701668e-12))
8268.469482   	((-5.780469e-08 1.515260e-11 -1.313239e-08) (-9.376488e-08 1.770437e-11 -1.479465e-08)) ((1.279057e-15 -6.080571e-13 2.972540e-16) (8.034538e-13 3.474622e-09 2.514731e-12))
8669.575414   	((-5.779395e-08 1.391945e-11 -1.311447e-08) (-9.370346e-08 1.728218e-11 -1.481619e-08)) ((1.326385e-15 -6.075200e-13 2.879559e-16) (7.526592e-13 3.472810e-09 2.345304e-12))
9070.707126   	((-5.778483e-08 1.276524e-11 -1.309927e-08) (-9.365144e-08 1.686184e-11 -1.483474e-08)) ((1.368960e-15 -6.070611e-13 2.797623e-16) (7.041003e-13 3.471286e-09 2.192220e-12))
9471.860593   	((-5.777706e-08 1.169307e-11 -1.308642e-08) (-9.360733e-08 1.644853e-11 -1.485071e-08)) ((1.407830e-15 -6.066670e-13 2.724256e-16) (6.580372e-13 3.470002e-09 2.054201e-12))
9873.032464   	((-5.777039e-08 1.069844e-11 -1.307553e-08) (-9.356989e-08 1.604588e-11 -1.486446e-08)) ((1.442431e-15 -6.063291e-13 2.659679e-16) (6.146304e-13 3.468919e-09 1.929984e-12))
10274.219945  	((-5.776473e-08 9.792235e-12 -1.306618e-08) (-9.353808e-08 1.565725e-11 -1.487631e-08)) ((1.474143e-15 -6.060380e-13 2.600106e-16) (5.739925e-13 3.468002e-09 1.818489e-12))
10675.4207    	((-5.775991e-08 8.968222e-12 -1.305816e-08) (-9.351103e-08 1.528312e-11 -1.488650e-08)) ((1.502104e-15 -6.057869e-13 2.547297e-16) (5.361224e-13 3.467226e-09 1.718655e-12))
11076.632769  	((-5.775579e-08 8.218376e-12 -1.305128e-08) (-9.348801e-08 1.492609e-11 -1.489528e-08)) ((1.527320e-15 -6.055709e-13 2.501814e-16) (5.010116e-13 3.466568e-09 1.629406e-12))
11477.854501  	((-5.775228e-08 7.535231e-12 -1.304540e-08) (-9.346841e-08 1.458722e-11 -1.490282e-08)) ((1.550298e-15 -6.053848e-13 2.461204e-16) (4.685824e-13 3.466009e-09 1.549751e-12))
11879.0845    	((-5.774928e-08 6.921689e-12 -1.304035e-08) (-9.345171e-08 1.426762e-11 -1.490931e-08)) ((1.570355e-15 -6.052251e-13 2.425551e-16) (4.387572e-13 3.465534e-09 1.478778e-12))
12280.321587  	((-5.774671e-08 6.370629e-12 -1.303602e-08) (-9.343747e-08 1.396815e-11 -1.491488e-08)) ((1.588403e-15 -6.050881e-13 2.393594e-16) (4.114395e-13 3.465129e-09 1.415642e-12))
12681.564757  	((-5.774448e-08 5.874901e-12 -1.303238e-08) (-9.342532e-08 1.368893e-11 -1.491967e-08)) ((1.604283e-15 -6.049711e-13 2.365766e-16) (3.865070e-13 3.464785e-09 1.359577e-12))
13082.813153  	((-5.774259e-08 5.433815e-12 -1.302923e-08) (-9.341495e-08 1.342975e-11 -1.492379e-08)) ((1.618246e-15 -6.048700e-13 2.339838e-16) (3.638385e-13 3.464491e-09 1.309867e-12))
13484.066046  	((-5.774098e-08 5.040999e-12 -1.302653e-08) (-9.340611e-08 1.319019e-11 -1.492732e-08)) ((1.630363e-15 -6.047832e-13 2.317924e-16) (3.432893e-13 3.464241e-09 1.265841e-12))
13885.322813  	((-5.773958e-08 4.687906e-12 -1.302419e-08) (-9.339855e-08 1.296970e-11 -1.493035e-08)) ((1.641259e-15 -6.047082e-13 2.297817e-16) (3.247046e-13 3.464027e-09 1.226901e-12))
14286.582919  	((-5.773840e-08 4.370333e-12 -1.302218e-08) (-9.339210e-08 1.276729e-11 -1.493295e-08)) ((1.650977e-15 -6.046448e-13 2.279512e-16) (3.079357e-13 3.463844e-09 1.192510e-12))
