# Forces      
# CofR        : (0.000000e+00 0.000000e+00 0.000000e+00)
# Time        forces(pressure viscous)	moments(pressure viscous)
0             	((0.000000e+00 0.000000e+00 0.000000e+00) (-1.090401e-11 -2.000495e-02 1.724119e-12)) ((0.000000e+00 0.000000e+00 0.000000e+00) (-4.494887e-04 -5.496487e-14 8.626194e-09))
0.0115327     	((9.313231e-04 -6.134649e+00 6.232378e-01) (3.075190e-06 -3.902110e-02 -4.605511e-03)) ((7.176871e-05 5.097147e-06 1.221415e-06) (-1.261167e-03 6.685371e-08 -1.766689e-07))
0.0253718     	((-6.037750e-05 2.612045e+00 -1.428276e+00) (8.869505e-06 -3.649946e-02 -6.338214e-03)) ((-3.202425e-05 -1.368619e-06 -3.369777e-07) (-1.316147e-03 9.248713e-10 -2.205568e-07))
0.0419789     	((-3.544893e-04 -3.745416e-01 -7.501164e-01) (1.793264e-06 -2.957228e-02 -4.856618e-03)) ((8.064194e-07 4.378604e-07 -6.528079e-08) (-1.062659e-03 -4.914846e-08 -2.219297e-07))
0.0619073     	((-5.372449e-04 1.691294e-01 -7.580692e-01) (-1.597002e-05 -2.697631e-02 -4.461737e-03)) ((-2.331100e-06 5.153236e-07 1.402940e-07) (-9.633504e-04 -9.038361e-09 -5.278094e-07))
0.0858214     	((-4.141586e-04 -1.182816e-01 -6.879895e-01) (-2.013961e-05 -2.524917e-02 -4.389325e-03)) ((-1.122751e-07 6.000542e-07 9.566026e-08) (-9.015350e-04 3.401446e-08 -7.919043e-07))
0.113911      	((-4.720948e-04 9.904053e-04 -7.088619e-01) (-2.284822e-05 -2.439932e-02 -4.449124e-03)) ((-2.876768e-07 5.300176e-07 1.375389e-07) (-8.747300e-04 8.118017e-08 -7.966237e-07))
0.146159      	((-2.049132e-04 -5.397655e-02 -6.870346e-01) (-2.181761e-05 -2.378124e-02 -4.672899e-03)) ((2.715029e-07 5.248180e-07 1.556175e-07) (-8.503880e-04 7.536233e-08 -7.885900e-07))
0.182539      	((-2.353020e-04 -3.456929e-02 -6.967603e-01) (-1.888266e-05 -2.335236e-02 -4.932369e-03)) ((6.813111e-07 5.610346e-07 2.018861e-07) (-8.330327e-04 5.526844e-08 -8.608549e-07))
0.223052      	((1.342034e-05 -5.156854e-02 -6.871147e-01) (-1.689943e-05 -2.305867e-02 -5.169734e-03)) ((1.114624e-06 5.612478e-07 2.310946e-07) (-8.206370e-04 4.941843e-08 -8.947467e-07))
0.264339      	((-3.507850e-05 -5.102483e-02 -6.899204e-01) (-1.686522e-05 -2.288236e-02 -5.396666e-03)) ((1.473777e-06 6.161885e-07 2.793772e-07) (-8.126155e-04 4.397056e-08 -9.527040e-07))
0.305505      	((2.036099e-04 -5.977433e-02 -6.836298e-01) (-1.505675e-05 -2.276652e-02 -5.579731e-03)) ((1.785178e-06 6.869931e-07 3.107861e-07) (-8.063911e-04 7.712825e-09 -1.033791e-06))
0.346375      	((2.888706e-04 -6.348124e-02 -6.815359e-01) (-1.358668e-05 -2.267469e-02 -5.723633e-03)) ((2.073175e-06 7.263937e-07 3.404740e-07) (-8.006799e-04 -4.042505e-08 -1.079158e-06))
0.386993      	((4.836831e-04 -6.904751e-02 -6.746353e-01) (-1.300812e-05 -2.256771e-02 -5.820773e-03)) ((2.336578e-06 7.727437e-07 3.750582e-07) (-7.944423e-04 -8.490646e-08 -1.156406e-06))
0.427482      	((6.060170e-04 -7.239522e-02 -6.692755e-01) (-1.368746e-05 -2.243050e-02 -5.889464e-03)) ((2.631769e-06 7.957115e-07 4.045750e-07) (-7.877130e-04 -1.196175e-07 -1.267609e-06))
0.467992      	((8.260026e-04 -7.514241e-02 -6.622871e-01) (-1.393811e-05 -2.227072e-02 -5.942846e-03)) ((2.854826e-06 8.009571e-07 4.390235e-07) (-7.809643e-04 -1.449132e-07 -1.421734e-06))
0.508568      	((1.105951e-03 -7.612935e-02 -6.558907e-01) (-1.312426e-05 -2.210808e-02 -5.983769e-03)) ((3.049026e-06 8.249356e-07 4.742348e-07) (-7.747841e-04 -1.874461e-07 -1.591301e-06))
0.549272      	((1.431217e-03 -7.647195e-02 -6.494469e-01) (-1.167399e-05 -2.195806e-02 -6.018157e-03)) ((3.176628e-06 8.420704e-07 5.025623e-07) (-7.693588e-04 -2.428009e-07 -1.718044e-06))
0.590016      	((1.805869e-03 -7.592393e-02 -6.438519e-01) (-9.361093e-06 -2.182247e-02 -6.045552e-03)) ((3.275892e-06 8.620172e-07 5.274376e-07) (-7.645570e-04 -3.053126e-07 -1.819118e-06))
0.63077       	((2.192838e-03 -7.513486e-02 -6.385797e-01) (-6.679007e-06 -2.169939e-02 -6.067423e-03)) ((3.356214e-06 8.839935e-07 5.447842e-07) (-7.602567e-04 -3.791842e-07 -1.899511e-06))
0.671537      	((2.650761e-03 -7.428130e-02 -6.341112e-01) (-3.327587e-06 -2.158834e-02 -6.087300e-03)) ((3.403968e-06 9.022118e-07 5.583439e-07) (-7.564235e-04 -4.641981e-07 -1.965639e-06))
0.712331      	((3.101211e-03 -7.354407e-02 -6.299022e-01) (5.244946e-07 -2.148837e-02 -6.106058e-03)) ((3.420446e-06 9.164278e-07 5.699944e-07) (-7.529505e-04 -5.617360e-07 -2.038249e-06))
0.753157      	((3.580505e-03 -7.303788e-02 -6.261940e-01) (4.453910e-06 -2.139786e-02 -6.125759e-03)) ((3.421176e-06 9.287248e-07 5.815849e-07) (-7.496854e-04 -6.736270e-07 -2.132722e-06))
0.794008      	((4.151469e-03 -7.268599e-02 -6.227705e-01) (8.360153e-06 -2.131553e-02 -6.145765e-03)) ((3.421354e-06 9.412475e-07 5.912035e-07) (-7.466151e-04 -8.044653e-07 -2.254892e-06))
0.834876      	((4.767601e-03 -7.237651e-02 -6.196314e-01) (1.243042e-05 -2.124066e-02 -6.164021e-03)) ((3.429768e-06 9.540099e-07 6.001495e-07) (-7.438323e-04 -9.527734e-07 -2.405908e-06))
0.875759      	((5.444752e-03 -7.202344e-02 -6.166568e-01) (1.649788e-05 -2.117288e-02 -6.178491e-03)) ((3.438164e-06 9.677029e-07 6.077243e-07) (-7.414049e-04 -1.116248e-06 -2.592546e-06))
0.916658      	((6.175811e-03 -7.157842e-02 -6.137973e-01) (2.028339e-05 -2.111174e-02 -6.189243e-03)) ((3.450442e-06 9.810669e-07 6.157224e-07) (-7.393072e-04 -1.296724e-06 -2.826899e-06))
0.95757       	((7.005758e-03 -7.107037e-02 -6.110887e-01) (2.397544e-05 -2.105585e-02 -6.197615e-03)) ((3.459839e-06 9.954343e-07 6.238177e-07) (-7.374412e-04 -1.498301e-06 -3.118440e-06))
0.998494      	((7.883879e-03 -7.064078e-02 -6.086487e-01) (2.772992e-05 -2.100425e-02 -6.204921e-03)) ((3.469360e-06 1.008509e-06 6.319433e-07) (-7.357306e-04 -1.724215e-06 -3.464376e-06))
1.039427      	((8.853102e-03 -7.024483e-02 -6.063674e-01) (3.153856e-05 -2.095637e-02 -6.211827e-03)) ((3.479356e-06 1.020060e-06 6.407213e-07) (-7.341402e-04 -1.974744e-06 -3.858357e-06))
1.080369      	((9.972243e-03 -6.988651e-02 -6.042148e-01) (3.568332e-05 -2.091191e-02 -6.218167e-03)) ((3.490694e-06 1.032601e-06 6.495279e-07) (-7.326732e-04 -2.255534e-06 -4.295252e-06))
1.121318      	((1.121143e-02 -6.960003e-02 -6.022229e-01) (4.047509e-05 -2.087100e-02 -6.223586e-03)) ((3.501425e-06 1.045518e-06 6.585855e-07) (-7.313473e-04 -2.567098e-06 -4.765470e-06))
1.162274      	((1.257958e-02 -6.939248e-02 -6.004047e-01) (4.586133e-05 -2.083347e-02 -6.227927e-03)) ((3.510730e-06 1.059204e-06 6.671440e-07) (-7.301589e-04 -2.906370e-06 -5.279161e-06))
1.203234      	((1.411228e-02 -6.918981e-02 -5.987049e-01) (5.142434e-05 -2.079879e-02 -6.231671e-03)) ((3.514097e-06 1.075290e-06 6.746124e-07) (-7.290787e-04 -3.275496e-06 -5.867744e-06))
1.244197      	((1.583728e-02 -6.899650e-02 -5.971062e-01) (5.734835e-05 -2.076667e-02 -6.235239e-03)) ((3.512978e-06 1.093186e-06 6.815288e-07) (-7.280803e-04 -3.682660e-06 -6.535507e-06))
1.285162      	((1.775432e-02 -6.888780e-02 -5.956217e-01) (6.419645e-05 -2.073691e-02 -6.238367e-03)) ((3.510029e-06 1.112184e-06 6.891843e-07) (-7.271594e-04 -4.134831e-06 -7.271207e-06))
1.326126      	((1.989855e-02 -6.885085e-02 -5.942380e-01) (7.204438e-05 -2.070955e-02 -6.241049e-03)) ((3.503986e-06 1.135749e-06 6.970651e-07) (-7.263184e-04 -4.642876e-06 -8.079791e-06))
1.367089      	((2.230407e-02 -6.887281e-02 -5.929775e-01) (8.097188e-05 -2.068444e-02 -6.243279e-03)) ((3.495471e-06 1.162877e-06 7.056860e-07) (-7.255568e-04 -5.217571e-06 -8.973450e-06))
1.408048      	((2.501535e-02 -6.894567e-02 -5.918337e-01) (9.114623e-05 -2.066153e-02 -6.244854e-03)) ((3.484628e-06 1.194044e-06 7.135208e-07) (-7.248815e-04 -5.866585e-06 -9.957433e-06))
1.449002      	((2.805539e-02 -6.904638e-02 -5.907858e-01) (1.028833e-04 -2.064081e-02 -6.245553e-03)) ((3.471123e-06 1.230071e-06 7.216895e-07) (-7.243013e-04 -6.598021e-06 -1.104036e-05))
1.489947      	((3.145724e-02 -6.921311e-02 -5.898700e-01) (1.163767e-04 -2.062264e-02 -6.245513e-03)) ((3.453209e-06 1.275291e-06 7.296119e-07) (-7.238222e-04 -7.423547e-06 -1.222729e-05))
1.530883      	((3.528357e-02 -6.945807e-02 -5.890805e-01) (1.318489e-04 -2.060720e-02 -6.244835e-03)) ((3.431086e-06 1.329332e-06 7.373837e-07) (-7.234500e-04 -8.357370e-06 -1.352803e-05))
1.571807      	((3.957589e-02 -6.981872e-02 -5.884289e-01) (1.497033e-04 -2.059447e-02 -6.243162e-03)) ((3.407388e-06 1.391087e-06 7.448294e-07) (-7.232014e-04 -9.416792e-06 -1.495597e-05))
1.612716      	((4.439577e-02 -7.026793e-02 -5.878774e-01) (1.705227e-04 -2.058477e-02 -6.240065e-03)) ((3.379885e-06 1.461727e-06 7.517641e-07) (-7.230981e-04 -1.061397e-05 -1.650955e-05))
1.653608      	((4.980285e-02 -7.086280e-02 -5.874796e-01) (1.950708e-04 -2.057848e-02 -6.235390e-03)) ((3.349440e-06 1.543716e-06 7.575420e-07) (-7.231586e-04 -1.196387e-05 -1.818535e-05))
1.694479      	((5.580498e-02 -7.164891e-02 -5.872825e-01) (2.237832e-04 -2.057639e-02 -6.229015e-03)) ((3.316571e-06 1.637298e-06 7.644376e-07) (-7.234173e-04 -1.348400e-05 -2.000077e-05))
1.735327      	((6.240783e-02 -7.256513e-02 -5.872279e-01) (2.565493e-04 -2.057903e-02 -6.220421e-03)) ((3.284343e-06 1.740759e-06 7.708979e-07) (-7.239074e-04 -1.517587e-05 -2.197190e-05))
1.776147      	((6.968216e-02 -7.381231e-02 -5.874981e-01) (2.938986e-04 -2.058687e-02 -6.208591e-03)) ((3.259250e-06 1.852646e-06 7.766556e-07) (-7.246880e-04 -1.705558e-05 -2.410402e-05))
1.816937      	((7.759813e-02 -7.543535e-02 -5.880400e-01) (3.357405e-04 -2.060046e-02 -6.193074e-03)) ((3.240578e-06 1.975481e-06 7.818434e-07) (-7.258073e-04 -1.915325e-05 -2.643321e-05))
1.857693      	((8.621832e-02 -7.745539e-02 -5.889117e-01) (3.816590e-04 -2.062125e-02 -6.173769e-03)) ((3.225624e-06 2.105873e-06 7.860030e-07) (-7.273139e-04 -2.149317e-05 -2.899088e-05))
1.89841       	((9.536812e-02 -7.982783e-02 -5.900085e-01) (4.317342e-04 -2.065114e-02 -6.150700e-03)) ((3.214551e-06 2.240607e-06 7.872206e-07) (-7.292398e-04 -2.407522e-05 -3.177309e-05))
1.939084      	((1.049512e-01 -8.279238e-02 -5.914849e-01) (4.862209e-04 -2.069090e-02 -6.124106e-03)) ((3.212945e-06 2.379853e-06 7.862357e-07) (-7.315832e-04 -2.690218e-05 -3.475946e-05))
1.979707      	((1.148666e-01 -8.637053e-02 -5.932551e-01) (5.453515e-04 -2.073961e-02 -6.094391e-03)) ((3.212837e-06 2.530666e-06 7.863591e-07) (-7.343450e-04 -2.996825e-05 -3.796034e-05))
2.02027       	((1.247552e-01 -9.047876e-02 -5.953777e-01) (6.078027e-04 -2.079628e-02 -6.061834e-03)) ((3.213252e-06 2.677680e-06 7.918359e-07) (-7.375081e-04 -3.322330e-05 -4.140216e-05))
2.060768      	((1.343776e-01 -9.515790e-02 -5.978256e-01) (6.722391e-04 -2.086115e-02 -6.026521e-03)) ((3.213848e-06 2.807075e-06 8.050736e-07) (-7.410603e-04 -3.659105e-05 -4.501568e-05))
2.101199      	((1.429011e-01 -1.005212e-01 -6.008543e-01) (7.362120e-04 -2.093627e-02 -5.988549e-03)) ((3.230702e-06 2.899056e-06 8.202786e-07) (-7.450184e-04 -3.996740e-05 -4.872490e-05))
2.141563      	((1.498492e-01 -1.061045e-01 -6.046242e-01) (7.968946e-04 -2.102141e-02 -5.947892e-03)) ((3.246091e-06 2.954665e-06 8.320701e-07) (-7.493656e-04 -4.323117e-05 -5.242793e-05))
2.181861      	((1.551039e-01 -1.113663e-01 -6.083877e-01) (8.510648e-04 -2.111577e-02 -5.904665e-03)) ((3.253684e-06 2.976138e-06 8.400816e-07) (-7.540349e-04 -4.627198e-05 -5.604033e-05))
2.222095      	((1.583633e-01 -1.160952e-01 -6.125757e-01) (8.957588e-04 -2.121706e-02 -5.859888e-03)) ((3.253913e-06 2.957428e-06 8.459820e-07) (-7.588731e-04 -4.898583e-05 -5.944096e-05))
2.26226       	((1.590867e-01 -1.199917e-01 -6.166895e-01) (9.294114e-04 -2.132051e-02 -5.815082e-03)) ((3.257414e-06 2.886518e-06 8.533582e-07) (-7.636904e-04 -5.124003e-05 -6.244680e-05))
2.302353      	((1.572515e-01 -1.225640e-01 -6.207799e-01) (9.489510e-04 -2.142064e-02 -5.772263e-03)) ((3.252036e-06 2.774625e-06 8.658694e-07) (-7.682724e-04 -5.284392e-05 -6.495118e-05))
2.342386      	((1.529731e-01 -1.239374e-01 -6.246573e-01) (9.476922e-04 -2.151471e-02 -5.732893e-03)) ((3.241752e-06 2.610881e-06 8.794157e-07) (-7.724926e-04 -5.358530e-05 -6.702932e-05))
2.382373      	((1.470700e-01 -1.238718e-01 -6.281911e-01) (9.225179e-04 -2.160033e-02 -5.696552e-03)) ((3.231005e-06 2.419222e-06 8.751899e-07) (-7.763220e-04 -5.336019e-05 -6.873207e-05))
2.422331      	((1.400338e-01 -1.227067e-01 -6.313192e-01) (8.762345e-04 -2.167553e-02 -5.663519e-03)) ((3.208451e-06 2.233769e-06 8.523724e-07) (-7.797253e-04 -5.221784e-05 -6.998212e-05))
2.462275      	((1.328894e-01 -1.209980e-01 -6.344238e-01) (8.158590e-04 -2.174144e-02 -5.633958e-03)) ((3.180566e-06 2.077859e-06 8.320140e-07) (-7.827791e-04 -5.032711e-05 -7.065976e-05))
2.502217      	((1.264740e-01 -1.188377e-01 -6.373384e-01) (7.509416e-04 -2.180039e-02 -5.607927e-03)) ((3.143167e-06 1.972000e-06 8.149678e-07) (-7.856081e-04 -4.799771e-05 -7.068876e-05))
2.542165      	((1.209556e-01 -1.161718e-01 -6.403405e-01) (6.894383e-04 -2.185297e-02 -5.587817e-03)) ((3.071268e-06 1.924247e-06 8.022453e-07) (-7.881762e-04 -4.554986e-05 -7.007013e-05))
2.582123      	((1.170553e-01 -1.132979e-01 -6.432418e-01) (6.385502e-04 -2.189840e-02 -5.578751e-03)) ((2.945654e-06 1.946413e-06 7.992578e-07) (-7.902735e-04 -4.330711e-05 -6.889331e-05))
2.622095      	((1.142404e-01 -1.103448e-01 -6.461915e-01) (6.030399e-04 -2.193578e-02 -5.586848e-03)) ((2.782125e-06 2.015219e-06 8.002240e-07) (-7.916260e-04 -4.155001e-05 -6.726637e-05))
2.662082      	((1.122658e-01 -1.076828e-01 -6.492042e-01) (5.827518e-04 -2.196452e-02 -5.612899e-03)) ((2.619512e-06 2.102530e-06 7.952411e-07) (-7.921341e-04 -4.036359e-05 -6.533779e-05))
2.702084      	((1.106785e-01 -1.049942e-01 -6.517210e-01) (5.673198e-04 -2.198075e-02 -5.651370e-03)) ((2.459575e-06 2.199604e-06 7.806010e-07) (-7.919027e-04 -3.958595e-05 -6.367786e-05))
2.7421        	((1.090197e-01 -1.028021e-01 -6.536456e-01) (5.492824e-04 -2.198464e-02 -5.692319e-03)) ((2.331467e-06 2.272816e-06 7.655585e-07) (-7.912567e-04 -3.892978e-05 -6.256296e-05))
2.782129      	((1.071557e-01 -1.007787e-01 -6.547472e-01) (5.252115e-04 -2.198053e-02 -5.728160e-03)) ((2.243789e-06 2.293820e-06 7.586778e-07) (-7.904352e-04 -3.815620e-05 -6.194168e-05))
2.822171      	((1.051246e-01 -9.942853e-02 -6.549494e-01) (4.941366e-04 -2.196875e-02 -5.754450e-03)) ((2.222256e-06 2.239000e-06 7.597552e-07) (-7.895543e-04 -3.716631e-05 -6.182796e-05))
2.862224      	((1.028966e-01 -9.885498e-02 -6.548006e-01) (4.577834e-04 -2.195340e-02 -5.768666e-03)) ((2.285506e-06 2.099458e-06 7.583632e-07) (-7.887494e-04 -3.594128e-05 -6.202813e-05))
2.902289      	((1.009547e-01 -9.870995e-02 -6.543053e-01) (4.202133e-04 -2.193865e-02 -5.772246e-03)) ((2.372746e-06 1.935396e-06 7.557128e-07) (-7.881088e-04 -3.455343e-05 -6.229317e-05))
2.942364      	((9.948941e-02 -9.871752e-02 -6.537522e-01) (3.878945e-04 -2.192713e-02 -5.767528e-03)) ((2.445042e-06 1.785732e-06 7.508252e-07) (-7.876683e-04 -3.306844e-05 -6.235774e-05))
2.982449      	((9.828971e-02 -9.927405e-02 -6.532466e-01) (3.592124e-04 -2.191958e-02 -5.760513e-03)) ((2.518610e-06 1.653752e-06 7.362262e-07) (-7.873251e-04 -3.166346e-05 -6.231354e-05))
3.022544      	((9.761314e-02 -1.004742e-01 -6.531914e-01) (3.275144e-04 -2.191510e-02 -5.753145e-03)) ((2.594259e-06 1.560430e-06 7.218184e-07) (-7.871410e-04 -3.037398e-05 -6.251066e-05))
3.062647      	((9.779750e-02 -1.010324e-01 -6.532275e-01) (2.955099e-04 -2.190965e-02 -5.745761e-03)) ((2.621537e-06 1.550332e-06 7.163475e-07) (-7.871593e-04 -2.918378e-05 -6.304151e-05))
3.102758      	((9.875524e-02 -1.012197e-01 -6.537496e-01) (2.681000e-04 -2.190388e-02 -5.744015e-03)) ((2.592385e-06 1.635760e-06 7.293896e-07) (-7.872207e-04 -2.826671e-05 -6.369490e-05))
3.142877      	((1.003886e-01 -1.009922e-01 -6.547505e-01) (2.508279e-04 -2.189760e-02 -5.753323e-03)) ((2.492440e-06 1.816896e-06 7.573987e-07) (-7.871619e-04 -2.785958e-05 -6.424123e-05))
3.183003      	((1.020713e-01 -1.000452e-01 -6.559258e-01) (2.519232e-04 -2.189121e-02 -5.777336e-03)) ((2.329184e-06 2.044965e-06 7.791170e-07) (-7.867999e-04 -2.810605e-05 -6.428225e-05))
3.223135      	((1.033674e-01 -9.896828e-02 -6.570747e-01) (2.687457e-04 -2.188493e-02 -5.815913e-03)) ((2.150561e-06 2.263027e-06 7.833334e-07) (-7.860033e-04 -2.893506e-05 -6.380025e-05))
3.263271      	((1.038596e-01 -9.835547e-02 -6.578257e-01) (2.910891e-04 -2.187843e-02 -5.860714e-03)) ((2.016623e-06 2.412460e-06 7.744744e-07) (-7.849183e-04 -3.004055e-05 -6.310637e-05))
3.303409      	((1.035924e-01 -9.837925e-02 -6.580654e-01) (3.104473e-04 -2.187038e-02 -5.901388e-03)) ((1.956560e-06 2.465973e-06 7.686085e-07) (-7.837850e-04 -3.107597e-05 -6.250031e-05))
3.343549      	((1.031594e-01 -9.947576e-02 -6.578155e-01) (3.224974e-04 -2.185922e-02 -5.929734e-03)) ((1.989469e-06 2.421222e-06 7.770741e-07) (-7.828474e-04 -3.177276e-05 -6.224969e-05))
3.383688      	((1.026021e-01 -1.006213e-01 -6.571891e-01) (3.252357e-04 -2.184585e-02 -5.942231e-03)) ((2.058535e-06 2.310985e-06 7.906445e-07) (-7.822369e-04 -3.198224e-05 -6.243380e-05))
3.423827      	((1.021955e-01 -1.018451e-01 -6.564775e-01) (3.160338e-04 -2.183033e-02 -5.941531e-03)) ((2.140515e-06 2.176324e-06 8.012975e-07) (-7.819264e-04 -3.174016e-05 -6.313127e-05))
3.463966      	((1.017197e-01 -1.030402e-01 -6.559908e-01) (2.972421e-04 -2.181474e-02 -5.929305e-03)) ((2.245727e-06 2.009698e-06 8.117018e-07) (-7.819545e-04 -3.107624e-05 -6.421243e-05))
3.504103      	((1.006792e-01 -1.041767e-01 -6.556965e-01) (2.714625e-04 -2.180074e-02 -5.908734e-03)) ((2.371286e-06 1.834701e-06 8.089802e-07) (-7.822955e-04 -3.006314e-05 -6.549848e-05))
3.544239      	((9.927108e-02 -1.049448e-01 -6.556935e-01) (2.435067e-04 -2.179137e-02 -5.884836e-03)) ((2.474007e-06 1.718588e-06 7.834979e-07) (-7.828835e-04 -2.885197e-05 -6.660602e-05))
3.584376      	((9.781982e-02 -1.050863e-01 -6.559046e-01) (2.196475e-04 -2.178897e-02 -5.864311e-03)) ((2.520636e-06 1.690475e-06 7.528729e-07) (-7.835885e-04 -2.768112e-05 -6.720362e-05))
