# Forces      
# CofR        : (0.000000e+00 0.000000e+00 0.000000e+00)
# Time        forces(pressure viscous)	moments(pressure viscous)
0             	((0.000000e+00 0.000000e+00 0.000000e+00) (0.000000e+00 0.000000e+00 0.000000e+00)) ((0.000000e+00 0.000000e+00 0.000000e+00) (0.000000e+00 0.000000e+00 0.000000e+00))
0.012         	((-1.415650e-05 5.309358e-10 -4.818218e-06) (-3.321133e-05 5.395744e-14 -3.585063e-09)) ((-2.191229e-13 2.155088e-09 -1.745282e-13) (-3.636194e-14 2.210103e-06 -1.591616e-14))
0.0264        	((-1.952088e-05 1.136533e-08 -6.311005e-06) (-3.042345e-05 3.421242e-12 -3.642845e-09)) ((-1.185940e-13 -1.085964e-09 -4.613348e-14) (-1.377952e-13 2.026770e-06 1.041214e-13))
0.04368       	((-1.299380e-05 -6.821234e-09 -4.328126e-06) (-2.755111e-05 -2.481246e-12 -4.275796e-09)) ((-2.466769e-13 -7.734354e-10 -1.484255e-13) (-3.164304e-13 1.838497e-06 3.633852e-13))
0.064416      	((-1.487257e-05 8.106754e-09 -4.840889e-06) (-2.466143e-05 -6.684957e-12 -6.680688e-09)) ((-1.155077e-13 -1.506112e-09 1.405361e-14) (-6.899782e-13 1.649787e-06 4.344193e-13))
0.0892992     	((-1.089338e-05 -3.482922e-09 -3.645479e-06) (-2.184060e-05 -6.254101e-12 -1.142147e-08)) ((-9.900272e-14 -1.065189e-09 -9.211850e-14) (-1.200652e-12 1.466322e-06 1.274774e-13))
0.119159      	((-1.123829e-05 3.963866e-09 -3.638170e-06) (-1.918131e-05 2.564809e-12 -1.781664e-08)) ((-1.011240e-13 -1.294638e-09 4.190827e-15) (-1.075507e-12 1.294301e-06 -2.158804e-13))
0.154991      	((-8.481149e-06 -2.050565e-09 -2.895872e-06) (-1.676859e-05 8.235190e-12 -2.528107e-08)) ((-6.707693e-15 -8.999933e-10 -2.009811e-14) (-1.127644e-12 1.137503e-06 -6.914296e-13))
0.197989      	((-8.404751e-06 1.562035e-09 -2.734026e-06) (-1.463952e-05 1.234548e-11 -3.444933e-08)) ((3.663605e-14 -1.026981e-09 -1.217530e-14) (-1.206819e-12 9.989876e-07 -1.178459e-12))
0.249587      	((-6.561712e-06 -9.576585e-10 -2.273177e-06) (-1.281354e-05 1.708778e-11 -4.476179e-08)) ((2.396950e-14 -7.381399e-10 -4.608630e-14) (-9.642648e-13 8.794057e-07 -1.474152e-12))
0.311504      	((-6.384602e-06 4.019359e-10 -2.105129e-06) (-1.128222e-05 1.541511e-11 -5.422921e-08)) ((8.288466e-14 -8.268333e-10 -2.880895e-14) (-9.497854e-13 7.784787e-07 -1.480299e-12))
0.385805      	((-5.177760e-06 -1.600233e-10 -1.824848e-06) (-9.999711e-06 1.278887e-11 -6.379117e-08)) ((2.152182e-14 -6.272305e-10 -3.032456e-14) (-7.927135e-13 6.937105e-07 -1.387962e-12))
0.474966      	((-4.991692e-06 3.226184e-10 -1.693798e-06) (-8.919210e-06 9.601653e-12 -6.940260e-08)) ((1.025821e-13 -6.876748e-10 -1.658653e-14) (-5.129174e-13 6.222400e-07 -1.202334e-12))
0.581959      	((-4.182931e-06 1.126547e-10 -1.508718e-06) (-7.996577e-06 1.355109e-11 -7.549769e-08)) ((1.621027e-14 -5.514353e-10 -4.850879e-15) (3.606932e-13 5.611625e-07 -1.247272e-12))
0.710351      	((-3.993574e-06 1.429143e-10 -1.412652e-06) (-7.198187e-06 1.914150e-11 -7.723003e-08)) ((1.532886e-13 -5.865194e-10 2.947484e-15) (1.051287e-12 5.083622e-07 -1.438576e-12))
0.864421      	((-3.441872e-06 5.546043e-10 -1.285090e-06) (-6.497772e-06 1.555588e-11 -8.265723e-08)) ((8.458809e-14 -5.069972e-10 5.609512e-15) (8.031535e-13 4.621457e-07 -1.649452e-12))
1.049306      	((-3.235086e-06 2.154753e-10 -1.211381e-06) (-5.876549e-06 7.339873e-12 -8.675590e-08)) ((1.683560e-13 -5.161758e-10 3.647699e-14) (-1.227686e-12 4.213080e-07 -1.842361e-12))
1.271167      	((-2.829782e-06 5.900212e-10 -1.127015e-06) (-5.319703e-06 4.100272e-12 -9.345983e-08)) ((1.256262e-13 -4.661085e-10 6.913813e-14) (-3.884923e-12 3.848136e-07 -1.981107e-12))
1.5374        	((-2.630922e-06 4.151930e-10 -1.064867e-06) (-4.819076e-06 2.382263e-11 -9.866254e-08)) ((2.028901e-13 -4.593098e-10 1.014252e-13) (-5.767027e-12 3.521481e-07 -2.622498e-12))
1.85688       	((-2.326999e-06 4.832517e-10 -9.972549e-07) (-4.369715e-06 5.141974e-11 -1.043112e-07)) ((2.177938e-13 -4.199343e-10 1.044496e-13) (-7.991451e-12 3.229189e-07 -2.878322e-12))
2.240256      	((-2.152183e-06 2.421743e-10 -9.505001e-07) (-3.970319e-06 7.275694e-11 -1.090376e-07)) ((2.575359e-13 -4.136450e-10 1.141930e-13) (-1.034271e-11 2.970104e-07 -1.742423e-12))
2.700307      	((-1.918597e-06 1.215720e-10 -9.062159e-07) (-3.618177e-06 6.895842e-11 -1.131445e-07)) ((2.460230e-13 -3.875889e-10 9.193524e-14) (-1.220460e-11 2.742064e-07 1.059064e-12))
3.252369      	((-1.773899e-06 3.497043e-11 -8.749811e-07) (-3.309186e-06 7.406920e-11 -1.175617e-07)) ((2.279331e-13 -3.827928e-10 8.439260e-14) (-1.367903e-11 2.541912e-07 4.760719e-12))
3.914842      	((-1.603946e-06 -1.196592e-10 -8.474641e-07) (-3.038696e-06 7.680745e-11 -1.208868e-07)) ((2.290023e-13 -3.652494e-10 7.728964e-14) (-1.385938e-11 2.367262e-07 8.588943e-12))
4.709811      	((-1.488291e-06 -1.648996e-10 -8.367992e-07) (-2.800098e-06 1.242757e-10 -1.254473e-07)) ((2.001148e-13 -3.610853e-10 8.299069e-14) (-1.277939e-11 2.213490e-07 1.150693e-11))
5.663773      	((-1.357951e-06 -2.405873e-10 -8.302441e-07) (-2.587504e-06 1.450468e-10 -1.295793e-07)) ((1.636251e-13 -3.508897e-10 6.961596e-14) (-9.963412e-12 2.077453e-07 1.370867e-11))
6.808528      	((-1.263389e-06 2.615921e-11 -8.309449e-07) (-2.395974e-06 1.678362e-10 -1.336541e-07)) ((1.083850e-13 -3.467249e-10 9.919616e-14) (-6.697020e-12 1.955469e-07 1.442807e-11))
8.182233      	((-1.168180e-06 1.090362e-10 -8.341302e-07) (-2.222030e-06 1.841339e-10 -1.380913e-07)) ((6.452891e-14 -3.408848e-10 1.149789e-13) (-5.608814e-12 1.845188e-07 1.405540e-11))
9.83068       	((-1.092888e-06 1.026240e-10 -8.434599e-07) (-2.063137e-06 1.897977e-10 -1.427672e-07)) ((5.913276e-14 -3.379015e-10 1.211341e-13) (-6.519079e-12 1.745135e-07 1.265668e-11))
11.808816     	((-1.016779e-06 1.323132e-10 -8.577040e-07) (-1.917275e-06 2.022412e-10 -1.476068e-07)) ((4.080794e-14 -3.347258e-10 1.258534e-13) (-8.630744e-12 1.653986e-07 9.816023e-12))
14.182579     	((-9.541649e-07 1.703489e-10 -8.774389e-07) (-1.782850e-06 2.028406e-10 -1.527393e-07)) ((3.724608e-14 -3.332250e-10 1.236054e-13) (-1.140623e-11 1.570895e-07 7.161361e-12))
17.031095     	((-8.950371e-07 4.327233e-10 -8.984065e-07) (-1.659084e-06 2.030879e-10 -1.586938e-07)) ((3.897884e-14 -3.317316e-10 1.108044e-13) (-1.274423e-11 1.495396e-07 4.661594e-12))
20.449314     	((-8.484203e-07 4.516902e-10 -9.221125e-07) (-1.546206e-06 1.752568e-10 -1.657187e-07)) ((5.716886e-14 -3.307586e-10 9.968306e-14) (-1.143582e-11 1.427532e-07 2.600571e-12))
24.551176     	((-8.085571e-07 2.215072e-10 -9.464905e-07) (-1.444520e-06 1.468361e-10 -1.739685e-07)) ((5.534511e-14 -3.300288e-10 8.625730e-14) (-9.482451e-12 1.367209e-07 1.349385e-12))
29.473411     	((-7.773895e-07 1.789751e-10 -9.744326e-07) (-1.353638e-06 1.220965e-10 -1.837028e-07)) ((4.835335e-14 -3.298683e-10 7.257026e-14) (-8.538984e-12 1.314031e-07 9.467828e-13))
35.380094     	((-7.509498e-07 9.622666e-11 -1.004543e-06) (-1.273095e-06 9.570120e-11 -1.945688e-07)) ((4.747320e-14 -3.298729e-10 5.965327e-14) (-8.092664e-12 1.267447e-07 1.007490e-12))
42.468112     	((-7.295825e-07 -1.227871e-11 -1.037858e-06) (-1.202156e-06 5.247868e-11 -2.064817e-07)) ((4.679827e-14 -3.299331e-10 4.922028e-14) (-7.973901e-12 1.226972e-07 9.717621e-13))
50.973735     	((-7.169189e-07 -1.028641e-10 -1.073594e-06) (-1.140492e-06 1.761786e-11 -2.195572e-07)) ((3.695028e-14 -3.300979e-10 5.117917e-14) (-8.295516e-12 1.192064e-07 9.013954e-13))
61.180482     	((-7.142070e-07 -1.898933e-10 -1.113591e-06) (-1.088049e-06 -1.255416e-11 -2.337577e-07)) ((3.724373e-14 -3.304757e-10 4.524021e-14) (-8.464943e-12 1.162290e-07 6.326122e-13))
73.140228     	((-7.192703e-07 -2.126225e-10 -1.156428e-06) (-1.045080e-06 -4.056519e-11 -2.490004e-07)) ((3.651614e-14 -3.310592e-10 4.535738e-14) (-8.199459e-12 1.137499e-07 3.397076e-13))
86.853308     	((-7.316575e-07 -2.447154e-10 -1.199561e-06) (-1.011344e-06 -6.581333e-11 -2.646770e-07)) ((3.956095e-14 -3.318158e-10 4.766653e-14) (-7.925141e-12 1.117367e-07 6.148816e-13))
102.320693    	((-7.499105e-07 -2.741559e-10 -1.239688e-06) (-9.864831e-07 -9.140268e-11 -2.797346e-07)) ((3.986715e-14 -3.327273e-10 4.686872e-14) (-7.715723e-12 1.101510e-07 1.311498e-12))
119.544032    	((-7.729247e-07 -2.797409e-10 -1.273840e-06) (-9.698374e-07 -1.104857e-10 -2.929711e-07)) ((4.189289e-14 -3.336369e-10 4.486107e-14) (-7.591678e-12 1.089553e-07 1.742477e-12))
137.125239    	((-7.931382e-07 -2.938034e-10 -1.297810e-06) (-9.602184e-07 -1.290131e-10 -3.033719e-07)) ((4.103310e-14 -3.344568e-10 4.227784e-14) (-7.646421e-12 1.081198e-07 2.056313e-12))
154.729139    	((-8.087546e-07 -3.057152e-10 -1.315786e-06) (-9.553607e-07 -1.433130e-10 -3.109112e-07)) ((4.042656e-14 -3.351426e-10 4.125782e-14) (-7.837444e-12 1.075586e-07 2.243321e-12))
172.356182    	((-8.189410e-07 -3.265600e-10 -1.328310e-06) (-9.532453e-07 -1.533482e-10 -3.160776e-07)) ((4.510957e-14 -3.355935e-10 3.954462e-14) (-8.077840e-12 1.071911e-07 2.385932e-12))
190.003419    	((-8.255530e-07 -3.313920e-10 -1.336597e-06) (-9.524429e-07 -1.593336e-10 -3.195149e-07)) ((4.802487e-14 -3.358630e-10 3.789953e-14) (-8.250179e-12 1.069529e-07 2.504839e-12))
207.665887    	((-8.297615e-07 -3.228472e-10 -1.342767e-06) (-9.521994e-07 -1.624732e-10 -3.217342e-07)) ((4.679543e-14 -3.360104e-10 3.752872e-14) (-8.347229e-12 1.068014e-07 2.545916e-12))
225.341346    	((-8.322380e-07 -3.198182e-10 -1.347345e-06) (-9.521098e-07 -1.654148e-10 -3.231780e-07)) ((4.767012e-14 -3.360750e-10 3.720591e-14) (-8.326768e-12 1.067043e-07 2.553399e-12))
243.029287    	((-8.330679e-07 -3.150835e-10 -1.351135e-06) (-9.519949e-07 -1.672617e-10 -3.242048e-07)) ((4.761430e-14 -3.360705e-10 3.697189e-14) (-8.236909e-12 1.066378e-07 2.526298e-12))
260.728308    	((-8.329280e-07 -3.072784e-10 -1.354106e-06) (-9.517942e-07 -1.677300e-10 -3.250252e-07)) ((4.795036e-14 -3.360300e-10 3.748309e-14) (-8.118531e-12 1.065874e-07 2.438513e-12))
278.436042    	((-8.321530e-07 -2.958818e-10 -1.355940e-06) (-9.515355e-07 -1.678663e-10 -3.257325e-07)) ((4.776381e-14 -3.359761e-10 3.789214e-14) (-8.025472e-12 1.065463e-07 2.296384e-12))
296.150538    	((-8.307305e-07 -2.835119e-10 -1.357398e-06) (-9.512458e-07 -1.680151e-10 -3.263437e-07)) ((4.804063e-14 -3.359009e-10 3.824915e-14) (-7.979262e-12 1.065100e-07 2.106662e-12))
313.870534    	((-8.293964e-07 -2.739556e-10 -1.358608e-06) (-9.509483e-07 -1.680411e-10 -3.268561e-07)) ((4.822924e-14 -3.358275e-10 3.833843e-14) (-7.979294e-12 1.064759e-07 1.946641e-12))
331.594957    	((-8.286587e-07 -2.632618e-10 -1.359586e-06) (-9.507000e-07 -1.685001e-10 -3.273101e-07)) ((4.748491e-14 -3.357715e-10 3.830609e-14) (-8.005700e-12 1.064457e-07 1.837065e-12))
349.323039    	((-8.279175e-07 -2.557757e-10 -1.360479e-06) (-9.505239e-07 -1.695117e-10 -3.277645e-07)) ((4.709149e-14 -3.357280e-10 3.847343e-14) (-8.071625e-12 1.064211e-07 1.783871e-12))
367.054208    	((-8.273368e-07 -2.384923e-10 -1.361383e-06) (-9.504214e-07 -1.710753e-10 -3.282543e-07)) ((4.713626e-14 -3.356945e-10 3.850243e-14) (-8.142300e-12 1.064023e-07 1.792134e-12))
384.78807     	((-8.267344e-07 -2.170311e-10 -1.362253e-06) (-9.503818e-07 -1.709898e-10 -3.287670e-07)) ((4.680091e-14 -3.356583e-10 3.873216e-14) (-8.133136e-12 1.063884e-07 1.808280e-12))
402.524377    	((-8.263650e-07 -2.183168e-10 -1.363082e-06) (-9.504032e-07 -1.717289e-10 -3.292784e-07)) ((4.674744e-14 -3.356269e-10 3.897047e-14) (-8.117182e-12 1.063785e-07 1.843447e-12))
420.262964    	((-8.260091e-07 -2.205730e-10 -1.363962e-06) (-9.504795e-07 -1.730730e-10 -3.297738e-07)) ((4.672080e-14 -3.355961e-10 3.910928e-14) (-8.126200e-12 1.063717e-07 1.918709e-12))
438.003682    	((-8.258960e-07 -2.272831e-10 -1.364641e-06) (-9.506063e-07 -1.743149e-10 -3.302369e-07)) ((4.687055e-14 -3.355715e-10 3.922696e-14) (-8.170285e-12 1.063681e-07 2.037049e-12))
455.746474    	((-8.258376e-07 -2.453956e-10 -1.365185e-06) (-9.507803e-07 -1.765992e-10 -3.306606e-07)) ((4.739402e-14 -3.355478e-10 3.909855e-14) (-8.283363e-12 1.063674e-07 2.206898e-12))
473.491306    	((-8.256006e-07 -2.599117e-10 -1.365705e-06) (-9.509747e-07 -1.792649e-10 -3.310586e-07)) ((4.805228e-14 -3.355225e-10 3.894434e-14) (-8.455603e-12 1.063683e-07 2.433878e-12))
491.238069    	((-8.253691e-07 -2.603197e-10 -1.366282e-06) (-9.511770e-07 -1.809297e-10 -3.314387e-07)) ((4.842812e-14 -3.354988e-10 3.883373e-14) (-8.595122e-12 1.063703e-07 2.690042e-12))
508.986631    	((-8.251144e-07 -2.547829e-10 -1.366503e-06) (-9.513824e-07 -1.810845e-10 -3.318042e-07)) ((4.857676e-14 -3.354768e-10 3.873814e-14) (-8.646538e-12 1.063731e-07 2.950585e-12))
526.73685     	((-8.248781e-07 -2.571329e-10 -1.366593e-06) (-9.515878e-07 -1.806564e-10 -3.321535e-07)) ((4.881109e-14 -3.354579e-10 3.863603e-14) (-8.615825e-12 1.063763e-07 3.175776e-12))
544.488592    	((-8.246351e-07 -2.587087e-10 -1.366630e-06) (-9.517917e-07 -1.797847e-10 -3.324843e-07)) ((4.931577e-14 -3.354413e-10 3.868592e-14) (-8.530617e-12 1.063799e-07 3.358965e-12))
562.241742    	((-8.245270e-07 -2.674450e-10 -1.366687e-06) (-9.520002e-07 -1.789176e-10 -3.327911e-07)) ((5.009863e-14 -3.354292e-10 3.878815e-14) (-8.432809e-12 1.063841e-07 3.491257e-12))
579.996206    	((-8.244769e-07 -2.717982e-10 -1.366764e-06) (-9.522173e-07 -1.781875e-10 -3.330735e-07)) ((5.078456e-14 -3.354184e-10 3.887675e-14) (-8.338305e-12 1.063890e-07 3.568072e-12))
597.751887    	((-8.244310e-07 -2.769838e-10 -1.366810e-06) (-9.524404e-07 -1.778401e-10 -3.333360e-07)) ((5.133123e-14 -3.354073e-10 3.889520e-14) (-8.272256e-12 1.063944e-07 3.606511e-12))
615.50868     	((-8.243537e-07 -2.701904e-10 -1.366857e-06) (-9.526632e-07 -1.768245e-10 -3.335839e-07)) ((5.168215e-14 -3.353953e-10 3.885466e-14) (-8.199561e-12 1.064000e-07 3.619888e-12))
633.266484    	((-8.242448e-07 -2.703217e-10 -1.366882e-06) (-9.528821e-07 -1.755395e-10 -3.338191e-07)) ((5.211236e-14 -3.353832e-10 3.877450e-14) (-8.126136e-12 1.064056e-07 3.622486e-12))
651.025199    	((-8.240628e-07 -2.662312e-10 -1.366849e-06) (-9.530876e-07 -1.741168e-10 -3.340421e-07)) ((5.232487e-14 -3.353710e-10 3.885557e-14) (-8.051784e-12 1.064107e-07 3.624405e-12))
668.784754    	((-8.239327e-07 -2.669968e-10 -1.366829e-06) (-9.532812e-07 -1.730950e-10 -3.342494e-07)) ((5.270826e-14 -3.353604e-10 3.898947e-14) (-7.988345e-12 1.064155e-07 3.632862e-12))
686.545094    	((-8.237896e-07 -2.652074e-10 -1.366796e-06) (-9.534626e-07 -1.722250e-10 -3.344423e-07)) ((5.312603e-14 -3.353505e-10 3.911512e-14) (-7.929148e-12 1.064200e-07 3.647266e-12))
704.306169    	((-8.236882e-07 -2.677405e-10 -1.366784e-06) (-9.536347e-07 -1.718063e-10 -3.346212e-07)) ((5.362610e-14 -3.353419e-10 3.921694e-14) (-7.885932e-12 1.064242e-07 3.667803e-12))
722.067937    	((-8.235436e-07 -2.635410e-10 -1.366747e-06) (-9.537956e-07 -1.713910e-10 -3.347897e-07)) ((5.393489e-14 -3.353328e-10 3.927941e-14) (-7.845760e-12 1.064282e-07 3.691461e-12))
739.830355    	((-8.234060e-07 -2.577321e-10 -1.366725e-06) (-9.539457e-07 -1.706907e-10 -3.349492e-07)) ((5.413371e-14 -3.353240e-10 3.932663e-14) (-7.788940e-12 1.064319e-07 3.715804e-12))
757.593384    	((-8.232413e-07 -2.556233e-10 -1.366686e-06) (-9.540847e-07 -1.700820e-10 -3.351006e-07)) ((5.432058e-14 -3.353151e-10 3.939192e-14) (-7.729222e-12 1.064352e-07 3.740954e-12))
