# Forces      
# CofR        : (0.000000e+00 0.000000e+00 0.000000e+00)
# Time        forces(pressure viscous)	moments(pressure viscous)
0             	((0.000000e+00 0.000000e+00 0.000000e+00) (0.000000e+00 0.000000e+00 0.000000e+00)) ((0.000000e+00 0.000000e+00 0.000000e+00) (0.000000e+00 0.000000e+00 0.000000e+00))
0.012         	((9.408774e-09 -4.570383e-05 -7.421695e-06) (-2.980092e-11 -1.050353e-04 -5.533983e-09)) ((-6.795095e-09 -2.589776e-11 6.264732e-11) (-6.989705e-06 -1.756975e-12 -1.150970e-11))
0.0264        	((3.819739e-08 -6.141897e-05 -1.574861e-05) (-4.156272e-12 -9.622697e-05 -1.774035e-08)) ((2.867945e-09 -5.728288e-11 3.011655e-11) (-6.410656e-06 -3.867973e-12 -1.024214e-11))
0.04368       	((-1.092492e-08 -4.152049e-05 -8.644218e-06) (-8.957559e-11 -8.718318e-05 -4.172249e-08)) ((2.006441e-09 -3.823857e-11 3.444992e-11) (-5.818264e-06 8.201809e-13 -2.301841e-11))
0.064416      	((3.114193e-08 -4.696046e-05 -1.125297e-05) (-1.453820e-10 -7.814226e-05 -7.876228e-08)) ((4.157546e-09 -5.284290e-11 2.383450e-11) (-5.228630e-06 -9.689834e-12 -2.806030e-11))
0.0892992     	((1.875921e-09 -3.470907e-05 -7.708633e-06) (-1.580812e-10 -6.940017e-05 -1.282065e-07)) ((2.861724e-09 -4.520108e-11 1.528787e-11) (-4.661265e-06 -1.566063e-11 -1.005859e-11))
0.119159      	((2.275358e-08 -3.558233e-05 -8.503033e-06) (-3.984132e-10 -6.125986e-05 -1.868887e-07)) ((3.544239e-09 -4.720352e-11 8.360886e-12) (-4.136191e-06 -2.672286e-11 3.904893e-12))
0.154991      	((1.035459e-08 -2.724058e-05 -6.352393e-06) (-8.126303e-10 -5.396579e-05 -2.564425e-07)) ((2.447869e-09 -4.666063e-11 4.502409e-12) (-3.665383e-06 -4.313122e-11 9.413849e-12))
0.197989      	((1.691711e-08 -2.693839e-05 -6.628663e-06) (-1.235736e-09 -4.758459e-05 -3.405473e-07)) ((2.867412e-09 -4.281433e-11 8.457789e-12) (-3.252446e-06 -7.294276e-11 1.633011e-11))
0.249587      	((1.459127e-08 -2.158315e-05 -5.465459e-06) (-1.811391e-09 -4.207104e-05 -4.324563e-07)) ((2.157469e-09 -4.825016e-11 1.124864e-11) (-2.892463e-06 -9.062018e-11 1.768145e-11))
0.311504      	((1.729770e-08 -2.078546e-05 -5.599287e-06) (-1.869610e-09 -3.731130e-05 -5.122845e-07)) ((2.430905e-09 -4.021293e-11 1.663889e-11) (-2.579521e-06 -1.340940e-10 3.144473e-11))
0.385805      	((1.617949e-08 -1.731773e-05 -4.974354e-06) (-1.782171e-09 -3.318320e-05 -5.943827e-07)) ((1.991334e-09 -4.252418e-11 1.558953e-11) (-2.307046e-06 -1.722612e-10 4.119341e-11))
0.474966      	((1.463870e-08 -1.631783e-05 -5.009953e-06) (-1.908153e-09 -2.959315e-05 -6.594101e-07)) ((2.089482e-09 -4.194680e-11 1.598887e-11) (-2.069380e-06 -1.807831e-10 4.079660e-11))
0.581959      	((1.929225e-08 -1.398770e-05 -4.657456e-06) (-1.624050e-09 -2.647087e-05 -7.265843e-07)) ((1.829090e-09 -3.688516e-11 1.407943e-11) (-1.862585e-06 -1.938370e-10 3.305330e-11))
0.710351      	((1.218699e-08 -1.308837e-05 -4.607731e-06) (-9.512957e-10 -2.375205e-05 -7.857503e-07)) ((1.842461e-09 -4.922778e-11 1.217566e-11) (-1.682894e-06 -2.137804e-10 2.206076e-11))
0.864421      	((1.817529e-08 -1.142940e-05 -4.485017e-06) (-6.360782e-10 -2.137132e-05 -8.438620e-07)) ((1.684314e-09 -3.908499e-11 8.958563e-12) (-1.526046e-06 -2.409020e-10 1.365521e-11))
1.049306      	((8.470904e-09 -1.066169e-05 -4.509125e-06) (-5.247467e-10 -1.927048e-05 -8.932136e-07)) ((1.681894e-09 -5.175986e-11 5.906275e-12) (-1.388323e-06 -2.458547e-10 6.097009e-12))
1.271167      	((1.289846e-08 -9.419326e-06 -4.508738e-06) (-9.397175e-10 -1.740170e-05 -9.396608e-07)) ((1.575473e-09 -4.438574e-11 3.709955e-12) (-1.266348e-06 -2.496292e-10 -1.350610e-11))
1.5374        	((6.009149e-09 -8.745849e-06 -4.579862e-06) (-9.762423e-10 -1.573718e-05 -9.791903e-07)) ((1.562374e-09 -5.619611e-11 2.132702e-12) (-1.158247e-06 -2.803454e-10 -4.840358e-11))
1.85688       	((1.344401e-08 -7.803770e-06 -4.650956e-06) (-6.526013e-10 -1.426110e-05 -1.017368e-06)) ((1.488527e-09 -5.015813e-11 1.837347e-12) (-1.062784e-06 -2.975882e-10 -7.801531e-11))
2.240256      	((8.995181e-09 -7.264382e-06 -4.814206e-06) (-4.129338e-10 -1.296423e-05 -1.051507e-06)) ((1.477135e-09 -5.661227e-11 3.062855e-12) (-9.794085e-07 -2.943342e-10 -9.104623e-11))
2.700307      	((1.200503e-08 -6.569616e-06 -4.980233e-06) (1.023094e-12 -1.183365e-05 -1.087596e-06)) ((1.432271e-09 -5.404127e-11 4.349197e-12) (-9.070880e-07 -2.922541e-10 -1.021432e-10))
3.252369      	((9.795972e-09 -6.174343e-06 -5.203665e-06) (1.866580e-10 -1.085264e-05 -1.127479e-06)) ((1.425599e-09 -5.968816e-11 4.576680e-12) (-8.446044e-07 -2.773926e-10 -1.155057e-10))
3.914842      	((9.972119e-09 -5.700352e-06 -5.430896e-06) (2.820136e-10 -9.996117e-06 -1.172145e-06)) ((1.402409e-09 -6.033602e-11 4.896758e-12) (-7.902566e-07 -2.729261e-10 -1.307191e-10))
4.709811      	((9.256372e-09 -5.431069e-06 -5.725995e-06) (7.039068e-11 -9.240252e-06 -1.220502e-06)) ((1.402593e-09 -6.551551e-11 4.639362e-12) (-7.425488e-07 -2.727778e-10 -1.204225e-10))
5.663773      	((9.211452e-09 -5.141256e-06 -6.006464e-06) (-7.904400e-11 -8.566763e-06 -1.276113e-06)) ((1.394457e-09 -6.773751e-11 4.525737e-12) (-7.003017e-07 -2.777227e-10 -1.007454e-10))
6.808528      	((1.052121e-08 -4.958978e-06 -6.313330e-06) (2.953125e-10 -7.961614e-06 -1.340352e-06)) ((1.399740e-09 -7.177010e-11 4.487447e-12) (-6.627735e-07 -2.804931e-10 -8.481902e-11))
8.182233      	((1.126256e-08 -4.768452e-06 -6.605907e-06) (8.104504e-10 -7.416346e-06 -1.412712e-06)) ((1.399794e-09 -7.395963e-11 4.637280e-12) (-6.293854e-07 -2.784757e-10 -7.254324e-11))
9.83068       	((1.182339e-08 -4.658387e-06 -6.940058e-06) (1.484981e-09 -6.925481e-06 -1.490822e-06)) ((1.408247e-09 -7.693274e-11 4.942207e-12) (-5.996191e-07 -2.758951e-10 -6.850244e-11))
11.808816     	((1.188294e-08 -4.582313e-06 -7.295033e-06) (9.810154e-10 -6.483444e-06 -1.579669e-06)) ((1.416126e-09 -7.885662e-11 5.032041e-12) (-5.731114e-07 -2.645136e-10 -6.630563e-11))
14.182579     	((1.300770e-08 -4.582035e-06 -7.667000e-06) (7.699272e-10 -6.089038e-06 -1.679746e-06)) ((1.428397e-09 -8.137775e-11 5.111621e-12) (-5.496844e-07 -2.619791e-10 -6.899391e-11))
17.031095     	((1.232546e-08 -4.603541e-06 -8.038259e-06) (6.545945e-10 -5.744603e-06 -1.787668e-06)) ((1.440249e-09 -8.318490e-11 5.098095e-12) (-5.292192e-07 -2.577511e-10 -6.380495e-11))
20.449314     	((1.258442e-08 -4.688631e-06 -8.440594e-06) (5.456284e-10 -5.452673e-06 -1.902367e-06)) ((1.455571e-09 -8.523673e-11 5.306965e-12) (-5.117060e-07 -2.555007e-10 -4.891846e-11))
24.438241     	((1.341836e-08 -4.793447e-06 -8.834573e-06) (5.459171e-10 -5.217402e-06 -2.021657e-06)) ((1.470642e-09 -8.695483e-11 5.515654e-12) (-4.972463e-07 -2.548850e-10 -3.162167e-11))
28.996752     	((1.533688e-08 -4.935322e-06 -9.196847e-06) (5.328524e-10 -5.038811e-06 -2.138586e-06)) ((1.484008e-09 -8.870916e-11 5.665044e-12) (-4.855939e-07 -2.543533e-10 -1.355568e-11))
34.124125     	((1.628432e-08 -5.090824e-06 -9.516844e-06) (6.193680e-10 -4.913446e-06 -2.246241e-06)) ((1.493780e-09 -9.023616e-11 5.774812e-12) (-4.764466e-07 -2.529017e-10 -2.833976e-14))
39.808996     	((1.671365e-08 -5.279503e-06 -9.785511e-06) (5.160523e-10 -4.834109e-06 -2.337553e-06)) ((1.502428e-09 -9.196644e-11 5.935654e-12) (-4.695143e-07 -2.527912e-10 7.775551e-12))
45.492517     	((1.622553e-08 -5.453105e-06 -1.000065e-05) (3.097758e-10 -4.793030e-06 -2.403414e-06)) ((1.511494e-09 -9.341144e-11 6.085521e-12) (-4.647192e-07 -2.537561e-10 9.208906e-12))
51.178458     	((1.562605e-08 -5.612423e-06 -1.014150e-05) (8.248491e-11 -4.775798e-06 -2.445043e-06)) ((1.520333e-09 -9.449960e-11 6.219264e-12) (-4.615950e-07 -2.482356e-10 7.408877e-12))
56.870363     	((1.550492e-08 -5.735380e-06 -1.024689e-05) (-1.556680e-10 -4.771867e-06 -2.468181e-06)) ((1.527983e-09 -9.509166e-11 6.352829e-12) (-4.596975e-07 -2.411636e-10 3.259928e-12))
62.570834     	((1.527980e-08 -5.831130e-06 -1.032650e-05) (-3.797462e-10 -4.773507e-06 -2.479539e-06)) ((1.534450e-09 -9.541841e-11 6.446615e-12) (-4.585753e-07 -2.335689e-10 -3.472949e-12))
68.281319     	((1.575070e-08 -5.898774e-06 -1.039093e-05) (-5.042194e-10 -4.776707e-06 -2.483927e-06)) ((1.539140e-09 -9.551071e-11 6.528969e-12) (-4.579435e-07 -2.279153e-10 -1.189616e-11))
74.002707     	((1.612158e-08 -5.941978e-06 -1.043888e-05) (-5.528221e-10 -4.779271e-06 -2.485142e-06)) ((1.542431e-09 -9.555959e-11 6.648208e-12) (-4.575844e-07 -2.255511e-10 -1.927966e-11))
79.734849     	((1.664056e-08 -5.969206e-06 -1.047750e-05) (-5.679843e-10 -4.780818e-06 -2.485293e-06)) ((1.544441e-09 -9.560106e-11 6.766497e-12) (-4.573719e-07 -2.261799e-10 -2.532178e-11))
85.475382     	((1.719195e-08 -5.986571e-06 -1.050927e-05) (-5.210629e-10 -4.781726e-06 -2.485515e-06)) ((1.545701e-09 -9.565641e-11 6.876521e-12) (-4.572362e-07 -2.296946e-10 -3.112549e-11))
91.190606     	((1.759617e-08 -6.001029e-06 -1.053753e-05) (-4.344512e-10 -4.782478e-06 -2.485702e-06)) ((1.547340e-09 -9.574261e-11 6.987245e-12) (-4.571703e-07 -2.342805e-10 -3.539977e-11))
96.887861     	((1.783060e-08 -6.010990e-06 -1.056194e-05) (-3.457656e-10 -4.783517e-06 -2.485469e-06)) ((1.548689e-09 -9.583759e-11 7.018572e-12) (-4.571736e-07 -2.394374e-10 -3.734092e-11))
102.572982    	((1.764575e-08 -6.015879e-06 -1.058367e-05) (-2.878048e-10 -4.784792e-06 -2.485395e-06)) ((1.549297e-09 -9.595005e-11 7.003895e-12) (-4.571952e-07 -2.442755e-10 -3.794880e-11))
108.250246    	((1.748159e-08 -6.018049e-06 -1.060248e-05) (-2.510892e-10 -4.786163e-06 -2.485455e-06)) ((1.549473e-09 -9.607178e-11 7.004405e-12) (-4.572202e-07 -2.478839e-10 -3.763032e-11))
113.9223      	((1.750063e-08 -6.017636e-06 -1.061931e-05) (-2.104379e-10 -4.787520e-06 -2.485632e-06)) ((1.549375e-09 -9.620173e-11 7.019129e-12) (-4.572424e-07 -2.507288e-10 -3.705442e-11))
119.590523    	((1.731219e-08 -6.016382e-06 -1.063321e-05) (-1.845660e-10 -4.788777e-06 -2.485953e-06)) ((1.549172e-09 -9.633686e-11 7.044016e-12) (-4.572599e-07 -2.513600e-10 -3.687300e-11))
125.25562     	((1.727081e-08 -6.015106e-06 -1.064653e-05) (-1.638710e-10 -4.789962e-06 -2.486382e-06)) ((1.548910e-09 -9.645965e-11 7.077506e-12) (-4.572753e-07 -2.503218e-10 -3.745575e-11))
130.917874    	((1.745947e-08 -6.013654e-06 -1.066116e-05) (-1.466596e-10 -4.791124e-06 -2.486897e-06)) ((1.548632e-09 -9.657782e-11 7.111229e-12) (-4.572902e-07 -2.481539e-10 -3.906043e-11))
136.577384    	((1.734878e-08 -6.010557e-06 -1.067543e-05) (-1.523971e-10 -4.792226e-06 -2.487457e-06)) ((1.548328e-09 -9.668438e-11 7.139130e-12) (-4.573013e-07 -2.456119e-10 -4.179254e-11))
142.234265    	((1.768309e-08 -6.006668e-06 -1.069121e-05) (-1.480087e-10 -4.793260e-06 -2.487961e-06)) ((1.548028e-09 -9.678091e-11 7.163670e-12) (-4.573074e-07 -2.438688e-10 -4.516853e-11))
147.888707    	((1.789578e-08 -6.000537e-06 -1.070742e-05) (-1.452339e-10 -4.794155e-06 -2.488343e-06)) ((1.547700e-09 -9.686374e-11 7.183593e-12) (-4.573049e-07 -2.427152e-10 -4.863354e-11))
153.540952    	((1.865377e-08 -5.992300e-06 -1.072546e-05) (-1.206981e-10 -4.794825e-06 -2.488533e-06)) ((1.547348e-09 -9.693525e-11 7.195415e-12) (-4.572892e-07 -2.431068e-10 -5.159275e-11))
159.191267    	((1.953745e-08 -5.981457e-06 -1.074463e-05) (-6.632055e-11 -4.795173e-06 -2.488485e-06)) ((1.546952e-09 -9.699762e-11 7.205934e-12) (-4.572563e-07 -2.460914e-10 -5.354600e-11))
164.839895    	((2.008412e-08 -5.968286e-06 -1.076355e-05) (-7.661272e-12 -4.795137e-06 -2.488159e-06)) ((1.546527e-09 -9.706244e-11 7.215651e-12) (-4.572022e-07 -2.503776e-10 -5.403457e-11))
170.487024    	((2.115181e-08 -5.953747e-06 -1.078208e-05) (6.117762e-11 -4.794649e-06 -2.487574e-06)) ((1.546104e-09 -9.712784e-11 7.223970e-12) (-4.571254e-07 -2.553058e-10 -5.321248e-11))
176.132792    	((2.178362e-08 -5.937936e-06 -1.079927e-05) (1.365555e-10 -4.793708e-06 -2.486848e-06)) ((1.545730e-09 -9.719503e-11 7.236873e-12) (-4.570287e-07 -2.602259e-10 -5.129224e-11))
181.777306    	((2.192618e-08 -5.920908e-06 -1.081732e-05) (1.864009e-10 -4.792344e-06 -2.486045e-06)) ((1.545327e-09 -9.727937e-11 7.246967e-12) (-4.569143e-07 -2.631046e-10 -4.883164e-11))
187.420633    	((2.298409e-08 -5.904114e-06 -1.083759e-05) (2.553472e-10 -4.790615e-06 -2.485197e-06)) ((1.544926e-09 -9.736405e-11 7.252727e-12) (-4.567839e-07 -2.659128e-10 -4.618787e-11))
193.062791    	((2.361142e-08 -5.888152e-06 -1.085673e-05) (3.316885e-10 -4.788651e-06 -2.484351e-06)) ((1.544565e-09 -9.747429e-11 7.260409e-12) (-4.566432e-07 -2.688067e-10 -4.344342e-11))
198.703758    	((2.327471e-08 -5.874085e-06 -1.087620e-05) (3.617244e-10 -4.786589e-06 -2.483634e-06)) ((1.544163e-09 -9.763040e-11 7.267797e-12) (-4.565006e-07 -2.695953e-10 -4.123488e-11))
204.34348     	((2.293616e-08 -5.864090e-06 -1.089391e-05) (3.421385e-10 -4.784637e-06 -2.483186e-06)) ((1.543820e-09 -9.779275e-11 7.277706e-12) (-4.563661e-07 -2.672096e-10 -4.060533e-11))
209.981877    	((2.305036e-08 -5.858649e-06 -1.091157e-05) (3.308371e-10 -4.783092e-06 -2.483160e-06)) ((1.543661e-09 -9.792785e-11 7.287923e-12) (-4.562534e-07 -2.632491e-10 -4.229146e-11))
215.618872    	((2.271293e-08 -5.856966e-06 -1.093289e-05) (3.200525e-10 -4.782185e-06 -2.483623e-06)) ((1.543607e-09 -9.803924e-11 7.301851e-12) (-4.561728e-07 -2.589291e-10 -4.655038e-11))
221.2544      	((2.270445e-08 -5.857827e-06 -1.095647e-05) (3.206196e-10 -4.782036e-06 -2.484486e-06)) ((1.543616e-09 -9.812026e-11 7.311881e-12) (-4.561281e-07 -2.566620e-10 -5.243570e-11))
226.888392    	((2.239874e-08 -5.860474e-06 -1.097849e-05) (3.323792e-10 -4.782668e-06 -2.485564e-06)) ((1.543683e-09 -9.819254e-11 7.327390e-12) (-4.561174e-07 -2.568652e-10 -5.868984e-11))
232.520759    	((2.219329e-08 -5.864095e-06 -1.100109e-05) (3.602754e-10 -4.783999e-06 -2.486643e-06)) ((1.543786e-09 -9.825203e-11 7.347278e-12) (-4.561364e-07 -2.594600e-10 -6.391617e-11))
238.151408    	((2.188832e-08 -5.868191e-06 -1.102218e-05) (3.992177e-10 -4.785879e-06 -2.487605e-06)) ((1.543899e-09 -9.830766e-11 7.365586e-12) (-4.561794e-07 -2.637060e-10 -6.689861e-11))
