# Forces      
# CofR        : (0.000000e+00 0.000000e+00 0.000000e+00)
# Time        forces(pressure viscous)	moments(pressure viscous)
0             	((0.000000e+00 0.000000e+00 0.000000e+00) (-2.569178e-13 -5.034665e-04 4.552966e-14)) ((0.000000e+00 0.000000e+00 0.000000e+00) (-1.131237e-05 -1.386220e-15 2.446797e-10))
0.012         	((-7.189807e-09 -1.463850e-01 3.261728e-02) (6.976420e-10 -5.764457e-04 -1.761719e-06)) ((1.723512e-06 1.126695e-07 2.738341e-08) (-1.669191e-05 9.626102e-12 4.562724e-10))
0.0264        	((-2.119010e-06 1.336079e-02 -3.234235e-03) (-1.295639e-11 -5.847903e-04 -2.749755e-06)) ((-1.529878e-07 -8.185059e-09 -1.444936e-09) (-1.861835e-05 7.949317e-11 5.064640e-10))
0.04368       	((1.126570e-06 2.890653e-02 -3.020584e-03) (1.705516e-09 -5.165051e-04 -2.710592e-06)) ((-3.803836e-07 -8.665313e-09 -8.141305e-09) (-1.656680e-05 1.743352e-10 3.157022e-10))
0.064416      	((-2.629056e-07 2.510797e-04 -1.747712e-03) (-4.285220e-09 -4.558756e-04 -2.679727e-06)) ((1.444592e-09 -4.017493e-09 9.706891e-10) (-1.492684e-05 2.337394e-10 2.460426e-10))
0.0892992     	((7.365888e-08 -1.198074e-04 -1.217768e-03) (-4.409021e-09 -4.199190e-04 -3.217643e-06)) ((1.056823e-08 -2.083188e-09 2.124293e-10) (-1.412281e-05 2.414980e-10 -1.389129e-10))
0.119159      	((5.495223e-07 5.080532e-04 -9.220842e-04) (2.882916e-09 -3.878477e-04 -3.987458e-06)) ((-9.489513e-09 -1.349754e-09 -4.439214e-10) (-1.324464e-05 1.715915e-10 -6.748141e-10))
0.154991      	((-2.839684e-07 1.895066e-04 -7.398463e-04) (2.509080e-09 -3.548963e-04 -4.689416e-06)) ((-5.195630e-09 -6.981563e-10 -1.355151e-10) (-1.230169e-05 1.579735e-10 -7.897308e-10))
0.197989      	((-9.036506e-08 2.336006e-05 -6.181596e-04) (-6.177959e-09 -3.230456e-04 -5.429501e-06)) ((-2.925059e-09 -2.824497e-10 -7.877446e-12) (-1.136908e-05 1.485066e-10 -8.228147e-10))
0.249587      	((-1.182417e-07 -3.122564e-05 -5.426678e-04) (-1.971754e-08 -2.933163e-04 -6.262739e-06)) ((-2.103339e-09 -8.387934e-11 -1.730098e-11) (-1.046699e-05 1.275691e-10 -8.782106e-10))
0.311504      	((-1.170547e-07 -6.072782e-05 -4.965288e-04) (-2.692205e-08 -2.664483e-04 -7.149282e-06)) ((-1.637102e-09 5.650446e-11 -4.502956e-12) (-9.615213e-06 1.407665e-10 -8.298906e-10))
0.385805      	((-9.686430e-08 -7.722088e-05 -4.665568e-04) (-2.940180e-08 -2.426963e-04 -8.050686e-06)) ((-1.330602e-09 1.559780e-10 5.477832e-12) (-8.829973e-06 1.507941e-10 -7.603961e-10))
0.474966      	((-8.108144e-08 -8.479575e-05 -4.469450e-04) (-3.095887e-08 -2.218850e-04 -8.957007e-06)) ((-1.075871e-09 2.069997e-10 1.108459e-11) (-8.115822e-06 1.526430e-10 -7.191766e-10))
0.581959      	((-6.098639e-08 -8.749510e-05 -4.340808e-04) (-2.736707e-08 -2.033695e-04 -9.894089e-06)) ((-8.573315e-10 2.348625e-10 1.342967e-11) (-7.462344e-06 1.592516e-10 -7.383430e-10))
0.710351      	((-2.979101e-08 -8.704432e-05 -4.257877e-04) (-1.961318e-08 -1.862050e-04 -1.089221e-05)) ((-6.577013e-10 2.447637e-10 1.199666e-11) (-6.844554e-06 1.460948e-10 -8.831837e-10))
0.864421      	((9.219980e-09 -8.450618e-05 -4.201612e-04) (-1.252028e-08 -1.698504e-04 -1.198413e-05)) ((-4.930889e-10 2.465063e-10 1.094644e-11) (-6.248757e-06 1.103984e-10 -1.100903e-09))
1.049306      	((4.076343e-09 -8.084604e-05 -4.162956e-04) (-8.645368e-09 -1.543613e-04 -1.320380e-05)) ((-3.526792e-10 2.443942e-10 1.101837e-11) (-5.681013e-06 8.259824e-11 -1.264441e-09))
1.271167      	((1.455785e-08 -7.691283e-05 -4.135081e-04) (-6.037935e-09 -1.399385e-04 -1.454019e-05)) ((-2.116510e-10 2.346463e-10 1.324284e-11) (-5.151040e-06 5.536626e-11 -1.313619e-09))
1.5374        	((1.129110e-08 -7.346381e-05 -4.111624e-04) (-4.477481e-09 -1.267696e-04 -1.595526e-05)) ((-5.994006e-11 2.266756e-10 1.948135e-11) (-4.666537e-06 2.269895e-11 -1.233528e-09))
1.85688       	((1.018795e-09 -7.097117e-05 -4.088406e-04) (-4.368608e-09 -1.149883e-04 -1.742027e-05)) ((9.379934e-11 2.167733e-10 2.784917e-11) (-4.232509e-06 -2.102831e-11 -1.098086e-09))
2.240256      	((-1.092129e-08 -6.964824e-05 -4.063738e-04) (-4.002509e-09 -1.046279e-04 -1.890743e-05)) ((2.507153e-10 2.034803e-10 3.289023e-11) (-3.850041e-06 -7.335906e-11 -9.490818e-10))
2.700307      	((-2.124222e-08 -6.969946e-05 -4.034802e-04) (-3.452044e-09 -9.564513e-05 -2.039110e-05)) ((4.313099e-10 1.881377e-10 3.964022e-11) (-3.517955e-06 -9.782458e-11 -8.521223e-10))
3.252369      	((-3.009414e-08 -7.124798e-05 -4.000728e-04) (-4.003896e-09 -8.795372e-05 -2.183658e-05)) ((6.402318e-10 1.711079e-10 4.948067e-11) (-3.233781e-06 -7.321294e-11 -7.926489e-10))
3.914842      	((-1.505066e-08 -7.447940e-05 -3.960475e-04) (-3.956342e-09 -8.144390e-05 -2.319814e-05)) ((8.752456e-10 1.547879e-10 6.463250e-11) (-2.994004e-06 -5.993754e-11 -7.197509e-10))
4.709811      	((-1.356143e-08 -7.949297e-05 -3.914558e-04) (-1.997682e-09 -7.599505e-05 -2.444265e-05)) ((1.130816e-09 1.356923e-10 8.380872e-11) (-2.794296e-06 -3.566271e-11 -7.417871e-10))
5.663773      	((-2.489054e-09 -8.628706e-05 -3.862059e-04) (-2.494958e-10 -7.148915e-05 -2.557097e-05)) ((1.409097e-09 1.137149e-10 1.079488e-10) (-2.629334e-06 -1.473625e-11 -8.699529e-10))
6.788641      	((-8.920602e-10 -9.476907e-05 -3.804568e-04) (-1.218003e-10 -6.784367e-05 -2.659916e-05)) ((1.700673e-09 8.834859e-11 1.372330e-10) (-2.495381e-06 -2.739139e-11 -1.139482e-09))
8.084403      	((1.094122e-08 -1.046199e-04 -3.742590e-04) (4.435600e-10 -6.493627e-05 -2.750766e-05)) ((1.988546e-09 5.807223e-11 1.697588e-10) (-2.389387e-06 -2.727949e-11 -1.509132e-09))
9.550629      	((1.336349e-08 -1.153707e-04 -3.675885e-04) (6.694630e-11 -6.266941e-05 -2.826693e-05)) ((2.244899e-09 2.753218e-11 2.065705e-10) (-2.306926e-06 -1.930144e-11 -1.831514e-09))
11.186534     	((1.448955e-08 -1.267598e-04 -3.603255e-04) (5.868335e-11 -6.092173e-05 -2.884653e-05)) ((2.450992e-09 -4.133607e-12 2.405378e-10) (-2.241881e-06 -1.869020e-11 -2.030290e-09))
12.871702     	((3.608331e-08 -1.378159e-04 -3.522798e-04) (1.810784e-09 -5.966801e-05 -2.914705e-05)) ((2.614900e-09 -3.825410e-11 2.683502e-10) (-2.193649e-06 -1.713178e-11 -2.080059e-09))
14.543418     	((5.508581e-08 -1.471043e-04 -3.432348e-04) (4.290761e-09 -5.871701e-05 -2.921508e-05)) ((2.751986e-09 -6.807763e-11 2.923331e-10) (-2.155830e-06 -1.027022e-11 -1.953221e-09))
16.205059     	((7.867243e-08 -1.549497e-04 -3.336776e-04) (9.908809e-09 -5.789459e-05 -2.913212e-05)) ((2.884808e-09 -9.542257e-11 3.133741e-10) (-2.123491e-06 -2.900680e-11 -1.646970e-09))
17.864123     	((1.015193e-07 -1.604979e-04 -3.237120e-04) (1.573842e-08 -5.713698e-05 -2.897792e-05)) ((3.001730e-09 -1.151556e-10 3.327811e-10) (-2.094740e-06 -4.250876e-11 -1.323392e-09))
19.527432     	((1.376254e-07 -1.642038e-04 -3.140266e-04) (2.005684e-08 -5.643516e-05 -2.879415e-05)) ((3.104340e-09 -1.252102e-10 3.505688e-10) (-2.069431e-06 -9.601856e-11 -1.132001e-09))
21.198016     	((1.389074e-07 -1.661313e-04 -3.048135e-04) (2.263860e-08 -5.580196e-05 -2.858823e-05)) ((3.191580e-09 -1.242220e-10 3.622928e-10) (-2.048133e-06 -1.703070e-10 -9.909529e-10))
22.875312     	((1.349133e-07 -1.663178e-04 -2.962744e-04) (2.309338e-08 -5.521480e-05 -2.838429e-05)) ((3.249859e-09 -1.153674e-10 3.694744e-10) (-2.029761e-06 -2.441032e-10 -9.487243e-10))
24.557354     	((1.471018e-07 -1.654123e-04 -2.881813e-04) (2.240160e-08 -5.465670e-05 -2.819873e-05)) ((3.283130e-09 -1.016949e-10 3.733638e-10) (-2.013171e-06 -3.283478e-10 -9.564856e-10))
26.243267     	((1.476166e-07 -1.638097e-04 -2.800058e-04) (2.265093e-08 -5.412268e-05 -2.803895e-05)) ((3.292146e-09 -8.761415e-11 3.746521e-10) (-1.997591e-06 -4.160564e-10 -9.154769e-10))
27.933372     	((1.476003e-07 -1.626686e-04 -2.726549e-04) (2.292529e-08 -5.362978e-05 -2.789489e-05)) ((3.294408e-09 -7.828999e-11 3.735475e-10) (-1.983406e-06 -4.850918e-10 -8.658158e-10))
29.627184     	((1.505898e-07 -1.616969e-04 -2.664653e-04) (2.318693e-08 -5.319263e-05 -2.776230e-05)) ((3.285680e-09 -7.232296e-11 3.712007e-10) (-1.970913e-06 -5.412502e-10 -8.065317e-10))
31.324468     	((1.527534e-07 -1.603477e-04 -2.603186e-04) (2.369360e-08 -5.278886e-05 -2.764912e-05)) ((3.269351e-09 -6.309319e-11 3.692443e-10) (-1.959294e-06 -5.889560e-10 -7.545133e-10))
33.023593     	((1.737639e-07 -1.589766e-04 -2.542442e-04) (2.434313e-08 -5.240506e-05 -2.755902e-05)) ((3.248700e-09 -5.220007e-11 3.679005e-10) (-1.947926e-06 -6.718655e-10 -7.681929e-10))
34.724079     	((2.017461e-07 -1.577101e-04 -2.482579e-04) (2.517944e-08 -5.204141e-05 -2.749034e-05)) ((3.225902e-09 -4.106782e-11 3.670041e-10) (-1.936694e-06 -7.814086e-10 -8.603902e-10))
36.426427     	((2.445474e-07 -1.566815e-04 -2.426116e-04) (2.673238e-08 -5.170000e-05 -2.743690e-05)) ((3.207600e-09 -3.023272e-11 3.666552e-10) (-1.925776e-06 -8.987831e-10 -1.000123e-09))
38.130775     	((2.910152e-07 -1.557593e-04 -2.371728e-04) (2.890425e-08 -5.137927e-05 -2.739500e-05)) ((3.193953e-09 -1.896726e-11 3.662651e-10) (-1.915257e-06 -1.048461e-09 -1.132787e-09))
39.837268     	((3.444841e-07 -1.549701e-04 -2.319687e-04) (3.118064e-08 -5.107818e-05 -2.735706e-05)) ((3.186520e-09 -8.528253e-12 3.657790e-10) (-1.905333e-06 -1.208025e-09 -1.268915e-09))
41.546025     	((4.030495e-07 -1.541244e-04 -2.267917e-04) (3.350949e-08 -5.079290e-05 -2.731830e-05)) ((3.181091e-09 2.587383e-12 3.652007e-10) (-1.896047e-06 -1.371302e-09 -1.419931e-09))
43.257165     	((4.833850e-07 -1.533944e-04 -2.217612e-04) (3.714848e-08 -5.052336e-05 -2.727470e-05)) ((3.179610e-09 1.367409e-11 3.646903e-10) (-1.887554e-06 -1.572360e-09 -1.563487e-09))
44.970777     	((5.542842e-07 -1.528274e-04 -2.169482e-04) (4.169199e-08 -5.027488e-05 -2.722491e-05)) ((3.180759e-09 2.421769e-11 3.644284e-10) (-1.880052e-06 -1.801337e-09 -1.717946e-09))
46.686951     	((6.301691e-07 -1.522990e-04 -2.122362e-04) (4.656258e-08 -5.004670e-05 -2.716880e-05)) ((3.184556e-09 3.500412e-11 3.642274e-10) (-1.873485e-06 -2.050071e-09 -1.870190e-09))
48.405772     	((7.268922e-07 -1.517109e-04 -2.076388e-04) (5.294957e-08 -4.983205e-05 -2.711193e-05)) ((3.186546e-09 4.674271e-11 3.641791e-10) (-1.867477e-06 -2.370014e-09 -1.997076e-09))
50.127211     	((8.151268e-07 -1.512437e-04 -2.032884e-04) (6.038049e-08 -4.963167e-05 -2.705811e-05)) ((3.188992e-09 5.728497e-11 3.645064e-10) (-1.861939e-06 -2.714677e-09 -2.102623e-09))
51.851375     	((9.108793e-07 -1.506465e-04 -1.990002e-04) (6.836465e-08 -4.944003e-05 -2.701006e-05)) ((3.188080e-09 6.819233e-11 3.646364e-10) (-1.856615e-06 -3.073340e-09 -2.207739e-09))
53.578463     	((1.023324e-06 -1.500460e-04 -1.948363e-04) (7.745269e-08 -4.925362e-05 -2.696946e-05)) ((3.186205e-09 7.873830e-11 3.645632e-10) (-1.851346e-06 -3.480239e-09 -2.323143e-09))
55.308387     	((1.110725e-06 -1.494647e-04 -1.907456e-04) (8.678093e-08 -4.907324e-05 -2.693248e-05)) ((3.186038e-09 8.820509e-11 3.644399e-10) (-1.846236e-06 -3.875416e-09 -2.423122e-09))
57.041005     	((1.205000e-06 -1.489963e-04 -1.869307e-04) (9.650946e-08 -4.890098e-05 -2.689739e-05)) ((3.186303e-09 9.691345e-11 3.643024e-10) (-1.841373e-06 -4.259314e-09 -2.504151e-09))
58.776257     	((1.314593e-06 -1.485612e-04 -1.833045e-04) (1.067267e-07 -4.873742e-05 -2.686549e-05)) ((3.186133e-09 1.054726e-10 3.640949e-10) (-1.836748e-06 -4.662048e-09 -2.585442e-09))
60.514111     	((1.443322e-06 -1.481597e-04 -1.797773e-04) (1.178124e-07 -4.858260e-05 -2.683565e-05)) ((3.186670e-09 1.147100e-10 3.637954e-10) (-1.832417e-06 -5.089631e-09 -2.662262e-09))
62.254548     	((1.573044e-06 -1.477426e-04 -1.763638e-04) (1.301402e-07 -4.843580e-05 -2.680785e-05)) ((3.185226e-09 1.244134e-10 3.635551e-10) (-1.828331e-06 -5.554211e-09 -2.728358e-09))
63.997598     	((1.746519e-06 -1.473234e-04 -1.730503e-04) (1.443404e-07 -4.829493e-05 -2.678720e-05)) ((3.178116e-09 1.354004e-10 3.635246e-10) (-1.824214e-06 -6.109645e-09 -2.797547e-09))
65.743192     	((1.927985e-06 -1.469284e-04 -1.698694e-04) (1.600167e-07 -4.815788e-05 -2.677796e-05)) ((3.167828e-09 1.461712e-10 3.636592e-10) (-1.819848e-06 -6.771708e-09 -2.886243e-09))
67.49119      	((2.130506e-06 -1.465208e-04 -1.667629e-04) (1.772432e-07 -4.802224e-05 -2.677998e-05)) ((3.155970e-09 1.566690e-10 3.638550e-10) (-1.815175e-06 -7.529126e-09 -2.997849e-09))
69.241491     	((2.370281e-06 -1.460934e-04 -1.637160e-04) (1.965341e-07 -4.788753e-05 -2.678803e-05)) ((3.145208e-09 1.673291e-10 3.640200e-10) (-1.810380e-06 -8.372963e-09 -3.133863e-09))
70.994003     	((2.618906e-06 -1.456886e-04 -1.607189e-04) (2.172853e-07 -4.775621e-05 -2.679498e-05)) ((3.137217e-09 1.779547e-10 3.640011e-10) (-1.805772e-06 -9.281965e-09 -3.317782e-09))
72.748634     	((2.900327e-06 -1.452844e-04 -1.577525e-04) (2.396525e-07 -4.762981e-05 -2.679713e-05)) ((3.131320e-09 1.888648e-10 3.638917e-10) (-1.801483e-06 -1.026547e-08 -3.563302e-09))
74.505308     	((3.199336e-06 -1.449116e-04 -1.548486e-04) (2.639120e-07 -4.750881e-05 -2.679436e-05)) ((3.127065e-09 1.998217e-10 3.638774e-10) (-1.797498e-06 -1.133061e-08 -3.844975e-09))
76.263975     	((3.529491e-06 -1.445771e-04 -1.520285e-04) (2.900540e-07 -4.739320e-05 -2.678730e-05)) ((3.124262e-09 2.108448e-10 3.639909e-10) (-1.793790e-06 -1.248182e-08 -4.164581e-09))
78.024588     	((3.919365e-06 -1.442622e-04 -1.493007e-04) (3.196083e-07 -4.728241e-05 -2.677778e-05)) ((3.121374e-09 2.231349e-10 3.640527e-10) (-1.790289e-06 -1.379266e-08 -4.518242e-09))
79.787109     	((4.343330e-06 -1.439394e-04 -1.466407e-04) (3.528413e-07 -4.717524e-05 -2.676733e-05)) ((3.118473e-09 2.357238e-10 3.640304e-10) (-1.786917e-06 -1.527463e-08 -4.908543e-09))
81.551489     	((4.813282e-06 -1.436600e-04 -1.440824e-04) (3.900432e-07 -4.707243e-05 -2.675545e-05)) ((3.116534e-09 2.486038e-10 3.640039e-10) (-1.783707e-06 -1.691583e-08 -5.330704e-09))
83.317663     	((5.330874e-06 -1.434071e-04 -1.415915e-04) (4.314019e-07 -4.697510e-05 -2.674188e-05)) ((3.115312e-09 2.621222e-10 3.639824e-10) (-1.780710e-06 -1.873557e-08 -5.801287e-09))
85.085552     	((5.876098e-06 -1.431709e-04 -1.392011e-04) (4.765588e-07 -4.688332e-05 -2.672665e-05)) ((3.114614e-09 2.756855e-10 3.639698e-10) (-1.777935e-06 -2.071730e-08 -6.325724e-09))
86.855068     	((6.456314e-06 -1.429192e-04 -1.368675e-04) (5.257313e-07 -4.679618e-05 -2.671049e-05)) ((3.113663e-09 2.898283e-10 3.638853e-10) (-1.775331e-06 -2.285701e-08 -6.873608e-09))
88.626129     	((7.076892e-06 -1.426820e-04 -1.346135e-04) (5.792788e-07 -4.671317e-05 -2.669340e-05)) ((3.112951e-09 3.045466e-10 3.637676e-10) (-1.772878e-06 -2.516231e-08 -7.429412e-09))
90.398653     	((7.750858e-06 -1.424485e-04 -1.324397e-04) (6.375505e-07 -4.663386e-05 -2.667566e-05)) ((3.111869e-09 3.199875e-10 3.636251e-10) (-1.770557e-06 -2.765883e-08 -8.008418e-09))
92.172555     	((8.482570e-06 -1.422151e-04 -1.303234e-04) (7.008489e-07 -4.655736e-05 -2.665757e-05)) ((3.110557e-09 3.360469e-10 3.634862e-10) (-1.768328e-06 -3.036661e-08 -8.638233e-09))
93.947749     	((9.272229e-06 -1.419915e-04 -1.282519e-04) (7.694984e-07 -4.648361e-05 -2.663888e-05)) ((3.108981e-09 3.528908e-10 3.633880e-10) (-1.766184e-06 -3.329655e-08 -9.310929e-09))
95.72415      	((1.013317e-05 -1.417929e-04 -1.262238e-04) (8.438659e-07 -4.641315e-05 -2.661884e-05)) ((3.107607e-09 3.708683e-10 3.633506e-10) (-1.764161e-06 -3.647260e-08 -1.003087e-08))
97.501677     	((1.109677e-05 -1.416048e-04 -1.242236e-04) (9.258578e-07 -4.634583e-05 -2.659688e-05)) ((3.106255e-09 3.904554e-10 3.633268e-10) (-1.762266e-06 -3.995796e-08 -1.078786e-08))
99.280255     	((1.216703e-05 -1.414415e-04 -1.222630e-04) (1.017086e-06 -4.628229e-05 -2.657259e-05)) ((3.105222e-09 4.116408e-10 3.633145e-10) (-1.760526e-06 -4.381679e-08 -1.158208e-08))
101.059805    	((1.334019e-05 -1.413007e-04 -1.203701e-04) (1.117744e-06 -4.622322e-05 -2.654585e-05)) ((3.104091e-09 4.342789e-10 3.633174e-10) (-1.758965e-06 -4.807396e-08 -1.244262e-08))
102.840242    	((1.462558e-05 -1.411701e-04 -1.185259e-04) (1.228537e-06 -4.616834e-05 -2.651693e-05)) ((3.102870e-09 4.584219e-10 3.632315e-10) (-1.757572e-06 -5.276135e-08 -1.337816e-08))
104.62147     	((1.603554e-05 -1.410606e-04 -1.167255e-04) (1.350741e-06 -4.611716e-05 -2.648590e-05)) ((3.102193e-09 4.842175e-10 3.630602e-10) (-1.756335e-06 -5.793081e-08 -1.439213e-08))
106.403375    	((1.759359e-05 -1.409736e-04 -1.149592e-04) (1.485118e-06 -4.607020e-05 -2.645251e-05)) ((3.101599e-09 5.122547e-10 3.628438e-10) (-1.755280e-06 -6.362984e-08 -1.553147e-08))
108.185864    	((1.932830e-05 -1.409094e-04 -1.132248e-04) (1.633389e-06 -4.602785e-05 -2.641651e-05)) ((3.100919e-09 5.431625e-10 3.625791e-10) (-1.754431e-06 -6.993778e-08 -1.681225e-08))
109.968838    	((2.123699e-05 -1.408663e-04 -1.115215e-04) (1.797288e-06 -4.598979e-05 -2.637852e-05)) ((3.099889e-09 5.767981e-10 3.620972e-10) (-1.753772e-06 -7.693274e-08 -1.822065e-08))
111.752203    	((2.334418e-05 -1.408556e-04 -1.098476e-04) (1.978667e-06 -4.595576e-05 -2.633886e-05)) ((3.098590e-09 6.136112e-10 3.613501e-10) (-1.753305e-06 -8.467536e-08 -1.975947e-08))
113.535884    	((2.565926e-05 -1.408999e-04 -1.082203e-04) (2.178293e-06 -4.592719e-05 -2.629718e-05)) ((3.097385e-09 6.537360e-10 3.604508e-10) (-1.753095e-06 -9.320180e-08 -2.147030e-08))
115.319806    	((2.821678e-05 -1.409985e-04 -1.066303e-04) (2.397579e-06 -4.590553e-05 -2.625346e-05)) ((3.096668e-09 6.977309e-10 3.593428e-10) (-1.753195e-06 -1.025981e-07 -2.341143e-08))
117.101978    	((3.101203e-05 -1.411571e-04 -1.050922e-04) (2.638811e-06 -4.589134e-05 -2.620876e-05)) ((3.096462e-09 7.453031e-10 3.581200e-10) (-1.753606e-06 -1.129367e-07 -2.556477e-08))
118.881986    	((3.408611e-05 -1.413785e-04 -1.036044e-04) (2.905649e-06 -4.588446e-05 -2.616413e-05)) ((3.095971e-09 7.973882e-10 3.567561e-10) (-1.754343e-06 -1.243168e-07 -2.785182e-08))
120.659505    	((3.740868e-05 -1.417198e-04 -1.022646e-04) (3.198516e-06 -4.588696e-05 -2.611992e-05)) ((3.096363e-09 8.529013e-10 3.551287e-10) (-1.755466e-06 -1.368026e-07 -3.030559e-08))
122.434209    	((4.101501e-05 -1.421489e-04 -1.010089e-04) (3.518501e-06 -4.589944e-05 -2.607807e-05)) ((3.096951e-09 9.129677e-10 3.531999e-10) (-1.756955e-06 -1.504496e-07 -3.296687e-08))
124.205788    	((4.492145e-05 -1.426952e-04 -9.988206e-05) (3.868590e-06 -4.592311e-05 -2.603911e-05)) ((3.098929e-09 9.770904e-10 3.510942e-10) (-1.758852e-06 -1.653209e-07 -3.577666e-08))
125.973919    	((4.913992e-05 -1.433737e-04 -9.887129e-05) (4.250449e-06 -4.596052e-05 -2.600152e-05)) ((3.102289e-09 1.045336e-09 3.488291e-10) (-1.761299e-06 -1.814340e-07 -3.868747e-08))
127.738224    	((5.372106e-05 -1.442395e-04 -9.803434e-05) (4.666244e-06 -4.601479e-05 -2.596505e-05)) ((3.107183e-09 1.118946e-09 3.464461e-10) (-1.764393e-06 -1.989011e-07 -4.178984e-08))
129.498319    	((5.866066e-05 -1.452943e-04 -9.733474e-05) (5.117865e-06 -4.608761e-05 -2.592970e-05)) ((3.113583e-09 1.197826e-09 3.439416e-10) (-1.768231e-06 -2.178269e-07 -4.510097e-08))
131.253833    	((6.396868e-05 -1.465938e-04 -9.681710e-05) (5.606729e-06 -4.618167e-05 -2.589281e-05)) ((3.122665e-09 1.281476e-09 3.412204e-10) (-1.773040e-06 -2.382798e-07 -4.863014e-08))
133.004364    	((6.965102e-05 -1.481514e-04 -9.649261e-05) (6.132134e-06 -4.630121e-05 -2.585373e-05)) ((3.135444e-09 1.369204e-09 3.385960e-10) (-1.778960e-06 -2.602798e-07 -5.254727e-08))
134.749575    	((7.575971e-05 -1.500137e-04 -9.637026e-05) (6.697710e-06 -4.644964e-05 -2.581121e-05)) ((3.153195e-09 1.461033e-09 3.361407e-10) (-1.786174e-06 -2.839189e-07 -5.679252e-08))
136.489258    	((8.211718e-05 -1.521879e-04 -9.648502e-05) (7.300968e-06 -4.663015e-05 -2.576570e-05)) ((3.174188e-09 1.553887e-09 3.338327e-10) (-1.794757e-06 -3.090532e-07 -6.132549e-08))
138.223152    	((8.879634e-05 -1.547551e-04 -9.687511e-05) (7.943477e-06 -4.684671e-05 -2.571909e-05)) ((3.200556e-09 1.650729e-09 3.313884e-10) (-1.804786e-06 -3.356071e-07 -6.599637e-08))
139.950935    	((9.567074e-05 -1.577094e-04 -9.747687e-05) (8.627130e-06 -4.710452e-05 -2.567077e-05)) ((3.232862e-09 1.748627e-09 3.291285e-10) (-1.816468e-06 -3.635071e-07 -7.046687e-08))
141.672281    	((1.026264e-04 -1.611035e-04 -9.846609e-05) (9.344110e-06 -4.740863e-05 -2.561617e-05)) ((3.272464e-09 1.845796e-09 3.276996e-10) (-1.830117e-06 -3.924838e-07 -7.475094e-08))
143.387055    	((1.096270e-04 -1.648544e-04 -9.968867e-05) (1.008824e-05 -4.776379e-05 -2.555561e-05)) ((3.319731e-09 1.941628e-09 3.272798e-10) (-1.845810e-06 -4.222865e-07 -7.889485e-08))
