# Forces      
# CofR        : (0.000000e+00 0.000000e+00 0.000000e+00)
# Time        forces(pressure viscous)	moments(pressure viscous)
0             	((0.000000e+00 0.000000e+00 0.000000e+00) (0.000000e+00 0.000000e+00 0.000000e+00)) ((0.000000e+00 0.000000e+00 0.000000e+00) (0.000000e+00 0.000000e+00 0.000000e+00))
0.012         	((4.160662e-11 -9.547792e-09 1.237262e-10) (1.232181e-12 -1.070570e-10 4.940544e-13)) ((6.872842e-13 2.967739e-15 1.314886e-10) (-2.043967e-12 -5.533416e-14 2.672449e-07))
0.0264        	((-3.309666e-11 3.460565e-09 -2.992123e-10) (1.436943e-12 -1.142325e-10 6.165792e-13)) ((1.616541e-12 -1.052449e-14 3.951120e-11) (-3.633883e-12 -5.202110e-14 2.339034e-07))
0.04368       	((1.805852e-10 -1.748331e-09 1.229777e-10) (1.724680e-12 -7.473403e-11 1.260511e-12)) ((-7.409803e-13 4.022411e-15 2.075827e-11) (-3.059817e-12 -6.868470e-14 2.022894e-07))
0.064416      	((1.351284e-10 -1.476605e-10 -1.554993e-10) (1.478683e-12 -3.981500e-11 1.212736e-12)) ((2.102789e-13 4.974642e-15 1.398036e-11) (-1.544810e-12 -7.657421e-14 1.732712e-07))
0.0892992     	((1.875791e-10 -8.476331e-10 -7.747068e-11) (1.078990e-12 -2.513592e-11 6.777452e-13)) ((-2.250544e-13 2.012322e-14 1.128147e-11) (-7.366335e-13 -6.780156e-14 1.476184e-07))
0.119159      	((9.360588e-11 -7.674990e-11 -1.408853e-10) (1.664913e-12 -2.165011e-11 1.934600e-12)) ((-1.368293e-13 1.887557e-14 8.976151e-12) (2.834325e-13 -9.734670e-14 1.256821e-07))
0.154991      	((1.507007e-10 -7.153322e-10 -1.980854e-10) (1.651210e-12 -1.617760e-11 5.869026e-12)) ((-1.330881e-13 2.182913e-14 7.177340e-12) (1.039474e-12 -1.061122e-13 1.076064e-07))
0.197989      	((1.129207e-10 -5.555480e-10 -2.291201e-10) (-6.147841e-13 -9.786530e-12 1.487392e-11)) ((-1.063140e-13 1.664848e-14 5.626767e-12) (1.449591e-12 -3.269024e-14 9.307846e-08))
0.249587      	((1.972981e-10 -6.525761e-10 -2.766439e-10) (-3.207321e-12 -3.700782e-12 2.826342e-11)) ((-1.082086e-13 1.858941e-14 4.658802e-12) (1.309294e-12 1.052134e-13 8.150828e-08))
0.311504      	((2.769323e-10 -8.081234e-10 -2.692875e-10) (-4.371711e-12 1.939218e-12 4.442610e-11)) ((-7.727201e-14 7.578979e-15 4.128983e-12) (1.057037e-12 1.720122e-13 7.219811e-08))
0.385805      	((3.526599e-10 -1.045558e-09 -3.276678e-10) (-3.559451e-12 -6.429774e-13 6.286410e-11)) ((-5.720782e-14 1.275171e-14 3.605510e-12) (7.871751e-13 1.590681e-13 6.451842e-08))
0.474966      	((4.273476e-10 -1.282797e-09 -3.126992e-10) (-5.394271e-12 -3.116405e-12 8.277944e-11)) ((9.864022e-15 -4.388561e-15 3.153645e-12) (2.259813e-13 2.391170e-13 5.799921e-08))
0.581959      	((5.848197e-10 -1.622820e-09 -3.232553e-10) (-9.434656e-12 -9.009014e-12 1.066172e-10)) ((4.203356e-14 8.117020e-15 2.924336e-12) (-9.201103e-13 3.394675e-13 5.233062e-08))
0.710351      	((7.479989e-10 -1.596515e-09 -3.502775e-10) (-1.556776e-11 -2.464058e-11 1.367863e-10)) ((7.188002e-14 8.007583e-15 2.779817e-12) (-1.810390e-12 5.476656e-13 4.731895e-08))
0.864421      	((8.039312e-10 -1.286529e-09 -4.284801e-10) (-2.717813e-11 -1.593410e-11 1.641108e-10)) ((1.148874e-13 1.099991e-14 2.643736e-12) (-1.579141e-12 8.875104e-13 4.284167e-08))
1.049306      	((8.789978e-10 -1.157106e-09 -5.371853e-10) (-4.502846e-11 2.186769e-11 1.982435e-10)) ((1.460072e-13 7.303859e-15 2.500535e-12) (-5.298228e-13 1.239071e-12 3.882322e-08))
1.271167      	((7.860954e-10 -1.005598e-09 -6.214001e-10) (-7.864842e-11 6.777414e-11 2.425909e-10)) ((1.837818e-13 2.031646e-14 2.393178e-12) (6.707477e-13 1.997038e-12 3.522552e-08))
1.5374        	((5.744985e-10 -1.020172e-09 -7.245345e-10) (-1.339497e-10 1.204809e-10 2.855084e-10)) ((1.685702e-13 1.738463e-14 2.311134e-12) (1.927842e-12 3.317084e-12 3.203045e-08))
1.85688       	((3.997037e-10 -8.251694e-10 -8.483729e-10) (-2.008436e-10 1.619065e-10 3.284443e-10)) ((1.553446e-13 2.811964e-14 2.207932e-12) (3.416438e-12 4.910686e-12 2.922032e-08))
2.240256      	((2.186597e-10 -6.417149e-10 -1.013449e-09) (-2.730196e-10 2.037583e-10 3.768931e-10)) ((1.788229e-13 3.382152e-14 2.083569e-12) (5.176352e-12 6.785093e-12 2.676635e-08))
2.700307      	((1.034682e-10 -4.923764e-10 -1.203338e-09) (-3.480896e-10 2.675442e-10 4.359129e-10)) ((1.707912e-13 2.133204e-14 1.972026e-12) (7.347211e-12 9.004856e-12 2.462663e-08))
3.252369      	((-4.632659e-11 -2.991760e-10 -1.299666e-09) (-4.167322e-10 3.439397e-10 5.020999e-10)) ((1.415249e-13 7.077185e-15 1.836348e-12) (9.498158e-12 1.120801e-11 2.275133e-08))
3.914842      	((-4.325229e-11 1.578082e-11 -1.450097e-09) (-4.600260e-10 4.147258e-10 5.679861e-10)) ((1.031429e-13 1.042120e-15 1.712929e-12) (1.098686e-11 1.266271e-11 2.108996e-08))
4.709811      	((-1.263103e-10 1.233794e-10 -1.620821e-09) (-4.764408e-10 4.566524e-10 6.499259e-10)) ((8.148038e-14 -3.091752e-15 1.600368e-12) (1.155427e-11 1.328795e-11 1.959993e-08))
5.663773      	((-1.967642e-10 1.195785e-10 -1.790080e-09) (-4.657303e-10 4.578596e-10 7.374713e-10)) ((7.921877e-14 -1.028658e-14 1.485711e-12) (1.111612e-11 1.328626e-11 1.825058e-08))
6.808528      	((-1.791071e-10 7.201340e-11 -2.010871e-09) (-4.293645e-10 4.186605e-10 8.198190e-10)) ((6.214333e-14 -1.693127e-14 1.384246e-12) (9.788986e-12 1.256955e-11 1.701830e-08))
8.182233      	((-1.048005e-10 1.241628e-10 -2.167692e-09) (-3.699314e-10 3.584450e-10 9.194068e-10)) ((4.303732e-14 -2.645244e-14 1.284052e-12) (8.618525e-12 1.118405e-11 1.588525e-08))
9.83068       	((-1.197231e-10 -5.979629e-11 -2.422532e-09) (-3.000500e-10 2.866043e-10 1.021408e-09)) ((4.521298e-14 -3.591432e-14 1.191523e-12) (7.027356e-12 9.522613e-12 1.484190e-08))
11.808816     	((2.198898e-11 -1.958021e-10 -2.593760e-09) (-2.280489e-10 2.159951e-10 1.130093e-09)) ((2.585389e-14 -4.445693e-14 1.105852e-12) (4.738439e-12 7.490436e-12 1.388312e-08))
14.182579     	((2.569054e-11 -1.661522e-10 -2.860797e-09) (-1.672130e-10 1.585521e-10 1.250828e-09)) ((-2.438637e-15 -4.516311e-14 1.022054e-12) (2.776381e-12 5.778537e-12 1.300284e-08))
17.031095     	((1.181455e-10 -1.202913e-10 -3.121227e-09) (-1.190088e-10 1.146638e-10 1.368634e-09)) ((-2.178505e-14 -4.324800e-14 9.487373e-13) (1.829878e-12 4.508923e-12 1.219671e-08))
20.449314     	((1.371771e-10 -1.763227e-10 -3.401335e-09) (-8.991178e-11 8.976668e-11 1.491851e-09)) ((-2.924556e-14 -4.234526e-14 8.818766e-13) (1.545117e-12 3.752274e-12 1.146009e-08))
24.551176     	((1.440019e-10 -1.402318e-10 -3.652021e-09) (-8.058157e-11 8.475982e-11 1.618973e-09)) ((-4.050537e-14 -4.188802e-14 8.216988e-13) (1.842039e-12 3.460261e-12 1.078743e-08))
29.473411     	((1.280174e-10 -1.358903e-10 -3.997032e-09) (-8.636997e-11 9.725300e-11 1.752112e-09)) ((-4.362966e-14 -4.125034e-14 7.693491e-13) (2.492067e-12 3.547261e-12 1.017259e-08))
35.380094     	((1.024961e-10 -1.106011e-10 -4.483339e-09) (-1.037742e-10 1.211203e-10 1.895870e-09)) ((-4.692565e-14 -4.243466e-14 7.229729e-13) (3.401646e-12 3.863003e-12 9.610092e-09))
42.468112     	((6.503453e-11 -8.899730e-11 -4.932187e-09) (-1.231714e-10 1.486363e-10 2.055554e-09)) ((-4.811536e-14 -4.477368e-14 6.812587e-13) (4.290477e-12 4.256556e-12 9.095916e-09))
50.973735     	((3.845521e-11 -6.747357e-11 -5.394203e-09) (-1.420906e-10 1.737708e-10 2.248200e-09)) ((-4.934738e-14 -4.736275e-14 6.425224e-13) (5.058108e-12 4.653418e-12 8.626572e-09))
61.180482     	((6.889710e-12 -5.900656e-11 -5.831442e-09) (-1.596958e-10 1.934803e-10 2.476414e-09)) ((-4.750860e-14 -4.954555e-14 6.069182e-13) (5.580371e-12 5.124919e-12 8.198579e-09))
73.428578     	((-1.424779e-11 -5.980768e-11 -6.232939e-09) (-1.761796e-10 2.071699e-10 2.715711e-09)) ((-4.541314e-14 -5.080100e-14 5.741433e-13) (5.843569e-12 5.621126e-12 7.808716e-09))
88.126294     	((-2.823644e-11 -5.577015e-11 -6.662391e-09) (-1.898221e-10 2.150289e-10 2.961649e-09)) ((-4.415726e-14 -5.216460e-14 5.445225e-13) (5.880895e-12 5.949402e-12 7.453964e-09))
105.763553    	((-4.145142e-11 -5.707861e-11 -7.092754e-09) (-1.997545e-10 2.171343e-10 3.213185e-09)) ((-4.144435e-14 -5.335077e-14 5.175478e-13) (5.712977e-12 6.148787e-12 7.131239e-09))
126.928263    	((-4.140933e-11 -4.980099e-11 -7.539911e-09) (-2.070363e-10 2.160968e-10 3.471825e-09)) ((-3.918792e-14 -5.314930e-14 4.929861e-13) (5.521881e-12 6.327409e-12 6.837538e-09))
152.325916    	((-3.487911e-11 -4.607044e-11 -8.004912e-09) (-2.113798e-10 2.138698e-10 3.737863e-09)) ((-3.777870e-14 -5.255118e-14 4.701141e-13) (5.312730e-12 6.367154e-12 6.570187e-09))
182.803099    	((-3.108440e-11 -3.899480e-11 -8.457826e-09) (-2.123959e-10 2.092881e-10 4.015290e-09)) ((-3.703451e-14 -5.481176e-14 4.492367e-13) (5.028355e-12 6.384540e-12 6.326742e-09))
219.375719    	((-2.756634e-11 -2.033481e-11 -8.896540e-09) (-2.108667e-10 2.025537e-10 4.306672e-09)) ((-3.803739e-14 -5.624544e-14 4.307650e-13) (4.757681e-12 6.336452e-12 6.105080e-09))
263.262863    	((-1.690599e-11 -5.841016e-12 -9.315919e-09) (-2.081132e-10 1.939938e-10 4.611639e-09)) ((-3.916089e-14 -5.661363e-14 4.142993e-13) (4.505079e-12 6.232372e-12 5.903198e-09))
315.927436    	((-1.269320e-11 4.832837e-12 -9.714158e-09) (-2.048573e-10 1.830866e-10 4.923546e-09)) ((-3.969160e-14 -5.740896e-14 3.990182e-13) (4.212360e-12 6.086010e-12 5.719279e-09))
379.124923    	((-1.550116e-11 9.053474e-12 -1.008842e-08) (-2.009637e-10 1.716640e-10 5.236751e-09)) ((-4.035299e-14 -5.848496e-14 3.848008e-13) (3.867107e-12 5.904426e-12 5.551798e-09))
454.961908    	((-2.281197e-11 9.129116e-12 -1.043544e-08) (-1.964060e-10 1.604887e-10 5.548638e-09)) ((-4.098551e-14 -6.045502e-14 3.715098e-13) (3.474544e-12 5.775759e-12 5.399465e-09))
545.966289    	((-2.533171e-11 -1.151707e-14 -1.075625e-08) (-1.912804e-10 1.495529e-10 5.858100e-09)) ((-4.107186e-14 -6.119511e-14 3.590952e-13) (3.062304e-12 5.634289e-12 5.261251e-09))
655.171547    	((-2.713674e-11 -1.218167e-12 -1.104757e-08) (-1.848433e-10 1.384476e-10 6.165492e-09)) ((-4.195954e-14 -6.204060e-14 3.477960e-13) (2.668430e-12 5.450955e-12 5.136150e-09))
786.217856    	((-2.697250e-11 -6.223958e-13 -1.131183e-08) (-1.777205e-10 1.280289e-10 6.470631e-09)) ((-4.267145e-14 -6.215118e-14 3.376606e-13) (2.316712e-12 5.241312e-12 5.023148e-09))
943.473427    	((-3.055909e-11 -7.381255e-12 -1.155151e-08) (-1.702129e-10 1.185326e-10 6.774608e-09)) ((-4.224336e-14 -6.236672e-14 3.285683e-13) (2.016731e-12 5.013480e-12 4.921224e-09))
1132.180113   	((-2.672134e-11 -6.808317e-12 -1.176228e-08) (-1.627109e-10 1.093589e-10 7.077292e-09)) ((-4.214913e-14 -6.241908e-14 3.201286e-13) (1.769898e-12 4.756422e-12 4.829355e-09))
1353.120257   	((-2.211339e-11 -6.429514e-12 -1.194999e-08) (-1.540865e-10 1.009836e-10 7.367406e-09)) ((-4.181540e-14 -6.261950e-14 3.125543e-13) (1.619032e-12 4.460572e-12 4.746831e-09))
1606.295762   	((-2.200715e-11 -9.344842e-12 -1.211810e-08) (-1.450883e-10 9.345731e-11 7.640232e-09)) ((-4.150566e-14 -6.212988e-14 3.058608e-13) (1.508073e-12 4.152592e-12 4.672979e-09))
1891.708987   	((-2.068449e-11 -1.214971e-11 -1.227066e-08) (-1.359240e-10 8.683956e-11 7.895358e-09)) ((-4.126511e-14 -6.181903e-14 3.000297e-13) (1.425345e-12 3.836404e-12 4.607060e-09))
2209.362609   	((-1.968667e-11 -1.254596e-11 -1.241058e-08) (-1.273052e-10 8.121937e-11 8.133130e-09)) ((-4.090286e-14 -6.199906e-14 2.949011e-13) (1.370574e-12 3.541946e-12 4.548226e-09))
2531.791477   	((-1.884706e-11 -1.404154e-11 -1.253821e-08) (-1.191014e-10 7.601323e-11 8.353232e-09)) ((-4.073801e-14 -6.215487e-14 2.902538e-13) (1.337954e-12 3.258705e-12 4.495869e-09))
2854.242071   	((-1.841398e-11 -1.610888e-11 -1.265041e-08) (-1.115628e-10 7.132005e-11 8.557378e-09)) ((-4.064535e-14 -6.239924e-14 2.861421e-13) (1.318955e-12 2.983406e-12 4.449245e-09))
3176.707743   	((-1.861964e-11 -1.821396e-11 -1.274947e-08) (-1.045417e-10 6.709387e-11 8.746632e-09)) ((-4.064594e-14 -6.262212e-14 2.823877e-13) (1.311777e-12 2.718555e-12 4.407699e-09))
3499.179447   	((-1.833667e-11 -1.867803e-11 -1.283818e-08) (-9.820978e-11 6.366366e-11 8.922231e-09)) ((-4.075324e-14 -6.294210e-14 2.789282e-13) (1.326324e-12 2.473671e-12 4.370576e-09))
3821.655309   	((-1.640655e-11 -1.877040e-11 -1.291841e-08) (-9.248294e-11 6.124235e-11 9.085133e-09)) ((-4.074178e-14 -6.348847e-14 2.758239e-13) (1.362293e-12 2.253921e-12 4.337328e-09))
4144.135539   	((-1.461869e-11 -1.828027e-11 -1.299146e-08) (-8.735145e-11 5.944093e-11 9.236067e-09)) ((-4.082868e-14 -6.409008e-14 2.730829e-13) (1.414125e-12 2.059706e-12 4.307454e-09))
4466.620313   	((-1.365309e-11 -1.740431e-11 -1.305817e-08) (-8.278936e-11 5.802218e-11 9.375770e-09)) ((-4.098513e-14 -6.467959e-14 2.706014e-13) (1.468732e-12 1.891777e-12 4.280541e-09))
4789.109598   	((-1.339097e-11 -1.693364e-11 -1.311944e-08) (-7.878423e-11 5.708651e-11 9.505380e-09)) ((-4.125472e-14 -6.526538e-14 2.683675e-13) (1.524522e-12 1.748873e-12 4.256229e-09))
5111.603315   	((-1.351465e-11 -1.656651e-11 -1.317583e-08) (-7.523925e-11 5.641100e-11 9.626182e-09)) ((-4.155248e-14 -6.593287e-14 2.663515e-13) (1.573852e-12 1.632559e-12 4.234198e-09))
5434.101424   	((-1.354646e-11 -1.537807e-11 -1.322776e-08) (-7.213510e-11 5.591153e-11 9.738896e-09)) ((-4.182554e-14 -6.648475e-14 2.645125e-13) (1.618152e-12 1.536242e-12 4.214187e-09))
5756.603759   	((-1.377638e-11 -1.447892e-11 -1.327555e-08) (-6.945799e-11 5.563320e-11 9.844053e-09)) ((-4.202654e-14 -6.695518e-14 2.628465e-13) (1.662105e-12 1.456716e-12 4.195971e-09))
6079.110102   	((-1.433197e-11 -1.392423e-11 -1.331979e-08) (-6.714585e-11 5.558446e-11 9.942217e-09)) ((-4.219363e-14 -6.737209e-14 2.613139e-13) (1.708230e-12 1.389845e-12 4.179349e-09))
6401.62028    	((-1.491531e-11 -1.359764e-11 -1.336061e-08) (-6.516672e-11 5.568938e-11 1.003379e-08)) ((-4.233511e-14 -6.779992e-14 2.599156e-13) (1.754190e-12 1.333579e-12 4.164156e-09))
6724.134111   	((-1.522632e-11 -1.344412e-11 -1.339828e-08) (-6.341921e-11 5.585692e-11 1.011940e-08)) ((-4.248253e-14 -6.821097e-14 2.586011e-13) (1.795020e-12 1.287608e-12 4.150244e-09))
7046.651376   	((-1.561697e-11 -1.368145e-11 -1.343294e-08) (-6.181242e-11 5.600311e-11 1.019950e-08)) ((-4.264242e-14 -6.858274e-14 2.573895e-13) (1.832217e-12 1.247029e-12 4.137481e-09))
7369.17186    	((-1.628680e-11 -1.445784e-11 -1.346473e-08) (-6.036296e-11 5.601196e-11 1.027442e-08)) ((-4.277547e-14 -6.899591e-14 2.562710e-13) (1.862631e-12 1.212333e-12 4.125753e-09))
7691.695389   	((-1.706756e-11 -1.511843e-11 -1.349398e-08) (-5.909824e-11 5.592932e-11 1.034436e-08)) ((-4.287223e-14 -6.941995e-14 2.552308e-13) (1.884058e-12 1.185798e-12 4.114962e-09))
