# Forces      
# CofR        : (0.000000e+00 0.000000e+00 0.000000e+00)
# Time        forces(pressure viscous)	moments(pressure viscous)
0             	((0.000000e+00 0.000000e+00 0.000000e+00) (0.000000e+00 0.000000e+00 0.000000e+00)) ((0.000000e+00 0.000000e+00 0.000000e+00) (0.000000e+00 0.000000e+00 0.000000e+00))
0.012         	((2.226817e-10 -4.787802e-08 6.106948e-10) (6.371630e-12 -5.364949e-10 3.357783e-12)) ((3.457557e-12 2.389734e-14 6.605537e-10) (-1.023345e-11 -2.645630e-13 1.339405e-06))
0.0264        	((-2.039279e-10 1.731170e-08 -1.734528e-09) (8.456338e-12 -5.731031e-10 1.360784e-12)) ((8.123001e-12 -2.446617e-14 2.003872e-10) (-1.815105e-11 -2.405747e-13 1.172360e-06))
0.04368       	((8.086700e-10 -8.835407e-09 -3.859590e-10) (9.109402e-12 -3.729033e-10 6.924376e-13)) ((-3.660701e-12 6.010182e-14 1.069461e-10) (-1.511366e-11 -3.284786e-13 1.014133e-06))
0.064416      	((7.996184e-10 -9.094642e-10 -2.483557e-09) (3.287133e-12 -1.957682e-10 5.462181e-12)) ((1.109575e-12 5.610207e-14 7.336944e-11) (-7.361545e-12 -1.684678e-13 8.691560e-07))
0.0892992     	((1.054115e-09 -4.384490e-09 -3.095239e-09) (1.242167e-12 -1.193924e-10 1.830324e-11)) ((-1.103559e-12 1.900096e-13 5.987719e-11) (-3.523811e-12 8.965109e-14 7.413110e-07))
0.119159      	((8.636139e-10 -5.244183e-10 -4.406050e-09) (2.785969e-12 -1.039520e-10 6.051858e-11)) ((-6.569862e-13 2.214223e-13 4.818554e-11) (1.058199e-12 -1.988719e-13 6.322039e-07))
0.154991      	((9.562405e-10 -3.863079e-09 -5.749416e-09) (-6.732955e-12 -8.124741e-11 1.679721e-10)) ((-6.339722e-13 2.459579e-13 3.867404e-11) (4.522510e-12 -5.274170e-13 5.422318e-07))
0.197989      	((2.913365e-10 -2.941139e-09 -6.565212e-09) (-2.412060e-11 -4.365288e-11 4.100429e-10)) ((-5.445220e-13 2.098451e-13 3.075996e-11) (6.746199e-12 -1.853464e-13 4.696732e-07))
0.249587      	((1.261086e-09 -3.573455e-09 -7.643533e-09) (-3.816159e-11 -1.240223e-11 7.645148e-10)) ((-5.238390e-13 3.064108e-13 2.583773e-11) (5.704903e-12 7.647547e-13 4.116215e-07))
0.311504      	((1.133346e-09 -3.768376e-09 -8.076675e-09) (-4.916515e-11 6.654367e-12 1.170093e-09)) ((-4.680370e-13 2.402862e-13 2.308713e-11) (4.093196e-12 1.660235e-12 3.646413e-07))
0.385805      	((1.503747e-09 -5.199118e-09 -9.354295e-09) (-6.463115e-11 1.057039e-11 1.612787e-09)) ((-2.504971e-13 1.885722e-13 2.032465e-11) (2.357957e-12 1.875443e-12 3.257108e-07))
0.474966      	((1.819506e-09 -6.343969e-09 -9.983028e-09) (-8.289840e-11 2.048386e-11 2.076117e-09)) ((1.496399e-13 5.173121e-14 1.796781e-11) (-1.213934e-12 2.086544e-12 2.926069e-07))
0.581959      	((2.328538e-09 -7.044920e-09 -1.074910e-08) (-9.767377e-11 -9.122718e-12 2.627293e-09)) ((2.821645e-13 8.055161e-14 1.662804e-11) (-5.667248e-12 4.026553e-12 2.638351e-07))
0.710351      	((3.301987e-09 -6.684281e-09 -1.234258e-08) (-1.187430e-10 -4.585443e-11 3.326343e-09)) ((4.247927e-13 1.463359e-13 1.574913e-11) (-8.024756e-12 6.697646e-12 2.384292e-07))
0.864421      	((3.831981e-09 -5.510902e-09 -1.436138e-08) (-1.535313e-10 6.600830e-11 4.115152e-09)) ((6.748553e-13 8.730953e-14 1.485552e-11) (-5.708328e-12 8.486924e-12 2.157635e-07))
1.049306      	((4.293445e-09 -4.865922e-09 -1.646355e-08) (-2.150463e-10 2.407062e-10 5.022295e-09)) ((8.652852e-13 9.379222e-14 1.398687e-11) (-7.624847e-13 9.786087e-12 1.954569e-07))
1.271167      	((2.982508e-09 -5.041237e-09 -1.864596e-08) (-3.841794e-10 3.684298e-10 6.084615e-09)) ((1.019976e-12 5.590432e-15 1.328365e-11) (3.191629e-12 1.319338e-11 1.773164e-07))
1.5374        	((1.582670e-09 -4.836887e-09 -2.067670e-08) (-6.829928e-10 5.201248e-10 7.223851e-09)) ((9.514863e-13 -8.952340e-14 1.262773e-11) (8.465936e-12 2.007590e-11 1.612534e-07))
1.85688       	((1.023105e-09 -4.487013e-09 -2.260223e-08) (-1.010204e-09 6.780946e-10 8.386394e-09)) ((8.072074e-13 -6.635550e-14 1.191020e-11) (1.528176e-11 2.772372e-11 1.471775e-07))
2.240256      	((-1.387976e-10 -3.470898e-09 -2.528297e-08) (-1.303538e-09 8.767694e-10 9.677906e-09)) ((7.892537e-13 -8.106218e-14 1.114344e-11) (2.360272e-11 3.647159e-11 1.349303e-07))
2.700307      	((-2.263279e-10 -2.570621e-09 -2.756973e-08) (-1.579733e-09 1.155429e-09 1.108902e-08)) ((7.478009e-13 -1.323329e-13 1.041264e-11) (3.293410e-11 4.460203e-11 1.242782e-07))
3.252369      	((-5.201394e-10 -1.902804e-09 -3.071089e-08) (-1.787900e-09 1.396120e-09 1.255955e-08)) ((7.014147e-13 -1.977489e-13 9.664543e-12) (3.970084e-11 5.099616e-11 1.149475e-07))
3.914842      	((-1.039302e-09 -7.483646e-10 -3.415212e-08) (-1.866385e-09 1.592662e-09 1.415005e-08)) ((5.580551e-13 -2.470954e-13 8.945437e-12) (4.252732e-11 5.603074e-11 1.066728e-07))
4.709811      	((-1.650019e-09 -2.382932e-10 -3.819120e-08) (-1.863569e-09 1.723240e-09 1.593197e-08)) ((4.712889e-13 -3.595537e-13 8.266304e-12) (4.169004e-11 5.965426e-11 9.922857e-08))
5.663773      	((-1.412462e-09 -6.134118e-11 -4.310932e-08) (-1.756908e-09 1.655497e-09 1.803085e-08)) ((3.843940e-13 -4.065124e-13 7.615461e-12) (3.686891e-11 5.951794e-11 9.245258e-08))
6.808528      	((-9.634124e-10 -3.175778e-10 -4.866038e-08) (-1.536847e-09 1.460215e-09 2.033836e-08)) ((3.071396e-13 -4.307294e-13 7.036761e-12) (3.239046e-11 5.425001e-11 8.623867e-08))
8.182233      	((-6.732937e-10 -1.300105e-11 -5.307398e-08) (-1.292830e-09 1.279432e-09 2.285503e-08)) ((2.612286e-13 -5.134836e-13 6.490864e-12) (2.960410e-11 4.818755e-11 8.051426e-08))
9.83068       	((-4.348352e-10 -4.246444e-10 -5.815646e-08) (-1.060433e-09 1.090997e-09 2.553153e-08)) ((1.736143e-13 -6.473129e-13 5.976657e-12) (2.489402e-11 4.231120e-11 7.523119e-08))
11.808816     	((-2.034549e-10 -7.613737e-10 -6.358637e-08) (-8.670831e-10 9.138260e-10 2.831572e-08)) ((5.264773e-14 -6.798468e-13 5.516029e-12) (1.751190e-11 3.471945e-11 7.035380e-08))
14.182579     	((7.852032e-11 -3.116919e-10 -6.956361e-08) (-6.828860e-10 7.571244e-10 3.136399e-08)) ((-6.988254e-14 -6.580158e-13 5.084013e-12) (1.222639e-11 2.731333e-11 6.585769e-08))
17.031095     	((-4.997463e-11 -4.156050e-10 -7.554846e-08) (-5.455582e-10 6.332909e-10 3.457098e-08)) ((-1.371932e-13 -6.294193e-13 4.693619e-12) (9.792534e-12 2.159095e-11 6.173599e-08))
20.449314     	((-2.094792e-10 -5.656792e-10 -8.231516e-08) (-4.509522e-10 5.800209e-10 3.782418e-08)) ((-1.826856e-13 -6.785385e-13 4.345063e-12) (1.069346e-11 1.817097e-11 5.798342e-08))
24.551176     	((-3.690006e-10 -8.072391e-10 -8.991748e-08) (-4.167593e-10 6.197261e-10 4.128047e-08)) ((-2.094491e-13 -7.091754e-13 4.053389e-12) (1.310805e-11 1.638827e-11 5.457576e-08))
29.473411     	((-3.499775e-10 -7.619258e-10 -9.731055e-08) (-4.266565e-10 6.904202e-10 4.503742e-08)) ((-2.186320e-13 -7.394644e-13 3.786919e-12) (1.511204e-11 1.618980e-11 5.148233e-08))
35.380094     	((-3.677413e-10 -9.461864e-10 -1.051176e-07) (-4.753393e-10 7.536031e-10 4.914628e-08)) ((-2.231386e-13 -7.843112e-13 3.546687e-12) (1.650406e-11 1.753338e-11 4.867413e-08))
42.468112     	((-3.083944e-10 -8.021981e-10 -1.131816e-07) (-5.652380e-10 8.352391e-10 5.365780e-08)) ((-2.269950e-13 -8.231390e-13 3.329709e-12) (1.837107e-11 1.948361e-11 4.612189e-08))
50.973735     	((-2.096920e-10 -7.610165e-10 -1.208687e-07) (-6.405288e-10 8.937003e-10 5.861212e-08)) ((-2.267235e-13 -8.547752e-13 3.130410e-12) (1.954410e-11 2.196299e-11 4.379614e-08))
61.180482     	((-1.583281e-10 -6.815011e-10 -1.282783e-07) (-7.309164e-10 9.103069e-10 6.391866e-08)) ((-2.346781e-13 -8.721535e-13 2.948615e-12) (1.925271e-11 2.401723e-11 4.167270e-08))
73.428578     	((-2.463246e-10 -7.278695e-10 -1.355417e-07) (-8.407034e-10 9.045773e-10 6.944745e-08)) ((-2.444965e-13 -8.719728e-13 2.776102e-12) (1.829052e-11 2.621206e-11 3.973727e-08))
88.126294     	((-4.092609e-10 -8.691347e-10 -1.425406e-07) (-9.315115e-10 8.679926e-10 7.509755e-08)) ((-2.410414e-13 -8.558707e-13 2.617742e-12) (1.643995e-11 2.799253e-11 3.797611e-08))
105.763553    	((-5.716873e-10 -9.522117e-10 -1.496924e-07) (-1.000797e-09 7.994033e-10 8.079332e-08)) ((-2.470136e-13 -8.590011e-13 2.475070e-12) (1.371901e-11 2.984471e-11 3.637510e-08))
126.928263    	((-6.523338e-10 -9.884343e-10 -1.570774e-07) (-1.055752e-09 7.275690e-10 8.652833e-08)) ((-2.616785e-13 -8.833168e-13 2.352737e-12) (1.034168e-11 3.164247e-11 3.492263e-08))
152.325916    	((-7.270256e-10 -1.021926e-09 -1.645362e-07) (-1.099296e-09 6.506670e-10 9.237284e-08)) ((-2.650049e-13 -9.199883e-13 2.247668e-12) (6.760556e-12 3.266360e-11 3.360560e-08))
182.803099    	((-7.855104e-10 -1.065388e-09 -1.720028e-07) (-1.116189e-09 5.617795e-10 9.836290e-08)) ((-2.690694e-13 -9.583031e-13 2.149700e-12) (2.683722e-12 3.285832e-11 3.241222e-08))
219.375719    	((-7.578147e-10 -1.102433e-09 -1.793578e-07) (-1.104163e-09 4.576743e-10 1.045120e-07)) ((-2.677300e-13 -9.870453e-13 2.059387e-12) (-1.795019e-12 3.215020e-11 3.133346e-08))
262.372454    	((-6.876910e-10 -1.112098e-09 -1.865468e-07) (-1.058343e-09 3.568915e-10 1.107598e-07)) ((-2.594009e-13 -1.016351e-12 1.979220e-12) (-5.800828e-12 3.022547e-11 3.036499e-08))
311.791575    	((-6.865753e-10 -1.128272e-09 -1.932507e-07) (-9.949148e-10 2.786205e-10 1.170409e-07)) ((-2.455742e-13 -1.051463e-12 1.903360e-12) (-9.273022e-12 2.779650e-11 2.950091e-08))
367.631471    	((-6.644754e-10 -1.135862e-09 -1.994543e-07) (-9.215543e-10 2.041376e-10 1.233726e-07)) ((-2.297388e-13 -1.079151e-12 1.831778e-12) (-1.229418e-11 2.422948e-11 2.873589e-08))
429.89045     	((-6.986740e-10 -1.149254e-09 -2.050637e-07) (-8.290233e-10 1.466267e-10 1.297068e-07)) ((-2.075193e-13 -1.106066e-12 1.772901e-12) (-1.430953e-11 2.060382e-11 2.806311e-08))
494.062471    	((-6.867745e-10 -1.130295e-09 -2.103151e-07) (-7.334114e-10 1.076218e-10 1.358538e-07)) ((-1.853613e-13 -1.128500e-12 1.725061e-12) (-1.567496e-11 1.705911e-11 2.748124e-08))
558.215008    	((-7.099467e-10 -1.079914e-09 -2.149656e-07) (-6.398428e-10 7.797217e-11 1.417561e-07)) ((-1.745369e-13 -1.152666e-12 1.684802e-12) (-1.626998e-11 1.384737e-11 2.698180e-08))
622.347827    	((-7.137952e-10 -1.016328e-09 -2.189443e-07) (-5.568265e-10 7.432680e-11 1.473565e-07)) ((-1.668883e-13 -1.177195e-12 1.646313e-12) (-1.577133e-11 1.111477e-11 2.655541e-08))
686.462176    	((-7.232481e-10 -9.497813e-10 -2.223693e-07) (-4.774060e-10 8.029504e-11 1.526372e-07)) ((-1.589287e-13 -1.201630e-12 1.612255e-12) (-1.466587e-11 8.948418e-12 2.619161e-08))
750.559553    	((-7.505750e-10 -9.006528e-10 -2.252854e-07) (-4.146345e-10 8.955375e-11 1.576184e-07)) ((-1.522464e-13 -1.223390e-12 1.581289e-12) (-1.324456e-11 7.309344e-12 2.588176e-08))
814.638647    	((-7.676125e-10 -8.679907e-10 -2.277780e-07) (-3.632384e-10 1.057796e-10 1.623312e-07)) ((-1.457345e-13 -1.243818e-12 1.553896e-12) (-1.172698e-11 6.104438e-12 2.561776e-08))
878.701505    	((-7.730847e-10 -8.367338e-10 -2.299303e-07) (-3.309543e-10 1.276517e-10 1.667991e-07)) ((-1.406815e-13 -1.262671e-12 1.530075e-12) (-1.011152e-11 5.196429e-12 2.539288e-08))
942.750473    	((-7.867268e-10 -8.211486e-10 -2.317772e-07) (-3.059023e-10 1.478614e-10 1.710484e-07)) ((-1.400819e-13 -1.282478e-12 1.508822e-12) (-8.701881e-12 4.624833e-12 2.520131e-08))
1006.785883   	((-8.002367e-10 -8.018341e-10 -2.333448e-07) (-2.857900e-10 1.613641e-10 1.750890e-07)) ((-1.403579e-13 -1.302832e-12 1.489793e-12) (-7.633934e-12 4.297345e-12 2.503849e-08))
1070.808578   	((-8.184025e-10 -7.916138e-10 -2.346931e-07) (-2.688419e-10 1.673310e-10 1.789282e-07)) ((-1.391795e-13 -1.323236e-12 1.472522e-12) (-6.775625e-12 4.058568e-12 2.490061e-08))
1134.820498   	((-8.281808e-10 -7.891297e-10 -2.358328e-07) (-2.532649e-10 1.705907e-10 1.825687e-07)) ((-1.373494e-13 -1.343454e-12 1.457278e-12) (-6.105919e-12 3.761587e-12 2.478429e-08))
1198.823339   	((-8.293189e-10 -7.842749e-10 -2.367984e-07) (-2.369371e-10 1.722869e-10 1.860146e-07)) ((-1.367819e-13 -1.364345e-12 1.443964e-12) (-5.464416e-12 3.397150e-12 2.468653e-08))
1262.818947   	((-8.256432e-10 -7.855407e-10 -2.376097e-07) (-2.210532e-10 1.763662e-10 1.892757e-07)) ((-1.362947e-13 -1.385845e-12 1.432743e-12) (-4.764806e-12 3.027468e-12 2.460477e-08))
1326.807416   	((-8.182640e-10 -7.820643e-10 -2.382941e-07) (-2.072695e-10 1.812735e-10 1.923615e-07)) ((-1.370135e-13 -1.407151e-12 1.423860e-12) (-4.001808e-12 2.717820e-12 2.453691e-08))
1390.79016    	((-8.082903e-10 -7.800051e-10 -2.388733e-07) (-1.951269e-10 1.858363e-10 1.952846e-07)) ((-1.358130e-13 -1.427542e-12 1.416107e-12) (-3.219008e-12 2.518990e-12 2.448114e-08))
1454.768741   	((-8.072534e-10 -7.811737e-10 -2.393380e-07) (-1.871046e-10 1.908910e-10 1.980551e-07)) ((-1.341352e-13 -1.447827e-12 1.409019e-12) (-2.481208e-12 2.443672e-12 2.443587e-08))
1518.744417   	((-8.055965e-10 -7.780591e-10 -2.397027e-07) (-1.807208e-10 1.970087e-10 2.006786e-07)) ((-1.321770e-13 -1.465955e-12 1.402731e-12) (-1.712364e-12 2.459132e-12 2.439976e-08))
