# Forces      
# CofR        : (0.000000e+00 0.000000e+00 0.000000e+00)
# Time        forces(pressure viscous)	moments(pressure viscous)
0             	((0.000000e+00 0.000000e+00 0.000000e+00) (0.000000e+00 0.000000e+00 0.000000e+00)) ((0.000000e+00 0.000000e+00 0.000000e+00) (0.000000e+00 0.000000e+00 0.000000e+00))
0.012         	((2.582912e-12 -6.023525e-10 7.834219e-12) (7.710169e-14 -6.755997e-12 2.860170e-14)) ((4.332660e-14 1.606864e-16 8.291811e-12) (-1.290141e-13 -3.527579e-15 1.686200e-08))
0.0264        	((-1.967534e-12 2.184674e-10 -1.818473e-11) (8.752145e-14 -7.207856e-12 4.384100e-14)) ((1.019334e-13 -7.454930e-16 2.486041e-12) (-2.294962e-13 -3.384322e-15 1.475812e-08))
0.04368       	((1.161381e-11 -1.100700e-10 1.071174e-11) (1.097657e-13 -4.725877e-12 9.543486e-14)) ((-4.687293e-14 1.307104e-16 1.301246e-12) (-1.939403e-13 -4.609923e-15 1.276276e-08))
0.064416      	((8.149103e-12 -8.774867e-12 -4.750343e-12) (1.085862e-13 -2.530523e-12 7.821842e-14)) ((1.308903e-14 2.096580e-16 8.723751e-13) (-9.906696e-14 -5.679079e-15 1.093048e-08))
0.0892992     	((1.174558e-11 -5.306275e-11 3.001152e-12) (9.176505e-14 -1.605469e-12 7.548526e-15)) ((-1.428075e-14 1.036893e-15 7.019617e-13) (-4.753505e-14 -5.533576e-15 9.309760e-09))
0.119159      	((4.761451e-12 -4.554047e-12 1.893914e-12) (1.330256e-13 -1.364376e-12 -2.800275e-14)) ((-8.745038e-15 8.090375e-16 5.567892e-13) (1.879393e-14 -6.794912e-15 7.923200e-09))
0.154991      	((8.844921e-12 -4.436389e-11 1.188528e-12) (1.594340e-13 -1.012272e-12 -4.023685e-14)) ((-8.365554e-15 1.043399e-15 4.446058e-13) (6.700721e-14 -7.480917e-15 6.780865e-09))
0.197989      	((8.194304e-12 -3.451282e-11 1.711954e-12) (8.842869e-14 -6.351988e-13 -6.118616e-15)) ((-6.624381e-15 6.196946e-16 3.474341e-13) (9.172979e-14 -3.482250e-15 5.863462e-09))
0.249587      	((1.134909e-11 -4.004920e-11 7.701917e-13) (-2.767080e-14 -2.203726e-13 7.189696e-14)) ((-6.730006e-15 4.171722e-16 2.865535e-13) (8.440104e-14 2.948363e-15 5.133599e-09))
0.311504      	((1.817890e-11 -5.195140e-11 3.023377e-12) (-1.017447e-13 1.347308e-13 1.313346e-13)) ((-4.821102e-15 -3.845282e-17 2.533055e-13) (7.050669e-14 6.862724e-15 4.547086e-09))
0.385805      	((2.201604e-11 -6.701207e-11 2.516608e-12) (-8.940777e-14 -1.365081e-13 1.965752e-13)) ((-3.636210e-15 1.021935e-16 2.207947e-13) (5.355211e-14 8.338747e-15 4.063834e-09))
0.474966      	((3.000428e-11 -8.125508e-11 5.134443e-12) (-2.056389e-13 -3.698703e-13 3.083530e-13)) ((4.238762e-16 -1.711510e-16 1.926149e-13) (1.695249e-14 9.889522e-15 3.653783e-09))
0.581959      	((3.954323e-11 -1.051995e-10 6.463503e-12) (-3.426478e-13 -6.976966e-13 4.929773e-13)) ((2.288412e-15 -1.811263e-17 1.786401e-13) (-5.557728e-14 1.246681e-14 3.297199e-09))
0.710351      	((4.883708e-11 -1.047287e-10 8.320265e-12) (-7.923050e-13 -1.667530e-12 7.816256e-13)) ((4.588870e-15 5.373205e-17 1.699777e-13) (-1.167436e-13 2.068007e-14 2.981843e-09))
0.864421      	((5.459115e-11 -8.440505e-11 7.391685e-12) (-1.672851e-12 -1.285403e-12 9.247635e-13)) ((7.086579e-15 4.130278e-16 1.619291e-13) (-1.056881e-13 3.906185e-14 2.700016e-09))
1.049306      	((5.795671e-11 -7.585046e-11 5.806153e-12) (-2.789993e-12 1.009671e-12 1.222779e-12)) ((8.928134e-15 7.007349e-16 1.532987e-13) (-4.031665e-14 5.831647e-14 2.446967e-09))
1.271167      	((5.104222e-11 -6.609028e-11 6.469573e-12) (-4.933322e-12 4.164276e-12 1.611640e-12)) ((1.130679e-14 1.205615e-15 1.468224e-13) (4.059611e-14 1.016663e-13 2.220293e-09))
1.5374        	((3.912424e-11 -6.460290e-11 4.158900e-12) (-8.289681e-12 7.767432e-12 1.818091e-12)) ((1.011329e-14 1.408390e-15 1.421557e-13) (1.301182e-13 1.892351e-13 2.018832e-09))
1.85688       	((2.773660e-11 -4.991869e-11 -1.055014e-13) (-1.238020e-11 1.047148e-11 2.093878e-12)) ((9.238637e-15 1.820536e-15 1.361890e-13) (2.283395e-13 2.901228e-13 1.841479e-09))
2.240256      	((1.487437e-11 -3.337477e-11 -2.963170e-12) (-1.732554e-11 1.335806e-11 2.538864e-12)) ((1.073841e-14 2.059403e-15 1.288206e-13) (3.531440e-13 4.246922e-13 1.686472e-09))
2.700307      	((9.029937e-12 -2.054730e-11 -6.810538e-12) (-2.256010e-11 1.795910e-11 3.317655e-12)) ((9.925520e-15 2.063180e-15 1.223619e-13) (5.181831e-13 5.872641e-13 1.551202e-09))
3.252369      	((-9.179358e-13 -1.189128e-11 -4.932004e-12) (-2.756825e-11 2.337310e-11 4.063327e-12)) ((8.211296e-15 1.943588e-15 1.140233e-13) (6.698105e-13 7.374429e-13 1.432603e-09))
3.914842      	((-1.130966e-12 5.193834e-12 -6.832361e-12) (-3.092546e-11 2.795540e-11 4.486632e-12)) ((6.252477e-15 1.510924e-15 1.064651e-13) (7.576028e-13 8.349489e-13 1.327570e-09))
4.709811      	((-8.128542e-12 1.816559e-11 -8.755068e-12) (-3.240015e-11 3.078935e-11 4.957337e-12)) ((4.229474e-15 7.782160e-16 9.991400e-14) (8.101316e-13 8.852656e-13 1.233460e-09))
5.663773      	((-1.002377e-11 8.117127e-12 -9.999496e-12) (-3.196945e-11 3.111969e-11 5.290384e-12)) ((4.350829e-15 1.265918e-16 9.319873e-14) (7.954583e-13 8.897360e-13 1.148344e-09))
6.808528      	((-1.113154e-11 8.171478e-12 -1.029397e-11) (-2.940144e-11 2.875160e-11 5.533328e-12)) ((3.985478e-15 -1.355577e-16 8.681685e-14) (7.110520e-13 8.317675e-13 1.070705e-09))
8.182233      	((-8.497824e-12 5.946003e-12 -1.034159e-11) (-2.541744e-11 2.450996e-11 5.836939e-12)) ((2.720788e-15 -6.034262e-16 8.063538e-14) (6.117124e-13 7.249250e-13 9.993781e-10))
9.83068       	((-8.919500e-12 -3.296508e-12 -1.149651e-11) (-2.045157e-11 1.957195e-11 6.100601e-12)) ((2.879420e-15 -1.027319e-15 7.490567e-14) (4.878702e-13 6.003507e-13 9.337248e-10))
11.808816     	((-2.851587e-13 -1.431312e-11 -1.155776e-11) (-1.534691e-11 1.445415e-11 6.708430e-12)) ((1.533877e-15 -1.532985e-15 6.955491e-14) (3.344225e-13 4.680577e-13 8.734572e-10))
14.182579     	((8.744418e-13 -9.275875e-12 -1.247548e-11) (-1.091262e-11 1.025521e-11 7.274660e-12)) ((-5.171346e-18 -1.703871e-15 6.441243e-14) (2.019048e-13 3.546326e-13 8.182151e-10))
17.031095     	((6.782042e-12 -9.362704e-12 -1.207889e-11) (-7.497516e-12 7.079668e-12 7.679438e-12)) ((-1.344171e-15 -1.409732e-15 5.994076e-14) (1.326002e-13 2.675026e-13 7.676441e-10))
20.449314     	((8.207468e-12 -1.083014e-11 -1.241040e-11) (-5.458535e-12 5.155725e-12 8.034478e-12)) ((-1.744174e-15 -1.353228e-15 5.576073e-14) (9.884022e-14 2.193406e-13 7.214060e-10))
24.551176     	((1.110543e-11 -1.193489e-11 -1.294538e-11) (-4.731330e-12 4.546286e-12 8.231587e-12)) ((-2.272734e-15 -1.227609e-15 5.204089e-14) (1.029066e-13 2.026410e-13 6.791143e-10))
29.473411     	((9.265376e-12 -9.277649e-12 -1.421144e-11) (-5.126832e-12 5.319684e-12 8.637842e-12)) ((-2.336506e-15 -1.122405e-15 4.880858e-14) (1.306018e-13 2.102933e-13 6.403795e-10))
35.380094     	((8.340158e-12 -8.626868e-12 -1.668350e-11) (-6.331192e-12 7.107626e-12 8.957985e-12)) ((-2.401143e-15 -1.073433e-15 4.595438e-14) (1.861748e-13 2.333300e-13 6.048650e-10))
42.468112     	((6.126814e-12 -6.035611e-12 -1.888246e-11) (-7.899874e-12 9.233111e-12 9.339787e-12)) ((-2.511731e-15 -1.015961e-15 4.338298e-14) (2.481942e-13 2.635661e-13 5.723238e-10))
50.973735     	((5.963280e-12 -6.217223e-12 -2.068709e-11) (-9.338041e-12 1.100390e-11 9.948180e-12)) ((-2.538068e-15 -9.329009e-16 4.092970e-14) (3.009552e-13 2.940617e-13 5.425895e-10))
61.180482     	((4.640308e-12 -4.106040e-12 -2.297017e-11) (-1.050301e-11 1.247714e-11 1.076250e-11)) ((-2.519067e-15 -8.371768e-16 3.864817e-14) (3.460775e-13 3.184609e-13 5.154908e-10))
73.428578     	((3.534702e-12 -4.525348e-12 -2.502857e-11) (-1.148339e-11 1.350278e-11 1.175053e-11)) ((-2.565449e-15 -7.562382e-16 3.659151e-14) (3.751579e-13 3.406339e-13 4.908431e-10))
88.126294     	((2.679828e-12 -2.849802e-12 -2.686847e-11) (-1.216808e-11 1.408622e-11 1.282239e-11)) ((-2.659381e-15 -6.763603e-16 3.475410e-14) (3.894395e-13 3.542127e-13 4.684641e-10))
105.763553    	((1.394172e-12 -1.751734e-12 -2.881884e-11) (-1.256664e-11 1.450053e-11 1.384003e-11)) ((-2.710333e-15 -6.378098e-16 3.313941e-14) (4.016831e-13 3.594915e-13 4.481539e-10))
126.928263    	((6.883094e-13 -1.544232e-12 -3.089481e-11) (-1.273633e-11 1.472699e-11 1.483272e-11)) ((-2.672999e-15 -5.814856e-16 3.172173e-14) (4.077557e-13 3.581833e-13 4.297000e-10))
152.325916    	((3.078649e-13 -1.631543e-12 -3.312336e-11) (-1.275363e-11 1.466367e-11 1.583796e-11)) ((-2.557890e-15 -5.170053e-16 3.043530e-14) (4.056378e-13 3.547675e-13 4.129071e-10))
182.803099    	((1.876685e-13 -1.389102e-12 -3.519998e-11) (-1.261352e-11 1.448734e-11 1.696968e-11)) ((-2.405937e-15 -4.695513e-16 2.920245e-14) (3.989198e-13 3.500146e-13 3.976029e-10))
219.375719    	((1.652707e-13 -6.214395e-13 -3.733709e-11) (-1.230490e-11 1.421783e-11 1.811635e-11)) ((-2.314862e-15 -3.884381e-16 2.805580e-14) (3.874124e-13 3.408900e-13 3.836376e-10))
263.262863    	((-3.681012e-14 5.265010e-14 -3.967433e-11) (-1.187013e-11 1.377989e-11 1.930862e-11)) ((-2.267174e-15 -3.478597e-16 2.698970e-14) (3.698163e-13 3.282258e-13 3.708864e-10))
315.927436    	((-4.101239e-13 3.202624e-13 -4.196617e-11) (-1.136721e-11 1.326379e-11 2.049338e-11)) ((-2.182943e-15 -2.684242e-16 2.602036e-14) (3.496241e-13 3.138515e-13 3.592409e-10))
379.124923    	((-7.884506e-13 2.006039e-13 -4.417461e-11) (-1.089257e-11 1.267711e-11 2.170677e-11)) ((-2.059039e-15 -2.234556e-16 2.513485e-14) (3.295198e-13 2.999301e-13 3.486123e-10))
454.961908    	((-1.126706e-12 2.170931e-13 -4.584578e-11) (-1.043186e-11 1.203757e-11 2.301898e-11)) ((-1.940109e-15 -2.138985e-16 2.435046e-14) (3.081733e-13 2.874698e-13 3.389274e-10))
545.966289    	((-1.106961e-12 3.178465e-13 -4.755989e-11) (-9.942423e-12 1.134441e-11 2.430990e-11)) ((-1.869211e-15 -2.346513e-16 2.364518e-14) (2.857880e-13 2.747705e-13 3.301224e-10))
655.171547    	((-1.087963e-12 6.383219e-13 -4.934100e-11) (-9.407155e-12 1.066017e-11 2.556712e-11)) ((-1.839349e-15 -2.548547e-16 2.301220e-14) (2.646070e-13 2.598477e-13 3.221371e-10))
786.217856    	((-1.074926e-12 9.899396e-13 -5.100933e-11) (-8.864103e-12 9.987895e-12 2.678058e-11)) ((-1.842779e-15 -2.799922e-16 2.244881e-14) (2.449411e-13 2.440399e-13 3.149155e-10))
943.473427    	((-9.408155e-13 1.523317e-12 -5.266849e-11) (-8.305588e-12 9.318883e-12 2.793244e-11)) ((-1.870284e-15 -3.044776e-16 2.194358e-14) (2.262128e-13 2.260606e-13 3.083966e-10))
1132.180113   	((-8.978589e-13 2.075457e-12 -5.414637e-11) (-7.746763e-12 8.679113e-12 2.902307e-11)) ((-1.904461e-15 -3.366196e-16 2.146837e-14) (2.086000e-13 2.062603e-13 3.025258e-10))
1358.628135   	((-8.277154e-13 2.705620e-12 -5.562385e-11) (-7.194658e-12 8.092851e-12 3.008870e-11)) ((-1.915902e-15 -3.621842e-16 2.103398e-14) (1.929520e-13 1.864422e-13 2.972481e-10))
1630.365763   	((-7.916924e-13 3.331690e-12 -5.708925e-11) (-6.661527e-12 7.531807e-12 3.109933e-11)) ((-1.934513e-15 -3.719480e-16 2.063277e-14) (1.787533e-13 1.676008e-13 2.925080e-10))
1956.450915   	((-7.823290e-13 3.900354e-12 -5.855948e-11) (-6.165979e-12 7.013901e-12 3.208819e-11)) ((-1.948176e-15 -3.820443e-16 2.027305e-14) (1.650704e-13 1.504906e-13 2.882505e-10))
2347.753098   	((-7.438110e-13 4.548516e-12 -6.003211e-11) (-5.702931e-12 6.540991e-12 3.306191e-11)) ((-1.957681e-15 -3.857875e-16 1.994913e-14) (1.518802e-13 1.346963e-13 2.844282e-10))
2817.315718   	((-6.161428e-13 5.323202e-12 -6.151580e-11) (-5.267183e-12 6.120209e-12 3.404334e-11)) ((-1.956439e-15 -4.009152e-16 1.965751e-14) (1.404819e-13 1.204859e-13 2.809972e-10))
3380.790861   	((-4.460970e-13 6.138916e-12 -6.305873e-11) (-4.865064e-12 5.752578e-12 3.502554e-11)) ((-1.932842e-15 -4.201431e-16 1.938987e-14) (1.302724e-13 1.077895e-13 2.779165e-10))
4056.961033   	((-2.034394e-13 7.119934e-12 -6.470576e-11) (-4.512647e-12 5.429676e-12 3.597894e-11)) ((-1.896909e-15 -4.442388e-16 1.914591e-14) (1.209241e-13 9.688224e-14 2.751482e-10))
4868.36524    	((1.176330e-13 8.295807e-12 -6.644523e-11) (-4.202673e-12 5.144752e-12 3.687772e-11)) ((-1.853747e-15 -4.794106e-16 1.892874e-14) (1.128049e-13 8.770447e-14 2.726582e-10))
5842.050288   	((5.308010e-13 9.704337e-12 -6.831481e-11) (-3.934387e-12 4.907236e-12 3.769657e-11)) ((-1.812256e-15 -5.168553e-16 1.873121e-14) (1.059130e-13 8.016930e-14 2.704163e-10))
7010.472346   	((9.774623e-13 1.136434e-11 -7.041980e-11) (-3.701095e-12 4.703265e-12 3.842383e-11)) ((-1.768136e-15 -5.410902e-16 1.855000e-14) (9.996120e-14 7.366546e-14 2.683956e-10))
8412.578815   	((1.482377e-12 1.329823e-11 -7.273615e-11) (-3.500741e-12 4.530477e-12 3.906698e-11)) ((-1.714773e-15 -5.639727e-16 1.837863e-14) (9.496655e-14 6.855459e-14 2.665720e-10))
10095.106578  	((2.046186e-12 1.547639e-11 -7.529898e-11) (-3.317618e-12 4.391823e-12 3.963748e-11)) ((-1.644621e-15 -5.840483e-16 1.821892e-14) (9.045069e-14 6.409026e-14 2.649243e-10))
12114.139893  	((2.713226e-12 1.791518e-11 -7.813479e-11) (-3.140162e-12 4.277218e-12 4.013354e-11)) ((-1.565141e-15 -6.108598e-16 1.807315e-14) (8.582526e-14 6.010412e-14 2.634336e-10))
14536.979872  	((3.523779e-12 2.061166e-11 -8.126828e-11) (-2.967767e-12 4.178864e-12 4.055901e-11)) ((-1.475916e-15 -6.448610e-16 1.794222e-14) (8.129694e-14 5.634727e-14 2.620837e-10))
17444.387847  	((4.513037e-12 2.355288e-11 -8.471206e-11) (-2.796569e-12 4.093976e-12 4.091869e-11)) ((-1.378926e-15 -6.836299e-16 1.782632e-14) (7.663745e-14 5.299938e-14 2.608606e-10))
20863.095726  	((5.752155e-12 2.670367e-11 -8.841665e-11) (-2.625034e-12 4.024971e-12 4.121600e-11)) ((-1.279689e-15 -7.253645e-16 1.771981e-14) (7.232843e-14 5.018667e-14 2.597513e-10))
24793.11303   	((7.247019e-12 2.994658e-11 -9.236490e-11) (-2.448302e-12 3.975168e-12 4.146255e-11)) ((-1.182490e-15 -7.757017e-16 1.762128e-14) (6.877654e-14 4.774123e-14 2.587447e-10))
29234.448372  	((8.927052e-12 3.316822e-11 -9.647778e-11) (-2.266524e-12 3.942816e-12 4.166373e-11)) ((-1.095476e-15 -8.276058e-16 1.753091e-14) (6.573013e-14 4.547757e-14 2.578308e-10))
34187.109362  	((1.062393e-11 3.620780e-11 -1.003170e-10) (-2.093254e-12 3.920598e-12 4.183212e-11)) ((-1.019072e-15 -8.763390e-16 1.744193e-14) (6.313709e-14 4.357300e-14 2.570005e-10))
39300.433679  	((1.247492e-11 3.904169e-11 -1.041415e-10) (-1.926169e-12 3.893735e-12 4.197121e-11)) ((-9.575396e-16 -9.254940e-16 1.735827e-14) (6.058451e-14 4.198090e-14 2.562459e-10))
44413.818744  	((1.444740e-11 4.171005e-11 -1.077291e-10) (-1.769415e-12 3.865295e-12 4.209334e-11)) ((-9.047524e-16 -9.766762e-16 1.728081e-14) (5.808154e-14 4.046179e-14 2.555595e-10))
49527.258846  	((1.654586e-11 4.415677e-11 -1.110458e-10) (-1.622075e-12 3.830509e-12 4.219955e-11)) ((-8.592525e-16 -1.025297e-15 1.720693e-14) (5.550681e-14 3.894692e-14 2.549350e-10))
54640.748892  	((1.887108e-11 4.639803e-11 -1.141712e-10) (-1.483608e-12 3.791594e-12 4.230083e-11)) ((-8.185078e-16 -1.065703e-15 1.713527e-14) (5.292691e-14 3.759881e-14 2.543666e-10))
59754.284174  	((2.140351e-11 4.838666e-11 -1.171167e-10) (-1.353009e-12 3.750743e-12 4.240555e-11)) ((-7.939259e-16 -1.111877e-15 1.706088e-14) (5.044229e-14 3.633780e-14 2.538488e-10))
64867.860475  	((2.387959e-11 5.013383e-11 -1.198015e-10) (-1.236055e-12 3.701468e-12 4.250724e-11)) ((-7.831788e-16 -1.158728e-15 1.698715e-14) (4.785799e-14 3.542033e-14 2.533768e-10))
69981.473957  	((2.629094e-11 5.168123e-11 -1.222691e-10) (-1.132021e-12 3.643751e-12 4.260169e-11)) ((-7.765757e-16 -1.205952e-15 1.691755e-14) (4.504445e-14 3.503573e-14 2.529465e-10))
75095.120878  	((2.870650e-11 5.314571e-11 -1.245647e-10) (-1.035883e-12 3.579058e-12 4.268462e-11)) ((-7.749187e-16 -1.248282e-15 1.685021e-14) (4.204688e-14 3.509410e-14 2.525539e-10))
80208.797127  	((3.101087e-11 5.451600e-11 -1.265398e-10) (-9.480416e-13 3.504992e-12 4.275728e-11)) ((-7.774008e-16 -1.294824e-15 1.678761e-14) (3.876943e-14 3.557211e-14 2.521954e-10))
85322.49896   	((3.316330e-11 5.577843e-11 -1.284529e-10) (-8.667558e-13 3.424891e-12 4.282551e-11)) ((-7.800130e-16 -1.341940e-15 1.673026e-14) (3.523414e-14 3.627686e-14 2.518678e-10))
90436.223019  	((3.519489e-11 5.683311e-11 -1.302100e-10) (-7.869671e-13 3.346063e-12 4.289408e-11)) ((-7.781152e-16 -1.380025e-15 1.667844e-14) (3.173843e-14 3.693751e-14 2.515684e-10))
95549.966599  	((3.715881e-11 5.764744e-11 -1.317922e-10) (-7.037309e-13 3.266542e-12 4.296608e-11)) ((-7.707118e-16 -1.415281e-15 1.663284e-14) (2.816237e-14 3.727542e-14 2.512945e-10))
100663.7277   	((3.920605e-11 5.823236e-11 -1.332370e-10) (-6.166659e-13 3.193170e-12 4.304100e-11)) ((-7.647660e-16 -1.448000e-15 1.659155e-14) (2.478089e-14 3.722238e-14 2.510439e-10))
105777.505136 	((4.134900e-11 5.858631e-11 -1.344236e-10) (-5.252988e-13 3.124896e-12 4.311681e-11)) ((-7.631425e-16 -1.477649e-15 1.655407e-14) (2.168772e-14 3.670226e-14 2.508145e-10))
110891.298012 	((4.350488e-11 5.872824e-11 -1.355793e-10) (-4.275699e-13 3.059424e-12 4.319240e-11)) ((-7.643984e-16 -1.504906e-15 1.651974e-14) (1.876099e-14 3.562241e-14 2.506046e-10))
116005.105317 	((4.570741e-11 5.866524e-11 -1.365534e-10) (-3.238413e-13 2.995609e-12 4.326552e-11)) ((-7.702425e-16 -1.536943e-15 1.648910e-14) (1.603969e-14 3.405667e-14 2.504121e-10))
121118.926185 	((4.795983e-11 5.846907e-11 -1.374227e-10) (-2.167556e-13 2.935618e-12 4.333374e-11)) ((-7.753699e-16 -1.566313e-15 1.646090e-14) (1.361642e-14 3.211583e-14 2.502357e-10))
