# Forces      
# CofR        : (0.000000e+00 0.000000e+00 0.000000e+00)
# Time        forces(pressure viscous)	moments(pressure viscous)
0             	((0.000000e+00 0.000000e+00 0.000000e+00) (0.000000e+00 0.000000e+00 0.000000e+00)) ((0.000000e+00 0.000000e+00 0.000000e+00) (0.000000e+00 0.000000e+00 0.000000e+00))
0.012         	((2.051215e-12 -4.784648e-10 6.223247e-12) (6.123689e-14 -5.366497e-12 2.269050e-14)) ((3.441513e-14 1.273455e-16 6.586369e-12) (-1.024801e-13 -2.802460e-15 1.339396e-08))
0.0264        	((-1.561587e-12 1.735361e-10 -1.443704e-11) (6.948927e-14 -5.725397e-12 3.488059e-14)) ((8.096792e-14 -5.930610e-16 1.974656e-12) (-1.822978e-13 -2.689521e-15 1.172279e-08))
0.04368       	((9.226852e-12 -8.742846e-11 8.541237e-12) (8.721358e-14 -3.754006e-12 7.598589e-14)) ((-3.723376e-14 1.023841e-16 1.033523e-12) (-1.540624e-13 -3.665063e-15 1.013781e-08))
0.064416      	((6.469004e-12 -6.964432e-12 -3.717782e-12) (8.643475e-14 -2.010265e-12 6.213306e-14)) ((1.039513e-14 1.653427e-16 6.928451e-13) (-7.871003e-14 -4.519900e-15 8.682368e-09))
0.0892992     	((9.328928e-12 -4.214532e-11 2.470905e-12) (7.313959e-14 -1.275484e-12 5.563709e-15)) ((-1.134454e-14 8.211790e-16 5.574794e-13) (-3.777063e-14 -4.409970e-15 7.394957e-09))
0.119159      	((3.768414e-12 -3.613981e-12 1.622657e-12) (1.058265e-13 -1.083636e-12 -2.391772e-14)) ((-6.947846e-15 6.380466e-16 4.421681e-13) (1.493958e-14 -5.405396e-15 6.293546e-09))
0.154991      	((7.019176e-12 -3.523116e-11 1.093537e-12) (1.269912e-13 -8.037601e-13 -3.656269e-14)) ((-6.645031e-15 8.249867e-16 3.530715e-13) (5.324552e-14 -5.947763e-15 5.386137e-09))
0.197989      	((6.519574e-12 -2.740825e-11 1.539444e-12) (7.167796e-14 -5.045639e-13 -1.546247e-14)) ((-5.260527e-15 4.875864e-16 2.758934e-13) (7.286267e-14 -2.791787e-15 4.657410e-09))
0.249587      	((8.999318e-12 -3.180243e-11 8.124585e-13) (-2.001578e-14 -1.749317e-13 3.811905e-14)) ((-5.345079e-15 3.222086e-16 2.275363e-13) (6.705134e-14 2.290553e-15 4.077661e-09))
0.311504      	((1.445230e-11 -4.127747e-11 2.621667e-12) (-7.899118e-14 1.065131e-13 7.496701e-14)) ((-3.829248e-15 -3.618073e-17 2.011278e-13) (5.603788e-14 5.413276e-15 3.611787e-09))
0.385805      	((1.749109e-11 -5.324281e-11 2.257321e-12) (-6.965263e-14 -1.089156e-13 1.148072e-13)) ((-2.888003e-15 7.750962e-17 1.753097e-13) (4.256507e-14 6.593018e-15 3.227941e-09))
0.474966      	((2.385005e-11 -6.454675e-11 4.349789e-12) (-1.622113e-13 -2.944315e-13 1.910877e-13)) ((3.322872e-16 -1.382185e-16 1.529292e-13) (1.347167e-14 7.810580e-15 2.902240e-09))
0.581959      	((3.144598e-11 -8.357486e-11 5.430126e-12) (-2.701471e-13 -5.559510e-13 3.237061e-13)) ((1.811740e-15 -1.917007e-17 1.418343e-13) (-4.415008e-14 9.826430e-15 2.619007e-09))
0.710351      	((3.880487e-11 -8.325226e-11 6.938893e-12) (-6.264763e-13 -1.325762e-12 5.359731e-13)) ((3.649713e-15 3.714321e-17 1.349593e-13) (-9.279890e-14 1.628198e-14 2.368520e-09))
0.864421      	((4.342282e-11 -6.708402e-11 6.245170e-12) (-1.326581e-12 -1.023367e-12 6.320311e-13)) ((5.625387e-15 3.255535e-16 1.285710e-13) (-8.400550e-14 3.083896e-14 2.144664e-09))
1.049306      	((4.606720e-11 -6.027926e-11 5.042886e-12) (-2.215106e-12 7.987804e-13 8.488121e-13)) ((7.091144e-15 5.592701e-16 1.217207e-13) (-3.207870e-14 4.606703e-14 1.943666e-09))
1.271167      	((4.058868e-11 -5.254481e-11 5.638332e-12) (-3.917814e-12 3.307070e-12 1.131839e-12)) ((8.977801e-15 9.578056e-16 1.165786e-13) (3.224729e-14 8.041518e-14 1.763616e-09))
1.5374        	((3.110600e-11 -5.134269e-11 3.854567e-12) (-6.581861e-12 6.170036e-12 1.268709e-12)) ((8.030571e-15 1.122643e-15 1.128759e-13) (1.034421e-13 1.499797e-13 1.603592e-09))
1.85688       	((2.203637e-11 -3.966499e-11 5.283046e-13) (-9.831384e-12 8.319052e-12 1.459821e-12)) ((7.334056e-15 1.444426e-15 1.081424e-13) (1.814483e-13 2.302050e-13 1.462715e-09))
2.240256      	((1.179322e-11 -2.649792e-11 -1.691081e-12) (-1.376389e-11 1.061566e-11 1.783629e-12)) ((8.522814e-15 1.635321e-15 1.022947e-13) (2.806398e-13 3.373148e-13 1.339586e-09))
2.700307      	((7.177312e-12 -1.626709e-11 -4.670822e-12) (-1.792789e-11 1.427490e-11 2.372295e-12)) ((7.880136e-15 1.641866e-15 9.716944e-14) (4.118700e-13 4.665907e-13 1.232134e-09))
3.252369      	((-6.618398e-13 -9.327473e-12 -3.093741e-12) (-2.191217e-11 1.858257e-11 2.932200e-12)) ((6.516840e-15 1.564481e-15 9.054947e-14) (5.325110e-13 5.859097e-13 1.137925e-09))
3.914842      	((-8.878874e-13 4.223463e-12 -4.489540e-12) (-2.458386e-11 2.222546e-11 3.223503e-12)) ((4.966390e-15 1.218954e-15 8.454564e-14) (6.022158e-13 6.634449e-13 1.054492e-09))
4.709811      	((-6.468649e-12 1.452305e-11 -5.954720e-12) (-2.576134e-11 2.447947e-11 3.543749e-12)) ((3.348440e-15 6.272056e-16 7.934801e-14) (6.442866e-13 7.035788e-13 9.797357e-10))
5.663773      	((-7.929789e-12 6.471410e-12 -6.777483e-12) (-2.542422e-11 2.474606e-11 3.745863e-12)) ((3.449493e-15 1.106199e-16 7.401688e-14) (6.329612e-13 7.071650e-13 9.121259e-10))
6.808528      	((-8.861975e-12 6.510605e-12 -6.890658e-12) (-2.338314e-11 2.286439e-11 3.888836e-12)) ((3.162839e-15 -9.712743e-17 6.895076e-14) (5.659251e-13 6.611004e-13 8.504563e-10))
8.182233      	((-6.803453e-12 4.699716e-12 -6.810703e-12) (-2.021462e-11 1.949239e-11 4.064102e-12)) ((2.161157e-15 -4.712382e-16 6.404239e-14) (4.868143e-13 5.760995e-13 7.938013e-10))
9.83068       	((-7.079079e-12 -2.545432e-12 -7.567543e-12) (-1.626169e-11 1.556771e-11 4.204983e-12)) ((2.279673e-15 -8.040129e-16 5.949225e-14) (3.883314e-13 4.769304e-13 7.416533e-10))
11.808816     	((-2.935771e-13 -1.139577e-11 -7.490719e-12) (-1.220154e-11 1.149369e-11 4.618303e-12)) ((1.215251e-15 -1.205396e-15 5.524209e-14) (2.662759e-13 3.718670e-13 6.937836e-10))
14.182579     	((7.078854e-13 -7.343024e-12 -8.056627e-12) (-8.671917e-12 8.154213e-12 4.990186e-12)) ((-8.300261e-18 -1.340515e-15 5.115819e-14) (1.609149e-13 2.817267e-13 6.499065e-10))
17.031095     	((5.380187e-12 -7.440957e-12 -7.559682e-12) (-5.952491e-12 5.628379e-12 5.236949e-12)) ((-1.073372e-15 -1.108628e-15 4.760952e-14) (1.057389e-13 2.122446e-13 6.097401e-10))
20.449314     	((6.485614e-12 -8.601355e-12 -7.616375e-12) (-4.329551e-12 4.096741e-12 5.436500e-12)) ((-1.388984e-15 -1.062423e-15 4.428730e-14) (7.897908e-14 1.738618e-13 5.730146e-10))
24.551176     	((8.796145e-12 -9.501109e-12 -7.902860e-12) (-3.751105e-12 3.610775e-12 5.512576e-12)) ((-1.805300e-15 -9.622172e-16 4.133358e-14) (8.213269e-14 1.605740e-13 5.394228e-10))
29.473411     	((7.376450e-12 -7.369461e-12 -8.680899e-12) (-4.066326e-12 4.220430e-12 5.744881e-12)) ((-1.856438e-15 -8.769062e-16 3.876695e-14) (1.037814e-13 1.667715e-13 5.086553e-10))
35.380094     	((6.649300e-12 -6.871473e-12 -1.027532e-11) (-5.025306e-12 5.639596e-12 5.897752e-12)) ((-1.903341e-15 -8.395643e-16 3.650133e-14) (1.478170e-13 1.852897e-13 4.804446e-10))
42.468112     	((4.949581e-12 -4.787531e-12 -1.169673e-11) (-6.272746e-12 7.327978e-12 6.096152e-12)) ((-1.993853e-15 -7.906916e-16 3.445846e-14) (1.969373e-13 2.095398e-13 4.545950e-10))
50.973735     	((4.802206e-12 -4.937182e-12 -1.284165e-11) (-7.420398e-12 8.735533e-12 6.455173e-12)) ((-2.015382e-15 -7.241359e-16 3.251038e-14) (2.387975e-13 2.338521e-13 4.309748e-10))
61.180482     	((3.729561e-12 -3.226616e-12 -1.431654e-11) (-8.346795e-12 9.903687e-12 6.953281e-12)) ((-1.999820e-15 -6.410767e-16 3.069629e-14) (2.744985e-13 2.532173e-13 4.094481e-10))
73.428578     	((2.877011e-12 -3.594699e-12 -1.565801e-11) (-9.123815e-12 1.071751e-11 7.569354e-12)) ((-2.036076e-15 -5.745930e-16 2.906212e-14) (2.975114e-13 2.707482e-13 3.898688e-10))
88.126294     	((2.194912e-12 -2.264643e-12 -1.685591e-11) (-9.668958e-12 1.118484e-11 8.244630e-12)) ((-2.112857e-15 -5.114150e-16 2.760289e-14) (3.089866e-13 2.816363e-13 3.720923e-10))
105.763553    	((1.189555e-12 -1.377386e-12 -1.810401e-11) (-9.989623e-12 1.151822e-11 8.879418e-12)) ((-2.156603e-15 -4.771337e-16 2.632033e-14) (3.189809e-13 2.857842e-13 3.559595e-10))
126.928263    	((6.043258e-13 -1.159751e-12 -1.941787e-11) (-1.012352e-11 1.170352e-11 9.489465e-12)) ((-2.129116e-15 -4.260974e-16 2.519647e-14) (3.240762e-13 2.845813e-13 3.413017e-10))
152.325916    	((3.440344e-13 -1.219141e-12 -2.087025e-11) (-1.013782e-11 1.165943e-11 1.010856e-11)) ((-2.035244e-15 -3.721094e-16 2.417289e-14) (3.228054e-13 2.819340e-13 3.279634e-10))
182.803099    	((1.961047e-13 -1.016271e-12 -2.218185e-11) (-1.002025e-11 1.152346e-11 1.081929e-11)) ((-1.915135e-15 -3.329183e-16 2.319589e-14) (3.178449e-13 2.777922e-13 3.158078e-10))
219.375719    	((7.709809e-14 -4.599915e-13 -2.356828e-11) (-9.769804e-12 1.131269e-11 1.153053e-11)) ((-1.845708e-15 -2.731250e-16 2.228551e-14) (3.091541e-13 2.701574e-13 3.047156e-10))
263.262863    	((-9.006644e-14 -8.368014e-16 -2.504854e-11) (-9.421994e-12 1.096557e-11 1.227434e-11)) ((-1.811400e-15 -2.335033e-16 2.144048e-14) (2.953393e-13 2.598074e-13 2.945875e-10))
315.927436    	((-3.918388e-13 2.316808e-13 -2.650989e-11) (-9.017558e-12 1.056195e-11 1.301204e-11)) ((-1.744996e-15 -1.670682e-16 2.067139e-14) (2.791907e-13 2.480457e-13 2.853374e-10))
379.124923    	((-6.877873e-13 1.705420e-13 -2.794506e-11) (-8.632820e-12 1.009749e-11 1.375697e-11)) ((-1.646386e-15 -1.305421e-16 1.996723e-14) (2.634835e-13 2.367853e-13 2.768942e-10))
454.961908    	((-9.773205e-13 8.758819e-14 -2.889310e-11) (-8.262310e-12 9.589429e-12 1.457189e-11)) ((-1.550777e-15 -1.148275e-16 1.934237e-14) (2.468188e-13 2.267938e-13 2.692005e-10))
545.966289    	((-9.784498e-13 1.386863e-13 -3.000679e-11) (-7.869160e-12 9.027243e-12 1.536566e-11)) ((-1.494979e-15 -1.329737e-16 1.878295e-14) (2.284616e-13 2.164272e-13 2.622054e-10))
655.171547    	((-8.936093e-13 4.213341e-13 -3.110156e-11) (-7.438080e-12 8.479034e-12 1.613359e-11)) ((-1.471438e-15 -1.466280e-16 1.828230e-14) (2.113730e-13 2.041241e-13 2.558609e-10))
786.217856    	((-8.502330e-13 7.397963e-13 -3.216998e-11) (-6.990860e-12 7.948018e-12 1.686569e-11)) ((-1.478098e-15 -1.645312e-16 1.783324e-14) (1.958699e-13 1.907955e-13 2.501232e-10))
943.473427    	((-8.207577e-13 1.115609e-12 -3.324721e-11) (-6.535400e-12 7.412629e-12 1.757398e-11)) ((-1.497276e-15 -1.802042e-16 1.743720e-14) (1.807591e-13 1.760811e-13 2.449438e-10))
1132.180113   	((-8.007647e-13 1.516730e-12 -3.419899e-11) (-6.088564e-12 6.900644e-12 1.825769e-11)) ((-1.526131e-15 -2.046871e-16 1.705890e-14) (1.666418e-13 1.604391e-13 2.402795e-10))
1358.628135   	((-7.488579e-13 2.002254e-12 -3.516098e-11) (-5.655132e-12 6.432497e-12 1.893676e-11)) ((-1.537373e-15 -2.216622e-16 1.671313e-14) (1.540725e-13 1.451975e-13 2.360866e-10))
1630.365763   	((-7.096727e-13 2.457982e-12 -3.613436e-11) (-5.234051e-12 5.986235e-12 1.958435e-11)) ((-1.546392e-15 -2.286978e-16 1.639384e-14) (1.426145e-13 1.306185e-13 2.323210e-10))
1956.450915   	((-7.282696e-13 2.847394e-12 -3.702238e-11) (-4.840989e-12 5.571567e-12 2.021586e-11)) ((-1.557033e-15 -2.410130e-16 1.610688e-14) (1.317253e-13 1.172589e-13 2.289391e-10))
2347.753098   	((-7.399870e-13 3.326999e-12 -3.794691e-11) (-4.477639e-12 5.188964e-12 2.082938e-11)) ((-1.563220e-15 -2.499704e-16 1.585120e-14) (1.213157e-13 1.049509e-13 2.259033e-10))
2817.315718   	((-6.631307e-13 3.874456e-12 -3.890993e-11) (-4.138128e-12 4.846946e-12 2.144868e-11)) ((-1.560300e-15 -2.606639e-16 1.562243e-14) (1.118979e-13 9.372089e-14 2.231788e-10))
3380.790861   	((-5.401797e-13 4.438815e-12 -3.995073e-11) (-3.823535e-12 4.549603e-12 2.207636e-11)) ((-1.539464e-15 -2.749876e-16 1.541078e-14) (1.035819e-13 8.358138e-14 2.207327e-10))
4056.961033   	((-3.603635e-13 5.124156e-12 -4.108380e-11) (-3.547708e-12 4.286361e-12 2.268684e-11)) ((-1.509230e-15 -2.922276e-16 1.521805e-14) (9.600524e-14 7.502483e-14 2.185346e-10))
4868.36524    	((-9.897918e-14 5.954965e-12 -4.229449e-11) (-3.305336e-12 4.058823e-12 2.325914e-11)) ((-1.476825e-15 -3.149169e-16 1.504607e-14) (8.945698e-14 6.812079e-14 2.165573e-10))
5842.050288   	((2.629714e-13 6.993050e-12 -4.362449e-11) (-3.093651e-12 3.870270e-12 2.377765e-11)) ((-1.446205e-15 -3.395815e-16 1.488888e-14) (8.391009e-14 6.242469e-14 2.147769e-10))
7010.472346   	((6.851103e-13 8.247579e-12 -4.511115e-11) (-2.904900e-12 3.707463e-12 2.423678e-11)) ((-1.413731e-15 -3.561474e-16 1.474268e-14) (7.901554e-14 5.749429e-14 2.131723e-10))
8412.578815   	((1.125526e-12 9.759577e-12 -4.677475e-11) (-2.744070e-12 3.568933e-12 2.464128e-11)) ((-1.372368e-15 -3.752713e-16 1.460491e-14) (7.485257e-14 5.362156e-14 2.117241e-10))
10095.106578  	((1.582221e-12 1.149776e-11 -4.860561e-11) (-2.601507e-12 3.454107e-12 2.499155e-11)) ((-1.319636e-15 -3.926547e-16 1.447704e-14) (7.112025e-14 5.039723e-14 2.104155e-10))
12114.139893  	((2.061722e-12 1.347100e-11 -5.062568e-11) (-2.467022e-12 3.359612e-12 2.529155e-11)) ((-1.255027e-15 -4.107330e-16 1.436228e-14) (6.732198e-14 4.756366e-14 2.092316e-10))
14536.979872  	((2.587056e-12 1.566729e-11 -5.286759e-11) (-2.338425e-12 3.280366e-12 2.554587e-11)) ((-1.178228e-15 -4.365654e-16 1.425857e-14) (6.367581e-14 4.487215e-14 2.081595e-10))
17444.387847  	((3.228096e-12 1.808782e-11 -5.538012e-11) (-2.211928e-12 3.215674e-12 2.575740e-11)) ((-1.092852e-15 -4.648629e-16 1.416637e-14) (6.017896e-14 4.241734e-14 2.071881e-10))
20933.277416  	((4.050996e-12 2.072391e-11 -5.814147e-11) (-2.084091e-12 3.163878e-12 2.592980e-11)) ((-1.003142e-15 -4.959823e-16 1.408262e-14) (5.674450e-14 4.019721e-14 2.063071e-10))
25065.869784  	((5.027064e-12 2.350480e-11 -6.108425e-11) (-1.948647e-12 3.123822e-12 2.606661e-11)) ((-9.113529e-16 -5.278856e-16 1.400481e-14) (5.364458e-14 3.819341e-14 2.055075e-10))
29842.17559   	((6.096554e-12 2.634096e-11 -6.408742e-11) (-1.812285e-12 3.097180e-12 2.617307e-11)) ((-8.248404e-16 -5.620598e-16 1.393234e-14) (5.095629e-14 3.633279e-14 2.047815e-10))
35262.204389  	((7.188452e-12 2.908552e-11 -6.718337e-11) (-1.674047e-12 3.082211e-12 2.625672e-11)) ((-7.499093e-16 -5.990424e-16 1.386370e-14) (4.862009e-14 3.449626e-14 2.041219e-10))
41325.964724  	((8.305764e-12 3.168944e-11 -7.009173e-11) (-1.544305e-12 3.070596e-12 2.632420e-11)) ((-6.881807e-16 -6.318465e-16 1.379674e-14) (4.662099e-14 3.308106e-14 2.035223e-10))
47763.356792  	((9.503769e-12 3.416082e-11 -7.293007e-11) (-1.425746e-12 3.059211e-12 2.637820e-11)) ((-6.333423e-16 -6.649974e-16 1.373351e-14) (4.462555e-14 3.193877e-14 2.029768e-10))
54200.817778  	((1.080038e-11 3.651055e-11 -7.562623e-11) (-1.313097e-12 3.042189e-12 2.642455e-11)) ((-5.827480e-16 -6.999705e-16 1.367539e-14) (4.249888e-14 3.079505e-14 2.024804e-10))
60638.3405    	((1.224601e-11 3.874269e-11 -7.814776e-11) (-1.207683e-12 3.019495e-12 2.646365e-11)) ((-5.375666e-16 -7.332990e-16 1.362108e-14) (4.031667e-14 2.982746e-14 2.020283e-10))
67075.91891   	((1.382932e-11 4.084014e-11 -8.049705e-11) (-1.108074e-12 2.991647e-12 2.650086e-11)) ((-5.042800e-16 -7.673544e-16 1.356650e-14) (3.806318e-14 2.907858e-14 2.016164e-10))
73513.547549  	((1.568930e-11 4.273669e-11 -8.269953e-11) (-1.013195e-12 2.956453e-12 2.654336e-11)) ((-4.807770e-16 -8.058609e-16 1.351117e-14) (3.554603e-14 2.831727e-14 2.012409e-10))
79951.221399  	((1.760661e-11 4.449030e-11 -8.463047e-11) (-9.262143e-13 2.917158e-12 2.659145e-11)) ((-4.621646e-16 -8.410528e-16 1.345640e-14) (3.287679e-14 2.765303e-14 2.008987e-10))
86388.936041  	((1.947986e-11 4.617269e-11 -8.628356e-11) (-8.458672e-13 2.874092e-12 2.664006e-11)) ((-4.455965e-16 -8.755157e-16 1.340237e-14) (3.001999e-14 2.728953e-14 2.005866e-10))
92826.687374  	((2.140697e-11 4.768251e-11 -8.787591e-11) (-7.723709e-13 2.822795e-12 2.668312e-11)) ((-4.360563e-16 -9.125988e-16 1.335117e-14) (2.694809e-14 2.731488e-14 2.003016e-10))
99264.471793  	((2.335461e-11 4.891006e-11 -8.921396e-11) (-7.045880e-13 2.766207e-12 2.672037e-11)) ((-4.330311e-16 -9.471789e-16 1.330184e-14) (2.398504e-14 2.776027e-14 2.000414e-10))
105702.285608 	((2.528245e-11 4.982182e-11 -9.042648e-11) (-6.370202e-13 2.702594e-12 2.675761e-11)) ((-4.327757e-16 -9.839374e-16 1.325520e-14) (2.094696e-14 2.825124e-14 1.998035e-10))
112140.125566 	((2.717302e-11 5.042556e-11 -9.152139e-11) (-5.673419e-13 2.631975e-12 2.679931e-11)) ((-4.351734e-16 -1.020429e-15 1.321337e-14) (1.767619e-14 2.848611e-14 1.995860e-10))
118577.988835 	((2.901298e-11 5.077940e-11 -9.242885e-11) (-5.008938e-13 2.557370e-12 2.684465e-11)) ((-4.385348e-16 -1.056562e-15 1.317781e-14) (1.435341e-14 2.856151e-14 1.993870e-10))
125015.873244 	((3.079876e-11 5.090207e-11 -9.316436e-11) (-4.316137e-13 2.480356e-12 2.688927e-11)) ((-4.412020e-16 -1.084194e-15 1.314534e-14) (1.106650e-14 2.832521e-14 1.992050e-10))
131453.777193 	((3.263359e-11 5.089900e-11 -9.407295e-11) (-3.576071e-13 2.407650e-12 2.693159e-11)) ((-4.456562e-16 -1.111200e-15 1.311523e-14) (8.039671e-15 2.769667e-14 1.990382e-10))
137891.699993 	((3.451739e-11 5.085995e-11 -9.478771e-11) (-2.783846e-13 2.342253e-12 2.696919e-11)) ((-4.510707e-16 -1.134707e-15 1.308732e-14) (5.346720e-15 2.669018e-14 1.988854e-10))
144329.641033 	((3.642860e-11 5.084427e-11 -9.543554e-11) (-1.934533e-13 2.289131e-12 2.700418e-11)) ((-4.571788e-16 -1.157321e-15 1.306291e-14) (3.132634e-15 2.528838e-14 1.987453e-10))
150767.599585 	((3.837427e-11 5.083924e-11 -9.613545e-11) (-1.012276e-13 2.250605e-12 2.703793e-11)) ((-4.649714e-16 -1.184479e-15 1.304070e-14) (1.433439e-15 2.342941e-14 1.986167e-10))
