# Forces      
# CofR        : (0.000000e+00 0.000000e+00 0.000000e+00)
# Time        forces(pressure viscous)	moments(pressure viscous)
0             	((0.000000e+00 0.000000e+00 0.000000e+00) (0.000000e+00 0.000000e+00 0.000000e+00)) ((0.000000e+00 0.000000e+00 0.000000e+00) (0.000000e+00 0.000000e+00 0.000000e+00))
0.012         	((8.511508e-05 -3.537144e-09 2.672300e-05) (2.096072e-04 -1.476431e-12 -2.759508e-09)) ((1.420814e-12 -1.413770e-08 1.104250e-12) (1.297135e-13 -1.394914e-05 2.757158e-13))
0.0264        	((1.263675e-04 -7.082412e-08 4.206942e-05) (1.920565e-04 -9.222426e-12 -5.613235e-08)) ((1.005845e-12 6.370470e-09 2.969406e-13) (3.322257e-13 -1.279559e-05 -8.678580e-13))
0.04368       	((8.032004e-05 4.156329e-08 2.513570e-05) (1.741273e-04 5.090930e-11 -1.587630e-07)) ((1.630147e-12 3.995912e-09 7.881962e-13) (1.253590e-12 -1.162245e-05 -3.327635e-12))
0.064416      	((9.537660e-05 -5.285344e-08 3.087180e-05) (1.563648e-04 9.010554e-11 -3.061827e-07)) ((1.103654e-12 8.549736e-09 -3.301297e-13) (4.289971e-14 -1.046640e-05 -4.467509e-12))
0.0892992     	((6.834298e-05 2.595747e-08 2.119478e-05) (1.394123e-04 1.729240e-10 -4.911409e-07)) ((5.738516e-13 5.651055e-09 3.740797e-13) (-3.955618e-13 -9.370061e-06 -4.477966e-12))
0.119159      	((7.198767e-05 -2.703386e-08 2.206439e-05) (1.238821e-04 2.044175e-10 -6.994096e-07)) ((9.930034e-13 7.123845e-09 -5.008973e-14) (-6.738879e-13 -8.372712e-06 -5.883872e-12))
0.154991      	((5.498561e-05 1.253561e-08 1.648512e-05) (1.101877e-04 2.055240e-10 -9.391562e-07)) ((-3.404375e-13 5.009594e-09 1.208019e-13) (-3.683493e-13 -7.494429e-06 -6.954758e-12))
0.197989      	((5.515840e-05 -1.015143e-08 1.560747e-05) (9.833718e-05 2.034562e-10 -1.222830e-06)) ((8.515362e-13 6.001776e-09 -9.280246e-14) (-4.502955e-12 -6.732984e-06 -6.439575e-12))
0.249587      	((4.494804e-05 3.898225e-09 1.218971e-05) (8.801686e-05 1.542765e-10 -1.567772e-06)) ((4.034015e-13 4.711732e-09 -9.963289e-14) (-8.588724e-12 -6.061229e-06 -3.922295e-12))
0.311504      	((4.349310e-05 -3.606854e-09 1.069560e-05) (7.869925e-05 1.496871e-10 -1.912827e-06)) ((9.422116e-13 5.239234e-09 -2.683048e-13) (-1.222214e-11 -5.448686e-06 -2.219188e-12))
0.385805      	((3.672187e-05 -1.200776e-09 8.230578e-06) (7.022129e-05 1.144003e-10 -2.265181e-06)) ((-1.243039e-14 4.555824e-09 -1.878073e-13) (-1.226228e-11 -4.888654e-06 -2.268858e-12))
0.474966      	((3.453371e-05 -2.861632e-09 6.595671e-06) (6.261706e-05 -9.906046e-12 -2.571970e-06)) ((-2.111773e-13 4.642245e-09 -8.770563e-14) (-1.007621e-11 -4.385952e-06 -2.055761e-12))
0.581959      	((2.997757e-05 -2.820313e-09 4.696011e-06) (5.589410e-05 -7.597995e-11 -2.836961e-06)) ((-6.214321e-13 4.241573e-09 -2.500618e-13) (-1.140879e-11 -3.942548e-06 -2.541669e-12))
0.710351      	((2.794142e-05 -7.794160e-10 3.210346e-06) (5.000430e-05 -2.719074e-11 -3.059136e-06)) ((-4.789362e-13 4.216893e-09 -4.053237e-13) (-1.688318e-11 -3.555789e-06 -3.400509e-12))
0.864421      	((2.474001e-05 -1.032473e-09 1.552476e-06) (4.484582e-05 -3.605841e-10 -3.250986e-06)) ((-4.559010e-13 4.022064e-09 -5.521656e-13) (-2.320925e-11 -3.219099e-06 -1.962113e-12))
1.049306      	((2.296576e-05 6.107233e-11 1.157096e-07) (4.031255e-05 -3.633720e-10 -3.416062e-06)) ((-4.292375e-13 3.992626e-09 -3.696146e-13) (-2.699266e-11 -2.925228e-06 -1.060446e-12))
1.271167      	((2.053238e-05 3.080015e-09 -1.325354e-06) (3.631097e-05 -4.296071e-10 -3.581301e-06)) ((-3.213613e-13 3.812975e-09 -6.435797e-13) (-3.247551e-11 -2.667883e-06 -4.173614e-12))
1.5374        	((1.913298e-05 4.209398e-09 -2.654808e-06) (3.278789e-05 -4.391220e-10 -3.751762e-06)) ((3.662310e-13 3.745244e-09 -1.155876e-12) (-2.873803e-11 -2.443328e-06 -9.681523e-12))
1.85688       	((1.743496e-05 -5.750597e-09 -4.019473e-06) (2.971224e-05 6.246864e-11 -3.935704e-06)) ((-3.486168e-13 3.625723e-09 -5.209346e-13) (-1.841359e-11 -2.248681e-06 -2.128076e-11))
2.240256      	((1.644527e-05 -1.032723e-08 -5.312268e-06) (2.705600e-05 -3.391932e-10 -4.125453e-06)) ((-1.719163e-13 3.603136e-09 -6.999256e-13) (-6.119998e-12 -2.081888e-06 -4.755972e-11))
2.700307      	((1.543975e-05 -1.059407e-08 -6.526739e-06) (2.478022e-05 -8.463944e-10 -4.336198e-06)) ((-2.742086e-13 3.561773e-09 -5.158993e-13) (-1.750073e-12 -1.939752e-06 -7.465882e-11))
3.252369      	((1.500932e-05 -1.167725e-08 -7.738400e-06) (2.282421e-05 -1.141636e-09 -4.573348e-06)) ((-5.598482e-13 3.591281e-09 2.727667e-13) (-1.853312e-11 -1.818427e-06 -8.779566e-11))
3.914842      	((1.457802e-05 -1.359971e-08 -9.011607e-06) (2.112975e-05 -7.326244e-10 -4.839342e-06)) ((-8.408389e-13 3.620478e-09 1.098503e-12) (-3.490700e-11 -1.713862e-06 -9.215466e-11))
4.709811      	((1.446201e-05 -1.470993e-08 -1.032981e-05) (1.965448e-05 -5.694125e-10 -5.129982e-06)) ((-5.869485e-13 3.677836e-09 8.894383e-13) (-4.388349e-11 -1.622987e-06 -8.649685e-11))
5.663773      	((1.434740e-05 -1.674648e-08 -1.163163e-05) (1.835902e-05 -1.098737e-09 -5.444805e-06)) ((-1.207876e-13 3.726308e-09 1.122228e-13) (-5.757499e-11 -1.543685e-06 -6.500034e-11))
6.808528      	((1.446129e-05 -1.477462e-08 -1.292128e-05) (1.722273e-05 -8.612308e-10 -5.785834e-06)) ((-2.483644e-13 3.786876e-09 1.045961e-13) (-5.633753e-11 -1.474654e-06 -3.266430e-11))
8.182233      	((1.466158e-05 -1.792503e-08 -1.418923e-05) (1.623896e-05 -5.112075e-10 -6.147098e-06)) ((-1.341211e-13 3.844152e-09 3.721279e-14) (-3.998670e-11 -1.414696e-06 -9.166041e-12))
9.83068       	((1.507944e-05 -1.647498e-08 -1.547179e-05) (1.540219e-05 -5.171063e-10 -6.517022e-06)) ((2.750374e-13 3.906842e-09 -2.813161e-14) (-1.273196e-11 -1.363079e-06 -3.720532e-12))
11.77501      	((1.557352e-05 -1.744327e-08 -1.670148e-05) (1.470766e-05 -7.135112e-10 -6.895471e-06)) ((5.990331e-13 3.968424e-09 -1.558285e-13) (-1.221172e-12 -1.319579e-06 -1.502803e-11))
14.014047     	((1.622214e-05 -1.396539e-08 -1.784970e-05) (1.416691e-05 -1.047445e-09 -7.271727e-06)) ((7.332869e-13 4.034073e-09 -8.134280e-14) (-1.122284e-11 -1.283786e-06 -3.961932e-11))
16.546967     	((1.691980e-05 -1.380775e-08 -1.883769e-05) (1.377591e-05 -1.851443e-09 -7.632396e-06)) ((8.103991e-13 4.095360e-09 -1.292780e-13) (-3.781049e-11 -1.255051e-06 -5.986143e-11))
19.373184     	((1.771942e-05 -1.295497e-08 -1.968591e-05) (1.351954e-05 -2.475290e-09 -7.953331e-06)) ((8.968119e-13 4.157436e-09 -2.778589e-13) (-7.321319e-11 -1.232781e-06 -6.436853e-11))
22.303186     	((1.845669e-05 -1.276781e-08 -2.040975e-05) (1.338045e-05 -2.856650e-09 -8.208676e-06)) ((9.091890e-13 4.217116e-09 -4.311725e-13) (-1.025186e-10 -1.216600e-06 -6.311039e-11))
25.23281      	((1.910699e-05 -1.176733e-08 -2.100498e-05) (1.332439e-05 -3.198545e-09 -8.394826e-06)) ((9.532718e-13 4.272769e-09 -5.418228e-13) (-1.212648e-10 -1.205392e-06 -6.888122e-11))
28.163652     	((1.965510e-05 -1.264537e-08 -2.147387e-05) (1.331740e-05 -3.688911e-09 -8.517756e-06)) ((9.933253e-13 4.325159e-09 -6.381442e-13) (-1.370101e-10 -1.198048e-06 -8.222011e-11))
31.09659      	((2.011947e-05 -1.067427e-08 -2.183888e-05) (1.333366e-05 -4.112387e-09 -8.583545e-06)) ((9.110846e-13 4.376606e-09 -6.412635e-13) (-1.433476e-10 -1.193667e-06 -9.777146e-11))
34.030066     	((2.047115e-05 -1.015164e-08 -2.212181e-05) (1.335718e-05 -4.490219e-09 -8.607028e-06)) ((9.089979e-13 4.423558e-09 -6.287305e-13) (-1.404869e-10 -1.191365e-06 -1.146806e-10))
36.931677     	((2.068435e-05 -9.049882e-09 -2.233728e-05) (1.337676e-05 -4.855184e-09 -8.605941e-06)) ((9.055539e-13 4.462073e-09 -5.894619e-13) (-1.315988e-10 -1.190232e-06 -1.327496e-10))
39.803568     	((2.078617e-05 -1.131308e-08 -2.249852e-05) (1.338739e-05 -5.175469e-09 -8.593427e-06)) ((1.029640e-12 4.487933e-09 -5.464442e-13) (-1.259611e-10 -1.189618e-06 -1.478827e-10))
42.650716     	((2.083047e-05 -1.192922e-08 -2.262878e-05) (1.338988e-05 -5.476334e-09 -8.576713e-06)) ((1.110908e-12 4.503487e-09 -5.121354e-13) (-1.225564e-10 -1.189251e-06 -1.602893e-10))
45.479082     	((2.082568e-05 -1.061507e-08 -2.273815e-05) (1.338679e-05 -5.607016e-09 -8.559320e-06)) ((1.123931e-12 4.510095e-09 -4.660407e-13) (-1.155755e-10 -1.189025e-06 -1.693741e-10))
48.294431     	((2.080613e-05 -1.083473e-08 -2.283176e-05) (1.338071e-05 -5.581689e-09 -8.542398e-06)) ((1.188676e-12 4.512071e-09 -4.127974e-13) (-1.102568e-10 -1.188947e-06 -1.752612e-10))
51.101705     	((2.078882e-05 -9.833117e-09 -2.291436e-05) (1.337413e-05 -5.418226e-09 -8.526264e-06)) ((1.170655e-12 4.511431e-09 -3.680610e-13) (-1.012734e-10 -1.189017e-06 -1.804989e-10))
53.904568     	((2.076665e-05 -9.449436e-09 -2.299253e-05) (1.336817e-05 -5.249614e-09 -8.511829e-06)) ((1.153091e-12 4.510208e-09 -3.343622e-13) (-8.938979e-11 -1.189142e-06 -1.853102e-10))
56.705462     	((2.075086e-05 -9.279741e-09 -2.306500e-05) (1.336398e-05 -5.096495e-09 -8.499057e-06)) ((1.110762e-12 4.508823e-09 -3.127700e-13) (-8.020206e-11 -1.189313e-06 -1.889196e-10))
59.505635     	((2.072419e-05 -9.130141e-09 -2.313682e-05) (1.336151e-05 -4.964712e-09 -8.489065e-06)) ((1.109739e-12 4.505440e-09 -3.066746e-13) (-7.421407e-11 -1.189428e-06 -1.905857e-10))
62.305546     	((2.070837e-05 -8.167117e-09 -2.320396e-05) (1.336039e-05 -4.884277e-09 -8.481478e-06)) ((1.099533e-12 4.502370e-09 -3.209590e-13) (-6.974027e-11 -1.189487e-06 -1.901452e-10))
65.105299     	((2.069335e-05 -7.291954e-09 -2.326525e-05) (1.336041e-05 -4.745297e-09 -8.475164e-06)) ((1.108851e-12 4.498817e-09 -3.371386e-13) (-6.691807e-11 -1.189529e-06 -1.877973e-10))
67.904858     	((2.067494e-05 -8.127106e-09 -2.332280e-05) (1.336106e-05 -4.620525e-09 -8.468912e-06)) ((1.138522e-12 4.494524e-09 -3.486885e-13) (-6.862677e-11 -1.189594e-06 -1.841528e-10))
70.704126     	((2.065346e-05 -8.188064e-09 -2.337700e-05) (1.336197e-05 -4.509167e-09 -8.462309e-06)) ((1.157510e-12 4.489427e-09 -3.482913e-13) (-7.301026e-11 -1.189672e-06 -1.820995e-10))
73.503024     	((2.063078e-05 -7.898629e-09 -2.342666e-05) (1.336282e-05 -4.399916e-09 -8.455342e-06)) ((1.143035e-12 4.485230e-09 -3.254690e-13) (-7.644351e-11 -1.189757e-06 -1.831037e-10))
76.301512     	((2.060451e-05 -7.401683e-09 -2.347306e-05) (1.336318e-05 -4.361481e-09 -8.449080e-06)) ((1.115642e-12 4.482913e-09 -3.091726e-13) (-7.693770e-11 -1.189787e-06 -1.867894e-10))
79.09953      	((2.058629e-05 -6.247080e-09 -2.351084e-05) (1.336297e-05 -4.372313e-09 -8.443801e-06)) ((1.127561e-12 4.483010e-09 -2.959858e-13) (-7.392648e-11 -1.189744e-06 -1.905089e-10))
81.896963     	((2.057558e-05 -6.230109e-09 -2.353929e-05) (1.336247e-05 -4.415826e-09 -8.438907e-06)) ((1.160619e-12 4.483107e-09 -2.621692e-13) (-7.083968e-11 -1.189700e-06 -1.928650e-10))
84.693675     	((2.056659e-05 -5.420484e-09 -2.356539e-05) (1.336217e-05 -4.487825e-09 -8.434091e-06)) ((1.140248e-12 4.482569e-09 -2.332713e-13) (-6.889787e-11 -1.189688e-06 -1.926797e-10))
87.489585     	((2.056018e-05 -4.200306e-09 -2.358911e-05) (1.336227e-05 -4.553601e-09 -8.429462e-06)) ((1.070204e-12 4.481631e-09 -1.953599e-13) (-6.697871e-11 -1.189695e-06 -1.908010e-10))
90.28469      	((2.055379e-05 -4.539441e-09 -2.361159e-05) (1.336291e-05 -4.637064e-09 -8.425082e-06)) ((9.882314e-13 4.480209e-09 -1.518502e-13) (-6.558360e-11 -1.189709e-06 -1.896961e-10))
93.079047     	((2.054716e-05 -4.280035e-09 -2.364075e-05) (1.336408e-05 -4.752842e-09 -8.420952e-06)) ((8.648684e-13 4.478726e-09 -1.196246e-13) (-6.533696e-11 -1.189724e-06 -1.897842e-10))
95.872781     	((2.053994e-05 -2.968241e-09 -2.368121e-05) (1.336559e-05 -4.776302e-09 -8.417245e-06)) ((7.373157e-13 4.477342e-09 -1.108471e-13) (-6.191680e-11 -1.189739e-06 -1.901515e-10))
98.666046     	((2.053813e-05 -5.851516e-09 -2.371887e-05) (1.336755e-05 -4.872284e-09 -8.414296e-06)) ((7.099725e-13 4.476758e-09 -1.128770e-13) (-6.491622e-11 -1.189774e-06 -1.888114e-10))
101.458989    	((2.053754e-05 -6.703592e-09 -2.375175e-05) (1.336988e-05 -4.983386e-09 -8.412255e-06)) ((7.563983e-13 4.476580e-09 -8.895331e-14) (-7.437055e-11 -1.189828e-06 -1.854998e-10))
104.251686    	((2.053726e-05 -8.346758e-09 -2.377725e-05) (1.337260e-05 -5.092444e-09 -8.410821e-06)) ((8.457550e-13 4.476452e-09 -5.970830e-14) (-8.806502e-11 -1.189906e-06 -1.832385e-10))
107.044107    	((2.053268e-05 -8.237368e-09 -2.380094e-05) (1.337556e-05 -5.193602e-09 -8.409524e-06)) ((9.019159e-13 4.476083e-09 -4.525014e-14) (-1.000951e-10 -1.189998e-06 -1.853649e-10))
109.836111    	((2.052683e-05 -7.703334e-09 -2.382444e-05) (1.337856e-05 -5.276880e-09 -8.408189e-06)) ((9.342039e-13 4.475686e-09 -4.451673e-14) (-1.062569e-10 -1.190097e-06 -1.913467e-10))
112.627505    	((2.052066e-05 -7.537002e-09 -2.384338e-05) (1.338145e-05 -5.339610e-09 -8.406820e-06)) ((9.420293e-13 4.475383e-09 -4.398547e-14) (-1.083363e-10 -1.190202e-06 -1.979183e-10))
115.418128    	((2.051557e-05 -8.099467e-09 -2.385799e-05) (1.338419e-05 -5.397518e-09 -8.405498e-06)) ((9.584341e-13 4.475144e-09 -3.907294e-14) (-1.095074e-10 -1.190312e-06 -2.031845e-10))
118.207895    	((2.050961e-05 -8.509567e-09 -2.387168e-05) (1.338679e-05 -5.447122e-09 -8.404376e-06)) ((9.635612e-13 4.474863e-09 -2.835430e-14) (-1.101185e-10 -1.190422e-06 -2.075406e-10))
120.996786    	((2.050438e-05 -9.336019e-09 -2.388304e-05) (1.338936e-05 -5.488288e-09 -8.403481e-06)) ((9.754486e-13 4.474597e-09 -1.464894e-14) (-1.104858e-10 -1.190530e-06 -2.116363e-10))
