# Forces      
# CofR        : (0.000000e+00 0.000000e+00 0.000000e+00)
# Time        forces(pressure viscous)	moments(pressure viscous)
0             	((0.000000e+00 0.000000e+00 0.000000e+00) (-3.170562e-02 8.834044e-12 -3.055118e-07)) ((0.000000e+00 0.000000e+00 0.000000e+00) (-6.985593e-14 7.123849e-04 -9.764751e-14))
0.00962173    	((-1.155523e+01 2.680007e-03 -6.060210e-01) (-7.672980e-02 2.648177e-06 -1.182413e-02)) ((-2.021191e-08 -1.603304e-04 -4.051350e-09) (-2.272422e-07 2.551015e-03 3.941389e-07))
0.0211678     	((5.491924e+00 -1.108703e-03 -2.586384e+00) (-7.058330e-02 -4.316004e-06 -1.472203e-02)) ((2.248202e-08 7.058839e-05 3.217102e-08) (-1.826543e-07 2.585492e-03 2.758966e-07))
0.0350231     	((-1.249032e+00 -6.957912e-04 -1.572757e+00) (-5.788928e-02 -3.606952e-06 -1.022521e-02)) ((1.598727e-08 -1.282576e-05 -1.238898e-08) (-1.687489e-07 2.066115e-03 2.609245e-07))
0.051517      	((4.759459e-01 -2.287663e-04 -1.653015e+00) (-5.388693e-02 3.249064e-07 -9.687892e-03)) ((3.315824e-08 2.612781e-06 2.142129e-08) (-2.362678e-07 1.920283e-03 2.430843e-07))
0.0706626     	((-3.431955e-01 -8.939799e-05 -1.544489e+00) (-5.133931e-02 -1.450647e-06 -9.754946e-03)) ((4.474863e-09 -5.082103e-06 -8.190375e-09) (-1.804767e-07 1.833713e-03 1.560910e-07))
0.0924433     	((2.659123e-02 7.305267e-05 -1.597986e+00) (-5.050664e-02 -1.342358e-06 -1.003012e-02)) ((2.200571e-08 -3.852628e-06 -1.484435e-12) (-1.252989e-07 1.806769e-03 1.768442e-07))
0.116841      	((-1.539872e-01 4.693991e-05 -1.553439e+00) (-4.974948e-02 -4.742801e-07 -1.044390e-02)) ((-1.210676e-08 -5.516354e-06 -1.656007e-09) (-7.057813e-08 1.772924e-03 9.112863e-08))
0.142964      	((-8.022247e-02 9.629862e-05 -1.582020e+00) (-4.934749e-02 -8.758799e-07 -1.086204e-02)) ((1.902134e-08 -6.410658e-06 -2.062107e-09) (-6.019416e-08 1.756445e-03 2.580509e-08))
0.169046      	((-1.321528e-01 1.607440e-04 -1.562794e+00) (-4.913664e-02 6.901004e-07 -1.121092e-02)) ((-1.439950e-08 -7.299808e-06 -2.625343e-09) (-5.590793e-08 1.746433e-03 2.694596e-08))
0.194979      	((-1.215657e-01 2.173509e-04 -1.572189e+00) (-4.905564e-02 1.013103e-06 -1.154133e-02)) ((-1.080647e-08 -7.958258e-06 -3.611236e-09) (-1.952194e-08 1.740477e-03 1.233069e-08))
0.220732      	((-1.421186e-01 2.841037e-04 -1.556964e+00) (-4.897920e-02 1.111650e-06 -1.177682e-02)) ((3.135820e-09 -8.604511e-06 2.592556e-10) (-8.850296e-09 1.733828e-03 1.234754e-08))
0.246314      	((-1.456242e-01 3.766339e-04 -1.553349e+00) (-4.886192e-02 1.401708e-06 -1.194131e-02)) ((-1.291267e-08 -9.320452e-06 -2.092099e-09) (1.121420e-08 1.725729e-03 1.822480e-08))
0.271815      	((-1.539508e-01 4.251415e-04 -1.537488e+00) (-4.867573e-02 2.215879e-06 -1.203526e-02)) ((-1.044447e-08 -9.833831e-06 -4.838549e-09) (4.333345e-08 1.715739e-03 4.971380e-08))
0.297322      	((-1.556460e-01 4.673111e-04 -1.527849e+00) (-4.842159e-02 1.689457e-06 -1.213476e-02)) ((-6.427083e-09 -1.034284e-05 1.848193e-10) (4.290732e-08 1.704755e-03 1.085138e-07))
0.32289       	((-1.580943e-01 4.755818e-04 -1.514180e+00) (-4.814848e-02 5.568746e-07 -1.222462e-02)) ((-5.382115e-09 -1.077290e-05 -2.630958e-09) (3.325761e-08 1.693958e-03 1.344129e-07))
0.348509      	((-1.580926e-01 6.690284e-04 -1.502999e+00) (-4.789097e-02 3.120514e-06 -1.229441e-02)) ((-1.173065e-08 -1.101508e-05 2.973181e-10) (4.800738e-08 1.684077e-03 1.828097e-07))
0.374146      	((-1.581980e-01 6.704231e-04 -1.491940e+00) (-4.766029e-02 2.966484e-06 -1.237200e-02)) ((-7.187837e-09 -1.124348e-05 1.097851e-09) (6.625268e-08 1.675395e-03 1.717654e-07))
0.39978       	((-1.572556e-01 6.995670e-04 -1.482034e+00) (-4.745683e-02 2.934490e-06 -1.242892e-02)) ((-3.152572e-09 -1.150799e-05 -7.139005e-09) (7.838091e-08 1.667858e-03 1.359169e-07))
0.425416      	((-1.566398e-01 8.309618e-04 -1.472447e+00) (-4.726472e-02 4.092917e-06 -1.247079e-02)) ((-8.071967e-09 -1.159153e-05 -3.698360e-09) (9.272213e-08 1.660914e-03 1.412113e-07))
0.451064      	((-1.556657e-01 8.541788e-04 -1.464545e+00) (-4.708690e-02 4.087744e-06 -1.251691e-02)) ((-4.624407e-09 -1.169826e-05 -7.437621e-09) (1.049286e-07 1.654583e-03 1.415352e-07))
0.476727      	((-1.551775e-01 1.055937e-03 -1.456704e+00) (-4.692426e-02 5.440269e-06 -1.255581e-02)) ((-7.955099e-09 -1.177209e-05 -9.537132e-09) (1.324830e-07 1.648686e-03 1.477787e-07))
0.502402      	((-1.548965e-01 1.164070e-03 -1.449959e+00) (-4.677222e-02 5.774356e-06 -1.260069e-02)) ((-1.151125e-08 -1.175946e-05 -7.153840e-09) (1.599406e-07 1.642979e-03 1.893218e-07))
0.528084      	((-1.544866e-01 1.301384e-03 -1.443333e+00) (-4.663085e-02 5.859450e-06 -1.264066e-02)) ((-9.834899e-09 -1.183514e-05 -7.845020e-09) (1.776827e-07 1.637624e-03 2.219588e-07))
0.553774      	((-1.541426e-01 1.493146e-03 -1.437519e+00) (-4.650110e-02 7.372421e-06 -1.267427e-02)) ((-2.368413e-08 -1.189597e-05 -7.379316e-09) (2.143191e-07 1.632768e-03 2.694460e-07))
0.579472      	((-1.538063e-01 1.618734e-03 -1.432102e+00) (-4.638527e-02 6.969885e-06 -1.270290e-02)) ((-2.037317e-08 -1.192607e-05 -5.184588e-09) (2.398023e-07 1.628657e-03 3.262068e-07))
0.605178      	((-1.534559e-01 1.818958e-03 -1.426991e+00) (-4.628116e-02 7.035633e-06 -1.271684e-02)) ((-2.199893e-08 -1.201187e-05 -5.154498e-09) (2.625576e-07 1.625135e-03 3.959162e-07))
0.630891      	((-1.530067e-01 2.106295e-03 -1.422560e+00) (-4.618924e-02 8.079096e-06 -1.273233e-02)) ((-3.680020e-08 -1.202390e-05 -4.484683e-09) (3.182729e-07 1.622059e-03 5.078641e-07))
0.65661       	((-1.522627e-01 2.305773e-03 -1.418122e+00) (-4.610558e-02 7.289325e-06 -1.274348e-02)) ((-2.849098e-08 -1.205173e-05 -5.372842e-09) (3.628654e-07 1.619324e-03 6.117573e-07))
0.682335      	((-1.514790e-01 2.617897e-03 -1.414039e+00) (-4.602721e-02 7.974903e-06 -1.275427e-02)) ((-4.520462e-08 -1.208263e-05 -7.483757e-09) (4.161648e-07 1.616701e-03 7.195343e-07))
0.708066      	((-1.507261e-01 2.951227e-03 -1.410569e+00) (-4.595574e-02 8.905181e-06 -1.277072e-02)) ((-4.787129e-08 -1.206615e-05 -9.401450e-09) (4.913122e-07 1.614239e-03 8.414280e-07))
0.733801      	((-1.500212e-01 3.262392e-03 -1.407012e+00) (-4.588756e-02 8.773906e-06 -1.278235e-02)) ((-4.389662e-08 -1.208960e-05 -1.133701e-08) (5.529448e-07 1.611858e-03 9.573969e-07))
0.759542      	((-1.494202e-01 3.722504e-03 -1.403936e+00) (-4.582452e-02 1.041769e-05 -1.279744e-02)) ((-6.176254e-08 -1.209061e-05 -1.284781e-08) (6.293740e-07 1.609604e-03 1.086573e-06))
0.785286      	((-1.489186e-01 4.181774e-03 -1.401134e+00) (-4.576695e-02 1.210572e-05 -1.281400e-02)) ((-6.284719e-08 -1.207296e-05 -1.451853e-08) (7.227484e-07 1.607550e-03 1.224207e-06))
0.811035      	((-1.485632e-01 4.665077e-03 -1.398329e+00) (-4.571106e-02 1.325151e-05 -1.282521e-02)) ((-6.717951e-08 -1.207673e-05 -1.715508e-08) (8.102967e-07 1.605566e-03 1.364778e-06))
0.836786      	((-1.482726e-01 5.268057e-03 -1.395840e+00) (-4.565934e-02 1.574600e-05 -1.283884e-02)) ((-8.470906e-08 -1.206485e-05 -1.985709e-08) (9.143133e-07 1.603699e-03 1.526628e-06))
0.862542      	((-1.480225e-01 5.891129e-03 -1.393510e+00) (-4.561190e-02 1.802364e-05 -1.285275e-02)) ((-8.560712e-08 -1.205172e-05 -2.325056e-08) (1.032366e-06 1.601979e-03 1.700329e-06))
0.8883        	((-1.477487e-01 6.610180e-03 -1.391160e+00) (-4.556606e-02 2.015014e-05 -1.286324e-02)) ((-9.588433e-08 -1.204080e-05 -2.601747e-08) (1.155319e-06 1.600309e-03 1.878191e-06))
0.914061      	((-1.475226e-01 7.501947e-03 -1.389022e+00) (-4.552368e-02 2.381473e-05 -1.287471e-02)) ((-1.155160e-07 -1.202812e-05 -2.882463e-08) (1.308170e-06 1.598747e-03 2.075649e-06))
0.939824      	((-1.473016e-01 8.521287e-03 -1.387008e+00) (-4.548519e-02 2.771127e-05 -1.288538e-02)) ((-1.274147e-07 -1.201453e-05 -3.139355e-08) (1.486724e-06 1.597331e-03 2.301475e-06))
0.965589      	((-1.470631e-01 9.629507e-03 -1.385042e+00) (-4.544915e-02 3.195857e-05 -1.289351e-02)) ((-1.491939e-07 -1.200062e-05 -3.336211e-08) (1.687655e-06 1.596003e-03 2.561749e-06))
0.991356      	((-1.467870e-01 1.085448e-02 -1.383237e+00) (-4.541619e-02 3.692410e-05 -1.290172e-02)) ((-1.739825e-07 -1.198806e-05 -3.456775e-08) (1.920177e-06 1.594787e-03 2.867081e-06))
1.017125      	((-1.464833e-01 1.220397e-02 -1.381552e+00) (-4.538629e-02 4.181548e-05 -1.290881e-02)) ((-1.965216e-07 -1.197755e-05 -3.635909e-08) (2.180094e-06 1.593703e-03 3.227632e-06))
1.042894      	((-1.461483e-01 1.369798e-02 -1.379948e+00) (-4.535857e-02 4.697313e-05 -1.291369e-02)) ((-2.217949e-07 -1.196858e-05 -3.817928e-08) (2.470362e-06 1.592722e-03 3.645141e-06))
1.068665      	((-1.457954e-01 1.533841e-02 -1.378525e+00) (-4.533367e-02 5.245916e-05 -1.291814e-02)) ((-2.485894e-07 -1.196335e-05 -4.184871e-08) (2.790508e-06 1.591873e-03 4.126511e-06))
1.094435      	((-1.454574e-01 1.715559e-02 -1.377219e+00) (-4.531153e-02 5.818165e-05 -1.292093e-02)) ((-2.759998e-07 -1.196084e-05 -4.699430e-08) (3.138788e-06 1.591161e-03 4.677781e-06))
1.120206      	((-1.451560e-01 1.916989e-02 -1.376012e+00) (-4.529137e-02 6.443068e-05 -1.292183e-02)) ((-3.056705e-07 -1.196051e-05 -5.273495e-08) (3.521432e-06 1.590555e-03 5.300125e-06))
1.145976      	((-1.448920e-01 2.143907e-02 -1.374941e+00) (-4.527378e-02 7.131914e-05 -1.292241e-02)) ((-3.372370e-07 -1.196502e-05 -5.971098e-08) (3.941958e-06 1.590075e-03 5.998391e-06))
1.171745      	((-1.446873e-01 2.398243e-02 -1.373958e+00) (-4.525835e-02 7.904353e-05 -1.292150e-02)) ((-3.705053e-07 -1.197039e-05 -6.774593e-08) (4.405578e-06 1.589704e-03 6.775340e-06))
1.197512      	((-1.445231e-01 2.683525e-02 -1.373033e+00) (-4.524449e-02 8.783360e-05 -1.291947e-02)) ((-4.082924e-07 -1.197837e-05 -7.691507e-08) (4.919709e-06 1.589411e-03 7.636272e-06))
1.223278      	((-1.444148e-01 3.001027e-02 -1.372233e+00) (-4.523289e-02 9.764803e-05 -1.291730e-02)) ((-4.485702e-07 -1.198944e-05 -8.777415e-08) (5.489922e-06 1.589209e-03 8.587187e-06))
1.249041      	((-1.443316e-01 3.356847e-02 -1.371468e+00) (-4.522313e-02 1.086696e-04 -1.291385e-02)) ((-4.963452e-07 -1.199720e-05 -9.975535e-08) (6.129056e-06 1.589081e-03 9.639829e-06))
1.274801      	((-1.442670e-01 3.755637e-02 -1.370777e+00) (-4.521497e-02 1.212684e-04 -1.290974e-02)) ((-5.526233e-07 -1.200570e-05 -1.125423e-07) (6.848320e-06 1.589011e-03 1.080332e-05))
1.300558      	((-1.442505e-01 4.202978e-02 -1.370159e+00) (-4.520878e-02 1.355406e-04 -1.290541e-02)) ((-6.198688e-07 -1.201485e-05 -1.262807e-07) (7.657041e-06 1.589013e-03 1.209529e-05))
1.326311      	((-1.442810e-01 4.706344e-02 -1.369593e+00) (-4.520411e-02 1.517594e-04 -1.290005e-02)) ((-7.014484e-07 -1.202262e-05 -1.401067e-07) (8.568599e-06 1.589069e-03 1.353415e-05))
1.352058      	((-1.443824e-01 5.271077e-02 -1.369104e+00) (-4.520112e-02 1.704167e-04 -1.289434e-02)) ((-7.991759e-07 -1.203043e-05 -1.549118e-07) (9.599223e-06 1.589185e-03 1.513060e-05))
1.3778        	((-1.446108e-01 5.900200e-02 -1.368743e+00) (-4.520006e-02 1.915140e-04 -1.288797e-02)) ((-9.116605e-07 -1.203670e-05 -1.716996e-07) (1.076128e-05 1.589387e-03 1.691330e-05))
1.403536      	((-1.449869e-01 6.601060e-02 -1.368459e+00) (-4.520079e-02 2.147461e-04 -1.288007e-02)) ((-1.038332e-06 -1.204111e-05 -1.922147e-07) (1.206861e-05 1.589682e-03 1.890243e-05))
1.429264      	((-1.454985e-01 7.383858e-02 -1.368310e+00) (-4.520398e-02 2.402280e-04 -1.287108e-02)) ((-1.179833e-06 -1.204410e-05 -2.156662e-07) (1.353116e-05 1.590102e-03 2.112074e-05))
1.454984      	((-1.462705e-01 8.261945e-02 -1.368343e+00) (-4.521025e-02 2.686656e-04 -1.286035e-02)) ((-1.339800e-06 -1.204594e-05 -2.405367e-07) (1.516563e-05 1.590681e-03 2.360513e-05))
1.480694      	((-1.472091e-01 9.248766e-02 -1.368486e+00) (-4.521976e-02 3.008037e-04 -1.284740e-02)) ((-1.524232e-06 -1.204200e-05 -2.669482e-07) (1.698892e-05 1.591428e-03 2.641178e-05))
1.506394      	((-1.484702e-01 1.035050e-01 -1.368843e+00) (-4.523347e-02 3.373032e-04 -1.283269e-02)) ((-1.727866e-06 -1.203628e-05 -2.965154e-07) (1.902702e-05 1.592388e-03 2.957376e-05))
1.532083      	((-1.500503e-01 1.157308e-01 -1.369416e+00) (-4.525223e-02 3.794278e-04 -1.281508e-02)) ((-1.946743e-06 -1.202811e-05 -3.283326e-07) (2.131603e-05 1.593627e-03 3.306624e-05))
1.557758      	((-1.519632e-01 1.292513e-01 -1.370236e+00) (-4.527666e-02 4.280901e-04 -1.279347e-02)) ((-2.187162e-06 -1.200696e-05 -3.639076e-07) (2.389544e-05 1.595198e-03 3.687474e-05))
1.583418      	((-1.543050e-01 1.440565e-01 -1.371394e+00) (-4.530738e-02 4.824362e-04 -1.276713e-02)) ((-2.437050e-06 -1.197683e-05 -4.007823e-07) (2.676763e-05 1.597182e-03 4.102393e-05))
1.609063      	((-1.571366e-01 1.602735e-01 -1.372887e+00) (-4.534673e-02 5.432413e-04 -1.273409e-02)) ((-2.703076e-06 -1.194481e-05 -4.406734e-07) (2.992540e-05 1.599693e-03 4.557694e-05))
1.634689      	((-1.608416e-01 1.779413e-01 -1.375040e+00) (-4.539812e-02 6.111871e-04 -1.269401e-02)) ((-2.999537e-06 -1.192018e-05 -4.825308e-07) (3.338770e-05 1.602837e-03 5.056681e-05))
1.660296      	((-1.649781e-01 1.968815e-01 -1.377684e+00) (-4.546244e-02 6.840819e-04 -1.264797e-02)) ((-3.290414e-06 -1.187881e-05 -5.251461e-07) (3.716982e-05 1.606653e-03 5.593277e-05))
1.685881      	((-1.702976e-01 2.169723e-01 -1.381202e+00) (-4.553823e-02 7.617520e-04 -1.259542e-02)) ((-3.588052e-06 -1.183359e-05 -5.674548e-07) (4.130755e-05 1.611138e-03 6.169126e-05))
1.711443      	((-1.768020e-01 2.377456e-01 -1.385619e+00) (-4.562669e-02 8.458457e-04 -1.253616e-02)) ((-3.898586e-06 -1.180071e-05 -6.091091e-07) (4.582368e-05 1.616321e-03 6.792039e-05))
1.73698       	((-1.844874e-01 2.583653e-01 -1.391160e+00) (-4.572989e-02 9.335685e-04 -1.247295e-02)) ((-4.203016e-06 -1.177935e-05 -6.506454e-07) (5.065254e-05 1.622177e-03 7.471395e-05))
1.76249       	((-1.930512e-01 2.783799e-01 -1.397583e+00) (-4.584739e-02 1.021732e-03 -1.240822e-02)) ((-4.490037e-06 -1.175749e-05 -6.980040e-07) (5.569067e-05 1.628607e-03 8.193832e-05))
1.787972      	((-2.025413e-01 2.965366e-01 -1.405184e+00) (-4.598164e-02 1.109037e-03 -1.234226e-02)) ((-4.736967e-06 -1.174348e-05 -7.614579e-07) (6.085930e-05 1.635540e-03 8.931304e-05))
1.813425      	((-2.120945e-01 3.128287e-01 -1.413119e+00) (-4.613044e-02 1.197467e-03 -1.227513e-02)) ((-4.924278e-06 -1.169860e-05 -8.415025e-07) (6.607020e-05 1.642886e-03 9.666767e-05))
1.838849      	((-2.226681e-01 3.251540e-01 -1.422522e+00) (-4.629123e-02 1.278944e-03 -1.220529e-02)) ((-4.997619e-06 -1.168208e-05 -9.321168e-07) (7.112828e-05 1.650632e-03 1.039085e-04))
1.864244      	((-2.321877e-01 3.328258e-01 -1.432485e+00) (-4.646018e-02 1.343481e-03 -1.213082e-02)) ((-4.981675e-06 -1.163483e-05 -1.025835e-06) (7.573367e-05 1.658677e-03 1.108238e-04))
1.889613      	((-2.403131e-01 3.359651e-01 -1.442653e+00) (-4.663267e-02 1.389736e-03 -1.205383e-02)) ((-4.863712e-06 -1.154996e-05 -1.109270e-06) (7.956727e-05 1.666786e-03 1.172174e-04))
1.914958      	((-2.463044e-01 3.343005e-01 -1.452622e+00) (-4.680089e-02 1.411557e-03 -1.197938e-02)) ((-4.655427e-06 -1.146068e-05 -1.189195e-06) (8.235341e-05 1.674647e-03 1.229258e-04))
1.940281      	((-2.499949e-01 3.277948e-01 -1.462285e+00) (-4.696087e-02 1.401280e-03 -1.191023e-02)) ((-4.372664e-06 -1.136205e-05 -1.236301e-06) (8.385579e-05 1.682050e-03 1.277706e-04))
1.965583      	((-2.515869e-01 3.174276e-01 -1.471489e+00) (-4.710963e-02 1.356881e-03 -1.184619e-02)) ((-4.021300e-06 -1.126781e-05 -1.238790e-06) (8.394284e-05 1.688866e-03 1.317698e-04))
1.990869      	((-2.510810e-01 3.054862e-01 -1.479806e+00) (-4.724407e-02 1.283601e-03 -1.178908e-02)) ((-3.667913e-06 -1.113770e-05 -1.199607e-06) (8.269337e-05 1.695057e-03 1.348612e-04))
2.016144      	((-2.495622e-01 2.931104e-01 -1.487784e+00) (-4.736467e-02 1.190088e-03 -1.173908e-02)) ((-3.356519e-06 -1.098697e-05 -1.136188e-06) (8.034828e-05 1.700781e-03 1.369165e-04))
2.041413      	((-2.464781e-01 2.821716e-01 -1.494894e+00) (-4.747520e-02 1.088962e-03 -1.169500e-02)) ((-3.138119e-06 -1.080975e-05 -1.069337e-06) (7.730796e-05 1.706201e-03 1.378224e-04))
2.06668       	((-2.427013e-01 2.741824e-01 -1.501063e+00) (-4.757572e-02 9.944276e-04 -1.166134e-02)) ((-3.039433e-06 -1.059911e-05 -1.030840e-06) (7.408509e-05 1.711197e-03 1.377023e-04))
2.091949      	((-2.389444e-01 2.688934e-01 -1.506875e+00) (-4.766624e-02 9.196168e-04 -1.164652e-02)) ((-3.059709e-06 -1.033490e-05 -1.031210e-06) (7.120217e-05 1.715485e-03 1.366811e-04))
2.117223      	((-2.354956e-01 2.653312e-01 -1.512748e+00) (-4.774660e-02 8.744140e-04 -1.165732e-02)) ((-3.159727e-06 -1.000111e-05 -1.050724e-06) (6.905551e-05 1.718710e-03 1.346943e-04))
2.142501      	((-2.319034e-01 2.626248e-01 -1.518357e+00) (-4.781248e-02 8.564305e-04 -1.169613e-02)) ((-3.316412e-06 -9.637416e-06 -1.031857e-06) (6.776325e-05 1.720654e-03 1.320766e-04))
2.167785      	((-2.281215e-01 2.605156e-01 -1.523087e+00) (-4.785938e-02 8.516051e-04 -1.175635e-02)) ((-3.512291e-06 -9.286730e-06 -9.646757e-07) (6.714325e-05 1.721428e-03 1.295709e-04))
2.193073      	((-2.250559e-01 2.574318e-01 -1.526934e+00) (-4.788714e-02 8.464924e-04 -1.181951e-02)) ((-3.644565e-06 -9.031469e-06 -8.798162e-07) (6.670033e-05 1.721415e-03 1.275622e-04))
2.218366      	((-2.233585e-01 2.535359e-01 -1.529593e+00) (-4.789695e-02 8.295147e-04 -1.187243e-02)) ((-3.654664e-06 -8.912787e-06 -7.970045e-07) (6.597143e-05 1.721037e-03 1.263510e-04))
2.243662      	((-2.233853e-01 2.493653e-01 -1.531326e+00) (-4.789699e-02 7.956738e-04 -1.190933e-02)) ((-3.507547e-06 -8.974289e-06 -7.469733e-07) (6.475603e-05 1.720668e-03 1.259884e-04))
2.268961      	((-2.241860e-01 2.455573e-01 -1.532089e+00) (-4.789216e-02 7.486314e-04 -1.192666e-02)) ((-3.291618e-06 -9.073336e-06 -7.388735e-07) (6.309320e-05 1.720440e-03 1.262288e-04))
