# Forces      
# CofR        : (0.000000e+00 0.000000e+00 0.000000e+00)
# Time        forces(pressure viscous)	moments(pressure viscous)
0             	((0.000000e+00 0.000000e+00 0.000000e+00) (-7.881350e-08 2.215864e-10 -7.966122e-03)) ((0.000000e+00 0.000000e+00 0.000000e+00) (-9.236581e-11 -1.582701e-09 2.216598e-13))
0.012         	((-2.165229e-04 -1.117822e-06 -6.137456e+00) (-1.908894e-07 -4.930177e-08 -8.463378e-03)) ((2.305727e-08 -1.620313e-05 -1.152044e-09) (-7.292406e-09 2.699343e-08 -3.520587e-12))
0.0264        	((4.459613e-05 -4.949693e-05 8.093938e-01) (-4.663887e-07 -1.986617e-07 -7.187459e-03)) ((-3.172464e-08 1.074996e-06 -3.571390e-09) (-4.373081e-09 4.054798e-08 3.856957e-10))
0.04368       	((2.883147e-04 3.543086e-04 5.474716e-01) (-3.629066e-07 8.423322e-08 -6.065858e-03)) ((-2.677945e-08 1.195132e-06 6.310467e-09) (6.135074e-09 2.791269e-08 1.084581e-09))
0.064416      	((1.170971e-06 -2.783100e-05 1.819117e-01) (6.821657e-07 6.621926e-07 -5.486726e-03)) ((-6.634959e-09 2.172719e-07 -1.974633e-09) (-5.135999e-09 5.014171e-08 1.977066e-09))
0.0892992     	((2.838391e-05 2.514498e-05 7.527704e-02) (5.273766e-07 5.890027e-07 -5.097731e-03)) ((-1.506781e-08 -8.535615e-08 9.769974e-10) (-2.302597e-08 7.555759e-08 1.071104e-09))
0.119159      	((1.707044e-04 9.803948e-05 2.999885e-02) (1.344921e-07 4.265861e-07 -4.760502e-03)) ((-1.313643e-08 -2.166955e-07 4.073504e-09) (-1.139602e-08 6.168586e-08 1.088868e-09))
0.154991      	((8.764896e-05 5.421142e-05 4.431860e-03) (4.231033e-07 4.905180e-07 -4.469806e-03)) ((-8.748072e-09 -2.929847e-07 -9.426637e-10) (9.195251e-09 4.052233e-08 6.654499e-10))
0.197989      	((7.242363e-05 2.864508e-05 -1.087153e-02) (7.604846e-08 7.713452e-07 -4.223435e-03)) ((-7.110853e-09 -3.322185e-07 -2.259182e-09) (2.007733e-08 3.798839e-08 -2.450020e-10))
0.249587      	((4.827227e-05 1.848959e-05 -1.965652e-02) (1.897249e-07 9.749428e-07 -4.006498e-03)) ((-8.772988e-09 -3.494399e-07 -1.432961e-09) (3.710917e-08 3.985087e-08 -5.677964e-10))
0.311504      	((4.028376e-05 1.250487e-06 -2.447497e-02) (9.983111e-07 8.335757e-07 -3.813919e-03)) ((-8.106857e-09 -3.570453e-07 -7.355582e-10) (5.425376e-08 1.481084e-08 5.200675e-11))
0.385805      	((1.329447e-05 -1.593256e-05 -2.706456e-02) (1.182233e-06 8.115918e-07 -3.642190e-03)) ((-8.773540e-09 -3.520552e-07 -1.457042e-09) (7.139577e-08 -2.920931e-08 9.077540e-10))
0.474966      	((-1.390414e-05 -2.669379e-05 -2.852933e-02) (9.125880e-07 9.720782e-07 -3.491288e-03)) ((-8.844101e-09 -3.467473e-07 3.666099e-10) (9.692424e-08 -7.000650e-08 6.626359e-10))
0.581959      	((-6.525576e-06 -2.775360e-05 -2.953679e-02) (9.119453e-07 1.098680e-06 -3.360572e-03)) ((-7.890660e-09 -3.406434e-07 9.564613e-11) (1.135696e-07 -9.492060e-08 1.611531e-10))
0.709097      	((-1.945394e-05 -3.589497e-05 -3.037532e-02) (9.708619e-07 1.107570e-06 -3.251259e-03)) ((-7.917940e-09 -3.357190e-07 6.714361e-10) (1.250175e-07 -1.184801e-07 -5.155540e-10))
0.856513      	((-3.228311e-05 -4.403507e-05 -3.078745e-02) (1.032616e-06 1.117907e-06 -3.165876e-03)) ((-7.242450e-09 -3.309048e-07 5.734121e-10) (1.272105e-07 -1.252481e-07 -1.282784e-09))
1.02431       	((-3.782595e-05 -4.761699e-05 -3.114004e-02) (1.044005e-06 1.109951e-06 -3.100371e-03)) ((-6.442165e-09 -3.263081e-07 5.852500e-10) (1.179092e-07 -1.061894e-07 -1.202717e-09))
1.212636      	((-5.822269e-05 -6.257630e-05 -3.145806e-02) (9.456862e-07 1.043199e-06 -3.049049e-03)) ((-6.039885e-09 -3.224683e-07 -1.221454e-11) (9.903965e-08 -7.820364e-08 -6.283981e-10))
1.41936       	((-8.925680e-05 -8.584613e-05 -3.106190e-02) (4.255750e-07 8.676601e-07 -3.011267e-03)) ((-5.303058e-09 -3.171933e-07 -7.101341e-10) (6.901330e-08 -4.531566e-08 -3.036108e-10))
1.627216      	((-1.244799e-04 -1.096707e-04 -3.015270e-02) (-4.151935e-07 3.776815e-07 -2.985762e-03)) ((-4.522345e-09 -3.127635e-07 -5.917930e-10) (4.402250e-08 -1.446683e-08 -4.585332e-11))
1.836196      	((-1.467649e-04 -1.341682e-04 -2.912663e-02) (-1.276162e-06 -1.996908e-07 -2.965695e-03)) ((-3.648101e-09 -3.091721e-07 3.089316e-10) (2.495234e-08 1.479450e-08 -5.071571e-10))
2.045883      	((-1.682805e-04 -1.583352e-04 -2.844340e-02) (-1.947022e-06 -6.478973e-07 -2.950039e-03)) ((-2.847938e-09 -3.055144e-07 6.599682e-10) (1.081160e-08 4.126797e-08 -7.386437e-10))
2.256255      	((-1.933546e-04 -1.891670e-04 -2.822273e-02) (-2.644204e-06 -1.073460e-06 -2.940768e-03)) ((-1.371681e-09 -3.048862e-07 6.728546e-10) (5.478085e-09 5.601250e-08 -1.015158e-09))
2.46712       	((-2.238336e-04 -2.246297e-04 -2.815187e-02) (-3.333508e-06 -1.561251e-06 -2.937584e-03)) ((-2.513928e-10 -3.055174e-07 -9.500549e-10) (4.464570e-09 6.445484e-08 -5.196763e-10))
2.678227      	((-2.541156e-04 -2.633806e-04 -2.805885e-02) (-3.672229e-06 -2.039165e-06 -2.938891e-03)) ((2.213437e-10 -3.047750e-07 -2.376630e-09) (1.027746e-09 7.029115e-08 7.843595e-10))
2.889429      	((-2.884306e-04 -3.062425e-04 -2.788329e-02) (-4.021086e-06 -2.611678e-06 -2.942354e-03)) ((7.543371e-10 -3.043224e-07 -3.730271e-09) (-5.335221e-09 7.675461e-08 1.991970e-09))
3.100725      	((-3.223490e-04 -3.488577e-04 -2.769610e-02) (-4.322817e-06 -3.158062e-06 -2.946436e-03)) ((1.324884e-09 -3.043453e-07 -3.919501e-09) (-1.006770e-08 7.881580e-08 2.725659e-09))
3.312037      	((-3.623391e-04 -3.926547e-04 -2.752380e-02) (-4.520413e-06 -3.556716e-06 -2.949983e-03)) ((2.014397e-09 -3.048088e-07 -3.098672e-09) (-1.106478e-08 7.411398e-08 2.838511e-09))
3.523345      	((-4.054833e-04 -4.399077e-04 -2.741564e-02) (-4.679639e-06 -3.818596e-06 -2.952136e-03)) ((2.398232e-09 -3.054008e-07 -3.214114e-09) (-7.607928e-09 6.309950e-08 2.319724e-09))
3.734634      	((-4.506015e-04 -4.855451e-04 -2.733955e-02) (-4.734426e-06 -4.106592e-06 -2.953408e-03)) ((3.414138e-09 -3.063221e-07 -2.549563e-09) (-9.401495e-10 4.663454e-08 2.487780e-09))
3.945903      	((-5.000073e-04 -5.344309e-04 -2.727485e-02) (-4.817770e-06 -4.347147e-06 -2.954435e-03)) ((4.252652e-09 -3.073677e-07 -2.568998e-09) (5.804841e-09 2.841989e-08 2.341917e-09))
4.157163      	((-5.557959e-04 -5.865480e-04 -2.722308e-02) (-4.969162e-06 -4.643574e-06 -2.955311e-03)) ((5.317496e-09 -3.083903e-07 -2.250693e-09) (9.965852e-09 1.366435e-08 1.936632e-09))
4.368417      	((-6.183837e-04 -6.484817e-04 -2.718324e-02) (-5.345021e-06 -5.052734e-06 -2.956106e-03)) ((6.219505e-09 -3.094495e-07 -2.518873e-09) (1.026012e-08 6.464994e-09 1.756467e-09))
4.579688      	((-6.904460e-04 -7.145152e-04 -2.714780e-02) (-5.931779e-06 -5.608669e-06 -2.956957e-03)) ((7.223628e-09 -3.104662e-07 -2.192137e-09) (6.191090e-09 7.798384e-09 1.915892e-09))
