# Forces      
# CofR        : (0.000000e+00 0.000000e+00 0.000000e+00)
# Time        forces(pressure viscous)	moments(pressure viscous)
0             	((0.000000e+00 0.000000e+00 0.000000e+00) (0.000000e+00 0.000000e+00 0.000000e+00)) ((0.000000e+00 0.000000e+00 0.000000e+00) (0.000000e+00 0.000000e+00 0.000000e+00))
0.012         	((6.482630e-13 -1.513032e-10 1.968218e-12) (1.935888e-14 -1.697051e-12 7.151450e-15)) ((1.088267e-14 4.002607e-17 2.082751e-12) (-3.240756e-14 -8.865541e-16 4.235542e-09))
0.0264        	((-4.927741e-13 5.487805e-11 -4.559016e-12) (2.194783e-14 -1.810524e-12 1.107668e-14)) ((2.560372e-14 -1.882897e-16 6.243772e-13) (-5.764972e-14 -8.515797e-16 3.707070e-09))
0.04368       	((2.919444e-12 -2.764472e-11 2.728238e-12) (2.760065e-14 -1.187211e-12 2.417604e-14)) ((-1.177540e-14 3.120902e-17 3.267506e-13) (-4.872732e-14 -1.161734e-15 3.205850e-09))
0.064416      	((2.042175e-12 -2.197562e-12 -1.129329e-12) (2.748853e-14 -6.358668e-13 1.964847e-14)) ((3.285687e-15 5.127616e-17 2.190074e-13) (-2.490572e-14 -1.436766e-15 2.745586e-09))
0.0892992     	((2.949324e-12 -1.332416e-11 8.541157e-13) (2.334041e-14 -4.035223e-13 1.400232e-15)) ((-3.588278e-15 2.576597e-16 1.761998e-13) (-1.195443e-14 -1.406765e-15 2.338451e-09))
0.119159      	((1.179898e-12 -1.139925e-12 6.119218e-13) (3.359477e-14 -3.425681e-13 -8.954674e-15)) ((-2.198238e-15 1.979719e-16 1.397379e-13) (4.733852e-15 -1.716081e-15 1.990131e-09))
0.154991      	((2.214114e-12 -1.113399e-11 4.689149e-13) (4.043139e-14 -2.539030e-13 -1.539442e-14)) ((-2.101427e-15 2.575934e-16 1.115747e-13) (1.685474e-14 -1.885116e-15 1.703167e-09))
0.197989      	((2.069957e-12 -8.662213e-12 6.374996e-13) (2.386275e-14 -1.595600e-13 -1.374170e-14)) ((-1.662460e-15 1.501078e-16 8.717557e-14) (2.304107e-14 -9.042176e-16 1.472716e-09))
0.249587      	((2.832901e-12 -1.004817e-11 4.245575e-13) (-4.698052e-15 -5.522167e-14 -3.817045e-15)) ((-1.689575e-15 9.428955e-17 7.188538e-14) (2.121132e-14 6.819728e-16 1.289385e-09))
0.311504      	((4.581017e-12 -1.306235e-11 1.012943e-12) (-2.345218e-14 3.324097e-14 -8.040142e-16)) ((-1.210706e-15 -1.602916e-17 6.353547e-14) (1.774741e-14 1.680676e-15 1.142071e-09))
0.385805      	((5.533080e-12 -1.684844e-11 9.295995e-13) (-2.086015e-14 -3.489071e-14 1.768754e-15)) ((-9.127954e-16 2.128861e-17 5.537623e-14) (1.348243e-14 2.059296e-15 1.020700e-09))
0.474966      	((7.556105e-12 -2.041501e-11 1.601454e-12) (-5.032396e-14 -9.364047e-14 1.546002e-14)) ((1.014532e-16 -4.536435e-17 4.830182e-14) (4.267311e-15 2.429729e-15 9.177160e-10))
0.581959      	((9.974037e-12 -2.643763e-11 1.964837e-12) (-8.372280e-14 -1.772747e-13 4.567895e-14)) ((5.678285e-16 -1.046920e-17 4.479815e-14) (-1.396047e-14 3.041091e-15 8.281600e-10))
0.710351      	((1.228100e-11 -2.638145e-11 2.469427e-12) (-1.957114e-13 -4.203221e-13 9.850451e-14)) ((1.158284e-15 7.534742e-18 4.262880e-14) (-2.939999e-14 5.029770e-15 7.489570e-10))
0.864421      	((1.378159e-11 -2.124535e-11 2.286926e-12) (-4.177011e-13 -3.256181e-13 1.140753e-13)) ((1.775846e-15 1.007333e-16 4.061290e-14) (-2.661035e-14 9.597843e-15 6.781737e-10))
1.049306      	((1.459185e-11 -1.908763e-11 1.954888e-12) (-6.994808e-13 2.500657e-13 1.660333e-13)) ((2.241950e-15 1.790449e-16 3.845063e-14) (-1.018950e-14 1.435862e-14 6.146171e-10))
1.271167      	((1.287470e-11 -1.665451e-11 2.196237e-12) (-1.238246e-12 1.045455e-12 2.340665e-13)) ((2.836181e-15 3.030809e-16 3.682656e-14) (1.020448e-14 2.515138e-14 5.576832e-10))
1.5374        	((9.860155e-12 -1.626016e-11 1.682387e-12) (-2.078978e-12 1.951263e-12 2.549420e-13)) ((2.537260e-15 3.585222e-16 3.565905e-14) (3.278252e-14 4.714740e-14 5.070804e-10))
1.85688       	((6.974440e-12 -1.255163e-11 6.789569e-13) (-3.106824e-12 2.631585e-12 2.917124e-13)) ((2.315829e-15 4.554937e-16 3.416719e-14) (5.742661e-14 7.258185e-14 4.625306e-10))
2.240256      	((3.719448e-12 -8.362513e-12 1.732584e-14) (-4.353857e-12 3.361149e-12 3.693017e-13)) ((2.689107e-15 5.165699e-16 3.232266e-14) (8.886264e-14 1.066311e-13 4.235921e-10))
2.700307      	((2.282582e-12 -5.089614e-12 -8.617011e-13) (-5.675449e-12 4.522078e-12 5.308681e-13)) ((2.488134e-15 5.223581e-16 3.070598e-14) (1.304920e-13 1.476169e-13 3.896105e-10))
3.252369      	((-1.470687e-13 -2.852698e-12 -2.919020e-13) (-6.940408e-12 5.889618e-12 6.808359e-13)) ((2.055976e-15 5.118675e-16 2.861516e-14) (1.687214e-13 1.853632e-13 3.598163e-10))
3.914842      	((-2.826130e-13 1.411586e-12 -6.348327e-13) (-7.790302e-12 7.044938e-12 7.349186e-13)) ((1.570218e-15 4.012400e-16 2.671682e-14) (1.907714e-13 2.099843e-13 3.334305e-10))
4.709811      	((-2.061736e-12 4.672266e-12 -1.048030e-12) (-8.167952e-12 7.760224e-12 7.906320e-13)) ((1.049207e-15 2.053081e-16 2.507822e-14) (2.044043e-13 2.228239e-13 3.097896e-10))
5.663773      	((-2.472969e-12 2.066933e-12 -1.172108e-12) (-8.065081e-12 7.848179e-12 8.034581e-13)) ((1.085745e-15 4.369879e-17 2.339452e-14) (2.010979e-13 2.239489e-13 2.884095e-10))
6.808528      	((-2.826980e-12 2.075520e-12 -1.104762e-12) (-7.418604e-12 7.252598e-12 8.065562e-13)) ((9.970763e-16 -2.240093e-17 2.179528e-14) (1.799034e-13 2.093697e-13 2.689089e-10))
8.182233      	((-2.192922e-12 1.470795e-12 -9.869552e-13) (-6.412293e-12 6.184328e-12 8.069218e-13)) ((6.825434e-16 -1.434780e-16 2.024462e-14) (1.547263e-13 1.824047e-13 2.509946e-10))
9.83068       	((-2.238855e-12 -7.362747e-13 -1.086410e-12) (-5.154395e-12 4.941375e-12 7.945065e-13)) ((7.146009e-16 -2.463006e-16 1.880692e-14) (1.234907e-13 1.508989e-13 2.345057e-10))
11.808816     	((-1.465582e-13 -3.612506e-12 -9.552134e-13) (-3.866967e-12 3.645654e-12 8.665196e-13)) ((3.800047e-16 -3.705620e-16 1.746223e-14) (8.477396e-14 1.176646e-13 2.193701e-10))
14.182579     	((2.391842e-13 -2.305134e-12 -9.989647e-13) (-2.744756e-12 2.585619e-12 9.194953e-13)) ((-5.604497e-18 -4.138560e-16 1.617218e-14) (5.136707e-14 8.911318e-14 2.054978e-10))
17.031095     	((1.690153e-12 -2.358766e-12 -6.915970e-13) (-1.879665e-12 1.783701e-12 9.356451e-13)) ((-3.445115e-16 -3.413884e-16 1.505246e-14) (3.380947e-14 6.693116e-14 1.927989e-10))
20.449314     	((2.027464e-12 -2.724749e-12 -5.354330e-13) (-1.364124e-12 1.296666e-12 9.304918e-13)) ((-4.419973e-16 -3.249110e-16 1.400012e-14) (2.539161e-14 5.472331e-14 1.811876e-10))
24.551176     	((2.759998e-12 -3.027127e-12 -5.151443e-13) (-1.180467e-12 1.141176e-12 8.872341e-13)) ((-5.708413e-16 -2.931875e-16 1.306682e-14) (2.629833e-14 5.048574e-14 1.705664e-10))
29.473411     	((2.344867e-12 -2.337191e-12 -5.683146e-13) (-1.281165e-12 1.330458e-12 8.845783e-13)) ((-5.871156e-16 -2.654760e-16 1.225621e-14) (3.291210e-14 5.251189e-14 1.608374e-10))
35.380094     	((2.122393e-12 -2.185337e-12 -7.648126e-13) (-1.584957e-12 1.778656e-12 8.491547e-13)) ((-5.989148e-16 -2.530936e-16 1.154096e-14) (4.670232e-14 5.856049e-14 1.519159e-10))
42.468112     	((1.633872e-12 -1.515118e-12 -9.393452e-13) (-1.981757e-12 2.312661e-12 8.247192e-13)) ((-6.299673e-16 -2.359831e-16 1.089489e-14) (6.214362e-14 6.644827e-14 1.437405e-10))
50.973735     	((1.574867e-12 -1.555930e-12 -1.058838e-12) (-2.349449e-12 2.756959e-12 8.346575e-13)) ((-6.367775e-16 -2.134313e-16 1.027974e-14) (7.526278e-14 7.419398e-14 1.362700e-10))
61.180482     	((1.211451e-12 -1.005433e-12 -1.244987e-12) (-2.644518e-12 3.125085e-12 8.680512e-13)) ((-6.308945e-16 -1.831647e-16 9.704519e-15) (8.644178e-14 8.030682e-14 1.294614e-10))
73.428578     	((9.687775e-13 -1.123423e-12 -1.423786e-12) (-2.887785e-12 3.383366e-12 9.217953e-13)) ((-6.430263e-16 -1.599138e-16 9.186663e-15) (9.371345e-14 8.573150e-14 1.232690e-10))
88.126294     	((7.449579e-13 -7.315656e-13 -1.578976e-12) (-3.062278e-12 3.532398e-12 9.882832e-13)) ((-6.715522e-16 -1.392150e-16 8.725714e-15) (9.733560e-14 8.925931e-14 1.176474e-10))
105.763553    	((4.440316e-13 -4.181739e-13 -1.748304e-12) (-3.167251e-12 3.642211e-12 1.041246e-12)) ((-6.867731e-16 -1.242956e-16 8.320723e-15) (1.006602e-13 9.058506e-14 1.125459e-10))
126.928263    	((2.492619e-13 -3.288978e-13 -1.862391e-12) (-3.209662e-12 3.703491e-12 1.086273e-12)) ((-6.771641e-16 -1.042964e-16 7.966156e-15) (1.025355e-13 9.013512e-14 1.079113e-10))
152.325916    	((1.864780e-13 -3.268487e-13 -2.037501e-12) (-3.214657e-12 3.695143e-12 1.131814e-12)) ((-6.461647e-16 -8.524512e-17 7.642535e-15) (1.024193e-13 8.943843e-14 1.036940e-10))
182.803099    	((9.880944e-14 -2.645456e-13 -2.159728e-12) (-3.175250e-12 3.655677e-12 1.200094e-12)) ((-6.085670e-16 -6.901849e-17 7.334789e-15) (1.011636e-13 8.797001e-14 9.985092e-11))
219.375719    	((-9.032479e-15 -1.274382e-13 -2.338589e-12) (-3.094754e-12 3.591241e-12 1.258375e-12)) ((-5.888325e-16 -5.398946e-17 7.045977e-15) (9.859583e-14 8.523588e-14 9.634405e-11))
263.262863    	((-7.927296e-14 -4.300880e-14 -2.519807e-12) (-2.979034e-12 3.484012e-12 1.322560e-12)) ((-5.802788e-16 -3.686725e-17 6.781193e-15) (9.441513e-14 8.159558e-14 9.314177e-11))
315.927436    	((-1.679535e-13 2.431225e-14 -2.676361e-12) (-2.846334e-12 3.360163e-12 1.390912e-12)) ((-5.619797e-16 -1.508484e-17 6.539103e-15) (8.931274e-14 7.748574e-14 9.021670e-11))
379.124923    	((-2.187318e-13 7.279670e-16 -2.804267e-12) (-2.719048e-12 3.212445e-12 1.457954e-12)) ((-5.302733e-16 6.644931e-19 6.315790e-15) (8.449842e-14 7.376183e-14 8.754645e-11))
454.961908    	((-2.702173e-13 -8.273575e-14 -2.884009e-12) (-2.592851e-12 3.049141e-12 1.534152e-12)) ((-4.983383e-16 6.938181e-18 6.118962e-15) (7.929923e-14 7.044208e-14 8.511300e-11))
545.966289    	((-2.845285e-13 -5.384075e-14 -3.003870e-12) (-2.460269e-12 2.871734e-12 1.605564e-12)) ((-4.808612e-16 4.370239e-18 5.942637e-15) (7.357448e-14 6.669403e-14 8.290015e-11))
655.171547    	((-2.689691e-13 6.034356e-14 -3.130990e-12) (-2.321818e-12 2.699595e-12 1.669590e-12)) ((-4.727330e-16 -3.476265e-19 5.783378e-15) (6.819185e-14 6.270671e-14 8.089300e-11))
786.217856    	((-2.967627e-13 1.689154e-13 -3.241581e-12) (-2.177782e-12 2.532754e-12 1.731012e-12)) ((-4.777649e-16 -2.294433e-18 5.642654e-15) (6.334259e-14 5.841765e-14 7.907764e-11))
943.473427    	((-3.161078e-13 2.505373e-13 -3.335806e-12) (-2.032346e-12 2.360747e-12 1.792664e-12)) ((-4.834117e-16 -4.932229e-18 5.517857e-15) (5.842194e-14 5.380426e-14 7.743920e-11))
1132.180113   	((-3.345135e-13 3.456571e-13 -3.435902e-12) (-1.888468e-12 2.194494e-12 1.854819e-12)) ((-4.931826e-16 -1.169292e-17 5.397432e-15) (5.380704e-14 4.903808e-14 7.596378e-11))
1358.628135   	((-3.447020e-13 4.612513e-13 -3.547353e-12) (-1.748055e-12 2.043250e-12 1.919212e-12)) ((-4.987894e-16 -1.364861e-17 5.285329e-15) (4.966195e-14 4.437404e-14 7.463747e-11))
1630.365763   	((-3.718251e-13 5.679227e-13 -3.635216e-12) (-1.614470e-12 1.900147e-12 1.979653e-12)) ((-5.056292e-16 -1.540469e-17 5.182902e-15) (4.575859e-14 3.982084e-14 7.344621e-11))
1956.450915   	((-4.194543e-13 6.639048e-13 -3.722079e-12) (-1.489839e-12 1.763066e-12 2.036122e-12)) ((-5.077362e-16 -1.682265e-17 5.092661e-15) (4.211056e-14 3.555637e-14 7.237658e-11))
2347.753098   	((-4.766459e-13 7.789029e-13 -3.828283e-12) (-1.377891e-12 1.636711e-12 2.089027e-12)) ((-5.071978e-16 -1.829772e-17 5.011846e-15) (3.872115e-14 3.178150e-14 7.141679e-11))
2817.315718   	((-5.406467e-13 8.962902e-13 -3.929651e-12) (-1.274918e-12 1.521279e-12 2.144706e-12)) ((-5.051758e-16 -1.896513e-17 4.939132e-15) (3.563314e-14 2.829734e-14 7.055569e-11))
3380.790861   	((-6.151691e-13 1.010320e-12 -4.052385e-12) (-1.181022e-12 1.421328e-12 2.203508e-12)) ((-4.986170e-16 -1.963372e-17 4.871508e-15) (3.295132e-14 2.515376e-14 6.978258e-11))
4056.961033   	((-6.813349e-13 1.141876e-12 -4.187478e-12) (-1.098764e-12 1.335240e-12 2.266447e-12)) ((-4.920134e-16 -1.888477e-17 4.810853e-15) (3.057682e-14 2.245241e-14 6.908779e-11))
4868.36524    	((-7.445665e-13 1.276254e-12 -4.309929e-12) (-1.026119e-12 1.261388e-12 2.326981e-12)) ((-4.869755e-16 -1.871636e-17 4.757390e-15) (2.844315e-14 2.028368e-14 6.846285e-11))
5842.050288   	((-7.897647e-13 1.424257e-12 -4.428407e-12) (-9.647572e-13 1.197341e-12 2.381552e-12)) ((-4.832731e-16 -1.759293e-17 4.708329e-15) (2.657534e-14 1.856085e-14 6.790014e-11))
7010.472346   	((-8.334864e-13 1.593600e-12 -4.562805e-12) (-9.119192e-13 1.141153e-12 2.431522e-12)) ((-4.792282e-16 -1.527073e-17 4.663062e-15) (2.497779e-14 1.716481e-14 6.739298e-11))
8412.578815   	((-8.866906e-13 1.792647e-12 -4.736260e-12) (-8.662020e-13 1.091604e-12 2.475667e-12)) ((-4.737701e-16 -1.356073e-17 4.620856e-15) (2.361157e-14 1.600608e-14 6.693535e-11))
10095.106578  	((-9.456350e-13 2.011895e-12 -4.915905e-12) (-8.269231e-13 1.047143e-12 2.510747e-12)) ((-4.653453e-16 -1.273904e-17 4.581977e-15) (2.241160e-14 1.504117e-14 6.652190e-11))
12114.139893  	((-1.011301e-12 2.263640e-12 -5.143619e-12) (-7.915183e-13 1.006416e-12 2.537141e-12)) ((-4.540461e-16 -1.193138e-17 4.547007e-15) (2.122248e-14 1.422373e-14 6.614787e-11))
14536.979872  	((-1.084740e-12 2.568155e-12 -5.410799e-12) (-7.601773e-13 9.699830e-13 2.558048e-12)) ((-4.407761e-16 -1.027862e-17 4.515670e-15) (2.006639e-14 1.344197e-14 6.580927e-11))
17444.387847  	((-1.178755e-12 2.949119e-12 -5.718030e-12) (-7.317041e-13 9.383726e-13 2.575369e-12)) ((-4.259847e-16 -8.309970e-18 4.487694e-15) (1.897001e-14 1.270377e-14 6.550263e-11))
20933.277416  	((-1.286966e-12 3.418210e-12 -6.089371e-12) (-7.042754e-13 9.104499e-13 2.588155e-12)) ((-4.078169e-16 -5.270272e-18 4.462398e-15) (1.794284e-14 1.197085e-14 6.522470e-11))
25119.944899  	((-1.404041e-12 3.981851e-12 -6.496919e-12) (-6.788109e-13 8.866867e-13 2.597357e-12)) ((-3.858255e-16 -1.970513e-18 4.438796e-15) (1.696117e-14 1.135512e-14 6.497257e-11))
30143.945879  	((-1.520665e-12 4.630423e-12 -6.961967e-12) (-6.547086e-13 8.684109e-13 2.602459e-12)) ((-3.618516e-16 6.395001e-19 4.417014e-15) (1.603162e-14 1.078709e-14 6.474364e-11))
36172.747055  	((-1.608229e-12 5.350715e-12 -7.461881e-12) (-6.316707e-13 8.570581e-13 2.603788e-12)) ((-3.353186e-16 1.371983e-18 4.396396e-15) (1.521284e-14 1.021435e-14 6.453562e-11))
43407.308466  	((-1.662582e-12 6.173388e-12 -7.969515e-12) (-6.083768e-13 8.505978e-13 2.602223e-12)) ((-3.053703e-16 2.014147e-18 4.377541e-15) (1.450118e-14 9.621998e-15 6.434648e-11))
52088.782159  	((-1.687855e-12 7.100309e-12 -8.500025e-12) (-5.855105e-13 8.488671e-13 2.598524e-12)) ((-2.736936e-16 5.092261e-19 4.359949e-15) (1.387817e-14 9.089091e-15 6.417436e-11))
62506.550591  	((-1.678023e-12 8.151572e-12 -9.087452e-12) (-5.628227e-13 8.531281e-13 2.592862e-12)) ((-2.386332e-16 -3.679461e-18 4.343360e-15) (1.334579e-14 8.609229e-15 6.401761e-11))
74960.062871  	((-1.641868e-12 9.327771e-12 -9.675876e-12) (-5.389694e-13 8.616006e-13 2.583954e-12)) ((-2.026624e-16 -8.048837e-18 4.327602e-15) (1.279439e-14 8.152051e-15 6.387468e-11))
89449.33672   	((-1.602614e-12 1.058191e-11 -1.028138e-11) (-5.165027e-13 8.724971e-13 2.573452e-12)) ((-1.658331e-16 -1.102341e-17 4.313088e-15) (1.223386e-14 7.746338e-15 6.374428e-11))
105974.388068 	((-1.596943e-12 1.186547e-11 -1.084372e-11) (-4.944552e-13 8.840309e-13 2.565542e-12)) ((-1.307922e-16 -1.222019e-17 4.298561e-15) (1.168550e-14 7.300642e-15 6.362524e-11))
124535.231305 	((-1.635912e-12 1.316545e-11 -1.132753e-11) (-4.725388e-13 8.944567e-13 2.558902e-12)) ((-9.854433e-17 -1.248473e-17 4.283800e-15) (1.100081e-14 6.811468e-15 6.351647e-11))
144893.281041 	((-1.747323e-12 1.448794e-11 -1.172053e-11) (-4.525198e-13 9.033933e-13 2.552785e-12)) ((-6.750080e-17 -1.123511e-17 4.269296e-15) (1.012906e-14 6.327717e-15 6.341704e-11))
165251.449911 	((-1.903667e-12 1.577867e-11 -1.202383e-11) (-4.356752e-13 9.109730e-13 2.548478e-12)) ((-3.973238e-17 -9.227641e-18 4.256136e-15) (9.163187e-15 5.861644e-15 6.332616e-11))
185609.727359 	((-2.073926e-12 1.699883e-11 -1.226069e-11) (-4.224404e-13 9.172562e-13 2.544718e-12)) ((-1.792296e-17 -6.678240e-18 4.244773e-15) (8.146403e-15 5.435261e-15 6.324314e-11))
205968.104849 	((-2.244747e-12 1.810236e-11 -1.243550e-11) (-4.114553e-13 9.215144e-13 2.543173e-12)) ((-9.171957e-19 -2.776272e-18 4.235100e-15) (7.171852e-15 5.016336e-15 6.316725e-11))
226326.574478 	((-2.396943e-12 1.905583e-11 -1.259666e-11) (-4.024644e-13 9.241455e-13 2.543744e-12)) ((1.207043e-17 5.069586e-19 4.226145e-15) (6.304252e-15 4.652459e-15 6.309784e-11))
246685.128858 	((-2.529873e-12 1.986939e-11 -1.270279e-11) (-3.949776e-13 9.256286e-13 2.545362e-12)) ((2.289696e-17 2.578579e-18 4.217909e-15) (5.524175e-15 4.351049e-15 6.303439e-11))
267043.760893 	((-2.643501e-12 2.056425e-11 -1.277669e-11) (-3.895320e-13 9.264246e-13 2.547293e-12)) ((3.212912e-17 4.107839e-18 4.210364e-15) (4.809387e-15 4.130495e-15 6.297639e-11))
287402.463685 	((-2.738559e-12 2.115036e-11 -1.283636e-11) (-3.856273e-13 9.265563e-13 2.550136e-12)) ((4.004020e-17 5.112121e-18 4.203794e-15) (4.165087e-15 3.942647e-15 6.292339e-11))
307761.23094  	((-2.813622e-12 2.164472e-11 -1.287989e-11) (-3.829229e-13 9.265528e-13 2.553459e-12)) ((4.658223e-17 5.771933e-18 4.197952e-15) (3.609235e-15 3.792457e-15 6.287495e-11))
328120.056907 	((-2.870118e-12 2.206602e-11 -1.289991e-11) (-3.812559e-13 9.266482e-13 2.556694e-12)) ((5.203625e-17 6.493527e-18 4.192670e-15) (3.142963e-15 3.688638e-15 6.283067e-11))
348478.936323 	((-2.906782e-12 2.242541e-11 -1.291293e-11) (-3.803846e-13 9.268347e-13 2.559612e-12)) ((5.652728e-17 6.930230e-18 4.187988e-15) (2.754465e-15 3.628931e-15 6.279018e-11))
368837.864342 	((-2.923207e-12 2.273048e-11 -1.292639e-11) (-3.798727e-13 9.271065e-13 2.562083e-12)) ((6.033538e-17 7.087744e-18 4.183739e-15) (2.437672e-15 3.603688e-15 6.275315e-11))
389196.836604 	((-2.921466e-12 2.299189e-11 -1.294015e-11) (-3.795240e-13 9.276557e-13 2.564154e-12)) ((6.368210e-17 6.946792e-18 4.179874e-15) (2.183906e-15 3.603145e-15 6.271932e-11))
409555.849141 	((-2.905125e-12 2.321536e-11 -1.295230e-11) (-3.791075e-13 9.287496e-13 2.565807e-12)) ((6.668231e-17 6.541920e-18 4.176320e-15) (1.992665e-15 3.614746e-15 6.268841e-11))
429914.898346 	((-2.874270e-12 2.340752e-11 -1.296373e-11) (-3.786781e-13 9.303834e-13 2.567169e-12)) ((6.934110e-17 5.911734e-18 4.173148e-15) (1.857318e-15 3.641082e-15 6.266016e-11))
450273.98096  	((-2.830240e-12 2.357628e-11 -1.297639e-11) (-3.781809e-13 9.324083e-13 2.568510e-12)) ((7.181465e-17 5.002273e-18 4.170257e-15) (1.764118e-15 3.675606e-15 6.263434e-11))
470633.094057 	((-2.775586e-12 2.372712e-11 -1.298561e-11) (-3.775669e-13 9.347968e-13 2.569759e-12)) ((7.413895e-17 3.922429e-18 4.167582e-15) (1.709126e-15 3.720288e-15 6.261074e-11))
