# Forces      
# CofR        : (0.000000e+00 0.000000e+00 0.000000e+00)
# Time        forces(pressure viscous)	moments(pressure viscous)
0             	((0.000000e+00 0.000000e+00 0.000000e+00) (-5.025474e-05 -1.682906e-14 -4.886573e-10)) ((0.000000e+00 0.000000e+00 0.000000e+00) (9.732661e-17 1.129164e-06 -1.438789e-15))
0.012         	((-1.461542e-02 2.248148e-08 1.543605e-03) (-5.765839e-05 8.385160e-11 -2.982078e-08)) ((1.242547e-12 -1.974636e-07 2.149047e-12) (3.982716e-13 1.664291e-06 -1.406944e-12))
0.0264        	((1.035298e-03 -2.486282e-07 -9.187119e-05) (-5.880359e-05 -5.988773e-11 -4.571647e-08)) ((5.924167e-12 1.417670e-08 -2.613156e-12) (-1.140330e-11 1.862848e-06 -2.645978e-12))
0.04368       	((3.044905e-03 2.091109e-07 -5.726062e-05) (-5.223524e-05 -3.119489e-11 -3.897830e-08)) ((-8.301039e-12 4.614138e-08 -2.933747e-12) (-1.294614e-11 1.659500e-06 -1.483502e-12))
0.064416      	((2.869513e-05 2.123614e-08 -7.398834e-05) (-4.625897e-05 -1.029083e-09 -1.938554e-08)) ((2.699063e-12 -5.060791e-10 1.722239e-13) (-3.165890e-12 1.490212e-06 -5.303418e-12))
0.0892992     	((-3.826947e-05 2.659648e-08 -4.631667e-05) (-4.270255e-05 -1.579544e-09 -1.546656e-08)) ((-1.592134e-12 -2.038401e-09 -8.331469e-13) (2.238410e-12 1.408848e-06 -4.877808e-12))
0.119159      	((4.656788e-05 -1.486582e-08 -2.926712e-05) (-3.942918e-05 -1.214833e-09 -2.834434e-08)) ((1.751564e-12 8.783866e-10 -2.191300e-13) (1.112451e-12 1.318584e-06 5.326877e-12))
0.154991      	((2.464469e-05 2.533771e-08 -1.947372e-05) (-3.596781e-05 -1.045391e-09 -3.827823e-08)) ((-3.950931e-13 5.152262e-10 -7.372288e-13) (1.779023e-12 1.218358e-06 1.970098e-11))
0.197989      	((5.874350e-06 -1.187592e-08 -1.341181e-05) (-3.248714e-05 -7.337852e-10 -4.638332e-08)) ((3.977206e-13 1.461248e-10 -2.174716e-13) (5.725210e-12 1.116559e-06 2.815704e-11))
0.249587      	((-9.007791e-07 -7.742859e-09 -9.669595e-06) (-2.908766e-05 -4.733689e-10 -5.621880e-08)) ((7.557914e-13 2.663652e-11 9.479502e-13) (4.703902e-12 1.015120e-06 2.677929e-11))
0.311504      	((-3.944074e-06 -4.792567e-09 -7.414861e-06) (-2.587339e-05 -2.832895e-10 -6.786309e-08)) ((3.146722e-13 -1.566412e-11 4.850750e-14) (2.360279e-12 9.161217e-07 2.297852e-11))
0.385805      	((-5.451390e-06 -2.023318e-09 -5.945616e-06) (-2.292716e-05 -1.563537e-10 -7.989116e-08)) ((2.154877e-13 -2.596885e-11 9.827491e-14) (4.777915e-13 8.220169e-07 1.875897e-11))
0.474966      	((-6.229574e-06 -8.043983e-10 -5.007228e-06) (-2.029798e-05 -1.024925e-10 -9.143597e-08)) ((1.441020e-13 -3.559615e-11 8.470280e-14) (-8.650083e-13 7.351836e-07 1.549761e-11))
0.581959      	((-6.556550e-06 -2.813089e-10 -4.391716e-06) (-1.799049e-05 -9.897095e-11 -1.030152e-07)) ((7.906116e-14 -4.373347e-11 3.232405e-14) (-1.268091e-12 6.566617e-07 1.420233e-11))
0.710351      	((-6.540457e-06 5.017166e-10 -4.015542e-06) (-1.599185e-05 -1.192104e-10 -1.137913e-07)) ((1.376886e-14 -4.792532e-11 3.254149e-14) (-1.035541e-12 5.869335e-07 1.401114e-11))
0.864421      	((-6.307847e-06 5.755855e-10 -3.779511e-06) (-1.427684e-05 -8.541730e-11 -1.228158e-07)) ((3.985022e-15 -4.887689e-11 8.252615e-15) (-4.473987e-13 5.259980e-07 1.129856e-11))
1.049306      	((-5.961524e-06 4.114162e-10 -3.636247e-06) (-1.280796e-05 -3.657610e-11 -1.307603e-07)) ((9.047374e-15 -4.766100e-11 -4.441695e-15) (7.548462e-14 4.730630e-07 7.501524e-12))
1.271167      	((-5.568683e-06 2.665738e-10 -3.543088e-06) (-1.154535e-05 -8.158262e-12 -1.389546e-07)) ((1.719277e-14 -4.546536e-11 -1.786751e-14) (2.303621e-13 4.269668e-07 4.546894e-12))
1.5374        	((-5.157996e-06 2.613996e-10 -3.489353e-06) (-1.044870e-05 9.099663e-12 -1.484781e-07)) ((2.379356e-14 -4.259519e-11 -2.161499e-14) (9.506123e-14 3.865746e-07 2.695966e-12))
1.85688       	((-4.754068e-06 8.617595e-11 -3.455358e-06) (-9.483472e-06 1.826699e-11 -1.597051e-07)) ((3.345357e-14 -3.947170e-11 -1.827685e-14) (-3.145543e-13 3.508964e-07 1.847333e-12))
2.240256      	((-4.372247e-06 -8.511479e-11 -3.434495e-06) (-8.626157e-06 2.387606e-11 -1.723840e-07)) ((3.178369e-14 -3.703854e-11 -1.601163e-14) (-8.888538e-13 3.191721e-07 1.659822e-12))
2.700307      	((-4.018032e-06 -1.755804e-10 -3.421340e-06) (-7.860618e-06 2.797200e-11 -1.861428e-07)) ((3.640236e-14 -3.483277e-11 -1.405606e-14) (-1.624921e-12 2.908324e-07 2.075574e-12))
3.252369      	((-3.691069e-06 -2.299251e-10 -3.408764e-06) (-7.174497e-06 2.984782e-11 -2.008599e-07)) ((3.692384e-14 -3.275535e-11 -9.073303e-15) (-2.514348e-12 2.654275e-07 2.743631e-12))
3.914842      	((-3.389300e-06 -2.771561e-10 -3.397346e-06) (-6.558028e-06 2.373611e-11 -2.168046e-07)) ((3.983524e-14 -3.075315e-11 -5.988376e-15) (-3.439761e-12 2.425996e-07 3.356056e-12))
4.709811      	((-3.113563e-06 -3.622404e-10 -3.383854e-06) (-6.004161e-06 8.906538e-12 -2.338945e-07)) ((3.994711e-14 -2.903758e-11 -4.236713e-15) (-4.341671e-12 2.220883e-07 3.434473e-12))
5.663773      	((-2.865077e-06 -3.275101e-10 -3.367935e-06) (-5.507648e-06 -7.085989e-12 -2.519345e-07)) ((3.817378e-14 -2.773197e-11 -6.004823e-15) (-5.047319e-12 2.036977e-07 2.887126e-12))
6.808528      	((-2.643079e-06 -2.566287e-10 -3.347956e-06) (-5.063541e-06 -1.461063e-11 -2.709936e-07)) ((3.984037e-14 -2.676137e-11 -8.038200e-15) (-5.600910e-12 1.872447e-07 2.073820e-12))
8.182233      	((-2.446378e-06 -4.633830e-10 -3.322196e-06) (-4.666589e-06 -2.461392e-11 -2.911283e-07)) ((5.508300e-14 -2.601756e-11 -7.604621e-15) (-6.771714e-12 1.725376e-07 1.705500e-12))
9.83068       	((-2.274217e-06 -5.839721e-10 -3.291475e-06) (-4.311288e-06 -3.810611e-11 -3.124749e-07)) ((6.256848e-14 -2.551996e-11 -6.694679e-15) (-8.474795e-12 1.593726e-07 1.891208e-12))
11.808816     	((-2.125958e-06 -6.901819e-10 -3.256568e-06) (-3.992517e-06 -4.930720e-11 -3.350213e-07)) ((6.953266e-14 -2.526714e-11 -7.569966e-15) (-1.011867e-11 1.475575e-07 2.717475e-12))
14.182579     	((-2.000703e-06 -6.192171e-10 -3.217659e-06) (-3.706060e-06 -5.491583e-11 -3.586458e-07)) ((7.637703e-14 -2.524930e-11 -6.754538e-15) (-1.176181e-11 1.369367e-07 3.962372e-12))
17.031095     	((-1.896618e-06 -6.107285e-10 -3.175384e-06) (-3.448762e-06 -5.890905e-11 -3.832335e-07)) ((7.248841e-14 -2.544997e-11 -4.797286e-15) (-1.325967e-11 1.273938e-07 5.398175e-12))
20.449314     	((-1.813653e-06 -7.340544e-10 -3.128817e-06) (-3.218211e-06 -7.454506e-11 -4.085724e-07)) ((7.405648e-14 -2.591059e-11 -3.948095e-15) (-1.513554e-11 1.188394e-07 7.325308e-12))
24.551176     	((-1.751348e-06 -7.695180e-10 -3.079046e-06) (-3.012641e-06 -9.858176e-11 -4.343579e-07)) ((7.213500e-14 -2.664547e-11 -6.002627e-15) (-1.702879e-11 1.112083e-07 9.448427e-12))
29.473411     	((-1.709133e-06 -7.926506e-10 -3.023968e-06) (-2.830676e-06 -1.239916e-10 -4.601163e-07)) ((6.281036e-14 -2.766843e-11 -7.936523e-15) (-1.816282e-11 1.044546e-07 1.141995e-11))
35.380094     	((-1.686105e-06 -8.187613e-10 -2.964705e-06) (-2.671064e-06 -1.481221e-10 -4.853226e-07)) ((5.127073e-14 -2.894703e-11 -6.855762e-15) (-1.825068e-11 9.853908e-08 1.321696e-11))
42.468112     	((-1.680953e-06 -7.657181e-10 -2.901198e-06) (-2.532500e-06 -1.683053e-10 -5.094743e-07)) ((3.987773e-14 -3.051062e-11 -5.530866e-15) (-1.732347e-11 9.342171e-08 1.416332e-11))
50.973735     	((-1.692459e-06 -5.051905e-10 -2.833261e-06) (-2.413712e-06 -1.719515e-10 -5.321525e-07)) ((1.902321e-14 -3.242313e-11 -8.773484e-15) (-1.507880e-11 8.906956e-08 1.469308e-11))
61.180482     	((-1.717698e-06 -2.817888e-10 -2.762322e-06) (-2.313636e-06 -1.526520e-10 -5.531803e-07)) ((6.665798e-15 -3.457079e-11 -1.203729e-14) (-1.186429e-11 8.545043e-08 1.573417e-11))
73.428578     	((-1.752696e-06 -1.936553e-10 -2.687837e-06) (-2.231132e-06 -1.351187e-10 -5.725769e-07)) ((-2.793317e-16 -3.677328e-11 -1.177481e-14) (-8.541940e-12 8.251913e-08 1.744357e-11))
88.076522     	((-1.793473e-06 -8.618748e-12 -2.610590e-06) (-2.164821e-06 -1.015430e-10 -5.900352e-07)) ((-7.592553e-15 -3.882041e-11 -1.347986e-14) (-5.095956e-12 8.020904e-08 1.904829e-11))
105.107692    	((-1.835339e-06 1.782023e-10 -2.531266e-06) (-2.113231e-06 -6.181239e-11 -6.044386e-07)) ((-1.235335e-14 -4.045000e-11 -1.365930e-14) (-2.275321e-12 7.843523e-08 2.017851e-11))
124.506085    	((-1.870726e-06 3.785373e-10 -2.449328e-06) (-2.072966e-06 -1.779185e-11 -6.149974e-07)) ((-1.254322e-14 -4.162442e-11 -1.485132e-14) (1.709388e-13 7.705458e-08 2.094701e-11))
146.263789    	((-1.896029e-06 5.741749e-10 -2.365563e-06) (-2.040641e-06 3.704993e-11 -6.218610e-07)) ((-1.358364e-14 -4.241849e-11 -1.637314e-14) (2.587148e-12 7.593540e-08 2.091532e-11))
169.87533     	((-1.911871e-06 7.157845e-10 -2.286011e-06) (-2.013823e-06 1.031552e-10 -6.256698e-07)) ((-1.673000e-14 -4.302339e-11 -1.647060e-14) (5.182416e-12 7.500990e-08 2.079416e-11))
193.548782    	((-1.921875e-06 8.857696e-10 -2.218086e-06) (-1.991566e-06 1.728684e-10 -6.276904e-07)) ((-2.037628e-14 -4.345633e-11 -1.740985e-14) (7.876652e-12 7.425029e-08 2.089909e-11))
217.269199    	((-1.926510e-06 9.947416e-10 -2.161221e-06) (-1.972490e-06 2.381928e-10 -6.288562e-07)) ((-2.227895e-14 -4.371788e-11 -1.792666e-14) (1.048589e-11 7.361010e-08 2.119683e-11))
241.012707    	((-1.928857e-06 1.057133e-09 -2.112994e-06) (-1.956177e-06 2.899258e-10 -6.296547e-07)) ((-2.255189e-14 -4.385949e-11 -1.781327e-14) (1.273747e-11 7.306974e-08 2.134979e-11))
264.769731    	((-1.929910e-06 1.087021e-09 -2.070818e-06) (-1.942190e-06 3.318267e-10 -6.303102e-07)) ((-2.081837e-14 -4.392849e-11 -1.767418e-14) (1.441407e-11 7.260956e-08 2.141127e-11))
288.540367    	((-1.930114e-06 1.060664e-09 -2.033562e-06) (-1.930185e-06 3.623406e-10 -6.308918e-07)) ((-1.727678e-14 -4.395398e-11 -1.739911e-14) (1.542375e-11 7.221622e-08 2.147712e-11))
312.324904    	((-1.929633e-06 9.873921e-10 -2.000805e-06) (-1.919841e-06 3.793298e-10 -6.314324e-07)) ((-1.340972e-14 -4.395271e-11 -1.741031e-14) (1.575294e-11 7.187846e-08 2.155141e-11))
336.121912    	((-1.928853e-06 9.031458e-10 -1.972140e-06) (-1.910920e-06 3.842853e-10 -6.319435e-07)) ((-1.088539e-14 -4.393292e-11 -1.716242e-14) (1.557266e-11 7.158815e-08 2.145857e-11))
359.929712    	((-1.927719e-06 8.442960e-10 -1.947106e-06) (-1.903195e-06 3.850119e-10 -6.324447e-07)) ((-9.751538e-15 -4.390009e-11 -1.693390e-14) (1.518480e-11 7.133702e-08 2.115349e-11))
383.746982    	((-1.926592e-06 7.899904e-10 -1.924973e-06) (-1.896494e-06 3.820895e-10 -6.329316e-07)) ((-8.169332e-15 -4.386169e-11 -1.690550e-14) (1.471190e-11 7.111934e-08 2.070775e-11))
407.572609    	((-1.925429e-06 7.297521e-10 -1.905465e-06) (-1.890666e-06 3.758616e-10 -6.333957e-07)) ((-7.011005e-15 -4.382321e-11 -1.663511e-14) (1.415698e-11 7.093016e-08 2.022515e-11))
431.405603    	((-1.924288e-06 6.695442e-10 -1.888367e-06) (-1.885588e-06 3.674752e-10 -6.338254e-07)) ((-5.522860e-15 -4.378623e-11 -1.634743e-14) (1.355916e-11 7.076552e-08 1.969538e-11))
455.245102    	((-1.923222e-06 6.101442e-10 -1.873334e-06) (-1.881158e-06 3.570031e-10 -6.342160e-07)) ((-3.864976e-15 -4.375240e-11 -1.640010e-14) (1.294765e-11 7.062224e-08 1.918268e-11))
479.09036     	((-1.922146e-06 5.577750e-10 -1.859950e-06) (-1.877280e-06 3.453083e-10 -6.345717e-07)) ((-2.105229e-15 -4.371946e-11 -1.629633e-14) (1.228581e-11 7.049704e-08 1.869997e-11))
502.940719    	((-1.921165e-06 4.942258e-10 -1.848117e-06) (-1.873878e-06 3.333117e-10 -6.348928e-07)) ((-7.751163e-16 -4.368967e-11 -1.616592e-14) (1.159327e-11 7.038750e-08 1.819335e-11))
526.795596    	((-1.920235e-06 4.431780e-10 -1.837568e-06) (-1.870892e-06 3.219204e-10 -6.351825e-07)) ((4.950182e-16 -4.366132e-11 -1.609415e-14) (1.091508e-11 7.029143e-08 1.764841e-11))
550.654479    	((-1.919365e-06 3.973721e-10 -1.828214e-06) (-1.868265e-06 3.110984e-10 -6.354438e-07)) ((1.317040e-15 -4.363549e-11 -1.597248e-14) (1.028471e-11 7.020700e-08 1.712380e-11))
574.516918    	((-1.918557e-06 3.483651e-10 -1.819885e-06) (-1.865951e-06 3.004389e-10 -6.356778e-07)) ((2.349027e-15 -4.361165e-11 -1.582186e-14) (9.663971e-12 7.013270e-08 1.663794e-11))
598.382516    	((-1.917812e-06 3.072316e-10 -1.812492e-06) (-1.863908e-06 2.902652e-10 -6.358863e-07)) ((3.064201e-15 -4.358983e-11 -1.576823e-14) (9.092577e-12 7.006719e-08 1.618227e-11))
622.250922    	((-1.917120e-06 2.650887e-10 -1.805897e-06) (-1.862102e-06 2.797830e-10 -6.360716e-07)) ((3.690459e-15 -4.356996e-11 -1.573859e-14) (8.551501e-12 7.000936e-08 1.574362e-11))
646.121827    	((-1.916478e-06 2.282552e-10 -1.800025e-06) (-1.860502e-06 2.701484e-10 -6.362363e-07)) ((4.187597e-15 -4.355147e-11 -1.570607e-14) (8.042917e-12 6.995818e-08 1.530769e-11))
669.994958    	((-1.915898e-06 1.887840e-10 -1.794793e-06) (-1.859085e-06 2.609429e-10 -6.363814e-07)) ((5.085584e-15 -4.353508e-11 -1.569117e-14) (7.547946e-12 6.991290e-08 1.489988e-11))
693.87007     	((-1.915369e-06 1.524773e-10 -1.790118e-06) (-1.857828e-06 2.521446e-10 -6.365091e-07)) ((5.833339e-15 -4.352020e-11 -1.568632e-14) (7.070927e-12 6.987279e-08 1.451425e-11))
717.746947    	((-1.914889e-06 1.157349e-10 -1.785951e-06) (-1.856713e-06 2.439164e-10 -6.366214e-07)) ((6.735526e-15 -4.350670e-11 -1.564089e-14) (6.601973e-12 6.983720e-08 1.413170e-11))
741.625399    	((-1.914454e-06 8.040666e-11 -1.782235e-06) (-1.855722e-06 2.360797e-10 -6.367194e-07)) ((7.554209e-15 -4.349490e-11 -1.559599e-14) (6.143960e-12 6.980562e-08 1.376650e-11))
765.505256    	((-1.914060e-06 4.507508e-11 -1.778911e-06) (-1.854841e-06 2.284671e-10 -6.368043e-07)) ((8.357884e-15 -4.348449e-11 -1.555902e-14) (5.699763e-12 6.977759e-08 1.341707e-11))
789.386367    	((-1.913701e-06 1.280005e-11 -1.775941e-06) (-1.854057e-06 2.212272e-10 -6.368779e-07)) ((9.104724e-15 -4.347530e-11 -1.553981e-14) (5.275466e-12 6.975267e-08 1.308261e-11))
813.268597    	((-1.913375e-06 -1.972421e-11 -1.773281e-06) (-1.853359e-06 2.140875e-10 -6.369416e-07)) ((9.858713e-15 -4.346715e-11 -1.552023e-14) (4.869114e-12 6.973050e-08 1.277396e-11))
837.151829    	((-1.913084e-06 -5.186246e-11 -1.770910e-06) (-1.852738e-06 2.070137e-10 -6.369968e-07)) ((1.058975e-14 -4.345999e-11 -1.548016e-14) (4.471830e-12 6.971078e-08 1.248173e-11))
861.035956    	((-1.912817e-06 -8.213388e-11 -1.768782e-06) (-1.852183e-06 2.002261e-10 -6.370447e-07)) ((1.120812e-14 -4.345357e-11 -1.544559e-14) (4.090511e-12 6.969320e-08 1.220254e-11))
884.920884    	((-1.912578e-06 -1.112595e-10 -1.766882e-06) (-1.851689e-06 1.937034e-10 -6.370862e-07)) ((1.176724e-14 -4.344789e-11 -1.542654e-14) (3.726532e-12 6.967754e-08 1.193869e-11))
908.806529    	((-1.912360e-06 -1.386302e-10 -1.765171e-06) (-1.851248e-06 1.874084e-10 -6.371222e-07)) ((1.225438e-14 -4.344279e-11 -1.543402e-14) (3.380775e-12 6.966358e-08 1.169231e-11))
932.692818    	((-1.912164e-06 -1.646645e-10 -1.763649e-06) (-1.850854e-06 1.813206e-10 -6.371533e-07)) ((1.272960e-14 -4.343823e-11 -1.543774e-14) (3.052873e-12 6.965113e-08 1.146470e-11))
956.579682    	((-1.911986e-06 -1.887250e-10 -1.762284e-06) (-1.850502e-06 1.754792e-10 -6.371805e-07)) ((1.317441e-14 -4.343415e-11 -1.544151e-14) (2.742356e-12 6.964000e-08 1.125512e-11))
980.467062    	((-1.911826e-06 -2.120476e-10 -1.761062e-06) (-1.850187e-06 1.698655e-10 -6.372041e-07)) ((1.361370e-14 -4.343054e-11 -1.543447e-14) (2.445566e-12 6.963007e-08 1.106108e-11))
1004.354904   	((-1.911683e-06 -2.338063e-10 -1.759969e-06) (-1.849906e-06 1.645114e-10 -6.372247e-07)) ((1.401662e-14 -4.342731e-11 -1.542781e-14) (2.160282e-12 6.962118e-08 1.087937e-11))
1028.243162   	((-1.911553e-06 -2.540880e-10 -1.758988e-06) (-1.849654e-06 1.594328e-10 -6.372427e-07)) ((1.438662e-14 -4.342445e-11 -1.541810e-14) (1.889441e-12 6.961324e-08 1.071044e-11))
1052.131791   	((-1.911436e-06 -2.730168e-10 -1.758107e-06) (-1.849429e-06 1.546499e-10 -6.372582e-07)) ((1.471351e-14 -4.342189e-11 -1.540035e-14) (1.634186e-12 6.960614e-08 1.055523e-11))
1076.020755   	((-1.911331e-06 -2.907399e-10 -1.757322e-06) (-1.849227e-06 1.501439e-10 -6.372717e-07)) ((1.502856e-14 -4.341965e-11 -1.538503e-14) (1.394315e-12 6.959979e-08 1.041249e-11))
1099.910017   	((-1.911236e-06 -3.064176e-10 -1.756613e-06) (-1.849047e-06 1.459704e-10 -6.372835e-07)) ((1.529958e-14 -4.341762e-11 -1.536964e-14) (1.172204e-12 6.959410e-08 1.028012e-11))
1123.799548   	((-1.911151e-06 -3.214139e-10 -1.755980e-06) (-1.848886e-06 1.420289e-10 -6.372937e-07)) ((1.555422e-14 -4.341586e-11 -1.535362e-14) (9.638906e-13 6.958902e-08 1.015724e-11))
1147.68932    	((-1.911073e-06 -3.347783e-10 -1.755410e-06) (-1.848741e-06 1.383872e-10 -6.373025e-07)) ((1.577984e-14 -4.341425e-11 -1.533897e-14) (7.712724e-13 6.958446e-08 1.004355e-11))
1171.579309   	((-1.911004e-06 -3.474411e-10 -1.754901e-06) (-1.848612e-06 1.350200e-10 -6.373101e-07)) ((1.600452e-14 -4.341285e-11 -1.532799e-14) (5.925916e-13 6.958039e-08 9.939159e-12))
1195.469491   	((-1.910942e-06 -3.584961e-10 -1.754445e-06) (-1.848496e-06 1.319445e-10 -6.373167e-07)) ((1.619305e-14 -4.341161e-11 -1.531849e-14) (4.282505e-13 6.957674e-08 9.843568e-12))
1219.359848   	((-1.910886e-06 -3.688571e-10 -1.754035e-06) (-1.848392e-06 1.291169e-10 -6.373225e-07)) ((1.636788e-14 -4.341050e-11 -1.530953e-14) (2.770649e-13 6.957348e-08 9.756268e-12))
1243.25036    	((-1.910836e-06 -3.783337e-10 -1.753666e-06) (-1.848299e-06 1.265248e-10 -6.373275e-07)) ((1.652788e-14 -4.340950e-11 -1.530246e-14) (1.386154e-13 6.957055e-08 9.677038e-12))
1267.141013   	((-1.910790e-06 -3.868279e-10 -1.753337e-06) (-1.848216e-06 1.241444e-10 -6.373318e-07)) ((1.666974e-14 -4.340862e-11 -1.529717e-14) (1.227464e-14 6.956793e-08 9.605841e-12))
1291.031791   	((-1.910750e-06 -3.947834e-10 -1.753036e-06) (-1.848141e-06 1.219686e-10 -6.373357e-07)) ((1.680280e-14 -4.340781e-11 -1.529231e-14) (-1.030884e-13 6.956558e-08 9.541384e-12))
1314.922682   	((-1.910713e-06 -4.017116e-10 -1.752772e-06) (-1.848074e-06 1.199962e-10 -6.373390e-07)) ((1.691843e-14 -4.340712e-11 -1.528747e-14) (-2.078436e-13 6.956347e-08 9.482782e-12))
1338.813674   	((-1.910681e-06 -4.080943e-10 -1.752533e-06) (-1.848014e-06 1.181934e-10 -6.373419e-07)) ((1.702463e-14 -4.340650e-11 -1.528341e-14) (-3.035721e-13 6.956158e-08 9.429546e-12))
1362.704758   	((-1.910650e-06 -4.138126e-10 -1.752320e-06) (-1.847960e-06 1.165554e-10 -6.373444e-07)) ((1.711949e-14 -4.340594e-11 -1.527919e-14) (-3.906369e-13 6.955989e-08 9.381179e-12))
1386.595923   	((-1.910624e-06 -4.190337e-10 -1.752129e-06) (-1.847912e-06 1.150655e-10 -6.373466e-07)) ((1.720370e-14 -4.340545e-11 -1.527488e-14) (-4.698449e-13 6.955837e-08 9.337135e-12))
1410.487161   	((-1.910599e-06 -4.237618e-10 -1.751957e-06) (-1.847869e-06 1.137152e-10 -6.373485e-07)) ((1.728135e-14 -4.340501e-11 -1.527106e-14) (-5.419024e-13 6.955701e-08 9.297080e-12))
1434.378464   	((-1.910578e-06 -4.280761e-10 -1.751802e-06) (-1.847830e-06 1.124890e-10 -6.373501e-07)) ((1.735218e-14 -4.340461e-11 -1.526758e-14) (-6.074490e-13 6.955579e-08 9.260691e-12))
