# Forces      
# CofR        : (0.000000e+00 0.000000e+00 0.000000e+00)
# Time        forces(pressure viscous)	moments(pressure viscous)
0             	((0.000000e+00 0.000000e+00 0.000000e+00) (-2.492302e-08 7.007176e-11 -2.519109e-03)) ((0.000000e+00 0.000000e+00 0.000000e+00) (-2.920863e-11 -5.004940e-10 7.009497e-14))
0.012         	((-1.094406e-04 -4.137017e-05 -1.931094e+00) (-9.852562e-08 -4.287132e-08 -2.450277e-03)) ((9.169057e-09 -5.037522e-06 -3.407311e-10) (-3.959910e-09 8.814314e-09 -1.154253e-12))
0.0264        	((3.853752e-05 7.839810e-06 1.826702e-01) (-1.000455e-07 -5.887350e-08 -2.232194e-03)) ((-3.434352e-09 3.330372e-07 -9.373165e-10) (-3.516920e-09 9.595337e-09 -2.509669e-11))
0.04368       	((7.525499e-05 1.319951e-04 2.168562e-01) (6.130643e-08 -3.130140e-08 -1.952650e-03)) ((-8.193140e-09 4.733180e-07 9.262433e-10) (1.074014e-08 -3.526905e-09 6.178857e-10))
0.064416      	((3.793607e-05 8.829626e-06 5.180189e-02) (1.658262e-07 -1.673175e-08 -1.747783e-03)) ((-2.701800e-09 1.451425e-07 -1.918279e-10) (2.280140e-08 -1.933306e-08 7.944912e-10))
0.0892992     	((-9.934391e-06 6.620701e-06 2.955755e-02) (1.029450e-07 1.693738e-08 -1.619980e-03)) ((-1.391778e-09 6.745858e-08 -4.597090e-10) (2.432156e-08 -2.505869e-08 -2.926790e-10))
0.119159      	((7.125577e-06 -3.140301e-06 1.825623e-02) (1.709840e-07 5.331692e-08 -1.509618e-03)) ((-8.561011e-10 2.608068e-08 -2.602565e-11) (2.323561e-08 -2.503534e-08 -1.278335e-09))
0.154991      	((1.064725e-05 3.258269e-06 1.014050e-02) (3.780643e-07 1.046016e-07 -1.405384e-03)) ((-1.298233e-09 1.665807e-09 -2.592340e-10) (2.386245e-08 -2.536907e-08 -2.123106e-09))
0.197989      	((2.981816e-06 4.974103e-07 5.377120e-03) (4.503806e-07 1.495104e-07 -1.307372e-03)) ((-1.258719e-09 -1.294410e-08 3.010574e-10) (2.559321e-08 -2.490003e-08 -2.808970e-09))
0.249587      	((5.358214e-06 3.822852e-06 2.373428e-03) (2.998404e-07 1.357227e-07 -1.215930e-03)) ((-1.309289e-09 -2.203909e-08 -1.533675e-10) (2.644366e-08 -2.408968e-08 -3.079161e-09))
0.311504      	((4.515358e-06 3.955016e-06 4.158393e-04) (1.539217e-07 8.454293e-08 -1.130437e-03)) ((-1.025621e-09 -2.716621e-08 1.394082e-10) (2.646575e-08 -2.501982e-08 -3.201439e-09))
0.385805      	((9.926773e-07 1.986146e-06 -8.707252e-04) (1.242564e-07 -9.290712e-09 -1.050633e-03)) ((-8.868604e-10 -3.023345e-08 2.436173e-11) (2.398276e-08 -2.896319e-08 -2.941745e-09))
0.474966      	((-1.973051e-06 -8.618426e-07 -1.725886e-03) (2.482762e-07 9.020234e-09 -9.762226e-04)) ((-7.456472e-10 -3.188614e-08 -9.891379e-11) (2.223163e-08 -3.218851e-08 -2.319189e-09))
0.581959      	((-1.828413e-06 -2.551856e-06 -2.277818e-03) (3.803688e-07 1.320983e-07 -9.070552e-04)) ((-6.022388e-10 -3.276700e-08 -2.977936e-11) (2.231154e-08 -3.062278e-08 -1.878762e-09))
0.710351      	((-2.850573e-06 -3.014048e-06 -2.647542e-03) (2.728720e-07 1.904470e-07 -8.437210e-04)) ((-5.034313e-10 -3.258572e-08 1.190425e-10) (2.142069e-08 -2.798437e-08 -1.754076e-09))
0.864421      	((-3.896967e-06 -2.805107e-06 -2.904126e-03) (1.070539e-07 1.552380e-07 -7.869106e-04)) ((-5.582781e-10 -3.199891e-08 8.146921e-11) (2.010705e-08 -2.636046e-08 -1.495750e-09))
1.049306      	((-5.797247e-06 -4.019378e-06 -3.089683e-03) (3.276010e-08 1.277639e-07 -7.370877e-04)) ((-5.133624e-10 -3.115978e-08 1.372889e-10) (1.893489e-08 -2.603851e-08 -1.079255e-09))
1.271167      	((-7.861278e-06 -4.639687e-06 -3.232489e-03) (2.697004e-08 1.024359e-07 -6.939736e-04)) ((-4.282992e-10 -3.050994e-08 1.288441e-10) (1.760023e-08 -2.580024e-08 -8.626971e-10))
1.5374        	((-7.877181e-06 -5.783051e-06 -3.373009e-03) (5.834406e-08 4.313105e-08 -6.580589e-04)) ((-4.102774e-10 -2.954777e-08 5.963712e-11) (1.644049e-08 -2.418994e-08 -7.975907e-10))
1.85688       	((-9.527497e-06 -6.833761e-06 -3.509016e-03) (-5.651622e-08 2.400908e-09 -6.301383e-04)) ((-4.091026e-10 -2.848166e-08 -3.945498e-12) (1.458135e-08 -1.969705e-08 -5.125978e-10))
2.240256      	((-1.006703e-05 -6.851519e-06 -3.585624e-03) (-9.648632e-08 2.777644e-08 -6.095334e-04)) ((-3.402459e-10 -2.756583e-08 -1.156288e-10) (1.317777e-08 -1.433592e-08 -1.161973e-10))
2.696011      	((-8.921704e-06 -6.343495e-06 -3.675059e-03) (-6.845578e-08 6.660033e-08 -5.949337e-04)) ((-2.922870e-10 -2.678247e-08 -7.082139e-11) (1.319840e-08 -1.098772e-08 9.168670e-12))
3.224137      	((-1.142210e-05 -7.816286e-06 -3.750710e-03) (-1.140297e-07 2.982319e-08 -5.860445e-04)) ((-2.313702e-10 -2.613288e-08 -4.916407e-11) (1.226203e-08 -8.286354e-09 1.044891e-11))
3.824676      	((-1.521604e-05 -1.129210e-05 -3.693897e-03) (-2.232770e-07 -6.343178e-08 -5.808919e-04)) ((-1.670781e-10 -2.538758e-08 -4.702789e-11) (8.929361e-09 -3.989040e-09 1.561070e-11))
4.497653      	((-1.899275e-05 -1.455343e-05 -3.538408e-03) (-4.180176e-07 -1.916959e-07 -5.774486e-04)) ((-8.832280e-11 -2.447374e-08 -4.495562e-11) (4.026096e-09 3.573229e-09 -1.067370e-11))
5.22216       	((-2.260617e-05 -1.782471e-05 -3.415303e-03) (-6.265231e-07 -3.211165e-07 -5.760169e-04)) ((-4.921565e-11 -2.369946e-08 -1.771057e-11) (-3.688519e-10 1.003409e-08 2.892984e-11))
5.946902      	((-2.546899e-05 -2.030677e-05 -3.365233e-03) (-7.836487e-07 -4.155561e-07 -5.762644e-04)) ((-2.673272e-11 -2.332527e-08 -2.571457e-11) (-3.088945e-09 1.333928e-08 3.445508e-11))
6.671999      	((-2.979667e-05 -2.450975e-05 -3.380989e-03) (-9.337514e-07 -5.328291e-07 -5.773879e-04)) ((3.011833e-11 -2.334930e-08 -5.100127e-12) (-5.831107e-09 1.724218e-08 -2.531377e-11))
7.397399      	((-3.746929e-05 -3.146416e-05 -3.391337e-03) (-1.132637e-06 -7.346266e-07 -5.790188e-04)) ((6.716354e-11 -2.351940e-08 3.187311e-11) (-9.994204e-09 2.317026e-08 -1.689676e-10))
8.122884      	((-4.246925e-05 -3.576098e-05 -3.329051e-03) (-1.388963e-06 -9.826565e-07 -5.800969e-04)) ((1.020477e-10 -2.358318e-08 8.250592e-11) (-1.623849e-08 3.045552e-08 -3.087121e-10))
8.848413      	((-4.813733e-05 -4.097331e-05 -3.253599e-03) (-1.666371e-06 -1.223198e-06 -5.802674e-04)) ((1.441063e-10 -2.360111e-08 9.110629e-11) (-2.304915e-08 3.809824e-08 -2.960795e-10))
9.573964      	((-5.376469e-05 -4.585050e-05 -3.201663e-03) (-1.917433e-06 -1.431217e-06 -5.800633e-04)) ((2.256276e-10 -2.361506e-08 5.336835e-11) (-2.851084e-08 4.433719e-08 -1.977785e-10))
10.299494     	((-5.975101e-05 -5.119646e-05 -3.164917e-03) (-2.126835e-06 -1.596925e-06 -5.797162e-04)) ((3.249914e-10 -2.365174e-08 3.350961e-11) (-3.197946e-08 4.833251e-08 -1.518830e-10))
11.024997     	((-6.619632e-05 -5.689628e-05 -3.138489e-03) (-2.309178e-06 -1.744714e-06 -5.793305e-04)) ((4.408600e-10 -2.369477e-08 4.527172e-11) (-3.427088e-08 5.081035e-08 -1.494614e-10))
11.75048      	((-7.277474e-05 -6.275114e-05 -3.124043e-03) (-2.475766e-06 -1.899605e-06 -5.790218e-04)) ((5.639153e-10 -2.374862e-08 6.212589e-11) (-3.651521e-08 5.267212e-08 -2.527942e-10))
12.47595      	((-7.948812e-05 -6.858079e-05 -3.116314e-03) (-2.634641e-06 -2.056662e-06 -5.788768e-04)) ((6.878177e-10 -2.381595e-08 8.489891e-11) (-3.858748e-08 5.420138e-08 -3.539645e-10))
13.201412     	((-8.642301e-05 -7.450038e-05 -3.111815e-03) (-2.799567e-06 -2.208017e-06 -5.789127e-04)) ((7.956311e-10 -2.389801e-08 9.240562e-11) (-4.024734e-08 5.538794e-08 -3.941994e-10))
13.926865     	((-9.382305e-05 -8.082240e-05 -3.106913e-03) (-2.985778e-06 -2.365746e-06 -5.790663e-04)) ((8.951368e-10 -2.399970e-08 9.911760e-11) (-4.211218e-08 5.708864e-08 -4.297420e-10))
