# Forces      
# CofR        : (0.000000e+00 0.000000e+00 0.000000e+00)
# Time        forces(pressure viscous)	moments(pressure viscous)
0             	((0.000000e+00 0.000000e+00 0.000000e+00) (-6.343798e-04 1.799260e-13 -6.169173e-09)) ((0.000000e+00 0.000000e+00 0.000000e+00) (-1.390143e-15 1.425376e-05 -3.906817e-15))
0.012         	((-1.843596e-01 1.269762e-08 1.893017e-02) (-7.260578e-04 6.816904e-10 -2.801018e-06)) ((8.778437e-12 -2.487788e-06 2.718659e-11) (-1.376092e-11 2.104386e-05 -1.295542e-11))
0.0264        	((1.786128e-02 -2.282134e-06 -2.442587e-03) (-7.355942e-04 -9.225314e-10 -4.357533e-06)) ((5.421648e-11 2.320966e-07 1.156455e-11) (-1.206617e-10 2.345324e-05 -1.753050e-11))
0.04368       	((3.584642e-02 2.550055e-06 -1.543964e-03) (-6.487065e-04 -4.968998e-10 -4.304977e-06)) ((-5.542160e-11 5.485917e-07 -5.270013e-11) (-1.331236e-10 2.086096e-05 -2.771257e-12))
0.064416      	((2.997917e-04 2.478196e-07 -1.622332e-03) (-5.720541e-04 -1.056900e-09 -4.594849e-06)) ((1.649381e-11 -7.729116e-09 -1.462739e-11) (-5.598871e-11 1.881331e-05 -2.410407e-11))
0.0892992     	((-7.917808e-05 -1.193231e-07 -1.216332e-03) (-5.266823e-04 -4.941932e-09 -5.606406e-06)) ((-1.913664e-11 -1.757370e-08 1.138608e-12) (2.249295e-13 1.780344e-05 -1.994211e-11))
0.119159      	((6.202113e-04 -4.730425e-07 -9.814454e-04) (-4.866819e-04 -6.668750e-09 -6.726087e-06)) ((2.210291e-11 1.055182e-08 -9.526413e-13) (-2.300515e-12 1.670377e-05 1.172214e-10))
0.154991      	((2.029423e-04 -1.629023e-07 -8.515018e-04) (-4.458416e-04 -7.090601e-09 -7.793782e-06)) ((-1.497267e-12 5.011327e-09 -1.043083e-11) (-5.449465e-11 1.553355e-05 2.130431e-10))
0.197989      	((1.400195e-05 -2.438389e-07 -7.611365e-04) (-4.066822e-04 -7.155970e-09 -8.900163e-06)) ((1.210944e-11 2.347086e-09 -1.837763e-11) (-9.311126e-11 1.438299e-05 1.907861e-10))
0.249587      	((-4.968813e-05 -1.026290e-07 -7.050230e-04) (-3.705031e-04 -7.962436e-09 -1.011809e-05)) ((7.499864e-12 1.402922e-09 -1.689763e-11) (-1.195900e-10 1.327712e-05 1.718240e-10))
0.311504      	((-8.577914e-05 -8.980152e-08 -6.702905e-04) (-3.381270e-04 -8.644430e-09 -1.138641e-05)) ((9.140410e-12 8.706376e-10 -1.366332e-11) (-1.368043e-10 1.224005e-05 1.580125e-10))
0.385805      	((-1.055643e-04 -5.587438e-08 -6.470175e-04) (-3.096321e-04 -6.948301e-09 -1.269373e-05)) ((6.518426e-12 5.110294e-10 -9.016309e-12) (-1.478155e-10 1.128677e-05 1.211511e-10))
0.474966      	((-1.147163e-04 -3.327013e-08 -6.307459e-04) (-2.845560e-04 -5.398713e-09 -1.404195e-05)) ((6.027893e-12 1.766752e-10 -4.862636e-12) (-1.571423e-10 1.041687e-05 9.154921e-11))
0.581959      	((-1.180398e-04 -1.244297e-08 -6.194970e-04) (-2.618916e-04 -4.029513e-09 -1.548240e-05)) ((3.522943e-12 -1.325047e-10 -2.435900e-12) (-1.654219e-10 9.609510e-06 5.106841e-11))
0.710351      	((-1.174640e-04 -8.489624e-09 -6.113439e-04) (-2.404774e-04 -2.825195e-09 -1.706617e-05)) ((3.471900e-12 -4.380622e-10 -1.226289e-12) (-1.734573e-10 8.833688e-06 1.254933e-11))
0.864421      	((-1.143982e-04 1.306798e-09 -6.048589e-04) (-2.199134e-04 -2.172513e-09 -1.882050e-05)) ((3.073492e-12 -7.024242e-10 -1.087947e-12) (-1.837706e-10 8.081572e-06 5.481447e-12))
1.049306      	((-1.103440e-04 9.543298e-09 -5.993702e-04) (-2.004528e-04 -1.691532e-09 -2.076501e-05)) ((2.831280e-12 -9.373962e-10 -8.748039e-13) (-1.958909e-10 7.366127e-06 1.239484e-11))
1.271167      	((-1.066024e-04 2.480407e-09 -5.946695e-04) (-1.823850e-04 -1.654639e-09 -2.288727e-05)) ((2.464754e-12 -1.186296e-09 -7.243264e-13) (-2.128910e-10 6.700325e-06 2.713470e-11))
1.5374        	((-1.039748e-04 4.149756e-09 -5.899517e-04) (-1.659070e-04 -1.663605e-09 -2.514388e-05)) ((1.567060e-12 -1.454119e-09 -4.500661e-13) (-2.251526e-10 6.092372e-06 3.986855e-11))
1.85688       	((-1.031175e-04 1.646154e-09 -5.849971e-04) (-1.511527e-04 -1.470920e-09 -2.748706e-05)) ((9.094656e-13 -1.721733e-09 -3.508339e-13) (-2.258644e-10 5.547311e-06 4.423954e-11))
2.240256      	((-1.041845e-04 -1.656107e-08 -5.794476e-04) (-1.381807e-04 -1.627611e-09 -2.984848e-05)) ((1.485810e-12 -2.023835e-09 -2.886665e-13) (-2.339492e-10 5.067649e-06 5.439214e-11))
2.700307      	((-1.075824e-04 -3.082677e-08 -5.732044e-04) (-1.269623e-04 -2.423797e-09 -3.213847e-05)) ((1.847322e-12 -2.378814e-09 -3.247517e-13) (-2.574363e-10 4.653327e-06 7.570252e-11))
3.252369      	((-1.136549e-04 -3.719104e-08 -5.661195e-04) (-1.174256e-04 -3.428322e-09 -3.426373e-05)) ((1.560923e-12 -2.787002e-09 -4.828425e-13) (-2.814114e-10 4.302632e-06 1.050012e-10))
3.914842      	((-1.225784e-04 -3.721190e-08 -5.581830e-04) (-1.094406e-04 -4.086901e-09 -3.618130e-05)) ((8.972307e-13 -3.243356e-09 -8.269170e-13) (-2.861009e-10 4.010648e-06 1.362833e-10))
4.708236      	((-1.344642e-04 -3.141360e-08 -5.494125e-04) (-1.028571e-04 -4.622902e-09 -3.789982e-05)) ((1.085388e-12 -3.748811e-09 -8.528263e-13) (-2.874297e-10 3.770261e-06 1.636419e-10))
5.632283      	((-1.491060e-04 -3.208659e-08 -5.400739e-04) (-9.756705e-05 -5.604833e-09 -3.945843e-05)) ((3.726404e-13 -4.278467e-09 -1.194658e-12) (-2.778248e-10 3.575932e-06 1.972625e-10))
6.686811      	((-1.659622e-04 -3.247517e-08 -5.301167e-04) (-9.334124e-05 -6.946886e-09 -4.083934e-05)) ((1.435498e-12 -4.794995e-09 -1.584647e-12) (-2.827470e-10 3.420989e-06 2.352851e-10))
7.871478      	((-1.844480e-04 -2.957172e-08 -5.193673e-04) (-9.002709e-05 -8.227289e-09 -4.198720e-05)) ((2.949812e-12 -5.252016e-09 -2.454207e-12) (-3.297366e-10 3.298972e-06 2.644442e-10))
9.165593      	((-2.041979e-04 -2.437140e-08 -5.075526e-04) (-8.750080e-05 -8.442326e-09 -4.282080e-05)) ((4.693830e-12 -5.629029e-09 -3.230006e-12) (-4.061742e-10 3.203090e-06 2.351097e-10))
10.449077     	((-2.227989e-04 -2.373987e-09 -4.945163e-04) (-8.572299e-05 -6.578618e-09 -4.322258e-05)) ((5.261178e-12 -5.942626e-09 -3.826727e-12) (-4.612029e-10 3.132776e-06 1.257735e-10))
11.721657     	((-2.386477e-04 4.255605e-08 -4.798875e-04) (-8.435827e-05 -2.119118e-09 -4.328121e-05)) ((7.579927e-12 -6.216666e-09 -3.348641e-12) (-5.042175e-10 3.077390e-06 -5.642902e-11))
12.986519     	((-2.515099e-04 1.058559e-07 -4.643391e-04) (-8.318727e-05 3.091116e-09 -4.312835e-05)) ((6.409260e-12 -6.474837e-09 -1.331221e-12) (-5.140911e-10 3.030544e-06 -1.802680e-10))
14.249297     	((-2.613735e-04 1.462894e-07 -4.488194e-04) (-8.212483e-05 1.012383e-08 -4.286804e-05)) ((4.673877e-12 -6.720891e-09 4.744382e-13) (-4.525657e-10 2.989867e-06 -3.622699e-10))
15.514877     	((-2.672445e-04 1.898418e-07 -4.334460e-04) (-8.118433e-05 1.743283e-08 -4.254372e-05)) ((2.519060e-12 -6.911027e-09 9.870416e-13) (-3.197141e-10 2.956012e-06 -5.795411e-10))
16.784768     	((-2.698746e-04 2.036673e-07 -4.185143e-04) (-8.031350e-05 2.273712e-08 -4.218449e-05)) ((2.151277e-13 -7.060403e-09 1.178436e-12) (-1.472633e-10 2.927727e-06 -7.447086e-10))
18.057972     	((-2.696948e-04 2.197812e-07 -4.044816e-04) (-7.949670e-05 2.587057e-08 -4.182149e-05)) ((-1.284679e-12 -7.141895e-09 1.177014e-12) (2.415599e-11 2.903796e-06 -7.974223e-10))
19.33335      	((-2.673703e-04 2.254736e-07 -3.913578e-04) (-7.872606e-05 2.743468e-08 -4.148824e-05)) ((-1.501349e-12 -7.159975e-09 1.190654e-12) (1.811184e-10 2.882764e-06 -7.457189e-10))
20.610636     	((-2.643770e-04 2.354763e-07 -3.792046e-04) (-7.798859e-05 2.801924e-08 -4.120386e-05)) ((-1.373399e-12 -7.139978e-09 6.395628e-13) (2.949970e-10 2.863048e-06 -6.781045e-10))
21.890226     	((-2.613480e-04 2.528955e-07 -3.672191e-04) (-7.729211e-05 2.806648e-08 -4.095555e-05)) ((-6.224666e-13 -7.103314e-09 -3.865388e-13) (3.725663e-10 2.844405e-06 -6.072600e-10))
23.172419     	((-2.593949e-04 2.393893e-07 -3.568758e-04) (-7.665744e-05 2.726829e-08 -4.071751e-05)) ((2.093526e-13 -7.065474e-09 -1.158226e-12) (4.205080e-10 2.827653e-06 -5.242866e-10))
24.4566       	((-2.573923e-04 2.461397e-07 -3.478928e-04) (-7.608128e-05 2.574374e-08 -4.051188e-05)) ((-9.137797e-14 -6.999577e-09 -1.507499e-12) (4.668750e-10 2.812184e-06 -4.180112e-10))
25.742945     	((-2.553339e-04 2.794871e-07 -3.394042e-04) (-7.554613e-05 2.532390e-08 -4.034815e-05)) ((-1.359096e-12 -6.935513e-09 -1.241328e-12) (5.461954e-10 2.797208e-06 -3.091578e-10))
27.031637     	((-2.531289e-04 3.104362e-07 -3.309358e-04) (-7.503483e-05 2.552276e-08 -4.021972e-05)) ((-3.657339e-12 -6.861450e-09 -1.023697e-12) (6.602694e-10 2.782108e-06 -1.982500e-10))
28.321921     	((-2.513615e-04 3.641743e-07 -3.228994e-04) (-7.454781e-05 2.658211e-08 -4.012028e-05)) ((-5.861981e-12 -6.796000e-09 -9.932824e-13) (8.189678e-10 2.767001e-06 -7.963980e-11))
29.612665     	((-2.498538e-04 3.924449e-07 -3.152906e-04) (-7.408745e-05 2.787949e-08 -4.004064e-05)) ((-6.435175e-12 -6.743706e-09 -1.332053e-12) (9.808177e-10 2.752262e-06 5.569328e-11))
30.903949     	((-2.486200e-04 4.243850e-07 -3.081282e-04) (-7.365510e-05 2.903549e-08 -3.997209e-05)) ((-6.244456e-12 -6.705951e-09 -1.808436e-12) (1.124038e-09 2.738236e-06 2.025454e-10))
32.19607      	((-2.473806e-04 4.676250e-07 -3.011903e-04) (-7.324770e-05 3.080048e-08 -3.990595e-05)) ((-6.319770e-12 -6.677031e-09 -2.076042e-12) (1.273811e-09 2.725106e-06 3.375003e-10))
33.48916      	((-2.461936e-04 5.490997e-07 -2.944629e-04) (-7.286220e-05 3.407695e-08 -3.984081e-05)) ((-7.564679e-12 -6.649690e-09 -2.287550e-12) (1.478928e-09 2.712912e-06 4.563518e-10))
34.783372     	((-2.451266e-04 5.973461e-07 -2.880038e-04) (-7.250066e-05 3.732494e-08 -3.977554e-05)) ((-8.319582e-12 -6.624866e-09 -2.289273e-12) (1.684721e-09 2.701798e-06 5.997433e-10))
36.078865     	((-2.441884e-04 6.420136e-07 -2.818059e-04) (-7.216435e-05 3.994735e-08 -3.970674e-05)) ((-9.419378e-12 -6.606636e-09 -2.021555e-12) (1.875518e-09 2.691843e-06 7.633821e-10))
37.375801     	((-2.432700e-04 7.002760e-07 -2.758592e-04) (-7.185008e-05 4.289236e-08 -3.963725e-05)) ((-1.115013e-11 -6.589106e-09 -1.608960e-12) (2.093992e-09 2.682812e-06 9.220983e-10))
38.674235     	((-2.426141e-04 7.869934e-07 -2.702234e-04) (-7.155968e-05 4.713093e-08 -3.956395e-05)) ((-1.327362e-11 -6.581699e-09 -1.459077e-12) (2.362379e-09 2.674804e-06 1.049829e-09))
39.974124     	((-2.416500e-04 8.803379e-07 -2.646138e-04) (-7.128146e-05 5.290351e-08 -3.949267e-05)) ((-1.544462e-11 -6.567263e-09 -1.314563e-12) (2.693313e-09 2.667329e-06 1.170234e-09))
41.275419     	((-2.406563e-04 9.393782e-07 -2.592824e-04) (-7.100942e-05 5.878873e-08 -3.943068e-05)) ((-1.600753e-11 -6.549676e-09 -1.481115e-12) (3.019615e-09 2.659967e-06 1.291142e-09))
42.5781       	((-2.396731e-04 1.011990e-06 -2.539898e-04) (-7.074499e-05 6.494765e-08 -3.937828e-05)) ((-1.636594e-11 -6.531228e-09 -1.553814e-12) (3.322660e-09 2.652726e-06 1.404591e-09))
43.882168     	((-2.387455e-04 1.048707e-06 -2.488581e-04) (-7.048678e-05 7.055939e-08 -3.933187e-05)) ((-1.685517e-11 -6.515946e-09 -1.447310e-12) (3.553924e-09 2.645634e-06 1.500481e-09))
45.187656     	((-2.379504e-04 1.130096e-06 -2.440299e-04) (-7.023672e-05 7.564108e-08 -3.928741e-05)) ((-1.824267e-11 -6.502970e-09 -1.238297e-12) (3.792103e-09 2.638764e-06 1.653310e-09))
46.494641     	((-2.371980e-04 1.212513e-06 -2.394255e-04) (-6.999601e-05 8.059986e-08 -3.924458e-05)) ((-1.858623e-11 -6.490879e-09 -9.822794e-13) (4.056173e-09 2.632082e-06 1.857562e-09))
47.803228     	((-2.365966e-04 1.313905e-06 -2.351081e-04) (-6.976843e-05 8.704687e-08 -3.919975e-05)) ((-1.963585e-11 -6.482333e-09 -7.670095e-13) (4.336616e-09 2.625818e-06 1.994385e-09))
49.113538     	((-2.359759e-04 1.429244e-06 -2.309077e-04) (-6.955258e-05 9.557548e-08 -3.915174e-05)) ((-2.165390e-11 -6.472425e-09 -8.171423e-13) (4.667605e-09 2.620036e-06 2.054956e-09))
50.425558     	((-2.352380e-04 1.526295e-06 -2.267615e-04) (-6.934212e-05 1.043514e-07 -3.910961e-05)) ((-2.312976e-11 -6.451528e-09 -1.088888e-12) (5.018784e-09 2.614271e-06 2.139427e-09))
51.739272     	((-2.346607e-04 1.649505e-06 -2.228749e-04) (-6.914014e-05 1.133104e-07 -3.907951e-05)) ((-2.498000e-11 -6.426716e-09 -1.237456e-12) (5.396973e-09 2.608339e-06 2.264484e-09))
53.054662     	((-2.340345e-04 1.783171e-06 -2.191129e-04) (-6.894416e-05 1.234667e-07 -3.906414e-05)) ((-2.732612e-11 -6.397447e-09 -1.180256e-12) (5.827779e-09 2.602031e-06 2.371981e-09))
54.371688     	((-2.333520e-04 1.949180e-06 -2.154861e-04) (-6.874926e-05 1.355982e-07 -3.906136e-05)) ((-3.040667e-11 -6.367846e-09 -1.231154e-12) (6.338642e-09 2.595310e-06 2.459426e-09))
55.69032      	((-2.326760e-04 2.149750e-06 -2.119366e-04) (-6.855756e-05 1.499868e-07 -3.906098e-05)) ((-3.410018e-11 -6.343580e-09 -1.238698e-12) (6.944524e-09 2.588625e-06 2.549278e-09))
57.010525     	((-2.319976e-04 2.383878e-06 -2.084175e-04) (-6.837159e-05 1.662969e-07 -3.905518e-05)) ((-3.772604e-11 -6.323829e-09 -1.156377e-12) (7.642309e-09 2.582335e-06 2.685441e-09))
58.332278     	((-2.312881e-04 2.615063e-06 -2.049256e-04) (-6.819089e-05 1.843851e-07 -3.904305e-05)) ((-4.091246e-11 -6.306006e-09 -1.200110e-12) (8.395391e-09 2.576440e-06 2.850260e-09))
59.655565     	((-2.306548e-04 2.862450e-06 -2.015144e-04) (-6.801598e-05 2.038896e-07 -3.902590e-05)) ((-4.424841e-11 -6.290608e-09 -1.357107e-12) (9.186858e-09 2.570873e-06 3.025108e-09))
60.980353     	((-2.301518e-04 3.137518e-06 -1.982707e-04) (-6.784970e-05 2.245083e-07 -3.900433e-05)) ((-4.806888e-11 -6.278564e-09 -1.527460e-12) (1.004852e-08 2.565685e-06 3.236033e-09))
62.306596     	((-2.296274e-04 3.457412e-06 -1.950878e-04) (-6.769057e-05 2.474009e-07 -3.898114e-05)) ((-5.301380e-11 -6.265596e-09 -1.677004e-12) (1.102254e-08 2.560760e-06 3.476270e-09))
63.634255     	((-2.291228e-04 3.793606e-06 -1.920477e-04) (-6.753719e-05 2.730456e-07 -3.895751e-05)) ((-5.815280e-11 -6.253472e-09 -1.770126e-12) (1.210842e-08 2.556016e-06 3.724009e-09))
64.963301     	((-2.286625e-04 4.143707e-06 -1.891001e-04) (-6.739041e-05 3.010856e-07 -3.893131e-05)) ((-6.231045e-11 -6.244187e-09 -2.118387e-12) (1.325798e-08 2.551539e-06 3.977286e-09))
66.293708     	((-2.282290e-04 4.532783e-06 -1.862747e-04) (-6.725023e-05 3.315292e-07 -3.890134e-05)) ((-6.712856e-11 -6.237560e-09 -2.445241e-12) (1.447188e-08 2.547368e-06 4.263303e-09))
67.625444     	((-2.278220e-04 4.954683e-06 -1.835564e-04) (-6.711684e-05 3.646664e-07 -3.886701e-05)) ((-7.333021e-11 -6.233795e-09 -2.702359e-12) (1.580493e-08 2.543512e-06 4.588773e-09))
68.958468     	((-2.274036e-04 5.394685e-06 -1.809396e-04) (-6.698931e-05 4.004624e-07 -3.882876e-05)) ((-8.028837e-11 -6.231139e-09 -2.901467e-12) (1.726525e-08 2.539922e-06 4.933530e-09))
70.292725     	((-2.269526e-04 5.856065e-06 -1.783786e-04) (-6.686595e-05 4.391545e-07 -3.878772e-05)) ((-8.753017e-11 -6.228785e-09 -3.245950e-12) (1.883593e-08 2.536499e-06 5.254996e-09))
71.628168     	((-2.265090e-04 6.338236e-06 -1.758930e-04) (-6.674622e-05 4.803045e-07 -3.874407e-05)) ((-9.479709e-11 -6.227029e-09 -3.703102e-12) (2.050567e-08 2.533198e-06 5.569391e-09))
72.964757     	((-2.260722e-04 6.880588e-06 -1.734564e-04) (-6.662996e-05 5.245041e-07 -3.869698e-05)) ((-1.031623e-10 -6.226333e-09 -4.129251e-12) (2.232082e-08 2.530008e-06 5.899137e-09))
74.302461     	((-2.256547e-04 7.474270e-06 -1.710728e-04) (-6.651753e-05 5.727945e-07 -3.864616e-05)) ((-1.124495e-10 -6.225913e-09 -4.627477e-12) (2.432055e-08 2.526926e-06 6.236383e-09))
75.64125      	((-2.252495e-04 8.130057e-06 -1.687293e-04) (-6.640891e-05 6.255258e-07 -3.859230e-05)) ((-1.229430e-10 -6.225267e-09 -5.021938e-12) (2.652302e-08 2.523928e-06 6.597220e-09))
76.981099     	((-2.248779e-04 8.866810e-06 -1.664460e-04) (-6.630414e-05 6.835584e-07 -3.853593e-05)) ((-1.346342e-10 -6.224799e-09 -5.264152e-12) (2.896328e-08 2.521006e-06 6.994736e-09))
78.321987     	((-2.245243e-04 9.676791e-06 -1.642156e-04) (-6.620319e-05 7.472258e-07 -3.847780e-05)) ((-1.473394e-10 -6.223722e-09 -5.468877e-12) (3.166174e-08 2.518147e-06 7.459632e-09))
79.663897     	((-2.242017e-04 1.057355e-05 -1.620541e-04) (-6.610638e-05 8.167555e-07 -3.841839e-05)) ((-1.613397e-10 -6.222201e-09 -5.751506e-12) (3.463872e-08 2.515368e-06 8.021606e-09))
81.006808     	((-2.238961e-04 1.157413e-05 -1.599435e-04) (-6.601375e-05 8.934175e-07 -3.835811e-05)) ((-1.769643e-10 -6.219963e-09 -5.981436e-12) (3.793461e-08 2.512694e-06 8.677228e-09))
82.350697     	((-2.236196e-04 1.268964e-05 -1.579044e-04) (-6.592575e-05 9.785722e-07 -3.829778e-05)) ((-1.943135e-10 -6.216846e-09 -6.303626e-12) (4.159859e-08 2.510140e-06 9.417499e-09))
83.69553      	((-2.233732e-04 1.392574e-05 -1.559400e-04) (-6.584324e-05 1.073204e-06 -3.823825e-05)) ((-2.133801e-10 -6.212548e-09 -6.653544e-12) (4.568108e-08 2.507723e-06 1.025374e-08))
85.041255     	((-2.231341e-04 1.528904e-05 -1.540354e-04) (-6.576585e-05 1.177871e-06 -3.818044e-05)) ((-2.344587e-10 -6.206714e-09 -6.895071e-12) (5.021321e-08 2.505437e-06 1.121226e-08))
86.387829     	((-2.229037e-04 1.678638e-05 -1.521849e-04) (-6.569295e-05 1.293076e-06 -3.812504e-05)) ((-2.574780e-10 -6.199492e-09 -7.233722e-12) (5.521860e-08 2.503281e-06 1.229220e-08))
87.735213     	((-2.226919e-04 1.843057e-05 -1.503880e-04) (-6.562468e-05 1.420017e-06 -3.807239e-05)) ((-2.826811e-10 -6.191474e-09 -7.644336e-12) (6.073683e-08 2.501283e-06 1.347643e-08))
89.083355     	((-2.225035e-04 2.021092e-05 -1.486587e-04) (-6.556137e-05 1.559173e-06 -3.802089e-05)) ((-3.092938e-10 -6.184247e-09 -8.062105e-12) (6.676278e-08 2.499517e-06 1.477405e-08))
90.432195     	((-2.223250e-04 2.217346e-05 -1.469636e-04) (-6.550245e-05 1.711800e-06 -3.796940e-05)) ((-3.385134e-10 -6.177779e-09 -8.435616e-12) (7.335086e-08 2.498004e-06 1.620256e-08))
91.781669     	((-2.221869e-04 2.433799e-05 -1.453408e-04) (-6.544791e-05 1.880535e-06 -3.791858e-05)) ((-3.709972e-10 -6.172179e-09 -8.781123e-12) (8.060896e-08 2.496738e-06 1.774785e-08))
93.131713     	((-2.220813e-04 2.670666e-05 -1.437812e-04) (-6.539799e-05 2.067074e-06 -3.786918e-05)) ((-4.066227e-10 -6.167335e-09 -8.972221e-12) (8.859204e-08 2.495713e-06 1.939071e-08))
94.482251     	((-2.219925e-04 2.929318e-05 -1.422487e-04) (-6.535228e-05 2.272421e-06 -3.782150e-05)) ((-4.453546e-10 -6.163377e-09 -9.037309e-12) (9.732908e-08 2.494895e-06 2.113786e-08))
95.833199     	((-2.219160e-04 3.213139e-05 -1.407418e-04) (-6.531081e-05 2.498321e-06 -3.777535e-05)) ((-4.877655e-10 -6.160151e-09 -9.040380e-12) (1.068822e-07 2.494254e-06 2.299231e-08))
97.184464     	((-2.218837e-04 3.522110e-05 -1.392660e-04) (-6.527383e-05 2.746600e-06 -3.772961e-05)) ((-5.336623e-10 -6.158076e-09 -9.114727e-12) (1.173025e-07 2.493831e-06 2.493868e-08))
98.535949     	((-2.219061e-04 3.858759e-05 -1.378554e-04) (-6.524169e-05 3.019615e-06 -3.768362e-05)) ((-5.832963e-10 -6.157560e-09 -9.332505e-12) (1.286886e-07 2.493669e-06 2.698622e-08))
99.887561     	((-2.219856e-04 4.225613e-05 -1.365091e-04) (-6.521440e-05 3.319699e-06 -3.763688e-05)) ((-6.370453e-10 -6.158424e-09 -9.479961e-12) (1.411546e-07 2.493763e-06 2.915949e-08))
101.23921     	((-2.221469e-04 4.627248e-05 -1.352263e-04) (-6.519303e-05 3.649579e-06 -3.758894e-05)) ((-6.959179e-10 -6.160859e-09 -9.599479e-12) (1.548211e-07 2.494135e-06 3.145648e-08))
102.590767    	((-2.224051e-04 5.066532e-05 -1.340109e-04) (-6.518046e-05 4.011361e-06 -3.754015e-05)) ((-7.608734e-10 -6.164986e-09 -9.450861e-12) (1.697981e-07 2.494817e-06 3.388533e-08))
103.942098    	((-2.227946e-04 5.542631e-05 -1.328927e-04) (-6.517924e-05 4.407150e-06 -3.748943e-05)) ((-8.311346e-10 -6.171315e-09 -9.082163e-12) (1.861731e-07 2.495920e-06 3.646139e-08))
105.293091    	((-2.233351e-04 6.056420e-05 -1.318947e-04) (-6.519019e-05 4.838159e-06 -3.743649e-05)) ((-9.074674e-10 -6.179264e-09 -8.600145e-12) (2.040306e-07 2.497539e-06 3.920930e-08))
106.643625    	((-2.240331e-04 6.615723e-05 -1.310112e-04) (-6.521306e-05 5.307680e-06 -3.738330e-05)) ((-9.905900e-10 -6.188228e-09 -8.132109e-12) (2.234765e-07 2.499663e-06 4.216734e-08))
107.99285     	((-2.249355e-04 7.221935e-05 -1.303339e-04) (-6.525013e-05 5.816650e-06 -3.733042e-05)) ((-1.080558e-09 -6.199037e-09 -7.605039e-12) (2.446142e-07 2.502373e-06 4.546379e-08))
109.339498    	((-2.260600e-04 7.879428e-05 -1.298786e-04) (-6.530467e-05 6.367375e-06 -3.727845e-05)) ((-1.177369e-09 -6.211065e-09 -7.337144e-12) (2.675218e-07 2.505704e-06 4.911756e-08))
110.68332     	((-2.273828e-04 8.596096e-05 -1.295856e-04) (-6.537908e-05 6.966737e-06 -3.722961e-05)) ((-1.282647e-09 -6.223043e-09 -7.802595e-12) (2.923854e-07 2.509676e-06 5.300776e-08))
112.024062    	((-2.290789e-04 9.381010e-05 -1.295290e-04) (-6.548091e-05 7.622625e-06 -3.718359e-05)) ((-1.397589e-09 -6.238507e-09 -8.769861e-12) (3.195640e-07 2.514574e-06 5.714831e-08))
113.361446    	((-2.311414e-04 1.022922e-04 -1.297226e-04) (-6.561063e-05 8.335523e-06 -3.713945e-05)) ((-1.519987e-09 -6.256578e-09 -9.477487e-12) (3.491583e-07 2.520581e-06 6.173157e-08))
