# Forces      
# CofR        : (0.000000e+00 0.000000e+00 0.000000e+00)
# Time        forces(pressure viscous)	moments(pressure viscous)
0             	((0.000000e+00 0.000000e+00 0.000000e+00) (0.000000e+00 0.000000e+00 0.000000e+00)) ((0.000000e+00 0.000000e+00 0.000000e+00) (0.000000e+00 0.000000e+00 0.000000e+00))
0.012         	((1.089559e-09 -1.909707e-07 2.293539e-09) (2.825269e-11 -2.130174e-09 2.542353e-11)) ((1.395715e-11 2.267439e-13 2.652679e-09) (-4.047314e-11 -9.353848e-13 5.332474e-06))
0.0264        	((-1.341099e-09 6.880364e-08 -1.028149e-08) (3.804293e-11 -2.300346e-09 -1.769896e-11)) ((3.262139e-11 3.232445e-13 8.327258e-10) (-7.109574e-11 -5.362859e-13 4.668280e-06))
0.04368       	((1.826315e-09 -3.475204e-08 -1.636900e-08) (3.218454e-11 -1.503236e-09 -1.209606e-10)) ((-1.373501e-11 7.986308e-13 4.687165e-10) (-5.714688e-11 -9.389226e-13 4.041568e-06))
0.064416      	((3.950479e-09 -6.321090e-09 -3.475576e-08) (-4.347419e-11 -7.829473e-10 -5.798146e-11)) ((5.390925e-12 7.870697e-13 3.404912e-10) (-2.470977e-11 1.359542e-12 3.471075e-06))
0.0892992     	((5.484344e-09 -1.774508e-08 -5.212079e-08) (-1.909625e-10 -4.392139e-10 1.488734e-10)) ((-3.515247e-12 2.034113e-12 2.868364e-10) (-7.660714e-12 7.397784e-12 2.972518e-06))
0.119159      	((6.196804e-09 -5.034701e-09 -7.440642e-08) (-3.228750e-10 -3.893310e-10 9.683319e-10)) ((-2.035770e-12 2.418721e-12 2.352044e-10) (6.692930e-12 1.100209e-11 2.550204e-06))
0.154991      	((3.210919e-09 -1.721889e-08 -9.310705e-08) (-4.224551e-10 -3.237280e-10 3.017760e-09)) ((-2.679001e-12 1.910081e-12 1.915285e-10) (9.820042e-12 1.447810e-11 2.201021e-06))
0.197989      	((5.329480e-09 -1.360798e-08 -1.069103e-07) (-5.219693e-10 -2.484032e-10 6.890502e-09)) ((-2.754698e-12 1.956964e-12 1.592957e-10) (1.061594e-11 1.998887e-11 1.915818e-06))
0.249587      	((5.967711e-09 -1.488501e-08 -1.248472e-07) (-7.404093e-10 -7.260633e-11 1.245103e-08)) ((-2.605341e-12 2.499986e-12 1.385972e-10) (1.022564e-11 2.657815e-11 1.683388e-06))
0.311504      	((4.502870e-09 -1.528529e-08 -1.390068e-07) (-8.491431e-10 1.383954e-10 1.898758e-08)) ((-1.910190e-12 3.181933e-12 1.247632e-10) (7.226395e-12 3.323147e-11 1.491330e-06))
0.385805      	((6.659169e-09 -1.831410e-08 -1.559279e-07) (-9.590904e-10 2.522516e-10 2.654006e-08)) ((-5.453312e-13 3.403429e-12 1.114393e-10) (8.393737e-13 3.832623e-11 1.329983e-06))
0.474966      	((9.185696e-09 -1.716115e-08 -1.708486e-07) (-1.004803e-09 5.265494e-10 3.506554e-08)) ((1.867631e-13 3.284800e-12 1.003704e-10) (-4.294065e-12 4.610039e-11 1.192158e-06))
0.581959      	((1.327208e-08 -1.520975e-08 -1.884254e-07) (-6.884919e-10 7.361935e-10 4.468970e-08)) ((1.328592e-12 2.551768e-12 9.253685e-11) (-5.252707e-12 5.340777e-11 1.072573e-06))
0.710351      	((1.610592e-08 -1.433194e-08 -2.137097e-07) (-4.258458e-10 4.835071e-10 5.587746e-08)) ((2.068286e-12 2.627696e-12 8.593769e-11) (-2.500939e-12 5.095696e-11 9.674046e-07))
0.864421      	((1.577149e-08 -1.898616e-08 -2.414949e-07) (-5.446621e-10 5.440488e-10 6.934498e-08)) ((3.057341e-12 1.175136e-12 7.944322e-11) (1.741416e-12 4.395667e-11 8.740143e-07))
1.049306      	((1.740954e-08 -1.548378e-08 -2.732746e-07) (-1.028536e-09 1.049162e-09 8.536883e-08)) ((3.786915e-12 5.407513e-14 7.308590e-11) (6.779673e-12 3.731458e-11 7.908279e-07))
1.271167      	((1.373131e-08 -8.422244e-09 -3.038139e-07) (-1.666846e-09 1.771146e-09 1.034691e-07)) ((3.860522e-12 -1.241374e-12 6.761709e-11) (1.658113e-11 3.747283e-11 7.171001e-07))
1.5374        	((7.656183e-09 -7.191525e-09 -3.311786e-07) (-2.627217e-09 2.355217e-09 1.236102e-07)) ((3.736994e-12 -2.042236e-12 6.276445e-11) (3.013960e-11 5.296777e-11 6.524397e-07))
1.85688       	((4.031030e-09 -6.709505e-09 -3.587629e-07) (-3.548890e-09 2.606278e-09 1.453095e-07)) ((3.232547e-12 -2.081568e-12 5.832308e-11) (3.875111e-11 7.624196e-11 5.963584e-07))
2.240256      	((3.754919e-09 -5.252538e-09 -3.915776e-07) (-3.842641e-09 2.709064e-09 1.675123e-07)) ((3.021110e-12 -1.568757e-12 5.401404e-11) (4.266572e-11 9.263170e-11 5.479889e-07))
2.700307      	((-4.249444e-10 -5.686771e-09 -4.301572e-07) (-3.339583e-09 2.663150e-09 1.903866e-07)) ((2.425886e-12 -1.862619e-12 4.980401e-11) (4.425337e-11 1.055563e-10 5.060916e-07))
3.252369      	((-2.618712e-09 -8.249097e-09 -4.758738e-07) (-2.701962e-09 2.465205e-09 2.146167e-07)) ((2.209322e-12 -2.710326e-12 4.578911e-11) (3.702840e-11 1.131663e-10 4.693300e-07))
3.914842      	((-1.978057e-09 -1.008034e-08 -5.281550e-07) (-1.801153e-09 2.170147e-09 2.405605e-07)) ((1.673428e-12 -3.962939e-12 4.192291e-11) (2.140156e-11 1.179987e-10 4.365171e-07))
4.709811      	((-4.823869e-09 -1.175638e-08 -5.929106e-07) (-1.241826e-09 2.017618e-09 2.678889e-07)) ((1.112957e-12 -4.320791e-12 3.826837e-11) (5.796417e-13 1.169117e-10 4.067649e-07))
5.663773      	((-8.956591e-09 -8.373343e-09 -6.640381e-07) (-1.188139e-09 2.112811e-09 2.970451e-07)) ((5.004482e-13 -4.550018e-12 3.492933e-11) (-6.613004e-12 1.123461e-10 3.795163e-07))
6.808528      	((-1.012923e-08 -9.410152e-09 -7.387436e-07) (-1.134807e-09 2.123209e-09 3.283318e-07)) ((1.452456e-13 -4.698189e-12 3.199483e-11) (-3.420013e-12 1.057916e-10 3.544000e-07))
8.182233      	((-1.149717e-08 -8.371343e-09 -8.131417e-07) (-1.345427e-09 2.488929e-09 3.629817e-07)) ((-1.387794e-13 -5.109267e-12 2.941693e-11) (-1.798635e-12 1.147393e-10 3.311306e-07))
9.83068       	((-9.722792e-09 -8.009470e-09 -8.815984e-07) (-1.854965e-09 2.547216e-09 4.011036e-07)) ((-1.370078e-13 -5.637035e-12 2.704865e-11) (3.231728e-12 1.284401e-10 3.094960e-07))
11.808816     	((-5.423922e-09 -8.597065e-09 -9.584994e-07) (-2.277789e-09 2.651581e-09 4.430229e-07)) ((-8.426587e-14 -5.875087e-12 2.487658e-11) (9.889504e-12 1.276541e-10 2.894427e-07))
14.182579     	((-4.641906e-09 -5.408762e-09 -1.033765e-06) (-2.582812e-09 2.534782e-09 4.884777e-07)) ((-5.497699e-13 -6.203510e-12 2.280614e-11) (2.612780e-11 1.190434e-10 2.710099e-07))
17.031095     	((-6.033452e-09 -7.291150e-09 -1.110255e-06) (-2.429951e-09 2.529035e-09 5.359128e-07)) ((-4.929773e-13 -6.674590e-12 2.088069e-11) (3.039380e-11 9.919899e-11 2.542555e-07))
20.449314     	((-4.697878e-09 -6.962342e-09 -1.192687e-06) (-2.037577e-09 2.532004e-09 5.869002e-07)) ((-5.845689e-13 -6.928061e-12 1.917776e-11) (3.684197e-11 6.662827e-11 2.391882e-07))
24.551176     	((-4.741872e-09 -7.581431e-09 -1.270804e-06) (-1.611080e-09 2.566335e-09 6.408832e-07)) ((-7.807005e-13 -7.350576e-12 1.768242e-11) (5.066359e-11 4.046898e-11 2.257206e-07))
29.473411     	((-5.652641e-09 -7.677263e-09 -1.352893e-06) (-1.498876e-09 2.510122e-09 6.975881e-07)) ((-9.255767e-13 -7.679379e-12 1.639323e-11) (6.230621e-11 2.410685e-11 2.137133e-07))
35.380094     	((-5.374896e-09 -8.672614e-09 -1.438960e-06) (-1.407146e-09 2.256222e-09 7.570016e-07)) ((-1.151093e-12 -8.159304e-12 1.537653e-11) (6.512501e-11 1.944432e-11 2.029917e-07))
42.468112     	((-5.591025e-09 -8.612596e-09 -1.530716e-06) (-1.531696e-09 1.953363e-09 8.186858e-07)) ((-1.284458e-12 -8.576811e-12 1.447949e-11) (5.781210e-11 1.621123e-11 1.933802e-07))
50.973735     	((-4.474201e-09 -9.809171e-09 -1.618601e-06) (-1.624363e-09 1.552270e-09 8.829044e-07)) ((-1.282991e-12 -9.060797e-12 1.367510e-11) (3.923933e-11 9.191894e-12 1.847481e-07))
61.09421      	((-4.696345e-09 -9.822478e-09 -1.702843e-06) (-1.730336e-09 1.115510e-09 9.497031e-07)) ((-1.219253e-12 -9.551203e-12 1.300524e-11) (1.393431e-11 1.091324e-12 1.770389e-07))
72.829216     	((-4.043566e-09 -1.166937e-08 -1.785794e-06) (-1.762257e-09 5.824327e-10 1.017612e-06)) ((-1.000837e-12 -1.004844e-11 1.244084e-11) (-1.280993e-11 -1.289915e-11 1.702552e-07))
86.178387     	((-3.879282e-09 -1.181537e-08 -1.866858e-06) (-1.613468e-09 1.332609e-10 1.085555e-06)) ((-9.107457e-13 -1.051726e-11 1.194324e-11) (-3.936955e-11 -3.086020e-11 1.643781e-07))
101.141284    	((-2.280269e-09 -1.149155e-08 -1.942531e-06) (-1.227591e-09 -1.991709e-10 1.152824e-06)) ((-8.615694e-13 -1.105817e-11 1.148756e-11) (-5.892740e-11 -5.612852e-11 1.593803e-07))
117.273144    	((-1.088800e-09 -1.021648e-08 -2.011018e-06) (-6.300769e-10 -3.914196e-10 1.218487e-06)) ((-7.876870e-13 -1.165814e-11 1.107577e-11) (-6.959692e-11 -8.803010e-11 1.552392e-07))
133.398758    	((1.944441e-10 -9.032372e-09 -2.074118e-06) (1.571848e-10 -5.129452e-10 1.281855e-06)) ((-7.483223e-13 -1.219890e-11 1.069132e-11) (-6.578333e-11 -1.240610e-10 1.519369e-07))
149.517774    	((1.196306e-09 -7.298590e-09 -2.127179e-06) (8.170763e-10 -2.986903e-10 1.344017e-06)) ((-7.643851e-13 -1.279049e-11 1.033022e-11) (-4.275668e-11 -1.540388e-10 1.493543e-07))
165.629695    	((1.302033e-09 -6.050868e-09 -2.168033e-06) (1.448730e-09 1.766882e-10 1.404370e-06)) ((-7.672109e-13 -1.335359e-11 1.002480e-11) (-1.399363e-11 -1.722222e-10 1.474045e-07))
181.733907    	((4.175116e-10 -5.482450e-09 -2.199610e-06) (1.746520e-09 6.808076e-10 1.462319e-06)) ((-6.901233e-13 -1.389917e-11 9.760179e-12) (1.174964e-11 -1.766282e-10 1.460029e-07))
197.829851    	((-3.907596e-10 -4.925148e-09 -2.221712e-06) (1.778299e-09 1.171745e-09 1.517553e-06)) ((-6.546881e-13 -1.443258e-11 9.540714e-12) (3.561549e-11 -1.729728e-10 1.450859e-07))
213.917424    	((-1.559922e-09 -4.555345e-09 -2.237072e-06) (1.790627e-09 1.491353e-09 1.570541e-06)) ((-6.704346e-13 -1.495240e-11 9.382111e-12) (5.617271e-11 -1.640153e-10 1.445914e-07))
229.996516    	((-2.371993e-09 -4.293533e-09 -2.245926e-06) (1.511892e-09 1.752501e-09 1.621428e-06)) ((-6.935129e-13 -1.549336e-11 9.247726e-12) (7.362836e-11 -1.513425e-10 1.444659e-07))
246.066928    	((-3.106517e-09 -4.107491e-09 -2.248439e-06) (1.276397e-09 1.862898e-09 1.670008e-06)) ((-7.282820e-13 -1.609825e-11 9.140577e-12) (8.803272e-11 -1.393785e-10 1.446607e-07))
262.128427    	((-3.667784e-09 -4.178697e-09 -2.245555e-06) (1.092147e-09 1.846797e-09 1.716106e-06)) ((-7.191965e-13 -1.668234e-11 9.063898e-12) (9.837752e-11 -1.294291e-10 1.451347e-07))
278.181083    	((-3.815442e-09 -4.418071e-09 -2.238216e-06) (1.012681e-09 1.802455e-09 1.759203e-06)) ((-7.399328e-13 -1.722438e-11 9.059738e-12) (1.057635e-10 -1.221427e-10 1.458473e-07))
294.225007    	((-3.842206e-09 -4.654104e-09 -2.226869e-06) (1.066040e-09 1.733051e-09 1.798821e-06)) ((-7.869177e-13 -1.768258e-11 9.091540e-12) (1.126733e-10 -1.161957e-10 1.467614e-07))
310.260103    	((-3.845379e-09 -4.752711e-09 -2.212323e-06) (1.091851e-09 1.569263e-09 1.834474e-06)) ((-8.299349e-13 -1.811410e-11 9.144718e-12) (1.197670e-10 -1.105644e-10 1.478395e-07))
326.286607    	((-3.674672e-09 -4.582241e-09 -2.195203e-06) (1.155018e-09 1.503206e-09 1.865791e-06)) ((-8.591735e-13 -1.847877e-11 9.224002e-12) (1.278296e-10 -1.047511e-10 1.490407e-07))
342.304718    	((-3.862942e-09 -4.542591e-09 -2.176020e-06) (1.241178e-09 1.431272e-09 1.892460e-06)) ((-8.531980e-13 -1.877347e-11 9.322862e-12) (1.352420e-10 -9.655155e-11 1.503231e-07))
358.314399    	((-4.327445e-09 -4.512998e-09 -2.155041e-06) (1.236885e-09 1.454084e-09 1.914231e-06)) ((-8.585910e-13 -1.900315e-11 9.431146e-12) (1.414588e-10 -8.627234e-11 1.516463e-07))
374.31584     	((-4.824731e-09 -4.738321e-09 -2.133106e-06) (1.145806e-09 1.444010e-09 1.930994e-06)) ((-8.482552e-13 -1.914934e-11 9.543733e-12) (1.459984e-10 -7.529848e-11 1.529715e-07))
