# Forces      
# CofR        : (0.000000e+00 0.000000e+00 0.000000e+00)
# Time        forces(pressure viscous)	moments(pressure viscous)
0             	((0.000000e+00 0.000000e+00 0.000000e+00) (-6.169298e-11 -1.094972e-13 -6.329144e-06)) ((0.000000e+00 0.000000e+00 0.000000e+00) (1.223690e-14 -6.223595e-13 1.480762e-16))
0.012         	((-3.273573e-07 -1.562953e-07 -4.835852e-03) (-3.066797e-10 -1.481669e-10 -6.205580e-06)) ((2.439022e-11 -1.255570e-08 -6.280313e-13) (-1.161555e-11 2.292749e-11 -1.029423e-14))
0.0264        	((1.782057e-07 4.049612e-08 3.362839e-04) (-4.008147e-10 -1.837017e-10 -5.912695e-06)) ((-5.237636e-12 8.174239e-10 2.506334e-12) (-1.184795e-11 1.109910e-11 6.938084e-13))
0.04368       	((1.514535e-07 2.556670e-07 6.279964e-04) (-3.455030e-10 9.088903e-12 -5.348599e-06)) ((-1.558442e-11 1.352356e-09 -7.130961e-12) (7.184415e-12 -4.203083e-11 1.486086e-12))
0.064416      	((1.575274e-07 2.022287e-08 1.092733e-04) (-3.469729e-10 1.607970e-10 -4.809731e-06)) ((-1.266448e-12 4.387010e-10 -4.190331e-13) (2.348339e-11 -7.399938e-11 5.356137e-13))
0.0892992     	((4.093906e-08 1.027708e-08 5.920903e-05) (-1.698963e-10 2.353022e-10 -4.460148e-06)) ((-2.303093e-12 2.596203e-10 3.318019e-13) (2.784961e-11 -7.899591e-11 -3.349707e-13))
0.119159      	((9.873907e-09 5.280070e-09 4.817651e-05) (-2.538455e-11 2.929285e-10 -4.141301e-06)) ((-4.933467e-13 1.717739e-10 5.161102e-13) (2.642302e-11 -8.626581e-11 -4.629610e-13))
0.154991      	((-1.356381e-10 -3.452662e-09 2.697804e-05) (-7.142021e-12 2.819050e-10 -3.790094e-06)) ((-7.980384e-13 1.182104e-10 7.179892e-13) (2.340988e-11 -8.985237e-11 -8.530228e-13))
0.197989      	((3.636760e-09 -5.463072e-09 1.744428e-05) (3.939660e-11 2.546143e-10 -3.432386e-06)) ((-8.979055e-13 8.153594e-11 9.455915e-14) (2.018161e-11 -8.852090e-11 -1.061358e-12))
0.249587      	((4.046672e-09 -2.539687e-09 1.257263e-05) (4.826504e-11 2.110256e-10 -3.079132e-06)) ((-3.953565e-13 5.877760e-11 7.215478e-14) (1.590349e-11 -8.560346e-11 -9.586755e-13))
0.311504      	((1.043376e-09 -1.817116e-09 9.024220e-06) (1.365709e-11 1.542413e-10 -2.739222e-06)) ((-1.522502e-13 4.345786e-11 2.632728e-13) (1.237102e-11 -8.149583e-11 -7.010468e-13))
0.385805      	((-1.109789e-09 -7.815322e-10 6.465786e-06) (-1.978796e-11 9.969951e-11 -2.422001e-06)) ((-9.107125e-14 3.277640e-11 7.717854e-14) (9.822647e-12 -7.549828e-11 -4.933168e-13))
0.474966      	((-1.378335e-09 -5.163750e-10 4.672877e-06) (-2.343447e-11 6.507607e-11 -2.135288e-06)) ((-9.427034e-14 2.536058e-11 1.324748e-13) (8.456369e-12 -7.025006e-11 -3.307317e-13))
0.581959      	((-3.462270e-10 -1.118771e-10 3.409528e-06) (-3.440928e-11 4.689721e-11 -1.882965e-06)) ((-7.175381e-14 2.003950e-11 2.794909e-14) (8.033697e-12 -6.254708e-11 -2.665513e-13))
0.710351      	((2.193506e-10 1.761944e-10 2.497712e-06) (3.293936e-12 3.394854e-11 -1.666571e-06)) ((-8.422286e-14 1.606152e-11 2.985623e-14) (7.879794e-12 -5.739533e-11 -2.637428e-13))
0.864421      	((1.767972e-10 7.489460e-10 1.831841e-06) (7.491388e-11 4.283645e-11 -1.484393e-06)) ((-1.217071e-13 1.301067e-11 1.207458e-14) (8.200629e-12 -5.178335e-11 -2.530601e-13))
1.049306      	((4.122695e-10 7.289303e-10 1.344741e-06) (1.398652e-10 5.651088e-11 -1.331551e-06)) ((-1.238653e-13 1.088700e-11 7.297114e-15) (8.388419e-12 -4.621557e-11 -2.383111e-13))
1.271167      	((5.979547e-10 1.048461e-09 9.906949e-07) (1.715425e-10 5.583358e-11 -1.202914e-06)) ((-1.665743e-13 9.284761e-12 1.833354e-14) (7.981458e-12 -4.072927e-11 -2.203344e-13))
1.5374        	((1.564455e-09 1.839353e-09 7.275292e-07) (1.780299e-10 6.293586e-11 -1.093764e-06)) ((-2.716411e-13 8.164720e-12 8.695474e-15) (7.870883e-12 -3.614398e-11 -2.249993e-13))
1.85688       	((2.090961e-09 2.529113e-09 5.364875e-07) (1.647791e-10 7.392790e-11 -9.994880e-07)) ((-3.588340e-13 7.294980e-12 1.597289e-14) (8.803961e-12 -3.299636e-11 -1.858552e-13))
2.240256      	((3.850196e-09 4.199465e-09 3.970765e-07) (1.727321e-10 9.552570e-11 -9.168916e-07)) ((-6.095179e-13 6.859104e-12 -6.454819e-16) (1.205822e-11 -3.277383e-11 -1.697176e-13))
2.700307      	((4.081392e-09 4.398686e-09 2.932385e-07) (2.022127e-10 1.433975e-10 -8.437242e-07)) ((-7.031542e-13 6.427342e-12 -7.955896e-15) (1.705355e-11 -3.411909e-11 -1.706296e-13))
3.252369      	((3.989583e-09 4.196287e-09 2.145637e-07) (2.335293e-10 1.941409e-10 -7.780937e-07)) ((-7.315561e-13 6.004935e-12 -1.181751e-14) (2.202403e-11 -3.588709e-11 -1.629220e-13))
3.914842      	((3.024097e-09 3.236487e-09 1.533069e-07) (2.570110e-10 2.193010e-10 -7.189122e-07)) ((-6.543934e-13 5.575815e-12 -2.150697e-16) (2.564563e-11 -3.738837e-11 -1.519764e-13))
4.709811      	((1.961968e-09 1.903804e-09 1.027388e-07) (2.371921e-10 2.195949e-10 -6.651277e-07)) ((-5.143201e-13 5.159972e-12 1.110949e-14) (2.743302e-11 -3.704637e-11 -1.737370e-13))
5.663773      	((5.837561e-10 6.311571e-10 6.009879e-08) (1.858328e-10 1.929584e-10 -6.158764e-07)) ((-3.425979e-13 4.721076e-12 2.130235e-14) (2.807721e-11 -3.618808e-11 -1.880290e-13))
6.808528      	((-6.543257e-10 -5.724189e-10 2.548761e-08) (1.511809e-10 1.559018e-10 -5.708378e-07)) ((-1.506422e-13 4.286381e-12 2.340728e-14) (2.684000e-11 -3.431323e-11 -1.403544e-13))
8.182233      	((-6.552769e-10 -4.806973e-10 -1.932112e-09) (1.199386e-10 1.219294e-10 -5.305606e-07)) ((-7.741961e-14 4.012046e-12 2.414650e-14) (2.460959e-11 -3.142323e-11 -1.460487e-13))
9.83068       	((-3.033654e-10 -1.776230e-10 -2.241324e-08) (1.154375e-10 1.128388e-10 -4.950341e-07)) ((-6.434035e-14 3.834344e-12 2.641217e-14) (2.266541e-11 -2.831921e-11 -1.704067e-13))
11.808816     	((-9.793672e-11 5.669353e-11 -3.690481e-08) (1.248913e-10 1.129049e-10 -4.637961e-07)) ((-6.510880e-14 3.723611e-12 3.315695e-14) (2.037991e-11 -2.491246e-11 -2.051865e-13))
14.182579     	((-3.377004e-11 9.592068e-11 -4.699820e-08) (1.235493e-10 1.128643e-10 -4.365434e-07)) ((-5.969935e-14 3.623799e-12 2.465479e-14) (1.837948e-11 -2.136815e-11 -2.256657e-13))
17.031095     	((-1.894741e-10 -1.686873e-11 -5.429022e-08) (1.089634e-10 1.031164e-10 -4.127536e-07)) ((-5.032217e-14 3.536201e-12 2.733535e-14) (1.618265e-11 -1.786561e-11 -2.239083e-13))
20.449314     	((-7.206942e-11 8.291916e-11 -5.933790e-08) (8.664061e-11 8.321840e-11 -3.919426e-07)) ((-6.379944e-14 3.497671e-12 2.615038e-14) (1.367003e-11 -1.449999e-11 -1.608049e-13))
24.551176     	((-2.426741e-10 -9.548697e-11 -6.405508e-08) (6.340075e-11 6.117731e-11 -3.736852e-07)) ((-4.635053e-14 3.425077e-12 1.925835e-14) (1.180782e-11 -1.199689e-11 -1.620122e-13))
29.473411     	((-7.057028e-10 -5.416054e-10 -6.775992e-08) (4.788804e-11 4.255880e-11 -3.575585e-07)) ((1.638291e-14 3.309225e-12 1.924840e-14) (1.037624e-11 -1.028858e-11 -1.307897e-13))
35.380094     	((-3.800386e-10 -2.692396e-10 -7.011389e-08) (5.560109e-11 4.163060e-11 -3.431462e-07)) ((4.982386e-14 3.214713e-12 2.056401e-14) (1.058994e-11 -1.071386e-11 -6.520446e-14))
42.468112     	((-3.652135e-10 -2.279932e-10 -7.185651e-08) (6.315991e-11 4.750845e-11 -3.301243e-07)) ((6.544656e-14 3.134920e-12 2.010156e-14) (1.143119e-11 -1.181378e-11 -4.320640e-14))
50.973735     	((-3.040714e-10 -1.817053e-10 -7.351309e-08) (7.429543e-11 5.922582e-11 -3.183668e-07)) ((7.450009e-14 3.062841e-12 1.709366e-14) (1.287478e-11 -1.334884e-11 -1.234662e-13))
61.180482     	((-2.387948e-11 7.203758e-11 -7.504259e-08) (1.070275e-10 8.467677e-11 -3.078735e-07)) ((8.357030e-14 2.996374e-12 1.548327e-14) (1.510862e-11 -1.528313e-11 -1.626383e-13))
73.428578     	((7.599641e-11 1.386065e-10 -7.686997e-08) (1.360708e-10 1.083843e-10 -2.986084e-07)) ((9.783080e-14 2.932254e-12 1.224233e-14) (1.657667e-11 -1.652602e-11 -1.654650e-13))
88.126294     	((1.481356e-10 1.845446e-10 -7.885606e-08) (1.611002e-10 1.257016e-10 -2.904745e-07)) ((1.016787e-13 2.889450e-12 1.023526e-14) (1.764090e-11 -1.753276e-11 -1.665640e-13))
105.763553    	((1.838106e-10 2.132350e-10 -8.092736e-08) (1.817926e-10 1.413510e-10 -2.833979e-07)) ((1.034475e-13 2.855565e-12 8.120820e-15) (1.864513e-11 -1.866376e-11 -1.535992e-13))
126.928263    	((1.774289e-10 1.984102e-10 -8.297802e-08) (1.995252e-10 1.545476e-10 -2.772819e-07)) ((1.059222e-13 2.827596e-12 6.183453e-15) (1.970982e-11 -1.988866e-11 -1.389123e-13))
152.325916    	((2.382073e-10 2.503986e-10 -8.445965e-08) (2.141143e-10 1.665663e-10 -2.720237e-07)) ((1.071089e-13 2.806639e-12 7.050112e-15) (2.067642e-11 -2.107672e-11 -1.169992e-13))
182.803099    	((2.317866e-10 2.529511e-10 -8.536505e-08) (2.224462e-10 1.750392e-10 -2.675095e-07)) ((1.087862e-13 2.789266e-12 5.843865e-15) (2.144678e-11 -2.194669e-11 -1.075503e-13))
219.375719    	((1.664943e-10 2.012328e-10 -8.569286e-08) (2.239130e-10 1.779943e-10 -2.636127e-07)) ((1.114218e-13 2.775035e-12 6.630680e-15) (2.188785e-11 -2.228652e-11 -9.214292e-14))
263.262863    	((1.303102e-10 1.608330e-10 -8.548621e-08) (2.228705e-10 1.794216e-10 -2.602405e-07)) ((1.144700e-13 2.765300e-12 6.175425e-15) (2.211645e-11 -2.243699e-11 -5.769139e-14))
315.927436    	((6.968464e-11 1.002352e-10 -8.495726e-08) (2.204821e-10 1.787784e-10 -2.573338e-07)) ((1.181838e-13 2.758517e-12 5.887307e-15) (2.225438e-11 -2.246157e-11 -2.744322e-14))
379.124923    	((2.770707e-11 6.367352e-11 -8.402821e-08) (2.157865e-10 1.757282e-10 -2.548386e-07)) ((1.211934e-13 2.754689e-12 6.236513e-15) (2.221803e-11 -2.229964e-11 -2.294711e-15))
454.961908    	((-7.671594e-13 3.824075e-11 -8.299340e-08) (2.121995e-10 1.737751e-10 -2.527215e-07)) ((1.224022e-13 2.754205e-12 6.339922e-15) (2.216466e-11 -2.218293e-11 1.827493e-14))
545.966289    	((-3.780080e-11 3.990140e-12 -8.188618e-08) (2.104740e-10 1.736877e-10 -2.509380e-07)) ((1.239464e-13 2.754426e-12 6.918522e-15) (2.223315e-11 -2.220788e-11 2.627033e-14))
655.171547    	((-5.539538e-11 -1.035802e-11 -8.083274e-08) (2.105588e-10 1.750728e-10 -2.494481e-07)) ((1.260651e-13 2.754558e-12 6.834340e-15) (2.242177e-11 -2.233638e-11 4.023185e-14))
786.217856    	((-5.993736e-11 -1.364500e-11 -7.984275e-08) (2.121264e-10 1.767869e-10 -2.482186e-07)) ((1.280793e-13 2.755053e-12 6.404226e-15) (2.256672e-11 -2.246867e-11 4.423795e-14))
942.558609    	((-5.986054e-11 -1.014555e-11 -7.906861e-08) (2.131948e-10 1.776052e-10 -2.472190e-07)) ((1.304030e-13 2.754880e-12 6.087637e-15) (2.261173e-11 -2.250456e-11 4.165955e-14))
1124.179536   	((-4.577916e-11 4.874260e-12 -7.846342e-08) (2.130500e-10 1.771999e-10 -2.464247e-07)) ((1.325011e-13 2.754826e-12 6.054751e-15) (2.257958e-11 -2.245765e-11 3.868356e-14))
1331.069437   	((-2.638167e-11 2.455148e-11 -7.796494e-08) (2.121315e-10 1.760634e-10 -2.458056e-07)) ((1.343935e-13 2.754808e-12 6.059890e-15) (2.253754e-11 -2.239151e-11 3.255185e-14))
1563.219754   	((-7.117923e-12 4.365380e-11 -7.761587e-08) (2.110428e-10 1.748030e-10 -2.453321e-07)) ((1.359269e-13 2.754539e-12 5.673790e-15) (2.253810e-11 -2.236819e-11 2.486586e-14))
1815.75783    	((1.016710e-11 5.968231e-11 -7.739026e-08) (2.098218e-10 1.734917e-10 -2.449774e-07)) ((1.370171e-13 2.754351e-12 5.539681e-15) (2.255928e-11 -2.238304e-11 2.044645e-14))
2068.245439   	((2.208382e-11 7.094329e-11 -7.730595e-08) (2.085603e-10 1.722762e-10 -2.447189e-07)) ((1.376754e-13 2.754234e-12 5.253372e-15) (2.260616e-11 -2.242286e-11 1.762776e-14))
2320.698484   	((2.955430e-11 7.874658e-11 -7.726378e-08) (2.074377e-10 1.712224e-10 -2.445308e-07)) ((1.383459e-13 2.754024e-12 5.137640e-15) (2.266405e-11 -2.247358e-11 1.318480e-14))
2573.126961   	((3.435020e-11 8.423454e-11 -7.726625e-08) (2.065958e-10 1.703502e-10 -2.443945e-07)) ((1.389579e-13 2.753815e-12 4.990943e-15) (2.271130e-11 -2.251392e-11 1.045082e-14))
2825.538027   	((3.766816e-11 8.798128e-11 -7.729542e-08) (2.059367e-10 1.697533e-10 -2.442952e-07)) ((1.393978e-13 2.753555e-12 4.990996e-15) (2.274666e-11 -2.254136e-11 1.052686e-14))
3077.936583   	((3.952352e-11 9.055901e-11 -7.734667e-08) (2.053698e-10 1.693317e-10 -2.442231e-07)) ((1.397332e-13 2.753267e-12 5.018769e-15) (2.277177e-11 -2.255867e-11 1.121866e-14))
3330.326048   	((4.005579e-11 9.150877e-11 -7.740649e-08) (2.048875e-10 1.689828e-10 -2.441705e-07)) ((1.400121e-13 2.752935e-12 5.086235e-15) (2.278911e-11 -2.257061e-11 1.199543e-14))
3582.708872   	((3.893619e-11 9.074194e-11 -7.746922e-08) (2.043988e-10 1.686331e-10 -2.441321e-07)) ((1.402153e-13 2.752633e-12 5.130507e-15) (2.279944e-11 -2.257881e-11 1.281427e-14))
3835.086822   	((3.647384e-11 8.840776e-11 -7.753555e-08) (2.039107e-10 1.682425e-10 -2.441041e-07)) ((1.403819e-13 2.752345e-12 5.141724e-15) (2.280485e-11 -2.258179e-11 1.364022e-14))
4087.461185   	((3.297327e-11 8.494386e-11 -7.758177e-08) (2.034586e-10 1.678626e-10 -2.440836e-07)) ((1.404816e-13 2.752176e-12 5.153263e-15) (2.280859e-11 -2.258537e-11 1.447011e-14))
4339.832893   	((2.867491e-11 8.067885e-11 -7.763110e-08) (2.030558e-10 1.675051e-10 -2.440686e-07)) ((1.405271e-13 2.752029e-12 5.170303e-15) (2.281112e-11 -2.258803e-11 1.497045e-14))
4592.202637   	((2.440081e-11 7.633494e-11 -7.768776e-08) (2.027662e-10 1.672058e-10 -2.440576e-07)) ((1.405175e-13 2.751875e-12 5.234035e-15) (2.281325e-11 -2.258947e-11 1.531670e-14))
4844.570927   	((2.032885e-11 7.217075e-11 -7.773166e-08) (2.025413e-10 1.669732e-10 -2.440495e-07)) ((1.405025e-13 2.751754e-12 5.289557e-15) (2.281603e-11 -2.259189e-11 1.591928e-14))
5096.938129   	((1.637067e-11 6.821867e-11 -7.776554e-08) (2.023706e-10 1.668054e-10 -2.440436e-07)) ((1.404954e-13 2.751661e-12 5.313515e-15) (2.281836e-11 -2.259384e-11 1.638060e-14))
5349.304522   	((1.246868e-11 6.447365e-11 -7.779895e-08) (2.022244e-10 1.666610e-10 -2.440391e-07)) ((1.405174e-13 2.751576e-12 5.237931e-15) (2.281995e-11 -2.259491e-11 1.666725e-14))
5601.670323   	((8.640013e-12 6.077623e-11 -7.782847e-08) (2.020950e-10 1.665248e-10 -2.440358e-07)) ((1.405493e-13 2.751497e-12 5.134287e-15) (2.282148e-11 -2.259583e-11 1.717289e-14))
