# Forces      
# CofR        : (0.000000e+00 0.000000e+00 0.000000e+00)
# Time        forces(pressure viscous)	moments(pressure viscous)
0             	((0.000000e+00 0.000000e+00 0.000000e+00) (-1.608730e-03 4.538266e-13 -1.564062e-08)) ((0.000000e+00 0.000000e+00 0.000000e+00) (-3.521984e-15 3.614627e-05 -9.200848e-15))
0.012         	((-4.644269e-01 -4.232346e-07 4.550404e-02) (-1.841278e-03 1.552305e-12 -1.804832e-05)) ((2.606670e-11 -6.256671e-06 6.391823e-11) (-1.363019e-10 5.374447e-05 -1.070721e-11))
0.0264        	((6.257675e-02 -1.217193e-06 -1.138971e-02) (-1.850765e-03 1.151432e-10 -2.775887e-05)) ((2.789133e-10 7.850191e-07 1.524961e-10) (-3.254662e-10 5.962310e-05 -1.083385e-10))
0.04368       	((8.031436e-02 1.577710e-06 -6.950568e-03) (-1.614696e-03 1.036431e-09 -2.757414e-05)) ((-1.259479e-10 1.259129e-06 -2.080101e-10) (-3.811518e-10 5.283020e-05 -1.124700e-10))
0.064416      	((3.004909e-04 -2.113517e-07 -6.732113e-03) (-1.421732e-03 -1.571046e-09 -3.078259e-05)) ((-3.529837e-11 -2.049083e-08 -4.789636e-11) (-2.829104e-10 4.787730e-05 -1.500755e-10))
0.0892992     	((5.110117e-04 1.337621e-08 -5.554864e-03) (-1.307878e-03 -1.589457e-08 -3.799188e-05)) ((-2.941624e-11 -2.045339e-08 -4.415144e-11) (-1.931320e-10 4.531235e-05 5.907264e-11))
0.119159      	((1.006894e-03 -7.098789e-07 -4.874644e-03) (-1.211014e-03 -3.363423e-08 -4.484989e-05)) ((6.808024e-12 2.522786e-08 -7.934376e-11) (-2.336754e-10 4.258795e-05 7.712187e-10))
0.154991      	((1.058133e-04 -8.754714e-07 -4.537797e-03) (-1.117822e-03 -4.011701e-08 -5.051123e-05)) ((3.455854e-11 1.170073e-08 -1.373743e-10) (-3.360987e-10 3.984308e-05 1.208027e-09))
0.197989      	((-1.696461e-04 -4.861739e-07 -4.285862e-03) (-1.033023e-03 -3.695196e-08 -5.562209e-05)) ((4.183844e-11 7.168178e-09 -9.595179e-11) (-4.570685e-10 3.724669e-05 1.154244e-09))
0.249587      	((-2.892631e-04 -1.800806e-07 -4.127786e-03) (-9.587933e-04 -3.153214e-08 -6.087804e-05)) ((3.021368e-11 5.239064e-09 -9.405595e-11) (-5.653968e-10 3.484092e-05 9.530573e-10))
0.311504      	((-3.680811e-04 -2.215959e-07 -4.026812e-03) (-8.942662e-04 -2.583043e-08 -6.651237e-05)) ((4.618269e-11 3.260173e-09 -5.335386e-11) (-6.849891e-10 3.263467e-05 7.639442e-10))
0.385805      	((-4.124900e-04 -7.753109e-08 -3.954979e-03) (-8.367863e-04 -2.072333e-08 -7.284288e-05)) ((3.772391e-11 1.122553e-09 -3.319874e-11) (-8.206330e-10 3.058985e-05 5.946551e-10))
0.474966      	((-4.362082e-04 2.103836e-08 -3.901574e-03) (-7.828887e-04 -1.420988e-08 -8.028250e-05)) ((2.536901e-11 -9.549346e-10 -2.084437e-11) (-9.183962e-10 2.862343e-05 4.188108e-10))
0.581959      	((-4.501791e-04 6.428652e-08 -3.857184e-03) (-7.302657e-04 -1.116182e-08 -8.889097e-05)) ((1.489583e-11 -3.054498e-09 -9.028126e-12) (-9.664795e-10 2.668042e-05 3.051430e-10))
0.710351      	((-4.635058e-04 5.387625e-08 -3.818410e-03) (-6.791181e-04 -9.731853e-09 -9.853053e-05)) ((8.747620e-12 -5.302786e-09 -6.236932e-12) (-9.949318e-10 2.478086e-05 2.618992e-10))
0.864421      	((-4.824705e-04 8.768725e-08 -3.781427e-03) (-6.306644e-04 -6.559259e-09 -1.092027e-04)) ((2.898299e-12 -7.684914e-09 -6.210010e-12) (-9.734321e-10 2.296992e-05 2.400250e-10))
1.049306      	((-5.129359e-04 1.376900e-08 -3.744248e-03) (-5.858387e-04 -8.003899e-09 -1.207622e-04)) ((4.823855e-12 -1.013533e-08 -5.162932e-12) (-9.315131e-10 2.128126e-05 2.063081e-10))
1.271167      	((-5.567483e-04 -1.311981e-07 -3.703935e-03) (-5.451422e-04 -1.251341e-08 -1.327230e-04)) ((6.137770e-12 -1.273863e-08 -5.042963e-12) (-9.362357e-10 1.973903e-05 1.614459e-10))
1.5374        	((-6.172116e-04 -1.515752e-07 -3.658780e-03) (-5.089280e-04 -1.436014e-08 -1.444037e-04)) ((5.363997e-12 -1.558739e-08 -5.117461e-12) (-9.668069e-10 1.836575e-05 2.000547e-10))
1.853916      	((-6.975847e-04 -1.289590e-07 -3.610437e-03) (-4.775807e-04 -1.579039e-08 -1.551725e-04)) ((3.758115e-12 -1.877259e-08 -5.573120e-12) (-9.801719e-10 1.718125e-05 2.557052e-10))
2.220268      	((-7.980083e-04 -1.375074e-07 -3.559840e-03) (-4.513563e-04 -1.758462e-08 -1.646490e-04)) ((2.856243e-12 -2.214787e-08 -6.284336e-12) (-9.527342e-10 1.619507e-05 3.117222e-10))
2.636054      	((-9.172266e-04 -2.749437e-08 -3.506638e-03) (-4.297056e-04 -1.843592e-08 -1.730690e-04)) ((-2.389305e-12 -2.542074e-08 -6.796271e-12) (-8.496574e-10 1.537827e-05 3.966955e-10))
3.100804      	((-1.054221e-03 1.240193e-07 -3.448172e-03) (-4.119364e-04 -2.168611e-08 -1.806424e-04)) ((1.512732e-13 -2.834200e-08 -8.345858e-12) (-7.557074e-10 1.469361e-05 5.478412e-10))
3.584665      	((-1.200239e-03 5.197965e-07 -3.381688e-03) (-3.981101e-04 -1.953362e-08 -1.866539e-04)) ((5.504273e-12 -3.072379e-08 -1.038016e-11) (-7.350622e-10 1.414140e-05 6.428881e-10))
4.06172       	((-1.341330e-03 2.958069e-07 -3.302770e-03) (-3.875464e-04 -8.503102e-09 -1.904636e-04)) ((1.835368e-11 -3.272578e-08 -2.039925e-11) (-7.800869e-10 1.371006e-05 4.905413e-10))
4.531809      	((-1.471590e-03 1.600127e-07 -3.214761e-03) (-3.793467e-04 1.857877e-09 -1.922481e-04)) ((3.114428e-11 -3.457534e-08 -3.320059e-11) (-9.808015e-10 1.337488e-05 -6.271753e-11))
4.996428      	((-1.580472e-03 3.499597e-07 -3.121008e-03) (-3.730567e-04 1.606121e-08 -1.923395e-04)) ((3.750915e-11 -3.656503e-08 -3.289809e-11) (-1.114474e-09 1.312451e-05 -8.346531e-10))
5.45815       	((-1.658857e-03 5.301676e-07 -3.020856e-03) (-3.680536e-04 3.512333e-08 -1.914095e-04)) ((2.000943e-11 -3.848810e-08 -1.351906e-11) (-1.018783e-09 1.293508e-05 -1.681991e-09))
5.91915       	((-1.707163e-03 6.199194e-07 -2.918563e-03) (-3.635622e-04 5.776818e-08 -1.900451e-04)) ((9.405979e-12 -4.043368e-08 -3.973849e-12) (-7.264455e-10 1.277837e-05 -2.726311e-09))
6.379928      	((-1.725588e-03 1.698389e-06 -2.811594e-03) (-3.592129e-04 9.310994e-08 -1.885300e-04)) ((-1.839492e-11 -4.231728e-08 1.049681e-11) (2.098542e-11 1.264078e-05 -3.730009e-09))
6.839737      	((-1.712293e-03 2.167328e-06 -2.704717e-03) (-3.550426e-04 1.259140e-07 -1.869174e-04)) ((-5.098570e-11 -4.342973e-08 2.913418e-11) (1.046295e-09 1.252225e-05 -4.030614e-09))
7.297783      	((-1.681782e-03 1.950025e-06 -2.610324e-03) (-3.510762e-04 1.357389e-07 -1.852783e-04)) ((-5.222541e-11 -4.396013e-08 1.708363e-11) (1.752205e-09 1.242146e-05 -3.718420e-09))
7.753801      	((-1.649666e-03 1.501222e-06 -2.530570e-03) (-3.475793e-04 1.335971e-07 -1.835813e-04)) ((-3.520577e-11 -4.404344e-08 -3.814436e-12) (2.183743e-09 1.234618e-05 -3.421648e-09))
8.20797       	((-1.620432e-03 1.443032e-06 -2.458547e-03) (-3.446464e-04 1.285638e-07 -1.817918e-04)) ((-3.442775e-11 -4.388962e-08 -9.800561e-12) (2.604445e-09 1.229500e-05 -3.133953e-09))
8.660698      	((-1.600285e-03 1.819931e-06 -2.390234e-03) (-3.421771e-04 1.237940e-07 -1.800846e-04)) ((-2.647065e-11 -4.346993e-08 -1.246858e-11) (3.104410e-09 1.225538e-05 -2.579043e-09))
9.11232       	((-1.591545e-03 2.096373e-06 -2.322689e-03) (-3.400399e-04 1.215571e-07 -1.785192e-04)) ((-1.274109e-12 -4.308853e-08 -2.145416e-11) (3.540729e-09 1.222008e-05 -1.604572e-09))
9.562966      	((-1.589260e-03 2.131864e-06 -2.264173e-03) (-3.381116e-04 1.162935e-07 -1.771784e-04)) ((1.187932e-11 -4.258167e-08 -2.333196e-11) (3.743793e-09 1.218259e-05 -5.565655e-10))
10.012668     	((-1.588493e-03 2.686079e-06 -2.213732e-03) (-3.363583e-04 1.165230e-07 -1.761181e-04)) ((3.397736e-12 -4.221521e-08 -1.169736e-11) (3.969136e-09 1.214142e-05 2.518578e-10))
10.461474     	((-1.583253e-03 3.036163e-06 -2.168354e-03) (-3.347169e-04 1.265614e-07 -1.752861e-04)) ((2.174500e-12 -4.195122e-08 9.018394e-13) (4.442622e-09 1.209818e-05 7.175435e-10))
10.909489     	((-1.569638e-03 3.634342e-06 -2.124642e-03) (-3.330591e-04 1.413957e-07 -1.746704e-04)) ((-1.524540e-11 -4.159339e-08 9.327443e-12) (5.127241e-09 1.205110e-05 1.138348e-09))
11.356813     	((-1.551270e-03 4.181859e-06 -2.081104e-03) (-3.313117e-04 1.582567e-07 -1.742607e-04)) ((-2.191462e-11 -4.119211e-08 8.960514e-12) (5.860766e-09 1.199900e-05 1.633200e-09))
11.803535     	((-1.533435e-03 4.723699e-06 -2.038902e-03) (-3.295205e-04 1.765613e-07 -1.739760e-04)) ((-3.199841e-11 -4.090008e-08 5.487419e-12) (6.740529e-09 1.194520e-05 2.138556e-09))
12.249725     	((-1.517589e-03 5.068038e-06 -1.999421e-03) (-3.277619e-04 1.941366e-07 -1.737560e-04)) ((-3.907621e-11 -4.064349e-08 -3.992297e-12) (7.767353e-09 1.189277e-05 2.883036e-09))
12.695433     	((-1.505401e-03 5.675286e-06 -1.960918e-03) (-3.261144e-04 2.124455e-07 -1.735652e-04)) ((-4.219625e-11 -4.043608e-08 -1.392074e-11) (8.796615e-09 1.184424e-05 3.847915e-09))
13.140714     	((-1.496909e-03 6.322061e-06 -1.923544e-03) (-3.246053e-04 2.345531e-07 -1.733751e-04)) ((-4.839118e-11 -4.025759e-08 -2.028101e-11) (9.966834e-09 1.180032e-05 4.630117e-09))
13.585618     	((-1.492494e-03 7.088688e-06 -1.887853e-03) (-3.232082e-04 2.581862e-07 -1.731817e-04)) ((-5.996800e-11 -4.015521e-08 -1.980632e-11) (1.129737e-08 1.175990e-05 5.393475e-09))
14.030178     	((-1.488307e-03 7.936782e-06 -1.852176e-03) (-3.218732e-04 2.867054e-07 -1.729816e-04)) ((-8.126881e-11 -4.010361e-08 -1.056029e-11) (1.282555e-08 1.172168e-05 6.176099e-09))
14.474392     	((-1.484506e-03 8.726413e-06 -1.818028e-03) (-3.205810e-04 3.222871e-07 -1.727693e-04)) ((-1.120422e-10 -4.010958e-08 -2.693893e-12) (1.456585e-08 1.168543e-05 6.872305e-09))
14.918276     	((-1.479845e-03 9.169036e-06 -1.785137e-03) (-3.193293e-04 3.559405e-07 -1.725531e-04)) ((-1.387920e-10 -4.013434e-08 2.536187e-12) (1.632426e-08 1.165099e-05 7.630915e-09))
15.361816     	((-1.474046e-03 9.829991e-06 -1.753126e-03) (-3.181144e-04 3.857491e-07 -1.723381e-04)) ((-1.660492e-10 -4.015567e-08 2.780488e-12) (1.802797e-08 1.161801e-05 8.479339e-09))
15.805007     	((-1.468608e-03 1.045020e-05 -1.722271e-03) (-3.169535e-04 4.172361e-07 -1.721088e-04)) ((-1.924677e-10 -4.019598e-08 2.481238e-12) (1.972393e-08 1.158738e-05 9.249725e-09))
16.247916     	((-1.461870e-03 1.120668e-05 -1.691488e-03) (-3.158453e-04 4.600807e-07 -1.718743e-04)) ((-2.232400e-10 -4.018030e-08 1.676318e-12) (2.154928e-08 1.155881e-05 9.440675e-09))
16.690586     	((-1.456710e-03 1.195625e-05 -1.662346e-03) (-3.148123e-04 5.138388e-07 -1.716153e-04)) ((-2.445882e-10 -4.018485e-08 -1.323334e-12) (2.364243e-08 1.153347e-05 9.315836e-09))
17.133029     	((-1.451989e-03 1.269350e-05 -1.634098e-03) (-3.138671e-04 5.661171e-07 -1.713290e-04)) ((-2.577524e-10 -4.014664e-08 -5.391608e-12) (2.575905e-08 1.151174e-05 9.424286e-09))
17.57526      	((-1.445981e-03 1.362478e-05 -1.605534e-03) (-3.129650e-04 6.150677e-07 -1.710414e-04)) ((-2.724098e-10 -4.005163e-08 -9.025491e-12) (2.783782e-08 1.149133e-05 9.870182e-09))
18.017272     	((-1.441501e-03 1.475102e-05 -1.577830e-03) (-3.121004e-04 6.618877e-07 -1.707596e-04)) ((-2.915948e-10 -3.995332e-08 -1.205623e-11) (3.007929e-08 1.147155e-05 1.086474e-08))
18.459111     	((-1.436952e-03 1.576974e-05 -1.550357e-03) (-3.112688e-04 7.048996e-07 -1.704873e-04)) ((-3.100517e-10 -3.984395e-08 -1.405903e-11) (3.250402e-08 1.145189e-05 1.224819e-08))
18.900818     	((-1.432293e-03 1.683482e-05 -1.523432e-03) (-3.104448e-04 7.525737e-07 -1.702237e-04)) ((-3.257793e-10 -3.974001e-08 -1.438730e-11) (3.523368e-08 1.143139e-05 1.338862e-08))
19.342383     	((-1.427745e-03 1.832505e-05 -1.497546e-03) (-3.096255e-04 8.147590e-07 -1.699697e-04)) ((-3.503520e-10 -3.962436e-08 -1.457820e-11) (3.853830e-08 1.140988e-05 1.418272e-08))
19.783807     	((-1.422318e-03 1.998293e-05 -1.472073e-03) (-3.087966e-04 8.922757e-07 -1.697339e-04)) ((-3.754410e-10 -3.949373e-08 -1.362797e-11) (4.245986e-08 1.138709e-05 1.488563e-08))
20.225115     	((-1.416917e-03 2.197740e-05 -1.447446e-03) (-3.079537e-04 9.822115e-07 -1.695131e-04)) ((-3.993351e-10 -3.937813e-08 -1.249448e-11) (4.697697e-08 1.136345e-05 1.579686e-08))
20.666317     	((-1.412219e-03 2.364572e-05 -1.424051e-03) (-3.071221e-04 1.074557e-06 -1.692942e-04)) ((-4.004306e-10 -3.929598e-08 -1.126136e-11) (5.149734e-08 1.134030e-05 1.700937e-08))
21.107421     	((-1.407681e-03 2.558028e-05 -1.401577e-03) (-3.063209e-04 1.167646e-06 -1.690664e-04)) ((-4.162464e-10 -3.923582e-08 -1.030102e-11) (5.588315e-08 1.131858e-05 1.837618e-08))
21.548433     	((-1.403221e-03 2.781122e-05 -1.380025e-03) (-3.055541e-04 1.268588e-06 -1.688292e-04)) ((-4.445461e-10 -3.918076e-08 -9.987649e-12) (6.055899e-08 1.129850e-05 1.984496e-08))
21.989367     	((-1.399036e-03 3.014681e-05 -1.359458e-03) (-3.048243e-04 1.378254e-06 -1.685905e-04)) ((-4.766292e-10 -3.912560e-08 -8.727342e-12) (6.554466e-08 1.127989e-05 2.145234e-08))
22.430233     	((-1.394864e-03 3.285355e-05 -1.339302e-03) (-3.041266e-04 1.499002e-06 -1.683638e-04)) ((-5.150604e-10 -3.906532e-08 -6.496631e-12) (7.090819e-08 1.126192e-05 2.321085e-08))
22.871037     	((-1.391135e-03 3.543277e-05 -1.319880e-03) (-3.034529e-04 1.630993e-06 -1.681655e-04)) ((-5.501282e-10 -3.900588e-08 -2.970628e-12) (7.661699e-08 1.124368e-05 2.503129e-08))
23.311779     	((-1.387437e-03 3.850497e-05 -1.300818e-03) (-3.027911e-04 1.776499e-06 -1.680008e-04)) ((-5.915044e-10 -3.895434e-08 1.795742e-12) (8.282032e-08 1.122471e-05 2.687149e-08))
23.75246      	((-1.383833e-03 4.171338e-05 -1.282195e-03) (-3.021362e-04 1.935022e-06 -1.678506e-04)) ((-6.316092e-10 -3.893328e-08 6.023501e-12) (8.956680e-08 1.120562e-05 2.882726e-08))
24.193021     	((-1.379865e-03 4.524447e-05 -1.263383e-03) (-3.014887e-04 2.106192e-06 -1.676847e-04)) ((-6.761984e-10 -3.893695e-08 8.839635e-12) (9.684991e-08 1.118735e-05 3.097584e-08))
24.63338      	((-1.375313e-03 4.907429e-05 -1.244280e-03) (-3.008446e-04 2.292152e-06 -1.674915e-04)) ((-7.255319e-10 -3.893661e-08 9.172907e-12) (1.047577e-07 1.116995e-05 3.329688e-08))
25.073556     	((-1.370963e-03 5.298048e-05 -1.225286e-03) (-3.002089e-04 2.491330e-06 -1.672744e-04)) ((-7.775221e-10 -3.893102e-08 6.286150e-12) (1.132424e-07 1.115317e-05 3.571678e-08))
25.513568     	((-1.367622e-03 5.713030e-05 -1.207278e-03) (-2.995992e-04 2.704017e-06 -1.670343e-04)) ((-8.351277e-10 -3.893372e-08 2.772497e-12) (1.222920e-07 1.113721e-05 3.819320e-08))
25.953423     	((-1.364670e-03 6.167041e-05 -1.189670e-03) (-2.990213e-04 2.932194e-06 -1.667748e-04)) ((-8.989018e-10 -3.892815e-08 1.035389e-12) (1.319775e-07 1.112207e-05 4.080534e-08))
26.393135     	((-1.362214e-03 6.667550e-05 -1.172816e-03) (-2.984748e-04 3.177283e-06 -1.664956e-04)) ((-9.686316e-10 -3.892627e-08 6.341665e-13) (1.424359e-07 1.110782e-05 4.371592e-08))
26.832751     	((-1.359914e-03 7.193618e-05 -1.156421e-03) (-2.979574e-04 3.439976e-06 -1.662001e-04)) ((-1.041057e-09 -3.891569e-08 1.619310e-12) (1.537189e-07 1.109439e-05 4.693082e-08))
27.272313     	((-1.357639e-03 7.758298e-05 -1.140481e-03) (-2.974644e-04 3.723326e-06 -1.658988e-04)) ((-1.117228e-09 -3.889404e-08 1.947051e-12) (1.659241e-07 1.108135e-05 5.031264e-08))
27.711745     	((-1.355023e-03 8.365236e-05 -1.124631e-03) (-2.969846e-04 4.030164e-06 -1.656009e-04)) ((-1.198760e-09 -3.885649e-08 2.631180e-12) (1.791231e-07 1.106821e-05 5.382166e-08))
28.151087     	((-1.352430e-03 9.033995e-05 -1.109172e-03) (-2.965141e-04 4.364462e-06 -1.653112e-04)) ((-1.286514e-09 -3.880415e-08 4.020489e-12) (1.934077e-07 1.105477e-05 5.751957e-08))
28.590361     	((-1.349783e-03 9.761753e-05 -1.094225e-03) (-2.960525e-04 4.727661e-06 -1.650375e-04)) ((-1.383615e-09 -3.873374e-08 7.930626e-12) (2.088384e-07 1.104097e-05 6.153536e-08))
29.02957      	((-1.347107e-03 1.055717e-04 -1.079658e-03) (-2.955968e-04 5.122848e-06 -1.647861e-04)) ((-1.491313e-09 -3.864989e-08 1.231355e-11) (2.255376e-07 1.102675e-05 6.581710e-08))
29.468719     	((-1.344650e-03 1.142175e-04 -1.065540e-03) (-2.951478e-04 5.552661e-06 -1.645555e-04)) ((-1.610756e-09 -3.856715e-08 1.692107e-11) (2.436643e-07 1.101225e-05 7.034759e-08))
29.907812     	((-1.342290e-03 1.235199e-04 -1.051671e-03) (-2.947061e-04 6.018539e-06 -1.643440e-04)) ((-1.741409e-09 -3.848600e-08 2.002033e-11) (2.633302e-07 1.099762e-05 7.517508e-08))
30.346851     	((-1.340520e-03 1.337585e-04 -1.038397e-03) (-2.942770e-04 6.524200e-06 -1.641454e-04)) ((-1.886145e-09 -3.841876e-08 2.187349e-11) (2.847017e-07 1.098325e-05 8.035752e-08))
30.785841     	((-1.339138e-03 1.449467e-04 -1.025649e-03) (-2.938655e-04 7.075453e-06 -1.639575e-04)) ((-2.044432e-09 -3.836011e-08 2.417276e-11) (3.079579e-07 1.096948e-05 8.594568e-08))
31.224783     	((-1.338182e-03 1.571135e-04 -1.013526e-03) (-2.934766e-04 7.675813e-06 -1.637806e-04)) ((-2.215417e-09 -3.830835e-08 2.647948e-11) (3.332359e-07 1.095655e-05 9.198012e-08))
31.663681     	((-1.337461e-03 1.703346e-04 -1.001942e-03) (-2.931096e-04 8.329107e-06 -1.636144e-04)) ((-2.401122e-09 -3.826162e-08 2.969704e-11) (3.607311e-07 1.094450e-05 9.857022e-08))
32.102538     	((-1.336868e-03 1.848569e-04 -9.907906e-04) (-2.927634e-04 9.042691e-06 -1.634606e-04)) ((-2.604599e-09 -3.821733e-08 3.324218e-11) (3.907051e-07 1.093328e-05 1.057661e-07))
32.541355     	((-1.336293e-03 2.007651e-04 -9.798918e-04) (-2.924344e-04 9.823386e-06 -1.633208e-04)) ((-2.828593e-09 -3.817582e-08 3.635358e-11) (4.234660e-07 1.092295e-05 1.136537e-07))
32.98013      	((-1.335910e-03 2.180361e-04 -9.694261e-04) (-2.921211e-04 1.067798e-05 -1.631949e-04)) ((-3.072881e-09 -3.814084e-08 3.845519e-11) (4.594024e-07 1.091350e-05 1.220997e-07))
33.418859     	((-1.335721e-03 2.368559e-04 -9.591918e-04) (-2.918267e-04 1.161454e-05 -1.630807e-04)) ((-3.341538e-09 -3.810848e-08 4.076729e-11) (4.988254e-07 1.090499e-05 1.310222e-07))
33.857541     	((-1.335897e-03 2.572369e-04 -9.493983e-04) (-2.915547e-04 1.263747e-05 -1.629753e-04)) ((-3.637030e-09 -3.807989e-08 4.246241e-11) (5.419744e-07 1.089749e-05 1.406150e-07))
34.296168     	((-1.336691e-03 2.792626e-04 -9.401102e-04) (-2.913128e-04 1.375338e-05 -1.628754e-04)) ((-3.958290e-09 -3.805736e-08 4.201255e-11) (5.891122e-07 1.089125e-05 1.509280e-07))
34.734733     	((-1.337904e-03 3.032768e-04 -9.311579e-04) (-2.911023e-04 1.497803e-05 -1.627803e-04)) ((-4.312659e-09 -3.802825e-08 4.089072e-11) (6.407201e-07 1.088621e-05 1.618114e-07))
35.173226     	((-1.339811e-03 3.292400e-04 -9.226917e-04) (-2.909332e-04 1.632278e-05 -1.626828e-04)) ((-4.694143e-09 -3.800523e-08 4.120994e-11) (6.971859e-07 1.088277e-05 1.729948e-07))
35.611644     	((-1.342150e-03 3.572900e-04 -9.146095e-04) (-2.908164e-04 1.779389e-05 -1.625787e-04)) ((-5.105173e-09 -3.798131e-08 4.123288e-11) (7.587150e-07 1.088118e-05 1.842803e-07))
36.04998      	((-1.345183e-03 3.876328e-04 -9.072398e-04) (-2.907577e-04 1.940570e-05 -1.624638e-04)) ((-5.544672e-09 -3.796665e-08 4.294847e-11) (8.257333e-07 1.088177e-05 1.955049e-07))
36.48823      	((-1.348783e-03 4.202863e-04 -9.003277e-04) (-2.907482e-04 2.116280e-05 -1.623345e-04)) ((-6.010348e-09 -3.795670e-08 4.477890e-11) (8.984614e-07 1.088446e-05 2.072191e-07))
36.926387     	((-1.353391e-03 4.556067e-04 -8.941303e-04) (-2.907806e-04 2.306417e-05 -1.621954e-04)) ((-6.513262e-09 -3.795285e-08 4.523668e-11) (9.771563e-07 1.088916e-05 2.201838e-07))
37.364445     	((-1.359542e-03 4.931986e-04 -8.888472e-04) (-2.908684e-04 2.510834e-05 -1.620471e-04)) ((-7.033493e-09 -3.797325e-08 4.751239e-11) (1.061747e-06 1.089643e-05 2.344832e-07))
37.802395     	((-1.366820e-03 5.345701e-04 -8.840709e-04) (-2.910336e-04 2.731959e-05 -1.618874e-04)) ((-7.613101e-09 -3.800338e-08 5.439913e-11) (1.153262e-06 1.090687e-05 2.496979e-07))
38.240231     	((-1.375606e-03 5.791164e-04 -8.804012e-04) (-2.912874e-04 2.972063e-05 -1.617194e-04)) ((-8.224343e-09 -3.803144e-08 6.440949e-11) (1.252704e-06 1.092063e-05 2.656533e-07))
38.677943     	((-1.386359e-03 6.268577e-04 -8.782357e-04) (-2.916363e-04 3.231803e-05 -1.615439e-04)) ((-8.883888e-09 -3.806387e-08 7.848118e-11) (1.360375e-06 1.093809e-05 2.828367e-07))
39.115527     	((-1.399149e-03 6.779025e-04 -8.776514e-04) (-2.920956e-04 3.512759e-05 -1.613735e-04)) ((-9.601032e-09 -3.809067e-08 9.842751e-11) (1.476872e-06 1.095949e-05 3.010510e-07))
39.552971     	((-1.414666e-03 7.318752e-04 -8.793990e-04) (-2.926870e-04 3.815622e-05 -1.612154e-04)) ((-1.036064e-08 -3.814491e-08 1.253920e-10) (1.602410e-06 1.098540e-05 3.201866e-07))
39.990267     	((-1.432855e-03 7.887209e-04 -8.835724e-04) (-2.934272e-04 4.138963e-05 -1.610560e-04)) ((-1.115107e-08 -3.822642e-08 1.511379e-10) (1.736473e-06 1.101704e-05 3.408691e-07))
40.427412     	((-1.453274e-03 8.490323e-04 -8.896455e-04) (-2.943075e-04 4.483835e-05 -1.609024e-04)) ((-1.198783e-08 -3.830721e-08 1.690336e-10) (1.879401e-06 1.105438e-05 3.626975e-07))
40.864424     	((-1.476655e-03 9.125506e-04 -8.980849e-04) (-2.953228e-04 4.852156e-05 -1.607787e-04)) ((-1.284578e-08 -3.840942e-08 1.788211e-10) (2.031913e-06 1.109732e-05 3.855438e-07))
41.301356     	((-1.504439e-03 9.797071e-04 -9.098777e-04) (-2.965170e-04 5.243935e-05 -1.606781e-04)) ((-1.371303e-08 -3.857735e-08 1.833579e-10) (2.193995e-06 1.114766e-05 4.100302e-07))
41.738268     	((-1.536486e-03 1.049935e-03 -9.248617e-04) (-2.979423e-04 5.658979e-05 -1.605785e-04)) ((-1.459374e-08 -3.881553e-08 1.921511e-10) (2.365093e-06 1.120729e-05 4.353991e-07))
42.175189     	((-1.573515e-03 1.122272e-03 -9.440354e-04) (-2.996167e-04 6.096993e-05 -1.604701e-04)) ((-1.545712e-08 -3.913015e-08 1.991679e-10) (2.544408e-06 1.127754e-05 4.613300e-07))
42.612007     	((-1.614612e-03 1.196385e-03 -9.667433e-04) (-3.015663e-04 6.557955e-05 -1.603601e-04)) ((-1.629970e-08 -3.949697e-08 2.186051e-10) (2.731076e-06 1.135928e-05 4.880531e-07))
43.048593     	((-1.660387e-03 1.270377e-03 -9.945576e-04) (-3.038105e-04 7.039117e-05 -1.602394e-04)) ((-1.709776e-08 -3.994302e-08 2.427839e-10) (2.923917e-06 1.145337e-05 5.148325e-07))
43.484979     	((-1.711220e-03 1.344817e-03 -1.027206e-03) (-3.064136e-04 7.536136e-05 -1.600959e-04)) ((-1.787851e-08 -4.049097e-08 2.787397e-10) (3.122406e-06 1.156104e-05 5.411043e-07))
43.921178     	((-1.767338e-03 1.419314e-03 -1.063896e-03) (-3.094264e-04 8.046807e-05 -1.599055e-04)) ((-1.865747e-08 -4.114414e-08 3.021031e-10) (3.326161e-06 1.168347e-05 5.653013e-07))
44.357098     	((-1.828096e-03 1.490836e-03 -1.105876e-03) (-3.128407e-04 8.565094e-05 -1.596368e-04)) ((-1.936265e-08 -4.188280e-08 3.054311e-10) (3.532809e-06 1.182137e-05 5.889446e-07))
44.792744     	((-1.893616e-03 1.557156e-03 -1.153783e-03) (-3.166446e-04 9.083385e-05 -1.592605e-04)) ((-1.990278e-08 -4.271340e-08 2.981802e-10) (3.738597e-06 1.197482e-05 6.119800e-07))
45.228137     	((-1.960757e-03 1.614749e-03 -1.206620e-03) (-3.208330e-04 9.592336e-05 -1.587747e-04)) ((-2.021368e-08 -4.354625e-08 2.906048e-10) (3.938932e-06 1.214281e-05 6.318467e-07))
