# Forces      
# CofR        : (0.000000e+00 0.000000e+00 0.000000e+00)
# Time        forces(pressure viscous)	moments(pressure viscous)
0             	((0.000000e+00 0.000000e+00 0.000000e+00) (-8.063917e-15 -1.589135e-05 1.434255e-15)) ((0.000000e+00 0.000000e+00 0.000000e+00) (-3.570620e-07 -4.382694e-17 7.627156e-12))
0.012         	((4.750054e-09 -4.621398e-03 1.042872e-03) (2.627512e-11 -1.823611e-05 -5.342560e-09)) ((5.450346e-08 3.554297e-09 8.712595e-10) (-5.262508e-07 -1.415258e-14 1.577480e-11))
0.0264        	((-7.883490e-08 3.198553e-04 -6.569583e-05) (-2.148526e-11 -1.860649e-05 -8.131714e-09)) ((-3.831626e-09 -2.240932e-10 -5.649431e-11) (-5.892053e-07 3.291194e-12 2.076415e-11))
0.04368       	((4.322175e-08 9.668650e-04 -7.548377e-05) (-2.265572e-11 -1.653569e-05 -5.947756e-09)) ((-1.258709e-08 -2.617503e-10 -2.363433e-10) (-5.249134e-07 5.345628e-12 1.765332e-11))
0.064416      	((1.407858e-08 9.085171e-06 -3.793295e-05) (-2.779446e-10 -1.464669e-05 -2.681515e-09)) ((6.180539e-11 -1.260097e-10 1.251553e-11) (-4.712174e-07 3.004653e-12 2.076678e-11))
0.0892992     	((-8.740376e-09 -1.292011e-05 -2.337650e-05) (-4.981902e-10 -1.352253e-05 -1.976646e-09)) ((5.137827e-10 -7.532728e-11 1.294435e-11) (-4.454410e-07 8.362881e-13 2.163248e-11))
0.119159      	((-6.845452e-09 1.448710e-05 -1.423163e-05) (-4.647723e-10 -1.248678e-05 -3.461377e-09)) ((-2.723848e-10 -4.700182e-11 -2.797927e-12) (-4.168033e-07 1.721525e-12 1.826853e-11))
0.154991      	((5.491707e-09 7.802557e-06 -9.041703e-06) (-3.959790e-10 -1.138871e-05 -5.061156e-09)) ((-1.668731e-10 -2.801021e-11 -7.832648e-14) (-3.849330e-07 1.620424e-12 1.602956e-11))
0.197989      	((3.298825e-09 1.889934e-06 -5.643467e-06) (-2.618166e-10 -1.028080e-05 -6.083057e-09)) ((-5.914099e-11 -1.667394e-11 -1.437324e-13) (-3.525032e-07 -1.492829e-13 1.088001e-11))
0.249587      	((-5.518744e-10 -2.565867e-07 -3.607616e-06) (-1.305669e-10 -9.194166e-06 -7.066650e-09)) ((-1.653254e-11 -1.044991e-11 9.039887e-13) (-3.200775e-07 -2.222073e-12 7.279943e-12))
0.311504      	((-6.549719e-10 -1.237944e-06 -2.261682e-06) (-4.179852e-11 -8.161466e-06 -8.181783e-09)) ((-3.288626e-12 -5.854527e-12 1.118659e-12) (-2.882914e-07 -3.961952e-12 3.004915e-12))
0.385805      	((-4.513999e-11 -1.709212e-06 -1.459480e-06) (2.414257e-11 -7.209020e-06 -9.255621e-09)) ((8.855822e-13 -3.003107e-12 9.198838e-13) (-2.579289e-07 -5.245546e-12 -2.157083e-12))
0.474966      	((6.836854e-11 -1.932970e-06 -9.178467e-07) (7.202306e-11 -6.355440e-06 -1.026645e-08)) ((4.765365e-12 -1.090000e-12 7.800994e-13) (-2.298243e-07 -6.311218e-12 -1.263739e-12))
0.581959      	((1.407138e-10 -2.022955e-06 -6.020999e-07) (8.454262e-11 -5.607891e-06 -1.131608e-08)) ((8.022441e-12 -1.002980e-13 6.698103e-13) (-2.044714e-07 -6.074500e-12 4.156752e-12))
0.710351      	((9.680729e-11 -2.015438e-06 -3.953185e-07) (9.829029e-11 -4.965968e-06 -1.238043e-08)) ((1.023098e-11 5.497029e-13 5.628062e-13) (-1.821445e-07 -4.903122e-12 6.184541e-12))
0.864421      	((5.419416e-11 -1.943013e-06 -2.848840e-07) (1.222397e-10 -4.421455e-06 -1.330366e-08)) ((1.110225e-11 8.879196e-13 5.661697e-13) (-1.628432e-07 -3.668875e-12 4.436608e-12))
1.049306      	((6.931626e-11 -1.836562e-06 -2.145675e-07) (1.283008e-10 -3.960766e-06 -1.409600e-08)) ((1.095602e-11 1.088692e-12 5.621183e-13) (-1.462849e-07 -2.678444e-12 1.922607e-12))
1.271167      	((8.249905e-11 -1.717895e-06 -1.822546e-07) (1.485848e-10 -3.569833e-06 -1.487115e-08)) ((1.035849e-11 1.175030e-12 5.144871e-13) (-1.320471e-07 -1.939515e-12 8.218879e-13))
1.5374        	((1.214032e-10 -1.596047e-06 -1.657224e-07) (1.618957e-10 -3.233811e-06 -1.577846e-08)) ((9.630420e-12 1.223532e-12 5.056587e-13) (-1.196797e-07 -1.311450e-12 1.267645e-12))
1.85688       	((1.665184e-10 -1.476635e-06 -1.652889e-07) (1.413788e-10 -2.939257e-06 -1.684586e-08)) ((8.800311e-12 1.195579e-12 5.066833e-13) (-1.087897e-07 -7.533252e-13 1.974147e-12))
2.240256      	((1.277550e-10 -1.363086e-06 -1.707031e-07) (1.173275e-10 -2.677340e-06 -1.799138e-08)) ((8.098469e-12 1.153238e-12 5.012704e-13) (-9.909460e-08 -3.899189e-13 2.924476e-12))
2.700307      	((1.000275e-10 -1.256881e-06 -1.822726e-07) (1.064037e-10 -2.442641e-06 -1.919654e-08)) ((7.520835e-12 1.090581e-12 4.969228e-13) (-9.040404e-08 -5.078643e-14 4.558122e-12))
3.252369      	((7.918441e-11 -1.157697e-06 -1.941016e-07) (9.179083e-11 -2.231446e-06 -2.051719e-08)) ((6.950777e-12 1.021937e-12 4.663399e-13) (-8.258018e-08 2.165801e-13 6.369396e-12))
3.914842      	((1.177693e-11 -1.064454e-06 -2.074979e-07) (5.015539e-11 -2.040872e-06 -2.195953e-08)) ((6.359522e-12 9.408420e-13 4.262684e-13) (-7.551863e-08 5.342142e-13 7.365583e-12))
4.709811      	((1.045200e-11 -9.779338e-07 -2.199249e-07) (1.420192e-11 -1.868873e-06 -2.350134e-08)) ((5.807062e-12 8.744830e-13 3.827469e-13) (-6.914417e-08 6.368824e-13 7.752807e-12))
5.663773      	((2.957568e-11 -8.984795e-07 -2.322061e-07) (6.843724e-12 -1.713941e-06 -2.512116e-08)) ((5.327221e-12 8.235662e-13 3.466549e-13) (-6.340145e-08 5.482567e-13 8.085983e-12))
6.808528      	((8.096120e-11 -8.259084e-07 -2.425438e-07) (5.804002e-12 -1.574736e-06 -2.681742e-08)) ((4.921779e-12 7.678462e-13 3.042523e-13) (-5.824178e-08 5.658954e-13 8.308924e-12))
8.182233      	((9.389585e-11 -7.597253e-07 -2.515795e-07) (6.114457e-12 -1.449793e-06 -2.859291e-08)) ((4.560894e-12 7.099919e-13 2.617172e-13) (-5.361211e-08 7.511085e-13 8.245330e-12))
9.83068       	((8.007075e-11 -6.996891e-07 -2.589293e-07) (1.506361e-11 -1.337516e-06 -3.048861e-08)) ((4.230438e-12 6.536519e-13 2.263239e-13) (-4.945329e-08 9.269275e-13 7.901323e-12))
11.808816     	((4.543836e-11 -6.449689e-07 -2.654487e-07) (1.856654e-11 -1.236338e-06 -3.254252e-08)) ((3.941777e-12 6.026075e-13 1.952410e-13) (-4.570577e-08 1.085279e-12 7.481951e-12))
14.182579     	((4.541520e-11 -5.952215e-07 -2.706955e-07) (1.023922e-11 -1.144837e-06 -3.478522e-08)) ((3.685990e-12 5.581699e-13 1.696823e-13) (-4.231613e-08 1.128897e-12 6.778180e-12))
17.031095     	((2.308453e-11 -5.502723e-07 -2.755098e-07) (3.161427e-12 -1.061823e-06 -3.723370e-08)) ((3.453767e-12 5.149740e-13 1.511678e-13) (-3.923974e-08 1.242947e-12 5.873687e-12))
20.449314     	((-2.790167e-11 -5.097204e-07 -2.793113e-07) (-1.705432e-12 -9.863969e-07 -3.988993e-08)) ((3.247030e-12 4.769000e-13 1.372645e-13) (-3.644329e-08 1.570846e-12 4.957706e-12))
24.551176     	((-6.881667e-11 -4.732459e-07 -2.823620e-07) (-6.652982e-12 -9.178956e-07 -4.273580e-08)) ((3.072515e-12 4.415195e-13 1.285749e-13) (-3.390231e-08 1.895874e-12 4.066821e-12))
29.473411     	((-5.163811e-11 -4.408185e-07 -2.843964e-07) (-8.205652e-12 -8.558018e-07 -4.572079e-08)) ((2.930672e-12 4.116074e-13 1.211788e-13) (-3.159851e-08 2.303866e-12 2.737479e-12))
35.380094     	((6.882697e-12 -4.121206e-07 -2.856269e-07) (-1.200829e-11 -7.996824e-07 -4.880843e-08)) ((2.817838e-12 3.871268e-13 1.159676e-13) (-2.951641e-08 2.608547e-12 1.071272e-12))
42.468112     	((-1.592381e-11 -3.870346e-07 -2.861371e-07) (-1.499307e-11 -7.490897e-07 -5.197086e-08)) ((2.732676e-12 3.603175e-13 1.139047e-13) (-2.764000e-08 3.005536e-12 -9.066804e-13))
50.973735     	((-6.194482e-11 -3.652959e-07 -2.859096e-07) (-1.833552e-11 -7.035788e-07 -5.518583e-08)) ((2.675569e-12 3.361519e-13 1.145567e-13) (-2.595277e-08 3.438082e-12 -3.063267e-12))
61.180482     	((-7.294415e-11 -3.466973e-07 -2.849970e-07) (-1.871127e-11 -6.627157e-07 -5.843448e-08)) ((2.644725e-12 3.181769e-13 1.152602e-13) (-2.443838e-08 3.757911e-12 -5.334836e-12))
73.428578     	((-6.110008e-11 -3.310886e-07 -2.832087e-07) (-1.799673e-11 -6.260905e-07 -6.170210e-08)) ((2.640977e-12 3.016457e-13 1.170222e-13) (-2.308167e-08 3.956072e-12 -7.759875e-12))
88.126294     	((-4.548820e-11 -3.182700e-07 -2.809762e-07) (-1.537068e-11 -5.933581e-07 -6.497053e-08)) ((2.664147e-12 2.881676e-13 1.206592e-13) (-2.187017e-08 3.874864e-12 -1.025314e-11))
105.763553    	((-1.782223e-11 -3.081744e-07 -2.782689e-07) (-1.402243e-11 -5.642320e-07 -6.822879e-08)) ((2.717244e-12 2.775777e-13 1.259979e-13) (-2.079384e-08 3.565325e-12 -1.290813e-11))
126.928263    	((3.944840e-12 -3.006654e-07 -2.749693e-07) (-1.333378e-11 -5.384923e-07 -7.146236e-08)) ((2.793368e-12 2.698467e-13 1.332917e-13) (-1.984522e-08 3.153928e-12 -1.538844e-11))
152.325916    	((1.734334e-11 -2.955110e-07 -2.710680e-07) (-1.269457e-11 -5.159584e-07 -7.466502e-08)) ((2.890827e-12 2.645364e-13 1.415177e-13) (-1.901835e-08 2.643494e-12 -1.756014e-11))
182.803099    	((4.405309e-11 -2.925195e-07 -2.667322e-07) (-1.271880e-11 -4.964776e-07 -7.782766e-08)) ((3.008498e-12 2.619883e-13 1.505276e-13) (-1.830812e-08 2.047954e-12 -1.938554e-11))
219.375719    	((6.367499e-11 -2.913175e-07 -2.618230e-07) (-1.374292e-11 -4.798932e-07 -8.092178e-08)) ((3.134176e-12 2.641752e-13 1.606743e-13) (-1.770839e-08 1.428275e-12 -2.080260e-11))
263.262863    	((9.306768e-11 -2.915232e-07 -2.563131e-07) (-1.527766e-11 -4.660235e-07 -8.388198e-08)) ((3.256052e-12 2.714753e-13 1.699250e-13) (-1.721116e-08 7.815382e-13 -2.175343e-11))
315.927436    	((1.278091e-10 -2.925676e-07 -2.500991e-07) (-1.481645e-11 -4.546200e-07 -8.660680e-08)) ((3.361319e-12 2.833372e-13 1.776995e-13) (-1.680507e-08 5.337466e-14 -2.226839e-11))
377.711036    	((1.632225e-10 -2.939556e-07 -2.432786e-07) (-9.092801e-12 -4.454011e-07 -8.897758e-08)) ((3.445072e-12 2.976869e-13 1.830829e-13) (-1.647771e-08 -7.595732e-13 -2.239575e-11))
448.596907    	((1.871978e-10 -2.951057e-07 -2.361336e-07) (-9.191670e-14 -4.379656e-07 -9.093862e-08)) ((3.507479e-12 3.129115e-13 1.864859e-13) (-1.621367e-08 -1.553743e-12 -2.219165e-11))
528.581037    	((2.108892e-10 -2.958191e-07 -2.290205e-07) (1.115768e-11 -4.319354e-07 -9.250101e-08)) ((3.553059e-12 3.280331e-13 1.887904e-13) (-1.599960e-08 -2.290698e-12 -2.180088e-11))
617.669136    	((2.336969e-10 -2.961439e-07 -2.222996e-07) (2.386435e-11 -4.269938e-07 -9.373108e-08)) ((3.585286e-12 3.432288e-13 1.905219e-13) (-1.582477e-08 -2.962007e-12 -2.131598e-11))
708.802258    	((2.493394e-10 -2.963927e-07 -2.163958e-07) (3.652058e-11 -4.229691e-07 -9.469950e-08)) ((3.607290e-12 3.570876e-13 1.919820e-13) (-1.568334e-08 -3.525491e-12 -2.072276e-11))
800.02508     	((2.592118e-10 -2.964738e-07 -2.113991e-07) (4.855424e-11 -4.196541e-07 -9.548705e-08)) ((3.618729e-12 3.697526e-13 1.932282e-13) (-1.556783e-08 -3.982831e-12 -2.004221e-11))
891.32534     	((2.596605e-10 -2.965136e-07 -2.071679e-07) (5.974837e-11 -4.169286e-07 -9.613574e-08)) ((3.624819e-12 3.808768e-13 1.937656e-13) (-1.547377e-08 -4.320492e-12 -1.928741e-11))
982.692209    	((2.539303e-10 -2.965111e-07 -2.036549e-07) (6.922717e-11 -4.146748e-07 -9.667881e-08)) ((3.628035e-12 3.902346e-13 1.943733e-13) (-1.539678e-08 -4.538242e-12 -1.848339e-11))
1074.117318   	((2.425738e-10 -2.964921e-07 -2.007128e-07) (7.677584e-11 -4.128122e-07 -9.713774e-08)) ((3.629095e-12 3.982429e-13 1.951839e-13) (-1.533373e-08 -4.638113e-12 -1.764526e-11))
1165.593265   	((2.279345e-10 -2.964568e-07 -1.982997e-07) (8.243416e-11 -4.112670e-07 -9.752791e-08)) ((3.629014e-12 4.048660e-13 1.953541e-13) (-1.528190e-08 -4.624711e-12 -1.679389e-11))
1257.113277   	((2.105778e-10 -2.964174e-07 -1.962164e-07) (8.626439e-11 -4.099824e-07 -9.786031e-08)) ((3.628557e-12 4.106265e-13 1.956855e-13) (-1.523924e-08 -4.519484e-12 -1.595252e-11))
1348.671194   	((1.917642e-10 -2.963762e-07 -1.944596e-07) (8.855659e-11 -4.089124e-07 -9.814462e-08)) ((3.628123e-12 4.154786e-13 1.960581e-13) (-1.520402e-08 -4.344284e-12 -1.511756e-11))
1440.261595   	((1.720710e-10 -2.963372e-07 -1.929569e-07) (8.946698e-11 -4.080194e-07 -9.838814e-08)) ((3.627287e-12 4.194970e-13 1.963413e-13) (-1.517488e-08 -4.112204e-12 -1.431327e-11))
1531.879777   	((1.519695e-10 -2.963011e-07 -1.916772e-07) (8.925725e-11 -4.072723e-07 -9.859743e-08)) ((3.626501e-12 4.229210e-13 1.966969e-13) (-1.515067e-08 -3.833184e-12 -1.354254e-11))
1623.521705   	((1.322164e-10 -2.962679e-07 -1.905931e-07) (8.797803e-11 -4.066464e-07 -9.877671e-08)) ((3.625535e-12 4.257886e-13 1.969328e-13) (-1.513055e-08 -3.524351e-12 -1.281454e-11))
1715.183916   	((1.134247e-10 -2.962375e-07 -1.896734e-07) (8.607970e-11 -4.061218e-07 -9.893059e-08)) ((3.624749e-12 4.283137e-13 1.970779e-13) (-1.511378e-08 -3.198471e-12 -1.212719e-11))
1806.863452   	((9.548162e-11 -2.962108e-07 -1.888889e-07) (8.363717e-11 -4.056814e-07 -9.906244e-08)) ((3.624036e-12 4.305144e-13 1.971893e-13) (-1.509977e-08 -2.866905e-12 -1.148651e-11))
1898.557787   	((7.851380e-11 -2.961868e-07 -1.882233e-07) (8.084398e-11 -4.053109e-07 -9.917492e-08)) ((3.623377e-12 4.323686e-13 1.973043e-13) (-1.508806e-08 -2.533616e-12 -1.088795e-11))
1990.264761   	((6.266468e-11 -2.961661e-07 -1.876567e-07) (7.769591e-11 -4.049989e-07 -9.927087e-08)) ((3.622781e-12 4.339409e-13 1.973577e-13) (-1.507827e-08 -2.206574e-12 -1.033788e-11))
2081.982535   	((4.797890e-11 -2.961483e-07 -1.871749e-07) (7.443046e-11 -4.047357e-07 -9.935276e-08)) ((3.622274e-12 4.352480e-13 1.973863e-13) (-1.507004e-08 -1.887967e-12 -9.833417e-12))
2173.709538   	((3.433741e-11 -2.961325e-07 -1.867654e-07) (7.114900e-11 -4.045135e-07 -9.942271e-08)) ((3.621807e-12 4.363241e-13 1.973970e-13) (-1.506313e-08 -1.581204e-12 -9.367798e-12))
2265.444429   	((2.202492e-11 -2.961193e-07 -1.864175e-07) (6.779452e-11 -4.043258e-07 -9.948249e-08)) ((3.621382e-12 4.372146e-13 1.974234e-13) (-1.505731e-08 -1.289462e-12 -8.947529e-12))
2357.186065   	((1.078034e-11 -2.961078e-07 -1.861211e-07) (6.448431e-11 -4.041672e-07 -9.953359e-08)) ((3.620953e-12 4.380007e-13 1.974510e-13) (-1.505239e-08 -1.015039e-12 -8.570257e-12))
2448.933469   	((7.650705e-13 -2.960977e-07 -1.858694e-07) (6.132300e-11 -4.040331e-07 -9.957721e-08)) ((3.620484e-12 4.386790e-13 1.974807e-13) (-1.504825e-08 -7.579676e-13 -8.230971e-12))
2540.685809   	((-8.330271e-12 -2.960887e-07 -1.856552e-07) (5.832693e-11 -4.039196e-07 -9.961437e-08)) ((3.620065e-12 4.392476e-13 1.975176e-13) (-1.504475e-08 -5.192768e-13 -7.926598e-12))
2632.442373   	((-1.638345e-11 -2.960810e-07 -1.854733e-07) (5.555394e-11 -4.038235e-07 -9.964599e-08)) ((3.619721e-12 4.397215e-13 1.975553e-13) (-1.504180e-08 -3.005488e-13 -7.652392e-12))
2724.20255    	((-2.363951e-11 -2.960743e-07 -1.853183e-07) (5.297098e-11 -4.037421e-07 -9.967291e-08)) ((3.619438e-12 4.401229e-13 1.975886e-13) (-1.503931e-08 -1.012614e-13 -7.408911e-12))
2815.965817   	((-2.990419e-11 -2.960694e-07 -1.851886e-07) (5.058225e-11 -4.036731e-07 -9.969583e-08)) ((3.619203e-12 4.404547e-13 1.976184e-13) (-1.503720e-08 7.948753e-14 -7.193130e-12))
2907.731727   	((-3.555742e-11 -2.960645e-07 -1.850771e-07) (4.840456e-11 -4.036147e-07 -9.971534e-08)) ((3.619003e-12 4.407346e-13 1.976445e-13) (-1.503542e-08 2.423632e-13 -7.001304e-12))
2999.499896   	((-4.051764e-11 -2.960602e-07 -1.849786e-07) (4.642930e-11 -4.035651e-07 -9.973193e-08)) ((3.618847e-12 4.409842e-13 1.976618e-13) (-1.503391e-08 3.882632e-13 -6.831623e-12))
3091.269995   	((-4.481677e-11 -2.960568e-07 -1.848985e-07) (4.465034e-11 -4.035231e-07 -9.974606e-08)) ((3.618713e-12 4.411812e-13 1.976753e-13) (-1.503263e-08 5.186427e-13 -6.681874e-12))
3183.041744   	((-4.862513e-11 -2.960539e-07 -1.848297e-07) (4.305015e-11 -4.034874e-07 -9.975808e-08)) ((3.618593e-12 4.413479e-13 1.976861e-13) (-1.503155e-08 6.347811e-13 -6.550235e-12))
3274.814903   	((-5.187393e-11 -2.960513e-07 -1.847740e-07) (4.162447e-11 -4.034572e-07 -9.976829e-08)) ((3.618496e-12 4.414799e-13 1.976967e-13) (-1.503063e-08 7.378280e-13 -6.434497e-12))
3366.589266   	((-5.475754e-11 -2.960493e-07 -1.847241e-07) (4.035760e-11 -4.034315e-07 -9.977699e-08)) ((3.618409e-12 4.415976e-13 1.977048e-13) (-1.502986e-08 8.289952e-13 -6.332913e-12))
3458.364656   	((-5.726569e-11 -2.960476e-07 -1.846822e-07) (3.923699e-11 -4.034098e-07 -9.978438e-08)) ((3.618335e-12 4.416934e-13 1.977116e-13) (-1.502920e-08 9.093739e-13 -6.243926e-12))
3550.140925   	((-5.943687e-11 -2.960460e-07 -1.846444e-07) (3.824779e-11 -4.033913e-07 -9.979066e-08)) ((3.618268e-12 4.417798e-13 1.977172e-13) (-1.502864e-08 9.801035e-13 -6.166097e-12))
3641.917942   	((-6.133168e-11 -2.960448e-07 -1.846146e-07) (3.737886e-11 -4.033756e-07 -9.979601e-08)) ((3.618215e-12 4.418454e-13 1.977230e-13) (-1.502816e-08 1.042142e-12 -6.098124e-12))
3733.695599   	((-6.295142e-11 -2.960438e-07 -1.845889e-07) (3.661883e-11 -4.033623e-07 -9.980055e-08)) ((3.618171e-12 4.419012e-13 1.977285e-13) (-1.502776e-08 1.096437e-12 -6.038757e-12))
3825.4738     	((-6.437909e-11 -2.960429e-07 -1.845685e-07) (3.595435e-11 -4.033509e-07 -9.980443e-08)) ((3.618131e-12 4.419421e-13 1.977329e-13) (-1.502742e-08 1.143890e-12 -5.986992e-12))
3917.252468   	((-6.558804e-11 -2.960421e-07 -1.845499e-07) (3.537638e-11 -4.033413e-07 -9.980771e-08)) ((3.618102e-12 4.419796e-13 1.977366e-13) (-1.502713e-08 1.185317e-12 -5.941876e-12))
4009.031532   	((-6.666678e-11 -2.960415e-07 -1.845342e-07) (3.487307e-11 -4.033332e-07 -9.981051e-08)) ((3.618076e-12 4.420098e-13 1.977400e-13) (-1.502688e-08 1.221445e-12 -5.902599e-12))
4100.810934   	((-6.761039e-11 -2.960409e-07 -1.845199e-07) (3.443538e-11 -4.033262e-07 -9.981288e-08)) ((3.618054e-12 4.420381e-13 1.977430e-13) (-1.502667e-08 1.252901e-12 -5.868418e-12))
4192.590626   	((-6.842761e-11 -2.960404e-07 -1.845081e-07) (3.405554e-11 -4.033204e-07 -9.981490e-08)) ((3.618035e-12 4.420605e-13 1.977456e-13) (-1.502650e-08 1.280251e-12 -5.838704e-12))
4284.370563   	((-6.912838e-11 -2.960401e-07 -1.844983e-07) (3.372628e-11 -4.033154e-07 -9.981661e-08)) ((3.618020e-12 4.420785e-13 1.977478e-13) (-1.502635e-08 1.304012e-12 -5.812873e-12))
4376.150712   	((-6.973571e-11 -2.960397e-07 -1.844902e-07) (3.344061e-11 -4.033111e-07 -9.981807e-08)) ((3.618006e-12 4.420930e-13 1.977497e-13) (-1.502622e-08 1.324651e-12 -5.790441e-12))
4467.931039   	((-7.026336e-11 -2.960395e-07 -1.844834e-07) (3.319277e-11 -4.033075e-07 -9.981931e-08)) ((3.617995e-12 4.421045e-13 1.977512e-13) (-1.502611e-08 1.342558e-12 -5.770963e-12))
4559.711519   	((-7.072324e-11 -2.960392e-07 -1.844778e-07) (3.297816e-11 -4.033044e-07 -9.982036e-08)) ((3.617985e-12 4.421134e-13 1.977525e-13) (-1.502602e-08 1.358098e-12 -5.754038e-12))
