# Forces      
# CofR        : (0.000000e+00 0.000000e+00 0.000000e+00)
# Time        forces(pressure viscous)	moments(pressure viscous)
0             	((0.000000e+00 0.000000e+00 0.000000e+00) (-1.002671e-05 2.752205e-15 -9.747689e-11)) ((0.000000e+00 0.000000e+00 0.000000e+00) (-2.204011e-17 2.252880e-07 -5.462653e-17))
0.012         	((-2.915744e-03 4.827594e-09 3.085457e-04) (-1.150679e-05 1.707209e-11 -3.404854e-09)) ((1.122299e-13 -3.939723e-08 4.698791e-13) (9.343279e-14 3.320457e-07 -2.922415e-13))
0.0264        	((2.010141e-04 -5.093057e-08 -1.693309e-05) (-1.174152e-05 -1.210621e-11 -5.064577e-09)) ((1.235385e-12 2.767771e-09 -6.196849e-13) (-2.290360e-12 3.717923e-07 -5.580356e-13))
0.04368       	((6.103744e-04 4.189787e-08 -1.047404e-05) (-1.043556e-05 -7.149860e-12 -3.611277e-09)) ((-1.656214e-12 9.247023e-09 -5.312620e-13) (-2.671344e-12 3.312318e-07 -2.976813e-13))
0.064416      	((5.753343e-06 4.593399e-09 -1.397563e-05) (-9.243778e-06 -2.102183e-10 -1.942905e-09)) ((5.180179e-13 -1.027198e-10 -2.271966e-14) (-6.711765e-13 2.973392e-07 -9.747709e-13))
0.0892992     	((-8.229530e-06 6.210468e-09 -8.571040e-06) (-8.534563e-06 -3.173016e-10 -1.589064e-09)) ((-2.729782e-13 -4.198568e-10 9.112169e-14) (7.510640e-13 2.810714e-07 -8.545281e-13))
0.119159      	((9.115460e-06 -5.116741e-09 -5.112027e-06) (-7.880984e-06 -2.424941e-10 -2.292873e-09)) ((2.382393e-13 1.782659e-10 -1.355451e-13) (8.740152e-13 2.629898e-07 1.360858e-12))
0.154991      	((4.917468e-06 2.287751e-09 -3.149636e-06) (-7.187710e-06 -2.090996e-10 -3.007231e-09)) ((-4.194989e-14 1.041287e-10 -2.485048e-13) (9.126781e-13 2.428564e-07 3.501201e-12))
0.197989      	((1.195437e-06 -3.385013e-09 -2.002984e-06) (-6.487740e-06 -1.595594e-10 -3.277579e-09)) ((3.338818e-13 2.903840e-11 -2.684636e-13) (8.898694e-13 2.223603e-07 4.351726e-12))
0.249587      	((-1.575905e-07 -1.751724e-09 -1.264656e-06) (-5.800760e-06 -1.116786e-10 -3.585783e-09)) ((3.411938e-13 3.294746e-12 2.429613e-15) (5.110893e-13 2.018599e-07 4.271948e-12))
0.311504      	((-7.768647e-07 -4.461774e-10 -8.220248e-07) (-5.147412e-06 -6.632665e-11 -3.989955e-09)) ((1.702749e-13 -4.460161e-12 -1.520625e-15) (5.135120e-13 1.817532e-07 3.676146e-12))
0.385805      	((-1.074263e-06 -9.761403e-11 -5.311288e-07) (-4.544277e-06 -3.613112e-11 -4.385481e-09)) ((9.244878e-14 -5.821907e-12 7.064087e-15) (4.950741e-13 1.625328e-07 2.830138e-12))
0.474966      	((-1.213577e-06 9.229909e-11 -3.540984e-07) (-4.003396e-06 -1.806283e-11 -4.738950e-09)) ((4.347898e-14 -7.404254e-12 1.002044e-14) (5.222275e-13 1.447308e-07 2.140085e-12))
0.581959      	((-1.269646e-06 3.660432e-11 -2.357474e-07) (-3.529839e-06 -7.931429e-12 -5.104703e-09)) ((2.090391e-14 -9.003836e-12 4.960920e-15) (5.974739e-13 1.286752e-07 1.474822e-12))
0.710351      	((-1.264641e-06 3.736287e-11 -1.679650e-07) (-3.123752e-06 -2.931711e-12 -5.458983e-09)) ((1.052135e-14 -1.004005e-11 8.958813e-16) (6.527836e-13 1.145534e-07 9.690962e-13))
0.864421      	((-1.219062e-06 -1.416498e-11 -1.248355e-07) (-2.779943e-06 -1.111862e-12 -5.742093e-09)) ((6.546881e-15 -1.021994e-11 -4.714408e-16) (5.423933e-13 1.023690e-07 6.975239e-13))
1.049306      	((-1.152088e-06 -1.461881e-11 -1.011499e-07) (-2.489651e-06 -3.381537e-12 -5.990348e-09)) ((2.423897e-15 -9.786297e-12 8.432110e-16) (3.425425e-13 9.194098e-08 5.353496e-13))
1.271167      	((-1.077653e-06 -2.851379e-11 -8.659003e-08) (-2.243867e-06 -4.207346e-12 -6.238676e-09)) ((3.815638e-15 -9.104885e-12 -1.321716e-15) (2.048698e-13 8.299489e-08 4.490427e-13))
1.5374        	((-1.001598e-06 -3.536012e-11 -8.021121e-08) (-2.032997e-06 -5.208957e-12 -6.540877e-09)) ((3.441408e-15 -8.417163e-12 -1.595630e-15) (9.820930e-14 7.523666e-08 3.770648e-13))
1.85688       	((-9.273599e-07 -2.031114e-11 -7.777479e-08) (-1.848333e-06 -3.816518e-12 -6.930987e-09)) ((3.921242e-15 -7.704697e-12 -1.350913e-15) (3.475687e-14 6.841059e-08 2.893130e-13))
2.240256      	((-8.568815e-07 -2.328357e-11 -7.882216e-08) (-1.684191e-06 -6.363855e-13 -7.397987e-09)) ((4.127105e-15 -7.083475e-12 -4.174689e-16) (1.185795e-15 6.233229e-08 2.819842e-13))
2.700307      	((-7.909753e-07 -3.210611e-11 -8.124733e-08) (-1.536995e-06 1.123482e-12 -7.882431e-09)) ((5.275224e-15 -6.556280e-12 8.557360e-17) (-6.268652e-14 5.687877e-08 3.860532e-13))
3.252369      	((-7.294736e-07 -4.547845e-11 -8.446736e-08) (-1.404377e-06 1.518469e-12 -8.381323e-09)) ((6.055782e-15 -6.046787e-12 6.742977e-17) (-1.771907e-13 5.196460e-08 4.891404e-13))
3.914842      	((-6.715993e-07 -4.698578e-11 -8.779640e-08) (-1.284629e-06 1.690230e-12 -8.945820e-09)) ((6.540751e-15 -5.538304e-12 -1.782307e-16) (-3.126976e-13 4.752560e-08 5.424563e-13))
4.709811      	((-6.177403e-07 -3.716024e-11 -9.118689e-08) (-1.176448e-06 1.271646e-12 -9.558483e-09)) ((5.280360e-15 -5.059938e-12 -3.068845e-16) (-4.112897e-13 4.351518e-08 5.615067e-13))
5.663773      	((-5.681046e-07 -1.543613e-11 -9.420718e-08) (-1.078913e-06 9.937089e-13 -1.020260e-08)) ((3.951677e-15 -4.645419e-12 -7.155165e-16) (-4.722181e-13 3.989949e-08 5.358600e-13))
6.808528      	((-5.226164e-07 1.692171e-11 -9.673570e-08) (-9.912374e-07 1.391728e-12 -1.087154e-08)) ((4.307929e-15 -4.292665e-12 -9.255535e-16) (-4.770589e-13 3.664915e-08 5.289050e-13))
8.182233      	((-4.810400e-07 -2.794563e-12 -9.882605e-08) (-9.125481e-07 9.134499e-13 -1.157261e-08)) ((4.418115e-15 -3.979549e-12 -8.358763e-16) (-4.812393e-13 3.373240e-08 6.016219e-13))
9.83068       	((-4.433169e-07 -3.672350e-11 -1.005436e-07) (-8.418624e-07 2.637489e-12 -1.232199e-08)) ((3.724586e-15 -3.698476e-12 -1.024153e-15) (-5.872735e-13 3.111333e-08 7.740247e-13))
11.808816     	((-4.088126e-07 -5.573709e-11 -1.018091e-07) (-7.781721e-07 4.094298e-12 -1.313037e-08)) ((3.760369e-15 -3.443439e-12 -1.315744e-15) (-7.210093e-13 2.875382e-08 1.152760e-12))
14.182579     	((-3.772695e-07 -4.097216e-11 -1.027592e-07) (-7.205494e-07 4.662689e-12 -1.400121e-08)) ((2.608072e-15 -3.207046e-12 -1.069652e-15) (-7.751973e-13 2.661904e-08 1.770509e-12))
17.031095     	((-3.485780e-07 -5.413231e-11 -1.034529e-07) (-6.682108e-07 6.669608e-12 -1.493754e-08)) ((4.171010e-15 -2.992645e-12 -3.792720e-16) (-8.534928e-13 2.467978e-08 2.543109e-12))
20.449314     	((-3.224846e-07 -9.278232e-11 -1.039632e-07) (-6.205655e-07 5.945723e-12 -1.595219e-08)) ((5.979070e-15 -2.799833e-12 1.732302e-16) (-1.074150e-12 2.291390e-08 3.197418e-12))
24.551176     	((-2.988016e-07 -1.044746e-10 -1.041349e-07) (-5.771940e-07 4.254931e-12 -1.704629e-08)) ((6.812742e-15 -2.626453e-12 2.503801e-16) (-1.353707e-12 2.130570e-08 3.723701e-12))
29.473411     	((-2.774187e-07 -1.053871e-10 -1.040084e-07) (-5.377616e-07 2.388555e-12 -1.820290e-08)) ((9.171319e-15 -2.475684e-12 -3.656268e-16) (-1.661183e-12 1.984352e-08 4.178199e-12))
35.380094     	((-2.580975e-07 -1.025212e-10 -1.035473e-07) (-5.019919e-07 1.292232e-13 -1.941845e-08)) ((1.037882e-14 -2.341833e-12 -1.018953e-15) (-1.918123e-12 1.851718e-08 4.689430e-12))
42.468112     	((-2.408119e-07 -1.140113e-10 -1.028987e-07) (-4.696022e-07 -1.249117e-12 -2.067773e-08)) ((1.053436e-14 -2.225598e-12 -9.097585e-16) (-2.060113e-12 1.731621e-08 5.352133e-12))
50.973735     	((-2.254397e-07 -1.317585e-10 -1.019474e-07) (-4.403122e-07 -3.735778e-12 -2.196778e-08)) ((1.163947e-14 -2.124403e-12 -2.107753e-16) (-2.196836e-12 1.623031e-08 6.242882e-12))
61.180482     	((-2.118356e-07 -1.181453e-10 -1.007448e-07) (-4.138493e-07 -3.528170e-12 -2.328227e-08)) ((1.194826e-14 -2.038560e-12 3.920861e-16) (-2.292318e-12 1.524928e-08 7.372937e-12))
73.428578     	((-1.998415e-07 -1.052635e-10 -9.930292e-08) (-3.899460e-07 -2.466652e-12 -2.462085e-08)) ((1.133225e-14 -1.968075e-12 8.778452e-16) (-2.318477e-12 1.436333e-08 8.717265e-12))
88.126294     	((-1.893825e-07 -8.500257e-11 -9.769076e-08) (-3.683525e-07 -6.316920e-13 -2.598291e-08)) ((1.047978e-14 -1.913057e-12 1.233470e-15) (-2.253644e-12 1.356326e-08 1.026592e-11))
105.763553    	((-1.803467e-07 -6.753092e-11 -9.596382e-08) (-3.488654e-07 1.298419e-12 -2.736705e-08)) ((9.774474e-15 -1.872008e-12 1.563479e-15) (-2.114284e-12 1.284156e-08 1.192543e-11))
126.928263    	((-1.727437e-07 -4.964878e-11 -9.405865e-08) (-3.313232e-07 3.022646e-12 -2.876850e-08)) ((8.883178e-15 -1.843940e-12 1.896705e-15) (-1.936651e-12 1.219239e-08 1.355454e-11))
152.325916    	((-1.664418e-07 -3.198580e-11 -9.206480e-08) (-3.155922e-07 4.988268e-12 -3.018477e-08)) ((7.593182e-15 -1.828700e-12 1.913943e-15) (-1.669146e-12 1.161105e-08 1.506305e-11))
182.803099    	((-1.613464e-07 -1.632739e-11 -8.993708e-08) (-3.015679e-07 6.431553e-12 -3.161308e-08)) ((6.444981e-15 -1.825235e-12 1.916467e-15) (-1.361158e-12 1.109394e-08 1.639833e-11))
219.375719    	((-1.573880e-07 -1.492126e-13 -8.773896e-08) (-2.891615e-07 7.407841e-12 -3.305102e-08)) ((5.369063e-15 -1.833482e-12 1.826008e-15) (-1.033580e-12 1.063810e-08 1.753161e-11))
263.262863    	((-1.543990e-07 2.087698e-11 -8.546506e-08) (-2.782868e-07 8.459937e-12 -3.449644e-08)) ((4.509737e-15 -1.850154e-12 1.554165e-15) (-6.999992e-13 1.024052e-08 1.839846e-11))
315.927436    	((-1.523512e-07 3.633447e-11 -8.317823e-08) (-2.688647e-07 9.556039e-12 -3.593901e-08)) ((3.722403e-15 -1.873212e-12 1.382705e-15) (-3.646909e-13 9.898105e-09 1.900073e-11))
379.124923    	((-1.511389e-07 4.654955e-11 -8.090314e-08) (-2.608145e-07 1.020990e-11 -3.735484e-08)) ((3.147766e-15 -1.899369e-12 1.342739e-15) (-3.938962e-14 9.607470e-09 1.933338e-11))
454.961908    	((-1.505201e-07 5.384881e-11 -7.865799e-08) (-2.540348e-07 1.087135e-11 -3.870947e-08)) ((2.869845e-15 -1.923733e-12 1.331261e-15) (2.700817e-13 9.364124e-09 1.940364e-11))
545.966289    	((-1.502782e-07 6.154046e-11 -7.643804e-08) (-2.483950e-07 1.204060e-11 -3.996134e-08)) ((2.737485e-15 -1.944095e-12 1.288233e-15) (5.878698e-13 9.162537e-09 1.925273e-11))
653.248003    	((-1.502341e-07 7.160463e-11 -7.429515e-08) (-2.437567e-07 1.376720e-11 -4.107076e-08)) ((2.738426e-15 -1.958859e-12 1.191280e-15) (9.201464e-13 8.997107e-09 1.890995e-11))
776.805791    	((-1.502192e-07 7.633840e-11 -7.227850e-08) (-2.399575e-07 1.629665e-11 -4.201933e-08)) ((3.057600e-15 -1.967921e-12 1.130105e-15) (1.244126e-12 8.861813e-09 1.842342e-11))
916.647314    	((-1.501739e-07 8.004216e-11 -7.046176e-08) (-2.368456e-07 2.003119e-11 -4.281184e-08)) ((3.409423e-15 -1.972026e-12 1.016961e-15) (1.551841e-12 8.751273e-09 1.785331e-11))
1072.786399   	((-1.500922e-07 8.212864e-11 -6.890616e-08) (-2.342897e-07 2.443427e-11 -4.346740e-08)) ((3.799378e-15 -1.972441e-12 9.494200e-16) (1.817939e-12 8.660915e-09 1.722193e-11))
1235.918001   	((-1.500283e-07 8.168292e-11 -6.762404e-08) (-2.321987e-07 2.882240e-11 -4.400811e-08)) ((4.069367e-15 -1.970560e-12 8.626519e-16) (2.028718e-12 8.587528e-09 1.655673e-11))
1399.193595   	((-1.499569e-07 7.935333e-11 -6.660382e-08) (-2.304828e-07 3.290525e-11 -4.445814e-08)) ((4.309274e-15 -1.966997e-12 8.004530e-16) (2.177563e-12 8.527873e-09 1.587241e-11))
1562.593125   	((-1.498864e-07 7.543840e-11 -6.578317e-08) (-2.290743e-07 3.653954e-11 -4.483491e-08)) ((4.564442e-15 -1.962708e-12 7.773930e-16) (2.268765e-12 8.479431e-09 1.517720e-11))
1726.097213   	((-1.498195e-07 7.073262e-11 -6.511560e-08) (-2.279158e-07 3.965432e-11 -4.515198e-08)) ((4.848113e-15 -1.958305e-12 7.317602e-16) (2.306782e-12 8.440056e-09 1.448642e-11))
1889.689229   	((-1.497583e-07 6.503857e-11 -6.456527e-08) (-2.269610e-07 4.208791e-11 -4.541993e-08)) ((5.154407e-15 -1.954085e-12 7.079927e-16) (2.293557e-12 8.408008e-09 1.380475e-11))
2053.354963   	((-1.497034e-07 5.846113e-11 -6.411175e-08) (-2.261725e-07 4.382171e-11 -4.564719e-08)) ((5.466747e-15 -1.950209e-12 6.700097e-16) (2.234190e-12 8.381865e-09 1.314019e-11))
2217.082318   	((-1.496545e-07 5.133516e-11 -6.373322e-08) (-2.255196e-07 4.490188e-11 -4.584050e-08)) ((5.762404e-15 -1.946673e-12 6.282007e-16) (2.138394e-12 8.360489e-09 1.249785e-11))
2380.861005   	((-1.496115e-07 4.394243e-11 -6.341851e-08) (-2.249781e-07 4.536475e-11 -4.600525e-08)) ((6.046475e-15 -1.943436e-12 5.842997e-16) (2.013701e-12 8.342966e-09 1.188122e-11))
2544.682383   	((-1.495747e-07 3.627172e-11 -6.315651e-08) (-2.245279e-07 4.524061e-11 -4.614575e-08)) ((6.321520e-15 -1.940600e-12 5.457080e-16) (1.865274e-12 8.328569e-09 1.129643e-11))
2708.53924    	((-1.495432e-07 2.857310e-11 -6.293754e-08) (-2.241530e-07 4.470817e-11 -4.626557e-08)) ((6.586527e-15 -1.938168e-12 5.172598e-16) (1.700744e-12 8.316714e-09 1.074826e-11))
2872.425611   	((-1.495167e-07 2.103570e-11 -6.275466e-08) (-2.238402e-07 4.382158e-11 -4.636778e-08)) ((6.846618e-15 -1.936045e-12 4.872500e-16) (1.525187e-12 8.306930e-09 1.023713e-11))
3036.33656    	((-1.494939e-07 1.377386e-11 -6.260164e-08) (-2.235789e-07 4.269764e-11 -4.645499e-08)) ((7.088384e-15 -1.934149e-12 4.610915e-16) (1.344778e-12 8.298833e-09 9.762515e-12))
3200.268019   	((-1.494746e-07 6.901801e-12 -6.247283e-08) (-2.233603e-07 4.142282e-11 -4.652933e-08)) ((7.310963e-15 -1.932456e-12 4.366938e-16) (1.164415e-12 8.292120e-09 9.323341e-12))
3364.21663    	((-1.494582e-07 4.444802e-13 -6.236504e-08) (-2.231772e-07 4.002724e-11 -4.659262e-08)) ((7.514587e-15 -1.931001e-12 4.129078e-16) (9.872931e-13 8.286544e-09 8.919499e-12))
3528.179621   	((-1.494443e-07 -5.550031e-12 -6.227634e-08) (-2.230235e-07 3.854634e-11 -4.664647e-08)) ((7.695079e-15 -1.929775e-12 3.917810e-16) (8.158141e-13 8.281903e-09 8.551000e-12))
3692.154692   	((-1.494326e-07 -1.110300e-11 -6.219989e-08) (-2.228944e-07 3.702671e-11 -4.669229e-08)) ((7.858729e-15 -1.928760e-12 3.744065e-16) (6.517329e-13 8.278033e-09 8.215981e-12))
3856.139932   	((-1.494228e-07 -1.631405e-11 -6.213577e-08) (-2.227858e-07 3.549819e-11 -4.673126e-08)) ((8.006342e-15 -1.927889e-12 3.606086e-16) (4.960457e-13 8.274801e-09 7.912636e-12))
4020.133749   	((-1.494144e-07 -2.099814e-11 -6.208169e-08) (-2.226945e-07 3.398637e-11 -4.676439e-08)) ((8.133796e-15 -1.927149e-12 3.493944e-16) (3.491306e-13 8.272097e-09 7.639248e-12))
4184.134812   	((-1.494071e-07 -2.528073e-11 -6.203625e-08) (-2.226177e-07 3.252302e-11 -4.679254e-08)) ((8.248764e-15 -1.926513e-12 3.419773e-16) (2.115984e-13 8.269833e-09 7.392926e-12))
4348.142006   	((-1.494011e-07 -2.913754e-11 -6.199792e-08) (-2.225529e-07 3.112071e-11 -4.681646e-08)) ((8.353009e-15 -1.925964e-12 3.334692e-16) (8.396706e-14 8.267935e-09 7.171763e-12))
4512.154396   	((-1.493960e-07 -3.259662e-11 -6.196583e-08) (-2.224983e-07 2.979169e-11 -4.683676e-08)) ((8.449096e-15 -1.925497e-12 3.228047e-16) (-3.389365e-14 8.266342e-09 6.973788e-12))
4676.171195   	((-1.493917e-07 -3.567299e-11 -6.193860e-08) (-2.224523e-07 2.854507e-11 -4.685397e-08)) ((8.534314e-15 -1.925094e-12 3.146826e-16) (-1.419061e-13 8.265004e-09 6.797182e-12))
4840.191737   	((-1.493881e-07 -3.841659e-11 -6.191559e-08) (-2.224135e-07 2.738104e-11 -4.686856e-08)) ((8.608773e-15 -1.924751e-12 3.073497e-16) (-2.402974e-13 8.263880e-09 6.640234e-12))
5004.215462   	((-1.493848e-07 -4.086544e-11 -6.189615e-08) (-2.223807e-07 2.630548e-11 -4.688094e-08)) ((8.674164e-15 -1.924463e-12 2.996583e-16) (-3.295162e-13 8.262934e-09 6.500958e-12))
5168.241892   	((-1.493822e-07 -4.299850e-11 -6.187980e-08) (-2.223530e-07 2.532051e-11 -4.689143e-08)) ((8.730164e-15 -1.924225e-12 2.925914e-16) (-4.100271e-13 8.262139e-09 6.377593e-12))
5332.270625   	((-1.493800e-07 -4.489767e-11 -6.186576e-08) (-2.223297e-07 2.442179e-11 -4.690032e-08)) ((8.780106e-15 -1.924023e-12 2.869015e-16) (-4.824575e-13 8.261469e-09 6.268653e-12))
5496.301318   	((-1.493782e-07 -4.656485e-11 -6.185420e-08) (-2.223099e-07 2.360820e-11 -4.690785e-08)) ((8.824093e-15 -1.923853e-12 2.819230e-16) (-5.473638e-13 8.260904e-09 6.172530e-12))
5660.33368    	((-1.493765e-07 -4.804462e-11 -6.184414e-08) (-2.222932e-07 2.287396e-11 -4.691424e-08)) ((8.862690e-15 -1.923707e-12 2.778358e-16) (-6.053367e-13 8.260428e-09 6.087909e-12))
5824.367464   	((-1.493752e-07 -4.932879e-11 -6.183591e-08) (-2.222791e-07 2.221517e-11 -4.691965e-08)) ((8.896413e-15 -1.923584e-12 2.743548e-16) (-6.568943e-13 8.260026e-09 6.013583e-12))
5988.402459   	((-1.493741e-07 -5.045153e-11 -6.182888e-08) (-2.222672e-07 2.162567e-11 -4.692423e-08)) ((8.925500e-15 -1.923483e-12 2.708506e-16) (-7.026404e-13 8.259687e-09 5.948441e-12))
6152.438486   	((-1.493731e-07 -5.142516e-11 -6.182301e-08) (-2.222572e-07 2.110048e-11 -4.692812e-08)) ((8.951321e-15 -1.923395e-12 2.676903e-16) (-7.431314e-13 8.259401e-09 5.891383e-12))
6316.475391   	((-1.493723e-07 -5.228584e-11 -6.181798e-08) (-2.222486e-07 2.063420e-11 -4.693141e-08)) ((8.973863e-15 -1.923320e-12 2.650208e-16) (-7.788744e-13 8.259159e-09 5.841476e-12))
6480.513046   	((-1.493716e-07 -5.302704e-11 -6.181373e-08) (-2.222414e-07 2.022206e-11 -4.693420e-08)) ((8.993559e-15 -1.923256e-12 2.627066e-16) (-8.103438e-13 8.258955e-09 5.797852e-12))
6644.551338   	((-1.493710e-07 -5.369806e-11 -6.181032e-08) (-2.222353e-07 1.985798e-11 -4.693656e-08)) ((9.011112e-15 -1.923202e-12 2.606514e-16) (-8.380359e-13 8.258783e-09 5.759789e-12))
6808.590174   	((-1.493706e-07 -5.425955e-11 -6.180725e-08) (-2.222302e-07 1.953810e-11 -4.693856e-08)) ((9.025711e-15 -1.923157e-12 2.589307e-16) (-8.622994e-13 8.258637e-09 5.726636e-12))
6972.629472   	((-1.493702e-07 -5.474358e-11 -6.180465e-08) (-2.222258e-07 1.925746e-11 -4.694026e-08)) ((9.038489e-15 -1.923118e-12 2.573919e-16) (-8.835457e-13 8.258514e-09 5.697758e-12))
7136.669165   	((-1.493698e-07 -5.516603e-11 -6.180241e-08) (-2.222221e-07 1.901169e-11 -4.694169e-08)) ((9.049543e-15 -1.923084e-12 2.560724e-16) (-9.021205e-13 8.258410e-09 5.672645e-12))
