# Forces      
# CofR        : (0.000000e+00 0.000000e+00 0.000000e+00)
# Time        forces(pressure viscous)	moments(pressure viscous)
0             	((0.000000e+00 0.000000e+00 0.000000e+00) (0.000000e+00 0.000000e+00 0.000000e+00)) ((0.000000e+00 0.000000e+00 0.000000e+00) (0.000000e+00 0.000000e+00 0.000000e+00))
0.012         	((4.098229e-09 3.629543e-05 5.860279e-06) (-3.761991e-11 8.342978e-05 -3.520169e-09)) ((5.376922e-09 1.810330e-11 -4.948683e-11) (5.551923e-06 -1.934851e-13 9.034862e-12))
0.0264        	((-1.365987e-08 4.877631e-05 1.239002e-05) (-9.238013e-11 7.643112e-05 -1.126796e-08)) ((-2.303694e-09 3.865308e-11 -2.338869e-11) (5.091809e-06 -3.244280e-13 7.976663e-12))
0.04368       	((2.186239e-08 3.297530e-05 6.660849e-06) (-1.845317e-10 6.923775e-05 -2.644269e-08)) ((-1.632989e-09 1.513674e-11 -2.666705e-11) (4.620526e-06 1.053533e-12 1.714775e-11))
0.064416      	((-1.484666e-08 3.729240e-05 8.588100e-06) (-2.358931e-10 6.203302e-05 -5.000425e-08)) ((-3.347662e-09 1.863598e-11 -1.813343e-11) (4.150452e-06 -8.225092e-12 1.781727e-11))
0.0892992     	((1.901317e-08 2.755448e-05 5.631424e-06) (-2.207349e-10 5.504705e-05 -8.161743e-08)) ((-2.320999e-09 6.053518e-12 -1.149045e-11) (3.696733e-06 -1.487154e-11 7.852919e-13))
0.119159      	((2.158968e-09 2.824247e-05 6.059174e-06) (-2.928772e-10 4.851859e-05 -1.193285e-07)) ((-2.863906e-09 8.285879e-12 -6.374864e-12) (3.275219e-06 -2.258832e-11 -1.212808e-11))
0.154991      	((1.294377e-08 2.155767e-05 4.224564e-06) (-4.647344e-10 4.264751e-05 -1.644717e-07)) ((-1.980119e-09 -2.346078e-12 -3.159269e-12) (2.895510e-06 -3.468562e-11 -1.802482e-11))
0.197989      	((5.826133e-09 2.130335e-05 4.163611e-06) (-6.931469e-10 3.749694e-05 -2.191826e-07)) ((-2.299094e-09 3.381868e-13 -5.402022e-12) (2.561696e-06 -4.961854e-11 -2.126846e-11))
0.249587      	((1.188882e-08 1.695058e-05 3.127141e-06) (-1.308012e-09 3.305543e-05 -2.787704e-07)) ((-1.704546e-09 -7.423466e-12 -7.110872e-12) (2.271516e-06 -6.071858e-11 -1.954373e-11))
0.311504      	((1.123178e-08 1.636340e-05 2.855458e-06) (-1.345278e-09 2.925530e-05 -3.305659e-07)) ((-1.922893e-09 -3.597398e-12 -1.127881e-11) (2.021745e-06 -8.450387e-11 -2.212771e-11))
0.385805      	((9.622869e-09 1.355635e-05 2.238621e-06) (-1.366870e-09 2.599870e-05 -3.835577e-07)) ((-1.542839e-09 -8.025213e-12 -1.059837e-11) (1.806614e-06 -1.035751e-10 -2.704051e-11))
0.474966      	((9.169546e-09 1.279860e-05 1.880246e-06) (-1.466782e-09 2.318880e-05 -4.215814e-07)) ((-1.636672e-09 -8.439189e-12 -1.080931e-11) (1.620459e-06 -1.121913e-10 -3.043908e-11))
0.581959      	((8.138160e-09 1.093294e-05 1.444115e-06) (-1.326365e-09 2.075449e-05 -4.630484e-07)) ((-1.411871e-09 -7.946563e-12 -8.897201e-12) (1.459217e-06 -1.269755e-10 -2.437469e-11))
0.710351      	((8.415885e-09 1.025284e-05 1.116368e-06) (-9.843458e-10 1.863820e-05 -4.987448e-07)) ((-1.428158e-09 -1.703548e-11 -7.701503e-12) (1.319325e-06 -1.480864e-10 -1.638999e-11))
0.864421      	((1.061446e-08 8.944690e-06 7.479146e-07) (-9.752120e-10 1.678431e-05 -5.370131e-07)) ((-1.295569e-09 -1.157975e-11 -5.250094e-12) (1.197136e-06 -1.753059e-10 -8.698615e-12))
1.049306      	((3.866099e-09 8.331529e-06 4.266189e-07) (-8.866685e-10 1.514670e-05 -5.701287e-07)) ((-1.290698e-09 -2.248032e-11 -3.802061e-12) (1.089680e-06 -1.769638e-10 1.410406e-12))
1.271167      	((8.293884e-09 7.371867e-06 9.145544e-08) (-1.136617e-09 1.368783e-05 -6.028460e-07)) ((-1.200448e-09 -1.732710e-11 -1.813680e-12) (9.943126e-07 -1.875615e-10 1.792327e-11))
1.5374        	((2.925754e-09 6.825453e-06 -2.210508e-07) (-1.341311e-09 1.238485e-05 -6.294551e-07)) ((-1.186745e-09 -2.750274e-11 -1.246700e-13) (9.095257e-07 -2.122833e-10 4.180385e-11))
1.85688       	((7.462673e-09 6.087328e-06 -5.125099e-07) (-1.146520e-09 1.122517e-05 -6.533502e-07)) ((-1.120217e-09 -2.324076e-11 9.808463e-14) (8.343287e-07 -2.284165e-10 6.748939e-11))
2.240256      	((4.870950e-09 5.640596e-06 -8.049766e-07) (-9.586066e-10 1.020290e-05 -6.734161e-07)) ((-1.108658e-09 -2.976989e-11 -3.309716e-13) (7.683338e-07 -2.411704e-10 8.474737e-11))
2.700307      	((3.967054e-09 5.090978e-06 -1.080525e-06) (-6.973148e-10 9.308777e-06 -6.940515e-07)) ((-1.067704e-09 -2.757020e-11 -9.401284e-13) (7.108540e-07 -2.438839e-10 9.963353e-11))
3.252369      	((4.121974e-09 4.744806e-06 -1.354985e-06) (-5.227364e-10 8.530531e-06 -7.162576e-07)) ((-1.060390e-09 -3.170810e-11 -1.264164e-12) (6.609651e-07 -2.373311e-10 1.121588e-10))
3.914842      	((3.298793e-09 4.359773e-06 -1.630257e-06) (-5.108748e-10 7.850305e-06 -7.414442e-07)) ((-1.039700e-09 -3.133793e-11 -1.502730e-12) (6.175145e-07 -2.162941e-10 1.198449e-10))
4.709811      	((3.525919e-09 4.095959e-06 -1.945566e-06) (-5.243127e-10 7.249248e-06 -7.696351e-07)) ((-1.036235e-09 -3.518792e-11 -1.922626e-12) (5.793067e-07 -1.974626e-10 1.129952e-10))
5.663773      	((3.168155e-09 3.831863e-06 -2.258860e-06) (-7.075546e-10 6.712705e-06 -8.006100e-07)) ((-1.024202e-09 -3.700468e-11 -2.105746e-12) (5.454417e-07 -1.892420e-10 9.685881e-11))
6.808528      	((4.536741e-09 3.656570e-06 -2.585356e-06) (-5.694592e-10 6.230041e-06 -8.352739e-07)) ((-1.022637e-09 -4.060968e-11 -2.217821e-12) (5.152576e-07 -1.905910e-10 8.234794e-11))
8.182233      	((2.153326e-09 3.481041e-06 -2.903258e-06) (-1.690298e-10 5.793810e-06 -8.751085e-07)) ((-1.018793e-09 -4.307883e-11 -2.049194e-12) (4.882585e-07 -1.980834e-10 6.227803e-11))
9.83068       	((3.653023e-09 3.353519e-06 -3.225197e-06) (1.159515e-10 5.397915e-06 -9.200941e-07)) ((-1.021762e-09 -4.579918e-11 -2.133257e-12) (4.640612e-07 -2.099748e-10 4.647395e-11))
11.808816     	((2.354211e-09 3.246441e-06 -3.543250e-06) (-8.209956e-11 5.038178e-06 -9.708799e-07)) ((-1.024620e-09 -4.742317e-11 -2.231257e-12) (4.423365e-07 -2.064848e-10 3.590254e-11))
14.182579     	((3.517055e-09 3.183894e-06 -3.872084e-06) (-2.020798e-10 4.713069e-06 -1.028937e-06)) ((-1.030817e-09 -4.922209e-11 -2.487698e-12) (4.229178e-07 -1.992471e-10 2.752010e-11))
17.031095     	((4.049876e-09 3.150166e-06 -4.196602e-06) (-3.392075e-10 4.422870e-06 -1.094035e-06)) ((-1.035337e-09 -5.064063e-11 -2.715806e-12) (4.057631e-07 -1.966155e-10 1.832869e-11))
20.449314     	((5.710219e-09 3.155650e-06 -4.522522e-06) (-3.429503e-10 4.169104e-06 -1.164976e-06)) ((-1.043011e-09 -5.219228e-11 -2.905343e-12) (3.908697e-07 -1.917675e-10 7.801721e-12))
24.551176     	((6.503808e-09 3.184290e-06 -4.824480e-06) (-2.481288e-10 3.953869e-06 -1.240817e-06)) ((-1.051030e-09 -5.353960e-11 -3.129180e-12) (3.781755e-07 -1.829550e-10 -2.730496e-12))
29.36468      	((8.425653e-09 3.237068e-06 -5.121334e-06) (-1.338149e-10 3.778959e-06 -1.319276e-06)) ((-1.059211e-09 -5.486666e-11 -3.281946e-12) (3.676721e-07 -1.756573e-10 -7.234101e-12))
34.888652     	((9.427495e-09 3.304627e-06 -5.383824e-06) (-1.723454e-10 3.643944e-06 -1.397879e-06)) ((-1.065134e-09 -5.606414e-11 -3.328591e-12) (3.591591e-07 -1.738701e-10 -6.753865e-12))
41.122042     	((9.691018e-09 3.402117e-06 -5.641561e-06) (-2.900181e-10 3.546203e-06 -1.471068e-06)) ((-1.069986e-09 -5.749631e-11 -3.313799e-12) (3.524160e-07 -1.789883e-10 -4.489629e-12))
48.064526     	((8.519774e-09 3.524083e-06 -5.875122e-06) (-4.474806e-10 3.482116e-06 -1.533873e-06)) ((-1.074262e-09 -5.899450e-11 -3.309258e-12) (3.472678e-07 -1.805834e-10 -3.511360e-12))
55.157887     	((8.536148e-09 3.652098e-06 -6.068701e-06) (-5.518079e-10 3.447281e-06 -1.580683e-06)) ((-1.079767e-09 -6.030316e-11 -3.354413e-12) (3.437174e-07 -1.754926e-10 -3.991708e-12))
62.257121     	((8.811455e-09 3.757102e-06 -6.209149e-06) (-6.688896e-10 3.431618e-06 -1.611957e-06)) ((-1.084941e-09 -6.119966e-11 -3.466131e-12) (3.414075e-07 -1.684949e-10 -2.340395e-12))
69.366145     	((9.158283e-09 3.840908e-06 -6.310048e-06) (-7.749312e-10 3.426866e-06 -1.630932e-06)) ((-1.089714e-09 -6.173831e-11 -3.572505e-12) (3.399793e-07 -1.618479e-10 2.677921e-12))
76.487983     	((9.430232e-09 3.905136e-06 -6.379939e-06) (-8.665633e-10 3.427270e-06 -1.641230e-06)) ((-1.093575e-09 -6.199391e-11 -3.692265e-12) (3.391352e-07 -1.580328e-10 1.045986e-11))
83.624423     	((9.746506e-09 3.951388e-06 -6.433711e-06) (-9.649546e-10 3.429536e-06 -1.646216e-06)) ((-1.096493e-09 -6.213462e-11 -3.790467e-12) (3.386573e-07 -1.564893e-10 2.032104e-11))
90.775449     	((9.807360e-09 3.981230e-06 -6.474333e-06) (-1.056635e-09 3.431815e-06 -1.648821e-06)) ((-1.098572e-09 -6.221984e-11 -3.860836e-12) (3.383715e-07 -1.560307e-10 3.059513e-11))
97.93861      	((9.876793e-09 3.999671e-06 -6.507767e-06) (-1.124278e-09 3.433587e-06 -1.650506e-06)) ((-1.099716e-09 -6.228596e-11 -3.906673e-12) (3.381883e-07 -1.575095e-10 3.986403e-11))
105.111425    	((9.939788e-09 4.011835e-06 -6.534436e-06) (-1.140711e-09 3.434859e-06 -1.651735e-06)) ((-1.100417e-09 -6.235020e-11 -3.946187e-12) (3.380710e-07 -1.598955e-10 4.708172e-11))
112.292069    	((9.929177e-09 4.022348e-06 -6.557804e-06) (-1.123727e-09 3.435984e-06 -1.652478e-06)) ((-1.101302e-09 -6.243552e-11 -3.965702e-12) (3.380120e-07 -1.627151e-10 5.218786e-11))
119.478762    	((9.653082e-09 4.029386e-06 -6.578337e-06) (-1.099872e-09 3.437138e-06 -1.652937e-06)) ((-1.102119e-09 -6.253191e-11 -3.970958e-12) (3.379922e-07 -1.652463e-10 5.531499e-11))
126.670382    	((9.582408e-09 4.033712e-06 -6.597385e-06) (-1.079829e-09 3.438287e-06 -1.653362e-06)) ((-1.102468e-09 -6.262160e-11 -3.968131e-12) (3.379931e-07 -1.670712e-10 5.722618e-11))
133.866491    	((9.479512e-09 4.035991e-06 -6.614223e-06) (-1.065082e-09 3.439391e-06 -1.653941e-06)) ((-1.102525e-09 -6.270678e-11 -3.968388e-12) (3.380037e-07 -1.684242e-10 5.874285e-11))
141.066508    	((9.557351e-09 4.038382e-06 -6.629059e-06) (-1.042405e-09 3.440507e-06 -1.654677e-06)) ((-1.102500e-09 -6.278004e-11 -3.973915e-12) (3.380219e-07 -1.697915e-10 6.004472e-11))
148.26149     	((9.759987e-09 4.040536e-06 -6.642164e-06) (-1.003440e-09 3.441700e-06 -1.655517e-06)) ((-1.102447e-09 -6.284040e-11 -3.985437e-12) (3.380465e-07 -1.719994e-10 6.104515e-11))
155.452251    	((9.735169e-09 4.042177e-06 -6.653447e-06) (-9.630705e-10 3.442964e-06 -1.656434e-06)) ((-1.102375e-09 -6.289827e-11 -3.997904e-12) (3.380749e-07 -1.742766e-10 6.149755e-11))
162.639561    	((9.608675e-09 4.043176e-06 -6.663088e-06) (-9.388657e-10 3.444271e-06 -1.657382e-06)) ((-1.102295e-09 -6.294377e-11 -4.011340e-12) (3.381045e-07 -1.758675e-10 6.144299e-11))
169.823883    	((9.457787e-09 4.043936e-06 -6.671439e-06) (-9.303974e-10 3.445599e-06 -1.658312e-06)) ((-1.102225e-09 -6.297856e-11 -4.025230e-12) (3.381349e-07 -1.766598e-10 6.104497e-11))
177.00552     	((9.689074e-09 4.044804e-06 -6.679988e-06) (-9.097416e-10 3.446954e-06 -1.659168e-06)) ((-1.102164e-09 -6.300102e-11 -4.038572e-12) (3.381674e-07 -1.775453e-10 6.054023e-11))
184.184702    	((9.550243e-09 4.045438e-06 -6.687409e-06) (-9.032164e-10 3.448298e-06 -1.659947e-06)) ((-1.102107e-09 -6.302084e-11 -4.051673e-12) (3.382003e-07 -1.777548e-10 6.005984e-11))
191.361615    	((9.434012e-09 4.045844e-06 -6.694206e-06) (-9.048927e-10 3.449618e-06 -1.660658e-06)) ((-1.102046e-09 -6.303502e-11 -4.063652e-12) (3.382327e-07 -1.777439e-10 5.960659e-11))
198.536428    	((9.530281e-09 4.045849e-06 -6.700717e-06) (-9.055529e-10 3.450878e-06 -1.661321e-06)) ((-1.101985e-09 -6.304692e-11 -4.072947e-12) (3.382633e-07 -1.779856e-10 5.928415e-11))
205.709289    	((9.501368e-09 4.045554e-06 -6.706489e-06) (-9.094826e-10 3.452061e-06 -1.661943e-06)) ((-1.101927e-09 -6.306169e-11 -4.082271e-12) (3.382915e-07 -1.781225e-10 5.912313e-11))
212.880348    	((9.575621e-09 4.045125e-06 -6.711871e-06) (-9.099923e-10 3.453167e-06 -1.662513e-06)) ((-1.101873e-09 -6.307428e-11 -4.090046e-12) (3.383176e-07 -1.783024e-10 5.905988e-11))
220.049731    	((9.645305e-09 4.044450e-06 -6.716882e-06) (-9.065040e-10 3.454195e-06 -1.663034e-06)) ((-1.101817e-09 -6.308549e-11 -4.097807e-12) (3.383416e-07 -1.785222e-10 5.902716e-11))
227.217556    	((9.593009e-09 4.043676e-06 -6.721295e-06) (-9.047984e-10 3.455143e-06 -1.663517e-06)) ((-1.101764e-09 -6.309603e-11 -4.105155e-12) (3.383632e-07 -1.786580e-10 5.899369e-11))
234.383941    	((9.580549e-09 4.042843e-06 -6.725481e-06) (-9.013211e-10 3.456018e-06 -1.663958e-06)) ((-1.101710e-09 -6.310760e-11 -4.111573e-12) (3.383826e-07 -1.787427e-10 5.897313e-11))
241.549006    	((9.568726e-09 4.042054e-06 -6.729358e-06) (-8.961125e-10 3.456827e-06 -1.664369e-06)) ((-1.101660e-09 -6.311752e-11 -4.117901e-12) (3.384001e-07 -1.788060e-10 5.892666e-11))
248.71286     	((9.605465e-09 4.041692e-06 -6.732988e-06) (-8.880371e-10 3.457603e-06 -1.664749e-06)) ((-1.101621e-09 -6.312607e-11 -4.122597e-12) (3.384167e-07 -1.788380e-10 5.876327e-11))
255.875598    	((9.724140e-09 4.041446e-06 -6.736549e-06) (-8.736123e-10 3.458357e-06 -1.665099e-06)) ((-1.101585e-09 -6.313222e-11 -4.126043e-12) (3.384330e-07 -1.790191e-10 5.847506e-11))
263.037319    	((9.834722e-09 4.041328e-06 -6.740241e-06) (-8.543275e-10 3.459095e-06 -1.665423e-06)) ((-1.101553e-09 -6.313873e-11 -4.128476e-12) (3.384491e-07 -1.793152e-10 5.808228e-11))
270.198121    	((9.980440e-09 4.041225e-06 -6.744157e-06) (-8.304994e-10 3.459818e-06 -1.665724e-06)) ((-1.101519e-09 -6.314490e-11 -4.130351e-12) (3.384651e-07 -1.798137e-10 5.762996e-11))
277.358096    	((1.017790e-08 4.041091e-06 -6.748080e-06) (-8.010846e-10 3.460525e-06 -1.666004e-06)) ((-1.101484e-09 -6.315010e-11 -4.131631e-12) (3.384808e-07 -1.805929e-10 5.715386e-11))
284.517315    	((1.031518e-08 4.040756e-06 -6.751805e-06) (-7.699985e-10 3.461202e-06 -1.666271e-06)) ((-1.101447e-09 -6.315550e-11 -4.132913e-12) (3.384956e-07 -1.814894e-10 5.662853e-11))
291.675837    	((1.040122e-08 4.040320e-06 -6.755595e-06) (-7.406206e-10 3.461843e-06 -1.666533e-06)) ((-1.101411e-09 -6.316336e-11 -4.133321e-12) (3.385093e-07 -1.823453e-10 5.606752e-11))
298.833717    	((1.044730e-08 4.039688e-06 -6.759416e-06) (-7.141821e-10 3.462442e-06 -1.666791e-06)) ((-1.101375e-09 -6.317176e-11 -4.133718e-12) (3.385215e-07 -1.831040e-10 5.546852e-11))
