# Forces      
# CofR        : (0.000000e+00 0.000000e+00 0.000000e+00)
# Time        forces(pressure viscous)	moments(pressure viscous)
0             	((0.000000e+00 0.000000e+00 0.000000e+00) (-3.991695e-06 1.093575e-15 -3.880589e-11)) ((0.000000e+00 0.000000e+00 0.000000e+00) (-8.775633e-18 8.968857e-08 -2.288574e-17))
0.012         	((-1.160754e-03 1.946039e-09 1.228676e-04) (-4.581108e-06 6.821934e-12 -1.203986e-09)) ((4.428786e-14 -1.568420e-08 1.874986e-13) (3.845199e-14 1.321891e-07 -1.168149e-13))
0.0264        	((7.969208e-05 -2.031246e-08 -6.658551e-06) (-4.674932e-06 -4.767251e-12 -1.774725e-09)) ((4.968982e-13 1.098372e-09 -2.526673e-13) (-9.104645e-13 1.480205e-07 -2.238042e-13))
0.04368       	((2.431638e-04 1.674824e-08 -4.111507e-06) (-4.155292e-06 -2.710897e-12 -1.191415e-09)) ((-6.551190e-13 3.683505e-09 -2.154431e-13) (-1.064553e-12 1.318736e-07 -1.192831e-13))
0.064416      	((2.292009e-06 1.820880e-09 -5.516545e-06) (-3.680879e-06 -8.313452e-11 -6.609330e-10)) ((2.031883e-13 -4.087465e-11 -7.052440e-15) (-2.640011e-13 1.183735e-07 -3.911286e-13))
0.0892992     	((-3.312978e-06 2.497190e-09 -3.372532e-06) (-3.398558e-06 -1.230291e-10 -5.447989e-10)) ((-1.087810e-13 -1.680369e-10 4.293411e-14) (3.375112e-13 1.118950e-07 -3.297621e-13))
0.119159      	((3.618675e-06 -2.130565e-09 -1.991194e-06) (-3.138330e-06 -9.150844e-11 -7.162481e-10)) ((7.983821e-14 7.110580e-11 -4.596886e-14) (4.249654e-13 1.046921e-07 6.116378e-13))
0.154991      	((1.957452e-06 9.129307e-10 -1.209960e-06) (-2.862168e-06 -7.922039e-11 -9.283391e-10)) ((-1.669251e-14 4.148577e-11 -9.325232e-14) (4.204745e-13 9.666822e-08 1.339989e-12))
0.197989      	((4.768160e-07 -1.121488e-09 -7.565515e-07) (-2.583150e-06 -5.721127e-11 -9.504080e-10)) ((1.220876e-13 1.146918e-11 -9.752100e-14) (4.741852e-13 8.849642e-08 1.607682e-12))
0.249587      	((-6.144716e-08 -6.336635e-10 -4.635896e-07) (-2.309137e-06 -3.546120e-11 -9.696076e-10)) ((1.293701e-13 1.146247e-12 9.993113e-15) (3.705793e-13 8.031935e-08 1.496407e-12))
0.311504      	((-3.077681e-07 -1.824586e-10 -2.873425e-07) (-2.048329e-06 -1.766142e-11 -1.011570e-09)) ((5.602037e-14 -1.919375e-12 3.937504e-15) (3.337925e-13 7.229380e-08 1.174755e-12))
0.385805      	((-4.259509e-07 -7.031616e-11 -1.713890e-07) (-1.807306e-06 -7.656368e-12 -1.044688e-09)) ((2.759043e-14 -2.409699e-12 5.479545e-15) (2.733186e-13 6.461551e-08 8.885002e-13))
0.474966      	((-4.808207e-07 -1.290770e-11 -1.015751e-07) (-1.591010e-06 -1.870916e-12 -1.074222e-09)) ((1.401939e-14 -2.995196e-12 6.102177e-15) (2.278417e-13 5.750037e-08 6.906206e-13))
0.581959      	((-5.026720e-07 -3.500961e-12 -5.514780e-08) (-1.401702e-06 2.237479e-12 -1.108501e-09)) ((5.671059e-15 -3.618649e-12 2.849945e-15) (2.304918e-13 5.108649e-08 4.880071e-13))
0.710351      	((-5.004823e-07 2.234169e-11 -2.859604e-08) (-1.239572e-06 2.085429e-12 -1.134143e-09)) ((1.358492e-15 -4.023475e-12 3.901954e-16) (2.360545e-13 4.545198e-08 2.705302e-13))
0.864421      	((-4.823652e-07 1.217392e-11 -1.152358e-08) (-1.102562e-06 9.533656e-13 -1.144676e-09)) ((1.920634e-16 -4.096121e-12 7.514959e-16) (2.129421e-13 4.059864e-08 1.602370e-13))
1.049306      	((-4.558311e-07 1.539324e-11 -2.279161e-09) (-9.871368e-07 2.029136e-13 -1.152918e-09)) ((4.101972e-16 -3.906865e-12 7.212546e-17) (1.657103e-13 3.645426e-08 9.228295e-14))
1.271167      	((-4.264164e-07 1.181975e-11 3.295790e-09) (-8.896316e-07 -9.693167e-13 -1.161693e-09)) ((-2.043703e-17 -3.624593e-12 -2.848524e-16) (1.136079e-13 3.290714e-08 5.858838e-14))
1.5374        	((-3.964030e-07 3.924423e-12 5.631701e-09) (-8.061494e-07 -1.410374e-12 -1.184473e-09)) ((5.401675e-16 -3.344998e-12 -9.125054e-16) (6.939293e-14 2.983664e-08 3.655839e-14))
1.85688       	((-3.671554e-07 -2.349370e-12 6.456903e-09) (-7.331327e-07 -1.638277e-13 -1.228739e-09)) ((1.055367e-15 -3.055002e-12 -7.994374e-16) (4.269509e-14 2.713788e-08 1.902894e-14))
2.240256      	((-3.394164e-07 -8.934046e-12 5.865708e-09) (-6.682317e-07 1.504172e-12 -1.291746e-09)) ((1.279774e-15 -2.796367e-12 -4.500920e-16) (2.257559e-14 2.473475e-08 2.780479e-14))
2.700307      	((-3.134844e-07 -1.549408e-11 4.777312e-09) (-6.099927e-07 2.130208e-12 -1.365348e-09)) ((1.465379e-15 -2.577234e-12 -5.207475e-17) (-3.704085e-15 2.257676e-08 6.003254e-14))
3.252369      	((-2.892792e-07 -2.001491e-11 3.242445e-09) (-5.574788e-07 1.663442e-12 -1.445209e-09)) ((1.578952e-15 -2.364672e-12 2.354014e-16) (-3.549033e-14 2.063026e-08 1.170958e-13))
3.914842      	((-2.665564e-07 -1.851136e-11 1.694521e-09) (-5.100221e-07 1.083671e-12 -1.532242e-09)) ((1.608109e-15 -2.160664e-12 4.427762e-16) (-6.598889e-14 1.887097e-08 1.739665e-13))
4.709811      	((-2.454840e-07 -1.205043e-11 7.398520e-11) (-4.671255e-07 7.435125e-13 -1.629473e-09)) ((1.272093e-15 -1.976941e-12 2.982392e-16) (-8.304931e-14 1.728054e-08 1.947650e-13))
5.663773      	((-2.260772e-07 -8.531244e-12 -1.441799e-09) (-4.284201e-07 5.869695e-13 -1.732089e-09)) ((7.876610e-16 -1.815300e-12 6.799797e-17) (-8.323607e-14 1.584543e-08 1.788166e-13))
6.808528      	((-2.082721e-07 -7.552414e-12 -2.896490e-09) (-3.935970e-07 5.966087e-13 -1.832700e-09)) ((1.077981e-15 -1.673649e-12 -3.010654e-16) (-7.615879e-14 1.455448e-08 1.633320e-13))
8.182233      	((-1.919573e-07 -1.639184e-11 -4.239238e-09) (-3.623389e-07 3.728624e-13 -1.935908e-09)) ((1.251284e-15 -1.548657e-12 -5.657319e-16) (-8.643333e-14 1.339587e-08 1.845428e-13))
9.83068       	((-1.771369e-07 -2.478767e-11 -5.478642e-09) (-3.342664e-07 1.368197e-13 -2.049825e-09)) ((1.384678e-15 -1.434332e-12 -6.063313e-16) (-1.344294e-13 1.235557e-08 2.712563e-13))
11.808816     	((-1.635596e-07 -2.935635e-11 -6.561976e-09) (-3.089661e-07 6.039885e-13 -2.174511e-09)) ((1.871321e-15 -1.330082e-12 -4.231265e-16) (-1.990246e-13 1.141809e-08 4.490652e-13))
14.182579     	((-1.511608e-07 -2.028623e-11 -7.527468e-09) (-2.860599e-07 1.778435e-12 -2.311959e-09)) ((2.002186e-15 -1.235955e-12 -6.172196e-17) (-2.353851e-13 1.056919e-08 7.028656e-13))
17.031095     	((-1.398591e-07 -1.703368e-11 -8.400327e-09) (-2.652383e-07 2.955584e-12 -2.462811e-09)) ((2.505842e-15 -1.150492e-12 3.217320e-16) (-2.471709e-13 9.797340e-09 1.001574e-12))
20.449314     	((-1.295624e-07 -2.571125e-11 -9.211729e-09) (-2.462615e-07 3.545141e-12 -2.626271e-09)) ((3.009474e-15 -1.072568e-12 6.217307e-16) (-2.763129e-13 9.093637e-09 1.325014e-12))
24.551176     	((-1.201337e-07 -3.796136e-11 -9.899676e-09) (-2.289525e-07 3.104083e-12 -2.801229e-09)) ((3.437879e-15 -1.002109e-12 9.112130e-16) (-3.304034e-13 8.451593e-09 1.645034e-12))
29.473411     	((-1.115205e-07 -3.484254e-11 -1.045119e-08) (-2.131793e-07 2.699995e-12 -2.983672e-09)) ((3.559958e-15 -9.382514e-13 8.189204e-16) (-3.521299e-13 7.866447e-09 1.953046e-12))
35.380094     	((-1.036620e-07 -2.605059e-11 -1.092171e-08) (-1.988321e-07 3.403746e-12 -3.173053e-09)) ((3.153824e-15 -8.803894e-13 6.928872e-16) (-3.347535e-13 7.334258e-09 2.288834e-12))
42.468112     	((-9.653315e-08 -2.439718e-11 -1.127414e-08) (-1.858043e-07 3.982863e-12 -3.368780e-09)) ((2.979992e-15 -8.272846e-13 6.059719e-16) (-3.025244e-13 6.851055e-09 2.678692e-12))
50.973735     	((-9.007599e-08 -2.448402e-11 -1.152118e-08) (-1.739856e-07 4.918254e-12 -3.568315e-09)) ((2.953626e-15 -7.787464e-13 6.198797e-16) (-2.569891e-13 6.412686e-09 3.093759e-12))
61.180482     	((-8.424005e-08 -1.026782e-11 -1.166920e-08) (-1.632657e-07 6.990298e-12 -3.770650e-09)) ((2.380267e-15 -7.346161e-13 6.704374e-16) (-1.775096e-13 6.015069e-09 3.579298e-12))
73.428578     	((-7.896425e-08 -4.563067e-12 -1.176094e-08) (-1.535341e-07 9.150421e-12 -3.977721e-09)) ((1.769299e-15 -6.941435e-13 6.500817e-16) (-8.511079e-14 5.654103e-09 4.137704e-12))
88.126294     	((-7.422784e-08 -5.888256e-12 -1.180329e-08) (-1.446885e-07 1.085536e-11 -4.190043e-09)) ((1.445918e-15 -6.584640e-13 6.834913e-16) (-3.296980e-15 5.326012e-09 4.729602e-12))
105.763553    	((-6.996682e-08 -3.541883e-12 -1.179774e-08) (-1.366398e-07 1.222616e-11 -4.408286e-09)) ((1.041051e-15 -6.261637e-13 7.480556e-16) (8.147264e-14 5.027469e-09 5.333151e-12))
126.928263    	((-6.618076e-08 9.702567e-13 -1.174817e-08) (-1.293147e-07 1.359641e-11 -4.634731e-09)) ((5.430330e-16 -5.975474e-13 7.421206e-16) (1.792217e-13 4.755747e-09 5.922205e-12))
152.325916    	((-6.282268e-08 4.112444e-12 -1.166170e-08) (-1.226521e-07 1.484164e-11 -4.869122e-09)) ((2.106573e-16 -5.726298e-13 7.647348e-16) (2.823662e-13 4.508646e-09 6.465019e-12))
182.803099    	((-5.982488e-08 6.700832e-12 -1.153013e-08) (-1.165971e-07 1.586201e-11 -5.111562e-09)) ((-6.986466e-17 -5.509195e-13 7.789705e-16) (3.800872e-13 4.284209e-09 6.934346e-12))
219.375719    	((-5.715972e-08 1.019878e-11 -1.136383e-08) (-1.111017e-07 1.702499e-11 -5.361570e-09)) ((-3.051015e-16 -5.324074e-13 7.603037e-16) (4.683390e-13 4.080732e-09 7.313800e-12))
263.262863    	((-5.481314e-08 1.083797e-11 -1.117765e-08) (-1.061237e-07 1.782510e-11 -5.619862e-09)) ((-4.385623e-16 -5.167278e-13 7.587336e-16) (5.437537e-13 3.896686e-09 7.601046e-12))
315.927436    	((-5.277914e-08 1.128434e-11 -1.096558e-08) (-1.016264e-07 1.799231e-11 -5.885512e-09)) ((-5.054748e-16 -5.035835e-13 7.955363e-16) (6.077137e-13 3.730736e-09 7.793915e-12))
379.124923    	((-5.104337e-08 1.229744e-11 -1.073667e-08) (-9.757755e-08 1.779326e-11 -6.158346e-09)) ((-4.718389e-16 -4.928596e-13 8.408648e-16) (6.615771e-13 3.581703e-09 7.896622e-12))
454.961908    	((-4.957209e-08 1.430303e-11 -1.049273e-08) (-9.394791e-08 1.749579e-11 -6.437789e-09)) ((-4.487515e-16 -4.844700e-13 8.721978e-16) (7.064040e-13 3.448498e-09 7.937006e-12))
545.966289    	((-4.833759e-08 1.504733e-11 -1.024698e-08) (-9.071101e-08 1.718607e-11 -6.723269e-09)) ((-3.919516e-16 -4.778274e-13 8.713294e-16) (7.511887e-13 3.330106e-09 7.920913e-12))
655.171547    	((-4.731664e-08 1.449796e-11 -1.000127e-08) (-8.784195e-08 1.675252e-11 -7.013447e-09)) ((-2.730738e-16 -4.727151e-13 8.714139e-16) (7.955549e-13 3.225561e-09 7.851089e-12))
786.217856    	((-4.648376e-08 1.422746e-11 -9.769535e-09) (-8.531669e-08 1.595439e-11 -7.305626e-09)) ((-1.591208e-16 -4.687040e-13 8.695216e-16) (8.331541e-13 3.133906e-09 7.730500e-12))
943.473427    	((-4.581333e-08 1.415445e-11 -9.543330e-09) (-8.311081e-08 1.525237e-11 -7.595601e-09)) ((-7.285979e-17 -4.654749e-13 8.204322e-16) (8.657608e-13 3.054162e-09 7.559695e-12))
1132.180113   	((-4.527787e-08 1.506009e-11 -9.332020e-09) (-8.119915e-08 1.459609e-11 -7.878388e-09)) ((-1.591502e-17 -4.628159e-13 7.856516e-16) (8.950387e-13 2.985309e-09 7.343315e-12))
1358.628135   	((-4.484956e-08 1.658905e-11 -9.121803e-09) (-7.955492e-08 1.403681e-11 -8.148196e-09)) ((9.097985e-17 -4.602397e-13 7.542215e-16) (9.156536e-13 2.926296e-09 7.089721e-12))
1630.365763   	((-4.450570e-08 1.811354e-11 -8.931504e-09) (-7.815051e-08 1.362150e-11 -8.400336e-09)) ((2.210563e-16 -4.576903e-13 7.240943e-16) (9.315350e-13 2.876054e-09 6.799693e-12))
1955.112535   	((-4.422700e-08 1.943238e-11 -8.762604e-09) (-7.695812e-08 1.329180e-11 -8.631439e-09)) ((3.106506e-16 -4.550774e-13 7.122098e-16) (9.433128e-13 2.833553e-09 6.483912e-12))
2333.065643   	((-4.400210e-08 2.063211e-11 -8.593805e-09) (-7.595200e-08 1.303821e-11 -8.839509e-09)) ((4.108317e-16 -4.524865e-13 6.827576e-16) (9.476573e-13 2.797842e-09 6.146388e-12))
2764.388956   	((-4.381768e-08 2.081539e-11 -8.429136e-09) (-7.510611e-08 1.275242e-11 -9.024128e-09)) ((4.992763e-16 -4.498333e-13 6.733450e-16) (9.443231e-13 2.767973e-09 5.798698e-12))
3249.220171   	((-4.366625e-08 2.050128e-11 -8.286904e-09) (-7.439720e-08 1.244703e-11 -9.186072e-09)) ((5.810603e-16 -4.472335e-13 6.321991e-16) (9.339055e-13 2.743101e-09 5.448429e-12))
3785.463755   	((-4.354090e-08 2.011284e-11 -8.166908e-09) (-7.380387e-08 1.214338e-11 -9.326896e-09)) ((6.547574e-16 -4.447056e-13 5.911578e-16) (9.176037e-13 2.722449e-09 5.100993e-12))
4322.545223   	((-4.344080e-08 1.940767e-11 -8.079724e-09) (-7.330950e-08 1.185189e-11 -9.448293e-09)) ((7.354780e-16 -4.424031e-13 5.538789e-16) (8.953140e-13 2.705403e-09 4.761564e-12))
4860.097156   	((-4.335625e-08 1.833256e-11 -8.003137e-09) (-7.289654e-08 1.154324e-11 -9.552730e-09)) ((7.960620e-16 -4.402342e-13 5.218672e-16) (8.688177e-13 2.691312e-09 4.431511e-12))
5398.035486   	((-4.328633e-08 1.712929e-11 -7.938637e-09) (-7.255214e-08 1.124395e-11 -9.642230e-09)) ((8.542706e-16 -4.382715e-13 4.912288e-16) (8.393964e-13 2.679696e-09 4.112951e-12))
5936.289785   	((-4.322689e-08 1.588981e-11 -7.885800e-09) (-7.226397e-08 1.095505e-11 -9.718990e-09)) ((9.116299e-16 -4.364975e-13 4.635484e-16) (8.071453e-13 2.670096e-09 3.807420e-12))
6474.803827   	((-4.317727e-08 1.449977e-11 -7.838697e-09) (-7.202276e-08 1.067139e-11 -9.784797e-09)) ((9.577441e-16 -4.349061e-13 4.368425e-16) (7.724865e-13 2.662163e-09 3.516639e-12))
7013.531104   	((-4.313512e-08 1.310185e-11 -7.798867e-09) (-7.182028e-08 1.038214e-11 -9.841350e-09)) ((1.000727e-15 -4.334995e-13 4.120156e-16) (7.354631e-13 2.655586e-09 3.243573e-12))
7552.434187   	((-4.309969e-08 1.175409e-11 -7.764724e-09) (-7.165012e-08 1.007223e-11 -9.889982e-09)) ((1.045268e-15 -4.322696e-13 3.916945e-16) (6.964710e-13 2.650127e-09 2.989477e-12))
8091.482229   	((-4.306956e-08 1.047056e-11 -7.732330e-09) (-7.150674e-08 9.748145e-12 -9.931891e-09)) ((1.093742e-15 -4.311832e-13 3.751785e-16) (6.563828e-13 2.645580e-09 2.753816e-12))
8630.650249   	((-4.304413e-08 9.158265e-12 -7.702773e-09) (-7.138574e-08 9.407791e-12 -9.968053e-09)) ((1.148276e-15 -4.302372e-13 3.615217e-16) (6.155380e-13 2.641787e-09 2.536041e-12))
9169.91771    	((-4.302253e-08 7.925726e-12 -7.676879e-09) (-7.128340e-08 9.057054e-12 -9.999317e-09)) ((1.197363e-15 -4.294095e-13 3.495718e-16) (5.747355e-13 2.638613e-09 2.336240e-12))
9709.267898   	((-4.300420e-08 6.814080e-12 -7.654857e-09) (-7.119673e-08 8.721204e-12 -1.002636e-08)) ((1.234546e-15 -4.286894e-13 3.375116e-16) (5.343043e-13 2.635952e-09 2.153742e-12))
10248.687068  	((-4.298859e-08 5.808058e-12 -7.636044e-09) (-7.112320e-08 8.384900e-12 -1.004977e-08)) ((1.265188e-15 -4.280612e-13 3.254850e-16) (4.949120e-13 2.633715e-09 1.987451e-12))
10788.163969  	((-4.297527e-08 4.885276e-12 -7.619951e-09) (-7.106076e-08 8.054408e-12 -1.007007e-08)) ((1.292841e-15 -4.275162e-13 3.148293e-16) (4.572140e-13 2.631831e-09 1.836167e-12))
11327.689306  	((-4.296393e-08 4.045996e-12 -7.605978e-09) (-7.100765e-08 7.735489e-12 -1.008766e-08)) ((1.318896e-15 -4.270423e-13 3.056412e-16) (4.212564e-13 2.630240e-09 1.698911e-12))
11867.255416  	((-4.295427e-08 3.282428e-12 -7.594018e-09) (-7.096243e-08 7.424112e-12 -1.010292e-08)) ((1.341099e-15 -4.266302e-13 2.973632e-16) (3.870000e-13 2.628895e-09 1.574905e-12))
12406.855936  	((-4.294601e-08 2.593922e-12 -7.583745e-09) (-7.092389e-08 7.122183e-12 -1.011617e-08)) ((1.358788e-15 -4.262718e-13 2.895537e-16) (3.547341e-13 2.627755e-09 1.463127e-12))
12946.485578  	((-4.293894e-08 1.946181e-12 -7.575034e-09) (-7.089100e-08 6.829966e-12 -1.012766e-08)) ((1.375147e-15 -4.259617e-13 2.828122e-16) (3.244031e-13 2.626787e-09 1.362565e-12))
13486.139922  	((-4.293282e-08 1.350676e-12 -7.567605e-09) (-7.086290e-08 6.549328e-12 -1.013763e-08)) ((1.390068e-15 -4.256918e-13 2.765059e-16) (2.960525e-13 2.625963e-09 1.272239e-12))
14025.81527   	((-4.292760e-08 8.099223e-13 -7.561164e-09) (-7.083887e-08 6.281422e-12 -1.014629e-08)) ((1.403358e-15 -4.254576e-13 2.708870e-16) (2.696353e-13 2.625262e-09 1.191239e-12))
14565.508527  	((-4.292313e-08 3.168406e-13 -7.555596e-09) (-7.081831e-08 6.026381e-12 -1.015380e-08)) ((1.415418e-15 -4.252546e-13 2.659105e-16) (2.450740e-13 2.624663e-09 1.118717e-12))
15105.21709   	((-4.291929e-08 -1.360634e-13 -7.550782e-09) (-7.080070e-08 5.783856e-12 -1.016031e-08)) ((1.426708e-15 -4.250784e-13 2.613545e-16) (2.222716e-13 2.624152e-09 1.053917e-12))
15644.938764  	((-4.291600e-08 -5.444468e-13 -7.546616e-09) (-7.078561e-08 5.554306e-12 -1.016596e-08)) ((1.436994e-15 -4.249258e-13 2.573325e-16) (2.011750e-13 2.623714e-09 9.960796e-13))
16184.671691  	((-4.291316e-08 -9.154576e-13 -7.543017e-09) (-7.077267e-08 5.338114e-12 -1.017086e-08)) ((1.446033e-15 -4.247937e-13 2.537909e-16) (1.817529e-13 2.623340e-09 9.445357e-13))
16724.414295  	((-4.291072e-08 -1.251178e-12 -7.539946e-09) (-7.076157e-08 5.135580e-12 -1.017511e-08)) ((1.454359e-15 -4.246802e-13 2.505993e-16) (1.639205e-13 2.623019e-09 8.986674e-13))
17264.165236  	((-4.290858e-08 -1.554354e-12 -7.537298e-09) (-7.075203e-08 4.946336e-12 -1.017880e-08)) ((1.462021e-15 -4.245818e-13 2.476981e-16) (1.475810e-13 2.622743e-09 8.579087e-13))
17803.923367  	((-4.290676e-08 -1.824556e-12 -7.534983e-09) (-7.074384e-08 4.770356e-12 -1.018199e-08)) ((1.468849e-15 -4.244965e-13 2.451667e-16) (1.326614e-13 2.622506e-09 8.217265e-13))
