# Forces      
# CofR        : (0.000000e+00 0.000000e+00 0.000000e+00)
# Time        forces(pressure viscous)	moments(pressure viscous)
0             	((0.000000e+00 0.000000e+00 0.000000e+00) (-1.262224e-02 -3.831641e-12 -1.216255e-07)) ((0.000000e+00 0.000000e+00 0.000000e+00) (2.453301e-14 2.836055e-04 -2.652147e-13))
0.012         	((-3.730626e+00 2.028544e-04 1.391869e-01) (-2.062257e-02 1.714329e-07 -1.638209e-03)) ((-7.279140e-10 -5.036609e-05 -5.680870e-10) (-2.756118e-08 6.468812e-04 4.496556e-08))
0.0264        	((1.348315e+00 1.581660e-05 -4.730652e-01) (-1.996059e-02 1.963323e-07 -2.417925e-03)) ((2.929785e-09 1.748278e-05 6.970095e-09) (-2.094971e-08 6.969842e-04 1.471061e-08))
0.04368       	((-4.031385e-03 -1.770288e-04 -2.771793e-01) (-1.627500e-02 1.678985e-07 -2.146779e-03)) ((1.739698e-09 1.808599e-06 -3.044687e-09) (-9.989150e-09 5.784455e-04 3.652140e-09))
0.064416      	((5.035096e-02 -6.238053e-06 -2.846179e-01) (-1.448351e-02 5.580611e-07 -2.111862e-03)) ((7.697389e-09 3.440732e-07 7.042673e-09) (-1.844317e-08 5.196061e-04 1.889694e-08))
0.0892992     	((-3.118674e-02 -4.548744e-05 -2.553030e-01) (-1.334227e-02 4.482877e-07 -2.050129e-03)) ((8.258430e-09 -1.362709e-07 3.441229e-09) (-2.948654e-08 4.782001e-04 9.344183e-09))
0.119159      	((-6.737501e-03 -1.543358e-05 -2.586720e-01) (-1.261707e-02 2.379217e-07 -1.998668e-03)) ((3.664875e-09 -1.538894e-07 8.690813e-10) (-3.619155e-08 4.532813e-04 5.827854e-09))
0.154991      	((-1.701202e-02 1.613716e-06 -2.487990e-01) (-1.210545e-02 1.149728e-07 -2.063914e-03)) ((-1.969539e-09 -3.561818e-07 -5.173540e-10) (-3.025912e-08 4.349190e-04 5.152495e-09))
0.197416      	((-1.472089e-02 4.233400e-06 -2.513022e-01) (-1.171643e-02 -7.161786e-08 -2.200336e-03)) ((-4.200484e-11 -5.264510e-07 -6.045135e-10) (-2.214333e-08 4.202375e-04 1.968474e-09))
0.246429      	((-1.833928e-02 5.639440e-06 -2.467062e-01) (-1.140807e-02 -1.112446e-08 -2.340876e-03)) ((-3.935685e-10 -7.398182e-07 6.498363e-11) (-1.724507e-08 4.079220e-04 -3.080375e-09))
0.302028      	((-2.002584e-02 3.483843e-06 -2.470472e-01) (-1.116688e-02 4.624597e-08 -2.489342e-03)) ((4.622916e-10 -9.633384e-07 -3.649522e-10) (-1.440894e-08 3.980304e-04 -9.968050e-09))
0.364208      	((-2.337143e-02 9.378295e-06 -2.444515e-01) (-1.098808e-02 1.239650e-07 -2.631822e-03)) ((5.906858e-10 -1.178412e-06 -4.063352e-10) (-1.361894e-08 3.904354e-04 -1.261075e-08))
0.429807      	((-2.611634e-02 1.068603e-05 -2.434865e-01) (-1.085963e-02 1.679463e-07 -2.759790e-03)) ((1.484747e-10 -1.377782e-06 -3.510991e-10) (-1.176631e-08 3.846448e-04 -1.029977e-08))
0.495023      	((-2.931009e-02 2.540972e-05 -2.408851e-01) (-1.076551e-02 1.630305e-07 -2.861669e-03)) ((1.074628e-10 -1.535904e-06 8.793314e-11) (-8.798540e-09 3.799873e-04 -7.092119e-09))
0.559798      	((-3.212134e-02 3.124551e-05 -2.385896e-01) (-1.068232e-02 1.302068e-07 -2.938598e-03)) ((9.857823e-10 -1.690526e-06 -1.557136e-11) (-6.656473e-09 3.756315e-04 -8.819995e-10))
0.62423       	((-3.476427e-02 3.647492e-05 -2.354077e-01) (-1.059260e-02 3.629903e-08 -2.994563e-03)) ((1.534159e-09 -1.843412e-06 -2.892019e-10) (-6.102419e-09 3.711740e-04 8.874836e-09))
0.688539      	((-3.690228e-02 5.188644e-05 -2.323680e-01) (-1.049125e-02 2.827091e-08 -3.035703e-03)) ((1.007061e-09 -1.986037e-06 -6.929838e-10) (-5.616052e-09 3.666845e-04 1.893639e-08))
0.752941      	((-3.838151e-02 6.968017e-05 -2.289521e-01) (-1.038614e-02 1.734496e-07 -3.066335e-03)) ((5.756281e-10 -2.100771e-06 -3.417124e-10) (-2.741379e-09 3.624767e-04 2.323552e-08))
0.817532      	((-3.932292e-02 9.341911e-05 -2.257587e-01) (-1.028642e-02 4.452652e-07 -3.090715e-03)) ((9.096089e-11 -2.189071e-06 -1.899094e-10) (1.548820e-09 3.587158e-04 2.080594e-08))
0.882274      	((-3.975862e-02 1.206660e-04 -2.225964e-01) (-1.019544e-02 7.453469e-07 -3.110626e-03)) ((-3.934314e-10 -2.243532e-06 -3.076433e-11) (7.331308e-09 3.553734e-04 1.811898e-08))
0.947088      	((-3.971975e-02 1.431123e-04 -2.195594e-01) (-1.011216e-02 9.535949e-07 -3.126540e-03)) ((-2.749274e-10 -2.281058e-06 6.567416e-11) (1.331078e-08 3.523667e-04 2.198383e-08))
1.01194       	((-3.936795e-02 1.684226e-04 -2.165328e-01) (-1.003571e-02 1.006027e-06 -3.138549e-03)) ((-5.941929e-10 -2.291906e-06 1.786861e-10) (1.745188e-08 3.496881e-04 3.539070e-08))
1.076843      	((-3.894041e-02 2.161491e-04 -2.137637e-01) (-9.965793e-03 1.006871e-06 -3.147209e-03)) ((-6.446557e-10 -2.273590e-06 2.826638e-10) (2.073032e-08 3.473275e-04 5.494477e-08))
1.141813      	((-3.855023e-02 2.734468e-04 -2.112746e-01) (-9.901375e-03 1.144468e-06 -3.155352e-03)) ((-1.315574e-09 -2.237038e-06 -1.315754e-10) (2.836316e-08 3.451655e-04 7.620368e-08))
1.206849      	((-3.821749e-02 3.450096e-04 -2.090864e-01) (-9.842011e-03 1.479721e-06 -3.164489e-03)) ((-1.516466e-09 -2.201289e-06 -9.012277e-10) (4.242989e-08 3.431149e-04 9.485848e-08))
1.271942      	((-3.797427e-02 4.431875e-04 -2.070823e-01) (-9.787777e-03 2.046723e-06 -3.172957e-03)) ((-2.523349e-09 -2.187256e-06 -1.471446e-09) (6.285166e-08 3.412171e-04 1.148238e-07))
1.337086      	((-3.770910e-02 5.466930e-04 -2.051804e-01) (-9.738172e-03 2.815287e-06 -3.179575e-03)) ((-4.115208e-09 -2.182796e-06 -1.773080e-09) (8.912699e-08 3.395118e-04 1.406140e-07))
1.402279      	((-3.750529e-02 6.626819e-04 -2.034008e-01) (-9.692355e-03 3.602205e-06 -3.185030e-03)) ((-5.949098e-09 -2.185331e-06 -2.191948e-09) (1.207695e-07 3.379625e-04 1.738234e-07))
1.46752       	((-3.733697e-02 8.024022e-04 -2.017443e-01) (-9.649739e-03 4.375823e-06 -3.190355e-03)) ((-8.633066e-09 -2.188322e-06 -2.700855e-09) (1.601361e-07 3.365202e-04 2.169078e-07))
1.532804      	((-3.716335e-02 9.537062e-04 -2.001734e-01) (-9.610083e-03 5.284128e-06 -3.195603e-03)) ((-1.125598e-08 -2.191506e-06 -3.529704e-09) (2.080017e-07 3.351685e-04 2.683262e-07))
1.598128      	((-3.702063e-02 1.115167e-03 -1.987166e-01) (-9.573534e-03 6.414407e-06 -3.199826e-03)) ((-1.407485e-08 -2.194613e-06 -4.313568e-09) (2.630074e-07 3.339438e-04 3.237108e-07))
1.663488      	((-3.685815e-02 1.294426e-03 -1.973428e-01) (-9.540420e-03 7.681711e-06 -3.202580e-03)) ((-1.697577e-08 -2.193278e-06 -5.667801e-09) (3.252439e-07 3.328802e-04 3.843081e-07))
1.728883      	((-3.668715e-02 1.499612e-03 -1.960656e-01) (-9.510566e-03 9.002800e-06 -3.203879e-03)) ((-2.047205e-08 -2.187817e-06 -7.143671e-09) (3.957219e-07 3.319688e-04 4.549492e-07))
1.79431       	((-3.651236e-02 1.732029e-03 -1.948774e-01) (-9.483699e-03 1.040151e-05 -3.203876e-03)) ((-2.378715e-08 -2.180785e-06 -8.600512e-09) (4.739235e-07 3.311909e-04 5.382980e-07))
1.859765      	((-3.629853e-02 2.017872e-03 -1.937545e-01) (-9.459369e-03 1.213975e-05 -3.203089e-03)) ((-2.855481e-08 -2.172623e-06 -9.795281e-09) (5.634514e-07 3.305172e-04 6.287828e-07))
1.925246      	((-3.608547e-02 2.370803e-03 -1.927162e-01) (-9.437069e-03 1.446954e-05 -3.201981e-03)) ((-3.485031e-08 -2.162564e-06 -1.093127e-08) (6.719795e-07 3.299191e-04 7.243013e-07))
1.990751      	((-3.589630e-02 2.751363e-03 -1.917824e-01) (-9.416732e-03 1.730070e-05 -3.200944e-03)) ((-4.084738e-08 -2.151112e-06 -1.231940e-08) (7.994642e-07 3.293799e-04 8.271291e-07))
2.056275      	((-3.569598e-02 3.161897e-03 -1.909346e-01) (-9.398122e-03 2.029761e-05 -3.200476e-03)) ((-4.741008e-08 -2.137019e-06 -1.404793e-08) (9.416739e-07 3.288754e-04 9.514258e-07))
2.121817      	((-3.547725e-02 3.651798e-03 -1.901501e-01) (-9.380950e-03 2.351333e-05 -3.200839e-03)) ((-5.600233e-08 -2.122347e-06 -1.608226e-08) (1.105958e-06 3.283888e-04 1.102828e-06))
2.187374      	((-3.526088e-02 4.220579e-03 -1.894327e-01) (-9.364997e-03 2.720025e-05 -3.202002e-03)) ((-6.542143e-08 -2.109107e-06 -1.856829e-08) (1.300763e-06 3.279168e-04 1.277437e-06))
2.252941      	((-3.508065e-02 4.870975e-03 -1.887802e-01) (-9.350158e-03 3.148699e-05 -3.203698e-03)) ((-7.451020e-08 -2.099832e-06 -2.141094e-08) (1.527119e-06 3.274651e-04 1.477595e-06))
2.318515      	((-3.492795e-02 5.606361e-03 -1.881797e-01) (-9.336413e-03 3.647062e-05 -3.205702e-03)) ((-8.412526e-08 -2.092895e-06 -2.472496e-08) (1.786791e-06 3.270376e-04 1.704411e-06))
2.384092      	((-3.481481e-02 6.438878e-03 -1.876164e-01) (-9.323740e-03 4.221310e-05 -3.207725e-03)) ((-9.491801e-08 -2.088972e-06 -2.825201e-08) (2.082858e-06 3.266407e-04 1.960874e-06))
2.44967       	((-3.472953e-02 7.384046e-03 -1.870778e-01) (-9.312167e-03 4.884535e-05 -3.209441e-03)) ((-1.072376e-07 -2.086512e-06 -3.225623e-08) (2.418605e-06 3.262832e-04 2.249074e-06))
2.515243      	((-3.468678e-02 8.452376e-03 -1.865821e-01) (-9.301743e-03 5.645714e-05 -3.210653e-03)) ((-1.211739e-07 -2.085928e-06 -3.673599e-08) (2.799398e-06 3.259735e-04 2.576477e-06))
2.580808      	((-3.466381e-02 9.667219e-03 -1.861235e-01) (-9.292567e-03 6.521463e-05 -3.211167e-03)) ((-1.381019e-07 -2.085738e-06 -4.188940e-08) (3.233118e-06 3.257211e-04 2.949120e-06))
2.646362      	((-3.465671e-02 1.105876e-02 -1.857104e-01) (-9.284670e-03 7.525833e-05 -3.211015e-03)) ((-1.586753e-07 -2.084696e-06 -4.742456e-08) (3.727587e-06 3.255293e-04 3.374263e-06))
2.711898      	((-3.467718e-02 1.263377e-02 -1.853470e-01) (-9.278170e-03 8.655521e-05 -3.210342e-03)) ((-1.820304e-07 -2.083698e-06 -5.357996e-08) (4.288851e-06 3.253997e-04 3.863820e-06))
2.777412      	((-3.473412e-02 1.442078e-02 -1.850410e-01) (-9.273097e-03 9.914077e-05 -3.209131e-03)) ((-2.080248e-07 -2.084469e-06 -6.048626e-08) (4.926063e-06 3.253361e-04 4.428990e-06))
2.842899      	((-3.484308e-02 1.644329e-02 -1.847956e-01) (-9.269594e-03 1.131784e-04 -3.207437e-03)) ((-2.378610e-07 -2.086302e-06 -6.786755e-08) (5.646890e-06 3.253433e-04 5.079316e-06))
2.908353      	((-3.500860e-02 1.871795e-02 -1.846221e-01) (-9.267626e-03 1.288894e-04 -3.205366e-03)) ((-2.715492e-07 -2.089927e-06 -7.576099e-08) (6.459930e-06 3.254224e-04 5.828928e-06))
2.973767      	((-3.524417e-02 2.126580e-02 -1.845283e-01) (-9.267363e-03 1.467400e-04 -3.202815e-03)) ((-3.090689e-07 -2.094267e-06 -8.507244e-08) (7.373022e-06 3.255805e-04 6.677717e-06))
3.039133      	((-3.552818e-02 2.412242e-02 -1.844891e-01) (-9.269381e-03 1.671248e-04 -3.199446e-03)) ((-3.530935e-07 -2.099473e-06 -9.579252e-08) (8.394024e-06 3.258434e-04 7.621207e-06))
3.104445      	((-3.592210e-02 2.728526e-02 -1.845378e-01) (-9.274241e-03 1.904961e-04 -3.194727e-03)) ((-4.022718e-07 -2.109175e-06 -1.078631e-07) (9.539534e-06 3.262449e-04 8.658150e-06))
3.169695      	((-3.645180e-02 3.073939e-02 -1.846578e-01) (-9.282651e-03 2.175324e-04 -3.188139e-03)) ((-4.564581e-07 -2.124361e-06 -1.216161e-07) (1.083237e-05 3.268147e-04 9.764337e-06))
3.234873      	((-3.715036e-02 3.447148e-02 -1.849178e-01) (-9.295125e-03 2.487188e-04 -3.179585e-03)) ((-5.155722e-07 -2.142628e-06 -1.365637e-07) (1.229867e-05 3.275716e-04 1.093057e-05))
3.299972      	((-3.804022e-02 3.852453e-02 -1.852977e-01) (-9.312054e-03 2.845280e-04 -3.168947e-03)) ((-5.803770e-07 -2.161074e-06 -1.508898e-07) (1.395434e-05 3.285340e-04 1.216648e-05))
3.364983      	((-3.914565e-02 4.287774e-02 -1.858221e-01) (-9.334105e-03 3.246131e-04 -3.155980e-03)) ((-6.508832e-07 -2.181233e-06 -1.641620e-07) (1.580290e-05 3.297243e-04 1.348595e-05))
3.429897      	((-4.057631e-02 4.751101e-02 -1.865220e-01) (-9.361597e-03 3.685775e-04 -3.140445e-03)) ((-7.277704e-07 -2.202618e-06 -1.752033e-07) (1.782510e-05 3.311653e-04 1.489638e-05))
3.494706      	((-4.228286e-02 5.232541e-02 -1.874616e-01) (-9.394733e-03 4.160661e-04 -3.122313e-03)) ((-8.070212e-07 -2.217058e-06 -1.857184e-07) (1.998778e-05 3.328679e-04 1.639931e-05))
3.559402      	((-4.431022e-02 5.721286e-02 -1.886190e-01) (-9.434026e-03 4.666287e-04 -3.102123e-03)) ((-8.843142e-07 -2.227611e-06 -1.971625e-07) (2.226643e-05 3.348374e-04 1.797810e-05))
3.623979      	((-4.670762e-02 6.188108e-02 -1.901365e-01) (-9.480401e-03 5.187215e-04 -3.079858e-03)) ((-9.471648e-07 -2.240693e-06 -2.129430e-07) (2.462710e-05 3.371040e-04 1.961477e-05))
3.688432      	((-4.934078e-02 6.621939e-02 -1.919537e-01) (-9.533531e-03 5.712531e-04 -3.055721e-03)) ((-9.954176e-07 -2.256566e-06 -2.286120e-07) (2.702569e-05 3.396553e-04 2.127472e-05))
3.752756      	((-5.211782e-02 6.996735e-02 -1.940564e-01) (-9.592956e-03 6.240718e-04 -3.030349e-03)) ((-1.025143e-06 -2.271735e-06 -2.442770e-07) (2.941430e-05 3.424462e-04 2.288715e-05))
3.816953      	((-5.499140e-02 7.284064e-02 -1.964906e-01) (-9.657981e-03 6.752683e-04 -3.003565e-03)) ((-1.032254e-06 -2.283071e-06 -2.591172e-07) (3.169516e-05 3.454356e-04 2.437737e-05))
3.881021      	((-5.765185e-02 7.460785e-02 -1.991311e-01) (-9.727494e-03 7.206810e-04 -2.974903e-03)) ((-1.015513e-06 -2.286980e-06 -2.727917e-07) (3.373699e-05 3.485890e-04 2.574179e-05))
3.944969      	((-5.979470e-02 7.512192e-02 -2.017731e-01) (-9.799168e-03 7.565469e-04 -2.944668e-03)) ((-9.753189e-07 -2.284519e-06 -2.811973e-07) (3.542147e-05 3.518051e-04 2.698561e-05))
4.008805      	((-6.129536e-02 7.424962e-02 -2.044325e-01) (-9.868983e-03 7.802162e-04 -2.913906e-03)) ((-9.114525e-07 -2.269699e-06 -2.827043e-07) (3.662852e-05 3.549475e-04 2.806463e-05))
4.072544      	((-6.186297e-02 7.191102e-02 -2.069234e-01) (-9.932859e-03 7.900530e-04 -2.885124e-03)) ((-8.237264e-07 -2.244854e-06 -2.842565e-07) (3.724509e-05 3.578142e-04 2.890781e-05))
4.136204      	((-6.159873e-02 6.826389e-02 -2.092487e-01) (-9.988578e-03 7.838044e-04 -2.859689e-03)) ((-7.222549e-07 -2.219429e-06 -2.814235e-07) (3.719304e-05 3.602801e-04 2.948990e-05))
4.199809      	((-6.055484e-02 6.344062e-02 -2.113028e-01) (-1.003485e-02 7.592207e-04 -2.836980e-03)) ((-5.986352e-07 -2.198208e-06 -2.688772e-07) (3.640150e-05 3.623250e-04 2.984814e-05))
4.263382      	((-5.900992e-02 5.793638e-02 -2.130699e-01) (-1.007255e-02 7.160571e-04 -2.816278e-03)) ((-4.583134e-07 -2.172362e-06 -2.563664e-07) (3.486944e-05 3.640183e-04 2.998859e-05))
4.32695       	((-5.726489e-02 5.243969e-02 -2.145393e-01) (-1.010329e-02 6.577602e-04 -2.797655e-03)) ((-3.284548e-07 -2.155100e-06 -2.501021e-07) (3.272279e-05 3.654462e-04 2.991847e-05))
4.390536      	((-5.541809e-02 4.753826e-02 -2.157164e-01) (-1.012845e-02 5.905621e-04 -2.781725e-03)) ((-2.270688e-07 -2.150216e-06 -2.445513e-07) (3.019088e-05 3.666895e-04 2.965078e-05))
4.454161      	((-5.363089e-02 4.351763e-02 -2.167627e-01) (-1.014939e-02 5.207369e-04 -2.769191e-03)) ((-1.532815e-07 -2.147288e-06 -2.397172e-07) (2.751422e-05 3.678264e-04 2.923560e-05))
4.51784       	((-5.179726e-02 4.096971e-02 -2.175351e-01) (-1.016821e-02 4.547410e-04 -2.761222e-03)) ((-1.185993e-07 -2.125303e-06 -2.351883e-07) (2.493410e-05 3.688823e-04 2.868819e-05))
4.58158       	((-5.014359e-02 3.961741e-02 -2.182522e-01) (-1.018639e-02 3.995051e-04 -2.760272e-03)) ((-1.245985e-07 -2.078721e-06 -2.283332e-07) (2.267941e-05 3.697670e-04 2.798687e-05))
4.645382      	((-4.850295e-02 3.910856e-02 -2.189090e-01) (-1.020299e-02 3.595099e-04 -2.769357e-03)) ((-1.728364e-07 -2.011586e-06 -2.222854e-07) (2.094243e-05 3.703103e-04 2.712355e-05))
4.709241      	((-4.680584e-02 3.914712e-02 -2.194692e-01) (-1.021548e-02 3.368820e-04 -2.791553e-03)) ((-2.494159e-07 -1.932428e-06 -2.221789e-07) (1.985251e-05 3.703079e-04 2.607287e-05))
4.77315       	((-4.529721e-02 3.935744e-02 -2.200527e-01) (-1.022096e-02 3.292285e-04 -2.826328e-03)) ((-3.339241e-07 -1.864559e-06 -2.161653e-07) (1.938877e-05 3.696893e-04 2.493543e-05))
4.837098      	((-4.382679e-02 3.954710e-02 -2.204976e-01) (-1.021767e-02 3.278302e-04 -2.865899e-03)) ((-4.160023e-07 -1.806571e-06 -1.954370e-07) (1.927896e-05 3.686803e-04 2.399736e-05))
4.901078      	((-4.281999e-02 3.960541e-02 -2.207417e-01) (-1.020489e-02 3.244197e-04 -2.901610e-03)) ((-4.752966e-07 -1.776184e-06 -1.667152e-07) (1.925672e-05 3.675547e-04 2.354827e-05))
4.96508       	((-4.224459e-02 3.958879e-02 -2.205489e-01) (-1.018900e-02 3.199537e-04 -2.927517e-03)) ((-4.981039e-07 -1.780892e-06 -1.424775e-07) (1.920162e-05 3.665406e-04 2.338653e-05))
5.029096      	((-4.221411e-02 3.943586e-02 -2.201096e-01) (-1.017501e-02 3.150576e-04 -2.941110e-03)) ((-4.899324e-07 -1.810783e-06 -1.234408e-07) (1.904801e-05 3.657664e-04 2.335006e-05))
5.093122      	((-4.259572e-02 3.911512e-02 -2.195488e-01) (-1.016411e-02 3.081760e-04 -2.944608e-03)) ((-4.515437e-07 -1.858170e-06 -1.161394e-07) (1.878647e-05 3.652202e-04 2.345055e-05))
5.157153      	((-4.310469e-02 3.849915e-02 -2.190957e-01) (-1.015624e-02 2.972833e-04 -2.939844e-03)) ((-4.004611e-07 -1.903677e-06 -1.178729e-07) (1.837347e-05 3.649059e-04 2.370782e-05))
5.221188      	((-4.348562e-02 3.775724e-02 -2.186796e-01) (-1.014975e-02 2.833948e-04 -2.929627e-03)) ((-3.536290e-07 -1.930755e-06 -1.278570e-07) (1.781840e-05 3.647579e-04 2.406714e-05))
5.285226      	((-4.392348e-02 3.666580e-02 -2.184883e-01) (-1.014471e-02 2.639275e-04 -2.916037e-03)) ((-2.844400e-07 -1.968045e-06 -1.493723e-07) (1.710097e-05 3.647443e-04 2.455950e-05))
5.34927       	((-4.439590e-02 3.536633e-02 -2.185469e-01) (-1.014025e-02 2.373545e-04 -2.899953e-03)) ((-2.102807e-07 -2.015901e-06 -1.780093e-07) (1.622061e-05 3.648975e-04 2.524684e-05))
5.413321      	((-4.426667e-02 3.403330e-02 -2.186422e-01) (-1.013459e-02 2.074163e-04 -2.884313e-03)) ((-1.506471e-07 -2.066273e-06 -1.954164e-07) (1.526090e-05 3.651339e-04 2.598854e-05))
5.477384      	((-4.399911e-02 3.295609e-02 -2.188173e-01) (-1.013124e-02 1.812435e-04 -2.872028e-03)) ((-1.122763e-07 -2.128985e-06 -1.900031e-07) (1.437224e-05 3.654053e-04 2.639902e-05))
5.541464      	((-4.343005e-02 3.219111e-02 -2.190623e-01) (-1.013200e-02 1.634732e-04 -2.864702e-03)) ((-1.057505e-07 -2.168891e-06 -1.749347e-07) (1.365351e-05 3.656923e-04 2.630418e-05))
5.605565      	((-4.237281e-02 3.170006e-02 -2.192478e-01) (-1.013376e-02 1.526664e-04 -2.864415e-03)) ((-1.462918e-07 -2.155009e-06 -1.641742e-07) (1.314939e-05 3.658688e-04 2.584689e-05))
5.669689      	((-4.147369e-02 3.158960e-02 -2.194194e-01) (-1.013484e-02 1.490425e-04 -2.873017e-03)) ((-2.273437e-07 -2.092972e-06 -1.616404e-07) (1.291283e-05 3.658001e-04 2.512945e-05))
