# Forces      
# CofR        : (0.000000e+00 0.000000e+00 0.000000e+00)
# Time        forces(pressure viscous)	moments(pressure viscous)
0             	((0.000000e+00 0.000000e+00 0.000000e+00) (0.000000e+00 0.000000e+00 0.000000e+00)) ((0.000000e+00 0.000000e+00 0.000000e+00) (0.000000e+00 0.000000e+00 0.000000e+00))
0.012         	((-7.109542e-12 2.880729e-07 4.665859e-08) (-7.995860e-14 6.626541e-07 -2.446118e-13)) ((4.208114e-11 1.522369e-13 -3.854543e-13) (4.409669e-08 4.041841e-15 7.122023e-14))
0.0264        	((-1.676787e-10 3.871968e-07 9.882971e-08) (-3.788214e-13 6.069947e-07 -8.296908e-13)) ((-1.910854e-11 3.308738e-13 -1.703135e-13) (4.043660e-08 9.976872e-15 7.341561e-14))
0.04368       	((1.299249e-10 2.618171e-07 5.361404e-08) (-4.918320e-13 5.495541e-07 -1.876378e-12)) ((-1.419035e-11 1.738595e-13 -1.918281e-13) (3.667042e-08 2.948168e-15 1.373676e-13))
0.064416      	((-1.477536e-10 2.960034e-07 6.935460e-08) (-6.694484e-13 4.916013e-07 -3.628127e-12)) ((-2.802328e-11 2.300782e-13 -1.206902e-13) (3.288353e-08 -9.422435e-15 5.303527e-14))
0.0892992     	((7.381859e-11 2.185075e-07 4.624763e-08) (-6.849299e-13 4.347909e-07 -5.652559e-12)) ((-2.000019e-11 1.513125e-13 -8.015465e-14) (2.918384e-08 -2.038879e-14 -1.616190e-13))
0.119159      	((-5.349826e-11 2.240793e-07 5.018661e-08) (-4.589090e-13 3.809392e-07 -7.759665e-12)) ((-2.448999e-11 1.647997e-13 -4.202893e-14) (2.569268e-08 -1.952157e-14 -2.474741e-13))
0.154991      	((3.720753e-11 1.687581e-07 3.582090e-08) (-2.773074e-13 3.317211e-07 -1.058913e-11)) ((-1.711421e-11 1.186738e-13 -1.879360e-14) (2.248443e-08 -1.905764e-14 -2.794345e-13))
0.197989      	((-1.200602e-11 1.665703e-07 3.606831e-08) (-1.573820e-13 2.881648e-07 -1.422087e-11)) ((-1.930172e-11 1.199572e-13 -2.817735e-14) (1.964280e-08 -1.790216e-14 -2.960658e-13))
0.249587      	((1.285167e-11 1.293970e-07 2.796258e-08) (-1.128879e-13 2.510471e-07 -1.838955e-11)) ((-1.382840e-11 9.096995e-14 -2.255887e-14) (1.720285e-08 -8.922345e-15 -2.771037e-13))
0.311504      	((4.729598e-12 1.256069e-07 2.707696e-08) (1.703731e-14 2.201874e-07 -2.243308e-11)) ((-1.523022e-11 9.058574e-14 -4.071133e-14) (1.516569e-08 -3.645914e-15 -2.200754e-13))
0.385805      	((7.290967e-13 1.012368e-07 2.247829e-08) (7.369511e-14 1.946895e-07 -2.634013e-11)) ((-1.135009e-11 7.310198e-14 -2.542585e-14) (1.348066e-08 1.269191e-15 -1.254868e-13))
0.474966      	((3.138781e-12 9.812811e-08 2.119851e-08) (3.758445e-14 1.735934e-07 -2.884627e-11)) ((-1.232957e-11 7.140234e-14 -3.537280e-14) (1.208903e-08 -9.486602e-16 -4.415672e-14))
0.581959      	((-3.953646e-12 8.174762e-08 1.824982e-08) (-1.702108e-13 1.558328e-07 -3.167729e-11)) ((-9.505935e-12 5.846594e-14 -2.390778e-14) (1.091655e-08 2.589352e-15 -4.730810e-14))
0.710351      	((1.674387e-12 7.920657e-08 1.688747e-08) (-3.647861e-13 1.405752e-07 -3.332070e-11)) ((-1.024378e-11 5.696799e-14 -3.675857e-14) (9.912878e-09 -4.562475e-15 -4.311351e-14))
0.864421      	((-9.028822e-12 6.744180e-08 1.493579e-08) (-4.366673e-13 1.271601e-07 -3.542335e-11)) ((-8.243723e-12 4.812775e-14 -2.574902e-14) (9.031084e-09 -9.013094e-15 -8.759537e-14))
1.049306      	((5.332115e-13 6.488246e-08 1.375840e-08) (-5.857172e-13 1.152189e-07 -3.559666e-11)) ((-8.822867e-12 4.674837e-14 -2.155234e-14) (8.249725e-09 -2.739587e-14 -1.480107e-13))
1.271167      	((-5.835329e-12 5.577611e-08 1.229763e-08) (-6.110084e-13 1.044455e-07 -3.787798e-11)) ((-7.443210e-12 4.089148e-14 2.016525e-17) (7.545537e-09 -3.808820e-14 -1.699858e-13))
1.5374        	((-4.557332e-12 5.302744e-08 1.124026e-08) (-6.320884e-13 9.471986e-08 -3.580322e-11)) ((-7.761515e-12 3.938204e-14 2.700875e-15) (6.910635e-09 -6.681274e-14 -1.414128e-13))
1.85688       	((-4.705941e-12 4.593812e-08 1.014382e-08) (-8.987227e-13 8.593047e-08 -3.767303e-11)) ((-6.751363e-12 3.573811e-14 1.387244e-14) (6.338098e-09 -1.155412e-13 -1.473096e-13))
2.240256      	((-3.885239e-12 4.307392e-08 9.354133e-09) (-1.005246e-12 7.803451e-08 -3.536432e-11)) ((-6.847491e-12 3.381420e-14 1.110891e-14) (5.823260e-09 -1.713997e-13 -2.179295e-13))
2.700307      	((-1.416271e-12 3.777159e-08 8.600147e-09) (-1.464067e-12 7.105094e-08 -3.375729e-11)) ((-6.134645e-12 3.152335e-14 1.737036e-14) (5.368312e-09 -2.271647e-13 -2.906650e-13))
3.252369      	((-6.451548e-12 3.515464e-08 8.037809e-09) (-1.888593e-12 6.488346e-08 -3.309280e-11)) ((-6.147788e-12 3.010658e-14 1.322240e-14) (4.966178e-09 -2.844044e-13 -3.030280e-13))
3.914842      	((1.806977e-13 3.135311e-08 7.477040e-09) (-9.746606e-13 5.945907e-08 -2.964570e-11)) ((-5.735963e-12 2.755916e-14 1.374876e-14) (4.613497e-09 -3.638681e-13 -2.490569e-13))
4.709811      	((-9.402779e-13 2.900982e-08 6.999188e-09) (-4.020872e-13 5.468426e-08 -2.750716e-11)) ((-5.683968e-12 2.393543e-14 1.207842e-14) (4.303665e-09 -4.287626e-13 -1.635419e-13))
5.663773      	((1.287425e-12 2.623641e-08 6.473566e-09) (-8.508726e-13 5.044871e-08 -2.710180e-11)) ((-5.414468e-12 2.165363e-14 1.296132e-14) (4.029617e-09 -4.091966e-13 -8.820080e-14))
6.808528      	((-5.928118e-12 2.419585e-08 5.976233e-09) (-9.279950e-13 4.665119e-08 -2.864699e-11)) ((-5.295628e-12 2.072647e-14 1.291981e-14) (3.784681e-09 -3.599129e-13 -2.038544e-14))
8.182233      	((-5.210459e-12 2.204701e-08 5.441250e-09) (-1.519759e-12 4.320576e-08 -3.161586e-11)) ((-5.122496e-12 1.830873e-14 1.487002e-14) (3.563590e-09 -3.287959e-13 1.068077e-14))
9.83068       	((-4.422876e-12 2.022567e-08 4.962799e-09) (-1.963468e-12 4.005305e-08 -3.603331e-11)) ((-4.994010e-12 1.608888e-14 1.485348e-14) (3.362385e-09 -3.115276e-13 1.222257e-14))
11.808816     	((6.070421e-13 1.849486e-08 4.510343e-09) (-2.067887e-12 3.716021e-08 -4.310352e-11)) ((-4.865772e-12 1.378099e-14 1.537463e-14) (3.179022e-09 -2.841637e-13 3.287572e-14))
14.182579     	((-1.698415e-12 1.698675e-08 4.153611e-09) (-2.399631e-12 3.450324e-08 -5.283798e-11)) ((-4.741021e-12 1.120644e-14 1.531828e-14) (3.011555e-09 -2.550886e-13 1.459217e-14))
17.031095     	((-3.439827e-12 1.557144e-08 3.852007e-09) (-2.536051e-12 3.206081e-08 -5.965817e-11)) ((-4.644023e-12 1.069726e-14 1.567592e-14) (2.858957e-09 -1.796597e-13 -4.351707e-15))
20.449314     	((-5.109279e-12 1.430861e-08 3.638424e-09) (-2.708131e-12 2.982063e-08 -6.389660e-11)) ((-4.547761e-12 9.677587e-15 1.608394e-14) (2.720023e-09 -1.073580e-13 3.938028e-15))
24.551176     	((-3.072673e-12 1.312093e-08 3.458584e-09) (-2.928685e-12 2.777005e-08 -6.551928e-11)) ((-4.477675e-12 8.957598e-15 1.652604e-14) (2.593778e-09 -5.743219e-14 2.157594e-14))
29.473411     	((-3.435368e-12 1.205196e-08 3.272599e-09) (-3.102672e-12 2.589733e-08 -6.595476e-11)) ((-4.410800e-12 8.405202e-15 1.690694e-14) (2.479193e-09 -2.843002e-14 1.147781e-14))
35.380094     	((-3.728768e-12 1.105989e-08 3.093385e-09) (-2.907529e-12 2.418771e-08 -6.462879e-11)) ((-4.357839e-12 7.958784e-15 1.729623e-14) (2.375090e-09 -1.638583e-14 3.469454e-14))
42.468112     	((-2.824262e-12 1.017062e-08 2.904174e-09) (-2.807224e-12 2.262521e-08 -6.300325e-11)) ((-4.308002e-12 7.778262e-15 1.737373e-14) (2.280360e-09 -2.386393e-15 7.610710e-14))
50.973735     	((-1.853628e-12 9.341906e-09 2.718814e-09) (-2.688248e-12 2.119608e-08 -6.314157e-11)) ((-4.266590e-12 7.220735e-15 1.739289e-14) (2.194128e-09 -2.668467e-14 1.109872e-13))
61.180482     	((-2.232685e-12 8.598736e-09 2.553883e-09) (-2.439816e-12 1.989119e-08 -6.338039e-11)) ((-4.228483e-12 6.174153e-15 1.748022e-14) (2.115838e-09 -5.096467e-14 1.389680e-13))
73.428578     	((-1.636501e-12 7.921847e-09 2.397479e-09) (-2.133629e-12 1.870193e-08 -6.389906e-11)) ((-4.196768e-12 5.225104e-15 1.728761e-14) (2.045020e-09 -7.665567e-14 1.597089e-13))
88.126294     	((-5.676772e-13 7.310708e-09 2.242757e-09) (-1.776741e-12 1.762031e-08 -6.371591e-11)) ((-4.169254e-12 4.423588e-15 1.715846e-14) (1.981127e-09 -1.143955e-13 1.883941e-13))
105.763553    	((2.902998e-13 6.768372e-09 2.107533e-09) (-1.302659e-12 1.663880e-08 -6.264694e-11)) ((-4.146733e-12 3.967631e-15 1.710973e-14) (1.923665e-09 -1.309568e-13 2.119339e-13))
126.928263    	((5.783646e-13 6.280399e-09 1.990600e-09) (-9.434831e-13 1.575052e-08 -6.183309e-11)) ((-4.127501e-12 3.403160e-15 1.700325e-14) (1.872133e-09 -1.438208e-13 2.246598e-13))
152.325916    	((6.795617e-13 5.847130e-09 1.885597e-09) (-6.452568e-13 1.494781e-08 -6.176648e-11)) ((-4.112166e-12 2.924384e-15 1.694280e-14) (1.825972e-09 -1.592893e-13 2.372763e-13))
182.803099    	((1.469221e-12 5.464437e-09 1.782510e-09) (-2.939949e-13 1.422360e-08 -6.265583e-11)) ((-4.098931e-12 2.471616e-15 1.683526e-14) (1.784687e-09 -1.697302e-13 2.457396e-13))
219.375719    	((2.256663e-12 5.127250e-09 1.690130e-09) (3.348238e-14 1.357089e-08 -6.522533e-11)) ((-4.088139e-12 1.905216e-15 1.661933e-14) (1.747815e-09 -1.793089e-13 2.505532e-13))
263.262863    	((2.912861e-12 4.828071e-09 1.603388e-09) (2.959580e-13 1.298332e-08 -6.965000e-11)) ((-4.079682e-12 1.639080e-15 1.638869e-14) (1.714931e-09 -1.812110e-13 2.517393e-13))
315.927436    	((3.400552e-12 4.566428e-09 1.512489e-09) (3.018046e-13 1.245564e-08 -7.558503e-11)) ((-4.072991e-12 1.283718e-15 1.626786e-14) (1.685684e-09 -1.760404e-13 2.424916e-13))
379.124923    	((3.343472e-12 4.340197e-09 1.423978e-09) (3.431153e-13 1.198321e-08 -8.288846e-11)) ((-4.067648e-12 8.187586e-16 1.637573e-14) (1.659750e-09 -1.752374e-13 2.338006e-13))
454.961908    	((3.258631e-12 4.146683e-09 1.346198e-09) (3.141394e-13 1.156288e-08 -9.171882e-11)) ((-4.063400e-12 5.546294e-16 1.641755e-14) (1.636887e-09 -1.717051e-13 2.211613e-13))
545.966289    	((3.155006e-12 3.982840e-09 1.281466e-09) (2.635507e-13 1.119168e-08 -1.016301e-10)) ((-4.060016e-12 3.397744e-16 1.645260e-14) (1.616883e-09 -1.687329e-13 2.103683e-13))
655.171547    	((3.160208e-12 3.847084e-09 1.223894e-09) (1.706240e-13 1.086696e-08 -1.120199e-10)) ((-4.057141e-12 1.956394e-16 1.650315e-14) (1.599540e-09 -1.637801e-13 2.034337e-13))
786.217856    	((3.186449e-12 3.735573e-09 1.172766e-09) (1.109040e-13 1.058645e-08 -1.226103e-10)) ((-4.054669e-12 4.620850e-17 1.655445e-14) (1.584676e-09 -1.572521e-13 1.971739e-13))
943.473427    	((3.220124e-12 3.645149e-09 1.127951e-09) (3.918464e-14 1.034745e-08 -1.333304e-10)) ((-4.052825e-12 -8.008488e-17 1.660452e-14) (1.572085e-09 -1.480855e-13 1.916208e-13))
1132.180113   	((3.212131e-12 3.572292e-09 1.088647e-09) (-3.399695e-17 1.014696e-08 -1.442266e-10)) ((-4.051451e-12 -2.123954e-16 1.663387e-14) (1.561564e-09 -1.406220e-13 1.846293e-13))
1358.628135   	((3.274772e-12 3.514242e-09 1.054144e-09) (3.829526e-16 9.981561e-09 -1.550641e-10)) ((-4.050421e-12 -3.384394e-16 1.666064e-14) (1.552897e-09 -1.362080e-13 1.771094e-13))
1630.365763   	((3.390852e-12 3.468795e-09 1.024900e-09) (-1.591810e-14 9.847418e-09 -1.654661e-10)) ((-4.049692e-12 -4.327335e-16 1.669302e-14) (1.545861e-09 -1.322889e-13 1.700655e-13))
1956.450915   	((3.363309e-12 3.433616e-09 1.000382e-09) (-3.006464e-14 9.740507e-09 -1.750941e-10)) ((-4.049161e-12 -4.865437e-16 1.673026e-14) (1.540231e-09 -1.289924e-13 1.643800e-13))
2347.753098   	((3.296415e-12 3.406573e-09 9.798265e-10) (-1.862331e-14 9.656705e-09 -1.837470e-10)) ((-4.048680e-12 -5.312364e-16 1.676364e-14) (1.535788e-09 -1.269620e-13 1.608478e-13))
2817.315718   	((3.145274e-12 3.385849e-09 9.630302e-10) (-8.951178e-15 9.592061e-09 -1.912881e-10)) ((-4.048258e-12 -5.743353e-16 1.679262e-14) (1.532326e-09 -1.259049e-13 1.584814e-13))
3373.762452   	((3.056581e-12 3.370112e-09 9.496755e-10) (-7.527994e-15 9.542940e-09 -1.976806e-10)) ((-4.047907e-12 -6.019965e-16 1.680967e-14) (1.529661e-09 -1.249328e-13 1.569460e-13))
4017.090897   	((2.979757e-12 3.358202e-09 9.394600e-10) (-8.229555e-15 9.506123e-09 -2.029394e-10)) ((-4.047637e-12 -6.208960e-16 1.682245e-14) (1.527630e-09 -1.240554e-13 1.557414e-13))
4747.299027   	((2.944175e-12 3.349309e-09 9.316761e-10) (-1.123341e-14 9.478848e-09 -2.071501e-10)) ((-4.047436e-12 -6.367685e-16 1.683265e-14) (1.526097e-09 -1.230419e-13 1.549202e-13))
5564.385377   	((2.921312e-12 3.342614e-09 9.256788e-10) (-1.640596e-14 9.458830e-09 -2.104434e-10)) ((-4.047281e-12 -6.496491e-16 1.684218e-14) (1.524946e-09 -1.220682e-13 1.544028e-13))
6433.15752    	((2.912311e-12 3.337579e-09 9.212475e-10) (-2.133330e-14 9.444261e-09 -2.129589e-10)) ((-4.047198e-12 -6.567623e-16 1.685027e-14) (1.524087e-09 -1.212626e-13 1.540632e-13))
7301.923198   	((2.906338e-12 3.333785e-09 9.179545e-10) (-2.657844e-14 9.433729e-09 -2.148387e-10)) ((-4.047190e-12 -6.609608e-16 1.685667e-14) (1.523450e-09 -1.205932e-13 1.539065e-13))
8170.68514    	((2.902117e-12 3.330932e-09 9.154255e-10) (-3.227671e-14 9.426136e-09 -2.162214e-10)) ((-4.047193e-12 -6.645890e-16 1.686107e-14) (1.522977e-09 -1.200445e-13 1.539099e-13))
9039.445102   	((2.900133e-12 3.328762e-09 9.136586e-10) (-3.649084e-14 9.420670e-09 -2.172297e-10)) ((-4.047197e-12 -6.680808e-16 1.686444e-14) (1.522625e-09 -1.196888e-13 1.539927e-13))
9908.204083   	((2.898107e-12 3.327110e-09 9.122650e-10) (-3.948900e-14 9.416732e-09 -2.179606e-10)) ((-4.047201e-12 -6.711687e-16 1.686704e-14) (1.522363e-09 -1.194420e-13 1.541213e-13))
10776.962666  	((2.893318e-12 3.325848e-09 9.112092e-10) (-4.168374e-14 9.413894e-09 -2.184869e-10)) ((-4.047205e-12 -6.736802e-16 1.686937e-14) (1.522167e-09 -1.192733e-13 1.542774e-13))
11645.721194  	((2.886341e-12 3.324881e-09 9.104082e-10) (-4.344947e-14 9.411846e-09 -2.188642e-10)) ((-4.047207e-12 -6.758230e-16 1.687067e-14) (1.522019e-09 -1.191533e-13 1.544436e-13))
12514.47986   	((2.881873e-12 3.324129e-09 9.097670e-10) (-4.467105e-14 9.410363e-09 -2.191337e-10)) ((-4.047210e-12 -6.778581e-16 1.687172e-14) (1.521907e-09 -1.190773e-13 1.545842e-13))
13383.238762  	((2.875090e-12 3.323550e-09 9.093723e-10) (-4.551426e-14 9.409288e-09 -2.193262e-10)) ((-4.047212e-12 -6.790879e-16 1.687249e-14) (1.521823e-09 -1.190351e-13 1.547144e-13))
14251.997939  	((2.868081e-12 3.323104e-09 9.090184e-10) (-4.610710e-14 9.408506e-09 -2.194636e-10)) ((-4.047213e-12 -6.801470e-16 1.687306e-14) (1.521759e-09 -1.190109e-13 1.548332e-13))
15120.757396  	((2.859891e-12 3.322755e-09 9.087505e-10) (-4.649008e-14 9.407935e-09 -2.195622e-10)) ((-4.047214e-12 -6.809623e-16 1.687346e-14) (1.521709e-09 -1.189983e-13 1.549375e-13))
15989.517117  	((2.851973e-12 3.322484e-09 9.085493e-10) (-4.675668e-14 9.407516e-09 -2.196332e-10)) ((-4.047215e-12 -6.815737e-16 1.687375e-14) (1.521672e-09 -1.189937e-13 1.550279e-13))
16858.277077  	((2.841755e-12 3.322275e-09 9.083879e-10) (-4.699423e-14 9.407209e-09 -2.196847e-10)) ((-4.047216e-12 -6.820346e-16 1.687395e-14) (1.521643e-09 -1.189961e-13 1.551094e-13))
17727.037245  	((2.831861e-12 3.322114e-09 9.082588e-10) (-4.722370e-14 9.406983e-09 -2.197222e-10)) ((-4.047217e-12 -6.824590e-16 1.687407e-14) (1.521620e-09 -1.190012e-13 1.551771e-13))
18595.797591  	((2.823397e-12 3.321989e-09 9.081323e-10) (-4.740999e-14 9.406816e-09 -2.197498e-10)) ((-4.047218e-12 -6.828822e-16 1.687412e-14) (1.521602e-09 -1.190081e-13 1.552354e-13))
19464.558088  	((2.815854e-12 3.321892e-09 9.080537e-10) (-4.755093e-14 9.406692e-09 -2.197702e-10)) ((-4.047218e-12 -6.831663e-16 1.687415e-14) (1.521589e-09 -1.190149e-13 1.552847e-13))
20333.318711  	((2.809380e-12 3.321818e-09 9.080242e-10) (-4.766774e-14 9.406600e-09 -2.197855e-10)) ((-4.047219e-12 -6.832953e-16 1.687418e-14) (1.521578e-09 -1.190204e-13 1.553263e-13))
21202.079436  	((2.795540e-12 3.321763e-09 9.079665e-10) (-4.794268e-14 9.406532e-09 -2.197975e-10)) ((-4.047219e-12 -6.837327e-16 1.687425e-14) (1.521570e-09 -1.190307e-13 1.553593e-13))
22070.840246  	((2.776658e-12 3.321721e-09 9.079238e-10) (-4.804979e-14 9.406482e-09 -2.198062e-10)) ((-4.047219e-12 -6.840070e-16 1.687447e-14) (1.521563e-09 -1.190351e-13 1.553879e-13))
22939.601125  	((2.784226e-12 3.321679e-09 9.079072e-10) (-4.765069e-14 9.406442e-09 -2.198126e-10)) ((-4.047220e-12 -6.841200e-16 1.687514e-14) (1.521558e-09 -1.190419e-13 1.553823e-13))
23808.36206   	((2.790538e-12 3.321644e-09 9.079051e-10) (-4.771086e-14 9.406415e-09 -2.198170e-10)) ((-4.047220e-12 -6.840588e-16 1.687489e-14) (1.521554e-09 -1.190245e-13 1.554012e-13))
24677.12304   	((2.794145e-12 3.321617e-09 9.079041e-10) (-4.783688e-14 9.406394e-09 -2.198200e-10)) ((-4.047220e-12 -6.840555e-16 1.687478e-14) (1.521551e-09 -1.190048e-13 1.554102e-13))
25545.884056  	((2.791135e-12 3.321598e-09 9.079004e-10) (-4.768795e-14 9.406378e-09 -2.198221e-10)) ((-4.047221e-12 -6.837575e-16 1.687474e-14) (1.521548e-09 -1.190016e-13 1.554201e-13))
26414.645101  	((2.779947e-12 3.321581e-09 9.078934e-10) (-4.773986e-14 9.406366e-09 -2.198239e-10)) ((-4.047221e-12 -6.839218e-16 1.687473e-14) (1.521546e-09 -1.189956e-13 1.554222e-13))
27283.40617   	((2.787958e-12 3.321567e-09 9.078935e-10) (-4.798837e-14 9.406357e-09 -2.198255e-10)) ((-4.047221e-12 -6.840173e-16 1.687466e-14) (1.521545e-09 -1.189830e-13 1.554267e-13))
28152.167259  	((2.787255e-12 3.321558e-09 9.078881e-10) (-4.788825e-14 9.406350e-09 -2.198266e-10)) ((-4.047221e-12 -6.837504e-16 1.687465e-14) (1.521543e-09 -1.189853e-13 1.554360e-13))
29020.928362  	((2.776926e-12 3.321551e-09 9.078833e-10) (-4.793156e-14 9.406345e-09 -2.198276e-10)) ((-4.047221e-12 -6.839317e-16 1.687466e-14) (1.521542e-09 -1.189834e-13 1.554369e-13))
29889.689477  	((2.785673e-12 3.321543e-09 9.078860e-10) (-4.818142e-14 9.406341e-09 -2.198285e-10)) ((-4.047221e-12 -6.840224e-16 1.687462e-14) (1.521542e-09 -1.189738e-13 1.554398e-13))
30758.450602  	((2.785553e-12 3.321541e-09 9.078813e-10) (-4.802643e-14 9.406338e-09 -2.198291e-10)) ((-4.047221e-12 -6.837624e-16 1.687461e-14) (1.521541e-09 -1.189803e-13 1.554470e-13))
31627.211734  	((2.775638e-12 3.321537e-09 9.078782e-10) (-4.801006e-14 9.406335e-09 -2.198296e-10)) ((-4.047221e-12 -6.839481e-16 1.687463e-14) (1.521540e-09 -1.189822e-13 1.554461e-13))
32495.972873  	((2.784613e-12 3.321533e-09 9.078815e-10) (-4.820403e-14 9.406334e-09 -2.198300e-10)) ((-4.047221e-12 -6.840451e-16 1.687458e-14) (1.521540e-09 -1.189755e-13 1.554480e-13))
33364.734016  	((2.784162e-12 3.321531e-09 9.078787e-10) (-4.803951e-14 9.406332e-09 -2.198303e-10)) ((-4.047221e-12 -6.837925e-16 1.687459e-14) (1.521540e-09 -1.189805e-13 1.554539e-13))
34233.495164  	((2.773991e-12 3.321530e-09 9.078744e-10) (-4.799554e-14 9.406331e-09 -2.198305e-10)) ((-4.047221e-12 -6.839601e-16 1.687463e-14) (1.521539e-09 -1.189853e-13 1.554526e-13))
35102.256314  	((2.783250e-12 3.321527e-09 9.078785e-10) (-4.824129e-14 9.406330e-09 -2.198308e-10)) ((-4.047221e-12 -6.840496e-16 1.687458e-14) (1.521539e-09 -1.189744e-13 1.554547e-13))
35971.017467  	((2.782857e-12 3.321526e-09 9.078764e-10) (-4.810045e-14 9.406330e-09 -2.198308e-10)) ((-4.047221e-12 -6.838027e-16 1.687458e-14) (1.521539e-09 -1.189793e-13 1.554580e-13))
36839.778622  	((2.772731e-12 3.321526e-09 9.078729e-10) (-4.807903e-14 9.406329e-09 -2.198310e-10)) ((-4.047221e-12 -6.839636e-16 1.687460e-14) (1.521539e-09 -1.189818e-13 1.554567e-13))
37708.539778  	((2.782033e-12 3.321523e-09 9.078768e-10) (-4.824767e-14 9.406329e-09 -2.198312e-10)) ((-4.047221e-12 -6.840521e-16 1.687458e-14) (1.521539e-09 -1.189748e-13 1.554572e-13))
