# Forces      
# CofR        : (0.000000e+00 0.000000e+00 0.000000e+00)
# Time        forces(pressure viscous)	moments(pressure viscous)
0             	((0.000000e+00 0.000000e+00 0.000000e+00) (0.000000e+00 0.000000e+00 0.000000e+00)) ((0.000000e+00 0.000000e+00 0.000000e+00) (0.000000e+00 0.000000e+00 0.000000e+00))
0.012         	((-8.931212e-06 3.314296e-10 -3.039628e-06) (-2.095472e-05 3.859409e-14 -2.131050e-09)) ((-1.380314e-13 1.356786e-09 -1.100003e-13) (-2.303779e-14 1.394466e-06 -9.815679e-15))
0.0264        	((-1.231592e-05 7.181148e-09 -3.980710e-06) (-1.919537e-05 2.179950e-12 -1.885181e-09)) ((-7.389217e-14 -6.888352e-10 -2.845354e-14) (-8.419190e-14 1.278764e-06 6.423499e-14))
0.04368       	((-8.197890e-06 -4.326612e-09 -2.728050e-06) (-1.738162e-05 -1.494829e-12 -1.717430e-09)) ((-1.589574e-13 -4.935911e-10 -8.558180e-14) (-1.957546e-13 1.159866e-06 2.321736e-13))
0.064416      	((-9.382766e-06 5.115152e-09 -3.049194e-06) (-1.555494e-05 -4.114616e-12 -2.393867e-09)) ((-7.561005e-14 -9.567235e-10 1.393996e-14) (-4.139737e-13 1.040548e-06 2.941831e-13))
0.0892992     	((-6.871469e-06 -2.183636e-09 -2.292622e-06) (-1.376888e-05 -4.631760e-12 -4.248217e-09)) ((-5.695214e-14 -6.789921e-10 -4.668310e-14) (-6.991785e-13 9.243385e-07 1.687287e-13))
0.119159      	((-7.089307e-06 2.477428e-09 -2.283256e-06) (-1.208159e-05 3.384961e-14 -6.910225e-09)) ((-6.791121e-14 -8.246308e-10 -1.628929e-15) (-6.111951e-13 8.151212e-07 6.012061e-15))
0.154991      	((-5.340340e-06 -1.279686e-09 -1.811873e-06) (-1.054677e-05 3.657176e-12 -9.952837e-09)) ((1.386972e-15 -5.742394e-10 -1.128554e-14) (-6.249216e-13 7.152645e-07 -2.463804e-13))
0.197989      	((-5.290390e-06 9.721920e-10 -1.703579e-06) (-9.190836e-06 4.103332e-12 -1.366957e-08)) ((2.367227e-14 -6.521331e-10 4.802870e-15) (-6.756326e-13 6.269574e-07 -4.240576e-13))
0.249587      	((-4.118474e-06 -5.504538e-10 -1.410202e-06) (-8.030333e-06 3.847729e-12 -1.784612e-08)) ((1.195277e-14 -4.677032e-10 -9.134123e-15) (-5.679741e-13 5.508645e-07 -5.521383e-13))
0.311504      	((-4.007225e-06 1.871304e-10 -1.298591e-06) (-7.060633e-06 3.798928e-12 -2.169591e-08)) ((5.807436e-14 -5.208960e-10 -1.593870e-14) (-5.031206e-13 4.869033e-07 -6.796134e-13))
0.385805      	((-3.240133e-06 -6.900951e-11 -1.120966e-06) (-6.252670e-06 5.698663e-12 -2.560411e-08)) ((1.613420e-14 -3.919126e-10 -2.403113e-14) (-3.605867e-13 4.335053e-07 -7.408781e-13))
0.474966      	((-3.132668e-06 1.816378e-10 -1.034173e-06) (-5.576664e-06 6.134761e-12 -2.807236e-08)) ((7.210244e-14 -4.287866e-10 -2.444682e-14) (-2.209308e-13 3.888355e-07 -7.695490e-13))
0.581959      	((-2.614834e-06 5.744344e-11 -9.178537e-07) (-5.002160e-06 3.817786e-12 -3.068408e-08)) ((1.976837e-14 -3.370398e-10 -1.053305e-14) (3.055601e-13 3.508420e-07 -6.303369e-13))
0.710351      	((-2.514837e-06 2.347648e-11 -8.534463e-07) (-4.506229e-06 8.608062e-13 -3.118145e-08)) ((9.184303e-14 -3.631319e-10 8.582166e-15) (6.286666e-13 3.180950e-07 -3.466347e-13))
0.864421      	((-2.157159e-06 2.895900e-10 -7.726198e-07) (-4.070590e-06 -2.538905e-12 -3.317850e-08)) ((4.896027e-14 -3.051197e-10 1.885005e-14) (1.601395e-13 2.893894e-07 -3.536787e-13))
1.049306      	((-2.040575e-06 8.311634e-11 -7.229613e-07) (-3.683444e-06 -3.250291e-12 -3.362611e-08)) ((1.041198e-13 -3.181345e-10 1.221785e-14) (-1.156490e-12 2.639472e-07 -6.615735e-13))
1.271167      	((-1.778182e-06 3.536219e-10 -6.624687e-07) (-3.336097e-06 8.454350e-14 -3.626253e-08)) ((7.768270e-14 -2.812157e-10 3.716850e-14) (-2.399218e-12 2.411717e-07 -1.174381e-12))
1.5374        	((-1.653940e-06 2.243970e-10 -6.230747e-07) (-3.023203e-06 1.002293e-11 -3.803673e-08)) ((1.389429e-13 -2.815838e-10 4.659890e-14) (-3.022551e-12 2.207210e-07 -1.894924e-12))
1.85688       	((-1.456655e-06 2.665359e-10 -5.764548e-07) (-2.741654e-06 2.266717e-11 -4.014184e-08)) ((1.390554e-13 -2.562528e-10 6.058330e-14) (-4.171089e-12 2.023618e-07 -2.280710e-12))
2.240256      	((-1.346447e-06 2.084896e-10 -5.423963e-07) (-2.490547e-06 3.183641e-11 -4.217382e-08)) ((1.632418e-13 -2.501733e-10 5.759210e-14) (-5.723993e-12 1.860186e-07 -1.871730e-12))
2.700307      	((-1.197159e-06 9.581254e-11 -5.092904e-07) (-2.268734e-06 2.993744e-11 -4.393120e-08)) ((1.527959e-13 -2.313428e-10 5.448176e-14) (-7.286330e-12 1.716266e-07 2.012502e-14))
3.252369      	((-1.107407e-06 3.365510e-11 -4.839781e-07) (-2.073885e-06 2.444970e-11 -4.623911e-08)) ((1.371978e-13 -2.273386e-10 5.323767e-14) (-9.697108e-12 1.589979e-07 2.851313e-12))
3.914842      	((-9.971509e-07 -8.823587e-11 -4.598002e-07) (-1.903321e-06 2.862512e-11 -4.824991e-08)) ((1.378600e-13 -2.157480e-10 4.872902e-14) (-1.107016e-11 1.479838e-07 5.686770e-12))
4.709811      	((-9.255894e-07 -1.181507e-10 -4.461924e-07) (-1.752900e-06 4.433083e-11 -5.065502e-08)) ((1.156426e-13 -2.127790e-10 6.220372e-14) (-1.074386e-11 1.382883e-07 7.876650e-12))
5.663773      	((-8.400215e-07 -1.247989e-11 -4.333210e-07) (-1.618976e-06 5.451709e-11 -5.281256e-08)) ((9.281514e-14 -2.055015e-10 6.536711e-14) (-9.058166e-12 1.296847e-07 9.212199e-12))
6.808528      	((-7.799824e-07 7.226460e-11 -4.262681e-07) (-1.498523e-06 6.565770e-11 -5.488424e-08)) ((7.390793e-14 -2.022023e-10 7.553427e-14) (-7.210276e-12 1.219701e-07 9.739911e-12))
8.182233      	((-7.134034e-07 1.139081e-10 -4.200446e-07) (-1.389076e-06 9.069940e-11 -5.700739e-08)) ((5.507140e-14 -1.974086e-10 7.379678e-14) (-6.384792e-12 1.149901e-07 9.570266e-12))
9.83068       	((-6.630912e-07 7.318568e-11 -4.174375e-07) (-1.289184e-06 1.074965e-10 -5.881698e-08)) ((4.795291e-14 -1.948476e-10 6.834088e-14) (-6.070896e-12 1.086446e-07 8.851888e-12))
11.808816     	((-6.109746e-07 1.227368e-10 -4.169934e-07) (-1.197396e-06 1.264252e-10 -6.059209e-08)) ((3.559645e-14 -1.917321e-10 6.450742e-14) (-6.183601e-12 1.028467e-07 7.400028e-12))
14.182579     	((-5.691276e-07 1.120572e-10 -4.190614e-07) (-1.112686e-06 1.270143e-10 -6.225808e-08)) ((3.029939e-14 -1.898481e-10 6.152265e-14) (-6.743381e-12 9.754594e-08 5.450883e-12))
17.031095     	((-5.260011e-07 2.355340e-10 -4.228475e-07) (-1.034465e-06 1.315707e-10 -6.390353e-08)) ((2.547394e-14 -1.877651e-10 5.388160e-14) (-7.195433e-12 9.270527e-08 3.353698e-12))
20.449314     	((-4.906203e-07 2.522277e-10 -4.301850e-07) (-9.626376e-07 1.267346e-10 -6.564352e-08)) ((2.955096e-14 -1.864431e-10 4.635570e-14) (-7.036986e-12 8.832231e-08 1.182705e-12))
24.551176     	((-4.582497e-07 2.869937e-10 -4.376645e-07) (-8.972997e-07 1.029924e-10 -6.772812e-08)) ((2.903732e-14 -1.852488e-10 4.034254e-14) (-6.484346e-12 8.438577e-08 -6.964066e-13))
29.473411     	((-4.317618e-07 1.884416e-10 -4.456734e-07) (-8.382966e-07 8.834423e-11 -7.033196e-08)) ((2.384050e-14 -1.845695e-10 3.770490e-14) (-6.387456e-12 8.087629e-08 -1.883686e-12))
35.380094     	((-4.086047e-07 1.330650e-10 -4.539831e-07) (-7.852763e-07 7.441352e-11 -7.361884e-08)) ((1.980923e-14 -1.839784e-10 3.070870e-14) (-6.154186e-12 7.776246e-08 -2.116796e-12))
42.468112     	((-3.900265e-07 1.032032e-10 -4.638854e-07) (-7.378014e-07 6.180735e-11 -7.751022e-08)) ((1.755735e-14 -1.836323e-10 2.317161e-14) (-5.533431e-12 7.500886e-08 -1.703503e-12))
50.973735     	((-3.747262e-07 3.304634e-11 -4.755744e-07) (-6.954674e-07 4.688479e-11 -8.199926e-08)) ((1.884915e-14 -1.834126e-10 1.869444e-14) (-5.078726e-12 7.258789e-08 -9.148731e-13))
61.180482     	((-3.634515e-07 6.020443e-12 -4.895168e-07) (-6.579833e-07 2.578505e-11 -8.724435e-08)) ((2.125160e-14 -1.834012e-10 1.757376e-14) (-4.797186e-12 7.047685e-08 1.699278e-13))
73.428578     	((-3.559500e-07 -6.959063e-11 -5.043117e-07) (-6.251613e-07 4.569439e-12 -9.330778e-08)) ((1.874099e-14 -1.834721e-10 1.516843e-14) (-4.454125e-12 6.864977e-08 1.103187e-12))
88.126294     	((-3.527629e-07 -1.095142e-10 -5.208723e-07) (-5.968992e-07 -1.150440e-11 -1.001855e-07)) ((1.923957e-14 -1.835877e-10 1.325559e-14) (-4.033200e-12 6.708267e-08 1.709371e-12))
105.587146    	((-3.531826e-07 -1.366732e-10 -5.383710e-07) (-5.732318e-07 -2.409090e-11 -1.076787e-07)) ((2.104569e-14 -1.838654e-10 1.443035e-14) (-3.563040e-12 6.576194e-08 2.221614e-12))
125.811833    	((-3.566977e-07 -1.359578e-10 -5.554340e-07) (-5.542005e-07 -3.159268e-11 -1.154783e-07)) ((2.170354e-14 -1.842097e-10 1.563902e-14) (-3.086152e-12 6.467676e-08 2.517936e-12))
148.801433    	((-3.630574e-07 -1.550358e-10 -5.714509e-07) (-5.396991e-07 -3.906243e-11 -1.232235e-07)) ((2.289349e-14 -1.845347e-10 1.616613e-14) (-2.770263e-12 6.380781e-08 2.619011e-12))
174.557733    	((-3.715267e-07 -1.525873e-10 -5.861142e-07) (-5.294928e-07 -4.875184e-11 -1.304800e-07)) ((2.492125e-14 -1.847992e-10 1.717464e-14) (-2.727389e-12 6.313781e-08 2.646013e-12))
202.244732    	((-3.801998e-07 -1.554834e-10 -5.979787e-07) (-5.231135e-07 -6.029189e-11 -1.366059e-07)) ((2.554956e-14 -1.850450e-10 1.901840e-14) (-2.832082e-12 6.264995e-08 2.798886e-12))
229.951127    	((-3.870790e-07 -1.547693e-10 -6.068333e-07) (-5.196824e-07 -7.197186e-11 -1.411924e-07)) ((2.488663e-14 -1.852769e-10 2.017455e-14) (-2.979532e-12 6.231808e-08 3.052068e-12))
257.676088    	((-3.914002e-07 -1.533772e-10 -6.128155e-07) (-5.180661e-07 -8.216266e-11 -1.443037e-07)) ((2.502071e-14 -1.854323e-10 2.029547e-14) (-3.181711e-12 6.209883e-08 3.330127e-12))
285.417552    	((-3.932091e-07 -1.492701e-10 -6.166191e-07) (-5.173566e-07 -8.817813e-11 -1.462042e-07)) ((2.646202e-14 -1.854941e-10 1.979222e-14) (-3.354223e-12 6.195474e-08 3.498165e-12))
313.173415    	((-3.936204e-07 -1.436701e-10 -6.190316e-07) (-5.169481e-07 -9.146174e-11 -1.472892e-07)) ((2.732884e-14 -1.855106e-10 1.870385e-14) (-3.450549e-12 6.185424e-08 3.620014e-12))
340.940223    	((-3.936008e-07 -1.337368e-10 -6.207701e-07) (-5.165661e-07 -9.307887e-11 -1.479054e-07)) ((2.806764e-14 -1.855118e-10 1.772760e-14) (-3.481653e-12 6.178006e-08 3.723887e-12))
368.716253    	((-3.932213e-07 -1.336698e-10 -6.221670e-07) (-5.161393e-07 -9.391516e-11 -1.483159e-07)) ((2.872618e-14 -1.855006e-10 1.694951e-14) (-3.458151e-12 6.172276e-08 3.776159e-12))
396.500143    	((-3.927854e-07 -1.330691e-10 -6.232713e-07) (-5.156767e-07 -9.405996e-11 -1.486627e-07)) ((2.884165e-14 -1.854854e-10 1.638052e-14) (-3.412276e-12 6.167719e-08 3.792690e-12))
424.291005    	((-3.924673e-07 -1.340581e-10 -6.241610e-07) (-5.152277e-07 -9.403263e-11 -1.490227e-07)) ((2.908698e-14 -1.854658e-10 1.605744e-14) (-3.383796e-12 6.164084e-08 3.777048e-12))
452.087731    	((-3.921892e-07 -1.351262e-10 -6.249604e-07) (-5.148394e-07 -9.399395e-11 -1.494213e-07)) ((2.955278e-14 -1.854482e-10 1.569596e-14) (-3.371565e-12 6.161190e-08 3.754629e-12))
479.889119    	((-3.920197e-07 -1.337563e-10 -6.256695e-07) (-5.145384e-07 -9.436046e-11 -1.498533e-07)) ((2.946420e-14 -1.854323e-10 1.552342e-14) (-3.371470e-12 6.158923e-08 3.722015e-12))
507.694339    	((-3.920127e-07 -1.318920e-10 -6.263315e-07) (-5.143401e-07 -9.448685e-11 -1.502899e-07)) ((2.944462e-14 -1.854198e-10 1.525185e-14) (-3.385627e-12 6.157221e-08 3.700541e-12))
535.50287     	((-3.921251e-07 -1.292910e-10 -6.269147e-07) (-5.142457e-07 -9.464247e-11 -1.507054e-07)) ((2.936290e-14 -1.854109e-10 1.494679e-14) (-3.403725e-12 6.156054e-08 3.688584e-12))
563.314512    	((-3.922295e-07 -1.277451e-10 -6.274025e-07) (-5.142388e-07 -9.492925e-11 -1.510872e-07)) ((2.951780e-14 -1.854034e-10 1.483891e-14) (-3.421638e-12 6.155342e-08 3.679596e-12))
591.129212    	((-3.922939e-07 -1.257730e-10 -6.278025e-07) (-5.142934e-07 -9.507883e-11 -1.514327e-07)) ((2.952374e-14 -1.853951e-10 1.465229e-14) (-3.457195e-12 6.154975e-08 3.672999e-12))
618.946931    	((-3.923125e-07 -1.247377e-10 -6.281328e-07) (-5.143857e-07 -9.536866e-11 -1.517432e-07)) ((2.975231e-14 -1.853857e-10 1.443586e-14) (-3.497063e-12 6.154852e-08 3.674405e-12))
646.76753     	((-3.922883e-07 -1.241751e-10 -6.283862e-07) (-5.144974e-07 -9.566057e-11 -1.520226e-07)) ((2.977936e-14 -1.853760e-10 1.427096e-14) (-3.535502e-12 6.154886e-08 3.686305e-12))
674.590808    	((-3.922258e-07 -1.243298e-10 -6.285809e-07) (-5.146151e-07 -9.591065e-11 -1.522760e-07)) ((2.966216e-14 -1.853658e-10 1.411446e-14) (-3.569093e-12 6.155015e-08 3.699443e-12))
702.416568    	((-3.921405e-07 -1.243633e-10 -6.287302e-07) (-5.147310e-07 -9.607605e-11 -1.525079e-07)) ((2.948233e-14 -1.853555e-10 1.395681e-14) (-3.605350e-12 6.155191e-08 3.706481e-12))
730.244597    	((-3.920627e-07 -1.272938e-10 -6.288642e-07) (-5.148430e-07 -9.632018e-11 -1.527208e-07)) ((2.931997e-14 -1.853461e-10 1.373757e-14) (-3.652469e-12 6.155393e-08 3.709054e-12))
758.074684    	((-3.920023e-07 -1.293285e-10 -6.290000e-07) (-5.149516e-07 -9.669812e-11 -1.529172e-07)) ((2.920926e-14 -1.853379e-10 1.355635e-14) (-3.706719e-12 6.155612e-08 3.714533e-12))
785.906639    	((-3.919475e-07 -1.307921e-10 -6.291300e-07) (-5.150577e-07 -9.714610e-11 -1.530982e-07)) ((2.912382e-14 -1.853304e-10 1.339090e-14) (-3.764914e-12 6.155846e-08 3.724215e-12))
813.740296    	((-3.918850e-07 -1.321082e-10 -6.292443e-07) (-5.151602e-07 -9.767624e-11 -1.532663e-07)) ((2.908022e-14 -1.853229e-10 1.325947e-14) (-3.822567e-12 6.156085e-08 3.738799e-12))
841.575505    	((-3.918262e-07 -1.334309e-10 -6.293458e-07) (-5.152592e-07 -9.824454e-11 -1.534229e-07)) ((2.895442e-14 -1.853161e-10 1.311675e-14) (-3.871729e-12 6.156324e-08 3.763881e-12))
869.412135    	((-3.917734e-07 -1.349678e-10 -6.294433e-07) (-5.153552e-07 -9.883679e-11 -1.535691e-07)) ((2.905908e-14 -1.853097e-10 1.301472e-14) (-3.910972e-12 6.156563e-08 3.797814e-12))
897.250077    	((-3.917114e-07 -1.367143e-10 -6.295262e-07) (-5.154474e-07 -9.943684e-11 -1.537065e-07)) ((2.910559e-14 -1.853034e-10 1.295279e-14) (-3.944248e-12 6.156795e-08 3.834045e-12))
925.089238    	((-3.916496e-07 -1.375918e-10 -6.295979e-07) (-5.155356e-07 -9.995579e-11 -1.538359e-07)) ((2.903964e-14 -1.852974e-10 1.293781e-14) (-3.968888e-12 6.157019e-08 3.867336e-12))
952.929538    	((-3.916050e-07 -1.383805e-10 -6.296734e-07) (-5.156207e-07 -1.003796e-10 -1.539575e-07)) ((2.893891e-14 -1.852917e-10 1.294741e-14) (-3.990637e-12 6.157238e-08 3.893795e-12))
980.77091     	((-3.915657e-07 -1.393094e-10 -6.297455e-07) (-5.157037e-07 -1.007449e-10 -1.540713e-07)) ((2.890711e-14 -1.852864e-10 1.292123e-14) (-4.011680e-12 6.157455e-08 3.914004e-12))
1008.613295   	((-3.915171e-07 -1.401606e-10 -6.297983e-07) (-5.157831e-07 -1.010785e-10 -1.541779e-07)) ((2.892625e-14 -1.852810e-10 1.289173e-14) (-4.032179e-12 6.157663e-08 3.930455e-12))
1036.45664    	((-3.914762e-07 -1.405272e-10 -6.298489e-07) (-5.158590e-07 -1.013776e-10 -1.542785e-07)) ((2.891620e-14 -1.852761e-10 1.285425e-14) (-4.051232e-12 6.157862e-08 3.943238e-12))
1064.300897   	((-3.914461e-07 -1.414268e-10 -6.298986e-07) (-5.159324e-07 -1.016307e-10 -1.543736e-07)) ((2.889655e-14 -1.852716e-10 1.281496e-14) (-4.068932e-12 6.158059e-08 3.953101e-12))
1092.146029   	((-3.914197e-07 -1.416841e-10 -6.299448e-07) (-5.160036e-07 -1.017870e-10 -1.544639e-07)) ((2.884278e-14 -1.852674e-10 1.277614e-14) (-4.082964e-12 6.158253e-08 3.961730e-12))
1119.991994   	((-3.913891e-07 -1.416338e-10 -6.299819e-07) (-5.160725e-07 -1.018905e-10 -1.545500e-07)) ((2.878795e-14 -1.852634e-10 1.272854e-14) (-4.094346e-12 6.158444e-08 3.968544e-12))
1147.838757   	((-3.913598e-07 -1.415239e-10 -6.300127e-07) (-5.161386e-07 -1.019686e-10 -1.546324e-07)) ((2.874699e-14 -1.852596e-10 1.268309e-14) (-4.102893e-12 6.158630e-08 3.972011e-12))
1175.686283   	((-3.913507e-07 -1.414735e-10 -6.300511e-07) (-5.162036e-07 -1.019538e-10 -1.547105e-07)) ((2.871225e-14 -1.852566e-10 1.263345e-14) (-4.109610e-12 6.158818e-08 3.976998e-12))
1203.534541   	((-3.913341e-07 -1.414421e-10 -6.300796e-07) (-5.162672e-07 -1.019475e-10 -1.547846e-07)) ((2.875323e-14 -1.852537e-10 1.260583e-14) (-4.114932e-12 6.159005e-08 3.983369e-12))
