# Forces      
# CofR        : (0.000000e+00 0.000000e+00 0.000000e+00)
# Time        forces(pressure viscous)	moments(pressure viscous)
0             	((0.000000e+00 0.000000e+00 0.000000e+00) (0.000000e+00 0.000000e+00 0.000000e+00)) ((0.000000e+00 0.000000e+00 0.000000e+00) (0.000000e+00 0.000000e+00 0.000000e+00))
0.012         	((1.362954e-10 -3.020187e-08 3.880474e-10) (3.968254e-12 -3.384996e-10 1.859851e-12)) ((2.177797e-12 1.245465e-14 4.163304e-10) (-6.459995e-12 -1.707635e-13 8.451049e-07))
0.0264        	((-1.183706e-10 1.093159e-08 -1.026416e-09) (5.013979e-12 -3.613366e-10 1.351252e-12)) ((5.119370e-12 -2.391722e-14 1.257488e-10) (-1.146907e-11 -1.592488e-13 7.396898e-07))
0.04368       	((5.395708e-10 -5.555006e-09 4.740014e-11) (5.805741e-12 -2.355667e-10 2.201200e-12)) ((-2.325585e-12 2.644210e-14 6.663184e-11) (-9.589811e-12 -2.125208e-13 6.397920e-07))
0.064416      	((4.693779e-10 -5.276524e-10 -1.071043e-09) (3.637442e-12 -1.244614e-10 3.607849e-12)) ((6.851989e-13 2.466370e-14 4.533403e-11) (-4.731321e-12 -1.655071e-13 5.481845e-07))
0.0892992     	((6.302037e-10 -2.739095e-09 -1.164288e-09) (2.153479e-12 -7.714666e-11 7.243785e-12)) ((-7.041020e-13 9.294602e-14 3.681142e-11) (-2.233108e-12 -5.770353e-14 4.673101e-07))
0.119159      	((4.386742e-10 -2.888181e-10 -1.698218e-09) (3.025984e-12 -6.670705e-11 2.385122e-11)) ((-4.219450e-13 1.060952e-13 2.948019e-11) (7.975564e-13 -2.270414e-13 3.982261e-07))
0.154991      	((5.535877e-10 -2.354609e-09 -2.227240e-09) (-1.053187e-12 -5.062418e-11 6.501566e-11)) ((-4.118950e-13 1.156950e-13 2.362663e-11) (3.095460e-12 -3.172716e-13 3.412773e-07))
0.197989      	((2.529936e-10 -1.821352e-09 -2.565149e-09) (-1.168411e-11 -2.741269e-11 1.587943e-10)) ((-3.375500e-13 9.384697e-14 1.866998e-11) (4.513739e-12 -8.344705e-14 2.954223e-07))
0.249587      	((6.992725e-10 -2.200029e-09 -3.006759e-09) (-1.972947e-11 -9.446199e-12 2.963032e-10)) ((-3.419242e-13 1.348155e-13 1.558252e-11) (3.916063e-12 4.266535e-13 2.588136e-07))
0.311504      	((8.046515e-10 -2.432952e-09 -3.141284e-09) (-2.536981e-11 1.412480e-12 4.579973e-10)) ((-2.764373e-13 8.990586e-14 1.387892e-11) (2.879607e-12 8.165403e-13 2.292646e-07))
0.385805      	((1.065388e-09 -3.249295e-09 -3.678506e-09) (-3.162172e-11 -1.917232e-13 6.374165e-10)) ((-1.681077e-13 8.806436e-14 1.217011e-11) (1.887725e-12 8.712460e-13 2.048291e-07))
0.474966      	((1.133375e-09 -4.000257e-09 -3.847828e-09) (-3.877238e-11 -6.282885e-15 8.279566e-10)) ((6.465226e-14 1.213319e-14 1.070803e-11) (-8.023761e-14 1.186283e-12 1.840666e-07))
0.581959      	((1.589175e-09 -4.760340e-09 -4.094471e-09) (-5.156384e-11 -2.132471e-11 1.048784e-09)) ((1.570956e-13 2.879190e-14 9.920535e-12) (-3.365161e-12 2.051486e-12 1.660174e-07))
0.710351      	((2.105817e-09 -4.597025e-09 -4.645425e-09) (-6.625666e-11 -4.914314e-11 1.326428e-09)) ((2.411383e-13 7.899815e-14 9.419312e-12) (-5.469843e-12 3.255160e-12 1.500701e-07))
0.864421      	((2.413480e-09 -3.668357e-09 -5.443776e-09) (-8.675850e-11 3.137742e-12 1.619867e-09)) ((3.842002e-13 5.082480e-14 8.914713e-12) (-4.012955e-12 4.357107e-12 1.358345e-07))
1.049306      	((2.819191e-09 -3.336082e-09 -6.350855e-09) (-1.317387e-10 1.181598e-10 1.971689e-09)) ((5.101329e-13 4.619663e-14 8.418230e-12) (-4.578346e-13 5.314764e-12 1.230703e-07))
1.271167      	((2.261642e-09 -3.063489e-09 -7.268859e-09) (-2.445610e-10 2.309584e-10 2.398630e-09)) ((6.150682e-13 3.328326e-14 8.024357e-12) (2.569965e-12 7.886598e-12 1.116559e-07))
1.5374        	((1.388234e-09 -3.216618e-09 -8.025180e-09) (-4.295472e-10 3.517700e-10 2.842701e-09)) ((5.801808e-13 2.162808e-14 7.682011e-12) (5.623732e-12 1.204276e-11 1.015351e-07))
1.85688       	((9.127042e-10 -3.040114e-09 -8.880961e-09) (-6.434709e-10 4.645674e-10 3.270880e-09)) ((5.185919e-13 3.071290e-14 7.286781e-12) (9.402679e-12 1.683356e-11 9.265173e-08))
2.240256      	((3.894602e-10 -2.363326e-09 -1.016878e-08) (-8.428790e-10 5.786185e-10 3.744286e-09)) ((5.413131e-13 2.424160e-14 6.841094e-12) (1.449846e-11 2.162285e-11 8.491029e-08))
2.700307      	((1.284535e-10 -1.842861e-09 -1.134316e-08) (-1.036658e-09 7.501050e-10 4.294974e-09)) ((5.269206e-13 -3.292083e-14 6.424959e-12) (2.117186e-11 2.725937e-11 7.817084e-08))
3.252369      	((-2.654947e-10 -1.015254e-09 -1.248866e-08) (-1.193690e-09 9.415412e-10 4.883982e-09)) ((4.527004e-13 -1.007011e-13 5.968007e-12) (2.657021e-11 3.329387e-11 7.226630e-08))
3.914842      	((-4.574934e-10 -2.602463e-10 -1.383684e-08) (-1.274673e-09 1.129307e-09 5.519770e-09)) ((3.442525e-13 -1.276068e-13 5.529049e-12) (3.007877e-11 3.702352e-11 6.703257e-08))
4.709811      	((-8.457557e-10 1.492203e-10 -1.555021e-08) (-1.305587e-09 1.229414e-09 6.264698e-09)) ((2.986945e-13 -1.479172e-13 5.127999e-12) (3.045400e-11 3.926212e-11 6.233105e-08))
5.663773      	((-5.454933e-10 3.542669e-10 -1.732284e-08) (-1.253884e-09 1.216217e-09 7.131842e-09)) ((2.503409e-13 -1.635518e-13 4.734751e-12) (2.824481e-11 3.891581e-11 5.806046e-08))
6.808528      	((-6.109313e-10 1.022170e-10 -1.960812e-08) (-1.131641e-09 1.100010e-09 8.057217e-09)) ((1.999356e-13 -1.631505e-13 4.391136e-12) (2.515047e-11 3.614049e-11 5.414970e-08))
8.182233      	((-7.697501e-11 2.262658e-10 -2.128958e-08) (-9.627495e-10 9.375313e-10 9.054969e-09)) ((1.477205e-13 -1.955104e-13 4.052664e-12) (2.231878e-11 3.160673e-11 5.054998e-08))
9.83068       	((-3.366749e-10 -3.142320e-10 -2.346058e-08) (-7.738209e-10 7.599154e-10 1.011476e-08)) ((1.253582e-13 -2.796771e-13 3.746208e-12) (1.831362e-11 2.699403e-11 4.723263e-08))
11.808816     	((5.753425e-11 -5.697449e-10 -2.564518e-08) (-6.083569e-10 5.994936e-10 1.120779e-08)) ((6.981311e-14 -2.972160e-13 3.461280e-12) (1.257924e-11 2.157799e-11 4.417450e-08))
14.182579     	((2.190256e-10 -3.264992e-10 -2.802266e-08) (-4.496061e-10 4.745391e-10 1.240308e-08)) ((-2.795873e-14 -3.006922e-13 3.193143e-12) (8.396459e-12 1.667843e-11 4.136051e-08))
17.031095     	((1.842889e-10 -2.550071e-10 -3.050319e-08) (-3.473616e-10 3.759363e-10 1.366391e-08)) ((-7.793779e-14 -2.885897e-13 2.950427e-12) (6.249438e-12 1.352242e-11 3.878102e-08))
20.449314     	((2.176548e-10 -3.209259e-10 -3.324561e-08) (-2.765747e-10 3.258423e-10 1.496054e-08)) ((-1.056710e-13 -2.996264e-13 2.733699e-12) (5.965281e-12 1.127556e-11 3.642827e-08))
24.551176     	((4.542842e-11 -3.830608e-10 -3.636951e-08) (-2.473063e-10 3.245079e-10 1.630143e-08)) ((-1.410940e-13 -3.134645e-13 2.542902e-12) (7.217349e-12 1.011799e-11 3.428676e-08))
29.473411     	((-3.055568e-12 -3.606282e-10 -3.958464e-08) (-2.684112e-10 3.688288e-10 1.774939e-08)) ((-1.570630e-13 -3.289805e-13 2.378467e-12) (9.393049e-12 1.055628e-11 3.233677e-08))
35.380094     	((-6.907497e-11 -3.586636e-10 -4.318238e-08) (-3.050387e-10 4.395826e-10 1.932581e-08)) ((-1.643592e-13 -3.501561e-13 2.231687e-12) (1.196656e-11 1.222326e-11 3.056088e-08))
42.468112     	((-5.396042e-11 -3.939612e-10 -4.687745e-08) (-3.513613e-10 5.081149e-10 2.107748e-08)) ((-1.748861e-13 -3.662364e-13 2.095971e-12) (1.421980e-11 1.367642e-11 2.894252e-08))
50.973735     	((-1.425550e-10 -4.598175e-10 -5.035618e-08) (-4.122176e-10 5.640297e-10 2.302255e-08)) ((-1.684857e-13 -3.832216e-13 1.973077e-12) (1.532499e-11 1.505899e-11 2.746660e-08))
61.180482     	((-1.552584e-10 -4.095497e-10 -5.381335e-08) (-4.754592e-10 5.997863e-10 2.516755e-08)) ((-1.567527e-13 -3.993091e-13 1.857181e-12) (1.535012e-11 1.651178e-11 2.611930e-08))
73.428578     	((-2.042150e-10 -3.643136e-10 -5.712479e-08) (-5.439984e-10 6.164215e-10 2.750200e-08)) ((-1.531002e-13 -4.126152e-13 1.752947e-12) (1.471539e-11 1.821283e-11 2.488971e-08))
88.126294     	((-2.499246e-10 -3.080446e-10 -6.031290e-08) (-6.079406e-10 6.149194e-10 2.994194e-08)) ((-1.583171e-13 -4.142120e-13 1.657772e-12) (1.399898e-11 1.949613e-11 2.376919e-08))
105.763553    	((-2.966698e-10 -2.722548e-10 -6.350278e-08) (-6.573386e-10 5.967388e-10 3.241260e-08)) ((-1.667272e-13 -4.063085e-13 1.573840e-12) (1.333614e-11 2.031203e-11 2.274950e-08))
126.928263    	((-3.021217e-10 -3.027988e-10 -6.678622e-08) (-6.959683e-10 5.735944e-10 3.488965e-08)) ((-1.656839e-13 -3.901591e-13 1.497362e-12) (1.247837e-11 2.051666e-11 2.182347e-08))
152.325916    	((-3.394410e-10 -3.254231e-10 -6.997421e-08) (-7.274705e-10 5.459603e-10 3.738539e-08)) ((-1.737623e-13 -3.872257e-13 1.428902e-12) (1.155503e-11 2.060694e-11 2.098284e-08))
182.803099    	((-3.745146e-10 -3.702072e-10 -7.313039e-08) (-7.401223e-10 5.097820e-10 3.990105e-08)) ((-1.808628e-13 -3.937370e-13 1.368095e-12) (1.035115e-11 2.057561e-11 2.021970e-08))
219.375719    	((-4.100653e-10 -3.968564e-10 -7.632693e-08) (-7.445170e-10 4.666074e-10 4.243822e-08)) ((-1.832829e-13 -4.004330e-13 1.311683e-12) (8.810512e-12 2.050869e-11 1.952676e-08))
263.262863    	((-4.403410e-10 -4.480137e-10 -7.949927e-08) (-7.426142e-10 4.248293e-10 4.501278e-08)) ((-1.790086e-13 -4.124963e-13 1.259092e-12) (6.938080e-12 2.045357e-11 1.889736e-08))
315.927436    	((-3.824168e-10 -4.373764e-10 -8.255651e-08) (-7.283717e-10 3.755206e-10 4.764077e-08)) ((-1.746568e-13 -4.291741e-13 1.206197e-12) (4.870528e-12 2.004473e-11 1.832629e-08))
378.77517     	((-3.650068e-10 -4.709593e-10 -8.542230e-08) (-6.972552e-10 3.216323e-10 5.032036e-08)) ((-1.694658e-13 -4.484835e-13 1.158864e-12) (2.773673e-12 1.950031e-11 1.781020e-08))
451.804404    	((-3.567811e-10 -4.721483e-10 -8.815224e-08) (-6.539370e-10 2.695452e-10 5.302870e-08)) ((-1.660854e-13 -4.630124e-13 1.118562e-12) (8.062749e-13 1.862171e-11 1.734748e-08))
535.01349     	((-3.566791e-10 -4.718538e-10 -9.067467e-08) (-6.041626e-10 2.221547e-10 5.574328e-08)) ((-1.627494e-13 -4.751024e-13 1.081959e-12) (-8.903529e-13 1.711166e-11 1.693501e-08))
628.400861    	((-3.494548e-10 -4.721084e-10 -9.300221e-08) (-5.508155e-10 1.802507e-10 5.843862e-08)) ((-1.587314e-13 -4.873704e-13 1.050947e-12) (-2.261666e-12 1.535394e-11 1.656912e-08))
730.16729     	((-3.380233e-10 -4.540015e-10 -9.508226e-08) (-5.006748e-10 1.464382e-10 6.107575e-08)) ((-1.546743e-13 -4.996016e-13 1.023231e-12) (-3.323031e-12 1.352780e-11 1.624614e-08))
831.915818    	((-3.442160e-10 -4.500772e-10 -9.698936e-08) (-4.558741e-10 1.245557e-10 6.359604e-08)) ((-1.493320e-13 -5.099244e-13 9.969829e-13) (-3.966849e-12 1.173318e-11 1.596415e-08))
933.648381    	((-3.446783e-10 -4.440689e-10 -9.863359e-08) (-4.132945e-10 1.107339e-10 6.597555e-08)) ((-1.461010e-13 -5.191113e-13 9.737669e-13) (-4.254689e-12 1.014410e-11 1.571856e-08))
1035.36463    	((-3.399517e-10 -4.341738e-10 -1.000734e-07) (-3.711929e-10 9.975333e-11 6.820459e-08)) ((-1.406142e-13 -5.268512e-13 9.538702e-13) (-4.366164e-12 8.798140e-12 1.550520e-08))
1137.068777   	((-3.333068e-10 -4.238876e-10 -1.013082e-07) (-3.345536e-10 9.582040e-11 7.029567e-08)) ((-1.353383e-13 -5.341197e-13 9.365759e-13) (-4.281522e-12 7.645294e-12 1.531933e-08))
1238.761014   	((-3.355892e-10 -4.150709e-10 -1.023762e-07) (-3.024364e-10 9.614116e-11 7.225703e-08)) ((-1.317921e-13 -5.413659e-13 9.206181e-13) (-3.928510e-12 6.712594e-12 1.515718e-08))
1340.443686   	((-3.403228e-10 -4.109030e-10 -1.032993e-07) (-2.777867e-10 9.890739e-11 7.409994e-08)) ((-1.286590e-13 -5.472644e-13 9.064342e-13) (-3.446355e-12 6.033039e-12 1.501537e-08))
1442.119523   	((-3.414591e-10 -4.040818e-10 -1.041200e-07) (-2.559397e-10 1.025409e-10 7.583136e-08)) ((-1.254586e-13 -5.536100e-13 8.942567e-13) (-2.982965e-12 5.545870e-12 1.489107e-08))
1543.788562   	((-3.408036e-10 -4.009215e-10 -1.048525e-07) (-2.390734e-10 1.047416e-10 7.746000e-08)) ((-1.221881e-13 -5.605909e-13 8.834514e-13) (-2.526437e-12 5.199125e-12 1.478177e-08))
1645.453203   	((-3.404804e-10 -3.996131e-10 -1.055069e-07) (-2.258224e-10 1.076759e-10 7.899265e-08)) ((-1.195599e-13 -5.676316e-13 8.739819e-13) (-2.108099e-12 4.978008e-12 1.468536e-08))
1747.116053   	((-3.395642e-10 -3.974056e-10 -1.060873e-07) (-2.154893e-10 1.115637e-10 8.043710e-08)) ((-1.180700e-13 -5.737707e-13 8.654204e-13) (-1.709716e-12 4.869340e-12 1.460001e-08))
1848.779196   	((-3.407433e-10 -3.976808e-10 -1.066074e-07) (-2.078149e-10 1.152469e-10 8.180026e-08)) ((-1.167082e-13 -5.791289e-13 8.577421e-13) (-1.327630e-12 4.813656e-12 1.452433e-08))
1950.442464   	((-3.413182e-10 -3.998170e-10 -1.070752e-07) (-2.018159e-10 1.189831e-10 8.308810e-08)) ((-1.151020e-13 -5.836160e-13 8.509632e-13) (-9.967374e-13 4.751478e-12 1.445704e-08))
2052.107279   	((-3.387914e-10 -4.015851e-10 -1.074933e-07) (-1.965624e-10 1.226138e-10 8.430680e-08)) ((-1.131823e-13 -5.875926e-13 8.447179e-13) (-7.145837e-13 4.687734e-12 1.439713e-08))
2153.775434   	((-3.354583e-10 -4.015644e-10 -1.078632e-07) (-1.922464e-10 1.258410e-10 8.546036e-08)) ((-1.118625e-13 -5.910260e-13 8.392721e-13) (-4.784716e-13 4.621849e-12 1.434368e-08))
2255.448459   	((-3.313777e-10 -4.002058e-10 -1.082002e-07) (-1.884078e-10 1.290363e-10 8.655187e-08)) ((-1.110359e-13 -5.946950e-13 8.342324e-13) (-2.708628e-13 4.543586e-12 1.429590e-08))
2357.127695   	((-3.273971e-10 -4.013643e-10 -1.085036e-07) (-1.847422e-10 1.323457e-10 8.758405e-08)) ((-1.103217e-13 -5.982302e-13 8.294594e-13) (-7.053648e-14 4.459522e-12 1.425311e-08))
