# Forces      
# CofR        : (0.000000e+00 0.000000e+00 0.000000e+00)
# Time        forces(pressure viscous)	moments(pressure viscous)
0             	((0.000000e+00 0.000000e+00 0.000000e+00) (0.000000e+00 0.000000e+00 0.000000e+00)) ((0.000000e+00 0.000000e+00 0.000000e+00) (0.000000e+00 0.000000e+00 0.000000e+00))
0.012         	((-1.099102e-11 4.565656e-07 7.394815e-08) (-1.279479e-13 1.050236e-06 -6.042784e-13)) ((6.669886e-11 2.412091e-13 -6.109547e-13) (6.988855e-08 6.366463e-15 1.128707e-13))
0.0264        	((-2.652888e-10 6.136655e-07 1.566315e-07) (-6.005129e-13 9.620224e-07 -2.005277e-12)) ((-3.027847e-11 5.242413e-13 -2.700364e-13) (6.408774e-08 1.562640e-14 1.162813e-13))
0.04368       	((2.062465e-10 4.149519e-07 8.496736e-08) (-7.841195e-13 8.709874e-07 -4.576949e-12)) ((-2.248087e-11 2.751505e-13 -3.041622e-13) (5.811892e-08 4.545640e-15 2.177885e-13))
0.064416      	((-2.341076e-10 4.691329e-07 1.099110e-07) (-1.068191e-12 7.791440e-07 -8.786187e-12)) ((-4.440252e-11 3.640276e-13 -1.914468e-13) (5.211750e-08 -1.545169e-14 8.459869e-14))
0.0892992     	((1.177606e-10 3.463123e-07 7.328629e-08) (-1.097834e-12 6.891156e-07 -1.395154e-11)) ((-3.168560e-11 2.391356e-13 -1.270956e-13) (4.625461e-08 -3.287166e-14 -2.554882e-13))
0.119159      	((-8.440857e-11 3.551398e-07 7.952487e-08) (-7.650453e-13 6.037817e-07 -1.965694e-11)) ((-3.879900e-11 2.605348e-13 -6.666314e-14) (4.072260e-08 -3.102397e-14 -3.921908e-13))
0.154991      	((5.954815e-11 2.674778e-07 5.675621e-08) (-5.135428e-13 5.257971e-07 -2.701592e-11)) ((-2.711065e-11 1.871430e-13 -2.981918e-14) (3.563941e-08 -2.993753e-14 -4.433308e-13))
0.197989      	((-1.869512e-11 2.640178e-07 5.714156e-08) (-3.143649e-13 4.567856e-07 -3.618873e-11)) ((-3.058204e-11 1.893671e-13 -4.474151e-14) (3.113721e-08 -2.853304e-14 -4.705170e-13))
0.249587      	((2.124507e-11 2.051156e-07 4.429517e-08) (-2.690703e-13 3.979706e-07 -4.655506e-11)) ((-2.191155e-11 1.431869e-13 -3.599806e-14) (2.727119e-08 -1.587386e-14 -4.411797e-13))
0.311504      	((7.688526e-12 1.991100e-07 4.288156e-08) (-4.089703e-14 3.490674e-07 -5.649502e-11)) ((-2.413756e-11 1.426772e-13 -6.478339e-14) (2.404295e-08 -8.867825e-15 -3.519573e-13))
0.385805      	((1.934948e-12 1.604925e-07 3.559205e-08) (4.278733e-14 3.086548e-07 -6.620611e-11)) ((-1.799124e-11 1.149003e-13 -4.068721e-14) (2.137229e-08 -2.209420e-15 -2.020712e-13))
0.474966      	((5.225768e-12 1.555556e-07 3.355034e-08) (-1.807388e-14 2.752115e-07 -7.240622e-11)) ((-1.954681e-11 1.120077e-13 -5.626850e-14) (1.916611e-08 -5.125237e-15 -7.254786e-14))
0.581959      	((-5.726217e-12 1.295955e-07 2.887606e-08) (-3.506788e-13 2.470506e-07 -7.933404e-11)) ((-1.507532e-11 9.179617e-14 -3.810758e-14) (1.730698e-08 3.025702e-15 -7.493522e-14))
0.710351      	((3.228127e-12 1.255508e-07 2.670102e-08) (-6.774729e-13 2.228556e-07 -8.286776e-11)) ((-1.624686e-11 8.907635e-14 -5.825378e-14) (1.571531e-08 -7.211863e-15 -6.495310e-14))
0.864421      	((-1.399882e-11 1.069119e-07 2.360832e-08) (-7.460574e-13 2.015827e-07 -8.801794e-11)) ((-1.308164e-11 7.525395e-14 -4.070321e-14) (1.431698e-08 -1.606867e-14 -1.315618e-13))
1.049306      	((1.277750e-12 1.028318e-07 2.172214e-08) (-1.078862e-12 1.826477e-07 -8.845946e-11)) ((-1.399899e-11 7.296780e-14 -3.395912e-14) (1.307789e-08 -4.995302e-14 -2.285423e-13))
1.271167      	((-8.360164e-12 8.841198e-08 1.940522e-08) (-1.108699e-12 1.655666e-07 -9.433950e-11)) ((-1.181802e-11 6.386969e-14 1.195027e-16) (1.196132e-08 -6.365147e-14 -2.650315e-13))
1.5374        	((-6.530093e-12 8.402779e-08 1.770494e-08) (-1.092155e-12 1.501457e-07 -8.905291e-11)) ((-1.231933e-11 6.144894e-14 4.408787e-15) (1.095453e-08 -1.082928e-13 -2.246617e-13))
1.85688       	((-6.699573e-12 7.280942e-08 1.596497e-08) (-1.553060e-12 1.362114e-07 -9.401244e-11)) ((-1.072485e-11 5.587504e-14 2.189068e-14) (1.004683e-08 -1.858670e-13 -2.313991e-13))
2.240256      	((-5.603929e-12 6.824278e-08 1.468707e-08) (-1.462142e-12 1.236941e-07 -9.006192e-11)) ((-1.087355e-11 5.268783e-14 1.749147e-14) (9.230644e-09 -2.804157e-13 -3.415755e-13))
2.700307      	((-2.434241e-12 5.985923e-08 1.349070e-08) (-2.258417e-12 1.126250e-07 -8.767256e-11)) ((-9.750144e-12 4.914199e-14 2.745821e-14) (8.509540e-09 -3.694912e-13 -4.602238e-13))
3.252369      	((-8.946149e-12 5.569290e-08 1.257764e-08) (-3.130817e-12 1.028516e-07 -8.799840e-11)) ((-9.766251e-12 4.654789e-14 2.110591e-14) (7.872290e-09 -4.526450e-13 -4.751568e-13))
3.914842      	((-7.191220e-13 4.968591e-08 1.169145e-08) (-1.434117e-12 9.425477e-08 -8.161885e-11)) ((-9.119059e-12 4.302330e-14 2.186619e-14) (7.313327e-09 -5.842914e-13 -3.947012e-13))
4.709811      	((-4.978293e-13 4.596901e-08 1.090926e-08) (-4.630795e-13 8.668724e-08 -7.917106e-11)) ((-9.031340e-12 3.593645e-14 1.912831e-14) (6.822303e-09 -6.949244e-13 -2.594231e-13))
5.663773      	((2.586511e-12 4.157568e-08 1.006994e-08) (-1.437104e-12 7.997446e-08 -8.094344e-11)) ((-8.608750e-12 3.286596e-14 2.061202e-14) (6.388007e-09 -6.492583e-13 -1.348390e-13))
6.808528      	((-8.817386e-12 3.834372e-08 9.266023e-09) (-1.613551e-12 7.395582e-08 -8.658096e-11)) ((-8.414205e-12 3.054620e-14 2.042727e-14) (5.999860e-09 -5.380272e-13 -4.303594e-14))
8.182233      	((-7.384337e-12 3.493521e-08 8.401761e-09) (-2.438164e-12 6.849459e-08 -9.523931e-11)) ((-8.141135e-12 2.651155e-14 2.341710e-14) (5.649482e-09 -4.835399e-13 1.262097e-15))
9.83068       	((-4.834561e-12 3.206183e-08 7.632123e-09) (-2.883563e-12 6.349847e-08 -1.060701e-10)) ((-7.932807e-12 2.184025e-14 2.367889e-14) (5.330704e-09 -4.847196e-13 -1.450835e-16))
11.808816     	((2.929734e-12 2.931207e-08 6.893644e-09) (-3.039579e-12 5.891306e-08 -1.225128e-10)) ((-7.729487e-12 1.866497e-14 2.448061e-14) (5.040152e-09 -4.487692e-13 4.206078e-14))
14.182579     	((-8.754202e-13 2.693138e-08 6.310766e-09) (-3.751370e-12 5.470117e-08 -1.448015e-10)) ((-7.533638e-12 1.365444e-14 2.425156e-14) (4.774826e-09 -3.898308e-13 2.879440e-14))
17.031095     	((-3.962191e-12 2.468099e-08 5.810607e-09) (-4.005021e-12 5.082887e-08 -1.590415e-10)) ((-7.380901e-12 1.326967e-14 2.471299e-14) (4.532949e-09 -2.577388e-13 -4.047046e-15))
20.449314     	((-7.669960e-12 2.267837e-08 5.449900e-09) (-4.333909e-12 4.727630e-08 -1.678395e-10)) ((-7.229534e-12 1.122590e-14 2.545855e-14) (4.312619e-09 -1.294788e-13 -7.018860e-15))
24.551176     	((-3.762733e-12 2.079259e-08 5.143748e-09) (-4.900676e-12 4.402473e-08 -1.704634e-10)) ((-7.117732e-12 9.933354e-15 2.610626e-14) (4.112407e-09 -4.744515e-14 2.454656e-14))
29.473411     	((-5.801615e-12 1.909232e-08 4.828487e-09) (-5.083964e-12 4.105494e-08 -1.697193e-10)) ((-7.012994e-12 8.893856e-15 2.679963e-14) (3.930672e-09 2.650736e-15 3.120618e-14))
35.380094     	((-6.451851e-12 1.752340e-08 4.522880e-09) (-4.494250e-12 3.834418e-08 -1.657534e-10)) ((-6.929232e-12 8.318250e-15 2.740798e-14) (3.765604e-09 2.229848e-14 6.690726e-14))
42.468112     	((-4.543588e-12 1.610978e-08 4.196992e-09) (-4.212401e-12 3.586724e-08 -1.625812e-10)) ((-6.850169e-12 7.792818e-15 2.754693e-14) (3.615463e-09 2.408644e-14 1.329114e-13))
50.973735     	((-2.497277e-12 1.479940e-08 3.877741e-09) (-3.822164e-12 3.360262e-08 -1.620704e-10)) ((-6.785679e-12 6.851145e-15 2.749715e-14) (3.478867e-09 -3.815874e-15 1.888457e-13))
61.180482     	((-2.868155e-12 1.362002e-08 3.592195e-09) (-3.433901e-12 3.153500e-08 -1.636257e-10)) ((-6.726062e-12 5.110589e-15 2.765941e-14) (3.354911e-09 -6.220157e-14 2.272049e-13))
73.428578     	((-1.470863e-12 1.255054e-08 3.319464e-09) (-2.910425e-12 2.965110e-08 -1.656564e-10)) ((-6.676261e-12 3.423501e-15 2.746867e-14) (3.242789e-09 -1.193422e-13 2.633230e-13))
88.126294     	((8.143722e-13 1.158841e-08 3.046799e-09) (-2.378385e-12 2.793748e-08 -1.667883e-10)) ((-6.632795e-12 2.070770e-15 2.718972e-14) (3.141605e-09 -1.644419e-13 3.217282e-13))
105.763553    	((3.247244e-13 1.073362e-08 2.809119e-09) (-1.810391e-12 2.638308e-08 -1.656979e-10)) ((-6.597308e-12 9.417354e-16 2.718088e-14) (3.050605e-09 -2.025254e-13 3.593182e-13))
126.928263    	((6.666949e-13 9.965343e-09 2.599174e-09) (-1.004475e-12 2.497596e-08 -1.652078e-10)) ((-6.567393e-12 -4.248408e-17 2.699076e-14) (2.969041e-09 -2.288388e-13 3.821821e-13))
152.325916    	((1.108134e-12 9.284292e-09 2.408932e-09) (-4.356507e-13 2.370464e-08 -1.664276e-10)) ((-6.543535e-12 -9.430654e-16 2.682517e-14) (2.896037e-09 -2.553752e-13 4.040620e-13))
182.803099    	((2.521205e-12 8.684455e-09 2.220919e-09) (-1.092910e-13 2.255797e-08 -1.705133e-10)) ((-6.523307e-12 -1.902068e-15 2.664856e-14) (2.830804e-09 -2.685300e-13 4.157193e-13))
219.375719    	((3.781181e-12 8.158371e-09 2.048199e-09) (1.663652e-13 2.152510e-08 -1.788156e-10)) ((-6.507531e-12 -2.834984e-15 2.636351e-14) (2.772614e-09 -2.779151e-13 4.157429e-13))
263.262863    	((5.029513e-12 7.695194e-09 1.888016e-09) (2.682632e-13 2.059655e-08 -1.906432e-10)) ((-6.494532e-12 -3.442921e-15 2.618154e-14) (2.720805e-09 -2.751323e-13 4.003842e-13))
315.927436    	((5.696484e-12 7.291508e-09 1.720622e-09) (2.712415e-13 1.976332e-08 -2.057627e-10)) ((-6.483912e-12 -4.160930e-15 2.613109e-14) (2.674776e-09 -2.765994e-13 3.761495e-13))
379.124923    	((5.694277e-12 6.943562e-09 1.557446e-09) (2.904010e-13 1.901865e-08 -2.246092e-10)) ((-6.475922e-12 -4.926258e-15 2.618791e-14) (2.634036e-09 -2.763137e-13 3.464389e-13))
454.961908    	((5.565901e-12 6.648552e-09 1.407264e-09) (3.110811e-13 1.835697e-08 -2.467607e-10)) ((-6.469714e-12 -5.556649e-15 2.615210e-14) (2.598163e-09 -2.758647e-13 3.180616e-13))
545.966289    	((5.512943e-12 6.399539e-09 1.281872e-09) (1.878196e-13 1.777377e-08 -2.717932e-10)) ((-6.464157e-12 -5.889457e-15 2.621737e-14) (2.566852e-09 -2.709242e-13 2.998386e-13))
655.171547    	((5.588059e-12 6.194773e-09 1.166160e-09) (9.423118e-14 1.726508e-08 -2.988794e-10)) ((-6.459723e-12 -6.168478e-15 2.629285e-14) (2.539804e-09 -2.629393e-13 2.905911e-13))
786.217856    	((5.456286e-12 6.028063e-09 1.060615e-09) (1.708609e-13 1.682729e-08 -3.270628e-10)) ((-6.456472e-12 -6.445693e-15 2.635682e-14) (2.516714e-09 -2.572253e-13 2.849221e-13))
943.473427    	((5.456331e-12 5.894333e-09 9.651961e-10) (2.332042e-13 1.645612e-08 -3.558635e-10)) ((-6.454156e-12 -6.700951e-15 2.642738e-14) (2.497261e-09 -2.508879e-13 2.772760e-13))
1132.180113   	((5.737278e-12 5.788772e-09 8.815575e-10) (2.624074e-13 1.614688e-08 -3.848277e-10)) ((-6.452441e-12 -6.878157e-15 2.647414e-14) (2.481115e-09 -2.422611e-13 2.693158e-13))
1358.628135   	((5.896771e-12 5.706955e-09 8.095054e-10) (2.076613e-13 1.589385e-08 -4.131445e-10)) ((-6.451095e-12 -7.001079e-15 2.648624e-14) (2.467919e-09 -2.327404e-13 2.628700e-13))
1630.365763   	((5.870478e-12 5.644640e-09 7.482400e-10) (1.328158e-13 1.569062e-08 -4.400863e-10)) ((-6.450049e-12 -7.108911e-15 2.652100e-14) (2.457304e-09 -2.240899e-13 2.549242e-13))
1956.450915   	((5.902018e-12 5.597490e-09 6.978484e-10) (5.541732e-14 1.553042e-08 -4.649844e-10)) ((-6.449117e-12 -7.183901e-15 2.654955e-14) (2.448898e-09 -2.150315e-13 2.450140e-13))
2337.355065   	((5.939064e-12 5.562608e-09 6.565832e-10) (-1.729563e-14 1.540662e-08 -4.871837e-10)) ((-6.448431e-12 -7.252487e-15 2.656377e-14) (2.442353e-09 -2.062989e-13 2.345612e-13))
2773.075992   	((5.864614e-12 5.536770e-09 6.233307e-10) (-8.039175e-14 1.531262e-08 -5.063282e-10)) ((-6.447927e-12 -7.306865e-15 2.657603e-14) (2.437328e-09 -1.979229e-13 2.251390e-13))
3263.612146   	((5.848188e-12 5.517807e-09 5.969835e-10) (-1.366008e-13 1.524243e-08 -5.223232e-10)) ((-6.447549e-12 -7.359761e-15 2.658931e-14) (2.433520e-09 -1.899164e-13 2.173773e-13))
3808.962467   	((5.842532e-12 5.503648e-09 5.765049e-10) (-1.793791e-13 1.519069e-08 -5.352980e-10)) ((-6.447241e-12 -7.397438e-15 2.659948e-14) (2.430665e-09 -1.833967e-13 2.113915e-13))
4357.097067   	((5.842363e-12 5.493219e-09 5.611200e-10) (-2.071189e-13 1.515315e-08 -5.454806e-10)) ((-6.447211e-12 -7.420998e-15 2.660741e-14) (2.428554e-09 -1.783364e-13 2.069308e-13))
4905.227568   	((5.827990e-12 5.485371e-09 5.491278e-10) (-2.267319e-13 1.512604e-08 -5.532912e-10)) ((-6.447222e-12 -7.437741e-15 2.661377e-14) (2.426999e-09 -1.747089e-13 2.034136e-13))
5453.356095   	((5.806605e-12 5.479459e-09 5.400394e-10) (-2.449482e-13 1.510655e-08 -5.591717e-10)) ((-6.447239e-12 -7.454183e-15 2.662019e-14) (2.425856e-09 -1.722850e-13 2.008970e-13))
6001.483839   	((5.784589e-12 5.474910e-09 5.329450e-10) (-2.611512e-13 1.509251e-08 -5.635497e-10)) ((-6.447252e-12 -7.467680e-15 2.662363e-14) (2.425013e-09 -1.704232e-13 1.990975e-13))
6549.611476   	((5.764665e-12 5.471416e-09 5.274475e-10) (-2.750501e-13 1.508237e-08 -5.667863e-10)) ((-6.447263e-12 -7.479900e-15 2.662655e-14) (2.424391e-09 -1.690219e-13 1.979131e-13))
7097.739369   	((5.743446e-12 5.468687e-09 5.232207e-10) (-2.870090e-13 1.507501e-08 -5.691653e-10)) ((-6.447269e-12 -7.490235e-15 2.662837e-14) (2.423928e-09 -1.679677e-13 1.971731e-13))
7645.867683   	((5.740372e-12 5.466564e-09 5.199113e-10) (-2.974139e-13 1.506963e-08 -5.709082e-10)) ((-6.447272e-12 -7.497325e-15 2.662955e-14) (2.423583e-09 -1.671579e-13 1.967699e-13))
8193.996492   	((5.736138e-12 5.464898e-09 5.172831e-10) (-3.055627e-13 1.506566e-08 -5.721900e-10)) ((-6.447272e-12 -7.501713e-15 2.662930e-14) (2.423323e-09 -1.665183e-13 1.966003e-13))
8742.125815   	((5.736962e-12 5.463584e-09 5.152048e-10) (-3.121324e-13 1.506272e-08 -5.731364e-10)) ((-6.447272e-12 -7.506079e-15 2.662875e-14) (2.423127e-09 -1.660118e-13 1.965556e-13))
9290.255628   	((5.734026e-12 5.462554e-09 5.135685e-10) (-3.176927e-13 1.506051e-08 -5.738391e-10)) ((-6.447273e-12 -7.508980e-15 2.662848e-14) (2.422978e-09 -1.656448e-13 1.965657e-13))
9838.385885   	((5.731222e-12 5.461745e-09 5.122708e-10) (-3.223011e-13 1.505884e-08 -5.743650e-10)) ((-6.447273e-12 -7.511312e-15 2.662799e-14) (2.422863e-09 -1.653636e-13 1.966297e-13))
10386.516532  	((5.732049e-12 5.461102e-09 5.112546e-10) (-3.260342e-13 1.505757e-08 -5.747630e-10)) ((-6.447274e-12 -7.513306e-15 2.662751e-14) (2.422775e-09 -1.651501e-13 1.967223e-13))
10934.647512  	((5.724384e-12 5.460591e-09 5.104253e-10) (-3.293326e-13 1.505660e-08 -5.750668e-10)) ((-6.447274e-12 -7.514823e-15 2.662710e-14) (2.422706e-09 -1.649794e-13 1.968157e-13))
11482.778771  	((5.719484e-12 5.460188e-09 5.097555e-10) (-3.321079e-13 1.505585e-08 -5.753018e-10)) ((-6.447275e-12 -7.516196e-15 2.662684e-14) (2.422653e-09 -1.648475e-13 1.969009e-13))
12030.910261  	((5.720208e-12 5.459870e-09 5.092327e-10) (-3.342785e-13 1.505526e-08 -5.754855e-10)) ((-6.447275e-12 -7.517416e-15 2.662653e-14) (2.422611e-09 -1.647476e-13 1.969844e-13))
12579.04194   	((5.719020e-12 5.459617e-09 5.088103e-10) (-3.360477e-13 1.505481e-08 -5.756298e-10)) ((-6.447276e-12 -7.518361e-15 2.662629e-14) (2.422578e-09 -1.646652e-13 1.970584e-13))
13127.173773  	((5.716445e-12 5.459414e-09 5.084963e-10) (-3.374737e-13 1.505445e-08 -5.757439e-10)) ((-6.447276e-12 -7.519047e-15 2.662613e-14) (2.422552e-09 -1.646036e-13 1.971273e-13))
13675.30573   	((5.711085e-12 5.459237e-09 5.082237e-10) (-3.386724e-13 1.505417e-08 -5.758350e-10)) ((-6.447277e-12 -7.519808e-15 2.662608e-14) (2.422531e-09 -1.645571e-13 1.971941e-13))
14223.437786  	((5.704020e-12 5.459102e-09 5.080089e-10) (-3.395701e-13 1.505395e-08 -5.759080e-10)) ((-6.447277e-12 -7.520405e-15 2.662600e-14) (2.422514e-09 -1.645245e-13 1.972590e-13))
14771.569923  	((5.695115e-12 5.458998e-09 5.078340e-10) (-3.403156e-13 1.505377e-08 -5.759672e-10)) ((-6.447278e-12 -7.520894e-15 2.662593e-14) (2.422501e-09 -1.644973e-13 1.973186e-13))
15319.702123  	((5.686114e-12 5.458918e-09 5.077072e-10) (-3.409649e-13 1.505363e-08 -5.760150e-10)) ((-6.447278e-12 -7.521251e-15 2.662587e-14) (2.422491e-09 -1.644761e-13 1.973734e-13))
15867.834375  	((5.645983e-12 5.458856e-09 5.075645e-10) (-3.418134e-13 1.505352e-08 -5.760546e-10)) ((-6.447279e-12 -7.522304e-15 2.662598e-14) (2.422483e-09 -1.644759e-13 1.974246e-13))
16415.966668  	((5.639580e-12 5.458818e-09 5.074429e-10) (-3.426947e-13 1.505343e-08 -5.760874e-10)) ((-6.447279e-12 -7.522984e-15 2.662619e-14) (2.422476e-09 -1.644557e-13 1.974821e-13))
16964.098993  	((5.614951e-12 5.458785e-09 5.073441e-10) (-3.430790e-13 1.505336e-08 -5.761137e-10)) ((-6.447279e-12 -7.523346e-15 2.662624e-14) (2.422471e-09 -1.644556e-13 1.975255e-13))
17512.231345  	((5.622787e-12 5.458759e-09 5.072678e-10) (-3.437987e-13 1.505331e-08 -5.761355e-10)) ((-6.447279e-12 -7.523583e-15 2.662631e-14) (2.422466e-09 -1.644398e-13 1.975621e-13))
18060.363719  	((5.605096e-12 5.458738e-09 5.072030e-10) (-3.439153e-13 1.505326e-08 -5.761526e-10)) ((-6.447279e-12 -7.523740e-15 2.662632e-14) (2.422463e-09 -1.644429e-13 1.975892e-13))
18608.496108  	((5.597271e-12 5.458721e-09 5.071520e-10) (-3.439983e-13 1.505322e-08 -5.761665e-10)) ((-6.447279e-12 -7.523874e-15 2.662634e-14) (2.422460e-09 -1.644440e-13 1.976149e-13))
19156.628512  	((5.636156e-12 5.458697e-09 5.071550e-10) (-3.431209e-13 1.505319e-08 -5.761774e-10)) ((-6.447279e-12 -7.522984e-15 2.662753e-14) (2.422458e-09 -1.644499e-13 1.976075e-13))
19704.760927  	((5.635296e-12 5.458677e-09 5.071566e-10) (-3.429398e-13 1.505317e-08 -5.761852e-10)) ((-6.447280e-12 -7.522388e-15 2.662706e-14) (2.422456e-09 -1.644378e-13 1.976240e-13))
20252.893351  	((5.637765e-12 5.458663e-09 5.071497e-10) (-3.429047e-13 1.505315e-08 -5.761918e-10)) ((-6.447280e-12 -7.522073e-15 2.662687e-14) (2.422454e-09 -1.644352e-13 1.976535e-13))
20801.025782  	((5.640923e-12 5.458650e-09 5.071423e-10) (-3.429844e-13 1.505314e-08 -5.761978e-10)) ((-6.447280e-12 -7.521947e-15 2.662681e-14) (2.422453e-09 -1.644318e-13 1.976694e-13))
21349.158218  	((5.642662e-12 5.458639e-09 5.071357e-10) (-3.430735e-13 1.505312e-08 -5.762027e-10)) ((-6.447280e-12 -7.521862e-15 2.662679e-14) (2.422452e-09 -1.644290e-13 1.976808e-13))
21897.29066   	((5.643854e-12 5.458631e-09 5.071290e-10) (-3.431459e-13 1.505311e-08 -5.762068e-10)) ((-6.447280e-12 -7.521817e-15 2.662676e-14) (2.422451e-09 -1.644275e-13 1.976919e-13))
22445.423104  	((5.644550e-12 5.458623e-09 5.071233e-10) (-3.432317e-13 1.505311e-08 -5.762101e-10)) ((-6.447280e-12 -7.521797e-15 2.662674e-14) (2.422451e-09 -1.644250e-13 1.977019e-13))
22993.555552  	((5.645172e-12 5.458618e-09 5.071184e-10) (-3.431952e-13 1.505310e-08 -5.762127e-10)) ((-6.447280e-12 -7.521791e-15 2.662673e-14) (2.422450e-09 -1.644268e-13 1.977097e-13))
23541.688002  	((5.645576e-12 5.458613e-09 5.071145e-10) (-3.434714e-13 1.505309e-08 -5.762149e-10)) ((-6.447280e-12 -7.521765e-15 2.662670e-14) (2.422450e-09 -1.644139e-13 1.977195e-13))
24089.820454  	((5.644787e-12 5.458609e-09 5.071101e-10) (-3.432902e-13 1.505309e-08 -5.762165e-10)) ((-6.447280e-12 -7.521784e-15 2.662667e-14) (2.422450e-09 -1.644188e-13 1.977267e-13))
