# Forces      
# CofR        : (0.000000e+00 0.000000e+00 0.000000e+00)
# Time        forces(pressure viscous)	moments(pressure viscous)
0             	((0.000000e+00 0.000000e+00 0.000000e+00) (-4.972796e-08 1.398115e-10 -5.026283e-03)) ((0.000000e+00 0.000000e+00 0.000000e+00) (-5.827889e-11 -9.986169e-10 1.398579e-13))
0.012         	((-1.721607e-04 -3.589165e-05 -3.862346e+00) (-1.555255e-07 -5.208036e-08 -5.044306e-03)) ((1.687595e-08 -1.012973e-05 -8.993308e-10) (-6.784172e-09 1.764878e-08 2.182582e-12))
0.0264        	((4.760784e-06 2.523437e-05 4.390380e-01) (-3.027645e-07 -8.691558e-08 -4.437673e-03)) ((-1.058160e-08 6.712640e-07 2.850309e-10) (-2.157329e-09 3.046649e-08 -2.871082e-10))
0.04368       	((2.688705e-04 2.734530e-04 3.881013e-01) (-1.636097e-07 1.376457e-07 -3.806240e-03)) ((-1.591298e-08 8.568461e-07 -4.525434e-09) (1.639024e-08 1.764740e-08 -3.075554e-10))
0.064416      	((3.926964e-05 1.650157e-05 1.128175e-01) (3.010328e-07 6.450618e-07 -3.420181e-03)) ((-6.018188e-09 2.278486e-07 -4.044122e-09) (2.856308e-08 -3.688861e-09 -7.706636e-10))
0.0892992     	((-1.278456e-05 2.744297e-05 5.758266e-02) (5.601850e-07 7.322973e-07 -3.171717e-03)) ((-5.455118e-09 5.875445e-08 -5.248666e-09) (3.030419e-08 -1.345789e-08 -1.260342e-10))
0.119159      	((4.068175e-05 3.070444e-05 2.944704e-02) (4.320215e-07 6.475654e-07 -2.957659e-03)) ((-4.995644e-09 -3.430765e-08 -4.058029e-09) (2.685713e-08 -1.471321e-08 1.313071e-09))
0.154991      	((6.478783e-05 3.306598e-05 1.275098e-02) (1.107931e-07 5.579991e-07 -2.763384e-03)) ((-5.116031e-09 -8.480497e-08 -4.423141e-09) (2.811573e-08 -1.336060e-08 2.660183e-09))
0.197989      	((3.518649e-05 1.443013e-05 2.754442e-03) (2.353206e-07 3.680747e-07 -2.586491e-03)) ((-5.026095e-09 -1.139296e-07 -6.279534e-09) (3.762565e-08 -1.143887e-08 4.166812e-09))
0.249587      	((3.575703e-05 4.739565e-06 -3.271995e-03) (3.691762e-07 4.327079e-07 -2.426759e-03)) ((-4.740494e-09 -1.281252e-07 -4.232115e-09) (4.562208e-08 -2.538934e-08 5.178106e-09))
0.311504      	((-1.091761e-05 -3.702348e-07 -6.984454e-03) (-3.744331e-08 5.320269e-07 -2.282655e-03)) ((-4.103154e-09 -1.349850e-07 -2.469481e-09) (4.808430e-08 -5.443198e-08 4.759645e-09))
0.385805      	((-1.710908e-05 -1.881394e-06 -9.225298e-03) (3.288522e-08 6.963955e-07 -2.152507e-03)) ((-2.735327e-09 -1.374924e-07 5.845692e-10) (4.759534e-08 -8.476349e-08 4.250013e-09))
0.474966      	((-2.020027e-05 1.183682e-06 -1.056721e-02) (5.503140e-07 9.425667e-07 -2.034905e-03)) ((-2.914705e-09 -1.365131e-07 2.826704e-10) (5.034867e-08 -1.100471e-07 3.076469e-09))
0.581959      	((-1.757095e-05 -7.912082e-06 -1.137270e-02) (6.485484e-07 9.859502e-07 -1.929387e-03)) ((-3.017050e-09 -1.352711e-07 6.141504e-10) (5.402626e-08 -1.206526e-07 1.874956e-09))
0.710351      	((-1.749546e-05 -9.606105e-06 -1.190977e-02) (9.086977e-07 9.347529e-07 -1.837187e-03)) ((-2.977552e-09 -1.335192e-07 -7.784563e-10) (5.575059e-08 -1.234703e-07 9.831044e-10))
0.864421      	((-1.563337e-05 -1.552595e-05 -1.234278e-02) (1.565992e-06 8.218730e-07 -1.757858e-03)) ((-3.096853e-09 -1.311011e-07 -5.097957e-10) (6.152075e-08 -1.255101e-07 4.693030e-10))
1.049306      	((-1.949143e-05 -1.893746e-05 -1.274352e-02) (1.657557e-06 6.604560e-07 -1.692172e-03)) ((-2.917254e-09 -1.279593e-07 -7.614937e-10) (6.275655e-08 -1.213813e-07 5.918314e-11))
1.267213      	((-2.856314e-05 -2.464858e-05 -1.294304e-02) (1.219654e-06 5.573012e-07 -1.643039e-03)) ((-2.419079e-09 -1.253225e-07 -4.192838e-10) (5.702723e-08 -1.030206e-07 -6.223007e-10))
1.518518      	((-3.679354e-05 -2.941157e-05 -1.323750e-02) (8.961997e-07 3.998555e-07 -1.608856e-03)) ((-2.044975e-09 -1.230601e-07 -6.227906e-10) (4.899702e-08 -7.872164e-08 -1.163698e-09))
1.803528      	((-4.769663e-05 -3.777841e-05 -1.343175e-02) (7.263025e-07 2.632140e-07 -1.584101e-03)) ((-1.816857e-09 -1.210560e-07 -5.077090e-10) (3.803845e-08 -5.404481e-08 -1.437671e-09))
2.122581      	((-6.927158e-05 -5.158346e-05 -1.314545e-02) (3.397553e-07 1.145764e-07 -1.566058e-03)) ((-1.416199e-09 -1.189508e-07 -4.171668e-10) (2.282438e-08 -2.368850e-08 -1.425231e-09))
2.466019      	((-8.182925e-05 -5.900309e-05 -1.268495e-02) (-4.691162e-07 -2.661993e-07 -1.554818e-03)) ((-1.142841e-09 -1.164296e-07 -5.533426e-10) (7.820139e-09 5.520183e-09 -8.150840e-10))
2.812427      	((-1.014274e-04 -7.224306e-05 -1.223699e-02) (-1.278146e-06 -6.473827e-07 -1.548410e-03)) ((-8.913108e-10 -1.145213e-07 -6.618582e-10) (-3.936223e-09 2.830370e-08 -1.543622e-10))
3.161301      	((-1.104744e-04 -8.035757e-05 -1.199341e-02) (-1.789848e-06 -8.719497e-07 -1.545289e-03)) ((-6.066857e-10 -1.133429e-07 -7.302134e-10) (-1.088476e-08 4.241175e-08 -1.157992e-10))
3.511951      	((-1.223311e-04 -9.007018e-05 -1.195129e-02) (-2.164448e-06 -1.071046e-06 -1.545521e-03)) ((-4.924013e-10 -1.127791e-07 -8.542164e-10) (-1.373631e-08 4.999036e-08 -9.233245e-11))
3.863617      	((-1.413812e-04 -1.071590e-04 -1.197736e-02) (-2.527678e-06 -1.319977e-06 -1.548325e-03)) ((-3.779252e-10 -1.126829e-07 -9.436676e-10) (-1.562246e-08 5.503846e-08 3.690778e-11))
4.215688      	((-1.645345e-04 -1.278265e-04 -1.190670e-02) (-2.922531e-06 -1.669440e-06 -1.552134e-03)) ((-1.383502e-10 -1.127397e-07 -1.134791e-09) (-2.052359e-08 6.075268e-08 1.392921e-12))
4.567817      	((-1.822897e-04 -1.431023e-04 -1.180311e-02) (-3.278292e-06 -2.022544e-06 -1.555693e-03)) ((2.272779e-10 -1.130316e-07 -1.298529e-09) (-2.601604e-08 6.555085e-08 -2.481965e-10))
4.919891      	((-2.034724e-04 -1.607962e-04 -1.172531e-02) (-3.559867e-06 -2.320205e-06 -1.558111e-03)) ((6.086863e-10 -1.135787e-07 -1.390213e-09) (-2.930191e-08 6.756710e-08 -3.469927e-10))
5.27188       	((-2.265563e-04 -1.806278e-04 -1.164547e-02) (-3.806393e-06 -2.613412e-06 -1.559357e-03)) ((1.105194e-09 -1.140807e-07 -1.427227e-09) (-3.138222e-08 6.818774e-08 -3.989887e-10))
5.623744      	((-2.499689e-04 -2.006529e-04 -1.158553e-02) (-4.054344e-06 -2.910307e-06 -1.559985e-03)) ((1.560171e-09 -1.146294e-07 -1.428510e-09) (-3.417866e-08 6.883175e-08 -6.043490e-10))
5.97558       	((-2.747870e-04 -2.215189e-04 -1.154565e-02) (-4.333951e-06 -3.207656e-06 -1.560326e-03)) ((1.982510e-09 -1.151948e-07 -1.473436e-09) (-3.804062e-08 7.032871e-08 -7.701788e-10))
6.327434      	((-3.008668e-04 -2.415904e-04 -1.152222e-02) (-4.652117e-06 -3.538061e-06 -1.560486e-03)) ((2.322499e-09 -1.156278e-07 -1.620713e-09) (-4.282066e-08 7.285951e-08 -8.603826e-10))
6.679353      	((-3.283021e-04 -2.624539e-04 -1.150775e-02) (-5.028021e-06 -3.912765e-06 -1.560592e-03)) ((2.645408e-09 -1.160649e-07 -1.689441e-09) (-5.017257e-08 7.776628e-08 -1.095379e-09))
7.031267      	((-3.566869e-04 -2.830016e-04 -1.149988e-02) (-5.457620e-06 -4.301156e-06 -1.560791e-03)) ((2.959724e-09 -1.164913e-07 -1.799602e-09) (-5.903487e-08 8.505381e-08 -1.388165e-09))
