# Forces      
# CofR        : (0.000000e+00 0.000000e+00 0.000000e+00)
# Time        forces(pressure viscous)	moments(pressure viscous)
0             	((0.000000e+00 0.000000e+00 0.000000e+00) (-1.022271e-13 -2.001297e-04 1.811147e-14)) ((0.000000e+00 0.000000e+00 0.000000e+00) (-4.496706e-06 -5.512403e-16 9.737515e-11))
0.012         	((3.050712e-08 -5.821748e-02 1.307514e-02) (2.970646e-10 -2.294366e-04 -3.024048e-07)) ((6.861462e-07 4.478675e-08 1.094315e-08) (-6.629576e-06 1.848310e-12 1.933065e-10))
0.0264        	((-1.037763e-06 4.527782e-03 -1.002910e-03) (-1.785789e-10 -2.335541e-04 -4.744677e-07)) ((-5.311633e-08 -2.978273e-09 -6.479316e-10) (-7.411146e-06 4.153795e-11 2.427537e-10))
0.04368       	((5.492297e-07 1.191493e-02 -1.047100e-03) (3.092124e-10 -2.070575e-04 -4.556814e-07)) ((-1.556277e-07 -3.354915e-09 -3.069812e-09) (-6.599903e-06 6.712007e-11 1.922279e-10))
0.064416      	((4.127441e-08 1.103903e-04 -5.639982e-04) (7.681454e-10 -1.831904e-04 -2.769359e-07)) ((5.756828e-10 -1.602974e-09 2.677452e-10) (-5.933553e-06 5.372029e-11 1.888085e-10))
0.0892992     	((1.733150e-07 -1.123237e-04 -3.642812e-04) (6.598154e-10 -1.689916e-04 -2.769215e-07)) ((5.472210e-09 -8.744717e-10 1.791557e-10) (-5.611475e-06 -4.833447e-12 6.291126e-11))
0.119159      	((-1.492183e-07 1.961912e-04 -2.548495e-04) (1.906369e-09 -1.560122e-04 -4.528254e-07)) ((-3.437567e-09 -6.083600e-10 -1.244458e-10) (-5.256612e-06 -4.619410e-11 -8.960049e-11))
0.154991      	((-2.157988e-07 9.573808e-05 -1.862191e-04) (2.972035e-09 -1.424244e-04 -5.817533e-07)) ((-2.004464e-09 -3.689343e-10 -4.864595e-11) (-4.866343e-06 5.137295e-12 -1.049847e-10))
0.197989      	((-5.524064e-08 2.160622e-05 -1.393929e-04) (2.380127e-09 -1.289610e-04 -7.157164e-07)) ((-8.626450e-10 -1.935971e-10 -8.332679e-13) (-4.473436e-06 6.645149e-11 -6.213946e-11))
0.249587      	((-7.635591e-09 -4.344616e-06 -1.110813e-04) (1.470440e-10 -1.160494e-04 -8.751727e-07)) ((-4.491173e-10 -9.003149e-11 -7.122746e-12) (-4.086989e-06 7.716504e-11 -7.401445e-11))
0.311504      	((-3.503552e-08 -1.692015e-05 -9.351988e-05) (-2.560878e-09 -1.040453e-04 -1.056541e-06)) ((-2.805451e-10 -3.644935e-11 -3.442634e-12) (-3.714834e-06 6.319871e-11 -1.547480e-10))
0.385805      	((-2.652848e-08 -2.399725e-05 -8.243071e-05) (-4.037701e-09 -9.322086e-05 -1.251715e-06)) ((-1.933591e-10 -4.898848e-12 -6.866776e-13) (-3.366199e-06 5.378705e-11 -2.008610e-10))
0.474966      	((-2.110181e-08 -2.756701e-05 -7.521406e-05) (-3.222810e-09 -8.371010e-05 -1.441491e-06)) ((-1.307281e-10 1.655158e-11 -3.581631e-13) (-3.048295e-06 5.117654e-11 -1.748790e-10))
0.581959      	((-9.504803e-09 -2.905161e-05 -7.068133e-05) (-2.193146e-09 -7.534951e-05 -1.630605e-06)) ((-7.981486e-11 3.186244e-11 -3.386405e-13) (-2.760029e-06 5.882565e-11 -1.293964e-10))
0.710351      	((-5.661850e-09 -2.902130e-05 -6.782392e-05) (-2.114707e-09 -6.788796e-05 -1.798015e-06)) ((-3.666867e-11 4.121315e-11 1.547204e-12) (-2.496612e-06 6.696782e-11 -1.174708e-10))
0.864421      	((-3.047434e-09 -2.802790e-05 -6.608447e-05) (-1.747982e-09 -6.118101e-05 -1.944535e-06)) ((-9.173365e-12 4.537668e-11 3.311559e-12) (-2.255483e-06 6.819425e-11 -1.272163e-10))
1.049306      	((-3.506225e-09 -2.649412e-05 -6.498334e-05) (-9.832135e-10 -5.514922e-05 -2.092750e-06)) ((8.689398e-12 4.717756e-11 2.605384e-12) (-2.035620e-06 6.725602e-11 -1.429666e-10))
1.271167      	((-1.540105e-09 -2.468687e-05 -6.430131e-05) (-1.825505e-10 -4.974661e-05 -2.258204e-06)) ((1.775976e-11 4.771607e-11 1.626258e-12) (-1.836990e-06 6.038193e-11 -1.646553e-10))
1.5374        	((-2.319014e-09 -2.282057e-05 -6.389356e-05) (7.165137e-10 -4.492994e-05 -2.444899e-06)) ((2.281464e-11 4.727832e-11 1.591973e-12) (-1.659230e-06 4.306974e-11 -1.795870e-10))
1.85688       	((8.520086e-10 -2.106054e-05 -6.358361e-05) (1.432847e-09 -4.065300e-05 -2.650793e-06)) ((2.992412e-11 4.580365e-11 2.228863e-12) (-1.501209e-06 2.327007e-11 -1.796064e-10))
2.240256      	((-4.620523e-10 -1.949768e-05 -6.332072e-05) (1.428728e-09 -3.686952e-05 -2.872810e-06)) ((3.920822e-11 4.412900e-11 2.783763e-12) (-1.361373e-06 1.458142e-11 -1.720962e-10))
2.700307      	((-1.478493e-09 -1.814124e-05 -6.305309e-05) (9.939999e-10 -3.352705e-05 -3.109311e-06)) ((5.026417e-11 4.227445e-11 3.197268e-12) (-1.237791e-06 1.770460e-11 -1.571595e-10))
3.252369      	((-2.795835e-09 -1.699694e-05 -6.277257e-05) (7.012372e-10 -3.057118e-05 -3.358886e-06)) ((6.391924e-11 4.038677e-11 3.588490e-12) (-1.128471e-06 2.040673e-11 -1.512202e-10))
3.914842      	((-3.596565e-09 -1.608183e-05 -6.244510e-05) (5.023133e-10 -2.795993e-05 -3.618750e-06)) ((8.080442e-11 3.823482e-11 4.474370e-12) (-1.031888e-06 2.085139e-11 -1.535555e-10))
4.709811      	((-3.983587e-09 -1.541684e-05 -6.206719e-05) (2.194514e-10 -2.566672e-05 -3.885528e-06)) ((1.006600e-10 3.623767e-11 5.842764e-12) (-9.470674e-07 2.382576e-11 -1.417887e-10))
5.663773      	((-5.543614e-09 -1.499599e-05 -6.159075e-05) (-1.338960e-10 -2.366806e-05 -4.155831e-06)) ((1.236537e-10 3.454413e-11 7.266930e-12) (-8.731231e-07 2.833205e-11 -1.161472e-10))
6.808528      	((-7.448525e-09 -1.484999e-05 -6.104330e-05) (-3.739768e-10 -2.193646e-05 -4.425683e-06)) ((1.504818e-10 3.240553e-11 8.503761e-12) (-8.090106e-07 3.849103e-11 -8.730155e-11))
8.182233      	((-7.866234e-09 -1.498035e-05 -6.039978e-05) (-4.199595e-10 -2.044299e-05 -4.690910e-06)) ((1.803702e-10 2.993275e-11 1.020446e-11) (-7.536758e-07 5.155389e-11 -8.243249e-11))
9.83068       	((-7.551915e-09 -1.537752e-05 -5.967682e-05) (-5.913687e-10 -1.916068e-05 -4.946269e-06)) ((2.137639e-10 2.725472e-11 1.271349e-11) (-7.062065e-07 6.283451e-11 -1.073445e-10))
11.808816     	((-8.464854e-09 -1.603293e-05 -5.885364e-05) (-7.817422e-10 -1.806953e-05 -5.185951e-06)) ((2.510593e-10 2.438765e-11 1.582759e-11) (-6.659170e-07 7.375242e-11 -1.472515e-10))
14.182579     	((-6.735189e-09 -1.691986e-05 -5.793978e-05) (-7.996419e-10 -1.715658e-05 -5.408140e-06)) ((2.923664e-10 2.144897e-11 1.910375e-11) (-6.322707e-07 7.688402e-11 -2.007456e-10))
17.031095     	((-5.129806e-09 -1.799900e-05 -5.692645e-05) (-5.779033e-10 -1.640019e-05 -5.610418e-06)) ((3.360634e-10 1.806464e-11 2.326794e-11) (-6.047409e-07 7.147216e-11 -2.756772e-10))
20.415923     	((-4.246863e-09 -1.923518e-05 -5.584578e-05) (-5.651928e-10 -1.579315e-05 -5.789230e-06)) ((3.798982e-10 1.470724e-11 2.763689e-11) (-5.830764e-07 6.448126e-11 -3.336162e-10))
24.339901     	((-3.721561e-09 -2.052430e-05 -5.467228e-05) (-5.112639e-10 -1.532310e-05 -5.937148e-06)) ((4.189718e-10 1.173328e-11 3.209768e-11) (-5.665961e-07 6.517962e-11 -3.716986e-10))
28.804043     	((-3.521757e-09 -2.175694e-05 -5.337019e-05) (-5.029258e-10 -1.496066e-05 -6.043875e-06)) ((4.499781e-10 9.432049e-12 3.604462e-11) (-5.538464e-07 7.099349e-11 -3.989204e-10))
33.806723     	((-8.541571e-10 -2.284932e-05 -5.188843e-05) (-4.660629e-10 -1.467109e-05 -6.100598e-06)) ((4.744881e-10 7.286170e-12 3.915914e-11) (-5.434583e-07 7.179766e-11 -3.963384e-10))
39.164002     	((6.274023e-10 -2.378027e-05 -5.030355e-05) (-1.370911e-11 -1.443100e-05 -6.113018e-06)) ((4.945375e-10 4.942075e-12 4.171149e-11) (-5.347336e-07 6.240109e-11 -3.624866e-10))
44.503719     	((3.828587e-09 -2.445902e-05 -4.871254e-05) (8.967116e-10 -1.423140e-05 -6.097117e-06)) ((5.117585e-10 3.212620e-12 4.394663e-11) (-5.276172e-07 4.314880e-11 -3.025056e-10))
49.852683     	((2.168803e-09 -2.484735e-05 -4.714060e-05) (1.589887e-09 -1.405589e-05 -6.070403e-06)) ((5.247885e-10 2.825792e-12 4.587385e-11) (-5.215834e-07 2.470088e-11 -2.470173e-10))
55.232857     	((1.250362e-09 -2.501996e-05 -4.565030e-05) (1.822195e-09 -1.389508e-05 -6.044067e-06)) ((5.337666e-10 3.629145e-12 4.732313e-11) (-5.161932e-07 1.188334e-11 -2.110861e-10))
60.645493     	((-4.588062e-10 -2.505412e-05 -4.427012e-05) (1.939484e-09 -1.374592e-05 -6.020789e-06)) ((5.391270e-10 5.136035e-12 4.837117e-11) (-5.112675e-07 3.054633e-12 -1.907929e-10))
66.07989      	((-2.115392e-09 -2.499750e-05 -4.302052e-05) (1.631701e-09 -1.360850e-05 -6.001445e-06)) ((5.409993e-10 6.868282e-12 4.904476e-11) (-5.067834e-07 -1.876309e-13 -1.833217e-10))
71.532244     	((-3.576931e-09 -2.488152e-05 -4.185092e-05) (1.540377e-09 -1.348061e-05 -5.987568e-06)) ((5.408054e-10 8.675300e-12 4.941098e-11) (-5.026014e-07 -7.741544e-12 -1.680450e-10))
77.001565     	((-6.736168e-09 -2.473932e-05 -4.072627e-05) (1.536109e-09 -1.336131e-05 -5.977987e-06)) ((5.397925e-10 1.054654e-11 4.966569e-11) (-4.986864e-07 -9.754414e-12 -1.530833e-10))
82.48725      	((-8.910781e-09 -2.460445e-05 -3.966487e-05) (1.406357e-09 -1.325115e-05 -5.971760e-06)) ((5.382441e-10 1.241559e-11 4.993819e-11) (-4.950424e-07 -6.542313e-12 -1.539413e-10))
87.988475     	((-1.015034e-08 -2.449571e-05 -3.866664e-05) (1.144604e-09 -1.315055e-05 -5.968520e-06)) ((5.366918e-10 1.422296e-11 5.019720e-11) (-4.916642e-07 -8.273805e-13 -1.724897e-10))
93.504286     	((-1.148272e-08 -2.440677e-05 -3.773895e-05) (7.799286e-10 -1.305944e-05 -5.967042e-06)) ((5.353011e-10 1.582737e-11 5.041681e-11) (-4.885572e-07 5.623936e-12 -2.002462e-10))
99.035209     	((-1.278627e-08 -2.432546e-05 -3.686080e-05) (3.883865e-10 -1.297696e-05 -5.966496e-06)) ((5.340738e-10 1.736025e-11 5.058343e-11) (-4.857159e-07 1.286667e-11 -2.279059e-10))
104.575683    	((-1.373124e-08 -2.424657e-05 -3.603564e-05) (-4.998403e-11 -1.290191e-05 -5.966232e-06)) ((5.329718e-10 1.885311e-11 5.073237e-11) (-4.831326e-07 2.294720e-11 -2.547865e-10))
110.119362    	((-1.408684e-08 -2.416434e-05 -3.524522e-05) (-4.697237e-10 -1.283332e-05 -5.965443e-06)) ((5.320696e-10 2.039176e-11 5.087126e-11) (-4.808032e-07 3.294176e-11 -2.789684e-10))
115.666033    	((-1.404257e-08 -2.409172e-05 -3.449705e-05) (-8.654712e-10 -1.277087e-05 -5.963510e-06)) ((5.315314e-10 2.187085e-11 5.098158e-11) (-4.787263e-07 4.116245e-11 -2.999738e-10))
121.215498    	((-1.257142e-08 -2.402363e-05 -3.379211e-05) (-1.124075e-09 -1.271422e-05 -5.960717e-06)) ((5.309776e-10 2.333168e-11 5.106702e-11) (-4.768754e-07 4.719124e-11 -3.199349e-10))
126.767571    	((-1.109828e-08 -2.395116e-05 -3.312215e-05) (-1.251502e-09 -1.266253e-05 -5.957748e-06)) ((5.303193e-10 2.477129e-11 5.114429e-11) (-4.752022e-07 4.982837e-11 -3.350632e-10))
132.322083    	((-9.548865e-09 -2.388095e-05 -3.248785e-05) (-1.257378e-09 -1.261503e-05 -5.954438e-06)) ((5.298432e-10 2.613548e-11 5.122170e-11) (-4.736893e-07 4.942671e-11 -3.434480e-10))
137.878877    	((-9.674596e-09 -2.381804e-05 -3.189116e-05) (-1.224347e-09 -1.257151e-05 -5.950523e-06)) ((5.294908e-10 2.738739e-11 5.129368e-11) (-4.723357e-07 5.154433e-11 -3.453233e-10))
143.437811    	((-1.010298e-08 -2.375192e-05 -3.132240e-05) (-1.192239e-09 -1.253138e-05 -5.946814e-06)) ((5.287728e-10 2.863045e-11 5.135358e-11) (-4.710946e-07 5.584673e-11 -3.439935e-10))
148.998749    	((-1.026152e-08 -2.368524e-05 -3.078534e-05) (-1.106116e-09 -1.249395e-05 -5.944019e-06)) ((5.278053e-10 2.983856e-11 5.141540e-11) (-4.699164e-07 5.947022e-11 -3.385354e-10))
154.56157     	((-1.150293e-08 -2.361976e-05 -3.026448e-05) (-1.011769e-09 -1.245871e-05 -5.942262e-06)) ((5.268208e-10 3.099001e-11 5.147489e-11) (-4.687805e-07 6.553610e-11 -3.280257e-10))
160.12616     	((-1.249240e-08 -2.355800e-05 -2.977290e-05) (-9.163569e-10 -1.242547e-05 -5.941191e-06)) ((5.259400e-10 3.209404e-11 5.153255e-11) (-4.676952e-07 7.251983e-11 -3.158776e-10))
165.692417    	((-1.417612e-08 -2.349871e-05 -2.929673e-05) (-8.370795e-10 -1.239426e-05 -5.940204e-06)) ((5.252697e-10 3.318914e-11 5.158739e-11) (-4.666834e-07 7.946584e-11 -3.033334e-10))
171.260251    	((-1.566462e-08 -2.344070e-05 -2.883935e-05) (-7.522764e-10 -1.236497e-05 -5.938928e-06)) ((5.247668e-10 3.427061e-11 5.164025e-11) (-4.657571e-07 8.582441e-11 -2.902323e-10))
176.82958     	((-1.778107e-08 -2.338349e-05 -2.839739e-05) (-6.857289e-10 -1.233742e-05 -5.937278e-06)) ((5.243766e-10 3.531426e-11 5.169110e-11) (-4.649107e-07 9.275387e-11 -2.760467e-10))
182.400331    	((-2.037440e-08 -2.333092e-05 -2.797425e-05) (-6.879175e-10 -1.231160e-05 -5.935291e-06)) ((5.240543e-10 3.629327e-11 5.174412e-11) (-4.641378e-07 1.020036e-10 -2.618622e-10))
187.972437    	((-2.375811e-08 -2.328403e-05 -2.756770e-05) (-7.897940e-10 -1.228760e-05 -5.932875e-06)) ((5.238613e-10 3.720705e-11 5.180142e-11) (-4.634380e-07 1.143300e-10 -2.482322e-10))
193.545841    	((-2.735709e-08 -2.324240e-05 -2.717972e-05) (-9.895349e-10 -1.226544e-05 -5.930054e-06)) ((5.237358e-10 3.807449e-11 5.186033e-11) (-4.628078e-07 1.287523e-10 -2.350908e-10))
199.120485    	((-3.183717e-08 -2.320571e-05 -2.681578e-05) (-1.317232e-09 -1.224511e-05 -5.926853e-06)) ((5.236699e-10 3.887595e-11 5.190973e-11) (-4.622441e-07 1.463817e-10 -2.221771e-10))
204.696314    	((-3.687560e-08 -2.316778e-05 -2.647168e-05) (-1.751321e-09 -1.222633e-05 -5.923652e-06)) ((5.234621e-10 3.963287e-11 5.193865e-11) (-4.617262e-07 1.669210e-10 -2.093211e-10))
210.273268    	((-4.107410e-08 -2.312933e-05 -2.614319e-05) (-2.216388e-09 -1.220878e-05 -5.920666e-06)) ((5.231846e-10 4.036551e-11 5.195488e-11) (-4.612381e-07 1.875801e-10 -1.978477e-10))
215.851284    	((-4.643100e-08 -2.309085e-05 -2.583229e-05) (-2.768629e-09 -1.219225e-05 -5.918009e-06)) ((5.228180e-10 4.104025e-11 5.196761e-11) (-4.607710e-07 2.116678e-10 -1.880624e-10))
221.4303      	((-5.179963e-08 -2.305364e-05 -2.553655e-05) (-3.420988e-09 -1.217663e-05 -5.915772e-06)) ((5.224133e-10 4.168324e-11 5.197779e-11) (-4.603207e-07 2.391948e-10 -1.800433e-10))
227.010257    	((-5.730417e-08 -2.301789e-05 -2.525560e-05) (-4.157804e-09 -1.216185e-05 -5.913881e-06)) ((5.220232e-10 4.228133e-11 5.198560e-11) (-4.598863e-07 2.691900e-10 -1.743690e-10))
232.5911      	((-6.254627e-08 -2.298471e-05 -2.498958e-05) (-4.955877e-09 -1.214786e-05 -5.912204e-06)) ((5.216719e-10 4.284254e-11 5.199125e-11) (-4.594695e-07 3.005724e-10 -1.715192e-10))
238.172778    	((-6.825578e-08 -2.295234e-05 -2.473111e-05) (-5.844614e-09 -1.213452e-05 -5.910707e-06)) ((5.213338e-10 4.338928e-11 5.199969e-11) (-4.590671e-07 3.340733e-10 -1.711750e-10))
243.755247    	((-7.348446e-08 -2.292337e-05 -2.448566e-05) (-6.794436e-09 -1.212182e-05 -5.909301e-06)) ((5.210489e-10 4.391516e-11 5.201150e-11) (-4.586831e-07 3.681413e-10 -1.729316e-10))
249.338469    	((-7.849838e-08 -2.289801e-05 -2.425155e-05) (-7.753978e-09 -1.210991e-05 -5.907897e-06)) ((5.208235e-10 4.442046e-11 5.202502e-11) (-4.583250e-07 4.014336e-10 -1.763441e-10))
254.922408    	((-8.368495e-08 -2.287406e-05 -2.403050e-05) (-8.731561e-09 -1.209871e-05 -5.906521e-06)) ((5.206190e-10 4.489174e-11 5.203822e-11) (-4.579915e-07 4.352164e-10 -1.807715e-10))
260.506959    	((-8.929518e-08 -2.285181e-05 -2.382031e-05) (-9.733508e-09 -1.208819e-05 -5.905255e-06)) ((5.204143e-10 4.532535e-11 5.205077e-11) (-4.576787e-07 4.708554e-10 -1.850577e-10))
266.092057    	((-9.527645e-08 -2.283059e-05 -2.362102e-05) (-1.077352e-08 -1.207826e-05 -5.904148e-06)) ((5.202101e-10 4.572705e-11 5.206193e-11) (-4.573822e-07 5.085632e-10 -1.892362e-10))
271.677672    	((-1.020181e-07 -2.280971e-05 -2.343125e-05) (-1.187804e-08 -1.206881e-05 -5.903240e-06)) ((5.199926e-10 4.609334e-11 5.207269e-11) (-4.570974e-07 5.493958e-10 -1.930260e-10))
277.263772    	((-1.094018e-07 -2.278945e-05 -2.324908e-05) (-1.305137e-08 -1.205979e-05 -5.902495e-06)) ((5.197934e-10 4.643308e-11 5.208428e-11) (-4.568232e-07 5.937652e-10 -1.961129e-10))
282.850327    	((-1.176961e-07 -2.276996e-05 -2.307452e-05) (-1.429773e-08 -1.205118e-05 -5.901813e-06)) ((5.196390e-10 4.674069e-11 5.209554e-11) (-4.565619e-07 6.418815e-10 -1.979456e-10))
288.437307    	((-1.272247e-07 -2.275162e-05 -2.290733e-05) (-1.563940e-08 -1.204298e-05 -5.901057e-06)) ((5.195496e-10 4.700629e-11 5.210560e-11) (-4.563178e-07 6.950237e-10 -1.976927e-10))
294.024685    	((-1.381480e-07 -2.273441e-05 -2.274702e-05) (-1.709509e-08 -1.203522e-05 -5.900111e-06)) ((5.195272e-10 4.722940e-11 5.211539e-11) (-4.560940e-07 7.542420e-10 -1.945655e-10))
299.61243     	((-1.509203e-07 -2.271786e-05 -2.259212e-05) (-1.868897e-08 -1.202789e-05 -5.898937e-06)) ((5.195600e-10 4.740675e-11 5.212487e-11) (-4.558901e-07 8.211133e-10 -1.873967e-10))
305.200514    	((-1.652789e-07 -2.270239e-05 -2.244378e-05) (-2.042782e-08 -1.202097e-05 -5.897517e-06)) ((5.196468e-10 4.753911e-11 5.213395e-11) (-4.557052e-07 8.961876e-10 -1.756399e-10))
310.788907    	((-1.813434e-07 -2.268749e-05 -2.230104e-05) (-2.232272e-08 -1.201446e-05 -5.895865e-06)) ((5.197722e-10 4.762720e-11 5.214115e-11) (-4.555370e-07 9.798517e-10 -1.589581e-10))
316.377578    	((-1.995914e-07 -2.267321e-05 -2.216359e-05) (-2.440203e-08 -1.200831e-05 -5.894006e-06)) ((5.199349e-10 4.766509e-11 5.214739e-11) (-4.553832e-07 1.073349e-09 -1.367820e-10))
321.966494    	((-2.201747e-07 -2.265944e-05 -2.203125e-05) (-2.669814e-08 -1.200250e-05 -5.891968e-06)) ((5.201186e-10 4.765785e-11 5.215344e-11) (-4.552421e-07 1.177718e-09 -1.089382e-10))
327.555622    	((-2.429955e-07 -2.264583e-05 -2.190344e-05) (-2.922820e-08 -1.199698e-05 -5.889793e-06)) ((5.203109e-10 4.761081e-11 5.215981e-11) (-4.551108e-07 1.293421e-09 -7.538640e-11))
333.144928    	((-2.683698e-07 -2.263287e-05 -2.178047e-05) (-3.202674e-08 -1.199175e-05 -5.887512e-06)) ((5.205141e-10 4.751588e-11 5.216749e-11) (-4.549881e-07 1.421606e-09 -3.634979e-11))
338.734376    	((-2.965216e-07 -2.262063e-05 -2.166200e-05) (-3.513705e-08 -1.198679e-05 -5.885171e-06)) ((5.207230e-10 4.736785e-11 5.217615e-11) (-4.548729e-07 1.563655e-09 7.457269e-12))
344.323928    	((-3.273347e-07 -2.260849e-05 -2.154799e-05) (-3.858185e-08 -1.198208e-05 -5.882805e-06)) ((5.209243e-10 4.717265e-11 5.218496e-11) (-4.547636e-07 1.720036e-09 5.565429e-11))
349.913546    	((-3.609318e-07 -2.259681e-05 -2.143809e-05) (-4.238657e-08 -1.197759e-05 -5.880455e-06)) ((5.211168e-10 4.692827e-11 5.219495e-11) (-4.546595e-07 1.891584e-09 1.078179e-10))
355.503192    	((-3.973073e-07 -2.258539e-05 -2.133298e-05) (-4.658053e-08 -1.197332e-05 -5.878166e-06)) ((5.212979e-10 4.663087e-11 5.220711e-11) (-4.545594e-07 2.079201e-09 1.631914e-10))
361.092826    	((-4.366241e-07 -2.257461e-05 -2.123122e-05) (-5.119026e-08 -1.196925e-05 -5.875975e-06)) ((5.214682e-10 4.628187e-11 5.221965e-11) (-4.544629e-07 2.283778e-09 2.211489e-10))
