# Forces      
# CofR        : (0.000000e+00 0.000000e+00 0.000000e+00)
# Time        forces(pressure viscous)	moments(pressure viscous)
0             	((0.000000e+00 0.000000e+00 0.000000e+00) (0.000000e+00 0.000000e+00 0.000000e+00)) ((0.000000e+00 0.000000e+00 0.000000e+00) (0.000000e+00 0.000000e+00 0.000000e+00))
0.012         	((-1.166617e-12 4.565634e-08 7.394992e-09) (-1.249674e-14 1.050236e-07 -7.605488e-15)) ((6.668728e-12 2.413800e-14 -6.108308e-14) (6.988854e-09 6.462605e-16 1.128862e-14))
0.0264        	((-2.664206e-11 6.136658e-08 1.566389e-08) (-6.002200e-14 9.620208e-08 -3.217402e-14)) ((-3.029438e-12 5.246274e-14 -2.697737e-14) (6.408763e-09 1.608073e-15 1.164644e-14))
0.04368       	((2.054747e-11 4.149522e-08 8.497996e-09) (-7.730098e-14 8.709802e-08 -6.682464e-14)) ((-2.250357e-12 2.761249e-14 -3.038321e-14) (5.811839e-09 4.865867e-16 2.176149e-14))
0.064416      	((-2.342955e-11 4.691351e-08 1.099320e-08) (-1.050814e-13 7.791234e-08 -1.384065e-13)) ((-4.443031e-12 3.655449e-14 -1.910420e-14) (5.211600e-09 -1.419490e-15 8.328779e-15))
0.0892992     	((1.159113e-11 3.463094e-08 7.331377e-09) (-1.068343e-13 6.890705e-08 -1.771425e-13)) ((-3.171622e-12 2.407885e-14 -1.269502e-14) (4.625134e-09 -3.158289e-15 -2.570411e-14))
0.119159      	((-8.536892e-12 3.551445e-08 7.956285e-09) (-6.731758e-14 6.036995e-08 -1.697577e-13)) ((-3.883563e-12 2.621324e-14 -6.653843e-15) (4.071663e-09 -3.094880e-15 -3.922003e-14))
0.154991      	((5.814824e-12 2.674431e-08 5.679549e-09) (-3.309747e-14 5.256641e-08 -2.045506e-13)) ((-2.714372e-12 1.894565e-14 -2.975671e-15) (3.562969e-09 -3.075236e-15 -4.418188e-14))
0.197989      	((-1.949614e-12 2.639650e-08 5.719728e-09) (-1.535442e-14 4.566024e-08 -2.885812e-13)) ((-3.060432e-12 1.912112e-14 -4.454422e-15) (3.112385e-09 -2.830569e-15 -4.666970e-14))
0.249587      	((1.907271e-12 2.050298e-08 4.434994e-09) (-5.437677e-15 3.977565e-08 -4.069604e-13)) ((-2.192368e-12 1.456148e-14 -3.542250e-15) (2.725532e-09 -1.173070e-15 -4.357460e-14))
0.311504      	((7.231868e-13 1.990207e-08 4.296073e-09) (1.157082e-14 3.488383e-08 -5.395379e-13)) ((-2.413923e-12 1.448216e-14 -6.412763e-15) (2.402598e-09 -1.474570e-16 -3.441007e-14))
0.385805      	((7.667842e-15 1.603879e-08 3.567404e-09) (2.196703e-14 3.084287e-08 -6.507629e-13)) ((-1.798506e-12 1.172279e-14 -3.973673e-15) (2.135548e-09 7.804575e-16 -1.943861e-14))
0.474966      	((4.585628e-13 1.554746e-08 3.366513e-09) (1.616136e-14 2.750052e-08 -7.266208e-13)) ((-1.953271e-12 1.148025e-14 -5.578043e-15) (1.915077e-09 3.750549e-16 -6.639896e-15))
0.581959      	((-7.038725e-13 1.295125e-08 2.899301e-09) (-1.680787e-14 2.468744e-08 -8.294424e-13)) ((-1.505249e-12 9.390527e-15 -3.761749e-15) (1.729376e-09 6.450424e-16 -7.474667e-15))
0.710351      	((1.808708e-13 1.255084e-08 2.685662e-09) (-4.458871e-14 2.227117e-08 -9.543740e-13)) ((-1.621858e-12 9.204560e-15 -5.825707e-15) (1.570443e-09 -7.388516e-16 -7.300870e-15))
0.864421      	((-1.447466e-12 1.068548e-08 2.376140e-09) (-5.861080e-14 2.014668e-08 -1.038128e-12)) ((-1.304249e-12 7.779498e-15 -4.109490e-15) (1.430802e-09 -1.321694e-15 -1.497824e-14))
1.049306      	((-3.113791e-14 1.028300e-08 2.192612e-09) (-7.116696e-14 1.825549e-08 -1.034140e-12)) ((-1.396045e-12 7.559191e-15 -3.454213e-15) (1.307068e-09 -3.588893e-15 -2.438184e-14))
1.271167      	((-1.009998e-12 8.838218e-09 1.961420e-09) (-7.979445e-14 1.654898e-08 -1.079055e-12)) ((-1.176649e-12 6.623874e-15 -1.720258e-17) (1.195534e-09 -5.660058e-15 -2.732262e-14))
1.5374        	((-8.704771e-13 8.406000e-09 1.797327e-09) (-8.835771e-14 1.500852e-08 -1.025975e-12)) ((-1.227457e-12 6.358495e-15 4.101230e-16) (1.094986e-09 -1.032333e-14 -2.233930e-14))
1.85688       	((-7.775357e-13 7.280645e-09 1.623763e-09) (-1.242004e-13 1.361608e-08 -1.031778e-12)) ((-1.066590e-12 5.789608e-15 2.208520e-15) (1.004286e-09 -1.797593e-14 -2.378189e-14))
2.240256      	((-7.880209e-13 6.829946e-09 1.502379e-09) (-1.744564e-13 1.236513e-08 -7.962906e-13)) ((-1.082169e-12 5.483736e-15 1.785440e-15) (9.227270e-10 -2.661846e-14 -3.539015e-14))
2.700307      	((-2.020422e-13 5.987132e-09 1.383193e-09) (-2.423702e-13 1.125842e-08 -4.989649e-13)) ((-9.684080e-13 5.110672e-15 2.765319e-15) (8.506317e-10 -3.526280e-14 -4.650294e-14))
3.252369      	((-1.280596e-12 5.574675e-09 1.297166e-09) (-2.796936e-13 1.028073e-08 -1.025854e-13)) ((-9.710608e-13 4.906497e-15 2.082059e-15) (7.868810e-10 -4.461268e-14 -4.840710e-14))
3.914842      	((2.005908e-13 4.969661e-09 1.207858e-09) (-1.697240e-13 9.420993e-09 3.070384e-13)) ((-9.050937e-13 4.465906e-15 2.175098e-15) (7.309845e-10 -5.663675e-14 -3.899012e-14))
4.709811      	((-3.263897e-13 4.598854e-09 1.135763e-09) (-6.899647e-14 8.664222e-09 6.515960e-13)) ((-8.973505e-13 4.059023e-15 1.922723e-15) (6.818794e-10 -6.520330e-14 -2.489392e-14))
5.663773      	((7.990461e-14 4.159060e-09 1.053254e-09) (-8.759913e-14 7.992949e-09 9.856824e-13)) ((-8.542106e-13 3.615417e-15 2.041537e-15) (6.384447e-10 -6.507619e-14 -1.302145e-14))
6.808528      	((-9.931594e-13 3.835838e-09 9.769922e-10) (-1.370171e-13 7.391115e-09 1.223999e-12)) ((-8.360791e-13 3.600578e-15 2.067901e-15) (5.996163e-10 -6.118545e-14 -1.641583e-15))
8.182233      	((-1.021042e-12 3.495300e-09 8.945390e-10) (-2.327932e-13 6.845149e-09 1.298296e-12)) ((-8.084031e-13 3.190524e-15 2.383616e-15) (5.645733e-10 -5.701136e-14 3.502398e-15))
9.83068       	((-8.964107e-13 3.205081e-09 8.205125e-10) (-3.110257e-13 6.345460e-09 1.102481e-12)) ((-7.886458e-13 3.019529e-15 2.356855e-15) (5.326772e-10 -5.247622e-14 4.273292e-15))
11.808816     	((-3.437869e-13 2.931192e-09 7.512445e-10) (-3.591572e-13 5.887023e-09 6.547722e-13)) ((-7.683396e-13 2.610080e-15 2.442287e-15) (5.036085e-10 -4.647014e-14 6.437523e-15))
14.182579     	((-5.576143e-13 2.691336e-09 6.975281e-10) (-3.899674e-13 5.466004e-09 1.086497e-13)) ((-7.486759e-13 2.419490e-15 2.429302e-15) (4.770550e-10 -4.068810e-14 2.217033e-15))
17.031095     	((-7.157816e-13 2.467402e-09 6.526879e-10) (-4.027598e-13 5.079078e-09 -2.839352e-13)) ((-7.331331e-13 2.217746e-15 2.497590e-15) (4.528677e-10 -3.314300e-14 -5.202261e-16))
20.449314     	((-9.122028e-13 2.267651e-09 6.222048e-10) (-4.060082e-13 4.724317e-09 -5.839864e-13)) ((-7.177320e-13 2.133974e-15 2.561154e-15) (4.308605e-10 -2.418296e-14 2.163833e-15))
24.551176     	((-6.453201e-13 2.079977e-09 5.966909e-10) (-4.132053e-13 4.399591e-09 -7.503681e-13)) ((-7.067017e-13 2.021784e-15 2.620720e-15) (4.108663e-10 -1.658285e-14 3.810927e-15))
29.473411     	((-5.359873e-13 1.911177e-09 5.702704e-10) (-4.070760e-13 4.103018e-09 -8.919756e-13)) ((-6.959416e-13 1.963847e-15 2.675498e-15) (3.927191e-10 -1.270299e-14 1.649561e-15))
35.380094     	((-4.952661e-13 1.753970e-09 5.448163e-10) (-4.325431e-13 3.832206e-09 -9.441393e-13)) ((-6.875541e-13 1.882277e-15 2.728419e-15) (3.762345e-10 -1.024835e-14 5.343287e-15))
42.468112     	((-4.018835e-13 1.613004e-09 5.189070e-10) (-4.415948e-13 3.584636e-09 -9.314571e-13)) ((-6.796406e-13 1.841105e-15 2.750365e-15) (3.612204e-10 -9.088937e-15 1.089564e-14))
50.973735     	((-3.580292e-13 1.482274e-09 4.933650e-10) (-4.365433e-13 3.358142e-09 -9.360482e-13)) ((-6.729564e-13 1.764600e-15 2.761242e-15) (3.475444e-10 -1.048051e-14 1.556352e-14))
61.180482     	((-4.105457e-13 1.363734e-09 4.707463e-10) (-4.124941e-13 3.151211e-09 -8.953305e-13)) ((-6.667919e-13 1.658776e-15 2.758769e-15) (3.351247e-10 -1.130936e-14 1.937306e-14))
73.428578     	((-2.332915e-13 1.255926e-09 4.495024e-10) (-3.689620e-13 2.962617e-09 -8.644192e-13)) ((-6.616781e-13 1.565870e-15 2.723758e-15) (3.238858e-10 -1.340168e-14 2.332879e-14))
88.126294     	((-2.399233e-13 1.157863e-09 4.286139e-10) (-3.294054e-13 2.791045e-09 -8.680341e-13)) ((-6.572652e-13 1.446419e-15 2.728107e-15) (3.137454e-10 -1.596029e-14 2.546061e-14))
105.763553    	((2.302250e-15 1.072226e-09 4.102966e-10) (-2.501339e-13 2.635368e-09 -8.464604e-13)) ((-6.537159e-13 1.387598e-15 2.724574e-15) (3.046252e-10 -1.830820e-14 2.889002e-14))
126.928263    	((1.060254e-13 9.943505e-10 3.949561e-10) (-1.946855e-13 2.494546e-09 -8.165899e-13)) ((-6.506822e-13 1.327053e-15 2.702799e-15) (2.964504e-10 -2.048849e-14 3.188180e-14))
152.325916    	((2.276323e-13 9.254910e-10 3.821920e-10) (-1.561421e-13 2.367295e-09 -7.986095e-13)) ((-6.481539e-13 1.275182e-15 2.699341e-15) (2.891256e-10 -2.242038e-14 3.343182e-14))
182.803099    	((2.654952e-13 8.643093e-10 3.692535e-10) (-1.310295e-13 2.252447e-09 -8.102051e-13)) ((-6.459989e-13 1.215961e-15 2.675645e-15) (2.825667e-10 -2.395642e-14 3.441130e-14))
219.375719    	((2.328243e-13 8.103327e-10 3.579808e-10) (-8.851283e-14 2.148870e-09 -8.629661e-13)) ((-6.442479e-13 1.175121e-15 2.648537e-15) (2.767004e-10 -2.570114e-14 3.518517e-14))
263.262863    	((2.657247e-13 7.621665e-10 3.476355e-10) (-4.417119e-14 2.055562e-09 -1.013804e-12)) ((-6.428669e-13 1.133943e-15 2.613285e-15) (2.714630e-10 -2.594857e-14 3.602021e-14))
315.927436    	((2.374488e-13 7.200384e-10 3.376085e-10) (-2.265042e-14 1.971660e-09 -1.185905e-12)) ((-6.417439e-13 1.093451e-15 2.589244e-15) (2.667978e-10 -2.444978e-14 3.631069e-14))
379.124923    	((2.642068e-13 6.831612e-10 3.275474e-10) (-9.976132e-15 1.896480e-09 -1.395298e-12)) ((-6.408359e-13 1.049321e-15 2.597229e-15) (2.626574e-10 -2.275078e-14 3.588184e-14))
454.961908    	((2.618575e-13 6.516596e-10 3.189867e-10) (5.943228e-16 1.829502e-09 -1.637335e-12)) ((-6.401545e-13 1.020344e-15 2.601010e-15) (2.590051e-10 -2.239570e-14 3.543689e-14))
545.966289    	((2.662254e-13 6.249377e-10 3.128744e-10) (8.120564e-15 1.770277e-09 -1.907996e-12)) ((-6.396083e-13 1.001090e-15 2.602243e-15) (2.558067e-10 -2.272892e-14 3.537048e-14))
655.171547    	((2.381299e-13 6.027041e-10 3.076652e-10) (2.010586e-15 1.718402e-09 -2.169577e-12)) ((-6.391737e-13 9.834437e-16 2.602659e-15) (2.530303e-10 -2.211279e-14 3.545350e-14))
786.217856    	((2.417690e-13 5.842603e-10 3.031716e-10) (-8.793646e-15 1.673501e-09 -2.403305e-12)) ((-6.387914e-13 9.746597e-16 2.601841e-15) (2.506447e-10 -2.115929e-14 3.534888e-14))
943.473427    	((2.289207e-13 5.692360e-10 2.995081e-10) (-1.809333e-14 1.635155e-09 -2.637464e-12)) ((-6.384513e-13 9.574666e-16 2.603171e-15) (2.486169e-10 -2.044977e-14 3.490401e-14))
1132.180113   	((2.143019e-13 5.570416e-10 2.966298e-10) (-2.615242e-14 1.602907e-09 -2.891323e-12)) ((-6.381659e-13 9.456002e-16 2.604630e-15) (2.469157e-10 -1.989658e-14 3.417956e-14))
1358.628135   	((1.988712e-13 5.472310e-10 2.943244e-10) (-3.082530e-14 1.576211e-09 -3.149273e-12)) ((-6.379395e-13 9.360116e-16 2.605820e-15) (2.455079e-10 -1.965397e-14 3.338961e-14))
1630.365763   	((1.691881e-13 5.394391e-10 2.924927e-10) (-3.519559e-14 1.554468e-09 -3.399181e-12)) ((-6.377652e-13 9.270913e-16 2.609450e-15) (2.443588e-10 -1.936757e-14 3.263536e-14))
1956.450915   	((1.612753e-13 5.333046e-10 2.909984e-10) (-3.913211e-14 1.537046e-09 -3.632764e-12)) ((-6.376303e-13 9.196518e-16 2.613773e-15) (2.434337e-10 -1.910772e-14 3.187137e-14))
2347.753098   	((1.628441e-13 5.285374e-10 2.897329e-10) (-3.992053e-14 1.523305e-09 -3.842237e-12)) ((-6.375226e-13 9.135599e-16 2.616290e-15) (2.426986e-10 -1.889271e-14 3.117426e-14))
2817.315718   	((1.626726e-13 5.248510e-10 2.888355e-10) (-4.045591e-14 1.512626e-09 -4.022211e-12)) ((-6.374376e-13 9.081911e-16 2.618783e-15) (2.421212e-10 -1.866268e-14 3.056766e-14))
3380.790861   	((1.627409e-13 5.220267e-10 2.881409e-10) (-4.125298e-14 1.504438e-09 -4.171814e-12)) ((-6.373698e-13 9.046745e-16 2.621057e-15) (2.416723e-10 -1.846643e-14 3.009327e-14))
4056.961033   	((1.627109e-13 5.198611e-10 2.876054e-10) (-4.150199e-14 1.498237e-09 -4.292730e-12)) ((-6.373154e-13 9.027064e-16 2.623259e-15) (2.413265e-10 -1.835318e-14 2.971688e-14))
4868.36524    	((1.623245e-13 5.182126e-10 2.871870e-10) (-4.106045e-14 1.493591e-09 -4.390252e-12)) ((-6.372705e-13 9.015237e-16 2.625391e-15) (2.410620e-10 -1.830732e-14 2.941340e-14))
5842.050288   	((1.604642e-13 5.169611e-10 2.868885e-10) (-3.994158e-14 1.490144e-09 -4.467818e-12)) ((-6.372340e-13 9.008057e-16 2.627320e-15) (2.408610e-10 -1.831289e-14 2.916861e-14))
7010.472346   	((1.595185e-13 5.160111e-10 2.866898e-10) (-3.835022e-14 1.487610e-09 -4.528293e-12)) ((-6.372039e-13 9.003755e-16 2.628842e-15) (2.407089e-10 -1.834936e-14 2.898092e-14))
8412.578815   	((1.589893e-13 5.152886e-10 2.865329e-10) (-3.696389e-14 1.485762e-09 -4.574288e-12)) ((-6.371792e-13 8.998246e-16 2.630029e-15) (2.405944e-10 -1.837856e-14 2.883549e-14))
10095.106578  	((1.579873e-13 5.147420e-10 2.863986e-10) (-3.594028e-14 1.484424e-09 -4.609016e-12)) ((-6.371589e-13 8.993730e-16 2.631067e-15) (2.405084e-10 -1.839334e-14 2.872768e-14))
12114.139893  	((1.588005e-13 5.143274e-10 2.863196e-10) (-3.512183e-14 1.483461e-09 -4.635064e-12)) ((-6.371420e-13 8.990649e-16 2.631989e-15) (2.404438e-10 -1.840005e-14 2.864780e-14))
14536.979872  	((1.596532e-13 5.140129e-10 2.862649e-10) (-3.443373e-14 1.482773e-09 -4.654424e-12)) ((-6.371281e-13 8.988245e-16 2.632698e-15) (2.403955e-10 -1.840231e-14 2.859231e-14))
17444.387847  	((1.601318e-13 5.137731e-10 2.862274e-10) (-3.385786e-14 1.482284e-09 -4.668690e-12)) ((-6.371165e-13 8.986130e-16 2.633250e-15) (2.403593e-10 -1.840338e-14 2.855350e-14))
20900.017517  	((1.602167e-13 5.135907e-10 2.862119e-10) (-3.340606e-14 1.481938e-09 -4.679109e-12)) ((-6.371074e-13 8.984657e-16 2.633682e-15) (2.403322e-10 -1.840354e-14 2.852598e-14))
24903.867557  	((1.605786e-13 5.134509e-10 2.861945e-10) (-3.306373e-14 1.481695e-09 -4.686612e-12)) ((-6.371007e-13 8.982856e-16 2.634043e-15) (2.403119e-10 -1.840309e-14 2.850816e-14))
29455.936999  	((1.603734e-13 5.133437e-10 2.861820e-10) (-3.277156e-14 1.481525e-09 -4.691942e-12)) ((-6.370957e-13 8.981362e-16 2.634309e-15) (2.402967e-10 -1.840312e-14 2.849564e-14))
34556.225148  	((1.595514e-13 5.132605e-10 2.861845e-10) (-3.254576e-14 1.481407e-09 -4.695653e-12)) ((-6.370920e-13 8.980485e-16 2.634518e-15) (2.402853e-10 -1.840326e-14 2.848711e-14))
40038.407178  	((1.573079e-13 5.131970e-10 2.861810e-10) (-3.240197e-14 1.481326e-09 -4.698269e-12)) ((-6.370899e-13 8.979884e-16 2.634683e-15) (2.402767e-10 -1.840389e-14 2.848286e-14))
45520.585726  	((1.554729e-13 5.131482e-10 2.861740e-10) (-3.230703e-14 1.481270e-09 -4.700024e-12)) ((-6.370899e-13 8.979202e-16 2.634838e-15) (2.402703e-10 -1.840313e-14 2.847929e-14))
51002.762245  	((1.543780e-13 5.131107e-10 2.861719e-10) (-3.224544e-14 1.481232e-09 -4.701193e-12)) ((-6.370902e-13 8.978830e-16 2.634958e-15) (2.402655e-10 -1.840219e-14 2.847542e-14))
56484.937677  	((1.531200e-13 5.130816e-10 2.861758e-10) (-3.220862e-14 1.481207e-09 -4.701986e-12)) ((-6.370905e-13 8.978917e-16 2.635032e-15) (2.402619e-10 -1.840149e-14 2.847155e-14))
61967.112487  	((1.518928e-13 5.130582e-10 2.861745e-10) (-3.218318e-14 1.481190e-09 -4.702504e-12)) ((-6.370908e-13 8.978881e-16 2.635104e-15) (2.402591e-10 -1.840105e-14 2.846863e-14))
67449.286932  	((1.525784e-13 5.130392e-10 2.861762e-10) (-3.208458e-14 1.481179e-09 -4.702778e-12)) ((-6.370910e-13 8.978846e-16 2.635232e-15) (2.402570e-10 -1.840321e-14 2.846477e-14))
72931.461164  	((1.531254e-13 5.130241e-10 2.861778e-10) (-3.203732e-14 1.481172e-09 -4.702966e-12)) ((-6.370913e-13 8.978922e-16 2.635264e-15) (2.402554e-10 -1.840268e-14 2.846493e-14))
78413.635275  	((1.533979e-13 5.130119e-10 2.861794e-10) (-3.200390e-14 1.481167e-09 -4.703072e-12)) ((-6.370915e-13 8.978939e-16 2.635301e-15) (2.402542e-10 -1.840208e-14 2.846342e-14))
83895.809323  	((1.535281e-13 5.130022e-10 2.861811e-10) (-3.197896e-14 1.481165e-09 -4.703139e-12)) ((-6.370917e-13 8.978932e-16 2.635337e-15) (2.402532e-10 -1.840175e-14 2.846186e-14))
89377.983344  	((1.511616e-13 5.129946e-10 2.861835e-10) (-3.190942e-14 1.481163e-09 -4.703191e-12)) ((-6.370918e-13 8.978966e-16 2.635349e-15) (2.402525e-10 -1.840340e-14 2.846006e-14))
94860.157359  	((1.521894e-13 5.129880e-10 2.861836e-10) (-3.192580e-14 1.481163e-09 -4.703210e-12)) ((-6.370919e-13 8.978979e-16 2.635391e-15) (2.402520e-10 -1.840293e-14 2.845883e-14))
100342.331383 	((1.515304e-13 5.129821e-10 2.861858e-10) (-3.193095e-14 1.481162e-09 -4.703218e-12)) ((-6.370921e-13 8.978517e-16 2.635444e-15) (2.402515e-10 -1.840220e-14 2.845816e-14))
105824.505421 	((1.525915e-13 5.129778e-10 2.861882e-10) (-3.192058e-14 1.481162e-09 -4.703191e-12)) ((-6.370922e-13 8.978660e-16 2.635445e-15) (2.402512e-10 -1.840212e-14 2.845701e-14))
111306.679476 	((1.518757e-13 5.129738e-10 2.861898e-10) (-3.191356e-14 1.481162e-09 -4.703165e-12)) ((-6.370923e-13 8.978317e-16 2.635478e-15) (2.402509e-10 -1.840185e-14 2.845634e-14))
116788.85355  	((1.528464e-13 5.129710e-10 2.861915e-10) (-3.190037e-14 1.481163e-09 -4.703128e-12)) ((-6.370924e-13 8.978511e-16 2.635473e-15) (2.402507e-10 -1.840210e-14 2.845546e-14))
122271.02764  	((1.520216e-13 5.129683e-10 2.861931e-10) (-3.189578e-14 1.481163e-09 -4.703112e-12)) ((-6.370924e-13 8.978199e-16 2.635510e-15) (2.402506e-10 -1.840190e-14 2.845530e-14))
127753.201747 	((1.530095e-13 5.129665e-10 2.861945e-10) (-3.188029e-14 1.481163e-09 -4.703075e-12)) ((-6.370925e-13 8.978401e-16 2.635501e-15) (2.402504e-10 -1.840268e-14 2.845458e-14))
133235.375867 	((1.521610e-13 5.129647e-10 2.861958e-10) (-3.188007e-14 1.481163e-09 -4.703059e-12)) ((-6.370925e-13 8.978106e-16 2.635533e-15) (2.402504e-10 -1.840242e-14 2.845476e-14))
138717.55     	((1.528836e-13 5.129636e-10 2.861969e-10) (-3.187332e-14 1.481164e-09 -4.703025e-12)) ((-6.370926e-13 8.978306e-16 2.635530e-15) (2.402503e-10 -1.840377e-14 2.845635e-14))
144199.724142 	((1.519993e-13 5.129623e-10 2.861980e-10) (-3.187672e-14 1.481164e-09 -4.703007e-12)) ((-6.370926e-13 8.978076e-16 2.635549e-15) (2.402502e-10 -1.840351e-14 2.845618e-14))
149681.898293 	((1.528484e-13 5.129615e-10 2.861989e-10) (-3.186266e-14 1.481164e-09 -4.702981e-12)) ((-6.370926e-13 8.978331e-16 2.635534e-15) (2.402502e-10 -1.840381e-14 2.845300e-14))
155164.07245  	((1.518565e-13 5.129606e-10 2.861999e-10) (-3.186661e-14 1.481164e-09 -4.702970e-12)) ((-6.370926e-13 8.978072e-16 2.635565e-15) (2.402501e-10 -1.840334e-14 2.845274e-14))
160646.246613 	((1.526967e-13 5.129600e-10 2.862007e-10) (-3.185939e-14 1.481164e-09 -4.702944e-12)) ((-6.370927e-13 8.978322e-16 2.635552e-15) (2.402501e-10 -1.840363e-14 2.845169e-14))
166128.420781 	((1.517597e-13 5.129593e-10 2.862015e-10) (-3.185607e-14 1.481164e-09 -4.702944e-12)) ((-6.370927e-13 8.978048e-16 2.635572e-15) (2.402501e-10 -1.840316e-14 2.845028e-14))
171610.594954 	((1.526105e-13 5.129589e-10 2.862022e-10) (-3.185697e-14 1.481164e-09 -4.702914e-12)) ((-6.370927e-13 8.978313e-16 2.635560e-15) (2.402501e-10 -1.840353e-14 2.845059e-14))
177092.76913  	((1.516771e-13 5.129584e-10 2.862029e-10) (-3.185984e-14 1.481164e-09 -4.702914e-12)) ((-6.370927e-13 8.978019e-16 2.635578e-15) (2.402501e-10 -1.840311e-14 2.845104e-14))
182574.943309 	((1.525449e-13 5.129581e-10 2.862034e-10) (-3.185104e-14 1.481164e-09 -4.702898e-12)) ((-6.370928e-13 8.978271e-16 2.635562e-15) (2.402500e-10 -1.840332e-14 2.844981e-14))
188057.117489 	((1.516010e-13 5.129577e-10 2.862040e-10) (-3.185802e-14 1.481164e-09 -4.702892e-12)) ((-6.370928e-13 8.978020e-16 2.635587e-15) (2.402500e-10 -1.840299e-14 2.845029e-14))
193539.291672 	((1.524878e-13 5.129575e-10 2.862044e-10) (-3.185166e-14 1.481165e-09 -4.702875e-12)) ((-6.370928e-13 8.978269e-16 2.635570e-15) (2.402500e-10 -1.840329e-14 2.844963e-14))
199021.465856 	((1.515555e-13 5.129572e-10 2.862050e-10) (-3.185832e-14 1.481165e-09 -4.702871e-12)) ((-6.370928e-13 8.978015e-16 2.635593e-15) (2.402500e-10 -1.840300e-14 2.845013e-14))
204503.640041 	((1.524536e-13 5.129571e-10 2.862053e-10) (-3.185217e-14 1.481165e-09 -4.702854e-12)) ((-6.370928e-13 8.978266e-16 2.635576e-15) (2.402500e-10 -1.840333e-14 2.844964e-14))
209985.814227 	((1.515266e-13 5.129569e-10 2.862058e-10) (-3.185858e-14 1.481165e-09 -4.702852e-12)) ((-6.370928e-13 8.978011e-16 2.635598e-15) (2.402500e-10 -1.840304e-14 2.845009e-14))
215467.988414 	((1.524290e-13 5.129568e-10 2.862061e-10) (-3.185248e-14 1.481165e-09 -4.702836e-12)) ((-6.370928e-13 8.978262e-16 2.635581e-15) (2.402500e-10 -1.840337e-14 2.844963e-14))
220950.162601 	((1.515049e-13 5.129566e-10 2.862065e-10) (-3.185864e-14 1.481165e-09 -4.702835e-12)) ((-6.370928e-13 8.978008e-16 2.635603e-15) (2.402500e-10 -1.840310e-14 2.845007e-14))
226432.336789 	((1.524111e-13 5.129566e-10 2.862067e-10) (-3.185256e-14 1.481165e-09 -4.702821e-12)) ((-6.370928e-13 8.978258e-16 2.635585e-15) (2.402500e-10 -1.840342e-14 2.844965e-14))
231914.510977 	((1.514893e-13 5.129565e-10 2.862071e-10) (-3.185866e-14 1.481165e-09 -4.702821e-12)) ((-6.370928e-13 8.978005e-16 2.635606e-15) (2.402500e-10 -1.840315e-14 2.845006e-14))
237396.685166 	((1.523944e-13 5.129565e-10 2.862073e-10) (-3.185284e-14 1.481165e-09 -4.702807e-12)) ((-6.370928e-13 8.978253e-16 2.635589e-15) (2.402500e-10 -1.840346e-14 2.844963e-14))
