# Forces      
# CofR        : (0.000000e+00 0.000000e+00 0.000000e+00)
# Time        forces(pressure viscous)	moments(pressure viscous)
0             	((0.000000e+00 0.000000e+00 0.000000e+00) (-4.870951e-14 -1.589547e-04 1.033520e-14)) ((0.000000e+00 0.000000e+00 0.000000e+00) (-3.571546e-06 -3.968714e-16 7.733799e-11))
0.012         	((3.084364e-08 -4.623720e-02 1.039480e-02) (2.451531e-10 -1.822622e-04 -1.980374e-07)) ((5.450262e-07 3.556578e-08 8.696358e-09) (-5.264950e-06 1.100980e-12 1.545337e-10))
0.0264        	((-8.485466e-07 3.508708e-03 -7.648110e-04) (-1.730720e-10 -1.856260e-04 -3.106133e-07)) ((-4.133525e-08 -2.333437e-09 -5.298437e-10) (-5.887596e-06 3.556750e-11 1.956039e-10))
0.04368       	((4.757679e-07 9.509577e-03 -8.149483e-04) (1.370030e-10 -1.646548e-04 -2.945375e-07)) ((-1.241062e-07 -2.655988e-09 -2.413637e-09) (-5.243630e-06 5.326440e-11 1.573316e-10))
0.064416      	((3.684868e-08 8.868148e-05 -4.328388e-04) (-4.192857e-10 -1.457163e-04 -1.649450e-07)) ((4.713059e-10 -1.268483e-09 1.894394e-10) (-4.712733e-06 3.945427e-11 1.755557e-10))
0.0892992     	((8.285870e-08 -9.751917e-05 -2.768078e-04) (-1.726867e-09 -1.344479e-04 -1.558796e-07)) ((4.496752e-09 -7.134671e-10 1.394711e-10) (-4.456544e-06 1.687069e-11 1.211482e-10))
0.119159      	((-7.884319e-08 1.536999e-04 -1.893511e-04) (-9.919437e-10 -1.241249e-04 -2.711760e-07)) ((-2.708165e-09 -4.802241e-10 -8.717630e-11) (-4.173822e-06 5.821891e-12 1.743094e-11))
0.154991      	((-1.640785e-07 7.688396e-05 -1.352275e-04) (1.099813e-10 -1.132901e-04 -3.552751e-07)) ((-1.609391e-09 -2.782574e-10 -1.967281e-11) (-3.862096e-06 2.842604e-11 -4.283249e-11))
0.197989      	((-7.514261e-08 1.782614e-05 -9.883699e-05) (1.958721e-10 -1.025091e-04 -4.393809e-07)) ((-6.510601e-10 -1.523479e-10 9.774893e-12) (-3.547408e-06 5.834264e-11 -5.205657e-11))
0.249587      	((-2.251666e-08 -2.962467e-06 -7.674578e-05) (-9.539334e-10 -9.212062e-05 -5.402821e-07)) ((-3.082049e-10 -7.327338e-11 -2.192396e-12) (-3.236882e-06 6.600201e-11 -4.814109e-11))
0.311504      	((-2.202901e-08 -1.276382e-05 -6.294081e-05) (-2.613604e-09 -8.241949e-05 -6.570732e-07)) ((-1.752978e-10 -3.175107e-11 -1.173357e-12) (-2.936875e-06 5.293279e-11 -9.226853e-11))
0.385805      	((-1.662759e-08 -1.833709e-05 -5.425053e-05) (-3.075273e-09 -7.364211e-05 -7.836146e-07)) ((-1.102955e-10 -8.235158e-12 4.604278e-13) (-2.654974e-06 3.976985e-11 -1.371742e-10))
0.474966      	((-1.201101e-08 -2.122322e-05 -4.856942e-05) (-2.057387e-09 -6.590690e-05 -9.070718e-07)) ((-6.403660e-11 8.307381e-12 4.602872e-13) (-2.397251e-06 3.309398e-11 -1.427376e-10))
0.581959      	((-3.735384e-09 -2.241803e-05 -4.504760e-05) (-9.720315e-10 -5.910045e-05 -1.029007e-06)) ((-2.738757e-11 1.993968e-11 -2.071627e-13) (-2.163260e-06 3.791111e-11 -1.118137e-10))
0.710351      	((-3.771538e-09 -2.239592e-05 -4.281660e-05) (-3.939799e-10 -5.307024e-05 -1.135493e-06)) ((6.991420e-13 2.733784e-11 1.076092e-12) (-1.950968e-06 4.229237e-11 -9.144112e-11))
0.864421      	((-1.908179e-09 -2.161716e-05 -4.148970e-05) (-4.597195e-11 -4.771957e-05 -1.226009e-06)) ((1.839260e-11 3.049682e-11 2.605944e-12) (-1.759177e-06 4.369257e-11 -9.090784e-11))
1.049306      	((-2.061270e-09 -2.043439e-05 -4.065144e-05) (-6.464151e-11 -4.296667e-05 -1.314629e-06)) ((2.852927e-11 3.183278e-11 2.520044e-12) (-1.586355e-06 4.413186e-11 -9.425894e-11))
1.271167      	((-2.970183e-09 -1.904049e-05 -4.014585e-05) (-8.274582e-11 -3.874942e-05 -1.413585e-06)) ((3.255408e-11 3.215061e-11 1.902396e-12) (-1.431477e-06 4.119452e-11 -9.264861e-11))
1.5374        	((-2.237836e-09 -1.758648e-05 -3.986059e-05) (5.011273e-10 -3.500796e-05 -1.527211e-06)) ((3.277521e-11 3.200835e-11 1.459348e-12) (-1.293429e-06 3.221794e-11 -8.404791e-11))
1.85688       	((-8.586304e-10 -1.619252e-05 -3.966639e-05) (1.039709e-09 -3.169016e-05 -1.654272e-06)) ((3.355939e-11 3.120408e-11 1.612744e-12) (-1.170830e-06 2.328123e-11 -7.514046e-11))
2.240256      	((-4.289909e-10 -1.492908e-05 -3.952210e-05) (1.175634e-09 -2.875217e-05 -1.792626e-06)) ((3.643868e-11 3.030772e-11 1.944559e-12) (-1.062219e-06 1.623916e-11 -7.295749e-11))
2.700307      	((-9.518456e-10 -1.380472e-05 -3.938086e-05) (1.043402e-09 -2.615038e-05 -1.940595e-06)) ((4.062906e-11 2.896158e-11 2.300801e-12) (-9.660084e-07 1.360472e-11 -7.426780e-11))
3.252369      	((-2.092322e-09 -1.281821e-05 -3.923527e-05) (7.925996e-10 -2.384133e-05 -2.097642e-06)) ((4.639620e-11 2.766011e-11 2.473920e-12) (-8.806029e-07 1.672275e-11 -7.329706e-11))
3.914842      	((-2.746799e-09 -1.198192e-05 -3.907075e-05) (6.518052e-10 -2.179079e-05 -2.262796e-06)) ((5.399491e-11 2.623878e-11 2.691009e-12) (-8.047495e-07 1.856974e-11 -7.683349e-11))
4.709811      	((-3.210719e-09 -1.130944e-05 -3.887405e-05) (5.183351e-10 -1.997711e-05 -2.434563e-06)) ((6.325451e-11 2.479116e-11 3.143325e-12) (-7.376452e-07 2.078640e-11 -8.243355e-11))
5.663773      	((-2.253636e-09 -1.079345e-05 -3.863714e-05) (3.159916e-10 -1.838310e-05 -2.611330e-06)) ((7.434437e-11 2.347095e-11 3.869238e-12) (-6.786427e-07 2.295693e-11 -8.118850e-11))
6.808528      	((-4.787683e-09 -1.044547e-05 -3.834038e-05) (-3.100134e-11 -1.698864e-05 -2.791268e-06)) ((8.762419e-11 2.222912e-11 4.666929e-12) (-6.269940e-07 2.937300e-11 -7.033811e-11))
8.182233      	((-4.866265e-09 -1.027603e-05 -3.799903e-05) (-2.700559e-10 -1.577224e-05 -2.972399e-06)) ((1.031589e-10 2.091289e-11 5.426693e-12) (-5.819039e-07 3.756830e-11 -5.722207e-11))
9.83068       	((-5.472951e-09 -1.028031e-05 -3.760126e-05) (-4.127683e-10 -1.471447e-05 -3.152337e-06)) ((1.205332e-10 1.925057e-11 6.436857e-12) (-5.426735e-07 4.593235e-11 -5.672750e-11))
11.808816     	((-4.919031e-09 -1.045625e-05 -3.714215e-05) (-5.112823e-10 -1.379999e-05 -3.327617e-06)) ((1.402390e-10 1.761402e-11 7.813649e-12) (-5.087605e-07 5.477248e-11 -7.417854e-11))
14.182579     	((-4.953852e-09 -1.079503e-05 -3.662777e-05) (-6.070761e-10 -1.301624e-05 -3.493747e-06)) ((1.623507e-10 1.586502e-11 9.551594e-12) (-4.797882e-07 5.903096e-11 -1.035912e-10))
17.031095     	((-4.486075e-09 -1.127589e-05 -3.605116e-05) (-7.343449e-10 -1.235556e-05 -3.648030e-06)) ((1.867971e-10 1.389355e-11 1.163371e-11) (-4.554368e-07 5.849150e-11 -1.363252e-10))
20.449314     	((-3.955111e-09 -1.188409e-05 -3.542217e-05) (-5.464112e-10 -1.180657e-05 -3.789828e-06)) ((2.132404e-10 1.190533e-11 1.393901e-11) (-4.353919e-07 5.449576e-11 -1.771774e-10))
24.551176     	((-3.196690e-09 -1.259036e-05 -3.474911e-05) (-2.763511e-10 -1.135947e-05 -3.916579e-06)) ((2.402005e-10 9.940426e-12 1.654618e-11) (-4.194142e-07 4.702311e-11 -2.127155e-10))
29.372048     	((-2.740518e-09 -1.333357e-05 -3.401284e-05) (-3.085406e-10 -1.100972e-05 -4.023800e-06)) ((2.652747e-10 8.418812e-12 1.911908e-11) (-4.071809e-07 4.774334e-11 -2.352684e-10))
34.906154     	((-1.107655e-09 -1.404775e-05 -3.320226e-05) (-2.485947e-10 -1.074075e-05 -4.103719e-06)) ((2.855642e-10 7.523905e-12 2.141418e-11) (-3.978552e-07 4.676966e-11 -2.542704e-10))
41.148563     	((-4.055136e-10 -1.467290e-05 -3.228316e-05) (-1.633077e-10 -1.052838e-05 -4.151189e-06)) ((3.011735e-10 6.685018e-12 2.330611e-11) (-3.903851e-07 4.459128e-11 -2.632204e-10))
48.097595     	((3.313730e-10 -1.519023e-05 -3.127362e-05) (1.066270e-10 -1.035034e-05 -4.167309e-06)) ((3.137220e-10 5.801213e-12 2.482975e-11) (-3.840415e-07 3.956041e-11 -2.613028e-10))
55.178318     	((2.391312e-09 -1.560443e-05 -3.026732e-05) (4.349054e-10 -1.020252e-05 -4.162739e-06)) ((3.245132e-10 4.909086e-12 2.611011e-11) (-3.788177e-07 2.727671e-11 -2.464493e-10))
62.281307     	((2.342492e-09 -1.584589e-05 -2.929011e-05) (8.343578e-10 -1.007546e-05 -4.148612e-06)) ((3.328738e-10 4.718149e-12 2.724562e-11) (-3.744700e-07 1.463900e-11 -2.179018e-10))
69.398821     	((2.384814e-09 -1.594310e-05 -2.834808e-05) (1.244505e-09 -9.963164e-06 -4.131593e-06)) ((3.384913e-10 5.392738e-12 2.814423e-11) (-3.707650e-07 2.095578e-12 -1.906080e-10))
76.523973     	((2.129350e-09 -1.596206e-05 -2.749666e-05) (1.372513e-09 -9.860690e-06 -4.116997e-06)) ((3.415344e-10 6.452114e-12 2.874789e-11) (-3.674091e-07 -5.654042e-12 -1.819576e-10))
83.655535     	((1.493186e-09 -1.592170e-05 -2.671424e-05) (1.345516e-09 -9.767064e-06 -4.105379e-06)) ((3.427164e-10 7.641727e-12 2.912140e-11) (-3.643549e-07 -1.192745e-11 -1.765036e-10))
90.79422      	((4.681851e-10 -1.585541e-05 -2.599110e-05) (1.296492e-09 -9.680912e-06 -4.096323e-06)) ((3.427370e-10 8.795572e-12 2.940657e-11) (-3.615562e-07 -1.594909e-11 -1.717072e-10))
97.939842     	((-5.557668e-10 -1.577493e-05 -2.530241e-05) (1.219324e-09 -9.600881e-06 -4.089942e-06)) ((3.421807e-10 9.996415e-12 2.963468e-11) (-3.589541e-07 -1.691035e-11 -1.656485e-10))
105.091645    	((-9.593462e-10 -1.570376e-05 -2.466045e-05) (1.136341e-09 -9.527402e-06 -4.086087e-06)) ((3.414422e-10 1.117400e-11 2.982819e-11) (-3.565441e-07 -1.763324e-11 -1.617566e-10))
112.24905     	((-1.346445e-09 -1.564610e-05 -2.406267e-05) (1.040601e-09 -9.460749e-06 -4.084304e-06)) ((3.406696e-10 1.225921e-11 2.999821e-11) (-3.543209e-07 -1.801595e-11 -1.631428e-10))
119.411648    	((-1.413383e-09 -1.559757e-05 -2.350989e-05) (9.595430e-10 -9.400898e-06 -4.083737e-06)) ((3.399941e-10 1.326569e-11 3.015319e-11) (-3.522939e-07 -1.730622e-11 -1.685724e-10))
126.57903     	((-1.634409e-09 -1.554891e-05 -2.299183e-05) (9.106689e-10 -9.346843e-06 -4.083682e-06)) ((3.393928e-10 1.423470e-11 3.027690e-11) (-3.504518e-07 -1.611051e-11 -1.750575e-10))
133.750796    	((-1.914298e-09 -1.550508e-05 -2.250919e-05) (8.528682e-10 -9.297848e-06 -4.083613e-06)) ((3.388999e-10 1.516680e-11 3.038482e-11) (-3.487879e-07 -1.458385e-11 -1.823728e-10))
140.926607    	((-2.036547e-09 -1.546442e-05 -2.205537e-05) (7.625234e-10 -9.253610e-06 -4.083313e-06)) ((3.384856e-10 1.606890e-11 3.047814e-11) (-3.472969e-07 -1.268983e-11 -1.910029e-10))
148.106159    	((-2.211920e-09 -1.542704e-05 -2.162830e-05) (6.579488e-10 -9.213677e-06 -4.082589e-06)) ((3.382180e-10 1.692285e-11 3.056049e-11) (-3.459674e-07 -1.041850e-11 -1.987337e-10))
155.289168    	((-2.300111e-09 -1.539272e-05 -2.122876e-05) (5.962668e-10 -9.177735e-06 -4.081330e-06)) ((3.380402e-10 1.772293e-11 3.063170e-11) (-3.447905e-07 -7.623778e-12 -2.021550e-10))
162.475375    	((-2.050952e-09 -1.535643e-05 -2.084992e-05) (5.734906e-10 -9.145118e-06 -4.079741e-06)) ((3.378529e-10 1.853201e-11 3.069289e-11) (-3.437404e-07 -5.276898e-12 -2.043074e-10))
169.664539    	((-1.839011e-09 -1.531904e-05 -2.049287e-05) (5.497531e-10 -9.115251e-06 -4.077922e-06)) ((3.376787e-10 1.930061e-11 3.074224e-11) (-3.427955e-07 -3.102368e-12 -2.081386e-10))
176.856446    	((-1.657681e-09 -1.528202e-05 -2.015182e-05) (5.337706e-10 -9.087746e-06 -4.076226e-06)) ((3.373539e-10 2.006335e-11 3.078454e-11) (-3.419292e-07 -1.621792e-12 -2.125058e-10))
184.050901    	((-1.152839e-09 -1.524542e-05 -1.983035e-05) (5.372763e-10 -9.062182e-06 -4.074989e-06)) ((3.369200e-10 2.079709e-11 3.083081e-11) (-3.411151e-07 -1.658487e-12 -2.168974e-10))
191.247733    	((-7.200726e-10 -1.521169e-05 -1.952802e-05) (5.689318e-10 -9.038438e-06 -4.074308e-06)) ((3.364246e-10 2.150150e-11 3.087390e-11) (-3.403457e-07 -2.503335e-12 -2.195555e-10))
198.446788    	((-2.602106e-10 -1.517995e-05 -1.924315e-05) (6.249479e-10 -9.016425e-06 -4.074013e-06)) ((3.359537e-10 2.218168e-11 3.091917e-11) (-3.396247e-07 -4.085042e-12 -2.203059e-10))
205.647923    	((4.852874e-10 -1.514879e-05 -1.897137e-05) (7.050224e-10 -8.995953e-06 -4.073895e-06)) ((3.355158e-10 2.285256e-11 3.096097e-11) (-3.389537e-07 -6.638794e-12 -2.203240e-10))
212.851009    	((9.093683e-10 -1.511960e-05 -1.871488e-05) (7.995994e-10 -8.976949e-06 -4.073735e-06)) ((3.351654e-10 2.346739e-11 3.099693e-11) (-3.383369e-07 -9.678075e-12 -2.198815e-10))
220.055923    	((1.114560e-09 -1.509167e-05 -1.846930e-05) (9.097693e-10 -8.959298e-06 -4.073388e-06)) ((3.348922e-10 2.404958e-11 3.102792e-11) (-3.377740e-07 -1.193382e-11 -2.182219e-10))
227.262552    	((1.449801e-09 -1.506508e-05 -1.823462e-05) (1.032980e-09 -8.942888e-06 -4.072774e-06)) ((3.347020e-10 2.461172e-11 3.105434e-11) (-3.372633e-07 -1.408213e-11 -2.157473e-10))
234.470791    	((1.391896e-09 -1.504129e-05 -1.801175e-05) (1.136219e-09 -8.927727e-06 -4.071831e-06)) ((3.345990e-10 2.513259e-11 3.107887e-11) (-3.368045e-07 -1.565462e-11 -2.128512e-10))
241.680547    	((1.388561e-09 -1.501906e-05 -1.779904e-05) (1.240639e-09 -8.913758e-06 -4.070530e-06)) ((3.345534e-10 2.562986e-11 3.110233e-11) (-3.363954e-07 -1.679662e-11 -2.092634e-10))
248.891735    	((1.500362e-09 -1.499724e-05 -1.759474e-05) (1.358277e-09 -8.900819e-06 -4.068962e-06)) ((3.345150e-10 2.611919e-11 3.112495e-11) (-3.360271e-07 -1.822019e-11 -2.050395e-10))
256.104278    	((1.134008e-09 -1.497788e-05 -1.740159e-05) (1.460613e-09 -8.888931e-06 -4.067187e-06)) ((3.345050e-10 2.657536e-11 3.114577e-11) (-3.356970e-07 -1.873185e-11 -2.003104e-10))
263.318101    	((6.493157e-10 -1.495844e-05 -1.721921e-05) (1.537311e-09 -8.877941e-06 -4.065351e-06)) ((3.344550e-10 2.701340e-11 3.116272e-11) (-3.353966e-07 -1.855370e-11 -1.955188e-10))
270.533134    	((-3.297310e-10 -1.493998e-05 -1.704809e-05) (1.556511e-09 -8.867766e-06 -4.063588e-06)) ((3.343753e-10 2.741872e-11 3.117407e-11) (-3.351191e-07 -1.666289e-11 -1.909899e-10))
277.749308    	((-1.244968e-09 -1.492156e-05 -1.688672e-05) (1.535648e-09 -8.858280e-06 -4.061956e-06)) ((3.342680e-10 2.780401e-11 3.118129e-11) (-3.348590e-07 -1.354829e-11 -1.870883e-10))
284.966553    	((-2.023042e-09 -1.490390e-05 -1.673407e-05) (1.496484e-09 -8.849383e-06 -4.060454e-06)) ((3.341513e-10 2.817534e-11 3.118704e-11) (-3.346134e-07 -1.017258e-11 -1.838447e-10))
292.184797    	((-2.776347e-09 -1.488702e-05 -1.658896e-05) (1.438185e-09 -8.841019e-06 -4.059098e-06)) ((3.340349e-10 2.853358e-11 3.119300e-11) (-3.343807e-07 -6.470611e-12 -1.813277e-10))
299.403978    	((-3.516587e-09 -1.487154e-05 -1.645183e-05) (1.365114e-09 -8.833175e-06 -4.057854e-06)) ((3.339362e-10 2.887177e-11 3.119924e-11) (-3.341618e-07 -2.638687e-12 -1.795998e-10))
306.624036    	((-4.410551e-09 -1.485691e-05 -1.632228e-05) (1.262344e-09 -8.825824e-06 -4.056683e-06)) ((3.338495e-10 2.918622e-11 3.120528e-11) (-3.339568e-07 2.092292e-12 -1.786323e-10))
313.844916    	((-5.317722e-09 -1.484301e-05 -1.619979e-05) (1.137056e-09 -8.818912e-06 -4.055582e-06)) ((3.337619e-10 2.948729e-11 3.121090e-11) (-3.337638e-07 7.510583e-12 -1.781387e-10))
321.066569    	((-6.366271e-09 -1.482982e-05 -1.608373e-05) (9.830307e-10 -8.812392e-06 -4.054582e-06)) ((3.336687e-10 2.977068e-11 3.121639e-11) (-3.335802e-07 1.371936e-11 -1.781764e-10))
328.288951    	((-7.214651e-09 -1.481768e-05 -1.597431e-05) (8.097245e-10 -8.806245e-06 -4.053702e-06)) ((3.335758e-10 3.003909e-11 3.122233e-11) (-3.334045e-07 2.017447e-11 -1.787622e-10))
335.51202     	((-8.087410e-09 -1.480629e-05 -1.587085e-05) (6.273602e-10 -8.800446e-06 -4.052927e-06)) ((3.334888e-10 3.029295e-11 3.122854e-11) (-3.332365e-07 2.666497e-11 -1.798680e-10))
342.735736    	((-8.885701e-09 -1.479555e-05 -1.577272e-05) (4.352032e-10 -8.794962e-06 -4.052252e-06)) ((3.334033e-10 3.053446e-11 3.123515e-11) (-3.330756e-07 3.319927e-11 -1.816152e-10))
349.960063    	((-9.685946e-09 -1.478568e-05 -1.567994e-05) (2.361596e-10 -8.789795e-06 -4.051638e-06)) ((3.333299e-10 3.076010e-11 3.124124e-11) (-3.329232e-07 3.988771e-11 -1.838153e-10))
357.184967    	((-1.052417e-08 -1.477652e-05 -1.559224e-05) (3.168670e-11 -8.784943e-06 -4.051059e-06)) ((3.332692e-10 3.097016e-11 3.124697e-11) (-3.327799e-07 4.687493e-11 -1.862233e-10))
364.410414    	((-1.133510e-08 -1.476779e-05 -1.550904e-05) (-1.707014e-10 -8.780371e-06 -4.050500e-06)) ((3.332198e-10 3.116809e-11 3.125249e-11) (-3.326455e-07 5.396768e-11 -1.885812e-10))
371.636375    	((-1.222397e-08 -1.475962e-05 -1.543019e-05) (-3.739599e-10 -8.776074e-06 -4.049941e-06)) ((3.331850e-10 3.135341e-11 3.125811e-11) (-3.325205e-07 6.140870e-11 -1.906666e-10))
378.86282     	((-1.315502e-08 -1.475180e-05 -1.535511e-05) (-5.750259e-10 -8.772035e-06 -4.049363e-06)) ((3.331629e-10 3.152908e-11 3.126339e-11) (-3.324048e-07 6.919513e-11 -1.923037e-10))
386.089724    	((-1.426303e-08 -1.474437e-05 -1.528364e-05) (-7.777810e-10 -8.768240e-06 -4.048744e-06)) ((3.331607e-10 3.169149e-11 3.126817e-11) (-3.322983e-07 7.751537e-11 -1.932494e-10))
393.31706     	((-1.561134e-08 -1.473728e-05 -1.521538e-05) (-9.914069e-10 -8.764673e-06 -4.048067e-06)) ((3.331755e-10 3.184238e-11 3.127284e-11) (-3.322010e-07 8.671485e-11 -1.934294e-10))
400.54481     	((-1.719308e-08 -1.473048e-05 -1.515000e-05) (-1.220131e-09 -8.761316e-06 -4.047318e-06)) ((3.332068e-10 3.198142e-11 3.127691e-11) (-3.321122e-07 9.698167e-11 -1.928735e-10))
407.772952    	((-1.905105e-08 -1.472405e-05 -1.508759e-05) (-1.469176e-09 -8.758161e-06 -4.046494e-06)) ((3.332510e-10 3.210824e-11 3.128090e-11) (-3.320314e-07 1.084851e-10 -1.914592e-10))
415.001473    	((-2.118934e-08 -1.471791e-05 -1.502784e-05) (-1.742935e-09 -8.755194e-06 -4.045605e-06)) ((3.333042e-10 3.222345e-11 3.128468e-11) (-3.319580e-07 1.213826e-10 -1.891023e-10))
422.230357    	((-2.355084e-08 -1.471219e-05 -1.497103e-05) (-2.037799e-09 -8.752412e-06 -4.044669e-06)) ((3.333607e-10 3.232770e-11 3.128795e-11) (-3.318910e-07 1.356121e-10 -1.857395e-10))
429.459593    	((-2.631237e-08 -1.470670e-05 -1.491694e-05) (-2.362201e-09 -8.749800e-06 -4.043708e-06)) ((3.334176e-10 3.241993e-11 3.129173e-11) (-3.318294e-07 1.514332e-10 -1.812436e-10))
436.68917     	((-2.935021e-08 -1.470136e-05 -1.486535e-05) (-2.718110e-09 -8.747335e-06 -4.042741e-06)) ((3.334717e-10 3.250250e-11 3.129487e-11) (-3.317720e-07 1.688666e-10 -1.756039e-10))
443.919078    	((-3.272988e-08 -1.469626e-05 -1.481631e-05) (-3.107002e-09 -8.745007e-06 -4.041787e-06)) ((3.335219e-10 3.257428e-11 3.129797e-11) (-3.317181e-07 1.879616e-10 -1.688490e-10))
451.149307    	((-3.647978e-08 -1.469127e-05 -1.476951e-05) (-3.535337e-09 -8.742800e-06 -4.040853e-06)) ((3.335692e-10 3.263559e-11 3.130136e-11) (-3.316670e-07 2.089101e-10 -1.610200e-10))
