# Forces      
# CofR        : (0.000000e+00 0.000000e+00 0.000000e+00)
# Time        forces(pressure viscous)	moments(pressure viscous)
0             	((0.000000e+00 0.000000e+00 0.000000e+00) (-1.864368e-12 -6.326122e-03 4.218209e-13)) ((0.000000e+00 0.000000e+00 0.000000e+00) (-1.421408e-04 -1.584319e-14 2.727743e-09))
0.012         	((2.147661e-05 -1.865274e+00 3.530279e-01) (1.028968e-08 -8.454151e-03 -3.572432e-04)) ((2.172222e-05 1.472077e-06 3.335425e-07) (-2.557877e-04 4.204840e-09 -2.771377e-09))
0.0264        	((2.567482e-05 4.911920e-01 -1.917609e-01) (-2.058059e-08 -8.375018e-03 -5.431465e-04)) ((-5.515907e-06 -2.728686e-07 -4.920063e-08) (-2.817990e-04 3.266043e-09 -8.784168e-09))
0.04368       	((-4.266364e-05 1.531590e-01 -1.049015e-01) (3.434971e-07 -7.015761e-03 -5.304345e-04)) ((-2.818006e-06 -5.730359e-08 -6.785465e-08) (-2.424836e-04 -1.387078e-09 -2.770827e-08))
0.064416      	((5.121822e-06 3.558519e-03 -9.104718e-02) (-4.358356e-07 -6.202454e-03 -5.792856e-04)) ((-1.987021e-07 -5.916520e-09 5.877720e-09) (-2.197914e-04 -2.229923e-09 -3.730085e-08))
0.0892992     	((-4.347206e-05 -8.292014e-04 -7.924222e-02) (-2.073457e-06 -5.699856e-03 -6.202094e-04)) ((-2.057589e-07 2.681285e-08 -6.963731e-09) (-2.045143e-04 2.447007e-09 -4.018870e-08))
0.119159      	((-6.126017e-05 -2.142692e-03 -7.493406e-02) (-3.013903e-06 -5.293643e-03 -6.339909e-04)) ((-2.100759e-07 3.715909e-08 -1.612518e-09) (-1.911423e-04 1.115341e-08 -5.018931e-08))
0.154991      	((-6.624815e-05 -3.313559e-03 -7.182567e-02) (-3.663745e-06 -4.978673e-03 -6.460348e-04)) ((-1.619076e-07 4.030735e-08 1.394403e-10) (-1.801730e-04 1.477996e-08 -6.316539e-08))
0.197989      	((-4.671497e-05 -3.766879e-03 -7.044396e-02) (-3.835445e-06 -4.734957e-03 -6.680171e-04)) ((-1.265341e-07 4.259055e-08 8.510266e-09) (-1.712777e-04 1.646790e-08 -7.559012e-08))
0.249587      	((-2.632710e-05 -4.189350e-03 -6.944768e-02) (-3.324942e-06 -4.527825e-03 -7.073214e-04)) ((-8.367584e-08 4.252876e-08 7.862601e-09) (-1.635419e-04 1.611413e-08 -8.942572e-08))
0.311504      	((-1.514478e-05 -4.599843e-03 -6.883369e-02) (-2.707894e-06 -4.342943e-03 -7.623603e-04)) ((-4.151433e-08 4.378576e-08 1.267163e-08) (-1.564932e-04 1.321215e-08 -9.029899e-08))
0.385805      	((-1.275203e-05 -5.186286e-03 -6.818592e-02) (-2.471610e-06 -4.176174e-03 -8.274949e-04)) ((1.144284e-08 4.532372e-08 1.571773e-08) (-1.499370e-04 8.334168e-09 -8.483852e-08))
0.47325       	((-4.879424e-06 -5.941061e-03 -6.757719e-02) (-2.076000e-06 -4.029065e-03 -8.974193e-04)) ((6.083393e-08 4.579035e-08 2.088907e-08) (-1.439932e-04 2.246686e-09 -8.749837e-08))
0.573864      	((2.355990e-06 -6.901000e-03 -6.696349e-02) (-1.457648e-06 -3.904481e-03 -9.672368e-04)) ((1.157255e-07 4.745454e-08 2.593881e-08) (-1.388458e-04 -3.763298e-09 -9.662436e-08))
0.687662      	((1.104945e-05 -8.042916e-03 -6.635154e-02) (-9.132505e-07 -3.801316e-03 -1.033789e-03)) ((1.691375e-07 4.836530e-08 3.241822e-08) (-1.345133e-04 -8.524140e-09 -1.080466e-07))
0.814621      	((2.155412e-05 -9.252914e-03 -6.561366e-02) (-3.892566e-07 -3.717739e-03 -1.094113e-03)) ((2.193532e-07 4.881071e-08 3.997446e-08) (-1.309291e-04 -1.065895e-08 -1.200125e-07))
0.945646      	((3.241375e-05 -1.057673e-02 -6.479093e-02) (2.519256e-07 -3.653174e-03 -1.141649e-03)) ((2.609092e-07 4.816914e-08 4.749546e-08) (-1.280546e-04 -1.249442e-08 -1.340248e-07))
1.075912      	((4.419178e-05 -1.181371e-02 -6.381694e-02) (9.099333e-07 -3.598910e-03 -1.175765e-03)) ((2.953160e-07 4.694457e-08 5.391808e-08) (-1.255843e-04 -1.594431e-08 -1.514471e-07))
1.205329      	((5.728964e-05 -1.293445e-02 -6.270469e-02) (1.387484e-06 -3.547628e-03 -1.198099e-03)) ((3.274299e-07 4.430609e-08 5.889645e-08) (-1.233549e-04 -2.019695e-08 -1.733068e-07))
1.334443      	((7.133907e-05 -1.384901e-02 -6.149980e-02) (1.634577e-06 -3.496674e-03 -1.210871e-03)) ((3.581048e-07 4.131808e-08 6.219899e-08) (-1.213438e-04 -2.553987e-08 -1.932750e-07))
1.463844      	((8.682461e-05 -1.451131e-02 -6.031199e-02) (1.657222e-06 -3.448520e-03 -1.217522e-03)) ((3.853473e-07 3.853340e-08 6.526139e-08) (-1.195965e-04 -3.271547e-08 -2.067067e-07))
1.593739      	((1.036585e-04 -1.487398e-02 -5.916377e-02) (1.805963e-06 -3.404162e-03 -1.221542e-03)) ((4.069665e-07 3.612426e-08 6.736105e-08) (-1.180786e-04 -4.279445e-08 -2.198523e-07))
1.723777      	((1.194056e-04 -1.497322e-02 -5.808243e-02) (1.966441e-06 -3.363114e-03 -1.225146e-03)) ((4.235835e-07 3.344906e-08 6.853126e-08) (-1.167043e-04 -5.405690e-08 -2.385891e-07))
1.853504      	((1.368154e-04 -1.484793e-02 -5.702493e-02) (2.040669e-06 -3.325978e-03 -1.228129e-03)) ((4.359088e-07 3.176821e-08 6.926519e-08) (-1.154780e-04 -6.236820e-08 -2.607707e-07))
1.982837      	((1.612625e-04 -1.454437e-02 -5.600213e-02) (2.298677e-06 -3.293043e-03 -1.229432e-03)) ((4.415774e-07 3.168041e-08 6.959057e-08) (-1.144412e-04 -7.092340e-08 -2.793737e-07))
2.111897      	((1.766571e-04 -1.427430e-02 -5.504716e-02) (2.686813e-06 -3.264418e-03 -1.228979e-03)) ((4.423865e-07 3.138364e-08 7.001585e-08) (-1.135917e-04 -8.155793e-08 -2.920320e-07))
2.24082       	((1.938227e-04 -1.410329e-02 -5.422421e-02) (3.013534e-06 -3.239485e-03 -1.228315e-03)) ((4.376825e-07 3.105344e-08 7.019701e-08) (-1.128533e-04 -9.254230e-08 -3.001339e-07))
2.369628      	((2.134194e-04 -1.402746e-02 -5.347670e-02) (3.243504e-06 -3.217237e-03 -1.228450e-03)) ((4.327413e-07 3.074805e-08 7.013595e-08) (-1.121623e-04 -1.034865e-07 -3.053017e-07))
2.498293      	((2.361277e-04 -1.401333e-02 -5.276253e-02) (3.427404e-06 -3.197144e-03 -1.228830e-03)) ((4.295754e-07 3.044144e-08 7.030546e-08) (-1.115200e-04 -1.151847e-07 -3.143301e-07))
2.626808      	((2.648038e-04 -1.396400e-02 -5.203967e-02) (3.631584e-06 -3.178253e-03 -1.229163e-03)) ((4.250520e-07 3.054207e-08 7.066139e-08) (-1.109136e-04 -1.289199e-07 -3.261356e-07))
2.755188      	((2.932179e-04 -1.387835e-02 -5.133127e-02) (3.860449e-06 -3.159851e-03 -1.229605e-03)) ((4.199388e-07 3.080059e-08 7.093154e-08) (-1.103220e-04 -1.453712e-07 -3.369933e-07))
2.883424      	((3.227567e-04 -1.372646e-02 -5.065489e-02) (4.173547e-06 -3.142128e-03 -1.230266e-03)) ((4.145311e-07 3.088638e-08 7.103792e-08) (-1.097478e-04 -1.613079e-07 -3.466177e-07))
3.011521      	((3.520830e-04 -1.356469e-02 -5.005121e-02) (4.617889e-06 -3.125426e-03 -1.231002e-03)) ((4.098498e-07 3.100198e-08 7.100316e-08) (-1.092062e-04 -1.769157e-07 -3.542957e-07))
3.139486      	((3.864918e-04 -1.343091e-02 -4.951994e-02) (5.097358e-06 -3.110071e-03 -1.231700e-03)) ((4.062095e-07 3.132678e-08 7.102826e-08) (-1.087097e-04 -1.968344e-07 -3.635315e-07))
3.267328      	((4.343236e-04 -1.333498e-02 -4.903379e-02) (5.578480e-06 -3.096140e-03 -1.232266e-03)) ((4.036795e-07 3.184697e-08 7.119858e-08) (-1.082627e-04 -2.231011e-07 -3.769311e-07))
3.395058      	((4.829177e-04 -1.329264e-02 -4.858489e-02) (6.122558e-06 -3.083603e-03 -1.232479e-03)) ((4.029143e-07 3.223712e-08 7.141526e-08) (-1.078703e-04 -2.531579e-07 -3.929612e-07))
3.522686      	((5.408532e-04 -1.326791e-02 -4.814302e-02) (6.812537e-06 -3.072274e-03 -1.232328e-03)) ((4.030612e-07 3.282128e-08 7.167013e-08) (-1.075248e-04 -2.880919e-07 -4.064096e-07))
3.650229      	((6.036226e-04 -1.324138e-02 -4.771513e-02) (7.664291e-06 -3.061932e-03 -1.232008e-03)) ((4.030049e-07 3.360907e-08 7.193421e-08) (-1.072140e-04 -3.286683e-07 -4.180543e-07))
3.77769       	((6.762991e-04 -1.319148e-02 -4.730720e-02) (8.657832e-06 -3.052303e-03 -1.231661e-03)) ((4.024621e-07 3.469472e-08 7.217705e-08) (-1.069297e-04 -3.749180e-07 -4.314656e-07))
3.905075      	((7.559835e-04 -1.312054e-02 -4.692351e-02) (9.792090e-06 -3.043119e-03 -1.231303e-03)) ((4.019368e-07 3.568364e-08 7.238369e-08) (-1.066663e-04 -4.272840e-07 -4.494731e-07))
4.032389      	((8.426731e-04 -1.303951e-02 -4.656151e-02) (1.110344e-05 -3.034381e-03 -1.230889e-03)) ((4.016084e-07 3.672849e-08 7.243762e-08) (-1.064247e-04 -4.854702e-07 -4.718909e-07))
4.159639      	((9.322014e-04 -1.296881e-02 -4.622373e-02) (1.259337e-05 -3.026267e-03 -1.230407e-03)) ((4.013691e-07 3.770842e-08 7.253066e-08) (-1.062077e-04 -5.495513e-07 -4.974838e-07))
4.286828      	((1.030649e-03 -1.291346e-02 -4.590226e-02) (1.428798e-05 -3.018944e-03 -1.229877e-03)) ((4.011012e-07 3.881110e-08 7.274311e-08) (-1.060164e-04 -6.195838e-07 -5.227661e-07))
4.413961      	((1.138492e-03 -1.286788e-02 -4.559091e-02) (1.625117e-05 -3.012396e-03 -1.229318e-03)) ((4.006769e-07 4.022922e-08 7.299091e-08) (-1.058474e-04 -6.967204e-07 -5.435473e-07))
4.541042      	((1.259224e-03 -1.282351e-02 -4.528814e-02) (1.850282e-05 -3.006429e-03 -1.228783e-03)) ((3.999447e-07 4.196755e-08 7.333773e-08) (-1.056928e-04 -7.834206e-07 -5.600478e-07))
4.668072      	((1.393504e-03 -1.277853e-02 -4.500060e-02) (2.100939e-05 -3.000836e-03 -1.228303e-03)) ((3.991085e-07 4.396618e-08 7.369894e-08) (-1.055455e-04 -8.808293e-07 -5.768386e-07))
4.795054      	((1.542966e-03 -1.272525e-02 -4.472190e-02) (2.375394e-05 -2.995481e-03 -1.227882e-03)) ((3.980906e-07 4.613540e-08 7.398993e-08) (-1.054018e-04 -9.896181e-07 -5.998036e-07))
4.921996      	((1.704962e-03 -1.267052e-02 -4.445598e-02) (2.671549e-05 -2.990338e-03 -1.227534e-03)) ((3.968986e-07 4.844643e-08 7.421913e-08) (-1.052599e-04 -1.109587e-06 -6.312655e-07))
5.048905      	((1.885640e-03 -1.261968e-02 -4.419988e-02) (2.990723e-05 -2.985420e-03 -1.227267e-03)) ((3.955372e-07 5.104382e-08 7.442912e-08) (-1.051204e-04 -1.241664e-06 -6.720438e-07))
5.175784      	((2.083834e-03 -1.257721e-02 -4.395296e-02) (3.337628e-05 -2.980723e-03 -1.227012e-03)) ((3.943865e-07 5.385691e-08 7.466358e-08) (-1.049861e-04 -1.387418e-06 -7.220027e-07))
5.302632      	((2.299893e-03 -1.254959e-02 -4.372087e-02) (3.717399e-05 -2.976307e-03 -1.226614e-03)) ((3.935804e-07 5.683182e-08 7.497668e-08) (-1.048646e-04 -1.547689e-06 -7.791029e-07))
5.429448      	((2.535918e-03 -1.252643e-02 -4.349359e-02) (4.134129e-05 -2.972202e-03 -1.225988e-03)) ((3.928862e-07 6.013008e-08 7.532985e-08) (-1.047588e-04 -1.723059e-06 -8.418227e-07))
5.556217      	((2.792913e-03 -1.250993e-02 -4.327769e-02) (4.595209e-05 -2.968391e-03 -1.225130e-03)) ((3.924517e-07 6.370702e-08 7.572543e-08) (-1.046673e-04 -1.914500e-06 -9.090300e-07))
5.68294       	((3.074920e-03 -1.249362e-02 -4.307026e-02) (5.099909e-05 -2.964800e-03 -1.224088e-03)) ((3.923074e-07 6.781186e-08 7.612655e-08) (-1.045869e-04 -2.124365e-06 -9.830075e-07))
5.809615      	((3.385282e-03 -1.248227e-02 -4.287481e-02) (5.646293e-05 -2.961469e-03 -1.222892e-03)) ((3.923268e-07 7.276462e-08 7.649179e-08) (-1.045191e-04 -2.356963e-06 -1.066814e-06))
5.936241      	((3.731021e-03 -1.247087e-02 -4.268368e-02) (6.240113e-05 -2.958455e-03 -1.221548e-03)) ((3.923069e-07 7.852378e-08 7.678590e-08) (-1.044666e-04 -2.616837e-06 -1.162298e-06))
6.062818      	((4.106494e-03 -1.247065e-02 -4.250507e-02) (6.890202e-05 -2.955785e-03 -1.219999e-03)) ((3.927167e-07 8.468721e-08 7.694979e-08) (-1.044325e-04 -2.905938e-06 -1.268333e-06))
6.189347      	((4.518148e-03 -1.247891e-02 -4.233844e-02) (7.601637e-05 -2.953546e-03 -1.218145e-03)) ((3.932947e-07 9.134173e-08 7.697869e-08) (-1.044212e-04 -3.225070e-06 -1.384671e-06))
6.315829      	((4.973074e-03 -1.250016e-02 -4.218200e-02) (8.383710e-05 -2.951862e-03 -1.215837e-03)) ((3.941126e-07 9.877873e-08 7.689040e-08) (-1.044392e-04 -3.576160e-06 -1.511914e-06))
6.442272      	((5.478279e-03 -1.252959e-02 -4.203025e-02) (9.242720e-05 -2.950770e-03 -1.213102e-03)) ((3.948344e-07 1.071937e-07 7.677477e-08) (-1.044873e-04 -3.963553e-06 -1.651634e-06))
6.568676      	((6.045544e-03 -1.257625e-02 -4.189241e-02) (1.019318e-04 -2.950363e-03 -1.210010e-03)) ((3.953189e-07 1.167860e-07 7.669130e-08) (-1.045659e-04 -4.393526e-06 -1.805641e-06))
6.695037      	((6.678726e-03 -1.264919e-02 -4.177901e-02) (1.125555e-04 -2.950743e-03 -1.206561e-03)) ((3.955877e-07 1.275499e-07 7.665797e-08) (-1.046784e-04 -4.870492e-06 -1.976590e-06))
6.821355      	((7.388940e-03 -1.273057e-02 -4.167871e-02) (1.243692e-04 -2.951843e-03 -1.202849e-03)) ((3.950584e-07 1.395078e-07 7.652578e-08) (-1.048230e-04 -5.400962e-06 -2.171428e-06))
6.947626      	((8.175884e-03 -1.284167e-02 -4.160454e-02) (1.373156e-04 -2.953780e-03 -1.198932e-03)) ((3.943153e-07 1.523441e-07 7.626493e-08) (-1.050032e-04 -5.990817e-06 -2.398910e-06))
7.07385       	((9.057813e-03 -1.297901e-02 -4.154976e-02) (1.515915e-04 -2.956775e-03 -1.194758e-03)) ((3.928561e-07 1.666417e-07 7.601928e-08) (-1.052302e-04 -6.647111e-06 -2.662221e-06))
7.200023      	((1.003079e-02 -1.315434e-02 -4.152326e-02) (1.675387e-04 -2.960991e-03 -1.190093e-03)) ((3.915463e-07 1.825891e-07 7.569239e-08) (-1.055199e-04 -7.378958e-06 -2.955010e-06))
7.326146      	((1.108029e-02 -1.338152e-02 -4.152620e-02) (1.853984e-04 -2.966806e-03 -1.184800e-03)) ((3.908608e-07 1.991602e-07 7.554532e-08) (-1.058858e-04 -8.188662e-06 -3.259970e-06))
7.452215      	((1.220646e-02 -1.369934e-02 -4.159278e-02) (2.054576e-04 -2.974485e-03 -1.178734e-03)) ((3.919027e-07 2.161219e-07 7.580837e-08) (-1.063441e-04 -9.073886e-06 -3.562043e-06))
7.578226      	((1.339708e-02 -1.408217e-02 -4.172084e-02) (2.278171e-04 -2.983998e-03 -1.171969e-03)) ((3.937743e-07 2.336223e-07 7.647169e-08) (-1.069004e-04 -1.003302e-05 -3.866925e-06))
7.704176      	((1.465112e-02 -1.453483e-02 -4.189627e-02) (2.522653e-04 -2.995524e-03 -1.164921e-03)) ((3.961120e-07 2.522407e-07 7.773517e-08) (-1.075460e-04 -1.106057e-05 -4.183808e-06))
7.830063      	((1.593534e-02 -1.509250e-02 -4.216179e-02) (2.786256e-04 -3.009653e-03 -1.157735e-03)) ((3.994772e-07 2.706798e-07 7.948683e-08) (-1.082891e-04 -1.215033e-05 -4.503421e-06))
7.955888      	((1.722762e-02 -1.572142e-02 -4.248218e-02) (3.068302e-04 -3.026817e-03 -1.150418e-03)) ((4.028866e-07 2.883329e-07 8.143504e-08) (-1.091368e-04 -1.329502e-05 -4.807384e-06))
8.081653      	((1.848213e-02 -1.646063e-02 -4.289536e-02) (3.365066e-04 -3.046907e-03 -1.142885e-03)) ((4.078551e-07 3.043591e-07 8.366845e-08) (-1.100890e-04 -1.447070e-05 -5.088902e-06))
8.207353      	((1.965651e-02 -1.727076e-02 -4.337445e-02) (3.671503e-04 -3.069835e-03 -1.135186e-03)) ((4.145386e-07 3.180743e-07 8.634026e-08) (-1.111404e-04 -1.565514e-05 -5.342227e-06))
8.333002      	((2.071401e-02 -1.816455e-02 -4.394347e-02) (3.979971e-04 -3.095864e-03 -1.127413e-03)) ((4.232059e-07 3.280138e-07 8.963786e-08) (-1.122902e-04 -1.682700e-05 -5.570438e-06))
8.458621      	((2.160065e-02 -1.906784e-02 -4.454997e-02) (4.283219e-04 -3.125060e-03 -1.119485e-03)) ((4.328655e-07 3.344521e-07 9.297852e-08) (-1.135310e-04 -1.796547e-05 -5.762339e-06))
8.584216      	((2.222879e-02 -1.996185e-02 -4.521443e-02) (4.570621e-04 -3.156949e-03 -1.111399e-03)) ((4.430792e-07 3.359142e-07 9.582616e-08) (-1.148404e-04 -1.903872e-05 -5.901888e-06))
8.709795      	((2.253887e-02 -2.075573e-02 -4.587855e-02) (4.829788e-04 -3.190541e-03 -1.103030e-03)) ((4.523974e-07 3.315045e-07 9.743499e-08) (-1.161892e-04 -1.999772e-05 -5.980291e-06))
8.835368      	((2.245544e-02 -2.134967e-02 -4.655281e-02) (5.046062e-04 -3.223434e-03 -1.094694e-03)) ((4.591479e-07 3.197840e-07 9.764002e-08) (-1.175073e-04 -2.078452e-05 -6.005946e-06))
8.960937      	((2.192777e-02 -2.170381e-02 -4.717505e-02) (5.200576e-04 -3.253198e-03 -1.086620e-03)) ((4.638542e-07 3.012904e-07 9.699807e-08) (-1.187183e-04 -2.133272e-05 -6.002985e-06))
9.086511      	((2.091715e-02 -2.177650e-02 -4.775394e-02) (5.272248e-04 -3.278355e-03 -1.078761e-03)) ((4.661164e-07 2.762592e-07 9.603315e-08) (-1.197662e-04 -2.156593e-05 -5.975487e-06))
9.212109      	((1.941333e-02 -2.151346e-02 -4.828710e-02) (5.243306e-04 -3.298128e-03 -1.071055e-03)) ((4.668071e-07 2.454282e-07 9.547622e-08) (-1.206146e-04 -2.140706e-05 -5.918387e-06))
9.33776       	((1.738362e-02 -2.090547e-02 -4.878473e-02) (5.101125e-04 -3.311771e-03 -1.063344e-03)) ((4.660766e-07 2.064333e-07 9.449936e-08) (-1.212469e-04 -2.079078e-05 -5.813155e-06))
9.463501      	((1.495016e-02 -2.002937e-02 -4.922984e-02) (4.831197e-04 -3.319303e-03 -1.056481e-03)) ((4.616825e-07 1.626800e-07 9.293713e-08) (-1.216349e-04 -1.969476e-05 -5.672294e-06))
9.589368      	((1.221142e-02 -1.907761e-02 -4.968828e-02) (4.431614e-04 -3.321709e-03 -1.051685e-03)) ((4.555968e-07 1.188600e-07 9.055876e-08) (-1.217838e-04 -1.816020e-05 -5.513087e-06))
9.71538       	((9.366314e-03 -1.818332e-02 -5.025959e-02) (3.927399e-04 -3.320492e-03 -1.049692e-03)) ((4.508645e-07 7.706773e-08 8.464976e-08) (-1.217256e-04 -1.630164e-05 -5.323558e-06))
9.841558      	((6.749324e-03 -1.737885e-02 -5.082088e-02) (3.357738e-04 -3.317188e-03 -1.051237e-03)) ((4.477959e-07 4.073943e-08 7.344521e-08) (-1.214831e-04 -1.426964e-05 -5.094154e-06))
9.967923      	((4.587163e-03 -1.666950e-02 -5.136695e-02) (2.772907e-04 -3.312999e-03 -1.056606e-03)) ((4.459917e-07 1.108646e-08 5.999325e-08) (-1.210904e-04 -1.222450e-05 -4.831431e-06))
10.094486     	((2.847872e-03 -1.614306e-02 -5.189194e-02) (2.204295e-04 -3.309427e-03 -1.063680e-03)) ((4.459235e-07 -1.108498e-08 5.104457e-08) (-1.206594e-04 -1.026483e-05 -4.561150e-06))
10.221251     	((1.717033e-03 -1.572752e-02 -5.229573e-02) (1.681479e-04 -3.306491e-03 -1.070362e-03)) ((4.430888e-07 -2.251936e-08 5.028881e-08) (-1.202585e-04 -8.465710e-06 -4.331331e-06))
10.348212     	((1.107736e-03 -1.543159e-02 -5.257214e-02) (1.232799e-04 -3.304110e-03 -1.075246e-03)) ((4.408706e-07 -2.865536e-08 5.364899e-08) (-1.199385e-04 -6.893134e-06 -4.157980e-06))
10.475356     	((8.471131e-04 -1.519956e-02 -5.269545e-02) (8.530745e-05 -3.302764e-03 -1.076679e-03)) ((4.420337e-07 -3.420820e-08 5.739962e-08) (-1.197656e-04 -5.523834e-06 -4.084854e-06))
10.60267      	((8.846003e-04 -1.498095e-02 -5.270747e-02) (5.265803e-05 -3.302202e-03 -1.074099e-03)) ((4.431981e-07 -3.801914e-08 6.156122e-08) (-1.197611e-04 -4.320749e-06 -4.180150e-06))
10.730131     	((1.093087e-03 -1.471333e-02 -5.265954e-02) (2.486379e-05 -3.301984e-03 -1.068700e-03)) ((4.449982e-07 -4.077082e-08 6.575269e-08) (-1.198848e-04 -3.258318e-06 -4.427174e-06))
10.857718     	((1.351271e-03 -1.435822e-02 -5.260056e-02) (2.731782e-06 -3.300750e-03 -1.063183e-03)) ((4.465415e-07 -3.906895e-08 7.053824e-08) (-1.200308e-04 -2.354084e-06 -4.709759e-06))
10.985407     	((1.615744e-03 -1.382959e-02 -5.248118e-02) (-1.166871e-05 -3.296699e-03 -1.060281e-03)) ((4.475299e-07 -2.778236e-08 7.392791e-08) (-1.200688e-04 -1.685692e-06 -4.863048e-06))
11.113181     	((1.870765e-03 -1.322396e-02 -5.230431e-02) (-1.678892e-05 -3.288836e-03 -1.061496e-03)) ((4.474791e-07 -8.375889e-09 7.319380e-08) (-1.199036e-04 -1.319878e-06 -4.765040e-06))
11.24102      	((2.134838e-03 -1.274210e-02 -5.207007e-02) (-1.251872e-05 -3.277448e-03 -1.067300e-03)) ((4.417010e-07 1.429528e-08 6.938491e-08) (-1.194836e-04 -1.264292e-06 -4.388051e-06))
11.368904     	((2.413009e-03 -1.240769e-02 -5.174538e-02) (-2.521160e-06 -3.264655e-03 -1.077435e-03)) ((4.260442e-07 3.387307e-08 6.681882e-08) (-1.188108e-04 -1.428174e-06 -3.871361e-06))
