# Forces      
# CofR        : (0.000000e+00 0.000000e+00 0.000000e+00)
# Time        forces(pressure viscous)	moments(pressure viscous)
0             	((0.000000e+00 0.000000e+00 0.000000e+00) (0.000000e+00 0.000000e+00 0.000000e+00)) ((0.000000e+00 0.000000e+00 0.000000e+00) (0.000000e+00 0.000000e+00 0.000000e+00))
0.012         	((1.071022e-10 -2.398820e-08 3.089966e-10) (3.134748e-12 -2.688760e-10 1.405758e-12)) ((1.728831e-12 9.161989e-15 3.305771e-10) (-5.131901e-12 -1.366346e-13 6.712900e-07))
0.0264        	((-9.064859e-11 8.686179e-09 -7.961007e-10) (3.877075e-12 -2.869715e-10 1.216972e-12)) ((4.064685e-12 -2.120419e-14 9.969387e-11) (-9.115178e-12 -1.278048e-13 5.875511e-07))
0.04368       	((4.362885e-10 -4.406549e-09 1.193485e-10) (4.479262e-12 -1.872593e-10 2.188763e-12)) ((-1.851703e-12 1.761980e-14 5.269101e-11) (-7.636576e-12 -1.669584e-13 5.081817e-07))
0.064416      	((3.625697e-10 -4.056497e-10 -7.130515e-10) (2.934193e-12 -9.906156e-11 2.890257e-12)) ((5.397466e-13 1.769444e-14 3.574149e-11) (-3.789501e-12 -1.435234e-13 4.353781e-07))
0.0892992     	((4.894515e-10 -2.160975e-09 -7.043408e-10) (1.729302e-12 -6.173819e-11 4.366816e-12)) ((-5.614293e-13 6.743067e-14 2.896893e-11) (-1.786456e-12 -8.154162e-14 3.710785e-07))
0.119159      	((3.151162e-10 -2.192298e-10 -1.048708e-09) (2.886089e-12 -5.349742e-11 1.464497e-11)) ((-3.375002e-13 7.378126e-14 2.315693e-11) (6.592867e-13 -2.093233e-13 3.161352e-07))
0.154991      	((4.237401e-10 -1.849393e-09 -1.389537e-09) (6.983928e-13 -4.006046e-11 4.060096e-11)) ((-3.293115e-13 7.831759e-14 1.854757e-11) (2.501764e-12 -2.588637e-13 2.708486e-07))
0.197989      	((2.251598e-10 -1.429719e-09 -1.594606e-09) (-7.398854e-12 -2.251457e-11 9.921823e-11)) ((-2.700883e-13 6.483306e-14 1.462114e-11) (3.594206e-12 -7.049167e-14 2.344041e-07))
0.249587      	((5.309260e-10 -1.721847e-09 -1.876378e-09) (-1.432020e-11 -8.689101e-12 1.848876e-10)) ((-2.745625e-13 8.768387e-14 1.217539e-11) (3.135492e-12 3.227484e-13 2.053299e-07))
0.311504      	((6.628626e-10 -1.961948e-09 -1.949873e-09) (-1.825864e-11 2.107179e-12 2.860640e-10)) ((-2.117872e-13 5.739416e-14 1.083001e-11) (2.378727e-12 5.731731e-13 1.818842e-07))
0.385805      	((8.667392e-10 -2.575496e-09 -2.293165e-09) (-2.124039e-11 -4.411455e-15 3.986108e-10)) ((-1.352136e-13 5.689946e-14 9.485614e-12) (1.665600e-12 5.693515e-13 1.625102e-07))
0.474966      	((9.203588e-10 -3.185907e-09 -2.373841e-09) (-2.508296e-11 -5.470182e-13 5.209964e-10)) ((3.708792e-14 -3.172623e-15 8.329407e-12) (1.849330e-13 8.617959e-13 1.460529e-07))
0.581959      	((1.334999e-09 -3.884777e-09 -2.512140e-09) (-3.665137e-11 -1.556808e-11 6.615550e-10)) ((1.230104e-13 3.409468e-14 7.719729e-12) (-2.545888e-12 1.393511e-12 1.317453e-07))
0.710351      	((1.715610e-09 -3.760549e-09 -2.843792e-09) (-4.943713e-11 -4.526697e-11 8.373196e-10)) ((1.865623e-13 4.786689e-14 7.333180e-12) (-4.403332e-12 2.210640e-12 1.191015e-07))
0.864421      	((1.922783e-09 -3.005775e-09 -3.332646e-09) (-6.778271e-11 -1.228071e-11 1.019793e-09)) ((3.015527e-13 4.131952e-14 6.948624e-12) (-3.414112e-12 3.163629e-12 1.078121e-07))
1.049306      	((2.262015e-09 -2.710625e-09 -3.935472e-09) (-1.068450e-10 8.031269e-11 1.240459e-09)) ((3.937156e-13 2.960905e-14 6.568723e-12) (-5.905885e-13 3.918672e-12 9.768657e-08))
1.271167      	((1.869752e-09 -2.434586e-09 -4.495714e-09) (-1.954063e-10 1.800610e-10 1.509783e-09)) ((4.807931e-13 3.731545e-14 6.268037e-12) (1.971979e-12 6.006564e-12 8.862876e-08))
1.5374        	((1.230182e-09 -2.575118e-09 -5.022143e-09) (-3.398093e-10 2.883122e-10 1.791355e-09)) ((4.495347e-13 3.417398e-14 6.016634e-12) (4.525707e-12 9.315023e-12 8.059370e-08))
1.85688       	((7.996253e-10 -2.396726e-09 -5.556489e-09) (-5.094272e-10 3.824524e-10 2.057532e-09)) ((4.142295e-13 3.895166e-14 5.718777e-12) (7.654862e-12 1.304014e-11 7.353679e-08))
2.240256      	((3.769639e-10 -1.911397e-09 -6.452522e-09) (-6.747629e-10 4.744231e-10 2.350354e-09)) ((4.433437e-13 4.770986e-14 5.380877e-12) (1.146351e-11 1.696536e-11 6.738311e-08))
2.700307      	((1.820477e-10 -1.472679e-09 -7.269508e-09) (-8.339374e-10 6.142861e-10 2.695324e-09)) ((4.323400e-13 -1.677856e-15 5.060891e-12) (1.670757e-11 2.154706e-11 6.202389e-08))
3.252369      	((-2.266628e-10 -7.451355e-10 -7.970954e-09) (-9.751142e-10 7.741693e-10 3.069317e-09)) ((3.629759e-13 -6.636574e-14 4.707713e-12) (2.135012e-11 2.704930e-11 5.732836e-08))
3.914842      	((-3.282986e-10 -2.380617e-10 -8.842994e-09) (-1.048955e-09 9.369660e-10 3.471451e-09)) ((2.724678e-13 -8.261978e-14 4.368078e-12) (2.461588e-11 3.031441e-11 5.316657e-08))
4.709811      	((-5.215630e-10 1.516964e-10 -9.916517e-09) (-1.075904e-09 1.029816e-09 3.950192e-09)) ((2.371717e-13 -8.720830e-14 4.057145e-12) (2.514658e-11 3.183435e-11 4.942998e-08))
5.663773      	((-4.685222e-10 3.117123e-10 -1.099049e-08) (-1.043865e-09 1.021943e-09 4.499227e-09)) ((1.998053e-13 -1.085854e-13 3.750907e-12) (2.384954e-11 3.150569e-11 4.603875e-08))
6.808528      	((-4.431772e-10 1.347511e-10 -1.239767e-08) (-9.448324e-10 9.267810e-10 5.076129e-09)) ((1.694225e-13 -1.041305e-13 3.482319e-12) (2.114474e-11 2.946145e-11 4.293558e-08))
8.182233      	((-1.127524e-10 1.687269e-10 -1.349095e-08) (-8.124015e-10 7.915982e-10 5.702397e-09)) ((1.203082e-13 -1.302174e-13 3.216229e-12) (1.853337e-11 2.629081e-11 4.007973e-08))
9.83068       	((-2.866084e-10 -2.493784e-10 -1.492252e-08) (-6.572142e-10 6.348510e-10 6.366733e-09)) ((9.706582e-14 -1.841981e-13 2.974244e-12) (1.523876e-11 2.241932e-11 3.744891e-08))
11.808816     	((7.995358e-11 -4.715278e-10 -1.627247e-08) (-5.047263e-10 4.922575e-10 7.055977e-09)) ((6.041956e-14 -1.939955e-13 2.753969e-12) (1.024427e-11 1.753248e-11 3.502577e-08))
14.182579     	((1.828977e-10 -2.962564e-10 -1.776340e-08) (-3.714770e-10 3.820026e-10 7.799913e-09)) ((-2.037507e-14 -1.983509e-13 2.541091e-12) (6.609866e-12 1.356246e-11 3.279758e-08))
17.031095     	((1.951441e-10 -2.276940e-10 -1.938069e-08) (-2.801621e-10 2.966161e-10 8.581340e-09)) ((-6.313725e-14 -1.987086e-13 2.351957e-12) (4.880183e-12 1.114264e-11 3.075541e-08))
20.449314     	((2.574742e-10 -3.210375e-10 -2.109244e-08) (-2.217584e-10 2.549557e-10 9.396940e-09)) ((-8.596263e-14 -1.987113e-13 2.180793e-12) (4.588205e-12 9.292975e-12 2.889157e-08))
24.551176     	((1.365472e-10 -2.681391e-10 -2.303014e-08) (-1.961452e-10 2.496250e-10 1.022897e-08)) ((-1.106431e-13 -2.047095e-13 2.029503e-12) (5.731122e-12 8.271058e-12 2.719364e-08))
29.473411     	((5.874470e-11 -3.143796e-10 -2.510529e-08) (-2.084097e-10 2.777013e-10 1.111852e-08)) ((-1.227021e-13 -2.147594e-13 1.897262e-12) (7.340760e-12 8.296192e-12 2.564600e-08))
35.380094     	((2.436440e-11 -2.479780e-10 -2.756070e-08) (-2.390294e-10 3.336543e-10 1.208214e-08)) ((-1.309032e-13 -2.247362e-13 1.778942e-12) (9.532765e-12 9.255172e-12 2.423490e-08))
42.468112     	((2.902645e-11 -2.845320e-10 -3.004995e-08) (-2.748302e-10 3.894575e-10 1.317769e-08)) ((-1.365248e-13 -2.361048e-13 1.671653e-12) (1.150804e-11 1.035804e-11 2.294768e-08))
50.973735     	((-2.455410e-11 -2.650350e-10 -3.239961e-08) (-3.177465e-10 4.392435e-10 1.440935e-08)) ((-1.411645e-13 -2.492556e-13 1.572266e-12) (1.280476e-11 1.143023e-11 2.177318e-08))
61.180482     	((-1.079360e-10 -2.817619e-10 -3.469089e-08) (-3.691671e-10 4.755042e-10 1.577461e-08)) ((-1.339900e-13 -2.616679e-13 1.480844e-12) (1.341362e-11 1.258347e-11 2.070120e-08))
73.428578     	((-1.740173e-10 -2.941718e-10 -3.692466e-08) (-4.179362e-10 4.935600e-10 1.724021e-08)) ((-1.243322e-13 -2.722893e-13 1.397345e-12) (1.294008e-11 1.405506e-11 1.972298e-08))
88.126294     	((-2.054634e-10 -2.570843e-10 -3.908065e-08) (-4.678452e-10 4.946008e-10 1.877584e-08)) ((-1.226325e-13 -2.788319e-13 1.321708e-12) (1.204867e-11 1.534739e-11 1.883127e-08))
105.763553    	((-2.169553e-10 -2.005375e-10 -4.126232e-08) (-5.085622e-10 4.873170e-10 2.036173e-08)) ((-1.276238e-13 -2.773976e-13 1.253666e-12) (1.145983e-11 1.609898e-11 1.801971e-08))
126.928263    	((-2.339174e-10 -1.388395e-10 -4.346613e-08) (-5.369085e-10 4.781859e-10 2.199375e-08)) ((-1.340205e-13 -2.763471e-13 1.193412e-12) (1.126412e-11 1.633384e-11 1.728181e-08))
152.325916    	((-2.328241e-10 -1.420672e-10 -4.565123e-08) (-5.528791e-10 4.642219e-10 2.365067e-08)) ((-1.332029e-13 -2.684266e-13 1.139222e-12) (1.103934e-11 1.620577e-11 1.661136e-08))
182.803099    	((-2.675136e-10 -1.812255e-10 -4.772987e-08) (-5.666305e-10 4.449910e-10 2.530720e-08)) ((-1.335425e-13 -2.650069e-13 1.088937e-12) (1.039139e-11 1.607260e-11 1.600241e-08))
219.375719    	((-2.978079e-10 -1.926319e-10 -4.979487e-08) (-5.765410e-10 4.179944e-10 2.697021e-08)) ((-1.382254e-13 -2.669507e-13 1.043652e-12) (9.468193e-12 1.606176e-11 1.544895e-08))
263.262863    	((-3.025454e-10 -2.028925e-10 -5.185598e-08) (-5.818804e-10 3.865694e-10 2.863290e-08)) ((-1.432666e-13 -2.698441e-13 1.002894e-12) (8.284716e-12 1.602851e-11 1.494600e-08))
315.927436    	((-3.173512e-10 -2.424906e-10 -5.390027e-08) (-5.774102e-10 3.555703e-10 3.031201e-08)) ((-1.444369e-13 -2.735898e-13 9.653165e-13) (7.176023e-12 1.588979e-11 1.448924e-08))
379.124923    	((-2.837148e-10 -2.658020e-10 -5.582414e-08) (-5.654272e-10 3.222261e-10 3.202398e-08)) ((-1.423195e-13 -2.779675e-13 9.293899e-13) (5.974834e-12 1.555832e-11 1.407475e-08))
454.961908    	((-2.631213e-10 -2.761413e-10 -5.761448e-08) (-5.457850e-10 2.872990e-10 3.377035e-08)) ((-1.389065e-13 -2.892887e-13 8.936521e-13) (4.577809e-12 1.508318e-11 1.369956e-08))
543.61928     	((-2.370801e-10 -2.735578e-10 -5.930807e-08) (-5.158987e-10 2.531616e-10 3.553356e-08)) ((-1.340120e-13 -3.009369e-13 8.631556e-13) (3.226110e-12 1.434190e-11 1.336238e-08))
645.095519    	((-2.212899e-10 -2.777838e-10 -6.089810e-08) (-4.795745e-10 2.209969e-10 3.729289e-08)) ((-1.292148e-13 -3.124973e-13 8.357121e-13) (1.950954e-12 1.332956e-11 1.306110e-08))
759.389193    	((-1.997195e-10 -2.712807e-10 -6.234545e-08) (-4.417815e-10 1.904896e-10 3.902790e-08)) ((-1.248624e-13 -3.233424e-13 8.118616e-13) (9.130030e-13 1.217252e-11 1.279334e-08))
886.499013    	((-1.942476e-10 -2.594312e-10 -6.363635e-08) (-4.038332e-10 1.631081e-10 4.072437e-08)) ((-1.229309e-13 -3.326741e-13 7.902357e-13) (1.251217e-13 1.093061e-11 1.255600e-08))
1014.648348   	((-1.965005e-10 -2.518372e-10 -6.482071e-08) (-3.689844e-10 1.392745e-10 4.234729e-08)) ((-1.198636e-13 -3.414193e-13 7.715228e-13) (-5.577973e-13 9.714939e-12 1.234774e-08))
1142.785109   	((-1.977679e-10 -2.487727e-10 -6.584522e-08) (-3.363021e-10 1.217273e-10 4.387976e-08)) ((-1.178054e-13 -3.485132e-13 7.553902e-13) (-9.863926e-13 8.630211e-12 1.216524e-08))
1270.912774   	((-1.969326e-10 -2.490373e-10 -6.673615e-08) (-3.068652e-10 1.087090e-10 4.530883e-08)) ((-1.154672e-13 -3.532473e-13 7.407546e-13) (-1.188813e-12 7.655471e-12 1.200552e-08))
1399.032372   	((-1.985446e-10 -2.465455e-10 -6.750969e-08) (-2.784335e-10 9.964301e-11 4.664269e-08)) ((-1.136479e-13 -3.580933e-13 7.273897e-13) (-1.239626e-12 6.840351e-12 1.186527e-08))
1527.148272   	((-2.014613e-10 -2.458076e-10 -6.818746e-08) (-2.544693e-10 9.413766e-11 4.788716e-08)) ((-1.113613e-13 -3.622702e-13 7.159905e-13) (-1.174056e-12 6.196068e-12 1.174195e-08))
1655.260887   	((-2.049645e-10 -2.452989e-10 -6.878362e-08) (-2.354614e-10 9.247670e-11 4.905237e-08)) ((-1.087858e-13 -3.658464e-13 7.055246e-13) (-1.053547e-12 5.687203e-12 1.163309e-08))
1783.372535   	((-2.056063e-10 -2.433873e-10 -6.931492e-08) (-2.189653e-10 9.402527e-11 5.014182e-08)) ((-1.063959e-13 -3.691776e-13 6.964908e-13) (-8.875517e-13 5.288351e-12 1.153668e-08))
1911.486391   	((-2.115129e-10 -2.407834e-10 -6.978989e-08) (-2.059589e-10 9.639157e-11 5.116041e-08)) ((-1.043030e-13 -3.730460e-13 6.886614e-13) (-7.067570e-13 5.024248e-12 1.145102e-08))
2039.603344   	((-2.127202e-10 -2.422674e-10 -7.021211e-08) (-1.952736e-10 9.880319e-11 5.211301e-08)) ((-1.017465e-13 -3.766890e-13 6.816929e-13) (-5.213564e-13 4.829851e-12 1.137474e-08))
2167.7243     	((-2.092666e-10 -2.439756e-10 -7.058642e-08) (-1.870262e-10 1.016100e-10 5.300649e-08)) ((-9.980304e-14 -3.799477e-13 6.756196e-13) (-3.100562e-13 4.674154e-12 1.130661e-08))
2295.851602   	((-2.068993e-10 -2.461324e-10 -7.092249e-08) (-1.803480e-10 1.042495e-10 5.384754e-08)) ((-9.883050e-14 -3.832402e-13 6.699896e-13) (-8.182536e-14 4.556985e-12 1.124558e-08))
2423.986974   	((-2.050002e-10 -2.463880e-10 -7.122560e-08) (-1.736685e-10 1.069270e-10 5.463981e-08)) ((-9.785978e-14 -3.858520e-13 6.649957e-13) (1.393502e-13 4.451653e-12 1.119077e-08))
2552.131558   	((-2.038251e-10 -2.467979e-10 -7.150379e-08) (-1.681404e-10 1.095936e-10 5.538640e-08)) ((-9.709000e-14 -3.883180e-13 6.605053e-13) (3.494299e-13 4.342713e-12 1.114142e-08))
2680.28436    	((-2.025338e-10 -2.472476e-10 -7.175775e-08) (-1.628978e-10 1.117032e-10 5.609119e-08)) ((-9.657191e-14 -3.907833e-13 6.564143e-13) (5.526160e-13 4.241994e-12 1.109687e-08))
2808.446589   	((-2.008183e-10 -2.493817e-10 -7.199114e-08) (-1.586755e-10 1.133137e-10 5.675694e-08)) ((-9.593852e-14 -3.934238e-13 6.526407e-13) (7.366354e-13 4.161729e-12 1.105656e-08))
2936.619275   	((-1.993727e-10 -2.513410e-10 -7.220475e-08) (-1.549842e-10 1.149301e-10 5.738566e-08)) ((-9.514961e-14 -3.962578e-13 6.490536e-13) (8.958922e-13 4.106196e-12 1.101999e-08))
3064.803209   	((-1.980077e-10 -2.529046e-10 -7.240336e-08) (-1.518641e-10 1.161338e-10 5.797884e-08)) ((-9.429799e-14 -3.990147e-13 6.456869e-13) (1.036071e-12 4.070921e-12 1.098673e-08))
