# Forces      
# CofR        : (0.000000e+00 0.000000e+00 0.000000e+00)
# Time        forces(pressure viscous)	moments(pressure viscous)
0             	((0.000000e+00 0.000000e+00 0.000000e+00) (-7.767433e-11 -1.375591e-13 -7.967926e-06)) ((0.000000e+00 0.000000e+00 0.000000e+00) (1.532933e-14 -7.854709e-13 1.864812e-16))
0.012         	((-4.120754e-07 -1.967199e-07 -6.087992e-03) (-3.860226e-10 -1.864929e-10 -7.812127e-06)) ((3.070462e-11 -1.580677e-08 -7.907995e-13) (-1.462119e-11 2.886195e-11 -1.297902e-14))
0.0264        	((2.244336e-07 5.052954e-08 4.234784e-04) (-5.042472e-10 -2.312025e-10 -7.443152e-06)) ((-6.592963e-12 1.029080e-09 3.205458e-12) (-1.493420e-11 1.390506e-11 8.638963e-13))
0.04368       	((1.913360e-07 3.230818e-07 7.905020e-04) (-4.323477e-10 1.273602e-11 -6.732809e-06)) ((-1.961932e-11 1.702328e-09 -9.033084e-12) (8.897541e-12 -5.294400e-11 1.875239e-12))
0.064416      	((1.987077e-07 2.506112e-08 1.375909e-04) (-4.314173e-10 2.037326e-10 -6.054326e-06)) ((-1.590492e-12 5.522152e-10 -4.106141e-13) (2.928933e-11 -9.310866e-11 7.026000e-13))
0.0892992     	((5.100376e-08 1.257066e-08 7.456494e-05) (-2.085069e-10 2.953812e-10 -5.614182e-06)) ((-2.898616e-12 3.267810e-10 4.126392e-13) (3.470383e-11 -9.926430e-11 -3.876991e-13))
0.119159      	((1.271927e-08 6.888661e-09 6.065563e-05) (-2.946704e-11 3.655639e-10 -5.212814e-06)) ((-6.035883e-13 2.161267e-10 6.248425e-13) (3.283961e-11 -1.082173e-10 -5.295321e-13))
0.154991      	((-2.225673e-10 -4.459343e-09 3.397707e-05) (-7.223227e-12 3.507143e-10 -4.770824e-06)) ((-1.015141e-12 1.487067e-10 9.173859e-13) (2.895864e-11 -1.125330e-10 -1.001772e-12))
0.197989      	((4.574311e-09 -7.077995e-09 2.196656e-05) (5.096786e-11 3.163141e-10 -4.320755e-06)) ((-1.124071e-12 1.025427e-10 1.459636e-13) (2.486428e-11 -1.107495e-10 -1.265163e-12))
0.249587      	((4.968510e-09 -3.229312e-09 1.582753e-05) (6.223372e-11 2.620716e-10 -3.876402e-06)) ((-4.988013e-13 7.387888e-11 1.042235e-13) (1.951238e-11 -1.070169e-10 -1.131070e-12))
0.311504      	((1.261233e-09 -2.197967e-09 1.135756e-05) (2.175691e-11 1.905696e-10 -3.448961e-06)) ((-1.933855e-13 5.461116e-11 3.170426e-13) (1.503606e-11 -1.017722e-10 -8.378034e-13))
0.385805      	((-1.322674e-09 -9.255475e-10 8.134284e-06) (-2.053513e-11 1.226826e-10 -3.050181e-06)) ((-1.191887e-13 4.115560e-11 1.157981e-13) (1.190557e-11 -9.432406e-11 -5.844220e-13))
0.474966      	((-1.782147e-09 -6.432057e-10 5.876314e-06) (-2.447182e-11 8.079631e-11 -2.689809e-06)) ((-1.277048e-13 3.184329e-11 1.711112e-13) (1.034028e-11 -8.790335e-11 -3.872844e-13))
0.581959      	((-4.050547e-10 -9.822433e-11 4.284883e-06) (-3.825981e-11 5.871293e-11 -2.372597e-06)) ((-1.002054e-13 2.515944e-11 3.903516e-14) (9.898606e-12 -7.815465e-11 -3.353193e-13))
0.710351      	((3.564368e-10 2.484587e-10 3.136439e-06) (8.292252e-12 4.280668e-11 -2.100429e-06)) ((-1.115252e-13 2.015313e-11 3.357064e-14) (9.760873e-12 -7.156062e-11 -3.613399e-13))
0.864421      	((8.189592e-11 8.092300e-10 2.297663e-06) (9.783339e-11 5.290981e-11 -1.871137e-06)) ((-1.577371e-13 1.632472e-11 1.862827e-14) (1.020510e-11 -6.459620e-11 -3.435910e-13))
1.049306      	((4.844436e-10 8.834411e-10 1.684785e-06) (1.799760e-10 6.979965e-11 -1.678626e-06)) ((-1.631484e-13 1.366201e-11 2.943864e-15) (1.056025e-11 -5.773695e-11 -2.934195e-13))
1.271167      	((7.700690e-10 1.339316e-09 1.238472e-06) (2.162383e-10 7.014293e-11 -1.516446e-06)) ((-2.200602e-13 1.165133e-11 1.980730e-14) (1.013528e-11 -5.103637e-11 -2.532433e-13))
1.5374        	((2.043697e-09 2.404376e-09 9.067339e-07) (2.207237e-10 7.928279e-11 -1.378652e-06)) ((-3.591704e-13 1.025516e-11 1.683771e-14) (1.002485e-11 -4.544023e-11 -2.358410e-13))
1.85688       	((2.636999e-09 3.202579e-09 6.658155e-07) (2.040422e-10 9.435775e-11 -1.259535e-06)) ((-4.597315e-13 9.159584e-12 1.874801e-14) (1.127650e-11 -4.166469e-11 -2.006155e-13))
2.240256      	((4.921111e-09 5.373269e-09 4.901766e-07) (2.191146e-10 1.244138e-10 -1.155126e-06)) ((-7.852969e-13 8.635725e-12 9.849245e-16) (1.557762e-11 -4.164345e-11 -1.876335e-13))
2.700307      	((5.130341e-09 5.572123e-09 3.594542e-07) (2.558871e-10 1.776505e-10 -1.062621e-06)) ((-9.003026e-13 8.096092e-12 -9.216059e-15) (2.186838e-11 -4.342666e-11 -2.021577e-13))
3.252369      	((4.952631e-09 5.232052e-09 2.600717e-07) (2.954368e-10 2.383620e-10 -9.795604e-07)) ((-9.245869e-13 7.557480e-12 -1.485161e-14) (2.817580e-11 -4.591150e-11 -1.937603e-13))
3.914842      	((3.747753e-09 3.986360e-09 1.822006e-07) (3.193673e-10 2.728504e-10 -9.045435e-07)) ((-8.178436e-13 7.019767e-12 -2.575126e-15) (3.293152e-11 -4.798543e-11 -1.264216e-13))
4.709811      	((2.400549e-09 2.346123e-09 1.176160e-07) (2.956956e-10 2.722958e-10 -8.362795e-07)) ((-6.472282e-13 6.500112e-12 1.372666e-14) (3.538637e-11 -4.799999e-11 -2.421567e-13))
5.663773      	((5.973508e-10 6.167055e-10 6.370045e-08) (2.757629e-10 2.629814e-10 -7.737285e-07)) ((-4.164976e-13 5.959680e-12 2.377913e-14) (3.661391e-11 -4.786937e-11 -1.335830e-13))
6.808528      	((-7.889967e-10 -7.257132e-10 2.014569e-08) (2.090206e-10 1.950681e-10 -7.169401e-07)) ((-1.858335e-13 5.443497e-12 3.071342e-14) (3.382317e-11 -4.423464e-11 -1.112126e-13))
8.182233      	((-7.324907e-10 -5.860862e-10 -1.430849e-08) (1.571787e-10 1.482788e-10 -6.662839e-07)) ((-9.671505e-14 5.109467e-12 2.327182e-14) (3.070358e-11 -3.892147e-11 -1.774701e-13))
9.83068       	((-3.434854e-10 -1.623308e-10 -3.942592e-08) (1.578224e-10 1.473701e-10 -6.216683e-07)) ((-8.240388e-14 4.902597e-12 3.931446e-14) (2.812437e-11 -3.470377e-11 -2.161883e-13))
11.808816     	((-9.100403e-11 1.398141e-10 -5.687371e-08) (1.530833e-10 1.382175e-10 -5.826656e-07)) ((-8.557957e-14 4.753586e-12 3.093164e-14) (2.493772e-11 -2.950822e-11 -2.798724e-13))
14.182579     	((-2.178591e-10 -4.039008e-12 -6.938239e-08) (1.409916e-10 1.342586e-10 -5.488029e-07)) ((-6.966620e-14 4.618109e-12 3.250586e-14) (2.224414e-11 -2.516556e-11 -2.694053e-13))
17.031095     	((-3.860294e-10 -1.774179e-10 -7.870276e-08) (1.174375e-10 1.111763e-10 -5.194324e-07)) ((-5.763583e-14 4.516685e-12 3.524700e-14) (1.870461e-11 -2.091060e-11 -1.856420e-13))
20.449314     	((-1.090277e-10 7.665733e-11 -8.563801e-08) (1.038327e-10 8.936299e-11 -4.938789e-07)) ((-7.207503e-14 4.462468e-12 3.286317e-14) (1.601101e-11 -1.762949e-11 -1.641549e-13))
24.551176     	((-3.083830e-10 -8.258304e-11 -9.214507e-08) (9.683744e-11 8.318862e-11 -4.714263e-07)) ((-2.505852e-14 4.325255e-12 3.315916e-14) (1.501532e-11 -1.603859e-11 -1.906253e-13))
29.473411     	((-5.743500e-10 -4.301263e-10 -9.669021e-08) (8.819430e-11 6.900000e-11 -4.513774e-07)) ((4.912505e-14 4.178367e-12 2.794258e-14) (1.477659e-11 -1.576795e-11 -8.669424e-14))
35.380094     	((-2.178359e-10 -9.388121e-11 -9.934948e-08) (9.793761e-11 7.248876e-11 -4.332457e-07)) ((8.105496e-14 4.061607e-12 3.002588e-14) (1.571066e-11 -1.702678e-11 -9.881238e-14))
42.468112     	((-1.893855e-10 -2.563554e-11 -1.012656e-07) (1.155300e-10 8.479882e-11 -4.167592e-07)) ((9.877357e-14 3.951212e-12 2.557684e-14) (1.721861e-11 -1.845384e-11 -2.216247e-13))
50.973735     	((-1.184945e-10 4.035495e-11 -1.030619e-07) (1.374665e-10 1.038966e-10 -4.018311e-07)) ((1.108849e-13 3.854179e-12 2.001465e-14) (1.900058e-11 -1.945236e-11 -2.389747e-13))
61.180482     	((1.306488e-10 2.341884e-10 -1.051295e-07) (1.713986e-10 1.333341e-10 -3.884835e-07)) ((1.259840e-13 3.768918e-12 1.475789e-14) (2.090557e-11 -2.113351e-11 -1.969674e-13))
73.428578     	((1.719144e-10 2.487484e-10 -1.073773e-07) (2.029900e-10 1.557896e-10 -3.766906e-07)) ((1.390347e-13 3.698179e-12 1.216416e-14) (2.246097e-11 -2.283562e-11 -1.966349e-13))
88.126294     	((2.293422e-10 2.935081e-10 -1.097740e-07) (2.272395e-10 1.752199e-10 -3.663773e-07)) ((1.392002e-13 3.653181e-12 7.972417e-15) (2.390429e-11 -2.444192e-11 -2.086941e-13))
105.763553    	((2.637672e-10 3.216215e-10 -1.126055e-07) (2.481458e-10 1.962431e-10 -3.574817e-07)) ((1.405221e-13 3.611410e-12 6.418897e-15) (2.572902e-11 -2.596240e-11 -1.745982e-13))
126.928263    	((2.151642e-10 2.777199e-10 -1.152557e-07) (2.619466e-10 2.133053e-10 -3.498646e-07)) ((1.446612e-13 3.575807e-12 5.921673e-15) (2.752088e-11 -2.736150e-11 -9.897673e-14))
152.325916    	((1.825715e-10 2.440212e-10 -1.170692e-07) (2.760963e-10 2.288652e-10 -3.433847e-07)) ((1.472902e-13 3.552201e-12 7.474313e-15) (2.893786e-11 -2.865085e-11 -4.058911e-14))
182.803099    	((1.331048e-10 2.073438e-10 -1.179730e-07) (2.867890e-10 2.401789e-10 -3.378673e-07)) ((1.498132e-13 3.534379e-12 5.292860e-15) (2.979090e-11 -2.959316e-11 -1.431203e-14))
219.375719    	((8.108380e-11 1.598244e-10 -1.178149e-07) (2.853829e-10 2.405338e-10 -3.331425e-07)) ((1.536989e-13 3.519878e-12 8.042127e-15) (2.997602e-11 -2.977373e-11 -1.010730e-15))
263.262863    	((3.987738e-11 1.214259e-10 -1.169329e-07) (2.798102e-10 2.362233e-10 -3.291063e-07)) ((1.592039e-13 3.510148e-12 9.063571e-15) (2.979974e-11 -2.954149e-11 3.899292e-15))
315.927436    	((-2.270937e-12 8.318944e-11 -1.157434e-07) (2.729099e-10 2.306811e-10 -3.256886e-07)) ((1.646949e-13 3.505362e-12 9.103185e-15) (2.957408e-11 -2.930031e-11 3.120578e-14))
379.124923    	((1.520650e-12 8.874431e-11 -1.140781e-07) (2.691079e-10 2.282829e-10 -3.228362e-07)) ((1.705863e-13 3.504621e-12 9.196336e-15) (2.941810e-11 -2.913973e-11 4.969827e-14))
454.961908    	((3.146193e-11 1.118627e-10 -1.123571e-07) (2.706430e-10 2.294030e-10 -3.204946e-07)) ((1.750106e-13 3.505041e-12 8.264780e-15) (2.943270e-11 -2.915822e-11 6.910500e-14))
545.966289    	((3.907507e-11 1.156715e-10 -1.108774e-07) (2.748128e-10 2.338316e-10 -3.185806e-07)) ((1.780651e-13 3.505251e-12 7.159780e-15) (2.959489e-11 -2.935008e-11 8.442890e-14))
655.171547    	((4.090480e-11 1.161089e-10 -1.095682e-07) (2.813496e-10 2.405813e-10 -3.170127e-07)) ((1.809747e-13 3.505250e-12 7.070247e-15) (2.979151e-11 -2.956471e-11 9.755831e-14))
784.721763    	((4.561219e-11 1.203864e-10 -1.084076e-07) (2.884713e-10 2.473782e-10 -3.157428e-07)) ((1.836529e-13 3.505814e-12 7.113395e-15) (2.997659e-11 -2.974152e-11 1.067381e-13))
934.604951    	((5.379788e-11 1.313947e-10 -1.075865e-07) (2.944190e-10 2.530626e-10 -3.147406e-07)) ((1.859707e-13 3.506431e-12 7.458924e-15) (3.020866e-11 -2.995785e-11 1.080948e-13))
1104.811665   	((5.805208e-11 1.380666e-10 -1.069211e-07) (2.993579e-10 2.580600e-10 -3.139725e-07)) ((1.883071e-13 3.506392e-12 7.272550e-15) (3.051954e-11 -3.025929e-11 1.054308e-13))
1295.334605   	((6.010284e-11 1.413573e-10 -1.063993e-07) (3.031592e-10 2.618585e-10 -3.133985e-07)) ((1.904358e-13 3.506245e-12 6.948876e-15) (3.084330e-11 -3.058597e-11 1.021487e-13))
1498.441488   	((6.131888e-11 1.430947e-10 -1.060613e-07) (3.058734e-10 2.646632e-10 -3.129777e-07)) ((1.918061e-13 3.506286e-12 6.985573e-15) (3.116896e-11 -3.090754e-11 1.004380e-13))
1701.508396   	((5.933604e-11 1.418126e-10 -1.058999e-07) (3.077117e-10 2.666032e-10 -3.126746e-07)) ((1.925042e-13 3.506430e-12 7.161837e-15) (3.145714e-11 -3.119743e-11 9.917873e-14))
1904.54874    	((5.466097e-11 1.376243e-10 -1.058099e-07) (3.085994e-10 2.675992e-10 -3.124576e-07)) ((1.930767e-13 3.506317e-12 7.348823e-15) (3.168629e-11 -3.142996e-11 9.837716e-14))
2107.570475   	((4.776023e-11 1.312277e-10 -1.057796e-07) (3.088202e-10 2.678431e-10 -3.123026e-07)) ((1.935080e-13 3.506104e-12 7.596051e-15) (3.185968e-11 -3.160553e-11 9.785329e-14))
2310.579169   	((4.033608e-11 1.242024e-10 -1.057850e-07) (3.085834e-10 2.676641e-10 -3.121913e-07)) ((1.938017e-13 3.505868e-12 7.789741e-15) (3.198837e-11 -3.173531e-11 9.653554e-14))
2513.578604   	((3.336536e-11 1.177438e-10 -1.058204e-07) (3.081669e-10 2.673207e-10 -3.121109e-07)) ((1.939908e-13 3.505613e-12 7.909218e-15) (3.208469e-11 -3.183207e-11 9.570973e-14))
2716.571389   	((2.664697e-11 1.117579e-10 -1.058753e-07) (3.077176e-10 2.669494e-10 -3.120525e-07)) ((1.941509e-13 3.505325e-12 7.998097e-15) (3.215845e-11 -3.190540e-11 9.469092e-14))
2919.559328   	((2.032577e-11 1.060763e-10 -1.059145e-07) (3.072686e-10 2.666029e-10 -3.120100e-07)) ((1.942643e-13 3.505115e-12 8.050055e-15) (3.221468e-11 -3.195949e-11 9.333630e-14))
3122.543718   	((1.479872e-11 1.011620e-10 -1.059927e-07) (3.068467e-10 2.662974e-10 -3.119789e-07)) ((1.943243e-13 3.504818e-12 8.092442e-15) (3.225614e-11 -3.199781e-11 9.201181e-14))
3325.525498   	((1.011204e-11 9.686499e-11 -1.060655e-07) (3.064819e-10 2.660304e-10 -3.119561e-07)) ((1.943592e-13 3.504557e-12 8.127893e-15) (3.228644e-11 -3.202497e-11 9.100036e-14))
3528.505352   	((6.080962e-12 9.300463e-11 -1.061188e-07) (3.061648e-10 2.657803e-10 -3.119394e-07)) ((1.943849e-13 3.504353e-12 8.175207e-15) (3.230788e-11 -3.204413e-11 9.026879e-14))
3731.483786   	((2.586775e-12 8.956352e-11 -1.061610e-07) (3.059011e-10 2.655594e-10 -3.119271e-07)) ((1.944003e-13 3.504190e-12 8.214447e-15) (3.232368e-11 -3.205739e-11 8.975967e-14))
3934.461166   	((-2.250351e-13 8.674914e-11 -1.062044e-07) (3.056860e-10 2.653788e-10 -3.119180e-07)) ((1.944099e-13 3.504030e-12 8.250364e-15) (3.233521e-11 -3.206663e-11 8.941650e-14))
4137.437772   	((-2.547197e-12 8.437199e-11 -1.062340e-07) (3.055133e-10 2.652310e-10 -3.119113e-07)) ((1.944184e-13 3.503919e-12 8.269501e-15) (3.234380e-11 -3.207326e-11 8.923355e-14))
4340.4138     	((-4.482428e-12 8.237443e-11 -1.062510e-07) (3.053717e-10 2.651100e-10 -3.119064e-07)) ((1.944223e-13 3.503857e-12 8.281074e-15) (3.235044e-11 -3.207811e-11 8.911291e-14))
4543.3894     	((-6.126506e-12 8.067715e-11 -1.062689e-07) (3.052540e-10 2.650122e-10 -3.119028e-07)) ((1.944235e-13 3.503795e-12 8.291683e-15) (3.235546e-11 -3.208163e-11 8.905096e-14))
