# Forces      
# CofR        : (0.000000e+00 0.000000e+00 0.000000e+00)
# Time        forces(pressure viscous)	moments(pressure viscous)
0             	((0.000000e+00 0.000000e+00 0.000000e+00) (0.000000e+00 0.000000e+00 0.000000e+00)) ((0.000000e+00 0.000000e+00 0.000000e+00) (0.000000e+00 0.000000e+00 0.000000e+00))
0.012         	((7.647661e-10 1.818264e-05 2.940718e-06) (-1.105152e-11 4.181182e-05 -9.060705e-10)) ((2.674947e-09 9.322251e-12 -2.454990e-11) (2.782398e-06 6.946657e-14 4.458506e-12))
0.0264        	((-8.659442e-09 2.443601e-05 6.222908e-06) (-3.091124e-11 3.830216e-05 -2.891566e-09)) ((-1.179525e-09 2.016255e-11 -1.122341e-11) (2.551632e-06 1.076136e-13 4.213767e-12))
0.04368       	((9.491704e-09 1.652179e-05 3.360895e-06) (-5.994098e-11 3.468749e-05 -6.742042e-09)) ((-8.567058e-10 9.267250e-12 -1.269794e-11) (2.314716e-06 1.248830e-15 8.529179e-12))
0.064416      	((-8.627229e-09 1.868066e-05 4.339962e-06) (-8.039187e-11 3.105382e-05 -1.277720e-08)) ((-1.722124e-09 1.190638e-11 -8.314772e-12) (2.077449e-06 -2.012916e-12 5.715317e-12))
0.0892992     	((7.644127e-09 1.379572e-05 2.870567e-06) (-9.185846e-11 2.751122e-05 -2.096020e-08)) ((-1.211220e-09 6.413857e-12 -5.302355e-12) (1.847049e-06 -3.409098e-12 -6.046971e-12))
0.119159      	((-1.308442e-09 1.413995e-05 3.101612e-06) (-1.392006e-10 2.417682e-05 -3.075968e-08)) ((-1.486528e-09 7.491720e-12 -2.893102e-12) (1.631355e-06 -3.825150e-12 -1.369010e-11))
0.154991      	((4.549491e-09 1.072273e-05 2.189799e-06) (-2.373510e-10 2.115574e-05 -4.270567e-08)) ((-1.031335e-09 3.292372e-12 -1.334346e-12) (1.435182e-06 -5.624697e-12 -1.785051e-11))
0.197989      	((1.037534e-09 1.059746e-05 2.180421e-06) (-3.159692e-10 1.849237e-05 -5.712451e-08)) ((-1.182116e-09 4.127376e-12 -2.218612e-12) (1.262016e-06 -8.400285e-12 -1.977614e-11))
0.249587      	((3.605120e-09 8.311249e-06 1.666829e-06) (-5.399281e-10 1.620567e-05 -7.285211e-08)) ((-8.524856e-10 1.240064e-12 -2.179940e-12) (1.112357e-06 -1.108154e-11 -1.961943e-11))
0.311504      	((2.722331e-09 8.067596e-06 1.569985e-06) (-4.349166e-10 1.428249e-05 -8.719411e-08)) ((-9.574041e-10 1.790383e-12 -3.619807e-12) (9.856861e-07 -1.633067e-11 -1.978361e-11))
0.385805      	((2.597498e-09 6.569142e-06 1.273107e-06) (-5.016566e-10 1.266598e-05 -1.017101e-07)) ((-7.322819e-10 5.591015e-13 -2.942523e-12) (8.788571e-07 -1.909085e-11 -1.727544e-11))
0.474966      	((2.971466e-09 6.306150e-06 1.137971e-06) (-5.014680e-10 1.129745e-05 -1.101485e-07)) ((-8.013693e-10 2.154295e-13 -3.431035e-12) (7.883075e-07 -2.548157e-11 -1.225721e-11))
0.581959      	((1.509535e-09 5.309787e-06 9.458511e-07) (-4.961112e-10 1.012535e-05 -1.198128e-07)) ((-6.545044e-10 -4.527639e-13 -2.362900e-12) (7.107052e-07 -2.935333e-11 -8.201506e-12))
0.710351      	((3.175583e-09 5.037986e-06 8.044997e-07) (-3.842031e-10 9.110096e-06 -1.247702e-07)) ((-6.856198e-10 -1.761317e-12 -2.767398e-12) (6.435708e-07 -3.671174e-11 -7.410325e-12))
0.864421      	((2.403755e-09 4.358600e-06 6.647971e-07) (-2.047649e-10 8.219794e-06 -1.337353e-07)) ((-6.030632e-10 -9.051896e-13 -1.666077e-12) (5.848333e-07 -4.695984e-11 -5.522910e-12))
1.049306      	((2.965571e-09 4.083749e-06 5.377155e-07) (-2.420167e-10 7.430960e-06 -1.411009e-07)) ((-6.035504e-10 -3.351407e-12 -9.641545e-13) (5.329798e-07 -5.418144e-11 -9.335028e-13))
1.271167      	((3.113475e-09 3.576535e-06 4.062609e-07) (-2.445781e-10 6.724531e-06 -1.508593e-07)) ((-5.491222e-10 -7.767239e-13 6.919732e-14) (4.867176e-07 -5.010925e-11 1.107614e-12))
1.5374        	((1.310701e-09 3.331476e-06 2.935075e-07) (-2.640149e-10 6.090275e-06 -1.592209e-07)) ((-5.401705e-10 -5.322872e-12 3.436819e-13) (4.453863e-07 -5.175116e-11 3.793059e-12))
1.85688       	((1.857162e-09 2.955459e-06 1.885041e-07) (-3.286547e-10 5.522059e-06 -1.679980e-07)) ((-5.006066e-10 -3.639247e-12 5.773491e-13) (4.084791e-07 -5.394434e-11 3.789761e-12))
2.240256      	((1.463649e-09 2.727746e-06 9.003741e-08) (-3.124004e-10 5.017929e-06 -1.751247e-07)) ((-4.924819e-10 -6.773972e-12 5.264301e-13) (3.757788e-07 -5.993391e-11 6.291334e-12))
2.700307      	((1.309558e-09 2.438800e-06 1.129740e-09) (-2.818578e-10 4.574175e-06 -1.806616e-07)) ((-4.655402e-10 -5.775015e-12 5.619365e-13) (3.470070e-07 -6.323854e-11 9.127460e-12))
3.252369      	((1.076911e-11 2.255068e-06 -8.580917e-08) (-1.700535e-10 4.185170e-06 -1.863257e-07)) ((-4.576848e-10 -7.645278e-12 6.851094e-13) (3.217998e-07 -5.926603e-11 1.310429e-11))
3.914842      	((3.790803e-10 2.046702e-06 -1.708101e-07) (-1.400005e-10 3.844324e-06 -1.913292e-07)) ((-4.402801e-10 -7.303726e-12 6.708610e-13) (2.998236e-07 -5.856305e-11 2.168381e-11))
4.709811      	((-6.265602e-11 1.898554e-06 -2.640094e-07) (-1.264646e-10 3.543488e-06 -1.981420e-07)) ((-4.346883e-10 -8.750268e-12 5.567630e-13) (2.804814e-07 -4.581822e-11 2.609764e-11))
5.663773      	((6.229268e-10 1.737486e-06 -3.648323e-07) (-2.120839e-11 3.275464e-06 -2.044894e-07)) ((-4.247775e-10 -8.886453e-12 5.891045e-13) (2.633635e-07 -4.389813e-11 2.966568e-11))
6.808528      	((7.844085e-10 1.624080e-06 -4.620255e-07) (7.062638e-11 3.033867e-06 -2.110828e-07)) ((-4.204370e-10 -9.910412e-12 5.896630e-13) (2.480300e-07 -4.278517e-11 2.978781e-11))
8.182233      	((1.111763e-09 1.507756e-06 -5.631051e-07) (7.377496e-13 2.814520e-06 -2.183253e-07)) ((-4.151973e-10 -1.029720e-11 5.821566e-13) (2.341928e-07 -4.352146e-11 2.881225e-11))
9.83068       	((8.230211e-10 1.417667e-06 -6.623905e-07) (4.270313e-11 2.614391e-06 -2.259992e-07)) ((-4.127234e-10 -1.116967e-11 6.255729e-13) (2.216457e-07 -5.087616e-11 2.726356e-11))
11.808816     	((9.688138e-10 1.329159e-06 -7.602629e-07) (5.525486e-11 2.430699e-06 -2.342177e-07)) ((-4.103558e-10 -1.178498e-11 6.295601e-13) (2.102475e-07 -5.957332e-11 2.476768e-11))
14.182579     	((6.958267e-10 1.256291e-06 -8.561028e-07) (-1.337591e-10 2.261664e-06 -2.436047e-07)) ((-4.090979e-10 -1.252735e-11 6.379574e-13) (1.998911e-07 -6.245614e-11 2.179836e-11))
17.031095     	((3.357012e-10 1.188124e-06 -9.478850e-07) (-2.378828e-10 2.106808e-06 -2.546728e-07)) ((-4.078693e-10 -1.303452e-11 6.541742e-13) (1.905287e-07 -6.179026e-11 1.819142e-11))
20.449314     	((4.480065e-10 1.135320e-06 -1.038518e-06) (-3.055411e-10 1.966366e-06 -2.676533e-07)) ((-4.072253e-10 -1.359600e-11 6.272148e-13) (1.821467e-07 -6.147050e-11 1.853621e-11))
24.551176     	((5.348608e-10 1.090057e-06 -1.130242e-06) (-3.388004e-10 1.840254e-06 -2.825270e-07)) ((-4.070043e-10 -1.409290e-11 5.936696e-13) (1.747225e-07 -6.153229e-11 2.054545e-11))
29.473411     	((6.178124e-10 1.060803e-06 -1.220956e-06) (-3.103844e-10 1.728556e-06 -2.991359e-07)) ((-4.074584e-10 -1.463655e-11 5.653833e-13) (1.682237e-07 -6.130487e-11 2.138969e-11))
35.380094     	((6.764678e-10 1.039919e-06 -1.306034e-06) (-3.540183e-10 1.630812e-06 -3.177530e-07)) ((-4.082619e-10 -1.509181e-11 5.589905e-13) (1.626031e-07 -6.132285e-11 2.139975e-11))
42.468112     	((7.056909e-10 1.029482e-06 -1.388782e-06) (-3.366541e-10 1.546506e-06 -3.382384e-07)) ((-4.091796e-10 -1.556822e-11 5.782426e-13) (1.577963e-07 -6.344803e-11 2.115050e-11))
50.947788     	((6.846341e-10 1.028745e-06 -1.467054e-06) (-3.354836e-10 1.475307e-06 -3.604609e-07)) ((-4.099237e-10 -1.597582e-11 6.022788e-13) (1.537238e-07 -6.606723e-11 2.256114e-11))
60.818189     	((7.225017e-10 1.039655e-06 -1.542914e-06) (-3.244301e-10 1.417749e-06 -3.835718e-07)) ((-4.106898e-10 -1.636309e-11 6.092403e-13) (1.503562e-07 -6.775296e-11 2.388240e-11))
72.079269     	((7.668926e-10 1.061361e-06 -1.616916e-06) (-3.408332e-10 1.373423e-06 -4.065607e-07)) ((-4.115897e-10 -1.673494e-11 6.323034e-13) (1.476383e-07 -6.775660e-11 2.459212e-11))
84.731677     	((7.893944e-10 1.093486e-06 -1.684012e-06) (-3.811543e-10 1.341735e-06 -4.282151e-07)) ((-4.127359e-10 -1.710028e-11 6.429710e-13) (1.455217e-07 -6.667069e-11 2.457775e-11))
98.657548     	((8.497898e-10 1.130857e-06 -1.747454e-06) (-4.056231e-10 1.321361e-06 -4.467839e-07)) ((-4.140634e-10 -1.745840e-11 6.268542e-13) (1.439585e-07 -6.484315e-11 2.445294e-11))
112.601968    	((9.072646e-10 1.164304e-06 -1.800174e-06) (-3.922098e-10 1.310467e-06 -4.609170e-07)) ((-4.154738e-10 -1.773635e-11 5.919222e-13) (1.429083e-07 -6.208866e-11 2.410515e-11))
126.568353    	((9.908489e-10 1.188846e-06 -1.840490e-06) (-3.747897e-10 1.305498e-06 -4.711109e-07)) ((-4.165247e-10 -1.791958e-11 5.480091e-13) (1.422197e-07 -5.877302e-11 2.403628e-11))
140.556555    	((1.059655e-09 1.205912e-06 -1.871225e-06) (-3.597357e-10 1.303786e-06 -4.780565e-07)) ((-4.173214e-10 -1.803702e-11 4.937458e-13) (1.417787e-07 -5.597493e-11 2.424689e-11))
154.565936    	((1.135468e-09 1.217699e-06 -1.893988e-06) (-3.465110e-10 1.303575e-06 -4.826474e-07)) ((-4.178120e-10 -1.810047e-11 4.341970e-13) (1.414977e-07 -5.421492e-11 2.475455e-11))
168.593421    	((1.171550e-09 1.226426e-06 -1.911697e-06) (-3.318299e-10 1.303984e-06 -4.855897e-07)) ((-4.181296e-10 -1.813084e-11 3.772495e-13) (1.413267e-07 -5.302399e-11 2.537448e-11))
182.634754    	((1.215820e-09 1.232240e-06 -1.925400e-06) (-3.219028e-10 1.304554e-06 -4.874982e-07)) ((-4.183202e-10 -1.814177e-11 3.218940e-13) (1.412264e-07 -5.236857e-11 2.606720e-11))
196.68815     	((1.251393e-09 1.235645e-06 -1.935920e-06) (-3.078887e-10 1.305054e-06 -4.888151e-07)) ((-4.184204e-10 -1.814208e-11 2.755904e-13) (1.411688e-07 -5.199898e-11 2.644594e-11))
210.752007    	((1.300753e-09 1.237177e-06 -1.944081e-06) (-2.904430e-10 1.305399e-06 -4.898346e-07)) ((-4.184616e-10 -1.813226e-11 2.362178e-13) (1.411340e-07 -5.181944e-11 2.640878e-11))
224.824582    	((1.339746e-09 1.237754e-06 -1.950881e-06) (-2.736913e-10 1.305629e-06 -4.907240e-07)) ((-4.184652e-10 -1.812417e-11 2.051262e-13) (1.411108e-07 -5.170650e-11 2.615031e-11))
238.904056    	((1.381585e-09 1.237836e-06 -1.956942e-06) (-2.570770e-10 1.305814e-06 -4.915393e-07)) ((-4.184534e-10 -1.812246e-11 1.828128e-13) (1.410945e-07 -5.171380e-11 2.587076e-11))
252.988838    	((1.423124e-09 1.237596e-06 -1.962623e-06) (-2.403385e-10 1.306003e-06 -4.922962e-07)) ((-4.184333e-10 -1.812661e-11 1.666707e-13) (1.410830e-07 -5.188893e-11 2.556940e-11))
267.077748    	((1.456500e-09 1.237066e-06 -1.968166e-06) (-2.263107e-10 1.306207e-06 -4.930067e-07)) ((-4.184026e-10 -1.813482e-11 1.541706e-13) (1.410745e-07 -5.216357e-11 2.530777e-11))
281.169731    	((1.477743e-09 1.236389e-06 -1.973439e-06) (-2.148190e-10 1.306428e-06 -4.936767e-07)) ((-4.183681e-10 -1.814334e-11 1.437591e-13) (1.410679e-07 -5.234136e-11 2.506662e-11))
295.264218    	((1.512433e-09 1.235617e-06 -1.978285e-06) (-2.041311e-10 1.306658e-06 -4.942978e-07)) ((-4.183314e-10 -1.815183e-11 1.346650e-13) (1.410625e-07 -5.246830e-11 2.484641e-11))
309.360885    	((1.543537e-09 1.234739e-06 -1.982877e-06) (-1.929126e-10 1.306889e-06 -4.948729e-07)) ((-4.182937e-10 -1.815802e-11 1.253665e-13) (1.410579e-07 -5.260761e-11 2.468411e-11))
323.459498    	((1.582362e-09 1.233483e-06 -1.987366e-06) (-1.818724e-10 1.307101e-06 -4.953879e-07)) ((-4.182420e-10 -1.816444e-11 1.170617e-13) (1.410533e-07 -5.278730e-11 2.460166e-11))
337.55991     	((1.612726e-09 1.231693e-06 -1.991818e-06) (-1.707636e-10 1.307256e-06 -4.958110e-07)) ((-4.181702e-10 -1.817175e-11 1.094755e-13) (1.410462e-07 -5.298936e-11 2.459469e-11))
351.662015    	((1.634920e-09 1.229951e-06 -1.995974e-06) (-1.604570e-10 1.307338e-06 -4.961400e-07)) ((-4.180986e-10 -1.817858e-11 1.026421e-13) (1.410357e-07 -5.316396e-11 2.463367e-11))
365.765736    	((1.657290e-09 1.228827e-06 -1.999657e-06) (-1.507713e-10 1.307386e-06 -4.964129e-07)) ((-4.180538e-10 -1.818392e-11 9.635310e-14) (1.410240e-07 -5.335777e-11 2.467550e-11))
379.871018    	((1.687002e-09 1.228143e-06 -2.003251e-06) (-1.402771e-10 1.307448e-06 -4.966944e-07)) ((-4.180328e-10 -1.818743e-11 8.991015e-14) (1.410144e-07 -5.361345e-11 2.471745e-11))
393.977826    	((1.729954e-09 1.227602e-06 -2.006788e-06) (-1.282037e-10 1.307545e-06 -4.970214e-07)) ((-4.180154e-10 -1.819001e-11 8.420063e-14) (1.410084e-07 -5.396896e-11 2.475038e-11))
408.086132    	((1.716949e-09 1.227136e-06 -2.010140e-06) (-1.166946e-10 1.307682e-06 -4.973850e-07)) ((-4.179938e-10 -1.819261e-11 7.933927e-14) (1.410056e-07 -5.431943e-11 2.475710e-11))
422.195934    	((1.747816e-09 1.226842e-06 -2.013396e-06) (-1.054423e-10 1.307863e-06 -4.977601e-07)) ((-4.179716e-10 -1.819445e-11 7.458435e-14) (1.410053e-07 -5.464794e-11 2.472970e-11))
436.30726     	((1.769860e-09 1.226798e-06 -2.016572e-06) (-9.379617e-11 1.308094e-06 -4.981249e-07)) ((-4.179534e-10 -1.819690e-11 6.985022e-14) (1.410076e-07 -5.498101e-11 2.467270e-11))
450.420151    	((1.787358e-09 1.226858e-06 -2.019560e-06) (-8.407007e-11 1.308373e-06 -4.984651e-07)) ((-4.179382e-10 -1.819922e-11 6.566514e-14) (1.410125e-07 -5.523312e-11 2.459362e-11))
464.534633    	((1.816399e-09 1.226806e-06 -2.022314e-06) (-7.367936e-11 1.308685e-06 -4.987768e-07)) ((-4.179228e-10 -1.820043e-11 6.175328e-14) (1.410194e-07 -5.549630e-11 2.449995e-11))
478.65072     	((1.842220e-09 1.226653e-06 -2.024827e-06) (-6.259394e-11 1.309008e-06 -4.990606e-07)) ((-4.179072e-10 -1.820137e-11 5.793276e-14) (1.410276e-07 -5.576499e-11 2.439765e-11))
492.768382    	((1.862529e-09 1.226486e-06 -2.027066e-06) (-5.120813e-11 1.309330e-06 -4.993176e-07)) ((-4.178918e-10 -1.820206e-11 5.466670e-14) (1.410364e-07 -5.604648e-11 2.429163e-11))
506.887541    	((1.897954e-09 1.226204e-06 -2.029097e-06) (-3.945678e-11 1.309637e-06 -4.995582e-07)) ((-4.178736e-10 -1.820214e-11 5.176210e-14) (1.410453e-07 -5.634894e-11 2.419735e-11))
521.008075    	((1.976714e-09 1.226005e-06 -2.031048e-06) (-2.485844e-11 1.309929e-06 -4.997835e-07)) ((-4.178540e-10 -1.820201e-11 4.918073e-14) (1.410540e-07 -5.679139e-11 2.411317e-11))
535.129862    	((2.004516e-09 1.225831e-06 -2.032755e-06) (-9.996672e-12 1.310210e-06 -4.999924e-07)) ((-4.178325e-10 -1.820254e-11 4.677204e-14) (1.410626e-07 -5.729687e-11 2.399862e-11))
549.252788    	((2.081082e-09 1.225630e-06 -2.034431e-06) (5.541908e-12 1.310479e-06 -5.001887e-07)) ((-4.178100e-10 -1.820202e-11 4.462612e-14) (1.410709e-07 -5.788467e-11 2.381350e-11))
563.376756    	((2.177577e-09 1.225351e-06 -2.036134e-06) (2.342009e-11 1.310733e-06 -5.003777e-07)) ((-4.177866e-10 -1.820079e-11 4.240525e-14) (1.410786e-07 -5.859204e-11 2.351651e-11))
577.50168     	((2.308431e-09 1.225110e-06 -2.037815e-06) (4.437475e-11 1.310971e-06 -5.005592e-07)) ((-4.177651e-10 -1.819902e-11 4.038748e-14) (1.410859e-07 -5.943716e-11 2.307681e-11))
591.627493    	((2.433803e-09 1.224893e-06 -2.039272e-06) (6.759360e-11 1.311197e-06 -5.007272e-07)) ((-4.177460e-10 -1.819709e-11 3.852940e-14) (1.410928e-07 -6.039226e-11 2.247119e-11))
605.754142    	((2.625844e-09 1.224613e-06 -2.040739e-06) (9.346342e-11 1.311406e-06 -5.008864e-07)) ((-4.177269e-10 -1.819432e-11 3.691741e-14) (1.410991e-07 -6.143985e-11 2.169593e-11))
