# Forces      
# CofR        : (0.000000e+00 0.000000e+00 0.000000e+00)
# Time        forces(pressure viscous)	moments(pressure viscous)
0             	((0.000000e+00 0.000000e+00 0.000000e+00) (-2.000604e-05 5.520961e-15 -1.944550e-10)) ((0.000000e+00 0.000000e+00 0.000000e+00) (-4.394652e-17 4.495116e-07 -9.912789e-17))
0.012         	((-5.817880e-03 9.443465e-09 6.153537e-04) (-2.295774e-05 3.383189e-11 -8.050598e-09)) ((2.248976e-13 -7.860878e-08 9.361421e-13) (1.776552e-13 6.625265e-07 -5.801263e-13))
0.0264        	((4.038318e-04 -1.013228e-07 -3.447112e-05) (-2.342296e-05 -2.462293e-11 -1.210776e-08)) ((2.426770e-12 5.551480e-09 -1.207177e-12) (-4.576769e-12 7.417661e-07 -1.103641e-12))
0.04368       	((1.216454e-03 8.375745e-08 -2.136347e-05) (-2.081498e-05 -1.480838e-11 -9.249579e-09)) ((-3.282495e-12 1.843193e-08 -1.039383e-12) (-5.303203e-12 6.608321e-07 -5.963733e-13))
0.064416      	((1.146583e-05 8.456106e-09 -2.827214e-05) (-1.843669e-05 -4.126802e-10 -4.820251e-09)) ((1.028806e-12 -2.050489e-10 -6.363601e-14) (-1.339007e-12 5.932660e-07 -2.036186e-12))
0.0892992     	((-1.611840e-05 1.279615e-08 -1.743635e-05) (-1.702141e-05 -6.304117e-10 -3.917522e-09)) ((-4.980033e-13 -8.306617e-10 7.929184e-14) (1.378834e-12 5.608247e-07 -1.612746e-12))
0.119159      	((1.827402e-05 -9.638468e-09 -1.055951e-05) (-1.571760e-05 -4.884124e-10 -6.237569e-09)) ((4.930305e-13 3.543850e-10 -2.765101e-13) (1.518120e-12 5.247824e-07 3.029779e-12))
0.154991      	((9.812765e-06 7.080395e-09 -6.651205e-06) (-1.433568e-05 -4.077306e-10 -8.278095e-09)) ((-1.097831e-13 2.075664e-10 -4.332682e-13) (1.614938e-12 4.846810e-07 8.212794e-12))
0.197989      	((2.373723e-06 -6.249627e-09 -4.330589e-06) (-1.294195e-05 -3.032092e-10 -9.503465e-09)) ((6.303906e-13 5.826331e-11 -4.076771e-13) (1.219299e-12 4.438832e-07 1.075073e-11))
0.249587      	((-3.266989e-07 -3.331647e-09 -2.851519e-06) (-1.157554e-05 -2.120464e-10 -1.093740e-08)) ((5.132073e-13 7.588760e-12 1.094657e-13) (-3.190609e-13 4.031083e-07 1.067410e-11))
0.311504      	((-1.560323e-06 -8.965633e-10 -1.965717e-06) (-1.027783e-05 -1.248730e-10 -1.270456e-08)) ((3.210316e-13 -7.986926e-12 -2.944492e-15) (-8.195457e-13 3.631646e-07 9.764350e-12))
0.385805      	((-2.153968e-06 7.587081e-11 -1.387491e-06) (-9.082033e-06 -6.631314e-11 -1.448764e-08)) ((1.448496e-13 -1.106697e-11 -4.257745e-15) (-9.503543e-13 3.250368e-07 8.025687e-12))
0.474966      	((-2.438788e-06 -4.731492e-11 -1.028929e-06) (-8.010928e-06 -2.721187e-11 -1.610098e-08)) ((7.280341e-14 -1.455775e-11 5.645934e-15) (-7.291269e-13 2.897542e-07 5.904101e-12))
0.581959      	((-2.555411e-06 -5.929643e-11 -7.899049e-07) (-7.072672e-06 -1.499575e-12 -1.777029e-08)) ((2.990190e-14 -1.783335e-11 1.630878e-15) (-3.460264e-13 2.579126e-07 4.250138e-12))
0.710351      	((-2.546410e-06 5.397170e-11 -6.515059e-07) (-6.266262e-06 -4.347641e-12 -1.943978e-08)) ((2.169064e-14 -1.983329e-11 -8.609511e-15) (-1.355760e-13 2.298455e-07 3.703464e-12))
0.864421      	((-2.455218e-06 5.499345e-11 -5.630774e-07) (-5.581325e-06 -1.365788e-11 -2.083031e-08)) ((3.571596e-15 -2.016404e-11 -4.910470e-15) (-4.817902e-14 2.055511e-07 3.471285e-12))
1.049306      	((-2.320535e-06 7.038819e-11 -5.143070e-07) (-5.000879e-06 -1.107951e-11 -2.204406e-08)) ((4.326393e-15 -1.932505e-11 -3.477344e-15) (-7.018255e-15 1.846779e-07 2.906923e-12))
1.271167      	((-2.170167e-06 3.247747e-11 -4.833830e-07) (-4.507437e-06 -3.934894e-13 -2.323207e-08)) ((5.923300e-15 -1.803143e-11 -3.952612e-15) (-6.649979e-16 1.667020e-07 2.103760e-12))
1.5374        	((-2.015555e-06 3.218866e-11 -4.691656e-07) (-4.082687e-06 8.370733e-12 -2.459315e-08)) ((8.730339e-15 -1.670546e-11 -3.909649e-15) (-9.923855e-15 1.510689e-07 1.428476e-12))
1.85688       	((-1.863813e-06 2.402321e-11 -4.624116e-07) (-3.710139e-06 1.267635e-11 -2.624226e-08)) ((8.493587e-15 -1.532314e-11 -2.796716e-15) (-3.670147e-14 1.372983e-07 1.051479e-12))
2.240256      	((-1.719342e-06 2.119116e-12 -4.620519e-07) (-3.378991e-06 1.382613e-11 -2.813511e-08)) ((9.220763e-15 -1.415557e-11 -4.431464e-16) (-1.093057e-13 1.250413e-07 9.712465e-13))
2.700307      	((-1.584227e-06 -2.016270e-11 -4.640126e-07) (-3.082437e-06 8.673025e-12 -3.017069e-08)) ((1.000297e-14 -1.314686e-11 9.956652e-16) (-3.040029e-13 1.140592e-07 1.172501e-12))
3.252369      	((-1.458180e-06 -5.072869e-11 -4.673889e-07) (-2.815657e-06 6.860125e-12 -3.226597e-08)) ((8.479150e-15 -1.217418e-11 1.398830e-16) (-5.072447e-13 1.041781e-07 1.274931e-12))
3.914842      	((-1.340098e-06 -8.401048e-12 -4.708232e-07) (-2.575047e-06 8.621065e-12 -3.452102e-08)) ((1.930090e-15 -1.122887e-11 -4.130949e-16) (-5.573672e-13 9.526428e-08 1.220562e-12))
4.709811      	((-1.230841e-06 4.562181e-11 -4.746348e-07) (-2.358013e-06 1.041029e-11 -3.697862e-08)) ((-1.036016e-15 -1.035947e-11 1.276500e-16) (-4.255904e-13 8.722079e-08 1.251207e-12))
5.663773      	((-1.130406e-06 8.723052e-11 -4.777033e-07) (-2.162492e-06 1.347499e-11 -3.955471e-08)) ((-4.818134e-15 -9.597055e-12 1.338256e-15) (-2.622633e-13 7.997567e-08 1.317420e-12))
6.808528      	((-1.038591e-06 1.205685e-10 -4.793195e-07) (-1.986832e-06 1.339201e-11 -4.228139e-08)) ((-6.280408e-16 -8.945025e-12 1.144174e-15) (-1.531409e-13 7.346681e-08 1.314291e-12))
8.182233      	((-9.551372e-07 5.600833e-11 -4.793575e-07) (-1.829247e-06 1.221210e-11 -4.517802e-08)) ((1.416885e-15 -8.367077e-12 1.131627e-15) (-2.773242e-13 6.762766e-08 1.442046e-12))
9.83068       	((-8.796880e-07 -1.317905e-11 -4.783204e-07) (-1.687696e-06 9.909586e-12 -4.827750e-08)) ((-2.031404e-17 -7.832871e-12 8.898718e-16) (-4.240584e-13 6.238365e-08 1.717377e-12))
11.808816     	((-8.112572e-07 -8.359380e-11 -4.762939e-07) (-1.560216e-06 7.395475e-12 -5.163429e-08)) ((-3.765953e-16 -7.358091e-12 2.518818e-16) (-5.794118e-13 5.766078e-08 2.326412e-12))
14.182579     	((-7.493391e-07 -1.296279e-10 -4.737107e-07) (-1.444985e-06 6.532382e-12 -5.525796e-08)) ((6.780418e-16 -6.939993e-12 7.664175e-16) (-8.657559e-13 5.339187e-08 3.226663e-12))
17.031095     	((-6.936398e-07 -1.366251e-10 -4.703475e-07) (-1.340535e-06 4.808818e-12 -5.918543e-08)) ((5.727796e-15 -6.577477e-12 9.663296e-16) (-1.424304e-12 4.952199e-08 4.099681e-12))
20.449314     	((-6.438548e-07 -2.296244e-10 -4.666299e-07) (-1.245770e-06 -3.403760e-13 -6.341769e-08)) ((8.890423e-15 -6.275813e-12 1.312645e-15) (-2.286027e-12 4.601025e-08 4.807402e-12))
24.551176     	((-5.996135e-07 -2.993698e-10 -4.623206e-07) (-1.159857e-06 -1.034469e-11 -6.790502e-08)) ((1.226089e-14 -6.025526e-12 1.956308e-15) (-3.173190e-12 4.282590e-08 5.363794e-12))
29.473411     	((-5.608848e-07 -2.724989e-10 -4.572831e-07) (-1.082145e-06 -1.995052e-11 -7.259614e-08)) ((1.503118e-14 -5.823751e-12 2.101012e-15) (-3.966799e-12 3.994510e-08 5.982449e-12))
35.380094     	((-5.270802e-07 -2.210634e-10 -4.513548e-07) (-1.012069e-06 -2.611677e-11 -7.744632e-08)) ((1.725025e-14 -5.670092e-12 7.090984e-16) (-4.710694e-12 3.734748e-08 6.698613e-12))
42.468112     	((-4.981696e-07 -2.745751e-10 -4.449980e-07) (-9.490640e-07 -3.303623e-11 -8.241026e-08)) ((2.205900e-14 -5.568006e-12 -7.886428e-17) (-5.610379e-12 3.501225e-08 7.613245e-12))
50.973735     	((-4.736962e-07 -3.009341e-10 -4.377625e-07) (-8.926042e-07 -3.957707e-11 -8.743240e-08)) ((2.418503e-14 -5.514706e-12 2.639366e-16) (-6.505306e-12 3.292032e-08 8.849025e-12))
61.180482     	((-4.535055e-07 -2.904273e-10 -4.297237e-07) (-8.421696e-07 -4.428343e-11 -9.246040e-08)) ((2.520743e-14 -5.509937e-12 6.271246e-16) (-7.149536e-12 3.105243e-08 1.041946e-11))
73.428578     	((-4.373905e-07 -2.688927e-10 -4.208025e-07) (-7.972762e-07 -4.807112e-11 -9.745256e-08)) ((2.474228e-14 -5.556290e-12 1.011769e-15) (-7.475991e-12 2.939150e-08 1.237279e-11))
88.126294     	((-4.252126e-07 -2.126037e-10 -4.115390e-07) (-7.575298e-07 -4.974999e-11 -1.023814e-07)) ((2.319129e-14 -5.653424e-12 8.029711e-16) (-7.379419e-12 2.792376e-08 1.445304e-11))
105.763553    	((-4.166732e-07 -1.795180e-10 -4.016103e-07) (-7.226129e-07 -5.315454e-11 -1.072136e-07)) ((2.238628e-14 -5.800083e-12 1.296080e-15) (-7.038558e-12 2.663884e-08 1.658944e-11))
126.928263    	((-4.114727e-07 -1.050152e-10 -3.913356e-07) (-6.922522e-07 -5.430397e-11 -1.119327e-07)) ((2.010421e-14 -5.982558e-12 1.509652e-15) (-6.370396e-12 2.552774e-08 1.861175e-11))
152.325916    	((-4.093073e-07 -8.200418e-11 -3.806970e-07) (-6.662106e-07 -5.303924e-11 -1.165372e-07)) ((2.015761e-14 -6.193338e-12 2.098256e-15) (-5.522588e-12 2.458205e-08 2.032994e-11))
182.803099    	((-4.096898e-07 -4.283444e-11 -3.698552e-07) (-6.442640e-07 -5.400390e-11 -1.209842e-07)) ((1.919264e-14 -6.413957e-12 2.468330e-15) (-4.638688e-12 2.379281e-08 2.171933e-11))
219.375719    	((-4.118752e-07 1.603414e-11 -3.589466e-07) (-6.261410e-07 -5.197856e-11 -1.251663e-07)) ((1.806231e-14 -6.619314e-12 2.152540e-15) (-3.688088e-12 2.314748e-08 2.273134e-11))
262.838604    	((-4.149725e-07 5.655863e-11 -3.480163e-07) (-6.114787e-07 -4.915845e-11 -1.289090e-07)) ((1.777694e-14 -6.783466e-12 1.496469e-15) (-2.653422e-12 2.262886e-08 2.324499e-11))
313.166055    	((-4.180288e-07 1.062702e-10 -3.371182e-07) (-5.997627e-07 -4.321674e-11 -1.320428e-07)) ((1.696949e-14 -6.900669e-12 1.207388e-15) (-1.593881e-12 2.221527e-08 2.333506e-11))
370.344164    	((-4.202857e-07 1.568137e-10 -3.266231e-07) (-5.903612e-07 -3.168530e-11 -1.345207e-07)) ((1.650237e-14 -6.981445e-12 9.252998e-16) (-5.016817e-13 2.188291e-08 2.314096e-11))
434.373135    	((-4.215880e-07 2.075647e-10 -3.169413e-07) (-5.827128e-07 -1.608287e-11 -1.364108e-07)) ((1.621127e-14 -7.031176e-12 9.244347e-16) (5.309313e-13 2.161266e-08 2.277084e-11))
502.961063    	((-4.223086e-07 2.402319e-10 -3.087165e-07) (-5.764449e-07 1.974700e-13 -1.378441e-07)) ((1.657623e-14 -7.061700e-12 7.937241e-16) (1.372089e-12 2.139234e-08 2.229505e-11))
571.635806    	((-4.227762e-07 2.589007e-10 -3.022865e-07) (-5.713084e-07 1.560761e-11 -1.389561e-07)) ((1.682077e-14 -7.078281e-12 6.819899e-16) (2.050198e-12 2.121333e-08 2.170824e-11))
640.37805     	((-4.229649e-07 2.697532e-10 -2.971148e-07) (-5.670488e-07 2.932198e-11 -1.398591e-07)) ((1.723297e-14 -7.083311e-12 4.457901e-16) (2.584295e-12 2.106616e-08 2.103714e-11))
709.172359    	((-4.230817e-07 2.740480e-10 -2.928558e-07) (-5.635247e-07 4.137944e-11 -1.406050e-07)) ((1.775144e-14 -7.081663e-12 3.848469e-16) (2.985190e-12 2.094552e-08 2.029675e-11))
778.009774    	((-4.231145e-07 2.695167e-10 -2.892477e-07) (-5.605968e-07 5.136373e-11 -1.412354e-07)) ((1.840391e-14 -7.076376e-12 3.504314e-16) (3.225072e-12 2.084600e-08 1.950347e-11))
846.884426    	((-4.231101e-07 2.570864e-10 -2.862190e-07) (-5.581604e-07 5.974743e-11 -1.417700e-07)) ((1.935105e-14 -7.069804e-12 2.208961e-16) (3.304060e-12 2.076392e-08 1.867449e-11))
915.790974    	((-4.230734e-07 2.392245e-10 -2.836321e-07) (-5.561266e-07 6.597715e-11 -1.422295e-07)) ((2.024324e-14 -7.062478e-12 2.296889e-16) (3.245805e-12 2.069586e-08 1.780453e-11))
984.724482    	((-4.230278e-07 2.188113e-10 -2.814838e-07) (-5.544265e-07 6.988836e-11 -1.426255e-07)) ((2.118783e-14 -7.055304e-12 1.762942e-16) (3.078112e-12 2.063932e-08 1.692907e-11))
1053.680612   	((-4.229761e-07 1.958992e-10 -2.796660e-07) (-5.530006e-07 7.190825e-11 -1.429674e-07)) ((2.198996e-14 -7.048366e-12 1.031920e-16) (2.832801e-12 2.059222e-08 1.609156e-11))
1122.655735   	((-4.229256e-07 1.710379e-10 -2.781387e-07) (-5.518022e-07 7.257815e-11 -1.432627e-07)) ((2.281294e-14 -7.042448e-12 4.971636e-17) (2.514892e-12 2.055292e-08 1.524885e-11))
1191.64684    	((-4.228773e-07 1.459687e-10 -2.768406e-07) (-5.507939e-07 7.171270e-11 -1.435172e-07)) ((2.363925e-14 -7.037087e-12 1.817695e-17) (2.154874e-12 2.052006e-08 1.443335e-11))
1260.65143    	((-4.228314e-07 1.203105e-10 -2.757401e-07) (-5.499448e-07 6.952912e-11 -1.437368e-07)) ((2.447919e-14 -7.032344e-12 -1.776119e-17) (1.758442e-12 2.049251e-08 1.365542e-11))
1329.66742    	((-4.227899e-07 9.522419e-11 -2.748057e-07) (-5.492286e-07 6.620343e-11 -1.439258e-07)) ((2.522817e-14 -7.028181e-12 -6.002348e-17) (1.340858e-12 2.046940e-08 1.293783e-11))
1398.693066   	((-4.227518e-07 7.093692e-11 -2.740124e-07) (-5.486234e-07 6.240354e-11 -1.440886e-07)) ((2.592819e-14 -7.024411e-12 -8.203969e-17) (9.217650e-13 2.044995e-08 1.225309e-11))
1467.726909   	((-4.227165e-07 4.776623e-11 -2.733370e-07) (-5.481111e-07 5.807046e-11 -1.442289e-07)) ((2.656043e-14 -7.021091e-12 -1.168220e-16) (4.979486e-13 2.043353e-08 1.162830e-11))
1536.76772    	((-4.226849e-07 2.532637e-11 -2.727629e-07) (-5.476769e-07 5.348869e-11 -1.443494e-07)) ((2.716747e-14 -7.018194e-12 -1.171007e-16) (7.387025e-14 2.041968e-08 1.104280e-11))
1605.814465   	((-4.226563e-07 4.580084e-12 -2.722723e-07) (-5.473085e-07 4.873719e-11 -1.444526e-07)) ((2.767088e-14 -7.015647e-12 -9.361674e-17) (-3.423830e-13 2.040798e-08 1.050424e-11))
1674.866273   	((-4.226314e-07 -1.480319e-11 -2.718557e-07) (-5.469958e-07 4.402058e-11 -1.445408e-07)) ((2.815340e-14 -7.013394e-12 -1.016166e-16) (-7.422975e-13 2.039808e-08 1.000664e-11))
1743.922404   	((-4.226091e-07 -3.241513e-11 -2.715002e-07) (-5.467301e-07 3.926545e-11 -1.446163e-07)) ((2.858378e-14 -7.011424e-12 -1.056781e-16) (-1.121440e-12 2.038970e-08 9.557937e-12))
1812.98223    	((-4.225896e-07 -4.850386e-11 -2.711971e-07) (-5.465041e-07 3.460154e-11 -1.446811e-07)) ((2.895976e-14 -7.009728e-12 -9.955283e-17) (-1.478796e-12 2.038258e-08 9.152433e-12))
1882.04522    	((-4.225725e-07 -6.291674e-11 -2.709381e-07) (-5.463117e-07 3.008825e-11 -1.447365e-07)) ((2.928911e-14 -7.008237e-12 -9.998201e-17) (-1.812855e-12 2.037654e-08 8.787904e-12))
1951.110918   	((-4.225577e-07 -7.598800e-11 -2.707171e-07) (-5.461479e-07 2.578906e-11 -1.447840e-07)) ((2.958302e-14 -7.006931e-12 -1.146576e-16) (-2.122215e-12 2.037140e-08 8.461962e-12))
2020.178936   	((-4.225446e-07 -8.750242e-11 -2.705284e-07) (-5.460084e-07 2.177794e-11 -1.448247e-07)) ((2.986995e-14 -7.005819e-12 -1.241116e-16) (-2.404323e-12 2.036703e-08 8.169066e-12))
2089.248943   	((-4.225337e-07 -9.781510e-11 -2.703681e-07) (-5.458895e-07 1.810597e-11 -1.448595e-07)) ((3.011813e-14 -7.004898e-12 -1.207703e-16) (-2.660842e-12 2.036331e-08 7.906534e-12))
2158.320656   	((-4.225239e-07 -1.067957e-10 -2.702308e-07) (-5.457881e-07 1.477058e-11 -1.448894e-07)) ((3.032853e-14 -7.004100e-12 -1.198371e-16) (-2.892981e-12 2.036014e-08 7.672473e-12))
2227.393832   	((-4.225155e-07 -1.147950e-10 -2.701133e-07) (-5.457016e-07 1.172175e-11 -1.449149e-07)) ((3.051128e-14 -7.003404e-12 -1.273287e-16) (-3.103163e-12 2.035744e-08 7.465608e-12))
2296.468261   	((-4.225081e-07 -1.218213e-10 -2.700130e-07) (-5.456277e-07 8.963415e-12 -1.449368e-07)) ((3.067263e-14 -7.002812e-12 -1.324001e-16) (-3.291958e-12 2.035514e-08 7.282342e-12))
2365.543766   	((-4.225017e-07 -1.279885e-10 -2.699273e-07) (-5.455647e-07 6.489801e-12 -1.449554e-07)) ((3.082591e-14 -7.002297e-12 -1.419511e-16) (-3.459720e-12 2.035317e-08 7.119783e-12))
2434.620193   	((-4.224961e-07 -1.334004e-10 -2.698538e-07) (-5.455109e-07 4.287004e-12 -1.449714e-07)) ((3.096277e-14 -7.001859e-12 -1.543388e-16) (-3.609176e-12 2.035150e-08 6.976596e-12))
2503.697411   	((-4.224914e-07 -1.381195e-10 -2.697913e-07) (-5.454650e-07 2.330379e-12 -1.449851e-07)) ((3.108180e-14 -7.001490e-12 -1.640616e-16) (-3.741421e-12 2.035007e-08 6.850653e-12))
2572.775307   	((-4.224874e-07 -1.421710e-10 -2.697381e-07) (-5.454257e-07 6.098311e-13 -1.449968e-07)) ((3.118259e-14 -7.001179e-12 -1.712611e-16) (-3.858064e-12 2.034884e-08 6.739513e-12))
2641.853783   	((-4.224839e-07 -1.456984e-10 -2.696924e-07) (-5.453922e-07 -8.926817e-13 -1.450068e-07)) ((3.126754e-14 -7.000912e-12 -1.765918e-16) (-3.960730e-12 2.034780e-08 6.641381e-12))
2710.932757   	((-4.224808e-07 -1.488405e-10 -2.696530e-07) (-5.453636e-07 -2.209588e-12 -1.450153e-07)) ((3.134038e-14 -7.000685e-12 -1.792936e-16) (-4.050835e-12 2.034691e-08 6.555276e-12))
2780.012157   	((-4.224784e-07 -1.514699e-10 -2.696198e-07) (-5.453392e-07 -3.358117e-12 -1.450227e-07)) ((3.140157e-14 -7.000497e-12 -1.809844e-16) (-4.129505e-12 2.034615e-08 6.480002e-12))
2849.091923   	((-4.224761e-07 -1.537760e-10 -2.695911e-07) (-5.453183e-07 -4.362131e-12 -1.450289e-07)) ((3.145515e-14 -7.000331e-12 -1.827777e-16) (-4.198316e-12 2.034550e-08 6.414276e-12))
2918.172001   	((-4.224742e-07 -1.557629e-10 -2.695668e-07) (-5.453004e-07 -5.235542e-12 -1.450342e-07)) ((3.150188e-14 -7.000195e-12 -1.847298e-16) (-4.258326e-12 2.034494e-08 6.356870e-12))
2987.252348   	((-4.224726e-07 -1.575223e-10 -2.695458e-07) (-5.452852e-07 -5.996956e-12 -1.450388e-07)) ((3.154293e-14 -7.000077e-12 -1.860387e-16) (-4.310581e-12 2.034447e-08 6.306805e-12))
3056.332925   	((-4.224712e-07 -1.590287e-10 -2.695279e-07) (-5.452722e-07 -6.658781e-12 -1.450427e-07)) ((3.157848e-14 -6.999975e-12 -1.873923e-16) (-4.356099e-12 2.034406e-08 6.263175e-12))
3125.413699   	((-4.224700e-07 -1.604060e-10 -2.695122e-07) (-5.452610e-07 -7.233808e-12 -1.450461e-07)) ((3.161095e-14 -6.999886e-12 -1.888797e-16) (-4.395748e-12 2.034372e-08 6.225205e-12))
3194.494642   	((-4.224690e-07 -1.615402e-10 -2.694992e-07) (-5.452515e-07 -7.733455e-12 -1.450489e-07)) ((3.163765e-14 -6.999814e-12 -1.898473e-16) (-4.430172e-12 2.034342e-08 6.192161e-12))
3263.575729   	((-4.224681e-07 -1.625299e-10 -2.694880e-07) (-5.452434e-07 -8.168434e-12 -1.450513e-07)) ((3.166109e-14 -6.999750e-12 -1.909417e-16) (-4.460167e-12 2.034317e-08 6.163431e-12))
3332.65694    	((-4.224674e-07 -1.633834e-10 -2.694784e-07) (-5.452364e-07 -8.546173e-12 -1.450534e-07)) ((3.168135e-14 -6.999696e-12 -1.919281e-16) (-4.486256e-12 2.034295e-08 6.138432e-12))
3401.738257   	((-4.224667e-07 -1.641499e-10 -2.694702e-07) (-5.452305e-07 -8.874970e-12 -1.450552e-07)) ((3.169932e-14 -6.999649e-12 -1.928896e-16) (-4.508974e-12 2.034276e-08 6.116725e-12))
3470.819666   	((-4.224662e-07 -1.648487e-10 -2.694631e-07) (-5.452254e-07 -9.162031e-12 -1.450567e-07)) ((3.171574e-14 -6.999609e-12 -1.936773e-16) (-4.528785e-12 2.034261e-08 6.097824e-12))
3539.901153   	((-4.224657e-07 -1.654237e-10 -2.694571e-07) (-5.452210e-07 -9.410462e-12 -1.450580e-07)) ((3.172914e-14 -6.999574e-12 -1.943749e-16) (-4.545958e-12 2.034247e-08 6.081364e-12))
3608.982706   	((-4.224653e-07 -1.659145e-10 -2.694520e-07) (-5.452173e-07 -9.627008e-12 -1.450591e-07)) ((3.174069e-14 -6.999545e-12 -1.949685e-16) (-4.560920e-12 2.034236e-08 6.067043e-12))
