# Forces      
# CofR        : (0.000000e+00 0.000000e+00 0.000000e+00)
# Time        forces(pressure viscous)	moments(pressure viscous)
0             	((0.000000e+00 0.000000e+00 0.000000e+00) (0.000000e+00 0.000000e+00 0.000000e+00)) ((0.000000e+00 0.000000e+00 0.000000e+00) (0.000000e+00 0.000000e+00 0.000000e+00))
0.012         	((6.652761e-11 -1.513373e-08 1.956453e-10) (1.963414e-12 -1.696618e-10 8.231811e-13)) ((1.089871e-12 5.122043e-15 2.084668e-10) (-3.238866e-12 -8.715226e-14 4.235548e-07))
0.0264        	((-5.418662e-11 5.483363e-09 -4.850287e-10) (2.341267e-12 -1.810475e-10 8.936223e-13)) ((2.563037e-12 -1.540298e-14 6.272995e-11) (-5.756241e-12 -8.144805e-14 3.707149e-07))
0.04368       	((2.819296e-10 -2.774973e-09 1.486816e-10) (2.757121e-12 -1.183311e-10 1.746935e-12)) ((-1.172159e-12 8.237646e-15 3.303327e-11) (-4.837263e-12 -1.062276e-13 3.206202e-07))
0.064416      	((2.199586e-10 -2.426099e-10 -3.260162e-10) (2.144427e-12 -6.286469e-11 1.852946e-12)) ((3.362465e-13 9.261644e-15 2.230974e-11) (-2.425497e-12 -1.083014e-13 2.746506e-07))
0.0892992     	((2.998907e-10 -1.350292e-09 -2.463688e-10) (1.395228e-12 -3.949875e-11 1.613048e-12)) ((-3.557964e-13 3.605161e-14 1.803411e-11) (-1.149072e-12 -8.703973e-14 2.340273e-07))
0.119159      	((1.678232e-10 -1.286249e-10 -3.921644e-10) (2.228778e-12 -3.425129e-11 5.434222e-12)) ((-2.149930e-13 3.622685e-14 1.437571e-11) (4.379865e-13 -1.470042e-13 1.992993e-07))
0.154991      	((2.509554e-10 -1.145599e-09 -5.324834e-10) (1.782743e-12 -2.559155e-11 1.576393e-11)) ((-2.098319e-13 3.983686e-14 1.150321e-11) (1.621845e-12 -1.647101e-13 1.706799e-07))
0.197989      	((1.628229e-10 -8.858227e-10 -6.125606e-10) (-2.491708e-12 -1.514494e-11 3.869541e-11)) ((-1.695290e-13 3.283575e-14 9.036898e-12) (2.288107e-12 -4.759593e-14 1.476664e-07))
0.249587      	((3.239902e-10 -1.051671e-09 -7.256362e-10) (-6.945839e-12 -6.122749e-12 7.225031e-11)) ((-1.719357e-13 3.984189e-14 7.499255e-12) (2.036146e-12 1.976508e-13 1.293262e-07))
0.311504      	((4.292085e-10 -1.267595e-09 -7.376796e-10) (-8.903183e-12 2.952068e-12 1.126229e-10)) ((-1.264844e-13 2.121973e-14 6.656587e-12) (1.604935e-12 3.208352e-13 1.145561e-07))
0.385805      	((5.596254e-10 -1.633938e-09 -8.798702e-10) (-8.233982e-12 3.189870e-13 1.584492e-10)) ((-8.996122e-14 2.729032e-14 5.819318e-12) (1.173731e-12 2.864428e-13 1.023642e-07))
0.474966      	((6.258541e-10 -2.033217e-09 -8.843531e-10) (-1.135997e-11 -1.832428e-12 2.080172e-10)) ((1.867646e-14 -7.253631e-15 5.098108e-12) (2.757905e-13 4.608368e-13 9.201197e-08))
0.581959      	((8.955560e-10 -2.510282e-09 -9.236105e-10) (-1.951917e-11 -1.155573e-11 2.653507e-10)) ((7.145374e-14 1.789579e-14 4.726174e-12) (-1.528220e-12 6.975702e-13 8.301105e-08))
0.710351      	((1.145178e-09 -2.475610e-09 -1.034872e-09) (-2.807795e-11 -3.560653e-11 3.368575e-10)) ((1.144341e-13 1.969218e-14 4.491988e-12) (-2.891271e-12 1.079457e-12 7.505465e-08))
0.864421      	((1.255356e-09 -1.984663e-09 -1.225421e-09) (-4.231009e-11 -1.938261e-11 4.074001e-10)) ((1.844428e-13 2.147660e-14 4.266138e-12) (-2.404601e-12 1.632840e-12 6.794808e-08))
1.049306      	((1.398558e-09 -1.799292e-09 -1.481808e-09) (-7.007914e-11 4.016314e-11 4.939764e-10)) ((2.380324e-13 1.292635e-14 4.033143e-12) (-6.686367e-13 2.175524e-12 6.157148e-08))
1.271167      	((1.226416e-09 -1.554486e-09 -1.694344e-09) (-1.249456e-10 1.094336e-10 6.018364e-10)) ((2.959282e-13 3.131994e-14 3.857650e-12) (1.148164e-12 3.438577e-12 5.586443e-08))
1.5374        	((8.514893e-10 -1.662023e-09 -1.931853e-09) (-2.133205e-10 1.866703e-10 7.127240e-10)) ((2.761135e-13 2.568257e-14 3.715718e-12) (2.916829e-12 5.523131e-12 5.079835e-08))
1.85688       	((6.038026e-10 -1.394579e-09 -2.184541e-09) (-3.199121e-10 2.492136e-10 8.194984e-10)) ((2.556331e-13 3.949741e-14 3.544550e-12) (5.062962e-12 7.980725e-12 4.634510e-08))
2.240256      	((3.287785e-10 -1.189894e-09 -2.574769e-09) (-4.304768e-10 3.126519e-10 9.364438e-10)) ((2.872850e-13 5.104720e-14 3.340296e-12) (7.597715e-12 1.075787e-11 4.245835e-08))
2.700307      	((1.771734e-10 -8.873351e-10 -2.953989e-09) (-5.415912e-10 4.086861e-10 1.074880e-09)) ((2.760188e-13 2.404479e-14 3.152229e-12) (1.082203e-11 1.390410e-11 3.907110e-08))
3.252369      	((-6.579153e-11 -4.637355e-10 -3.243471e-09) (-6.402846e-10 5.206608e-10 1.228829e-09)) ((2.293121e-13 -8.809022e-15 2.935962e-12) (1.403464e-11 1.732890e-11 3.610295e-08))
3.914842      	((-1.455789e-10 -6.039638e-11 -3.579958e-09) (-6.996347e-10 6.314351e-10 1.389353e-09)) ((1.691450e-13 -2.300015e-14 2.733038e-12) (1.646659e-11 1.967276e-11 3.347269e-08))
4.709811      	((-2.218112e-10 1.005200e-10 -4.029146e-09) (-7.230851e-10 6.957495e-10 1.590063e-09)) ((1.395936e-13 -2.197855e-14 2.545632e-12) (1.712322e-11 2.060724e-11 3.111270e-08))
5.663773      	((-3.288125e-10 1.358591e-10 -4.419768e-09) (-7.067522e-10 6.944476e-10 1.809603e-09)) ((1.280969e-13 -3.837648e-14 2.359315e-12) (1.631714e-11 2.056291e-11 2.897377e-08))
6.808528      	((-3.422487e-10 1.055168e-10 -4.980851e-09) (-6.487353e-10 6.330339e-10 2.031394e-09)) ((1.030575e-13 -4.156949e-14 2.194427e-12) (1.446889e-11 1.945381e-11 2.701879e-08))
8.182233      	((-1.017330e-10 1.867727e-10 -5.392676e-09) (-5.589782e-10 5.409509e-10 2.279135e-09)) ((7.443179e-14 -5.780276e-14 2.033701e-12) (1.271913e-11 1.744357e-11 2.522042e-08))
9.83068       	((-1.927849e-10 -1.306424e-10 -6.028689e-09) (-4.541522e-10 4.330165e-10 2.536599e-09)) ((6.781184e-14 -8.018097e-14 1.883757e-12) (1.042167e-11 1.492974e-11 2.356430e-08))
11.808816     	((5.684024e-11 -3.101447e-10 -6.506614e-09) (-3.445959e-10 3.294001e-10 2.809111e-09)) ((4.299101e-14 -8.931181e-14 1.747032e-12) (6.996872e-12 1.159327e-11 2.204115e-08))
14.182579     	((7.860881e-11 -2.499650e-10 -7.139602e-09) (-2.548504e-10 2.464359e-10 3.107136e-09)) ((-5.766989e-15 -9.285629e-14 1.612691e-12) (4.200059e-12 8.934886e-12 2.064177e-08))
17.031095     	((1.760100e-10 -1.737864e-10 -7.799998e-09) (-1.838525e-10 1.833141e-10 3.411185e-09)) ((-3.755525e-14 -9.213028e-14 1.495167e-12) (2.936691e-12 7.151557e-12 1.935993e-08))
20.449314     	((2.056357e-10 -2.615191e-10 -8.507001e-09) (-1.432126e-10 1.450394e-10 3.728341e-09)) ((-5.130990e-14 -9.019358e-14 1.388854e-12) (2.515829e-12 6.063804e-12 1.818907e-08))
24.551176     	((2.028852e-10 -1.781991e-10 -9.189231e-09) (-1.274127e-10 1.412219e-10 4.050103e-09)) ((-6.886709e-14 -8.654427e-14 1.292345e-12) (3.192526e-12 5.510628e-12 1.712083e-08))
29.473411     	((1.388939e-10 -1.977426e-10 -1.002723e-08) (-1.349027e-10 1.632799e-10 4.388776e-09)) ((-7.391400e-14 -8.844099e-14 1.210057e-12) (4.388203e-12 5.579316e-12 1.614542e-08))
35.380094     	((1.311938e-10 -1.496285e-10 -1.114627e-08) (-1.566402e-10 1.992665e-10 4.753772e-09)) ((-7.954438e-14 -9.246889e-14 1.136057e-12) (5.795474e-12 6.067374e-12 1.525435e-08))
42.468112     	((5.655600e-11 -1.409191e-10 -1.225233e-08) (-1.815175e-10 2.376099e-10 5.167644e-09)) ((-8.216362e-14 -9.837668e-14 1.068099e-12) (7.060181e-12 6.602141e-12 1.444072e-08))
50.973735     	((3.623842e-11 -1.193962e-10 -1.332233e-08) (-2.084844e-10 2.709662e-10 5.662775e-09)) ((-8.385686e-14 -1.035302e-13 1.005945e-12) (8.104563e-12 7.285086e-12 1.369819e-08))
61.180482     	((-9.165480e-12 -1.144308e-10 -1.427659e-08) (-2.378966e-10 2.986871e-10 6.217149e-09)) ((-8.124515e-14 -1.108444e-13 9.492611e-13) (8.836394e-12 8.156393e-12 1.302083e-08))
73.428578     	((-3.851181e-11 -1.159893e-10 -1.524907e-08) (-2.651686e-10 3.170823e-10 6.802904e-09)) ((-7.767086e-14 -1.153714e-13 8.970259e-13) (9.145444e-12 8.957484e-12 1.240308e-08))
88.126294     	((-7.809328e-11 -1.370577e-10 -1.623587e-08) (-2.914032e-10 3.249346e-10 7.414436e-09)) ((-7.336188e-14 -1.174708e-13 8.491894e-13) (8.883878e-12 9.656760e-12 1.184022e-08))
105.763553    	((-9.338386e-11 -1.298377e-10 -1.722160e-08) (-3.158324e-10 3.246807e-10 8.041445e-09)) ((-6.833569e-14 -1.192409e-13 8.066362e-13) (8.339469e-12 1.031131e-11 1.132764e-08))
126.928263    	((-8.456309e-11 -1.030549e-10 -1.822616e-08) (-3.330613e-10 3.217509e-10 8.681534e-09)) ((-6.793041e-14 -1.223529e-13 7.678149e-13) (7.947359e-12 1.072651e-11 1.086129e-08))
152.325916    	((-8.099041e-11 -6.516151e-11 -1.923191e-08) (-3.417051e-10 3.171734e-10 9.353749e-09)) ((-7.173023e-14 -1.264715e-13 7.323644e-13) (7.694739e-12 1.084440e-11 1.043723e-08))
182.803099    	((-6.867463e-11 -5.287367e-11 -2.020564e-08) (-3.439932e-10 3.086683e-10 1.005858e-08)) ((-7.378563e-14 -1.276827e-13 6.999584e-13) (7.447233e-12 1.065926e-11 1.005136e-08))
219.375719    	((-7.323933e-11 -4.653964e-11 -2.114861e-08) (-3.442928e-10 2.978766e-10 1.078440e-08)) ((-7.499152e-14 -1.276611e-13 6.700383e-13) (7.207236e-12 1.032516e-11 9.699879e-09))
263.262863    	((-8.908888e-11 -6.243058e-11 -2.205345e-08) (-3.425910e-10 2.820383e-10 1.151003e-08)) ((-7.473502e-14 -1.268677e-13 6.421821e-13) (6.635966e-12 1.005671e-11 9.379886e-09))
315.927436    	((-1.082526e-10 -6.814291e-11 -2.292295e-08) (-3.389556e-10 2.633137e-10 1.222612e-08)) ((-7.443722e-14 -1.274843e-13 6.172388e-13) (5.850382e-12 9.876831e-12 9.088789e-09))
379.124923    	((-1.302527e-10 -7.850843e-11 -2.375786e-08) (-3.336866e-10 2.450001e-10 1.294107e-08)) ((-7.469627e-14 -1.278828e-13 5.937245e-13) (5.079902e-12 9.676746e-12 8.824255e-09))
454.961908    	((-1.400102e-10 -8.668514e-11 -2.453302e-08) (-3.274182e-10 2.268299e-10 1.366864e-08)) ((-7.642368e-14 -1.281786e-13 5.726006e-13) (4.364616e-12 9.468652e-12 8.584116e-09))
545.966289    	((-1.361502e-10 -8.587266e-11 -2.525632e-08) (-3.195355e-10 2.086835e-10 1.440458e-08)) ((-7.771660e-14 -1.292271e-13 5.527943e-13) (3.731554e-12 9.196253e-12 8.366625e-09))
655.171547    	((-1.325580e-10 -8.830079e-11 -2.594257e-08) (-3.076370e-10 1.918959e-10 1.513983e-08)) ((-7.771695e-14 -1.302939e-13 5.359658e-13) (3.225333e-12 8.807245e-12 8.170040e-09))
784.704797    	((-1.235837e-10 -8.769499e-11 -2.658955e-08) (-2.921713e-10 1.759730e-10 1.587045e-08)) ((-7.816416e-14 -1.324176e-13 5.211991e-13) (2.905387e-12 8.305177e-12 7.992942e-09))
934.565607    	((-1.128394e-10 -8.533950e-11 -2.717302e-08) (-2.749986e-10 1.625782e-10 1.658812e-08)) ((-7.877380e-14 -1.351102e-13 5.075336e-13) (2.747810e-12 7.684558e-12 7.834134e-09))
1104.753706   	((-1.043162e-10 -8.408877e-11 -2.769944e-08) (-2.577447e-10 1.501309e-10 1.728275e-08)) ((-7.788890e-14 -1.385848e-13 4.953482e-13) (2.631962e-12 7.052221e-12 7.692369e-09))
1295.269064   	((-8.999649e-11 -8.550352e-11 -2.816526e-08) (-2.395459e-10 1.379080e-10 1.795016e-08)) ((-7.606300e-14 -1.413715e-13 4.845793e-13) (2.527640e-12 6.411716e-12 7.566262e-09))
1498.545842   	((-7.721513e-11 -8.451621e-11 -2.857920e-08) (-2.218675e-10 1.266331e-10 1.858422e-08)) ((-7.495651e-14 -1.443105e-13 4.748087e-13) (2.443806e-12 5.785321e-12 7.454512e-09))
1701.830796   	((-6.810441e-11 -7.695668e-11 -2.895165e-08) (-2.051136e-10 1.166826e-10 1.918125e-08)) ((-7.530912e-14 -1.472113e-13 4.658224e-13) (2.365345e-12 5.194704e-12 7.355833e-09))
1905.123915   	((-6.267896e-11 -7.256232e-11 -2.927701e-08) (-1.896055e-10 1.077264e-10 1.974074e-08)) ((-7.547669e-14 -1.500174e-13 4.577413e-13) (2.311466e-12 4.681258e-12 7.268619e-09))
2108.430033   	((-5.830590e-11 -6.734035e-11 -2.956271e-08) (-1.752864e-10 1.009203e-10 2.026188e-08)) ((-7.535942e-14 -1.526930e-13 4.505642e-13) (2.353824e-12 4.233729e-12 7.191439e-09))
2311.748767   	((-5.662649e-11 -6.679172e-11 -2.981521e-08) (-1.624246e-10 9.599912e-11 2.074610e-08)) ((-7.522898e-14 -1.554736e-13 4.442059e-13) (2.428354e-12 3.848936e-12 7.122930e-09))
2515.083096   	((-5.770230e-11 -6.534497e-11 -3.004185e-08) (-1.512364e-10 9.264067e-11 2.119519e-08)) ((-7.505415e-14 -1.580736e-13 4.385454e-13) (2.499380e-12 3.525255e-12 7.061930e-09))
2718.434365   	((-6.058826e-11 -6.348514e-11 -3.024435e-08) (-1.424125e-10 9.006475e-11 2.161323e-08)) ((-7.491559e-14 -1.602904e-13 4.334422e-13) (2.573537e-12 3.272470e-12 7.007392e-09))
2921.801734   	((-6.083243e-11 -6.216376e-11 -3.042590e-08) (-1.349208e-10 8.834252e-11 2.200276e-08)) ((-7.457163e-14 -1.621660e-13 4.287558e-13) (2.648872e-12 3.074134e-12 6.958465e-09))
3125.187081   	((-6.044224e-11 -6.199422e-11 -3.059204e-08) (-1.282965e-10 8.764990e-11 2.236603e-08)) ((-7.413282e-14 -1.632898e-13 4.245382e-13) (2.721858e-12 2.916642e-12 6.914429e-09))
3328.587657   	((-6.135565e-11 -6.184615e-11 -3.074451e-08) (-1.225843e-10 8.695721e-11 2.270571e-08)) ((-7.337438e-14 -1.640821e-13 4.206908e-13) (2.791937e-12 2.796697e-12 6.874651e-09))
3532.003249   	((-6.285698e-11 -6.145430e-11 -3.088370e-08) (-1.179628e-10 8.674373e-11 2.302311e-08)) ((-7.251581e-14 -1.647571e-13 4.172376e-13) (2.858980e-12 2.715922e-12 6.838615e-09))
3735.432113   	((-6.460089e-11 -6.057400e-11 -3.101226e-08) (-1.144637e-10 8.712780e-11 2.331961e-08)) ((-7.194166e-14 -1.660219e-13 4.142096e-13) (2.930944e-12 2.665464e-12 6.805890e-09))
3938.871739   	((-6.661233e-11 -6.047959e-11 -3.113036e-08) (-1.116332e-10 8.741476e-11 2.359672e-08)) ((-7.097888e-14 -1.671265e-13 4.113966e-13) (2.996070e-12 2.641297e-12 6.776090e-09))
4142.319833   	((-6.822087e-11 -6.089803e-11 -3.123912e-08) (-1.096224e-10 8.797313e-11 2.385592e-08)) ((-7.006670e-14 -1.680932e-13 4.088059e-13) (3.053016e-12 2.623843e-12 6.748897e-09))
4345.774068   	((-6.917138e-11 -6.055122e-11 -3.133928e-08) (-1.079144e-10 8.865035e-11 2.409857e-08)) ((-6.923790e-14 -1.689279e-13 4.063286e-13) (3.101030e-12 2.616090e-12 6.724024e-09))
4549.232816   	((-6.978401e-11 -6.066930e-11 -3.143148e-08) (-1.064414e-10 8.940001e-11 2.432620e-08)) ((-6.848125e-14 -1.696487e-13 4.040087e-13) (3.143659e-12 2.614277e-12 6.701232e-09))
4752.693273   	((-7.042092e-11 -6.139570e-11 -3.151635e-08) (-1.050954e-10 9.004698e-11 2.453969e-08)) ((-6.783335e-14 -1.702767e-13 4.018305e-13) (3.181057e-12 2.609634e-12 6.680302e-09))
