# Forces      
# CofR        : (0.000000e+00 0.000000e+00 0.000000e+00)
# Time        forces(pressure viscous)	moments(pressure viscous)
0             	((0.000000e+00 0.000000e+00 0.000000e+00) (-7.578899e-15 -2.518629e-05 1.631651e-15)) ((0.000000e+00 0.000000e+00 0.000000e+00) (-5.659096e-07 -6.299248e-17 1.210641e-11))
0.012         	((7.357360e-09 -7.324663e-03 1.652489e-03) (4.144459e-11 -2.890079e-05 -9.941570e-09)) ((8.638198e-08 5.633443e-09 1.380602e-09) (-8.340629e-07 -3.379523e-15 2.502240e-11))
0.0264        	((-1.318711e-07 5.101658e-04 -1.052211e-04) (-4.004725e-11 -2.948418e-05 -1.523407e-08)) ((-6.102167e-09 -3.558453e-10 -8.795463e-11) (-9.337629e-07 5.254141e-12 3.289177e-11))
0.04368       	((7.996997e-08 1.530732e-03 -1.202879e-04) (-5.340051e-11 -2.619951e-05 -1.181455e-08)) ((-1.993336e-08 -4.156267e-10 -3.768235e-10) (-8.318604e-07 8.487852e-12 2.796720e-11))
0.064416      	((1.605952e-08 1.438176e-05 -6.066290e-05) (-4.327237e-10 -2.320524e-05 -5.440123e-09)) ((9.770982e-11 -1.994688e-10 2.177549e-11) (-7.468259e-07 4.771078e-12 3.308341e-11))
0.0892992     	((-1.280668e-08 -2.012497e-05 -3.750459e-05) (-7.791699e-10 -2.142333e-05 -4.164455e-09)) ((8.061475e-10 -1.194608e-10 2.006842e-11) (-7.059923e-07 1.915966e-12 3.443393e-11))
0.119159      	((-1.172060e-08 2.306342e-05 -2.304448e-05) (-7.361439e-10 -1.978204e-05 -7.565700e-09)) ((-4.312609e-10 -7.463003e-11 -4.915403e-12) (-6.606450e-07 3.384779e-12 2.854879e-11))
0.154991      	((7.394106e-09 1.236356e-05 -1.480813e-05) (-6.419773e-10 -1.804328e-05 -1.075694e-08)) ((-2.652732e-10 -4.419564e-11 1.548970e-13) (-6.102155e-07 2.602149e-12 2.249288e-11))
0.197989      	((6.633207e-09 2.979734e-06 -9.387570e-06) (-4.893451e-10 -1.629069e-05 -1.308416e-08)) ((-9.409436e-11 -2.611393e-11 1.522545e-13) (-5.589305e-07 -6.526194e-13 1.228443e-11))
0.249587      	((3.201528e-10 -4.199243e-07 -6.150142e-06) (-3.109089e-10 -1.457344e-05 -1.554574e-08)) ((-2.779544e-11 -1.613020e-11 1.542819e-12) (-5.076890e-07 -3.985838e-12 5.128943e-12))
0.311504      	((-1.626299e-09 -1.971513e-06 -4.008284e-06) (-1.494658e-10 -1.294365e-05 -1.842409e-08)) ((-6.708790e-12 -8.745643e-12 1.665809e-12) (-4.575150e-07 -8.127130e-12 -2.996024e-12))
0.385805      	((-5.177019e-10 -2.718566e-06 -2.739941e-06) (-1.499936e-11 -1.144322e-05 -2.133945e-08)) ((3.568188e-13 -4.281357e-12 1.284698e-12) (-4.096563e-07 -1.174850e-11 -9.591248e-12))
0.474966      	((-2.371828e-10 -3.081910e-06 -1.872474e-06) (8.532260e-11 -1.010010e-05 -2.413059e-08)) ((6.736172e-12 -1.307441e-12 1.120628e-12) (-3.653970e-07 -1.309838e-11 -5.563255e-12))
0.581959      	((3.852771e-10 -3.231459e-06 -1.369595e-06) (1.641499e-10 -8.923161e-06 -2.696369e-08)) ((1.185922e-11 1.678251e-13 9.762202e-13) (-3.254464e-07 -1.217745e-11 2.300786e-12))
0.710351      	((2.776120e-10 -3.220436e-06 -1.036741e-06) (2.174542e-10 -7.910156e-06 -2.970086e-08)) ((1.523201e-11 1.189472e-12 8.202043e-13) (-2.901839e-07 -1.026357e-11 4.979012e-12))
0.864421      	((3.511573e-10 -3.105075e-06 -8.598619e-07) (2.653364e-10 -7.048137e-06 -3.203130e-08)) ((1.660079e-11 1.690753e-12 8.495706e-13) (-2.596070e-07 -8.259580e-12 4.816093e-12))
1.049306      	((3.555620e-10 -2.934176e-06 -7.443491e-07) (2.943377e-10 -6.316327e-06 -3.410703e-08)) ((1.644220e-11 1.994150e-12 8.456457e-13) (-2.332861e-07 -6.465767e-12 3.856871e-12))
1.271167      	((4.645208e-10 -2.743145e-06 -6.926202e-07) (2.994944e-10 -5.693094e-06 -3.613137e-08)) ((1.561241e-11 2.099336e-12 7.612376e-13) (-2.105753e-07 -4.585071e-12 2.961035e-12))
1.5374        	((4.363292e-10 -2.546075e-06 -6.632172e-07) (2.299101e-10 -5.155862e-06 -3.836757e-08)) ((1.454898e-11 2.163702e-12 7.427029e-13) (-1.907988e-07 -3.150538e-12 3.377347e-12))
1.85688       	((4.102654e-10 -2.352355e-06 -6.614144e-07) (1.426485e-10 -4.684358e-06 -4.099072e-08)) ((1.329977e-11 2.119656e-12 7.336769e-13) (-1.733693e-07 -2.499860e-12 6.048668e-12))
2.240256      	((2.108334e-10 -2.168179e-06 -6.657950e-07) (1.221751e-10 -4.265240e-06 -4.392574e-08)) ((1.228000e-11 2.063023e-12 7.171668e-13) (-1.578585e-07 -1.679019e-12 9.567013e-12))
2.700307      	((1.917925e-10 -1.996214e-06 -6.814727e-07) (1.452450e-10 -3.890040e-06 -4.712722e-08)) ((1.139534e-11 1.956706e-12 7.060369e-13) (-1.439680e-07 -1.273846e-12 1.282656e-11))
3.252369      	((1.085846e-10 -1.836497e-06 -6.964315e-07) (1.222604e-10 -3.552744e-06 -5.057371e-08)) ((1.050821e-11 1.832343e-12 6.790434e-13) (-1.314778e-07 -1.391770e-12 1.450401e-11))
3.914842      	((1.134091e-10 -1.687015e-06 -7.147172e-07) (7.532062e-11 -3.248719e-06 -5.425068e-08)) ((9.628863e-12 1.699480e-12 6.254204e-13) (-1.202178e-07 -8.539365e-13 1.386323e-11))
4.709811      	((2.040802e-10 -1.548719e-06 -7.314315e-07) (8.341822e-11 -2.974538e-06 -5.817735e-08)) ((8.835232e-12 1.580389e-12 5.519258e-13) (-1.100619e-07 -2.820520e-13 1.282397e-11))
5.663773      	((1.976456e-10 -1.421724e-06 -7.475058e-07) (9.380508e-11 -2.727754e-06 -6.237622e-08)) ((8.158835e-12 1.489010e-12 4.876986e-13) (-1.009181e-07 -2.209583e-14 1.180413e-11))
6.808528      	((1.855967e-10 -1.306088e-06 -7.603793e-07) (7.251636e-11 -2.506225e-06 -6.687888e-08)) ((7.592386e-12 1.393330e-12 4.205166e-13) (-9.270747e-08 4.102553e-13 1.122647e-11))
8.182233      	((1.473741e-10 -1.201606e-06 -7.706151e-07) (5.122740e-11 -2.307604e-06 -7.168788e-08)) ((7.098951e-12 1.299051e-12 3.556858e-13) (-8.534577e-08 8.254192e-13 1.139194e-11))
9.83068       	((1.184795e-10 -1.107582e-06 -7.784117e-07) (4.025485e-11 -2.129276e-06 -7.678897e-08)) ((6.646153e-12 1.219592e-12 3.100126e-13) (-7.873774e-08 9.072907e-13 1.089192e-11))
11.808816     	((1.204374e-10 -1.022813e-06 -7.841741e-07) (1.995120e-11 -1.968708e-06 -8.224864e-08)) ((6.254080e-12 1.139095e-12 2.736494e-13) (-7.278900e-08 5.837962e-13 9.093569e-12))
14.182579     	((9.523862e-11 -9.466861e-07 -7.882942e-07) (-6.971504e-12 -1.823705e-06 -8.811056e-08)) ((5.937023e-12 1.052977e-12 2.439303e-13) (-6.741729e-08 2.358656e-13 7.241542e-12))
17.031095     	((9.498778e-11 -8.789000e-07 -7.909095e-07) (-1.973058e-11 -1.692464e-06 -9.438244e-08)) ((5.674830e-12 9.721452e-13 2.230056e-13) (-6.255468e-08 2.025641e-13 6.131816e-12))
20.449314     	((1.075700e-11 -8.188600e-07 -7.918841e-07) (-2.437878e-11 -1.573541e-06 -1.010858e-07)) ((5.473353e-12 9.067196e-13 2.105095e-13) (-5.814744e-08 4.195614e-13 5.712734e-12))
24.551176     	((-6.270985e-11 -7.662582e-07 -7.915318e-07) (-3.260254e-11 -1.465915e-06 -1.081761e-07)) ((5.344684e-12 8.510496e-13 2.062720e-13) (-5.415802e-08 9.439024e-13 5.692885e-12))
29.473411     	((-1.095784e-10 -7.211043e-07 -7.895579e-07) (-5.191770e-11 -1.368835e-06 -1.155582e-07)) ((5.282548e-12 7.933266e-13 2.074624e-13) (-5.055848e-08 1.895595e-12 5.218486e-12))
35.380094     	((-1.090241e-10 -6.826997e-07 -7.858754e-07) (-7.607138e-11 -1.281607e-06 -1.231447e-07)) ((5.281675e-12 7.416755e-13 2.138439e-13) (-4.732350e-08 3.137367e-12 3.722426e-12))
42.468112     	((-2.044114e-10 -6.509102e-07 -7.810801e-07) (-9.560676e-11 -1.203580e-06 -1.308249e-07)) ((5.346714e-12 6.901978e-13 2.271538e-13) (-4.442979e-08 4.509442e-12 1.908027e-12))
50.973735     	((-2.796280e-10 -6.252587e-07 -7.744421e-07) (-1.090771e-10 -1.134120e-06 -1.384937e-07)) ((5.470978e-12 6.433382e-13 2.448267e-13) (-4.185441e-08 5.829805e-12 -3.797236e-13))
61.180482     	((-2.768661e-10 -6.055262e-07 -7.662968e-07) (-1.183479e-10 -1.072601e-06 -1.460549e-07)) ((5.659893e-12 6.014432e-13 2.657538e-13) (-3.957574e-08 6.790046e-12 -3.654394e-12))
73.428578     	((-2.696078e-10 -5.916146e-07 -7.567179e-07) (-1.195187e-10 -1.018462e-06 -1.534363e-07)) ((5.912359e-12 5.690071e-13 2.876001e-13) (-3.757475e-08 7.237973e-12 -7.043679e-12))
88.126294     	((-2.413652e-10 -5.830132e-07 -7.457655e-07) (-1.220567e-10 -9.712080e-07 -1.605848e-07)) ((6.229359e-12 5.440045e-13 3.126813e-13) (-3.583541e-08 7.226469e-12 -1.036706e-11))
105.763553    	((-1.788066e-10 -5.791629e-07 -7.335294e-07) (-1.229143e-10 -9.304325e-07 -1.674954e-07)) ((6.600439e-12 5.279982e-13 3.410390e-13) (-3.434472e-08 6.608737e-12 -1.378360e-11))
126.928263    	((-9.984431e-11 -5.792379e-07 -7.198249e-07) (-1.234879e-10 -8.957676e-07 -1.741594e-07)) ((7.003239e-12 5.221989e-13 3.726491e-13) (-3.308986e-08 5.731459e-12 -1.693421e-11))
152.325916    	((-3.460820e-11 -5.827769e-07 -7.048821e-07) (-1.257424e-10 -8.668792e-07 -1.804975e-07)) ((7.408061e-12 5.286131e-13 4.055019e-13) (-3.205655e-08 4.679319e-12 -1.975617e-11))
182.803099    	((4.446223e-11 -5.885655e-07 -6.883310e-07) (-1.287999e-10 -8.433242e-07 -1.863210e-07)) ((7.771306e-12 5.507542e-13 4.357347e-13) (-3.122369e-08 3.310936e-12 -2.193276e-11))
218.498566    	((1.205369e-10 -5.951927e-07 -6.701398e-07) (-1.214564e-10 -8.245854e-07 -1.913375e-07)) ((8.064750e-12 5.820376e-13 4.592934e-13) (-3.056508e-08 1.840174e-12 -2.317488e-11))
259.39093     	((2.073862e-10 -6.008007e-07 -6.506042e-07) (-1.088888e-10 -8.097139e-07 -1.953504e-07)) ((8.286850e-12 6.160681e-13 4.751756e-13) (-3.004254e-08 4.524990e-13 -2.375710e-11))
305.46939     	((3.098697e-10 -6.046395e-07 -6.303425e-07) (-8.856256e-11 -7.977665e-07 -1.983670e-07)) ((8.452384e-12 6.516183e-13 4.852840e-13) (-2.962154e-08 -9.070424e-13 -2.376079e-11))
356.735677    	((3.834761e-10 -6.067574e-07 -6.105435e-07) (-6.527072e-11 -7.879608e-07 -2.005405e-07)) ((8.575209e-12 6.868770e-13 4.936963e-13) (-2.927734e-08 -2.119478e-12 -2.349749e-11))
408.692801    	((4.405567e-10 -6.081945e-07 -5.928010e-07) (-4.039897e-11 -7.799655e-07 -2.021174e-07)) ((8.664573e-12 7.216769e-13 5.014815e-13) (-2.899854e-08 -3.162779e-12 -2.304824e-11))
460.726568    	((4.773753e-10 -6.087898e-07 -5.775550e-07) (-1.833230e-11 -7.732916e-07 -2.033387e-07)) ((8.719375e-12 7.562076e-13 5.066993e-13) (-2.876821e-08 -4.033122e-12 -2.248109e-11))
512.819154    	((5.035598e-10 -6.091499e-07 -5.644871e-07) (2.449142e-12 -7.677474e-07 -2.043283e-07)) ((8.757203e-12 7.873495e-13 5.115131e-13) (-2.857851e-08 -4.709015e-12 -2.178029e-11))
564.957836    	((5.170183e-10 -6.093176e-07 -5.534449e-07) (2.007610e-11 -7.631135e-07 -2.051550e-07)) ((8.779496e-12 8.145047e-13 5.156736e-13) (-2.842119e-08 -5.222922e-12 -2.095703e-11))
617.136185    	((5.153218e-10 -6.093769e-07 -5.440788e-07) (3.540045e-11 -7.592415e-07 -2.058579e-07)) ((8.793696e-12 8.372531e-13 5.189872e-13) (-2.829064e-08 -5.518967e-12 -2.004191e-11))
669.348178    	((5.037799e-10 -6.093515e-07 -5.360967e-07) (4.790307e-11 -7.559930e-07 -2.064652e-07)) ((8.803744e-12 8.571781e-13 5.214266e-13) (-2.818176e-08 -5.666024e-12 -1.908571e-11))
721.588675    	((4.791298e-10 -6.092876e-07 -5.291869e-07) (5.632557e-11 -7.532628e-07 -2.069957e-07)) ((8.810582e-12 8.742327e-13 5.237996e-13) (-2.809066e-08 -5.653234e-12 -1.809368e-11))
773.853396    	((4.504847e-10 -6.092039e-07 -5.232096e-07) (6.120251e-11 -7.509617e-07 -2.074572e-07)) ((8.814618e-12 8.894281e-13 5.260704e-13) (-2.801433e-08 -5.459341e-12 -1.711785e-11))
826.138641    	((4.172538e-10 -6.091067e-07 -5.180043e-07) (6.279435e-11 -7.490190e-07 -2.078577e-07)) ((8.817432e-12 9.025704e-13 5.276423e-13) (-2.795030e-08 -5.176332e-12 -1.615868e-11))
878.441296    	((3.809373e-10 -6.090074e-07 -5.135109e-07) (6.255583e-11 -7.473766e-07 -2.082077e-07)) ((8.819219e-12 9.139134e-13 5.290109e-13) (-2.789635e-08 -4.791387e-12 -1.520152e-11))
930.758757    	((3.433811e-10 -6.089087e-07 -5.096224e-07) (6.017906e-11 -7.459856e-07 -2.085124e-07)) ((8.819954e-12 9.237701e-13 5.301711e-13) (-2.785084e-08 -4.322951e-12 -1.429238e-11))
983.088828    	((3.041992e-10 -6.088141e-07 -5.062673e-07) (5.650808e-11 -7.448044e-07 -2.087768e-07)) ((8.820350e-12 9.322366e-13 5.311946e-13) (-2.781237e-08 -3.791803e-12 -1.340717e-11))
1035.429661   	((2.664414e-10 -6.087250e-07 -5.033616e-07) (5.162981e-11 -7.438002e-07 -2.090057e-07)) ((8.820816e-12 9.394819e-13 5.320515e-13) (-2.777980e-08 -3.233687e-12 -1.254624e-11))
1087.779695   	((2.298580e-10 -6.086440e-07 -5.008520e-07) (4.637932e-11 -7.429458e-07 -2.092037e-07)) ((8.821209e-12 9.455433e-13 5.327564e-13) (-2.775218e-08 -2.663647e-12 -1.171843e-11))
1140.137608   	((1.943012e-10 -6.085703e-07 -4.986800e-07) (4.050500e-11 -7.422177e-07 -2.093745e-07)) ((8.821474e-12 9.508672e-13 5.333093e-13) (-2.772872e-08 -2.087001e-12 -1.093987e-11))
1192.502281   	((1.613568e-10 -6.085032e-07 -4.968035e-07) (3.370035e-11 -7.415962e-07 -2.095220e-07)) ((8.821577e-12 9.555417e-13 5.337490e-13) (-2.770875e-08 -1.519355e-12 -1.023396e-11))
1244.872761   	((1.297380e-10 -6.084432e-07 -4.951819e-07) (2.635123e-11 -7.410650e-07 -2.096497e-07)) ((8.821569e-12 9.595404e-13 5.341161e-13) (-2.769171e-08 -9.647699e-13 -9.604566e-12))
1297.248238   	((1.007517e-10 -6.083894e-07 -4.937804e-07) (1.948430e-11 -7.406102e-07 -2.097598e-07)) ((8.821458e-12 9.630591e-13 5.344123e-13) (-2.767717e-08 -4.207072e-13 -9.006217e-12))
1349.628018   	((7.367982e-11 -6.083412e-07 -4.925688e-07) (1.281216e-11 -7.402204e-07 -2.098550e-07)) ((8.821369e-12 9.660284e-13 5.346685e-13) (-2.766473e-08 1.010211e-13 -8.452310e-12))
1402.011506   	((4.906497e-11 -6.082991e-07 -4.915219e-07) (6.104763e-12 -7.398860e-07 -2.099370e-07)) ((8.821284e-12 9.685702e-13 5.348832e-13) (-2.765408e-08 5.906293e-13 -7.951367e-12))
1454.398191   	((2.656029e-11 -6.082617e-07 -4.906177e-07) (-3.499313e-13 -7.395991e-07 -2.100077e-07)) ((8.821178e-12 9.707295e-13 5.350750e-13) (-2.764496e-08 1.048999e-12 -7.494756e-12))
1506.787634   	((6.740354e-12 -6.082289e-07 -4.898368e-07) (-6.409921e-12 -7.393529e-07 -2.100686e-07)) ((8.821039e-12 9.725809e-13 5.352337e-13) (-2.763714e-08 1.471089e-12 -7.077747e-12))
1559.179457   	((-1.115652e-11 -6.081998e-07 -4.891620e-07) (-1.199180e-11 -7.391414e-07 -2.101212e-07)) ((8.820920e-12 9.741748e-13 5.353749e-13) (-2.763043e-08 1.855309e-12 -6.696776e-12))
1611.573333   	((-2.713239e-11 -6.081741e-07 -4.885790e-07) (-1.707064e-11 -7.389598e-07 -2.101665e-07)) ((8.820810e-12 9.755519e-13 5.355035e-13) (-2.762467e-08 2.206920e-12 -6.351549e-12))
1663.968982   	((-4.137118e-11 -6.081516e-07 -4.880752e-07) (-2.173231e-11 -7.388036e-07 -2.102056e-07)) ((8.820710e-12 9.767433e-13 5.356158e-13) (-2.761972e-08 2.528563e-12 -6.043880e-12))
1716.366161   	((-5.388671e-11 -6.081318e-07 -4.876405e-07) (-2.593790e-11 -7.386694e-07 -2.102392e-07)) ((8.820631e-12 9.777765e-13 5.357082e-13) (-2.761546e-08 2.820117e-12 -5.768789e-12))
1768.764662   	((-6.482682e-11 -6.081150e-07 -4.872656e-07) (-2.972782e-11 -7.385539e-07 -2.102681e-07)) ((8.820542e-12 9.786752e-13 5.357825e-13) (-2.761180e-08 3.080909e-12 -5.523377e-12))
1821.164305   	((-7.458914e-11 -6.080996e-07 -4.869430e-07) (-3.313346e-11 -7.384545e-07 -2.102930e-07)) ((8.820461e-12 9.794418e-13 5.358438e-13) (-2.760866e-08 3.313418e-12 -5.305680e-12))
1873.564933   	((-8.317007e-11 -6.080865e-07 -4.866626e-07) (-3.617599e-11 -7.383690e-07 -2.103144e-07)) ((8.820399e-12 9.801031e-13 5.358978e-13) (-2.760595e-08 3.520447e-12 -5.112578e-12))
1925.966413   	((-9.072809e-11 -6.080750e-07 -4.864208e-07) (-3.891235e-11 -7.382954e-07 -2.103328e-07)) ((8.820343e-12 9.806637e-13 5.359430e-13) (-2.760362e-08 3.704738e-12 -4.942569e-12))
1978.368629   	((-9.740033e-11 -6.080651e-07 -4.862104e-07) (-4.135627e-11 -7.382319e-07 -2.103486e-07)) ((8.820299e-12 9.811535e-13 5.359804e-13) (-2.760161e-08 3.868378e-12 -4.793441e-12))
2030.771481   	((-1.032298e-10 -6.080564e-07 -4.860307e-07) (-4.352955e-11 -7.381773e-07 -2.103622e-07)) ((8.820264e-12 9.815662e-13 5.360133e-13) (-2.759988e-08 4.013160e-12 -4.662719e-12))
2083.174882   	((-1.083736e-10 -6.080489e-07 -4.858749e-07) (-4.544254e-11 -7.381302e-07 -2.103740e-07)) ((8.820238e-12 9.819199e-13 5.360435e-13) (-2.759839e-08 4.141135e-12 -4.547448e-12))
2135.578758   	((-1.127921e-10 -6.080425e-07 -4.857420e-07) (-4.712623e-11 -7.380897e-07 -2.103841e-07)) ((8.820213e-12 9.822226e-13 5.360693e-13) (-2.759711e-08 4.253878e-12 -4.446029e-12))
2187.983043   	((-1.167145e-10 -6.080368e-07 -4.856261e-07) (-4.860124e-11 -7.380547e-07 -2.103927e-07)) ((8.820193e-12 9.824850e-13 5.360912e-13) (-2.759600e-08 4.353068e-12 -4.356659e-12))
2240.387683   	((-1.201413e-10 -6.080321e-07 -4.855264e-07) (-4.989912e-11 -7.380246e-07 -2.104002e-07)) ((8.820179e-12 9.827091e-13 5.361112e-13) (-2.759505e-08 4.440401e-12 -4.278051e-12))
2292.792628   	((-1.231690e-10 -6.080276e-07 -4.854400e-07) (-5.104334e-11 -7.379986e-07 -2.104066e-07)) ((8.820159e-12 9.829001e-13 5.361311e-13) (-2.759423e-08 4.517252e-12 -4.209119e-12))
2345.197838   	((-1.258430e-10 -6.080239e-07 -4.853655e-07) (-5.204535e-11 -7.379762e-07 -2.104122e-07)) ((8.820146e-12 9.830637e-13 5.361475e-13) (-2.759352e-08 4.584782e-12 -4.148613e-12))
2397.603276   	((-1.282227e-10 -6.080208e-07 -4.852999e-07) (-5.292365e-11 -7.379569e-07 -2.104169e-07)) ((8.820137e-12 9.832076e-13 5.361614e-13) (-2.759291e-08 4.644109e-12 -4.095431e-12))
2450.008912   	((-1.302430e-10 -6.080181e-07 -4.852452e-07) (-5.369163e-11 -7.379402e-07 -2.104210e-07)) ((8.820132e-12 9.833265e-13 5.361733e-13) (-2.759238e-08 4.696130e-12 -4.048660e-12))
2502.414717   	((-1.320624e-10 -6.080156e-07 -4.851975e-07) (-5.436508e-11 -7.379258e-07 -2.104246e-07)) ((8.820124e-12 9.834296e-13 5.361836e-13) (-2.759193e-08 4.741823e-12 -4.007559e-12))
2554.820671   	((-1.336928e-10 -6.080136e-07 -4.851555e-07) (-5.495754e-11 -7.379135e-07 -2.104276e-07)) ((8.820117e-12 9.835189e-13 5.361927e-13) (-2.759154e-08 4.781967e-12 -3.971453e-12))
2607.226751   	((-1.350732e-10 -6.080118e-07 -4.851206e-07) (-5.547606e-11 -7.379028e-07 -2.104302e-07)) ((8.820114e-12 9.835928e-13 5.362005e-13) (-2.759120e-08 4.817140e-12 -3.939767e-12))
2659.632942   	((-1.363017e-10 -6.080103e-07 -4.850894e-07) (-5.593142e-11 -7.378936e-07 -2.104325e-07)) ((8.820110e-12 9.836597e-13 5.362071e-13) (-2.759091e-08 4.848063e-12 -3.911984e-12))
2712.039228   	((-1.373938e-10 -6.080088e-07 -4.850630e-07) (-5.632965e-11 -7.378856e-07 -2.104344e-07)) ((8.820105e-12 9.837154e-13 5.362131e-13) (-2.759066e-08 4.875167e-12 -3.887600e-12))
2764.445596   	((-1.383463e-10 -6.080076e-07 -4.850399e-07) (-5.668040e-11 -7.378788e-07 -2.104361e-07)) ((8.820101e-12 9.837637e-13 5.362181e-13) (-2.759044e-08 4.898999e-12 -3.866243e-12))
2816.852036   	((-1.391717e-10 -6.080066e-07 -4.850204e-07) (-5.699141e-11 -7.378729e-07 -2.104375e-07)) ((8.820098e-12 9.838033e-13 5.362223e-13) (-2.759025e-08 4.920016e-12 -3.847526e-12))
2869.258537   	((-1.399098e-10 -6.080058e-07 -4.850035e-07) (-5.726464e-11 -7.378678e-07 -2.104388e-07)) ((8.820096e-12 9.838378e-13 5.362261e-13) (-2.759009e-08 4.938444e-12 -3.831125e-12))
