# Forces      
# CofR        : (0.000000e+00 0.000000e+00 0.000000e+00)
# Time        forces(pressure viscous)	moments(pressure viscous)
0             	((0.000000e+00 0.000000e+00 0.000000e+00) (0.000000e+00 0.000000e+00 0.000000e+00)) ((0.000000e+00 0.000000e+00 0.000000e+00) (0.000000e+00 0.000000e+00 0.000000e+00))
0.012         	((5.159235e-12 -1.201861e-09 1.562761e-11) (1.539280e-13 -1.347977e-11 5.741596e-14)) ((8.645304e-14 3.241642e-16 1.654495e-11) (-2.574098e-13 -7.033549e-15 3.364411e-08))
0.0264        	((-3.941860e-12 4.358839e-10 -3.637610e-11) (1.750113e-13 -1.438165e-11 8.678641e-14)) ((2.033924e-13 -1.476526e-15 4.961233e-12) (-4.578743e-13 -6.737337e-15 2.944635e-08))
0.04368       	((2.315196e-11 -2.196587e-10 2.097632e-11) (2.187212e-13 -9.428064e-12 1.882496e-13)) ((-9.350834e-14 2.780934e-16 2.597465e-12) (-3.868384e-13 -9.158018e-15 2.546517e-08))
0.064416      	((1.630943e-11 -1.757668e-11 -1.015370e-11) (2.144656e-13 -5.046672e-12 1.560618e-13)) ((2.613821e-14 4.327886e-16 1.741919e-12) (-1.974421e-13 -1.122420e-14 2.180948e-08))
0.0892992     	((2.344898e-11 -1.059225e-10 4.930844e-12) (1.798738e-13 -3.200786e-12 2.023083e-14)) ((-2.848213e-14 2.098921e-15 1.401917e-12) (-9.469370e-14 -1.085786e-14 1.857599e-08))
0.119159      	((9.665412e-12 -9.126175e-12 2.341034e-12) (2.631443e-13 -2.723900e-12 -3.582770e-14)) ((-1.743189e-14 1.670962e-15 1.112220e-12) (3.736832e-14 -1.345181e-14 1.580977e-08))
0.154991      	((1.772957e-11 -8.861998e-11 5.370034e-13) (3.136384e-13 -2.023193e-12 -2.440825e-14)) ((-1.669296e-14 2.126808e-15 8.882159e-13) (1.334668e-13 -1.485313e-14 1.353076e-08))
0.197989      	((1.621874e-11 -6.893626e-11 1.241543e-12) (1.591923e-13 -1.266963e-12 1.163400e-13)) ((-1.323402e-14 1.292023e-15 6.942351e-13) (1.830109e-13 -6.655676e-15 1.170040e-08))
0.249587      	((2.282278e-11 -8.003684e-11 -8.985067e-13) (-7.939244e-14 -4.409281e-13 3.739694e-13)) ((-1.343951e-14 9.397327e-16 5.727372e-13) (1.682539e-13 6.497455e-15 1.024411e-08))
0.311504      	((3.614651e-11 -1.035060e-10 3.360837e-12) (-2.267121e-13 2.734809e-13 6.182928e-13)) ((-9.622148e-15 -1.037735e-17 5.063802e-13) (1.402747e-13 1.420525e-14 9.073743e-09))
0.385805      	((4.387008e-11 -1.335759e-10 1.898996e-12) (-1.954970e-13 -2.647035e-13 8.936927e-13)) ((-7.257643e-15 2.520543e-16 4.414410e-13) (1.065479e-13 1.705073e-14 8.109354e-09))
0.474966      	((5.964348e-11 -1.620916e-10 6.925518e-12) (-4.234555e-13 -7.279157e-13 1.269086e-12)) ((8.977917e-16 -3.161684e-16 3.851701e-13) (3.376416e-14 2.024730e-14 7.291022e-09))
0.581959      	((7.851249e-11 -2.097539e-10 9.280886e-12) (-7.089934e-13 -1.366919e-12 1.811020e-12)) ((4.639732e-15 2.301296e-17 3.572206e-13) (-1.109374e-13 2.580348e-14 6.579399e-09))
0.710351      	((9.733184e-11 -2.081892e-10 1.258153e-11) (-1.618097e-12 -3.310095e-12 2.594225e-12)) ((9.104727e-15 1.785637e-16 3.398664e-13) (-2.322358e-13 4.300903e-14 5.950065e-09))
0.864421      	((1.082022e-10 -1.679669e-10 1.019596e-11) (-3.364341e-12 -2.537573e-12 3.092033e-12)) ((1.418512e-14 8.543963e-16 3.237432e-13) (-2.102407e-13 8.024304e-14 5.387657e-09))
1.049306      	((1.152471e-10 -1.509787e-10 6.352095e-12) (-5.578885e-12 2.054635e-12 3.931505e-12)) ((1.782783e-14 1.364134e-15 3.064641e-13) (-7.982372e-14 1.194879e-13 4.882691e-09))
1.271167      	((1.013133e-10 -1.313519e-10 6.784646e-12) (-9.854159e-12 8.320194e-12 5.022187e-12)) ((2.260715e-14 2.396501e-15 2.935130e-13) (8.099855e-14 2.070235e-13 4.430374e-09))
1.5374        	((7.770559e-11 -1.286257e-10 1.651433e-12) (-1.657187e-11 1.549321e-11 5.765732e-12)) ((2.021350e-14 2.766332e-15 2.841456e-13) (2.583560e-13 3.812838e-13 4.028390e-09))
1.85688       	((5.527447e-11 -9.946917e-11 -7.664722e-12) (-2.472781e-11 2.087339e-11 6.656564e-12)) ((1.850129e-14 3.648737e-15 2.721698e-13) (4.545078e-13 5.815752e-13 3.674530e-09))
2.240256      	((3.008011e-11 -6.667911e-11 -1.406936e-11) (-3.454213e-11 2.658979e-11 7.903820e-12)) ((2.149942e-14 4.126359e-15 2.574140e-13) (7.028953e-13 8.474098e-13 3.365274e-09))
2.700307      	((1.741165e-11 -4.165230e-11 -2.245412e-11) (-4.491586e-11 3.571415e-11 9.817010e-12)) ((1.985520e-14 4.042220e-15 2.444607e-13) (1.030663e-12 1.170791e-12 3.095411e-09))
3.252369      	((-2.329456e-12 -2.506897e-11 -1.991251e-11) (-5.482490e-11 4.643017e-11 1.171652e-11)) ((1.644612e-14 3.667023e-15 2.277782e-13) (1.330541e-12 1.469116e-12 2.858812e-09))
3.914842      	((-2.711899e-12 9.375836e-12 -2.498387e-11) (-6.147358e-11 5.554042e-11 1.308790e-11)) ((1.245799e-14 2.770974e-15 2.126870e-13) (1.506349e-12 1.662889e-12 2.649272e-09))
4.709811      	((-1.613514e-11 3.492449e-11 -2.965669e-11) (-6.434626e-11 6.114666e-11 1.467197e-11)) ((8.576492e-15 1.434873e-15 1.995501e-13) (1.606609e-12 1.761785e-12 2.461512e-09))
5.663773      	((-2.042244e-11 1.613496e-11 -3.406492e-11) (-6.341247e-11 6.176754e-11 1.609408e-11)) ((8.753953e-15 9.139250e-17 1.860965e-13) (1.573901e-12 1.770019e-12 2.291683e-09))
6.808528      	((-2.214068e-11 1.598711e-11 -3.619098e-11) (-5.831135e-11 5.705240e-11 1.719760e-11)) ((7.974637e-15 -3.830055e-16 1.733488e-13) (1.405417e-12 1.655024e-12 2.136758e-09))
8.182233      	((-1.607872e-11 1.229947e-11 -3.767739e-11) (-5.038920e-11 4.863128e-11 1.860637e-11)) ((5.421175e-15 -1.308191e-15 1.609921e-13) (1.209765e-12 1.442845e-12 1.994420e-09))
9.83068       	((-1.791140e-11 -7.527023e-12 -4.197044e-11) (-4.058561e-11 3.880051e-11 1.996779e-11)) ((5.838416e-15 -2.195128e-15 1.495475e-13) (9.639167e-13 1.197302e-12 1.863398e-09))
11.808816     	((1.172854e-13 -2.780211e-11 -4.342216e-11) (-3.049094e-11 2.869433e-11 2.200881e-11)) ((3.071594e-15 -3.208004e-15 1.388638e-13) (6.607339e-13 9.338024e-13 1.743118e-09))
14.182579     	((1.530553e-12 -1.898739e-11 -4.735886e-11) (-2.172083e-11 2.037012e-11 2.406803e-11)) ((3.009454e-17 -3.547226e-15 1.285963e-13) (3.969652e-13 7.078134e-13 1.632855e-09))
17.031095     	((1.357693e-11 -1.866479e-11 -4.891573e-11) (-1.499230e-11 1.408036e-11 2.579089e-11)) ((-2.625684e-15 -2.943932e-15 1.196350e-13) (2.603850e-13 5.361939e-13 1.531911e-09))
20.449314     	((1.666702e-11 -2.160727e-11 -5.190508e-11) (-1.096144e-11 1.029172e-11 2.750402e-11)) ((-3.441132e-15 -2.860390e-15 1.113161e-13) (1.930768e-13 4.415854e-13 1.439621e-09))
24.551176     	((2.239160e-11 -2.351219e-11 -5.478375e-11) (-9.517520e-12 9.107213e-12 2.890521e-11)) ((-4.553630e-15 -2.611734e-15 1.038817e-13) (2.023485e-13 4.086210e-13 1.355216e-09))
29.473411     	((1.830576e-11 -1.843764e-11 -6.005885e-11) (-1.029443e-11 1.068560e-11 3.081683e-11)) ((-4.674768e-15 -2.423731e-15 9.741091e-14) (2.613498e-13 4.223032e-13 1.277922e-09))
35.380094     	((1.628414e-11 -1.697592e-11 -6.944342e-11) (-1.269221e-11 1.426402e-11 3.265888e-11)) ((-4.846008e-15 -2.297655e-15 9.170680e-14) (3.738039e-13 4.669308e-13 1.207067e-09))
42.468112     	((1.133900e-11 -1.214459e-11 -7.762065e-11) (-1.578616e-11 1.849255e-11 3.473095e-11)) ((-5.009412e-15 -2.224825e-15 8.657981e-14) (4.985253e-13 5.245072e-13 1.142153e-09))
50.973735     	((1.111231e-11 -1.232771e-11 -8.468753e-11) (-1.862111e-11 2.202592e-11 3.744397e-11)) ((-5.062583e-15 -2.071662e-15 8.167496e-14) (6.040413e-13 5.850020e-13 1.082841e-09))
61.180482     	((8.850289e-12 -8.535516e-12 -9.352104e-11) (-2.096855e-11 2.498183e-11 4.088182e-11)) ((-5.036638e-15 -1.958814e-15 7.713041e-14) (6.943656e-13 6.346207e-13 1.028789e-09))
73.428578     	((6.419777e-12 -8.978082e-12 -1.011090e-10) (-2.291143e-11 2.700361e-11 4.488833e-11)) ((-5.154897e-15 -1.833321e-15 7.304722e-14) (7.525164e-13 6.787111e-13 9.796212e-10))
88.126294     	((4.598997e-12 -5.613902e-12 -1.080768e-10) (-2.424437e-11 2.814565e-11 4.910276e-11)) ((-5.318030e-15 -1.657079e-15 6.937923e-14) (7.807291e-13 7.041641e-13 9.349730e-10))
105.763553    	((1.666363e-12 -3.820249e-12 -1.157913e-10) (-2.502862e-11 2.894905e-11 5.323185e-11)) ((-5.351141e-15 -1.612963e-15 6.615766e-14) (8.026069e-13 7.163664e-13 8.944467e-10))
126.928263    	((5.263875e-13 -3.787550e-12 -1.236128e-10) (-2.538715e-11 2.934513e-11 5.738332e-11)) ((-5.252570e-15 -1.590067e-15 6.331001e-14) (8.116839e-13 7.155884e-13 8.576215e-10))
152.325916    	((-4.412726e-13 -3.759810e-12 -1.320476e-10) (-2.548699e-11 2.917938e-11 6.163873e-11)) ((-5.003685e-15 -1.500967e-15 6.074542e-14) (8.036528e-13 7.125495e-13 8.241070e-10))
182.803099    	((-3.082768e-13 -3.344396e-12 -1.403717e-10) (-2.528327e-11 2.878184e-11 6.612630e-11)) ((-4.681954e-15 -1.391530e-15 5.825711e-14) (7.841044e-13 7.072060e-13 7.935597e-10))
219.375719    	((-4.065824e-14 -2.035753e-12 -1.488227e-10) (-2.472068e-11 2.817291e-11 7.071566e-11)) ((-4.525930e-15 -1.206298e-15 5.596547e-14) (7.551746e-13 6.891213e-13 7.656846e-10))
263.262863    	((-2.377336e-13 -8.379929e-13 -1.578258e-10) (-2.386971e-11 2.728267e-11 7.552308e-11)) ((-4.360603e-15 -1.157018e-15 5.385753e-14) (7.187739e-13 6.665245e-13 7.402353e-10))
315.927436    	((-6.449707e-13 -1.235665e-13 -1.670477e-10) (-2.287454e-11 2.624440e-11 8.046385e-11)) ((-4.198267e-15 -1.072049e-15 5.190041e-14) (6.792028e-13 6.380390e-13 7.169971e-10))
379.124923    	((-1.393608e-12 4.267104e-13 -1.758440e-10) (-2.198289e-11 2.506208e-11 8.564591e-11)) ((-3.973002e-15 -9.906306e-16 5.015152e-14) (6.383123e-13 6.109617e-13 6.957936e-10))
454.961908    	((-1.677375e-12 1.282715e-12 -1.833818e-10) (-2.114049e-11 2.376023e-11 9.104587e-11)) ((-3.765146e-15 -1.000172e-15 4.857977e-14) (5.931215e-13 5.880439e-13 6.764789e-10))
545.966289    	((-1.116518e-12 2.380914e-12 -1.903280e-10) (-2.014964e-11 2.243817e-11 9.651611e-11)) ((-3.636756e-15 -1.101520e-15 4.716123e-14) (5.497780e-13 5.623298e-13 6.589268e-10))
655.171547    	((-5.453704e-13 3.382080e-12 -1.974879e-10) (-1.907859e-11 2.112622e-11 1.020218e-10)) ((-3.544138e-15 -1.183182e-15 4.586969e-14) (5.107876e-13 5.315069e-13 6.430139e-10))
786.217856    	((-2.672979e-13 4.451103e-12 -2.046948e-10) (-1.802892e-11 1.983625e-11 1.074125e-10)) ((-3.558792e-15 -1.304303e-15 4.472652e-14) (4.732467e-13 4.996499e-13 6.286259e-10))
943.473427    	((-3.097868e-13 5.791940e-12 -2.113749e-10) (-1.701028e-11 1.855243e-11 1.125239e-10)) ((-3.658427e-15 -1.348515e-15 4.370251e-14) (4.374461e-13 4.665307e-13 6.156424e-10))
1132.180113   	((-1.933600e-13 7.350712e-12 -2.174760e-10) (-1.595439e-11 1.731946e-11 1.173756e-10)) ((-3.717926e-15 -1.414030e-15 4.274830e-14) (4.037496e-13 4.319394e-13 6.039493e-10))
1358.628135   	((-1.333462e-13 8.988270e-12 -2.230197e-10) (-1.487405e-11 1.615215e-11 1.220260e-10)) ((-3.745257e-15 -1.466693e-15 4.187762e-14) (3.734338e-13 3.957300e-13 5.934332e-10))
1630.365763   	((-2.954388e-13 1.050134e-11 -2.285460e-10) (-1.384567e-11 1.506974e-11 1.263564e-10)) ((-3.798002e-15 -1.502759e-15 4.108637e-14) (3.468839e-13 3.622538e-13 5.839841e-10))
1956.450915   	((5.443007e-14 1.191305e-11 -2.336761e-10) (-1.293907e-11 1.407676e-11 1.303585e-10)) ((-3.827224e-15 -1.538850e-15 4.037119e-14) (3.224975e-13 3.328055e-13 5.754940e-10))
2347.753098   	((7.062164e-13 1.352304e-11 -2.389394e-10) (-1.208577e-11 1.317483e-11 1.341194e-10)) ((-3.847986e-15 -1.570935e-15 3.972431e-14) (2.987117e-13 3.044327e-13 5.678680e-10))
2817.315718   	((1.309269e-12 1.543667e-11 -2.443571e-10) (-1.126361e-11 1.236702e-11 1.377327e-10)) ((-3.828900e-15 -1.646825e-15 3.912051e-14) (2.774948e-13 2.773473e-13 5.610179e-10))
3380.790861   	((1.899524e-12 1.769029e-11 -2.498065e-10) (-1.049041e-11 1.164818e-11 1.411531e-10)) ((-3.764399e-15 -1.710607e-15 3.856424e-14) (2.584006e-13 2.519865e-13 5.548640e-10))
4056.961033   	((2.603829e-12 2.036605e-11 -2.553419e-10) (-9.805432e-12 1.103781e-11 1.443941e-10)) ((-3.676518e-15 -1.776525e-15 3.806737e-14) (2.413599e-13 2.302698e-13 5.493320e-10))
4868.36524    	((3.434313e-12 2.336454e-11 -2.609744e-10) (-9.188490e-12 1.053209e-11 1.474688e-10)) ((-3.570874e-15 -1.849130e-15 3.762226e-14) (2.269372e-13 2.116941e-13 5.443553e-10))
5842.050288   	((4.398336e-12 2.658827e-11 -2.664711e-10) (-8.644501e-12 1.008389e-11 1.503499e-10)) ((-3.458575e-15 -1.899754e-15 3.722495e-14) (2.145048e-13 1.955112e-13 5.398746e-10))
7010.472346   	((5.549167e-12 3.011509e-11 -2.725739e-10) (-8.164036e-12 9.675310e-12 1.530080e-10)) ((-3.356883e-15 -1.954163e-15 3.686466e-14) (2.030999e-13 1.808207e-13 5.358358e-10))
8412.578815   	((6.943804e-12 3.383922e-11 -2.789091e-10) (-7.718686e-12 9.304900e-12 1.554484e-10)) ((-3.263483e-15 -2.020716e-15 3.652992e-14) (1.925355e-13 1.675215e-13 5.321907e-10))
10070.914082  	((8.767642e-12 3.770819e-11 -2.855765e-10) (-7.296444e-12 8.967128e-12 1.576855e-10)) ((-3.149770e-15 -2.085999e-15 3.622472e-14) (1.819713e-13 1.553107e-13 5.288967e-10))
11985.484523  	((1.117174e-11 4.179657e-11 -2.926810e-10) (-6.875185e-12 8.670027e-12 1.597360e-10)) ((-3.035792e-15 -2.181831e-15 3.594347e-14) (1.715366e-13 1.435916e-13 5.259182e-10))
14156.296024  	((1.412546e-11 4.615675e-11 -3.002054e-10) (-6.449825e-12 8.430641e-12 1.615866e-10)) ((-2.927621e-15 -2.285747e-15 3.568253e-14) (1.622456e-13 1.337014e-13 5.232234e-10))
16583.353986  	((1.771917e-11 5.058947e-11 -3.079576e-10) (-6.019258e-12 8.246982e-12 1.632308e-10)) ((-2.837243e-15 -2.396604e-15 3.543956e-14) (1.538200e-13 1.248125e-13 5.207823e-10))
19145.867948  	((2.168274e-11 5.510113e-11 -3.158381e-10) (-5.594017e-12 8.113965e-12 1.646699e-10)) ((-2.739450e-15 -2.514465e-15 3.520473e-14) (1.465729e-13 1.169720e-13 5.185700e-10))
21708.426661  	((2.600804e-11 5.955402e-11 -3.236645e-10) (-5.184239e-12 8.006554e-12 1.659267e-10)) ((-2.640170e-15 -2.611399e-15 3.498726e-14) (1.400959e-13 1.105016e-13 5.165641e-10))
24271.025825  	((3.073184e-11 6.387258e-11 -3.314939e-10) (-4.796230e-12 7.920943e-12 1.670375e-10)) ((-2.567276e-15 -2.680577e-15 3.478666e-14) (1.345409e-13 1.051946e-13 5.147437e-10))
26833.661568  	((3.564236e-11 6.793975e-11 -3.393037e-10) (-4.413985e-12 7.845344e-12 1.680246e-10)) ((-2.518462e-15 -2.751016e-15 3.460027e-14) (1.296766e-13 1.002025e-13 5.130902e-10))
29396.33036   	((4.050079e-11 7.153589e-11 -3.469199e-10) (-4.036360e-12 7.763079e-12 1.689113e-10)) ((-2.491234e-15 -2.822092e-15 3.442354e-14) (1.256496e-13 9.482504e-14 5.115872e-10))
31959.029056  	((4.519931e-11 7.450817e-11 -3.542717e-10) (-3.681233e-12 7.670832e-12 1.697147e-10)) ((-2.479595e-15 -2.887981e-15 3.425200e-14) (1.220659e-13 8.942941e-14 5.102199e-10))
34521.754777  	((4.972955e-11 7.676285e-11 -3.613338e-10) (-3.349184e-12 7.566492e-12 1.704569e-10)) ((-2.475615e-15 -2.960925e-15 3.408788e-14) (1.187734e-13 8.425666e-14 5.089751e-10))
37084.504906  	((5.404227e-11 7.858789e-11 -3.680934e-10) (-3.039974e-12 7.450119e-12 1.711415e-10)) ((-2.488624e-15 -3.031193e-15 3.393654e-14) (1.153936e-13 7.926847e-14 5.078412e-10))
39647.277123  	((5.792554e-11 8.015438e-11 -3.744077e-10) (-2.767598e-12 7.325289e-12 1.717642e-10)) ((-2.511502e-15 -3.079150e-15 3.379828e-14) (1.122595e-13 7.525815e-14 5.068075e-10))
42210.069269  	((6.151649e-11 8.149119e-11 -3.802752e-10) (-2.540986e-12 7.196630e-12 1.723337e-10)) ((-2.518362e-15 -3.102864e-15 3.367036e-14) (1.090567e-13 7.228572e-14 5.058645e-10))
44772.879417  	((6.484879e-11 8.265543e-11 -3.857722e-10) (-2.348907e-12 7.072164e-12 1.728649e-10)) ((-2.534391e-15 -3.128410e-15 3.355182e-14) (1.058762e-13 7.008838e-14 5.050041e-10))
47335.705834  	((6.793106e-11 8.362872e-11 -3.908932e-10) (-2.185665e-12 6.952474e-12 1.733563e-10)) ((-2.550850e-15 -3.153609e-15 3.344167e-14) (1.030638e-13 6.867187e-14 5.042187e-10))
49898.546868  	((7.087780e-11 8.430339e-11 -3.956363e-10) (-2.043946e-12 6.838792e-12 1.738144e-10)) ((-2.574316e-15 -3.175670e-15 3.334186e-14) (1.004186e-13 6.785508e-14 5.035015e-10))
52461.400867  	((7.367181e-11 8.458076e-11 -4.000597e-10) (-1.916703e-12 6.730508e-12 1.742512e-10)) ((-2.605757e-15 -3.196804e-15 3.324943e-14) (9.789446e-14 6.713686e-14 5.028466e-10))
55024.266592  	((7.630533e-11 8.444600e-11 -4.042952e-10) (-1.804940e-12 6.629049e-12 1.746624e-10)) ((-2.644101e-15 -3.221612e-15 3.316424e-14) (9.563968e-14 6.649711e-14 5.022483e-10))
57587.14295   	((7.876720e-11 8.393700e-11 -4.081252e-10) (-1.705259e-12 6.533169e-12 1.750502e-10)) ((-2.682164e-15 -3.236057e-15 3.308556e-14) (9.371193e-14 6.598633e-14 5.017017e-10))
60150.028913  	((8.102492e-11 8.318835e-11 -4.113765e-10) (-1.614162e-12 6.440342e-12 1.754193e-10)) ((-2.717152e-15 -3.247917e-15 3.301351e-14) (9.199918e-14 6.539189e-14 5.012020e-10))
