# Forces      
# CofR        : (0.000000e+00 0.000000e+00 0.000000e+00)
# Time        forces(pressure viscous)	moments(pressure viscous)
0             	((0.000000e+00 0.000000e+00 0.000000e+00) (0.000000e+00 0.000000e+00 0.000000e+00)) ((0.000000e+00 0.000000e+00 0.000000e+00) (0.000000e+00 0.000000e+00 0.000000e+00))
0.012         	((3.694650e-10 -7.590976e-08 9.607305e-10) (1.032615e-11 -8.502493e-10 6.353134e-12)) ((5.494881e-12 4.824204e-14 1.048702e-09) (-1.620357e-11 -4.050876e-13 2.122826e-06))
0.0264        	((-3.640517e-10 2.741144e-08 -3.004953e-09) (1.420443e-11 -9.091257e-10 3.916145e-13)) ((1.289713e-11 -4.332578e-15 3.203259e-10) (-2.870382e-11 -3.477836e-13 1.858143e-06))
0.04368       	((1.171610e-09 -1.405977e-08 -1.770297e-09) (1.418798e-11 -5.900542e-10 -6.508360e-12)) ((-5.740778e-12 1.476726e-13 1.728629e-10) (-2.376390e-11 -4.758770e-13 1.607623e-06))
0.064416      	((1.367122e-09 -1.623072e-09 -5.911742e-09) (5.809969e-13 -3.076982e-10 6.857460e-12)) ((1.821965e-12 1.296993e-13 1.200860e-10) (-1.136652e-11 -5.698757e-14 1.378376e-06))
0.0892992     	((1.820837e-09 -6.955501e-09 -8.041625e-09) (-6.671732e-12 -1.833569e-10 3.675470e-11)) ((-1.708960e-12 3.953571e-13 9.874375e-11) (-5.337292e-12 5.559751e-13 1.176584e-06))
0.119159      	((1.778144e-09 -1.048286e-09 -1.131785e-08) (-7.896920e-12 -1.559999e-10 1.416310e-10)) ((-1.001278e-12 4.550736e-13 7.998442e-11) (1.683823e-12 1.719433e-13 1.004618e-06))
0.154991      	((1.539348e-09 -6.488739e-09 -1.475182e-08) (-2.419486e-11 -1.232044e-10 4.189076e-10)) ((-9.590944e-13 5.289254e-13 6.430274e-11) (6.315206e-12 -3.950393e-13 8.627352e-07))
0.197989      	((7.982624e-10 -4.672570e-09 -1.664688e-08) (-5.181824e-11 -7.505702e-11 1.034960e-09)) ((-9.062704e-13 4.907006e-13 5.166815e-11) (8.901994e-12 -2.182324e-13 7.480283e-07))
0.249587      	((1.865718e-09 -5.700746e-09 -1.926964e-08) (-8.580717e-11 -2.797555e-11 1.945495e-09)) ((-8.369534e-13 6.262298e-13 4.381443e-11) (7.746561e-12 1.868854e-12 6.559375e-07))
0.311504      	((1.719339e-09 -6.022976e-09 -2.075802e-08) (-1.291062e-10 1.320128e-11 2.967972e-09)) ((-7.499143e-13 6.493310e-13 3.923757e-11) (5.099384e-12 4.185022e-12 5.811004e-07))
0.385805      	((1.866906e-09 -8.107083e-09 -2.370276e-08) (-1.552981e-10 3.992951e-11 4.081575e-09)) ((-3.926714e-13 4.381187e-13 3.472558e-11) (1.240061e-12 4.307050e-12 5.188945e-07))
0.474966      	((2.524054e-09 -9.957666e-09 -2.579623e-08) (-1.986382e-10 1.057910e-10 5.289400e-09)) ((2.033096e-13 2.614550e-13 3.085549e-11) (-3.300988e-12 5.209513e-12 4.659400e-07))
0.581959      	((3.066501e-09 -1.006847e-08 -2.807648e-08) (-2.209405e-10 9.639830e-11 6.693666e-09)) ((5.335214e-13 1.489947e-13 2.856986e-11) (-7.956886e-12 1.012570e-11 4.199293e-07))
0.710351      	((5.466910e-09 -9.532036e-09 -3.244454e-08) (-2.000307e-10 4.370251e-11 8.412476e-09)) ((7.384758e-13 3.443125e-13 2.696130e-11) (-1.061405e-11 1.445945e-11 3.793378e-07))
0.864421      	((6.174456e-09 -8.493496e-09 -3.710105e-08) (-2.493259e-10 1.754779e-10 1.045134e-08)) ((1.281673e-12 2.345851e-13 2.531549e-11) (-7.942250e-12 1.643760e-11 3.431600e-07))
1.049306      	((5.579088e-09 -8.014612e-09 -4.223728e-08) (-3.481603e-10 3.956371e-10 1.283840e-08)) ((1.562525e-12 4.948859e-14 2.370536e-11) (-2.616370e-12 1.875156e-11 3.107844e-07))
1.271167      	((4.630301e-09 -7.336035e-09 -4.744565e-08) (-5.949159e-10 5.827908e-10 1.552910e-08)) ((1.734248e-12 -4.609508e-14 2.235475e-11) (2.920987e-12 2.249845e-11 2.819079e-07))
1.5374        	((2.514890e-09 -7.576426e-09 -5.257706e-08) (-1.062811e-09 8.027453e-10 1.852320e-08)) ((1.624717e-12 -2.781458e-13 2.104610e-11) (1.242146e-11 3.235907e-11 2.563943e-07))
1.85688       	((9.324814e-10 -6.031624e-09 -5.663981e-08) (-1.526928e-09 1.049711e-09 2.172834e-08)) ((1.267916e-12 -3.182813e-13 1.972806e-11) (2.363484e-11 4.550355e-11 2.340915e-07))
2.240256      	((-7.663492e-10 -4.618208e-09 -6.233759e-08) (-1.960875e-09 1.391627e-09 2.513584e-08)) ((1.153314e-12 -3.191334e-13 1.843353e-11) (3.498205e-11 5.858521e-11 2.147259e-07))
2.700307      	((-8.911955e-10 -3.354715e-09 -6.818619e-08) (-2.310399e-09 1.782183e-09 2.879416e-08)) ((1.030990e-12 -4.450387e-13 1.716050e-11) (4.716421e-11 6.983999e-11 1.979017e-07))
3.252369      	((-2.278879e-09 -2.801599e-09 -7.619542e-08) (-2.560679e-09 2.040020e-09 3.252017e-08)) ((9.615176e-13 -6.127678e-13 1.591834e-11) (5.480011e-11 7.950624e-11 1.831659e-07))
3.914842      	((-2.898590e-09 -1.807362e-09 -8.433412e-08) (-2.595258e-09 2.266907e-09 3.657501e-08)) ((7.922845e-13 -7.832287e-13 1.465783e-11) (5.677097e-11 8.730865e-11 1.700803e-07))
4.709811      	((-3.407799e-09 -1.844892e-09 -9.471926e-08) (-2.451658e-09 2.262230e-09 4.113652e-08)) ((7.958978e-13 -9.718265e-13 1.350739e-11) (4.961601e-11 9.303501e-11 1.582852e-07))
5.663773      	((-3.596646e-09 -1.711847e-09 -1.070172e-07) (-2.240113e-09 2.094820e-09 4.623664e-08)) ((5.693012e-13 -1.066314e-12 1.242268e-11) (3.963493e-11 9.359554e-11 1.475267e-07))
6.808528      	((-1.308726e-09 -1.095157e-09 -1.205124e-07) (-1.937779e-09 1.930856e-09 5.181133e-08)) ((3.512147e-13 -1.021892e-12 1.140121e-11) (3.608514e-11 8.416226e-11 1.376409e-07))
8.182233      	((-2.031706e-09 -1.305947e-09 -1.322691e-07) (-1.680233e-09 1.762073e-09 5.794490e-08)) ((2.850797e-13 -1.198400e-12 1.049883e-11) (3.236396e-11 7.647673e-11 1.285233e-07))
9.83068       	((-1.497814e-09 -1.213005e-09 -1.445356e-07) (-1.505102e-09 1.578635e-09 6.455581e-08)) ((1.418236e-13 -1.302021e-12 9.698254e-12) (2.678796e-11 6.800604e-11 1.200932e-07))
11.808816     	((-1.001501e-09 -1.769715e-09 -1.574899e-07) (-1.312049e-09 1.440678e-09 7.152320e-08)) ((3.598150e-14 -1.422805e-12 8.940347e-12) (1.806761e-11 5.706015e-11 1.122911e-07))
14.182579     	((-8.105650e-10 -1.200048e-09 -1.725293e-07) (-1.143884e-09 1.293741e-09 7.900418e-08)) ((-9.317033e-14 -1.425243e-12 8.239100e-12) (1.326285e-11 4.630795e-11 1.050940e-07))
17.031095     	((-9.249726e-10 -1.334990e-09 -1.868436e-07) (-9.700651e-10 1.167259e-09 8.679973e-08)) ((-1.764847e-13 -1.467580e-12 7.611778e-12) (1.295254e-11 3.705864e-11 9.850493e-08))
20.449314     	((-1.329829e-09 -1.208542e-09 -2.025853e-07) (-8.377653e-10 1.111519e-09 9.492527e-08)) ((-2.895361e-13 -1.530972e-12 7.042753e-12) (1.484840e-11 2.997569e-11 9.251874e-08))
24.551176     	((-1.069688e-09 -1.769818e-09 -2.191597e-07) (-7.612875e-10 1.100320e-09 1.037180e-07)) ((-2.754190e-13 -1.603912e-12 6.549720e-12) (1.594669e-11 2.591592e-11 8.710341e-08))
29.473411     	((-9.096405e-10 -1.725693e-09 -2.359152e-07) (-7.202778e-10 1.106593e-09 1.133028e-07)) ((-2.765755e-13 -1.698905e-12 6.111358e-12) (1.807256e-11 2.450773e-11 8.221244e-08))
35.380094     	((-7.769406e-10 -1.876286e-09 -2.529318e-07) (-7.436667e-10 1.158337e-09 1.236633e-07)) ((-3.231220e-13 -1.757927e-12 5.704788e-12) (2.287055e-11 2.383020e-11 7.778825e-08))
42.468112     	((-5.610086e-10 -1.813411e-09 -2.699526e-07) (-7.850235e-10 1.241036e-09 1.347595e-07)) ((-3.179689e-13 -1.786018e-12 5.325995e-12) (2.663139e-11 2.508346e-11 7.377636e-08))
50.973735     	((-5.154753e-10 -1.990917e-09 -2.871222e-07) (-8.787720e-10 1.275042e-09 1.465471e-07)) ((-2.992844e-13 -1.853797e-12 4.974539e-12) (2.631259e-11 2.816875e-11 7.012808e-08))
61.180482     	((-6.933387e-10 -2.007320e-09 -3.034490e-07) (-1.067971e-09 1.220491e-09 1.589611e-07)) ((-3.389956e-13 -1.918055e-12 4.654620e-12) (2.406781e-11 3.177541e-11 6.680495e-08))
73.428578     	((-9.362470e-10 -2.010010e-09 -3.199560e-07) (-1.230715e-09 1.149540e-09 1.718188e-07)) ((-3.897336e-13 -1.987129e-12 4.366829e-12) (2.078365e-11 3.590919e-11 6.377893e-08))
88.126294     	((-9.361524e-10 -2.172865e-09 -3.359386e-07) (-1.350055e-09 1.064670e-09 1.849949e-07)) ((-4.159425e-13 -2.005991e-12 4.127986e-12) (1.582406e-11 3.872860e-11 6.102541e-08))
105.763553    	((-1.295902e-09 -2.271595e-09 -3.531654e-07) (-1.467393e-09 8.998961e-10 1.984163e-07)) ((-4.102967e-13 -2.062070e-12 3.932340e-12) (8.778875e-12 4.122278e-11 5.852957e-08))
126.928263    	((-1.391527e-09 -2.387481e-09 -3.704763e-07) (-1.552272e-09 6.972352e-10 2.121057e-07)) ((-3.968373e-13 -2.132986e-12 3.762541e-12) (-1.527664e-13 4.186773e-11 5.627610e-08))
152.147562    	((-1.446405e-09 -2.481885e-09 -3.874347e-07) (-1.584563e-09 5.020707e-10 2.261157e-07)) ((-3.744578e-13 -2.216196e-12 3.604927e-12) (-1.040172e-11 4.048223e-11 5.425451e-08))
181.420279    	((-1.219061e-09 -2.500187e-09 -4.040707e-07) (-1.545021e-09 3.447403e-10 2.403575e-07)) ((-3.393793e-13 -2.304629e-12 3.465342e-12) (-2.077745e-11 3.752678e-11 5.246208e-08))
214.745152    	((-1.192264e-09 -2.572039e-09 -4.197976e-07) (-1.444839e-09 2.300044e-10 2.546182e-07)) ((-3.176151e-13 -2.375787e-12 3.339780e-12) (-2.892080e-11 3.289781e-11 5.088513e-08))
252.120881    	((-9.225994e-10 -2.584731e-09 -4.348112e-07) (-1.284580e-09 1.201455e-10 2.688503e-07)) ((-2.814275e-13 -2.463592e-12 3.225007e-12) (-3.488853e-11 2.617997e-11 4.950807e-08))
292.614667    	((-9.533737e-10 -2.540902e-09 -4.483633e-07) (-1.079168e-09 4.121372e-11 2.830915e-07)) ((-2.636628e-13 -2.537785e-12 3.123092e-12) (-3.772697e-11 1.908371e-11 4.831890e-08))
333.091648    	((-9.838165e-10 -2.478489e-09 -4.608441e-07) (-8.742832e-10 8.846665e-12 2.969704e-07)) ((-2.347374e-13 -2.619470e-12 3.032397e-12) (-3.796404e-11 1.214017e-11 4.731473e-08))
373.552101    	((-9.716445e-10 -2.245598e-09 -4.711259e-07) (-6.859977e-10 3.599918e-11 3.103078e-07)) ((-2.180789e-13 -2.683932e-12 2.953255e-12) (-3.599954e-11 5.986687e-12 4.647289e-08))
413.996588    	((-9.543981e-10 -2.018712e-09 -4.798546e-07) (-5.265530e-10 6.078927e-11 3.231034e-07)) ((-2.152615e-13 -2.744185e-12 2.883360e-12) (-3.264971e-11 7.881725e-13 4.577414e-08))
454.424476    	((-1.035840e-09 -1.802187e-09 -4.871288e-07) (-4.086335e-10 8.487964e-11 3.353008e-07)) ((-2.125931e-13 -2.809747e-12 2.819767e-12) (-2.821770e-11 -2.394903e-12 4.519637e-08))
494.835587    	((-1.095259e-09 -1.653342e-09 -4.931137e-07) (-3.253152e-10 1.256853e-10 3.469080e-07)) ((-2.162736e-13 -2.874320e-12 2.763617e-12) (-2.384343e-11 -3.825866e-12 4.472369e-08))
535.230561    	((-1.201811e-09 -1.557173e-09 -4.980085e-07) (-2.761720e-10 1.678952e-10 3.579641e-07)) ((-2.183289e-13 -2.941354e-12 2.715765e-12) (-2.023093e-11 -3.959739e-12 4.434127e-08))
575.61015     	((-1.297096e-09 -1.540193e-09 -5.020200e-07) (-2.523312e-10 2.017644e-10 3.684920e-07)) ((-2.166031e-13 -3.011882e-12 2.675760e-12) (-1.743429e-11 -3.814988e-12 4.403675e-08))
615.974361    	((-1.372273e-09 -1.535254e-09 -5.051492e-07) (-2.364746e-10 2.275487e-10 3.784897e-07)) ((-2.161602e-13 -3.080042e-12 2.641697e-12) (-1.498197e-11 -4.015761e-12 4.379923e-08))
656.323851    	((-1.390349e-09 -1.587808e-09 -5.075872e-07) (-2.146727e-10 2.395148e-10 3.879617e-07)) ((-2.159778e-13 -3.147892e-12 2.614424e-12) (-1.303596e-11 -4.530324e-12 4.361960e-08))
696.6598      	((-1.417837e-09 -1.605476e-09 -5.094377e-07) (-1.824619e-10 2.404518e-10 3.969571e-07)) ((-2.114795e-13 -3.213783e-12 2.590398e-12) (-1.166341e-11 -5.228583e-12 4.348956e-08))
736.983337    	((-1.421932e-09 -1.625499e-09 -5.107812e-07) (-1.476038e-10 2.486395e-10 4.054849e-07)) ((-1.992280e-13 -3.277695e-12 2.566678e-12) (-1.023724e-11 -6.061229e-12 4.340193e-08))
777.295768    	((-1.416991e-09 -1.609365e-09 -5.116378e-07) (-1.034956e-10 2.630489e-10 4.135136e-07)) ((-1.860725e-13 -3.339625e-12 2.545669e-12) (-8.663902e-12 -6.901457e-12 4.335049e-08))
817.597761    	((-1.406172e-09 -1.584073e-09 -5.121011e-07) (-6.920090e-11 2.823112e-10 4.210466e-07)) ((-1.791739e-13 -3.400461e-12 2.530609e-12) (-6.712493e-12 -7.724199e-12 4.333000e-08))
857.889618    	((-1.398991e-09 -1.544658e-09 -5.121923e-07) (-4.836006e-11 3.086386e-10 4.280970e-07)) ((-1.765713e-13 -3.458689e-12 2.519574e-12) (-4.615639e-12 -8.322885e-12 4.333573e-08))
898.172298    	((-1.384904e-09 -1.507659e-09 -5.120080e-07) (-3.376239e-11 3.380728e-10 4.346870e-07)) ((-1.737687e-13 -3.512335e-12 2.511310e-12) (-2.466030e-12 -8.514153e-12 4.336363e-08))
938.447035    	((-1.406607e-09 -1.501940e-09 -5.115626e-07) (-2.810520e-11 3.688091e-10 4.408363e-07)) ((-1.715179e-13 -3.563111e-12 2.506488e-12) (-4.798946e-13 -8.341510e-12 4.341025e-08))
