# Forces      
# CofR        : (0.000000e+00 0.000000e+00 0.000000e+00)
# Time        forces(pressure viscous)	moments(pressure viscous)
0             	((0.000000e+00 0.000000e+00 0.000000e+00) (-3.021043e-15 -1.002673e-05 6.466106e-16)) ((0.000000e+00 0.000000e+00 0.000000e+00) (-2.252901e-07 -2.508845e-17 4.804528e-12))
0.012         	((3.047751e-09 -2.915844e-03 6.580956e-04) (1.661059e-11 -1.150660e-05 -3.000695e-09)) ((3.438936e-08 2.242570e-09 5.497326e-10) (-3.320396e-07 -9.525269e-15 9.949708e-12))
0.0264        	((-4.756512e-08 2.010028e-04 -4.117482e-05) (-1.172762e-11 -1.174122e-05 -4.541268e-09)) ((-2.410245e-09 -1.412364e-10 -3.607534e-11) (-3.717805e-07 2.061509e-12 1.310513e-11))
0.04368       	((2.370779e-08 6.104642e-04 -4.746208e-05) (-9.305811e-12 -1.043529e-05 -3.152246e-09)) ((-7.945811e-09 -1.649542e-10 -1.484800e-10) (-3.312165e-07 3.374479e-12 1.114707e-11))
0.064416      	((1.141092e-08 5.736887e-06 -2.379810e-05) (-1.778262e-10 -9.243519e-06 -1.390250e-09)) ((3.897355e-11 -7.953726e-11 7.323454e-12) (-2.973193e-07 1.886953e-12 1.312544e-11))
0.0892992     	((-6.792677e-09 -8.241763e-06 -1.463540e-05) (-3.143053e-10 -8.534290e-06 -9.926036e-10)) ((3.264105e-10 -4.756465e-11 8.370083e-12) (-2.810505e-07 3.897532e-13 1.398583e-11))
0.119159      	((-3.939954e-09 9.115254e-06 -8.858313e-06) (-2.870957e-10 -7.880708e-06 -1.667256e-09)) ((-1.719470e-10 -2.964329e-11 -1.677827e-12) (-2.629710e-07 8.059142e-13 1.202397e-11))
0.154991      	((4.331537e-09 4.922539e-06 -5.580282e-06) (-2.405669e-10 -7.187468e-06 -2.504583e-09)) ((-1.050675e-10 -1.773447e-11 -1.272716e-13) (-2.428414e-07 7.226245e-13 1.079170e-11))
0.197989      	((1.762452e-09 1.194317e-06 -3.449400e-06) (-1.476367e-10 -6.487573e-06 -2.967455e-09)) ((-3.709690e-11 -1.059118e-11 -1.515586e-13) (-2.223505e-07 -6.889907e-14 7.338669e-12))
0.249587      	((-8.068108e-11 -1.591110e-07 -2.167424e-06) (-6.977279e-11 -5.800706e-06 -3.358566e-09)) ((-1.002443e-11 -6.638874e-12 5.533418e-13) (-2.018536e-07 -8.816154e-13 4.733375e-12))
0.311504      	((-1.632974e-10 -7.781938e-07 -1.320084e-06) (-1.731380e-11 -5.147390e-06 -3.782241e-09)) ((-1.665119e-12 -3.759607e-12 7.080067e-13) (-1.817471e-07 -1.840464e-12 2.506470e-12))
0.385805      	((5.503102e-12 -1.075140e-06 -8.130604e-07) (2.299574e-11 -4.544172e-06 -4.162769e-09)) ((8.604188e-13 -1.985961e-12 6.025580e-13) (-1.625240e-07 -2.643034e-12 -8.491048e-14))
0.474966      	((-4.260955e-11 -1.214439e-06 -4.735188e-07) (4.551271e-11 -4.003176e-06 -4.514680e-09)) ((3.235270e-12 -8.159026e-13 5.116264e-13) (-1.447199e-07 -3.140618e-12 -3.199653e-13))
0.581959      	((-1.450923e-11 -1.269961e-06 -2.753742e-07) (5.263031e-11 -3.529537e-06 -4.886174e-09)) ((5.287501e-12 -1.500259e-13 4.461540e-13) (-1.286648e-07 -2.978308e-12 2.196884e-12))
0.710351      	((-9.898799e-12 -1.264902e-06 -1.463288e-07) (6.203929e-11 -3.123391e-06 -5.269318e-09)) ((6.683089e-12 2.803108e-13 3.686258e-13) (-1.145449e-07 -2.475839e-12 4.289498e-12))
0.864421      	((2.973234e-11 -1.219231e-06 -7.686767e-08) (9.171951e-11 -2.779531e-06 -5.602530e-09)) ((7.248756e-12 4.988482e-13 3.649523e-13) (-1.023627e-07 -1.961282e-12 4.002349e-12))
1.049306      	((2.138562e-11 -1.152259e-06 -3.309508e-08) (1.155318e-10 -2.489200e-06 -5.887024e-09)) ((7.148964e-12 6.247513e-13 3.544595e-13) (-9.193570e-08 -1.618942e-12 2.551323e-12))
1.271167      	((6.114320e-11 -1.077784e-06 -1.309416e-08) (1.176240e-10 -2.243397e-06 -6.154017e-09)) ((6.745055e-12 6.807602e-13 3.247458e-13) (-8.299004e-08 -1.365800e-12 1.313992e-12))
1.5374        	((6.511741e-11 -1.001684e-06 -3.059913e-09) (1.034292e-10 -2.032540e-06 -6.466227e-09)) ((6.275600e-12 7.137344e-13 3.243299e-13) (-7.523259e-08 -1.066445e-12 4.517774e-13))
1.85688       	((6.648647e-11 -9.273310e-07 -3.271420e-09) (8.576087e-11 -1.847888e-06 -6.858518e-09)) ((5.750307e-12 7.030518e-13 3.285225e-13) (-6.840746e-08 -7.507557e-13 2.202920e-13))
2.240256      	((1.795487e-11 -8.567746e-07 -7.139182e-09) (7.107241e-11 -1.683753e-06 -7.322549e-09)) ((5.293134e-12 6.796714e-13 3.296215e-13) (-6.232964e-08 -3.891681e-13 6.918359e-13))
2.700307      	((-1.142792e-12 -7.908829e-07 -1.496918e-08) (5.377071e-11 -1.536595e-06 -7.825666e-09)) ((4.913511e-12 6.393134e-13 3.279823e-13) (-5.687630e-08 5.162499e-15 1.624983e-12))
3.252369      	((-6.881101e-13 -7.294212e-07 -2.328470e-08) (3.791675e-11 -1.404015e-06 -8.355423e-09)) ((4.530993e-12 5.997082e-13 3.053355e-13) (-5.196241e-08 3.886100e-13 3.207406e-12))
3.914842      	((1.283995e-12 -6.715586e-07 -3.251121e-08) (3.628687e-11 -1.284262e-06 -8.913316e-09)) ((4.137614e-12 5.560965e-13 2.770527e-13) (-4.752414e-08 5.788668e-13 4.848557e-12))
4.709811      	((5.574830e-12 -6.176981e-07 -4.129988e-08) (3.106033e-11 -1.176096e-06 -9.519583e-09)) ((3.766829e-12 5.152873e-13 2.479195e-13) (-4.351445e-08 5.260356e-13 5.526775e-12))
5.663773      	((4.972593e-11 -5.680587e-07 -4.971958e-08) (2.440699e-11 -1.078580e-06 -1.017239e-08)) ((3.448848e-12 4.737846e-13 2.250233e-13) (-3.989918e-08 2.823372e-13 5.239321e-12))
6.808528      	((9.330818e-11 -5.225472e-07 -5.725711e-08) (2.496793e-11 -9.909011e-07 -1.084685e-08)) ((3.176095e-12 4.384078e-13 1.988589e-13) (-3.664910e-08 3.197462e-14 4.852294e-12))
8.182233      	((8.081596e-11 -4.809766e-07 -6.407174e-08) (1.753770e-11 -9.122206e-07 -1.154676e-08)) ((2.935086e-12 4.060165e-13 1.716607e-13) (-3.373286e-08 -1.718096e-14 4.658353e-12))
9.83068       	((6.477536e-11 -4.432545e-07 -7.012539e-08) (1.104935e-11 -8.415592e-07 -1.229364e-08)) ((2.717443e-12 3.743830e-13 1.495736e-13) (-3.111437e-08 7.570829e-14 4.342901e-12))
11.808816     	((4.414703e-11 -4.087454e-07 -7.547686e-08) (6.197303e-12 -7.778798e-07 -1.309658e-08)) ((2.517820e-12 3.452878e-13 1.309603e-13) (-2.875524e-08 3.187046e-13 3.844042e-12))
14.182579     	((5.279187e-11 -3.772044e-07 -8.023198e-08) (-1.640273e-12 -7.202681e-07 -1.397003e-08)) ((2.334046e-12 3.182790e-13 1.146186e-13) (-2.662037e-08 5.100373e-13 3.270398e-12))
17.031095     	((3.594065e-11 -3.485281e-07 -8.440234e-08) (-5.120962e-12 -6.679438e-07 -1.491682e-08)) ((2.169027e-12 2.914238e-13 1.010764e-13) (-2.468079e-08 5.987330e-13 2.862565e-12))
20.449314     	((-1.953770e-11 -3.224444e-07 -8.818903e-08) (-7.940982e-12 -6.203076e-07 -1.594293e-08)) ((2.022222e-12 2.645341e-13 9.053449e-14) (-2.291458e-08 7.312706e-13 2.585191e-12))
24.551176     	((-4.133731e-11 -2.987652e-07 -9.137788e-08) (-8.809539e-12 -5.769388e-07 -1.704433e-08)) ((1.891752e-12 2.406756e-13 8.308943e-14) (-2.130606e-08 8.722514e-13 2.231308e-12))
29.473411     	((-4.829438e-11 -2.773811e-07 -9.395809e-08) (-8.534469e-12 -5.375108e-07 -1.820846e-08)) ((1.778365e-12 2.197899e-13 7.682699e-14) (-1.984361e-08 1.011669e-12 1.717399e-12))
35.380094     	((-5.209808e-11 -2.580531e-07 -9.608755e-08) (-9.379575e-12 -5.017456e-07 -1.942718e-08)) ((1.679655e-12 2.040864e-13 7.170002e-14) (-1.851697e-08 1.174107e-12 1.154332e-12))
42.468112     	((-6.586807e-11 -2.407682e-07 -9.775876e-08) (-7.449060e-12 -4.693610e-07 -2.069184e-08)) ((1.595468e-12 1.891917e-13 6.765573e-14) (-1.731589e-08 1.318273e-12 3.066384e-13))
50.973735     	((-8.532043e-11 -2.253964e-07 -9.901549e-08) (-7.314714e-12 -4.400773e-07 -2.199040e-08)) ((1.524020e-12 1.746993e-13 6.455157e-14) (-1.623004e-08 1.424047e-12 -8.333167e-13))
61.180482     	((-7.519153e-11 -2.117978e-07 -9.984140e-08) (-7.863029e-12 -4.136195e-07 -2.331166e-08)) ((1.464716e-12 1.637257e-13 6.222259e-14) (-1.524907e-08 1.525760e-12 -2.260015e-12))
73.428578     	((-6.088995e-11 -1.998056e-07 -1.003169e-07) (-6.314529e-12 -3.897204e-07 -2.465259e-08)) ((1.417470e-12 1.554033e-13 6.063240e-14) (-1.436308e-08 1.574093e-12 -3.989157e-12))
88.126294     	((-3.545064e-11 -1.893470e-07 -1.005104e-07) (-3.179668e-12 -3.681343e-07 -2.601400e-08)) ((1.383081e-12 1.484127e-13 5.972588e-14) (-1.356297e-08 1.493990e-12 -5.960136e-12))
105.763553    	((-1.498497e-11 -1.803128e-07 -1.004378e-07) (1.834214e-12 -3.486533e-07 -2.739581e-08)) ((1.359956e-12 1.422320e-13 5.953097e-14) (-1.284110e-08 1.324870e-12 -7.999438e-12))
126.928263    	((3.711773e-12 -1.727125e-07 -1.001070e-07) (6.694266e-12 -3.311173e-07 -2.879498e-08)) ((1.346730e-12 1.382251e-13 5.961267e-14) (-1.219168e-08 1.102969e-12 -1.003514e-11))
152.325916    	((2.021563e-11 -1.664117e-07 -9.948816e-08) (9.715629e-12 -3.153972e-07 -3.020919e-08)) ((1.343904e-12 1.353285e-13 6.042378e-14) (-1.161026e-08 8.203563e-13 -1.191976e-11))
182.803099    	((2.982149e-11 -1.613138e-07 -9.867464e-08) (1.058004e-11 -3.013837e-07 -3.163565e-08)) ((1.351155e-12 1.337082e-13 6.164431e-14) (-1.109312e-08 5.145458e-13 -1.360905e-11))
219.375719    	((4.633777e-11 -1.573556e-07 -9.760578e-08) (1.124111e-11 -2.889868e-07 -3.307304e-08)) ((1.368453e-12 1.331449e-13 6.340444e-14) (-1.063724e-08 1.887596e-13 -1.509338e-11))
263.262863    	((6.497422e-11 -1.543658e-07 -9.632518e-08) (1.310347e-11 -2.781205e-07 -3.451811e-08)) ((1.393094e-12 1.342973e-13 6.591934e-14) (-1.023960e-08 -1.497905e-13 -1.623646e-11))
315.927436    	((8.045289e-11 -1.523186e-07 -9.482778e-08) (1.579990e-11 -2.687064e-07 -3.596087e-08)) ((1.423621e-12 1.371184e-13 6.888521e-14) (-9.897182e-09 -5.021776e-13 -1.707798e-11))
379.124923    	((8.947484e-11 -1.511049e-07 -9.310627e-08) (1.849278e-11 -2.606647e-07 -3.737724e-08)) ((1.456303e-12 1.414586e-13 7.159869e-14) (-9.606600e-09 -8.582714e-13 -1.764343e-11))
454.961908    	((9.522398e-11 -1.504842e-07 -9.115234e-08) (2.132100e-11 -2.538934e-07 -3.873192e-08)) ((1.486746e-12 1.466284e-13 7.422356e-14) (-9.363333e-09 -1.226042e-12 -1.794484e-11))
545.966289    	((1.001474e-10 -1.502432e-07 -8.895143e-08) (2.461232e-11 -2.482618e-07 -3.998392e-08)) ((1.513210e-12 1.520398e-13 7.627758e-14) (-9.161812e-09 -1.570041e-12 -1.796823e-11))
653.254346    	((1.072835e-10 -1.501984e-07 -8.661286e-08) (2.825303e-11 -2.436310e-07 -4.109325e-08)) ((1.534234e-12 1.577850e-13 7.756821e-14) (-8.996454e-09 -1.877154e-12 -1.775103e-11))
776.827276    	((1.109993e-10 -1.501815e-07 -8.425681e-08) (3.254807e-11 -2.398377e-07 -4.204119e-08)) ((1.549604e-12 1.635848e-13 7.828019e-14) (-8.861233e-09 -2.165976e-12 -1.734645e-11))
916.693445    	((1.138638e-10 -1.501358e-07 -8.199831e-08) (3.777422e-11 -2.367300e-07 -4.283298e-08)) ((1.559957e-12 1.693155e-13 7.860716e-14) (-8.750748e-09 -2.438898e-12 -1.682575e-11))
1072.86672    	((1.134992e-10 -1.500543e-07 -7.989810e-08) (4.321685e-11 -2.341773e-07 -4.348766e-08)) ((1.566208e-12 1.748632e-13 7.873213e-14) (-8.660434e-09 -2.678455e-12 -1.623025e-11))
1236.09597    	((1.107693e-10 -1.499892e-07 -7.804568e-08) (4.807485e-11 -2.320880e-07 -4.402744e-08)) ((1.569377e-12 1.800781e-13 7.875874e-14) (-8.587060e-09 -2.866611e-12 -1.559599e-11))
1399.477491   	((1.066498e-10 -1.499179e-07 -7.646582e-08) (5.242842e-11 -2.303741e-07 -4.447673e-08)) ((1.570141e-12 1.846992e-13 7.876986e-14) (-8.527422e-09 -2.995954e-12 -1.493267e-11))
1562.996226   	((1.013440e-10 -1.498475e-07 -7.512750e-08) (5.606680e-11 -2.289670e-07 -4.485285e-08)) ((1.569525e-12 1.887094e-13 7.879858e-14) (-8.478986e-09 -3.069343e-12 -1.425966e-11))
1726.635978   	((9.477564e-11 -1.497809e-07 -7.400258e-08) (5.896471e-11 -2.278095e-07 -4.516930e-08)) ((1.568251e-12 1.921533e-13 7.884837e-14) (-8.439614e-09 -3.086776e-12 -1.359008e-11))
1890.38143    	((8.806051e-11 -1.497199e-07 -7.306674e-08) (6.124813e-11 -2.268556e-07 -4.543686e-08)) ((1.566760e-12 1.950787e-13 7.888976e-14) (-8.407564e-09 -3.058208e-12 -1.292019e-11))
2054.218741   	((8.084783e-11 -1.496650e-07 -7.229626e-08) (6.292066e-11 -2.260677e-07 -4.566380e-08)) ((1.565164e-12 1.974897e-13 7.891746e-14) (-8.381421e-09 -2.985331e-12 -1.225490e-11))
2218.135391   	((7.314841e-11 -1.496171e-07 -7.163025e-08) (6.402047e-11 -2.254156e-07 -4.585677e-08)) ((1.563633e-12 1.995694e-13 7.894948e-14) (-8.360051e-09 -2.875472e-12 -1.160398e-11))
2382.12026    	((6.508454e-11 -1.495743e-07 -7.108162e-08) (6.450194e-11 -2.248745e-07 -4.602133e-08)) ((1.562088e-12 2.012537e-13 7.898069e-14) (-8.342530e-09 -2.736408e-12 -1.098169e-11))
2546.163591   	((5.695436e-11 -1.495377e-07 -7.062201e-08) (6.441221e-11 -2.244248e-07 -4.616171e-08)) ((1.560722e-12 2.026145e-13 7.901245e-14) (-8.328134e-09 -2.573379e-12 -1.039309e-11))
2710.256947   	((4.891403e-11 -1.495065e-07 -7.022906e-08) (6.386767e-11 -2.240502e-07 -4.628149e-08)) ((1.559545e-12 2.037761e-13 7.904931e-14) (-8.316280e-09 -2.396582e-12 -9.840772e-12))
2874.393047   	((4.114668e-11 -1.494800e-07 -6.989124e-08) (6.293447e-11 -2.237378e-07 -4.638365e-08)) ((1.558505e-12 2.047764e-13 7.907718e-14) (-8.306497e-09 -2.211020e-12 -9.324906e-12))
3038.565639   	((3.373991e-11 -1.494575e-07 -6.961692e-08) (6.173838e-11 -2.234768e-07 -4.647080e-08)) ((1.557554e-12 2.055824e-13 7.910293e-14) (-8.298404e-09 -2.020825e-12 -8.845429e-12))
3202.769369   	((2.670499e-11 -1.494382e-07 -6.937536e-08) (6.040762e-11 -2.232585e-07 -4.654508e-08)) ((1.556684e-12 2.062865e-13 7.913376e-14) (-8.291695e-09 -1.831964e-12 -8.400475e-12))
3366.999652   	((2.008957e-11 -1.494219e-07 -6.917679e-08) (5.897072e-11 -2.230756e-07 -4.660830e-08)) ((1.555928e-12 2.068558e-13 7.915959e-14) (-8.286124e-09 -1.648160e-12 -7.991083e-12))
3531.252572   	((1.394457e-11 -1.494078e-07 -6.900735e-08) (5.747884e-11 -2.229221e-07 -4.666207e-08)) ((1.555291e-12 2.073416e-13 7.918034e-14) (-8.281488e-09 -1.471798e-12 -7.616310e-12))
3695.524784   	((8.336129e-12 -1.493962e-07 -6.886582e-08) (5.596502e-11 -2.227932e-07 -4.670782e-08)) ((1.554777e-12 2.077475e-13 7.919853e-14) (-8.277623e-09 -1.304300e-12 -7.274567e-12))
3859.813441   	((3.114306e-12 -1.493866e-07 -6.874379e-08) (5.444545e-11 -2.226849e-07 -4.674671e-08)) ((1.554333e-12 2.080924e-13 7.921496e-14) (-8.274396e-09 -1.145624e-12 -6.965116e-12))
4024.116126   	((-1.669513e-12 -1.493783e-07 -6.864111e-08) (5.294572e-11 -2.225937e-07 -4.677975e-08)) ((1.553954e-12 2.083787e-13 7.923414e-14) (-8.271698e-09 -9.962451e-13 -6.685530e-12))
4188.430774   	((-5.986424e-12 -1.493713e-07 -6.855377e-08) (5.150143e-11 -2.225170e-07 -4.680781e-08)) ((1.553630e-12 2.086172e-13 7.925269e-14) (-8.269438e-09 -8.566626e-13 -6.433184e-12))
4352.755629   	((-9.879534e-12 -1.493651e-07 -6.848035e-08) (5.011548e-11 -2.224523e-07 -4.683165e-08)) ((1.553354e-12 2.088131e-13 7.927143e-14) (-8.267544e-09 -7.272170e-13 -6.207023e-12))
4517.089194   	((-1.335180e-11 -1.493600e-07 -6.841827e-08) (4.879862e-11 -2.223978e-07 -4.685189e-08)) ((1.553118e-12 2.089748e-13 7.928678e-14) (-8.265954e-09 -6.077596e-13 -6.004894e-12))
4681.430191   	((-1.648098e-11 -1.493557e-07 -6.836573e-08) (4.755671e-11 -2.223519e-07 -4.686905e-08)) ((1.552918e-12 2.091069e-13 7.930097e-14) (-8.264619e-09 -4.982319e-13 -5.824891e-12))
4845.777531   	((-1.928536e-11 -1.493520e-07 -6.832112e-08) (4.639602e-11 -2.223131e-07 -4.688361e-08)) ((1.552745e-12 2.092181e-13 7.931374e-14) (-8.263497e-09 -3.983720e-13 -5.664909e-12))
5010.130282   	((-2.177412e-11 -1.493490e-07 -6.828346e-08) (4.532394e-11 -2.222804e-07 -4.689595e-08)) ((1.552596e-12 2.093083e-13 7.932533e-14) (-8.262553e-09 -3.077710e-13 -5.522796e-12))
5174.487653   	((-2.397474e-11 -1.493464e-07 -6.825156e-08) (4.434032e-11 -2.222528e-07 -4.690640e-08)) ((1.552474e-12 2.093837e-13 7.933639e-14) (-8.261759e-09 -2.259594e-13 -5.396889e-12))
5338.848965   	((-2.592523e-11 -1.493441e-07 -6.822482e-08) (4.344284e-11 -2.222294e-07 -4.691527e-08)) ((1.552369e-12 2.094443e-13 7.934702e-14) (-8.261090e-09 -1.523575e-13 -5.285638e-12))
5503.213639   	((-2.759554e-11 -1.493422e-07 -6.820243e-08) (4.262872e-11 -2.222097e-07 -4.692278e-08)) ((1.552284e-12 2.094943e-13 7.935681e-14) (-8.260526e-09 -8.642896e-14 -5.187519e-12))
5667.581184   	((-2.910225e-11 -1.493406e-07 -6.818309e-08) (4.189475e-11 -2.221931e-07 -4.692915e-08)) ((1.552208e-12 2.095352e-13 7.936491e-14) (-8.260051e-09 -2.755954e-14 -5.101103e-12))
5831.951175   	((-3.043873e-11 -1.493392e-07 -6.816633e-08) (4.123485e-11 -2.221790e-07 -4.693454e-08)) ((1.552148e-12 2.095700e-13 7.937239e-14) (-8.259650e-09 2.487235e-14 -5.025166e-12))
5996.323255   	((-3.160655e-11 -1.493381e-07 -6.815221e-08) (4.064346e-11 -2.221671e-07 -4.693911e-08)) ((1.552096e-12 2.095980e-13 7.937887e-14) (-8.259312e-09 7.143044e-14 -4.958542e-12))
6160.697117   	((-3.261920e-11 -1.493372e-07 -6.814038e-08) (4.011700e-11 -2.221571e-07 -4.694298e-08)) ((1.552053e-12 2.096203e-13 7.938441e-14) (-8.259027e-09 1.126205e-13 -4.900137e-12))
6325.072496   	((-3.347706e-11 -1.493364e-07 -6.813193e-08) (3.964928e-11 -2.221486e-07 -4.694625e-08)) ((1.552015e-12 2.096334e-13 7.938902e-14) (-8.258786e-09 1.490028e-13 -4.849013e-12))
6489.449169   	((-3.426844e-11 -1.493356e-07 -6.812317e-08) (3.923399e-11 -2.221414e-07 -4.694903e-08)) ((1.551980e-12 2.096492e-13 7.939271e-14) (-8.258582e-09 1.810895e-13 -4.804321e-12))
6653.826947   	((-3.490895e-11 -1.493351e-07 -6.811635e-08) (3.886885e-11 -2.221353e-07 -4.695138e-08)) ((1.551954e-12 2.096603e-13 7.939618e-14) (-8.258410e-09 2.092525e-13 -4.765322e-12))
6818.205667   	((-3.551019e-11 -1.493346e-07 -6.810856e-08) (3.854642e-11 -2.221301e-07 -4.695338e-08)) ((1.551930e-12 2.096758e-13 7.939887e-14) (-8.258265e-09 2.339737e-13 -4.731351e-12))
6982.585188   	((-3.600572e-11 -1.493343e-07 -6.810393e-08) (3.826431e-11 -2.221258e-07 -4.695507e-08)) ((1.551911e-12 2.096820e-13 7.940150e-14) (-8.258142e-09 2.555705e-13 -4.701761e-12))
7146.965393   	((-3.646598e-11 -1.493338e-07 -6.810043e-08) (3.801572e-11 -2.221221e-07 -4.695650e-08)) ((1.551893e-12 2.096852e-13 7.940370e-14) (-8.258038e-09 2.744870e-13 -4.676008e-12))
