# Forces      
# CofR        : (0.000000e+00 0.000000e+00 0.000000e+00)
# Time        forces(pressure viscous)	moments(pressure viscous)
0             	((0.000000e+00 0.000000e+00 0.000000e+00) (-5.034653e-04 1.429136e-13 -4.896304e-09)) ((0.000000e+00 0.000000e+00 0.000000e+00) (-1.103411e-15 1.131226e-05 -3.135807e-15))
0.012         	((-1.463798e-01 4.819981e-08 1.512552e-02) (-5.764517e-04 6.156415e-10 -1.782650e-06)) ((6.715804e-12 -1.975787e-06 2.195055e-11) (-7.305894e-12 1.669226e-05 -1.056347e-11))
0.0264        	((1.336115e-02 -1.919298e-06 -1.711290e-03) (-5.848017e-04 -7.100729e-10 -2.778893e-06)) ((4.117694e-11 1.751218e-07 4.721856e-14) (-9.947048e-11 1.861903e-05 -1.642258e-11))
0.04368       	((2.890280e-02 2.093936e-06 -1.084947e-03) (-5.165191e-04 -5.500937e-10 -2.737798e-06)) ((-4.926599e-11 4.410041e-07 -3.399553e-11) (-1.070292e-10 1.656766e-05 -6.852798e-12))
0.064416      	((2.521945e-04 1.863560e-07 -1.169946e-03) (-4.558712e-04 -6.716564e-10 -2.698074e-06)) ((1.377268e-11 -5.820025e-09 -1.417450e-11) (-5.095054e-11 1.492784e-05 -2.030384e-11))
0.0892992     	((-1.192756e-04 9.100137e-09 -8.529448e-04) (-4.199036e-04 -3.873923e-09 -3.228459e-06)) ((-2.561048e-11 -1.510031e-08 -6.192868e-12) (-3.408785e-13 1.412360e-05 -2.633092e-11))
0.119159      	((5.074546e-04 -4.104838e-07 -6.758897e-04) (-3.878416e-04 -6.594284e-09 -4.001277e-06)) ((2.362213e-11 8.295080e-09 1.489278e-12) (1.298383e-11 1.324543e-05 4.835368e-11))
0.154991      	((1.890849e-04 -1.023121e-07 -5.733533e-04) (-3.548905e-04 -6.808678e-09 -4.705707e-06)) ((5.704711e-12 4.055641e-09 -6.546361e-12) (-2.010565e-11 1.230259e-05 1.001931e-10))
0.197989      	((2.338889e-05 -1.308297e-07 -5.005619e-04) (-3.230309e-04 -6.103912e-09 -5.450032e-06)) ((3.655122e-12 1.840254e-09 -1.228245e-11) (-3.371017e-11 1.136989e-05 8.176285e-11))
0.249587      	((-3.124406e-05 -7.059901e-08 -4.575847e-04) (-2.932912e-04 -5.958180e-09 -6.288439e-06)) ((6.771678e-12 9.556144e-10 -7.875852e-12) (-4.712599e-11 1.046766e-05 5.966107e-11))
0.311504      	((-6.073439e-05 -7.305165e-08 -4.306725e-04) (-2.664196e-04 -5.254905e-09 -7.174699e-06)) ((6.181522e-12 5.616175e-10 -7.653627e-12) (-6.575354e-11 9.615837e-06 5.750308e-11))
0.385805      	((-7.723368e-05 -3.692623e-08 -4.132730e-04) (-2.426772e-04 -3.496449e-09 -8.076635e-06)) ((5.957805e-12 2.990483e-10 -5.208602e-12) (-8.240205e-11 8.830671e-06 4.619856e-11))
0.474966      	((-8.480504e-05 -2.812515e-08 -4.009722e-04) (-2.218815e-04 -2.627022e-09 -8.982038e-06)) ((5.296948e-12 8.093001e-11 -2.735741e-12) (-9.143374e-11 8.116665e-06 3.720837e-11))
0.581959      	((-8.750324e-05 -1.494501e-08 -3.926662e-04) (-2.033766e-04 -2.346568e-09 -9.913168e-06)) ((4.532326e-12 -1.196905e-10 -1.270530e-12) (-9.795735e-11 7.463268e-06 1.657030e-11))
0.710351      	((-8.704643e-05 -7.820103e-09 -3.867155e-04) (-1.862160e-04 -2.036436e-09 -1.090682e-05)) ((3.002517e-12 -3.053625e-10 -5.425777e-13) (-1.040720e-10 6.845474e-06 -8.266792e-12))
0.864421      	((-8.451211e-05 -3.855582e-09 -3.823467e-04) (-1.698648e-04 -1.740164e-09 -1.199746e-05)) ((1.819163e-12 -4.589730e-10 -3.436334e-13) (-1.128481e-10 6.249703e-06 -1.383242e-11))
1.049306      	((-8.085027e-05 5.953836e-10 -3.786937e-04) (-1.543788e-04 -1.406097e-09 -1.321945e-05)) ((2.133292e-12 -5.907759e-10 -5.311211e-13) (-1.247942e-10 5.681985e-06 -5.666734e-12))
1.271167      	((-7.692332e-05 5.558172e-09 -3.757401e-04) (-1.399562e-04 -1.122708e-09 -1.455891e-05)) ((1.623988e-12 -7.278993e-10 -5.996549e-13) (-1.357299e-10 5.151924e-06 2.441557e-12))
1.5374        	((-7.347410e-05 -9.823163e-10 -3.728696e-04) (-1.267855e-04 -1.011665e-09 -1.597339e-05)) ((1.523455e-12 -8.774690e-10 -4.536835e-13) (-1.493583e-10 4.667292e-06 1.169327e-11))
1.85688       	((-7.098622e-05 2.279888e-09 -3.699400e-04) (-1.150019e-04 -9.855313e-10 -1.743581e-05)) ((8.224269e-13 -1.024151e-09 -3.990592e-13) (-1.591241e-10 4.233132e-06 2.298170e-11))
2.240256      	((-6.966283e-05 -1.366795e-09 -3.667682e-04) (-1.046415e-04 -9.326066e-10 -1.892084e-05)) ((6.821406e-13 -1.176263e-09 -2.990477e-13) (-1.597218e-10 3.850578e-06 3.626508e-11))
2.700307      	((-6.971181e-05 -1.167767e-08 -3.632421e-04) (-9.566099e-05 -1.222079e-09 -2.040355e-05)) ((1.098364e-12 -1.357517e-09 -2.362406e-13) (-1.684458e-10 3.518467e-06 4.796056e-11))
3.252369      	((-7.125586e-05 -2.370801e-08 -3.592601e-04) (-8.797008e-05 -1.841433e-09 -2.184830e-05)) ((1.443715e-12 -1.571536e-09 -4.406379e-14) (-1.902030e-10 3.234272e-06 6.135233e-11))
3.914842      	((-7.448809e-05 -2.063271e-08 -3.547020e-04) (-8.145915e-05 -2.392512e-09 -2.320820e-05)) ((8.637086e-13 -1.818242e-09 -2.221651e-13) (-2.016295e-10 2.994453e-06 7.671177e-11))
4.709811      	((-7.949903e-05 -2.784772e-08 -3.496610e-04) (-7.601005e-05 -2.947863e-09 -2.445190e-05)) ((1.248912e-12 -2.095708e-09 -3.669165e-13) (-2.165837e-10 2.794718e-06 9.290771e-11))
5.663773      	((-8.629364e-05 -2.423958e-08 -3.440788e-04) (-7.150324e-05 -3.325495e-09 -2.557908e-05)) ((7.203809e-13 -2.405685e-09 -5.537052e-13) (-2.248404e-10 2.629739e-06 1.109565e-10))
6.789363      	((-9.477995e-05 -2.699161e-08 -3.380845e-04) (-6.784738e-05 -4.079864e-09 -2.660552e-05)) ((7.102467e-13 -2.738083e-09 -8.631734e-13) (-2.221169e-10 2.495582e-06 1.302598e-10))
8.086549      	((-1.046390e-04 -2.627476e-08 -3.316443e-04) (-6.492577e-05 -5.113942e-09 -2.751278e-05)) ((1.342838e-12 -3.070158e-09 -1.082094e-12) (-2.403599e-10 2.389272e-06 1.522894e-10))
9.554886      	((-1.153907e-04 -2.483538e-08 -3.247730e-04) (-6.265010e-05 -5.905828e-09 -2.827308e-05)) ((1.898968e-12 -3.369959e-09 -1.668008e-12) (-2.665712e-10 2.306678e-06 1.789702e-10))
11.193596     	((-1.267876e-04 -3.118082e-08 -3.172165e-04) (-6.089935e-05 -6.414785e-09 -2.885430e-05)) ((3.019916e-12 -3.616728e-09 -2.187904e-12) (-3.119788e-10 2.241678e-06 1.720455e-10))
12.885706     	((-1.378553e-04 -1.772588e-08 -3.089069e-04) (-5.964528e-05 -5.597994e-09 -2.915468e-05)) ((4.164603e-12 -3.818251e-09 -2.195115e-12) (-3.736488e-10 2.193437e-06 1.018465e-10))
14.564203     	((-1.471594e-04 3.442525e-09 -2.996509e-04) (-5.869615e-05 -3.413547e-09 -2.922220e-05)) ((4.935832e-12 -3.986013e-09 -1.836002e-12) (-4.247399e-10 2.155602e-06 3.110047e-11))
16.232457     	((-1.550043e-04 2.589472e-08 -2.899215e-04) (-5.787678e-05 -4.865018e-11 -2.913783e-05)) ((4.246910e-12 -4.146900e-09 -9.597525e-13) (-4.310877e-10 2.123251e-06 -6.191657e-11))
17.89808      	((-1.605394e-04 4.911728e-08 -2.800340e-04) (-5.712183e-05 4.026425e-09 -2.898173e-05)) ((3.584608e-12 -4.281083e-09 -1.551628e-13) (-4.183827e-10 2.094492e-06 -1.975375e-10))
19.567962     	((-1.642334e-04 8.617406e-08 -2.705369e-04) (-5.642176e-05 8.766528e-09 -2.879552e-05)) ((2.269863e-12 -4.392103e-09 -3.063560e-14) (-3.373648e-10 2.069231e-06 -3.348512e-10))
21.24523      	((-1.661435e-04 9.130278e-08 -2.614800e-04) (-5.579031e-05 1.249597e-08 -2.858731e-05)) ((1.226760e-12 -4.476920e-09 3.394088e-14) (-2.213249e-10 2.048018e-06 -4.384879e-10))
22.929103     	((-1.662938e-04 8.820055e-08 -2.528999e-04) (-5.520315e-05 1.442281e-08 -2.838211e-05)) ((8.127854e-13 -4.520099e-09 -1.024136e-13) (-1.194699e-10 2.029666e-06 -5.110776e-10))
24.617591     	((-1.653753e-04 1.049557e-07 -2.447117e-04) (-5.464309e-05 1.588457e-08 -2.819711e-05)) ((3.154780e-13 -4.532013e-09 2.059146e-14) (-1.538507e-11 2.012987e-06 -5.399157e-10))
26.310048     	((-1.637642e-04 1.120830e-07 -2.366531e-04) (-5.410558e-05 1.697678e-08 -2.803937e-05)) ((5.010459e-13 -4.513192e-09 -3.335878e-13) (7.190700e-11 1.997224e-06 -5.241389e-10))
28.00659      	((-1.626371e-04 1.093107e-07 -2.295530e-04) (-5.360977e-05 1.720490e-08 -2.789767e-05)) ((4.015829e-13 -4.490630e-09 -4.170941e-13) (1.326089e-10 1.982883e-06 -4.934598e-10))
29.70687      	((-1.616637e-04 9.874654e-08 -2.234993e-04) (-5.317157e-05 1.676883e-08 -2.776598e-05)) ((2.824300e-13 -4.458908e-09 -3.702312e-13) (1.704034e-10 1.970351e-06 -4.516015e-10))
31.410201     	((-1.602957e-04 8.926610e-08 -2.176805e-04) (-5.276653e-05 1.562832e-08 -2.765342e-05)) ((-5.200719e-13 -4.419224e-09 -3.290259e-13) (1.963344e-10 1.958685e-06 -4.127840e-10))
33.115065     	((-1.589205e-04 9.451078e-08 -2.120952e-04) (-5.238078e-05 1.438746e-08 -2.756425e-05)) ((-1.771356e-12 -4.376250e-09 -3.996257e-13) (2.327235e-10 1.947241e-06 -3.694476e-10))
34.821553     	((-1.576686e-04 1.003948e-07 -2.067743e-04) (-5.201617e-05 1.348848e-08 -2.749566e-05)) ((-2.173754e-12 -4.333214e-09 -4.451217e-13) (2.754359e-10 1.935969e-06 -3.008617e-10))
36.530031     	((-1.566471e-04 1.103156e-07 -2.017711e-04) (-5.167375e-05 1.280361e-08 -2.744181e-05)) ((-2.458413e-12 -4.297791e-09 -7.491752e-13) (3.170119e-10 1.925022e-06 -2.230015e-10))
38.240596     	((-1.557363e-04 1.241989e-07 -1.970612e-04) (-5.135214e-05 1.254747e-08 -2.739898e-05)) ((-2.884499e-12 -4.268927e-09 -1.153214e-12) (3.824588e-10 1.914505e-06 -1.438229e-10))
39.953419     	((-1.549508e-04 1.396146e-07 -1.925547e-04) (-5.105029e-05 1.251522e-08 -2.736005e-05)) ((-2.962650e-12 -4.247488e-09 -1.354393e-12) (4.442514e-10 1.904608e-06 -5.393486e-11))
41.668592     	((-1.541077e-04 1.565440e-07 -1.881576e-04) (-5.076390e-05 1.257416e-08 -2.732023e-05)) ((-3.250050e-12 -4.227889e-09 -1.371393e-12) (4.967303e-10 1.895360e-06 4.371179e-11))
43.386218     	((-1.533765e-04 1.865640e-07 -1.839359e-04) (-5.049369e-05 1.326327e-08 -2.727572e-05)) ((-3.820987e-12 -4.212887e-09 -1.287017e-12) (5.735301e-10 1.886889e-06 1.338406e-10))
45.106378     	((-1.528191e-04 1.975843e-07 -1.799451e-04) (-5.024581e-05 1.386355e-08 -2.722451e-05)) ((-3.477436e-12 -4.201994e-09 -1.218528e-12) (6.435442e-10 1.879445e-06 2.244828e-10))
46.829152     	((-1.522921e-04 2.202526e-07 -1.761037e-04) (-5.001885e-05 1.450053e-08 -2.716731e-05)) ((-3.825946e-12 -4.194202e-09 -1.048125e-12) (7.093708e-10 1.872956e-06 3.062126e-10))
48.5546       	((-1.516945e-04 2.477396e-07 -1.723544e-04) (-4.980511e-05 1.578624e-08 -2.711051e-05)) ((-4.636670e-12 -4.183485e-09 -9.926365e-13) (8.032432e-10 1.866980e-06 3.791527e-10))
50.282691     	((-1.512357e-04 2.705041e-07 -1.688430e-04) (-4.960608e-05 1.734494e-08 -2.705634e-05)) ((-5.118473e-12 -4.174302e-09 -9.702459e-13) (9.060925e-10 1.861475e-06 4.465573e-10))
52.013649     	((-1.506374e-04 2.937054e-07 -1.654209e-04) (-4.941598e-05 1.891570e-08 -2.700810e-05)) ((-5.559307e-12 -4.161333e-09 -1.068605e-12) (1.011036e-09 1.856186e-06 5.127779e-10))
53.747567     	((-1.500307e-04 3.337423e-07 -1.620602e-04) (-4.923018e-05 2.099084e-08 -2.696796e-05)) ((-6.290805e-12 -4.148146e-09 -1.092611e-12) (1.143340e-09 1.850914e-06 5.819318e-10))
55.484334     	((-1.494629e-04 3.553365e-07 -1.588121e-04) (-4.905019e-05 2.334416e-08 -2.693146e-05)) ((-6.498494e-12 -4.137748e-09 -1.095838e-12) (1.269454e-09 1.845803e-06 6.293386e-10))
57.223846     	((-1.489974e-04 3.788758e-07 -1.557849e-04) (-4.887840e-05 2.574117e-08 -2.689664e-05)) ((-6.600460e-12 -4.128615e-09 -1.028878e-12) (1.379118e-09 1.840952e-06 6.647937e-10))
58.966022     	((-1.485549e-04 3.969828e-07 -1.529324e-04) (-4.871553e-05 2.781759e-08 -2.686493e-05)) ((-6.131189e-12 -4.119125e-09 -9.774227e-13) (1.465561e-09 1.836339e-06 7.134507e-10))
60.710872     	((-1.481686e-04 4.250190e-07 -1.502132e-04) (-4.856227e-05 3.004862e-08 -2.683425e-05)) ((-6.215280e-12 -4.111546e-09 -8.815655e-13) (1.549801e-09 1.832068e-06 7.619657e-10))
62.458462     	((-1.477322e-04 4.452933e-07 -1.475919e-04) (-4.841623e-05 3.253909e-08 -2.680577e-05)) ((-6.295247e-12 -4.100928e-09 -7.779618e-13) (1.636772e-09 1.828013e-06 7.918835e-10))
64.208792     	((-1.473091e-04 4.811404e-07 -1.450694e-04) (-4.827545e-05 3.549825e-08 -2.678511e-05)) ((-7.037682e-12 -4.085831e-09 -7.372343e-13) (1.737760e-09 1.823880e-06 8.002658e-10))
65.961785     	((-1.469304e-04 5.265729e-07 -1.426742e-04) (-4.813956e-05 3.956697e-08 -2.677588e-05)) ((-8.124228e-12 -4.068083e-09 -6.901922e-13) (1.878663e-09 1.819527e-06 7.859369e-10))
67.717316     	((-1.464822e-04 5.741711e-07 -1.403409e-04) (-4.800391e-05 4.426161e-08 -2.677888e-05)) ((-9.038902e-12 -4.047797e-09 -5.421146e-13) (2.052447e-09 1.814811e-06 7.740777e-10))
69.475262     	((-1.460614e-04 6.253890e-07 -1.380894e-04) (-4.786932e-05 4.915811e-08 -2.678740e-05)) ((-1.002812e-11 -4.030187e-09 -4.848150e-13) (2.249672e-09 1.809990e-06 7.840807e-10))
71.235525     	((-1.456427e-04 6.786269e-07 -1.358715e-04) (-4.773878e-05 5.401350e-08 -2.679384e-05)) ((-1.100587e-11 -4.015130e-09 -4.390595e-13) (2.457233e-09 1.805401e-06 8.233277e-10))
72.998025     	((-1.452363e-04 7.405180e-07 -1.337069e-04) (-4.761301e-05 5.897889e-08 -2.679566e-05)) ((-1.205951e-11 -4.002479e-09 -4.424515e-13) (2.677621e-09 1.801130e-06 8.859799e-10))
74.762699     	((-1.448590e-04 8.115865e-07 -1.316009e-04) (-4.749220e-05 6.477844e-08 -2.679252e-05)) ((-1.293631e-11 -3.992036e-09 -5.884081e-13) (2.917539e-09 1.797155e-06 9.398290e-10))
76.529491     	((-1.445134e-04 8.912278e-07 -1.295580e-04) (-4.737625e-05 7.150112e-08 -2.678560e-05)) ((-1.394521e-11 -3.982973e-09 -7.447113e-13) (3.182317e-09 1.793417e-06 9.830014e-10))
78.298342     	((-1.442062e-04 9.870775e-07 -1.276075e-04) (-4.726543e-05 7.911252e-08 -2.677575e-05)) ((-1.520773e-11 -3.975685e-09 -8.809927e-13) (3.480138e-09 1.789896e-06 1.030230e-09))
80.069205     	((-1.438843e-04 1.103588e-06 -1.256973e-04) (-4.715853e-05 8.815296e-08 -2.676477e-05)) ((-1.730420e-11 -3.968083e-09 -1.036145e-12) (3.846687e-09 1.786518e-06 1.085488e-09))
81.84203      	((-1.435896e-04 1.224669e-06 -1.238886e-04) (-4.705578e-05 9.820273e-08 -2.675338e-05)) ((-1.930472e-11 -3.961084e-09 -1.115551e-12) (4.271837e-09 1.783270e-06 1.162912e-09))
83.61677      	((-1.432999e-04 1.350159e-06 -1.221307e-04) (-4.695734e-05 1.087926e-07 -2.674092e-05)) ((-2.094129e-11 -3.954939e-09 -1.179112e-12) (4.721735e-09 1.780179e-06 1.267426e-09))
85.393384     	((-1.430374e-04 1.484073e-06 -1.204471e-04) (-4.686361e-05 1.200922e-07 -2.672668e-05)) ((-2.264538e-11 -3.950022e-09 -1.191432e-12) (5.196596e-09 1.777282e-06 1.387697e-09))
87.171842     	((-1.427931e-04 1.631398e-06 -1.188419e-04) (-4.677482e-05 1.324279e-07 -2.671076e-05)) ((-2.487796e-11 -3.946067e-09 -1.205725e-12) (5.720285e-09 1.774587e-06 1.529901e-09))
88.952106     	((-1.425406e-04 1.787435e-06 -1.172952e-04) (-4.668985e-05 1.456836e-07 -2.669441e-05)) ((-2.715810e-11 -3.941949e-09 -1.291197e-12) (6.289783e-09 1.772036e-06 1.693747e-09))
90.734113     	((-1.422849e-04 1.959964e-06 -1.158081e-04) (-4.660815e-05 1.600479e-07 -2.667790e-05)) ((-2.960498e-11 -3.937935e-09 -1.422740e-12) (6.905169e-09 1.769596e-06 1.860046e-09))
92.517793     	((-1.420346e-04 2.141726e-06 -1.143707e-04) (-4.652944e-05 1.756246e-07 -2.666087e-05)) ((-3.215158e-11 -3.934171e-09 -1.561765e-12) (7.567851e-09 1.767256e-06 2.024281e-09))
94.303081     	((-1.417889e-04 2.344896e-06 -1.129686e-04) (-4.645304e-05 1.928302e-07 -2.664281e-05)) ((-3.508114e-11 -3.930814e-09 -1.712225e-12) (8.290995e-09 1.764997e-06 2.190731e-09))
96.08992      	((-1.415560e-04 2.564362e-06 -1.116025e-04) (-4.637890e-05 2.116874e-07 -2.662290e-05)) ((-3.839867e-11 -3.928090e-09 -1.853423e-12) (9.084055e-09 1.762826e-06 2.367803e-09))
97.878253     	((-1.413279e-04 2.800302e-06 -1.102578e-04) (-4.630717e-05 2.322684e-07 -2.660057e-05)) ((-4.204511e-11 -3.925720e-09 -1.968068e-12) (9.950753e-09 1.760755e-06 2.554282e-09))
99.668031     	((-1.411187e-04 3.056458e-06 -1.089481e-04) (-4.623784e-05 2.547634e-07 -2.657552e-05)) ((-4.603436e-11 -3.924159e-09 -2.094274e-12) (1.089690e-08 1.758784e-06 2.749889e-09))
101.459198    	((-1.409265e-04 3.330020e-06 -1.076789e-04) (-4.617143e-05 2.790428e-07 -2.654751e-05)) ((-5.024856e-11 -3.923295e-09 -2.287601e-12) (1.191940e-08 1.756936e-06 2.966317e-09))
103.251713    	((-1.407367e-04 3.638553e-06 -1.064339e-04) (-4.610789e-05 3.055566e-07 -2.651657e-05)) ((-5.494502e-11 -3.922918e-09 -2.517799e-12) (1.303659e-08 1.755212e-06 3.206002e-09))
105.04555     	((-1.405530e-04 3.990218e-06 -1.052125e-04) (-4.604697e-05 3.351534e-07 -2.648284e-05)) ((-6.022465e-11 -3.922996e-09 -2.748427e-12) (1.427817e-08 1.753603e-06 3.463420e-09))
106.840685    	((-1.403798e-04 4.387584e-06 -1.040228e-04) (-4.598886e-05 3.682859e-07 -2.644645e-05)) ((-6.617220e-11 -3.923290e-09 -2.982992e-12) (1.566318e-08 1.752109e-06 3.745495e-09))
108.637088    	((-1.402090e-04 4.832231e-06 -1.028630e-04) (-4.593367e-05 4.052869e-07 -2.640790e-05)) ((-7.288269e-11 -3.923432e-09 -3.205527e-12) (1.720772e-08 1.750727e-06 4.059578e-09))
110.434729    	((-1.400362e-04 5.331263e-06 -1.017243e-04) (-4.588113e-05 4.464057e-07 -2.636776e-05)) ((-8.046271e-11 -3.923289e-09 -3.399626e-12) (1.893556e-08 1.749436e-06 4.420503e-09))
112.233581    	((-1.398738e-04 5.887252e-06 -1.006162e-04) (-4.583136e-05 4.922149e-07 -2.632660e-05)) ((-8.907896e-11 -3.922969e-09 -3.609360e-12) (2.087294e-08 1.748236e-06 4.833874e-09))
114.033609    	((-1.397202e-04 6.505785e-06 -9.953502e-05) (-4.578446e-05 5.433100e-07 -2.628443e-05)) ((-9.871308e-11 -3.922477e-09 -3.834455e-12) (2.304041e-08 1.747140e-06 5.298187e-09))
115.834773    	((-1.395689e-04 7.187381e-06 -9.847429e-05) (-4.574015e-05 6.001148e-07 -2.624156e-05)) ((-1.093673e-10 -3.921548e-09 -4.073036e-12) (2.545273e-08 1.746140e-06 5.815239e-09))
117.637032    	((-1.394288e-04 7.931086e-06 -9.744071e-05) (-4.569822e-05 6.628364e-07 -2.619888e-05)) ((-1.208563e-10 -3.920280e-09 -4.357923e-12) (2.811611e-08 1.745216e-06 6.392369e-09))
119.440339    	((-1.392894e-04 8.745596e-06 -9.643314e-05) (-4.565802e-05 7.319932e-07 -2.615819e-05)) ((-1.334488e-10 -3.918006e-09 -4.594230e-12) (3.104924e-08 1.744296e-06 7.026589e-09))
121.244634    	((-1.391508e-04 9.644084e-06 -9.544423e-05) (-4.561865e-05 8.085664e-07 -2.612115e-05)) ((-1.474804e-10 -3.914786e-09 -4.782292e-12) (3.429242e-08 1.743308e-06 7.707921e-09))
123.049845    	((-1.390170e-04 1.062824e-05 -9.448479e-05) (-4.557989e-05 8.934860e-07 -2.608803e-05)) ((-1.626619e-10 -3.911470e-09 -5.001486e-12) (3.788180e-08 1.742252e-06 8.431868e-09))
124.855877    	((-1.388843e-04 1.170549e-05 -9.353922e-05) (-4.554179e-05 9.875920e-07 -2.605775e-05)) ((-1.792052e-10 -3.908560e-09 -5.290817e-12) (4.185459e-08 1.741186e-06 9.190486e-09))
126.662632    	((-1.387675e-04 1.288572e-05 -9.261736e-05) (-4.550521e-05 1.091537e-06 -2.602841e-05)) ((-1.971649e-10 -3.906493e-09 -5.568717e-12) (4.624283e-08 1.740209e-06 1.000097e-08))
128.470022    	((-1.386837e-04 1.416428e-05 -9.173845e-05) (-4.547157e-05 1.205363e-06 -2.599871e-05)) ((-2.163677e-10 -3.905483e-09 -5.860338e-12) (5.105478e-08 1.739399e-06 1.088717e-08))
130.277544    	((-1.386213e-04 1.557957e-05 -9.088345e-05) (-4.544142e-05 1.330216e-06 -2.596885e-05)) ((-2.377877e-10 -3.904544e-09 -6.228586e-12) (5.633621e-08 1.738780e-06 1.184236e-08))
132.084475    	((-1.385785e-04 1.712900e-05 -9.005900e-05) (-4.541466e-05 1.467328e-06 -2.593864e-05)) ((-2.612010e-10 -3.904431e-09 -6.569696e-12) (6.212318e-08 1.738348e-06 1.287106e-08))
133.890713    	((-1.385699e-04 1.882319e-05 -8.926703e-05) (-4.539162e-05 1.617930e-06 -2.590786e-05)) ((-2.867431e-10 -3.905451e-09 -6.840600e-12) (6.845827e-08 1.738106e-06 1.397510e-08))
135.696146    	((-1.385832e-04 2.068605e-05 -8.849532e-05) (-4.537203e-05 1.783628e-06 -2.587673e-05)) ((-3.149553e-10 -3.906638e-09 -7.045754e-12) (7.540404e-08 1.738035e-06 1.516393e-08))
137.500649    	((-1.386352e-04 2.273019e-05 -8.776572e-05) (-4.535646e-05 1.965594e-06 -2.584441e-05)) ((-3.460481e-10 -3.908792e-09 -7.224161e-12) (8.301639e-08 1.738155e-06 1.646307e-08))
139.304078    	((-1.387322e-04 2.498015e-05 -8.707756e-05) (-4.534516e-05 2.165650e-06 -2.581082e-05)) ((-3.801475e-10 -3.911814e-09 -7.315979e-12) (9.138374e-08 1.738482e-06 1.788691e-08))
141.106282    	((-1.388584e-04 2.745497e-05 -8.641485e-05) (-4.533793e-05 2.386247e-06 -2.577654e-05)) ((-4.177961e-10 -3.915244e-09 -7.340145e-12) (1.005986e-07 1.738990e-06 1.943547e-08))
142.907112    	((-1.390565e-04 3.017489e-05 -8.579827e-05) (-4.533587e-05 2.630084e-06 -2.574180e-05)) ((-4.591005e-10 -3.919606e-09 -7.454865e-12) (1.107501e-07 1.739701e-06 2.107689e-08))
