# Forces      
# CofR        : (0.000000e+00 0.000000e+00 0.000000e+00)
# Time        forces(pressure viscous)	moments(pressure viscous)
0             	((0.000000e+00 0.000000e+00 0.000000e+00) (0.000000e+00 0.000000e+00 0.000000e+00)) ((0.000000e+00 0.000000e+00 0.000000e+00) (0.000000e+00 0.000000e+00 0.000000e+00))
0.012         	((1.941223e-09 -3.031163e-07 3.456349e-09) (4.964551e-11 -3.374125e-09 4.920723e-11)) ((2.235999e-11 5.173567e-13 4.232628e-09) (-6.389684e-11 -1.396274e-12 8.451761e-06))
0.0264        	((-2.935086e-09 1.089347e-07 -2.047150e-08) (5.001815e-11 -3.666784e-09 -8.012155e-11)) ((5.203312e-11 9.973977e-13 1.362979e-09) (-1.100630e-10 -3.064703e-13 7.400066e-06))
0.04368       	((2.541656e-09 -5.303891e-08 -4.376273e-08) (3.447784e-11 -2.409571e-09 -3.865496e-10)) ((-2.114911e-11 2.048856e-12 7.958993e-10) (-8.494916e-11 3.785063e-13 6.410689e-06))
0.064416      	((5.780839e-09 -1.212712e-08 -8.556568e-08) (-1.440799e-10 -1.177194e-09 -1.838642e-10)) ((9.909784e-12 1.755497e-12 5.988893e-10) (-3.104293e-11 7.855153e-12 5.514586e-06))
0.0892992     	((8.574772e-09 -2.679550e-08 -1.324112e-07) (-4.798076e-10 -5.778270e-10 9.902006e-10)) ((-4.644942e-12 4.570625e-12 5.128192e-10) (-5.315860e-12 2.148856e-11 4.736765e-06))
0.119159      	((7.973741e-09 -1.272706e-08 -1.864249e-07) (-8.652343e-10 -4.202690e-10 3.455544e-09)) ((-2.871941e-12 5.493751e-12 4.208755e-10) (1.392350e-11 2.973432e-11 4.081819e-06))
0.154991      	((7.773533e-09 -2.503354e-08 -2.326930e-07) (-1.194846e-09 -1.479695e-10 8.678659e-09)) ((-5.016159e-12 4.127026e-12 3.483010e-10) (2.102632e-11 3.932188e-11 3.539203e-06))
0.197989      	((9.239563e-09 -2.318205e-08 -2.737033e-07) (-1.297089e-09 9.018602e-11 1.838977e-08)) ((-4.542358e-12 4.079841e-12 2.962120e-10) (2.442296e-11 4.867286e-11 3.091326e-06))
0.249587      	((1.127570e-08 -2.092415e-08 -3.175446e-07) (-1.762853e-09 3.506174e-10 3.215413e-08)) ((-3.988043e-12 5.017346e-12 2.620245e-10) (2.227687e-11 5.279166e-11 2.720723e-06))
0.311504      	((3.861577e-09 -2.604156e-08 -3.608358e-07) (-2.220359e-09 5.151846e-10 4.901100e-08)) ((-3.113347e-12 5.778915e-12 2.358942e-10) (2.003843e-11 6.385223e-11 2.409896e-06))
0.385805      	((1.026342e-08 -2.483737e-08 -4.041584e-07) (-2.455833e-09 6.689716e-10 6.887679e-08)) ((-6.400635e-13 7.632854e-12 2.122535e-10) (1.981903e-11 7.826855e-11 2.146704e-06))
0.474966      	((1.119150e-08 -2.481953e-08 -4.432668e-07) (-2.450161e-09 1.150228e-09 9.141100e-08)) ((1.221537e-12 7.527496e-12 1.912734e-10) (2.807553e-11 9.426960e-11 1.921369e-06))
0.581959      	((1.891674e-08 -2.283909e-08 -4.894668e-07) (-2.032578e-09 1.650911e-09 1.170806e-07)) ((1.685110e-12 7.377674e-12 1.749880e-10) (3.513137e-11 1.026087e-10 1.726093e-06))
0.710351      	((2.119759e-08 -2.039604e-08 -5.471241e-07) (-1.406478e-09 1.741412e-09 1.470124e-07)) ((2.202891e-12 6.226859e-12 1.606507e-10) (4.066007e-11 8.436257e-11 1.554783e-06))
0.864421      	((2.462144e-08 -1.854622e-08 -6.162707e-07) (-1.158530e-09 1.534760e-09 1.820896e-07)) ((3.050112e-12 2.362199e-12 1.468013e-10) (4.126469e-11 6.233066e-11 1.403165e-06))
1.049306      	((1.817582e-08 -1.328167e-08 -6.930696e-07) (-1.916917e-09 2.012207e-09 2.232857e-07)) ((4.786094e-12 -1.919962e-12 1.344107e-10) (4.219783e-11 6.172247e-11 1.268708e-06))
1.271167      	((1.667482e-08 -1.085621e-08 -7.659117e-07) (-2.998868e-09 2.622272e-09 2.695613e-07)) ((5.800997e-12 -3.715379e-12 1.237795e-10) (4.521855e-11 7.214242e-11 1.150168e-06))
1.5374        	((5.665487e-09 -4.830900e-09 -8.336808e-07) (-3.908631e-09 2.739246e-09 3.198282e-07)) ((5.488563e-12 -4.978421e-12 1.138824e-10) (4.237614e-11 9.354173e-11 1.046838e-06))
1.85688       	((2.568869e-09 7.990409e-10 -9.108043e-07) (-4.085203e-09 3.095232e-09 3.730645e-07)) ((5.265398e-12 -3.967312e-12 1.050320e-10) (2.065263e-11 1.033052e-10 9.577705e-07))
2.240256      	((5.232394e-09 -2.299495e-09 -9.981750e-07) (-3.118087e-09 2.392657e-09 4.288603e-07)) ((4.269705e-12 -3.419050e-12 9.644442e-11) (-3.210210e-12 1.024814e-10 8.812782e-07))
2.700307      	((1.908126e-09 -1.345876e-08 -1.093653e-06) (-1.387135e-09 8.416756e-10 4.866729e-07)) ((3.654120e-12 -4.146454e-12 8.845178e-11) (-3.436714e-11 9.407254e-11 8.150853e-07))
3.252369      	((-3.986111e-10 -1.499811e-08 -1.199103e-06) (1.066996e-09 -3.871139e-10 5.470654e-07)) ((2.935128e-12 -6.835633e-12 8.092768e-11) (-7.643441e-11 8.547041e-11 7.568533e-07))
3.914842      	((-5.111442e-09 -1.978717e-08 -1.338758e-06) (2.432545e-09 -1.240359e-09 6.100318e-07)) ((1.611370e-12 -8.040647e-12 7.373360e-11) (-1.055356e-10 7.120241e-11 7.046658e-07))
4.709811      	((-1.441856e-08 -1.882180e-08 -1.490377e-06) (2.779252e-09 -1.366631e-09 6.756269e-07)) ((6.769804e-13 -9.159131e-12 6.709654e-11) (-1.114963e-10 6.193117e-11 6.572296e-07))
5.663773      	((-1.887605e-08 -2.404375e-08 -1.655037e-06) (2.689828e-09 -1.275211e-09 7.452489e-07)) ((4.577354e-13 -9.184323e-12 6.116223e-11) (-1.129695e-10 5.785991e-11 6.137020e-07))
6.808528      	((-1.991539e-08 -1.953481e-08 -1.826071e-06) (1.706433e-09 -9.173590e-10 8.200979e-07)) ((-3.080252e-13 -9.718530e-12 5.578869e-11) (-9.477894e-11 7.750564e-11 5.734683e-07))
8.182233      	((-2.048457e-08 -1.515678e-08 -1.997637e-06) (7.559824e-10 -5.303773e-11 9.039784e-07)) ((-7.666079e-13 -1.001439e-11 5.120882e-11) (-4.196446e-11 1.228465e-10 5.361023e-07))
9.83068       	((-1.728569e-08 -1.799442e-08 -2.163724e-06) (-1.255129e-09 1.324050e-09 9.966664e-07)) ((-9.191604e-13 -1.062199e-11 4.700721e-11) (8.337753e-12 1.686289e-10 5.014035e-07))
11.808816     	((-1.144086e-08 -1.781844e-08 -2.338929e-06) (-3.700790e-09 2.459773e-09 1.098907e-06)) ((-1.118757e-12 -1.174332e-11 4.319294e-11) (3.387290e-11 2.033822e-10 4.693421e-07))
14.182579     	((-1.405749e-08 -1.482262e-08 -2.508381e-06) (-4.055261e-09 2.718093e-09 1.207531e-06)) ((-1.156643e-12 -1.260053e-11 3.962913e-11) (5.167767e-11 1.849148e-10 4.400310e-07))
17.031095     	((-1.416601e-08 -1.631278e-08 -2.686828e-06) (-3.474501e-09 2.437932e-09 1.323209e-06)) ((-9.904060e-13 -1.358209e-11 3.630521e-11) (4.750314e-11 1.225289e-10 4.136165e-07))
20.449314     	((-1.325932e-08 -1.288288e-08 -2.866638e-06) (-2.528845e-09 2.197587e-09 1.447317e-06)) ((-1.650824e-12 -1.452614e-11 3.348303e-11) (7.890713e-11 4.768826e-11 3.901136e-07))
24.551176     	((-1.354714e-08 -1.582978e-08 -3.046831e-06) (-1.401135e-09 2.223707e-09 1.575656e-06)) ((-2.197224e-12 -1.519709e-11 3.102385e-11) (1.205291e-10 -1.195814e-11 3.693953e-07))
29.473411     	((-1.283808e-08 -1.687369e-08 -3.235921e-06) (-7.519025e-10 2.474246e-09 1.707786e-06)) ((-2.530927e-12 -1.643849e-11 2.900607e-11) (1.432569e-10 -4.759039e-11 3.511868e-07))
35.380094     	((-1.165155e-08 -1.871387e-08 -3.432898e-06) (-4.047003e-10 2.238487e-09 1.842711e-06)) ((-2.928723e-12 -1.784441e-11 2.731962e-11) (1.443331e-10 -6.792338e-11 3.351646e-07))
42.305766     	((-9.214198e-09 -1.891309e-08 -3.628124e-06) (-1.222099e-10 1.846370e-09 1.980634e-06)) ((-2.654146e-12 -1.969368e-11 2.584793e-11) (1.274313e-10 -9.140065e-11 3.212045e-07))
50.250257     	((-7.648812e-09 -2.021519e-08 -3.806698e-06) (-9.379899e-11 1.457986e-09 2.120847e-06)) ((-2.322384e-12 -2.129147e-11 2.450707e-11) (1.114100e-10 -1.254990e-10 3.091506e-07))
59.213366     	((-5.523161e-09 -2.271977e-08 -3.976604e-06) (-1.597216e-10 8.997742e-10 2.261132e-06)) ((-1.937214e-12 -2.264944e-11 2.337086e-11) (9.836106e-11 -1.713312e-10 2.988539e-07))
69.194855     	((-3.560143e-09 -2.348503e-08 -4.135766e-06) (4.146912e-10 5.374115e-10 2.401089e-06)) ((-1.632223e-12 -2.404671e-11 2.244195e-11) (8.212803e-11 -2.189517e-10 2.902152e-07))
79.375658     	((-1.165168e-09 -2.174615e-08 -4.286981e-06) (1.335543e-09 9.199579e-10 2.536797e-06)) ((-1.263046e-12 -2.575350e-11 2.158963e-11) (8.102706e-11 -2.678872e-10 2.834050e-07))
89.55314      	((6.064150e-10 -1.977997e-08 -4.403102e-06) (2.352776e-09 1.398429e-09 2.668109e-06)) ((-1.103860e-12 -2.725599e-11 2.082633e-11) (9.131266e-11 -3.157500e-10 2.782271e-07))
99.727117     	((2.467149e-09 -1.523025e-08 -4.493403e-06) (3.395110e-09 2.352432e-09 2.793483e-06)) ((-1.083072e-12 -2.850005e-11 2.015707e-11) (1.296783e-10 -3.583581e-10 2.744915e-07))
109.897237    	((4.711077e-09 -1.094441e-08 -4.562872e-06) (4.178832e-09 3.579424e-09 2.913513e-06)) ((-1.292521e-12 -2.983403e-11 1.954543e-11) (2.002697e-10 -3.843912e-10 2.720007e-07))
120.063083    	((2.247853e-09 -7.518713e-09 -4.613786e-06) (4.291853e-09 5.030740e-09 3.029036e-06)) ((-1.454354e-12 -3.131290e-11 1.908574e-11) (2.754154e-10 -3.884548e-10 2.706049e-07))
130.224421    	((-6.282928e-11 -5.570703e-09 -4.640872e-06) (3.906979e-09 6.040708e-09 3.140341e-06)) ((-1.483199e-12 -3.263442e-11 1.877110e-11) (3.413227e-10 -3.807796e-10 2.701670e-07))
140.380878    	((-4.284539e-09 -5.304954e-09 -4.653480e-06) (3.139030e-09 6.805423e-09 3.247197e-06)) ((-1.538721e-12 -3.413065e-11 1.856199e-11) (3.934755e-10 -3.614319e-10 2.705850e-07))
150.532131    	((-5.582300e-09 -5.741752e-09 -4.652102e-06) (2.513263e-09 7.204778e-09 3.349036e-06)) ((-1.687261e-12 -3.583945e-11 1.844868e-11) (4.317331e-10 -3.372486e-10 2.717620e-07))
160.677877    	((-7.395381e-09 -6.906213e-09 -4.636244e-06) (2.480242e-09 6.902552e-09 3.445741e-06)) ((-1.747385e-12 -3.752378e-11 1.845168e-11) (4.566296e-10 -3.116547e-10 2.736065e-07))
170.818012    	((-8.260852e-09 -7.705758e-09 -4.609484e-06) (2.477107e-09 6.322400e-09 3.536536e-06)) ((-1.810422e-12 -3.906478e-11 1.861742e-11) (4.798327e-10 -2.889900e-10 2.760344e-07))
180.95249     	((-8.470120e-09 -9.119649e-09 -4.569849e-06) (2.528726e-09 5.808164e-09 3.618135e-06)) ((-1.762822e-12 -4.031975e-11 1.884345e-11) (4.984019e-10 -2.692657e-10 2.789474e-07))
190.925215    	((-7.338943e-09 -9.439333e-09 -4.523290e-06) (2.982193e-09 5.799369e-09 3.687458e-06)) ((-1.708654e-12 -4.136949e-11 1.910569e-11) (5.074525e-10 -2.559882e-10 2.821984e-07))
200.754559    	((-7.061860e-09 -8.912049e-09 -4.469603e-06) (2.999564e-09 5.642936e-09 3.742794e-06)) ((-1.698595e-12 -4.203876e-11 1.942875e-11) (5.179532e-10 -2.458135e-10 2.856471e-07))
210.46783     	((-7.134896e-09 -8.705897e-09 -4.414657e-06) (2.782284e-09 5.457078e-09 3.783352e-06)) ((-1.665278e-12 -4.233335e-11 1.975861e-11) (5.238360e-10 -2.326455e-10 2.891534e-07))
220.087864    	((-7.081407e-09 -8.788051e-09 -4.357633e-06) (2.657059e-09 5.374293e-09 3.808916e-06)) ((-1.650541e-12 -4.228845e-11 2.008586e-11) (5.226099e-10 -2.176691e-10 2.925910e-07))
229.633824    	((-7.073269e-09 -9.740981e-09 -4.298939e-06) (2.586319e-09 5.144722e-09 3.819915e-06)) ((-1.654991e-12 -4.194162e-11 2.042835e-11) (5.123317e-10 -2.057508e-10 2.958437e-07))
239.085203    	((-6.931467e-09 -1.009275e-08 -4.233779e-06) (2.428947e-09 4.695272e-09 3.816538e-06)) ((-1.661075e-12 -4.118068e-11 2.075229e-11) (4.952253e-10 -1.939055e-10 2.987991e-07))
