# Forces      
# CofR        : (0.000000e+00 0.000000e+00 0.000000e+00)
# Time        forces(pressure viscous)	moments(pressure viscous)
0             	((0.000000e+00 0.000000e+00 0.000000e+00) (0.000000e+00 0.000000e+00 0.000000e+00)) ((0.000000e+00 0.000000e+00 0.000000e+00) (0.000000e+00 0.000000e+00 0.000000e+00))
0.012         	((6.833463e-11 9.110924e-06 1.474700e-06) (-3.728810e-12 2.095517e-05 -2.335215e-10)) ((1.335656e-09 4.740402e-12 -1.224253e-11) (1.394475e-06 8.247390e-14 2.226371e-12))
0.0264        	((-4.820384e-09 1.224477e-05 3.122111e-06) (-1.300489e-11 1.919563e-05 -7.443738e-10)) ((-5.975190e-10 1.029571e-11 -5.500243e-12) (1.278774e-06 1.648575e-13 2.198968e-12))
0.04368       	((4.441971e-09 8.279470e-06 1.690023e-06) (-2.225096e-11 1.738159e-05 -1.727799e-09)) ((-4.390574e-10 5.075700e-12 -6.207952e-12) (1.159853e-06 1.566879e-14 4.330088e-12))
0.064416      	((-4.568400e-09 9.360301e-06 2.184217e-06) (-3.078751e-11 1.555465e-05 -3.274361e-09)) ((-8.744064e-10 6.627895e-12 -3.989112e-12) (1.040514e-06 -6.433266e-13 2.249689e-12))
0.0892992     	((3.115863e-09 6.911295e-06 1.450780e-06) (-3.207718e-11 1.376857e-05 -5.366930e-09)) ((-6.195151e-10 4.039764e-12 -2.591383e-12) (9.242723e-07 -1.166175e-12 -4.242687e-12))
0.119159      	((-1.265180e-09 7.084520e-06 1.570900e-06) (-5.249513e-11 1.208135e-05 -7.867327e-09)) ((-7.589871e-10 4.510858e-12 -1.380027e-12) (8.150156e-07 -1.074905e-12 -7.809214e-12))
0.154991      	((1.866676e-09 5.353678e-06 1.115646e-06) (-8.496193e-11 1.054629e-05 -1.093008e-08)) ((-5.281796e-10 2.744078e-12 -5.834700e-13) (7.151357e-07 -1.041699e-12 -9.656122e-12))
0.197989      	((4.019683e-11 5.289668e-06 1.116660e-06) (-1.198618e-10 9.190142e-06 -1.459854e-08)) ((-6.011466e-10 2.955149e-12 -9.470363e-13) (6.268109e-07 -5.868704e-13 -1.069405e-11))
0.249587      	((1.212530e-09 4.127467e-06 8.602687e-07) (-2.047060e-10 8.029661e-06 -1.859237e-08)) ((-4.319140e-10 1.830382e-12 -8.830594e-13) (5.507175e-07 -4.376773e-13 -1.048789e-11))
0.311504      	((7.525118e-10 4.008458e-06 8.220685e-07) (-1.325468e-10 7.060057e-06 -2.231301e-08)) ((-4.805520e-10 1.928724e-12 -1.552008e-12) (4.867639e-07 -1.966544e-12 -9.472841e-12))
0.385805      	((6.744303e-10 3.244294e-06 6.751931e-07) (-1.382769e-10 6.252158e-06 -2.604581e-08)) ((-3.615418e-10 1.291717e-12 -1.097661e-12) (4.333782e-07 -3.613051e-12 -6.912554e-12))
0.474966      	((6.777892e-10 3.133987e-06 6.208694e-07) (-1.209907e-10 5.576139e-06 -2.834675e-08)) ((-3.957430e-10 1.133832e-12 -1.345247e-12) (3.887180e-07 -5.226717e-12 -4.045689e-12))
0.581959      	((3.553486e-10 2.618652e-06 5.266911e-07) (-1.038762e-10 5.001602e-06 -3.089124e-08)) ((-3.110745e-10 8.465218e-13 -9.234346e-13) (3.507333e-07 -4.857994e-12 -2.699016e-12))
0.710351      	((1.143145e-09 2.515683e-06 4.675855e-07) (-8.743011e-11 4.505595e-06 -3.140113e-08)) ((-3.350098e-10 6.745790e-13 -1.192561e-12) (3.179940e-07 -5.372707e-12 -9.206957e-13))
0.864421      	((3.621735e-10 2.158557e-06 4.044121e-07) (-7.679887e-11 4.069980e-06 -3.345608e-08)) ((-2.815605e-10 4.208241e-13 -7.365633e-13) (2.893025e-07 -6.151962e-12 -3.752834e-13))
1.049306      	((9.670283e-10 2.041344e-06 3.490786e-07) (-1.168104e-10 3.682870e-06 -3.413243e-08)) ((-2.932892e-10 2.527012e-13 -5.932421e-13) (2.638791e-07 -1.097483e-11 -7.507149e-13))
1.271167      	((3.818828e-10 1.778295e-06 2.983532e-07) (-1.108898e-10 3.335639e-06 -3.656085e-08)) ((-2.595495e-10 2.996921e-13 1.072076e-13) (2.411201e-07 -1.511454e-11 -2.171862e-12))
1.5374        	((6.951448e-10 1.655510e-06 2.469803e-07) (-7.891214e-11 3.022904e-06 -3.821094e-08)) ((-2.594618e-10 -3.908661e-13 2.271370e-13) (2.206751e-07 -1.605897e-11 -2.208609e-12))
1.85688       	((7.365457e-10 1.457339e-06 2.047876e-07) (-6.919112e-11 2.741368e-06 -4.025645e-08)) ((-2.376508e-10 5.149149e-13 3.167628e-13) (2.023245e-07 -1.511231e-11 -1.647576e-12))
2.240256      	((3.820829e-10 1.347526e-06 1.670647e-07) (-6.633057e-11 2.490130e-06 -4.236152e-08)) ((-2.307069e-10 -8.519308e-13 3.640846e-13) (1.859787e-07 -1.245152e-11 -1.168272e-12))
2.700307      	((3.951733e-10 1.198138e-06 1.339379e-07) (-4.237242e-11 2.268324e-06 -4.392777e-08)) ((-2.141236e-10 -3.116533e-13 4.368543e-13) (1.715896e-07 -1.036326e-11 -4.304300e-13))
3.252369      	((1.863780e-10 1.108902e-06 1.033364e-07) (-2.015690e-11 2.073624e-06 -4.616788e-08)) ((-2.094511e-10 -1.347058e-12 4.145037e-13) (1.589666e-07 -1.100962e-11 1.214583e-12))
3.914842      	((4.102079e-11 9.984779e-07 7.668531e-08) (-2.768825e-11 1.903100e-06 -4.809389e-08)) ((-1.992795e-10 -1.268761e-12 3.821902e-13) (1.479577e-07 -1.309593e-11 4.379023e-12))
4.709811      	((3.237041e-10 9.261274e-07 4.424633e-08) (-4.336950e-11 1.752732e-06 -5.018516e-08)) ((-1.959049e-10 -1.889914e-12 3.790117e-13) (1.382680e-07 -1.109213e-11 6.331722e-12))
5.663773      	((1.266329e-10 8.408907e-07 1.319193e-08) (-4.359278e-11 1.618802e-06 -5.230868e-08)) ((-1.894013e-10 -1.773807e-12 4.296804e-13) (1.296632e-07 -8.450117e-12 6.696876e-12))
6.808528      	((3.646623e-10 7.800996e-07 -2.099931e-08) (1.283264e-11 1.498318e-06 -5.430077e-08)) ((-1.861134e-10 -2.121702e-12 4.544181e-13) (1.219448e-07 -5.872223e-12 8.129153e-12))
8.182233      	((3.117176e-10 7.139483e-07 -5.375011e-08) (1.827304e-11 1.388859e-06 -5.655076e-08)) ((-1.817329e-10 -2.250766e-12 4.239052e-13) (1.149611e-07 -5.237829e-12 9.129325e-12))
9.83068       	((3.277166e-10 6.631744e-07 -8.649496e-08) (-2.724119e-12 1.288934e-06 -5.856369e-08)) ((-1.792645e-10 -2.604009e-12 4.045697e-13) (1.086116e-07 -4.070037e-12 8.326931e-12))
11.808816     	((5.193871e-10 6.113534e-07 -1.181486e-07) (3.064074e-11 1.197122e-06 -6.040648e-08)) ((-1.764340e-10 -2.766132e-12 4.126089e-13) (1.028162e-07 -5.152325e-12 7.211222e-12))
14.182579     	((4.828284e-10 5.691238e-07 -1.490303e-07) (4.122640e-11 1.112423e-06 -6.204608e-08)) ((-1.746025e-10 -3.040874e-12 4.131237e-13) (9.752040e-08 -8.191753e-12 6.333679e-12))
17.031095     	((4.396709e-10 5.262908e-07 -1.775679e-07) (2.002936e-11 1.034251e-06 -6.356309e-08)) ((-1.726666e-10 -3.167099e-12 4.265376e-13) (9.268688e-08 -9.550229e-12 5.726117e-12))
20.449314     	((2.313949e-10 4.908452e-07 -2.060509e-07) (-2.702240e-11 9.624944e-07 -6.523893e-08)) ((-1.713846e-10 -3.356754e-12 4.376730e-13) (8.831144e-08 -8.402201e-12 4.834511e-12))
24.551176     	((2.117270e-10 4.585810e-07 -2.312567e-07) (-5.168652e-11 8.972115e-07 -6.728960e-08)) ((-1.702612e-10 -3.497641e-12 4.516717e-13) (8.437822e-08 -7.842502e-12 4.151383e-12))
29.473411     	((2.012775e-10 4.319563e-07 -2.564179e-07) (-5.934481e-11 8.382670e-07 -6.987737e-08)) ((-1.695740e-10 -3.660828e-12 4.626404e-13) (8.087055e-08 -8.490689e-12 3.874673e-12))
35.380094     	((2.411026e-10 4.088827e-07 -2.815321e-07) (-4.805292e-11 7.853304e-07 -7.314500e-08)) ((-1.690247e-10 -3.785292e-12 4.686001e-13) (7.775829e-08 -8.981989e-12 4.020748e-12))
42.468112     	((2.766480e-10 3.900944e-07 -3.069254e-07) (-2.507109e-11 7.378725e-07 -7.708649e-08)) ((-1.686751e-10 -3.925286e-12 4.701726e-13) (7.500516e-08 -9.291329e-12 4.860699e-12))
50.973735     	((2.936737e-10 3.748503e-07 -3.320466e-07) (-1.530450e-11 6.955417e-07 -8.164289e-08)) ((-1.684153e-10 -4.047616e-12 4.804352e-13) (7.258536e-08 -9.691078e-12 4.914633e-12))
61.180482     	((3.244955e-10 3.635888e-07 -3.566803e-07) (7.485317e-12 6.580636e-07 -8.692552e-08)) ((-1.683446e-10 -4.163363e-12 4.889320e-13) (7.047470e-08 -1.100730e-11 4.652760e-12))
73.428578     	((2.975685e-10 3.561320e-07 -3.805494e-07) (2.563284e-11 6.252544e-07 -9.304888e-08)) ((-1.683737e-10 -4.280410e-12 4.935045e-13) (6.864805e-08 -1.242717e-11 4.691366e-12))
88.126294     	((3.120240e-10 3.529809e-07 -4.037532e-07) (4.393307e-11 5.970207e-07 -9.994140e-08)) ((-1.684559e-10 -4.386716e-12 4.977109e-13) (6.708143e-08 -1.360962e-11 4.537873e-12))
105.577272    	((2.721423e-10 3.534218e-07 -4.253452e-07) (5.273855e-11 5.733480e-07 -1.074786e-07)) ((-1.686836e-10 -4.483578e-12 5.040367e-13) (6.576032e-08 -1.470185e-11 4.363194e-12))
125.782167    	((2.430468e-10 3.569677e-07 -4.455496e-07) (3.802561e-11 5.543189e-07 -1.153175e-07)) ((-1.689856e-10 -4.576490e-12 5.016481e-13) (6.467433e-08 -1.557341e-11 4.002491e-12))
148.741996    	((2.404219e-10 3.633828e-07 -4.637676e-07) (2.055774e-11 5.398370e-07 -1.230967e-07)) ((-1.692713e-10 -4.666201e-12 4.920849e-13) (6.380498e-08 -1.625130e-11 3.379723e-12))
174.458476    	((2.330818e-10 3.719193e-07 -4.808188e-07) (1.191635e-15 5.296403e-07 -1.304048e-07)) ((-1.695196e-10 -4.754303e-12 4.842468e-13) (6.313331e-08 -1.649346e-11 2.658534e-12))
202.044616    	((2.382743e-10 3.806325e-07 -4.954922e-07) (-6.898161e-12 5.232620e-07 -1.365870e-07)) ((-1.697477e-10 -4.828606e-12 4.773783e-13) (6.264343e-08 -1.692237e-11 1.808485e-12))
229.649727    	((2.574074e-10 3.875589e-07 -5.080631e-07) (-1.000748e-11 5.198267e-07 -1.412312e-07)) ((-1.699659e-10 -4.891445e-12 4.700272e-13) (6.230909e-08 -1.725881e-11 1.277524e-12))
257.272123    	((2.627591e-10 3.919396e-07 -5.183719e-07) (-1.386655e-11 5.182102e-07 -1.443910e-07)) ((-1.701357e-10 -4.939983e-12 4.645781e-13) (6.208766e-08 -1.745419e-11 1.140590e-12))
284.910048    	((2.730876e-10 3.938305e-07 -5.267628e-07) (-1.374464e-11 5.175041e-07 -1.463412e-07)) ((-1.702359e-10 -4.973247e-12 4.580070e-13) (6.194138e-08 -1.759589e-11 1.136732e-12))
312.561409    	((2.869903e-10 3.942949e-07 -5.333205e-07) (-1.305984e-11 5.171019e-07 -1.474627e-07)) ((-1.702832e-10 -4.996350e-12 4.517450e-13) (6.183957e-08 -1.775010e-11 1.281582e-12))
340.222999    	((3.097172e-10 3.943152e-07 -5.384712e-07) (-1.116747e-11 5.167334e-07 -1.481024e-07)) ((-1.703091e-10 -5.013457e-12 4.477745e-13) (6.176480e-08 -1.791744e-11 1.572837e-12))
367.893278    	((3.195894e-10 3.939688e-07 -5.427390e-07) (-8.371742e-12 5.163222e-07 -1.485315e-07)) ((-1.703185e-10 -5.026700e-12 4.450685e-13) (6.170734e-08 -1.821039e-11 1.875888e-12))
395.57128     	((3.294901e-10 3.935473e-07 -5.463704e-07) (-4.976983e-12 5.158759e-07 -1.488934e-07)) ((-1.703239e-10 -5.036879e-12 4.430753e-13) (6.166178e-08 -1.856344e-11 2.134523e-12))
423.255888    	((3.397702e-10 3.932526e-07 -5.494444e-07) (-1.845556e-12 5.154428e-07 -1.492660e-07)) ((-1.703281e-10 -5.045348e-12 4.418044e-13) (6.162544e-08 -1.890439e-11 2.317860e-12))
450.946047    	((3.452258e-10 3.929848e-07 -5.522185e-07) (6.928862e-13 5.150656e-07 -1.496750e-07)) ((-1.703290e-10 -5.053551e-12 4.415852e-13) (6.159655e-08 -1.925262e-11 2.435334e-12))
478.640633    	((3.551387e-10 3.928164e-07 -5.547703e-07) (2.620268e-12 5.147717e-07 -1.501143e-07)) ((-1.703279e-10 -5.061744e-12 4.420431e-13) (6.157388e-08 -1.954416e-11 2.530888e-12))
506.33885     	((3.666851e-10 3.928043e-07 -5.571423e-07) (5.126514e-12 5.145771e-07 -1.505583e-07)) ((-1.703291e-10 -5.069270e-12 4.421886e-13) (6.155682e-08 -1.980381e-11 2.606415e-12))
534.040177    	((3.725576e-10 3.929209e-07 -5.593227e-07) (7.421374e-12 5.144849e-07 -1.509811e-07)) ((-1.703340e-10 -5.075804e-12 4.423764e-13) (6.154506e-08 -1.999228e-11 2.672117e-12))
561.744406    	((3.802281e-10 3.930411e-07 -5.613519e-07) (9.464756e-12 5.144804e-07 -1.513685e-07)) ((-1.703391e-10 -5.081679e-12 4.425413e-13) (6.153791e-08 -2.014674e-11 2.714950e-12))
589.451512    	((3.898626e-10 3.931117e-07 -5.632054e-07) (1.144665e-11 5.145377e-07 -1.517170e-07)) ((-1.703430e-10 -5.086665e-12 4.426111e-13) (6.153425e-08 -2.029619e-11 2.733359e-12))
617.161456    	((3.915949e-10 3.931385e-07 -5.648870e-07) (1.345376e-11 5.146323e-07 -1.520292e-07)) ((-1.703455e-10 -5.090720e-12 4.426906e-13) (6.153298e-08 -2.043324e-11 2.748818e-12))
644.874101    	((3.937297e-10 3.931212e-07 -5.663935e-07) (1.508621e-11 5.147461e-07 -1.523095e-07)) ((-1.703469e-10 -5.093806e-12 4.428901e-13) (6.153331e-08 -2.052858e-11 2.775191e-12))
672.58927     	((3.943978e-10 3.930615e-07 -5.677520e-07) (1.663347e-11 5.148653e-07 -1.525645e-07)) ((-1.703471e-10 -5.096449e-12 4.431270e-13) (6.153457e-08 -2.059550e-11 2.816666e-12))
700.306778    	((3.931280e-10 3.929889e-07 -5.689856e-07) (1.795113e-11 5.149833e-07 -1.527982e-07)) ((-1.703469e-10 -5.098824e-12 4.432567e-13) (6.153634e-08 -2.064093e-11 2.867200e-12))
728.026424    	((3.861328e-10 3.929096e-07 -5.701100e-07) (1.857676e-11 5.150974e-07 -1.530134e-07)) ((-1.703465e-10 -5.101139e-12 4.433529e-13) (6.153837e-08 -2.064253e-11 2.936947e-12))
755.748009    	((3.839071e-10 3.928475e-07 -5.711528e-07) (1.871963e-11 5.152080e-07 -1.532117e-07)) ((-1.703462e-10 -5.103152e-12 4.435134e-13) (6.154057e-08 -2.063173e-11 3.044681e-12))
783.47135     	((3.815268e-10 3.927917e-07 -5.721126e-07) (1.888181e-11 5.153157e-07 -1.533943e-07)) ((-1.703456e-10 -5.105162e-12 4.436899e-13) (6.154291e-08 -2.063921e-11 3.191013e-12))
811.196288    	((3.786622e-10 3.927317e-07 -5.730180e-07) (1.910140e-11 5.154204e-07 -1.535640e-07)) ((-1.703448e-10 -5.107006e-12 4.439103e-13) (6.154532e-08 -2.066837e-11 3.358861e-12))
838.922678    	((3.751611e-10 3.926721e-07 -5.738570e-07) (1.930392e-11 5.155216e-07 -1.537217e-07)) ((-1.703440e-10 -5.108722e-12 4.441112e-13) (6.154771e-08 -2.071572e-11 3.533089e-12))
866.650397    	((3.717708e-10 3.926189e-07 -5.746540e-07) (1.951058e-11 5.156196e-07 -1.538683e-07)) ((-1.703432e-10 -5.110299e-12 4.442513e-13) (6.155009e-08 -2.077525e-11 3.699646e-12))
894.379342    	((3.676943e-10 3.925580e-07 -5.754100e-07) (1.984181e-11 5.157136e-07 -1.540055e-07)) ((-1.703423e-10 -5.111790e-12 4.443338e-13) (6.155240e-08 -2.084071e-11 3.846477e-12))
922.109425    	((3.648340e-10 3.924953e-07 -5.761155e-07) (2.011491e-11 5.158029e-07 -1.541349e-07)) ((-1.703415e-10 -5.113071e-12 4.444401e-13) (6.155461e-08 -2.090548e-11 3.964443e-12))
949.840571    	((3.640968e-10 3.924479e-07 -5.767864e-07) (2.056071e-11 5.158885e-07 -1.542566e-07)) ((-1.703409e-10 -5.114201e-12 4.445195e-13) (6.155675e-08 -2.098222e-11 4.053673e-12))
977.572718    	((3.614729e-10 3.924086e-07 -5.774089e-07) (2.107833e-11 5.159713e-07 -1.543710e-07)) ((-1.703402e-10 -5.115254e-12 4.445400e-13) (6.155886e-08 -2.106089e-11 4.122099e-12))
1005.305812   	((3.596944e-10 3.923587e-07 -5.779806e-07) (2.158953e-11 5.160505e-07 -1.544784e-07)) ((-1.703393e-10 -5.116140e-12 4.445304e-13) (6.156088e-08 -2.113604e-11 4.173094e-12))
1033.039798   	((3.580225e-10 3.923143e-07 -5.785382e-07) (2.219256e-11 5.161259e-07 -1.545799e-07)) ((-1.703384e-10 -5.117031e-12 4.444988e-13) (6.156281e-08 -2.120679e-11 4.208936e-12))
1060.774627   	((3.559916e-10 3.922839e-07 -5.790603e-07) (2.268262e-11 5.161988e-07 -1.546762e-07)) ((-1.703378e-10 -5.117936e-12 4.444803e-13) (6.156469e-08 -2.127006e-11 4.235851e-12))
1088.510254   	((3.543914e-10 3.922576e-07 -5.795489e-07) (2.310506e-11 5.162695e-07 -1.547678e-07)) ((-1.703374e-10 -5.118724e-12 4.444601e-13) (6.156656e-08 -2.132683e-11 4.256521e-12))
1116.246642   	((3.530196e-10 3.922301e-07 -5.800116e-07) (2.348827e-11 5.163383e-07 -1.548555e-07)) ((-1.703372e-10 -5.119439e-12 4.444349e-13) (6.156842e-08 -2.137911e-11 4.273157e-12))
1143.983762   	((3.518081e-10 3.922008e-07 -5.804496e-07) (2.391026e-11 5.164046e-07 -1.549399e-07)) ((-1.703370e-10 -5.120102e-12 4.443768e-13) (6.157024e-08 -2.142909e-11 4.289810e-12))
1171.72159    	((3.509889e-10 3.921935e-07 -5.808596e-07) (2.433229e-11 5.164699e-07 -1.550201e-07)) ((-1.703372e-10 -5.120755e-12 4.443132e-13) (6.157209e-08 -2.147888e-11 4.305881e-12))
1199.460094   	((3.493817e-10 3.921795e-07 -5.812414e-07) (2.469418e-11 5.165341e-07 -1.550962e-07)) ((-1.703374e-10 -5.121343e-12 4.442476e-13) (6.157395e-08 -2.152461e-11 4.319567e-12))
