# Forces      
# CofR        : (0.000000e+00 0.000000e+00 0.000000e+00)
# Time        forces(pressure viscous)	moments(pressure viscous)
0             	((0.000000e+00 0.000000e+00 0.000000e+00) (0.000000e+00 0.000000e+00 0.000000e+00)) ((0.000000e+00 0.000000e+00 0.000000e+00) (0.000000e+00 0.000000e+00 0.000000e+00))
0.012         	((-2.824066e-06 1.034484e-10 -9.610518e-07) (-6.626411e-06 1.343482e-14 -6.235640e-10)) ((-4.356796e-14 4.279485e-10 -3.473122e-14) (-7.214133e-15 4.409650e-07 -2.938237e-15))
0.0264        	((-3.894583e-06 2.275087e-09 -1.258352e-06) (-6.069933e-06 6.906335e-13 -4.368553e-10)) ((-2.280067e-14 -2.192979e-10 -8.637272e-15) (-2.650201e-14 4.043678e-07 1.946060e-14))
0.04368       	((-2.592329e-06 -1.373285e-09 -8.616455e-07) (-5.495843e-06 -4.710301e-13 -1.685752e-10)) ((-5.011991e-14 -1.582004e-10 -2.575751e-14) (-6.613585e-14 3.667295e-07 7.314071e-14))
0.064416      	((-2.967069e-06 1.619619e-09 -9.623368e-07) (-4.916929e-06 -1.324745e-12 -6.288584e-11)) ((-2.480616e-14 -3.050836e-10 5.182346e-15) (-1.273453e-13 3.289063e-07 9.363280e-14))
0.0892992     	((-2.172488e-06 -7.005268e-10 -7.221665e-07) (-4.349809e-06 -1.654673e-12 -2.218996e-10)) ((-1.640751e-14 -2.174076e-10 -1.607806e-14) (-2.060127e-13 2.919908e-07 5.885031e-14))
0.119159      	((-2.241821e-06 7.919768e-10 -7.175045e-07) (-3.812728e-06 -4.778103e-13 -5.399633e-10)) ((-2.040281e-14 -2.639498e-10 -5.543414e-16) (-1.822276e-13 2.571986e-07 3.128477e-15))
0.154991      	((-1.685113e-06 -4.034172e-10 -5.672446e-07) (-3.322623e-06 4.424670e-13 -8.628670e-10)) ((3.751617e-15 -1.842919e-10 -1.527194e-15) (-1.833258e-13 2.252708e-07 -8.471204e-14))
0.197989      	((-1.668222e-06 2.968010e-10 -5.304390e-07) (-2.889102e-06 7.201334e-13 -1.255115e-09)) ((9.585404e-15 -2.079384e-10 1.587545e-15) (-1.802359e-13 1.970018e-07 -1.611884e-13))
0.249587      	((-1.294474e-06 -1.613591e-10 -4.369356e-07) (-2.519101e-06 8.834349e-13 -1.709974e-09)) ((5.201987e-15 -1.488936e-10 -1.211138e-15) (-1.521035e-13 1.726995e-07 -2.103156e-13))
0.311504      	((-1.259239e-06 4.971836e-11 -3.996933e-07) (-2.211067e-06 7.154370e-13 -2.124729e-09)) ((1.814790e-14 -1.646051e-10 -2.132281e-15) (-1.742615e-13 1.523676e-07 -2.239164e-13))
0.385805      	((-1.014905e-06 -2.852537e-11 -3.430823e-07) (-1.955938e-06 3.891762e-13 -2.531812e-09)) ((3.466715e-15 -1.229234e-10 -3.086801e-15) (-1.734964e-13 1.355059e-07 -2.221458e-13))
0.474966      	((-9.839465e-07 4.386760e-11 -3.142358e-07) (-1.744198e-06 3.487852e-13 -2.811767e-09)) ((1.766934e-14 -1.338249e-10 -1.971363e-15) (-1.352019e-13 1.215278e-07 -2.664433e-13))
0.581959      	((-8.197212e-07 3.074756e-12 -2.777931e-07) (-1.565422e-06 4.736947e-13 -3.108343e-09)) ((3.145095e-15 -1.037770e-10 7.413941e-16) (3.687726e-14 1.097165e-07 -1.882933e-13))
0.710351      	((-7.929703e-07 -6.667717e-12 -2.552652e-07) (-1.411607e-06 -8.679024e-13 -3.161044e-09)) ((2.429721e-14 -1.118574e-10 3.250035e-15) (8.795912e-14 9.958492e-08 -1.093653e-14))
0.864421      	((-6.762941e-07 5.511656e-11 -2.301978e-07) (-1.276394e-06 -1.920523e-12 -3.383141e-09)) ((1.391994e-14 -9.097735e-11 3.593459e-15) (-2.142156e-14 9.068917e-08 -1.284947e-14))
1.049306      	((-6.483914e-07 1.433561e-11 -2.115891e-07) (-1.156065e-06 -2.373349e-12 -3.394241e-09)) ((2.941242e-14 -9.700362e-11 2.741009e-15) (-3.648007e-13 8.280358e-08 -1.577214e-13))
1.271167      	((-5.587838e-07 6.257268e-11 -1.920344e-07) (-1.047644e-06 -1.448307e-12 -3.650494e-09)) ((2.212972e-14 -8.270579e-11 1.024065e-14) (-6.644435e-13 7.570886e-08 -3.033517e-13))
1.5374        	((-5.280884e-07 6.025488e-11 -1.770332e-07) (-9.497060e-07 -3.260613e-13 -3.500567e-09)) ((4.091042e-14 -8.562693e-11 1.622839e-14) (-8.549205e-13 6.930605e-08 -4.326082e-13))
1.85688       	((-4.593549e-07 7.490375e-11 -1.610838e-07) (-8.614275e-07 2.682225e-12 -3.748533e-09)) ((3.905192e-14 -7.525340e-11 1.808508e-14) (-1.080342e-12 6.354991e-08 -4.585077e-13))
2.240256      	((-4.279148e-07 2.440114e-11 -1.490266e-07) (-7.823940e-07 4.285727e-12 -4.019868e-09)) ((4.410449e-14 -7.571119e-11 1.482230e-14) (-1.642382e-12 5.839594e-08 -4.684441e-13))
2.700307      	((-3.771901e-07 4.890299e-11 -1.367728e-07) (-7.124282e-07 2.863045e-12 -4.026795e-09)) ((4.257755e-14 -6.872942e-11 1.705318e-14) (-2.370404e-12 5.383460e-08 -1.522962e-13))
3.252369      	((-3.491350e-07 3.997707e-11 -1.270014e-07) (-6.507387e-07 8.465797e-13 -4.074375e-09)) ((4.285270e-14 -6.827056e-11 1.556756e-14) (-3.251552e-12 4.981208e-08 9.698783e-13))
3.914842      	((-3.132314e-07 -1.254462e-11 -1.175528e-07) (-5.966318e-07 -2.754124e-12 -4.140891e-09)) ((4.064186e-14 -6.434110e-11 1.933428e-14) (-4.124863e-12 4.629625e-08 2.455662e-12))
4.709811      	((-2.896991e-07 -2.341332e-11 -1.101745e-07) (-5.489965e-07 -1.568749e-12 -4.362010e-09)) ((3.196986e-14 -6.297873e-11 2.480096e-14) (-4.396908e-12 4.320998e-08 3.549290e-12))
5.663773      	((-2.623193e-07 -1.855290e-11 -1.034651e-07) (-5.066169e-07 1.322519e-12 -4.742932e-09)) ((2.496337e-14 -6.041214e-11 2.903406e-14) (-4.167353e-12 4.047816e-08 4.089105e-12))
6.808528      	((-2.418455e-07 6.277386e-11 -9.789638e-08) (-4.685825e-07 4.399381e-12 -5.196006e-09)) ((2.820792e-14 -5.872882e-11 3.056440e-14) (-3.837272e-12 3.803416e-08 4.208949e-12))
8.182233      	((-2.207368e-07 6.781577e-11 -9.316770e-08) (-4.341089e-07 1.085216e-11 -5.651803e-09)) ((2.217460e-14 -5.701486e-11 2.801815e-14) (-3.546212e-12 3.582839e-08 3.968610e-12))
9.83068       	((-2.032934e-07 5.458136e-11 -8.896276e-08) (-4.025918e-07 1.630559e-11 -6.083881e-09)) ((2.317793e-14 -5.574846e-11 2.514863e-14) (-3.327940e-12 3.382326e-08 3.529152e-12))
11.808816     	((-1.861577e-07 2.872159e-11 -8.550274e-08) (-3.736655e-07 1.922275e-11 -6.451278e-09)) ((1.647531e-14 -5.441897e-11 2.196157e-14) (-2.986279e-12 3.199387e-08 3.101302e-12))
14.182579     	((-1.712424e-07 2.655081e-11 -8.253457e-08) (-3.470360e-07 2.319061e-11 -6.752825e-09)) ((1.634002e-14 -5.332379e-11 1.890969e-14) (-2.551068e-12 3.031846e-08 2.481641e-12))
17.031095     	((-1.570221e-07 4.478815e-11 -7.982383e-08) (-3.224766e-07 2.752225e-11 -6.951274e-09)) ((1.148993e-14 -5.232134e-11 1.695698e-14) (-2.132212e-12 2.878400e-08 1.721149e-12))
20.449314     	((-1.443656e-07 3.998942e-11 -7.770758e-08) (-2.998976e-07 2.862392e-11 -7.070373e-09)) ((1.128061e-14 -5.147999e-11 1.356612e-14) (-1.783631e-12 2.738241e-08 9.331508e-13))
24.551176     	((-1.323418e-07 4.503804e-11 -7.589776e-08) (-2.792207e-07 2.901913e-11 -7.128935e-09)) ((8.674018e-15 -5.076025e-11 9.943177e-15) (-1.518970e-12 2.610852e-08 1.761307e-13))
29.473411     	((-1.217424e-07 4.319077e-11 -7.461179e-08) (-2.603690e-07 2.585373e-11 -7.156079e-09)) ((8.634672e-15 -5.015710e-11 7.738149e-15) (-1.368211e-12 2.495507e-08 -4.655431e-13))
35.380094     	((-1.120338e-07 4.727287e-11 -7.378325e-08) (-2.432110e-07 2.137409e-11 -7.187203e-09)) ((8.341753e-15 -4.965630e-11 6.568847e-15) (-1.399778e-12 2.391327e-08 -8.971418e-13))
42.468112     	((-1.034426e-07 4.476627e-11 -7.339612e-08) (-2.275963e-07 1.847934e-11 -7.254597e-09)) ((9.815831e-15 -4.920951e-11 7.574369e-15) (-1.393336e-12 2.297294e-08 -1.064971e-12))
50.973735     	((-9.579677e-08 4.566007e-11 -7.326735e-08) (-2.133903e-07 1.770112e-11 -7.373776e-09)) ((9.346426e-15 -4.885749e-11 7.509282e-15) (-1.269829e-12 2.212497e-08 -1.097128e-12))
61.180482     	((-8.907077e-08 3.468171e-11 -7.338789e-08) (-2.004896e-07 1.573681e-11 -7.569598e-09)) ((1.031069e-14 -4.855570e-11 6.516363e-15) (-1.176115e-12 2.136228e-08 -9.475362e-13))
73.428578     	((-8.308749e-08 2.772689e-11 -7.369871e-08) (-1.887842e-07 1.499717e-11 -7.845817e-09)) ((1.081730e-14 -4.831888e-11 5.457379e-15) (-1.060332e-12 2.067874e-08 -7.603362e-13))
88.126294     	((-7.792444e-08 2.175354e-11 -7.412729e-08) (-1.781921e-07 1.551895e-11 -8.201320e-09)) ((1.097237e-14 -4.812020e-11 4.946964e-15) (-8.480411e-13 2.006762e-08 -5.379634e-13))
105.763553    	((-7.357429e-08 1.417554e-11 -7.456444e-08) (-1.686467e-07 1.385305e-11 -8.642772e-09)) ((1.079069e-14 -4.797509e-11 4.649862e-15) (-6.669852e-13 1.952362e-08 -2.656609e-13))
126.928263    	((-6.982661e-08 1.128595e-11 -7.532317e-08) (-1.600812e-07 1.217101e-11 -9.191593e-09)) ((1.116436e-14 -4.787294e-11 4.298345e-15) (-4.656023e-13 1.904228e-08 1.628671e-14))
152.325916    	((-6.676322e-08 5.366828e-12 -7.621564e-08) (-1.524438e-07 1.029020e-11 -9.855851e-09)) ((1.146362e-14 -4.780598e-11 4.194644e-15) (-2.846195e-13 1.861888e-08 2.379633e-13))
182.803099    	((-6.436691e-08 -1.540351e-12 -7.722650e-08) (-1.456945e-07 7.827304e-12 -1.064862e-08)) ((1.166230e-14 -4.775908e-11 4.082525e-15) (-1.210282e-13 1.824964e-08 4.109561e-13))
219.375719    	((-6.260119e-08 -9.581305e-12 -7.844157e-08) (-1.398064e-07 6.220518e-12 -1.156785e-08)) ((1.150509e-14 -4.772589e-11 3.948626e-15) (3.044975e-16 1.793141e-08 5.036825e-13))
263.262863    	((-6.139498e-08 -1.655058e-11 -7.998599e-08) (-1.347467e-07 4.771467e-12 -1.261267e-08)) ((1.131458e-14 -4.770791e-11 4.015949e-15) (4.534329e-14 1.766020e-08 5.389617e-13))
315.857169    	((-6.070291e-08 -2.071583e-11 -8.168458e-08) (-1.304785e-07 3.434612e-12 -1.377261e-08)) ((1.113872e-14 -4.769872e-11 3.570699e-15) (3.313249e-14 1.743188e-08 4.872606e-13))
377.157733    	((-6.046925e-08 -2.223408e-11 -8.339441e-08) (-1.269951e-07 2.323365e-12 -1.500218e-08)) ((1.124230e-14 -4.769533e-11 3.537952e-15) (-2.597214e-15 1.724394e-08 3.815539e-13))
447.164592    	((-6.062394e-08 -2.415648e-11 -8.503091e-08) (-1.242647e-07 1.142137e-12 -1.623752e-08)) ((1.076166e-14 -4.770117e-11 3.519104e-15) (-7.219400e-14 1.709277e-08 2.585164e-13))
525.878548    	((-6.106383e-08 -2.631244e-11 -8.647906e-08) (-1.222368e-07 -2.322955e-13 -1.740535e-08)) ((1.078664e-14 -4.771254e-11 3.486051e-15) (-1.657439e-13 1.697485e-08 1.216427e-13))
612.959409    	((-6.163455e-08 -2.741512e-11 -8.765868e-08) (-1.208303e-07 -1.793612e-12 -1.843304e-08)) ((1.079886e-14 -4.772468e-11 3.245850e-15) (-2.752283e-13 1.688634e-08 1.437460e-14))
700.051203    	((-6.213628e-08 -2.814854e-11 -8.852329e-08) (-1.199440e-07 -3.381165e-12 -1.925498e-08)) ((1.082905e-14 -4.774264e-11 3.175163e-15) (-3.891593e-13 1.682393e-08 -7.024705e-14))
787.154245    	((-6.247621e-08 -2.798648e-11 -8.910240e-08) (-1.194227e-07 -4.693988e-12 -1.987216e-08)) ((1.097434e-14 -4.775642e-11 3.084325e-15) (-4.837628e-13 1.678139e-08 -1.358453e-13))
874.26741     	((-6.265343e-08 -2.818845e-11 -8.946440e-08) (-1.191338e-07 -6.033720e-12 -2.031166e-08)) ((1.099893e-14 -4.776456e-11 2.951882e-15) (-5.547059e-13 1.675324e-08 -1.704876e-13))
961.389352    	((-6.270457e-08 -2.846439e-11 -8.968785e-08) (-1.189709e-07 -7.221131e-12 -2.061985e-08)) ((1.094168e-14 -4.776816e-11 2.880664e-15) (-6.037770e-13 1.673446e-08 -1.695542e-13))
1048.518651   	((-6.269519e-08 -2.900500e-11 -8.983397e-08) (-1.188697e-07 -8.235256e-12 -2.083810e-08)) ((1.086223e-14 -4.776962e-11 2.808266e-15) (-6.399880e-13 1.672163e-08 -1.539808e-13))
1135.653781   	((-6.266439e-08 -2.909649e-11 -8.994333e-08) (-1.187958e-07 -8.998361e-12 -2.099938e-08)) ((1.082044e-14 -4.776996e-11 2.777444e-15) (-6.648293e-13 1.671246e-08 -1.358359e-13))
1222.793649   	((-6.263293e-08 -2.913708e-11 -9.003245e-08) (-1.187355e-07 -9.616666e-12 -2.112479e-08)) ((1.081452e-14 -4.777016e-11 2.780109e-15) (-6.817772e-13 1.670570e-08 -1.233382e-13))
1309.937399   	((-6.260292e-08 -2.934233e-11 -9.010683e-08) (-1.186834e-07 -1.006001e-11 -2.122796e-08)) ((1.080594e-14 -4.776999e-11 2.750857e-15) (-6.943292e-13 1.670058e-08 -1.150252e-13))
1397.084314   	((-6.257488e-08 -2.947744e-11 -9.016939e-08) (-1.186385e-07 -1.038135e-11 -2.131637e-08)) ((1.082774e-14 -4.776974e-11 2.709508e-15) (-7.038876e-13 1.669663e-08 -1.078881e-13))
1484.233815   	((-6.254824e-08 -2.950287e-11 -9.022191e-08) (-1.185998e-07 -1.063744e-11 -2.139466e-08)) ((1.085516e-14 -4.776947e-11 2.674335e-15) (-7.136620e-13 1.669353e-08 -1.018980e-13))
1571.385432   	((-6.252351e-08 -2.954285e-11 -9.026674e-08) (-1.185672e-07 -1.085641e-11 -2.146504e-08)) ((1.087242e-14 -4.776917e-11 2.651180e-15) (-7.233429e-13 1.669107e-08 -9.680327e-14))
1658.53877    	((-6.250130e-08 -2.931396e-11 -9.030581e-08) (-1.185400e-07 -1.105268e-11 -2.152887e-08)) ((1.087599e-14 -4.776892e-11 2.619085e-15) (-7.317487e-13 1.668910e-08 -9.291052e-14))
1745.693487   	((-6.248163e-08 -2.923269e-11 -9.033962e-08) (-1.185177e-07 -1.120662e-11 -2.158684e-08)) ((1.086992e-14 -4.776870e-11 2.591002e-15) (-7.386294e-13 1.668751e-08 -8.987477e-14))
1832.849346   	((-6.246438e-08 -2.907835e-11 -9.036932e-08) (-1.184996e-07 -1.135091e-11 -2.163959e-08)) ((1.086752e-14 -4.776852e-11 2.571571e-15) (-7.437003e-13 1.668624e-08 -8.765100e-14))
1920.006179   	((-6.244893e-08 -2.893317e-11 -9.039543e-08) (-1.184850e-07 -1.147445e-11 -2.168763e-08)) ((1.086816e-14 -4.776836e-11 2.555915e-15) (-7.463254e-13 1.668521e-08 -8.582329e-14))
2007.163862   	((-6.243510e-08 -2.877186e-11 -9.041866e-08) (-1.184733e-07 -1.156359e-11 -2.173153e-08)) ((1.087966e-14 -4.776823e-11 2.548458e-15) (-7.477496e-13 1.668437e-08 -8.418304e-14))
2094.322301   	((-6.242271e-08 -2.860043e-11 -9.043926e-08) (-1.184639e-07 -1.162881e-11 -2.177174e-08)) ((1.088580e-14 -4.776812e-11 2.542129e-15) (-7.483719e-13 1.668369e-08 -8.282026e-14))
2181.481421   	((-6.241143e-08 -2.862180e-11 -9.045746e-08) (-1.184564e-07 -1.167676e-11 -2.180856e-08)) ((1.088677e-14 -4.776802e-11 2.527091e-15) (-7.492650e-13 1.668313e-08 -8.134527e-14))
2268.641161   	((-6.240134e-08 -2.851692e-11 -9.047406e-08) (-1.184505e-07 -1.170821e-11 -2.184234e-08)) ((1.088974e-14 -4.776794e-11 2.510856e-15) (-7.496592e-13 1.668267e-08 -7.974362e-14))
2355.801469   	((-6.239228e-08 -2.843549e-11 -9.048901e-08) (-1.184459e-07 -1.173046e-11 -2.187332e-08)) ((1.089940e-14 -4.776788e-11 2.492223e-15) (-7.492652e-13 1.668229e-08 -7.816780e-14))
2442.962308   	((-6.238396e-08 -2.833896e-11 -9.050223e-08) (-1.184422e-07 -1.173824e-11 -2.190177e-08)) ((1.090356e-14 -4.776782e-11 2.477776e-15) (-7.488443e-13 1.668198e-08 -7.635411e-14))
2530.12365    	((-6.237629e-08 -2.827936e-11 -9.051420e-08) (-1.184393e-07 -1.173074e-11 -2.192793e-08)) ((1.090557e-14 -4.776776e-11 2.461147e-15) (-7.476963e-13 1.668172e-08 -7.460920e-14))
2617.285463   	((-6.236924e-08 -2.819155e-11 -9.052529e-08) (-1.184370e-07 -1.172670e-11 -2.195201e-08)) ((1.091148e-14 -4.776770e-11 2.445943e-15) (-7.470474e-13 1.668149e-08 -7.304666e-14))
2704.44771    	((-6.236271e-08 -2.811315e-11 -9.053551e-08) (-1.184352e-07 -1.172077e-11 -2.197422e-08)) ((1.091806e-14 -4.776764e-11 2.432650e-15) (-7.456143e-13 1.668130e-08 -7.125471e-14))
2791.610359   	((-6.235665e-08 -2.801786e-11 -9.054489e-08) (-1.184337e-07 -1.170754e-11 -2.199471e-08)) ((1.092617e-14 -4.776757e-11 2.418621e-15) (-7.438745e-13 1.668113e-08 -6.939616e-14))
2878.773379   	((-6.235103e-08 -2.792738e-11 -9.055359e-08) (-1.184325e-07 -1.169412e-11 -2.201365e-08)) ((1.093260e-14 -4.776751e-11 2.408044e-15) (-7.425339e-13 1.668099e-08 -6.803267e-14))
2965.936742   	((-6.234581e-08 -2.790090e-11 -9.056161e-08) (-1.184315e-07 -1.168714e-11 -2.203117e-08)) ((1.093482e-14 -4.776746e-11 2.397745e-15) (-7.411681e-13 1.668086e-08 -6.714030e-14))
3053.100423   	((-6.234096e-08 -2.781707e-11 -9.056906e-08) (-1.184307e-07 -1.168231e-11 -2.204738e-08)) ((1.093459e-14 -4.776740e-11 2.390708e-15) (-7.400724e-13 1.668074e-08 -6.631682e-14))
3140.264399   	((-6.233632e-08 -2.780220e-11 -9.057583e-08) (-1.184301e-07 -1.167637e-11 -2.206241e-08)) ((1.093425e-14 -4.776735e-11 2.384578e-15) (-7.389691e-13 1.668064e-08 -6.558748e-14))
3227.428649   	((-6.233214e-08 -2.774913e-11 -9.058235e-08) (-1.184295e-07 -1.166909e-11 -2.207636e-08)) ((1.093299e-14 -4.776729e-11 2.377406e-15) (-7.378580e-13 1.668055e-08 -6.497016e-14))
3314.593154   	((-6.232816e-08 -2.763015e-11 -9.058837e-08) (-1.184291e-07 -1.165955e-11 -2.208933e-08)) ((1.093380e-14 -4.776725e-11 2.371419e-15) (-7.368478e-13 1.668046e-08 -6.442927e-14))
3401.757897   	((-6.232450e-08 -2.754179e-11 -9.059398e-08) (-1.184287e-07 -1.165103e-11 -2.210141e-08)) ((1.093436e-14 -4.776720e-11 2.368678e-15) (-7.360688e-13 1.668039e-08 -6.400030e-14))
3488.922862   	((-6.232106e-08 -2.746664e-11 -9.059924e-08) (-1.184284e-07 -1.164197e-11 -2.211266e-08)) ((1.093585e-14 -4.776716e-11 2.365409e-15) (-7.353335e-13 1.668032e-08 -6.366238e-14))
3576.088034   	((-6.231781e-08 -2.748423e-11 -9.060411e-08) (-1.184282e-07 -1.162772e-11 -2.212316e-08)) ((1.093876e-14 -4.776712e-11 2.361910e-15) (-7.343926e-13 1.668025e-08 -6.343098e-14))
3663.253401   	((-6.231479e-08 -2.745610e-11 -9.060867e-08) (-1.184280e-07 -1.161652e-11 -2.213296e-08)) ((1.093712e-14 -4.776708e-11 2.358276e-15) (-7.333906e-13 1.668020e-08 -6.327358e-14))
3750.418949   	((-6.231195e-08 -2.740690e-11 -9.061304e-08) (-1.184279e-07 -1.160364e-11 -2.214212e-08)) ((1.093907e-14 -4.776704e-11 2.352990e-15) (-7.322446e-13 1.668014e-08 -6.320366e-14))
