# Forces      
# CofR        : (0.000000e+00 0.000000e+00 0.000000e+00)
# Time        forces(pressure viscous)	moments(pressure viscous)
0             	((0.000000e+00 0.000000e+00 0.000000e+00) (-9.719180e-14 -3.173626e-04 2.062849e-14)) ((0.000000e+00 0.000000e+00 0.000000e+00) (-7.130807e-06 -7.923128e-16 1.543209e-10))
0.012         	((2.676427e-08 -9.230543e-02 2.066727e-02) (4.547658e-10 -3.636047e-04 -7.211361e-07)) ((1.087463e-06 7.102209e-08 1.731714e-08) (-1.051500e-05 4.416625e-12 2.989680e-10))
0.0264        	((-1.540887e-06 7.668044e-03 -1.764289e-03) (-1.281035e-10 -3.696212e-04 -1.129558e-06)) ((-8.899650e-08 -4.876655e-09 -9.620585e-10) (-1.174400e-05 5.269345e-11 3.606051e-10))
0.04368       	((8.245451e-07 1.863044e-02 -1.757332e-03) (8.818860e-10 -3.272003e-04 -1.104606e-06)) ((-2.439675e-07 -5.397719e-09 -4.991335e-09) (-1.045542e-05 1.042340e-10 2.644673e-10))
0.064416      	((5.277353e-09 1.686704e-04 -9.752073e-04) (2.312401e-09 -2.892354e-04 -8.436217e-07)) ((8.904593e-10 -2.532413e-09 5.278101e-10) (-9.407815e-06 1.208650e-10 1.918142e-10))
0.0892992     	((3.069221e-07 -1.341680e-04 -6.509708e-04) (3.277434e-09 -2.666689e-04 -9.364369e-07)) ((7.859357e-09 -1.324417e-09 2.617465e-10) (-8.898705e-06 6.479627e-11 -1.468146e-10))
0.119159      	((-1.467072e-07 3.199665e-04 -4.745725e-04) (4.368003e-09 -2.461915e-04 -1.328184e-06)) ((-5.610242e-09 -9.387939e-10 -2.639377e-10) (-8.339963e-06 2.755068e-11 -4.331002e-10))
0.154991      	((-2.236759e-07 1.424794e-04 -3.641321e-04) (5.597936e-09 -2.249160e-04 -1.643798e-06)) ((-3.060463e-09 -5.424548e-10 -1.572026e-10) (-7.730877e-06 6.906709e-11 -4.649070e-10))
0.197989      	((-4.827145e-08 2.751512e-05 -2.864042e-04) (3.972003e-09 -2.040666e-04 -1.974335e-06)) ((-1.517228e-09 -2.454403e-10 -4.571026e-11) (-7.122505e-06 7.370175e-11 -4.756656e-10))
0.249587      	((-3.099205e-08 -1.153791e-05 -2.408238e-04) (-3.227769e-09 -1.843074e-04 -2.353506e-06)) ((-9.486779e-10 -1.044423e-10 -2.299241e-11) (-6.528691e-06 5.267535e-11 -5.664412e-10))
0.311504      	((-6.620380e-08 -3.128340e-05 -2.122107e-04) (-1.116124e-08 -1.661545e-04 -2.771367e-06)) ((-7.008951e-10 -2.121542e-11 -1.098150e-11) (-5.961342e-06 5.001216e-11 -6.014437e-10))
0.385805      	((-6.505804e-08 -4.218114e-05 -1.942011e-04) (-1.368938e-08 -1.499411e-04 -3.203177e-06)) ((-5.362440e-10 2.999000e-11 -5.062271e-12) (-5.433963e-06 6.863180e-11 -5.269097e-10))
0.474966      	((-4.137006e-08 -4.754861e-05 -1.823971e-04) (-1.274013e-08 -1.357527e-04 -3.618346e-06)) ((-4.158819e-10 6.759521e-11 -6.333699e-13) (-4.954934e-06 8.703526e-11 -4.219824e-10))
0.581959      	((-2.869221e-08 -4.963686e-05 -1.748537e-04) (-1.185265e-08 -1.232981e-04 -4.036159e-06)) ((-3.130127e-10 8.582742e-11 2.765885e-12) (-4.522069e-06 9.719030e-11 -3.627969e-10))
0.710351      	((-1.453607e-08 -4.958332e-05 -1.699848e-04) (-9.318553e-09 -1.120050e-04 -4.460830e-06)) ((-2.138107e-10 9.821263e-11 4.622989e-12) (-4.120890e-06 1.072039e-10 -3.892110e-10))
0.864421      	((2.767183e-10 -4.796557e-05 -1.669630e-04) (-5.680321e-09 -1.014848e-04 -4.881994e-06)) ((-1.395278e-10 1.050584e-10 2.996877e-12) (-3.740660e-06 9.285987e-11 -4.482412e-10))
1.049306      	((-3.888662e-10 -4.545201e-05 -1.649225e-04) (-2.863296e-09 -9.172760e-05 -5.311710e-06)) ((-8.882906e-11 1.090660e-10 1.536413e-12) (-3.383642e-06 7.220273e-11 -5.210763e-10))
1.271167      	((-4.232648e-10 -4.251688e-05 -1.636594e-04) (-1.427148e-09 -8.282106e-05 -5.773743e-06)) ((-5.347432e-11 1.071365e-10 1.085511e-12) (-3.055602e-06 5.473484e-11 -5.771377e-10))
1.5374        	((1.639246e-09 -3.961436e-05 -1.627354e-04) (-8.034131e-10 -7.480154e-05 -6.276272e-06)) ((-1.736221e-11 1.027747e-10 4.266726e-12) (-2.759534e-06 3.201558e-11 -5.892249e-10))
1.85688       	((7.590065e-09 -3.704322e-05 -1.619174e-04) (-7.508633e-11 -6.766800e-05 -6.815343e-06)) ((2.396999e-11 9.985132e-11 6.677357e-12) (-2.495992e-06 1.277610e-11 -5.545993e-10))
2.240256      	((2.938395e-09 -3.491691e-05 -1.611227e-04) (2.836236e-10 -6.138171e-05 -7.387310e-06)) ((6.597565e-11 9.573319e-11 8.774874e-12) (-2.263604e-06 5.449174e-13 -5.056512e-10))
2.700307      	((-2.246130e-09 -3.330106e-05 -1.602629e-04) (-1.861716e-10 -5.587045e-05 -7.987828e-06)) ((1.128771e-10 9.134100e-11 1.006217e-11) (-2.059745e-06 -6.739239e-12 -4.464808e-10))
3.252369      	((-6.611472e-09 -3.224223e-05 -1.592704e-04) (-7.916439e-10 -5.105245e-05 -8.606509e-06)) ((1.712117e-10 8.544313e-11 1.309045e-11) (-1.881537e-06 -6.831776e-12 -3.921032e-10))
3.914842      	((-1.125459e-08 -3.177926e-05 -1.581353e-04) (-1.059054e-09 -4.686441e-05 -9.228871e-06)) ((2.397145e-10 8.030650e-11 1.639448e-11) (-1.726700e-06 9.625772e-13 -3.628728e-10))
4.709811      	((-1.133173e-08 -3.190875e-05 -1.567489e-04) (-1.324972e-09 -4.325784e-05 -9.840828e-06)) ((3.163597e-10 7.520378e-11 2.009672e-11) (-1.593444e-06 1.662644e-11 -3.215802e-10))
5.663773      	((-1.432163e-08 -3.273178e-05 -1.551378e-04) (-1.536641e-09 -4.018722e-05 -1.042956e-05)) ((4.018731e-10 6.919243e-11 2.484394e-11) (-1.480055e-06 3.251673e-11 -2.963597e-10))
6.808528      	((-1.107614e-08 -3.424275e-05 -1.533099e-04) (-1.174617e-09 -3.759508e-05 -1.098195e-05)) ((4.955871e-10 6.294152e-11 3.208941e-11) (-1.384604e-06 4.794043e-11 -3.101091e-10))
8.182233      	((-1.255836e-08 -3.642017e-05 -1.512227e-04) (-5.505398e-10 -3.543303e-05 -1.149130e-05)) ((5.996946e-10 5.593381e-11 4.077619e-11) (-1.305043e-06 6.317726e-11 -3.597284e-10))
9.83068       	((-9.287064e-09 -3.922336e-05 -1.488871e-04) (-3.402259e-10 -3.364679e-05 -1.195967e-05)) ((7.125631e-10 4.758999e-11 5.160506e-11) (-1.239348e-06 7.465562e-11 -4.719802e-10))
11.776825     	((-5.671905e-09 -4.254811e-05 -1.463553e-04) (-6.866155e-10 -3.219888e-05 -1.237808e-05)) ((8.279105e-10 3.824316e-11 6.306007e-11) (-1.186767e-06 7.582107e-11 -6.471239e-10))
14.021754     	((-3.949127e-09 -4.621267e-05 -1.436598e-04) (-1.262840e-09 -3.106135e-05 -1.273612e-05)) ((9.371366e-10 2.835669e-11 7.592748e-11) (-1.146049e-06 8.681736e-11 -7.908035e-10))
16.565611     	((-5.601708e-09 -4.999578e-05 -1.407340e-04) (-1.240535e-09 -3.018547e-05 -1.302136e-05)) ((1.029437e-09 1.839494e-11 8.878271e-11) (-1.114691e-06 1.007041e-10 -9.030496e-10))
19.407651     	((-6.207664e-09 -5.369534e-05 -1.374340e-04) (-1.218986e-09 -2.950705e-05 -1.320596e-05)) ((1.101195e-09 8.678364e-12 9.953382e-11) (-1.089855e-06 1.100118e-10 -9.220522e-10))
22.374362     	((5.378152e-09 -5.700353e-05 -1.337720e-04) (-3.746419e-10 -2.898285e-05 -1.327671e-05)) ((1.159774e-09 -8.136268e-13 1.082975e-10) (-1.070129e-06 1.285754e-10 -8.290704e-10))
25.325552     	((1.397998e-08 -5.972534e-05 -1.299639e-04) (1.280514e-09 -2.856231e-05 -1.325980e-05)) ((1.209290e-09 -9.733163e-12 1.154061e-10) (-1.054228e-06 1.133154e-10 -6.914649e-10))
28.270885     	((2.023289e-08 -6.164722e-05 -1.259881e-04) (3.427321e-09 -2.817887e-05 -1.320513e-05)) ((1.251274e-09 -1.552726e-11 1.219637e-10) (-1.040143e-06 8.073325e-11 -5.551513e-10))
31.224226     	((1.983507e-08 -6.290667e-05 -1.221017e-04) (5.669229e-09 -2.782056e-05 -1.313922e-05)) ((1.288682e-09 -1.841926e-11 1.274457e-10) (-1.027518e-06 4.948267e-11 -4.026078e-10))
34.193639     	((2.090394e-08 -6.353816e-05 -1.185032e-04) (6.741057e-09 -2.749598e-05 -1.306881e-05)) ((1.313939e-09 -1.793039e-11 1.314912e-10) (-1.016602e-06 1.644245e-11 -3.312677e-10))
37.180383     	((1.684398e-08 -6.361676e-05 -1.150061e-04) (6.190542e-09 -2.718987e-05 -1.300762e-05)) ((1.328626e-09 -1.428486e-11 1.343240e-10) (-1.006521e-06 -2.968781e-12 -3.385697e-10))
40.179014     	((1.134716e-08 -6.349895e-05 -1.117478e-04) (5.812601e-09 -2.690197e-05 -1.295527e-05)) ((1.337856e-09 -1.016322e-11 1.360545e-10) (-9.971448e-07 -1.438249e-11 -3.573932e-10))
43.182        	((1.198922e-08 -6.319677e-05 -1.087375e-04) (5.982562e-09 -2.663586e-05 -1.291062e-05)) ((1.339072e-09 -5.600007e-12 1.367451e-10) (-9.885269e-07 -3.754159e-11 -3.723463e-10))
46.190494     	((8.383561e-09 -6.285749e-05 -1.060015e-04) (5.984436e-09 -2.639242e-05 -1.287410e-05)) ((1.336182e-09 -1.479687e-12 1.368240e-10) (-9.806821e-07 -6.678236e-11 -3.829828e-10))
49.206774     	((1.841997e-09 -6.240560e-05 -1.032755e-04) (5.618865e-09 -2.616448e-05 -1.284563e-05)) ((1.330990e-09 2.901412e-12 1.368902e-10) (-9.733500e-07 -8.113174e-11 -3.813719e-10))
52.231291     	((-2.645304e-10 -6.202952e-05 -1.007198e-04) (5.317531e-09 -2.595301e-05 -1.282298e-05)) ((1.326275e-09 6.839311e-12 1.371607e-10) (-9.665179e-07 -8.687794e-11 -3.778644e-10))
55.264742     	((-2.724130e-09 -6.168414e-05 -9.828893e-05) (4.986178e-09 -2.575964e-05 -1.280407e-05)) ((1.321098e-09 1.074319e-11 1.374233e-10) (-9.602077e-07 -9.705468e-11 -3.723877e-10))
58.30757      	((-3.241571e-09 -6.138620e-05 -9.596025e-05) (4.371886e-09 -2.558117e-05 -1.278897e-05)) ((1.316545e-09 1.467557e-11 1.376567e-10) (-9.542783e-07 -9.997184e-11 -3.851709e-10))
61.359413     	((-3.124258e-09 -6.110882e-05 -9.370422e-05) (3.686974e-09 -2.541519e-05 -1.277698e-05)) ((1.312848e-09 1.868021e-11 1.378457e-10) (-9.486867e-07 -9.717836e-11 -4.226269e-10))
64.419912     	((-2.067920e-09 -6.085110e-05 -9.154027e-05) (2.933298e-09 -2.526059e-05 -1.276612e-05)) ((1.309971e-09 2.262472e-11 1.380594e-10) (-9.434798e-07 -8.654530e-11 -4.781975e-10))
67.488687     	((3.408136e-09 -6.060017e-05 -8.944708e-05) (2.262942e-09 -2.511680e-05 -1.275434e-05)) ((1.307793e-09 2.671655e-11 1.383057e-10) (-9.387127e-07 -7.615159e-11 -5.427513e-10))
70.565377     	((1.192397e-08 -6.037992e-05 -8.744873e-05) (1.968426e-09 -2.498437e-05 -1.274073e-05)) ((1.306434e-09 3.076400e-11 1.385609e-10) (-9.344203e-07 -8.248130e-11 -6.023816e-10))
73.649654     	((2.064873e-08 -6.015406e-05 -8.550860e-05) (1.851419e-09 -2.486227e-05 -1.272594e-05)) ((1.305344e-09 3.486125e-11 1.388168e-10) (-9.305408e-07 -9.524165e-11 -6.522648e-10))
76.741191     	((3.504478e-08 -5.993219e-05 -8.361423e-05) (2.229631e-09 -2.474916e-05 -1.271007e-05)) ((1.304630e-09 3.913405e-11 1.390404e-10) (-9.270241e-07 -1.258094e-10 -6.905512e-10))
79.839687     	((4.577949e-08 -5.974218e-05 -8.183167e-05) (2.933392e-09 -2.464586e-05 -1.269144e-05)) ((1.304641e-09 4.278158e-11 1.392042e-10) (-9.239281e-07 -1.674162e-10 -7.214191e-10))
82.944867     	((5.227933e-08 -5.952165e-05 -8.012185e-05) (3.642760e-09 -2.455022e-05 -1.267272e-05)) ((1.303364e-09 4.640570e-11 1.392937e-10) (-9.211183e-07 -2.025141e-10 -7.508422e-10))
86.05661      	((5.803815e-08 -5.927590e-05 -7.846734e-05) (4.358287e-09 -2.445885e-05 -1.265646e-05)) ((1.301463e-09 5.008713e-11 1.392790e-10) (-9.184269e-07 -2.324923e-10 -7.728195e-10))
89.174638     	((6.046889e-08 -5.904118e-05 -7.687800e-05) (5.026429e-09 -2.437136e-05 -1.264174e-05)) ((1.299772e-09 5.358281e-11 1.392229e-10) (-9.158496e-07 -2.536026e-10 -7.829267e-10))
92.297873     	((6.456967e-08 -5.884939e-05 -7.538841e-05) (5.809537e-09 -2.428947e-05 -1.262820e-05)) ((1.298466e-09 5.689024e-11 1.391848e-10) (-9.134570e-07 -2.722184e-10 -7.759288e-10))
95.424149     	((6.890751e-08 -5.867353e-05 -7.396629e-05) (6.774695e-09 -2.421338e-05 -1.261610e-05)) ((1.297180e-09 6.012647e-11 1.391792e-10) (-9.112577e-07 -2.912686e-10 -7.536649e-10))
98.553546     	((7.486503e-08 -5.848564e-05 -7.260338e-05) (7.957598e-09 -2.414124e-05 -1.260718e-05)) ((1.294543e-09 6.336451e-11 1.391581e-10) (-9.091262e-07 -3.152355e-10 -7.130931e-10))
101.68617     	((8.132143e-08 -5.831591e-05 -7.128714e-05) (9.366959e-09 -2.407219e-05 -1.260208e-05)) ((1.291717e-09 6.659381e-11 1.392002e-10) (-9.070008e-07 -3.448803e-10 -6.592688e-10))
104.8219      	((8.380228e-08 -5.815103e-05 -7.002293e-05) (1.074684e-08 -2.400552e-05 -1.260089e-05)) ((1.288410e-09 6.964166e-11 1.392932e-10) (-9.048550e-07 -3.708882e-10 -5.959885e-10))
107.960785    	((8.750032e-08 -5.798275e-05 -6.878554e-05) (1.199478e-08 -2.394073e-05 -1.260254e-05)) ((1.285067e-09 7.264117e-11 1.393882e-10) (-9.027099e-07 -3.964864e-10 -5.335118e-10))
111.102809    	((9.253153e-08 -5.782258e-05 -6.758252e-05) (1.321874e-08 -2.387853e-05 -1.260500e-05)) ((1.282063e-09 7.565431e-11 1.394810e-10) (-9.006503e-07 -4.294232e-10 -4.763589e-10))
114.247949    	((9.011416e-08 -5.765164e-05 -6.640195e-05) (1.420172e-08 -2.381862e-05 -1.260741e-05)) ((1.279032e-09 7.843953e-11 1.395321e-10) (-8.986814e-07 -4.519016e-10 -4.192781e-10))
117.396233    	((9.511802e-08 -5.748903e-05 -6.524797e-05) (1.513714e-08 -2.376079e-05 -1.260896e-05)) ((1.276475e-09 8.125376e-11 1.395766e-10) (-8.968088e-07 -4.719664e-10 -3.658566e-10))
120.547697    	((9.919002e-08 -5.735063e-05 -6.413123e-05) (1.607408e-08 -2.370580e-05 -1.260851e-05)) ((1.274853e-09 8.384949e-11 1.396148e-10) (-8.950788e-07 -4.956825e-10 -3.199767e-10))
123.702599    	((1.088530e-07 -5.722461e-05 -6.304353e-05) (1.701600e-08 -2.365390e-05 -1.260580e-05)) ((1.273818e-09 8.644160e-11 1.396329e-10) (-8.934999e-07 -5.287636e-10 -2.868383e-10))
126.860925    	((1.193092e-07 -5.709860e-05 -6.199282e-05) (1.794175e-08 -2.360449e-05 -1.260144e-05)) ((1.272996e-09 8.891622e-11 1.396401e-10) (-8.920295e-07 -5.713105e-10 -2.705349e-10))
130.022539    	((1.333407e-07 -5.698704e-05 -6.098705e-05) (1.895422e-08 -2.355770e-05 -1.259605e-05)) ((1.272475e-09 9.127637e-11 1.396285e-10) (-8.906502e-07 -6.242048e-10 -2.710909e-10))
133.187339    	((1.501618e-07 -5.688345e-05 -6.003283e-05) (2.002686e-08 -2.351363e-05 -1.259005e-05)) ((1.272133e-09 9.352924e-11 1.396073e-10) (-8.893495e-07 -6.865454e-10 -2.900790e-10))
136.355225    	((1.684647e-07 -5.678554e-05 -5.912384e-05) (2.114355e-08 -2.347207e-05 -1.258345e-05)) ((1.271870e-09 9.570043e-11 1.395697e-10) (-8.881201e-07 -7.558621e-10 -3.245542e-10))
139.526076    	((1.920997e-07 -5.667838e-05 -5.825239e-05) (2.254720e-08 -2.343231e-05 -1.257684e-05)) ((1.271178e-09 9.792051e-11 1.395137e-10) (-8.869261e-07 -8.400544e-10 -3.711893e-10))
142.699739    	((2.194205e-07 -5.656902e-05 -5.741011e-05) (2.431536e-08 -2.339392e-05 -1.257090e-05)) ((1.270085e-09 1.002307e-10 1.394479e-10) (-8.857403e-07 -9.404104e-10 -4.269922e-10))
145.876078    	((2.487556e-07 -5.646080e-05 -5.659616e-05) (2.631411e-08 -2.335691e-05 -1.256590e-05)) ((1.268765e-09 1.025485e-10 1.393954e-10) (-8.845630e-07 -1.052895e-09 -4.937407e-10))
149.054964    	((2.819646e-07 -5.636066e-05 -5.581200e-05) (2.856670e-08 -2.332137e-05 -1.256175e-05)) ((1.267411e-09 1.048467e-10 1.393608e-10) (-8.834069e-07 -1.178438e-09 -5.736086e-10))
152.236288    	((3.169790e-07 -5.627035e-05 -5.505671e-05) (3.105462e-08 -2.328745e-05 -1.255828e-05)) ((1.266089e-09 1.071076e-10 1.393521e-10) (-8.822885e-07 -1.314172e-09 -6.625469e-10))
155.419967    	((3.553068e-07 -5.618945e-05 -5.433018e-05) (3.384914e-08 -2.325522e-05 -1.255531e-05)) ((1.264870e-09 1.093892e-10 1.393638e-10) (-8.812208e-07 -1.461207e-09 -7.555127e-10))
158.605924    	((3.949884e-07 -5.611525e-05 -5.363100e-05) (3.694569e-08 -2.322466e-05 -1.255251e-05)) ((1.263841e-09 1.116385e-10 1.393909e-10) (-8.802159e-07 -1.620241e-09 -8.509018e-10))
161.794115    	((4.355973e-07 -5.604768e-05 -5.295732e-05) (4.035963e-08 -2.319579e-05 -1.254961e-05)) ((1.263109e-09 1.138183e-10 1.394239e-10) (-8.792867e-07 -1.788597e-09 -9.441029e-10))
164.984505    	((4.764350e-07 -5.598333e-05 -5.231056e-05) (4.408242e-08 -2.316854e-05 -1.254628e-05)) ((1.262718e-09 1.159185e-10 1.394544e-10) (-8.784421e-07 -1.962685e-09 -1.031037e-09))
168.177037    	((5.171253e-07 -5.592276e-05 -5.168773e-05) (4.808487e-08 -2.314286e-05 -1.254208e-05)) ((1.262802e-09 1.179231e-10 1.394812e-10) (-8.776932e-07 -2.140218e-09 -1.108985e-09))
171.371659    	((5.594653e-07 -5.586273e-05 -5.108705e-05) (5.241287e-08 -2.311865e-05 -1.253660e-05)) ((1.263316e-09 1.198931e-10 1.394974e-10) (-8.770449e-07 -2.323772e-09 -1.177162e-09))
174.568315    	((6.024178e-07 -5.580284e-05 -5.049700e-05) (5.708814e-08 -2.309576e-05 -1.252962e-05)) ((1.264174e-09 1.218327e-10 1.395045e-10) (-8.764904e-07 -2.514639e-09 -1.234737e-09))
177.76694     	((6.478108e-07 -5.574342e-05 -4.992010e-05) (6.218532e-08 -2.307400e-05 -1.252116e-05)) ((1.265247e-09 1.237728e-10 1.395101e-10) (-8.760115e-07 -2.716029e-09 -1.280068e-09))
180.96747     	((6.950867e-07 -5.568260e-05 -4.935416e-05) (6.775145e-08 -2.305310e-05 -1.251168e-05)) ((1.266219e-09 1.257271e-10 1.395128e-10) (-8.755703e-07 -2.929245e-09 -1.311438e-09))
184.169834    	((7.451521e-07 -5.562269e-05 -4.879986e-05) (7.386975e-08 -2.303283e-05 -1.250161e-05)) ((1.267136e-09 1.277195e-10 1.395251e-10) (-8.751374e-07 -3.157525e-09 -1.327411e-09))
187.37396     	((7.992503e-07 -5.556172e-05 -4.825578e-05) (8.066033e-08 -2.301300e-05 -1.249102e-05)) ((1.268012e-09 1.297595e-10 1.395284e-10) (-8.746995e-07 -3.406156e-09 -1.327566e-09))
190.579768    	((8.588147e-07 -5.549976e-05 -4.772088e-05) (8.817179e-08 -2.299357e-05 -1.247970e-05)) ((1.268911e-09 1.318698e-10 1.395199e-10) (-8.742616e-07 -3.680344e-09 -1.315993e-09))
193.787177    	((9.248571e-07 -5.543894e-05 -4.719450e-05) (9.637938e-08 -2.297464e-05 -1.246737e-05)) ((1.269910e-09 1.340703e-10 1.394999e-10) (-8.738379e-07 -3.983136e-09 -1.300734e-09))
196.996114    	((9.991734e-07 -5.538103e-05 -4.667720e-05) (1.053368e-07 -2.295634e-05 -1.245405e-05)) ((1.270952e-09 1.363757e-10 1.394704e-10) (-8.734331e-07 -4.318722e-09 -1.287776e-09))
200.206528    	((1.084215e-06 -5.532346e-05 -4.616376e-05) (1.151931e-07 -2.293858e-05 -1.244005e-05)) ((1.271908e-09 1.388309e-10 1.394359e-10) (-8.730364e-07 -4.693687e-09 -1.281648e-09))
203.418381    	((1.181815e-06 -5.526809e-05 -4.565692e-05) (1.261191e-07 -2.292139e-05 -1.242567e-05)) ((1.272765e-09 1.414587e-10 1.393990e-10) (-8.726445e-07 -5.116213e-09 -1.287827e-09))
206.631656    	((1.294527e-06 -5.521488e-05 -4.516112e-05) (1.383096e-07 -2.290483e-05 -1.241119e-05)) ((1.273480e-09 1.443243e-10 1.393657e-10) (-8.722565e-07 -5.596478e-09 -1.310570e-09))
209.846352    	((1.424658e-06 -5.516058e-05 -4.467185e-05) (1.519901e-07 -2.288874e-05 -1.239699e-05)) ((1.273946e-09 1.475092e-10 1.393296e-10) (-8.718644e-07 -6.145470e-09 -1.352619e-09))
213.061478    	((1.573808e-06 -5.510526e-05 -4.418662e-05) (1.673605e-07 -2.287295e-05 -1.238343e-05)) ((1.274116e-09 1.510482e-10 1.392931e-10) (-8.714611e-07 -6.774084e-09 -1.417200e-09))
216.276769    	((1.746361e-06 -5.505390e-05 -4.371455e-05) (1.847035e-07 -2.285755e-05 -1.237075e-05)) ((1.274025e-09 1.549692e-10 1.392591e-10) (-8.710514e-07 -7.496706e-09 -1.509404e-09))
219.492153    	((1.943300e-06 -5.500506e-05 -4.325340e-05) (2.042686e-07 -2.284261e-05 -1.235922e-05)) ((1.273630e-09 1.592824e-10 1.392243e-10) (-8.706386e-07 -8.324511e-09 -1.634975e-09))
222.707556    	((2.167027e-06 -5.496195e-05 -4.281011e-05) (2.263092e-07 -2.282827e-05 -1.234899e-05)) ((1.273031e-09 1.639620e-10 1.391798e-10) (-8.702309e-07 -9.267769e-09 -1.798535e-09))
225.922898    	((2.417688e-06 -5.492163e-05 -4.237955e-05) (2.509804e-07 -2.281462e-05 -1.234002e-05)) ((1.272262e-09 1.690465e-10 1.391209e-10) (-8.698378e-07 -1.033290e-08 -2.005356e-09))
