# Forces      
# CofR        : (0.000000e+00 0.000000e+00 0.000000e+00)
# Time        forces(pressure viscous)	moments(pressure viscous)
0             	((0.000000e+00 0.000000e+00 0.000000e+00) (-1.874382e-08 5.293153e-11 -2.001011e-03)) ((0.000000e+00 0.000000e+00 0.000000e+00) (-2.243843e-11 5.796335e-11 1.025084e-14))
0.012         	((-9.076069e-05 -3.657996e-05 -1.533058e+00) (-8.154668e-08 -3.668191e-08 -1.941147e-03)) ((6.776602e-09 -3.993896e-06 -2.743936e-10) (-3.249023e-09 7.008558e-09 -1.640727e-12))
0.0264        	((4.125534e-05 8.169507e-06 1.380985e-01) (-6.756009e-08 -5.028065e-08 -1.782949e-03)) ((-2.064698e-09 2.635421e-07 1.775987e-09) (-2.392504e-09 6.555170e-09 1.600880e-10))
0.04368       	((3.569292e-05 8.857347e-05 1.765551e-01) (5.447455e-08 2.972117e-09 -1.567662e-03)) ((-6.476601e-09 3.850164e-07 -7.958946e-09) (7.435534e-09 -2.877953e-09 -4.317840e-11))
0.064416      	((3.768321e-05 4.103196e-06 4.002395e-02) (7.154575e-08 1.419683e-08 -1.401893e-03)) ((-1.570218e-09 1.215567e-07 5.923103e-10) (1.431743e-08 -1.270689e-08 -3.982859e-10))
0.0892992     	((5.146930e-06 9.746607e-06 2.299439e-02) (-2.746087e-08 5.513632e-08 -1.299126e-03)) ((-5.387103e-10 5.943254e-08 -2.058917e-09) (1.441613e-08 -1.558761e-08 -4.833130e-10))
0.119159      	((8.977430e-06 5.872947e-06 1.480278e-02) (9.984470e-08 1.355270e-07 -1.210698e-03)) ((-5.293945e-10 2.822805e-08 -2.077483e-10) (1.480342e-08 -1.384177e-08 -2.848956e-10))
0.154991      	((5.003953e-06 -1.020995e-07 8.528461e-03) (1.416189e-07 1.668985e-07 -1.125383e-03)) ((-3.736405e-10 8.045844e-09 -4.254438e-10) (1.443642e-08 -1.042466e-08 9.672201e-11))
0.197989      	((-5.855488e-06 6.084989e-07 4.814811e-03) (-2.301503e-08 1.417882e-07 -1.044492e-03)) ((-6.592536e-10 -2.401428e-09 2.561657e-10) (1.324368e-08 -6.993305e-09 3.347546e-10))
0.249587      	((2.849881e-06 1.930019e-06 2.487339e-03) (-6.225527e-08 8.375628e-08 -9.689857e-04)) ((-6.155109e-10 -9.907932e-09 1.091245e-10) (1.264400e-08 -4.541996e-09 5.708732e-10))
0.311504      	((3.154002e-06 2.286167e-06 9.497333e-04) (-2.971715e-08 2.757835e-08 -8.983033e-04)) ((-5.376292e-10 -1.425217e-08 5.409446e-10) (1.256418e-08 -3.198896e-09 5.941890e-10))
0.385805      	((2.742279e-06 8.726008e-07 -5.726628e-05) (-1.195634e-08 3.230570e-08 -8.320686e-04)) ((-6.239912e-10 -1.683030e-08 2.426389e-10) (1.305344e-08 -3.461815e-09 4.517385e-10))
0.474966      	((1.902948e-06 -4.587861e-07 -7.430978e-04) (1.617764e-08 6.981273e-08 -7.701435e-04)) ((-6.412715e-10 -1.834072e-08 6.997965e-11) (1.451709e-08 -4.824201e-09 3.602427e-10))
0.581959      	((7.548301e-07 -1.150498e-06 -1.208216e-03) (3.681378e-08 1.015252e-07 -7.121030e-04)) ((-5.942505e-10 -1.921320e-08 1.081581e-10) (1.638601e-08 -6.151475e-09 2.551403e-10))
0.710351      	((-1.241791e-07 -1.612798e-06 -1.515580e-03) (2.982173e-08 1.333335e-07 -6.582011e-04)) ((-4.027040e-10 -1.968305e-08 5.042267e-11) (1.681567e-08 -6.612972e-09 4.120421e-11))
0.864421      	((-1.576678e-06 -1.841479e-06 -1.728379e-03) (1.479207e-08 1.218161e-07 -6.094446e-04)) ((-3.408161e-10 -1.968157e-08 3.155137e-11) (1.559205e-08 -6.924905e-09 -9.902344e-11))
1.049306      	((-2.245730e-06 -2.378112e-06 -1.881552e-03) (-2.259715e-08 7.330596e-08 -5.662044e-04)) ((-3.779126e-10 -1.930955e-08 7.094284e-11) (1.421703e-08 -6.517741e-09 -1.031280e-10))
1.271167      	((-3.163894e-06 -2.622181e-06 -1.996152e-03) (-5.672610e-08 6.221590e-08 -5.286921e-04)) ((-3.483081e-10 -1.878311e-08 6.546365e-11) (1.365543e-08 -5.903705e-09 -2.480108e-10))
1.5374        	((-4.379427e-06 -3.103618e-06 -2.089148e-03) (-7.477854e-09 7.450759e-08 -4.966336e-04)) ((-2.886251e-10 -1.828999e-08 3.416416e-11) (1.360896e-08 -7.302106e-09 -3.108366e-10))
1.85688       	((-4.493172e-06 -3.421087e-06 -2.184486e-03) (3.364760e-08 5.761751e-08 -4.703878e-04)) ((-2.421526e-10 -1.776566e-08 4.062053e-11) (1.217939e-08 -7.533957e-09 -2.900856e-10))
2.240256      	((-4.333508e-06 -3.460772e-06 -2.275684e-03) (2.334582e-08 3.214922e-08 -4.501563e-04)) ((-2.001706e-10 -1.723368e-08 -1.812501e-11) (1.071348e-08 -6.886011e-09 -2.191522e-10))
2.700307      	((-4.405094e-06 -3.463800e-06 -2.332168e-03) (9.374974e-08 2.168121e-08 -4.346689e-04)) ((-1.642570e-10 -1.664481e-08 -3.390541e-11) (1.039185e-08 -6.185918e-09 -5.556989e-11))
3.252115      	((-4.883718e-06 -4.283450e-06 -2.390764e-03) (2.181229e-07 -2.578599e-08 -4.233023e-04)) ((-1.331331e-10 -1.608690e-08 -4.237687e-11) (8.662732e-09 -3.756366e-09 1.202621e-10))
3.895727      	((-6.405096e-06 -5.375559e-06 -2.446279e-03) (1.554696e-07 -6.279292e-08 -4.165383e-04)) ((-1.118580e-10 -1.553652e-08 -3.686360e-11) (6.688668e-09 -9.751701e-10 1.400857e-10))
4.631122      	((-8.096411e-06 -6.812585e-06 -2.423282e-03) (9.072133e-09 -9.068578e-08 -4.132405e-04)) ((-5.214356e-11 -1.500258e-08 -3.278342e-11) (4.320617e-09 2.541249e-09 1.434470e-10))
5.458344      	((-1.048022e-05 -8.746626e-06 -2.321709e-03) (-2.080713e-07 -1.478083e-07 -4.113428e-04)) ((-1.181186e-12 -1.443663e-08 1.451820e-11) (1.233639e-09 7.220496e-09 8.705233e-11))
6.377287      	((-1.305291e-05 -1.090484e-05 -2.239993e-03) (-4.384313e-07 -1.913706e-07 -4.106628e-04)) ((6.214597e-11 -1.397150e-08 4.723139e-11) (-1.413819e-09 1.066940e-08 -7.952482e-11))
7.297304      	((-1.544512e-05 -1.314493e-05 -2.210222e-03) (-5.708206e-07 -2.813538e-07 -4.111605e-04)) ((1.123587e-10 -1.376812e-08 5.583036e-11) (-3.603974e-09 1.318409e-08 -1.800756e-10))
8.218641      	((-1.889769e-05 -1.652872e-05 -2.219340e-03) (-6.945365e-07 -4.211631e-07 -4.124567e-04)) ((1.135771e-10 -1.373633e-08 5.078328e-11) (-6.757042e-09 1.615944e-08 -1.096444e-10))
9.140582      	((-2.298831e-05 -2.017179e-05 -2.222221e-03) (-8.453904e-07 -5.719720e-07 -4.142580e-04)) ((1.087616e-10 -1.381596e-08 3.624763e-11) (-1.078709e-08 1.990176e-08 4.115715e-12))
10.062744     	((-2.639642e-05 -2.309125e-05 -2.170361e-03) (-1.037002e-06 -7.589544e-07 -4.152266e-04)) ((1.316094e-10 -1.383818e-08 -2.667003e-12) (-1.619166e-08 2.556314e-08 4.685236e-11))
10.985002     	((-2.942299e-05 -2.565394e-05 -2.113210e-03) (-1.215545e-06 -9.314408e-07 -4.150810e-04)) ((1.395749e-10 -1.381393e-08 -1.833088e-11) (-2.114226e-08 3.090652e-08 3.801151e-11))
11.907208     	((-3.244019e-05 -2.818767e-05 -2.073515e-03) (-1.363149e-06 -1.068657e-06 -4.146381e-04)) ((1.795039e-10 -1.379833e-08 -2.078765e-11) (-2.460310e-08 3.451680e-08 3.700391e-11))
12.829318     	((-3.569182e-05 -3.093153e-05 -2.048167e-03) (-1.488532e-06 -1.178554e-06 -4.142222e-04)) ((2.276910e-10 -1.379502e-08 -2.157384e-11) (-2.686291e-08 3.688893e-08 2.809852e-11))
13.751388     	((-3.960203e-05 -3.439365e-05 -2.027643e-03) (-1.617169e-06 -1.284810e-06 -4.138533e-04)) ((2.933706e-10 -1.379479e-08 -1.884095e-11) (-2.852465e-08 3.886848e-08 1.216140e-11))
14.673481     	((-4.390940e-05 -3.827557e-05 -2.016089e-03) (-1.761795e-06 -1.401825e-06 -4.135742e-04)) ((3.666776e-10 -1.381442e-08 -1.674756e-11) (-3.008743e-08 4.078014e-08 1.568394e-11))
15.595627     	((-4.839524e-05 -4.224625e-05 -2.009540e-03) (-1.910436e-06 -1.517957e-06 -4.134226e-04)) ((4.382714e-10 -1.383724e-08 -7.186652e-12) (-3.125646e-08 4.225878e-08 2.449249e-11))
16.517842     	((-5.282768e-05 -4.619612e-05 -2.004977e-03) (-2.062950e-06 -1.636044e-06 -4.134021e-04)) ((5.042170e-10 -1.387428e-08 4.586798e-12) (-3.230758e-08 4.371752e-08 1.862542e-11))
17.440134     	((-5.748451e-05 -5.035788e-05 -1.999970e-03) (-2.232295e-06 -1.772669e-06 -4.134658e-04)) ((5.654799e-10 -1.391821e-08 1.327488e-11) (-3.416256e-08 4.612877e-08 -2.920480e-11))
18.362466     	((-6.235243e-05 -5.461194e-05 -1.992942e-03) (-2.428643e-06 -1.937320e-06 -4.135395e-04)) ((6.198741e-10 -1.397101e-08 1.870933e-11) (-3.723565e-08 4.977675e-08 -8.877949e-11))
