# Forces      
# CofR        : (0.000000e+00 0.000000e+00 0.000000e+00)
# Time        forces(pressure viscous)	moments(pressure viscous)
0             	((0.000000e+00 0.000000e+00 0.000000e+00) (-1.510010e-14 -5.025486e-05 3.246973e-15)) ((0.000000e+00 0.000000e+00 0.000000e+00) (-1.129174e-06 -1.256739e-16 2.438592e-11))
0.012         	((1.371534e-08 -1.461592e-02 3.295261e-03) (8.183544e-11 -5.765747e-05 -2.779237e-08)) ((1.723542e-07 1.124139e-08 2.753796e-09) (-1.664261e-06 6.514512e-14 4.986306e-11))
0.0264        	((-2.344810e-07 1.035252e-03 -2.159415e-04) (-5.651629e-11 -5.880213e-05 -4.309291e-08)) ((-1.234826e-08 -7.150220e-10 -1.800874e-10) (-1.862788e-06 1.048211e-11 6.477348e-11))
0.04368       	((1.121135e-07 3.045338e-03 -2.431515e-04) (1.549784e-12 -5.223389e-05 -3.667514e-08)) ((-3.966501e-08 -8.307564e-10 -7.439716e-10) (-1.659423e-06 1.700145e-11 5.440248e-11))
0.064416      	((6.316924e-08 2.861609e-05 -1.242310e-04) (-1.016376e-09 -4.625753e-05 -1.714555e-08)) ((1.796723e-10 -3.989566e-10 4.069981e-11) (-1.490112e-06 1.009908e-11 6.614804e-11))
0.0892992     	((-4.949958e-08 -3.831684e-05 -7.703071e-05) (-1.990398e-09 -4.270087e-05 -1.355191e-08)) ((1.572835e-09 -2.369286e-10 4.375434e-11) (-1.408739e-06 7.430831e-12 7.448130e-11))
0.119159      	((-9.315385e-09 4.656068e-05 -4.876740e-05) (-1.950506e-09 -3.942757e-05 -2.619846e-08)) ((-8.591022e-10 -1.504385e-10 -1.374417e-11) (-1.318482e-06 1.503098e-11 6.376406e-11))
0.154991      	((7.635893e-09 2.464674e-05 -3.200532e-05) (-1.735423e-09 -3.596653e-05 -3.622943e-08)) ((-5.322348e-10 -8.680453e-11 1.196399e-12) (-1.218275e-06 1.415538e-11 4.004232e-11))
0.197989      	((-9.572485e-10 5.884273e-06 -2.120320e-05) (-1.492024e-09 -3.248615e-05 -4.498806e-08)) ((-1.905627e-10 -5.080074e-11 3.273287e-12) (-1.116500e-06 5.029510e-12 1.300769e-11))
0.249587      	((-9.872668e-09 -8.916282e-07 -1.452475e-05) (-1.235349e-09 -2.908649e-05 -5.505819e-08)) ((-6.484231e-11 -2.904787e-11 2.858183e-12) (-1.015060e-06 -3.631947e-12 -3.945849e-12))
0.311504      	((-8.175867e-09 -3.939172e-06 -1.033206e-05) (-9.373862e-10 -2.587216e-05 -6.666117e-08)) ((-2.124033e-11 -1.525780e-11 2.412153e-12) (-9.160575e-07 -8.942670e-12 -2.106444e-11))
0.385805      	((-2.596359e-09 -5.450144e-06 -7.682734e-06) (-6.937290e-10 -2.292618e-05 -7.873840e-08)) ((-4.661851e-12 -6.531572e-12 1.796757e-12) (-8.219640e-07 -1.184070e-11 -2.925928e-11))
0.474966      	((-1.129248e-09 -6.229382e-06 -5.978190e-06) (-3.568690e-10 -2.029708e-05 -9.055204e-08)) ((8.613306e-12 -1.547664e-12 1.605048e-12) (-7.351477e-07 -1.253381e-11 -3.080010e-11))
0.581959      	((5.330230e-10 -6.555758e-06 -4.914924e-06) (-5.487712e-11 -1.798963e-05 -1.024445e-07)) ((1.860010e-11 1.439765e-12 1.511610e-12) (-6.566383e-07 -8.703472e-12 -2.782111e-11))
0.710351      	((8.595310e-10 -6.540405e-06 -4.258636e-06) (1.141384e-10 -1.599078e-05 -1.134145e-07)) ((2.490706e-11 3.444240e-12 1.252365e-12) (-5.869160e-07 -5.740417e-12 -2.373063e-11))
0.864421      	((1.142360e-09 -6.308162e-06 -3.871804e-06) (3.044400e-10 -1.427548e-05 -1.225296e-07)) ((2.782392e-11 4.612561e-12 1.389315e-12) (-5.259781e-07 -5.587774e-12 -1.516378e-11))
1.049306      	((6.957618e-10 -5.961999e-06 -3.642339e-06) (4.174129e-10 -1.280642e-05 -1.305015e-07)) ((2.825554e-11 5.178213e-12 1.427039e-12) (-4.730377e-07 -5.604440e-12 -3.874818e-12))
1.271167      	((7.157793e-10 -5.568886e-06 -3.516055e-06) (4.508819e-10 -1.154373e-05 -1.387268e-07)) ((2.734343e-11 5.417726e-12 1.250714e-12) (-4.269391e-07 -4.194755e-12 6.634769e-12))
1.5374        	((4.745475e-10 -5.157941e-06 -3.453059e-06) (4.438748e-10 -1.044712e-05 -1.482758e-07)) ((2.555429e-11 5.427299e-12 1.155933e-12) (-3.865482e-07 -1.477431e-12 1.523865e-11))
1.85688       	((3.347226e-10 -4.753986e-06 -3.433018e-06) (3.876241e-10 -9.482017e-06 -1.595883e-07)) ((2.340020e-11 5.289718e-12 1.102745e-12) (-3.508746e-07 9.688372e-13 2.111632e-11))
2.240256      	((2.328886e-10 -4.372153e-06 -3.432869e-06) (2.763339e-10 -8.624768e-06 -1.723191e-07)) ((2.173766e-11 5.142241e-12 1.081745e-12) (-3.191550e-07 2.991594e-12 2.445607e-11))
2.700307      	((2.134549e-10 -4.017969e-06 -3.448891e-06) (1.601589e-10 -7.859142e-06 -1.860308e-07)) ((2.026045e-11 4.922150e-12 1.091275e-12) (-2.908169e-07 4.087889e-12 2.506485e-11))
3.252369      	((1.850321e-11 -3.691116e-06 -3.465918e-06) (1.100023e-10 -7.172782e-06 -2.007609e-07)) ((1.886604e-11 4.635371e-12 1.081582e-12) (-2.654082e-07 4.206562e-12 2.337823e-11))
3.914842      	((-8.336386e-11 -3.389366e-06 -3.486457e-06) (6.737477e-11 -6.556118e-06 -2.167667e-07)) ((1.747302e-11 4.333774e-12 9.964295e-13) (-2.425738e-07 5.124861e-12 2.164744e-11))
4.709811      	((-1.107338e-10 -3.113706e-06 -3.503500e-06) (6.827548e-11 -6.002217e-06 -2.339277e-07)) ((1.629529e-11 4.103585e-12 8.629598e-13) (-2.220569e-07 5.804216e-12 2.197582e-11))
5.663773      	((-4.792823e-11 -2.865153e-06 -3.517317e-06) (8.734403e-11 -5.505791e-06 -2.520343e-07)) ((1.544936e-11 3.858158e-12 7.489079e-13) (-2.036646e-07 4.790143e-12 2.258814e-11))
6.808528      	((-4.795946e-11 -2.643096e-06 -3.525131e-06) (4.469488e-11 -5.061800e-06 -2.710862e-07)) ((1.490639e-11 3.605702e-12 6.605430e-13) (-1.872129e-07 4.115084e-12 2.324347e-11))
8.182233      	((-1.662957e-10 -2.446393e-06 -3.525924e-06) (2.565355e-11 -4.664922e-06 -2.911901e-07)) ((1.457577e-11 3.389720e-12 5.952872e-13) (-1.725066e-07 4.676330e-12 2.195106e-11))
9.83068       	((-3.664751e-10 -2.274178e-06 -3.519806e-06) (-9.900541e-12 -4.309689e-06 -3.124890e-07)) ((1.443050e-11 3.195827e-12 5.690566e-13) (-1.593429e-07 5.642109e-12 1.821494e-11))
11.808816     	((-5.084889e-10 -2.125897e-06 -3.507967e-06) (-5.533411e-11 -3.990929e-06 -3.349895e-07)) ((1.446298e-11 3.012908e-12 5.716535e-13) (-1.475285e-07 6.794061e-12 1.444691e-11))
14.182579     	((-3.450515e-10 -2.000659e-06 -3.491494e-06) (-5.990967e-11 -3.704461e-06 -3.585777e-07)) ((1.468249e-11 2.830640e-12 5.920033e-13) (-1.369082e-07 8.095529e-12 1.034963e-11))
17.031095     	((-3.089719e-10 -1.896552e-06 -3.469119e-06) (-5.464839e-11 -3.447181e-06 -3.831454e-07)) ((1.508217e-11 2.650966e-12 6.281545e-13) (-1.273658e-07 9.485484e-12 5.027671e-12))
20.449314     	((-3.973361e-10 -1.813518e-06 -3.442622e-06) (-6.400562e-11 -3.216741e-06 -4.084835e-07)) ((1.571351e-11 2.465351e-12 6.735664e-13) (-1.188138e-07 1.164672e-11 -6.421186e-13))
24.551176     	((-4.847065e-10 -1.751199e-06 -3.410775e-06) (-9.215303e-11 -3.011320e-06 -4.342653e-07)) ((1.657150e-11 2.288588e-12 7.337107e-13) (-1.111863e-07 1.393155e-11 -6.267651e-12))
29.473411     	((-6.121770e-10 -1.708948e-06 -3.373273e-06) (-1.246897e-10 -2.829526e-06 -4.600098e-07)) ((1.766687e-11 2.146550e-12 8.204583e-13) (-1.044363e-07 1.512382e-11 -1.106687e-11))
35.380094     	((-6.066755e-10 -1.685947e-06 -3.330264e-06) (-1.443652e-10 -2.670049e-06 -4.852024e-07)) ((1.899148e-11 2.016370e-12 9.288826e-13) (-9.852389e-08 1.507055e-11 -1.473043e-11))
42.468112     	((-4.815461e-10 -1.680806e-06 -3.281981e-06) (-1.648793e-10 -2.531581e-06 -5.093620e-07)) ((2.055508e-11 1.895877e-12 1.049354e-12) (-9.340836e-08 1.380639e-11 -1.787731e-11))
50.973735     	((-2.971756e-10 -1.692362e-06 -3.228056e-06) (-1.689585e-10 -2.412890e-06 -5.320737e-07)) ((2.241042e-11 1.789472e-12 1.191238e-12) (-8.905709e-08 1.105651e-11 -2.108890e-11))
61.180482     	((-8.002545e-11 -1.717614e-06 -3.170314e-06) (-1.474217e-10 -2.312891e-06 -5.531282e-07)) ((2.447635e-11 1.695380e-12 1.354565e-12) (-8.543793e-08 7.344761e-12 -2.498665e-11))
73.428578     	((7.580156e-12 -1.752641e-06 -3.105965e-06) (-1.244496e-10 -2.230468e-06 -5.725352e-07)) ((2.660077e-11 1.652877e-12 1.524732e-12) (-8.250693e-08 3.500733e-12 -2.999343e-11))
88.075216     	((1.597205e-10 -1.793407e-06 -3.035743e-06) (-8.640158e-11 -2.164227e-06 -5.899683e-07)) ((2.861876e-11 1.675605e-12 1.681560e-12) (-8.019686e-08 -3.623943e-13 -3.398057e-11))
105.10507     	((3.914295e-10 -1.835262e-06 -2.958660e-06) (-4.154076e-11 -2.112672e-06 -6.043571e-07)) ((3.026852e-11 1.735759e-12 1.836132e-12) (-7.842281e-08 -3.899654e-12 -3.601828e-11))
124.502098    	((5.688406e-10 -1.870671e-06 -2.875141e-06) (6.454353e-12 -2.072433e-06 -6.149079e-07)) ((3.152974e-11 1.824160e-12 1.932350e-12) (-7.704187e-08 -6.544033e-12 -3.663182e-11))
146.256224    	((7.936677e-10 -1.895969e-06 -2.785633e-06) (6.580665e-11 -2.040131e-06 -6.217717e-07)) ((3.243796e-11 1.912499e-12 2.003566e-12) (-7.592260e-08 -9.036152e-12 -3.646308e-11))
169.824794    	((9.457021e-10 -1.911854e-06 -2.695380e-06) (1.441275e-10 -2.013380e-06 -6.255868e-07)) ((3.315960e-11 2.006984e-12 2.057509e-12) (-7.499854e-08 -1.149422e-11 -3.594418e-11))
193.453114    	((1.148413e-09 -1.921835e-06 -2.612875e-06) (2.175684e-10 -1.991185e-06 -6.276035e-07)) ((3.369978e-11 2.114387e-12 2.111480e-12) (-7.424041e-08 -1.402699e-11 -3.629807e-11))
217.138171    	((1.257011e-09 -1.926451e-06 -2.539417e-06) (2.948348e-10 -1.972154e-06 -6.287605e-07)) ((3.407016e-11 2.230848e-12 2.158607e-12) (-7.360137e-08 -1.645122e-11 -3.687662e-11))
240.854824    	((1.341908e-09 -1.928788e-06 -2.474902e-06) (3.615233e-10 -1.955880e-06 -6.295570e-07)) ((3.432024e-11 2.352361e-12 2.194892e-12) (-7.306193e-08 -1.867617e-11 -3.742592e-11))
264.588489    	((1.373777e-09 -1.929828e-06 -2.418362e-06) (4.148620e-10 -1.941933e-06 -6.302171e-07)) ((3.449185e-11 2.464695e-12 2.221548e-12) (-7.260269e-08 -2.043463e-11 -3.772448e-11))
288.337191    	((1.343952e-09 -1.930025e-06 -2.368595e-06) (4.511568e-10 -1.929961e-06 -6.307988e-07)) ((3.461351e-11 2.564854e-12 2.243003e-12) (-7.221018e-08 -2.154774e-11 -3.790185e-11))
312.101422    	((1.290019e-09 -1.929543e-06 -2.324133e-06) (4.736250e-10 -1.919648e-06 -6.313379e-07)) ((3.470027e-11 2.656958e-12 2.261556e-12) (-7.187324e-08 -2.200056e-11 -3.788621e-11))
335.879955    	((1.228853e-09 -1.928765e-06 -2.284173e-06) (4.865794e-10 -1.910751e-06 -6.318465e-07)) ((3.476142e-11 2.744560e-12 2.277977e-12) (-7.158357e-08 -2.201694e-11 -3.755459e-11))
359.670816    	((1.176313e-09 -1.927628e-06 -2.247940e-06) (4.891937e-10 -1.903044e-06 -6.323417e-07)) ((3.480171e-11 2.827771e-12 2.290952e-12) (-7.133296e-08 -2.178247e-11 -3.711558e-11))
383.472398    	((1.128258e-09 -1.926489e-06 -2.215462e-06) (4.887193e-10 -1.896355e-06 -6.328225e-07)) ((3.482998e-11 2.903999e-12 2.302203e-12) (-7.111567e-08 -2.142743e-11 -3.659828e-11))
407.283428    	((1.081116e-09 -1.925307e-06 -2.186346e-06) (4.894152e-10 -1.890536e-06 -6.332832e-07)) ((3.485112e-11 2.972735e-12 2.311673e-12) (-7.092676e-08 -2.106311e-11 -3.599485e-11))
431.102775    	((1.022963e-09 -1.924167e-06 -2.160344e-06) (4.865682e-10 -1.885469e-06 -6.337107e-07)) ((3.486697e-11 3.033527e-12 2.320279e-12) (-7.076244e-08 -2.060172e-11 -3.533514e-11))
454.929446    	((9.716184e-10 -1.923093e-06 -2.137044e-06) (4.810771e-10 -1.881048e-06 -6.340991e-07)) ((3.487996e-11 3.089134e-12 2.327789e-12) (-7.061944e-08 -2.011458e-11 -3.468819e-11))
478.762585    	((9.209644e-10 -1.922011e-06 -2.116062e-06) (4.739190e-10 -1.877177e-06 -6.344548e-07)) ((3.488868e-11 3.139901e-12 2.334201e-12) (-7.049439e-08 -1.957401e-11 -3.407217e-11))
502.601443    	((8.633034e-10 -1.921031e-06 -2.097281e-06) (4.652559e-10 -1.873782e-06 -6.347761e-07)) ((3.489647e-11 3.186202e-12 2.339843e-12) (-7.038500e-08 -1.899642e-11 -3.342372e-11))
526.445352    	((8.136561e-10 -1.920099e-06 -2.080493e-06) (4.567265e-10 -1.870801e-06 -6.350671e-07)) ((3.490162e-11 3.227693e-12 2.344751e-12) (-7.028905e-08 -1.843467e-11 -3.272348e-11))
550.293723    	((7.677933e-10 -1.919227e-06 -2.065344e-06) (4.483654e-10 -1.868178e-06 -6.353293e-07)) ((3.490591e-11 3.265648e-12 2.348821e-12) (-7.020469e-08 -1.788784e-11 -3.206467e-11))
574.146046    	((7.178111e-10 -1.918416e-06 -2.051806e-06) (4.395142e-10 -1.865867e-06 -6.355629e-07)) ((3.490906e-11 3.299447e-12 2.352492e-12) (-7.013043e-08 -1.734785e-11 -3.142773e-11))
598.001879    	((6.766921e-10 -1.917669e-06 -2.039647e-06) (4.300824e-10 -1.863826e-06 -6.357704e-07)) ((3.491145e-11 3.330031e-12 2.355665e-12) (-7.006496e-08 -1.683726e-11 -3.082627e-11))
621.860835    	((6.331068e-10 -1.916977e-06 -2.028763e-06) (4.202764e-10 -1.862022e-06 -6.359539e-07)) ((3.491331e-11 3.357394e-12 2.358325e-12) (-7.000716e-08 -1.633498e-11 -3.027018e-11))
645.72257     	((5.930267e-10 -1.916332e-06 -2.018978e-06) (4.111298e-10 -1.860423e-06 -6.361171e-07)) ((3.491447e-11 3.382212e-12 2.360661e-12) (-6.995600e-08 -1.585225e-11 -2.972822e-11))
669.58678     	((5.502189e-10 -1.915755e-06 -2.010223e-06) (4.022217e-10 -1.859006e-06 -6.362607e-07)) ((3.491574e-11 3.404068e-12 2.362822e-12) (-6.991073e-08 -1.537324e-11 -2.922709e-11))
693.453193    	((5.098973e-10 -1.915224e-06 -2.002362e-06) (3.938820e-10 -1.857750e-06 -6.363872e-07)) ((3.491657e-11 3.423929e-12 2.364685e-12) (-6.987061e-08 -1.491051e-11 -2.875800e-11))
717.32157     	((4.690058e-10 -1.914742e-06 -1.995314e-06) (3.861926e-10 -1.856634e-06 -6.364981e-07)) ((3.491749e-11 3.441703e-12 2.366293e-12) (-6.983504e-08 -1.444305e-11 -2.830285e-11))
741.1917      	((4.293124e-10 -1.914305e-06 -1.988990e-06) (3.784995e-10 -1.855644e-06 -6.365950e-07)) ((3.491849e-11 3.457662e-12 2.367724e-12) (-6.980346e-08 -1.397299e-11 -2.787893e-11))
765.063393    	((3.892694e-10 -1.913911e-06 -1.983321e-06) (3.709837e-10 -1.854763e-06 -6.366791e-07)) ((3.491952e-11 3.471847e-12 2.369030e-12) (-6.977543e-08 -1.350601e-11 -2.747469e-11))
788.936483    	((3.542751e-10 -1.913550e-06 -1.978228e-06) (3.637037e-10 -1.853979e-06 -6.367519e-07)) ((3.492042e-11 3.484650e-12 2.370201e-12) (-6.975052e-08 -1.306274e-11 -2.709219e-11))
812.810821    	((3.186937e-10 -1.913225e-06 -1.973661e-06) (3.564884e-10 -1.853281e-06 -6.368151e-07)) ((3.492132e-11 3.496063e-12 2.371250e-12) (-6.972836e-08 -1.263468e-11 -2.673760e-11))
836.686277    	((2.842819e-10 -1.912930e-06 -1.969563e-06) (3.493213e-10 -1.852660e-06 -6.368700e-07)) ((3.492219e-11 3.506271e-12 2.372187e-12) (-6.970864e-08 -1.221480e-11 -2.640573e-11))
860.562732    	((2.521364e-10 -1.912666e-06 -1.965888e-06) (3.422692e-10 -1.852106e-06 -6.369175e-07)) ((3.492303e-11 3.515449e-12 2.373019e-12) (-6.969108e-08 -1.181004e-11 -2.609822e-11))
884.440082    	((2.212551e-10 -1.912425e-06 -1.962592e-06) (3.353605e-10 -1.851611e-06 -6.369587e-07)) ((3.492383e-11 3.523690e-12 2.373766e-12) (-6.967543e-08 -1.142346e-11 -2.581334e-11))
908.318234    	((1.924545e-10 -1.912206e-06 -1.959629e-06) (3.286949e-10 -1.851170e-06 -6.369944e-07)) ((3.492453e-11 3.531079e-12 2.374442e-12) (-6.966148e-08 -1.105744e-11 -2.554935e-11))
932.197103    	((1.649595e-10 -1.912009e-06 -1.956973e-06) (3.222734e-10 -1.850777e-06 -6.370255e-07)) ((3.492518e-11 3.537714e-12 2.375043e-12) (-6.964903e-08 -1.071097e-11 -2.530527e-11))
956.076616    	((1.397195e-10 -1.911833e-06 -1.954591e-06) (3.161520e-10 -1.850425e-06 -6.370524e-07)) ((3.492577e-11 3.543639e-12 2.375576e-12) (-6.963791e-08 -1.038257e-11 -2.508094e-11))
979.956707    	((1.156131e-10 -1.911673e-06 -1.952453e-06) (3.103268e-10 -1.850110e-06 -6.370758e-07)) ((3.492630e-11 3.548941e-12 2.376047e-12) (-6.962798e-08 -1.007156e-11 -2.487358e-11))
1003.837315   	((9.309057e-11 -1.911528e-06 -1.950534e-06) (3.048053e-10 -1.849829e-06 -6.370962e-07)) ((3.492680e-11 3.553650e-12 2.376471e-12) (-6.961910e-08 -9.775894e-12 -2.468340e-11))
1027.718386   	((7.258146e-11 -1.911399e-06 -1.948816e-06) (2.996178e-10 -1.849578e-06 -6.371140e-07)) ((3.492730e-11 3.557863e-12 2.376842e-12) (-6.961117e-08 -9.496455e-12 -2.450809e-11))
1051.599873   	((5.343073e-11 -1.911282e-06 -1.947271e-06) (2.947659e-10 -1.849353e-06 -6.371294e-07)) ((3.492776e-11 3.561626e-12 2.377180e-12) (-6.960407e-08 -9.235403e-12 -2.434568e-11))
1075.481734   	((3.531882e-11 -1.911176e-06 -1.945885e-06) (2.902107e-10 -1.849152e-06 -6.371428e-07)) ((3.492819e-11 3.564983e-12 2.377482e-12) (-6.959772e-08 -8.990467e-12 -2.419610e-11))
1099.363929   	((1.871007e-11 -1.911081e-06 -1.944641e-06) (2.859548e-10 -1.848972e-06 -6.371544e-07)) ((3.492860e-11 3.568002e-12 2.377744e-12) (-6.959205e-08 -8.762098e-12 -2.405890e-11))
1123.246425   	((3.135492e-12 -1.910994e-06 -1.943526e-06) (2.819879e-10 -1.848810e-06 -6.371645e-07)) ((3.492897e-11 3.570682e-12 2.377979e-12) (-6.958696e-08 -8.549269e-12 -2.393220e-11))
1147.12919    	((-1.112535e-11 -1.910917e-06 -1.942528e-06) (2.782892e-10 -1.848666e-06 -6.371732e-07)) ((3.492932e-11 3.573093e-12 2.378189e-12) (-6.958242e-08 -8.351210e-12 -2.381597e-11))
1171.012196   	((-2.414333e-11 -1.910848e-06 -1.941628e-06) (2.748742e-10 -1.848537e-06 -6.371808e-07)) ((3.492965e-11 3.575268e-12 2.378383e-12) (-6.957835e-08 -8.168109e-12 -2.370859e-11))
1194.89542    	((-3.610021e-11 -1.910786e-06 -1.940821e-06) (2.717290e-10 -1.848421e-06 -6.371873e-07)) ((3.492996e-11 3.577205e-12 2.378557e-12) (-6.957471e-08 -7.998807e-12 -2.360862e-11))
1218.778839   	((-4.712062e-11 -1.910730e-06 -1.940096e-06) (2.688308e-10 -1.848317e-06 -6.371930e-07)) ((3.493025e-11 3.578936e-12 2.378717e-12) (-6.957144e-08 -7.842389e-12 -2.351647e-11))
1242.662432   	((-5.693322e-11 -1.910681e-06 -1.939442e-06) (2.661628e-10 -1.848224e-06 -6.371980e-07)) ((3.493053e-11 3.580504e-12 2.378864e-12) (-6.956852e-08 -7.698446e-12 -2.343205e-11))
1266.546182   	((-6.608412e-11 -1.910635e-06 -1.938861e-06) (2.637086e-10 -1.848141e-06 -6.372023e-07)) ((3.493078e-11 3.581888e-12 2.378990e-12) (-6.956590e-08 -7.566297e-12 -2.335491e-11))
1290.430072   	((-7.447545e-11 -1.910594e-06 -1.938336e-06) (2.614535e-10 -1.848066e-06 -6.372060e-07)) ((3.493099e-11 3.583140e-12 2.379106e-12) (-6.956356e-08 -7.444923e-12 -2.328459e-11))
1314.314089   	((-8.215142e-11 -1.910557e-06 -1.937868e-06) (2.593835e-10 -1.848000e-06 -6.372092e-07)) ((3.493120e-11 3.584250e-12 2.379210e-12) (-6.956145e-08 -7.333523e-12 -2.322071e-11))
1338.198219   	((-8.905385e-11 -1.910524e-06 -1.937446e-06) (2.574898e-10 -1.847940e-06 -6.372121e-07)) ((3.493140e-11 3.585253e-12 2.379305e-12) (-6.955957e-08 -7.231854e-12 -2.316263e-11))
1362.082452   	((-9.533713e-11 -1.910494e-06 -1.937069e-06) (2.557652e-10 -1.847886e-06 -6.372146e-07)) ((3.493157e-11 3.586145e-12 2.379390e-12) (-6.955788e-08 -7.139102e-12 -2.310993e-11))
1385.966775   	((-1.010175e-10 -1.910467e-06 -1.936731e-06) (2.541832e-10 -1.847838e-06 -6.372167e-07)) ((3.493173e-11 3.586942e-12 2.379468e-12) (-6.955637e-08 -7.054516e-12 -2.306241e-11))
1409.851181   	((-1.063063e-10 -1.910444e-06 -1.936430e-06) (2.527414e-10 -1.847795e-06 -6.372186e-07)) ((3.493187e-11 3.587648e-12 2.379534e-12) (-6.955501e-08 -6.977344e-12 -2.301951e-11))
1433.73566    	((-1.109982e-10 -1.910422e-06 -1.936155e-06) (2.514236e-10 -1.847756e-06 -6.372202e-07)) ((3.493201e-11 3.588296e-12 2.379596e-12) (-6.955379e-08 -6.907146e-12 -2.298066e-11))
