# Forces      
# CofR        : (0.000000e+00 0.000000e+00 0.000000e+00)
# Time        forces(pressure viscous)	moments(pressure viscous)
0             	((0.000000e+00 0.000000e+00 0.000000e+00) (-9.343973e-13 -3.170571e-03 2.114112e-13)) ((0.000000e+00 0.000000e+00 0.000000e+00) (-7.123915e-05 -7.940404e-15 1.367110e-09))
0.012         	((5.485350e-07 -9.303004e-01 1.932375e-01) (-3.278562e-10 -3.810021e-03 -7.972485e-05)) ((1.087544e-05 7.236717e-07 1.685287e-07) (-1.126326e-04 6.508698e-10 1.648169e-09))
0.0264        	((1.108633e-05 1.736276e-01 -5.806135e-02) (7.027522e-09 -3.801833e-03 -1.211783e-04)) ((-1.906427e-06 -9.789905e-08 -1.337226e-08) (-1.245747e-04 4.359148e-10 -9.773907e-10))
0.04368       	((-8.787216e-06 1.298603e-01 -3.636710e-02) (2.652826e-09 -3.264636e-03 -1.197939e-04)) ((-1.911897e-06 -5.289245e-08 -4.851476e-08) (-1.094067e-04 4.977314e-10 -4.515208e-09))
0.064416      	((-3.278686e-07 -9.440929e-05 -2.744236e-02) (-9.200682e-08 -2.878199e-03 -1.337021e-04)) ((-2.603369e-08 -1.877025e-08 7.416985e-09) (-9.944811e-05 9.624873e-10 -7.576377e-09))
0.0892992     	((-7.874914e-06 1.012208e-03 -2.279684e-02) (-4.847306e-07 -2.647892e-03 -1.583185e-04)) ((-5.275282e-08 -5.184595e-09 -8.768455e-10) (-9.376874e-05 1.627544e-09 -1.074193e-08))
0.119159      	((-1.056301e-05 6.490050e-04 -2.047915e-02) (-7.079105e-07 -2.455421e-03 -1.776932e-04)) ((-8.336056e-08 1.463057e-09 -1.135887e-09) (-8.804906e-05 2.988011e-09 -1.314033e-08))
0.154991      	((-5.485024e-06 -4.836663e-04 -1.910784e-02) (-6.409971e-07 -2.285464e-03 -1.910568e-04)) ((-5.791346e-08 5.192159e-09 -1.233114e-09) (-8.268221e-05 4.833600e-09 -1.352641e-08))
0.197989      	((-6.590169e-06 -8.761514e-04 -1.827614e-02) (-7.901298e-07 -2.141292e-03 -2.030337e-04)) ((-5.126208e-08 7.627813e-09 -6.274619e-11) (-7.788292e-05 5.458105e-09 -1.429826e-08))
0.249587      	((-4.950742e-06 -1.093486e-03 -1.775751e-02) (-9.057828e-07 -2.020253e-03 -2.158042e-04)) ((-4.425984e-08 9.178576e-09 1.171339e-09) (-7.360826e-05 4.879502e-09 -1.605088e-08))
0.311504      	((-3.139674e-06 -1.227890e-03 -1.745429e-02) (-8.194262e-07 -1.913508e-03 -2.315312e-04)) ((-3.496128e-08 9.307169e-09 1.533827e-09) (-6.968733e-05 3.755810e-09 -1.942692e-08))
0.385805      	((-2.817584e-06 -1.324768e-03 -1.722863e-02) (-7.897780e-07 -1.813344e-03 -2.522713e-04)) ((-2.424648e-08 9.540481e-09 1.561320e-09) (-6.593002e-05 3.039328e-09 -2.166441e-08))
0.474966      	((-2.448278e-06 -1.429743e-03 -1.705712e-02) (-7.618934e-07 -1.716698e-03 -2.775772e-04)) ((-1.430713e-08 9.529941e-09 2.230083e-09) (-6.226029e-05 2.459137e-09 -2.155225e-08))
0.581959      	((-1.515355e-06 -1.567261e-03 -1.689372e-02) (-6.339361e-07 -1.624668e-03 -3.063463e-04)) ((-3.737088e-09 9.099024e-09 3.111933e-09) (-5.872368e-05 1.585362e-09 -2.165035e-08))
0.710351      	((-3.631761e-07 -1.752394e-03 -1.672825e-02) (-4.838038e-07 -1.539339e-03 -3.375795e-04)) ((7.266294e-09 8.693597e-09 4.006516e-09) (-5.539452e-05 1.847959e-10 -2.315851e-08))
0.864421      	((3.236137e-07 -2.001034e-03 -1.655013e-02) (-3.462834e-07 -1.461864e-03 -3.697392e-04)) ((1.929605e-08 8.151714e-09 4.981233e-09) (-5.232985e-05 -8.290690e-10 -2.517807e-08))
1.04436       	((2.175216e-06 -2.319136e-03 -1.636418e-02) (-1.186520e-07 -1.394152e-03 -4.006287e-04)) ((3.197382e-08 7.059848e-09 6.301260e-09) (-4.963074e-05 -1.324977e-09 -2.907794e-08))
1.249961      	((3.874403e-06 -2.704111e-03 -1.616755e-02) (7.409322e-08 -1.336604e-03 -4.288566e-04)) ((4.463512e-08 5.629386e-09 7.819348e-09) (-4.733616e-05 -2.095403e-09 -3.526328e-08))
1.480994      	((5.398328e-06 -3.159046e-03 -1.596161e-02) (2.274952e-07 -1.288892e-03 -4.535472e-04)) ((5.568031e-08 4.170490e-09 9.437778e-09) (-4.543325e-05 -3.257260e-09 -4.342714e-08))
1.732728      	((7.101043e-06 -3.649293e-03 -1.571498e-02) (3.163880e-07 -1.250673e-03 -4.742139e-04)) ((6.451150e-08 2.765872e-09 1.106375e-08) (-4.386824e-05 -5.127072e-09 -5.358615e-08))
1.981483      	((8.042304e-06 -4.136589e-03 -1.542792e-02) (3.158527e-07 -1.220550e-03 -4.894814e-04)) ((7.123116e-08 1.371386e-09 1.243989e-08) (-4.259129e-05 -7.760902e-09 -6.066439e-08))
2.227256      	((8.752459e-06 -4.591784e-03 -1.510329e-02) (3.026152e-07 -1.194725e-03 -4.991654e-04)) ((7.724102e-08 -2.678305e-10 1.356533e-08) (-4.152127e-05 -9.982989e-09 -6.931432e-08))
2.470801      	((1.092820e-05 -4.977367e-03 -1.474352e-02) (2.888726e-07 -1.172573e-03 -5.035799e-04)) ((8.359572e-08 -1.769711e-09 1.459843e-08) (-4.065898e-05 -1.095768e-08 -7.662533e-08))
2.71342       	((1.288828e-05 -5.268264e-03 -1.436561e-02) (2.743156e-07 -1.154129e-03 -5.041441e-04)) ((8.993819e-08 -3.170333e-09 1.600715e-08) (-3.999408e-05 -1.125211e-08 -7.915667e-08))
2.956091      	((1.466327e-05 -5.468212e-03 -1.399100e-02) (2.476549e-07 -1.138239e-03 -5.030297e-04)) ((9.631865e-08 -4.272121e-09 1.736109e-08) (-3.945251e-05 -1.147850e-08 -7.832047e-08))
3.198904      	((1.609641e-05 -5.553780e-03 -1.362133e-02) (2.527540e-07 -1.123294e-03 -5.018438e-04)) ((1.021689e-07 -4.777561e-09 1.856559e-08) (-3.895709e-05 -1.163026e-08 -7.325710e-08))
3.441337      	((1.765322e-05 -5.510165e-03 -1.325953e-02) (3.184730e-07 -1.109098e-03 -5.003675e-04)) ((1.072532e-07 -4.784157e-09 1.947179e-08) (-3.851514e-05 -1.170169e-08 -6.724601e-08))
3.682834      	((2.089517e-05 -5.418002e-03 -1.290953e-02) (4.349046e-07 -1.095919e-03 -4.983725e-04)) ((1.110151e-07 -4.522838e-09 1.987103e-08) (-3.813807e-05 -1.234530e-08 -6.289781e-08))
3.923402      	((2.352488e-05 -5.327447e-03 -1.261001e-02) (5.885712e-07 -1.084073e-03 -4.961233e-04)) ((1.133085e-07 -4.168612e-09 1.974223e-08) (-3.782283e-05 -1.491681e-08 -5.749959e-08))
4.1633        	((2.509390e-05 -5.260608e-03 -1.234686e-02) (6.975981e-07 -1.074416e-03 -4.934839e-04)) ((1.135205e-07 -4.170158e-09 1.958961e-08) (-3.758430e-05 -1.880004e-08 -5.276406e-08))
4.402658      	((2.729341e-05 -5.222344e-03 -1.209348e-02) (7.535888e-07 -1.066927e-03 -4.903359e-04)) ((1.127142e-07 -4.388696e-09 1.968489e-08) (-3.741661e-05 -2.196304e-08 -4.931798e-08))
4.641407      	((3.153219e-05 -5.190067e-03 -1.184414e-02) (8.550944e-07 -1.060431e-03 -4.873351e-04)) ((1.109602e-07 -4.510396e-09 2.013549e-08) (-3.727005e-05 -2.594990e-08 -4.485101e-08))
4.879516      	((3.562637e-05 -5.151088e-03 -1.160070e-02) (9.979667e-07 -1.054217e-03 -4.848407e-04)) ((1.092765e-07 -4.449223e-09 2.072790e-08) (-3.711968e-05 -3.198503e-08 -4.015482e-08))
5.116993      	((4.032049e-05 -5.108183e-03 -1.137905e-02) (1.113008e-06 -1.048166e-03 -4.827797e-04)) ((1.081774e-07 -4.190774e-09 2.113256e-08) (-3.696620e-05 -3.868890e-08 -3.790619e-08))
5.35388       	((4.376765e-05 -5.046969e-03 -1.117060e-02) (1.234306e-06 -1.042135e-03 -4.810352e-04)) ((1.077536e-07 -3.758384e-09 2.129644e-08) (-3.680985e-05 -4.516673e-08 -3.728554e-08))
5.590243      	((4.795869e-05 -4.980299e-03 -1.098367e-02) (1.373189e-06 -1.036221e-03 -4.795542e-04)) ((1.076625e-07 -3.298534e-09 2.124274e-08) (-3.665679e-05 -5.144868e-08 -3.769076e-08))
5.82613       	((5.368406e-05 -4.923709e-03 -1.082550e-02) (1.546255e-06 -1.030723e-03 -4.782883e-04)) ((1.076240e-07 -2.891559e-09 2.106372e-08) (-3.651764e-05 -5.814366e-08 -3.791899e-08))
6.06156       	((6.158490e-05 -4.882084e-03 -1.068297e-02) (1.751029e-06 -1.025716e-03 -4.772664e-04)) ((1.074287e-07 -2.625386e-09 2.091834e-08) (-3.639146e-05 -6.579245e-08 -3.879830e-08))
6.29656       	((6.866576e-05 -4.850806e-03 -1.054322e-02) (1.948059e-06 -1.021043e-03 -4.765612e-04)) ((1.070151e-07 -2.421831e-09 2.087929e-08) (-3.626808e-05 -7.403766e-08 -4.272598e-08))
6.531169      	((7.788262e-05 -4.821543e-03 -1.040293e-02) (2.124457e-06 -1.016684e-03 -4.761165e-04)) ((1.064962e-07 -2.115638e-09 2.090580e-08) (-3.614635e-05 -8.330121e-08 -5.017689e-08))
6.765415      	((8.612010e-05 -4.795626e-03 -1.026103e-02) (2.317379e-06 -1.012688e-03 -4.757602e-04)) ((1.061360e-07 -1.788118e-09 2.097534e-08) (-3.603229e-05 -9.344166e-08 -5.825072e-08))
6.999318      	((9.498342e-05 -4.772874e-03 -1.012141e-02) (2.543329e-06 -1.009027e-03 -4.753305e-04)) ((1.061557e-07 -1.538808e-09 2.107978e-08) (-3.592958e-05 -1.036686e-07 -6.528142e-08))
7.232902      	((1.041908e-04 -4.752354e-03 -9.990286e-03) (2.786573e-06 -1.005523e-03 -4.749067e-04)) ((1.063471e-07 -1.332087e-09 2.117754e-08) (-3.583055e-05 -1.140431e-07 -7.181007e-08))
7.466203      	((1.138644e-04 -4.732613e-03 -9.865789e-03) (3.051808e-06 -1.002086e-03 -4.746039e-04)) ((1.066014e-07 -1.054481e-09 2.125601e-08) (-3.572965e-05 -1.249570e-07 -7.703718e-08))
7.699255      	((1.254681e-04 -4.709857e-03 -9.744634e-03) (3.359439e-06 -9.987524e-04 -4.744070e-04)) ((1.068934e-07 -6.869753e-10 2.130532e-08) (-3.562924e-05 -1.376912e-07 -8.092209e-08))
7.93208       	((1.371487e-04 -4.686064e-03 -9.629355e-03) (3.701615e-06 -9.955414e-04 -4.742445e-04)) ((1.071500e-07 -2.727765e-10 2.134548e-08) (-3.553244e-05 -1.527443e-07 -8.459408e-08))
8.164693      	((1.509526e-04 -4.663412e-03 -9.517360e-03) (4.061628e-06 -9.924759e-04 -4.740763e-04)) ((1.072621e-07 1.685798e-10 2.137633e-08) (-3.544040e-05 -1.705145e-07 -8.978451e-08))
8.397112      	((1.668312e-04 -4.643135e-03 -9.407292e-03) (4.463646e-06 -9.895929e-04 -4.738797e-04)) ((1.072007e-07 6.189537e-10 2.138002e-08) (-3.535367e-05 -1.913082e-07 -9.614319e-08))
8.629349      	((1.849109e-04 -4.627066e-03 -9.299398e-03) (4.920847e-06 -9.868947e-04 -4.736490e-04)) ((1.069691e-07 1.126761e-09 2.138683e-08) (-3.527214e-05 -2.150711e-07 -1.039072e-07))
8.861405      	((2.060484e-04 -4.611207e-03 -9.190737e-03) (5.455620e-06 -9.843199e-04 -4.734085e-04)) ((1.065800e-07 1.737178e-09 2.140949e-08) (-3.519408e-05 -2.423496e-07 -1.121571e-07))
9.093284      	((2.285855e-04 -4.599469e-03 -9.086477e-03) (6.079789e-06 -9.818564e-04 -4.731576e-04)) ((1.062514e-07 2.352092e-09 2.143653e-08) (-3.511993e-05 -2.729837e-07 -1.201714e-07))
9.324986      	((2.522399e-04 -4.588564e-03 -8.985311e-03) (6.775228e-06 -9.794991e-04 -4.728694e-04)) ((1.060115e-07 3.002958e-09 2.145269e-08) (-3.505075e-05 -3.063509e-07 -1.292039e-07))
9.556513      	((2.799364e-04 -4.575691e-03 -8.884646e-03) (7.533997e-06 -9.772035e-04 -4.725425e-04)) ((1.058280e-07 3.752992e-09 2.145482e-08) (-3.498582e-05 -3.427772e-07 -1.402634e-07))
9.787869      	((3.094612e-04 -4.563074e-03 -8.788452e-03) (8.369644e-06 -9.749704e-04 -4.721935e-04)) ((1.057367e-07 4.514326e-09 2.146497e-08) (-3.492509e-05 -3.825846e-07 -1.527277e-07))
10.019056     	((3.416113e-04 -4.549023e-03 -8.695166e-03) (9.292283e-06 -9.727979e-04 -4.718475e-04)) ((1.056374e-07 5.280742e-09 2.147667e-08) (-3.486778e-05 -4.258798e-07 -1.663163e-07))
10.250084     	((3.792015e-04 -4.536215e-03 -8.603758e-03) (1.032769e-05 -9.707140e-04 -4.715044e-04)) ((1.056014e-07 6.068473e-09 2.149370e-08) (-3.481397e-05 -4.735984e-07 -1.801708e-07))
10.480957     	((4.206944e-04 -4.523231e-03 -8.514397e-03) (1.150159e-05 -9.687405e-04 -4.711592e-04)) ((1.054833e-07 6.939007e-09 2.151556e-08) (-3.476381e-05 -5.264236e-07 -1.941889e-07))
10.711683     	((4.664293e-04 -4.511272e-03 -8.427327e-03) (1.281986e-05 -9.668713e-04 -4.708210e-04)) ((1.052902e-07 7.902109e-09 2.156339e-08) (-3.471661e-05 -5.847209e-07 -2.089541e-07))
10.94227      	((5.179014e-04 -4.499425e-03 -8.340485e-03) (1.430339e-05 -9.650801e-04 -4.705053e-04)) ((1.050118e-07 8.988586e-09 2.161678e-08) (-3.467144e-05 -6.494986e-07 -2.251403e-07))
11.172722     	((5.741377e-04 -4.489107e-03 -8.255163e-03) (1.595140e-05 -9.633340e-04 -4.702042e-04)) ((1.047673e-07 1.013831e-08 2.167788e-08) (-3.462790e-05 -7.214141e-07 -2.442027e-07))
11.403046     	((6.349589e-04 -4.482048e-03 -8.173935e-03) (1.774079e-05 -9.616582e-04 -4.698957e-04)) ((1.045797e-07 1.130413e-08 2.173564e-08) (-3.458688e-05 -8.000113e-07 -2.666823e-07))
11.633249     	((7.026600e-04 -4.471321e-03 -8.092464e-03) (1.971227e-05 -9.600549e-04 -4.695834e-04)) ((1.043751e-07 1.253146e-08 2.175378e-08) (-3.454794e-05 -8.851909e-07 -2.909496e-07))
11.863337     	((7.761295e-04 -4.462354e-03 -8.012355e-03) (2.189254e-05 -9.585292e-04 -4.692514e-04)) ((1.042802e-07 1.388858e-08 2.173130e-08) (-3.451163e-05 -9.781582e-07 -3.161435e-07))
12.093318     	((8.576565e-04 -4.452187e-03 -7.931049e-03) (2.429185e-05 -9.570521e-04 -4.688907e-04)) ((1.041479e-07 1.544984e-08 2.169864e-08) (-3.447772e-05 -1.081065e-06 -3.437344e-07))
12.3232       	((9.463845e-04 -4.446298e-03 -7.853398e-03) (2.691639e-05 -9.556164e-04 -4.684891e-04)) ((1.041487e-07 1.708507e-08 2.165990e-08) (-3.444660e-05 -1.195477e-06 -3.757769e-07))
12.55299      	((1.043824e-03 -4.442604e-03 -7.778006e-03) (2.979057e-05 -9.542051e-04 -4.680532e-04)) ((1.041823e-07 1.882044e-08 2.159935e-08) (-3.441824e-05 -1.322251e-06 -4.138204e-07))
12.782697     	((1.151499e-03 -4.442772e-03 -7.705318e-03) (3.295313e-05 -9.528398e-04 -4.675891e-04)) ((1.042939e-07 2.067209e-08 2.152637e-08) (-3.439314e-05 -1.462551e-06 -4.575776e-07))
13.012328     	((1.268758e-03 -4.447190e-03 -7.637421e-03) (3.640898e-05 -9.515764e-04 -4.670897e-04)) ((1.045006e-07 2.263172e-08 2.143912e-08) (-3.437309e-05 -1.617217e-06 -5.065873e-07))
13.241889     	((1.396768e-03 -4.455024e-03 -7.572468e-03) (4.020024e-05 -9.504442e-04 -4.665621e-04)) ((1.047830e-07 2.472570e-08 2.133499e-08) (-3.435894e-05 -1.787558e-06 -5.598408e-07))
13.471388     	((1.538637e-03 -4.469883e-03 -7.513466e-03) (4.441596e-05 -9.495062e-04 -4.659942e-04)) ((1.051880e-07 2.700682e-08 2.121345e-08) (-3.435303e-05 -1.975886e-06 -6.153640e-07))
13.700833     	((1.691864e-03 -4.489507e-03 -7.459214e-03) (4.910926e-05 -9.487974e-04 -4.653744e-04)) ((1.055728e-07 2.943083e-08 2.107278e-08) (-3.435718e-05 -2.183248e-06 -6.724099e-07))
13.930231     	((1.861256e-03 -4.514264e-03 -7.407007e-03) (5.431817e-05 -9.483225e-04 -4.647186e-04)) ((1.059419e-07 3.208249e-08 2.091717e-08) (-3.437059e-05 -2.410724e-06 -7.321356e-07))
14.15959      	((2.044168e-03 -4.543665e-03 -7.359547e-03) (6.008277e-05 -9.481379e-04 -4.640370e-04)) ((1.061715e-07 3.493705e-08 2.073992e-08) (-3.439346e-05 -2.658793e-06 -7.944040e-07))
14.388873     	((2.243279e-03 -4.582184e-03 -7.319809e-03) (6.644660e-05 -9.483238e-04 -4.632986e-04)) ((1.064248e-07 3.804072e-08 2.056340e-08) (-3.442902e-05 -2.929270e-06 -8.583488e-07))
14.618067     	((2.456068e-03 -4.627247e-03 -7.287050e-03) (7.341981e-05 -9.489271e-04 -4.624859e-04)) ((1.065780e-07 4.134308e-08 2.035975e-08) (-3.447934e-05 -3.224055e-06 -9.244003e-07))
14.847184     	((2.681803e-03 -4.679621e-03 -7.260688e-03) (8.100040e-05 -9.499362e-04 -4.615823e-04)) ((1.066168e-07 4.480605e-08 2.011455e-08) (-3.454519e-05 -3.542656e-06 -9.931982e-07))
15.07615      	((2.921112e-03 -4.744636e-03 -7.246647e-03) (8.920004e-05 -9.514025e-04 -4.605573e-04)) ((1.066913e-07 4.846359e-08 1.987686e-08) (-3.462965e-05 -3.885295e-06 -1.064485e-06))
15.304783     	((3.174819e-03 -4.816886e-03 -7.238545e-03) (9.802333e-05 -9.534414e-04 -4.594260e-04)) ((1.067118e-07 5.233349e-08 1.959391e-08) (-3.473440e-05 -4.253275e-06 -1.138712e-06))
15.533082     	((3.442085e-03 -4.905694e-03 -7.246657e-03) (1.074310e-04 -9.561605e-04 -4.581533e-04)) ((1.069278e-07 5.630276e-08 1.923485e-08) (-3.486393e-05 -4.647249e-06 -1.217722e-06))
15.761034     	((3.725706e-03 -5.008527e-03 -7.262478e-03) (1.174362e-04 -9.595381e-04 -4.566896e-04)) ((1.072661e-07 6.033178e-08 1.883493e-08) (-3.502226e-05 -5.067759e-06 -1.302811e-06))
15.988629     	((4.025078e-03 -5.131107e-03 -7.290191e-03) (1.281165e-04 -9.636103e-04 -4.550475e-04)) ((1.078559e-07 6.438035e-08 1.839721e-08) (-3.521265e-05 -5.515647e-06 -1.392177e-06))
16.215871     	((4.336775e-03 -5.274832e-03 -7.332135e-03) (1.394717e-04 -9.684318e-04 -4.532543e-04)) ((1.087607e-07 6.835976e-08 1.793575e-08) (-3.543755e-05 -5.988961e-06 -1.486796e-06))
16.442769     	((4.658875e-03 -5.437795e-03 -7.381247e-03) (1.515189e-04 -9.741002e-04 -4.513481e-04)) ((1.099500e-07 7.225154e-08 1.749361e-08) (-3.569838e-05 -6.486540e-06 -1.585015e-06))
16.66937      	((4.984892e-03 -5.626709e-03 -7.447544e-03) (1.642545e-04 -9.807589e-04 -4.493515e-04)) ((1.115792e-07 7.587530e-08 1.707771e-08) (-3.599786e-05 -7.004982e-06 -1.682003e-06))
16.895674     	((5.309037e-03 -5.841353e-03 -7.532476e-03) (1.776100e-04 -9.885064e-04 -4.472387e-04)) ((1.136262e-07 7.929034e-08 1.668062e-08) (-3.633863e-05 -7.538835e-06 -1.773143e-06))
17.121679     	((5.619978e-03 -6.078337e-03 -7.638490e-03) (1.914513e-04 -9.974332e-04 -4.449870e-04)) ((1.163489e-07 8.240006e-08 1.635497e-08) (-3.672240e-05 -8.083192e-06 -1.853555e-06))
17.347464     	((5.916458e-03 -6.332897e-03 -7.759977e-03) (2.056399e-04 -1.007587e-03 -4.425671e-04)) ((1.194894e-07 8.515815e-08 1.608820e-08) (-3.715008e-05 -8.633396e-06 -1.920375e-06))
17.573162     	((6.185745e-03 -6.597747e-03 -7.897684e-03) (2.199457e-04 -1.018994e-03 -4.399527e-04)) ((1.229210e-07 8.746484e-08 1.589145e-08) (-3.762094e-05 -9.183760e-06 -1.974444e-06))
17.798836     	((6.412329e-03 -6.862954e-03 -8.041154e-03) (2.340410e-04 -1.031530e-03 -4.371063e-04)) ((1.265129e-07 8.920755e-08 1.581320e-08) (-3.813038e-05 -9.724405e-06 -2.012558e-06))
18.024514     	((6.579065e-03 -7.122114e-03 -8.195566e-03) (2.475239e-04 -1.044872e-03 -4.339820e-04)) ((1.301505e-07 8.987030e-08 1.579118e-08) (-3.866923e-05 -1.023852e-05 -2.030919e-06))
18.250226     	((6.662216e-03 -7.364249e-03 -8.372478e-03) (2.597804e-04 -1.058590e-03 -4.305070e-04)) ((1.338309e-07 8.887042e-08 1.577181e-08) (-3.922618e-05 -1.070091e-05 -2.032812e-06))
18.476077     	((6.663399e-03 -7.558728e-03 -8.542445e-03) (2.703752e-04 -1.072057e-03 -4.267759e-04)) ((1.367967e-07 8.668559e-08 1.582625e-08) (-3.978125e-05 -1.109234e-05 -2.012861e-06))
18.702256     	((6.567682e-03 -7.691150e-03 -8.701399e-03) (2.788438e-04 -1.084582e-03 -4.230989e-04)) ((1.387704e-07 8.339415e-08 1.589060e-08) (-4.030456e-05 -1.139787e-05 -1.965652e-06))
18.928951     	((6.350533e-03 -7.754824e-03 -8.858865e-03) (2.844660e-04 -1.095770e-03 -4.196444e-04)) ((1.398284e-07 7.819667e-08 1.585298e-08) (-4.077361e-05 -1.159163e-05 -1.888920e-06))
19.156281     	((5.987693e-03 -7.734139e-03 -9.007469e-03) (2.865197e-04 -1.105160e-03 -4.164564e-04)) ((1.397674e-07 7.083419e-08 1.585306e-08) (-4.116827e-05 -1.164100e-05 -1.771301e-06))
19.384328     	((5.471032e-03 -7.616304e-03 -9.158821e-03) (2.840281e-04 -1.112217e-03 -4.134662e-04)) ((1.386420e-07 6.135950e-08 1.577225e-08) (-4.147255e-05 -1.150124e-05 -1.616259e-06))
19.613212     	((4.812067e-03 -7.387664e-03 -9.288850e-03) (2.759545e-04 -1.116319e-03 -4.107375e-04)) ((1.361187e-07 5.082528e-08 1.539920e-08) (-4.166838e-05 -1.114282e-05 -1.444815e-06))
19.843073     	((3.999214e-03 -7.079076e-03 -9.437306e-03) (2.613672e-04 -1.117043e-03 -4.086852e-04)) ((1.326334e-07 3.875045e-08 1.486314e-08) (-4.173406e-05 -1.054983e-05 -1.276617e-06))
20.074128     	((3.060667e-03 -6.721257e-03 -9.605099e-03) (2.398166e-04 -1.114762e-03 -4.078864e-04)) ((1.283606e-07 2.531194e-08 1.463332e-08) (-4.166367e-05 -9.722515e-06 -1.120928e-06))
20.305531     	((2.031197e-03 -6.373649e-03 -9.823174e-03) (2.119213e-04 -1.110484e-03 -4.088955e-04)) ((1.240924e-07 1.026019e-08 1.463418e-08) (-4.147460e-05 -8.699706e-06 -9.718087e-07))
20.537324     	((9.687411e-04 -6.097974e-03 -1.009203e-02) (1.791358e-04 -1.105439e-03 -4.118066e-04)) ((1.206158e-07 -5.507434e-09 1.433178e-08) (-4.119297e-05 -7.519779e-06 -8.075223e-07))
20.769612     	((-4.370033e-05 -5.931098e-03 -1.041292e-02) (1.430390e-04 -1.100733e-03 -4.162450e-04)) ((1.183440e-07 -1.989821e-08 1.383146e-08) (-4.086187e-05 -6.233830e-06 -6.314911e-07))
21.002263     	((-9.507340e-04 -5.849881e-03 -1.074518e-02) (1.057196e-04 -1.097513e-03 -4.216840e-04)) ((1.172599e-07 -3.240038e-08 1.320825e-08) (-4.053139e-05 -4.899521e-06 -4.380897e-07))
21.235176     	((-1.718709e-03 -5.860650e-03 -1.107851e-02) (6.968783e-05 -1.096896e-03 -4.270112e-04)) ((1.192966e-07 -4.375653e-08 1.275388e-08) (-4.025833e-05 -3.570212e-06 -1.984246e-07))
21.468316     	((-2.338400e-03 -5.915797e-03 -1.136535e-02) (3.603207e-05 -1.098790e-03 -4.311649e-04)) ((1.215316e-07 -5.219868e-08 1.388671e-08) (-4.007371e-05 -2.292092e-06 6.280928e-08))
21.701604     	((-2.795175e-03 -5.990750e-03 -1.159475e-02) (6.194316e-06 -1.102913e-03 -4.333308e-04)) ((1.234345e-07 -5.785857e-08 1.706457e-08) (-4.000200e-05 -1.111718e-06 3.507643e-07))
21.934979     	((-3.133926e-03 -6.054890e-03 -1.174639e-02) (-1.892234e-05 -1.108684e-03 -4.329030e-04)) ((1.245131e-07 -6.097164e-08 2.015234e-08) (-4.004606e-05 -6.050707e-08 6.735666e-07))
22.168444     	((-3.369743e-03 -6.108645e-03 -1.183199e-02) (-3.965376e-05 -1.114997e-03 -4.299294e-04)) ((1.266312e-07 -6.309805e-08 2.199392e-08) (-4.017930e-05 8.503295e-07 9.941050e-07))
22.40201      	((-3.523122e-03 -6.125805e-03 -1.185236e-02) (-5.652503e-05 -1.120804e-03 -4.248790e-04)) ((1.290550e-07 -6.416795e-08 2.271419e-08) (-4.036728e-05 1.619872e-06 1.282396e-06))
22.635663     	((-3.610230e-03 -6.139046e-03 -1.184373e-02) (-7.020693e-05 -1.125517e-03 -4.180954e-04)) ((1.332720e-07 -6.451570e-08 2.289426e-08) (-4.059394e-05 2.265315e-06 1.514754e-06))
