# Forces      
# CofR        : (0.000000e+00 0.000000e+00 0.000000e+00)
# Time        forces(pressure viscous)	moments(pressure viscous)
0             	((0.000000e+00 0.000000e+00 0.000000e+00) (-4.013827e-15 -7.912411e-06 7.155940e-16)) ((0.000000e+00 0.000000e+00 0.000000e+00) (-1.777836e-07 -2.182532e-17 3.789295e-12))
0.012         	((2.414867e-09 -2.300970e-03 5.193496e-04) (1.313405e-11 -9.080348e-06 -2.262899e-09)) ((2.713779e-08 1.769656e-09 4.338514e-10) (-2.620226e-07 -1.044722e-14 7.852433e-12))
0.0264        	((-3.696611e-08 1.583865e-04 -3.241355e-05) (-8.760049e-12 -9.265753e-06 -3.416079e-09)) ((-1.899904e-09 -1.113987e-10 -2.858033e-11) (-2.933890e-07 1.621456e-12 1.034320e-11))
0.04368       	((1.774090e-08 4.818547e-04 -3.740700e-05) (-6.000223e-12 -8.235392e-06 -2.317016e-09)) ((-6.271424e-09 -1.301020e-10 -1.170194e-10) (-2.613790e-07 2.656382e-12 8.800375e-12))
0.064416      	((9.889840e-09 4.528447e-06 -1.874130e-05) (-1.432016e-10 -7.294957e-06 -1.011183e-09)) ((3.074324e-11 -6.281677e-11 5.603567e-12) (-2.346247e-07 1.498208e-12 1.035746e-11))
0.0892992     	((-6.015561e-09 -6.529518e-06 -1.151636e-05) (-2.517469e-10 -6.735297e-06 -7.116060e-10)) ((2.582493e-10 -3.751009e-11 6.702636e-12) (-2.217849e-07 3.489468e-13 1.123076e-11))
0.119159      	((-2.908758e-09 7.185941e-06 -6.955115e-06) (-2.286604e-10 -6.219515e-06 -1.169879e-09)) ((-1.357196e-10 -2.338878e-11 -1.321750e-12) (-2.075149e-07 6.887460e-13 9.861400e-12))
0.154991      	((3.757737e-09 3.884206e-06 -4.368916e-06) (-1.905135e-10 -5.672342e-06 -1.780655e-09)) ((-8.283032e-11 -1.400653e-11 -1.265748e-13) (-1.916238e-07 6.654211e-13 8.888664e-12))
0.197989      	((1.281644e-09 9.427421e-07 -2.690059e-06) (-1.167058e-10 -5.119786e-06 -2.095222e-09)) ((-2.921066e-11 -8.357808e-12 -1.362428e-13) (-1.754453e-07 1.948701e-13 6.068633e-12))
0.249587      	((-7.572729e-11 -1.248203e-07 -1.679983e-06) (-5.764617e-11 -4.577397e-06 -2.340293e-09)) ((-7.781400e-12 -5.235920e-12 4.287679e-13) (-1.592597e-07 -3.615956e-13 3.899347e-12))
0.311504      	((-1.140979e-10 -6.132664e-07 -1.010451e-06) (-1.537589e-11 -4.061350e-06 -2.595548e-09)) ((-1.179872e-12 -2.969309e-12 5.581781e-13) (-1.433786e-07 -1.196676e-12 2.097036e-12))
0.385805      	((-3.599736e-11 -8.473153e-07 -6.112781e-07) (1.821204e-11 -3.584697e-06 -2.810997e-09)) ((7.714500e-13 -1.589242e-12 4.809945e-13) (-1.281906e-07 -1.840399e-12 8.088152e-14))
0.474966      	((-6.714033e-11 -9.568319e-07 -3.431458e-07) (3.396928e-11 -3.157102e-06 -3.006959e-09)) ((2.620563e-12 -6.687188e-13 4.080267e-13) (-1.141209e-07 -2.211664e-12 -3.683942e-13))
0.581959      	((-7.498865e-11 -1.000344e-06 -1.877623e-07) (4.056974e-11 -2.782785e-06 -3.217456e-09)) ((4.234261e-12 -1.416170e-13 3.591772e-13) (-1.014349e-07 -2.158975e-12 1.467432e-12))
0.710351      	((-3.324546e-11 -9.962474e-07 -8.600919e-08) (5.255465e-11 -2.461957e-06 -3.432837e-09)) ((5.335784e-12 2.001078e-13 2.948355e-13) (-9.028325e-08 -1.887151e-12 3.347375e-12))
0.864421      	((1.846029e-11 -9.601883e-07 -3.130162e-08) (7.448759e-11 -2.190514e-06 -3.615761e-09)) ((5.785510e-12 3.769597e-13 2.893475e-13) (-8.066823e-08 -1.531996e-12 3.369254e-12))
1.049306      	((8.492873e-12 -9.073672e-07 3.169352e-09) (8.707725e-11 -1.961510e-06 -3.779359e-09)) ((5.706107e-12 4.757485e-13 2.804295e-13) (-7.244549e-08 -1.231736e-12 2.206279e-12))
1.271167      	((3.658273e-11 -8.487095e-07 1.873278e-08) (8.277073e-11 -1.767783e-06 -3.937374e-09)) ((5.381189e-12 5.185249e-13 2.586882e-13) (-6.539690e-08 -9.927286e-13 8.005378e-13))
1.5374        	((5.924094e-11 -7.888062e-07 2.658119e-08) (7.010106e-11 -1.601716e-06 -4.120239e-09)) ((5.007404e-12 5.439557e-13 2.583251e-13) (-5.928830e-08 -7.679131e-13 -1.825469e-13))
1.85688       	((6.002939e-11 -7.303620e-07 2.630704e-08) (5.868082e-11 -1.456352e-06 -4.350918e-09)) ((4.586038e-12 5.347608e-13 2.618332e-13) (-5.391564e-08 -5.686280e-13 -5.701031e-13))
2.240256      	((2.440185e-11 -6.749366e-07 2.319098e-08) (4.475229e-11 -1.327138e-06 -4.624498e-09)) ((4.221008e-12 5.175662e-13 2.620902e-13) (-4.913130e-08 -3.202762e-13 -3.899599e-13))
2.700307      	((1.254985e-11 -6.232432e-07 1.688226e-08) (3.863096e-11 -1.211261e-06 -4.927757e-09)) ((3.917270e-12 4.871418e-13 2.595619e-13) (-4.483711e-08 6.097248e-15 5.013930e-13))
3.252369      	((-8.227565e-12 -5.750181e-07 1.015273e-08) (3.583155e-11 -1.106835e-06 -5.250150e-09)) ((3.613024e-12 4.559558e-13 2.411117e-13) (-4.096633e-08 3.063515e-13 1.983990e-12))
3.914842      	((-1.158100e-11 -5.296475e-07 2.653852e-09) (2.954742e-11 -1.012489e-06 -5.600786e-09)) ((3.301021e-12 4.215674e-13 2.197897e-13) (-3.746926e-08 4.918261e-13 3.487160e-12))
4.709811      	((-4.759332e-12 -4.874761e-07 -4.473001e-09) (1.950123e-11 -9.272441e-07 -5.982070e-09)) ((3.011284e-12 3.922477e-13 1.970345e-13) (-3.430900e-08 4.981291e-13 4.349544e-12))
5.663773      	((3.155111e-11 -4.485278e-07 -1.140202e-08) (1.280397e-11 -8.503690e-07 -6.385250e-09)) ((2.757288e-12 3.622315e-13 1.777994e-13) (-3.145877e-08 3.426680e-13 4.509296e-12))
6.808528      	((7.345957e-11 -4.127559e-07 -1.752808e-08) (1.338151e-11 -7.812381e-07 -6.805197e-09)) ((2.536893e-12 3.329513e-13 1.571510e-13) (-2.889566e-08 4.942216e-14 4.332246e-12))
8.182233      	((7.527910e-11 -3.800378e-07 -2.329119e-08) (1.617586e-11 -7.191918e-07 -7.239203e-09)) ((2.343037e-12 3.068693e-13 1.367060e-13) (-2.659561e-08 -1.907207e-13 4.224677e-12))
9.83068       	((5.786395e-11 -3.503570e-07 -2.838500e-08) (1.519443e-11 -6.634707e-07 -7.703931e-09)) ((2.170676e-12 2.839466e-13 1.190590e-13) (-2.453058e-08 -2.456197e-13 4.145008e-12))
11.808816     	((5.430446e-11 -3.232089e-07 -3.303878e-08) (1.158843e-11 -6.132608e-07 -8.206595e-09)) ((2.012106e-12 2.630511e-13 1.042574e-13) (-2.267015e-08 -1.663738e-13 3.649725e-12))
14.182579     	((6.469911e-11 -2.983992e-07 -3.713497e-08) (1.174208e-11 -5.678176e-07 -8.752318e-09)) ((1.864004e-12 2.441284e-13 9.135979e-14) (-2.098618e-08 -1.115798e-13 2.898169e-12))
17.031095     	((3.333657e-11 -2.757955e-07 -4.093828e-08) (1.215533e-11 -5.265323e-07 -9.348784e-09)) ((1.730062e-12 2.229868e-13 7.994747e-14) (-1.945579e-08 -4.522030e-14 2.209836e-12))
20.449314     	((-1.718255e-11 -2.551886e-07 -4.420858e-08) (9.932678e-12 -4.889327e-07 -9.992856e-09)) ((1.609816e-12 2.031187e-13 7.085557e-14) (-1.806166e-08 1.767426e-13 1.600206e-12))
24.551176     	((-4.110057e-11 -2.364348e-07 -4.715908e-08) (6.040542e-12 -4.546824e-07 -1.068046e-08)) ((1.501518e-12 1.844288e-13 6.467197e-14) (-1.679112e-08 3.972821e-13 1.067380e-12))
29.473411     	((-4.268978e-11 -2.194417e-07 -4.953621e-08) (1.945839e-12 -4.235239e-07 -1.140231e-08)) ((1.405637e-12 1.682970e-13 5.966236e-14) (-1.563490e-08 5.646355e-13 6.393160e-13))
35.380094     	((-4.656168e-11 -2.040277e-07 -5.167309e-08) (8.902690e-15 -3.952319e-07 -1.215519e-08)) ((1.320638e-12 1.542083e-13 5.543152e-14) (-1.458506e-08 6.935012e-13 1.607914e-13))
42.468112     	((-5.577608e-11 -1.901538e-07 -5.335390e-08) (-2.628407e-12 -3.695793e-07 -1.293341e-08)) ((1.246751e-12 1.418615e-13 5.161005e-14) (-1.363351e-08 7.977936e-13 -4.826925e-13))
50.973735     	((-6.516230e-11 -1.777135e-07 -5.478899e-08) (-2.761535e-12 -3.463454e-07 -1.373179e-08)) ((1.182364e-12 1.300748e-13 4.883948e-14) (-1.277188e-08 8.816504e-13 -1.376310e-12))
61.180482     	((-5.150267e-11 -1.665809e-07 -5.581609e-08) (-1.121957e-12 -3.253136e-07 -1.454365e-08)) ((1.126191e-12 1.219878e-13 4.627940e-14) (-1.199199e-08 9.072634e-13 -2.574380e-12))
73.428578     	((-3.473297e-11 -1.566507e-07 -5.663262e-08) (2.043938e-12 -3.062676e-07 -1.537188e-08)) ((1.078869e-12 1.153021e-13 4.431361e-14) (-1.128583e-08 8.305140e-13 -3.954125e-12))
88.126294     	((-1.701054e-11 -1.478779e-07 -5.716603e-08) (7.465429e-12 -2.890111e-07 -1.621753e-08)) ((1.040286e-12 1.096358e-13 4.278676e-14) (-1.064609e-08 6.636023e-13 -5.474058e-12))
105.763553    	((4.161962e-13 -1.401635e-07 -5.757581e-08) (1.303132e-11 -2.733767e-07 -1.708235e-08)) ((1.009023e-12 1.049999e-13 4.177798e-14) (-1.006656e-08 4.705732e-13 -7.083875e-12))
126.928263    	((2.017665e-11 -1.334861e-07 -5.769647e-08) (1.660020e-11 -2.592307e-07 -1.796616e-08)) ((9.846674e-13 1.018797e-13 4.117538e-14) (-9.542388e-09 2.443251e-13 -8.684970e-12))
152.325916    	((3.741740e-11 -1.277713e-07 -5.766910e-08) (1.949840e-11 -2.464654e-07 -1.886719e-08)) ((9.678589e-13 9.916334e-14 4.071500e-14) (-9.069709e-09 -1.935871e-14 -1.014296e-11))
182.803099    	((4.945435e-11 -1.229516e-07 -5.746912e-08) (2.188785e-11 -2.349916e-07 -1.978321e-08)) ((9.578613e-13 9.723560e-14 4.058912e-14) (-8.645372e-09 -2.620954e-13 -1.142592e-11))
219.375719    	((6.404617e-11 -1.189232e-07 -5.711809e-08) (2.447877e-11 -2.247269e-07 -2.071435e-08)) ((9.543541e-13 9.592766e-14 4.109782e-14) (-8.266567e-09 -5.211817e-13 -1.254795e-11))
263.262863    	((7.549326e-11 -1.156447e-07 -5.661001e-08) (2.741416e-11 -2.156004e-07 -2.165912e-08)) ((9.571843e-13 9.593986e-14 4.205309e-14) (-7.930839e-09 -7.763399e-13 -1.346723e-11))
315.927436    	((8.168017e-11 -1.130908e-07 -5.595865e-08) (3.037420e-11 -2.075521e-07 -2.261516e-08)) ((9.657283e-13 9.681872e-14 4.335723e-14) (-7.636050e-09 -1.013873e-12 -1.417827e-11))
379.124923    	((8.960128e-11 -1.111987e-07 -5.518094e-08) (3.255957e-11 -2.005270e-07 -2.357620e-08)) ((9.783382e-13 9.843506e-14 4.498238e-14) (-7.380132e-09 -1.251193e-12 -1.467202e-11))
454.961908    	((9.675247e-11 -1.098790e-07 -5.426788e-08) (3.409382e-11 -1.944670e-07 -2.453066e-08)) ((9.928811e-13 1.011795e-13 4.663952e-14) (-7.160645e-09 -1.509771e-12 -1.494519e-11))
545.966289    	((1.034034e-10 -1.090092e-07 -5.321825e-08) (3.568727e-11 -1.893038e-07 -2.545699e-08)) ((1.007277e-12 1.047373e-13 4.816144e-14) (-6.974619e-09 -1.759496e-12 -1.500113e-11))
655.171547    	((1.077772e-10 -1.084695e-07 -5.205418e-08) (3.747152e-11 -1.849559e-07 -2.633048e-08)) ((1.020417e-12 1.089365e-13 4.931966e-14) (-6.818603e-09 -2.014766e-12 -1.485176e-11))
786.217856    	((1.102262e-10 -1.081328e-07 -5.081130e-08) (3.971393e-11 -1.813288e-07 -2.712828e-08)) ((1.031215e-12 1.133354e-13 5.010318e-14) (-6.688809e-09 -2.271033e-12 -1.455026e-11))
939.349187    	((1.119895e-10 -1.079224e-07 -4.954678e-08) (4.247997e-11 -1.783313e-07 -2.783215e-08)) ((1.039371e-12 1.175466e-13 5.052308e-14) (-6.581764e-09 -2.510611e-12 -1.413508e-11))
1114.586052   	((1.112745e-10 -1.077486e-07 -4.833155e-08) (4.538301e-11 -1.758596e-07 -2.843888e-08)) ((1.044616e-12 1.212507e-13 5.072294e-14) (-6.493710e-09 -2.699745e-12 -1.363068e-11))
1311.951222   	((1.091122e-10 -1.075951e-07 -4.718521e-08) (4.822364e-11 -1.738253e-07 -2.895293e-08)) ((1.047542e-12 1.247379e-13 5.078183e-14) (-6.421528e-09 -2.839239e-12 -1.306815e-11))
1531.468279   	((1.062664e-10 -1.074547e-07 -4.613944e-08) (5.118785e-11 -1.721493e-07 -2.938567e-08)) ((1.048544e-12 1.280322e-13 5.073535e-14) (-6.362425e-09 -2.943401e-12 -1.247460e-11))
1753.212917   	((1.021461e-10 -1.073557e-07 -4.521649e-08) (5.387908e-11 -1.707785e-07 -2.974699e-08)) ((1.048415e-12 1.309203e-13 5.063727e-14) (-6.314505e-09 -3.007837e-12 -1.186612e-11))
1975.160645   	((9.724128e-11 -1.072576e-07 -4.443178e-08) (5.604493e-11 -1.696502e-07 -3.005051e-08)) ((1.047233e-12 1.333985e-13 5.053174e-14) (-6.275492e-09 -3.027825e-12 -1.124978e-11))
2197.288159   	((9.173853e-11 -1.071782e-07 -4.375626e-08) (5.772764e-11 -1.687242e-07 -3.030527e-08)) ((1.045800e-12 1.355555e-13 5.043315e-14) (-6.243889e-09 -3.006471e-12 -1.063339e-11))
2419.572264   	((8.577393e-11 -1.071056e-07 -4.319190e-08) (5.892347e-11 -1.679606e-07 -3.052067e-08)) ((1.044157e-12 1.374036e-13 5.036577e-14) (-6.218179e-09 -2.951919e-12 -1.002615e-11))
2641.992511   	((7.976952e-11 -1.070459e-07 -4.271001e-08) (5.956832e-11 -1.673309e-07 -3.070309e-08)) ((1.042520e-12 1.389954e-13 5.033039e-14) (-6.197279e-09 -2.871424e-12 -9.442390e-12))
2864.530267   	((7.381831e-11 -1.069936e-07 -4.231154e-08) (5.975419e-11 -1.668095e-07 -3.085828e-08)) ((1.040946e-12 1.402936e-13 5.031121e-14) (-6.180216e-09 -2.768628e-12 -8.886189e-12))
3087.169299   	((6.775548e-11 -1.069499e-07 -4.197083e-08) (5.959940e-11 -1.663775e-07 -3.099034e-08)) ((1.039469e-12 1.413976e-13 5.029342e-14) (-6.166276e-09 -2.648011e-12 -8.358882e-12))
3309.895272   	((6.188860e-11 -1.069119e-07 -4.169346e-08) (5.919547e-11 -1.660184e-07 -3.110304e-08)) ((1.038131e-12 1.422859e-13 5.028323e-14) (-6.154840e-09 -2.514455e-12 -7.859471e-12))
3532.695759   	((5.626183e-11 -1.068798e-07 -4.144420e-08) (5.862252e-11 -1.657195e-07 -3.119927e-08)) ((1.036953e-12 1.430791e-13 5.028441e-14) (-6.145442e-09 -2.373987e-12 -7.388281e-12))
3755.559979   	((5.094583e-11 -1.068524e-07 -4.124255e-08) (5.787653e-11 -1.654702e-07 -3.128156e-08)) ((1.035885e-12 1.437162e-13 5.029699e-14) (-6.137692e-09 -2.231299e-12 -6.949812e-12))
3978.478686   	((4.584533e-11 -1.068293e-07 -4.106688e-08) (5.697992e-11 -1.652618e-07 -3.135193e-08)) ((1.034941e-12 1.442502e-13 5.031040e-14) (-6.131288e-09 -2.088299e-12 -6.543415e-12))
4201.443961   	((4.105862e-11 -1.068096e-07 -4.092496e-08) (5.598445e-11 -1.650873e-07 -3.141209e-08)) ((1.034120e-12 1.446672e-13 5.032224e-14) (-6.125980e-09 -1.947531e-12 -6.168696e-12))
4424.449038   	((3.659385e-11 -1.067931e-07 -4.079542e-08) (5.495869e-11 -1.649411e-07 -3.146348e-08)) ((1.033407e-12 1.450540e-13 5.033075e-14) (-6.121574e-09 -1.809958e-12 -5.821945e-12))
4647.488103   	((3.247325e-11 -1.067791e-07 -4.069353e-08) (5.390921e-11 -1.648183e-07 -3.150736e-08)) ((1.032789e-12 1.453528e-13 5.033846e-14) (-6.117908e-09 -1.677477e-12 -5.504113e-12))
4870.556224   	((2.866137e-11 -1.067670e-07 -4.060029e-08) (5.282516e-11 -1.647152e-07 -3.154481e-08)) ((1.032253e-12 1.456295e-13 5.034546e-14) (-6.114852e-09 -1.551139e-12 -5.215783e-12))
5093.649182   	((2.518675e-11 -1.067569e-07 -4.052510e-08) (5.172408e-11 -1.646284e-07 -3.157678e-08)) ((1.031796e-12 1.458470e-13 5.035244e-14) (-6.112300e-09 -1.431649e-12 -4.955671e-12))
5316.763368   	((2.201959e-11 -1.067483e-07 -4.046007e-08) (5.063233e-11 -1.645554e-07 -3.160404e-08)) ((1.031404e-12 1.460367e-13 5.035822e-14) (-6.110165e-09 -1.319350e-12 -4.721309e-12))
5539.895704   	((1.915941e-11 -1.067410e-07 -4.040599e-08) (4.957702e-11 -1.644939e-07 -3.162727e-08)) ((1.031069e-12 1.461931e-13 5.036467e-14) (-6.108376e-09 -1.214783e-12 -4.510353e-12))
5763.043557   	((1.655105e-11 -1.067348e-07 -4.035950e-08) (4.857273e-11 -1.644420e-07 -3.164705e-08)) ((1.030784e-12 1.463259e-13 5.037189e-14) (-6.106875e-09 -1.118103e-12 -4.320682e-12))
5986.204679   	((1.420824e-11 -1.067296e-07 -4.032040e-08) (4.762679e-11 -1.643982e-07 -3.166388e-08)) ((1.030544e-12 1.464338e-13 5.037824e-14) (-6.105615e-09 -1.029104e-12 -4.150652e-12))
6209.377149   	((1.213879e-11 -1.067253e-07 -4.028654e-08) (4.674071e-11 -1.643612e-07 -3.167820e-08)) ((1.030338e-12 1.465264e-13 5.038408e-14) (-6.104556e-09 -9.475793e-13 -3.998702e-12))
6432.559323   	((1.028445e-11 -1.067215e-07 -4.025803e-08) (4.591578e-11 -1.643299e-07 -3.169037e-08)) ((1.030164e-12 1.466028e-13 5.038990e-14) (-6.103664e-09 -8.732505e-13 -3.863301e-12))
6655.749796   	((8.611383e-12 -1.067184e-07 -4.023363e-08) (4.514985e-11 -1.643035e-07 -3.170071e-08)) ((1.030016e-12 1.466666e-13 5.039539e-14) (-6.102913e-09 -8.056679e-13 -3.743023e-12))
6878.947364   	((7.119038e-12 -1.067157e-07 -4.021311e-08) (4.444271e-11 -1.642812e-07 -3.170950e-08)) ((1.029890e-12 1.467192e-13 5.040041e-14) (-6.102280e-09 -7.444406e-13 -3.636417e-12))
7102.151001   	((5.802142e-12 -1.067133e-07 -4.019578e-08) (4.379315e-11 -1.642623e-07 -3.171696e-08)) ((1.029783e-12 1.467627e-13 5.040504e-14) (-6.101746e-09 -6.891507e-13 -3.542049e-12))
7325.359828   	((4.628360e-12 -1.067113e-07 -4.018107e-08) (4.320098e-11 -1.642464e-07 -3.172330e-08)) ((1.029692e-12 1.467978e-13 5.040918e-14) (-6.101295e-09 -6.394219e-13 -3.458700e-12))
7548.573094   	((3.594297e-12 -1.067097e-07 -4.016850e-08) (4.266237e-11 -1.642328e-07 -3.172867e-08)) ((1.029615e-12 1.468278e-13 5.041304e-14) (-6.100915e-09 -5.948186e-13 -3.385191e-12))
7771.790155   	((2.681801e-12 -1.067083e-07 -4.015787e-08) (4.217357e-11 -1.642214e-07 -3.173323e-08)) ((1.029548e-12 1.468523e-13 5.041655e-14) (-6.100593e-09 -5.549206e-13 -3.320522e-12))
7995.010461   	((1.881143e-12 -1.067071e-07 -4.014893e-08) (4.173294e-11 -1.642117e-07 -3.173710e-08)) ((1.029496e-12 1.468718e-13 5.041943e-14) (-6.100321e-09 -5.193433e-13 -3.263715e-12))
8218.233541   	((1.166176e-12 -1.067061e-07 -4.014140e-08) (4.133533e-11 -1.642035e-07 -3.174039e-08)) ((1.029450e-12 1.468876e-13 5.042215e-14) (-6.100091e-09 -4.877040e-13 -3.213913e-12))
8441.458992   	((5.594510e-13 -1.067053e-07 -4.013490e-08) (4.097926e-11 -1.641965e-07 -3.174317e-08)) ((1.029410e-12 1.469010e-13 5.042446e-14) (-6.099897e-09 -4.596245e-13 -3.170274e-12))
8664.686469   	((1.883295e-14 -1.067045e-07 -4.012939e-08) (4.066081e-11 -1.641906e-07 -3.174554e-08)) ((1.029376e-12 1.469119e-13 5.042656e-14) (-6.099732e-09 -4.347549e-13 -3.132079e-12))
8887.91568    	((-4.546729e-13 -1.067039e-07 -4.012456e-08) (4.037771e-11 -1.641857e-07 -3.174754e-08)) ((1.029348e-12 1.469212e-13 5.042837e-14) (-6.099593e-09 -4.127938e-13 -3.098681e-12))
9111.146371   	((-8.679238e-13 -1.067034e-07 -4.012133e-08) (4.012647e-11 -1.641814e-07 -3.174924e-08)) ((1.029324e-12 1.469258e-13 5.042995e-14) (-6.099475e-09 -3.934373e-13 -3.069511e-12))
