# Forces      
# CofR        : (0.000000e+00 0.000000e+00 0.000000e+00)
# Time        forces(pressure viscous)	moments(pressure viscous)
0             	((0.000000e+00 0.000000e+00 0.000000e+00) (0.000000e+00 0.000000e+00 0.000000e+00)) ((0.000000e+00 0.000000e+00 0.000000e+00) (0.000000e+00 0.000000e+00 0.000000e+00))
0.012         	((5.994968e-11 -1.817651e-06 -2.944942e-07) (4.511071e-13 -4.181069e-06 -9.221605e-12)) ((-2.656869e-10 -9.673270e-13 2.434528e-12) (-2.782316e-07 -2.722916e-14 -4.512853e-13))
0.0264        	((1.078716e-09 -2.443044e-06 -6.237429e-07) (2.431984e-12 -3.829902e-06 -2.929185e-11)) ((1.203349e-10 -2.095755e-12 1.078973e-12) (-2.551395e-07 -7.200539e-14 -4.637794e-13))
0.04368       	((-8.043651e-10 -1.651948e-06 -3.385233e-07) (2.975488e-12 -3.467560e-06 -6.819216e-11)) ((8.920348e-11 -1.115274e-12 1.215362e-12) (-2.313827e-07 -2.472269e-14 -8.717101e-13))
0.064416      	((9.422629e-10 -1.867618e-06 -4.380903e-07) (3.926138e-12 -3.102100e-06 -1.284913e-10)) ((1.764080e-10 -1.481280e-12 7.675433e-13) (-2.075033e-07 3.191053e-14 -3.586453e-13))
0.0892992     	((-4.324910e-10 -1.378736e-06 -2.924700e-07) (3.749127e-12 -2.744014e-06 -2.131517e-10)) ((1.257434e-10 -9.879829e-13 5.078846e-13) (-1.841860e-07 9.143937e-14 9.846488e-13))
0.119159      	((3.574855e-10 -1.413774e-06 -3.176392e-07) (1.034996e-12 -2.404780e-06 -3.176130e-10)) ((1.539839e-10 -1.072165e-12 2.667781e-13) (-1.621983e-07 1.032652e-13 1.552326e-12))
0.154991      	((-2.049882e-10 -1.065298e-06 -2.271675e-07) (-2.091600e-12 -2.094986e-06 -4.421703e-10)) ((1.074991e-10 -7.952894e-13 1.191309e-13) (-1.420109e-07 1.180154e-13 1.783407e-12))
0.197989      	((9.457198e-11 -1.051807e-06 -2.292206e-07) (-3.449370e-12 -1.820906e-06 -5.887876e-10)) ((1.214649e-10 -7.961242e-13 1.802845e-13) (-1.241353e-07 1.179449e-13 1.926818e-12))
0.249587      	((-3.819294e-11 -8.176781e-07 -1.781965e-07) (-5.134700e-12 -1.587166e-06 -7.488556e-10)) ((8.706897e-11 -6.255107e-13 1.503393e-13) (-1.087774e-07 2.313266e-14 1.817924e-12))
0.311504      	((-1.077755e-11 -7.938487e-07 -1.731578e-07) (-4.759798e-12 -1.392676e-06 -8.978196e-10)) ((9.607346e-11 -6.169107e-13 2.659747e-13) (-9.594006e-08 -6.780918e-14 1.461914e-12))
0.385805      	((3.410745e-11 -6.402713e-07 -1.442492e-07) (-4.563665e-12 -1.231747e-06 -1.048654e-09)) ((7.170468e-11 -5.108465e-13 1.736919e-13) (-8.530549e-08 -1.923685e-13 8.249720e-13))
0.474966      	((7.356422e-12 -6.203347e-07 -1.367745e-07) (-4.624441e-12 -1.098342e-06 -1.144207e-09)) ((7.800779e-11 -5.080889e-13 2.304345e-13) (-7.650308e-08 -1.387944e-13 2.614014e-13))
0.581959      	((6.253186e-11 -5.169977e-07 -1.181539e-07) (-3.498924e-12 -9.858326e-07 -1.246686e-09)) ((6.032007e-11 -4.161353e-13 1.566638e-13) (-6.907352e-08 -6.954606e-14 2.004029e-13))
0.710351      	((2.470033e-11 -5.003285e-07 -1.102775e-07) (-2.665800e-12 -8.890866e-07 -1.278912e-09)) ((6.504942e-11 -4.191844e-13 2.324794e-13) (-6.270629e-08 -1.012943e-13 6.059007e-14))
0.864421      	((7.363421e-11 -4.263454e-07 -9.786962e-08) (-1.158940e-12 -8.040355e-07 -1.354599e-09)) ((5.260047e-11 -3.560609e-13 1.585949e-13) (-5.711416e-08 -1.223745e-13 3.019467e-13))
1.049306      	((4.452560e-11 -4.093657e-07 -9.127430e-08) (-6.155872e-12 -7.283536e-07 -1.356011e-09)) ((5.624913e-11 -3.522723e-13 1.323433e-13) (-5.215815e-08 -8.589416e-14 7.986726e-13))
1.271167      	((7.252234e-11 -3.522543e-07 -8.219023e-08) (-5.846677e-12 -6.601485e-07 -1.457697e-09)) ((4.771487e-11 -3.049172e-13 -1.059693e-15) (-4.769714e-08 8.240750e-14 9.897952e-13))
1.5374        	((8.595124e-11 -3.339286e-07 -7.670511e-08) (-6.744615e-13 -5.985341e-07 -1.360386e-09)) ((4.962498e-11 -2.949640e-13 -1.920351e-14) (-4.367075e-08 3.951896e-13 1.041191e-12))
1.85688       	((7.954703e-11 -2.898885e-07 -6.990565e-08) (-4.072578e-12 -5.429333e-07 -1.446579e-09)) ((4.351882e-11 -2.634042e-13 -8.187487e-14) (-4.004789e-08 6.685004e-13 1.238048e-12))
2.240256      	((4.057676e-11 -2.708516e-07 -6.610395e-08) (1.904622e-12 -4.930492e-07 -1.549844e-09)) ((4.392298e-11 -2.586430e-13 -6.723368e-14) (-3.679672e-08 1.177458e-12 1.568340e-12))
2.700307      	((3.234360e-11 -2.382234e-07 -6.152744e-08) (6.114736e-12 -4.489374e-07 -1.542301e-09)) ((3.970619e-11 -2.269702e-13 -1.028611e-13) (-3.392265e-08 1.373570e-12 1.829718e-12))
3.252369      	((6.385914e-11 -2.208977e-07 -5.891801e-08) (7.472951e-12 -4.100454e-07 -1.571214e-09)) ((3.956609e-11 -2.550882e-13 -8.102807e-14) (-3.138577e-08 1.443467e-12 1.765059e-12))
3.914842      	((2.530620e-11 -1.977739e-07 -5.548605e-08) (1.109470e-11 -3.758619e-07 -1.579921e-09)) ((3.721489e-11 -2.010591e-13 -8.287298e-14) (-2.916264e-08 1.642144e-12 9.787703e-13))
4.709811      	((-2.000010e-12 -1.828698e-07 -5.338420e-08) (9.118366e-12 -3.457633e-07 -1.650889e-09)) ((3.657465e-11 -2.500945e-13 -7.654106e-14) (-2.721095e-08 2.179063e-12 -1.693060e-14))
5.663773      	((5.143672e-11 -1.654832e-07 -5.049312e-08) (7.296357e-12 -3.190307e-07 -1.792410e-09)) ((3.504739e-11 -2.062259e-13 -7.954389e-14) (-2.548534e-08 2.484631e-12 -5.264077e-13))
6.808528      	((7.798131e-11 -1.527058e-07 -4.800082e-08) (9.382252e-12 -2.950688e-07 -1.954120e-09)) ((3.399442e-11 -2.645762e-13 -9.045275e-14) (-2.394257e-08 2.389251e-12 -6.802946e-13))
8.182233      	((1.293768e-10 -1.391859e-07 -4.539246e-08) (1.535029e-11 -2.733227e-07 -2.156237e-09)) ((3.295555e-11 -2.412936e-13 -9.485248e-14) (-2.255089e-08 2.208323e-12 -5.517839e-13))
9.83068       	((8.554469e-11 -1.278457e-07 -4.309226e-08) (2.075171e-11 -2.534259e-07 -2.347321e-09)) ((3.211105e-11 -2.810395e-13 -9.953138e-14) (-2.128636e-08 2.088854e-12 -3.221711e-13))
11.808816     	((1.017046e-10 -1.169363e-07 -4.116860e-08) (2.491838e-11 -2.351631e-07 -2.518917e-09)) ((3.132476e-11 -2.514221e-13 -9.929391e-14) (-2.013212e-08 2.235245e-12 -1.414861e-13))
14.182579     	((8.132432e-11 -1.075172e-07 -3.993303e-08) (2.246902e-11 -2.183706e-07 -2.672643e-09)) ((3.064895e-11 -2.621787e-13 -1.015186e-13) (-1.907584e-08 2.504520e-12 -1.838121e-14))
17.031095     	((9.270290e-11 -9.857892e-08 -3.897567e-08) (2.332521e-11 -2.029109e-07 -2.786538e-09)) ((3.006274e-11 -2.578202e-13 -1.002351e-13) (-1.810982e-08 2.222095e-12 1.216449e-13))
20.449314     	((8.334106e-11 -9.056261e-08 -3.869522e-08) (2.698627e-11 -1.887111e-07 -2.853456e-09)) ((2.953991e-11 -2.672148e-13 -1.019241e-13) (-1.722755e-08 1.758253e-12 2.191446e-13))
24.551176     	((6.781878e-11 -8.300292e-08 -3.852803e-08) (2.867725e-11 -1.757113e-07 -2.848955e-09)) ((2.909866e-11 -2.618168e-13 -1.044233e-13) (-1.642521e-08 1.771159e-12 2.156820e-13))
29.473411     	((5.133965e-11 -7.620474e-08 -3.836727e-08) (2.851098e-11 -1.638407e-07 -2.820590e-09)) ((2.871335e-11 -2.646411e-13 -1.068984e-13) (-1.569769e-08 1.919271e-12 2.171649e-13))
35.380094     	((5.880879e-11 -6.999165e-08 -3.826729e-08) (2.820601e-11 -1.530190e-07 -2.790182e-09)) ((2.839261e-11 -2.660343e-13 -1.084308e-13) (-1.503910e-08 2.049596e-12 2.043683e-13))
42.468112     	((6.192427e-11 -6.439764e-08 -3.832769e-08) (2.747441e-11 -1.431543e-07 -2.775390e-09)) ((2.810481e-11 -2.698469e-13 -1.088196e-13) (-1.444281e-08 2.016126e-12 2.432083e-13))
50.973735     	((5.733608e-11 -5.936472e-08 -3.836988e-08) (2.541270e-11 -1.341639e-07 -2.783143e-09)) ((2.787278e-11 -2.736234e-13 -1.096435e-13) (-1.390331e-08 1.751772e-12 2.024862e-13))
61.180482     	((5.126392e-11 -5.484921e-08 -3.845660e-08) (2.475027e-11 -1.259757e-07 -2.817964e-09)) ((2.766766e-11 -2.766722e-13 -1.093743e-13) (-1.341564e-08 1.470884e-12 5.172344e-14))
73.428578     	((5.298694e-11 -5.080533e-08 -3.856976e-08) (2.388275e-11 -1.185266e-07 -2.876378e-09)) ((2.749955e-11 -2.793828e-13 -1.090448e-13) (-1.297609e-08 1.226558e-12 -1.440994e-13))
88.126294     	((4.773445e-11 -4.723523e-08 -3.881404e-08) (2.330379e-11 -1.117625e-07 -2.964481e-09)) ((2.735661e-11 -2.825618e-13 -1.094520e-13) (-1.258083e-08 1.072602e-12 -3.392426e-13))
105.763553    	((4.520841e-11 -4.407674e-08 -3.909712e-08) (2.352256e-11 -1.056341e-07 -3.084043e-09)) ((2.724224e-11 -2.852919e-13 -1.102319e-13) (-1.222646e-08 9.349956e-13 -6.453080e-13))
126.928263    	((4.454912e-11 -4.133936e-08 -3.951420e-08) (2.349194e-11 -1.001023e-07 -3.237381e-09)) ((2.715017e-11 -2.878410e-13 -1.103460e-13) (-1.191023e-08 7.804866e-13 -9.559780e-13))
152.325916    	((4.582749e-11 -3.900696e-08 -4.000064e-08) (2.306775e-11 -9.513098e-08 -3.424925e-09)) ((2.708291e-11 -2.914982e-13 -1.102064e-13) (-1.162961e-08 6.758888e-13 -1.155686e-12))
182.803099    	((4.320825e-11 -3.702696e-08 -4.052544e-08) (2.183236e-11 -9.068649e-08 -3.650971e-09)) ((2.703366e-11 -2.957074e-13 -1.097518e-13) (-1.138201e-08 6.077608e-13 -1.231505e-12))
219.375719    	((4.113369e-11 -3.537162e-08 -4.106925e-08) (2.100480e-11 -8.672924e-08 -3.928528e-09)) ((2.699421e-11 -2.997262e-13 -1.095986e-13) (-1.116460e-08 5.344522e-13 -1.224087e-12))
263.262863    	((3.701994e-11 -3.403227e-08 -4.173558e-08) (2.062337e-11 -8.322772e-08 -4.260132e-09)) ((2.696551e-11 -3.037502e-13 -1.094456e-13) (-1.097482e-08 4.441447e-13 -1.163368e-12))
315.927436    	((3.017852e-11 -3.299516e-08 -4.244550e-08) (2.034049e-11 -8.015865e-08 -4.648576e-09)) ((2.694702e-11 -3.072677e-13 -1.092874e-13) (-1.081054e-08 3.424292e-13 -1.070869e-12))
379.124923    	((2.317079e-11 -3.222185e-08 -4.315202e-08) (1.996675e-11 -7.750346e-08 -5.094424e-09)) ((2.693415e-11 -3.091527e-13 -1.092858e-13) (-1.066997e-08 2.572447e-13 -9.316548e-13))
454.961908    	((2.199015e-11 -3.168454e-08 -4.390569e-08) (1.924920e-11 -7.524625e-08 -5.587994e-09)) ((2.692648e-11 -3.102561e-13 -1.089743e-13) (-1.055134e-08 2.260317e-13 -7.846714e-13))
544.568008    	((2.014136e-11 -3.135654e-08 -4.473426e-08) (1.904079e-11 -7.337783e-08 -6.117446e-09)) ((2.692446e-11 -3.119713e-13 -1.086400e-13) (-1.045309e-08 2.119354e-13 -6.612381e-13))
647.943011    	((1.894753e-11 -3.120833e-08 -4.551504e-08) (1.916209e-11 -7.188239e-08 -6.661810e-09)) ((2.692427e-11 -3.132580e-13 -1.084102e-13) (-1.037353e-08 2.045464e-13 -5.598118e-13))
765.086775    	((1.835586e-11 -3.119507e-08 -4.625024e-08) (1.926118e-11 -7.073373e-08 -7.191037e-09)) ((2.692422e-11 -3.144621e-13 -1.082687e-13) (-1.031074e-08 2.060543e-13 -4.922100e-13))
895.999278    	((1.813165e-11 -3.126211e-08 -4.689374e-08) (1.912186e-11 -6.989289e-08 -7.674416e-09)) ((2.692385e-11 -3.156247e-13 -1.081097e-13) (-1.026264e-08 2.088806e-13 -4.571542e-13))
1033.68879    	((1.806825e-11 -3.136272e-08 -4.742429e-08) (1.867819e-11 -6.931326e-08 -8.084519e-09)) ((2.692594e-11 -3.168079e-13 -1.079182e-13) (-1.022730e-08 2.182270e-13 -4.446060e-13))
1171.382811   	((1.781582e-11 -3.144274e-08 -4.785137e-08) (1.836771e-11 -6.893517e-08 -8.408962e-09)) ((2.692929e-11 -3.178641e-13 -1.077317e-13) (-1.020233e-08 2.301904e-13 -4.288083e-13))
1309.082363   	((1.781863e-11 -3.149269e-08 -4.820022e-08) (1.830234e-11 -6.869832e-08 -8.652927e-09)) ((2.693116e-11 -3.186080e-13 -1.076200e-13) (-1.018514e-08 2.312937e-13 -4.206949e-13))
1446.787262   	((1.788334e-11 -3.151243e-08 -4.847630e-08) (1.833382e-11 -6.855234e-08 -8.830317e-09)) ((2.693216e-11 -3.191826e-13 -1.075595e-13) (-1.017346e-08 2.291387e-13 -4.208385e-13))
1584.49664    	((1.807568e-11 -3.150904e-08 -4.869861e-08) (1.837770e-11 -6.846023e-08 -8.957683e-09)) ((2.693255e-11 -3.195593e-13 -1.074582e-13) (-1.016549e-08 2.226042e-13 -4.189786e-13))
1722.20996    	((1.819502e-11 -3.149415e-08 -4.887844e-08) (1.841811e-11 -6.839823e-08 -9.049712e-09)) ((2.693267e-11 -3.198307e-13 -1.073531e-13) (-1.015993e-08 2.118991e-13 -4.149243e-13))
1859.926728   	((1.838943e-11 -3.147498e-08 -4.902992e-08) (1.843330e-11 -6.835259e-08 -9.118144e-09)) ((2.693261e-11 -3.200804e-13 -1.072785e-13) (-1.015594e-08 2.039222e-13 -4.095173e-13))
1997.646382   	((1.850249e-11 -3.145591e-08 -4.915954e-08) (1.843148e-11 -6.831615e-08 -9.171186e-09)) ((2.693257e-11 -3.203140e-13 -1.072282e-13) (-1.015296e-08 1.970404e-13 -4.045827e-13))
2135.368393   	((1.854697e-11 -3.143857e-08 -4.927153e-08) (1.841091e-11 -6.828554e-08 -9.214150e-09)) ((2.693259e-11 -3.205265e-13 -1.071858e-13) (-1.015066e-08 1.935628e-13 -4.017555e-13))
2273.092355   	((1.853189e-11 -3.142334e-08 -4.936984e-08) (1.834514e-11 -6.825921e-08 -9.250188e-09)) ((2.693264e-11 -3.207231e-13 -1.071494e-13) (-1.014884e-08 1.931883e-13 -4.008500e-13))
2410.817939   	((1.851243e-11 -3.140993e-08 -4.945682e-08) (1.828037e-11 -6.823640e-08 -9.281189e-09)) ((2.693272e-11 -3.208944e-13 -1.071209e-13) (-1.014739e-08 1.931559e-13 -4.006350e-13))
2548.544858   	((1.846053e-11 -3.139805e-08 -4.953341e-08) (1.821662e-11 -6.821665e-08 -9.308365e-09)) ((2.693282e-11 -3.210594e-13 -1.070950e-13) (-1.014621e-08 1.928634e-13 -4.010619e-13))
2686.272878   	((1.837607e-11 -3.138751e-08 -4.960168e-08) (1.815384e-11 -6.819960e-08 -9.332442e-09)) ((2.693293e-11 -3.212032e-13 -1.070707e-13) (-1.014524e-08 1.928851e-13 -4.023776e-13))
2824.001809   	((1.833661e-11 -3.137808e-08 -4.966189e-08) (1.809377e-11 -6.818492e-08 -9.353916e-09)) ((2.693303e-11 -3.213323e-13 -1.070623e-13) (-1.014444e-08 1.937535e-13 -4.047411e-13))
2961.7315     	((1.828763e-11 -3.136969e-08 -4.971558e-08) (1.802916e-11 -6.817231e-08 -9.373137e-09)) ((2.693312e-11 -3.214401e-13 -1.070506e-13) (-1.014378e-08 1.957005e-13 -4.079242e-13))
3099.461833   	((1.822797e-11 -3.136220e-08 -4.976359e-08) (1.796027e-11 -6.816147e-08 -9.390387e-09)) ((2.693320e-11 -3.215336e-13 -1.070415e-13) (-1.014322e-08 1.977553e-13 -4.114798e-13))
3237.192714   	((1.815987e-11 -3.135550e-08 -4.980668e-08) (1.790127e-11 -6.815215e-08 -9.405895e-09)) ((2.693328e-11 -3.216165e-13 -1.070361e-13) (-1.014276e-08 1.998057e-13 -4.153178e-13))
3374.924065   	((1.811909e-11 -3.134953e-08 -4.984513e-08) (1.784639e-11 -6.814409e-08 -9.419859e-09)) ((2.693335e-11 -3.216900e-13 -1.070315e-13) (-1.014236e-08 2.018563e-13 -4.191653e-13))
3512.655827   	((1.806695e-11 -3.134417e-08 -4.987998e-08) (1.779752e-11 -6.813711e-08 -9.432453e-09)) ((2.693341e-11 -3.217529e-13 -1.070258e-13) (-1.014202e-08 2.033973e-13 -4.229233e-13))
3650.387949   	((1.803267e-11 -3.133937e-08 -4.991133e-08) (1.775512e-11 -6.813105e-08 -9.443831e-09)) ((2.693347e-11 -3.218098e-13 -1.070235e-13) (-1.014174e-08 2.051529e-13 -4.267950e-13))
3788.120388   	((1.798431e-11 -3.133505e-08 -4.993986e-08) (1.771868e-11 -6.812576e-08 -9.454120e-09)) ((2.693352e-11 -3.218644e-13 -1.070214e-13) (-1.014149e-08 2.068774e-13 -4.306633e-13))
3925.85311    	((1.794325e-11 -3.133117e-08 -4.996575e-08) (1.768612e-11 -6.812112e-08 -9.463432e-09)) ((2.693357e-11 -3.219141e-13 -1.070185e-13) (-1.014127e-08 2.083408e-13 -4.342962e-13))
4063.586085   	((1.789468e-11 -3.132767e-08 -4.998922e-08) (1.765717e-11 -6.811705e-08 -9.471874e-09)) ((2.693361e-11 -3.219583e-13 -1.070158e-13) (-1.014108e-08 2.096655e-13 -4.376328e-13))
4201.319286   	((1.785830e-11 -3.132449e-08 -5.001052e-08) (1.762630e-11 -6.811346e-08 -9.479536e-09)) ((2.693365e-11 -3.219982e-13 -1.070136e-13) (-1.014092e-08 2.109815e-13 -4.404515e-13))
4339.052692   	((1.782661e-11 -3.132161e-08 -5.002984e-08) (1.759424e-11 -6.811028e-08 -9.486500e-09)) ((2.693369e-11 -3.220349e-13 -1.070104e-13) (-1.014077e-08 2.123362e-13 -4.427898e-13))
4476.786283   	((1.780068e-11 -3.131901e-08 -5.004740e-08) (1.756089e-11 -6.810746e-08 -9.492836e-09)) ((2.693371e-11 -3.220685e-13 -1.070086e-13) (-1.014065e-08 2.137175e-13 -4.447086e-13))
4614.520042   	((1.776569e-11 -3.131663e-08 -5.006338e-08) (1.752747e-11 -6.810495e-08 -9.498603e-09)) ((2.693374e-11 -3.221013e-13 -1.070071e-13) (-1.014053e-08 2.150697e-13 -4.464033e-13))
4752.253952   	((1.774148e-11 -3.131445e-08 -5.007796e-08) (1.749598e-11 -6.810271e-08 -9.503859e-09)) ((2.693377e-11 -3.221300e-13 -1.070054e-13) (-1.014043e-08 2.163315e-13 -4.479295e-13))
4889.988001   	((1.771299e-11 -3.131249e-08 -5.009123e-08) (1.746606e-11 -6.810070e-08 -9.508653e-09)) ((2.693379e-11 -3.221548e-13 -1.070043e-13) (-1.014034e-08 2.175268e-13 -4.493106e-13))
5027.722174   	((1.768766e-11 -3.131070e-08 -5.010335e-08) (1.743949e-11 -6.809890e-08 -9.513031e-09)) ((2.693381e-11 -3.221769e-13 -1.070038e-13) (-1.014026e-08 2.186880e-13 -4.506057e-13))
5165.456462   	((1.767361e-11 -3.130907e-08 -5.011443e-08) (1.741444e-11 -6.809728e-08 -9.517032e-09)) ((2.693384e-11 -3.221960e-13 -1.070023e-13) (-1.014019e-08 2.197600e-13 -4.517641e-13))
5303.190854   	((1.765203e-11 -3.130758e-08 -5.012458e-08) (1.739098e-11 -6.809582e-08 -9.520695e-09)) ((2.693385e-11 -3.222140e-13 -1.070030e-13) (-1.014013e-08 2.207430e-13 -4.528688e-13))
5440.92534    	((1.762786e-11 -3.130622e-08 -5.013385e-08) (1.736948e-11 -6.809450e-08 -9.524047e-09)) ((2.693387e-11 -3.222299e-13 -1.070019e-13) (-1.014007e-08 2.216091e-13 -4.539010e-13))
5578.659913   	((1.760261e-11 -3.130498e-08 -5.014234e-08) (1.734955e-11 -6.809330e-08 -9.527120e-09)) ((2.693389e-11 -3.222437e-13 -1.070007e-13) (-1.014002e-08 2.224100e-13 -4.548669e-13))
5716.394565   	((1.758712e-11 -3.130383e-08 -5.015014e-08) (1.733032e-11 -6.809222e-08 -9.529939e-09)) ((2.693390e-11 -3.222558e-13 -1.069992e-13) (-1.013997e-08 2.231711e-13 -4.557464e-13))
5854.12929    	((1.757386e-11 -3.130279e-08 -5.015730e-08) (1.731321e-11 -6.809124e-08 -9.532526e-09)) ((2.693391e-11 -3.222669e-13 -1.069982e-13) (-1.013993e-08 2.238757e-13 -4.565369e-13))
5991.864082   	((1.756685e-11 -3.130183e-08 -5.016386e-08) (1.729752e-11 -6.809035e-08 -9.534900e-09)) ((2.693393e-11 -3.222767e-13 -1.069972e-13) (-1.013989e-08 2.245299e-13 -4.572354e-13))
