# Forces      
# CofR        : (0.000000e+00 0.000000e+00 0.000000e+00)
# Time        forces(pressure viscous)	moments(pressure viscous)
0             	((0.000000e+00 0.000000e+00 0.000000e+00) (-2.441106e-14 -7.965251e-05 5.179351e-15)) ((0.000000e+00 0.000000e+00 0.000000e+00) (-1.789709e-06 -1.988765e-16 3.875710e-11))
0.012         	((1.879637e-08 -2.316708e-02 5.219642e-03) (1.269960e-10 -9.136957e-05 -5.889438e-08)) ((2.731622e-07 1.782038e-08 4.362859e-09) (-2.637893e-06 2.741936e-13 7.859021e-11))
0.0264        	((-4.104825e-07 1.672836e-03 -3.538465e-04) (-1.061774e-10 -9.314829e-05 -9.183785e-08)) ((-1.988233e-08 -1.144343e-09 -2.807047e-10) (-2.951813e-06 1.896246e-11 1.010580e-10))
0.04368       	((2.431833e-07 4.810098e-03 -3.915631e-04) (-2.967050e-11 -8.271122e-05 -8.232920e-08)) ((-6.268228e-08 -1.319650e-09 -1.185407e-09) (-2.629403e-06 2.634857e-11 8.407129e-11))
0.064416      	((6.333206e-08 4.516131e-05 -2.024287e-04) (-1.462629e-09 -7.323555e-05 -3.964729e-08)) ((2.682531e-10 -6.321448e-10 7.172813e-11) (-2.361701e-06 1.467592e-11 1.056497e-10))
0.0892992     	((-6.427252e-08 -5.741323e-05 -1.265264e-04) (-2.979455e-09 -6.759629e-05 -3.247940e-08)) ((2.424591e-09 -3.754547e-10 7.020056e-11) (-2.232903e-06 1.149238e-11 1.137545e-10))
0.119159      	((-4.529856e-09 7.474757e-05 -8.217897e-05) (-3.029062e-09 -6.241129e-05 -6.338789e-08)) ((-1.358567e-09 -2.402928e-10 -2.851544e-11) (-2.090248e-06 2.158827e-11 9.160567e-11))
0.154991      	((1.170635e-08 3.899454e-05 -5.539249e-05) (-2.560444e-09 -5.694065e-05 -8.674247e-08)) ((-8.407049e-10 -1.379786e-10 4.443180e-13) (-1.932163e-06 2.080790e-11 5.652788e-11))
0.197989      	((-5.613841e-09 9.251226e-06 -3.802912e-05) (-2.027256e-09 -5.145446e-05 -1.083590e-07)) ((-3.115282e-10 -7.786215e-11 6.971867e-12) (-1.771840e-06 6.989214e-12 1.465106e-11))
0.249587      	((-1.198568e-08 -1.436785e-06 -2.727592e-05) (-1.839556e-09 -4.611651e-05 -1.340967e-07)) ((-1.177888e-10 -4.384211e-11 2.406061e-12) (-1.612523e-06 -4.336885e-13 -1.030080e-11))
0.311504      	((-1.717490e-08 -6.197784e-06 -2.053732e-05) (-1.692721e-09 -4.108869e-05 -1.638594e-07)) ((-4.685712e-11 -2.179500e-11 2.110279e-12) (-1.457548e-06 -3.972880e-12 -2.736597e-11))
0.385805      	((-9.089880e-09 -8.694271e-06 -1.628247e-05) (-1.424922e-09 -3.650032e-05 -1.948117e-07)) ((-1.912051e-11 -8.455873e-12 2.160396e-12) (-1.310802e-06 -7.420507e-12 -4.432829e-11))
0.474966      	((-3.661784e-09 -1.003959e-05 -1.352825e-05) (-8.697351e-10 -3.241960e-05 -2.254778e-07)) ((2.262862e-12 -6.213457e-13 1.800617e-12) (-1.175739e-06 -6.937094e-12 -5.917437e-11))
0.581959      	((1.772760e-10 -1.060149e-05 -1.181191e-05) (-2.434877e-10 -2.883293e-05 -2.562388e-07)) ((1.846517e-11 4.502798e-12 1.439895e-12) (-1.053370e-06 -2.941446e-12 -6.335902e-11))
0.710351      	((1.823803e-11 -1.058938e-05 -1.075381e-05) (1.452278e-10 -2.570537e-05 -2.831896e-07)) ((2.937267e-11 7.654359e-12 1.382420e-12) (-9.439988e-07 3.577659e-12 -5.974458e-11))
0.864421      	((2.475281e-10 -1.021250e-05 -1.011496e-05) (3.439343e-10 -2.299604e-05 -3.053257e-07)) ((3.491424e-11 9.515747e-12 1.795131e-12) (-8.475280e-07 1.053906e-11 -4.100044e-11))
1.049306      	((-2.939916e-10 -9.653488e-06 -9.737368e-06) (4.254178e-10 -2.065263e-05 -3.256874e-07)) ((3.656807e-11 1.037481e-11 1.836970e-12) (-7.628450e-07 1.496752e-11 -2.195397e-11))
1.271167      	((-1.400983e-10 -9.011751e-06 -9.518936e-06) (4.467385e-10 -1.861940e-05 -3.479765e-07)) ((3.614128e-11 1.081118e-11 1.550202e-12) (-6.884373e-07 1.500044e-11 -1.176486e-11))
1.5374        	((-5.042460e-11 -8.337451e-06 -9.410143e-06) (4.677977e-10 -1.684043e-05 -3.739855e-07)) ((3.379246e-11 1.076965e-11 1.418120e-12) (-6.228568e-07 1.224047e-11 -4.483309e-12))
1.85688       	((1.783592e-10 -7.676208e-06 -9.360864e-06) (4.630817e-10 -1.527007e-05 -4.038972e-07)) ((3.119057e-11 1.053021e-11 1.360508e-12) (-5.648117e-07 9.539642e-12 3.338907e-12))
2.240256      	((1.191455e-10 -7.055435e-06 -9.344969e-06) (4.284104e-10 -1.387582e-05 -4.372653e-07)) ((2.925921e-11 1.017876e-11 1.405942e-12) (-5.132382e-07 7.098246e-12 1.030635e-11))
2.700307      	((-1.889804e-10 -6.483721e-06 -9.342223e-06) (3.397155e-10 -1.263388e-05 -4.733198e-07)) ((2.765308e-11 9.747516e-12 1.510845e-12) (-4.672858e-07 5.084852e-12 1.434141e-11))
3.252369      	((-2.995557e-10 -5.958727e-06 -9.341600e-06) (2.364179e-10 -1.152436e-05 -5.119252e-07)) ((2.642725e-11 9.172738e-12 1.550140e-12) (-4.262224e-07 5.790583e-12 1.553071e-11))
3.914842      	((-5.495291e-10 -5.481504e-06 -9.340020e-06) (1.976935e-10 -1.053106e-05 -5.533143e-07)) ((2.545019e-11 8.658299e-12 1.439151e-12) (-3.894492e-07 7.825172e-12 1.530491e-11))
4.709811      	((-1.070824e-09 -5.055104e-06 -9.334178e-06) (1.617444e-10 -9.642177e-06 -5.971952e-07)) ((2.499205e-11 8.126162e-12 1.227941e-12) (-3.565311e-07 9.889212e-12 9.812186e-12))
5.663773      	((-8.373806e-10 -4.682097e-06 -9.321081e-06) (1.377269e-10 -8.849049e-06 -6.433744e-07)) ((2.515094e-11 7.712878e-12 1.128898e-12) (-3.271473e-07 1.148923e-11 1.361546e-12))
6.808528      	((-8.494962e-10 -4.359160e-06 -9.297133e-06) (1.541148e-10 -8.143430e-06 -6.917344e-07)) ((2.583848e-11 7.280985e-12 1.107262e-12) (-3.009964e-07 1.169863e-11 -7.752352e-12))
8.182233      	((-1.421437e-09 -4.085087e-06 -9.257556e-06) (1.512286e-10 -7.516490e-06 -7.421498e-07)) ((2.695249e-11 6.815940e-12 1.155484e-12) (-2.777544e-07 1.341383e-11 -1.746433e-11))
9.83068       	((-1.412534e-09 -3.862542e-06 -9.203527e-06) (8.129498e-11 -6.959305e-06 -7.946726e-07)) ((2.850166e-11 6.353202e-12 1.242416e-12) (-2.570909e-07 1.697233e-11 -2.504150e-11))
11.808816     	((-1.510101e-09 -3.689255e-06 -9.138252e-06) (2.677251e-12 -6.463798e-06 -8.491535e-07)) ((3.054184e-11 5.922066e-12 1.361892e-12) (-2.387084e-07 2.152206e-11 -2.919282e-11))
14.182579     	((-1.025409e-09 -3.562910e-06 -9.057844e-06) (-2.071135e-11 -6.023316e-06 -9.051129e-07)) ((3.308827e-11 5.607310e-12 1.527322e-12) (-2.223608e-07 2.348181e-11 -3.257823e-11))
17.031095     	((-1.086620e-09 -3.485542e-06 -8.965521e-06) (-6.964697e-11 -5.632912e-06 -9.617618e-07)) ((3.627769e-11 5.318398e-12 1.728229e-12) (-2.078688e-07 2.388275e-11 -3.554455e-11))
20.449314     	((-1.133927e-09 -3.454057e-06 -8.857737e-06) (-1.284561e-10 -5.288988e-06 -1.017939e-06)) ((4.003980e-11 4.997407e-12 1.988743e-12) (-1.951069e-07 2.443206e-11 -3.877440e-11))
24.551176     	((-1.503326e-09 -3.466079e-06 -8.738040e-06) (-1.740107e-10 -4.988946e-06 -1.072310e-06)) ((4.435699e-11 4.581825e-12 2.317006e-12) (-1.839913e-07 2.438837e-11 -4.519279e-11))
29.473411     	((-1.159333e-09 -3.517066e-06 -8.604624e-06) (-1.952346e-10 -4.730007e-06 -1.123676e-06)) ((4.925481e-11 4.158826e-12 2.695765e-12) (-1.744454e-07 2.383797e-11 -5.273192e-11))
35.380094     	((-9.757283e-10 -3.603065e-06 -8.458237e-06) (-2.152843e-10 -4.510586e-06 -1.171404e-06)) ((5.479039e-11 3.765175e-12 3.141229e-12) (-1.664192e-07 2.064416e-11 -6.057541e-11))
42.468112     	((-6.387712e-10 -3.717509e-06 -8.299733e-06) (-2.149908e-10 -4.328360e-06 -1.214994e-06)) ((6.072018e-11 3.407912e-12 3.636276e-12) (-1.598615e-07 1.632342e-11 -6.639716e-11))
50.973735     	((-6.737916e-10 -3.848484e-06 -8.127449e-06) (-1.971909e-10 -4.180804e-06 -1.254127e-06)) ((6.663220e-11 3.195564e-12 4.159341e-12) (-1.546669e-07 1.290499e-11 -7.204367e-11))
60.94518      	((-2.579913e-10 -3.984773e-06 -7.939091e-06) (-1.321172e-10 -4.065645e-06 -1.286905e-06)) ((7.191922e-11 3.168355e-12 4.607522e-12) (-1.507036e-07 9.137709e-12 -7.361656e-11))
72.37085      	((3.642032e-10 -4.109580e-06 -7.731649e-06) (1.483393e-11 -3.977186e-06 -1.311299e-06)) ((7.606693e-11 3.237720e-12 4.999391e-12) (-1.476868e-07 3.221998e-12 -7.169103e-11))
85.243786     	((7.876796e-10 -4.209108e-06 -7.504256e-06) (1.802274e-10 -3.907351e-06 -1.326251e-06)) ((7.919471e-11 3.369185e-12 5.289999e-12) (-1.452925e-07 -3.108149e-12 -6.778264e-11))
99.56154      	((1.270479e-09 -4.278382e-06 -7.261077e-06) (3.789827e-10 -3.849454e-06 -1.333287e-06)) ((8.162596e-11 3.503082e-12 5.516556e-12) (-1.432907e-07 -8.577557e-12 -6.461159e-11))
114.051084    	((1.493837e-09 -4.328931e-06 -7.030997e-06) (5.512831e-10 -3.801574e-06 -1.334961e-06)) ((8.352690e-11 3.608332e-12 5.728974e-12) (-1.416582e-07 -1.345145e-11 -6.300251e-11))
128.590927    	((1.665312e-09 -4.356481e-06 -6.819801e-06) (7.124023e-10 -3.760340e-06 -1.334539e-06)) ((8.493000e-11 3.788561e-12 5.910116e-12) (-1.402788e-07 -1.763397e-11 -6.140923e-11))
143.155868    	((1.603961e-09 -4.369812e-06 -6.628404e-06) (8.284585e-10 -3.724709e-06 -1.333401e-06)) ((8.591431e-11 4.040150e-12 6.050668e-12) (-1.391075e-07 -2.084489e-11 -5.951039e-11))
157.727129    	((1.444102e-09 -4.373476e-06 -6.456273e-06) (9.092618e-10 -3.693638e-06 -1.332160e-06)) ((8.654102e-11 4.326449e-12 6.153244e-12) (-1.380981e-07 -2.365067e-11 -5.849610e-11))
172.302494    	((1.099134e-09 -4.372630e-06 -6.301174e-06) (9.430605e-10 -3.666450e-06 -1.330973e-06)) ((8.694173e-11 4.601657e-12 6.238255e-12) (-1.372214e-07 -2.510348e-11 -5.819285e-11))
186.885215    	((6.547724e-10 -4.367138e-06 -6.158352e-06) (9.496836e-10 -3.642515e-06 -1.329953e-06)) ((8.717516e-11 4.861894e-12 6.308522e-12) (-1.364527e-07 -2.477359e-11 -5.838965e-11))
201.475946    	((1.934159e-10 -4.359857e-06 -6.026596e-06) (9.434593e-10 -3.621353e-06 -1.329195e-06)) ((8.729977e-11 5.113864e-12 6.366674e-12) (-1.357742e-07 -2.323269e-11 -5.878962e-11))
216.073404    	((-1.955982e-10 -4.350900e-06 -5.904579e-06) (9.176440e-10 -3.602520e-06 -1.328773e-06)) ((8.731897e-11 5.364240e-12 6.415895e-12) (-1.351682e-07 -2.112890e-11 -5.877873e-11))
230.676614    	((-5.581191e-10 -4.342511e-06 -5.791768e-06) (8.793859e-10 -3.585730e-06 -1.328662e-06)) ((8.730907e-11 5.606733e-12 6.455759e-12) (-1.346243e-07 -1.887657e-11 -5.806271e-11))
245.28509     	((-9.065318e-10 -4.335205e-06 -5.689457e-06) (8.297580e-10 -3.570809e-06 -1.328706e-06)) ((8.730896e-11 5.825094e-12 6.488222e-12) (-1.341399e-07 -1.630497e-11 -5.669739e-11))
259.898387    	((-1.191653e-09 -4.328153e-06 -5.595397e-06) (7.811026e-10 -3.557525e-06 -1.328830e-06)) ((8.729740e-11 6.028963e-12 6.514219e-12) (-1.337089e-07 -1.380454e-11 -5.502468e-11))
274.516014    	((-1.555755e-09 -4.321886e-06 -5.509822e-06) (7.324085e-10 -3.545694e-06 -1.328995e-06)) ((8.728622e-11 6.211587e-12 6.537998e-12) (-1.333258e-07 -1.100688e-11 -5.334341e-11))
289.137521    	((-1.920318e-09 -4.315855e-06 -5.431102e-06) (6.741915e-10 -3.535138e-06 -1.329185e-06)) ((8.726749e-11 6.383801e-12 6.558521e-12) (-1.329846e-07 -7.759330e-12 -5.167477e-11))
303.76253     	((-2.187854e-09 -4.310269e-06 -5.358980e-06) (6.181108e-10 -3.525703e-06 -1.329383e-06)) ((8.724859e-11 6.545815e-12 6.575328e-12) (-1.326803e-07 -4.539591e-12 -4.992930e-11))
318.39071     	((-2.440055e-09 -4.305087e-06 -5.292798e-06) (5.633602e-10 -3.517261e-06 -1.329586e-06)) ((8.722811e-11 6.698278e-12 6.589422e-12) (-1.324082e-07 -1.525843e-12 -4.823758e-11))
333.021777    	((-2.665483e-09 -4.300383e-06 -5.232167e-06) (5.107111e-10 -3.509706e-06 -1.329792e-06)) ((8.720794e-11 6.838348e-12 6.602598e-12) (-1.321649e-07 1.329066e-12 -4.670994e-11))
347.655483    	((-2.875616e-09 -4.295836e-06 -5.176250e-06) (4.590697e-10 -3.502918e-06 -1.330000e-06)) ((8.718595e-11 6.969515e-12 6.614632e-12) (-1.319464e-07 4.068219e-12 -4.538153e-11))
362.291599    	((-3.058412e-09 -4.291713e-06 -5.125025e-06) (4.088659e-10 -3.496815e-06 -1.330200e-06)) ((8.716805e-11 7.090817e-12 6.625286e-12) (-1.317503e-07 6.642899e-12 -4.421931e-11))
376.929898    	((-3.250261e-09 -4.287887e-06 -5.077911e-06) (3.605887e-10 -3.491324e-06 -1.330385e-06)) ((8.715236e-11 7.202566e-12 6.634654e-12) (-1.315743e-07 9.048909e-12 -4.308785e-11))
391.570175    	((-3.411600e-09 -4.284208e-06 -5.034542e-06) (3.157605e-10 -3.486366e-06 -1.330555e-06)) ((8.713750e-11 7.305955e-12 6.643025e-12) (-1.314160e-07 1.125655e-11 -4.198455e-11))
406.212255    	((-3.590102e-09 -4.280747e-06 -4.994571e-06) (2.722172e-10 -3.481879e-06 -1.330704e-06)) ((8.712299e-11 7.402570e-12 6.650896e-12) (-1.312732e-07 1.335135e-11 -4.095940e-11))
420.855982    	((-3.727126e-09 -4.277562e-06 -4.957744e-06) (2.316065e-10 -3.477814e-06 -1.330832e-06)) ((8.711099e-11 7.491698e-12 6.658068e-12) (-1.311443e-07 1.530089e-11 -4.002690e-11))
435.501215    	((-3.892719e-09 -4.274683e-06 -4.923891e-06) (1.926133e-10 -3.474132e-06 -1.330936e-06)) ((8.710313e-11 7.573030e-12 6.664672e-12) (-1.310282e-07 1.720415e-11 -3.908680e-11))
450.147824    	((-4.024753e-09 -4.272062e-06 -4.892814e-06) (1.578494e-10 -3.470797e-06 -1.331018e-06)) ((8.709632e-11 7.647859e-12 6.670571e-12) (-1.309237e-07 1.894236e-11 -3.803449e-11))
464.795691    	((-4.193683e-09 -4.269600e-06 -4.864141e-06) (1.238090e-10 -3.467769e-06 -1.331083e-06)) ((8.709053e-11 7.716792e-12 6.675846e-12) (-1.308292e-07 2.070193e-11 -3.694600e-11))
479.444712    	((-4.351192e-09 -4.267305e-06 -4.837695e-06) (8.909254e-11 -3.465016e-06 -1.331135e-06)) ((8.708553e-11 7.780415e-12 6.680622e-12) (-1.307436e-07 2.247404e-11 -3.591096e-11))
494.094795    	((-4.516257e-09 -4.265212e-06 -4.813410e-06) (5.409531e-11 -3.462512e-06 -1.331172e-06)) ((8.708206e-11 7.838625e-12 6.685259e-12) (-1.306662e-07 2.418184e-11 -3.490521e-11))
508.745854    	((-4.670659e-09 -4.263269e-06 -4.790998e-06) (1.963836e-11 -3.460235e-06 -1.331195e-06)) ((8.707950e-11 7.892395e-12 6.689334e-12) (-1.305961e-07 2.581434e-11 -3.391706e-11))
523.397805    	((-4.828374e-09 -4.261465e-06 -4.770347e-06) (-1.336248e-11 -3.458161e-06 -1.331205e-06)) ((8.707797e-11 7.941987e-12 6.693045e-12) (-1.305325e-07 2.737625e-11 -3.290472e-11))
538.050578    	((-4.986718e-09 -4.259798e-06 -4.751327e-06) (-4.555834e-11 -3.456272e-06 -1.331202e-06)) ((8.707750e-11 7.987464e-12 6.696429e-12) (-1.304749e-07 2.892548e-11 -3.188027e-11))
552.704105    	((-5.140438e-09 -4.258250e-06 -4.733806e-06) (-7.674151e-11 -3.454548e-06 -1.331188e-06)) ((8.707769e-11 8.029278e-12 6.699513e-12) (-1.304226e-07 3.043665e-11 -3.087422e-11))
567.358329    	((-5.304425e-09 -4.256800e-06 -4.717600e-06) (-1.080730e-10 -3.452973e-06 -1.331164e-06)) ((8.707835e-11 8.067795e-12 6.702315e-12) (-1.303751e-07 3.193833e-11 -2.990510e-11))
582.013191    	((-5.454921e-09 -4.255453e-06 -4.702634e-06) (-1.389268e-10 -3.451533e-06 -1.331132e-06)) ((8.707928e-11 8.103418e-12 6.704815e-12) (-1.303319e-07 3.341903e-11 -2.898282e-11))
596.668642    	((-5.605098e-09 -4.254192e-06 -4.688750e-06) (-1.691774e-10 -3.450215e-06 -1.331091e-06)) ((8.708071e-11 8.136514e-12 6.707026e-12) (-1.302926e-07 3.487554e-11 -2.809318e-11))
611.324634    	((-5.748527e-09 -4.253020e-06 -4.675981e-06) (-1.986486e-10 -3.449006e-06 -1.331044e-06)) ((8.708245e-11 8.166783e-12 6.709077e-12) (-1.302568e-07 3.629463e-11 -2.723200e-11))
625.981127    	((-5.895080e-09 -4.251934e-06 -4.664159e-06) (-2.276886e-10 -3.447898e-06 -1.330992e-06)) ((8.708451e-11 8.194619e-12 6.710955e-12) (-1.302241e-07 3.768996e-11 -2.640445e-11))
640.638081    	((-6.037149e-09 -4.250942e-06 -4.653269e-06) (-2.563866e-10 -3.446881e-06 -1.330937e-06)) ((8.708685e-11 8.220047e-12 6.712651e-12) (-1.301943e-07 3.907124e-11 -2.561342e-11))
655.295461    	((-6.183698e-09 -4.250026e-06 -4.643206e-06) (-2.852341e-10 -3.445949e-06 -1.330881e-06)) ((8.708922e-11 8.243358e-12 6.714209e-12) (-1.301670e-07 4.045095e-11 -2.487117e-11))
669.953235    	((-6.327281e-09 -4.249184e-06 -4.633918e-06) (-3.141418e-10 -3.445093e-06 -1.330825e-06)) ((8.709170e-11 8.264734e-12 6.715691e-12) (-1.301420e-07 4.182753e-11 -2.417647e-11))
684.611374    	((-6.467499e-09 -4.248402e-06 -4.625338e-06) (-3.430019e-10 -3.444307e-06 -1.330769e-06)) ((8.709404e-11 8.284438e-12 6.717121e-12) (-1.301191e-07 4.319289e-11 -2.352618e-11))
699.26985     	((-6.603759e-09 -4.247670e-06 -4.617418e-06) (-3.716426e-10 -3.443585e-06 -1.330715e-06)) ((8.709636e-11 8.302542e-12 6.718406e-12) (-1.300981e-07 4.454153e-11 -2.291364e-11))
713.928639    	((-6.735539e-09 -4.246996e-06 -4.610110e-06) (-3.998526e-10 -3.442921e-06 -1.330664e-06)) ((8.709864e-11 8.319145e-12 6.719614e-12) (-1.300788e-07 4.586309e-11 -2.233314e-11))
728.587715    	((-6.864389e-09 -4.246377e-06 -4.603347e-06) (-4.276359e-10 -3.442309e-06 -1.330614e-06)) ((8.710091e-11 8.334450e-12 6.720743e-12) (-1.300610e-07 4.715550e-11 -2.178660e-11))
743.247059    	((-6.982943e-09 -4.245804e-06 -4.597105e-06) (-4.545068e-10 -3.441746e-06 -1.330566e-06)) ((8.710307e-11 8.348522e-12 6.721772e-12) (-1.300447e-07 4.840381e-11 -2.126820e-11))
757.906649    	((-7.094468e-09 -4.245271e-06 -4.591348e-06) (-4.803402e-10 -3.441228e-06 -1.330520e-06)) ((8.710515e-11 8.361490e-12 6.722723e-12) (-1.300297e-07 4.959916e-11 -2.077563e-11))
772.566468    	((-7.197640e-09 -4.244774e-06 -4.586017e-06) (-5.048684e-10 -3.440750e-06 -1.330477e-06)) ((8.710714e-11 8.373488e-12 6.723606e-12) (-1.300159e-07 5.073287e-11 -2.031386e-11))
787.226498    	((-7.296462e-09 -4.244313e-06 -4.581084e-06) (-5.281418e-10 -3.440310e-06 -1.330435e-06)) ((8.710906e-11 8.384557e-12 6.724416e-12) (-1.300032e-07 5.180898e-11 -1.988165e-11))
801.886723    	((-7.389118e-09 -4.243889e-06 -4.576524e-06) (-5.501513e-10 -3.439904e-06 -1.330395e-06)) ((8.711104e-11 8.394717e-12 6.725187e-12) (-1.299915e-07 5.282872e-11 -1.947681e-11))
816.547129    	((-7.476527e-09 -4.243495e-06 -4.572310e-06) (-5.709509e-10 -3.439530e-06 -1.330357e-06)) ((8.711295e-11 8.404072e-12 6.725899e-12) (-1.299807e-07 5.379495e-11 -1.909748e-11))
831.207703    	((-7.559520e-09 -4.243134e-06 -4.568417e-06) (-5.906923e-10 -3.439185e-06 -1.330320e-06)) ((8.711494e-11 8.412681e-12 6.726538e-12) (-1.299708e-07 5.471027e-11 -1.874325e-11))
845.86843     	((-7.638201e-09 -4.242797e-06 -4.564816e-06) (-6.094174e-10 -3.438867e-06 -1.330284e-06)) ((8.711679e-11 8.420584e-12 6.727138e-12) (-1.299617e-07 5.557886e-11 -1.841228e-11))
860.529301    	((-7.713015e-09 -4.242487e-06 -4.561488e-06) (-6.271468e-10 -3.438573e-06 -1.330250e-06)) ((8.711865e-11 8.427866e-12 6.727686e-12) (-1.299534e-07 5.640224e-11 -1.810208e-11))
875.190304    	((-7.784831e-09 -4.242199e-06 -4.558432e-06) (-6.439682e-10 -3.438303e-06 -1.330217e-06)) ((8.712042e-11 8.434477e-12 6.728194e-12) (-1.299457e-07 5.718528e-11 -1.780864e-11))
889.851429    	((-7.854690e-09 -4.241924e-06 -4.555543e-06) (-6.599868e-10 -3.438053e-06 -1.330186e-06)) ((8.712201e-11 8.440775e-12 6.728662e-12) (-1.299386e-07 5.793286e-11 -1.752861e-11))
904.512668    	((-7.922105e-09 -4.241675e-06 -4.552925e-06) (-6.753203e-10 -3.437823e-06 -1.330156e-06)) ((8.712364e-11 8.446332e-12 6.729104e-12) (-1.299321e-07 5.865021e-11 -1.726068e-11))
