# Forces      
# CofR        : (0.000000e+00 0.000000e+00 0.000000e+00)
# Time        forces(pressure viscous)	moments(pressure viscous)
0             	((0.000000e+00 0.000000e+00 0.000000e+00) (0.000000e+00 0.000000e+00 0.000000e+00)) ((0.000000e+00 0.000000e+00 0.000000e+00) (0.000000e+00 0.000000e+00 0.000000e+00))
0.012         	((1.031652e-11 -2.398067e-09 3.116640e-11) (3.074836e-13 -2.689493e-11 1.159454e-13)) ((1.725168e-13 6.609303e-16 3.301394e-11) (-5.135720e-13 -1.401431e-14 6.712883e-08))
0.0264        	((-7.929275e-12 8.696390e-10 -7.294929e-11) (3.507699e-13 -2.869538e-11 1.704973e-13)) ((4.058549e-13 -2.902565e-15 9.902660e-12) (-9.134604e-13 -1.338373e-14 5.875329e-08))
0.04368       	((4.608889e-11 -4.384345e-10 4.027776e-11) (4.354381e-13 -1.880607e-11 3.669789e-13)) ((-1.865114e-13 6.202348e-16 5.187151e-12) (-7.713529e-13 -1.810883e-14 5.081014e-08))
0.064416      	((3.275693e-11 -3.534963e-11 -2.295286e-11) (4.193047e-13 -1.006000e-11 3.111903e-13)) ((5.223731e-14 9.223533e-16 3.480765e-12) (-3.930602e-13 -2.196059e-14 4.351679e-08))
0.0892992     	((4.683428e-11 -2.115329e-10 5.630032e-12) (3.457189e-13 -6.376083e-12 5.972001e-14)) ((-5.677942e-14 4.307562e-15 2.802444e-12) (-1.882785e-13 -2.090357e-14 3.706629e-08))
0.119159      	((1.994753e-11 -1.838925e-11 -1.054719e-12) (5.132088e-13 -5.439999e-12 7.378123e-15)) ((-3.472216e-14 3.558419e-15 2.224264e-12) (7.409874e-14 -2.634092e-14 3.154827e-08))
0.154991      	((3.568503e-11 -1.771868e-10 -6.123826e-12) (6.043164e-13 -4.046853e-12 1.688206e-13)) ((-3.331693e-14 4.428896e-15 1.776646e-12) (2.656197e-13 -2.911224e-14 2.700202e-08))
0.197989      	((3.181917e-11 -1.378307e-10 -6.207857e-12) (2.469867e-13 -2.519031e-12 7.368491e-13)) ((-2.645451e-14 2.804209e-15 1.389211e-12) (3.652597e-13 -1.199947e-14 2.335038e-08))
0.249587      	((4.618955e-11 -1.603325e-10 -1.146591e-11) (-2.568593e-13 -8.843401e-13 1.658999e-12)) ((-2.686936e-14 2.271772e-15 1.146698e-12) (3.348682e-13 1.549941e-14 2.044461e-08))
0.311504      	((7.159543e-11 -2.059506e-10 -3.939277e-12) (-5.516468e-13 5.514394e-13 2.647012e-12)) ((-1.919280e-14 2.333441e-16 1.014211e-12) (2.777072e-13 3.082251e-14 1.810893e-08))
0.385805      	((8.728468e-11 -2.660579e-10 -8.649369e-12) (-4.708368e-13 -4.910249e-13 3.784930e-12)) ((-1.452239e-14 7.382899e-16 8.843677e-13) (2.108812e-13 3.575695e-14 1.618402e-08))
0.474966      	((1.180779e-10 -3.231368e-10 6.269395e-13) (-9.172765e-13 -1.391869e-12 5.140764e-12)) ((1.983668e-15 -5.309542e-16 7.719093e-13) (6.695255e-14 4.246238e-14 1.455055e-08))
0.581959      	((1.551131e-10 -4.177482e-10 4.061215e-12) (-1.540117e-12 -2.672363e-12 6.919770e-12)) ((9.506215e-15 3.146382e-16 7.158779e-13) (-2.218838e-13 5.556382e-14 1.313010e-08))
0.710351      	((1.939496e-10 -4.128801e-10 9.042943e-12) (-3.310494e-12 -6.588987e-12 9.390660e-12)) ((1.800837e-14 6.127708e-16 6.809726e-13) (-4.606506e-13 9.365825e-14 1.187396e-08))
0.864421      	((2.133907e-10 -3.336038e-10 2.184405e-12) (-6.764121e-12 -4.955811e-12 1.120327e-11)) ((2.850721e-14 1.870804e-15 6.485362e-13) (-4.167830e-13 1.694135e-13 1.075145e-08))
1.049306      	((2.282476e-10 -2.997685e-10 -8.281882e-12) (-1.119339e-11 4.254834e-12 1.379070e-11)) ((3.566183e-14 2.548081e-15 6.138517e-13) (-1.570234e-13 2.500735e-13 9.743644e-09))
1.271167      	((2.008669e-10 -2.603863e-10 -1.103856e-11) (-1.969738e-11 1.663645e-11 1.725030e-11)) ((4.532825e-14 4.805303e-15 5.878683e-13) (1.614726e-13 4.282980e-13 8.840980e-09))
1.5374        	((1.536319e-10 -2.559875e-10 -2.321825e-11) (-3.319339e-11 3.086022e-11 2.005286e-11)) ((4.051987e-14 5.312163e-15 5.689433e-13) (5.103003e-13 7.740926e-13 8.038846e-09))
1.85688       	((1.096031e-10 -1.981785e-10 -4.468233e-11) (-4.948203e-11 4.154198e-11 2.315133e-11)) ((3.722162e-14 7.351783e-15 5.447771e-13) (9.022384e-13 1.171335e-12 7.332831e-09))
2.240256      	((6.007065e-11 -1.342574e-10 -6.005756e-11) (-6.882094e-11 5.278337e-11 2.705806e-11)) ((4.318867e-14 8.270056e-15 5.150978e-13) (1.393361e-12 1.691005e-12 6.715881e-09))
2.700307      	((3.164834e-11 -8.531379e-11 -8.033053e-11) (-8.924685e-11 7.074288e-11 3.230182e-11)) ((3.983449e-14 7.665394e-15 4.889702e-13) (2.038308e-12 2.331518e-12 6.177572e-09))
3.252369      	((-6.393290e-12 -5.489969e-11 -8.038185e-11) (-1.086639e-10 9.181874e-11 3.783921e-11)) ((3.302825e-14 6.519529e-15 4.555657e-13) (2.629451e-12 2.919087e-12 5.705642e-09))
3.914842      	((-7.976608e-12 1.646721e-11 -9.491883e-11) (-1.217293e-10 1.098673e-10 4.256673e-11)) ((2.474179e-14 4.599786e-15 4.253871e-13) (2.982477e-12 3.305965e-12 5.287671e-09))
4.709811      	((-3.129936e-11 6.357212e-11 -1.082736e-10) (-1.271745e-10 1.208991e-10 4.841838e-11)) ((1.761423e-14 2.489474e-15 3.989024e-13) (3.165349e-12 3.497929e-12 4.913097e-09))
5.663773      	((-4.216195e-11 3.236426e-11 -1.241106e-10) (-1.249967e-10 1.219732e-10 5.419440e-11)) ((1.790699e-14 -2.206424e-16 3.718085e-13) (3.086867e-12 3.505964e-12 4.574238e-09))
6.808528      	((-4.441285e-11 3.072570e-11 -1.342603e-10) (-1.150047e-10 1.125177e-10 5.884425e-11)) ((1.590988e-14 -1.420467e-15 3.462812e-13) (2.751820e-12 3.282951e-12 4.265058e-09))
8.182233      	((-2.919498e-11 2.658484e-11 -1.431380e-10) (-9.932717e-11 9.590957e-11 6.482191e-11)) ((1.082262e-14 -3.085985e-15 3.216082e-13) (2.374980e-12 2.865623e-12 3.980969e-09))
9.83068       	((-3.390740e-11 -1.746829e-11 -1.587596e-10) (-8.008770e-11 7.648802e-11 7.083546e-11)) ((1.191387e-14 -4.876776e-15 2.987377e-13) (1.890455e-12 2.384885e-12 3.719447e-09))
11.808816     	((1.433252e-12 -5.301628e-11 -1.674638e-10) (-6.031509e-11 5.671515e-11 7.816256e-11)) ((6.240449e-15 -7.056961e-15 2.773802e-13) (1.294502e-12 1.861592e-12 3.479332e-09))
14.182579     	((2.692016e-12 -3.961868e-11 -1.839667e-10) (-4.316602e-11 4.034368e-11 8.601047e-11)) ((1.223746e-16 -7.601982e-15 2.568288e-13) (7.710835e-13 1.413563e-12 3.259167e-09))
17.031095     	((2.700156e-11 -3.697190e-11 -1.962013e-10) (-3.003256e-11 2.806781e-11 9.310457e-11)) ((-5.163555e-15 -6.467148e-15 2.388174e-13) (5.039798e-13 1.079232e-12 3.057597e-09))
20.449314     	((3.417017e-11 -4.331238e-11 -2.114374e-10) (-2.219963e-11 2.075611e-11 1.004417e-10)) ((-6.710123e-15 -6.371362e-15 2.222373e-13) (3.785905e-13 8.964518e-13 2.873319e-09))
24.551176     	((4.488313e-11 -4.514851e-11 -2.241786e-10) (-1.929947e-11 1.849650e-11 1.074235e-10)) ((-9.201614e-15 -5.810647e-15 2.073945e-13) (4.023693e-13 8.285602e-13 2.704822e-09))
29.473411     	((3.578783e-11 -3.636883e-11 -2.462457e-10) (-2.083719e-11 2.178952e-11 1.155897e-10)) ((-9.488505e-15 -5.524774e-15 1.943872e-13) (5.341568e-13 8.535362e-13 2.550572e-09))
35.380094     	((3.114075e-11 -3.390378e-11 -2.821711e-10) (-2.567736e-11 2.882683e-11 1.240062e-10)) ((-9.896036e-15 -5.283413e-15 1.829855e-13) (7.629011e-13 9.410582e-13 2.409211e-09))
42.468112     	((2.021477e-11 -2.539338e-11 -3.127329e-10) (-3.165379e-11 3.701743e-11 1.334941e-10)) ((-1.014969e-14 -5.262033e-15 1.727433e-13) (1.006707e-12 1.045352e-12 2.279745e-09))
50.973735     	((1.931967e-11 -2.329829e-11 -3.410582e-10) (-3.714146e-11 4.417743e-11 1.449508e-10)) ((-1.024278e-14 -5.163797e-15 1.629803e-13) (1.222527e-12 1.164915e-12 2.161469e-09))
61.180482     	((1.489553e-11 -1.871826e-11 -3.752753e-10) (-4.190834e-11 5.004533e-11 1.588966e-10)) ((-1.017616e-14 -5.160958e-15 1.539304e-13) (1.401503e-12 1.268918e-12 2.053684e-09))
73.428578     	((1.085795e-11 -1.692946e-11 -4.047898e-10) (-4.577119e-11 5.389118e-11 1.749206e-10)) ((-1.038624e-14 -5.051398e-15 1.458098e-13) (1.507650e-12 1.359262e-12 1.955624e-09))
88.126294     	((6.642685e-12 -1.129030e-11 -4.320745e-10) (-4.840973e-11 5.607224e-11 1.911800e-10)) ((-1.053829e-14 -4.767407e-15 1.385913e-13) (1.554867e-12 1.405765e-12 1.866558e-09))
105.763553    	((1.155970e-12 -8.210007e-12 -4.627369e-10) (-4.989143e-11 5.779477e-11 2.077437e-10)) ((-1.022978e-14 -4.818705e-15 1.321258e-13) (1.592014e-12 1.432255e-12 1.785687e-09))
126.928263    	((-1.776040e-12 -7.911525e-12 -4.932165e-10) (-5.073891e-11 5.860848e-11 2.247307e-10)) ((-9.883960e-15 -4.887349e-15 1.263851e-13) (1.605614e-12 1.447875e-12 1.712189e-09))
152.325916    	((-2.640389e-12 -5.973109e-12 -5.264111e-10) (-5.130242e-11 5.827891e-11 2.421680e-10)) ((-9.491228e-15 -4.778119e-15 1.210377e-13) (1.583037e-12 1.462300e-12 1.645289e-09))
182.803099    	((-3.483737e-12 -4.299215e-12 -5.587793e-10) (-5.154530e-11 5.729404e-11 2.601310e-10)) ((-9.057859e-15 -4.594412e-15 1.161323e-13) (1.531762e-12 1.470319e-12 1.584304e-09))
219.375719    	((-4.805661e-12 -3.340722e-12 -5.927329e-10) (-5.110773e-11 5.592359e-11 2.787886e-10)) ((-8.680697e-15 -4.202239e-15 1.115812e-13) (1.465500e-12 1.450815e-12 1.528656e-09))
263.262863    	((-4.973065e-12 -2.410138e-12 -6.261343e-10) (-4.974784e-11 5.423272e-11 2.981859e-10)) ((-8.205191e-15 -4.255843e-15 1.073719e-13) (1.395317e-12 1.406046e-12 1.477856e-09))
315.927436    	((-4.733090e-12 -1.428128e-13 -6.595613e-10) (-4.801781e-11 5.213838e-11 3.183723e-10)) ((-7.825009e-15 -4.260890e-15 1.035286e-13) (1.313611e-12 1.355873e-12 1.431483e-09))
379.124923    	((-4.555140e-12 2.125580e-12 -6.921772e-10) (-4.632546e-11 4.970898e-11 3.388554e-10)) ((-7.516104e-15 -4.278271e-15 9.998387e-14) (1.223582e-12 1.314454e-12 1.389201e-09))
454.961908    	((-3.326370e-12 4.420591e-12 -7.242273e-10) (-4.460614e-11 4.695593e-11 3.595827e-10)) ((-7.322571e-15 -4.426831e-15 9.677745e-14) (1.127949e-12 1.272270e-12 1.350713e-09))
545.966289    	((-2.550059e-12 7.427683e-12 -7.549821e-10) (-4.265202e-11 4.418973e-11 3.804180e-10)) ((-7.243418e-15 -4.768885e-15 9.386076e-14) (1.037866e-12 1.223675e-12 1.315750e-09))
655.171547    	((-1.679293e-12 1.046757e-11 -7.842876e-10) (-4.060873e-11 4.146282e-11 4.015574e-10)) ((-7.165102e-15 -5.096284e-15 9.127585e-14) (9.510359e-13 1.169577e-12 1.284077e-09))
786.217856    	((8.935147e-14 1.400404e-11 -8.122701e-10) (-3.857277e-11 3.869236e-11 4.225053e-10)) ((-7.337236e-15 -5.364068e-15 8.890241e-14) (8.658317e-13 1.112438e-12 1.255449e-09))
943.473427    	((1.717750e-12 1.772943e-11 -8.395305e-10) (-3.642007e-11 3.593485e-11 4.429464e-10)) ((-7.580769e-15 -5.574321e-15 8.676684e-14) (7.886550e-13 1.042562e-12 1.229610e-09))
1132.180113   	((2.590813e-12 2.093926e-11 -8.641947e-10) (-3.427242e-11 3.334058e-11 4.630953e-10)) ((-7.701500e-15 -5.760977e-15 8.477090e-14) (7.129361e-13 9.701978e-13 1.206329e-09))
1358.628135   	((3.274361e-12 2.365899e-11 -8.874714e-10) (-3.219744e-11 3.100315e-11 4.829691e-10)) ((-7.811411e-15 -5.908669e-15 8.292666e-14) (6.426901e-13 8.983696e-13 1.185380e-09))
1630.365763   	((4.346767e-12 2.624583e-11 -9.091727e-10) (-3.023911e-11 2.891579e-11 5.023758e-10)) ((-7.994225e-15 -5.944358e-15 8.131716e-14) (5.828766e-13 8.317864e-13 1.166554e-09))
1956.450915   	((5.435092e-12 2.957195e-11 -9.292418e-10) (-2.834350e-11 2.703902e-11 5.211244e-10)) ((-8.220373e-15 -6.052426e-15 7.984294e-14) (5.323899e-13 7.697479e-13 1.149653e-09))
2347.753098   	((7.024867e-12 3.327238e-11 -9.477957e-10) (-2.653511e-11 2.539665e-11 5.390826e-10)) ((-8.322049e-15 -6.242132e-15 7.850050e-14) (4.881649e-13 7.099094e-13 1.134490e-09))
2817.315718   	((8.993254e-12 3.772973e-11 -9.649435e-10) (-2.480786e-11 2.391186e-11 5.561019e-10)) ((-8.312983e-15 -6.436456e-15 7.728192e-14) (4.478460e-13 6.521320e-13 1.120887e-09))
3380.790861   	((1.101286e-11 4.283411e-11 -9.807968e-10) (-2.322606e-11 2.254259e-11 5.721158e-10)) ((-8.251117e-15 -6.550738e-15 7.614517e-14) (4.110908e-13 5.993844e-13 1.108678e-09))
4056.961033   	((1.324716e-11 4.901866e-11 -9.962157e-10) (-2.172821e-11 2.130906e-11 5.870752e-10)) ((-8.188514e-15 -6.648515e-15 7.513369e-14) (3.802023e-13 5.522021e-13 1.097712e-09))
4861.531266   	((1.557260e-11 5.649976e-11 -1.011785e-09) (-2.035405e-11 2.020677e-11 6.009819e-10)) ((-8.065725e-15 -6.772904e-15 7.424850e-14) (3.535674e-13 5.124679e-13 1.087856e-09))
5794.50519    	((1.813909e-11 6.489413e-11 -1.027717e-09) (-1.913838e-11 1.920036e-11 6.137895e-10)) ((-7.897349e-15 -6.872915e-15 7.344000e-14) (3.286179e-13 4.798929e-13 1.078990e-09))
6855.88633    	((2.103902e-11 7.410038e-11 -1.044233e-09) (-1.802464e-11 1.834431e-11 6.254366e-10)) ((-7.674440e-15 -7.022565e-15 7.270639e-14) (3.072129e-13 4.503492e-13 1.071003e-09))
8045.678072   	((2.420442e-11 8.433342e-11 -1.061210e-09) (-1.700437e-11 1.762273e-11 6.360288e-10)) ((-7.393119e-15 -7.165400e-15 7.202712e-14) (2.855191e-13 4.235469e-13 1.063801e-09))
9329.816074   	((2.737188e-11 9.531143e-11 -1.078152e-09) (-1.605673e-11 1.702461e-11 6.455823e-10)) ((-7.071009e-15 -7.304014e-15 7.138537e-14) (2.664294e-13 3.996312e-13 1.057302e-09))
10613.983912  	((3.042450e-11 1.061002e-10 -1.094472e-09) (-1.516344e-11 1.651385e-11 6.541989e-10)) ((-6.791503e-15 -7.422103e-15 7.079567e-14) (2.482909e-13 3.776493e-13 1.051434e-09))
11898.179172  	((3.316568e-11 1.160294e-10 -1.110103e-09) (-1.432716e-11 1.607254e-11 6.620152e-10)) ((-6.531219e-15 -7.555322e-15 7.024754e-14) (2.322909e-13 3.567937e-13 1.046129e-09))
13182.399677  	((3.576316e-11 1.246040e-10 -1.124568e-09) (-1.352851e-11 1.566821e-11 6.691406e-10)) ((-6.314069e-15 -7.659733e-15 6.974726e-14) (2.188576e-13 3.379599e-13 1.041327e-09))
14466.643227  	((3.840296e-11 1.314707e-10 -1.137806e-09) (-1.278095e-11 1.529360e-11 6.756411e-10)) ((-6.133218e-15 -7.744897e-15 6.929369e-14) (2.069133e-13 3.214096e-13 1.036973e-09))
15750.907643  	((4.135009e-11 1.367783e-10 -1.149838e-09) (-1.207921e-11 1.493425e-11 6.816016e-10)) ((-6.024328e-15 -7.836061e-15 6.887421e-14) (1.961804e-13 3.068680e-13 1.033021e-09))
17035.191009  	((4.456116e-11 1.404862e-10 -1.160686e-09) (-1.142915e-11 1.457978e-11 6.870764e-10)) ((-5.983149e-15 -7.942449e-15 6.849515e-14) (1.868541e-13 2.948970e-13 1.029430e-09))
18319.491654  	((4.796005e-11 1.427553e-10 -1.170460e-09) (-1.083888e-11 1.421746e-11 6.921402e-10)) ((-5.985329e-15 -8.040553e-15 6.814876e-14) (1.785255e-13 2.846932e-13 1.026164e-09))
19603.807962  	((5.130955e-11 1.440204e-10 -1.179195e-09) (-1.029856e-11 1.387121e-11 6.968413e-10)) ((-6.003274e-15 -8.119569e-15 6.783089e-14) (1.718135e-13 2.761844e-13 1.023191e-09))
20888.138481  	((5.444688e-11 1.442817e-10 -1.187234e-09) (-9.806061e-12 1.352997e-11 7.012087e-10)) ((-6.049943e-15 -8.181952e-15 6.754893e-14) (1.664571e-13 2.686021e-13 1.020481e-09))
22172.481906  	((5.739404e-11 1.438143e-10 -1.193829e-09) (-9.375664e-12 1.320301e-11 7.052578e-10)) ((-6.118364e-15 -8.212389e-15 6.729736e-14) (1.625909e-13 2.614860e-13 1.018009e-09))
23456.837024  	((5.994686e-11 1.427787e-10 -1.200607e-09) (-9.006228e-12 1.291193e-11 7.089930e-10)) ((-6.202584e-15 -8.246137e-15 6.706658e-14) (1.603896e-13 2.548517e-13 1.015751e-09))
24741.202735  	((6.210875e-11 1.413575e-10 -1.206915e-09) (-8.697545e-12 1.265395e-11 7.124444e-10)) ((-6.292314e-15 -8.289076e-15 6.685187e-14) (1.594962e-13 2.484650e-13 1.013689e-09))
26025.578035  	((6.402697e-11 1.396698e-10 -1.212753e-09) (-8.420018e-12 1.242024e-11 7.156428e-10)) ((-6.355378e-15 -8.303209e-15 6.665659e-14) (1.591526e-13 2.423537e-13 1.011805e-09))
27309.962023  	((6.580938e-11 1.379191e-10 -1.218142e-09) (-8.171058e-12 1.221370e-11 7.186092e-10)) ((-6.416059e-15 -8.304196e-15 6.648541e-14) (1.589071e-13 2.368499e-13 1.010082e-09))
28594.353885  	((6.749118e-11 1.361419e-10 -1.223069e-09) (-7.958177e-12 1.202622e-11 7.213558e-10)) ((-6.475315e-15 -8.310256e-15 6.632889e-14) (1.588093e-13 2.322721e-13 1.008505e-09))
29878.752887  	((6.904675e-11 1.343626e-10 -1.227570e-09) (-7.777427e-12 1.185665e-11 7.238981e-10)) ((-6.526509e-15 -8.314244e-15 6.618181e-14) (1.589002e-13 2.286877e-13 1.007061e-09))
