# Forces      
# CofR        : (0.000000e+00 0.000000e+00 0.000000e+00)
# Time        forces(pressure viscous)	moments(pressure viscous)
0             	((0.000000e+00 0.000000e+00 0.000000e+00) (0.000000e+00 0.000000e+00 0.000000e+00)) ((0.000000e+00 0.000000e+00 0.000000e+00) (0.000000e+00 0.000000e+00 0.000000e+00))
0.012         	((-2.243221e-06 8.207079e-11 -7.633786e-07) (-5.263542e-06 1.057440e-14 -4.914919e-10)) ((-3.460120e-14 3.398477e-10 -2.758368e-14) (-5.720296e-15 3.502707e-07 -2.351770e-15))
0.0264        	((-3.093581e-06 1.807602e-09 -9.995104e-07) (-4.821507e-06 5.486717e-13 -3.349218e-10)) ((-1.806204e-14 -1.743070e-10 -6.855587e-15) (-2.097042e-14 3.211998e-07 1.534834e-14))
0.04368       	((-2.059160e-06 -1.091237e-09 -6.843514e-07) (-4.365450e-06 -3.750078e-13 -1.055840e-10)) ((-3.981273e-14 -1.258237e-10 -2.042056e-14) (-5.280007e-14 2.912997e-07 5.802698e-14))
0.064416      	((-2.356834e-06 1.286580e-09 -7.642660e-07) (-3.905507e-06 -1.033761e-12 2.516857e-12)) ((-1.964869e-14 -2.425306e-10 3.998024e-15) (-1.016132e-13 2.612487e-07 7.300735e-14))
0.0892992     	((-1.725632e-06 -5.598405e-10 -5.733668e-07) (-3.454851e-06 -1.303096e-12 -9.139567e-11)) ((-1.280722e-14 -1.728985e-10 -1.282648e-14) (-1.643291e-13 2.319130e-07 4.405318e-14))
0.119159      	((-1.780765e-06 6.332354e-10 -5.696189e-07) (-3.027965e-06 -4.388697e-13 -3.036766e-10)) ((-1.608368e-14 -2.099148e-10 -5.149277e-16) (-1.459188e-13 2.042572e-07 -1.607852e-15))
0.154991      	((-1.338266e-06 -3.224973e-10 -4.501347e-07) (-2.638297e-06 2.063875e-13 -5.103784e-10)) ((3.341256e-15 -1.466019e-10 -1.117974e-15) (-1.477686e-13 1.788691e-07 -7.484498e-14))
0.197989      	((-1.324744e-06 2.374912e-10 -4.207136e-07) (-2.293578e-06 4.778687e-13 -7.623932e-10)) ((7.789351e-15 -1.653058e-10 1.264105e-15) (-1.446561e-13 1.563880e-07 -1.372821e-13))
0.249587      	((-1.027641e-06 -1.287033e-10 -3.464017e-07) (-1.999452e-06 6.940751e-13 -1.058118e-09)) ((4.302050e-15 -1.183457e-10 -8.326009e-16) (-1.207675e-13 1.370658e-07 -1.728938e-13))
0.311504      	((-9.996126e-07 3.905834e-11 -3.166388e-07) (-1.754663e-06 6.070546e-13 -1.325994e-09)) ((1.440623e-14 -1.307426e-10 -2.068290e-15) (-1.384211e-13 1.209076e-07 -1.786341e-13))
0.385805      	((-8.054290e-07 -2.322645e-11 -2.716767e-07) (-1.552031e-06 3.508014e-13 -1.585126e-09)) ((2.781028e-15 -9.757550e-11 -2.327467e-15) (-1.373961e-13 1.075152e-07 -1.770522e-13))
0.474966      	((-7.810386e-07 3.310732e-11 -2.486153e-07) (-1.383985e-06 3.256623e-13 -1.767138e-09)) ((1.403762e-14 -1.061634e-10 -1.465612e-15) (-1.113386e-13 9.642274e-08 -2.164226e-13))
0.581959      	((-6.505599e-07 2.837311e-12 -2.197053e-07) (-1.242196e-06 4.700540e-13 -1.959758e-09)) ((2.305251e-15 -8.223072e-11 9.529198e-16) (2.267498e-14 8.705600e-08 -1.611715e-13))
0.710351      	((-6.296512e-07 -9.146049e-12 -2.016448e-07) (-1.120249e-06 -7.008285e-13 -1.992090e-09)) ((1.957030e-14 -8.861401e-11 2.334768e-15) (5.672244e-14 7.902520e-08 -1.203729e-14))
0.864421      	((-5.367648e-07 4.129969e-11 -1.817852e-07) (-1.013042e-06 -1.406974e-12 -2.139094e-09)) ((1.091670e-14 -7.189919e-11 2.949248e-15) (-1.280783e-14 7.197309e-08 -1.691986e-14))
1.049306      	((-5.151194e-07 9.312507e-12 -1.667472e-07) (-9.176243e-07 -1.524901e-12 -2.152900e-09)) ((2.304217e-14 -7.673529e-11 2.347935e-15) (-2.658388e-13 6.572238e-08 -1.395472e-13))
1.271167      	((-4.436344e-07 4.763577e-11 -1.512694e-07) (-8.316216e-07 -9.722850e-13 -2.319049e-09)) ((1.667143e-14 -6.524971e-11 9.147848e-15) (-5.048750e-13 6.009589e-08 -2.362384e-13))
1.5374        	((-4.199147e-07 4.553648e-11 -1.389818e-07) (-7.539401e-07 6.310510e-14 -2.217528e-09)) ((3.134852e-14 -6.767222e-11 1.305278e-14) (-6.583671e-13 5.501858e-08 -3.190698e-13))
1.85688       	((-3.648319e-07 5.320412e-11 -1.263296e-07) (-6.838801e-07 1.973199e-12 -2.383386e-09)) ((3.108585e-14 -5.926723e-11 1.416363e-14) (-8.367808e-13 5.045087e-08 -3.253182e-13))
2.240256      	((-3.404444e-07 1.876872e-11 -1.164384e-07) (-6.211020e-07 2.931567e-12 -2.512884e-09)) ((3.391633e-14 -5.980979e-11 1.239527e-14) (-1.266117e-12 4.635627e-08 -3.582801e-13))
2.700307      	((-2.997304e-07 3.574984e-11 -1.066868e-07) (-5.655419e-07 2.646226e-12 -2.509041e-09)) ((3.428879e-14 -5.405707e-11 1.351272e-14) (-1.858420e-12 4.273457e-08 -1.167648e-13))
3.252369      	((-2.777257e-07 4.234095e-11 -9.874566e-08) (-5.165467e-07 1.080539e-12 -2.543128e-09)) ((3.400517e-14 -5.388194e-11 1.246584e-14) (-2.579807e-12 3.953921e-08 7.844679e-13))
3.914842      	((-2.488958e-07 -1.287889e-11 -9.114394e-08) (-4.735551e-07 -2.041704e-12 -2.545433e-09)) ((3.202433e-14 -5.066469e-11 1.590562e-14) (-3.276117e-12 3.674387e-08 1.952874e-12))
4.709811      	((-2.302521e-07 -1.160959e-11 -8.508908e-08) (-4.357082e-07 -7.341730e-13 -2.663458e-09)) ((2.562206e-14 -4.975549e-11 2.039585e-14) (-3.501763e-12 3.429016e-08 2.800125e-12))
5.663773      	((-2.083502e-07 -1.411292e-11 -7.957554e-08) (-4.020496e-07 1.579886e-12 -2.905089e-09)) ((1.915153e-14 -4.770742e-11 2.390531e-14) (-3.323229e-12 3.211817e-08 3.222016e-12))
6.808528      	((-1.922130e-07 5.649914e-11 -7.482088e-08) (-3.718440e-07 3.435939e-12 -3.197598e-09)) ((2.338651e-14 -4.630996e-11 2.460747e-14) (-3.100292e-12 3.017558e-08 3.328743e-12))
8.182233      	((-1.752618e-07 5.722168e-11 -7.089390e-08) (-3.444623e-07 8.602220e-12 -3.507765e-09)) ((1.836153e-14 -4.492659e-11 2.263432e-14) (-2.954246e-12 2.842269e-08 3.190743e-12))
9.83068       	((-1.611381e-07 5.945496e-11 -6.730827e-08) (-3.194204e-07 1.215150e-11 -3.817445e-09)) ((1.906738e-14 -4.388609e-11 2.026239e-14) (-2.735902e-12 2.682925e-08 2.831478e-12))
11.808816     	((-1.475661e-07 2.790575e-11 -6.431291e-08) (-2.964364e-07 1.372051e-11 -4.089225e-09)) ((1.182260e-14 -4.281711e-11 1.792225e-14) (-2.455859e-12 2.537566e-08 2.469295e-12))
14.182579     	((-1.356350e-07 2.765558e-11 -6.174096e-08) (-2.752914e-07 1.640865e-11 -4.309781e-09)) ((1.221183e-14 -4.191842e-11 1.536889e-14) (-2.127278e-12 2.404525e-08 2.018178e-12))
17.031095     	((-1.243583e-07 3.239324e-11 -5.928069e-08) (-2.558092e-07 2.047434e-11 -4.450887e-09)) ((8.672637e-15 -4.110426e-11 1.336968e-14) (-1.709888e-12 2.282739e-08 1.452157e-12))
20.449314     	((-1.142557e-07 3.999742e-11 -5.725008e-08) (-2.378997e-07 2.240482e-11 -4.531877e-09)) ((8.616607e-15 -4.040939e-11 1.086720e-14) (-1.333058e-12 2.171490e-08 8.637887e-13))
24.551176     	((-1.047318e-07 3.107223e-11 -5.551363e-08) (-2.214945e-07 2.224521e-11 -4.555217e-09)) ((7.132860e-15 -3.982070e-11 8.355733e-15) (-1.094895e-12 2.070359e-08 2.848048e-13))
29.473411     	((-9.620371e-08 2.982910e-11 -5.415184e-08) (-2.065236e-07 2.068047e-11 -4.546859e-09)) ((7.168762e-15 -3.930429e-11 6.395910e-15) (-9.426074e-13 1.978700e-08 -1.862614e-13))
35.380094     	((-8.840803e-08 2.796359e-11 -5.315461e-08) (-1.928938e-07 1.697304e-11 -4.523538e-09)) ((7.108746e-15 -3.887350e-11 5.124180e-15) (-9.494954e-13 1.895800e-08 -5.465140e-13))
42.468112     	((-8.145002e-08 3.384773e-11 -5.245083e-08) (-1.804800e-07 1.411228e-11 -4.532227e-09)) ((8.125121e-15 -3.848899e-11 5.225413e-15) (-1.020823e-12 1.820871e-08 -7.276192e-13))
50.973735     	((-7.523636e-08 2.962052e-11 -5.195155e-08) (-1.691774e-07 1.342607e-11 -4.575195e-09)) ((8.433828e-15 -3.817214e-11 5.466541e-15) (-9.510048e-13 1.753179e-08 -7.547178e-13))
61.180482     	((-6.967800e-08 2.671293e-11 -5.175579e-08) (-1.588896e-07 1.238911e-11 -4.668835e-09)) ((8.055507e-15 -3.790528e-11 4.902862e-15) (-8.323723e-13 1.692120e-08 -7.005937e-13))
73.428578     	((-6.472977e-08 1.792509e-11 -5.173587e-08) (-1.495428e-07 1.156271e-11 -4.806365e-09)) ((7.825788e-15 -3.769332e-11 4.162560e-15) (-7.598566e-13 1.637198e-08 -5.552985e-13))
88.126294     	((-6.035500e-08 1.742412e-11 -5.179718e-08) (-1.410556e-07 9.846946e-12 -4.994151e-09)) ((8.052740e-15 -3.751262e-11 3.618354e-15) (-6.711745e-13 1.587897e-08 -3.442707e-13))
105.763553    	((-5.660732e-08 1.131647e-11 -5.186893e-08) (-1.333902e-07 7.994687e-12 -5.227229e-09)) ((8.168363e-15 -3.737193e-11 3.726352e-15) (-5.628758e-13 1.543836e-08 -1.304040e-13))
126.928263    	((-5.337189e-08 9.341023e-12 -5.205623e-08) (-1.264905e-07 6.710154e-12 -5.519412e-09)) ((8.467047e-15 -3.726507e-11 3.532047e-15) (-4.451387e-13 1.504661e-08 6.565114e-14))
152.325916    	((-5.063309e-08 6.296562e-12 -5.231180e-08) (-1.203070e-07 5.861760e-12 -5.882918e-09)) ((8.719769e-15 -3.718810e-11 3.305666e-15) (-3.381991e-13 1.470018e-08 2.031954e-13))
182.803099    	((-4.836473e-08 5.871899e-12 -5.268636e-08) (-1.147992e-07 5.659028e-12 -6.320951e-09)) ((8.356550e-15 -3.713211e-11 3.267474e-15) (-2.352489e-13 1.439584e-08 2.879979e-13))
219.375719    	((-4.658357e-08 -7.649628e-13 -5.326167e-08) (-1.099307e-07 5.463553e-12 -6.838134e-09)) ((8.294926e-15 -3.709510e-11 3.361445e-15) (-1.657748e-13 1.413065e-08 3.179007e-13))
263.262863    	((-4.521010e-08 -6.816869e-12 -5.403683e-08) (-1.056715e-07 5.178967e-12 -7.440198e-09)) ((8.576265e-15 -3.707057e-11 3.352175e-15) (-1.396647e-13 1.390167e-08 2.693633e-13))
315.927436    	((-4.422145e-08 -1.195464e-11 -5.497037e-08) (-1.019988e-07 4.934339e-12 -8.124433e-09)) ((8.845712e-15 -3.705459e-11 3.570984e-15) (-1.289595e-13 1.370603e-08 1.999311e-13))
379.124923    	((-4.358066e-08 -1.491561e-11 -5.599533e-08) (-9.888423e-08 4.913197e-12 -8.881681e-09)) ((8.710803e-15 -3.704418e-11 3.500248e-15) (-1.273076e-13 1.354106e-08 1.331893e-13))
453.284549    	((-4.325211e-08 -1.788591e-11 -5.706222e-08) (-9.632073e-08 4.426366e-12 -9.690280e-09)) ((8.532575e-15 -3.704365e-11 3.250933e-15) (-1.485268e-13 1.340483e-08 4.609781e-14))
538.406277    	((-4.319114e-08 -2.018740e-11 -5.807980e-08) (-9.428672e-08 3.482936e-12 -1.051275e-08)) ((8.455244e-15 -3.704841e-11 3.095416e-15) (-1.884959e-13 1.329478e-08 -4.783366e-14))
634.490542    	((-4.332201e-08 -2.267255e-11 -5.898847e-08) (-9.274561e-08 2.318378e-12 -1.130317e-08)) ((8.237118e-15 -3.705378e-11 2.886169e-15) (-2.419255e-13 1.320827e-08 -1.360860e-13))
741.537883    	((-4.356532e-08 -2.377771e-11 -5.973173e-08) (-9.164247e-08 1.115513e-12 -1.201582e-08)) ((8.224064e-15 -3.705755e-11 2.660868e-15) (-3.072410e-13 1.314249e-08 -2.075902e-13))
851.175169    	((-4.381253e-08 -2.390267e-11 -6.029162e-08) (-9.090985e-08 1.406347e-13 -1.260528e-08)) ((8.282765e-15 -3.706491e-11 2.577937e-15) (-3.593157e-13 1.309498e-08 -2.601900e-13))
960.819838    	((-4.399109e-08 -2.384174e-11 -6.068165e-08) (-9.045181e-08 -7.802954e-13 -1.305905e-08)) ((8.275488e-15 -3.707170e-11 2.434322e-15) (-4.044243e-13 1.306197e-08 -2.927934e-13))
1070.472077   	((-4.409702e-08 -2.361117e-11 -6.093869e-08) (-9.017958e-08 -1.559627e-12 -1.338942e-08)) ((8.243124e-15 -3.707595e-11 2.353069e-15) (-4.395386e-13 1.303974e-08 -3.101225e-13))
1180.131509   	((-4.413294e-08 -2.324772e-11 -6.110101e-08) (-9.001803e-08 -2.102941e-12 -1.362431e-08)) ((8.214089e-15 -3.707839e-11 2.345108e-15) (-4.673475e-13 1.302482e-08 -3.190651e-13))
1289.797393   	((-4.412625e-08 -2.284311e-11 -6.120583e-08) (-8.991699e-08 -2.540813e-12 -1.379136e-08)) ((8.200718e-15 -3.707922e-11 2.316268e-15) (-4.911653e-13 1.301464e-08 -3.202825e-13))
1399.468432   	((-4.410026e-08 -2.244902e-11 -6.127856e-08) (-8.984637e-08 -2.854460e-12 -1.391388e-08)) ((8.167256e-15 -3.707931e-11 2.265055e-15) (-5.069643e-13 1.300741e-08 -3.183741e-13))
1509.143543   	((-4.407119e-08 -2.217312e-11 -6.133537e-08) (-8.979147e-08 -3.090649e-12 -1.400768e-08)) ((8.163950e-15 -3.707931e-11 2.212001e-15) (-5.162761e-13 1.300210e-08 -3.166774e-13))
1618.821844   	((-4.404410e-08 -2.212769e-11 -6.138275e-08) (-8.974553e-08 -3.306867e-12 -1.408306e-08)) ((8.163744e-15 -3.707930e-11 2.171476e-15) (-5.239417e-13 1.299806e-08 -3.155101e-13))
1728.502681   	((-4.401984e-08 -2.205996e-11 -6.142321e-08) (-8.970604e-08 -3.500217e-12 -1.414611e-08)) ((8.151340e-15 -3.707927e-11 2.152914e-15) (-5.312073e-13 1.299492e-08 -3.139422e-13))
1838.185549   	((-4.399810e-08 -2.216519e-11 -6.145761e-08) (-8.967182e-08 -3.705323e-12 -1.420055e-08)) ((8.161758e-15 -3.707921e-11 2.131281e-15) (-5.375603e-13 1.299243e-08 -3.121702e-13))
1947.870067   	((-4.397852e-08 -2.217294e-11 -6.148731e-08) (-8.964227e-08 -3.865042e-12 -1.424868e-08)) ((8.194935e-15 -3.707914e-11 2.102404e-15) (-5.413409e-13 1.299044e-08 -3.115730e-13))
2057.555934   	((-4.396091e-08 -2.223344e-11 -6.151301e-08) (-8.961692e-08 -3.972837e-12 -1.429177e-08)) ((8.228962e-15 -3.707903e-11 2.069419e-15) (-5.430842e-13 1.298882e-08 -3.115110e-13))
2167.242918   	((-4.394508e-08 -2.222625e-11 -6.153552e-08) (-8.959536e-08 -4.056549e-12 -1.433061e-08)) ((8.248686e-15 -3.707892e-11 2.038496e-15) (-5.437183e-13 1.298749e-08 -3.113005e-13))
2276.930839   	((-4.393076e-08 -2.218536e-11 -6.155530e-08) (-8.957707e-08 -4.127184e-12 -1.436575e-08)) ((8.258803e-15 -3.707882e-11 2.015543e-15) (-5.440950e-13 1.298640e-08 -3.110151e-13))
2386.619556   	((-4.391791e-08 -2.215821e-11 -6.157269e-08) (-8.956158e-08 -4.200034e-12 -1.439760e-08)) ((8.265889e-15 -3.707871e-11 1.999806e-15) (-5.442651e-13 1.298550e-08 -3.092445e-13))
2496.308961   	((-4.390637e-08 -2.220905e-11 -6.158797e-08) (-8.954847e-08 -4.283363e-12 -1.442650e-08)) ((8.259140e-15 -3.707858e-11 1.978253e-15) (-5.451474e-13 1.298474e-08 -3.064433e-13))
2605.998966   	((-4.389602e-08 -2.219952e-11 -6.160184e-08) (-8.953735e-08 -4.363766e-12 -1.445271e-08)) ((8.255667e-15 -3.707844e-11 1.950333e-15) (-5.461784e-13 1.298411e-08 -3.040027e-13))
2715.689502   	((-4.388687e-08 -2.216046e-11 -6.161426e-08) (-8.952791e-08 -4.428725e-12 -1.447657e-08)) ((8.252182e-15 -3.707829e-11 1.926757e-15) (-5.465129e-13 1.298357e-08 -3.014772e-13))
2825.380511   	((-4.387866e-08 -2.210286e-11 -6.162545e-08) (-8.951989e-08 -4.473438e-12 -1.449833e-08)) ((8.250630e-15 -3.707815e-11 1.907810e-15) (-5.461606e-13 1.298312e-08 -2.990493e-13))
2935.071944   	((-4.387133e-08 -2.205592e-11 -6.163561e-08) (-8.951307e-08 -4.505391e-12 -1.451821e-08)) ((8.257356e-15 -3.707803e-11 1.890721e-15) (-5.453917e-13 1.298274e-08 -2.973098e-13))
3044.763762   	((-4.386469e-08 -2.201815e-11 -6.164482e-08) (-8.950725e-08 -4.533623e-12 -1.453638e-08)) ((8.266920e-15 -3.707793e-11 1.878347e-15) (-5.446223e-13 1.298241e-08 -2.961140e-13))
3154.45593    	((-4.385871e-08 -2.198177e-11 -6.165318e-08) (-8.950227e-08 -4.570304e-12 -1.455304e-08)) ((8.267315e-15 -3.707784e-11 1.863465e-15) (-5.443931e-13 1.298212e-08 -2.954809e-13))
3264.148416   	((-4.385328e-08 -2.196724e-11 -6.166080e-08) (-8.949799e-08 -4.607036e-12 -1.456831e-08)) ((8.266014e-15 -3.707776e-11 1.850631e-15) (-5.444223e-13 1.298188e-08 -2.951323e-13))
3373.841194   	((-4.384835e-08 -2.194244e-11 -6.166777e-08) (-8.949429e-08 -4.643470e-12 -1.458232e-08)) ((8.265635e-15 -3.707769e-11 1.841947e-15) (-5.444543e-13 1.298167e-08 -2.948524e-13))
3483.534237   	((-4.384377e-08 -2.193757e-11 -6.167406e-08) (-8.949105e-08 -4.674663e-12 -1.459519e-08)) ((8.265256e-15 -3.707763e-11 1.835627e-15) (-5.444447e-13 1.298148e-08 -2.946454e-13))
3593.227525   	((-4.383963e-08 -2.188882e-11 -6.167983e-08) (-8.948822e-08 -4.699125e-12 -1.460701e-08)) ((8.265986e-15 -3.707757e-11 1.829314e-15) (-5.443819e-13 1.298132e-08 -2.943550e-13))
3702.921038   	((-4.383584e-08 -2.184895e-11 -6.168506e-08) (-8.948571e-08 -4.717883e-12 -1.461789e-08)) ((8.266565e-15 -3.707752e-11 1.823977e-15) (-5.443852e-13 1.298117e-08 -2.939764e-13))
3812.614758   	((-4.383235e-08 -2.179904e-11 -6.168993e-08) (-8.948349e-08 -4.734728e-12 -1.462789e-08)) ((8.265718e-15 -3.707748e-11 1.818253e-15) (-5.442692e-13 1.298104e-08 -2.936027e-13))
3922.308667   	((-4.382912e-08 -2.175153e-11 -6.169443e-08) (-8.948150e-08 -4.752345e-12 -1.463711e-08)) ((8.267505e-15 -3.707743e-11 1.812130e-15) (-5.441301e-13 1.298093e-08 -2.933197e-13))
4032.002753   	((-4.382616e-08 -2.170570e-11 -6.169855e-08) (-8.947973e-08 -4.766967e-12 -1.464561e-08)) ((8.267809e-15 -3.707740e-11 1.807790e-15) (-5.438744e-13 1.298082e-08 -2.930819e-13))
4141.697      	((-4.382338e-08 -2.173405e-11 -6.170231e-08) (-8.947813e-08 -4.775160e-12 -1.465345e-08)) ((8.269704e-15 -3.707736e-11 1.804258e-15) (-5.433637e-13 1.298073e-08 -2.928753e-13))
4251.391397   	((-4.382084e-08 -2.171303e-11 -6.170582e-08) (-8.947669e-08 -4.784814e-12 -1.466069e-08)) ((8.269856e-15 -3.707733e-11 1.800761e-15) (-5.428990e-13 1.298065e-08 -2.927496e-13))
4361.085932   	((-4.381849e-08 -2.168511e-11 -6.170911e-08) (-8.947538e-08 -4.795633e-12 -1.466739e-08)) ((8.271242e-15 -3.707730e-11 1.797119e-15) (-5.426130e-13 1.298057e-08 -2.926567e-13))
4470.780596   	((-4.381627e-08 -2.168119e-11 -6.171212e-08) (-8.947419e-08 -4.806229e-12 -1.467358e-08)) ((8.272608e-15 -3.707727e-11 1.793898e-15) (-5.423679e-13 1.298050e-08 -2.926159e-13))
4580.47538    	((-4.381424e-08 -2.165922e-11 -6.171496e-08) (-8.947311e-08 -4.816375e-12 -1.467933e-08)) ((8.273284e-15 -3.707724e-11 1.791024e-15) (-5.421526e-13 1.298043e-08 -2.926398e-13))
4690.170274   	((-4.381236e-08 -2.162869e-11 -6.171761e-08) (-8.947211e-08 -4.824359e-12 -1.468466e-08)) ((8.273715e-15 -3.707722e-11 1.788343e-15) (-5.418266e-13 1.298037e-08 -2.927321e-13))
4799.865272   	((-4.381052e-08 -2.162735e-11 -6.171994e-08) (-8.947120e-08 -4.830145e-12 -1.468960e-08)) ((8.274877e-15 -3.707719e-11 1.785470e-15) (-5.415318e-13 1.298032e-08 -2.928633e-13))
