# Forces      
# CofR        : (0.000000e+00 0.000000e+00 0.000000e+00)
# Time        forces(pressure viscous)	moments(pressure viscous)
0             	((0.000000e+00 0.000000e+00 0.000000e+00) (-7.965233e-05 2.263683e-14 -7.746825e-10)) ((0.000000e+00 0.000000e+00 0.000000e+00) (-1.746034e-16 1.789692e-06 -5.039315e-16))
0.012         	((-2.316628e-02 3.314398e-08 2.443100e-03) (-9.137099e-05 1.289861e-10 -6.211389e-08)) ((9.212830e-13 -3.129708e-07 3.698346e-12) (5.005244e-13 2.637942e-06 -2.215474e-12))
0.0264        	((1.672905e-03 -3.881156e-07 -1.536790e-04) (-9.315062e-05 -1.018954e-10 -9.610816e-08)) ((9.133024e-12 2.283349e-08 -3.577429e-12) (-1.810391e-11 2.951908e-06 -4.114434e-12))
0.04368       	((4.809410e-03 3.336380e-07 -9.608721e-05) (-8.271339e-05 -4.883329e-11 -8.609633e-08)) ((-1.261625e-11 7.287801e-08 -5.271114e-12) (-2.027655e-11 2.629526e-06 -2.375394e-12))
0.064416      	((4.529727e-05 2.481358e-08 -1.219894e-04) (-7.323799e-05 -1.508404e-09 -4.255650e-08)) ((4.199817e-12 -7.813981e-10 -4.562000e-14) (-5.284660e-12 2.361860e-06 -9.018453e-12))
0.0892992     	((-5.736344e-05 5.339764e-08 -7.709064e-05) (-6.759916e-05 -2.330000e-09 -3.448585e-08)) ((-3.328330e-12 -3.164996e-09 -2.340058e-13) (9.691532e-13 2.233064e-06 -3.885910e-12))
0.119159      	((7.475300e-05 -3.365999e-08 -5.066656e-05) (-6.241374e-05 -1.800457e-09 -6.581141e-08)) ((3.094869e-12 1.374111e-09 -2.105036e-14) (-5.536320e-12 2.090388e-06 1.559764e-11))
0.154991      	((3.902817e-05 4.359365e-08 -3.504820e-05) (-5.694251e-05 -1.747034e-09 -8.902684e-08)) ((-1.591964e-12 8.029769e-10 -1.048946e-12) (-8.317143e-12 1.932290e-06 4.486165e-11))
0.197989      	((9.245967e-06 -1.405350e-08 -2.521451e-05) (-5.145630e-05 -1.631771e-09 -1.096974e-07)) ((-8.737312e-13 2.397127e-10 9.189827e-13) (-8.575737e-12 1.771944e-06 6.442786e-11))
0.249587      	((-1.453624e-06 -1.616381e-08 -1.914957e-05) (-4.611884e-05 -1.367311e-09 -1.351077e-07)) ((1.003259e-12 5.070718e-11 1.089696e-12) (-1.338226e-11 1.612633e-06 6.393407e-11))
0.311504      	((-6.210086e-06 -1.101598e-08 -1.551817e-05) (-4.109124e-05 -1.054744e-09 -1.647375e-07)) ((8.283133e-13 -1.926513e-11 1.158987e-13) (-1.388692e-11 1.457669e-06 5.874035e-11))
0.385805      	((-8.699895e-06 -5.361985e-09 -1.313031e-05) (-3.650258e-05 -8.712242e-10 -1.954058e-07)) ((2.623055e-13 -3.662600e-11 1.771469e-13) (-1.209141e-11 1.310906e-06 5.362034e-11))
0.474966      	((-1.004144e-05 -2.553128e-09 -1.160159e-05) (-3.242163e-05 -8.137901e-10 -2.256478e-07)) ((1.821494e-13 -5.284878e-11 1.041472e-13) (-9.749006e-12 1.175822e-06 5.090653e-11))
0.581959      	((-1.060199e-05 -1.578492e-09 -1.059721e-05) (-2.883488e-05 -6.923692e-10 -2.561275e-07)) ((1.208539e-13 -6.540933e-11 6.026168e-14) (-7.329976e-12 1.053438e-06 4.424209e-11))
0.710351      	((-1.058917e-05 -8.937100e-10 -9.983311e-06) (-2.570732e-05 -5.137127e-10 -2.830020e-07)) ((1.381484e-13 -7.299405e-11 3.367704e-14) (-5.483653e-12 9.440560e-07 3.446888e-11))
0.864421      	((-1.021235e-05 -8.369751e-10 -9.584890e-06) (-2.299789e-05 -3.441280e-10 -3.051149e-07)) ((1.314080e-13 -7.565992e-11 1.658757e-14) (-4.421810e-12 8.475801e-07 2.320098e-11))
1.049306      	((-9.653512e-06 -6.646941e-10 -9.339179e-06) (-2.065430e-05 -2.373424e-10 -3.255241e-07)) ((1.163585e-13 -7.497029e-11 -4.431324e-15) (-3.856861e-12 7.628895e-07 1.438672e-11))
1.271167      	((-9.011799e-06 -4.265174e-10 -9.170994e-06) (-1.862126e-05 -1.530176e-10 -3.479124e-07)) ((1.005396e-13 -7.253993e-11 -2.537077e-14) (-3.690429e-12 6.884806e-07 8.623272e-12))
1.5374        	((-8.337652e-06 -1.389399e-10 -9.069234e-06) (-1.684276e-05 -8.870027e-11 -3.740281e-07)) ((9.426594e-14 -6.836693e-11 -3.056765e-14) (-3.850186e-12 6.229017e-07 5.099139e-12))
1.85688       	((-7.676474e-06 -2.415129e-10 -8.994672e-06) (-1.527257e-05 -5.112726e-11 -4.039881e-07)) ((9.077241e-14 -6.420946e-11 -2.781189e-14) (-4.295432e-12 5.648523e-07 3.493397e-12))
2.240256      	((-7.055758e-06 -3.882577e-10 -8.938954e-06) (-1.387835e-05 -2.734099e-11 -4.373783e-07)) ((7.288289e-14 -6.099589e-11 -2.552147e-14) (-4.999249e-12 5.132744e-07 3.299590e-12))
2.700307      	((-6.484027e-06 -5.984955e-10 -8.887027e-06) (-1.263651e-05 -1.817828e-11 -4.734217e-07)) ((6.889243e-14 -5.824982e-11 -2.046761e-14) (-5.957835e-12 4.673265e-07 4.172520e-12))
3.252369      	((-5.958774e-06 -6.043149e-10 -8.833492e-06) (-1.152699e-05 -1.427238e-11 -5.118873e-07)) ((7.041204e-14 -5.584439e-11 -1.283460e-14) (-6.966184e-12 4.262735e-07 5.061348e-12))
3.914842      	((-5.481614e-06 -8.535963e-10 -8.777744e-06) (-1.053338e-05 -2.017969e-11 -5.531951e-07)) ((9.414939e-14 -5.385173e-11 -1.088760e-14) (-8.409885e-12 3.894995e-07 5.265059e-12))
4.709811      	((-5.055117e-06 -1.299585e-09 -8.719628e-06) (-9.644217e-06 -4.765505e-11 -5.971721e-07)) ((1.150230e-13 -5.249527e-11 -8.781510e-15) (-1.085197e-11 3.565733e-07 5.397864e-12))
5.663773      	((-4.682089e-06 -7.969149e-10 -8.656295e-06) (-8.851128e-06 -6.057984e-11 -6.433862e-07)) ((1.020202e-13 -5.191844e-11 -1.634617e-14) (-1.273429e-11 3.271891e-07 5.239613e-12))
6.808528      	((-4.359142e-06 -6.855080e-10 -8.584531e-06) (-8.145768e-06 -5.195127e-11 -6.917948e-07)) ((1.025910e-13 -5.199158e-11 -1.824113e-14) (-1.397346e-11 3.010418e-07 4.217018e-12))
8.182233      	((-4.085372e-06 -1.297057e-09 -8.500006e-06) (-7.518974e-06 -6.779071e-11 -7.423218e-07)) ((1.492110e-13 -5.256013e-11 -1.472764e-14) (-1.708638e-11 2.777991e-07 3.410468e-12))
9.83068       	((-3.862901e-06 -1.329098e-09 -8.404211e-06) (-6.961718e-06 -9.647027e-11 -7.949345e-07)) ((1.567558e-13 -5.364664e-11 -1.213897e-14) (-2.078200e-11 2.571324e-07 3.515331e-12))
11.808816     	((-3.689645e-06 -1.641352e-09 -8.298499e-06) (-6.466069e-06 -1.312385e-10 -8.494529e-07)) ((1.732348e-13 -5.531422e-11 -1.324628e-14) (-2.438717e-11 2.387468e-07 4.462434e-12))
14.182579     	((-3.563215e-06 -1.678770e-09 -8.181126e-06) (-6.025480e-06 -1.815694e-10 -9.054252e-07)) ((1.782986e-13 -5.760076e-11 -1.688557e-14) (-2.832989e-11 2.223977e-07 6.458491e-12))
17.031095     	((-3.485871e-06 -1.696148e-09 -8.054248e-06) (-5.635022e-06 -2.373377e-10 -9.620871e-07)) ((1.763936e-13 -6.067195e-11 -2.034899e-14) (-3.163734e-11 2.079060e-07 9.054464e-12))
20.449314     	((-3.454387e-06 -1.503659e-09 -7.913821e-06) (-5.291000e-06 -2.630792e-10 -1.018196e-06)) ((1.509734e-13 -6.443369e-11 -2.606466e-14) (-3.325365e-11 1.951429e-07 1.118505e-11))
24.551176     	((-3.466325e-06 -1.869496e-09 -7.763105e-06) (-4.990846e-06 -2.926668e-10 -1.072514e-06)) ((1.490050e-13 -6.887198e-11 -2.650715e-14) (-3.447068e-11 1.840260e-07 1.390301e-11))
29.473411     	((-3.517321e-06 -1.604136e-09 -7.601670e-06) (-4.731827e-06 -3.168277e-10 -1.123944e-06)) ((1.134912e-13 -7.398901e-11 -2.975126e-14) (-3.427493e-11 1.744813e-07 1.747326e-11))
35.380094     	((-3.603313e-06 -1.412146e-09 -7.428282e-06) (-4.512338e-06 -3.335895e-10 -1.171694e-06)) ((8.876224e-14 -7.986918e-11 -3.072749e-14) (-3.218945e-11 1.664570e-07 2.131932e-11))
42.468112     	((-3.717736e-06 -1.170653e-09 -7.245741e-06) (-4.329950e-06 -3.207465e-10 -1.215265e-06)) ((7.824454e-14 -8.617291e-11 -3.879634e-14) (-2.953602e-11 1.598984e-07 2.491178e-11))
50.973735     	((-3.848633e-06 -1.163281e-09 -7.054570e-06) (-4.182149e-06 -3.331396e-10 -1.254402e-06)) ((7.233577e-14 -9.240136e-11 -3.501736e-14) (-2.733152e-11 1.546993e-07 2.664626e-11))
60.946455     	((-3.984913e-06 -7.618940e-10 -6.854496e-06) (-4.066620e-06 -3.227284e-10 -1.287100e-06)) ((4.930926e-14 -9.789782e-11 -3.590409e-14) (-2.321843e-11 1.507283e-07 2.433212e-11))
72.374651     	((-4.109716e-06 -2.386614e-10 -6.642945e-06) (-3.977798e-06 -2.429693e-10 -1.311395e-06)) ((3.348302e-14 -1.020547e-10 -3.371163e-14) (-1.739495e-11 1.477021e-07 2.044224e-11))
85.251729     	((-4.209218e-06 1.464888e-10 -6.419077e-06) (-3.907709e-06 -1.151977e-10 -1.326363e-06)) ((1.906072e-14 -1.050698e-10 -3.520960e-14) (-1.077594e-11 1.453009e-07 1.614449e-11))
99.576767     	((-4.278444e-06 6.881512e-10 -6.189175e-06) (-3.849632e-06 5.555518e-11 -1.333428e-06)) ((-2.270856e-15 -1.073081e-10 -3.692380e-14) (-4.072433e-12 1.432946e-07 1.260013e-11))
114.097637    	((-4.328880e-06 9.654283e-10 -5.983277e-06) (-3.801563e-06 2.309986e-10 -1.335101e-06)) ((-1.303086e-14 -1.090179e-10 -4.023859e-14) (1.586191e-12 1.416569e-07 1.010487e-11))
128.669168    	((-4.356451e-06 1.218474e-09 -5.803894e-06) (-3.760189e-06 3.900177e-10 -1.334653e-06)) ((-2.248444e-14 -1.102082e-10 -4.013781e-14) (6.353645e-12 1.402747e-07 7.998152e-12))
143.264816    	((-4.369745e-06 1.183028e-09 -5.647783e-06) (-3.724491e-06 5.184409e-10 -1.333519e-06)) ((-2.070943e-14 -1.109382e-10 -3.879771e-14) (9.885392e-12 1.391033e-07 5.808372e-12))
157.865839    	((-4.373424e-06 9.918231e-10 -5.508307e-06) (-3.693375e-06 6.076390e-10 -1.332296e-06)) ((-1.747269e-14 -1.112755e-10 -3.836529e-14) (1.241359e-11 1.380939e-07 3.257680e-12))
172.473133    	((-4.372552e-06 6.780100e-10 -5.382322e-06) (-3.666160e-06 6.590920e-10 -1.331149e-06)) ((-9.346466e-15 -1.113829e-10 -3.843310e-14) (1.341701e-11 1.372173e-07 1.027114e-12))
187.08767     	((-4.367060e-06 1.635037e-10 -5.267539e-06) (-3.642219e-06 6.678918e-10 -1.330177e-06)) ((9.529227e-15 -1.113237e-10 -3.790473e-14) (1.233273e-11 1.364491e-07 -6.512682e-13))
201.710129    	((-4.359705e-06 -3.352713e-10 -5.164221e-06) (-3.621069e-06 6.415254e-10 -1.329447e-06)) ((2.730224e-14 -1.111696e-10 -3.679475e-14) (9.876382e-12 1.357713e-07 -1.897903e-12))
216.33932     	((-4.350763e-06 -7.437780e-10 -5.071601e-06) (-3.602248e-06 5.946957e-10 -1.329049e-06)) ((3.692837e-14 -1.109205e-10 -3.604087e-14) (7.127706e-12 1.351656e-07 -3.129239e-12))
230.974311    	((-4.342398e-06 -1.121261e-09 -4.988103e-06) (-3.585479e-06 5.338603e-10 -1.328946e-06)) ((4.505611e-14 -1.106669e-10 -3.526545e-14) (4.192501e-12 1.346221e-07 -4.781522e-12))
245.614577    	((-4.335139e-06 -1.474478e-09 -4.913421e-06) (-3.570581e-06 4.714318e-10 -1.328989e-06)) ((5.346579e-14 -1.104473e-10 -3.451136e-14) (1.086837e-12 1.341381e-07 -6.587081e-12))
260.2596      	((-4.328098e-06 -1.833297e-09 -4.845675e-06) (-3.557318e-06 4.070612e-10 -1.329110e-06)) ((6.255557e-14 -1.102356e-10 -3.406391e-14) (-2.151937e-12 1.337074e-07 -8.323597e-12))
274.908864    	((-4.321849e-06 -2.264780e-09 -4.785209e-06) (-3.545510e-06 3.359553e-10 -1.329276e-06)) ((7.395042e-14 -1.100428e-10 -3.362312e-14) (-5.685751e-12 1.333247e-07 -9.868991e-12))
289.561949    	((-4.315844e-06 -2.717955e-09 -4.730649e-06) (-3.534980e-06 2.556585e-10 -1.329474e-06)) ((8.620028e-14 -1.098576e-10 -3.233167e-14) (-9.609259e-12 1.329841e-07 -1.145351e-11))
304.218509    	((-4.310259e-06 -3.114090e-09 -4.681601e-06) (-3.525569e-06 1.745144e-10 -1.329679e-06)) ((9.693388e-14 -1.096867e-10 -3.115497e-14) (-1.361020e-11 1.326802e-07 -1.300027e-11))
318.878223    	((-4.305135e-06 -3.516465e-09 -4.637297e-06) (-3.517151e-06 9.233504e-11 -1.329884e-06)) ((1.063103e-13 -1.095290e-10 -3.029653e-14) (-1.756187e-11 1.324089e-07 -1.449135e-11))
333.540797    	((-4.300422e-06 -3.875546e-09 -4.597290e-06) (-3.509615e-06 1.055711e-11 -1.330088e-06)) ((1.149126e-13 -1.093823e-10 -2.994061e-14) (-2.141957e-11 1.321661e-07 -1.588482e-11))
348.205964    	((-4.295918e-06 -4.192121e-09 -4.560782e-06) (-3.502846e-06 -6.681967e-11 -1.330293e-06)) ((1.210724e-13 -1.092446e-10 -3.014737e-14) (-2.509853e-11 1.319483e-07 -1.730511e-11))
362.873485    	((-4.291797e-06 -4.504430e-09 -4.527788e-06) (-3.496762e-06 -1.406918e-10 -1.330494e-06)) ((1.269434e-13 -1.091197e-10 -2.999541e-14) (-2.868367e-11 1.317528e-07 -1.860188e-11))
377.543135    	((-4.288000e-06 -4.785854e-09 -4.497714e-06) (-3.491295e-06 -2.100102e-10 -1.330680e-06)) ((1.330294e-13 -1.090067e-10 -2.967666e-14) (-3.207200e-11 1.315776e-07 -1.994778e-11))
392.214716    	((-4.284297e-06 -5.072899e-09 -4.470174e-06) (-3.486361e-06 -2.759888e-10 -1.330850e-06)) ((1.389032e-13 -1.089007e-10 -2.986900e-14) (-3.525618e-11 1.314200e-07 -2.131090e-11))
406.888051    	((-4.280848e-06 -5.349337e-09 -4.445051e-06) (-3.481895e-06 -3.385463e-10 -1.331000e-06)) ((1.442700e-13 -1.088033e-10 -2.998723e-14) (-3.829410e-11 1.312779e-07 -2.264356e-11))
421.562983    	((-4.277641e-06 -5.590958e-09 -4.422083e-06) (-3.477846e-06 -3.975311e-10 -1.331130e-06)) ((1.486731e-13 -1.087150e-10 -2.977903e-14) (-4.115833e-11 1.311495e-07 -2.395208e-11))
436.239373    	((-4.274787e-06 -5.847225e-09 -4.401189e-06) (-3.474181e-06 -4.543930e-10 -1.331235e-06)) ((1.533033e-13 -1.086377e-10 -2.938607e-14) (-4.395368e-11 1.310339e-07 -2.527134e-11))
450.917092    	((-4.272164e-06 -6.061554e-09 -4.382120e-06) (-3.470861e-06 -5.060880e-10 -1.331318e-06)) ((1.581139e-13 -1.085663e-10 -2.875887e-14) (-4.653457e-11 1.309298e-07 -2.665824e-11))
465.59602     	((-4.269710e-06 -6.317117e-09 -4.364695e-06) (-3.467848e-06 -5.577793e-10 -1.331384e-06)) ((1.639604e-13 -1.085014e-10 -2.816039e-14) (-4.913988e-11 1.308358e-07 -2.800960e-11))
480.276059    	((-4.267421e-06 -6.528581e-09 -4.348745e-06) (-3.465108e-06 -6.074049e-10 -1.331435e-06)) ((1.685567e-13 -1.084420e-10 -2.771488e-14) (-5.164088e-11 1.307507e-07 -2.927714e-11))
494.957115    	((-4.265330e-06 -6.749264e-09 -4.334147e-06) (-3.462616e-06 -6.549212e-10 -1.331470e-06)) ((1.731491e-13 -1.083887e-10 -2.732710e-14) (-5.402387e-11 1.306737e-07 -3.045358e-11))
509.639102    	((-4.263403e-06 -6.959374e-09 -4.320747e-06) (-3.460348e-06 -7.006806e-10 -1.331490e-06)) ((1.771583e-13 -1.083408e-10 -2.699223e-14) (-5.630853e-11 1.306040e-07 -3.159127e-11))
524.32194     	((-4.261613e-06 -7.153475e-09 -4.308482e-06) (-3.458283e-06 -7.441077e-10 -1.331496e-06)) ((1.801296e-13 -1.082975e-10 -2.667508e-14) (-5.842593e-11 1.305408e-07 -3.269413e-11))
539.005555    	((-4.259961e-06 -7.346962e-09 -4.297229e-06) (-3.456401e-06 -7.857426e-10 -1.331492e-06)) ((1.834474e-13 -1.082587e-10 -2.639873e-14) (-6.043780e-11 1.304835e-07 -3.376563e-11))
553.689882    	((-4.258424e-06 -7.530634e-09 -4.286928e-06) (-3.454686e-06 -8.251358e-10 -1.331476e-06)) ((1.868393e-13 -1.082239e-10 -2.625353e-14) (-6.237216e-11 1.304315e-07 -3.479995e-11))
568.37486     	((-4.256983e-06 -7.724087e-09 -4.277465e-06) (-3.453120e-06 -8.638633e-10 -1.331451e-06)) ((1.902851e-13 -1.081923e-10 -2.607884e-14) (-6.428064e-11 1.303843e-07 -3.577831e-11))
583.060435    	((-4.255644e-06 -7.905137e-09 -4.268746e-06) (-3.451687e-06 -9.016536e-10 -1.331416e-06)) ((1.934975e-13 -1.081639e-10 -2.586391e-14) (-6.614381e-11 1.303414e-07 -3.670561e-11))
597.746557    	((-4.254405e-06 -8.088722e-09 -4.260739e-06) (-3.450377e-06 -9.385131e-10 -1.331373e-06)) ((1.966353e-13 -1.081383e-10 -2.571624e-14) (-6.797350e-11 1.303025e-07 -3.759642e-11))
612.433179    	((-4.253239e-06 -8.273868e-09 -4.253333e-06) (-3.449177e-06 -9.748767e-10 -1.331323e-06)) ((1.997220e-13 -1.081146e-10 -2.551120e-14) (-6.977953e-11 1.302669e-07 -3.844999e-11))
627.120259    	((-4.252149e-06 -8.453034e-09 -4.246495e-06) (-3.448075e-06 -1.010365e-09 -1.331270e-06)) ((2.028071e-13 -1.080929e-10 -2.532303e-14) (-7.154079e-11 1.302345e-07 -3.927615e-11))
641.807759    	((-4.251153e-06 -8.633676e-09 -4.240198e-06) (-3.447064e-06 -1.045474e-09 -1.331214e-06)) ((2.059977e-13 -1.080732e-10 -2.515907e-14) (-7.327669e-11 1.302049e-07 -4.007788e-11))
656.495644    	((-4.250238e-06 -8.814867e-09 -4.234401e-06) (-3.446137e-06 -1.080373e-09 -1.331156e-06)) ((2.091563e-13 -1.080555e-10 -2.507303e-14) (-7.499765e-11 1.301777e-07 -4.085985e-11))
671.183881    	((-4.249399e-06 -8.997052e-09 -4.229062e-06) (-3.445286e-06 -1.115250e-09 -1.331098e-06)) ((2.123530e-13 -1.080395e-10 -2.499411e-14) (-7.671227e-11 1.301529e-07 -4.162393e-11))
685.872441    	((-4.248619e-06 -9.177788e-09 -4.224144e-06) (-3.444504e-06 -1.150155e-09 -1.331041e-06)) ((2.154914e-13 -1.080248e-10 -2.493060e-14) (-7.842287e-11 1.301302e-07 -4.237038e-11))
700.561296    	((-4.247901e-06 -9.355383e-09 -4.219618e-06) (-3.443786e-06 -1.185037e-09 -1.330986e-06)) ((2.184756e-13 -1.080115e-10 -2.486145e-14) (-8.012056e-11 1.301093e-07 -4.309598e-11))
715.250421    	((-4.247233e-06 -9.525484e-09 -4.215443e-06) (-3.443126e-06 -1.219438e-09 -1.330932e-06)) ((2.211936e-13 -1.079993e-10 -2.482049e-14) (-8.178315e-11 1.300902e-07 -4.379754e-11))
729.939792    	((-4.246616e-06 -9.692741e-09 -4.211593e-06) (-3.442518e-06 -1.253404e-09 -1.330881e-06)) ((2.237621e-13 -1.079881e-10 -2.478151e-14) (-8.341062e-11 1.300726e-07 -4.447167e-11))
744.629389    	((-4.246040e-06 -9.853179e-09 -4.208048e-06) (-3.441959e-06 -1.286766e-09 -1.330832e-06)) ((2.262032e-13 -1.079778e-10 -2.473376e-14) (-8.500301e-11 1.300564e-07 -4.511491e-11))
759.319192    	((-4.245504e-06 -1.000923e-08 -4.204766e-06) (-3.441443e-06 -1.319451e-09 -1.330785e-06)) ((2.286072e-13 -1.079683e-10 -2.468698e-14) (-8.655834e-11 1.300415e-07 -4.572537e-11))
774.009184    	((-4.245010e-06 -1.015836e-08 -4.201741e-06) (-3.440968e-06 -1.351341e-09 -1.330741e-06)) ((2.308630e-13 -1.079598e-10 -2.462784e-14) (-8.806761e-11 1.300278e-07 -4.630270e-11))
788.699349    	((-4.244554e-06 -1.030168e-08 -4.198948e-06) (-3.440530e-06 -1.382310e-09 -1.330698e-06)) ((2.330297e-13 -1.079521e-10 -2.457519e-14) (-8.952836e-11 1.300152e-07 -4.684851e-11))
803.389671    	((-4.244131e-06 -1.043794e-08 -4.196367e-06) (-3.440127e-06 -1.412285e-09 -1.330657e-06)) ((2.351059e-13 -1.079450e-10 -2.453033e-14) (-9.093835e-11 1.300036e-07 -4.736377e-11))
818.080139    	((-4.243742e-06 -1.056710e-08 -4.193987e-06) (-3.439755e-06 -1.441143e-09 -1.330618e-06)) ((2.370561e-13 -1.079386e-10 -2.449403e-14) (-9.229109e-11 1.299930e-07 -4.784894e-11))
832.770739    	((-4.243381e-06 -1.069143e-08 -4.191789e-06) (-3.439412e-06 -1.468998e-09 -1.330581e-06)) ((2.389207e-13 -1.079328e-10 -2.444729e-14) (-9.359100e-11 1.299831e-07 -4.830397e-11))
847.461461    	((-4.243048e-06 -1.080834e-08 -4.189759e-06) (-3.439096e-06 -1.495758e-09 -1.330545e-06)) ((2.406930e-13 -1.079276e-10 -2.440184e-14) (-9.483645e-11 1.299741e-07 -4.872943e-11))
862.152295    	((-4.242740e-06 -1.091951e-08 -4.187885e-06) (-3.438805e-06 -1.521416e-09 -1.330511e-06)) ((2.423730e-13 -1.079228e-10 -2.435535e-14) (-9.602730e-11 1.299658e-07 -4.912696e-11))
876.843232    	((-4.242453e-06 -1.102634e-08 -4.186151e-06) (-3.438536e-06 -1.546018e-09 -1.330479e-06)) ((2.440224e-13 -1.079185e-10 -2.430497e-14) (-9.716954e-11 1.299582e-07 -4.950001e-11))
891.534263    	((-4.242187e-06 -1.112613e-08 -4.184549e-06) (-3.438288e-06 -1.569510e-09 -1.330447e-06)) ((2.455445e-13 -1.079146e-10 -2.425432e-14) (-9.825964e-11 1.299512e-07 -4.984874e-11))
906.22538     	((-4.241943e-06 -1.122203e-08 -4.183077e-06) (-3.438059e-06 -1.591925e-09 -1.330418e-06)) ((2.470154e-13 -1.079111e-10 -2.420290e-14) (-9.930212e-11 1.299447e-07 -5.017733e-11))
