# Forces      
# CofR        : (0.000000e+00 0.000000e+00 0.000000e+00)
# Time        forces(pressure viscous)	moments(pressure viscous)
0             	((0.000000e+00 0.000000e+00 0.000000e+00) (-1.262526e-04 3.587825e-14 -1.227904e-09)) ((0.000000e+00 0.000000e+00 0.000000e+00) (-2.767513e-16 2.836744e-06 -7.981439e-16))
0.012         	((-3.672206e-02 4.715095e-08 3.863990e-03) (-1.447904e-04 1.958621e-10 -1.359723e-07)) ((1.489858e-12 -4.960542e-07 5.817105e-12) (5.150945e-13 4.181569e-06 -3.386743e-12))
0.0264        	((2.731407e-03 -5.996581e-07 -2.640751e-04) (-1.475239e-04 -1.685755e-10 -2.118164e-07)) ((1.373160e-11 3.707848e-08 -5.453001e-12) (-2.829333e-11 4.677418e-06 -6.271818e-12))
0.04368       	((7.581323e-03 5.354866e-07 -1.657928e-04) (-1.309137e-04 -8.105343e-11 -1.973370e-07)) ((-1.930137e-11 1.149105e-07 -7.615479e-12) (-3.122731e-11 4.166180e-06 -3.656949e-12))
0.064416      	((7.119605e-05 4.044231e-08 -2.049055e-04) (-1.158837e-04 -2.339619e-09 -1.047609e-07)) ((6.519938e-12 -1.217179e-09 -3.810034e-13) (-8.459667e-12 3.743493e-06 -1.635932e-11))
0.0892992     	((-8.289858e-05 7.386634e-08 -1.317662e-04) (-1.069409e-04 -3.727510e-09 -9.297830e-08)) ((-5.911193e-12 -4.847853e-09 -1.472681e-12) (8.621278e-13 3.539753e-06 -7.499103e-12))
0.119159      	((1.206789e-04 -8.523530e-08 -9.088738e-05) (-9.873194e-05 -2.717451e-09 -1.684916e-07)) ((5.733515e-12 2.125872e-09 6.907160e-13) (-5.084540e-12 3.314555e-06 2.043447e-11))
0.154991      	((6.148938e-05 3.287473e-08 -6.592292e-05) (-9.009652e-05 -2.334780e-09 -2.232162e-07)) ((-1.084217e-13 1.218651e-09 -4.023857e-13) (-1.293783e-11 3.065740e-06 6.185707e-11))
0.197989      	((1.440484e-05 -5.329820e-08 -4.981264e-05) (-8.147521e-05 -2.022918e-09 -2.757714e-07)) ((2.496666e-12 3.750471e-10 2.372687e-12) (-1.559909e-11 2.814016e-06 1.007420e-10))
0.249587      	((-2.239472e-06 -2.221834e-08 -3.977072e-05) (-7.313812e-05 -1.890789e-09 -3.393192e-07)) ((8.443821e-13 9.126345e-11 1.581996e-12) (-1.894021e-11 2.565023e-06 1.182150e-10))
0.311504      	((-9.860804e-06 -1.380314e-08 -3.389170e-05) (-6.532671e-05 -1.904125e-09 -4.134715e-07)) ((1.802839e-13 -1.234375e-11 4.569590e-13) (-1.882243e-11 2.323868e-06 1.240018e-10))
0.385805      	((-1.414877e-05 -8.066555e-09 -3.000699e-05) (-5.823637e-05 -1.736323e-09 -4.932535e-07)) ((2.134484e-13 -4.535582e-11 4.268291e-13) (-1.764862e-11 2.096585e-06 1.138546e-10))
0.474966      	((-1.643169e-05 -5.972604e-09 -2.752916e-05) (-5.196562e-05 -1.388626e-09 -5.712281e-07)) ((3.349382e-13 -7.076007e-11 3.278450e-13) (-1.600737e-11 1.888206e-06 9.445198e-11))
0.581959      	((-1.737766e-05 -4.271180e-09 -2.588148e-05) (-4.644771e-05 -9.558752e-10 -6.486457e-07)) ((3.609553e-13 -9.240632e-11 2.204944e-13) (-1.443854e-11 1.699041e-06 7.200056e-11))
0.710351      	((-1.736885e-05 -3.655567e-09 -2.486097e-05) (-4.159018e-05 -7.203410e-10 -7.161005e-07)) ((2.827108e-13 -1.075311e-10 1.581175e-13) (-1.373217e-11 1.528431e-06 5.334798e-11))
0.864421      	((-1.675893e-05 -3.439633e-09 -2.418962e-05) (-3.732379e-05 -5.800712e-10 -7.725387e-07)) ((2.990866e-13 -1.151170e-10 9.674630e-14) (-1.369882e-11 1.375866e-06 3.707994e-11))
1.049306      	((-1.584470e-05 -2.519222e-09 -2.375768e-05) (-3.357447e-05 -4.451530e-10 -8.258670e-07)) ((2.285011e-13 -1.166404e-10 3.776879e-14) (-1.412995e-11 1.239834e-06 2.505988e-11))
1.271167      	((-1.477468e-05 -1.651282e-09 -2.344374e-05) (-3.027582e-05 -3.439758e-10 -8.850436e-07)) ((2.337901e-13 -1.149276e-10 -7.088042e-15) (-1.437560e-11 1.118831e-06 1.687143e-11))
1.5374        	((-1.364914e-05 -1.218096e-09 -2.323432e-05) (-2.736376e-05 -2.702363e-10 -9.544476e-07)) ((1.825014e-13 -1.103765e-10 -1.221095e-14) (-1.448345e-11 1.011403e-06 1.178307e-11))
1.85688       	((-1.255580e-05 -9.807154e-10 -2.305752e-05) (-2.478456e-05 -2.089102e-10 -1.033270e-06)) ((1.739558e-13 -1.062268e-10 -1.806718e-14) (-1.498115e-11 9.160767e-07 9.039951e-12))
2.240256      	((-1.155055e-05 -7.944492e-10 -2.290215e-05) (-2.249767e-05 -1.567556e-10 -1.119563e-06)) ((1.433042e-13 -1.041587e-10 -1.902538e-14) (-1.562058e-11 8.315132e-07 8.443427e-12))
2.700307      	((-1.064238e-05 -9.626955e-10 -2.274320e-05) (-2.046830e-05 -1.115887e-10 -1.212001e-06)) ((1.319257e-13 -1.029120e-10 -1.671904e-14) (-1.622435e-11 7.564565e-07 8.945838e-12))
3.252369      	((-9.826346e-06 -1.527382e-09 -2.258222e-05) (-1.866274e-05 -9.314861e-11 -1.310623e-06)) ((1.451956e-13 -1.025564e-10 -1.747450e-14) (-1.785710e-11 6.896588e-07 9.344597e-12))
3.914842      	((-9.113048e-06 -1.429138e-09 -2.240911e-05) (-1.705396e-05 -9.512792e-11 -1.415431e-06)) ((1.403287e-13 -1.034482e-10 -2.533709e-14) (-2.049233e-11 6.301185e-07 9.774131e-12))
4.709811      	((-8.505024e-06 -2.124276e-09 -2.222731e-05) (-1.562409e-05 -1.104001e-10 -1.525367e-06)) ((2.249372e-13 -1.058206e-10 -3.105744e-14) (-2.510623e-11 5.771834e-07 1.022736e-11))
5.663773      	((-8.007561e-06 -1.401660e-09 -2.202347e-05) (-1.435902e-05 -1.159056e-10 -1.639341e-06)) ((2.187367e-13 -1.097281e-10 -4.417468e-14) (-2.944331e-11 5.303335e-07 8.930968e-12))
6.808528      	((-7.615397e-06 -2.395384e-09 -2.179488e-05) (-1.324392e-05 -1.528475e-10 -1.756833e-06)) ((3.037256e-13 -1.150653e-10 -4.741866e-14) (-3.487480e-11 4.890187e-07 6.399560e-12))
8.182233      	((-7.335639e-06 -3.179705e-09 -2.153778e-05) (-1.226356e-05 -2.482490e-10 -1.877264e-06)) ((3.354087e-13 -1.219159e-10 -4.429955e-14) (-4.193240e-11 4.526738e-07 6.037057e-12))
9.83068       	((-7.169417e-06 -3.990657e-09 -2.125186e-05) (-1.140242e-05 -3.655273e-10 -1.999492e-06)) ((3.349968e-13 -1.303124e-10 -3.303390e-14) (-4.832870e-11 4.207319e-07 7.553000e-12))
11.808816     	((-7.116340e-06 -4.858487e-09 -2.093588e-05) (-1.064801e-05 -4.899203e-10 -2.121923e-06)) ((3.880089e-13 -1.404696e-10 -3.840539e-14) (-5.690020e-11 3.927379e-07 1.119235e-11))
14.182579     	((-7.172654e-06 -4.237890e-09 -2.059019e-05) (-9.991452e-06 -5.805980e-10 -2.242165e-06)) ((3.480206e-13 -1.524052e-10 -4.491617e-14) (-6.343257e-11 3.683774e-07 1.656358e-11))
17.031095     	((-7.333262e-06 -4.068641e-09 -2.021001e-05) (-9.425039e-06 -6.226101e-10 -2.357177e-06)) ((3.179879e-13 -1.659965e-10 -4.947342e-14) (-6.594048e-11 3.474248e-07 1.998108e-11))
20.449314     	((-7.585710e-06 -3.448676e-09 -1.980325e-05) (-8.943596e-06 -6.360534e-10 -2.464778e-06)) ((2.801523e-13 -1.815022e-10 -6.338961e-14) (-6.564968e-11 3.296755e-07 2.331887e-11))
24.551176     	((-7.920571e-06 -3.669355e-09 -1.936591e-05) (-8.540554e-06 -6.485297e-10 -2.563618e-06)) ((2.301740e-13 -1.988065e-10 -7.361053e-14) (-6.373563e-11 3.149609e-07 2.763902e-11))
29.473411     	((-8.316612e-06 -2.937942e-09 -1.890293e-05) (-8.209885e-06 -6.796323e-10 -2.652611e-06)) ((1.737519e-13 -2.166298e-10 -8.090256e-14) (-5.951341e-11 3.031128e-07 3.107705e-11))
35.310584     	((-8.738736e-06 -2.360612e-09 -1.841522e-05) (-7.946938e-06 -6.908675e-10 -2.729567e-06)) ((1.525903e-13 -2.336236e-10 -9.426782e-14) (-5.459748e-11 2.939205e-07 3.430458e-11))
42.056084     	((-9.154899e-06 -2.170918e-09 -1.789458e-05) (-7.744455e-06 -6.534614e-10 -2.789312e-06)) ((1.360388e-13 -2.474716e-10 -9.224685e-14) (-4.994031e-11 2.869579e-07 3.879309e-11))
49.702929     	((-9.514232e-06 -1.981392e-09 -1.732442e-05) (-7.586567e-06 -5.477665e-10 -2.827866e-06)) ((1.257530e-13 -2.576994e-10 -9.051776e-14) (-4.474460e-11 2.815073e-07 4.230357e-11))
58.247099     	((-9.806278e-06 -1.445335e-09 -1.670951e-05) (-7.457666e-06 -3.707798e-10 -2.845563e-06)) ((1.069772e-13 -2.654729e-10 -8.877235e-14) (-3.739933e-11 2.769923e-07 4.367321e-11))
67.225729     	((-1.004028e-05 -3.826419e-10 -1.611302e-05) (-7.349759e-06 -7.964274e-11 -2.847609e-06)) ((5.983213e-14 -2.718326e-10 -8.713060e-14) (-2.844736e-11 2.732244e-07 4.304834e-11))
76.237041     	((-1.019067e-05 5.918012e-10 -1.556638e-05) (-7.258381e-06 1.966662e-10 -2.841957e-06)) ((-7.824654e-15 -2.769668e-10 -8.527800e-14) (-1.897460e-11 2.701068e-07 4.413740e-11))
85.275569     	((-1.025683e-05 6.483578e-10 -1.506435e-05) (-7.178748e-06 4.088844e-10 -2.833644e-06)) ((-3.436165e-15 -2.800931e-10 -7.994529e-14) (-9.695574e-12 2.674654e-07 4.638074e-11))
94.32637      	((-1.027095e-05 -7.960883e-11 -1.460572e-05) (-7.107636e-06 5.344393e-10 -2.825242e-06)) ((2.911176e-14 -2.813488e-10 -8.388262e-14) (-4.797580e-12 2.651583e-07 4.663217e-11))
103.38301     	((-1.025958e-05 -5.751736e-10 -1.418527e-05) (-7.043370e-06 6.087112e-10 -2.818031e-06)) ((3.744654e-14 -2.814464e-10 -8.374169e-14) (-3.689933e-12 2.630841e-07 4.666135e-11))
112.446588    	((-1.023052e-05 -7.731375e-10 -1.380260e-05) (-6.985533e-06 6.301328e-10 -2.812246e-06)) ((6.302788e-14 -2.807898e-10 -9.507564e-14) (-3.332038e-12 2.612123e-07 4.689109e-11))
121.518354    	((-1.019353e-05 -1.155923e-09 -1.345028e-05) (-6.932692e-06 6.133032e-10 -2.807938e-06)) ((8.547224e-14 -2.798535e-10 -9.348691e-14) (-4.382160e-12 2.595008e-07 4.758922e-11))
130.597688    	((-1.015646e-05 -1.450677e-09 -1.313309e-05) (-6.884674e-06 5.673709e-10 -2.804911e-06)) ((9.596743e-14 -2.787566e-10 -8.309438e-14) (-6.131276e-12 2.579381e-07 4.912173e-11))
139.68359     	((-1.012413e-05 -2.079397e-09 -1.284659e-05) (-6.841279e-06 4.674191e-10 -2.803180e-06)) ((1.222906e-13 -2.775703e-10 -8.010236e-14) (-9.653392e-12 2.565079e-07 5.252593e-11))
148.775478    	((-1.009489e-05 -2.674232e-09 -1.258820e-05) (-6.802173e-06 3.336547e-10 -2.802374e-06)) ((1.374256e-13 -2.764837e-10 -7.990049e-14) (-1.462812e-11 2.552036e-07 5.473122e-11))
157.872909    	((-1.006672e-05 -3.428493e-09 -1.235102e-05) (-6.766887e-06 1.924098e-10 -2.802081e-06)) ((1.553255e-13 -2.754406e-10 -7.735454e-14) (-1.980673e-11 2.540208e-07 5.575928e-11))
166.975391    	((-1.004060e-05 -4.193807e-09 -1.213495e-05) (-6.735018e-06 4.581143e-11 -2.802099e-06)) ((1.682293e-13 -2.744655e-10 -7.697620e-14) (-2.515288e-11 2.529492e-07 5.690401e-11))
176.082476    	((-1.001809e-05 -5.023650e-09 -1.193883e-05) (-6.706382e-06 -1.032874e-10 -2.802117e-06)) ((1.860304e-13 -2.736735e-10 -7.892331e-14) (-3.048652e-11 2.519895e-07 5.833024e-11))
185.193439    	((-9.998318e-06 -5.823992e-09 -1.176037e-05) (-6.680743e-06 -2.469936e-10 -2.801946e-06)) ((2.123652e-13 -2.730294e-10 -7.750184e-14) (-3.627722e-11 2.511409e-07 5.958882e-11))
194.307789    	((-9.978239e-06 -6.679728e-09 -1.159646e-05) (-6.657677e-06 -4.004022e-10 -2.801537e-06)) ((2.384801e-13 -2.724399e-10 -7.770336e-14) (-4.254927e-11 2.503901e-07 6.063212e-11))
203.425235    	((-9.958376e-06 -7.438087e-09 -1.144522e-05) (-6.636854e-06 -5.541023e-10 -2.800982e-06)) ((2.564271e-13 -2.718805e-10 -7.865374e-14) (-4.909457e-11 2.497215e-07 6.037649e-11))
212.545515    	((-9.937636e-06 -8.252738e-09 -1.130431e-05) (-6.617843e-06 -7.126557e-10 -2.800471e-06)) ((2.701631e-13 -2.713086e-10 -7.467697e-14) (-5.559079e-11 2.491142e-07 5.934562e-11))
221.668399    	((-9.918479e-06 -8.943031e-09 -1.117319e-05) (-6.600434e-06 -8.491663e-10 -2.800038e-06)) ((2.823941e-13 -2.707725e-10 -7.183934e-14) (-6.144235e-11 2.485586e-07 5.773473e-11))
230.793685    	((-9.900823e-06 -9.672824e-09 -1.105193e-05) (-6.584502e-06 -9.746908e-10 -2.799630e-06)) ((2.986500e-13 -2.702764e-10 -7.079980e-14) (-6.735120e-11 2.480504e-07 5.562872e-11))
239.921195    	((-9.884405e-06 -1.041194e-08 -1.093913e-05) (-6.569903e-06 -1.096493e-09 -2.799213e-06)) ((3.164567e-13 -2.698086e-10 -7.059056e-14) (-7.335378e-11 2.475857e-07 5.320328e-11))
249.050766    	((-9.869003e-06 -1.119412e-08 -1.083491e-05) (-6.556533e-06 -1.219269e-09 -2.798824e-06)) ((3.382444e-13 -2.693464e-10 -7.154215e-14) (-7.966902e-11 2.471607e-07 5.055061e-11))
258.182248    	((-9.854203e-06 -1.198781e-08 -1.073776e-05) (-6.544265e-06 -1.345736e-09 -2.798492e-06)) ((3.583934e-13 -2.688890e-10 -7.237694e-14) (-8.611882e-11 2.467713e-07 4.794295e-11))
267.315505    	((-9.839894e-06 -1.284504e-08 -1.064747e-05) (-6.532985e-06 -1.472662e-09 -2.798233e-06)) ((3.797430e-13 -2.684397e-10 -7.266407e-14) (-9.279369e-11 2.464132e-07 4.553202e-11))
276.45041     	((-9.826493e-06 -1.365583e-08 -1.056367e-05) (-6.522603e-06 -1.596929e-09 -2.798034e-06)) ((3.969251e-13 -2.680209e-10 -7.285605e-14) (-9.956185e-11 2.460839e-07 4.325321e-11))
285.586843    	((-9.813908e-06 -1.454164e-08 -1.048558e-05) (-6.513035e-06 -1.723590e-09 -2.797862e-06)) ((4.176441e-13 -2.676405e-10 -7.366507e-14) (-1.065447e-10 2.457815e-07 4.063193e-11))
294.72473     	((-9.801864e-06 -1.563783e-08 -1.041234e-05) (-6.504191e-06 -1.864343e-09 -2.797687e-06)) ((4.422917e-13 -2.672969e-10 -7.418771e-14) (-1.141734e-10 2.455042e-07 3.781146e-11))
303.863976    	((-9.790518e-06 -1.665878e-08 -1.034378e-05) (-6.496009e-06 -2.014199e-09 -2.797443e-06)) ((4.633846e-13 -2.669974e-10 -7.353483e-14) (-1.219604e-10 2.452514e-07 3.508305e-11))
313.004485    	((-9.779772e-06 -1.791423e-08 -1.027945e-05) (-6.488434e-06 -2.182538e-09 -2.797106e-06)) ((4.894895e-13 -2.667287e-10 -7.349858e-14) (-1.302856e-10 2.450217e-07 3.244200e-11))
322.14617     	((-9.769439e-06 -1.910514e-08 -1.021876e-05) (-6.481397e-06 -2.366853e-09 -2.796711e-06)) ((5.096574e-13 -2.664765e-10 -7.295109e-14) (-1.390589e-10 2.448120e-07 2.966010e-11))
331.288952    	((-9.759973e-06 -2.037835e-08 -1.016209e-05) (-6.474874e-06 -2.557728e-09 -2.796228e-06)) ((5.292049e-13 -2.662641e-10 -7.276747e-14) (-1.478434e-10 2.446220e-07 2.672975e-11))
340.432756    	((-9.751316e-06 -2.181939e-08 -1.010894e-05) (-6.468848e-06 -2.763301e-09 -2.795658e-06)) ((5.529160e-13 -2.660796e-10 -7.285693e-14) (-1.571302e-10 2.444503e-07 2.364262e-11))
349.577514    	((-9.743141e-06 -2.316140e-08 -1.005898e-05) (-6.463287e-06 -2.974349e-09 -2.795021e-06)) ((5.718849e-13 -2.659089e-10 -7.247239e-14) (-1.665656e-10 2.442954e-07 2.054453e-11))
358.723143    	((-9.735356e-06 -2.462324e-08 -1.001225e-05) (-6.458148e-06 -3.195091e-09 -2.794327e-06)) ((5.945588e-13 -2.657567e-10 -7.258264e-14) (-1.763898e-10 2.441555e-07 1.737074e-11))
367.869571    	((-9.727707e-06 -2.620733e-08 -9.968172e-06) (-6.453372e-06 -3.433390e-09 -2.793604e-06)) ((6.200204e-13 -2.656116e-10 -7.166849e-14) (-1.869880e-10 2.440277e-07 1.416063e-11))
377.016741    	((-9.720658e-06 -2.781363e-08 -9.926975e-06) (-6.448936e-06 -3.687202e-09 -2.792860e-06)) ((6.469540e-13 -2.654792e-10 -6.959939e-14) (-1.983330e-10 2.439110e-07 1.084091e-11))
386.164603    	((-9.714117e-06 -2.931156e-08 -9.888644e-06) (-6.444825e-06 -3.941336e-09 -2.792112e-06)) ((6.709152e-13 -2.653547e-10 -6.740836e-14) (-2.098138e-10 2.438042e-07 7.298274e-12))
395.313107    	((-9.707783e-06 -3.077954e-08 -9.852900e-06) (-6.440999e-06 -4.189583e-09 -2.791393e-06)) ((6.936795e-13 -2.652295e-10 -6.581638e-14) (-2.210274e-10 2.437048e-07 3.654396e-12))
404.462208    	((-9.701699e-06 -3.240231e-08 -9.819624e-06) (-6.437427e-06 -4.446368e-09 -2.790718e-06)) ((7.190332e-13 -2.651067e-10 -6.470392e-14) (-2.325879e-10 2.436112e-07 -2.021524e-14))
413.611863    	((-9.695802e-06 -3.404268e-08 -9.788448e-06) (-6.434075e-06 -4.711463e-09 -2.790092e-06)) ((7.445404e-13 -2.649862e-10 -6.324653e-14) (-2.446222e-10 2.435223e-07 -3.663441e-12))
422.762029    	((-9.690215e-06 -3.573322e-08 -9.759268e-06) (-6.430921e-06 -4.985070e-09 -2.789527e-06)) ((7.716604e-13 -2.648686e-10 -6.150602e-14) (-2.570355e-10 2.434374e-07 -7.288919e-12))
431.912669    	((-9.684981e-06 -3.744715e-08 -9.732019e-06) (-6.427954e-06 -5.264644e-09 -2.789024e-06)) ((7.986698e-13 -2.647566e-10 -5.962756e-14) (-2.697629e-10 2.433562e-07 -1.092920e-11))
441.063746    	((-9.680092e-06 -3.927017e-08 -9.706432e-06) (-6.425162e-06 -5.554254e-09 -2.788574e-06)) ((8.279805e-13 -2.646520e-10 -5.776020e-14) (-2.829682e-10 2.432787e-07 -1.458806e-11))
450.215226    	((-9.675589e-06 -4.107840e-08 -9.682507e-06) (-6.422539e-06 -5.849716e-09 -2.788159e-06)) ((8.561775e-13 -2.645570e-10 -5.587222e-14) (-2.963953e-10 2.432054e-07 -1.833557e-11))
459.36708     	((-9.671336e-06 -4.298297e-08 -9.659953e-06) (-6.420074e-06 -6.152294e-09 -2.787773e-06)) ((8.864699e-13 -2.644675e-10 -5.403114e-14) (-3.102063e-10 2.431359e-07 -2.224000e-11))
468.519277    	((-9.667382e-06 -4.493641e-08 -9.638763e-06) (-6.417759e-06 -6.463672e-09 -2.787407e-06)) ((9.168805e-13 -2.643866e-10 -5.236848e-14) (-3.244447e-10 2.430705e-07 -2.625612e-11))
477.671792    	((-9.663664e-06 -4.699937e-08 -9.618800e-06) (-6.415585e-06 -6.786780e-09 -2.787054e-06)) ((9.495565e-13 -2.643121e-10 -5.055604e-14) (-3.392451e-10 2.430091e-07 -3.040371e-11))
486.8246      	((-9.660222e-06 -4.914729e-08 -9.600039e-06) (-6.413546e-06 -7.124099e-09 -2.786706e-06)) ((9.831521e-13 -2.642459e-10 -4.880135e-14) (-3.546764e-10 2.429518e-07 -3.466223e-11))
495.977677    	((-9.657006e-06 -5.135344e-08 -9.582380e-06) (-6.411636e-06 -7.472542e-09 -2.786356e-06)) ((1.017027e-12 -2.641870e-10 -4.703638e-14) (-3.706068e-10 2.428985e-07 -3.907937e-11))
505.131       	((-9.653996e-06 -5.366027e-08 -9.565766e-06) (-6.409848e-06 -7.832479e-09 -2.786005e-06)) ((1.052273e-12 -2.641347e-10 -4.532139e-14) (-3.871008e-10 2.428492e-07 -4.372950e-11))
514.284548    	((-9.651196e-06 -5.606470e-08 -9.550171e-06) (-6.408176e-06 -8.206193e-09 -2.785651e-06)) ((1.088612e-12 -2.640884e-10 -4.349566e-14) (-4.042115e-10 2.428036e-07 -4.861194e-11))
523.4383      	((-9.648585e-06 -5.859713e-08 -9.535494e-06) (-6.406613e-06 -8.594972e-09 -2.785295e-06)) ((1.126246e-12 -2.640477e-10 -4.157943e-14) (-4.219926e-10 2.427616e-07 -5.371622e-11))
532.592236    	((-9.646161e-06 -6.124796e-08 -9.521723e-06) (-6.405155e-06 -9.000479e-09 -2.784938e-06)) ((1.165667e-12 -2.640123e-10 -3.974037e-14) (-4.405157e-10 2.427230e-07 -5.903409e-11))
541.746337    	((-9.643870e-06 -6.399997e-08 -9.508767e-06) (-6.403793e-06 -9.423364e-09 -2.784582e-06)) ((1.206553e-12 -2.639804e-10 -3.795432e-14) (-4.597885e-10 2.426875e-07 -6.454908e-11))
550.900583    	((-9.641723e-06 -6.686753e-08 -9.496643e-06) (-6.402520e-06 -9.864594e-09 -2.784231e-06)) ((1.249243e-12 -2.639521e-10 -3.591576e-14) (-4.798659e-10 2.426547e-07 -7.025144e-11))
560.054955    	((-9.639693e-06 -6.980961e-08 -9.485211e-06) (-6.401329e-06 -1.032232e-08 -2.783887e-06)) ((1.293139e-12 -2.639264e-10 -3.382912e-14) (-5.006816e-10 2.426243e-07 -7.614560e-11))
569.209437    	((-9.637774e-06 -7.286659e-08 -9.474500e-06) (-6.400212e-06 -1.079727e-08 -2.783552e-06)) ((1.339052e-12 -2.639028e-10 -3.166101e-14) (-5.222874e-10 2.425961e-07 -8.224094e-11))
