# Forces      
# CofR        : (0.000000e+00 0.000000e+00 0.000000e+00)
# Time        forces(pressure viscous)	moments(pressure viscous)
0             	((0.000000e+00 0.000000e+00 0.000000e+00) (-2.954824e-12 -1.002623e-02 6.685410e-13)) ((0.000000e+00 0.000000e+00 0.000000e+00) (-2.252780e-04 -2.510976e-14 4.323181e-09))
0.012         	((1.066706e-04 -2.962969e+00 4.924765e-01) (3.223629e-07 -1.517484e-02 -9.766760e-04)) ((3.446526e-05 2.381898e-06 5.368038e-07) (-4.694236e-04 1.335157e-08 -2.909098e-08))
0.0264        	((6.975747e-05 9.690920e-01 -4.275046e-01) (-4.091599e-08 -1.485368e-02 -1.458457e-03)) ((-1.125560e-05 -5.390425e-07 -1.115629e-07) (-5.113152e-04 7.265907e-09 -5.070130e-08))
0.04368       	((-2.345122e-04 8.584162e-02 -2.252493e-01) (-2.432677e-06 -1.220444e-02 -1.362344e-03)) ((-2.829579e-06 6.678922e-09 -1.028188e-07) (-4.302647e-04 5.005638e-09 -7.886942e-08))
0.064416      	((-1.242321e-04 2.426402e-02 -2.119336e-01) (-5.973395e-06 -1.081759e-02 -1.399270e-03)) ((-5.245638e-07 6.732661e-08 3.961278e-08) (-3.874558e-04 1.749875e-08 -1.349620e-07))
0.0892992     	((-1.008521e-04 -1.327158e-02 -1.844349e-01) (-3.770215e-06 -9.938919e-03 -1.388450e-03)) ((-3.961620e-07 8.775917e-08 -3.337629e-08) (-3.567497e-04 3.326691e-08 -1.602692e-07))
0.119159      	((-5.021869e-05 -5.968932e-03 -1.832025e-01) (-2.861084e-06 -9.315184e-03 -1.362936e-03)) ((-3.464247e-07 1.201190e-07 4.881708e-08) (-3.352226e-04 3.208866e-08 -1.633236e-07))
0.154991      	((-6.385700e-05 -9.617890e-03 -1.753558e-01) (-5.026257e-06 -8.871567e-03 -1.385999e-03)) ((-2.222529e-07 1.292141e-07 -2.737990e-09) (-3.193742e-04 2.468306e-08 -1.896903e-07))
0.197989      	((-9.302149e-05 -9.370438e-03 -1.759427e-01) (-6.480416e-06 -8.526087e-03 -1.463742e-03)) ((-1.369701e-07 1.174788e-07 3.615774e-08) (-3.066366e-04 2.695625e-08 -2.046699e-07))
0.249255      	((-4.993817e-05 -1.096042e-02 -1.729720e-01) (-6.356141e-06 -8.242293e-03 -1.564628e-03)) ((-4.603455e-09 1.191527e-07 3.350456e-08) (-2.956919e-04 2.564783e-08 -1.981277e-07))
0.308782      	((-3.220202e-05 -1.213089e-02 -1.726487e-01) (-4.969645e-06 -8.006820e-03 -1.676489e-03)) ((1.175409e-07 1.255240e-07 4.976082e-08) (-2.862465e-04 2.110198e-08 -2.095167e-07))
0.376578      	((-2.558663e-06 -1.411048e-02 -1.708685e-01) (-4.326705e-06 -7.816910e-03 -1.791611e-03)) ((2.478953e-07 1.292827e-07 5.824043e-08) (-2.783783e-04 1.032070e-08 -2.072726e-07))
0.452657      	((1.713104e-05 -1.615717e-02 -1.700992e-01) (-3.360528e-06 -7.669448e-03 -1.901547e-03)) ((3.749445e-07 1.400786e-07 7.602088e-08) (-2.721078e-04 -4.235974e-09 -2.115344e-07))
0.535379      	((5.596653e-05 -1.840469e-02 -1.684286e-01) (-2.022508e-06 -7.557974e-03 -2.001632e-03)) ((4.915391e-07 1.510647e-07 9.004632e-08) (-2.671178e-04 -2.028107e-08 -2.381088e-07))
0.617644      	((8.570969e-05 -2.068156e-02 -1.670334e-01) (-1.032992e-06 -7.475173e-03 -2.080260e-03)) ((5.860216e-07 1.610223e-07 1.083947e-07) (-2.631644e-04 -3.410285e-08 -2.666208e-07))
0.699376      	((1.154752e-04 -2.281491e-02 -1.650095e-01) (-5.702953e-07 -7.402401e-03 -2.138241e-03)) ((6.767213e-07 1.645777e-07 1.234322e-07) (-2.595811e-04 -4.083348e-08 -2.882016e-07))
0.780685      	((1.388650e-04 -2.469954e-02 -1.629117e-01) (-2.885705e-07 -7.328329e-03 -2.179141e-03)) ((7.639105e-07 1.657026e-07 1.382453e-07) (-2.560828e-04 -4.577909e-08 -3.121108e-07))
0.861842      	((1.797005e-04 -2.631073e-02 -1.605610e-01) (8.308800e-08 -7.249234e-03 -2.206920e-03)) ((8.444047e-07 1.633155e-07 1.500190e-07) (-2.527017e-04 -5.007663e-08 -3.376332e-07))
0.943125      	((2.192541e-04 -2.742731e-02 -1.582674e-01) (8.506795e-07 -7.168863e-03 -2.226845e-03)) ((9.139516e-07 1.606195e-07 1.601169e-07) (-2.495640e-04 -5.597163e-08 -3.532047e-07))
1.024663      	((2.777877e-04 -2.797966e-02 -1.559316e-01) (2.040525e-06 -7.093339e-03 -2.243510e-03)) ((9.650436e-07 1.592724e-07 1.676647e-07) (-2.467356e-04 -6.617183e-08 -3.686924e-07))
1.106417      	((3.344749e-04 -2.819218e-02 -1.537206e-01) (3.286708e-06 -7.023245e-03 -2.258314e-03)) ((1.003905e-06 1.585605e-07 1.745174e-07) (-2.441670e-04 -7.990370e-08 -3.966967e-07))
1.188288      	((3.993885e-04 -2.822017e-02 -1.515972e-01) (4.313438e-06 -6.958299e-03 -2.270639e-03)) ((1.034741e-06 1.585574e-07 1.795219e-07) (-2.418362e-04 -9.507034e-08 -4.357636e-07))
1.270229      	((4.623270e-04 -2.806530e-02 -1.495960e-01) (4.978392e-06 -6.898763e-03 -2.279530e-03)) ((1.056949e-06 1.590216e-07 1.833052e-07) (-2.397633e-04 -1.102287e-07 -4.762850e-07))
1.352251      	((5.360698e-04 -2.782280e-02 -1.477011e-01) (5.464219e-06 -6.844645e-03 -2.285696e-03)) ((1.063859e-06 1.610882e-07 1.872385e-07) (-2.379358e-04 -1.271236e-07 -5.190959e-07))
1.434374      	((6.153504e-04 -2.763776e-02 -1.459768e-01) (5.812880e-06 -6.795904e-03 -2.290121e-03)) ((1.060352e-06 1.630230e-07 1.901712e-07) (-2.363099e-04 -1.494675e-07 -5.713017e-07))
1.516591      	((7.065070e-04 -2.743688e-02 -1.444022e-01) (6.171941e-06 -6.751803e-03 -2.293299e-03)) ((1.044032e-06 1.653614e-07 1.907377e-07) (-2.348483e-04 -1.823025e-07 -6.218495e-07))
1.598891      	((8.199465e-04 -2.721628e-02 -1.429197e-01) (6.814313e-06 -6.712100e-03 -2.295119e-03)) ((1.024495e-06 1.678208e-07 1.895417e-07) (-2.335699e-04 -2.253489e-07 -6.698486e-07))
1.681267      	((9.432179e-04 -2.698516e-02 -1.415306e-01) (7.533873e-06 -6.676408e-03 -2.296267e-03)) ((1.007985e-06 1.696886e-07 1.877704e-07) (-2.324464e-04 -2.726721e-07 -7.283069e-07))
1.763715      	((1.083028e-03 -2.681355e-02 -1.402809e-01) (8.294117e-06 -6.643877e-03 -2.297615e-03)) ((9.970485e-07 1.718125e-07 1.859131e-07) (-2.314189e-04 -3.254013e-07 -7.981466e-07))
1.846232      	((1.236930e-03 -2.661586e-02 -1.391056e-01) (9.344917e-06 -6.613745e-03 -2.299176e-03)) ((9.899009e-07 1.743554e-07 1.841159e-07) (-2.304661e-04 -3.899797e-07 -8.696376e-07))
1.928812      	((1.421331e-03 -2.640139e-02 -1.379934e-01) (1.072361e-05 -6.585755e-03 -2.300411e-03)) ((9.866886e-07 1.770965e-07 1.831624e-07) (-2.296008e-04 -4.680235e-07 -9.422735e-07))
2.011448      	((1.625876e-03 -2.618058e-02 -1.369320e-01) (1.225311e-05 -6.559889e-03 -2.300886e-03)) ((9.854319e-07 1.795670e-07 1.829008e-07) (-2.288348e-04 -5.572927e-07 -1.024347e-06))
2.094136      	((1.852328e-03 -2.595419e-02 -1.359163e-01) (1.400004e-05 -6.536275e-03 -2.300640e-03)) ((9.828867e-07 1.826475e-07 1.831434e-07) (-2.281664e-04 -6.576867e-07 -1.114048e-06))
2.176871      	((2.087019e-03 -2.578419e-02 -1.349892e-01) (1.602969e-05 -6.515023e-03 -2.299999e-03)) ((9.783557e-07 1.859368e-07 1.836011e-07) (-2.275797e-04 -7.684408e-07 -1.210323e-06))
2.259648      	((2.342795e-03 -2.565214e-02 -1.341419e-01) (1.826234e-05 -6.495990e-03 -2.299381e-03)) ((9.718428e-07 1.888024e-07 1.842519e-07) (-2.270501e-04 -8.892079e-07 -1.316099e-06))
2.342463      	((2.648218e-03 -2.554882e-02 -1.333614e-01) (2.068149e-05 -6.478751e-03 -2.299252e-03)) ((9.647646e-07 1.921757e-07 1.847931e-07) (-2.265489e-04 -1.022682e-06 -1.437054e-06))
2.42531       	((3.004115e-03 -2.544753e-02 -1.326439e-01) (2.349395e-05 -6.462909e-03 -2.299845e-03)) ((9.575289e-07 1.963272e-07 1.854560e-07) (-2.260582e-04 -1.174385e-06 -1.571720e-06))
2.508184      	((3.419350e-03 -2.532173e-02 -1.319789e-01) (2.685719e-05 -6.448138e-03 -2.301109e-03)) ((9.510649e-07 2.009183e-07 1.859699e-07) (-2.255741e-04 -1.347818e-06 -1.715047e-06))
2.591079      	((3.887606e-03 -2.518667e-02 -1.313614e-01) (3.077875e-05 -6.434078e-03 -2.302837e-03)) ((9.454266e-07 2.062712e-07 1.863009e-07) (-2.250996e-04 -1.542279e-06 -1.869629e-06))
2.67399       	((4.413083e-03 -2.503711e-02 -1.307655e-01) (3.526655e-05 -6.420601e-03 -2.304780e-03)) ((9.399949e-07 2.129287e-07 1.866515e-07) (-2.246425e-04 -1.760366e-06 -2.043259e-06))
2.756911      	((5.002140e-03 -2.493374e-02 -1.302216e-01) (4.040726e-05 -6.408104e-03 -2.306525e-03)) ((9.364116e-07 2.209186e-07 1.869626e-07) (-2.242266e-04 -2.007081e-06 -2.236935e-06))
2.839838      	((5.676572e-03 -2.486578e-02 -1.297083e-01) (4.633013e-05 -6.396952e-03 -2.307737e-03)) ((9.334892e-07 2.307957e-07 1.873363e-07) (-2.238724e-04 -2.290014e-06 -2.451590e-06))
2.922765      	((6.437337e-03 -2.484212e-02 -1.292375e-01) (5.311909e-05 -6.387218e-03 -2.308235e-03)) ((9.315292e-07 2.415813e-07 1.882456e-07) (-2.235882e-04 -2.613339e-06 -2.692722e-06))
3.005687      	((7.299235e-03 -2.484949e-02 -1.288075e-01) (6.083067e-05 -6.378969e-03 -2.308008e-03)) ((9.302501e-07 2.531723e-07 1.894280e-07) (-2.233747e-04 -2.979180e-06 -2.960246e-06))
3.088596      	((8.270265e-03 -2.485695e-02 -1.284205e-01) (6.947566e-05 -6.372023e-03 -2.307311e-03)) ((9.292343e-07 2.663111e-07 1.905170e-07) (-2.232192e-04 -3.393213e-06 -3.262116e-06))
3.171487      	((9.374371e-03 -2.485503e-02 -1.280663e-01) (7.918049e-05 -6.366067e-03 -2.306294e-03)) ((9.278291e-07 2.818889e-07 1.916595e-07) (-2.231133e-04 -3.862295e-06 -3.608276e-06))
3.254351      	((1.061344e-02 -2.485958e-02 -1.277501e-01) (9.016660e-05 -6.361028e-03 -2.305104e-03)) ((9.264930e-07 2.997938e-07 1.924863e-07) (-2.230531e-04 -4.398122e-06 -3.999493e-06))
3.337182      	((1.199639e-02 -2.489539e-02 -1.274655e-01) (1.025972e-04 -6.356909e-03 -2.303856e-03)) ((9.271175e-07 3.184604e-07 1.934708e-07) (-2.230364e-04 -5.015136e-06 -4.446920e-06))
3.419969      	((1.352471e-02 -2.498771e-02 -1.272214e-01) (1.168804e-04 -6.353803e-03 -2.302202e-03)) ((9.291779e-07 3.382505e-07 1.958979e-07) (-2.230726e-04 -5.723012e-06 -4.950293e-06))
3.502705      	((1.523309e-02 -2.514348e-02 -1.270081e-01) (1.333806e-04 -6.352282e-03 -2.299895e-03)) ((9.315480e-07 3.613855e-07 1.993287e-07) (-2.231762e-04 -6.528715e-06 -5.495232e-06))
3.585378      	((1.712106e-02 -2.536860e-02 -1.268386e-01) (1.523584e-04 -6.352827e-03 -2.296666e-03)) ((9.342948e-07 3.874846e-07 2.030237e-07) (-2.233644e-04 -7.438549e-06 -6.077103e-06))
3.667978      	((1.917771e-02 -2.569958e-02 -1.267403e-01) (1.738928e-04 -6.355563e-03 -2.292311e-03)) ((9.384128e-07 4.157835e-07 2.067251e-07) (-2.236516e-04 -8.453292e-06 -6.703078e-06))
3.750495      	((2.144789e-02 -2.611415e-02 -1.267167e-01) (1.981799e-04 -6.360943e-03 -2.286758e-03)) ((9.430795e-07 4.477992e-07 2.102293e-07) (-2.240570e-04 -9.581706e-06 -7.369995e-06))
3.832918      	((2.393319e-02 -2.663379e-02 -1.267833e-01) (2.252845e-04 -6.369266e-03 -2.279726e-03)) ((9.483760e-07 4.832097e-07 2.130742e-07) (-2.246083e-04 -1.082747e-05 -8.096734e-06))
3.915233      	((2.665587e-02 -2.728679e-02 -1.269299e-01) (2.554545e-04 -6.380843e-03 -2.271067e-03)) ((9.550466e-07 5.240851e-07 2.152276e-07) (-2.253243e-04 -1.219811e-05 -8.883379e-06))
3.997428      	((2.955479e-02 -2.811211e-02 -1.272246e-01) (2.888199e-04 -6.396233e-03 -2.260705e-03)) ((9.630090e-07 5.685699e-07 2.176192e-07) (-2.262222e-04 -1.370159e-05 -9.712223e-06))
4.079491      	((3.260745e-02 -2.912308e-02 -1.276677e-01) (3.254625e-04 -6.416126e-03 -2.248909e-03)) ((9.697542e-07 6.154498e-07 2.206276e-07) (-2.273178e-04 -1.533171e-05 -1.058707e-05))
4.16141       	((3.578880e-02 -3.031192e-02 -1.282227e-01) (3.653551e-04 -6.440640e-03 -2.235970e-03)) ((9.745349e-07 6.644701e-07 2.237436e-07) (-2.286097e-04 -1.708876e-05 -1.151238e-05))
4.243164      	((3.893707e-02 -3.174760e-02 -1.289265e-01) (4.074740e-04 -6.469769e-03 -2.221642e-03)) ((9.813968e-07 7.085572e-07 2.275621e-07) (-2.301075e-04 -1.894852e-05 -1.249220e-05))
4.324721      	((4.193453e-02 -3.340016e-02 -1.297875e-01) (4.504226e-04 -6.503739e-03 -2.205357e-03)) ((9.904614e-07 7.470063e-07 2.337941e-07) (-2.318382e-04 -2.085349e-05 -1.352175e-05))
4.406073      	((4.466795e-02 -3.526012e-02 -1.308520e-01) (4.933314e-04 -6.543369e-03 -2.187317e-03)) ((1.000646e-06 7.780986e-07 2.417212e-07) (-2.337979e-04 -2.275876e-05 -1.453891e-05))
4.487217      	((4.700444e-02 -3.716972e-02 -1.320721e-01) (5.357658e-04 -6.588915e-03 -2.168073e-03)) ((1.011157e-06 7.973979e-07 2.518748e-07) (-2.359457e-04 -2.462744e-05 -1.547818e-05))
4.568154      	((4.874897e-02 -3.914523e-02 -1.334410e-01) (5.766609e-04 -6.639480e-03 -2.147848e-03)) ((1.025381e-06 8.039677e-07 2.615635e-07) (-2.382460e-04 -2.639468e-05 -1.632807e-05))
4.648889      	((4.980351e-02 -4.089066e-02 -1.348875e-01) (6.135075e-04 -6.693189e-03 -2.126733e-03)) ((1.039393e-06 7.994134e-07 2.682932e-07) (-2.406432e-04 -2.797658e-05 -1.709977e-05))
4.729434      	((5.008379e-02 -4.222384e-02 -1.362557e-01) (6.438404e-04 -6.747319e-03 -2.105136e-03)) ((1.048517e-06 7.857546e-07 2.718103e-07) (-2.430423e-04 -2.928974e-05 -1.777686e-05))
4.809805      	((4.945739e-02 -4.309644e-02 -1.375367e-01) (6.660321e-04 -6.799069e-03 -2.083849e-03)) ((1.055987e-06 7.558619e-07 2.717590e-07) (-2.453361e-04 -3.024624e-05 -1.829313e-05))
4.890025      	((4.784142e-02 -4.344504e-02 -1.387992e-01) (6.778798e-04 -6.845951e-03 -2.063942e-03)) ((1.060669e-06 7.092385e-07 2.710396e-07) (-2.474095e-04 -3.074205e-05 -1.862846e-05))
4.970125      	((4.530681e-02 -4.316849e-02 -1.398848e-01) (6.772325e-04 -6.885949e-03 -2.045091e-03)) ((1.065140e-06 6.472319e-07 2.725679e-07) (-2.492124e-04 -3.067486e-05 -1.877149e-05))
5.05014       	((4.189572e-02 -4.230654e-02 -1.408782e-01) (6.614651e-04 -6.918502e-03 -2.027244e-03)) ((1.064208e-06 5.709631e-07 2.713256e-07) (-2.507155e-04 -2.997096e-05 -1.876125e-05))
5.130112      	((3.787730e-02 -4.116104e-02 -1.418499e-01) (6.295086e-04 -6.943999e-03 -2.011134e-03)) ((1.064950e-06 4.876831e-07 2.648701e-07) (-2.519094e-04 -2.862283e-05 -1.864310e-05))
5.210119      	((3.385583e-02 -3.982539e-02 -1.427269e-01) (5.831802e-04 -6.963695e-03 -1.997177e-03)) ((1.066281e-06 4.093592e-07 2.559438e-07) (-2.528584e-04 -2.674765e-05 -1.844439e-05))
5.290187      	((3.011435e-02 -3.839277e-02 -1.435897e-01) (5.274369e-04 -6.979459e-03 -1.985500e-03)) ((1.067839e-06 3.452511e-07 2.447122e-07) (-2.536559e-04 -2.454366e-05 -1.815786e-05))
5.370338      	((2.703141e-02 -3.696604e-02 -1.445462e-01) (4.678697e-04 -6.993908e-03 -1.976425e-03)) ((1.064518e-06 3.038966e-07 2.325567e-07) (-2.543735e-04 -2.223824e-05 -1.778700e-05))
5.450604      	((2.487775e-02 -3.546653e-02 -1.453644e-01) (4.102279e-04 -7.007934e-03 -1.970754e-03)) ((1.047435e-06 2.839148e-07 2.230119e-07) (-2.550138e-04 -2.003544e-05 -1.733316e-05))
5.530999      	((2.347607e-02 -3.414644e-02 -1.462644e-01) (3.603873e-04 -7.021154e-03 -1.969371e-03)) ((1.015979e-06 2.853448e-07 2.211163e-07) (-2.555438e-04 -1.809439e-05 -1.677007e-05))
5.611527      	((2.275018e-02 -3.273237e-02 -1.470875e-01) (3.230698e-04 -7.032846e-03 -1.975511e-03)) ((9.657644e-07 3.075857e-07 2.235380e-07) (-2.558054e-04 -1.656154e-05 -1.603777e-05))
5.692183      	((2.244088e-02 -3.146264e-02 -1.478773e-01) (2.982656e-04 -7.040194e-03 -1.993004e-03)) ((9.114511e-07 3.422868e-07 2.222611e-07) (-2.555808e-04 -1.553833e-05 -1.521048e-05))
5.772954      	((2.233623e-02 -3.034615e-02 -1.486602e-01) (2.830034e-04 -7.040508e-03 -2.020382e-03)) ((8.683333e-07 3.804381e-07 2.147759e-07) (-2.548571e-04 -1.497130e-05 -1.443617e-05))
5.853822      	((2.235095e-02 -2.928141e-02 -1.492232e-01) (2.726198e-04 -7.032412e-03 -2.051580e-03)) ((8.328356e-07 4.202585e-07 2.075311e-07) (-2.538232e-04 -1.468620e-05 -1.386148e-05))
5.934751      	((2.252397e-02 -2.855281e-02 -1.495126e-01) (2.633410e-04 -7.016943e-03 -2.079114e-03)) ((8.092588e-07 4.580642e-07 2.048513e-07) (-2.527623e-04 -1.450038e-05 -1.362297e-05))
6.015726      	((2.282666e-02 -2.817810e-02 -1.493585e-01) (2.542395e-04 -6.998944e-03 -2.098175e-03)) ((7.941203e-07 4.862170e-07 2.079402e-07) (-2.518815e-04 -1.432014e-05 -1.368032e-05))
6.096735      	((2.321187e-02 -2.821993e-02 -1.489504e-01) (2.462115e-04 -6.982285e-03 -2.106771e-03)) ((8.015400e-07 4.913429e-07 2.138118e-07) (-2.512792e-04 -1.410764e-05 -1.392213e-05))
6.177768      	((2.357418e-02 -2.870213e-02 -1.484914e-01) (2.396955e-04 -6.969089e-03 -2.105664e-03)) ((8.309046e-07 4.732315e-07 2.176413e-07) (-2.509874e-04 -1.385048e-05 -1.427691e-05))
6.258813      	((2.393688e-02 -2.917788e-02 -1.480200e-01) (2.334546e-04 -6.960665e-03 -2.098064e-03)) ((8.662509e-07 4.403708e-07 2.197381e-07) (-2.509428e-04 -1.357374e-05 -1.470689e-05))
6.339863      	((2.427885e-02 -2.959634e-02 -1.475938e-01) (2.276160e-04 -6.955692e-03 -2.087802e-03)) ((8.979495e-07 4.029858e-07 2.196573e-07) (-2.510268e-04 -1.331107e-05 -1.518751e-05))
6.420911      	((2.439076e-02 -2.999115e-02 -1.473647e-01) (2.218311e-04 -6.953507e-03 -2.076840e-03)) ((9.230931e-07 3.674581e-07 2.185364e-07) (-2.511839e-04 -1.303966e-05 -1.566956e-05))
6.501953      	((2.426844e-02 -3.034714e-02 -1.473923e-01) (2.133224e-04 -6.952966e-03 -2.066102e-03)) ((9.526828e-07 3.350294e-07 2.135352e-07) (-2.514090e-04 -1.273950e-05 -1.621725e-05))
6.582988      	((2.394479e-02 -3.039314e-02 -1.475098e-01) (2.030904e-04 -6.952369e-03 -2.057230e-03)) ((9.770669e-07 3.200427e-07 2.055406e-07) (-2.516437e-04 -1.243297e-05 -1.677628e-05))
6.664016      	((2.348919e-02 -3.024415e-02 -1.476427e-01) (1.940199e-04 -6.953370e-03 -2.051202e-03)) ((9.932892e-07 3.239005e-07 1.942030e-07) (-2.518599e-04 -1.215028e-05 -1.711494e-05))
6.745037      	((2.294216e-02 -2.981740e-02 -1.478485e-01) (1.870370e-04 -6.956582e-03 -2.048931e-03)) ((9.866416e-07 3.462758e-07 1.884825e-07) (-2.520307e-04 -1.191075e-05 -1.714607e-05))
6.826061      	((2.240033e-02 -2.922725e-02 -1.480735e-01) (1.816786e-04 -6.960032e-03 -2.051760e-03)) ((9.587884e-07 3.825493e-07 1.918562e-07) (-2.520724e-04 -1.175421e-05 -1.694416e-05))
6.907099      	((2.184157e-02 -2.857148e-02 -1.482894e-01) (1.784892e-04 -6.962077e-03 -2.060437e-03)) ((9.182005e-07 4.195648e-07 1.980495e-07) (-2.519005e-04 -1.171134e-05 -1.655536e-05))
6.98816       	((2.153880e-02 -2.808168e-02 -1.484138e-01) (1.769632e-04 -6.961511e-03 -2.073534e-03)) ((8.808673e-07 4.470628e-07 2.019617e-07) (-2.515137e-04 -1.175039e-05 -1.611203e-05))
7.069248      	((2.146541e-02 -2.787635e-02 -1.484561e-01) (1.763092e-04 -6.958974e-03 -2.087519e-03)) ((8.557500e-07 4.601368e-07 2.054442e-07) (-2.510314e-04 -1.179245e-05 -1.572484e-05))
7.150359      	((2.178891e-02 -2.782950e-02 -1.483764e-01) (1.760366e-04 -6.954895e-03 -2.099557e-03)) ((8.434111e-07 4.696138e-07 2.089913e-07) (-2.505615e-04 -1.181266e-05 -1.547523e-05))
