# Forces      
# CofR        : (0.000000e+00 0.000000e+00 0.000000e+00)
# Time        forces(pressure viscous)	moments(pressure viscous)
0             	((0.000000e+00 0.000000e+00 0.000000e+00) (-3.991818e-05 1.102574e-14 -3.880798e-10)) ((0.000000e+00 0.000000e+00 0.000000e+00) (-8.765965e-17 8.969136e-07 -1.952361e-16))
0.012         	((-1.160902e-02 1.803986e-08 1.226628e-03) (-4.580194e-05 6.655155e-11 -2.107748e-08)) ((4.550034e-13 -1.568492e-07 1.863840e-12) (3.170031e-13 1.321962e-06 -1.142608e-12))
0.0264        	((8.166987e-04 -1.993640e-07 -7.147147e-05) (-4.671792e-05 -4.951093e-11 -3.215713e-08)) ((4.754710e-12 1.119812e-08 -2.196283e-12) (-9.125457e-12 1.479811e-06 -2.167663e-12))
0.04368       	((2.421553e-03 1.662554e-07 -4.452048e-05) (-4.150523e-05 -2.794872e-11 -2.668309e-08)) ((-6.484328e-12 3.669446e-08 -2.235564e-12) (-1.045404e-11 1.318301e-06 -1.181746e-12))
0.064416      	((2.282330e-05 1.419008e-08 -5.795722e-05) (-3.675871e-05 -7.998487e-10 -1.342504e-08)) ((2.087464e-12 -4.048276e-10 -2.216872e-13) (-2.607693e-12 1.183716e-06 -4.162953e-12))
0.0892992     	((-3.099139e-05 2.748566e-08 -3.611162e-05) (-3.393412e-05 -1.222219e-09 -1.077750e-08)) ((-1.061073e-12 -1.631263e-09 7.580709e-14) (1.727075e-12 1.119056e-06 -2.942161e-12))
0.119159      	((3.681438e-05 -1.680543e-08 -2.250421e-05) (-3.133355e-05 -9.293927e-10 -1.907948e-08)) ((1.295033e-12 7.002407e-10 -3.675824e-13) (1.078589e-12 1.047284e-06 6.125007e-12))
0.154991      	((1.958226e-05 1.923582e-08 -1.472039e-05) (-2.858146e-05 -7.715406e-10 -2.566304e-08)) ((-1.662748e-13 4.113821e-10 -6.025407e-13) (1.679818e-12 9.675356e-07 1.725606e-11))
0.197989      	((4.686113e-06 -9.642552e-09 -9.966436e-06) (-2.581140e-05 -5.284002e-10 -3.082344e-08)) ((1.095125e-12 1.161348e-10 -2.631990e-13) (3.702512e-12 8.864964e-07 2.556694e-11))
0.249587      	((-6.990643e-07 -6.296252e-09 -6.997032e-06) (-2.310216e-05 -3.373957e-10 -3.699688e-08)) ((7.760238e-13 1.907771e-11 5.594397e-13) (2.341809e-12 8.056531e-07 2.814829e-11))
0.311504      	((-3.135730e-06 -2.056303e-09 -5.220415e-06) (-2.053667e-05 -2.037015e-10 -4.431416e-08)) ((4.510169e-13 -1.337263e-11 7.543862e-14) (2.366634e-13 7.266523e-07 2.682468e-11))
0.385805      	((-4.324706e-06 -1.363730e-09 -4.059300e-06) (-1.818106e-05 -1.086649e-10 -5.185983e-08)) ((2.314748e-13 -2.105463e-11 9.476248e-14) (-1.375325e-12 6.514556e-07 2.194092e-11))
0.474966      	((-4.922427e-06 -6.012579e-10 -3.327775e-06) (-1.607634e-05 -5.554306e-11 -5.903003e-08)) ((1.606482e-13 -2.861620e-11 8.279984e-14) (-1.988116e-12 5.820027e-07 1.633540e-11))
0.581959      	((-5.174114e-06 -3.134208e-11 -2.841651e-06) (-1.423050e-05 -3.459504e-11 -6.611995e-08)) ((1.004717e-13 -3.518418e-11 4.991985e-14) (-1.789197e-12 5.192474e-07 1.303552e-11))
0.710351      	((-5.159331e-06 3.114621e-10 -2.549977e-06) (-1.263583e-05 -6.378921e-11 -7.278969e-08)) ((4.703921e-14 -3.870500e-11 3.543593e-14) (-1.325489e-12 4.636583e-07 1.289594e-11))
0.864421      	((-4.975983e-06 4.119488e-10 -2.365701e-06) (-1.127199e-05 -6.915095e-11 -7.842707e-08)) ((1.680830e-14 -3.934095e-11 2.133579e-14) (-8.580924e-13 4.152326e-07 1.186999e-11))
1.049306      	((-4.701786e-06 3.521114e-10 -2.256992e-06) (-1.010798e-05 -3.943076e-11 -8.336953e-08)) ((5.368090e-15 -3.807174e-11 6.633059e-15) (-5.219488e-13 3.733235e-07 8.773681e-12))
1.271167      	((-4.392786e-06 2.677993e-10 -2.186793e-06) (-9.111307e-06 -1.480754e-11 -8.843840e-08)) ((9.715765e-15 -3.601511e-11 -5.815937e-15) (-4.474205e-13 3.369667e-07 5.898365e-12))
1.5374        	((-4.071412e-06 3.070410e-10 -2.148616e-06) (-8.248264e-06 1.411648e-12 -9.426518e-08)) ((8.528832e-15 -3.360708e-11 -9.924979e-15) (-4.157289e-13 3.051877e-07 3.929931e-12))
1.85688       	((-3.755276e-06 1.709322e-10 -2.125213e-06) (-7.489328e-06 8.149801e-12 -1.010771e-07)) ((1.826464e-14 -3.104860e-11 -8.697107e-15) (-4.197542e-13 2.771380e-07 2.765709e-12))
2.240256      	((-3.455740e-06 6.424910e-11 -2.112993e-06) (-6.814977e-06 1.597324e-11 -1.087731e-07)) ((2.211316e-14 -2.898760e-11 -4.988955e-15) (-6.385065e-13 2.521858e-07 2.102202e-12))
2.700307      	((-3.177222e-06 -5.986048e-11 -2.106432e-06) (-6.212264e-06 2.492646e-11 -1.171763e-07)) ((2.064809e-14 -2.714263e-11 -4.037517e-15) (-1.016911e-12 2.298724e-07 2.012040e-12))
3.252369      	((-2.919266e-06 -9.314269e-11 -2.102308e-06) (-5.671488e-06 2.682192e-11 -1.262659e-07)) ((2.064683e-14 -2.537906e-11 -3.656871e-15) (-1.444360e-12 2.098451e-07 2.459658e-12))
3.914842      	((-2.679732e-06 -1.490004e-10 -2.099000e-06) (-5.184999e-06 2.203705e-11 -1.360791e-07)) ((2.233307e-14 -2.367442e-11 -1.385304e-15) (-1.934454e-12 1.918254e-07 2.838200e-12))
4.709811      	((-2.459741e-06 -1.604191e-10 -2.095181e-06) (-4.747163e-06 1.314295e-11 -1.466413e-07)) ((2.301198e-14 -2.215531e-11 -8.389096e-17) (-2.485771e-12 1.756052e-07 3.065735e-12))
5.663773      	((-2.259972e-06 -9.912594e-11 -2.088962e-06) (-4.353943e-06 4.500278e-12 -1.578898e-07)) ((1.608909e-14 -2.091980e-11 -7.315468e-17) (-2.822830e-12 1.610361e-07 3.074650e-12))
6.808528      	((-2.080113e-06 -1.208140e-10 -2.079452e-06) (-4.001778e-06 -3.879679e-12 -1.697464e-07)) ((2.384902e-14 -1.991984e-11 -2.758851e-15) (-3.204817e-12 1.479882e-07 2.733834e-12))
8.182233      	((-1.919699e-06 -2.622712e-10 -2.066348e-06) (-3.686719e-06 -1.485371e-11 -1.822825e-07)) ((2.814281e-14 -1.909969e-11 -2.096901e-15) (-3.969019e-12 1.363167e-07 2.318415e-12))
9.83068       	((-1.777614e-06 -4.364992e-10 -2.049903e-06) (-3.404261e-06 -2.616151e-11 -1.955676e-07)) ((3.413279e-14 -1.844264e-11 -2.954360e-15) (-5.115413e-12 1.258551e-07 2.120283e-12))
11.808816     	((-1.652192e-06 -4.520189e-10 -2.030447e-06) (-3.150170e-06 -3.437318e-11 -2.096679e-07)) ((3.522576e-14 -1.791611e-11 -2.792497e-15) (-6.261628e-12 1.164460e-07 2.464981e-12))
14.182579     	((-1.542480e-06 -4.440959e-10 -2.008532e-06) (-2.921079e-06 -3.803310e-11 -2.246467e-07)) ((4.228395e-14 -1.753799e-11 -1.547331e-15) (-7.495392e-12 1.079618e-07 3.347542e-12))
17.031095     	((-1.447960e-06 -3.826218e-10 -1.984143e-06) (-2.714390e-06 -3.962210e-11 -2.404905e-07)) ((3.545243e-14 -1.732492e-11 -5.046599e-16) (-8.552688e-12 1.003027e-07 4.701937e-12))
20.449314     	((-1.368491e-06 -3.615177e-10 -1.957536e-06) (-2.528222e-06 -3.721007e-11 -2.570627e-07)) ((3.030652e-14 -1.730550e-11 4.363808e-17) (-9.345785e-12 9.339891e-08 6.364779e-12))
24.551176     	((-1.303263e-06 -4.700947e-10 -1.929317e-06) (-2.361173e-06 -4.356403e-11 -2.741387e-07)) ((3.243149e-14 -1.746739e-11 -6.641215e-16) (-1.028180e-11 8.720074e-08 7.987802e-12))
29.473411     	((-1.252162e-06 -4.784933e-10 -1.898089e-06) (-2.212160e-06 -5.688442e-11 -2.914576e-07)) ((3.150560e-14 -1.780133e-11 -1.111447e-15) (-1.090688e-11 8.166961e-08 9.328864e-12))
35.380094     	((-1.214423e-06 -4.934091e-10 -1.863920e-06) (-2.080109e-06 -7.180749e-11 -3.087322e-07)) ((3.346432e-14 -1.830343e-11 -8.649259e-16) (-1.150498e-11 7.676832e-08 1.028313e-11))
42.468112     	((-1.189663e-06 -4.519255e-10 -1.826632e-06) (-1.963908e-06 -8.478932e-11 -3.256845e-07)) ((2.579213e-14 -1.898218e-11 -2.317692e-15) (-1.160760e-11 7.246036e-08 1.134098e-11))
50.973735     	((-1.176776e-06 -4.077107e-10 -1.786993e-06) (-1.862549e-06 -9.231848e-11 -3.420596e-07)) ((1.699229e-14 -1.983489e-11 -3.442147e-15) (-1.083842e-11 6.871480e-08 1.315331e-11))
61.180482     	((-1.175266e-06 -3.335792e-10 -1.744571e-06) (-1.775191e-06 -9.776605e-11 -3.576066e-07)) ((9.518501e-15 -2.087062e-11 -3.711576e-15) (-9.456162e-12 6.550681e-08 1.556139e-11))
73.428578     	((-1.183590e-06 -2.395823e-10 -1.700348e-06) (-1.701075e-06 -9.609387e-11 -3.721688e-07)) ((6.979774e-15 -2.207620e-11 -4.505588e-15) (-7.894566e-12 6.281546e-08 1.824203e-11))
88.126294     	((-1.199329e-06 -1.788245e-10 -1.654156e-06) (-1.639358e-06 -9.708355e-11 -3.857622e-07)) ((2.776790e-15 -2.332994e-11 -4.966447e-15) (-6.351311e-12 6.060927e-08 2.058260e-11))
105.763553    	((-1.220458e-06 -6.278808e-11 -1.606653e-06) (-1.589122e-06 -9.509922e-11 -3.982538e-07)) ((-7.845983e-16 -2.454522e-11 -5.039100e-15) (-4.572160e-12 5.884314e-08 2.248678e-11))
126.474       	((-1.243622e-06 6.644061e-11 -1.557995e-06) (-1.549477e-06 -8.751783e-11 -4.090274e-07)) ((-1.488158e-15 -2.554780e-11 -5.998636e-15) (-2.862886e-12 5.746929e-08 2.359562e-11))
150.238167    	((-1.264491e-06 2.261386e-10 -1.508485e-06) (-1.518477e-06 -6.822965e-11 -4.174784e-07)) ((-3.187581e-15 -2.627343e-11 -6.442159e-15) (-9.813300e-13 5.640081e-08 2.382884e-11))
177.043195    	((-1.279960e-06 4.097091e-10 -1.458067e-06) (-1.493839e-06 -3.226427e-11 -4.234851e-07)) ((-7.354506e-15 -2.678718e-11 -6.637535e-15) (1.257399e-12 5.554598e-08 2.335868e-11))
206.887375    	((-1.289514e-06 6.117002e-10 -1.409397e-06) (-1.473567e-06 1.753215e-11 -4.273080e-07)) ((-1.235435e-14 -2.714027e-11 -6.404914e-15) (3.712953e-12 5.484270e-08 2.272240e-11))
237.33626     	((-1.295777e-06 7.852773e-10 -1.367653e-06) (-1.456912e-06 7.216599e-11 -4.296778e-07)) ((-1.594021e-14 -2.739210e-11 -7.469853e-15) (6.304035e-12 5.426839e-08 2.221123e-11))
267.847301    	((-1.298701e-06 8.767501e-10 -1.333208e-06) (-1.442818e-06 1.243989e-10 -4.312655e-07)) ((-1.562160e-14 -2.754396e-11 -8.110948e-15) (8.572283e-12 5.378908e-08 2.187517e-11))
298.397211    	((-1.300244e-06 9.451580e-10 -1.304542e-06) (-1.430885e-06 1.682017e-10 -4.324375e-07)) ((-1.624268e-14 -2.763096e-11 -8.540700e-15) (1.034493e-11 5.338845e-08 2.153462e-11))
328.970681    	((-1.301003e-06 9.794029e-10 -1.280009e-06) (-1.420750e-06 2.010669e-10 -4.333848e-07)) ((-1.624161e-14 -2.766986e-11 -8.737119e-15) (1.170852e-11 5.305112e-08 2.117534e-11))
359.564082    	((-1.301279e-06 9.888959e-10 -1.258363e-06) (-1.412135e-06 2.281290e-10 -4.341856e-07)) ((-1.524625e-14 -2.768311e-11 -8.779229e-15) (1.264932e-11 5.276617e-08 2.064577e-11))
390.176752    	((-1.301186e-06 9.758705e-10 -1.239636e-06) (-1.404799e-06 2.479342e-10 -4.348886e-07)) ((-1.348355e-14 -2.768141e-11 -8.563371e-15) (1.317062e-11 5.252446e-08 2.015437e-11))
420.806966    	((-1.300857e-06 9.486058e-10 -1.223333e-06) (-1.398532e-06 2.611517e-10 -4.355215e-07)) ((-1.167964e-14 -2.766835e-11 -8.614971e-15) (1.334834e-11 5.231869e-08 1.955812e-11))
451.4524      	((-1.300406e-06 9.060565e-10 -1.209241e-06) (-1.393160e-06 2.703493e-10 -4.360977e-07)) ((-8.908156e-15 -2.765038e-11 -8.542151e-15) (1.329345e-11 5.214289e-08 1.882084e-11))
482.111013    	((-1.299906e-06 8.658544e-10 -1.196958e-06) (-1.388550e-06 2.767227e-10 -4.366288e-07)) ((-6.601824e-15 -2.763130e-11 -8.676460e-15) (1.308348e-11 5.199234e-08 1.806308e-11))
512.78111     	((-1.299369e-06 8.142975e-10 -1.186390e-06) (-1.384582e-06 2.783790e-10 -4.371127e-07)) ((-4.588379e-15 -2.761153e-11 -8.608561e-15) (1.268974e-11 5.186303e-08 1.725195e-11))
543.461237    	((-1.298872e-06 7.616492e-10 -1.177158e-06) (-1.381162e-06 2.773139e-10 -4.375470e-07)) ((-2.379202e-15 -2.759255e-11 -8.592990e-15) (1.216398e-11 5.175189e-08 1.638958e-11))
574.150128    	((-1.298381e-06 7.080367e-10 -1.169034e-06) (-1.378208e-06 2.733413e-10 -4.379347e-07)) ((-5.026723e-16 -2.757493e-11 -8.672045e-15) (1.158215e-11 5.165608e-08 1.554636e-11))
604.846696    	((-1.297923e-06 6.493295e-10 -1.161959e-06) (-1.375650e-06 2.676421e-10 -4.382793e-07)) ((8.884046e-16 -2.755788e-11 -8.610352e-15) (1.094893e-11 5.157333e-08 1.471586e-11))
635.549996    	((-1.297481e-06 5.879632e-10 -1.155756e-06) (-1.373431e-06 2.603171e-10 -4.385862e-07)) ((2.987997e-15 -2.754165e-11 -8.656562e-15) (1.024795e-11 5.150164e-08 1.386922e-11))
666.2592      	((-1.297075e-06 5.261108e-10 -1.150317e-06) (-1.371503e-06 2.519457e-10 -4.388582e-07)) ((5.012990e-15 -2.752761e-11 -8.605611e-15) (9.498436e-12 5.143948e-08 1.302187e-11))
696.973586    	((-1.296695e-06 4.624297e-10 -1.145562e-06) (-1.369826e-06 2.420366e-10 -4.390986e-07)) ((6.667942e-15 -2.751508e-11 -8.528584e-15) (8.701680e-12 5.138548e-08 1.224263e-11))
727.692525    	((-1.296344e-06 4.016273e-10 -1.141373e-06) (-1.368364e-06 2.310653e-10 -4.393109e-07)) ((8.148654e-15 -2.750330e-11 -8.484007e-15) (7.893619e-12 5.133846e-08 1.151696e-11))
758.415466    	((-1.296023e-06 3.424002e-10 -1.137693e-06) (-1.367088e-06 2.194990e-10 -4.394981e-07)) ((9.598467e-15 -2.749251e-11 -8.466134e-15) (7.080425e-12 5.129745e-08 1.083276e-11))
789.141927    	((-1.295732e-06 2.894487e-10 -1.134458e-06) (-1.365973e-06 2.077425e-10 -4.396622e-07)) ((1.073974e-14 -2.748273e-11 -8.433829e-15) (6.300579e-12 5.126166e-08 1.017732e-11))
819.871488    	((-1.295466e-06 2.398905e-10 -1.131613e-06) (-1.364999e-06 1.960105e-10 -4.398057e-07)) ((1.206796e-14 -2.747402e-11 -8.507518e-15) (5.559108e-12 5.123038e-08 9.560732e-12))
850.603775    	((-1.295228e-06 1.949918e-10 -1.129115e-06) (-1.364146e-06 1.842561e-10 -4.399308e-07)) ((1.310683e-14 -2.746655e-11 -8.548151e-15) (4.861379e-12 5.120305e-08 9.024324e-12))
881.338464    	((-1.295012e-06 1.513612e-10 -1.126906e-06) (-1.363399e-06 1.727180e-10 -4.400399e-07)) ((1.400597e-14 -2.745985e-11 -8.534638e-15) (4.201877e-12 5.117912e-08 8.545509e-12))
912.075268    	((-1.294818e-06 1.144331e-10 -1.124958e-06) (-1.362745e-06 1.621477e-10 -4.401350e-07)) ((1.482728e-14 -2.745386e-11 -8.526343e-15) (3.593102e-12 5.115816e-08 8.104749e-12))
942.813935    	((-1.294642e-06 7.904303e-11 -1.123241e-06) (-1.362170e-06 1.523448e-10 -4.402181e-07)) ((1.564194e-14 -2.744856e-11 -8.522440e-15) (3.028075e-12 5.113977e-08 7.703534e-12))
973.554245    	((-1.294485e-06 4.898328e-11 -1.121731e-06) (-1.361665e-06 1.433929e-10 -4.402905e-07)) ((1.630827e-14 -2.744390e-11 -8.526196e-15) (2.511485e-12 5.112363e-08 7.338919e-12))
1004.296002   	((-1.294345e-06 2.056665e-11 -1.120398e-06) (-1.361222e-06 1.351440e-10 -4.403536e-07)) ((1.696305e-14 -2.743977e-11 -8.522936e-15) (2.036594e-12 5.110946e-08 7.006477e-12))
1035.039035   	((-1.294219e-06 -2.682064e-12 -1.119221e-06) (-1.360832e-06 1.276579e-10 -4.404087e-07)) ((1.750170e-14 -2.743614e-11 -8.522162e-15) (1.607954e-12 5.109702e-08 6.708831e-12))
1065.783193   	((-1.294106e-06 -2.343480e-11 -1.118175e-06) (-1.360489e-06 1.209494e-10 -4.404566e-07)) ((1.798019e-14 -2.743291e-11 -8.520976e-15) (1.225109e-12 5.108607e-08 6.443518e-12))
1096.528341   	((-1.294006e-06 -4.178220e-11 -1.117261e-06) (-1.360188e-06 1.149731e-10 -4.404985e-07)) ((1.840816e-14 -2.743008e-11 -8.513575e-15) (8.820717e-13 5.107645e-08 6.205210e-12))
1127.274363   	((-1.293915e-06 -5.724342e-11 -1.116451e-06) (-1.359922e-06 1.097220e-10 -4.405351e-07)) ((1.876598e-14 -2.742759e-11 -8.504546e-15) (5.785577e-13 5.106798e-08 5.992119e-12))
1158.021155   	((-1.293835e-06 -7.093093e-11 -1.115738e-06) (-1.359688e-06 1.050931e-10 -4.405671e-07)) ((1.910556e-14 -2.742543e-11 -8.500526e-15) (3.100177e-13 5.106052e-08 5.802060e-12))
1188.768625   	((-1.293763e-06 -8.246688e-11 -1.115109e-06) (-1.359482e-06 1.010415e-10 -4.405950e-07)) ((1.940690e-14 -2.742355e-11 -8.505603e-15) (7.443949e-14 5.105394e-08 5.635342e-12))
1219.516694   	((-1.293699e-06 -9.306966e-11 -1.114552e-06) (-1.359301e-06 9.751377e-11 -4.406193e-07)) ((1.968067e-14 -2.742187e-11 -8.506372e-15) (-1.328351e-13 5.104815e-08 5.486801e-12))
1250.265291   	((-1.293642e-06 -1.020906e-10 -1.114059e-06) (-1.359140e-06 9.446492e-11 -4.406406e-07)) ((1.991388e-14 -2.742038e-11 -8.505159e-15) (-3.145625e-13 5.104304e-08 5.353238e-12))
1281.014353   	((-1.293591e-06 -1.101979e-10 -1.113624e-06) (-1.358999e-06 9.181413e-11 -4.406592e-07)) ((2.011894e-14 -2.741909e-11 -8.505104e-15) (-4.743352e-13 5.103853e-08 5.233031e-12))
1311.763825   	((-1.293546e-06 -1.171868e-10 -1.113239e-06) (-1.358874e-06 8.954337e-11 -4.406755e-07)) ((2.026882e-14 -2.741797e-11 -8.498121e-15) (-6.139501e-13 5.103456e-08 5.122815e-12))
1342.513659   	((-1.293506e-06 -1.241241e-10 -1.112901e-06) (-1.358764e-06 8.755519e-11 -4.406897e-07)) ((2.041982e-14 -2.741698e-11 -8.493699e-15) (-7.383160e-13 5.103104e-08 5.022614e-12))
1373.263814   	((-1.293469e-06 -1.299266e-10 -1.112599e-06) (-1.358667e-06 8.582190e-11 -4.407021e-07)) ((2.054847e-14 -2.741610e-11 -8.490291e-15) (-8.481004e-13 5.102794e-08 4.932624e-12))
1404.01425    	((-1.293439e-06 -1.354192e-10 -1.112335e-06) (-1.358581e-06 8.427450e-11 -4.407130e-07)) ((2.066423e-14 -2.741536e-11 -8.487511e-15) (-9.464216e-13 5.102520e-08 4.851674e-12))
1434.764937   	((-1.293410e-06 -1.403185e-10 -1.112100e-06) (-1.358505e-06 8.289366e-11 -4.407225e-07)) ((2.077163e-14 -2.741467e-11 -8.484535e-15) (-1.034722e-12 5.102278e-08 4.778875e-12))
1465.515843   	((-1.293385e-06 -1.449827e-10 -1.111892e-06) (-1.358438e-06 8.164267e-11 -4.407309e-07)) ((2.087214e-14 -2.741407e-11 -8.480540e-15) (-1.114558e-12 5.102065e-08 4.713556e-12))
1496.266945   	((-1.293362e-06 -1.492080e-10 -1.111709e-06) (-1.358379e-06 8.049881e-11 -4.407382e-07)) ((2.096421e-14 -2.741354e-11 -8.478500e-15) (-1.187112e-12 5.101876e-08 4.654934e-12))
1527.018218   	((-1.293343e-06 -1.531694e-10 -1.111547e-06) (-1.358327e-06 7.945288e-11 -4.407446e-07)) ((2.104568e-14 -2.741308e-11 -8.476061e-15) (-1.253235e-12 5.101709e-08 4.602134e-12))
1557.769645   	((-1.293326e-06 -1.569858e-10 -1.111403e-06) (-1.358281e-06 7.848111e-11 -4.407502e-07)) ((2.112126e-14 -2.741267e-11 -8.473610e-15) (-1.313874e-12 5.101562e-08 4.554797e-12))
1588.521207   	((-1.293310e-06 -1.605804e-10 -1.111274e-06) (-1.358240e-06 7.757016e-11 -4.407551e-07)) ((2.119458e-14 -2.741230e-11 -8.472283e-15) (-1.369745e-12 5.101432e-08 4.512240e-12))
1619.272888   	((-1.293297e-06 -1.637099e-10 -1.111162e-06) (-1.358204e-06 7.673120e-11 -4.407594e-07)) ((2.125471e-14 -2.741199e-11 -8.469908e-15) (-1.420840e-12 5.101317e-08 4.473964e-12))
1650.024676   	((-1.293284e-06 -1.666052e-10 -1.111063e-06) (-1.358172e-06 7.594436e-11 -4.407632e-07)) ((2.131073e-14 -2.741171e-11 -8.468525e-15) (-1.467958e-12 5.101215e-08 4.439571e-12))
1680.776557   	((-1.293273e-06 -1.691983e-10 -1.110975e-06) (-1.358144e-06 7.521506e-11 -4.407665e-07)) ((2.136136e-14 -2.741147e-11 -8.467080e-15) (-1.511227e-12 5.101125e-08 4.408681e-12))
1711.528521   	((-1.293263e-06 -1.715774e-10 -1.110897e-06) (-1.358119e-06 7.453786e-11 -4.407694e-07)) ((2.140776e-14 -2.741125e-11 -8.465941e-15) (-1.550952e-12 5.101045e-08 4.380997e-12))
1742.280559   	((-1.293255e-06 -1.737142e-10 -1.110829e-06) (-1.358097e-06 7.391204e-11 -4.407719e-07)) ((2.144910e-14 -2.741106e-11 -8.464908e-15) (-1.587305e-12 5.100975e-08 4.356222e-12))
1773.032662   	((-1.293247e-06 -1.756380e-10 -1.110768e-06) (-1.358078e-06 7.333657e-11 -4.407741e-07)) ((2.148635e-14 -2.741089e-11 -8.464162e-15) (-1.620452e-12 5.100913e-08 4.334082e-12))
1803.784823   	((-1.293241e-06 -1.773512e-10 -1.110715e-06) (-1.358061e-06 7.281044e-11 -4.407761e-07)) ((2.151926e-14 -2.741074e-11 -8.463825e-15) (-1.650541e-12 5.100858e-08 4.314311e-12))
