# Forces      
# CofR        : (0.000000e+00 0.000000e+00 0.000000e+00)
# Time        forces(pressure viscous)	moments(pressure viscous)
0             	((0.000000e+00 0.000000e+00 0.000000e+00) (0.000000e+00 0.000000e+00 0.000000e+00)) ((0.000000e+00 0.000000e+00 0.000000e+00) (0.000000e+00 0.000000e+00 0.000000e+00))
0.012         	((1.421839e-08 -1.220772e-06 9.354178e-09) (2.494532e-10 -1.305368e-08 5.478038e-10)) ((9.695720e-11 6.729261e-12 1.776194e-08) (-2.417661e-10 -6.222309e-12 3.366717e-05))
0.0264        	((-4.964572e-08 4.132729e-07 -2.129278e-07) (-1.807757e-10 -1.403284e-08 -2.907327e-09)) ((2.177661e-10 1.582838e-11 6.801716e-09) (-3.689228e-10 -1.927163e-12 2.950850e-05))
0.04368       	((3.905886e-08 -2.387522e-07 -7.191669e-07) (-1.206795e-09 -7.493008e-09 -9.203027e-09)) ((-6.901068e-11 2.232900e-11 4.862222e-09) (-2.126270e-10 4.995147e-11 2.568821e-05))
0.064416      	((-6.920355e-08 -8.203907e-08 -1.306197e-06) (-3.052799e-09 -4.282080e-10 -2.404223e-09)) ((5.630400e-11 3.699200e-11 4.165898e-09) (4.682356e-11 1.402103e-10 2.235866e-05))
0.0892992     	((-2.698884e-08 -1.279491e-07 -2.072338e-06) (-5.117550e-09 4.318379e-09 4.005464e-08)) ((-1.111715e-11 4.285205e-11 3.611185e-09) (2.211732e-10 2.379152e-10 1.959271e-05))
0.119159      	((-2.457717e-08 -1.233151e-08 -2.796005e-06) (-7.960507e-09 1.014381e-08 1.113077e-07)) ((1.620053e-12 4.499560e-11 3.118191e-09) (3.191747e-10 3.016128e-10 1.734463e-05))
0.154991      	((-9.735325e-09 -1.093073e-07 -3.619361e-06) (-9.712275e-09 1.286103e-08 1.952403e-07)) ((-1.113285e-11 4.633884e-11 2.779266e-09) (2.996994e-10 3.031536e-10 1.546820e-05))
0.197989      	((1.235833e-08 -8.748255e-08 -4.550536e-06) (-1.198019e-08 1.293792e-08 3.329140e-07)) ((-5.719833e-12 4.887777e-11 2.470785e-09) (2.727404e-10 2.536897e-10 1.377734e-05))
0.249587      	((5.502794e-08 -1.440462e-07 -5.412521e-06) (-1.597537e-08 9.864398e-09 5.620791e-07)) ((-2.088860e-11 5.422439e-11 2.205224e-09) (2.267419e-10 3.773858e-10 1.221070e-05))
0.311504      	((1.044515e-07 -1.178647e-07 -6.206029e-06) (-1.561782e-08 3.613326e-09 8.757555e-07)) ((-1.794328e-11 5.440200e-11 1.957082e-09) (1.642755e-10 6.190003e-10 1.080678e-05))
0.385805      	((2.308126e-07 -9.709759e-08 -6.945876e-06) (-1.229407e-08 -1.081576e-09 1.259681e-06)) ((-5.706558e-13 5.396163e-11 1.734838e-09) (6.166009e-11 6.826099e-10 9.580765e-06))
0.474966      	((2.029135e-07 -4.961984e-08 -7.738262e-06) (-1.028403e-08 -4.289081e-09 1.700831e-06)) ((1.549384e-12 5.586852e-11 1.526613e-09) (2.799214e-11 5.895533e-10 8.522430e-06))
0.581959      	((7.204691e-08 3.958582e-08 -8.633316e-06) (-1.036915e-08 -5.957684e-09 2.197141e-06)) ((9.888525e-12 4.335791e-11 1.346334e-09) (4.490933e-11 6.145113e-10 7.606968e-06))
0.710351      	((4.512924e-08 3.911413e-08 -9.579161e-06) (-1.309480e-08 5.894499e-10 2.753243e-06)) ((1.299232e-11 2.166218e-11 1.200684e-09) (1.442322e-10 7.522864e-10 6.810214e-06))
0.864421      	((3.366824e-08 -5.875075e-10 -1.070907e-05) (-1.581862e-08 4.219053e-09 3.367678e-06)) ((2.073698e-11 5.191156e-12 1.086511e-09) (2.210947e-10 7.711987e-10 6.116440e-06))
1.049306      	((1.277756e-07 2.838909e-08 -1.182732e-05) (-1.638725e-08 1.342762e-09 4.054615e-06)) ((2.333833e-11 -6.289173e-12 9.914070e-10) (1.878038e-10 6.718299e-10 5.517087e-06))
1.271167      	((1.404846e-07 4.960704e-08 -1.294275e-05) (-8.560335e-09 7.650975e-10 4.804403e-06)) ((2.053792e-11 -2.476609e-11 9.053653e-10) (1.376431e-10 5.397731e-10 5.005909e-06))
1.5374        	((1.851898e-07 1.237305e-08 -1.405821e-05) (7.198364e-09 -6.291360e-09 5.587601e-06)) ((2.956396e-11 -3.390615e-11 8.197737e-10) (-2.446601e-10 1.725894e-10 4.575196e-06))
1.85688       	((1.634026e-07 -5.735308e-08 -1.520553e-05) (2.902215e-08 -1.850095e-08 6.387438e-06)) ((1.995922e-11 -3.925404e-11 7.442815e-10) (-6.911153e-10 -3.687827e-10 4.213496e-06))
2.240256      	((1.504142e-07 -8.189853e-08 -1.650390e-05) (4.767098e-08 -3.439012e-08 7.200015e-06)) ((6.688250e-12 -5.152309e-11 6.771604e-10) (-1.006965e-09 -9.875278e-10 3.906218e-06))
2.700307      	((9.343630e-08 -1.197552e-07 -1.801086e-05) (7.980849e-08 -5.206356e-08 8.028168e-06)) ((9.519927e-13 -7.287401e-11 6.106499e-10) (-1.253991e-09 -1.428279e-09 3.638955e-06))
3.252369      	((1.256926e-07 -1.278574e-07 -1.959397e-05) (1.050986e-07 -6.337306e-08 8.877932e-06)) ((-6.803779e-12 -7.864220e-11 5.527239e-10) (-1.401493e-09 -1.738933e-09 3.400612e-06))
3.914842      	((9.949424e-08 -8.642670e-08 -2.132285e-05) (1.109035e-07 -6.376122e-08 9.769821e-06)) ((-6.715891e-12 -9.129962e-11 5.057974e-10) (-1.483799e-09 -1.802331e-09 3.184675e-06))
4.709811      	((1.339597e-07 -7.870364e-08 -2.318149e-05) (1.028448e-07 -5.612602e-08 1.071772e-05)) ((-5.261630e-12 -9.915280e-11 4.624455e-10) (-1.266570e-09 -1.693697e-09 2.987714e-06))
5.663773      	((4.935203e-08 -1.619008e-07 -2.526321e-05) (8.640414e-08 -4.866539e-08 1.171605e-05)) ((-5.939217e-12 -1.044937e-10 4.215205e-10) (-8.789085e-10 -1.379860e-09 2.807370e-06))
6.808528      	((1.002534e-08 -1.818614e-07 -2.733488e-05) (5.148966e-08 -3.572245e-08 1.278996e-05)) ((-8.770035e-12 -1.050039e-10 3.853961e-10) (-5.676716e-10 -8.183210e-10 2.642764e-06))
8.175589      	((-4.494644e-08 -1.814415e-07 -2.933057e-05) (2.291223e-08 -3.027627e-08 1.394290e-05)) ((-1.021158e-11 -1.102623e-10 3.553503e-10) (-4.204135e-10 -3.464828e-10 2.494360e-06))
9.770396      	((-4.941345e-08 -1.640628e-07 -3.126120e-05) (1.220552e-08 -3.409656e-08 1.511675e-05)) ((-1.081694e-11 -1.174029e-10 3.272734e-10) (-2.674223e-10 -2.841261e-10 2.364964e-06))
11.597995     	((-3.423869e-08 -1.566511e-07 -3.308953e-05) (1.722558e-08 -3.085709e-08 1.629193e-05)) ((-1.536753e-11 -1.297951e-10 3.021555e-10) (2.570758e-11 -7.288807e-10 2.255867e-06))
13.663926     	((3.285478e-08 -1.215712e-07 -3.477891e-05) (2.914182e-08 -2.187779e-08 1.745609e-05)) ((-1.924334e-11 -1.534428e-10 2.831627e-10) (7.052270e-10 -1.410379e-09 2.167187e-06))
15.974784     	((6.377527e-09 -1.461336e-07 -3.627966e-05) (3.408990e-08 -1.298354e-08 1.857521e-05)) ((-2.010171e-11 -1.807781e-10 2.675674e-10) (1.641067e-09 -1.863597e-09 2.097469e-06))
18.499593     	((-2.539288e-08 -1.475562e-07 -3.754240e-05) (2.397975e-08 7.941489e-09 1.966331e-05)) ((-1.775911e-11 -2.095383e-10 2.521472e-10) (2.571897e-09 -1.858196e-09 2.044752e-06))
21.058733     	((-2.016912e-08 -1.166594e-07 -3.869281e-05) (1.156283e-08 3.256323e-08 2.070315e-05)) ((-1.388434e-11 -2.385250e-10 2.396723e-10) (3.317800e-09 -1.591142e-09 2.008069e-06))
23.617487     	((1.893609e-08 -9.831926e-08 -3.964336e-05) (2.875065e-09 4.268831e-08 2.171572e-05)) ((-1.547187e-11 -2.689107e-10 2.297669e-10) (3.895683e-09 -1.291738e-09 1.984639e-06))
26.175834     	((3.035365e-08 -5.113917e-08 -4.039792e-05) (-3.770306e-09 5.312417e-08 2.270979e-05)) ((-1.536881e-11 -2.951844e-10 2.214568e-10) (4.296311e-09 -8.886661e-10 1.972517e-06))
28.721608     	((1.215941e-08 -2.524795e-08 -4.090197e-05) (-1.453480e-08 5.522165e-08 2.367836e-05)) ((-1.356496e-11 -3.240125e-10 2.159311e-10) (4.358088e-09 -3.809258e-10 1.970613e-06))
31.220977     	((-2.837650e-08 -5.455285e-08 -4.110766e-05) (-2.650406e-08 5.058348e-08 2.462078e-05)) ((-1.495628e-11 -3.526931e-10 2.133082e-10) (4.240980e-09 2.359383e-11 1.978482e-06))
33.673563     	((-5.416693e-08 -7.420778e-08 -4.106917e-05) (-3.183614e-08 4.651847e-08 2.553150e-05)) ((-1.603542e-11 -3.830985e-10 2.136993e-10) (4.008065e-09 3.306245e-10 1.995659e-06))
36.083136     	((-5.896288e-08 -7.467549e-08 -4.086444e-05) (-3.674270e-08 3.959236e-08 2.638893e-05)) ((-1.842070e-11 -4.122253e-10 2.173342e-10) (3.830758e-09 5.043100e-10 2.021378e-06))
38.454262     	((-6.397369e-08 -9.002383e-08 -4.061235e-05) (-4.237920e-08 3.366126e-08 2.718620e-05)) ((-1.679637e-11 -4.403495e-10 2.240646e-10) (3.658555e-09 5.740822e-10 2.054603e-06))
40.764378     	((-5.200900e-08 -1.117200e-07 -4.020761e-05) (-4.599600e-08 2.501916e-08 2.787378e-05)) ((-1.481397e-11 -4.599339e-10 2.333431e-10) (3.385720e-09 5.281020e-10 2.093897e-06))
43.021635     	((-3.601265e-08 -1.237640e-07 -3.964922e-05) (-4.272810e-08 1.717311e-08 2.837908e-05)) ((-1.349116e-11 -4.651679e-10 2.447469e-10) (3.046649e-09 4.768899e-10 2.137294e-06))
45.234336     	((1.463392e-08 -1.277919e-07 -3.910013e-05) (-3.747617e-08 5.098505e-09 2.864317e-05)) ((-1.274613e-11 -4.573276e-10 2.555390e-10) (2.707491e-09 3.964913e-10 2.181997e-06))
47.405356     	((4.920044e-08 -1.303862e-07 -3.847690e-05) (-2.369451e-08 -8.957049e-10 2.864898e-05)) ((-1.357411e-11 -4.299556e-10 2.657791e-10) (2.467304e-09 2.404875e-10 2.224531e-06))
49.537828     	((8.334490e-08 -1.711388e-07 -3.767228e-05) (-1.072161e-08 -6.718686e-09 2.841648e-05)) ((-1.028520e-11 -3.894308e-10 2.762874e-10) (2.161783e-09 7.368436e-11 2.261851e-06))
51.640129     	((9.049910e-08 -1.510276e-07 -3.665679e-05) (-3.371162e-09 -4.124518e-09 2.795552e-05)) ((-9.849036e-12 -3.437439e-10 2.860165e-10) (1.880661e-09 -5.733584e-11 2.291580e-06))
53.720816     	((8.791389e-08 -1.164942e-07 -3.559587e-05) (7.007924e-09 -5.099850e-09 2.734581e-05)) ((-1.164296e-11 -2.990301e-10 2.924084e-10) (1.764472e-09 -2.201449e-10 2.312207e-06))
55.781175     	((6.217512e-08 -8.306935e-08 -3.440299e-05) (1.586515e-08 -3.234884e-09 2.667025e-05)) ((-1.632948e-11 -2.588817e-10 2.962085e-10) (1.784125e-09 -3.117121e-10 2.323377e-06))
57.814068     	((2.513468e-08 -1.602186e-08 -3.345097e-05) (1.663619e-08 1.923557e-09 2.601203e-05)) ((-2.023767e-11 -2.394120e-10 2.974964e-10) (2.021301e-09 -2.261505e-10 2.325836e-06))
59.834122     	((-4.967548e-09 -8.626707e-11 -3.257533e-05) (1.281536e-08 3.700867e-09 2.544819e-05)) ((-2.252640e-11 -2.344251e-10 2.963740e-10) (2.345005e-09 -1.548490e-10 2.321081e-06))
