# Forces      
# CofR        : (0.000000e+00 0.000000e+00 0.000000e+00)
# Time        forces(pressure viscous)	moments(pressure viscous)
0             	((0.000000e+00 0.000000e+00 0.000000e+00) (0.000000e+00 0.000000e+00 0.000000e+00)) ((0.000000e+00 0.000000e+00 0.000000e+00) (0.000000e+00 0.000000e+00 0.000000e+00))
0.012         	((-7.093546e-08 2.582383e-12 -2.413880e-08) (-1.664476e-07 3.232920e-16 -1.508838e-11)) ((-1.093795e-15 1.073699e-11 -8.714346e-16) (-1.816342e-16 1.107652e-08 -7.212505e-17))
0.0264        	((-9.782859e-08 5.721134e-11 -3.160341e-08) (-1.524680e-07 1.741084e-14 -9.160064e-12)) ((-5.651081e-16 -5.525402e-12 -2.165626e-16) (-6.533375e-16 1.015713e-08 4.927585e-16))
0.04368       	((-6.511660e-08 -3.456477e-11 -2.163202e-08) (-1.380414e-07 -1.306084e-14 1.308052e-14)) ((-1.257773e-15 -3.997904e-12 -6.422756e-16) (-1.703151e-15 9.211247e-09 1.839460e-15))
0.064416      	((-7.453100e-08 4.069399e-11 -2.415099e-08) (-1.234854e-07 -3.073895e-14 6.301452e-12)) ((-6.238135e-16 -7.692509e-12 1.222840e-16) (-3.263388e-15 8.260130e-09 2.174242e-15))
0.0892992     	((-5.456597e-08 -1.776744e-11 -1.810667e-08) (-1.092135e-07 -3.687460e-14 7.189214e-12)) ((-3.851161e-16 -5.491960e-12 -4.261118e-16) (-5.243855e-15 7.330950e-09 1.157280e-15))
0.119159      	((-5.631468e-08 2.007065e-11 -1.797193e-08) (-9.568239e-08 -1.174673e-14 5.334217e-12)) ((-5.056357e-16 -6.667939e-12 -1.826590e-17) (-4.738523e-15 6.454090e-09 -2.314003e-16))
0.154991      	((-4.228883e-08 -1.015240e-11 -1.418350e-08) (-8.331670e-08 3.106039e-15 4.729389e-12)) ((1.450547e-16 -4.661447e-12 -2.918169e-17) (-4.753060e-15 5.648045e-09 -2.536480e-15))
0.197989      	((-4.184774e-08 7.531112e-12 -1.322939e-08) (-7.237288e-08 9.392626e-15 3.772937e-12)) ((2.532315e-16 -5.243764e-12 3.757837e-17) (-4.538876e-15 4.934005e-09 -4.600291e-15))
0.249587      	((-3.242584e-08 -4.037415e-12 -1.087534e-08) (-6.304536e-08 2.072130e-14 2.248134e-12)) ((1.589028e-16 -3.751001e-12 -1.410059e-17) (-3.745981e-15 4.320829e-09 -5.626700e-15))
0.311504      	((-3.153341e-08 1.158841e-12 -9.912186e-09) (-5.529165e-08 2.176550e-14 1.114168e-12)) ((4.368184e-16 -4.133164e-12 -3.924978e-17) (-4.224638e-15 3.808911e-09 -5.598975e-15))
0.385805      	((-2.538200e-08 -7.574018e-13 -8.491937e-09) (-4.888647e-08 1.525006e-14 4.324982e-13)) ((1.022468e-16 -3.077304e-12 -5.578223e-17) (-3.955182e-15 3.385569e-09 -5.641691e-15))
0.474966      	((-2.463159e-08 9.465767e-13 -7.744330e-09) (-4.358948e-08 1.976352e-14 -5.367655e-13)) ((4.388998e-16 -3.340821e-12 -3.831067e-17) (-3.419069e-15 3.036050e-09 -7.521789e-15))
0.581959      	((-2.050484e-08 1.650450e-13 -6.836103e-09) (-3.913155e-08 3.306268e-14 -1.394646e-12)) ((6.914601e-17 -2.577024e-12 4.853541e-17) (2.442049e-16 2.741657e-09 -5.853409e-15))
0.710351      	((-1.987801e-08 -6.440026e-13 -6.245071e-09) (-3.530282e-08 1.653471e-14 -9.881163e-13)) ((5.969720e-16 -2.773580e-12 7.353892e-17) (1.854332e-15 2.489694e-09 -1.211594e-16))
0.864421      	((-1.692879e-08 1.050969e-12 -5.623325e-09) (-3.193662e-08 3.480425e-15 -1.902896e-12)) ((3.055061e-16 -2.235628e-12 8.815622e-17) (2.000529e-15 2.268355e-09 5.112331e-16))
1.049306      	((-1.628777e-08 1.944999e-13 -5.119448e-09) (-2.893883e-08 -3.752512e-15 -2.026681e-12)) ((7.289614e-16 -2.387856e-12 8.381021e-17) (-5.679555e-15 2.072206e-09 -3.595645e-15))
1.271167      	((-1.400764e-08 1.084054e-12 -4.627674e-09) (-2.623278e-08 2.407096e-14 -2.913180e-12)) ((5.151626e-16 -2.014507e-12 3.146251e-16) (-1.323037e-14 1.895348e-09 -8.739545e-15))
1.5374        	((-1.331609e-08 1.259860e-12 -4.201580e-09) (-2.379063e-08 3.980291e-14 -3.670326e-12)) ((9.111765e-16 -2.096176e-12 4.634291e-16) (-2.034472e-14 1.735912e-09 -1.205966e-14))
1.85688       	((-1.153643e-08 1.214556e-12 -3.801833e-09) (-2.158333e-08 8.681572e-14 -5.213892e-12)) ((8.948169e-16 -1.817736e-12 4.317345e-16) (-2.777196e-14 1.592054e-09 -1.208030e-14))
2.240256      	((-1.081995e-08 9.919053e-13 -3.448704e-09) (-1.960145e-08 9.998940e-14 -5.569913e-12)) ((1.185785e-15 -1.844633e-12 3.691176e-16) (-3.991703e-14 1.462806e-09 -9.710354e-15))
2.700307      	((-9.485148e-09 7.862731e-13 -3.139743e-09) (-1.784635e-08 6.161883e-14 -5.407407e-12)) ((1.009120e-15 -1.646607e-12 4.154386e-16) (-6.150187e-14 1.348483e-09 7.079514e-16))
3.252369      	((-8.834070e-09 1.927289e-12 -2.858994e-09) (-1.629578e-08 3.186976e-14 -4.948264e-12)) ((1.167075e-15 -1.652209e-12 3.944714e-16) (-8.432674e-14 1.247341e-09 2.638695e-14))
3.914842      	((-7.874289e-09 -2.161959e-13 -2.615777e-09) (-1.493401e-08 -5.996761e-14 -3.992726e-12)) ((9.490388e-16 -1.538169e-12 4.744354e-16) (-1.048424e-13 1.158795e-09 6.006959e-14))
4.709811      	((-7.289284e-09 -5.350544e-14 -2.395239e-09) (-1.373594e-08 -6.138496e-14 -3.875628e-12)) ((7.891019e-16 -1.526827e-12 6.532957e-16) (-1.150246e-13 1.081037e-09 8.711042e-14))
5.663773      	((-6.591484e-09 -1.419874e-13 -2.205280e-09) (-1.267222e-08 1.056664e-14 -5.080634e-12)) ((4.859341e-16 -1.452700e-12 7.538959e-16) (-1.114726e-13 1.012159e-09 1.034194e-13))
6.808528      	((-6.079312e-09 1.703533e-12 -2.027092e-09) (-1.171767e-08 1.577609e-13 -6.673601e-12)) ((7.921121e-16 -1.422450e-12 8.011037e-16) (-1.036646e-13 9.505230e-10 1.065331e-13))
8.182233      	((-5.540466e-09 1.788941e-12 -1.873147e-09) (-1.085202e-08 2.838911e-13 -8.660440e-12)) ((6.293938e-16 -1.374392e-12 7.484456e-16) (-1.009478e-13 8.949418e-10 1.032520e-13))
9.83068       	((-5.079564e-09 1.912676e-12 -1.726627e-09) (-1.005999e-08 3.550775e-13 -1.020303e-11)) ((7.708575e-16 -1.341002e-12 6.862642e-16) (-9.916931e-14 8.443714e-10 9.889344e-14))
11.808816     	((-4.646310e-09 1.266389e-12 -1.599685e-09) (-9.333496e-09 3.727290e-13 -1.060716e-11)) ((4.655070e-16 -1.306040e-12 6.040232e-16) (-9.009198e-14 7.982816e-10 8.806157e-14))
14.182579     	((-4.265709e-09 1.246057e-12 -1.480657e-09) (-8.666264e-09 4.694884e-13 -1.041086e-11)) ((4.710078e-16 -1.272674e-12 5.224046e-16) (-7.456525e-14 7.561755e-10 7.446512e-14))
17.031095     	((-3.910985e-09 1.305154e-12 -1.371114e-09) (-8.052801e-09 5.716220e-13 -9.814627e-12)) ((3.295604e-16 -1.245713e-12 4.563458e-16) (-6.020651e-14 7.178136e-10 5.871993e-14))
20.449314     	((-3.593034e-09 1.450970e-12 -1.268166e-09) (-7.490327e-09 6.602148e-13 -9.881058e-12)) ((3.669508e-16 -1.218539e-12 3.697250e-16) (-4.588981e-14 6.829184e-10 3.857280e-14))
24.551176     	((-3.295769e-09 1.003212e-12 -1.173440e-09) (-6.975240e-09 7.147847e-13 -9.665774e-12)) ((3.097015e-16 -1.199102e-12 2.834892e-16) (-3.440921e-14 6.511919e-10 2.108338e-14))
29.473411     	((-3.027669e-09 8.066190e-13 -1.087858e-09) (-6.504414e-09 7.220224e-13 -9.411291e-12)) ((3.341128e-16 -1.180053e-12 2.276275e-16) (-2.654868e-14 6.223876e-10 7.583666e-15))
35.380094     	((-2.779477e-09 7.588481e-13 -1.011842e-09) (-6.074627e-09 7.309176e-13 -9.309961e-12)) ((3.212511e-16 -1.165223e-12 1.936192e-16) (-2.274931e-14 5.962398e-10 -1.189586e-15))
42.468112     	((-2.556155e-09 7.570867e-13 -9.448709e-10) (-5.681804e-09 7.316736e-13 -9.525243e-12)) ((3.336009e-16 -1.151023e-12 1.505124e-16) (-2.214532e-14 5.724477e-10 -4.596563e-15))
50.973735     	((-2.349155e-09 8.186003e-13 -8.859509e-10) (-5.322614e-09 7.290148e-13 -9.897354e-12)) ((3.117141e-16 -1.139248e-12 1.118882e-16) (-2.218087e-14 5.507983e-10 -6.197387e-15))
61.180482     	((-2.161726e-09 7.452099e-13 -8.304309e-10) (-4.994725e-09 7.091802e-13 -1.015700e-11)) ((3.005098e-16 -1.128446e-12 7.007049e-17) (-2.277848e-14 5.311296e-10 -4.999089e-15))
73.428578     	((-1.990344e-09 3.671831e-13 -7.827910e-10) (-4.695757e-09 6.178343e-13 -9.971936e-12)) ((3.252260e-16 -1.119476e-12 7.043863e-17) (-2.455505e-14 5.133323e-10 -5.016513e-15))
88.126294     	((-1.834793e-09 2.114580e-13 -7.392065e-10) (-4.423820e-09 5.334345e-13 -9.493558e-12)) ((2.831024e-16 -1.111599e-12 8.303233e-17) (-2.682314e-14 4.972695e-10 -3.683887e-15))
105.763553    	((-1.699117e-09 8.851550e-14 -7.010364e-10) (-4.177329e-09 4.232633e-13 -8.956125e-12)) ((2.417116e-16 -1.105168e-12 1.007300e-16) (-3.054688e-14 4.828277e-10 -3.800766e-15))
126.928263    	((-1.576108e-09 -8.924094e-14 -6.660026e-10) (-3.954391e-09 3.660217e-13 -8.514776e-12)) ((2.368596e-16 -1.099727e-12 1.188597e-16) (-3.323377e-14 4.698797e-10 -2.378073e-15))
152.325916    	((-1.466971e-09 -2.577539e-13 -6.305532e-10) (-3.752861e-09 3.329074e-13 -8.163403e-12)) ((2.252667e-16 -1.095273e-12 1.272083e-16) (-3.484638e-14 4.582748e-10 -2.863484e-16))
182.803099    	((-1.370199e-09 -2.873820e-13 -5.992722e-10) (-3.571040e-09 2.965777e-13 -8.001425e-12)) ((2.183770e-16 -1.091336e-12 1.269875e-16) (-3.697054e-14 4.478892e-10 1.639741e-15))
219.375719    	((-1.284630e-09 -2.601950e-13 -5.747701e-10) (-3.407119e-09 2.524723e-13 -8.011696e-12)) ((2.236995e-16 -1.088155e-12 1.164238e-16) (-3.859828e-14 4.386044e-10 2.248183e-15))
263.262863    	((-1.208356e-09 -2.230389e-13 -5.539276e-10) (-3.259389e-09 2.267997e-13 -8.213929e-12)) ((2.242056e-16 -1.085618e-12 1.193165e-16) (-3.780141e-14 4.303159e-10 2.245108e-15))
315.927436    	((-1.141615e-09 -2.377825e-13 -5.354195e-10) (-3.126529e-09 2.101091e-13 -8.451579e-12)) ((2.192158e-16 -1.083516e-12 1.185123e-16) (-3.633490e-14 4.229285e-10 2.261655e-15))
379.124923    	((-1.083141e-09 -2.571524e-13 -5.202046e-10) (-3.007439e-09 1.997139e-13 -8.795540e-12)) ((2.156516e-16 -1.081876e-12 1.173405e-16) (-3.438730e-14 4.163704e-10 2.356736e-15))
454.961908    	((-1.033082e-09 -3.058617e-13 -5.082900e-10) (-2.901321e-09 1.861325e-13 -9.229836e-12)) ((2.108770e-16 -1.080599e-12 1.162185e-16) (-3.279572e-14 4.105834e-10 2.192962e-15))
545.966289    	((-9.906775e-10 -2.732949e-13 -4.985030e-10) (-2.807449e-09 1.773572e-13 -9.786574e-12)) ((1.997248e-16 -1.079583e-12 1.124866e-16) (-3.151844e-14 4.055126e-10 1.983383e-15))
655.171547    	((-9.552742e-10 -2.896484e-13 -4.912885e-10) (-2.725252e-09 1.700652e-13 -1.045980e-11)) ((1.862355e-16 -1.078741e-12 1.138610e-16) (-3.035932e-14 4.011130e-10 1.914715e-15))
786.217856    	((-9.261172e-10 -3.123757e-13 -4.859460e-10) (-2.654099e-09 1.578320e-13 -1.113841e-11)) ((1.848824e-16 -1.078016e-12 1.153000e-16) (-2.955487e-14 3.973324e-10 1.636658e-15))
943.473427    	((-9.022401e-10 -3.273905e-13 -4.822212e-10) (-2.593351e-09 1.429938e-13 -1.178022e-11)) ((1.833603e-16 -1.077402e-12 1.143766e-16) (-2.912130e-14 3.941211e-10 6.629003e-16))
1132.180113   	((-8.828975e-10 -3.143676e-13 -4.795614e-10) (-2.542257e-09 1.324596e-13 -1.244539e-11)) ((1.813366e-16 -1.076909e-12 1.141880e-16) (-2.903272e-14 3.914277e-10 -8.030359e-16))
1358.628135   	((-8.673222e-10 -2.983020e-13 -4.774206e-10) (-2.499956e-09 1.247749e-13 -1.310459e-11)) ((1.785936e-16 -1.076505e-12 1.161527e-16) (-2.891163e-14 3.891992e-10 -2.771201e-15))
1630.365763   	((-8.549616e-10 -2.830255e-13 -4.758278e-10) (-2.465503e-09 1.197016e-13 -1.373219e-11)) ((1.757018e-16 -1.076189e-12 1.150667e-16) (-2.882779e-14 3.873807e-10 -4.822889e-15))
1956.450915   	((-8.452779e-10 -2.813761e-13 -4.747015e-10) (-2.437902e-09 1.163198e-13 -1.430112e-11)) ((1.735654e-16 -1.075938e-12 1.152335e-16) (-2.872287e-14 3.859172e-10 -6.775286e-15))
2347.753098   	((-8.377572e-10 -2.778317e-13 -4.738950e-10) (-2.416132e-09 1.127903e-13 -1.480569e-11)) ((1.724420e-16 -1.075745e-12 1.149993e-16) (-2.866368e-14 3.847541e-10 -8.389423e-15))
2817.315718   	((-8.319479e-10 -2.785328e-13 -4.732625e-10) (-2.399208e-09 1.100697e-13 -1.523941e-11)) ((1.721505e-16 -1.075591e-12 1.150393e-16) (-2.854761e-14 3.838402e-10 -9.724232e-15))
3380.790861   	((-8.274917e-10 -2.724855e-13 -4.728080e-10) (-2.386230e-09 1.074828e-13 -1.560535e-11)) ((1.719864e-16 -1.075465e-12 1.147152e-16) (-2.848341e-14 3.831296e-10 -1.077612e-14))
4056.961033   	((-8.240824e-10 -2.660100e-13 -4.724352e-10) (-2.376398e-09 1.051902e-13 -1.590388e-11)) ((1.720527e-16 -1.075365e-12 1.143492e-16) (-2.844251e-14 3.825819e-10 -1.158358e-14))
4868.36524    	((-8.215027e-10 -2.619049e-13 -4.721413e-10) (-2.369029e-09 1.031444e-13 -1.614254e-11)) ((1.720087e-16 -1.075283e-12 1.143030e-16) (-2.840431e-14 3.821631e-10 -1.217857e-14))
5842.050288   	((-8.195573e-10 -2.623605e-13 -4.718816e-10) (-2.363562e-09 1.014022e-13 -1.632987e-11)) ((1.713697e-16 -1.075216e-12 1.142195e-16) (-2.837223e-14 3.818448e-10 -1.261272e-14))
7010.472346   	((-8.180904e-10 -2.626993e-13 -4.716536e-10) (-2.359541e-09 9.994950e-14 -1.647354e-11)) ((1.710489e-16 -1.075162e-12 1.143689e-16) (-2.834827e-14 3.816040e-10 -1.294347e-14))
8412.578815   	((-8.169828e-10 -2.638252e-13 -4.714395e-10) (-2.356606e-09 9.880204e-14 -1.658135e-11)) ((1.706697e-16 -1.075119e-12 1.144529e-16) (-2.832747e-14 3.814225e-10 -1.318258e-14))
10095.106578  	((-8.161412e-10 -2.644005e-13 -4.712651e-10) (-2.354479e-09 9.776200e-14 -1.666081e-11)) ((1.703864e-16 -1.075083e-12 1.145054e-16) (-2.830184e-14 3.812861e-10 -1.335845e-14))
12114.139893  	((-8.155054e-10 -2.647904e-13 -4.711120e-10) (-2.352946e-09 9.699925e-14 -1.671865e-11)) ((1.700693e-16 -1.075054e-12 1.145465e-16) (-2.827963e-14 3.811837e-10 -1.348989e-14))
14479.162691  	((-8.150253e-10 -2.659582e-13 -4.709767e-10) (-2.351850e-09 9.642676e-14 -1.675978e-11)) ((1.698050e-16 -1.075032e-12 1.145652e-16) (-2.826344e-14 3.811071e-10 -1.358741e-14))
17190.173048  	((-8.146643e-10 -2.675820e-13 -4.708589e-10) (-2.351070e-09 9.601963e-14 -1.678858e-11)) ((1.696186e-16 -1.075015e-12 1.145890e-16) (-2.825270e-14 3.810498e-10 -1.366296e-14))
20247.169528  	((-8.143906e-10 -2.697856e-13 -4.707544e-10) (-2.350518e-09 9.574034e-14 -1.680846e-11)) ((1.694875e-16 -1.075002e-12 1.145984e-16) (-2.824545e-14 3.810069e-10 -1.372133e-14))
23650.151056  	((-8.141810e-10 -2.718696e-13 -4.706647e-10) (-2.350130e-09 9.551569e-14 -1.682198e-11)) ((1.693989e-16 -1.074993e-12 1.145994e-16) (-2.824169e-14 3.809747e-10 -1.376492e-14))
27109.99352   	((-8.140222e-10 -2.734501e-13 -4.705910e-10) (-2.349859e-09 9.529682e-14 -1.683086e-11)) ((1.693486e-16 -1.074990e-12 1.146109e-16) (-2.824057e-14 3.809508e-10 -1.379769e-14))
30569.830393  	((-8.139023e-10 -2.747222e-13 -4.705224e-10) (-2.349670e-09 9.514719e-14 -1.683655e-11)) ((1.693130e-16 -1.074990e-12 1.146242e-16) (-2.823994e-14 3.809328e-10 -1.382363e-14))
34029.663546  	((-8.138102e-10 -2.750494e-13 -4.704622e-10) (-2.349539e-09 9.503077e-14 -1.684009e-11)) ((1.692886e-16 -1.074990e-12 1.145745e-16) (-2.823905e-14 3.809194e-10 -1.384751e-14))
37489.494129  	((-8.137388e-10 -2.750143e-13 -4.704080e-10) (-2.349449e-09 9.496040e-14 -1.684228e-11)) ((1.692598e-16 -1.074990e-12 1.146045e-16) (-2.823741e-14 3.809092e-10 -1.386618e-14))
40949.322878  	((-8.136829e-10 -2.753316e-13 -4.703637e-10) (-2.349388e-09 9.491640e-14 -1.684364e-11)) ((1.692428e-16 -1.074990e-12 1.146197e-16) (-2.823488e-14 3.809015e-10 -1.387746e-14))
44409.150296  	((-8.136389e-10 -2.757635e-13 -4.703248e-10) (-2.349346e-09 9.489106e-14 -1.684439e-11)) ((1.692247e-16 -1.074990e-12 1.146371e-16) (-2.823286e-14 3.808957e-10 -1.388699e-14))
47868.976744  	((-8.136041e-10 -2.758942e-13 -4.702907e-10) (-2.349318e-09 9.487119e-14 -1.684475e-11)) ((1.692135e-16 -1.074990e-12 1.146469e-16) (-2.823113e-14 3.808912e-10 -1.389571e-14))
51328.802483  	((-8.135763e-10 -2.760799e-13 -4.702571e-10) (-2.349300e-09 9.487836e-14 -1.684474e-11)) ((1.692132e-16 -1.074991e-12 1.146549e-16) (-2.822967e-14 3.808879e-10 -1.390527e-14))
54788.627703  	((-8.135543e-10 -2.756180e-13 -4.702268e-10) (-2.349288e-09 9.488540e-14 -1.684452e-11)) ((1.692205e-16 -1.074991e-12 1.146458e-16) (-2.822813e-14 3.808853e-10 -1.391216e-14))
58248.452545  	((-8.135364e-10 -2.751110e-13 -4.701999e-10) (-2.349280e-09 9.489223e-14 -1.684416e-11)) ((1.692210e-16 -1.074991e-12 1.146408e-16) (-2.822726e-14 3.808833e-10 -1.391626e-14))
61708.27711   	((-8.135221e-10 -2.746283e-13 -4.701763e-10) (-2.349275e-09 9.490144e-14 -1.684377e-11)) ((1.692202e-16 -1.074991e-12 1.146407e-16) (-2.822632e-14 3.808817e-10 -1.391918e-14))
65168.101474  	((-8.135102e-10 -2.748878e-13 -4.701540e-10) (-2.349272e-09 9.490990e-14 -1.684335e-11)) ((1.692198e-16 -1.074991e-12 1.146449e-16) (-2.822527e-14 3.808806e-10 -1.392168e-14))
68627.92569   	((-8.135006e-10 -2.749090e-13 -4.701347e-10) (-2.349271e-09 9.491295e-14 -1.684293e-11)) ((1.692166e-16 -1.074992e-12 1.146483e-16) (-2.822450e-14 3.808796e-10 -1.392360e-14))
72087.749798  	((-8.134928e-10 -2.748086e-13 -4.701177e-10) (-2.349270e-09 9.491358e-14 -1.684254e-11)) ((1.692166e-16 -1.074992e-12 1.146474e-16) (-2.822387e-14 3.808789e-10 -1.392512e-14))
75547.573828  	((-8.134864e-10 -2.746421e-13 -4.701026e-10) (-2.349270e-09 9.491444e-14 -1.684218e-11)) ((1.692170e-16 -1.074992e-12 1.146469e-16) (-2.822330e-14 3.808784e-10 -1.392638e-14))
79007.397801  	((-8.134811e-10 -2.744531e-13 -4.700894e-10) (-2.349270e-09 9.491483e-14 -1.684185e-11)) ((1.692175e-16 -1.074992e-12 1.146455e-16) (-2.822284e-14 3.808780e-10 -1.392743e-14))
82467.221732  	((-8.134766e-10 -2.742606e-13 -4.700776e-10) (-2.349270e-09 9.491507e-14 -1.684156e-11)) ((1.692171e-16 -1.074992e-12 1.146443e-16) (-2.822247e-14 3.808776e-10 -1.392828e-14))
85927.045634  	((-8.134727e-10 -2.741939e-13 -4.700668e-10) (-2.349270e-09 9.491755e-14 -1.684128e-11)) ((1.692178e-16 -1.074992e-12 1.146437e-16) (-2.822215e-14 3.808774e-10 -1.392886e-14))
89386.869513  	((-8.134695e-10 -2.741122e-13 -4.700574e-10) (-2.349270e-09 9.491727e-14 -1.684103e-11)) ((1.692188e-16 -1.074992e-12 1.146429e-16) (-2.822198e-14 3.808772e-10 -1.392938e-14))
92846.693377  	((-8.134667e-10 -2.740267e-13 -4.700490e-10) (-2.349271e-09 9.491650e-14 -1.684081e-11)) ((1.692201e-16 -1.074992e-12 1.146419e-16) (-2.822183e-14 3.808770e-10 -1.392980e-14))
96306.51723   	((-8.134643e-10 -2.739582e-13 -4.700414e-10) (-2.349271e-09 9.491508e-14 -1.684064e-11)) ((1.692234e-16 -1.074992e-12 1.146338e-16) (-2.822172e-14 3.808769e-10 -1.393091e-14))
99766.341074  	((-8.134621e-10 -2.739654e-13 -4.700356e-10) (-2.349271e-09 9.492738e-14 -1.684047e-11)) ((1.692392e-16 -1.074992e-12 1.146330e-16) (-2.822086e-14 3.808768e-10 -1.393188e-14))
103226.164913 	((-8.134604e-10 -2.739096e-13 -4.700294e-10) (-2.349272e-09 9.491967e-14 -1.684034e-11)) ((1.692312e-16 -1.074992e-12 1.146304e-16) (-2.822123e-14 3.808767e-10 -1.393166e-14))
106685.988747 	((-8.134588e-10 -2.738283e-13 -4.700240e-10) (-2.349272e-09 9.491675e-14 -1.684020e-11)) ((1.692302e-16 -1.074992e-12 1.146316e-16) (-2.822134e-14 3.808766e-10 -1.393171e-14))
110145.812579 	((-8.134575e-10 -2.737535e-13 -4.700193e-10) (-2.349272e-09 9.491503e-14 -1.684007e-11)) ((1.692301e-16 -1.074992e-12 1.146319e-16) (-2.822133e-14 3.808766e-10 -1.393176e-14))
113605.636408 	((-8.134562e-10 -2.737408e-13 -4.700160e-10) (-2.349272e-09 9.492576e-14 -1.683993e-11)) ((1.692534e-16 -1.074992e-12 1.146327e-16) (-2.822058e-14 3.808766e-10 -1.393252e-14))
117065.460236 	((-8.134551e-10 -2.736812e-13 -4.700121e-10) (-2.349272e-09 9.491737e-14 -1.683984e-11)) ((1.692408e-16 -1.074992e-12 1.146319e-16) (-2.822117e-14 3.808765e-10 -1.393242e-14))
120525.284063 	((-8.134543e-10 -2.736292e-13 -4.700085e-10) (-2.349272e-09 9.492164e-14 -1.683976e-11)) ((1.692328e-16 -1.074992e-12 1.146351e-16) (-2.822083e-14 3.808765e-10 -1.393247e-14))
123985.107889 	((-8.134534e-10 -2.736544e-13 -4.700064e-10) (-2.349272e-09 9.493576e-14 -1.683967e-11)) ((1.692452e-16 -1.074992e-12 1.146352e-16) (-2.821982e-14 3.808765e-10 -1.393315e-14))
127444.931715 	((-8.134527e-10 -2.736264e-13 -4.700035e-10) (-2.349272e-09 9.492362e-14 -1.683965e-11)) ((1.692381e-16 -1.074993e-12 1.146234e-16) (-2.822042e-14 3.808765e-10 -1.393286e-14))
130904.75554  	((-8.134521e-10 -2.735555e-13 -4.700010e-10) (-2.349272e-09 9.491789e-14 -1.683958e-11)) ((1.692362e-16 -1.074993e-12 1.146248e-16) (-2.822083e-14 3.808765e-10 -1.393281e-14))
134364.579365 	((-8.134514e-10 -2.735511e-13 -4.699996e-10) (-2.349272e-09 9.493892e-14 -1.683951e-11)) ((1.692506e-16 -1.074993e-12 1.146280e-16) (-2.821993e-14 3.808765e-10 -1.393334e-14))
137824.403191 	((-8.134509e-10 -2.734919e-13 -4.699973e-10) (-2.349272e-09 9.493565e-14 -1.683948e-11)) ((1.692410e-16 -1.074993e-12 1.146245e-16) (-2.821993e-14 3.808765e-10 -1.393293e-14))
141284.227015 	((-8.134505e-10 -2.733967e-13 -4.699953e-10) (-2.349272e-09 9.493363e-14 -1.683943e-11)) ((1.692395e-16 -1.074993e-12 1.146264e-16) (-2.822007e-14 3.808764e-10 -1.393273e-14))
144744.05084  	((-8.134501e-10 -2.732839e-13 -4.699937e-10) (-2.349272e-09 9.491467e-14 -1.683937e-11)) ((1.692411e-16 -1.074993e-12 1.146267e-16) (-2.822128e-14 3.808764e-10 -1.393325e-14))
148203.874665 	((-8.134496e-10 -2.733830e-13 -4.699931e-10) (-2.349272e-09 9.491615e-14 -1.683931e-11)) ((1.692533e-16 -1.074993e-12 1.146297e-16) (-2.822118e-14 3.808764e-10 -1.393300e-14))
151663.69849  	((-8.134494e-10 -2.734144e-13 -4.699916e-10) (-2.349272e-09 9.490316e-14 -1.683929e-11)) ((1.692427e-16 -1.074993e-12 1.146250e-16) (-2.822178e-14 3.808764e-10 -1.393263e-14))
