# Forces      
# CofR        : (0.000000e+00 0.000000e+00 0.000000e+00)
# Time        forces(pressure viscous)	moments(pressure viscous)
0             	((0.000000e+00 0.000000e+00 0.000000e+00) (0.000000e+00 0.000000e+00 0.000000e+00)) ((0.000000e+00 0.000000e+00 0.000000e+00) (0.000000e+00 0.000000e+00 0.000000e+00))
0.012         	((4.481835e-12 7.236811e-06 1.171529e-06) (-2.763167e-12 1.664524e-05 -1.475639e-10)) ((1.060124e-09 3.777943e-12 -9.715484e-12) (1.107667e-06 7.346102e-14 1.774607e-12))
0.0264        	((-3.910088e-09 9.726182e-06 2.480514e-06) (-1.001658e-11 1.524749e-05 -4.707978e-10)) ((-4.757429e-10 8.206730e-12 -4.349648e-12) (1.015756e-06 1.470137e-13 1.772650e-12))
0.04368       	((3.472549e-09 6.576563e-06 1.343351e-06) (-1.624824e-11 1.380615e-05 -1.092290e-09)) ((-3.503723e-10 4.103429e-12 -4.907460e-12) (9.212643e-07 8.360499e-15 3.458129e-12))
0.064416      	((-3.655133e-09 7.435061e-06 1.736491e-06) (-2.276177e-11 1.235400e-05 -2.070789e-09)) ((-6.965121e-10 5.373521e-12 -3.139273e-12) (8.264003e-07 -4.867727e-13 1.707796e-12))
0.0892992     	((2.352053e-09 5.489534e-06 1.154372e-06) (-2.372905e-11 1.093352e-05 -3.393611e-09)) ((-4.942371e-10 3.340822e-12 -2.050478e-12) (7.339400e-07 -8.743838e-13 -3.483265e-12))
0.119159      	((-1.081156e-09 5.627578e-06 1.250507e-06) (-3.621447e-11 9.590673e-06 -4.974671e-09)) ((-6.054129e-10 3.709558e-12 -1.088219e-12) (6.469630e-07 -7.914326e-13 -6.181559e-12))
0.154991      	((1.352889e-09 4.249378e-06 8.891251e-07) (-5.591823e-11 8.367789e-06 -6.909426e-09)) ((-4.215988e-10 2.355946e-12 -4.633074e-13) (5.673639e-07 -6.645365e-13 -7.538480e-12))
0.197989      	((-2.333827e-11 4.198208e-06 8.910068e-07) (-7.643351e-11 7.287014e-06 -9.226678e-09)) ((-4.790487e-10 2.492951e-12 -7.429061e-13) (4.969491e-07 -2.848264e-13 -8.337623e-12))
0.249587      	((8.317455e-10 3.272517e-06 6.874417e-07) (-1.248884e-10 6.362939e-06 -1.175803e-08)) ((-3.439784e-10 1.643034e-12 -6.873129e-13) (4.363274e-07 -2.335028e-13 -8.158011e-12))
0.311504      	((4.841092e-10 3.178200e-06 6.587036e-07) (-8.039223e-11 5.591743e-06 -1.411733e-08)) ((-3.819154e-10 1.690525e-12 -1.193012e-12) (3.854491e-07 -1.272990e-12 -7.273625e-12))
0.385805      	((4.514823e-10 2.569724e-06 5.423749e-07) (-8.402933e-11 4.950306e-06 -1.647635e-08)) ((-2.866975e-10 1.200054e-12 -8.310808e-13) (3.430633e-07 -2.215831e-12 -5.076070e-12))
0.474966      	((4.706217e-10 2.484575e-06 5.015060e-07) (-7.607356e-11 4.414879e-06 -1.793865e-08)) ((-3.133577e-10 1.088507e-12 -1.030513e-12) (3.077019e-07 -3.176664e-12 -2.907080e-12))
0.581959      	((2.194655e-10 2.074270e-06 4.268799e-07) (-5.968777e-11 3.960678e-06 -1.956279e-08)) ((-2.451000e-10 8.530650e-13 -7.091328e-13) (2.776818e-07 -2.828563e-12 -2.084426e-12))
0.710351      	((7.406665e-10 1.996822e-06 3.824688e-07) (-4.204960e-11 3.568929e-06 -1.997689e-08)) ((-2.643273e-10 7.488524e-13 -9.315335e-13) (2.518459e-07 -3.476555e-12 -6.149443e-13))
0.864421      	((1.134815e-10 1.710371e-06 3.328143e-07) (-3.971393e-11 3.224761e-06 -2.126163e-08)) ((-2.197423e-10 5.009547e-13 -6.044996e-13) (2.291899e-07 -3.562933e-12 -3.621756e-13))
1.049306      	((7.456374e-10 1.623705e-06 2.915071e-07) (-8.608715e-11 2.918730e-06 -2.126800e-08)) ((-2.310768e-10 4.664254e-13 -4.991498e-13) (2.090946e-07 -6.406419e-12 -1.298666e-12))
1.271167      	((1.426818e-10 1.410090e-06 2.525661e-07) (-8.202456e-11 2.643983e-06 -2.278684e-08)) ((-2.020491e-10 3.390938e-13 6.515313e-14) (1.910947e-07 -8.875260e-12 -2.583131e-12))
1.5374        	((5.023800e-10 1.316423e-06 2.134470e-07) (-4.303043e-11 2.396328e-06 -2.375487e-08)) ((-2.043316e-10 9.298340e-14 1.600828e-13) (1.749053e-07 -9.506612e-12 -2.857898e-12))
1.85688       	((5.048321e-10 1.156564e-06 1.813928e-07) (-4.593671e-11 2.173300e-06 -2.500932e-08)) ((-1.861111e-10 6.006281e-13 2.684630e-13) (1.603599e-07 -1.046842e-11 -2.514146e-12))
2.240256      	((2.396020e-10 1.068330e-06 1.524242e-07) (-3.870431e-11 1.974001e-06 -2.626381e-08)) ((-1.814929e-10 -2.631125e-13 2.862105e-13) (1.473767e-07 -8.725819e-12 -2.368596e-12))
2.700307      	((3.407312e-10 9.489421e-07 1.280618e-07) (-2.778244e-11 1.797851e-06 -2.698702e-08)) ((-1.680604e-10 2.048672e-13 3.444745e-13) (1.359328e-07 -7.352548e-12 -1.445747e-12))
3.252369      	((-1.363515e-11 8.773126e-07 1.061988e-07) (-2.834367e-11 1.643116e-06 -2.821967e-08)) ((-1.635363e-10 -6.084514e-13 3.164343e-13) (1.258884e-07 -7.214821e-12 2.082492e-13))
3.914842      	((1.723127e-10 7.904392e-07 8.703271e-08) (-2.565933e-11 1.507659e-06 -2.949726e-08)) ((-1.552044e-10 -5.155192e-13 3.050885e-13) (1.171284e-07 -8.818102e-12 2.480378e-12))
4.709811      	((8.632665e-11 7.319019e-07 6.435972e-08) (-5.685789e-11 1.388189e-06 -3.116782e-08)) ((-1.521923e-10 -1.097769e-12 3.000100e-13) (1.094300e-07 -7.993573e-12 4.429697e-12))
5.663773      	((1.537828e-10 6.639860e-07 4.247895e-08) (-6.655645e-11 1.281772e-06 -3.284670e-08)) ((-1.469039e-10 -1.033673e-12 3.434220e-13) (1.025946e-07 -6.155104e-12 5.496935e-12))
6.808528      	((1.916827e-10 6.148147e-07 1.840062e-08) (-1.201659e-11 1.186135e-06 -3.443899e-08)) ((-1.440009e-10 -1.332523e-12 3.814681e-13) (9.646206e-08 -4.210205e-12 5.975404e-12))
8.182233      	((3.845468e-10 5.619354e-07 -4.792342e-09) (1.736599e-11 1.099268e-06 -3.613771e-08)) ((-1.403199e-10 -1.323664e-12 3.726679e-13) (9.091362e-08 -2.350765e-12 6.502806e-12))
9.83068       	((3.441198e-10 5.206767e-07 -2.782580e-08) (2.042663e-11 1.019962e-06 -3.764745e-08)) ((-1.381670e-10 -1.544964e-12 3.762368e-13) (8.586909e-08 4.583321e-13 6.185136e-12))
11.808816     	((5.006689e-10 4.781280e-07 -5.017440e-08) (3.169370e-11 9.471689e-07 -3.880639e-08)) ((-1.355555e-10 -1.643500e-12 3.514482e-13) (8.126543e-08 2.038586e-13 5.191160e-12))
14.182579     	((4.908436e-10 4.437825e-07 -7.164650e-08) (4.758493e-11 8.800482e-07 -3.969181e-08)) ((-1.337638e-10 -1.823983e-12 3.370249e-13) (7.705465e-08 -2.395883e-12 4.447228e-12))
17.031095     	((4.484576e-10 4.090459e-07 -9.094680e-08) (4.420567e-11 8.180729e-07 -4.046426e-08)) ((-1.319973e-10 -1.896240e-12 3.418415e-13) (7.320393e-08 -3.752158e-12 3.695922e-12))
20.449314     	((3.027027e-10 3.794475e-07 -1.102735e-07) (2.968146e-11 7.611200e-07 -4.118468e-08)) ((-1.306909e-10 -2.033887e-12 3.541399e-13) (6.970609e-08 -2.461275e-12 2.965547e-12))
24.551176     	((2.048101e-10 3.519233e-07 -1.276232e-07) (6.371111e-12 7.091247e-07 -4.205656e-08)) ((-1.296147e-10 -2.125224e-12 3.681885e-13) (6.655025e-08 -1.010854e-12 2.406262e-12))
29.473411     	((1.860491e-10 3.290500e-07 -1.445033e-07) (6.763301e-12 6.619793e-07 -4.321215e-08)) ((-1.288963e-10 -2.252409e-12 3.831117e-13) (6.372012e-08 -5.960438e-13 1.857383e-12))
35.380094     	((1.986574e-10 3.083368e-07 -1.617084e-07) (1.099535e-11 6.194319e-07 -4.480237e-08)) ((-1.283335e-10 -2.349622e-12 3.905665e-13) (6.119481e-08 -7.298564e-13 1.616383e-12))
42.468112     	((2.170784e-10 2.915611e-07 -1.786069e-07) (1.727586e-11 5.811346e-07 -4.681590e-08)) ((-1.278987e-10 -2.462892e-12 3.963920e-13) (5.894831e-08 -8.227739e-13 1.558064e-12))
50.973735     	((2.708375e-10 2.770743e-07 -1.959723e-07) (3.099872e-11 5.466958e-07 -4.931691e-08)) ((-1.275617e-10 -2.555677e-12 3.985837e-13) (5.695778e-08 -1.333025e-12 1.988055e-12))
61.180482     	((2.527561e-10 2.655696e-07 -2.129181e-07) (4.310441e-11 5.159045e-07 -5.227696e-08)) ((-1.273427e-10 -2.650807e-12 4.088041e-13) (5.520289e-08 -2.051365e-12 2.227576e-12))
73.428578     	((2.827562e-10 2.564190e-07 -2.293370e-07) (6.724027e-11 4.885426e-07 -5.583544e-08)) ((-1.272258e-10 -2.713035e-12 4.152623e-13) (5.366725e-08 -3.273227e-12 2.510026e-12))
88.126294     	((2.718484e-10 2.506471e-07 -2.451979e-07) (8.238273e-11 4.645114e-07 -5.990582e-08)) ((-1.272118e-10 -2.769731e-12 4.199186e-13) (5.233494e-08 -4.400571e-12 2.434361e-12))
105.763553    	((2.562673e-10 2.473675e-07 -2.601574e-07) (9.276217e-11 4.437269e-07 -6.451951e-08)) ((-1.272810e-10 -2.825033e-12 4.208002e-13) (5.118999e-08 -5.291170e-12 2.177241e-12))
126.86266     	((2.280424e-10 2.464714e-07 -2.743386e-07) (1.054366e-10 4.261351e-07 -6.963710e-08)) ((-1.273796e-10 -2.878606e-12 4.165025e-13) (5.021925e-08 -6.009156e-12 2.189113e-12))
151.424357    	((2.065459e-10 2.476976e-07 -2.872642e-07) (9.887905e-11 4.118351e-07 -7.504688e-08)) ((-1.275127e-10 -2.936439e-12 4.065889e-13) (4.941663e-08 -6.635982e-12 2.001632e-12))
179.45025     	((1.728294e-10 2.508986e-07 -2.991427e-07) (8.349656e-11 4.007725e-07 -8.051565e-08)) ((-1.276317e-10 -2.991761e-12 4.005196e-13) (4.876999e-08 -7.140744e-12 1.726721e-12))
210.942118    	((1.719941e-10 2.555586e-07 -3.100031e-07) (6.833840e-11 3.927599e-07 -8.572958e-08)) ((-1.277370e-10 -3.042973e-12 3.960885e-13) (4.826572e-08 -7.319108e-12 1.303334e-12))
245.61725     	((1.907351e-10 2.610523e-07 -3.199437e-07) (5.484135e-11 3.874955e-07 -9.027166e-08)) ((-1.278410e-10 -3.090089e-12 3.916500e-13) (4.789034e-08 -7.310182e-12 9.611832e-13))
280.311468    	((2.066866e-10 2.655502e-07 -3.283379e-07) (4.931980e-11 3.844998e-07 -9.375811e-08)) ((-1.279720e-10 -3.128906e-12 3.864665e-13) (4.763181e-08 -7.453274e-12 7.226002e-13))
315.025067    	((2.225950e-10 2.683226e-07 -3.355388e-07) (4.416715e-11 3.829659e-07 -9.621509e-08)) ((-1.280633e-10 -3.163566e-12 3.814135e-13) (4.745795e-08 -7.701550e-12 5.870013e-13))
349.752608    	((2.294460e-10 2.694378e-07 -3.414470e-07) (3.889953e-11 3.822202e-07 -9.778543e-08)) ((-1.281092e-10 -3.189315e-12 3.763671e-13) (4.734127e-08 -7.943662e-12 5.774250e-13))
384.492087    	((2.354861e-10 2.696653e-07 -3.460953e-07) (3.559804e-11 3.817822e-07 -9.875246e-08)) ((-1.281267e-10 -3.206702e-12 3.732560e-13) (4.725933e-08 -8.069158e-12 6.286544e-13))
419.24167     	((2.416705e-10 2.694680e-07 -3.498591e-07) (3.204508e-11 3.814248e-07 -9.936603e-08)) ((-1.281325e-10 -3.218953e-12 3.716735e-13) (4.719916e-08 -8.131503e-12 7.011415e-13))
453.9996      	((2.474243e-10 2.692812e-07 -3.529202e-07) (2.989236e-11 3.810760e-07 -9.980226e-08)) ((-1.281348e-10 -3.227934e-12 3.706797e-13) (4.715347e-08 -8.198493e-12 7.470572e-13))
488.764228    	((2.531611e-10 2.691315e-07 -3.555184e-07) (2.940804e-11 3.807453e-07 -1.001666e-07)) ((-1.281379e-10 -3.235570e-12 3.703769e-13) (4.711865e-08 -8.333925e-12 7.979089e-13))
523.534445    	((2.591766e-10 2.689440e-07 -3.577955e-07) (2.994839e-11 3.804464e-07 -1.005173e-07)) ((-1.281392e-10 -3.242438e-12 3.705697e-13) (4.709177e-08 -8.511262e-12 8.395995e-13))
558.309443    	((2.647150e-10 2.688135e-07 -3.598153e-07) (3.087630e-11 3.801953e-07 -1.008717e-07)) ((-1.281396e-10 -3.248974e-12 3.711901e-13) (4.707085e-08 -8.693803e-12 8.627238e-13))
593.088494    	((2.692108e-10 2.687683e-07 -3.616274e-07) (3.202799e-11 3.800056e-07 -1.012279e-07)) ((-1.281407e-10 -3.255145e-12 3.715393e-13) (4.705475e-08 -8.872142e-12 8.830433e-13))
627.871237    	((2.729430e-10 2.687858e-07 -3.632609e-07) (3.356122e-11 3.798838e-07 -1.015746e-07)) ((-1.281434e-10 -3.260646e-12 3.717739e-13) (4.704288e-08 -9.039362e-12 9.063216e-13))
662.65739     	((2.748021e-10 2.688177e-07 -3.647395e-07) (3.508490e-11 3.798250e-07 -1.019007e-07)) ((-1.281467e-10 -3.265443e-12 3.720325e-13) (4.703464e-08 -9.173040e-12 9.249878e-13))
697.446694    	((2.774305e-10 2.688450e-07 -3.660825e-07) (3.655052e-11 3.798162e-07 -1.022001e-07)) ((-1.281503e-10 -3.269589e-12 3.722866e-13) (4.702931e-08 -9.288654e-12 9.428168e-13))
732.238903    	((2.794186e-10 2.688572e-07 -3.672928e-07) (3.818258e-11 3.798427e-07 -1.024698e-07)) ((-1.281539e-10 -3.273204e-12 3.725433e-13) (4.702621e-08 -9.393343e-12 9.619749e-13))
767.033798    	((2.806798e-10 2.688736e-07 -3.683912e-07) (3.983864e-11 3.798923e-07 -1.027084e-07)) ((-1.281573e-10 -3.276354e-12 3.728361e-13) (4.702480e-08 -9.487008e-12 9.901556e-13))
801.831177    	((2.830416e-10 2.688797e-07 -3.694021e-07) (4.166653e-11 3.799555e-07 -1.029197e-07)) ((-1.281600e-10 -3.279048e-12 3.730959e-13) (4.702458e-08 -9.577665e-12 1.027646e-12))
836.630849    	((2.832135e-10 2.688654e-07 -3.703381e-07) (4.360418e-11 3.800235e-07 -1.031109e-07)) ((-1.281614e-10 -3.281360e-12 3.732026e-13) (4.702503e-08 -9.662571e-12 1.068559e-12))
871.432565    	((2.849855e-10 2.688092e-07 -3.711873e-07) (4.561772e-11 3.800916e-07 -1.032891e-07)) ((-1.281616e-10 -3.283254e-12 3.732729e-13) (4.702575e-08 -9.745210e-12 1.107474e-12))
906.236053    	((2.865706e-10 2.687582e-07 -3.719627e-07) (4.761871e-11 3.801570e-07 -1.034560e-07)) ((-1.281623e-10 -3.284965e-12 3.732972e-13) (4.702660e-08 -9.831686e-12 1.145962e-12))
941.041099    	((2.880113e-10 2.687165e-07 -3.726817e-07) (4.971049e-11 3.802198e-07 -1.036117e-07)) ((-1.281632e-10 -3.286592e-12 3.733665e-13) (4.702757e-08 -9.923536e-12 1.183649e-12))
975.847562    	((2.883959e-10 2.686745e-07 -3.733444e-07) (5.166042e-11 3.802804e-07 -1.037565e-07)) ((-1.281641e-10 -3.288095e-12 3.734489e-13) (4.702863e-08 -1.000500e-11 1.217427e-12))
1010.655328   	((2.889983e-10 2.686364e-07 -3.739660e-07) (5.344384e-11 3.803393e-07 -1.038914e-07)) ((-1.281649e-10 -3.289491e-12 3.734964e-13) (4.702976e-08 -1.007569e-11 1.245807e-12))
1045.464298   	((2.896622e-10 2.685932e-07 -3.745467e-07) (5.504426e-11 3.803959e-07 -1.040179e-07)) ((-1.281656e-10 -3.290784e-12 3.735315e-13) (4.703089e-08 -1.013793e-11 1.274609e-12))
1080.274384   	((2.901690e-10 2.685579e-07 -3.750930e-07) (5.665691e-11 3.804506e-07 -1.041368e-07)) ((-1.281663e-10 -3.291932e-12 3.735586e-13) (4.703203e-08 -1.020031e-11 1.305803e-12))
1115.085512   	((2.903454e-10 2.685212e-07 -3.755983e-07) (5.823928e-11 3.805036e-07 -1.042483e-07)) ((-1.281669e-10 -3.292927e-12 3.735949e-13) (4.703316e-08 -1.026534e-11 1.338770e-12))
1149.897617   	((2.907327e-10 2.684869e-07 -3.760727e-07) (5.973610e-11 3.805544e-07 -1.043529e-07)) ((-1.281675e-10 -3.293815e-12 3.736024e-13) (4.703425e-08 -1.033232e-11 1.369476e-12))
1184.710641   	((2.909241e-10 2.684580e-07 -3.765187e-07) (6.108212e-11 3.806034e-07 -1.044513e-07)) ((-1.281681e-10 -3.294660e-12 3.736055e-13) (4.703533e-08 -1.039808e-11 1.397986e-12))
1219.524531   	((2.912348e-10 2.684290e-07 -3.769344e-07) (6.230643e-11 3.806506e-07 -1.045442e-07)) ((-1.281688e-10 -3.295478e-12 3.736327e-13) (4.703639e-08 -1.045932e-11 1.425920e-12))
1254.33924    	((2.913110e-10 2.684049e-07 -3.773242e-07) (6.340269e-11 3.806963e-07 -1.046320e-07)) ((-1.281695e-10 -3.296236e-12 3.736236e-13) (4.703743e-08 -1.051775e-11 1.449907e-12))
1289.154723   	((2.913835e-10 2.683824e-07 -3.776849e-07) (6.436047e-11 3.807406e-07 -1.047150e-07)) ((-1.281702e-10 -3.296935e-12 3.736175e-13) (4.703848e-08 -1.057333e-11 1.468665e-12))
1323.970939   	((2.915336e-10 2.683630e-07 -3.780222e-07) (6.525429e-11 3.807835e-07 -1.047929e-07)) ((-1.281709e-10 -3.297636e-12 3.736111e-13) (4.703953e-08 -1.062539e-11 1.483991e-12))
1358.78785    	((2.917930e-10 2.683433e-07 -3.783429e-07) (6.606809e-11 3.808249e-07 -1.048662e-07)) ((-1.281716e-10 -3.298299e-12 3.735964e-13) (4.704056e-08 -1.067236e-11 1.495822e-12))
1393.605417   	((2.920271e-10 2.683255e-07 -3.786448e-07) (6.679868e-11 3.808647e-07 -1.049351e-07)) ((-1.281722e-10 -3.298917e-12 3.735963e-13) (4.704158e-08 -1.071625e-11 1.503580e-12))
1428.423595   	((2.923914e-10 2.683085e-07 -3.789310e-07) (6.752354e-11 3.809030e-07 -1.050001e-07)) ((-1.281727e-10 -3.299480e-12 3.735801e-13) (4.704257e-08 -1.076022e-11 1.510177e-12))
1463.242346   	((2.927088e-10 2.682881e-07 -3.792017e-07) (6.827279e-11 3.809395e-07 -1.050616e-07)) ((-1.281732e-10 -3.299979e-12 3.735478e-13) (4.704352e-08 -1.080469e-11 1.516834e-12))
1498.061639   	((2.932820e-10 2.682673e-07 -3.794590e-07) (6.900970e-11 3.809740e-07 -1.051200e-07)) ((-1.281735e-10 -3.300456e-12 3.735276e-13) (4.704442e-08 -1.084850e-11 1.522266e-12))
