# Forces      
# CofR        : (0.000000e+00 0.000000e+00 0.000000e+00)
# Time        forces(pressure viscous)	moments(pressure viscous)
0             	((0.000000e+00 0.000000e+00 0.000000e+00) (-1.939551e-13 -6.343813e-04 4.119817e-14)) ((0.000000e+00 0.000000e+00 0.000000e+00) (-1.425389e-05 -1.583401e-15 3.080185e-10))
0.012         	((-4.122653e-08 -1.843661e-01 4.093871e-02) (8.817275e-10 -7.260510e-04 -2.774502e-06)) ((2.169771e-06 1.419362e-07 3.441622e-08) (-2.104341e-05 1.549205e-11 5.578386e-10))
0.0264        	((-2.224621e-06 1.786094e-02 -4.454901e-03) (3.560337e-10 -7.355816e-04 -4.319992e-06)) ((-2.030212e-07 -1.072788e-08 -1.777635e-09) (-2.345232e-05 9.582283e-11 5.575034e-10))
0.04368       	((1.141709e-06 3.585034e-02 -4.008430e-03) (1.911972e-09 -6.486877e-04 -4.269104e-06)) ((-4.734587e-07 -1.096124e-08 -1.036131e-08) (-2.085977e-05 2.161590e-10 2.759556e-10))
0.064416      	((-4.824664e-07 2.986004e-04 -2.370819e-03) (-2.775061e-10 -5.720714e-04 -4.562488e-06)) ((1.684996e-09 -5.033051e-09 1.313996e-09) (-1.881191e-05 3.317597e-10 2.201930e-10))
0.0892992     	((3.652079e-07 -8.011309e-05 -1.696606e-03) (-2.402739e-09 -5.267193e-04 -5.575392e-06)) ((1.164998e-08 -2.650226e-09 2.331585e-10) (-1.780238e-05 3.608614e-10 -2.466779e-10))
0.119159      	((4.185899e-07 6.213860e-04 -1.305100e-03) (4.282960e-09 -4.867011e-04 -6.679816e-06)) ((-1.233381e-08 -1.599796e-09 -4.189697e-10) (-1.670278e-05 2.422459e-10 -8.078787e-10))
0.154991      	((-2.994601e-07 2.036334e-04 -1.076259e-03) (7.432741e-10 -4.458556e-04 -7.736561e-06)) ((-6.577474e-09 -6.875655e-10 -8.870160e-11) (-1.553234e-05 1.420432e-10 -9.612205e-10))
0.197989      	((-2.225474e-07 1.417141e-05 -9.207994e-04) (-1.812119e-08 -4.067053e-04 -8.844741e-06)) ((-4.026037e-09 -2.461238e-10 2.802964e-11) (-1.438179e-05 7.861702e-11 -1.028691e-09))
0.249587      	((-2.655007e-07 -4.967525e-05 -8.255460e-04) (-3.530807e-08 -3.705366e-04 -1.006319e-05)) ((-3.105375e-09 -2.423627e-11 -2.771768e-12) (-1.327603e-05 8.575726e-11 -1.071989e-09))
0.311504      	((-1.273260e-07 -8.578956e-05 -7.653137e-04) (-4.184482e-08 -3.381529e-04 -1.133118e-05)) ((-2.480270e-09 1.747972e-10 1.033630e-11) (-1.223891e-05 1.470493e-10 -9.941466e-10))
0.385805      	((-1.313223e-07 -1.055447e-04 -7.270470e-04) (-4.445503e-08 -3.096364e-04 -1.263898e-05)) ((-2.059764e-09 2.848724e-10 9.972370e-12) (-1.128544e-05 1.886664e-10 -9.011556e-10))
0.474966      	((-9.792465e-08 -1.147088e-04 -7.012140e-04) (-4.282319e-08 -2.845382e-04 -1.399495e-05)) ((-1.689434e-09 3.418593e-10 1.809018e-11) (-1.041535e-05 2.039538e-10 -9.291945e-10))
0.581959      	((-6.933507e-08 -1.180193e-04 -6.848484e-04) (-3.343823e-08 -2.618649e-04 -1.544606e-05)) ((-1.361481e-09 3.742848e-10 1.711740e-11) (-9.608018e-06 2.121428e-10 -1.024406e-09))
0.710351      	((-1.909634e-08 -1.174476e-04 -6.736343e-04) (-2.551244e-08 -2.404528e-04 -1.703263e-05)) ((-1.044179e-09 3.900560e-10 1.710849e-11) (-8.832344e-06 2.215220e-10 -1.208625e-09))
0.864421      	((-1.390690e-08 -1.143842e-04 -6.660477e-04) (-2.155468e-08 -2.198907e-04 -1.878466e-05)) ((-7.705389e-10 3.830973e-10 2.661590e-11) (-8.080345e-06 2.081189e-10 -1.554683e-09))
1.049306      	((-1.705079e-09 -1.103309e-04 -6.603612e-04) (-1.619973e-08 -2.004290e-04 -2.073177e-05)) ((-5.336569e-10 3.680591e-10 3.617159e-11) (-7.364986e-06 1.834665e-10 -1.811128e-09))
1.271167      	((1.203404e-08 -1.065858e-04 -6.561473e-04) (-1.135400e-08 -1.823598e-04 -2.286065e-05)) ((-2.882283e-10 3.528682e-10 4.228726e-11) (-6.699257e-06 1.341538e-10 -1.789225e-09))
1.5374        	((1.621424e-08 -1.039580e-04 -6.522610e-04) (-8.218890e-09 -1.658818e-04 -2.512143e-05)) ((-1.889534e-11 3.346939e-10 4.993420e-11) (-6.091425e-06 5.986214e-11 -1.633348e-09))
1.85688       	((-6.513207e-09 -1.030945e-04 -6.481681e-04) (-6.522081e-09 -1.511270e-04 -2.746534e-05)) ((2.541869e-10 3.122625e-10 5.966890e-11) (-5.546478e-06 -5.348216e-11 -1.481712e-09))
2.240256      	((-3.429673e-08 -1.041626e-04 -6.435826e-04) (-6.137624e-09 -1.381549e-04 -2.982611e-05)) ((5.533784e-10 2.868164e-10 6.898829e-11) (-5.066913e-06 -1.433891e-10 -1.322022e-09))
2.700307      	((-4.663404e-08 -1.075664e-04 -6.381618e-04) (-6.961037e-09 -1.269386e-04 -3.211784e-05)) ((8.975877e-10 2.573949e-10 8.572145e-11) (-4.652639e-06 -1.324962e-10 -1.112361e-09))
3.252369      	((-3.401136e-08 -1.136390e-04 -6.318167e-04) (-5.919808e-09 -1.174026e-04 -3.424765e-05)) ((1.282259e-09 2.269758e-10 1.075395e-10) (-4.301901e-06 -1.316511e-10 -9.516553e-10))
3.914842      	((-2.352989e-08 -1.225644e-04 -6.245196e-04) (-2.354558e-09 -1.094175e-04 -3.616793e-05)) ((1.699917e-09 1.914876e-10 1.366620e-10) (-4.009893e-06 -1.269532e-10 -9.578497e-10))
4.707617      	((1.190315e-09 -1.344487e-04 -6.161373e-04) (-3.213136e-10 -1.028443e-04 -3.788739e-05)) ((2.149689e-09 1.492833e-10 1.767324e-10) (-3.769745e-06 -8.452567e-11 -1.177437e-09))
5.630508      	((1.196820e-08 -1.490747e-04 -6.072095e-04) (6.719137e-10 -9.757077e-05 -3.944656e-05)) ((2.608750e-09 1.039332e-10 2.247279e-10) (-3.575737e-06 -1.223467e-10 -1.667391e-09))
6.683358      	((3.107829e-08 -1.659072e-04 -5.974565e-04) (2.223743e-09 -9.336033e-05 -4.082858e-05)) ((3.050754e-09 5.075627e-11 2.802857e-10) (-3.421132e-06 -1.632280e-10 -2.333096e-09))
7.865821      	((4.115095e-08 -1.843844e-04 -5.870697e-04) (1.831082e-09 -9.005704e-05 -4.197545e-05)) ((3.433542e-09 -5.198624e-12 3.418757e-10) (-3.299287e-06 -1.824898e-10 -2.860517e-09))
9.15479       	((5.400137e-08 -2.040980e-04 -5.756373e-04) (1.205132e-09 -8.753919e-05 -4.280613e-05)) ((3.736974e-09 -6.546873e-11 3.959785e-10) (-3.203547e-06 -1.802485e-10 -3.162713e-09))
10.433288     	((8.846502e-08 -2.226708e-04 -5.630487e-04) (4.725245e-09 -8.576169e-05 -4.320967e-05)) ((3.983189e-09 -1.226545e-10 4.403223e-10) (-3.133243e-06 -2.065593e-10 -3.277874e-09))
11.700827     	((1.251087e-07 -2.385096e-04 -5.486874e-04) (1.112234e-08 -8.439079e-05 -4.327038e-05)) ((4.201226e-09 -1.758515e-10 4.815831e-10) (-3.077782e-06 -1.824729e-10 -3.011291e-09))
12.960763     	((1.882070e-07 -2.513639e-04 -5.334116e-04) (1.898124e-08 -8.321523e-05 -4.312005e-05)) ((4.413209e-09 -2.220582e-10 5.180773e-10) (-3.030930e-06 -1.834918e-10 -2.610900e-09))
14.218747     	((2.309765e-07 -2.612556e-04 -5.178619e-04) (2.616062e-08 -8.215261e-05 -4.286237e-05)) ((4.623862e-09 -2.585526e-10 5.532287e-10) (-2.990371e-06 -2.652772e-10 -2.345214e-09))
15.479473     	((2.835066e-07 -2.671708e-04 -5.023357e-04) (3.228569e-08 -8.121136e-05 -4.254109e-05)) ((4.800628e-09 -2.744635e-10 5.840997e-10) (-2.956509e-06 -3.300249e-10 -2.029459e-09))
16.744567     	((3.032729e-07 -2.698331e-04 -4.872342e-04) (3.755108e-08 -8.033912e-05 -4.218728e-05)) ((4.951915e-09 -2.698378e-10 6.043264e-10) (-2.928057e-06 -4.324543e-10 -1.730825e-09))
18.012992     	((3.271358e-07 -2.696964e-04 -4.733592e-04) (3.897409e-08 -7.952243e-05 -4.182897e-05)) ((5.059869e-09 -2.521278e-10 6.162959e-10) (-2.904022e-06 -5.780747e-10 -1.703202e-09))
19.283562     	((3.263183e-07 -2.674319e-04 -4.606577e-04) (3.769438e-08 -7.875410e-05 -4.149618e-05)) ((5.120629e-09 -2.289714e-10 6.211158e-10) (-2.883058e-06 -7.276451e-10 -1.754615e-09))
20.555959     	((3.266969e-07 -2.644608e-04 -4.487895e-04) (3.767994e-08 -7.802245e-05 -4.120944e-05)) ((5.146109e-09 -2.070179e-10 6.211334e-10) (-2.863592e-06 -8.662944e-10 -1.705265e-09))
21.830555     	((3.373831e-07 -2.614438e-04 -4.364042e-04) (3.885855e-08 -7.733225e-05 -4.095686e-05)) ((5.156895e-09 -1.856840e-10 6.187325e-10) (-2.845285e-06 -9.880956e-10 -1.581119e-09))
23.107759     	((3.560400e-07 -2.594570e-04 -4.255252e-04) (4.056140e-08 -7.670213e-05 -4.071632e-05)) ((5.157494e-09 -1.722406e-10 6.140049e-10) (-2.828774e-06 -1.081916e-09 -1.497996e-09))
24.38704      	((4.057646e-07 -2.574611e-04 -4.162830e-04) (4.303559e-08 -7.612811e-05 -4.050899e-05)) ((5.132104e-09 -1.596656e-10 6.088796e-10) (-2.813428e-06 -1.183018e-09 -1.497422e-09))
25.668377     	((4.636114e-07 -2.554239e-04 -4.073595e-04) (4.662649e-08 -7.559390e-05 -4.034378e-05)) ((5.104197e-09 -1.458505e-10 6.044489e-10) (-2.798560e-06 -1.331823e-09 -1.553084e-09))
26.952026     	((5.209119e-07 -2.532039e-04 -3.980462e-04) (4.957376e-08 -7.508313e-05 -4.021409e-05)) ((5.065113e-09 -1.279316e-10 6.010281e-10) (-2.783555e-06 -1.500509e-09 -1.698904e-09))
28.237704     	((6.255749e-07 -2.514179e-04 -3.890222e-04) (5.296136e-08 -7.459656e-05 -4.011347e-05)) ((5.028878e-09 -1.085456e-10 5.990177e-10) (-2.768466e-06 -1.735305e-09 -1.891891e-09))
29.524194     	((7.105632e-07 -2.498812e-04 -3.803920e-04) (5.695108e-08 -7.413595e-05 -4.003320e-05)) ((5.001114e-09 -9.184389e-11 5.983392e-10) (-2.753696e-06 -2.000077e-09 -2.088107e-09))
30.81109      	((8.187810e-07 -2.486341e-04 -3.722055e-04) (6.147299e-08 -7.370353e-05 -3.996515e-05)) ((4.985300e-09 -7.670614e-11 5.978138e-10) (-2.739636e-06 -2.284432e-09 -2.297659e-09))
32.098738     	((9.408364e-07 -2.473728e-04 -3.641263e-04) (6.661076e-08 -7.329556e-05 -3.990037e-05)) ((4.976865e-09 -6.062221e-11 5.973809e-10) (-2.726431e-06 -2.617663e-09 -2.535449e-09))
33.387293     	((1.135922e-06 -2.461969e-04 -3.562573e-04) (7.470471e-08 -7.290836e-05 -3.983662e-05)) ((4.971311e-09 -4.124220e-11 5.968684e-10) (-2.714124e-06 -3.104582e-09 -2.784909e-09))
34.676896     	((1.276855e-06 -2.451173e-04 -3.485987e-04) (8.416035e-08 -7.254353e-05 -3.977281e-05)) ((4.968318e-09 -2.264532e-11 5.963112e-10) (-2.702860e-06 -3.632910e-09 -3.032981e-09))
35.967714     	((1.422415e-06 -2.441664e-04 -3.411499e-04) (9.358205e-08 -7.220230e-05 -3.970529e-05)) ((4.970006e-09 -3.683385e-12 5.961848e-10) (-2.692719e-06 -4.163250e-09 -3.280896e-09))
37.259884     	((1.616605e-06 -2.432704e-04 -3.339801e-04) (1.051164e-07 -7.188303e-05 -3.963650e-05)) ((4.972255e-09 1.514753e-11 5.958063e-10) (-2.683514e-06 -4.769569e-09 -3.519692e-09))
38.553455     	((1.833403e-06 -2.426033e-04 -3.270352e-04) (1.193188e-07 -7.158874e-05 -3.956447e-05)) ((4.981860e-09 3.238238e-11 5.955597e-10) (-2.675358e-06 -5.452612e-09 -3.724859e-09))
39.848382     	((2.073306e-06 -2.416723e-04 -3.201944e-04) (1.361095e-07 -7.130861e-05 -3.949511e-05)) ((4.986310e-09 5.017060e-11 5.948903e-10) (-2.667795e-06 -6.213727e-09 -3.896357e-09))
41.144675     	((2.276226e-06 -2.406658e-04 -3.135874e-04) (1.542796e-07 -7.103438e-05 -3.943475e-05)) ((4.986787e-09 6.734427e-11 5.942652e-10) (-2.660349e-06 -7.009745e-09 -4.047278e-09))
42.44235      	((2.507124e-06 -2.397160e-04 -3.070382e-04) (1.739136e-07 -7.076814e-05 -3.938306e-05)) ((4.986549e-09 8.502543e-11 5.937827e-10) (-2.653053e-06 -7.834018e-09 -4.211226e-09))
43.741389     	((2.658907e-06 -2.387705e-04 -3.006327e-04) (1.921868e-07 -7.050818e-05 -3.933730e-05)) ((4.987132e-09 1.007824e-10 5.931983e-10) (-2.645910e-06 -8.572272e-09 -4.416435e-09))
45.041804     	((2.861212e-06 -2.379922e-04 -2.945982e-04) (2.091774e-07 -7.025695e-05 -3.929367e-05)) ((4.988856e-09 1.154288e-10 5.924899e-10) (-2.639002e-06 -9.282952e-09 -4.676233e-09))
46.34364      	((3.092843e-06 -2.372543e-04 -2.888144e-04) (2.271992e-07 -7.001624e-05 -3.925165e-05)) ((4.990658e-09 1.286381e-10 5.919534e-10) (-2.632322e-06 -1.005144e-08 -4.938709e-09))
47.646941     	((3.378857e-06 -2.366454e-04 -2.833195e-04) (2.477476e-07 -6.978912e-05 -3.920856e-05)) ((4.994127e-09 1.431461e-10 5.915863e-10) (-2.626042e-06 -1.090027e-08 -5.153320e-09))
48.95184      	((3.726046e-06 -2.360267e-04 -2.779077e-04) (2.720393e-07 -6.957340e-05 -3.916317e-05)) ((4.996533e-09 1.607211e-10 5.913787e-10) (-2.620211e-06 -1.190376e-08 -5.338556e-09))
50.258442     	((4.070702e-06 -2.353221e-04 -2.725651e-04) (2.985991e-07 -6.936365e-05 -3.912222e-05)) ((4.990648e-09 1.792340e-10 5.915803e-10) (-2.614468e-06 -1.303323e-08 -5.556276e-09))
51.56669      	((4.450258e-06 -2.347096e-04 -2.674727e-04) (3.271550e-07 -6.916177e-05 -3.909215e-05)) ((4.978172e-09 1.976986e-10 5.920671e-10) (-2.608568e-06 -1.426623e-08 -5.787825e-09))
52.876529     	((4.860262e-06 -2.340708e-04 -2.624908e-04) (3.583543e-07 -6.896532e-05 -3.907688e-05)) ((4.960417e-09 2.165194e-10 5.926130e-10) (-2.602278e-06 -1.561709e-08 -6.023787e-09))
54.187919     	((5.367118e-06 -2.334331e-04 -2.576519e-04) (3.940182e-07 -6.877185e-05 -3.907359e-05)) ((4.942544e-09 2.364472e-10 5.930849e-10) (-2.595659e-06 -1.715958e-08 -6.263224e-09))
55.500823     	((5.953590e-06 -2.327791e-04 -2.528911e-04) (4.350835e-07 -6.858173e-05 -3.907331e-05)) ((4.928795e-09 2.566728e-10 5.932668e-10) (-2.589069e-06 -1.892647e-08 -6.551533e-09))
56.81521      	((6.647056e-06 -2.321079e-04 -2.481511e-04) (4.824662e-07 -6.839664e-05 -3.906843e-05)) ((4.918499e-09 2.785986e-10 5.932808e-10) (-2.582817e-06 -2.096371e-08 -6.926253e-09))
58.131044     	((7.363359e-06 -2.314529e-04 -2.434379e-04) (5.348204e-07 -6.821864e-05 -3.905626e-05)) ((4.911065e-09 3.002900e-10 5.933380e-10) (-2.577021e-06 -2.322849e-08 -7.413873e-09))
59.448294     	((8.124190e-06 -2.308459e-04 -2.388214e-04) (5.908985e-07 -6.804782e-05 -3.903909e-05)) ((4.904898e-09 3.222352e-10 5.935962e-10) (-2.571603e-06 -2.567939e-08 -8.035432e-09))
60.766921     	((8.969880e-06 -2.303160e-04 -2.343654e-04) (6.516527e-07 -6.788459e-05 -3.901868e-05)) ((4.899754e-09 3.454442e-10 5.938492e-10) (-2.566510e-06 -2.836973e-08 -8.779179e-09))
62.086868     	((9.901863e-06 -2.297741e-04 -2.299976e-04) (7.190205e-07 -6.772742e-05 -3.899715e-05)) ((4.893658e-09 3.701391e-10 5.939261e-10) (-2.561634e-06 -3.135695e-08 -9.592977e-09))
63.408085     	((1.088553e-05 -2.293519e-04 -2.258297e-04) (7.929716e-07 -6.757824e-05 -3.897223e-05)) ((4.890973e-09 3.945491e-10 5.940858e-10) (-2.557088e-06 -3.460764e-08 -1.045806e-08))
64.730529     	((1.196859e-05 -2.289540e-04 -2.217566e-04) (8.738946e-07 -6.743783e-05 -3.894279e-05)) ((4.889577e-09 4.197535e-10 5.941928e-10) (-2.552926e-06 -3.811964e-08 -1.138593e-08))
66.054157     	((1.310952e-05 -2.285720e-04 -2.178552e-04) (9.622677e-07 -6.730522e-05 -3.891035e-05)) ((4.889086e-09 4.448708e-10 5.941027e-10) (-2.549074e-06 -4.190708e-08 -1.235898e-08))
67.378919     	((1.431319e-05 -2.281608e-04 -2.140312e-04) (1.057763e-06 -6.717829e-05 -3.887568e-05)) ((4.889020e-09 4.707125e-10 5.936859e-10) (-2.545452e-06 -4.596226e-08 -1.337758e-08))
68.704746     	((1.562067e-05 -2.277742e-04 -2.103076e-04) (1.160774e-06 -6.705621e-05 -3.883830e-05)) ((4.890326e-09 4.982248e-10 5.929297e-10) (-2.542045e-06 -5.033456e-08 -1.447133e-08))
70.031567     	((1.703219e-05 -2.274166e-04 -2.067168e-04) (1.272310e-06 -6.693969e-05 -3.879759e-05)) ((4.892346e-09 5.278248e-10 5.921541e-10) (-2.538874e-06 -5.509226e-08 -1.564187e-08))
71.35932      	((1.859285e-05 -2.270273e-04 -2.031732e-04) (1.394557e-06 -6.682716e-05 -3.875475e-05)) ((4.893486e-09 5.600455e-10 5.914162e-10) (-2.535850e-06 -6.032031e-08 -1.685718e-08))
72.687939     	((2.029010e-05 -2.266584e-04 -1.997208e-04) (1.528665e-06 -6.671877e-05 -3.870999e-05)) ((4.894245e-09 5.946394e-10 5.907822e-10) (-2.532952e-06 -6.607545e-08 -1.811315e-08))
74.017365     	((2.215989e-05 -2.263007e-04 -1.962933e-04) (1.676350e-06 -6.661567e-05 -3.866299e-05)) ((4.893864e-09 6.319415e-10 5.902468e-10) (-2.530210e-06 -7.241154e-08 -1.939815e-08))
75.347541     	((2.420129e-05 -2.259944e-04 -1.929591e-04) (1.838924e-06 -6.651875e-05 -3.861333e-05)) ((4.892867e-09 6.719873e-10 5.896806e-10) (-2.527661e-06 -7.938295e-08 -2.072412e-08))
76.678413     	((2.643142e-05 -2.257266e-04 -1.896782e-04) (2.017595e-06 -6.642795e-05 -3.856103e-05)) ((4.891452e-09 7.148964e-10 5.887610e-10) (-2.525300e-06 -8.702727e-08 -2.214331e-08))
78.009929     	((2.888360e-05 -2.255036e-04 -1.864786e-04) (2.213511e-06 -6.634299e-05 -3.850688e-05)) ((4.889160e-09 7.615186e-10 5.876480e-10) (-2.523118e-06 -9.541763e-08 -2.369951e-08))
79.342053     	((3.158638e-05 -2.253496e-04 -1.833729e-04) (2.428387e-06 -6.626497e-05 -3.845109e-05)) ((4.886695e-09 8.117214e-10 5.862118e-10) (-2.521159e-06 -1.046318e-07 -2.542262e-08))
80.674753     	((3.456637e-05 -2.252496e-04 -1.803654e-04) (2.664759e-06 -6.619369e-05 -3.839332e-05)) ((4.883347e-09 8.657115e-10 5.845328e-10) (-2.519450e-06 -1.147666e-07 -2.733049e-08))
82.007968     	((3.786872e-05 -2.251988e-04 -1.774375e-04) (2.925394e-06 -6.612974e-05 -3.833414e-05)) ((4.878626e-09 9.245472e-10 5.828643e-10) (-2.518031e-06 -1.259120e-07 -2.945007e-08))
83.341623     	((4.151768e-05 -2.252279e-04 -1.746439e-04) (3.213098e-06 -6.607505e-05 -3.827310e-05)) ((4.873789e-09 9.889996e-10 5.810768e-10) (-2.516986e-06 -1.381800e-07 -3.179600e-08))
84.67487      	((4.554153e-05 -2.253275e-04 -1.718857e-04) (3.530826e-06 -6.603021e-05 -3.821133e-05)) ((4.868528e-09 1.059859e-09 5.791201e-10) (-2.516352e-06 -1.517070e-07 -3.436425e-08))
86.00691      	((4.995061e-05 -2.255240e-04 -1.692531e-04) (3.881250e-06 -6.599503e-05 -3.815139e-05)) ((4.863478e-09 1.135803e-09 5.770672e-10) (-2.516077e-06 -1.665879e-07 -3.715595e-08))
87.337511     	((5.479803e-05 -2.258468e-04 -1.667272e-04) (4.267622e-06 -6.597110e-05 -3.809270e-05)) ((4.859549e-09 1.218475e-09 5.747024e-10) (-2.516272e-06 -1.829664e-07 -4.018958e-08))
88.666426     	((6.002728e-05 -2.263485e-04 -1.643842e-04) (4.690782e-06 -6.596231e-05 -3.803360e-05)) ((4.857789e-09 1.306121e-09 5.719105e-10) (-2.517139e-06 -2.008977e-07 -4.351985e-08))
89.993407     	((6.575253e-05 -2.269951e-04 -1.621215e-04) (5.153288e-06 -6.596870e-05 -3.797585e-05)) ((4.857633e-09 1.401333e-09 5.685274e-10) (-2.518704e-06 -2.205178e-07 -4.723422e-08))
91.318213     	((7.198037e-05 -2.277952e-04 -1.599384e-04) (5.658386e-06 -6.598905e-05 -3.792010e-05)) ((4.858820e-09 1.503528e-09 5.644273e-10) (-2.520969e-06 -2.419227e-07 -5.131037e-08))
92.640615     	((7.867600e-05 -2.288280e-04 -1.579991e-04) (6.209797e-06 -6.602792e-05 -3.786475e-05)) ((4.863769e-09 1.612407e-09 5.599006e-10) (-2.524090e-06 -2.651152e-07 -5.557908e-08))
93.960373     	((8.587955e-05 -2.301670e-04 -1.563236e-04) (6.808939e-06 -6.608951e-05 -3.780755e-05)) ((4.873129e-09 1.728874e-09 5.544745e-10) (-2.528257e-06 -2.901524e-07 -6.007803e-08))
95.277251     	((9.361151e-05 -2.317871e-04 -1.548600e-04) (7.457397e-06 -6.617570e-05 -3.775157e-05)) ((4.884288e-09 1.853208e-09 5.482460e-10) (-2.533427e-06 -3.172200e-07 -6.488428e-08))
96.591032     	((1.019081e-04 -2.338184e-04 -1.537870e-04) (8.157166e-06 -6.629281e-05 -3.769560e-05)) ((4.900033e-09 1.984194e-09 5.411476e-10) (-2.539833e-06 -3.464593e-07 -7.009358e-08))
97.901536     	((1.108191e-04 -2.361918e-04 -1.529066e-04) (8.908324e-06 -6.644398e-05 -3.763876e-05)) ((4.919928e-09 2.121576e-09 5.336988e-10) (-2.547695e-06 -3.778972e-07 -7.578533e-08))
99.208568     	((1.203866e-04 -2.391085e-04 -1.524341e-04) (9.717229e-06 -6.663760e-05 -3.757971e-05)) ((4.946880e-09 2.266500e-09 5.261231e-10) (-2.557301e-06 -4.116881e-07 -8.177211e-08))
100.511899    	((1.305308e-04 -2.425506e-04 -1.523043e-04) (1.058406e-05 -6.688022e-05 -3.751816e-05)) ((4.980321e-09 2.417719e-09 5.188931e-10) (-2.568867e-06 -4.478031e-07 -8.816091e-08))
101.811421    	((1.411762e-04 -2.464516e-04 -1.524426e-04) (1.150907e-05 -6.717057e-05 -3.745774e-05)) ((5.017766e-09 2.574990e-09 5.110106e-10) (-2.582274e-06 -4.861199e-07 -9.488466e-08))
103.10733     	((1.522555e-04 -2.509563e-04 -1.530145e-04) (1.249568e-05 -6.750910e-05 -3.739945e-05)) ((5.061944e-09 2.733357e-09 5.028319e-10) (-2.597640e-06 -5.264846e-07 -1.016393e-07))
104.399624    	((1.636822e-04 -2.562402e-04 -1.541138e-04) (1.354022e-05 -6.790730e-05 -3.733693e-05)) ((5.118407e-09 2.891742e-09 4.959943e-10) (-2.615540e-06 -5.687386e-07 -1.084164e-07))
105.688197    	((1.752441e-04 -2.622314e-04 -1.557517e-04) (1.463365e-05 -6.837425e-05 -3.726694e-05)) ((5.183646e-09 3.048668e-09 4.910376e-10) (-2.636256e-06 -6.125456e-07 -1.152084e-07))
106.973057    	((1.868137e-04 -2.688643e-04 -1.580042e-04) (1.576611e-05 -6.891651e-05 -3.719224e-05)) ((5.260115e-09 3.200485e-09 4.890197e-10) (-2.659801e-06 -6.574848e-07 -1.217707e-07))
108.254323    	((1.982393e-04 -2.761376e-04 -1.607213e-04) (1.692697e-05 -6.953472e-05 -3.710677e-05)) ((5.352086e-09 3.345799e-09 4.891555e-10) (-2.686367e-06 -7.031536e-07 -1.280507e-07))
109.532193    	((2.092292e-04 -2.839885e-04 -1.638532e-04) (1.809994e-05 -7.022891e-05 -3.700579e-05)) ((5.458214e-09 3.481486e-09 4.921139e-10) (-2.716050e-06 -7.490220e-07 -1.340481e-07))
110.807074    	((2.193569e-04 -2.924977e-04 -1.678625e-04) (1.926470e-05 -7.100655e-05 -3.688768e-05)) ((5.577526e-09 3.598825e-09 4.986818e-10) (-2.748963e-06 -7.942806e-07 -1.395500e-07))
112.079447    	((2.280836e-04 -3.013422e-04 -1.724216e-04) (2.039610e-05 -7.186299e-05 -3.675053e-05)) ((5.710583e-09 3.689682e-09 5.079192e-10) (-2.784874e-06 -8.376952e-07 -1.440191e-07))
113.348253    	((2.349268e-04 -3.102714e-04 -1.777030e-04) (2.146369e-05 -7.278427e-05 -3.659611e-05)) ((5.854512e-09 3.747439e-09 5.185407e-10) (-2.823148e-06 -8.778344e-07 -1.467780e-07))
