# Forces      
# CofR        : (0.000000e+00 0.000000e+00 0.000000e+00)
# Time        forces(pressure viscous)	moments(pressure viscous)
0             	((0.000000e+00 0.000000e+00 0.000000e+00) (0.000000e+00 0.000000e+00 0.000000e+00)) ((0.000000e+00 0.000000e+00 0.000000e+00) (0.000000e+00 0.000000e+00 0.000000e+00))
0.012         	((-2.243175e-08 8.165239e-13 -7.633349e-09) (-5.263535e-08 1.022036e-16 -4.768146e-12)) ((-3.458875e-16 3.395266e-12 -2.755636e-16) (-5.742050e-17 3.502702e-09 -2.280122e-17))
0.0264        	((-3.093613e-08 1.809214e-11 -9.993847e-09) (-4.821462e-08 5.506041e-15 -2.886548e-12)) ((-1.786636e-16 -1.747380e-12 -6.847363e-17) (-2.065349e-16 3.211965e-09 1.559008e-16))
0.04368       	((-2.059168e-08 -1.093082e-11 -6.840581e-09) (-4.365249e-08 -4.134684e-15 2.779525e-14)) ((-3.977418e-16 -1.264383e-12 -2.030818e-16) (-5.380506e-16 2.912849e-09 5.817448e-16))
0.064416      	((-2.356878e-08 1.286860e-11 -7.637092e-09) (-3.904937e-08 -9.737304e-15 2.036660e-12)) ((-1.973735e-16 -2.432748e-12 3.874553e-17) (-1.030562e-15 2.612074e-09 6.878363e-16))
0.0892992     	((-1.725525e-08 -5.619201e-12 -5.725658e-09) (-3.453606e-08 -1.165139e-14 2.344768e-12)) ((-1.216930e-16 -1.736883e-12 -1.349754e-16) (-1.657541e-15 2.318230e-09 3.671948e-16))
0.119159      	((-1.780828e-08 6.347019e-12 -5.682933e-09) (-3.025693e-08 -3.663088e-15 1.792815e-12)) ((-1.599250e-16 -2.108799e-12 -5.923482e-18) (-1.498438e-15 2.040926e-09 -6.903960e-17))
0.154991      	((-1.337269e-08 -3.210820e-12 -4.484855e-09) (-2.634625e-08 1.041785e-15 1.643348e-12)) ((4.615645e-17 -1.474260e-12 -9.271158e-18) (-1.501842e-15 1.786010e-09 -7.959480e-16))
0.197989      	((-1.323309e-08 2.383104e-12 -4.182979e-09) (-2.288521e-08 2.998607e-15 1.390394e-12)) ((8.003107e-17 -1.658341e-12 1.177672e-17) (-1.434716e-15 1.560188e-09 -1.450728e-15))
0.249587      	((-1.025345e-08 -1.277944e-12 -3.438527e-09) (-1.993540e-08 6.586078e-15 9.642542e-13)) ((5.035654e-17 -1.186231e-12 -4.369744e-18) (-1.185200e-15 1.366270e-09 -1.775716e-15))
0.311504      	((-9.971194e-09 3.669563e-13 -3.133799e-09) (-1.748337e-08 6.975423e-15 6.576363e-13)) ((1.379265e-16 -1.307009e-12 -1.222748e-17) (-1.332524e-15 1.204381e-09 -1.767648e-15))
0.385805      	((-8.025869e-09 -2.403787e-13 -2.684689e-09) (-1.545789e-08 4.952799e-15 4.942508e-13)) ((3.260330e-17 -9.730689e-13 -1.723097e-17) (-1.243609e-15 1.070509e-09 -1.785944e-15))
0.474966      	((-7.788693e-09 2.981065e-13 -2.448138e-09) (-1.378296e-08 6.321901e-15 2.218099e-13)) ((1.387376e-16 -1.056345e-12 -1.239523e-17) (-1.079021e-15 9.599903e-10 -2.389803e-15))
0.581959      	((-6.483718e-09 5.138577e-14 -2.160972e-09) (-1.237342e-08 1.061831e-14 -1.196888e-14)) ((2.168961e-17 -8.147662e-13 1.518440e-17) (7.781064e-17 8.669080e-10 -1.863024e-15))
0.710351      	((-6.285693e-09 -2.047705e-13 -1.973936e-09) (-1.116286e-08 5.471853e-15 1.301423e-13)) ((1.884797e-16 -8.768725e-13 2.320479e-17) (5.850051e-16 7.872442e-10 -4.614983e-17))
0.864421      	((-5.353039e-09 3.304866e-13 -1.777383e-09) (-1.009855e-08 1.336497e-15 -1.344855e-13)) ((9.595710e-17 -7.067080e-13 2.841139e-17) (6.385919e-16 7.172626e-10 1.535255e-16))
1.049306      	((-5.150605e-09 5.761123e-14 -1.617802e-09) (-9.150704e-09 -1.748550e-15 -1.715801e-13)) ((2.313713e-16 -7.548347e-13 2.637437e-17) (-1.802201e-15 6.552454e-10 -1.133886e-15))
1.271167      	((-4.429427e-09 3.407366e-13 -1.462330e-09) (-8.295078e-09 6.606744e-15 -4.223618e-13)) ((1.621617e-16 -6.367089e-13 9.990399e-17) (-4.202677e-15 5.993258e-10 -2.755424e-15))
1.5374        	((-4.211079e-09 3.974663e-13 -1.327277e-09) (-7.522900e-09 1.261117e-14 -6.889520e-13)) ((2.879103e-16 -6.625469e-13 1.463594e-16) (-6.437809e-15 5.489154e-10 -3.827127e-15))
1.85688       	((-3.648142e-09 3.807941e-13 -1.200882e-09) (-6.824948e-09 2.727570e-14 -1.150951e-12)) ((2.827065e-16 -5.744473e-13 1.356841e-16) (-8.816789e-15 5.034279e-10 -3.817649e-15))
2.240256      	((-3.421881e-09 3.169861e-13 -1.088900e-09) (-6.198270e-09 3.223152e-14 -1.285199e-12)) ((3.753658e-16 -5.829629e-13 1.174718e-16) (-1.261548e-14 4.625603e-10 -3.056428e-15))
2.700307      	((-2.999596e-09 2.461809e-13 -9.911756e-10) (-5.643265e-09 1.961078e-14 -1.218344e-12)) ((3.198048e-16 -5.202678e-13 1.312914e-16) (-1.946147e-14 4.264090e-10 2.406005e-16))
3.252369      	((-2.793934e-09 6.060838e-13 -9.021687e-10) (-5.152910e-09 1.016455e-14 -1.031644e-12)) ((3.688278e-16 -5.220800e-13 1.250186e-16) (-2.670369e-14 3.944230e-10 8.356944e-15))
3.914842      	((-2.490086e-09 -6.702214e-14 -8.253474e-10) (-4.722281e-09 -1.875949e-14 -7.467664e-13)) ((3.008813e-16 -4.859523e-13 1.492384e-16) (-3.315636e-14 3.664225e-10 1.902605e-14))
4.709811      	((-2.305302e-09 -1.426082e-14 -7.552494e-10) (-4.343426e-09 -2.001177e-14 -7.264653e-13)) ((2.493730e-16 -4.823915e-13 2.067084e-16) (-3.635347e-14 3.418335e-10 2.755105e-14))
5.663773      	((-2.084464e-09 -4.330628e-14 -6.951723e-10) (-4.007038e-09 2.558240e-15 -1.100630e-12)) ((1.540663e-16 -4.589369e-13 2.372744e-16) (-3.526231e-14 3.200529e-10 3.269000e-14))
6.808528      	((-1.922523e-09 5.327293e-13 -6.385823e-10) (-3.705189e-09 4.862568e-14 -1.542610e-12)) ((2.503159e-16 -4.494377e-13 2.532894e-16) (-3.285883e-14 3.005599e-10 3.364029e-14))
8.182233      	((-1.752183e-09 5.610916e-13 -5.896850e-10) (-3.431457e-09 8.953144e-14 -2.109007e-12)) ((1.992709e-16 -4.342067e-13 2.364092e-16) (-3.199798e-14 2.829833e-10 3.259690e-14))
9.83068       	((-1.606290e-09 6.040980e-13 -5.431866e-10) (-3.180999e-09 1.122865e-13 -2.557391e-12)) ((2.443486e-16 -4.236941e-13 2.169286e-16) (-3.149741e-14 2.669916e-10 3.127351e-14))
11.808816     	((-1.469321e-09 3.983479e-13 -5.028153e-10) (-2.951260e-09 1.167091e-13 -2.627212e-12)) ((1.481668e-16 -4.126247e-13 1.906817e-16) (-2.860771e-14 2.524161e-10 2.795420e-14))
14.182579     	((-1.348861e-09 3.903094e-13 -4.649194e-10) (-2.740272e-09 1.464189e-13 -2.470438e-12)) ((1.494855e-16 -4.020724e-13 1.642413e-16) (-2.367559e-14 2.391007e-10 2.369864e-14))
17.031095     	((-1.236747e-09 4.114605e-13 -4.300241e-10) (-2.546302e-09 1.801223e-13 -2.203225e-12)) ((1.045111e-16 -3.935494e-13 1.442267e-16) (-1.907413e-14 2.269694e-10 1.862693e-14))
20.449314     	((-1.136076e-09 4.580123e-13 -3.971630e-10) (-2.368457e-09 2.080263e-13 -2.154304e-12)) ((1.167433e-16 -3.849414e-13 1.163315e-16) (-1.454355e-14 2.159342e-10 1.218699e-14))
24.551176     	((-1.042237e-09 3.178562e-13 -3.669881e-10) (-2.205592e-09 2.265927e-13 -2.075509e-12)) ((9.895180e-17 -3.788014e-13 8.977192e-17) (-1.082240e-14 2.059024e-10 6.723112e-15))
29.473411     	((-9.574400e-10 2.550907e-13 -3.395611e-10) (-2.056736e-09 2.294332e-13 -1.986043e-12)) ((1.057858e-16 -3.727722e-13 7.187353e-17) (-8.328484e-15 1.967949e-10 2.438166e-15))
35.380094     	((-8.789907e-10 2.472240e-13 -3.152252e-10) (-1.920840e-09 2.338228e-13 -1.968553e-12)) ((1.011023e-16 -3.680736e-13 6.102011e-17) (-7.105288e-15 1.885268e-10 -4.002123e-16))
42.468112     	((-8.083532e-10 2.441916e-13 -2.937650e-10) (-1.796619e-09 2.352243e-13 -2.035273e-12)) ((1.055198e-16 -3.635766e-13 4.738956e-17) (-6.875709e-15 1.810029e-10 -1.371277e-15))
50.973735     	((-7.430070e-10 2.770038e-13 -2.746332e-10) (-1.683036e-09 2.348926e-13 -2.142355e-12)) ((9.755062e-17 -3.598408e-13 3.406895e-17) (-6.797230e-15 1.741559e-10 -1.779827e-15))
61.180482     	((-6.835551e-10 2.405391e-13 -2.566986e-10) (-1.579325e-09 2.282612e-13 -2.243518e-12)) ((9.307888e-17 -3.564093e-13 2.135442e-17) (-6.973577e-15 1.679354e-10 -1.299183e-15))
73.428578     	((-6.294426e-10 1.155471e-13 -2.412436e-10) (-1.484766e-09 1.986690e-13 -2.183802e-12)) ((1.014886e-16 -3.535722e-13 2.156294e-17) (-7.482641e-15 1.623064e-10 -1.289677e-15))
88.126294     	((-5.801135e-10 7.987740e-14 -2.270804e-10) (-1.398755e-09 1.742686e-13 -2.038626e-12)) ((8.851475e-17 -3.510707e-13 2.508850e-17) (-8.359779e-15 1.572257e-10 -7.231275e-16))
105.763553    	((-5.373506e-10 3.061929e-14 -2.147571e-10) (-1.320802e-09 1.379276e-13 -1.888124e-12)) ((7.712646e-17 -3.490493e-13 3.047377e-17) (-9.486411e-15 1.526576e-10 -9.881755e-16))
126.928263    	((-4.983253e-10 -2.954395e-14 -2.033348e-10) (-1.250306e-09 1.185235e-13 -1.774233e-12)) ((7.584533e-17 -3.473145e-13 3.532068e-17) (-1.034439e-14 1.485624e-10 -5.502212e-16))
152.325916    	((-4.638885e-10 -7.153097e-14 -1.917584e-10) (-1.186575e-09 1.072307e-13 -1.696071e-12)) ((7.144127e-17 -3.458974e-13 3.903123e-17) (-1.090627e-14 1.448922e-10 1.451540e-16))
182.803099    	((-4.331755e-10 -9.099064e-14 -1.815124e-10) (-1.129066e-09 9.701323e-14 -1.657480e-12)) ((6.880625e-17 -3.446536e-13 3.989478e-17) (-1.153249e-14 1.416070e-10 7.515442e-16))
219.375719    	((-4.061888e-10 -6.687229e-14 -1.734632e-10) (-1.077232e-09 8.484236e-14 -1.634356e-12)) ((7.003870e-17 -3.436514e-13 3.752273e-17) (-1.198606e-14 1.386706e-10 1.076258e-15))
263.262863    	((-3.819837e-10 -6.647347e-14 -1.665297e-10) (-1.030511e-09 7.296352e-14 -1.651774e-12)) ((6.764791e-17 -3.428491e-13 3.896516e-17) (-1.178246e-14 1.360483e-10 1.116867e-15))
315.927436    	((-3.608324e-10 -7.076558e-14 -1.603488e-10) (-9.884813e-10 6.740144e-14 -1.651534e-12)) ((6.770504e-17 -3.421758e-13 3.844912e-17) (-1.125497e-14 1.337107e-10 1.097221e-15))
379.124923    	((-3.423375e-10 -9.006709e-14 -1.552047e-10) (-9.508021e-10 6.175623e-14 -1.656327e-12)) ((6.626327e-17 -3.416353e-13 3.702643e-17) (-1.075495e-14 1.316349e-10 1.038404e-15))
454.961908    	((-3.265411e-10 -1.042880e-13 -1.510709e-10) (-9.172291e-10 5.813087e-14 -1.678747e-12)) ((6.396365e-17 -3.412301e-13 3.639789e-17) (-1.029644e-14 1.298036e-10 7.113093e-16))
545.966289    	((-3.131158e-10 -1.004550e-13 -1.476502e-10) (-8.875291e-10 5.384187e-14 -1.718926e-12)) ((6.159079e-17 -3.409191e-13 3.558478e-17) (-9.969776e-15 1.281991e-10 5.398994e-16))
655.171547    	((-3.019261e-10 -1.034612e-13 -1.450566e-10) (-8.615122e-10 5.006569e-14 -1.777827e-12)) ((5.978806e-17 -3.406641e-13 3.550581e-17) (-9.688338e-15 1.268063e-10 4.238081e-16))
786.217856    	((-2.926687e-10 -1.047370e-13 -1.431147e-10) (-8.389987e-10 4.567462e-14 -1.858436e-12)) ((5.904776e-17 -3.404253e-13 3.619293e-17) (-9.465296e-15 1.256095e-10 2.304610e-16))
943.473427    	((-2.850874e-10 -1.069834e-13 -1.416444e-10) (-8.197666e-10 4.124862e-14 -1.923943e-12)) ((5.875974e-17 -3.402241e-13 3.633118e-17) (-9.261053e-15 1.245927e-10 -1.267297e-16))
1132.180113   	((-2.789609e-10 -1.041011e-13 -1.405599e-10) (-8.035935e-10 3.813827e-14 -1.995643e-12)) ((5.814918e-17 -3.400588e-13 3.546669e-17) (-9.078185e-15 1.237399e-10 -6.172408e-16))
1358.628135   	((-2.740590e-10 -9.930739e-14 -1.396929e-10) (-7.902064e-10 3.627022e-14 -2.065429e-12)) ((5.735285e-17 -3.399284e-13 3.552133e-17) (-8.957297e-15 1.230342e-10 -1.230970e-15))
1630.365763   	((-2.701531e-10 -9.856318e-14 -1.390417e-10) (-7.793067e-10 3.489089e-14 -2.126246e-12)) ((5.682856e-17 -3.398271e-13 3.513086e-17) (-8.888283e-15 1.224584e-10 -1.858472e-15))
1956.450915   	((-2.670816e-10 -1.024130e-13 -1.385571e-10) (-7.705763e-10 3.303611e-14 -2.182530e-12)) ((5.634167e-17 -3.397480e-13 3.522759e-17) (-8.851634e-15 1.219951e-10 -2.425085e-15))
2347.753098   	((-2.646899e-10 -1.040455e-13 -1.382095e-10) (-7.636914e-10 3.089888e-14 -2.231354e-12)) ((5.650110e-17 -3.396875e-13 3.534981e-17) (-8.864766e-15 1.216269e-10 -2.908964e-15))
2817.315718   	((-2.628460e-10 -1.064925e-13 -1.379252e-10) (-7.583418e-10 2.874159e-14 -2.271409e-12)) ((5.637312e-17 -3.396397e-13 3.533892e-17) (-8.880790e-15 1.213377e-10 -3.305173e-15))
3380.790861   	((-2.614372e-10 -1.064698e-13 -1.377175e-10) (-7.542411e-10 2.694542e-14 -2.304297e-12)) ((5.628315e-17 -3.396001e-13 3.540445e-17) (-8.892592e-15 1.211130e-10 -3.619634e-15))
4056.961033   	((-2.603616e-10 -1.057169e-13 -1.375455e-10) (-7.511354e-10 2.545227e-14 -2.330546e-12)) ((5.604303e-17 -3.395685e-13 3.520718e-17) (-8.909511e-15 1.209399e-10 -3.874458e-15))
4868.36524    	((-2.595397e-10 -1.044795e-13 -1.374041e-10) (-7.488093e-10 2.434468e-14 -2.350960e-12)) ((5.582101e-17 -3.395426e-13 3.497809e-17) (-8.916673e-15 1.208075e-10 -4.079540e-15))
5842.050288   	((-2.589160e-10 -1.030625e-13 -1.372841e-10) (-7.470841e-10 2.349238e-14 -2.366773e-12)) ((5.562137e-17 -3.395214e-13 3.479036e-17) (-8.918509e-15 1.207069e-10 -4.236778e-15))
7010.472346   	((-2.584451e-10 -1.014909e-13 -1.371854e-10) (-7.458160e-10 2.282463e-14 -2.378832e-12)) ((5.546447e-17 -3.395039e-13 3.467905e-17) (-8.917103e-15 1.206309e-10 -4.356174e-15))
8412.578815   	((-2.580874e-10 -1.010917e-13 -1.370970e-10) (-7.448913e-10 2.233875e-14 -2.387876e-12)) ((5.532825e-17 -3.394897e-13 3.461748e-17) (-8.914123e-15 1.205736e-10 -4.448210e-15))
10095.106578  	((-2.578166e-10 -1.016686e-13 -1.370289e-10) (-7.442220e-10 2.194683e-14 -2.394713e-12)) ((5.511251e-17 -3.394780e-13 3.460106e-17) (-8.910438e-15 1.205306e-10 -4.517244e-15))
12114.139893  	((-2.576106e-10 -1.018234e-13 -1.369727e-10) (-7.437409e-10 2.161300e-14 -2.399890e-12)) ((5.496610e-17 -3.394685e-13 3.458912e-17) (-8.907866e-15 1.204984e-10 -4.571793e-15))
14536.979872  	((-2.574528e-10 -1.023398e-13 -1.369269e-10) (-7.433971e-10 2.137441e-14 -2.403758e-12)) ((5.484876e-17 -3.394607e-13 3.458605e-17) (-8.904488e-15 1.204742e-10 -4.611217e-15))
17444.387847  	((-2.573309e-10 -1.030924e-13 -1.368905e-10) (-7.431528e-10 2.119182e-14 -2.406587e-12)) ((5.476742e-17 -3.394544e-13 3.459369e-17) (-8.901767e-15 1.204562e-10 -4.640844e-15))
20933.277416  	((-2.572368e-10 -1.036849e-13 -1.368618e-10) (-7.429802e-10 2.103101e-14 -2.408624e-12)) ((5.471146e-17 -3.394493e-13 3.460418e-17) (-8.899942e-15 1.204426e-10 -4.663772e-15))
25119.944899  	((-2.571641e-10 -1.042091e-13 -1.368381e-10) (-7.428590e-10 2.090813e-14 -2.410066e-12)) ((5.467154e-17 -3.394450e-13 3.461158e-17) (-8.898604e-15 1.204325e-10 -4.680333e-15))
30143.945879  	((-2.571076e-10 -1.043423e-13 -1.368189e-10) (-7.427742e-10 2.080576e-14 -2.411051e-12)) ((5.463446e-17 -3.394415e-13 3.461852e-17) (-8.897813e-15 1.204249e-10 -4.693314e-15))
36172.747055  	((-2.570639e-10 -1.040296e-13 -1.368055e-10) (-7.427153e-10 2.072623e-14 -2.411706e-12)) ((5.459848e-17 -3.394386e-13 3.462598e-17) (-8.897172e-15 1.204192e-10 -4.703158e-15))
43295.310308  	((-2.570294e-10 -1.039615e-13 -1.367980e-10) (-7.426748e-10 2.065980e-14 -2.412157e-12)) ((5.457405e-17 -3.394364e-13 3.461486e-17) (-8.896810e-15 1.204149e-10 -4.711006e-15))
51511.634596  	((-2.570027e-10 -1.043280e-13 -1.367884e-10) (-7.426471e-10 2.059343e-14 -2.412450e-12)) ((5.454781e-17 -3.394349e-13 3.462801e-17) (-8.897018e-15 1.204116e-10 -4.718307e-15))
60821.719147  	((-2.569816e-10 -1.045522e-13 -1.367802e-10) (-7.426284e-10 2.053282e-14 -2.412628e-12)) ((5.453462e-17 -3.394337e-13 3.463372e-17) (-8.897528e-15 1.204092e-10 -4.723419e-15))
71225.563394  	((-2.569650e-10 -1.047212e-13 -1.367736e-10) (-7.426159e-10 2.048437e-14 -2.412731e-12)) ((5.452461e-17 -3.394327e-13 3.463944e-17) (-8.898030e-15 1.204073e-10 -4.727111e-15))
82163.156183  	((-2.569519e-10 -1.048495e-13 -1.367685e-10) (-7.426076e-10 2.044808e-14 -2.412786e-12)) ((5.451719e-17 -3.394324e-13 3.464473e-17) (-8.898467e-15 1.204059e-10 -4.729970e-15))
93100.746139  	((-2.569417e-10 -1.049508e-13 -1.367645e-10) (-7.426023e-10 2.042355e-14 -2.412811e-12)) ((5.451224e-17 -3.394324e-13 3.464763e-17) (-8.898739e-15 1.204049e-10 -4.732440e-15))
104038.334468 	((-2.569336e-10 -1.050013e-13 -1.367614e-10) (-7.425989e-10 2.040736e-14 -2.412826e-12)) ((5.450764e-17 -3.394325e-13 3.465079e-17) (-8.898884e-15 1.204041e-10 -4.734472e-15))
114975.921897 	((-2.569269e-10 -1.046394e-13 -1.367605e-10) (-7.425967e-10 2.038864e-14 -2.412876e-12)) ((5.450342e-17 -3.394325e-13 3.465106e-17) (-8.899210e-15 1.204035e-10 -4.735566e-15))
125913.50878  	((-2.569216e-10 -1.047994e-13 -1.367588e-10) (-7.425955e-10 2.038678e-14 -2.412896e-12)) ((5.450027e-17 -3.394327e-13 3.465348e-17) (-8.899291e-15 1.204031e-10 -4.737059e-15))
136851.095315 	((-2.569173e-10 -1.048253e-13 -1.367572e-10) (-7.425948e-10 2.038561e-14 -2.412901e-12)) ((5.449864e-17 -3.394328e-13 3.465520e-17) (-8.899209e-15 1.204027e-10 -4.738587e-15))
147788.681622 	((-2.569137e-10 -1.048259e-13 -1.367560e-10) (-7.425945e-10 2.038534e-14 -2.412902e-12)) ((5.449757e-17 -3.394328e-13 3.465634e-17) (-8.899151e-15 1.204024e-10 -4.739839e-15))
158726.26778  	((-2.569107e-10 -1.048271e-13 -1.367551e-10) (-7.425944e-10 2.038552e-14 -2.412901e-12)) ((5.449675e-17 -3.394329e-13 3.465730e-17) (-8.899110e-15 1.204022e-10 -4.740842e-15))
169663.85384  	((-2.569083e-10 -1.048340e-13 -1.367545e-10) (-7.425944e-10 2.038596e-14 -2.412900e-12)) ((5.449617e-17 -3.394329e-13 3.465799e-17) (-8.899059e-15 1.204021e-10 -4.741639e-15))
180601.439837 	((-2.569064e-10 -1.048449e-13 -1.367540e-10) (-7.425945e-10 2.038667e-14 -2.412900e-12)) ((5.449578e-17 -3.394330e-13 3.465847e-17) (-8.899010e-15 1.204019e-10 -4.742273e-15))
191539.025796 	((-2.569047e-10 -1.048573e-13 -1.367537e-10) (-7.425946e-10 2.038731e-14 -2.412901e-12)) ((5.449554e-17 -3.394330e-13 3.465876e-17) (-8.898963e-15 1.204018e-10 -4.742782e-15))
202476.611731 	((-2.569034e-10 -1.048695e-13 -1.367535e-10) (-7.425947e-10 2.038797e-14 -2.412904e-12)) ((5.449537e-17 -3.394331e-13 3.465892e-17) (-8.898919e-15 1.204018e-10 -4.743192e-15))
213414.197653 	((-2.569023e-10 -1.048851e-13 -1.367534e-10) (-7.425948e-10 2.038862e-14 -2.412907e-12)) ((5.449529e-17 -3.394331e-13 3.465900e-17) (-8.898879e-15 1.204017e-10 -4.743525e-15))
224351.783569 	((-2.569013e-10 -1.048990e-13 -1.367533e-10) (-7.425949e-10 2.038921e-14 -2.412910e-12)) ((5.449525e-17 -3.394331e-13 3.465904e-17) (-8.898843e-15 1.204017e-10 -4.743798e-15))
235289.369483 	((-2.569006e-10 -1.049154e-13 -1.367533e-10) (-7.425951e-10 2.038990e-14 -2.412914e-12)) ((5.449529e-17 -3.394331e-13 3.465906e-17) (-8.898806e-15 1.204016e-10 -4.744019e-15))
246226.955398 	((-2.569000e-10 -1.049281e-13 -1.367534e-10) (-7.425952e-10 2.039049e-14 -2.412918e-12)) ((5.449532e-17 -3.394331e-13 3.465906e-17) (-8.898777e-15 1.204016e-10 -4.744199e-15))
257164.541314 	((-2.568994e-10 -1.049383e-13 -1.367534e-10) (-7.425952e-10 2.039097e-14 -2.412923e-12)) ((5.449533e-17 -3.394332e-13 3.465904e-17) (-8.898753e-15 1.204016e-10 -4.744347e-15))
268102.127233 	((-2.568990e-10 -1.050067e-13 -1.367535e-10) (-7.425953e-10 2.039280e-14 -2.412927e-12)) ((5.449593e-17 -3.394332e-13 3.465904e-17) (-8.898678e-15 1.204016e-10 -4.744471e-15))
279039.713155 	((-2.568986e-10 -1.050402e-13 -1.367536e-10) (-7.425954e-10 2.039396e-14 -2.412932e-12)) ((5.449615e-17 -3.394332e-13 3.465905e-17) (-8.898627e-15 1.204015e-10 -4.744575e-15))
289977.29908  	((-2.568983e-10 -1.050580e-13 -1.367537e-10) (-7.425954e-10 2.039462e-14 -2.412936e-12)) ((5.449619e-17 -3.394332e-13 3.465904e-17) (-8.898595e-15 1.204015e-10 -4.744661e-15))
300914.885007 	((-2.568981e-10 -1.050686e-13 -1.367538e-10) (-7.425954e-10 2.039502e-14 -2.412940e-12)) ((5.449616e-17 -3.394332e-13 3.465903e-17) (-8.898573e-15 1.204015e-10 -4.744733e-15))
311852.470937 	((-2.568979e-10 -1.050755e-13 -1.367539e-10) (-7.425955e-10 2.039526e-14 -2.412944e-12)) ((5.449612e-17 -3.394332e-13 3.465900e-17) (-8.898558e-15 1.204015e-10 -4.744792e-15))
322790.056868 	((-2.568977e-10 -1.050803e-13 -1.367541e-10) (-7.425955e-10 2.039541e-14 -2.412949e-12)) ((5.449606e-17 -3.394332e-13 3.465897e-17) (-8.898547e-15 1.204015e-10 -4.744841e-15))
333727.642802 	((-2.568975e-10 -1.050838e-13 -1.367542e-10) (-7.425955e-10 2.039551e-14 -2.412953e-12)) ((5.449600e-17 -3.394332e-13 3.465894e-17) (-8.898538e-15 1.204015e-10 -4.744882e-15))
344665.228737 	((-2.568974e-10 -1.050865e-13 -1.367544e-10) (-7.425955e-10 2.039558e-14 -2.412957e-12)) ((5.449595e-17 -3.394332e-13 3.465891e-17) (-8.898531e-15 1.204015e-10 -4.744915e-15))
355602.814673 	((-2.568973e-10 -1.050887e-13 -1.367545e-10) (-7.425956e-10 2.039563e-14 -2.412960e-12)) ((5.449589e-17 -3.394332e-13 3.465888e-17) (-8.898525e-15 1.204015e-10 -4.744942e-15))
366540.400611 	((-2.568972e-10 -1.050906e-13 -1.367546e-10) (-7.425956e-10 2.039567e-14 -2.412964e-12)) ((5.449584e-17 -3.394332e-13 3.465885e-17) (-8.898521e-15 1.204015e-10 -4.744964e-15))
377477.986549 	((-2.568972e-10 -1.050921e-13 -1.367547e-10) (-7.425956e-10 2.039570e-14 -2.412967e-12)) ((5.449579e-17 -3.394332e-13 3.465882e-17) (-8.898517e-15 1.204015e-10 -4.744982e-15))
388415.572488 	((-2.568971e-10 -1.050935e-13 -1.367549e-10) (-7.425956e-10 2.039573e-14 -2.412970e-12)) ((5.449574e-17 -3.394332e-13 3.465880e-17) (-8.898514e-15 1.204015e-10 -4.744997e-15))
399353.158428 	((-2.568971e-10 -1.050946e-13 -1.367550e-10) (-7.425956e-10 2.039575e-14 -2.412974e-12)) ((5.449570e-17 -3.394332e-13 3.465877e-17) (-8.898511e-15 1.204015e-10 -4.745009e-15))
410290.744368 	((-2.568970e-10 -1.050957e-13 -1.367551e-10) (-7.425956e-10 2.039577e-14 -2.412977e-12)) ((5.449566e-17 -3.394332e-13 3.465875e-17) (-8.898508e-15 1.204015e-10 -4.745018e-15))
421228.330309 	((-2.568970e-10 -1.050966e-13 -1.367552e-10) (-7.425956e-10 2.039578e-14 -2.412979e-12)) ((5.449562e-17 -3.394332e-13 3.465873e-17) (-8.898506e-15 1.204015e-10 -4.745026e-15))
432165.91625  	((-2.568969e-10 -1.050974e-13 -1.367553e-10) (-7.425956e-10 2.039580e-14 -2.412982e-12)) ((5.449559e-17 -3.394332e-13 3.465871e-17) (-8.898504e-15 1.204015e-10 -4.745032e-15))
443103.502191 	((-2.568969e-10 -1.050981e-13 -1.367554e-10) (-7.425956e-10 2.039581e-14 -2.412984e-12)) ((5.449556e-17 -3.394332e-13 3.465869e-17) (-8.898502e-15 1.204015e-10 -4.745036e-15))
454041.088133 	((-2.568969e-10 -1.050987e-13 -1.367555e-10) (-7.425956e-10 2.039583e-14 -2.412987e-12)) ((5.449553e-17 -3.394332e-13 3.465867e-17) (-8.898501e-15 1.204015e-10 -4.745040e-15))
464978.674074 	((-2.568969e-10 -1.050993e-13 -1.367556e-10) (-7.425956e-10 2.039584e-14 -2.412989e-12)) ((5.449550e-17 -3.394332e-13 3.465866e-17) (-8.898499e-15 1.204015e-10 -4.745042e-15))
475916.260016 	((-2.568969e-10 -1.050999e-13 -1.367557e-10) (-7.425956e-10 2.039585e-14 -2.412991e-12)) ((5.449547e-17 -3.394332e-13 3.465864e-17) (-8.898498e-15 1.204015e-10 -4.745044e-15))
