# Forces      
# CofR        : (0.000000e+00 0.000000e+00 0.000000e+00)
# Time        forces(pressure viscous)	moments(pressure viscous)
0             	((0.000000e+00 0.000000e+00 0.000000e+00) (0.000000e+00 0.000000e+00 0.000000e+00)) ((0.000000e+00 0.000000e+00 0.000000e+00) (0.000000e+00 0.000000e+00 0.000000e+00))
0.012         	((2.608522e-11 -6.023965e-09 7.817426e-11) (7.749766e-13 -6.755231e-11 3.016374e-13)) ((4.334969e-13 1.767860e-15 8.294573e-11) (-1.289831e-12 -3.505648e-14 1.686200e-07))
0.0264        	((-2.040593e-11 2.183949e-09 -1.860541e-10) (8.934549e-13 -7.207793e-11 4.087504e-13)) ((1.019718e-12 -6.961162e-15 2.490252e-11) (-2.293644e-12 -3.318930e-14 1.475823e-07))
0.04368       	((1.148685e-10 -1.102341e-09 8.920020e-11) (1.088726e-12 -4.719481e-11 8.569826e-13)) ((-4.680200e-13 2.055274e-15 1.306401e-11) (-1.933916e-12 -4.429607e-14 1.276327e-07))
0.064416      	((8.388371e-11 -9.095111e-11 -7.817495e-11) (9.898228e-13 -2.519343e-11 7.782703e-13)) ((1.319281e-13 2.760932e-15 8.782717e-12) (-9.807304e-13 -5.182482e-14 1.093181e-07))
0.0892992     	((1.179256e-10 -5.329942e-10 -1.777664e-11) (7.725287e-13 -1.594156e-11 3.012878e-13)) ((-1.422564e-13 1.170147e-14 7.079364e-12) (-4.687130e-13 -4.757186e-14 9.312388e-08))
0.119159      	((5.485132e-11 -4.739194e-11 -4.637129e-11) (1.167990e-12 -1.367598e-11 6.331408e-13)) ((-8.677396e-14 1.049706e-14 5.625897e-12) (1.822131e-13 -6.281788e-14 7.927326e-08))
0.154991      	((9.243023e-11 -4.479852e-10 -7.078591e-11) (1.261973e-12 -1.019183e-11 2.083699e-12)) ((-8.393340e-14 1.244502e-14 4.496217e-12) (6.620100e-13 -6.772711e-14 6.786104e-08))
0.197989      	((7.560449e-11 -3.490121e-10 -8.127879e-11) (3.804521e-14 -6.240661e-12 5.661242e-12)) ((-6.677519e-14 8.807584e-15 3.520291e-12) (9.172459e-13 -2.264737e-14 5.869157e-08))
0.249587      	((1.206878e-10 -4.070705e-10 -1.024360e-10) (-1.389753e-12 -2.282355e-12 1.108612e-11)) ((-6.789354e-14 8.656213e-15 2.910347e-12) (8.344262e-13 5.477649e-14 5.139194e-08))
0.311504      	((1.767996e-10 -5.132644e-10 -9.153572e-11) (-2.095855e-12 1.261590e-12 1.743670e-11)) ((-4.827242e-14 2.519136e-15 2.576870e-12) (6.818844e-13 9.598991e-14 4.552125e-08))
0.385805      	((2.198151e-10 -6.646196e-10 -1.157287e-10) (-1.725546e-12 -9.058962e-13 2.484292e-11)) ((-3.654683e-14 4.620074e-15 2.248604e-12) (5.134565e-13 9.749266e-14 4.068083e-08))
0.474966      	((2.850613e-10 -8.104296e-10 -9.914773e-11) (-2.859177e-12 -2.838151e-12 3.287687e-11)) ((5.922626e-15 -1.905148e-15 1.964700e-12) (1.576393e-13 1.264152e-13 3.657253e-08))
0.581959      	((3.792551e-10 -1.038439e-09 -9.927170e-11) (-4.841652e-12 -6.205856e-12 4.265406e-11)) ((2.517493e-14 3.270357e-15 1.822136e-12) (-5.704302e-13 1.713661e-13 3.300013e-08))
0.710351      	((4.808239e-10 -1.020436e-09 -9.977600e-11) (-8.903511e-12 -1.616601e-11 5.562025e-11)) ((4.491078e-14 3.123510e-15 1.732268e-12) (-1.142549e-12 2.901890e-13 2.984136e-08))
0.864421      	((5.187034e-10 -8.252624e-10 -1.336632e-10) (-1.721460e-11 -1.140689e-11 6.636766e-11)) ((7.249843e-14 5.864805e-15 1.648775e-12) (-1.021298e-12 4.945513e-13 2.701904e-08))
1.049306      	((5.607972e-10 -7.406345e-10 -1.811644e-10) (-2.843079e-11 1.230370e-11 8.017803e-11)) ((9.065979e-14 5.157525e-15 1.560067e-12) (-3.691323e-13 7.111692e-13 2.448552e-08))
1.271167      	((5.007107e-10 -6.427609e-10 -2.135299e-10) (-4.954715e-11 4.231339e-11 9.868776e-11)) ((1.150110e-13 1.273302e-14 1.493556e-12) (4.107655e-13 1.178129e-12 2.221682e-08))
1.5374        	((3.743083e-10 -6.395251e-10 -2.614506e-10) (-8.407368e-11 7.694567e-11 1.157027e-10)) ((1.039663e-13 1.168845e-14 1.444229e-12) (1.250023e-12 2.027441e-12 2.020141e-08))
1.85688       	((2.611433e-10 -5.054703e-10 -3.257747e-10) (-1.256210e-10 1.035220e-10 1.331185e-10)) ((9.605470e-14 1.863138e-14 1.381146e-12) (2.216180e-12 3.021518e-12 1.842817e-08))
2.240256      	((1.356670e-10 -3.616167e-10 -3.956483e-10) (-1.726490e-10 1.305647e-10 1.536475e-10)) ((1.107926e-13 2.073562e-14 1.304641e-12) (3.395534e-12 4.268766e-12 1.687917e-08))
2.700307      	((6.468846e-11 -2.641095e-10 -4.891107e-10) (-2.218063e-10 1.732620e-10 1.793338e-10)) ((1.041820e-13 1.577433e-14 1.236761e-12) (4.888155e-12 5.789888e-12 1.552806e-08))
3.252369      	((-2.709504e-11 -1.711228e-10 -5.132752e-10) (-2.678581e-10 2.237223e-10 2.072633e-10)) ((8.583382e-14 1.026822e-14 1.151939e-12) (6.289048e-12 7.212442e-12 1.434375e-08))
3.914842      	((-3.073104e-11 2.412912e-11 -5.819478e-10) (-2.983363e-10 2.685110e-10 2.335814e-10)) ((6.261020e-14 5.867132e-15 1.075531e-12) (7.212403e-12 8.176789e-12 1.329472e-08))
4.709811      	((-7.257806e-11 1.150334e-10 -6.531099e-10) (-3.096761e-10 2.957339e-10 2.679839e-10)) ((4.804442e-14 2.053374e-15 1.006395e-12) (7.617169e-12 8.597690e-12 1.235420e-08))
5.663773      	((-1.224738e-10 8.131691e-11 -7.301971e-10) (-3.033851e-10 2.973964e-10 3.038631e-10)) ((4.823246e-14 -3.075964e-15 9.363726e-13) (7.352074e-12 8.610387e-12 1.150295e-08))
6.808528      	((-1.062818e-10 6.153717e-11 -8.119496e-10) (-2.792351e-10 2.726932e-10 3.352414e-10)) ((3.986130e-14 -7.096649e-15 8.720827e-13) (6.505059e-12 8.091033e-12 1.072588e-08))
8.182233      	((-6.918040e-11 7.443375e-11 -8.715431e-10) (-2.411621e-10 2.327359e-10 3.745339e-10)) ((2.671099e-14 -1.261840e-14 8.096932e-13) (5.678895e-12 7.129399e-12 1.001161e-08))
9.83068       	((-7.836074e-11 -4.323631e-11 -9.749286e-10) (-1.952074e-10 1.858006e-10 4.148492e-10)) ((2.985181e-14 -1.730131e-14 7.519262e-13) (4.563051e-12 6.014986e-12 9.353973e-09))
11.808816     	((7.391387e-12 -1.202914e-10 -1.034525e-09) (-1.480516e-10 1.390768e-10 4.584474e-10)) ((1.594637e-14 -2.297549e-14 6.982101e-13) (3.120800e-12 4.733516e-12 8.749888e-09))
14.182579     	((9.872613e-12 -1.079697e-10 -1.142483e-09) (-1.077716e-10 1.004787e-10 5.066962e-10)) ((2.917783e-17 -2.333243e-14 6.455745e-13) (1.841053e-12 3.638350e-12 8.195619e-09))
17.031095     	((6.967096e-11 -8.614471e-11 -1.245243e-09) (-7.639115e-11 7.147183e-11 5.528484e-10)) ((-1.335234e-14 -2.144956e-14 5.999324e-13) (1.202032e-12 2.825138e-12 7.688112e-09))
20.449314     	((9.212355e-11 -1.104540e-10 -1.350377e-09) (-5.717343e-11 5.440443e-11 6.009030e-10)) ((-1.731700e-14 -2.076270e-14 5.580443e-13) (9.656246e-13 2.348375e-12 7.224238e-09))
24.551176     	((9.780993e-11 -1.016824e-10 -1.448045e-09) (-5.046446e-11 4.990056e-11 6.508066e-10)) ((-2.427969e-14 -2.002310e-14 5.204102e-13) (1.076453e-12 2.174033e-12 6.800379e-09))
29.473411     	((8.641347e-11 -8.882074e-11 -1.585346e-09) (-5.388565e-11 5.841662e-11 7.037680e-10)) ((-2.529893e-14 -1.936487e-14 4.873245e-13) (1.453864e-12 2.225577e-12 6.412680e-09))
35.380094     	((7.124171e-11 -8.026497e-11 -1.796325e-09) (-6.580501e-11 7.457412e-11 7.608556e-10)) ((-2.697992e-14 -1.999248e-14 4.585994e-13) (2.016596e-12 2.422669e-12 6.057686e-09))
42.468112     	((4.485040e-11 -6.093203e-11 -1.972236e-09) (-7.988206e-11 9.320226e-11 8.237442e-10)) ((-2.754101e-14 -2.045194e-14 4.328110e-13) (2.587091e-12 2.679389e-12 5.732884e-09))
50.973735     	((3.474256e-11 -5.222013e-11 -2.156757e-09) (-9.311335e-11 1.104924e-10 8.981098e-10)) ((-2.813373e-14 -2.217202e-14 4.086445e-13) (3.122112e-12 2.955743e-12 5.436285e-09))
61.180482     	((1.415017e-11 -4.644603e-11 -2.353142e-09) (-1.046738e-10 1.247139e-10 9.880279e-10)) ((-2.701057e-14 -2.343696e-14 3.860919e-13) (3.523287e-12 3.234935e-12 5.165941e-09))
73.428578     	((3.375922e-12 -4.706680e-11 -2.522487e-09) (-1.143938e-10 1.337666e-10 1.086425e-09)) ((-2.638126e-14 -2.366933e-14 3.654838e-13) (3.738419e-12 3.499309e-12 4.919865e-09))
88.126294     	((-4.654607e-12 -2.848166e-11 -2.698941e-09) (-1.221717e-10 1.395830e-10 1.187724e-09)) ((-2.555486e-14 -2.361512e-14 3.471443e-13) (3.857314e-12 3.684604e-12 4.696141e-09))
105.763553    	((-1.536186e-11 -3.307945e-11 -2.881088e-09) (-1.272629e-10 1.432525e-10 1.291180e-09)) ((-2.432798e-14 -2.376370e-14 3.304564e-13) (3.885908e-12 3.782575e-12 4.492774e-09))
126.928263    	((-2.020100e-11 -3.002859e-11 -3.068098e-09) (-1.302845e-10 1.441099e-10 1.396560e-09)) ((-2.318032e-14 -2.416427e-14 3.153787e-13) (3.797878e-12 3.875355e-12 4.307795e-09))
152.325916    	((-2.130796e-11 -2.437026e-11 -3.264960e-09) (-1.321361e-10 1.427745e-10 1.504740e-09)) ((-2.284310e-14 -2.419036e-14 3.011772e-13) (3.672091e-12 3.947994e-12 4.139428e-09))
182.803099    	((-2.108544e-11 -1.860366e-11 -3.458405e-09) (-1.329239e-10 1.395988e-10 1.617432e-09)) ((-2.220964e-14 -2.401363e-14 2.882630e-13) (3.494742e-12 3.971406e-12 3.986004e-09))
219.375719    	((-2.067779e-11 -1.031337e-11 -3.662739e-09) (-1.325175e-10 1.346534e-10 1.733604e-09)) ((-2.199224e-14 -2.430501e-14 2.764954e-13) (3.265266e-12 3.962073e-12 3.846122e-09))
263.262863    	((-2.186459e-11 -6.880245e-12 -3.864247e-09) (-1.312952e-10 1.281904e-10 1.853968e-09)) ((-2.158013e-14 -2.474025e-14 2.659338e-13) (2.995159e-12 3.959327e-12 3.718616e-09))
315.927436    	((-1.681055e-11 -1.382734e-12 -4.058481e-09) (-1.293116e-10 1.211824e-10 1.978796e-09)) ((-2.168594e-14 -2.616546e-14 2.563787e-13) (2.727107e-12 3.941112e-12 3.602439e-09))
379.124923    	((-1.179415e-11 5.265277e-12 -4.241464e-09) (-1.268292e-10 1.141010e-10 2.107238e-09)) ((-2.233777e-14 -2.761736e-14 2.474232e-13) (2.518785e-12 3.911291e-12 3.496711e-09))
454.961908    	((-7.556239e-12 1.122505e-11 -4.407987e-09) (-1.236178e-10 1.065831e-10 2.237656e-09)) ((-2.367856e-14 -2.907652e-14 2.391707e-13) (2.326904e-12 3.853941e-12 3.400582e-09))
545.966289    	((-3.244226e-12 1.677517e-11 -4.562849e-09) (-1.194431e-10 9.923273e-11 2.367957e-09)) ((-2.421618e-14 -3.029996e-14 2.315254e-13) (2.145988e-12 3.752155e-12 3.313305e-09))
655.171547    	((-2.272835e-13 2.136845e-11 -4.701005e-09) (-1.151066e-10 9.224858e-11 2.498115e-09)) ((-2.476658e-14 -3.102944e-14 2.245924e-13) (1.975893e-12 3.619314e-12 3.234229e-09))
786.217856    	((2.817008e-12 2.430502e-11 -4.823295e-09) (-1.103320e-10 8.553277e-11 2.627046e-09)) ((-2.551364e-14 -3.159496e-14 2.182050e-13) (1.808514e-12 3.455945e-12 3.162735e-09))
943.473427    	((4.420274e-12 2.694763e-11 -4.932616e-09) (-1.054839e-10 7.974069e-11 2.753468e-09)) ((-2.581146e-14 -3.181810e-14 2.122197e-13) (1.659301e-12 3.269030e-12 3.098191e-09))
1132.180113   	((4.158729e-12 2.918116e-11 -5.028890e-09) (-1.005644e-10 7.477488e-11 2.876398e-09)) ((-2.590285e-14 -3.188474e-14 2.069713e-13) (1.533869e-12 3.062551e-12 3.040016e-09))
1358.628135   	((1.112979e-12 2.804214e-11 -5.111401e-09) (-9.569824e-11 7.001735e-11 2.994727e-09)) ((-2.620370e-14 -3.197578e-14 2.023584e-13) (1.429920e-12 2.846617e-12 2.987653e-09))
1630.365763   	((-1.175371e-12 2.665416e-11 -5.183021e-09) (-9.081578e-11 6.553556e-11 3.107704e-09)) ((-2.656370e-14 -3.184827e-14 1.980618e-13) (1.338703e-12 2.646972e-12 2.940569e-09))
1953.210221   	((-1.733152e-12 2.459680e-11 -5.245266e-09) (-8.594991e-11 6.139893e-11 3.214330e-09)) ((-2.665433e-14 -3.161673e-14 1.940629e-13) (1.256715e-12 2.457854e-12 2.898291e-09))
2327.163335   	((-3.251881e-13 2.287444e-11 -5.299991e-09) (-8.131076e-11 5.748951e-11 3.314122e-09)) ((-2.650108e-14 -3.140236e-14 1.904622e-13) (1.181868e-12 2.280626e-12 2.860380e-09))
2752.225881   	((8.540352e-13 2.245336e-11 -5.348880e-09) (-7.686234e-11 5.389482e-11 3.407737e-09)) ((-2.616310e-14 -3.127573e-14 1.873089e-13) (1.102353e-12 2.119948e-12 2.826418e-09))
3228.398768   	((2.577947e-12 2.283748e-11 -5.391437e-09) (-7.254130e-11 5.066295e-11 3.495829e-09)) ((-2.566733e-14 -3.102528e-14 1.845293e-13) (1.017055e-12 1.969546e-12 2.796004e-09))
3739.512025   	((3.318729e-12 2.459109e-11 -5.428499e-09) (-6.853981e-11 4.778375e-11 3.578800e-09)) ((-2.524460e-14 -3.096595e-14 1.820522e-13) (9.420538e-13 1.829710e-12 2.768764e-09))
4250.63552    	((2.069683e-12 2.745880e-11 -5.461720e-09) (-6.499232e-11 4.527677e-11 3.657814e-09)) ((-2.495040e-14 -3.125895e-14 1.798222e-13) (8.918471e-13 1.720800e-12 2.744368e-09))
4761.769304   	((7.383104e-12 3.038222e-11 -5.490575e-09) (-6.161733e-11 4.336900e-11 3.733173e-09)) ((-2.475284e-14 -3.113396e-14 1.778912e-13) (8.853782e-13 1.621333e-12 2.722487e-09))
5272.91368    	((1.176479e-11 2.818611e-11 -5.515921e-09) (-5.815869e-11 4.179913e-11 3.803020e-09)) ((-2.436086e-14 -3.108561e-14 1.761607e-13) (8.808616e-13 1.487350e-12 2.702845e-09))
5784.068188   	((1.331107e-11 2.594018e-11 -5.538278e-09) (-5.503827e-11 4.029176e-11 3.866282e-09)) ((-2.415689e-14 -3.118690e-14 1.745832e-13) (8.637620e-13 1.365318e-12 2.685175e-09))
6295.232383   	((1.443063e-11 2.468489e-11 -5.558347e-09) (-5.223088e-11 3.898017e-11 3.923392e-09)) ((-2.410785e-14 -3.102444e-14 1.731352e-13) (8.456391e-13 1.260571e-12 2.669242e-09))
6806.405815   	((1.449347e-11 2.356892e-11 -5.576536e-09) (-4.967895e-11 3.787043e-11 3.975357e-09)) ((-2.413868e-14 -3.096164e-14 1.718704e-13) (8.359439e-13 1.173806e-12 2.654841e-09))
7317.587914   	((1.382934e-11 2.200751e-11 -5.593061e-09) (-4.748861e-11 3.687014e-11 4.023003e-09)) ((-2.420281e-14 -3.094726e-14 1.707266e-13) (8.314118e-13 1.105694e-12 2.641794e-09))
7828.778179   	((1.302696e-11 2.021234e-11 -5.607991e-09) (-4.560756e-11 3.603418e-11 4.066920e-09)) ((-2.423354e-14 -3.100715e-14 1.696855e-13) (8.300887e-13 1.052606e-12 2.629953e-09))
8339.976039   	((1.199397e-11 1.832174e-11 -5.621411e-09) (-4.395655e-11 3.530525e-11 4.107472e-09)) ((-2.427614e-14 -3.108611e-14 1.687393e-13) (8.319866e-13 1.010004e-12 2.619187e-09))
8851.180938   	((1.085363e-11 1.642844e-11 -5.633892e-09) (-4.249686e-11 3.467259e-11 4.144969e-09)) ((-2.433827e-14 -3.111948e-14 1.678604e-13) (8.371866e-13 9.745639e-13 2.609379e-09))
9362.392354   	((9.869492e-12 1.495626e-11 -5.645675e-09) (-4.118297e-11 3.414141e-11 4.179723e-09)) ((-2.445461e-14 -3.118045e-14 1.670388e-13) (8.443891e-13 9.442563e-13 2.600430e-09))
9873.609826   	((8.875754e-12 1.379640e-11 -5.656770e-09) (-3.994659e-11 3.370141e-11 4.211987e-09)) ((-2.460280e-14 -3.126254e-14 1.662814e-13) (8.546420e-13 9.163173e-13 2.592253e-09))
10384.83295   	((7.825541e-12 1.280591e-11 -5.665858e-09) (-3.880203e-11 3.331610e-11 4.241996e-09)) ((-2.474452e-14 -3.135199e-14 1.655789e-13) (8.661333e-13 8.906879e-13 2.584770e-09))
10896.061353  	((6.870085e-12 1.196138e-11 -5.675503e-09) (-3.774623e-11 3.297055e-11 4.269940e-09)) ((-2.487084e-14 -3.145118e-14 1.649289e-13) (8.774390e-13 8.675417e-13 2.577914e-09))
11407.294628  	((5.899993e-12 1.126258e-11 -5.684667e-09) (-3.679236e-11 3.266005e-11 4.295948e-09)) ((-2.497678e-14 -3.154008e-14 1.643278e-13) (8.883911e-13 8.466469e-13 2.571625e-09))
11918.532397  	((4.873872e-12 1.050266e-11 -5.693314e-09) (-3.593454e-11 3.241206e-11 4.320147e-09)) ((-2.508513e-14 -3.160754e-14 1.637823e-13) (8.991263e-13 8.270839e-13 2.565849e-09))
