# Forces      
# CofR        : (0.000000e+00 0.000000e+00 0.000000e+00)
# Time        forces(pressure viscous)	moments(pressure viscous)
0             	((0.000000e+00 0.000000e+00 0.000000e+00) (0.000000e+00 0.000000e+00 0.000000e+00)) ((0.000000e+00 0.000000e+00 0.000000e+00) (0.000000e+00 0.000000e+00 0.000000e+00))
0.012         	((-4.408533e-11 2.880826e-06 4.665149e-07) (-9.167394e-13 6.626553e-06 -2.346859e-11)) ((4.212719e-10 1.515553e-12 -3.859480e-12) (4.409678e-07 3.650732e-14 7.110896e-13))
0.0264        	((-1.631945e-09 3.871973e-06 9.880035e-07) (-3.793360e-12 6.070013e-06 -7.528061e-11)) ((-1.904530e-10 3.293346e-12 -1.713643e-12) (4.043709e-07 8.133487e-14 7.267871e-13))
0.04368       	((1.330178e-09 2.618164e-06 5.356384e-07) (-5.345363e-12 5.495831e-06 -1.743705e-10)) ((-1.410004e-10 1.699970e-12 -1.931376e-12) (3.667256e-07 1.462056e-14 1.380876e-12))
0.064416      	((-1.472051e-09 2.959969e-06 6.927095e-07) (-7.386053e-12 4.916835e-06 -3.309440e-10)) ((-2.791284e-10 2.240040e-12 -1.222818e-12) (3.288951e-07 -1.476518e-13 5.873301e-13))
0.0892992     	((8.147295e-10 2.185198e-06 4.613845e-07) (-7.835508e-12 4.349705e-06 -5.409088e-10)) ((-1.987851e-10 1.446392e-12 -8.073471e-13) (2.919685e-07 -2.683355e-13 -1.541069e-12))
0.119159      	((-4.961791e-10 2.240618e-06 5.003617e-07) (-7.904827e-12 3.812656e-06 -7.907330e-10)) ((-2.434447e-10 1.585137e-12 -4.247869e-13) (2.571640e-07 -2.233008e-13 -2.474417e-12))
0.154991      	((4.271228e-10 1.688951e-06 3.566421e-07) (-9.832627e-12 3.322488e-06 -1.096416e-09)) ((-1.698381e-10 1.093865e-12 -1.890320e-13) (2.252299e-07 -1.915909e-13 -2.867676e-12))
0.197989      	((-7.769615e-11 1.667914e-06 3.584423e-07) (-1.079341e-11 2.888914e-06 -1.462612e-09)) ((-1.921504e-10 1.126677e-12 -2.879718e-13) (1.969579e-07 -1.308944e-13 -3.133392e-12))
0.249587      	((2.083687e-10 1.297270e-06 2.774234e-07) (-1.319783e-11 2.518966e-06 -1.866282e-09)) ((-1.377796e-10 8.136798e-13 -2.480557e-13) (1.726581e-07 -1.282356e-13 -3.019920e-12))
0.311504      	((8.442857e-11 1.259599e-06 2.675885e-07) (-9.773955e-12 2.210967e-06 -2.245629e-09)) ((-1.522268e-10 8.192479e-13 -4.335859e-13) (1.523302e-07 -2.231611e-13 -2.526973e-12))
0.385805      	((7.163789e-11 1.016397e-06 2.214503e-07) (-8.503399e-12 1.955857e-06 -2.626550e-09)) ((-1.137354e-10 6.378480e-13 -2.909284e-13) (1.354722e-07 -3.686215e-13 -1.581990e-12))
0.474966      	((8.204391e-11 9.844016e-07 2.074013e-07) (-8.586045e-12 1.744095e-06 -2.865858e-09)) ((-1.238571e-10 6.050119e-13 -3.751939e-13) (1.214970e-07 -4.155997e-13 -7.417008e-13))
0.581959      	((2.604028e-11 8.207076e-07 1.778135e-07) (-1.001550e-11 1.565286e-06 -3.131062e-09)) ((-9.596693e-11 4.937421e-13 -2.563802e-13) (1.096872e-07 -2.455755e-13 -5.463517e-13))
0.710351      	((6.355621e-11 7.934337e-07 1.626368e-07) (-1.055917e-11 1.411434e-06 -3.222774e-09)) ((-1.035365e-10 4.610538e-13 -3.698473e-13) (9.955780e-08 -4.722227e-13 -2.660796e-13))
0.864421      	((-3.610859e-11 6.767218e-07 1.431079e-07) (-7.818372e-12 1.276192e-06 -3.418128e-09)) ((-8.409329e-11 3.857501e-13 -2.550283e-13) (9.066396e-08 -6.791427e-13 -6.228598e-13))
1.049306      	((1.027606e-10 6.485272e-07 1.295768e-07) (-1.979717e-11 1.155869e-06 -3.397620e-09)) ((-8.975308e-11 3.505108e-13 -2.054102e-13) (8.277963e-08 -9.340621e-13 -1.285359e-12))
1.271167      	((1.542917e-11 5.588456e-07 1.146990e-07) (-2.327209e-11 1.047516e-06 -3.650955e-09)) ((-7.651122e-11 3.073393e-13 9.308206e-15) (7.568989e-08 -1.018064e-12 -1.457990e-12))
1.5374        	((4.927452e-11 5.282886e-07 1.017293e-07) (-8.564361e-12 9.496195e-07 -3.476715e-09)) ((-7.930461e-11 2.889294e-13 3.945006e-14) (6.929022e-08 -1.566574e-12 -1.606065e-12))
1.85688       	((5.695882e-11 4.596003e-07 9.053078e-08) (-1.903934e-11 8.613626e-07 -3.684986e-09)) ((-7.001381e-11 2.832399e-13 1.284324e-13) (6.353821e-08 -2.157947e-12 -1.827268e-12))
2.240256      	((2.906603e-11 4.281564e-07 8.039896e-08) (-2.149409e-11 7.822836e-07 -3.982774e-09)) ((-7.030718e-11 2.294267e-13 1.087257e-13) (5.838517e-08 -1.847155e-12 -2.048588e-12))
2.700307      	((2.863580e-11 3.774593e-07 7.253071e-08) (-1.963502e-11 7.123075e-07 -3.908576e-09)) ((-6.406517e-11 2.722863e-13 1.573503e-13) (5.382535e-08 -2.462378e-12 -2.554042e-12))
3.252369      	((-6.782890e-11 3.491545e-07 6.523856e-08) (-1.801457e-11 6.506458e-07 -3.901515e-09)) ((-6.340060e-11 1.305527e-13 1.329232e-13) (4.980481e-08 -3.806712e-12 -2.675375e-12))
3.914842      	((2.866212e-11 3.132698e-07 5.917717e-08) (-2.633205e-12 5.965313e-07 -3.962198e-09)) ((-5.990932e-11 2.032081e-13 1.354428e-13) (4.628843e-08 -4.679509e-12 -1.368956e-12))
4.709811      	((1.929751e-11 2.895910e-07 5.289577e-08) (-2.884788e-12 5.488650e-07 -4.156630e-09)) ((-5.846537e-11 1.658337e-14 1.254951e-13) (4.320081e-08 -4.433659e-12 -1.667314e-14))
5.663773      	((8.503642e-11 2.622096e-07 4.650630e-08) (-8.884781e-12 5.064828e-07 -4.504439e-09)) ((-5.609552e-11 6.119441e-14 1.298824e-13) (4.046976e-08 -3.533169e-12 5.769301e-13))
6.808528      	((-1.458555e-11 2.418602e-07 3.994953e-08) (-1.028966e-11 4.684650e-07 -4.914390e-09)) ((-5.445030e-11 -9.475848e-14 1.550379e-13) (3.802804e-08 -2.734959e-12 8.739936e-13))
8.182233      	((7.979120e-11 2.206835e-07 3.310497e-08) (-5.164168e-12 4.339876e-07 -5.341856e-09)) ((-5.286040e-11 -8.714578e-14 1.631290e-13) (3.582372e-08 -2.349066e-12 7.457713e-13))
9.83068       	((6.234372e-11 2.031536e-07 2.664966e-08) (-5.271151e-12 4.024622e-07 -5.740252e-09)) ((-5.162411e-11 -1.730340e-13 1.721421e-13) (3.382086e-08 -1.432496e-12 4.687605e-13))
11.808816     	((1.073285e-10 1.859465e-07 2.050391e-08) (-3.825278e-12 3.735270e-07 -6.128023e-09)) ((-5.039823e-11 -1.765111e-13 1.669166e-13) (3.199243e-08 -6.300970e-13 6.509498e-13))
14.182579     	((7.924335e-11 1.711617e-07 1.488783e-08) (6.578597e-12 3.468983e-07 -6.440582e-09)) ((-4.939859e-11 -2.311476e-13 1.606245e-13) (3.031712e-08 -2.851459e-13 6.524525e-13))
17.031095     	((9.166662e-11 1.569500e-07 1.020511e-08) (1.373496e-11 3.223530e-07 -6.635681e-09)) ((-4.850001e-11 -2.337672e-13 1.570126e-13) (2.878224e-08 1.072178e-13 2.753400e-13))
20.449314     	((7.491674e-11 1.443203e-07 5.957889e-09) (1.230277e-11 2.997965e-07 -6.760216e-09)) ((-4.773997e-11 -2.691886e-13 1.590868e-13) (2.738030e-08 5.469888e-13 -7.856291e-14))
24.551176     	((6.799423e-11 1.322985e-07 2.215088e-09) (1.062446e-11 2.791430e-07 -6.839721e-09)) ((-4.708358e-11 -2.924462e-13 1.603588e-13) (2.610667e-08 8.012222e-13 -4.687652e-14))
29.473411     	((5.060404e-11 1.217138e-07 -1.579929e-09) (1.282559e-11 2.602966e-07 -6.893347e-09)) ((-4.652902e-11 -3.164784e-13 1.634476e-13) (2.495410e-08 8.363582e-13 2.465939e-13))
35.380094     	((4.685808e-11 1.120020e-07 -5.475793e-09) (1.528256e-11 2.431383e-07 -6.934133e-09)) ((-4.606870e-11 -3.406145e-13 1.674547e-13) (2.391267e-08 8.243019e-13 5.333799e-13))
42.468112     	((2.723241e-11 1.034406e-07 -9.496744e-09) (1.410066e-11 2.275258e-07 -7.005440e-09)) ((-4.567422e-11 -3.686821e-13 1.686525e-13) (2.297233e-08 9.683426e-13 8.419414e-13))
50.973735     	((3.712342e-11 9.581151e-08 -1.339655e-08) (1.480743e-11 2.133338e-07 -7.125126e-09)) ((-4.535834e-11 -3.899542e-13 1.683133e-13) (2.212470e-08 1.088046e-12 1.204141e-12))
61.180482     	((3.509238e-11 8.911442e-08 -1.730168e-08) (1.524674e-11 2.004381e-07 -7.325349e-09)) ((-4.508836e-11 -4.110242e-13 1.677827e-13) (2.136206e-08 1.095669e-12 1.337478e-12))
73.428578     	((4.904836e-11 8.310871e-08 -2.110892e-08) (1.642308e-11 1.887362e-07 -7.604860e-09)) ((-4.487286e-11 -4.287264e-13 1.668443e-13) (2.067854e-08 9.250256e-13 1.564901e-12))
88.126294     	((6.034626e-11 7.792952e-08 -2.475059e-08) (2.039505e-11 1.781431e-07 -7.961851e-09)) ((-4.469310e-11 -4.484946e-13 1.662582e-13) (2.006750e-08 7.049321e-13 1.894420e-12))
105.763553    	((6.516082e-11 7.357120e-08 -2.811142e-08) (2.149881e-11 1.686012e-07 -8.407835e-09)) ((-4.455902e-11 -4.638814e-13 1.646695e-13) (1.952365e-08 5.889438e-13 2.186253e-12))
126.928263    	((7.162029e-11 6.983301e-08 -3.132211e-08) (2.209060e-11 1.600361e-07 -8.956447e-09)) ((-4.446655e-11 -4.789942e-13 1.644350e-13) (1.904235e-08 4.961091e-13 2.318187e-12))
152.325916    	((7.035534e-11 6.677817e-08 -3.445456e-08) (2.387073e-11 1.523980e-07 -9.622222e-09)) ((-4.440403e-11 -4.941310e-13 1.630989e-13) (1.861906e-08 3.160626e-13 2.303816e-12))
182.803099    	((6.690859e-11 6.439417e-08 -3.740327e-08) (2.649361e-11 1.456508e-07 -1.041775e-08)) ((-4.436570e-11 -5.070889e-13 1.617148e-13) (1.824994e-08 3.464281e-14 2.243767e-12))
219.375719    	((7.370426e-11 6.262766e-08 -4.019141e-08) (3.108131e-11 1.397667e-07 -1.134154e-08)) ((-4.433934e-11 -5.177302e-13 1.614802e-13) (1.793185e-08 -2.936678e-13 2.069257e-12))
263.262863    	((7.994764e-11 6.142732e-08 -4.305319e-08) (3.247899e-11 1.347106e-07 -1.238960e-08)) ((-4.432343e-11 -5.281581e-13 1.615662e-13) (1.766074e-08 -4.962148e-13 1.908739e-12))
315.831292    	((8.570302e-11 6.073545e-08 -4.564588e-08) (3.300719e-11 1.304466e-07 -1.355334e-08)) ((-4.431400e-11 -5.355362e-13 1.612501e-13) (1.743256e-08 -6.505362e-13 1.810547e-12))
377.080032    	((8.950259e-11 6.049922e-08 -4.804118e-08) (3.297117e-11 1.269679e-07 -1.478808e-08)) ((-4.430949e-11 -5.418402e-13 1.608337e-13) (1.724478e-08 -7.755556e-13 1.704221e-12))
447.009089    	((9.159812e-11 6.064920e-08 -5.021334e-08) (3.286886e-11 1.242408e-07 -1.602847e-08)) ((-4.431202e-11 -5.478558e-13 1.602898e-13) (1.709376e-08 -8.813262e-13 1.543093e-12))
525.619257    	((9.294637e-11 6.108776e-08 -5.205694e-08) (3.328720e-11 1.222154e-07 -1.719953e-08)) ((-4.431888e-11 -5.532949e-13 1.597596e-13) (1.697597e-08 -9.527450e-13 1.332110e-12))
612.440297    	((9.484137e-11 6.165735e-08 -5.368366e-08) (3.384378e-11 1.208109e-07 -1.822957e-08)) ((-4.432791e-11 -5.590415e-13 1.593129e-13) (1.688759e-08 -9.959255e-13 1.129070e-12))
699.272233    	((9.647723e-11 6.216022e-08 -5.497919e-08) (3.467348e-11 1.199256e-07 -1.905359e-08)) ((-4.434246e-11 -5.638251e-13 1.588065e-13) (1.682524e-08 -1.011137e-12 9.483209e-13))
786.115475    	((9.763645e-11 6.250254e-08 -5.605858e-08) (3.544358e-11 1.194049e-07 -1.967230e-08)) ((-4.435237e-11 -5.668571e-13 1.585060e-13) (1.678275e-08 -9.798868e-13 7.954290e-13))
872.968954    	((9.870016e-11 6.268250e-08 -5.691512e-08) (3.619331e-11 1.191169e-07 -2.011235e-08)) ((-4.435768e-11 -5.688118e-13 1.581396e-13) (1.675467e-08 -9.330019e-13 6.997357e-13))
959.831269    	((9.967776e-11 6.273593e-08 -5.761105e-08) (3.673388e-11 1.189551e-07 -2.042126e-08)) ((-4.435989e-11 -5.699630e-13 1.576853e-13) (1.673596e-08 -8.845204e-13 6.571528e-13))
1046.701      	((9.870655e-11 6.272831e-08 -5.817119e-08) (3.704220e-11 1.188558e-07 -2.063990e-08)) ((-4.436054e-11 -5.708119e-13 1.572825e-13) (1.672319e-08 -8.430641e-13 6.461925e-13))
1133.576562   	((9.851466e-11 6.269848e-08 -5.863532e-08) (3.723911e-11 1.187838e-07 -2.080165e-08)) ((-4.436047e-11 -5.715945e-13 1.570997e-13) (1.671407e-08 -8.180392e-13 6.563178e-13))
1220.456813   	((9.838412e-11 6.266769e-08 -5.902683e-08) (3.732615e-11 1.187250e-07 -2.092747e-08)) ((-4.436026e-11 -5.722418e-13 1.570299e-13) (1.670734e-08 -8.023378e-13 6.750963e-13))
1307.340858   	((9.825521e-11 6.263817e-08 -5.936295e-08) (3.735873e-11 1.186744e-07 -2.103104e-08)) ((-4.436010e-11 -5.728644e-13 1.570067e-13) (1.670223e-08 -7.958999e-13 6.987063e-13))
1394.227995   	((9.826336e-11 6.261087e-08 -5.965384e-08) (3.746367e-11 1.186305e-07 -2.111988e-08)) ((-4.435998e-11 -5.734375e-13 1.570141e-13) (1.669828e-08 -7.972685e-13 7.244513e-13))
1481.117659   	((9.843492e-11 6.258470e-08 -5.990685e-08) (3.766709e-11 1.185927e-07 -2.119840e-08)) ((-4.435987e-11 -5.739358e-13 1.570117e-13) (1.669518e-08 -8.041267e-13 7.491705e-13))
1568.009379   	((9.860077e-11 6.256053e-08 -6.012913e-08) (3.787959e-11 1.185608e-07 -2.126892e-08)) ((-4.435975e-11 -5.743793e-13 1.570034e-13) (1.669273e-08 -8.134789e-13 7.731377e-13))
1654.902751   	((9.869402e-11 6.253872e-08 -6.032712e-08) (3.808028e-11 1.185342e-07 -2.133278e-08)) ((-4.435963e-11 -5.747669e-13 1.569819e-13) (1.669076e-08 -8.206701e-13 7.945670e-13))
1741.797453   	((9.883068e-11 6.251924e-08 -6.050363e-08) (3.828956e-11 1.185124e-07 -2.139067e-08)) ((-4.435951e-11 -5.751073e-13 1.569712e-13) (1.668918e-08 -8.274407e-13 8.128744e-13))
1828.693262   	((9.891129e-11 6.250219e-08 -6.066269e-08) (3.851928e-11 1.184947e-07 -2.144329e-08)) ((-4.435943e-11 -5.754174e-13 1.569710e-13) (1.668791e-08 -8.360406e-13 8.294720e-13))
1915.590022   	((9.888981e-11 6.248699e-08 -6.080610e-08) (3.875349e-11 1.184804e-07 -2.149118e-08)) ((-4.435938e-11 -5.756854e-13 1.569718e-13) (1.668688e-08 -8.461248e-13 8.449155e-13))
2002.487612   	((9.890255e-11 6.247337e-08 -6.093625e-08) (3.900066e-11 1.184690e-07 -2.153490e-08)) ((-4.435932e-11 -5.759107e-13 1.569759e-13) (1.668604e-08 -8.565357e-13 8.590410e-13))
2089.385943   	((9.897152e-11 6.246136e-08 -6.105432e-08) (3.924335e-11 1.184598e-07 -2.157493e-08)) ((-4.435929e-11 -5.760959e-13 1.569787e-13) (1.668536e-08 -8.656451e-13 8.726737e-13))
2176.284956   	((9.903896e-11 6.245046e-08 -6.116173e-08) (3.942854e-11 1.184524e-07 -2.161167e-08)) ((-4.435930e-11 -5.762642e-13 1.569832e-13) (1.668480e-08 -8.731941e-13 8.847655e-13))
2263.184605   	((9.904809e-11 6.244053e-08 -6.125946e-08) (3.959378e-11 1.184466e-07 -2.164537e-08)) ((-4.435931e-11 -5.763861e-13 1.569789e-13) (1.668435e-08 -8.791934e-13 8.953373e-13))
2350.084842   	((9.909975e-11 6.243155e-08 -6.134887e-08) (3.972062e-11 1.184420e-07 -2.167629e-08)) ((-4.435931e-11 -5.765695e-13 1.569860e-13) (1.668397e-08 -8.824355e-13 9.046764e-13))
2436.985622   	((9.911550e-11 6.242324e-08 -6.143060e-08) (3.985738e-11 1.184383e-07 -2.170470e-08)) ((-4.435932e-11 -5.767152e-13 1.569805e-13) (1.668365e-08 -8.863885e-13 9.131743e-13))
2523.886899   	((9.914822e-11 6.241567e-08 -6.150567e-08) (3.998067e-11 1.184354e-07 -2.173085e-08)) ((-4.435933e-11 -5.768420e-13 1.569736e-13) (1.668338e-08 -8.900632e-13 9.203864e-13))
2610.788633   	((9.917507e-11 6.240867e-08 -6.157462e-08) (4.009399e-11 1.184331e-07 -2.175492e-08)) ((-4.435935e-11 -5.769631e-13 1.569684e-13) (1.668315e-08 -8.927087e-13 9.267615e-13))
2697.690787   	((9.921220e-11 6.240223e-08 -6.163802e-08) (4.021360e-11 1.184312e-07 -2.177712e-08)) ((-4.435936e-11 -5.770658e-13 1.569636e-13) (1.668296e-08 -8.949942e-13 9.328690e-13))
2784.593329   	((9.924427e-11 6.239621e-08 -6.169655e-08) (4.033713e-11 1.184298e-07 -2.179762e-08)) ((-4.435937e-11 -5.771574e-13 1.569611e-13) (1.668279e-08 -8.973573e-13 9.386524e-13))
2871.496227   	((9.930397e-11 6.239064e-08 -6.175055e-08) (4.045567e-11 1.184286e-07 -2.181657e-08)) ((-4.435937e-11 -5.772404e-13 1.569603e-13) (1.668264e-08 -8.996462e-13 9.439207e-13))
2958.399456   	((9.936166e-11 6.238548e-08 -6.180045e-08) (4.056853e-11 1.184277e-07 -2.183410e-08)) ((-4.435938e-11 -5.773126e-13 1.569609e-13) (1.668251e-08 -9.017736e-13 9.489447e-13))
3045.30299    	((9.942911e-11 6.238069e-08 -6.184666e-08) (4.067820e-11 1.184270e-07 -2.185035e-08)) ((-4.435939e-11 -5.773735e-13 1.569632e-13) (1.668240e-08 -9.038154e-13 9.539205e-13))
3132.206809   	((9.945256e-11 6.237624e-08 -6.188945e-08) (4.078083e-11 1.184264e-07 -2.186543e-08)) ((-4.435940e-11 -5.774305e-13 1.569637e-13) (1.668230e-08 -9.059612e-13 9.584865e-13))
3219.110891   	((9.946706e-11 6.237210e-08 -6.192913e-08) (4.087642e-11 1.184259e-07 -2.187942e-08)) ((-4.435940e-11 -5.774836e-13 1.569647e-13) (1.668221e-08 -9.082839e-13 9.625037e-13))
3306.015219   	((9.949707e-11 6.236823e-08 -6.196599e-08) (4.096137e-11 1.184256e-07 -2.189244e-08)) ((-4.435941e-11 -5.775285e-13 1.569656e-13) (1.668213e-08 -9.102319e-13 9.662919e-13))
3392.919776   	((9.952160e-11 6.236461e-08 -6.200020e-08) (4.104707e-11 1.184253e-07 -2.190455e-08)) ((-4.435943e-11 -5.775634e-13 1.569694e-13) (1.668205e-08 -9.119885e-13 9.699607e-13))
3479.824546   	((9.956926e-11 6.236126e-08 -6.203207e-08) (4.112501e-11 1.184251e-07 -2.191584e-08)) ((-4.435945e-11 -5.775995e-13 1.569772e-13) (1.668199e-08 -9.133965e-13 9.730902e-13))
3566.729515   	((9.962548e-11 6.235811e-08 -6.206178e-08) (4.119438e-11 1.184249e-07 -2.192637e-08)) ((-4.435946e-11 -5.776312e-13 1.569845e-13) (1.668193e-08 -9.148063e-13 9.758368e-13))
3653.634671   	((9.965310e-11 6.235511e-08 -6.208954e-08) (4.126055e-11 1.184247e-07 -2.193620e-08)) ((-4.435947e-11 -5.776583e-13 1.569913e-13) (1.668187e-08 -9.164123e-13 9.782315e-13))
3740.540001   	((9.969112e-11 6.235234e-08 -6.211545e-08) (4.132246e-11 1.184246e-07 -2.194539e-08)) ((-4.435949e-11 -5.776837e-13 1.569980e-13) (1.668182e-08 -9.181580e-13 9.803488e-13))
3827.445494   	((9.973893e-11 6.234973e-08 -6.213966e-08) (4.138246e-11 1.184245e-07 -2.195400e-08)) ((-4.435950e-11 -5.777069e-13 1.570038e-13) (1.668177e-08 -9.201198e-13 9.821454e-13))
