# Forces      
# CofR        : (0.000000e+00 0.000000e+00 0.000000e+00)
# Time        forces(pressure viscous)	moments(pressure viscous)
0             	((0.000000e+00 0.000000e+00 0.000000e+00) (-9.784738e-10 -1.662873e-12 -1.003236e-04)) ((0.000000e+00 0.000000e+00 0.000000e+00) (1.756540e-13 -1.016187e-11 2.330433e-15))
0.012         	((-5.156399e-06 -2.444833e-06 -7.665361e-02) (-4.815455e-09 -2.319931e-09 -9.819429e-05)) ((3.859853e-10 -1.990526e-07 -1.007819e-11) (-1.826673e-10 3.620950e-10 -1.774739e-13))
0.0264        	((2.938132e-06 4.518494e-07 5.416847e-03) (-6.152957e-09 -2.991128e-09 -9.337002e-05)) ((-8.423866e-11 1.296309e-08 6.273726e-11) (-1.993556e-10 1.361212e-10 9.252278e-12))
0.04368       	((2.076863e-06 4.372355e-06 9.883402e-03) (-5.199322e-09 4.123137e-10 -8.429688e-05)) ((-2.443758e-10 2.129917e-08 -1.413275e-10) (8.293361e-11 -7.515862e-10 2.955090e-11))
0.064416      	((2.817578e-06 2.233630e-07 1.748214e-03) (-4.467480e-09 3.614708e-09 -7.570620e-05)) ((-1.719304e-11 6.912501e-09 2.704469e-11) (3.298322e-10 -1.270479e-09 1.768878e-11))
0.0892992     	((8.212909e-07 8.809984e-08 9.564423e-04) (-6.778808e-10 4.688278e-09 -7.014175e-05)) ((-3.371598e-11 4.068615e-09 1.249521e-12) (3.795213e-10 -1.367764e-09 -1.468237e-12))
0.119159      	((1.846038e-07 9.992158e-08 7.664431e-04) (2.269234e-09 4.895461e-09 -6.511634e-05)) ((-7.176917e-12 2.645685e-09 -6.314243e-12) (3.309665e-10 -1.394077e-09 2.832521e-12))
0.154991      	((1.651055e-07 -2.342138e-08 4.353274e-04) (3.494036e-09 4.492285e-09 -5.966665e-05)) ((-1.103472e-11 1.799656e-09 1.494037e-11) (2.786443e-10 -1.405281e-09 4.807084e-12))
0.197989      	((7.469440e-08 -6.001855e-08 2.799262e-04) (4.498810e-09 3.952303e-09 -5.417911e-05)) ((-1.375859e-11 1.219500e-09 7.739648e-12) (2.366521e-10 -1.420798e-09 9.748172e-13))
0.249587      	((4.886381e-08 -2.300852e-08 1.991575e-04) (4.598218e-09 3.399035e-09 -4.882146e-05)) ((-1.284073e-11 8.599079e-10 -1.343261e-12) (1.907556e-10 -1.361867e-09 -2.045790e-12))
0.311504      	((-3.301847e-08 4.941431e-09 1.404214e-04) (4.549394e-09 2.855097e-09 -4.373004e-05)) ((-6.469787e-12 6.138002e-10 7.466270e-13) (1.701888e-10 -1.271295e-09 -2.958078e-12))
0.385805      	((-5.599050e-08 -1.065428e-08 9.879106e-05) (4.001524e-09 2.399638e-09 -3.904379e-05)) ((-6.325532e-12 4.548526e-10 -1.004630e-12) (1.636742e-10 -1.153953e-09 -4.752917e-12))
0.474966      	((-2.217743e-08 -6.309928e-09 6.953642e-05) (3.903952e-09 2.054624e-09 -3.484516e-05)) ((-6.673022e-12 3.443676e-10 -1.433206e-13) (1.638736e-10 -1.042277e-09 -5.674899e-12))
0.581959      	((-2.032531e-08 -2.016554e-09 4.901199e-05) (4.177968e-09 1.700510e-09 -3.111990e-05)) ((-7.436333e-12 2.658455e-10 -2.944719e-13) (1.673565e-10 -9.214178e-10 -4.285634e-12))
0.710351      	((-8.996238e-10 4.286863e-10 3.399748e-05) (4.604546e-09 1.456384e-09 -2.783661e-05)) ((-7.047100e-12 2.094404e-10 -1.437625e-12) (1.695354e-10 -8.097494e-10 -3.838755e-12))
0.864421      	((4.120676e-09 9.988659e-09 2.313162e-05) (4.788869e-09 1.320421e-09 -2.495168e-05)) ((-7.396478e-12 1.687114e-10 -8.657146e-13) (1.624914e-10 -7.139378e-10 -5.068132e-12))
1.049306      	((1.391207e-08 1.634371e-08 1.524007e-05) (4.707763e-09 1.298780e-09 -2.241118e-05)) ((-7.902048e-12 1.404907e-10 -8.438239e-13) (1.526799e-10 -6.266134e-10 -6.615994e-12))
1.271167      	((2.718715e-08 2.988119e-08 9.534458e-06) (3.665753e-09 1.195063e-09 -2.017176e-05)) ((-9.528133e-12 1.212980e-10 -4.139336e-13) (1.341859e-10 -5.451358e-10 -7.122653e-12))
1.5374        	((4.218979e-08 4.042564e-08 5.363299e-06) (2.574624e-09 1.197722e-09 -1.820228e-05)) ((-1.180632e-11 1.087568e-10 -2.508783e-13) (9.581365e-11 -4.394840e-10 -5.898102e-12))
1.85688       	((4.363561e-08 4.121631e-08 2.423534e-06) (2.261736e-09 1.261640e-09 -1.646842e-05)) ((-1.176721e-11 9.984601e-11 -3.619563e-13) (5.249124e-11 -3.413223e-10 -4.199654e-12))
2.240256      	((6.027487e-08 6.616248e-08 2.487058e-07) (2.275040e-09 1.471261e-09 -1.494208e-05)) ((-1.479881e-11 9.591712e-11 -4.717463e-13) (4.202262e-11 -2.795227e-10 -3.366512e-12))
2.700307      	((4.111629e-08 4.417344e-08 -1.396208e-06) (2.371670e-09 1.605701e-09 -1.359630e-05)) ((-1.255882e-11 8.748014e-11 2.038165e-13) (5.313170e-11 -2.491446e-10 -3.048205e-12))
3.252369      	((1.708677e-08 2.022813e-08 -2.628619e-06) (2.217955e-09 1.507695e-09 -1.240161e-05)) ((-8.519268e-12 7.803665e-11 3.499067e-13) (7.700427e-11 -2.470836e-10 -2.108999e-12))
3.914842      	((-9.583634e-10 3.407916e-09 -3.578518e-06) (2.024335e-09 1.553203e-09 -1.133965e-05)) ((-4.066314e-12 6.784121e-11 5.833487e-13) (1.183779e-10 -2.646579e-10 -1.110660e-12))
4.709811      	((-1.147207e-08 -7.403556e-09 -4.339270e-06) (2.193708e-09 1.924769e-09 -1.040154e-05)) ((7.287632e-13 5.765826e-11 7.508177e-13) (1.938859e-10 -3.110336e-10 -1.201393e-12))
5.663773      	((-1.539304e-08 -1.073424e-08 -4.961243e-06) (2.601455e-09 2.576095e-09 -9.579029e-06)) ((4.049353e-12 4.954733e-11 6.730375e-13) (2.892472e-10 -3.610468e-10 -1.427842e-12))
6.808528      	((-1.212923e-08 -8.237991e-09 -5.487381e-06) (3.011524e-09 3.147398e-09 -8.864753e-06)) ((5.028633e-12 4.528913e-11 5.110525e-13) (3.539213e-10 -3.889311e-10 -1.255346e-12))
8.182233      	((-9.636623e-09 -4.658533e-09 -5.941709e-06) (3.166217e-09 3.347015e-09 -8.252741e-06)) ((4.433210e-12 4.380754e-11 4.701655e-13) (3.796234e-10 -3.986490e-10 -1.676568e-12))
9.83068       	((-5.770832e-09 -4.966927e-10 -6.315963e-06) (3.075455e-09 3.310976e-09 -7.733889e-06)) ((3.646393e-12 4.346613e-11 4.266407e-13) (3.883462e-10 -3.947813e-10 -1.959050e-12))
11.808816     	((-1.825117e-09 1.475204e-09 -6.631599e-06) (2.996686e-09 3.217349e-09 -7.297670e-06)) ((3.339884e-12 4.319901e-11 3.822844e-13) (3.893262e-10 -3.937678e-10 -1.758134e-12))
14.182579     	((7.791001e-09 1.039126e-08 -6.906300e-06) (3.268144e-09 3.391775e-09 -6.934534e-06)) ((2.932334e-12 4.367666e-11 2.861683e-13) (3.935644e-10 -4.042792e-10 -1.602615e-12))
17.031095     	((5.847657e-09 9.670152e-09 -7.180985e-06) (3.498441e-09 3.585320e-09 -6.635669e-06)) ((3.206479e-12 4.354711e-11 3.146004e-13) (3.955307e-10 -4.060628e-10 -1.256052e-12))
20.449314     	((5.349714e-09 9.511474e-09 -7.433288e-06) (3.568491e-09 3.673334e-09 -6.394841e-06)) ((3.543026e-12 4.356209e-11 2.368650e-13) (3.894500e-10 -3.973272e-10 -1.018767e-12))
24.551176     	((7.981415e-09 1.256329e-08 -7.625937e-06) (3.614928e-09 3.797503e-09 -6.206080e-06)) ((3.415588e-12 4.427540e-11 2.280241e-13) (3.796517e-10 -3.821130e-10 -1.087229e-12))
29.473411     	((8.555801e-09 1.317228e-08 -7.761699e-06) (3.531173e-09 3.783420e-09 -6.060972e-06)) ((3.402276e-12 4.501624e-11 1.852125e-13) (3.621130e-10 -3.576694e-10 -1.291069e-12))
35.380094     	((9.259281e-09 1.384659e-08 -7.855217e-06) (3.335630e-09 3.640114e-09 -5.953123e-06)) ((3.460573e-12 4.573174e-11 1.400347e-13) (3.514761e-10 -3.391892e-10 -9.631520e-13))
42.468112     	((1.134959e-08 1.504595e-08 -7.803084e-06) (3.237062e-09 3.578652e-09 -5.875110e-06)) ((3.480862e-12 4.678969e-11 1.365554e-13) (3.528427e-10 -3.364580e-10 -5.400598e-13))
50.973735     	((1.385742e-08 1.708135e-08 -7.625252e-06) (3.298651e-09 3.599613e-09 -5.815606e-06)) ((3.485875e-12 4.796404e-11 1.576505e-13) (3.575280e-10 -3.446362e-10 -2.463139e-13))
61.180482     	((1.712563e-08 1.992336e-08 -7.476487e-06) (3.340632e-09 3.639948e-09 -5.770085e-06)) ((3.412984e-12 4.899039e-11 1.497303e-13) (3.624999e-10 -3.501596e-10 -5.912118e-13))
73.428578     	((2.023511e-08 2.259726e-08 -7.374993e-06) (3.412878e-09 3.715727e-09 -5.738309e-06)) ((3.339699e-12 4.976143e-11 1.624531e-13) (3.649446e-10 -3.531690e-10 -1.182941e-12))
87.847489     	((2.262936e-08 2.501044e-08 -7.244739e-06) (3.563947e-09 3.837865e-09 -5.716738e-06)) ((3.345387e-12 5.040091e-11 1.533382e-13) (3.688291e-10 -3.597273e-10 -8.471436e-13))
104.43261     	((2.339077e-08 2.589325e-08 -7.092945e-06) (3.718772e-09 3.981415e-09 -5.701338e-06)) ((3.377024e-12 5.097398e-11 1.431624e-13) (3.753050e-10 -3.673635e-10 -7.171198e-13))
123.180509    	((2.285516e-08 2.549984e-08 -6.958386e-06) (3.790581e-09 4.069564e-09 -5.690210e-06)) ((3.395840e-12 5.142980e-11 1.139514e-13) (3.790575e-10 -3.712352e-10 -7.060447e-13))
144.088594    	((2.170473e-08 2.434166e-08 -6.842550e-06) (3.776417e-09 4.069490e-09 -5.682032e-06)) ((3.465743e-12 5.173320e-11 1.051350e-13) (3.795631e-10 -3.718385e-10 -4.615609e-13))
165.669857    	((2.065084e-08 2.331253e-08 -6.757555e-06) (3.710014e-09 4.005516e-09 -5.676349e-06)) ((3.492437e-12 5.199572e-11 9.794226e-14) (3.769952e-10 -3.696238e-10 -2.198057e-13))
187.237746    	((1.973588e-08 2.227882e-08 -6.692142e-06) (3.600607e-09 3.889041e-09 -5.672512e-06)) ((3.513666e-12 5.221460e-11 9.288680e-14) (3.719804e-10 -3.650277e-10 -5.744365e-14))
208.797042    	((1.931848e-08 2.181448e-08 -6.632107e-06) (3.491612e-09 3.772073e-09 -5.669879e-06)) ((3.528109e-12 5.240816e-11 8.679337e-14) (3.667871e-10 -3.602043e-10 -8.317237e-14))
230.350134    	((1.919538e-08 2.157867e-08 -6.575251e-06) (3.404380e-09 3.674164e-09 -5.667940e-06)) ((3.538274e-12 5.258411e-11 8.414722e-14) (3.621649e-10 -3.560499e-10 -8.259339e-14))
251.898738    	((1.940624e-08 2.173978e-08 -6.529591e-06) (3.349548e-09 3.612300e-09 -5.666408e-06)) ((3.540134e-12 5.272920e-11 8.077985e-14) (3.586309e-10 -3.528137e-10 -8.338185e-15))
273.444059    	((1.975717e-08 2.203754e-08 -6.489303e-06) (3.328068e-09 3.586991e-09 -5.665200e-06)) ((3.537664e-12 5.285961e-11 7.814269e-14) (3.562685e-10 -3.505982e-10 7.000161e-14))
294.986953    	((2.021048e-08 2.243056e-08 -6.456228e-06) (3.333703e-09 3.588706e-09 -5.664264e-06)) ((3.532008e-12 5.297022e-11 7.647709e-14) (3.549195e-10 -3.493905e-10 1.207790e-13))
316.528015    	((2.073460e-08 2.289716e-08 -6.429766e-06) (3.362771e-09 3.612596e-09 -5.663557e-06)) ((3.525380e-12 5.306111e-11 7.617904e-14) (3.544979e-10 -3.491340e-10 1.502985e-13))
338.067705    	((2.122706e-08 2.334552e-08 -6.407081e-06) (3.408244e-09 3.652046e-09 -5.663028e-06)) ((3.519465e-12 5.313913e-11 7.657607e-14) (3.548221e-10 -3.496366e-10 1.649429e-13))
359.606361    	((2.168881e-08 2.377621e-08 -6.387768e-06) (3.463498e-09 3.701090e-09 -5.662635e-06)) ((3.513279e-12 5.320604e-11 7.725659e-14) (3.556854e-10 -3.506878e-10 1.671373e-13))
