# Forces      
# CofR        : (0.000000e+00 0.000000e+00 0.000000e+00)
# Time        forces(pressure viscous)	moments(pressure viscous)
0             	((0.000000e+00 0.000000e+00 0.000000e+00) (-3.074656e-13 -1.008505e-03 6.539600e-14)) ((0.000000e+00 0.000000e+00 0.000000e+00) (-2.266006e-05 -2.516215e-15 4.884388e-10))
0.012         	((-1.539855e-07 -2.925408e-01 6.433721e-02) (1.382750e-09 -1.153587e-03 -6.983218e-06)) ((3.438900e-06 2.254465e-07 5.430345e-08) (-3.352416e-05 3.959580e-11 8.169144e-10))
0.0264        	((-1.955668e-06 3.282268e-02 -8.779582e-03) (2.481347e-10 -1.164741e-03 -1.081795e-05)) ((-3.674668e-07 -1.898786e-08 -2.889691e-09) (-3.728437e-05 1.380774e-10 6.994945e-10))
0.04368       	((1.036503e-06 5.441962e-02 -7.229977e-03) (1.152210e-09 -1.022777e-03 -1.074822e-05)) ((-7.268398e-07 -1.741544e-08 -1.654709e-08) (-3.312035e-05 3.373826e-10 2.073869e-10))
0.064416      	((-1.144488e-06 3.661388e-04 -4.509044e-03) (-2.256327e-08 -9.010595e-04 -1.199372e-05)) ((1.880903e-09 -7.871995e-09 2.399590e-09) (-2.993654e-05 5.890569e-10 4.417394e-10))
0.0892992     	((1.098526e-06 1.294795e-04 -3.375239e-03) (-2.870867e-08 -8.291919e-04 -1.479710e-05)) ((1.165012e-08 -3.979934e-09 1.263820e-10) (-2.833919e-05 7.288213e-10 3.707530e-10))
0.119159      	((1.062497e-06 8.513916e-04 -2.720479e-03) (-3.310108e-08 -7.668671e-04 -1.755108e-05)) ((-2.114684e-08 -1.827852e-09 -2.965855e-10) (-2.661452e-05 5.375749e-10 -1.082880e-10))
0.154991      	((-9.398690e-07 1.980226e-04 -2.352707e-03) (-6.444443e-08 -7.046703e-04 -2.009761e-05)) ((-1.163884e-08 -7.766440e-10 8.158900e-11) (-2.481938e-05 4.119277e-10 -5.434846e-10))
0.197989      	((-4.159463e-07 -3.591116e-05 -2.098311e-03) (-9.475104e-08 -6.463564e-04 -2.254722e-05)) ((-8.057685e-09 -7.714890e-11 1.580747e-11) (-2.308290e-05 4.750952e-10 -9.749257e-10))
0.249587      	((-4.827895e-07 -1.214488e-04 -1.940913e-03) (-1.121368e-07 -5.938128e-04 -2.509855e-05)) ((-6.709090e-09 3.986705e-10 5.801147e-11) (-2.144141e-05 5.120630e-10 -1.416387e-09))
0.311504      	((-1.968095e-07 -1.741387e-04 -1.841927e-03) (-1.091493e-07 -5.476001e-04 -2.776101e-05)) ((-5.646215e-09 7.052500e-10 5.079106e-11) (-1.992161e-05 4.636552e-10 -1.566267e-09))
0.385805      	((-2.597355e-07 -2.029588e-04 -1.777989e-03) (-1.008131e-07 -5.069720e-04 -3.062783e-05)) ((-4.748061e-09 8.510400e-10 3.557206e-11) (-1.852539e-05 3.938162e-10 -1.544658e-09))
0.474966      	((-1.778319e-07 -2.177006e-04 -1.735395e-03) (-9.233625e-08 -4.704739e-04 -3.378662e-05)) ((-3.893784e-09 9.229871e-10 6.033453e-11) (-1.722888e-05 3.660748e-10 -1.653290e-09))
0.581959      	((-1.135018e-07 -2.232540e-04 -1.707177e-03) (-7.812388e-08 -4.360339e-04 -3.735705e-05)) ((-3.053393e-09 9.482970e-10 7.179318e-11) (-1.597973e-05 4.138678e-10 -1.997826e-09))
0.710351      	((-5.656294e-08 -2.235261e-04 -1.686696e-03) (-6.351146e-08 -4.025078e-04 -4.136429e-05)) ((-2.254413e-09 9.396429e-10 9.876166e-11) (-1.475136e-05 4.808269e-10 -2.465101e-09))
0.864421      	((-6.207408e-08 -2.221067e-04 -1.671430e-03) (-5.137721e-08 -3.702463e-04 -4.580987e-05)) ((-1.475366e-09 9.031906e-10 1.272297e-10) (-1.356275e-05 4.845909e-10 -2.827710e-09))
1.049306      	((4.389964e-09 -2.219201e-04 -1.658798e-03) (-4.296105e-08 -3.399376e-04 -5.071281e-05)) ((-7.121305e-10 8.553180e-10 1.567624e-10) (-1.244134e-05 3.834801e-10 -3.001362e-09))
1.271167      	((6.235468e-09 -2.252785e-04 -1.646966e-03) (-3.824342e-08 -3.120584e-04 -5.599376e-05)) ((4.714918e-11 7.823021e-10 1.967644e-10) (-1.140584e-05 1.780116e-10 -3.046780e-09))
1.5374        	((-2.049696e-08 -2.332626e-04 -1.634686e-03) (-3.036044e-08 -2.868976e-04 -6.150381e-05)) ((8.235776e-10 6.930648e-10 2.430285e-10) (-1.046782e-05 -3.626552e-11 -3.026905e-09))
1.85688       	((-2.633262e-08 -2.467211e-04 -1.620486e-03) (-1.735134e-08 -2.645928e-04 -6.700726e-05)) ((1.720491e-09 6.086479e-10 2.973367e-10) (-9.635806e-06 -1.403865e-10 -2.885047e-09))
2.240256      	((-2.135530e-08 -2.669574e-04 -1.604489e-03) (-4.508236e-09 -2.452024e-04 -7.219158e-05)) ((2.701872e-09 5.030366e-10 3.660761e-10) (-8.915319e-06 -1.582265e-10 -2.813757e-09))
2.700307      	((-3.441573e-08 -2.948436e-04 -1.586022e-03) (6.870648e-09 -2.286628e-04 -7.683926e-05)) ((3.789227e-09 3.778219e-10 4.437479e-10) (-8.305442e-06 -1.476362e-10 -3.265296e-09))
3.239565      	((4.784885e-08 -3.304999e-04 -1.565781e-03) (7.468431e-09 -2.150209e-04 -8.092927e-05)) ((4.922025e-09 2.346746e-10 5.463352e-10) (-7.803606e-06 -2.576636e-10 -4.336872e-09))
3.857439      	((6.402871e-08 -3.731601e-04 -1.543686e-03) (4.128320e-09 -2.039426e-04 -8.459946e-05)) ((6.037362e-09 7.856723e-11 6.717550e-10) (-7.393670e-06 -4.605948e-10 -5.474726e-09))
4.553305      	((1.708144e-07 -4.220662e-04 -1.520157e-03) (3.659302e-09 -1.949682e-04 -8.789643e-05)) ((7.061342e-09 -1.003116e-10 8.172007e-10) (-7.057071e-06 -6.362224e-10 -6.606073e-09))
5.325501      	((2.549552e-07 -4.768212e-04 -1.494769e-03) (3.701226e-09 -1.877491e-04 -9.065081e-05)) ((7.887800e-09 -2.971084e-10 9.709091e-10) (-6.780989e-06 -7.280231e-10 -7.517706e-09))
6.088399      	((3.056940e-07 -5.319099e-04 -1.466101e-03) (1.002541e-08 -1.825584e-04 -9.242551e-05)) ((8.511922e-09 -4.650504e-10 1.088148e-09) (-6.575716e-06 -7.410303e-10 -7.817022e-09))
6.841304      	((3.697302e-07 -5.824848e-04 -1.433584e-03) (1.633732e-08 -1.787061e-04 -9.327972e-05)) ((9.079088e-09 -6.157471e-10 1.191885e-09) (-6.418831e-06 -7.256223e-10 -7.586766e-09))
7.585517      	((4.579905e-07 -6.269092e-04 -1.397512e-03) (2.971210e-08 -1.757823e-04 -9.331018e-05)) ((9.659016e-09 -7.668907e-10 1.315780e-09) (-6.300673e-06 -8.213335e-10 -6.768480e-09))
8.324408      	((6.001859e-07 -6.614504e-04 -1.359212e-03) (3.882817e-08 -1.733729e-04 -9.290973e-05)) ((1.025044e-08 -8.935732e-10 1.425883e-09) (-6.205212e-06 -1.023114e-09 -6.003429e-09))
9.061749      	((7.582421e-07 -6.867212e-04 -1.320098e-03) (4.184271e-08 -1.713711e-04 -9.227676e-05)) ((1.085635e-08 -9.798661e-10 1.534127e-09) (-6.128679e-06 -1.294965e-09 -5.277784e-09))
9.799729      	((1.083035e-06 -7.007739e-04 -1.279923e-03) (5.867056e-08 -1.695418e-04 -9.149127e-05)) ((1.147308e-08 -1.008634e-09 1.617113e-09) (-6.065677e-06 -1.530798e-09 -4.479854e-09))
10.538548     	((1.342762e-06 -7.028068e-04 -1.239388e-03) (8.382547e-08 -1.677907e-04 -9.063574e-05)) ((1.194648e-08 -9.658101e-10 1.684980e-09) (-6.012346e-06 -1.967674e-09 -3.783622e-09))
11.277267     	((1.439860e-06 -6.962432e-04 -1.201014e-03) (1.009027e-07 -1.660947e-04 -8.974196e-05)) ((1.229352e-08 -8.840249e-10 1.726825e-09) (-5.967529e-06 -2.449369e-09 -3.631017e-09))
12.015        	((1.263992e-06 -6.866175e-04 -1.170236e-03) (1.052329e-07 -1.645154e-04 -8.883802e-05)) ((1.249912e-08 -8.151430e-10 1.733561e-09) (-5.932210e-06 -2.678890e-09 -3.709385e-09))
12.751779     	((1.191231e-06 -6.740160e-04 -1.142359e-03) (1.016540e-07 -1.631204e-04 -8.797249e-05)) ((1.256033e-08 -7.510301e-10 1.705066e-09) (-5.905390e-06 -2.785981e-09 -3.796562e-09))
13.488092     	((1.333524e-06 -6.629354e-04 -1.114407e-03) (9.841292e-08 -1.618146e-04 -8.720804e-05)) ((1.254182e-08 -6.920374e-10 1.666324e-09) (-5.880677e-06 -2.981759e-09 -4.108127e-09))
14.224242     	((1.513763e-06 -6.549865e-04 -1.083960e-03) (1.016768e-07 -1.605836e-04 -8.652723e-05)) ((1.249155e-08 -6.435049e-10 1.647645e-09) (-5.856108e-06 -3.268603e-09 -4.282115e-09))
14.960223     	((1.667988e-06 -6.515417e-04 -1.059644e-03) (1.086139e-07 -1.595052e-04 -8.592106e-05)) ((1.239557e-08 -6.265533e-10 1.643071e-09) (-5.833008e-06 -3.611869e-09 -4.285532e-09))
15.695904     	((1.918411e-06 -6.498908e-04 -1.039648e-03) (1.183689e-07 -1.585756e-04 -8.542025e-05)) ((1.232438e-08 -6.197145e-10 1.639273e-09) (-5.811019e-06 -3.957192e-09 -4.136638e-09))
16.43136      	((2.190777e-06 -6.471697e-04 -1.020132e-03) (1.294397e-07 -1.577110e-04 -8.502490e-05)) ((1.228223e-08 -5.999480e-10 1.631787e-09) (-5.788352e-06 -4.380664e-09 -3.954592e-09))
17.166736     	((2.499753e-06 -6.426053e-04 -9.985133e-04) (1.401794e-07 -1.568401e-04 -8.472730e-05)) ((1.222227e-08 -5.578907e-10 1.624873e-09) (-5.763246e-06 -4.980501e-09 -3.988569e-09))
17.902117     	((2.883254e-06 -6.382703e-04 -9.775912e-04) (1.530385e-07 -1.559689e-04 -8.449938e-05)) ((1.217831e-08 -5.131753e-10 1.619599e-09) (-5.736776e-06 -5.808604e-09 -4.199642e-09))
18.637298     	((3.283573e-06 -6.339739e-04 -9.572795e-04) (1.669063e-07 -1.551102e-04 -8.432417e-05)) ((1.213727e-08 -4.635762e-10 1.616590e-09) (-5.709831e-06 -6.801209e-09 -4.598464e-09))
19.372432     	((3.833291e-06 -6.298539e-04 -9.377169e-04) (1.848560e-07 -1.542695e-04 -8.419060e-05)) ((1.210838e-08 -4.129687e-10 1.613980e-09) (-5.682840e-06 -7.961530e-09 -5.210829e-09))
20.107686     	((4.359840e-06 -6.261906e-04 -9.185484e-04) (2.069905e-07 -1.534592e-04 -8.407497e-05)) ((1.210207e-08 -3.632363e-10 1.610919e-09) (-5.656889e-06 -9.305570e-09 -5.882403e-09))
20.843087     	((4.856972e-06 -6.228389e-04 -9.000380e-04) (2.323708e-07 -1.526869e-04 -8.396650e-05)) ((1.209886e-08 -3.127303e-10 1.607037e-09) (-5.632502e-06 -1.073994e-08 -6.479118e-09))
21.578666     	((5.471417e-06 -6.194786e-04 -8.817268e-04) (2.644691e-07 -1.519506e-04 -8.385602e-05)) ((1.210799e-08 -2.588621e-10 1.601220e-09) (-5.609904e-06 -1.234538e-08 -7.017478e-09))
22.31445      	((6.070212e-06 -6.166168e-04 -8.643827e-04) (3.008740e-07 -1.512564e-04 -8.373636e-05)) ((1.212556e-08 -2.108222e-10 1.596697e-09) (-5.589527e-06 -1.408234e-08 -7.556598e-09))
23.05045      	((6.688020e-06 -6.138345e-04 -8.472956e-04) (3.393501e-07 -1.506009e-04 -8.361535e-05)) ((1.213977e-08 -1.647191e-10 1.593203e-09) (-5.571003e-06 -1.589559e-08 -8.049947e-09))
23.786675     	((7.265241e-06 -6.118783e-04 -8.307580e-04) (3.803376e-07 -1.499913e-04 -8.348986e-05)) ((1.217124e-08 -1.241184e-10 1.591556e-09) (-5.554409e-06 -1.775296e-08 -8.499183e-09))
24.523157     	((7.939039e-06 -6.098405e-04 -8.144447e-04) (4.238367e-07 -1.494237e-04 -8.336240e-05)) ((1.219590e-08 -8.094875e-11 1.590062e-09) (-5.539427e-06 -1.969160e-08 -8.981380e-09))
25.25993      	((8.521121e-06 -6.080400e-04 -7.986595e-04) (4.677496e-07 -1.488918e-04 -8.323071e-05)) ((1.222218e-08 -4.067252e-11 1.589889e-09) (-5.525889e-06 -2.161206e-08 -9.485246e-09))
25.996985     	((9.201639e-06 -6.058769e-04 -7.831867e-04) (5.126745e-07 -1.483824e-04 -8.310164e-05)) ((1.223006e-08 2.097176e-12 1.588875e-09) (-5.513106e-06 -2.355555e-08 -9.960543e-09))
26.734065     	((1.005124e-05 -6.035548e-04 -7.678031e-04) (5.624306e-07 -1.478820e-04 -8.298431e-05)) ((1.222613e-08 4.686939e-11 1.587689e-09) (-5.500338e-06 -2.566674e-08 -1.050677e-08))
27.471103     	((1.070148e-05 -6.014204e-04 -7.528086e-04) (6.120001e-07 -1.473950e-04 -8.287256e-05)) ((1.222170e-08 8.499798e-11 1.586746e-09) (-5.487722e-06 -2.776602e-08 -1.119466e-08))
28.208207     	((1.152674e-05 -5.992226e-04 -7.380867e-04) (6.625011e-07 -1.469192e-04 -8.276159e-05)) ((1.221258e-08 1.263967e-10 1.585587e-09) (-5.475215e-06 -2.991096e-08 -1.194858e-08))
28.945444     	((1.240739e-05 -5.971599e-04 -7.237683e-04) (7.176078e-07 -1.464519e-04 -8.265237e-05)) ((1.220294e-08 1.702772e-10 1.585784e-09) (-5.462677e-06 -3.226072e-08 -1.267451e-08))
29.682921     	((1.340613e-05 -5.951814e-04 -7.099127e-04) (7.773752e-07 -1.459931e-04 -8.254741e-05)) ((1.219443e-08 2.139341e-10 1.586517e-09) (-5.450084e-06 -3.484189e-08 -1.346935e-08))
30.420765     	((1.463199e-05 -5.933657e-04 -6.966042e-04) (8.437919e-07 -1.455485e-04 -8.244366e-05)) ((1.218852e-08 2.613356e-10 1.587607e-09) (-5.437721e-06 -3.783640e-08 -1.435875e-08))
31.158936     	((1.589670e-05 -5.918388e-04 -6.838638e-04) (9.180034e-07 -1.451272e-04 -8.233451e-05)) ((1.218837e-08 3.097285e-10 1.588379e-09) (-5.426127e-06 -4.123657e-08 -1.529190e-08))
31.897351     	((1.734646e-05 -5.901932e-04 -6.714801e-04) (1.001070e-06 -1.447259e-04 -8.222254e-05)) ((1.218385e-08 3.629363e-10 1.587766e-09) (-5.415293e-06 -4.501573e-08 -1.627022e-08))
32.635997     	((1.896656e-05 -5.884320e-04 -6.594693e-04) (1.096436e-06 -1.443385e-04 -8.212121e-05)) ((1.216416e-08 4.204871e-10 1.585820e-09) (-5.404664e-06 -4.925920e-08 -1.725409e-08))
33.374872     	((2.069945e-05 -5.865831e-04 -6.475998e-04) (1.203448e-06 -1.439603e-04 -8.204177e-05)) ((1.213451e-08 4.797148e-10 1.583024e-09) (-5.393655e-06 -5.397640e-08 -1.826932e-08))
34.11398      	((2.260963e-05 -5.847781e-04 -6.359056e-04) (1.322886e-06 -1.435870e-04 -8.198776e-05)) ((1.210182e-08 5.409629e-10 1.580425e-09) (-5.381954e-06 -5.919943e-08 -1.931194e-08))
34.85333      	((2.474532e-05 -5.831349e-04 -6.245483e-04) (1.456157e-06 -1.432184e-04 -8.195229e-05)) ((1.207725e-08 6.022601e-10 1.577619e-09) (-5.369878e-06 -6.500037e-08 -2.045276e-08))
35.592933     	((2.712623e-05 -5.815031e-04 -6.133610e-04) (1.602242e-06 -1.428558e-04 -8.192055e-05)) ((1.206477e-08 6.635516e-10 1.574594e-09) (-5.358086e-06 -7.137395e-08 -2.185342e-08))
36.332802     	((2.976754e-05 -5.799142e-04 -6.021403e-04) (1.761847e-06 -1.425045e-04 -8.187585e-05)) ((1.206435e-08 7.261084e-10 1.571495e-09) (-5.347251e-06 -7.832205e-08 -2.356694e-08))
37.072946     	((3.257528e-05 -5.783260e-04 -5.909465e-04) (1.935009e-06 -1.421683e-04 -8.181419e-05)) ((1.206639e-08 7.907575e-10 1.569066e-09) (-5.337457e-06 -8.585006e-08 -2.556024e-08))
37.81338      	((3.556099e-05 -5.768623e-04 -5.800598e-04) (2.120941e-06 -1.418467e-04 -8.174115e-05)) ((1.207018e-08 8.568219e-10 1.567020e-09) (-5.328401e-06 -9.393677e-08 -2.786502e-08))
38.554108     	((3.860041e-05 -5.756457e-04 -5.695662e-04) (2.315954e-06 -1.415414e-04 -8.165685e-05)) ((1.208016e-08 9.232865e-10 1.564504e-09) (-5.320029e-06 -1.024542e-07 -3.049074e-08))
39.295132     	((4.197170e-05 -5.744272e-04 -5.592521e-04) (2.523587e-06 -1.412491e-04 -8.156553e-05)) ((1.208640e-08 9.961754e-10 1.561356e-09) (-5.312110e-06 -1.115538e-07 -3.335514e-08))
40.036453     	((4.559507e-05 -5.734773e-04 -5.492387e-04) (2.748185e-06 -1.409706e-04 -8.146792e-05)) ((1.209449e-08 1.072657e-09 1.557864e-09) (-5.304625e-06 -1.214191e-07 -3.643364e-08))
40.778082     	((4.956466e-05 -5.724879e-04 -5.394816e-04) (2.993173e-06 -1.407053e-04 -8.136583e-05)) ((1.209729e-08 1.156269e-09 1.553537e-09) (-5.297511e-06 -1.322163e-07 -3.970431e-08))
41.520001     	((5.383819e-05 -5.714644e-04 -5.298402e-04) (3.261966e-06 -1.404502e-04 -8.125944e-05)) ((1.209966e-08 1.243767e-09 1.548941e-09) (-5.290651e-06 -1.440383e-07 -4.304934e-08))
42.262191     	((5.842789e-05 -5.704690e-04 -5.203941e-04) (3.555046e-06 -1.402044e-04 -8.114506e-05)) ((1.210256e-08 1.335423e-09 1.543386e-09) (-5.284092e-06 -1.568322e-07 -4.647626e-08))
43.004648     	((6.339585e-05 -5.695842e-04 -5.112361e-04) (3.874122e-06 -1.399695e-04 -8.102197e-05)) ((1.210484e-08 1.432971e-09 1.537397e-09) (-5.277928e-06 -1.706551e-07 -5.004442e-08))
43.747364     	((6.880523e-05 -5.687196e-04 -5.023124e-04) (4.223177e-06 -1.397451e-04 -8.089464e-05)) ((1.210410e-08 1.537506e-09 1.530836e-09) (-5.272066e-06 -1.857065e-07 -5.369775e-08))
44.490333     	((7.466378e-05 -5.679040e-04 -4.937530e-04) (4.605497e-06 -1.395302e-04 -8.076578e-05)) ((1.210001e-08 1.648976e-09 1.523738e-09) (-5.266409e-06 -2.020789e-07 -5.741041e-08))
45.233545     	((8.101112e-05 -5.671722e-04 -4.855199e-04) (5.022475e-06 -1.393247e-04 -8.063701e-05)) ((1.209159e-08 1.766891e-09 1.516446e-09) (-5.260920e-06 -2.198662e-07 -6.130677e-08))
45.976982     	((8.800344e-05 -5.665877e-04 -4.774592e-04) (5.478519e-06 -1.391304e-04 -8.050884e-05)) ((1.207987e-08 1.895382e-09 1.508937e-09) (-5.255710e-06 -2.392845e-07 -6.544781e-08))
46.720623     	((9.563284e-05 -5.661584e-04 -4.696642e-04) (5.977052e-06 -1.389488e-04 -8.038307e-05)) ((1.206493e-08 2.033052e-09 1.501445e-09) (-5.250887e-06 -2.604519e-07 -6.981700e-08))
47.46444      	((1.039925e-04 -5.659344e-04 -4.620695e-04) (6.522841e-06 -1.387837e-04 -8.025975e-05)) ((1.204706e-08 2.180919e-09 1.494233e-09) (-5.246586e-06 -2.834623e-07 -7.432345e-08))
48.208411     	((1.131695e-04 -5.659888e-04 -4.547442e-04) (7.123074e-06 -1.386369e-04 -8.013917e-05)) ((1.202625e-08 2.341015e-09 1.486469e-09) (-5.242868e-06 -3.085547e-07 -7.893513e-08))
48.95209      	((1.232033e-04 -5.662991e-04 -4.477422e-04) (7.784309e-06 -1.385109e-04 -8.002414e-05)) ((1.200201e-08 2.515371e-09 1.478090e-09) (-5.239794e-06 -3.359993e-07 -8.369501e-08))
49.695346     	((1.341624e-04 -5.669049e-04 -4.409943e-04) (8.511503e-06 -1.384080e-04 -7.991838e-05)) ((1.197600e-08 2.705246e-09 1.469459e-09) (-5.237415e-06 -3.660538e-07 -8.861113e-08))
50.438115     	((1.460364e-04 -5.678516e-04 -4.346778e-04) (9.305318e-06 -1.383312e-04 -7.982082e-05)) ((1.195164e-08 2.911044e-09 1.459881e-09) (-5.235887e-06 -3.988456e-07 -9.389749e-08))
51.180337     	((1.588780e-04 -5.691819e-04 -4.288093e-04) (1.016772e-05 -1.382828e-04 -7.972597e-05)) ((1.193421e-08 3.130465e-09 1.448515e-09) (-5.235593e-06 -4.344936e-07 -9.971180e-08))
51.921955     	((1.728651e-04 -5.708036e-04 -4.232419e-04) (1.110346e-05 -1.382612e-04 -7.963416e-05)) ((1.192281e-08 3.367042e-09 1.436626e-09) (-5.236673e-06 -4.732431e-07 -1.061322e-07))
52.662909     	((1.882216e-04 -5.728002e-04 -4.178847e-04) (1.211974e-05 -1.382667e-04 -7.954783e-05)) ((1.191696e-08 3.622110e-09 1.423847e-09) (-5.239088e-06 -5.155152e-07 -1.133524e-07))
53.40313      	((2.049711e-04 -5.753789e-04 -4.128410e-04) (1.322660e-05 -1.383071e-04 -7.946414e-05)) ((1.191884e-08 3.894035e-09 1.408038e-09) (-5.243036e-06 -5.616907e-07 -1.213898e-07))
54.142551     	((2.229958e-04 -5.785584e-04 -4.081662e-04) (1.443412e-05 -1.383913e-04 -7.938307e-05)) ((1.192963e-08 4.184978e-09 1.388951e-09) (-5.248812e-06 -6.120464e-07 -1.299467e-07))
54.881101     	((2.423508e-04 -5.826061e-04 -4.040259e-04) (1.574825e-05 -1.385312e-04 -7.929925e-05)) ((1.195266e-08 4.499663e-09 1.366448e-09) (-5.256953e-06 -6.669196e-07 -1.389772e-07))
55.618767     	((2.629956e-04 -5.877111e-04 -4.006754e-04) (1.716944e-05 -1.387393e-04 -7.920566e-05)) ((1.199703e-08 4.833581e-09 1.340119e-09) (-5.267956e-06 -7.264315e-07 -1.485362e-07))
56.355504     	((2.850550e-04 -5.937812e-04 -3.979023e-04) (1.870582e-05 -1.390238e-04 -7.909665e-05)) ((1.205633e-08 5.183802e-09 1.309181e-09) (-5.282287e-06 -7.907267e-07 -1.585020e-07))
57.091295     	((3.085549e-04 -6.010271e-04 -3.960231e-04) (2.035547e-05 -1.393866e-04 -7.896782e-05)) ((1.212774e-08 5.545808e-09 1.275918e-09) (-5.300402e-06 -8.597043e-07 -1.694678e-07))
57.826167     	((3.332981e-04 -6.093952e-04 -3.949806e-04) (2.211184e-05 -1.398293e-04 -7.882947e-05)) ((1.220670e-08 5.918964e-09 1.241040e-09) (-5.322223e-06 -9.330642e-07 -1.817467e-07))
58.560169     	((3.593685e-04 -6.190394e-04 -3.948611e-04) (2.398026e-05 -1.403563e-04 -7.869260e-05)) ((1.229843e-08 6.296773e-09 1.207441e-09) (-5.347596e-06 -1.010715e-06 -1.950393e-07))
59.293355     	((3.868918e-04 -6.304055e-04 -3.959216e-04) (2.597081e-05 -1.409854e-04 -7.855555e-05)) ((1.241026e-08 6.683549e-09 1.176302e-09) (-5.376987e-06 -1.092782e-06 -2.089455e-07))
60.025246     	((4.154039e-04 -6.436197e-04 -3.979967e-04) (2.808233e-05 -1.417408e-04 -7.841093e-05)) ((1.254777e-08 7.068429e-09 1.147187e-09) (-5.411334e-06 -1.179079e-06 -2.228733e-07))
60.75548      	((4.448183e-04 -6.585691e-04 -4.012202e-04) (3.030625e-05 -1.426219e-04 -7.825846e-05)) ((1.270128e-08 7.450579e-09 1.118927e-09) (-5.450896e-06 -1.268746e-06 -2.371982e-07))
61.484031     	((4.747823e-04 -6.749473e-04 -4.053620e-04) (3.263528e-05 -1.436277e-04 -7.810360e-05)) ((1.286514e-08 7.835563e-09 1.091899e-09) (-5.495563e-06 -1.361230e-06 -2.519957e-07))
62.210904     	((5.045502e-04 -6.931918e-04 -4.116108e-04) (3.504399e-05 -1.447812e-04 -7.794494e-05)) ((1.305141e-08 8.200621e-09 1.070035e-09) (-5.545733e-06 -1.455952e-06 -2.672185e-07))
62.936139     	((5.342607e-04 -7.130029e-04 -4.188074e-04) (3.751844e-05 -1.461079e-04 -7.778912e-05)) ((1.326578e-08 8.565839e-09 1.057288e-09) (-5.601573e-06 -1.552719e-06 -2.817923e-07))
63.659455     	((5.632758e-04 -7.346887e-04 -4.277077e-04) (4.004197e-05 -1.476169e-04 -7.762147e-05)) ((1.351136e-08 8.914772e-09 1.052722e-09) (-5.663581e-06 -1.651133e-06 -2.949487e-07))
64.38071      	((5.906265e-04 -7.579707e-04 -4.378446e-04) (4.257440e-05 -1.492980e-04 -7.742838e-05)) ((1.378621e-08 9.222818e-09 1.061718e-09) (-5.731811e-06 -1.749490e-06 -3.072692e-07))
65.099881     	((6.149547e-04 -7.822901e-04 -4.499575e-04) (4.506810e-05 -1.511344e-04 -7.720790e-05)) ((1.408331e-08 9.468708e-09 1.084371e-09) (-5.805817e-06 -1.845560e-06 -3.184325e-07))
65.816918     	((6.355974e-04 -8.072690e-04 -4.633095e-04) (4.747942e-05 -1.531148e-04 -7.696061e-05)) ((1.441622e-08 9.647297e-09 1.115589e-09) (-5.884974e-06 -1.937327e-06 -3.268601e-07))
66.531972     	((6.517397e-04 -8.318536e-04 -4.779194e-04) (4.975580e-05 -1.552143e-04 -7.668710e-05)) ((1.477325e-08 9.763393e-09 1.152895e-09) (-5.968404e-06 -2.022927e-06 -3.315445e-07))
67.245325     	((6.622785e-04 -8.549482e-04 -4.929556e-04) (5.184794e-05 -1.573743e-04 -7.639025e-05)) ((1.513057e-08 9.801474e-09 1.193591e-09) (-6.054295e-06 -2.100011e-06 -3.319214e-07))
67.957128     	((6.658439e-04 -8.753930e-04 -5.082384e-04) (5.370232e-05 -1.595175e-04 -7.607495e-05)) ((1.547501e-08 9.740591e-09 1.238774e-09) (-6.140449e-06 -2.166357e-06 -3.268180e-07))
68.667509     	((6.602500e-04 -8.924735e-04 -5.250448e-04) (5.521007e-05 -1.616110e-04 -7.574626e-05)) ((1.581104e-08 9.541123e-09 1.283364e-09) (-6.224992e-06 -2.218168e-06 -3.151236e-07))
69.376675     	((6.450901e-04 -9.048452e-04 -5.422073e-04) (5.623943e-05 -1.636379e-04 -7.540005e-05)) ((1.612493e-08 9.199817e-09 1.322215e-09) (-6.306159e-06 -2.250710e-06 -2.963089e-07))
70.084849     	((6.203012e-04 -9.088031e-04 -5.580450e-04) (5.668632e-05 -1.654742e-04 -7.505174e-05)) ((1.631609e-08 8.753011e-09 1.355692e-09) (-6.379709e-06 -2.260718e-06 -2.714600e-07))
70.792258     	((5.829636e-04 -9.051794e-04 -5.748799e-04) (5.642672e-05 -1.669734e-04 -7.473565e-05)) ((1.639342e-08 8.141258e-09 1.376671e-09) (-6.440566e-06 -2.243764e-06 -2.412309e-07))
71.499192     	((5.304464e-04 -8.928683e-04 -5.930099e-04) (5.528091e-05 -1.680410e-04 -7.447153e-05)) ((1.639031e-08 7.294419e-09 1.371235e-09) (-6.484416e-06 -2.192699e-06 -2.066177e-07))
