# Forces      
# CofR        : (0.000000e+00 0.000000e+00 0.000000e+00)
# Time        forces(pressure viscous)	moments(pressure viscous)
0             	((0.000000e+00 0.000000e+00 0.000000e+00) (-6.190138e-09 -1.046900e-11 -6.346490e-04)) ((0.000000e+00 0.000000e+00 0.000000e+00) (1.096263e-12 -6.429541e-11 1.475770e-14))
0.012         	((-3.154135e-05 -1.445529e-05 -4.840074e-01) (-2.898766e-08 -1.383859e-08 -6.155767e-04)) ((2.413478e-09 -1.258010e-06 -6.936057e-11) (-1.113654e-09 2.255262e-09 -9.668768e-13))
0.0264        	((8.158058e-06 -1.586326e-06 3.711114e-02) (-3.767031e-08 -2.009597e-08 -5.789946e-04)) ((-6.162441e-10 8.206816e-08 4.340451e-10) (-1.524178e-09 2.433227e-09 4.749211e-11))
0.04368       	((1.773029e-05 2.859473e-05 6.015329e-02) (-3.882960e-08 -4.236846e-09 -5.177693e-04)) ((-1.517721e-09 1.307997e-07 -1.561762e-10) (2.977543e-10 -1.430567e-09 1.370045e-10))
0.064416      	((1.128208e-05 -1.433019e-06 1.156617e-02) (1.636128e-08 2.156060e-08 -4.631969e-04)) ((-3.340750e-10 4.230653e-08 -6.286945e-11) (1.950752e-09 -5.111461e-09 2.310582e-10))
0.0892992     	((6.303364e-06 5.446175e-06 6.579489e-03) (5.702503e-08 3.407934e-08 -4.286073e-04)) ((-1.116395e-10 2.340598e-08 -3.585394e-11) (2.477740e-09 -6.200209e-09 4.006256e-10))
0.119159      	((4.598050e-06 2.963482e-06 4.826196e-03) (4.957833e-08 2.890517e-08 -3.984334e-04)) ((-1.331961e-10 1.479001e-08 1.648605e-10) (2.455578e-09 -6.245454e-09 4.634720e-10))
0.154991      	((2.465123e-06 1.218091e-06 2.844221e-03) (4.583597e-08 1.813575e-08 -3.675534e-04)) ((-1.127705e-10 9.043176e-09 5.453780e-11) (1.907141e-09 -5.683356e-09 4.063576e-10))
0.197989      	((4.177050e-07 1.379827e-07 1.820303e-03) (4.626080e-08 1.040087e-08 -3.374174e-04)) ((-1.012417e-10 5.259419e-09 3.491775e-11) (1.420614e-09 -5.015367e-09 3.351246e-10))
0.249587      	((-4.603929e-08 -7.207826e-08 1.197121e-03) (4.280546e-08 3.984995e-09 -3.086965e-04)) ((-5.634703e-11 2.997164e-09 4.434934e-11) (1.004369e-09 -4.199895e-09 2.362224e-10))
0.311504      	((-1.620670e-07 -2.327774e-07 7.673293e-04) (2.552155e-08 2.204817e-09 -2.817720e-04)) ((-3.470322e-11 1.462752e-09 1.823825e-11) (6.485407e-10 -3.422921e-09 1.799127e-10))
0.385805      	((-5.451669e-07 -3.561322e-07 4.648863e-04) (6.849975e-09 2.605297e-09 -2.569139e-04)) ((-3.596988e-11 4.657259e-10 2.971435e-11) (3.401937e-10 -3.011697e-09 1.495717e-10))
0.474966      	((-3.881866e-07 -3.111471e-07 2.563146e-04) (2.714516e-09 1.207670e-09 -2.341084e-04)) ((-5.494152e-11 -1.201057e-10 4.766795e-12) (1.560331e-10 -2.672762e-09 1.293675e-10))
0.581959      	((-5.387108e-08 -8.003493e-09 1.139727e-04) (9.783439e-09 1.328955e-09 -2.130353e-04)) ((-6.600849e-11 -4.953227e-10 8.073960e-12) (1.684536e-10 -2.282798e-09 1.099183e-10))
0.710351      	((1.651699e-07 2.178991e-07 1.526803e-05) (1.512912e-08 4.460509e-09 -1.934579e-04)) ((-7.242549e-11 -7.385029e-10 1.702340e-11) (2.416409e-10 -2.029397e-09 8.337130e-11))
0.864421      	((4.377969e-08 2.016314e-07 -5.247497e-05) (1.428318e-08 6.053976e-09 -1.751572e-04)) ((-6.705222e-11 -9.005008e-10 1.877632e-11) (4.389163e-10 -2.000496e-09 5.505213e-11))
1.049306      	((-9.371667e-09 1.543912e-07 -1.011575e-04) (8.418705e-09 5.776063e-09 -1.581051e-04)) ((-5.600160e-11 -1.016869e-09 1.771939e-11) (8.104774e-10 -2.138805e-09 3.416480e-11))
1.271167      	((1.444481e-07 2.994653e-07 -1.363225e-04) (9.662756e-09 1.002065e-08 -1.424713e-04)) ((-2.766697e-11 -1.121510e-09 1.690494e-11) (1.347096e-09 -2.538958e-09 1.885146e-11))
1.5374        	((4.205716e-07 4.859944e-07 -1.640775e-04) (2.232480e-08 1.704798e-08 -1.284872e-04)) ((-1.540087e-11 -1.189263e-09 2.012155e-11) (1.860960e-09 -3.074108e-09 -3.132910e-12))
1.85688       	((4.741732e-07 5.089371e-07 -1.854182e-04) (3.181713e-08 1.929849e-08 -1.162857e-04)) ((5.911558e-13 -1.238105e-09 1.094333e-11) (1.906503e-09 -3.048046e-09 -2.372646e-11))
2.240256      	((3.695421e-07 4.294958e-07 -2.016762e-04) (3.195730e-08 1.731417e-08 -1.057896e-04)) ((8.732060e-12 -1.250419e-09 3.738971e-12) (1.703520e-09 -2.799486e-09 -3.809067e-11))
2.700307      	((4.070114e-07 4.690650e-07 -2.144041e-04) (3.077434e-08 1.669748e-08 -9.697550e-05)) ((4.762503e-12 -1.228499e-09 -5.963822e-13) (1.838920e-09 -2.998950e-09 -4.191358e-11))
3.252369      	((4.419165e-07 5.070473e-07 -2.246899e-04) (3.546990e-08 2.194260e-08 -8.982435e-05)) ((1.175368e-11 -1.197769e-09 9.388129e-13) (2.333480e-09 -3.507959e-09 -3.218757e-11))
3.914842      	((4.300644e-07 5.064996e-07 -2.347838e-04) (4.283432e-08 3.003092e-08 -8.419967e-05)) ((1.518850e-11 -1.163623e-09 1.268771e-12) (3.021124e-09 -4.096498e-09 -2.722101e-11))
4.709811      	((4.568074e-07 5.281419e-07 -2.458722e-04) (4.946736e-08 3.815032e-08 -7.993886e-05)) ((2.260422e-11 -1.129759e-09 6.462102e-13) (3.583433e-09 -4.545316e-09 -2.682120e-11))
5.663773      	((4.988702e-07 6.040407e-07 -2.557853e-04) (5.643629e-08 4.589565e-08 -7.679524e-05)) ((2.733405e-11 -1.087149e-09 1.116959e-12) (3.951054e-09 -5.074558e-09 -2.578383e-11))
6.808528      	((4.960367e-07 6.183675e-07 -2.621570e-04) (6.154565e-08 4.925930e-08 -7.444524e-05)) ((2.974096e-11 -1.037681e-09 2.984957e-13) (4.076846e-09 -5.484471e-09 -2.305427e-11))
8.182233      	((4.366870e-07 6.004867e-07 -2.665644e-04) (6.685281e-08 5.178550e-08 -7.277915e-05)) ((3.465512e-11 -9.849282e-10 5.598956e-13) (4.123559e-09 -5.735280e-09 -1.679646e-11))
9.83068       	((3.199899e-07 4.898722e-07 -2.677731e-04) (7.229230e-08 5.422740e-08 -7.173131e-05)) ((3.684917e-11 -9.266804e-10 1.002693e-12) (4.317920e-09 -6.151302e-09 -2.574737e-12))
11.808816     	((2.541423e-08 2.617491e-07 -2.659620e-04) (7.100299e-08 5.133169e-08 -7.111424e-05)) ((3.782579e-11 -8.661338e-10 1.645675e-12) (4.354099e-09 -6.412794e-09 -7.493674e-12))
14.156084     	((-2.848824e-07 6.744880e-09 -2.623004e-04) (6.605858e-08 4.604767e-08 -7.082385e-05)) ((4.123032e-11 -8.159284e-10 1.776572e-12) (4.257438e-09 -6.445099e-09 -2.008066e-11))
16.87429      	((-6.938891e-07 -3.173711e-07 -2.566916e-04) (5.443889e-08 3.787421e-08 -7.077241e-05)) ((4.735904e-11 -7.787280e-10 5.027888e-13) (4.037977e-09 -6.157125e-09 -2.166420e-11))
19.964864     	((-1.145820e-06 -6.974718e-07 -2.528708e-04) (3.236096e-08 2.230242e-08 -7.082342e-05)) ((5.636553e-11 -7.541715e-10 -1.052302e-12) (3.627455e-09 -5.504667e-09 -1.622948e-11))
23.428733     	((-1.682244e-06 -1.157601e-06 -2.524058e-04) (2.941640e-10 -3.301344e-09 -7.112283e-05)) ((6.119738e-11 -7.402654e-10 -1.153718e-12) (2.735246e-09 -4.168846e-09 9.623161e-13))
27.17129      	((-2.116346e-06 -1.500343e-06 -2.501898e-04) (-3.357120e-08 -2.963642e-08 -7.154812e-05)) ((6.364870e-11 -7.282915e-10 -4.929622e-13) (1.842832e-09 -2.793500e-09 8.992574e-13))
30.922141     	((-2.514118e-06 -1.809612e-06 -2.443179e-04) (-6.791065e-08 -5.492602e-08 -7.176932e-05)) ((6.519230e-11 -7.183321e-10 2.495467e-13) (1.102218e-09 -1.587989e-09 -2.228760e-12))
34.676965     	((-2.779324e-06 -2.004301e-06 -2.376068e-04) (-1.020392e-07 -7.968780e-08 -7.176722e-05)) ((6.455036e-11 -7.055502e-10 1.510983e-12) (3.819787e-10 -4.658859e-10 -9.585986e-12))
38.43375      	((-2.983016e-06 -2.169651e-06 -2.318395e-04) (-1.311634e-07 -1.002787e-07 -7.165995e-05)) ((6.429703e-11 -6.935352e-10 2.041226e-12) (-2.289127e-10 4.405305e-10 -1.993276e-11))
42.192314     	((-3.195601e-06 -2.348344e-06 -2.275061e-04) (-1.554865e-07 -1.183143e-07 -7.153300e-05)) ((6.543079e-11 -6.850134e-10 2.085830e-12) (-7.416972e-10 1.136138e-09 -2.419879e-11))
45.952767     	((-3.454576e-06 -2.568156e-06 -2.245785e-04) (-1.740904e-07 -1.325887e-07 -7.143380e-05)) ((6.838925e-11 -6.806755e-10 2.015190e-12) (-1.063416e-09 1.536168e-09 -2.751456e-11))
49.715323     	((-3.793087e-06 -2.856049e-06 -2.226084e-04) (-1.892479e-07 -1.444343e-07 -7.137559e-05)) ((7.169361e-11 -6.784150e-10 1.674968e-12) (-1.211716e-09 1.714151e-09 -2.867955e-11))
53.480288     	((-4.235119e-06 -3.229299e-06 -2.210955e-04) (-2.051313e-07 -1.568957e-07 -7.135111e-05)) ((7.611462e-11 -6.791250e-10 1.753806e-12) (-1.285933e-09 1.826419e-09 -2.899750e-11))
57.247569     	((-4.782144e-06 -3.676779e-06 -2.197606e-04) (-2.249363e-07 -1.725017e-07 -7.134563e-05)) ((8.187481e-11 -6.824159e-10 1.995114e-12) (-1.416480e-09 2.005955e-09 -2.773561e-11))
