# Forces      
# CofR        : (0.000000e+00 0.000000e+00 0.000000e+00)
# Time        forces(pressure viscous)	moments(pressure viscous)
0             	((0.000000e+00 0.000000e+00 0.000000e+00) (0.000000e+00 0.000000e+00 0.000000e+00)) ((0.000000e+00 0.000000e+00 0.000000e+00) (0.000000e+00 0.000000e+00 0.000000e+00))
0.012         	((1.444655e-04 -1.675002e-05 -2.836084e-03) (9.466054e-08 -4.858673e-08 -1.561107e-06)) ((3.559043e-08 2.019184e-03 -8.545533e-08) (-1.505860e-08 2.839445e-01 -3.356733e-09))
0.0264        	((-9.316705e-04 -4.727193e-05 2.990617e-03) (-2.666647e-07 -9.674438e-08 -2.226226e-06)) ((4.616822e-08 1.045005e-03 -8.008711e-08) (-1.251433e-08 2.829939e-01 4.093844e-09))
0.04368       	((5.078210e-04 2.410114e-04 -6.039445e-04) (-8.404164e-07 -9.220137e-08 -2.371013e-06)) ((7.528718e-08 7.479370e-04 9.307718e-09) (1.062384e-08 2.814187e-01 2.074725e-08))
0.064416      	((-5.688470e-04 -1.068438e-04 7.017014e-04) (-1.310204e-06 -2.625938e-08 -2.544985e-06)) ((-2.676198e-08 5.826429e-04 -4.231439e-08) (4.160038e-08 2.795599e-01 2.448749e-08))
0.0892992     	((-3.437980e-05 -1.578612e-05 -2.215254e-04) (-1.822483e-06 7.300321e-08 -2.800910e-06)) ((3.829081e-08 5.491808e-04 -2.700662e-09) (8.387982e-08 2.773685e-01 1.622844e-08))
0.119159      	((-1.753638e-06 -3.685322e-05 1.108356e-04) (-2.391385e-06 2.158244e-07 -3.141561e-06)) ((1.746575e-08 5.101560e-04 -2.021938e-08) (1.241972e-07 2.747962e-01 -2.259495e-09))
0.154991      	((6.482307e-05 -6.380865e-05 2.860166e-05) (-2.845538e-06 3.785223e-07 -3.402906e-06)) ((2.271779e-10 4.893545e-04 -4.084663e-09) (1.585039e-07 2.717967e-01 -1.424596e-08))
0.197989      	((3.566432e-05 -6.815692e-05 3.120526e-04) (-3.212635e-06 5.390582e-07 -3.625599e-06)) ((2.248038e-08 4.670006e-04 -2.488842e-08) (1.913346e-07 2.683327e-01 -1.819019e-08))
0.249587      	((3.790630e-05 -1.381350e-05 2.223013e-04) (-3.449272e-06 6.465071e-07 -4.200475e-06)) ((3.814863e-08 4.482585e-04 -7.789536e-09) (2.449525e-07 2.643848e-01 3.137616e-09))
0.311504      	((-1.021796e-04 -6.345750e-05 2.187023e-04) (-3.612045e-06 6.320824e-07 -5.322312e-06)) ((8.344317e-08 4.288970e-04 -3.117730e-08) (3.032211e-07 2.599636e-01 5.837729e-08))
0.385805      	((5.918509e-05 -2.007552e-05 1.072207e-04) (-3.901004e-06 5.392684e-07 -6.832714e-06)) ((7.342547e-08 4.089918e-04 -3.666094e-08) (3.360041e-07 2.551216e-01 1.167922e-07))
0.474966      	((-1.396293e-05 -4.173373e-05 1.299402e-04) (-4.314481e-06 4.060219e-07 -8.556068e-06)) ((5.971286e-08 3.883006e-04 -3.060450e-08) (3.485167e-07 2.499608e-01 1.619390e-07))
0.581959      	((4.991961e-05 4.372811e-06 1.980808e-04) (-4.673565e-06 3.020594e-07 -1.024267e-05)) ((3.714452e-08 3.664253e-04 -1.828495e-08) (3.492810e-07 2.446258e-01 1.731476e-07))
0.710351      	((-1.631285e-05 -1.385437e-05 1.144973e-04) (-4.891746e-06 2.097162e-07 -1.147284e-05)) ((2.766844e-08 3.451929e-04 -9.702318e-09) (3.267412e-07 2.392689e-01 1.586840e-07))
0.864421      	((-1.646950e-05 2.378032e-05 1.177720e-04) (-4.888940e-06 1.456700e-07 -1.230295e-05)) ((2.662426e-08 3.264337e-04 -5.418245e-09) (3.044334e-07 2.339971e-01 1.501726e-07))
1.049306      	((-2.009321e-04 1.734909e-05 2.849159e-05) (-4.516701e-06 8.971098e-08 -1.354540e-05)) ((1.982239e-08 3.091242e-04 -1.044781e-08) (2.974862e-07 2.288247e-01 1.317584e-07))
1.271167      	((-1.824642e-04 1.333544e-05 1.447463e-04) (-4.805097e-06 -3.796393e-08 -1.431852e-05)) ((1.058677e-08 2.914694e-04 -1.488021e-08) (3.082031e-07 2.235089e-01 9.879797e-08))
1.5374        	((6.203056e-05 1.280575e-05 -1.474702e-06) (-5.799047e-06 -2.588401e-07 -1.445170e-05)) ((5.601490e-09 2.734023e-04 -3.024442e-09) (2.931413e-07 2.177206e-01 1.122727e-07))
1.85688       	((-1.529705e-05 7.406469e-06 1.158828e-04) (-7.212035e-06 -3.729725e-07 -1.381894e-05)) ((-1.487028e-08 2.572679e-04 1.797678e-08) (2.603080e-07 2.113897e-01 1.179225e-07))
2.240256      	((-1.398939e-04 -1.343667e-05 1.577646e-05) (-8.154660e-06 -4.039877e-07 -1.484811e-05)) ((-2.426402e-08 2.458251e-04 2.614854e-08) (2.889493e-07 2.046733e-01 6.032170e-08))
2.700307      	((-7.026655e-05 7.690430e-06 -6.271671e-05) (-9.683212e-06 -4.571083e-07 -1.475644e-05)) ((-1.928693e-08 2.391358e-04 2.349555e-08) (3.188704e-07 1.977880e-01 -1.712091e-08))
3.252369      	((1.306600e-07 5.127323e-05 -7.149903e-06) (-1.234897e-05 -4.403128e-07 -1.119804e-05)) ((1.323279e-08 2.328245e-04 9.321166e-09) (3.003595e-07 1.909380e-01 -8.990570e-08))
3.914842      	((4.800701e-05 4.517136e-05 1.779168e-04) (-1.572744e-05 -3.235365e-07 -9.216555e-06)) ((4.457073e-08 2.241897e-04 -2.232913e-08) (4.015578e-07 1.843083e-01 -1.680428e-07))
4.698512      	((1.973735e-04 -3.087785e-05 1.599766e-04) (-2.011639e-05 -6.524284e-07 -8.451993e-06)) ((2.101873e-08 2.131431e-04 -1.196665e-08) (6.036166e-07 1.780410e-01 -2.740259e-07))
5.603596      	((4.098044e-04 -8.961989e-05 4.481349e-04) (-2.330994e-05 -9.683817e-07 -4.829316e-06)) ((1.745526e-08 2.010130e-04 -3.888984e-08) (6.815211e-07 1.721270e-01 -4.253942e-07))
6.630436      	((3.069090e-04 -7.798143e-05 6.370127e-04) (-2.236485e-05 -1.857845e-06 1.446152e-06)) ((-2.725539e-08 1.904882e-04 1.163027e-09) (4.901390e-07 1.665136e-01 -4.449853e-07))
7.779608      	((7.097389e-05 -1.378855e-04 7.662981e-04) (-1.190933e-05 -1.537872e-06 7.215616e-06)) ((-8.524697e-08 1.806128e-04 4.399389e-08) (2.583279e-07 1.612525e-01 -6.872608e-07))
9.009425      	((7.307990e-04 -1.878520e-05 1.019018e-03) (9.508145e-06 -1.957945e-06 8.072173e-06)) ((-1.344984e-07 1.709831e-04 6.292407e-08) (1.788030e-07 1.565983e-01 -9.641026e-07))
10.249419     	((9.331888e-04 1.403123e-04 1.077187e-03) (1.435980e-05 -1.605408e-06 7.055837e-06)) ((-1.483832e-07 1.622895e-04 1.015010e-07) (-8.737246e-08 1.527484e-01 -1.013176e-06))
11.50245      	((9.032913e-04 1.381136e-04 1.080891e-03) (1.902103e-05 -1.828534e-06 6.084957e-06)) ((-1.355980e-07 1.543821e-04 9.092723e-08) (-4.600132e-07 1.495678e-01 -9.655170e-07))
12.763464     	((1.154974e-03 1.202097e-04 1.155644e-03) (2.339353e-05 -3.192497e-06 5.717745e-06)) ((-1.590202e-07 1.481382e-04 1.236987e-07) (-9.552086e-07 1.469846e-01 -1.174222e-06))
14.032692     	((1.000412e-03 8.606500e-05 1.355523e-03) (2.379436e-05 -8.093074e-06 5.457236e-06)) ((-2.125003e-07 1.418392e-04 8.573644e-08) (-1.861935e-06 1.449215e-01 -1.047972e-06))
15.31179      	((1.300264e-03 1.146288e-04 1.598556e-03) (3.552115e-05 -7.374627e-06 8.677411e-06)) ((-2.191485e-07 1.366169e-04 9.382342e-08) (-2.675895e-06 1.432953e-01 -3.877255e-07))
16.597418     	((1.712144e-03 2.277789e-04 1.662887e-03) (4.183025e-05 -6.027420e-06 1.177466e-05)) ((-2.330776e-07 1.332983e-04 1.803801e-08) (-3.212610e-06 1.420285e-01 2.327068e-07))
17.884366     	((1.408551e-03 2.732770e-04 1.702781e-03) (3.582150e-05 -4.643940e-06 5.198026e-06)) ((-1.180465e-07 1.314803e-04 -2.220873e-07) (-3.735670e-06 1.410519e-01 6.402226e-07))
19.172549     	((7.406506e-04 2.545409e-04 1.689597e-03) (1.419391e-05 -1.163635e-06 4.674045e-06)) ((-9.379328e-08 1.302821e-04 -2.329979e-07) (-3.936944e-06 1.403327e-01 7.631794e-07))
20.462236     	((4.115729e-04 2.107801e-04 1.807843e-03) (-1.528547e-05 -1.317672e-06 2.100039e-05)) ((-1.037292e-07 1.290701e-04 -2.165999e-07) (-4.076355e-06 1.398581e-01 8.479905e-07))
21.753876     	((7.479811e-04 1.328525e-04 1.856945e-03) (-1.496355e-05 1.176975e-06 2.820461e-05)) ((-6.551092e-08 1.283126e-04 -2.974154e-07) (-4.284613e-06 1.395763e-01 1.754031e-06))
23.047748     	((1.472012e-03 3.320493e-04 2.062392e-03) (-3.365609e-06 1.466714e-06 3.908532e-05)) ((-6.915549e-08 1.271520e-04 -2.402401e-07) (-3.912263e-06 1.394690e-01 2.224057e-06))
24.343831     	((1.783458e-03 2.933893e-04 2.270646e-03) (9.416985e-06 6.976914e-07 4.437718e-05)) ((-4.954823e-09 1.257750e-04 -4.398280e-09) (-3.465397e-06 1.395632e-01 2.263848e-06))
25.642196     	((2.137202e-03 2.308889e-04 2.088071e-03) (1.047857e-05 -8.518578e-07 3.647582e-05)) ((1.278989e-07 1.245149e-04 6.156059e-08) (-3.279934e-06 1.398600e-01 2.672793e-06))
26.943139     	((1.633317e-03 1.138335e-04 1.925441e-03) (-1.400222e-05 -1.992392e-06 3.315299e-05)) ((2.363980e-08 1.237609e-04 7.379054e-08) (-3.227881e-06 1.403488e-01 2.871840e-06))
28.246969     	((1.691783e-03 5.629780e-05 1.827723e-03) (-2.123413e-05 1.851577e-06 3.707086e-05)) ((7.319405e-08 1.236518e-04 1.842910e-07) (-2.882045e-06 1.410147e-01 4.079284e-06))
29.553849     	((1.784405e-03 -1.310500e-04 1.822760e-03) (-1.553477e-05 5.076461e-06 2.046091e-05)) ((1.064083e-07 1.242685e-04 -1.076012e-07) (-2.608034e-06 1.418460e-01 6.366166e-06))
30.863603     	((2.317097e-03 -3.518626e-04 1.534113e-03) (-1.786634e-05 6.646264e-06 -2.682066e-06)) ((-4.055123e-08 1.249790e-04 -1.135566e-07) (-2.107586e-06 1.428305e-01 7.505652e-06))
32.175447     	((2.612995e-03 -6.031575e-04 1.451435e-03) (-2.088601e-05 1.063442e-05 -2.677598e-05)) ((-2.179792e-07 1.261066e-04 -9.782189e-08) (-8.605958e-07 1.439294e-01 6.736869e-06))
33.489132     	((2.763512e-03 -6.990290e-04 8.853715e-04) (-2.677619e-05 1.400377e-05 -4.611582e-05)) ((-3.175518e-07 1.282168e-04 1.526079e-08) (5.433653e-07 1.450865e-01 5.221878e-06))
34.804475     	((2.829491e-03 -6.852791e-04 9.057368e-04) (-3.187209e-05 1.442049e-05 -5.716900e-05)) ((-3.404038e-07 1.297889e-04 1.313019e-09) (1.206542e-06 1.462220e-01 3.434797e-06))
36.121017     	((2.467546e-03 -7.080067e-04 1.262152e-03) (-5.354534e-05 1.460649e-05 -6.749401e-05)) ((-3.110268e-07 1.318069e-04 6.711081e-08) (1.388634e-06 1.472757e-01 1.383179e-06))
37.437791     	((1.942577e-03 -5.928863e-04 6.459309e-04) (-5.564314e-05 1.195602e-05 -6.286134e-05)) ((-2.334656e-07 1.336205e-04 1.306190e-07) (8.268348e-07 1.482113e-01 -6.232590e-07))
