# Forces      
# CofR        : (0.000000e+00 0.000000e+00 0.000000e+00)
# Time        forces(pressure viscous)	moments(pressure viscous)
0             	((0.000000e+00 0.000000e+00 0.000000e+00) (0.000000e+00 0.000000e+00 0.000000e+00)) ((0.000000e+00 0.000000e+00 0.000000e+00) (0.000000e+00 0.000000e+00 0.000000e+00))
0.012         	((-4.107600e-04 -9.644676e-03 -9.952845e-06) (-1.035953e-06 -5.395413e-07 -4.875354e-08)) ((2.507642e-05 1.384888e-06 -7.390219e-03) (1.425012e-06 3.837064e-09 -1.258388e+00))
0.0264        	((-1.377779e-03 7.442096e-03 2.137611e-04) (-3.555108e-06 -2.254650e-06 -1.807659e-06)) ((1.741491e-05 4.922312e-06 -4.734315e-03) (1.069202e-06 -6.282974e-07 -1.983367e+00))
0.04368       	((-8.698045e-04 -4.203762e-03 1.177928e-03) (-5.685732e-06 -1.919092e-06 -5.026382e-06)) ((2.286503e-05 3.432075e-06 -4.354098e-03) (3.129433e-06 -3.236954e-06 -1.962327e+00))
0.064416      	((-2.001954e-03 1.700150e-03 -1.373099e-03) (-8.569866e-06 1.868432e-06 -8.810236e-06)) ((1.773679e-05 3.956883e-06 -3.977476e-03) (5.812371e-06 -7.009094e-06 -1.932549e+00))
0.0892992     	((1.623450e-03 3.753428e-05 1.276090e-04) (-1.229290e-05 5.595319e-06 -1.223256e-05)) ((1.797446e-05 3.675477e-06 -3.880542e-03) (7.180014e-06 -1.195873e-05 -1.898635e+00))
0.119159      	((-1.403817e-06 6.457171e-05 -7.812136e-05) (-1.767529e-05 8.616140e-06 -1.548115e-05)) ((1.648883e-05 4.754383e-06 -3.672399e-03) (6.479028e-06 -1.894714e-05 -1.860818e+00))
0.154991      	((-2.838805e-04 1.030088e-03 -4.397667e-04) (-2.137202e-05 9.451936e-06 -1.826366e-05)) ((1.573061e-05 5.415728e-06 -3.535241e-03) (5.547624e-06 -2.673687e-05 -1.819972e+00))
0.197989      	((-1.983265e-04 -4.782783e-04 2.581979e-04) (-2.195500e-05 9.953777e-06 -1.942739e-05)) ((1.445221e-05 5.155624e-06 -3.336863e-03) (4.335974e-06 -3.414463e-05 -1.777558e+00))
0.249587      	((1.815547e-04 7.687889e-04 -1.005039e-04) (-2.040763e-05 1.158979e-05 -1.951473e-05)) ((1.375920e-05 4.251904e-06 -3.167497e-03) (2.806581e-06 -4.030933e-05 -1.735408e+00))
0.311504      	((2.053854e-04 -1.536969e-04 2.325170e-04) (-1.715301e-05 1.416132e-05 -1.869697e-05)) ((1.394980e-05 4.358875e-06 -2.989382e-03) (2.766173e-06 -4.194053e-05 -1.695053e+00))
0.385805      	((-3.079404e-04 5.343817e-04 1.074353e-04) (-1.287959e-05 1.765421e-05 -1.737954e-05)) ((1.302872e-05 3.872421e-06 -2.843848e-03) (5.007944e-06 -3.948282e-05 -1.656972e+00))
0.474966      	((-1.210564e-04 -2.547075e-04 2.955199e-04) (-8.555322e-06 2.037417e-05 -1.663561e-05)) ((1.148984e-05 3.076649e-06 -2.707105e-03) (1.049366e-05 -3.524836e-05 -1.619974e+00))
0.581959      	((1.180680e-06 3.125056e-04 1.380863e-04) (-5.647533e-06 1.921618e-05 -1.680182e-05)) ((1.117407e-05 1.843492e-06 -2.562014e-03) (1.676603e-05 -3.214333e-05 -1.580712e+00))
0.710351      	((4.648689e-04 -1.912711e-04 -3.036942e-05) (-6.613517e-06 1.582894e-05 -1.735467e-05)) ((1.083011e-05 8.171742e-07 -2.419131e-03) (1.976042e-05 -2.685280e-05 -1.537355e+00))
0.864421      	((-4.641275e-05 2.585145e-04 1.303472e-05) (-4.467415e-06 1.333123e-05 -1.822484e-05)) ((9.889345e-06 1.042267e-08 -2.311327e-03) (1.336782e-05 -1.583236e-05 -1.491167e+00))
1.049306      	((-1.676752e-04 -3.619221e-04 1.058323e-04) (-3.761184e-06 1.158748e-05 -1.904440e-05)) ((1.044212e-05 -3.973406e-07 -2.249156e-03) (-4.805446e-06 -4.460152e-06 -1.444094e+00))
1.271167      	((-9.013990e-04 -9.937300e-04 1.400399e-04) (-4.634123e-06 1.663902e-05 -1.683676e-05)) ((1.016866e-05 1.125391e-07 -2.206151e-03) (-2.788248e-05 1.348345e-05 -1.397758e+00))
1.531225      	((-2.137822e-03 -9.716889e-04 5.753986e-05) (-1.107116e-05 2.911274e-05 -1.144349e-05)) ((9.308074e-06 7.624033e-07 -2.147325e-03) (-5.048549e-05 3.709396e-05 -1.354251e+00))
1.829589      	((-1.665781e-03 -2.326946e-04 -2.968955e-04) (-1.657733e-05 4.210271e-05 -8.225201e-06)) ((8.376476e-06 -5.476300e-07 -2.071137e-03) (-7.337853e-05 5.033106e-05 -1.314196e+00))
2.166306      	((9.653422e-04 1.600288e-03 -8.052426e-04) (-9.256921e-06 5.701394e-05 -8.187490e-06)) ((7.871069e-06 -9.657842e-07 -1.981137e-03) (-8.498311e-05 5.307284e-05 -1.276758e+00))
2.541479      	((2.047130e-03 3.638538e-03 -1.076234e-03) (1.619184e-05 8.559194e-05 -2.761269e-06)) ((8.089281e-06 3.225409e-07 -1.898288e-03) (-7.840566e-05 5.404687e-05 -1.241284e+00))
2.927314      	((1.453613e-03 4.672398e-03 -1.001041e-03) (5.106106e-05 9.505494e-05 5.791958e-06)) ((8.751915e-06 1.470461e-06 -1.850297e-03) (-5.621293e-05 6.813825e-05 -1.209646e+00))
3.314757      	((2.574014e-03 5.643221e-03 -1.427884e-03) (3.668952e-05 8.036736e-05 5.049295e-06)) ((6.973134e-06 7.233087e-07 -1.806405e-03) (-2.373806e-05 7.781746e-05 -1.181780e+00))
3.704501      	((2.528489e-03 6.929583e-03 -2.272773e-04) (3.345257e-05 9.306816e-05 1.183930e-05)) ((8.300986e-06 8.071451e-07 -1.755198e-03) (7.855032e-06 7.667793e-05 -1.157443e+00))
4.097055      	((1.710899e-03 1.202609e-02 5.753806e-04) (1.913920e-06 1.125853e-04 9.636652e-06)) ((1.011439e-05 1.117909e-06 -1.705848e-03) (3.406421e-05 5.797975e-05 -1.136491e+00))
4.492836      	((1.099048e-03 1.462377e-02 -3.782340e-04) (1.167713e-05 1.300307e-04 -8.270502e-06)) ((1.092811e-05 1.132272e-06 -1.659072e-03) (4.380824e-05 2.366656e-05 -1.118660e+00))
4.890398      	((4.103549e-03 1.390020e-02 1.914721e-04) (5.501448e-07 1.141455e-04 -2.125423e-05)) ((1.208923e-05 2.735257e-06 -1.614240e-03) (3.281858e-05 -6.423320e-06 -1.103760e+00))
5.290092      	((-1.266727e-04 1.130518e-02 -6.130884e-05) (-5.335563e-05 1.377921e-04 -2.763195e-05)) ((1.071517e-05 5.855022e-06 -1.568334e-03) (1.536739e-05 -3.599934e-05 -1.091513e+00))
5.692157      	((-1.085106e-03 1.508596e-02 4.068857e-04) (-6.453680e-05 2.164210e-04 -1.386366e-05)) ((1.168079e-05 4.138125e-06 -1.526964e-03) (-1.129800e-05 -6.622338e-05 -1.081518e+00))
6.096714      	((-1.657961e-04 1.573187e-02 5.131622e-04) (-4.109543e-05 2.689340e-04 -5.610632e-06)) ((8.345735e-06 3.204592e-06 -1.494802e-03) (-3.640507e-05 -6.349800e-05 -1.073462e+00))
6.503162      	((1.116602e-03 1.387957e-02 8.807721e-04) (-5.225466e-06 2.205151e-04 1.639195e-06)) ((6.323816e-06 3.555010e-06 -1.471024e-03) (-3.288671e-05 -3.534035e-05 -1.067099e+00))
6.909836      	((3.555810e-03 1.054432e-02 5.437062e-04) (-4.208770e-05 1.421591e-04 1.724843e-05)) ((6.452900e-06 3.675598e-06 -1.452508e-03) (-1.783882e-05 -1.685838e-05 -1.062296e+00))
7.31678       	((2.674760e-03 1.241643e-02 6.209032e-04) (-5.621763e-05 2.318074e-04 2.939010e-05)) ((8.907397e-06 1.908796e-06 -1.439127e-03) (-8.976904e-06 -1.143066e-05 -1.058873e+00))
7.724129      	((1.304110e-03 1.271940e-02 1.237638e-03) (-7.462119e-05 3.491211e-04 2.215867e-05)) ((8.769306e-06 1.394844e-06 -1.427122e-03) (3.117888e-06 -1.485184e-05 -1.056658e+00))
8.131989      	((3.580840e-03 1.551963e-02 1.236403e-03) (-6.771716e-05 4.066804e-04 5.551696e-06)) ((6.622161e-06 4.825087e-07 -1.412785e-03) (1.332224e-05 -2.852384e-05 -1.055574e+00))
8.540386      	((4.491417e-03 1.807272e-02 1.492021e-03) (-2.744487e-05 4.740263e-04 2.653794e-06)) ((6.407148e-06 -1.301072e-06 -1.400186e-03) (1.725892e-05 -3.400718e-05 -1.055515e+00))
8.949255      	((4.890742e-03 1.607375e-02 2.068344e-03) (-2.278636e-05 4.038495e-04 6.101959e-06)) ((1.010250e-05 -1.988005e-06 -1.390372e-03) (2.083396e-05 -3.122175e-05 -1.056497e+00))
9.358674      	((9.969321e-03 1.479626e-02 2.447732e-03) (2.363110e-05 4.212847e-04 1.053313e-05)) ((9.113758e-06 -1.612834e-06 -1.383243e-03) (1.946334e-05 -3.235985e-05 -1.058653e+00))
9.768696      	((1.269876e-02 1.477647e-02 1.544530e-03) (9.053986e-05 4.036235e-04 1.846064e-05)) ((7.986376e-06 -2.355617e-06 -1.378354e-03) (2.324498e-05 -3.137348e-05 -1.061988e+00))
10.17939      	((1.473272e-02 1.165956e-02 1.302866e-03) (1.821694e-04 2.504938e-04 2.599037e-05)) ((7.552821e-06 -3.576102e-06 -1.378463e-03) (2.775468e-05 -2.640711e-05 -1.066377e+00))
10.590804     	((1.788389e-02 1.075373e-02 -3.992999e-04) (1.534962e-04 1.033058e-04 4.142764e-05)) ((5.842051e-06 -2.934032e-06 -1.384111e-03) (2.547054e-05 -2.222014e-05 -1.071706e+00))
11.002813     	((1.682973e-02 7.812200e-03 -1.880787e-03) (6.393997e-06 -9.519778e-05 5.305494e-05)) ((9.576180e-06 -3.264130e-06 -1.388072e-03) (2.698235e-05 -2.375012e-05 -1.077868e+00))
11.415294     	((1.709951e-02 9.978580e-03 -3.386166e-03) (-1.395336e-04 -2.336655e-04 5.180057e-05)) ((8.700196e-06 -4.734870e-06 -1.397324e-03) (2.867631e-05 -2.435892e-05 -1.084701e+00))
11.828263     	((1.918802e-02 9.330989e-03 -6.238605e-03) (-3.084348e-04 -3.077240e-04 3.214353e-05)) ((8.873467e-06 -5.648179e-06 -1.415572e-03) (2.732206e-05 -1.847962e-05 -1.091966e+00))
