# Forces      
# CofR        : (0.000000e+00 0.000000e+00 0.000000e+00)
# Time        forces(pressure viscous)	moments(pressure viscous)
0             	((0.000000e+00 0.000000e+00 0.000000e+00) (-9.972925e-12 -1.000018e-01 -6.183109e-12)) ((0.000000e+00 0.000000e+00 0.000000e+00) (3.013579e-09 -4.778949e-13 -1.335757e-08))
0.012         	((-2.804281e-03 -2.910406e+03 -2.190232e-03) (-2.138460e-07 -3.974576e-01 1.172225e-08)) ((7.541372e-05 4.919442e-06 -4.859576e-04) (-4.360229e-07 -3.145972e-09 4.044684e-07))
0.0264        	((-4.389136e-03 2.575843e+02 -5.904889e-02) (-7.729735e-07 -4.547201e-01 -1.961810e-06)) ((-4.666459e-06 3.102598e-07 4.389261e-05) (-5.552671e-07 -1.043193e-08 7.102931e-07))
0.04368       	((-5.608973e-03 5.848592e+02 8.028954e-02) (-1.206930e-06 -4.022294e-01 -3.801087e-07)) ((-2.966585e-05 2.757712e-07 1.156062e-04) (2.188961e-06 -1.716114e-08 -1.998591e-06))
0.064416      	((-8.588952e-03 8.527013e+00 -1.473528e-04) (6.402180e-07 -3.635263e-01 3.344421e-06)) ((3.504352e-06 1.216659e-06 -3.390537e-06) (2.580846e-06 -1.195086e-07 -2.699850e-06))
0.0892992     	((5.656260e-03 -2.542213e+00 -2.071487e-02) (-1.059879e-06 -3.546671e-01 -2.720004e-07)) ((2.824527e-06 -4.891538e-06 -2.779412e-06) (5.333355e-07 -3.062917e-07 -5.952585e-07))
0.119159      	((-5.866286e-03 1.502605e+01 -5.557669e-03) (-3.059783e-06 -3.484173e-01 -2.714017e-06)) ((1.174322e-06 3.142312e-06 1.575758e-06) (-3.639445e-07 -2.805188e-07 4.613346e-07))
0.154991      	((2.421413e-03 6.955754e+00 2.467431e-03) (-2.986407e-06 -3.410252e-01 -1.314509e-06)) ((1.841345e-08 -1.061359e-06 1.458887e-07) (-1.024790e-06 -7.958890e-08 1.209767e-06))
0.197989      	((-8.411606e-04 2.610196e+00 -1.169747e-04) (-4.183940e-06 -3.337805e-01 -2.118198e-06)) ((-7.905374e-07 1.128503e-06 9.402330e-07) (-1.564847e-06 4.987175e-08 1.773967e-06))
0.249587      	((-1.137618e-03 1.668864e+00 -8.712100e-04) (-1.283660e-07 -3.270070e-01 -5.478300e-06)) ((-2.045140e-07 8.644894e-07 4.546771e-07) (-1.837292e-06 -2.765531e-08 1.946401e-06))
0.311504      	((5.647465e-04 8.569710e-01 -2.091369e-03) (2.827740e-06 -3.204720e-01 -9.870418e-06)) ((2.119045e-09 -7.474464e-11 5.763447e-08) (-2.283541e-06 -1.719817e-07 2.693664e-06))
0.385805      	((-7.802305e-04 2.997043e-01 -2.203696e-03) (-2.383178e-06 -3.138079e-01 -1.089844e-05)) ((4.849241e-07 4.542550e-07 -2.125280e-06) (-2.192026e-06 -2.447320e-07 3.288075e-06))
0.474966      	((-1.699981e-04 3.767761e-02 -1.589548e-03) (-1.342278e-06 -3.069162e-01 -9.960730e-06)) ((1.024378e-07 6.440623e-07 -1.239488e-06) (-1.459199e-06 -2.939144e-07 3.518380e-06))
0.581959      	((-4.589082e-04 -1.041006e-01 -1.172670e-03) (-8.460669e-07 -2.996786e-01 -1.257761e-05)) ((3.197098e-07 5.508501e-07 -1.375270e-06) (-1.629952e-06 -4.427093e-07 2.911804e-06))
0.710351      	((2.699623e-04 -1.954252e-01 -1.608054e-03) (-4.570699e-06 -2.920886e-01 -9.755995e-06)) ((3.071898e-07 7.710174e-07 -3.672608e-07) (-1.578638e-06 -6.049670e-07 2.362696e-06))
0.864421      	((-1.277993e-03 -2.540059e-01 -4.365683e-05) (-9.978381e-06 -2.841910e-01 -3.834063e-06)) ((-8.326218e-08 1.255398e-06 -1.353535e-06) (-7.300603e-07 -4.217548e-07 1.320359e-06))
1.049306      	((-4.986757e-04 -2.936464e-01 -6.071460e-04) (-2.307025e-05 -2.760554e-01 -9.099049e-06)) ((-4.565611e-07 1.115553e-06 -9.548394e-07) (-6.074677e-07 -2.532055e-07 -8.230630e-07))
1.271167      	((-3.231344e-03 -3.128557e-01 -9.493690e-04) (-3.829531e-05 -2.678269e-01 -1.104401e-05)) ((-6.145634e-08 1.240461e-06 -6.332394e-07) (3.996320e-07 -1.326879e-07 -3.822700e-06))
1.5374        	((-2.224009e-03 -3.242808e-01 -8.902572e-04) (-3.096281e-05 -2.597214e-01 -1.009913e-05)) ((8.505887e-08 7.841591e-07 2.046225e-07) (-5.745813e-07 2.055935e-08 -6.758758e-06))
1.85688       	((-2.912363e-04 -3.247582e-01 5.038703e-05) (3.166619e-06 -2.520441e-01 8.914669e-06)) ((5.502477e-07 4.609573e-07 1.282407e-07) (-3.004229e-06 -7.470973e-07 -6.812768e-06))
2.240256      	((2.022245e-03 -3.242153e-01 1.114658e-03) (1.072917e-05 -2.450069e-01 1.772115e-05)) ((-3.428315e-07 1.811470e-06 7.046334e-07) (-4.413222e-06 -6.413090e-07 -6.585731e-06))
2.700307      	((7.275829e-06 -3.247281e-01 8.496755e-04) (5.938639e-07 -2.387896e-01 2.334879e-05)) ((-2.551864e-07 2.266016e-06 4.803546e-08) (-5.100600e-06 6.257979e-08 -4.698887e-06))
3.252369      	((-1.609906e-04 -3.302769e-01 4.707788e-04) (5.298331e-07 -2.333641e-01 2.406875e-05)) ((-3.158481e-07 1.639821e-06 -3.242677e-07) (-6.760059e-06 5.597644e-07 -9.016317e-07))
3.914842      	((-8.936500e-04 -3.445434e-01 1.190363e-04) (-1.226579e-05 -2.286455e-01 2.327845e-05)) ((3.730615e-07 1.469790e-06 -6.940793e-07) (-7.094016e-06 6.265508e-07 -2.164482e-07))
4.709811      	((2.967895e-04 -3.687891e-01 4.199857e-04) (-7.294771e-06 -2.246218e-01 1.977773e-05)) ((3.260316e-07 1.252108e-06 -3.426744e-08) (-5.762301e-06 5.467387e-07 -2.323745e-06))
5.663773      	((2.931725e-05 -4.015030e-01 3.934526e-04) (-1.109904e-06 -2.213883e-01 1.710619e-05)) ((-1.442268e-07 1.109991e-06 5.533587e-08) (-4.091698e-06 6.473607e-07 5.559374e-09))
6.783664      	((-8.160880e-05 -4.417521e-01 -2.548224e-05) (-1.824993e-06 -2.189228e-01 8.472226e-06)) ((3.698063e-07 1.399037e-06 -1.792278e-07) (-4.627878e-06 3.375894e-07 2.561144e-06))
8.069229      	((-3.203619e-04 -4.871230e-01 -5.398320e-04) (-6.724377e-06 -2.171825e-01 -2.945444e-06)) ((-4.903476e-08 1.227434e-06 -8.527826e-08) (-5.268815e-06 4.258829e-07 3.411615e-06))
9.520517      	((2.816095e-04 -5.317541e-01 1.531642e-04) (-1.596675e-07 -2.161804e-01 5.176942e-06)) ((8.938165e-08 1.332794e-06 -1.030036e-07) (-3.839669e-06 9.004067e-07 4.183554e-06))
11.13729      	((1.818707e-04 -5.719348e-01 -1.508394e-04) (-4.349218e-07 -2.158163e-01 1.770084e-06)) ((1.667569e-07 1.476212e-06 3.204089e-08) (-4.088284e-06 1.363662e-06 5.174652e-06))
12.781251     	((4.323356e-04 -6.086148e-01 2.904622e-04) (-5.040225e-07 -2.157593e-01 4.385933e-06)) ((3.212381e-08 1.381202e-06 7.236226e-08) (-5.000510e-06 1.620994e-06 5.143772e-06))
14.41355      	((1.236751e-03 -6.418468e-01 6.849383e-04) (5.174961e-06 -2.155878e-01 4.222777e-06)) ((1.113192e-07 1.475591e-06 2.007120e-07) (-3.838120e-06 1.722074e-06 2.584305e-06))
16.037394     	((1.665564e-03 -6.693657e-01 1.049614e-03) (5.030247e-06 -2.150619e-01 3.031019e-06)) ((-3.509700e-09 1.353422e-06 1.596768e-07) (-1.658042e-06 1.538985e-06 -1.118829e-07))
17.655124     	((2.110637e-03 -6.854768e-01 1.724729e-03) (6.534303e-08 -2.141604e-01 2.375690e-06)) ((9.888504e-08 1.355311e-06 1.475318e-07) (1.203934e-06 1.355688e-06 -2.564709e-06))
19.271331     	((2.637730e-03 -6.972153e-01 2.071397e-03) (-4.359446e-06 -2.130617e-01 -1.541488e-06)) ((1.635136e-07 1.435781e-06 1.229546e-07) (3.474174e-06 1.330557e-06 -4.577388e-06))
20.890855     	((3.718063e-03 -7.032697e-01 2.837101e-03) (7.930926e-06 -2.119693e-01 6.035117e-06)) ((2.524849e-07 1.199976e-06 2.065703e-08) (4.558716e-06 1.478679e-06 -6.655563e-06))
22.514651     	((4.029284e-03 -7.058270e-01 3.284001e-03) (8.910775e-06 -2.109693e-01 1.120473e-05)) ((2.598864e-07 1.277612e-06 6.911936e-08) (4.270476e-06 1.594820e-06 -6.942523e-06))
24.140993     	((4.173281e-03 -7.040951e-01 3.782930e-03) (2.960669e-07 -2.100538e-01 1.264825e-05)) ((2.087230e-07 1.357373e-06 2.263195e-07) (3.210850e-06 1.629886e-06 -4.982389e-06))
25.768264     	((5.810027e-03 -6.984459e-01 4.560915e-03) (1.598734e-05 -2.092438e-01 1.768215e-05)) ((2.352127e-07 1.191402e-06 2.066299e-07) (3.825206e-06 1.602725e-06 -8.079590e-06))
27.39609      	((5.957352e-03 -6.918544e-01 5.150410e-03) (9.103985e-06 -2.085259e-01 1.899439e-05)) ((1.481513e-07 1.179916e-06 1.657431e-07) (5.294780e-06 1.450969e-06 -1.185866e-05))
29.024876     	((5.899570e-03 -6.870986e-01 5.778840e-03) (-5.870112e-06 -2.078596e-01 1.927887e-05)) ((1.382309e-07 1.239533e-06 3.968526e-07) (6.668225e-06 1.267790e-06 -1.133710e-05))
30.6549       	((8.690082e-03 -6.830860e-01 6.925573e-03) (1.593296e-05 -2.072694e-01 2.214545e-05)) ((2.032724e-07 1.310034e-06 3.520343e-07) (9.067314e-06 1.142941e-06 -1.624945e-05))
32.286051     	((9.184924e-03 -6.819638e-01 7.930466e-03) (5.032211e-07 -2.067327e-01 2.428707e-05)) ((1.991271e-07 1.202526e-06 1.289694e-07) (1.249582e-05 9.671032e-07 -2.102283e-05))
33.918106     	((9.714966e-03 -6.814136e-01 9.192372e-03) (-1.621819e-05 -2.062194e-01 2.366461e-05)) ((2.322937e-07 1.266390e-06 3.204078e-07) (1.710807e-05 8.306703e-07 -2.454050e-05))
35.550937     	((1.353223e-02 -6.805071e-01 1.065544e-02) (1.557262e-05 -2.057552e-01 2.126346e-05)) ((2.819824e-07 1.375525e-06 3.846767e-07) (2.325751e-05 7.562020e-07 -3.585125e-05))
37.184507     	((1.503780e-02 -6.788152e-01 1.243672e-02) (-3.656786e-06 -2.053320e-01 1.898022e-05)) ((3.054518e-07 1.274966e-06 7.975928e-08) (3.077019e-05 5.152989e-07 -4.452688e-05))
38.818438     	((1.627903e-02 -6.770666e-01 1.458690e-02) (-2.866951e-05 -2.049441e-01 1.638484e-05)) ((3.583033e-07 1.315185e-06 2.424886e-07) (3.937258e-05 3.764114e-07 -5.138911e-05))
40.452646     	((2.189065e-02 -6.760841e-01 1.715211e-02) (1.050756e-05 -2.046033e-01 1.348072e-05)) ((4.259123e-07 1.372586e-06 3.887219e-07) (4.882185e-05 3.830053e-07 -6.755360e-05))
42.087101     	((2.505538e-02 -6.758926e-01 2.012298e-02) (-1.687103e-06 -2.042949e-01 1.372751e-05)) ((4.523765e-07 1.317258e-06 2.375583e-08) (5.903003e-05 2.790988e-07 -8.061961e-05))
43.721773     	((2.732081e-02 -6.760437e-01 2.361945e-02) (-2.722088e-05 -2.040064e-01 1.770613e-05)) ((5.173950e-07 1.383160e-06 1.945406e-07) (6.970472e-05 2.031132e-07 -8.869130e-05))
45.356631     	((3.476751e-02 -6.763647e-01 2.762562e-02) (1.898830e-05 -2.037473e-01 2.191066e-05)) ((6.330317e-07 1.364725e-06 4.229544e-07) (8.022886e-05 2.022234e-07 -1.047607e-04))
46.991641     	((3.995882e-02 -6.762923e-01 3.217493e-02) (2.722309e-05 -2.035136e-01 3.319088e-05)) ((6.620813e-07 1.359022e-06 1.033056e-07) (9.176645e-05 3.048359e-07 -1.217278e-04))
48.626767     	((4.368582e-02 -6.757593e-01 3.737274e-02) (4.903620e-06 -2.032873e-01 4.965309e-05)) ((7.066148e-07 1.428318e-06 2.648794e-07) (1.051218e-04 4.413198e-07 -1.318857e-04))
50.26198      	((5.295653e-02 -6.751098e-01 4.268116e-02) (5.555341e-05 -2.030818e-01 5.905694e-05)) ((7.943871e-07 1.331233e-06 5.867182e-07) (1.177843e-04 5.637886e-07 -1.502266e-04))
51.897248     	((6.084744e-02 -6.747340e-01 4.918558e-02) (8.019424e-05 -2.028974e-01 7.817031e-05)) ((8.281112e-07 1.360847e-06 3.405590e-07) (1.332671e-04 7.316381e-07 -1.736936e-04))
53.532541     	((6.697646e-02 -6.741343e-01 5.625066e-02) (5.729763e-05 -2.027087e-01 9.532577e-05)) ((9.025735e-07 1.395646e-06 4.184292e-07) (1.517208e-04 8.612281e-07 -1.900990e-04))
55.167827     	((7.926080e-02 -6.738830e-01 6.410530e-02) (1.126462e-04 -2.025399e-01 1.092206e-04)) ((1.012473e-06 1.311139e-06 7.708664e-07) (1.709288e-04 9.419174e-07 -2.162212e-04))
56.803075     	((9.106746e-02 -6.735370e-01 7.382949e-02) (1.555652e-04 -2.023916e-01 1.383923e-04)) ((1.086676e-06 1.272713e-06 6.391488e-07) (1.949977e-04 1.041388e-06 -2.497900e-04))
58.43825      	((1.010582e-01 -6.727197e-01 8.348062e-02) (1.377136e-04 -2.022327e-01 1.555048e-04)) ((1.210629e-06 1.315038e-06 6.214420e-07) (2.213047e-04 1.123153e-06 -2.764995e-04))
60.073314     	((1.172682e-01 -6.726062e-01 9.496969e-02) (1.928243e-04 -2.020982e-01 1.772242e-04)) ((1.356543e-06 1.309499e-06 9.511767e-07) (2.494653e-04 1.192536e-06 -3.136481e-04))
61.708227     	((1.345421e-01 -6.728754e-01 1.094046e-01) (2.544251e-04 -2.019891e-01 2.209194e-04)) ((1.524253e-06 1.082900e-06 9.420260e-07) (2.854812e-04 1.254864e-06 -3.616833e-04))
63.342946     	((1.507896e-01 -6.729120e-01 1.231603e-01) (2.542729e-04 -2.018627e-01 2.382254e-04)) ((1.726919e-06 1.181883e-06 8.133413e-07) (3.244733e-04 1.310384e-06 -4.070631e-04))
64.977423     	((1.727813e-01 -6.739765e-01 1.403629e-01) (3.024869e-04 -2.017599e-01 2.718708e-04)) ((1.997313e-06 1.173102e-06 9.981357e-07) (3.682040e-04 1.297809e-06 -4.634414e-04))
66.611603     	((1.979008e-01 -6.754345e-01 1.614756e-01) (3.786653e-04 -2.016913e-01 3.341577e-04)) ((2.313195e-06 8.593514e-07 1.042341e-06) (4.239482e-04 1.327921e-06 -5.342612e-04))
68.245423     	((2.236699e-01 -6.764050e-01 1.820013e-01) (4.071365e-04 -2.016040e-01 3.585159e-04)) ((2.670651e-06 1.022987e-06 8.933277e-07) (4.831041e-04 1.427546e-06 -6.066422e-04))
69.878815     	((2.544310e-01 -6.781735e-01 2.076634e-01) (4.583540e-04 -2.015443e-01 4.124266e-04)) ((3.083704e-06 9.444499e-07 1.028211e-06) (5.494804e-04 1.398904e-06 -6.893415e-04))
71.511699     	((2.907174e-01 -6.803700e-01 2.379746e-01) (5.571562e-04 -2.015322e-01 4.956759e-04)) ((3.535729e-06 6.489697e-07 1.138512e-06) (6.299932e-04 1.372474e-06 -7.892754e-04))
73.143992     	((3.293870e-01 -6.819676e-01 2.683695e-01) (6.256506e-04 -2.015071e-01 5.330305e-04)) ((4.102869e-06 8.590602e-07 1.090468e-06) (7.145691e-04 1.325943e-06 -8.947833e-04))
74.775357     	((3.725141e-01 -6.853039e-01 3.050841e-01) (6.974452e-04 -2.015106e-01 6.131097e-04)) ((4.763734e-06 6.550463e-07 1.294589e-06) (8.094004e-04 9.417836e-07 -1.009840e-03))
76.405384     	((4.228837e-01 -6.907472e-01 3.462276e-01) (8.305212e-04 -2.015740e-01 7.158078e-04)) ((5.427607e-06 2.866275e-07 1.437080e-06) (9.190158e-04 7.712024e-07 -1.144569e-03))
78.03391      	((4.761243e-01 -6.967568e-01 3.889813e-01) (9.456981e-04 -2.016326e-01 7.859420e-04)) ((6.222477e-06 2.711957e-07 1.471336e-06) (1.035686e-03 8.772031e-07 -1.289690e-03))
79.660753     	((5.331312e-01 -7.057063e-01 4.376898e-01) (1.060892e-03 -2.017241e-01 9.040891e-04)) ((6.967963e-06 -3.061520e-07 1.904533e-06) (1.163550e-03 5.085462e-07 -1.444385e-03))
81.285779     	((5.977773e-01 -7.189671e-01 4.899064e-01) (1.246322e-03 -2.018933e-01 1.040012e-03)) ((7.601447e-06 -7.934039e-07 2.375885e-06) (1.305048e-03 -5.901349e-08 -1.617234e-03))
82.908903     	((6.640089e-01 -7.348406e-01 5.442147e-01) (1.421697e-03 -2.020919e-01 1.175505e-03)) ((8.317656e-06 -8.486921e-07 3.076231e-06) (1.453937e-03 -9.320838e-07 -1.799402e-03))
84.530101     	((7.336872e-01 -7.540407e-01 6.014719e-01) (1.601233e-03 -2.023322e-01 1.336439e-03)) ((8.539874e-06 -1.629062e-06 4.390010e-06) (1.608654e-03 -2.288231e-06 -1.985895e-03))
86.149226     	((8.085120e-01 -7.776384e-01 6.614378e-01) (1.863416e-03 -2.026598e-01 1.519060e-03)) ((8.314859e-06 -2.509468e-06 5.876888e-06) (1.772249e-03 -2.548071e-06 -2.187906e-03))
87.766111     	((8.810192e-01 -8.057847e-01 7.214368e-01) (2.122405e-03 -2.030510e-01 1.727985e-03)) ((8.036452e-06 -2.646234e-06 7.310291e-06) (1.944209e-03 -2.329391e-06 -2.397000e-03))
89.380672     	((9.516036e-01 -8.379625e-01 7.781497e-01) (2.359405e-03 -2.034730e-01 1.919616e-03)) ((7.399211e-06 -3.199912e-06 9.104840e-06) (2.116743e-03 -2.194477e-06 -2.601886e-03))
90.992929     	((1.020132e+00 -8.750016e-01 8.318187e-01) (2.651073e-03 -2.039774e-01 2.138012e-03)) ((6.616855e-06 -3.925404e-06 1.076074e-05) (2.290039e-03 -1.007532e-06 -2.817842e-03))
92.602714     	((1.078726e+00 -9.150299e-01 8.779453e-01) (2.941463e-03 -2.045546e-01 2.384225e-03)) ((5.600986e-06 -4.098085e-06 1.254849e-05) (2.458913e-03 9.949739e-07 -3.030836e-03))
94.210055     	((1.122967e+00 -9.537021e-01 9.110697e-01) (3.199586e-03 -2.051593e-01 2.595283e-03)) ((4.307897e-06 -4.272637e-06 1.474186e-05) (2.605546e-03 3.699769e-06 -3.220899e-03))
95.815095     	((1.149101e+00 -9.868906e-01 9.296505e-01) (3.473485e-03 -2.058067e-01 2.828290e-03)) ((2.219540e-06 -4.742102e-06 1.715104e-05) (2.721165e-03 6.594134e-06 -3.379902e-03))
97.418029     	((1.152236e+00 -1.016038e+00 9.288944e-01) (3.740189e-03 -2.064773e-01 3.065211e-03)) ((-4.246669e-07 -4.557813e-06 1.972423e-05) (2.796978e-03 9.506863e-06 -3.492030e-03))
99.019089     	((1.130763e+00 -1.037536e+00 9.082951e-01) (3.945561e-03 -2.071140e-01 3.232046e-03)) ((-3.069615e-06 -3.923867e-06 2.181209e-05) (2.830706e-03 1.258924e-05 -3.554349e-03))
100.618638    	((1.086026e+00 -1.049352e+00 8.701309e-01) (4.043791e-03 -2.077003e-01 3.307546e-03)) ((-5.807672e-06 -3.242840e-06 2.334261e-05) (2.840589e-03 1.414521e-05 -3.579404e-03))
102.217053    	((1.023339e+00 -1.049944e+00 8.187908e-01) (3.995193e-03 -2.082339e-01 3.258829e-03)) ((-9.073549e-06 -2.326236e-06 2.471468e-05) (2.836229e-03 1.315587e-05 -3.582503e-03))
103.814695    	((9.491255e-01 -1.038983e+00 7.591227e-01) (3.783180e-03 -2.086771e-01 3.085390e-03)) ((-1.181398e-05 -1.039802e-06 2.560481e-05) (2.820100e-03 1.078483e-05 -3.574394e-03))
105.412065    	((8.709878e-01 -1.020408e+00 6.990969e-01) (3.425234e-03 -2.090401e-01 2.810179e-03)) ((-1.407140e-05 -1.605320e-07 2.655672e-05) (2.792564e-03 9.563664e-06 -3.554564e-03))
107.009711    	((8.034660e-01 -9.974221e-01 6.478995e-01) (2.993080e-03 -2.093632e-01 2.479625e-03)) ((-1.499202e-05 -6.017899e-08 2.699085e-05) (2.755624e-03 1.010707e-05 -3.520614e-03))
108.608057    	((7.536005e-01 -9.726705e-01 6.102855e-01) (2.548958e-03 -2.096473e-01 2.129955e-03)) ((-1.468238e-05 1.891096e-07 2.644519e-05) (2.715345e-03 1.179344e-05 -3.476288e-03))
110.207405    	((7.281008e-01 -9.474749e-01 5.906764e-01) (2.130887e-03 -2.098853e-01 1.796726e-03)) ((-1.268878e-05 -4.738167e-07 2.473181e-05) (2.680239e-03 1.231941e-05 -3.431871e-03))
111.807931    	((7.260069e-01 -9.260502e-01 5.894840e-01) (1.808916e-03 -2.101035e-01 1.530954e-03)) ((-9.488157e-06 -2.126745e-06 2.237628e-05) (2.649389e-03 9.821506e-06 -3.385734e-03))
113.409591    	((7.396712e-01 -9.065929e-01 5.996339e-01) (1.623143e-03 -2.103090e-01 1.355689e-03)) ((-6.399046e-06 -3.949480e-06 2.082063e-05) (2.617828e-03 4.371381e-06 -3.331709e-03))
115.01224     	((7.608673e-01 -8.868276e-01 6.167224e-01) (1.592815e-03 -2.104991e-01 1.302706e-03)) ((-4.569084e-06 -5.724804e-06 2.006479e-05) (2.578100e-03 -9.063411e-07 -3.261942e-03))
116.615684    	((7.834500e-01 -8.667130e-01 6.346916e-01) (1.724573e-03 -2.106894e-01 1.388874e-03)) ((-3.181680e-06 -7.472369e-06 1.974407e-05) (2.517402e-03 -4.209400e-07 -3.162949e-03))
118.219648    	((7.969914e-01 -8.467265e-01 6.440144e-01) (1.941070e-03 -2.108528e-01 1.543991e-03)) ((-2.091153e-06 -8.392338e-06 1.883291e-05) (2.445980e-03 6.436703e-06 -3.053398e-03))
119.82387     	((7.935206e-01 -8.301765e-01 6.389808e-01) (2.130612e-03 -2.109706e-01 1.684704e-03)) ((-1.520873e-06 -8.118460e-06 1.735679e-05) (2.385165e-03 1.434438e-05 -2.964833e-03))
121.428181    	((7.707003e-01 -8.205596e-01 6.217926e-01) (2.207777e-03 -2.110585e-01 1.743199e-03)) ((-1.653522e-06 -7.016989e-06 1.656174e-05) (2.344407e-03 1.914582e-05 -2.907906e-03))
123.032472    	((7.325836e-01 -8.170664e-01 5.918120e-01) (2.186022e-03 -2.111326e-01 1.717351e-03)) ((-3.068158e-06 -5.530793e-06 1.689933e-05) (2.306675e-03 2.061657e-05 -2.860684e-03))
124.636734    	((6.821785e-01 -8.205828e-01 5.525110e-01) (2.088003e-03 -2.111932e-01 1.638035e-03)) ((-6.792525e-06 -3.187173e-06 1.836045e-05) (2.262836e-03 2.218848e-05 -2.812313e-03))
126.241047    	((6.211292e-01 -8.232008e-01 5.057590e-01) (1.925357e-03 -2.112398e-01 1.516607e-03)) ((-1.105189e-05 2.703484e-08 1.965558e-05) (2.209303e-03 2.270067e-05 -2.747686e-03))
127.845568    	((5.570022e-01 -8.248534e-01 4.574435e-01) (1.712220e-03 -2.112703e-01 1.354366e-03)) ((-1.434782e-05 2.209255e-06 2.070634e-05) (2.144464e-03 2.046890e-05 -2.660029e-03))
129.450503    	((4.989775e-01 -8.273128e-01 4.144761e-01) (1.453113e-03 -2.112701e-01 1.138450e-03)) ((-1.642855e-05 4.082292e-06 2.052760e-05) (2.082459e-03 1.703329e-05 -2.572512e-03))
131.056046    	((4.522158e-01 -8.295063e-01 3.814352e-01) (1.158342e-03 -2.111929e-01 8.964628e-04)) ((-1.607923e-05 5.009409e-06 1.930586e-05) (2.039486e-03 1.528037e-05 -2.509128e-03))
132.662343    	((4.258608e-01 -8.326285e-01 3.644017e-01) (7.973137e-04 -2.110906e-01 6.408952e-04)) ((-1.472632e-05 4.908030e-06 1.787165e-05) (2.022105e-03 1.644135e-05 -2.480790e-03))
134.269516    	((4.197470e-01 -8.359576e-01 3.606793e-01) (4.028072e-04 -2.109639e-01 3.447798e-04)) ((-1.336545e-05 4.777545e-06 1.670746e-05) (2.043432e-03 1.725642e-05 -2.504666e-03))
135.877633    	((4.311135e-01 -8.278474e-01 3.729132e-01) (4.176763e-05 -2.107968e-01 6.257319e-05)) ((-1.082319e-05 4.491227e-06 1.464179e-05) (2.097775e-03 1.639398e-05 -2.569015e-03))
137.486624    	((4.574124e-01 -8.150542e-01 3.989586e-01) (-2.587747e-04 -2.106305e-01 -1.652488e-04)) ((-7.148143e-06 2.962997e-06 1.183217e-05) (2.177377e-03 1.148620e-05 -2.644624e-03))
139.096352    	((4.932578e-01 -7.981968e-01 4.306010e-01) (-4.134838e-04 -2.104946e-01 -3.073760e-04)) ((-3.617866e-06 8.309192e-07 9.687653e-06) (2.249119e-03 3.133746e-06 -2.697136e-03))
140.706643    	((5.383612e-01 -7.805070e-01 4.694879e-01) (-3.332969e-04 -2.103811e-01 -2.814912e-04)) ((-4.115447e-07 -1.686607e-06 8.134176e-06) (2.283797e-03 -5.613006e-06 -2.702763e-03))
142.31727     	((5.850894e-01 -7.631962e-01 5.109449e-01) (-8.990257e-05 -2.102945e-01 -8.639665e-05)) ((2.241324e-06 -4.588640e-06 7.424144e-06) (2.284388e-03 -1.088030e-05 -2.667644e-03))
143.92798     	((6.270495e-01 -7.504370e-01 5.466510e-01) (2.146191e-04 -2.102399e-01 1.678241e-04)) ((3.623243e-06 -6.764988e-06 7.939759e-06) (2.268625e-03 -1.195690e-05 -2.625333e-03))
