# Forces      
# CofR        : (0.000000e+00 0.000000e+00 0.000000e+00)
# Time        forces(pressure viscous)	moments(pressure viscous)
0             	((0.000000e+00 0.000000e+00 0.000000e+00) (0.000000e+00 0.000000e+00 0.000000e+00)) ((0.000000e+00 0.000000e+00 0.000000e+00) (0.000000e+00 0.000000e+00 0.000000e+00))
0.012         	((1.109611e-06 -1.927579e-07 -2.279975e-05) (-1.579661e-10 -1.398169e-10 -2.066627e-09)) ((2.444653e-10 1.466977e-05 -6.246523e-10) (-3.814645e-11 7.566660e-04 1.953443e-12))
0.0264        	((-6.374675e-06 -2.456114e-07 2.509818e-05) (-8.233394e-10 -2.294203e-10 -2.877129e-09)) ((-2.087070e-10 6.501798e-06 -3.487127e-10) (-3.387188e-11 7.559418e-04 1.711279e-11))
0.04368       	((3.683745e-06 7.796513e-07 -4.628839e-06) (-1.373685e-09 -2.194141e-10 -3.112794e-09)) ((3.249948e-10 3.347707e-06 2.498456e-10) (7.386379e-12 7.550858e-04 4.832408e-11))
0.064416      	((-1.496207e-06 -4.611168e-07 5.842240e-06) (-1.499667e-09 -1.796427e-10 -3.038390e-09)) ((-2.064840e-10 1.508538e-06 -1.849852e-10) (4.931197e-11 7.540606e-04 8.357665e-11))
0.0892992     	((-1.589714e-07 5.374670e-07 -8.303619e-07) (-1.550590e-09 -1.601503e-10 -2.992697e-09)) ((2.496592e-10 9.961642e-07 8.925204e-11) (8.036727e-11 7.528325e-04 1.276821e-10))
0.119159      	((-8.641212e-07 1.240089e-07 1.996591e-06) (-1.550022e-09 -2.112821e-10 -3.117934e-09)) ((1.635514e-10 6.779280e-07 4.469709e-11) (9.129707e-11 7.513631e-04 1.802617e-10))
0.154991      	((-3.402036e-07 5.958367e-07 -8.988499e-07) (-1.392770e-09 -3.283875e-10 -3.362025e-09)) ((3.162760e-10 5.520103e-07 1.278716e-10) (1.101921e-10 7.496062e-04 2.181181e-10))
0.197989      	((-1.067518e-06 3.929177e-08 -4.872398e-07) (-1.158298e-09 -4.372672e-10 -3.782124e-09)) ((2.261128e-10 4.589442e-07 1.067865e-10) (1.487881e-10 7.475071e-04 2.510247e-10))
0.249587      	((-3.203848e-07 2.043452e-07 -4.006413e-07) (-1.008688e-09 -5.492187e-10 -4.104478e-09)) ((2.639967e-10 3.919523e-07 1.485873e-10) (1.783255e-10 7.450011e-04 2.866928e-10))
0.311504      	((-2.790289e-07 4.623032e-08 -3.881889e-07) (-1.018648e-09 -7.056492e-10 -4.406347e-09)) ((2.372391e-10 3.374670e-07 3.720077e-11) (2.007513e-10 7.420117e-04 3.220703e-10))
0.385805      	((1.148661e-07 3.613966e-08 -3.522371e-07) (-9.592185e-10 -8.135653e-10 -4.691080e-09)) ((3.618871e-10 2.913687e-07 1.567370e-11) (2.335896e-10 7.384495e-04 3.596268e-10))
0.474966      	((1.221636e-09 1.305524e-07 -1.878709e-07) (-7.899880e-10 -8.454853e-10 -4.914910e-09)) ((2.672549e-10 2.511200e-07 -1.858894e-11) (2.834596e-10 7.342108e-04 3.958367e-10))
0.581959      	((1.550368e-07 1.014787e-07 -5.073817e-08) (-7.013458e-10 -8.821669e-10 -5.043790e-09)) ((1.391370e-10 2.178354e-07 1.300488e-11) (3.266350e-10 7.291761e-04 4.334313e-10))
0.710351      	((1.903314e-08 8.971760e-08 -6.058196e-08) (-7.742665e-10 -9.665940e-10 -4.989235e-09)) ((5.792231e-11 1.896440e-07 -3.344304e-11) (3.424742e-10 7.232084e-04 4.841435e-10))
0.864421      	((1.745844e-07 1.552532e-07 3.711440e-08) (-8.963401e-10 -1.091091e-09 -4.745386e-09)) ((5.764297e-11 1.649310e-07 -5.267787e-11) (3.288819e-10 7.161533e-04 5.313406e-10))
1.049306      	((1.658035e-07 1.409568e-07 2.453927e-08) (-1.043712e-09 -1.243280e-09 -4.366795e-09)) ((3.433628e-11 1.422299e-07 -8.496866e-11) (2.871980e-10 7.078388e-04 5.611878e-10))
1.271167      	((2.907130e-07 1.241621e-07 7.417127e-08) (-1.206869e-09 -1.379246e-09 -3.945077e-09)) ((4.028971e-11 1.199928e-07 -9.350742e-11) (2.295285e-10 6.980782e-04 5.749766e-10))
1.5374        	((1.802959e-07 1.104535e-07 1.656148e-08) (-1.361812e-09 -1.467106e-09 -3.570303e-09)) ((3.875881e-11 9.961977e-08 -7.845962e-11) (1.662501e-10 6.866739e-04 5.804087e-10))
1.85688       	((1.642174e-07 3.545182e-08 1.109122e-08) (-1.489186e-09 -1.494654e-09 -3.251662e-09)) ((3.189129e-11 8.359833e-08 -3.393360e-11) (9.888361e-11 6.734263e-04 5.783853e-10))
2.240256      	((8.478666e-08 3.051212e-08 1.382427e-08) (-1.558490e-09 -1.518885e-09 -2.898604e-09)) ((2.880931e-11 7.241442e-08 -4.921583e-11) (3.516688e-11 6.581474e-04 5.654078e-10))
2.700307      	((1.109491e-07 4.261189e-08 -1.812903e-08) (-1.555208e-09 -1.575568e-09 -2.543907e-09)) ((1.338635e-11 6.506230e-08 -3.323132e-11) (-3.056276e-11 6.406794e-04 5.657126e-10))
3.252369      	((3.136853e-08 3.342895e-08 2.643723e-09) (-1.474000e-09 -1.683013e-09 -2.242072e-09)) ((-1.821761e-12 6.023868e-08 -4.462738e-11) (-1.151956e-10 6.209204e-04 5.774356e-10))
3.914842      	((7.459729e-08 2.285693e-08 -2.117143e-08) (-1.236338e-09 -1.822097e-09 -1.965988e-09)) ((-3.854736e-12 5.693375e-08 -4.520076e-11) (-2.138133e-10 5.988578e-04 5.998570e-10))
4.709811      	((1.836411e-08 1.807270e-08 -2.297524e-08) (-7.459452e-10 -1.847375e-09 -1.558829e-09)) ((-2.346297e-12 5.430068e-08 -4.420322e-11) (-2.914251e-10 5.746042e-04 6.213313e-10))
5.663773      	((4.593508e-08 9.754959e-09 -5.244364e-08) (-1.228185e-10 -1.755513e-09 -1.141580e-09)) ((1.644736e-11 5.190150e-08 -3.697190e-11) (-3.455708e-10 5.484274e-04 6.274094e-10))
6.808528      	((2.503813e-08 1.725720e-08 -3.391775e-08) (7.062945e-10 -1.579614e-09 -9.923214e-10)) ((1.404162e-11 4.932704e-08 -3.290356e-11) (-3.749434e-10 5.207628e-04 6.245257e-10))
8.182233      	((2.910586e-08 -4.696037e-09 -4.826053e-08) (2.021034e-09 -1.602583e-09 -5.555560e-11)) ((1.326971e-11 4.660502e-08 -3.578265e-11) (-3.886011e-10 4.922141e-04 6.322591e-10))
9.83068       	((4.015898e-08 -2.273264e-09 -4.871232e-08) (1.722671e-09 -1.896041e-09 1.706954e-09)) ((6.921908e-12 4.363760e-08 -3.452519e-11) (-3.720498e-10 4.634664e-04 6.465416e-10))
11.808816     	((-4.190647e-08 -1.615230e-08 -1.681576e-08) (-1.652644e-09 -2.479785e-09 2.247496e-09)) ((1.957595e-11 4.057241e-08 -2.660259e-11) (-3.273273e-10 4.351713e-04 6.610657e-10))
14.182579     	((-5.743707e-08 1.133705e-08 -5.868318e-08) (-5.645802e-09 -3.424669e-09 2.159317e-09)) ((1.287105e-11 3.739737e-08 -2.792677e-11) (-3.101841e-10 4.078122e-04 6.819226e-10))
17.031095     	((-5.469792e-08 -6.125036e-09 5.246270e-09) (-7.560649e-09 -4.113384e-09 1.086989e-09)) ((1.162140e-12 3.362680e-08 -3.589510e-11) (-1.791782e-10 3.815347e-04 6.868381e-10))
20.449314     	((-9.942218e-08 2.835619e-09 -1.921012e-08) (-6.170451e-09 -3.542305e-09 1.266385e-09)) ((-5.365796e-12 2.918272e-08 -2.407724e-11) (1.963850e-11 3.558271e-04 8.130635e-10))
24.551176     	((5.545994e-09 -9.261695e-09 6.870136e-08) (-6.385279e-09 -1.556374e-09 1.289739e-09)) ((-3.142350e-12 2.492272e-08 -9.553380e-12) (-1.140251e-11 3.301642e-04 9.291248e-10))
29.473411     	((-4.095064e-08 3.566160e-09 3.804404e-08) (-5.324588e-09 -7.739867e-10 -1.179249e-09)) ((-2.845090e-12 2.131586e-08 -5.945679e-12) (-2.366368e-10 3.045885e-04 8.391648e-10))
35.380094     	((-1.558807e-08 -3.375166e-09 5.706793e-08) (-1.368151e-09 -1.404732e-09 -2.696143e-09)) ((6.197818e-12 1.847716e-08 1.033812e-11) (-3.719691e-10 2.794567e-04 5.689352e-10))
42.468112     	((-1.474773e-09 -9.973538e-09 6.224306e-08) (2.321049e-09 -1.492839e-09 -2.598299e-09)) ((-8.397984e-12 1.608360e-08 1.458236e-11) (-3.921377e-10 2.551790e-04 3.311010e-10))
50.973735     	((-2.442257e-08 -2.029301e-08 5.737355e-08) (5.271303e-09 -2.189719e-09 -1.187876e-09)) ((-1.088562e-11 1.376519e-08 2.524196e-11) (-4.412300e-10 2.321086e-04 9.354162e-11))
61.180482     	((-5.552816e-08 -3.425928e-08 4.748763e-08) (2.462992e-09 -1.861419e-09 -1.730222e-09)) ((-1.922496e-11 1.117725e-08 2.122388e-11) (-5.415214e-10 2.104802e-04 3.952155e-12))
73.428578     	((-2.753939e-09 1.426980e-08 5.160032e-08) (-1.806409e-09 -4.860256e-10 -2.489999e-09)) ((-1.013755e-11 8.835712e-09 6.342448e-12) (-8.750767e-10 1.904675e-04 3.024842e-10))
88.126294     	((5.147032e-08 1.514419e-08 1.077489e-07) (1.100100e-09 1.511762e-09 -2.499569e-10)) ((-5.485410e-12 6.559523e-09 -8.337952e-13) (-7.044564e-10 1.722553e-04 4.585466e-10))
105.763553    	((7.604877e-08 3.615304e-08 1.522496e-07) (7.048150e-09 -4.160309e-10 2.183356e-09)) ((-3.998946e-11 4.515584e-09 2.601590e-11) (-1.848594e-10 1.559102e-04 2.253983e-10))
126.928263    	((9.675730e-08 2.295440e-08 2.026236e-07) (2.747676e-08 -1.708539e-09 9.801957e-09)) ((-4.198843e-11 2.742714e-09 2.539087e-11) (-8.399208e-11 1.414477e-04 7.664354e-11))
152.325916    	((1.294361e-07 2.566704e-08 1.769032e-07) (2.823613e-08 2.049773e-09 8.658512e-09)) ((-3.233924e-11 9.563584e-10 1.586481e-11) (-3.829870e-11 1.288541e-04 -1.056450e-09))
182.803099    	((7.158546e-08 9.630880e-09 1.768721e-07) (7.710068e-09 -4.069564e-10 9.789897e-09)) ((-2.952402e-11 -2.947104e-10 2.851774e-11) (-5.279090e-10 1.180238e-04 -2.200330e-09))
219.375719    	((1.096538e-07 2.499787e-08 1.331332e-07) (1.903202e-10 -6.138427e-09 2.280670e-08)) ((-3.819590e-11 -1.073355e-09 5.953179e-11) (-2.148883e-09 1.087615e-04 -3.073157e-09))
263.262863    	((9.244483e-08 1.763137e-08 4.205895e-08) (-2.069838e-09 -8.015833e-09 3.956866e-08)) ((-4.652765e-11 -1.454114e-09 6.251632e-11) (-4.113950e-09 1.008256e-04 -4.515000e-09))
315.927436    	((1.648304e-07 3.588834e-08 8.396064e-08) (2.351660e-09 -7.473581e-09 7.148583e-08)) ((-3.276886e-11 -1.736302e-09 4.343075e-11) (-5.872531e-09 9.394028e-05 -6.201537e-09))
379.124923    	((2.037959e-07 2.902359e-08 6.561000e-08) (1.569997e-08 -5.961581e-09 9.011937e-08)) ((-2.475521e-11 -1.934108e-09 3.174620e-11) (-7.645497e-09 8.789204e-05 -7.326483e-09))
454.961908    	((2.128338e-07 2.591144e-08 8.121884e-08) (2.521587e-08 -6.338038e-09 1.107901e-07)) ((-2.199742e-11 -2.197464e-09 2.008342e-11) (-9.637351e-09 8.254272e-05 -6.849054e-09))
545.966289    	((2.068305e-07 8.129735e-09 1.078539e-07) (5.886437e-08 -8.079788e-09 1.344568e-07)) ((4.210751e-12 -2.358999e-09 -9.206798e-12) (-1.080976e-08 7.780431e-05 -4.993888e-09))
653.859574    	((2.120910e-07 -3.238299e-08 1.110477e-07) (7.963810e-08 -1.445534e-08 1.225206e-07)) ((8.644619e-12 -2.395975e-09 -8.243532e-12) (-1.068905e-08 7.363343e-05 -2.705031e-09))
778.912069    	((1.758097e-07 -5.896985e-08 1.448034e-07) (6.102334e-08 -1.702481e-08 1.047326e-07)) ((-8.090811e-12 -2.324410e-09 1.811417e-11) (-9.926376e-09 7.001506e-05 -3.848204e-10))
921.450469    	((1.086541e-07 -4.836397e-08 1.041605e-07) (3.080906e-08 -1.269052e-08 8.582331e-08)) ((-9.074741e-12 -2.232671e-09 2.529405e-11) (-9.131395e-09 6.695311e-05 1.286082e-09))
1081.853633   	((1.392786e-07 -3.854351e-08 7.816979e-08) (1.022577e-08 -1.002237e-08 8.234991e-08)) ((9.948303e-12 -2.092881e-09 2.658464e-12) (-8.720001e-09 6.446227e-05 3.627542e-09))
1260.543401   	((1.134216e-07 -4.265259e-08 8.748815e-08) (3.685356e-09 -9.741620e-09 8.614643e-08)) ((1.087386e-11 -1.905618e-09 2.653212e-12) (-7.769422e-09 6.252292e-05 5.945259e-09))
1448.215926   	((1.273083e-07 -3.100892e-08 4.666962e-08) (-4.267829e-09 -6.253953e-09 7.402637e-08)) ((1.649353e-11 -1.655216e-09 1.190915e-12) (-6.206734e-09 6.114489e-05 7.823504e-09))
1640.63995    	((1.281693e-07 -1.021596e-08 5.066118e-08) (-1.474985e-09 -4.139726e-10 7.082625e-08)) ((1.820229e-11 -1.427570e-09 -7.986260e-12) (-4.403434e-09 6.026452e-05 9.483591e-09))
1836.617849   	((1.149068e-07 -3.504941e-09 5.830300e-08) (-4.170038e-09 7.233055e-09 6.367646e-08)) ((1.709916e-11 -1.237481e-09 -1.037538e-11) (-2.423977e-09 5.984385e-05 1.039519e-08))
2032.692793   	((1.237698e-07 7.480451e-09 1.836842e-08) (4.056386e-09 1.038401e-08 6.083971e-08)) ((8.474725e-12 -1.098503e-09 -1.297998e-11) (-9.116867e-10 5.985209e-05 9.570985e-09))
2227.799899   	((1.417932e-07 4.650728e-09 5.929128e-08) (-3.175785e-09 1.284006e-08 6.037709e-08)) ((-5.492043e-12 -9.963086e-10 -9.575708e-12) (-2.495806e-10 6.025524e-05 7.427991e-09))
2421.046739   	((2.026441e-07 1.550513e-08 9.332624e-08) (-9.591010e-09 1.249582e-08 5.141793e-08)) ((-1.034990e-11 -9.342584e-10 -1.069512e-11) (-9.865749e-10 6.102219e-05 5.399870e-09))
2611.779924   	((2.452816e-07 4.358273e-09 1.074902e-07) (-1.001412e-08 1.280012e-08 3.213953e-08)) ((-1.697991e-11 -9.484588e-10 -4.481393e-12) (-2.881997e-09 6.211282e-05 4.432128e-09))
2799.682917   	((2.291553e-07 5.334416e-09 1.160176e-07) (3.708800e-09 1.168587e-08 1.394189e-08)) ((-2.167011e-11 -9.615638e-10 9.089513e-12) (-5.142876e-09 6.348845e-05 4.497692e-09))
2984.689759   	((1.610454e-07 -3.867656e-10 1.340230e-07) (1.285451e-08 1.122686e-08 2.181483e-09)) ((-2.344765e-11 -9.682693e-10 2.009466e-11) (-7.036039e-09 6.507139e-05 5.691747e-09))
3166.888514   	((1.089922e-07 -1.517476e-08 1.126789e-07) (1.957579e-08 1.013930e-08 -1.553574e-09)) ((-2.183282e-11 -1.055201e-09 3.165664e-11) (-7.652600e-09 6.672911e-05 7.399174e-09))
3346.537957   	((-1.886113e-08 3.605698e-09 8.980932e-08) (3.247927e-08 1.133422e-08 2.479083e-09)) ((-2.264440e-11 -1.210006e-09 4.016345e-11) (-6.897489e-09 6.829935e-05 9.272049e-09))
3524.022637   	((-1.287832e-07 8.461770e-09 1.052883e-07) (1.735466e-09 1.549891e-08 -6.716098e-09)) ((-1.599145e-11 -1.220872e-09 3.455143e-11) (-5.718638e-09 6.963849e-05 1.120925e-08))
3699.724052   	((-1.522012e-07 1.759290e-08 9.160807e-08) (-1.005762e-08 1.891665e-08 -1.037633e-08)) ((-6.931686e-12 -1.187216e-09 2.436534e-11) (-4.188478e-09 7.064009e-05 1.192971e-08))
3871.608141   	((-1.343199e-07 9.780322e-09 1.124466e-07) (-8.738771e-09 2.021674e-08 8.318562e-11)) ((-4.406438e-12 -1.196177e-09 1.837174e-11) (-2.133776e-09 7.125232e-05 1.090024e-08))
4040.142411   	((-1.327548e-07 -2.622570e-08 9.917368e-08) (3.405339e-09 2.037012e-08 1.920623e-08)) ((-2.214803e-12 -1.274185e-09 1.165873e-11) (-6.482772e-10 7.151417e-05 8.993276e-09))
4206.155554   	((-8.369155e-08 -2.113436e-08 5.504293e-08) (1.251768e-08 1.782875e-08 3.121587e-08)) ((8.207641e-14 -1.361179e-09 2.828502e-12) (4.826051e-11 7.150139e-05 6.583661e-09))
4370.328166   	((-4.382389e-08 2.460427e-08 1.076546e-08) (9.950168e-09 1.700328e-08 3.612332e-08)) ((8.629877e-12 -1.439984e-09 -1.250922e-11) (3.716831e-11 7.129355e-05 3.806236e-09))
4533.27677    	((2.312480e-08 5.043951e-08 1.169257e-08) (5.693917e-09 1.724571e-08 3.569932e-08)) ((1.395131e-11 -1.489529e-09 -1.959349e-11) (-7.116502e-10 7.097254e-05 1.427735e-09))
4695.541088   	((9.706413e-09 2.617540e-08 -4.571845e-08) (1.831963e-08 1.461981e-08 3.651001e-08)) ((1.103364e-11 -1.532520e-09 -1.267576e-11) (-1.850737e-09 7.059772e-05 -6.258350e-10))
