# Forces      
# CofR        : (0.000000e+00 0.000000e+00 0.000000e+00)
# Time        forces(pressure viscous)	moments(pressure viscous)
0             	((0.000000e+00 0.000000e+00 0.000000e+00) (0.000000e+00 0.000000e+00 0.000000e+00)) ((0.000000e+00 0.000000e+00 0.000000e+00) (0.000000e+00 0.000000e+00 0.000000e+00))
0.012         	((3.587258e-05 -5.153906e-06 -7.185504e-04) (-2.291847e-09 -5.841538e-09 -1.472928e-07)) ((8.068646e-09 4.744776e-04 -2.021815e-08) (-1.709327e-09 3.382889e-02 -1.306404e-10))
0.0264        	((-2.091073e-04 -7.571446e-06 7.823853e-04) (-3.412837e-08 -1.112150e-08 -2.039417e-07)) ((-8.787573e-10 2.194658e-04 -1.450427e-08) (-1.755114e-09 3.377618e-02 5.835422e-10))
0.04368       	((1.022808e-04 2.759119e-05 -1.692825e-04) (-7.099124e-08 -1.101727e-08 -2.212245e-07)) ((1.208546e-08 1.261907e-04 9.209830e-09) (2.559049e-10 3.370067e-02 2.268839e-09))
0.064416      	((-8.171628e-05 -2.815195e-06 1.812673e-04) (-1.028883e-07 -6.164694e-09 -2.287486e-07)) ((-4.980636e-09 7.294345e-05 -2.657624e-09) (2.699136e-09 3.361062e-02 3.415245e-09))
0.0892992     	((-1.536587e-05 -5.167576e-06 -2.493356e-05) (-1.408383e-07 -2.787811e-09 -2.238009e-07)) ((8.042044e-09 5.965284e-05 1.577887e-09) (4.227848e-09 3.350326e-02 4.422418e-09))
0.119159      	((-5.860404e-05 1.535947e-05 3.546785e-05) (-1.774401e-07 -7.980532e-09 -2.265507e-07)) ((6.044175e-09 4.979438e-05 -4.218064e-09) (4.025596e-09 3.337543e-02 6.409137e-09))
0.154991      	((5.000028e-06 -9.585016e-06 -5.226092e-05) (-2.154163e-07 -1.954203e-08 -2.426685e-07)) ((6.858006e-09 4.595731e-05 6.429575e-09) (3.183407e-09 3.322349e-02 8.946943e-09))
0.197989      	((-5.855250e-05 -1.225635e-05 2.306331e-05) (-2.666663e-07 -3.096686e-08 -2.616096e-07)) ((7.499065e-09 4.294939e-05 6.675189e-09) (2.771767e-09 3.304329e-02 1.096507e-08))
0.249587      	((-6.876900e-06 -4.587895e-06 -2.052726e-05) (-3.187471e-07 -4.093661e-08 -2.766613e-07)) ((6.228046e-09 4.088903e-05 2.219803e-09) (2.242923e-09 3.283025e-02 1.199692e-08))
0.311504      	((-6.048129e-06 -1.207135e-05 5.132118e-06) (-3.548590e-07 -4.876745e-08 -2.861555e-07)) ((7.038568e-09 3.899720e-05 4.834900e-12) (1.565096e-09 3.257929e-02 1.305861e-08))
0.385805      	((8.641020e-06 -1.121762e-05 -1.171096e-05) (-3.784648e-07 -5.655819e-08 -2.916638e-07)) ((7.961081e-09 3.720527e-05 -1.768327e-09) (1.016756e-09 3.228508e-02 1.527799e-08))
0.474966      	((4.605117e-06 -3.517499e-06 2.683661e-05) (-4.022362e-07 -6.543077e-08 -2.908054e-07)) ((6.049065e-09 3.549239e-05 -3.122840e-09) (6.710436e-10 3.194241e-02 1.894480e-08))
0.581959      	((7.286721e-06 -6.364974e-06 2.332037e-05) (-4.246729e-07 -7.094161e-08 -2.803179e-07)) ((4.805503e-09 3.388422e-05 -2.270791e-09) (7.958735e-10 3.154676e-02 2.284111e-08))
0.710351      	((1.774496e-05 -2.936754e-07 3.915729e-05) (-4.567584e-07 -6.777983e-08 -2.731492e-07)) ((4.235394e-09 3.237973e-05 -3.103671e-09) (2.223886e-09 3.109512e-02 2.528257e-08))
0.864421      	((1.437467e-05 -3.109366e-06 2.382762e-05) (-5.005417e-07 -6.195244e-08 -2.943259e-07)) ((2.964652e-09 3.089868e-05 -4.229007e-09) (3.957664e-09 3.058696e-02 2.598590e-08))
1.049306      	((9.891604e-06 -2.149399e-07 2.478372e-05) (-5.477875e-07 -5.394761e-08 -3.562338e-07)) ((-7.193916e-11 2.942408e-05 -9.524655e-10) (6.771880e-09 3.002553e-02 2.552159e-08))
1.271167      	((-1.328581e-06 -4.599918e-07 1.574262e-05) (-5.844868e-07 -4.857096e-08 -4.576946e-07)) ((1.974211e-09 2.797750e-05 -6.377867e-11) (1.039005e-08 2.941902e-02 2.445281e-08))
1.5374        	((5.954180e-06 -7.672349e-09 1.141878e-05) (-5.788029e-07 -4.858541e-08 -5.877565e-07)) ((8.156456e-10 2.654286e-05 1.291126e-10) (1.556264e-08 2.878048e-02 2.289465e-08))
1.85688       	((2.597549e-06 -3.075866e-06 9.336298e-06) (-4.998540e-07 -5.244973e-08 -7.398711e-07)) ((1.144652e-09 2.507476e-05 8.247323e-10) (2.227380e-08 2.812542e-02 2.087997e-08))
2.240256      	((-2.345545e-06 -3.571637e-06 8.875539e-06) (-3.835219e-07 -4.448921e-08 -8.969367e-07)) ((-1.293454e-10 2.362672e-05 8.284005e-10) (3.148068e-08 2.746782e-02 1.720607e-08))
2.700307      	((-4.302732e-06 -3.457051e-06 -1.892886e-07) (-3.238365e-07 -2.685985e-08 -1.025485e-06)) ((1.264271e-09 2.224973e-05 -9.198443e-10) (3.969244e-08 2.681506e-02 1.220469e-08))
3.252369      	((-4.605267e-06 -9.673563e-07 2.313513e-06) (-3.429197e-07 -2.106591e-08 -1.163004e-06)) ((1.366935e-09 2.091637e-05 -2.019595e-09) (4.436559e-08 2.615857e-02 6.583175e-09))
3.914842      	((6.729953e-06 -1.868574e-06 1.668560e-06) (-4.312978e-07 -2.635633e-08 -1.284734e-06)) ((-9.483150e-11 1.949074e-05 -1.902457e-09) (4.513131e-08 2.546236e-02 4.801576e-09))
4.709811      	((2.718662e-06 1.877646e-06 1.211033e-05) (-6.003242e-07 -1.810749e-08 -1.159171e-06)) ((-3.887711e-10 1.812017e-05 4.854882e-11) (4.721527e-08 2.469998e-02 4.280217e-09))
5.663773      	((-1.511189e-05 -2.640956e-06 2.557793e-06) (-6.746058e-07 -9.230182e-09 -1.205851e-06)) ((-8.743735e-10 1.700338e-05 8.834215e-10) (4.390663e-08 2.387804e-02 -1.932342e-09))
6.808528      	((-9.177637e-06 1.422817e-06 -4.809066e-06) (-6.663499e-07 1.304924e-09 -1.233739e-06)) ((-7.900128e-10 1.634914e-05 4.458661e-09) (4.406626e-08 2.301813e-02 -1.388404e-08))
8.182233      	((-9.685333e-06 3.705494e-06 -8.995972e-06) (-7.499309e-07 1.668360e-08 -1.033225e-06)) ((-1.608631e-09 1.584428e-05 4.421886e-09) (5.151777e-08 2.214539e-02 -3.094938e-08))
9.83068       	((5.017652e-07 3.272011e-06 3.310325e-06) (-8.208175e-07 2.320316e-08 -9.982174e-07)) ((1.143458e-09 1.515283e-05 2.846298e-09) (5.411270e-08 2.128324e-02 -5.096614e-08))
11.808816     	((5.064561e-06 1.085381e-06 7.267215e-06) (-1.147613e-06 3.926379e-09 -9.759815e-07)) ((2.746611e-09 1.428032e-05 1.008323e-09) (4.158288e-08 2.044807e-02 -7.074668e-08))
14.182579     	((7.747122e-06 -3.821561e-06 1.410827e-05) (-1.408153e-06 1.057510e-08 -4.517335e-07)) ((3.618121e-09 1.310758e-05 9.014930e-10) (1.664782e-08 1.963957e-02 -7.958151e-08))
17.031095     	((2.092784e-05 -3.040914e-07 4.005493e-05) (-1.030298e-06 -7.142789e-10 3.604241e-07)) ((3.951722e-09 1.191614e-05 -2.140262e-09) (-1.745256e-08 1.884701e-02 -4.966764e-08))
20.368273     	((4.117038e-05 1.640996e-06 6.373317e-05) (-8.261237e-08 -4.872688e-08 7.281167e-07)) ((-6.122411e-11 1.078657e-05 1.679205e-09) (-4.159313e-08 1.808762e-02 -1.927918e-08))
24.198103     	((5.748902e-05 2.761430e-06 8.292967e-05) (9.213506e-07 4.069365e-07 9.260766e-07)) ((-5.670472e-09 9.652288e-06 4.039073e-09) (-3.289012e-08 1.738941e-02 -5.947611e-08))
28.526431     	((4.150085e-05 1.526772e-05 7.741048e-05) (1.382509e-06 4.707265e-07 1.351163e-07)) ((-5.855134e-09 8.671738e-06 1.083524e-08) (1.229335e-08 1.677872e-02 -7.494884e-08))
33.358046     	((5.276991e-05 7.950196e-06 9.182503e-05) (2.317125e-06 -1.416164e-07 4.362316e-07)) ((-1.921384e-08 7.840939e-06 1.881449e-08) (4.185540e-08 1.626715e-02 -1.134039e-07))
38.439468     	((4.500642e-05 5.221713e-06 9.493739e-05) (1.500951e-06 -6.890660e-07 1.458099e-06)) ((-2.353633e-08 7.189053e-06 2.162726e-08) (-1.182935e-08 1.586847e-02 -1.594379e-07))
43.560348     	((5.544489e-05 7.764953e-06 1.034200e-04) (1.037563e-06 -9.438262e-07 1.730659e-06)) ((-2.139367e-08 6.709770e-06 1.254254e-08) (-1.455189e-07 1.557259e-02 -1.117713e-07))
48.688865     	((5.177962e-05 7.126084e-06 1.099536e-04) (1.543583e-06 -9.470589e-07 1.976032e-06)) ((-1.947316e-08 6.414575e-06 8.953000e-09) (-2.520321e-07 1.534948e-02 -1.058427e-07))
53.826746     	((3.173861e-05 3.737063e-06 8.771358e-05) (1.312453e-06 -7.701250e-07 1.769044e-06)) ((-1.824430e-08 6.254633e-06 3.294257e-09) (-3.124297e-07 1.517920e-02 -1.638383e-07))
58.975161     	((4.356339e-05 -3.182291e-06 8.114057e-05) (1.204625e-06 -3.257760e-07 1.446055e-06)) ((-7.272465e-09 6.261170e-06 -2.941084e-09) (-4.655702e-07 1.505604e-02 -1.389998e-07))
64.135983     	((1.232087e-04 -4.985243e-06 1.068552e-04) (3.139719e-06 8.706569e-09 3.434945e-06)) ((-7.303433e-09 6.265367e-06 -1.431471e-09) (-5.985739e-07 1.497135e-02 -4.143202e-08))
69.311306     	((1.488417e-04 -4.524076e-06 1.530945e-04) (3.360060e-06 -3.900677e-08 4.818510e-06)) ((-9.159813e-09 6.168090e-06 -3.404248e-09) (-6.816547e-07 1.491989e-02 8.864391e-08))
74.503597     	((1.414310e-04 5.824413e-06 1.518135e-04) (2.681047e-06 3.439892e-07 5.076168e-06)) ((-1.958962e-09 5.969983e-06 -2.963900e-09) (-7.482593e-07 1.490035e-02 2.164823e-07))
79.715011     	((1.188844e-04 2.109322e-05 1.296820e-04) (5.410330e-07 2.849006e-07 4.345628e-06)) ((-1.035377e-09 5.814435e-06 -8.906749e-09) (-7.431537e-07 1.491105e-02 4.086816e-07))
84.947277     	((9.998246e-05 1.634381e-05 1.115793e-04) (-1.737617e-06 1.457386e-07 3.873166e-06)) ((3.955580e-09 5.735678e-06 -1.957963e-08) (-6.708090e-07 1.495347e-02 5.938784e-07))
90.200879     	((1.476765e-04 -5.135484e-06 1.443281e-04) (-1.238583e-06 -2.606868e-07 5.996143e-06)) ((1.940358e-08 5.726312e-06 -1.029554e-08) (-6.762905e-07 1.502816e-02 6.903392e-07))
95.477171     	((1.505267e-04 -2.854495e-05 1.478124e-04) (-9.127415e-07 -7.236802e-07 4.011755e-06)) ((3.119183e-08 5.734936e-06 4.519944e-09) (-6.891813e-07 1.513380e-02 8.315457e-07))
100.774964    	((1.661418e-04 -4.920131e-05 1.103197e-04) (-1.787251e-06 -7.930744e-07 -4.842664e-08)) ((3.494850e-08 5.786007e-06 1.878389e-09) (-6.533807e-07 1.526684e-02 8.615445e-07))
106.089076    	((1.862678e-04 -4.421691e-05 1.023481e-04) (-8.024658e-07 -7.786798e-07 -2.140234e-06)) ((1.626412e-08 5.877173e-06 -1.139910e-08) (-5.116085e-07 1.541957e-02 8.343520e-07))
111.413257    	((2.149853e-04 -6.038028e-05 8.775463e-05) (-1.915872e-06 -9.923145e-07 -5.577488e-06)) ((7.730388e-10 6.019133e-06 -8.464676e-10) (-2.336319e-07 1.558050e-02 7.215941e-07))
116.741889    	((1.976979e-04 -5.154077e-05 9.458321e-05) (-8.038607e-07 -1.412397e-06 -6.361449e-06)) ((-1.294958e-08 6.219398e-06 2.443703e-09) (-7.940583e-08 1.573840e-02 3.665223e-07))
122.063054    	((9.504069e-05 -6.362211e-05 1.321251e-04) (-1.591986e-06 -1.997653e-06 -6.179366e-06)) ((-7.600520e-09 6.392435e-06 -3.236041e-10) (-6.954492e-08 1.588126e-02 -1.664326e-07))
127.363158    	((1.316779e-05 -6.489085e-05 8.903600e-05) (-8.915837e-07 -1.869735e-06 -7.820415e-06)) ((-4.143038e-09 6.536599e-06 5.621596e-09) (-2.165744e-07 1.600017e-02 -7.089844e-07))
132.633179    	((-3.091443e-05 -1.388019e-04 6.358964e-05) (-5.589581e-07 -1.021206e-06 -6.417076e-06)) ((-1.858819e-08 6.664200e-06 9.809172e-09) (-6.229315e-07 1.609382e-02 -1.096149e-06))
137.867124    	((-6.844485e-05 -1.795791e-04 6.852814e-05) (-2.526714e-06 -6.224782e-07 -4.376260e-06)) ((-2.134943e-08 6.755677e-06 1.361949e-08) (-1.261307e-06 1.616403e-02 -1.188092e-06))
143.066422    	((-7.158884e-05 -1.649598e-04 1.078920e-04) (-2.979087e-06 -1.111312e-06 -2.207970e-06)) ((-1.688786e-08 6.814467e-06 6.845804e-09) (-1.991981e-06 1.621237e-02 -7.725538e-07))
148.239005    	((-4.701977e-05 -2.015012e-04 1.361953e-04) (-2.243865e-06 -1.736673e-06 7.983789e-07)) ((-6.359924e-09 6.838851e-06 -6.926536e-09) (-2.515621e-06 1.624274e-02 8.143672e-08))
