# Forces      
# CofR        : (0.000000e+00 0.000000e+00 0.000000e+00)
# Time        forces(pressure viscous)	moments(pressure viscous)
0             	((0.000000e+00 0.000000e+00 0.000000e+00) (0.000000e+00 0.000000e+00 0.000000e+00)) ((0.000000e+00 0.000000e+00 0.000000e+00) (0.000000e+00 0.000000e+00 0.000000e+00))
0.012         	((8.249846e-07 -5.331807e-06 -2.585956e-06) (2.180730e-10 1.245563e-09 -3.285335e-10)) ((5.866793e-05 -9.943174e-10 -2.069851e-07) (3.051841e-03 -1.286787e-10 2.097935e-09))
0.0264        	((2.604299e-06 1.738655e-05 -1.246037e-05) (4.376718e-10 1.752299e-09 -9.625353e-11)) ((2.591585e-05 -1.493546e-09 -1.532947e-07) (3.049028e-03 -2.470485e-10 -3.904694e-10))
0.04368       	((-3.796531e-06 -2.217129e-06 -7.643508e-06) (3.117016e-10 1.392246e-09 9.683803e-11)) ((1.350199e-05 2.537019e-09 -1.132457e-07) (3.045455e-03 -1.176761e-10 -3.561920e-09))
0.064416      	((7.519050e-06 1.303677e-05 -5.159262e-06) (6.377935e-10 1.673422e-09 -4.242644e-12)) ((6.295189e-06 5.170150e-10 -5.126680e-08) (3.041174e-03 3.758686e-10 -4.038622e-09))
0.0892992     	((-1.602145e-07 -2.763978e-06 -9.722917e-07) (1.704696e-09 1.712802e-09 2.993515e-10)) ((4.324583e-06 4.177653e-09 -1.208642e-08) (3.036048e-03 1.078767e-09 -3.466300e-09))
0.119159      	((4.086039e-06 1.926622e-06 1.715077e-06) (2.722873e-09 1.614481e-09 9.066873e-11)) ((3.118048e-06 -1.173143e-09 1.850006e-09) (3.029918e-03 1.720911e-09 -2.577276e-09))
0.154991      	((2.888657e-07 -2.924717e-06 4.793516e-06) (3.754400e-09 1.888764e-09 -9.729226e-11)) ((2.683860e-06 3.832395e-10 4.577694e-09) (3.022592e-03 2.294337e-09 -2.583516e-09))
0.197989      	((4.836228e-07 5.146235e-07 2.064450e-06) (4.549147e-09 2.532542e-09 -4.008749e-10)) ((2.372383e-06 8.213233e-10 2.622526e-09) (3.013843e-03 2.632261e-09 -3.584330e-09))
0.249587      	((5.800262e-07 -3.628202e-07 3.586954e-06) (4.838575e-09 3.138111e-09 -9.513931e-10)) ((2.144907e-06 -3.646063e-10 7.807042e-10) (3.003404e-03 2.836940e-09 -4.955743e-09))
0.311504      	((-2.006306e-09 -7.358234e-07 1.766155e-06) (4.686486e-09 3.457617e-09 -1.555524e-09)) ((1.925245e-06 -4.611185e-09 -3.321297e-09) (2.990961e-03 3.280384e-09 -6.942881e-09))
0.385805      	((-5.343597e-07 -1.833223e-06 9.333943e-07) (4.400711e-09 3.698624e-09 -2.249469e-09)) ((1.695363e-06 -2.160820e-09 -5.582162e-09) (2.976150e-03 3.410700e-09 -9.409202e-09))
0.474966      	((-5.989849e-07 -1.939099e-06 -7.661519e-08) (4.326429e-09 3.692181e-09 -2.806359e-09)) ((1.457599e-06 1.828703e-09 -6.307954e-09) (2.958550e-03 3.844304e-09 -1.208256e-08))
0.581959      	((-1.628571e-07 -1.951445e-06 -7.460356e-08) (4.299829e-09 3.323966e-09 -3.150414e-09)) ((1.232203e-06 2.928758e-09 -4.035233e-09) (2.937683e-03 5.110365e-09 -1.403839e-08))
0.710351      	((-2.593989e-07 -1.467088e-06 2.639185e-07) (4.114966e-09 2.491625e-09 -3.439300e-09)) ((1.054121e-06 -1.249919e-09 -3.204285e-09) (2.913015e-03 6.716383e-09 -1.550524e-08))
0.864421      	((1.749972e-07 -6.703548e-07 2.446628e-07) (4.059840e-09 1.544961e-09 -3.614458e-09)) ((9.329577e-07 -2.502156e-09 -2.287086e-09) (2.883961e-03 8.028933e-09 -1.733071e-08))
1.049306      	((-1.801306e-07 -4.760308e-07 6.164176e-07) (4.348619e-09 8.700787e-10 -3.554920e-09)) ((8.563178e-07 -2.818694e-09 -3.729287e-09) (2.849895e-03 9.324872e-09 -1.970676e-08))
1.271167      	((-1.035792e-07 -2.139038e-07 -1.343180e-08) (4.906188e-09 3.394477e-10 -3.477211e-09)) ((8.033832e-07 -2.450258e-09 -4.047629e-09) (2.810177e-03 1.076207e-08 -2.221118e-08))
1.5374        	((-5.247872e-09 4.654491e-07 2.611422e-07) (5.800061e-09 -2.492038e-10 -3.389339e-09)) ((7.613509e-07 -1.945839e-09 -4.205918e-09) (2.764193e-03 1.204789e-08 -2.463952e-08))
1.85688       	((3.179818e-08 3.562728e-08 -1.945710e-07) (7.106693e-09 -7.606325e-10 -3.517293e-09)) ((7.263610e-07 -1.543876e-09 -3.861553e-09) (2.711432e-03 1.314496e-08 -2.743931e-08))
2.240256      	((-5.601229e-08 5.109453e-09 -2.831265e-07) (8.923367e-09 -1.562570e-09 -3.664148e-09)) ((6.954549e-07 -1.320856e-09 -3.739409e-09) (2.651574e-03 1.416528e-08 -3.076656e-08))
2.700307      	((1.077073e-07 -2.947782e-08 -4.734751e-08) (1.126133e-08 -2.576479e-09 -3.584111e-09)) ((6.647519e-07 -1.007744e-09 -3.536213e-09) (2.584615e-03 1.552735e-08 -3.350775e-08))
3.252369      	((7.460514e-08 1.806396e-07 7.100219e-08) (1.356753e-08 -3.577224e-09 -3.093160e-09)) ((6.324628e-07 -6.900220e-10 -2.826906e-09) (2.510995e-03 1.688049e-08 -3.564898e-08))
3.914842      	((1.019726e-07 1.180761e-07 6.345184e-08) (1.521925e-08 -4.127886e-09 -2.079551e-09)) ((5.978270e-07 -4.475318e-10 -2.363301e-09) (2.431688e-03 1.662940e-08 -3.806881e-08))
4.709811      	((-1.287756e-08 2.274621e-07 -1.244136e-07) (1.645615e-08 -4.139770e-09 -8.294654e-10)) ((5.647630e-07 -1.847625e-10 -1.728351e-09) (2.348197e-03 1.606881e-08 -4.004776e-08))
5.663773      	((-3.616615e-08 2.811055e-07 -2.490241e-07) (1.763765e-08 -3.478854e-09 1.068246e-10)) ((5.334677e-07 -7.008644e-11 -1.405988e-09) (2.262356e-03 1.621698e-08 -3.977093e-08))
6.808528      	((-1.931337e-07 1.512262e-07 -1.340721e-07) (1.835697e-08 -3.471628e-09 1.118071e-09)) ((5.040642e-07 -2.457850e-11 -1.189913e-09) (2.175923e-03 1.603761e-08 -3.803905e-08))
8.182233      	((-1.486974e-07 2.068993e-07 -1.895168e-07) (1.785189e-08 -4.171876e-09 2.152944e-11)) ((4.752762e-07 6.451737e-11 -1.292661e-09) (2.090101e-03 1.549192e-08 -3.629574e-08))
9.83068       	((-2.909333e-07 -5.950559e-08 6.753390e-08) (1.581126e-08 -4.695487e-09 -3.154689e-09)) ((4.411879e-07 -2.220196e-10 -1.546990e-09) (2.004674e-03 1.357416e-08 -3.346947e-08))
11.808816     	((-3.896250e-07 1.033407e-08 -2.425286e-08) (1.406193e-08 -4.634384e-09 -3.802848e-09)) ((4.002117e-07 -2.455850e-12 -1.613142e-09) (1.916581e-03 9.793040e-09 -3.140399e-08))
14.182579     	((-2.992883e-07 4.719772e-08 8.815136e-08) (1.439279e-08 -7.247725e-09 -9.473127e-10)) ((3.579685e-07 2.954546e-10 -1.393946e-09) (1.823164e-03 8.999038e-09 -2.507660e-08))
17.031095     	((-3.629908e-07 1.254046e-07 6.448026e-08) (1.213762e-08 -9.994353e-09 1.469686e-09)) ((3.179236e-07 3.550246e-10 -1.095340e-09) (1.724780e-03 8.762736e-09 -1.476119e-08))
20.449314     	((-4.284783e-07 2.662109e-07 1.826642e-07) (2.425272e-10 -7.472742e-09 -4.903552e-09)) ((2.914147e-07 3.328424e-10 -9.687991e-10) (1.623470e-03 9.074337e-09 -4.287567e-09))
24.551176     	((-4.253218e-07 5.114360e-08 2.224301e-08) (-1.002229e-08 1.039708e-09 -1.902367e-08)) ((2.769466e-07 5.297540e-10 -1.082613e-09) (1.521906e-03 1.045262e-08 2.231123e-09))
29.473411     	((-4.587383e-07 7.518995e-08 -1.214889e-07) (-1.629739e-08 1.103902e-08 -2.923749e-08)) ((2.600019e-07 1.234907e-10 -6.419989e-10) (1.422483e-03 4.942271e-09 1.231322e-09))
35.380094     	((-5.999033e-07 4.317251e-07 -2.086368e-07) (-1.109283e-08 1.162201e-08 -2.655263e-08)) ((2.424920e-07 -2.065209e-10 -4.257122e-10) (1.326702e-03 -6.584950e-09 6.635658e-11))
42.468112     	((-6.176314e-07 5.793431e-07 1.267665e-07) (-2.523304e-09 3.615491e-08 -1.448379e-08)) ((2.200524e-07 -4.419273e-11 -1.954515e-10) (1.234891e-03 -8.918839e-09 -4.105389e-10))
50.973735     	((-5.011210e-07 1.324100e-06 7.723815e-07) (-3.732449e-09 4.248950e-08 -2.538560e-09)) ((1.909282e-07 1.127908e-10 -4.108503e-10) (1.146554e-03 1.308074e-09 1.106433e-09))
61.180482     	((-4.326603e-07 1.938010e-06 1.224019e-06) (9.302607e-09 5.684225e-08 2.214010e-08)) ((1.587727e-07 5.350705e-10 -4.868461e-10) (1.062051e-03 6.992099e-09 3.822781e-09))
73.428578     	((-5.112331e-07 2.235264e-06 1.276613e-06) (-7.416873e-09 7.722478e-08 7.586290e-08)) ((1.243557e-07 6.590032e-10 -7.223862e-10) (9.833013e-04 6.206588e-09 2.345364e-09))
88.126294     	((-1.273220e-07 2.804860e-06 1.609038e-06) (3.545940e-10 1.126963e-07 1.051489e-07)) ((9.409377e-08 9.618179e-10 -6.241640e-10) (9.124580e-04 -2.657397e-09 4.695140e-09))
105.763553    	((-2.342641e-07 2.769427e-06 1.749965e-06) (1.250819e-09 1.796790e-07 1.171331e-07)) ((6.894467e-08 1.274865e-09 -5.595712e-10) (8.504615e-04 -9.667977e-09 1.287155e-10))
126.928263    	((-1.521810e-07 2.408477e-06 2.086613e-06) (-3.811260e-09 2.837939e-07 1.569104e-07)) ((4.825012e-08 2.232324e-09 -9.806227e-10) (7.971410e-04 -4.729396e-09 -1.703762e-08))
152.173988    	((1.429168e-07 2.150201e-06 2.571766e-06) (-2.917138e-08 3.386904e-07 2.364286e-07)) ((3.626001e-08 1.947132e-09 -5.831833e-10) (7.522714e-04 -3.027201e-09 -3.149473e-08))
181.51522     	((2.442798e-07 1.810525e-06 3.268908e-06) (-5.247890e-08 3.820027e-07 4.266823e-07)) ((3.113708e-08 1.804675e-09 -3.583592e-10) (7.155716e-04 -2.494776e-09 -3.939642e-08))
214.975948    	((3.500155e-07 1.866198e-06 3.848240e-06) (-2.439908e-08 3.700214e-07 5.911047e-07)) ((2.793561e-08 1.585805e-09 -1.237221e-10) (6.857214e-04 8.988510e-09 -5.451415e-08))
252.592501    	((1.520592e-07 2.269507e-06 4.381044e-06) (-1.077169e-07 4.779049e-07 7.146761e-07)) ((2.635103e-08 1.725796e-09 -3.674777e-10) (6.616707e-04 2.802376e-08 -6.811898e-08))
294.407366    	((-1.217121e-07 2.253846e-06 3.688153e-06) (-1.523651e-07 6.358034e-07 7.771784e-07)) ((2.557742e-08 1.426897e-09 -2.646939e-10) (6.423142e-04 4.111378e-08 -7.594797e-08))
336.93148     	((-3.042011e-07 3.058601e-06 3.819672e-06) (-1.673025e-07 4.797647e-07 5.472591e-07)) ((2.652896e-08 1.516676e-09 -3.538441e-10) (6.278993e-04 5.222814e-08 -7.304802e-08))
380.136041    	((-5.459300e-07 2.770893e-06 2.802619e-06) (-1.785706e-07 2.900471e-07 2.793371e-07)) ((2.711933e-08 1.269453e-09 -8.087002e-11) (6.175682e-04 6.139905e-08 -6.991076e-08))
424.047476    	((-9.193906e-07 2.768241e-06 3.946902e-06) (-1.177759e-07 2.829470e-07 1.799029e-07)) ((2.853822e-08 1.082781e-09 1.657159e-10) (6.111620e-04 6.378597e-08 -6.693503e-08))
468.655099    	((-1.288008e-06 1.880451e-06 3.545734e-06) (-1.213148e-07 4.429483e-07 1.558389e-07)) ((2.938601e-08 9.264305e-10 5.713377e-10) (6.084953e-04 6.486274e-08 -6.058240e-08))
513.953106    	((-1.346033e-06 1.337933e-06 3.903465e-06) (-7.500944e-08 5.028186e-07 -7.939259e-08)) ((2.942305e-08 5.201574e-10 8.451901e-10) (6.095844e-04 7.797534e-08 -4.593881e-08))
559.705722    	((-1.022425e-06 1.702615e-06 4.757229e-06) (-1.674033e-08 2.128848e-07 -1.296942e-07)) ((3.038699e-08 1.813674e-10 8.213470e-10) (6.144311e-04 8.801559e-08 -2.745911e-08))
605.646764    	((-9.479780e-07 2.874612e-06 5.096134e-06) (-6.885109e-08 3.414310e-07 -2.486244e-07)) ((3.198484e-08 -2.039207e-10 5.203534e-10) (6.228109e-04 7.960457e-08 -2.166743e-09))
651.317294    	((-9.401747e-07 2.526877e-06 4.538146e-06) (-1.799962e-08 1.916583e-07 -7.989595e-08)) ((3.343202e-08 -7.831991e-10 -9.589366e-11) (6.344435e-04 7.004345e-08 3.082771e-08))
696.656091    	((-1.766813e-06 2.608276e-06 4.821563e-06) (-1.844302e-08 -1.595487e-07 7.250291e-08)) ((3.508926e-08 -1.158576e-09 6.892213e-11) (6.485913e-04 4.509831e-08 2.758980e-08))
741.624483    	((-3.075785e-06 3.287110e-06 1.562761e-06) (-1.316694e-07 -3.058825e-07 4.289815e-09)) ((3.572890e-08 -1.316447e-09 1.150036e-10) (6.640937e-04 5.996966e-09 5.994979e-09))
786.142771    	((-4.269287e-06 2.758237e-06 -2.041527e-06) (-2.523165e-07 -3.152974e-07 1.235666e-08)) ((3.562334e-08 -1.611801e-09 -1.048621e-10) (6.790441e-04 -1.271173e-08 -2.277359e-08))
829.770985    	((-4.573765e-06 2.924932e-06 -4.242504e-06) (-2.292074e-07 -2.071339e-07 1.467635e-10)) ((3.633399e-08 -2.037947e-09 -4.034342e-10) (6.912231e-04 -9.185822e-09 -6.027325e-08))
872.597309    	((-5.131659e-06 2.563108e-06 -4.536479e-06) (-2.173048e-07 -8.203654e-08 -3.196722e-08)) ((3.720322e-08 -1.994204e-09 -5.944216e-10) (6.999538e-04 1.668634e-08 -1.023151e-07))
914.690681    	((-6.165734e-06 -5.586520e-07 -4.053546e-06) (-2.672782e-07 5.947113e-08 -7.545813e-08)) ((3.676993e-08 -1.476334e-09 -6.525269e-10) (7.053708e-04 4.679372e-08 -1.323798e-07))
956.155805    	((-3.633054e-06 1.752004e-06 -2.291185e-06) (-2.255342e-07 1.624603e-07 -1.609322e-07)) ((3.661362e-08 -9.568383e-10 -8.259300e-10) (7.078865e-04 9.261721e-08 -1.516659e-07))
997.138834    	((-4.226173e-06 1.773105e-06 -1.247192e-06) (-2.191381e-07 3.876404e-07 4.234905e-09)) ((3.646099e-08 -7.430787e-10 -4.855454e-10) (7.082597e-04 1.563280e-07 -1.579242e-07))
1037.71157    	((-4.985604e-06 7.422918e-07 4.279434e-08) (-1.809548e-07 2.100471e-07 1.635721e-07)) ((3.608283e-08 -3.800818e-10 -2.260757e-10) (7.072686e-04 2.230174e-07 -1.388847e-07))
1077.930483   	((-4.795879e-06 2.164284e-07 2.058151e-07) (-1.107282e-07 2.589696e-07 2.416050e-07)) ((3.520648e-08 -5.281272e-11 -6.885448e-11) (7.053971e-04 2.775218e-07 -9.233438e-08))
1117.900514   	((-5.152128e-06 3.382031e-07 -8.791816e-07) (-8.203423e-08 3.585073e-07 2.832421e-07)) ((3.465367e-08 1.028451e-10 -7.840496e-11) (7.029498e-04 3.054286e-07 -1.951787e-08))
1157.680663   	((-5.030642e-06 1.134333e-07 -2.754745e-07) (-1.193269e-07 3.764029e-07 4.348670e-07)) ((3.412272e-08 1.490489e-10 -2.720375e-10) (7.002000e-04 3.076570e-07 5.802032e-08))
1197.305618   	((-4.458095e-06 -4.772924e-07 -1.023386e-06) (-1.628403e-07 3.089404e-07 6.226677e-07)) ((3.373888e-08 1.381095e-10 -1.562247e-10) (6.975104e-04 2.837456e-07 1.269245e-07))
