# Forces      
# CofR        : (0.000000e+00 0.000000e+00 0.000000e+00)
# Time        forces(pressure viscous)	moments(pressure viscous)
0             	((0.000000e+00 0.000000e+00 0.000000e+00) (0.000000e+00 0.000000e+00 0.000000e+00)) ((0.000000e+00 0.000000e+00 0.000000e+00) (0.000000e+00 0.000000e+00 0.000000e+00))
0.012         	((2.790353e-06 -4.794281e-07 -5.726162e-05) (-3.911748e-10 -3.521402e-10 -5.293354e-09)) ((6.154683e-10 3.689022e-05 -1.570897e-09) (-9.614826e-11 1.910687e-03 4.698066e-12))
0.0264        	((-1.604521e-05 -6.217391e-07 6.301832e-05) (-2.089601e-09 -5.794226e-10 -7.353958e-09)) ((-4.991644e-10 1.638594e-05 -8.881285e-10) (-8.447729e-11 1.908861e-03 4.312614e-11))
0.04368       	((9.345064e-06 1.983929e-06 -1.171740e-05) (-3.502442e-09 -5.267956e-10 -7.949771e-09)) ((7.881152e-10 8.489353e-06 6.297708e-10) (2.423307e-11 1.906669e-03 1.207956e-10))
0.064416      	((-3.946175e-06 -1.145939e-06 1.497938e-05) (-3.850536e-09 -4.140927e-10 -7.867635e-09)) ((-5.676962e-10 3.890680e-06 -4.686692e-10) (1.302284e-10 1.904045e-03 2.057908e-10))
0.0892992     	((-5.247154e-07 1.281420e-06 -2.158100e-06) (-4.168790e-09 -4.063644e-10 -7.797192e-09)) ((5.484661e-10 2.619264e-06 1.978385e-10) (1.978885e-10 1.900902e-03 3.157598e-10))
0.119159      	((-2.548444e-06 3.820891e-07 5.079605e-06) (-4.420387e-09 -5.252585e-10 -7.975019e-09)) ((3.567647e-10 1.845802e-06 3.055181e-10) (2.144334e-10 1.897141e-03 4.523468e-10))
0.154991      	((-1.413964e-06 1.452646e-06 -2.166031e-06) (-4.168773e-09 -6.299255e-10 -8.079679e-09)) ((6.348429e-10 1.549014e-06 3.514134e-10) (2.499405e-10 1.892646e-03 5.516018e-10))
0.197989      	((-3.525059e-06 4.484214e-08 -8.089529e-07) (-3.527856e-09 -6.240825e-10 -8.367261e-09)) ((3.681606e-10 1.332218e-06 2.541029e-10) (3.275236e-10 1.887276e-03 6.534821e-10))
0.249587      	((-7.235867e-07 2.812359e-07 -8.412271e-07) (-3.007175e-09 -6.769896e-10 -8.454913e-09)) ((4.150087e-10 1.177633e-06 2.701847e-10) (3.867116e-10 1.880867e-03 7.808651e-10))
0.311504      	((-5.941290e-07 2.039790e-07 -7.805320e-07) (-3.019520e-09 -8.355759e-10 -8.291291e-09)) ((3.341377e-10 1.045538e-06 -2.252773e-11) (4.247565e-10 1.873224e-03 8.822686e-10))
0.385805      	((8.191145e-07 5.018311e-07 -6.605434e-07) (-3.350754e-09 -1.005498e-09 -7.888150e-09)) ((2.894396e-10 9.282620e-07 7.914268e-12) (4.475959e-10 1.864121e-03 9.740030e-10))
0.474966      	((-3.676753e-09 4.761111e-07 -3.695860e-07) (-3.844496e-09 -1.289838e-09 -7.232117e-09)) ((2.767791e-10 8.145345e-07 7.824615e-11) (4.213844e-10 1.853296e-03 1.109382e-09))
0.581959      	((9.064993e-07 4.090557e-07 -8.977735e-08) (-4.554696e-09 -1.689432e-09 -6.414577e-09)) ((1.906041e-10 7.066124e-07 -1.478490e-10) (3.463903e-10 1.840450e-03 1.214321e-09))
0.710351      	((1.287511e-07 2.743681e-07 1.225030e-07) (-5.371685e-09 -2.029079e-09 -5.711686e-09)) ((2.471001e-10 6.041916e-07 -1.902270e-10) (2.404606e-10 1.825242e-03 1.257353e-09))
0.864421      	((5.058834e-07 1.174713e-07 -2.928454e-07) (-6.109070e-09 -2.164097e-09 -5.263471e-09)) ((2.730176e-10 5.069819e-07 -1.420574e-10) (1.365425e-10 1.807293e-03 1.245805e-09))
1.049306      	((-7.331660e-08 6.812060e-08 -2.995888e-07) (-6.860214e-09 -2.139860e-09 -4.847811e-09)) ((1.785851e-10 4.331128e-07 -1.013968e-10) (2.489205e-11 1.786190e-03 1.183802e-09))
1.271167      	((5.670497e-07 4.207677e-09 -4.509108e-07) (-7.456978e-09 -1.997171e-09 -4.467817e-09)) ((1.763839e-10 3.823141e-07 -1.570913e-10) (-1.268642e-10 1.761500e-03 1.094478e-09))
1.5374        	((6.513940e-08 1.173398e-08 -6.837048e-08) (-7.966748e-09 -1.869906e-09 -4.178075e-09)) ((2.136479e-10 3.510897e-07 -1.369066e-10) (-3.259214e-10 1.732786e-03 1.014773e-09))
1.85688       	((2.590478e-07 3.464279e-08 -2.559176e-07) (-8.531536e-09 -1.996100e-09 -3.815302e-09)) ((1.948989e-10 3.292854e-07 -1.422002e-10) (-5.690852e-10 1.699638e-03 9.678271e-10))
2.240256      	((7.057812e-08 3.372380e-09 -6.789416e-09) (-9.170107e-09 -2.368130e-09 -3.526359e-09)) ((1.520597e-10 3.124601e-07 -1.102990e-10) (-8.589078e-10 1.661727e-03 9.588294e-10))
2.700307      	((1.601071e-07 1.457982e-07 8.649924e-08) (-9.369314e-09 -2.775675e-09 -2.990149e-09)) ((1.791013e-10 2.986441e-07 -1.370675e-10) (-1.156572e-09 1.618867e-03 9.998438e-10))
3.252369      	((-6.089794e-08 3.285678e-08 -1.005493e-08) (-8.094508e-09 -2.986788e-09 -2.340562e-09)) ((1.660634e-10 2.859256e-07 -8.171255e-11) (-1.389417e-09 1.571099e-03 1.053862e-09))
3.914842      	((-3.835515e-09 8.622710e-09 -1.233187e-07) (-4.850060e-09 -3.098416e-09 -2.304184e-09)) ((1.238351e-10 2.732393e-07 -8.838192e-11) (-1.592672e-09 1.518776e-03 1.148506e-09))
4.709811      	((1.132238e-07 5.257336e-08 -9.018833e-09) (-1.311962e-09 -3.332082e-09 -1.762199e-09)) ((5.403170e-11 2.596321e-07 -3.192892e-11) (-1.722139e-09 1.462618e-03 1.215019e-09))
5.663773      	((1.387049e-07 -1.060574e-07 1.374891e-09) (1.161499e-09 -3.390994e-09 -7.880281e-10)) ((2.423708e-11 2.458484e-07 -1.308437e-11) (-1.668914e-09 1.403704e-03 1.177866e-09))
6.808528      	((7.799176e-08 8.359063e-08 -7.282211e-08) (4.876772e-09 -4.131451e-09 3.286174e-10)) ((4.658468e-12 2.321759e-07 2.025334e-12) (-1.537411e-09 1.343336e-03 1.085448e-09))
8.182233      	((1.305651e-07 -3.688375e-08 -8.892345e-08) (1.255129e-08 -7.100396e-09 3.642364e-09)) ((2.951976e-11 2.190854e-07 5.065801e-11) (-1.463888e-09 1.282829e-03 8.669677e-10))
9.83068       	((3.572681e-08 3.821298e-08 -1.349160e-07) (1.783980e-08 -1.165021e-08 8.361465e-09)) ((6.864441e-11 2.054914e-07 7.522564e-11) (-1.412869e-09 1.223124e-03 4.105450e-10))
11.808816     	((1.125361e-07 -3.742200e-08 -6.116309e-08) (1.557328e-08 -1.655513e-08 1.411924e-08)) ((9.110122e-11 1.896547e-07 1.098909e-10) (-1.267675e-09 1.164343e-03 -2.073962e-11))
14.182579     	((-2.968591e-08 3.267702e-08 1.884605e-07) (4.842487e-09 -1.912825e-08 8.692492e-09)) ((5.140028e-11 1.701886e-07 7.119461e-11) (-1.100045e-09 1.104804e-03 -1.133195e-10))
17.031095     	((-9.946805e-08 -6.763523e-08 2.016728e-07) (-1.111016e-08 -1.757826e-08 -5.080949e-09)) ((-2.102602e-11 1.495264e-07 6.640598e-11) (-6.681759e-10 1.042840e-03 -1.822552e-10))
20.449314     	((-1.852869e-07 7.335199e-09 9.558879e-08) (-1.644769e-08 -1.336751e-08 -4.697564e-09)) ((-2.027959e-11 1.302442e-07 4.199149e-11) (-3.841563e-10 9.785702e-04 -4.718325e-10))
24.551176     	((-1.007810e-07 -6.171216e-09 2.953368e-07) (-9.973804e-10 -1.069170e-08 -2.080902e-09)) ((-4.739291e-11 1.164593e-07 5.444255e-11) (-1.948992e-10 9.132074e-04 -9.746159e-10))
29.473411     	((1.172830e-07 2.173953e-08 9.578448e-08) (1.660142e-08 -7.080711e-09 -1.286330e-08)) ((-1.564321e-11 1.087390e-07 7.862273e-11) (-2.449326e-10 8.483837e-04 -1.345943e-09))
35.380094     	((1.466783e-07 -1.531608e-08 9.412073e-08) (2.206182e-08 -3.540857e-09 -1.757777e-08)) ((-4.419877e-11 1.016736e-07 8.343671e-11) (-4.939148e-10 7.855820e-04 -1.660583e-09))
42.468112     	((-2.665426e-08 -3.448850e-08 2.050254e-07) (-6.660411e-09 -3.031349e-09 -1.791540e-08)) ((-2.311158e-11 9.396398e-08 3.965645e-11) (-7.769098e-10 7.257210e-04 -1.908333e-09))
50.973735     	((-3.822648e-08 -8.875103e-08 3.252814e-07) (-8.766514e-09 -4.191325e-09 -6.106598e-09)) ((4.112839e-11 8.545208e-08 -1.264306e-11) (-1.799884e-09 6.690171e-04 -1.854592e-09))
61.180482     	((3.440194e-07 -4.153773e-08 4.808193e-07) (-1.010941e-08 4.864537e-09 1.679584e-08)) ((1.928671e-11 7.282160e-08 -5.654787e-11) (-2.671206e-09 6.152702e-04 -5.702415e-11))
73.428578     	((4.094200e-07 -2.802935e-08 9.924041e-07) (5.232052e-08 8.901369e-09 3.860122e-08)) ((-7.542255e-12 5.819622e-08 1.198149e-11) (-3.621120e-09 5.646114e-04 2.907439e-09))
88.126294     	((6.860399e-07 4.458074e-08 9.306734e-07) (1.328631e-07 9.326817e-09 3.581609e-08)) ((-1.575019e-10 4.302120e-08 1.767319e-10) (-4.549580e-09 5.179113e-04 2.950134e-09))
105.763553    	((8.531013e-07 5.590446e-08 1.200876e-06) (8.905050e-08 3.112965e-08 3.296045e-08)) ((-1.446047e-10 3.122300e-08 1.155589e-10) (-4.849687e-09 4.759963e-04 -8.060749e-10))
126.928263    	((6.899679e-07 3.431609e-08 1.143581e-06) (3.436688e-08 1.465511e-08 8.356263e-08)) ((-2.095579e-10 2.086453e-08 1.555597e-10) (-6.083431e-09 4.391755e-04 -4.523013e-09))
152.325916    	((8.219992e-07 -3.040457e-08 1.080435e-06) (2.971040e-08 -1.782105e-08 1.471273e-07)) ((-4.537832e-10 1.411626e-08 4.801111e-10) (-1.022593e-08 4.074154e-04 -6.699017e-09))
182.803099    	((8.941022e-07 9.838384e-08 8.628354e-07) (-6.225929e-09 -1.384621e-08 1.906991e-07)) ((-4.331965e-10 1.021356e-08 4.813773e-10) (-1.803883e-08 3.803475e-04 -8.866029e-09))
219.375719    	((1.181033e-06 2.950838e-07 7.244422e-07) (7.318335e-08 -7.811827e-09 2.828024e-07)) ((-1.637176e-10 8.191359e-09 2.998383e-10) (-2.613249e-08 3.573674e-04 -1.180465e-08))
262.463489    	((1.193603e-06 3.138906e-07 5.575204e-07) (1.938111e-07 -1.807683e-08 3.549879e-07)) ((-1.271571e-10 6.890852e-09 1.833581e-10) (-3.327986e-08 3.380283e-04 -1.236029e-08))
312.124091    	((1.791448e-06 1.765384e-07 6.946728e-07) (2.967479e-07 -1.923994e-08 4.002803e-07)) ((-1.774426e-10 5.492121e-09 1.672147e-10) (-3.944143e-08 3.219477e-04 -7.655279e-09))
368.428338    	((1.524514e-06 9.343557e-08 9.108185e-07) (4.135726e-07 -3.054390e-08 4.146497e-07)) ((-1.896844e-10 4.578723e-09 1.541622e-10) (-4.134555e-08 3.086824e-04 1.024056e-09))
431.461075    	((1.557187e-06 -1.055406e-07 1.213454e-06) (3.871905e-07 -8.414855e-08 3.721180e-07)) ((-2.288484e-10 4.624410e-09 2.293106e-10) (-3.790061e-08 2.978500e-04 9.348983e-09))
499.817981    	((1.108321e-06 -2.482879e-07 1.160790e-06) (2.448101e-07 -7.909593e-08 2.567660e-07)) ((-1.974250e-10 4.698738e-09 2.534228e-10) (-3.174566e-08 2.893586e-04 1.471336e-08))
569.509294    	((1.155577e-06 -3.788400e-07 9.949541e-07) (3.071963e-08 -5.004442e-08 2.053509e-07)) ((-1.228368e-10 4.776398e-09 2.214604e-10) (-2.836718e-08 2.833253e-04 1.901476e-08))
640.727899    	((1.146232e-06 -4.352260e-07 8.231702e-07) (-2.141265e-08 -3.375527e-08 2.095945e-07)) ((4.333246e-11 5.305209e-09 1.715839e-10) (-2.650905e-08 2.794965e-04 2.481594e-08))
713.183268    	((1.146433e-06 -5.001447e-07 6.282867e-07) (-8.438229e-08 -4.589195e-12 1.980982e-07)) ((1.792438e-10 5.787134e-09 1.162562e-10) (-2.377919e-08 2.776807e-04 3.377162e-08))
786.802472    	((1.656422e-06 -4.431442e-07 4.272547e-07) (-1.350533e-07 3.165753e-08 2.020487e-07)) ((2.307299e-10 6.319139e-09 6.030537e-11) (-1.566329e-08 2.777048e-04 4.178136e-08))
861.015729    	((1.790071e-06 -3.410779e-07 8.934697e-07) (-9.886025e-08 5.093791e-08 2.595663e-07)) ((1.707886e-10 7.176185e-09 1.199206e-11) (-4.329201e-09 2.795098e-04 4.344207e-08))
934.89085     	((1.854775e-06 -2.942970e-07 8.614545e-07) (-7.416008e-08 5.951653e-08 2.510006e-07)) ((9.249903e-11 7.849194e-09 -8.800508e-11) (4.861553e-09 2.831099e-04 3.707279e-08))
1008.204916   	((2.049847e-06 -2.790692e-07 1.093439e-06) (2.069561e-08 6.930402e-08 2.127625e-07)) ((8.946920e-12 8.429202e-09 -2.310301e-10) (1.023811e-08 2.883654e-04 3.123630e-08))
1080.81638    	((1.788699e-06 -4.828781e-07 1.333630e-06) (1.293847e-07 4.779690e-08 6.236371e-08)) ((-8.169264e-12 8.859217e-09 -1.769187e-10) (2.304146e-09 2.949871e-04 2.404991e-08))
1152.64333    	((1.205365e-06 -7.144483e-07 1.288651e-06) (1.384608e-07 1.254068e-08 -7.694464e-08)) ((-8.511817e-11 9.017383e-09 -5.977961e-11) (-7.679775e-09 3.025589e-04 1.341647e-08))
1223.65313    	((4.049025e-08 -9.300769e-07 1.051325e-06) (1.355789e-07 -1.931435e-08 -1.487558e-07)) ((-1.190979e-10 8.829540e-09 1.233840e-11) (-1.790791e-08 3.102904e-04 6.359554e-09))
1293.903272   	((-1.351055e-06 -1.594998e-06 1.562223e-06) (-4.611099e-08 -4.221663e-08 -1.063571e-07)) ((-1.875536e-10 8.817848e-09 3.664036e-11) (-3.262424e-08 3.172294e-04 6.932211e-09))
1363.29915    	((-1.820850e-06 -1.994248e-06 1.002652e-06) (-7.671539e-08 -2.651003e-08 -6.604180e-08)) ((-1.832823e-10 9.215689e-09 -8.556292e-12) (-4.509094e-08 3.225598e-04 1.682554e-08))
1431.118633   	((-1.382593e-06 -1.563560e-06 6.143624e-07) (-5.381201e-08 -2.281380e-08 -1.750395e-08)) ((-2.041110e-10 8.990998e-09 8.682649e-11) (-5.328707e-08 3.260761e-04 2.950811e-08))
1497.594806   	((-1.228455e-06 -1.179510e-06 7.647784e-07) (-7.156845e-08 7.982117e-09 9.524211e-08)) ((-7.665486e-11 8.619476e-09 5.241570e-11) (-5.818728e-08 3.279316e-04 4.743104e-08))
1562.992445   	((-4.277727e-07 -1.543593e-06 7.435584e-07) (1.214383e-07 1.703923e-08 1.859515e-07)) ((-7.353273e-11 8.452118e-09 6.360124e-11) (-5.275460e-08 3.284263e-04 6.874455e-08))
1627.497533   	((-1.650134e-07 -1.405990e-06 4.850363e-07) (2.157219e-07 2.881556e-08 1.944772e-07)) ((-1.807535e-11 7.995633e-09 2.358895e-11) (-3.825603e-08 3.279746e-04 8.858163e-08))
1691.375546   	((-1.374236e-07 -1.376297e-06 1.574139e-07) (2.094367e-07 3.394899e-08 1.622523e-07)) ((-2.307223e-11 7.612743e-09 9.805225e-12) (-1.649985e-08 3.268743e-04 9.833974e-08))
1754.816622   	((2.176119e-10 -1.377086e-06 3.094445e-08) (2.543917e-07 1.610546e-08 1.444103e-07)) ((-7.435516e-11 7.539778e-09 6.696344e-11) (9.020279e-09 3.253779e-04 9.792062e-08))
1817.929749   	((-1.053696e-07 -1.116635e-06 -2.937935e-07) (2.596006e-07 3.596329e-09 1.370066e-07)) ((-1.166772e-10 7.342513e-09 5.083933e-11) (3.237340e-08 3.237403e-04 8.858337e-08))
1880.835062   	((-1.823189e-07 -8.671424e-07 -4.155875e-07) (2.254608e-07 8.386715e-09 8.720804e-08)) ((-7.563570e-11 7.179194e-09 3.206842e-12) (5.130550e-08 3.221104e-04 6.852235e-08))
