# Forces      
# CofR        : (0.000000e+00 0.000000e+00 0.000000e+00)
# Time        forces(pressure viscous)	moments(pressure viscous)
0             	((0.000000e+00 0.000000e+00 0.000000e+00) (0.000000e+00 0.000000e+00 0.000000e+00)) ((0.000000e+00 0.000000e+00 0.000000e+00) (0.000000e+00 0.000000e+00 0.000000e+00))
0.012         	((7.250996e-04 -2.588358e-04 -1.726701e-02) (3.890293e-07 -1.198543e-07 -2.207875e-06)) ((5.167089e-07 1.862643e-02 -8.222636e-07) (1.737265e-08 1.588464e+00 -4.001224e-08))
0.0264        	((-5.315509e-03 -7.224454e-04 2.036607e-02) (-8.565835e-06 -1.596872e-06 -4.465066e-06)) ((1.113301e-06 1.425268e-02 -3.978301e-07) (3.526207e-08 6.156810e+00 -3.870110e-07))
0.04368       	((2.784645e-03 5.026953e-04 -4.451948e-03) (-2.385643e-05 -1.526692e-06 -1.163902e-04)) ((7.860659e-07 1.448238e-02 -2.362808e-07) (6.015809e-07 6.536879e+00 -3.794104e-07))
0.064416      	((-4.650429e-03 -3.656841e-03 9.068046e-03) (-3.764603e-05 -2.265405e-06 -1.541028e-04)) ((6.954216e-07 1.342734e-02 -1.061448e-06) (7.116062e-07 6.376373e+00 -5.439471e-07))
0.0892992     	((2.610467e-03 1.027807e-03 1.038180e-03) (-6.585725e-05 -4.355242e-06 -1.999459e-04)) ((8.549257e-07 1.318586e-02 -1.130263e-06) (6.047975e-07 6.197067e+00 -2.199782e-07))
0.119159      	((-5.224971e-03 -1.528906e-03 6.591590e-03) (-1.027756e-04 -6.870023e-06 -2.521592e-04)) ((1.209906e-06 1.241019e-02 -1.158733e-06) (3.521826e-07 6.014070e+00 2.854688e-07))
0.154991      	((-1.108843e-03 8.290284e-04 4.710814e-03) (-1.467298e-04 -8.640631e-06 -3.006737e-04)) ((1.443291e-06 1.189352e-02 -7.740269e-07) (5.104031e-07 5.839930e+00 4.977447e-07))
0.197989      	((-4.493450e-03 -7.124643e-04 5.073468e-03) (-1.859128e-04 -9.609178e-06 -3.300487e-04)) ((7.714461e-07 1.125519e-02 -3.885681e-07) (7.706596e-07 5.683602e+00 5.766261e-07))
0.249587      	((-2.735754e-03 8.888111e-04 4.156149e-03) (-1.950621e-04 -1.021006e-05 -3.364464e-04)) ((6.600858e-07 1.081104e-02 -1.242552e-07) (4.822854e-07 5.544853e+00 8.504662e-07))
0.311504      	((-6.332867e-03 -1.399962e-04 1.618969e-03) (-2.078817e-04 -1.109961e-05 -3.451236e-04)) ((1.924101e-07 1.032876e-02 -3.954212e-07) (-3.042364e-07 5.411676e+00 1.643732e-06))
0.385805      	((3.680729e-04 6.895233e-05 1.368049e-03) (-2.312119e-04 -1.707158e-05 -3.633663e-04)) ((-1.407375e-07 9.789821e-03 -2.102406e-07) (-1.443669e-06 5.267571e+00 3.971878e-06))
0.474966      	((-4.978400e-03 -4.805581e-04 3.903325e-03) (-2.604562e-04 -2.583881e-05 -3.428387e-04)) ((-8.282166e-07 9.293204e-03 1.535434e-07) (-1.665962e-06 5.110168e+00 6.464173e-06))
0.581959      	((-4.126792e-03 -8.163198e-04 1.118832e-03) (-2.965411e-04 -3.110270e-05 -3.461160e-04)) ((-5.835926e-07 9.039971e-03 1.410899e-07) (2.382375e-06 4.949229e+00 7.217151e-06))
0.708013      	((7.456914e-04 -2.875975e-04 -2.783447e-03) (-3.784109e-04 -3.201787e-05 -3.044493e-04)) ((-9.838293e-07 8.927558e-03 2.811621e-07) (8.231362e-06 4.794566e+00 5.255222e-06))
0.853185      	((3.757326e-03 2.423567e-05 2.927226e-03) (-4.820220e-04 -2.534384e-05 -1.935484e-04)) ((-2.486514e-07 8.755890e-03 -2.657505e-07) (1.254842e-05 4.651573e+00 -3.126028e-07))
1.017521      	((2.401504e-03 -1.595816e-03 4.597862e-03) (-5.954016e-04 -2.891151e-05 -1.179922e-04)) ((5.181481e-07 8.494468e-03 -8.126261e-07) (1.481395e-05 4.521566e+00 -6.667657e-06))
1.201074      	((9.108044e-03 -2.745416e-03 6.173469e-03) (-6.518618e-04 -4.029579e-05 -5.260902e-05)) ((-2.777540e-07 8.153917e-03 -1.532061e-06) (1.399374e-05 4.401760e+00 -1.210289e-05))
1.393496      	((1.109959e-02 -3.157958e-03 8.066590e-03) (-6.327382e-04 -4.784844e-05 8.710442e-05)) ((-9.905582e-07 7.880418e-03 -1.971893e-06) (8.270960e-06 4.293453e+00 -8.702753e-06))
1.586515      	((8.332765e-03 -2.050956e-03 2.807532e-02) (-4.885559e-04 -5.679292e-05 3.785395e-04)) ((-2.995181e-06 7.703320e-03 6.375957e-07) (1.343911e-06 4.196683e+00 -5.811509e-07))
1.780167      	((8.837607e-03 -3.702248e-03 2.997581e-02) (-1.341999e-04 -7.957872e-05 5.538955e-04)) ((-3.188215e-06 7.587979e-03 2.056061e-06) (-2.738239e-06 4.109781e+00 1.940509e-06))
1.97457       	((1.785543e-02 2.617487e-03 3.048557e-02) (2.918806e-04 -1.165677e-04 5.663331e-04)) ((-5.706190e-06 7.447977e-03 5.091984e-06) (1.430563e-06 4.032456e+00 3.121407e-06))
2.170114      	((2.455332e-02 5.490033e-03 3.098112e-02) (5.023589e-04 -1.065381e-04 4.381563e-04)) ((-4.418209e-06 7.285408e-03 5.130710e-06) (8.772125e-06 3.964347e+00 -1.096091e-06))
2.367073      	((3.231071e-02 4.448382e-03 4.292169e-02) (5.852945e-04 -1.017249e-04 3.458006e-04)) ((-5.173461e-06 7.136995e-03 5.748597e-06) (6.621245e-06 3.904825e+00 -7.367540e-06))
2.565454      	((4.285461e-02 5.769150e-03 4.646028e-02) (5.817701e-04 -1.010169e-04 2.173715e-04)) ((-5.084101e-06 6.993464e-03 3.164258e-06) (-3.671115e-06 3.853445e+00 -1.556995e-05))
2.764625      	((3.826754e-02 3.307102e-03 3.913764e-02) (5.977175e-04 -1.067047e-04 5.347297e-05)) ((-4.739207e-06 6.831592e-03 2.317050e-06) (-1.823010e-05 3.810150e+00 -2.677079e-05))
2.964714      	((3.762941e-02 6.334603e-04 3.762776e-02) (6.473532e-04 -1.508313e-04 2.404232e-05)) ((-2.333593e-06 6.653568e-03 -3.091680e-06) (-3.522509e-05 3.774064e+00 -2.871972e-05))
3.165809      	((3.760504e-02 -2.459404e-03 3.607901e-02) (5.499915e-04 -1.488103e-04 -9.398290e-05)) ((-4.504640e-06 6.511004e-03 3.175637e-06) (-4.603164e-05 3.744114e+00 -2.181522e-05))
3.367998      	((3.599604e-02 -4.389191e-04 3.993190e-02) (4.050864e-04 -8.553730e-05 -2.012639e-04)) ((-1.665584e-06 6.408976e-03 -2.005908e-07) (-5.659607e-05 3.719307e+00 -1.806484e-05))
3.571418      	((4.098000e-02 3.949647e-03 4.688225e-02) (1.184603e-04 -7.220429e-05 -1.097624e-04)) ((-5.638871e-07 6.315160e-03 -1.253030e-05) (-7.003340e-05 3.699250e+00 -1.571821e-05))
3.775178      	((3.755965e-02 1.654726e-03 5.185368e-02) (-2.327937e-04 -1.084098e-04 7.268017e-05)) ((-5.752750e-07 6.235402e-03 -1.663150e-05) (-9.199665e-05 3.683836e+00 -1.587056e-05))
3.979073      	((3.670441e-02 3.281976e-03 4.608496e-02) (-3.609128e-04 -8.269410e-05 4.056056e-04)) ((-1.791280e-07 6.158447e-03 -1.160230e-05) (-1.241180e-04 3.672412e+00 2.415409e-06))
4.183151      	((3.409089e-02 6.064569e-03 4.123939e-02) (-3.702363e-04 -6.343990e-05 9.034312e-04)) ((-1.326113e-06 6.098659e-03 -7.867240e-06) (-1.377234e-04 3.664816e+00 3.943366e-05))
4.38744       	((4.453809e-02 5.153062e-03 4.241256e-02) (-3.866075e-04 -1.060070e-04 9.598195e-04)) ((1.055060e-06 6.053753e-03 -1.077474e-05) (-1.211838e-04 3.660848e+00 7.795797e-05))
4.591932      	((5.577108e-02 5.141760e-03 4.331346e-02) (-2.647547e-04 -1.514051e-04 1.178482e-03)) ((2.988494e-06 6.004866e-03 -6.286548e-06) (-9.681209e-05 3.660101e+00 1.101709e-04))
4.796654      	((5.790277e-02 9.628514e-03 5.337430e-02) (-5.561319e-05 -1.515107e-04 1.290608e-03)) ((2.994831e-06 5.957804e-03 -6.354325e-06) (-6.649620e-05 3.662697e+00 1.328670e-04))
5.001617      	((6.091450e-02 8.374395e-03 4.458213e-02) (1.475114e-04 -1.106853e-04 1.028909e-03)) ((3.333620e-06 5.927395e-03 -6.085310e-06) (-2.412579e-05 3.668681e+00 1.332358e-04))
5.206829      	((5.812755e-02 5.819708e-03 3.635882e-02) (9.163441e-05 -1.289618e-04 8.498464e-04)) ((3.184590e-06 5.903743e-03 -5.150980e-06) (6.854895e-06 3.677998e+00 9.106633e-05))
5.412322      	((4.469476e-02 6.378964e-04 3.208842e-02) (-3.329896e-04 -1.608316e-04 7.409488e-04)) ((7.693494e-08 5.909214e-03 7.244021e-07) (2.872775e-05 3.690534e+00 5.370439e-05))
5.618128      	((4.920153e-02 -3.359497e-03 1.768774e-02) (-3.772497e-04 -1.605421e-04 4.914850e-04)) ((-1.032940e-06 5.922619e-03 -4.787477e-07) (3.693467e-05 3.706145e+00 3.657002e-05))
5.824247      	((6.398140e-02 -5.801840e-03 1.423265e-02) (-3.105609e-04 -1.110987e-04 2.714538e-04)) ((-2.717837e-06 5.935751e-03 -3.881778e-06) (2.824452e-05 3.724412e+00 2.572493e-05))
6.030614      	((7.218703e-02 -9.033550e-03 2.570161e-02) (-6.285461e-04 -8.518463e-05 2.049674e-04)) ((-5.247053e-06 5.957302e-03 -1.742240e-06) (1.788732e-05 3.744891e+00 1.871653e-05))
