# Forces      
# CofR        : (0.000000e+00 0.000000e+00 0.000000e+00)
# Time        forces(pressure viscous)	moments(pressure viscous)
0             	((0.000000e+00 0.000000e+00 0.000000e+00) (0.000000e+00 0.000000e+00 0.000000e+00)) ((0.000000e+00 0.000000e+00 0.000000e+00) (0.000000e+00 0.000000e+00 0.000000e+00))
0.012         	((3.354325e-04 -5.831959e-05 -7.027699e-03) (-2.885206e-08 -2.116106e-07 -6.510672e-07)) ((1.162372e-07 5.736796e-03 -2.440020e-07) (-8.699432e-08 1.125209e+00 -4.188277e-08))
0.0264        	((-2.636162e-03 -8.444066e-05 7.362843e-03) (-1.922944e-06 -4.510708e-07 -1.292617e-05)) ((2.381255e-07 3.497920e-03 -2.224209e-07) (-1.499441e-07 1.333334e+00 -1.359528e-07))
0.04368       	((7.343532e-04 9.076973e-04 -1.723658e-03) (-5.277970e-06 -2.246379e-07 -1.643628e-05)) ((3.220390e-07 3.066685e-03 4.422775e-09) (8.666714e-08 1.320090e+00 4.974656e-08))
0.064416      	((-2.544898e-03 -1.122077e-03 1.906031e-03) (-7.571133e-06 3.078559e-07 -1.903134e-05)) ((7.592317e-08 2.753077e-03 -1.266083e-07) (2.636170e-07 1.303236e+00 -3.978302e-08))
0.0892992     	((2.956787e-04 5.179948e-04 -3.211762e-04) (-9.011185e-06 6.305819e-07 -2.243872e-05)) ((1.088766e-07 2.673539e-03 -1.095282e-07) (4.440282e-07 1.283826e+00 -1.048680e-07))
0.119159      	((-1.075698e-03 -6.904995e-04 1.399487e-03) (-1.099235e-05 6.602225e-07 -2.679131e-05)) ((1.549939e-07 2.525923e-03 -2.692710e-07) (5.980036e-07 1.261824e+00 -1.226123e-07))
0.154991      	((-1.417859e-05 3.825819e-05 6.956596e-04) (-1.432437e-05 5.874301e-07 -3.265570e-05)) ((2.073274e-07 2.434925e-03 -3.006114e-07) (7.187099e-07 1.237468e+00 -9.680598e-08))
0.197989      	((-3.260219e-04 -3.427553e-04 7.758284e-04) (-1.901708e-05 4.338230e-07 -4.018743e-05)) ((2.349464e-07 2.311425e-03 -3.135708e-07) (7.808248e-07 1.211312e+00 -8.612329e-09))
0.249587      	((-1.175895e-04 2.432346e-05 9.779829e-04) (-2.393564e-05 3.437541e-07 -4.857653e-05)) ((1.232586e-07 2.197094e-03 -1.789887e-07) (7.988041e-07 1.184238e+00 1.775730e-08))
0.311504      	((-4.128623e-04 -8.504706e-05 9.804182e-04) (-2.828546e-05 1.942227e-07 -5.651057e-05)) ((1.622330e-07 2.072369e-03 -9.366616e-08) (8.025529e-07 1.157285e+00 5.001648e-08))
0.385805      	((-1.208210e-04 1.163624e-04 1.002047e-03) (-3.090972e-05 9.626020e-08 -6.125609e-05)) ((1.347515e-07 1.962522e-03 -8.121123e-08) (8.033203e-07 1.131265e+00 9.390014e-08))
0.474966      	((-7.968624e-04 1.374889e-04 4.970021e-04) (-3.014753e-05 8.256414e-08 -6.425100e-05)) ((6.884212e-08 1.861395e-03 -5.155107e-08) (8.528175e-07 1.106384e+00 1.073271e-07))
0.581959      	((-1.208322e-03 2.013435e-04 4.350429e-04) (-2.955715e-05 -1.893593e-07 -6.885641e-05)) ((5.621762e-08 1.769778e-03 -6.996293e-08) (8.527546e-07 1.081709e+00 1.172190e-07))
0.710351      	((-1.584268e-04 1.548099e-04 4.468572e-04) (-3.286068e-05 -1.035589e-06 -7.234370e-05)) ((4.098296e-08 1.669658e-03 -5.117124e-08) (6.556439e-07 1.055249e+00 2.912576e-07))
0.864421      	((-3.059414e-04 4.531913e-05 3.732185e-04) (-3.673687e-05 -2.143945e-06 -6.935876e-05)) ((-5.634326e-08 1.576632e-03 3.089035e-09) (4.793666e-07 1.026121e+00 5.862590e-07))
1.049306      	((-5.781746e-04 -1.422272e-04 3.724635e-04) (-4.137268e-05 -3.235473e-06 -7.150233e-05)) ((-1.546930e-07 1.507598e-03 6.065412e-08) (6.832361e-07 9.951644e-01 6.396633e-07))
1.271167      	((-7.768211e-04 -1.615514e-04 3.567498e-05) (-5.216359e-05 -3.200694e-06 -7.525440e-05)) ((-1.858320e-07 1.467929e-03 2.943234e-08) (1.325078e-06 9.635686e-01 4.098110e-07))
1.5374        	((2.976434e-04 1.138525e-04 -1.243916e-05) (-6.756792e-05 -2.882445e-06 -5.756226e-05)) ((-1.025237e-07 1.436568e-03 -3.463494e-09) (1.684792e-06 9.323121e-01 -5.204429e-08))
1.851707      	((1.832054e-04 7.418405e-05 1.089404e-03) (-8.716403e-05 -2.760768e-06 -4.082013e-05)) ((5.930593e-08 1.395161e-03 -1.746152e-07) (2.184548e-06 9.026271e-01 -9.601141e-07))
2.214237      	((9.755013e-04 -2.982085e-04 8.417755e-04) (-1.112456e-04 -5.014407e-06 -3.632134e-05)) ((1.034140e-07 1.341489e-03 -1.212715e-07) (2.832958e-06 8.751680e-01 -2.077999e-06))
2.625066      	((2.274994e-03 -4.793906e-04 2.105136e-03) (-1.213225e-04 -6.399662e-06 -2.371029e-05)) ((1.105030e-07 1.279299e-03 -3.826485e-07) (2.557341e-06 8.495079e-01 -2.663823e-06))
3.084291      	((1.554004e-03 -5.813576e-04 3.091644e-03) (-1.168645e-04 -9.468101e-06 1.402064e-05)) ((-1.992214e-07 1.224778e-03 -3.018030e-07) (1.107084e-06 8.252268e-01 -1.891298e-06))
3.570095      	((1.506805e-03 -5.463330e-04 5.441339e-03) (-7.612126e-05 -1.105221e-05 6.401942e-05)) ((-6.705936e-07 1.187283e-03 2.106341e-07) (-1.568577e-07 8.031477e-01 -1.675471e-06))
4.057921      	((1.765745e-03 -5.652910e-04 5.751147e-03) (-2.874331e-07 -1.664347e-05 9.675656e-05)) ((-8.231915e-07 1.152772e-03 4.282983e-07) (-7.358391e-07 7.839375e-01 -1.602288e-06))
4.548641      	((4.071350e-03 6.231483e-04 6.377478e-03) (7.463398e-05 -1.900322e-05 8.932785e-05)) ((-6.972419e-07 1.114679e-03 5.453327e-07) (-5.075936e-07 7.673048e-01 -1.540376e-06))
5.043233      	((5.084844e-03 7.728269e-04 6.772571e-03) (1.041405e-04 -1.179462e-05 6.877010e-05)) ((-7.875796e-07 1.080180e-03 9.117843e-07) (-2.267234e-06 7.530468e-01 -2.521441e-06))
5.542145      	((7.198064e-03 8.123020e-04 6.914221e-03) (1.057806e-04 -1.460646e-05 5.415258e-05)) ((-4.865002e-07 1.049811e-03 6.154545e-07) (-5.042285e-06 7.409961e-01 -3.781233e-06))
6.04341       	((7.385493e-03 8.867510e-04 6.759343e-03) (1.195379e-04 -1.728147e-05 4.248686e-05)) ((-8.382241e-07 1.020150e-03 5.224054e-07) (-7.270927e-06 7.310244e-01 -4.479676e-06))
6.547455      	((6.483686e-03 5.782904e-04 6.846980e-03) (1.373894e-04 -2.733002e-05 3.563996e-05)) ((-7.034179e-07 9.853585e-04 -1.123693e-07) (-9.536673e-06 7.228704e-01 -2.608671e-06))
7.054667      	((7.141093e-03 2.797264e-04 7.289387e-03) (1.425750e-04 -2.794618e-05 8.821605e-06)) ((-1.172610e-06 9.555061e-04 4.070579e-07) (-1.131422e-05 7.162315e-01 -2.653544e-08))
7.56527       	((6.873026e-03 4.085139e-04 8.232701e-03) (9.927620e-05 -2.798103e-05 -7.606125e-06)) ((-7.182935e-07 9.350913e-04 -6.147641e-07) (-1.262805e-05 7.108867e-01 2.580011e-07))
8.077167      	((5.613266e-03 8.381553e-04 8.342203e-03) (4.066485e-05 -2.643433e-05 5.344008e-06)) ((-9.070685e-07 9.225566e-04 -2.400313e-06) (-1.395198e-05 7.067279e-01 1.579185e-06))
8.589408      	((4.820510e-03 7.194622e-04 9.188829e-03) (6.258863e-06 -2.699041e-05 3.938679e-05)) ((-7.605727e-07 9.122477e-04 -2.214551e-06) (-1.629952e-05 7.036255e-01 2.294287e-06))
9.102082      	((4.385798e-03 6.446875e-04 9.525989e-03) (-8.327506e-05 -2.793346e-05 1.113132e-04)) ((7.358459e-08 9.053924e-04 -1.338283e-06) (-1.972604e-05 7.014771e-01 2.014961e-06))
9.615352      	((4.334338e-03 7.030780e-04 8.636335e-03) (-1.099606e-04 -1.933875e-05 1.645209e-04)) ((-9.037447e-08 8.964840e-04 -1.201829e-06) (-2.068683e-05 7.001788e-01 4.966346e-06))
10.129288     	((7.479842e-03 9.696987e-04 1.027851e-02) (-4.896806e-05 -8.949028e-06 2.129673e-04)) ((1.074250e-07 8.882129e-04 -1.436411e-06) (-1.990509e-05 6.996086e-01 8.245041e-06))
10.643874     	((8.907642e-03 1.330139e-03 9.734720e-03) (-2.495041e-05 -7.788749e-06 2.063502e-04)) ((3.502504e-07 8.810126e-04 -1.339370e-06) (-2.004709e-05 6.998043e-01 1.256590e-05))
11.159117     	((9.565894e-03 1.086247e-03 1.102501e-02) (-1.560199e-06 -7.530228e-06 2.425925e-04)) ((4.316835e-07 8.752563e-04 -2.481540e-07) (-1.800765e-05 7.008158e-01 1.411898e-05))
11.675113     	((1.082068e-02 1.196848e-03 1.015142e-02) (4.404659e-05 -7.397638e-06 2.370721e-04)) ((4.171360e-07 8.699933e-04 3.269804e-07) (-1.333505e-05 7.026072e-01 1.386242e-05))
12.19195      	((9.282353e-03 9.723210e-05 8.538413e-03) (3.395279e-07 -1.831035e-05 1.574339e-04)) ((-3.353036e-08 8.684670e-04 1.201891e-06) (-1.015374e-05 7.051550e-01 1.577274e-05))
12.709708     	((1.036283e-02 -2.658266e-04 6.670029e-03) (7.205161e-06 -1.083335e-05 9.238605e-05)) ((-5.712525e-07 8.703568e-04 8.043699e-07) (-4.747853e-06 7.084120e-01 1.788513e-05))
13.228383     	((1.260239e-02 -9.310135e-04 5.451880e-03) (-1.996149e-05 9.640475e-06 6.785281e-06)) ((-4.266256e-07 8.729379e-04 -1.622109e-07) (-6.251338e-07 7.123103e-01 1.899101e-05))
13.747874     	((1.226983e-02 -1.727063e-03 4.633302e-03) (-1.038256e-04 1.412523e-05 -6.696548e-05)) ((-4.187508e-07 8.770158e-04 9.653423e-09) (8.313073e-08 7.167634e-01 1.602687e-05))
14.267985     	((1.345614e-02 -3.648477e-03 5.679569e-03) (-1.535922e-04 1.616128e-05 -1.302938e-04)) ((-2.088397e-06 8.878025e-04 9.894234e-08) (1.748644e-06 7.216521e-01 8.399519e-06))
14.788713     	((1.660034e-02 -3.821592e-03 3.215059e-03) (-1.677828e-04 2.954439e-05 -1.519245e-04)) ((-2.145395e-06 9.010811e-04 4.099891e-07) (2.711192e-06 7.267382e-01 3.912173e-06))
15.310075     	((1.771728e-02 -3.508349e-03 4.566546e-03) (-1.917426e-04 2.809651e-05 -1.598195e-04)) ((-1.769399e-06 9.088842e-04 1.298109e-06) (2.616068e-06 7.317045e-01 2.968258e-06))
