# Forces      
# CofR        : (0.000000e+00 0.000000e+00 0.000000e+00)
# Time        forces(pressure viscous)	moments(pressure viscous)
0             	((0.000000e+00 0.000000e+00 0.000000e+00) (0.000000e+00 0.000000e+00 0.000000e+00)) ((0.000000e+00 0.000000e+00 0.000000e+00) (0.000000e+00 0.000000e+00 0.000000e+00))
0.012         	((1.399792e-04 -2.096426e-04 8.194963e-04) (-2.984705e-08 3.384214e-07 -2.801267e-07)) ((-1.865690e-02 -3.302194e-06 6.471734e-05) (-1.588461e+00 4.453053e-07 -5.376663e-06))
0.0264        	((-1.249556e-03 -4.701588e-03 1.694755e-03) (2.917974e-06 5.534883e-06 -3.505710e-06)) ((-1.424000e-02 -1.204905e-05 4.462507e-05) (-6.156855e+00 -5.624747e-06 -6.381369e-06))
0.04368       	((-8.621146e-04 4.670742e-04 3.698816e-04) (8.362725e-06 4.776214e-06 -4.982832e-06)) ((-1.447137e-02 -7.879202e-07 4.844014e-05) (-6.536727e+00 -3.364809e-05 -8.981791e-06))
0.064416      	((-1.916554e-03 -5.474121e-03 -2.118310e-03) (1.242818e-05 6.694869e-06 -3.234894e-06)) ((-1.343034e-02 6.212299e-08 4.148321e-05) (-6.376132e+00 -7.043549e-05 -1.911142e-05))
0.0892992     	((4.741923e-04 3.190067e-04 8.560698e-04) (1.067365e-05 1.834903e-05 -1.182856e-06)) ((-1.318595e-02 1.935801e-06 4.616406e-05) (-6.196742e+00 -1.046181e-04 -4.063368e-05))
0.119159      	((-7.716449e-04 -2.776511e-03 -2.463073e-03) (8.469863e-06 3.051129e-05 -4.202660e-06)) ((-1.241720e-02 2.902185e-06 4.053112e-05) (-6.013683e+00 -1.369124e-04 -6.287094e-05))
0.154991      	((-3.642829e-04 -1.005811e-04 1.387973e-03) (5.808716e-06 3.590876e-05 -9.401212e-06)) ((-1.189678e-02 2.527387e-06 3.685998e-05) (-5.839493e+00 -1.667934e-04 -7.714088e-05))
0.197989      	((-2.546891e-05 -1.696306e-03 -7.515565e-04) (1.096671e-06 3.967840e-05 -1.434518e-05)) ((-1.125798e-02 3.365814e-06 3.624737e-05) (-5.683111e+00 -1.925015e-04 -8.448584e-05))
0.249587      	((3.185959e-04 -1.460368e-04 1.535747e-03) (-5.056417e-06 4.303151e-05 -2.102013e-05)) ((-1.081134e-02 9.179821e-07 3.665434e-05) (-5.544293e+00 -2.150155e-04 -7.889459e-05))
0.311504      	((-7.507350e-04 -1.775919e-03 -9.664712e-04) (-9.999684e-06 4.676623e-05 -2.854847e-05)) ((-1.032752e-02 1.537404e-06 3.919072e-05) (-5.411022e+00 -2.352884e-04 -6.371081e-05))
0.385805      	((-1.321162e-03 -9.489346e-04 -2.427294e-04) (-1.387060e-05 5.245519e-05 -3.552801e-05)) ((-9.790190e-03 4.355588e-06 3.430620e-05) (-5.266804e+00 -2.507446e-04 -4.499675e-05))
0.474966      	((-1.872442e-03 -1.829534e-04 -8.905459e-04) (-1.559288e-05 6.080317e-05 -4.263619e-05)) ((-9.294161e-03 5.649725e-06 2.767767e-05) (-5.109362e+00 -2.569662e-04 -8.544019e-06))
0.581959      	((-2.347358e-03 -2.122588e-03 -9.716726e-04) (-1.121910e-05 6.972638e-05 -6.418912e-05)) ((-9.034115e-03 2.616474e-06 2.845689e-05) (-4.948493e+00 -2.704952e-04 3.922041e-05))
0.707999      	((-1.732418e-03 -3.701894e-03 -3.643918e-03) (-5.789251e-06 6.256873e-05 -8.353559e-05)) ((-8.924522e-03 1.782028e-06 2.664313e-05) (-4.794001e+00 -2.781025e-04 7.840976e-05))
0.853144      	((-1.538803e-03 -3.275409e-03 -6.887535e-04) (-1.290375e-06 4.197818e-05 -1.103849e-04)) ((-8.756847e-03 -1.611739e-06 2.894025e-05) (-4.651253e+00 -2.523988e-04 1.307800e-04))
1.017435      	((-2.453902e-03 -2.597875e-03 1.318781e-03) (-4.461188e-06 9.734496e-06 -1.433309e-04)) ((-8.501533e-03 -4.715205e-06 2.700175e-05) (-4.521429e+00 -2.004334e-04 1.959456e-04))
1.200907      	((-3.860689e-03 4.688144e-03 3.559947e-03) (-1.286267e-05 -7.953645e-06 -1.509751e-04)) ((-8.166792e-03 -3.987456e-06 1.943433e-05) (-4.401702e+00 -1.370013e-04 2.538450e-04))
1.392985      	((-6.231669e-03 8.967616e-03 9.557211e-03) (-2.033546e-05 1.758334e-05 -1.623760e-04)) ((-7.896301e-03 -4.098571e-06 2.253872e-05) (-4.293506e+00 -2.743687e-05 2.835917e-04))
1.585677      	((-6.355517e-03 5.672367e-03 2.109950e-02) (-7.407292e-06 8.990647e-05 -1.498871e-04)) ((-7.722326e-03 6.776842e-06 2.338130e-05) (-4.196811e+00 1.024348e-04 2.355465e-04))
1.779067      	((-7.435562e-03 7.222667e-03 2.432003e-02) (-6.316122e-06 4.552886e-05 -1.967271e-04)) ((-7.609124e-03 1.239230e-05 2.309317e-05) (-4.109964e+00 1.597021e-04 1.416189e-04))
1.973368      	((-4.201378e-03 7.771467e-03 2.431540e-02) (-1.453223e-05 7.855151e-05 -2.744554e-04)) ((-7.475696e-03 1.479352e-05 1.355381e-05) (-4.032629e+00 1.601134e-04 7.923140e-05))
2.168789      	((-6.646450e-04 1.299102e-02 2.607551e-02) (-1.165158e-05 1.307555e-04 -3.579010e-04)) ((-7.316424e-03 1.711559e-05 1.292414e-05) (-3.964483e+00 1.665245e-04 3.964969e-05))
2.365465      	((-2.178494e-03 2.723268e-02 3.536882e-02) (-3.188169e-05 5.274168e-05 -3.481927e-04)) ((-7.167846e-03 1.957069e-05 1.248252e-05) (-3.904989e+00 1.711537e-04 1.157961e-05))
2.563694      	((-2.778886e-03 3.739832e-02 4.068474e-02) (-6.490302e-05 2.787093e-05 -1.351791e-04)) ((-7.019927e-03 2.231191e-05 7.401154e-06) (-3.853707e+00 1.511796e-04 1.390379e-05))
2.762782      	((-7.067290e-03 3.090251e-02 4.371720e-02) (-8.317866e-05 5.820617e-05 -1.636957e-04)) ((-6.862204e-03 1.527800e-05 1.097537e-05) (-3.810218e+00 1.421005e-04 3.947925e-05))
2.962808      	((-6.767515e-03 2.368651e-02 4.052892e-02) (-8.129939e-05 2.097113e-05 -1.087081e-04)) ((-6.689239e-03 1.331540e-05 1.076707e-05) (-3.773866e+00 1.219867e-04 5.482393e-05))
3.163875      	((-9.807843e-03 1.783043e-02 4.507157e-02) (-1.053019e-04 -1.224489e-04 -4.156373e-05)) ((-6.542192e-03 1.938127e-05 9.998088e-06) (-3.744004e+00 7.457119e-05 2.496640e-05))
3.366016      	((-9.956666e-03 2.437530e-02 4.660207e-02) (-1.312933e-04 -1.717224e-04 1.098546e-04)) ((-6.429407e-03 1.597841e-05 1.231229e-05) (-3.719234e+00 4.985554e-05 -8.909120e-06))
3.569355      	((-4.918747e-03 3.617895e-02 5.213356e-02) (-1.226944e-04 -1.333679e-04 3.992749e-04)) ((-6.332798e-03 1.251497e-05 2.281836e-05) (-3.698954e+00 3.505923e-05 -2.039247e-05))
3.77308       	((-6.679807e-03 3.548200e-02 5.161098e-02) (-1.616991e-04 -1.472268e-04 4.484500e-04)) ((-6.241811e-03 1.300863e-05 2.099659e-05) (-3.683415e+00 8.664023e-07 -2.452032e-06))
3.976933      	((-5.855696e-03 3.582834e-02 4.376799e-02) (-1.765959e-04 -1.404236e-04 6.412375e-04)) ((-6.166469e-03 1.054976e-05 1.817278e-05) (-3.672077e+00 -9.774032e-07 3.708747e-05))
4.180964      	((-2.470923e-03 3.346621e-02 3.852968e-02) (-1.412173e-04 -2.215859e-04 9.981001e-04)) ((-6.104392e-03 1.447166e-05 1.269456e-05) (-3.664531e+00 4.060955e-05 5.921446e-05))
4.385205      	((-2.310250e-03 3.632130e-02 3.849448e-02) (-1.780856e-04 -4.196597e-04 9.428272e-04)) ((-6.055205e-03 1.253722e-05 1.424062e-05) (-3.660468e+00 6.622756e-05 4.192897e-05))
4.589678      	((-2.281341e-03 5.873855e-02 4.294114e-02) (-2.236996e-04 -2.011263e-04 1.226128e-03)) ((-6.001196e-03 1.095240e-05 1.358800e-05) (-3.659607e+00 9.443368e-05 2.164144e-05))
4.794402      	((2.017696e-03 6.093060e-02 5.158695e-02) (-2.428132e-04 -7.265626e-06 1.298197e-03)) ((-5.954200e-03 1.574471e-05 1.179589e-05) (-3.662189e+00 1.348545e-04 -2.243210e-05))
4.999381      	((5.025409e-04 6.938127e-02 4.167984e-02) (-1.883539e-04 2.856760e-04 9.556366e-04)) ((-5.926823e-03 1.377720e-05 9.567321e-06) (-3.668333e+00 1.351627e-04 -7.691025e-05))
5.204606      	((-5.723293e-04 7.954415e-02 2.098364e-02) (-2.367383e-04 4.147994e-04 5.452823e-04)) ((-5.902685e-03 1.107963e-05 1.532720e-06) (-3.677749e+00 1.090218e-04 -9.981344e-05))
5.41011       	((-6.165080e-03 7.496754e-02 1.307741e-02) (-2.820743e-04 2.537515e-04 2.507290e-04)) ((-5.906408e-03 9.166602e-06 -9.627203e-06) (-3.690257e+00 7.100276e-05 -1.049601e-04))
5.615927      	((-7.579144e-03 7.913163e-02 4.030119e-03) (-2.626862e-04 1.333080e-04 -6.946819e-05)) ((-5.914073e-03 3.549367e-06 -8.460576e-06) (-3.705845e+00 3.245329e-05 -1.035542e-04))
5.82203       	((-9.032093e-03 8.151398e-02 4.441339e-03) (-2.397223e-04 -3.142546e-04 -3.118311e-04)) ((-5.928130e-03 7.176173e-07 -2.481943e-06) (-3.724222e+00 2.076291e-05 -9.816618e-05))
6.02837       	((-1.483954e-02 6.517777e-02 1.686632e-02) (-2.397020e-04 -1.025731e-03 -3.130973e-04)) ((-5.957867e-03 -5.884136e-06 -5.836388e-06) (-3.744911e+00 5.797775e-06 -1.001782e-04))
