# Forces      
# CofR        : (0.000000e+00 0.000000e+00 0.000000e+00)
# Time        forces(pressure viscous)	moments(pressure viscous)
0             	((0.000000e+00 0.000000e+00 0.000000e+00) (0.000000e+00 0.000000e+00 0.000000e+00)) ((0.000000e+00 0.000000e+00 0.000000e+00) (0.000000e+00 0.000000e+00 0.000000e+00))
0.012         	((1.052191e-04 1.942369e-03 1.541231e-06) (8.912287e-09 5.109751e-07 3.101389e-09)) ((-4.167857e-06 6.577973e-09 1.202889e-03) (1.164436e-07 -3.379351e-08 1.347640e-01))
0.0264        	((3.287745e-04 -1.582993e-03 -1.693838e-06) (5.389168e-08 6.521262e-07 -4.848785e-08)) ((-2.030794e-06 5.802953e-08 5.862641e-04) (1.145090e-07 -4.588499e-08 1.344156e-01))
0.04368       	((2.913401e-04 1.146890e-03 1.271127e-04) (4.753418e-08 6.360834e-07 -8.327521e-08)) ((-2.665028e-06 2.891434e-07 3.858527e-04) (1.783383e-07 -9.421671e-08 1.338715e-01))
0.064416      	((2.969911e-04 -6.108280e-04 -8.203685e-05) (9.945617e-09 6.026533e-07 -7.166043e-08)) ((-2.024531e-06 1.174867e-07 2.689615e-04) (2.799470e-07 -2.013523e-07 1.332268e-01))
0.0892992     	((1.307784e-04 3.759496e-04 6.192512e-05) (-9.847473e-08 4.125580e-07 -6.472807e-08)) ((-1.937239e-06 2.256058e-07 2.446164e-04) (2.836406e-07 -2.550389e-07 1.324627e-01))
0.119159      	((1.002537e-04 1.177772e-04 -7.931285e-06) (-2.097396e-07 1.542632e-07 -7.218632e-08)) ((-1.868918e-06 -1.127682e-07 2.241714e-04) (2.204800e-07 -3.158319e-07 1.315597e-01))
0.154991      	((-8.143709e-06 4.992186e-05 4.221550e-06) (-2.581727e-07 -9.919882e-08 -1.120928e-07)) ((-1.809980e-06 -2.631979e-07 2.144936e-04) (5.456795e-08 -4.597843e-07 1.304961e-01))
0.197989      	((2.871363e-05 1.184111e-04 8.240363e-06) (-2.811172e-07 -3.216214e-07 -1.839508e-07)) ((-1.675521e-06 -1.603403e-07 2.042294e-04) (-2.112049e-07 -6.340083e-07 1.292501e-01))
0.249587      	((3.256387e-05 6.983745e-05 2.688819e-05) (-3.004861e-07 -4.692009e-07 -3.022527e-07)) ((-1.502389e-06 8.000824e-08 1.955668e-04) (-4.612934e-07 -7.670038e-07 1.278014e-01))
0.311504      	((-4.677234e-05 6.838364e-05 -1.222173e-05) (-3.521926e-07 -5.372971e-07 -4.557649e-07)) ((-1.380330e-06 2.519850e-07 1.872179e-04) (-6.396590e-07 -8.998592e-07 1.261341e-01))
0.385805      	((-6.260796e-05 2.465546e-05 -6.288502e-06) (-4.798029e-07 -5.370274e-07 -6.356004e-07)) ((-1.172044e-06 3.450891e-07 1.792641e-04) (-7.699917e-07 -1.287820e-06 1.242412e-01))
0.474966      	((-1.179227e-04 -8.114916e-06 -1.402872e-05) (-6.659503e-07 -5.051669e-07 -8.022348e-07)) ((-1.025532e-06 4.075860e-07 1.710874e-04) (-7.711343e-07 -1.969713e-06 1.221295e-01))
0.581959      	((-5.545915e-05 1.944503e-06 -4.257252e-06) (-7.928282e-07 -4.251436e-07 -9.066568e-07)) ((-8.986967e-07 3.267364e-07 1.629811e-04) (-6.364463e-07 -2.748798e-06 1.198245e-01))
0.710351      	((-3.176025e-05 -1.976398e-05 -3.132948e-05) (-8.372516e-07 -2.704158e-07 -9.417627e-07)) ((-8.712014e-07 2.130247e-07 1.547485e-04) (-4.118991e-07 -3.403238e-06 1.173743e-01))
0.864421      	((3.508810e-05 1.763496e-05 1.354840e-07) (-7.721114e-07 -1.033850e-07 -9.306377e-07)) ((-7.927999e-07 1.530133e-07 1.461101e-04) (-1.417017e-07 -3.784659e-06 1.148433e-01))
1.049306      	((3.623514e-05 2.520662e-07 -2.079865e-05) (-6.134038e-07 1.012335e-07 -8.916391e-07)) ((-7.635321e-07 1.833921e-07 1.375308e-04) (1.080198e-07 -3.924356e-06 1.122975e-01))
1.271167      	((4.516928e-05 1.747132e-05 -6.061221e-07) (-4.456066e-07 3.027455e-07 -8.877483e-07)) ((-7.090538e-07 1.593076e-07 1.298467e-04) (2.218852e-07 -3.791993e-06 1.097811e-01))
1.5374        	((7.062881e-05 1.192805e-05 -1.181734e-05) (-2.924626e-07 4.126317e-07 -9.785543e-07)) ((-6.502139e-07 1.365616e-07 1.227039e-04) (1.812726e-07 -3.448457e-06 1.072956e-01))
1.85688       	((1.006456e-04 1.374070e-05 8.510810e-06) (-2.513276e-07 5.008857e-07 -1.077043e-06)) ((-6.058179e-07 8.594241e-08 1.153480e-04) (7.104862e-08 -3.085892e-06 1.047167e-01))
2.240256      	((8.543997e-05 1.114939e-06 -6.227150e-06) (-4.298130e-07 5.397331e-07 -1.167703e-06)) ((-5.546542e-07 4.804170e-08 1.079737e-04) (-1.398359e-07 -2.565828e-06 1.018981e-01))
2.700307      	((6.299795e-05 -1.204409e-05 -4.791750e-06) (-5.059515e-07 3.981408e-07 -1.291796e-06)) ((-5.177466e-07 -1.666460e-08 1.014306e-04) (-1.642749e-07 -1.557834e-06 9.882284e-02))
3.252369      	((6.607231e-06 -1.354628e-05 -4.013746e-06) (-6.884235e-07 3.709561e-08 -1.463559e-06)) ((-4.055747e-07 1.313074e-08 9.683604e-05) (2.642440e-07 -4.921105e-07 9.556705e-02))
3.914842      	((-3.862871e-05 -2.155028e-05 1.380428e-05) (-8.117858e-07 -4.387894e-07 -1.581524e-06)) ((-3.600555e-07 8.586007e-10 9.419723e-05) (1.003746e-06 4.496948e-07 9.223380e-02))
4.709811      	((-6.223740e-05 -2.829985e-05 1.092966e-05) (-6.632257e-07 -1.249736e-06 -1.441794e-06)) ((-3.750180e-07 2.276358e-08 9.141665e-05) (1.725351e-06 1.482487e-06 8.892297e-02))
5.663773      	((3.213603e-05 -1.327804e-05 2.009978e-05) (-2.879394e-07 -3.052071e-06 -1.037318e-06)) ((-3.292321e-07 2.513368e-08 8.767493e-05) (2.136614e-06 2.280534e-06 8.571885e-02))
6.808528      	((8.149738e-05 5.764157e-05 -1.544951e-05) (1.054354e-06 -5.735524e-06 -7.184765e-07)) ((-3.015274e-07 -3.779125e-08 8.249799e-05) (2.560381e-06 2.486194e-06 8.264144e-02))
8.145869      	((1.880053e-04 1.750900e-04 -2.830472e-05) (2.290070e-06 -6.550466e-06 -5.200689e-07)) ((-3.351889e-07 -4.162364e-08 7.732996e-05) (3.064209e-06 2.204255e-06 7.970776e-02))
9.676613      	((2.151048e-04 1.896388e-04 -2.461584e-05) (4.334132e-06 -5.765244e-06 -3.618276e-07)) ((-2.605861e-07 -2.392346e-08 7.275375e-05) (3.154667e-06 2.089895e-06 7.691678e-02))
11.40167      	((2.417289e-04 2.140316e-04 -5.635780e-05) (5.353086e-06 -4.685717e-06 -5.244909e-07)) ((-2.539313e-07 -1.653224e-08 6.790362e-05) (2.969041e-06 3.058208e-06 7.431410e-02))
13.322326     	((2.298336e-04 3.190674e-04 -4.797385e-05) (1.569466e-06 -1.196086e-06 -1.675179e-06)) ((-2.369010e-07 8.825131e-09 6.329664e-05) (2.459961e-06 4.369321e-06 7.197379e-02))
15.297428     	((2.500549e-04 3.600744e-04 1.179398e-05) (8.068098e-07 -5.645819e-07 -1.971052e-06)) ((-2.354275e-07 -2.840424e-08 5.933107e-05) (1.451783e-06 3.762118e-06 7.006098e-02))
17.291078     	((3.759366e-04 4.869567e-04 4.040776e-05) (2.771489e-06 -1.597047e-06 -1.000018e-06)) ((-2.321679e-07 -6.588039e-08 5.586026e-05) (1.630130e-06 3.354069e-06 6.852199e-02))
19.298714     	((4.322058e-04 4.220817e-04 3.824871e-05) (4.867732e-06 -4.841278e-07 -1.609878e-06)) ((-1.590803e-07 7.037138e-08 5.316449e-05) (1.473695e-06 3.109824e-06 6.729860e-02))
21.322322     	((5.430225e-04 4.521935e-04 5.857731e-05) (6.291436e-06 1.232512e-06 -2.118910e-06)) ((-1.732363e-07 1.034026e-07 5.094032e-05) (5.525860e-07 1.360948e-06 6.634750e-02))
23.359832     	((6.371571e-04 5.056928e-04 6.103702e-05) (8.435707e-06 5.912342e-06 -1.122869e-06)) ((-1.159572e-07 -1.370461e-08 4.926829e-05) (-3.641512e-07 -4.445173e-07 6.561561e-02))
25.399662     	((4.406920e-04 3.039702e-04 1.114578e-04) (3.333228e-06 6.885826e-06 8.597937e-07)) ((-2.794371e-08 -3.615270e-08 4.830841e-05) (-8.136634e-07 -1.520654e-06 6.505080e-02))
27.441956     	((2.690311e-04 1.882851e-04 8.317203e-05) (-1.793580e-06 -1.888066e-06 9.831370e-07)) ((-1.076476e-07 -1.858225e-08 4.790886e-05) (-1.694968e-07 -1.922424e-06 6.463017e-02))
29.486789     	((2.251987e-04 2.180772e-04 3.847203e-05) (-1.118494e-05 -9.503216e-06 1.151587e-06)) ((-2.262620e-07 -4.051461e-08 4.768370e-05) (7.133124e-08 -1.990138e-06 6.434241e-02))
31.534832     	((1.433265e-04 3.736696e-04 5.847181e-05) (-9.716494e-06 -1.220433e-05 9.702535e-07)) ((-1.776792e-07 1.542215e-08 4.745487e-05) (3.146776e-07 -1.659063e-06 6.416124e-02))
33.586691     	((6.175629e-04 5.930043e-04 4.175943e-05) (6.774674e-06 -1.252147e-05 -5.536375e-07)) ((-2.075588e-07 2.247044e-08 4.676657e-05) (7.509201e-07 -1.474093e-06 6.407348e-02))
35.642873     	((7.984049e-04 5.930969e-04 9.262520e-05) (1.411530e-05 -6.936658e-06 -8.211907e-07)) ((-2.272860e-07 1.155230e-07 4.605944e-05) (8.462927e-07 -2.024587e-06 6.408595e-02))
37.703764     	((7.034594e-04 8.717547e-04 1.385002e-04) (1.633334e-05 -3.276156e-06 -2.059574e-07)) ((-2.323187e-07 1.692056e-07 4.555976e-05) (9.864335e-07 -2.217168e-06 6.420291e-02))
39.769633     	((6.383341e-04 5.873986e-04 1.192962e-04) (9.764283e-06 -1.108423e-05 5.450524e-07)) ((-2.430645e-07 2.678156e-08 4.515248e-05) (9.082553e-07 -2.161110e-06 6.441972e-02))
41.840803     	((4.373382e-04 7.673014e-04 7.377842e-05) (5.901377e-06 -4.036650e-06 -5.776824e-07)) ((-2.412602e-07 5.291337e-08 4.512660e-05) (1.203350e-06 -2.608972e-06 6.473071e-02))
43.917457     	((5.040791e-04 1.038615e-03 -4.820722e-05) (2.737889e-07 1.416243e-07 -1.742757e-06)) ((-3.278110e-07 7.915251e-08 4.531202e-05) (2.123294e-06 -3.162709e-06 6.512813e-02))
45.999422     	((4.176350e-04 1.048873e-03 -1.916174e-04) (-9.854794e-06 -6.253536e-06 -1.842544e-06)) ((-3.717002e-07 -8.445069e-09 4.561500e-05) (3.302158e-06 -3.019005e-06 6.560584e-02))
48.085767     	((5.301533e-04 1.150452e-03 -2.837974e-04) (-1.872254e-05 -9.286968e-06 -9.877704e-07)) ((-3.311272e-07 -3.603233e-08 4.595582e-05) (4.604803e-06 -2.271697e-06 6.614643e-02))
50.175444     	((3.381160e-04 1.153813e-03 -3.199942e-04) (-3.045704e-05 -1.452778e-05 -1.453940e-07)) ((-2.853239e-07 -7.186298e-08 4.647588e-05) (5.286184e-06 -1.134728e-06 6.671491e-02))
52.267525     	((5.136870e-04 1.047098e-03 -3.028775e-04) (-3.115111e-05 -1.973498e-05 -1.305214e-08)) ((-2.832211e-07 -1.367756e-07 4.714454e-05) (4.954966e-06 9.461982e-08 6.727616e-02))
54.361126     	((5.572734e-04 8.849080e-04 -3.033565e-04) (-3.193471e-05 -2.354660e-05 -7.142699e-08)) ((-2.932737e-07 -7.945321e-08 4.790590e-05) (4.200282e-06 1.263448e-06 6.779889e-02))
56.453836     	((2.182820e-04 6.767471e-04 -3.047121e-04) (-3.891175e-05 -2.228722e-05 -7.173497e-07)) ((-3.107727e-07 1.416864e-08 4.860325e-05) (2.807387e-06 1.789810e-06 6.825669e-02))
58.54302      	((1.138587e-04 2.990504e-04 -3.371166e-04) (-3.738522e-05 -2.406619e-05 -2.408120e-06)) ((-3.403517e-07 -4.022278e-08 4.914161e-05) (6.651546e-07 1.342638e-06 6.863665e-02))
60.624761     	((1.104388e-04 -6.849939e-05 -5.278518e-04) (-2.777067e-05 -3.059210e-05 -2.731697e-06)) ((-3.054120e-07 1.863417e-08 4.966726e-05) (-8.085963e-07 8.263126e-07 6.894675e-02))
