# Forces      
# CofR        : (0.000000e+00 0.000000e+00 0.000000e+00)
# Time        forces(pressure viscous)	moments(pressure viscous)
0             	((0.000000e+00 0.000000e+00 0.000000e+00) (0.000000e+00 0.000000e+00 0.000000e+00)) ((0.000000e+00 0.000000e+00 0.000000e+00) (0.000000e+00 0.000000e+00 0.000000e+00))
0.012         	((1.408295e-05 -2.264928e-06 -2.866685e-04) (-1.691049e-09 -1.889224e-09 -3.549821e-08)) ((3.131800e-09 1.862739e-04 -7.929997e-09) (-5.277172e-10 1.049407e-02 8.076726e-12))
0.0264        	((-8.155847e-05 -2.900671e-06 3.147426e-04) (-1.159155e-08 -3.259402e-09 -4.867928e-08)) ((-1.726532e-09 8.393653e-05 -4.823051e-09) (-4.489526e-10 1.048199e-02 2.464823e-10))
0.04368       	((4.905248e-05 1.037149e-05 -6.149342e-05) (-2.143300e-08 -2.994297e-09 -5.247049e-08)) ((3.824792e-09 4.520860e-05 2.727121e-09) (1.372321e-10 1.046694e-02 6.267407e-10))
0.064416      	((-2.567882e-05 -5.548658e-06 7.781684e-05) (-2.681495e-08 -1.895274e-09 -5.244534e-08)) ((-2.153722e-09 2.288891e-05 -1.608679e-09) (6.600236e-10 1.044894e-02 8.426900e-10))
0.0892992     	((7.064728e-07 2.854555e-06 -8.850784e-06) (-3.174851e-08 -1.015468e-09 -5.011589e-08)) ((2.332500e-09 1.689340e-05 1.846012e-09) (9.633169e-10 1.042741e-02 1.023592e-09))
0.119159      	((-2.751841e-05 5.606101e-06 2.024907e-05) (-3.432119e-08 -2.282709e-09 -4.599539e-08)) ((3.314202e-09 1.325879e-05 1.740158e-09) (5.266532e-10 1.040169e-02 1.566037e-09))
0.154991      	((-8.973485e-06 3.704376e-06 -1.506377e-05) (-3.517818e-08 -5.444994e-09 -3.935268e-08)) ((4.715512e-09 1.214020e-05 2.223952e-09) (-4.725164e-10 1.037100e-02 2.366134e-09))
0.197989      	((-1.732622e-05 1.466682e-06 3.923783e-06) (-3.812070e-08 -8.102062e-09 -3.383413e-08)) ((3.593871e-09 1.101762e-05 2.854929e-09) (-1.389109e-09 1.033443e-02 3.113638e-09))
0.249587      	((6.541810e-06 2.138821e-06 -4.772385e-06) (-4.452821e-08 -1.060950e-08 -3.082798e-08)) ((2.295230e-09 9.722634e-06 1.720378e-09) (-1.992115e-09 1.029090e-02 3.895456e-09))
0.311504      	((-1.127786e-05 -4.149933e-07 2.583310e-06) (-5.426811e-08 -1.293339e-08 -2.984869e-08)) ((1.367046e-09 8.615439e-06 1.100649e-09) (-2.451803e-09 1.023918e-02 4.563731e-09))
0.385805      	((5.603493e-07 3.458068e-07 -4.302529e-06) (-6.279505e-08 -1.518421e-08 -3.065852e-08)) ((1.143206e-09 7.847920e-06 2.055602e-09) (-2.870975e-09 1.017790e-02 5.007644e-09))
0.474966      	((-3.532107e-06 6.980578e-07 -3.004056e-06) (-6.896152e-08 -1.717545e-08 -3.262508e-08)) ((1.113028e-09 7.332387e-06 1.049550e-09) (-3.214795e-09 1.010554e-02 5.090076e-09))
0.581959      	((3.867588e-08 -1.108655e-06 -5.231447e-06) (-7.567704e-08 -1.841237e-08 -3.434268e-08)) ((2.364926e-09 6.948425e-06 3.932775e-10) (-3.607933e-09 1.002042e-02 4.754008e-09))
0.710351      	((-4.053453e-06 -1.391530e-06 -1.735290e-06) (-8.238753e-08 -1.997477e-08 -3.520115e-08)) ((2.505439e-09 6.614770e-06 -3.648172e-10) (-4.288431e-09 9.920807e-03 4.509585e-09))
0.864421      	((4.019660e-06 1.007085e-06 -7.654326e-07) (-8.847033e-08 -2.266968e-08 -3.590349e-08)) ((1.995483e-09 6.314811e-06 -1.082522e-09) (-5.428584e-09 9.804988e-03 4.693757e-09))
1.049306      	((1.497279e-06 9.092367e-08 3.949093e-06) (-9.476853e-08 -2.597233e-08 -3.560676e-08)) ((1.666111e-09 6.026845e-06 -8.928554e-10) (-7.021449e-09 9.671471e-03 5.361046e-09))
1.271167      	((3.428485e-06 1.312916e-06 5.855897e-06) (-9.913735e-08 -2.890024e-08 -3.078030e-08)) ((1.729740e-09 5.746519e-06 -8.005858e-10) (-9.197213e-09 9.519228e-03 6.361664e-09))
1.5374        	((3.403997e-06 -4.997561e-07 7.656007e-06) (-1.034753e-07 -3.104353e-08 -2.881597e-08)) ((1.596783e-09 5.474892e-06 -5.348208e-10) (-1.137937e-08 9.348059e-03 7.003012e-09))
1.85688       	((3.444732e-06 1.103815e-06 6.907942e-06) (-1.110454e-07 -3.023113e-08 -3.517245e-08)) ((1.161284e-09 5.207268e-06 -5.188311e-10) (-1.265952e-08 9.158958e-03 7.076966e-09))
2.240256      	((2.761575e-06 -1.251465e-06 5.887996e-06) (-1.171453e-07 -2.930569e-08 -5.151744e-08)) ((5.047570e-10 4.941629e-06 -2.006174e-10) (-1.279056e-08 8.954386e-03 6.946055e-09))
2.700307      	((-2.044604e-07 4.397242e-07 3.558776e-06) (-1.089910e-07 -2.845877e-08 -8.128356e-08)) ((3.724998e-10 4.681554e-06 2.492299e-10) (-1.145718e-08 8.738260e-03 7.064391e-09))
3.252369      	((9.095758e-08 -6.696114e-07 4.511022e-06) (-8.418892e-08 -2.654432e-08 -1.133277e-07)) ((2.230536e-10 4.433512e-06 1.107473e-10) (-9.052851e-09 8.515432e-03 6.864046e-09))
3.914842      	((-2.413226e-07 -3.982144e-07 -8.096058e-07) (-4.774070e-08 -2.302112e-08 -1.376213e-07)) ((-2.311357e-10 4.197807e-06 4.014897e-10) (-6.892509e-09 8.290464e-03 6.955398e-09))
4.709811      	((8.570830e-07 -9.850996e-07 -7.967949e-08) (-1.695958e-08 -1.794085e-08 -1.618379e-07)) ((-1.868062e-11 3.958293e-06 -4.915222e-11) (-5.302978e-09 8.066004e-03 7.168725e-09))
5.663773      	((1.337404e-06 -5.502500e-07 -2.465835e-06) (-2.554108e-08 -1.056269e-08 -1.866390e-07)) ((3.189625e-11 3.697837e-06 3.675557e-10) (-3.418441e-09 7.839947e-03 6.043217e-09))
6.808528      	((1.105615e-06 -1.303057e-07 1.107513e-06) (-7.015871e-08 -7.622724e-09 -1.858953e-07)) ((1.328324e-10 3.411945e-06 8.516298e-11) (-9.214203e-10 7.601369e-03 4.797428e-09))
8.182233      	((-5.649421e-07 4.332942e-07 2.169235e-06) (-1.241298e-07 -6.147958e-09 -1.765266e-07)) ((6.278350e-12 3.135966e-06 6.426225e-10) (-1.627533e-10 7.341658e-03 4.667879e-09))
9.83068       	((-1.101401e-07 -2.457422e-07 1.305217e-06) (-1.081671e-07 -6.639550e-09 -2.250856e-07)) ((-3.475137e-10 2.911469e-06 4.728698e-10) (3.742315e-10 7.062146e-03 3.276788e-09))
11.808816     	((-4.338897e-06 1.776274e-07 5.205449e-07) (-5.393943e-08 -9.321625e-09 -2.610902e-07)) ((-2.115839e-10 2.766775e-06 1.018038e-09) (3.967890e-09 6.769203e-03 9.566114e-10))
14.182579     	((-2.958541e-06 6.736477e-07 -3.701203e-08) (-8.722213e-08 -3.079161e-09 -2.208349e-07)) ((-3.035270e-10 2.655812e-06 1.025604e-09) (5.964219e-09 6.471015e-03 -3.525402e-09))
17.031095     	((-2.045104e-06 4.317681e-07 1.324082e-06) (-1.183569e-07 -2.205180e-10 -1.887434e-07)) ((4.569827e-11 2.513398e-06 6.507918e-10) (3.318230e-09 6.175089e-03 -8.829937e-09))
20.449314     	((-2.021793e-07 4.362749e-08 9.176445e-07) (-1.571282e-07 -4.291640e-09 -2.227623e-07)) ((2.667760e-10 2.331423e-06 6.351914e-10) (-3.837181e-09 5.886347e-03 -9.086083e-09))
24.551176     	((2.337303e-06 -7.077587e-07 2.648038e-06) (-1.093120e-07 2.814518e-09 -6.495204e-08)) ((5.282937e-10 2.105654e-06 3.395836e-10) (-1.192735e-08 5.604956e-03 -6.591782e-09))
29.473411     	((8.823296e-06 -8.888226e-07 1.004645e-05) (2.711376e-07 -1.422123e-08 1.003093e-07)) ((8.894257e-10 1.870924e-06 -2.390003e-10) (-1.861714e-08 5.328156e-03 -1.101644e-09))
35.380094     	((1.195360e-05 -2.689317e-07 1.727752e-05) (7.296261e-07 -2.048233e-08 6.461014e-08)) ((4.682389e-10 1.621893e-06 9.703823e-11) (-2.324721e-08 5.057290e-03 -1.277841e-09))
42.468112     	((9.287778e-06 -8.898537e-07 1.582398e-05) (2.705981e-07 -2.317422e-08 -6.671062e-08)) ((-1.106647e-09 1.386619e-06 1.339722e-09) (-2.106991e-08 4.800895e-03 -4.925059e-09))
50.822857     	((8.476284e-06 1.102788e-06 2.091496e-05) (4.650538e-08 6.631060e-09 3.653211e-07)) ((-3.832337e-09 1.168787e-06 3.559158e-09) (-8.108010e-09 4.572605e-03 -1.632993e-08))
60.460213     	((1.493346e-05 5.955562e-07 2.340835e-05) (1.025314e-06 -2.823648e-08 6.527061e-07)) ((-5.678441e-09 9.845911e-07 5.215135e-09) (-8.558621e-10 4.379508e-03 -2.658003e-08))
71.385189     	((1.937389e-05 8.227345e-07 2.217212e-05) (7.043102e-07 -3.963401e-08 3.423851e-07)) ((-5.130805e-09 8.596152e-07 5.036062e-09) (-1.371638e-08 4.222683e-03 -2.076882e-08))
83.600902     	((1.064340e-05 1.728493e-06 1.320002e-05) (6.001266e-08 -1.455204e-07 7.532018e-08)) ((-4.948896e-09 7.580681e-07 5.264389e-09) (-4.767678e-08 4.099433e-03 -5.594957e-08))
96.54333      	((1.356130e-05 1.730053e-06 1.333196e-05) (2.074850e-07 -3.055017e-07 3.265063e-07)) ((-6.442424e-09 6.905844e-07 4.836311e-09) (-1.081240e-07 4.006539e-03 -8.864004e-08))
109.530476    	((2.400975e-05 9.952607e-08 1.930125e-05) (1.249989e-06 -4.448045e-07 7.761541e-07)) ((-3.082501e-09 6.664731e-07 2.354823e-09) (-1.760162e-07 3.938849e-03 -6.778553e-08))
122.573661    	((3.806191e-05 -1.522290e-06 2.427110e-05) (2.225207e-06 -4.467900e-07 1.046329e-06)) ((-6.578605e-10 6.581746e-07 3.761720e-09) (-2.522103e-07 3.888788e-03 -1.730582e-09))
135.685066    	((3.251492e-05 -3.298224e-07 2.371085e-05) (2.352719e-06 -3.763925e-07 1.106702e-06)) ((9.237387e-10 6.511850e-07 4.379957e-09) (-2.833963e-07 3.853399e-03 6.153455e-08))
148.882814    	((1.920469e-05 2.546780e-07 2.224001e-05) (1.381846e-06 -3.354773e-07 1.172558e-06)) ((-1.193150e-10 6.298989e-07 4.081311e-09) (-2.694754e-07 3.831249e-03 1.090134e-07))
162.18222     	((2.226303e-05 -8.490683e-07 2.388141e-05) (9.047663e-07 -3.005435e-07 1.563818e-06)) ((1.875854e-09 6.073817e-07 3.476083e-09) (-2.838804e-07 3.821661e-03 1.636659e-07))
175.589697    	((3.077209e-05 -2.878345e-06 3.269070e-05) (9.497042e-08 -3.309873e-07 1.893202e-06)) ((5.112990e-09 6.026673e-07 2.514451e-09) (-3.217759e-07 3.825660e-03 2.142031e-07))
189.103665    	((3.287404e-05 -4.668803e-06 2.860407e-05) (-7.899780e-07 -3.463970e-07 2.067109e-06)) ((9.741433e-09 6.075302e-07 3.484889e-09) (-3.581887e-07 3.843610e-03 2.527300e-07))
202.704973    	((3.266136e-05 -8.683841e-06 2.055993e-05) (-1.517559e-06 -4.819444e-07 1.668374e-06)) ((1.305725e-08 6.182417e-07 1.920808e-09) (-3.712112e-07 3.875427e-03 3.131871e-07))
216.389084    	((3.613123e-05 -1.034492e-05 1.432947e-05) (-9.501139e-07 -4.927989e-07 5.903822e-07)) ((1.333701e-08 6.354050e-07 9.600519e-10) (-3.259766e-07 3.919790e-03 3.376635e-07))
230.138934    	((3.795710e-05 -1.085845e-05 2.277627e-05) (-6.983437e-07 -6.217333e-07 5.696911e-07)) ((1.421422e-08 6.601271e-07 -1.782246e-09) (-2.695228e-07 3.973696e-03 2.423936e-07))
243.899926    	((3.550244e-05 -1.448228e-05 3.001882e-05) (1.112661e-07 -9.853973e-07 1.205748e-07)) ((1.238622e-08 6.816762e-07 7.657040e-10) (-2.203669e-07 4.032960e-03 1.212220e-07))
257.585617    	((2.148821e-05 -2.526946e-05 2.438527e-05) (1.261910e-06 -1.215620e-06 -1.610791e-06)) ((6.668919e-09 7.096843e-07 1.254987e-09) (-2.152376e-07 4.091215e-03 -2.438995e-08))
271.143807    	((-4.828810e-06 -3.422608e-05 1.580876e-05) (7.024661e-07 -1.357753e-06 -2.473563e-06)) ((-5.752832e-10 7.379437e-07 1.455122e-09) (-2.906882e-07 4.142959e-03 -2.081861e-07))
284.55416     	((-2.464812e-05 -4.436258e-05 9.342621e-06) (1.763524e-07 -1.438217e-06 -2.230446e-06)) ((-5.089176e-09 7.595019e-07 3.682530e-09) (-4.123910e-07 4.183814e-03 -4.110481e-07))
297.814696    	((-2.687824e-05 -4.704833e-05 1.737971e-05) (2.389126e-07 -1.340830e-06 -1.159835e-06)) ((-1.790313e-09 7.694779e-07 -1.637180e-09) (-6.191767e-07 4.213034e-03 -4.929467e-07))
310.937749    	((-2.758289e-05 -3.418795e-05 1.159503e-06) (-8.330924e-08 -1.150056e-06 6.053746e-08)) ((-1.230455e-09 7.727574e-07 -4.415298e-09) (-9.606761e-07 4.232024e-03 -3.159214e-07))
323.959436    	((-2.615945e-05 -2.669338e-05 6.575098e-07) (-5.133509e-07 -9.920835e-07 6.675627e-07)) ((-1.007721e-10 7.666962e-07 -5.028180e-09) (-1.261490e-06 4.243018e-03 9.292914e-08))
336.908557    	((-1.176489e-05 -3.201187e-05 1.389398e-06) (-2.115105e-07 -8.848452e-07 1.058639e-06)) ((1.456690e-09 7.641055e-07 -6.153392e-09) (-1.388432e-06 4.248105e-03 6.113068e-07))
349.80345     	((-6.931155e-06 -2.853343e-05 6.841525e-06) (-7.900141e-07 -8.416694e-07 9.073709e-07)) ((4.123420e-09 7.599254e-07 -6.502399e-09) (-1.330130e-06 4.249277e-03 1.153872e-06))
362.653483    	((-1.196562e-05 -2.462682e-05 7.786557e-06) (-7.555786e-07 -8.563928e-07 8.540352e-07)) ((4.053994e-09 7.561647e-07 -7.251172e-09) (-1.078323e-06 4.248216e-03 1.619749e-06))
375.462283    	((3.395071e-06 -3.428185e-05 2.385460e-06) (-1.496670e-07 -7.215319e-07 7.587625e-07)) ((2.425125e-09 7.553755e-07 -5.766800e-09) (-6.490131e-07 4.246077e-03 1.957228e-06))
