# Forces      
# CofR        : (0.000000e+00 0.000000e+00 0.000000e+00)
# Time        forces(pressure viscous)	moments(pressure viscous)
0             	((0.000000e+00 0.000000e+00 0.000000e+00) (-2.048910e-06 -1.751837e+04 -1.300690e-06)) ((0.000000e+00 0.000000e+00 0.000000e+00) (5.699343e-04 -8.333463e-08 -2.105501e-03))
0.000966192   	((5.539149e+03 -2.304796e+07 5.975030e+03) (1.125994e+00 -3.340264e+04 1.111590e+00)) ((7.125847e-01 8.429380e-01 -3.845760e+00) (1.852061e+00 -2.054770e-02 -1.853544e+00))
0.00212562    	((-2.481303e+03 1.103796e+07 -2.547025e+03) (-7.680525e-01 -3.263268e+04 -6.897658e-01)) ((-1.936598e-01 6.845183e-01 1.170738e+00) (8.579959e-01 -5.389763e-02 -9.680199e-01))
0.00351694    	((-9.272086e+02 -2.478457e+06 -1.007078e+03) (1.332497e+00 -2.764167e+04 3.984837e-01)) ((5.480880e-02 7.009292e-01 -2.046020e-01) (1.044557e+00 -7.986240e-02 -1.213046e+00))
0.00517303    	((1.209497e+01 9.890343e+05 -1.704744e+01) (1.608407e+00 -2.641720e+04 1.154890e+00)) ((1.480834e-01 4.281335e-01 -9.407756e-03) (1.165871e+00 -5.134361e-03 -1.256249e+00))
0.00709492    	((-2.356883e+02 -6.581950e+05 -1.794904e+02) (-6.592097e-01 -2.559500e+04 3.133602e-02)) ((1.163930e-01 6.030640e-01 -1.489044e-01) (4.756520e-01 4.104769e-02 -6.031602e-01))
0.00928049    	((-1.317409e+02 1.032961e+05 6.983506e+01) (-1.723336e+00 -2.555633e+04 -1.806492e-01)) ((5.580446e-02 5.289783e-01 -1.756315e-01) (3.314108e-01 3.307501e-02 -6.220319e-01))
0.0117279     	((-6.362802e+02 -2.552250e+05 -1.429930e+01) (-5.070518e+00 -2.551404e+04 -1.691672e-01)) ((6.434304e-02 4.691738e-01 -6.412346e-02) (-1.647684e-01 1.481491e-02 -5.611902e-01))
0.0143274     	((-4.577840e+02 -8.876873e+04 -7.778950e+01) (-3.842377e+00 -2.557257e+04 8.538935e-02)) ((6.326777e-02 7.558515e-01 -1.837906e-01) (-4.741195e-01 -1.705636e-02 -3.712132e-01))
0.0169321     	((1.426802e+02 -1.716896e+05 -1.946301e+02) (-1.831736e+00 -2.567901e+04 -1.738525e-01)) ((5.203111e-02 6.637433e-01 -1.296094e-01) (-5.566037e-01 4.863588e-02 -7.055187e-02))
0.019523      	((-3.439328e+01 -1.332278e+05 -2.013808e+02) (-1.575832e+00 -2.585211e+04 -6.003510e-01)) ((8.217990e-02 5.783875e-01 -7.451885e-02) (-6.452043e-01 1.032094e-01 2.568008e-01))
0.0220942     	((8.850377e+01 -1.566762e+05 -8.049504e+01) (-9.831153e-01 -2.600918e+04 -4.429613e-01)) ((3.232667e-02 6.664372e-01 -1.237897e-01) (-6.660672e-01 9.409672e-02 3.006394e-01))
0.0246477     	((2.142926e+02 -1.488559e+05 7.084152e+01) (-1.107764e+00 -2.612671e+04 -3.922421e-01)) ((6.033971e-02 6.999026e-01 -1.321856e-01) (-5.018921e-01 9.165546e-02 8.369824e-02))
0.0271882     	((2.787668e+02 -1.544930e+05 1.118901e+02) (-7.604637e-01 -2.618378e+04 2.877021e-02)) ((4.352803e-02 6.455298e-01 -1.051574e-01) (-6.278389e-01 1.397292e-01 1.683838e-01))
0.0297199     	((5.472900e+02 -1.530169e+05 2.413064e+02) (-2.740209e-01 -2.619250e+04 -2.476074e-03)) ((2.095695e-02 7.304086e-01 -9.264274e-02) (-6.055897e-01 1.244077e-01 -3.051791e-02))
0.03225       	((6.520652e+02 -1.540068e+05 3.963137e+02) (-1.649881e-01 -2.617777e+04 1.079941e-01)) ((2.933068e-02 6.943266e-01 -1.057178e-01) (-4.599525e-01 1.219646e-01 -1.702120e-01))
0.0347852     	((8.151194e+02 -1.534164e+05 5.427774e+02) (-3.448553e-01 -2.615612e+04 1.550786e-01)) ((6.060619e-02 6.800936e-01 -1.083853e-01) (-2.413425e-01 1.277994e-01 -3.568108e-01))
0.0373254     	((1.017511e+03 -1.537581e+05 6.838521e+02) (-4.471839e-01 -2.613531e+04 -9.841124e-02)) ((6.759256e-02 6.805558e-01 -9.627042e-02) (-3.727951e-02 1.333705e-01 -6.021146e-01))
0.0398666     	((1.305536e+03 -1.539540e+05 8.861544e+02) (4.312561e-02 -2.611793e+04 -5.538328e-02)) ((8.283853e-02 6.379694e-01 -1.254257e-01) (9.290143e-02 1.603657e-01 -7.606799e-01))
0.0424056     	((1.568374e+03 -1.539500e+05 1.112196e+03) (2.569256e-01 -2.610091e+04 1.579048e-01)) ((8.511352e-02 6.516492e-01 -9.718880e-02) (1.724502e-01 1.700847e-01 -8.607301e-01))
0.0449434     	((1.797184e+03 -1.537260e+05 1.324263e+03) (3.116911e-01 -2.608455e+04 3.156642e-01)) ((9.057588e-02 6.262602e-01 -1.090952e-01) (2.597892e-01 1.788601e-01 -9.567994e-01))
0.0474818     	((2.116626e+03 -1.534137e+05 1.575954e+03) (5.436758e-01 -2.606943e+04 5.109113e-01)) ((9.247959e-02 6.257308e-01 -1.049835e-01) (3.894828e-01 1.821431e-01 -1.138017e+00))
0.0500206     	((2.441603e+03 -1.534876e+05 1.864288e+03) (6.909016e-01 -2.605618e+04 6.838310e-01)) ((8.927793e-02 6.123535e-01 -8.677435e-02) (5.772444e-01 1.879510e-01 -1.379830e+00))
0.0525597     	((2.786427e+03 -1.536355e+05 2.158823e+03) (7.750688e-01 -2.604444e+04 8.135283e-01)) ((9.314860e-02 6.124321e-01 -9.608293e-02) (8.054970e-01 1.943440e-01 -1.652821e+00))
0.055099      	((3.217424e+03 -1.538727e+05 2.531660e+03) (7.509022e-01 -2.603430e+04 8.531869e-01)) ((9.819196e-02 6.086703e-01 -9.310308e-02) (1.088766e+00 2.000979e-01 -2.024118e+00))
0.0576382     	((3.719607e+03 -1.540343e+05 2.950501e+03) (6.780243e-01 -2.602585e+04 8.099924e-01)) ((1.118031e-01 6.061998e-01 -1.037317e-01) (1.475330e+00 2.024026e-01 -2.498209e+00))
0.0601775     	((4.297070e+03 -1.541263e+05 3.451189e+03) (4.765563e-01 -2.601877e+04 6.872481e-01)) ((1.213674e-01 6.013281e-01 -1.127001e-01) (1.983629e+00 2.046984e-01 -3.112599e+00))
0.062717      	((5.008834e+03 -1.541315e+05 4.038367e+03) (1.342724e-01 -2.601288e+04 3.910063e-01)) ((1.401274e-01 5.993784e-01 -1.183994e-01) (2.618059e+00 2.069773e-01 -3.873162e+00))
0.0652566     	((5.857200e+03 -1.540578e+05 4.748333e+03) (-3.074589e-01 -2.600789e+04 -2.593994e-03)) ((1.666246e-01 5.963652e-01 -1.308954e-01) (3.395800e+00 2.081437e-01 -4.796133e+00))
0.0677961     	((6.862157e+03 -1.539939e+05 5.597286e+03) (-8.135782e-01 -2.600365e+04 -4.586177e-01)) ((1.983289e-01 5.929822e-01 -1.423846e-01) (4.323504e+00 2.081780e-01 -5.889073e+00))
0.0703356     	((8.047944e+03 -1.539475e+05 6.597776e+03) (-1.380541e+00 -2.600001e+04 -9.607227e-01)) ((2.323952e-01 5.891922e-01 -1.562108e-01) (5.404290e+00 2.079123e-01 -7.157801e+00))
0.0728752     	((9.429304e+03 -1.539026e+05 7.770409e+03) (-1.963545e+00 -2.599695e+04 -1.477716e+00)) ((2.679313e-01 5.858073e-01 -1.668312e-01) (6.646038e+00 2.080946e-01 -8.617063e+00))
0.0754146     	((1.101888e+04 -1.538492e+05 9.119059e+03) (-2.552265e+00 -2.599434e+04 -2.015274e+00)) ((3.074491e-01 5.820974e-01 -1.749776e-01) (8.060918e+00 2.083951e-01 -1.027995e+01))
0.077954      	((1.281796e+04 -1.537996e+05 1.064950e+04) (-3.133344e+00 -2.599208e+04 -2.549647e+00)) ((3.495752e-01 5.800463e-01 -1.826138e-01) (9.660730e+00 2.080260e-01 -1.215425e+01))
0.0804933     	((1.484677e+04 -1.537599e+05 1.238343e+04) (-3.698148e+00 -2.599012e+04 -3.075127e+00)) ((3.957992e-01 5.765456e-01 -1.902234e-01) (1.145811e+01 2.074162e-01 -1.425017e+01))
0.0830324     	((1.712086e+04 -1.537525e+05 1.432499e+04) (-4.238010e+00 -2.598842e+04 -3.590766e+00)) ((4.495019e-01 5.732101e-01 -1.990465e-01) (1.346543e+01 2.060825e-01 -1.658530e+01))
0.0855713     	((1.965072e+04 -1.537857e+05 1.649312e+04) (-4.760518e+00 -2.598696e+04 -4.094586e+00)) ((5.102434e-01 5.689461e-01 -2.084802e-01) (1.570193e+01 2.049667e-01 -1.918156e+01))
0.0881101     	((2.246264e+04 -1.538824e+05 1.890055e+04) (-5.294849e+00 -2.598575e+04 -4.617107e+00)) ((5.752084e-01 5.628383e-01 -2.158505e-01) (1.818988e+01 2.040083e-01 -2.207134e+01))
0.0906486     	((2.559017e+04 -1.540288e+05 2.158101e+04) (-5.864010e+00 -2.598477e+04 -5.171097e+00)) ((6.454691e-01 5.528904e-01 -2.196973e-01) (2.095988e+01 2.018412e-01 -2.529285e+01))
0.0931868     	((2.907273e+04 -1.542088e+05 2.456483e+04) (-6.504826e+00 -2.598406e+04 -5.786556e+00)) ((7.253053e-01 5.413590e-01 -2.254519e-01) (2.405141e+01 1.989262e-01 -2.889100e+01))
0.0957248     	((3.296766e+04 -1.544297e+05 2.790804e+04) (-7.247824e+00 -2.598361e+04 -6.488198e+00)) ((8.128884e-01 5.277294e-01 -2.319733e-01) (2.750827e+01 1.959200e-01 -3.291826e+01))
0.0982624     	((3.732431e+04 -1.546934e+05 3.165977e+04) (-8.119749e+00 -2.598345e+04 -7.278084e+00)) ((9.077214e-01 5.129752e-01 -2.391583e-01) (3.138965e+01 1.940907e-01 -3.743881e+01))
0.1008        	((4.224074e+04 -1.550284e+05 3.586550e+04) (-9.158823e+00 -2.598365e+04 -8.180721e+00)) ((1.011505e+00 4.946591e-01 -2.481132e-01) (3.575840e+01 1.948917e-01 -4.253498e+01))
0.103336      	((4.775925e+04 -1.554682e+05 4.062008e+04) (-1.035373e+01 -2.598429e+04 -9.204092e+00)) ((1.125723e+00 4.748662e-01 -2.509555e-01) (4.069398e+01 1.970254e-01 -4.826354e+01))
0.105873      	((5.391827e+04 -1.560336e+05 4.593089e+04) (-1.165443e+01 -2.598542e+04 -1.034685e+01)) ((1.246026e+00 4.505519e-01 -2.521517e-01) (4.625093e+01 1.995104e-01 -5.467460e+01))
0.108408      	((6.078607e+04 -1.567019e+05 5.186088e+04) (-1.297096e+01 -2.598706e+04 -1.155609e+01)) ((1.379417e+00 4.173777e-01 -2.520365e-01) (5.244506e+01 2.063059e-01 -6.180434e+01))
0.110943      	((6.836868e+04 -1.574897e+05 5.845643e+04) (-1.417118e+01 -2.598928e+04 -1.273598e+01)) ((1.525787e+00 3.827685e-01 -2.470973e-01) (5.928942e+01 2.173491e-01 -6.966020e+01))
0.113478      	((7.676066e+04 -1.585335e+05 6.572789e+04) (-1.518691e+01 -2.599217e+04 -1.378489e+01)) ((1.683038e+00 3.422728e-01 -2.312860e-01) (6.679790e+01 2.317176e-01 -7.825888e+01))
0.116012      	((8.594201e+04 -1.597677e+05 7.371638e+04) (-1.598310e+01 -2.599586e+04 -1.457677e+01)) ((1.849949e+00 2.949181e-01 -2.003349e-01) (7.496086e+01 2.538770e-01 -8.760008e+01))
0.118545      	((9.595575e+04 -1.613939e+05 8.241239e+04) (-1.647624e+01 -2.600045e+04 -1.507101e+01)) ((2.003189e+00 2.511459e-01 -1.523503e-01) (8.375886e+01 2.861724e-01 -9.769514e+01))
0.121077      	((1.067257e+05 -1.635047e+05 9.171042e+04) (-1.650241e+01 -2.600613e+04 -1.513667e+01)) ((2.164006e+00 2.014337e-01 -9.448757e-02) (9.309077e+01 3.249579e-01 -1.084765e+02))
0.123608      	((1.181848e+05 -1.661770e+05 1.015945e+05) (-1.583578e+01 -2.601302e+04 -1.457464e+01)) ((2.329864e+00 1.503233e-01 -2.847680e-02) (1.028422e+02 3.767358e-01 -1.197803e+02))
0.126138      	((1.299513e+05 -1.692249e+05 1.117337e+05) (-1.436617e+01 -2.602105e+04 -1.318272e+01)) ((2.448209e+00 1.070719e-01 7.208291e-02) (1.128501e+02 4.426939e-01 -1.314589e+02))
0.128666      	((1.417585e+05 -1.727655e+05 1.218121e+05) (-1.211205e+01 -2.603022e+04 -1.084723e+01)) ((2.520669e+00 7.590265e-02 2.132933e-01) (1.229250e+02 5.150081e-01 -1.433790e+02))
0.131194      	((1.530122e+05 -1.769636e+05 1.313394e+05) (-9.315733e+00 -2.604064e+04 -7.632749e+00)) ((2.508500e+00 3.164821e-02 4.264470e-01) (1.328735e+02 6.008386e-01 -1.554230e+02))
0.133721      	((1.634663e+05 -1.817777e+05 1.400390e+05) (-6.126490e+00 -2.605226e+04 -4.013811e+00)) ((2.392157e+00 1.885304e-02 6.946451e-01) (1.425557e+02 7.026881e-01 -1.673835e+02))
0.136246      	((1.724763e+05 -1.869704e+05 1.472486e+05) (-2.715910e+00 -2.606514e+04 -4.193104e-01)) ((2.127875e+00 3.884513e-02 1.046099e+00) (1.517995e+02 8.009578e-01 -1.789581e+02))
0.13877       	((1.791336e+05 -1.919038e+05 1.525651e+05) (5.166462e-01 -2.607930e+04 2.898843e+00)) ((1.770077e+00 6.609135e-02 1.454540e+00) (1.603028e+02 8.973384e-01 -1.897073e+02))
0.141293      	((1.830557e+05 -1.966765e+05 1.554084e+05) (3.290762e+00 -2.609464e+04 5.788516e+00)) ((1.391829e+00 8.622062e-02 1.840099e+00) (1.675959e+02 9.958624e-01 -1.991045e+02))
0.143815      	((1.839775e+05 -2.004285e+05 1.555882e+05) (5.312866e+00 -2.611075e+04 8.147138e+00)) ((1.080396e+00 1.309145e-01 2.112241e+00) (1.732084e+02 1.084629e+00 -2.067089e+02))
0.146336      	((1.821560e+05 -2.034019e+05 1.534266e+05) (6.378209e+00 -2.612673e+04 9.761525e+00)) ((8.698610e-01 1.790381e-01 2.247985e+00) (1.768922e+02 1.149772e+00 -2.121641e+02))
0.148857      	((1.785781e+05 -2.052737e+05 1.496841e+05) (6.337001e+00 -2.614136e+04 1.038541e+01)) ((8.431657e-01 1.917532e-01 2.176054e+00) (1.787207e+02 1.195915e+00 -2.154987e+02))
0.151376      	((1.740714e+05 -2.062685e+05 1.452652e+05) (5.032663e+00 -2.615390e+04 9.810339e+00)) ((9.988794e-01 1.596912e-01 1.964127e+00) (1.790754e+02 1.222865e+00 -2.170709e+02))
0.153896      	((1.694765e+05 -2.065876e+05 1.409546e+05) (2.811607e+00 -2.616417e+04 8.172514e+00)) ((1.291093e+00 8.287137e-02 1.713237e+00) (1.784323e+02 1.228347e+00 -2.172147e+02))
0.156416      	((1.655867e+05 -2.063180e+05 1.372301e+05) (1.310687e-01 -2.617237e+04 5.882939e+00)) ((1.590151e+00 -8.837738e-02 1.557613e+00) (1.771588e+02 1.213376e+00 -2.163678e+02))
0.158935      	((1.627398e+05 -2.055236e+05 1.344907e+05) (-2.294257e+00 -2.617894e+04 3.516937e+00)) ((1.721494e+00 -3.218680e-01 1.633903e+00) (1.755079e+02 1.137856e+00 -2.148478e+02))
0.161455      	((1.609952e+05 -2.041504e+05 1.325623e+05) (-3.701217e+00 -2.618438e+04 2.005857e+00)) ((1.692223e+00 -5.023836e-01 1.726580e+00) (1.734677e+02 1.047690e+00 -2.128090e+02))
0.163975      	((1.599375e+05 -2.027185e+05 1.313079e+05) (-3.642933e+00 -2.618936e+04 1.752507e+00)) ((1.667200e+00 -6.431249e-01 1.683651e+00) (1.710764e+02 9.557720e-01 -2.103253e+02))
0.166495      	((1.592042e+05 -2.013586e+05 1.302112e+05) (-2.294358e+00 -2.619436e+04 2.696437e+00)) ((1.722740e+00 -7.470049e-01 1.525613e+00) (1.684084e+02 8.750232e-01 -2.075513e+02))
0.169016      	((1.580881e+05 -2.004905e+05 1.288664e+05) (-4.202782e-01 -2.619931e+04 4.245861e+00)) ((1.767738e+00 -8.106110e-01 1.370453e+00) (1.656608e+02 7.737909e-01 -2.047624e+02))
0.171536      	((1.564177e+05 -2.002666e+05 1.270445e+05) (1.122968e+00 -2.620425e+04 5.554932e+00)) ((1.731470e+00 -8.538699e-01 1.286061e+00) (1.630928e+02 6.252455e-01 -2.021759e+02))
0.174057      	((1.541902e+05 -1.999164e+05 1.246400e+05) (1.662044e+00 -2.620884e+04 5.909810e+00)) ((1.639258e+00 -8.865402e-01 1.251189e+00) (1.608608e+02 4.452137e-01 -1.999404e+02))
0.176578      	((1.516893e+05 -1.997338e+05 1.219632e+05) (8.602803e-01 -2.621264e+04 5.044700e+00)) ((1.518551e+00 -9.215544e-01 1.266556e+00) (1.589815e+02 2.569962e-01 -1.981300e+02))
0.1791        	((1.493068e+05 -1.996548e+05 1.194893e+05) (-1.152393e+00 -2.621547e+04 3.207281e+00)) ((1.448493e+00 -9.779122e-01 1.289338e+00) (1.574277e+02 1.147625e-01 -1.967316e+02))
0.181621      	((1.473622e+05 -1.994689e+05 1.173921e+05) (-3.908678e+00 -2.621716e+04 7.741213e-01)) ((1.441180e+00 -1.047510e+00 1.302033e+00) (1.561922e+02 5.243596e-02 -1.957148e+02))
0.184143      	((1.460670e+05 -1.992745e+05 1.158847e+05) (-6.838207e+00 -2.621762e+04 -1.718601e+00)) ((1.487510e+00 -1.122932e+00 1.283535e+00) (1.551914e+02 7.860172e-02 -1.950351e+02))
0.186665      	((1.454437e+05 -1.991285e+05 1.150544e+05) (-9.057642e+00 -2.621724e+04 -3.485809e+00)) ((1.541576e+00 -1.190289e+00 1.243735e+00) (1.542064e+02 1.556045e-01 -1.944034e+02))
0.189188      	((1.454562e+05 -1.991279e+05 1.145928e+05) (-1.022914e+01 -2.621625e+04 -4.275861e+00)) ((1.618053e+00 -1.276890e+00 1.201197e+00) (1.531822e+02 2.441905e-01 -1.937726e+02))
0.19171       	((1.456746e+05 -1.992678e+05 1.142437e+05) (-1.059419e+01 -2.621465e+04 -4.147780e+00)) ((1.668439e+00 -1.359020e+00 1.162774e+00) (1.520974e+02 3.144875e-01 -1.932958e+02))
0.194233      	((1.457785e+05 -1.998086e+05 1.137156e+05) (-1.045038e+01 -2.621249e+04 -3.520236e+00)) ((1.664424e+00 -1.430401e+00 1.156694e+00) (1.510265e+02 3.505212e-01 -1.929858e+02))
0.196757      	((1.455299e+05 -2.006495e+05 1.127938e+05) (-1.019194e+01 -2.620989e+04 -2.761067e+00)) ((1.609728e+00 -1.477249e+00 1.164408e+00) (1.499672e+02 3.532097e-01 -1.927911e+02))
0.19928       	((1.448144e+05 -2.014839e+05 1.113966e+05) (-1.006175e+01 -2.620687e+04 -2.130917e+00)) ((1.543627e+00 -1.502018e+00 1.182697e+00) (1.488697e+02 3.288095e-01 -1.926095e+02))
0.201804      	((1.436201e+05 -2.021342e+05 1.095515e+05) (-1.022955e+01 -2.620329e+04 -1.828238e+00)) ((1.476034e+00 -1.510253e+00 1.214408e+00) (1.476952e+02 2.844700e-01 -1.923882e+02))
0.204327      	((1.420879e+05 -2.026224e+05 1.073855e+05) (-1.087440e+01 -2.619902e+04 -1.957283e+00)) ((1.409132e+00 -1.501933e+00 1.227283e+00) (1.464095e+02 2.256933e-01 -1.921297e+02))
0.206851      	((1.405155e+05 -2.029433e+05 1.050901e+05) (-1.197921e+01 -2.619403e+04 -2.464678e+00)) ((1.363054e+00 -1.498337e+00 1.213125e+00) (1.449815e+02 1.564253e-01 -1.918128e+02))
0.209375      	((1.390367e+05 -2.031146e+05 1.028304e+05) (-1.339168e+01 -2.618827e+04 -3.215449e+00)) ((1.348029e+00 -1.507565e+00 1.192954e+00) (1.434236e+02 8.404546e-02 -1.914540e+02))
0.2119        	((1.378316e+05 -2.031523e+05 1.007298e+05) (-1.487976e+01 -2.618175e+04 -4.020067e+00)) ((1.355554e+00 -1.533451e+00 1.182996e+00) (1.417515e+02 1.244780e-02 -1.910737e+02))
0.214424      	((1.369561e+05 -2.031458e+05 9.879905e+04) (-1.619387e+01 -2.617457e+04 -4.702437e+00)) ((1.369725e+00 -1.565049e+00 1.191828e+00) (1.399760e+02 -5.855252e-02 -1.906672e+02))
0.216949      	((1.363134e+05 -2.031714e+05 9.707338e+04) (-1.715069e+01 -2.616696e+04 -5.136584e+00)) ((1.387440e+00 -1.595267e+00 1.218849e+00) (1.381128e+02 -1.374139e-01 -1.902129e+02))
0.219475      	((1.357201e+05 -2.032061e+05 9.543008e+04) (-1.762750e+01 -2.615911e+04 -5.308388e+00)) ((1.395463e+00 -1.633539e+00 1.275859e+00) (1.361905e+02 -2.287813e-01 -1.896514e+02))
0.222         	((1.350606e+05 -2.033410e+05 9.378764e+04) (-1.763093e+01 -2.615130e+04 -5.156856e+00)) ((1.384309e+00 -1.673114e+00 1.365516e+00) (1.341679e+02 -3.332149e-01 -1.889329e+02))
0.224526      	((1.342112e+05 -2.034956e+05 9.200359e+04) (-1.722861e+01 -2.614384e+04 -4.723295e+00)) ((1.341247e+00 -1.704617e+00 1.473441e+00) (1.320046e+02 -4.481724e-01 -1.880074e+02))
0.227053      	((1.330710e+05 -2.035496e+05 8.998620e+04) (-1.660117e+01 -2.613690e+04 -4.043055e+00)) ((1.267407e+00 -1.730446e+00 1.590993e+00) (1.296231e+02 -5.610302e-01 -1.868487e+02))
