# Forces      
# CofR        : (0.000000e+00 0.000000e+00 0.000000e+00)
# Time        forces(pressure viscous)	moments(pressure viscous)
0             	((0.000000e+00 0.000000e+00 0.000000e+00) (0.000000e+00 0.000000e+00 0.000000e+00)) ((0.000000e+00 0.000000e+00 0.000000e+00) (0.000000e+00 0.000000e+00 0.000000e+00))
0.012         	((2.124909e-03 1.893969e-02 -1.625193e-04) (-1.702921e-06 1.523545e-06 4.365583e-08)) ((-6.119179e-05 3.884782e-06 1.814146e-02) (-3.644761e-06 1.250148e-07 1.588408e+00))
0.0264        	((4.618603e-04 -1.489040e-02 -7.684611e-04) (-1.594366e-05 4.727812e-05 -5.849179e-06)) ((-5.914340e-05 1.723732e-05 1.386017e-02) (-1.895855e-05 -4.074732e-06 6.156585e+00))
0.04368       	((1.517692e-03 7.368327e-03 1.019931e-03) (-4.215956e-05 -2.797534e-07 -1.702310e-05)) ((-6.779431e-05 1.542484e-05 1.409567e-02) (-4.373977e-05 -3.981335e-06 6.536137e+00))
0.064416      	((-4.339134e-03 -6.495918e-03 -2.671760e-03) (-7.256231e-05 -2.784541e-05 -3.205831e-05)) ((-5.883661e-05 1.624494e-05 1.306375e-02) (-6.013697e-05 -1.157962e-05 6.375479e+00))
0.0892992     	((1.716452e-03 3.562365e-04 6.606347e-05) (-9.701812e-05 -4.249701e-05 -4.655935e-05)) ((-5.793788e-05 1.839634e-05 1.282798e-02) (-7.645562e-05 -3.318807e-05 6.196076e+00))
0.119159      	((4.143416e-04 -2.757427e-03 -1.313779e-03) (-1.079772e-04 -5.183966e-05 -5.408754e-05)) ((-5.509958e-05 1.618937e-05 1.207479e-02) (-8.510731e-05 -6.004522e-05 6.013087e+00))
0.154991      	((1.084757e-03 -1.412611e-03 1.739837e-04) (-1.014692e-04 -6.889129e-05 -5.563059e-05)) ((-4.780512e-05 1.599744e-05 1.157433e-02) (-8.693243e-05 -7.835699e-05 5.839059e+00))
0.197989      	((2.263890e-04 -1.341472e-03 2.657283e-04) (-8.514219e-05 -9.155398e-05 -5.405090e-05)) ((-4.291516e-05 1.661273e-05 1.095676e-02) (-9.284827e-05 -8.614587e-05 5.682855e+00))
0.249587      	((-4.778667e-04 -9.627136e-04 4.241539e-04) (-6.929288e-05 -1.055695e-04 -5.249605e-05)) ((-4.414067e-05 1.118545e-05 1.053006e-02) (-1.040956e-04 -8.661515e-05 5.544146e+00))
0.311504      	((2.627302e-04 -9.497485e-05 3.439067e-04) (-5.432515e-05 -1.026806e-04 -5.071693e-05)) ((-4.005881e-05 6.763371e-06 1.006010e-02) (-1.238941e-04 -8.247395e-05 5.410870e+00))
0.385805      	((1.999817e-03 -2.091377e-05 -4.622300e-04) (-4.417969e-05 -8.794431e-05 -5.069259e-05)) ((-3.965733e-05 3.015752e-06 9.538407e-03) (-1.414301e-04 -7.809782e-05 5.266557e+00))
0.474966      	((3.467474e-03 -6.478064e-05 -1.226751e-03) (-4.790656e-05 -8.143043e-05 -5.394114e-05)) ((-3.873072e-05 1.765747e-06 9.054398e-03) (-1.338145e-04 -5.977479e-05 5.108866e+00))
0.581959      	((7.107418e-04 -1.920018e-03 -2.429115e-04) (-6.431874e-05 -1.107469e-04 -5.682978e-05)) ((-3.681334e-05 -5.555681e-07 8.798576e-03) (-7.713565e-05 -2.644202e-05 4.947556e+00))
0.708023      	((-2.379192e-03 -1.735436e-03 -2.956586e-04) (-5.976739e-05 -1.705003e-04 -6.065655e-05)) ((-4.002046e-05 -6.912538e-07 8.690661e-03) (1.431146e-05 1.922290e-05 4.792782e+00))
0.853217      	((-7.628796e-03 -5.350071e-03 -1.165731e-03) (-3.212749e-05 -2.745013e-04 -6.067751e-05)) ((-3.800445e-05 3.766190e-06 8.521177e-03) (1.108063e-04 7.916017e-05 4.650223e+00))
1.017583      	((2.535883e-05 -4.730737e-03 -2.987882e-04) (3.552805e-05 -3.926153e-04 -5.074108e-05)) ((-3.377935e-05 -1.304021e-06 8.275683e-03) (2.097209e-04 1.297715e-04 4.520786e+00))
1.201164      	((5.947383e-03 6.046960e-03 -2.487831e-03) (1.226294e-04 -4.489191e-04 -4.590387e-05)) ((-3.165845e-05 -6.317929e-06 7.953427e-03) (2.812940e-04 1.518570e-04 4.401232e+00))
1.393719      	((9.621590e-03 1.285686e-02 -3.613335e-03) (2.168229e-04 -4.532019e-04 -2.958505e-05)) ((-3.346785e-05 -3.103891e-06 7.687313e-03) (2.862527e-04 1.653159e-04 4.292754e+00))
1.586714      	((1.508315e-02 1.301806e-02 -3.657170e-03) (3.307261e-04 -4.045178e-04 -1.385001e-05)) ((-3.315841e-05 4.002922e-06 7.516433e-03) (2.293485e-04 2.072011e-04 4.195891e+00))
1.780468      	((1.654310e-02 1.449290e-02 -6.781863e-03) (4.387332e-04 -3.211462e-04 -3.247854e-05)) ((-1.791883e-05 5.008480e-06 7.402594e-03) (1.235551e-04 2.527830e-04 4.108855e+00))
1.975101      	((1.933846e-02 1.547175e-02 -2.126953e-03) (4.060338e-04 -2.591622e-04 -9.482145e-05)) ((-1.622238e-05 4.596788e-06 7.271365e-03) (9.087505e-06 2.635367e-04 4.031257e+00))
2.170866      	((2.310093e-02 1.974787e-02 8.494932e-04) (4.482986e-04 -8.286253e-05 -1.512912e-04)) ((-2.278113e-05 1.374150e-06 7.116434e-03) (-9.536471e-05 2.017839e-04 3.962921e+00))
2.367977      	((3.421501e-02 3.626804e-02 -7.328391e-04) (3.539085e-04 1.446984e-04 -1.171040e-04)) ((-2.641865e-05 -8.418423e-07 6.961737e-03) (-1.593264e-04 9.183253e-05 3.903457e+00))
2.566362      	((2.975678e-02 4.317937e-02 -8.871588e-04) (5.063577e-05 2.002401e-04 -9.729785e-05)) ((-2.574426e-05 7.101954e-06 6.813933e-03) (-1.387520e-04 -1.476700e-05 3.852397e+00))
2.765532      	((2.517982e-02 3.960878e-02 4.645503e-04) (-1.092723e-04 9.254975e-05 -9.912253e-05)) ((-2.919402e-05 1.268940e-05 6.665658e-03) (-8.347540e-05 -1.021784e-04 3.809294e+00))
2.965636      	((2.801376e-02 3.560776e-02 2.298103e-03) (-3.388340e-05 1.314490e-05 -4.043078e-05)) ((-2.796337e-05 1.517404e-05 6.514381e-03) (-2.199553e-05 -1.923922e-04 3.773237e+00))
3.166735      	((2.675244e-02 3.188918e-02 2.109406e-03) (-4.829765e-05 -1.353274e-04 -6.219833e-06)) ((-2.919225e-05 1.882226e-05 6.379331e-03) (5.977041e-05 -2.480799e-04 3.743322e+00))
3.368891      	((2.188431e-02 2.340544e-02 2.155939e-03) (-2.451972e-05 -2.072889e-04 -1.095839e-05)) ((-2.847121e-05 2.562766e-05 6.272868e-03) (1.232642e-04 -2.389369e-04 3.718869e+00))
3.572218      	((2.578135e-02 2.949725e-02 9.314567e-04) (4.895379e-05 -3.385445e-04 -7.690463e-06)) ((-3.414919e-05 2.158730e-05 6.183768e-03) (1.537452e-04 -2.188422e-04 3.699363e+00))
3.775934      	((3.113120e-02 2.986546e-02 1.164203e-03) (1.023609e-04 -4.616095e-04 2.934270e-05)) ((-3.383571e-05 1.890061e-05 6.106019e-03) (1.729826e-04 -2.034270e-04 3.684406e+00))
3.979779      	((2.432920e-02 3.680950e-02 2.117204e-03) (3.770155e-04 -5.767705e-04 6.170290e-05)) ((-3.721367e-05 1.331252e-05 6.039417e-03) (1.873595e-04 -1.907303e-04 3.673489e+00))
4.183811      	((2.092063e-02 2.531234e-02 2.180010e-03) (7.782732e-04 -6.591030e-04 8.807202e-05)) ((-3.406914e-05 8.794071e-06 5.982354e-03) (1.954710e-04 -1.740610e-04 3.666222e+00))
4.388066      	((2.703321e-02 4.415358e-02 2.036624e-03) (9.510257e-04 -3.820921e-04 6.229910e-05)) ((-2.663270e-05 3.943953e-06 5.930057e-03) (1.733840e-04 -1.556742e-04 3.662253e+00))
4.592543      	((2.534424e-02 5.960027e-02 1.694221e-03) (9.803040e-04 -5.783270e-05 4.409616e-05)) ((-1.657646e-05 4.402439e-07 5.876106e-03) (1.155643e-04 -1.177404e-04 3.661434e+00))
4.797252      	((2.908936e-02 5.284730e-02 7.138559e-03) (8.609409e-04 -4.062907e-05 3.701421e-05)) ((-2.312896e-05 -4.660791e-06 5.836212e-03) (7.609565e-05 -5.573880e-05 3.663946e+00))
5.002188      	((2.278816e-02 5.084638e-02 7.391814e-03) (6.983503e-04 -5.001843e-05 6.619998e-05)) ((-2.172781e-05 -8.476323e-06 5.807258e-03) (6.315773e-05 -1.128052e-05 3.669807e+00))
5.207364      	((1.156116e-02 5.324485e-02 7.883324e-03) (6.477868e-04 -4.984977e-05 5.875899e-05)) ((-1.520837e-05 -4.537938e-06 5.786915e-03) (5.217738e-05 1.591726e-05 3.678943e+00))
5.412813      	((9.905693e-03 6.007585e-02 3.565506e-03) (5.516838e-04 1.418727e-04 3.050495e-05)) ((-1.700281e-05 -3.560815e-06 5.788785e-03) (2.091384e-05 5.063532e-05 3.691431e+00))
5.618567      	((1.550222e-05 7.018518e-02 1.002837e-03) (-4.859344e-06 1.909778e-04 2.593066e-05)) ((-1.799787e-05 -3.515568e-06 5.795714e-03) (-4.024807e-06 9.555290e-05 3.707117e+00))
5.824622      	((-4.328262e-03 5.926800e-02 -4.103308e-03) (-3.646314e-04 -4.633967e-04 3.909507e-05)) ((-1.849516e-05 -3.133248e-06 5.808076e-03) (-3.678201e-05 1.352912e-04 3.725462e+00))
6.030934      	((1.217445e-02 5.721765e-02 -8.907828e-03) (-3.240909e-04 -9.211721e-04 1.154253e-05)) ((-2.453795e-05 -4.785874e-06 5.834322e-03) (-9.484301e-05 1.255839e-04 3.746077e+00))
