# Forces      
# CofR        : (0.000000e+00 0.000000e+00 0.000000e+00)
# Time        forces(pressure viscous)	moments(pressure viscous)
0             	((0.000000e+00 0.000000e+00 0.000000e+00) (-7.973935e-13 -7.995727e-03 -4.943755e-13)) ((0.000000e+00 0.000000e+00 0.000000e+00) (2.409532e-10 -3.821048e-14 -1.068016e-09))
0.012         	((4.586638e-05 -2.323238e+02 1.009219e-04) (3.372005e-09 -1.042001e-02 1.142567e-08)) ((6.026670e-06 3.354299e-07 -3.884565e-05) (-4.978703e-09 -3.008630e-11 3.301130e-09))
0.0264        	((-8.193643e-04 1.561709e+01 -5.793588e-03) (-2.766243e-09 -1.127153e-02 -2.881503e-08)) ((-2.116697e-07 -1.028654e-07 3.013517e-06) (-9.601077e-10 -6.795080e-11 -5.708004e-10))
0.04368       	((-1.391438e-03 4.936239e+01 6.304039e-03) (-2.869665e-08 -1.041695e-02 -8.426755e-09)) ((-2.550222e-06 4.375772e-08 9.852292e-06) (2.396033e-08 -9.331913e-11 -2.598113e-08))
0.064416      	((-3.987148e-06 7.579790e-01 -1.247874e-04) (-1.213366e-07 -9.730983e-03 -3.749944e-08)) ((3.129555e-07 9.126900e-10 -3.653634e-07) (2.243936e-08 -2.133688e-10 -2.562092e-08))
0.0892992     	((7.297873e-04 -6.965751e-01 -8.718919e-04) (-1.678359e-07 -9.580246e-03 -1.266576e-07)) ((3.229629e-07 -4.363769e-08 -4.712576e-07) (9.912406e-09 2.395918e-09 -1.636657e-08))
0.119159      	((-2.608515e-04 1.152672e+00 -5.389040e-04) (-1.470000e-07 -9.513783e-03 -1.550057e-07)) ((-1.055847e-07 -1.383779e-09 2.559233e-07) (-1.955658e-09 2.535420e-09 -1.067615e-08))
0.154991      	((2.137908e-04 6.511960e-01 1.102853e-04) (-1.436421e-07 -9.429771e-03 -1.325587e-07)) ((-6.811219e-08 5.155773e-08 1.094141e-08) (-1.528522e-08 2.785077e-09 2.575117e-09))
0.197989      	((1.435169e-04 2.517580e-01 2.691108e-04) (-1.352291e-07 -9.338760e-03 -9.339421e-08)) ((-5.892970e-08 4.797753e-08 1.266426e-08) (-7.911118e-09 8.359271e-09 6.073355e-09))
0.249587      	((-3.764287e-05 1.886296e-01 -2.587797e-05) (-1.097948e-07 -9.252186e-03 -6.085618e-08)) ((3.553164e-08 3.435731e-08 5.494994e-08) (-7.563725e-09 9.084352e-09 9.228399e-09))
0.311504      	((-1.428000e-05 1.423081e-01 9.581889e-05) (-1.052433e-07 -9.174338e-03 -6.937811e-08)) ((-3.752648e-08 -2.007738e-09 5.743430e-08) (-2.004398e-08 3.678264e-09 1.485516e-08))
0.385805      	((-2.123609e-05 8.364059e-02 -1.034089e-05) (-1.319490e-07 -9.101119e-03 -1.678583e-07)) ((-2.044616e-08 -4.432480e-08 4.268059e-08) (-3.060734e-08 -7.553012e-10 1.891766e-08))
0.474966      	((-1.827963e-05 4.962795e-02 -3.971078e-05) (-1.494515e-07 -9.028195e-03 -2.494476e-07)) ((-1.715447e-08 -3.521706e-08 5.102683e-08) (-4.305259e-08 -3.258301e-09 2.715018e-08))
0.581959      	((4.239212e-06 2.996027e-02 8.359761e-07) (-1.695774e-07 -8.953131e-03 -2.710709e-07)) ((-2.653539e-09 -3.883170e-08 2.836244e-08) (-5.195764e-08 -5.074017e-09 4.057023e-08))
0.710351      	((-1.184522e-05 1.592753e-02 9.345371e-06) (-1.836000e-07 -8.873366e-03 -2.996364e-07)) ((-2.196470e-09 -3.253886e-08 1.415873e-08) (-5.771799e-08 -7.030745e-09 5.221323e-08))
0.864421      	((-1.463079e-06 6.210419e-03 -2.938717e-05) (-1.753959e-07 -8.786926e-03 -3.254672e-07)) ((6.604879e-09 -2.115033e-08 3.566055e-09) (-6.026395e-08 -7.036013e-09 5.975452e-08))
1.049306      	((-1.668525e-05 3.096232e-05 -4.240051e-05) (-1.820645e-07 -8.692272e-03 -3.197385e-07)) ((2.954724e-09 -9.420252e-09 4.568554e-09) (-5.938704e-08 -6.762551e-09 6.998728e-08))
1.271167      	((-1.134875e-05 -3.530944e-03 -1.921183e-05) (-2.206240e-07 -8.587682e-03 -3.306309e-07)) ((1.490591e-09 5.885312e-09 3.228693e-09) (-5.422205e-08 -6.449058e-09 8.041880e-08))
1.5374        	((-1.446753e-05 -5.131474e-03 -6.317604e-06) (-2.155166e-07 -8.471282e-03 -3.685349e-07)) ((-6.050109e-10 1.381793e-08 1.509915e-09) (-5.050291e-08 -5.242515e-09 8.804652e-08))
1.85688       	((-4.208221e-06 -5.784010e-03 -1.432143e-05) (-1.324316e-07 -8.341208e-03 -4.604175e-07)) ((4.669422e-09 1.365462e-08 -3.643726e-09) (-4.883189e-08 -4.242676e-09 8.974963e-08))
2.240256      	((6.975687e-06 -6.126811e-03 -1.981840e-05) (-6.686600e-08 -8.195866e-03 -5.848160e-07)) ((-4.785379e-10 1.379622e-08 -1.002307e-08) (-5.348253e-08 -5.882669e-10 8.855241e-08))
2.700307      	((5.054299e-06 -6.146089e-03 -3.161351e-05) (-6.169058e-08 -8.034288e-03 -6.303813e-07)) ((2.102784e-09 1.683545e-08 -1.203872e-08) (-5.698005e-08 2.256805e-09 9.935018e-08))
3.252369      	((5.807658e-07 -5.933101e-03 -1.564765e-05) (-6.901884e-08 -7.855915e-03 -5.757478e-07)) ((9.334889e-10 9.659487e-09 -1.296466e-08) (-6.324340e-08 3.605387e-09 1.119223e-07))
3.914842      	((1.368562e-06 -5.632131e-03 -2.078024e-05) (-1.209643e-07 -7.660021e-03 -5.548023e-07)) ((3.459739e-09 8.838235e-09 -1.674565e-08) (-5.532490e-08 7.954148e-09 1.143994e-07))
4.709811      	((-6.061720e-06 -5.287322e-03 -6.979420e-06) (-5.331706e-09 -7.446116e-03 -5.547617e-07)) ((-2.044231e-09 -1.813779e-09 -1.106602e-08) (-3.752714e-08 1.147633e-08 1.217235e-07))
5.663773      	((9.955129e-06 -4.930322e-03 -2.175113e-05) (1.058534e-07 -7.215673e-03 -4.476644e-07)) ((4.661205e-10 -6.016162e-09 -5.626388e-09) (-3.067228e-08 1.176484e-08 1.124531e-07))
6.808528      	((-3.524051e-06 -4.603849e-03 -1.572365e-06) (-1.184784e-07 -6.971347e-03 -4.360259e-07)) ((-1.775723e-09 -1.061246e-08 2.554061e-09) (-2.898988e-08 1.237819e-08 9.066898e-08))
8.182233      	((-3.070669e-06 -4.338798e-03 -1.676814e-05) (-4.420438e-07 -6.717610e-03 -4.227762e-07)) ((1.940503e-09 -6.996042e-09 1.826862e-09) (-3.274962e-08 1.595777e-08 6.020994e-08))
9.83068       	((-2.068344e-05 -4.123700e-03 -1.764145e-06) (-4.107202e-07 -6.460848e-03 -3.444630e-07)) ((1.027472e-09 -2.927548e-09 -3.115441e-09) (-1.928514e-08 1.643143e-08 4.999608e-08))
11.808816     	((3.098561e-06 -3.945029e-03 -5.725256e-06) (-4.364830e-07 -6.207214e-03 -9.189705e-08)) ((1.572231e-09 7.064601e-09 -5.737741e-09) (-2.558052e-08 2.165489e-08 3.432097e-08))
14.182579     	((-1.644127e-05 -3.783787e-03 4.490226e-06) (-3.946351e-07 -5.961712e-03 -1.854501e-07)) ((-1.087782e-09 7.836982e-09 -4.233818e-09) (-4.900193e-08 1.328399e-08 3.085871e-08))
17.031095     	((3.761323e-06 -3.673162e-03 -8.455813e-06) (-2.289281e-07 -5.726263e-03 -3.441307e-07)) ((-1.835352e-09 5.342724e-09 -2.883968e-09) (-8.287429e-08 1.109684e-08 2.539245e-08))
20.449314     	((-7.183193e-06 -3.606245e-03 -3.726247e-08) (-3.272846e-07 -5.499521e-03 -2.281321e-07)) ((1.412343e-09 5.567118e-09 -1.119298e-09) (-8.679970e-08 1.070190e-08 2.496217e-08))
24.551176     	((-1.002806e-08 -3.627876e-03 -3.247419e-06) (-4.163614e-07 -5.279380e-03 -1.573305e-07)) ((1.937253e-09 6.465617e-09 1.224234e-09) (-7.351582e-08 9.646944e-09 2.035944e-08))
29.473411     	((-5.535590e-06 -3.717035e-03 -5.758066e-07) (-5.989355e-07 -5.063342e-03 -1.003762e-07)) ((-1.321234e-10 7.387285e-09 6.690372e-10) (-6.944714e-08 7.099344e-09 -1.938870e-09))
35.380094     	((-5.162110e-06 -3.895375e-03 -9.497210e-07) (-9.046028e-07 -4.849791e-03 -8.157199e-08)) ((7.340891e-11 7.367520e-09 -1.190875e-09) (-6.666564e-08 4.045206e-09 5.918446e-09))
42.468112     	((-7.516520e-06 -4.178501e-03 -4.097519e-07) (-1.124602e-06 -4.640568e-03 -9.032020e-08)) ((3.881623e-10 6.416744e-09 -2.177794e-10) (-6.460014e-08 2.457092e-09 2.190749e-08))
50.973735     	((-5.059587e-06 -4.603734e-03 -6.018235e-07) (-9.242715e-07 -4.439900e-03 -8.842512e-08)) ((2.966034e-10 6.022134e-09 -1.482388e-11) (-6.382294e-08 4.064271e-09 2.238247e-08))
61.180482     	((-6.859328e-07 -5.184039e-03 -4.913386e-07) (-3.195058e-07 -4.251160e-03 -6.141487e-08)) ((3.755995e-12 6.060503e-09 1.109418e-09) (-5.482220e-08 5.497336e-09 1.438645e-08))
73.428578     	((4.598685e-07 -5.956274e-03 -4.447151e-07) (1.211074e-08 -4.077074e-03 -4.299876e-08)) ((1.756268e-10 5.600126e-09 1.277222e-09) (-4.260510e-08 6.269308e-09 2.280751e-08))
87.780599     	((1.658457e-06 -6.917628e-03 -2.513583e-07) (2.234241e-07 -3.922145e-03 -3.282603e-08)) ((2.701198e-10 4.956384e-09 1.019011e-09) (-3.355411e-08 7.506094e-09 2.929720e-08))
104.237788    	((4.254253e-06 -8.058212e-03 6.280627e-07) (5.661444e-07 -3.788238e-03 -2.096114e-08)) ((4.527505e-11 4.096397e-09 1.868164e-09) (-3.220410e-08 9.747954e-09 -4.240821e-09))
122.785936    	((4.440741e-06 -9.372181e-03 1.972186e-06) (3.434821e-07 -3.676874e-03 -5.522459e-10)) ((-4.477664e-10 3.317297e-09 3.246969e-09) (-2.716385e-08 1.088438e-08 -2.966170e-08))
143.403625    	((1.970331e-06 -1.077363e-02 3.427895e-06) (-2.290258e-07 -3.586843e-03 -3.336875e-10)) ((-1.038778e-09 2.717029e-09 5.159764e-09) (-5.343560e-09 1.032410e-08 -7.440428e-09))
163.820616    	((3.705343e-06 -1.214303e-02 5.437758e-06) (-4.001416e-07 -3.512658e-03 -6.064802e-08)) ((-1.676304e-09 1.927652e-09 7.068428e-09) (4.220955e-08 7.148808e-09 -3.396668e-08))
183.9731      	((6.341775e-06 -1.335470e-02 7.348572e-06) (-2.903234e-07 -3.445218e-03 -1.376854e-07)) ((-1.429111e-09 2.079525e-09 7.789738e-09) (9.372132e-08 2.177950e-09 -1.011663e-07))
203.97934     	((8.377357e-06 -1.436745e-02 8.802148e-06) (-1.337591e-07 -3.385726e-03 -1.049027e-07)) ((-6.408748e-10 1.191546e-09 7.824869e-09) (1.040504e-07 -1.079871e-09 -1.181291e-07))
223.969843    	((1.065525e-05 -1.510601e-02 1.128510e-05) (4.242614e-08 -3.333644e-03 5.408002e-08)) ((-2.121642e-11 5.960885e-10 7.883966e-09) (6.118779e-08 -4.796358e-10 -7.074364e-08))
244.00257     	((1.257162e-05 -1.557402e-02 1.400258e-05) (2.241598e-07 -3.285924e-03 2.556385e-07)) ((4.159223e-11 8.021300e-10 8.411899e-09) (-3.470437e-09 6.848354e-10 -5.753516e-09))
264.049659    	((1.174938e-05 -1.571025e-02 1.440913e-05) (3.012412e-07 -3.241939e-03 3.723290e-07)) ((2.254802e-11 1.774651e-09 8.690225e-09) (-4.081642e-08 3.905021e-10 2.886985e-08))
284.054709    	((1.117493e-05 -1.562309e-02 1.484749e-05) (3.146943e-07 -3.201911e-03 4.079455e-07)) ((-2.337842e-10 3.213712e-09 9.174609e-09) (-4.987457e-08 -4.183493e-09 3.226781e-08))
303.998356    	((1.093776e-05 -1.546421e-02 1.557022e-05) (3.272947e-07 -3.166309e-03 4.137158e-07)) ((-3.697525e-10 4.230378e-09 9.478403e-09) (-4.732471e-08 -8.036127e-09 3.331295e-08))
323.893404    	((1.158624e-05 -1.525008e-02 1.848933e-05) (3.775911e-07 -3.136221e-03 4.595208e-07)) ((-6.737633e-10 4.932036e-09 1.003453e-08) (-4.935024e-08 -7.197784e-09 5.193178e-08))
343.756119    	((1.319067e-05 -1.502668e-02 2.253949e-05) (4.433564e-07 -3.111068e-03 5.460208e-07)) ((-1.074913e-09 5.768187e-09 1.082669e-08) (-5.467865e-08 -4.194486e-09 7.375258e-08))
363.591441    	((1.396669e-05 -1.485439e-02 2.516097e-05) (5.058139e-07 -3.088740e-03 6.292586e-07)) ((-1.379653e-09 6.389526e-09 1.141238e-08) (-4.981649e-08 -3.938281e-09 8.867178e-08))
383.393502    	((1.192911e-05 -1.472344e-02 2.795524e-05) (5.372003e-07 -3.067999e-03 6.966686e-07)) ((-1.322225e-09 6.597329e-09 1.172947e-08) (-3.235479e-08 -5.699655e-09 9.455192e-08))
403.156693    	((9.766798e-06 -1.454720e-02 2.871850e-05) (5.155956e-07 -3.048285e-03 7.201967e-07)) ((-1.553128e-09 6.642033e-09 1.217256e-08) (-3.294350e-09 -7.205251e-09 9.085817e-08))
422.88323     	((1.086545e-05 -1.437344e-02 3.434001e-05) (4.926286e-07 -3.030135e-03 7.519737e-07)) ((-1.606290e-09 6.498697e-09 1.252396e-08) (3.160660e-08 -7.857026e-09 8.370956e-08))
442.576879    	((1.270867e-05 -1.419280e-02 3.956237e-05) (5.266953e-07 -3.013432e-03 8.562699e-07)) ((-1.922699e-09 6.265673e-09 1.306961e-08) (5.738595e-08 -6.161957e-09 8.150585e-08))
462.239468    	((1.377512e-05 -1.405060e-02 4.416457e-05) (5.803680e-07 -2.997874e-03 9.992198e-07)) ((-2.066880e-09 6.160930e-09 1.339348e-08) (7.765208e-08 -3.834711e-09 7.841853e-08))
481.872033    	((1.687558e-05 -1.392912e-02 5.080508e-05) (6.251058e-07 -2.983476e-03 1.147460e-06)) ((-2.110064e-09 6.251522e-09 1.368138e-08) (1.072676e-07 -1.777057e-09 6.194725e-08))
501.476548    	((2.226223e-05 -1.381950e-02 5.794190e-05) (6.806848e-07 -2.969920e-03 1.306502e-06)) ((-2.021507e-09 6.426917e-09 1.379517e-08) (1.391471e-07 3.623859e-10 3.826246e-08))
521.055378    	((2.835648e-05 -1.373154e-02 6.629276e-05) (7.352444e-07 -2.957201e-03 1.473333e-06)) ((-1.810270e-09 6.514205e-09 1.383636e-08) (1.740167e-07 2.639819e-09 2.065586e-10))
540.60961     	((3.513682e-05 -1.364396e-02 7.414837e-05) (7.622286e-07 -2.945513e-03 1.625122e-06)) ((-1.639258e-09 6.424881e-09 1.391323e-08) (2.278341e-07 4.754238e-09 -6.671430e-08))
560.140688    	((4.288067e-05 -1.357250e-02 8.243018e-05) (7.910571e-07 -2.934819e-03 1.771124e-06)) ((-1.466263e-09 6.270006e-09 1.388571e-08) (2.888806e-07 4.598071e-09 -1.459041e-07))
579.650097    	((5.271644e-05 -1.349826e-02 9.191838e-05) (8.706368e-07 -2.924790e-03 1.963385e-06)) ((-1.236445e-09 6.208916e-09 1.385882e-08) (3.396552e-07 2.338637e-09 -2.238533e-07))
599.138399    	((6.303525e-05 -1.341472e-02 1.016203e-04) (9.994296e-07 -2.915112e-03 2.199796e-06)) ((-9.389173e-10 6.214348e-09 1.377303e-08) (3.871477e-07 8.754568e-10 -3.051236e-07))
618.60634     	((7.197089e-05 -1.333703e-02 1.108636e-04) (1.154270e-06 -2.905776e-03 2.442750e-06)) ((-6.739292e-10 6.249958e-09 1.383107e-08) (4.306610e-07 7.107013e-10 -3.799117e-07))
638.055246    	((8.255493e-05 -1.326217e-02 1.200226e-04) (1.351831e-06 -2.896805e-03 2.699275e-06)) ((-4.893237e-10 6.286527e-09 1.396700e-08) (4.669059e-07 1.052040e-10 -4.399942e-07))
657.486379    	((9.431038e-05 -1.320179e-02 1.309131e-04) (1.610233e-06 -2.888370e-03 2.990836e-06)) ((-3.671828e-10 6.364087e-09 1.415063e-08) (4.927469e-07 -8.751927e-10 -4.856728e-07))
676.900523    	((1.071108e-04 -1.315112e-02 1.443399e-04) (1.912202e-06 -2.880463e-03 3.304249e-06)) ((-1.975119e-10 6.402470e-09 1.424527e-08) (5.252577e-07 -6.154076e-11 -5.249228e-07))
696.298285    	((1.195482e-04 -1.311131e-02 1.569685e-04) (2.257184e-06 -2.872962e-03 3.651379e-06)) ((2.025515e-11 6.466965e-09 1.425158e-08) (5.639654e-07 2.316887e-09 -5.606244e-07))
715.68019     	((1.347433e-04 -1.307781e-02 1.722337e-04) (2.645691e-06 -2.865806e-03 4.025607e-06)) ((3.348611e-10 6.475615e-09 1.423303e-08) (6.151172e-07 3.610081e-09 -5.981057e-07))
735.046714    	((1.510932e-04 -1.304720e-02 1.885009e-04) (3.081557e-06 -2.858941e-03 4.418689e-06)) ((6.119371e-10 6.399845e-09 1.418815e-08) (6.814247e-07 2.713814e-09 -6.346925e-07))
754.39834     	((1.703063e-04 -1.301251e-02 2.075478e-04) (3.584640e-06 -2.852353e-03 4.862543e-06)) ((9.807349e-10 6.311052e-09 1.403531e-08) (7.525790e-07 2.812815e-09 -6.675677e-07))
773.735464    	((1.897351e-04 -1.297344e-02 2.276623e-04) (4.146238e-06 -2.846034e-03 5.368847e-06)) ((1.231727e-09 6.304958e-09 1.398373e-08) (8.204173e-07 4.378930e-09 -6.953231e-07))
793.05845     	((2.132512e-04 -1.292932e-02 2.520136e-04) (4.771536e-06 -2.839973e-03 5.936870e-06)) ((1.569340e-09 6.342542e-09 1.391089e-08) (8.895453e-07 6.171335e-09 -7.197515e-07))
812.367769    	((2.362693e-04 -1.288352e-02 2.771277e-04) (5.446285e-06 -2.834149e-03 6.558903e-06)) ((1.786308e-09 6.415104e-09 1.389666e-08) (9.693179e-07 7.284436e-09 -7.495045e-07))
831.664145    	((2.632358e-04 -1.283778e-02 3.040393e-04) (6.156471e-06 -2.828573e-03 7.221093e-06)) ((1.958448e-09 6.502866e-09 1.395725e-08) (1.060408e-06 7.055643e-09 -7.908768e-07))
850.948361    	((2.936186e-04 -1.279674e-02 3.332038e-04) (6.926358e-06 -2.823303e-03 7.935318e-06)) ((2.186145e-09 6.537423e-09 1.391263e-08) (1.156059e-06 5.929156e-09 -8.413961e-07))
870.220839    	((3.281229e-04 -1.275862e-02 3.668893e-04) (7.788213e-06 -2.818373e-03 8.741753e-06)) ((2.475260e-09 6.512467e-09 1.392125e-08) (1.248651e-06 4.648782e-09 -8.915160e-07))
889.481886    	((3.664453e-04 -1.272032e-02 4.047511e-04) (8.764226e-06 -2.813702e-03 9.663185e-06)) ((2.968047e-09 6.499738e-09 1.376642e-08) (1.352706e-06 5.514244e-09 -9.397154e-07))
908.731852    	((4.096882e-04 -1.267818e-02 4.457575e-04) (9.863274e-06 -2.809139e-03 1.070667e-05)) ((3.593211e-09 6.500246e-09 1.346215e-08) (1.469277e-06 5.311109e-09 -1.003089e-06))
927.971075    	((4.560290e-04 -1.263894e-02 4.894302e-04) (1.108247e-05 -2.804651e-03 1.186571e-05)) ((4.209767e-09 6.462543e-09 1.317507e-08) (1.592545e-06 4.292580e-09 -1.085540e-06))
947.199937    	((5.106860e-04 -1.259547e-02 5.409837e-04) (1.242380e-05 -2.800241e-03 1.314313e-05)) ((4.998609e-09 6.372031e-09 1.285043e-08) (1.726893e-06 3.880457e-09 -1.192272e-06))
966.418835    	((5.728177e-04 -1.255572e-02 5.973046e-04) (1.390760e-05 -2.795941e-03 1.453941e-05)) ((5.837294e-09 6.209518e-09 1.251081e-08) (1.881548e-06 3.421776e-09 -1.331719e-06))
985.628166    	((6.392142e-04 -1.252208e-02 6.564563e-04) (1.554595e-05 -2.791831e-03 1.604042e-05)) ((6.667468e-09 6.016384e-09 1.226005e-08) (2.060966e-06 1.776639e-09 -1.501189e-06))
1004.82839    	((7.120747e-04 -1.248638e-02 7.229152e-04) (1.734453e-05 -2.787886e-03 1.767529e-05)) ((7.475014e-09 5.846281e-09 1.209127e-08) (2.266514e-06 -6.622591e-10 -1.704711e-06))
1024.020003   	((7.969441e-04 -1.245018e-02 7.993684e-04) (1.934597e-05 -2.784070e-03 1.950730e-05)) ((8.247844e-09 5.645573e-09 1.194464e-08) (2.494279e-06 -3.964363e-09 -1.943067e-06))
1043.203488   	((8.951430e-04 -1.241493e-02 8.887075e-04) (2.162353e-05 -2.780388e-03 2.159777e-05)) ((9.142828e-09 5.339445e-09 1.183544e-08) (2.740988e-06 -8.564664e-09 -2.208629e-06))
1062.379304   	((1.005505e-03 -1.238204e-02 9.893404e-04) (2.422691e-05 -2.776833e-03 2.399677e-05)) ((9.985631e-09 5.033688e-09 1.185921e-08) (3.010063e-06 -1.757231e-08 -2.506849e-06))
1081.54791    	((1.128394e-03 -1.235765e-02 1.101714e-03) (2.717423e-05 -2.773423e-03 2.673867e-05)) ((1.072913e-08 4.634897e-09 1.199676e-08) (3.312546e-06 -2.811281e-08 -2.853850e-06))
1100.709773   	((1.263817e-03 -1.233724e-02 1.225971e-03) (3.047430e-05 -2.770170e-03 2.981613e-05)) ((1.142600e-08 4.069316e-09 1.224735e-08) (3.659431e-06 -3.646552e-08 -3.257443e-06))
1119.865367   	((1.419797e-03 -1.232039e-02 1.369042e-03) (3.418072e-05 -2.767049e-03 3.325660e-05)) ((1.226947e-08 3.421443e-09 1.249836e-08) (4.064674e-06 -4.335222e-08 -3.724919e-06))
1139.015121   	((1.593391e-03 -1.231324e-02 1.530142e-03) (3.833350e-05 -2.764075e-03 3.710268e-05)) ((1.330081e-08 2.662658e-09 1.268333e-08) (4.547067e-06 -5.212834e-08 -4.267510e-06))
1158.159476   	((1.786139e-03 -1.230832e-02 1.711285e-03) (4.295811e-05 -2.761241e-03 4.140198e-05)) ((1.470503e-08 1.795874e-09 1.268984e-08) (5.115993e-06 -6.388925e-08 -4.891914e-06))
1177.298929   	((1.999111e-03 -1.230981e-02 1.911002e-03) (4.810855e-05 -2.758610e-03 4.620424e-05)) ((1.649901e-08 8.010928e-10 1.230078e-08) (5.753597e-06 -7.252641e-08 -5.582969e-06))
1196.434037   	((2.234550e-03 -1.231596e-02 2.132254e-03) (5.385222e-05 -2.756333e-03 5.157276e-05)) ((1.900923e-08 -1.687510e-10 1.142447e-08) (6.423266e-06 -7.447816e-08 -6.310211e-06))
1215.565418   	((2.494043e-03 -1.232864e-02 2.376697e-03) (6.029300e-05 -2.754487e-03 5.760525e-05)) ((2.230695e-08 -1.119787e-09 9.971897e-09) (7.116389e-06 -6.826128e-08 -7.047004e-06))
1234.693665   	((2.781141e-03 -1.234924e-02 2.648526e-03) (6.754249e-05 -2.753094e-03 6.439763e-05)) ((2.623563e-08 -2.107034e-09 7.990717e-09) (7.844566e-06 -5.539674e-08 -7.802660e-06))
1253.819362   	((3.098498e-03 -1.237781e-02 2.947657e-03) (7.568088e-05 -2.752077e-03 7.200722e-05)) ((3.106621e-08 -3.235235e-09 5.197076e-09) (8.636961e-06 -4.546164e-08 -8.623094e-06))
1272.943169   	((3.452365e-03 -1.241817e-02 3.279009e-03) (8.476777e-05 -2.751474e-03 8.048314e-05)) ((3.643967e-08 -4.339356e-09 2.069879e-09) (9.528513e-06 -3.987405e-08 -9.553253e-06))
1292.06582    	((3.840963e-03 -1.247250e-02 3.642134e-03) (9.482157e-05 -2.751359e-03 8.984383e-05)) ((4.185835e-08 -5.728747e-09 -9.543590e-10) (1.055190e-05 -3.615230e-08 -1.062335e-05))
1311.187977   	((4.266288e-03 -1.255294e-02 4.041110e-03) (1.059192e-04 -2.751850e-03 1.001986e-04)) ((4.751384e-08 -7.424354e-09 -3.889996e-09) (1.170983e-05 -2.968486e-08 -1.183928e-05))
1330.310292   	((4.729853e-03 -1.266324e-02 4.476076e-03) (1.180987e-04 -2.753116e-03 1.115893e-04)) ((5.365281e-08 -9.457537e-09 -7.015452e-09) (1.303593e-05 -2.116649e-08 -1.323122e-05))
1349.426976   	((5.229552e-03 -1.279391e-02 4.946822e-03) (1.314423e-04 -2.755194e-03 1.240481e-04)) ((6.025435e-08 -1.174306e-08 -1.053527e-08) (1.454153e-05 -1.555778e-08 -1.480105e-05))
1368.527777   	((5.766722e-03 -1.295428e-02 5.452379e-03) (1.460407e-04 -2.758096e-03 1.377240e-04)) ((6.728464e-08 -1.418594e-08 -1.434744e-08) (1.618736e-05 -1.688161e-08 -1.652745e-05))
1387.610913   	((6.337785e-03 -1.315646e-02 5.991792e-03) (1.619313e-04 -2.762127e-03 1.527003e-04)) ((7.444128e-08 -1.702444e-08 -1.836952e-08) (1.793360e-05 -2.408129e-08 -1.838623e-05))
1406.673229   	((6.951928e-03 -1.340140e-02 6.569272e-03) (1.791469e-04 -2.767943e-03 1.689342e-04)) ((8.150705e-08 -2.053317e-08 -2.203735e-08) (1.971530e-05 -3.680119e-08 -2.029152e-05))
1425.711634   	((7.614308e-03 -1.369159e-02 7.190173e-03) (1.979900e-04 -2.775828e-03 1.865826e-04)) ((8.929158e-08 -2.478373e-08 -2.626006e-08) (2.148476e-05 -4.535754e-08 -2.217350e-05))
1444.724381   	((8.311180e-03 -1.405014e-02 7.847310e-03) (2.183312e-04 -2.785433e-03 2.056240e-04)) ((9.751828e-08 -2.966927e-08 -3.063076e-08) (2.337608e-05 -4.352863e-08 -2.419842e-05))
1463.71239    	((9.044918e-03 -1.448915e-02 8.540682e-03) (2.400760e-04 -2.796967e-03 2.261197e-04)) ((1.050649e-07 -3.535813e-08 -3.462962e-08) (2.544522e-05 -2.561115e-08 -2.640312e-05))
1482.678222   	((9.804843e-03 -1.499619e-02 9.253311e-03) (2.633908e-04 -2.810959e-03 2.481829e-04)) ((1.112912e-07 -4.204654e-08 -3.789906e-08) (2.755255e-05 2.355243e-09 -2.867326e-05))
1501.621061   	((1.058870e-02 -1.557486e-02 9.988938e-03) (2.883356e-04 -2.827982e-03 2.718053e-04)) ((1.163034e-07 -4.975801e-08 -4.081787e-08) (2.951278e-05 2.554889e-08 -3.084174e-05))
1520.536183   	((1.137782e-02 -1.621665e-02 1.073003e-02) (3.150061e-04 -2.848470e-03 2.969740e-04)) ((1.194501e-07 -5.754723e-08 -4.241112e-08) (3.115200e-05 3.207984e-08 -3.269657e-05))
1539.420058   	((1.215397e-02 -1.692721e-02 1.145249e-02) (3.430231e-04 -2.872339e-03 3.233161e-04)) ((1.204361e-07 -6.628466e-08 -4.253459e-08) (3.259554e-05 3.488698e-08 -3.432402e-05))
1558.273345   	((1.289073e-02 -1.768889e-02 1.214314e-02) (3.718904e-04 -2.899487e-03 3.504453e-04)) ((1.212216e-07 -7.518997e-08 -4.271616e-08) (3.387230e-05 3.807285e-08 -3.576671e-05))
1577.098479   	((1.355854e-02 -1.850647e-02 1.277384e-02) (4.008312e-04 -2.930330e-03 3.776868e-04)) ((1.210215e-07 -8.342030e-08 -4.332833e-08) (3.499701e-05 4.841241e-08 -3.703500e-05))
1595.898019   	((1.411210e-02 -1.933703e-02 1.329553e-02) (4.291623e-04 -2.964803e-03 4.043758e-04)) ((1.191264e-07 -9.018063e-08 -4.424918e-08) (3.586482e-05 7.339198e-08 -3.798985e-05))
1614.676845   	((1.452321e-02 -2.015444e-02 1.368087e-02) (4.565045e-04 -3.002111e-03 4.300768e-04)) ((1.166667e-07 -9.556612e-08 -4.597932e-08) (3.621114e-05 1.066807e-07 -3.834342e-05))
1633.442987   	((1.474186e-02 -2.090470e-02 1.389008e-02) (4.821357e-04 -3.040576e-03 4.542281e-04)) ((1.127576e-07 -9.913701e-08 -4.813613e-08) (3.588271e-05 1.463117e-07 -3.799556e-05))
1652.212854   	((1.473770e-02 -2.155400e-02 1.387898e-02) (5.045209e-04 -3.078437e-03 4.753219e-04)) ((1.055542e-07 -1.007437e-07 -4.973201e-08) (3.504471e-05 1.855669e-07 -3.712685e-05))
1671.001176   	((1.447646e-02 -2.201578e-02 1.362902e-02) (5.220471e-04 -3.114038e-03 4.917591e-04)) ((9.754939e-08 -9.995894e-08 -5.182053e-08) (3.379432e-05 2.051615e-07 -3.579963e-05))
1689.821695   	((1.391064e-02 -2.223077e-02 1.309118e-02) (5.328405e-04 -3.145478e-03 5.018146e-04)) ((8.843508e-08 -9.491239e-08 -5.409175e-08) (3.217674e-05 2.106585e-07 -3.407717e-05))
1708.692915   	((1.298136e-02 -2.214827e-02 1.221100e-02) (5.350412e-04 -3.170550e-03 5.037971e-04)) ((8.060299e-08 -8.512123e-08 -5.818295e-08) (3.018134e-05 2.245978e-07 -3.199529e-05))
1727.638304   	((1.169453e-02 -2.167581e-02 1.100034e-02) (5.271061e-04 -3.187219e-03 4.961796e-04)) ((7.712111e-08 -7.111146e-08 -6.580367e-08) (2.790472e-05 2.423765e-07 -2.959243e-05))
1746.690554   	((9.995608e-03 -2.086324e-02 9.395169e-03) (5.067946e-04 -3.194673e-03 4.768589e-04)) ((7.334412e-08 -5.216510e-08 -7.345247e-08) (2.554487e-05 2.798739e-07 -2.708551e-05))
1765.833758   	((7.899775e-03 -1.981348e-02 7.419203e-03) (4.718634e-04 -3.193040e-03 4.438755e-04)) ((6.556323e-08 -2.786242e-08 -8.064539e-08) (2.334999e-05 3.118501e-07 -2.480163e-05))
1785.051427   	((5.537462e-03 -1.872959e-02 5.186095e-03) (4.220722e-04 -3.184595e-03 3.967433e-04)) ((4.162022e-08 -1.859479e-09 -7.847838e-08) (2.133826e-05 2.800881e-07 -2.262294e-05))
1804.355804   	((3.037249e-03 -1.779436e-02 2.831438e-03) (3.600066e-04 -3.173054e-03 3.377575e-04)) ((-4.754119e-09 1.925496e-08 -6.126850e-08) (1.927836e-05 2.350665e-07 -2.025698e-05))
