# Forces      
# CofR        : (0.000000e+00 0.000000e+00 0.000000e+00)
# Time        forces(pressure viscous)	moments(pressure viscous)
0             	((0.000000e+00 0.000000e+00 0.000000e+00) (0.000000e+00 0.000000e+00 0.000000e+00)) ((0.000000e+00 0.000000e+00 0.000000e+00) (0.000000e+00 0.000000e+00 0.000000e+00))
0.012         	((9.027783e-03 -1.718655e-03 -5.051235e-02) (-3.888454e-06 -2.499107e-07 -1.065467e-05)) ((6.752644e-06 1.572081e-01 -7.479902e-06) (-3.660040e-08 3.724773e+00 -1.241323e-07))
0.0264        	((-3.918452e-02 -3.325334e-03 1.195076e-01) (-2.116534e-05 -9.573036e-07 -2.176684e-05)) ((8.545703e-06 1.596675e-01 -1.841579e-06) (-7.005326e-08 6.622757e+00 -5.157151e-07))
0.04368       	((-2.077572e-02 -2.448829e-03 2.929630e-02) (-6.918816e-05 -2.103582e-06 -2.386296e-05)) ((8.536877e-06 1.670520e-01 -8.149498e-06) (-1.142486e-06 1.473870e+01 -5.125451e-07))
0.064416      	((-2.761192e-02 -1.643102e-05 1.035189e-01) (-1.703706e-04 -3.182936e-05 4.906464e-04)) ((9.543601e-06 1.554877e-01 -6.850254e-06) (-3.356787e-06 4.181633e+01 3.202873e-06))
0.0892992     	((2.781776e-03 7.886175e-03 3.581961e-02) (-2.466036e-03 -2.058205e-04 -7.024598e-03)) ((1.054312e-05 1.544722e-01 -2.922364e-06) (-4.203407e-05 7.397260e+01 1.551132e-05))
0.118892      	((3.763939e-02 -1.570573e-03 6.008319e-02) (-3.079034e-03 -3.110020e-04 -5.480787e-03)) ((7.627008e-06 1.458783e-01 -3.360908e-06) (-4.647756e-05 6.931576e+01 3.679836e-05))
0.153204      	((-2.247192e-02 6.555907e-03 7.684422e-03) (-3.626423e-03 -4.714646e-04 -4.139997e-03)) ((3.190080e-06 1.448701e-01 -1.588481e-06) (-4.693980e-05 6.531468e+01 6.220177e-05))
0.192238      	((-2.223493e-03 8.881035e-03 -2.376855e-02) (-4.448366e-03 -6.462988e-04 -3.770598e-03)) ((9.056396e-07 1.440466e-01 -3.203570e-07) (-2.791460e-05 6.325037e+01 9.485809e-05))
0.236006      	((-1.042487e-01 -3.728968e-03 -1.853220e-02) (-4.352823e-03 -7.204356e-04 -3.034832e-03)) ((-2.368382e-06 1.383757e-01 -4.520343e-07) (-1.154834e-05 6.121603e+01 1.338845e-04))
0.283566      	((-6.810385e-02 -7.524950e-03 -8.645099e-03) (-4.356612e-03 -6.810293e-04 -2.214074e-03)) ((-1.054696e-05 1.356383e-01 1.081507e-05) (3.970690e-05 5.896263e+01 1.305205e-04))
0.331384      	((-1.506698e-02 -1.419139e-02 -1.472052e-03) (-4.876643e-03 -6.317366e-04 -1.835887e-03)) ((-7.186417e-06 1.379375e-01 -2.428521e-06) (1.282201e-04 5.720507e+01 8.214190e-05))
0.379393      	((8.036004e-02 -1.385091e-02 8.902550e-02) (-6.263921e-03 -5.888864e-04 -7.211839e-04)) ((4.133318e-06 1.368170e-01 -9.828315e-06) (2.015375e-04 5.580080e+01 5.412826e-06))
0.427507      	((5.599275e-02 -2.410237e-02 6.884661e-02) (-7.459261e-03 -4.479337e-04 4.021571e-04)) ((1.190743e-05 1.339594e-01 -6.264266e-06) (2.078299e-04 5.458572e+01 -1.073078e-04))
0.475752      	((1.038498e-01 -1.704482e-02 1.582825e-01) (-7.561044e-03 -4.235100e-04 1.196603e-03)) ((1.847622e-05 1.299711e-01 -2.339384e-05) (1.409725e-04 5.350028e+01 -1.740693e-04))
0.524101      	((2.372195e-01 -3.519137e-02 3.134551e-01) (-7.411540e-03 -5.577533e-04 2.675139e-03)) ((4.290540e-06 1.265395e-01 -2.366925e-05) (5.932080e-06 5.250825e+01 -1.508557e-04))
0.57257       	((1.153256e-01 -4.211605e-02 4.285388e-01) (-5.614268e-03 -6.317584e-04 5.794002e-03)) ((-2.323415e-05 1.240296e-01 6.991799e-06) (-1.537147e-04 5.159411e+01 -7.084242e-05))
0.621158      	((2.170694e-01 -4.513196e-02 4.285678e-01) (-1.946527e-03 -8.128337e-04 7.323792e-03)) ((-5.221830e-05 1.227687e-01 7.712251e-06) (-1.964760e-04 5.075689e+01 5.853835e-05))
0.669883      	((1.990357e-01 2.803105e-02 4.166523e-01) (2.233652e-03 -1.167174e-03 6.386346e-03)) ((-5.588047e-05 1.220213e-01 3.662170e-05) (-9.541838e-05 4.999594e+01 1.766892e-04))
0.71879       	((3.742352e-01 8.166498e-02 2.865491e-01) (6.618017e-03 -1.252982e-03 4.853258e-03)) ((-7.976223e-05 1.208389e-01 6.199938e-05) (8.031402e-05 4.930950e+01 1.402025e-04))
0.767943      	((3.848653e-01 5.954960e-02 4.321293e-01) (8.235112e-03 -1.330580e-03 2.387623e-03)) ((-1.171125e-04 1.192900e-01 8.796386e-05) (1.686311e-04 4.869441e+01 -3.046901e-05))
0.817403      	((4.097349e-01 4.374918e-02 6.622769e-01) (7.240659e-03 -1.580027e-03 8.997603e-04)) ((-1.103937e-04 1.177325e-01 5.663374e-05) (1.659739e-04 4.814605e+01 -2.043894e-04))
0.867135      	((4.618922e-01 3.617982e-02 6.837873e-01) (6.669221e-03 -1.795137e-03 5.139441e-04)) ((-9.428933e-05 1.159884e-01 7.418150e-05) (1.226458e-05 4.766309e+01 -3.952249e-04))
0.917025      	((4.868488e-01 6.312205e-03 6.352635e-01) (6.140743e-03 -1.774561e-03 -2.150009e-03)) ((-7.932803e-05 1.141563e-01 5.361925e-05) (-2.765153e-04 4.724672e+01 -5.835996e-04))
0.967081      	((4.801567e-01 1.241044e-02 6.166157e-01) (4.473970e-03 -1.862261e-03 -3.342595e-03)) ((-3.035560e-05 1.123848e-01 -3.734422e-05) (-5.549989e-04 4.688920e+01 -6.623777e-04))
1.017332      	((2.810068e-01 -1.156952e-02 4.856569e-01) (1.655255e-03 -2.232362e-03 -2.065392e-03)) ((-5.929557e-05 1.109009e-01 3.456781e-05) (-7.965901e-04 4.658265e+01 -5.963522e-04))
1.067791      	((3.161223e-01 -4.857091e-02 5.741567e-01) (-1.399588e-04 -1.930838e-03 1.129928e-03)) ((-4.692698e-05 1.097120e-01 2.881930e-05) (-1.075177e-03 4.632382e+01 -4.788011e-04))
1.118481      	((4.453520e-01 1.740465e-02 6.596168e-01) (2.619161e-04 -1.454558e-03 3.244843e-03)) ((1.211812e-05 1.086963e-01 -1.130786e-04) (-1.325318e-03 4.610956e+01 -2.296705e-04))
1.16944       	((5.193447e-01 5.180695e-02 6.234782e-01) (8.302028e-05 -1.477352e-03 3.768052e-03)) ((2.477407e-05 1.076871e-01 -1.979057e-04) (-1.504770e-03 4.593625e+01 1.151681e-04))
1.220608      	((5.644903e-01 1.506576e-02 5.857444e-01) (-5.965360e-04 -1.388768e-03 5.823083e-03)) ((4.417997e-05 1.066403e-01 -2.323480e-04) (-1.550685e-03 4.580170e+01 4.878846e-04))
1.271809      	((7.080880e-01 2.089505e-02 5.734746e-01) (-8.709152e-04 -1.480352e-03 7.909128e-03)) ((3.598711e-05 1.054602e-01 -1.678772e-04) (-1.395255e-03 4.570360e+01 9.866290e-04))
1.323053      	((6.906532e-01 4.975077e-02 5.972648e-01) (5.799675e-04 -1.207838e-03 1.001577e-02)) ((5.844839e-05 1.043404e-01 -1.334633e-04) (-1.066622e-03 4.563923e+01 1.404407e-03))
1.374336      	((8.108181e-01 4.383072e-02 6.207622e-01) (7.927260e-04 -8.364926e-04 1.108408e-02)) ((3.553526e-05 1.033260e-01 -1.240641e-04) (-6.984025e-04 4.560634e+01 1.551895e-03))
1.425668      	((1.046794e+00 5.805672e-02 5.871513e-01) (4.075058e-03 -1.425431e-03 1.157668e-02)) ((-5.747162e-06 1.024535e-01 -8.989634e-05) (-1.970868e-04 4.560352e+01 1.485408e-03))
1.477051      	((1.075586e+00 1.048491e-01 5.538403e-01) (7.165393e-03 -2.580298e-03 1.276216e-02)) ((2.552354e-05 1.016167e-01 -9.338001e-05) (3.380287e-04 4.563262e+01 1.239609e-03))
1.528484      	((1.056311e+00 9.222982e-02 5.461099e-01) (7.298876e-03 -3.253097e-03 8.106972e-03)) ((-2.135538e-05 1.009382e-01 -1.045961e-04) (5.607873e-04 4.569502e+01 8.004953e-04))
