# Forces      
# CofR        : (0.000000e+00 0.000000e+00 0.000000e+00)
# Time        forces(pressure viscous)	moments(pressure viscous)
0             	((0.000000e+00 0.000000e+00 0.000000e+00) (0.000000e+00 0.000000e+00 0.000000e+00)) ((0.000000e+00 0.000000e+00 0.000000e+00) (0.000000e+00 0.000000e+00 0.000000e+00))
0.012         	((2.807346e-06 -1.673799e-05 -8.255863e-06) (7.225686e-10 5.037582e-09 -1.236415e-09)) ((1.867072e-04 -3.644176e-09 -6.587045e-07) (1.049402e-02 -4.644982e-10 6.411906e-09))
0.0264        	((8.841349e-06 5.694442e-05 -3.996645e-05) (1.704085e-09 7.274348e-09 -6.754114e-10)) ((8.349920e-05 -8.660276e-09 -4.873180e-07) (1.048194e-02 -2.132734e-09 -2.376783e-09))
0.04368       	((-1.226945e-05 -6.349632e-06 -2.310754e-05) (1.864794e-09 7.263511e-09 1.076997e-09)) ((4.498179e-05 8.237974e-09 -3.569628e-07) (1.046688e-02 -2.216144e-09 -1.444060e-08))
0.064416      	((2.563378e-05 4.423160e-05 -1.654138e-05) (2.862150e-09 8.469346e-09 9.204609e-10)) ((2.281247e-05 -2.119307e-09 -1.664745e-07) (1.044886e-02 5.120184e-10 -1.747682e-08))
0.0892992     	((-8.607480e-07 -6.489588e-06 4.177985e-06) (7.147624e-09 9.173894e-09 2.454442e-09)) ((1.689295e-05 -2.723116e-09 -5.689621e-08) (1.042732e-02 7.253897e-10 -1.662590e-08))
0.119159      	((6.478264e-06 2.763349e-07 6.155379e-06) (1.361624e-08 9.366463e-09 4.613820e-09)) ((1.331573e-05 -6.571380e-09 -3.086970e-09) (1.040159e-02 -1.575024e-09 -1.522308e-08))
0.154991      	((3.415092e-06 -1.457639e-07 2.511550e-05) (2.108474e-08 8.902216e-09 7.313954e-09)) ((1.218616e-05 -4.442369e-10 -8.017165e-09) (1.037089e-02 -3.050904e-09 -1.748807e-08))
0.197989      	((-2.526379e-06 2.327628e-08 9.935499e-06) (2.569332e-08 7.066564e-09 9.135033e-09)) ((1.103415e-05 2.294822e-08 -1.436511e-08) (1.033433e-02 -2.279022e-09 -2.441805e-08))
0.249587      	((-9.999625e-07 -4.325722e-06 7.715890e-06) (2.719409e-08 5.356695e-09 9.868728e-09)) ((9.705872e-06 7.749501e-09 -3.321549e-08) (1.029080e-02 2.352159e-09 -3.110818e-08))
0.311504      	((-3.087096e-06 -6.156431e-06 5.479602e-06) (2.807251e-08 4.360015e-09 1.278292e-08)) ((8.603977e-06 -6.086565e-09 -1.835932e-08) (1.023910e-02 8.359861e-09 -3.570788e-08))
0.385805      	((1.195902e-06 -1.698487e-06 3.963935e-06) (2.988809e-08 4.216113e-09 1.610088e-08)) ((7.847900e-06 -1.791261e-08 -1.780362e-08) (1.017784e-02 1.412769e-08 -3.882093e-08))
0.474966      	((-3.974994e-07 -3.601003e-06 3.935141e-06) (3.216119e-08 3.768073e-09 1.749389e-08)) ((7.341751e-06 -1.218441e-08 -2.192997e-08) (1.010549e-02 1.929850e-08 -4.061486e-08))
0.581959      	((1.808233e-06 -2.042841e-06 2.476060e-06) (3.323767e-08 2.300454e-09 1.808866e-08)) ((6.959543e-06 -1.242236e-08 -2.092066e-08) (1.002038e-02 2.301862e-08 -4.090402e-08))
0.710351      	((6.548396e-07 -2.811963e-06 9.215006e-07) (3.394341e-08 2.048946e-09 1.844764e-08)) ((6.629692e-06 -8.213517e-09 -1.785988e-08) (9.920777e-03 2.495294e-08 -4.162288e-08))
0.864421      	((2.012208e-06 -2.390881e-06 1.322523e-06) (3.602513e-08 3.060143e-09 1.718598e-08)) ((6.331021e-06 -6.287272e-09 -1.474103e-08) (9.804965e-03 2.510203e-08 -4.526532e-08))
1.049306      	((1.422554e-07 -6.517040e-07 -9.811571e-07) (4.042971e-08 3.128523e-09 1.354137e-08)) ((6.040957e-06 -2.698045e-09 -1.526062e-08) (9.671456e-03 2.530415e-08 -5.130371e-08))
1.271167      	((1.120840e-06 -5.185321e-07 8.960619e-07) (4.587009e-08 3.266722e-09 8.227523e-09)) ((5.754008e-06 -8.514221e-10 -1.816112e-08) (9.519221e-03 2.625257e-08 -5.366193e-08))
1.5374        	((-8.045224e-08 -3.276023e-07 -8.818219e-08) (5.092115e-08 4.595727e-09 2.366337e-09)) ((5.472173e-06 5.600357e-10 -1.688375e-08) (9.348048e-03 2.339923e-08 -4.963070e-08))
1.85688       	((8.471246e-07 3.034297e-07 -4.199036e-07) (5.531826e-08 4.285427e-09 -1.918779e-09)) ((5.198738e-06 -1.534673e-09 -1.391519e-08) (9.158921e-03 1.500936e-08 -4.332559e-08))
2.240256      	((2.023853e-07 -7.305884e-08 1.026860e-06) (5.923144e-08 2.409078e-09 -7.285390e-09)) ((4.931677e-06 -1.134615e-09 -1.223377e-08) (8.954317e-03 6.640639e-09 -4.494331e-08))
2.700307      	((2.969245e-07 8.008431e-07 -1.338994e-07) (6.313877e-08 -1.355883e-09 -1.265043e-08)) ((4.673969e-06 -1.021632e-09 -1.364415e-08) (8.738173e-03 -2.547372e-10 -5.447384e-08))
3.252369      	((3.920124e-07 1.049610e-06 2.645796e-07) (6.764161e-08 -2.628746e-09 -1.631007e-08)) ((4.425189e-06 -9.903436e-11 -1.471083e-08) (8.515333e-03 -9.435976e-09 -5.944179e-08))
3.914842      	((-4.394338e-07 1.006198e-06 -1.032831e-07) (7.021800e-08 -1.896598e-09 -1.621358e-08)) ((4.191538e-06 9.820234e-12 -1.500338e-08) (8.290345e-03 -2.504174e-08 -5.694996e-08))
4.709811      	((-2.882391e-07 7.912278e-07 5.404561e-07) (7.079346e-08 -7.398322e-09 -1.274894e-08)) ((3.957070e-06 1.302045e-09 -1.393691e-08) (8.065864e-03 -4.121582e-08 -4.829667e-08))
5.663773      	((-1.149999e-06 -3.738241e-07 3.561532e-07) (7.009888e-08 -1.447501e-08 -1.079968e-08)) ((3.697217e-06 3.988507e-10 -1.150190e-08) (7.839782e-03 -4.351866e-08 -4.183233e-08))
6.808528      	((-1.052537e-06 2.742033e-07 1.541590e-07) (6.868342e-08 -2.329512e-08 -1.129303e-08)) ((3.409222e-06 5.565912e-10 -1.064692e-08) (7.601190e-03 -3.528876e-08 -4.421692e-08))
8.182233      	((-1.389810e-06 5.771302e-08 -5.929232e-07) (6.903976e-08 -4.193140e-08 -1.768026e-08)) ((3.133006e-06 1.496814e-09 -1.102193e-08) (7.341535e-03 -3.693908e-08 -5.417117e-08))
9.83068       	((-1.680437e-06 1.018947e-06 -4.318064e-07) (6.105857e-08 -6.025767e-08 -3.162592e-08)) ((2.906258e-06 -8.772071e-10 -8.437814e-09) (7.062136e-03 -5.057756e-08 -5.908074e-08))
11.808816     	((-1.897208e-06 1.050253e-06 -1.265584e-06) (3.932724e-08 -5.546882e-08 -4.711821e-08)) ((2.758636e-06 -1.139171e-09 -8.578261e-09) (6.769259e-03 -5.237272e-08 -6.628418e-08))
14.182579     	((-1.667803e-06 -8.634675e-07 -1.202400e-06) (1.256617e-08 -2.901147e-08 -6.195957e-08)) ((2.648911e-06 -1.389117e-09 -9.223879e-09) (6.471053e-03 -3.997766e-08 -8.208604e-08))
17.031095     	((-1.660474e-06 -2.386919e-07 -9.830837e-07) (-1.130678e-08 -1.954111e-08 -8.269666e-08)) ((2.508812e-06 -2.174289e-10 -7.392491e-09) (6.175123e-03 -2.523025e-08 -8.895628e-08))
20.449314     	((-3.049206e-06 -4.327080e-07 -1.042669e-06) (-2.095346e-08 4.649775e-09 -1.139125e-07)) ((2.326402e-06 -3.207963e-10 -4.085459e-09) (5.886382e-03 -1.394485e-08 -8.972758e-08))
24.551176     	((-4.137493e-06 2.369154e-06 1.994936e-06) (-1.917745e-08 3.834946e-08 -1.189160e-07)) ((2.105594e-06 1.710774e-09 -1.712131e-09) (5.604992e-03 4.160846e-09 -1.135883e-07))
29.473411     	((-3.481374e-06 6.702366e-06 4.638949e-06) (1.932909e-08 -2.013944e-08 6.375151e-08)) ((1.872181e-06 1.716242e-09 -3.337935e-09) (5.328192e-03 6.491537e-08 -1.216874e-07))
35.380094     	((-3.811694e-06 1.082026e-05 8.074582e-06) (-1.135691e-08 -1.078216e-07 8.698279e-08)) ((1.630547e-06 6.966413e-10 -3.592835e-09) (5.057243e-03 1.212222e-07 -1.151383e-07))
42.468112     	((-4.358773e-06 1.298749e-05 1.071558e-05) (-9.395414e-08 1.374490e-07 2.577748e-07)) ((1.398661e-06 3.510150e-09 -7.796885e-09) (4.800774e-03 1.171158e-07 -8.231808e-08))
50.822848     	((-1.292305e-06 1.927251e-05 1.563082e-05) (-1.171256e-07 4.616340e-07 4.013313e-07)) ((1.181616e-06 9.515563e-09 -1.046665e-08) (4.572622e-03 7.553967e-08 -2.390307e-08))
60.460095     	((-1.469446e-06 2.592076e-05 1.785078e-05) (-1.648767e-07 9.959920e-07 6.587360e-07)) ((9.956265e-07 1.211506e-08 -8.086498e-09) (4.379580e-03 5.962821e-08 1.232370e-08))
71.384952     	((-7.147440e-07 2.290919e-05 2.017439e-05) (-5.488048e-08 8.724107e-07 5.925906e-07)) ((8.699063e-07 1.234819e-08 -8.565905e-09) (4.222569e-03 1.429856e-08 2.659242e-08))
83.600642     	((1.124494e-06 1.696081e-05 1.984987e-05) (1.209161e-07 1.112436e-06 1.313856e-06)) ((7.628856e-07 1.211598e-08 -7.222687e-09) (4.099188e-03 -7.369097e-08 -2.113342e-08))
96.541625     	((2.860783e-06 1.839168e-05 2.657370e-05) (3.197220e-08 1.030686e-06 1.990754e-06)) ((6.936227e-07 1.589596e-08 -8.521999e-09) (4.006477e-03 -4.467671e-08 -1.069207e-07))
109.527102    	((1.034959e-07 1.976139e-05 2.754907e-05) (-1.035975e-07 9.600815e-07 1.878828e-06)) ((6.687627e-07 1.297250e-08 -5.545605e-09) (3.938935e-03 -5.413114e-08 -1.449676e-07))
122.56984     	((-2.214421e-06 2.458579e-05 3.788918e-05) (-2.367502e-07 1.333759e-06 2.022888e-06)) ((6.606304e-07 1.174953e-08 -1.204127e-09) (3.888758e-03 -7.647804e-09 -2.343458e-07))
135.681417    	((-1.548593e-06 2.566406e-05 3.616882e-05) (-4.760787e-07 1.340628e-06 2.283268e-06)) ((6.526503e-07 1.101644e-08 3.442985e-09) (3.853291e-03 1.174777e-07 -2.936693e-07))
148.879163    	((-1.251338e-06 2.101076e-05 2.367961e-05) (-3.757248e-07 1.290737e-06 1.914883e-06)) ((6.324783e-07 1.140883e-08 2.385768e-09) (3.831252e-03 1.785648e-07 -2.415778e-07))
162.178228    	((-1.356477e-06 2.274105e-05 2.297864e-05) (-3.150996e-07 1.591419e-06 3.770149e-07)) ((6.106661e-07 9.191717e-09 5.480995e-09) (3.821759e-03 2.096436e-07 -2.158397e-07))
175.585177    	((-3.638422e-06 3.392461e-05 3.096617e-05) (-2.818327e-07 2.142323e-06 1.961940e-07)) ((6.064256e-07 8.697020e-09 7.174951e-09) (3.825785e-03 2.484918e-07 -1.942409e-07))
189.09752     	((-5.083915e-06 3.279626e-05 3.483238e-05) (-4.251435e-07 2.194324e-06 -4.578374e-07)) ((6.099751e-07 1.064109e-08 1.078185e-08) (3.843811e-03 2.801769e-07 -1.969086e-07))
202.698079    	((-8.956713e-06 2.230921e-05 3.504566e-05) (-5.178550e-07 2.102436e-06 -8.252349e-07)) ((6.186283e-07 9.331509e-09 1.079533e-08) (3.875660e-03 2.968046e-07 -2.163134e-07))
216.382045    	((-1.026187e-05 1.658272e-05 3.952915e-05) (-6.060762e-07 5.536518e-07 -2.408256e-07)) ((6.350731e-07 7.377111e-09 1.348169e-08) (3.920003e-03 3.022634e-07 -2.081748e-07))
230.131647    	((-1.139459e-05 2.134412e-05 3.910615e-05) (-9.648444e-07 -2.758276e-07 -3.920040e-07)) ((6.589028e-07 -5.370187e-10 1.263803e-08) (3.973974e-03 2.452762e-07 -1.543916e-07))
243.891261    	((-1.512468e-05 2.772667e-05 3.682661e-05) (-1.190692e-06 -7.361527e-07 -3.041141e-07)) ((6.817709e-07 -2.092771e-09 9.098357e-09) (4.033210e-03 9.557350e-08 -1.240323e-07))
257.574415    	((-2.533203e-05 2.123171e-05 2.064588e-05) (-1.400528e-06 -2.630322e-06 8.360901e-07)) ((7.096200e-07 -3.570593e-09 1.360190e-09) (4.091389e-03 -6.866971e-08 -1.071903e-07))
271.130156    	((-3.456464e-05 1.336251e-05 -2.880954e-06) (-1.562187e-06 -2.609798e-06 5.723902e-07)) ((7.402843e-07 -7.651536e-09 -4.131154e-09) (4.143017e-03 -2.176821e-07 -1.624399e-07))
284.538725    	((-4.501530e-05 1.317778e-05 -2.278289e-05) (-1.645606e-06 -1.892996e-06 1.022771e-07)) ((7.637909e-07 -1.101756e-08 -7.767333e-09) (4.183866e-03 -3.922858e-07 -2.825280e-07))
297.798091    	((-4.854364e-05 1.821681e-05 -2.725109e-05) (-1.635255e-06 -9.088683e-07 2.919279e-07)) ((7.736076e-07 -1.695263e-08 -7.839972e-09) (4.213112e-03 -4.520171e-07 -4.805982e-07))
310.92193     	((-3.426382e-05 5.338410e-06 -2.715020e-05) (-1.588770e-06 2.087450e-07 5.096045e-08)) ((7.783197e-07 -1.925480e-08 -6.993617e-09) (4.232217e-03 -2.432354e-07 -7.961606e-07))
323.944532    	((-2.817497e-05 2.222639e-06 -2.466159e-05) (-1.448820e-06 7.120854e-07 -2.101931e-07)) ((7.739954e-07 -1.835420e-08 -3.665588e-09) (4.243300e-03 1.639804e-07 -1.077209e-06))
336.894871    	((-3.237067e-05 4.805407e-06 -9.154698e-06) (-1.292237e-06 1.305436e-06 3.953164e-07)) ((7.711701e-07 -1.801778e-08 -1.860528e-09) (4.248388e-03 6.469843e-07 -1.161345e-06))
349.790889    	((-2.938895e-05 8.936322e-06 -5.441360e-06) (-1.233601e-06 9.877509e-07 -3.586622e-07)) ((7.677322e-07 -1.633716e-08 -1.176648e-09) (4.249588e-03 1.115582e-06 -1.060294e-06))
362.641806    	((-2.706271e-05 9.149758e-06 -1.186453e-05) (-1.262629e-06 1.035095e-06 -6.654433e-07)) ((7.637777e-07 -1.613479e-08 1.330405e-09) (4.248568e-03 1.501008e-06 -8.147742e-07))
375.451507    	((-3.580512e-05 3.997509e-06 1.586847e-06) (-1.187582e-06 1.036889e-06 -3.002591e-07)) ((7.631921e-07 -1.276961e-08 2.042424e-09) (4.246359e-03 1.790114e-06 -4.297421e-07))
