# Forces      
# CofR        : (0.000000e+00 0.000000e+00 0.000000e+00)
# Time        forces(pressure viscous)	moments(pressure viscous)
0             	((0.000000e+00 0.000000e+00 0.000000e+00) (0.000000e+00 0.000000e+00 0.000000e+00)) ((0.000000e+00 0.000000e+00 0.000000e+00) (0.000000e+00 0.000000e+00 0.000000e+00))
0.012         	((-4.016416e-05 9.663185e-06 9.034569e-04) (1.560750e-08 8.590574e-09 2.214246e-07)) ((-9.706361e-09 -6.008995e-04 2.488990e-08) (2.559404e-09 -4.697326e-02 -1.338634e-10))
0.0264        	((2.493543e-04 1.842027e-05 -9.963465e-04) (5.376124e-08 1.464706e-08 3.332272e-07)) ((8.973679e-09 -2.809248e-04 1.352517e-08) (2.816860e-09 -4.688787e-02 -1.614132e-09))
0.04368       	((-1.081046e-04 -1.169737e-05 1.903057e-04) (7.857924e-08 1.555012e-08 3.741569e-07)) ((-1.281097e-08 -1.657421e-04 -8.446545e-09) (-1.089030e-10 -4.676720e-02 -5.263082e-09))
0.064416      	((1.048366e-04 2.310424e-05 -2.009652e-04) (7.852440e-08 1.919943e-08 3.887088e-07)) ((6.705220e-09 -1.002266e-04 4.982156e-09) (-1.544066e-09 -4.662355e-02 -9.252854e-09))
0.0892992     	((-4.817360e-05 -5.223534e-05 9.357357e-05) (6.843862e-08 2.677419e-08 4.142175e-07)) ((-2.399557e-08 -8.407158e-05 -7.879867e-09) (-2.093429e-09 -4.645251e-02 -1.347457e-08))
0.119159      	((-3.391903e-05 -1.249034e-05 4.942599e-07) (7.085822e-08 3.462846e-08 4.661569e-07)) ((-1.037632e-08 -7.207900e-05 -6.170115e-09) (-3.130699e-09 -4.624915e-02 -1.719260e-08))
0.154991      	((-1.256018e-05 -2.368458e-05 6.921191e-05) (8.764042e-08 4.237204e-08 5.278717e-07)) ((-1.777813e-08 -6.734311e-05 -6.540044e-09) (-2.843014e-09 -4.600779e-02 -2.010258e-08))
0.197989      	((-1.053006e-05 -2.989810e-05 7.579399e-06) (1.177939e-07 4.813841e-08 5.939755e-07)) ((-1.291223e-08 -6.360424e-05 -3.488995e-12) (-1.829443e-09 -4.572218e-02 -2.114299e-08))
0.249587      	((-1.334830e-05 -1.365986e-05 -4.213045e-06) (1.600096e-07 4.936990e-08 6.607516e-07)) ((-5.361005e-09 -6.088289e-05 4.454801e-09) (-1.471835e-09 -4.538536e-02 -1.979175e-08))
0.311504      	((8.497560e-06 -1.277594e-05 -2.209287e-06) (2.059087e-07 4.549242e-08 7.332955e-07)) ((-3.474645e-09 -5.816621e-05 5.841322e-09) (-3.358767e-09 -4.499000e-02 -1.750234e-08))
0.385805      	((-1.329430e-06 5.081350e-06 9.436705e-06) (2.360068e-07 3.890621e-08 8.105870e-07)) ((3.109512e-09 -5.555582e-05 -2.847312e-09) (-8.698313e-09 -4.452878e-02 -1.760893e-08))
0.474966      	((-1.487950e-06 -2.006532e-06 -2.874947e-05) (2.419612e-07 2.806002e-08 8.861627e-07)) ((7.588220e-09 -5.298486e-05 -3.025479e-09) (-1.850094e-08 -4.399515e-02 -2.156797e-08))
0.581959      	((-4.445479e-06 1.715799e-06 -4.660079e-05) (2.265351e-07 1.758576e-08 9.389728e-07)) ((1.067569e-08 -5.056347e-05 -4.100938e-09) (-3.175236e-08 -4.338446e-02 -2.923181e-08))
0.710351      	((9.790391e-06 -9.018036e-06 -4.514421e-05) (2.058598e-07 1.118299e-08 9.967104e-07)) ((8.294702e-09 -4.822845e-05 -5.589892e-09) (-4.336814e-08 -4.269537e-02 -4.045816e-08))
0.864421      	((5.988161e-06 -3.237838e-06 -2.989976e-05) (2.126365e-07 9.055278e-09 1.114801e-06)) ((5.909372e-09 -4.596449e-05 -1.633749e-09) (-5.118746e-08 -4.193163e-02 -5.192081e-08))
1.049306      	((3.290077e-06 -7.328195e-07 -2.459732e-05) (2.266444e-07 1.174310e-08 1.269655e-06)) ((6.030946e-10 -4.375399e-05 -1.916895e-09) (-5.359424e-08 -4.110378e-02 -5.871430e-08))
1.271167      	((-8.640221e-06 1.946718e-06 -1.311956e-05) (2.596568e-07 1.214772e-08 1.431162e-06)) ((-8.315485e-10 -4.153127e-05 -1.203823e-09) (-5.354258e-08 -4.022923e-02 -6.258925e-08))
1.5374        	((1.843630e-05 3.682141e-06 -2.242071e-05) (3.037485e-07 9.707538e-09 1.589774e-06)) ((-9.801465e-10 -3.929149e-05 -4.368856e-09) (-5.425076e-08 -3.932963e-02 -6.436491e-08))
1.85688       	((9.005975e-06 1.257540e-06 -1.604670e-05) (2.492187e-07 4.890805e-09 1.712645e-06)) ((2.189711e-10 -3.703152e-05 -4.872082e-09) (-5.285291e-08 -3.842543e-02 -6.205542e-08))
2.240256      	((2.215497e-05 7.978151e-07 -1.498735e-05) (1.063791e-07 -1.541793e-09 1.775474e-06)) ((-6.304261e-10 -3.488226e-05 -2.788452e-09) (-4.897758e-08 -3.752859e-02 -5.783226e-08))
2.700307      	((-6.338441e-06 3.456214e-06 -1.299444e-05) (-1.232654e-07 -1.438184e-09 1.811425e-06)) ((-2.042811e-09 -3.283335e-05 -9.456920e-10) (-4.283866e-08 -3.663232e-02 -5.399332e-08))
3.252369      	((-1.100693e-05 2.062734e-06 -8.022464e-06) (-4.373251e-07 7.672708e-09 1.815159e-06)) ((-2.567469e-09 -3.063855e-05 -6.686038e-10) (-3.600161e-08 -3.568795e-02 -5.144581e-08))
3.914842      	((-2.618788e-06 7.140558e-07 -1.307882e-06) (-8.684570e-07 1.097112e-08 1.615682e-06)) ((-4.482172e-09 -2.853137e-05 1.399631e-09) (-3.324711e-08 -3.465371e-02 -5.423370e-08))
4.709811      	((4.362561e-06 3.225806e-06 1.545661e-06) (-1.125598e-06 -5.321404e-08 1.126417e-06)) ((-6.090962e-09 -2.673997e-05 3.740085e-09) (-2.865693e-08 -3.353483e-02 -5.632398e-08))
5.663773      	((1.615932e-05 3.731779e-06 4.424603e-06) (-8.873412e-07 -1.298289e-07 6.648194e-07)) ((-6.280807e-09 -2.557278e-05 6.265497e-09) (-2.297556e-08 -3.235975e-02 -4.559818e-08))
6.808528      	((2.256846e-05 5.834944e-06 -7.658330e-06) (-7.055955e-07 -1.716853e-07 3.129620e-07)) ((-9.253722e-09 -2.484066e-05 8.162882e-09) (-1.911791e-08 -3.116251e-02 -3.003018e-08))
8.182233      	((1.432638e-05 1.783866e-07 -2.387339e-05) (-7.491683e-07 -2.228834e-07 1.100320e-07)) ((-5.476989e-09 -2.386597e-05 4.097086e-09) (-1.633082e-08 -2.997689e-02 -1.592118e-08))
9.83068       	((4.904649e-06 -1.059770e-06 -1.328898e-05) (-6.996570e-07 -2.348381e-07 -8.032470e-08)) ((-9.853373e-10 -2.258516e-05 -2.251645e-09) (-1.850605e-08 -2.882838e-02 5.899575e-09))
11.808816     	((1.909840e-05 -7.629863e-06 9.442164e-06) (-7.922465e-07 -2.928821e-07 -5.208373e-07)) ((-1.104927e-09 -2.089065e-05 5.203239e-09) (-1.691821e-08 -2.771930e-02 3.374947e-08))
14.171163     	((4.085905e-05 -1.329707e-05 3.208887e-05) (-1.914568e-07 -2.830277e-07 -8.926924e-07)) ((3.238443e-09 -1.919331e-05 6.104793e-09) (-1.479551e-08 -2.663908e-02 4.143002e-08))
16.919694     	((8.825945e-05 -7.322317e-06 2.168540e-05) (7.835005e-07 -1.866955e-07 -7.194350e-07)) ((2.594378e-09 -1.757167e-05 6.280742e-09) (-3.557652e-09 -2.560625e-02 4.233529e-08))
20.057176     	((1.049873e-04 -1.012436e-05 6.642934e-05) (6.171085e-07 -8.760823e-07 3.022915e-08)) ((2.694551e-09 -1.600493e-05 6.958163e-09) (8.168192e-09 -2.465250e-02 4.296678e-08))
23.587392     	((1.228379e-04 -2.951885e-06 8.173424e-05) (9.033662e-07 -1.371763e-06 8.751888e-07)) ((4.212178e-10 -1.457311e-05 4.336179e-09) (5.721701e-09 -2.381064e-02 1.659770e-08))
27.515733     	((1.521344e-04 -2.323913e-06 1.364198e-04) (1.130004e-06 -1.365344e-06 1.369372e-06)) ((-1.443551e-08 -1.324683e-05 -2.768043e-09) (8.229045e-08 -2.309922e-02 -2.863207e-08))
31.531915     	((1.495296e-04 3.591421e-07 1.322739e-04) (9.311153e-07 -5.445844e-07 9.921096e-07)) ((-2.243180e-08 -1.231510e-05 -8.150609e-09) (2.660795e-07 -2.255115e-02 2.483924e-08))
35.589362     	((1.580313e-04 1.833505e-05 1.052393e-04) (2.106130e-06 2.706721e-09 1.741208e-07)) ((-2.082257e-08 -1.155000e-05 -1.124717e-09) (3.504715e-07 -2.213528e-02 1.683281e-07))
39.658639     	((1.639948e-04 1.632367e-05 8.740901e-05) (7.222031e-07 3.726058e-07 -2.561462e-07)) ((-1.810596e-08 -1.103570e-05 1.454309e-08) (2.956801e-07 -2.182133e-02 2.916017e-07))
43.734228     	((1.208482e-04 3.259252e-05 4.500753e-05) (8.866591e-07 1.328817e-06 4.794697e-07)) ((-1.365824e-08 -1.073726e-05 1.424697e-08) (2.666679e-07 -2.158090e-02 4.339540e-07))
47.816726     	((1.253914e-04 2.745579e-05 9.040040e-05) (3.025122e-06 9.878544e-07 9.266391e-07)) ((-1.888267e-08 -1.066438e-05 -1.208387e-08) (1.364635e-07 -2.140384e-02 6.899463e-07))
51.907119     	((1.254497e-04 1.015737e-06 9.468854e-05) (1.659627e-06 8.606733e-07 1.421645e-06)) ((-3.236025e-08 -1.067384e-05 -2.442085e-08) (-9.572989e-08 -2.127983e-02 9.249017e-07))
56.006833     	((1.565126e-04 4.114741e-06 1.517732e-04) (2.151987e-06 7.799120e-07 1.081560e-06)) ((-2.979579e-08 -1.056164e-05 -3.817116e-08) (-2.546893e-07 -2.119875e-02 1.048247e-06))
60.117595     	((2.496177e-04 1.317723e-05 1.904822e-04) (5.598003e-06 -8.597266e-08 -3.458471e-07)) ((-2.835734e-08 -1.032275e-05 -4.133982e-08) (-4.306456e-07 -2.115900e-02 1.018544e-06))
64.240849     	((2.108530e-04 2.525339e-05 1.783841e-04) (6.460920e-06 -2.753936e-07 6.424493e-07)) ((-3.332826e-08 -1.006098e-05 -4.447852e-08) (-6.982632e-07 -2.116224e-02 8.953332e-07))
68.377703     	((1.693912e-04 1.144252e-05 1.712547e-04) (4.660869e-06 -2.625430e-07 -1.296749e-06)) ((-4.251621e-08 -9.872169e-06 -4.866121e-08) (-9.171570e-07 -2.120726e-02 7.270925e-07))
72.529059     	((1.620775e-04 4.884698e-06 1.840921e-04) (4.374492e-06 4.651510e-07 -3.647198e-06)) ((-5.822680e-08 -9.768964e-06 -3.542358e-08) (-9.625280e-07 -2.129165e-02 7.033333e-07))
76.695261     	((1.898185e-04 -1.882911e-05 2.479111e-04) (3.953317e-06 3.965164e-07 -2.340236e-06)) ((-8.499634e-08 -9.760634e-06 -4.637666e-08) (-9.819891e-07 -2.141588e-02 7.250721e-07))
80.876944     	((1.574462e-04 -5.947313e-05 2.489138e-04) (8.421721e-07 -4.951556e-07 -6.371764e-07)) ((-8.821150e-08 -9.816564e-06 -3.777095e-08) (-1.109772e-06 -2.157872e-02 6.728668e-07))
85.072701     	((1.462917e-04 -6.979806e-05 2.924654e-04) (-4.653141e-06 -7.266204e-07 -1.105415e-06)) ((-9.343201e-08 -9.910928e-06 -2.451467e-08) (-1.122899e-06 -2.177191e-02 4.598427e-07))
89.277868     	((1.009498e-04 -5.830989e-05 3.193781e-04) (-9.861735e-06 -6.934844e-07 -1.831718e-06)) ((-7.261783e-08 -1.006565e-05 -2.001678e-08) (-1.032712e-06 -2.198255e-02 1.107464e-07))
93.488797     	((1.183315e-04 -7.484670e-05 3.000331e-04) (-1.207435e-05 -1.047413e-06 -3.303565e-06)) ((-8.857480e-08 -1.034943e-05 -2.273216e-08) (-6.425644e-07 -2.219675e-02 -1.595005e-07))
97.702101     	((7.942486e-05 -6.631321e-05 2.579333e-04) (-1.325732e-05 -1.817309e-06 -5.166696e-06)) ((-6.090198e-08 -1.057109e-05 -1.686816e-08) (-6.814456e-08 -2.240073e-02 -2.396147e-07))
101.909864    	((1.358796e-04 -7.712681e-05 1.675920e-04) (-1.321571e-05 -2.405508e-06 -5.239739e-06)) ((-3.011536e-08 -1.082411e-05 -1.586085e-08) (5.704465e-07 -2.258106e-02 -9.307719e-08))
106.102264    	((1.033481e-04 -8.010928e-05 3.012129e-05) (-1.091365e-05 -2.884606e-06 -5.013357e-06)) ((-4.801522e-08 -1.104934e-05 -2.931514e-10) (1.105198e-06 -2.272948e-02 3.817099e-07))
110.273134    	((1.087780e-04 -1.906498e-04 -2.878599e-05) (-6.927970e-06 -3.006029e-06 -6.067009e-06)) ((-5.783314e-08 -1.123452e-05 1.335227e-08) (1.502595e-06 -2.284687e-02 1.074774e-06))
114.418389    	((1.324189e-04 -2.582893e-04 -8.189244e-05) (-3.902549e-06 -2.924986e-06 -6.687218e-06)) ((-5.917604e-08 -1.137829e-05 2.576205e-08) (1.439092e-06 -2.293560e-02 1.939118e-06))
118.539968    	((1.598488e-04 -2.431410e-04 -8.989407e-05) (-1.446741e-06 -3.270991e-06 -5.720249e-06)) ((-4.517443e-08 -1.147330e-05 2.597914e-08) (7.980012e-07 -2.299732e-02 2.722866e-06))
