# Forces      
# CofR        : (0.000000e+00 0.000000e+00 0.000000e+00)
# Time        forces(pressure viscous)	moments(pressure viscous)
0             	((0.000000e+00 0.000000e+00 0.000000e+00) (-1.591009e-12 -1.595357e-02 -9.864089e-13)) ((0.000000e+00 0.000000e+00 0.000000e+00) (4.807648e-10 -7.623994e-14 -2.130972e-09))
0.012         	((4.485987e-05 -4.636147e+02 1.683397e-04) (3.347062e-09 -2.433011e-02 2.091466e-08)) ((1.202541e-05 6.798314e-07 -7.750882e-05) (-2.107745e-08 -1.028108e-10 1.750344e-08))
0.0264        	((-1.520022e-03 3.205104e+01 -1.150988e-02) (-1.240686e-08 -2.692951e-02 -8.268395e-08)) ((-4.143770e-07 -1.661076e-07 6.089170e-06) (-1.858612e-09 -1.493211e-10 3.285983e-09))
0.04368       	((-2.663523e-03 9.803130e+01 1.243574e-02) (-6.444202e-08 -2.457191e-02 -2.776641e-08)) ((-5.088670e-06 1.006339e-07 1.954594e-05) (1.094966e-07 -3.438994e-10 -1.069900e-07))
0.064416      	((-1.682857e-04 1.507425e+00 -2.029159e-04) (-2.427041e-07 -2.272654e-02 -6.508700e-08)) ((6.502208e-07 -4.903161e-09 -7.213637e-07) (1.224821e-07 -1.413553e-09 -1.215115e-07))
0.0892992     	((1.460942e-03 -1.281698e+00 -1.647867e-03) (-2.930375e-07 -2.235756e-02 -2.001365e-07)) ((6.107657e-07 -1.353000e-07 -9.552313e-07) (7.589106e-08 5.566991e-09 -8.178938e-08))
0.119159      	((-3.988521e-04 2.325525e+00 -7.995737e-04) (-2.122560e-07 -2.217234e-02 -2.157854e-07)) ((-2.382598e-07 8.557418e-08 4.417975e-07) (4.579045e-08 3.995640e-09 -6.712183e-08))
0.154991      	((8.365879e-04 1.307258e+00 5.090481e-04) (-1.923962e-07 -2.193836e-02 -2.246368e-07)) ((-2.139113e-07 4.033435e-08 1.203234e-07) (1.926964e-08 -1.493642e-10 -3.289567e-08))
0.197989      	((1.150328e-04 5.057885e-01 5.713474e-06) (-1.355410e-07 -2.169113e-02 -2.352549e-07)) ((-9.046306e-08 2.355419e-07 -1.032971e-08) (3.361131e-08 1.103263e-08 -4.208939e-08))
0.249587      	((1.541379e-04 3.674359e-01 -1.458558e-04) (-5.974406e-08 -2.145483e-02 -1.780764e-07)) ((-4.470358e-08 2.924120e-07 1.825005e-07) (4.565904e-08 3.219780e-09 -5.625063e-08))
0.311504      	((1.329490e-05 2.681685e-01 -6.231437e-05) (-1.158163e-07 -2.123708e-02 -1.796421e-07)) ((-1.126276e-08 -5.762839e-08 6.358414e-08) (1.941540e-08 -1.507789e-09 -3.234427e-08))
0.385805      	((-3.549884e-05 1.519495e-01 -2.181511e-05) (-2.198664e-07 -2.102514e-02 -2.344910e-07)) ((2.566669e-08 -1.059000e-07 1.167102e-08) (-6.255429e-10 1.228477e-08 -2.735438e-09))
0.474966      	((-6.970566e-05 8.276014e-02 -4.081261e-05) (-2.783675e-07 -2.080812e-02 -2.210360e-07)) ((-2.779684e-08 -4.096607e-08 1.712755e-08) (1.014004e-09 2.860839e-08 1.171734e-08))
0.581959      	((-1.481139e-04 4.297680e-02 -8.228819e-05) (-3.348923e-07 -2.058130e-02 -1.880812e-07)) ((-1.307691e-08 -2.459113e-08 1.484292e-08) (1.517942e-09 4.191303e-08 3.545676e-08))
0.710351      	((-6.129450e-05 1.785777e-02 -1.040358e-04) (-2.930795e-07 -2.033944e-02 -1.369041e-07)) ((-1.130793e-08 -1.271156e-08 1.282750e-08) (2.396430e-10 4.698566e-08 6.975253e-08))
0.864421      	((-3.245076e-05 3.183549e-03 -4.995713e-05) (-1.619211e-07 -2.007687e-02 -9.946235e-08)) ((-1.132346e-10 -2.487177e-09 -1.842491e-09) (1.656235e-08 5.011207e-08 9.083766e-08))
1.049306      	((8.235885e-05 -5.823578e-03 -3.216833e-05) (-1.566371e-07 -1.978985e-02 -8.854359e-08)) ((9.595304e-09 1.115927e-08 -9.860710e-09) (3.642988e-08 5.064591e-08 1.107218e-07))
1.271167      	((-3.882666e-05 -1.152249e-02 3.632482e-07) (-2.558504e-07 -1.947588e-02 -2.408196e-07)) ((1.349212e-09 1.118922e-09 -4.768917e-08) (5.845759e-08 5.388342e-08 1.251014e-07))
1.5374        	((4.772215e-05 -1.417388e-02 -6.223932e-05) (-5.138649e-07 -1.913205e-02 -4.291910e-07)) ((-3.734726e-09 1.819278e-08 -4.894674e-08) (6.175660e-08 5.704363e-08 1.392207e-07))
1.85688       	((-1.307280e-04 -1.496996e-02 -2.626478e-05) (-8.417791e-07 -1.875637e-02 -3.988697e-07)) ((9.371841e-10 1.533764e-08 -4.230546e-08) (4.187801e-08 5.330609e-08 1.485854e-07))
2.240256      	((1.309784e-05 -1.491044e-02 -5.377197e-05) (-9.949944e-07 -1.834562e-02 -3.154869e-07)) ((1.311034e-08 -1.710180e-08 -2.922764e-08) (1.226774e-09 6.289332e-08 1.603712e-07))
2.700307      	((-1.261614e-04 -1.445804e-02 1.389503e-05) (-5.132578e-07 -1.789879e-02 -1.256341e-07)) ((2.274467e-08 -2.480392e-08 -9.664803e-09) (-3.265050e-08 7.704931e-08 2.012269e-07))
3.252369      	((1.040979e-04 -1.375905e-02 -3.016497e-05) (-6.548470e-07 -1.741684e-02 6.193920e-08)) ((2.000014e-08 -3.244605e-08 -5.208224e-09) (-8.847978e-08 7.861843e-08 1.836046e-07))
3.914842      	((-1.351587e-04 -1.304460e-02 4.960526e-05) (-9.692033e-07 -1.690405e-02 1.298316e-07)) ((1.396547e-08 -2.038968e-08 -3.886808e-09) (-1.209576e-07 8.791714e-08 2.093816e-07))
4.709811      	((8.523115e-05 -1.254214e-02 -3.190771e-05) (-1.026082e-06 -1.636856e-02 -2.422262e-07)) ((8.849637e-09 -1.552661e-09 -2.059468e-08) (-1.422137e-07 6.400787e-08 1.551844e-07))
5.663773      	((-1.276371e-04 -1.213939e-02 4.467516e-05) (-5.435262e-07 -1.582223e-02 -8.146544e-08)) ((-2.603632e-09 3.404062e-08 -2.408845e-08) (-1.867771e-07 5.093803e-08 1.534249e-07))
6.808528      	((1.174940e-04 -1.170944e-02 -2.896685e-05) (-1.193591e-07 -1.527786e-02 -6.809661e-08)) ((-2.140030e-08 4.433334e-08 5.426992e-09) (-2.343621e-07 2.601311e-08 1.309770e-07))
8.182233      	((-1.157891e-04 -1.129797e-02 4.314738e-05) (-2.198614e-07 -1.475121e-02 -7.457793e-07)) ((-1.094391e-08 3.564183e-08 2.932107e-09) (-2.336881e-07 5.264334e-09 9.024842e-08))
9.83068       	((7.117317e-05 -1.098142e-02 -5.681971e-05) (-9.306054e-07 -1.425206e-02 -9.213742e-07)) ((1.548408e-08 2.838154e-08 -5.653336e-09) (-1.841051e-07 1.468362e-08 2.031529e-08))
11.808816     	((-1.126018e-04 -1.082985e-02 1.605681e-05) (-9.313362e-07 -1.378199e-02 -7.763910e-07)) ((1.011185e-08 3.405479e-08 -5.439427e-09) (-1.836827e-07 2.950930e-08 -7.772324e-08))
14.182579     	((3.493918e-05 -1.093443e-02 -3.622480e-05) (-1.333118e-06 -1.333607e-02 -7.880476e-07)) ((-2.883437e-09 3.954190e-08 2.998099e-09) (-1.949369e-07 2.065911e-08 -1.179170e-07))
17.031095     	((-7.097982e-05 -1.130478e-02 1.948185e-06) (-1.619875e-06 -1.290865e-02 -3.785524e-07)) ((1.519976e-09 3.345303e-08 -7.771607e-09) (-1.695468e-07 1.691036e-08 -1.842491e-07))
20.449314     	((1.136932e-06 -1.189702e-02 -4.127790e-06) (-2.089766e-06 -1.249964e-02 3.328277e-07)) ((7.112102e-09 2.278781e-08 -7.707503e-09) (-8.292665e-08 1.658274e-08 -2.084603e-07))
24.551176     	((-5.231608e-05 -1.290854e-02 1.453036e-05) (-2.283656e-06 -1.211349e-02 3.899627e-07)) ((2.821878e-09 2.455638e-08 4.565261e-09) (-1.633863e-07 1.995506e-08 -1.494654e-07))
29.473411     	((1.268095e-06 -1.435515e-02 -8.700648e-06) (-1.939773e-06 -1.175646e-02 6.031990e-08)) ((-1.580430e-09 2.866454e-08 7.145150e-09) (-2.163653e-07 1.131900e-08 -1.258883e-07))
35.380094     	((-3.485001e-05 -1.628327e-02 -3.093017e-07) (-2.099798e-06 -1.142999e-02 8.292200e-08)) ((6.342645e-10 2.592785e-08 2.707857e-09) (-1.623684e-07 9.224546e-09 -1.255472e-07))
42.332806     	((-1.419069e-05 -1.875793e-02 -2.923402e-06) (-1.707938e-06 -1.113999e-02 1.161718e-07)) ((1.236622e-09 2.615019e-08 4.159768e-09) (-1.422131e-07 1.419893e-08 -2.658190e-08))
50.332502     	((-1.231932e-05 -2.164521e-02 7.284652e-07) (-1.098571e-06 -1.089198e-02 1.286688e-07)) ((1.352451e-10 2.475825e-08 4.759530e-09) (-1.398457e-07 2.004236e-08 6.298697e-08))
59.380405     	((1.728478e-05 -2.481256e-02 2.978089e-06) (3.333786e-07 -1.068775e-02 2.598458e-07)) ((5.524784e-10 2.265396e-08 6.299681e-09) (-1.436822e-07 2.108919e-08 5.458118e-08))
69.472507     	((3.292872e-05 -2.813605e-02 9.062339e-06) (1.307962e-06 -1.052340e-02 2.143483e-07)) ((-9.448346e-10 1.938051e-08 9.039994e-09) (-1.384550e-07 2.203818e-08 2.506000e-08))
79.856994     	((3.740895e-05 -3.150683e-02 1.205405e-05) (1.213128e-06 -1.039183e-02 5.725941e-08)) ((-2.564178e-09 1.674389e-08 9.737665e-09) (-7.224569e-08 2.346965e-08 -5.237268e-08))
90.178323     	((4.106646e-05 -3.461804e-02 1.918502e-05) (1.056823e-06 -1.026831e-02 -1.721266e-07)) ((-2.414336e-09 1.598627e-08 1.063340e-08) (9.587280e-08 2.419946e-08 -2.618934e-07))
100.457742    	((4.813004e-05 -3.721364e-02 2.633170e-05) (7.494178e-07 -1.014189e-02 -3.444145e-07)) ((-4.667422e-10 1.518168e-08 1.108883e-08) (2.585855e-07 2.727441e-08 -4.864972e-07))
110.735716    	((4.874118e-05 -3.930037e-02 3.766159e-05) (4.152562e-07 -1.001656e-02 -1.438966e-07)) ((1.872348e-09 1.647369e-08 1.191969e-08) (2.613350e-07 3.082938e-08 -4.983595e-07))
121.044119    	((5.468626e-05 -4.054836e-02 5.049983e-05) (2.317327e-07 -9.897639e-03 2.994689e-07)) ((2.569505e-09 1.836613e-08 1.490582e-08) (1.302383e-07 2.717417e-08 -3.047991e-07))
131.389629    	((6.433955e-05 -4.101965e-02 6.656467e-05) (1.057300e-07 -9.785631e-03 6.694683e-07)) ((1.096295e-09 2.017964e-08 1.936872e-08) (2.769887e-08 2.143742e-08 -1.462211e-07))
141.760599    	((6.992278e-05 -4.102907e-02 7.597413e-05) (-1.472502e-09 -9.680927e-03 8.836274e-07)) ((-1.037654e-09 2.129939e-08 2.369182e-08) (2.459284e-08 2.031361e-08 -1.304878e-07))
152.14543     	((8.454551e-05 -4.062596e-02 9.089554e-05) (-8.238839e-09 -9.585438e-03 9.602733e-07)) ((-1.150672e-09 2.211046e-08 2.630814e-08) (9.523787e-08 2.337593e-08 -1.835720e-07))
162.541403    	((1.004193e-04 -4.011290e-02 1.081710e-04) (1.678899e-07 -9.500224e-03 1.060020e-06)) ((-1.474380e-09 2.144724e-08 2.904359e-08) (1.496517e-07 2.644752e-08 -2.220087e-07))
172.950867    	((1.148172e-04 -3.981812e-02 1.233866e-04) (5.954265e-07 -9.425505e-03 1.268726e-06)) ((-2.153153e-09 2.021310e-08 3.195332e-08) (1.786392e-07 2.215671e-08 -2.622770e-07))
183.375243    	((1.272757e-04 -3.944249e-02 1.395498e-04) (9.577316e-07 -9.359805e-03 1.443655e-06)) ((-1.842555e-09 1.878857e-08 3.346512e-08) (2.224578e-07 1.488071e-08 -3.203034e-07))
193.813594    	((1.409794e-04 -3.912670e-02 1.618653e-04) (1.174898e-06 -9.301255e-03 1.619512e-06)) ((-2.690486e-09 1.679059e-08 3.504035e-08) (3.029014e-07 1.455327e-08 -3.960952e-07))
204.264481    	((1.560801e-04 -3.874539e-02 1.866750e-04) (1.419071e-06 -9.247104e-03 1.818708e-06)) ((-3.877758e-09 1.431061e-08 3.692867e-08) (4.160056e-07 1.526908e-08 -4.661680e-07))
214.727255    	((1.686880e-04 -3.838645e-02 2.133769e-04) (1.690467e-06 -9.196078e-03 2.098539e-06)) ((-4.835389e-09 1.127092e-08 3.856169e-08) (5.417888e-07 1.253253e-08 -5.257597e-07))
225.201675    	((1.777184e-04 -3.801730e-02 2.396847e-04) (1.925507e-06 -9.148618e-03 2.443767e-06)) ((-5.867085e-09 8.720594e-09 4.065492e-08) (6.933410e-07 9.048147e-09 -5.959601e-07))
235.687297    	((1.822409e-04 -3.766324e-02 2.667089e-04) (2.113874e-06 -9.105155e-03 2.779435e-06)) ((-7.027348e-09 7.315449e-09 4.210825e-08) (8.657089e-07 5.463559e-09 -6.734470e-07))
246.183424    	((1.925991e-04 -3.739260e-02 3.035211e-04) (2.333762e-06 -9.065685e-03 3.177170e-06)) ((-6.993159e-09 6.961434e-09 4.238627e-08) (1.032094e-06 3.359349e-09 -7.443986e-07))
256.689307    	((2.048287e-04 -3.719491e-02 3.435375e-04) (2.596114e-06 -9.029903e-03 3.663506e-06)) ((-7.641016e-09 6.776803e-09 4.309597e-08) (1.172691e-06 3.827233e-09 -7.814298e-07))
267.204166    	((2.155301e-04 -3.699980e-02 3.872082e-04) (2.892291e-06 -8.997105e-03 4.235177e-06)) ((-7.656290e-09 7.294227e-09 4.322742e-08) (1.309962e-06 2.545140e-09 -7.968432e-07))
277.718632    	((2.278813e-04 -3.673698e-02 4.396118e-04) (3.195651e-06 -8.966379e-03 4.902033e-06)) ((-8.730909e-09 7.561633e-09 4.414801e-08) (1.453724e-06 5.156572e-11 -8.146734e-07))
288.227942    	((2.426583e-04 -3.648449e-02 4.969312e-04) (3.447858e-06 -8.937469e-03 5.615667e-06)) ((-1.055605e-08 7.715041e-09 4.495440e-08) (1.624705e-06 9.882708e-10 -8.617078e-07))
298.732594    	((2.674485e-04 -3.629191e-02 5.673960e-04) (3.711093e-06 -8.910534e-03 6.441704e-06)) ((-1.080710e-08 7.869799e-09 4.499165e-08) (1.813598e-06 -3.277508e-10 -9.355286e-07))
309.233266    	((2.884031e-04 -3.612894e-02 6.421033e-04) (4.025573e-06 -8.885582e-03 7.427224e-06)) ((-1.082128e-08 7.768456e-09 4.499982e-08) (2.003400e-06 -4.593987e-09 -1.012104e-06))
319.730901    	((3.164168e-04 -3.601249e-02 7.306385e-04) (4.333739e-06 -8.862522e-03 8.559567e-06)) ((-1.090012e-08 8.193481e-09 4.529146e-08) (2.226216e-06 -4.934955e-09 -1.126151e-06))
330.22643     	((3.494555e-04 -3.592231e-02 8.309105e-04) (4.674490e-06 -8.841276e-03 9.832495e-06)) ((-1.137360e-08 8.648685e-09 4.559896e-08) (2.504203e-06 5.049871e-09 -1.271199e-06))
340.720318    	((3.889713e-04 -3.582947e-02 9.430326e-04) (5.039778e-06 -8.821652e-03 1.124041e-05)) ((-1.122854e-08 9.074059e-09 4.550938e-08) (2.844549e-06 1.809498e-08 -1.455966e-06))
351.212684    	((4.304434e-04 -3.571995e-02 1.069510e-03) (5.402103e-06 -8.803315e-03 1.278247e-05)) ((-1.047247e-08 9.133451e-09 4.568079e-08) (3.253924e-06 2.664656e-08 -1.683039e-06))
361.703417    	((4.776060e-04 -3.559431e-02 1.206148e-03) (5.787996e-06 -8.785949e-03 1.444962e-05)) ((-1.024303e-08 9.563608e-09 4.657738e-08) (3.724857e-06 3.545266e-08 -1.943383e-06))
372.192358    	((5.302516e-04 -3.545872e-02 1.359708e-03) (6.214166e-06 -8.769542e-03 1.624743e-05)) ((-1.085436e-08 9.983421e-09 4.841358e-08) (4.256781e-06 4.736211e-08 -2.224248e-06))
382.679477    	((5.911545e-04 -3.532710e-02 1.527710e-03) (6.711543e-06 -8.754167e-03 1.823850e-05)) ((-1.187790e-08 1.107113e-08 5.010088e-08) (4.811574e-06 6.132019e-08 -2.493461e-06))
393.164745    	((6.574259e-04 -3.520557e-02 1.713017e-03) (7.333267e-06 -8.739802e-03 2.047838e-05)) ((-1.169816e-08 1.238668e-08 5.160296e-08) (5.380743e-06 7.329439e-08 -2.742770e-06))
403.648181    	((7.264671e-04 -3.510169e-02 1.914546e-03) (8.078037e-06 -8.726368e-03 2.301349e-05)) ((-1.058094e-08 1.407275e-08 5.298808e-08) (5.967231e-06 8.407179e-08 -3.005792e-06))
414.12989     	((8.078621e-04 -3.500474e-02 2.141488e-03) (8.967410e-06 -8.713783e-03 2.583719e-05)) ((-8.020415e-09 1.558813e-08 5.312460e-08) (6.613376e-06 8.988270e-08 -3.299397e-06))
424.609991    	((8.963475e-04 -3.491297e-02 2.399517e-03) (9.989023e-06 -8.701936e-03 2.901234e-05)) ((-4.833073e-09 1.703748e-08 5.271552e-08) (7.330231e-06 8.546893e-08 -3.615752e-06))
435.088597    	((9.927915e-04 -3.482055e-02 2.692787e-03) (1.111702e-05 -8.690729e-03 3.262715e-05)) ((-2.295718e-09 1.804044e-08 5.266094e-08) (8.116037e-06 8.400754e-08 -3.956777e-06))
445.565826    	((1.099592e-03 -3.472715e-02 3.026709e-03) (1.235525e-05 -8.680123e-03 3.672702e-05)) ((-1.211488e-09 1.844924e-08 5.335769e-08) (8.996932e-06 1.049688e-07 -4.325970e-06))
456.041904    	((1.221051e-03 -3.463573e-02 3.402349e-03) (1.375070e-05 -8.670135e-03 4.136909e-05)) ((-1.456965e-09 1.815151e-08 5.460661e-08) (9.988239e-06 1.458858e-07 -4.712700e-06))
466.517056    	((1.361991e-03 -3.455409e-02 3.820956e-03) (1.535356e-05 -8.660777e-03 4.658533e-05)) ((-2.860197e-09 1.789277e-08 5.620232e-08) (1.111523e-05 1.786786e-07 -5.121838e-06))
476.99135     	((1.520856e-03 -3.446527e-02 4.295474e-03) (1.721073e-05 -8.651930e-03 5.239654e-05)) ((-4.906991e-09 1.835790e-08 5.822860e-08) (1.240495e-05 1.813610e-07 -5.566467e-06))
487.464823    	((1.703027e-03 -3.437721e-02 4.821322e-03) (1.934235e-05 -8.643490e-03 5.883532e-05)) ((-7.347634e-09 1.869740e-08 6.028821e-08) (1.386619e-05 1.600379e-07 -6.071428e-06))
497.937738    	((1.911367e-03 -3.429046e-02 5.402393e-03) (2.178738e-05 -8.635434e-03 6.598135e-05)) ((-9.555431e-09 1.888958e-08 6.225549e-08) (1.552559e-05 1.271840e-07 -6.655470e-06))
508.410268    	((2.147648e-03 -3.420280e-02 6.047897e-03) (2.461474e-05 -8.627809e-03 7.394483e-05)) ((-1.168779e-08 1.879114e-08 6.423376e-08) (1.740580e-05 9.382679e-08 -7.317821e-06))
518.882511    	((2.412936e-03 -3.412954e-02 6.762320e-03) (2.786506e-05 -8.620651e-03 8.282868e-05)) ((-1.324789e-08 1.823060e-08 6.667060e-08) (1.954004e-05 6.319007e-08 -8.066863e-06))
529.354631    	((2.705795e-03 -3.407081e-02 7.555472e-03) (3.152583e-05 -8.613938e-03 9.280130e-05)) ((-1.431428e-08 1.684162e-08 6.997479e-08) (2.194715e-05 3.207833e-08 -8.914477e-06))
539.82677     	((3.030609e-03 -3.403135e-02 8.440513e-03) (3.556817e-05 -8.607715e-03 1.040680e-04)) ((-1.594544e-08 1.582559e-08 7.289161e-08) (2.461170e-05 1.921641e-09 -9.882400e-06))
550.299095    	((3.390984e-03 -3.401438e-02 9.424490e-03) (4.001925e-05 -8.602058e-03 1.167777e-04)) ((-1.787103e-08 1.521610e-08 7.551336e-08) (2.754753e-05 -2.371007e-08 -1.099914e-05))
560.771818    	((3.787304e-03 -3.402757e-02 1.052177e-02) (4.496244e-05 -8.597020e-03 1.311045e-04)) ((-2.036128e-08 1.338902e-08 7.928573e-08) (3.081302e-05 -2.043880e-08 -1.227564e-05))
571.245166    	((4.220856e-03 -3.407147e-02 1.173877e-02) (5.048106e-05 -8.592821e-03 1.471449e-04)) ((-2.395984e-08 1.051863e-08 8.424203e-08) (3.442690e-05 1.836303e-08 -1.370327e-05))
581.719404    	((4.696595e-03 -3.414060e-02 1.309894e-02) (5.660584e-05 -8.589496e-03 1.651270e-04)) ((-2.917025e-08 8.200931e-09 8.891918e-08) (3.838665e-05 8.769426e-08 -1.529062e-05))
592.194806    	((5.223464e-03 -3.423966e-02 1.460389e-02) (6.327397e-05 -8.587183e-03 1.853851e-04)) ((-3.411439e-08 3.775864e-09 9.533217e-08) (4.267476e-05 1.945276e-07 -1.710498e-05))
602.671616    	((5.803272e-03 -3.438358e-02 1.627270e-02) (7.053751e-05 -8.586382e-03 2.082035e-04)) ((-3.869532e-08 -9.769869e-10 1.042322e-07) (4.725847e-05 3.411484e-07 -1.918385e-05))
613.150539    	((6.441363e-03 -3.457634e-02 1.812502e-02) (7.866925e-05 -8.587631e-03 2.339729e-04)) ((-4.202489e-08 -6.605398e-09 1.140061e-07) (5.209863e-05 5.169268e-07 -2.145952e-05))
623.633155    	((7.147332e-03 -3.484208e-02 2.017764e-02) (8.794084e-05 -8.591126e-03 2.629389e-04)) ((-4.425342e-08 -1.225425e-08 1.249400e-07) (5.723883e-05 6.611127e-07 -2.387683e-05))
634.114093    	((7.932195e-03 -3.519522e-02 2.245370e-02) (9.823705e-05 -8.597100e-03 2.953162e-04)) ((-4.482926e-08 -1.982884e-08 1.365404e-07) (6.283275e-05 7.139548e-07 -2.648765e-05))
644.589274    	((8.790668e-03 -3.567821e-02 2.498833e-02) (1.096127e-04 -8.606078e-03 3.314886e-04)) ((-4.754464e-08 -2.669242e-08 1.496649e-07) (6.907874e-05 6.631395e-07 -2.934677e-05))
655.058249    	((9.725691e-03 -3.628660e-02 2.777471e-02) (1.223116e-04 -8.618548e-03 3.717645e-04)) ((-5.465029e-08 -2.947532e-08 1.629417e-07) (7.604661e-05 5.680165e-07 -3.235515e-05))
665.52138     	((1.074418e-02 -3.700092e-02 3.083730e-02) (1.366028e-04 -8.635088e-03 4.164388e-04)) ((-6.634910e-08 -2.627588e-08 1.733358e-07) (8.352154e-05 4.791672e-07 -3.534351e-05))
675.975677    	((1.185184e-02 -3.791338e-02 3.416145e-02) (1.531757e-04 -8.656700e-03 4.664790e-04)) ((-8.394123e-08 -1.935081e-08 1.853441e-07) (9.101098e-05 4.208114e-07 -3.811627e-05))
686.410179    	((1.301557e-02 -3.902954e-02 3.769900e-02) (1.720631e-04 -8.684116e-03 5.216885e-04)) ((-1.049896e-07 -1.458160e-08 2.045651e-07) (9.868864e-05 3.807547e-07 -4.070505e-05))
696.823288    	((1.424031e-02 -4.044616e-02 4.136668e-02) (1.929435e-04 -8.718202e-03 5.815371e-04)) ((-1.364988e-07 -1.562383e-08 2.289755e-07) (1.068424e-04 3.357228e-07 -4.312456e-05))
707.213551    	((1.552104e-02 -4.214485e-02 4.511922e-02) (2.159387e-04 -8.760132e-03 6.456927e-04)) ((-1.814693e-07 -2.456692e-08 2.520998e-07) (1.153185e-04 3.413536e-07 -4.523623e-05))
717.579688    	((1.680322e-02 -4.404744e-02 4.884182e-02) (2.412120e-04 -8.810595e-03 7.140537e-04)) ((-2.446298e-07 -4.086468e-08 2.719466e-07) (1.235491e-04 4.284485e-07 -4.697453e-05))
727.920607    	((1.802372e-02 -4.620140e-02 5.239611e-02) (2.679499e-04 -8.869636e-03 7.862250e-04)) ((-3.261967e-07 -5.535893e-08 2.917498e-07) (1.311377e-04 4.943255e-07 -4.852573e-05))
738.235492    	((1.916199e-02 -4.858900e-02 5.561044e-02) (2.951769e-04 -8.936835e-03 8.606182e-04)) ((-4.122776e-07 -5.924512e-08 3.053457e-07) (1.378093e-04 5.431607e-07 -4.988788e-05))
748.523875    	((2.010810e-02 -5.116411e-02 5.832672e-02) (3.223219e-04 -9.012225e-03 9.348528e-04)) ((-5.120285e-07 -5.199270e-08 3.200381e-07) (1.433489e-04 5.644914e-07 -5.086125e-05))
758.78569     	((2.079277e-02 -5.373536e-02 6.031061e-02) (3.486184e-04 -9.095274e-03 1.006500e-03)) ((-6.337655e-07 -3.550043e-08 3.369947e-07) (1.472697e-04 4.478221e-07 -5.121763e-05))
769.021461    	((2.117768e-02 -5.605628e-02 6.142883e-02) (3.727694e-04 -9.183212e-03 1.072647e-03)) ((-7.701306e-07 -8.149801e-09 3.455599e-07) (1.492136e-04 1.009162e-07 -5.101353e-05))
779.232461    	((2.115886e-02 -5.789915e-02 6.145453e-02) (3.924685e-04 -9.270656e-03 1.129530e-03)) ((-9.042539e-07 3.535451e-08 3.476288e-07) (1.497357e-04 -4.137516e-07 -5.096506e-05))
789.420788    	((2.066595e-02 -5.912834e-02 6.024210e-02) (4.054186e-04 -9.351226e-03 1.172398e-03)) ((-1.023390e-06 8.392535e-08 3.368526e-07) (1.495024e-04 -1.116405e-06 -5.147507e-05))
799.589507    	((1.967454e-02 -5.953643e-02 5.771489e-02) (4.105542e-04 -9.420098e-03 1.196236e-03)) ((-1.107508e-06 1.219283e-07 3.210671e-07) (1.485236e-04 -2.037460e-06 -5.202860e-05))
809.742553    	((1.819193e-02 -5.895424e-02 5.375428e-02) (4.064554e-04 -9.474822e-03 1.195608e-03)) ((-1.144799e-06 1.412968e-07 3.214918e-07) (1.469255e-04 -3.117829e-06 -5.232023e-05))
819.885386    	((1.625048e-02 -5.740814e-02 4.838538e-02) (3.916126e-04 -9.513693e-03 1.165069e-03)) ((-1.129002e-06 1.461621e-07 3.322244e-07) (1.452805e-04 -4.370339e-06 -5.247208e-05))
830.024319    	((1.391209e-02 -5.537244e-02 4.173751e-02) (3.654023e-04 -9.537089e-03 1.101044e-03)) ((-1.096043e-06 1.345161e-07 3.420780e-07) (1.442287e-04 -5.636581e-06 -5.267661e-05))
840.166262    	((1.137251e-02 -5.300172e-02 3.462902e-02) (3.284447e-04 -9.548556e-03 1.005443e-03)) ((-1.080419e-06 1.222498e-07 3.451799e-07) (1.436321e-04 -6.621967e-06 -5.284709e-05))
850.318333    	((8.967940e-03 -5.050346e-02 2.760708e-02) (2.838935e-04 -9.552266e-03 8.861029e-04)) ((-1.093143e-06 1.118562e-07 3.505935e-07) (1.423999e-04 -7.191068e-06 -5.273232e-05))
860.487159    	((6.943015e-03 -4.814051e-02 2.137417e-02) (2.365045e-04 -9.552872e-03 7.549906e-04)) ((-1.091651e-06 1.006472e-07 3.546963e-07) (1.399557e-04 -7.441674e-06 -5.205599e-05))
870.678133    	((5.342704e-03 -4.602867e-02 1.640409e-02) (1.900046e-04 -9.553087e-03 6.245859e-04)) ((-1.036959e-06 9.129776e-08 3.391960e-07) (1.359634e-04 -7.585413e-06 -5.082985e-05))
880.894902    	((4.382269e-03 -4.439184e-02 1.292317e-02) (1.464309e-04 -9.554267e-03 5.027318e-04)) ((-9.218547e-07 7.524394e-08 3.235309e-07) (1.312823e-04 -7.539805e-06 -5.018530e-05))
891.13902     	((4.005635e-03 -4.318441e-02 1.101941e-02) (1.092911e-04 -9.556258e-03 3.922493e-04)) ((-7.953685e-07 6.140221e-08 3.040380e-07) (1.286274e-04 -7.604071e-06 -5.001845e-05))
901.409798    	((4.094560e-03 -4.235039e-02 1.028223e-02) (8.271142e-05 -9.561478e-03 2.986181e-04)) ((-7.168388e-07 4.775504e-08 2.993840e-07) (1.275666e-04 -8.159001e-06 -4.921528e-05))
