# Forces      
# CofR        : (0.000000e+00 0.000000e+00 0.000000e+00)
# Time        forces(pressure viscous)	moments(pressure viscous)
0             	((0.000000e+00 0.000000e+00 0.000000e+00) (0.000000e+00 0.000000e+00 0.000000e+00)) ((0.000000e+00 0.000000e+00 0.000000e+00) (0.000000e+00 0.000000e+00 0.000000e+00))
0.012         	((9.466954e-03 4.601509e-02 -1.186727e-03) (-3.116547e-06 4.603581e-06 -1.020369e-06)) ((-2.406125e-04 2.467228e-05 7.142482e-02) (-6.912777e-06 -9.426546e-07 2.665905e+00))
0.0264        	((-8.569365e-03 -3.897679e-02 -4.623814e-03) (-3.366196e-05 -5.194782e-06 -8.037582e-06)) ((-2.945280e-04 7.839360e-05 6.730367e-02) (-5.845192e-05 8.965351e-08 5.960019e+00))
0.04368       	((-8.504063e-03 1.533521e-02 -7.843311e-03) (-2.494185e-04 -1.385626e-04 -3.984856e-05)) ((-3.297578e-04 9.791353e-05 7.093462e-02) (-3.002919e-04 -1.078857e-04 1.847440e+01))
0.064416      	((-1.767326e-02 -2.916412e-02 -7.136174e-03) (-6.310264e-04 -7.288779e-04 -1.373560e-04)) ((-2.868660e-04 6.842984e-05 6.556914e-02) (-5.425612e-04 -2.166796e-05 3.307131e+01))
0.0892992     	((-1.296410e-02 -1.551006e-03 4.621218e-03) (-6.340027e-04 -1.022939e-03 -1.531845e-04)) ((-2.585922e-04 6.906403e-05 6.477154e-02) (-8.688368e-04 -9.992399e-05 3.158567e+01))
0.119159      	((-1.437433e-02 -2.048084e-02 -9.275537e-03) (-6.232170e-04 -9.549166e-04 -1.637298e-04)) ((-2.279555e-04 5.485941e-05 6.122544e-02) (-1.043933e-03 -2.187333e-04 2.990478e+01))
0.154991      	((-1.885495e-02 -1.692060e-03 2.029688e-03) (-4.730326e-04 -8.523031e-04 -1.699552e-04)) ((-2.207338e-04 4.044592e-05 6.004525e-02) (-1.155631e-03 -2.006336e-04 2.871197e+01))
0.197989      	((-1.250867e-02 -5.122812e-03 -6.206978e-03) (-3.012184e-04 -7.399863e-04 -1.330060e-04)) ((-2.244415e-04 1.728612e-05 5.839236e-02) (-1.216546e-03 -2.221141e-04 2.789121e+01))
0.248491      	((-1.323823e-02 -2.308203e-04 2.880911e-04) (-2.752152e-04 -5.753433e-04 -8.455425e-05)) ((-2.200398e-04 -5.726915e-06 5.587717e-02) (-1.239377e-03 -2.425527e-04 2.702937e+01))
0.306525      	((1.515526e-02 -3.752146e-03 -4.617801e-03) (-3.803620e-04 -5.992520e-04 -8.300545e-05)) ((-2.036568e-04 -4.991988e-06 5.360504e-02) (-1.125770e-03 -2.072657e-04 2.608230e+01))
0.372126      	((-2.878263e-03 -8.294388e-03 2.050445e-03) (-4.075211e-04 -8.228541e-04 -1.376802e-04)) ((-2.362040e-04 1.106040e-06 5.367015e-02) (-5.887656e-04 -1.907975e-04 2.522297e+01))
0.445337      	((-2.931633e-02 -5.191273e-03 -5.616324e-03) (-2.429974e-04 -1.334117e-03 -1.531913e-04)) ((-2.246263e-04 2.118431e-06 5.310144e-02) (1.158389e-04 4.938771e-05 2.448373e+01))
0.521574      	((-2.016440e-02 -2.123038e-02 2.328031e-04) (1.830876e-04 -1.866465e-03 -9.526224e-05)) ((-2.106933e-04 4.213024e-06 5.226649e-02) (7.387917e-04 3.399752e-04 2.386136e+01))
0.598029      	((1.580722e-02 1.343518e-02 -2.986200e-03) (5.917748e-04 -2.209319e-03 -7.767952e-05)) ((-2.037673e-04 -8.028238e-06 5.081387e-02) (1.281944e-03 4.950805e-04 2.332564e+01))
0.674616      	((2.099859e-02 5.404425e-02 -1.575772e-02) (1.003534e-03 -2.232984e-03 -4.521047e-05)) ((-1.911762e-04 -1.315905e-05 4.936324e-02) (1.516928e-03 6.676539e-04 2.284299e+01))
0.75138       	((6.454539e-02 7.969517e-02 -1.718853e-02) (1.481766e-03 -1.900721e-03 -1.197865e-05)) ((-2.079924e-04 -3.954357e-06 4.820740e-02) (1.387553e-03 1.048862e-03 2.240024e+01))
0.82837       	((6.271466e-02 1.355369e-01 -3.114113e-02) (1.649493e-03 -1.311636e-03 -1.258198e-04)) ((-1.597102e-04 3.642890e-05 4.754826e-02) (9.091213e-04 1.417770e-03 2.199570e+01))
0.905605      	((8.802849e-02 8.412832e-02 -1.367142e-02) (1.445912e-03 -1.068761e-03 -3.650898e-04)) ((-1.040034e-04 3.933777e-05 4.725820e-02) (2.460512e-04 1.531547e-03 2.162944e+01))
0.98317       	((1.095323e-01 9.939700e-02 1.153239e-02) (1.732628e-03 -1.045542e-03 -6.463446e-04)) ((-1.244876e-04 2.037289e-06 4.665914e-02) (-2.797890e-04 1.378340e-03 2.130019e+01))
1.061145      	((1.649116e-01 1.362716e-01 3.109171e-03) (1.560430e-03 -1.077818e-05 -6.770538e-04)) ((-1.506990e-04 -1.575018e-05 4.593988e-02) (-6.771876e-04 9.117094e-04 2.100648e+01))
1.139594      	((1.832952e-01 1.824060e-01 4.356094e-03) (4.769519e-04 5.619641e-04 -6.044924e-04)) ((-1.504780e-04 6.831264e-06 4.519149e-02) (-8.189625e-04 2.012750e-04 2.074678e+01))
1.21847       	((2.066953e-01 2.009092e-01 -9.981382e-03) (-2.783344e-04 3.681409e-04 -6.558226e-04)) ((-1.658609e-04 3.241214e-05 4.447627e-02) (-6.450266e-04 -4.377702e-04 2.052068e+01))
1.297608      	((1.737207e-01 2.200303e-01 -4.351495e-04) (-5.629132e-04 1.721899e-04 -5.973484e-04)) ((-1.565874e-04 2.982838e-05 4.372319e-02) (-4.491651e-04 -9.019994e-04 2.032693e+01))
1.377052      	((1.883087e-01 1.825629e-01 2.104641e-03) (-9.214799e-04 -7.689752e-04 -4.665364e-04)) ((-1.650132e-04 6.172915e-05 4.294878e-02) (-2.229573e-04 -1.143382e-03 2.016205e+01))
1.456821      	((1.223375e-01 1.443497e-01 5.284316e-03) (-4.795301e-04 -1.660736e-03 -1.587155e-04)) ((-1.584851e-04 7.708209e-05 4.228929e-02) (1.890249e-05 -1.216285e-03 2.002266e+01))
1.536939      	((1.306432e-01 1.153560e-01 1.362533e-02) (3.979238e-04 -2.434555e-03 1.379097e-04)) ((-1.942325e-04 9.366003e-05 4.177603e-02) (2.533989e-04 -1.223529e-03 1.990583e+01))
1.617458      	((1.498596e-01 8.930490e-02 1.479310e-03) (1.016626e-03 -3.198946e-03 2.884822e-04)) ((-2.359446e-04 1.135383e-04 4.134289e-02) (4.451949e-04 -1.116353e-03 1.981041e+01))
1.698422      	((1.991275e-01 1.453702e-01 9.547080e-05) (1.790664e-03 -3.565351e-03 5.611196e-04)) ((-2.470664e-04 1.000126e-04 4.088668e-02) (5.576803e-04 -9.909835e-04 1.973494e+01))
1.779522      	((1.602742e-01 2.541732e-01 7.680933e-03) (3.239427e-03 -3.127334e-03 8.776483e-04)) ((-2.593829e-04 3.495397e-05 4.047745e-02) (5.787259e-04 -9.496769e-04 1.967735e+01))
1.860682      	((9.884922e-02 2.081530e-01 2.201939e-02) (4.192896e-03 -2.608244e-03 1.007916e-03)) ((-2.500877e-04 1.087856e-05 4.011161e-02) (6.133332e-04 -8.467477e-04 1.963625e+01))
1.941914      	((1.061825e-01 2.503209e-01 1.901703e-02) (5.318159e-03 -1.608822e-03 9.356044e-04)) ((-2.358726e-04 -6.052892e-06 3.967959e-02) (7.188727e-04 -6.686818e-04 1.961060e+01))
2.023222      	((1.510814e-01 3.625379e-01 1.592275e-02) (6.296334e-03 6.834745e-04 8.033072e-04)) ((-1.825641e-04 -3.940496e-05 3.930523e-02) (6.798368e-04 -4.729917e-04 1.959921e+01))
2.104613      	((1.570937e-01 4.172271e-01 1.510921e-02) (5.214844e-03 2.907960e-03 4.875925e-04)) ((-1.254317e-04 -4.850843e-05 3.902447e-02) (5.068090e-04 -2.037301e-04 1.960183e+01))
2.186084      	((1.348477e-01 3.686681e-01 2.891149e-02) (3.403261e-03 2.864527e-03 3.728070e-04)) ((-9.108612e-05 -7.400413e-05 3.876875e-02) (3.767866e-04 7.257637e-05 1.961991e+01))
2.267635      	((5.420111e-02 3.199737e-01 3.163037e-02) (1.932483e-03 2.457566e-03 3.574476e-04)) ((-9.221056e-05 -8.327561e-05 3.857784e-02) (3.330425e-04 2.529061e-04 1.965355e+01))
2.349271      	((9.165200e-03 2.903045e-01 2.871859e-02) (6.932274e-04 1.266785e-03 2.141699e-04)) ((-6.614925e-05 -5.205587e-05 3.847797e-02) (2.900509e-04 4.819459e-04 1.970189e+01))
