# Forces      
# CofR        : (0.000000e+00 0.000000e+00 0.000000e+00)
# Time        forces(pressure viscous)	moments(pressure viscous)
0             	((0.000000e+00 0.000000e+00 0.000000e+00) (0.000000e+00 0.000000e+00 0.000000e+00)) ((0.000000e+00 0.000000e+00 0.000000e+00) (0.000000e+00 0.000000e+00 0.000000e+00))
0.012         	((3.203597e-03 7.173983e-04 3.814958e-02) (1.887463e-06 6.657154e-07 7.750494e-06)) ((-1.351599e-06 -7.338973e-02 2.571712e-06) (1.090921e-07 -2.666024e+00 -1.013204e-07))
0.0264        	((1.513071e-02 -1.289441e-03 -6.057704e-02) (1.689979e-06 4.102067e-06 1.850433e-06)) ((-3.357373e-06 -6.920425e-02 2.094476e-06) (3.176683e-07 -5.960235e+00 -8.954211e-07))
0.04368       	((1.837094e-03 -3.878812e-03 2.228852e-03) (6.532617e-05 3.693565e-05 -1.217896e-04)) ((-2.248826e-06 -7.299800e-02 1.942831e-06) (4.289605e-06 -1.847359e+01 -9.329971e-06))
0.064416      	((1.814712e-02 -4.005352e-03 -4.096207e-02) (-3.775449e-04 9.107202e-05 6.007541e-04)) ((-1.444837e-06 -6.746595e-02 -4.758177e-07) (2.565233e-06 -3.307665e+01 -2.749449e-05))
0.0892992     	((2.032981e-02 6.140103e-05 1.413553e-02) (-4.445266e-04 1.332090e-04 7.423345e-04)) ((-1.875958e-06 -6.656689e-02 -1.784686e-06) (1.046265e-06 -3.159098e+01 -3.751837e-05))
0.119159      	((5.935602e-02 -2.235309e-03 -1.527111e-02) (-5.163278e-04 1.420033e-04 1.167629e-03)) ((-4.115725e-06 -6.286176e-02 1.241959e-06) (8.607127e-06 -2.990949e+01 -4.118789e-05))
0.154991      	((1.574062e-02 2.497267e-03 -3.381408e-03) (-8.063507e-04 1.170746e-04 1.604326e-03)) ((-4.125190e-06 -6.169357e-02 5.134146e-07) (2.418407e-05 -2.871602e+01 -3.987395e-05))
0.197989      	((1.992172e-02 -1.738378e-03 -2.073670e-02) (-1.326976e-03 9.423089e-05 1.871659e-03)) ((-2.052508e-06 -5.999284e-02 1.279803e-06) (3.299860e-05 -2.789588e+01 -3.520792e-05))
0.248479      	((1.454310e-02 -1.482680e-03 -6.935554e-03) (-1.623941e-03 7.557443e-05 1.688664e-03)) ((-1.014876e-06 -5.737731e-02 2.373363e-06) (2.965210e-05 -2.703486e+01 -2.862668e-05))
0.306487      	((3.907019e-02 -1.488682e-03 6.784132e-03) (-2.047639e-03 5.125658e-05 1.084573e-03)) ((-2.149552e-06 -5.501385e-02 6.268670e-06) (2.288907e-05 -2.608973e+01 -2.034297e-05))
0.37205       	((7.812685e-03 9.100644e-03 1.877506e-02) (-2.409480e-03 1.778104e-05 1.108247e-04)) ((-8.466853e-06 -5.504495e-02 1.114137e-05) (1.634408e-05 -2.523285e+01 -1.161206e-05))
0.445214      	((-1.665756e-02 2.745545e-03 -2.269162e-02) (-2.308258e-03 -3.908026e-05 -9.892462e-04)) ((-1.236222e-05 -5.448540e-02 7.598770e-06) (1.526412e-05 -2.449383e+01 -6.148621e-06))
0.521353      	((2.851518e-02 2.350137e-03 -9.073715e-03) (-1.889142e-03 -1.041180e-04 -1.883191e-03)) ((-3.477981e-06 -5.350404e-02 1.727016e-06) (1.096286e-05 -2.387005e+01 -3.673038e-06))
0.597577      	((3.178629e-02 1.236674e-03 3.466168e-02) (-1.275155e-03 -1.507282e-04 -2.626756e-03)) ((-1.037823e-07 -5.202350e-02 -5.350108e-06) (8.401836e-07 -2.333397e+01 -8.222419e-06))
0.673892      	((2.379688e-02 -8.348254e-03 5.176179e-02) (-3.509115e-04 -1.502861e-04 -2.903393e-03)) ((3.096865e-06 -5.061024e-02 1.978421e-06) (-2.036912e-05 -2.285207e+01 -1.866774e-05))
0.750398      	((9.290191e-02 -1.382164e-02 5.823089e-02) (6.611101e-04 -1.956715e-04 -2.832718e-03)) ((2.444360e-06 -4.947335e-02 1.432414e-05) (-4.806804e-05 -2.241056e+01 -3.001785e-05))
0.827158      	((1.879131e-01 -1.728874e-02 9.093705e-02) (1.872084e-03 -3.716690e-04 -2.575737e-03)) ((-3.533505e-06 -4.882270e-02 2.095860e-05) (-8.084357e-05 -2.200709e+01 -4.215971e-05))
0.904149      	((1.531419e-01 -7.458434e-03 1.129399e-01) (2.972033e-03 -6.939492e-04 -1.467234e-03)) ((-6.399820e-06 -4.852939e-02 2.616796e-05) (-9.516883e-05 -2.164204e+01 -4.661640e-05))
0.981476      	((1.555328e-01 1.650342e-02 1.587247e-01) (3.212771e-03 -1.081191e-03 -7.188545e-04)) ((3.500199e-06 -4.798989e-02 4.658163e-06) (-6.436954e-05 -2.131398e+01 -3.116703e-05))
1.059199      	((1.761989e-01 8.012026e-03 1.406984e-01) (3.291601e-03 -1.297143e-03 -4.088799e-04)) ((-7.712228e-06 -4.725351e-02 1.618706e-05) (1.172243e-05 -2.102066e+01 -2.458082e-05))
1.137369      	((1.843642e-01 6.864074e-04 1.369176e-01) (3.647765e-03 -1.324321e-03 -3.977266e-04)) ((-8.535653e-06 -4.645459e-02 1.619108e-05) (9.951680e-05 -2.076077e+01 1.112534e-05))
1.216114      	((2.468164e-01 3.692835e-03 1.837134e-01) (4.016977e-03 -1.509189e-03 7.314277e-04)) ((-2.282158e-05 -4.566684e-02 1.840478e-05) (1.692931e-04 -2.053343e+01 1.169026e-04))
1.295235      	((2.914492e-01 1.810834e-02 2.971919e-01) (3.599023e-03 -1.695428e-03 1.580720e-03)) ((-3.002639e-05 -4.490815e-02 1.986439e-05) (1.516829e-04 -2.033762e+01 2.399237e-04))
1.374664      	((2.914033e-01 6.014991e-03 2.529550e-01) (2.734334e-03 -1.507983e-03 1.221379e-03)) ((-8.807317e-06 -4.411827e-02 2.662413e-06) (9.782975e-05 -2.017070e+01 2.959090e-04))
1.45442       	((2.508683e-01 9.301802e-03 1.831481e-01) (3.034419e-03 -1.137561e-03 1.511928e-03)) ((-3.677552e-05 -4.342917e-02 6.853717e-06) (6.582906e-05 -2.002938e+01 3.763757e-04))
1.534527      	((2.657520e-01 9.205807e-03 1.522808e-01) (2.979010e-03 -8.989230e-04 2.081529e-03)) ((-3.635786e-05 -4.291529e-02 -1.301575e-05) (3.493506e-05 -1.991094e+01 4.815710e-04))
1.615038      	((2.915919e-01 1.614037e-03 1.350284e-01) (2.424583e-03 -8.493189e-04 2.193964e-03)) ((2.023868e-05 -4.243689e-02 -2.676990e-05) (5.846292e-06 -1.981320e+01 5.155704e-04))
1.696021      	((2.401603e-01 -9.440840e-03 1.406431e-01) (1.262933e-03 -7.288327e-04 1.794772e-03)) ((4.589856e-05 -4.195047e-02 -2.425415e-05) (-8.713828e-06 -1.973469e+01 5.076262e-04))
1.777127      	((1.842262e-01 5.686099e-03 1.473888e-01) (7.708876e-04 -4.586654e-04 4.042319e-04)) ((3.893226e-05 -4.151417e-02 -7.386402e-06) (-1.053936e-05 -1.967446e+01 5.113143e-04))
1.858291      	((1.662052e-01 1.038606e-02 1.758082e-01) (1.652562e-03 4.810289e-05 -4.753973e-04)) ((-1.746468e-06 -4.106632e-02 -4.542083e-06) (-1.060486e-04 -1.963131e+01 5.490238e-04))
1.939528      	((1.785720e-01 2.507717e-02 1.584865e-01) (2.611304e-03 2.363200e-04 -1.547254e-03)) ((-2.081070e-05 -4.062024e-02 -4.406379e-05) (-2.588079e-04 -1.960443e+01 5.631005e-04))
2.020838      	((1.903824e-01 -3.232817e-03 2.244970e-01) (2.749773e-03 1.157011e-04 -8.758798e-04)) ((-3.278185e-05 -4.029482e-02 -6.239991e-05) (-3.795000e-04 -1.959227e+01 5.164335e-04))
2.102233      	((1.456635e-01 -8.424247e-03 3.161143e-01) (3.247843e-03 5.414219e-04 -5.512763e-05)) ((-4.711056e-05 -3.998191e-02 -5.960932e-05) (-4.328048e-04 -1.959497e+01 3.720909e-04))
2.183714      	((1.567447e-01 7.623801e-03 2.506804e-01) (3.944855e-03 1.103242e-03 -9.922840e-05)) ((-6.322968e-05 -3.970337e-02 -6.731600e-05) (-3.720292e-04 -1.961395e+01 1.902562e-04))
2.265283      	((1.313340e-01 1.189980e-02 2.871917e-01) (3.571118e-03 1.404167e-03 1.299448e-03)) ((-1.169813e-04 -3.953637e-02 -7.541061e-05) (-2.395416e-04 -1.964792e+01 7.220493e-05))
2.346939      	((1.404483e-01 2.911245e-02 2.651681e-01) (3.320478e-03 1.371467e-03 1.253979e-03)) ((-1.254453e-04 -3.939764e-02 -7.835983e-05) (-1.363479e-04 -1.969514e+01 5.815286e-05))
2.428693      	((1.529122e-01 2.703340e-02 3.072011e-01) (3.989813e-03 9.208251e-04 2.139482e-03)) ((-1.230889e-04 -3.940462e-02 -6.364180e-05) (-5.633772e-05 -1.975672e+01 9.908986e-05))
