# Forces      
# CofR        : (0.000000e+00 0.000000e+00 0.000000e+00)
# Time        forces(pressure viscous)	moments(pressure viscous)
0             	((0.000000e+00 0.000000e+00 0.000000e+00) (0.000000e+00 0.000000e+00 0.000000e+00)) ((0.000000e+00 0.000000e+00 0.000000e+00) (0.000000e+00 0.000000e+00 0.000000e+00))
0.012         	((4.064672e-07 -2.676700e-06 -1.293521e-06) (1.088139e-10 6.021865e-10 -1.620049e-10)) ((2.936039e-05 -4.800985e-10 -1.035861e-07) (1.514472e-03 -6.399461e-11 1.054309e-09))
0.0264        	((1.288165e-06 8.653058e-06 -6.216767e-06) (2.048616e-10 8.413325e-10 -3.748848e-11)) ((1.293225e-05 -5.923391e-10 -7.670962e-08) (1.513019e-03 -7.254428e-11 -1.880998e-10))
0.04368       	((-1.868889e-06 -1.154684e-06 -3.912332e-06) (9.057021e-11 6.065031e-10 -3.458027e-11)) ((6.683337e-06 1.102464e-09 -5.675306e-08) (1.511292e-03 1.597753e-11 -1.728937e-09))
0.064416      	((3.682850e-06 6.526351e-06 -2.626182e-06) (2.428105e-10 6.759470e-10 -1.839095e-10)) ((3.047112e-06 -1.860939e-10 -2.546219e-08) (1.509223e-03 1.498250e-10 -1.937631e-09))
0.0892992     	((-1.445543e-07 -1.465625e-06 -7.654023e-07) (8.259135e-10 6.902057e-10 -3.529297e-11)) ((2.045274e-06 1.982055e-09 -5.472978e-09) (1.506745e-03 3.652546e-10 -1.685150e-09))
0.119159      	((2.218342e-06 1.308515e-06 5.632565e-07) (1.596955e-09 6.785688e-10 1.871589e-10)) ((1.421777e-06 1.387311e-10 -6.358944e-10) (1.503780e-03 5.879941e-10 -1.382923e-09))
0.154991      	((2.391042e-07 -1.390864e-06 2.409730e-06) (2.165751e-09 7.279903e-10 2.738146e-10)) ((1.185702e-06 6.196359e-10 -1.390878e-09) (1.500236e-03 6.429229e-10 -1.617570e-09))
0.197989      	((3.235055e-07 4.244011e-07 1.450616e-06) (2.197487e-09 7.959117e-10 9.476884e-11)) ((1.013298e-06 4.829890e-10 -1.459487e-09) (1.496002e-03 4.997015e-10 -2.423568e-09))
0.249587      	((3.188607e-07 -4.375916e-07 1.510739e-06) (1.936941e-09 8.813210e-10 -1.755691e-10)) ((8.872790e-07 3.128086e-10 -1.719189e-09) (1.490948e-03 2.244546e-10 -3.541069e-09))
0.311504      	((-1.888305e-08 -6.324794e-08 1.673374e-06) (1.656943e-09 9.946655e-10 -3.341111e-10)) ((7.845691e-07 -2.817047e-10 -2.594342e-09) (1.484921e-03 -3.236669e-11 -4.750720e-09))
0.385805      	((-1.208001e-07 -6.261462e-07 9.341835e-07) (1.373858e-09 9.398328e-10 -3.371217e-10)) ((6.910226e-07 -9.584355e-10 -2.790446e-09) (1.477740e-03 -8.374007e-11 -5.965401e-09))
0.474966      	((-1.935886e-07 -5.117989e-07 4.006316e-07) (9.839404e-10 5.406581e-10 -3.354252e-10)) ((6.037516e-07 -1.345849e-09 -2.891262e-09) (1.469200e-03 1.996287e-11 -7.420827e-09))
0.581959      	((-5.605466e-07 -8.613398e-07 -2.601006e-07) (8.038702e-10 1.753604e-10 -4.546544e-10)) ((5.257057e-07 -1.511650e-09 -2.484671e-09) (1.459062e-03 -1.198506e-10 -8.813932e-09))
0.710351      	((-5.273088e-07 -7.380669e-07 -4.291287e-07) (8.304868e-10 -4.391661e-11 -6.396784e-10)) ((4.537747e-07 -2.981527e-10 -2.709107e-09) (1.447055e-03 -3.939128e-10 -9.974820e-09))
0.864421      	((-3.452337e-07 -6.602616e-07 -2.214335e-07) (9.414781e-10 -3.345669e-10 -8.170972e-10)) ((3.838723e-07 8.428301e-10 -1.699666e-09) (1.432875e-03 -3.423437e-10 -1.081398e-08))
1.049306      	((-3.000776e-07 -3.737832e-07 -6.280936e-08) (1.287730e-09 -8.807552e-10 -1.011552e-09)) ((3.218463e-07 4.348813e-10 -8.459383e-10) (1.416189e-03 2.107830e-10 -1.133841e-08))
1.271167      	((-2.431144e-07 -2.243937e-07 -1.407816e-07) (1.808562e-09 -1.508027e-09 -1.082063e-09)) ((2.759212e-07 -3.436956e-10 -2.636375e-10) (1.396644e-03 8.359415e-10 -1.160647e-08))
1.5374        	((-1.476560e-07 -1.155296e-07 -1.730366e-09) (2.239321e-09 -1.645020e-09 -1.114524e-09)) ((2.456729e-07 -8.813430e-10 -1.659206e-10) (1.373878e-03 1.379112e-09 -1.191214e-08))
1.85688       	((-7.771637e-08 -7.161279e-08 -2.191003e-07) (2.507966e-09 -1.390365e-09 -1.217876e-09)) ((2.263240e-07 -7.173278e-10 -3.028568e-10) (1.347542e-03 1.836835e-09 -1.248171e-08))
2.240256      	((-8.103227e-08 -7.598816e-08 -2.879417e-08) (2.865382e-09 -1.113572e-09 -1.213203e-09)) ((2.130067e-07 -4.965083e-10 -4.613605e-10) (1.317334e-03 2.444584e-09 -1.346991e-08))
2.700307      	((-3.379790e-08 -8.478096e-08 -6.806727e-08) (3.331148e-09 -8.406971e-10 -1.130644e-09)) ((2.025672e-07 -3.365969e-10 -5.913218e-10) (1.283053e-03 3.066868e-09 -1.457245e-08))
3.252369      	((-1.878807e-09 -5.531983e-08 -1.000830e-07) (3.800207e-09 -5.881393e-10 -1.151685e-09)) ((1.939338e-07 -2.676904e-10 -6.988360e-10) (1.244655e-03 3.801667e-09 -1.532897e-08))
3.914842      	((3.232487e-08 -5.916617e-09 -9.684805e-08) (4.356528e-09 -2.599088e-10 -1.416014e-09)) ((1.857327e-07 -1.562412e-10 -6.115747e-10) (1.202329e-03 4.869100e-09 -1.582615e-08))
4.709811      	((1.516824e-10 2.169706e-08 -2.992566e-08) (4.813752e-09 -1.241763e-10 -2.084363e-09)) ((1.770191e-07 -1.150579e-10 -4.996959e-10) (1.156551e-03 6.119827e-09 -1.605065e-08))
5.663773      	((4.354850e-08 6.896617e-08 -4.395416e-08) (4.846101e-09 -4.207467e-10 -3.388075e-09)) ((1.673892e-07 -6.810160e-11 -3.968627e-10) (1.108103e-03 6.887082e-09 -1.619421e-08))
6.808528      	((-3.327846e-08 2.767646e-08 -2.125030e-08) (4.778205e-09 3.475457e-10 -3.304519e-09)) ((1.577972e-07 -6.467723e-11 -3.623406e-10) (1.058018e-03 7.728545e-09 -1.598889e-08))
8.182233      	((-7.867567e-08 4.652077e-08 -1.196623e-07) (5.908248e-09 2.253259e-09 -1.372775e-09)) ((1.484630e-07 -5.673350e-11 -3.549780e-10) (1.007455e-03 8.925722e-09 -1.529573e-08))
9.83068       	((-9.819974e-08 4.166248e-08 -4.649616e-08) (8.486198e-09 3.402312e-09 -1.087131e-10)) ((1.394040e-07 -1.710171e-11 -3.608883e-10) (9.574077e-04 9.120603e-09 -1.405733e-08))
11.808816     	((-1.141740e-07 -2.508117e-09 -2.110324e-08) (1.182545e-08 4.050526e-09 -5.853141e-10)) ((1.291940e-07 -5.917116e-11 -5.254694e-10) (9.084572e-04 8.125298e-09 -1.222151e-08))
14.182579     	((-1.271688e-07 4.588328e-08 3.204154e-08) (1.522683e-08 4.033958e-09 -2.308266e-09)) ((1.168654e-07 -4.186551e-11 -6.221682e-10) (8.600665e-04 7.037359e-09 -9.743708e-09))
17.031095     	((-1.299137e-07 -1.921208e-08 5.055315e-09) (1.739301e-08 4.378914e-09 -3.066806e-09)) ((1.025321e-07 6.885785e-11 -5.441899e-10) (8.107436e-04 5.552095e-09 -7.058415e-09))
20.449314     	((-1.195229e-07 6.474665e-08 3.042429e-08) (1.408066e-08 3.495158e-09 -4.601979e-09)) ((8.864572e-08 1.565546e-10 -4.197776e-10) (7.598240e-04 4.514511e-09 -4.125576e-09))
24.551176     	((-1.416788e-07 6.799046e-08 -1.211139e-08) (7.667793e-09 3.310647e-09 -7.051527e-09)) ((7.631941e-08 1.699678e-10 -4.272639e-10) (7.079100e-04 3.214753e-09 -1.124557e-09))
29.473411     	((-1.214729e-07 1.061449e-07 5.079389e-08) (8.957384e-10 4.098225e-09 -6.089356e-09)) ((6.867101e-08 1.539558e-10 -4.101777e-10) (6.561415e-04 1.375186e-09 5.997705e-10))
35.380094     	((-1.402061e-07 8.150842e-08 9.011983e-09) (-2.421895e-09 2.803138e-09 -6.700746e-09)) ((6.399728e-08 1.591752e-11 -3.320187e-10) (6.057730e-04 -1.399058e-10 9.024815e-11))
42.468112     	((-1.577860e-07 1.238518e-07 -2.804420e-08) (-5.520289e-09 4.554216e-09 -9.162812e-09)) ((5.882275e-08 -1.426594e-11 -2.396269e-10) (5.577444e-04 -4.281236e-10 -3.745257e-10))
50.973735     	((-1.669580e-07 2.137253e-07 -8.235402e-08) (-8.103819e-09 1.323660e-08 -5.405427e-09)) ((5.348490e-08 -4.259208e-11 -7.158846e-11) (5.124211e-04 -2.439274e-10 3.158127e-10))
61.180482     	((-1.523776e-07 2.496806e-07 1.280745e-07) (-6.308303e-09 2.455778e-08 1.017106e-08)) ((4.743559e-08 8.949673e-11 -7.173169e-11) (4.697493e-04 1.764277e-09 8.458314e-10))
73.428578     	((-1.408192e-07 5.641080e-07 2.685847e-07) (1.370852e-09 3.931084e-08 2.084475e-08)) ((3.873607e-08 1.723139e-10 -4.479128e-11) (4.296446e-04 4.251574e-09 3.041361e-09))
88.126294     	((-4.258633e-08 6.774182e-07 4.155163e-07) (1.818064e-09 2.643492e-08 3.849599e-08)) ((2.946062e-08 2.302165e-10 -1.288505e-10) (3.923991e-04 5.896573e-09 3.948820e-09))
105.763553    	((-1.266978e-07 7.747950e-07 5.046048e-07) (-1.105149e-09 1.571083e-08 5.380540e-08)) ((2.145824e-08 2.411721e-10 -1.868098e-10) (3.586024e-04 5.257543e-09 -5.894446e-10))
126.928263    	((-3.959547e-08 6.971652e-07 5.721474e-07) (7.625426e-11 5.627869e-08 6.774449e-08)) ((1.476970e-08 1.867207e-10 -9.834667e-11) (3.286321e-04 1.403352e-09 -4.160786e-09))
152.325916    	((-6.987473e-08 7.323453e-07 5.766740e-07) (7.368851e-09 9.073753e-08 8.788174e-08)) ((9.327579e-09 4.623533e-10 -1.528779e-10) (3.025480e-04 -1.907993e-09 -7.959729e-09))
182.803099    	((-1.239423e-10 5.579399e-07 6.565548e-07) (-3.322113e-09 1.310609e-07 1.223444e-08)) ((6.186149e-09 6.269203e-10 -1.986425e-10) (2.802369e-04 -3.857704e-09 -1.420447e-08))
219.375719    	((5.134645e-08 4.524008e-07 7.257361e-07) (-5.314043e-09 1.801689e-07 2.112517e-08)) ((4.294846e-09 5.569918e-10 -1.271673e-10) (2.613360e-04 -7.622582e-09 -1.944594e-08))
263.262863    	((1.727633e-07 2.691063e-07 7.444176e-07) (-4.148900e-09 2.073764e-07 1.045164e-07)) ((3.114245e-09 4.710736e-10 -1.112201e-11) (2.453054e-04 -8.861632e-09 -2.373115e-08))
315.376976    	((1.333667e-07 4.005344e-07 1.077781e-06) (-9.501585e-09 2.731768e-07 1.496655e-07)) ((2.072558e-09 4.874390e-10 -2.729592e-11) (2.317221e-04 -5.672970e-09 -2.870113e-08))
375.800356    	((9.086459e-08 4.732035e-07 1.019720e-06) (-2.173989e-08 3.032228e-07 2.124889e-07)) ((1.070795e-09 4.092018e-10 -4.488388e-11) (2.203174e-04 -8.929250e-10 -3.192565e-08))
444.632623    	((-5.132564e-08 6.336031e-07 9.995557e-07) (-4.586251e-08 3.121260e-07 3.207000e-07)) ((6.534152e-10 3.513557e-10 -8.390381e-11) (2.107845e-04 3.971350e-09 -3.226487e-08))
521.991599    	((-1.340720e-07 7.457876e-07 9.210029e-07) (-6.109118e-08 2.462697e-07 2.759757e-07)) ((4.652636e-10 4.024853e-10 -1.423513e-10) (2.029235e-04 7.990714e-09 -2.806152e-08))
608.027289    	((-2.288174e-07 5.481210e-07 5.852810e-07) (-5.160255e-08 1.875274e-07 1.071691e-07)) ((4.936125e-10 3.399619e-10 -9.253480e-11) (1.966342e-04 1.105375e-08 -2.234109e-08))
696.575456    	((-1.978268e-07 5.904052e-07 7.334857e-07) (-3.946804e-08 1.695645e-07 -4.238044e-08)) ((6.429870e-10 2.837481e-10 -7.189504e-11) (1.921357e-04 1.412128e-08 -1.896336e-08))
787.163936    	((-2.573472e-07 4.363762e-07 7.364559e-07) (-1.644976e-08 1.484813e-07 -5.853310e-08)) ((1.265295e-09 1.979035e-10 3.094647e-11) (1.892042e-04 1.799334e-08 -1.746743e-08))
879.473748    	((-2.557120e-07 3.485403e-07 8.846087e-07) (3.054714e-09 1.555721e-07 -6.552165e-08)) ((1.736817e-09 1.569630e-10 1.064537e-10) (1.876571e-04 2.367170e-08 -1.683765e-08))
973.459298    	((-1.555844e-07 2.941949e-07 9.235883e-07) (2.067015e-08 1.486243e-07 -8.153217e-08)) ((2.220685e-09 5.316279e-11 1.296948e-10) (1.873961e-04 2.859113e-08 -1.288207e-08))
1067.802766   	((-9.219051e-08 3.977898e-07 1.086749e-06) (3.029167e-08 1.848344e-07 -4.230505e-08)) ((2.855946e-09 -4.025621e-12 8.516582e-11) (1.883723e-04 2.903045e-08 -8.450158e-09))
1161.699527   	((-1.367660e-07 4.212058e-07 1.122478e-06) (4.561317e-08 1.797341e-07 -2.463549e-08)) ((3.221342e-09 -1.112051e-10 2.566611e-11) (1.905604e-04 2.692006e-08 -2.655219e-09))
1254.824336   	((-4.396464e-08 6.149145e-07 1.237602e-06) (5.269992e-08 1.610153e-07 9.710551e-09)) ((3.599442e-09 -2.365828e-10 -5.401324e-11) (1.939175e-04 2.238190e-08 4.578195e-10))
1346.94758    	((-1.939446e-07 6.818907e-07 1.168163e-06) (4.291066e-08 4.175997e-08 5.697099e-08)) ((3.763521e-09 -2.693618e-10 -9.953148e-11) (1.982606e-04 1.646968e-08 -2.549806e-09))
1437.942323   	((-2.266258e-07 7.250546e-07 8.556229e-07) (2.028330e-08 -2.020847e-08 5.953441e-08)) ((3.862938e-09 -2.718090e-10 -1.690237e-10) (2.033269e-04 9.859382e-09 -8.310097e-09))
1527.797854   	((-2.797518e-07 6.307193e-07 1.509481e-07) (1.339405e-08 -7.189028e-08 5.797367e-08)) ((3.694467e-09 -3.048022e-10 -1.804614e-10) (2.086488e-04 7.399916e-09 -1.568667e-08))
1616.617759   	((-5.879148e-07 8.430363e-07 -5.229594e-07) (5.055440e-09 -7.344762e-08 2.908621e-08)) ((3.488670e-09 -3.105024e-10 -2.635213e-10) (2.136358e-04 8.309919e-09 -2.279140e-08))
1704.531702   	((-7.855171e-07 7.877792e-07 -8.656565e-07) (-2.434833e-09 -4.156597e-08 -3.744743e-08)) ((3.651302e-09 -3.205818e-10 -3.145660e-10) (2.177161e-04 1.650320e-08 -3.003645e-08))
1790.916707   	((-3.474140e-07 6.043584e-07 -8.445619e-07) (1.595320e-08 1.149289e-08 -3.379116e-08)) ((3.748712e-09 -2.397123e-10 -3.099466e-10) (2.205791e-04 2.585990e-08 -3.287183e-08))
1875.382223   	((-5.024820e-07 5.588548e-07 -6.720852e-07) (2.335131e-08 4.436835e-08 -2.363833e-08)) ((3.695969e-09 -1.384264e-10 -2.221786e-10) (2.222119e-04 3.538688e-08 -3.164495e-08))
1958.304472   	((-6.334180e-07 7.049801e-07 -2.566712e-07) (2.244168e-08 1.150676e-07 7.763266e-08)) ((3.562081e-09 -3.639667e-11 -1.822666e-10) (2.228198e-04 4.474135e-08 -2.659826e-08))
2040.009019   	((-6.256713e-07 5.032503e-07 -1.159336e-07) (3.116176e-08 1.559874e-07 1.450398e-07)) ((3.331502e-09 3.345282e-11 -1.118971e-10) (2.226447e-04 5.238945e-08 -1.710520e-08))
2120.812265   	((-6.229803e-07 1.879854e-07 -1.158949e-07) (3.192768e-08 1.285508e-07 1.724065e-07)) ((3.053422e-09 9.046289e-11 -7.944169e-11) (2.219315e-04 5.501679e-08 -4.900968e-09))
2200.977488   	((-4.383955e-07 6.035083e-08 6.358891e-08) (3.057842e-08 8.810804e-08 1.552562e-07)) ((2.850745e-09 1.210986e-10 -1.046197e-10) (2.208932e-04 5.079387e-08 7.673734e-09))
2280.716736   	((-2.853403e-07 -1.216234e-07 -1.313732e-08) (3.147139e-08 8.258023e-08 1.353433e-07)) ((2.658847e-09 1.426846e-10 -7.866562e-11) (2.197127e-04 4.111070e-08 1.806389e-08))
2360.224416   	((-1.130476e-07 -1.884393e-07 -1.108024e-07) (4.555205e-08 6.447302e-08 1.165389e-07)) ((2.601953e-09 1.234909e-10 -2.855324e-11) (2.184987e-04 2.912158e-08 2.452276e-08))
