# Forces      
# CofR        : (0.000000e+00 0.000000e+00 0.000000e+00)
# Time        forces(pressure viscous)	moments(pressure viscous)
0             	((0.000000e+00 0.000000e+00 0.000000e+00) (0.000000e+00 0.000000e+00 0.000000e+00)) ((0.000000e+00 0.000000e+00 0.000000e+00) (0.000000e+00 0.000000e+00 0.000000e+00))
0.012         	((6.507395e-07 -4.238123e-06 -2.052450e-06) (1.728150e-10 9.731215e-10 -2.588585e-10)) ((4.657335e-05 -7.778611e-10 -1.643146e-07) (2.412972e-03 -1.017729e-10 1.669302e-09))
0.0264        	((2.059643e-06 1.377127e-05 -9.880765e-06) (3.385333e-10 1.365108e-09 -6.975030e-11)) ((2.054880e-05 -1.083650e-09 -1.216885e-07) (2.410685e-03 -1.626232e-10 -3.019917e-10))
0.04368       	((-2.982246e-06 -1.794642e-06 -6.132296e-06) (2.222279e-10 1.050022e-09 4.103583e-11)) ((1.067034e-05 1.919403e-09 -8.995305e-08) (2.407895e-03 -3.880836e-11 -2.787249e-09))
0.064416      	((5.947753e-06 1.037690e-05 -4.110689e-06) (4.885462e-10 1.204032e-09 -5.689016e-11)) ((4.930077e-06 1.468475e-10 -4.063590e-08) (2.404551e-03 2.837686e-10 -3.152938e-09))
0.0892992     	((-1.322488e-07 -2.360509e-06 -8.812571e-07) (1.381693e-09 1.263570e-09 1.679070e-10)) ((3.355919e-06 3.358732e-09 -9.005059e-09) (2.400548e-03 7.746500e-10 -2.735929e-09))
0.119159      	((3.424870e-06 1.691479e-06 1.240022e-06) (2.401651e-09 1.230925e-09 8.865221e-11)) ((2.386379e-06 -1.361318e-11 7.219378e-10) (2.395759e-03 1.208982e-09 -2.171832e-09))
0.154991      	((3.526111e-07 -2.153483e-06 3.669474e-06) (3.081061e-09 1.386637e-09 -2.986805e-10)) ((2.030789e-06 8.387997e-10 1.761745e-09) (2.390036e-03 1.404021e-09 -2.468840e-09))
0.197989      	((2.891147e-07 3.913600e-07 1.675836e-06) (3.334098e-09 1.813596e-09 -9.019740e-10)) ((1.774975e-06 1.178771e-09 -4.305085e-11) (2.383200e-03 1.348303e-09 -3.586525e-09))
0.249587      	((2.175557e-08 -1.243743e-06 2.979311e-06) (3.548923e-09 2.201156e-09 -1.441223e-09)) ((1.587452e-06 7.804527e-10 -5.737573e-10) (2.375041e-03 1.182381e-09 -5.022959e-09))
0.311504      	((6.610986e-08 -6.836286e-07 1.892175e-06) (3.612885e-09 2.384818e-09 -2.086759e-09)) ((1.422386e-06 -7.869583e-10 -9.423347e-10) (2.365314e-03 1.282408e-09 -6.791378e-09))
0.385805      	((-2.865948e-07 -7.556327e-07 9.158944e-07) (3.569151e-09 2.277745e-09 -2.631473e-09)) ((1.256342e-06 -2.616308e-09 -3.608482e-09) (2.353731e-03 1.509022e-09 -8.919716e-09))
0.474966      	((-3.423091e-07 -1.462653e-06 1.198720e-07) (3.389773e-09 1.958836e-09 -3.029014e-09)) ((1.095349e-06 -5.231689e-10 -4.768129e-09) (2.339963e-03 1.398029e-09 -1.148883e-08))
0.581959      	((-6.867410e-07 -1.250899e-06 -3.679515e-07) (3.145916e-09 1.528038e-09 -3.414714e-09)) ((9.346244e-07 1.880990e-09 -4.592298e-09) (2.323630e-03 1.582142e-09 -1.390400e-08))
0.710351      	((-1.648321e-07 -1.080209e-06 -7.896061e-08) (3.179147e-09 9.622132e-10 -3.576156e-09)) ((7.880013e-07 2.054994e-09 -2.928457e-09) (2.304304e-03 2.303474e-09 -1.570909e-08))
0.864421      	((-4.303085e-07 -6.751518e-07 1.319968e-07) (3.443082e-09 6.648834e-12 -3.703433e-09)) ((6.747590e-07 -8.413327e-10 -1.953947e-09) (2.281516e-03 3.373305e-09 -1.691024e-08))
1.049306      	((7.580585e-08 -1.960175e-07 5.548878e-07) (3.894954e-09 -8.879255e-10 -3.855502e-09)) ((5.979351e-07 -1.648461e-09 -1.093365e-09) (2.254759e-03 4.619984e-09 -1.795881e-08))
1.271167      	((3.594860e-08 -4.322422e-07 -3.010361e-08) (4.370937e-09 -1.296790e-09 -3.727010e-09)) ((5.491162e-07 -1.918077e-09 -1.938137e-09) (2.223502e-03 5.907043e-09 -1.941119e-08))
1.5374        	((1.903382e-08 7.043193e-08 2.794959e-07) (4.919895e-09 -1.553687e-09 -3.402444e-09)) ((5.155670e-07 -1.599697e-09 -2.141466e-09) (2.187222e-03 7.248447e-09 -2.115775e-08))
1.85688       	((-1.220277e-08 2.331032e-08 3.733657e-08) (5.658577e-09 -1.782869e-09 -3.195346e-09)) ((4.892391e-07 -1.225187e-09 -2.377216e-09) (2.145454e-03 8.531348e-09 -2.310438e-08))
2.240256      	((-2.926324e-08 1.140166e-07 8.043241e-08) (6.545607e-09 -2.095633e-09 -2.990026e-09)) ((4.676077e-07 -1.071358e-09 -2.414416e-09) (2.097852e-03 9.716288e-09 -2.525607e-08))
2.700307      	((1.750551e-09 -7.851441e-08 -2.241239e-07) (7.787623e-09 -2.549156e-09 -2.837433e-09)) ((4.478938e-07 -8.528153e-10 -2.361299e-09) (2.044288e-03 1.102279e-08 -2.713093e-08))
3.252369      	((1.566652e-07 8.946747e-08 3.437141e-09) (9.197110e-09 -3.194616e-09 -2.583147e-09)) ((4.277478e-07 -6.742531e-10 -1.979808e-09) (1.984953e-03 1.268482e-08 -2.805014e-08))
3.914842      	((2.324648e-08 3.717809e-08 3.308056e-08) (1.032528e-08 -4.240722e-09 -2.067474e-09)) ((4.062976e-07 -3.189273e-10 -1.440891e-09) (1.920451e-03 1.378174e-08 -2.871349e-08))
4.709811      	((6.124814e-08 1.795531e-07 -2.140765e-08) (1.128275e-08 -5.634388e-09 -1.932123e-09)) ((3.836610e-07 -2.557313e-10 -1.137209e-09) (1.851842e-03 1.360395e-08 -2.984344e-08))
5.663773      	((-2.315254e-08 1.153883e-07 -1.673870e-07) (1.181352e-08 -6.139105e-09 -1.077837e-09)) ((3.621987e-07 -2.066494e-11 -9.510243e-10) (1.780564e-03 1.405911e-08 -2.992172e-08))
6.808528      	((-6.120060e-08 1.519043e-07 -1.255728e-07) (1.259765e-08 -4.965587e-09 1.497145e-09)) ((3.419961e-07 -2.462806e-11 -7.873019e-10) (1.708186e-03 1.556410e-08 -2.867068e-08))
8.182233      	((-1.058727e-07 7.852682e-08 -5.397055e-08) (1.294561e-08 -3.998479e-09 2.958147e-09)) ((3.227152e-07 1.459143e-10 -9.120354e-10) (1.636069e-03 1.665508e-08 -2.678614e-08))
9.83068       	((-1.563380e-07 9.608916e-08 -2.660693e-08) (1.284896e-08 -4.742345e-09 3.242108e-09)) ((3.015237e-07 -2.293567e-10 -1.124052e-09) (1.564913e-03 1.650548e-08 -2.461852e-08))
11.808816     	((-1.935002e-07 -9.758703e-08 4.900725e-08) (1.236493e-08 -7.099037e-09 3.291203e-09)) ((2.757270e-07 -1.174253e-10 -1.288167e-09) (1.493509e-03 1.408580e-08 -2.325733e-08))
14.182579     	((-3.162998e-07 -3.203899e-08 6.305967e-08) (1.222063e-08 -7.418443e-09 2.822951e-09)) ((2.463698e-07 1.909892e-10 -9.727447e-10) (1.419272e-03 1.086862e-08 -2.034973e-08))
17.031095     	((-2.166408e-07 8.026789e-08 7.875891e-08) (1.050424e-08 -7.334269e-09 1.335462e-09)) ((2.170108e-07 3.066894e-10 -1.020767e-09) (1.341180e-03 8.318403e-09 -1.295084e-08))
20.449314     	((-3.274844e-07 1.708875e-07 1.134261e-07) (7.376187e-09 -6.809023e-09 -3.065519e-09)) ((1.920539e-07 2.534428e-10 -7.547369e-10) (1.260279e-03 6.974090e-09 -2.725634e-09))
24.551176     	((-2.724277e-07 8.477072e-08 6.439640e-08) (2.986770e-09 8.124081e-10 -7.545168e-09)) ((1.780700e-07 4.063838e-10 -7.438066e-10) (1.178489e-03 7.008531e-09 5.140760e-09))
29.473411     	((-2.800297e-07 2.136589e-08 -8.749422e-09) (-1.581259e-09 8.266935e-09 -1.350597e-08)) ((1.682078e-07 1.494410e-10 -5.105783e-10) (1.097907e-03 5.059097e-09 4.805951e-09))
35.380094     	((-3.186012e-07 2.605882e-07 -5.559544e-08) (-3.313857e-09 1.420121e-08 -1.787512e-08)) ((1.572122e-07 -8.432815e-11 -5.317188e-10) (1.020141e-03 2.949402e-10 2.471819e-09))
42.468112     	((-4.084313e-07 4.433471e-07 3.469839e-09) (-3.120826e-09 1.499044e-08 -1.370232e-08)) ((1.457260e-07 -2.352552e-11 -1.789512e-10) (9.459204e-04 -3.601238e-09 5.435158e-09))
50.973735     	((-3.581887e-07 5.617514e-07 3.535315e-07) (-5.371081e-10 2.791103e-08 3.085887e-09)) ((1.286745e-07 -9.463856e-11 -6.840814e-11) (8.751085e-04 -1.590338e-09 7.932788e-09))
61.180482     	((-2.996344e-07 1.271336e-06 8.909954e-07) (6.074052e-09 3.868596e-08 2.515419e-08)) ((1.080948e-07 2.263031e-10 -2.718148e-10) (8.075279e-04 6.055341e-09 9.053438e-09))
73.428578     	((-3.316685e-07 1.326053e-06 9.242804e-07) (7.526929e-09 4.454366e-08 6.311750e-08)) ((8.593937e-08 5.130077e-10 -4.668427e-10) (7.439903e-04 6.566907e-09 7.192816e-09))
88.126294     	((-2.546907e-07 1.843448e-06 1.099990e-06) (6.823350e-09 1.184225e-07 1.038644e-07)) ((6.430478e-08 6.640691e-10 -3.588665e-10) (6.860210e-04 3.385313e-09 7.628820e-10))
105.763553    	((-1.424337e-07 1.979026e-06 1.039892e-06) (2.151851e-08 1.774824e-07 1.519994e-07)) ((4.659240e-08 7.087440e-10 -1.360996e-10) (6.345817e-04 -5.631673e-10 -2.724975e-09))
126.928263    	((-1.142240e-07 1.537930e-06 1.335575e-06) (2.320282e-08 1.637949e-07 1.291417e-07)) ((3.157112e-08 1.086396e-09 -4.168905e-10) (5.898915e-04 -5.075743e-09 -4.361311e-09))
152.325916    	((-8.596600e-08 1.615023e-06 1.575860e-06) (-2.801547e-08 2.439708e-07 1.181939e-07)) ((2.168783e-08 1.411963e-09 -6.097819e-10) (5.516718e-04 -5.848538e-09 -1.504224e-08))
182.803099    	((1.838755e-07 1.141108e-06 1.893139e-06) (-2.964546e-08 3.318552e-07 2.265408e-07)) ((1.758385e-08 1.285082e-09 -3.357895e-10) (5.193778e-04 -5.373518e-09 -2.904783e-08))
218.443994    	((3.352242e-07 1.054336e-06 1.986515e-06) (-4.021584e-08 3.744365e-07 3.534495e-07)) ((1.508882e-08 1.069627e-09 -1.594504e-10) (4.926956e-04 -4.495047e-09 -3.828189e-08))
259.286807    	((2.919298e-07 9.936926e-07 2.799109e-06) (-4.670970e-08 3.663469e-07 3.978698e-07)) ((1.327139e-08 1.152147e-09 -1.553030e-10) (4.707272e-04 3.262339e-09 -4.723843e-08))
305.38274     	((1.257095e-07 1.424780e-06 2.502732e-06) (-6.776540e-08 4.668760e-07 5.229890e-07)) ((1.190631e-08 1.019503e-09 -1.559694e-10) (4.527293e-04 1.513735e-08 -5.438975e-08))
356.792425    	((-1.260259e-07 1.592656e-06 2.300896e-06) (-1.192460e-07 4.669611e-07 5.194176e-07)) ((1.192313e-08 8.863706e-10 -2.211707e-10) (4.380733e-04 2.252578e-08 -5.521927e-08))
410.698496    	((-2.549506e-07 1.964781e-06 2.076707e-06) (-1.323286e-07 2.866400e-07 3.763299e-07)) ((1.206945e-08 9.392365e-10 -2.392766e-10) (4.267941e-04 3.070001e-08 -5.496789e-08))
465.562956    	((-4.437136e-07 1.560639e-06 1.725793e-06) (-1.083370e-07 2.124675e-07 1.322319e-07)) ((1.230917e-08 7.113048e-10 -9.957635e-11) (4.187298e-04 3.719959e-08 -5.012962e-08))
521.525879    	((-7.478717e-07 1.640105e-06 2.103501e-06) (-9.147677e-08 2.409751e-07 -5.124434e-08)) ((1.260621e-08 6.704684e-10 1.958128e-11) (4.136640e-04 3.575313e-08 -4.330778e-08))
578.432206    	((-9.110782e-07 7.799201e-07 1.997840e-06) (-4.785618e-08 2.473705e-07 -5.070697e-08)) ((1.300808e-08 4.229169e-10 3.178782e-10) (4.114514e-04 4.390059e-08 -3.845762e-08))
636.161972    	((-8.479545e-07 6.390907e-07 2.689108e-06) (1.367655e-09 2.627339e-07 -9.314004e-08)) ((1.350552e-08 2.065172e-10 4.673087e-10) (4.119339e-04 5.569581e-08 -3.036230e-08))
694.551223    	((-6.650694e-07 1.308379e-06 3.124180e-06) (2.459680e-08 2.950462e-07 -8.348985e-08)) ((1.437419e-08 6.083699e-11 4.441506e-10) (4.150003e-04 6.046272e-08 -1.603280e-08))
752.764067    	((-5.288752e-07 1.623293e-06 3.351365e-06) (3.611655e-09 2.649612e-07 -9.618525e-08)) ((1.535920e-08 -2.025325e-10 2.993420e-10) (4.206125e-04 5.708614e-08 -1.543589e-10))
810.583818    	((-6.009803e-07 1.580805e-06 3.135320e-06) (3.612338e-08 2.110215e-07 3.339702e-08)) ((1.628418e-08 -5.878979e-10 -4.021448e-11) (4.285992e-04 5.105278e-08 1.609898e-08))
867.920695    	((-9.325645e-07 2.114142e-06 3.070336e-06) (3.067677e-08 -1.291642e-08 1.781009e-07)) ((1.722175e-08 -8.114202e-10 5.991195e-11) (4.384472e-04 3.996366e-08 8.454621e-09))
924.711666    	((-1.482501e-06 2.105673e-06 1.465866e-06) (-1.868049e-08 -2.070140e-07 2.175781e-07)) ((1.766443e-08 -8.852690e-10 -5.142888e-11) (4.494848e-04 2.293648e-08 -4.770204e-09))
980.927558    	((-2.225811e-06 1.815487e-06 -3.744422e-07) (-1.155681e-07 -3.038691e-07 7.683884e-08)) ((1.767659e-08 -1.077882e-09 -1.448682e-10) (4.604222e-04 4.931815e-09 -2.397297e-08))
1036.518786   	((-2.770219e-06 2.232670e-06 -2.663260e-06) (-1.147433e-07 -1.818831e-07 -2.831864e-08)) ((1.784981e-08 -1.249948e-09 -3.651247e-10) (4.697397e-04 5.392709e-09 -4.506276e-08))
1090.9579     	((-3.126081e-06 1.456790e-06 -2.921037e-06) (-9.377236e-08 -4.317530e-08 -2.870855e-08)) ((1.850860e-08 -1.193124e-09 -6.120344e-10) (4.765426e-04 2.406186e-08 -6.632700e-08))
1144.324116   	((-3.317106e-06 1.612737e-07 -2.506397e-06) (-1.400970e-07 8.920513e-09 -4.724639e-08)) ((1.813502e-08 -7.880553e-10 -6.712935e-10) (4.808422e-04 4.401482e-08 -8.203459e-08))
1196.763423   	((-2.241371e-06 1.435243e-06 -1.687234e-06) (-1.092311e-07 1.240898e-07 -1.445724e-07)) ((1.777197e-08 -4.709824e-10 -5.608736e-10) (4.829352e-04 7.664765e-08 -9.314318e-08))
1248.478252   	((-2.827081e-06 1.135259e-06 -7.900414e-07) (-9.970676e-08 2.607091e-07 1.271847e-07)) ((1.773521e-08 -2.939460e-10 -3.421714e-10) (4.833034e-04 1.149635e-07 -9.393240e-08))
1299.579927   	((-2.442581e-06 3.405407e-07 4.368581e-07) (-6.969315e-08 2.135792e-07 2.454390e-07)) ((1.748468e-08 -1.276203e-10 -1.398555e-10) (4.825271e-04 1.520554e-07 -7.751314e-08))
1350.220152   	((-2.598627e-06 4.488938e-07 -4.396680e-08) (-2.765250e-08 1.972172e-07 2.062432e-07)) ((1.709162e-08 2.429725e-11 -7.872756e-11) (4.809996e-04 1.791483e-07 -4.598137e-08))
1400.536713   	((-2.788598e-06 7.349142e-08 3.655985e-08) (-3.722314e-08 2.354566e-07 3.139222e-07)) ((1.672230e-08 1.956758e-10 -2.010810e-10) (4.789801e-04 1.873887e-07 -1.634630e-09))
1450.603808   	((-2.339201e-06 -2.234972e-07 -3.099745e-07) (-2.724577e-08 2.656477e-07 4.722532e-07)) ((1.632253e-08 1.792811e-10 -1.929927e-10) (4.768265e-04 1.803212e-07 4.260141e-08))
1500.487043   	((-2.359764e-06 -6.558886e-07 -7.588711e-08) (-2.531742e-08 1.635335e-07 4.391023e-07)) ((1.599922e-08 2.136223e-10 -6.741320e-11) (4.747403e-04 1.560308e-07 7.941438e-08))
