# Forces      
# CofR        : (0.000000e+00 0.000000e+00 0.000000e+00)
# Time        forces(pressure viscous)	moments(pressure viscous)
0             	((0.000000e+00 0.000000e+00 0.000000e+00) (-8.913067e-07 -1.157137e+04 -5.275577e-07)) ((0.000000e+00 0.000000e+00 0.000000e+00) (3.071269e-04 -5.563008e-08 -1.753912e-03))
0.00153131    	((2.204187e+03 -9.177553e+06 2.378211e+03) (5.687013e-01 -1.418697e+04 5.689586e-01)) ((2.821879e-01 3.347834e-01 -1.529940e+00) (8.514990e-01 -8.855183e-03 -8.536071e-01))
0.00336888    	((-9.831782e+02 4.393752e+06 -1.006409e+03) (-1.871643e-01 -1.386456e+04 -1.438628e-01)) ((-7.857683e-02 2.703635e-01 4.680724e-01) (4.039974e-01 -2.346608e-02 -4.509276e-01))
0.00557397    	((-3.657942e+02 -9.865099e+05 -3.970427e+02) (6.627331e-01 -1.175400e+04 2.719110e-01)) ((1.885537e-02 2.792481e-01 -7.505833e-02) (4.592018e-01 -3.368068e-02 -5.328340e-01))
0.00819872    	((3.197127e+00 3.932061e+05 -5.977797e+00) (7.108601e-01 -1.124160e+04 4.950752e-01)) ((5.651406e-02 1.729016e-01 -7.748163e-04) (4.798334e-01 -2.828611e-03 -5.119392e-01))
0.0112447     	((-9.268656e+01 -2.623987e+05 -5.710698e+01) (-3.004986e-01 -1.089461e+04 6.878615e-02)) ((4.455410e-02 2.370712e-01 -5.748650e-02) (1.894406e-01 1.711195e-02 -2.269307e-01))
0.0147087     	((-5.949444e+01 4.048355e+04 3.437048e+01) (-6.992138e-01 -1.088049e+04 -4.512400e-02)) ((1.753948e-02 2.042516e-01 -6.454774e-02) (1.358904e-01 1.140398e-02 -2.662604e-01))
0.0185877     	((-2.374083e+02 -1.020499e+05 -3.239589e+00) (-2.008685e+00 -1.086236e+04 -2.807366e-02)) ((2.949942e-02 1.909999e-01 -2.351762e-02) (-9.487276e-02 7.020878e-03 -2.071157e-01))
0.0227076     	((-1.750315e+02 -3.586210e+04 -2.092367e+01) (-1.617867e+00 -1.088652e+04 8.874675e-02)) ((2.488211e-02 2.934529e-01 -7.753826e-02) (-2.046858e-01 9.175067e-04 -1.656270e-01))
0.0268359     	((6.793232e+01 -6.888726e+04 -8.170435e+01) (-7.351335e-01 -1.093141e+04 -1.249591e-01)) ((1.695262e-02 2.587419e-01 -5.040649e-02) (-2.372059e-01 2.743326e-02 -3.757001e-02))
0.0309426     	((-4.734841e+00 -5.367423e+04 -8.219625e+01) (-6.799842e-01 -1.100402e+04 -3.769907e-01)) ((3.467115e-02 2.367514e-01 -2.673975e-02) (-2.226639e-01 4.640670e-02 6.595612e-02))
0.0350182     	((4.296199e+01 -6.306866e+04 -2.829016e+01) (-4.160469e-01 -1.106964e+04 -2.556101e-01)) ((1.331425e-02 2.604671e-01 -5.113902e-02) (-2.404301e-01 4.485670e-02 1.015024e-01))
0.0390658     	((1.001236e+02 -5.999351e+04 3.195682e+01) (-2.686957e-01 -1.111819e+04 -4.206590e-02)) ((2.119998e-02 2.773129e-01 -4.650245e-02) (-2.833496e-01 4.141007e-02 1.136113e-01))
0.0430927     	((1.218170e+02 -6.224826e+04 4.936979e+01) (-2.243836e-01 -1.114195e+04 3.641171e-02)) ((1.473793e-02 2.551719e-01 -3.807433e-02) (-2.802416e-01 5.742813e-02 8.427079e-02))
0.0471057     	((2.261821e+02 -6.177992e+04 9.578663e+01) (-1.772113e-02 -1.114512e+04 3.419567e-02)) ((6.414861e-03 2.885509e-01 -3.582565e-02) (-2.675787e-01 4.891403e-02 -3.810793e-04))
0.0511162     	((2.589673e+02 -6.207481e+04 1.539696e+02) (-2.980642e-02 -1.113825e+04 5.906939e-02)) ((1.275689e-02 2.700195e-01 -4.158162e-02) (-2.037446e-01 5.014566e-02 -5.689138e-02))
0.0551349     	((3.207493e+02 -6.186850e+04 2.108883e+02) (-1.143775e-01 -1.112857e+04 8.439354e-02)) ((2.152453e-02 2.626133e-01 -4.287172e-02) (-1.163705e-01 5.407464e-02 -1.278435e-01))
0.0591614     	((4.043142e+02 -6.195392e+04 2.679169e+02) (-1.306097e-01 -1.111909e+04 2.133640e-02)) ((2.429049e-02 2.641578e-01 -3.821081e-02) (-4.732863e-02 5.577503e-02 -2.306061e-01))
0.0631896     	((5.098391e+02 -6.202065e+04 3.392923e+02) (1.170988e-01 -1.111129e+04 5.222400e-02)) ((3.359924e-02 2.513531e-01 -5.181800e-02) (7.632054e-03 6.652117e-02 -2.875780e-01))
0.0672143     	((6.080580e+02 -6.204007e+04 4.236416e+02) (2.107210e-01 -1.110370e+04 1.658103e-01)) ((3.193350e-02 2.580494e-01 -3.783203e-02) (3.476391e-02 7.122203e-02 -3.186369e-01))
0.0712375     	((6.862361e+02 -6.184072e+04 5.063627e+02) (2.234983e-01 -1.109628e+04 2.517305e-01)) ((3.204432e-02 2.459215e-01 -3.974265e-02) (6.214612e-02 7.549899e-02 -3.570467e-01))
0.0752614     	((8.089823e+02 -6.176841e+04 5.977070e+02) (3.222275e-01 -1.108946e+04 3.244460e-01)) ((3.425866e-02 2.449150e-01 -3.937367e-02) (1.154731e-01 7.840200e-02 -4.328038e-01))
0.0792862     	((9.240644e+02 -6.178202e+04 7.007738e+02) (3.810731e-01 -1.108355e+04 3.986393e-01)) ((3.191722e-02 2.395527e-01 -3.352947e-02) (1.834121e-01 8.178484e-02 -5.284828e-01))
0.0833114     	((1.055274e+03 -6.184053e+04 8.064190e+02) (4.004887e-01 -1.107838e+04 4.362585e-01)) ((3.485431e-02 2.386541e-01 -3.700582e-02) (2.698743e-01 8.494988e-02 -6.379966e-01))
0.0873368     	((1.212950e+03 -6.190099e+04 9.375509e+02) (4.005590e-01 -1.107393e+04 4.506047e-01)) ((3.684422e-02 2.352933e-01 -3.619271e-02) (3.842448e-01 8.741914e-02 -7.909165e-01))
0.0913621     	((1.414143e+03 -6.192707e+04 1.101313e+03) (3.700275e-01 -1.107023e+04 4.328857e-01)) ((4.182618e-02 2.340303e-01 -3.986658e-02) (5.391161e-01 8.845184e-02 -9.865988e-01))
0.0953877     	((1.646177e+03 -6.191167e+04 1.295797e+03) (2.757366e-01 -1.106710e+04 3.685907e-01)) ((4.718034e-02 2.331459e-01 -4.324419e-02) (7.448808e-01 8.916951e-02 -1.242396e+00))
0.0994135     	((1.937332e+03 -6.188846e+04 1.534931e+03) (1.245994e-01 -1.106446e+04 2.480755e-01)) ((5.573784e-02 2.313649e-01 -4.595027e-02) (1.011010e+00 8.942656e-02 -1.568267e+00))
0.103439      	((2.283425e+03 -6.187031e+04 1.820325e+03) (-7.654973e-02 -1.106219e+04 7.548517e-02)) ((6.584554e-02 2.305865e-01 -5.089991e-02) (1.343798e+00 8.961509e-02 -1.971604e+00))
0.107465      	((2.695360e+03 -6.185664e+04 2.164343e+03) (-3.082669e-01 -1.106026e+04 -1.275872e-01)) ((7.649471e-02 2.297513e-01 -5.511162e-02) (1.743566e+00 8.940368e-02 -2.453785e+00))
0.111491      	((3.175406e+03 -6.184378e+04 2.566592e+03) (-5.653021e-01 -1.105861e+04 -3.484672e-01)) ((8.829556e-02 2.283928e-01 -5.874756e-02) (2.210250e+00 8.932256e-02 -3.012200e+00))
0.115517      	((3.733581e+03 -6.182318e+04 3.037174e+03) (-8.197458e-01 -1.105723e+04 -5.704230e-01)) ((1.003611e-01 2.275235e-01 -6.069128e-02) (2.742867e+00 8.985414e-02 -3.649054e+00))
0.119543      	((4.375625e+03 -6.179446e+04 3.578716e+03) (-1.070080e+00 -1.105604e+04 -7.890459e-01)) ((1.143180e-01 2.262389e-01 -6.266718e-02) (3.346551e+00 9.043303e-02 -4.369452e+00))
0.123569      	((5.098674e+03 -6.176416e+04 4.191976e+03) (-1.314619e+00 -1.105502e+04 -1.004828e+00)) ((1.298171e-01 2.249317e-01 -6.410405e-02) (4.027944e+00 9.100213e-02 -5.177218e+00))
0.127594      	((5.910650e+03 -6.174383e+04 4.879589e+03) (-1.545657e+00 -1.105412e+04 -1.212267e+00)) ((1.463695e-01 2.233232e-01 -6.444441e-02) (4.790285e+00 9.123023e-02 -6.076106e+00))
0.13162       	((6.813262e+03 -6.174421e+04 5.644722e+03) (-1.761810e+00 -1.105335e+04 -1.408501e+00)) ((1.651083e-01 2.218581e-01 -6.511741e-02) (5.637296e+00 9.082156e-02 -7.072375e+00))
0.135645      	((7.814916e+03 -6.175657e+04 6.496987e+03) (-1.964397e+00 -1.105270e+04 -1.594079e+00)) ((1.855095e-01 2.195926e-01 -6.437818e-02) (6.572400e+00 8.994374e-02 -8.172977e+00))
0.13967       	((8.930765e+03 -6.179054e+04 7.447592e+03) (-2.161977e+00 -1.105216e+04 -1.781128e+00)) ((2.100333e-01 2.164296e-01 -6.402994e-02) (7.607379e+00 8.860381e-02 -9.391901e+00))
0.143694      	((1.017128e+04 -6.183514e+04 8.507783e+03) (-2.374139e+00 -1.105172e+04 -1.980960e+00)) ((2.368088e-01 2.128238e-01 -6.399790e-02) (8.762967e+00 8.717440e-02 -1.074950e+01))
0.147718      	((1.155659e+04 -6.189328e+04 9.691349e+03) (-2.617501e+00 -1.105138e+04 -2.209801e+00)) ((2.660627e-01 2.084018e-01 -6.585276e-02) (1.006075e+01 8.623746e-02 -1.226962e+01))
0.151742      	((1.310626e+04 -6.196041e+04 1.101280e+04) (-2.903163e+00 -1.105114e+04 -2.477882e+00)) ((2.979044e-01 2.022459e-01 -6.783798e-02) (1.151868e+01 8.602624e-02 -1.397451e+01))
0.155765      	((1.483864e+04 -6.203904e+04 1.249883e+04) (-3.242414e+00 -1.105101e+04 -2.787630e+00)) ((3.341465e-01 1.946453e-01 -6.929399e-02) (1.315797e+01 8.602194e-02 -1.588743e+01))
0.159787      	((1.677703e+04 -6.216004e+04 1.416563e+04) (-3.630654e+00 -1.105099e+04 -3.154030e+00)) ((3.745351e-01 1.868125e-01 -7.123444e-02) (1.500678e+01 8.457250e-02 -1.803201e+01))
0.163809      	((1.895587e+04 -6.231748e+04 1.604177e+04) (-4.065396e+00 -1.105111e+04 -3.583641e+00)) ((4.220207e-01 1.784614e-01 -7.642357e-02) (1.709392e+01 8.270208e-02 -2.043777e+01))
0.16783       	((2.139301e+04 -6.253790e+04 1.813543e+04) (-4.541100e+00 -1.105141e+04 -4.055151e+00)) ((4.746729e-01 1.689063e-01 -8.405152e-02) (1.943668e+01 8.310402e-02 -2.313511e+01))
0.17185       	((2.410012e+04 -6.281371e+04 2.046951e+04) (-5.032534e+00 -1.105191e+04 -4.557934e+00)) ((5.325507e-01 1.586069e-01 -9.203551e-02) (2.204992e+01 8.658758e-02 -2.614458e+01))
0.175869      	((2.708933e+04 -6.316624e+04 2.305985e+04) (-5.513628e+00 -1.105268e+04 -5.076917e+00)) ((5.962199e-01 1.457262e-01 -9.615406e-02) (2.494081e+01 9.181941e-02 -2.946918e+01))
0.179887      	((3.038409e+04 -6.357900e+04 2.592006e+04) (-5.956698e+00 -1.105375e+04 -5.582910e+00)) ((6.602491e-01 1.293043e-01 -9.015808e-02) (2.812344e+01 9.635347e-02 -3.310780e+01))
0.183904      	((3.400135e+04 -6.408133e+04 2.906447e+04) (-6.335183e+00 -1.105520e+04 -6.030445e+00)) ((7.242641e-01 1.130714e-01 -7.715209e-02) (3.160100e+01 1.029499e-01 -3.706902e+01))
0.18792       	((3.795802e+04 -6.470336e+04 3.250124e+04) (-6.566552e+00 -1.105708e+04 -6.350189e+00)) ((7.866542e-01 9.691473e-02 -6.254759e-02) (3.534843e+01 1.144008e-01 -4.135427e+01))
0.191934      	((4.225266e+04 -6.549701e+04 3.621922e+04) (-6.590760e+00 -1.105944e+04 -6.478701e+00)) ((8.501886e-01 7.699380e-02 -3.988999e-02) (3.933853e+01 1.268590e-01 -4.594308e+01))
0.195946      	((4.684531e+04 -6.651041e+04 4.018947e+04) (-6.365251e+00 -1.106237e+04 -6.314179e+00)) ((9.154964e-01 5.743978e-02 -1.092263e-02) (4.353257e+01 1.411135e-01 -5.078132e+01))
0.199957      	((5.158464e+04 -6.766678e+04 4.429627e+04) (-5.786412e+00 -1.106593e+04 -5.770931e+00)) ((9.723322e-01 4.104144e-02 2.623815e-02) (4.786050e+01 1.605487e-01 -5.578728e+01))
0.203966      	((5.639429e+04 -6.898943e+04 4.842972e+04) (-4.811417e+00 -1.107005e+04 -4.803535e+00)) ((1.009698e+00 1.726071e-02 8.021446e-02) (5.224389e+01 1.849063e-01 -6.089911e+01))
0.207974      	((6.105466e+04 -7.061478e+04 5.238920e+04) (-3.550503e+00 -1.107469e+04 -3.421219e+00)) ((1.018145e+00 -3.072026e-03 1.625302e-01) (5.659215e+01 2.170797e-01 -6.608938e+01))
0.211979      	((6.543919e+04 -7.251626e+04 5.606729e+04) (-2.108899e+00 -1.107988e+04 -1.755376e+00)) ((9.823743e-01 -1.716256e-02 2.632754e-01) (6.082771e+01 2.589233e-01 -7.128704e+01))
0.215982      	((6.939189e+04 -7.461490e+04 5.925133e+04) (-5.716411e-01 -1.108562e+04 -5.983400e-02)) ((8.988293e-01 -1.571212e-02 3.874754e-01) (6.490038e+01 3.040816e-01 -7.637666e+01))
0.219983      	((7.249862e+04 -7.671694e+04 6.175125e+04) (9.275357e-01 -1.109190e+04 1.520256e+00)) ((7.664037e-01 -3.851198e-03 5.458212e-01) (6.871151e+01 3.516777e-01 -8.119769e+01))
0.223982      	((7.458156e+04 -7.879622e+04 6.333659e+04) (2.304201e+00 -1.109871e+04 2.935154e+00)) ((6.030840e-01 1.113932e-02 7.235873e-01) (7.209667e+01 3.974424e-01 -8.552944e+01))
0.22798       	((7.542437e+04 -8.057742e+04 6.381987e+04) (3.399961e+00 -1.110595e+04 4.103011e+00)) ((4.583012e-01 2.863933e-02 8.621667e-01) (7.485177e+01 4.299039e-01 -8.915395e+01))
0.231976      	((7.512057e+04 -8.194887e+04 6.329953e+04) (4.066819e+00 -1.111333e+04 4.946695e+00)) ((3.565543e-01 4.775589e-02 9.490262e-01) (7.679845e+01 4.572885e-01 -9.190527e+01))
0.23597       	((7.391845e+04 -8.288297e+04 6.203147e+04) (4.284802e+00 -1.112033e+04 5.404752e+00)) ((3.137862e-01 5.271857e-02 9.645539e-01) (7.790871e+01 4.804578e-01 -9.371480e+01))
0.239964      	((7.220944e+04 -8.341551e+04 6.032683e+04) (3.966446e+00 -1.112653e+04 5.409757e+00)) ((3.488089e-01 4.590571e-02 9.048673e-01) (7.828801e+01 4.990249e-01 -9.468422e+01))
0.243957      	((7.031100e+04 -8.362948e+04 5.852199e+04) (3.107066e+00 -1.113172e+04 4.913554e+00)) ((4.389993e-01 2.839757e-02 8.022924e-01) (7.814286e+01 5.073480e-01 -9.499511e+01))
0.24795       	((6.857851e+04 -8.360187e+04 5.685088e+04) (1.963199e+00 -1.113590e+04 4.047632e+00)) ((5.657786e-01 -1.568707e-02 7.033522e-01) (7.764334e+01 5.026394e-01 -9.479236e+01))
0.251943      	((6.721471e+04 -8.335601e+04 5.553026e+04) (7.763909e-01 -1.113924e+04 3.024727e+00)) ((6.711441e-01 -9.925222e-02 6.785570e-01) (7.693884e+01 4.817528e-01 -9.424528e+01))
0.255936      	((6.628767e+04 -8.293725e+04 5.459434e+04) (-9.661331e-02 -1.114192e+04 2.148012e+00)) ((6.881915e-01 -1.883118e-01 7.269254e-01) (7.610879e+01 4.423337e-01 -9.344674e+01))
0.259929      	((6.571546e+04 -8.234806e+04 5.394804e+04) (-4.013326e-01 -1.114423e+04 1.737457e+00)) ((6.846615e-01 -2.622886e-01 7.397102e-01) (7.512980e+01 4.055700e-01 -9.244388e+01))
0.263923      	((6.531076e+04 -8.178869e+04 5.347006e+04) (-4.434444e-02 -1.114646e+04 1.891476e+00)) ((6.937322e-01 -3.154975e-01 7.031541e-01) (7.401647e+01 3.743900e-01 -9.125082e+01))
0.267917      	((6.486541e+04 -8.131884e+04 5.293542e+04) (7.386436e-01 -1.114871e+04 2.456802e+00)) ((7.088548e-01 -3.502984e-01 6.433007e-01) (7.281608e+01 3.439571e-01 -8.997050e+01))
0.271912      	((6.420568e+04 -8.111586e+04 5.226168e+04) (1.531129e+00 -1.115097e+04 3.063074e+00)) ((7.150370e-01 -3.712478e-01 5.959011e-01) (7.163964e+01 2.999991e-01 -8.873766e+01))
0.275906      	((6.328669e+04 -8.095222e+04 5.133315e+04) (1.979771e+00 -1.115313e+04 3.376926e+00)) ((6.868049e-01 -3.829812e-01 5.727308e-01) (7.057488e+01 2.377971e-01 -8.762080e+01))
0.279902      	((6.221049e+04 -8.085868e+04 5.023696e+04) (1.880734e+00 -1.115496e+04 3.179359e+00)) ((6.388007e-01 -3.881086e-01 5.639266e-01) (6.967189e+01 1.661533e-01 -8.666564e+01))
0.283897      	((6.114252e+04 -8.083338e+04 4.916731e+04) (1.222631e+00 -1.115636e+04 2.454276e+00)) ((5.916241e-01 -3.973435e-01 5.677347e-01) (6.894188e+01 9.087037e-02 -8.589168e+01))
0.287893      	((6.021477e+04 -8.075604e+04 4.823814e+04) (1.110382e-01 -1.115726e+04 1.356363e+00)) ((5.667919e-01 -4.154136e-01 5.703525e-01) (6.837404e+01 3.075218e-02 -8.530806e+01))
0.29189       	((5.954405e+04 -8.065535e+04 4.754816e+04) (-1.232122e+00 -1.115763e+04 9.145672e-02)) ((5.664406e-01 -4.405101e-01 5.654944e-01) (6.795854e+01 1.604175e-03 -8.490246e+01))
0.295887      	((5.917098e+04 -8.053658e+04 4.710997e+04) (-2.458863e+00 -1.115755e+04 -1.024441e+00)) ((5.863358e-01 -4.703231e-01 5.531524e-01) (6.761510e+01 7.742749e-03 -8.459581e+01))
0.299884      	((5.909114e+04 -8.048111e+04 4.694001e+04) (-3.316126e+00 -1.115713e+04 -1.781950e+00)) ((6.061611e-01 -4.983420e-01 5.363888e-01) (6.729923e+01 3.246771e-02 -8.433780e+01))
0.303882      	((5.919090e+04 -8.049139e+04 4.688961e+04) (-3.677537e+00 -1.115646e+04 -2.046516e+00)) ((6.298926e-01 -5.321634e-01 5.234615e-01) (6.695850e+01 6.647999e-02 -8.409561e+01))
0.30788       	((5.931268e+04 -8.062972e+04 4.683165e+04) (-3.683779e+00 -1.115558e+04 -1.928261e+00)) ((6.390288e-01 -5.620055e-01 5.147547e-01) (6.659825e+01 1.018700e-01 -8.390375e+01))
0.311879      	((5.932481e+04 -8.093876e+04 4.667859e+04) (-3.535915e+00 -1.115452e+04 -1.613449e+00)) ((6.293487e-01 -5.852483e-01 5.137106e-01) (6.624064e+01 1.282224e-01 -8.377687e+01))
0.315878      	((5.915429e+04 -8.130399e+04 4.632143e+04) (-3.396727e+00 -1.115329e+04 -1.266345e+00)) ((5.997648e-01 -5.977075e-01 5.176868e-01) (6.588132e+01 1.403256e-01 -8.369610e+01))
0.319878      	((5.876884e+04 -8.158853e+04 4.575016e+04) (-3.365476e+00 -1.115188e+04 -1.013453e+00)) ((5.635536e-01 -6.010732e-01 5.178668e-01) (6.549595e+01 1.365210e-01 -8.361947e+01))
0.323877      	((5.818609e+04 -8.181321e+04 4.497835e+04) (-3.529386e+00 -1.115021e+04 -9.373505e-01)) ((5.254387e-01 -5.976490e-01 5.240743e-01) (6.506179e+01 1.197520e-01 -8.352382e+01))
0.327877      	((5.748636e+04 -8.197808e+04 4.408446e+04) (-3.944004e+00 -1.114822e+04 -1.067013e+00)) ((4.886868e-01 -5.919002e-01 5.255312e-01) (6.456519e+01 9.429211e-02 -8.340543e+01))
0.331877      	((5.680505e+04 -8.207456e+04 4.316080e+04) (-4.577749e+00 -1.114590e+04 -1.374990e+00)) ((4.670408e-01 -5.909917e-01 5.209708e-01) (6.400981e+01 6.574336e-02 -8.327157e+01))
0.335878      	((5.618472e+04 -8.209526e+04 4.228279e+04) (-5.340983e+00 -1.114321e+04 -1.811512e+00)) ((4.608173e-01 -5.964403e-01 5.131883e-01) (6.341644e+01 3.530572e-02 -8.312564e+01))
0.339879      	((5.571644e+04 -8.211240e+04 4.149051e+04) (-6.090182e+00 -1.114017e+04 -2.270041e+00)) ((4.634091e-01 -6.066224e-01 5.087588e-01) (6.278865e+01 1.513999e-03 -8.296027e+01))
0.34388       	((5.538360e+04 -8.212241e+04 4.079991e+04) (-6.692453e+00 -1.113687e+04 -2.654950e+00)) ((4.739992e-01 -6.194210e-01 5.110766e-01) (6.212950e+01 -3.522207e-02 -8.276805e+01))
0.347882      	((5.515022e+04 -8.214712e+04 4.019809e+04) (-7.070332e+00 -1.113341e+04 -2.914764e+00)) ((4.861949e-01 -6.317013e-01 5.234863e-01) (6.144463e+01 -7.335852e-02 -8.254180e+01))
0.351885      	((5.492624e+04 -8.218104e+04 3.963147e+04) (-7.206264e+00 -1.112991e+04 -3.032278e+00)) ((4.900446e-01 -6.445031e-01 5.454254e-01) (6.073095e+01 -1.148650e-01 -8.226267e+01))
0.355887      	((5.466480e+04 -8.225462e+04 3.906129e+04) (-7.124065e+00 -1.112650e+04 -2.993042e+00)) ((4.847050e-01 -6.597162e-01 5.825722e-01) (5.996617e+01 -1.599086e-01 -8.190582e+01))
0.359891      	((5.431983e+04 -8.232191e+04 3.843167e+04) (-6.867244e+00 -1.112327e+04 -2.812198e+00)) ((4.624891e-01 -6.791190e-01 6.285680e-01) (5.912983e+01 -2.047702e-01 -8.145505e+01))
