# Forces      
# CofR        : (0.000000e+00 0.000000e+00 0.000000e+00)
# Time        forces(pressure viscous)	moments(pressure viscous)
0             	((0.000000e+00 0.000000e+00 0.000000e+00) (0.000000e+00 0.000000e+00 0.000000e+00)) ((0.000000e+00 0.000000e+00 0.000000e+00) (0.000000e+00 0.000000e+00 0.000000e+00))
0.012         	((7.935786e-05 1.544624e-03 1.903733e-07) (9.093079e-09 3.583181e-07 2.398983e-09)) ((-3.277127e-06 -1.969398e-09 9.445045e-04) (8.151993e-08 -1.947735e-08 9.389396e-02))
0.0264        	((2.648291e-04 -1.262728e-03 5.031143e-07) (3.556219e-08 4.759789e-07 -2.578781e-08)) ((-1.563823e-06 1.904417e-08 4.512493e-04) (9.207390e-08 -2.675578e-08 9.368442e-02))
0.04368       	((2.101713e-04 9.209838e-04 8.664207e-05) (3.027054e-08 4.758558e-07 -4.776193e-08)) ((-1.982522e-06 2.049981e-07 2.858580e-04) (1.476405e-07 -4.284428e-08 9.335967e-02))
0.064416      	((2.081308e-04 -4.606439e-04 -7.617717e-05) (2.808438e-08 4.586245e-07 -4.493535e-08)) ((-1.432372e-06 9.912808e-08 1.887800e-04) (2.170102e-07 -9.344351e-08 9.297416e-02))
0.0892992     	((1.241002e-04 2.951509e-04 4.744340e-05) (-2.808060e-09 3.565203e-07 -2.883150e-08)) ((-1.431004e-06 2.641072e-07 1.670934e-04) (2.475147e-07 -1.179826e-07 9.251651e-02))
0.119159      	((8.261712e-05 8.436718e-05 1.097070e-05) (-7.382524e-08 2.064938e-07 -1.438567e-08)) ((-1.263794e-06 -1.091665e-08 1.510589e-04) (2.582906e-07 -1.248259e-07 9.197438e-02))
0.154991      	((2.880155e-06 -1.247060e-05 -4.056086e-05) (-1.301643e-07 5.118352e-08 -2.024793e-08)) ((-1.239303e-06 -1.340033e-07 1.440481e-04) (1.989696e-07 -1.529550e-07 9.133383e-02))
0.197989      	((3.794265e-05 8.965816e-05 -3.259239e-08) (-1.678481e-07 -1.067066e-07 -4.654105e-08)) ((-1.189071e-06 -1.721374e-07 1.373507e-04) (3.753443e-08 -2.267822e-07 9.058004e-02))
0.249587      	((2.529827e-05 3.134705e-05 3.769317e-05) (-1.813213e-07 -2.606729e-07 -1.017837e-07)) ((-1.127167e-06 -4.753261e-08 1.312683e-04) (-2.006207e-07 -3.271210e-07 8.969812e-02))
0.311504      	((6.376806e-06 4.941851e-05 -7.847126e-06) (-1.865345e-07 -3.850308e-07 -1.832522e-07)) ((-1.019970e-06 4.496001e-08 1.253173e-04) (-4.278582e-07 -3.967183e-07 8.867427e-02))
0.385805      	((-2.639553e-05 3.319308e-05 1.352707e-05) (-2.193440e-07 -4.457454e-07 -2.743419e-07)) ((-8.826015e-07 1.572942e-07 1.199097e-04) (-5.967537e-07 -4.851509e-07 8.749800e-02))
0.474966      	((-5.038038e-05 1.153438e-06 -2.008609e-05) (-2.878824e-07 -4.572132e-07 -3.878517e-07)) ((-7.318674e-07 2.145722e-07 1.147128e-04) (-7.100349e-07 -7.428897e-07 8.616501e-02))
0.581959      	((-4.925761e-05 6.537137e-06 7.137262e-06) (-3.741307e-07 -4.341545e-07 -4.894348e-07)) ((-6.337758e-07 2.561220e-07 1.094376e-04) (-7.308816e-07 -1.187463e-06 8.468073e-02))
0.710351      	((-5.926875e-05 -1.419088e-05 -1.521495e-05) (-4.556333e-07 -3.718517e-07 -5.509881e-07)) ((-5.916759e-07 2.219909e-07 1.042123e-04) (-6.492191e-07 -1.715466e-06 8.306370e-02))
0.864421      	((1.336525e-05 1.922335e-06 -6.507899e-06) (-4.982140e-07 -2.722709e-07 -5.782955e-07)) ((-5.599907e-07 1.380907e-07 9.893390e-05) (-4.812052e-07 -2.175515e-06 8.134739e-02))
1.049306      	((1.560039e-06 -5.678278e-06 -9.398689e-06) (-4.565180e-07 -1.672387e-07 -5.677914e-07)) ((-5.296429e-07 1.029435e-07 9.347496e-05) (-2.751131e-07 -2.446634e-06 7.957610e-02))
1.271167      	((5.250948e-05 1.488319e-05 -4.350409e-06) (-3.467335e-07 -3.531309e-08 -5.310518e-07)) ((-4.960237e-07 9.395265e-08 8.796014e-05) (-9.888618e-08 -2.543804e-06 7.779402e-02))
1.5374        	((1.445347e-05 -3.932014e-07 -5.921669e-06) (-2.491122e-07 8.756541e-08 -5.290549e-07)) ((-4.615982e-07 9.418074e-08 8.302328e-05) (-1.523964e-08 -2.456139e-06 7.602993e-02))
1.85688       	((5.855545e-05 1.706586e-05 -3.519004e-06) (-1.244852e-07 1.858038e-07 -6.016917e-07)) ((-4.221655e-07 7.819807e-08 7.836293e-05) (-3.321873e-08 -2.239350e-06 7.428196e-02))
2.240256      	((6.576738e-05 8.619685e-06 4.301186e-06) (-8.032864e-08 3.079099e-07 -6.873352e-07)) ((-3.971898e-07 5.069244e-08 7.352010e-05) (-1.209991e-07 -2.007621e-06 7.246011e-02))
2.700307      	((6.602586e-05 -5.195384e-07 -3.092172e-06) (-1.718054e-07 3.572853e-07 -7.793742e-07)) ((-3.702682e-07 3.112353e-08 6.874050e-05) (-2.620801e-07 -1.646050e-06 7.046655e-02))
3.252369      	((2.387022e-05 -1.233798e-05 -4.244285e-06) (-2.250568e-07 2.981820e-07 -8.876053e-07)) ((-3.338992e-07 -5.627602e-09 6.450156e-05) (-2.268825e-07 -9.389792e-07 6.829578e-02))
3.914842      	((-3.407433e-06 -9.758904e-06 1.891313e-07) (-3.152992e-07 9.423748e-08 -1.004018e-06)) ((-2.636866e-07 1.064989e-08 6.159642e-05) (1.023695e-07 -2.332886e-07 6.600219e-02))
4.709811      	((-2.272957e-05 -1.700505e-05 9.748821e-06) (-3.050085e-07 -1.871002e-07 -1.046998e-06)) ((-2.179666e-07 6.571696e-09 5.995877e-05) (5.824738e-07 3.578718e-07 6.365682e-02))
5.663773      	((-2.930901e-05 -2.215681e-05 8.290804e-06) (-2.073912e-07 -7.018887e-07 -9.122872e-07)) ((-2.269418e-07 1.573280e-08 5.805828e-05) (1.025419e-06 1.032572e-06 6.132874e-02))
6.808528      	((2.972314e-05 -1.067616e-05 1.175696e-05) (5.245163e-08 -2.059495e-06 -6.753453e-07)) ((-1.936437e-07 2.615728e-08 5.548709e-05) (1.265116e-06 1.426813e-06 5.907485e-02))
8.182233      	((4.465091e-05 4.567895e-05 -1.176302e-05) (1.045515e-06 -3.913972e-06 -4.693758e-07)) ((-1.893908e-07 -2.084063e-08 5.196791e-05) (1.666629e-06 1.441931e-06 5.690578e-02))
9.798571      	((1.098072e-04 1.165275e-04 -2.944301e-05) (1.690490e-06 -4.726924e-06 -4.249962e-07)) ((-2.005866e-07 -2.886980e-08 4.846115e-05) (2.259447e-06 1.130145e-06 5.482349e-02))
11.658628     	((1.614904e-04 1.241430e-04 -1.995544e-05) (3.177951e-06 -4.369290e-06 -1.796879e-07)) ((-1.476768e-07 -2.148595e-08 4.526118e-05) (2.453314e-06 1.176300e-06 5.283928e-02))
13.763634     	((1.975623e-04 1.383278e-04 -3.922023e-05) (3.927534e-06 -3.763678e-06 -1.600476e-07)) ((-1.409511e-07 7.666353e-10 4.191997e-05) (2.280877e-06 2.091413e-06 5.099360e-02))
16.11541      	((1.588743e-04 2.089710e-04 -2.050841e-05) (5.932836e-07 -1.580842e-06 -1.270762e-06)) ((-1.542515e-07 -2.185145e-08 3.876094e-05) (1.980254e-06 2.970731e-06 4.934268e-02))
18.609725     	((1.817750e-04 2.224491e-04 1.656715e-05) (1.271153e-06 -5.942422e-08 -7.694167e-07)) ((-1.241953e-07 -3.051457e-08 3.600456e-05) (1.194175e-06 2.629779e-06 4.797202e-02))
21.125756     	((2.465341e-04 3.013628e-04 3.201079e-05) (2.357619e-06 -1.761504e-06 -9.904331e-07)) ((-1.252853e-07 -3.119169e-08 3.373161e-05) (9.536310e-07 2.556400e-06 4.688938e-02))
23.661148     	((2.642060e-04 1.924262e-04 1.599402e-05) (4.972358e-06 -2.018843e-06 -1.813419e-06)) ((-7.501379e-08 -1.389828e-09 3.195939e-05) (6.862804e-07 2.264043e-06 4.603902e-02))
26.219607     	((4.104554e-04 3.165534e-04 4.127443e-05) (8.530947e-06 2.526392e-06 -1.315955e-06)) ((-8.812392e-08 4.461698e-08 3.058290e-05) (8.403096e-08 8.125519e-07 4.538442e-02))
28.786152     	((4.185072e-04 3.507938e-04 6.339338e-05) (7.896169e-06 6.828917e-06 -7.592663e-08)) ((-3.152007e-08 -4.999755e-08 2.965916e-05) (-6.708170e-07 -7.291186e-07 4.488459e-02))
31.356429     	((2.623958e-04 2.225019e-04 6.827983e-05) (2.888868e-06 4.837953e-06 3.053434e-07)) ((2.136253e-09 -6.911137e-08 2.918443e-05) (-6.961652e-07 -1.231841e-06 4.450306e-02))
33.929854     	((1.185331e-04 8.934322e-05 2.732365e-05) (-6.450662e-06 -2.591467e-06 8.320109e-07)) ((-6.842616e-08 -4.787360e-08 2.908900e-05) (-1.059097e-07 -1.034507e-06 4.422529e-02))
36.507129     	((1.380472e-04 1.554959e-04 2.371975e-05) (-7.319015e-06 -8.200351e-06 1.370940e-06)) ((-8.579241e-08 -3.453794e-08 2.902169e-05) (-1.054561e-07 -1.217950e-06 4.403891e-02))
39.089185     	((2.462832e-04 3.111094e-04 2.792901e-06) (2.944862e-07 -1.138266e-05 2.617853e-08)) ((-8.995523e-08 -1.014848e-08 2.872676e-05) (4.029508e-09 -1.327969e-06 4.392611e-02))
41.676874     	((4.949038e-04 4.328948e-04 3.085110e-05) (8.205485e-06 -5.226114e-06 2.086118e-07)) ((-8.481866e-08 -2.498892e-10 2.825190e-05) (3.186664e-07 -1.586036e-06 4.388382e-02))
44.270681     	((4.935516e-04 4.474720e-04 8.235935e-05) (1.272547e-05 -1.193602e-06 5.013908e-07)) ((-9.299529e-08 3.820960e-08 2.778957e-05) (7.078454e-07 -2.030474e-06 4.391640e-02))
46.871256     	((4.488058e-04 4.688403e-04 8.740990e-05) (8.570963e-06 -3.914068e-06 8.567135e-07)) ((-1.028816e-07 1.278418e-09 2.733868e-05) (1.088222e-06 -1.698553e-06 4.402403e-02))
49.479137     	((3.486582e-04 4.544684e-04 8.062951e-05) (4.938926e-06 -3.153928e-06 3.556841e-07)) ((-1.294239e-07 8.571224e-09 2.714297e-05) (1.545543e-06 -1.560069e-06 4.420270e-02))
52.09456      	((3.726476e-04 6.512501e-04 2.095769e-07) (2.276590e-06 -8.503906e-07 -9.833974e-08)) ((-1.655780e-07 5.917511e-08 2.721094e-05) (2.128451e-06 -1.942321e-06 4.444992e-02))
54.717608     	((3.274746e-04 6.103913e-04 -7.654853e-05) (-5.020510e-06 -2.079855e-06 -1.795150e-07)) ((-2.277729e-07 3.127363e-08 2.743999e-05) (2.861177e-06 -1.759629e-06 4.475980e-02))
57.347579     	((3.487044e-04 6.601270e-04 -1.530322e-04) (-1.118595e-05 -8.858507e-06 -3.459445e-07)) ((-2.389043e-07 5.308844e-09 2.768633e-05) (3.573041e-06 -1.079946e-06 4.512341e-02))
59.982882     	((2.942408e-04 7.337975e-04 -1.595358e-04) (-1.770276e-05 -1.023831e-05 1.079530e-07)) ((-2.140443e-07 -2.022934e-08 2.792154e-05) (3.834384e-06 -2.161144e-07 4.552138e-02))
62.621996     	((2.747942e-04 7.809138e-04 -1.922338e-04) (-2.290404e-05 -1.066244e-05 -2.272167e-08)) ((-1.965899e-07 -6.842921e-08 2.833746e-05) (3.618485e-06 7.685328e-07 4.592625e-02))
65.263349     	((4.538766e-04 5.804941e-04 -2.072500e-04) (-2.340552e-05 -1.496202e-05 -3.334673e-07)) ((-1.677476e-07 -9.517064e-08 2.886187e-05) (2.715692e-06 1.686443e-06 4.631413e-02))
67.904592     	((2.063240e-04 5.073739e-04 -1.626066e-04) (-2.653860e-05 -1.406728e-05 -9.816444e-07)) ((-1.731749e-07 -2.281852e-08 2.933242e-05) (1.257528e-06 2.157848e-06 4.666445e-02))
70.541986     	((1.283183e-04 2.915522e-04 -1.620472e-04) (-2.801125e-05 -1.358421e-05 -1.950653e-06)) ((-1.937653e-07 -3.025676e-08 2.974780e-05) (-6.548184e-07 1.700658e-06 4.695973e-02))
73.169908     	((1.551043e-04 -6.412499e-06 -2.687834e-04) (-2.309052e-05 -1.840116e-05 -2.189423e-06)) ((-1.899993e-07 -3.757624e-08 3.009120e-05) (-2.432824e-06 7.628784e-07 4.720030e-02))
75.786281     	((6.565379e-05 -1.002768e-04 -4.287386e-04) (-1.274748e-05 -2.056589e-05 -1.333799e-06)) ((-1.327238e-07 -1.918027e-08 3.042024e-05) (-3.041788e-06 -3.170015e-07 4.739358e-02))
