# Forces      
# CofR        : (0.000000e+00 0.000000e+00 0.000000e+00)
# Time        forces(pressure viscous)	moments(pressure viscous)
0             	((0.000000e+00 0.000000e+00 0.000000e+00) (-1.591009e-10 -1.595357e+00 -9.864089e-11)) ((0.000000e+00 0.000000e+00 0.000000e+00) (4.807648e-08 -7.623994e-12 -2.130972e-07))
0.012         	((8.168610e-01 -4.707911e+04 9.430193e-01) (-1.640955e-05 -3.047833e+00 -1.547643e-05)) ((1.253407e-03 3.147164e-04 -7.816579e-03) (-1.528112e-06 -2.469578e-07 9.217281e-07))
0.0264        	((9.602468e-01 1.391175e+04 6.581019e-01) (3.040653e-05 -5.896614e+00 2.921444e-05)) ((-3.259263e-04 2.626204e-04 1.967356e-03) (-2.107615e-05 -2.285701e-06 1.556036e-05))
0.04368       	((-1.000529e+00 2.789965e+03 -2.528101e-01) (1.113618e-04 -1.329596e+01 8.658687e-05)) ((-2.867644e-04 1.545490e-04 1.007613e-03) (3.311501e-04 -1.467861e-05 -3.172096e-04))
0.064416      	((3.710941e-01 2.596900e+02 8.508110e-02) (-1.233735e-05 -3.340694e+01 5.295356e-04)) ((3.266492e-05 2.428257e-04 -1.258153e-04) (-3.651640e-05 -5.696812e-05 1.689905e-05))
0.0892992     	((-6.581762e-01 -5.354507e+01 -8.636620e-01) (2.232635e-04 -3.894229e+01 1.075593e-04)) ((3.826141e-05 3.422551e-04 -3.965814e-04) (7.767863e-04 -7.224208e-05 -6.328047e-04))
0.119159      	((2.859809e-01 -5.390721e+01 2.964721e-01) (7.386176e-04 -3.670787e+01 6.135251e-04)) ((1.176248e-04 4.344365e-04 -8.048558e-05) (5.288227e-04 -2.563847e-05 -4.706863e-04))
0.154991      	((-1.799041e-01 -8.383575e+01 -2.029102e-01) (3.662534e-04 -3.472595e+01 -2.313978e-04)) ((1.266277e-04 2.831602e-04 -1.430670e-04) (4.355141e-04 -5.585117e-06 -7.457923e-04))
0.197989      	((3.748539e-02 -8.305579e+01 -9.813334e-02) (3.007842e-04 -3.312721e+01 -1.448091e-03)) ((2.927892e-05 2.697675e-04 8.252127e-05) (2.393961e-04 -8.075928e-06 -5.860062e-04))
0.249587      	((-3.113524e-01 -8.276753e+01 -2.956594e-01) (-2.348753e-03 -3.192372e+01 -1.734936e-03)) ((3.583314e-05 4.034811e-04 -1.942130e-04) (3.713702e-04 -1.638532e-05 -5.910290e-04))
0.311504      	((-1.097771e-01 -8.064835e+01 6.593775e-02) (-2.689739e-03 -3.110434e+01 -7.271359e-04)) ((2.131813e-05 4.184640e-04 6.072582e-06) (2.542798e-04 -2.552059e-05 -6.624208e-04))
0.383812      	((-1.648143e-01 -8.480634e+01 -2.911017e-02) (-2.814138e-03 -3.053709e+01 -5.428217e-04)) ((-5.551604e-08 3.908603e-04 -9.999171e-05) (-8.680118e-05 5.783460e-05 -4.956719e-04))
0.466523      	((-3.198946e-02 -8.911409e+01 1.826971e-02) (-1.606594e-03 -3.016938e+01 -5.270678e-04)) ((6.534425e-05 4.149159e-04 -6.986724e-05) (-2.568419e-04 1.263018e-04 -3.961658e-04))
0.55963       	((-6.106698e-02 -9.547944e+01 -3.200530e-02) (-1.259424e-03 -2.999735e+01 -7.953035e-05)) ((3.545224e-05 3.727767e-04 -2.726970e-05) (-2.279006e-04 1.293301e-04 -2.426505e-04))
0.663087      	((4.041235e-02 -1.019467e+02 4.961599e-02) (-8.803482e-04 -2.998234e+01 -2.193975e-04)) ((1.179955e-05 4.087156e-04 -2.965930e-05) (-3.030759e-04 1.381234e-04 -1.290802e-04))
0.766188      	((8.404723e-02 -1.073199e+02 2.125776e-02) (-5.256894e-04 -3.005889e+01 -2.615293e-04)) ((2.825417e-05 4.121917e-04 -5.068741e-05) (-3.420296e-04 1.735208e-04 3.865610e-06))
0.86853       	((1.572202e-01 -1.112236e+02 1.568734e-01) (-5.835630e-04 -3.015203e+01 1.716728e-04)) ((4.612069e-05 3.906735e-04 -4.494662e-05) (-3.593282e-04 2.184309e-04 2.337986e-04))
0.970215      	((2.928099e-01 -1.142196e+02 2.633896e-01) (-2.461611e-04 -3.020649e+01 2.705905e-04)) ((2.264660e-05 3.922670e-04 -4.713183e-05) (-3.665546e-04 2.307050e-04 2.742124e-04))
1.071348      	((4.170692e-01 -1.162059e+02 4.183840e-01) (-3.824563e-05 -3.019749e+01 6.077384e-04)) ((3.166437e-05 4.069758e-04 -5.116330e-05) (-2.331998e-04 2.039587e-04 1.388966e-04))
1.172188      	((5.949774e-01 -1.180142e+02 5.687998e-01) (-2.705878e-04 -3.013944e+01 3.434260e-04)) ((2.028970e-05 3.924368e-04 -5.704408e-05) (9.270447e-05 1.879736e-04 -2.487240e-04))
1.273042      	((7.384013e-01 -1.190571e+02 7.382624e-01) (-5.401931e-04 -3.005874e+01 5.431198e-05)) ((4.069477e-05 3.967701e-04 -6.709377e-05) (5.842041e-04 1.592915e-04 -7.808789e-04))
1.374114      	((9.799326e-01 -1.200400e+02 9.282335e-01) (-5.219044e-04 -2.997520e+01 -2.121440e-04)) ((5.499688e-05 3.944792e-04 -7.126507e-05) (1.021143e-03 1.622156e-04 -1.236707e-03))
1.475372      	((1.216015e+00 -1.206349e+02 1.158274e+00) (-5.673654e-04 -2.989881e+01 -3.221661e-04)) ((7.186010e-05 3.824395e-04 -6.226590e-05) (1.334352e-03 2.133611e-04 -1.483913e-03))
1.57668       	((1.479999e+00 -1.207527e+02 1.442506e+00) (-3.245272e-04 -2.983024e+01 2.864288e-05)) ((8.239192e-05 3.709876e-04 -6.704455e-05) (1.590966e-03 2.416421e-04 -1.627916e-03))
1.677975      	((1.768254e+00 -1.198120e+02 1.709672e+00) (5.116324e-04 -2.976693e+01 6.501411e-04)) ((8.917639e-05 3.581863e-04 -6.403604e-05) (1.860824e-03 2.330202e-04 -1.752788e-03))
1.779268      	((2.035388e+00 -1.192541e+02 1.972007e+00) (1.237551e-03 -2.970921e+01 1.247540e-03)) ((9.411394e-05 3.401972e-04 -4.707790e-05) (2.107100e-03 2.340163e-04 -1.912430e-03))
1.880595      	((2.296681e+00 -1.186904e+02 2.236548e+00) (1.693829e-03 -2.965776e+01 1.743345e-03)) ((9.663175e-05 3.339016e-04 -4.338094e-05) (2.323661e-03 2.467450e-04 -2.110957e-03))
1.981954      	((2.559387e+00 -1.181114e+02 2.527176e+00) (1.948241e-03 -2.961180e+01 2.344022e-03)) ((9.412963e-05 3.254843e-04 -4.730871e-05) (2.598130e-03 2.549799e-04 -2.396016e-03))
2.083328      	((2.874978e+00 -1.177778e+02 2.836957e+00) (2.218862e-03 -2.956953e+01 2.880430e-03)) ((9.694294e-05 3.107540e-04 -4.376880e-05) (3.011699e-03 2.590996e-04 -2.836219e-03))
2.184717      	((3.254380e+00 -1.176697e+02 3.185450e+00) (2.413781e-03 -2.953104e+01 3.062374e-03)) ((1.007892e-04 3.128961e-04 -4.162139e-05) (3.609121e-03 2.590057e-04 -3.481626e-03))
2.286121      	((3.687103e+00 -1.175450e+02 3.570970e+00) (2.238191e-03 -2.949716e+01 2.894626e-03)) ((1.033873e-04 3.135439e-04 -4.661396e-05) (4.384307e-03 2.586714e-04 -4.343755e-03))
2.387538      	((4.164955e+00 -1.173895e+02 4.016074e+00) (1.743844e-03 -2.946760e+01 2.653482e-03)) ((1.009673e-04 3.064879e-04 -5.113669e-05) (5.342343e-03 2.579110e-04 -5.377167e-03))
2.488966      	((4.736794e+00 -1.170418e+02 4.547809e+00) (1.290087e-03 -2.944160e+01 2.298574e-03)) ((1.124634e-04 2.954572e-04 -5.056292e-05) (6.481070e-03 2.555656e-04 -6.604907e-03))
2.590405      	((5.429222e+00 -1.164127e+02 5.146048e+00) (1.064085e-03 -2.941935e+01 1.744218e-03)) ((1.250924e-04 2.933046e-04 -5.428050e-05) (7.785194e-03 2.527625e-04 -8.063220e-03))
2.691853      	((6.206555e+00 -1.157163e+02 5.852313e+00) (6.406404e-04 -2.940085e+01 1.177535e-03)) ((1.420855e-04 2.897803e-04 -6.157104e-05) (9.241920e-03 2.491647e-04 -9.688954e-03))
2.793309      	((7.088593e+00 -1.149835e+02 6.682055e+00) (-6.740374e-05 -2.938475e+01 7.351028e-04)) ((1.591114e-04 2.811798e-04 -6.968788e-05) (1.087739e-02 2.434756e-04 -1.141782e-02))
2.894769      	((8.116508e+00 -1.143616e+02 7.630820e+00) (-5.529078e-04 -2.937002e+01 3.347034e-04)) ((1.720053e-04 2.745786e-04 -6.474928e-05) (1.270040e-02 2.360247e-04 -1.333078e-02))
2.996233      	((9.333712e+00 -1.139170e+02 8.719192e+00) (-5.016928e-04 -2.935707e+01 -2.181059e-05)) ((1.856499e-04 2.779268e-04 -5.502742e-05) (1.470927e-02 2.338875e-04 -1.552857e-02))
3.097697      	((1.069980e+01 -1.136609e+02 9.953491e+00) (-3.175951e-04 -2.934622e+01 -1.632795e-04)) ((1.987407e-04 2.776388e-04 -4.976119e-05) (1.689053e-02 2.315412e-04 -1.792331e-02))
3.199161      	((1.220489e+01 -1.135063e+02 1.135051e+01) (-2.850631e-04 -2.933678e+01 -7.370516e-07)) ((2.150514e-04 2.717928e-04 -4.314550e-05) (1.923069e-02 2.239234e-04 -2.042559e-02))
3.300622      	((1.392740e+01 -1.134282e+02 1.293421e+01) (2.399421e-04 -2.932843e+01 4.874283e-04)) ((2.416686e-04 2.707473e-04 -3.527967e-05) (2.172947e-02 2.140585e-04 -2.312393e-02))
3.402078      	((1.589311e+01 -1.133815e+02 1.471578e+01) (1.457582e-03 -2.932160e+01 1.300893e-03)) ((2.760375e-04 2.719230e-04 -3.644809e-05) (2.441203e-02 2.074904e-04 -2.609244e-02))
3.503528      	((1.806407e+01 -1.133767e+02 1.670213e+01) (2.729693e-03 -2.931606e+01 2.353047e-03)) ((3.134430e-04 2.675186e-04 -4.958919e-05) (2.735980e-02 2.058289e-04 -2.930297e-02))
3.604968      	((2.044067e+01 -1.134234e+02 1.890219e+01) (3.765742e-03 -2.931097e+01 3.496387e-03)) ((3.588862e-04 2.587113e-04 -6.329604e-05) (3.066921e-02 2.056663e-04 -3.285243e-02))
3.706397      	((2.312135e+01 -1.135153e+02 2.135394e+01) (5.013034e-03 -2.930617e+01 4.660994e-03)) ((4.149638e-04 2.522307e-04 -7.238247e-05) (3.444465e-02 1.996011e-04 -3.699043e-02))
3.807812      	((2.615115e+01 -1.136816e+02 2.410148e+01) (6.376551e-03 -2.930207e+01 5.779555e-03)) ((4.747108e-04 2.486832e-04 -9.153395e-05) (3.878821e-02 1.889549e-04 -4.180364e-02))
3.909213      	((2.952391e+01 -1.138984e+02 2.719066e+01) (7.228917e-03 -2.929854e+01 6.775990e-03)) ((5.389143e-04 2.375356e-04 -1.159658e-04) (4.378397e-02 1.831352e-04 -4.727654e-02))
4.010597      	((3.331145e+01 -1.141662e+02 3.065768e+01) (7.758515e-03 -2.929537e+01 7.645507e-03)) ((6.073050e-04 2.229974e-04 -1.261841e-04) (4.950893e-02 1.817652e-04 -5.353356e-02))
4.111966      	((3.759626e+01 -1.144790e+02 3.455314e+01) (8.512389e-03 -2.929320e+01 8.502743e-03)) ((6.753733e-04 2.094079e-04 -1.322479e-04) (5.603505e-02 1.810063e-04 -6.073240e-02))
4.213316      	((4.238939e+01 -1.148196e+02 3.888631e+01) (9.573344e-03 -2.929259e+01 9.411879e-03)) ((7.427336e-04 1.962392e-04 -1.276260e-04) (6.337542e-02 1.764767e-04 -6.885465e-02))
4.314645      	((4.774406e+01 -1.152189e+02 4.373897e+01) (1.075366e-02 -2.929326e+01 1.062258e-02)) ((8.230956e-04 1.702713e-04 -1.204244e-04) (7.154638e-02 1.690197e-04 -7.788219e-02))
4.415952      	((5.368437e+01 -1.157639e+02 4.916213e+01) (1.193508e-02 -2.929556e+01 1.222722e-02)) ((9.069070e-04 1.446955e-04 -1.104832e-04) (8.057829e-02 1.666336e-04 -8.783979e-02))
4.517229      	((6.032808e+01 -1.164507e+02 5.514944e+01) (1.401665e-02 -2.930024e+01 1.407235e-02)) ((1.002904e-03 1.219202e-04 -8.146493e-05) (9.047185e-02 1.709828e-04 -9.881328e-02))
4.618474      	((6.770030e+01 -1.172439e+02 6.179041e+01) (1.704491e-02 -2.930695e+01 1.646443e-02)) ((1.102642e-03 8.326354e-05 -3.841045e-05) (1.013205e-01 1.737160e-04 -1.108869e-01))
4.719685      	((7.571466e+01 -1.182738e+02 6.908413e+01) (1.986734e-02 -2.931568e+01 1.948597e-02)) ((1.203376e-03 4.319240e-05 9.327358e-06) (1.132463e-01 1.694485e-04 -1.240657e-01))
4.820854      	((8.448608e+01 -1.197258e+02 7.699091e+01) (2.333314e-02 -2.932694e+01 2.292772e-02)) ((1.316942e-03 -4.193721e-06 7.527832e-05) (1.262622e-01 1.649646e-04 -1.385432e-01))
4.921968      	((9.387412e+01 -1.215821e+02 8.545963e+01) (2.807041e-02 -2.934102e+01 2.710246e-02)) ((1.416668e-03 -4.966121e-05 1.551929e-04) (1.404327e-01 1.618875e-04 -1.544041e-01))
5.023021      	((1.038748e+02 -1.238049e+02 9.448954e+01) (3.323320e-02 -2.935812e+01 3.197589e-02)) ((1.528862e-03 -1.057027e-04 2.285549e-04) (1.557883e-01 1.545690e-04 -1.715357e-01))
5.124003      	((1.141584e+02 -1.266653e+02 1.037394e+02) (3.852716e-02 -2.937864e+01 3.737672e-02)) ((1.624831e-03 -1.635011e-04 3.456733e-04) (1.721390e-01 1.356264e-04 -1.898472e-01))
5.2249        	((1.245361e+02 -1.298993e+02 1.130128e+02) (4.436168e-02 -2.940319e+01 4.323281e-02)) ((1.674903e-03 -2.299093e-04 5.241090e-04) (1.892484e-01 9.620949e-05 -2.091656e-01))
5.325712      	((1.346691e+02 -1.337109e+02 1.220173e+02) (5.083589e-02 -2.943211e+01 4.947943e-02)) ((1.686322e-03 -2.920581e-04 7.582377e-04) (2.068431e-01 6.003551e-05 -2.290323e-01))
5.426443      	((1.441133e+02 -1.381061e+02 1.303050e+02) (5.828110e-02 -2.946485e+01 5.629987e-02)) ((1.635799e-03 -3.399130e-04 1.037255e-03) (2.243908e-01 2.744404e-05 -2.488225e-01))
5.527088      	((1.519302e+02 -1.433866e+02 1.371468e+02) (6.662391e-02 -2.950079e+01 6.376247e-02)) ((1.483632e-03 -3.754866e-04 1.341118e-03) (2.410937e-01 1.749428e-05 -2.677291e-01))
5.627646      	((1.575652e+02 -1.487527e+02 1.419781e+02) (7.511072e-02 -2.953942e+01 7.164130e-02)) ((1.252438e-03 -3.837925e-04 1.652911e-03) (2.560045e-01 3.293772e-05 -2.848322e-01))
5.728122      	((1.606264e+02 -1.535559e+02 1.443553e+02) (8.346538e-02 -2.958020e+01 7.974033e-02)) ((8.866138e-04 -3.614879e-04 2.007736e-03) (2.681293e-01 5.787663e-05 -2.991101e-01))
5.828523      	((1.608861e+02 -1.575716e+02 1.441013e+02) (9.132170e-02 -2.962163e+01 8.706954e-02)) ((4.563691e-04 -2.791939e-04 2.418734e-03) (2.768739e-01 7.649747e-05 -3.099120e-01))
5.928859      	((1.584308e+02 -1.606133e+02 1.412439e+02) (9.673733e-02 -2.966251e+01 9.205373e-02)) ((1.155659e-05 -1.782366e-04 2.755097e-03) (2.820553e-01 1.105962e-04 -3.170886e-01))
6.029142      	((1.536386e+02 -1.626050e+02 1.362838e+02) (9.780975e-02 -2.970182e+01 9.331827e-02)) ((-3.677244e-04 -3.133383e-05 2.985870e-03) (2.839866e-01 1.430550e-04 -3.208603e-01))
6.12939       	((1.473261e+02 -1.632304e+02 1.301592e+02) (9.416543e-02 -2.973764e+01 9.024453e-02)) ((-5.744207e-04 7.584592e-05 3.018038e-03) (2.833916e-01 1.436466e-04 -3.219526e-01))
6.229617      	((1.405090e+02 -1.627134e+02 1.238692e+02) (8.541964e-02 -2.976877e+01 8.256484e-02)) ((-5.666081e-04 8.813531e-05 2.902066e-03) (2.811897e-01 1.472382e-04 -3.212160e-01))
6.32984       	((1.346086e+02 -1.616453e+02 1.186044e+02) (7.223061e-02 -2.979517e+01 7.117416e-02)) ((-3.816422e-04 4.767833e-05 2.694745e-03) (2.782568e-01 6.477477e-05 -3.192478e-01))
6.430073      	((1.306322e+02 -1.604334e+02 1.150473e+02) (5.797019e-02 -2.981709e+01 5.851784e-02)) ((-6.934239e-05 -5.810646e-05 2.419348e-03) (2.751842e-01 -3.846329e-05 -3.167083e-01))
6.530327      	((1.287620e+02 -1.584183e+02 1.132897e+02) (4.614068e-02 -2.983514e+01 4.743743e-02)) ((2.569543e-04 -2.515097e-04 2.175243e-03) (2.721240e-01 -1.548043e-04 -3.140281e-01))
6.630606      	((1.281888e+02 -1.562531e+02 1.128898e+02) (3.868835e-02 -2.985099e+01 4.010865e-02)) ((5.254280e-04 -5.202442e-04 2.120109e-03) (2.688279e-01 -2.940783e-04 -3.105920e-01))
6.730911      	((1.282140e+02 -1.540253e+02 1.130956e+02) (3.737492e-02 -2.986636e+01 3.828542e-02)) ((6.683688e-04 -7.376531e-04 2.203401e-03) (2.647127e-01 -4.055831e-04 -3.057161e-01))
6.831238      	((1.281884e+02 -1.521739e+02 1.132238e+02) (4.253459e-02 -2.988059e+01 4.077510e-02)) ((6.920461e-04 -8.612460e-04 2.240752e-03) (2.602032e-01 -4.925600e-04 -2.999504e-01))
6.931583      	((1.273166e+02 -1.506650e+02 1.125987e+02) (4.902020e-02 -2.989355e+01 4.433745e-02)) ((6.795786e-04 -9.395666e-04 2.235482e-03) (2.559786e-01 -5.502148e-04 -2.942451e-01))
7.03194       	((1.250288e+02 -1.502729e+02 1.108235e+02) (5.170189e-02 -2.990561e+01 4.697174e-02)) ((5.591022e-04 -8.896600e-04 2.219810e-03) (2.521776e-01 -5.694931e-04 -2.890513e-01))
7.132306      	((1.219837e+02 -1.503937e+02 1.081258e+02) (5.270797e-02 -2.991507e+01 4.768746e-02)) ((3.989945e-04 -7.928962e-04 2.173878e-03) (2.487213e-01 -4.766806e-04 -2.847862e-01))
7.232681      	((1.185767e+02 -1.508322e+02 1.051040e+02) (5.220138e-02 -2.992232e+01 4.568535e-02)) ((2.692673e-04 -7.366288e-04 2.069063e-03) (2.454913e-01 -2.877103e-04 -2.810599e-01))
7.333066      	((1.151601e+02 -1.512367e+02 1.021462e+02) (4.555235e-02 -2.992872e+01 4.134353e-02)) ((1.657552e-04 -6.321382e-04 1.928373e-03) (2.427796e-01 -1.069224e-04 -2.776307e-01))
7.433463      	((1.126870e+02 -1.515315e+02 9.991698e+01) (3.655773e-02 -2.993228e+01 3.496478e-02)) ((1.338628e-04 -5.386022e-04 1.781752e-03) (2.409233e-01 -1.264306e-05 -2.754924e-01))
7.533875      	((1.118368e+02 -1.513934e+02 9.899000e+01) (2.888534e-02 -2.993307e+01 2.674293e-02)) ((2.291952e-04 -6.070638e-04 1.599028e-03) (2.400531e-01 -1.478003e-04 -2.748221e-01))
7.634306      	((1.124779e+02 -1.509039e+02 9.938326e+01) (1.985077e-02 -2.993256e+01 1.933750e-02)) ((3.731435e-04 -7.432555e-04 1.475378e-03) (2.402027e-01 -5.378634e-04 -2.749388e-01))
7.734754      	((1.142420e+02 -1.504152e+02 1.009602e+02) (1.343180e-02 -2.993122e+01 1.512782e-02)) ((4.471291e-04 -7.933617e-04 1.443051e-03) (2.407432e-01 -9.606768e-04 -2.753628e-01))
7.835218      	((1.166257e+02 -1.496713e+02 1.026390e+02) (1.533057e-02 -2.992973e+01 1.452108e-02)) ((5.151885e-04 -9.372973e-04 1.449457e-03) (2.408127e-01 -1.245187e-03 -2.754373e-01))
7.935695      	((1.185567e+02 -1.491148e+02 1.043738e+02) (2.019997e-02 -2.992969e+01 1.749050e-02)) ((6.034311e-04 -1.114758e-03 1.418011e-03) (2.403283e-01 -1.423275e-03 -2.743538e-01))
8.036179      	((1.195552e+02 -1.495019e+02 1.054992e+02) (2.511080e-02 -2.993023e+01 2.292061e-02)) ((6.344170e-04 -1.140968e-03 1.466969e-03) (2.397233e-01 -1.494679e-03 -2.725767e-01))
8.136667      	((1.197021e+02 -1.508780e+02 1.053855e+02) (3.353851e-02 -2.992882e+01 2.765026e-02)) ((5.988582e-04 -1.184462e-03 1.600432e-03) (2.392452e-01 -1.437952e-03 -2.714175e-01))
8.237153      	((1.186957e+02 -1.528421e+02 1.044811e+02) (3.813975e-02 -2.992672e+01 2.966638e-02)) ((4.988056e-04 -1.273097e-03 1.715287e-03) (2.393694e-01 -1.347809e-03 -2.711442e-01))
8.337638      	((1.168534e+02 -1.542164e+02 1.031546e+02) (3.413487e-02 -2.992421e+01 2.872853e-02)) ((3.187757e-04 -1.142310e-03 1.816447e-03) (2.406083e-01 -1.252802e-03 -2.718672e-01))
8.438121      	((1.151576e+02 -1.550263e+02 1.014269e+02) (2.941342e-02 -2.991889e+01 2.358680e-02)) ((1.492342e-04 -1.009349e-03 1.887640e-03) (2.425943e-01 -1.114125e-03 -2.740969e-01))
8.538605      	((1.132489e+02 -1.554175e+02 9.959340e+01) (2.235985e-02 -2.991216e+01 1.543904e-02)) ((7.721545e-05 -1.089140e-03 1.885712e-03) (2.447663e-01 -1.036219e-03 -2.769092e-01))
8.639094      	((1.115533e+02 -1.553688e+02 9.864414e+01) (9.686998e-03 -2.990555e+01 7.674231e-03)) ((3.997214e-05 -1.045727e-03 1.851668e-03) (2.470206e-01 -1.079685e-03 -2.793101e-01))
8.739593      	((1.112938e+02 -1.548377e+02 9.829511e+01) (7.390067e-04 -2.989665e+01 6.181758e-04)) ((4.937012e-05 -9.636971e-04 1.784522e-03) (2.488133e-01 -1.115005e-03 -2.817062e-01))
8.840104      	((1.119802e+02 -1.544877e+02 9.876024e+01) (-2.981732e-03 -2.988676e+01 -3.955136e-03)) ((1.699632e-04 -1.131473e-03 1.701216e-03) (2.496428e-01 -1.139578e-03 -2.835128e-01))
8.940628      	((1.129548e+02 -1.541703e+02 9.980049e+01) (-7.107713e-03 -2.987858e+01 -3.912206e-03)) ((3.368154e-04 -1.222225e-03 1.612640e-03) (2.497742e-01 -1.218858e-03 -2.839395e-01))
9.041165      	((1.142136e+02 -1.543572e+02 1.009471e+02) (-6.638303e-03 -2.987020e+01 -1.739598e-03)) ((4.815769e-04 -1.176580e-03 1.541597e-03) (2.494758e-01 -1.274020e-03 -2.840173e-01))
