# Forces      
# CofR        : (0.000000e+00 0.000000e+00 0.000000e+00)
# Time        forces(pressure viscous)	moments(pressure viscous)
0             	((0.000000e+00 0.000000e+00 0.000000e+00) (0.000000e+00 0.000000e+00 0.000000e+00)) ((0.000000e+00 0.000000e+00 0.000000e+00) (0.000000e+00 0.000000e+00 0.000000e+00))
0.012         	((3.171031e-03 4.037287e-03 -9.162225e-03) (1.349189e-06 -2.498913e-06 -4.415755e-07)) ((1.573861e-01 -4.668310e-05 -5.342742e-04) (3.724749e+00 -1.118536e-06 1.297894e-05))
0.0264        	((-2.501988e-02 1.883599e-02 -9.384216e-03) (-1.029542e-06 -1.693621e-05 -7.249058e-06)) ((1.596899e-01 -3.062784e-06 -4.554339e-04) (6.622670e+00 -1.628243e-05 5.086401e-05))
0.04368       	((-2.857275e-02 4.411499e-03 -1.142871e-02) (-2.542010e-05 3.356118e-05 -5.907597e-05)) ((1.672269e-01 9.479276e-05 -5.162295e-04) (1.473843e+01 -1.359150e-04 2.404714e-04))
0.064416      	((-1.807926e-02 2.257632e-02 -1.925374e-02) (8.601072e-05 -8.625374e-04 -2.859183e-04)) ((1.556973e-01 3.953035e-05 -4.373949e-04) (4.181662e+01 -6.612026e-04 1.380852e-03))
0.0892992     	((-4.538157e-03 2.043365e-02 -5.530161e-03) (3.505797e-04 -1.359326e-03 -6.925483e-04)) ((1.547075e-01 -5.743121e-06 -4.920546e-04) (7.395785e+01 -4.025732e-03 9.802882e-04))
0.118892      	((-1.710297e-02 1.970627e-02 -7.155262e-03) (3.394786e-04 -1.166660e-03 -8.317616e-04)) ((1.460388e-01 -1.062316e-04 -4.621505e-04) (6.930179e+01 -4.749810e-03 5.920082e-04))
0.153202      	((-1.537608e-02 3.130033e-02 5.000757e-04) (3.366111e-04 -9.359045e-04 -6.404132e-04)) ((1.450318e-01 -6.542148e-05 -4.431502e-04) (6.530204e+01 -4.595496e-03 4.154479e-04))
0.192231      	((-1.355166e-02 3.777568e-02 -7.077887e-03) (4.080576e-04 -9.101678e-04 -6.725387e-04)) ((1.441983e-01 4.023225e-06 -4.712717e-04) (6.323629e+01 -4.559908e-03 2.429976e-04))
0.23599       	((-2.915154e-02 3.530817e-02 -8.210382e-04) (4.651862e-04 -1.080039e-03 -8.402461e-04)) ((1.384072e-01 9.525781e-06 -4.763085e-04) (6.120102e+01 -4.784135e-03 -9.179564e-04))
0.283516      	((-3.029236e-02 3.779318e-02 -1.403983e-02) (4.149480e-04 -9.630435e-04 -1.167023e-03)) ((1.356344e-01 1.820844e-05 -4.585165e-04) (5.895092e+01 -4.270232e-03 -2.435563e-03))
0.331303      	((-1.440816e-02 -2.785866e-02 -1.650264e-02) (1.065100e-04 -4.645188e-04 -1.424754e-03)) ((1.379626e-01 5.175865e-05 -4.099850e-04) (5.719698e+01 -3.353185e-03 -3.356206e-03))
0.379277      	((-3.612162e-02 8.232106e-03 -2.207417e-02) (-2.596835e-04 -5.404034e-05 -1.362189e-03)) ((1.369166e-01 -7.303648e-07 -4.020570e-04) (5.579681e+01 -2.033968e-03 -3.820838e-03))
0.427347      	((-2.340778e-02 4.678430e-02 -1.222775e-02) (-5.759934e-04 2.482066e-04 -1.573561e-03)) ((1.341514e-01 -1.763670e-05 -3.617762e-04) (5.458439e+01 -2.350153e-04 -3.717591e-03))
0.475528      	((-4.254597e-02 4.879233e-02 1.011025e-01) (-7.510162e-04 6.384360e-04 -1.517206e-03)) ((1.301976e-01 -3.850365e-05 -2.901630e-04) (5.350017e+01 1.200571e-03 -3.046218e-03))
0.523785      	((-6.981561e-02 1.755055e-01 1.456130e-01) (-8.152830e-04 9.155500e-04 -1.210365e-03)) ((1.268040e-01 -2.217516e-05 -2.960881e-04) (5.250923e+01 2.068727e-03 -2.050803e-03))
0.572166      	((-9.615349e-02 2.841205e-01 1.832437e-01) (-8.177202e-04 9.958054e-04 -7.103282e-04)) ((1.242744e-01 5.582015e-05 -4.493120e-04) (5.159534e+01 2.511225e-03 -9.684412e-04))
0.620688      	((-1.029760e-01 3.716311e-01 2.537354e-01) (-1.231660e-03 1.010869e-03 -2.195654e-04)) ((1.230712e-01 8.690860e-05 -4.880493e-04) (5.075772e+01 2.366211e-03 2.285125e-04))
0.66937       	((-5.356219e-02 2.966042e-01 2.059342e-01) (-2.049763e-03 1.128254e-03 -3.858325e-04)) ((1.224035e-01 1.349222e-04 -4.471675e-04) (4.999705e+01 1.472759e-03 1.204453e-03))
0.71825       	((-5.214769e-02 3.301615e-01 1.963650e-01) (-2.894036e-03 1.145691e-03 -4.533553e-04)) ((1.212342e-01 1.291979e-04 -3.541259e-04) (4.931108e+01 8.207271e-05 1.477116e-03))
0.767367      	((-1.200270e-01 4.487965e-01 2.770038e-01) (-3.432287e-03 6.524551e-04 2.031144e-04)) ((1.196776e-01 2.398500e-04 -4.083363e-04) (4.869531e+01 -1.123282e-03 9.944329e-04))
0.816764      	((-1.410045e-01 4.879731e-01 3.278427e-01) (-3.373353e-03 1.528137e-04 1.201202e-03)) ((1.180402e-01 2.358934e-04 -3.945274e-04) (4.814701e+01 -1.840123e-03 4.257492e-05))
0.866476      	((-1.201522e-01 5.651826e-01 4.137645e-01) (-3.108246e-03 1.165431e-03 1.012436e-03)) ((1.163534e-01 1.942956e-04 -4.221013e-04) (4.766413e+01 -1.994000e-03 -1.120181e-03))
0.916342      	((-1.185290e-01 6.319046e-01 5.643518e-01) (-3.093244e-03 2.853930e-03 2.109289e-03)) ((1.145918e-01 1.314647e-04 -4.164669e-04) (4.724570e+01 -1.727224e-03 -2.122808e-03))
0.966386      	((-1.087965e-01 5.699962e-01 5.785464e-01) (-3.192142e-03 1.971955e-03 2.084012e-03)) ((1.129253e-01 1.324085e-04 -4.014708e-04) (4.688729e+01 -1.351841e-03 -2.850298e-03))
1.01662       	((-1.344102e-01 3.542271e-01 2.439101e-01) (-2.727468e-03 1.670693e-03 2.258647e-04)) ((1.113976e-01 2.156776e-04 -3.384038e-04) (4.658139e+01 -7.779985e-04 -2.937241e-03))
1.06706       	((-1.130468e-01 3.619961e-01 1.833086e-01) (-2.075173e-03 2.043997e-03 -9.122933e-04)) ((1.102472e-01 1.563398e-04 -1.669700e-04) (4.632285e+01 -6.607009e-04 -2.373433e-03))
1.117734      	((-1.157100e-01 4.749878e-01 1.955777e-01) (-1.387038e-03 3.142521e-03 -2.287047e-03)) ((1.092051e-01 6.517696e-06 -1.143542e-04) (4.610801e+01 -1.347031e-03 -1.974931e-03))
1.168685      	((-1.449271e-01 4.532089e-01 1.321389e-01) (-1.246820e-03 5.521029e-03 -3.421140e-03)) ((1.081120e-01 -6.614079e-05 -1.826010e-04) (4.593334e+01 -2.044352e-03 -2.290529e-03))
1.219849      	((-1.572302e-01 4.494418e-01 3.307998e-01) (-9.726851e-04 7.704476e-03 -2.139999e-03)) ((1.069705e-01 6.079362e-06 -2.119768e-04) (4.579715e+01 -2.033554e-03 -3.225148e-03))
1.271046      	((-1.673835e-01 4.509308e-01 5.618482e-01) (-3.313297e-04 7.708856e-03 -5.402056e-05)) ((1.057541e-01 1.632281e-04 -2.730044e-04) (4.569818e+01 -1.348611e-03 -4.081282e-03))
1.322278      	((-1.418057e-01 3.498541e-01 5.842566e-01) (5.082641e-04 7.963410e-03 -1.760440e-04)) ((1.044276e-01 2.250428e-04 -2.840265e-04) (4.563341e+01 -3.597974e-04 -4.426534e-03))
1.373552      	((-1.281382e-01 5.253779e-01 6.636577e-01) (1.060631e-03 1.143642e-02 5.549311e-04)) ((1.034186e-01 2.228945e-04 -2.442658e-04) (4.560044e+01 5.649655e-04 -4.322196e-03))
1.424877      	((-9.148738e-02 4.812920e-01 8.790707e-01) (1.536800e-03 1.218187e-02 6.338889e-03)) ((1.025700e-01 2.277107e-04 -2.600093e-04) (4.559802e+01 1.560035e-03 -3.823896e-03))
1.476254      	((-7.873770e-02 4.092492e-01 8.004283e-01) (1.859019e-03 1.018734e-02 8.135087e-03)) ((1.017559e-01 2.341259e-04 -3.084726e-04) (4.562767e+01 2.414357e-03 -2.623295e-03))
1.527682      	((-7.918492e-02 3.191291e-01 6.445241e-01) (2.130671e-03 6.848555e-03 7.079895e-03)) ((1.010980e-01 3.776220e-04 -3.323767e-04) (4.569084e+01 2.454568e-03 -8.729540e-04))
