# Forces      
# CofR        : (0.000000e+00 0.000000e+00 0.000000e+00)
# Time        forces(pressure viscous)	moments(pressure viscous)
0             	((0.000000e+00 0.000000e+00 0.000000e+00) (0.000000e+00 0.000000e+00 0.000000e+00)) ((0.000000e+00 0.000000e+00 0.000000e+00) (0.000000e+00 0.000000e+00 0.000000e+00))
0.012         	((8.573102e-02 1.348819e-01 4.739395e-03) (-1.549872e-05 2.151353e-05 -3.929062e-06)) ((-1.725822e-03 2.553315e-04 5.189859e-01) (-1.245461e-05 -9.254353e-06 7.098573e+00))
0.0263598     	((-1.065199e-01 -1.834051e-01 -8.293389e-02) (-1.237308e-04 -3.857773e-05 -2.157170e-05)) ((-2.354826e-03 6.413347e-04 5.665432e-01) (-1.157340e-04 -1.631241e-05 1.068432e+01))
0.0430802     	((-1.028770e-01 -5.410638e-02 -7.432189e-02) (-3.758455e-04 -3.076596e-04 -6.821894e-05)) ((-2.442910e-03 6.705552e-04 5.845361e-01) (-4.695480e-04 -1.048812e-04 1.724613e+01))
0.0621621     	((-1.367893e-01 -2.492095e-01 -4.245888e-02) (-7.809532e-04 -9.677949e-04 -1.582212e-04)) ((-2.123023e-03 7.820198e-04 5.577478e-01) (-1.607291e-03 -6.112121e-04 3.236041e+01))
0.0836061     	((-2.176200e-01 -2.780598e-01 -4.445889e-02) (-2.161289e-03 -1.644067e-03 -2.954459e-04)) ((-2.432306e-03 8.942881e-04 5.602580e-01) (-5.893751e-03 -2.566139e-03 7.498044e+01))
0.107235      	((-2.935353e-01 -3.268608e-01 -6.174577e-02) (-1.894517e-02 1.042612e-02 -1.990264e-03)) ((-2.442348e-03 9.348160e-04 5.427499e-01) (-7.547336e-03 -3.158427e-03 2.067602e+02))
0.130892      	((-2.050904e-01 -1.513898e-01 -4.343825e-02) (-1.185038e-03 -1.762850e-02 -2.312934e-03)) ((-2.346412e-03 6.183328e-04 5.361424e-01) (-1.810681e-02 -3.990147e-03 2.436007e+02))
0.154552      	((-6.353381e-03 6.959212e-03 -5.190692e-02) (-2.720922e-03 -1.375646e-02 -1.740871e-03)) ((-2.526294e-03 1.815307e-04 5.340529e-01) (-1.735629e-02 -6.168009e-03 2.287972e+02))
0.178225      	((3.185933e-02 -1.078179e-01 -4.509652e-02) (-1.975282e-03 -1.263672e-02 -1.109896e-03)) ((-2.406365e-03 1.556924e-04 5.485693e-01) (-1.432335e-02 -5.558373e-03 2.207357e+02))
0.201962      	((-2.844506e-01 -1.245059e-01 -6.651008e-02) (8.383046e-05 -1.027184e-02 -3.730703e-04)) ((-2.438200e-03 -8.980755e-05 5.335655e-01) (-1.240107e-02 -5.873640e-03 2.145009e+02))
0.225795      	((1.279078e-01 6.121203e-02 -2.407211e-02) (1.202035e-03 -8.643675e-03 -5.631338e-06)) ((-2.172257e-03 -7.845244e-05 5.310776e-01) (-7.230355e-03 -6.615773e-03 2.077768e+02))
0.249742      	((-1.299184e-01 -3.757543e-02 -1.838692e-02) (1.848538e-03 -1.008324e-02 -3.093772e-04)) ((-2.459599e-03 2.115826e-05 5.378329e-01) (2.269568e-04 -4.158110e-03 2.021874e+02))
0.273811      	((-1.706149e-01 4.167774e-02 -3.998110e-02) (4.115887e-03 -1.293955e-02 2.433344e-04)) ((-2.468847e-03 1.535817e-04 5.357207e-01) (5.713102e-03 -8.381624e-04 1.976956e+02))
0.297922      	((-1.563981e-01 -1.816135e-02 -4.655077e-02) (7.051537e-03 -1.357244e-02 7.825742e-04)) ((-2.400208e-03 -1.717786e-05 5.256582e-01) (1.004280e-02 1.842023e-03 1.938258e+02))
0.322089      	((-1.113809e-01 2.512247e-01 -1.202583e-01) (9.243508e-03 -1.231264e-02 9.102485e-04)) ((-2.284600e-03 -3.658665e-04 5.124459e-01) (1.337528e-02 5.135021e-03 1.903408e+02))
0.346309      	((5.751697e-03 6.582798e-01 -2.357339e-01) (1.093499e-02 -1.012933e-02 1.205851e-03)) ((-2.069950e-03 -4.322974e-04 4.996350e-01) (1.401391e-02 8.513011e-03 1.871291e+02))
0.370592      	((1.630644e-01 6.976881e-01 -3.485773e-01) (1.078799e-02 -7.900066e-03 5.982238e-04)) ((-2.035802e-03 -4.017179e-05 4.886879e-01) (1.169308e-02 1.252082e-02 1.841460e+02))
0.394923      	((2.801543e-01 9.315660e-01 -2.717966e-01) (8.636219e-03 -4.657979e-03 -4.087164e-04)) ((-1.565140e-03 2.633219e-04 4.824639e-01) (6.829634e-03 1.596314e-02 1.813932e+02))
0.419313      	((3.894735e-01 8.824121e-01 -1.266703e-01) (7.849284e-03 -1.857057e-03 -1.511374e-03)) ((-1.382497e-03 6.857774e-05 4.806299e-01) (2.047588e-04 1.607625e-02 1.788682e+02))
0.443781      	((4.420798e-01 7.410531e-01 1.276044e-01) (5.409410e-03 -4.294986e-03 -2.611465e-03)) ((-1.687467e-03 2.234134e-05 4.787648e-01) (-4.860088e-03 1.340801e-02 1.765655e+02))
0.468355      	((7.649461e-01 6.189991e-01 1.022133e-02) (3.301697e-03 -6.480608e-03 -3.256254e-03)) ((-1.525802e-03 -3.033944e-05 4.742043e-01) (-7.576138e-03 8.564237e-03 1.744762e+02))
0.493056      	((1.404749e+00 8.958508e-01 -8.821123e-02) (4.094855e-03 -6.260300e-03 -2.981710e-03)) ((-1.529632e-03 6.167374e-05 4.689237e-01) (-8.385172e-03 2.015572e-03 1.725914e+02))
0.517895      	((1.812946e+00 1.714753e+00 -9.213135e-02) (2.067050e-03 -8.254218e-03 -2.649921e-03)) ((-1.565202e-03 -9.923906e-05 4.632957e-01) (-6.751387e-03 -3.607524e-03 1.709103e+02))
0.542816      	((1.495416e+00 1.690774e+00 -1.657043e-01) (1.832388e-03 -8.382073e-03 -2.263333e-03)) ((-1.256262e-03 -2.709808e-04 4.576505e-01) (-3.794974e-03 -6.843637e-03 1.694350e+02))
0.567809      	((1.618281e+00 2.223017e+00 -1.776111e-01) (7.039802e-03 -8.919556e-03 -2.199025e-03)) ((-1.346715e-03 4.089122e-05 4.519125e-01) (-1.344243e-03 -8.496833e-03 1.681515e+02))
0.592882      	((1.633749e+00 1.625937e+00 -4.044534e-02) (7.122650e-03 -1.378791e-02 -8.376481e-04)) ((-1.378486e-03 2.407424e-04 4.463963e-01) (9.101154e-04 -8.979438e-03 1.670394e+02))
0.618039      	((5.883538e-01 8.123792e-01 -2.911990e-02) (1.132825e-02 -1.790483e-02 2.402283e-03)) ((-1.442820e-03 5.977942e-04 4.414943e-01) (2.765724e-03 -8.678184e-03 1.660789e+02))
0.643285      	((1.202857e+00 8.589364e-01 5.145117e-02) (2.293442e-02 -2.064329e-02 6.004030e-03)) ((-2.035936e-03 6.608329e-04 4.378680e-01) (4.043821e-03 -7.548404e-03 1.652582e+02))
0.668632      	((1.800021e+00 8.323174e-01 5.206681e-02) (2.488018e-02 -2.173631e-02 7.947441e-03)) ((-2.432604e-03 7.320202e-04 4.346452e-01) (4.526608e-03 -5.374404e-03 1.645713e+02))
0.694099      	((1.585588e+00 1.336575e+00 5.399543e-03) (2.361978e-02 -2.731825e-02 9.174133e-03)) ((-2.686399e-03 7.663809e-04 4.309851e-01) (4.304163e-03 -3.773735e-03 1.640106e+02))
0.719702      	((1.442489e+00 1.931937e+00 -3.034198e-02) (3.335545e-02 -2.833873e-02 1.067177e-02)) ((-2.602105e-03 3.881303e-04 4.271328e-01) (3.326707e-03 -3.591572e-03 1.635682e+02))
0.745352      	((1.172320e+00 2.580205e+00 7.700626e-02) (4.053844e-02 -2.076353e-02 1.241673e-02)) ((-2.198491e-03 1.346399e-04 4.232788e-01) (2.638516e-03 -3.322973e-03 1.632369e+02))
