# Forces      
# CofR        : (0.000000e+00 0.000000e+00 0.000000e+00)
# Time        forces(pressure viscous)	moments(pressure viscous)
0             	((0.000000e+00 0.000000e+00 0.000000e+00) (0.000000e+00 0.000000e+00 0.000000e+00)) ((0.000000e+00 0.000000e+00 0.000000e+00) (0.000000e+00 0.000000e+00 0.000000e+00))
0.012         	((1.777302e-05 -2.802615e-06 -3.607551e-04) (-1.980927e-09 -2.442424e-09 -4.953207e-08)) ((3.959096e-09 2.350692e-04 -1.000676e-08) (-6.850551e-10 1.377020e-02 -3.955713e-12))
0.0264        	((-1.030019e-04 -3.574428e-06 3.958334e-04) (-1.500458e-08 -4.292281e-09 -6.807968e-08)) ((-1.838698e-09 1.064090e-04 -6.289687e-09) (-6.082164e-10 1.375468e-02 3.045595e-10))
0.04368       	((6.095549e-05 1.321353e-05 -7.782836e-05) (-2.848602e-08 -3.836725e-09 -7.381017e-08)) ((4.947567e-09 5.799670e-05 3.702931e-09) (1.455504e-10 1.373312e-02 7.737365e-10))
0.064416      	((-3.349815e-05 -5.350990e-06 9.750589e-05) (-3.637811e-08 -1.911922e-09 -7.520966e-08)) ((-1.578965e-09 3.017013e-05 -1.149521e-09) (8.967292e-10 1.370735e-02 9.891440e-10))
0.0892992     	((-1.796575e-06 2.980510e-06 -9.264786e-06) (-4.376785e-08 -5.190990e-10 -7.305404e-08)) ((3.342675e-09 2.277490e-05 2.524022e-09) (1.392869e-09 1.367655e-02 1.181083e-09))
0.119159      	((-3.806566e-05 7.863278e-06 2.801781e-05) (-5.072177e-08 -1.922171e-09 -6.941068e-08)) ((4.299805e-09 1.822794e-05 1.683309e-09) (9.182067e-10 1.363977e-02 1.890317e-09))
0.154991      	((-4.829439e-06 5.601059e-06 -2.128468e-05) (-5.692738e-08 -5.013395e-09 -6.371263e-08)) ((5.958531e-09 1.672155e-05 2.567412e-09) (7.029054e-11 1.359593e-02 3.004575e-09))
0.197989      	((-2.230405e-05 -1.763030e-06 4.318861e-06) (-6.630672e-08 -8.860216e-09 -6.025141e-08)) ((4.085135e-09 1.498708e-05 3.114174e-09) (-7.164544e-10 1.354372e-02 3.947166e-09))
0.249587      	((8.487390e-06 8.578694e-06 6.260755e-07) (-7.878728e-08 -1.298220e-08 -5.858204e-08)) ((3.924881e-09 1.335999e-05 1.825951e-09) (-1.437602e-09 1.348164e-02 4.846532e-09))
0.311504      	((-1.488832e-05 -4.302684e-06 4.126191e-06) (-9.114772e-08 -1.676076e-08 -6.007158e-08)) ((1.579955e-09 1.219373e-05 1.103807e-09) (-2.091475e-09 1.340801e-02 5.599385e-09))
0.385805      	((2.669805e-06 8.176169e-07 -3.156592e-06) (-1.004251e-07 -1.959285e-08 -6.330440e-08)) ((2.523461e-09 1.140354e-05 2.118729e-09) (-2.480383e-09 1.332096e-02 5.876857e-09))
0.474966      	((-7.604178e-06 -3.409837e-06 -5.594224e-06) (-1.087331e-07 -2.096469e-08 -6.568751e-08)) ((2.943645e-09 1.081516e-05 1.103021e-09) (-2.691819e-09 1.321838e-02 6.018636e-09))
0.581959      	((-2.026696e-06 -1.343492e-06 -1.955728e-06) (-1.184811e-07 -2.227879e-08 -6.707103e-08)) ((3.247433e-09 1.029987e-05 3.686344e-10) (-3.233188e-09 1.309809e-02 6.123838e-09))
0.710351      	((1.733967e-06 -8.119313e-07 -6.350373e-07) (-1.264328e-07 -2.499070e-08 -7.020833e-08)) ((2.394053e-09 9.828581e-06 -3.806231e-10) (-4.179790e-09 1.295787e-02 6.578937e-09))
0.864421      	((5.020398e-06 7.743221e-07 7.514425e-06) (-1.335228e-07 -2.942611e-08 -7.235535e-08)) ((2.517356e-09 9.379583e-06 -1.694624e-09) (-5.737565e-09 1.279569e-02 7.524035e-09))
1.049306      	((1.994285e-06 -3.581665e-07 7.842153e-06) (-1.406987e-07 -3.378529e-08 -6.907792e-08)) ((2.409867e-09 8.943855e-06 -1.548650e-09) (-8.028178e-09 1.261003e-02 8.941451e-09))
1.271167      	((8.689069e-06 1.523171e-06 1.271704e-05) (-1.474014e-07 -3.596109e-08 -6.632368e-08)) ((2.542496e-09 8.530165e-06 -1.556576e-09) (-1.038933e-08 1.240027e-02 9.888110e-09))
1.5374        	((2.989715e-06 -4.430638e-07 1.016146e-05) (-1.609039e-07 -3.590200e-08 -7.127934e-08)) ((2.024389e-09 8.123332e-06 -1.202410e-09) (-1.180392e-08 1.216717e-02 1.050995e-08))
1.85688       	((7.061255e-06 -6.638034e-07 7.380015e-06) (-1.754209e-07 -3.456425e-08 -9.105026e-08)) ((9.192880e-10 7.718194e-06 -4.421339e-10) (-1.223287e-08 1.191333e-02 1.053914e-08))
2.240256      	((-2.912565e-06 -4.076573e-07 5.390360e-06) (-1.749781e-07 -3.269132e-08 -1.277583e-07)) ((6.103972e-10 7.318092e-06 -2.251765e-10) (-1.095889e-08 1.164328e-02 9.705371e-09))
2.700307      	((3.265344e-06 -5.583648e-07 5.604892e-06) (-1.515125e-07 -3.125628e-08 -1.751769e-07)) ((7.785788e-10 6.934579e-06 8.421619e-11) (-8.003736e-09 1.136307e-02 8.906930e-09))
3.252369      	((-2.524884e-06 -1.164964e-06 1.368958e-06) (-1.037737e-07 -2.912805e-08 -2.192379e-07)) ((8.844569e-12 6.564097e-06 3.776863e-10) (-5.622909e-09 1.107884e-02 8.907273e-09))
3.914842      	((2.405812e-06 -1.057426e-06 9.933810e-09) (-6.381012e-08 -2.018249e-08 -2.544812e-07)) ((-1.805497e-10 6.186628e-06 2.288807e-10) (-3.439195e-09 1.079488e-02 8.135281e-09))
4.709811      	((-1.429092e-07 -1.084131e-06 -1.236693e-06) (-6.535410e-08 -9.950789e-09 -2.947707e-07)) ((2.120095e-10 5.804014e-06 -5.049435e-11) (-1.645812e-09 1.051135e-02 6.921182e-09))
5.663773      	((2.707240e-06 -5.018984e-07 -9.575513e-07) (-1.122051e-07 -9.471343e-09 -3.255061e-07)) ((9.359174e-11 5.388589e-06 1.433952e-10) (7.785409e-11 1.021619e-02 6.263252e-09))
6.808528      	((-6.300959e-09 5.165322e-07 3.117410e-06) (-1.589955e-07 -1.238515e-08 -2.809269e-07)) ((1.268343e-10 4.964949e-06 4.625970e-10) (2.479741e-09 9.895674e-03 6.112335e-09))
8.182233      	((-1.696326e-06 1.223169e-07 1.763789e-06) (-1.296367e-07 -1.734747e-08 -3.107772e-07)) ((-5.679041e-10 4.605894e-06 6.370779e-10) (1.520748e-09 9.548239e-03 6.379087e-09))
9.83068       	((-4.423000e-06 5.444023e-08 1.002442e-06) (-5.887636e-08 -2.098914e-08 -3.890080e-07)) ((-2.910787e-10 4.361131e-06 1.640856e-09) (4.011038e-09 9.180784e-03 3.922123e-09))
11.808816     	((-4.783259e-06 8.755303e-07 -2.193906e-06) (-8.098764e-08 -1.246759e-08 -3.511735e-07)) ((-1.773455e-10 4.191731e-06 1.620992e-09) (8.631623e-09 8.803357e-03 -1.927678e-09))
14.182579     	((-3.243580e-07 1.276935e-06 8.233940e-07) (-1.372062e-07 -4.706483e-09 -3.060644e-07)) ((-3.435250e-11 4.005037e-06 1.068571e-09) (7.224151e-09 8.426069e-03 -1.020365e-08))
17.031095     	((-2.722574e-06 7.551616e-07 1.816347e-06) (-2.105876e-07 -1.960971e-08 -3.458957e-07)) ((6.156761e-10 3.759783e-06 8.016387e-10) (-7.843376e-11 8.056953e-03 -1.495361e-08))
20.449314     	((2.170225e-06 -6.559774e-07 2.524239e-06) (-3.317890e-07 -1.551920e-08 -2.216855e-07)) ((9.561418e-10 3.427930e-06 5.556967e-10) (-1.101997e-08 7.698186e-03 -1.270303e-08))
24.551176     	((7.397308e-06 2.219946e-07 1.132789e-05) (4.959566e-08 2.344437e-08 1.780241e-07)) ((1.701414e-09 3.067476e-06 -3.971000e-10) (-1.865989e-08 7.346143e-03 -2.739816e-09))
29.473411     	((1.597888e-05 -5.682508e-08 1.948033e-05) (8.431550e-07 2.445426e-08 1.295573e-08)) ((1.215974e-09 2.705565e-06 1.817423e-10) (-2.344983e-08 6.999888e-03 7.358459e-09))
35.380094     	((1.800803e-05 -5.687809e-07 2.171193e-05) (5.961162e-07 3.248627e-08 -2.806715e-07)) ((-1.278417e-09 2.334759e-06 1.650468e-09) (-3.601248e-08 6.667677e-03 -9.213978e-10))
42.28724      	((7.989464e-06 1.969257e-06 2.340105e-05) (-8.281555e-08 6.713625e-08 -1.267313e-08)) ((-3.106557e-09 2.019586e-06 3.891893e-09) (-2.309037e-08 6.369625e-03 -1.502177e-08))
50.205321     	((1.946984e-05 1.365320e-06 3.346947e-05) (8.353930e-07 -6.763332e-08 7.164866e-07)) ((-7.145887e-09 1.734377e-06 6.778407e-09) (5.173488e-09 6.115922e-03 -3.110237e-08))
59.144987     	((2.653634e-05 4.929360e-07 3.375541e-05) (1.338257e-06 -1.933112e-08 8.022671e-07)) ((-9.067190e-09 1.520259e-06 6.770928e-09) (-2.881608e-09 5.908269e-03 -3.377673e-08))
69.108258     	((2.257912e-05 3.644593e-06 2.762630e-05) (7.659896e-07 -2.254127e-08 6.129894e-07)) ((-6.537075e-09 1.366254e-06 5.962405e-09) (-3.664771e-08 5.744922e-03 -4.929204e-08))
79.368928     	((1.702876e-05 3.800502e-06 1.901415e-05) (4.508288e-07 -1.159632e-07 1.267962e-07)) ((-7.550786e-09 1.251814e-06 6.486330e-09) (-7.650148e-08 5.624763e-03 -9.879998e-08))
89.655766     	((1.806812e-05 1.661979e-06 2.060319e-05) (7.763296e-07 -5.404286e-07 3.396027e-07)) ((-6.991445e-09 1.196285e-06 2.061817e-09) (-1.584696e-07 5.535662e-03 -9.823851e-08))
99.977914     	((4.369470e-05 -4.107318e-06 3.157463e-05) (2.129801e-06 -6.045935e-07 1.104275e-06)) ((-2.722555e-09 1.188442e-06 1.588736e-09) (-2.670578e-07 5.470288e-03 -3.555574e-08))
110.343295    	((5.022512e-05 -2.323226e-06 3.725615e-05) (2.743003e-06 -4.393401e-07 1.322500e-06)) ((3.580567e-10 1.171520e-06 3.623792e-09) (-3.248327e-07 5.423781e-03 5.970208e-08))
120.759204    	((4.494899e-05 -1.528183e-06 3.353642e-05) (1.918986e-06 -4.196870e-07 1.427223e-06)) ((-8.002249e-11 1.146990e-06 4.107075e-09) (-3.114531e-07 5.393986e-03 1.414468e-07))
131.236878    	((2.701706e-05 5.886744e-07 3.220063e-05) (8.320572e-07 -2.191218e-07 1.995412e-06)) ((4.079405e-10 1.110763e-06 3.450608e-09) (-3.059338e-07 5.379899e-03 2.070654e-07))
141.784932    	((3.468960e-05 -5.224735e-07 4.061933e-05) (1.988491e-07 -1.881266e-07 2.163122e-06)) ((5.439272e-09 1.077947e-06 1.618686e-09) (-3.504981e-07 5.381631e-03 2.650669e-07))
152.404815    	((5.451924e-05 -3.168508e-06 4.722029e-05) (-4.338345e-07 -2.334058e-07 2.073093e-06)) ((1.081859e-08 1.072822e-06 2.533138e-09) (-3.858368e-07 5.400311e-03 3.204850e-07))
163.091405    	((4.965487e-05 -9.731644e-06 3.470449e-05) (-1.603010e-06 -4.414724e-07 2.738258e-06)) ((1.521528e-08 1.084731e-06 1.702423e-09) (-4.024571e-07 5.435935e-03 3.815347e-07))
173.842001    	((5.607655e-05 -1.293450e-05 3.512759e-05) (-1.801142e-06 -6.043722e-07 2.264032e-06)) ((1.774732e-08 1.102760e-06 2.583338e-09) (-4.241708e-07 5.487493e-03 4.078648e-07))
184.646317    	((4.841187e-05 -1.675991e-05 2.498173e-05) (-1.894693e-06 -6.355301e-07 7.691848e-07)) ((2.399469e-08 1.132990e-06 -1.317718e-09) (-3.871937e-07 5.552529e-03 3.407247e-07))
195.483058    	((6.106354e-05 -1.728205e-05 3.954867e-05) (-1.487623e-06 -9.529037e-07 2.398882e-08)) ((2.057841e-08 1.168740e-06 -1.798473e-09) (-3.358288e-07 5.626327e-03 2.607269e-07))
206.308352    	((4.542940e-05 -2.750568e-05 3.637748e-05) (-5.842931e-08 -1.407884e-06 -2.151455e-06)) ((8.946803e-09 1.212160e-06 -2.401256e-09) (-3.038503e-07 5.701451e-03 9.585108e-08))
217.071551    	((1.980258e-05 -3.698410e-05 3.596023e-05) (3.657185e-07 -1.747031e-06 -3.114002e-06)) ((-1.025299e-09 1.259872e-06 1.344400e-09) (-3.680563e-07 5.770492e-03 -7.707877e-08))
227.744725    	((-1.938638e-05 -4.948887e-05 2.895656e-05) (8.626878e-08 -1.738090e-06 -3.097486e-06)) ((-4.115374e-09 1.305488e-06 3.910552e-09) (-4.264314e-07 5.828016e-03 -3.410625e-07))
238.316825    	((-2.888177e-05 -6.328022e-05 1.454330e-05) (-2.674765e-07 -1.551354e-06 -2.165065e-06)) ((-7.812647e-09 1.335607e-06 3.601677e-09) (-5.931185e-07 5.872106e-03 -5.672232e-07))
248.787805    	((-3.172895e-05 -7.384952e-05 2.558899e-05) (6.620607e-08 -1.503874e-06 -9.108900e-07)) ((-3.445555e-09 1.347125e-06 -4.818443e-09) (-9.329385e-07 5.902818e-03 -5.569442e-07))
259.167001    	((-2.571984e-05 -5.180367e-05 4.837359e-06) (7.293026e-08 -1.423252e-06 -1.396763e-08)) ((-1.546348e-09 1.348310e-06 -5.647915e-09) (-1.331502e-06 5.922076e-03 -2.292249e-07))
269.482824    	((-3.778114e-05 -3.682476e-05 1.034272e-05) (-3.866127e-07 -1.296182e-06 7.628087e-07)) ((1.318388e-10 1.341464e-06 -6.141610e-09) (-1.609986e-06 5.933509e-03 3.500498e-07))
279.752051    	((-1.966989e-05 -3.653779e-05 1.302124e-05) (-4.780252e-07 -1.246267e-06 1.447986e-06)) ((3.945485e-09 1.330664e-06 -9.098354e-09) (-1.627415e-06 5.939094e-03 1.064960e-06))
289.986007    	((-1.155053e-05 -4.536423e-05 1.098651e-05) (-2.243370e-07 -1.296219e-06 1.475487e-06)) ((8.775113e-09 1.325001e-06 -7.369074e-09) (-1.379617e-06 5.940426e-03 1.712596e-06))
300.191414    	((-1.339729e-05 -4.015049e-05 5.785729e-06) (-1.444447e-07 -1.379810e-06 1.237577e-06)) ((7.507223e-09 1.319802e-06 -6.891651e-09) (-8.756247e-07 5.939750e-03 2.212420e-06))
