# Forces      
# CofR        : (0.000000e+00 0.000000e+00 0.000000e+00)
# Time        forces(pressure viscous)	moments(pressure viscous)
0             	((0.000000e+00 0.000000e+00 0.000000e+00) (0.000000e+00 0.000000e+00 0.000000e+00)) ((0.000000e+00 0.000000e+00 0.000000e+00) (0.000000e+00 0.000000e+00 0.000000e+00))
0.012         	((1.397184e-06 -2.422449e-07 -2.870244e-05) (-1.984253e-10 -1.760842e-10 -2.608333e-09)) ((3.078817e-10 1.847170e-05 -7.865472e-10) (-4.803949e-11 9.532348e-04 2.452198e-12))
0.0264        	((-8.028061e-06 -3.100489e-07 3.159513e-05) (-1.037718e-09 -2.890998e-10 -3.629477e-09)) ((-2.606805e-10 8.189927e-06 -4.400839e-10) (-4.264801e-11 9.523217e-04 2.156742e-11))
0.04368       	((4.646174e-06 9.837805e-07 -5.834598e-06) (-1.735233e-09 -2.759160e-10 -3.925302e-09)) ((4.094248e-10 4.221411e-06 3.158749e-10) (9.306953e-12 9.512414e-04 6.061073e-11))
0.064416      	((-1.900484e-06 -5.816393e-07 7.383389e-06) (-1.894610e-09 -2.242846e-10 -3.837314e-09)) ((-2.556175e-10 1.907835e-06 -2.342712e-10) (6.105052e-11 9.499476e-04 1.045477e-10))
0.0892992     	((-2.268692e-07 6.705823e-07 -1.034655e-06) (-1.970506e-09 -2.017293e-10 -3.776311e-09)) ((3.118380e-10 1.264328e-06 1.139505e-10) (9.900406e-11 9.483979e-04 1.606601e-10))
0.119159      	((-1.132656e-06 1.640605e-07 2.544940e-06) (-1.991995e-09 -2.675914e-10 -3.903041e-09)) ((2.017360e-10 8.660785e-07 7.044805e-11) (1.118192e-10 9.465436e-04 2.283881e-10))
0.154991      	((-4.763530e-07 7.360903e-07 -1.094863e-06) (-1.783155e-09 -3.893920e-10 -4.135007e-09)) ((3.863850e-10 7.098480e-07 1.602947e-10) (1.372726e-10 9.443266e-04 2.744760e-10))
0.197989      	((-1.400941e-06 7.448387e-08 -4.934467e-07) (-1.457413e-09 -5.080807e-10 -4.585416e-09)) ((2.858837e-10 5.946127e-07 1.378675e-10) (1.904021e-10 9.416780e-04 3.153225e-10))
0.249587      	((-4.088265e-07 2.240110e-07 -4.416646e-07) (-1.202326e-09 -5.901628e-10 -5.029813e-09)) ((2.871567e-10 5.118178e-07 1.685114e-10) (2.350698e-10 9.385159e-04 3.657861e-10))
0.311504      	((-3.991658e-07 4.022242e-08 -4.772351e-07) (-1.135984e-09 -6.860842e-10 -5.457495e-09)) ((2.392368e-10 4.441047e-07 1.462069e-11) (2.740954e-10 9.347442e-04 4.211535e-10))
0.385805      	((2.162606e-07 8.061585e-08 -4.283579e-07) (-1.142587e-09 -7.614422e-10 -5.782587e-09)) ((3.685573e-10 3.855965e-07 -1.182778e-11) (3.281874e-10 9.302501e-04 4.814799e-10))
0.474966      	((8.072851e-08 1.709103e-07 -1.913920e-07) (-1.233501e-09 -7.766816e-10 -5.989317e-09)) ((2.510607e-10 3.347447e-07 -3.386667e-11) (3.932219e-10 9.249030e-04 5.298030e-10))
0.581959      	((2.395682e-07 1.267214e-07 -7.393532e-08) (-1.439063e-09 -8.273655e-10 -5.968097e-09)) ((1.188898e-10 2.923902e-07 -1.908369e-11) (4.346972e-10 9.185526e-04 5.796076e-10))
0.710351      	((2.465736e-08 1.631607e-07 -8.227217e-09) (-1.660706e-09 -9.538474e-10 -5.691058e-09)) ((6.920591e-11 2.546427e-07 -8.604830e-11) (4.382606e-10 9.110272e-04 6.462386e-10))
0.864421      	((2.533511e-07 1.732922e-07 1.758117e-09) (-1.800375e-09 -1.124392e-09 -5.253544e-09)) ((6.086113e-11 2.204632e-07 -1.042661e-10) (4.063342e-10 9.021328e-04 7.076272e-10))
1.049306      	((2.317478e-07 1.602782e-07 -1.122967e-08) (-1.973950e-09 -1.314315e-09 -4.815151e-09)) ((6.048356e-11 1.879170e-07 -1.263656e-10) (3.518764e-10 8.916548e-04 7.446399e-10))
1.271167      	((3.964083e-07 1.716141e-07 2.480765e-08) (-2.149842e-09 -1.451379e-09 -4.434148e-09)) ((6.752800e-11 1.566870e-07 -1.070410e-10) (2.920752e-10 8.793607e-04 7.635799e-10))
1.5374        	((7.674332e-08 5.684128e-08 -1.339893e-08) (-2.297975e-09 -1.501759e-09 -4.051459e-09)) ((3.925106e-11 1.311247e-07 -6.512249e-11) (2.111246e-10 8.650069e-04 7.685866e-10))
1.85688       	((2.914103e-07 8.511134e-08 1.165557e-08) (-2.474699e-09 -1.526008e-09 -3.637211e-09)) ((5.884610e-11 1.129235e-07 -6.553568e-11) (1.246243e-10 8.483510e-04 7.531766e-10))
2.240256      	((6.463371e-08 4.177985e-08 -3.790593e-08) (-2.612475e-09 -1.588670e-09 -3.235010e-09)) ((3.195161e-11 1.009974e-07 -5.932266e-11) (3.338340e-11 8.291690e-04 7.454836e-10))
2.700307      	((1.875735e-07 2.660667e-08 4.142983e-09) (-2.597160e-09 -1.702561e-09 -2.960175e-09)) ((7.363866e-12 9.318274e-08 -6.062895e-11) (-7.595968e-11 8.072813e-04 7.583142e-10))
3.252369      	((3.028549e-09 3.815330e-08 -2.033491e-08) (-2.438529e-09 -1.864887e-09 -2.699706e-09)) ((-4.169331e-12 8.789490e-08 -5.454254e-11) (-1.978007e-10 7.825874e-04 7.746236e-10))
3.914842      	((1.239495e-07 4.243184e-08 -2.128127e-08) (-2.070110e-09 -2.033118e-09 -2.344492e-09)) ((-3.904746e-12 8.384038e-08 -7.624250e-11) (-3.342415e-10 7.551094e-04 7.906474e-10))
4.709811      	((-3.105383e-08 -6.263572e-09 -4.746058e-08) (-1.120898e-09 -2.030560e-09 -1.702872e-09)) ((8.010994e-12 8.027415e-08 -5.351973e-11) (-4.386073e-10 7.250364e-04 8.076873e-10))
5.663773      	((7.888037e-08 3.172902e-08 -3.919604e-09) (-8.536866e-11 -1.911301e-09 -1.666637e-09)) ((2.355739e-11 7.661365e-08 -4.991021e-11) (-5.040550e-10 6.927565e-04 8.232134e-10))
6.808528      	((-1.356488e-08 -1.126109e-09 -6.954386e-08) (1.116845e-09 -1.925528e-09 -1.580706e-09)) ((1.884729e-11 7.263746e-08 -3.949161e-11) (-5.656950e-10 6.588599e-04 8.326597e-10))
8.182233      	((9.990716e-08 1.971367e-08 -3.354229e-08) (3.171732e-09 -2.403410e-09 2.353541e-10)) ((1.434067e-11 6.854370e-08 -3.750998e-11) (-6.105979e-10 6.241198e-04 8.273327e-10))
9.83068       	((4.658697e-08 -2.613106e-08 -6.278052e-08) (4.484516e-09 -3.327603e-09 2.709328e-09)) ((1.918862e-11 6.415449e-08 -2.429108e-11) (-6.102585e-10 5.893551e-04 8.385964e-10))
11.808816     	((-1.341300e-09 5.474169e-09 -9.933619e-09) (1.698643e-09 -5.198245e-09 3.069734e-09)) ((3.619558e-11 5.978391e-08 -4.055654e-13) (-6.013495e-10 5.552710e-04 7.637154e-10))
14.182579     	((-3.686008e-08 9.574935e-09 -3.481695e-08) (-1.219175e-09 -7.425320e-09 3.141339e-09)) ((4.313441e-11 5.483297e-08 2.060234e-12) (-6.353665e-10 5.222973e-04 5.249715e-10))
17.031095     	((-1.562106e-08 -1.047680e-08 6.095096e-08) (-2.591781e-09 -8.124801e-09 3.514445e-09)) ((1.660500e-11 4.880706e-08 -2.777294e-12) (-5.911229e-10 4.901800e-04 2.460291e-10))
20.449314     	((-4.613938e-08 3.737091e-09 9.102101e-10) (-5.607172e-09 -6.920361e-09 1.337438e-09)) ((1.949623e-11 4.213242e-08 2.541551e-11) (-5.440994e-10 4.580891e-04 2.479242e-10))
24.551176     	((-3.287556e-08 -9.413664e-09 1.107806e-07) (-7.852106e-09 -4.660597e-09 -7.543110e-10)) ((9.795182e-12 3.574426e-08 1.569314e-11) (-6.208277e-10 4.256538e-04 3.979239e-10))
29.473411     	((-5.647538e-08 3.508430e-09 5.577528e-08) (-6.984714e-09 -2.999801e-09 -2.305375e-09)) ((-2.529601e-12 3.040621e-08 1.077149e-11) (-6.098595e-10 3.932166e-04 4.120475e-10))
35.380094     	((-3.347167e-08 -8.301630e-09 1.049224e-07) (3.667835e-10 -1.529320e-09 -2.849585e-09)) ((-5.815199e-12 2.674724e-08 1.690261e-11) (-4.862138e-10 3.614187e-04 2.634134e-10))
42.468112     	((1.087941e-09 -8.941723e-09 6.305403e-08) (7.347089e-09 -1.054131e-09 -3.338773e-09)) ((-1.581274e-11 2.413223e-08 2.335697e-11) (-5.034423e-10 3.309215e-04 -3.722823e-11))
50.973735     	((-4.254087e-08 -3.245432e-08 7.121800e-08) (6.191759e-09 -4.966398e-10 -3.662099e-09)) ((-1.993654e-11 2.161468e-08 2.612746e-11) (-5.656510e-10 3.021170e-04 -3.475506e-10))
61.180482     	((-5.655439e-08 -9.843186e-09 2.196981e-08) (2.854590e-09 1.904044e-10 1.168481e-10)) ((-1.073990e-11 1.908895e-08 1.069220e-11) (-8.145985e-10 2.750472e-04 -4.374037e-10))
73.428578     	((5.107731e-08 1.219101e-08 1.078572e-07) (1.474987e-09 5.987939e-10 4.436352e-09)) ((-1.188182e-12 1.593067e-08 -2.372232e-12) (-1.416648e-09 2.497479e-04 -2.544849e-11))
88.126294     	((7.425248e-08 1.256209e-08 2.232044e-07) (-1.963313e-09 -9.756522e-10 6.736706e-10)) ((-1.636303e-11 1.206562e-08 1.372863e-11) (-1.467799e-09 2.262955e-04 2.474964e-10))
105.763553    	((1.563960e-07 4.627209e-08 2.923160e-07) (1.995247e-08 -1.521633e-09 1.053697e-08)) ((-4.918408e-11 8.378225e-09 2.771120e-11) (-7.840765e-10 2.049704e-04 6.243121e-11))
126.928263    	((1.825860e-07 3.159118e-08 2.924246e-07) (4.252791e-08 -1.076584e-09 2.295198e-08)) ((-6.044027e-11 5.258810e-09 4.651221e-11) (-1.412559e-10 1.861254e-04 -1.000109e-09))
152.325916    	((1.801587e-07 1.794605e-08 2.681212e-07) (4.852687e-08 3.488924e-09 3.113766e-08)) ((-2.987910e-11 2.663210e-09 2.393325e-11) (-8.713501e-10 1.698316e-04 -2.188648e-09))
182.803099    	((2.474253e-07 2.205274e-08 2.966431e-07) (1.610346e-08 2.281630e-09 3.254849e-08)) ((-6.066655e-11 7.059836e-10 7.738976e-11) (-2.292076e-09 1.559302e-04 -3.389772e-09))
219.375719    	((1.779531e-07 2.279284e-08 1.699546e-07) (-1.571333e-08 -1.363939e-08 3.542498e-08)) ((-7.689133e-11 -2.615797e-10 1.126175e-10) (-4.855700e-09 1.441270e-04 -5.046376e-09))
263.262863    	((2.687254e-07 3.644019e-08 9.522493e-08) (-7.039521e-09 -1.091435e-08 7.748993e-08)) ((-6.516356e-11 -9.452799e-10 9.372579e-11) (-7.710646e-09 1.340470e-04 -7.467724e-09))
315.927436    	((2.551557e-07 6.096504e-08 1.546665e-07) (8.292460e-09 -9.693169e-09 1.162787e-07)) ((-5.288095e-11 -1.385992e-09 7.060929e-11) (-1.045553e-08 1.253291e-04 -9.380539e-09))
379.124923    	((3.888301e-07 4.852723e-08 8.390646e-08) (4.702262e-08 -7.661008e-09 1.446408e-07)) ((-4.287716e-11 -1.770475e-09 5.520018e-11) (-1.352112e-08 1.176956e-04 -9.524180e-09))
454.961908    	((3.712817e-07 3.628002e-08 1.620433e-07) (8.854912e-08 -7.238952e-09 1.817100e-07)) ((-3.200351e-11 -2.208497e-09 3.244594e-11) (-1.565692e-08 1.109977e-04 -7.626395e-09))
544.113157    	((3.929273e-07 -2.716495e-08 1.886637e-07) (1.520845e-07 -1.687401e-08 1.881432e-07)) ((-5.545819e-12 -2.439808e-09 3.435978e-12) (-1.593649e-08 1.051978e-04 -4.463021e-09))
646.770926    	((3.739803e-07 -7.346141e-08 2.311993e-07) (1.394600e-07 -2.340061e-08 1.568239e-07)) ((-3.198109e-11 -2.437040e-09 4.009279e-11) (-1.445632e-08 1.002256e-04 -9.993520e-10))
763.170599    	((2.154895e-07 -8.816673e-08 2.021008e-07) (7.456435e-08 -2.383731e-08 1.227367e-07)) ((-2.734274e-11 -2.401949e-09 4.905782e-11) (-1.281378e-08 9.603463e-05 1.861333e-09))
893.591949    	((2.568079e-07 -7.265428e-08 1.822015e-07) (1.490674e-08 -1.194145e-08 1.131147e-07)) ((-7.465237e-12 -2.281188e-09 2.549742e-11) (-1.163834e-08 9.264441e-05 4.211310e-09))
1036.934318   	((2.330971e-07 -7.142229e-08 1.297058e-07) (-3.800338e-09 -1.338531e-08 1.233226e-07)) ((1.477667e-11 -2.055307e-09 2.489432e-12) (-1.084193e-08 9.007032e-05 6.977319e-09))
1183.959894   	((2.109057e-07 -8.260320e-08 1.184871e-07) (-1.766096e-08 -8.516460e-09 1.112020e-07)) ((1.568393e-11 -1.795137e-09 1.276132e-11) (-9.433447e-09 8.830902e-05 1.023373e-08))
1334.340817   	((2.580639e-07 -3.606318e-08 8.021922e-08) (-7.576332e-09 -3.302839e-09 9.936663e-08)) ((3.326152e-11 -1.418365e-09 -3.352398e-12) (-7.175987e-09 8.722873e-05 1.272159e-08))
1487.686232   	((2.891834e-07 -6.028363e-09 9.516367e-08) (1.269055e-10 1.000349e-08 9.190106e-08)) ((2.882431e-11 -1.065776e-09 -8.994042e-12) (-4.347910e-09 8.678375e-05 1.449294e-08))
1641.029722   	((2.856585e-07 1.440602e-08 6.995356e-08) (1.883127e-08 1.706614e-08 9.912574e-08)) ((2.874703e-11 -8.310750e-10 -2.129102e-11) (-2.124996e-09 8.694866e-05 1.416429e-08))
1793.613262   	((2.953271e-07 2.197501e-08 1.026908e-07) (3.879079e-09 2.297740e-08 9.840974e-08)) ((2.321828e-12 -6.516863e-10 -1.799534e-11) (-6.062340e-10 8.768910e-05 1.173601e-08))
1944.769773   	((3.957722e-07 4.079626e-08 1.515008e-07) (4.117747e-12 2.272740e-08 8.099597e-08)) ((-1.200822e-11 -5.072468e-10 -1.733886e-11) (-1.096227e-09 8.896811e-05 9.058362e-09))
2094.052335   	((4.526905e-07 1.704808e-08 1.911579e-07) (5.900482e-09 2.121190e-08 4.976561e-08)) ((-2.389917e-11 -4.571224e-10 -1.136395e-11) (-2.991908e-09 9.071362e-05 6.946722e-09))
2241.199494   	((4.011774e-07 1.086316e-08 2.333918e-07) (1.708910e-08 1.869312e-08 1.665557e-08)) ((-3.999453e-11 -4.382617e-10 1.922505e-11) (-5.985721e-09 9.284789e-05 5.765139e-09))
2386.19441    	((2.173924e-07 -1.645360e-09 2.011072e-07) (2.368858e-08 1.600465e-08 -3.013598e-09)) ((-5.039675e-11 -4.548856e-10 3.817233e-11) (-8.917652e-09 9.524079e-05 6.565641e-09))
2529.149302   	((6.547474e-08 -4.260334e-08 2.090707e-07) (3.924754e-08 1.320077e-08 -3.910510e-09)) ((-4.826188e-11 -6.564524e-10 5.893907e-11) (-1.045507e-08 9.767050e-05 8.776854e-09))
2670.293324   	((-1.335830e-07 4.234820e-09 2.222026e-07) (2.601797e-08 1.836911e-08 -7.554488e-09)) ((-4.769148e-11 -7.934310e-10 6.424506e-11) (-1.108160e-08 9.989184e-05 1.164818e-08))
2809.960792   	((-2.662324e-07 1.038873e-08 2.458998e-07) (-1.484166e-08 2.380455e-08 -2.117546e-08)) ((-3.835127e-11 -7.591578e-10 5.652779e-11) (-1.024965e-08 1.016891e-04 1.410340e-08))
2947.408806   	((-2.274494e-07 -2.642973e-08 2.056973e-07) (-1.193288e-08 2.539946e-08 4.326777e-09)) ((-2.126985e-11 -7.277053e-10 4.628602e-11) (-8.005309e-09 1.029310e-04 1.443321e-08))
3081.797489   	((-1.515742e-07 -5.050601e-08 2.543169e-07) (-4.431459e-09 3.005178e-08 1.974078e-08)) ((-6.639414e-12 -7.297199e-10 3.082094e-11) (-5.546890e-09 1.036057e-04 1.421993e-08))
3213.803399   	((-1.882366e-07 -8.873429e-08 1.818620e-07) (2.716316e-08 2.820403e-08 4.669449e-08)) ((-8.322759e-12 -9.150737e-10 2.950318e-11) (-3.377912e-09 1.037921e-04 1.274222e-08))
3343.980196   	((-1.938424e-07 -9.974572e-08 3.884157e-08) (2.392436e-08 2.642067e-08 4.515305e-08)) ((-8.991908e-12 -1.004147e-09 2.409942e-11) (-1.775824e-09 1.036205e-04 1.048103e-08))
3472.833174   	((-7.194623e-08 -1.997354e-08 2.335370e-08) (1.899603e-08 2.786752e-08 4.949011e-08)) ((7.313340e-12 -1.070143e-09 -6.633982e-12) (-9.571555e-10 1.032112e-04 7.544970e-09))
3600.874189   	((1.478957e-08 4.543657e-08 -2.914059e-09) (2.769075e-08 3.092349e-08 5.700287e-08)) ((2.375323e-11 -1.107298e-09 -3.052274e-11) (-7.311826e-10 1.026714e-04 3.988444e-09))
3728.476614   	((4.650183e-08 2.577364e-08 -2.365741e-08) (4.561458e-08 2.905214e-08 5.881902e-08)) ((2.735801e-11 -1.130843e-09 -3.677880e-11) (-1.373115e-09 1.020912e-04 2.737212e-10))
