# Forces      
# CofR        : (0.000000e+00 0.000000e+00 0.000000e+00)
# Time        forces(pressure viscous)	moments(pressure viscous)
0             	((0.000000e+00 0.000000e+00 0.000000e+00) (1.391734e-08 -1.263452e+02 1.105559e-08)) ((0.000000e+00 0.000000e+00 0.000000e+00) (-6.934716e-07 -6.372349e-10 -3.820075e-05))
0.0112164     	((3.197145e+01 -1.582558e+05 3.495316e+01) (9.646751e-03 -3.302771e+02 1.130059e-02)) ((4.642823e-03 5.064910e-03 -2.617647e-02) (1.542664e-02 -1.170913e-04 -1.531226e-02))
0.024676      	((-1.234748e+01 7.335181e+04 -1.233700e+01) (3.352327e-03 -3.231936e+02 5.223567e-03)) ((-1.839733e-03 3.949092e-03 8.504808e-03) (6.598817e-03 -5.020879e-04 -8.334855e-03))
0.0408276     	((-6.121006e+00 -1.483241e+04 -7.209691e+00) (1.454660e-02 -2.703063e+02 4.645701e-03)) ((2.588428e-05 4.465492e-03 -1.368545e-03) (7.466495e-03 -7.298316e-04 -9.210899e-03))
0.0602094     	((-1.270204e+00 6.091547e+03 -2.202219e+00) (6.391576e-03 -2.550865e+02 -2.015147e-03)) ((5.547052e-04 3.261526e-03 7.870887e-05) (9.401091e-03 -2.856976e-04 -1.039536e-02))
0.0829351     	((-2.453629e+00 -4.043093e+03 -1.936279e+00) (-1.132959e-02 -2.449163e+02 -4.683187e-03)) ((7.700244e-04 3.571905e-03 -9.248662e-04) (4.222679e-03 3.355241e-04 -5.432390e-03))
0.108982      	((-1.037122e+00 5.577367e+02 2.167031e-01) (-1.584471e-02 -2.427568e+02 -2.634204e-03)) ((2.326512e-04 2.963644e-03 -7.216205e-04) (4.009897e-03 1.952910e-04 -6.826285e-03))
0.138327      	((-3.510585e+00 -1.577768e+03 -2.778293e-01) (-4.509614e-02 -2.412202e+02 -6.430832e-03)) ((3.756970e-04 3.239520e-03 -4.479774e-04) (-9.170472e-04 4.608863e-04 -5.516066e-03))
0.170947      	((-2.526628e+00 -6.122580e+02 -3.303112e-01) (-3.557753e-02 -2.409067e+02 1.324084e-05)) ((1.442878e-04 4.398727e-03 -8.948257e-04) (-2.884035e-03 5.214194e-04 -4.267262e-03))
0.203756      	((6.166259e-01 -1.126243e+03 -6.441249e-01) (-1.931848e-02 -2.413376e+02 -7.945665e-04)) ((1.521330e-04 4.010101e-03 -8.151701e-04) (-4.231501e-03 8.750212e-04 -2.153037e-03))
0.236428      	((-6.704087e-02 -9.114382e+02 -1.084288e+00) (-1.094368e-02 -2.425281e+02 -5.052597e-03)) ((4.366528e-04 3.793382e-03 -4.280882e-04) (-4.687914e-03 1.176735e-03 7.052242e-04))
0.268884      	((8.999447e-01 -1.066306e+03 -2.861917e-01) (-2.755947e-03 -2.437412e+02 -1.278286e-03)) ((2.390374e-04 4.295632e-03 -6.430201e-04) (-5.572506e-03 1.150027e-03 2.541156e-03))
0.3011        	((1.504539e+00 -1.031185e+03 5.758099e-01) (-4.476941e-03 -2.447050e+02 1.474337e-03)) ((4.102550e-04 4.379469e-03 -6.117868e-04) (-5.983347e-03 1.213444e-03 2.425254e-03))
0.333158      	((2.397143e+00 -1.073467e+03 1.231699e+00) (5.337151e-04 -2.451301e+02 4.458268e-03)) ((2.448291e-04 3.815529e-03 -5.578344e-04) (-5.675308e-03 1.367038e-03 1.756898e-03))
0.365071      	((3.856077e+00 -1.075344e+03 1.976297e+00) (3.790576e-03 -2.450840e+02 4.168079e-03)) ((2.271954e-04 4.406387e-03 -5.339862e-04) (-5.193622e-03 1.203959e-03 -1.497286e-04))
0.396939      	((4.322993e+00 -1.083834e+03 2.801930e+00) (5.611135e-06 -2.447791e+02 4.694579e-03)) ((2.486646e-04 3.994489e-03 -5.553409e-04) (-3.558966e-03 1.164308e-03 -2.000035e-03))
0.428869      	((5.337557e+00 -1.083556e+03 3.652213e+00) (-2.654532e-04 -2.443979e+02 4.317005e-03)) ((3.669886e-04 3.816060e-03 -6.588781e-04) (-1.872586e-03 1.122417e-03 -3.678498e-03))
0.460864      	((6.850573e+00 -1.082576e+03 4.531540e+00) (1.467566e-03 -2.440308e+02 4.427810e-03)) ((5.079527e-04 3.977886e-03 -5.972395e-04) (-3.957944e-04 1.211821e-03 -6.250165e-03))
0.492886      	((8.119436e+00 -1.083397e+03 5.865205e+00) (4.718362e-03 -2.437102e+02 7.675389e-03)) ((5.760167e-04 3.606908e-03 -8.557982e-04) (4.515732e-04 1.558153e-03 -7.222842e-03))
0.524895      	((9.658990e+00 -1.077997e+03 6.708980e+00) (7.559884e-03 -2.434045e+02 9.575993e-03)) ((5.603889e-04 3.680164e-03 -4.842521e-04) (5.961660e-04 1.742526e-03 -7.670459e-03))
0.556891      	((1.095168e+01 -1.074439e+03 7.818082e+00) (1.072481e-02 -2.431249e+02 1.210065e-02)) ((6.417343e-04 3.367692e-03 -6.563094e-04) (6.256152e-04 1.844564e-03 -7.859085e-03))
0.588891      	((1.295833e+01 -1.070062e+03 9.397747e+00) (1.451324e-02 -2.428786e+02 1.535181e-02)) ((5.725636e-04 3.353981e-03 -5.128688e-04) (8.443155e-04 1.920901e-03 -8.235856e-03))
0.6209        	((1.487178e+01 -1.066419e+03 1.101147e+01) (1.578379e-02 -2.426693e+02 1.768375e-02)) ((5.330181e-04 3.195771e-03 -3.554819e-04) (1.706788e-03 1.921717e-03 -9.176871e-03))
0.652916      	((1.703721e+01 -1.062903e+03 1.272907e+01) (1.692202e-02 -2.424914e+02 1.862782e-02)) ((5.411918e-04 3.115370e-03 -5.279135e-04) (3.491946e-03 1.932258e-03 -1.113483e-02))
0.684936      	((1.972484e+01 -1.061275e+03 1.468013e+01) (1.747151e-02 -2.423398e+02 1.780845e-02)) ((5.609447e-04 3.072275e-03 -3.957238e-04) (6.454111e-03 1.941087e-03 -1.463589e-02))
0.716958      	((2.271662e+01 -1.060879e+03 1.695383e+01) (1.581339e-02 -2.422117e+02 1.547337e-02)) ((6.734675e-04 3.004621e-03 -5.299746e-04) (1.070011e-02 1.933271e-03 -1.970368e-02))
0.748984      	((2.612814e+01 -1.061756e+03 1.975596e+01) (1.203774e-02 -2.420990e+02 1.220868e-02)) ((8.097647e-04 2.972157e-03 -6.595028e-04) (1.609299e-02 1.946209e-03 -2.592125e-02))
0.781013      	((3.036263e+01 -1.062913e+03 2.312772e+01) (7.589173e-03 -2.419989e+02 8.091960e-03)) ((9.440591e-04 2.931665e-03 -7.684427e-04) (2.276390e-02 1.949877e-03 -3.346254e-02))
0.813044      	((3.541553e+01 -1.064078e+03 2.718658e+01) (3.943213e-03 -2.419117e+02 3.655658e-03)) ((1.070406e-03 2.888544e-03 -8.373370e-04) (3.063627e-02 1.944195e-03 -4.246023e-02))
0.845076      	((4.141565e+01 -1.064797e+03 3.203389e+01) (-8.051462e-04 -2.418369e+02 -1.452521e-03)) ((1.224028e-03 2.837420e-03 -8.974251e-04) (3.945345e-02 1.930473e-03 -5.264256e-02))
0.87711       	((4.832576e+01 -1.065208e+03 3.774581e+01) (-6.876353e-03 -2.417702e+02 -6.653173e-03)) ((1.413579e-03 2.788037e-03 -9.555668e-04) (4.917411e-02 1.921252e-03 -6.410028e-02))
0.909144      	((5.647470e+01 -1.065364e+03 4.438671e+01) (-1.197739e-02 -2.417095e+02 -1.114040e-02)) ((1.551053e-03 2.752996e-03 -9.493138e-04) (6.005622e-02 1.913645e-03 -7.722807e-02))
0.941179      	((6.584331e+01 -1.065551e+03 5.194430e+01) (-1.545856e-02 -2.416550e+02 -1.507519e-02)) ((1.719110e-03 2.722348e-03 -9.316178e-04) (7.224952e-02 1.911822e-03 -9.210567e-02))
0.973214      	((7.642428e+01 -1.065713e+03 6.048503e+01) (-1.880349e-02 -2.416056e+02 -1.848174e-02)) ((1.934358e-03 2.710305e-03 -9.821209e-04) (8.569001e-02 1.917479e-03 -1.084602e-01))
1.005248      	((8.818702e+01 -1.065941e+03 7.012252e+01) (-2.278640e-02 -2.415575e+02 -2.122855e-02)) ((2.217284e-03 2.681051e-03 -1.077154e-03) (1.003275e-01 1.918911e-03 -1.263709e-01))
1.037282      	((1.014183e+02 -1.066308e+03 8.085365e+01) (-2.543715e-02 -2.415090e+02 -2.312113e-02)) ((2.501934e-03 2.650445e-03 -1.142460e-03) (1.163148e-01 1.912087e-03 -1.461845e-01))
1.069315      	((1.163431e+02 -1.067042e+03 9.287470e+01) (-2.637042e-02 -2.414615e+02 -2.423326e-02)) ((2.864233e-03 2.605846e-03 -1.245775e-03) (1.338627e-01 1.908048e-03 -1.681943e-01))
1.101346      	((1.329926e+02 -1.068052e+03 1.062676e+02) (-2.766005e-02 -2.414149e+02 -2.491007e-02)) ((3.236732e-03 2.564285e-03 -1.371454e-03) (1.532510e-01 1.904155e-03 -1.926293e-01))
1.133375      	((1.515056e+02 -1.069173e+03 1.212194e+02) (-2.994778e-02 -2.413674e+02 -2.544526e-02)) ((3.593546e-03 2.518990e-03 -1.469672e-03) (1.748803e-01 1.897971e-03 -2.199298e-01))
1.165402      	((1.722556e+02 -1.070204e+03 1.377669e+02) (-3.157821e-02 -2.413196e+02 -2.587081e-02)) ((3.910142e-03 2.478849e-03 -1.485620e-03) (1.990057e-01 1.906888e-03 -2.505117e-01))
1.197426      	((1.955414e+02 -1.071082e+03 1.561387e+02) (-3.224917e-02 -2.412744e+02 -2.655747e-02)) ((4.209479e-03 2.439378e-03 -1.468762e-03) (2.256178e-01 1.940471e-03 -2.844562e-01))
1.229447      	((2.212777e+02 -1.071950e+03 1.764169e+02) (-3.358427e-02 -2.412326e+02 -2.752872e-02)) ((4.464149e-03 2.398185e-03 -1.424750e-03) (2.549745e-01 1.969692e-03 -3.217886e-01))
1.261464      	((2.496104e+02 -1.073079e+03 1.988361e+02) (-3.550304e-02 -2.411927e+02 -2.823442e-02)) ((4.741834e-03 2.335378e-03 -1.316123e-03) (2.875212e-01 1.986519e-03 -3.628891e-01))
1.293477      	((2.812848e+02 -1.074172e+03 2.237132e+02) (-3.616391e-02 -2.411557e+02 -2.880552e-02)) ((5.003334e-03 2.288531e-03 -1.181024e-03) (3.235651e-01 1.981524e-03 -4.084113e-01))
1.325485      	((3.165083e+02 -1.075648e+03 2.513704e+02) (-3.535439e-02 -2.411242e+02 -2.919747e-02)) ((5.327643e-03 2.245226e-03 -1.034978e-03) (3.632333e-01 1.972035e-03 -4.588724e-01))
1.357488      	((3.555549e+02 -1.077399e+03 2.821768e+02) (-3.527582e-02 -2.410996e+02 -2.888663e-02)) ((5.728037e-03 2.164393e-03 -8.994282e-04) (4.069812e-01 1.979603e-03 -5.145126e-01))
1.389484      	((3.989245e+02 -1.079773e+03 3.165250e+02) (-3.569286e-02 -2.410819e+02 -2.786079e-02)) ((6.245281e-03 2.036311e-03 -7.431971e-04) (4.554239e-01 1.954863e-03 -5.758610e-01))
1.421474      	((4.473409e+02 -1.082674e+03 3.544917e+02) (-3.377608e-02 -2.410726e+02 -2.676552e-02)) ((6.847606e-03 1.939273e-03 -5.299816e-04) (5.088634e-01 1.882557e-03 -6.439047e-01))
1.453455      	((5.011194e+02 -1.086662e+03 3.964810e+02) (-2.927503e-02 -2.410742e+02 -2.502313e-02)) ((7.503023e-03 1.834399e-03 -2.569054e-04) (5.676326e-01 1.768322e-03 -7.194976e-01))
1.485427      	((5.601778e+02 -1.091735e+03 4.427911e+02) (-2.452810e-02 -2.410882e+02 -2.145708e-02)) ((8.251081e-03 1.670131e-03 4.980079e-05) (6.320834e-01 1.672316e-03 -8.028401e-01))
1.517389      	((6.249255e+02 -1.098107e+03 4.935012e+02) (-1.916003e-02 -2.411155e+02 -1.552030e-02)) ((9.105204e-03 1.445099e-03 3.992313e-04) (7.023589e-01 1.664643e-03 -8.942808e-01))
1.54934       	((6.963609e+02 -1.106312e+03 5.485700e+02) (-9.775481e-03 -2.411578e+02 -7.666813e-03)) ((1.014061e-02 1.213174e-03 7.499176e-04) (7.789125e-01 1.710977e-03 -9.948021e-01))
1.581277      	((7.739327e+02 -1.116666e+03 6.081299e+02) (3.495892e-03 -2.412189e+02 1.363728e-03)) ((1.116988e-02 9.868848e-04 1.272899e-03) (8.622769e-01 1.687626e-03 -1.104293e+00))
1.613198      	((8.570208e+02 -1.129445e+03 6.720853e+02) (1.936192e-02 -2.413020e+02 1.262438e-02)) ((1.215834e-02 6.837966e-04 1.995685e-03) (9.526074e-01 1.560623e-03 -1.222240e+00))
1.645104      	((9.456610e+02 -1.145982e+03 7.399793e+02) (3.963361e-02 -2.414092e+02 2.742855e-02)) ((1.315887e-02 4.110437e-04 2.866328e-03) (1.049727e+00 1.446533e-03 -1.348806e+00))
1.676994      	((1.037694e+03 -1.166120e+03 8.106726e+02) (6.733822e-02 -2.415425e+02 4.716064e-02)) ((1.416197e-02 2.077083e-05 4.037933e-03) (1.152626e+00 1.356056e-03 -1.483367e+00))
1.708864      	((1.132063e+03 -1.190253e+03 8.825547e+02) (1.022374e-01 -2.417009e+02 7.450826e-02)) ((1.505101e-02 -4.278334e-04 5.409890e-03) (1.258715e+00 1.423935e-03 -1.623685e+00))
1.740715      	((1.224356e+03 -1.220834e+03 9.526133e+02) (1.447277e-01 -2.418805e+02 1.120427e-01)) ((1.537922e-02 -9.853969e-04 7.135086e-03) (1.365349e+00 1.860776e-03 -1.766959e+00))
1.772546      	((1.309352e+03 -1.258079e+03 1.015909e+03) (1.955748e-01 -2.420775e+02 1.582194e-01)) ((1.495452e-02 -1.580696e-03 9.441719e-03) (1.469659e+00 2.501226e-03 -1.910139e+00))
1.804357      	((1.381137e+03 -1.299105e+03 1.068497e+03) (2.495239e-01 -2.422909e+02 2.083471e-01)) ((1.371968e-02 -2.051847e-03 1.214367e-02) (1.568064e+00 3.236279e-03 -2.048373e+00))
1.836147      	((1.435986e+03 -1.343435e+03 1.105424e+03) (3.036480e-01 -2.425215e+02 2.578272e-01)) ((1.150106e-02 -2.161444e-03 1.519664e-02) (1.656466e+00 3.934537e-03 -2.176186e+00))
1.867916      	((1.465064e+03 -1.382882e+03 1.122152e+03) (3.529664e-01 -2.427666e+02 3.018788e-01)) ((8.667495e-03 -1.731501e-03 1.858354e-02) (1.730290e+00 4.418820e-03 -2.287034e+00))
1.899668      	((1.469198e+03 -1.411950e+03 1.118378e+03) (3.915605e-01 -2.430193e+02 3.382607e-01)) ((5.310729e-03 -1.135229e-03 2.145572e-02) (1.783945e+00 4.420298e-03 -2.373398e+00))
1.931404      	((1.448604e+03 -1.433263e+03 1.096734e+03) (4.150505e-01 -2.432722e+02 3.644251e-01)) ((2.125092e-03 1.158502e-04 2.395404e-02) (1.814630e+00 3.676342e-03 -2.431601e+00))
1.963129      	((1.409691e+03 -1.445341e+03 1.060386e+03) (4.172761e-01 -2.435117e+02 3.752143e-01)) ((-1.387795e-04 1.268139e-03 2.533931e-02) (1.823430e+00 2.664915e-03 -2.463696e+00))
1.994845      	((1.360259e+03 -1.450585e+03 1.018264e+03) (3.874956e-01 -2.437253e+02 3.670978e-01)) ((-1.025133e-03 1.815050e-03 2.529988e-02) (1.815645e+00 1.899949e-03 -2.476457e+00))
2.026556      	((1.309655e+03 -1.451725e+03 9.782432e+02) (3.281999e-01 -2.439042e+02 3.389411e-01)) ((-2.825112e-04 2.211811e-03 2.429725e-02) (1.798399e+00 1.220958e-03 -2.476164e+00))
2.058267      	((1.270604e+03 -1.447972e+03 9.452109e+02) (2.517423e-01 -2.440457e+02 2.934656e-01)) ((2.025906e-03 2.073232e-03 2.242730e-02) (1.778087e+00 4.863171e-04 -2.469649e+00))
2.089979      	((1.244581e+03 -1.441604e+03 9.220525e+02) (1.728493e-01 -2.441552e+02 2.407628e-01)) ((4.786398e-03 1.203011e-03 2.083626e-02) (1.757594e+00 -4.009436e-04 -2.459999e+00))
2.121694      	((1.232600e+03 -1.434516e+03 9.105680e+02) (1.028414e-01 -2.442402e+02 1.907306e-01)) ((7.428419e-03 -4.905632e-04 2.058428e-02) (1.739319e+00 -1.168342e-03 -2.449555e+00))
2.153414      	((1.232054e+03 -1.422902e+03 9.086808e+02) (5.718501e-02 -2.443057e+02 1.532116e-01)) ((9.694902e-03 -2.882652e-03 2.088959e-02) (1.724220e+00 -1.656139e-03 -2.438626e+00))
2.185139      	((1.238363e+03 -1.412909e+03 9.113971e+02) (4.878841e-02 -2.443647e+02 1.391393e-01)) ((1.129033e-02 -4.996620e-03 2.105765e-02) (1.708479e+00 -1.973997e-03 -2.422009e+00))
2.216868      	((1.242869e+03 -1.406838e+03 9.146936e+02) (7.257972e-02 -2.444316e+02 1.492818e-01)) ((1.199137e-02 -6.286788e-03 2.093052e-02) (1.689763e+00 -2.084231e-03 -2.397006e+00))
2.2486        	((1.242160e+03 -1.401194e+03 9.113825e+02) (1.150392e-01 -2.445044e+02 1.734486e-01)) ((1.207122e-02 -7.129638e-03 2.059007e-02) (1.668838e+00 -2.052504e-03 -2.367835e+00))
2.280336      	((1.231008e+03 -1.395835e+03 8.990472e+02) (1.596374e-01 -2.445753e+02 1.969232e-01)) ((1.125518e-02 -7.202926e-03 2.037760e-02) (1.647252e+00 -2.401351e-03 -2.338078e+00))
2.312072      	((1.208866e+03 -1.393832e+03 8.796949e+02) (1.883153e-01 -2.446427e+02 2.082872e-01)) ((9.979316e-03 -6.585848e-03 1.988164e-02) (1.626178e+00 -3.349912e-03 -2.307351e+00))
2.343811      	((1.179347e+03 -1.394225e+03 8.569291e+02) (1.951883e-01 -2.446993e+02 2.034095e-01)) ((8.739615e-03 -5.994693e-03 1.930989e-02) (1.606907e+00 -4.563645e-03 -2.277177e+00))
2.375552      	((1.148788e+03 -1.395046e+03 8.325351e+02) (1.780886e-01 -2.447379e+02 1.804527e-01)) ((7.396575e-03 -5.167226e-03 1.868302e-02) (1.590525e+00 -5.615987e-03 -2.251373e+00))
2.407296      	((1.123332e+03 -1.393710e+03 8.127615e+02) (1.372235e-01 -2.447597e+02 1.427383e-01)) ((6.316807e-03 -4.351266e-03 1.767894e-02) (1.577680e+00 -6.424977e-03 -2.231197e+00))
2.439043      	((1.107970e+03 -1.391413e+03 8.015333e+02) (8.331903e-02 -2.447648e+02 9.794814e-02)) ((5.856306e-03 -4.341351e-03 1.667681e-02) (1.569950e+00 -7.744409e-03 -2.216824e+00))
2.470795      	((1.106333e+03 -1.390081e+03 7.993829e+02) (3.153166e-02 -2.447531e+02 5.317790e-02)) ((5.753792e-03 -4.896797e-03 1.600117e-02) (1.568435e+00 -9.950116e-03 -2.209438e+00))
2.502552      	((1.114136e+03 -1.389095e+03 8.049463e+02) (-4.063986e-03 -2.447310e+02 1.726062e-02)) ((6.020268e-03 -5.906100e-03 1.577449e-02) (1.571049e+00 -1.254085e-02 -2.206823e+00))
2.534313      	((1.127937e+03 -1.388764e+03 8.151501e+02) (-1.974675e-02 -2.447069e+02 -1.671935e-03)) ((6.730197e-03 -7.399147e-03 1.555773e-02) (1.574796e+00 -1.457611e-02 -2.205734e+00))
2.566078      	((1.143033e+03 -1.391370e+03 8.268235e+02) (-1.199977e-02 -2.446834e+02 -5.014862e-04)) ((7.719564e-03 -9.000552e-03 1.534673e-02) (1.578437e+00 -1.602389e-02 -2.204069e+00))
2.597846      	((1.153820e+03 -1.396886e+03 8.363909e+02) (1.072017e-02 -2.446628e+02 1.330392e-02)) ((8.687780e-03 -1.013441e-02 1.521751e-02) (1.582409e+00 -1.683031e-02 -2.201504e+00))
2.629615      	((1.159761e+03 -1.403957e+03 8.402219e+02) (3.681015e-02 -2.446437e+02 2.939311e-02)) ((9.201623e-03 -1.064778e-02 1.539586e-02) (1.586981e+00 -1.669447e-02 -2.200160e+00))
2.661386      	((1.159412e+03 -1.412723e+03 8.383247e+02) (5.738919e-02 -2.446205e+02 4.116668e-02)) ((9.100299e-03 -1.075936e-02 1.574230e-02) (1.592536e+00 -1.575194e-02 -2.202972e+00))
2.693156      	((1.151827e+03 -1.420672e+03 8.316566e+02) (5.767944e-02 -2.445930e+02 4.192499e-02)) ((8.242642e-03 -1.003669e-02 1.593010e-02) (1.599380e+00 -1.468537e-02 -2.209976e+00))
2.724926      	((1.140201e+03 -1.427134e+03 8.203734e+02) (3.645586e-02 -2.445618e+02 2.861814e-02)) ((7.180771e-03 -9.058864e-03 1.595260e-02) (1.606576e+00 -1.419101e-02 -2.219532e+00))
2.756697      	((1.127498e+03 -1.429700e+03 8.073682e+02) (5.801069e-03 -2.445208e+02 4.772822e-03)) ((6.409070e-03 -8.498507e-03 1.603745e-02) (1.612819e+00 -1.452133e-02 -2.231029e+00))
2.78847       	((1.115373e+03 -1.430276e+03 7.957761e+02) (-3.427403e-02 -2.444692e+02 -2.473888e-02)) ((5.835349e-03 -7.877937e-03 1.600018e-02) (1.617268e+00 -1.574226e-02 -2.242603e+00))
2.820244      	((1.106791e+03 -1.430619e+03 7.872606e+02) (-7.966073e-02 -2.444095e+02 -5.417414e-02)) ((5.762177e-03 -7.579398e-03 1.592868e-02) (1.619658e+00 -1.766795e-02 -2.252195e+00))
2.852021      	((1.104951e+03 -1.431486e+03 7.836846e+02) (-1.164614e-01 -2.443410e+02 -7.718106e-02)) ((6.556769e-03 -8.179867e-03 1.603670e-02) (1.620403e+00 -1.976455e-02 -2.261192e+00))
