# Forces      
# CofR        : (0.000000e+00 0.000000e+00 0.000000e+00)
# Time        forces(pressure viscous)	moments(pressure viscous)
0             	((0.000000e+00 0.000000e+00 0.000000e+00) (0.000000e+00 0.000000e+00 0.000000e+00)) ((0.000000e+00 0.000000e+00 0.000000e+00) (0.000000e+00 0.000000e+00 0.000000e+00))
0.012         	((3.418806e-02 8.821811e-02 6.943122e-04) (-8.277092e-06 1.182354e-05 -2.231083e-06)) ((-7.614576e-04 1.016812e-04 2.276753e-01) (-1.021923e-05 -4.729383e-06 4.541541e+00))
0.0264        	((-4.427869e-02 -9.764032e-02 -3.137138e-02) (-7.176935e-05 -8.777774e-06 -1.135209e-05)) ((-1.037431e-03 2.792620e-04 2.378779e-01) (-7.614648e-05 -9.344281e-06 7.443389e+00))
0.04368       	((-4.493147e-02 7.417645e-03 -3.614685e-02) (-2.766289e-04 -1.626847e-04 -3.720141e-05)) ((-1.100767e-03 2.689064e-04 2.474963e-01) (-3.792968e-04 -7.357499e-05 1.446837e+01))
0.064416      	((-3.811490e-02 -8.506335e-02 -1.796326e-02) (-9.290639e-04 -4.593158e-04 -8.066619e-05)) ((-8.845421e-04 2.735512e-04 2.317346e-01) (-1.825097e-03 -3.530402e-04 3.545316e+01))
0.0888959     	((-2.615229e-02 -7.390017e-02 -9.777330e-03) (-5.771363e-03 4.296038e-03 -7.291935e-04)) ((-9.450651e-04 3.432462e-04 2.314612e-01) (-2.436221e-03 1.240098e-05 9.941261e+01))
0.117122      	((-1.069453e-01 -1.017242e-01 -1.915714e-02) (-1.347408e-03 -7.017267e-03 -9.224596e-04)) ((-8.915436e-04 2.860319e-04 2.200517e-01) (-5.842302e-03 -5.153942e-04 1.068560e+02))
0.149098      	((-2.853753e-02 -2.329336e-02 -2.235196e-02) (-1.935178e-03 -4.410937e-03 -8.466464e-04)) ((-9.453212e-04 1.198999e-04 2.178092e-01) (-6.644540e-03 -1.301077e-03 9.973382e+01))
0.184827      	((1.389337e-02 -6.007238e-02 -1.781163e-02) (-1.828587e-03 -3.714946e-03 -5.389174e-04)) ((-9.227765e-04 9.630839e-05 2.190927e-01) (-5.787762e-03 -1.705053e-03 9.597839e+01))
0.222438      	((-1.528315e-01 -5.679536e-02 -1.442792e-02) (-1.264782e-03 -3.325416e-03 -2.046934e-04)) ((-9.568279e-04 -3.038158e-05 2.134148e-01) (-5.147963e-03 -1.872229e-03 9.306438e+01))
0.260215      	((3.918471e-02 -2.203420e-03 -5.953074e-03) (-1.160630e-03 -3.074339e-03 -4.731327e-05)) ((-8.378271e-04 -6.412412e-06 2.097617e-01) (-3.606210e-03 -2.114130e-03 8.983234e+01))
0.298188      	((-4.912128e-02 -7.409352e-03 6.112272e-04) (-9.286571e-04 -4.241884e-03 -2.580381e-04)) ((-1.014404e-03 -2.244921e-05 2.131886e-01) (-6.902629e-04 -1.415983e-03 8.718294e+01))
0.336332      	((-1.024922e-01 1.288435e-02 -1.913058e-02) (2.949805e-04 -5.991263e-03 -1.083683e-04)) ((-9.695495e-04 4.688485e-05 2.122431e-01) (1.710280e-03 -1.916658e-04 8.509890e+01))
0.374549      	((-6.093187e-02 -1.945459e-02 -1.776553e-02) (1.928355e-03 -6.741683e-03 8.033376e-05)) ((-9.269501e-04 3.537976e-05 2.082781e-01) (3.758581e-03 9.059158e-04 8.330816e+01))
0.412864      	((1.257522e-03 1.315223e-01 -3.442767e-02) (3.389547e-03 -6.687062e-03 1.633277e-04)) ((-8.719041e-04 -9.619503e-05 2.023462e-01) (5.438589e-03 2.087560e-03 8.170113e+01))
0.451269      	((5.112618e-02 2.640979e-01 -8.710716e-02) (4.736638e-03 -6.007867e-03 2.651270e-04)) ((-8.106851e-04 -1.210037e-04 1.970700e-01) (5.782150e-03 3.276668e-03 8.022723e+01))
0.489777      	((2.411874e-01 2.978808e-01 -1.240025e-01) (5.524290e-03 -4.583209e-03 5.938629e-05)) ((-7.817215e-04 -6.848739e-06 1.926670e-01) (4.756388e-03 5.026734e-03 7.886426e+01))
0.528362      	((2.703919e-01 4.875407e-01 -1.132548e-01) (4.995660e-03 -2.921546e-03 -5.827620e-04)) ((-6.001558e-04 7.713659e-05 1.904502e-01) (2.595765e-03 6.466244e-03 7.761232e+01))
0.567057      	((2.981623e-01 3.675910e-01 -2.828644e-02) (4.382553e-03 -2.106226e-03 -1.125161e-03)) ((-4.851483e-04 9.853123e-06 1.897361e-01) (-2.174651e-04 6.446942e-03 7.646991e+01))
0.605892      	((3.609559e-01 3.838624e-01 5.130170e-02) (4.345999e-03 -2.365983e-03 -1.802925e-03)) ((-5.965328e-04 -1.363005e-05 1.883688e-01) (-2.202945e-03 5.315291e-03 7.543431e+01))
0.644921      	((5.578952e-01 3.336089e-01 1.829773e-02) (3.593325e-03 -1.167683e-03 -1.723637e-03)) ((-6.279920e-04 -3.135034e-05 1.860605e-01) (-3.296982e-03 3.259396e-03 7.450089e+01))
0.684166      	((6.581507e-01 5.254654e-01 -1.417698e-02) (1.262086e-03 -1.434041e-04 -1.361702e-03)) ((-6.194100e-04 3.373887e-05 1.836574e-01) (-3.525828e-03 3.790867e-04 7.366584e+01))
0.723623      	((7.528686e-01 7.357988e-01 -2.217160e-02) (-2.421162e-04 -6.811113e-04 -1.471934e-03)) ((-6.028368e-04 6.792690e-06 1.811709e-01) (-2.628330e-03 -2.019024e-03 7.292942e+01))
0.763194      	((6.913622e-01 7.621707e-01 -4.357051e-02) (-2.155601e-04 -7.702140e-04 -1.324593e-03)) ((-4.989104e-04 1.520450e-05 1.787619e-01) (-1.373003e-03 -3.303378e-03 7.229047e+01))
0.802895      	((6.866756e-01 8.971977e-01 -3.672277e-02) (-5.049061e-04 -3.501266e-03 -1.047400e-03)) ((-5.768939e-04 1.787217e-04 1.761608e-01) (-3.621565e-04 -4.011522e-03 7.173980e+01))
0.842737      	((4.822240e-01 4.805513e-01 -1.124049e-02) (9.283314e-04 -7.420931e-03 -3.000891e-05)) ((-5.416208e-04 2.325153e-04 1.738419e-01) (4.461998e-04 -4.291802e-03 7.126750e+01))
0.882726      	((4.402081e-01 4.402787e-01 4.669927e-02) (4.719296e-03 -9.187395e-03 1.409967e-03)) ((-6.837640e-04 3.070645e-04 1.719443e-01) (1.184771e-03 -4.183085e-03 7.086459e+01))
0.922878      	((6.142758e-01 3.985189e-01 4.320223e-02) (8.072380e-03 -1.070877e-02 2.236466e-03)) ((-8.403399e-04 3.286366e-04 1.704787e-01) (1.903809e-03 -3.580462e-03 7.052589e+01))
0.963221      	((6.562747e-01 3.788192e-01 7.709812e-03) (8.419354e-03 -1.269791e-02 2.908424e-03)) ((-1.003948e-03 3.618490e-04 1.690272e-01) (2.281204e-03 -2.670857e-03 7.024936e+01))
1.00378       	((6.929751e-01 6.754930e-01 -2.120674e-04) (1.245838e-02 -1.247089e-02 3.602526e-03)) ((-1.050354e-03 2.395663e-04 1.674414e-01) (2.001440e-03 -2.094587e-03 7.003132e+01))
1.044428      	((5.482546e-01 1.084520e+00 2.578403e-02) (1.646512e-02 -8.774695e-03 4.453097e-03)) ((-1.007579e-03 4.726064e-05 1.659548e-01) (1.577991e-03 -1.858547e-03 6.986577e+01))
1.085106      	((4.617867e-01 9.203912e-01 9.128000e-02) (1.806438e-02 -4.870882e-03 4.600468e-03)) ((-1.061560e-03 -7.084519e-05 1.642540e-01) (1.623742e-03 -1.314058e-03 6.975025e+01))
1.125817      	((4.934805e-01 1.128353e+00 5.580976e-02) (1.870753e-02 -2.200567e-03 3.605963e-03)) ((-1.023256e-03 -1.071220e-04 1.625398e-01) (1.909977e-03 -8.145441e-04 6.968351e+01))
1.166565      	((5.334803e-01 1.282837e+00 7.893733e-02) (1.923434e-02 2.136601e-03 2.768599e-03)) ((-7.710071e-04 -2.571973e-04 1.611853e-01) (1.929518e-03 -6.470130e-04 6.966065e+01))
1.207352      	((5.654873e-01 1.481158e+00 9.283409e-02) (1.853771e-02 1.081525e-02 2.083895e-03)) ((-5.903543e-04 -3.458624e-04 1.600745e-01) (1.737888e-03 -2.817508e-04 6.968202e+01))
