# Forces      
# CofR        : (0.000000e+00 0.000000e+00 0.000000e+00)
# Time        forces(pressure viscous)	moments(pressure viscous)
0             	((0.000000e+00 0.000000e+00 0.000000e+00) (0.000000e+00 0.000000e+00 0.000000e+00)) ((0.000000e+00 0.000000e+00 0.000000e+00) (0.000000e+00 0.000000e+00 0.000000e+00))
0.012         	((1.896482e-05 -7.966239e-05 -4.360453e-05) (6.238022e-09 5.741198e-08 -9.857703e-09)) ((9.706253e-04 -3.358648e-08 -3.422107e-06) (9.389990e-02 -8.008692e-09 3.922124e-08))
0.0264        	((6.154776e-05 3.410520e-04 -2.205438e-04) (1.993291e-08 8.956558e-08 -2.621510e-09)) ((4.642961e-04 -1.662588e-07 -2.489838e-06) (9.369105e-02 -5.600058e-08 -5.667630e-08))
0.04368       	((-1.512072e-05 -2.496831e-05 -4.293888e-05) (2.528076e-08 7.974522e-08 1.043812e-08)) ((2.922848e-04 1.681869e-08 -1.775837e-06) (9.336679e-02 -9.471280e-08 -2.163974e-07))
0.064416      	((1.226216e-04 2.838256e-04 -9.359311e-05) (4.302570e-08 7.983657e-08 1.993846e-08)) ((1.950069e-04 -1.724566e-07 -8.992422e-07) (9.298163e-02 -1.278085e-07 -2.721029e-07))
0.0892992     	((-8.805193e-06 -2.780805e-05 -2.102426e-06) (6.986540e-08 9.160553e-08 4.046658e-08)) ((1.724597e-04 -2.680720e-07 -5.081868e-07) (9.252429e-02 -1.666594e-07 -2.911198e-07))
0.119159      	((4.917257e-05 1.309601e-05 -8.321105e-05) (1.032331e-07 1.076546e-07 3.368610e-08)) ((1.552411e-04 -2.514122e-07 -3.083283e-07) (9.198231e-02 -1.524878e-07 -3.272604e-07))
0.154991      	((1.975654e-05 -3.428964e-05 2.798928e-05) (1.451651e-07 1.244452e-07 6.402772e-09)) ((1.479711e-04 -2.041965e-07 -3.522149e-07) (9.134199e-02 -1.144138e-07 -3.441717e-07))
0.197989      	((1.062823e-05 -3.964216e-05 -1.767026e-05) (1.736560e-07 1.453655e-07 -2.576779e-08)) ((1.407379e-04 -1.799336e-07 -3.622786e-07) (9.058870e-02 -1.114061e-07 -3.414593e-07))
0.249587      	((6.840751e-05 -2.383087e-05 1.264793e-05) (1.936986e-07 1.587854e-07 -4.787369e-08)) ((1.345168e-04 -2.794719e-07 -3.738216e-07) (8.970746e-02 -1.419029e-07 -3.291675e-07))
0.311504      	((2.294802e-05 -7.981998e-06 -5.770416e-06) (2.184980e-07 1.435401e-07 -4.907723e-08)) ((1.283883e-04 -2.301164e-07 -3.527686e-07) (8.868442e-02 -2.031465e-07 -3.170029e-07))
0.385805      	((3.555800e-05 -4.548153e-06 1.295565e-05) (2.447426e-07 8.742401e-08 -2.167709e-08)) ((1.228357e-04 -1.395731e-07 -2.892097e-07) (8.750907e-02 -2.784310e-07 -3.382972e-07))
0.474966      	((1.793156e-05 1.254955e-05 1.225495e-05) (2.587524e-07 7.158976e-09 2.294145e-08)) ((1.174529e-04 -5.907535e-08 -2.854961e-07) (8.617680e-02 -3.209818e-07 -3.886967e-07))
0.581959      	((1.842476e-05 3.845721e-06 3.861104e-06) (2.594506e-07 -7.308692e-08 7.293810e-08)) ((1.121533e-04 -1.353581e-08 -3.225808e-07) (8.469262e-02 -2.896708e-07 -4.370858e-07))
0.710351      	((2.648665e-05 1.008972e-05 4.268431e-06) (2.569346e-07 -1.295022e-07 8.685267e-08)) ((1.068520e-04 3.759501e-09 -3.294310e-07) (8.307517e-02 -2.202367e-07 -4.525232e-07))
0.864421      	((2.485140e-05 1.638702e-05 2.905350e-06) (2.284608e-07 -1.823173e-07 6.763385e-08)) ((1.014280e-04 -2.124704e-08 -3.561203e-07) (8.135808e-02 -1.162676e-07 -3.862665e-07))
1.049306      	((1.791416e-05 2.802961e-05 1.155180e-05) (1.777264e-07 -2.382963e-07 5.100048e-08)) ((9.582150e-05 -2.629013e-08 -3.318979e-07) (7.958563e-02 9.979887e-09 -2.548158e-07))
1.271167      	((6.225773e-06 1.548102e-05 -5.195010e-06) (1.330659e-07 -2.944346e-07 4.749221e-08)) ((9.023026e-05 -7.989530e-09 -3.151391e-07) (7.780218e-02 4.976043e-08 -4.060099e-08))
1.5374        	((5.910284e-07 2.373979e-05 -4.210078e-06) (1.267832e-07 -3.635207e-07 6.266214e-08)) ((8.517166e-05 7.760152e-09 -2.966653e-07) (7.603673e-02 -7.055652e-08 2.553170e-07))
1.85688       	((4.184518e-07 8.276087e-06 -2.159202e-05) (1.645706e-07 -4.152405e-07 1.558591e-08)) ((8.046995e-05 4.241933e-10 -2.739804e-07) (7.428755e-02 -2.355511e-07 5.687095e-07))
2.240256      	((-4.721118e-06 5.997394e-06 -1.455824e-05) (2.570220e-07 -5.204614e-07 -4.857445e-08)) ((7.547803e-05 9.932023e-10 -2.475369e-07) (7.246518e-02 -3.496611e-07 7.755425e-07))
2.700307      	((-1.766262e-05 1.317479e-05 1.185074e-07) (3.546333e-07 -6.811265e-07 -9.929937e-08)) ((7.051543e-05 3.560244e-08 -2.171178e-07) (7.047263e-02 -4.607871e-07 7.463686e-07))
3.252369      	((-1.284894e-05 1.605981e-05 -1.971594e-05) (4.067430e-07 -7.540309e-07 -2.174533e-07)) ((6.618913e-05 4.140083e-08 -2.180868e-07) (6.830405e-02 -6.689412e-07 6.027242e-07))
3.914842      	((-1.100868e-05 5.661979e-06 -2.436023e-05) (3.970537e-07 -6.831480e-07 -4.345827e-07)) ((6.321140e-05 9.993995e-09 -2.291472e-07) (6.601277e-02 -9.253696e-07 4.602478e-07))
4.709811      	((-1.700788e-05 -7.972655e-06 -2.840757e-05) (3.009943e-07 -7.473936e-07 -4.965352e-07)) ((6.152069e-05 7.245456e-09 -2.165618e-07) (6.366763e-02 -1.282765e-06 3.740269e-07))
5.663773      	((-1.799674e-05 -1.955630e-05 -1.453232e-05) (1.692703e-07 -8.073708e-07 -4.270678e-07)) ((5.952766e-05 -7.031925e-09 -2.157204e-07) (6.133642e-02 -1.770046e-06 8.043983e-09))
6.808528      	((-1.471215e-05 5.247324e-06 -1.131326e-05) (9.794719e-08 -8.781433e-07 -6.540301e-07)) ((5.690519e-05 -2.073705e-08 -2.036000e-07) (5.907815e-02 -2.260845e-06 -6.250488e-07))
8.182233      	((-1.879328e-05 3.596650e-05 4.241467e-05) (-1.555263e-07 -6.591028e-07 -1.318794e-06)) ((5.336566e-05 -2.373278e-08 -1.387489e-07) (5.690777e-02 -2.345838e-06 -1.603538e-06))
9.798158      	((-5.358695e-05 7.354191e-05 8.200847e-05) (-5.123768e-07 3.449970e-07 -1.530330e-06)) ((4.963958e-05 1.578900e-08 -1.288632e-07) (5.482831e-02 -1.342018e-06 -2.618365e-06))
11.657273     	((-6.051929e-05 1.099104e-04 7.076933e-05) (-7.308364e-07 1.411691e-06 -1.126495e-06)) ((4.635177e-05 2.778796e-08 -1.450779e-07) (5.284782e-02 4.123277e-07 -2.981775e-06))
13.760941     	((-7.453093e-05 1.807500e-04 9.907776e-05) (-1.622747e-06 2.317447e-06 -1.176436e-06)) ((4.303301e-05 7.867869e-08 -1.895427e-07) (5.100386e-02 1.577841e-06 -2.654769e-06))
16.111013     	((-7.599880e-05 2.341073e-04 1.543166e-04) (-3.294856e-06 4.410141e-06 1.699786e-06)) ((3.982523e-05 1.053473e-07 -2.075396e-07) (4.935310e-02 2.052646e-06 -1.689025e-06))
18.601413     	((-5.184028e-05 3.182795e-04 2.457005e-04) (-3.530247e-06 4.765375e-06 2.272317e-06)) ((3.678817e-05 1.426625e-07 -1.891641e-07) (4.798326e-02 2.078509e-06 -5.335572e-07))
21.117721     	((-4.733050e-05 3.766839e-04 2.711923e-04) (-3.083447e-06 2.999456e-06 3.325502e-06)) ((3.454914e-05 1.560269e-07 -2.094924e-07) (4.690310e-02 1.180224e-06 3.843291e-07))
23.653202     	((-5.347214e-05 3.213415e-04 2.357132e-04) (-1.916317e-06 3.230241e-06 9.409143e-07)) ((3.274084e-05 1.392784e-07 -2.024988e-07) (4.605423e-02 2.632046e-07 8.523992e-07))
26.211914     	((-9.844759e-06 3.641128e-04 2.210002e-04) (-5.207528e-07 4.970190e-06 1.459822e-07)) ((3.118084e-05 1.132004e-07 -1.689362e-07) (4.539493e-02 -1.551763e-07 3.435886e-07))
28.778605     	((-1.214774e-05 3.593325e-04 1.720962e-04) (-7.260110e-07 7.154542e-06 2.169165e-06)) ((3.014215e-05 1.515284e-07 -1.612273e-07) (4.489260e-02 -4.331949e-08 -1.576165e-07))
31.348784     	((-4.369476e-06 3.541313e-04 1.786176e-04) (5.431952e-07 5.670565e-06 3.178483e-06)) ((2.965004e-05 1.071653e-07 -1.742761e-07) (4.450934e-02 2.124568e-07 -3.632706e-07))
33.922337     	((9.136692e-06 3.664999e-04 1.776907e-04) (1.692809e-06 9.127353e-06 -1.692183e-07)) ((2.951538e-05 4.774659e-08 -1.019467e-07) (4.422817e-02 7.326428e-08 -1.204167e-06))
36.499826     	((-1.237708e-05 4.819384e-04 1.912433e-04) (7.761653e-07 1.198411e-05 -3.364330e-06)) ((2.932812e-05 1.499994e-07 -1.138619e-07) (4.403962e-02 -1.450554e-07 -2.130584e-06))
39.082162     	((-1.257661e-05 4.598932e-04 3.101007e-04) (3.480565e-07 1.008267e-05 1.204538e-08)) ((2.901938e-05 1.848626e-07 -1.763716e-07) (4.392466e-02 2.099812e-07 -2.069397e-06))
41.670276     	((2.712944e-05 5.231563e-04 4.390298e-04) (-4.259608e-07 1.055918e-05 -2.407805e-06)) ((2.853181e-05 1.972678e-07 -1.554748e-07) (4.387939e-02 6.594726e-07 -1.518326e-06))
44.264543     	((1.634189e-05 3.953067e-04 2.936872e-04) (-1.817255e-06 8.349065e-06 -6.278862e-06)) ((2.805072e-05 1.980205e-07 -7.720013e-08) (4.390973e-02 1.404235e-06 -9.939682e-07))
46.864981     	((2.309042e-05 3.568243e-04 3.960396e-04) (-6.981140e-07 4.536815e-06 -1.087352e-05)) ((2.763701e-05 1.943606e-07 -6.430626e-08) (4.401638e-02 2.191797e-06 -2.856858e-07))
49.472361     	((2.288135e-05 3.386450e-04 3.913846e-04) (-2.738494e-08 6.052595e-06 -9.806615e-06)) ((2.746515e-05 2.349634e-07 -8.540408e-08) (4.419569e-02 2.566743e-06 5.058300e-07))
52.087198     	((-4.817770e-05 3.732155e-04 6.242829e-04) (-8.315142e-07 4.772387e-06 -7.341353e-06)) ((2.755163e-05 1.267785e-07 -3.934406e-08) (4.444300e-02 2.797052e-06 1.380988e-06))
54.709711     	((-1.078206e-04 4.271213e-04 5.509047e-04) (-1.174369e-06 4.568211e-06 -5.231687e-06)) ((2.773717e-05 8.038006e-08 1.830628e-08) (4.475579e-02 2.817789e-06 2.001355e-06))
57.339361     	((-1.873916e-04 4.989610e-04 7.014715e-04) (-1.155422e-06 -4.633367e-06 -3.606788e-06)) ((2.792924e-05 8.754492e-08 -4.218862e-08) (4.512419e-02 2.260138e-06 2.600666e-06))
59.974652     	((-1.963480e-04 3.195427e-04 8.400827e-04) (-1.214054e-06 -1.802824e-05 -3.716414e-06)) ((2.823751e-05 3.908197e-08 -5.588837e-08) (4.552306e-02 1.550669e-06 3.212957e-06))
62.613807     	((-2.267181e-04 3.562327e-04 7.866358e-04) (-1.478404e-06 -2.057620e-05 -9.431753e-06)) ((2.872940e-05 -1.944411e-08 -6.533591e-08) (4.592818e-02 6.115139e-07 3.401618e-06))
65.255245     	((-2.454559e-04 4.496726e-04 6.256752e-04) (-1.501015e-06 -2.257863e-05 -1.225105e-05)) ((2.934708e-05 -1.075750e-07 -1.087999e-07) (4.631643e-02 -6.273442e-07 3.165165e-06))
67.896502     	((-2.008877e-04 2.993174e-04 6.034036e-04) (-1.404488e-06 -2.331238e-05 -1.217856e-05)) ((2.980690e-05 -1.681219e-07 -1.307842e-07) (4.666662e-02 -2.032692e-06 2.292634e-06))
70.534039     	((-2.088840e-04 1.991082e-04 2.652066e-04) (-2.103259e-06 -2.448978e-05 -1.527316e-05)) ((3.023787e-05 -1.681172e-07 -1.191036e-07) (4.696232e-02 -3.516435e-06 9.632459e-07))
73.162086     	((-3.072388e-04 2.086983e-04 -2.582683e-06) (-2.841564e-06 -1.835178e-05 -1.816780e-05)) ((3.061501e-05 -1.716967e-07 -1.280290e-07) (4.720284e-02 -4.450747e-06 -4.048583e-07))
75.777894     	((-4.870074e-04 2.015555e-04 -2.617572e-05) (-2.619199e-06 -9.843770e-06 -1.828349e-05)) ((3.098040e-05 -1.607885e-07 -1.348247e-07) (4.739551e-02 -4.511316e-06 -1.812936e-06))
