# Forces      
# CofR        : (0.000000e+00 0.000000e+00 0.000000e+00)
# Time        forces(pressure viscous)	moments(pressure viscous)
0             	((0.000000e+00 0.000000e+00 0.000000e+00) (0.000000e+00 0.000000e+00 0.000000e+00)) ((0.000000e+00 0.000000e+00 0.000000e+00) (0.000000e+00 0.000000e+00 0.000000e+00))
0.012         	((6.184363e-03 -6.032883e-04 -4.409002e-02) (-2.414416e-06 -1.477999e-07 -6.995228e-06)) ((4.432606e-06 1.067737e-01 -5.076155e-06) (-2.650598e-08 3.132499e+00 -1.102443e-07))
0.0264        	((-3.198385e-02 -3.162218e-03 8.341306e-02) (-1.685935e-05 -7.916727e-07 -1.108599e-05)) ((6.054920e-06 1.047884e-01 -1.222141e-06) (-1.492805e-08 6.174682e+00 -4.065721e-07))
0.04368       	((-1.796252e-02 -2.901189e-03 6.351418e-03) (-6.093729e-05 -2.024497e-07 3.150124e-05)) ((5.666697e-06 1.101580e-01 -5.529071e-06) (-1.580933e-06 1.617477e+01 -9.673461e-07))
0.064416      	((-1.890351e-02 -2.301344e-03 6.747002e-02) (-3.120355e-04 -2.768098e-05 3.827848e-04)) ((6.407066e-06 1.019828e-01 -5.090195e-06) (-1.045634e-05 4.724955e+01 -4.040098e-06))
0.0892992     	((5.144895e-03 6.334439e-03 2.218174e-02) (-1.291301e-03 -8.345746e-05 -3.468286e-03)) ((5.896908e-06 1.008787e-01 -2.217858e-06) (-2.536423e-05 4.800555e+01 4.060662e-06))
0.119159      	((5.944808e-03 1.050661e-03 2.589558e-02) (-1.549710e-03 -1.420796e-04 -3.365254e-03)) ((4.383024e-06 9.529151e-02 -2.809184e-06) (-2.784128e-05 4.505312e+01 1.254979e-05))
0.15496       	((6.001859e-03 3.497563e-03 -1.258340e-02) (-2.122044e-03 -2.415609e-04 -3.055704e-03)) ((2.384624e-06 9.425326e-02 -2.969859e-06) (-3.142936e-05 4.307211e+01 2.702306e-05))
0.196706      	((4.163143e-03 3.290815e-03 -1.556140e-02) (-2.971594e-03 -3.261252e-04 -2.977001e-03)) ((1.351475e-06 9.235700e-02 -1.764935e-06) (-2.943244e-05 4.181800e+01 4.793137e-05))
0.244414      	((-7.948573e-02 1.903342e-03 3.488811e-03) (-2.951848e-03 -3.739660e-04 -2.411608e-03)) ((-1.804309e-06 8.836682e-02 -2.069586e-06) (-2.645387e-05 4.045455e+01 7.966635e-05))
0.298108      	((-3.309792e-02 -4.421310e-03 -6.434780e-03) (-2.811892e-03 -3.986145e-04 -1.759046e-03)) ((-4.564545e-06 8.608462e-02 7.097953e-06) (-1.864536e-06 3.899814e+01 9.311460e-05))
0.357822      	((-1.442539e-03 -5.555136e-03 5.896595e-03) (-3.274679e-03 -3.970449e-04 -1.415870e-03)) ((-3.283759e-06 8.668936e-02 2.397627e-06) (5.199741e-05 3.775637e+01 6.804667e-05))
0.418256      	((5.965840e-02 -7.723225e-03 3.892540e-02) (-4.102185e-03 -3.501636e-04 -7.025557e-04)) ((-5.078339e-06 8.607851e-02 -3.885761e-06) (1.085279e-04 3.676958e+01 1.473423e-05))
0.478834      	((4.887082e-02 -1.304074e-02 4.094722e-02) (-4.857262e-03 -2.626163e-04 -8.552847e-05)) ((3.234606e-06 8.438740e-02 -6.737365e-06) (1.294928e-04 3.592622e+01 -5.471601e-05))
0.539582      	((6.525498e-02 -1.033664e-02 9.898777e-02) (-5.009593e-03 -2.358690e-04 4.612952e-04)) ((1.199919e-05 8.186811e-02 -1.837649e-05) (9.744660e-05 3.517955e+01 -1.066786e-04))
0.600449      	((1.299276e-01 -2.299157e-02 1.919347e-01) (-4.976272e-03 -2.942815e-04 1.461257e-03)) ((1.529251e-06 7.966208e-02 -1.585877e-05) (9.690086e-06 3.449926e+01 -9.756642e-05))
0.661467      	((7.057153e-02 -1.580024e-02 2.877499e-01) (-3.839689e-03 -3.234880e-04 3.649217e-03)) ((-2.270024e-05 7.807286e-02 5.196080e-06) (-9.967644e-05 3.387410e+01 -4.622416e-05))
0.722644      	((1.199979e-01 -2.984038e-02 2.840194e-01) (-1.329133e-03 -4.552061e-04 4.848230e-03)) ((-3.858384e-05 7.725989e-02 6.487073e-06) (-1.343762e-04 3.330332e+01 4.381763e-05))
0.784004      	((1.326450e-01 2.738198e-02 2.506702e-01) (1.859964e-03 -6.547546e-04 3.997904e-03)) ((-3.712676e-05 7.674707e-02 3.178553e-05) (-6.839144e-05 3.278589e+01 1.273727e-04))
0.845614      	((2.416385e-01 5.964876e-02 1.766078e-01) (4.529954e-03 -7.591719e-04 3.026208e-03)) ((-4.633660e-05 7.589495e-02 4.965317e-05) (4.533880e-05 3.232052e+01 1.204312e-04))
0.907559      	((2.394080e-01 4.140070e-02 3.175561e-01) (5.130194e-03 -8.825884e-04 2.070576e-03)) ((-6.278952e-05 7.480360e-02 5.475078e-05) (8.482278e-05 3.190468e+01 3.369708e-05))
0.969908      	((2.683142e-01 3.390938e-02 4.422205e-01) (4.713859e-03 -9.454525e-04 1.661897e-03)) ((-5.652489e-05 7.373591e-02 4.148053e-05) (7.919295e-05 3.153523e+01 -7.645334e-05))
1.032578      	((3.096442e-01 2.719296e-02 4.344566e-01) (4.623061e-03 -1.113301e-03 5.759118e-04)) ((-6.022786e-05 7.255876e-02 5.367143e-05) (-9.129201e-06 3.121231e+01 -2.124532e-04))
1.095453      	((3.131083e-01 2.626108e-03 3.743046e-01) (4.313530e-03 -1.205635e-03 -1.781399e-03)) ((-5.200578e-05 7.129684e-02 1.653915e-05) (-1.859822e-04 3.093568e+01 -3.327505e-04))
1.158556      	((2.944977e-01 4.409569e-03 3.425620e-01) (3.071954e-03 -1.357286e-03 -1.980507e-03)) ((-1.754499e-05 7.009923e-02 -2.168348e-05) (-3.732592e-04 3.069857e+01 -3.694271e-04))
1.221919      	((2.270122e-01 -1.160746e-02 3.221917e-01) (8.845379e-04 -1.622321e-03 -1.086372e-03)) ((-3.953325e-05 6.914440e-02 2.743865e-05) (-5.229980e-04 3.049655e+01 -3.141029e-04))
1.285561      	((2.502651e-01 -2.600029e-02 3.986832e-01) (1.048585e-04 -1.231455e-03 7.567260e-04)) ((-1.975060e-05 6.836958e-02 3.010696e-07) (-6.862058e-04 3.032760e+01 -2.351492e-04))
1.349518      	((3.106965e-01 3.203562e-02 4.302282e-01) (-1.024220e-04 -8.215497e-04 1.514558e-03)) ((1.349623e-05 6.765718e-02 -8.833658e-05) (-8.251259e-04 3.018861e+01 -1.301574e-04))
1.413827      	((3.629035e-01 2.729341e-02 4.052358e-01) (-4.744284e-04 -8.399604e-04 2.393872e-03)) ((1.557363e-05 6.698149e-02 -1.398841e-04) (-9.292860e-04 3.007734e+01 4.416253e-05))
1.478259      	((3.864747e-01 9.530049e-03 3.699957e-01) (-1.510655e-03 -8.632400e-04 4.027091e-03)) ((1.470065e-05 6.630370e-02 -1.284197e-04) (-9.913989e-04 2.999233e+01 3.003976e-04))
1.542736      	((4.452211e-01 1.423600e-02 3.874840e-01) (-9.124340e-04 -1.025905e-03 6.205643e-03)) ((1.531279e-05 6.560395e-02 -9.694208e-05) (-9.430081e-04 2.993154e+01 6.192085e-04))
1.607267      	((4.313874e-01 1.526684e-02 4.054902e-01) (-3.149804e-04 -7.400238e-04 7.724158e-03)) ((4.990285e-05 6.495090e-02 -8.256913e-05) (-7.703599e-04 2.989384e+01 8.724079e-04))
1.671852      	((5.412476e-01 3.252150e-02 3.539867e-01) (4.276724e-04 -5.222981e-04 7.427630e-03)) ((3.748368e-06 6.437971e-02 -8.719770e-05) (-5.385150e-04 2.987747e+01 9.951634e-04))
1.7365        	((6.550283e-01 5.441031e-02 3.627405e-01) (2.875676e-03 -1.215011e-03 8.859528e-03)) ((4.512609e-06 6.386106e-02 -5.143777e-05) (-1.774796e-04 2.988197e+01 1.014606e-03))
1.801213      	((6.455690e-01 7.731447e-02 4.183168e-01) (4.742740e-03 -1.808711e-03 8.767672e-03)) ((1.044376e-05 6.336514e-02 -5.799458e-05) (1.822795e-04 2.990910e+01 8.858557e-04))
1.865992      	((6.609746e-01 6.494214e-02 2.879948e-01) (4.824429e-03 -2.089685e-03 5.140729e-03)) ((1.834146e-05 6.301251e-02 -9.009720e-05) (3.825984e-04 2.995908e+01 5.721416e-04))
