# Forces      
# CofR        : (0.000000e+00 0.000000e+00 0.000000e+00)
# Time        forces(pressure viscous)	moments(pressure viscous)
0             	((0.000000e+00 0.000000e+00 0.000000e+00) (0.000000e+00 0.000000e+00 0.000000e+00)) ((0.000000e+00 0.000000e+00 0.000000e+00) (0.000000e+00 0.000000e+00 0.000000e+00))
0.012         	((2.072355e-02 -6.000971e-03 -6.084121e-02) (-8.454292e-06 -5.536336e-07 -2.118679e-05)) ((1.608606e-05 3.517953e-01 -1.662464e-05) (-5.707736e-08 5.659083e+00 -2.058899e-07))
0.0264        	((-6.280945e-02 -6.786785e-03 2.420562e-01) (-3.940879e-05 -9.331888e-07 -6.151719e-05)) ((2.158280e-05 3.765391e-01 -8.363813e-06) (-2.209025e-07 8.753424e+00 -8.405301e-07))
0.04368       	((-7.601033e-02 6.088490e-03 1.473773e-01) (-1.102880e-04 -2.173325e-06 -1.398789e-04)) ((2.441008e-05 3.894275e-01 -1.628835e-05) (-2.829267e-06 1.530606e+01 -1.087294e-06))
0.0639286     	((-2.362207e-02 6.345749e-03 2.198893e-01) (-2.247327e-04 -3.886900e-05 -1.595678e-04)) ((2.450752e-05 3.681436e-01 -1.343777e-05) (-1.581485e-05 3.245271e+01 1.114949e-05))
0.0871468     	((4.681662e-02 6.468161e-03 6.691439e-02) (-9.988520e-06 -2.278580e-04 1.570391e-03)) ((3.226170e-05 3.693858e-01 -1.816994e-05) (-2.256406e-05 8.600260e+01 5.171725e-05))
0.113336      	((1.388370e-01 1.840777e-03 9.931293e-02) (-1.206550e-02 -1.023886e-03 -1.693871e-02)) ((2.352300e-05 3.543825e-01 -1.149704e-05) (-6.888863e-05 1.669914e+02 4.701204e-05))
0.1425        	((4.940083e-03 6.332947e-03 -4.037479e-02) (-1.012587e-02 -1.437721e-03 -1.077973e-02)) ((1.592103e-05 3.474972e-01 4.646308e-06) (-5.598412e-05 1.552714e+02 5.812521e-05))
0.172261      	((1.041480e-02 3.591868e-02 3.859152e-02) (-1.000395e-02 -1.832434e-03 -7.227198e-03)) ((-4.743306e-07 3.501569e-01 8.908321e-06) (-2.496404e-05 1.471788e+02 1.377830e-04))
0.202072      	((-7.761303e-03 1.520462e-02 -1.341102e-02) (-1.301607e-02 -2.133935e-03 -5.621647e-03)) ((7.980302e-06 3.527934e-01 3.996544e-06) (3.647283e-06 1.431174e+02 2.094160e-04))
0.232008      	((-1.383247e-01 -4.421081e-03 4.541152e-02) (-1.178705e-02 -2.118798e-03 -2.643265e-03)) ((-1.388452e-05 3.420017e-01 6.770146e-06) (5.972401e-05 1.385865e+02 2.635782e-04))
0.262091      	((-1.283474e-01 -1.543329e-02 -1.151514e-01) (-9.500771e-03 -1.905169e-03 -2.210862e-03)) ((-1.080997e-05 3.473763e-01 -1.050100e-06) (1.834830e-04 1.342954e+02 2.084554e-04))
0.292341      	((5.428822e-02 -1.672718e-02 1.366034e-01) (-1.140030e-02 -1.589572e-03 -1.510580e-03)) ((2.189043e-05 3.481510e-01 -1.702524e-05) (3.417858e-04 1.309477e+02 6.777103e-05))
0.322659      	((2.836753e-02 -2.684481e-02 2.408189e-01) (-1.545394e-02 -1.273265e-03 1.125022e-03)) ((3.803456e-05 3.429823e-01 -2.306752e-05) (4.380310e-04 1.281656e+02 -1.497345e-04))
0.353051      	((1.285968e-01 -8.074277e-02 1.192541e-01) (-1.679668e-02 -1.139774e-03 2.851283e-03)) ((5.099711e-05 3.343267e-01 -6.706391e-06) (3.322997e-04 1.256913e+02 -3.248721e-04))
0.383504      	((3.524499e-01 -6.909719e-02 4.738165e-01) (-1.615959e-02 -1.269562e-03 4.436593e-03)) ((4.305148e-05 3.254503e-01 -1.792489e-05) (7.897926e-05 1.234395e+02 -2.821802e-04))
0.414023      	((4.143767e-01 -1.094562e-01 6.494122e-01) (-1.519657e-02 -1.601418e-03 7.667399e-03)) ((-2.029121e-05 3.176373e-01 -3.048743e-05) (-2.011450e-04 1.213604e+02 -9.995750e-05))
0.444624      	((1.720874e-01 -9.839293e-02 8.166091e-01) (-9.261883e-03 -1.835285e-03 1.390370e-02)) ((-5.764636e-05 3.120545e-01 6.954289e-05) (-3.955693e-04 1.194386e+02 1.396595e-04))
0.475297      	((5.411822e-01 -1.147074e-01 5.985524e-01) (-4.109872e-04 -2.583099e-03 1.531877e-02)) ((-9.759148e-05 3.096449e-01 6.375497e-05) (-3.605754e-04 1.176759e+02 5.089356e-04))
0.506052      	((5.257072e-01 1.244245e-01 7.072526e-01) (7.290718e-03 -3.509911e-03 1.177915e-02)) ((-1.085096e-04 3.081837e-01 9.116624e-05) (-6.123789e-05 1.160705e+02 7.028570e-04))
0.536919      	((8.414884e-01 1.201665e-01 5.709897e-01) (1.554525e-02 -3.505109e-03 7.699054e-03)) ((-2.248415e-04 3.058228e-01 1.413960e-04) (4.222008e-04 1.146163e+02 4.560910e-04))
0.567933      	((8.735085e-01 8.290593e-02 9.309014e-01) (1.667038e-02 -3.552420e-03 1.714577e-03)) ((-3.220859e-04 3.025124e-01 1.709802e-04) (6.706088e-04 1.133052e+02 -1.966470e-04))
0.599129      	((7.934433e-01 6.362317e-02 1.333605e+00) (1.296293e-02 -4.223072e-03 -1.763285e-03)) ((-2.780580e-04 2.989984e-01 1.146948e-04) (5.869911e-04 1.121317e+02 -8.945207e-04))
0.630488      	((9.523354e-01 5.882726e-02 1.498578e+00) (1.121910e-02 -4.766671e-03 1.152536e-03)) ((-2.220991e-04 2.950204e-01 1.589158e-04) (4.192539e-05 1.110934e+02 -1.524408e-03))
0.66194       	((1.260015e+00 1.851609e-02 1.645910e+00) (1.031029e-02 -4.733149e-03 -6.890851e-04)) ((-1.538786e-04 2.909641e-01 1.300658e-04) (-7.967452e-04 1.101906e+02 -1.953788e-03))
0.69349       	((1.108559e+00 1.019732e-02 1.568096e+00) (7.555083e-03 -4.676356e-03 -5.129062e-03)) ((-9.397549e-05 2.871293e-01 -5.116257e-05) (-1.555824e-03 1.094098e+02 -2.014034e-03))
0.725151      	((6.377386e-01 -6.007036e-04 1.214504e+00) (2.288020e-03 -5.007826e-03 -2.840198e-03)) ((-1.466598e-04 2.837445e-01 9.647213e-05) (-2.241433e-03 1.087337e+02 -1.778827e-03))
0.756933      	((6.771206e-01 -1.093425e-01 1.207078e+00) (-1.961811e-03 -4.809601e-03 5.093473e-03)) ((-1.274938e-04 2.810291e-01 6.669326e-05) (-2.916845e-03 1.081567e+02 -1.360898e-03))
0.788847      	((9.448895e-01 -1.217747e-02 1.516863e+00) (1.696451e-03 -4.176242e-03 9.803887e-03)) ((1.313618e-05 2.788680e-01 -2.564068e-04) (-3.498269e-03 1.076749e+02 -6.015044e-04))
0.820914      	((1.198881e+00 1.177439e-01 1.443820e+00) (1.820846e-03 -3.595834e-03 9.921581e-03)) ((6.991420e-05 2.766519e-01 -4.566223e-04) (-3.794544e-03 1.072793e+02 3.561443e-04))
0.853155      	((1.186630e+00 5.609751e-02 1.301009e+00) (2.177775e-03 -3.771293e-03 1.301719e-02)) ((8.497829e-05 2.741155e-01 -5.729181e-04) (-3.750658e-03 1.069671e+02 1.485059e-03))
0.885452      	((1.695892e+00 5.463855e-02 1.271522e+00) (3.215640e-03 -3.520254e-03 1.480725e-02)) ((1.720747e-04 2.712602e-01 -4.573470e-04) (-3.296496e-03 1.067371e+02 2.594847e-03))
0.917772      	((1.816241e+00 1.734809e-01 1.422992e+00) (2.563615e-03 -3.202074e-03 1.794833e-02)) ((1.178567e-04 2.682895e-01 -4.246333e-04) (-2.307423e-03 1.065800e+02 3.555967e-03))
0.950116      	((1.738473e+00 8.787923e-02 1.577792e+00) (3.140207e-03 -3.233271e-03 2.135259e-02)) ((1.289836e-04 2.655401e-01 -3.891028e-04) (-1.103512e-03 1.064887e+02 3.980383e-03))
