# Forces      
# CofR        : (0.000000e+00 0.000000e+00 0.000000e+00)
# Time        forces(pressure viscous)	moments(pressure viscous)
0             	((0.000000e+00 0.000000e+00 0.000000e+00) (-1.666919e-06 -1.553758e+04 -1.045707e-06)) ((0.000000e+00 0.000000e+00 0.000000e+00) (4.827312e-04 -7.410231e-08 -1.985506e-03))
0.00121636    	((3.494407e+03 -1.454423e+07 3.769744e+03) (8.082142e-01 -2.174502e+04 8.030799e-01)) ((4.479530e-01 5.310337e-01 -2.424862e+00) (1.256501e+00 -1.354425e-02 -1.258628e+00))
0.002676      	((-1.562003e+03 6.964055e+06 -1.601188e+03) (-3.248735e-01 -2.125199e+04 -2.757921e-01)) ((-1.236716e-01 4.298974e-01 7.407480e-01) (6.046443e-01 -3.498725e-02 -6.982288e-01))
0.00442756    	((-5.809199e+02 -1.563567e+06 -6.313624e+02) (9.101737e-01 -1.801477e+04 2.985674e-01)) ((3.136501e-02 4.428498e-01 -1.231692e-01) (6.673562e-01 -5.167728e-02 -7.792133e-01))
0.00651247    	((7.068133e+00 6.235666e+05 -6.378970e+00) (1.061170e+00 -1.722338e+04 7.533661e-01)) ((9.125186e-02 2.718262e-01 -3.280974e-03) (7.543496e-01 -3.439130e-03 -8.125287e-01))
0.008932      	((-1.488904e+02 -4.156103e+05 -1.003231e+02) (-4.540137e-01 -1.669108e+04 6.610164e-02)) ((7.139722e-02 3.786542e-01 -9.233221e-02) (3.020972e-01 2.632892e-02 -3.529242e-01))
0.0116835     	((-9.246515e+01 6.461261e+04 4.967216e+01) (-1.098963e+00 -1.666891e+04 -8.373419e-02)) ((3.026411e-02 3.276454e-01 -1.064037e-01) (2.098415e-01 2.000951e-02 -4.000322e-01))
0.0147646     	((-3.904514e+02 -1.614109e+05 -8.389043e+00) (-3.177928e+00 -1.664199e+04 -4.634360e-02)) ((4.492946e-02 3.000182e-01 -4.019886e-02) (-1.420087e-01 9.737127e-03 -3.237470e-01))
0.0180372     	((-2.832053e+02 -5.644560e+04 -4.171790e+01) (-2.455672e+00 -1.667994e+04 1.392200e-01)) ((3.932824e-02 4.711011e-01 -1.196955e-01) (-3.445281e-01 -3.703666e-03 -2.225682e-01))
0.0213165     	((9.811993e+01 -1.087439e+05 -1.274188e+02) (-1.173444e+00 -1.674934e+04 -1.792004e-01)) ((3.009190e-02 4.128299e-01 -8.120756e-02) (-3.623110e-01 3.925850e-02 -5.262735e-02))
0.0245783     	((-1.405557e+01 -8.454747e+04 -1.277077e+02) (-9.567333e-01 -1.686176e+04 -4.168825e-01)) ((5.456908e-02 3.698065e-01 -4.349249e-02) (-4.154720e-01 7.086252e-02 1.784364e-01))
0.0278155     	((6.533014e+01 -9.937411e+04 -4.602824e+01) (-6.960293e-01 -1.696361e+04 -4.139836e-01)) ((2.065488e-02 4.169200e-01 -8.008862e-02) (-3.642116e-01 6.577472e-02 1.408575e-01))
0.0310304     	((1.465078e+02 -9.447781e+04 4.978506e+01) (-5.470098e-01 -1.703921e+04 -1.999048e-01)) ((3.623720e-02 4.399218e-01 -7.983753e-02) (-3.568633e-01 6.228501e-02 1.254291e-01))
0.0342289     	((1.812832e+02 -9.804660e+04 7.218876e+01) (-4.189580e-01 -1.707550e+04 4.729586e-02)) ((2.529222e-02 4.056409e-01 -6.319906e-02) (-4.264369e-01 9.008226e-02 1.227325e-01))
0.0374163     	((3.499817e+02 -9.721572e+04 1.539100e+02) (-8.659734e-02 -1.708109e+04 2.963907e-02)) ((1.168655e-02 4.576253e-01 -5.775600e-02) (-4.021225e-01 7.908292e-02 -7.307985e-04))
0.0406017     	((4.094146e+02 -9.776008e+04 2.503345e+02) (-4.479727e-02 -1.707111e+04 8.845619e-02)) ((1.913642e-02 4.303417e-01 -6.538087e-02) (-3.014766e-01 7.945924e-02 -7.299650e-02))
0.0437936     	((5.110296e+02 -9.739186e+04 3.373033e+02) (-1.850509e-01 -1.705670e+04 1.155515e-01)) ((3.629676e-02 4.222732e-01 -6.831718e-02) (-1.703628e-01 8.484468e-02 -2.048404e-01))
0.0469918     	((6.407639e+02 -9.757301e+04 4.314131e+02) (-2.493663e-01 -1.704274e+04 -1.603927e-02)) ((4.159642e-02 4.219712e-01 -6.037042e-02) (-5.174556e-02 8.751580e-02 -3.723212e-01))
0.0501912     	((8.134756e+02 -9.767878e+04 5.489785e+02) (8.230163e-02 -1.703118e+04 1.771826e-02)) ((5.247788e-02 3.989672e-01 -8.141116e-02) (3.264438e-02 1.046473e-01 -4.710457e-01))
0.0533879     	((9.786805e+02 -9.774406e+04 6.901421e+02) (2.413411e-01 -1.701991e+04 1.861716e-01)) ((5.248305e-02 4.086102e-01 -6.031400e-02) (7.785067e-02 1.104463e-01 -5.263628e-01))
0.0565832     	((1.115926e+03 -9.746034e+04 8.230533e+02) (2.735326e-01 -1.700894e+04 3.164880e-01)) ((5.516760e-02 3.910285e-01 -6.489842e-02) (1.294432e-01 1.165875e-01 -5.900062e-01))
0.0597792     	((1.317283e+03 -9.732374e+04 9.797764e+02) (4.203990e-01 -1.699881e+04 4.500624e-01)) ((5.618498e-02 3.906470e-01 -6.365060e-02) (2.143016e-01 1.201376e-01 -7.110295e-01))
0.0629757     	((1.512063e+03 -9.738075e+04 1.151485e+03) (5.143295e-01 -1.699000e+04 5.666508e-01)) ((5.127872e-02 3.834267e-01 -5.246623e-02) (3.265700e-01 1.248047e-01 -8.633718e-01))
0.0661727     	((1.725547e+03 -9.745509e+04 1.330021e+03) (5.522904e-01 -1.698223e+04 6.373675e-01)) ((5.701884e-02 3.826618e-01 -5.955315e-02) (4.675396e-01 1.289752e-01 -1.037652e+00))
0.0693698     	((1.987936e+03 -9.758452e+04 1.550036e+03) (5.466472e-01 -1.697553e+04 6.572404e-01)) ((5.997312e-02 3.789708e-01 -5.866446e-02) (6.521736e-01 1.327950e-01 -1.278789e+00))
0.0725669     	((2.300441e+03 -9.765867e+04 1.802653e+03) (5.019099e-01 -1.696996e+04 6.147942e-01)) ((6.801191e-02 3.768937e-01 -6.352943e-02) (8.965340e-01 1.349804e-01 -1.583887e+00))
0.0757641     	((2.669027e+03 -9.767048e+04 2.114634e+03) (3.648241e-01 -1.696529e+04 5.242706e-01)) ((7.476753e-02 3.752528e-01 -6.954444e-02) (1.219688e+00 1.370071e-01 -1.980377e+00))
0.0789616     	((3.124330e+03 -9.763867e+04 2.487125e+03) (1.295072e-01 -1.696139e+04 3.276939e-01)) ((8.675694e-02 3.738026e-01 -7.302114e-02) (1.634017e+00 1.385685e-01 -2.480312e+00))
0.082159      	((3.677087e+03 -9.758699e+04 2.943153e+03) (-1.710322e-01 -1.695807e+04 5.870917e-02)) ((1.049182e-01 3.729274e-01 -8.309255e-02) (2.143222e+00 1.381239e-01 -3.093564e+00))
0.0853565     	((4.327942e+03 -9.754980e+04 3.490233e+03) (-5.067260e-01 -1.695524e+04 -2.412353e-01)) ((1.238876e-01 3.708095e-01 -9.025381e-02) (2.752466e+00 1.368698e-01 -3.819343e+00))
0.088554      	((5.089203e+03 -9.752094e+04 4.129252e+03) (-8.791537e-01 -1.695282e+04 -5.691635e-01)) ((1.447838e-01 3.685722e-01 -9.705650e-02) (3.461600e+00 1.358048e-01 -4.660704e+00))
0.0917515     	((5.968391e+03 -9.749046e+04 4.870077e+03) (-1.253869e+00 -1.695077e+04 -9.051584e-01)) ((1.646164e-01 3.659031e-01 -9.997355e-02) (4.274271e+00 1.355701e-01 -5.625121e+00))
0.0949489     	((6.981738e+03 -9.746038e+04 5.727445e+03) (-1.627097e+00 -1.694902e+04 -1.246404e+00)) ((1.871893e-01 3.638661e-01 -1.041274e-01) (5.199787e+00 1.358899e-01 -6.718252e+00))
0.0981462     	((8.124351e+03 -9.742726e+04 6.705343e+03) (-1.995364e+00 -1.694750e+04 -1.585222e+00)) ((2.124606e-01 3.616058e-01 -1.073231e-01) (6.245375e+00 1.361763e-01 -7.948104e+00))
0.101343      	((9.411702e+03 -9.740138e+04 7.803662e+03) (-2.356363e+00 -1.694617e+04 -1.919282e+00)) ((2.412258e-01 3.592745e-01 -1.108862e-01) (7.420222e+00 1.360973e-01 -9.324818e+00))
0.10454       	((1.084959e+04 -9.740102e+04 9.030525e+03) (-2.706385e+00 -1.694503e+04 -2.242066e+00)) ((2.730624e-01 3.572734e-01 -1.139303e-01) (8.731804e+00 1.358004e-01 -1.085900e+01))
0.107737      	((1.244254e+04 -9.743728e+04 1.038862e+04) (-3.050038e+00 -1.694404e+04 -2.555424e+00)) ((3.060787e-01 3.550019e-01 -1.156102e-01) (1.018867e+01 1.350601e-01 -1.256283e+01))
0.110934      	((1.421052e+04 -9.749208e+04 1.189497e+04) (-3.397785e+00 -1.694322e+04 -2.881768e+00)) ((3.452329e-01 3.507182e-01 -1.175103e-01) (1.180225e+01 1.331064e-01 -1.445198e+01))
0.11413       	((1.618075e+04 -9.757111e+04 1.357741e+04) (-3.757375e+00 -1.694255e+04 -3.226386e+00)) ((3.876135e-01 3.439199e-01 -1.184784e-01) (1.359274e+01 1.307615e-01 -1.654978e+01))
0.117326      	((1.838185e+04 -9.767398e+04 1.545470e+04) (-4.154652e+00 -1.694206e+04 -3.609275e+00)) ((4.341217e-01 3.358050e-01 -1.199875e-01) (1.559408e+01 1.289575e-01 -1.889130e+01))
0.120522      	((2.084697e+04 -9.778946e+04 1.755893e+04) (-4.626545e+00 -1.694173e+04 -4.048313e+00)) ((4.880523e-01 3.260734e-01 -1.236398e-01) (1.784156e+01 1.276050e-01 -2.152045e+01))
0.123717      	((2.360877e+04 -9.794330e+04 1.992364e+04) (-5.191700e+00 -1.694158e+04 -4.554583e+00)) ((5.498028e-01 3.146176e-01 -1.297489e-01) (2.037209e+01 1.277993e-01 -2.447561e+01))
0.126911      	((2.671784e+04 -9.812868e+04 2.258590e+04) (-5.845107e+00 -1.694163e+04 -5.140987e+00)) ((6.163699e-01 3.032111e-01 -1.349463e-01) (2.322123e+01 1.289871e-01 -2.779121e+01))
0.130105      	((3.019682e+04 -9.841260e+04 2.558059e+04) (-6.570148e+00 -1.694193e+04 -5.817809e+00)) ((6.913772e-01 2.898163e-01 -1.401944e-01) (2.643225e+01 1.278072e-01 -3.151395e+01))
0.133299      	((3.410066e+04 -9.876131e+04 2.894577e+04) (-7.341173e+00 -1.694254e+04 -6.561878e+00)) ((7.729275e-01 2.755316e-01 -1.470027e-01) (3.004420e+01 1.280039e-01 -3.568618e+01))
0.136492      	((3.843983e+04 -9.918508e+04 3.268492e+04) (-8.129583e+00 -1.694349e+04 -7.330227e+00)) ((8.617214e-01 2.586720e-01 -1.526074e-01) (3.407996e+01 1.320622e-01 -4.033526e+01))
0.139683      	((4.321159e+04 -9.971979e+04 3.682997e+04) (-8.883754e+00 -1.694480e+04 -8.087849e+00)) ((9.588321e-01 2.389041e-01 -1.537464e-01) (3.854810e+01 1.401660e-01 -4.546135e+01))
0.142875      	((4.848245e+04 -1.003788e+05 4.138464e+04) (-9.551413e+00 -1.694658e+04 -8.794446e+00)) ((1.061853e+00 2.095065e-01 -1.450330e-01) (4.344739e+01 1.507483e-01 -5.106809e+01))
0.146065      	((5.426356e+04 -1.011800e+05 4.640730e+04) (-1.007930e+01 -1.694890e+04 -9.384775e+00)) ((1.162643e+00 1.799416e-01 -1.226913e-01) (4.878066e+01 1.634364e-01 -5.717210e+01))
0.149254      	((6.058039e+04 -1.021973e+05 5.189560e+04) (-1.041521e+01 -1.695185e+04 -9.784277e+00)) ((1.260397e+00 1.553921e-01 -9.699601e-02) (5.453197e+01 1.796498e-01 -6.377217e+01))
0.152442      	((6.740595e+04 -1.035168e+05 5.778658e+04) (-1.046515e+01 -1.695555e+04 -9.913980e+00)) ((1.359937e+00 1.238147e-01 -6.086889e-02) (6.064496e+01 2.012779e-01 -7.083138e+01))
0.155629      	((7.468377e+04 -1.051898e+05 6.405665e+04) (-1.007430e+01 -1.696008e+04 -9.592226e+00)) ((1.464411e+00 9.308837e-02 -1.561650e-02) (6.704524e+01 2.298033e-01 -7.825675e+01))
0.158814      	((8.217028e+04 -1.070591e+05 7.051675e+04) (-9.118001e+00 -1.696544e+04 -8.691086e+00)) ((1.543877e+00 6.685431e-02 4.670082e-02) (7.363139e+01 2.652667e-01 -8.592711e+01))
0.161998      	((8.971068e+04 -1.092319e+05 7.695108e+04) (-7.628569e+00 -1.697160e+04 -7.163428e+00)) ((1.598359e+00 4.222809e-02 1.313058e-01) (8.026951e+01 3.087883e-01 -9.374077e+01))
0.165181      	((9.694048e+04 -1.118466e+05 8.306803e+04) (-5.756686e+00 -1.697860e+04 -5.033693e+00)) ((1.597257e+00 7.080057e-03 2.711053e-01) (8.682211e+01 3.629571e-01 -1.016513e+02))
0.168362      	((1.037144e+05 -1.148868e+05 8.870021e+04) (-3.585112e+00 -1.698640e+04 -2.565076e+00)) ((1.533031e+00 -4.895764e-03 4.339729e-01) (9.320394e+01 4.279367e-01 -1.095391e+02))
0.171541      	((1.096524e+05 -1.181770e+05 9.344425e+04) (-1.279209e+00 -1.699501e+04 -9.233609e-02)) ((1.378315e+00 5.406330e-03 6.476541e-01) (9.932109e+01 4.957927e-01 -1.172095e+02))
0.174719      	((1.141593e+05 -1.214001e+05 9.706075e+04) (9.137684e-01 -1.700446e+04 2.198908e+00)) ((1.160795e+00 2.508036e-02 9.006815e-01) (1.049839e+02 5.643571e-01 -1.243918e+02))
0.177895      	((1.169788e+05 -1.245524e+05 9.913851e+04) (2.874833e+00 -1.701472e+04 4.203236e+00)) ((9.064187e-01 4.381835e-02 1.168603e+00) (1.099203e+02 6.311540e-01 -1.307434e+02))
0.181071      	((1.178580e+05 -1.271368e+05 9.950269e+04) (4.372679e+00 -1.702554e+04 5.841682e+00)) ((6.934017e-01 7.150911e-02 1.358893e+00) (1.138056e+02 6.847181e-01 -1.359536e+02))
0.184244      	((1.169620e+05 -1.291245e+05 9.832953e+04) (5.200949e+00 -1.703641e+04 7.002234e+00)) ((5.468854e-01 1.005264e-01 1.468699e+00) (1.164309e+02 7.261616e-01 -1.397805e+02))
0.187417      	((1.148238e+05 -1.304452e+05 9.609848e+04) (5.326168e+00 -1.704655e+04 7.531403e+00)) ((5.071096e-01 1.108252e-01 1.451949e+00) (1.178139e+02 7.577408e-01 -1.421874e+02))
0.19059       	((1.120306e+05 -1.311338e+05 9.332379e+04) (4.619243e+00 -1.705536e+04 7.328092e+00)) ((5.839243e-01 9.510421e-02 1.337391e+00) (1.181597e+02 7.791050e-01 -1.433977e+02))
0.193762      	((1.090580e+05 -1.314040e+05 9.053968e+04) (3.188356e+00 -1.706262e+04 6.367026e+00)) ((7.558300e-01 5.507671e-02 1.173580e+00) (1.178027e+02 7.869630e-01 -1.436514e+02))
0.196934      	((1.064793e+05 -1.313078e+05 8.804743e+04) (1.401922e+00 -1.706843e+04 4.961052e+00)) ((9.574243e-01 -3.717123e-02 1.043998e+00) (1.169764e+02 7.815870e-01 -1.431913e+02))
0.200105      	((1.045341e+05 -1.308441e+05 8.618682e+04) (-2.948647e-01 -1.707306e+04 3.430208e+00)) ((1.087221e+00 -1.809791e-01 1.050636e+00) (1.158862e+02 7.356635e-01 -1.422595e+02))
0.203277      	((1.032844e+05 -1.300598e+05 8.485230e+04) (-1.395785e+00 -1.707682e+04 2.288452e+00)) ((1.088153e+00 -3.114252e-01 1.126744e+00) (1.145750e+02 6.707724e-01 -1.409792e+02))
0.20645       	((1.025326e+05 -1.291227e+05 8.397291e+04) (-1.569435e+00 -1.708016e+04 1.915026e+00)) ((1.075191e+00 -4.117654e-01 1.123325e+00) (1.130373e+02 6.084569e-01 -1.394018e+02))
0.209622      	((1.019939e+05 -1.282368e+05 8.325313e+04) (-8.077150e-01 -1.708349e+04 2.368362e+00)) ((1.098130e+00 -4.845461e-01 1.041337e+00) (1.113047e+02 5.601498e-01 -1.375777e+02))
0.212795      	((1.012830e+05 -1.276008e+05 8.240855e+04) (4.222050e-01 -1.708681e+04 3.289737e+00)) ((1.128029e+00 -5.307200e-01 9.439641e-01) (1.094985e+02 5.028301e-01 -1.357001e+02))
0.215968      	((1.002260e+05 -1.274012e+05 8.128511e+04) (1.519772e+00 -1.709011e+04 4.158294e+00)) ((1.120743e+00 -5.629583e-01 8.833389e-01) (1.077728e+02 4.191265e-01 -1.339327e+02))
0.219142      	((9.876651e+04 -1.271561e+05 7.975971e+04) (2.001218e+00 -1.709325e+04 4.472153e+00)) ((1.067264e+00 -5.815994e-01 8.535644e-01) (1.062452e+02 3.126481e-01 -1.323592e+02))
0.222315      	((9.710318e+04 -1.270258e+05 7.804564e+04) (1.602563e+00 -1.709584e+04 3.981239e+00)) ((9.889403e-01 -5.978560e-01 8.549997e-01) (1.049639e+02 1.944405e-01 -1.310464e+02))
0.225489      	((9.550571e+04 -1.269697e+05 7.641765e+04) (3.710910e-01 -1.709778e+04 2.777881e+00)) ((9.278145e-01 -6.230566e-01 8.642821e-01) (1.039214e+02 8.976180e-02 -1.300151e+02))
0.228664      	((9.417157e+04 -1.268473e+05 7.503167e+04) (-1.414726e+00 -1.709896e+04 1.109486e+00)) ((9.077135e-01 -6.610204e-01 8.671012e-01) (1.031005e+02 2.508594e-02 -1.292510e+02))
0.231838      	((9.325194e+04 -1.266992e+05 7.402353e+04) (-3.367207e+00 -1.709939e+04 -6.725860e-01)) ((9.241838e-01 -7.043446e-01 8.583294e-01) (1.024523e+02 1.560953e-02 -1.287018e+02))
0.235013      	((9.278618e+04 -1.265523e+05 7.344947e+04) (-5.047024e+00 -1.709918e+04 -2.100039e+00)) ((9.571700e-01 -7.445066e-01 8.305035e-01) (1.018753e+02 5.384157e-02 -1.282738e+02))
0.238189      	((9.275309e+04 -1.265019e+05 7.320361e+04) (-6.068621e+00 -1.709849e+04 -2.872388e+00)) ((9.951495e-01 -7.909728e-01 8.039482e-01) (1.012935e+02 1.094572e-01 -1.278778e+02))
0.241365      	((9.293291e+04 -1.265711e+05 7.307516e+04) (-6.423668e+00 -1.709744e+04 -2.974308e+00)) ((1.032882e+00 -8.482173e-01 7.798366e-01) (1.006712e+02 1.619712e-01 -1.275396e+02))
0.244541      	((9.308358e+04 -1.268581e+05 7.287988e+04) (-6.361308e+00 -1.709609e+04 -2.645590e+00)) ((1.040080e+00 -8.934685e-01 7.684136e-01) (1.000397e+02 1.989581e-01 -1.272998e+02))
0.247717      	((9.303220e+04 -1.273781e+05 7.248334e+04) (-6.157491e+00 -1.709445e+04 -2.131497e+00)) ((1.011962e+00 -9.285720e-01 7.731812e-01) (9.942630e+01 2.171705e-01 -1.271555e+02))
0.250894      	((9.268113e+04 -1.279255e+05 7.175101e+04) (-6.000626e+00 -1.709255e+04 -1.635137e+00)) ((9.666518e-01 -9.436215e-01 7.787690e-01) (9.880044e+01 2.151373e-01 -1.270520e+02))
0.254071      	((9.198559e+04 -1.283545e+05 7.069135e+04) (-6.014137e+00 -1.709033e+04 -1.329241e+00)) ((9.160246e-01 -9.478690e-01 7.873046e-01) (9.812135e+01 1.956880e-01 -1.269269e+02))
0.257248      	((9.103123e+04 -1.287158e+05 6.937436e+04) (-6.342685e+00 -1.708771e+04 -1.317723e+00)) ((8.623821e-01 -9.452096e-01 8.054655e-01) (9.736426e+01 1.625041e-01 -1.267702e+02))
0.260425      	((8.997745e+04 -1.289373e+05 6.793435e+04) (-7.034151e+00 -1.708461e+04 -1.590008e+00)) ((8.193919e-01 -9.390943e-01 8.023342e-01) (9.651470e+01 1.212420e-01 -1.265864e+02))
0.263603      	((8.898533e+04 -1.290651e+05 6.648282e+04) (-7.986974e+00 -1.708097e+04 -2.073875e+00)) ((8.004887e-01 -9.403884e-01 7.877427e-01) (9.558110e+01 7.560553e-02 -1.263792e+02))
0.266781      	((8.813665e+04 -1.291092e+05 6.511745e+04) (-9.052345e+00 -1.707679e+04 -2.683164e+00)) ((7.985738e-01 -9.509391e-01 7.776502e-01) (9.458298e+01 2.490604e-02 -1.261535e+02))
0.269959      	((8.751536e+04 -1.291095e+05 6.388592e+04) (-1.004945e+01 -1.707213e+04 -3.274577e+00)) ((8.067268e-01 -9.698097e-01 7.740435e-01) (9.352411e+01 -2.749994e-02 -1.259042e+02))
0.273138      	((8.708475e+04 -1.291277e+05 6.279048e+04) (-1.082010e+01 -1.706713e+04 -3.730589e+00)) ((8.233009e-01 -9.895152e-01 7.851054e-01) (9.241573e+01 -8.179871e-02 -1.256280e+02))
0.276316      	((8.675184e+04 -1.291654e+05 6.180880e+04) (-1.125857e+01 -1.706193e+04 -3.976089e+00)) ((8.359293e-01 -1.010872e+00 8.128919e-01) (9.126435e+01 -1.391201e-01 -1.253000e+02))
0.279496      	((8.638240e+04 -1.292268e+05 6.084472e+04) (-1.135079e+01 -1.705671e+04 -3.989285e+00)) ((8.387883e-01 -1.034884e+00 8.598441e-01) (9.005339e+01 -2.045737e-01 -1.248769e+02))
0.282676      	((8.592647e+04 -1.293554e+05 5.983373e+04) (-1.114863e+01 -1.705166e+04 -3.798357e+00)) ((8.203810e-01 -1.057853e+00 9.258026e-01) (8.875827e+01 -2.770448e-01 -1.243264e+02))
0.285856      	((8.530017e+04 -1.294315e+05 5.868633e+04) (-1.074038e+01 -1.704693e+04 -3.429026e+00)) ((7.774231e-01 -1.082179e+00 1.001133e+00) (8.734265e+01 -3.493159e-01 -1.236291e+02))
