# Forces      
# CofR        : (0.000000e+00 0.000000e+00 0.000000e+00)
# Time        forces(pressure viscous)	moments(pressure viscous)
0             	((0.000000e+00 0.000000e+00 0.000000e+00) (-2.521580e-12 -2.528471e-02 -1.563353e-12)) ((0.000000e+00 0.000000e+00 0.000000e+00) (7.619609e-10 -1.208322e-13 -3.377363e-09))
0.012         	((-4.442670e-05 -7.349050e+02 1.137023e-04) (-1.362112e-09 -4.597733e-02 2.906542e-08)) ((1.905984e-05 1.097171e-06 -1.228461e-04) (-4.968685e-08 -2.488987e-10 4.346475e-08))
0.0264        	((-2.244212e-03 5.243996e+01 -1.795914e-02) (-3.441084e-08 -5.163120e-02 -1.773962e-07)) ((-6.220748e-07 -2.041771e-07 9.771562e-06) (-5.961068e-09 -2.459817e-10 1.470817e-08))
0.04368       	((-3.892626e-03 1.545173e+02 1.966049e-02) (-1.142729e-07 -4.668978e-02 -5.207812e-08)) ((-8.078132e-06 1.602331e-07 3.077850e-05) (2.620935e-07 -1.031899e-09 -2.476698e-07))
0.064416      	((-6.091828e-04 2.376730e+00 -7.394523e-04) (-4.219107e-07 -4.289489e-02 -1.112733e-07)) ((1.069906e-06 1.274898e-08 -1.142289e-06) (2.885326e-07 -5.004843e-09 -2.809248e-07))
0.0892992     	((2.264634e-03 -1.845634e+00 -2.228169e-03) (-7.118711e-07 -4.214233e-02 -4.065513e-07)) ((9.746856e-07 -4.135644e-07 -1.530576e-06) (1.738717e-07 -1.316188e-08 -1.664538e-07))
0.119159      	((-1.221981e-03 3.732911e+00 -1.627447e-03) (-6.838101e-07 -4.173265e-02 -4.310366e-07)) ((-3.461882e-07 2.727928e-07 7.998733e-07) (1.282226e-07 -3.348156e-08 -1.202837e-07))
0.154991      	((6.191954e-04 2.093741e+00 4.145136e-04) (-6.362400e-07 -4.121856e-02 -4.032496e-07)) ((-1.030648e-07 -1.680211e-07 5.431381e-08) (8.424763e-08 -3.333487e-08 -4.722816e-08))
0.197989      	((4.559897e-05 8.153618e-01 4.367900e-04) (-8.331182e-07 -4.068710e-02 -4.443903e-07)) ((-1.242243e-07 4.201312e-07 1.930021e-07) (7.349815e-08 -7.711107e-09 -1.523678e-08))
0.249587      	((-1.213332e-04 5.790080e-01 -3.836646e-04) (-9.657880e-07 -4.017699e-02 -3.736948e-07)) ((-2.702807e-07 2.503438e-07 2.305538e-07) (7.912846e-08 -3.094248e-09 -2.583940e-09))
0.311504      	((-1.252473e-04 4.033985e-01 -1.348178e-04) (-1.013726e-06 -3.969340e-02 -3.231850e-07)) ((-1.044614e-08 -6.123185e-08 7.259282e-08) (7.784768e-08 -7.760434e-09 3.773773e-08))
0.385805      	((-1.852541e-04 2.168650e-01 -2.452099e-04) (-1.080310e-06 -3.921178e-02 -2.886615e-07)) ((-6.529948e-08 -8.623067e-08 1.406636e-07) (1.213481e-07 6.944424e-09 9.193404e-08))
0.474966      	((-2.060920e-04 1.096560e-01 -2.661570e-04) (-9.777381e-07 -3.871422e-02 -1.252814e-07)) ((-9.017478e-08 -1.465519e-08 1.098481e-07) (1.761278e-07 1.199385e-08 1.310648e-07))
0.581959      	((-5.068912e-05 5.263930e-02 -4.538367e-05) (-1.764134e-07 -3.819209e-02 6.852962e-08)) ((-4.013572e-08 -5.243602e-08 5.953862e-08) (1.739950e-07 4.961190e-09 1.531363e-07))
0.710351      	((1.637446e-04 1.659574e-02 1.904983e-05) (6.110158e-07 -3.763624e-02 9.441394e-08)) ((5.820455e-09 -2.211093e-09 2.489284e-09) (1.557095e-07 -1.639047e-10 1.369767e-07))
0.864421      	((1.923576e-04 -7.003787e-03 1.462587e-05) (6.179445e-07 -3.703956e-02 -1.307507e-07)) ((-1.549432e-08 5.767909e-08 -5.280992e-08) (1.638728e-07 1.982612e-09 1.217595e-07))
1.049306      	((4.125936e-05 -1.956946e-02 -1.590952e-04) (-1.717567e-07 -3.639568e-02 -5.170795e-08)) ((2.803014e-08 9.555068e-08 -1.104602e-07) (1.491814e-07 2.325769e-08 1.209800e-07))
1.271167      	((-9.004160e-05 -2.539566e-02 5.180588e-06) (-8.658765e-07 -3.569807e-02 2.626395e-07)) ((3.155794e-08 6.786911e-08 -9.621910e-08) (1.365091e-07 4.145300e-08 1.035567e-07))
1.5374        	((-8.880471e-05 -2.803164e-02 -9.206213e-05) (-3.338550e-07 -3.494148e-02 2.214130e-07)) ((8.451135e-08 2.722493e-08 -6.492684e-08) (1.496837e-07 5.346606e-08 1.114530e-07))
1.85688       	((1.619045e-06 -2.855945e-02 3.445660e-05) (-4.758037e-07 -3.412145e-02 -2.935274e-07)) ((4.665156e-08 -1.472183e-08 1.411550e-08) (1.407022e-07 3.224082e-08 -2.310654e-08))
2.240256      	((-1.823389e-05 -2.797619e-02 -1.391232e-04) (-3.470359e-07 -3.324068e-02 -6.846383e-08)) ((7.548585e-08 -4.025090e-08 7.530048e-08) (1.244901e-07 1.703253e-09 -2.043593e-08))
2.700307      	((-3.463344e-05 -2.713309e-02 9.625701e-05) (-7.260769e-07 -3.230520e-02 -7.515557e-09)) ((1.545224e-08 -1.845833e-08 3.202568e-08) (1.823538e-07 -8.340448e-10 -1.296503e-07))
3.252369      	((1.376904e-05 -2.669628e-02 -8.816560e-05) (-1.454267e-06 -3.133052e-02 1.061435e-07)) ((2.993898e-08 2.750262e-08 -5.709172e-08) (2.061277e-07 -4.973704e-08 -1.672545e-07))
3.914842      	((-1.695763e-04 -2.628457e-02 8.812916e-05) (-1.548345e-06 -3.032934e-02 3.175717e-07)) ((-5.652202e-08 1.289510e-07 -6.149099e-08) (2.674720e-07 -8.792725e-08 -2.928766e-07))
4.709811      	((4.687605e-05 -2.555939e-02 -5.565135e-05) (-1.488280e-06 -2.933439e-02 6.707396e-07)) ((-3.232215e-08 1.543034e-07 -6.666800e-08) (2.412034e-07 -9.866148e-08 -3.348032e-07))
5.663773      	((-1.240632e-04 -2.502607e-02 1.132016e-04) (-1.814768e-06 -2.837324e-02 1.807189e-06)) ((5.634355e-08 2.920671e-08 -3.022355e-08) (1.943293e-07 -6.531414e-09 -5.447513e-07))
6.808528      	((1.550403e-06 -2.441062e-02 -7.505287e-06) (-2.505542e-06 -2.747212e-02 1.782180e-06)) ((2.764237e-08 -1.337054e-08 -2.796960e-08) (9.216750e-08 1.802042e-08 -6.834214e-07))
8.182233      	((-1.100531e-04 -2.420909e-02 4.113952e-05) (-3.063856e-06 -2.663396e-02 3.006786e-07)) ((-5.554327e-08 1.050642e-07 -5.014347e-10) (3.720327e-08 -2.669845e-08 -7.646461e-07))
9.83068       	((-2.957438e-05 -2.440162e-02 -9.849825e-05) (-2.627386e-06 -2.585603e-02 -1.221936e-06)) ((-2.910264e-08 9.231359e-08 -4.904194e-08) (1.768336e-09 -5.337815e-08 -9.500330e-07))
11.808816     	((-1.057609e-04 -2.518554e-02 -3.319787e-05) (-3.189237e-06 -2.512858e-02 -1.840274e-06)) ((2.023849e-08 6.446169e-08 7.506959e-09) (1.846228e-08 -5.325114e-08 -7.438859e-07))
14.182579     	((-9.972500e-05 -2.668753e-02 -5.251950e-05) (-5.409229e-06 -2.445228e-02 -9.329175e-07)) ((3.052799e-09 8.241933e-08 1.063243e-08) (4.413718e-08 -2.490206e-08 -4.967772e-07))
17.031095     	((-1.136053e-04 -2.899901e-02 3.280855e-05) (-5.197992e-06 -2.383834e-02 4.746524e-07)) ((-5.394609e-09 6.104109e-08 -1.328454e-08) (-3.870190e-08 -2.849836e-08 -4.281677e-07))
20.449314     	((-9.120905e-06 -3.237232e-02 -6.987497e-07) (-2.720136e-06 -2.329120e-02 6.778702e-07)) ((4.568956e-09 2.769838e-08 -4.805182e-10) (-1.840604e-07 -1.791418e-08 -4.913753e-07))
24.525501     	((-7.115373e-05 -3.640793e-02 -3.024409e-06) (-3.696450e-06 -2.280750e-02 -6.728625e-08)) ((8.829026e-09 8.511115e-08 1.501127e-09) (-2.925585e-07 6.943889e-09 -2.418273e-07))
29.259355     	((-9.710209e-05 -4.155831e-02 -4.527578e-06) (-5.141113e-06 -2.239769e-02 -1.755626e-08)) ((-1.824236e-10 6.990578e-08 3.697444e-09) (-2.611340e-07 4.167233e-08 6.587897e-08))
34.651463     	((-4.112565e-05 -4.714322e-02 1.708989e-05) (-3.896257e-06 -2.207122e-02 2.697897e-07)) ((9.006355e-09 5.124266e-08 2.090192e-08) (-2.257794e-07 7.963072e-08 4.746087e-08))
40.70213      	((1.298850e-06 -5.285289e-02 7.658021e-06) (-1.832916e-06 -2.182063e-02 2.263656e-07)) ((3.681541e-09 6.638885e-08 9.931129e-09) (-2.834325e-07 7.910582e-08 -4.005908e-08))
47.253912     	((7.354858e-05 -5.878926e-02 3.563952e-05) (1.065557e-06 -2.162626e-02 3.839953e-07)) ((-1.586846e-09 6.409928e-08 1.986181e-08) (-2.450396e-07 7.156482e-08 -3.763024e-08))
53.762865     	((1.149715e-04 -6.452870e-02 4.252941e-05) (2.155063e-06 -2.145873e-02 -6.172136e-09)) ((-3.321865e-09 6.452216e-08 2.277497e-08) (-4.393214e-08 5.102826e-08 -1.129662e-07))
60.233367     	((1.242670e-04 -6.962344e-02 5.899713e-05) (1.866394e-06 -2.128182e-02 -4.602581e-07)) ((-4.094253e-09 6.465906e-08 2.167358e-08) (2.840601e-07 3.913619e-08 -2.695831e-07))
66.68654      	((1.706328e-04 -7.403201e-02 8.881396e-05) (2.531177e-06 -2.108117e-02 -6.580627e-07)) ((4.236172e-09 6.253992e-08 2.072590e-08) (5.686723e-07 4.203044e-08 -4.666191e-07))
73.146972     	((2.087846e-04 -7.715584e-02 1.245111e-04) (3.414158e-06 -2.087031e-02 -2.831528e-07)) ((9.469103e-09 6.386378e-08 2.189020e-08) (6.016277e-07 4.528942e-08 -5.025952e-07))
79.626814     	((2.218017e-04 -7.923359e-02 1.567143e-04) (3.506940e-06 -2.066718e-02 5.351674e-07)) ((1.177827e-08 6.072405e-08 2.486550e-08) (4.336743e-07 4.035169e-08 -2.658346e-07))
86.12321      	((2.362298e-04 -8.014362e-02 1.965021e-04) (3.221897e-06 -2.048107e-02 1.181460e-06)) ((1.031115e-08 5.810641e-08 2.896562e-08) (3.447376e-07 3.518263e-08 -1.468672e-07))
92.627896     	((2.481983e-04 -8.007070e-02 2.290238e-04) (2.674229e-06 -2.031209e-02 1.412553e-06)) ((5.962572e-09 5.146023e-08 3.207043e-08) (4.533335e-07 4.436743e-08 -3.634583e-07))
99.136688     	((2.776431e-04 -7.927026e-02 2.775309e-04) (2.372361e-06 -2.015822e-02 1.680802e-06)) ((3.791378e-09 4.215060e-08 3.458508e-08) (6.779422e-07 4.670010e-08 -7.394661e-07))
105.65035     	((3.256452e-04 -7.830628e-02 3.349189e-04) (2.630763e-06 -2.001660e-02 2.075701e-06)) ((3.158882e-09 2.755978e-08 3.619772e-08) (9.000177e-07 3.903361e-08 -1.093878e-06))
112.170545    	((3.625915e-04 -7.750300e-02 3.736405e-04) (2.745212e-06 -1.988497e-02 2.200909e-06)) ((1.339602e-09 1.241890e-08 3.895172e-08) (1.064080e-06 3.308139e-08 -1.362078e-06))
118.69745     	((3.928954e-04 -7.679555e-02 4.117625e-04) (2.524259e-06 -1.976269e-02 2.365148e-06)) ((-8.501662e-10 7.311351e-10 4.592370e-08) (1.220085e-06 3.704860e-08 -1.586768e-06))
125.230291    	((4.447863e-04 -7.637168e-02 4.727414e-04) (2.300613e-06 -1.965180e-02 2.689197e-06)) ((-3.078200e-09 -6.256850e-09 5.205121e-08) (1.420467e-06 4.261791e-08 -1.783972e-06))
131.768498    	((5.038698e-04 -7.587728e-02 5.456327e-04) (2.081279e-06 -1.955148e-02 3.020145e-06)) ((-3.788987e-09 -9.694823e-09 5.538363e-08) (1.716698e-06 5.223537e-08 -2.021328e-06))
138.311883    	((5.628275e-04 -7.545857e-02 6.204896e-04) (1.828217e-06 -1.945869e-02 3.313718e-06)) ((-3.084426e-09 -1.344637e-08 5.978706e-08) (2.094488e-06 6.688965e-08 -2.310839e-06))
144.86024     	((6.369008e-04 -7.511232e-02 7.117614e-04) (1.802968e-06 -1.937234e-02 3.631385e-06)) ((-4.164924e-09 -1.729141e-08 6.496680e-08) (2.532065e-06 7.756056e-08 -2.675345e-06))
151.413213    	((7.048572e-04 -7.476200e-02 8.053299e-04) (2.025708e-06 -1.929192e-02 4.149743e-06)) ((-7.742061e-09 -1.903686e-08 7.188169e-08) (2.975766e-06 7.338991e-08 -3.047062e-06))
157.97045     	((7.837052e-04 -7.445880e-02 9.158998e-04) (2.302394e-06 -1.921786e-02 4.732612e-06)) ((-1.124978e-08 -2.007339e-08 7.788306e-08) (3.431446e-06 7.073854e-08 -3.386913e-06))
164.531674    	((8.708844e-04 -7.414738e-02 1.038233e-03) (2.926193e-06 -1.915084e-02 5.502071e-06)) ((-1.587786e-08 -2.158585e-08 8.483829e-08) (3.888259e-06 7.840893e-08 -3.662570e-06))
171.096648    	((9.755722e-04 -7.373109e-02 1.193895e-03) (3.811471e-06 -1.909049e-02 6.468512e-06)) ((-1.827316e-08 -2.427345e-08 9.080029e-08) (4.423806e-06 7.800645e-08 -3.980764e-06))
177.665125    	((1.100203e-03 -7.330919e-02 1.376271e-03) (4.729926e-06 -1.903576e-02 7.625448e-06)) ((-1.680322e-08 -2.791275e-08 9.328741e-08) (5.062329e-06 6.842812e-08 -4.395770e-06))
184.236838    	((1.225954e-03 -7.286295e-02 1.576170e-03) (5.827962e-06 -1.898579e-02 9.104931e-06)) ((-1.365028e-08 -2.969444e-08 9.495525e-08) (5.724772e-06 5.011803e-08 -4.782871e-06))
190.811523    	((1.376426e-03 -7.242623e-02 1.818648e-03) (7.296404e-06 -1.894023e-02 1.084533e-05)) ((-9.707815e-09 -3.045515e-08 9.556547e-08) (6.388850e-06 2.680888e-08 -5.094497e-06))
197.388908    	((1.552498e-03 -7.197974e-02 2.105837e-03) (9.042975e-06 -1.889854e-02 1.291157e-05)) ((-7.247280e-09 -3.095085e-08 9.751350e-08) (7.118237e-06 1.122657e-08 -5.444433e-06))
203.968716    	((1.742787e-03 -7.152630e-02 2.411741e-03) (1.078421e-05 -1.886011e-02 1.516615e-05)) ((-6.264201e-09 -2.962117e-08 1.002586e-07) (8.028283e-06 1.552932e-08 -5.970059e-06))
210.550673    	((1.939830e-03 -7.110497e-02 2.745048e-03) (1.238343e-05 -1.882451e-02 1.742950e-05)) ((-4.889625e-09 -2.742387e-08 1.020254e-07) (9.181227e-06 3.291108e-08 -6.693125e-06))
217.134506    	((2.153393e-03 -7.068776e-02 3.118805e-03) (1.384215e-05 -1.879135e-02 1.971630e-05)) ((-5.677765e-09 -2.471482e-08 1.058470e-07) (1.059215e-05 5.204919e-08 -7.596888e-06))
223.719931    	((2.410370e-03 -7.025723e-02 3.568438e-03) (1.531345e-05 -1.876008e-02 2.227370e-05)) ((-8.286548e-09 -2.346445e-08 1.120493e-07) (1.222292e-05 7.601890e-08 -8.653348e-06))
230.306658    	((2.724019e-03 -6.986740e-02 4.103342e-03) (1.700855e-05 -1.873022e-02 2.538466e-05)) ((-1.116135e-08 -2.294726e-08 1.183540e-07) (1.404400e-05 1.093250e-07 -9.830720e-06))
236.894418    	((3.072549e-03 -6.956782e-02 4.707848e-03) (1.902544e-05 -1.870184e-02 2.922602e-05)) ((-1.470419e-08 -2.329901e-08 1.238654e-07) (1.604305e-05 1.506223e-07 -1.111626e-05))
243.482973    	((3.462455e-03 -6.938502e-02 5.387582e-03) (2.144154e-05 -1.867528e-02 3.386693e-05)) ((-1.649043e-08 -2.569017e-08 1.284193e-07) (1.821890e-05 1.913426e-07 -1.249450e-05))
250.072106    	((3.899204e-03 -6.926173e-02 6.156554e-03) (2.438925e-05 -1.865091e-02 3.936267e-05)) ((-1.814894e-08 -2.887711e-08 1.331567e-07) (2.057237e-05 2.388147e-07 -1.396173e-05))
256.661593    	((4.397831e-03 -6.914316e-02 7.030657e-03) (2.787591e-05 -1.862885e-02 4.570506e-05)) ((-1.877836e-08 -3.129829e-08 1.373549e-07) (2.314780e-05 2.805960e-07 -1.556102e-05))
263.251185    	((4.966164e-03 -6.899963e-02 8.023004e-03) (3.194211e-05 -1.860889e-02 5.289754e-05)) ((-2.021175e-08 -3.255198e-08 1.424236e-07) (2.606614e-05 3.070354e-07 -1.734190e-05))
269.840596    	((5.606859e-03 -6.884748e-02 9.142861e-03) (3.657858e-05 -1.859087e-02 6.093821e-05)) ((-2.334675e-08 -3.152417e-08 1.494947e-07) (2.946002e-05 3.173039e-07 -1.936294e-05))
276.429505    	((6.336331e-03 -6.869496e-02 1.042159e-02) (4.180434e-05 -1.857470e-02 6.988662e-05)) ((-2.804284e-08 -2.999202e-08 1.595579e-07) (3.341524e-05 3.244433e-07 -2.169121e-05))
283.017552    	((7.157890e-03 -6.854233e-02 1.188402e-02) (4.778208e-05 -1.856023e-02 7.997875e-05)) ((-3.484659e-08 -2.712157e-08 1.726613e-07) (3.796689e-05 3.157247e-07 -2.434721e-05))
289.604338    	((8.078293e-03 -6.842097e-02 1.355178e-02) (5.462764e-05 -1.854730e-02 9.156043e-05)) ((-4.386665e-08 -2.447374e-08 1.884376e-07) (4.312986e-05 2.640344e-07 -2.735069e-05))
296.189438    	((9.122426e-03 -6.833651e-02 1.545461e-02) (6.234347e-05 -1.853582e-02 1.049861e-04)) ((-5.459125e-08 -2.075759e-08 2.054469e-07) (4.895365e-05 1.812345e-07 -3.075380e-05))
302.772403    	((1.030628e-02 -6.831360e-02 1.761635e-02) (7.091929e-05 -1.852594e-02 1.206841e-04)) ((-6.765645e-08 -1.806156e-08 2.251531e-07) (5.545052e-05 1.057135e-07 -3.465004e-05))
309.352751    	((1.165452e-02 -6.832965e-02 2.007251e-02) (8.067163e-05 -1.851803e-02 1.390173e-04)) ((-8.111884e-08 -1.736461e-08 2.470274e-07) (6.265512e-05 4.128880e-08 -3.901651e-05))
315.92997     	((1.319373e-02 -6.841515e-02 2.286138e-02) (9.200729e-05 -1.851259e-02 1.601709e-04)) ((-9.516171e-08 -1.795822e-08 2.706076e-07) (7.073221e-05 -1.129281e-08 -4.379837e-05))
322.503502    	((1.495848e-02 -6.857285e-02 2.600415e-02) (1.050577e-04 -1.850998e-02 1.842922e-04)) ((-1.080600e-07 -1.926857e-08 2.958468e-07) (7.985090e-05 -9.038253e-08 -4.911098e-05))
329.072732    	((1.695388e-02 -6.880765e-02 2.955780e-02) (1.197652e-04 -1.851044e-02 2.116092e-04)) ((-1.219059e-07 -1.617424e-08 3.251860e-07) (9.024987e-05 -2.138238e-07 -5.515212e-05))
335.636979    	((1.922831e-02 -6.914179e-02 3.356101e-02) (1.365665e-04 -1.851442e-02 2.422948e-04)) ((-1.411862e-07 -1.210737e-08 3.628175e-07) (1.022129e-04 -3.573131e-07 -6.197192e-05))
342.195501    	((2.180003e-02 -6.957751e-02 3.806722e-02) (1.559516e-04 -1.852239e-02 2.766906e-04)) ((-1.683400e-07 -5.537069e-09 4.106937e-07) (1.159325e-04 -4.691083e-07 -6.965641e-05))
348.747494    	((2.469953e-02 -7.016911e-02 4.312963e-02) (1.783426e-04 -1.853441e-02 3.155502e-04)) ((-2.031188e-07 -2.732149e-09 4.627350e-07) (1.314381e-04 -5.423891e-07 -7.827377e-05))
355.292097    	((2.794717e-02 -7.097888e-02 4.877921e-02) (2.039757e-04 -1.855116e-02 3.594025e-04)) ((-2.428710e-07 3.528529e-10 5.147301e-07) (1.488369e-04 -4.684300e-07 -8.799384e-05))
361.828419    	((3.152915e-02 -7.205210e-02 5.497528e-02) (2.334753e-04 -1.857404e-02 4.092866e-04)) ((-2.873332e-07 3.066304e-09 5.626570e-07) (1.679128e-04 -2.442058e-07 -9.870945e-05))
368.355596    	((3.539804e-02 -7.351910e-02 6.168106e-02) (2.669134e-04 -1.860485e-02 4.660050e-04)) ((-3.340692e-07 1.173768e-08 6.099547e-07) (1.881526e-04 2.695900e-08 -1.101957e-04))
374.872806    	((3.956597e-02 -7.544639e-02 6.879243e-02) (3.042642e-04 -1.864513e-02 5.298241e-04)) ((-3.946768e-07 -2.505134e-09 6.601516e-07) (2.093422e-04 2.200248e-07 -1.224237e-04))
381.379311    	((4.399001e-02 -7.780043e-02 7.630599e-02) (3.460657e-04 -1.869613e-02 6.014695e-04)) ((-4.598476e-07 -4.073989e-08 7.101685e-07) (2.312873e-04 3.302073e-07 -1.352273e-04))
387.874444    	((4.866626e-02 -8.059511e-02 8.426722e-02) (3.930694e-04 -1.875916e-02 6.813302e-04)) ((-5.316320e-07 -7.690323e-08 7.734814e-07) (2.539385e-04 3.256672e-07 -1.484590e-04))
394.357539    	((5.342610e-02 -8.389213e-02 9.251620e-02) (4.453189e-04 -1.883533e-02 7.688050e-04)) ((-6.349930e-07 -1.066294e-07 8.638898e-07) (2.773286e-04 -3.658046e-08 -1.620053e-04))
400.827997    	((5.810938e-02 -8.775743e-02 1.007478e-01) (5.027447e-04 -1.892461e-02 8.629767e-04)) ((-7.743713e-07 -1.286635e-07 9.810592e-07) (3.006187e-04 -9.079257e-07 -1.753518e-04))
407.285307    	((6.261204e-02 -9.239132e-02 1.085897e-01) (5.643585e-04 -1.902749e-02 9.627417e-04)) ((-9.464327e-07 -1.534569e-07 1.094852e-06) (3.228326e-04 -1.938239e-06 -1.881229e-04))
413.729054    	((6.668074e-02 -9.748142e-02 1.155970e-01) (6.274065e-04 -1.914334e-02 1.065964e-03)) ((-1.157639e-06 -1.530961e-07 1.205276e-06) (3.433203e-04 -2.672220e-06 -1.999926e-04))
420.159042    	((7.001648e-02 -1.028707e-01 1.212667e-01) (6.901596e-04 -1.927025e-02 1.169709e-03)) ((-1.415683e-06 -1.253073e-07 1.324821e-06) (3.615744e-04 -3.192442e-06 -2.104440e-04))
426.575402    	((7.222644e-02 -1.083311e-01 1.253096e-01) (7.498825e-04 -1.940807e-02 1.269128e-03)) ((-1.720501e-06 -8.117649e-08 1.451685e-06) (3.771020e-04 -3.893574e-06 -2.191643e-04))
432.978601    	((7.318682e-02 -1.131726e-01 1.273346e-01) (8.027870e-04 -1.955256e-02 1.360318e-03)) ((-2.034038e-06 -4.076841e-08 1.563281e-06) (3.890760e-04 -5.070035e-06 -2.257649e-04))
439.369521    	((7.274566e-02 -1.169038e-01 1.269649e-01) (8.438001e-04 -1.969433e-02 1.436702e-03)) ((-2.303607e-06 2.232710e-08 1.661619e-06) (3.972700e-04 -6.583410e-06 -2.307379e-04))
445.749541    	((7.063584e-02 -1.191464e-01 1.239131e-01) (8.699679e-04 -1.982323e-02 1.489614e-03)) ((-2.486909e-06 1.049893e-07 1.725697e-06) (4.022084e-04 -8.108364e-06 -2.338812e-04))
452.118252    	((6.692794e-02 -1.192680e-01 1.181847e-01) (8.773725e-04 -1.993227e-02 1.511497e-03)) ((-2.560019e-06 1.709430e-07 1.782735e-06) (4.046285e-04 -9.712020e-06 -2.350088e-04))
458.476684    	((6.161793e-02 -1.176165e-01 1.095325e-01) (8.625252e-04 -2.001844e-02 1.495304e-03)) ((-2.529295e-06 2.117804e-07 1.833548e-06) (4.051163e-04 -1.124831e-05 -2.337229e-04))
464.829259    	((5.513655e-02 -1.148187e-01 9.848871e-02) (8.240998e-04 -2.008287e-02 1.435949e-03)) ((-2.511046e-06 2.178101e-07 1.886497e-06) (4.038851e-04 -1.223460e-05 -2.299685e-04))
471.18078     	((4.829585e-02 -1.107318e-01 8.653383e-02) (7.645793e-04 -2.012903e-02 1.336266e-03)) ((-2.511453e-06 2.229149e-07 1.864054e-06) (4.009498e-04 -1.272243e-05 -2.240180e-04))
477.536204    	((4.174592e-02 -1.065662e-01 7.470315e-02) (6.890058e-04 -2.016117e-02 1.203286e-03)) ((-2.502713e-06 2.180275e-07 1.831825e-06) (3.968276e-04 -1.297957e-05 -2.169448e-04))
483.9002      	((3.610799e-02 -1.025352e-01 6.429636e-02) (6.066341e-04 -2.018796e-02 1.048760e-03)) ((-2.452237e-06 2.049623e-07 1.769382e-06) (3.914908e-04 -1.343941e-05 -2.084973e-04))
490.276574    	((3.207578e-02 -9.857276e-02 5.663631e-02) (5.245038e-04 -2.021274e-02 8.904144e-04)) ((-2.317339e-06 1.653128e-07 1.699883e-06) (3.856922e-04 -1.406947e-05 -1.998905e-04))
496.664028    	((2.987313e-02 -9.490095e-02 5.228925e-02) (4.470429e-04 -2.023840e-02 7.391226e-04)) ((-2.123573e-06 1.512280e-07 1.634841e-06) (3.819711e-04 -1.460831e-05 -1.931088e-04))
503.062233    	((2.911332e-02 -9.164089e-02 5.083583e-02) (3.792895e-04 -2.026513e-02 6.085726e-04)) ((-1.942115e-06 1.528759e-07 1.552956e-06) (3.800021e-04 -1.426332e-05 -1.888209e-04))
509.47082     	((2.945229e-02 -8.895053e-02 5.135469e-02) (3.269484e-04 -2.029550e-02 5.116235e-04)) ((-1.857156e-06 1.695191e-07 1.427743e-06) (3.760274e-04 -1.261164e-05 -1.856706e-04))
515.888634    	((3.049318e-02 -8.642890e-02 5.288672e-02) (2.945097e-04 -2.032875e-02 4.548574e-04)) ((-1.800191e-06 1.795807e-07 1.262638e-06) (3.665049e-04 -1.024328e-05 -1.817656e-04))
522.314011    	((3.187294e-02 -8.364074e-02 5.483760e-02) (2.838634e-04 -2.035704e-02 4.378606e-04)) ((-1.733099e-06 1.704593e-07 1.095682e-06) (3.506834e-04 -8.250339e-06 -1.756182e-04))
528.745083    	((3.335159e-02 -8.023793e-02 5.688115e-02) (2.925184e-04 -2.036852e-02 4.499872e-04)) ((-1.609017e-06 1.588258e-07 9.555648e-07) (3.322016e-04 -7.888163e-06 -1.676101e-04))
535.179958    	((3.460095e-02 -7.670959e-02 5.861531e-02) (3.116080e-04 -2.035731e-02 4.710653e-04)) ((-1.342105e-06 1.382173e-07 8.510448e-07) (3.180832e-04 -1.002717e-05 -1.597611e-04))
541.616852    	((3.578324e-02 -7.397962e-02 6.032017e-02) (3.342183e-04 -2.033036e-02 4.887097e-04)) ((-9.611601e-07 1.147664e-07 7.156595e-07) (3.112473e-04 -1.419549e-05 -1.533965e-04))
548.054171    	((3.666517e-02 -7.296196e-02 6.178005e-02) (3.557396e-04 -2.029876e-02 5.029115e-04)) ((-6.625957e-07 6.077655e-08 6.187157e-07) (3.096774e-04 -1.847394e-05 -1.491693e-04))
554.490625    	((3.732970e-02 -7.431391e-02 6.293278e-02) (3.747995e-04 -2.027269e-02 5.161622e-04)) ((-5.295037e-07 -3.281372e-08 6.125334e-07) (3.111026e-04 -2.159300e-05 -1.462400e-04))
560.925264    	((3.767705e-02 -7.713969e-02 6.384006e-02) (3.904220e-04 -2.025729e-02 5.309777e-04)) ((-5.694715e-07 -9.947297e-08 6.880404e-07) (3.139848e-04 -2.288752e-05 -1.445661e-04))
567.357459    	((3.750113e-02 -8.040242e-02 6.448103e-02) (4.028924e-04 -2.025379e-02 5.515889e-04)) ((-7.218276e-07 -1.355415e-07 7.964644e-07) (3.154852e-04 -2.256549e-05 -1.434679e-04))
