# Forces      
# CofR        : (0.000000e+00 0.000000e+00 0.000000e+00)
# Time        forces(pressure viscous)	moments(pressure viscous)
0             	((0.000000e+00 0.000000e+00 0.000000e+00) (-3.174481e-11 -3.183156e-01 -1.968145e-11)) ((0.000000e+00 0.000000e+00 0.000000e+00) (9.592519e-09 -1.521187e-12 -4.251847e-08))
0.012         	((-2.088645e-02 -9.296030e+03 -1.883468e-02) (-1.900616e-06 -1.395440e+00 -1.112596e-06)) ((2.405397e-04 2.076818e-05 -1.547805e-03) (-4.551450e-07 -3.453529e-08 2.937732e-07))
0.0264        	((7.667833e-02 1.237803e+03 -7.729374e-02) (-6.042146e-06 -3.224022e+00 -1.585770e-05)) ((-2.049054e-05 1.421928e-05 1.837217e-04) (-1.745300e-05 -3.338215e-07 1.869892e-05))
0.04368       	((-6.978612e-02 1.635761e+03 1.787946e-01) (-8.295479e-06 -2.795346e+00 -8.334071e-06)) ((-7.654431e-05 1.051538e-05 3.119293e-04) (-8.266162e-06 -6.463589e-07 9.481108e-06))
0.064416      	((-3.212988e-02 1.430488e+01 -1.144717e-02) (-5.367204e-05 -2.505524e+00 -7.003900e-06)) ((7.997295e-06 6.544842e-06 4.588853e-06) (6.955309e-06 -1.107672e-06 -3.647265e-06))
0.0892992     	((-1.360676e-02 1.490970e+01 -8.851152e-02) (-1.064099e-04 -2.419185e+00 -4.525945e-05)) ((9.354509e-06 2.999038e-06 -5.745096e-06) (-2.173528e-06 -6.683814e-07 4.673683e-06))
0.119159      	((-1.256531e-02 3.224433e+01 -1.253010e-02) (-4.670531e-05 -2.353242e+00 -8.876853e-05)) ((-1.535712e-06 2.286105e-06 1.507298e-06) (-5.216575e-06 6.200378e-07 2.701537e-06))
0.154991      	((-2.621866e-03 8.951372e+00 -1.640160e-02) (-6.428257e-06 -2.284892e+00 -9.208153e-05)) ((-1.780566e-08 1.646140e-06 -9.971490e-06) (-5.735004e-06 2.485724e-06 2.471817e-06))
0.197989      	((-9.718490e-04 3.625089e+00 -1.773081e-02) (-3.706463e-05 -2.219333e+00 -7.998703e-05)) ((4.707786e-07 8.210740e-06 -9.001919e-06) (-2.465344e-06 2.485064e-06 5.178390e-06))
0.249587      	((-5.810666e-03 1.367205e+00 -1.273370e-02) (7.987497e-05 -2.155456e+00 -2.817853e-05)) ((6.265034e-07 -6.085640e-07 -8.267176e-06) (2.237791e-07 1.463047e-06 -6.392995e-06))
0.311504      	((2.313188e-02 -9.011217e-01 2.597198e-03) (1.653529e-04 -2.092029e+00 3.708777e-05)) ((6.524481e-06 -5.263777e-07 -1.292359e-05) (-1.359443e-06 4.474597e-08 -1.645035e-05))
0.385805      	((7.843427e-03 -2.105955e+00 -7.554359e-04) (1.827732e-04 -2.028675e+00 -4.360383e-06)) ((-1.449734e-06 7.945905e-06 -1.160786e-05) (-1.542958e-05 9.000079e-07 -1.759905e-06))
0.474966      	((2.178324e-02 -2.698828e+00 -4.055303e-03) (1.544199e-04 -1.965688e+00 -3.396290e-05)) ((-9.795593e-06 1.553431e-05 1.086119e-05) (-2.116113e-05 2.270976e-07 8.981838e-06))
0.581959      	((1.468753e-03 -3.009842e+00 -2.475669e-03) (4.277152e-05 -1.905018e+00 -3.755203e-05)) ((-1.929907e-06 1.695834e-05 5.324840e-06) (-1.880448e-05 1.752432e-06 4.652926e-06))
0.710351      	((-6.061725e-04 -3.137330e+00 -5.724565e-03) (1.840020e-05 -1.849709e+00 -3.470058e-05)) ((2.821042e-06 1.814189e-05 -2.610737e-06) (-2.550429e-05 2.225959e-06 4.166319e-06))
0.864421      	((-2.351531e-03 -3.179423e+00 -7.479268e-03) (-1.776853e-05 -1.800686e+00 -4.910198e-05)) ((1.330929e-06 1.186312e-05 -4.991501e-06) (-3.250384e-05 2.067476e-07 4.672673e-06))
1.049306      	((-1.387948e-02 -3.214857e+00 -8.019957e-03) (-1.263390e-04 -1.758943e+00 -5.294903e-05)) ((2.803913e-06 1.949205e-05 -1.028189e-05) (-2.932075e-05 -2.004935e-06 2.448064e-07))
1.271167      	((-1.210139e-02 -3.290147e+00 -1.595302e-03) (-1.609547e-04 -1.724639e+00 -9.719683e-06)) ((8.870216e-07 1.790451e-05 2.186507e-06) (-2.628214e-05 -3.364515e-07 -2.358474e-06))
1.5374        	((-4.946518e-03 -3.480916e+00 -9.872270e-04) (-1.615438e-04 -1.696738e+00 1.343155e-05)) ((-3.380261e-07 1.150806e-05 -5.101983e-06) (-2.770090e-05 1.573468e-06 -4.398027e-06))
1.855778      	((-6.806441e-03 -3.713068e+00 -3.255531e-03) (-9.140038e-05 -1.674781e+00 -3.140160e-05)) ((9.922819e-07 1.710467e-05 -3.227413e-06) (-3.291507e-05 9.317144e-07 3.195737e-06))
2.226269      	((4.994588e-04 -4.015275e+00 -3.185139e-03) (-1.221094e-05 -1.659562e+00 -7.404194e-06)) ((2.390608e-06 1.507402e-05 -1.580786e-06) (-3.235150e-05 1.363816e-06 1.379403e-05))
2.648803      	((-4.089426e-03 -4.345463e+00 -5.675779e-05) (-3.669426e-05 -1.650694e+00 1.377951e-05)) ((2.280841e-07 1.505148e-05 -1.944671e-06) (-3.076914e-05 4.693105e-06 2.377669e-05))
3.123334      	((-7.483033e-04 -4.656657e+00 -1.125153e-03) (-2.229830e-05 -1.647870e+00 1.387580e-05)) ((9.410426e-07 1.401466e-05 -1.476675e-06) (-3.378021e-05 7.748009e-06 2.915793e-05))
3.641827      	((3.146658e-04 -4.919878e+00 1.510221e-03) (-5.717081e-06 -1.649926e+00 4.191828e-05)) ((1.376253e-06 1.672744e-05 -1.431870e-06) (-3.510680e-05 1.115625e-05 3.660979e-05))
4.156614      	((1.225390e-03 -5.160512e+00 2.996550e-03) (-3.160221e-05 -1.653559e+00 3.076970e-05)) ((5.910000e-07 1.706275e-05 -3.852901e-07) (-3.936134e-05 1.303471e-05 4.100542e-05))
4.667795      	((4.846308e-03 -5.367293e+00 7.637576e-03) (-2.971548e-05 -1.655345e+00 3.814655e-05)) ((8.148243e-07 1.586579e-05 -1.604099e-06) (-3.461045e-05 1.390350e-05 3.675713e-05))
5.176482      	((1.053828e-02 -5.519641e+00 1.274187e-02) (-3.238391e-05 -1.653741e+00 3.773578e-05)) ((3.620189e-07 1.592296e-05 -5.566522e-07) (-2.218167e-05 1.194615e-05 2.532658e-05))
5.683037      	((1.574620e-02 -5.593035e+00 1.689474e-02) (-4.255905e-05 -1.649211e+00 1.170974e-05)) ((3.978190e-07 1.495407e-05 -1.464320e-06) (8.426780e-07 1.106030e-05 2.070683e-06))
6.189424      	((2.073164e-02 -5.655366e+00 2.368335e-02) (-7.410718e-05 -1.643298e+00 -8.076794e-07)) ((1.353324e-06 1.461244e-05 -2.733978e-06) (2.521688e-05 1.184612e-05 -1.451052e-05))
6.696842      	((2.882749e-02 -5.713554e+00 2.952131e-02) (-4.815857e-05 -1.637254e+00 -8.424266e-06)) ((1.855680e-06 1.479109e-05 -2.105283e-06) (3.889072e-05 1.227836e-05 -3.097330e-05))
7.205349      	((3.714774e-02 -5.734549e+00 3.748204e-02) (1.084094e-05 -1.631649e+00 1.782778e-05)) ((2.195267e-06 1.438013e-05 -2.218460e-06) (4.700838e-05 1.244578e-05 -4.399104e-05))
7.714339      	((4.309077e-02 -5.704737e+00 4.608671e-02) (2.014149e-05 -1.626619e+00 7.924552e-05)) ((2.611027e-06 1.360315e-05 -1.793700e-06) (5.197155e-05 1.205247e-05 -4.143122e-05))
8.223299      	((5.220639e-02 -5.659536e+00 5.104332e-02) (4.964306e-05 -1.622088e+00 9.574626e-05)) ((2.563483e-06 1.368399e-05 -5.971584e-07) (5.085682e-05 1.178446e-05 -4.462205e-05))
8.732278      	((6.005164e-02 -5.603127e+00 5.740392e-02) (1.033758e-04 -1.617976e+00 1.085628e-04)) ((2.481211e-06 1.343531e-05 -8.114865e-07) (5.260324e-05 1.167570e-05 -5.790517e-05))
9.241452      	((6.796980e-02 -5.540789e+00 6.880895e-02) (1.172103e-04 -1.614399e+00 1.769626e-04)) ((2.560758e-06 1.220918e-05 -3.143413e-07) (6.757868e-05 1.156884e-05 -6.704186e-05))
9.750869      	((7.709934e-02 -5.489449e+00 7.484205e-02) (1.159117e-04 -1.611251e+00 1.862197e-04)) ((2.526955e-06 1.240811e-05 6.330695e-07) (7.960013e-05 1.195071e-05 -8.228551e-05))
10.260487     	((9.032956e-02 -5.462500e+00 8.241826e-02) (1.770788e-04 -1.608277e+00 1.658989e-04)) ((2.687448e-06 1.275597e-05 1.324281e-07) (9.292871e-05 1.206838e-05 -1.162022e-04))
10.770251     	((1.015480e-01 -5.453653e+00 9.645760e-02) (1.898897e-04 -1.605625e+00 2.130618e-04)) ((2.856767e-06 1.147250e-05 2.492617e-07) (1.317292e-04 1.213806e-05 -1.522034e-04))
11.280152     	((1.117524e-01 -5.444369e+00 1.067868e-01) (1.056981e-04 -1.603396e+00 2.008200e-04)) ((3.181024e-06 1.155530e-05 5.697709e-07) (1.671444e-04 1.249686e-05 -1.819036e-04))
11.79019      	((1.336277e-01 -5.423248e+00 1.194311e-01) (1.563998e-04 -1.601225e+00 1.599824e-04)) ((3.163465e-06 1.204055e-05 -5.624473e-08) (1.983101e-04 1.291172e-05 -2.394998e-04))
12.300353     	((1.560128e-01 -5.400249e+00 1.400764e-01) (2.280092e-04 -1.599278e+00 2.002836e-04)) ((3.648558e-06 1.052607e-05 -5.339437e-07) (2.592962e-04 1.330417e-05 -3.130157e-04))
12.810616     	((1.691276e-01 -5.378081e+00 1.565430e-01) (7.086865e-05 -1.597868e+00 1.744893e-04)) ((3.937868e-06 1.100106e-05 3.045249e-07) (3.172052e-04 1.346139e-05 -3.603540e-04))
13.32096      	((2.007901e-01 -5.350936e+00 1.773783e-01) (6.823840e-05 -1.596413e+00 1.197566e-04)) ((4.225015e-06 1.226558e-05 9.962613e-08) (3.717929e-04 1.368624e-05 -4.395742e-04))
13.831369     	((2.403332e-01 -5.333542e+00 2.076525e-01) (2.470578e-04 -1.594994e+00 1.584386e-04)) ((5.115281e-06 1.045963e-05 -9.867282e-07) (4.572006e-04 1.409200e-05 -5.624942e-04))
14.34183      	((2.602186e-01 -5.326359e+00 2.350118e-01) (7.496285e-05 -1.594158e+00 1.522961e-04)) ((5.968378e-06 1.048346e-05 -3.786596e-08) (5.353512e-04 1.409819e-05 -6.256728e-04))
14.852327     	((3.006524e-01 -5.317199e+00 2.659957e-01) (-1.807484e-06 -1.593139e+00 1.200638e-04)) ((6.139216e-06 1.280601e-05 3.308898e-07) (5.999267e-04 1.382779e-05 -6.966736e-04))
15.362848     	((3.637700e-01 -5.314289e+00 3.090831e-01) (3.359357e-04 -1.591980e+00 1.909364e-04)) ((7.730513e-06 1.100359e-05 -1.812485e-06) (6.906384e-04 1.366688e-05 -8.519377e-04))
15.873381     	((3.981411e-01 -5.319409e+00 3.513658e-01) (2.705450e-04 -1.591472e+00 2.744209e-04)) ((9.298168e-06 9.896135e-06 -1.252138e-06) (7.846232e-04 1.324240e-05 -9.378889e-04))
16.383918     	((4.464288e-01 -5.314356e+00 3.952176e-01) (6.730136e-05 -1.590775e+00 2.639316e-04)) ((9.098768e-06 1.348001e-05 1.898680e-07) (8.594527e-04 1.274053e-05 -9.962234e-04))
16.894448     	((5.388153e-01 -5.311120e+00 4.557206e-01) (5.043265e-04 -1.589850e+00 3.595083e-04)) ((1.108827e-05 1.188622e-05 -2.447402e-06) (9.681138e-04 1.260571e-05 -1.190128e-03))
17.40496      	((6.009438e-01 -5.314219e+00 5.203306e-01) (6.202842e-04 -1.589567e+00 5.512904e-04)) ((1.369802e-05 9.334452e-06 -3.077741e-06) (1.107547e-03 1.264962e-05 -1.352054e-03))
17.915445     	((6.571569e-01 -5.307915e+00 5.799078e-01) (2.472226e-04 -1.589140e+00 5.327624e-04)) ((1.306593e-05 1.359165e-05 -3.826397e-08) (1.225636e-03 1.175885e-05 -1.437349e-03))
18.425891     	((7.790497e-01 -5.304435e+00 6.594138e-01) (6.650623e-04 -1.588417e+00 5.886903e-04)) ((1.466212e-05 1.276147e-05 -2.028341e-06) (1.379689e-03 1.169499e-05 -1.683987e-03))
18.936288     	((8.818454e-01 -5.313102e+00 7.522290e-01) (9.747613e-04 -1.588266e+00 8.489718e-04)) ((1.791573e-05 1.001964e-05 -4.083462e-06) (1.599643e-03 1.164656e-05 -1.963502e-03))
19.446624     	((9.576785e-01 -5.315506e+00 8.360732e-01) (4.930861e-04 -1.588033e+00 8.181017e-04)) ((1.758655e-05 1.265790e-05 6.890527e-08) (1.803570e-03 1.060986e-05 -2.130190e-03))
19.956888     	((1.114480e+00 -5.319964e+00 9.439367e-01) (7.766404e-04 -1.587469e+00 8.021395e-04)) ((1.866594e-05 1.252808e-05 -2.240106e-07) (2.031892e-03 1.041201e-05 -2.450546e-03))
20.467066     	((1.274214e+00 -5.337184e+00 1.079292e+00) (1.237135e-03 -1.587452e+00 1.115759e-03)) ((2.270147e-05 1.078270e-05 -3.739209e-06) (2.363281e-03 1.065103e-05 -2.872093e-03))
20.977143     	((1.394579e+00 -5.344525e+00 1.204572e+00) (8.010130e-04 -1.587405e+00 1.095266e-03)) ((2.384088e-05 1.128539e-05 1.443197e-07) (2.688748e-03 9.301679e-06 -3.180425e-03))
21.4871       	((1.598955e+00 -5.350303e+00 1.356683e+00) (9.342512e-04 -1.587080e+00 1.016512e-03)) ((2.489826e-05 1.149581e-05 1.471448e-06) (3.016959e-03 8.748331e-06 -3.599294e-03))
21.996918     	((1.833864e+00 -5.369493e+00 1.553067e+00) (1.505380e-03 -1.587271e+00 1.393809e-03)) ((2.984701e-05 1.001497e-05 -2.766839e-06) (3.480733e-03 9.181376e-06 -4.170972e-03))
22.506575     	((2.034331e+00 -5.382860e+00 1.739706e+00) (1.290591e-03 -1.587461e+00 1.427236e-03)) ((3.328668e-05 9.611682e-06 -2.272225e-07) (3.953061e-03 7.704362e-06 -4.672871e-03))
23.016045     	((2.304246e+00 -5.402421e+00 1.956210e+00) (1.319578e-03 -1.587412e+00 1.351458e-03)) ((3.521853e-05 9.229027e-06 2.345415e-06) (4.419421e-03 6.023528e-06 -5.241464e-03))
23.525301     	((2.627886e+00 -5.440348e+00 2.227615e+00) (1.934606e-03 -1.587821e+00 1.812690e-03)) ((4.067585e-05 6.576036e-06 -7.195592e-07) (5.047386e-03 5.924064e-06 -5.985236e-03))
24.034317     	((2.937627e+00 -5.482582e+00 2.492145e+00) (2.047053e-03 -1.588250e+00 1.968560e-03)) ((4.572815e-05 5.762235e-06 5.987360e-07) (5.700934e-03 4.666654e-06 -6.723364e-03))
24.543063     	((3.294604e+00 -5.537382e+00 2.792255e+00) (2.114885e-03 -1.588549e+00 2.026310e-03)) ((4.860684e-05 4.466558e-06 4.726385e-06) (6.363103e-03 3.828744e-06 -7.518182e-03))
25.051516     	((3.722020e+00 -5.613202e+00 3.150485e+00) (2.738719e-03 -1.589250e+00 2.600464e-03)) ((5.308822e-05 1.273839e-06 6.364478e-06) (7.184392e-03 4.129018e-06 -8.477528e-03))
25.559676     	((4.159559e+00 -5.696756e+00 3.511619e+00) (3.172001e-03 -1.590010e+00 2.876629e-03)) ((5.769662e-05 -4.020636e-07 8.849339e-06) (8.043869e-03 5.709605e-06 -9.490305e-03))
26.067528     	((4.623075e+00 -5.803909e+00 3.904675e+00) (3.445986e-03 -1.590857e+00 3.120697e-03)) ((6.099146e-05 -1.822826e-06 1.433033e-05) (8.941223e-03 6.626513e-06 -1.056436e-02))
26.575026     	((5.148435e+00 -5.937681e+00 4.342192e+00) (4.151149e-03 -1.591934e+00 3.734456e-03)) ((6.485300e-05 -5.401942e-06 2.081269e-05) (9.955440e-03 6.746748e-06 -1.177635e-02))
27.082109     	((5.691886e+00 -6.095793e+00 4.778457e+00) (4.895344e-03 -1.593135e+00 4.171757e-03)) ((6.621695e-05 -6.292416e-06 2.705988e-05) (1.100556e-02 1.043233e-05 -1.305881e-02))
27.588762     	((6.230371e+00 -6.290765e+00 5.233157e+00) (5.469530e-03 -1.594707e+00 4.707829e-03)) ((6.448999e-05 -6.260400e-06 3.730658e-05) (1.208970e-02 1.568312e-05 -1.435080e-02))
28.094967     	((6.787130e+00 -6.510628e+00 5.683245e+00) (6.305769e-03 -1.596511e+00 5.380150e-03)) ((6.163661e-05 -8.820343e-06 5.074875e-05) (1.321281e-02 2.174613e-05 -1.571740e-02))
28.600711     	((7.315836e+00 -6.748288e+00 6.107238e+00) (7.172215e-03 -1.598529e+00 6.072777e-03)) ((5.786961e-05 -9.837757e-06 6.499343e-05) (1.434805e-02 3.113194e-05 -1.712426e-02))
29.105989     	((7.786566e+00 -7.003493e+00 6.489859e+00) (7.893683e-03 -1.600897e+00 6.825022e-03)) ((5.277391e-05 -9.590026e-06 8.042966e-05) (1.544188e-02 4.381879e-05 -1.848930e-02))
29.61074      	((8.192156e+00 -7.267599e+00 6.799850e+00) (8.808811e-03 -1.603489e+00 7.584744e-03)) ((4.328675e-05 -9.211968e-06 9.905416e-05) (1.644515e-02 5.797966e-05 -1.978388e-02))
30.114946     	((8.491233e+00 -7.517815e+00 7.016948e+00) (9.952568e-03 -1.606157e+00 8.493643e-03)) ((3.078981e-05 -1.065234e-05 1.186048e-04) (1.730268e-02 7.375360e-05 -2.092320e-02))
30.618604     	((8.630525e+00 -7.746035e+00 7.116603e+00) (1.099995e-02 -1.609054e+00 9.487125e-03)) ((1.314923e-05 -9.571228e-06 1.361803e-04) (1.791859e-02 8.849351e-05 -2.176418e-02))
31.121763     	((8.612650e+00 -7.951230e+00 7.073809e+00) (1.206935e-02 -1.612110e+00 1.038103e-02)) ((-9.057249e-06 -3.911961e-06 1.551307e-04) (1.825135e-02 9.604642e-05 -2.229358e-02))
31.624489     	((8.434513e+00 -8.111232e+00 6.900672e+00) (1.304736e-02 -1.615003e+00 1.113473e-02)) ((-2.914512e-05 -3.800685e-07 1.721669e-04) (1.836505e-02 9.823786e-05 -2.258231e-02))
32.126857     	((8.094112e+00 -8.210367e+00 6.633791e+00) (1.327756e-02 -1.617744e+00 1.153582e-02)) ((-4.669986e-05 3.699666e-06 1.853003e-04) (1.831022e-02 1.029961e-04 -2.264550e-02))
32.628967     	((7.671284e+00 -8.232956e+00 6.289426e+00) (1.286516e-02 -1.620205e+00 1.137351e-02)) ((-6.109964e-05 1.262011e-05 1.929671e-04) (1.813209e-02 1.121905e-04 -2.257283e-02))
33.130933     	((7.234839e+00 -8.185285e+00 5.919919e+00) (1.208605e-02 -1.622126e+00 1.076191e-02)) ((-6.879832e-05 1.847487e-05 1.933656e-04) (1.790580e-02 1.186334e-04 -2.245761e-02))
33.63287      	((6.802036e+00 -8.095460e+00 5.571808e+00) (1.072836e-02 -1.623666e+00 9.752137e-03)) ((-6.737300e-05 2.133324e-05 1.841000e-04) (1.768027e-02 1.159338e-04 -2.229791e-02))
34.134882     	((6.458664e+00 -7.961735e+00 5.302105e+00) (8.902020e-03 -1.625041e+00 8.358647e-03)) ((-5.794927e-05 2.211039e-05 1.708458e-04) (1.746905e-02 1.080834e-04 -2.210260e-02))
34.637049     	((6.274711e+00 -7.808363e+00 5.151379e+00) (7.166971e-03 -1.626175e+00 6.896230e-03)) ((-4.559299e-05 1.958247e-05 1.582052e-04) (1.731303e-02 9.504715e-05 -2.194204e-02))
35.139424     	((6.229650e+00 -7.669091e+00 5.118666e+00) (5.771421e-03 -1.627121e+00 5.629793e-03)) ((-2.875015e-05 9.050328e-06 1.477995e-04) (1.724306e-02 6.232998e-05 -2.180819e-02))
35.642023     	((6.286581e+00 -7.537117e+00 5.162596e+00) (4.754373e-03 -1.628092e+00 4.610861e-03)) ((-1.198878e-05 -9.697199e-06 1.422792e-04) (1.721153e-02 1.295192e-05 -2.164969e-02))
36.144833     	((6.397363e+00 -7.388178e+00 5.240710e+00) (4.446645e-03 -1.629115e+00 4.157032e-03)) ((9.685122e-07 -2.755700e-05 1.397208e-04) (1.708399e-02 -2.434221e-05 -2.140941e-02))
36.647817     	((6.538079e+00 -7.217546e+00 5.343195e+00) (5.134820e-03 -1.630200e+00 4.612042e-03)) ((1.038194e-05 -4.361145e-05 1.421993e-04) (1.676883e-02 -2.918462e-05 -2.096246e-02))
37.150928     	((6.607658e+00 -7.077524e+00 5.389922e+00) (6.236166e-03 -1.631278e+00 5.379679e-03)) ((1.520746e-05 -5.509100e-05 1.434111e-04) (1.639880e-02 -1.848192e-05 -2.042319e-02))
37.65412      	((6.543071e+00 -7.005522e+00 5.333837e+00) (7.146251e-03 -1.632347e+00 5.905194e-03)) ((1.123826e-05 -5.445171e-05 1.459220e-04) (1.605973e-02 -1.298710e-05 -1.993508e-02))
38.157351     	((6.365966e+00 -6.972382e+00 5.201914e+00) (7.741362e-03 -1.633268e+00 6.255068e-03)) ((-3.015322e-06 -4.459812e-05 1.520801e-04) (1.578193e-02 -1.655584e-05 -1.951673e-02))
38.660596     	((6.112446e+00 -6.994775e+00 5.001529e+00) (7.876706e-03 -1.633997e+00 6.331800e-03)) ((-2.052780e-05 -3.536098e-05 1.585896e-04) (1.554301e-02 -1.457039e-05 -1.917597e-02))
39.163848     	((5.792155e+00 -7.032870e+00 4.755561e+00) (7.420410e-03 -1.634716e+00 5.894469e-03)) ((-3.734158e-05 -2.643274e-05 1.630421e-04) (1.530239e-02 -1.211464e-05 -1.886410e-02))
39.667127     	((5.483116e+00 -7.041403e+00 4.525159e+00) (6.659238e-03 -1.635243e+00 5.266960e-03)) ((-5.553811e-05 -1.070407e-05 1.625328e-04) (1.510223e-02 -2.421482e-05 -1.853746e-02))
40.170466     	((5.221057e+00 -7.044893e+00 4.340283e+00) (5.803394e-03 -1.635408e+00 4.587422e-03)) ((-7.140603e-05 4.121900e-06 1.566448e-04) (1.497553e-02 -3.983246e-05 -1.825107e-02))
40.673904     	((5.040272e+00 -7.074680e+00 4.202495e+00) (4.639893e-03 -1.635593e+00 3.596465e-03)) ((-7.414496e-05 8.893541e-06 1.436301e-04) (1.485362e-02 -3.670121e-05 -1.805369e-02))
41.177475     	((4.968475e+00 -7.067641e+00 4.173607e+00) (3.262187e-03 -1.635724e+00 2.622386e-03)) ((-6.808733e-05 1.068344e-05 1.288717e-04) (1.481428e-02 -2.042686e-05 -1.796094e-02))
41.681201     	((5.046263e+00 -7.028196e+00 4.248675e+00) (2.105515e-03 -1.635347e+00 1.829509e-03)) ((-5.343374e-05 3.735421e-06 1.177782e-04) (1.500225e-02 -1.278394e-05 -1.806353e-02))
42.185084     	((5.213496e+00 -6.958181e+00 4.395361e+00) (1.177880e-03 -1.634851e+00 9.781818e-04)) ((-2.899514e-05 -1.428997e-05 1.054029e-04) (1.527367e-02 -1.755242e-05 -1.831590e-02))
42.689106     	((5.434197e+00 -6.831730e+00 4.590226e+00) (7.622789e-04 -1.634616e+00 6.453040e-04)) ((-2.121978e-06 -3.146693e-05 9.361658e-05) (1.541548e-02 -3.617520e-05 -1.844398e-02))
43.193242     	((5.664103e+00 -6.701858e+00 4.814595e+00) (1.248563e-03 -1.634236e+00 1.203528e-03)) ((1.644196e-05 -4.099301e-05 8.919011e-05) (1.547395e-02 -6.088568e-05 -1.842910e-02))
43.697441     	((5.854336e+00 -6.626947e+00 4.983802e+00) (2.242287e-03 -1.633955e+00 1.973926e-03)) ((2.451680e-05 -5.111676e-05 9.109849e-05) (1.542845e-02 -8.605608e-05 -1.832546e-02))
44.201652     	((5.920885e+00 -6.684480e+00 5.048621e+00) (3.184335e-03 -1.634047e+00 2.693178e-03)) ((1.624692e-05 -5.343635e-05 1.011575e-04) (1.530844e-02 -1.100437e-04 -1.813484e-02))
44.705827     	((5.890957e+00 -6.823946e+00 5.039190e+00) (4.125684e-03 -1.634023e+00 3.586024e-03)) ((-8.199472e-08 -4.408835e-05 1.144338e-04) (1.526685e-02 -1.278404e-04 -1.798536e-02))
45.209935     	((5.794440e+00 -6.959003e+00 4.973875e+00) (4.797012e-03 -1.633992e+00 4.058016e-03)) ((-1.541596e-05 -3.662659e-05 1.257250e-04) (1.526887e-02 -1.281063e-04 -1.792645e-02))
