# Forces      
# CofR        : (0.000000e+00 0.000000e+00 0.000000e+00)
# Time        forces(pressure viscous)	moments(pressure viscous)
0             	((0.000000e+00 0.000000e+00 0.000000e+00) (0.000000e+00 0.000000e+00 0.000000e+00)) ((0.000000e+00 0.000000e+00 0.000000e+00) (0.000000e+00 0.000000e+00 0.000000e+00))
0.012         	((4.767992e-02 3.307126e-02 -2.366965e-02) (3.340123e-06 -3.741244e-06 -1.228300e-06)) ((8.159658e-01 -2.603764e-04 -2.690272e-03) (8.925143e+00 -5.406453e-06 3.077367e-05))
0.025872      	((-1.517464e-01 5.308812e-02 -2.415275e-02) (2.102338e-05 -4.025909e-05 -1.391805e-05)) ((9.085776e-01 2.444562e-04 -2.566467e-03) (1.331736e+01 -9.505432e-05 1.246773e-04))
0.0416165     	((-1.347145e-01 8.924112e-02 -1.034373e-02) (3.144235e-05 -1.707191e-04 -4.508868e-05)) ((9.339349e-01 3.901249e-04 -2.840091e-03) (2.040951e+01 -3.772951e-04 2.361857e-04))
0.0592341     	((-9.694397e-02 1.215455e-01 -2.687622e-02) (-1.212580e-04 -2.440194e-04 -1.685875e-04)) ((8.984615e-01 -3.300027e-05 -2.728105e-03) (3.477940e+01 -1.055314e-03 6.305250e-04))
0.0779711     	((-4.121568e-02 1.438300e-01 -5.069111e-02) (-2.528593e-04 5.797923e-04 -7.748347e-04)) ((9.048526e-01 -1.938185e-04 -2.847803e-03) (7.061710e+01 -3.137940e-03 -5.989949e-05))
0.0967129     	((-4.523194e-02 1.418288e-01 2.663755e-03) (5.020766e-04 -2.976565e-03 -5.658550e-03)) ((8.882837e-01 -4.685934e-04 -2.651617e-03) (1.789750e+02 -1.453283e-02 6.080584e-03))
0.11547       	((-1.046629e-01 1.027944e-01 -8.035829e-02) (4.428693e-03 -6.820414e-03 -1.080773e-02)) ((8.818642e-01 -9.362930e-04 -2.708388e-03) (3.835555e+02 -4.296218e-02 -1.793028e-02))
0.134232      	((-1.305447e-01 1.546967e-01 -1.334461e-01) (4.233216e-03 -3.606283e-03 -7.252679e-03)) ((8.649283e-01 -8.373020e-04 -2.685998e-03) (3.593135e+02 -3.408614e-02 -2.129867e-02))
0.153002      	((-6.392381e-02 1.422876e-01 -2.817490e-02) (4.152372e-03 -3.150144e-03 -5.557941e-03)) ((8.803469e-01 -3.204556e-04 -2.689100e-03) (3.413580e+02 -2.514923e-02 -1.990101e-02))
0.171805      	((-1.370062e-01 1.637312e-01 -1.029834e-01) (4.225318e-03 -3.241561e-03 -6.341061e-03)) ((8.844996e-01 5.074295e-05 -2.868283e-03) (3.322436e+02 -1.985801e-02 -2.119354e-02))
0.190671      	((-2.250895e-01 1.840810e-01 -2.639545e-02) (4.124458e-03 -2.415631e-03 -6.721196e-03)) ((8.630869e-01 -6.083891e-06 -2.787274e-03) (3.225949e+02 -1.255194e-02 -2.393003e-02))
0.209618      	((-2.105297e-02 3.528490e-01 -2.339957e-01) (3.144514e-03 -4.168915e-04 -6.403186e-03)) ((8.719061e-01 1.514577e-04 -2.748429e-03) (3.132985e+02 -5.342142e-03 -2.284057e-02))
0.228658      	((-9.715949e-02 -5.702775e-02 -1.603438e-01) (1.119527e-03 1.183503e-03 -5.687627e-03)) ((8.785254e-01 1.221907e-04 -2.999184e-03) (3.058576e+02 -1.967154e-04 -1.956826e-02))
0.247767      	((-1.964931e-01 1.824413e-01 -1.805672e-01) (-9.295010e-04 1.756322e-03 -5.215184e-03)) ((8.686686e-01 1.127706e-04 -2.680807e-03) (2.996614e+02 5.204290e-03 -1.474263e-02))
0.266912      	((-1.711043e-01 2.970137e-01 -5.216959e-02) (-2.933094e-03 1.617132e-03 -5.337868e-03)) ((8.513164e-01 8.848996e-05 -2.346656e-03) (2.941812e+02 1.054164e-02 -8.027033e-03))
0.286096      	((-2.965284e-01 5.819557e-01 6.284759e-01) (-4.560186e-03 1.920159e-03 -4.156533e-03)) ((8.305272e-01 -4.683907e-04 -1.934280e-03) (2.891923e+02 1.223033e-02 -1.095051e-03))
0.305318      	((-5.428646e-01 9.749241e-01 9.398476e-01) (-5.133009e-03 8.428440e-04 -3.387367e-03)) ((8.110826e-01 5.008506e-05 -1.937876e-03) (2.845717e+02 9.571148e-03 4.481359e-03))
0.324582      	((-6.863724e-01 1.478216e+00 8.516008e-01) (-5.785068e-03 6.176053e-04 -4.327139e-03)) ((7.960700e-01 3.536729e-05 -2.681233e-03) (2.802769e+02 4.925273e-03 7.288547e-03))
0.343895      	((-6.686341e-01 2.313197e+00 1.479042e+00) (-8.674802e-03 3.203080e-03 -4.817155e-03)) ((7.879279e-01 5.039347e-04 -3.323014e-03) (2.763095e+02 -3.962603e-04 7.931902e-03))
0.363258      	((-3.195600e-01 1.688796e+00 1.643031e+00) (-1.192191e-02 5.897039e-03 -2.289773e-03)) ((7.848336e-01 3.388938e-04 -2.789366e-03) (2.726728e+02 -6.086831e-03 7.851729e-03))
0.382684      	((-2.462355e-01 1.689169e+00 1.379741e+00) (-1.517162e-02 5.557458e-03 -1.797407e-03)) ((7.812854e-01 5.181193e-04 -2.470363e-03) (2.693581e+02 -1.118830e-02 5.991620e-03))
0.402192      	((-5.293370e-01 2.185505e+00 1.482042e+00) (-1.781059e-02 1.151568e-03 -9.961368e-04)) ((7.748156e-01 9.525303e-04 -2.427033e-03) (2.663485e+02 -1.565079e-02 6.824703e-04))
0.421793      	((-7.358765e-01 2.539798e+00 1.932298e+00) (-1.867365e-02 2.005275e-03 2.260529e-03)) ((7.668480e-01 1.088217e-03 -2.261899e-03) (2.636257e+02 -1.833910e-02 -6.430661e-03))
0.44151       	((-7.824933e-01 3.062180e+00 2.447562e+00) (-1.852367e-02 7.094488e-03 4.898206e-03)) ((7.581465e-01 1.197775e-03 -2.567963e-03) (2.611807e+02 -1.752563e-02 -1.318021e-02))
0.461304      	((-7.014224e-01 3.304015e+00 2.713138e+00) (-1.855570e-02 7.921759e-03 9.452726e-03)) ((7.493440e-01 6.585360e-04 -2.751874e-03) (2.590171e+02 -1.285008e-02 -1.799703e-02))
0.481157      	((-7.811553e-01 3.379702e+00 3.225668e+00) (-1.900134e-02 1.093960e-02 1.348236e-02)) ((7.407524e-01 4.879577e-04 -2.710137e-03) (2.571251e+02 -7.105138e-03 -1.989660e-02))
0.501071      	((-7.166596e-01 2.695666e+00 2.367116e+00) (-1.722233e-02 1.088685e-02 1.170283e-02)) ((7.330320e-01 7.920340e-04 -2.912119e-03) (2.554762e+02 -2.472085e-03 -1.855071e-02))
0.52105       	((-6.413800e-01 1.721254e+00 1.372225e+00) (-1.444413e-02 9.736377e-03 7.888664e-03)) ((7.258874e-01 1.126469e-03 -2.035983e-03) (2.540451e+02 -1.317299e-03 -1.373703e-02))
0.5411        	((-8.715334e-01 1.791516e+00 6.672163e-01) (-1.262230e-02 1.067745e-02 -1.217997e-03)) ((7.203974e-01 5.614780e-04 -1.095520e-03) (2.528232e+02 -4.700132e-03 -9.023793e-03))
0.561233      	((-9.127679e-01 2.082281e+00 6.455057e-01) (-1.021951e-02 1.703955e-02 -1.287669e-02)) ((7.153239e-01 -7.921640e-05 -8.111667e-04) (2.517950e+02 -1.074841e-02 -8.610270e-03))
0.581458      	((-9.725225e-01 2.264370e+00 5.173603e-01) (-8.537218e-03 3.224327e-02 -1.932410e-02)) ((7.092012e-01 -3.988773e-04 -1.153297e-03) (2.509439e+02 -1.509755e-02 -1.313659e-02))
0.601789      	((-8.311032e-01 2.495232e+00 9.594366e-01) (-7.051588e-03 4.695638e-02 -1.401086e-02)) ((7.020947e-01 -2.932451e-04 -1.207287e-03) (2.502681e+02 -1.429737e-02 -1.922340e-02))
