# Forces      
# CofR        : (0.000000e+00 0.000000e+00 0.000000e+00)
# Time        forces(pressure viscous)	moments(pressure viscous)
0             	((0.000000e+00 0.000000e+00 0.000000e+00) (0.000000e+00 0.000000e+00 0.000000e+00)) ((0.000000e+00 0.000000e+00 0.000000e+00) (0.000000e+00 0.000000e+00 0.000000e+00))
0.012         	((-3.154926e-05 -7.763052e-04 2.192474e-06) (-7.514136e-09 -1.199137e-07 -1.867443e-09)) ((1.609666e-06 2.215388e-08 -4.627860e-04) (-2.612588e-08 -1.962492e-09 -3.382670e-02))
0.0264        	((-1.181716e-04 6.325770e-04 8.844156e-06) (-6.543175e-09 -1.667318e-07 -1.797931e-09)) ((7.377862e-07 3.961270e-08 -2.122758e-04) (-3.532225e-08 -3.906016e-09 -3.377369e-02))
0.04368       	((-1.619641e-05 -4.502653e-04 2.551455e-05) (1.504469e-08 -1.743934e-07 1.999272e-09)) ((8.675400e-07 7.054245e-08 -1.232576e-04) (-6.171020e-08 -1.243511e-08 -3.369802e-02))
0.064416      	((-1.814260e-04 1.813210e-04 1.308630e-05) (5.056338e-08 -1.701174e-07 -7.617055e-10)) ((5.103538e-07 1.917661e-07 -7.070241e-05) (-8.749261e-08 -1.943856e-08 -3.360786e-02))
0.0892992     	((7.335014e-05 -1.191139e-04 -9.575638e-06) (7.806126e-08 -1.515132e-07 -5.368380e-10)) ((5.999993e-07 1.421699e-07 -5.763081e-05) (-1.078441e-07 -1.256697e-08 -3.350038e-02))
0.119159      	((-6.453831e-05 -6.187713e-05 -7.657522e-06) (9.583293e-08 -1.220966e-07 8.852408e-09)) ((5.122183e-07 6.432254e-08 -4.821849e-05) (-1.315704e-07 -1.382527e-09 -3.337250e-02))
0.154991      	((7.058685e-06 -1.714481e-05 -1.133721e-05) (9.863173e-08 -8.904278e-08 9.687119e-09)) ((4.440031e-07 3.861572e-08 -4.458856e-05) (-1.533617e-07 8.244221e-09 -3.322049e-02))
0.197989      	((-5.808313e-05 -5.718637e-05 -2.371803e-05) (8.554198e-08 -5.162944e-08 2.684177e-09)) ((4.183997e-07 7.695477e-09 -4.182531e-05) (-1.717611e-07 1.854188e-08 -3.304021e-02))
0.249587      	((-4.402751e-05 -3.446218e-05 -2.020780e-05) (7.079840e-08 -7.839972e-09 -4.027761e-09)) ((3.991959e-07 -2.598480e-08 -3.983035e-05) (-1.743428e-07 2.961356e-08 -3.282704e-02))
0.311504      	((-4.486833e-05 -2.226024e-05 -1.115407e-05) (5.811005e-08 3.690735e-08 -9.643035e-09)) ((3.817542e-07 -2.219082e-08 -3.807458e-05) (-1.498998e-07 4.214681e-08 -3.257592e-02))
0.385805      	((-1.279618e-05 -2.074920e-05 -8.881818e-06) (5.580516e-08 8.183297e-08 -1.325099e-08)) ((3.607329e-07 -3.712614e-08 -3.640020e-05) (-8.796879e-08 5.085980e-08 -3.228151e-02))
0.474966      	((-1.313880e-05 -4.584893e-06 6.914494e-06) (6.357382e-08 1.288444e-07 -1.138598e-08)) ((3.411594e-07 -4.054168e-08 -3.469774e-05) (2.738514e-09 4.959913e-08 -3.193862e-02))
0.581959      	((-8.249514e-06 -3.598541e-06 6.609425e-06) (7.636579e-08 1.687035e-07 -3.059654e-09)) ((2.836156e-07 -2.434194e-08 -3.306058e-05) (9.641796e-08 4.547209e-08 -3.154274e-02))
0.710351      	((-2.100272e-05 -1.423019e-06 6.940638e-06) (7.145854e-08 1.807632e-07 -9.803452e-09)) ((2.342323e-07 -6.792831e-09 -3.153465e-05) (1.738306e-07 2.849187e-08 -3.109085e-02))
0.864421      	((-1.444692e-05 -7.322459e-06 2.389372e-06) (4.442508e-08 1.818879e-07 -3.250282e-08)) ((1.852140e-07 3.123693e-08 -3.009647e-05) (2.354442e-07 -3.907646e-08 -3.058248e-02))
1.049306      	((-2.029436e-05 -6.078447e-08 -5.592540e-07) (1.069396e-08 1.803853e-07 -6.137440e-08)) ((1.630305e-07 4.834732e-08 -2.866189e-05) (2.764438e-07 -1.676102e-07 -3.002099e-02))
1.271167      	((-4.334457e-06 2.515399e-06 2.727493e-06) (-2.916091e-08 1.673492e-07 -9.376386e-08)) ((1.473369e-07 4.717861e-08 -2.724970e-05) (2.773885e-07 -3.250397e-07 -2.941455e-02))
1.5374        	((-9.612751e-06 5.385100e-06 -3.709829e-06) (-6.030626e-08 1.472000e-07 -1.190805e-07)) ((1.489626e-07 3.495013e-08 -2.586536e-05) (2.375005e-07 -4.680059e-07 -2.877605e-02))
1.85688       	((8.563978e-06 6.847074e-06 -1.767741e-06) (-6.510489e-08 1.229664e-07 -1.306902e-07)) ((1.458613e-07 2.196934e-08 -2.445470e-05) (1.961820e-07 -5.550500e-07 -2.812110e-02))
2.240256      	((4.268877e-06 4.814625e-06 -1.301814e-06) (-5.858445e-08 1.059067e-07 -1.270686e-07)) ((1.383139e-07 1.956580e-08 -2.304935e-05) (1.679277e-07 -5.727579e-07 -2.746375e-02))
2.700307      	((1.209714e-05 4.000982e-07 6.759872e-07) (-4.508116e-08 9.277242e-08 -1.159253e-07)) ((1.228759e-07 1.837394e-08 -2.168864e-05) (1.753772e-07 -5.494988e-07 -2.681138e-02))
3.252369      	((5.020529e-06 6.741992e-07 -1.338869e-07) (-2.569994e-08 6.875268e-08 -1.195086e-07)) ((1.107724e-07 9.831358e-09 -2.036128e-05) (2.090421e-07 -4.899278e-07 -2.615524e-02))
3.914842      	((1.741138e-05 -2.685952e-06 -9.211778e-07) (-2.510277e-09 4.016642e-09 -1.744956e-07)) ((1.056584e-07 9.681724e-09 -1.897560e-05) (2.405692e-07 -3.984376e-07 -2.545915e-02))
4.709811      	((-2.516388e-06 3.293634e-06 -3.070957e-06) (2.489825e-08 -8.886307e-08 -2.524304e-07)) ((9.611574e-08 3.199332e-10 -1.765903e-05) (2.533491e-07 -2.115544e-07 -2.469665e-02))
5.663773      	((-3.503008e-06 2.003157e-06 7.615559e-07) (3.583192e-08 -1.376011e-07 -2.884034e-07)) ((8.782083e-08 6.987915e-09 -1.655758e-05) (1.933700e-07 -2.484777e-09 -2.387453e-02))
6.808528      	((-6.084559e-06 -5.153707e-06 3.631081e-06) (9.199820e-08 -1.720521e-07 -3.185257e-07)) ((7.223271e-08 2.715669e-09 -1.590959e-05) (9.157150e-08 1.268935e-07 -2.301473e-02))
8.182233      	((2.799534e-06 -1.499570e-05 3.013034e-06) (2.588782e-07 -1.807036e-07 -3.042588e-07)) ((6.010971e-08 -6.567712e-10 -1.543736e-05) (-3.178017e-08 2.795241e-07 -2.214247e-02))
9.83068       	((2.134464e-06 -1.039039e-05 1.382575e-06) (3.413350e-07 -9.745621e-08 -2.273627e-07)) ((5.949729e-08 1.641501e-08 -1.476819e-05) (-2.109901e-07 4.052732e-07 -2.128131e-02))
11.808816     	((-1.370810e-05 -1.309072e-06 -3.985458e-06) (2.476963e-07 1.062655e-07 -1.598905e-07)) ((4.223909e-08 7.580244e-09 -1.390254e-05) (-3.738256e-07 3.761712e-07 -2.044673e-02))
14.182579     	((-1.325453e-08 8.676740e-06 -8.614852e-06) (-7.924573e-08 3.351629e-07 -1.075572e-07)) ((3.731534e-08 -3.731095e-09 -1.279463e-05) (-6.114307e-07 2.633262e-07 -1.963742e-02))
17.031095     	((-3.105663e-06 2.478098e-05 -5.014052e-06) (-3.117780e-07 6.576255e-07 4.704140e-08)) ((3.014672e-08 -6.693922e-09 -1.165134e-05) (-8.679665e-07 1.684880e-07 -1.884439e-02))
20.368555     	((-1.245648e-05 4.664622e-05 -6.062505e-06) (-8.175740e-07 6.917598e-07 1.679660e-07)) ((3.760448e-08 3.284244e-09 -1.054559e-05) (-9.321897e-07 2.889570e-07 -1.808461e-02))
24.198951     	((-9.031796e-07 6.641300e-05 -4.487751e-06) (-7.054897e-07 1.057819e-06 2.652956e-07)) ((5.929062e-08 -9.242582e-09 -9.456144e-06) (-8.888739e-07 6.037125e-07 -1.738642e-02))
28.527912     	((2.422787e-05 8.703248e-05 8.308365e-06) (-5.815028e-08 1.705773e-06 4.458914e-07)) ((5.754608e-08 -1.034818e-08 -8.527250e-06) (-7.023412e-07 7.526028e-07 -1.677679e-02))
33.360098     	((5.135042e-05 1.035090e-04 6.011121e-06) (-2.009250e-07 1.280879e-06 2.329650e-07)) ((7.496123e-08 -2.193263e-08 -7.704180e-06) (-4.826747e-07 7.760235e-07 -1.626378e-02))
38.441663     	((6.783222e-05 1.019475e-04 5.538063e-06) (2.727109e-07 1.288984e-06 -1.358279e-07)) ((7.772086e-08 -1.893617e-08 -7.089550e-06) (-3.365208e-07 8.645822e-07 -1.586419e-02))
43.562188     	((8.622500e-05 1.164517e-04 4.736295e-06) (-7.218439e-07 1.711752e-06 -1.150698e-07)) ((6.825693e-08 -8.078142e-09 -6.659481e-06) (-8.595206e-08 5.136992e-07 -1.556906e-02))
48.690019     	((5.181842e-05 1.215423e-04 6.509578e-06) (-2.244385e-06 3.122385e-06 -9.206391e-08)) ((4.797722e-08 -3.894132e-08 -6.419829e-06) (2.783552e-07 -9.165540e-08 -1.534651e-02))
53.827485     	((1.697664e-05 1.203061e-04 8.182860e-06) (-2.459575e-06 5.620283e-06 5.055015e-07)) ((4.622978e-08 -5.490302e-08 -6.249686e-06) (2.245972e-07 -2.434185e-07 -1.517798e-02))
58.975472     	((3.304548e-05 1.110311e-04 1.147234e-07) (-4.138662e-07 4.813628e-06 3.593793e-07)) ((5.061193e-08 -3.995966e-08 -6.238176e-06) (2.046584e-07 -1.525914e-07 -1.505566e-02))
64.135798     	((7.090936e-05 1.036963e-04 -1.098436e-05) (2.094975e-07 3.393443e-06 -2.033249e-07)) ((6.086285e-08 -4.157940e-08 -6.225681e-06) (2.256813e-07 -1.335467e-07 -1.497103e-02))
69.310406     	((9.258140e-05 1.180318e-04 -2.548100e-06) (-1.406439e-06 2.838149e-06 1.098615e-07)) ((4.249889e-08 -3.749791e-08 -6.146379e-06) (5.837569e-08 4.443364e-08 -1.491998e-02))
74.501957     	((9.099917e-05 1.377790e-04 1.241483e-06) (-1.980790e-06 4.671597e-06 4.769809e-07)) ((3.327893e-08 -4.495802e-08 -5.970556e-06) (1.347715e-07 1.026110e-07 -1.490022e-02))
79.712769     	((9.312104e-05 1.430832e-04 1.152631e-05) (-2.905950e-06 6.480331e-06 2.755866e-07)) ((1.885275e-08 -4.722690e-08 -5.837558e-06) (2.191190e-07 1.347610e-07 -1.491105e-02))
84.944703     	((8.981227e-05 1.236131e-04 9.637643e-06) (-3.848826e-06 5.692923e-06 2.835790e-07)) ((2.470056e-08 -5.213650e-08 -5.755279e-06) (3.034697e-07 2.777609e-07 -1.495366e-02))
90.197944     	((1.400443e-04 1.517368e-04 -6.874135e-06) (-2.751780e-06 5.479895e-06 1.269634e-07)) ((2.540464e-08 -4.612159e-08 -5.732774e-06) (6.086845e-07 1.503104e-07 -1.502786e-02))
95.473606     	((1.604144e-04 1.509463e-04 -2.861749e-05) (-2.115274e-06 5.150848e-06 -4.856039e-07)) ((2.053815e-08 -5.132272e-08 -5.739767e-06) (8.585714e-07 -1.653441e-07 -1.513345e-02))
100.77115     	((1.655028e-04 1.189007e-04 -5.442077e-05) (-3.813634e-07 1.314008e-06 -7.806045e-07)) ((3.374337e-08 -5.899321e-08 -5.776832e-06) (9.446807e-07 -3.946272e-07 -1.526644e-02))
106.08517     	((2.016395e-04 9.125609e-05 -4.848502e-05) (1.132352e-06 -4.589348e-06 -9.131207e-07)) ((4.847717e-08 -4.556842e-08 -5.855396e-06) (7.716439e-07 -5.099625e-07 -1.541855e-02))
111.409372    	((2.430353e-04 4.974843e-05 -6.625261e-05) (-4.258407e-07 -9.703644e-06 -1.098480e-06)) ((6.390206e-08 -4.884131e-08 -5.982295e-06) (4.750814e-07 -5.096264e-07 -1.557949e-02))
116.738227    	((2.281346e-04 6.742492e-05 -5.972312e-05) (-1.171558e-06 -8.669483e-06 -1.644518e-06)) ((7.255455e-08 -4.388545e-08 -6.167956e-06) (3.674175e-07 -2.616087e-07 -1.573752e-02))
122.059338    	((1.145336e-04 1.301451e-04 -7.347372e-05) (-1.120059e-06 -9.210601e-06 -2.302485e-06)) ((6.972957e-08 -1.783258e-08 -6.338091e-06) (2.827783e-07 1.036879e-07 -1.588001e-02))
127.359169    	((3.175242e-05 8.762109e-05 -7.488065e-05) (-8.257207e-07 -9.146614e-06 -2.481968e-06)) ((7.483430e-08 -3.327444e-09 -6.482008e-06) (3.352331e-07 6.564008e-07 -1.599885e-02))
132.628887    	((-2.526461e-05 8.117447e-05 -1.508528e-04) (-1.581230e-06 -6.976131e-06 -2.085097e-06)) ((8.957770e-08 -1.431333e-08 -6.600006e-06) (7.923173e-07 1.240500e-06 -1.609296e-02))
137.86261     	((-7.260468e-05 8.437463e-05 -1.959807e-04) (-3.535029e-06 -4.103341e-06 -2.135427e-06)) ((9.419455e-08 -2.670479e-08 -6.685736e-06) (1.444804e-06 1.366650e-06 -1.616352e-02))
143.062175    	((-7.043316e-05 1.141111e-04 -1.811900e-04) (-3.288509e-06 -6.871653e-07 -2.743517e-06)) ((8.281180e-08 -1.737197e-08 -6.740908e-06) (2.083518e-06 1.116727e-06 -1.621199e-02))
148.235325    	((-4.477590e-05 1.363116e-04 -2.239662e-04) (-1.090441e-06 1.721113e-06 -3.075698e-06)) ((7.149937e-08 -9.967055e-09 -6.752731e-06) (2.687312e-06 5.461880e-07 -1.624259e-02))
