# Forces      
# CofR        : (0.000000e+00 0.000000e+00 0.000000e+00)
# Time        forces(pressure viscous)	moments(pressure viscous)
0             	((0.000000e+00 0.000000e+00 0.000000e+00) (0.000000e+00 0.000000e+00 0.000000e+00)) ((0.000000e+00 0.000000e+00 0.000000e+00) (0.000000e+00 0.000000e+00 0.000000e+00))
0.012         	((-6.873609e-06 1.255734e-06 1.437501e-04) (1.129278e-09 9.075629e-10 1.457977e-08)) ((-1.541087e-09 -9.292555e-05 3.937141e-09) (2.516383e-10 -4.920337e-03 -1.149775e-11))
0.0264        	((3.995629e-05 1.840984e-06 -1.580244e-04) (5.429231e-09 1.489680e-09 2.060531e-08)) ((1.451945e-09 -4.150092e-05 2.187090e-09) (2.207082e-10 -4.915327e-03 -1.063959e-10))
0.04368       	((-2.300061e-05 -4.374762e-06 2.930236e-05) (9.132366e-09 1.519635e-09 2.278927e-08)) ((-2.146149e-09 -2.182812e-05 -1.504961e-09) (-5.728338e-11 -4.909301e-03 -3.433470e-10))
0.064416      	((8.626896e-06 2.836114e-06 -3.692968e-05) (9.815740e-09 1.239398e-09 2.384772e-08)) ((1.619008e-09 -1.043710e-05 1.087340e-09) (-3.202253e-10 -4.902088e-03 -5.451668e-10))
0.0892992     	((-9.653715e-07 -4.044389e-06 6.612603e-06) (9.850555e-09 1.158080e-09 2.453401e-08)) ((-4.083683e-10 -7.326363e-06 -6.756414e-10) (-6.017425e-10 -4.893452e-03 -7.319444e-10))
0.119159      	((-1.959012e-06 -2.880193e-06 -1.100988e-05) (1.002441e-08 2.143168e-09 2.678623e-08)) ((-1.412722e-09 -5.448351e-06 -8.797855e-10) (-7.174515e-10 -4.883127e-03 -1.003738e-09))
0.154991      	((-2.586665e-06 -4.801325e-06 4.944058e-06) (1.028765e-08 3.330842e-09 3.063058e-08)) ((-3.517230e-09 -4.812935e-06 -1.016164e-09) (-8.144074e-10 -4.870795e-03 -1.166545e-09))
0.197989      	((1.112045e-07 -1.130052e-06 3.206097e-08) (1.020255e-08 4.201761e-09 3.404824e-08)) ((-1.636070e-09 -4.343032e-06 -1.309740e-09) (-1.019850e-09 -4.856076e-03 -1.353021e-09))
0.249587      	((-1.147072e-06 -3.158692e-06 3.657687e-06) (9.110673e-09 4.647392e-09 3.656566e-08)) ((-1.635849e-09 -3.955791e-06 -1.006814e-09) (-1.190471e-09 -4.838523e-03 -1.553581e-09))
0.311504      	((-2.371201e-06 -2.081606e-06 -9.667146e-07) (7.307330e-09 4.506563e-09 3.888531e-08)) ((-4.529700e-10 -3.510755e-06 -2.417655e-10) (-1.302921e-09 -4.817616e-03 -1.498039e-09))
0.385805      	((-3.835197e-07 -1.577163e-06 1.517804e-07) (5.001878e-09 4.155978e-09 4.109660e-08)) ((-3.134058e-10 -3.016878e-06 1.447660e-11) (-1.524599e-09 -4.792752e-03 -1.373848e-09))
0.474966      	((-2.422434e-06 -5.854843e-07 1.435363e-07) (2.594554e-09 3.897082e-09 4.333532e-08)) ((5.009064e-10 -2.575179e-06 -1.896381e-10) (-1.937037e-09 -4.763248e-03 -1.370342e-09))
0.581959      	((-2.910040e-07 -9.020367e-07 2.367033e-07) (6.088987e-10 3.754117e-09 4.547632e-08)) ((2.544832e-10 -2.261500e-06 -1.130254e-10) (-2.507543e-09 -4.728341e-03 -1.629982e-09))
0.710351      	((-1.344345e-06 -7.152475e-07 -6.467367e-07) (-8.665101e-10 3.606621e-09 4.784122e-08)) ((-3.666829e-11 -2.069104e-06 2.106380e-10) (-2.933435e-09 -4.687189e-03 -1.994317e-09))
0.864421      	((7.334778e-07 -6.565521e-07 7.320447e-07) (-2.544857e-09 3.801115e-09 5.039046e-08)) ((-6.288226e-11 -1.945119e-06 5.429799e-11) (-3.175712e-09 -4.638880e-03 -2.243432e-09))
1.049306      	((-1.300969e-07 -1.034078e-06 -3.149359e-08) (-4.351397e-09 4.669631e-09 5.226968e-08)) ((-3.791522e-11 -1.841166e-06 6.314917e-11) (-3.399317e-09 -4.582479e-03 -2.478127e-09))
1.271167      	((7.674686e-07 -1.829626e-07 1.064637e-06) (-6.990411e-09 5.994289e-09 5.226211e-08)) ((1.420351e-10 -1.755651e-06 -5.229291e-11) (-3.594025e-09 -4.517091e-03 -2.614702e-09))
1.5374        	((-3.262913e-08 -6.400550e-07 -5.264726e-07) (-1.003633e-08 7.553303e-09 4.999876e-08)) ((9.520631e-11 -1.680290e-06 1.005232e-10) (-3.817623e-09 -4.441958e-03 -2.745004e-09))
1.85688       	((3.527529e-07 -2.422702e-07 -1.094204e-06) (-1.264762e-08 9.967346e-09 4.799926e-08)) ((1.781671e-10 -1.606613e-06 7.419999e-11) (-4.258269e-09 -4.356603e-03 -3.058351e-09))
2.240256      	((7.011765e-08 -6.091716e-07 -1.186954e-06) (-1.540499e-08 1.256664e-08 4.878242e-08)) ((2.900056e-10 -1.529945e-06 -9.679060e-11) (-4.998868e-09 -4.261010e-03 -3.514864e-09))
2.700307      	((7.398150e-08 1.138395e-07 -1.266208e-06) (-1.880216e-08 1.410517e-08 5.158669e-08)) ((1.833778e-10 -1.451328e-06 -6.782830e-11) (-5.890428e-09 -4.155819e-03 -3.764771e-09))
3.252369      	((-2.256784e-07 -1.741731e-07 -1.340597e-06) (-2.240840e-08 1.429704e-08 5.474351e-08)) ((1.255642e-10 -1.373062e-06 -1.211478e-10) (-6.650469e-09 -4.042463e-03 -3.544487e-09))
3.914842      	((-6.816927e-07 1.219058e-07 -6.080633e-07) (-2.445012e-08 1.331457e-08 5.554788e-08)) ((6.978169e-11 -1.297991e-06 -1.156207e-10) (-6.863553e-09 -3.923130e-03 -2.899861e-09))
4.709811      	((-7.113522e-07 -3.412255e-08 -8.788090e-08) (-2.262309e-08 1.221241e-08 4.928795e-08)) ((1.533729e-10 -1.227426e-06 -1.034301e-10) (-6.690752e-09 -3.800442e-03 -2.108223e-09))
5.663773      	((1.414553e-07 -7.421378e-08 2.738110e-07) (-1.985915e-08 1.154473e-08 3.788539e-08)) ((8.986566e-12 -1.162946e-06 -5.459040e-11) (-6.366132e-09 -3.676816e-03 -1.272118e-09))
6.808528      	((3.502498e-07 -2.824652e-07 -7.139498e-08) (-2.398037e-08 1.151478e-08 2.537560e-08)) ((-1.047625e-11 -1.098524e-06 -1.069649e-10) (-6.092850e-09 -3.553652e-03 -4.356640e-10))
8.182233      	((-1.331138e-07 -1.370368e-07 3.066197e-07) (-2.369135e-08 1.187794e-08 2.150552e-08)) ((-6.956997e-11 -1.020329e-06 -1.963620e-10) (-6.239922e-09 -3.429654e-03 7.854654e-10))
9.83068       	((-3.309270e-07 -1.434063e-07 3.077729e-07) (-1.929111e-08 1.129269e-08 1.173946e-08)) ((-1.470957e-10 -9.301389e-07 1.824762e-11) (-6.785827e-09 -3.299501e-03 1.439106e-09))
11.808816     	((3.574873e-07 1.007178e-07 -8.073305e-07) (-6.553403e-10 1.080336e-08 6.272834e-09)) ((-2.726136e-10 -8.425190e-07 6.849850e-11) (-5.850408e-09 -3.159450e-03 3.319029e-10))
14.182579     	((1.674945e-07 1.196201e-07 9.200230e-09) (-1.623246e-08 9.039499e-09 -1.077222e-08)) ((-2.101082e-10 -7.646853e-07 1.311786e-10) (-3.836364e-09 -3.010537e-03 -1.537408e-09))
17.031095     	((4.362606e-07 1.392749e-07 -3.374421e-07) (-3.076570e-08 3.147028e-09 -3.540606e-08)) ((-2.955810e-10 -7.163385e-07 1.875099e-10) (-2.351468e-09 -2.856105e-03 -1.201627e-09))
20.449314     	((-5.422678e-07 9.813566e-08 -5.811279e-07) (-1.395348e-08 -6.546997e-09 -4.080926e-08)) ((-4.019227e-10 -6.853815e-07 2.416778e-10) (-8.780304e-10 -2.700362e-03 1.376065e-09))
24.551176     	((-8.129021e-09 -7.497809e-08 -1.085540e-06) (1.983272e-08 -1.679994e-08 -5.255059e-08)) ((-2.875179e-10 -6.410824e-07 1.484450e-10) (-3.015947e-10 -2.546992e-03 4.486821e-09))
29.473411     	((3.375992e-07 -1.952950e-07 -4.354522e-07) (6.556960e-08 -2.024012e-08 -3.146730e-08)) ((1.975659e-10 -5.904694e-07 1.944229e-11) (-5.631208e-10 -2.398151e-03 6.264818e-09))
35.380094     	((1.416519e-06 -6.930513e-07 1.125557e-06) (5.307273e-08 2.089731e-09 -2.055663e-08)) ((5.320162e-10 -5.339074e-07 4.648917e-11) (-7.968789e-10 -2.253971e-03 7.159408e-09))
42.468112     	((2.336036e-06 -4.994793e-07 2.226378e-06) (9.155263e-08 2.417101e-09 -5.158939e-08)) ((7.385962e-10 -4.683774e-07 -1.082387e-10) (-6.543143e-09 -2.113459e-03 1.035451e-08))
50.973735     	((3.988752e-06 -2.303930e-07 2.539992e-06) (1.093636e-07 1.754663e-08 1.339669e-07)) ((5.944653e-10 -3.968942e-07 -3.897144e-10) (-1.220388e-08 -1.977536e-03 1.625621e-08))
61.180482     	((3.255667e-06 -2.840205e-07 3.633683e-06) (1.841944e-07 2.905479e-08 1.809484e-07)) ((-5.453206e-11 -3.225782e-07 2.139216e-10) (-7.986923e-09 -1.850424e-03 1.572974e-08))
73.428578     	((5.424786e-06 4.391283e-07 2.939677e-06) (1.460384e-07 7.100385e-08 -4.436101e-09)) ((-1.019263e-09 -2.573280e-07 6.882119e-10) (1.053795e-10 -1.736222e-03 9.519206e-09))
88.126294     	((5.605304e-06 2.037158e-07 4.248564e-06) (2.505206e-07 5.264996e-08 1.575414e-07)) ((-1.018212e-09 -2.023292e-07 9.540714e-10) (1.628979e-09 -1.636767e-03 1.418946e-08))
105.396674    	((5.871926e-06 4.748388e-07 5.115960e-06) (3.447945e-07 8.040065e-08 2.339653e-07)) ((-2.083108e-09 -1.565900e-07 1.357164e-09) (1.174772e-08 -1.553873e-03 3.112920e-08))
125.2458      	((4.057983e-06 7.554608e-07 6.065184e-06) (3.449419e-07 -2.275122e-09 5.540788e-07)) ((-2.810256e-09 -1.267995e-07 1.317540e-09) (2.550225e-08 -1.486866e-03 4.426891e-08))
147.683215    	((4.699940e-06 4.186063e-07 8.510988e-06) (5.519709e-07 -7.655826e-08 9.058000e-07)) ((-2.114532e-09 -1.140990e-07 5.134271e-10) (2.883590e-08 -1.433202e-03 6.589349e-08))
172.723605    	((4.524093e-06 7.894861e-07 9.858213e-06) (6.405670e-07 -9.831790e-08 1.167593e-06)) ((-1.886730e-09 -1.046587e-07 -1.620308e-10) (1.443737e-08 -1.390664e-03 9.841564e-08))
198.965214    	((6.714638e-06 -5.943407e-08 1.205766e-05) (7.959734e-07 -2.148172e-07 1.746167e-06)) ((-1.506893e-09 -1.026272e-07 -8.410295e-10) (-1.893110e-08 -1.358573e-03 1.280487e-07))
225.445372    	((5.635557e-06 -1.511473e-08 8.974654e-06) (8.678330e-07 -2.611221e-07 1.663800e-06)) ((-1.549617e-09 -1.034972e-07 -1.004860e-09) (-4.884733e-08 -1.334949e-03 1.347805e-07))
252.219691    	((7.349626e-06 -5.392959e-07 8.348218e-06) (5.838578e-07 -2.629046e-07 1.431976e-06)) ((-2.019718e-09 -1.055698e-07 -5.446005e-10) (-7.250942e-08 -1.318299e-03 1.245744e-07))
279.320815    	((8.196785e-06 -8.795647e-07 8.414589e-06) (4.342884e-07 -2.476671e-07 8.731050e-07)) ((-1.895505e-09 -1.070976e-07 -1.709652e-09) (-8.605436e-08 -1.308330e-03 1.290516e-07))
306.730932    	((9.200806e-06 -1.771529e-06 1.032823e-05) (6.500041e-07 -2.885996e-07 5.555880e-07)) ((-2.331976e-09 -1.097243e-07 -2.061597e-09) (-8.684371e-08 -1.304930e-03 1.406139e-07))
334.452084    	((4.962320e-06 -2.666462e-06 8.971967e-06) (7.638812e-07 -2.716920e-07 1.336150e-07)) ((-2.541542e-09 -1.120320e-07 -2.243190e-09) (-1.009888e-07 -1.308064e-03 1.276950e-07))
362.479619    	((2.757685e-06 -2.708144e-06 9.595109e-06) (7.866442e-07 -3.435035e-07 -3.442927e-07)) ((-2.649774e-09 -1.135224e-07 -2.629742e-09) (-1.064696e-07 -1.317999e-03 1.096475e-07))
390.789196    	((5.061975e-06 -3.224799e-06 9.563078e-06) (6.471112e-07 -3.193103e-07 -3.077938e-07)) ((-2.073930e-09 -1.182427e-07 -1.631700e-09) (-1.227721e-07 -1.334395e-03 7.332585e-08))
419.200588    	((7.066833e-06 -2.646878e-06 8.817183e-06) (3.069836e-07 -3.220345e-07 -2.975564e-07)) ((-8.261920e-10 -1.226027e-07 -9.492344e-10) (-9.423062e-08 -1.356715e-03 1.612642e-08))
447.523706    	((6.670203e-06 -4.220961e-06 6.864274e-06) (2.999068e-08 -3.257332e-07 -3.440271e-07)) ((-4.863198e-10 -1.259892e-07 -2.522711e-10) (-2.806915e-08 -1.383317e-03 -2.795760e-08))
475.553057    	((5.469064e-06 -6.208123e-06 4.260731e-07) (-6.202301e-07 -4.048014e-07 1.781259e-07)) ((-7.439380e-10 -1.296844e-07 -7.414897e-10) (4.358784e-08 -1.411483e-03 -1.956180e-08))
503.167484    	((4.518126e-06 -1.174624e-05 -5.328860e-06) (-7.591154e-07 -5.275087e-07 -2.206656e-08)) ((-9.252430e-10 -1.330990e-07 -1.653242e-09) (1.036769e-07 -1.437825e-03 6.493811e-08))
530.316008    	((5.202154e-06 -1.604559e-05 -8.351799e-06) (-4.143693e-07 -6.044236e-07 -1.078635e-07)) ((1.028175e-11 -1.365440e-07 -7.124268e-10) (1.565384e-07 -1.459128e-03 1.324668e-07))
557.026076    	((3.990884e-06 -1.252154e-05 -1.089718e-05) (-5.679589e-08 -6.231101e-07 1.083327e-07)) ((2.576641e-10 -1.389520e-07 6.308860e-10) (1.482143e-07 -1.474370e-03 2.651793e-07))
583.384157    	((-1.405854e-06 -1.235461e-05 -7.418743e-06) (4.337761e-07 -6.138916e-07 1.972248e-07)) ((1.010645e-09 -1.394590e-07 3.717198e-10) (7.078849e-08 -1.483945e-03 4.096264e-07))
609.45758     	((-1.011265e-06 -1.292821e-05 -7.324701e-06) (3.643974e-07 -6.221982e-07 -4.191233e-08)) ((1.454967e-09 -1.376370e-07 4.369595e-10) (-4.791690e-08 -1.488821e-03 4.919419e-07))
635.301977    	((1.480126e-06 -8.320782e-06 -6.424537e-06) (4.566584e-07 -5.596516e-07 -2.728655e-07)) ((1.170679e-09 -1.377107e-07 2.532283e-10) (-1.878955e-07 -1.490156e-03 5.289997e-07))
660.960503    	((3.965833e-06 -1.174531e-05 -2.857829e-06) (5.814207e-07 -4.879433e-07 -2.532403e-07)) ((6.588454e-10 -1.369724e-07 3.513086e-10) (-3.431086e-07 -1.489295e-03 5.184190e-07))
686.453336    	((3.677999e-07 -1.368725e-05 -1.183927e-06) (4.097094e-07 -4.717547e-07 1.999997e-07)) ((6.002916e-10 -1.362639e-07 4.619098e-10) (-5.196017e-07 -1.487160e-03 4.359096e-07))
711.787198    	((7.692040e-07 -1.296474e-05 7.282224e-07) (3.164406e-07 -4.302746e-07 4.870799e-07)) ((-4.877938e-11 -1.343293e-07 1.022500e-10) (-6.775671e-07 -1.484237e-03 2.855043e-07))
736.996236    	((-1.260389e-06 -1.271673e-05 -4.030385e-06) (3.509431e-07 -3.740531e-07 1.328478e-07)) ((-2.227193e-10 -1.330916e-07 4.863604e-11) (-7.693032e-07 -1.480974e-03 7.844644e-08))
762.100479    	((-9.807675e-07 -1.407239e-05 -5.872891e-06) (5.418714e-07 -4.071825e-07 1.779024e-07)) ((-1.196895e-10 -1.318973e-07 6.575496e-11) (-7.753336e-07 -1.477529e-03 -1.641550e-07))
