# Forces      
# CofR        : (0.000000e+00 0.000000e+00 0.000000e+00)
# Time        forces(pressure viscous)	moments(pressure viscous)
0             	((0.000000e+00 0.000000e+00 0.000000e+00) (0.000000e+00 0.000000e+00 0.000000e+00)) ((0.000000e+00 0.000000e+00 0.000000e+00) (0.000000e+00 0.000000e+00 0.000000e+00))
0.012         	((-6.269364e-07 4.228219e-06 2.060064e-06) (-1.765146e-10 -9.782083e-10 2.607274e-10)) ((-4.657334e-05 6.864473e-10 1.643226e-07) (-2.412972e-03 1.063429e-10 -1.667305e-09))
0.0264        	((-1.986642e-06 -1.360451e-05 9.796586e-06) (-2.797152e-10 -1.380380e-09 2.117774e-11)) ((-2.054876e-05 2.729508e-10 1.217091e-07) (-2.410685e-03 -9.163855e-11 3.070317e-10))
0.04368       	((2.654020e-06 1.690811e-06 6.312349e-06) (1.807480e-10 -1.127965e-09 4.070527e-10)) ((-1.067037e-05 -9.140350e-10 8.995744e-08) (-2.407895e-03 -3.295607e-10 2.795029e-09))
0.064416      	((-5.088456e-06 -9.903131e-06 4.905501e-06) (1.463321e-10 -1.263108e-09 1.074357e-09)) ((-4.930317e-06 1.073437e-09 4.073146e-08) (-2.404551e-03 -2.991817e-10 3.157268e-09))
0.0892992     	((8.873574e-07 1.700980e-06 2.295296e-06) (-8.942794e-10 -1.479291e-09 4.642904e-10)) ((-3.355630e-06 1.970140e-09 8.987636e-09) (-2.400548e-03 1.685327e-11 2.698117e-09))
0.119159      	((-2.863104e-06 -2.245367e-06 6.301059e-08) (-1.865224e-09 -1.680149e-09 3.234507e-10)) ((-2.385934e-06 -6.456914e-10 -9.304758e-10) (-2.395759e-03 4.624927e-10 2.077332e-09))
0.154991      	((-5.427625e-07 1.653777e-06 -2.060673e-06) (-2.594756e-09 -1.567784e-09 1.039946e-09)) ((-2.030071e-06 -1.313803e-09 -2.485618e-09) (-2.390036e-03 7.178695e-10 2.314660e-09))
0.197989      	((-7.311007e-07 -9.046333e-07 -3.838811e-07) (-2.849979e-09 -1.273568e-09 2.000961e-09)) ((-1.774175e-06 -1.524428e-10 -1.086750e-09) (-2.383200e-03 7.354514e-10 3.397242e-09))
0.249587      	((5.485541e-07 1.558235e-06 3.021756e-07) (-2.678777e-09 -9.642411e-10 2.892009e-09)) ((-1.587656e-06 -7.350362e-10 -4.453189e-12) (-2.375041e-03 5.934087e-10 4.779371e-09))
0.311504      	((3.119324e-07 7.523878e-07 -4.260523e-07) (-2.429026e-09 -8.779728e-10 3.385556e-09)) ((-1.422752e-06 -2.265581e-09 1.117202e-09) (-2.365314e-03 6.417595e-10 6.487617e-09))
0.385805      	((9.758256e-08 -2.720644e-07 2.373972e-08) (-2.064615e-09 -8.523695e-10 3.800971e-09)) ((-1.256648e-06 -4.163071e-09 3.834202e-09) (-2.353731e-03 8.083286e-10 8.581012e-09))
0.474966      	((8.831698e-08 -4.120326e-07 -1.770414e-07) (-1.720228e-09 -4.582530e-10 4.055436e-09)) ((-1.095244e-06 -1.391038e-09 4.739140e-09) (-2.339963e-03 7.409083e-10 1.107918e-08))
0.581959      	((-4.185408e-07 -4.625571e-07 -6.231228e-08) (-1.461354e-09 2.650055e-10 4.093000e-09)) ((-9.347647e-07 1.014194e-09 4.462050e-09) (-2.323630e-03 1.083504e-09 1.339056e-08))
0.710351      	((-3.856618e-07 -8.019029e-07 -2.867425e-07) (-1.090969e-09 8.602254e-10 4.156178e-09)) ((-7.881570e-07 1.031031e-09 2.920215e-09) (-2.304304e-03 1.980256e-09 1.513065e-08))
0.864421      	((-1.810723e-07 -5.306337e-07 -3.742580e-07) (-5.044652e-10 1.172922e-09 4.178929e-09)) ((-6.749063e-07 -1.418044e-09 2.259164e-09) (-2.281516e-03 3.069504e-09 1.641756e-08))
1.049306      	((-8.395721e-08 -9.036898e-07 1.156185e-07) (2.836432e-10 1.022999e-09 4.070767e-09)) ((-5.982278e-07 -2.038673e-09 1.619409e-09) (-2.254758e-03 4.147649e-09 1.769909e-08))
1.271167      	((1.944227e-07 -1.837069e-07 4.095343e-07) (1.114385e-09 6.521115e-10 3.822629e-09)) ((-5.494591e-07 -2.285962e-09 2.455293e-09) (-2.223502e-03 5.190520e-09 1.933161e-08))
1.5374        	((-1.190078e-07 -4.310751e-07 -6.656949e-08) (1.852242e-09 6.381438e-10 3.300377e-09)) ((-5.156362e-07 -1.836895e-09 2.513551e-09) (-2.187223e-03 6.297463e-09 2.104113e-08))
1.85688       	((2.468309e-07 3.415304e-08 2.644767e-08) (2.634302e-09 7.563804e-10 2.596415e-09)) ((-4.892633e-07 -1.555472e-09 2.676451e-09) (-2.145455e-03 7.424548e-09 2.277504e-08))
2.240256      	((-1.038031e-07 -2.795629e-07 -1.065530e-07) (3.551507e-09 8.810992e-10 2.006115e-09)) ((-4.675506e-07 -1.453119e-09 2.573525e-09) (-2.097853e-03 8.535229e-09 2.473799e-08))
2.700307      	((1.672688e-07 -1.169858e-07 2.080217e-07) (4.711568e-09 6.049855e-10 9.891450e-10)) ((-4.479590e-07 -1.298040e-09 2.533964e-09) (-2.044290e-03 9.850311e-09 2.666300e-08))
3.252369      	((-1.631074e-07 -1.315644e-07 -1.895462e-07) (5.728106e-09 2.089655e-10 -5.696632e-10)) ((-4.279781e-07 -1.058967e-09 2.327154e-09) (-1.984956e-03 1.165859e-08 2.799305e-08))
3.914842      	((6.482585e-08 -1.913016e-08 6.421614e-08) (6.273359e-09 -1.451646e-10 -2.242096e-09)) ((-4.066987e-07 -6.710689e-10 1.818311e-09) (-1.920455e-03 1.303176e-08 2.915422e-08))
4.709811      	((-2.479822e-07 -2.120367e-07 -1.262612e-07) (6.267075e-09 -1.194476e-09 -2.958663e-09)) ((-3.840259e-07 -4.426941e-10 1.427814e-09) (-1.851846e-03 1.335555e-08 3.049180e-08))
5.663773      	((-8.184547e-09 3.027721e-08 1.848966e-07) (6.061825e-09 -1.902706e-09 -2.898987e-09)) ((-3.624437e-07 -1.925383e-10 1.112848e-09) (-1.780567e-03 1.425226e-08 3.044334e-08))
6.808528      	((-1.802650e-07 -5.949241e-08 -7.428939e-09) (5.575257e-09 -1.347363e-09 -4.162870e-09)) ((-3.420710e-07 -8.652221e-11 8.373779e-10) (-1.708189e-03 1.624811e-08 2.908160e-08))
8.182233      	((-1.579183e-07 -2.007361e-08 9.342963e-08) (5.172438e-09 -4.710144e-10 -4.691921e-09)) ((-3.227574e-07 8.659341e-11 9.307635e-10) (-1.636071e-03 1.798650e-08 2.735805e-08))
9.83068       	((-2.765774e-07 -1.980171e-07 -1.105099e-07) (5.308634e-09 -7.372587e-10 -2.308462e-09)) ((-3.015727e-07 -2.591496e-10 1.098647e-09) (-1.564916e-03 1.848844e-08 2.553190e-08))
11.808816     	((-1.910892e-07 -3.185381e-08 -1.431553e-08) (3.417793e-09 -3.008639e-09 -3.644264e-09)) ((-2.757432e-07 -1.852054e-10 1.265586e-09) (-1.493512e-03 1.662226e-08 2.422443e-08))
14.182579     	((-3.356608e-07 -8.889413e-08 -2.402551e-08) (3.569824e-09 -1.138954e-09 -6.128626e-09)) ((-2.464107e-07 1.602710e-10 9.049895e-10) (-1.419275e-03 1.321931e-08 2.136072e-08))
17.031095     	((-1.841140e-07 8.465994e-08 7.845511e-08) (5.351606e-09 -4.766850e-10 -8.094718e-09)) ((-2.170084e-07 2.647912e-10 8.825395e-10) (-1.341183e-03 9.784968e-09 1.464679e-08))
20.449314     	((-3.472143e-07 6.348338e-08 1.754997e-08) (4.575419e-09 -4.563504e-09 -9.467226e-09)) ((-1.920384e-07 1.857655e-10 6.236904e-10) (-1.260281e-03 7.980194e-09 5.120045e-09))
24.551176     	((-2.632829e-07 1.205056e-08 9.747064e-08) (1.464406e-09 -7.504703e-09 -8.684645e-09)) ((-1.780585e-07 3.102338e-10 5.811599e-10) (-1.178489e-03 7.907341e-09 -2.747198e-09))
29.473411     	((-2.648564e-07 -1.052476e-07 -5.960028e-08) (-5.285170e-10 -1.162366e-08 -4.003814e-09)) ((-1.681932e-07 1.242702e-10 3.539676e-10) (-1.097907e-03 5.995023e-09 -2.794827e-09))
35.380094     	((-2.894801e-07 -1.181804e-07 1.436340e-07) (-6.516965e-10 -1.285815e-08 -1.080552e-09)) ((-1.571215e-07 -9.414760e-11 4.043919e-10) (-1.020140e-03 1.443323e-09 -5.012504e-10))
42.468112     	((-4.109694e-07 -2.604623e-07 3.406774e-07) (8.823094e-10 -9.485380e-09 1.064851e-09)) ((-1.455591e-07 7.087112e-11 2.223762e-10) (-9.459178e-04 -1.960165e-09 -3.585832e-09))
50.973735     	((-2.528065e-07 2.450318e-07 5.166480e-07) (2.107950e-09 2.202166e-08 2.418861e-08)) ((-1.284467e-07 4.451143e-11 2.755469e-10) (-8.751058e-04 -3.796704e-10 -9.084315e-09))
61.180482     	((-3.332541e-07 7.494544e-07 1.428828e-06) (3.280938e-09 4.252912e-08 2.676793e-08)) ((-1.078827e-07 3.524984e-10 3.659016e-10) (-8.075275e-04 4.817766e-09 -1.426547e-08))
73.428578     	((-2.043620e-07 8.281955e-07 1.149206e-06) (1.502219e-08 6.454695e-08 1.828492e-08)) ((-8.579376e-08 5.790774e-10 3.297730e-10) (-7.439895e-04 3.844094e-09 -1.464618e-08))
88.126294     	((-2.216682e-07 9.009188e-07 1.590321e-06) (2.310297e-08 7.346759e-08 3.331005e-08)) ((-6.412861e-08 7.829116e-10 1.770132e-11) (-6.860107e-04 2.702095e-09 -8.502584e-09))
105.763553    	((-7.622008e-08 1.233264e-06 1.653505e-06) (3.021288e-08 4.122937e-08 7.808679e-08)) ((-4.650374e-08 8.282608e-10 -1.820383e-10) (-6.345622e-04 4.945869e-09 -2.095847e-09))
126.928263    	((-1.770917e-07 8.669803e-07 1.526725e-06) (1.646325e-08 4.752850e-08 1.255965e-07)) ((-3.152198e-08 1.048685e-09 -4.163481e-10) (-5.898679e-04 9.154958e-09 8.579374e-10))
152.325916    	((-5.246525e-08 1.482082e-06 1.353303e-06) (-2.797468e-09 1.171976e-07 2.149735e-07)) ((-2.167350e-08 1.345572e-09 -8.605115e-10) (-5.516553e-04 1.982599e-08 3.933925e-09))
182.803099    	((1.311012e-07 1.850549e-06 1.203457e-06) (-2.456904e-08 2.473193e-07 3.310879e-07)) ((-1.772750e-08 1.224183e-09 -7.141446e-10) (-5.193698e-04 3.440112e-08 7.725089e-09))
218.444293    	((4.100610e-07 2.073918e-06 9.390187e-07) (-1.350639e-08 3.764788e-07 3.880851e-07)) ((-1.512153e-08 8.783048e-10 -4.255736e-10) (-4.926979e-04 4.821312e-08 9.960100e-09))
259.288029    	((3.299189e-07 2.583191e-06 9.595107e-07) (-3.487621e-08 4.088115e-07 4.500920e-07)) ((-1.326913e-08 1.042239e-09 -2.588904e-10) (-4.707279e-04 5.741423e-08 5.444153e-09))
305.385598    	((5.168399e-08 2.476902e-06 1.411272e-06) (-7.039770e-08 5.545369e-07 5.058579e-07)) ((-1.190278e-08 1.047368e-09 -2.783310e-10) (-4.527385e-04 5.943780e-08 -2.615068e-09))
356.797217    	((-1.067601e-07 2.287074e-06 1.715896e-06) (-9.676446e-08 5.426325e-07 4.632557e-07)) ((-1.203921e-08 9.578839e-10 -3.831517e-10) (-4.380861e-04 5.480715e-08 -1.290048e-08))
410.703153    	((-1.935740e-07 2.113400e-06 1.986876e-06) (-1.096843e-07 3.977014e-07 3.462701e-07)) ((-1.209603e-08 8.905659e-10 -4.149568e-10) (-4.268052e-04 5.159693e-08 -2.047854e-08))
465.563193    	((-4.241097e-07 1.761424e-06 1.692965e-06) (-1.020848e-07 1.855006e-07 2.461629e-07)) ((-1.224699e-08 6.219096e-10 -4.606218e-10) (-4.187410e-04 4.879114e-08 -2.701148e-08))
521.508978    	((-7.495114e-07 2.082017e-06 1.645739e-06) (-9.076214e-08 1.261754e-09 2.863849e-07)) ((-1.250250e-08 1.966629e-10 -5.170603e-10) (-4.136779e-04 4.366319e-08 -3.370180e-08))
578.421545    	((-9.137163e-07 1.902213e-06 8.885294e-07) (-6.141209e-08 -1.056260e-07 3.013281e-07)) ((-1.288160e-08 -2.973344e-10 -4.881038e-10) (-4.114607e-04 4.144700e-08 -4.490979e-08))
636.133032    	((-8.968514e-07 2.517615e-06 6.335923e-07) (4.076334e-09 -1.682915e-07 2.823837e-07)) ((-1.337893e-08 -5.091536e-10 -5.167364e-10) (-4.119336e-04 3.363592e-08 -5.507342e-08))
694.528236    	((-7.059195e-07 2.964184e-06 1.255036e-06) (3.964557e-08 -1.007460e-07 3.194353e-07)) ((-1.427834e-08 -5.872799e-10 -5.094507e-10) (-4.149990e-04 1.619787e-08 -5.780276e-08))
752.738023    	((-5.759040e-07 3.161344e-06 1.590822e-06) (2.092158e-08 -7.057329e-08 3.224627e-07)) ((-1.527331e-08 -6.268086e-10 -4.559861e-10) (-4.206067e-04 4.595794e-10 -5.001772e-08))
810.557352    	((-6.601159e-07 3.009448e-06 1.507893e-06) (4.651208e-08 5.254148e-08 2.582863e-07)) ((-1.622030e-08 -5.762683e-10 -1.009467e-10) (-4.285987e-04 -1.101249e-08 -4.483392e-08))
867.894837    	((-1.002875e-06 2.962767e-06 2.077634e-06) (3.044252e-08 1.942299e-07 1.523606e-08)) ((-1.723271e-08 -7.750640e-10 -1.544396e-11) (-4.384503e-04 -1.408603e-09 -3.327538e-08))
924.688404    	((-1.573392e-06 1.229772e-06 1.919476e-06) (-2.012138e-08 1.939062e-07 -1.964027e-07)) ((-1.757038e-08 -9.065582e-10 -5.571757e-11) (-4.494844e-04 1.492567e-08 -1.499152e-08))
980.906787    	((-2.294350e-06 -5.200213e-07 1.676623e-06) (-1.195734e-07 8.644875e-08 -2.793151e-07)) ((-1.750589e-08 -1.013974e-09 4.689689e-11) (-4.604207e-04 3.405932e-08 3.226071e-09))
1036.503154   	((-2.906033e-06 -2.706257e-06 2.071434e-06) (-1.200095e-07 -2.418456e-08 -1.520319e-07)) ((-1.787719e-08 -9.883889e-10 1.738584e-10) (-4.697392e-04 5.321183e-08 4.411969e-09))
1090.949889   	((-3.239767e-06 -2.961772e-06 1.194358e-06) (-1.029074e-07 -4.122614e-08 -3.986255e-08)) ((-1.845887e-08 -7.771883e-10 2.897721e-10) (-4.765434e-04 7.666496e-08 -1.573437e-08))
1144.320847   	((-3.440328e-06 -2.728361e-06 -7.008058e-08) (-1.416323e-07 -2.804458e-08 9.585100e-09)) ((-1.808293e-08 -5.375049e-10 1.938746e-10) (-4.808419e-04 9.319794e-08 -3.526083e-08))
1196.763255   	((-2.374133e-06 -1.949735e-06 1.179406e-06) (-8.820288e-08 -1.556697e-07 1.304955e-07)) ((-1.772137e-08 -3.678499e-10 1.726993e-10) (-4.829296e-04 1.008633e-07 -6.420403e-08))
1248.480781   	((-2.923987e-06 -1.041757e-06 9.148134e-07) (-7.222806e-08 1.298354e-07 2.881061e-07)) ((-1.763188e-08 -2.292134e-10 1.124848e-10) (-4.832982e-04 9.752706e-08 -9.965060e-08))
1299.581665   	((-2.528567e-06 3.384551e-07 2.837607e-07) (-4.343972e-08 2.636961e-07 2.770483e-07)) ((-1.732620e-08 -1.547831e-10 -7.419520e-12) (-4.825211e-04 8.067951e-08 -1.358505e-07))
1350.224777   	((-2.692073e-06 -3.412717e-07 3.422261e-07) (-2.098745e-08 1.913945e-07 2.394920e-07)) ((-1.690911e-08 5.065955e-12 -1.057340e-10) (-4.809931e-04 4.840621e-08 -1.632731e-07))
1400.544701   	((-2.934590e-06 -1.544889e-07 -1.748073e-08) (-5.312151e-08 2.821624e-07 2.360507e-07)) ((-1.660391e-08 1.874190e-10 -1.132019e-10) (-4.789738e-04 5.154104e-09 -1.709272e-07))
1450.616436   	((-2.568479e-06 -5.111195e-07 -4.880712e-07) (-7.577820e-08 3.910123e-07 2.024190e-07)) ((-1.627584e-08 2.191348e-10 -4.765062e-11) (-4.768172e-04 -3.829149e-08 -1.616786e-07))
1500.490224   	((-2.590546e-06 -2.231926e-07 -9.573730e-07) (-5.933701e-08 3.936561e-07 1.182227e-07)) ((-1.596738e-08 2.566269e-10 -7.928447e-11) (-4.747286e-04 -7.565267e-08 -1.377482e-07))
