# Forces      
# CofR        : (0.000000e+00 0.000000e+00 0.000000e+00)
# Time        forces(pressure viscous)	moments(pressure viscous)
0             	((0.000000e+00 0.000000e+00 0.000000e+00) (-1.003859e-10 -1.006602e+00 -6.223820e-11)) ((0.000000e+00 0.000000e+00 0.000000e+00) (3.033421e-08 -4.810415e-12 -1.344552e-07))
0.012         	((1.121465e-01 -2.961425e+04 1.490756e-01) (-1.045806e-05 -2.274801e+00 -1.097615e-05)) ((7.718573e-04 1.208407e-04 -4.914720e-03) (-4.087120e-06 -1.561756e-07 4.183514e-06))
0.0264        	((6.277899e-01 6.978000e+03 3.064510e-01) (-3.181324e-05 -5.825866e+00 -5.267568e-05)) ((-1.466998e-04 6.422750e-05 9.825201e-04) (3.210470e-05 -4.495748e-07 -3.031542e-05))
0.04368       	((-6.283737e-01 3.168592e+03 9.181181e-03) (-4.154976e-05 -1.622825e+01 -3.904470e-05)) ((-1.933422e-04 8.288182e-05 7.463656e-04) (3.232248e-04 -1.070418e-05 -3.189733e-04))
0.064416      	((-1.448294e-01 4.519392e+01 -2.566828e-01) (-4.222964e-05 -1.848943e+01 -1.598798e-04)) ((1.429445e-05 8.209351e-05 2.483082e-05) (1.051231e-04 -1.857877e-05 -1.020244e-04))
0.0892992     	((-1.716714e-01 3.684644e+01 -2.806306e-01) (-1.483744e-03 -1.761457e+01 -3.007571e-04)) ((1.192079e-05 1.087077e-04 -1.403112e-04) (1.021443e-04 -1.873681e-05 -9.650816e-05))
0.119159      	((-2.542712e-01 8.956908e+00 -2.512328e-02) (-1.830177e-03 -1.680551e+01 -2.804686e-04)) ((1.193924e-05 1.645343e-04 -1.125242e-04) (4.978118e-05 -9.648781e-06 -1.128087e-04))
0.154991      	((-1.664859e-01 -1.813497e+01 -6.531808e-02) (-1.203215e-03 -1.604718e+01 -2.990288e-04)) ((1.941504e-05 1.432163e-04 -4.692313e-05) (1.226419e-05 -1.888784e-05 -1.290495e-04))
0.197989      	((-1.051365e-01 -2.864837e+01 -6.255468e-02) (-1.264302e-03 -1.535734e+01 -5.850769e-04)) ((1.415426e-05 1.474750e-04 -6.039138e-05) (-4.179098e-05 -1.997283e-05 -5.598360e-05))
0.249587      	((-1.254810e-01 -3.353915e+01 -1.209473e-01) (-9.261850e-04 -1.473677e+01 -8.735280e-04)) ((2.727507e-05 9.394702e-05 -1.386131e-05) (-6.159170e-05 -7.664250e-06 -9.081896e-05))
0.311504      	((-5.208858e-02 -3.281692e+01 -9.525849e-02) (-8.923816e-04 -1.420864e+01 -7.505846e-04)) ((8.624210e-06 1.445627e-04 2.693021e-05) (-6.640056e-05 -7.082685e-06 -1.846851e-04))
0.385805      	((-1.258233e-01 -3.298544e+01 -8.081663e-02) (-1.044886e-03 -1.380325e+01 -6.827680e-04)) ((5.978852e-06 1.765563e-04 -5.082706e-05) (-8.687382e-05 -9.953234e-06 -2.079942e-04))
0.474966      	((-9.063624e-02 -3.304349e+01 -1.679072e-02) (-1.185553e-03 -1.350153e+01 -1.969977e-04)) ((2.906745e-05 1.353198e-04 -4.777802e-05) (-9.924919e-05 2.838941e-05 -1.379087e-04))
0.580651      	((-9.305265e-03 -3.432105e+01 3.702506e-03) (-6.123837e-04 -1.327153e+01 -2.769523e-06)) ((5.898626e-06 1.587731e-04 -4.666962e-06) (-1.337937e-04 5.253984e-05 -2.217691e-04))
0.702812      	((-3.790228e-03 -3.617854e+01 -8.021405e-03) (-5.038134e-04 -1.311626e+01 -9.871668e-05)) ((8.696105e-06 1.533969e-04 -1.997520e-05) (-1.816688e-04 4.367201e-05 -1.417735e-04))
0.841427      	((-5.785352e-02 -3.892732e+01 -1.126552e-02) (-8.862917e-04 -1.303531e+01 -1.089265e-04)) ((1.801066e-05 1.658174e-04 -3.538370e-05) (-1.977927e-04 3.625100e-05 2.068537e-05))
0.996471      	((2.112241e-02 -4.148735e+01 -3.278465e-03) (-4.025208e-04 -1.301243e+01 -5.988802e-05)) ((7.618721e-06 1.543843e-04 -7.498975e-06) (-2.185603e-04 5.798879e-05 3.773051e-05))
1.160262      	((2.662963e-02 -4.372516e+01 1.176423e-02) (-2.679174e-04 -1.303581e+01 9.376516e-06)) ((1.393948e-05 1.532124e-04 -1.753849e-05) (-2.150988e-04 7.268302e-05 1.015343e-04))
1.322871      	((4.895552e-02 -4.554528e+01 3.903332e-02) (-2.083908e-04 -1.307504e+01 1.166001e-04)) ((1.067094e-05 1.707026e-04 -1.640376e-05) (-2.300051e-04 7.674860e-05 1.924939e-04))
1.484351      	((1.007084e-01 -4.703916e+01 8.793178e-02) (-1.323458e-04 -1.310209e+01 2.623562e-04)) ((1.127242e-05 1.603067e-04 -1.879416e-05) (-2.323440e-04 9.455938e-05 1.911450e-04))
1.644983      	((1.528559e-01 -4.818597e+01 1.444719e-01) (-7.354414e-05 -1.310263e+01 3.115893e-04)) ((3.782474e-06 1.628956e-04 -1.514221e-05) (-1.793050e-04 9.616741e-05 1.414372e-04))
1.804935      	((2.088338e-01 -4.897237e+01 1.918575e-01) (-1.055910e-04 -1.307856e+01 2.043757e-04)) ((7.284791e-06 1.573198e-04 -2.031659e-05) (-5.597061e-05 8.297249e-05 3.011545e-05))
1.964805      	((2.792446e-01 -4.942996e+01 2.538109e-01) (-1.605335e-04 -1.304184e+01 4.864839e-05)) ((1.124539e-05 1.596533e-04 -2.108206e-05) (1.404150e-04 7.722541e-05 -1.750860e-04))
2.12501       	((3.614789e-01 -4.991139e+01 3.249728e-01) (-2.129777e-04 -1.300237e+01 -1.181292e-04)) ((1.784463e-05 1.567237e-04 -2.570946e-05) (3.352686e-04 8.184975e-05 -3.713208e-04))
2.285528      	((4.540767e-01 -5.025189e+01 4.165582e-01) (-1.741745e-04 -1.296566e+01 -9.727128e-05)) ((2.632126e-05 1.527159e-04 -2.467049e-05) (4.848995e-04 9.513074e-05 -4.857129e-04))
2.446197      	((5.477340e-01 -5.027688e+01 5.138665e-01) (-3.124057e-05 -1.293177e+01 9.378464e-05)) ((2.936862e-05 1.457581e-04 -2.431936e-05) (5.968985e-04 1.032090e-04 -5.467581e-04))
2.606884      	((6.527650e-01 -5.013093e+01 6.125736e-01) (2.216970e-04 -1.290060e+01 3.568015e-04)) ((3.160768e-05 1.421524e-04 -2.330811e-05) (6.903476e-04 1.067152e-04 -6.287895e-04))
2.767531      	((7.459815e-01 -4.981398e+01 7.050882e-01) (3.629817e-04 -1.287269e+01 5.944800e-04)) ((3.386092e-05 1.349845e-04 -2.080716e-05) (7.686673e-04 1.084844e-04 -7.457869e-04))
2.928199      	((8.417303e-01 -4.944621e+01 8.015167e-01) (4.317089e-04 -1.284760e+01 8.533806e-04)) ((3.559547e-05 1.283877e-04 -2.064115e-05) (8.533759e-04 1.066258e-04 -8.562729e-04))
3.088922      	((9.556749e-01 -4.913945e+01 9.013459e-01) (6.550641e-04 -1.282493e+01 1.151340e-03)) ((3.490193e-05 1.260140e-04 -1.715529e-05) (9.581922e-04 1.060747e-04 -9.793650e-04))
3.249686      	((1.099344e+00 -4.891925e+01 1.016310e+00) (9.743540e-04 -1.280481e+01 1.351366e-03)) ((3.676146e-05 1.250540e-04 -1.530521e-05) (1.095856e-03 1.067683e-04 -1.167450e-03))
3.410485      	((1.237343e+00 -4.873378e+01 1.141225e+00) (1.003616e-03 -1.278727e+01 1.442509e-03)) ((3.565213e-05 1.221830e-04 -1.774155e-05) (1.292140e-03 1.072809e-04 -1.418748e-03))
3.571313      	((1.396846e+00 -4.851593e+01 1.280197e+00) (9.357542e-04 -1.277181e+01 1.417164e-03)) ((3.439659e-05 1.197166e-04 -1.789359e-05) (1.571641e-03 1.062510e-04 -1.753898e-03))
3.732168      	((1.604934e+00 -4.823212e+01 1.440430e+00) (1.087088e-03 -1.275812e+01 1.330409e-03)) ((3.572276e-05 1.188627e-04 -1.524266e-05) (1.930402e-03 1.028374e-04 -2.222882e-03))
3.893049      	((1.816013e+00 -4.797126e+01 1.620641e+00) (1.065259e-03 -1.274619e+01 1.219180e-03)) ((3.872485e-05 1.166387e-04 -1.993078e-05) (2.359603e-03 9.759372e-05 -2.749466e-03))
4.053949      	((2.053017e+00 -4.772242e+01 1.824165e+00) (7.854544e-04 -1.273598e+01 1.023949e-03)) ((4.332605e-05 1.153228e-04 -2.364858e-05) (2.851739e-03 9.317556e-05 -3.299520e-03))
4.214863      	((2.344709e+00 -4.748323e+01 2.059448e+00) (6.561716e-04 -1.272731e+01 7.888390e-04)) ((4.763719e-05 1.154344e-04 -2.005783e-05) (3.423349e-03 9.030517e-05 -3.973820e-03))
4.375789      	((2.675932e+00 -4.728347e+01 2.337939e+00) (5.134815e-04 -1.271974e+01 5.620485e-04)) ((5.095586e-05 1.120049e-04 -2.163995e-05) (4.095085e-03 8.701925e-05 -4.741630e-03))
4.536724      	((3.058107e+00 -4.711598e+01 2.667512e+00) (2.747702e-04 -1.271325e+01 3.193525e-04)) ((5.484585e-05 1.110679e-04 -1.955767e-05) (4.849083e-03 8.348000e-05 -5.569311e-03))
4.697665      	((3.520751e+00 -4.698406e+01 3.049418e+00) (2.321176e-04 -1.270784e+01 1.151515e-04)) ((5.985419e-05 1.122887e-04 -1.252913e-05) (5.658999e-03 8.183886e-05 -6.515657e-03))
4.858608      	((4.038484e+00 -4.690052e+01 3.494940e+00) (2.527414e-04 -1.270315e+01 6.257596e-05)) ((6.571898e-05 1.085800e-04 -1.118890e-05) (6.525060e-03 8.134850e-05 -7.523328e-03))
5.019552      	((4.630772e+00 -4.685137e+01 4.004337e+00) (3.436172e-04 -1.269905e+01 1.540920e-04)) ((7.484354e-05 1.090098e-04 -9.111878e-06) (7.454085e-03 8.089950e-05 -8.573590e-03))
5.180491      	((5.324097e+00 -4.682494e+01 4.580013e+00) (7.146133e-04 -1.269552e+01 3.550196e-04)) ((8.847226e-05 1.089727e-04 -6.545282e-06) (8.441092e-03 8.060660e-05 -9.757344e-03))
5.341423      	((6.093046e+00 -4.681828e+01 5.233827e+00) (1.126453e-03 -1.269235e+01 7.313165e-04)) ((1.012397e-04 1.051905e-04 -1.088370e-05) (9.508451e-03 8.231777e-05 -1.104788e-02))
5.502345      	((6.955331e+00 -4.683588e+01 5.966680e+00) (1.596383e-03 -1.268950e+01 1.255871e-03)) ((1.155856e-04 1.064305e-04 -1.120443e-05) (1.069035e-02 8.457699e-05 -1.245424e-02))
5.663253      	((7.928496e+00 -4.686327e+01 6.771953e+00) (2.264067e-03 -1.268695e+01 1.789629e-03)) ((1.327879e-04 1.039453e-04 -9.050309e-06) (1.200211e-02 8.606106e-05 -1.407310e-02))
5.824146      	((8.995782e+00 -4.690760e+01 7.670465e+00) (2.816848e-03 -1.268460e+01 2.337237e-03)) ((1.503724e-04 9.892987e-05 -1.615909e-05) (1.349131e-02 8.650406e-05 -1.589034e-02))
5.98502       	((1.020246e+01 -4.696136e+01 8.678659e+00) (3.339809e-03 -1.268260e+01 2.880428e-03)) ((1.710277e-04 1.009295e-04 -1.893096e-05) (1.521576e-02 8.592324e-05 -1.796464e-02))
6.145873      	((1.157139e+01 -4.704332e+01 9.806677e+00) (3.985785e-03 -1.268100e+01 3.384292e-03)) ((1.949693e-04 9.723688e-05 -2.116868e-05) (1.718766e-02 8.542342e-05 -2.037960e-02))
6.306701      	((1.308997e+01 -4.712383e+01 1.107634e+01) (4.492185e-03 -1.267973e+01 3.944070e-03)) ((2.187568e-04 9.144128e-05 -2.781161e-05) (1.943254e-02 8.557509e-05 -2.308070e-02))
6.4675        	((1.480892e+01 -4.721562e+01 1.249796e+01) (5.008905e-03 -1.267896e+01 4.528960e-03)) ((2.439386e-04 9.288098e-05 -2.594900e-05) (2.197572e-02 8.350230e-05 -2.611717e-02))
6.628266      	((1.675095e+01 -4.731881e+01 1.409222e+01) (5.755060e-03 -1.267879e+01 5.148910e-03)) ((2.718169e-04 8.286668e-05 -2.235676e-05) (2.482678e-02 8.351911e-05 -2.959535e-02))
6.788993      	((1.890161e+01 -4.745184e+01 1.587940e+01) (6.519356e-03 -1.267913e+01 5.937429e-03)) ((2.960856e-04 7.470266e-05 -2.015353e-05) (2.803666e-02 8.358988e-05 -3.348825e-02))
6.949677      	((2.129556e+01 -4.761565e+01 1.786080e+01) (7.362839e-03 -1.268014e+01 6.798923e-03)) ((3.252126e-04 7.013235e-05 -9.018780e-06) (3.161136e-02 7.919031e-05 -3.780885e-02))
7.110313      	((2.397553e+01 -4.781066e+01 2.004395e+01) (8.503325e-03 -1.268197e+01 7.756764e-03)) ((3.556938e-04 5.493627e-05 5.678945e-06) (3.552478e-02 7.755149e-05 -4.259296e-02))
7.2709        	((2.693279e+01 -4.809024e+01 2.248289e+01) (9.844719e-03 -1.268449e+01 9.037877e-03)) ((3.844713e-04 4.504994e-05 2.263410e-05) (3.983622e-02 7.930114e-05 -4.783162e-02))
7.43143       	((3.018457e+01 -4.847352e+01 2.514550e+01) (1.137798e-02 -1.268788e+01 1.057216e-02)) ((4.178355e-04 2.918033e-05 5.014425e-05) (4.457596e-02 7.700202e-05 -5.357997e-02))
7.591892      	((3.376121e+01 -4.900123e+01 2.804958e+01) (1.336677e-02 -1.269235e+01 1.229632e-02)) ((4.605800e-04 1.270088e-05 7.895238e-05) (4.975580e-02 6.894737e-05 -5.993699e-02))
7.752275      	((3.763872e+01 -4.962641e+01 3.120826e+01) (1.573145e-02 -1.269779e+01 1.428220e-02)) ((5.132413e-04 -8.694839e-06 1.001552e-04) (5.542349e-02 6.636952e-05 -6.690721e-02))
7.912579      	((4.178790e+01 -5.041720e+01 3.459960e+01) (1.817177e-02 -1.270435e+01 1.647294e-02)) ((5.701483e-04 -3.790131e-05 1.297148e-04) (6.155791e-02 7.503543e-05 -7.443009e-02))
8.072798      	((4.610802e+01 -5.145359e+01 3.813325e+01) (2.091691e-02 -1.271234e+01 1.895231e-02)) ((6.201504e-04 -6.917087e-05 1.697550e-04) (6.808657e-02 8.864294e-05 -8.249588e-02))
8.232913      	((5.062375e+01 -5.271884e+01 4.172691e+01) (2.418511e-02 -1.272190e+01 2.177130e-02)) ((6.600494e-04 -9.687177e-05 2.267460e-04) (7.497902e-02 9.840308e-05 -9.114616e-02))
8.3929        	((5.513034e+01 -5.418350e+01 4.530487e+01) (2.751065e-02 -1.273321e+01 2.479399e-02)) ((6.797495e-04 -1.266303e-04 3.067545e-04) (8.217035e-02 1.062229e-04 -1.003176e-01))
8.55275       	((5.944497e+01 -5.591158e+01 4.873463e+01) (3.053228e-02 -1.274639e+01 2.788904e-02)) ((6.730122e-04 -1.490773e-04 4.130312e-04) (8.952192e-02 1.236344e-04 -1.098426e-01))
8.71246       	((6.342650e+01 -5.793833e+01 5.186161e+01) (3.378855e-02 -1.276113e+01 3.110176e-02)) ((6.338026e-04 -1.652155e-04 5.510985e-04) (9.685347e-02 1.411795e-04 -1.194723e-01))
8.872024      	((6.682409e+01 -6.012332e+01 5.444487e+01) (3.757807e-02 -1.277728e+01 3.440052e-02)) ((5.640485e-04 -1.692850e-04 7.005615e-04) (1.038871e-01 1.514383e-04 -1.287369e-01))
9.031443      	((6.927051e+01 -6.233031e+01 5.626192e+01) (4.167570e-02 -1.279479e+01 3.770236e-02)) ((4.556610e-04 -1.573237e-04 8.442846e-04) (1.101467e-01 1.814822e-04 -1.370481e-01))
9.190724      	((7.071267e+01 -6.423070e+01 5.723772e+01) (4.602811e-02 -1.281318e+01 4.135561e-02)) ((3.227485e-04 -1.439709e-04 9.973085e-04) (1.151245e-01 2.466588e-04 -1.439274e-01))
9.349878      	((7.090480e+01 -6.592579e+01 5.714676e+01) (5.023287e-02 -1.283184e+01 4.503947e-02)) ((1.724270e-04 -1.208495e-04 1.160823e-03) (1.185808e-01 3.181057e-04 -1.490535e-01))
9.508922      	((6.997899e+01 -6.725447e+01 5.603191e+01) (5.324484e-02 -1.285051e+01 4.770278e-02)) ((1.400110e-06 -6.456821e-05 1.307351e-03) (1.204498e-01 3.774634e-04 -1.524622e-01))
9.667875      	((6.808537e+01 -6.821622e+01 5.407402e+01) (5.427533e-02 -1.286836e+01 4.868722e-02)) ((-1.575521e-04 6.158524e-06 1.419715e-03) (1.209736e-01 4.070702e-04 -1.544234e-01))
9.826763      	((6.539322e+01 -6.863771e+01 5.149856e+01) (5.259060e-02 -1.288443e+01 4.749430e-02)) ((-2.680272e-04 7.643809e-05 1.474579e-03) (1.205370e-01 3.795915e-04 -1.553247e-01))
9.98561       	((6.246457e+01 -6.861239e+01 4.876374e+01) (4.777683e-02 -1.289857e+01 4.362853e-02)) ((-3.083946e-04 1.267933e-04 1.449615e-03) (1.194494e-01 3.383933e-04 -1.555452e-01))
10.144446     	((5.978487e+01 -6.811756e+01 4.647662e+01) (4.052751e-02 -1.291053e+01 3.791776e-02)) ((-2.393095e-04 1.240117e-04 1.377178e-03) (1.181291e-01 2.723035e-04 -1.553335e-01))
10.303295     	((5.785265e+01 -6.750678e+01 4.491853e+01) (3.259477e-02 -1.292033e+01 3.170185e-02)) ((-1.048635e-04 6.970328e-05 1.281579e-03) (1.168895e-01 1.683853e-04 -1.547199e-01))
10.462178     	((5.692218e+01 -6.666950e+01 4.407167e+01) (2.536128e-02 -1.292880e+01 2.551085e-02)) ((3.600378e-05 -1.758458e-05 1.193943e-03) (1.157371e-01 7.116368e-05 -1.538153e-01))
10.621105     	((5.676991e+01 -6.562360e+01 4.400987e+01) (2.014830e-02 -1.293628e+01 2.075745e-02)) ((1.737895e-04 -1.472905e-04 1.175320e-03) (1.145986e-01 2.578634e-05 -1.526364e-01))
10.780079     	((5.711081e+01 -6.448649e+01 4.426708e+01) (1.904433e-02 -1.294307e+01 1.940318e-02)) ((2.737149e-04 -2.914369e-04 1.193442e-03) (1.130754e-01 6.553900e-05 -1.507043e-01))
10.939093     	((5.747902e+01 -6.346366e+01 4.458880e+01) (2.194781e-02 -1.294991e+01 2.067681e-02)) ((3.240897e-04 -3.916707e-04 1.217667e-03) (1.110476e-01 1.462440e-04 -1.478319e-01))
11.09814      	((5.743350e+01 -6.272380e+01 4.469317e+01) (2.633425e-02 -1.295670e+01 2.297258e-02)) ((3.368717e-04 -4.309078e-04 1.227507e-03) (1.089281e-01 2.410155e-04 -1.445917e-01))
11.257209     	((5.668616e+01 -6.239340e+01 4.422884e+01) (3.046558e-02 -1.296271e+01 2.560948e-02)) ((3.074034e-04 -4.405882e-04 1.235455e-03) (1.070157e-01 3.221711e-04 -1.415975e-01))
11.41629      	((5.528241e+01 -6.244560e+01 4.322889e+01) (3.283027e-02 -1.296782e+01 2.713815e-02)) ((2.252156e-04 -4.081100e-04 1.220158e-03) (1.053386e-01 3.634177e-04 -1.391341e-01))
11.57538      	((5.346251e+01 -6.260142e+01 4.183317e+01) (3.215596e-02 -1.297269e+01 2.649945e-02)) ((1.094145e-04 -3.163048e-04 1.173171e-03) (1.038557e-01 3.320474e-04 -1.369750e-01))
11.734481     	((5.154254e+01 -6.265706e+01 4.048813e+01) (2.938719e-02 -1.297628e+01 2.462391e-02)) ((1.082942e-05 -2.178334e-04 1.094434e-03) (1.027250e-01 2.330264e-04 -1.350990e-01))
11.893597     	((4.999830e+01 -6.282746e+01 3.920601e+01) (2.573344e-02 -1.297809e+01 2.163430e-02)) ((-6.042025e-05 -1.570782e-04 1.004977e-03) (1.019583e-01 1.216939e-04 -1.337223e-01))
12.052737     	((4.887009e+01 -6.289776e+01 3.823814e+01) (2.025876e-02 -1.297952e+01 1.710645e-02)) ((-9.729156e-05 -1.126340e-04 8.990924e-04) (1.014657e-01 1.635637e-05 -1.327694e-01))
12.211907     	((4.852471e+01 -6.273538e+01 3.796636e+01) (1.401244e-02 -1.298031e+01 1.268520e-02)) ((-6.762254e-05 -1.210306e-04 8.100284e-04) (1.014302e-01 -1.573778e-04 -1.322515e-01))
12.37111      	((4.914412e+01 -6.243239e+01 3.829977e+01) (1.025052e-02 -1.297917e+01 9.311556e-03)) ((1.989074e-05 -2.195722e-04 7.488065e-04) (1.018592e-01 -4.133060e-04 -1.324299e-01))
12.530347     	((5.028585e+01 -6.207511e+01 3.903274e+01) (8.483928e-03 -1.297815e+01 6.885561e-03)) ((1.065978e-04 -3.263558e-04 7.094211e-04) (1.021524e-01 -6.805128e-04 -1.327172e-01))
12.689614     	((5.141677e+01 -6.155958e+01 3.997415e+01) (7.790612e-03 -1.297861e+01 6.963813e-03)) ((1.606538e-04 -3.992433e-04 7.303790e-04) (1.020974e-01 -9.014806e-04 -1.323218e-01))
12.848903     	((5.252754e+01 -6.116656e+01 4.094287e+01) (1.131992e-02 -1.297804e+01 9.589151e-03)) ((2.173607e-04 -4.880191e-04 7.536431e-04) (1.019787e-01 -1.070072e-03 -1.317542e-01))
13.008203     	((5.310348e+01 -6.147173e+01 4.141128e+01) (1.669613e-02 -1.297711e+01 1.209360e-02)) ((2.435546e-04 -5.526292e-04 7.858563e-04) (1.017582e-01 -1.144321e-03 -1.312589e-01))
13.167507     	((5.273995e+01 -6.227710e+01 4.131605e+01) (1.836811e-02 -1.297803e+01 1.398926e-02)) ((2.007838e-04 -5.352435e-04 8.726190e-04) (1.016526e-01 -1.142139e-03 -1.303921e-01))
13.326806     	((5.217398e+01 -6.315621e+01 4.103600e+01) (1.974249e-02 -1.297766e+01 1.557832e-02)) ((1.228898e-04 -4.879027e-04 9.583858e-04) (1.020669e-01 -1.064661e-03 -1.301460e-01))
13.486098     	((5.141965e+01 -6.371241e+01 4.043761e+01) (2.115842e-02 -1.297544e+01 1.471826e-02)) ((3.902277e-05 -4.429341e-04 9.688484e-04) (1.027506e-01 -8.916905e-04 -1.308948e-01))
13.645385     	((5.024375e+01 -6.410464e+01 3.978593e+01) (1.690110e-02 -1.297471e+01 1.189153e-02)) ((-2.659561e-05 -3.831204e-04 9.789959e-04) (1.036567e-01 -7.350127e-04 -1.313769e-01))
13.804671     	((4.925643e+01 -6.425915e+01 3.915745e+01) (1.161330e-02 -1.297282e+01 9.154809e-03)) ((-5.673695e-05 -3.275814e-04 9.776448e-04) (1.048399e-01 -6.596107e-04 -1.321346e-01))
13.963964     	((4.871125e+01 -6.413189e+01 3.854382e+01) (9.044329e-03 -1.296851e+01 5.334419e-03)) ((-3.764249e-05 -3.612124e-04 9.271073e-04) (1.057994e-01 -6.138255e-04 -1.336348e-01))
14.123272     	((4.832169e+01 -6.381002e+01 3.838283e+01) (3.512594e-03 -1.296549e+01 1.647124e-03)) ((1.360342e-05 -4.134806e-04 8.880054e-04) (1.063748e-01 -6.408823e-04 -1.344420e-01))
14.2826       	((4.849390e+01 -6.355100e+01 3.864095e+01) (-1.251371e-03 -1.296218e+01 5.668957e-04)) ((7.050875e-05 -4.276394e-04 8.686015e-04) (1.067324e-01 -7.336722e-04 -1.347690e-01))
