# Forces      
# CofR        : (0.000000e+00 0.000000e+00 0.000000e+00)
# Time        forces(pressure viscous)	moments(pressure viscous)
0             	((0.000000e+00 0.000000e+00 0.000000e+00) (0.000000e+00 0.000000e+00 0.000000e+00)) ((0.000000e+00 0.000000e+00 0.000000e+00) (0.000000e+00 0.000000e+00 0.000000e+00))
0.012         	((1.077442e-05 -5.159009e-05 -2.681824e-05) (2.636873e-09 2.909339e-08 -5.698579e-09)) ((6.022676e-04 -1.668379e-08 -2.124396e-06) (4.697299e-02 -3.414380e-09 1.900418e-08))
0.0264        	((3.305977e-05 1.979849e-04 -1.339436e-04) (7.238948e-09 4.401453e-08 -3.116407e-09)) ((2.795883e-04 -7.226686e-08 -1.557147e-06) (4.688761e-02 -2.389900e-08 -2.663597e-08))
0.04368       	((-2.136364e-05 -1.949145e-05 -5.065721e-05) (1.102402e-08 3.984622e-08 3.283643e-10)) ((1.650357e-04 2.379819e-08 -1.128430e-06) (4.676706e-02 -3.384648e-08 -9.512342e-08))
0.064416      	((8.758814e-05 1.584358e-04 -6.723735e-05) (1.808767e-08 4.510660e-08 -2.920105e-09)) ((9.972973e-05 3.990339e-09 -5.591396e-07) (4.662343e-02 -4.156888e-08 -1.173726e-07))
0.0892992     	((-7.974687e-06 -4.317397e-05 3.837307e-05) (3.088055e-08 4.575417e-08 8.500325e-09)) ((8.395294e-05 9.744541e-09 -3.302388e-07) (4.645243e-02 -5.202906e-08 -1.284116e-07))
0.119159      	((1.389803e-05 3.534562e-06 -2.642444e-05) (4.511719e-08 3.759321e-08 1.836716e-08)) ((7.212764e-05 -4.949287e-08 -1.695287e-07) (4.624911e-02 -3.408789e-08 -1.464779e-07))
0.154991      	((1.135858e-05 -2.530933e-05 2.278384e-05) (5.582209e-08 3.370378e-08 1.534891e-08)) ((6.731557e-05 -5.570012e-08 -1.942464e-07) (4.600778e-02 7.123345e-09 -1.626642e-07))
0.197989      	((-1.196641e-05 -2.025700e-05 -1.153447e-05) (6.536637e-08 3.102695e-08 6.700203e-09)) ((6.354587e-05 -5.360197e-08 -1.715516e-07) (4.572221e-02 4.455893e-08 -1.664021e-07))
0.249587      	((1.801060e-05 -1.840635e-05 -1.376810e-05) (7.701592e-08 2.707256e-08 -2.460676e-09)) ((6.079837e-05 -6.029190e-08 -1.510334e-07) (4.538548e-02 5.331363e-08 -1.675602e-07))
0.311504      	((4.664864e-06 -2.861249e-05 -9.358988e-06) (8.292496e-08 3.031138e-08 -1.093240e-08)) ((5.802841e-05 -9.094288e-08 -1.386967e-07) (4.499020e-02 3.488754e-08 -1.684460e-07))
0.385805      	((2.377669e-05 -2.475587e-05 6.994987e-07) (8.610330e-08 3.357159e-08 -1.540889e-08)) ((5.539715e-05 -8.947080e-08 -1.378827e-07) (4.452903e-02 5.050641e-09 -1.726117e-07))
0.474966      	((1.869095e-05 -2.065269e-05 6.862340e-06) (9.000332e-08 2.375006e-08 -7.246880e-09)) ((5.281739e-05 -8.418572e-08 -1.239761e-07) (4.399545e-02 -3.049846e-08 -1.771339e-07))
0.581959      	((1.540588e-05 3.372609e-06 -4.383478e-06) (8.618396e-08 2.698225e-09 1.271439e-08)) ((5.042961e-05 -7.447845e-08 -1.122615e-07) (4.338485e-02 -7.272693e-08 -1.932983e-07))
0.710351      	((8.005138e-06 -1.085766e-05 5.896738e-06) (7.781856e-08 -2.398605e-08 3.394517e-08)) ((4.813161e-05 -5.370241e-08 -1.065729e-07) (4.269581e-02 -1.107629e-07 -2.102875e-07))
0.864421      	((2.849413e-06 5.239185e-06 -5.895934e-06) (7.272775e-08 -5.700340e-08 5.778912e-08)) ((4.588102e-05 -3.180363e-08 -1.229693e-07) (4.193195e-02 -1.153444e-07 -2.167215e-07))
1.049306      	((6.556025e-06 1.690476e-06 9.447909e-06) (6.520753e-08 -8.621993e-08 6.475077e-08)) ((4.368485e-05 -1.443598e-08 -1.250208e-07) (4.110379e-02 -9.551146e-08 -2.100913e-07))
1.271167      	((1.166033e-05 1.502658e-05 -3.307729e-06) (4.410313e-08 -1.023394e-07 5.008125e-08)) ((4.145929e-05 -9.057101e-09 -1.447705e-07) (4.022886e-02 -6.547454e-08 -1.763026e-07))
1.5374        	((8.530521e-06 5.005088e-06 1.120620e-05) (1.682291e-08 -1.074918e-07 2.321142e-08)) ((3.920190e-05 -6.574091e-09 -1.408867e-07) (3.932894e-02 -3.643615e-08 -1.199602e-07))
1.85688       	((-9.112215e-07 6.265305e-06 -7.358065e-06) (-5.744439e-09 -1.106499e-07 2.716595e-09)) ((3.692919e-05 2.251073e-09 -1.332510e-07) (3.842450e-02 -4.270438e-08 -2.509598e-08))
2.240256      	((-2.329207e-06 6.345029e-06 -7.024222e-06) (-9.731140e-10 -1.146810e-07 -1.439228e-08)) ((3.481216e-05 1.267798e-08 -1.215062e-07) (3.752751e-02 -1.115204e-07 8.909173e-08))
2.700307      	((-3.152695e-06 3.726383e-06 -1.224760e-05) (3.991623e-08 -1.295039e-07 -4.206028e-08)) ((3.279175e-05 1.450810e-08 -1.161045e-07) (3.663122e-02 -1.953627e-07 1.758977e-07))
3.252369      	((-3.145977e-06 -6.028777e-08 -2.632250e-06) (1.079017e-07 -1.551193e-07 -4.536493e-08)) ((3.061992e-05 1.393609e-08 -1.045789e-07) (3.568711e-02 -2.254771e-07 2.405862e-07))
3.914842      	((-6.529844e-06 9.041338e-06 -4.187652e-06) (1.723972e-07 -1.910740e-07 -4.677288e-08)) ((2.852036e-05 2.340026e-08 -8.840358e-08) (3.465318e-02 -2.607883e-07 2.671651e-07))
4.709811      	((-7.698885e-06 6.505128e-06 -7.885714e-06) (1.837730e-07 -2.476268e-07 -7.650152e-08)) ((2.673335e-05 7.750936e-09 -9.178327e-08) (3.353432e-02 -3.138034e-07 2.373683e-07))
5.663773      	((-5.293351e-06 2.074819e-06 -1.157363e-05) (1.329814e-07 -2.858119e-07 -1.416641e-07)) ((2.560121e-05 -8.384882e-10 -9.131671e-08) (3.235907e-02 -4.015184e-07 1.791973e-07))
6.808528      	((-9.118025e-06 -1.732395e-06 -1.115616e-05) (3.773480e-08 -3.045151e-07 -1.963404e-07)) ((2.489577e-05 8.394443e-09 -8.247170e-08) (3.116170e-02 -5.458961e-07 7.096548e-08))
8.182233      	((-8.338326e-06 -1.373697e-06 -1.010369e-05) (-2.527387e-08 -2.712093e-07 -2.329989e-07)) ((2.393841e-05 -4.998233e-09 -8.432756e-08) (2.997593e-02 -7.538557e-07 -1.390865e-07))
9.83068       	((-1.229264e-05 1.262840e-06 -1.089445e-06) (-7.858319e-08 -2.379729e-07 -3.842598e-07)) ((2.269563e-05 -9.166134e-09 -7.876457e-08) (2.882724e-02 -9.396232e-07 -4.378016e-07))
11.808816     	((-1.573379e-05 7.837553e-06 2.093693e-05) (-2.327346e-07 -1.374066e-07 -6.150861e-07)) ((2.100087e-05 1.707716e-09 -5.134560e-08) (2.771814e-02 -8.539406e-07 -9.160483e-07))
14.171705     	((-2.830779e-05 3.396033e-05 3.397547e-05) (-4.353265e-07 -8.418466e-08 -5.969096e-07)) ((1.928114e-05 1.685861e-08 -6.810882e-08) (2.663835e-02 -3.031693e-07 -1.268045e-06))
16.921375     	((-2.665615e-05 6.153264e-05 3.251727e-05) (-3.695473e-07 8.221892e-07 -7.006480e-07)) ((1.766213e-05 2.452236e-08 -6.147352e-08) (2.560575e-02 4.148323e-07 -1.220138e-06))
20.060403     	((-3.937679e-05 1.012915e-04 5.748709e-05) (-1.177338e-06 1.261963e-06 -5.474456e-07)) ((1.605745e-05 3.120091e-08 -8.896894e-08) (2.465103e-02 8.302289e-07 -9.842371e-07))
23.592543     	((-2.509055e-05 1.182839e-04 7.380174e-05) (-1.617638e-06 2.948601e-06 8.667162e-07)) ((1.459384e-05 5.034106e-08 -9.569736e-08) (2.380961e-02 8.537837e-07 -5.880505e-07))
27.522931     	((-2.443025e-05 1.718241e-04 1.140073e-04) (-1.284704e-06 2.694640e-06 1.624888e-06)) ((1.329117e-05 5.535717e-08 -7.706472e-08) (2.309903e-02 6.028391e-07 -8.138549e-08))
31.53861      	((-2.176256e-05 1.453516e-04 1.094803e-04) (-6.658416e-07 1.094115e-06 1.515615e-06)) ((1.232176e-05 7.055360e-08 -8.254174e-08) (2.255131e-02 2.214998e-07 1.660206e-07))
35.595067     	((-6.559588e-06 1.310797e-04 9.541925e-05) (2.475046e-07 2.223273e-06 1.190742e-06)) ((1.151550e-05 6.037767e-08 -7.854067e-08) (2.213525e-02 2.251803e-08 2.123387e-07))
39.664497     	((3.918149e-07 1.621587e-04 1.050254e-04) (6.834221e-07 3.552773e-06 7.674604e-07)) ((1.101291e-05 6.185908e-08 -7.197043e-08) (2.182114e-02 1.293631e-07 -7.732376e-08))
43.740014     	((1.237553e-05 1.686460e-04 6.454630e-05) (1.382397e-06 4.052105e-06 2.421753e-06)) ((1.072207e-05 6.002179e-08 -7.322279e-08) (2.158100e-02 3.243118e-07 -3.148038e-07))
47.822431     	((1.031326e-05 1.623168e-04 9.658637e-05) (1.029454e-06 5.627384e-06 2.262895e-06)) ((1.063325e-05 5.734620e-08 -5.613796e-08) (2.140327e-02 4.917715e-07 -4.687025e-07))
51.912784     	((-1.493342e-05 2.017697e-04 9.538457e-05) (2.185697e-07 5.238345e-06 2.116132e-07)) ((1.063212e-05 7.964636e-08 -4.705929e-08) (2.127920e-02 3.055286e-07 -6.732712e-07))
56.01254      	((-9.785229e-06 1.968682e-04 1.453976e-04) (-8.121604e-08 4.892886e-06 1.519580e-07)) ((1.054904e-05 8.138232e-08 -6.176590e-08) (2.119885e-02 1.912658e-07 -5.323420e-07))
60.123329     	((-5.090850e-07 2.371338e-04 2.003337e-04) (-5.632807e-07 5.340437e-06 -3.913899e-07)) ((1.030156e-05 8.219273e-08 -6.188832e-08) (2.115903e-02 3.759631e-07 -2.615952e-07))
64.246752     	((2.365684e-06 1.917529e-04 1.792607e-04) (-1.249312e-06 5.629560e-06 -6.567456e-07)) ((1.002250e-05 8.031348e-08 -4.269929e-08) (2.116115e-02 5.012246e-07 -2.992379e-08))
68.383888     	((-3.970577e-06 1.746486e-04 1.830280e-04) (-1.290114e-06 5.061874e-06 -1.284864e-06)) ((9.847434e-06 7.116928e-08 -3.064817e-08) (2.120541e-02 5.916483e-07 1.597610e-07))
72.535068     	((-7.233113e-06 1.848856e-04 2.200108e-04) (-1.055760e-06 3.659887e-06 -2.374032e-06)) ((9.756073e-06 5.372881e-08 -1.591098e-08) (2.129010e-02 5.726989e-07 2.867057e-07))
76.701122     	((-3.816805e-05 2.244365e-04 2.646861e-04) (-1.267359e-06 4.371036e-06 -1.256496e-06)) ((9.749912e-06 6.300734e-08 5.283259e-09) (2.141509e-02 5.854091e-07 2.257437e-07))
80.88254      	((-6.951466e-05 1.872934e-04 2.700472e-04) (-1.699355e-06 1.033389e-06 6.914467e-07)) ((9.796047e-06 6.729531e-08 7.149826e-09) (2.157839e-02 8.947524e-07 1.921798e-07))
85.078097     	((-8.343785e-05 1.672241e-04 3.099377e-04) (-1.830727e-06 -5.082749e-06 -5.207511e-07)) ((9.876769e-06 5.671263e-08 3.079873e-09) (2.177218e-02 1.089023e-06 5.395209e-07))
89.284292     	((-7.514489e-05 1.449412e-04 3.247665e-04) (-1.837056e-06 -9.543866e-06 -1.279751e-06)) ((1.003090e-05 6.686016e-09 -2.565893e-10) (2.198300e-02 1.101517e-06 1.090927e-06))
93.496521     	((-8.522945e-05 1.510731e-04 3.178680e-04) (-1.710343e-06 -1.229616e-05 -3.523070e-06)) ((1.033552e-05 4.368606e-09 -8.343142e-09) (2.219728e-02 7.731563e-07 1.562390e-06))
97.710259     	((-7.478864e-05 1.268337e-04 2.515524e-04) (-2.004127e-06 -1.252013e-05 -5.750527e-06)) ((1.055608e-05 -4.032436e-08 -3.517816e-08) (2.240146e-02 1.261139e-07 1.858474e-06))
101.91818     	((-8.954027e-05 1.720806e-04 1.532084e-04) (-2.396599e-06 -1.197142e-05 -4.491816e-06)) ((1.080514e-05 -8.974403e-08 -4.124225e-08) (2.258178e-02 -7.484522e-07 1.601973e-06))
106.110505    	((-9.154642e-05 9.699497e-05 1.131209e-05) (-2.851317e-06 -1.095459e-05 -3.346067e-06)) ((1.103236e-05 -8.966561e-08 -3.648364e-08) (2.272999e-02 -1.553749e-06 8.758249e-07))
110.281627    	((-1.978152e-04 1.062860e-04 -3.764202e-05) (-2.929422e-06 -7.853724e-06 -4.963169e-06)) ((1.121471e-05 -7.972901e-08 -5.479137e-08) (2.284694e-02 -2.078403e-06 4.050151e-08))
114.427125    	((-2.694779e-04 1.190989e-04 -8.357938e-05) (-2.901075e-06 -5.480882e-06 -5.664751e-06)) ((1.136471e-05 -8.654497e-08 -6.508497e-08) (2.293503e-02 -2.030409e-06 -9.536521e-07))
118.548915    	((-2.583221e-04 1.613725e-04 -8.601102e-05) (-3.138201e-06 -3.483908e-06 -5.493070e-06)) ((1.145877e-05 -1.007165e-07 -6.023405e-08) (2.299648e-02 -1.398706e-06 -1.983914e-06))
