# Forces      
# CofR        : (0.000000e+00 0.000000e+00 0.000000e+00)
# Time        forces(pressure viscous)	moments(pressure viscous)
0             	((0.000000e+00 0.000000e+00 0.000000e+00) (0.000000e+00 0.000000e+00 0.000000e+00)) ((0.000000e+00 0.000000e+00 0.000000e+00) (0.000000e+00 0.000000e+00 0.000000e+00))
0.012         	((9.228811e-05 -9.957344e-06 -1.794636e-03) (2.160745e-08 -2.260255e-08 -6.937966e-07)) ((2.088332e-08 1.233452e-03 -5.200316e-08) (-6.655597e-09 1.347735e-01 -1.058408e-09))
0.0264        	((-5.626820e-04 -2.271938e-05 1.922370e-03) (-9.175921e-08 -4.781425e-08 -9.903451e-07)) ((1.715725e-08 6.059379e-04 -4.816684e-08) (-6.164320e-09 1.344265e-01 3.304341e-09))
0.04368       	((3.003771e-04 9.667837e-05 -3.974455e-04) (-3.055275e-07 -5.946334e-08 -1.097192e-06)) ((4.476335e-08 3.962221e-04 1.435140e-08) (3.193968e-09 1.338832e-01 1.453365e-08))
0.064416      	((-3.106036e-04 -5.127389e-06 3.791888e-04) (-5.290951e-07 -4.177654e-08 -1.131064e-06)) ((-7.105289e-09 2.785749e-04 -2.698829e-08) (1.595123e-08 1.332391e-01 2.067752e-08))
0.0892992     	((-7.193796e-05 -2.514181e-06 -9.245277e-05) (-7.735935e-07 -1.413759e-09 -1.128272e-06)) ((1.131439e-08 2.522311e-04 -1.214541e-08) (2.949813e-08 1.324757e-01 1.760592e-08))
0.119159      	((-7.242665e-05 5.101218e-06 5.501889e-05) (-9.985668e-07 4.030474e-08 -1.202145e-06)) ((1.869125e-08 2.298838e-04 -2.009538e-08) (4.202952e-08 1.315735e-01 1.178210e-08))
0.154991      	((1.106473e-04 -5.580193e-05 -3.550209e-06) (-1.184369e-06 5.052769e-08 -1.294341e-06)) ((1.178855e-08 2.199078e-04 -1.121977e-08) (5.275493e-08 1.305110e-01 1.339503e-08))
0.197989      	((5.256202e-05 -4.656917e-05 5.231589e-05) (-1.353809e-06 4.950108e-08 -1.338578e-06)) ((1.423222e-08 2.093862e-04 -1.538800e-09) (6.362957e-08 1.292662e-01 2.319243e-08))
0.249587      	((8.380441e-05 -2.399919e-05 1.172580e-04) (-1.466795e-06 9.042052e-08 -1.303043e-06)) ((-6.112277e-09 2.004768e-04 -1.765323e-11) (7.465243e-08 1.278188e-01 3.029141e-08))
0.311504      	((2.608584e-05 -4.640358e-05 1.053861e-04) (-1.584487e-06 1.551504e-07 -1.309451e-06)) ((-8.462576e-09 1.919904e-04 3.174289e-09) (8.628601e-08 1.261530e-01 3.562960e-08))
0.385805      	((6.473640e-05 7.400971e-06 1.350944e-04) (-1.710405e-06 1.898309e-07 -1.513834e-06)) ((-1.487532e-08 1.837304e-04 -5.237566e-09) (1.075345e-07 1.242613e-01 5.294327e-08))
0.474966      	((-4.193957e-05 -1.875411e-05 9.444158e-05) (-1.786902e-06 1.943291e-07 -2.018776e-06)) ((1.236307e-08 1.755575e-04 -1.739676e-08) (1.343554e-07 1.221502e-01 7.548773e-08))
0.581959      	((1.436685e-05 -5.084916e-06 8.579371e-05) (-1.883420e-06 1.927018e-07 -2.765982e-06)) ((1.964638e-08 1.672713e-04 -9.437463e-09) (1.566887e-07 1.198454e-01 8.667139e-08))
0.710351      	((-4.851497e-06 -1.776321e-05 3.984084e-05) (-2.022606e-06 1.460752e-07 -3.616288e-06)) ((2.198743e-08 1.587700e-04 -6.183112e-09) (1.686641e-07 1.173948e-01 9.277940e-08))
0.864421      	((1.601007e-05 8.062763e-07 9.060871e-05) (-2.117800e-06 6.793208e-08 -4.369948e-06)) ((1.800914e-08 1.498938e-04 1.832567e-09) (1.692962e-07 1.148629e-01 9.564445e-08))
1.049306      	((-1.753140e-05 -6.739673e-06 3.068535e-05) (-2.064637e-06 1.003801e-08 -4.990338e-06)) ((1.327989e-08 1.410583e-04 -5.922276e-10) (1.703194e-07 1.123155e-01 9.344938e-08))
1.271167      	((-1.013119e-05 -2.247936e-06 2.936902e-05) (-1.880475e-06 -2.279811e-08 -5.581900e-06)) ((9.095622e-09 1.332401e-04 -3.263621e-09) (1.784564e-07 1.097973e-01 8.553802e-08))
1.5374        	((-8.045771e-05 1.078007e-05 8.084762e-06) (-1.829316e-06 -3.544149e-08 -6.222878e-06)) ((1.167056e-08 1.260469e-04 -7.843265e-09) (1.908379e-07 1.073099e-01 5.883320e-08))
1.85688       	((-4.739109e-05 4.817104e-06 4.511056e-05) (-2.188428e-06 -5.404898e-08 -6.551580e-06)) ((4.014978e-09 1.184547e-04 -1.203129e-08) (2.019891e-07 1.047300e-01 2.949391e-08))
2.240256      	((4.544363e-05 5.814159e-06 4.998874e-06) (-2.622164e-06 -1.146284e-07 -6.440987e-06)) ((-2.219623e-09 1.107904e-04 -1.619358e-09) (1.977260e-07 1.019125e-01 2.466405e-08))
2.700307      	((-2.074370e-05 -1.591965e-06 5.222544e-05) (-3.317397e-06 -1.147224e-07 -6.151130e-06)) ((-5.541630e-09 1.040531e-04 6.872499e-09) (1.801066e-07 9.883989e-02 1.601097e-08))
3.252369      	((-3.984850e-05 -4.704881e-06 -1.189746e-05) (-3.612639e-06 -1.032849e-07 -6.687887e-06)) ((-1.014331e-08 9.946599e-05 1.181959e-08) (1.684607e-07 9.558667e-02 -1.896735e-08))
3.914842      	((-2.184252e-05 1.331729e-05 -2.618766e-05) (-4.367605e-06 -1.331939e-07 -6.501693e-06)) ((-5.312322e-09 9.681191e-05 1.654762e-08) (1.528767e-07 9.225333e-02 -6.187639e-08))
4.709811      	((9.885077e-06 2.362079e-05 -1.306812e-05) (-5.665107e-06 -1.663268e-07 -5.055404e-06)) ((7.840104e-09 9.386913e-05 4.075760e-09) (1.468312e-07 8.893724e-02 -1.011217e-07))
5.663773      	((2.931851e-06 2.257433e-05 4.922104e-05) (-7.094762e-06 -1.559802e-07 -4.610976e-06)) ((2.370937e-08 8.997854e-05 -4.037269e-09) (2.029514e-07 8.572535e-02 -1.413446e-07))
6.808528      	((7.398085e-05 -1.235411e-05 4.785787e-05) (-8.918777e-06 -2.446504e-07 -3.939464e-06)) ((6.608363e-09 8.472836e-05 4.242434e-09) (2.813198e-07 8.264413e-02 -1.890621e-07))
8.145868      	((1.538348e-04 -2.778573e-05 1.933628e-04) (-1.057864e-05 -3.961058e-07 -1.872421e-06)) ((1.743664e-08 7.919125e-05 -4.950334e-09) (2.912220e-07 7.971276e-02 -2.359266e-07))
9.676455      	((1.122919e-04 -3.174770e-05 2.805944e-04) (-9.604123e-06 -7.446827e-07 1.913973e-06)) ((-2.201850e-09 7.436425e-05 1.055861e-09) (1.789379e-07 7.692578e-02 -2.429077e-07))
11.401253     	((9.207862e-05 -5.265510e-05 3.428617e-04) (-2.578012e-06 -5.572010e-07 4.096502e-06)) ((-3.093046e-08 6.954332e-05 1.013828e-08) (8.914293e-08 7.432585e-02 -3.821078e-07))
13.321563     	((3.528999e-04 -6.500063e-06 4.723055e-04) (4.640382e-06 -9.890535e-07 3.774157e-06)) ((-5.783249e-08 6.471032e-05 2.834612e-08) (3.862270e-08 7.198716e-02 -5.529888e-07))
15.296227     	((3.569328e-04 5.286202e-05 4.501023e-04) (6.252296e-06 -1.613463e-06 2.525239e-06)) ((-7.566373e-08 6.051682e-05 4.810600e-08) (-7.918978e-08 7.007585e-02 -5.920020e-07))
17.290209     	((3.513016e-04 2.424912e-05 4.797194e-04) (9.123282e-06 -1.613099e-06 2.014287e-06)) ((-7.908508e-08 5.703229e-05 5.853345e-08) (-2.478562e-07 6.854152e-02 -6.836069e-07))
19.298329     	((4.066935e-04 2.228142e-05 4.915971e-04) (9.835340e-06 -1.832213e-06 4.208287e-07)) ((-1.099608e-07 5.424592e-05 5.985813e-08) (-5.471055e-07 6.731965e-02 -5.344673e-07))
21.322635     	((5.034762e-04 6.048910e-05 6.580736e-04) (1.287896e-05 -2.561183e-06 3.675845e-06)) ((-8.260615e-08 5.176938e-05 4.680918e-08) (-9.320022e-07 6.636339e-02 -3.265887e-07))
23.3605       	((6.471261e-04 6.088743e-05 7.363792e-04) (1.864537e-05 -1.639874e-06 6.398316e-06)) ((-9.018376e-08 4.988894e-05 8.527126e-08) (-1.240448e-06 6.562932e-02 -2.141282e-07))
25.400543     	((6.113598e-04 1.255064e-04 7.294570e-04) (1.868097e-05 -5.299171e-07 4.088933e-06)) ((-5.059859e-08 4.900450e-05 1.391533e-08) (-1.588006e-06 6.506048e-02 -1.182898e-07))
27.44288      	((4.411657e-04 9.093932e-05 6.590146e-04) (1.569813e-05 7.043413e-07 8.071781e-07)) ((-7.025982e-08 4.859836e-05 -4.907525e-08) (-1.863426e-06 6.463228e-02 1.545251e-08))
29.487876     	((3.586068e-04 5.812251e-05 6.718032e-04) (3.519708e-06 1.090612e-06 5.352070e-06)) ((-5.486605e-08 4.824780e-05 -2.144158e-09) (-2.210180e-06 6.434168e-02 1.735108e-07))
31.536238     	((3.118039e-04 2.365645e-05 7.777772e-04) (-9.169840e-06 1.884249e-06 1.061730e-05)) ((-3.727315e-08 4.798871e-05 -6.906374e-08) (-2.547234e-06 6.415700e-02 7.347941e-07))
33.588624     	((4.703270e-04 8.493984e-05 8.852579e-04) (-5.599256e-06 2.341803e-06 1.781046e-05)) ((-4.935511e-08 4.744930e-05 -1.117280e-07) (-2.553516e-06 6.406328e-02 1.060464e-06))
35.645372     	((6.995344e-04 1.243280e-04 9.972855e-04) (4.870689e-06 2.294421e-06 2.382457e-05)) ((-1.831810e-08 4.670383e-05 -6.373742e-08) (-2.490948e-06 6.407299e-02 1.285392e-06))
37.706486     	((7.912374e-04 1.460827e-04 8.249022e-04) (-9.842640e-07 5.929638e-07 1.946234e-05)) ((1.370759e-08 4.608923e-05 -1.631085e-08) (-2.028988e-06 6.418849e-02 1.694263e-06))
39.772363     	((5.794607e-04 7.663044e-05 9.198847e-04) (-1.092382e-05 -9.434918e-07 2.113388e-05)) ((4.878160e-08 4.571420e-05 3.730219e-08) (-1.494411e-06 6.440318e-02 1.935448e-06))
41.843566     	((6.884825e-04 5.424762e-05 8.764552e-04) (-9.408977e-06 3.293730e-07 2.058649e-05)) ((9.152202e-08 4.568827e-05 -2.919411e-08) (-1.368537e-06 6.471376e-02 2.261839e-06))
43.920401     	((7.845480e-04 -2.287280e-05 7.405123e-04) (-9.881530e-06 8.909247e-07 9.190116e-06)) ((5.006051e-08 4.597649e-05 -8.687997e-08) (-1.296578e-06 6.511639e-02 3.057124e-06))
46.00264      	((9.168542e-04 -1.645087e-04 7.284493e-04) (-1.080546e-05 1.383179e-06 -4.714988e-07)) ((9.141017e-10 4.631810e-05 -6.488945e-08) (-9.825751e-07 6.559852e-02 3.538902e-06))
48.089041     	((1.123112e-03 -2.463009e-04 6.383963e-04) (-8.291109e-06 3.233668e-06 -1.118004e-05)) ((-5.329614e-08 4.673078e-05 -4.931417e-08) (-3.130662e-07 6.613894e-02 3.640884e-06))
50.178763     	((1.149497e-03 -2.689270e-04 4.011813e-04) (-1.134809e-05 5.049442e-06 -2.561962e-05)) ((-1.164423e-07 4.735974e-05 2.770423e-09) (5.988922e-07 6.670779e-02 3.382370e-06))
52.271071     	((1.053177e-03 -2.544551e-04 4.780279e-04) (-1.564787e-05 5.151973e-06 -3.103415e-05)) ((-1.000048e-07 4.806733e-05 1.397064e-08) (1.314151e-06 6.726829e-02 2.420702e-06))
54.365013     	((1.017435e-03 -2.000008e-04 4.930008e-04) (-1.820162e-05 4.254280e-06 -3.429549e-05)) ((-6.244480e-08 4.897896e-05 3.627897e-08) (1.730442e-06 6.779056e-02 9.213701e-07))
56.458406     	((7.458056e-04 -2.043846e-04 3.196911e-04) (-1.981256e-05 2.889644e-06 -3.438624e-05)) ((-6.283870e-08 4.975187e-05 5.748211e-08) (1.551033e-06 6.824981e-02 -6.955320e-07))
58.548196     	((3.176302e-04 -2.321659e-04 2.459953e-04) (-2.410537e-05 5.535851e-07 -3.260743e-05)) ((-9.145101e-08 5.030552e-05 8.890296e-08) (5.238969e-07 6.863094e-02 -2.367115e-06))
60.630105     	((-1.623574e-05 -4.284218e-04 2.574930e-04) (-2.775785e-05 -5.005951e-07 -2.431689e-05)) ((-7.082648e-08 5.085577e-05 9.566765e-08) (-9.127436e-07 6.894110e-02 -3.409142e-06))
