# Forces      
# CofR        : (0.000000e+00 0.000000e+00 0.000000e+00)
# Time        forces(pressure viscous)	moments(pressure viscous)
0             	((0.000000e+00 0.000000e+00 0.000000e+00) (0.000000e+00 0.000000e+00 0.000000e+00)) ((0.000000e+00 0.000000e+00 0.000000e+00) (0.000000e+00 0.000000e+00 0.000000e+00))
0.012         	((4.911003e-05 -1.475898e-04 -9.197820e-05) (3.173757e-08 1.065964e-07 -2.168729e-08)) ((2.023518e-03 -1.057692e-07 -7.124745e-06) (2.839428e-01 -3.232975e-08 1.545162e-07))
0.0264        	((1.637259e-04 7.810894e-04 -4.391964e-04) (9.031340e-08 1.378244e-07 9.444700e-09)) ((1.040919e-03 -5.674976e-07 -5.112184e-06) (2.829918e-01 -1.772856e-07 -1.819023e-07))
0.04368       	((-1.340217e-06 -1.520546e-05 2.385764e-05) (6.843381e-08 9.100631e-08 2.187262e-08)) ((7.459073e-04 -1.964227e-07 -3.487236e-06) (2.814167e-01 -4.796806e-07 -6.051925e-07))
0.064416      	((1.600094e-04 4.644162e-04 -3.408238e-04) (1.345568e-07 1.494669e-07 -5.599231e-08)) ((5.811494e-04 -7.573608e-07 -2.076121e-06) (2.795571e-01 -7.622971e-07 -7.765786e-07))
0.0892992     	((-1.476313e-05 8.762031e-05 2.152031e-04) (3.073191e-07 1.500131e-07 -4.508348e-08)) ((5.489940e-04 -5.426966e-07 -1.737670e-06) (2.773645e-01 -8.642608e-07 -1.022514e-06))
0.119159      	((6.630080e-05 7.478183e-05 -1.341997e-04) (4.484114e-07 3.234790e-08 -3.176960e-08)) ((5.102650e-04 -6.524166e-07 -1.378273e-06) (2.747908e-01 -8.653344e-07 -1.133802e-06))
0.154991      	((7.889156e-05 2.973751e-05 4.526688e-05) (6.072470e-07 -8.875831e-08 -6.859461e-08)) ((4.891440e-04 -6.772636e-07 -1.218382e-06) (2.717898e-01 -9.492129e-07 -1.202202e-06))
0.197989      	((5.773865e-05 8.191072e-05 -1.231234e-04) (7.474730e-07 -2.818280e-07 -5.635745e-08)) ((4.666263e-04 -6.309326e-07 -9.918472e-07) (2.683247e-01 -1.076109e-06 -1.371758e-06))
0.249587      	((5.367134e-05 8.675618e-05 3.989462e-05) (8.189744e-07 -6.115318e-07 -7.635113e-09)) ((4.477906e-04 -1.625308e-07 -1.065658e-06) (2.643758e-01 -1.095110e-06 -1.593120e-06))
0.311504      	((1.208177e-04 7.713020e-05 5.471517e-07) (8.923282e-07 -9.436790e-07 6.749224e-08)) ((4.281936e-04 3.040921e-08 -1.102451e-06) (2.599536e-01 -9.444485e-07 -1.830770e-06))
0.385805      	((8.427291e-05 4.044528e-05 1.653895e-05) (9.417987e-07 -1.127252e-06 7.061092e-08)) ((4.084775e-04 2.027462e-08 -1.271272e-06) (2.551107e-01 -6.677896e-07 -1.893781e-06))
0.474966      	((9.856785e-05 3.013120e-05 -1.263240e-05) (9.093515e-07 -1.176215e-06 -4.355759e-09)) ((3.878221e-04 -1.069559e-08 -1.320169e-06) (2.499486e-01 -2.457760e-07 -1.595003e-06))
0.581959      	((7.670473e-06 5.422409e-05 3.729809e-07) (7.675489e-07 -1.294885e-06 -5.349139e-09)) ((3.660488e-04 3.797564e-09 -1.234020e-06) (2.446114e-01 1.873622e-07 -8.968080e-07))
0.710351      	((3.295163e-05 8.267933e-05 -4.861475e-05) (6.759161e-07 -1.489270e-06 5.753373e-08)) ((3.451563e-04 -3.661130e-08 -1.150090e-06) (2.392523e-01 2.573885e-07 4.055853e-08))
0.864421      	((7.588916e-07 7.989977e-05 -2.421553e-05) (7.518095e-07 -1.606821e-06 1.051559e-07)) ((3.262395e-04 3.113659e-08 -1.138746e-06) (2.339791e-01 -1.963360e-07 1.117114e-06))
1.049306      	((-2.742525e-07 3.345203e-05 -5.539801e-05) (8.485747e-07 -1.781632e-06 1.183038e-07)) ((3.089292e-04 -2.406474e-08 -1.023007e-06) (2.288064e-01 -8.554943e-07 2.326461e-06))
1.271167      	((-1.889729e-06 2.445915e-05 -5.852360e-05) (9.328781e-07 -2.119160e-06 -1.765832e-07)) ((2.913519e-04 -7.532875e-09 -9.840642e-07) (2.234910e-01 -1.323207e-06 3.203041e-06))
1.5374        	((-4.489461e-05 2.683031e-06 -3.092988e-05) (1.072427e-06 -2.522250e-06 -5.611441e-07)) ((2.733424e-04 1.318051e-07 -8.803424e-07) (2.177034e-01 -1.632223e-06 3.224266e-06))
1.85688       	((-4.544116e-05 4.266740e-05 -3.751026e-05) (1.249984e-06 -2.912863e-06 -8.987051e-07)) ((2.572635e-04 1.927898e-07 -7.880058e-07) (2.113737e-01 -2.272529e-06 2.604103e-06))
2.240256      	((-5.134796e-05 3.553184e-05 -2.483817e-05) (1.284550e-06 -2.855563e-06 -1.440542e-06)) ((2.457370e-04 6.700268e-08 -8.881336e-07) (2.046599e-01 -3.570358e-06 1.977007e-06))
2.700307      	((-5.423460e-05 -3.317833e-06 -5.571115e-05) (1.026050e-06 -3.120704e-06 -1.756200e-06)) ((2.388677e-04 -6.475676e-10 -8.224677e-07) (1.977778e-01 -4.977204e-06 1.706546e-06))
3.252369      	((-6.500247e-05 -2.146638e-05 -1.673412e-05) (6.061172e-07 -3.225458e-06 -2.083808e-06)) ((2.326225e-04 -4.535363e-09 -8.054322e-07) (1.909300e-01 -5.840923e-06 9.271365e-07))
3.914842      	((-5.086513e-05 1.430037e-05 -4.585542e-05) (1.187382e-07 -2.977233e-06 -2.852959e-06)) ((2.241485e-04 -2.530068e-08 -7.768547e-07) (1.843022e-01 -7.153232e-06 -1.066195e-06))
4.698328      	((-7.117037e-05 5.037023e-05 6.672875e-05) (-5.404128e-07 -2.925713e-06 -4.217188e-06)) ((2.133381e-04 -1.347391e-07 -5.819889e-07) (1.780382e-01 -8.101417e-06 -4.033954e-06))
5.603012      	((-1.457892e-04 2.138615e-04 2.880506e-04) (-9.452666e-07 -1.348645e-06 -4.126269e-06)) ((2.012804e-04 -5.146084e-08 -3.871312e-07) (1.721273e-01 -5.739640e-06 -7.432599e-06))
6.629258      	((-1.911055e-04 4.144981e-04 4.407472e-04) (-1.553936e-06 2.754351e-07 -2.730477e-06)) ((1.907751e-04 -6.599926e-09 -5.137889e-07) (1.665173e-01 -5.733861e-07 -9.638014e-06))
7.777609      	((-2.016893e-04 5.746600e-04 3.768411e-04) (-2.926841e-06 9.251038e-07 -3.542724e-06)) ((1.809354e-04 2.073524e-07 -6.514016e-07) (1.612587e-01 4.039741e-06 -9.584330e-06))
9.006119      	((-2.991189e-04 6.694395e-04 4.338637e-04) (-8.092850e-06 5.262729e-06 -2.132330e-06)) ((1.717155e-04 3.285172e-07 -6.784965e-07) (1.566082e-01 6.855088e-06 -8.261466e-06))
10.244754     	((-1.755875e-04 8.261555e-04 7.139962e-04) (-1.201702e-05 1.094898e-05 1.470187e-06)) ((1.630561e-04 5.250329e-07 -6.188634e-07) (1.527557e-01 8.849508e-06 -6.027645e-06))
11.495941     	((-1.400498e-04 1.345693e-03 7.603402e-04) (-1.146359e-05 1.116865e-05 -2.389124e-06)) ((1.553435e-04 6.513810e-07 -5.479094e-07) (1.495712e-01 8.968040e-06 -1.801303e-06))
12.756668     	((-2.538492e-04 1.518112e-03 8.838482e-04) (-1.040566e-05 1.694178e-05 8.023216e-06)) ((1.487760e-04 6.589957e-07 -7.221013e-07) (1.469868e-01 6.049265e-06 2.393018e-06))
14.025585     	((-1.794366e-04 1.323381e-03 1.135382e-03) (-7.712412e-06 1.215965e-05 1.693239e-05)) ((1.424465e-04 4.255810e-07 -5.753550e-07) (1.449230e-01 2.949335e-06 4.933097e-06))
15.304476     	((-1.452737e-04 1.196333e-03 6.470571e-04) (-4.550267e-06 6.319264e-06 5.044520e-06)) ((1.371289e-04 4.259120e-07 -5.253604e-07) (1.432950e-01 -2.618982e-07 5.196297e-06))
16.590012     	((-1.140040e-04 1.236546e-03 5.548187e-04) (-4.885769e-06 1.203133e-05 -3.097914e-06)) ((1.337745e-04 5.825431e-07 -5.949611e-07) (1.420257e-01 -3.048050e-06 3.003701e-06))
17.876929     	((-1.910360e-04 1.402676e-03 2.958775e-04) (-3.961779e-06 1.820481e-05 -4.545667e-06)) ((1.318925e-04 3.484514e-07 -5.615268e-07) (1.410453e-01 -3.661677e-06 1.980620e-07))
19.165041     	((-1.972122e-04 1.457065e-03 1.138831e-04) (1.238877e-06 2.569128e-05 -1.378871e-05)) ((1.304443e-04 2.816331e-07 -3.448990e-07) (1.403299e-01 -3.736672e-06 -4.333866e-06))
20.454653     	((-5.761854e-05 1.785363e-03 3.141991e-04) (6.841404e-06 4.303401e-05 -1.277817e-05)) ((1.290187e-04 5.509450e-07 -3.506215e-07) (1.398581e-01 -2.815806e-06 -8.907462e-06))
21.746175     	((4.918749e-06 2.130666e-03 8.810250e-04) (8.206194e-06 5.392673e-05 -2.018071e-06)) ((1.281140e-04 6.161577e-07 -3.328223e-07) (1.395790e-01 6.534285e-07 -9.282721e-06))
23.039886     	((9.293173e-05 2.316973e-03 1.386273e-03) (6.487653e-06 5.256767e-05 1.364053e-05)) ((1.268830e-04 8.173825e-07 -2.498550e-07) (1.394775e-01 4.060287e-06 -7.677754e-06))
24.335733     	((3.379984e-05 2.048770e-03 1.346399e-03) (3.923857e-06 3.568189e-05 5.645553e-06)) ((1.255261e-04 8.570206e-07 -2.405059e-07) (1.395686e-01 6.578338e-06 -6.055230e-06))
25.633856     	((1.279827e-04 1.110145e-03 1.409374e-03) (4.032420e-06 1.867375e-05 -1.199265e-05)) ((1.244418e-04 9.943833e-07 -2.924759e-07) (1.398569e-01 8.775818e-06 -2.819247e-06))
26.934556     	((5.800303e-05 1.154393e-03 1.492056e-03) (5.433809e-06 1.543151e-05 -1.407833e-05)) ((1.237329e-04 8.217601e-07 -1.633309e-07) (1.403414e-01 9.900239e-06 1.446935e-06))
28.238084     	((-8.888303e-05 7.616291e-04 1.962447e-03) (5.648125e-06 6.966292e-06 -2.312027e-05)) ((1.236430e-04 4.715055e-07 -1.680460e-07) (1.410083e-01 1.122766e-05 5.635457e-06))
29.544564     	((-3.100865e-04 1.360859e-03 1.991995e-03) (2.980533e-06 8.025464e-06 -2.099924e-05)) ((1.242364e-04 3.626884e-07 -1.538074e-07) (1.418441e-01 1.138323e-05 8.173575e-06))
30.853864     	((-5.519353e-04 1.590896e-03 2.546619e-03) (2.175633e-06 -8.226669e-06 -1.439778e-05)) ((1.247122e-04 2.528396e-07 -1.071753e-07) (1.428351e-01 9.173431e-06 9.284247e-06))
32.165558     	((-8.589885e-04 1.482243e-03 2.739876e-03) (2.636209e-06 -3.562405e-05 -2.497115e-05)) ((1.256997e-04 1.752282e-07 -1.235480e-07) (1.439401e-01 5.857937e-06 9.460866e-06))
33.479162     	((-9.968573e-04 1.240496e-03 3.135300e-03) (2.940203e-06 -4.668450e-05 -3.323217e-05)) ((1.276820e-04 5.113618e-08 -3.335042e-07) (1.450974e-01 2.529949e-06 7.655871e-06))
34.79432      	((-9.329774e-04 1.443625e-03 2.717976e-03) (4.540993e-06 -5.593679e-05 -4.104537e-05)) ((1.294276e-04 -1.793322e-07 -4.869195e-07) (1.462329e-01 7.679681e-08 4.068159e-06))
36.110601     	((-1.055990e-03 1.678512e-03 2.515926e-03) (5.586715e-06 -6.076266e-05 -5.847012e-05)) ((1.312643e-04 -3.709356e-07 -5.288729e-07) (1.472882e-01 -1.354403e-06 8.502358e-07))
37.427117     	((-1.020084e-03 8.053263e-04 1.746457e-03) (4.526700e-06 -5.860885e-05 -6.397272e-05)) ((1.328727e-04 -4.254847e-07 -5.027093e-07) (1.482202e-01 -2.086080e-06 -2.009116e-06))
