# Forces      
# CofR        : (0.000000e+00 0.000000e+00 0.000000e+00)
# Time        forces(pressure viscous)	moments(pressure viscous)
0             	((0.000000e+00 0.000000e+00 0.000000e+00) (0.000000e+00 0.000000e+00 0.000000e+00)) ((0.000000e+00 0.000000e+00 0.000000e+00) (0.000000e+00 0.000000e+00 0.000000e+00))
0.012         	((-3.158431e-06 -7.779805e-05 1.494124e-07) (-3.931788e-10 -6.496290e-09 -1.271797e-10)) ((1.580953e-07 1.550338e-09 -4.532351e-05) (-1.483531e-09 5.917641e-11 -2.412853e-03))
0.0264        	((-1.326373e-05 6.301116e-05 7.267280e-08) (-5.886624e-10 -8.907173e-09 -5.694201e-11)) ((6.953814e-08 2.869441e-09 -1.998139e-05) (-1.603826e-09 8.934498e-11 -2.410553e-03))
0.04368       	((-3.732044e-06 -4.557246e-05 1.760153e-06) (1.246387e-10 -9.676370e-09 2.598706e-10)) ((7.640612e-08 9.036526e-10 -1.049762e-05) (-2.335601e-09 -3.015031e-11 -2.407756e-03))
0.064416      	((-1.661131e-05 1.929184e-05 1.365660e-06) (1.250159e-09 -1.033549e-08 1.579034e-10)) ((3.808279e-08 4.031619e-09 -4.834802e-06) (-3.948873e-09 -1.529475e-10 -2.404413e-03))
0.0892992     	((3.199939e-06 -1.231680e-05 -6.555501e-07) (2.689587e-09 -1.148720e-08 1.669379e-10)) ((3.546536e-08 1.299013e-09 -3.248595e-06) (-5.588534e-09 -2.355592e-10 -2.400409e-03))
0.119159      	((-6.449191e-06 -4.021232e-06 1.048553e-06) (4.768761e-09 -1.223383e-08 8.742468e-10)) ((1.889027e-08 -7.576543e-10 -2.260384e-06) (-6.624702e-09 -1.164054e-10 -2.395624e-03))
0.154991      	((7.548023e-07 -1.665332e-06 1.228289e-07) (6.862494e-09 -1.194330e-08 1.651546e-09)) ((8.245231e-09 -4.656157e-10 -1.913290e-06) (-6.268089e-09 -2.505607e-10 -2.389904e-03))
0.197989      	((-2.025799e-06 -2.924109e-06 1.288697e-06) (8.691926e-09 -1.166122e-08 2.162977e-09)) ((7.905428e-09 5.104848e-10 -1.667957e-06) (-4.817146e-09 -7.775664e-10 -2.383072e-03))
0.249587      	((-9.388383e-07 -6.928990e-07 9.270600e-07) (9.891733e-09 -1.169541e-08 2.327355e-09)) ((9.454859e-09 1.658825e-09 -1.502100e-06) (-3.062918e-09 -1.288953e-09 -2.374915e-03))
0.311504      	((6.146401e-07 -7.962431e-07 1.486019e-06) (1.043011e-08 -1.157226e-08 2.062635e-09)) ((9.195577e-09 3.132846e-09 -1.352567e-06) (-1.149631e-09 -1.594081e-09 -2.365187e-03))
0.385805      	((8.573759e-07 -4.033785e-07 1.192311e-06) (1.066949e-08 -1.101936e-08 1.578478e-09)) ((8.847051e-09 1.947222e-09 -1.205733e-06) (4.486705e-10 -1.535222e-09 -2.353604e-03))
0.474966      	((-4.711248e-07 -6.913271e-07 3.812895e-07) (1.032092e-08 -1.024116e-08 1.184459e-09)) ((8.116637e-09 1.794921e-10 -1.055533e-06) (1.391079e-09 -1.320205e-09 -2.339835e-03))
0.581959      	((-4.853128e-07 -4.866344e-07 3.365124e-07) (9.708523e-09 -9.058037e-09 8.137495e-10)) ((7.005577e-09 -1.365548e-09 -9.013756e-07) (1.991772e-09 -1.029452e-09 -2.323500e-03))
0.710351      	((-1.138920e-06 -4.080855e-07 -7.161014e-10) (9.499222e-09 -7.383318e-09 2.881952e-10)) ((6.929172e-09 1.396201e-10 -7.604776e-07) (2.280307e-09 -5.783893e-10 -2.304173e-03))
0.864421      	((-1.806568e-06 -4.027520e-07 -3.220114e-07) (9.869123e-09 -5.720140e-09 -3.275575e-10)) ((6.244537e-09 -2.445028e-10 -6.546020e-07) (2.181927e-09 -1.862799e-10 -2.281381e-03))
1.049306      	((-1.019652e-06 -3.758353e-07 -2.163557e-07) (1.039620e-08 -4.266331e-09 -8.682559e-10)) ((6.210122e-09 6.948561e-10 -5.818924e-07) (1.986460e-09 7.119625e-11 -2.254618e-03))
1.271167      	((-3.559754e-07 -5.776056e-08 2.122081e-08) (1.079356e-08 -3.125368e-09 -1.332497e-09)) ((6.087819e-09 5.261422e-10 -5.335617e-07) (2.129244e-09 4.925765e-10 -2.223353e-03))
1.5374        	((-6.859258e-07 -1.250690e-07 -1.087335e-07) (1.108721e-08 -2.639684e-09 -1.783490e-09)) ((5.741760e-09 3.270082e-10 -5.004796e-07) (2.730621e-09 7.967558e-10 -2.187068e-03))
1.85688       	((-5.567897e-07 1.519791e-07 1.307574e-07) (1.101519e-08 -2.410652e-09 -1.984952e-09)) ((5.394397e-09 -1.033594e-10 -4.746955e-07) (3.658694e-09 6.110998e-10 -2.145295e-03))
2.240256      	((-6.515068e-07 -1.057182e-07 -3.582770e-09) (1.029591e-08 -2.267675e-09 -1.820925e-09)) ((5.054057e-09 -2.874393e-10 -4.538168e-07) (4.664538e-09 2.450293e-11 -2.097689e-03))
2.700307      	((-5.191144e-07 3.076713e-08 7.763810e-08) (8.758203e-09 -1.976364e-09 -1.631432e-09)) ((4.918930e-09 -2.349310e-10 -4.348128e-07) (6.123117e-09 -8.639653e-10 -2.044119e-03))
3.252369      	((-4.109840e-07 2.357249e-08 -1.208237e-07) (6.548192e-09 -1.654298e-09 -1.911860e-09)) ((4.608129e-09 -3.133418e-10 -4.154236e-07) (7.928019e-09 -1.877638e-09 -1.984775e-03))
3.914842      	((-2.044122e-07 8.119286e-08 5.505085e-08) (4.149391e-09 -1.314189e-09 -2.728735e-09)) ((4.036485e-09 -4.552513e-10 -3.952659e-07) (7.858043e-09 -2.449061e-09 -1.920264e-03))
4.709811      	((-1.223078e-07 4.819784e-08 -8.545030e-08) (2.850319e-09 -1.263779e-09 -3.506360e-09)) ((3.368214e-09 -1.978874e-10 -3.740030e-07) (4.536890e-09 -2.170204e-09 -1.851648e-03))
5.663773      	((-1.111915e-07 1.935051e-07 5.107269e-08) (3.846193e-09 -2.241529e-09 -4.203930e-09)) ((2.802235e-09 -6.413112e-11 -3.534596e-07) (2.979098e-10 -7.749562e-10 -1.780370e-03))
6.808528      	((-1.230221e-08 4.160616e-08 -4.560971e-08) (4.091189e-09 -4.624421e-09 -4.859670e-09)) ((2.526338e-09 1.133791e-10 -3.340466e-07) (-2.493267e-09 4.665105e-10 -1.708007e-03))
8.182233      	((1.501051e-07 -5.896755e-08 3.746931e-08) (3.416488e-09 -4.044581e-09 -5.947688e-09)) ((2.296295e-09 3.229703e-10 -3.152990e-07) (-2.806426e-09 2.463154e-09 -1.635914e-03))
9.83068       	((2.533517e-07 -1.187128e-07 2.247458e-08) (2.422491e-09 -1.181900e-09 -8.068571e-09)) ((2.073439e-09 4.827611e-11 -2.947586e-07) (-8.214653e-10 6.688188e-09 -1.564786e-03))
11.808816     	((1.141633e-07 2.707625e-08 -2.563768e-09) (-3.306519e-10 8.460993e-10 -1.054280e-08)) ((1.615469e-09 2.710278e-11 -2.688289e-07) (-1.122116e-09 1.152102e-08 -1.493399e-03))
14.182579     	((-5.950761e-08 3.652811e-08 -5.204164e-08) (2.743952e-09 3.140991e-09 -9.609851e-09)) ((1.306110e-09 -1.077157e-11 -2.403054e-07) (-2.832023e-09 1.765231e-08 -1.419175e-03))
17.031095     	((-2.237783e-07 4.864242e-08 -5.480920e-09) (-1.890048e-11 3.683827e-09 -6.603098e-09)) ((1.382981e-09 3.192032e-11 -2.118004e-07) (-5.072060e-09 2.079081e-08 -1.341092e-03))
20.449314     	((-2.401097e-07 3.990631e-08 5.553720e-08) (-1.719043e-08 5.273232e-09 -5.233271e-09)) ((1.062298e-09 1.555791e-10 -1.870419e-07) (-5.910242e-09 1.739007e-08 -1.260198e-03))
24.551176     	((-3.718382e-07 7.729503e-08 4.291495e-08) (-2.665540e-08 9.957782e-09 -6.610986e-09)) ((8.875776e-10 2.439473e-11 -1.743850e-07) (-8.239585e-09 1.520025e-08 -1.178424e-03))
29.473411     	((-6.551203e-07 4.349488e-08 4.748696e-09) (-2.118351e-08 1.643830e-08 -9.599465e-09)) ((1.092289e-09 1.059190e-10 -1.652656e-07) (-1.490062e-08 1.562483e-08 -1.097856e-03))
35.380094     	((-8.016286e-07 1.399871e-07 -4.533534e-08) (-2.464827e-08 2.987183e-08 -1.000696e-08)) ((1.049101e-09 -1.100253e-10 -1.542632e-07) (-1.811380e-08 1.451673e-08 -1.020107e-03))
42.468112     	((-5.894814e-07 4.618106e-07 -2.073380e-07) (-2.328857e-08 4.154159e-08 -9.376965e-09)) ((9.410500e-10 7.189476e-11 -1.422489e-07) (-1.649134e-08 1.051990e-08 -9.459029e-04))
50.973735     	((-1.198289e-07 6.845161e-07 -1.073750e-07) (-5.178298e-08 6.478292e-08 5.812771e-09)) ((8.659206e-10 2.000406e-10 -1.261871e-07) (-1.547257e-08 3.026461e-09 -8.750830e-04))
61.180482     	((1.612449e-07 1.544603e-06 -8.029271e-08) (-6.877394e-08 9.741172e-08 1.747635e-08)) ((9.799649e-10 1.453447e-10 -1.063584e-07) (-1.709527e-08 -1.262284e-09 -8.074726e-04))
73.428578     	((5.834861e-07 1.459728e-06 -1.073152e-08) (7.958223e-09 1.114564e-07 1.497497e-08)) ((6.613071e-10 2.828711e-11 -8.503016e-08) (-2.066773e-08 -9.874675e-10 -7.439301e-04))
88.126294     	((7.635507e-07 1.737226e-06 -6.137737e-08) (2.835056e-08 4.589195e-08 1.137592e-08)) ((1.023309e-09 5.873708e-12 -6.422743e-08) (-2.514180e-08 5.633291e-11 -6.859791e-04))
105.763553    	((8.664480e-07 1.553416e-06 8.965530e-08) (1.103125e-08 1.516691e-09 1.524242e-08)) ((9.750483e-10 -1.243100e-10 -4.635158e-08) (-1.306800e-08 2.644201e-09 -6.345439e-04))
126.928263    	((7.246519e-07 1.611321e-06 -6.112018e-08) (-2.964676e-08 1.137703e-07 6.430298e-09)) ((1.021165e-09 -3.899984e-10 -3.215834e-08) (1.935154e-09 3.566559e-09 -5.898447e-04))
152.325916    	((1.216052e-06 1.685042e-06 2.228380e-08) (1.628695e-07 2.669227e-07 3.734651e-09)) ((1.113531e-09 -8.217885e-10 -2.316154e-08) (1.658141e-08 3.232948e-09 -5.516301e-04))
182.803099    	((2.046869e-06 1.299289e-06 2.765837e-07) (2.417133e-07 3.594131e-07 7.945467e-09)) ((7.782411e-10 -8.103730e-10 -1.924482e-08) (2.789311e-08 5.006805e-09 -5.193432e-04))
218.444825    	((1.402199e-06 1.229751e-06 4.813242e-07) (2.859619e-07 4.838651e-07 -2.678297e-09)) ((6.363259e-10 -8.986522e-10 -1.710587e-08) (3.595850e-08 5.959992e-09 -4.926702e-04))
259.28926     	((2.821374e-06 1.040226e-06 3.631017e-07) (4.021608e-07 5.414238e-07 -1.282687e-08)) ((7.386500e-10 -9.011128e-10 -1.553884e-08) (4.394139e-08 2.182336e-09 -4.707052e-04))
305.387643    	((2.344929e-06 1.460560e-06 1.424122e-07) (5.028269e-07 5.425141e-07 -4.450545e-08)) ((8.207825e-10 -9.931866e-10 -1.431995e-08) (4.613353e-08 -8.029447e-09 -4.527048e-04))
356.800259    	((2.283472e-06 1.771668e-06 -1.110458e-07) (4.723716e-07 4.874670e-07 -9.478125e-08)) ((5.924712e-10 -1.302797e-09 -1.412881e-08) (4.535223e-08 -1.963377e-08 -4.380405e-04))
410.707486    	((1.970070e-06 2.026117e-06 -2.346028e-07) (3.278999e-07 3.665432e-07 -1.245276e-07)) ((7.459887e-10 -1.489533e-09 -1.411142e-08) (3.960945e-08 -2.646155e-08 -4.267729e-04))
465.559758    	((1.671604e-06 1.687493e-06 -4.593156e-07) (1.051756e-07 2.512416e-07 -9.954351e-08)) ((4.912070e-10 -1.560496e-09 -1.385253e-08) (3.643729e-08 -3.104842e-08 -4.187108e-04))
521.502979    	((2.085966e-06 1.680484e-06 -7.745990e-07) (3.028255e-08 3.021441e-07 -8.561435e-08)) ((2.015878e-10 -1.648154e-09 -1.384910e-08) (3.549229e-08 -3.707593e-08 -4.136404e-04))
578.414665    	((1.967628e-06 9.502020e-07 -9.685740e-07) (-2.032862e-08 3.571364e-07 -4.579461e-08)) ((-9.638905e-11 -1.365577e-09 -1.414763e-08) (3.272873e-08 -4.785445e-08 -4.114233e-04))
636.125337    	((2.457780e-06 6.662293e-07 -9.343478e-07) (-1.507524e-07 2.977500e-07 1.019437e-08)) ((-1.256638e-10 -1.214421e-09 -1.457916e-08) (2.482451e-08 -5.478037e-08 -4.119030e-04))
694.518435    	((2.944709e-06 1.249101e-06 -7.475431e-07) (-1.088100e-07 3.000934e-07 4.810338e-08)) ((-1.461485e-10 -1.022387e-09 -1.536052e-08) (9.789847e-09 -5.535073e-08 -4.149719e-04))
752.73822     	((3.109973e-06 1.592259e-06 -5.988597e-07) (-5.417951e-08 3.069285e-07 3.003003e-08)) ((4.397693e-11 -8.184011e-10 -1.637816e-08) (-4.823567e-09 -4.986503e-08 -4.205772e-04))
810.565912    	((3.031018e-06 1.539654e-06 -7.118713e-07) (5.004052e-08 2.248798e-07 5.760794e-08)) ((2.950137e-10 -4.952282e-10 -1.736481e-08) (-1.859540e-08 -4.638461e-08 -4.285512e-04))
867.909554    	((2.927141e-06 2.132290e-06 -1.064167e-06) (1.574211e-07 8.994606e-10 4.033535e-08)) ((4.548596e-10 -3.475776e-10 -1.855687e-08) (-1.079154e-08 -3.617642e-08 -4.384006e-04))
924.707783    	((1.218271e-06 2.016135e-06 -1.627475e-06) (1.922856e-07 -1.826959e-07 -6.790933e-09)) ((6.176870e-10 -3.546977e-10 -1.927999e-08) (5.834640e-09 -1.867211e-08 -4.494416e-04))
980.93006     	((-5.071170e-07 1.760663e-06 -2.353733e-06) (1.080433e-07 -2.839106e-07 -1.044354e-07)) ((7.488896e-10 -3.277309e-10 -1.949529e-08) (2.749467e-08 -1.694501e-09 -4.603819e-04))
1036.536399   	((-2.674350e-06 2.069258e-06 -2.929928e-06) (1.039139e-08 -1.823673e-07 -1.093802e-07)) ((9.480714e-10 -3.121129e-10 -2.012550e-08) (5.068330e-08 -1.397212e-09 -4.697043e-04))
1090.989847   	((-2.983450e-06 1.241059e-06 -3.253193e-06) (-3.755010e-08 -4.579264e-08 -9.426993e-08)) ((1.095215e-09 -3.228001e-10 -2.099770e-08) (7.121719e-08 -2.226877e-08 -4.765188e-04))
1144.36467    	((-2.816692e-06 -4.275419e-08 -3.415373e-06) (-8.502807e-08 6.908421e-09 -1.360051e-07)) ((1.153760e-09 -5.135191e-10 -2.089405e-08) (8.085117e-08 -3.585480e-08 -4.808247e-04))
1196.810306   	((-2.023678e-06 1.213141e-06 -2.297206e-06) (-1.909082e-07 1.475647e-07 -9.034022e-08)) ((9.022781e-10 -4.372043e-10 -2.048746e-08) (8.670240e-08 -6.424226e-08 -4.829143e-04))
1248.530997   	((-1.085515e-06 9.457359e-07 -2.898592e-06) (8.962465e-08 3.034109e-07 -7.153216e-08)) ((8.007604e-10 -3.511070e-10 -2.031068e-08) (8.581396e-08 -1.031293e-07 -4.832901e-04))
1299.636392   	((2.093825e-07 2.489567e-07 -2.524257e-06) (1.738668e-07 2.540692e-07 -4.405443e-08)) ((8.461016e-10 -3.750283e-10 -2.011655e-08) (6.508892e-08 -1.385206e-07 -4.825146e-04))
1350.282353   	((-4.740908e-07 2.535868e-07 -2.633624e-06) (1.340107e-07 2.189533e-07 -1.301697e-08)) ((8.838205e-10 -3.501182e-10 -1.949727e-08) (2.781809e-08 -1.656665e-07 -4.809938e-04))
1400.604061   	((-2.190853e-07 -2.077546e-08 -2.891709e-06) (2.696831e-07 2.157559e-07 -2.474661e-08)) ((9.252782e-10 -4.750059e-10 -1.892540e-08) (-1.922773e-08 -1.734563e-07 -4.789854e-04))
1450.676911   	((-5.767212e-07 -4.971795e-07 -2.521304e-06) (2.877186e-07 2.142175e-07 -3.485243e-08)) ((8.029092e-10 -3.911122e-10 -1.847049e-08) (-6.200723e-08 -1.644616e-07 -4.768341e-04))
1500.554174   	((-3.509824e-07 -9.863244e-07 -2.534676e-06) (2.385697e-07 1.178555e-07 -3.517890e-08)) ((7.228370e-10 -2.151623e-10 -1.806774e-08) (-9.627099e-08 -1.376284e-07 -4.747384e-04))
