# Forces      
# CofR        : (0.000000e+00 0.000000e+00 0.000000e+00)
# Time        forces(pressure viscous)	moments(pressure viscous)
0             	((0.000000e+00 0.000000e+00 0.000000e+00) (-5.031213e-12 -5.044963e-02 -3.119299e-12)) ((0.000000e+00 0.000000e+00 0.000000e+00) (1.520312e-09 -2.410919e-13 -6.738724e-09))
0.012         	((-5.847101e-04 -1.466992e+03 -2.803351e-04) (-3.512855e-08 -1.309720e-01 4.375047e-08)) ((3.803460e-05 2.292066e-06 -2.451278e-04) (-1.601687e-07 -8.957804e-10 1.434687e-07))
0.0264        	((-3.673576e-03 1.133408e+02 -3.289558e-02) (-1.694662e-07 -1.491405e-01 -5.632027e-07)) ((-1.491126e-06 -1.463533e-07 1.997589e-05) (-6.128291e-08 2.860287e-10 1.158562e-07))
0.04368       	((-7.461204e-03 3.037541e+02 3.907558e-02) (-3.207043e-07 -1.333089e-01 -1.318569e-07)) ((-1.584094e-05 5.338981e-09 6.071666e-05) (8.342058e-07 -9.622545e-10 -7.478600e-07))
0.064416      	((-4.025778e-04 4.650836e+00 -1.842890e-04) (-8.454783e-07 -1.213963e-01 -2.652708e-08)) ((2.172570e-06 2.162952e-07 -2.138135e-06) (9.238232e-07 -1.494270e-08 -9.367767e-07))
0.0892992     	((2.012313e-03 -2.778749e+00 -7.016488e-03) (-1.066070e-06 -1.189578e-01 -1.191121e-06)) ((1.770743e-06 -2.686253e-06 -2.523326e-06) (2.780417e-07 2.139126e-08 -4.405605e-07))
0.119159      	((-1.369849e-03 7.612212e+00 -3.452957e-03) (-7.441419e-07 -1.174129e-01 -1.302405e-06)) ((2.358751e-07 4.938092e-07 8.751829e-07) (-7.013790e-08 5.321332e-08 -1.582039e-07))
0.154991      	((3.277216e-04 4.154124e+00 3.883536e-04) (-3.052739e-07 -1.155088e-01 -7.662407e-07)) ((3.237660e-08 -1.044567e-06 4.849371e-07) (-2.445460e-07 3.807379e-08 6.563123e-08))
0.197989      	((-2.797412e-04 1.664890e+00 4.891509e-04) (6.320291e-08 -1.135699e-01 -4.999995e-07)) ((-7.834422e-07 1.250545e-06 1.017255e-06) (-4.085031e-07 -1.093129e-08 1.407949e-07))
0.249587      	((1.849057e-04 1.116252e+00 3.964952e-05) (3.695491e-07 -1.117123e-01 -1.880097e-07)) ((-9.267677e-09 5.429715e-07 2.487752e-07) (-5.451391e-07 -6.740293e-08 2.414229e-07))
0.311504      	((5.728776e-06 6.796552e-01 3.315805e-04) (1.425463e-07 -1.099366e-01 -9.233851e-08)) ((-1.805875e-07 8.534382e-08 4.355086e-07) (-5.948587e-07 -9.480789e-08 3.672671e-07))
0.385805      	((2.981370e-04 3.201563e-01 -4.675131e-05) (1.965088e-06 -1.081567e-01 -3.008575e-07)) ((-8.995374e-08 -4.475212e-08 1.793222e-07) (-6.739811e-07 -9.065225e-08 4.381605e-07))
0.474966      	((1.471282e-05 1.323374e-01 -5.380913e-04) (5.622489e-06 -1.063241e-01 -4.995275e-07)) ((-9.893908e-09 -4.139515e-08 1.306618e-07) (-7.500453e-07 -9.760523e-08 3.515789e-07))
0.581959      	((1.238381e-03 3.190095e-02 -6.763876e-05) (2.709655e-06 -1.044073e-01 -9.455521e-07)) ((4.186062e-08 2.807816e-07 -3.493284e-07) (-7.136845e-07 -7.870443e-08 2.391901e-07))
0.710351      	((-9.920465e-04 -2.725753e-02 -6.552592e-04) (-1.754488e-06 -1.023800e-01 -1.557681e-06)) ((6.498905e-08 3.049833e-07 -2.862880e-07) (-6.174440e-07 -1.408093e-07 1.162732e-08))
0.864421      	((2.646947e-04 -5.886297e-02 -4.653593e-05) (-2.121487e-06 -1.002195e-01 -3.097345e-06)) ((2.787960e-08 2.678629e-07 -4.378439e-07) (-5.045827e-07 -2.572375e-07 5.516674e-08))
1.049306      	((-1.154562e-03 -7.278790e-02 -9.203308e-04) (-2.549600e-06 -9.790225e-02 -3.255683e-06)) ((2.528898e-08 9.375625e-08 7.604308e-08) (-3.271180e-07 -3.391270e-07 -5.414491e-08))
1.271167      	((5.554686e-04 -7.974297e-02 2.056557e-04) (-2.147820e-06 -9.543539e-02 -1.709725e-06)) ((5.507298e-08 2.710856e-10 -1.114643e-07) (-1.786845e-07 -3.180397e-07 -3.161136e-07))
1.5374        	((-9.811865e-04 -8.389785e-02 -5.480022e-04) (-2.150797e-06 -9.283471e-02 -9.555859e-07)) ((5.308345e-08 4.661824e-08 -1.045475e-07) (-1.352265e-07 -4.030192e-07 -4.701084e-07))
1.85688       	((6.624791e-04 -8.763514e-02 3.413415e-04) (-3.885244e-06 -9.013818e-02 -2.113049e-06)) ((1.166699e-07 2.345683e-07 -5.547691e-07) (-5.051412e-08 -4.551910e-07 -2.647040e-07))
2.240256      	((-9.227697e-04 -8.914103e-02 -5.870007e-04) (1.200737e-06 -8.738653e-02 -2.103545e-06)) ((-7.219214e-08 6.308333e-07 -1.232406e-07) (1.693276e-07 -4.425992e-07 -1.715672e-07))
2.700307      	((1.117810e-03 -8.934764e-02 2.840087e-04) (3.213132e-06 -8.465242e-02 -2.141523e-06)) ((-2.991572e-08 3.992315e-07 -1.465240e-07) (1.254184e-07 -3.932832e-07 -4.583322e-07))
3.252369      	((-5.413672e-04 -8.861479e-02 -6.741668e-04) (5.684382e-06 -8.202658e-02 -3.242468e-06)) ((4.233883e-08 1.868978e-07 1.417064e-07) (4.680773e-08 -3.689375e-07 -4.785570e-07))
3.914842      	((1.226790e-03 -8.741892e-02 1.872890e-04) (9.758906e-06 -7.959560e-02 -4.192160e-07)) ((2.376320e-08 6.390791e-07 4.311319e-09) (2.156928e-07 -1.643364e-07 -7.116717e-07))
4.709811      	((-5.705728e-04 -8.696790e-02 -2.103306e-04) (-1.325125e-06 -7.737539e-02 2.766897e-06)) ((6.378958e-08 7.114442e-07 5.143240e-08) (4.279430e-07 -1.258793e-07 -4.598703e-07))
5.663773      	((-5.845988e-05 -8.781521e-02 2.718165e-04) (-1.007274e-05 -7.538365e-02 5.490117e-06)) ((-3.214344e-08 3.359274e-07 -4.836604e-08) (3.751661e-07 7.775010e-08 -6.807003e-07))
6.808528      	((-7.776138e-04 -9.085910e-02 -1.147446e-04) (-1.122985e-05 -7.360806e-02 4.429046e-06)) ((-6.168401e-08 3.656829e-07 4.090672e-08) (-5.290618e-07 2.445743e-07 -1.174076e-06))
8.182233      	((2.425034e-04 -9.713926e-02 6.943221e-05) (-5.086904e-06 -7.203856e-02 1.631028e-06)) ((1.035236e-07 4.085364e-07 -9.697754e-08) (-8.509420e-07 1.661553e-07 -1.848871e-06))
9.83068       	((-1.173148e-04 -1.059008e-01 -7.660754e-05) (-1.336359e-06 -7.068413e-02 1.551192e-06)) ((-9.473182e-09 2.572023e-07 9.505018e-08) (-7.376402e-07 7.263267e-08 -1.237099e-06))
11.80852      	((-2.958023e-06 -1.174533e-01 1.022465e-04) (-5.122907e-06 -6.955085e-02 2.858188e-06)) ((-1.336981e-08 2.706676e-07 -7.454503e-08) (-7.994203e-07 9.809261e-08 3.698597e-07))
14.115652     	((-6.260525e-05 -1.309185e-01 -3.386351e-05) (-6.311264e-07 -6.864725e-02 2.285596e-06)) ((3.872344e-08 3.239063e-07 -1.365409e-08) (-1.016746e-06 9.923845e-08 3.538448e-07))
16.75152      	((1.887659e-05 -1.463931e-01 4.542093e-05) (-3.040962e-06 -6.797430e-02 1.488827e-06)) ((4.975367e-09 2.578412e-07 -4.176249e-08) (-1.053196e-06 1.895841e-07 5.662988e-07))
19.716371     	((-2.807611e-04 -1.613067e-01 8.553769e-06) (-8.871465e-06 -6.751865e-02 1.539814e-06)) ((2.705367e-08 2.484020e-07 1.819378e-08) (-9.177195e-07 3.017530e-07 1.160274e-06))
22.995688     	((1.369381e-06 -1.758904e-01 1.002181e-04) (-9.156197e-06 -6.724081e-02 1.338574e-06)) ((1.125207e-08 2.946966e-07 6.012906e-08) (-1.022561e-06 3.368561e-07 1.024270e-06))
26.253031     	((-1.324855e-04 -1.893612e-01 9.790283e-05) (-1.003680e-05 -6.703846e-02 1.077124e-06)) ((7.622028e-09 2.475428e-07 1.620532e-08) (-1.023659e-06 3.638888e-07 1.915546e-07))
29.488701     	((2.687555e-06 -2.014355e-01 2.186595e-04) (-9.667598e-06 -6.678481e-02 3.167160e-07)) ((-1.753276e-08 2.371767e-07 8.328711e-08) (-6.585863e-07 3.530299e-07 -2.278544e-07))
32.711454     	((2.303535e-04 -2.106747e-01 2.998040e-04) (-6.978087e-06 -6.644307e-02 -3.117228e-07)) ((-1.769315e-08 2.867889e-07 5.338660e-08) (1.470659e-08 2.788561e-07 -1.197324e-06))
35.928893     	((2.750115e-04 -2.172325e-01 4.058856e-04) (-9.083962e-06 -6.601584e-02 -3.895657e-07)) ((3.005312e-08 2.660256e-07 3.182641e-08) (3.848489e-07 2.992851e-07 -1.527113e-06))
39.148641     	((3.564781e-04 -2.207931e-01 5.002086e-04) (-8.851708e-06 -6.557132e-02 4.294052e-07)) ((3.599187e-08 2.791973e-07 5.071231e-08) (3.194880e-07 3.414358e-07 -1.079542e-06))
42.378086     	((6.808257e-04 -2.229636e-01 7.116215e-04) (-4.525254e-06 -6.516288e-02 3.180225e-06)) ((3.841777e-08 2.815981e-07 4.040408e-08) (1.720015e-07 3.405498e-07 -1.257717e-06))
45.617556     	((8.126988e-04 -2.225405e-01 8.340502e-04) (-2.708614e-06 -6.478072e-02 4.650393e-06)) ((4.727160e-08 2.977841e-07 6.956950e-08) (2.751140e-07 3.225979e-07 -1.310914e-06))
48.859218     	((1.061720e-03 -2.208265e-01 1.001917e-03) (-1.673805e-06 -6.443871e-02 5.333126e-06)) ((3.594766e-08 3.139421e-07 7.344954e-08) (7.041480e-07 2.930306e-07 -1.391314e-06))
52.101606     	((1.294801e-03 -2.182212e-01 1.177349e-03) (1.373564e-06 -6.413417e-02 5.658399e-06)) ((3.193756e-08 3.242292e-07 7.123103e-08) (1.425539e-06 2.625195e-07 -2.078483e-06))
55.345621     	((1.638796e-03 -2.157199e-01 1.389125e-03) (3.473107e-06 -6.384828e-02 5.634438e-06)) ((2.784789e-08 3.291617e-07 8.961595e-08) (2.125777e-06 2.741924e-07 -2.870673e-06))
58.591555     	((1.865152e-03 -2.143836e-01 1.651823e-03) (5.857614e-06 -6.358642e-02 6.527205e-06)) ((3.867399e-08 3.056175e-07 8.399265e-08) (2.823843e-06 2.834397e-07 -3.678747e-06))
61.839084     	((2.353335e-03 -2.130343e-01 1.931701e-03) (1.109846e-05 -6.334615e-02 6.657856e-06)) ((4.288682e-08 3.287671e-07 1.005150e-07) (3.757819e-06 2.442759e-07 -4.631381e-06))
65.087902     	((2.677775e-03 -2.124621e-01 2.303639e-03) (1.195965e-05 -6.312674e-02 7.778768e-06)) ((4.594177e-08 3.292820e-07 1.039890e-07) (5.034047e-06 2.410488e-07 -5.759096e-06))
68.337934     	((3.077757e-03 -2.118053e-01 2.707486e-03) (1.450048e-05 -6.292783e-02 8.870267e-06)) ((5.033152e-08 3.184077e-07 1.146178e-07) (6.546535e-06 2.519115e-07 -7.211854e-06))
71.589151     	((3.619670e-03 -2.110913e-01 3.170888e-03) (1.763853e-05 -6.275248e-02 9.689421e-06)) ((4.914534e-08 3.320854e-07 1.304106e-07) (8.330353e-06 2.491740e-07 -8.712929e-06))
74.841442     	((4.043131e-03 -2.100023e-01 3.718888e-03) (1.828027e-05 -6.259876e-02 1.127350e-05)) ((5.968743e-08 3.344130e-07 1.299945e-07) (1.040564e-05 2.510221e-07 -1.037384e-05))
78.094678     	((4.678170e-03 -2.087719e-01 4.299645e-03) (2.128396e-05 -6.246095e-02 1.235504e-05)) ((6.988464e-08 3.331635e-07 1.395775e-07) (1.268629e-05 2.664730e-07 -1.215155e-05))
81.348767     	((5.339469e-03 -2.074172e-01 4.999473e-03) (2.329421e-05 -6.233692e-02 1.399847e-05)) ((8.149674e-08 3.330844e-07 1.391854e-07) (1.505584e-05 2.958112e-07 -1.407098e-05))
84.603641     	((6.134007e-03 -2.059293e-01 5.831057e-03) (2.588611e-05 -6.222174e-02 1.649213e-05)) ((9.840161e-08 3.283624e-07 1.420813e-07) (1.760820e-05 3.089394e-07 -1.636900e-05))
87.859226     	((6.990760e-03 -2.045776e-01 6.742128e-03) (2.906940e-05 -6.211328e-02 1.996507e-05)) ((1.088640e-07 3.187272e-07 1.477904e-07) (2.061099e-05 3.150314e-07 -1.907154e-05))
91.115439     	((7.939692e-03 -2.033611e-01 7.766865e-03) (3.151399e-05 -6.201156e-02 2.373911e-05)) ((1.182712e-07 3.122874e-07 1.498672e-07) (2.396366e-05 3.201812e-07 -2.230511e-05))
94.372195     	((9.066473e-03 -2.022195e-01 8.920470e-03) (3.562597e-05 -6.191591e-02 2.797276e-05)) ((1.339441e-07 3.099378e-07 1.656660e-07) (2.756599e-05 3.232153e-07 -2.583867e-05))
97.629411     	((1.030309e-02 -2.012004e-01 1.021473e-02) (4.006065e-05 -6.182626e-02 3.338892e-05)) ((1.509212e-07 3.016818e-07 1.759366e-07) (3.142843e-05 3.216657e-07 -2.962499e-05))
100.887012    	((1.170886e-02 -2.004233e-01 1.164621e-02) (4.598239e-05 -6.174251e-02 3.976487e-05)) ((1.624356e-07 2.964866e-07 1.943386e-07) (3.555266e-05 3.224494e-07 -3.374427e-05))
104.144924    	((1.327758e-02 -1.998476e-01 1.327921e-02) (5.291755e-05 -6.166446e-02 4.745822e-05)) ((1.752753e-07 2.924189e-07 2.135432e-07) (3.997279e-05 3.170469e-07 -3.813487e-05))
107.403072    	((1.504397e-02 -1.993981e-01 1.508988e-02) (6.087562e-05 -6.159220e-02 5.643617e-05)) ((1.899651e-07 2.872302e-07 2.337513e-07) (4.488467e-05 2.907816e-07 -4.301987e-05))
110.661383    	((1.702446e-02 -1.990145e-01 1.711196e-02) (7.049811e-05 -6.152536e-02 6.602001e-05)) ((2.078730e-07 2.823506e-07 2.568873e-07) (5.049653e-05 2.479650e-07 -4.864568e-05))
113.919784    	((1.920104e-02 -1.986408e-01 1.935346e-02) (7.987394e-05 -6.146426e-02 7.589381e-05)) ((2.332253e-07 2.764299e-07 2.684147e-07) (5.691781e-05 2.104488e-07 -5.512367e-05))
117.178201    	((2.164183e-02 -1.982978e-01 2.182585e-02) (9.019151e-05 -6.140912e-02 8.621287e-05)) ((2.559115e-07 2.731528e-07 2.887042e-07) (6.434895e-05 1.873963e-07 -6.263331e-05))
120.436554    	((2.438265e-02 -1.979273e-01 2.461718e-02) (1.011953e-04 -6.135943e-02 9.712860e-05)) ((2.831404e-07 2.668098e-07 3.100174e-07) (7.290476e-05 1.829953e-07 -7.131207e-05))
123.694758    	((2.743313e-02 -1.975289e-01 2.772796e-02) (1.123319e-04 -6.131578e-02 1.087229e-04)) ((3.142871e-07 2.632904e-07 3.287278e-07) (8.257788e-05 1.836596e-07 -8.097617e-05))
126.952722    	((3.086883e-02 -1.971516e-01 3.118347e-02) (1.253314e-04 -6.127774e-02 1.212641e-04)) ((3.442378e-07 2.613461e-07 3.606398e-07) (9.354285e-05 1.673076e-07 -9.184851e-05))
130.210344    	((3.468692e-02 -1.968163e-01 3.503293e-02) (1.395197e-04 -6.124418e-02 1.347041e-04)) ((3.717525e-07 2.566176e-07 3.933230e-07) (1.060558e-04 1.317560e-07 -1.043135e-04))
133.46751     	((3.896545e-02 -1.965588e-01 3.934722e-02) (1.545475e-04 -6.121526e-02 1.494834e-04)) ((4.016141e-07 2.522454e-07 4.292346e-07) (1.202408e-04 9.493260e-08 -1.182591e-04))
136.7241      	((4.377325e-02 -1.964769e-01 4.421715e-02) (1.711890e-04 -6.119057e-02 1.660421e-04)) ((4.305251e-07 2.451797e-07 4.806156e-07) (1.362514e-04 6.873402e-08 -1.339330e-04))
139.979983    	((4.917581e-02 -1.965585e-01 4.969239e-02) (1.890889e-04 -6.117027e-02 1.842045e-04)) ((4.568021e-07 2.329899e-07 5.483207e-07) (1.543811e-04 5.802623e-08 -1.517703e-04))
143.235019    	((5.527506e-02 -1.968577e-01 5.586560e-02) (2.088966e-04 -6.115443e-02 2.043060e-04)) ((4.839666e-07 2.185549e-07 6.317314e-07) (1.749325e-04 4.979199e-08 -1.720161e-04))
146.489057    	((6.218612e-02 -1.973271e-01 6.284598e-02) (2.306728e-04 -6.114239e-02 2.265282e-04)) ((5.227663e-07 1.959788e-07 7.240438e-07) (1.982757e-04 6.528837e-08 -1.949739e-04))
149.741935    	((7.001543e-02 -1.981023e-01 7.075149e-02) (2.551922e-04 -6.113369e-02 2.512262e-04)) ((5.650939e-07 1.707570e-07 8.321414e-07) (2.247978e-04 7.006816e-08 -2.209135e-04))
152.993473    	((7.884652e-02 -1.992698e-01 7.968823e-02) (2.830693e-04 -6.112820e-02 2.789038e-04)) ((6.055747e-07 1.419621e-07 9.536233e-07) (2.549343e-04 5.791585e-08 -2.501860e-04))
156.24348     	((8.879391e-02 -2.008020e-01 8.978788e-02) (3.144813e-04 -6.112607e-02 3.100070e-04)) ((6.585506e-07 1.010079e-07 1.080370e-06) (2.890867e-04 3.403975e-08 -2.832722e-04))
159.491752    	((9.983295e-02 -2.029376e-01 1.010321e-01) (3.501981e-04 -6.112836e-02 3.460261e-04)) ((7.116416e-07 5.113284e-08 1.231098e-06) (3.271907e-04 6.174091e-08 -3.202783e-04))
162.738078    	((1.121482e-01 -2.055406e-01 1.135836e-01) (3.925118e-04 -6.113699e-02 3.892154e-04)) ((7.720290e-07 -1.580433e-08 1.388578e-06) (3.687231e-04 1.154546e-07 -3.605999e-04))
165.98223     	((1.258554e-01 -2.085805e-01 1.275864e-01) (4.432886e-04 -6.115392e-02 4.412296e-04)) ((8.494278e-07 -1.085397e-07 1.551152e-06) (4.134509e-04 6.530340e-08 -4.039273e-04))
169.223971    	((1.409272e-01 -2.121808e-01 1.430150e-01) (5.032530e-04 -6.118104e-02 5.027170e-04)) ((9.361563e-07 -2.097805e-07 1.710994e-06) (4.616857e-04 -1.060740e-07 -4.505073e-04))
172.463044    	((1.573874e-01 -2.167016e-01 1.598671e-01) (5.733127e-04 -6.122086e-02 5.750205e-04)) ((9.971453e-07 -3.271804e-07 1.893229e-06) (5.134720e-04 -2.185600e-07 -5.006314e-04))
175.699174    	((1.753671e-01 -2.223343e-01 1.782685e-01) (6.544004e-04 -6.127773e-02 6.586834e-04)) ((1.039163e-06 -4.694359e-07 2.121208e-06) (5.685526e-04 -2.377273e-07 -5.541538e-04))
178.932068    	((1.945152e-01 -2.292690e-01 1.979399e-01) (7.453262e-04 -6.135494e-02 7.521120e-04)) ((1.030087e-06 -6.161347e-07 2.417355e-06) (6.268910e-04 -2.317956e-07 -6.110891e-04))
182.161426    	((2.145900e-01 -2.378256e-01 2.185372e-01) (8.451823e-04 -6.145729e-02 8.563772e-04)) ((9.785189e-07 -7.617277e-07 2.733996e-06) (6.886909e-04 -2.067826e-07 -6.713320e-04))
185.38695     	((2.352772e-01 -2.477021e-01 2.397926e-01) (9.566321e-04 -6.158875e-02 9.718028e-04)) ((8.957375e-07 -9.115707e-07 3.061066e-06) (7.527797e-04 -2.235802e-07 -7.336673e-04))
188.606273    	((2.562396e-01 -2.584452e-01 2.613225e-01) (1.078209e-03 -6.174778e-02 1.095563e-03)) ((7.048951e-07 -1.069608e-06 3.444510e-06) (8.177280e-04 -3.050520e-07 -7.972046e-04))
191.818331    	((2.767604e-01 -2.704581e-01 2.824437e-01) (1.206740e-03 -6.193281e-02 1.228163e-03)) ((4.039767e-07 -1.239953e-06 3.915581e-06) (8.835843e-04 -5.196338e-07 -8.614726e-04))
195.02304     	((2.955391e-01 -2.841071e-01 3.017262e-01) (1.339870e-03 -6.213867e-02 1.363644e-03)) ((-3.777485e-08 -1.388898e-06 4.487828e-06) (9.486162e-04 -7.406458e-07 -9.248882e-04))
198.220839    	((3.113565e-01 -2.989912e-01 3.179299e-01) (1.475450e-03 -6.236249e-02 1.499869e-03)) ((-6.025608e-07 -1.528005e-06 5.114338e-06) (1.010453e-03 -1.039764e-06 -9.853586e-04))
201.412159    	((3.230890e-01 -3.143627e-01 3.299554e-01) (1.607287e-03 -6.260941e-02 1.635805e-03)) ((-1.249179e-06 -1.610845e-06 5.789043e-06) (1.068173e-03 -1.285015e-06 -1.041563e-03))
204.597112    	((3.295609e-01 -3.284078e-01 3.368091e-01) (1.723767e-03 -6.287497e-02 1.757973e-03)) ((-1.977394e-06 -1.606620e-06 6.489323e-06) (1.120261e-03 -1.368798e-06 -1.091780e-03))
207.775995    	((3.296773e-01 -3.398876e-01 3.369647e-01) (1.819556e-03 -6.314111e-02 1.853340e-03)) ((-2.753419e-06 -1.581996e-06 7.178124e-06) (1.160954e-03 -1.328359e-06 -1.131288e-03))
210.949507    	((3.227187e-01 -3.482713e-01 3.297928e-01) (1.887496e-03 -6.339553e-02 1.920469e-03)) ((-3.448229e-06 -1.489778e-06 7.661250e-06) (1.188763e-03 -1.277184e-06 -1.158099e-03))
214.11866     	((3.093255e-01 -3.512223e-01 3.165450e-01) (1.907816e-03 -6.363014e-02 1.946978e-03)) ((-4.044998e-06 -1.270189e-06 7.944023e-06) (1.208079e-03 -1.461043e-06 -1.175079e-03))
217.284552    	((2.910147e-01 -3.491877e-01 2.980623e-01) (1.865808e-03 -6.382730e-02 1.902216e-03)) ((-4.641853e-06 -1.043012e-06 8.127110e-06) (1.220649e-03 -1.846666e-06 -1.185590e-03))
220.448531    	((2.696282e-01 -3.432741e-01 2.760025e-01) (1.763925e-03 -6.398845e-02 1.792775e-03)) ((-5.381632e-06 -8.576356e-07 8.370213e-06) (1.227042e-03 -2.152163e-06 -1.190463e-03))
223.611926    	((2.472647e-01 -3.365849e-01 2.535789e-01) (1.615554e-03 -6.413076e-02 1.647321e-03)) ((-6.089617e-06 -6.585348e-07 8.644990e-06) (1.228442e-03 -2.592448e-06 -1.188857e-03))
226.775969    	((2.274333e-01 -3.282360e-01 2.335498e-01) (1.435650e-03 -6.425235e-02 1.463545e-03)) ((-6.587810e-06 -4.950934e-07 8.859389e-06) (1.221398e-03 -3.154859e-06 -1.179085e-03))
229.941797    	((2.132142e-01 -3.190482e-01 2.192240e-01) (1.255013e-03 -6.435491e-02 1.274664e-03)) ((-6.690322e-06 -5.492772e-07 8.786663e-06) (1.204001e-03 -3.275718e-06 -1.160482e-03))
233.110177    	((2.053462e-01 -3.095926e-01 2.115243e-01) (1.101528e-03 -6.446203e-02 1.123051e-03)) ((-6.084899e-06 -6.814646e-07 8.136335e-06) (1.180558e-03 -3.027042e-06 -1.135270e-03))
236.281631    	((2.025859e-01 -3.008274e-01 2.089266e-01) (9.820871e-04 -6.456865e-02 1.000983e-03)) ((-5.012931e-06 -8.759750e-07 7.213738e-06) (1.152620e-03 -2.513032e-06 -1.107074e-03))
239.456331    	((2.042457e-01 -2.915050e-01 2.108380e-01) (9.112075e-04 -6.466511e-02 9.272775e-04)) ((-4.113848e-06 -1.163819e-06 6.560484e-06) (1.118547e-03 -1.933635e-06 -1.074453e-03))
242.634009    	((2.076178e-01 -2.823452e-01 2.145311e-01) (9.037575e-04 -6.476120e-02 9.268825e-04)) ((-3.697986e-06 -1.466096e-06 6.359434e-06) (1.078511e-03 -1.553954e-06 -1.035478e-03))
245.814182    	((2.105664e-01 -2.737263e-01 2.175203e-01) (9.441493e-04 -6.483638e-02 9.671678e-04)) ((-3.446794e-06 -1.681401e-06 6.208330e-06) (1.032467e-03 -1.470389e-06 -9.916762e-04))
248.996259    	((2.108427e-01 -2.650734e-01 2.178719e-01) (9.903726e-04 -6.487453e-02 1.015040e-03)) ((-2.703720e-06 -1.722690e-06 5.560452e-06) (9.904520e-04 -1.744404e-06 -9.510843e-04))
252.179629    	((2.081890e-01 -2.575824e-01 2.153980e-01) (1.016655e-03 -6.489134e-02 1.046807e-03)) ((-1.884841e-06 -1.638322e-06 4.787107e-06) (9.654123e-04 -2.213268e-06 -9.256425e-04))
255.363738    	((2.015987e-01 -2.523485e-01 2.084756e-01) (1.011408e-03 -6.489341e-02 1.036737e-03)) ((-1.372770e-06 -1.400196e-06 4.180021e-06) (9.496413e-04 -2.397518e-06 -9.107522e-04))
258.548224    	((1.900836e-01 -2.501514e-01 1.969147e-01) (9.703689e-04 -6.488429e-02 9.989810e-04)) ((-1.495536e-06 -8.974396e-07 4.119236e-06) (9.344784e-04 -2.392451e-06 -8.961777e-04))
261.732996    	((1.747518e-01 -2.507106e-01 1.813807e-01) (9.163824e-04 -6.488345e-02 9.506186e-04)) ((-2.249936e-06 -5.425434e-07 4.527285e-06) (9.176269e-04 -2.280918e-06 -8.797301e-04))
264.918221    	((1.567390e-01 -2.519667e-01 1.626270e-01) (8.423581e-04 -6.488223e-02 8.713104e-04)) ((-3.525483e-06 -9.590835e-08 5.221480e-06) (8.948369e-04 -1.952487e-06 -8.590511e-04))
268.104277    	((1.371717e-01 -2.533593e-01 1.427513e-01) (7.486558e-04 -6.487116e-02 7.800986e-04)) ((-4.885415e-06 4.401077e-07 6.126370e-06) (8.637154e-04 -1.988463e-06 -8.283409e-04))
271.29169     	((1.186578e-01 -2.538733e-01 1.236538e-01) (6.503867e-04 -6.486946e-02 6.831241e-04)) ((-5.921625e-06 6.546184e-07 6.679785e-06) (8.290362e-04 -2.125539e-06 -7.940108e-04))
274.481084    	((1.027212e-01 -2.546084e-01 1.068271e-01) (5.303622e-04 -6.485387e-02 5.550168e-04)) ((-6.086709e-06 7.998985e-07 6.537171e-06) (7.953596e-04 -2.086240e-06 -7.630189e-04))
277.673064    	((9.148520e-02 -2.557565e-01 9.544884e-02) (3.737139e-04 -6.480626e-02 3.965109e-04)) ((-5.667564e-06 9.725349e-07 6.188356e-06) (7.811572e-04 -2.275682e-06 -7.497255e-04))
280.86806     	((8.644295e-02 -2.559990e-01 9.028753e-02) (2.083385e-04 -6.475076e-02 2.292563e-04)) ((-4.968577e-06 8.412934e-07 5.670922e-06) (7.883419e-04 -2.339212e-06 -7.573264e-04))
284.066211    	((8.646947e-02 -2.532915e-01 8.998883e-02) (5.012722e-05 -6.468889e-02 6.621168e-05)) ((-4.177341e-06 7.325297e-07 5.043248e-06) (8.013198e-04 -2.027744e-06 -7.726542e-04))
