# Forces      
# CofR        : (0.000000e+00 0.000000e+00 0.000000e+00)
# Time        forces(pressure viscous)	moments(pressure viscous)
0             	((0.000000e+00 0.000000e+00 0.000000e+00) (0.000000e+00 0.000000e+00 0.000000e+00)) ((0.000000e+00 0.000000e+00 0.000000e+00) (0.000000e+00 0.000000e+00 0.000000e+00))
0.012         	((2.008786e-06 4.909358e-05 -8.543527e-08) (2.436180e-10 4.042977e-09 7.985314e-11)) ((-9.967958e-08 -9.053592e-10 2.857252e-05) (9.278078e-10 -5.865482e-11 1.514397e-03))
0.0264        	((8.531548e-06 -3.973367e-05 1.761611e-08) (3.792649e-10 5.538984e-09 -1.942449e-11)) ((-4.378978e-08 -1.635354e-09 1.257527e-05) (9.949141e-10 -7.107167e-11 1.512937e-03))
0.04368       	((2.544526e-06 2.883296e-05 -7.098110e-07) (2.137561e-10 6.054698e-09 -1.737705e-10)) ((-4.803546e-08 6.368394e-10 6.575552e-06) (1.459682e-09 -2.569919e-11 1.511206e-03))
0.064416      	((1.059017e-05 -1.221138e-05 -8.618611e-07) (2.872498e-10 6.569858e-09 -1.358003e-10)) ((-2.402745e-08 1.682594e-10 2.989771e-06) (2.533719e-09 2.556308e-11 1.509136e-03))
0.0892992     	((-1.334768e-06 7.948426e-06 9.344155e-07) (1.907643e-10 7.412918e-09 -5.287603e-11)) ((-2.295549e-08 1.517642e-09 1.978739e-06) (3.610372e-09 8.394844e-11 1.506658e-03))
0.119159      	((4.107204e-06 2.014062e-06 -2.869410e-07) (2.606521e-10 8.354769e-09 1.584476e-10)) ((-1.203745e-08 1.304689e-09 1.344848e-06) (4.258258e-09 7.309106e-11 1.503695e-03))
0.154991      	((1.461233e-06 1.426222e-06 8.868924e-07) (8.016115e-10 8.938292e-09 3.516588e-10)) ((-4.188189e-09 2.535025e-09 1.115141e-06) (4.143354e-09 -7.579548e-11 1.500153e-03))
0.197989      	((1.860196e-06 1.190636e-06 4.865338e-07) (1.195052e-09 9.328039e-09 4.674989e-10)) ((-3.926736e-09 2.546696e-09 9.507585e-07) (3.395399e-09 -2.875482e-10 1.495921e-03))
0.249587      	((1.466774e-06 8.301666e-07 7.582235e-07) (1.118698e-09 9.799541e-09 4.734755e-10)) ((-4.823548e-09 2.576842e-09 8.366840e-07) (2.359034e-09 -4.460615e-10 1.490868e-03))
0.311504      	((1.512182e-06 7.924941e-07 4.475564e-07) (5.029475e-10 1.033125e-08 2.301981e-10)) ((-4.621255e-09 2.920699e-09 7.402686e-07) (1.058909e-09 -6.186919e-10 1.484839e-03))
0.385805      	((1.579006e-06 6.545256e-07 -8.560212e-09) (-1.634097e-10 1.075722e-08 -1.913632e-10)) ((-4.126248e-09 1.994973e-09 6.558076e-07) (-3.941493e-10 -7.421817e-10 1.477658e-03))
0.474966      	((1.372441e-06 6.753454e-07 -1.711548e-07) (-6.928802e-10 1.077990e-08 -7.041925e-10)) ((-3.612781e-09 1.515690e-09 5.794782e-07) (-1.700532e-09 -7.403034e-10 1.469117e-03))
0.581959      	((1.094553e-06 4.725387e-07 -2.420975e-07) (-1.215085e-09 1.025379e-08 -1.228809e-09)) ((-3.263739e-09 1.015992e-09 5.074463e-07) (-2.765659e-09 -7.187860e-10 1.458977e-03))
0.710351      	((5.302026e-07 7.774903e-07 6.759121e-08) (-1.510315e-09 9.607121e-09 -1.635769e-09)) ((-3.309715e-09 6.331723e-10 4.391034e-07) (-3.632974e-09 -6.700320e-10 1.446969e-03))
0.864421      	((3.760545e-07 5.917780e-07 -3.342713e-08) (-1.340915e-09 9.336790e-09 -1.935645e-09)) ((-3.447808e-09 4.114169e-10 3.707046e-07) (-4.295598e-09 -5.912416e-10 1.432788e-03))
1.049306      	((1.925650e-07 4.312006e-07 5.391093e-08) (-8.847047e-10 9.156056e-09 -2.198265e-09)) ((-3.541491e-09 8.080649e-11 3.113096e-07) (-4.766026e-09 -5.610060e-10 1.416102e-03))
1.271167      	((-4.302105e-07 3.599081e-07 -1.662806e-07) (-3.368837e-10 8.766255e-09 -2.571842e-09)) ((-3.376382e-09 -4.779856e-10 2.675700e-07) (-5.051388e-09 -6.712935e-10 1.396555e-03))
1.5374        	((-1.563448e-07 3.673809e-07 6.577238e-09) (2.606618e-10 8.323580e-09 -3.045759e-09)) ((-2.948660e-09 -2.219399e-10 2.393920e-07) (-5.346138e-09 -8.480504e-10 1.373787e-03))
1.85688       	((-2.594741e-07 1.748978e-07 -6.760272e-08) (9.816192e-10 7.729792e-09 -3.532180e-09)) ((-2.539093e-09 -2.715564e-10 2.203380e-07) (-5.668066e-09 -1.032112e-09 1.347449e-03))
2.240256      	((-7.700260e-08 1.496735e-07 4.835845e-08) (1.638007e-09 6.882748e-09 -3.836998e-09)) ((-2.380191e-09 -3.623485e-10 2.070677e-07) (-5.904315e-09 -1.244430e-09 1.317240e-03))
2.700307      	((-3.818271e-08 -5.512438e-10 -6.344956e-08) (1.596417e-09 5.941222e-09 -3.957209e-09)) ((-2.238101e-09 -4.380624e-10 1.968501e-07) (-6.155989e-09 -1.549198e-09 1.282958e-03))
3.252369      	((7.251460e-08 -8.323756e-09 -2.541040e-09) (1.018518e-09 4.741386e-09 -3.889541e-09)) ((-2.194097e-09 -4.571549e-10 1.883669e-07) (-6.408647e-09 -1.648266e-09 1.244559e-03))
3.914842      	((3.681868e-08 -1.798441e-08 -8.401294e-08) (4.115507e-10 3.393071e-09 -3.916328e-09)) ((-2.096864e-09 -4.216606e-10 1.804241e-07) (-6.664536e-09 -1.708969e-09 1.202231e-03))
4.709811      	((1.280020e-07 1.118536e-07 7.467421e-08) (3.606019e-10 2.890720e-09 -4.180750e-09)) ((-1.921014e-09 -4.023007e-10 1.721746e-07) (-6.194263e-09 -1.546060e-09 1.156450e-03))
5.663773      	((1.047724e-07 3.206129e-08 -3.856392e-08) (1.194943e-09 2.377611e-09 -4.449744e-09)) ((-1.553288e-09 -2.410041e-10 1.629146e-07) (-4.230013e-09 -8.705571e-10 1.108003e-03))
6.808528      	((1.888187e-07 1.291837e-07 4.440384e-08) (1.865171e-09 4.159595e-09 -4.450411e-09)) ((-1.349984e-09 -1.123144e-10 1.538915e-07) (-1.290326e-09 4.126899e-11 1.057923e-03))
8.182233      	((5.457661e-08 -5.958010e-09 -1.690933e-08) (1.307153e-09 3.011674e-09 -4.515973e-09)) ((-1.274590e-09 7.523714e-11 1.450086e-07) (5.093078e-10 1.370840e-09 1.007369e-03))
9.83068       	((6.923777e-08 -7.067585e-09 -1.016296e-08) (1.366162e-09 2.645274e-09 -4.903265e-09)) ((-1.156423e-09 1.777616e-10 1.363460e-07) (6.416710e-10 3.103469e-09 9.573372e-04))
11.808816     	((7.026998e-08 -8.723559e-08 -3.319477e-08) (-1.446739e-09 7.377299e-10 -5.115470e-09)) ((-7.895535e-10 7.324176e-11 1.263201e-07) (-3.078169e-11 4.430654e-09 9.083991e-04))
14.182579     	((-3.875856e-08 -3.285325e-08 -9.919929e-10) (-3.142132e-09 -8.596872e-10 -4.774205e-09)) ((-6.777974e-10 1.909643e-11 1.141026e-07) (8.071684e-10 4.499971e-09 8.600161e-04))
17.031095     	((-5.429237e-08 -1.679699e-08 -1.940989e-08) (-3.479663e-09 -9.936319e-10 -2.004926e-09)) ((-5.173187e-10 -6.100058e-12 1.003013e-07) (4.123339e-09 5.996261e-09 8.107003e-04))
20.449314     	((-1.888813e-07 4.402893e-08 2.795562e-08) (-1.194305e-08 -4.960559e-09 -6.923954e-10)) ((-5.290306e-10 2.529659e-10 8.642709e-08) (6.371150e-09 6.769056e-09 7.597827e-04))
24.551176     	((-1.804291e-07 4.677766e-08 5.992773e-09) (-2.199701e-08 -9.006564e-09 -3.270701e-09)) ((-4.589663e-10 1.416166e-10 7.452269e-08) (5.746931e-09 5.923356e-09 7.078705e-04))
29.473411     	((-1.629654e-07 7.997644e-08 3.266449e-08) (-2.431591e-08 -9.995474e-09 -7.234397e-09)) ((-2.600302e-10 -3.197146e-11 6.745310e-08) (6.718230e-09 4.420077e-09 6.561118e-04))
35.380094     	((-2.480606e-07 2.959489e-08 -2.901719e-08) (-3.892367e-08 -1.214679e-08 -8.585634e-09)) ((-3.568182e-10 -8.510739e-12 6.309414e-08) (8.796287e-09 3.593217e-09 6.057536e-04))
42.468112     	((-1.469176e-07 8.709402e-09 -2.774176e-08) (-4.413399e-08 -1.553648e-08 -8.083094e-09)) ((-4.116619e-10 -6.012636e-11 5.789139e-08) (1.013577e-08 4.366196e-09 5.577336e-04))
50.973735     	((-4.475727e-08 -5.074302e-08 -7.116764e-08) (-2.047654e-08 -2.303993e-08 -9.641475e-09)) ((-2.934646e-10 -2.191917e-11 5.255630e-08) (1.054695e-08 3.733347e-09 5.124224e-04))
61.180482     	((5.281253e-08 2.338493e-07 -4.341027e-08) (2.901041e-08 -8.262717e-09 -7.686044e-09)) ((-4.928438e-10 -1.130290e-10 4.657791e-08) (1.048103e-08 8.974901e-11 4.697581e-04))
73.428578     	((5.477897e-07 3.547843e-07 -2.738557e-08) (4.040099e-08 1.447220e-08 -1.860071e-09)) ((-4.938997e-10 -1.299582e-11 3.821512e-08) (1.153217e-08 -3.685575e-09 4.296464e-04))
88.126294     	((6.262693e-07 4.540824e-07 3.897413e-08) (6.471261e-09 2.792664e-08 -2.041366e-09)) ((-4.106572e-10 5.191310e-11 2.937908e-08) (1.251554e-08 -4.760546e-09 3.923870e-04))
105.763553    	((6.215886e-07 5.057808e-07 3.937928e-09) (-1.840395e-08 4.281315e-08 6.896877e-09)) ((-2.063174e-10 -1.673101e-13 2.144896e-08) (1.034733e-08 -3.794635e-09 3.585905e-04))
126.928263    	((6.557682e-07 5.013867e-07 2.731754e-08) (3.186010e-08 2.902204e-08 1.587512e-08)) ((-2.199469e-10 5.527004e-11 1.510317e-08) (5.835167e-09 -4.316450e-09 3.286184e-04))
152.325916    	((5.995513e-07 4.624698e-07 2.619191e-08) (6.582351e-08 4.409786e-09 6.761402e-09)) ((2.638759e-11 -9.124765e-11 1.002262e-08) (-1.533139e-09 -6.815622e-09 3.025295e-04))
182.803099    	((6.250930e-07 6.260177e-07 3.209421e-08) (6.824961e-08 -3.630722e-08 -1.227413e-08)) ((1.932271e-10 -1.675333e-10 7.167850e-09) (-7.124524e-09 -1.279914e-08 2.802187e-04))
219.375719    	((2.040337e-07 7.533567e-07 1.036199e-07) (1.303441e-07 4.897894e-08 -1.075502e-08)) ((1.325041e-10 -8.491009e-11 5.338111e-09) (-9.390753e-09 -2.054556e-08 2.613238e-04))
263.262863    	((5.163821e-07 7.755168e-07 1.738100e-07) (2.145237e-07 1.155449e-07 -9.156327e-09)) ((1.310461e-10 -1.386263e-10 4.269439e-09) (-8.203698e-09 -2.772193e-08 2.452971e-04))
315.377337    	((9.114942e-08 1.043808e-06 1.330209e-07) (2.734593e-07 1.443273e-07 -8.885352e-09)) ((1.079786e-10 -1.496451e-10 3.266903e-09) (-4.745899e-09 -3.232656e-08 2.317121e-04))
375.801131    	((5.206312e-07 1.029520e-06 8.855651e-08) (3.201100e-07 2.323610e-07 -1.695522e-08)) ((8.390616e-11 -1.841589e-10 2.171083e-09) (-1.154312e-09 -3.359177e-08 2.203004e-04))
444.633724    	((5.395538e-07 1.040201e-06 -3.836639e-08) (3.393144e-07 3.312766e-07 -3.784462e-08)) ((8.525319e-11 -1.874838e-10 1.697188e-09) (3.357758e-09 -3.157698e-08 2.107690e-04))
521.993305    	((7.974100e-07 9.233910e-07 -1.419510e-07) (2.668329e-07 2.663819e-07 -5.346397e-08)) ((1.262756e-10 -2.987797e-10 1.455670e-09) (7.277043e-09 -2.598057e-08 2.029134e-04))
608.029338    	((5.488480e-07 6.238753e-07 -2.414355e-07) (2.172127e-07 1.072022e-07 -4.786468e-08)) ((1.401938e-10 -3.374722e-10 1.308610e-09) (1.095424e-08 -2.093685e-08 1.966246e-04))
696.569395    	((6.387653e-07 7.527241e-07 -2.288067e-07) (2.224970e-07 -9.962936e-09 -2.499893e-08)) ((1.071658e-10 -2.802372e-10 1.296405e-09) (1.514689e-08 -1.941722e-08 1.921242e-04))
787.143913    	((4.034967e-07 7.638045e-07 -2.711064e-07) (1.520637e-07 -3.505441e-08 -4.739169e-10)) ((5.383026e-11 -1.902512e-10 1.753333e-09) (2.024583e-08 -1.875056e-08 1.891936e-04))
879.457056    	((3.431969e-07 8.787856e-07 -2.781214e-07) (1.528692e-07 -7.016218e-08 8.389085e-09)) ((6.601217e-11 -1.594785e-10 2.159003e-09) (2.740819e-08 -1.649079e-08 1.876503e-04))
973.441996    	((2.502294e-07 9.067070e-07 -1.796206e-07) (1.621773e-07 -8.302558e-08 2.592837e-08)) ((4.275015e-11 -1.388359e-10 2.621594e-09) (3.144146e-08 -9.785445e-09 1.873900e-04))
1067.792808   	((3.914169e-07 1.061075e-06 -1.216373e-07) (1.926101e-07 -4.566058e-08 3.855087e-08)) ((3.440408e-11 -1.562036e-10 3.222950e-09) (3.033183e-08 -1.564502e-09 1.883625e-04))
1161.700684   	((3.868017e-07 1.092539e-06 -1.731632e-07) (1.872951e-07 -2.617742e-08 5.495983e-08)) ((-3.102412e-11 -2.423416e-10 3.603159e-09) (2.639766e-08 4.683847e-09 1.905497e-04))
1254.83609    	((5.835728e-07 1.217469e-06 -8.852793e-08) (1.546381e-07 1.979889e-08 6.026780e-08)) ((-9.505928e-11 -2.921216e-10 4.000811e-09) (1.968419e-08 5.889902e-09 1.939055e-04))
1346.971865   	((6.727725e-07 1.139148e-06 -2.407114e-07) (4.374216e-08 6.164693e-08 4.837571e-08)) ((-1.028079e-10 -3.173359e-10 4.249949e-09) (1.307394e-08 5.059448e-10 1.982451e-04))
1437.980885   	((7.184790e-07 8.204466e-07 -2.755733e-07) (-2.011192e-08 5.427687e-08 2.290750e-08)) ((-9.873239e-11 -3.595724e-10 4.445958e-09) (6.687658e-09 -7.246516e-09 2.033076e-04))
1527.850234   	((6.351097e-07 1.270850e-07 -3.357025e-07) (-6.387495e-08 4.016625e-08 1.549826e-08)) ((-1.230952e-10 -3.475245e-10 4.371039e-09) (3.609194e-09 -1.637979e-08 2.086271e-04))
1616.682516   	((8.398492e-07 -5.418642e-07 -6.644511e-07) (-5.991702e-08 1.512167e-08 7.334406e-09)) ((-1.153056e-10 -3.861877e-10 4.309720e-09) (4.925165e-09 -2.497871e-08 2.136123e-04))
1704.606748   	((7.972302e-07 -8.715850e-07 -8.736530e-07) (-2.635666e-08 -5.249586e-08 -4.025816e-10)) ((-1.242172e-10 -4.243572e-10 4.670476e-09) (1.452713e-08 -3.376002e-08 2.176920e-04))
1790.991394   	((6.083170e-07 -8.601011e-07 -3.815225e-07) (1.344971e-08 -4.802720e-08 1.797158e-08)) ((-1.583475e-10 -3.776004e-10 4.874776e-09) (2.647493e-08 -3.749098e-08 2.205551e-04))
1875.449502   	((5.405632e-07 -6.941292e-07 -5.141548e-07) (5.134676e-08 -7.139403e-09 3.367297e-08)) ((-2.099699e-10 -3.126179e-10 4.853851e-09) (3.837488e-08 -3.612858e-08 2.221904e-04))
1958.365268   	((6.912241e-07 -2.377354e-07 -6.089362e-07) (1.340241e-07 8.770511e-08 3.711939e-08)) ((-2.155781e-10 -3.437979e-10 4.701744e-09) (5.010444e-08 -2.980396e-08 2.227996e-04))
2040.067658   	((4.740756e-07 -9.872240e-08 -6.626338e-07) (1.676936e-07 1.465739e-07 4.330358e-08)) ((-1.867588e-10 -3.114747e-10 4.396707e-09) (5.845606e-08 -1.888230e-08 2.226302e-04))
2120.869779   	((1.762040e-07 -1.035369e-07 -6.558022e-07) (1.309938e-07 1.734043e-07 4.235806e-08)) ((-1.629290e-10 -2.707459e-10 4.032934e-09) (6.044881e-08 -5.443335e-09 2.219218e-04))
2201.034575   	((2.358141e-08 4.398511e-08 -4.747356e-07) (7.672055e-08 1.372015e-07 3.619334e-08)) ((-1.750319e-10 -2.704969e-10 3.785177e-09) (5.490364e-08 8.509539e-09 2.208869e-04))
2280.771059   	((-1.528126e-07 -2.829824e-08 -3.145380e-07) (6.601450e-08 1.177248e-07 3.681570e-08)) ((-1.979357e-10 -2.547887e-10 3.601952e-09) (4.552370e-08 2.025738e-08 2.197072e-04))
2360.273247   	((-2.010497e-07 -1.374552e-07 -1.530726e-07) (5.891924e-08 8.848194e-08 4.994855e-08)) ((-2.394459e-10 -2.277906e-10 3.532078e-09) (3.375141e-08 2.701099e-08 2.184922e-04))
