# Forces      
# CofR        : (0.000000e+00 0.000000e+00 0.000000e+00)
# Time        forces(pressure viscous)	moments(pressure viscous)
0             	((0.000000e+00 0.000000e+00 0.000000e+00) (-1.255517e-10 -1.258948e+00 -7.784072e-11)) ((0.000000e+00 0.000000e+00 0.000000e+00) (3.793871e-08 -6.016340e-12 -1.681619e-07))
0.012         	((3.216933e-01 -3.709720e+04 3.875124e-01) (-1.375800e-05 -2.611217e+00 -1.430710e-05)) ((9.728644e-04 1.865496e-04 -6.155864e-03) (-3.436535e-06 -1.513259e-07 3.536096e-06))
0.0264        	((7.992761e-01 9.773103e+03 4.270899e-01) (-1.065159e-05 -5.802168e+00 -3.360735e-05)) ((-2.048059e-04 1.474190e-04 1.441941e-03) (1.658044e-05 -7.616754e-07 -1.163985e-05))
0.04368       	((-9.360142e-01 3.166271e+03 -5.780640e-02) (-8.012376e-05 -1.489244e+01 -2.907249e-05)) ((-2.054924e-04 9.572130e-05 8.502801e-04) (3.872586e-04 -1.628835e-05 -3.883315e-04))
0.064416      	((-5.951204e-02 1.090130e+02 -3.142540e-01) (1.281748e-04 -2.735362e+01 7.945389e-04)) ((1.804980e-05 1.346949e-04 -1.234871e-05) (3.606940e-04 -3.091441e-05 -3.424269e-04))
0.0892992     	((-2.477614e-01 1.552312e+01 -3.196701e-01) (-3.212653e-04 -2.597294e+01 2.751510e-04)) ((-1.015823e-05 2.008428e-04 -1.630558e-04) (2.713511e-04 -3.389924e-05 -3.226504e-04))
0.119159      	((-1.931497e-02 -1.689119e+01 -5.289820e-02) (1.541129e-04 -2.460141e+01 -4.995765e-04)) ((4.821648e-05 2.474387e-04 -1.478045e-04) (1.407322e-04 -3.368409e-05 -2.800675e-04))
0.154991      	((-8.006744e-02 -4.249724e+01 -1.335536e-01) (-4.799224e-04 -2.337083e+01 -9.419004e-04)) ((7.945940e-05 2.553605e-04 -8.075087e-05) (1.238399e-04 -8.722365e-06 -2.002894e-04))
0.197989      	((-2.253957e-01 -5.129107e+01 -1.314539e-01) (-1.916816e-03 -2.230274e+01 -1.003153e-03)) ((4.597813e-05 2.187917e-04 -4.759004e-05) (1.425165e-04 7.194729e-05 -1.432889e-04))
0.249587      	((-1.347635e-01 -5.264278e+01 -1.060311e-01) (-7.961908e-04 -2.140552e+01 -7.775383e-04)) ((-1.712353e-05 1.613502e-04 -8.119447e-05) (8.836485e-05 7.867876e-05 -3.598492e-04))
0.311504      	((-7.978628e-02 -5.053489e+01 -7.484266e-02) (-6.215924e-04 -2.072395e+01 -5.736641e-04)) ((9.120358e-06 2.461508e-04 -5.900718e-05) (1.615602e-05 9.806063e-05 -4.175356e-04))
0.385805      	((-2.534343e-01 -5.173163e+01 -8.390835e-02) (-2.811994e-03 -2.024300e+01 -6.660644e-04)) ((1.421446e-05 2.791437e-04 -7.774520e-05) (-9.104530e-05 6.623952e-05 -2.071610e-04))
0.473315      	((-1.278005e-01 -5.285332e+01 -9.840586e-03) (-1.872337e-03 -1.988340e+01 -3.020430e-04)) ((1.344640e-05 2.557190e-04 2.014243e-05) (-1.470784e-04 8.156136e-05 -1.232466e-04))
0.574012      	((-2.661183e-02 -5.608946e+01 -7.245513e-03) (-6.061422e-04 -1.964589e+01 1.664243e-05)) ((2.269770e-05 2.200108e-04 -8.057080e-05) (-2.052584e-04 1.400707e-04 1.901706e-05))
0.687855      	((-6.624417e-02 -6.003452e+01 -2.033965e-03) (-1.298265e-03 -1.953119e+01 3.874931e-05)) ((7.247285e-06 2.444251e-04 -3.036427e-05) (-2.464954e-04 1.149520e-04 8.937667e-05))
0.814822      	((-1.955338e-02 -6.434401e+01 -6.652626e-03) (-8.460682e-04 -1.950756e+01 -1.384573e-05)) ((1.864925e-05 2.616876e-04 -8.961989e-06) (-2.752709e-04 7.883082e-05 1.240962e-04))
0.945652      	((5.224293e-02 -6.742990e+01 1.777864e-02) (-2.833013e-04 -1.954761e+01 7.173166e-05)) ((2.167907e-05 2.438620e-04 -2.780644e-05) (-2.991710e-04 1.107471e-04 1.467133e-04))
1.075528      	((7.057252e-02 -7.032327e+01 6.291000e-02) (-2.726284e-04 -1.960931e+01 1.183588e-04)) ((1.557041e-05 2.484887e-04 -2.368463e-05) (-3.279179e-04 1.383105e-04 2.525602e-04))
1.204527      	((1.441354e-01 -7.228023e+01 1.323892e-01) (-2.136032e-04 -1.964876e+01 2.401102e-04)) ((1.861756e-05 2.597397e-04 -3.866684e-05) (-3.363561e-04 1.397980e-04 3.121836e-04))
1.332857      	((2.104173e-01 -7.394057e+01 2.241333e-01) (-2.586196e-04 -1.964704e+01 3.948224e-04)) ((1.378384e-05 2.510983e-04 -2.576518e-05) (-2.539860e-04 1.331129e-04 2.428046e-04))
1.460695      	((3.303298e-01 -7.503255e+01 3.202475e-01) (-7.523327e-05 -1.961062e+01 3.556009e-04)) ((1.066390e-05 2.466404e-04 -2.950726e-05) (-5.479968e-05 1.231712e-04 7.128902e-06))
1.588502      	((4.181505e-01 -7.574003e+01 4.038086e-01) (-1.927731e-04 -1.955671e+01 8.722998e-05)) ((1.959200e-05 2.514035e-04 -4.159937e-05) (2.346353e-04 1.062682e-04 -2.876241e-04))
1.716579      	((5.505721e-01 -7.637953e+01 5.176686e-01) (-3.836102e-04 -1.950028e+01 -1.559285e-04)) ((2.931971e-05 2.442138e-04 -3.722319e-05) (5.122178e-04 1.162997e-04 -5.777596e-04))
1.844912      	((6.975979e-01 -7.687617e+01 6.681198e-01) (-3.638719e-04 -1.944768e+01 -1.555359e-04)) ((4.097227e-05 2.389441e-04 -4.231084e-05) (7.368651e-04 1.451147e-04 -7.608533e-04))
1.973333      	((8.654783e-01 -7.694580e+01 8.317811e-01) (1.272396e-05 -1.939957e+01 1.008071e-04)) ((4.771237e-05 2.340253e-04 -3.669441e-05) (9.154417e-04 1.514538e-04 -8.733251e-04))
2.101752      	((1.029090e+00 -7.659750e+01 9.855016e-01) (4.351253e-04 -1.935536e+01 4.896027e-04)) ((5.263845e-05 2.212523e-04 -3.620656e-05) (1.067133e-03 1.523949e-04 -9.476972e-04))
2.230167      	((1.162722e+00 -7.622959e+01 1.132033e+00) (6.388339e-04 -1.931531e+01 8.384090e-04)) ((5.438470e-05 2.139116e-04 -3.497887e-05) (1.206052e-03 1.570768e-04 -1.057560e-03))
2.358601      	((1.313055e+00 -7.576684e+01 1.286684e+00) (8.036831e-04 -1.927927e+01 1.191160e-03)) ((5.734104e-05 2.056412e-04 -3.211328e-05) (1.337585e-03 1.610454e-04 -1.225934e-03))
2.487072      	((1.490227e+00 -7.536983e+01 1.456060e+00) (1.114439e-03 -1.924653e+01 1.639516e-03)) ((5.970362e-05 1.993661e-04 -2.863096e-05) (1.507986e-03 1.645198e-04 -1.423094e-03))
2.615575      	((1.693016e+00 -7.508605e+01 1.637895e+00) (1.424708e-03 -1.921729e+01 1.987182e-03)) ((6.289393e-05 1.936174e-04 -2.699790e-05) (1.730162e-03 1.662936e-04 -1.678760e-03))
2.744098      	((1.915540e+00 -7.485743e+01 1.837350e+00) (1.521678e-03 -1.919152e+01 2.128217e-03)) ((6.110091e-05 1.937805e-04 -3.064942e-05) (2.039035e-03 1.635545e-04 -2.046959e-03))
2.87264       	((2.170326e+00 -7.466921e+01 2.063585e+00) (1.448950e-03 -1.916886e+01 2.113785e-03)) ((6.103326e-05 1.890015e-04 -3.265217e-05) (2.468986e-03 1.624491e-04 -2.546211e-03))
3.001206      	((2.473313e+00 -7.437430e+01 2.322185e+00) (1.410027e-03 -1.914893e+01 1.980168e-03)) ((6.028490e-05 1.858447e-04 -2.872541e-05) (3.031544e-03 1.639422e-04 -3.192558e-03))
3.129792      	((2.834251e+00 -7.392996e+01 2.630414e+00) (1.355654e-03 -1.913166e+01 1.749833e-03)) ((6.745887e-05 1.835182e-04 -3.184383e-05) (3.716173e-03 1.620797e-04 -3.981709e-03))
3.258391      	((3.203512e+00 -7.349752e+01 2.966177e+00) (1.013850e-03 -1.911692e+01 1.418347e-03)) ((7.448455e-05 1.820513e-04 -3.839830e-05) (4.511204e-03 1.564123e-04 -4.869524e-03))
3.387003      	((3.637994e+00 -7.306577e+01 3.352905e+00) (6.228756e-04 -1.910424e+01 1.003091e-03)) ((8.007880e-05 1.781824e-04 -4.054332e-05) (5.421980e-03 1.505149e-04 -5.866870e-03))
3.515623      	((4.175711e+00 -7.267739e+01 3.812016e+00) (4.696026e-04 -1.909327e+01 6.249977e-04)) ((8.613812e-05 1.766296e-04 -3.626988e-05) (6.455038e-03 1.444011e-04 -7.031201e-03))
3.644251      	((4.767637e+00 -7.234474e+01 4.340487e+00) (1.585777e-04 -1.908388e+01 3.031411e-04)) ((9.143089e-05 1.747709e-04 -3.610127e-05) (7.596590e-03 1.406969e-04 -8.296095e-03))
3.772884      	((5.445029e+00 -7.212280e+01 4.944972e+00) (-2.534912e-04 -1.907597e+01 -4.309489e-06)) ((9.812466e-05 1.730068e-04 -3.075293e-05) (8.826954e-03 1.391140e-04 -9.646411e-03))
3.901518      	((6.260880e+00 -7.198543e+01 5.648291e+00) (-2.124541e-04 -1.906925e+01 -1.546334e-04)) ((1.090586e-04 1.729655e-04 -2.091949e-05) (1.014956e-02 1.350120e-04 -1.117005e-02))
4.030151      	((7.197279e+00 -7.189065e+01 6.473112e+00) (9.172155e-05 -1.906335e+01 -1.786276e-05)) ((1.232919e-04 1.705911e-04 -1.946551e-05) (1.157138e-02 1.305787e-04 -1.281514e-02))
4.158781      	((8.237746e+00 -7.186270e+01 7.396810e+00) (3.944881e-04 -1.905826e+01 3.162377e-04)) ((1.400949e-04 1.678423e-04 -1.977226e-05) (1.308741e-02 1.292807e-04 -1.452302e-02))
4.287405      	((9.425614e+00 -7.187635e+01 8.435006e+00) (9.467508e-04 -1.905401e+01 7.553465e-04)) ((1.618471e-04 1.693987e-04 -1.964239e-05) (1.473041e-02 1.307504e-04 -1.639492e-02))
4.41602       	((1.075553e+01 -7.190779e+01 9.596051e+00) (1.763480e-03 -1.905022e+01 1.355077e-03)) ((1.867368e-04 1.653445e-04 -2.507101e-05) (1.655869e-02 1.312406e-04 -1.848761e-02))
4.544625      	((1.223656e+01 -7.196537e+01 1.089099e+01) (2.655141e-03 -1.904676e+01 2.107928e-03)) ((2.138749e-04 1.619183e-04 -3.015079e-05) (1.860376e-02 1.297040e-04 -2.082968e-02))
4.673217      	((1.389588e+01 -7.202677e+01 1.233687e+01) (3.569496e-03 -1.904364e+01 2.907440e-03)) ((2.450959e-04 1.622128e-04 -3.488296e-05) (2.089753e-02 1.271824e-04 -2.351296e-02))
4.801793      	((1.573589e+01 -7.212513e+01 1.395043e+01) (4.330146e-03 -1.904073e+01 3.707933e-03)) ((2.782282e-04 1.558123e-04 -4.471422e-05) (2.351381e-02 1.260291e-04 -2.655525e-02))
4.930352      	((1.780593e+01 -7.223377e+01 1.576654e+01) (4.958253e-03 -1.903818e+01 4.490983e-03)) ((3.142962e-04 1.495699e-04 -5.122270e-05) (2.653639e-02 1.275793e-04 -3.001087e-02))
5.05889       	((2.014856e+01 -7.236524e+01 1.779262e+01) (5.636806e-03 -1.903620e+01 5.195937e-03)) ((3.514732e-04 1.438436e-04 -5.308011e-05) (3.000164e-02 1.260483e-04 -3.400655e-02))
5.187405      	((2.278036e+01 -7.252640e+01 2.006882e+01) (6.368117e-03 -1.903491e+01 5.888494e-03)) ((3.925598e-04 1.319366e-04 -5.579198e-05) (3.393359e-02 1.222951e-04 -3.855562e-02))
5.315893      	((2.572509e+01 -7.271604e+01 2.263707e+01) (7.096781e-03 -1.903442e+01 6.750831e-03)) ((4.341563e-04 1.226855e-04 -5.542304e-05) (3.837626e-02 1.190668e-04 -4.363418e-02))
5.444352      	((2.901620e+01 -7.294724e+01 2.549858e+01) (8.021528e-03 -1.903484e+01 7.715204e-03)) ((4.815957e-04 1.093911e-04 -4.615060e-05) (4.333870e-02 1.161126e-04 -4.930641e-02))
5.572782      	((3.267052e+01 -7.322298e+01 2.866400e+01) (9.255739e-03 -1.903635e+01 8.835624e-03)) ((5.279017e-04 9.273958e-05 -3.125896e-05) (4.882218e-02 1.180293e-04 -5.561580e-02))
5.701179      	((3.672503e+01 -7.357758e+01 3.219361e+01) (1.076017e-02 -1.903899e+01 1.030829e-02)) ((5.785926e-04 8.374655e-05 -1.099292e-05) (5.486773e-02 1.196678e-04 -6.257460e-02))
5.829536      	((4.122528e+01 -7.402237e+01 3.608443e+01) (1.268343e-02 -1.904286e+01 1.201400e-02)) ((6.330051e-04 5.280675e-05 2.080610e-05) (6.149091e-02 1.206237e-04 -7.025811e-02))
5.957847      	((4.614589e+01 -7.459921e+01 4.036083e+01) (1.496880e-02 -1.904821e+01 1.398892e-02)) ((6.892379e-04 3.060323e-05 5.484859e-05) (6.874366e-02 1.222724e-04 -7.869021e-02))
6.086107      	((5.154350e+01 -7.540931e+01 4.503298e+01) (1.756892e-02 -1.905489e+01 1.647632e-02)) ((7.535348e-04 1.485247e-05 9.008657e-05) (7.673482e-02 1.181338e-04 -8.791849e-02))
6.214313      	((5.736410e+01 -7.642073e+01 5.008914e+01) (2.067136e-02 -1.906311e+01 1.937895e-02)) ((8.296315e-04 -2.117883e-05 1.275612e-04) (8.544098e-02 1.199635e-04 -9.798724e-02))
6.342453      	((6.358782e+01 -7.765034e+01 5.550467e+01) (2.412352e-02 -1.907319e+01 2.263946e-02)) ((9.081143e-04 -5.450823e-05 1.711107e-04) (9.484065e-02 1.326975e-04 -1.089039e-01))
6.470513      	((7.010046e+01 -7.931082e+01 6.111020e+01) (2.802843e-02 -1.908541e+01 2.625087e-02)) ((9.778985e-04 -9.632878e-05 2.319468e-04) (1.049090e-01 1.459112e-04 -1.206369e-01))
6.598483      	((7.679365e+01 -8.122472e+01 6.681072e+01) (3.229289e-02 -1.910001e+01 3.017965e-02)) ((1.037646e-03 -1.393609e-04 3.125312e-04) (1.155501e-01 1.530939e-04 -1.331620e-01))
6.726343      	((8.347627e+01 -8.342824e+01 7.247301e+01) (3.654568e-02 -1.911732e+01 3.437225e-02)) ((1.064141e-03 -1.838384e-04 4.399084e-04) (1.266186e-01 1.561511e-04 -1.463552e-01))
6.854092      	((8.986167e+01 -8.607508e+01 7.784837e+01) (4.091477e-02 -1.913734e+01 3.877237e-02)) ((1.051399e-03 -2.225170e-04 6.069415e-04) (1.379090e-01 1.634020e-04 -1.599752e-01))
6.981732      	((9.562783e+01 -8.913800e+01 8.261674e+01) (4.586951e-02 -1.915963e+01 4.335856e-02)) ((9.885585e-04 -2.476440e-04 8.118177e-04) (1.490584e-01 1.825632e-04 -1.735570e-01))
7.109259      	((1.002672e+02 -9.258590e+01 8.644276e+01) (5.126032e-02 -1.918398e+01 4.814259e-02)) ((8.594898e-04 -2.439269e-04 1.025789e-03) (1.595483e-01 2.098734e-04 -1.863454e-01))
7.236674      	((1.034633e+02 -9.588108e+01 8.896243e+01) (5.675875e-02 -1.921003e+01 5.318718e-02)) ((6.834100e-04 -2.243861e-04 1.241098e-03) (1.686945e-01 2.543730e-04 -1.976657e-01))
7.363986      	((1.050382e+02 -9.876732e+01 8.998964e+01) (6.262412e-02 -1.923707e+01 5.837196e-02)) ((4.412946e-04 -2.062450e-04 1.480716e-03) (1.757829e-01 3.131393e-04 -2.068526e-01))
7.491204      	((1.047955e+02 -1.011400e+02 8.940076e+01) (6.784148e-02 -1.926454e+01 6.300914e-02)) ((1.848420e-04 -1.428410e-04 1.733468e-03) (1.805570e-01 3.693078e-04 -2.135520e-01))
7.618339      	((1.029433e+02 -1.029425e+02 8.724402e+01) (7.080976e-02 -1.929156e+01 6.606187e-02)) ((-8.803785e-05 -5.768801e-05 1.942908e-03) (1.831069e-01 4.089109e-04 -2.178368e-01))
7.74541       	((9.971432e+01 -1.041044e+02 8.385452e+01) (7.090598e-02 -1.931696e+01 6.625928e-02)) ((-3.130559e-04 4.680335e-05 2.073707e-03) (1.837043e-01 4.134507e-04 -2.201440e-01))
7.872439      	((9.553939e+01 -1.044472e+02 7.988282e+01) (6.737283e-02 -1.933988e+01 6.310790e-02)) ((-4.314345e-04 1.245275e-04 2.084787e-03) (1.828839e-01 3.883157e-04 -2.209470e-01))
7.999445      	((9.122366e+01 -1.040016e+02 7.601842e+01) (5.960289e-02 -1.935987e+01 5.709574e-02)) ((-4.016923e-04 1.392756e-04 2.005677e-03) (1.813081e-01 3.485798e-04 -2.206634e-01))
8.126449      	((8.767966e+01 -1.032233e+02 7.291120e+01) (4.969369e-02 -1.937662e+01 4.901580e-02)) ((-2.497167e-04 9.591562e-05 1.866226e-03) (1.794391e-01 2.470528e-04 -2.196711e-01))
8.25347       	((8.544348e+01 -1.022491e+02 7.082465e+01) (4.015864e-02 -1.939057e+01 4.018533e-02)) ((-3.617230e-05 -6.375650e-06 1.696103e-03) (1.774731e-01 1.461078e-04 -2.182347e-01))
8.380519      	((8.440234e+01 -1.008735e+02 7.004857e+01) (3.175287e-02 -1.940268e+01 3.278172e-02)) ((1.853043e-04 -1.606550e-04 1.581080e-03) (1.755506e-01 7.245191e-05 -2.163936e-01))
8.507602      	((8.431340e+01 -9.930101e+01 6.998234e+01) (2.707983e-02 -1.941352e+01 2.861353e-02)) ((3.408732e-04 -3.443039e-04 1.577168e-03) (1.734064e-01 4.547800e-05 -2.138589e-01))
8.634718      	((8.453816e+01 -9.777846e+01 7.017681e+01) (2.868564e-02 -1.942370e+01 2.815741e-02)) ((4.417026e-04 -5.254502e-04 1.620869e-03) (1.705651e-01 5.666493e-05 -2.103015e-01))
8.761863      	((8.446180e+01 -9.652482e+01 7.035941e+01) (3.321509e-02 -1.943357e+01 3.031068e-02)) ((4.788551e-04 -6.321072e-04 1.634647e-03) (1.675151e-01 5.301148e-05 -2.059986e-01))
8.889028      	((8.365884e+01 -9.567886e+01 6.987100e+01) (3.684220e-02 -1.944325e+01 3.312750e-02)) ((4.500554e-04 -6.458955e-04 1.645045e-03) (1.646850e-01 3.524856e-05 -2.015945e-01))
9.016209      	((8.207258e+01 -9.549093e+01 6.865704e+01) (4.042848e-02 -1.945136e+01 3.487301e-02)) ((3.490180e-04 -6.043705e-04 1.634221e-03) (1.621320e-01 1.937971e-05 -1.979723e-01))
9.1434        	((7.985182e+01 -9.561526e+01 6.686239e+01) (4.202753e-02 -1.945749e+01 3.512942e-02)) ((2.311732e-04 -5.563263e-04 1.580059e-03) (1.599123e-01 1.779659e-05 -1.950976e-01))
9.270602      	((7.713419e+01 -9.584271e+01 6.483248e+01) (3.802665e-02 -1.946353e+01 3.344604e-02)) ((1.057516e-04 -4.329169e-04 1.508853e-03) (1.579721e-01 -3.957580e-06 -1.921796e-01))
9.397817      	((7.488214e+01 -9.606422e+01 6.290247e+01) (3.343662e-02 -1.946764e+01 2.959347e-02)) ((2.843562e-06 -3.140525e-04 1.418064e-03) (1.563320e-01 -2.457258e-06 -1.899102e-01))
9.525049      	((7.336049e+01 -9.620410e+01 6.143775e+01) (2.944201e-02 -1.946892e+01 2.472954e-02)) ((-3.139567e-05 -3.000853e-04 1.283932e-03) (1.552485e-01 6.257664e-06 -1.886330e-01))
9.652303      	((7.244298e+01 -9.613034e+01 6.082523e+01) (2.098362e-02 -1.947028e+01 1.932248e-02)) ((2.873425e-05 -3.321367e-04 1.158824e-03) (1.548523e-01 -1.219331e-04 -1.876591e-01))
9.779581      	((7.298617e+01 -9.578851e+01 6.106647e+01) (1.375564e-02 -1.947022e+01 1.377255e-02)) ((1.230651e-04 -3.681047e-04 1.080520e-03) (1.549920e-01 -3.936805e-04 -1.876239e-01))
9.906884      	((7.447933e+01 -9.531517e+01 6.208907e+01) (1.245627e-02 -1.946802e+01 1.049243e-02)) ((2.243000e-04 -4.806333e-04 1.020128e-03) (1.553539e-01 -7.103117e-04 -1.882665e-01))
10.03421      	((7.594164e+01 -9.474464e+01 6.328912e+01) (1.183034e-02 -1.946743e+01 1.051464e-02)) ((3.002382e-04 -6.344081e-04 1.029243e-03) (1.554824e-01 -9.963250e-04 -1.880134e-01))
10.161553     	((7.727679e+01 -9.425380e+01 6.453211e+01) (1.332947e-02 -1.946808e+01 1.243200e-02)) ((3.407416e-04 -6.684756e-04 1.043187e-03) (1.551940e-01 -1.190656e-03 -1.870498e-01))
10.288906     	((7.836580e+01 -9.450299e+01 6.533394e+01) (2.075526e-02 -1.946704e+01 1.571926e-02)) ((3.651243e-04 -7.159081e-04 1.063428e-03) (1.547943e-01 -1.257513e-03 -1.862634e-01))
10.416264     	((7.817727e+01 -9.549071e+01 6.531138e+01) (2.580519e-02 -1.946645e+01 1.946072e-02)) ((3.555308e-04 -8.227746e-04 1.146152e-03) (1.545845e-01 -1.238255e-03 -1.852563e-01))
10.54362      	((7.730612e+01 -9.680390e+01 6.477286e+01) (2.594133e-02 -1.946672e+01 2.124652e-02)) ((2.516068e-04 -7.557239e-04 1.251178e-03) (1.547235e-01 -1.147226e-03 -1.845525e-01))
10.670972     	((7.643791e+01 -9.767666e+01 6.391042e+01) (2.733373e-02 -1.946425e+01 2.020851e-02)) ((1.219693e-04 -6.454846e-04 1.296233e-03) (1.554508e-01 -9.837693e-04 -1.853067e-01))
10.798321     	((7.507635e+01 -9.823452e+01 6.295557e+01) (2.460230e-02 -1.946064e+01 1.731338e-02)) ((5.525348e-05 -6.791527e-04 1.317603e-03) (1.568458e-01 -8.501123e-04 -1.866509e-01))
10.925671     	((7.346572e+01 -9.857081e+01 6.183221e+01) (1.585974e-02 -1.945789e+01 1.249237e-02)) ((-3.152999e-06 -6.363737e-04 1.338337e-03) (1.584273e-01 -7.928225e-04 -1.879440e-01))
11.053026     	((7.254151e+01 -9.845961e+01 6.101310e+01) (1.006566e-02 -1.945304e+01 6.480018e-03)) ((-3.236464e-05 -5.529310e-04 1.303201e-03) (1.598500e-01 -7.521350e-04 -1.898334e-01))
11.180393     	((7.213038e+01 -9.803444e+01 6.079827e+01) (5.000360e-03 -1.944666e+01 1.868192e-03)) ((3.146618e-05 -6.732223e-04 1.238188e-03) (1.611007e-01 -7.621029e-04 -1.915155e-01))
11.307776     	((7.219668e+01 -9.772665e+01 6.104917e+01) (-1.962659e-03 -1.944158e+01 -7.000820e-04)) ((8.985349e-05 -7.301392e-04 1.206050e-03) (1.617832e-01 -8.257237e-04 -1.921057e-01))
11.435177     	((7.317980e+01 -9.741834e+01 6.166043e+01) (-3.076465e-03 -1.943600e+01 -1.860433e-03)) ((1.368656e-04 -6.602863e-04 1.156819e-03) (1.617078e-01 -8.339938e-04 -1.925085e-01))
