# Forces      
# CofR        : (0.000000e+00 0.000000e+00 0.000000e+00)
# Time        forces(pressure viscous)	moments(pressure viscous)
0             	((0.000000e+00 0.000000e+00 0.000000e+00) (-4.578116e-08 -6.114473e+02 -2.694615e-08)) ((0.000000e+00 0.000000e+00 0.000000e+00) (1.598865e-05 -2.941229e-09 -9.375625e-05))
0.00767474    	((8.770673e+01 -3.654296e+05 9.464357e+01) (2.654061e-02 -7.404751e+02 2.690965e-02)) ((1.116506e-02 1.333831e-02 -6.087991e-02) (4.282955e-02 -4.628397e-04 -4.162935e-02))
0.0168844     	((-3.885887e+01 1.748270e+05 -3.977158e+01) (-1.020273e-02 -7.184008e+02 -8.117756e-03)) ((-3.139241e-03 1.063408e-02 1.867894e-02) (1.922671e-02 -1.203952e-03 -2.233288e-02))
0.027936      	((-1.494456e+01 -3.930784e+04 -1.584127e+01) (2.858548e-02 -6.072467e+02 9.083855e-03)) ((5.469710e-04 1.110114e-02 -2.846628e-03) (2.335536e-02 -1.723197e-03 -2.676075e-02))
0.041091      	((-4.757883e-01 1.560142e+04 -8.525769e-01) (3.602992e-02 -5.790752e+02 2.645317e-02)) ((2.181371e-03 6.889438e-03 1.616692e-04) (2.482116e-02 -1.648755e-04 -2.584725e-02))
0.0563574     	((-4.022071e+00 -1.048789e+04 -1.681473e+00) (-2.088117e-02 -5.603244e+02 6.261520e-03)) ((1.913840e-03 8.917935e-03 -2.225485e-03) (9.301107e-03 1.140152e-03 -1.186544e-02))
0.0737192     	((-3.355425e+00 1.543080e+03 1.644704e-01) (-3.991003e-02 -5.589878e+02 -1.204769e-02)) ((4.492719e-04 7.376857e-03 -2.049023e-03) (5.788812e-03 3.293233e-04 -1.535063e-02))
0.0931613     	((-8.518388e+00 -4.120234e+03 -5.684299e-01) (-9.969923e-02 -5.573772e+02 -1.212432e-02)) ((1.130197e-03 7.465925e-03 -8.625891e-04) (-3.656679e-03 3.386270e-04 -1.238084e-02))
0.113807      	((-5.923043e+00 -1.503491e+03 4.727454e-01) (-7.706363e-02 -5.580979e+02 3.699977e-03)) ((6.841523e-04 1.112222e-02 -2.938198e-03) (-6.962940e-03 1.183768e-03 -7.747705e-03))
0.134499      	((3.085708e+00 -2.843203e+03 -1.923268e+00) (-3.084692e-02 -5.600870e+02 -5.132179e-03)) ((6.367191e-04 9.737696e-03 -2.022060e-03) (-9.611810e-03 2.081063e-03 -1.250922e-03))
0.155089      	((6.651719e-01 -2.252929e+03 -1.691001e+00) (-1.952099e-02 -5.634464e+02 -7.524061e-03)) ((1.554137e-03 9.693628e-03 -1.163693e-03) (-1.084950e-02 2.850942e-03 5.998777e-03))
0.175525      	((2.907076e+00 -2.644043e+03 1.439839e-01) (-2.703279e-03 -5.664583e+02 -1.515825e-03)) ((3.997199e-04 1.038411e-02 -2.090062e-03) (-1.289341e-02 2.651632e-03 8.841674e-03))
0.19582       	((4.571009e+00 -2.535958e+03 1.846766e+00) (-7.252736e-03 -5.686572e+02 1.770567e-03)) ((9.116216e-04 1.128605e-02 -1.352437e-03) (-1.397292e-02 2.386204e-03 6.496459e-03))
0.216014      	((5.965526e+00 -2.642928e+03 3.668057e+00) (5.537668e-04 -5.695555e+02 1.124809e-02)) ((7.436545e-04 9.580148e-03 -1.486404e-03) (-1.246283e-02 2.846849e-03 4.070161e-03))
0.236139      	((9.766797e+00 -2.630404e+03 5.119153e+00) (8.448691e-03 -5.694341e+02 8.639217e-03)) ((4.930672e-04 1.085162e-02 -1.320710e-03) (-1.089448e-02 2.637595e-03 -5.162901e-04))
0.256252      	((1.048042e+01 -2.642225e+03 6.836503e+00) (9.224201e-04 -5.688606e+02 8.234438e-03)) ((7.825938e-04 1.016057e-02 -1.615991e-03) (-7.484731e-03 2.757590e-03 -4.204445e-03))
0.276407      	((1.325941e+01 -2.634891e+03 9.273351e+00) (6.769157e-04 -5.681712e+02 9.465835e-03)) ((9.166501e-04 9.710287e-03 -1.733750e-03) (-3.540218e-03 2.836132e-03 -7.640409e-03))
0.296602      	((1.670464e+01 -2.632995e+03 1.149667e+01) (3.890880e-03 -5.675100e+02 1.038270e-02)) ((1.280936e-03 9.887873e-03 -1.404591e-03) (-4.995630e-04 3.090140e-03 -1.263372e-02))
0.316805      	((1.970129e+01 -2.631566e+03 1.437880e+01) (1.376173e-02 -5.669449e+02 1.746763e-02)) ((1.308431e-03 9.138769e-03 -2.100739e-03) (9.761763e-04 3.985065e-03 -1.449103e-02))
0.336994      	((2.343485e+01 -2.618991e+03 1.682632e+01) (1.920639e-02 -5.663978e+02 2.222139e-02)) ((1.318046e-03 9.312252e-03 -1.160576e-03) (1.138609e-03 4.306681e-03 -1.544652e-02))
0.357176      	((2.623540e+01 -2.607664e+03 1.939798e+01) (2.213118e-02 -5.658929e+02 2.703461e-02)) ((1.449612e-03 8.512193e-03 -1.537392e-03) (1.606358e-03 4.443645e-03 -1.711406e-02))
0.377362      	((3.080604e+01 -2.594912e+03 2.284053e+01) (2.873600e-02 -5.654508e+02 3.152883e-02)) ((1.371214e-03 8.470456e-03 -1.350126e-03) (3.009578e-03 4.610369e-03 -1.938564e-02))
0.397553      	((3.583128e+01 -2.586886e+03 2.687200e+01) (3.065522e-02 -5.650744e+02 3.388022e-02)) ((1.435664e-03 8.113988e-03 -1.106723e-03) (6.081712e-03 4.598195e-03 -2.347880e-02))
0.417747      	((4.174399e+01 -2.584448e+03 3.175557e+01) (3.174970e-02 -5.647489e+02 3.474031e-02)) ((1.552250e-03 7.945124e-03 -1.520183e-03) (1.133525e-02 4.729957e-03 -2.942335e-02))
0.437942      	((4.925710e+01 -2.587405e+03 3.774265e+01) (3.023335e-02 -5.644630e+02 3.251183e-02)) ((1.748944e-03 7.858996e-03 -1.628100e-03) (1.902183e-02 4.718191e-03 -3.839826e-02))
0.458137      	((5.789088e+01 -2.591231e+03 4.476714e+01) (2.699913e-02 -5.642156e+02 2.853685e-02)) ((2.101018e-03 7.752727e-03 -1.943478e-03) (2.914720e-02 4.604323e-03 -5.036037e-02))
0.478334      	((6.807460e+01 -2.596443e+03 5.284227e+01) (2.293728e-02 -5.639940e+02 2.235565e-02)) ((2.414928e-03 7.670335e-03 -2.118914e-03) (4.146222e-02 4.546922e-03 -6.495407e-02))
0.498533      	((7.972235e+01 -2.602181e+03 6.229297e+01) (1.636602e-02 -5.637984e+02 1.485323e-02)) ((2.670041e-03 7.606567e-03 -2.234271e-03) (5.628867e-02 4.568375e-03 -8.270974e-02))
0.518732      	((9.394327e+01 -2.607182e+03 7.409703e+01) (8.490958e-03 -5.636311e+02 7.835508e-03)) ((2.947992e-03 7.547182e-03 -2.307634e-03) (7.384210e-02 4.609861e-03 -1.032646e-01))
0.538932      	((1.107778e+02 -2.609591e+03 8.825913e+01) (-8.863053e-04 -5.634905e+02 -5.138725e-04)) ((3.341522e-03 7.445502e-03 -2.328775e-03) (9.444559e-02 4.600078e-03 -1.276014e-01))
0.559132      	((1.304267e+02 -2.610142e+03 1.047292e+02) (-1.006111e-02 -5.633707e+02 -1.019842e-02)) ((3.765383e-03 7.406670e-03 -2.321096e-03) (1.182430e-01 4.558067e-03 -1.558793e-01))
0.579332      	((1.531222e+02 -2.609201e+03 1.240460e+02) (-1.981941e-02 -5.632691e+02 -1.961892e-02)) ((4.208473e-03 7.353802e-03 -2.292824e-03) (1.455889e-01 4.541063e-03 -1.884398e-01))
0.599532      	((1.790199e+02 -2.608353e+03 1.463233e+02) (-3.014067e-02 -5.631825e+02 -2.780897e-02)) ((4.706207e-03 7.213670e-03 -2.259610e-03) (1.767966e-01 4.542893e-03 -2.256471e-01))
0.619732      	((2.085134e+02 -2.607728e+03 1.714512e+02) (-3.994938e-02 -5.631046e+02 -3.571397e-02)) ((5.249424e-03 7.096549e-03 -2.220473e-03) (2.120964e-01 4.563259e-03 -2.677760e-01))
0.639931      	((2.416385e+02 -2.607996e+03 1.995420e+02) (-4.918197e-02 -5.630292e+02 -4.410119e-02)) ((5.874168e-03 7.054357e-03 -2.280129e-03) (2.517836e-01 4.596852e-03 -3.152721e-01))
0.66013       	((2.786520e+02 -2.608969e+03 2.308131e+02) (-5.847206e-02 -5.629556e+02 -5.230966e-02)) ((6.546325e-03 7.039499e-03 -2.376086e-03) (2.963353e-01 4.630401e-03 -3.684036e-01))
0.680327      	((3.197262e+02 -2.610927e+03 2.654752e+02) (-6.847622e-02 -5.628854e+02 -6.058390e-02)) ((7.357040e-03 6.959641e-03 -2.526761e-03) (3.461109e-01 4.649598e-03 -4.277740e-01))
0.700523      	((3.655812e+02 -2.613445e+03 3.040156e+02) (-7.880282e-02 -5.628174e+02 -7.031383e-02)) ((8.237426e-03 6.849874e-03 -2.689623e-03) (4.015941e-01 4.657110e-03 -4.941963e-01))
0.720717      	((4.170259e+02 -2.616289e+03 3.470764e+02) (-8.955780e-02 -5.627503e+02 -8.152647e-02)) ((9.213394e-03 6.779230e-03 -2.876772e-03) (4.636502e-01 4.713721e-03 -5.684490e-01))
0.740909      	((4.746838e+02 -2.619529e+03 3.953847e+02) (-1.018322e-01 -5.626863e+02 -9.337253e-02)) ((1.028013e-02 6.611506e-03 -3.090017e-03) (5.334773e-01 4.825193e-03 -6.512265e-01))
0.7611        	((5.389770e+02 -2.622996e+03 4.494666e+02) (-1.156136e-01 -5.626284e+02 -1.058927e-01)) ((1.153587e-02 6.361020e-03 -3.408890e-03) (6.116825e-01 4.927754e-03 -7.434246e-01))
0.781287      	((6.105739e+02 -2.626862e+03 5.098709e+02) (-1.300231e-01 -5.625769e+02 -1.194834e-01)) ((1.294810e-02 6.119134e-03 -3.716654e-03) (6.984096e-01 4.997135e-03 -8.461279e-01))
0.801473      	((6.906995e+02 -2.630824e+03 5.769312e+02) (-1.448011e-01 -5.625312e+02 -1.338876e-01)) ((1.443986e-02 5.947603e-03 -4.007647e-03) (7.944039e-01 5.044253e-03 -9.602322e-01))
0.821655      	((7.795569e+02 -2.634800e+03 6.515468e+02) (-1.610223e-01 -5.624924e+02 -1.483487e-01)) ((1.598018e-02 5.715885e-03 -4.092514e-03) (9.006763e-01 5.122721e-03 -1.086639e+00))
0.841833      	((8.781134e+02 -2.639916e+03 7.342641e+02) (-1.779084e-01 -5.624633e+02 -1.620033e-01)) ((1.754748e-02 5.340969e-03 -4.091056e-03) (1.017641e+00 5.211292e-03 -1.226042e+00))
0.862008      	((9.874428e+02 -2.647317e+03 8.254590e+02) (-1.933808e-01 -5.624452e+02 -1.761416e-01)) ((1.903091e-02 5.003554e-03 -3.839901e-03) (1.145932e+00 5.192974e-03 -1.379155e+00))
0.882178      	((1.108617e+03 -2.656065e+03 9.258104e+02) (-2.066387e-01 -5.624412e+02 -1.904401e-01)) ((2.058214e-02 4.680065e-03 -3.316494e-03) (1.286224e+00 5.041107e-03 -1.546894e+00))
0.902343      	((1.242534e+03 -2.667769e+03 1.036693e+03) (-2.180605e-01 -5.624578e+02 -2.017501e-01)) ((2.224787e-02 4.324306e-03 -2.557440e-03) (1.438883e+00 4.847913e-03 -1.730217e+00))
0.922502      	((1.390345e+03 -2.683029e+03 1.158519e+03) (-2.257948e-01 -5.625010e+02 -2.078701e-01)) ((2.398549e-02 3.883889e-03 -1.548500e-03) (1.604442e+00 4.594595e-03 -1.930098e+00))
0.942654      	((1.552598e+03 -2.701950e+03 1.291718e+03) (-2.252822e-01 -5.625750e+02 -2.088044e-01)) ((2.584444e-02 3.437829e-03 -2.545207e-04) (1.782943e+00 4.271329e-03 -2.146801e+00))
0.962798      	((1.731052e+03 -2.725503e+03 1.436782e+03) (-2.137087e-01 -5.626838e+02 -2.030276e-01)) ((2.789440e-02 2.921714e-03 1.330315e-03) (1.975088e+00 3.887153e-03 -2.381500e+00))
0.982934      	((1.923474e+03 -2.755723e+03 1.594804e+03) (-1.907589e-01 -5.628330e+02 -1.870337e-01)) ((3.029294e-02 2.367281e-03 2.925533e-03) (2.182229e+00 3.723902e-03 -2.634915e+00))
1.00306       	((2.128401e+03 -2.795386e+03 1.763534e+03) (-1.556340e-01 -5.630285e+02 -1.587625e-01)) ((3.313276e-02 1.863118e-03 4.516674e-03) (2.403118e+00 3.750694e-03 -2.905734e+00))
1.023177      	((2.342755e+03 -2.842300e+03 1.941071e+03) (-1.043692e-01 -5.632738e+02 -1.154248e-01)) ((3.623123e-02 1.060278e-03 5.981030e-03) (2.634796e+00 3.816269e-03 -3.191228e+00))
1.043284      	((2.563408e+03 -2.897774e+03 2.122742e+03) (-3.102206e-02 -5.635642e+02 -5.022288e-02)) ((3.849386e-02 1.715640e-04 8.060124e-03) (2.873362e+00 4.178820e-03 -3.486617e+00))
1.063379      	((2.782433e+03 -2.967706e+03 2.299856e+03) (6.196814e-02 -5.638967e+02 3.792907e-02)) ((3.932023e-02 -1.272602e-03 1.116387e-02) (3.114009e+00 4.815556e-03 -3.788455e+00))
1.083462      	((2.989628e+03 -3.049152e+03 2.464550e+03) (1.707956e-01 -5.642668e+02 1.428826e-01)) ((3.874771e-02 -2.964310e-03 1.610321e-02) (3.351822e+00 5.893760e-03 -4.092403e+00))
1.103533      	((3.174154e+03 -3.145408e+03 2.611765e+03) (2.890145e-01 -5.646721e+02 2.585064e-01)) ((3.609021e-02 -4.406979e-03 2.224081e-02) (3.582182e+00 7.463627e-03 -4.391792e+00))
1.123591      	((3.324144e+03 -3.250094e+03 2.727951e+03) (4.039261e-01 -5.651118e+02 3.740266e-01)) ((3.136809e-02 -5.219967e-03 2.932500e-02) (3.798759e+00 9.039834e-03 -4.677654e+00))
1.143638      	((3.424836e+03 -3.351159e+03 2.800808e+03) (5.069891e-01 -5.655871e+02 4.784306e-01)) ((2.480876e-02 -5.105574e-03 3.763165e-02) (3.991550e+00 1.003696e-02 -4.937189e+00))
1.163674      	((3.465110e+03 -3.435370e+03 2.820793e+03) (5.904067e-01 -5.660906e+02 5.641502e-01)) ((1.665059e-02 -3.692028e-03 4.581195e-02) (4.147336e+00 1.017297e-02 -5.154959e+00))
1.1837        	((3.446961e+03 -3.498501e+03 2.791170e+03) (6.462255e-01 -5.666100e+02 6.292516e-01)) ((8.991910e-03 -9.610528e-04 5.246555e-02) (4.253033e+00 9.424369e-03 -5.316840e+00))
1.203718      	((3.381333e+03 -3.539279e+03 2.723115e+03) (6.687506e-01 -5.671175e+02 6.725257e-01)) ((3.733931e-03 1.053950e-03 5.588364e-02) (4.304655e+00 8.407103e-03 -5.419657e+00))
1.22373       	((3.282942e+03 -3.560563e+03 2.629274e+03) (6.430902e-01 -5.675774e+02 6.859238e-01)) ((2.044820e-03 2.694024e-03 5.619275e-02) (4.307994e+00 7.828617e-03 -5.472724e+00))
1.243738      	((3.174917e+03 -3.569218e+03 2.530383e+03) (5.664006e-01 -5.679732e+02 6.588587e-01)) ((3.878886e-03 4.153883e-03 5.334260e-02) (4.277803e+00 7.230535e-03 -5.484375e+00))
1.263745      	((3.077481e+03 -3.565659e+03 2.437713e+03) (4.608836e-01 -5.682948e+02 6.008585e-01)) ((8.836862e-03 3.747869e-03 4.837922e-02) (4.227308e+00 6.602519e-03 -5.468431e+00))
1.283752      	((3.003828e+03 -3.550416e+03 2.362075e+03) (3.397742e-01 -5.685395e+02 5.239990e-01)) ((1.479971e-02 1.800959e-03 4.391921e-02) (4.166718e+00 5.235782e-03 -5.440215e+00))
1.30376       	((2.956482e+03 -3.533498e+03 2.311029e+03) (2.212886e-01 -5.687292e+02 4.406149e-01)) ((2.018859e-02 -2.030497e-03 4.337157e-02) (4.104842e+00 3.478269e-03 -5.404451e+00))
1.32377       	((2.935747e+03 -3.511311e+03 2.282442e+03) (1.285487e-01 -5.688773e+02 3.692831e-01)) ((2.411488e-02 -7.347532e-03 4.442017e-02) (4.047129e+00 2.573447e-03 -5.366454e+00))
1.343784      	((2.933605e+03 -3.488237e+03 2.271036e+03) (8.983481e-02 -5.689990e+02 3.325688e-01)) ((2.643842e-02 -1.182667e-02 4.505838e-02) (3.991788e+00 1.959785e-03 -5.324859e+00))
1.3638        	((2.936778e+03 -3.469100e+03 2.264843e+03) (1.116933e-01 -5.691238e+02 3.372998e-01)) ((2.766911e-02 -1.465004e-02 4.412566e-02) (3.934577e+00 7.502960e-04 -5.272218e+00))
1.383818      	((2.930890e+03 -3.454543e+03 2.252957e+03) (1.687079e-01 -5.692655e+02 3.688473e-01)) ((2.812300e-02 -1.660854e-02 4.332624e-02) (3.876126e+00 -7.614647e-04 -5.209799e+00))
1.403839      	((2.908256e+03 -3.442823e+03 2.225992e+03) (2.398052e-01 -5.694137e+02 4.035233e-01)) ((2.736617e-02 -1.770538e-02 4.287080e-02) (3.820947e+00 -3.274862e-03 -5.144164e+00))
1.423862      	((2.866466e+03 -3.429083e+03 2.182811e+03) (2.977379e-01 -5.695527e+02 4.176137e-01)) ((2.577364e-02 -1.748248e-02 4.231706e-02) (3.770954e+00 -7.463888e-03 -5.078733e+00))
1.443887      	((2.806620e+03 -3.424448e+03 2.130457e+03) (3.178059e-01 -5.696707e+02 4.000740e-01)) ((2.337844e-02 -1.665487e-02 4.195287e-02) (3.726053e+00 -1.217667e-02 -5.014458e+00))
1.463913      	((2.743686e+03 -3.424387e+03 2.077473e+03) (2.934937e-01 -5.697556e+02 3.505276e-01)) ((2.125707e-02 -1.599472e-02 4.154917e-02) (3.688777e+00 -1.606947e-02 -4.957700e+00))
1.483942      	((2.687250e+03 -3.422931e+03 2.030422e+03) (2.306835e-01 -5.698030e+02 2.735453e-01)) ((1.925795e-02 -1.509008e-02 4.040820e-02) (3.660791e+00 -1.920082e-02 -4.913147e+00))
1.503972      	((2.647517e+03 -3.420304e+03 2.000049e+03) (1.402932e-01 -5.698199e+02 1.795144e-01)) ((1.763685e-02 -1.463162e-02 3.851545e-02) (3.642489e+00 -2.219565e-02 -4.879105e+00))
1.524006      	((2.631944e+03 -3.415198e+03 1.985729e+03) (4.425950e-02 -5.698073e+02 8.434750e-02)) ((1.721896e-02 -1.567512e-02 3.672995e-02) (3.634078e+00 -2.535153e-02 -4.855845e+00))
1.544042      	((2.636233e+03 -3.411959e+03 1.988989e+03) (-3.180314e-02 -5.697665e+02 7.939470e-03)) ((1.777307e-02 -1.773589e-02 3.535748e-02) (3.632978e+00 -2.828789e-02 -4.843606e+00))
1.564081      	((2.655772e+03 -3.413000e+03 2.002243e+03) (-7.115433e-02 -5.697114e+02 -3.442023e-02)) ((1.944865e-02 -2.019687e-02 3.382264e-02) (3.633667e+00 -3.033655e-02 -4.836630e+00))
1.584122      	((2.678387e+03 -3.420088e+03 2.021592e+03) (-7.493740e-02 -5.696556e+02 -4.046977e-02)) ((2.140492e-02 -2.257876e-02 3.260517e-02) (3.633236e+00 -3.125119e-02 -4.829470e+00))
1.604165      	((2.697098e+03 -3.434051e+03 2.037773e+03) (-5.348144e-02 -5.696008e+02 -1.951516e-02)) ((2.294607e-02 -2.453213e-02 3.198694e-02) (3.632769e+00 -3.097460e-02 -4.823184e+00))
1.624209      	((2.708150e+03 -3.452961e+03 2.045229e+03) (-1.852734e-02 -5.695403e+02 1.345297e-02)) ((2.379994e-02 -2.591952e-02 3.204231e-02) (3.633658e+00 -2.998629e-02 -4.821808e+00))
1.644255      	((2.707155e+03 -3.472414e+03 2.039789e+03) (1.109673e-02 -5.694700e+02 4.119489e-02)) ((2.367787e-02 -2.637395e-02 3.263471e-02) (3.636219e+00 -2.881522e-02 -4.826476e+00))
1.664301      	((2.691108e+03 -3.489753e+03 2.022681e+03) (1.167503e-02 -5.693888e+02 4.960206e-02)) ((2.228591e-02 -2.593254e-02 3.353790e-02) (3.640367e+00 -2.786422e-02 -4.837338e+00))
1.684348      	((2.666545e+03 -3.503432e+03 1.995824e+03) (-2.258084e-02 -5.692943e+02 3.353021e-02)) ((2.008405e-02 -2.510077e-02 3.437810e-02) (3.645420e+00 -2.769994e-02 -4.853930e+00))
1.704395      	((2.636474e+03 -3.509381e+03 1.963631e+03) (-8.256575e-02 -5.691825e+02 -4.882383e-03)) ((1.807572e-02 -2.416195e-02 3.468453e-02) (3.649551e+00 -2.893758e-02 -4.873112e+00))
1.724444      	((2.608323e+03 -3.510818e+03 1.930522e+03) (-1.590824e-01 -5.690517e+02 -5.856835e-02)) ((1.684591e-02 -2.341990e-02 3.471882e-02) (3.650408e+00 -3.164360e-02 -4.891089e+00))
1.744494      	((2.586636e+03 -3.510141e+03 1.902400e+03) (-2.395353e-01 -5.689001e+02 -1.162163e-01)) ((1.682159e-02 -2.323526e-02 3.493942e-02) (3.646957e+00 -3.546521e-02 -4.906421e+00))
1.764546      	((2.575712e+03 -3.510036e+03 1.882997e+03) (-3.122215e-01 -5.687292e+02 -1.653677e-01)) ((1.797510e-02 -2.361533e-02 3.515131e-02) (3.639454e+00 -3.943941e-02 -4.919505e+00))
1.7846        	((2.575501e+03 -3.513263e+03 1.870931e+03) (-3.699190e-01 -5.685455e+02 -1.959635e-01)) ((2.018492e-02 -2.456462e-02 3.547735e-02) (3.626941e+00 -4.238327e-02 -4.930949e+00))
1.804656      	((2.582391e+03 -3.517547e+03 1.864267e+03) (-4.079614e-01 -5.683570e+02 -2.053535e-01)) ((2.279790e-02 -2.596121e-02 3.579795e-02) (3.609500e+00 -4.399850e-02 -4.941967e+00))
