# Forces      
# CofR        : (0.000000e+00 0.000000e+00 0.000000e+00)
# Time        forces(pressure viscous)	moments(pressure viscous)
0             	((0.000000e+00 0.000000e+00 0.000000e+00) (-2.990347e-08 -4.027794e+02 -1.756908e-08)) ((0.000000e+00 0.000000e+00 0.000000e+00) (1.048223e-05 -1.937796e-09 -6.196444e-05))
0.00966192    	((5.533269e+01 -2.305777e+05 5.971095e+01) (1.768045e-02 -4.870719e+02 1.776229e-02)) ((7.037767e-03 8.417272e-03 -3.841280e-02) (2.767099e-02 -3.036352e-04 -2.759376e-02))
0.0212562     	((-2.448800e+01 1.102982e+05 -2.506223e+01) (-6.794790e-03 -4.719124e+02 -6.114717e-03)) ((-1.983664e-03 6.690172e-03 1.178981e-02) (1.244048e-02 -7.928991e-04 -1.491081e-02))
0.0351694     	((-9.477247e+00 -2.480550e+04 -1.003664e+01) (1.867728e-02 -3.986985e+02 5.955234e-03)) ((3.427101e-04 6.998240e-03 -1.781432e-03) (1.508262e-02 -1.129034e-03 -1.774476e-02))
0.0517305     	((-3.892983e-01 9.837791e+03 -6.127600e-01) (2.320087e-02 -3.800056e+02 1.732605e-02)) ((1.327738e-03 4.362815e-03 9.688811e-05) (1.627236e-02 -1.170117e-04 -1.716208e-02))
0.0709498     	((-2.489615e+00 -6.622297e+03 -1.019581e+00) (-1.391684e-02 -3.675985e+02 3.849673e-03)) ((1.192638e-03 5.589561e-03 -1.408572e-03) (6.081599e-03 7.511054e-04 -7.898586e-03))
0.0928071     	((-2.128303e+00 9.654023e+02 4.941273e-02) (-2.625496e-02 -3.666544e+02 -8.351920e-03)) ((2.771009e-04 4.661719e-03 -1.226607e-03) (3.744402e-03 2.052302e-04 -1.046046e-02))
0.117284      	((-5.271967e+00 -2.606882e+03 -3.583093e-01) (-6.497987e-02 -3.655224e+02 -8.447155e-03)) ((6.566866e-04 4.721554e-03 -6.017699e-04) (-2.347966e-03 1.904681e-04 -8.766997e-03))
0.143275      	((-3.491244e+00 -9.580634e+02 4.806083e-01) (-4.864468e-02 -3.659384e+02 3.308594e-03)) ((3.778758e-04 6.973663e-03 -1.826589e-03) (-4.395960e-03 6.735878e-04 -5.466657e-03))
0.169326      	((2.138286e+00 -1.805781e+03 -1.219625e+00) (-1.871525e-02 -3.672069e+02 -3.578390e-03)) ((3.657736e-04 6.259677e-03 -1.275991e-03) (-6.463998e-03 1.374106e-03 -8.553518e-04))
0.195248      	((5.776768e-01 -1.436074e+03 -9.746277e-01) (-1.138102e-02 -3.693673e+02 -4.065776e-03)) ((9.550159e-04 6.234490e-03 -7.177441e-04) (-7.252676e-03 1.897785e-03 3.937348e-03))
0.220978      	((1.985948e+00 -1.684230e+03 2.324847e-01) (2.210502e-04 -3.713013e+02 2.320139e-04)) ((2.655396e-04 6.538683e-03 -1.330437e-03) (-8.358880e-03 1.719302e-03 5.638330e-03))
0.24653       	((2.806554e+00 -1.617804e+03 1.206313e+00) (-4.970814e-03 -3.727050e+02 2.415715e-03)) ((5.353485e-04 7.120159e-03 -7.864776e-04) (-8.996571e-03 1.626168e-03 3.985773e-03))
0.271956      	((3.847734e+00 -1.688675e+03 2.394661e+00) (1.047215e-03 -3.732560e+02 8.629375e-03)) ((4.513512e-04 6.108851e-03 -8.582996e-04) (-8.055071e-03 2.000388e-03 2.291218e-03))
0.297296      	((6.301147e+00 -1.680427e+03 3.341915e+00) (6.249057e-03 -3.731459e+02 6.769075e-03)) ((3.582442e-04 6.768812e-03 -8.825928e-04) (-7.145782e-03 1.789368e-03 -6.867779e-04))
0.322619      	((6.729803e+00 -1.688928e+03 4.365749e+00) (-2.921627e-04 -3.727437e+02 6.310546e-03)) ((4.526306e-04 6.406493e-03 -9.348305e-04) (-4.675213e-03 1.789305e-03 -3.458092e-03))
0.347995      	((8.484712e+00 -1.684027e+03 5.878844e+00) (7.276891e-04 -3.722696e+02 7.574535e-03)) ((6.213944e-04 6.064929e-03 -1.010871e-03) (-2.183460e-03 1.850938e-03 -5.552766e-03))
0.373423      	((1.048687e+01 -1.684418e+03 7.046625e+00) (3.255509e-03 -3.718149e+02 7.653578e-03)) ((8.115661e-04 6.252214e-03 -8.131431e-04) (-5.816901e-04 1.969233e-03 -8.634963e-03))
0.398861      	((1.242983e+01 -1.680652e+03 8.955552e+00) (9.305712e-03 -3.714203e+02 1.231384e-02)) ((8.603634e-04 5.628583e-03 -1.347875e-03) (1.396194e-04 2.541167e-03 -9.796592e-03))
0.424281      	((1.472454e+01 -1.674069e+03 1.023027e+01) (1.359300e-02 -3.710377e+02 1.560138e-02)) ((8.073009e-04 5.823788e-03 -6.344689e-04) (9.978001e-05 2.719300e-03 -1.020949e-02))
0.449693      	((1.662200e+01 -1.666711e+03 1.193771e+01) (1.688409e-02 -3.706877e+02 1.876092e-02)) ((9.308366e-04 5.311247e-03 -9.497201e-04) (2.767936e-04 2.819943e-03 -1.085717e-02))
0.475111      	((1.968356e+01 -1.659500e+03 1.431403e+01) (2.124992e-02 -3.703812e+02 2.215338e-02)) ((8.917422e-04 5.267997e-03 -8.984637e-04) (1.073521e-03 2.949759e-03 -1.195561e-02))
0.500534      	((2.276100e+01 -1.654141e+03 1.687105e+01) (2.217946e-02 -3.701198e+02 2.393685e-02)) ((8.389142e-04 5.065424e-03 -5.943092e-04) (2.947891e-03 2.921306e-03 -1.421118e-02))
0.525962      	((2.636040e+01 -1.651733e+03 1.966901e+01) (2.362475e-02 -3.698960e+02 2.488419e-02)) ((9.030224e-04 4.995744e-03 -8.508875e-04) (6.343321e-03 2.925421e-03 -1.802630e-02))
0.551391      	((3.092774e+01 -1.652228e+03 2.322585e+01) (2.323727e-02 -3.697034e+02 2.355888e-02)) ((1.038785e-03 4.926520e-03 -8.855289e-04) (1.137962e-02 2.932531e-03 -2.375039e-02))
0.576821      	((3.603305e+01 -1.654612e+03 2.734521e+01) (2.030051e-02 -3.695377e+02 2.004335e-02)) ((1.223311e-03 4.812256e-03 -1.072797e-03) (1.821021e-02 2.920924e-03 -3.159481e-02))
0.602254      	((4.221461e+01 -1.657858e+03 3.229568e+01) (1.634875e-02 -3.693881e+02 1.534510e-02)) ((1.379968e-03 4.761860e-03 -1.147025e-03) (2.666282e-02 2.941131e-03 -4.132316e-02))
0.627689      	((4.945527e+01 -1.661258e+03 3.813854e+01) (1.115794e-02 -3.692554e+02 1.034418e-02)) ((1.562429e-03 4.748988e-03 -1.279339e-03) (3.681002e-02 2.982884e-03 -5.327475e-02))
0.653125      	((5.831131e+01 -1.663972e+03 4.537179e+01) (5.372498e-03 -3.691422e+02 4.845448e-03)) ((1.798339e-03 4.700846e-03 -1.384849e-03) (4.864091e-02 3.003815e-03 -6.716632e-02))
0.678562      	((6.862225e+01 -1.665454e+03 5.383763e+01) (-1.747547e-03 -3.690462e+02 -2.123123e-03)) ((2.042778e-03 4.613655e-03 -1.413822e-03) (6.212845e-02 2.957554e-03 -8.303061e-02))
0.703999      	((8.057609e+01 -1.666242e+03 6.374733e+01) (-8.741362e-03 -3.689615e+02 -9.020109e-03)) ((2.321789e-03 4.533886e-03 -1.417830e-03) (7.749074e-02 2.922810e-03 -1.014627e-01))
0.729437      	((9.451780e+01 -1.666347e+03 7.535049e+01) (-1.437023e-02 -3.688866e+02 -1.490661e-02)) ((2.587143e-03 4.483400e-03 -1.392245e-03) (9.506604e-02 2.956115e-03 -1.227194e-01))
0.754875      	((1.103402e+02 -1.666435e+03 8.862776e+01) (-2.030111e-02 -3.688216e+02 -2.013181e-02)) ((2.872440e-03 4.416219e-03 -1.372399e-03) (1.149356e-01 3.030791e-03 -1.464329e-01))
0.780313      	((1.280986e+02 -1.666545e+03 1.035889e+02) (-2.706144e-02 -3.687620e+02 -2.558403e-02)) ((3.197924e-03 4.329541e-03 -1.413051e-03) (1.371760e-01 3.066878e-03 -1.727480e-01))
0.80575       	((1.481246e+02 -1.666858e+03 1.203164e+02) (-3.208111e-02 -3.687018e+02 -3.040465e-02)) ((3.603952e-03 4.286406e-03 -1.479324e-03) (1.619070e-01 3.042262e-03 -2.021544e-01))
0.831186      	((1.705293e+02 -1.667396e+03 1.389403e+02) (-3.496244e-02 -3.686415e+02 -3.451254e-02)) ((4.046585e-03 4.270781e-03 -1.565629e-03) (1.891553e-01 3.014935e-03 -2.349080e-01))
0.85662       	((1.952655e+02 -1.668589e+03 1.596037e+02) (-3.889436e-02 -3.685838e+02 -3.859858e-02)) ((4.524135e-03 4.248173e-03 -1.689086e-03) (2.192778e-01 3.034870e-03 -2.710834e-01))
0.882054      	((2.227451e+02 -1.670188e+03 1.826914e+02) (-4.472801e-02 -3.685271e+02 -4.313811e-02)) ((5.101602e-03 4.161109e-03 -1.851855e-03) (2.529604e-01 3.087397e-03 -3.113401e-01))
0.907485      	((2.535848e+02 -1.671952e+03 2.084526e+02) (-5.012694e-02 -3.684691e+02 -4.740493e-02)) ((5.707861e-03 4.051676e-03 -1.994839e-03) (2.907313e-01 3.143145e-03 -3.566681e-01))
0.932914      	((2.881447e+02 -1.673696e+03 2.371993e+02) (-5.516841e-02 -3.684129e+02 -5.140244e-02)) ((6.351859e-03 3.977177e-03 -2.174138e-03) (3.327190e-01 3.187900e-03 -4.075718e-01))
0.958341      	((3.266130e+02 -1.675548e+03 2.692217e+02) (-6.234566e-02 -3.683622e+02 -5.619731e-02)) ((7.032603e-03 3.921264e-03 -2.338712e-03) (3.791195e-01 3.214882e-03 -4.641771e-01))
0.983765      	((3.694278e+02 -1.677261e+03 3.047704e+02) (-7.132513e-02 -3.683152e+02 -6.159025e-02)) ((7.720544e-03 3.789283e-03 -2.446656e-03) (4.304536e-01 3.223899e-03 -5.270458e-01))
1.009186      	((4.174211e+02 -1.678712e+03 3.442490e+02) (-7.870246e-02 -3.682694e+02 -6.650386e-02)) ((8.441445e-03 3.638197e-03 -2.466860e-03) (4.873096e-01 3.221434e-03 -5.968299e-01))
1.034602      	((4.707582e+02 -1.680978e+03 3.880087e+02) (-8.419947e-02 -3.682277e+02 -7.110400e-02)) ((9.179974e-03 3.494533e-03 -2.391551e-03) (5.501950e-01 3.205182e-03 -6.737367e-01))
1.060015      	((5.299243e+02 -1.684468e+03 4.364005e+02) (-9.039194e-02 -3.681945e+02 -7.539642e-02)) ((9.917471e-03 3.350070e-03 -2.282276e-03) (6.192893e-01 3.192430e-03 -7.579989e-01))
1.085422      	((5.955278e+02 -1.688708e+03 4.899270e+02) (-9.658604e-02 -3.681701e+02 -7.928645e-02)) ((1.071872e-02 3.207829e-03 -2.155612e-03) (6.948807e-01 3.123923e-03 -8.505034e-01))
1.110825      	((6.686604e+02 -1.693690e+03 5.493134e+02) (-1.001394e-01 -3.681541e+02 -8.179324e-02)) ((1.149993e-02 2.993547e-03 -1.830828e-03) (7.779004e-01 3.008315e-03 -9.527005e-01))
1.136222      	((7.496459e+02 -1.699692e+03 6.149689e+02) (-1.006691e-01 -3.681505e+02 -8.287856e-02)) ((1.239346e-02 2.751879e-03 -1.373809e-03) (8.690283e-01 2.887191e-03 -1.065234e+00))
1.161612      	((8.389493e+02 -1.708135e+03 6.867566e+02) (-9.969890e-02 -3.681654e+02 -8.374279e-02)) ((1.333893e-02 2.440188e-03 -8.250736e-04) (9.683508e-01 2.789098e-03 -1.188235e+00))
1.186995      	((9.370048e+02 -1.718384e+03 7.655178e+02) (-9.602536e-02 -3.682000e+02 -8.253224e-02)) ((1.452782e-02 2.019845e-03 -1.282927e-04) (1.076376e+00 2.692624e-03 -1.322526e+00))
1.212368      	((1.044803e+03 -1.730649e+03 8.514149e+02) (-8.712707e-02 -3.682553e+02 -7.715180e-02)) ((1.586862e-02 1.571453e-03 7.391203e-04) (1.193783e+00 2.568843e-03 -1.469206e+00))
1.237731      	((1.162528e+03 -1.745589e+03 9.448089e+02) (-7.209631e-02 -3.683357e+02 -6.736550e-02)) ((1.724068e-02 1.259292e-03 1.832454e-03) (1.321121e+00 2.405947e-03 -1.629148e+00))
1.263083      	((1.288953e+03 -1.765501e+03 1.045886e+03) (-5.213118e-02 -3.684481e+02 -5.392685e-02)) ((1.872735e-02 9.983750e-04 3.067866e-03) (1.458483e+00 2.207491e-03 -1.802103e+00))
1.288423      	((1.423124e+03 -1.790847e+03 1.153088e+03) (-2.592150e-02 -3.685961e+02 -3.510749e-02)) ((2.033660e-02 7.226297e-04 4.199359e-03) (1.605575e+00 2.096544e-03 -1.987358e+00))
1.31375       	((1.563795e+03 -1.820955e+03 1.266330e+03) (1.133382e-02 -3.687799e+02 -6.004141e-03)) ((2.216764e-02 3.842019e-04 5.534774e-03) (1.761084e+00 2.122178e-03 -2.183229e+00))
1.339063      	((1.706786e+03 -1.858520e+03 1.380825e+03) (6.299426e-02 -3.689964e+02 3.780383e-02)) ((2.368241e-02 -2.463361e-04 7.196765e-03) (1.920705e+00 2.306555e-03 -2.385801e+00))
1.364361      	((1.847610e+03 -1.904505e+03 1.492533e+03) (1.274117e-01 -3.692425e+02 9.718590e-02)) ((2.449604e-02 -1.329133e-03 9.332311e-03) (2.080398e+00 2.736057e-03 -2.592405e+00))
1.389644      	((1.978772e+03 -1.958654e+03 1.594618e+03) (1.992747e-01 -3.695147e+02 1.685468e-01)) ((2.377257e-02 -2.185311e-03 1.245358e-02) (2.237456e+00 3.477245e-03 -2.799536e+00))
1.41491       	((2.093010e+03 -2.022723e+03 1.682398e+03) (2.765941e-01 -3.698086e+02 2.452372e-01)) ((2.193756e-02 -2.813710e-03 1.661876e-02) (2.387837e+00 4.233253e-03 -3.001797e+00))
1.440161      	((2.181375e+03 -2.090708e+03 1.747153e+03) (3.541478e-01 -3.701282e+02 3.208317e-01)) ((1.866489e-02 -3.354280e-03 2.131399e-02) (2.526458e+00 4.822179e-03 -3.191946e+00))
1.465396      	((2.233904e+03 -2.153153e+03 1.781706e+03) (4.227437e-01 -3.704721e+02 3.871608e-01)) ((1.432227e-02 -2.890674e-03 2.639849e-02) (2.646048e+00 5.198927e-03 -3.359421e+00))
1.490617      	((2.247474e+03 -2.202615e+03 1.782391e+03) (4.780553e-01 -3.708307e+02 4.409947e-01)) ((8.960596e-03 -1.715811e-03 3.128455e-02) (2.736767e+00 4.932971e-03 -3.493641e+00))
1.515826      	((2.224492e+03 -2.237230e+03 1.753854e+03) (5.143195e-01 -3.711926e+02 4.827573e-01)) ((4.148064e-03 -1.279788e-04 3.536378e-02) (2.792395e+00 3.899127e-03 -3.587947e+00))
1.541026      	((2.171503e+03 -2.259809e+03 1.701892e+03) (5.206281e-01 -3.715399e+02 5.052061e-01)) ((6.283906e-04 1.487255e-03 3.748757e-02) (2.813963e+00 2.549452e-03 -3.643863e+00))
1.566219      	((2.102150e+03 -2.269417e+03 1.638241e+03) (4.863723e-01 -3.718501e+02 5.000629e-01)) ((-4.106874e-04 2.661043e-03 3.758044e-02) (2.807438e+00 1.576702e-03 -3.670223e+00))
1.591407      	((2.030482e+03 -2.273066e+03 1.575660e+03) (4.147191e-01 -3.721111e+02 4.671701e-01)) ((9.700572e-04 3.091625e-03 3.582449e-02) (2.783743e+00 5.675194e-04 -3.675177e+00))
1.616595      	((1.970762e+03 -2.269072e+03 1.520736e+03) (3.195475e-01 -3.723202e+02 4.121884e-01)) ((4.376723e-03 3.015908e-03 3.294036e-02) (2.751797e+00 -4.500816e-04 -3.666828e+00))
1.641783      	((1.927924e+03 -2.259650e+03 1.479585e+03) (2.172957e-01 -3.724813e+02 3.454523e-01)) ((8.514665e-03 1.968411e-03 3.035644e-02) (2.715965e+00 -1.471059e-03 -3.651546e+00))
1.666973      	((1.905446e+03 -2.249714e+03 1.455489e+03) (1.277133e-01 -3.726044e+02 2.805332e-01)) ((1.252664e-02 -1.007403e-03 3.006926e-02) (2.681481e+00 -2.257290e-03 -3.634200e+00))
1.692167      	((1.900398e+03 -2.234195e+03 1.446793e+03) (6.387007e-02 -3.726996e+02 2.305357e-01)) ((1.547781e-02 -4.482144e-03 3.049298e-02) (2.651815e+00 -2.650704e-03 -3.615944e+00))
1.717364      	((1.904648e+03 -2.219426e+03 1.446574e+03) (4.283746e-02 -3.727853e+02 2.100983e-01)) ((1.747830e-02 -7.410914e-03 3.063380e-02) (2.622315e+00 -3.032539e-03 -3.590711e+00))
1.742565      	((1.910210e+03 -2.208919e+03 1.447366e+03) (7.002369e-02 -3.728765e+02 2.204877e-01)) ((1.852616e-02 -9.513745e-03 3.035337e-02) (2.589466e+00 -3.435964e-03 -3.556007e+00))
1.767768      	((1.908996e+03 -2.200372e+03 1.441698e+03) (1.246716e-01 -3.729746e+02 2.498428e-01)) ((1.875524e-02 -1.083093e-02 3.007693e-02) (2.555195e+00 -3.885143e-03 -3.516523e+00))
1.792974      	((1.892856e+03 -2.192954e+03 1.423029e+03) (1.787396e-01 -3.730778e+02 2.790019e-01)) ((1.782829e-02 -1.120424e-02 2.966394e-02) (2.522002e+00 -5.066904e-03 -3.474199e+00))
1.818182      	((1.862333e+03 -2.187109e+03 1.393699e+03) (2.158630e-01 -3.731782e+02 2.908381e-01)) ((1.631811e-02 -1.085207e-02 2.904965e-02) (2.490383e+00 -7.231362e-03 -3.429833e+00))
1.843392      	((1.821816e+03 -2.186430e+03 1.359605e+03) (2.329620e-01 -3.732570e+02 2.788367e-01)) ((1.450277e-02 -1.013107e-02 2.858075e-02) (2.462477e+00 -9.820897e-03 -3.387952e+00))
1.868603      	((1.778977e+03 -2.187394e+03 1.323908e+03) (2.141900e-01 -3.733116e+02 2.437400e-01)) ((1.263212e-02 -9.080652e-03 2.785407e-02) (2.439260e+00 -1.192001e-02 -3.352064e+00))
1.893817      	((1.742226e+03 -2.185791e+03 1.294263e+03) (1.569628e-01 -3.733468e+02 1.906179e-01)) ((1.126793e-02 -8.421329e-03 2.662563e-02) (2.420732e+00 -1.327038e-02 -3.322900e+00))
1.919034      	((1.719835e+03 -2.182941e+03 1.276924e+03) (8.640583e-02 -3.733562e+02 1.278487e-01)) ((1.041560e-02 -8.431025e-03 2.533317e-02) (2.408937e+00 -1.492678e-02 -3.302670e+00))
1.944254      	((1.715385e+03 -2.180825e+03 1.271392e+03) (2.241837e-02 -3.733395e+02 6.482470e-02)) ((1.030137e-02 -9.137839e-03 2.433032e-02) (2.405051e+00 -1.749654e-02 -3.292073e+00))
1.969477      	((1.724065e+03 -2.179948e+03 1.277892e+03) (-2.920923e-02 -3.733104e+02 1.517874e-02)) ((1.062257e-02 -1.058921e-02 2.359021e-02) (2.406426e+00 -2.005113e-02 -3.287336e+00))
1.994704      	((1.742206e+03 -2.181158e+03 1.290142e+03) (-5.641674e-02 -3.732765e+02 -9.117515e-03)) ((1.155787e-02 -1.263307e-02 2.277954e-02) (2.409108e+00 -2.185037e-02 -3.285541e+00))
2.019933      	((1.761820e+03 -2.185676e+03 1.305566e+03) (-4.977440e-02 -3.732392e+02 -6.788733e-03)) ((1.301110e-02 -1.458362e-02 2.218180e-02) (2.411121e+00 -2.292241e-02 -3.284681e+00))
2.045165      	((1.776731e+03 -2.195227e+03 1.317849e+03) (-2.260027e-02 -3.732042e+02 1.237463e-02)) ((1.434319e-02 -1.601611e-02 2.192745e-02) (2.413425e+00 -2.332572e-02 -3.283243e+00))
2.070398      	((1.785406e+03 -2.207408e+03 1.321988e+03) (5.889072e-03 -3.731718e+02 3.672002e-02)) ((1.502927e-02 -1.701382e-02 2.199521e-02) (2.416538e+00 -2.289785e-02 -3.283339e+00))
2.095632      	((1.785256e+03 -2.220768e+03 1.317767e+03) (2.680663e-02 -3.731330e+02 5.578060e-02)) ((1.484912e-02 -1.731013e-02 2.245164e-02) (2.420802e+00 -2.186383e-02 -3.288947e+00))
2.120867      	((1.775072e+03 -2.232506e+03 1.306145e+03) (2.745905e-02 -3.730839e+02 5.845899e-02)) ((1.381913e-02 -1.644624e-02 2.285529e-02) (2.426556e+00 -2.095807e-02 -3.300389e+00))
2.146102      	((1.760008e+03 -2.242321e+03 1.288221e+03) (2.108044e-03 -3.730272e+02 4.103734e-02)) ((1.239604e-02 -1.546390e-02 2.326267e-02) (2.433140e+00 -2.067789e-02 -3.315179e+00))
2.171338      	((1.742326e+03 -2.247208e+03 1.267339e+03) (-4.025279e-02 -3.729584e+02 9.381077e-03)) ((1.138256e-02 -1.488612e-02 2.363419e-02) (2.438991e+00 -2.129589e-02 -3.331852e+00))
2.196574      	((1.725033e+03 -2.248427e+03 1.247449e+03) (-9.607673e-02 -3.728756e+02 -3.105922e-02)) ((1.069822e-02 -1.416932e-02 2.370862e-02) (2.442506e+00 -2.311230e-02 -3.348180e+00))
2.221813      	((1.713004e+03 -2.249105e+03 1.231415e+03) (-1.569807e-01 -3.727796e+02 -7.329471e-02)) ((1.081618e-02 -1.395604e-02 2.379873e-02) (2.442541e+00 -2.573936e-02 -3.362564e+00))
2.247053      	((1.709582e+03 -2.250153e+03 1.221724e+03) (-2.069788e-01 -3.726687e+02 -1.070730e-01)) ((1.172214e-02 -1.468883e-02 2.407673e-02) (2.439626e+00 -2.861317e-02 -3.376815e+00))
2.272297      	((1.713222e+03 -2.252739e+03 1.217733e+03) (-2.459938e-01 -3.725489e+02 -1.273873e-01)) ((1.318677e-02 -1.526813e-02 2.435740e-02) (2.434256e+00 -3.133671e-02 -3.390996e+00))
