# Forces      
# CofR        : (0.000000e+00 0.000000e+00 0.000000e+00)
# Time        forces(pressure viscous)	moments(pressure viscous)
0             	((0.000000e+00 0.000000e+00 0.000000e+00) (0.000000e+00 0.000000e+00 0.000000e+00)) ((0.000000e+00 0.000000e+00 0.000000e+00) (0.000000e+00 0.000000e+00 0.000000e+00))
0.012         	((2.243488e-05 -3.442033e-06 -4.539517e-04) (-2.241433e-09 -3.198801e-09 -7.050629e-08)) ((5.009168e-09 2.968292e-04 -1.263784e-08) (-9.058407e-10 1.831393e-02 -2.871447e-11))
0.0264        	((-1.300250e-04 -4.544324e-06 4.972509e-04) (-1.950435e-08 -5.804864e-09 -9.691407e-08)) ((-1.776720e-09 1.351337e-04 -8.305423e-09) (-8.766276e-10 1.828929e-02 3.845525e-10))
0.04368       	((7.441385e-05 1.685612e-05 -9.938877e-05) (-3.837130e-08 -5.310867e-09 -1.054222e-07)) ((6.521565e-09 7.473050e-05 5.139051e-09) (1.821689e-10 1.825746e-02 1.019517e-09))
0.064416      	((-4.378184e-05 -4.369308e-06 1.200077e-04) (-5.115379e-08 -2.652416e-09 -1.092816e-07)) ((-1.274101e-09 4.008276e-05 -1.431224e-09) (1.317093e-09 1.821944e-02 1.355201e-09))
0.0892992     	((1.239862e-07 -1.004783e-08 -1.277269e-05) (-6.297209e-08 -5.655362e-10 -1.071042e-07)) ((3.612958e-09 3.108028e-05 2.658066e-09) (2.023364e-09 1.817402e-02 1.621436e-09))
0.119159      	((-4.675046e-05 1.177928e-05 3.410830e-05) (-7.546292e-08 -2.735900e-09 -1.046397e-07)) ((4.266162e-09 2.527542e-05 -1.230795e-11) (1.553833e-09 1.811983e-02 2.776753e-09))
0.154991      	((-1.266281e-06 5.301782e-06 -3.495384e-05) (-8.790052e-08 -7.848777e-09 -1.010988e-07)) ((9.004212e-09 2.301970e-05 2.328136e-09) (6.253765e-10 1.805529e-02 4.371346e-09))
0.197989      	((-2.356262e-05 -1.701365e-06 1.417713e-05) (-1.037622e-07 -1.335134e-08 -1.008315e-07)) ((4.960167e-09 2.064959e-05 3.090885e-09) (-2.554001e-10 1.797851e-02 5.654112e-09))
0.249587      	((5.515247e-06 3.613269e-06 -1.003664e-05) (-1.231577e-07 -1.914107e-08 -1.048120e-07)) ((5.735158e-09 1.896264e-05 2.201716e-09) (-1.083640e-09 1.788736e-02 6.674339e-09))
0.311504      	((-1.554725e-05 -3.288962e-06 3.911945e-06) (-1.425981e-07 -2.417728e-08 -1.098856e-07)) ((3.326858e-09 1.773213e-05 2.579760e-09) (-1.629146e-09 1.777946e-02 7.034793e-09))
0.385805      	((-1.486037e-07 -3.651480e-06 -1.000862e-05) (-1.604772e-07 -2.812128e-08 -1.137741e-07)) ((3.878456e-09 1.684859e-05 2.441774e-09) (-2.129271e-09 1.765216e-02 7.438950e-09))
0.474966      	((-8.748484e-06 -5.498827e-06 -5.598919e-06) (-1.745076e-07 -3.194270e-08 -1.159726e-07)) ((4.458476e-09 1.605580e-05 -2.135856e-11) (-3.125510e-09 1.750261e-02 8.158438e-09))
0.581959      	((3.693084e-06 -6.254859e-07 -2.301191e-06) (-1.844551e-07 -3.671405e-08 -1.200788e-07)) ((4.543416e-09 1.531916e-05 -6.244785e-10) (-4.447563e-09 1.732789e-02 9.198915e-09))
0.710351      	((2.939262e-06 6.674109e-08 9.372600e-06) (-1.947731e-07 -4.166521e-08 -1.236004e-07)) ((2.877090e-09 1.461304e-05 -2.157789e-09) (-6.129529e-09 1.712528e-02 1.054790e-08))
0.864421      	((4.679993e-06 -1.471944e-06 1.238208e-05) (-2.051591e-07 -4.631497e-08 -1.197890e-07)) ((2.858546e-09 1.393774e-05 -2.038767e-09) (-8.435371e-09 1.689255e-02 1.214408e-08))
1.049306      	((8.758747e-06 2.623879e-06 1.698617e-05) (-2.168129e-07 -4.747433e-08 -1.127636e-07)) ((3.583804e-09 1.330205e-05 -2.412686e-09) (-1.018723e-08 1.662854e-02 1.314271e-08))
1.271167      	((9.202906e-06 -2.101206e-06 1.475131e-05) (-2.352167e-07 -4.809831e-08 -1.193654e-07)) ((2.300605e-09 1.267645e-05 -2.246312e-09) (-1.083018e-08 1.633372e-02 1.394867e-08))
1.5374        	((6.731523e-06 9.953864e-08 9.477512e-06) (-2.582674e-07 -4.915239e-08 -1.440485e-07)) ((1.379417e-09 1.205600e-05 -1.041189e-09) (-1.072192e-08 1.601083e-02 1.373331e-08))
1.85688       	((8.024542e-07 -2.149183e-06 6.770550e-06) (-2.713441e-07 -4.784726e-08 -1.945293e-07)) ((3.899249e-10 1.144174e-05 -2.819141e-10) (-9.284464e-09 1.566529e-02 1.299906e-08))
2.240256      	((1.518447e-06 -1.071950e-07 7.871280e-06) (-2.519906e-07 -4.445471e-08 -2.612611e-07)) ((1.303866e-09 1.085180e-05 3.524951e-10) (-6.026612e-09 1.530473e-02 1.280434e-08))
2.700307      	((-5.635652e-07 -3.009920e-06 1.807462e-06) (-1.912162e-07 -4.210230e-08 -3.338431e-07)) ((3.700988e-11 1.026143e-05 3.725078e-10) (-2.613349e-09 1.493745e-02 1.339476e-08))
3.252369      	((-3.211232e-07 -1.368784e-06 3.102911e-06) (-1.383881e-07 -3.376332e-08 -3.928110e-07)) ((-2.211306e-10 9.667699e-06 5.961895e-10) (3.799810e-10 1.456992e-02 1.277030e-08))
3.914842      	((-1.114682e-06 -2.115309e-06 -1.567071e-06) (-1.179520e-07 -2.090623e-08 -4.503571e-07)) ((1.755360e-10 9.089289e-06 -8.155882e-10) (3.023758e-09 1.420432e-02 1.126556e-08))
4.709811      	((1.687000e-06 -5.642874e-07 -5.047639e-07) (-1.419599e-07 -1.673727e-08 -5.067884e-07)) ((3.005187e-10 8.485282e-06 -4.542865e-10) (5.294028e-09 1.382895e-02 9.705440e-09))
5.663773      	((3.523149e-06 4.327505e-07 2.551702e-06) (-1.842185e-07 -1.904872e-08 -5.194733e-07)) ((-1.470096e-10 7.848571e-06 5.590276e-12) (8.380910e-09 1.342419e-02 9.443495e-09))
6.808528      	((-3.550568e-06 8.441500e-07 4.435441e-06) (-2.337377e-07 -1.317185e-08 -5.448946e-07)) ((-5.535472e-10 7.280555e-06 7.698881e-10) (7.633454e-09 1.298311e-02 9.654262e-09))
8.182233      	((-4.410298e-06 -1.552297e-07 9.282818e-07) (-2.614392e-07 -1.171478e-08 -5.777841e-07)) ((-3.947363e-10 6.869033e-06 1.341959e-09) (7.153351e-09 1.251300e-02 5.818116e-09))
9.83068       	((-9.757517e-06 8.538076e-07 -3.409018e-06) (-2.334844e-07 -1.329955e-09 -5.033360e-07)) ((-8.751396e-11 6.619969e-06 2.332289e-09) (1.052176e-08 1.202660e-02 -2.177203e-09))
11.808816     	((-1.870135e-06 3.051575e-06 -3.876367e-08) (-1.917288e-07 5.847652e-09 -4.362158e-07)) ((-8.517898e-11 6.356985e-06 1.925674e-09) (1.429419e-08 1.153740e-02 -1.244734e-08))
14.182579     	((-3.949808e-06 1.285957e-06 2.765992e-06) (-2.374454e-07 -1.248910e-08 -4.440996e-07)) ((5.598933e-10 6.012774e-06 1.320330e-09) (9.861254e-09 1.105724e-02 -2.226509e-08))
17.031095     	((1.836593e-06 -9.616697e-08 8.697512e-07) (-4.936828e-07 -1.868753e-08 -4.477792e-07)) ((1.546089e-09 5.547724e-06 6.336294e-10) (-3.055046e-09 1.059150e-02 -2.445938e-08))
20.449314     	((3.367440e-06 -6.709653e-07 1.268562e-05) (-4.414132e-07 2.535392e-08 -1.561203e-08)) ((1.347907e-09 5.005743e-06 -5.736717e-10) (-1.620399e-08 1.013654e-02 -1.850158e-08))
24.551176     	((2.174528e-05 8.019896e-07 2.270462e-05) (5.280777e-07 -3.653924e-09 1.626506e-07)) ((7.850752e-10 4.476579e-06 1.932294e-10) (-2.495374e-08 9.688735e-03 -2.987413e-09))
29.434583     	((2.607567e-05 1.650565e-07 3.691054e-05) (8.030210e-07 1.014218e-07 -1.208773e-07)) ((-1.661850e-09 3.913636e-06 1.249818e-09) (-3.313321e-08 9.257902e-03 -2.550619e-08))
35.108684     	((1.622409e-05 3.790441e-06 3.523031e-05) (3.264814e-07 1.766359e-07 4.245463e-09)) ((-3.167024e-09 3.449697e-06 5.870849e-09) (-2.243004e-08 8.867356e-03 -3.583158e-08))
41.580857     	((2.016745e-05 2.702745e-06 4.510298e-05) (9.820664e-07 -3.850579e-08 4.087453e-07)) ((-9.242324e-09 3.014820e-06 7.902920e-09) (8.000421e-09 8.531752e-03 -4.169038e-08))
48.859701     	((2.872481e-05 7.631365e-07 4.402961e-05) (1.643861e-06 -3.164349e-07 7.638539e-07)) ((-1.262508e-08 2.666605e-06 1.075779e-08) (6.657371e-09 8.254936e-03 -5.648031e-08))
56.950569     	((3.607988e-05 2.826134e-06 4.572558e-05) (1.481068e-06 -1.997371e-07 1.102206e-06)) ((-1.152109e-08 2.406029e-06 8.293495e-09) (-2.676754e-08 8.035563e-03 -3.958656e-08))
65.085942     	((3.113881e-05 6.599156e-06 3.574321e-05) (9.346278e-07 -1.668402e-07 2.576256e-07)) ((-1.163382e-08 2.225458e-06 6.976892e-09) (-6.958260e-08 7.876899e-03 -5.443035e-08))
73.239248     	((1.645073e-05 4.338513e-06 3.293155e-05) (3.715026e-07 -5.881351e-07 3.956783e-07)) ((-1.128504e-08 2.113010e-06 5.698117e-09) (-1.314442e-07 7.758078e-03 -8.839555e-08))
81.414332     	((3.078644e-05 -4.604219e-06 3.875549e-05) (8.115285e-07 -6.800012e-07 1.027976e-06)) ((-5.887846e-09 2.101743e-06 2.290174e-10) (-2.272300e-07 7.670107e-03 -5.312420e-08))
89.61624      	((6.056284e-05 -8.238968e-06 5.205111e-05) (1.861053e-06 -5.525364e-07 1.742942e-06)) ((-3.038205e-09 2.100605e-06 2.032349e-10) (-3.219527e-07 7.607510e-03 4.406015e-08))
97.84927      	((7.218778e-05 -2.968393e-06 6.267207e-05) (2.247227e-06 -4.547488e-07 2.428160e-06)) ((-8.661205e-10 2.055534e-06 -8.827312e-10) (-3.602681e-07 7.566432e-03 1.284433e-07))
106.119694    	((6.462198e-05 4.763875e-08 5.551631e-05) (1.835371e-06 -3.698770e-07 2.394726e-06)) ((-8.977961e-10 1.998863e-06 1.799195e-10) (-3.297551e-07 7.545245e-03 2.076584e-07))
114.433331    	((4.100116e-05 3.595195e-06 5.362448e-05) (-2.538866e-07 -1.895074e-07 2.641149e-06)) ((3.320488e-09 1.939873e-06 -2.314305e-09) (-3.543204e-07 7.542687e-03 2.847797e-07))
122.79508     	((5.257814e-05 3.028523e-06 5.558005e-05) (-1.078015e-06 -1.022307e-08 2.304001e-06)) ((7.280902e-09 1.902805e-06 -3.722883e-09) (-4.136971e-07 7.560356e-03 3.457738e-07))
131.202612    	((8.163915e-05 -4.540158e-06 5.582206e-05) (-9.921412e-07 -1.883915e-07 2.530383e-06)) ((1.808345e-08 1.902913e-06 -8.986835e-10) (-4.329300e-07 7.599013e-03 4.171998e-07))
139.656699    	((7.651363e-05 -1.548601e-05 5.079197e-05) (-1.191611e-06 -5.652659e-07 3.183414e-06)) ((2.496705e-08 1.916097e-06 8.388320e-10) (-4.914807e-07 7.657538e-03 4.789311e-07))
148.155007    	((8.240823e-05 -2.008443e-05 4.752784e-05) (-1.927331e-06 -7.365158e-07 1.577557e-06)) ((2.847386e-08 1.948698e-06 1.521345e-09) (-5.561177e-07 7.734058e-03 4.942877e-07))
156.685362    	((8.273598e-05 -2.477038e-05 4.512932e-05) (-1.444508e-06 -9.073758e-07 7.063051e-07)) ((2.813852e-08 1.997413e-06 -5.756974e-09) (-5.323344e-07 7.824099e-03 5.061412e-07))
165.229965    	((1.113593e-04 -2.803546e-05 5.303598e-05) (1.279004e-06 -1.371344e-06 -1.245926e-06)) ((9.149714e-09 2.062686e-06 2.288106e-09) (-4.441180e-07 7.920013e-03 3.817428e-07))
173.760533    	((7.206806e-05 -4.112803e-05 5.656484e-05) (1.720493e-06 -2.036389e-06 -3.350691e-06)) ((-3.569531e-09 2.148913e-06 1.092565e-08) (-3.944199e-07 8.012923e-03 1.311675e-07))
182.247906    	((2.240589e-05 -5.127130e-05 5.942986e-05) (2.819769e-07 -2.376832e-06 -4.169041e-06)) ((-9.273782e-11 2.225372e-06 4.791555e-09) (-3.934326e-07 8.094542e-03 -1.594946e-07))
190.673344    	((-3.141961e-05 -7.092392e-05 3.285532e-05) (1.098137e-07 -2.120144e-06 -3.574657e-06)) ((-8.210456e-09 2.287428e-06 1.814912e-09) (-5.072361e-07 8.160230e-03 -5.196782e-07))
199.029889    	((-3.641121e-05 -8.902421e-05 2.305331e-05) (-2.371056e-07 -1.929980e-06 -2.426437e-06)) ((-1.204676e-08 2.326784e-06 3.085714e-09) (-8.202403e-07 8.209539e-03 -7.352560e-07))
207.312667    	((-4.395281e-05 -1.074206e-04 3.568484e-05) (-3.406431e-07 -1.829275e-06 -1.126979e-06)) ((-5.526686e-09 2.344864e-06 -4.394002e-09) (-1.243216e-06 8.243118e-03 -6.350322e-07))
215.536074    	((-3.604530e-05 -8.263854e-05 2.144700e-05) (-3.005972e-07 -1.731923e-06 4.063266e-07)) ((-4.544228e-09 2.343837e-06 -6.099756e-09) (-1.673592e-06 8.264004e-03 -1.823849e-07))
223.718002    	((-4.511262e-05 -6.421608e-05 8.957134e-06) (-2.675786e-07 -1.646445e-06 1.479654e-06)) ((-2.958903e-09 2.330934e-06 -4.813487e-09) (-1.914136e-06 8.276658e-03 5.754793e-07))
231.868794    	((-3.529569e-05 -4.933470e-05 2.838449e-05) (-6.243259e-07 -1.859445e-06 2.011706e-06)) ((7.143419e-09 2.315122e-06 -8.920368e-09) (-1.787801e-06 8.283594e-03 1.440329e-06))
239.996215    	((-1.952987e-05 -5.632463e-05 2.019941e-05) (-1.580659e-07 -1.933613e-06 2.444593e-06)) ((1.218147e-08 2.303778e-06 -1.154752e-08) (-1.332550e-06 8.286133e-03 2.203701e-06))
