# Forces      
# CofR        : (0.000000e+00 0.000000e+00 0.000000e+00)
# Time        forces(pressure viscous)	moments(pressure viscous)
0             	((0.000000e+00 0.000000e+00 0.000000e+00) (0.000000e+00 0.000000e+00 0.000000e+00)) ((0.000000e+00 0.000000e+00 0.000000e+00) (0.000000e+00 0.000000e+00 0.000000e+00))
0.012         	((-5.481733e-06 9.921647e-07 1.142044e-04) (8.728948e-10 7.146493e-10 1.117379e-08)) ((-1.223854e-09 -7.374241e-05 3.127541e-09) (1.958920e-10 -3.868805e-03 -1.088824e-11))
0.0264        	((3.177005e-05 1.418266e-06 -1.255867e-04) (4.254936e-09 1.171424e-09 1.573458e-08)) ((1.141413e-09 -3.287261e-05 1.734618e-09) (1.737206e-10 -3.865003e-03 -8.373555e-11))
0.04368       	((-1.824415e-05 -3.501480e-06 2.329478e-05) (7.082558e-09 1.191270e-09 1.735998e-08)) ((-1.681061e-09 -1.720159e-05 -1.220526e-09) (-5.063728e-11 -3.860388e-03 -2.683356e-10))
0.064416      	((7.040062e-06 2.166472e-06 -2.951427e-05) (7.597710e-09 9.648045e-10 1.810020e-08)) ((1.258530e-09 -8.112434e-06 8.816452e-10) (-2.777422e-10 -3.854863e-03 -4.269259e-10))
0.0892992     	((-9.858618e-07 -2.860434e-06 5.294292e-06) (7.837155e-09 8.504557e-10 1.857432e-08)) ((-2.595006e-10 -5.611928e-06 -6.108112e-10) (-5.078385e-10 -3.848247e-03 -5.713586e-10))
0.119159      	((-4.058792e-07 -1.893481e-06 -8.970258e-06) (8.273200e-09 1.566894e-09 2.017303e-08)) ((-3.600885e-10 -4.105009e-06 -8.560423e-10) (-5.911051e-10 -3.840337e-03 -7.708411e-10))
0.154991      	((-8.441517e-07 -3.674957e-06 3.683696e-06) (8.665348e-09 2.600970e-09 2.310797e-08)) ((-2.314716e-09 -3.575449e-06 -8.835163e-10) (-7.150634e-10 -3.830885e-03 -8.935039e-10))
0.197989      	((4.091273e-07 -3.837132e-07 8.811279e-07) (8.543091e-09 3.374129e-09 2.581127e-08)) ((-1.552230e-09 -3.188416e-06 -7.742010e-10) (-8.763551e-10 -3.819600e-03 -1.026535e-09))
0.249587      	((1.411687e-06 -1.636335e-06 3.084093e-06) (7.582079e-09 3.763933e-09 2.738177e-08)) ((-1.517883e-09 -2.895800e-06 -4.087858e-10) (-9.787792e-10 -3.806139e-03 -1.186591e-09))
0.311504      	((-7.686552e-07 -1.096679e-06 -7.674381e-07) (6.281878e-09 3.914401e-09 2.826811e-08)) ((-1.057376e-09 -2.593007e-06 2.604104e-10) (-1.043565e-09 -3.790098e-03 -1.274340e-09))
0.385805      	((-6.784185e-07 -1.295688e-06 -2.207153e-07) (4.684860e-09 4.018248e-09 2.905664e-08)) ((-3.114412e-10 -2.270867e-06 -4.274305e-11) (-1.141283e-09 -3.771010e-03 -1.313782e-09))
0.474966      	((-1.424490e-06 -1.485737e-06 -1.433992e-06) (3.036004e-09 4.136662e-09 3.010738e-08)) ((-1.456899e-10 -1.933714e-06 -1.596830e-10) (-1.458101e-09 -3.748341e-03 -1.346160e-09))
0.581959      	((-6.744723e-08 -8.522518e-07 1.074081e-06) (1.467046e-09 4.223456e-09 3.146094e-08)) ((1.486409e-10 -1.644409e-06 -2.289696e-10) (-1.936140e-09 -3.721486e-03 -1.384265e-09))
0.710351      	((-1.263648e-06 -2.533304e-07 -9.066360e-09) (1.989041e-10 4.220736e-09 3.276022e-08)) ((1.516054e-10 -1.449763e-06 6.359631e-11) (-2.289903e-09 -3.689779e-03 -1.477485e-09))
0.864421      	((3.559096e-08 -8.325008e-07 1.116272e-06) (-1.054882e-09 4.233018e-09 3.408925e-08)) ((6.215336e-11 -1.329237e-06 -5.916682e-12) (-2.494669e-09 -3.652491e-03 -1.610425e-09))
1.049306      	((5.616835e-07 -6.043472e-07 -3.506673e-07) (-2.551190e-09 4.529774e-09 3.606497e-08)) ((2.264390e-10 -1.248190e-06 8.142918e-11) (-2.820956e-09 -3.608853e-03 -1.718060e-09))
1.271167      	((8.912040e-07 -3.908685e-07 1.355757e-06) (-4.175435e-09 5.170781e-09 3.760320e-08)) ((2.809436e-10 -1.182308e-06 8.786863e-11) (-3.168313e-09 -3.558098e-03 -1.793126e-09))
1.5374        	((2.258842e-07 6.682947e-09 -2.619221e-07) (-6.505290e-09 6.097942e-09 3.725862e-08)) ((1.200105e-10 -1.128588e-06 8.735986e-11) (-3.433358e-09 -3.499533e-03 -1.827836e-09))
1.85688       	((4.588453e-07 -4.244313e-07 -1.526011e-07) (-8.847800e-09 7.528916e-09 3.550022e-08)) ((4.221513e-12 -1.080964e-06 5.257862e-11) (-3.676880e-09 -3.432626e-03 -1.823507e-09))
2.240256      	((1.912079e-07 -2.073543e-07 -8.477861e-07) (-1.047888e-08 9.562351e-09 3.339335e-08)) ((1.643621e-10 -1.033307e-06 2.728672e-11) (-3.983021e-09 -3.357152e-03 -1.897480e-09))
2.700307      	((-4.872751e-08 -2.568968e-07 -8.752121e-07) (-1.146477e-08 1.185155e-08 3.349717e-08)) ((2.017278e-10 -9.836504e-07 -6.187252e-11) (-4.459838e-09 -3.273341e-03 -2.101901e-09))
3.252369      	((1.411671e-07 -2.856302e-08 -9.028698e-07) (-1.238455e-08 1.339791e-08 3.588777e-08)) ((8.508462e-11 -9.320322e-07 -2.069369e-11) (-4.945688e-09 -3.182024e-03 -2.196035e-09))
3.914842      	((-4.716054e-07 -1.116711e-08 -8.273172e-07) (-1.447919e-08 1.356119e-08 3.768545e-08)) ((-1.076192e-11 -8.814620e-07 -6.412293e-11) (-5.246986e-09 -3.084700e-03 -1.966640e-09))
4.709811      	((-3.779455e-07 3.054312e-08 -1.434758e-07) (-1.685011e-08 1.311953e-08 3.300568e-08)) ((4.918824e-11 -8.327103e-07 -1.358252e-11) (-5.036063e-09 -2.983411e-03 -1.354817e-09))
5.663773      	((-8.491920e-08 3.148583e-08 1.910812e-07) (-1.774064e-08 1.267354e-08 2.195633e-08)) ((1.803719e-11 -7.872144e-07 -6.105115e-11) (-4.411642e-09 -2.880362e-03 -5.525496e-10))
6.808528      	((1.739771e-07 -1.643518e-07 3.082922e-07) (-1.854892e-08 1.208523e-08 9.257668e-09)) ((-3.280290e-11 -7.456343e-07 -3.605189e-11) (-3.936502e-09 -2.777311e-03 1.472814e-10))
8.182233      	((2.255679e-07 -9.910244e-08 3.445270e-07) (-1.625435e-08 1.085255e-08 -2.927380e-09)) ((-4.233778e-11 -6.993330e-07 -7.218077e-11) (-3.486064e-09 -2.674948e-03 6.051851e-10))
9.83068       	((-2.544386e-07 -1.471613e-07 1.855277e-07) (-2.101425e-09 7.789991e-09 -7.596578e-09)) ((-1.031759e-10 -6.419129e-07 -2.728932e-11) (-3.137069e-09 -2.570613e-03 8.596022e-10))
11.808816     	((2.107163e-09 -6.668735e-08 -4.323276e-07) (-8.217556e-09 5.536816e-09 -1.814458e-08)) ((-1.009687e-10 -5.800508e-07 1.630678e-11) (-2.921405e-09 -2.460101e-03 7.226241e-10))
14.182579     	((-4.120146e-08 7.167540e-08 -2.519448e-07) (-1.829723e-08 7.246150e-09 -1.801917e-08)) ((-1.901654e-10 -5.204095e-07 5.567197e-11) (-1.970129e-09 -2.342187e-03 -2.112313e-10))
17.031095     	((3.581263e-08 1.668830e-07 -2.222849e-07) (-2.066032e-08 2.278872e-09 -1.979141e-08)) ((-1.891590e-10 -4.721492e-07 1.640501e-10) (-1.026520e-09 -2.218647e-03 -6.141394e-10))
20.449314     	((-1.034097e-07 5.452515e-08 -4.395120e-08) (-7.582058e-09 -3.364016e-09 -3.661612e-08)) ((-2.043547e-10 -4.459105e-07 2.024016e-10) (-2.623361e-10 -2.092608e-03 5.179636e-10))
24.551176     	((-4.527890e-07 9.873553e-08 -9.056027e-07) (1.517868e-08 -1.049917e-08 -4.034753e-08)) ((-2.224803e-10 -4.238723e-07 1.574437e-10) (5.030691e-10 -1.967396e-03 2.539233e-09))
29.473411     	((4.974493e-07 -1.404866e-07 -4.468728e-07) (4.976298e-08 -1.128755e-08 -4.487211e-08)) ((-9.314403e-11 -3.937941e-07 1.104241e-10) (5.470327e-10 -1.845490e-03 3.752699e-09))
35.380094     	((5.312482e-08 -1.585214e-07 -2.507350e-07) (5.883775e-08 -1.098310e-08 -3.096361e-08)) ((2.295615e-10 -3.616623e-07 -9.570649e-12) (-3.589247e-10 -1.727985e-03 4.306626e-09))
42.468112     	((1.176895e-06 -3.379270e-07 1.094961e-06) (-2.890571e-09 1.992794e-09 -2.055446e-08)) ((4.565502e-10 -3.210124e-07 -1.563892e-10) (-3.457016e-09 -1.614437e-03 5.972328e-09))
50.973735     	((2.404765e-06 -1.217440e-07 1.879038e-06) (1.704410e-08 3.563034e-09 -2.801603e-08)) ((4.420598e-10 -2.747044e-07 -1.560401e-10) (-1.022225e-08 -1.504508e-03 1.008240e-08))
61.180482     	((2.546370e-06 -2.070400e-07 1.906907e-06) (1.717544e-07 8.886104e-09 8.503269e-08)) ((3.089501e-10 -2.257179e-07 -1.214453e-10) (-1.344487e-08 -1.399930e-03 1.395615e-08))
73.428578     	((3.610683e-06 8.379349e-08 2.334592e-06) (1.600541e-07 3.971960e-08 1.042256e-07)) ((-3.184944e-10 -1.765237e-07 3.716959e-10) (-9.780816e-09 -1.304110e-03 9.489824e-09))
88.126294     	((3.341696e-06 3.075536e-07 2.257369e-06) (1.948993e-07 1.152724e-08 1.529679e-07)) ((-5.581727e-10 -1.373215e-07 5.429348e-10) (-5.143476e-09 -1.219188e-03 5.666779e-09))
105.763553    	((3.849076e-06 -1.137619e-07 2.646529e-06) (1.280215e-07 -8.988988e-09 9.570072e-08)) ((-1.159797e-09 -1.027094e-07 8.946684e-10) (1.716498e-09 -1.145951e-03 1.385466e-08))
126.640639    	((2.359083e-06 3.538551e-07 2.943860e-06) (1.992799e-07 -4.934460e-09 1.722791e-07)) ((-1.788459e-09 -7.748939e-08 1.172346e-09) (1.246720e-08 -1.084648e-03 2.845680e-08))
150.767027    	((3.360017e-06 4.828539e-07 4.834954e-06) (4.250746e-07 -4.491866e-08 4.765798e-07)) ((-1.581941e-09 -6.419004e-08 6.195312e-10) (1.918348e-08 -1.034665e-03 4.303358e-08))
178.157783    	((2.165418e-06 8.187753e-07 5.326249e-06) (5.383470e-07 -3.451400e-08 7.270792e-07)) ((-1.303412e-09 -5.702042e-08 -9.513091e-11) (1.919949e-08 -9.944485e-04 6.123430e-08))
208.836884    	((4.244828e-06 4.835171e-07 7.349942e-06) (6.282260e-07 -1.352406e-07 9.712846e-07)) ((-1.101169e-09 -5.421693e-08 -1.214405e-10) (-1.872730e-09 -9.622998e-04 8.596770e-08))
242.029518    	((3.364266e-06 5.677168e-08 6.786680e-06) (8.370100e-07 -1.681540e-07 1.219399e-06)) ((-8.180191e-10 -5.305153e-08 -3.964354e-10) (-3.026633e-08 -9.372854e-04 1.017353e-07))
275.589069    	((4.139485e-06 -2.134114e-07 6.282913e-06) (7.344862e-07 -1.734573e-07 1.166200e-06)) ((-1.055029e-09 -5.395182e-08 -1.851695e-10) (-5.106393e-08 -9.188613e-04 9.777361e-08))
309.61526     	((4.511560e-06 -6.491800e-07 5.179779e-06) (4.751684e-07 -1.732053e-07 7.577136e-07)) ((-1.341337e-09 -5.462731e-08 -3.713594e-10) (-6.109140e-08 -9.057874e-04 9.184957e-08))
344.089431    	((4.811292e-06 -9.028026e-07 5.534487e-06) (3.396227e-07 -1.533343e-07 4.877646e-07)) ((-1.321800e-09 -5.657016e-08 -9.621547e-10) (-7.061179e-08 -8.977885e-04 9.160997e-08))
379.032241    	((3.564920e-06 -1.739690e-06 6.536946e-06) (3.278198e-07 -2.124916e-07 3.567363e-07)) ((-1.494563e-09 -5.932752e-08 -1.132479e-09) (-7.615237e-08 -8.947901e-04 9.068731e-08))
414.445317    	((2.192429e-06 -1.987605e-06 5.959488e-06) (5.579205e-07 -1.833476e-07 -9.361807e-08)) ((-1.471998e-09 -5.992044e-08 -1.097085e-09) (-9.097437e-08 -8.967657e-04 7.775068e-08))
450.323659    	((1.931042e-06 -1.822793e-06 6.732207e-06) (6.462354e-07 -1.980216e-07 -1.922968e-07)) ((-1.289127e-09 -6.031757e-08 -1.178070e-09) (-9.881631e-08 -9.038925e-04 5.722962e-08))
486.423561    	((4.344937e-06 -2.106758e-06 7.310331e-06) (6.453510e-07 -1.498102e-07 -2.549402e-07)) ((-1.032790e-09 -6.299269e-08 -4.827469e-10) (-1.000079e-07 -9.157821e-04 2.480870e-08))
522.556536    	((3.972903e-06 -1.702832e-06 6.396197e-06) (2.624646e-07 -9.667113e-08 -1.452557e-07)) ((-3.914695e-10 -6.517053e-08 2.282128e-10) (-8.189948e-08 -9.321531e-04 -2.280106e-08))
558.46711     	((3.699535e-06 -3.382390e-06 5.263004e-06) (-1.032399e-07 -1.037728e-07 -1.752206e-07)) ((-1.961001e-10 -6.788423e-08 3.818517e-10) (-3.420058e-08 -9.518255e-04 -4.101886e-08))
594.087438    	((3.677151e-06 -4.970834e-06 1.065684e-06) (-2.764393e-07 -2.926432e-07 -2.897122e-08)) ((-4.814666e-10 -6.974607e-08 -2.125420e-10) (2.457594e-08 -9.730096e-04 -7.434682e-09))
629.098327    	((3.355916e-06 -7.665159e-06 -3.290835e-06) (-4.141757e-07 -4.131698e-07 5.353340e-08)) ((-5.564319e-10 -7.085466e-08 -3.977133e-10) (5.588909e-08 -9.929458e-04 4.892470e-08))
663.459782    	((3.531326e-06 -8.401107e-06 -5.375916e-06) (-2.106789e-07 -3.962336e-07 -7.176510e-08)) ((5.642019e-11 -7.292407e-08 -3.122061e-11) (7.154917e-08 -1.009013e-03 1.021403e-07))
697.235902    	((3.012504e-06 -7.922282e-06 -6.181830e-06) (9.177882e-08 -3.816515e-07 7.699951e-09)) ((3.915166e-10 -7.382603e-08 1.841938e-10) (4.825114e-08 -1.020471e-03 1.780156e-07))
730.5218      	((-1.227259e-06 -9.202796e-06 -6.590959e-06) (2.640883e-07 -3.926027e-07 1.964889e-08)) ((3.597703e-10 -7.351512e-08 2.756398e-10) (-1.547940e-09 -1.027537e-03 2.456327e-07))
763.381164    	((-3.728472e-07 -6.554682e-06 -4.897918e-06) (1.813024e-07 -4.121980e-07 -1.941703e-07)) ((3.343537e-10 -7.309384e-08 3.609914e-10) (-7.534712e-08 -1.030915e-03 2.866496e-07))
795.905375    	((1.899376e-06 -6.482303e-06 -3.909609e-06) (4.372705e-07 -3.544649e-07 -1.738175e-07)) ((1.983391e-10 -7.279522e-08 2.367492e-10) (-1.675881e-07 -1.031544e-03 3.041037e-07))
828.15692     	((1.410369e-06 -8.458262e-06 -8.545365e-07) (3.206801e-07 -3.274254e-07 7.109656e-08)) ((2.200052e-11 -7.247068e-08 1.516736e-11) (-2.727439e-07 -1.030440e-03 2.852583e-07))
860.157216    	((-1.538224e-07 -7.681043e-06 4.088783e-07) (1.337532e-07 -2.849104e-07 1.994670e-07)) ((-3.588773e-11 -7.107953e-08 -3.971698e-11) (-3.786087e-07 -1.028367e-03 2.166591e-07))
891.952295    	((1.222045e-07 -8.635980e-06 -1.326545e-06) (3.223999e-07 -2.022384e-07 1.911081e-07)) ((-2.487069e-10 -6.998444e-08 6.485051e-11) (-4.544485e-07 -1.025639e-03 1.112313e-07))
923.597168    	((2.999563e-07 -8.523290e-06 -2.214803e-06) (4.404406e-07 -1.873462e-07 3.016112e-07)) ((-6.817232e-11 -6.919195e-08 9.168919e-11) (-4.810250e-07 -1.022485e-03 -2.181800e-08))
955.115271    	((3.520684e-07 -8.548483e-06 -1.837554e-06) (4.691954e-07 -2.143294e-07 5.251550e-07)) ((1.618455e-10 -6.884264e-08 1.255975e-11) (-4.642586e-07 -1.019264e-03 -1.542400e-07))
