# Forces      
# CofR        : (0.000000e+00 0.000000e+00 0.000000e+00)
# Time        forces(pressure viscous)	moments(pressure viscous)
0             	((0.000000e+00 0.000000e+00 0.000000e+00) (0.000000e+00 0.000000e+00 0.000000e+00)) ((0.000000e+00 0.000000e+00 0.000000e+00) (0.000000e+00 0.000000e+00 0.000000e+00))
0.012         	((2.688064e-02 2.201106e-02 -1.880313e-02) (2.876021e-06 -2.646392e-06 -8.481548e-07)) ((5.340043e-01 -1.699440e-04 -1.771842e-03) (7.098941e+00 -4.387935e-06 2.476834e-05))
0.0263567     	((-9.792484e-02 3.806082e-02 -1.249337e-02) (1.394396e-05 -3.271015e-05 -1.005541e-05)) ((5.829340e-01 1.420386e-04 -1.652837e-03) (1.068498e+01 -5.830661e-05 9.473049e-05))
0.0430708     	((-9.229767e-02 4.715573e-02 -1.395061e-02) (-1.490002e-05 -9.369948e-05 -3.013563e-05)) ((6.017042e-01 2.856815e-04 -1.828765e-03) (1.724703e+01 -2.580522e-04 2.368026e-04))
0.0621429     	((-6.934148e-02 8.543989e-02 -2.081296e-02) (-1.016567e-04 -1.652688e-04 -1.895777e-04)) ((5.741800e-01 3.957528e-06 -1.702895e-03) (3.236171e+01 -9.712215e-04 2.622445e-04))
0.0835739     	((-2.401311e-02 1.038303e-01 -3.298780e-02) (-1.055764e-04 -4.965341e-04 -1.452511e-03)) ((5.767046e-01 -1.826707e-04 -1.789797e-03) (7.498149e+01 -4.943687e-03 1.514610e-03))
0.107171      	((-2.852822e-02 8.730240e-02 -6.159527e-03) (1.254365e-03 -4.867409e-03 -5.377462e-03)) ((5.582150e-01 -3.620270e-04 -1.701315e-03) (2.067286e+02 -1.563987e-02 -1.907906e-03))
0.130794      	((-1.009881e-01 7.223199e-02 -4.439371e-02) (2.202470e-03 -3.367606e-03 -4.977960e-03)) ((5.515346e-01 -4.605611e-04 -1.738466e-03) (2.436186e+02 -2.524330e-02 -8.235595e-03))
0.154421      	((-6.305687e-02 1.464560e-01 -3.717739e-02) (2.244190e-03 -2.464799e-03 -2.809887e-03)) ((5.490082e-01 -3.525643e-04 -1.752290e-03) (2.288037e+02 -1.964023e-02 -9.328787e-03))
0.178065      	((-6.818871e-02 1.120818e-01 -1.012904e-01) (2.426472e-03 -3.408006e-03 -3.313827e-03)) ((5.639993e-01 -6.065264e-05 -1.784328e-03) (2.207367e+02 -1.656431e-02 -1.036793e-02))
0.201774      	((-1.039039e-01 1.349654e-01 -1.119926e-02) (2.262196e-03 -3.281829e-03 -4.177226e-03)) ((5.485652e-01 4.423081e-05 -1.888228e-03) (2.145221e+02 -1.368421e-02 -1.360212e-02))
0.225578      	((-1.086234e-01 2.432692e-01 -1.086630e-01) (1.810324e-03 -2.046168e-03 -4.898586e-03)) ((5.456372e-01 2.354989e-05 -1.835731e-03) (2.078288e+02 -8.715310e-03 -1.552411e-02))
0.249495      	((-4.758431e-02 8.903553e-02 -3.041374e-02) (6.372552e-04 -5.773708e-04 -4.774075e-03)) ((5.530393e-01 2.812972e-04 -1.683661e-03) (2.022598e+02 -4.235646e-03 -1.509973e-02))
0.273537      	((-1.016402e-01 7.758221e-02 -1.259058e-01) (-6.327844e-04 5.214303e-04 -4.245136e-03)) ((5.504702e-01 7.651901e-06 -1.645654e-03) (1.977740e+02 3.830374e-04 -1.341006e-02))
0.297615      	((-1.024831e-01 1.347680e-01 -3.860990e-02) (-1.857329e-03 7.506009e-04 -4.478628e-03)) ((5.401814e-01 -1.900826e-05 -1.500721e-03) (1.938982e+02 5.404374e-03 -9.786482e-03))
0.32175       	((-1.434207e-01 1.782102e-01 5.880612e-02) (-2.772012e-03 1.310883e-03 -4.073629e-03)) ((5.267306e-01 -1.566269e-04 -1.234132e-03) (1.904083e+02 8.265123e-03 -4.890724e-03))
0.345932      	((-2.964772e-01 5.748327e-01 3.544195e-01) (-3.236991e-03 1.380466e-03 -3.404784e-03)) ((5.136020e-01 -1.318407e-04 -1.041508e-03) (1.872020e+02 8.290327e-03 -2.586260e-04))
0.370168      	((-3.947209e-01 9.051917e-01 4.925909e-01) (-3.062055e-03 1.422931e-03 -3.174958e-03)) ((5.030830e-01 1.148040e-04 -1.532463e-03) (1.842251e+02 6.364846e-03 3.185485e-03))
0.394459      	((-4.158422e-01 1.407130e+00 7.563786e-01) (-4.048233e-03 2.281302e-03 -3.049952e-03)) ((4.965051e-01 2.679035e-04 -2.000568e-03) (1.814746e+02 3.108229e-03 4.850932e-03))
0.418812      	((-2.872729e-01 1.326731e+00 9.661527e-01) (-5.963997e-03 2.539292e-03 -1.635558e-03)) ((4.941108e-01 3.714101e-04 -1.893092e-03) (1.789544e+02 -1.055411e-03 5.863194e-03))
0.443243      	((-2.018631e-01 1.061030e+00 8.246293e-01) (-8.281172e-03 3.921828e-03 -3.628969e-03)) ((4.917973e-01 3.523727e-04 -1.606197e-03) (1.766586e+02 -5.292371e-03 5.579816e-03))
0.467772      	((-3.053490e-01 1.462229e+00 7.026102e-01) (-1.056831e-02 2.766738e-03 -4.058874e-03)) ((4.875991e-01 5.970843e-04 -1.510297e-03) (1.745775e+02 -9.122537e-03 2.645819e-03))
0.492417      	((-4.625076e-01 1.635456e+00 1.195292e+00) (-1.164024e-02 1.650855e-03 -1.386782e-03)) ((4.823462e-01 7.930286e-04 -1.501386e-03) (1.726969e+02 -1.197577e-02 -1.950282e-03))
0.517205      	((-5.370175e-01 1.844808e+00 1.438361e+00) (-1.130120e-02 4.551250e-03 1.443975e-03)) ((4.766283e-01 8.050637e-04 -1.529249e-03) (1.710110e+02 -1.237527e-02 -6.897776e-03))
0.542115      	((-4.366065e-01 2.086588e+00 1.650795e+00) (-1.109884e-02 6.193918e-03 4.599977e-03)) ((4.706748e-01 4.820840e-04 -1.757892e-03) (1.695199e+02 -9.534886e-03 -1.114115e-02))
0.567098      	((-5.072829e-01 2.296340e+00 2.193770e+00) (-1.173443e-02 9.650508e-03 7.639274e-03)) ((4.648146e-01 3.716124e-04 -1.730654e-03) (1.682178e+02 -5.429389e-03 -1.334567e-02))
0.592162      	((-4.602857e-01 1.935808e+00 1.824242e+00) (-1.112189e-02 1.033404e-02 9.228223e-03)) ((4.597138e-01 4.697186e-04 -1.768605e-03) (1.670893e+02 -1.864212e-03 -1.306158e-02))
0.617311      	((-4.525432e-01 1.168668e+00 1.022253e+00) (-9.515225e-03 8.492612e-03 6.353870e-03)) ((4.548756e-01 7.204845e-04 -1.353671e-03) (1.661139e+02 -7.840715e-05 -1.019368e-02))
0.642551      	((-5.107591e-01 1.269223e+00 5.018162e-01) (-8.376667e-03 7.804058e-03 -1.698939e-04)) ((4.511114e-01 4.004331e-04 -6.866637e-04) (1.652811e+02 -1.349477e-03 -6.608566e-03))
0.667898      	((-5.350082e-01 1.426906e+00 4.930714e-01) (-6.565441e-03 1.153561e-02 -6.589138e-03)) ((4.477909e-01 -2.397027e-05 -4.917832e-04) (1.645825e+02 -5.073717e-03 -5.248883e-03))
0.693367      	((-6.023770e-01 1.535795e+00 4.180532e-01) (-5.353246e-03 2.141465e-02 -1.141605e-02)) ((4.438795e-01 -2.969261e-04 -7.058533e-04) (1.640060e+02 -8.432155e-03 -7.179396e-03))
0.718974      	((-5.547188e-01 1.630196e+00 7.173605e-01) (-4.708085e-03 3.062647e-02 -8.431187e-03)) ((4.393962e-01 -1.649498e-04 -7.581789e-04) (1.635488e+02 -8.786971e-03 -1.107860e-02))
0.744625      	((-5.979372e-01 1.400662e+00 1.782317e+00) (-3.306650e-03 2.965244e-02 3.912317e-03)) ((4.346692e-01 4.091159e-04 -9.607458e-04) (1.632088e+02 -6.286780e-03 -1.417334e-02))
