# Forces      
# CofR        : (0.000000e+00 0.000000e+00 0.000000e+00)
# Time        forces(pressure viscous)	moments(pressure viscous)
0             	((0.000000e+00 0.000000e+00 0.000000e+00) (0.000000e+00 0.000000e+00 0.000000e+00)) ((0.000000e+00 0.000000e+00 0.000000e+00) (0.000000e+00 0.000000e+00 0.000000e+00))
0.012         	((2.245374e-02 7.091240e-02 -7.180739e-04) (-5.764333e-06 7.703493e-06 -1.799250e-06)) ((-5.129316e-04 6.379361e-05 1.529658e-01) (-9.443498e-06 -3.284492e-06 3.724585e+00))
0.0264        	((-2.702429e-02 -7.033288e-02 -1.678358e-02) (-5.475546e-05 -7.130168e-06 -9.170989e-06)) ((-6.775544e-04 1.855821e-04 1.552741e-01) (-6.569119e-05 -8.057729e-06 6.622437e+00))
0.04368       	((-2.764445e-02 1.315989e-02 -2.464535e-02) (-2.459996e-04 -1.504298e-04 -2.875558e-05)) ((-7.506341e-04 1.809786e-04 1.625108e-01) (-3.898669e-04 -1.485318e-05 1.473785e+01))
0.064416      	((-2.983054e-02 -5.364266e-02 -1.237075e-02) (-1.154949e-03 -4.912336e-04 -1.227098e-04)) ((-6.064446e-04 1.672705e-04 1.513080e-01) (-8.577968e-04 -7.163355e-04 4.182215e+01))
0.0892992     	((-8.339085e-03 -3.057041e-02 -3.492434e-03) (-1.257127e-03 -4.456499e-03 -4.645143e-04)) ((-5.927918e-04 1.962265e-04 1.502948e-01) (-2.383909e-03 -3.921486e-05 7.395118e+01))
0.118899      	((-7.796838e-02 -6.702422e-02 -1.455538e-02) (-1.313859e-03 -3.548373e-03 -5.544585e-04)) ((-5.682492e-04 1.555762e-04 1.421654e-01) (-3.493267e-03 -3.288993e-04 6.929612e+01))
0.153221      	((6.944296e-04 -9.127336e-03 -1.014431e-02) (-1.359185e-03 -2.204089e-03 -5.255142e-04)) ((-5.555624e-04 7.893923e-05 1.410467e-01) (-3.889233e-03 -5.566966e-04 6.529901e+01))
0.192267      	((-1.036609e-03 -3.022337e-02 -1.610874e-02) (-1.024413e-03 -1.995864e-03 -3.500473e-04)) ((-5.780573e-04 5.463903e-05 1.402824e-01) (-3.650321e-03 -7.390648e-04 6.323471e+01))
0.236052      	((-6.448093e-02 -1.741331e-02 -1.813537e-02) (-8.398400e-04 -1.852648e-03 -1.497686e-04)) ((-5.776927e-04 -7.654882e-06 1.347210e-01) (-3.377045e-03 -8.318782e-04 6.119520e+01))
0.283646      	((1.485536e-02 -6.549811e-03 -9.505721e-03) (-9.600338e-04 -1.926658e-03 -1.268365e-04)) ((-4.961190e-04 -2.464773e-05 1.320534e-01) (-2.452564e-03 -1.064849e-03 5.893548e+01))
0.331499      	((-2.375858e-02 -1.908146e-02 -5.643551e-03) (-7.932549e-04 -2.807118e-03 -2.942106e-04)) ((-6.078773e-04 -5.560892e-05 1.341706e-01) (-5.919135e-04 -5.657568e-04 5.717660e+01))
0.379532      	((-4.749964e-02 7.415991e-03 -1.761544e-02) (1.310192e-04 -4.064017e-03 -1.920944e-04)) ((-5.812401e-04 -1.460214e-05 1.332459e-01) (9.874795e-04 2.161784e-04 5.577689e+01))
0.427669      	((-9.189019e-03 -5.572935e-03 -9.652989e-03) (1.234828e-03 -4.743573e-03 -2.376278e-05)) ((-5.663343e-04 -1.212385e-05 1.305840e-01) (2.323634e-03 8.505053e-04 5.456699e+01))
0.475931      	((7.047564e-03 7.936744e-02 -2.806150e-02) (2.243704e-03 -4.627473e-03 4.942513e-05)) ((-5.378709e-04 -7.249432e-05 1.267108e-01) (3.370311e-03 1.471290e-03 5.348352e+01))
0.524302      	((6.354005e-02 1.757580e-01 -5.513335e-02) (3.111205e-03 -4.082250e-03 1.207902e-04)) ((-5.257039e-04 -6.458060e-05 1.233593e-01) (3.467799e-03 2.127783e-03 5.249043e+01))
0.572801      	((2.023458e-01 2.165147e-01 -7.684959e-02) (3.789444e-03 -3.101567e-03 2.799444e-05)) ((-5.150591e-04 2.367516e-05 1.207811e-01) (2.759707e-03 3.138518e-03 5.157479e+01))
0.621407      	((1.856219e-01 3.337824e-01 -6.558350e-02) (3.309261e-03 -1.757399e-03 -3.780545e-04)) ((-3.600008e-04 6.550590e-05 1.197071e-01) (1.317837e-03 3.854341e-03 5.073669e+01))
0.670167      	((1.682475e-01 2.354081e-01 6.330020e-03) (2.909434e-03 -1.618290e-03 -8.154822e-04)) ((-3.428830e-04 2.396793e-05 1.191437e-01) (-3.377457e-04 3.713205e-03 4.997500e+01))
0.719124      	((2.841638e-01 2.491859e-01 2.637870e-02) (2.850345e-03 -1.551790e-03 -1.249851e-03)) ((-3.618251e-04 -9.673061e-06 1.179008e-01) (-1.345274e-03 2.911154e-03 4.928721e+01))
0.768347      	((3.443828e-01 2.817446e-01 1.620056e-02) (2.137848e-03 -2.597260e-04 -1.108556e-03)) ((-3.901916e-04 -7.411467e-06 1.162880e-01) (-1.972464e-03 1.551579e-03 4.867011e+01))
0.817849      	((4.538451e-01 4.027220e-01 4.060836e-04) (2.275896e-04 -1.215069e-04 -9.300329e-04)) ((-3.933489e-04 4.216519e-05 1.147307e-01) (-2.057053e-03 -2.518067e-04 4.812191e+01))
0.867583      	((4.680634e-01 4.761921e-01 -1.857473e-02) (-6.288221e-04 -1.551060e-04 -1.049839e-03)) ((-3.584137e-04 2.345844e-05 1.130932e-01) (-1.322968e-03 -1.653736e-03 4.764244e+01))
0.917472      	((4.460285e-01 5.453840e-01 -2.237920e-02) (-7.186014e-04 -1.031149e-03 -1.008688e-03)) ((-3.324227e-04 4.575572e-05 1.114228e-01) (-5.911227e-04 -2.368194e-03 4.722889e+01))
0.967536      	((4.542319e-01 4.393947e-01 -9.301898e-03) (-1.180112e-03 -3.566757e-03 -6.789498e-04)) ((-3.857457e-04 1.300013e-04 1.097478e-01) (-1.118438e-05 -2.643226e-03 4.687457e+01))
1.017789      	((2.329469e-01 3.089476e-01 1.388778e-02) (3.952061e-04 -5.242666e-03 1.709130e-04)) ((-3.548556e-04 2.109392e-04 1.082598e-01) (4.321494e-04 -2.721119e-03 4.657230e+01))
1.068242      	((3.572191e-01 2.768646e-01 4.073322e-02) (3.250942e-03 -7.066012e-03 1.088049e-03)) ((-4.658936e-04 2.066327e-04 1.071140e-01) (8.194773e-04 -2.632350e-03 4.631639e+01))
1.118924      	((4.130884e-01 2.113518e-01 1.959243e-02) (4.773882e-03 -8.356002e-03 1.479504e-03)) ((-5.582655e-04 2.352144e-04 1.061922e-01) (1.203405e-03 -2.207726e-03 4.610490e+01))
1.169868      	((4.683708e-01 2.923452e-01 2.764866e-03) (6.032013e-03 -9.115006e-03 1.993702e-03)) ((-6.206888e-04 2.412319e-04 1.051952e-01) (1.353730e-03 -1.731605e-03 4.593557e+01))
1.221026      	((4.304852e-01 5.899828e-01 1.445305e-02) (9.369694e-03 -7.169287e-03 2.621634e-03)) ((-6.566770e-04 1.055729e-04 1.041525e-01) (1.113612e-03 -1.580767e-03 4.580422e+01))
1.27222       	((3.109876e-01 6.530758e-01 3.430843e-02) (1.121450e-02 -4.602554e-03 2.850064e-03)) ((-6.629082e-04 -2.027449e-05 1.032169e-01) (9.648672e-04 -1.417039e-03 4.570789e+01))
1.323454      	((2.861037e-01 5.780562e-01 7.028843e-02) (1.230316e-02 -2.527285e-03 2.557314e-03)) ((-6.623422e-04 -3.712100e-05 1.020710e-01) (1.171782e-03 -1.046183e-03 4.564518e+01))
1.374732      	((3.564038e-01 7.880488e-01 4.245236e-02) (1.341219e-02 -2.175916e-04 1.997077e-03)) ((-5.793983e-04 -1.017321e-04 1.011018e-01) (1.266492e-03 -8.076566e-04 4.561459e+01))
1.42606       	((4.212626e-01 9.044291e-01 5.739506e-02) (1.414192e-02 5.758908e-03 1.494961e-03)) ((-3.949441e-04 -1.828731e-04 1.003480e-01) (1.194633e-03 -5.334074e-04 4.561353e+01))
1.477438      	((3.597895e-01 9.951774e-01 8.442096e-02) (1.081515e-02 1.013672e-02 1.302904e-03)) ((-3.240888e-04 -1.940518e-04 9.966304e-02) (1.112657e-03 -1.513581e-04 4.564370e+01))
1.528863      	((1.875826e-01 9.105341e-01 6.798890e-02) (4.269762e-03 8.409006e-03 1.303660e-03)) ((-2.380426e-04 -2.329884e-04 9.904357e-02) (1.018865e-03 1.654591e-04 4.570725e+01))
