# Forces      
# CofR        : (0.000000e+00 0.000000e+00 0.000000e+00)
# Time        forces(pressure viscous)	moments(pressure viscous)
0             	((0.000000e+00 0.000000e+00 0.000000e+00) (-1.263783e-10 -1.267237e+00 -7.835324e-11)) ((0.000000e+00 0.000000e+00 0.000000e+00) (3.818851e-08 -6.055953e-12 -1.692691e-07))
0.012         	((3.315630e-01 -3.734314e+04 3.979636e-01) (-1.384952e-05 -2.622142e+00 -1.439875e-05)) ((9.796362e-04 1.894244e-04 -6.196740e-03) (-3.393174e-06 -1.519212e-07 3.501032e-06))
0.0264        	((8.000435e-01 9.869793e+03 4.369709e-01) (-7.962286e-06 -5.803064e+00 -3.195131e-05)) ((-2.181277e-04 1.491762e-04 1.448132e-03) (1.565857e-05 -7.361367e-07 -1.055065e-05))
0.04368       	((-9.415984e-01 3.162001e+03 -6.897728e-02) (-7.284919e-05 -1.484500e+01 -2.378265e-05)) ((-2.047451e-04 1.069155e-04 8.608281e-04) (3.845834e-04 -1.652145e-05 -3.877968e-04))
0.064416      	((-5.545171e-02 1.117165e+02 -3.095578e-01) (2.009082e-04 -2.766711e+01 8.191965e-04)) ((1.061378e-05 1.363849e-04 -1.490525e-05) (3.565101e-04 -3.153391e-05 -3.378807e-04))
0.0892992     	((-2.334755e-01 1.435801e+01 -3.193648e-01) (-2.997651e-04 -2.626630e+01 3.466309e-04)) ((-1.543333e-05 2.131172e-04 -1.515567e-04) (2.764601e-04 -4.029411e-05 -3.189141e-04))
0.119159      	((-6.064955e-02 -1.776275e+01 -4.640056e-02) (-3.032376e-04 -2.487368e+01 -5.387529e-04)) ((6.073259e-05 2.526830e-04 -1.691815e-04) (1.450194e-04 -4.942402e-05 -2.633245e-04))
0.154991      	((-1.508983e-01 -4.330827e+01 -1.451226e-01) (-9.761184e-04 -2.362631e+01 -1.021164e-03)) ((8.623609e-05 2.618723e-04 -1.103515e-04) (1.073165e-04 -4.442004e-06 -2.120056e-04))
0.197989      	((-2.610507e-01 -5.201104e+01 -1.317348e-01) (-2.325690e-03 -2.254628e+01 -9.812053e-04)) ((3.966816e-05 2.158290e-04 -5.155895e-05) (1.599614e-04 6.355468e-05 -1.732002e-04))
0.249587      	((-2.099500e-01 -5.326209e+01 -1.048243e-01) (-1.663140e-03 -2.164081e+01 -6.310050e-04)) ((-4.203685e-06 1.797918e-04 -9.638433e-05) (9.701246e-05 6.170954e-05 -3.273668e-04))
0.311504      	((-9.469921e-02 -5.115433e+01 -6.138240e-02) (-1.146255e-03 -2.095553e+01 -3.870622e-04)) ((2.001545e-05 2.449342e-04 -5.768972e-05) (1.828138e-05 8.624365e-05 -3.910043e-04))
0.385805      	((-2.368813e-01 -5.241923e+01 -7.770105e-02) (-2.665509e-03 -2.047237e+01 -5.732616e-04)) ((2.429272e-05 2.721930e-04 -8.286707e-05) (-7.024038e-05 5.187410e-05 -1.706735e-04))
0.473226      	((-9.509869e-02 -5.360868e+01 -6.805874e-03) (-1.545584e-03 -2.011176e+01 -3.223415e-04)) ((1.189011e-05 2.640419e-04 2.007710e-05) (-1.148891e-04 5.874817e-05 -1.347284e-04))
0.573746      	((-4.779980e-03 -5.692829e+01 -5.276262e-03) (-4.349560e-04 -1.987521e+01 1.307509e-06)) ((2.089609e-05 2.257178e-04 -6.765523e-05) (-1.647781e-04 1.352283e-04 -3.658220e-05))
0.687328      	((-7.474465e-02 -6.094206e+01 -2.731853e-03) (-1.441442e-03 -1.976240e+01 2.030509e-05)) ((6.724475e-06 2.447028e-04 -3.530136e-05) (-2.330417e-04 1.146533e-04 7.712770e-05))
0.813948      	((-1.900865e-02 -6.528967e+01 -9.879742e-03) (-9.521938e-04 -1.974117e+01 -8.526193e-05)) ((2.036082e-05 2.661604e-04 -8.140216e-06) (-2.759900e-04 7.630460e-05 1.054848e-04))
0.943892      	((6.584968e-02 -6.838704e+01 1.965843e-02) (-2.704011e-04 -1.978334e+01 3.948271e-05)) ((2.177369e-05 2.474815e-04 -2.990297e-05) (-2.876329e-04 1.124312e-04 1.201168e-04))
1.072886      	((7.863799e-02 -7.129446e+01 6.937749e-02) (-2.843866e-04 -1.984570e+01 1.169249e-04)) ((1.572764e-05 2.510892e-04 -2.366996e-05) (-3.208622e-04 1.427404e-04 2.458573e-04))
1.201016      	((1.536288e-01 -7.325973e+01 1.400853e-01) (-2.570650e-04 -1.988450e+01 2.494642e-04)) ((1.886037e-05 2.632767e-04 -4.075010e-05) (-3.301282e-04 1.411955e-04 3.037278e-04))
1.328482      	((2.232367e-01 -7.490967e+01 2.333401e-01) (-2.815510e-04 -1.988145e+01 3.855794e-04)) ((1.358008e-05 2.554135e-04 -2.466018e-05) (-2.399570e-04 1.333097e-04 2.200157e-04))
1.455474      	((3.488515e-01 -7.600369e+01 3.305730e-01) (-5.776708e-05 -1.984383e+01 3.435671e-04)) ((1.091849e-05 2.496585e-04 -2.975976e-05) (-3.333098e-05 1.241486e-04 -2.855436e-05))
1.58245       	((4.371674e-01 -7.671374e+01 4.179224e-01) (-2.024233e-04 -1.978906e+01 7.831243e-05)) ((2.020049e-05 2.552025e-04 -4.304889e-05) (2.594711e-04 1.070332e-04 -3.270768e-04))
1.709697      	((5.719252e-01 -7.735721e+01 5.346881e-01) (-4.344146e-04 -1.973208e+01 -1.738695e-04)) ((2.991736e-05 2.470650e-04 -3.778301e-05) (5.396963e-04 1.176514e-04 -6.203954e-04))
1.837195      	((7.258745e-01 -7.785190e+01 6.895124e-01) (-3.875102e-04 -1.967913e+01 -1.612429e-04)) ((4.226643e-05 2.421411e-04 -4.238839e-05) (7.673158e-04 1.468733e-04 -8.139563e-04))
1.964776      	((8.999395e-01 -7.789319e+01 8.571638e-01) (1.881472e-05 -1.963065e+01 1.135367e-04)) ((4.856008e-05 2.369474e-04 -3.741282e-05) (9.499455e-04 1.523457e-04 -9.339561e-04))
2.092353      	((1.066120e+00 -7.754639e+01 1.013358e+00) (4.217970e-04 -1.958609e+01 5.042835e-04)) ((5.346666e-05 2.236263e-04 -3.700905e-05) (1.103800e-03 1.527218e-04 -1.010063e-03))
2.219927      	((1.204128e+00 -7.716958e+01 1.163072e+00) (6.065023e-04 -1.954575e+01 8.501708e-04)) ((5.560992e-05 2.164494e-04 -3.533062e-05) (1.243978e-03 1.581424e-04 -1.125307e-03))
2.34752       	((1.363645e+00 -7.670303e+01 1.321697e+00) (8.081101e-04 -1.950947e+01 1.219978e-03)) ((5.824967e-05 2.087294e-04 -3.240220e-05) (1.380264e-03 1.625429e-04 -1.305920e-03))
2.475152      	((1.547157e+00 -7.630820e+01 1.494557e+00) (1.141090e-03 -1.947650e+01 1.681876e-03)) ((6.072716e-05 2.018214e-04 -2.884106e-05) (1.555694e-03 1.660529e-04 -1.512168e-03))
2.602813      	((1.755565e+00 -7.602429e+01 1.681177e+00) (1.423134e-03 -1.944703e+01 2.018932e-03)) ((6.408527e-05 1.959908e-04 -2.777986e-05) (1.785981e-03 1.676611e-04 -1.773243e-03))
2.730495      	((1.987141e+00 -7.580003e+01 1.885294e+00) (1.514556e-03 -1.942107e+01 2.150020e-03)) ((6.224466e-05 1.965973e-04 -3.127124e-05) (2.106218e-03 1.649813e-04 -2.156684e-03))
2.858195      	((2.254669e+00 -7.561113e+01 2.119101e+00) (1.472318e-03 -1.939827e+01 2.138595e-03)) ((6.234414e-05 1.918475e-04 -3.284229e-05) (2.551634e-03 1.639852e-04 -2.678849e-03))
2.985919      	((2.568513e+00 -7.531374e+01 2.384432e+00) (1.427180e-03 -1.937819e+01 2.001189e-03)) ((6.139346e-05 1.881460e-04 -2.950776e-05) (3.130437e-03 1.658252e-04 -3.342185e-03))
3.113662      	((2.941263e+00 -7.486349e+01 2.700884e+00) (1.348703e-03 -1.936079e+01 1.754832e-03)) ((6.913673e-05 1.859584e-04 -3.245985e-05) (3.831635e-03 1.639459e-04 -4.151172e-03))
3.241419      	((3.328807e+00 -7.442594e+01 3.046544e+00) (1.029533e-03 -1.934599e+01 1.415137e-03)) ((7.659971e-05 1.849842e-04 -3.829932e-05) (4.646832e-03 1.583642e-04 -5.071471e-03))
3.369187      	((3.778648e+00 -7.398626e+01 3.444873e+00) (6.338814e-04 -1.933323e+01 9.985102e-04)) ((8.200737e-05 1.804113e-04 -4.122950e-05) (5.580966e-03 1.524458e-04 -6.100360e-03))
3.496965      	((4.335522e+00 -7.359357e+01 3.917107e+00) (4.578140e-04 -1.932216e+01 6.142565e-04)) ((8.827512e-05 1.786904e-04 -3.662020e-05) (6.638060e-03 1.460773e-04 -7.294240e-03))
3.62475       	((4.952776e+00 -7.325737e+01 4.460511e+00) (1.767246e-04 -1.931273e+01 2.928619e-04)) ((9.390372e-05 1.780124e-04 -3.558130e-05) (7.805179e-03 1.422407e-04 -8.602908e-03))
3.752539      	((5.653575e+00 -7.303407e+01 5.081910e+00) (-2.371549e-04 -1.930476e+01 -1.286419e-05)) ((1.005276e-04 1.749557e-04 -3.135313e-05) (9.063062e-03 1.408546e-04 -9.997187e-03))
3.880329      	((6.496600e+00 -7.289611e+01 5.803765e+00) (-2.137749e-04 -1.929798e+01 -1.597676e-04)) ((1.119162e-04 1.751910e-04 -2.088851e-05) (1.041376e-02 1.367840e-04 -1.156448e-02))
4.008119      	((7.469044e+00 -7.280265e+01 6.650999e+00) (1.245955e-04 -1.929206e+01 -4.849734e-06)) ((1.266449e-04 1.735058e-04 -1.904691e-05) (1.186743e-02 1.318447e-04 -1.326841e-02))
4.135904      	((8.543168e+00 -7.277449e+01 7.597669e+00) (4.299247e-04 -1.928694e+01 3.411824e-04)) ((1.436040e-04 1.694567e-04 -2.054012e-05) (1.341877e-02 1.306687e-04 -1.503454e-02))
4.263684      	((9.772584e+00 -7.279134e+01 8.662651e+00) (9.841644e-04 -1.928265e+01 7.866515e-04)) ((1.663768e-04 1.716652e-04 -2.006265e-05) (1.509966e-02 1.325368e-04 -1.696735e-02))
4.391455      	((1.115171e+01 -7.282409e+01 9.852439e+00) (1.842360e-03 -1.927885e+01 1.404678e-03)) ((1.915258e-04 1.678487e-04 -2.554414e-05) (1.697254e-02 1.331336e-04 -1.913969e-02))
4.519215      	((1.268059e+01 -7.288552e+01 1.117971e+01) (2.736880e-03 -1.927537e+01 2.174209e-03)) ((2.191906e-04 1.632620e-04 -3.207656e-05) (1.906771e-02 1.315255e-04 -2.156316e-02))
4.646962      	((1.439713e+01 -7.294935e+01 1.266040e+01) (3.641545e-03 -1.927222e+01 2.980038e-03)) ((2.512117e-04 1.638284e-04 -3.640665e-05) (2.141639e-02 1.283373e-04 -2.433490e-02))
4.774694      	((1.630457e+01 -7.305448e+01 1.431471e+01) (4.449173e-03 -1.926932e+01 3.802459e-03)) ((2.852620e-04 1.582853e-04 -4.590139e-05) (2.409804e-02 1.264961e-04 -2.748949e-02))
4.902407      	((1.844581e+01 -7.316582e+01 1.617725e+01) (5.090749e-03 -1.926677e+01 4.607353e-03)) ((3.217363e-04 1.500228e-04 -5.414985e-05) (2.719458e-02 1.284984e-04 -3.106457e-02))
5.0301        	((2.086793e+01 -7.330426e+01 1.824980e+01) (5.764591e-03 -1.926480e+01 5.317307e-03)) ((3.597506e-04 1.444032e-04 -5.507301e-05) (3.073826e-02 1.264082e-04 -3.518527e-02))
5.157769      	((2.359257e+01 -7.347265e+01 2.058399e+01) (6.544914e-03 -1.926355e+01 6.033924e-03)) ((4.021467e-04 1.326215e-04 -5.700975e-05) (3.475963e-02 1.211074e-04 -3.988354e-02))
5.285411      	((2.663731e+01 -7.367358e+01 2.321451e+01) (7.328173e-03 -1.926314e+01 6.944488e-03)) ((4.446300e-04 1.232319e-04 -5.700639e-05) (3.930438e-02 1.183456e-04 -4.512800e-02))
5.413025      	((3.003548e+01 -7.391677e+01 2.614106e+01) (8.274449e-03 -1.926366e+01 7.933400e-03)) ((4.932647e-04 1.091177e-04 -4.699926e-05) (4.437254e-02 1.162289e-04 -5.097732e-02))
5.540609      	((3.380974e+01 -7.420442e+01 2.937641e+01) (9.567572e-03 -1.926530e+01 9.074029e-03)) ((5.409245e-04 9.166659e-05 -3.001207e-05) (4.996525e-02 1.175729e-04 -5.748429e-02))
5.66816       	((3.800152e+01 -7.457968e+01 3.298813e+01) (1.117335e-02 -1.926811e+01 1.060386e-02)) ((5.935868e-04 8.213693e-05 -8.236562e-06) (5.613592e-02 1.190938e-04 -6.466613e-02))
5.795671      	((4.264079e+01 -7.504450e+01 3.696558e+01) (1.315660e-02 -1.927221e+01 1.236297e-02)) ((6.494241e-04 4.973221e-05 2.464836e-05) (6.289849e-02 1.204339e-04 -7.258693e-02))
5.923134      	((4.771420e+01 -7.565336e+01 4.132972e+01) (1.547349e-02 -1.927780e+01 1.437236e-02)) ((7.069906e-04 2.611752e-05 6.146442e-05) (7.029950e-02 1.206148e-04 -8.127350e-02))
6.050546      	((5.327479e+01 -7.651388e+01 4.609618e+01) (1.816635e-02 -1.928480e+01 1.691607e-02)) ((7.732970e-04 9.041089e-06 9.888151e-05) (7.844600e-02 1.157188e-04 -9.079055e-02))
6.177904      	((5.925590e+01 -7.756086e+01 5.125030e+01) (2.139348e-02 -1.929340e+01 1.991380e-02)) ((8.500300e-04 -2.623948e-05 1.389233e-04) (8.731712e-02 1.196710e-04 -1.011603e-01))
6.305193      	((6.565005e+01 -7.886018e+01 5.674880e+01) (2.494179e-02 -1.930389e+01 2.324868e-02)) ((9.293911e-04 -6.327336e-05 1.846336e-04) (9.688242e-02 1.341159e-04 -1.123804e-01))
6.432401      	((7.229416e+01 -8.058635e+01 6.240780e+01) (2.890496e-02 -1.931660e+01 2.690599e-02)) ((9.983829e-04 -1.075005e-04 2.506324e-04) (1.070986e-01 1.463554e-04 -1.244320e-01))
6.559517      	((7.912633e+01 -8.257345e+01 6.815387e+01) (3.325899e-02 -1.933179e+01 3.089035e-02)) ((1.054363e-03 -1.520295e-04 3.393202e-04) (1.178750e-01 1.510502e-04 -1.372789e-01))
6.686523      	((8.591029e+01 -8.487875e+01 7.382486e+01) (3.761197e-02 -1.934975e+01 3.516387e-02)) ((1.077530e-03 -1.958603e-04 4.775628e-04) (1.290510e-01 1.554414e-04 -1.507940e-01))
6.81342       	((9.234334e+01 -8.760548e+01 7.916441e+01) (4.209270e-02 -1.937040e+01 3.965581e-02)) ((1.058369e-03 -2.332410e-04 6.510752e-04) (1.403885e-01 1.638057e-04 -1.646750e-01))
6.940208      	((9.805546e+01 -9.078558e+01 8.382457e+01) (4.720524e-02 -1.939328e+01 4.432905e-02)) ((9.862946e-04 -2.576848e-04 8.644877e-04) (1.515036e-01 1.819730e-04 -1.783921e-01))
7.066884      	((1.025768e+02 -9.426841e+01 8.749609e+01) (5.273091e-02 -1.941818e+01 4.916691e-02)) ((8.477648e-04 -2.492261e-04 1.080413e-03) (1.618649e-01 2.139481e-04 -1.912164e-01))
7.193449      	((1.055940e+02 -9.753994e+01 8.979139e+01) (5.838667e-02 -1.944473e+01 5.429797e-02)) ((6.595105e-04 -2.289436e-04 1.302375e-03) (1.707443e-01 2.679049e-04 -2.024379e-01))
7.319914      	((1.069121e+02 -1.004164e+02 9.054572e+01) (6.431847e-02 -1.947218e+01 5.951802e-02)) ((4.072462e-04 -2.014801e-04 1.550322e-03) (1.774706e-01 3.294045e-04 -2.114016e-01))
7.446286      	((1.064225e+02 -1.027349e+02 8.968138e+01) (6.935640e-02 -1.949995e+01 6.401012e-02)) ((1.485067e-04 -1.324147e-04 1.800212e-03) (1.818572e-01 3.871812e-04 -2.178573e-01))
7.572579      	((1.043114e+02 -1.044578e+02 8.727747e+01) (7.194485e-02 -1.952706e+01 6.668580e-02)) ((-1.232501e-04 -3.789521e-05 2.001915e-03) (1.840495e-01 4.257653e-04 -2.219185e-01))
7.698812      	((1.008400e+02 -1.055160e+02 8.368886e+01) (7.144356e-02 -1.955238e+01 6.635436e-02)) ((-3.405637e-04 7.378955e-05 2.118721e-03) (1.843442e-01 4.211801e-04 -2.240498e-01))
7.825006      	((9.654093e+01 -1.057425e+02 7.964802e+01) (6.711730e-02 -1.957505e+01 6.266492e-02)) ((-4.373275e-04 1.457148e-04 2.112615e-03) (1.833150e-01 3.934531e-04 -2.247422e-01))
7.951181      	((9.222761e+01 -1.052346e+02 7.581662e+01) (5.865807e-02 -1.959466e+01 5.620561e-02)) ((-3.863121e-04 1.528900e-04 2.026289e-03) (1.816229e-01 3.458448e-04 -2.244156e-01))
8.077357      	((8.881816e+01 -1.044269e+02 7.288678e+01) (4.838297e-02 -1.961106e+01 4.787701e-02)) ((-2.116299e-04 9.834421e-05 1.879513e-03) (1.796966e-01 2.347781e-04 -2.233875e-01))
8.203551      	((8.678695e+01 -1.033738e+02 7.096326e+01) (3.871525e-02 -1.962482e+01 3.904861e-02)) ((8.588374e-06 -1.602321e-05 1.710031e-03) (1.777002e-01 1.277905e-04 -2.219419e-01))
8.329775      	((8.591980e+01 -1.019392e+02 7.038780e+01) (3.059976e-02 -1.963672e+01 3.198152e-02)) ((2.290333e-04 -1.871335e-04 1.624989e-03) (1.757703e-01 5.084152e-05 -2.200765e-01))
8.456032      	((8.596529e+01 -1.003171e+02 7.039368e+01) (2.672167e-02 -1.964744e+01 2.838333e-02)) ((3.821795e-04 -3.826953e-04 1.634811e-03) (1.735626e-01 2.674225e-05 -2.174141e-01))
8.582322      	((8.619708e+01 -9.880000e+01 7.062968e+01) (2.906988e-02 -1.965761e+01 2.839988e-02)) ((4.782598e-04 -5.595713e-04 1.681677e-03) (1.706636e-01 4.074095e-05 -2.136785e-01))
8.708639      	((8.607214e+01 -9.762792e+01 7.076489e+01) (3.396551e-02 -1.966748e+01 3.080387e-02)) ((5.155001e-04 -6.589954e-04 1.690249e-03) (1.676345e-01 5.694142e-05 -2.092669e-01))
8.834975      	((8.513217e+01 -9.690131e+01 7.017390e+01) (3.779547e-02 -1.967708e+01 3.366643e-02)) ((4.771540e-04 -6.676535e-04 1.697718e-03) (1.648390e-01 5.835386e-05 -2.048593e-01))
8.961325      	((8.341111e+01 -9.682133e+01 6.887070e+01) (4.121482e-02 -1.968503e+01 3.531622e-02)) ((3.665138e-04 -6.180217e-04 1.681917e-03) (1.623490e-01 5.125398e-05 -2.012799e-01))
9.087686      	((8.106996e+01 -9.694618e+01 6.701867e+01) (4.227491e-02 -1.969109e+01 3.524516e-02)) ((2.412511e-04 -5.547083e-04 1.618786e-03) (1.602261e-01 4.249846e-05 -1.983988e-01))
9.214057      	((7.833505e+01 -9.717181e+01 6.498233e+01) (3.793272e-02 -1.969694e+01 3.312986e-02)) ((1.120658e-04 -4.264091e-04 1.534715e-03) (1.583842e-01 1.138359e-05 -1.955332e-01))
9.340441      	((7.612264e+01 -9.737732e+01 6.309406e+01) (3.311901e-02 -1.970071e+01 2.910139e-02)) ((3.697297e-06 -3.045140e-04 1.436363e-03) (1.568820e-01 -1.154939e-06 -1.933721e-01))
9.466842      	((7.469082e+01 -9.750936e+01 6.171951e+01) (2.865317e-02 -1.970180e+01 2.401784e-02)) ((-2.357982e-05 -2.941671e-04 1.294031e-03) (1.559450e-01 -2.484503e-05 -1.921945e-01))
9.593265      	((7.391820e+01 -9.739980e+01 6.123768e+01) (2.004410e-02 -1.970316e+01 1.840289e-02)) ((4.587666e-05 -3.371213e-04 1.168194e-03) (1.556337e-01 -1.999785e-04 -1.913046e-01))
9.719713      	((7.461747e+01 -9.701178e+01 6.157939e+01) (1.325874e-02 -1.970293e+01 1.323161e-02)) ((1.415750e-04 -3.764832e-04 1.093536e-03) (1.558369e-01 -5.106627e-04 -1.913033e-01))
9.846185      	((7.619650e+01 -9.652411e+01 6.265133e+01) (1.243549e-02 -1.970077e+01 1.030709e-02)) ((2.403725e-04 -5.059652e-04 1.047615e-03) (1.561691e-01 -8.395781e-04 -1.918654e-01))
9.972679      	((7.768187e+01 -9.591133e+01 6.385508e+01) (1.227017e-02 -1.970041e+01 1.061297e-02)) ((3.179526e-04 -6.673439e-04 1.061117e-03) (1.561960e-01 -1.115581e-03 -1.914560e-01))
10.09919      	((7.897168e+01 -9.553797e+01 6.506993e+01) (1.434262e-02 -1.970100e+01 1.298568e-02)) ((3.541511e-04 -6.857102e-04 1.075622e-03) (1.558970e-01 -1.295486e-03 -1.903854e-01))
10.22571      	((7.991526e+01 -9.592041e+01 6.575748e+01) (2.194383e-02 -1.969983e+01 1.621410e-02)) ((3.753536e-04 -7.468915e-04 1.115765e-03) (1.555575e-01 -1.343395e-03 -1.895984e-01))
10.352232     	((7.957003e+01 -9.700564e+01 6.563874e+01) (2.656085e-02 -1.969925e+01 1.958277e-02)) ((3.559494e-04 -8.490657e-04 1.203330e-03) (1.554232e-01 -1.299826e-03 -1.886406e-01))
10.478753     	((7.861432e+01 -9.828404e+01 6.506651e+01) (2.618361e-02 -1.969931e+01 2.115193e-02)) ((2.378769e-04 -7.509587e-04 1.298862e-03) (1.557039e-01 -1.185179e-03 -1.880871e-01))
10.60527      	((7.767211e+01 -9.911992e+01 6.415491e+01) (2.711830e-02 -1.969648e+01 1.966887e-02)) ((1.099230e-04 -6.437917e-04 1.333994e-03) (1.565871e-01 -1.010183e-03 -1.890121e-01))
10.731785     	((7.627098e+01 -9.961441e+01 6.318582e+01) (2.373800e-02 -1.969285e+01 1.628208e-02)) ((5.036955e-05 -6.820736e-04 1.345546e-03) (1.580148e-01 -8.749980e-04 -1.903902e-01))
10.858301     	((7.467492e+01 -9.987547e+01 6.210265e+01) (1.469898e-02 -1.968999e+01 1.147807e-02)) ((-6.655001e-06 -6.242776e-04 1.354415e-03) (1.595857e-01 -8.235445e-04 -1.916935e-01))
10.984824     	((7.384175e+01 -9.971013e+01 6.135124e+01) (9.089979e-03 -1.968475e+01 5.685227e-03)) ((-2.289198e-05 -5.539447e-04 1.313843e-03) (1.609832e-01 -8.003356e-04 -1.935958e-01))
11.111359     	((7.350725e+01 -9.923671e+01 6.113586e+01) (4.105388e-03 -1.967833e+01 1.207518e-03)) ((4.722547e-05 -6.901547e-04 1.254979e-03) (1.620721e-01 -8.281299e-04 -1.951556e-01))
11.237911     	((7.366487e+01 -9.894197e+01 6.148458e+01) (-2.569314e-03 -1.967334e+01 -9.440708e-04)) ((1.086699e-04 -7.346778e-04 1.225609e-03) (1.625837e-01 -9.041379e-04 -1.955938e-01))
11.364481     	((7.470044e+01 -9.861873e+01 6.212068e+01) (-3.055547e-03 -1.966751e+01 -1.607162e-03)) ((1.640926e-04 -6.697609e-04 1.178876e-03) (1.624404e-01 -9.252687e-04 -1.959420e-01))
