# Forces      
# CofR        : (0.000000e+00 0.000000e+00 0.000000e+00)
# Time        forces(pressure viscous)	moments(pressure viscous)
0             	((0.000000e+00 0.000000e+00 0.000000e+00) (0.000000e+00 0.000000e+00 0.000000e+00)) ((0.000000e+00 0.000000e+00 0.000000e+00) (0.000000e+00 0.000000e+00 0.000000e+00))
0.012         	((-1.582207e-05 -3.895553e-04 9.637303e-07) (-2.499432e-09 -4.327832e-08 -7.615226e-10)) ((7.987682e-07 9.243181e-09 -2.292880e-04) (-9.532317e-09 -1.753069e-10 -1.376939e-02))
0.0264        	((-6.300991e-05 3.165287e-04 2.205683e-06) (-2.820722e-09 -5.971982e-08 -1.499087e-09)) ((3.578879e-07 1.661249e-08 -1.029228e-04) (-1.166090e-08 -7.872633e-10 -1.375376e-02))
0.04368       	((-1.367263e-05 -2.254378e-04 1.091648e-05) (5.626944e-09 -6.214074e-08 -8.970507e-10)) ((4.038171e-07 2.330214e-08 -5.672532e-05) (-1.768186e-08 -3.509583e-09 -1.373215e-02))
0.064416      	((-8.388248e-05 9.178142e-05 6.929004e-06) (1.707288e-08 -6.027391e-08 -3.059207e-09)) ((2.192664e-07 3.329373e-08 -2.939805e-05) (-2.672778e-08 -5.601545e-09 -1.370636e-02))
0.0892992     	((3.358466e-05 -6.088084e-05 -3.890737e-06) (2.740960e-08 -5.719461e-08 -3.799833e-09)) ((2.473823e-07 8.073811e-09 -2.212583e-05) (-3.481938e-08 -3.759527e-09 -1.367553e-02))
0.119159      	((-3.738138e-05 -2.654148e-05 -1.185345e-06) (4.083288e-08 -5.214272e-08 1.440479e-09)) ((2.118279e-07 -3.410693e-08 -1.760570e-05) (-4.503728e-08 -3.602725e-09 -1.363874e-02))
0.154991      	((6.986939e-06 -9.650526e-06 4.055999e-06) (5.617730e-08 -4.499695e-08 7.611430e-09)) ((1.633373e-07 -3.990223e-08 -1.608976e-05) (-5.360247e-08 -5.964277e-09 -1.359490e-02))
0.197989      	((-2.215556e-05 -2.175977e-05 7.942397e-07) (6.656363e-08 -4.113609e-08 9.992554e-09)) ((1.488460e-07 -3.617111e-08 -1.443020e-05) (-6.154927e-08 -5.911239e-09 -1.354269e-02))
0.249587      	((-7.940267e-06 -1.094343e-05 -1.045666e-06) (7.069780e-08 -3.620069e-08 9.243563e-09)) ((1.180817e-07 3.083551e-09 -1.288176e-05) (-7.252648e-08 -5.573830e-09 -1.348061e-02))
0.311504      	((-1.504333e-05 -1.099424e-05 -3.748487e-06) (7.072379e-08 -2.819984e-08 6.329224e-09)) ((1.177174e-07 1.648195e-08 -1.185302e-05) (-8.495926e-08 -3.414665e-09 -1.340697e-02))
0.385805      	((-1.886705e-05 -9.644329e-06 3.913274e-08) (6.680666e-08 -2.007847e-08 1.179524e-09)) ((1.093254e-07 3.355621e-09 -1.111536e-05) (-9.479088e-08 1.335990e-09 -1.331987e-02))
0.474966      	((-1.981107e-05 -6.476234e-06 -5.758473e-06) (5.956544e-08 -1.058741e-08 -4.556797e-09)) ((1.038696e-07 -3.167976e-10 -1.052791e-05) (-1.000233e-07 7.162321e-09 -1.321724e-02))
0.581959      	((-1.160688e-05 -3.428087e-06 -1.859887e-06) (5.209025e-08 1.157555e-09 -9.431656e-09)) ((1.025884e-07 -5.383476e-09 -1.004001e-05) (-9.756147e-08 1.404612e-08 -1.309689e-02))
0.710351      	((-9.089896e-06 -5.681367e-06 -4.183610e-06) (4.669708e-08 1.605677e-08 -1.089688e-08)) ((9.832274e-08 -9.150501e-09 -9.596053e-06) (-8.248465e-08 1.918486e-08 -1.295661e-02))
0.864421      	((-4.699594e-06 -1.328149e-06 5.170209e-07) (4.408153e-08 3.162993e-08 -8.317680e-09)) ((9.090267e-08 -1.025197e-08 -9.158630e-06) (-5.694046e-08 1.977053e-08 -1.279437e-02))
1.049306      	((-3.331952e-06 -2.745178e-06 8.516385e-07) (4.526670e-08 4.142949e-08 -5.145668e-09)) ((7.718469e-08 -8.764408e-09 -8.725088e-06) (-2.545127e-08 1.830447e-08 -1.260864e-02))
1.271167      	((-6.552934e-06 -2.575852e-07 2.097151e-06) (4.551874e-08 4.387473e-08 -4.433267e-09)) ((6.454069e-08 -1.934685e-09 -8.314477e-06) (3.912733e-09 1.174033e-08 -1.239881e-02))
1.5374        	((-2.300756e-06 -7.065799e-07 9.209329e-07) (3.971105e-08 4.169950e-08 -1.224375e-08)) ((5.467219e-08 7.242806e-09 -7.922231e-06) (2.318532e-08 -6.319526e-09 -1.216565e-02))
1.85688       	((-4.574894e-06 9.446901e-08 1.640020e-06) (2.397494e-08 4.035294e-08 -2.573101e-08)) ((4.588511e-08 1.029666e-08 -7.526858e-06) (3.760398e-08 -3.725523e-08 -1.191176e-02))
2.240256      	((-2.452749e-06 6.098599e-07 -7.591326e-07) (5.884147e-09 3.466829e-08 -3.801532e-08)) ((4.087807e-08 8.736447e-09 -7.135967e-06) (4.771561e-08 -7.492574e-08 -1.164171e-02))
2.700307      	((-3.708543e-06 1.137262e-06 1.033347e-06) (-1.040872e-08 2.559639e-08 -4.372100e-08)) ((3.898830e-08 7.273036e-09 -6.760935e-06) (5.376646e-08 -1.085341e-07 -1.136152e-02))
3.252369      	((-3.964100e-07 9.331926e-07 -1.120431e-06) (-1.912006e-08 1.874359e-08 -4.311030e-08)) ((4.090018e-08 4.082377e-09 -6.401129e-06) (6.037983e-08 -1.256267e-07 -1.107737e-02))
3.914842      	((1.099058e-06 1.658514e-06 8.034836e-07) (-2.162839e-08 1.764268e-08 -4.120104e-08)) ((3.927461e-08 3.281738e-09 -6.036060e-06) (7.132951e-08 -1.228693e-07 -1.079354e-02))
4.709811      	((3.047236e-06 -1.875464e-07 -1.706054e-06) (-2.662596e-08 2.658717e-08 -4.187516e-08)) ((3.552658e-08 -1.664547e-09 -5.658261e-06) (7.875752e-08 -9.821841e-08 -1.051014e-02))
5.663773      	((4.039010e-06 -6.595651e-07 4.339737e-07) (-1.621297e-08 2.468022e-08 -5.504492e-08)) ((3.045606e-08 -2.388788e-09 -5.251995e-06) (7.658694e-08 -4.989215e-08 -1.021510e-02))
6.808528      	((2.597918e-06 -3.379817e-07 -9.051155e-07) (4.926352e-09 -1.481365e-08 -8.046089e-08)) ((2.624865e-08 -1.930621e-09 -4.841540e-06) (6.545774e-08 1.164101e-08 -9.894673e-03))
8.182233      	((1.955038e-07 -8.494492e-07 -2.963398e-07) (3.406003e-08 -5.375914e-08 -9.975370e-08)) ((2.750609e-08 -1.407013e-09 -4.489115e-06) (4.310753e-08 7.864990e-08 -9.547307e-03))
9.83068       	((-7.550162e-07 -5.649887e-07 -1.873093e-08) (6.530891e-08 -6.432888e-08 -1.068935e-07)) ((2.081849e-08 -1.786049e-09 -4.246147e-06) (1.790347e-08 1.226723e-07 -9.179979e-03))
11.808816     	((3.201703e-07 -2.990728e-06 7.161777e-07) (1.080636e-07 -5.482039e-08 -9.730894e-08)) ((1.855540e-08 -1.926330e-09 -4.086750e-06) (-1.099369e-08 1.353431e-07 -8.802693e-03))
14.182579     	((-8.844577e-07 -2.969314e-06 8.593841e-08) (1.241840e-07 -6.171650e-09 -8.129134e-08)) ((1.715139e-08 3.611955e-10 -3.900112e-06) (-4.597186e-08 1.306479e-07 -8.425599e-03))
17.031095     	((-3.596328e-06 -1.625668e-06 -2.452681e-08) (8.608038e-08 7.000706e-08 -5.735989e-08)) ((1.234212e-08 7.961103e-10 -3.658550e-06) (-9.489699e-08 8.988986e-08 -8.056615e-03))
20.449314     	((-4.557066e-06 3.760515e-06 -2.651006e-06) (2.153787e-08 1.354827e-07 1.500729e-09)) ((1.211967e-08 9.924887e-10 -3.349265e-06) (-1.907453e-07 4.278900e-08 -7.697691e-03))
24.551176     	((2.005388e-06 9.648746e-06 -2.192052e-06) (-3.360198e-08 1.929097e-07 7.220079e-08)) ((1.324472e-08 -8.953463e-10 -3.004337e-06) (-2.381586e-07 1.354291e-08 -7.345469e-03))
29.473411     	((1.305811e-06 1.949502e-05 -1.703072e-06) (-2.766527e-07 3.459723e-07 9.062545e-08)) ((1.088443e-08 -1.288695e-09 -2.652774e-06) (-2.585184e-07 3.936786e-08 -6.998974e-03))
35.380094     	((3.115383e-06 2.266640e-05 -5.108014e-07) (-4.833410e-07 5.792399e-07 5.595722e-08)) ((1.301947e-08 -2.772440e-10 -2.307019e-06) (-2.735836e-07 1.189427e-07 -6.666908e-03))
42.287047     	((8.984686e-06 2.763096e-05 6.517605e-07) (-4.224974e-07 7.807762e-07 9.175648e-08)) ((1.533652e-08 -3.265745e-09 -1.992553e-06) (-1.938923e-07 1.239690e-07 -6.369075e-03))
50.204767     	((1.742660e-05 3.491873e-05 7.794589e-07) (1.326116e-07 6.685906e-07 5.055997e-08)) ((1.724609e-08 -1.011460e-08 -1.718700e-06) (-1.161457e-07 9.702620e-08 -6.114756e-03))
59.143978     	((2.452192e-05 3.460913e-05 3.941757e-07) (-7.374239e-08 7.454197e-07 -3.394260e-08)) ((1.974265e-08 -4.559730e-09 -1.516390e-06) (-1.306538e-07 7.254722e-08 -5.907234e-03))
69.106735     	((1.840200e-05 3.457258e-05 1.948605e-06) (-1.675810e-07 1.275141e-06 3.887155e-09)) ((1.627694e-08 -1.036744e-08 -1.370969e-06) (-9.828770e-08 3.415660e-08 -5.744532e-03))
79.367407     	((2.189982e-05 2.716854e-05 4.038053e-06) (8.009974e-09 1.109000e-06 5.239885e-08)) ((1.415826e-08 -1.313206e-08 -1.255371e-06) (-6.651964e-08 7.218624e-08 -5.624534e-03))
89.653272     	((1.621528e-05 2.310048e-05 1.916385e-06) (-3.790919e-07 1.591951e-06 -2.452914e-07)) ((1.431683e-08 -1.143488e-08 -1.204132e-06) (5.587087e-08 9.261788e-08 -5.535353e-03))
99.974589     	((3.274675e-05 2.996360e-05 -4.096734e-06) (7.933376e-07 1.373474e-06 -4.169229e-07)) ((1.384821e-08 -1.353347e-08 -1.194560e-06) (1.317417e-07 8.051939e-08 -5.469947e-03))
110.339204    	((4.581410e-05 3.228104e-05 -4.314360e-06) (1.972464e-06 1.441365e-06 -5.681961e-07)) ((1.066198e-08 -2.156991e-08 -1.183145e-06) (1.948356e-07 1.224212e-07 -5.423605e-03))
120.754475    	((3.891213e-05 3.678653e-05 -3.988921e-06) (1.772462e-06 1.867345e-06 -6.398993e-07)) ((5.096071e-09 -2.016015e-08 -1.160140e-06) (2.377208e-07 1.403572e-07 -5.393571e-03))
131.23169     	((2.500241e-05 3.273272e-05 -1.899232e-06) (1.021134e-06 1.631300e-06 -3.606953e-07)) ((8.586159e-09 -1.739279e-08 -1.130412e-06) (2.700204e-07 1.550256e-08 -5.379292e-03))
141.779677    	((3.423139e-05 3.524420e-05 -2.569502e-06) (-1.289861e-07 2.173880e-06 -1.848725e-07)) ((9.057361e-09 -2.196079e-08 -1.103129e-06) (2.883685e-07 -1.226223e-07 -5.381217e-03))
152.396421    	((5.289607e-05 5.075631e-05 -5.764923e-06) (-5.508855e-07 3.350562e-06 -3.346581e-07)) ((4.097613e-09 -2.565931e-08 -1.096162e-06) (2.423488e-07 -2.408813e-07 -5.399849e-03))
163.07913     	((5.048876e-05 3.614468e-05 -1.071966e-05) (-6.852102e-07 2.446569e-06 -4.869469e-07)) ((-1.231078e-10 -2.576729e-08 -1.104737e-06) (2.443216e-07 -3.073955e-07 -5.435304e-03))
173.826768    	((5.795849e-05 2.921327e-05 -1.499821e-05) (-6.547634e-07 1.555588e-06 -7.649606e-07)) ((2.230321e-10 -2.389225e-08 -1.117491e-06) (2.487063e-07 -2.624810e-07 -5.486856e-03))
184.629886    	((5.229897e-05 1.872112e-05 -1.864644e-05) (-1.113790e-06 -9.293587e-08 -9.916099e-07)) ((-6.991280e-09 -1.601148e-08 -1.142901e-06) (1.821136e-07 -2.116972e-07 -5.551825e-03))
195.466491    	((6.074781e-05 3.119909e-05 -1.979637e-05) (-1.302252e-06 -9.504848e-07 -1.377392e-06)) ((-1.721487e-09 -1.077569e-08 -1.177474e-06) (5.768270e-08 -1.400766e-07 -5.625694e-03))
206.292284    	((4.066392e-05 3.379753e-05 -3.079800e-05) (-5.708778e-07 -3.158486e-06 -1.717742e-06)) ((9.388256e-09 -1.243670e-08 -1.221274e-06) (-5.350097e-09 2.079527e-08 -5.700857e-03))
217.055608    	((1.964998e-05 3.643565e-05 -4.081790e-05) (2.848383e-07 -3.365513e-06 -2.058633e-06)) ((2.012469e-08 -9.807329e-09 -1.265526e-06) (7.965846e-08 2.059620e-07 -5.770002e-03))
227.728285    	((-1.620338e-05 3.519762e-05 -5.400559e-05) (5.251099e-07 -2.850998e-06 -2.143576e-06)) ((2.211116e-08 -4.142518e-09 -1.306579e-06) (2.306734e-07 4.829318e-07 -5.827739e-03))
238.300232    	((-2.713891e-05 1.856652e-05 -6.812710e-05) (-1.983053e-07 -2.048964e-06 -1.989285e-06)) ((2.580538e-08 -4.522193e-09 -1.332708e-06) (3.793050e-07 7.010942e-07 -5.872068e-03))
248.771645    	((-3.432140e-05 2.387833e-05 -8.056984e-05) (-4.315899e-08 -1.028563e-06 -2.104683e-06)) ((2.242558e-08 -9.679869e-11 -1.346049e-06) (6.705374e-07 6.603303e-07 -5.902958e-03))
259.152205    	((-2.678383e-05 -1.203723e-07 -5.696296e-05) (2.885615e-07 -2.481271e-07 -2.141665e-06)) ((2.274361e-08 -2.352879e-09 -1.349394e-06) (1.125938e-06 2.743466e-07 -5.922235e-03))
269.470181    	((-3.928489e-05 5.100069e-06 -4.080751e-05) (-2.991361e-07 6.986716e-07 -2.196793e-06)) ((1.788665e-08 -3.249716e-09 -1.342362e-06) (1.406137e-06 -3.019073e-07 -5.933470e-03))
279.741794    	((-2.396287e-05 7.627287e-06 -4.067520e-05) (-6.242873e-07 1.727496e-06 -2.158519e-06)) ((1.205822e-08 -1.668693e-09 -1.333414e-06) (1.388643e-06 -8.702856e-07 -5.938966e-03))
289.977749    	((-2.050235e-05 7.490452e-06 -4.909500e-05) (-4.513636e-07 1.781220e-06 -1.953740e-06)) ((4.684513e-09 -2.939995e-09 -1.327686e-06) (1.142337e-06 -1.447743e-06 -5.940441e-03))
300.184724    	((-2.103744e-05 2.082791e-06 -4.382698e-05) (-1.051746e-06 1.350000e-06 -1.840807e-06)) ((4.417348e-09 2.998815e-10 -1.321755e-06) (6.565719e-07 -1.957500e-06 -5.939805e-03))
