# Forces      
# CofR        : (0.000000e+00 0.000000e+00 0.000000e+00)
# Time        forces(pressure viscous)	moments(pressure viscous)
0             	((0.000000e+00 0.000000e+00 0.000000e+00) (0.000000e+00 0.000000e+00 0.000000e+00)) ((0.000000e+00 0.000000e+00 0.000000e+00) (0.000000e+00 0.000000e+00 0.000000e+00))
0.012         	((8.204801e-06 1.953491e-04 -2.807520e-07) (1.024988e-09 1.783950e-08 3.374398e-10)) ((-3.983666e-07 -3.286204e-09 1.142501e-04) (3.854844e-09 -3.531510e-10 6.286820e-03))
0.0264        	((3.448742e-05 -1.584596e-04 2.174262e-09) (1.933080e-09 2.445833e-08 -3.884954e-10)) ((-1.764997e-07 -5.763577e-09 5.071536e-05) (4.525660e-09 -4.110694e-10 6.280148e-03))
0.04368       	((1.166939e-05 1.143875e-04 -1.022530e-06) (3.450243e-09 2.573967e-08 -9.493776e-10)) ((-1.951897e-07 8.328421e-09 2.714976e-05) (6.468397e-09 -5.655057e-10 6.272139e-03))
0.064416      	((4.129258e-05 -4.820957e-05 -2.302664e-06) (6.796364e-09 2.702895e-08 -1.624614e-09)) ((-1.020182e-07 8.256293e-09 1.313113e-05) (1.006625e-08 -7.597089e-10 6.262568e-03))
0.0892992     	((-6.013787e-08 3.029275e-05 5.685111e-06) (1.100342e-08 2.879826e-08 -2.486308e-09)) ((-9.536399e-08 5.119273e-09 9.304907e-06) (1.413717e-08 -1.613192e-10 6.251116e-03))
0.119159      	((1.670354e-05 1.167896e-05 5.462672e-07) (1.408249e-08 2.913592e-08 -1.632243e-09)) ((-5.653252e-08 -5.721966e-09 6.975136e-06) (1.739369e-08 4.719902e-10 6.237434e-03))
0.154991      	((1.153195e-06 5.694916e-06 7.969473e-07) (1.690421e-08 2.780761e-08 -5.812751e-10)) ((-3.833394e-08 -1.702476e-09 6.245919e-06) (1.824142e-08 7.512013e-10 6.221096e-03))
0.197989      	((9.120311e-06 4.219085e-06 2.061649e-06) (2.059991e-08 2.658266e-08 -1.059888e-09)) ((-3.796378e-08 6.175700e-09 5.688133e-06) (1.785025e-08 1.326821e-09 6.201602e-03))
0.249587      	((3.426012e-06 1.006658e-06 2.138287e-06) (2.339764e-08 2.591651e-08 -2.731913e-09)) ((-4.854826e-08 1.808924e-10 5.171275e-06) (1.785213e-08 2.783532e-09 6.178365e-03))
0.311504      	((5.235843e-06 4.930000e-07 1.378321e-06) (2.538895e-08 2.603304e-08 -4.040104e-09)) ((-3.934883e-08 6.309296e-09 4.481709e-06) (1.840875e-08 5.484762e-09 6.150698e-03))
0.385805      	((-1.778007e-08 -3.033981e-07 -1.254472e-06) (2.687482e-08 2.522052e-08 -4.482344e-09)) ((-3.227922e-08 1.606131e-09 3.845542e-06) (2.017568e-08 9.045417e-09 6.117816e-03))
0.474966      	((9.137357e-07 1.800978e-06 2.783155e-07) (2.766111e-08 2.176498e-08 -4.771285e-09)) ((-3.295700e-08 5.205392e-09 3.437435e-06) (2.333368e-08 1.270765e-08 6.078842e-03))
0.581959      	((3.461865e-07 3.378495e-07 -1.295925e-06) (2.686680e-08 1.688901e-08 -5.308012e-09)) ((-3.467131e-08 7.673747e-09 3.149805e-06) (2.655866e-08 1.687810e-08 6.032797e-03))
0.710351      	((-4.827279e-07 -1.191078e-07 -6.760062e-07) (2.471589e-08 1.104978e-08 -6.586459e-09)) ((-3.300392e-08 6.512896e-09 2.943250e-06) (2.898091e-08 2.095547e-08 5.978612e-03))
0.864421      	((-1.908381e-06 3.478450e-10 -1.011876e-06) (2.243074e-08 5.670441e-09 -8.223069e-09)) ((-2.979555e-08 4.767896e-09 2.788669e-06) (2.992926e-08 2.385426e-08 5.915161e-03))
1.049306      	((8.926573e-07 -6.569745e-07 1.233510e-07) (2.054867e-08 1.825181e-09 -9.529929e-09)) ((-2.914079e-08 2.862842e-09 2.656855e-06) (2.839395e-08 2.502049e-08 5.841320e-03))
1.271167      	((-5.229512e-07 -4.470514e-07 -3.690190e-07) (1.913040e-08 -1.155968e-09 -1.041675e-08)) ((-2.638372e-08 1.356997e-09 2.542631e-06) (2.364643e-08 2.448474e-08 5.756073e-03))
1.5374        	((5.455284e-07 -6.869100e-07 -4.411383e-07) (1.913032e-08 -4.291944e-09 -1.139586e-08)) ((-2.475284e-08 3.565079e-10 2.428405e-06) (1.478162e-08 2.100646e-08 5.658658e-03))
1.85688       	((-9.725608e-07 1.078987e-08 -6.280695e-07) (2.028929e-08 -6.890330e-09 -1.363000e-08)) ((-2.197629e-08 1.133820e-10 2.312538e-06) (3.467560e-09 1.502131e-08 5.548774e-03))
2.240256      	((-1.136224e-06 -6.765580e-07 -4.048144e-07) (1.990981e-08 -8.280628e-09 -1.752536e-08)) ((-1.892636e-08 1.057396e-09 2.198890e-06) (-5.148077e-09 8.970268e-09 5.426829e-03))
2.700307      	((-1.148546e-06 -3.703601e-07 -2.937730e-07) (1.686784e-08 -7.708752e-09 -2.098826e-08)) ((-1.515508e-08 2.185440e-09 2.086425e-06) (-8.415417e-09 1.749975e-09 5.294144e-03))
3.252369      	((5.582532e-07 -6.133921e-07 -1.849755e-07) (1.195387e-08 -5.711809e-09 -2.327249e-08)) ((-1.189110e-08 2.123785e-09 1.976220e-06) (-8.700483e-09 -7.928326e-09 5.153023e-03))
3.914842      	((5.989019e-07 -3.676429e-07 4.441186e-08) (4.750178e-09 -3.245928e-09 -2.386182e-08)) ((-1.083814e-08 2.030405e-09 1.869864e-06) (-1.287612e-08 -1.739100e-08 5.006500e-03))
4.709811      	((5.901319e-07 -1.414401e-07 -2.028943e-07) (3.658842e-12 -3.571360e-09 -2.189643e-08)) ((-1.167059e-08 1.532768e-09 1.770710e-06) (-1.965631e-08 -2.339763e-08 4.857699e-03))
5.663773      	((1.597124e-07 -1.143098e-07 -8.581269e-08) (2.476723e-10 -8.844691e-09 -2.093286e-08)) ((-1.230072e-08 1.403758e-09 1.675533e-06) (-2.249805e-08 -2.020449e-08 4.708879e-03))
6.808528      	((1.024168e-06 3.349189e-08 -5.049360e-08) (2.136401e-09 -1.363436e-08 -2.411073e-08)) ((-1.150477e-08 -1.731941e-10 1.569825e-06) (-2.024563e-08 -3.890131e-09 4.560248e-03))
8.182233      	((8.574045e-07 -1.423446e-09 -1.729218e-07) (8.463100e-09 -9.065197e-09 -2.926779e-08)) ((-9.673309e-09 -4.254335e-10 1.443896e-06) (-1.359989e-08 1.929856e-08 4.406222e-03))
9.83068       	((8.063938e-07 -3.896324e-07 -2.905246e-07) (2.633209e-08 3.062929e-09 -3.219341e-08)) ((-7.288189e-09 -3.274402e-10 1.316480e-06) (-1.031432e-08 4.113608e-08 4.240345e-03))
11.808816     	((-3.243666e-07 -2.928200e-08 -3.270597e-08) (3.008262e-08 8.952866e-09 -3.210253e-08)) ((-7.252298e-09 -6.763587e-10 1.203490e-06) (-5.643809e-09 5.573850e-08 4.061852e-03))
14.182579     	((-1.099399e-06 -2.543558e-07 -6.393496e-08) (2.983791e-08 -2.636644e-10 -2.964280e-08)) ((-4.297997e-09 -1.051637e-11 1.121525e-06) (3.578142e-09 5.870011e-08 3.874067e-03))
17.031095     	((-4.473091e-07 4.556736e-08 2.261811e-08) (3.068968e-08 -6.175189e-09 -2.399278e-08)) ((-4.146185e-09 -5.726851e-10 1.071841e-06) (1.389146e-08 4.459356e-08 3.681962e-03))
20.449314     	((-1.262195e-06 -8.377996e-07 -2.128111e-07) (4.625872e-08 -2.096735e-08 -9.983935e-09)) ((-4.307824e-09 3.635522e-10 1.017246e-06) (3.269203e-08 3.266917e-08 3.490565e-03))
24.551176     	((-2.400441e-06 7.992140e-08 -3.157527e-07) (2.701377e-08 -9.216204e-08 -3.599635e-09)) ((-4.422460e-09 5.108318e-10 9.437027e-07) (5.799603e-08 2.565662e-08 3.303500e-03))
29.473411     	((-2.009633e-07 9.897810e-08 -8.532441e-07) (-2.257750e-08 -9.863550e-08 -2.719033e-09)) ((-5.634784e-09 3.508852e-10 8.620047e-07) (6.559238e-08 2.018665e-08 3.121822e-03))
35.380094     	((3.774765e-07 3.868216e-06 -7.270729e-07) (-3.455221e-08 -1.067224e-07 2.875454e-09)) ((-4.460348e-09 -4.419099e-10 7.680844e-07) (5.358434e-08 1.334553e-08 2.944197e-03))
42.468112     	((3.579122e-06 4.257346e-06 -3.799993e-07) (-1.427076e-07 -1.158055e-07 3.884613e-08)) ((-2.571251e-09 -1.325240e-09 6.667555e-07) (6.919903e-08 5.682058e-10 2.770488e-03))
50.973735     	((3.514819e-06 3.595788e-06 -3.518626e-07) (-3.017250e-07 -8.069019e-08 5.111490e-08)) ((-1.605196e-10 -7.915687e-11 5.624415e-07) (9.109963e-08 2.390904e-08 2.604980e-03))
61.180482     	((6.974023e-06 5.054209e-06 3.193199e-07) (-1.317511e-07 -2.176540e-07 7.221935e-08)) ((8.449061e-10 -4.642409e-10 4.573815e-07) (5.686213e-08 4.208937e-08 2.453783e-03))
73.422065     	((9.155127e-06 7.267019e-06 7.682228e-07) (2.536479e-07 7.069478e-08 9.018831e-08)) ((3.187147e-10 -1.544093e-09 3.672895e-07) (1.653192e-08 2.018461e-08 2.320604e-03))
87.704054     	((1.035274e-05 9.348392e-06 4.937750e-07) (5.631315e-07 4.347002e-07 2.805989e-08)) ((2.352301e-09 -1.849528e-09 3.048861e-07) (2.913036e-08 -2.089010e-08 2.209635e-03))
104.032799    	((8.709719e-06 7.288551e-06 9.292620e-07) (9.748304e-07 3.245838e-07 2.505252e-08)) ((3.662431e-09 -2.728561e-09 2.472034e-07) (3.926319e-08 -3.442625e-08 2.120352e-03))
122.414479    	((8.912334e-06 1.037202e-05 5.394913e-07) (1.231097e-06 5.109937e-07 -1.420001e-07)) ((3.494918e-09 -2.339610e-09 2.201322e-07) (1.717210e-08 -3.559640e-08 2.049561e-03))
142.858199    	((7.899396e-06 1.163757e-05 4.382251e-07) (8.276159e-07 7.907258e-07 -2.331772e-07)) ((3.057206e-09 -1.606109e-09 2.093583e-07) (-1.230434e-08 -6.338217e-08 1.994029e-03))
163.601834    	((9.300120e-06 1.843727e-05 -3.007762e-07) (8.915107e-07 1.671905e-06 -3.251700e-07)) ((3.303032e-09 -1.235108e-09 1.994443e-07) (-3.566280e-09 -1.108769e-07 1.953276e-03))
184.490603    	((9.497315e-06 1.647501e-05 -6.905990e-07) (9.472824e-07 2.165734e-06 -3.481945e-07)) ((3.139457e-09 -1.205305e-09 1.983354e-07) (6.513324e-08 -1.368770e-07 1.923039e-03))
205.56682     	((9.697796e-06 1.264648e-05 -3.655274e-07) (6.161875e-07 2.245313e-06 -3.843432e-07)) ((2.972100e-09 -1.714474e-09 2.021735e-07) (1.166658e-07 -1.617447e-07 1.901688e-03))
226.866575    	((1.157746e-05 1.266287e-05 -1.044266e-06) (4.790984e-07 1.539086e-06 -3.188339e-07)) ((3.381523e-09 -1.931766e-09 1.996916e-07) (1.388266e-07 -1.833189e-07 1.888812e-03))
248.395253    	((1.604734e-05 1.473508e-05 -1.806375e-06) (9.837040e-07 3.613353e-07 -3.257108e-07)) ((3.137653e-09 2.553099e-10 2.002396e-07) (1.705760e-07 -2.191682e-07 1.884495e-03))
270.128206    	((1.308816e-05 1.319694e-05 -3.725641e-06) (1.360707e-06 -4.914883e-08 -4.268431e-07)) ((3.353455e-09 1.978019e-09 2.038038e-07) (2.138150e-07 -2.414465e-07 1.888917e-03))
292.057718    	((6.490524e-06 1.386957e-05 -4.607677e-06) (1.122064e-06 -4.799074e-07 -5.065113e-07)) ((1.674548e-09 2.645201e-09 2.076787e-07) (2.365808e-07 -2.015451e-07 1.902208e-03))
314.182502    	((5.459381e-06 1.586880e-05 -5.146561e-06) (1.065658e-06 -5.636857e-07 -5.302787e-07)) ((1.327978e-09 3.527671e-09 2.137831e-07) (2.302993e-07 -1.274771e-07 1.923926e-03))
336.466       	((1.030835e-05 1.435073e-05 -4.740319e-06) (1.243464e-07 9.043790e-08 -6.225278e-07)) ((1.010148e-11 3.560662e-09 2.223651e-07) (1.775599e-07 -5.799048e-08 1.953126e-03))
358.738051    	((9.203550e-06 1.262611e-05 -6.279528e-06) (-3.455503e-07 -1.923804e-07 -6.768744e-07)) ((-1.962648e-09 2.590821e-09 2.292023e-07) (8.626643e-08 4.843586e-10 1.987750e-03))
380.835117    	((6.213365e-06 5.297540e-06 -1.095876e-05) (-1.168484e-06 2.931755e-07 -6.654501e-07)) ((-3.885720e-09 3.415688e-09 2.379579e-07) (-1.829590e-08 -4.570192e-09 2.024492e-03))
402.662623    	((5.522471e-06 -3.938771e-06 -1.705925e-05) (-8.338651e-07 -2.661539e-08 -7.434182e-07)) ((-4.506598e-09 3.600176e-09 2.457302e-07) (-1.080617e-07 -9.898127e-08 2.059054e-03))
424.170552    	((6.814156e-06 -1.214865e-05 -2.286928e-05) (-5.157290e-07 6.382541e-08 -8.251016e-07)) ((-4.800447e-09 -6.957330e-10 2.512214e-07) (-2.009215e-07 -1.783600e-07 2.087535e-03))
445.359671    	((5.163464e-06 -1.370044e-05 -2.022254e-05) (-3.451259e-07 3.848564e-07 -8.718784e-07)) ((-4.968447e-09 -3.479569e-09 2.547425e-07) (-2.090243e-07 -3.293971e-07 2.108162e-03))
466.281503    	((1.398299e-06 -1.261469e-05 -1.701347e-05) (3.617183e-07 7.558943e-08 -7.843829e-07)) ((-6.056111e-09 -2.282100e-09 2.570746e-07) (-8.212293e-08 -5.446431e-07 2.121543e-03))
486.996626    	((-2.999329e-06 -1.075092e-05 -1.854339e-05) (8.507613e-07 3.529524e-07 -6.884191e-07)) ((-6.397347e-09 -2.332242e-09 2.565872e-07) (1.283767e-07 -6.889986e-07 2.129012e-03))
507.553867    	((-1.120710e-07 -6.694000e-06 -1.810002e-05) (5.425029e-07 -8.760987e-08 -6.830431e-07)) ((-6.442072e-09 -7.288357e-10 2.541113e-07) (3.494637e-07 -7.464790e-07 2.132040e-03))
527.982918    	((4.750784e-06 -5.453401e-06 -1.358432e-05) (4.737176e-07 -3.229574e-07 -6.316598e-07)) ((-5.189006e-09 -8.672800e-10 2.535581e-07) (5.751388e-07 -7.083681e-07 2.131975e-03))
548.301836    	((3.055980e-06 -1.716355e-06 -2.034683e-05) (8.009705e-07 -2.318041e-07 -5.202169e-07)) ((-4.221804e-09 -1.781521e-09 2.541867e-07) (7.993846e-07 -5.826504e-07 2.130113e-03))
568.513892    	((2.129398e-06 -9.872522e-07 -2.291527e-05) (6.397614e-07 3.381914e-07 -5.266278e-07)) ((-4.860669e-09 -2.954183e-09 2.532423e-07) (9.925158e-07 -3.644229e-07 2.127461e-03))
588.623451    	((2.511964e-07 -1.340697e-07 -2.094995e-05) (3.384225e-08 5.943456e-07 -5.301285e-07)) ((-5.068400e-09 -3.443672e-09 2.507696e-07) (1.135980e-06 -7.135149e-08 2.124478e-03))
608.648946    	((-3.283513e-06 -8.385367e-06 -1.983335e-05) (-1.127836e-07 -1.222775e-07 -5.254284e-07)) ((-4.807148e-09 -4.470266e-09 2.483511e-07) (1.172237e-06 2.676912e-07 2.121228e-03))
