# Forces      
# CofR        : (0.000000e+00 0.000000e+00 0.000000e+00)
# Time        forces(pressure viscous)	moments(pressure viscous)
0             	((0.000000e+00 0.000000e+00 0.000000e+00) (0.000000e+00 0.000000e+00 0.000000e+00)) ((0.000000e+00 0.000000e+00 0.000000e+00) (0.000000e+00 0.000000e+00 0.000000e+00))
0.012         	((1.641585e-05 1.923240e-04 4.013735e-04) (6.109012e-08 9.085091e-07 1.270498e-07)) ((-7.597634e-03 -7.463682e-07 2.652354e-05) (-1.258431e+00 5.674956e-07 -3.574692e-06))
0.0264        	((-3.767574e-04 -2.205682e-03 7.474606e-04) (3.489983e-07 -3.569341e-07 2.009133e-07)) ((-4.869386e-03 -4.455634e-06 1.881568e-05) (-1.983525e+00 -1.419081e-06 -2.089362e-06))
0.04368       	((4.291545e-04 6.623694e-04 1.107620e-03) (1.872196e-06 3.084975e-07 -7.559453e-07)) ((-4.469770e-03 -6.881583e-07 1.563901e-05) (-1.962503e+00 -6.140254e-06 -6.271261e-07))
0.064416      	((-8.847654e-04 -2.633816e-03 -8.767175e-04) (4.563857e-06 1.884865e-06 -1.578653e-06)) ((-4.087745e-03 -2.716501e-07 1.035244e-05) (-1.932745e+00 -1.267442e-05 -1.393775e-07))
0.0892992     	((2.655296e-04 3.129120e-04 5.738824e-04) (6.427385e-06 4.269404e-06 -2.199731e-06)) ((-3.980113e-03 -3.088783e-07 1.090461e-05) (-1.898848e+00 -1.873322e-05 -1.191063e-06))
0.119159      	((1.299560e-04 -1.361871e-03 -4.157251e-04) (7.258633e-06 6.435276e-06 -2.192612e-06)) ((-3.768231e-03 -1.103884e-07 1.197092e-05) (-1.861045e+00 -2.344999e-05 -3.891388e-06))
0.154991      	((2.207514e-04 -2.070482e-04 -4.389363e-04) (6.871642e-06 8.771810e-06 -1.681808e-06)) ((-3.627038e-03 -8.347624e-09 1.293474e-05) (-1.820202e+00 -2.619454e-05 -8.700776e-06))
0.197989      	((-3.827919e-05 -8.351813e-04 -7.313297e-04) (5.250415e-06 1.162305e-05 -1.507576e-06)) ((-3.426668e-03 -1.390980e-06 1.130444e-05) (-1.777772e+00 -2.872191e-05 -1.367829e-05))
0.249587      	((-1.660918e-06 -1.937104e-04 -1.247158e-04) (3.906685e-06 1.407117e-05 -2.784160e-06)) ((-3.253641e-03 -7.528266e-07 1.048365e-05) (-1.735582e+00 -3.185455e-05 -1.794740e-05))
0.311504      	((-1.784274e-04 -5.300840e-04 -3.450169e-04) (3.262856e-06 1.497104e-05 -5.132819e-06)) ((-3.071941e-03 1.010796e-07 9.852756e-06) (-1.695174e+00 -3.518032e-05 -2.244439e-05))
0.385805      	((9.060408e-05 4.327284e-05 2.547751e-04) (2.512183e-06 1.453076e-05 -7.440275e-06)) ((-2.920743e-03 -4.928220e-07 9.947093e-06) (-1.657045e+00 -3.958199e-05 -2.538716e-05))
0.474966      	((-4.977942e-05 -4.217100e-04 -5.704615e-05) (1.985495e-06 1.387609e-05 -9.105680e-06)) ((-2.779156e-03 -3.878805e-07 1.002838e-05) (-1.620029e+00 -4.484346e-05 -2.574623e-05))
0.581959      	((-2.136456e-04 -2.609783e-04 -8.692346e-05) (1.152516e-06 1.394306e-05 -1.116310e-05)) ((-2.630646e-03 6.894212e-07 8.824335e-06) (-1.580782e+00 -4.949368e-05 -2.353794e-05))
0.710351      	((-4.671368e-04 -3.084153e-04 -3.653630e-04) (1.185144e-07 1.549981e-05 -1.367841e-05)) ((-2.483673e-03 1.620164e-06 7.386607e-06) (-1.537478e+00 -5.298660e-05 -1.704177e-05))
0.864421      	((-5.202991e-04 -7.685200e-05 2.574209e-04) (7.772849e-07 1.997160e-05 -1.471004e-05)) ((-2.373796e-03 1.288263e-06 6.900067e-06) (-1.491376e+00 -5.926331e-05 -6.608266e-06))
1.049306      	((-6.114295e-04 -1.153780e-03 -4.697119e-04) (3.172240e-06 2.030609e-05 -1.788357e-05)) ((-2.309177e-03 -1.807077e-07 6.946634e-06) (-1.444406e+00 -6.831414e-05 2.338464e-06))
1.271167      	((-2.943411e-04 -1.472660e-03 -1.120831e-03) (4.234495e-06 1.505076e-05 -2.251183e-05)) ((-2.265703e-03 -6.875561e-07 6.438042e-06) (-1.398082e+00 -6.806391e-05 1.108219e-05))
1.531172      	((-5.416390e-04 -1.363265e-03 -4.983456e-05) (4.501459e-06 1.046930e-05 -3.371014e-05)) ((-2.206415e-03 -7.753535e-07 7.363586e-06) (-1.354456e+00 -6.185719e-05 2.691098e-05))
1.829429      	((-7.003014e-04 -5.328432e-04 9.289652e-04) (1.411902e-06 -4.489613e-07 -4.264429e-05)) ((-2.127561e-03 -1.769433e-06 6.220718e-06) (-1.314285e+00 -5.743447e-05 4.562669e-05))
2.165972      	((-1.519238e-03 2.463455e-03 2.423425e-03) (-5.114324e-06 -1.958534e-06 -3.919989e-05)) ((-2.034498e-03 -8.005113e-07 4.420960e-06) (-1.276826e+00 -4.546377e-05 6.538194e-05))
2.540874      	((-1.451107e-03 3.658359e-03 4.580593e-03) (-6.382693e-06 1.453195e-05 -4.122874e-05)) ((-1.949962e-03 -4.207349e-07 4.770290e-06) (-1.241396e+00 -1.059823e-05 7.876700e-05))
2.925895      	((-1.937543e-03 1.806075e-03 6.345289e-03) (-2.503987e-06 1.848145e-05 -5.840892e-05)) ((-1.901853e-03 2.281093e-06 4.884816e-06) (-1.209845e+00 2.734592e-05 6.794854e-05))
3.312718      	((-2.070018e-03 2.304859e-03 7.083465e-03) (-6.806799e-06 1.776501e-05 -7.850140e-05)) ((-1.855798e-03 3.351054e-06 4.945033e-06) (-1.182047e+00 4.846594e-05 5.362512e-05))
3.701828      	((-6.431989e-04 3.190196e-03 7.030102e-03) (-5.720431e-06 2.864718e-05 -1.036753e-04)) ((-1.802747e-03 4.539145e-06 3.562782e-06) (-1.157793e+00 6.211122e-05 4.182661e-05))
4.093609      	((-6.132848e-04 5.190695e-03 8.519069e-03) (-3.236635e-06 1.680470e-05 -1.000633e-04)) ((-1.751202e-03 5.933517e-06 2.259828e-06) (-1.136851e+00 7.504153e-05 2.334240e-05))
4.488607      	((-5.340488e-04 9.399119e-03 1.178892e-02) (-1.019229e-05 7.128415e-06 -5.487378e-05)) ((-1.708030e-03 5.551408e-06 2.275407e-06) (-1.118999e+00 7.617304e-05 6.826761e-06))
4.886012      	((-1.225801e-03 8.543771e-03 1.213564e-02) (-3.271243e-05 2.634661e-05 -1.272340e-05)) ((-1.661947e-03 5.401097e-06 2.539290e-06) (-1.104051e+00 7.073056e-05 9.243348e-07))
5.285433      	((-1.616249e-03 6.820851e-03 1.160361e-02) (-4.683723e-05 2.362465e-05 -5.621133e-06)) ((-1.610741e-03 4.600860e-06 1.991262e-06) (-1.091709e+00 6.372119e-05 4.639926e-08))
5.687242      	((-1.390904e-03 5.785172e-03 1.352117e-02) (-4.406856e-05 1.162884e-05 2.312410e-05)) ((-1.562145e-03 5.288538e-06 1.587065e-06) (-1.081637e+00 4.566994e-05 -9.198586e-06))
6.091596      	((-1.840966e-03 7.640769e-03 1.328008e-02) (-5.075753e-05 -1.023023e-05 6.062406e-05)) ((-1.527688e-03 5.413377e-06 2.622869e-06) (-1.073448e+00 2.859673e-05 -2.362273e-05))
6.498043      	((-1.066326e-03 9.082332e-03 1.474276e-02) (-4.682510e-05 -3.751380e-06 1.143970e-04)) ((-1.506294e-03 3.599428e-06 4.810761e-06) (-1.066906e+00 1.543494e-05 -3.646089e-05))
6.90472       	((-8.687487e-04 1.024495e-02 1.367461e-02) (-4.676892e-05 7.966709e-06 1.280629e-04)) ((-1.484800e-03 2.575635e-06 4.942020e-06) (-1.061963e+00 1.993767e-06 -3.361009e-05))
7.311676      	((-7.638397e-04 8.930337e-03 1.404936e-02) (-4.575095e-05 -5.729879e-05 1.879359e-04)) ((-1.468167e-03 2.501080e-06 3.620410e-06) (-1.058418e+00 -6.358028e-06 -1.530044e-05))
7.719044      	((-3.996283e-04 5.975457e-03 1.234097e-02) (-4.928339e-05 -1.664695e-04 2.652528e-04)) ((-1.453638e-03 3.010698e-06 3.318946e-06) (-1.056164e+00 -2.525927e-06 1.864443e-06))
8.126912      	((-4.087965e-04 1.085687e-02 1.398776e-02) (-5.832118e-05 -1.181658e-04 3.338356e-04)) ((-1.440217e-03 2.476469e-06 2.943935e-06) (-1.055039e+00 3.930563e-06 9.307498e-06))
8.535303      	((-9.773364e-05 1.591824e-02 1.434014e-02) (-5.111065e-05 -3.946458e-05 3.445539e-04)) ((-1.426575e-03 2.705371e-06 2.515841e-06) (-1.054922e+00 1.923052e-05 1.222857e-05))
8.944242      	((1.794583e-04 1.751346e-02 1.633451e-02) (-4.386279e-05 2.305493e-05 3.637079e-04)) ((-1.417373e-03 3.471726e-06 1.874217e-06) (-1.055957e+00 4.049937e-05 5.218553e-06))
9.35375       	((1.069929e-04 1.929508e-02 1.325285e-02) (-4.571768e-05 4.154724e-05 2.721334e-04)) ((-1.409480e-03 2.544443e-06 -1.536859e-07) (-1.058205e+00 4.869355e-05 -1.316853e-05))
9.763859      	((-9.151438e-04 1.979403e-02 7.801128e-03) (-6.738503e-05 1.171825e-04 1.689378e-04)) ((-1.405538e-03 1.113631e-06 -2.173430e-06) (-1.061540e+00 5.043585e-05 -3.025173e-05))
10.174635     	((-1.802549e-03 2.343562e-02 8.610855e-03) (-8.092349e-05 3.272335e-05 7.792820e-05)) ((-1.407255e-03 1.046971e-06 -3.412212e-06) (-1.065856e+00 4.522853e-05 -4.511481e-05))
10.586129     	((-2.752720e-03 2.080718e-02 4.456091e-03) (-6.210816e-05 -3.252605e-05 -7.234103e-05)) ((-1.409695e-03 6.166175e-07 -1.108777e-06) (-1.071172e+00 3.358450e-05 -6.071343e-05))
10.99821      	((-3.636129e-03 1.976636e-02 2.827716e-03) (-5.123007e-05 -2.129727e-04 -1.250981e-04)) ((-1.414781e-03 -5.914295e-07 -1.079517e-06) (-1.077383e+00 2.061506e-05 -7.203652e-05))
11.410791     	((-5.935605e-03 1.647777e-02 9.345935e-03) (-4.976244e-05 -4.151791e-04 -1.325933e-04)) ((-1.425274e-03 -1.405188e-06 -2.521678e-06) (-1.084289e+00 -3.358800e-08 -7.301683e-05))
11.823865     	((-7.532385e-03 2.133121e-02 6.443633e-03) (-2.974553e-05 -3.994902e-04 -1.077479e-04)) ((-1.445389e-03 -1.035516e-06 -2.728652e-06) (-1.091633e+00 -2.380135e-05 -5.589248e-05))
