# Forces      
# CofR        : (0.000000e+00 0.000000e+00 0.000000e+00)
# Time        forces(pressure viscous)	moments(pressure viscous)
0             	((0.000000e+00 0.000000e+00 0.000000e+00) (0.000000e+00 0.000000e+00 0.000000e+00)) ((0.000000e+00 0.000000e+00 0.000000e+00) (0.000000e+00 0.000000e+00 0.000000e+00))
0.012         	((2.020022e-07 -1.342667e-06 -6.476219e-07) (5.451486e-11 2.982039e-10 -8.090342e-11)) ((1.470420e-05 -2.359569e-10 -5.187791e-08) (7.566634e-04 -3.206050e-11 5.280521e-10))
0.0264        	((6.399175e-07 4.320522e-06 -3.107563e-06) (9.898203e-11 4.147492e-10 -1.538097e-11)) ((6.467310e-06 -2.578803e-10 -3.841624e-08) (7.559388e-04 -2.363213e-11 -9.747202e-11))
0.04368       	((-9.430143e-07 -5.770564e-07 -1.966696e-06) (2.244005e-11 2.804760e-10 -4.337750e-11)) ((3.328566e-06 5.005621e-10 -2.844012e-08) (7.550830e-04 2.664271e-11 -8.637906e-10))
0.064416      	((1.822695e-06 3.263726e-06 -1.359123e-06) (9.609534e-11 3.091272e-10 -1.617615e-10)) ((1.499987e-06 -1.144187e-10 -1.270233e-08) (7.540574e-04 7.402939e-11 -9.541637e-10))
0.0892992     	((-1.642087e-07 -7.597416e-07 -4.979456e-07) (4.043032e-10 3.111452e-10 -5.951554e-11)) ((9.940833e-07 7.604948e-10 -2.700059e-09) (7.528293e-04 1.374405e-10 -7.887823e-10))
0.119159      	((1.100424e-06 7.549890e-07 1.359461e-07) (7.951000e-10 2.984811e-10 4.534368e-11)) ((6.757581e-07 1.515013e-10 -4.339853e-10) (7.513598e-04 1.864249e-10 -6.002241e-10))
0.154991      	((1.357658e-07 -6.797737e-07 1.116118e-06) (1.091246e-09 3.561605e-10 6.192828e-11)) ((5.507328e-07 5.101992e-10 -1.152905e-09) (7.496028e-04 1.716324e-10 -7.502221e-10))
0.197989      	((2.203567e-09 5.173068e-08 5.300548e-07) (1.151230e-09 4.661061e-10 4.484201e-11)) ((4.590961e-07 4.509912e-10 -1.426810e-09) (7.475037e-04 1.077784e-10 -1.242236e-09))
0.249587      	((1.572074e-07 -4.318197e-07 4.548419e-07) (1.044185e-09 5.537883e-10 -1.740225e-11)) ((3.919028e-07 6.611338e-10 -1.368915e-09) (7.449974e-04 9.247454e-12 -1.928418e-09))
0.311504      	((-4.842011e-08 -1.628924e-07 4.842634e-07) (8.640237e-10 6.208704e-10 -9.404602e-11)) ((3.383907e-07 5.822678e-10 -1.559017e-09) (7.420077e-04 -8.887900e-11 -2.645444e-09))
0.385805      	((-1.452444e-08 -2.217490e-07 2.801373e-07) (6.948947e-10 6.709671e-10 -1.228465e-10)) ((2.926883e-07 3.483884e-10 -1.668223e-09) (7.384454e-04 -1.288622e-10 -3.359365e-09))
0.474966      	((-1.362446e-07 -1.459194e-07 2.726667e-07) (5.190444e-10 6.519615e-10 -2.080223e-10)) ((2.525709e-07 1.600630e-10 -1.455608e-09) (7.342066e-04 -7.777883e-11 -4.144292e-09))
0.581959      	((-2.106905e-07 -3.611623e-07 -2.887589e-08) (3.704710e-10 5.683302e-10 -2.935630e-10)) ((2.185056e-07 -9.460523e-11 -1.324245e-09) (7.291717e-04 1.827090e-11 -4.908212e-09))
0.710351      	((-2.900559e-07 -3.517944e-07 1.419666e-08) (3.827794e-10 4.126093e-10 -2.733801e-10)) ((1.891224e-07 -1.430353e-10 -1.221459e-09) (7.232038e-04 1.120719e-10 -5.673130e-09))
0.864421      	((-2.357810e-07 -2.907045e-07 -4.940413e-08) (5.352458e-10 2.445658e-10 -2.702744e-10)) ((1.641861e-07 -1.737080e-10 -1.148401e-09) (7.161483e-04 1.631705e-10 -6.419814e-09))
1.049306      	((-2.415758e-07 -2.571288e-07 -1.622678e-07) (6.844183e-10 1.393560e-10 -3.118613e-10)) ((1.419309e-07 -2.498252e-10 -1.003921e-09) (7.078336e-04 1.417636e-10 -7.042532e-09))
1.271167      	((-1.358660e-07 -1.052832e-07 -1.549073e-07) (8.154005e-10 1.733267e-11 -3.653253e-10)) ((1.205186e-07 -1.130586e-10 -7.644892e-10) (6.980727e-04 9.472433e-11 -7.528745e-09))
1.5374        	((-1.189496e-07 -7.200339e-08 -4.049012e-08) (9.855234e-10 -1.915534e-10 -4.319206e-10)) ((9.993017e-08 -3.912892e-12 -4.949675e-10) (6.866679e-04 8.644547e-11 -7.870774e-09))
1.85688       	((2.438433e-09 -3.901317e-08 -7.970674e-08) (1.247760e-09 -4.431051e-10 -4.349061e-10)) ((8.350684e-08 -1.041155e-10 -2.844551e-10) (6.734201e-04 1.023202e-10 -8.080884e-09))
2.240256      	((-2.830822e-08 -6.051811e-08 -2.106030e-08) (1.517969e-09 -6.255518e-10 -3.473060e-10)) ((7.251194e-08 -1.009353e-10 -1.211202e-10) (6.581415e-04 1.454155e-10 -8.289328e-09))
2.700307      	((-5.727956e-09 -9.257862e-09 -4.507931e-08) (1.666434e-09 -6.280609e-10 -3.083018e-10)) ((6.535589e-08 -1.660403e-10 -5.976072e-11) (6.406740e-04 2.348792e-10 -8.550325e-09))
3.252369      	((-3.723499e-08 -3.985747e-08 -2.828136e-08) (1.727522e-09 -5.128609e-10 -3.237595e-10)) ((6.069628e-08 -9.179447e-11 -9.935402e-11) (6.209158e-04 4.290940e-10 -8.821247e-09))
3.914842      	((-1.246200e-08 1.070614e-08 -4.033295e-08) (1.847163e-09 -2.916148e-10 -3.393254e-10)) ((5.737890e-08 -7.423622e-11 -1.332583e-10) (5.988540e-04 7.517909e-10 -9.052820e-09))
4.709811      	((-1.831959e-08 -1.876199e-08 -1.778328e-08) (2.053559e-09 -8.080531e-11 -4.136859e-10)) ((5.470136e-08 -5.157762e-11 -1.628376e-10) (5.746013e-04 1.137568e-09 -9.142244e-09))
5.663773      	((2.240393e-08 2.964569e-08 -1.081439e-08) (2.278342e-09 9.100496e-11 -4.948756e-10)) ((5.221017e-08 -4.297219e-11 -1.547507e-10) (5.484249e-04 1.633170e-09 -9.045841e-09))
6.808528      	((-3.322140e-09 1.691443e-08 -6.852674e-09) (2.453854e-09 4.474168e-10 -5.157715e-10)) ((4.950869e-08 -3.311310e-11 -1.444659e-10) (5.207608e-04 2.151698e-09 -8.685669e-09))
8.182233      	((-4.883266e-11 2.494503e-08 -1.598145e-08) (2.623795e-09 5.249792e-10 -6.086773e-10)) ((4.662275e-08 -3.754829e-11 -1.401095e-10) (4.922125e-04 2.639894e-09 -8.224999e-09))
9.83068       	((-3.593992e-08 5.649118e-09 -8.207534e-09) (3.003626e-09 6.498887e-10 -9.979365e-10)) ((4.362639e-08 -2.147016e-11 -1.466954e-10) (4.634651e-04 3.105759e-09 -7.711977e-09))
11.808816     	((-3.184725e-08 2.409929e-08 -2.575980e-08) (3.594733e-09 1.140929e-09 -1.086824e-09)) ((4.053753e-08 -2.580378e-11 -1.380193e-10) (4.351706e-04 3.174039e-09 -7.034904e-09))
14.182579     	((-4.053502e-08 -1.587261e-08 -2.401958e-08) (4.190745e-09 1.248553e-09 -3.722018e-10)) ((3.732259e-08 4.254184e-12 -1.860784e-10) (4.078114e-04 2.953093e-09 -6.411830e-09))
17.031095     	((-4.664982e-08 1.274105e-08 -9.103702e-10) (4.559677e-09 1.171514e-09 8.503801e-10)) ((3.347553e-08 1.771571e-11 -1.718187e-10) (3.815332e-04 2.729097e-09 -5.577587e-09))
20.449314     	((-5.424297e-08 8.506235e-09 1.365129e-08) (4.865279e-09 4.441159e-10 1.346425e-09)) ((2.904023e-08 6.266758e-11 -1.793667e-10) (3.558247e-04 1.960399e-09 -4.219359e-09))
24.551176     	((-6.174547e-08 2.200167e-08 1.107062e-08) (3.559414e-09 -8.691919e-10 1.165649e-09)) ((2.476068e-08 7.267634e-11 -1.196820e-10) (3.301606e-04 1.116528e-09 -3.231075e-09))
29.473411     	((-6.661210e-08 7.792110e-10 1.119255e-08) (3.410914e-10 -4.626717e-10 1.105714e-09)) ((2.107585e-08 5.688893e-11 -1.070344e-10) (3.045852e-04 3.913353e-10 -2.713827e-09))
35.380094     	((-5.234540e-08 3.487316e-08 2.311744e-08) (-2.100761e-09 1.725899e-09 1.622371e-09)) ((1.819552e-08 2.790645e-11 -7.694796e-11) (2.794547e-04 -2.724590e-10 -2.535437e-09))
42.468112     	((-7.168126e-08 4.225327e-08 2.065025e-08) (-4.351494e-09 2.521230e-09 7.710740e-10)) ((1.576421e-08 3.806555e-11 -1.221264e-10) (2.551770e-04 -6.999354e-10 -2.563084e-09))
50.973735     	((-7.481203e-08 6.013305e-08 6.765941e-09) (-5.845525e-09 2.574985e-09 -2.764482e-09)) ((1.346647e-08 2.411487e-11 -9.659672e-11) (2.321050e-04 -1.008403e-10 -2.640694e-09))
61.180482     	((-7.241762e-08 6.010490e-08 -3.685882e-08) (-3.905478e-09 2.409672e-09 -5.954296e-09)) ((1.088501e-08 1.525269e-11 -6.084538e-11) (2.104765e-04 4.346027e-10 -2.478016e-09))
73.428578     	((-3.993312e-08 1.114330e-07 2.121160e-08) (-1.022279e-09 3.275386e-09 -4.522497e-09)) ((8.684988e-09 1.118329e-11 -3.221847e-11) (1.904649e-04 6.845118e-10 -2.677082e-09))
88.126294     	((-2.284200e-08 8.579983e-08 3.221400e-08) (-7.812127e-11 7.684413e-09 -3.043218e-09)) ((6.420936e-09 3.562432e-11 -1.129458e-11) (1.722526e-04 1.207980e-09 -2.622687e-09))
105.763553    	((-1.653245e-08 1.667829e-07 8.259063e-08) (-1.991111e-09 3.862175e-09 2.437245e-09)) ((4.435385e-09 3.227264e-11 -6.726307e-12) (1.559076e-04 1.226973e-09 -1.985238e-09))
126.928263    	((-4.738877e-09 1.857288e-07 1.034891e-07) (-1.639626e-09 4.938722e-09 9.272990e-09)) ((2.711294e-09 5.093604e-11 -2.221020e-11) (1.414456e-04 1.223494e-09 -1.305184e-09))
152.325916    	((-1.601661e-08 2.004592e-07 1.328076e-07) (-2.798605e-09 1.686219e-08 1.192484e-08)) ((9.760810e-10 1.544968e-11 -3.121554e-11) (1.288541e-04 6.826088e-10 -1.121081e-09))
182.803099    	((-3.256755e-08 1.786967e-07 1.053800e-07) (-4.416495e-09 2.126347e-08 1.719308e-08)) ((-2.868995e-10 7.578109e-11 -2.880440e-11) (1.180240e-04 -7.608450e-10 -2.104330e-09))
219.375719    	((4.157431e-09 1.434237e-07 1.481135e-07) (-3.400916e-09 3.657688e-08 1.648430e-08)) ((-1.061860e-09 1.441328e-10 -2.264258e-11) (1.087606e-04 -2.283625e-09 -3.155945e-09))
263.262863    	((2.512489e-09 5.169354e-08 1.141526e-07) (-5.343794e-09 5.049182e-08 -7.361234e-09)) ((-1.462192e-09 1.636043e-10 -1.059131e-11) (1.008242e-04 -4.413754e-09 -4.707369e-09))
315.927436    	((1.596106e-08 7.375682e-08 1.624043e-07) (-3.258894e-09 5.794261e-08 -5.459618e-09)) ((-1.715271e-09 1.452322e-10 -4.547121e-12) (9.393873e-05 -6.196388e-09 -6.480604e-09))
379.124923    	((2.860282e-08 6.548782e-08 2.033721e-07) (-2.282768e-09 8.261279e-08 7.410245e-09)) ((-1.916754e-09 1.271641e-10 -1.350579e-11) (8.788957e-05 -6.318805e-09 -8.311525e-09))
454.961908    	((1.697463e-08 9.526018e-08 2.171993e-07) (-8.141789e-09 1.106023e-07 2.740533e-08)) ((-2.174211e-09 9.905453e-11 -1.077193e-11) (8.254065e-05 -5.376608e-09 -1.067186e-08))
545.966289    	((-2.114934e-09 1.070264e-07 2.129934e-07) (-1.274606e-08 1.239418e-07 5.827222e-08)) ((-2.306840e-09 7.095981e-11 1.462499e-11) (7.780304e-05 -3.414023e-09 -1.134802e-08))
653.86055     	((-4.595339e-08 1.140147e-07 2.050327e-07) (-1.913596e-08 1.163218e-07 6.700803e-08)) ((-2.357891e-09 6.830489e-11 1.911387e-11) (7.363250e-05 -8.859860e-10 -1.100132e-08))
778.913037    	((-5.557544e-08 1.357452e-07 1.656228e-07) (-1.831538e-08 9.457544e-08 5.573664e-08)) ((-2.298941e-09 9.379461e-11 -1.047378e-11) (7.001375e-05 7.963032e-10 -9.476899e-09))
921.449529    	((-5.460316e-08 9.770753e-08 9.491465e-08) (-1.488905e-08 7.835260e-08 1.915216e-08)) ((-2.211953e-09 9.502297e-11 -9.261913e-12) (6.695200e-05 1.488765e-09 -8.305279e-09))
1081.848925   	((-3.788099e-08 8.266837e-08 1.299676e-07) (-1.165076e-08 7.506308e-08 -6.039905e-09)) ((-2.069822e-09 7.289678e-11 9.732736e-12) (6.446172e-05 3.493282e-09 -8.394243e-09))
1260.535689   	((-4.487803e-08 8.633069e-08 1.005768e-07) (-1.119310e-08 8.110033e-08 -1.256266e-08)) ((-1.889523e-09 6.039257e-11 9.209612e-12) (6.252253e-05 5.826670e-09 -7.574152e-09))
1448.19302    	((-3.272149e-08 4.591858e-08 1.213498e-07) (-7.859449e-09 7.490600e-08 -1.299111e-08)) ((-1.639347e-09 5.513609e-11 1.552643e-11) (6.114383e-05 7.459267e-09 -6.117603e-09))
1640.609506   	((-1.401889e-08 5.391986e-08 1.258245e-07) (-2.135622e-09 6.597146e-08 -8.601658e-09)) ((-1.415724e-09 2.985843e-11 2.036980e-11) (6.026358e-05 8.940794e-09 -4.836913e-09))
1836.588784   	((-4.140520e-09 6.006394e-08 1.162002e-07) (3.272481e-09 5.875565e-08 -9.087876e-09)) ((-1.224512e-09 1.114044e-11 2.314954e-11) (5.984357e-05 1.010582e-08 -3.532427e-09))
2032.663408   	((1.181599e-08 2.079164e-08 1.296777e-07) (7.066060e-09 6.064418e-08 3.954662e-09)) ((-1.090052e-09 -9.757957e-12 1.312691e-11) (5.985186e-05 9.719608e-09 -2.383149e-09))
2227.789971   	((6.482281e-09 5.661320e-08 1.447505e-07) (9.355631e-09 6.399769e-08 -5.991084e-10)) ((-9.979326e-10 -2.701683e-11 -5.853265e-12) (6.025519e-05 7.919332e-09 -1.509847e-09))
2421.052725   	((1.680294e-08 8.781328e-08 2.038245e-07) (9.410380e-09 4.482346e-08 -1.270902e-08)) ((-9.471007e-10 -4.708785e-11 -1.616678e-11) (6.102219e-05 6.168895e-09 -1.822181e-09))
2611.797933   	((6.113886e-09 1.005233e-07 2.479390e-07) (9.939224e-09 2.750061e-08 -9.348659e-09)) ((-9.636276e-10 -5.457891e-11 -2.439789e-11) (6.211283e-05 5.307318e-09 -3.300090e-09))
2799.712988   	((8.521220e-09 1.096526e-07 2.276699e-07) (9.454325e-09 9.461353e-09 3.601332e-09)) ((-9.710555e-10 -5.077397e-11 -2.946587e-11) (6.348874e-05 5.247309e-09 -5.282139e-09))
2984.735133   	((-1.649526e-09 1.249236e-07 1.541223e-07) (9.432684e-09 -7.190385e-10 1.179735e-08)) ((-9.722973e-10 -5.253688e-11 -3.160427e-11) (6.507204e-05 6.157484e-09 -6.893177e-09))
3166.951364   	((-1.144143e-08 1.163725e-07 9.875199e-08) (9.386690e-09 -3.544966e-09 1.629706e-08)) ((-1.052509e-09 -5.235647e-11 -3.412439e-11) (6.673006e-05 7.623156e-09 -7.204073e-09))
3346.619242   	((8.029311e-09 1.044275e-07 -2.908965e-08) (9.998190e-09 2.907224e-09 2.697458e-08)) ((-1.190091e-09 -4.475569e-11 -4.383164e-11) (6.830058e-05 9.263239e-09 -6.384219e-09))
3524.118528   	((1.044913e-08 1.130557e-07 -1.353639e-07) (1.336187e-08 -5.439730e-09 -1.177922e-09)) ((-1.193203e-09 -4.511125e-11 -3.491772e-11) (6.964004e-05 1.099194e-08 -5.116759e-09))
3699.823433   	((1.725705e-08 1.063611e-07 -1.520054e-07) (1.745340e-08 -7.380536e-09 -1.130182e-08)) ((-1.154972e-09 -3.813950e-11 -3.084801e-11) (7.064171e-05 1.172516e-08 -3.835429e-09))
3871.73695    	((1.539028e-08 1.289610e-07 -1.300624e-07) (1.620225e-08 3.334845e-09 -1.113183e-08)) ((-1.157269e-09 -2.466032e-11 -2.392775e-11) (7.125391e-05 1.076684e-08 -1.919980e-09))
4040.297127   	((-2.119369e-08 1.060618e-07 -1.235577e-07) (1.406782e-08 2.413916e-08 4.242973e-09)) ((-1.235726e-09 -1.408262e-11 -1.600846e-11) (7.151556e-05 8.964141e-09 -6.034863e-10))
4206.312883   	((-1.080286e-08 5.826928e-08 -7.751961e-08) (1.484874e-08 2.976985e-08 8.746647e-09)) ((-1.324195e-09 -7.799528e-12 -3.382942e-12) (7.150285e-05 6.455501e-09 -1.428319e-10))
4370.491512   	((2.807256e-08 1.286378e-08 -3.715398e-08) (1.244746e-08 3.848543e-08 1.128893e-08)) ((-1.401748e-09 -6.626795e-12 9.115075e-12) (7.129447e-05 3.712392e-09 -3.650420e-10))
4533.447418   	((5.701762e-08 1.344752e-08 2.861068e-08) (1.226253e-08 3.765952e-08 1.264240e-08)) ((-1.450778e-09 -5.135255e-13 1.963080e-11) (7.097350e-05 1.546943e-09 -1.047635e-09))
4695.697966   	((2.450889e-08 -4.669262e-08 7.949542e-09) (1.329111e-08 4.241689e-08 3.048918e-08)) ((-1.488977e-09 1.677332e-11 2.381406e-11) (7.059857e-05 -5.407048e-10 -1.957479e-09))
