# Forces      
# CofR        : (0.000000e+00 0.000000e+00 0.000000e+00)
# Time        forces(pressure viscous)	moments(pressure viscous)
0             	((0.000000e+00 0.000000e+00 0.000000e+00) (0.000000e+00 0.000000e+00 0.000000e+00)) ((0.000000e+00 0.000000e+00 0.000000e+00) (0.000000e+00 0.000000e+00 0.000000e+00))
0.012         	((4.067797e-04 -8.500775e-05 -8.795961e-03) (8.843867e-09 -2.292171e-07 -2.105683e-07)) ((1.614644e-07 7.583462e-03 -3.227379e-07) (-6.920833e-08 1.258428e+00 -1.808704e-08))
0.0264        	((-3.505132e-03 -1.302369e-04 9.371501e-03) (4.409985e-07 -6.873092e-07 -2.953068e-05)) ((3.762840e-07 4.876281e-03 -2.845757e-07) (-8.186115e-08 1.983546e+00 -9.502641e-10))
0.04368       	((8.187126e-04 1.196371e-03 -2.490813e-03) (-7.240921e-06 -3.782808e-07 -2.631719e-05)) ((3.541615e-07 4.474557e-03 -4.861479e-08) (1.231939e-07 1.962521e+00 3.050340e-08))
0.064416      	((-3.267405e-03 -1.547832e-03 2.821793e-03) (-1.054817e-05 4.424992e-07 -3.032953e-05)) ((1.529049e-07 4.087579e-03 -2.015539e-07) (3.584943e-07 1.932780e+00 -1.463243e-07))
0.0892992     	((8.427348e-04 4.789028e-04 -5.207648e-05) (-1.382495e-05 6.609785e-07 -3.586724e-05)) ((2.480404e-07 3.981511e-03 -1.738673e-07) (6.165326e-07 1.898903e+00 -2.136142e-07))
0.119159      	((-1.200657e-03 -9.084697e-04 2.515585e-03) (-1.824054e-05 2.338720e-07 -4.384336e-05)) ((3.400032e-07 3.768492e-03 -4.955279e-07) (8.157781e-07 1.861120e+00 -1.159230e-07))
0.154991      	((3.215271e-04 2.126486e-05 8.049977e-04) (-2.595185e-05 -2.448072e-07 -5.466855e-05)) ((3.287076e-07 3.627509e-03 -3.785388e-07) (8.975582e-07 1.820297e+00 -1.453564e-08))
0.197989      	((-9.653395e-04 -1.960552e-04 1.519414e-03) (-3.488047e-05 -8.045414e-07 -6.787157e-05)) ((3.982158e-07 3.426868e-03 -3.827300e-07) (8.300097e-07 1.777885e+00 8.595300e-08))
0.249587      	((-1.905202e-04 -4.306261e-05 1.941089e-03) (-4.243861e-05 -1.298254e-06 -8.070920e-05)) ((2.817078e-07 3.253656e-03 -1.745128e-07) (8.011245e-07 1.735711e+00 1.775109e-07))
0.311504      	((-7.800462e-04 -6.824108e-06 1.522770e-03) (-4.829003e-05 -1.632598e-06 -8.993024e-05)) ((2.160020e-07 3.071464e-03 -1.732518e-07) (7.836048e-07 1.695316e+00 2.539500e-07))
0.385805      	((-8.560078e-04 1.298993e-04 1.031817e-03) (-4.849710e-05 -1.602307e-06 -9.412430e-05)) ((1.155044e-07 2.921447e-03 -7.213415e-08) (8.238220e-07 1.657201e+00 2.437670e-07))
0.474966      	((-1.935055e-03 2.953252e-04 2.887697e-04) (-4.643688e-05 -1.521772e-06 -9.961991e-05)) ((3.341942e-08 2.779761e-03 -1.099694e-07) (8.234679e-07 1.620200e+00 1.647964e-07))
0.581959      	((-1.906627e-04 2.266618e-04 5.991158e-04) (-5.083430e-05 -2.291865e-06 -1.057714e-04)) ((1.877390e-08 2.631435e-03 -6.671125e-08) (5.039445e-07 1.580972e+00 4.411528e-07))
0.710351      	((-6.343439e-04 6.630095e-05 3.914114e-04) (-5.740396e-05 -3.894398e-06 -1.041941e-04)) ((-1.115685e-07 2.483795e-03 -3.012847e-08) (1.924485e-07 1.537676e+00 1.057257e-06))
0.864421      	((-7.537850e-04 -2.386692e-04 7.518708e-04) (-6.566284e-05 -5.732027e-06 -1.061547e-04)) ((-2.671551e-07 2.374635e-03 5.008248e-08) (4.475812e-07 1.491570e+00 1.390516e-06))
1.049306      	((-1.638309e-03 -2.665082e-04 2.851928e-04) (-8.187153e-05 -6.066468e-06 -1.116251e-04)) ((-3.208113e-07 2.311648e-03 5.659025e-08) (1.630973e-06 1.444579e+00 1.269561e-06))
1.271167      	((3.865888e-04 8.720057e-05 -1.464873e-04) (-1.050706e-04 -5.915563e-06 -8.629905e-05)) ((-2.526020e-07 2.266377e-03 -1.240880e-07) (2.716832e-06 1.398210e+00 4.876318e-07))
1.531208      	((1.615447e-04 4.591249e-05 1.506572e-03) (-1.346929e-04 -5.454539e-06 -5.927323e-05)) ((6.568104e-08 2.206051e-03 -3.687587e-07) (3.711914e-06 1.354530e+00 -1.145258e-06))
1.82954       	((1.395444e-03 -5.007632e-04 1.296680e-03) (-1.729706e-04 -9.137663e-06 -5.324886e-05)) ((1.553632e-07 2.126103e-03 -3.115739e-07) (4.678178e-06 1.314313e+00 -2.937321e-06))
2.166229      	((3.281758e-03 -8.050838e-04 2.684300e-03) (-1.891520e-04 -1.183038e-05 -3.449752e-05)) ((1.719525e-07 2.031254e-03 -6.244005e-07) (4.172228e-06 1.276836e+00 -4.032857e-06))
2.541352      	((2.545303e-03 -9.319208e-04 4.534282e-03) (-1.806938e-04 -1.651500e-05 2.416038e-05)) ((-3.471355e-07 1.947449e-03 -4.652625e-07) (1.894351e-06 1.241409e+00 -2.870242e-06))
2.927059      	((2.949270e-03 -7.249084e-04 8.757656e-03) (-1.170067e-04 -1.826308e-05 1.016129e-04)) ((-1.096382e-06 1.897059e-03 3.579146e-07) (8.032719e-08 1.209816e+00 -2.380964e-06))
3.314265      	((2.234465e-03 -8.038438e-04 8.680078e-03) (-1.283533e-05 -2.494351e-05 1.460219e-04)) ((-1.113093e-06 1.849382e-03 6.363306e-07) (-1.223605e-06 1.182018e+00 -2.445879e-06))
3.703583      	((6.108176e-03 8.633746e-04 9.060141e-03) (1.014529e-04 -3.329879e-05 1.436839e-04)) ((-1.137274e-06 1.795187e-03 9.854719e-07) (-8.614285e-07 1.157780e+00 -2.566197e-06))
4.095769      	((8.092805e-03 1.210312e-03 1.101150e-02) (1.658381e-04 -2.065434e-05 1.180305e-04)) ((-1.099379e-06 1.744087e-03 1.456365e-06) (-3.342852e-06 1.136847e+00 -4.062600e-06))
4.491465      	((1.203125e-02 1.478351e-03 1.075211e-02) (1.789181e-04 -1.691882e-05 8.184772e-05)) ((-6.366939e-07 1.699986e-03 8.943308e-07) (-6.876582e-06 1.118991e+00 -5.488918e-06))
4.88901       	((1.187699e-02 1.567443e-03 1.030985e-02) (1.852245e-04 -2.144850e-05 3.128378e-05)) ((-1.377949e-06 1.656040e-03 9.328405e-07) (-9.066086e-06 1.104064e+00 -6.165104e-06))
5.288575      	((1.047777e-02 8.491305e-04 8.960609e-03) (1.898642e-04 -3.916120e-05 2.934941e-05)) ((-1.135606e-06 1.604491e-03 3.063799e-09) (-1.236046e-05 1.091774e+00 -4.554568e-06))
5.690478      	((1.142163e-02 4.222742e-04 1.077751e-02) (2.029896e-04 -3.971611e-05 6.583303e-07)) ((-1.480965e-06 1.557605e-03 3.926987e-07) (-1.549143e-05 1.081713e+00 -1.362360e-06))
6.094879      	((1.123496e-02 4.623245e-04 1.108386e-02) (1.655735e-04 -2.991728e-05 -3.062556e-05)) ((-1.108251e-06 1.524874e-03 1.143355e-07) (-1.677553e-05 1.073496e+00 7.984939e-08))
6.501364      	((1.065343e-02 1.035815e-03 1.310555e-02) (6.467516e-05 -3.345821e-05 -2.480338e-05)) ((-8.281937e-07 1.500336e-03 -3.014361e-06) (-1.733167e-05 1.066992e+00 2.207486e-07))
6.908097      	((8.795203e-03 1.036498e-03 1.338602e-02) (7.538475e-06 -3.972031e-05 1.163468e-05)) ((-8.936206e-07 1.481134e-03 -4.414473e-06) (-2.169340e-05 1.062071e+00 6.590223e-07))
7.315128      	((8.776520e-03 8.446994e-04 1.336472e-02) (-1.064782e-04 -4.741063e-05 1.269103e-04)) ((-3.991618e-07 1.467540e-03 -2.543439e-06) (-2.870341e-05 1.058518e+00 1.967653e-06))
7.722577      	((6.375488e-03 9.889590e-04 1.297457e-02) (-1.693185e-04 -3.888318e-05 2.484711e-04)) ((5.568003e-08 1.454877e-03 -1.743976e-06) (-3.123828e-05 1.056269e+00 6.784062e-06))
8.130524      	((1.044916e-02 1.419273e-03 1.424937e-02) (-1.145460e-04 -1.907833e-05 2.946247e-04)) ((2.095308e-07 1.441224e-03 -1.769476e-06) (-2.861571e-05 1.055127e+00 1.319773e-05))
8.538955      	((1.340811e-02 1.769485e-03 1.409849e-02) (-7.087115e-05 -1.822698e-05 3.109503e-04)) ((7.086429e-07 1.428107e-03 -2.496227e-06) (-2.789156e-05 1.055028e+00 1.799046e-05))
8.947869      	((1.513701e-02 1.871968e-03 1.636267e-02) (-1.963673e-05 -2.362543e-05 3.806273e-04)) ((8.009417e-07 1.418049e-03 -1.008335e-06) (-2.683369e-05 1.056097e+00 2.182658e-05))
9.35734       	((1.635564e-02 2.145295e-03 1.536382e-02) (3.963153e-06 -1.202869e-05 3.499881e-04)) ((3.476498e-07 1.409753e-03 -1.478245e-07) (-1.893683e-05 1.058319e+00 2.124993e-05))
9.767417      	((1.163159e-02 1.004418e-03 1.264900e-02) (-6.325998e-05 -2.348151e-05 3.147135e-04)) ((4.775821e-07 1.404513e-03 1.280896e-06) (-1.327404e-05 1.061613e+00 1.947981e-05))
10.178165     	((1.311939e-02 -4.511111e-04 1.249347e-02) (-6.555287e-05 -4.143842e-05 2.528497e-04)) ((-5.270208e-07 1.406881e-03 1.988359e-06) (-6.723321e-06 1.065951e+00 2.269258e-05))
10.589627     	((1.626814e-02 -1.179695e-03 6.620911e-03) (-3.604671e-05 -1.298332e-05 1.074166e-04)) ((-8.572691e-07 1.411406e-03 8.998567e-08) (7.724446e-07 1.071287e+00 2.505503e-05))
11.00175      	((1.748707e-02 -1.999677e-03 4.748774e-03) (-1.184648e-04 1.143652e-05 3.057962e-05)) ((-1.362262e-06 1.415456e-03 -7.505147e-07) (1.022815e-06 1.077438e+00 2.388708e-05))
11.414388     	((1.858724e-02 -3.829601e-03 8.923263e-03) (-2.341410e-04 1.247369e-06 -9.151457e-05)) ((-1.852506e-06 1.427245e-03 4.878117e-07) (2.423073e-06 1.084292e+00 1.815458e-05))
11.82749      	((2.063875e-02 -6.683921e-03 5.555182e-03) (-3.049104e-04 1.329959e-05 -1.284681e-04)) ((-3.169408e-06 1.449102e-03 9.065602e-07) (6.103267e-06 1.091643e+00 6.158607e-06))
