# Forces      
# CofR        : (0.000000e+00 0.000000e+00 0.000000e+00)
# Time        forces(pressure viscous)	moments(pressure viscous)
0             	((0.000000e+00 0.000000e+00 0.000000e+00) (0.000000e+00 0.000000e+00 0.000000e+00)) ((0.000000e+00 0.000000e+00 0.000000e+00) (0.000000e+00 0.000000e+00 0.000000e+00))
0.012         	((1.746304e-04 -2.579083e-04 -3.169098e-04) (2.903330e-07 -2.762662e-07 -8.809642e-08)) ((5.747896e-03 -5.719128e-07 -2.007182e-05) (1.125211e+00 3.831299e-07 1.669487e-06))
0.0264        	((5.933315e-04 2.203064e-03 -9.179695e-04) (6.969552e-07 -5.228803e-07 -5.845234e-09)) ((3.491191e-03 -2.927779e-06 -1.407894e-05) (1.333326e+00 -1.753167e-06 1.283653e-06))
0.04368       	((-5.590983e-04 -1.615680e-04 9.211923e-07) (1.233739e-06 -1.441450e-06 2.635781e-08)) ((3.063050e-03 -5.938407e-07 -1.060931e-05) (1.320080e+00 -3.479601e-06 -4.444478e-07))
0.064416      	((3.253106e-04 1.028162e-03 -1.380242e-03) (2.254035e-06 -2.778585e-06 -8.140848e-08)) ((2.753649e-03 -3.422015e-07 -7.271686e-06) (1.303216e+00 -6.466189e-06 -1.297217e-06))
0.0892992     	((-2.446367e-04 -8.588406e-05 2.527979e-04) (3.402663e-06 -4.551573e-06 -4.028010e-08)) ((2.671382e-03 -3.886566e-07 -6.244309e-06) (1.283792e+00 -9.141053e-06 -1.630457e-06))
0.119159      	((3.727122e-04 1.727278e-04 -5.729609e-04) (4.408162e-06 -6.259332e-06 -2.398480e-07)) ((2.524782e-03 -2.480200e-07 -5.418421e-06) (1.261777e+00 -1.123815e-05 -9.855519e-07))
0.154991      	((-3.260854e-05 2.816789e-04 -4.241502e-05) (5.049762e-06 -7.451259e-06 -2.409037e-07)) ((2.433554e-03 4.691553e-07 -7.445802e-06) (1.237411e+00 -1.268332e-05 1.405995e-08))
0.197989      	((5.495431e-04 3.395628e-06 -3.412831e-04) (5.473214e-06 -8.781150e-06 8.930847e-08)) ((2.311039e-03 2.764748e-08 -7.412846e-06) (1.211244e+00 -1.318851e-05 2.395016e-06))
0.249587      	((2.346399e-04 2.113693e-04 -2.224993e-04) (5.695130e-06 -1.049844e-05 1.120513e-07)) ((2.195556e-03 -8.030719e-07 -7.096446e-06) (1.184159e+00 -1.400263e-05 5.705648e-06))
0.311504      	((1.801038e-04 2.647052e-04 -3.544566e-04) (6.033624e-06 -1.179990e-05 -3.366197e-07)) ((2.072295e-03 -4.313132e-07 -6.317084e-06) (1.157195e+00 -1.579844e-05 9.045329e-06))
0.385805      	((-1.004518e-04 3.062479e-04 -1.618038e-04) (6.330475e-06 -1.225531e-05 -1.352224e-06)) ((1.962802e-03 -2.752983e-08 -6.224961e-06) (1.131166e+00 -1.807839e-05 1.273314e-05))
0.474966      	((-6.955199e-05 1.745099e-04 -3.469216e-04) (6.198343e-06 -1.208844e-05 -3.148713e-06)) ((1.860669e-03 -3.546403e-07 -6.069109e-06) (1.106277e+00 -2.071147e-05 1.573242e-05))
0.581959      	((-1.121567e-04 2.599556e-04 -4.584918e-04) (5.924348e-06 -1.236211e-05 -5.229502e-06)) ((1.769131e-03 -1.728074e-07 -6.186118e-06) (1.081596e+00 -2.356414e-05 1.674882e-05))
0.710351      	((-1.777318e-04 -1.100978e-04 -2.879320e-04) (5.556280e-06 -1.404114e-05 -6.484898e-06)) ((1.669141e-03 4.498504e-07 -5.395305e-06) (1.055128e+00 -2.618317e-05 1.529450e-05))
0.864421      	((-3.545920e-04 2.112865e-04 6.630860e-05) (5.664858e-06 -1.616635e-05 -7.235675e-06)) ((1.576380e-03 1.134920e-06 -4.749646e-06) (1.025999e+00 -2.886697e-05 1.112712e-05))
1.049306      	((-2.731807e-04 2.271881e-04 -1.346268e-04) (5.661612e-06 -1.600226e-05 -9.836026e-06)) ((1.506839e-03 6.516297e-07 -4.872219e-06) (9.950482e-01 -3.381070e-05 5.444617e-06))
1.271167      	((-1.873813e-04 -1.078945e-04 -2.119504e-04) (4.360731e-06 -1.346549e-05 -1.353205e-05)) ((1.466182e-03 5.273222e-08 -4.793254e-06) (9.634655e-01 -3.904066e-05 1.502047e-06))
1.5374        	((-2.207136e-04 -2.025527e-04 -8.193202e-05) (2.039604e-06 -9.977367e-06 -1.737119e-05)) ((1.435875e-03 -2.202169e-07 -4.432530e-06) (9.322318e-01 -3.808038e-05 -2.444448e-06))
1.851666      	((-3.265099e-04 5.526870e-05 -2.442746e-04) (-1.716503e-06 -7.642208e-06 -2.152849e-05)) ((1.395367e-03 -2.310765e-07 -4.631238e-06) (9.025760e-01 -3.597207e-05 -1.108441e-05))
2.214095      	((-4.588369e-04 5.033111e-04 4.756322e-04) (-4.889767e-06 -6.338097e-06 -2.884595e-05)) ((1.342824e-03 -1.078023e-06 -3.657079e-06) (8.751475e-01 -3.622051e-05 -2.233221e-05))
2.624729      	((-8.942410e-04 1.430482e-03 1.657677e-03) (-5.710770e-06 4.669405e-06 -2.796119e-05)) ((1.281565e-03 -4.946321e-07 -2.503401e-06) (8.495057e-01 -2.984241e-05 -3.608468e-05))
3.083675      	((-1.263126e-03 2.772349e-03 2.723546e-03) (-7.521929e-06 1.523265e-05 -1.410944e-05)) ((1.226459e-03 -6.617500e-07 -2.753329e-06) (8.252308e-01 -8.963383e-06 -4.750854e-05))
3.568611      	((-1.079443e-03 3.360459e-03 2.281425e-03) (-9.673244e-06 8.872313e-06 -2.027581e-06)) ((1.190399e-03 7.813379e-07 -3.467360e-06) (8.031796e-01 1.584033e-05 -4.473664e-05))
4.05597       	((-1.481418e-03 3.951047e-03 3.414612e-03) (-2.462901e-05 2.700934e-05 1.117406e-05)) ((1.157098e-03 1.592797e-06 -3.918239e-06) (7.839587e-01 3.187969e-05 -3.686652e-05))
4.546274      	((-9.813418e-04 3.834285e-03 3.071419e-03) (-4.071576e-05 3.284583e-05 2.633472e-05)) ((1.119942e-03 2.205943e-06 -3.080004e-06) (7.673234e-01 4.264334e-05 -2.794491e-05))
5.040253      	((-1.148961e-03 5.785929e-03 4.010747e-03) (-5.323477e-05 2.182562e-05 2.911032e-05)) ((1.084644e-03 3.201229e-06 -3.136404e-06) (7.530506e-01 4.686555e-05 -1.428428e-05))
5.538616      	((-1.695158e-03 7.239895e-03 5.866872e-03) (-5.579268e-05 2.122875e-05 5.439212e-06)) ((1.055211e-03 3.574759e-06 -2.711043e-06) (7.409866e-01 3.987628e-05 -1.792220e-06))
6.039692      	((-1.120726e-03 8.109646e-03 5.748149e-03) (-5.196880e-05 5.484454e-05 1.541248e-05)) ((1.023934e-03 3.640929e-06 -3.330515e-06) (7.310031e-01 3.024497e-05 3.812716e-06))
6.543496      	((-1.318556e-03 7.258126e-03 5.649906e-03) (-4.841148e-05 5.296035e-05 4.700624e-05)) ((9.887349e-04 2.954487e-06 -2.203467e-06) (7.228326e-01 1.853814e-05 2.989589e-07))
7.050462      	((-1.297218e-03 6.492013e-03 4.308195e-03) (-3.130882e-05 1.868480e-05 2.292780e-05)) ((9.579188e-04 3.128136e-06 -3.042377e-06) (7.162195e-01 2.615869e-06 -8.748776e-07))
7.560791      	((-7.616976e-04 6.850484e-03 2.810442e-03) (-2.667208e-05 4.374716e-05 -1.094919e-05)) ((9.385207e-04 2.845310e-06 -2.104298e-06) (7.108857e-01 -8.492441e-06 5.103878e-06))
8.072644      	((-8.076944e-04 7.648590e-03 2.612490e-03) (-9.962188e-06 3.822907e-05 -2.654216e-05)) ((9.265428e-04 1.006715e-06 -2.076373e-06) (7.067067e-01 -1.899930e-05 8.313715e-06))
8.584823      	((-8.897568e-04 7.774262e-03 1.920237e-03) (1.031877e-05 7.605486e-05 -7.058488e-05)) ((9.141067e-04 8.382412e-07 -2.028009e-06) (7.036065e-01 -2.940742e-05 -6.659471e-06))
9.097423      	((-1.340885e-03 1.012472e-02 1.713847e-03) (2.681134e-05 2.018976e-04 -1.281626e-04)) ((9.046541e-04 2.499389e-06 -2.528970e-06) (7.014545e-01 -2.933574e-05 -2.863201e-05))
9.610629      	((-6.357860e-04 8.964514e-03 2.158881e-03) (4.863594e-05 2.254817e-04 -9.074223e-05)) ((8.948556e-04 3.367452e-06 -2.442841e-06) (7.001644e-01 -1.870915e-05 -4.333693e-05))
10.124508     	((-1.551895e-04 8.911373e-03 5.287904e-03) (5.488300e-05 2.255492e-04 -3.201276e-05)) ((8.868486e-04 3.390749e-06 -2.218731e-06) (6.996199e-01 -3.532047e-06 -4.875692e-05))
10.639021     	((2.232386e-04 9.863850e-03 8.238392e-03) (4.720086e-05 2.720137e-04 4.202984e-05)) ((8.796498e-04 5.232011e-06 -1.469783e-06) (6.998030e-01 1.529477e-05 -4.417933e-05))
11.154191     	((3.598847e-04 8.830786e-03 1.018889e-02) (5.544536e-05 2.382376e-04 8.899496e-05)) ((8.747734e-04 6.031682e-06 -1.847885e-06) (7.008021e-01 3.117629e-05 -2.956078e-05))
11.67012      	((6.866642e-04 6.005816e-03 1.117278e-02) (6.379980e-05 1.403805e-04 1.116350e-04)) ((8.708071e-04 6.222545e-06 -2.233780e-06) (7.026088e-01 3.764647e-05 -1.367828e-05))
12.186881     	((2.503509e-04 5.636046e-03 1.342490e-02) (5.885648e-05 4.248170e-05 8.933499e-05)) ((8.697899e-04 4.830903e-06 -1.553416e-06) (7.051435e-01 3.903198e-05 7.378058e-07))
12.704549     	((-2.344738e-04 3.827792e-03 1.220919e-02) (6.042030e-05 1.024794e-05 -2.123373e-06)) ((8.710188e-04 3.178868e-06 -2.373182e-07) (7.083769e-01 3.661416e-05 1.422993e-05))
13.223124     	((-1.446867e-03 5.356087e-03 1.113340e-02) (5.065731e-05 -2.889175e-05 -4.193041e-05)) ((8.729790e-04 2.586822e-06 -1.058256e-06) (7.122940e-01 3.034193e-05 2.265160e-05))
13.742501     	((-2.723214e-03 6.347673e-03 1.368227e-02) (3.679647e-05 -7.664983e-05 -5.688794e-05)) ((8.766700e-04 1.968839e-06 -1.111206e-06) (7.167843e-01 1.941505e-05 2.606462e-05))
14.262575     	((-4.590917e-03 5.063200e-03 1.304431e-02) (2.955976e-05 -1.600248e-04 -1.546453e-04)) ((8.858551e-04 1.658651e-06 -1.104247e-06) (7.216788e-01 4.913728e-06 2.280660e-05))
14.783234     	((-4.887842e-03 3.696140e-03 1.477006e-02) (2.958432e-05 -1.862859e-04 -2.332301e-04)) ((8.982146e-04 1.406166e-06 -1.975788e-06) (7.267583e-01 -6.231798e-06 1.213702e-05))
15.304464     	((-4.452856e-03 6.022788e-03 1.816883e-02) (4.436134e-05 -1.794056e-04 -2.445837e-04)) ((9.062844e-04 -5.829898e-08 -2.086168e-06) (7.317309e-01 -1.070709e-05 -5.324177e-06))
