# Forces      
# CofR        : (0.000000e+00 0.000000e+00 0.000000e+00)
# Time        forces(pressure viscous)	moments(pressure viscous)
0             	((0.000000e+00 0.000000e+00 0.000000e+00) (0.000000e+00 0.000000e+00 0.000000e+00)) ((0.000000e+00 0.000000e+00 0.000000e+00) (0.000000e+00 0.000000e+00 0.000000e+00))
0.012         	((1.403634e-04 2.441886e-03 3.968970e-06) (7.022680e-09 7.304484e-07 5.949846e-09)) ((-5.314571e-06 2.265598e-08 1.536290e-03) (1.613931e-07 -5.910108e-08 1.949545e-01))
0.0264        	((4.115268e-04 -1.986486e-03 -1.234771e-05) (8.387273e-08 8.874364e-07 -8.821454e-08)) ((-2.657197e-06 1.272716e-07 7.669296e-04) (1.184363e-07 -8.779904e-08 1.943840e-01))
0.04368       	((3.677602e-04 1.407720e-03 1.881947e-04) (8.617537e-08 8.393980e-07 -1.482320e-07)) ((-3.606051e-06 3.976953e-07 5.268136e-04) (1.582440e-07 -2.147686e-07 1.934620e-01))
0.064416      	((4.244396e-04 -8.204176e-04 -1.216696e-04) (4.398395e-09 7.454983e-07 -1.228936e-07)) ((-2.741060e-06 1.186054e-07 3.877062e-04) (2.571486e-07 -4.367118e-07 1.923717e-01))
0.0892992     	((1.590961e-04 5.260214e-04 9.101898e-05) (-1.412488e-07 4.263155e-07 -1.314732e-07)) ((-2.814638e-06 1.130661e-07 3.608706e-04) (1.917612e-07 -5.920421e-07 1.910827e-01))
0.119159      	((9.297989e-05 1.314509e-04 -1.955531e-05) (-2.709478e-07 3.657167e-08 -1.638985e-07)) ((-2.753921e-06 -1.821193e-07 3.336384e-04) (9.435813e-09 -7.658933e-07 1.895634e-01))
0.154991      	((6.296042e-05 1.028928e-04 5.355494e-06) (-3.346420e-07 -2.932303e-07 -2.388740e-07)) ((-2.560197e-06 -1.604990e-07 3.198989e-04) (-2.822589e-07 -1.019774e-06 1.877816e-01))
0.197989      	((7.341550e-06 1.706580e-04 1.855387e-05) (-3.901278e-07 -4.857150e-07 -4.031835e-07)) ((-2.291114e-06 3.889784e-08 3.049395e-04) (-5.599286e-07 -1.182687e-06 1.857069e-01))
0.249587      	((3.477741e-05 8.170417e-05 2.109920e-05) (-4.649019e-07 -5.765817e-07 -6.483405e-07)) ((-2.064551e-06 3.376503e-07 2.924634e-04) (-7.639437e-07 -1.351073e-06 1.833153e-01))
0.311504      	((-1.623143e-04 2.942204e-05 -3.929458e-05) (-6.718103e-07 -5.715074e-07 -9.342232e-07)) ((-1.854987e-06 5.222201e-07 2.799389e-04) (-9.406982e-07 -1.904408e-06 1.805950e-01))
0.385805      	((-7.393206e-05 9.479266e-06 -7.019866e-06) (-9.438289e-07 -5.323154e-07 -1.187434e-06)) ((-1.616694e-06 6.270489e-07 2.674816e-04) (-9.320880e-07 -2.888744e-06 1.775550e-01))
0.474966      	((-1.352022e-04 -3.005701e-05 -3.399997e-05) (-1.169714e-06 -4.486199e-07 -1.403579e-06)) ((-1.419825e-06 5.343926e-07 2.548693e-04) (-7.242250e-07 -3.988692e-06 1.742316e-01))
0.581959      	((2.663327e-05 1.328477e-05 -1.494159e-05) (-1.276400e-06 -2.090449e-07 -1.520771e-06)) ((-1.340875e-06 3.049870e-07 2.419749e-04) (-4.073619e-07 -4.865137e-06 1.706944e-01))
0.710351      	((-2.109598e-05 -2.981186e-05 -3.661801e-05) (-1.201087e-06 6.382164e-08 -1.528173e-06)) ((-1.225384e-06 2.873986e-07 2.283821e-04) (-4.713910e-08 -5.386718e-06 1.670392e-01))
0.864421      	((1.023652e-04 4.699898e-05 -3.775229e-06) (-9.507141e-07 3.439389e-07 -1.481353e-06)) ((-1.161765e-06 3.027283e-07 2.150752e-04) (2.925944e-07 -5.629129e-06 1.633653e-01))
1.049306      	((3.424799e-05 -1.589131e-05 -3.020003e-05) (-7.068808e-07 6.036772e-07 -1.463688e-06)) ((-1.112174e-06 3.028863e-07 2.031278e-04) (4.567443e-07 -5.502322e-06 1.597411e-01))
1.271167      	((1.252966e-04 3.521852e-05 2.444041e-06) (-5.437531e-07 7.251389e-07 -1.545932e-06)) ((-1.005071e-06 2.367640e-07 1.921383e-04) (4.236702e-07 -5.041702e-06 1.561726e-01))
1.5374        	((9.927414e-05 1.613612e-06 -1.211254e-06) (-5.808784e-07 7.412462e-07 -1.673896e-06)) ((-9.216901e-07 1.610319e-07 1.809143e-04) (2.691289e-07 -4.510280e-06 1.524864e-01))
1.85688       	((1.445255e-04 5.749229e-06 -4.845418e-06) (-8.291928e-07 7.430824e-07 -1.790019e-06)) ((-8.313813e-07 6.619311e-08 1.695720e-04) (-6.545682e-08 -3.729886e-06 1.484629e-01))
2.240256      	((1.037368e-04 -2.024803e-05 -9.581207e-06) (-9.276080e-07 4.607457e-07 -1.965399e-06)) ((-7.806510e-07 -7.437735e-09 1.594922e-04) (-2.352223e-07 -2.336622e-06 1.440658e-01))
2.700307      	((3.269375e-05 -1.010238e-05 -2.507090e-06) (-1.235250e-06 -1.479072e-07 -2.172036e-06)) ((-6.177367e-07 2.113349e-08 1.522540e-04) (3.991203e-07 -8.531301e-07 1.394043e-01))
3.252369      	((-6.418143e-05 -1.882254e-05 1.368790e-05) (-1.362656e-06 -8.372331e-07 -2.300098e-06)) ((-5.631444e-07 -2.799216e-08 1.480269e-04) (1.475677e-06 5.971559e-07 1.346289e-01))
3.914842      	((-8.689726e-05 -3.073625e-05 2.026681e-05) (-1.223297e-06 -2.038306e-06 -2.148594e-06)) ((-6.054932e-07 2.547097e-08 1.439796e-04) (2.574439e-06 2.227419e-06 1.298854e-01))
4.709811      	((1.870372e-05 -2.151296e-05 2.658547e-05) (-9.335898e-07 -4.679927e-06 -1.625011e-06)) ((-5.492849e-07 1.107391e-08 1.384013e-04) (3.429773e-06 3.719543e-06 1.252977e-01))
5.65737       	((1.335902e-04 7.774328e-05 -1.510735e-05) (6.471033e-07 -8.654416e-06 -1.222240e-06)) ((-4.924905e-07 -4.548834e-08 1.309205e-04) (3.914243e-06 4.366509e-06 1.209236e-01))
6.757822      	((2.873927e-04 2.867343e-04 -4.238650e-05) (2.670464e-06 -1.050880e-05 -7.553821e-07)) ((-5.362649e-07 -6.979514e-08 1.232370e-04) (4.186193e-06 4.014904e-06 1.167712e-01))
8.011768      	((3.271874e-04 3.172973e-04 -4.211084e-05) (5.947011e-06 -9.810548e-06 -4.638227e-07)) ((-4.569832e-07 -4.526209e-08 1.165650e-04) (4.117269e-06 3.481150e-06 1.128225e-01))
9.419872      	((3.483646e-04 3.405267e-04 -8.527513e-05) (9.575012e-06 -7.372069e-06 -7.103900e-07)) ((-4.184883e-07 -3.755699e-08 1.096273e-04) (3.872962e-06 4.565995e-06 1.091297e-01))
10.970892     	((3.857540e-04 4.739253e-04 -9.823367e-05) (5.144737e-06 -2.245521e-06 -2.748972e-06)) ((-3.152872e-07 4.380105e-08 1.029867e-04) (2.896087e-06 6.234528e-06 1.058127e-01))
12.536002     	((4.040874e-04 4.857886e-04 -2.684012e-05) (1.626054e-06 -1.710256e-06 -3.969783e-06)) ((-3.540187e-07 -2.914581e-09 9.737068e-05) (1.323103e-06 5.243537e-06 1.031101e-01))
14.116461     	((5.681237e-04 7.904808e-04 1.750366e-05) (3.968103e-06 -2.848676e-06 -1.403209e-06)) ((-3.589794e-07 -8.678267e-08 9.207541e-05) (1.563563e-06 3.956068e-06 1.009019e-01))
15.707127     	((6.312141e-04 7.469879e-04 4.624688e-05) (6.292108e-06 -2.672053e-07 -1.524472e-06)) ((-3.459926e-07 1.376894e-07 8.801507e-05) (2.075889e-06 3.343048e-06 9.912810e-02))
17.309087     	((6.634223e-04 6.361851e-04 6.273535e-05) (5.352945e-06 -2.028715e-08 -3.231567e-06)) ((-2.569591e-07 1.653340e-07 8.444703e-05) (1.756926e-06 8.780115e-07 9.773346e-02))
18.924822     	((9.070877e-04 6.830335e-04 6.077052e-05) (7.953273e-06 4.349331e-06 -2.548340e-06)) ((-2.093532e-07 1.047905e-07 8.142897e-05) (1.330461e-06 -1.248722e-06 9.665095e-02))
20.543999     	((6.454824e-04 5.476267e-04 1.142834e-04) (1.671293e-06 5.831547e-06 1.573261e-07)) ((-1.613832e-07 -9.930538e-09 7.964389e-05) (-3.179092e-07 -1.881252e-06 9.581244e-02))
22.165123     	((3.837770e-04 3.256707e-04 1.444264e-04) (2.476693e-06 -2.990711e-06 1.801793e-06)) ((-1.974546e-07 4.147886e-09 7.874581e-05) (-3.196844e-07 -2.393874e-06 9.517645e-02))
23.787937     	((3.100141e-04 3.061922e-04 6.673751e-05) (-5.734977e-06 -1.150100e-05 7.914769e-07)) ((-3.829322e-07 3.184592e-08 7.816472e-05) (1.071373e-06 -2.395892e-06 9.472893e-02))
25.412874     	((2.223913e-04 4.180597e-04 1.329149e-04) (-1.131592e-05 -1.668053e-05 2.770622e-06)) ((-4.027836e-07 5.976536e-08 7.776423e-05) (9.770264e-07 -1.791268e-06 9.443810e-02))
27.040477     	((4.747660e-04 7.825653e-04 9.104642e-05) (-3.065471e-06 -2.168861e-05 2.798396e-08)) ((-3.941333e-07 1.965546e-08 7.708563e-05) (7.386751e-07 -1.105840e-06 9.427944e-02))
28.671158     	((9.191072e-04 9.728356e-04 1.000788e-04) (1.185399e-05 -1.311310e-05 -1.689404e-06)) ((-3.707709e-07 1.986428e-07 7.600079e-05) (5.240714e-07 -1.310664e-06 9.425313e-02))
30.305093     	((1.065172e-03 1.100467e-03 2.086592e-04) (2.025046e-05 -4.551666e-06 -1.317314e-07)) ((-4.500143e-07 3.784030e-07 7.520716e-05) (7.468560e-08 -2.313229e-06 9.436758e-02))
31.942477     	((9.648933e-04 1.247937e-03 2.126391e-04) (1.109433e-05 -1.257573e-05 4.496843e-07)) ((-4.846425e-07 1.792479e-07 7.455562e-05) (-2.889016e-07 -3.447491e-06 9.462448e-02))
33.583565     	((6.316665e-04 1.044531e-03 1.622514e-04) (6.443098e-06 -1.457848e-05 2.182588e-07)) ((-3.610015e-07 1.003428e-07 7.425958e-05) (-1.990718e-07 -4.680211e-06 9.501529e-02))
35.228586     	((6.382635e-04 1.516702e-03 2.292360e-05) (8.753598e-06 -6.558385e-06 -1.159572e-06)) ((-4.450690e-07 1.548869e-07 7.442358e-05) (1.022946e-06 -5.674667e-06 9.552710e-02))
36.87761      	((6.162211e-04 1.437415e-03 -1.282455e-04) (-2.842075e-06 -4.975296e-06 -2.423435e-06)) ((-5.912763e-07 1.428732e-08 7.484040e-05) (3.225790e-06 -5.644299e-06 9.615599e-02))
38.530114     	((7.016721e-04 1.842068e-03 -3.452572e-04) (-2.210743e-05 -8.081977e-06 -7.133332e-07)) ((-5.384380e-07 -4.122530e-08 7.530175e-05) (5.255393e-06 -4.842014e-06 9.688719e-02))
40.185336     	((6.856166e-04 1.966091e-03 -4.963811e-04) (-3.774254e-05 -1.990229e-05 1.534787e-06)) ((-3.822348e-07 -5.526516e-08 7.602149e-05) (6.472429e-06 -3.481030e-06 9.768038e-02))
41.842785     	((4.840526e-04 1.828526e-03 -5.520242e-04) (-3.935685e-05 -2.714176e-05 2.456013e-06)) ((-4.333173e-07 -1.649631e-07 7.703653e-05) (7.196699e-06 -1.968836e-06 9.848805e-02))
43.501885     	((9.079491e-04 1.454347e-03 -5.876088e-04) (-4.182591e-05 -3.981242e-05 3.719597e-06)) ((-4.294846e-07 -2.756210e-07 7.803764e-05) (7.082920e-06 -4.250849e-07 9.925898e-02))
45.161925     	((5.273559e-04 1.175068e-03 -4.844017e-04) (-5.025972e-05 -3.529847e-05 3.238609e-06)) ((-4.517598e-07 -6.185669e-08 7.913243e-05) (5.991787e-06 1.064514e-06 9.995668e-02))
46.820509     	((2.042224e-04 9.921205e-04 -5.306991e-04) (-5.390557e-05 -3.334182e-05 2.090485e-06)) ((-5.097097e-07 -1.832617e-08 8.010675e-05) (3.593586e-06 1.343655e-06 1.005553e-01))
48.475778     	((1.438243e-04 1.806727e-04 -6.340916e-04) (-4.830715e-05 -4.307634e-05 -3.719179e-08)) ((-5.214544e-07 -2.272196e-08 8.093559e-05) (1.028381e-06 9.539014e-07 1.010493e-01))
