# Forces      
# CofR        : (0.000000e+00 0.000000e+00 0.000000e+00)
# Time        forces(pressure viscous)	moments(pressure viscous)
0             	((0.000000e+00 0.000000e+00 0.000000e+00) (0.000000e+00 0.000000e+00 0.000000e+00)) ((0.000000e+00 0.000000e+00 0.000000e+00) (0.000000e+00 0.000000e+00 0.000000e+00))
0.012         	((2.762721e-05 6.169535e-04 -6.945818e-07) (3.937051e-09 8.470840e-08 1.214797e-09)) ((-1.273732e-06 -7.422436e-09 3.658688e-04) (1.843416e-08 -2.710466e-09 2.470772e-02))
0.0264        	((1.109444e-04 -5.030213e-04 3.346323e-07) (8.547660e-09 1.163397e-07 -1.554665e-09)) ((-5.795265e-07 -1.337096e-08 1.663483e-04) (2.425210e-08 -4.751584e-09 2.467108e-02))
0.04368       	((5.150171e-05 3.629133e-04 7.697064e-06) (1.931934e-08 1.174233e-07 -3.780918e-09)) ((-6.673695e-07 5.677837e-08 9.461062e-05) (3.954669e-08 -9.713195e-09 2.462258e-02))
0.064416      	((9.770555e-05 -1.517237e-04 -5.089033e-06) (4.685311e-08 1.097616e-07 -7.631519e-09)) ((-3.870607e-07 1.168257e-07 5.222420e-05) (5.650306e-08 -1.301743e-08 2.456475e-02))
0.0892992     	((1.462717e-05 1.014022e-04 -3.784658e-06) (6.581026e-08 1.011214e-07 -9.562826e-09)) ((-4.408459e-07 8.200887e-08 4.142464e-05) (7.280082e-08 -7.075845e-09 2.449574e-02))
0.119159      	((4.276739e-05 3.025980e-05 -2.060107e-05) (7.431405e-08 8.847429e-08 -6.067684e-09)) ((-4.032677e-07 3.837062e-08 3.402359e-05) (9.463636e-08 -1.406308e-09 2.441354e-02))
0.154991      	((1.897057e-05 1.346623e-06 -2.688258e-06) (8.327178e-08 6.655217e-08 -6.449486e-09)) ((-3.049048e-07 8.386730e-08 3.107201e-05) (1.161018e-07 8.811753e-10 2.431572e-02))
0.197989      	((1.395107e-05 1.000243e-05 -8.054151e-06) (8.103466e-08 3.606350e-08 -1.161179e-08)) ((-2.931392e-07 5.666448e-08 2.862593e-05) (1.394458e-07 4.398508e-09 2.419951e-02))
0.249587      	((-1.555294e-05 -7.800420e-06 -1.487269e-05) (6.785928e-08 -5.033740e-10 -1.673306e-08)) ((-2.745954e-07 -1.449940e-09 2.694419e-05) (1.578189e-07 1.481402e-08 2.406181e-02))
0.311504      	((-1.004825e-05 3.674573e-06 -5.312035e-06) (5.046320e-08 -3.373866e-08 -1.820168e-08)) ((-2.618988e-07 -1.400324e-08 2.558330e-05) (1.648807e-07 3.018237e-08 2.389915e-02))
0.385805      	((-1.556546e-05 3.019484e-07 -1.197097e-05) (3.748293e-08 -6.199317e-08 -1.844540e-08)) ((-2.463218e-07 -1.302844e-08 2.442086e-05) (1.560069e-07 4.421959e-08 2.370777e-02))
0.474966      	((-1.260024e-06 2.825457e-06 1.682500e-06) (3.275511e-08 -8.825065e-08 -2.413252e-08)) ((-2.322824e-07 -2.887844e-08 2.333169e-05) (1.203071e-07 5.230845e-08 2.348377e-02))
0.581959      	((-7.194946e-06 -1.139480e-06 4.530729e-07) (2.967144e-08 -1.139075e-07 -3.475525e-08)) ((-2.157187e-07 -3.020092e-08 2.225394e-05) (6.033737e-08 5.390349e-08 2.322340e-02))
0.710351      	((-1.180538e-06 1.464153e-06 1.364270e-06) (2.992913e-08 -1.296385e-07 -4.894533e-08)) ((-1.799208e-07 -2.015889e-08 2.119857e-05) (-6.895070e-09 5.189223e-08 2.292351e-02))
0.864421      	((-9.638883e-06 -2.495501e-06 1.323560e-06) (2.149416e-08 -1.364547e-07 -6.635906e-08)) ((-1.499198e-07 -3.073531e-09 2.021219e-05) (-6.781992e-08 3.937027e-08 2.258218e-02))
1.049306      	((-3.778090e-06 3.724816e-06 -4.135400e-07) (2.021737e-09 -1.414839e-07 -7.961144e-08)) ((-1.224296e-07 2.020103e-08 1.928264e-05) (-1.162245e-07 -3.736122e-09 2.219948e-02))
1.271167      	((-3.732839e-06 -2.693975e-06 2.221468e-06) (-1.769856e-08 -1.401655e-07 -8.921793e-08)) ((-1.071543e-07 3.117658e-08 1.835362e-05) (-1.528105e-07 -8.180150e-08 2.177847e-02))
1.5374        	((1.263458e-06 8.764784e-07 -7.682030e-07) (-3.775616e-08 -1.272960e-07 -9.755577e-08)) ((-9.754703e-08 2.822546e-08 1.743512e-05) (-1.630123e-07 -1.800626e-07 2.132569e-02))
1.85688       	((-3.326605e-06 -4.444430e-06 2.796060e-06) (-5.014361e-08 -1.083827e-07 -1.010315e-07)) ((-9.680959e-08 2.460257e-08 1.654301e-05) (-1.434956e-07 -2.687781e-07 2.085093e-02))
2.240256      	((6.603430e-06 -1.598401e-07 -9.049108e-07) (-4.906667e-08 -8.209166e-08 -9.582113e-08)) ((-9.700310e-08 1.279148e-08 1.564296e-05) (-1.265076e-07 -3.145756e-07 2.036553e-02))
2.700307      	((4.415328e-06 -2.173255e-06 5.666269e-08) (-4.617947e-08 -6.228351e-08 -8.449301e-08)) ((-9.566222e-08 1.263286e-08 1.475270e-05) (-1.204735e-07 -3.171263e-07 1.987912e-02))
3.252369      	((9.850452e-06 3.108793e-06 -1.790484e-06) (-3.575535e-08 -5.546924e-08 -7.277313e-08)) ((-8.394849e-08 9.362611e-09 1.386769e-05) (-1.368232e-07 -3.042896e-07 1.939600e-02))
3.914842      	((9.416958e-06 8.434724e-07 6.344701e-07) (-1.458238e-08 -4.302745e-08 -7.304874e-08)) ((-7.388882e-08 1.601871e-09 1.298582e-05) (-1.613505e-07 -2.575496e-07 1.890571e-02))
4.709811      	((1.419224e-05 -1.666803e-07 1.318246e-07) (2.884462e-08 7.859950e-09 -1.088162e-07)) ((-6.766681e-08 1.321624e-09 1.206424e-05) (-1.750469e-07 -1.720010e-07 1.838146e-02))
5.663773      	((4.865287e-06 -2.519123e-06 -1.555719e-07) (4.991649e-08 3.688915e-08 -1.633098e-07)) ((-6.236798e-08 1.753716e-09 1.120415e-05) (-1.577796e-07 -2.954378e-08 1.780814e-02))
6.808528      	((-3.704700e-06 -1.352115e-06 -6.952143e-07) (6.717700e-08 2.188168e-08 -2.054219e-07)) ((-5.248912e-08 3.328900e-09 1.052605e-05) (-1.161041e-07 1.128409e-07 1.719318e-02))
8.182233      	((-4.447572e-06 -3.796268e-06 9.585286e-07) (1.146210e-07 1.021481e-08 -2.085558e-07)) ((-3.972484e-08 -2.622733e-10 1.013915e-05) (-7.235655e-08 1.849343e-07 1.655320e-02))
9.83068       	((-2.942431e-06 -7.300129e-06 1.308552e-06) (1.476979e-07 -1.069467e-08 -1.934266e-07)) ((-3.592211e-08 4.020986e-10 9.796729e-06) (1.998458e-08 2.455653e-07 1.590655e-02))
11.808816     	((-1.612651e-06 -1.773034e-06 6.483741e-07) (1.363074e-07 -1.802914e-07 -1.719798e-07)) ((-3.577636e-08 6.921539e-09 9.312776e-06) (1.376241e-07 2.712307e-07 1.526985e-02))
14.182579     	((-3.213264e-06 7.411688e-07 -3.134163e-06) (1.963554e-07 -6.162875e-07 -1.836838e-07)) ((-2.549060e-08 3.134942e-09 8.692273e-06) (2.533796e-07 1.931150e-07 1.465255e-02))
17.031095     	((1.116667e-05 1.393723e-05 -6.489143e-06) (4.281356e-07 -9.758184e-07 -1.540571e-07)) ((-2.322770e-08 -5.684086e-09 7.949010e-06) (4.311999e-07 1.066093e-07 1.405189e-02))
20.449314     	((1.544889e-05 1.785820e-05 -5.673066e-06) (2.479264e-07 -7.747278e-07 -3.411827e-08)) ((-1.849944e-08 3.549008e-10 7.175409e-06) (5.940719e-07 4.960271e-08 1.346168e-02))
24.485336     	((2.699931e-05 2.179489e-05 -6.177131e-06) (4.810703e-07 -4.122252e-07 4.178646e-08)) ((-2.338679e-08 -2.775147e-09 6.397445e-06) (6.460654e-07 1.387139e-07 1.289475e-02))
29.14499      	((4.089723e-05 2.663792e-05 -2.318592e-06) (-5.646802e-08 -1.218976e-07 -1.627144e-07)) ((-2.296995e-08 -7.640586e-09 5.686126e-06) (6.094559e-07 3.377121e-07 1.237686e-02))
34.435447     	((3.317920e-05 2.741483e-05 1.518182e-06) (-8.494577e-07 -3.604939e-07 -8.302068e-08)) ((-1.634705e-08 -1.595523e-08 5.086885e-06) (4.308267e-07 4.322917e-07 1.192776e-02))
40.362542     	((5.286346e-05 4.384730e-05 3.060382e-06) (7.363673e-07 -7.543948e-07 -8.346695e-08)) ((-1.350713e-08 -1.937528e-08 4.538095e-06) (2.470475e-07 4.136244e-07 1.155317e-02))
46.803289     	((5.556678e-05 5.350939e-05 -6.178414e-08) (1.346507e-06 1.354990e-07 -9.938077e-08)) ((-6.958703e-09 -1.201992e-08 4.144475e-06) (1.374706e-07 3.300462e-07 1.125854e-02))
53.256557     	((6.553300e-05 6.980823e-05 3.490365e-06) (1.837515e-06 1.858873e-06 3.475924e-07)) ((1.431490e-09 -1.484674e-08 3.893040e-06) (-8.847452e-08 -3.736132e-08 1.104480e-02))
59.721746     	((5.373310e-05 5.510501e-05 1.427647e-05) (-3.710055e-07 2.066044e-06 5.738874e-07)) ((1.471947e-08 -2.036460e-08 3.723134e-06) (-1.041637e-07 -3.396773e-07 1.088410e-02))
66.200391     	((3.154207e-05 3.128117e-05 6.436083e-06) (-2.237116e-07 6.823265e-07 4.300545e-07)) ((5.196544e-09 -5.067232e-09 3.651072e-06) (9.595655e-08 -4.427642e-07 1.076354e-02))
72.695476     	((5.379783e-05 6.081480e-05 -6.311295e-06) (1.716973e-06 -1.369865e-08 -1.377679e-07)) ((-6.371318e-09 -8.483712e-09 3.643671e-06) (2.594605e-07 -3.965063e-07 1.067646e-02))
79.210094     	((7.958766e-05 6.992820e-05 -1.177710e-05) (2.842358e-06 7.751851e-07 -5.786563e-07)) ((-6.479365e-09 -1.411526e-08 3.623982e-06) (4.595144e-07 -1.938740e-07 1.061813e-02))
85.74734      	((1.070680e-04 9.849957e-05 -3.890280e-06) (3.891266e-06 1.626195e-06 -5.566124e-07)) ((-7.103662e-09 -9.613142e-09 3.548156e-06) (6.127457e-07 4.258570e-08 1.058519e-02))
92.311076     	((9.441730e-05 8.113024e-05 3.601458e-06) (3.716688e-06 8.857455e-07 -3.054673e-07)) ((-1.137426e-08 -1.142658e-08 3.449518e-06) (5.780162e-07 2.260182e-07 1.057599e-02))
98.904716     	((8.203092e-05 6.399427e-05 6.803476e-06) (3.920205e-06 2.826114e-08 -3.712361e-07)) ((-1.596880e-08 -1.653723e-08 3.386012e-06) (5.210442e-07 2.929838e-07 1.059171e-02))
105.53024     	((8.646370e-05 9.635512e-05 -5.339409e-06) (2.769596e-06 -7.710847e-07 -4.208596e-07)) ((-1.385006e-08 -5.525833e-10 3.342216e-06) (4.854338e-07 2.103589e-07 1.063237e-02))
112.187152    	((9.330759e-05 1.143141e-04 -1.202526e-05) (2.727700e-06 -7.249591e-07 -5.985100e-07)) ((-1.439140e-08 1.692991e-08 3.342885e-06) (4.114158e-07 -3.550028e-08 1.069796e-02))
118.877328    	((8.534324e-05 1.072553e-04 -2.407429e-05) (2.141541e-06 -7.911659e-07 -1.022606e-06)) ((-2.183743e-08 1.874267e-08 3.367828e-06) (4.258006e-07 -2.705520e-07 1.078799e-02))
125.596201    	((7.512546e-05 1.210197e-04 -2.838361e-05) (-1.277519e-06 -5.063718e-07 -1.411808e-06)) ((-3.344739e-08 2.437309e-08 3.413601e-06) (5.861239e-07 -3.543349e-07 1.089722e-02))
132.33253     	((5.759460e-05 1.447718e-04 -3.984862e-05) (-4.600095e-06 -5.091763e-07 -1.851283e-06)) ((-3.586621e-08 1.401117e-08 3.487358e-06) (6.342325e-07 -2.069609e-07 1.101739e-02))
139.07473     	((5.608073e-05 1.448545e-04 -3.684341e-05) (-6.923000e-06 -3.627841e-07 -2.305493e-06)) ((-2.117099e-08 -5.909078e-09 3.605504e-06) (4.300254e-07 -1.469814e-08 1.114038e-02))
145.805817    	((8.928260e-05 6.892620e-05 -4.453086e-05) (-7.061564e-06 -1.243562e-06 -2.819223e-06)) ((-3.171886e-08 -2.325873e-08 3.736912e-06) (1.437733e-08 -6.589874e-08 1.125491e-02))
152.507654    	((7.679425e-05 8.504124e-07 -4.703127e-05) (-5.800800e-06 -1.367577e-06 -2.798227e-06)) ((-4.365707e-08 -1.124163e-08 3.843502e-06) (-3.701990e-07 -2.614697e-07 1.135225e-02))
159.167251    	((6.283803e-05 -4.306649e-05 -8.765555e-05) (-4.491936e-06 -1.150088e-06 -2.463995e-06)) ((-3.859493e-08 -1.748425e-08 3.919998e-06) (-7.366287e-07 -4.749873e-07 1.142999e-02))
165.778251    	((5.303207e-05 -6.007575e-05 -1.146286e-04) (-2.838011e-06 -1.436629e-06 -2.539601e-06)) ((-2.858603e-08 -2.306624e-08 3.979094e-06) (-8.929261e-07 -8.032535e-07 1.148830e-02))
172.338752    	((7.464537e-05 -6.226799e-05 -1.254222e-04) (-8.308347e-08 -1.285711e-06 -2.607147e-06)) ((-3.507613e-08 -2.124664e-08 4.011681e-06) (-6.951188e-07 -1.183174e-06 1.152747e-02))
178.859877    	((8.620578e-05 -4.891336e-05 -1.265656e-04) (2.243063e-06 -4.566789e-07 -2.639466e-06)) ((-4.423337e-08 -1.572393e-08 4.011883e-06) (-8.915938e-08 -1.600356e-06 1.155155e-02))
185.352892    	((3.148225e-05 -3.202380e-05 -1.038607e-04) (2.435422e-06 9.614978e-07 -2.770106e-06)) ((-4.383981e-08 -1.708580e-08 3.992820e-06) (7.510037e-07 -1.905268e-06 1.156631e-02))
191.825784    	((4.014379e-05 -4.394072e-05 -8.520488e-05) (2.260246e-06 5.321723e-07 -3.224587e-06)) ((-4.473274e-08 -4.339843e-09 3.964637e-06) (1.656572e-06 -1.804913e-06 1.157554e-02))
