# Forces      
# CofR        : (0.000000e+00 0.000000e+00 0.000000e+00)
# Time        forces(pressure viscous)	moments(pressure viscous)
0             	((0.000000e+00 0.000000e+00 0.000000e+00) (-3.153716e-11 -3.162335e-01 -1.955271e-11)) ((0.000000e+00 0.000000e+00 0.000000e+00) (9.529773e-09 -1.511236e-12 -4.224035e-08))
0.012         	((-2.068038e-02 -9.234945e+03 -1.867038e-02) (-1.895824e-06 -1.392610e+00 -1.101120e-06)) ((2.389590e-04 2.059220e-05 -1.537666e-03) (-4.346718e-07 -3.454268e-08 2.737041e-07))
0.0264        	((7.581063e-02 1.226042e+03 -7.697773e-02) (-5.828941e-06 -3.188008e+00 -1.589082e-05)) ((-2.051654e-05 1.430650e-05 1.824515e-04) (-1.678105e-05 -3.353444e-07 1.838067e-05))
0.04368       	((-6.880152e-02 1.627124e+03 1.778190e-01) (-8.107109e-06 -2.764419e+00 -8.351678e-06)) ((-7.615728e-05 1.045688e-05 3.103907e-04) (-7.822862e-06 -6.515399e-07 8.974836e-06))
0.064416      	((-3.159952e-02 1.432105e+01 -1.119992e-02) (-5.275136e-05 -2.477814e+00 -6.975029e-06)) ((7.961785e-06 6.844261e-06 4.399538e-06) (7.048490e-06 -1.173288e-06 -3.887293e-06))
0.0892992     	((-1.344187e-02 1.471022e+01 -8.791159e-02) (-1.036498e-04 -2.392578e+00 -4.336026e-05)) ((9.281443e-06 2.541983e-06 -5.761095e-06) (-1.924315e-06 -7.665009e-07 4.301708e-06))
0.119159      	((-1.228996e-02 3.218851e+01 -1.201200e-02) (-4.383726e-05 -2.327510e+00 -8.664543e-05)) ((-1.486077e-06 2.277491e-06 1.597767e-06) (-4.887385e-06 5.072747e-07 2.307912e-06))
0.154991      	((-2.414641e-03 8.952871e+00 -1.588219e-02) (-6.593201e-06 -2.260019e+00 -9.104643e-05)) ((-4.946475e-07 1.880579e-06 -9.776962e-06) (-5.751917e-06 2.305954e-06 2.079004e-06))
0.197989      	((-1.234962e-03 3.631422e+00 -1.804310e-02) (-3.614999e-05 -2.195300e+00 -8.141383e-05)) ((1.897321e-07 7.982020e-06 -8.883986e-06) (-2.585255e-06 2.344927e-06 5.162577e-06))
0.249587      	((-5.517164e-03 1.394880e+00 -1.286777e-02) (8.514010e-05 -2.132247e+00 -2.365237e-05)) ((4.970032e-07 -4.020540e-07 -7.622315e-06) (-2.751338e-07 1.724277e-06 -5.468651e-06))
0.311504      	((2.245791e-02 -8.598957e-01 2.055713e-03) (1.472359e-04 -2.069616e+00 2.566169e-05)) ((6.376481e-06 -9.969014e-07 -1.235104e-05) (-1.055435e-06 1.448518e-06 -1.168289e-05))
0.385805      	((4.618653e-03 -2.060685e+00 -1.988392e-03) (1.635254e-04 -2.007004e+00 -8.606947e-06)) ((-1.891345e-06 7.648056e-06 -1.062322e-05) (-1.191252e-05 1.439265e-06 -1.642735e-06))
0.474966      	((2.113500e-02 -2.651693e+00 -1.490693e-03) (1.495045e-04 -1.944714e+00 -6.605708e-07)) ((-8.305743e-06 1.661945e-05 1.018758e-05) (-1.192151e-05 5.021026e-07 7.894528e-06))
0.581959      	((2.745870e-04 -2.964397e+00 2.319108e-04) (3.250298e-05 -1.884692e+00 8.595062e-06)) ((1.474120e-07 1.690228e-05 3.487910e-06) (-1.144425e-05 1.513160e-06 5.963271e-06))
0.710351      	((-1.037333e-03 -3.091584e+00 -4.206471e-03) (1.557727e-05 -1.829866e+00 -4.789842e-06)) ((1.521878e-06 1.713681e-05 -2.064752e-06) (-1.902943e-05 1.586367e-06 2.508707e-06))
0.864421      	((-2.046961e-03 -3.133330e+00 -7.499217e-03) (-1.833540e-05 -1.781216e+00 -3.213597e-05)) ((5.323295e-09 1.057587e-05 -5.072496e-06) (-2.486977e-05 4.445706e-07 4.979132e-06))
1.049306      	((-1.406992e-02 -3.171265e+00 -6.758576e-03) (-1.440221e-04 -1.739817e+00 -4.411083e-05)) ((2.674650e-06 1.943359e-05 -1.160849e-05) (-2.365683e-05 -2.561102e-06 7.133283e-07))
1.271167      	((-1.286120e-02 -3.245559e+00 -1.441092e-03) (-1.730444e-04 -1.705743e+00 -1.628603e-06)) ((1.446306e-06 1.870385e-05 1.470222e-06) (-2.238346e-05 -1.309697e-06 -6.455579e-06))
1.5374        	((-4.275257e-03 -3.429877e+00 -5.441102e-04) (-1.678103e-04 -1.677933e+00 1.115321e-05)) ((-1.082275e-06 1.106029e-05 -4.327039e-06) (-2.489032e-05 1.510755e-06 -9.400076e-06))
1.856124      	((-6.785086e-03 -3.655986e+00 -3.968118e-03) (-9.796120e-05 -1.655987e+00 -3.844335e-05)) ((1.011121e-06 1.707088e-05 -3.204528e-06) (-3.089103e-05 8.908703e-07 -2.235025e-07))
2.227304      	((7.019904e-04 -3.954829e+00 -2.788380e-03) (-9.202903e-06 -1.640741e+00 -1.206115e-05)) ((2.460947e-06 1.505854e-05 -1.663024e-06) (-2.916977e-05 1.291014e-06 1.173794e-05))
2.650871      	((-3.664710e-03 -4.280508e+00 -1.398013e-04) (-3.322138e-05 -1.631760e+00 1.186384e-05)) ((2.753518e-07 1.476890e-05 -2.156042e-06) (-2.897415e-05 4.563619e-06 2.177748e-05))
3.126782      	((-7.374370e-04 -4.589795e+00 -9.647921e-04) (-2.777231e-05 -1.628753e+00 1.273535e-05)) ((9.549922e-07 1.391379e-05 -1.338713e-06) (-3.294515e-05 7.549347e-06 2.795245e-05))
3.648805      	((4.822996e-04 -4.851166e+00 1.526455e-03) (-5.719650e-06 -1.630658e+00 3.785705e-05)) ((1.328896e-06 1.634905e-05 -1.508382e-06) (-3.391728e-05 1.085948e-05 3.567988e-05))
4.167114      	((1.373668e-03 -5.089850e+00 3.171199e-03) (-3.021050e-05 -1.634239e+00 2.883962e-05)) ((6.530791e-07 1.692122e-05 -3.368961e-07) (-3.798284e-05 1.269582e-05 4.002602e-05))
4.68177       	((4.770942e-03 -5.295916e+00 7.704049e-03) (-3.054494e-05 -1.636087e+00 3.668326e-05)) ((8.463424e-07 1.572604e-05 -1.633076e-06) (-3.401345e-05 1.381193e-05 3.585592e-05))
5.193913      	((1.043536e-02 -5.449000e+00 1.271638e-02) (-3.304263e-05 -1.634603e+00 3.532649e-05)) ((4.047833e-07 1.576057e-05 -5.411026e-07) (-2.163840e-05 1.186846e-05 2.495434e-05))
5.703847      	((1.578300e-02 -5.523127e+00 1.707303e-02) (-3.989155e-05 -1.630189e+00 1.274091e-05)) ((4.111292e-07 1.471707e-05 -1.372230e-06) (1.287438e-06 1.095149e-05 1.601235e-06))
6.213557      	((2.058249e-02 -5.585240e+00 2.366364e-02) (-7.256657e-05 -1.624358e+00 -2.377574e-07)) ((1.300744e-06 1.442969e-05 -2.671205e-06) (2.545392e-05 1.166321e-05 -1.464799e-05))
6.72428       	((2.856110e-02 -5.643256e+00 2.953003e-02) (-4.886823e-05 -1.618368e+00 -8.793096e-06)) ((1.835503e-06 1.466751e-05 -2.073882e-06) (3.933618e-05 1.201300e-05 -3.102768e-05))
7.236112      	((3.690079e-02 -5.665292e+00 3.727137e-02) (1.107015e-05 -1.612804e+00 1.706621e-05)) ((2.163602e-06 1.414706e-05 -2.149876e-06) (4.739875e-05 1.220903e-05 -4.465795e-05))
7.748454      	((4.275330e-02 -5.637229e+00 4.600175e-02) (1.865496e-05 -1.607807e+00 7.805564e-05)) ((2.569806e-06 1.348876e-05 -1.779585e-06) (5.255519e-05 1.182477e-05 -4.210765e-05))
8.260774      	((5.179091e-02 -5.592637e+00 5.095884e-02) (4.709966e-05 -1.603309e+00 9.505735e-05)) ((2.544254e-06 1.354128e-05 -5.724748e-07) (5.153094e-05 1.156530e-05 -4.508294e-05))
8.773108      	((5.965411e-02 -5.536630e+00 5.725623e-02) (1.021566e-04 -1.599224e+00 1.068518e-04)) ((2.449229e-06 1.323422e-05 -7.683151e-07) (5.330517e-05 1.151217e-05 -5.888364e-05))
9.285635      	((6.738652e-02 -5.475263e+00 6.853785e-02) (1.152845e-04 -1.595667e+00 1.737951e-04)) ((2.543030e-06 1.211628e-05 -3.162847e-07) (6.834448e-05 1.138741e-05 -6.783169e-05))
9.798408      	((7.654285e-02 -5.423744e+00 7.477932e-02) (1.138500e-04 -1.592541e+00 1.850049e-04)) ((2.518751e-06 1.224946e-05 6.550664e-07) (8.072539e-05 1.177480e-05 -8.258190e-05))
10.311384     	((8.978375e-02 -5.396743e+00 8.229759e-02) (1.759820e-04 -1.589593e+00 1.634385e-04)) ((2.657841e-06 1.262111e-05 1.507739e-07) (9.385163e-05 1.194738e-05 -1.162790e-04))
10.824508     	((1.007283e-01 -5.387727e+00 9.620323e-02) (1.886610e-04 -1.586956e+00 2.090179e-04)) ((2.830324e-06 1.132909e-05 2.597318e-07) (1.321767e-04 1.203058e-05 -1.516302e-04))
11.337771     	((1.108724e-01 -5.378765e+00 1.068302e-01) (1.042162e-04 -1.584738e+00 2.006802e-04)) ((3.177727e-06 1.141031e-05 5.870181e-07) (1.682905e-04 1.239520e-05 -1.805465e-04))
11.851172     	((1.327714e-01 -5.358120e+00 1.192044e-01) (1.572014e-04 -1.582588e+00 1.580068e-04)) ((3.157867e-06 1.193284e-05 -5.668787e-08) (1.992001e-04 1.283757e-05 -2.378964e-04))
12.364699     	((1.548291e-01 -5.335376e+00 1.398325e-01) (2.279852e-04 -1.580647e+00 1.966779e-04)) ((3.625244e-06 1.036604e-05 -5.207824e-07) (2.594259e-04 1.325507e-05 -3.109103e-04))
12.878327     	((1.676682e-01 -5.313501e+00 1.566584e-01) (6.946443e-05 -1.579238e+00 1.773061e-04)) ((3.953855e-06 1.080263e-05 3.424921e-07) (3.182794e-04 1.340204e-05 -3.571869e-04))
13.392038     	((1.994208e-01 -5.286892e+00 1.771462e-01) (7.187130e-05 -1.577801e+00 1.198624e-04)) ((4.228907e-06 1.217634e-05 9.400793e-08) (3.723913e-04 1.362574e-05 -4.362453e-04))
13.905814     	((2.383838e-01 -5.269296e+00 2.072832e-01) (2.494731e-04 -1.576383e+00 1.555472e-04)) ((5.077317e-06 1.031237e-05 -9.892510e-07) (4.565395e-04 1.404010e-05 -5.588736e-04))
14.419643     	((2.577125e-01 -5.262285e+00 2.351416e-01) (7.179579e-05 -1.575545e+00 1.577160e-04)) ((5.956888e-06 1.025284e-05 7.338648e-09) (5.359321e-04 1.400596e-05 -6.203662e-04))
14.933509     	((2.982942e-01 -5.253341e+00 2.656260e-01) (1.643326e-06 -1.574546e+00 1.225871e-04)) ((6.110400e-06 1.270837e-05 3.401542e-07) (6.004464e-04 1.370073e-05 -6.915245e-04))
15.447398     	((3.605768e-01 -5.250203e+00 3.082678e-01) (3.355575e-04 -1.573390e+00 1.872357e-04)) ((7.658618e-06 1.085417e-05 -1.811703e-06) (6.895194e-04 1.355693e-05 -8.462690e-04))
15.961301     	((3.941216e-01 -5.255167e+00 3.511394e-01) (2.599933e-04 -1.572875e+00 2.796893e-04)) ((9.240743e-06 9.670247e-06 -1.188177e-06) (7.848581e-04 1.313205e-05 -9.304268e-04))
16.475207     	((4.427521e-01 -5.250444e+00 3.947585e-01) (6.765381e-05 -1.572197e+00 2.713499e-04)) ((9.078281e-06 1.335605e-05 2.315456e-07) (8.607696e-04 1.263127e-05 -9.900854e-04))
16.989106     	((5.342113e-01 -5.247120e+00 4.543651e-01) (5.043947e-04 -1.571278e+00 3.566393e-04)) ((1.100932e-05 1.179028e-05 -2.432333e-06) (9.670478e-04 1.252934e-05 -1.183837e-03))
17.502986     	((5.949117e-01 -5.249874e+00 5.194895e-01) (6.038950e-04 -1.570980e+00 5.519962e-04)) ((1.361740e-05 9.162418e-06 -2.979441e-06) (1.107395e-03 1.256030e-05 -1.342777e-03))
18.01684      	((6.514536e-01 -5.244147e+00 5.792604e-01) (2.411933e-04 -1.570569e+00 5.415175e-04)) ((1.309334e-05 1.346504e-05 8.018091e-09) (1.228008e-03 1.165607e-05 -1.428222e-03))
18.530653     	((7.727796e-01 -5.240703e+00 6.576732e-01) (6.695488e-04 -1.569860e+00 5.878028e-04)) ((1.464644e-05 1.272374e-05 -2.067707e-06) (1.379333e-03 1.159809e-05 -1.675285e-03))
19.044416     	((8.732718e-01 -5.248864e+00 7.508463e-01) (9.555443e-04 -1.569690e+00 8.472103e-04)) ((1.780234e-05 9.854021e-06 -3.985567e-06) (1.599405e-03 1.153452e-05 -1.950256e-03))
19.558118     	((9.492139e-01 -5.251673e+00 8.353055e-01) (4.792685e-04 -1.569464e+00 8.288093e-04)) ((1.761424e-05 1.248192e-05 1.721121e-07) (1.806350e-03 1.041186e-05 -2.115030e-03))
20.071747     	((1.105768e+00 -5.256480e+00 9.419457e-01) (7.850383e-04 -1.568922e+00 8.046275e-04)) ((1.869936e-05 1.251913e-05 -3.230292e-07) (2.032023e-03 1.018478e-05 -2.436961e-03))
20.585287     	((1.262464e+00 -5.272972e+00 1.077539e+00) (1.222779e-03 -1.568887e+00 1.114492e-03)) ((2.263916e-05 1.067954e-05 -3.716812e-06) (2.362789e-03 1.035160e-05 -2.853004e-03))
21.098725     	((1.381804e+00 -5.280630e+00 1.203249e+00) (7.822876e-04 -1.568837e+00 1.107206e-03)) ((2.389505e-05 1.101155e-05 2.681928e-07) (2.690976e-03 8.973175e-06 -3.155958e-03))
21.612043     	((1.586000e+00 -5.286750e+00 1.354222e+00) (9.434494e-04 -1.568534e+00 1.020806e-03)) ((2.499523e-05 1.142366e-05 1.326040e-06) (3.016636e-03 8.449806e-06 -3.576449e-03))
22.125218     	((1.817578e+00 -5.305808e+00 1.550235e+00) (1.501050e-03 -1.568714e+00 1.387825e-03)) ((2.984827e-05 9.973997e-06 -2.806066e-06) (3.478200e-03 8.839989e-06 -4.141852e-03))
22.63823      	((2.015450e+00 -5.319406e+00 1.737444e+00) (1.268625e-03 -1.568896e+00 1.435305e-03)) ((3.334019e-05 9.404917e-06 -1.025225e-07) (3.952562e-03 7.324544e-06 -4.635948e-03))
23.151053     	((2.284912e+00 -5.339435e+00 1.952850e+00) (1.323940e-03 -1.568859e+00 1.356762e-03)) ((3.533335e-05 9.015088e-06 2.251097e-06) (4.418030e-03 5.759998e-06 -5.205146e-03))
23.663659     	((2.604583e+00 -5.377308e+00 2.223094e+00) (1.935357e-03 -1.569262e+00 1.806623e-03)) ((4.069339e-05 6.510509e-06 -7.603900e-07) (5.044344e-03 5.985104e-06 -5.941923e-03))
24.17602      	((2.910150e+00 -5.419480e+00 2.488228e+00) (2.021700e-03 -1.569684e+00 1.977567e-03)) ((4.572697e-05 5.768098e-06 7.676842e-07) (5.699169e-03 4.946238e-06 -6.671964e-03))
24.688109     	((3.265431e+00 -5.474885e+00 2.786869e+00) (2.105816e-03 -1.569990e+00 2.033991e-03)) ((4.853258e-05 4.244108e-06 4.738699e-06) (6.360596e-03 4.171403e-06 -7.464183e-03))
25.1999       	((3.688838e+00 -5.550207e+00 3.144159e+00) (2.734132e-03 -1.570687e+00 2.594997e-03)) ((5.298558e-05 1.309360e-06 6.233875e-06) (7.179766e-03 4.643651e-06 -8.415830e-03))
25.711395     	((4.120678e+00 -5.634032e+00 3.504613e+00) (3.149999e-03 -1.571445e+00 2.885567e-03)) ((5.766042e-05 -2.229933e-07 8.922707e-06) (8.039562e-03 6.142525e-06 -9.420305e-03))
26.222577     	((4.579704e+00 -5.741329e+00 3.896052e+00) (3.424332e-03 -1.572292e+00 3.130309e-03)) ((6.076269e-05 -1.953855e-06 1.428014e-05) (8.935474e-03 6.957297e-06 -1.048719e-02))
26.733402     	((5.099505e+00 -5.874196e+00 4.331095e+00) (4.133961e-03 -1.573364e+00 3.732402e-03)) ((6.446273e-05 -5.290255e-06 2.060998e-05) (9.945590e-03 7.450684e-06 -1.168828e-02))
27.24381      	((5.635822e+00 -6.032621e+00 4.765422e+00) (4.875336e-03 -1.574563e+00 4.177796e-03)) ((6.560619e-05 -6.038060e-06 2.680163e-05) (1.099273e-02 1.133934e-05 -1.295677e-02))
27.753782     	((6.166310e+00 -6.226855e+00 5.217530e+00) (5.440174e-03 -1.576130e+00 4.720247e-03)) ((6.372894e-05 -6.082948e-06 3.704636e-05) (1.207364e-02 1.645204e-05 -1.423305e-02))
28.263302     	((6.714491e+00 -6.445316e+00 5.663574e+00) (6.269430e-03 -1.577929e+00 5.390843e-03)) ((6.082381e-05 -8.687880e-06 5.047099e-05) (1.319139e-02 2.222810e-05 -1.558238e-02))
28.772357     	((7.234218e+00 -6.680617e+00 6.083584e+00) (7.133911e-03 -1.579942e+00 6.082074e-03)) ((5.715814e-05 -9.668268e-06 6.457995e-05) (1.431960e-02 3.126167e-05 -1.696883e-02))
29.280933     	((7.694362e+00 -6.934176e+00 6.460940e+00) (7.853212e-03 -1.582294e+00 6.834243e-03)) ((5.186375e-05 -9.493547e-06 7.990429e-05) (1.540587e-02 4.354380e-05 -1.831071e-02))
29.788978     	((8.088255e+00 -7.195979e+00 6.765362e+00) (8.765087e-03 -1.584868e+00 7.595161e-03)) ((4.219755e-05 -9.265575e-06 9.829905e-05) (1.639963e-02 5.748840e-05 -1.957799e-02))
30.296473     	((8.376708e+00 -7.440886e+00 6.975503e+00) (9.907179e-03 -1.587519e+00 8.501903e-03)) ((2.970951e-05 -1.067523e-05 1.175966e-04) (1.724299e-02 7.291841e-05 -2.068741e-02))
30.803416     	((8.505678e+00 -7.665438e+00 7.069007e+00) (1.094438e-02 -1.590394e+00 9.495647e-03)) ((1.190410e-05 -9.617067e-06 1.350404e-04) (1.784393e-02 8.658338e-05 -2.149834e-02))
31.309859     	((8.477494e+00 -7.868439e+00 7.020356e+00) (1.199177e-02 -1.593421e+00 1.038140e-02)) ((-1.007784e-05 -4.167243e-06 1.537192e-04) (1.816624e-02 9.260130e-05 -2.200172e-02))
31.815868     	((8.295020e+00 -8.023134e+00 6.843294e+00) (1.294375e-02 -1.596278e+00 1.110855e-02)) ((-3.018199e-05 -5.269068e-07 1.703725e-04) (1.827277e-02 9.406652e-05 -2.227252e-02))
32.321521     	((7.954157e+00 -8.117960e+00 6.574783e+00) (1.314754e-02 -1.598970e+00 1.148526e-02)) ((-4.754934e-05 3.627972e-06 1.831300e-04) (1.821447e-02 9.838723e-05 -2.232594e-02))
32.826921     	((7.535362e+00 -8.135216e+00 6.231723e+00) (1.270189e-02 -1.601386e+00 1.129792e-02)) ((-6.143580e-05 1.218356e-05 1.901318e-04) (1.803824e-02 1.067202e-04 -2.224623e-02))
33.332181     	((7.105663e+00 -8.086930e+00 5.864179e+00) (1.190886e-02 -1.603272e+00 1.065989e-02)) ((-6.887757e-05 1.764566e-05 1.902560e-04) (1.781462e-02 1.125583e-04 -2.212701e-02))
33.837417     	((6.682612e+00 -7.994289e+00 5.521528e+00) (1.056242e-02 -1.604775e+00 9.637039e-03)) ((-6.703135e-05 2.027427e-05 1.806836e-04) (1.759400e-02 1.094134e-04 -2.196754e-02))
34.342733     	((6.350850e+00 -7.860951e+00 5.259194e+00) (8.753147e-03 -1.606128e+00 8.244255e-03)) ((-5.743014e-05 2.077107e-05 1.674296e-04) (1.738875e-02 1.013255e-04 -2.177269e-02))
34.848209     	((6.175809e+00 -7.709215e+00 5.114179e+00) (7.039512e-03 -1.607255e+00 6.785092e-03)) ((-4.492789e-05 1.780156e-05 1.548583e-04) (1.723819e-02 8.835358e-05 -2.161287e-02))
35.353895     	((6.136846e+00 -7.570905e+00 5.086565e+00) (5.686968e-03 -1.608196e+00 5.539316e-03)) ((-2.814379e-05 7.349421e-06 1.446374e-04) (1.717111e-02 5.652830e-05 -2.147999e-02))
35.859809     	((6.195683e+00 -7.439140e+00 5.132336e+00) (4.718548e-03 -1.609151e+00 4.564872e-03)) ((-1.182936e-05 -1.095959e-05 1.392518e-04) (1.713582e-02 1.025537e-05 -2.132242e-02))
36.365933     	((6.304258e+00 -7.290283e+00 5.209516e+00) (4.454288e-03 -1.610184e+00 4.162875e-03)) ((6.195302e-07 -2.806649e-05 1.367412e-04) (1.699098e-02 -2.313713e-05 -2.107008e-02))
36.872231     	((6.440037e+00 -7.122743e+00 5.309615e+00) (5.169668e-03 -1.611278e+00 4.645414e-03)) ((9.314651e-06 -4.340720e-05 1.395086e-04) (1.666309e-02 -2.663808e-05 -2.061593e-02))
37.378657     	((6.501663e+00 -6.985799e+00 5.350830e+00) (6.259763e-03 -1.612337e+00 5.413214e-03)) ((1.356741e-05 -5.402693e-05 1.404871e-04) (1.629495e-02 -1.736869e-05 -2.008682e-02))
37.885163     	((6.429266e+00 -6.915120e+00 5.288549e+00) (7.122375e-03 -1.613395e+00 5.918757e-03)) ((9.371471e-06 -5.292255e-05 1.431183e-04) (1.595987e-02 -1.475379e-05 -1.960869e-02))
38.391707     	((6.248782e+00 -6.885966e+00 5.150012e+00) (7.667476e-03 -1.614315e+00 6.232151e-03)) ((-5.244977e-06 -4.290339e-05 1.494154e-04) (1.567869e-02 -1.866404e-05 -1.920027e-02))
38.898264     	((5.995922e+00 -6.909248e+00 4.948335e+00) (7.773223e-03 -1.615030e+00 6.297353e-03)) ((-2.259945e-05 -3.406769e-05 1.558316e-04) (1.543596e-02 -1.576001e-05 -1.886765e-02))
39.404832     	((5.677731e+00 -6.944471e+00 4.701334e+00) (7.300757e-03 -1.615729e+00 5.861520e-03)) ((-3.910774e-05 -2.539850e-05 1.602757e-04) (1.519746e-02 -1.440471e-05 -1.855773e-02))
39.911429     	((5.373352e+00 -6.950705e+00 4.469093e+00) (6.538478e-03 -1.616256e+00 5.201445e-03)) ((-5.714918e-05 -9.785856e-06 1.598496e-04) (1.499136e-02 -2.703343e-05 -1.822817e-02))
40.418088     	((5.118632e+00 -6.955926e+00 4.287763e+00) (5.691321e-03 -1.616414e+00 4.519673e-03)) ((-7.229008e-05 4.262460e-06 1.540697e-04) (1.485785e-02 -4.091508e-05 -1.794345e-02))
40.924851     	((4.945518e+00 -6.981712e+00 4.155123e+00) (4.540227e-03 -1.616573e+00 3.564724e-03)) ((-7.330615e-05 7.876734e-06 1.411656e-04) (1.473746e-02 -3.589000e-05 -1.774994e-02))
41.43175      	((4.880230e+00 -6.975718e+00 4.129728e+00) (3.180345e-03 -1.616708e+00 2.572700e-03)) ((-6.714979e-05 9.751663e-06 1.267658e-04) (1.469498e-02 -1.817313e-05 -1.766043e-02))
41.938807     	((4.963766e+00 -6.936851e+00 4.210944e+00) (2.046248e-03 -1.616321e+00 1.775676e-03)) ((-5.213930e-05 2.434129e-06 1.157363e-04) (1.488630e-02 -9.571295e-06 -1.777315e-02))
42.446025     	((5.132772e+00 -6.866671e+00 4.362555e+00) (1.140140e-03 -1.615798e+00 9.678127e-04)) ((-2.773275e-05 -1.533756e-05 1.032789e-04) (1.516780e-02 -1.408088e-05 -1.802982e-02))
42.953385     	((5.351538e+00 -6.738306e+00 4.556809e+00) (7.450378e-04 -1.615567e+00 6.283996e-04)) ((-1.353512e-06 -3.144982e-05 9.134890e-05) (1.530719e-02 -3.135087e-05 -1.815743e-02))
43.460853     	((5.579719e+00 -6.611419e+00 4.782303e+00) (1.247554e-03 -1.615195e+00 1.190190e-03)) ((1.628027e-05 -4.035592e-05 8.709351e-05) (1.536129e-02 -5.424693e-05 -1.814544e-02))
43.968384     	((5.765014e+00 -6.541459e+00 4.951468e+00) (2.236132e-03 -1.614891e+00 2.003689e-03)) ((2.378672e-05 -5.024839e-05 8.913533e-05) (1.532496e-02 -7.874308e-05 -1.804599e-02))
44.475924     	((5.828480e+00 -6.602609e+00 5.012945e+00) (3.161409e-03 -1.614987e+00 2.707554e-03)) ((1.546564e-05 -5.197924e-05 9.906655e-05) (1.520709e-02 -1.015539e-04 -1.786062e-02))
44.983426     	((5.796976e+00 -6.743113e+00 5.001806e+00) (4.089024e-03 -1.614982e+00 3.575732e-03)) ((-1.065518e-06 -4.263044e-05 1.124368e-04) (1.516173e-02 -1.179097e-04 -1.771711e-02))
45.490858     	((5.702610e+00 -6.875384e+00 4.938929e+00) (4.752467e-03 -1.614935e+00 4.072904e-03)) ((-1.606224e-05 -3.606994e-05 1.235987e-04) (1.517207e-02 -1.186194e-04 -1.765989e-02))
