# Forces      
# CofR        : (0.000000e+00 0.000000e+00 0.000000e+00)
# Time        forces(pressure viscous)	moments(pressure viscous)
0             	((0.000000e+00 0.000000e+00 0.000000e+00) (-6.963637e-08 -9.289653e+02 -4.099444e-08)) ((0.000000e+00 0.000000e+00 0.000000e+00) (2.431708e-05 -4.468478e-09 -1.423691e-04))
0.00609626    	((1.390199e+02 -5.791498e+05 1.500124e+02) (4.039501e-02 -1.126625e+03 4.088715e-02)) ((1.771185e-02 2.113503e-02 -9.648792e-02) (6.396556e-02 -7.075859e-04 -6.371958e-02))
0.0134118     	((-6.165798e+01 2.771064e+05 -6.310566e+01) (-1.372995e-02 -1.094396e+03 -9.669816e-03)) ((-4.970389e-03 1.689618e-02 2.958908e-02) (2.966762e-02 -1.819779e-03 -3.351248e-02))
0.0221904     	((-2.358032e+01 -6.228950e+04 -2.500116e+01) (4.405422e-02 -9.255083e+02 1.367976e-02)) ((8.684995e-04 1.760317e-02 -4.538300e-03) (3.551890e-02 -2.629933e-03 -4.155561e-02))
0.0326397     	((-5.194962e-01 2.474076e+04 -1.242105e+00) (5.549401e-02 -8.830103e+02 4.052483e-02)) ((3.467733e-03 1.088552e-02 2.172994e-04) (3.785940e-02 -2.352356e-04 -3.927853e-02))
0.0447662     	((-6.481678e+00 -1.661078e+04 -2.737175e+00) (-3.142919e-02 -8.546411e+02 1.037319e-02)) ((3.009452e-03 1.423561e-02 -3.527452e-03) (1.434445e-02 1.698328e-03 -1.788238e-02))
0.0585571     	((-5.199288e+00 2.464586e+03 5.723481e-01) (-6.005913e-02 -8.527522e+02 -1.637500e-02)) ((7.127158e-04 1.183259e-02 -3.402599e-03) (8.913090e-03 4.870388e-04 -2.295324e-02))
0.0740004     	((-1.351693e+01 -6.513598e+03 -8.073624e-01) (-1.510903e-01 -8.504625e+02 -1.720928e-02)) ((1.862200e-03 1.178900e-02 -1.258441e-03) (-5.378779e-03 5.405164e-04 -1.847646e-02))
0.0904        	((-9.625382e+00 -2.361363e+03 5.075843e-01) (-1.195745e-01 -8.516857e+02 5.885900e-03)) ((1.287639e-03 1.771248e-02 -4.651262e-03) (-1.129001e-02 1.591451e-03 -1.156765e-02))
0.106836      	((4.668929e+00 -4.478539e+03 -2.728727e+00) (-4.892207e-02 -8.547984e+02 -4.027295e-03)) ((9.929599e-04 1.542379e-02 -3.210797e-03) (-1.424497e-02 3.093936e-03 -1.872730e-03))
0.12319       	((6.318321e-01 -3.537105e+03 -2.899177e+00) (-3.280644e-02 -8.600185e+02 -1.224115e-02)) ((2.459805e-03 1.517489e-02 -1.859770e-03) (-1.660375e-02 4.286708e-03 9.204355e-03))
0.139421      	((4.112989e+00 -4.153872e+03 -3.270204e-01) (-9.253754e-03 -8.647080e+02 -5.153700e-03)) ((6.680760e-04 1.648700e-02 -3.348845e-03) (-2.066084e-02 4.075602e-03 1.405196e-02))
0.155541      	((7.228408e+00 -3.977269e+03 2.906792e+00) (-1.255797e-02 -8.681482e+02 2.182711e-03)) ((1.507984e-03 1.781444e-02 -2.327192e-03) (-2.184170e-02 3.624291e-03 1.061466e-02))
0.17158       	((9.369482e+00 -4.140847e+03 5.568617e+00) (-1.427044e-03 -8.696018e+02 1.650493e-02)) ((1.086332e-03 1.525843e-02 -2.321583e-03) (-1.973279e-02 4.325915e-03 6.820500e-03))
0.187564      	((1.519713e+01 -4.120637e+03 8.007053e+00) (1.073715e-02 -8.694828e+02 1.263907e-02)) ((6.570757e-04 1.746263e-02 -2.050023e-03) (-1.728071e-02 4.008538e-03 -7.996173e-05))
0.203538      	((1.646098e+01 -4.138604e+03 1.047196e+01) (1.495951e-03 -8.686624e+02 9.766006e-03)) ((1.218590e-03 1.613354e-02 -2.656049e-03) (-1.183119e-02 4.332297e-03 -5.348738e-03))
0.219546      	((2.071849e+01 -4.127587e+03 1.451318e+01) (-8.987504e-04 -8.676634e+02 1.110929e-02)) ((1.353647e-03 1.569233e-02 -2.950398e-03) (-5.662126e-03 4.396392e-03 -1.097209e-02))
0.235586      	((2.580615e+01 -4.120976e+03 1.822817e+01) (2.824221e-03 -8.667010e+02 1.427430e-02)) ((1.977696e-03 1.580719e-02 -2.441527e-03) (-5.015768e-04 4.762762e-03 -1.856674e-02))
0.251632      	((3.091715e+01 -4.122156e+03 2.249267e+01) (2.049836e-02 -8.658864e+02 2.394712e-02)) ((2.126006e-03 1.489591e-02 -3.374658e-03) (1.512892e-03 6.050854e-03 -2.092033e-02))
0.267666      	((3.644037e+01 -4.103084e+03 2.640255e+01) (2.789253e-02 -8.650970e+02 3.189557e-02)) ((2.239857e-03 1.512126e-02 -2.150184e-03) (1.400365e-03 6.518335e-03 -2.267561e-02))
0.283695      	((4.054978e+01 -4.086565e+03 3.080502e+01) (3.079950e-02 -8.643625e+02 4.110234e-02)) ((2.256386e-03 1.385682e-02 -2.566374e-03) (2.614044e-03 6.854413e-03 -2.562855e-02))
0.299727      	((4.773796e+01 -4.070595e+03 3.603519e+01) (3.919774e-02 -8.637188e+02 4.729401e-02)) ((2.172500e-03 1.374126e-02 -2.184160e-03) (5.627749e-03 7.179888e-03 -2.952361e-02))
0.315762      	((5.539672e+01 -4.061194e+03 4.207911e+01) (4.317291e-02 -8.631716e+02 5.115494e-02)) ((2.208206e-03 1.326655e-02 -1.829533e-03) (1.021696e-02 7.205219e-03 -3.601635e-02))
0.3318        	((6.480814e+01 -4.057710e+03 4.966317e+01) (4.661990e-02 -8.626963e+02 5.277571e-02)) ((2.426138e-03 1.294820e-02 -2.381498e-03) (1.733763e-02 7.378295e-03 -4.456378e-02))
0.347839      	((7.566960e+01 -4.060304e+03 5.852693e+01) (4.315228e-02 -8.622758e+02 5.008860e-02)) ((2.661978e-03 1.277542e-02 -2.333763e-03) (2.814918e-02 7.424598e-03 -5.764255e-02))
0.363878      	((8.953542e+01 -4.065645e+03 6.982173e+01) (3.717141e-02 -8.619094e+02 4.548988e-02)) ((3.199257e-03 1.260007e-02 -2.881698e-03) (4.284548e-02 7.362943e-03 -7.543179e-02))
0.379918      	((1.060370e+02 -4.072960e+03 8.321056e+01) (3.012650e-02 -8.615849e+02 3.740369e-02)) ((3.583452e-03 1.250076e-02 -3.161322e-03) (6.109454e-02 7.277262e-03 -9.737441e-02))
0.395959      	((1.243396e+02 -4.080605e+03 9.841761e+01) (1.941492e-02 -8.612998e+02 2.640348e-02)) ((4.057853e-03 1.238297e-02 -3.365773e-03) (8.306697e-02 7.309141e-03 -1.239735e-01))
0.412001      	((1.463363e+02 -4.086500e+03 1.167396e+02) (7.746818e-03 -8.610533e+02 1.506655e-02)) ((4.477857e-03 1.234229e-02 -3.543969e-03) (1.094146e-01 7.349642e-03 -1.548766e-01))
0.428043      	((1.725746e+02 -4.089799e+03 1.387835e+02) (-4.904323e-03 -8.608456e+02 3.015068e-03)) ((5.088274e-03 1.216016e-02 -3.615197e-03) (1.401953e-01 7.259612e-03 -1.910089e-01))
0.444086      	((2.035777e+02 -4.090102e+03 1.647289e+02) (-1.832503e-02 -8.606713e+02 -1.078584e-02)) ((5.777744e-03 1.203123e-02 -3.675567e-03) (1.757078e-01 7.193925e-03 -2.332193e-01))
0.460128      	((2.392665e+02 -4.088221e+03 1.950191e+02) (-3.343676e-02 -8.605265e+02 -2.532111e-02)) ((6.420758e-03 1.196054e-02 -3.565167e-03) (2.168074e-01 7.219541e-03 -2.824213e-01))
0.47617       	((2.805716e+02 -4.085858e+03 2.301244e+02) (-4.874603e-02 -8.604048e+02 -3.874694e-02)) ((7.183249e-03 1.183931e-02 -3.524536e-03) (2.641925e-01 7.238075e-03 -3.389434e-01))
0.492212      	((3.278518e+02 -4.084224e+03 2.700162e+02) (-6.305264e-02 -8.602993e+02 -5.131989e-02)) ((7.972570e-03 1.168753e-02 -3.439415e-03) (3.179977e-01 7.212062e-03 -4.033044e-01))
0.508254      	((3.810663e+02 -4.084210e+03 3.150107e+02) (-7.686140e-02 -8.602038e+02 -6.433346e-02)) ((8.879345e-03 1.160922e-02 -3.333924e-03) (3.786216e-01 7.164151e-03 -4.760771e-01))
0.524295      	((4.405548e+02 -4.085056e+03 3.652025e+02) (-9.083014e-02 -8.601147e+02 -7.766294e-02)) ((9.906335e-03 1.149789e-02 -3.329590e-03) (4.468152e-01 7.105509e-03 -5.579272e-01))
0.540335      	((5.069608e+02 -4.087333e+03 4.210126e+02) (-1.054492e-01 -8.600303e+02 -9.121246e-02)) ((1.112435e-02 1.129979e-02 -3.427929e-03) (5.236002e-01 7.026743e-03 -6.498036e-01))
0.556374      	((5.806833e+02 -4.090923e+03 4.828235e+02) (-1.215907e-01 -8.599505e+02 -1.067942e-01)) ((1.248015e-02 1.117160e-02 -3.595579e-03) (6.098339e-01 6.933717e-03 -7.527176e-01))
0.572411      	((6.628888e+02 -4.095378e+03 5.514827e+02) (-1.401444e-01 -8.598754e+02 -1.256150e-01)) ((1.402996e-02 1.107332e-02 -3.837651e-03) (7.064326e-01 6.890604e-03 -8.680145e-01))
0.588447      	((7.550215e+02 -4.100630e+03 6.282961e+02) (-1.620148e-01 -8.598052e+02 -1.471918e-01)) ((1.572147e-02 1.091838e-02 -4.075213e-03) (8.148518e-01 6.969300e-03 -9.973947e-01))
0.604481      	((8.581660e+02 -4.106213e+03 7.149480e+02) (-1.872350e-01 -8.597410e+02 -1.714218e-01)) ((1.761185e-02 1.056261e-02 -4.400002e-03) (9.365811e-01 7.081609e-03 -1.142340e+00))
0.620514      	((9.731107e+02 -4.112159e+03 8.121834e+02) (-2.155641e-01 -8.596844e+02 -1.989666e-01)) ((1.991366e-02 1.007219e-02 -4.737335e-03) (1.073044e+00 7.172325e-03 -1.303993e+00))
0.636544      	((1.101066e+03 -4.119387e+03 9.205493e+02) (-2.466828e-01 -8.596358e+02 -2.293326e-01)) ((2.255084e-02 9.564231e-03 -5.190887e-03) (1.225440e+00 7.289463e-03 -1.483634e+00))
0.652572      	((1.243615e+03 -4.127143e+03 1.040880e+03) (-2.793018e-01 -8.595962e+02 -2.611760e-01)) ((2.531781e-02 9.130367e-03 -5.607727e-03) (1.394511e+00 7.417263e-03 -1.682389e+00))
0.668596      	((1.402608e+03 -4.136600e+03 1.175167e+03) (-3.121573e-01 -8.595682e+02 -2.927672e-01)) ((2.816952e-02 8.676721e-03 -5.724470e-03) (1.580769e+00 7.452149e-03 -1.901732e+00))
0.684617      	((1.579811e+03 -4.148715e+03 1.324381e+03) (-3.429173e-01 -8.595561e+02 -3.226355e-01)) ((3.126338e-02 8.111467e-03 -5.477596e-03) (1.784648e+00 7.565988e-03 -2.142842e+00))
0.700635      	((1.775915e+03 -4.164953e+03 1.489261e+03) (-3.705197e-01 -8.595663e+02 -3.502848e-01)) ((3.446483e-02 7.515847e-03 -5.010283e-03) (2.007499e+00 7.765720e-03 -2.406307e+00))
0.716648      	((1.992575e+03 -4.185068e+03 1.670380e+03) (-3.924223e-01 -8.596061e+02 -3.724180e-01)) ((3.776145e-02 6.909286e-03 -4.082633e-03) (2.249770e+00 7.739992e-03 -2.693145e+00))
0.732656      	((2.230271e+03 -4.211989e+03 1.869035e+03) (-4.065296e-01 -8.596850e+02 -3.859909e-01)) ((4.083192e-02 6.313734e-03 -2.716397e-03) (2.511318e+00 7.478602e-03 -3.004742e+00))
0.748658      	((2.490170e+03 -4.246845e+03 2.085839e+03) (-4.090766e-01 -8.598104e+02 -3.887774e-01)) ((4.406974e-02 5.515363e-03 -1.039295e-03) (2.792776e+00 7.133340e-03 -3.341838e+00))
0.764654      	((2.774937e+03 -4.290326e+03 2.320816e+03) (-3.948828e-01 -8.599895e+02 -3.799162e-01)) ((4.778832e-02 4.496622e-03 8.106519e-04) (3.095305e+00 6.651520e-03 -3.704211e+00))
0.780644      	((3.080454e+03 -4.344731e+03 2.574696e+03) (-3.596558e-01 -8.602294e+02 -3.544923e-01)) ((5.166834e-02 3.566042e-03 3.000505e-03) (3.417872e+00 6.115539e-03 -4.092248e+00))
0.796626      	((3.404723e+03 -4.410051e+03 2.843336e+03) (-3.009439e-01 -8.605370e+02 -3.064841e-01)) ((5.607241e-02 2.214913e-03 5.234949e-03) (3.758443e+00 6.151210e-03 -4.504469e+00))
0.812601      	((3.741580e+03 -4.487301e+03 3.121233e+03) (-2.117100e-01 -8.609127e+02 -2.317968e-01)) ((6.032890e-02 4.681330e-04 7.812771e-03) (4.112947e+00 6.673477e-03 -4.935397e+00))
0.828567      	((4.082803e+03 -4.583603e+03 3.403308e+03) (-9.247282e-02 -8.613501e+02 -1.241460e-01)) ((6.257451e-02 -1.486396e-03 1.202841e-02) (4.474229e+00 7.629645e-03 -5.379972e+00))
0.844524      	((4.413107e+03 -4.702620e+03 3.672695e+03) (5.105884e-02 -8.618457e+02 1.381604e-02)) ((6.265130e-02 -3.142228e-03 1.831854e-02) (4.835407e+00 9.534238e-03 -5.830809e+00))
0.860472      	((4.723309e+03 -4.836583e+03 3.920297e+03) (2.143768e-01 -8.623946e+02 1.748581e-01)) ((5.989588e-02 -5.583859e-03 2.720004e-02) (5.189164e+00 1.219820e-02 -6.279993e+00))
0.876411      	((4.991886e+03 -4.993675e+03 4.135917e+03) (3.871091e-01 -8.629903e+02 3.482531e-01)) ((5.474475e-02 -7.539282e-03 3.714899e-02) (5.527876e+00 1.530368e-02 -6.718625e+00))
0.89234       	((5.202139e+03 -5.152073e+03 4.298354e+03) (5.499129e-01 -8.636360e+02 5.139442e-01)) ((4.647518e-02 -8.003624e-03 4.913869e-02) (5.842764e+00 1.822676e-02 -7.133692e+00))
0.90826       	((5.329559e+03 -5.301966e+03 4.389237e+03) (6.874685e-01 -8.643308e+02 6.563702e-01)) ((3.517642e-02 -6.858520e-03 6.229386e-02) (6.117577e+00 2.015126e-02 -7.503846e+00))
0.924172      	((5.365258e+03 -5.420297e+03 4.398433e+03) (7.922259e-01 -8.650627e+02 7.704187e-01)) ((2.310259e-02 -3.878886e-03 7.439419e-02) (6.331419e+00 2.094023e-02 -7.805874e+00))
0.940077      	((5.314615e+03 -5.510179e+03 4.337108e+03) (8.558615e-01 -8.658049e+02 8.544615e-01)) ((1.336343e-02 -2.915739e-04 8.189438e-02) (6.468410e+00 2.095071e-02 -8.022762e+00))
0.955977      	((5.197986e+03 -5.567839e+03 4.221406e+03) (8.620849e-01 -8.665188e+02 9.055123e-01)) ((7.959474e-03 2.705399e-03 8.469673e-02) (6.525042e+00 2.097663e-02 -8.154043e+00))
0.971872      	((5.045551e+03 -5.593031e+03 4.074701e+03) (8.126350e-01 -8.671485e+02 9.124320e-01)) ((8.753820e-03 4.574753e-03 8.269584e-02) (6.516144e+00 2.088154e-02 -8.211907e+00))
0.987765      	((4.884791e+03 -5.598481e+03 3.924517e+03) (7.085386e-01 -8.676703e+02 8.668398e-01)) ((1.441245e-02 5.462079e-03 7.556959e-02) (6.462368e+00 2.120575e-02 -8.212580e+00))
1.003657      	((4.749151e+03 -5.583603e+03 3.787113e+03) (5.589977e-01 -8.680882e+02 7.808495e-01)) ((2.239826e-02 3.964703e-03 6.686654e-02) (6.379610e+00 2.064740e-02 -8.176803e+00))
1.01955       	((4.649612e+03 -5.558319e+03 3.680187e+03) (4.017510e-01 -8.684089e+02 6.701754e-01)) ((3.130758e-02 -1.031965e-03 6.359344e-02) (6.286006e+00 1.853708e-02 -8.123041e+00))
1.035444      	((4.587448e+03 -5.531549e+03 3.607747e+03) (2.662945e-01 -8.686509e+02 5.597128e-01)) ((3.716961e-02 -8.546626e-03 6.526753e-02) (6.193527e+00 1.632699e-02 -8.062314e+00))
1.051339      	((4.563266e+03 -5.498709e+03 3.566892e+03) (1.699567e-01 -8.688482e+02 4.773244e-01)) ((4.026239e-02 -1.572254e-02 6.722639e-02) (6.104579e+00 1.474094e-02 -7.997263e+00))
1.067237      	((4.557459e+03 -5.459669e+03 3.546188e+03) (1.425225e-01 -8.690326e+02 4.465021e-01)) ((4.213265e-02 -2.107911e-02 6.590428e-02) (6.014827e+00 1.312990e-02 -7.921589e+00))
1.083137      	((4.552172e+03 -5.434615e+03 3.528400e+03) (1.913540e-01 -8.692262e+02 4.693795e-01)) ((4.300090e-02 -2.470286e-02 6.410780e-02) (5.922209e+00 1.096622e-02 -7.833169e+00))
1.099039      	((4.529135e+03 -5.413217e+03 3.497375e+03) (2.820037e-01 -8.694346e+02 5.185418e-01)) ((4.320562e-02 -2.709094e-02 6.268982e-02) (5.831561e+00 7.317938e-03 -7.735943e+00))
1.114943      	((4.478780e+03 -5.394709e+03 3.444045e+03) (3.691690e-01 -8.696506e+02 5.553015e-01)) ((4.179164e-02 -2.780094e-02 6.157096e-02) (5.747665e+00 1.305468e-03 -7.635310e+00))
1.130848      	((4.402008e+03 -5.377391e+03 3.369345e+03) (4.209030e-01 -8.698465e+02 5.549991e-01)) ((3.930148e-02 -2.762759e-02 6.113498e-02) (5.671628e+00 -6.253992e-03 -7.538092e+00))
1.146755      	((4.307493e+03 -5.372525e+03 3.287837e+03) (4.191633e-01 -8.699975e+02 5.111032e-01)) ((3.638227e-02 -2.677912e-02 6.110115e-02) (5.605655e+00 -1.368345e-02 -7.448759e+00))
1.162663      	((4.214724e+03 -5.373988e+03 3.208752e+03) (3.578531e-01 -8.701001e+02 4.224885e-01)) ((3.320497e-02 -2.565001e-02 5.988333e-02) (5.552683e+00 -2.026185e-02 -7.371365e+00))
1.178574      	((4.137593e+03 -5.369309e+03 3.145647e+03) (2.483065e-01 -8.701533e+02 2.972182e-01)) ((3.036989e-02 -2.467208e-02 5.790236e-02) (5.514613e+00 -2.548781e-02 -7.309273e+00))
1.194486      	((4.090700e+03 -5.362452e+03 3.107212e+03) (1.189262e-01 -8.701588e+02 1.592084e-01)) ((2.887299e-02 -2.517975e-02 5.605630e-02) (5.491057e+00 -2.988143e-02 -7.263297e+00))
1.2104        	((4.076471e+03 -5.353364e+03 3.091953e+03) (-9.365743e-04 -8.701198e+02 3.253238e-02)) ((2.936677e-02 -2.731789e-02 5.373923e-02) (5.479999e+00 -3.354227e-02 -7.232615e+00))
1.226317      	((4.085756e+03 -5.349091e+03 3.097051e+03) (-8.473647e-02 -8.700532e+02 -5.818434e-02)) ((3.112117e-02 -3.039610e-02 5.126844e-02) (5.473961e+00 -3.569019e-02 -7.209766e+00))
1.242235      	((4.109026e+03 -5.353170e+03 3.114754e+03) (-1.187135e-01 -8.699731e+02 -9.848269e-02)) ((3.345488e-02 -3.369760e-02 4.932380e-02) (5.467607e+00 -3.602428e-02 -7.190251e+00))
1.258155      	((4.131604e+03 -5.367036e+03 3.135017e+03) (-1.084855e-01 -8.698847e+02 -9.266041e-02)) ((3.536400e-02 -3.639120e-02 4.825555e-02) (5.459917e+00 -3.477471e-02 -7.174214e+00))
1.274077      	((4.147686e+03 -5.394545e+03 3.149664e+03) (-7.333298e-02 -8.697876e+02 -5.700021e-02)) ((3.641858e-02 -3.853841e-02 4.819754e-02) (5.452842e+00 -3.294311e-02 -7.162955e+00))
1.29          	((4.149574e+03 -5.423959e+03 3.147769e+03) (-3.657400e-02 -8.696768e+02 -1.265015e-02)) ((3.611681e-02 -3.987625e-02 4.897776e-02) (5.447295e+00 -3.109601e-02 -7.158810e+00))
1.305923      	((4.130327e+03 -5.448598e+03 3.127786e+03) (-2.331373e-02 -8.695472e+02 1.443342e-02)) ((3.429569e-02 -4.017261e-02 5.002733e-02) (5.444706e+00 -3.023074e-02 -7.163958e+00))
1.321848      	((4.094486e+03 -5.467054e+03 3.091262e+03) (-4.776401e-02 -8.693962e+02 1.078954e-02)) ((3.147225e-02 -3.944664e-02 5.089013e-02) (5.444100e+00 -3.116510e-02 -7.176656e+00))
1.337773      	((4.048435e+03 -5.478822e+03 3.043896e+03) (-1.110621e-01 -8.692252e+02 -2.311990e-02)) ((2.896725e-02 -3.857005e-02 5.104586e-02) (5.441896e+00 -3.378877e-02 -7.191721e+00))
1.353699      	((3.999561e+03 -5.483515e+03 2.991509e+03) (-2.022814e-01 -8.690309e+02 -7.928916e-02)) ((2.792430e-02 -3.812514e-02 5.098905e-02) (5.434528e+00 -3.745743e-02 -7.204978e+00))
1.369626      	((3.957081e+03 -5.482326e+03 2.941706e+03) (-3.064179e-01 -8.688070e+02 -1.453698e-01)) ((2.844219e-02 -3.843215e-02 5.086757e-02) (5.420188e+00 -4.163521e-02 -7.215654e+00))
1.385555      	((3.925801e+03 -5.481404e+03 2.900047e+03) (-4.100727e-01 -8.685527e+02 -2.074898e-01)) ((2.959920e-02 -3.898290e-02 5.069928e-02) (5.398756e+00 -4.538822e-02 -7.223663e+00))
1.401485      	((3.909267e+03 -5.483878e+03 2.868433e+03) (-5.005382e-01 -8.682765e+02 -2.530008e-01)) ((3.143528e-02 -4.005851e-02 5.079542e-02) (5.370723e+00 -4.784896e-02 -7.229897e+00))
1.417418      	((3.904932e+03 -5.488422e+03 2.844778e+03) (-5.691482e-01 -8.679899e+02 -2.756688e-01)) ((3.332800e-02 -4.173309e-02 5.166610e-02) (5.336647e+00 -4.903048e-02 -7.234833e+00))
1.433352      	((3.909894e+03 -5.494963e+03 2.826068e+03) (-6.096470e-01 -8.677035e+02 -2.744924e-01)) ((3.431947e-02 -4.375001e-02 5.342830e-02) (5.297164e+00 -4.995689e-02 -7.238841e+00))
