# Forces      
# CofR        : (0.000000e+00 0.000000e+00 0.000000e+00)
# Time        forces(pressure viscous)	moments(pressure viscous)
0             	((0.000000e+00 0.000000e+00 0.000000e+00) (0.000000e+00 0.000000e+00 0.000000e+00)) ((0.000000e+00 0.000000e+00 0.000000e+00) (0.000000e+00 0.000000e+00 0.000000e+00))
0.012         	((-1.256375e-06 -3.097733e-05 5.814435e-08) (-1.537333e-10 -2.534423e-09 -5.025745e-11)) ((6.286250e-08 5.997323e-10 -1.801822e-05) (-5.836367e-10 2.832244e-11 -9.531848e-04))
0.0264        	((-5.326660e-06 2.506901e-05 4.492777e-09) (-2.348070e-10 -3.471483e-09 -8.972109e-12)) ((2.758742e-08 1.101378e-09 -7.921670e-06) (-6.241460e-10 4.050018e-11 -9.522661e-04))
0.04368       	((-1.531413e-06 -1.820270e-05 6.222437e-07) (-2.470729e-12 -3.811503e-09 1.007357e-10)) ((3.026034e-08 8.006892e-11 -4.129777e-06) (-9.237771e-10 -6.750635e-13 -9.511837e-04))
0.064416      	((-6.705470e-06 7.744392e-06 5.856268e-07) (3.455723e-10 -4.090241e-09 8.668306e-11)) ((1.503559e-08 1.010858e-09 -1.862044e-06) (-1.608652e-09 -5.070859e-11 -9.498893e-04))
0.0892992     	((1.156599e-06 -5.112987e-06 -3.279481e-07) (7.386594e-10 -4.651435e-09 6.054941e-11)) ((1.438717e-08 8.423390e-12 -1.219937e-06) (-2.269905e-09 -7.047622e-11 -9.483394e-04))
0.119159      	((-2.699382e-06 -1.314360e-06 4.075065e-07) (1.364721e-09 -5.188831e-09 2.832107e-10)) ((7.073232e-09 -2.273737e-10 -8.159843e-07) (-2.644545e-09 -1.076452e-10 -9.464860e-04))
0.154991      	((-2.670285e-08 -8.037266e-07 -5.336690e-09) (2.130039e-09 -5.312310e-09 6.608664e-10)) ((1.686293e-09 -3.804644e-10 -6.664694e-07) (-2.557906e-09 -1.889343e-10 -9.442702e-04))
0.197989      	((-5.582644e-07 -1.056014e-06 4.311865e-07) (2.869696e-09 -5.207024e-09 9.497737e-10)) ((1.820686e-09 -2.740988e-10 -5.583228e-07) (-2.083501e-09 -2.630822e-10 -9.416223e-04))
0.249587      	((-7.156571e-07 -6.373727e-07 2.114525e-07) (3.420139e-09 -5.002938e-09 1.115534e-09)) ((2.681766e-09 -4.430831e-10 -4.831946e-07) (-1.427311e-09 -3.350284e-10 -9.384601e-04))
0.311504      	((7.882243e-08 -4.505971e-07 5.321403e-07) (3.645632e-09 -4.813127e-09 1.252741e-09)) ((2.736103e-09 -1.474782e-10 -4.198367e-07) (-5.325779e-10 -3.919767e-10 -9.346873e-04))
0.385805      	((1.621309e-08 -3.726799e-07 2.973636e-07) (3.686422e-09 -4.718867e-09 1.288439e-09)) ((2.254153e-09 -1.657921e-10 -3.654806e-07) (5.640040e-10 -3.821210e-10 -9.301918e-04))
0.474966      	((1.463178e-08 -3.657420e-07 2.627696e-07) (3.671232e-09 -4.687245e-09 1.198488e-09)) ((1.884377e-09 -2.162345e-10 -3.192326e-07) (1.769916e-09 -3.215445e-10 -9.248432e-04))
0.581959      	((3.223408e-08 -1.214649e-07 1.483688e-07) (3.673787e-09 -4.610784e-09 1.049173e-09)) ((1.694108e-09 -1.635374e-10 -2.797570e-07) (2.911890e-09 -2.359086e-10 -9.184912e-04))
0.710351      	((9.508678e-08 -1.495537e-07 1.005433e-07) (3.656475e-09 -4.434816e-09 8.730316e-10)) ((1.491968e-09 7.942737e-11 -2.444706e-07) (3.816834e-09 -1.450958e-10 -9.109643e-04))
0.864421      	((-2.338203e-07 -2.388408e-07 -8.509702e-08) (3.534985e-09 -4.098495e-09 6.828913e-10)) ((1.404047e-09 7.096073e-11 -2.120248e-07) (4.505062e-09 -4.815431e-11 -9.020687e-04))
1.049306      	((-1.760766e-07 -2.486396e-07 -7.654867e-08) (3.359801e-09 -3.649418e-09 5.101839e-10)) ((1.368508e-09 2.572224e-10 -1.810292e-07) (5.003764e-09 4.598225e-11 -8.915897e-04))
1.271167      	((-3.099156e-07 -2.418732e-07 -4.462448e-08) (3.280327e-09 -3.147495e-09 3.403638e-10)) ((1.615702e-09 2.396548e-10 -1.511036e-07) (5.347349e-09 1.040180e-10 -8.792947e-04))
1.5374        	((-3.067454e-07 -1.592873e-07 -1.999959e-08) (3.228185e-09 -2.602583e-09 1.025688e-10)) ((1.847294e-09 1.213794e-10 -1.270857e-07) (5.624012e-09 1.059936e-10 -8.649405e-04))
1.85688       	((-3.509158e-07 -2.049567e-07 -3.084725e-08) (3.180393e-09 -2.087605e-09 -1.617750e-10)) ((1.725319e-09 -1.595305e-10 -1.100443e-07) (5.880943e-09 3.412650e-11 -8.482846e-04))
2.240256      	((-1.251851e-07 -1.337562e-07 6.855987e-08) (3.012596e-09 -1.675615e-09 -3.923623e-10)) ((1.459972e-09 -1.843633e-11 -9.890424e-08) (6.072886e-09 -1.839086e-10 -8.291032e-04))
2.700307      	((-1.934452e-07 -8.233291e-08 4.764310e-09) (2.797973e-09 -1.282029e-09 -5.624297e-10)) ((1.297767e-09 2.633075e-11 -9.131745e-08) (6.194398e-09 -4.894735e-10 -8.072162e-04))
3.252369      	((-6.235741e-08 -6.034274e-08 -1.566012e-08) (2.638211e-09 -8.872897e-10 -6.880139e-10)) ((1.241909e-09 -5.658578e-11 -8.604909e-08) (6.273070e-09 -7.147283e-10 -7.825231e-04))
3.914842      	((-1.243865e-07 -5.280400e-08 1.047662e-08) (2.428165e-09 -4.874118e-10 -8.166780e-10)) ((1.136004e-09 -7.024374e-11 -8.199608e-08) (6.210205e-09 -7.616985e-10 -7.550460e-04))
4.709811      	((-5.875712e-08 8.784822e-10 -2.338986e-08) (1.913673e-09 -4.662830e-10 -1.027648e-09)) ((1.047973e-09 -1.298497e-10 -7.845848e-08) (5.792195e-09 -8.095817e-10 -7.249740e-04))
5.663773      	((-7.542399e-08 -1.880608e-08 -5.976610e-10) (1.555794e-09 -6.921581e-10 -1.437554e-09)) ((9.288600e-10 -1.377688e-10 -7.487711e-08) (4.919124e-09 -6.382459e-10 -6.926966e-04))
6.808528      	((1.689921e-09 2.329989e-08 -1.655757e-08) (1.384930e-09 -2.302996e-09 -1.675920e-09)) ((7.913740e-10 -1.171486e-10 -7.092926e-08) (3.529475e-09 -8.441642e-11 -6.588040e-04))
8.182233      	((-3.198869e-08 -1.237503e-09 -7.457883e-10) (1.118778e-09 -1.717338e-09 -1.537347e-09)) ((6.781094e-10 -4.261612e-11 -6.691826e-08) (2.284135e-09 6.790531e-10 -6.240683e-04))
9.83068       	((7.869907e-08 -2.191561e-08 -3.858834e-10) (-3.366692e-10 -5.643051e-10 -1.151477e-09)) ((6.142711e-10 4.543735e-11 -6.279530e-08) (1.869339e-09 1.247801e-09 -5.893100e-04))
11.808816     	((-5.684383e-08 -1.831053e-09 9.054353e-09) (-2.818194e-09 4.814439e-10 -8.669779e-10)) ((4.382494e-10 5.427848e-11 -5.850866e-08) (1.210361e-09 1.120820e-09 -5.552342e-04))
14.182579     	((3.061654e-08 -4.259604e-08 1.504546e-08) (-3.616166e-09 2.003555e-09 -5.519534e-10)) ((3.068028e-10 8.111895e-11 -5.361556e-08) (3.218121e-11 4.691900e-10 -5.222657e-04))
17.031095     	((-9.131044e-08 -4.033211e-09 2.155590e-08) (-4.867567e-09 3.379809e-09 -1.907442e-11)) ((3.286379e-10 -2.904587e-11 -4.767209e-08) (-1.658645e-09 -8.523320e-10 -4.901505e-04))
20.449314     	((-5.363542e-08 1.044780e-08 -2.471335e-09) (-7.764830e-09 4.532210e-09 1.223840e-09)) ((3.041142e-10 4.349879e-11 -4.097189e-08) (-3.175864e-09 -4.937358e-10 -4.580605e-04))
24.551176     	((-1.303433e-07 3.525251e-09 2.655897e-08) (-1.227798e-08 3.685790e-09 1.412090e-09)) ((2.980023e-10 1.380494e-10 -3.472788e-08) (-4.302374e-09 1.176910e-10 -4.256253e-04))
29.473411     	((-1.123054e-07 -5.724570e-09 5.498510e-09) (-1.628216e-08 3.384267e-09 1.003122e-09)) ((1.813126e-10 1.642492e-11 -2.937877e-08) (-4.681095e-09 1.200098e-10 -3.931913e-04))
35.380094     	((-8.681659e-08 2.043994e-08 1.012835e-09) (-1.856400e-08 6.718107e-09 -2.264708e-10)) ((2.127901e-10 7.379433e-11 -2.591471e-08) (-4.040666e-09 3.827664e-10 -3.614001e-04))
42.468112     	((-5.036618e-08 4.760759e-08 -2.203857e-08) (-2.438699e-08 7.887702e-09 -3.129809e-09)) ((2.040268e-10 5.811606e-12 -2.328382e-08) (-3.978927e-09 9.241932e-10 -3.309075e-04))
50.973735     	((-5.823657e-08 6.303379e-08 -2.617889e-08) (-2.195767e-08 8.735346e-09 -3.693298e-09)) ((2.299791e-10 -1.707757e-11 -2.070934e-08) (-4.372024e-09 7.383867e-10 -3.021045e-04))
61.180482     	((-1.105374e-07 5.676315e-08 -1.857174e-08) (-1.303848e-08 9.769694e-09 -4.005861e-09)) ((1.818569e-10 -6.035269e-12 -1.833240e-08) (-4.859356e-09 2.432826e-10 -2.750407e-04))
73.428578     	((1.515424e-08 1.497813e-07 6.522915e-09) (-1.695015e-08 1.914113e-08 -4.794044e-09)) ((2.187692e-10 4.468755e-11 -1.551817e-08) (-4.184154e-09 -5.410851e-10 -2.497474e-04))
88.126294     	((7.964198e-09 2.289990e-07 1.115985e-09) (-5.744749e-09 2.236728e-08 3.368948e-11)) ((2.545652e-10 -3.493584e-11 -1.192446e-08) (-3.263799e-09 -3.663663e-10 -2.262984e-04))
105.763553    	((7.720609e-08 3.376485e-07 3.783367e-08) (-5.440169e-09 2.590341e-08 5.234757e-09)) ((2.989068e-10 -2.055694e-11 -8.414528e-09) (-3.004134e-09 -2.694165e-10 -2.049709e-04))
126.928263    	((1.234707e-07 3.197952e-07 2.519267e-08) (-6.217633e-09 2.848474e-08 5.179429e-09)) ((2.571172e-10 1.409319e-11 -5.432881e-09) (-3.958090e-09 -5.963194e-10 -1.861227e-04))
152.325916    	((1.295726e-07 2.731735e-07 1.811580e-08) (2.155492e-09 3.868451e-08 1.322468e-09)) ((2.011022e-10 4.924639e-11 -2.990343e-09) (-3.263503e-09 2.067671e-11 -1.698286e-04))
182.803099    	((1.978263e-07 2.935281e-07 1.254448e-08) (-1.540922e-08 3.361803e-08 -3.918756e-10)) ((2.245324e-10 -4.761151e-11 -1.157961e-09) (3.073874e-11 1.314713e-09 -1.559266e-04))
219.375719    	((1.495227e-07 1.746821e-07 3.341665e-08) (-3.363298e-08 1.720468e-08 -7.970622e-09)) ((2.602934e-10 -1.001890e-10 -2.022919e-10) (3.095390e-09 2.315672e-09 -1.441243e-04))
263.262863    	((2.847944e-07 9.682146e-08 2.438996e-08) (9.015832e-09 7.000974e-08 -8.472282e-09)) ((2.030719e-10 -1.031670e-10 4.051982e-10) (4.737768e-09 4.148572e-09 -1.340418e-04))
315.927436    	((2.247320e-07 1.526519e-07 6.242472e-08) (-1.797159e-09 1.162201e-07 -1.017875e-08)) ((1.953083e-10 -1.193434e-10 7.445679e-10) (6.842565e-09 6.899720e-09 -1.253217e-04))
379.124923    	((3.211497e-07 6.570933e-08 3.472557e-08) (3.614440e-10 1.362757e-07 -5.824355e-09)) ((1.516514e-10 -1.271013e-10 1.108527e-09) (1.076320e-08 7.287433e-09 -1.176875e-04))
454.961908    	((3.209252e-07 1.536874e-07 3.353615e-08) (5.407777e-08 1.760202e-07 -5.804466e-09)) ((1.106669e-10 -1.116472e-10 1.566606e-09) (1.361107e-08 6.278923e-09 -1.109908e-04))
544.114074    	((3.604205e-07 1.701976e-07 -3.524358e-08) (1.138951e-07 1.913874e-07 -2.066978e-08)) ((7.742164e-11 -1.304078e-10 1.876588e-09) (1.462888e-08 3.802615e-09 -1.051912e-04))
646.773047    	((3.398328e-07 2.232892e-07 -7.911243e-08) (1.217256e-07 1.572979e-07 -2.744222e-08)) ((1.078221e-10 -1.533549e-10 1.934130e-09) (1.393767e-08 3.593048e-10 -1.002212e-04))
763.174197    	((1.986277e-07 1.962093e-07 -9.343246e-08) (5.968592e-08 1.223006e-07 -2.526905e-08)) ((9.444316e-11 -1.810538e-10 2.004093e-09) (1.198077e-08 -2.200329e-09 -9.603119e-05))
893.597498    	((2.307589e-07 1.926854e-07 -8.259729e-08) (3.763765e-09 1.105839e-07 -1.604717e-08)) ((7.078394e-11 -1.747796e-10 1.989736e-09) (1.022869e-08 -4.129434e-09 -9.264285e-05))
1036.939276   	((2.082194e-07 1.251400e-07 -8.794061e-08) (-7.970997e-09 1.233682e-07 -1.604723e-08)) ((5.832826e-11 -1.470390e-10 1.835736e-09) (9.068021e-09 -6.812755e-09 -9.006970e-05))
1183.950989   	((1.922239e-07 1.197142e-07 -9.663032e-08) (-2.138165e-08 1.080532e-07 -8.566173e-09)) ((5.172562e-11 -1.586536e-10 1.619554e-09) (7.271486e-09 -1.084026e-08 -8.830723e-05))
1334.320351   	((2.546644e-07 8.019342e-08 -4.912247e-08) (-8.465250e-09 1.011858e-07 -1.109095e-09)) ((2.559736e-11 -1.492316e-10 1.282055e-09) (5.374116e-09 -1.382816e-08 -8.722655e-05))
1487.691469   	((2.658999e-07 9.694181e-08 -2.085980e-08) (-1.046204e-08 8.996953e-08 1.018019e-08)) ((1.501946e-11 -1.566581e-10 9.503257e-10) (2.709135e-09 -1.462464e-08 -8.678090e-05))
1641.051955   	((2.550554e-07 5.771054e-08 -3.241719e-09) (6.931891e-09 9.825669e-08 1.555527e-08)) ((1.166416e-11 -1.358419e-10 7.525335e-10) (4.516436e-10 -1.324171e-08 -8.694427e-05))
1793.652972   	((2.726855e-07 9.666686e-08 6.931621e-09) (-6.958849e-09 1.017027e-07 2.075083e-08)) ((3.433526e-11 -1.391161e-10 5.887866e-10) (-6.064889e-10 -1.059013e-08 -8.768377e-05))
1944.809609   	((3.628915e-07 1.306721e-07 2.006949e-08) (-1.043384e-08 7.398651e-08 2.179934e-08)) ((4.528615e-11 -1.429674e-10 4.363457e-10) (7.007784e-10 -8.171700e-09 -8.896252e-05))
2094.105137   	((4.338136e-07 1.778567e-07 7.570823e-10) (2.643914e-09 4.466869e-08 2.098740e-08)) ((6.156720e-11 -1.410452e-10 3.645309e-10) (3.049220e-09 -6.317193e-09 -9.070744e-05))
2241.272271   	((3.803692e-07 2.137205e-07 -4.815228e-09) (1.673045e-08 1.518200e-08 1.880842e-08)) ((9.271936e-11 -1.611325e-10 2.996213e-10) (6.017236e-09 -5.229215e-09 -9.284118e-05))
2386.288084   	((2.048191e-07 1.880080e-07 -1.277655e-08) (2.537929e-08 -2.131252e-09 1.697258e-08)) ((1.195840e-10 -1.643496e-10 2.558878e-10) (8.792380e-09 -6.136062e-09 -9.523407e-05))
2529.263375   	((2.992094e-08 1.785579e-07 -6.083493e-08) (3.872403e-08 -3.005959e-09 1.366096e-08)) ((1.327506e-10 -1.829802e-10 3.735237e-10) (1.022371e-08 -8.549749e-09 -9.766361e-05))
2670.423773   	((-1.671960e-07 1.926118e-07 -3.235456e-09) (2.511835e-08 -6.866551e-09 1.804764e-08)) ((1.440340e-10 -1.854722e-10 4.298167e-10) (1.077207e-08 -1.135855e-08 -9.988504e-05))
2810.102472   	((-2.807332e-07 2.350215e-07 1.174628e-08) (-1.600913e-08 -2.377708e-08 2.396167e-08)) ((1.243736e-10 -1.710183e-10 3.147080e-10) (9.679953e-09 -1.362151e-08 -1.016828e-04))
2947.550966   	((-2.405438e-07 1.571476e-07 -2.888915e-08) (-1.544738e-08 -4.477989e-09 2.410183e-08)) ((1.151714e-10 -1.555017e-10 2.302527e-10) (7.383009e-09 -1.448295e-08 -1.029257e-04))
3081.941259   	((-1.694232e-07 2.192016e-07 -3.989034e-08) (5.171283e-09 2.257343e-08 2.732650e-08)) ((1.191711e-10 -1.479866e-10 2.200075e-10) (4.744982e-09 -1.401238e-08 -1.036000e-04))
3213.943387   	((-2.162845e-07 1.458458e-07 -9.609117e-08) (2.050511e-08 5.186392e-08 2.637385e-08)) ((1.257645e-10 -1.504377e-10 4.205517e-10) (2.066897e-09 -1.246374e-08 -1.037872e-04))
3344.130095   	((-2.170117e-07 5.048916e-09 -1.006981e-07) (1.568919e-08 3.690044e-08 2.431497e-08)) ((1.235986e-10 -1.308142e-10 5.407539e-10) (1.517941e-10 -9.869646e-09 -1.036168e-04))
3472.988624   	((-8.009571e-08 -3.231667e-08 -1.322261e-08) (1.581985e-08 3.574681e-08 2.711790e-08)) ((9.579709e-11 -8.177464e-11 6.251344e-10) (-1.072807e-09 -7.095686e-09 -1.032071e-04))
3601.032185   	((5.614169e-09 -3.421237e-08 5.469132e-08) (2.414885e-08 4.522755e-08 3.148698e-08)) ((7.923991e-11 -5.429855e-11 6.694155e-10) (-1.422485e-09 -4.010405e-09 -1.026666e-04))
3728.632046   	((3.983618e-08 -5.068416e-08 2.944955e-08) (4.410168e-08 5.481030e-08 3.098148e-08)) ((8.052477e-11 -5.545044e-11 7.003645e-10) (-1.365099e-09 -1.086552e-11 -1.020865e-04))
