# Forces      
# CofR        : (0.000000e+00 0.000000e+00 0.000000e+00)
# Time        forces(pressure viscous)	moments(pressure viscous)
0             	((0.000000e+00 0.000000e+00 0.000000e+00) (0.000000e+00 0.000000e+00 0.000000e+00)) ((0.000000e+00 0.000000e+00 0.000000e+00) (0.000000e+00 0.000000e+00 0.000000e+00))
0.012         	((1.157869e-04 -1.243082e-05 -2.256228e-03) (4.552507e-08 -3.272433e-08 -1.039435e-06)) ((2.710605e-08 1.575415e-03 -6.654232e-08) (-9.620958e-09 1.949684e-01 -1.754621e-09))
0.0264        	((-7.306250e-04 -3.594244e-05 2.400020e-03) (-1.512057e-07 -6.772931e-08 -1.460892e-06)) ((2.925498e-08 7.925695e-04 -6.175751e-08) (-8.440803e-09 1.943998e-01 4.125771e-09))
0.04368       	((4.223864e-04 1.578944e-04 -4.822826e-04) (-5.241633e-07 -8.034043e-08 -1.552679e-06)) ((6.349098e-08 5.411796e-04 8.393257e-09) (6.646334e-09 1.934791e-01 1.957302e-08))
0.064416      	((-4.581866e-04 -6.087884e-05 5.018817e-04) (-8.786002e-07 -5.187274e-08 -1.636005e-06)) ((-1.911134e-08 4.009258e-04 -3.740024e-08) (2.814989e-08 1.923899e-01 2.611650e-08))
0.0892992     	((-7.312256e-05 -3.569478e-06 -1.100124e-04) (-1.257124e-06 1.535283e-08 -1.725014e-06)) ((2.467741e-08 3.712120e-04 -4.403470e-09) (5.438430e-08 1.911021e-01 1.840102e-08))
0.119159      	((1.447784e-05 -3.186366e-05 1.009818e-04) (-1.617802e-06 1.038484e-07 -1.880541e-06)) ((1.351145e-08 3.422286e-04 -1.469722e-08) (7.884695e-08 1.895845e-01 5.350571e-09))
0.154991      	((9.488760e-05 -7.870582e-05 -1.237667e-05) (-1.938936e-06 1.780152e-07 -1.982976e-06)) ((1.714236e-08 3.280786e-04 -1.225022e-08) (9.599254e-08 1.878047e-01 -3.340357e-09))
0.197989      	((8.361247e-05 -2.488755e-05 1.837900e-04) (-2.217842e-06 2.531374e-07 -1.955216e-06)) ((8.865443e-09 3.125718e-04 -1.749447e-08) (1.067498e-07 1.857322e-01 -1.597272e-09))
0.249587      	((4.484043e-05 -5.020119e-05 1.590138e-04) (-2.429159e-06 3.442022e-07 -1.971706e-06)) ((-1.059842e-08 2.997463e-04 -2.232313e-08) (1.168692e-07 1.833429e-01 4.654709e-09))
0.311504      	((2.961773e-05 -2.912569e-05 1.697856e-04) (-2.566394e-06 4.026824e-07 -2.307775e-06)) ((-1.029120e-08 2.867669e-04 -5.906176e-09) (1.479950e-07 1.806248e-01 2.950727e-08))
0.385805      	((-3.785964e-05 -9.465365e-06 1.559444e-04) (-2.619867e-06 4.096598e-07 -3.095944e-06)) ((3.390556e-08 2.744713e-04 -2.233534e-08) (1.957314e-07 1.775861e-01 7.419789e-08))
0.474966      	((-9.232877e-06 -2.447661e-05 9.067003e-05) (-2.721013e-06 3.750835e-07 -4.189722e-06)) ((3.859264e-08 2.615371e-04 -1.992084e-08) (2.294324e-07 1.742633e-01 1.132513e-07))
0.581959      	((1.164634e-05 -1.733749e-05 8.715429e-05) (-2.940739e-06 2.844307e-07 -5.404357e-06)) ((4.119025e-08 2.483834e-04 -1.483851e-08) (2.328050e-07 1.707256e-01 1.421939e-07))
0.710351      	((1.800700e-05 -9.526297e-07 1.334399e-04) (-3.124048e-06 1.859258e-07 -6.534351e-06)) ((2.516352e-08 2.343173e-04 -6.246261e-09) (2.273794e-07 1.670688e-01 1.536922e-07))
0.864421      	((-1.702500e-05 -4.516825e-06 6.426463e-05) (-3.144800e-06 1.033603e-07 -7.407858e-06)) ((2.117966e-08 2.206365e-04 -2.353283e-09) (2.201787e-07 1.633925e-01 1.481237e-07))
1.049306      	((-1.258655e-05 6.916207e-06 5.319106e-05) (-2.994343e-06 3.685593e-08 -8.134998e-06)) ((1.456357e-08 2.085076e-04 -1.991404e-09) (2.184898e-07 1.597653e-01 1.429193e-07))
1.271167      	((-1.191726e-04 1.590290e-05 2.254315e-05) (-2.791701e-06 -1.341754e-09 -9.079313e-06)) ((1.937553e-08 1.973963e-04 -7.048543e-09) (2.270735e-07 1.561940e-01 1.231104e-07))
1.5374        	((-1.084346e-04 6.707827e-06 8.473758e-05) (-3.087271e-06 -5.333644e-08 -9.628357e-06)) ((8.591304e-09 1.858085e-04 -1.162060e-08) (2.465175e-07 1.525064e-01 8.910144e-08))
1.85688       	((6.475341e-05 7.688607e-06 1.658872e-06) (-3.778630e-06 -1.524613e-07 -9.668111e-06)) ((4.135939e-11 1.740360e-04 -9.725406e-10) (2.444010e-07 1.484847e-01 8.046546e-08))
2.240256      	((-2.657979e-05 8.917469e-07 7.670800e-05) (-4.934402e-06 -1.862384e-07 -9.179025e-06)) ((-9.177176e-09 1.635936e-04 1.179912e-08) (2.207091e-07 1.440918e-01 6.995102e-08))
2.700307      	((-8.530407e-05 -8.873532e-06 -9.074238e-06) (-5.494999e-06 -1.928761e-07 -9.916433e-06)) ((-1.614759e-08 1.563387e-04 1.856256e-08) (2.280938e-07 1.394349e-01 2.778125e-08))
3.252369      	((-4.063052e-05 1.201546e-05 -4.475792e-05) (-6.479260e-06 -2.351058e-07 -9.834123e-06)) ((-9.665869e-09 1.521145e-04 2.060430e-08) (2.299627e-07 1.346607e-01 -3.150320e-08))
3.914842      	((1.796113e-06 3.828261e-05 -2.674263e-05) (-8.386646e-06 -2.512424e-07 -7.517340e-06)) ((9.255953e-09 1.478242e-04 6.954078e-09) (2.199641e-07 1.299097e-01 -8.688729e-08))
4.709811      	((3.173403e-05 3.384994e-05 1.017912e-04) (-1.055025e-05 -2.190100e-07 -6.361292e-06)) ((3.850495e-08 1.420392e-04 -9.430556e-09) (2.929693e-07 1.253092e-01 -1.342578e-07))
5.657365      	((1.293349e-04 -1.756667e-05 9.159163e-05) (-1.336035e-05 -4.544135e-07 -5.689796e-06)) ((1.394434e-08 1.344528e-04 -1.072371e-09) (4.143959e-07 1.209271e-01 -1.991329e-07))
6.757824      	((2.599442e-04 -4.630726e-05 2.954451e-04) (-1.569595e-05 -7.033106e-07 -3.370446e-06)) ((2.283928e-08 1.262804e-04 -1.514779e-08) (4.484642e-07 1.167768e-01 -2.814255e-07))
8.011659      	((1.874395e-04 -5.382620e-05 4.316539e-04) (-1.533282e-05 -1.332545e-06 1.640064e-06)) ((-8.994719e-09 1.191979e-04 -1.554799e-09) (3.253261e-07 1.128343e-01 -2.758511e-07))
9.419624      	((6.155749e-05 -8.838644e-05 5.072781e-04) (-6.303685e-06 -1.096369e-06 5.274233e-06)) ((-5.494212e-08 1.122674e-04 2.978015e-08) (2.176412e-07 1.091466e-01 -4.712843e-07))
10.969957     	((5.477119e-04 -2.428025e-06 6.939748e-04) (7.079214e-06 -1.283293e-06 5.483647e-06)) ((-8.417433e-08 1.053369e-04 3.786557e-08) (1.606615e-07 1.058332e-01 -7.173934e-07))
12.534394     	((6.198557e-04 9.253271e-05 7.361447e-04) (1.103515e-05 -1.681385e-06 4.979596e-06)) ((-1.087581e-07 9.933198e-05 6.521146e-08) (-3.301478e-08 1.031342e-01 -8.094358e-07))
14.115024     	((5.637042e-04 6.294171e-05 7.319695e-04) (1.423238e-05 -1.784932e-06 2.936142e-06)) ((-1.002744e-07 9.409587e-05 6.786813e-08) (-2.247298e-07 1.009328e-01 -8.964950e-07))
15.70599      	((7.259061e-04 5.769193e-05 7.350800e-04) (1.663601e-05 -2.576484e-06 2.481215e-06)) ((-1.302705e-07 8.988922e-05 8.836842e-08) (-6.707411e-07 9.916070e-02 -8.752471e-07))
17.308396     	((8.126215e-04 7.013668e-05 9.948366e-04) (2.140039e-05 -4.568173e-06 6.607703e-06)) ((-1.287659e-07 8.596480e-05 4.849803e-08) (-1.315060e-06 9.775788e-02 -6.879776e-07))
18.924559     	((1.069467e-03 8.771536e-05 1.127468e-03) (3.130846e-05 -3.740120e-06 6.824964e-06)) ((-1.478528e-07 8.282435e-05 9.293728e-08) (-1.774147e-06 9.666699e-02 -2.799653e-07))
20.543927     	((1.174491e-03 1.716443e-04 1.087183e-03) (3.425591e-05 -2.966483e-06 4.277569e-06)) ((-1.129232e-07 8.088343e-05 3.439206e-08) (-2.173405e-06 9.582402e-02 -2.140903e-08))
22.165056     	((8.508646e-04 1.879312e-04 1.080165e-03) (2.027220e-05 -1.601633e-06 2.053180e-06)) ((-7.902955e-08 7.994021e-05 -1.128911e-07) (-2.594337e-06 9.517954e-02 1.461447e-07))
23.787958     	((4.117295e-04 1.375079e-04 1.057374e-03) (6.040139e-06 -6.542085e-07 6.019456e-06)) ((-7.621042e-08 7.938872e-05 -1.052047e-07) (-2.925739e-06 9.471849e-02 1.603590e-07))
25.413113     	((4.105710e-04 9.810863e-05 1.167877e-03) (-7.807419e-06 -6.280557e-07 1.429761e-05)) ((-5.208211e-08 7.880622e-05 -1.159223e-07) (-3.469468e-06 9.442418e-02 5.190207e-07))
27.041082     	((6.015968e-04 8.260998e-05 1.319201e-03) (-1.531819e-05 1.466326e-06 1.989194e-05)) ((-1.105385e-07 7.821816e-05 -1.740775e-07) (-3.629577e-06 9.425876e-02 1.081574e-06))
28.672196     	((1.025884e-03 2.284425e-04 1.480831e-03) (-3.461543e-06 1.518205e-06 3.365824e-05)) ((-3.737797e-08 7.735247e-05 -1.083364e-07) (-3.354463e-06 9.422340e-02 1.618922e-06))
30.30636      	((1.151135e-03 1.952967e-04 1.471988e-03) (7.879780e-06 4.031044e-07 3.651052e-05)) ((7.153538e-09 7.636097e-05 -3.042908e-08) (-2.981760e-06 9.433845e-02 2.158092e-06))
31.943808     	((1.196214e-03 1.506717e-04 1.349252e-03) (-1.735233e-06 -2.650147e-06 2.417619e-05)) ((6.111023e-08 7.562900e-05 -1.401376e-08) (-2.296165e-06 9.459512e-02 2.408911e-06))
33.584959     	((9.486053e-04 8.464180e-05 1.372054e-03) (-1.699485e-05 -2.437524e-06 2.958559e-05)) ((9.341540e-08 7.532231e-05 4.178003e-08) (-1.992061e-06 9.498559e-02 2.387394e-06))
35.230146     	((1.033383e-03 -1.077837e-06 1.362241e-03) (-1.733122e-05 4.077897e-07 2.657609e-05)) ((1.189894e-07 7.554678e-05 -7.846568e-09) (-1.856827e-06 9.550299e-02 3.373979e-06))
36.879472     	((1.040028e-03 -1.356803e-04 1.125032e-03) (-1.201617e-05 1.777888e-06 8.605836e-06)) ((1.060031e-08 7.604911e-05 -1.026228e-07) (-1.354122e-06 9.613695e-02 4.798298e-06))
38.532265     	((1.611664e-03 -3.191935e-04 1.020822e-03) (-1.214889e-05 3.273747e-06 -5.838387e-06)) ((-6.787629e-08 7.651528e-05 -1.275647e-07) (-7.719083e-07 9.686853e-02 5.113100e-06))
40.187718     	((1.777350e-03 -4.564123e-04 9.123374e-04) (-1.558252e-05 7.123640e-06 -2.772803e-05)) ((-1.732088e-07 7.759658e-05 -3.919499e-08) (9.342338e-08 9.766161e-02 4.589405e-06))
41.845436     	((1.639156e-03 -4.664955e-04 5.368823e-04) (-2.052842e-05 7.741237e-06 -3.892025e-05)) ((-1.937152e-07 7.864698e-05 1.791348e-09) (1.114005e-06 9.846891e-02 3.517215e-06))
43.504974     	((1.494065e-03 -4.537472e-04 7.514660e-04) (-2.896786e-05 8.277453e-06 -4.623700e-05)) ((-2.282030e-07 7.989120e-05 -3.890231e-08) (1.649141e-06 9.923953e-02 1.920233e-06))
45.165428     	((1.350571e-03 -3.484862e-04 5.422012e-04) (-3.201515e-05 7.540534e-06 -4.657327e-05)) ((-1.355884e-07 8.120122e-05 4.236400e-08) (1.602654e-06 9.993868e-02 1.546256e-07))
46.824627     	((1.066299e-03 -3.527920e-04 4.858650e-04) (-3.478073e-05 5.559867e-06 -4.389969e-05)) ((-1.163649e-07 8.219350e-05 9.034492e-08) (8.901209e-07 1.005385e-01 -1.851547e-06))
48.480413     	((2.329404e-04 -4.327598e-04 3.569534e-04) (-4.077449e-05 2.889763e-06 -3.682850e-05)) ((-1.420159e-07 8.303194e-05 1.358442e-07) (-5.345744e-07 1.010347e-01 -3.764974e-06))
