# Forces      
# CofR        : (0.000000e+00 0.000000e+00 0.000000e+00)
# Time        forces(pressure viscous)	moments(pressure viscous)
0             	((0.000000e+00 0.000000e+00 0.000000e+00) (0.000000e+00 0.000000e+00 0.000000e+00)) ((0.000000e+00 0.000000e+00 0.000000e+00) (0.000000e+00 0.000000e+00 0.000000e+00))
0.012         	((7.029682e-06 -1.175835e-06 -1.437772e-04) (-9.393673e-10 -8.980619e-10 -1.453333e-08)) ((1.555461e-09 9.292553e-05 -3.957386e-09) (-2.494718e-10 4.920337e-03 6.242430e-12))
0.0264        	((-4.053162e-05 -1.530680e-06 1.580939e-04) (-5.434650e-09 -1.504529e-09 -2.010685e-08)) ((-1.105205e-09 4.150155e-05 -2.297307e-09) (-2.108256e-10 4.915329e-03 1.109836e-10))
0.04368       	((2.425034e-05 4.929985e-06 -3.019858e-05) (-9.457748e-09 -1.363281e-09 -2.168619e-08)) ((1.878231e-09 2.182752e-05 1.435537e-09) (7.983731e-11 4.909305e-03 3.012023e-10))
0.064416      	((-1.096123e-05 -2.722568e-06 3.870769e-05) (-1.086240e-08 -1.077252e-09 -2.168608e-08)) ((-1.218397e-09 1.041379e-05 -1.171449e-09) (3.166292e-10 4.902095e-03 4.901721e-10))
0.0892992     	((7.942196e-07 1.548858e-06 -6.959371e-06) (-1.246346e-08 -1.986478e-09 -2.230537e-08)) ((1.665908e-09 7.303652e-06 2.204030e-09) (4.510686e-10 4.893466e-03 6.843320e-10))
0.119159      	((-8.948670e-06 5.395254e-07 1.006910e-05) (-1.352143e-08 -3.575796e-09 -2.347283e-08)) ((1.297341e-09 5.445656e-06 5.316142e-09) (4.776651e-10 4.883146e-03 8.985470e-10))
0.154991      	((-5.901029e-06 5.870797e-07 -7.457997e-06) (-1.384168e-08 -4.761528e-09 -2.265290e-08)) ((1.991036e-09 4.799411e-06 6.489043e-09) (3.079963e-10 4.870815e-03 1.067822e-09))
0.197989      	((-1.216905e-05 -1.232324e-06 -3.943878e-06) (-1.470816e-08 -5.782148e-09 -2.160011e-08)) ((1.702360e-09 4.337845e-06 5.353437e-09) (4.129161e-11 4.856097e-03 1.241039e-09))
0.249587      	((6.097403e-07 6.874994e-07 -4.170710e-06) (-1.628438e-08 -7.196512e-09 -2.087280e-08)) ((9.199313e-10 3.949435e-06 2.935239e-09) (-1.606539e-10 4.838545e-03 1.385951e-09))
0.311504      	((-6.252228e-07 -1.010263e-07 7.191752e-07) (-1.788627e-08 -8.250516e-09 -2.037165e-08)) ((7.136055e-10 3.503034e-06 1.320628e-09) (-2.795845e-10 4.817641e-03 1.541451e-09))
0.385805      	((2.666008e-06 1.363388e-06 7.671434e-08) (-2.065055e-08 -8.302956e-09 -1.969350e-08)) ((1.075528e-09 3.017185e-06 -8.891566e-11) (-2.827959e-10 4.792783e-03 1.747537e-09))
0.474966      	((-1.286175e-06 4.721944e-07 -7.600410e-07) (-2.429964e-08 -7.564389e-09 -1.893190e-08)) ((6.600485e-10 2.583127e-06 -4.337649e-10) (-2.006370e-10 4.763283e-03 1.822150e-09))
0.581959      	((1.316198e-06 -3.784125e-07 -2.969072e-06) (-2.691765e-08 -6.823731e-09 -1.861624e-08)) ((7.211981e-10 2.275291e-06 -5.323815e-10) (-1.802999e-10 4.728375e-03 1.775437e-09))
0.710351      	((-5.982475e-07 -2.530224e-07 -2.090529e-06) (-2.873466e-08 -6.439756e-09 -1.897275e-08)) ((9.580144e-10 2.078500e-06 -7.227698e-10) (-1.306510e-10 4.687218e-03 1.697791e-09))
0.864421      	((7.601552e-07 -3.981237e-07 -2.210963e-06) (-3.010714e-08 -6.327147e-09 -1.988262e-08)) ((9.939711e-10 1.945653e-06 -3.304135e-10) (1.867402e-11 4.638905e-03 1.746631e-09))
1.049306      	((-1.090426e-06 -4.560567e-07 -1.694579e-06) (-3.178242e-08 -6.899424e-09 -2.095701e-08)) ((9.043578e-10 1.842469e-06 4.546652e-10) (5.774279e-11 4.582504e-03 1.954465e-09))
1.271167      	((3.644863e-07 5.395292e-07 -1.562882e-06) (-3.526447e-08 -7.989879e-09 -2.120389e-08)) ((6.728747e-10 1.755162e-06 2.139205e-10) (-8.193056e-11 4.517117e-03 2.153955e-09))
1.5374        	((1.146834e-07 -2.840912e-07 -8.621765e-07) (-4.001423e-08 -8.977007e-09 -2.158870e-08)) ((4.657816e-10 1.677252e-06 1.017017e-11) (-2.121970e-10 4.441985e-03 2.025214e-09))
1.85688       	((5.073357e-07 3.264725e-07 -3.096561e-07) (-4.442480e-08 -8.949125e-09 -2.206591e-08)) ((5.705610e-10 1.601650e-06 -4.211794e-10) (-1.684699e-10 4.356629e-03 1.346327e-09))
2.240256      	((1.881332e-07 -3.320360e-07 1.958847e-07) (-4.916509e-08 -8.821510e-09 -2.206472e-08)) ((4.177946e-10 1.524292e-06 -7.272540e-10) (-4.292413e-10 4.261034e-03 5.513459e-10))
2.700307      	((1.157656e-06 3.810742e-08 1.117785e-06) (-5.141627e-08 -8.918427e-09 -2.249255e-08)) ((4.591714e-10 1.446604e-06 -6.236660e-10) (-1.049971e-09 4.155845e-03 4.046157e-11))
3.252369      	((2.446032e-07 -4.650888e-07 7.825320e-07) (-4.831947e-08 -8.685816e-09 -2.604238e-08)) ((3.139961e-10 1.371193e-06 -3.319814e-10) (-1.524793e-09 4.042493e-03 -6.779796e-11))
3.914842      	((5.984879e-07 1.077692e-07 1.282128e-06) (-3.643160e-08 -7.794505e-09 -3.090100e-08)) ((7.902303e-11 1.298152e-06 1.167936e-10) (-1.608395e-09 3.923165e-03 1.736539e-10))
4.709811      	((-1.204258e-07 -2.579334e-07 2.107638e-07) (-2.379282e-08 -6.078122e-09 -3.354169e-08)) ((-1.503726e-10 1.227699e-06 3.132668e-10) (-1.398849e-09 3.800483e-03 5.162172e-10))
5.663773      	((3.801146e-07 1.835008e-07 2.305261e-07) (-1.893425e-08 -5.041007e-09 -3.136944e-08)) ((-2.580636e-10 1.163238e-06 3.699380e-10) (-1.123695e-09 3.676865e-03 4.868790e-10))
6.808528      	((2.471793e-07 -2.453712e-07 -6.051384e-07) (-5.808365e-09 -4.903666e-09 -3.138854e-08)) ((-2.103502e-10 1.098893e-06 3.428680e-10) (-9.412706e-10 3.553709e-03 3.488572e-10))
8.182233      	((3.300144e-07 1.368195e-07 -2.773234e-07) (9.877610e-09 -3.394100e-09 -2.882947e-08)) ((-1.163800e-10 1.021199e-06 2.227382e-10) (-4.232851e-10 3.429716e-03 2.384667e-10))
9.83068       	((3.244025e-07 -3.222038e-07 1.432503e-07) (-1.918304e-08 -2.889813e-09 -2.401616e-08)) ((-1.206081e-10 9.308125e-07 2.724907e-10) (3.383512e-10 3.299539e-03 4.917823e-10))
11.808816     	((1.561754e-07 4.940322e-08 9.222765e-07) (-3.688147e-08 -3.444879e-09 -3.860858e-08)) ((-5.507475e-11 8.449082e-07 2.805607e-10) (5.306256e-10 3.159450e-03 8.545554e-10))
14.182579     	((1.408010e-07 -1.614710e-07 2.612489e-07) (-1.946037e-08 -2.361738e-09 -6.529146e-08)) ((-4.327840e-11 7.687542e-07 2.554620e-10) (1.201215e-09 3.010500e-03 3.864437e-10))
17.031095     	((-7.154216e-07 1.317672e-07 6.315177e-07) (-7.661611e-09 -1.306971e-09 -7.113965e-08)) ((-3.411218e-11 7.209925e-07 2.540024e-10) (1.530379e-09 2.856060e-03 -1.479108e-09))
20.449314     	((-1.161070e-07 4.126914e-08 1.119486e-07) (-3.024507e-08 2.121078e-09 -7.621635e-08)) ((-1.450659e-10 6.908195e-07 2.976661e-10) (5.091918e-10 2.700322e-03 -4.164309e-09))
24.551176     	((-8.783572e-08 6.692994e-08 8.583548e-07) (-4.459537e-09 8.130856e-09 -5.889416e-08)) ((2.602384e-11 6.475912e-07 2.038352e-10) (-1.483646e-09 2.546942e-03 -5.530933e-09))
29.473411     	((7.669745e-07 -1.483163e-07 7.163771e-07) (1.235616e-08 9.713574e-09 -6.208985e-08)) ((2.947042e-10 5.969206e-07 4.280130e-11) (-4.248713e-09 2.398109e-03 -4.867874e-09))
35.380094     	((1.192920e-06 -3.458684e-07 1.620485e-06) (-9.090779e-08 9.780932e-09 3.320560e-08)) ((7.101504e-10 5.387037e-07 -2.884951e-10) (-7.542069e-09 2.253947e-03 -3.186539e-09))
42.468112     	((1.918809e-06 -1.602519e-07 3.581055e-06) (3.751742e-08 2.953934e-08 1.177288e-07)) ((6.250549e-10 4.721312e-07 -3.900209e-10) (-1.142885e-08 2.113448e-03 -5.138815e-10))
50.973735     	((2.684164e-06 -5.158534e-07 4.904423e-06) (1.989420e-07 4.787380e-08 7.034927e-09)) ((1.614634e-10 3.976720e-07 -3.182466e-11) (-1.448792e-08 1.977568e-03 2.746980e-09))
61.180482     	((3.423121e-06 -2.512380e-07 4.860272e-06) (2.278638e-07 3.431241e-08 1.048104e-07)) ((-1.542803e-10 3.220360e-07 4.837238e-10) (-1.318699e-08 1.850424e-03 2.904102e-09))
73.428578     	((3.049283e-06 5.325599e-07 6.749214e-06) (-2.276205e-08 1.145999e-08 2.844141e-07)) ((-1.051666e-09 2.559610e-07 7.972578e-10) (-1.166279e-08 1.736174e-03 1.290034e-09))
88.126294     	((5.075307e-06 6.629255e-07 6.845007e-06) (3.479080e-07 7.847813e-08 4.477283e-07)) ((-1.432081e-09 1.995732e-07 1.209290e-09) (-2.013544e-08 1.636746e-03 -1.969281e-09))
105.396737    	((5.150869e-06 1.046288e-06 5.929970e-06) (3.782827e-07 6.247516e-08 3.829214e-07)) ((-1.753022e-09 1.540037e-07 2.161991e-09) (-2.927845e-08 1.553887e-03 -1.221079e-08))
125.246182    	((4.874701e-06 7.682919e-07 3.648237e-06) (3.709060e-07 -9.362314e-08 4.261580e-07)) ((-1.987415e-09 1.241035e-07 2.357753e-09) (-4.310023e-08 1.486814e-03 -2.581132e-08))
147.684526    	((7.496794e-06 6.862917e-07 4.828237e-06) (7.094539e-07 -1.750542e-07 6.372533e-07)) ((-1.635553e-09 1.111551e-07 1.659536e-09) (-6.865860e-08 1.433127e-03 -2.340257e-08))
172.726251    	((9.301842e-06 6.429501e-07 5.135502e-06) (9.787401e-07 -1.915777e-07 7.322193e-07)) ((-1.087334e-09 1.021090e-07 1.315321e-09) (-9.889591e-08 1.390572e-03 -6.178160e-09))
198.969817    	((1.125169e-05 6.222895e-08 6.321562e-06) (1.406050e-06 -3.121895e-07 8.424847e-07)) ((-8.979267e-10 9.961492e-08 1.327559e-09) (-1.261364e-07 1.358481e-03 3.202249e-08))
225.451697    	((8.277364e-06 -1.137921e-07 6.095909e-06) (1.365052e-06 -3.837574e-07 9.135154e-07)) ((-9.262965e-10 1.005819e-07 1.242751e-09) (-1.321450e-07 1.334858e-03 6.968302e-08))
252.227732    	((8.385916e-06 -5.295590e-07 7.904057e-06) (1.343957e-06 -3.468717e-07 7.215835e-07)) ((-1.333815e-09 1.027860e-07 1.674504e-09) (-1.213227e-07 1.318220e-03 9.355898e-08))
279.334532    	((8.367942e-06 -1.021504e-06 8.312582e-06) (8.098580e-07 -2.765520e-07 4.893449e-07)) ((3.567674e-10 1.037981e-07 1.787634e-09) (-1.256643e-07 1.308330e-03 9.126541e-08))
306.749979    	((1.019673e-05 -1.693816e-06 8.672896e-06) (4.124138e-07 -3.323386e-07 5.389916e-07)) ((1.727162e-09 1.069774e-07 1.984796e-09) (-1.428037e-07 1.304922e-03 8.632717e-08))
334.47418     	((8.892640e-06 -2.865199e-06 4.913717e-06) (9.607097e-08 -3.460741e-07 5.437633e-07)) ((2.179497e-09 1.102502e-07 1.058258e-09) (-1.404694e-07 1.308038e-03 1.105554e-07))
362.503769    	((1.001025e-05 -2.963472e-06 2.641712e-06) (-3.613318e-07 -3.820926e-07 8.490421e-07)) ((2.810115e-09 1.121355e-07 6.494501e-10) (-1.243297e-07 1.317990e-03 1.206679e-07))
390.815476    	((9.927351e-06 -3.512143e-06 6.015600e-06) (-3.999775e-07 -2.730300e-07 7.309320e-07)) ((2.548694e-09 1.168771e-07 3.674484e-10) (-8.274886e-08 1.334348e-03 1.426686e-07))
419.227527    	((9.253207e-06 -2.899909e-06 7.595807e-06) (-3.263014e-07 -2.768423e-07 3.228400e-07)) ((2.374714e-09 1.218378e-07 -1.124541e-09) (-2.478694e-08 1.356665e-03 1.130769e-07))
447.546523    	((7.372965e-06 -4.738239e-06 7.519006e-06) (-2.262583e-07 -3.115446e-07 1.125613e-07)) ((1.330364e-09 1.255278e-07 -1.929707e-09) (2.484849e-08 1.383294e-03 5.141904e-08))
475.570741    	((9.693208e-07 -7.181140e-06 5.922142e-06) (1.519356e-07 -4.093003e-07 -6.879990e-07)) ((1.580666e-09 1.285508e-07 -1.699143e-09) (2.766199e-08 1.411403e-03 -1.863182e-08))
503.179247    	((-4.842541e-06 -1.328601e-05 5.229612e-06) (3.679401e-08 -5.551512e-07 -6.368929e-07)) ((2.263715e-09 1.308707e-07 -1.070703e-09) (-5.095581e-08 1.437687e-03 -7.933332e-08))
530.322589    	((-7.668896e-06 -1.766332e-05 6.004204e-06) (2.619195e-09 -6.184421e-07 -4.069918e-07)) ((6.672243e-10 1.332224e-07 -1.063629e-09) (-1.228257e-07 1.458992e-03 -1.420786e-07))
557.028961    	((-9.950056e-06 -1.384646e-05 4.563585e-06) (1.379006e-07 -6.434898e-07 -7.882184e-08)) ((-3.915623e-10 1.343568e-07 -6.707604e-10) (-2.520869e-07 1.474222e-03 -1.414517e-07))
583.384269    	((-6.909335e-06 -1.331126e-05 -8.755467e-07) (2.221576e-07 -5.893924e-07 4.230581e-07)) ((-2.122119e-10 1.341906e-07 -1.097994e-09) (-3.873928e-07 1.483760e-03 -7.170993e-08))
609.456219    	((-6.173598e-06 -1.435102e-05 -9.559639e-07) (1.025852e-07 -5.665662e-07 3.213457e-07)) ((-1.486289e-10 1.329060e-07 -1.695925e-09) (-4.703178e-07 1.488635e-03 3.472101e-08))
635.299051    	((-5.459520e-06 -9.322565e-06 1.315028e-06) (-1.511327e-07 -4.963006e-07 3.563017e-07)) ((-9.070084e-11 1.327886e-07 -1.033983e-09) (-5.124390e-07 1.489977e-03 1.702562e-07))
660.956451    	((-1.960600e-06 -1.299990e-05 4.173254e-06) (-3.426430e-08 -4.271483e-07 6.501057e-07)) ((-4.959069e-10 1.318484e-07 -1.350399e-10) (-5.063411e-07 1.489137e-03 3.205096e-07))
686.448322    	((-4.314831e-07 -1.499019e-05 1.006211e-06) (2.432110e-07 -4.722622e-07 4.311309e-07)) ((-8.751120e-10 1.312882e-07 -9.803139e-11) (-4.276071e-07 1.487047e-03 4.881968e-07))
711.781007    	((6.286235e-07 -1.420936e-05 1.017138e-06) (3.060475e-07 -4.833876e-07 3.754064e-07)) ((-6.304596e-10 1.292947e-07 3.128162e-10) (-2.808489e-07 1.484154e-03 6.410006e-07))
736.988125    	((-3.993676e-06 -1.398848e-05 -3.627752e-07) (7.612240e-08 -4.255443e-07 3.913490e-07)) ((-6.861180e-10 1.280036e-07 9.663205e-11) (-8.163272e-08 1.480894e-03 7.330347e-07))
762.09269     	((-4.628900e-06 -1.519690e-05 1.148151e-07) (3.547201e-07 -4.484939e-07 4.509473e-07)) ((-6.164160e-10 1.271845e-07 -6.085436e-10) (1.515460e-07 1.477462e-03 7.450047e-07))
