# Forces      
# CofR        : (0.000000e+00 0.000000e+00 0.000000e+00)
# Time        forces(pressure viscous)	moments(pressure viscous)
0             	((0.000000e+00 0.000000e+00 0.000000e+00) (0.000000e+00 0.000000e+00 0.000000e+00)) ((0.000000e+00 0.000000e+00 0.000000e+00) (0.000000e+00 0.000000e+00 0.000000e+00))
0.012         	((2.548380e-07 -1.689927e-06 -8.155545e-07) (6.862892e-11 3.764297e-10 -1.019129e-10)) ((1.851504e-05 -2.985840e-10 -6.532291e-08) (9.532314e-04 -4.035150e-11 6.649941e-10))
0.0264        	((8.075458e-07 5.444627e-06 -3.914813e-06) (1.260273e-10 5.239712e-10 -2.027056e-11)) ((8.146501e-06 -3.374008e-10 -4.837302e-08) (9.523179e-04 -3.382385e-11 -1.212969e-10))
0.04368       	((-1.187478e-06 -7.283889e-07 -2.471397e-06) (3.631426e-11 3.598986e-10 -4.703416e-11)) ((4.197306e-06 6.455650e-10 -3.580651e-08) (9.512379e-04 2.725829e-11 -1.087352e-09))
0.064416      	((2.303831e-06 4.111996e-06 -1.689013e-06) (1.308810e-10 4.008531e-10 -1.816667e-10)) ((1.897278e-06 -1.449238e-10 -1.600596e-08) (9.499435e-04 9.092805e-11 -1.205014e-09))
0.0892992     	((-1.724191e-07 -9.353565e-07 -5.819039e-07) (5.108245e-10 4.011799e-10 -5.464566e-11)) ((1.261649e-06 1.057315e-09 -3.408898e-09) (9.483937e-04 1.856333e-10 -1.009631e-09))
0.119159      	((1.397829e-06 9.265415e-07 2.177127e-07) (9.718351e-10 3.675883e-10 7.252342e-11)) ((8.629415e-07 1.532321e-10 -5.492230e-10) (9.465393e-04 2.763331e-10 -7.844971e-10))
0.154991      	((1.242404e-07 -9.041687e-07 1.453430e-06) (1.288510e-09 3.767419e-10 1.360299e-10)) ((7.078902e-07 5.634618e-10 -1.332633e-09) (9.443222e-04 2.790561e-10 -9.645744e-10))
0.197989      	((6.829217e-08 2.872863e-07 6.380727e-07) (1.288801e-09 4.332774e-10 1.608661e-10)) ((5.941777e-07 4.874124e-10 -1.661843e-09) (9.416735e-04 2.167909e-10 -1.598048e-09))
0.249587      	((2.944496e-07 -5.582234e-07 8.214564e-07) (1.097095e-09 5.102624e-10 8.679326e-11)) ((5.107536e-07 7.574709e-10 -1.778917e-09) (9.385111e-04 1.020187e-10 -2.488816e-09))
0.311504      	((-3.074947e-08 -1.987209e-07 8.044684e-07) (8.842759e-10 6.115372e-10 2.277559e-11)) ((4.442561e-07 6.216593e-10 -2.137442e-09) (9.347390e-04 -4.189418e-11 -3.404581e-09))
0.385805      	((-1.681082e-08 -2.572144e-07 3.867573e-07) (7.334093e-10 6.854191e-10 2.885870e-11)) ((3.867848e-07 3.053149e-10 -2.186494e-09) (9.302445e-04 -1.315177e-10 -4.314902e-09))
0.474966      	((-1.804744e-07 -2.618090e-07 3.425247e-07) (5.929918e-10 6.502681e-10 -6.250122e-11)) ((3.357497e-07 -3.250055e-11 -1.919313e-09) (9.248972e-04 -1.038424e-10 -5.265405e-09))
0.581959      	((-2.748021e-07 -4.366902e-07 -9.645421e-08) (4.667498e-10 4.937235e-10 -1.946626e-10)) ((2.914923e-07 -1.939218e-10 -1.768356e-09) (9.185466e-04 2.226176e-11 -6.221531e-09))
0.710351      	((-3.773315e-07 -3.629050e-07 -1.265751e-08) (5.008799e-10 3.263285e-10 -2.536238e-10)) ((2.532532e-07 -2.501928e-10 -1.685469e-09) (9.110207e-04 6.587066e-11 -7.228973e-09))
0.864421      	((-3.190530e-07 -4.332411e-07 -1.331649e-07) (6.618033e-10 2.100928e-10 -2.945050e-10)) ((2.196773e-07 -5.140964e-10 -1.520452e-09) (9.021259e-04 -3.639287e-11 -8.054537e-09))
1.049306      	((-2.326428e-07 -2.598020e-07 -1.935195e-07) (8.211512e-10 8.871418e-11 -3.848516e-10)) ((1.880491e-07 -1.382937e-10 -1.272325e-09) (8.916475e-04 -1.500856e-10 -8.693298e-09))
1.271167      	((-1.238303e-07 -1.184581e-07 -2.643940e-07) (1.014268e-09 -1.547010e-10 -5.145688e-10)) ((1.569488e-07 5.119542e-11 -7.184268e-10) (8.793528e-04 -2.039654e-10 -9.176634e-09))
1.5374        	((-1.315087e-07 -8.193227e-08 -1.088281e-07) (1.268441e-09 -4.728940e-10 -6.130239e-10)) ((1.310002e-07 -8.472229e-11 -3.703151e-10) (8.649984e-04 -1.801187e-10 -9.453164e-09))
1.85688       	((-7.197731e-08 -4.736296e-08 -7.193716e-08) (1.552913e-09 -7.333988e-10 -5.911285e-10)) ((1.131194e-07 -1.858653e-10 -9.792690e-11) (8.483428e-04 -2.667848e-11 -9.713660e-09))
2.240256      	((-8.474678e-08 -2.839329e-08 -2.509481e-08) (1.769961e-09 -8.092290e-10 -5.504464e-10)) ((1.014412e-07 -3.023972e-10 -6.902053e-11) (8.291617e-04 1.827850e-10 -1.011779e-08))
2.700307      	((-2.125309e-08 -4.426007e-08 -4.516906e-08) (1.895543e-09 -7.590147e-10 -5.440494e-10)) ((9.386546e-08 -2.158828e-10 -1.175002e-10) (8.072750e-04 4.635279e-10 -1.059540e-08))
3.252369      	((-3.931195e-08 -1.203570e-08 -3.767976e-08) (2.068516e-09 -6.348013e-10 -5.714324e-10)) ((8.865787e-08 -1.419724e-10 -2.032427e-10) (7.825821e-04 8.380771e-10 -1.105021e-08))
3.914842      	((-2.023136e-09 -1.810923e-08 -5.728139e-08) (2.319225e-09 -3.880714e-10 -6.599786e-10)) ((8.453405e-08 -1.117322e-10 -2.374093e-10) (7.551049e-04 1.329114e-09 -1.140216e-08))
4.709811      	((1.928876e-08 -5.860990e-09 -2.912192e-08) (2.653758e-09 -1.904836e-10 -8.161142e-10)) ((8.085310e-08 -8.497253e-11 -2.616488e-10) (7.250326e-04 1.958266e-09 -1.150295e-08))
5.663773      	((-1.911641e-10 4.767493e-08 -3.113540e-08) (3.020912e-09 6.395679e-11 -9.503671e-10)) ((7.702333e-08 -6.036700e-11 -2.143321e-10) (6.927529e-04 2.758696e-09 -1.131463e-08))
6.808528      	((1.637177e-08 1.109399e-08 -1.569382e-08) (3.301602e-09 3.655438e-10 -9.354842e-10)) ((7.282603e-08 -7.111798e-11 -2.195721e-10) (6.588569e-04 3.527095e-09 -1.087942e-08))
8.182233      	((-2.733820e-08 3.302608e-08 -2.310503e-08) (3.592021e-09 5.475555e-10 -1.130589e-09)) ((6.853416e-08 -5.851292e-11 -1.950280e-10) (6.241173e-04 4.301958e-09 -1.036928e-08))
9.83068       	((-4.535943e-08 3.169547e-08 -4.799480e-08) (4.128619e-09 1.177979e-09 -1.126854e-09)) ((6.416867e-08 -5.121742e-11 -1.831994e-10) (5.893533e-04 4.960803e-09 -9.744272e-09))
11.808816     	((-4.660261e-08 7.316118e-09 -2.894186e-08) (5.314306e-09 1.763219e-09 -8.747580e-10)) ((5.974329e-08 -3.822590e-11 -1.831439e-10) (5.552705e-04 4.883238e-09 -8.634083e-09))
14.182579     	((-7.224422e-08 -1.107101e-08 -3.988967e-08) (6.482349e-09 1.946126e-09 -9.483810e-10)) ((5.473038e-08 1.278087e-11 -3.092089e-10) (5.222960e-04 4.438666e-09 -7.514197e-09))
17.031095     	((-7.386489e-08 1.869999e-08 4.763273e-09) (7.292729e-09 1.934793e-09 -1.039573e-09)) ((4.861725e-08 1.572386e-11 -2.517779e-10) (4.901770e-04 4.249001e-09 -5.852629e-09))
20.449314     	((-7.875813e-08 1.224461e-08 2.203437e-08) (7.307772e-09 1.554677e-09 -7.277096e-10)) ((4.194391e-08 9.024091e-11 -2.323398e-10) (4.580844e-04 2.948358e-09 -3.570642e-09))
24.551176     	((-8.675223e-08 2.112967e-08 8.624945e-09) (4.545167e-09 9.584034e-10 -4.977861e-10)) ((3.551060e-08 8.157316e-11 -1.674653e-10) (4.256481e-04 1.291196e-09 -2.810447e-09))
29.473411     	((-7.932810e-08 2.554641e-08 1.844194e-08) (-6.737241e-10 1.407164e-09 -1.084813e-09)) ((2.998668e-08 7.184902e-11 -1.616577e-10) (3.932115e-04 -1.153657e-10 -2.715162e-09))
35.380094     	((-7.882331e-08 5.603685e-08 2.056927e-08) (-3.742064e-09 3.174587e-09 2.418060e-11)) ((2.631499e-08 5.157152e-11 -1.810892e-10) (3.614144e-04 -1.009238e-09 -2.281906e-09))
42.468112     	((-9.406197e-08 5.372856e-08 3.878253e-08) (-4.564066e-09 1.906092e-09 -1.882799e-09)) ((2.370289e-08 4.085339e-11 -1.553083e-10) (3.309165e-04 -6.676904e-10 -2.543899e-09))
50.973735     	((-8.277771e-08 6.664683e-08 -2.015518e-08) (-4.633917e-09 8.730070e-10 -7.465961e-09)) ((2.123413e-08 3.726055e-11 -9.387350e-11) (3.021117e-04 1.140569e-09 -2.593730e-09))
61.180482     	((-7.178922e-08 7.897650e-08 -4.659824e-08) (-5.356419e-09 4.142260e-09 -7.009199e-09)) ((1.881077e-08 2.509608e-11 -4.586117e-11) (2.750444e-04 2.097869e-09 -2.301567e-09))
73.428578     	((-5.501916e-08 1.362124e-07 4.853715e-08) (-6.541325e-09 8.218324e-09 -5.765941e-09)) ((1.575377e-08 1.455708e-11 -3.667495e-11) (2.497468e-04 2.174083e-09 -2.209691e-09))
88.126294     	((-5.266319e-08 1.997776e-07 7.378533e-08) (-6.462155e-09 1.345922e-08 4.396929e-09)) ((1.194898e-08 5.284840e-11 -5.510531e-12) (2.262940e-04 1.828535e-09 -1.996016e-09))
105.763553    	((1.563676e-09 2.979841e-07 1.569904e-07) (-6.637108e-09 1.734319e-08 1.800491e-08)) ((8.334900e-09 4.965901e-11 -3.805845e-11) (2.049685e-04 1.181154e-09 -6.746364e-10))
126.928263    	((-2.898349e-08 2.992361e-07 1.886671e-07) (-5.340519e-09 7.320948e-09 1.470326e-08)) ((5.273822e-09 6.484448e-11 -6.698600e-11) (1.861259e-04 8.153482e-10 -1.395907e-09))
152.325916    	((-3.510681e-08 2.743467e-07 2.298385e-07) (-6.984224e-09 2.842561e-08 3.051534e-08)) ((2.715904e-09 6.013992e-11 -4.020782e-11) (1.698346e-04 5.032211e-10 -3.498359e-09))
182.803099    	((-2.098091e-08 2.763837e-07 2.259064e-07) (-6.595760e-09 4.542237e-08 3.250498e-08)) ((7.569851e-10 1.653486e-10 -4.636701e-11) (1.559333e-04 -1.383044e-09 -4.066407e-09))
219.375719    	((8.349448e-09 1.731889e-07 2.538807e-07) (-8.644389e-09 5.024378e-08 -9.278820e-09)) ((-2.438844e-10 2.615380e-10 -5.016003e-11) (1.441290e-04 -3.933108e-09 -5.851138e-09))
263.262863    	((5.481118e-09 1.131879e-07 2.363890e-07) (-1.151424e-08 7.418029e-08 -1.244783e-08)) ((-9.306867e-10 2.316185e-10 -1.206109e-11) (1.340478e-04 -6.655916e-09 -8.820138e-09))
315.927436    	((4.741770e-08 1.417682e-07 3.035784e-07) (-7.203438e-09 1.004988e-07 1.492627e-08)) ((-1.348303e-09 2.106138e-10 -1.709142e-11) (1.253275e-04 -7.885907e-09 -1.103378e-08))
379.124923    	((3.120693e-08 9.261065e-08 3.562615e-07) (-9.533359e-09 1.388854e-07 3.297090e-08)) ((-1.719709e-09 1.758982e-10 -2.105548e-11) (1.176927e-04 -6.989504e-09 -1.419932e-08))
454.961908    	((2.404830e-08 1.587801e-07 4.037919e-07) (-1.578614e-08 1.644231e-07 8.514471e-08)) ((-2.143307e-09 1.441389e-10 1.389116e-12) (1.109966e-04 -5.167451e-09 -1.718802e-08))
544.11461     	((-3.757331e-08 1.736548e-07 3.676518e-07) (-2.790797e-08 1.650149e-07 1.343038e-07)) ((-2.369500e-09 1.229532e-10 1.651615e-11) (1.051965e-04 -1.781957e-09 -1.805737e-08))
646.773525    	((-8.501373e-08 2.286386e-07 3.688891e-07) (-2.832796e-08 1.385520e-07 1.253993e-07)) ((-2.398390e-09 1.512081e-10 -3.155390e-11) (1.002234e-04 1.613454e-09 -1.568340e-08))
763.173121    	((-9.095038e-08 1.853109e-07 1.957346e-07) (-2.445296e-08 1.125178e-07 6.323241e-08)) ((-2.375869e-09 1.513602e-10 -3.534053e-11) (9.603321e-05 3.242943e-09 -1.241529e-08))
893.594444    	((-7.161428e-08 1.894889e-07 2.476195e-07) (-1.703346e-08 1.035227e-07 -4.056936e-09)) ((-2.262588e-09 1.160244e-10 -9.036850e-12) (9.264419e-05 4.667246e-09 -1.099884e-08))
1036.944714   	((-7.037978e-08 1.393611e-07 2.213472e-07) (-1.567396e-08 1.143246e-07 -2.549393e-08)) ((-2.031355e-09 8.282353e-11 1.650928e-11) (9.007014e-05 6.961434e-09 -1.039520e-08))
1183.954289   	((-8.127973e-08 1.248110e-07 2.084556e-07) (-1.010618e-08 1.040145e-07 -2.725128e-08)) ((-1.778677e-09 7.924654e-11 1.905180e-11) (8.830843e-05 9.704482e-09 -9.230589e-09))
1334.323564   	((-3.615339e-08 8.819900e-08 2.577787e-07) (-4.813959e-09 1.009292e-07 -9.014144e-09)) ((-1.406451e-09 4.608451e-11 4.040791e-11) (8.722854e-05 1.209963e-08 -7.712651e-09))
1487.683654   	((-5.145214e-09 1.026065e-07 2.924605e-07) (5.530717e-09 8.633930e-08 -4.779683e-09)) ((-1.059643e-09 1.987811e-11 3.792468e-11) (8.678350e-05 1.432361e-08 -6.059787e-09))
1641.030735   	((1.771429e-08 6.718114e-08 2.901843e-07) (1.341194e-08 9.491561e-08 1.774400e-08)) ((-8.319622e-10 -2.584552e-11 3.834477e-11) (8.694790e-05 1.461360e-08 -4.369468e-09))
1793.624638   	((2.402445e-08 1.054551e-07 2.996390e-07) (1.793391e-08 9.954479e-08 1.405796e-09)) ((-6.642560e-10 -5.499962e-11 3.882892e-12) (8.768870e-05 1.281654e-08 -2.439740e-09))
1944.775185   	((4.358164e-08 1.444180e-07 3.963051e-07) (1.893790e-08 7.080284e-08 -4.892899e-09)) ((-5.327481e-10 -8.513400e-11 -2.210233e-11) (8.896756e-05 1.033060e-08 -2.249671e-09))
2094.06587    	((2.285165e-08 1.784584e-07 4.549597e-07) (1.777667e-08 4.145247e-08 6.195821e-09)) ((-4.851053e-10 -1.014534e-10 -4.333260e-11) (9.071329e-05 8.108014e-09 -3.688796e-09))
2241.222525   	((1.496281e-08 2.178353e-07 3.978173e-07) (1.647471e-08 8.422319e-09 1.655066e-08)) ((-4.602082e-10 -8.564706e-11 -6.019902e-11) (9.284804e-05 6.542811e-09 -6.253025e-09))
2386.229573   	((5.382187e-09 1.978512e-07 2.169255e-07) (1.563464e-08 -8.061663e-09 2.503777e-08)) ((-4.710408e-10 -8.777032e-11 -7.044291e-11) (9.524156e-05 6.769375e-09 -8.729398e-09))
2529.197876   	((-3.034526e-08 2.183141e-07 5.379739e-08) (1.341704e-08 -4.187546e-09 3.482904e-08)) ((-6.548377e-10 -8.154775e-11 -7.934215e-11) (9.767215e-05 8.499552e-09 -1.001803e-08))
2670.355101   	((1.498800e-08 2.355485e-07 -1.433517e-07) (1.727377e-08 -1.010279e-08 1.960059e-08)) ((-7.695436e-10 -7.906852e-11 -9.142921e-11) (9.989386e-05 1.131882e-08 -1.026738e-08))
2810.0346     	((1.824021e-08 2.600128e-07 -2.692612e-07) (2.272267e-08 -2.149052e-08 -1.588767e-08)) ((-7.381904e-10 -7.031002e-11 -9.283950e-11) (1.016916e-04 1.367502e-08 -9.736347e-09))
2947.503648   	((-3.047162e-08 2.232675e-07 -2.195258e-07) (2.160969e-08 -1.624092e-10 -1.358465e-08)) ((-6.980965e-10 -4.808288e-11 -6.886763e-11) (1.029342e-04 1.432513e-08 -7.767013e-09))
3081.916305   	((-4.290513e-08 2.806938e-07 -1.365590e-07) (2.149334e-08 2.406089e-08 1.077947e-09)) ((-6.936173e-10 -2.600139e-11 -4.880425e-11) (1.036085e-04 1.454021e-08 -5.608496e-09))
3213.945128   	((-8.649900e-08 1.955701e-07 -1.707540e-07) (2.172782e-08 5.305982e-08 3.045738e-08)) ((-8.670867e-10 4.505549e-12 -3.520546e-11) (1.037946e-04 1.307759e-08 -3.746392e-09))
3344.126266   	((-8.366408e-08 3.836326e-08 -1.749225e-07) (2.117136e-08 4.542639e-08 2.219385e-08)) ((-9.408952e-10 1.784954e-11 -1.913242e-11) (1.036219e-04 1.093674e-08 -2.588076e-09))
3472.984691   	((-3.199872e-09 3.189106e-08 -5.492198e-08) (2.119410e-08 5.152688e-08 1.944347e-08)) ((-1.007311e-09 2.425619e-12 6.426741e-12) (1.032117e-04 8.328569e-09 -2.120097e-09))
3601.033405   	((5.678834e-08 6.475117e-09 2.445980e-08) (2.600748e-08 5.834004e-08 3.224555e-08)) ((-1.049722e-09 -5.669577e-12 2.700473e-11) (1.026722e-04 5.114143e-09 -1.930469e-09))
3728.643774   	((2.257695e-08 -2.030115e-08 5.154136e-08) (2.696691e-08 5.840189e-08 5.559232e-08)) ((-1.076921e-09 6.222016e-12 4.004568e-11) (1.020921e-04 1.268078e-09 -2.604195e-09))
