# Forces      
# CofR        : (0.000000e+00 0.000000e+00 0.000000e+00)
# Time        forces(pressure viscous)	moments(pressure viscous)
0             	((0.000000e+00 0.000000e+00 0.000000e+00) (0.000000e+00 0.000000e+00 0.000000e+00)) ((0.000000e+00 0.000000e+00 0.000000e+00) (0.000000e+00 0.000000e+00 0.000000e+00))
0.012         	((1.788125e-04 -2.112919e-05 -3.562215e-03) (1.827516e-07 -7.290280e-08 -2.354403e-06)) ((4.698932e-08 2.598908e-03 -1.102232e-07) (-2.336536e-08 4.158364e-01 -7.320327e-09))
0.0264        	((-1.179153e-03 -6.311499e-05 3.735634e-03) (-5.072026e-07 -1.508285e-07 -3.405401e-06)) ((7.049217e-08 1.390586e-03 -1.012618e-07) (-1.903587e-08 4.142490e-01 5.404604e-09))
0.04368       	((6.158545e-04 3.544507e-04 -7.321969e-04) (-1.445065e-06 -1.349501e-07 -3.747019e-06)) ((1.093055e-07 1.046076e-03 -1.952004e-09) (1.708303e-08 4.115327e-01 2.786186e-08))
0.064416      	((-8.453077e-04 -2.000706e-04 8.970173e-04) (-2.046473e-06 -4.358881e-08 -4.172469e-06)) ((2.739193e-10 8.530804e-04 -9.063348e-08) (6.095781e-08 4.083368e-01 3.226137e-08))
0.0892992     	((3.855732e-05 3.406084e-06 -4.143813e-04) (-2.758765e-06 1.184544e-07 -4.712818e-06)) ((5.546971e-08 8.149419e-04 -5.418248e-09) (1.217420e-07 4.045825e-01 1.904371e-08))
0.119159      	((-2.353076e-04 -9.914561e-05 1.811541e-04) (-3.560925e-06 3.183000e-07 -5.301822e-06)) ((3.558457e-08 7.605006e-04 -7.310388e-08) (1.764259e-07 4.001990e-01 9.895315e-10))
0.154991      	((1.198335e-04 -1.704452e-05 2.175912e-04) (-4.116595e-06 5.042933e-07 -5.809236e-06)) ((-5.918418e-09 7.307519e-04 -3.104288e-08) (2.189426e-07 3.951276e-01 -1.538458e-08))
0.197989      	((-1.596636e-04 -1.145526e-04 2.403804e-04) (-4.683875e-06 6.244796e-07 -6.546219e-06)) ((5.581882e-08 6.989258e-04 -4.678277e-08) (2.749506e-07 3.893361e-01 -1.537767e-08))
0.249587      	((-2.707399e-05 6.672997e-06 3.721970e-04) (-5.246942e-06 5.835499e-07 -8.078696e-06)) ((9.080560e-08 6.705155e-04 -3.785716e-08) (3.477312e-07 3.828379e-01 3.901252e-08))
0.311504      	((-8.421672e-06 -8.306347e-05 1.517454e-04) (-5.887982e-06 4.787548e-07 -1.033198e-05)) ((1.007280e-07 6.388946e-04 -5.626004e-08) (4.167891e-07 3.757094e-01 1.116988e-07))
0.385805      	((7.546032e-05 3.830412e-06 3.310818e-04) (-6.632019e-06 3.836459e-07 -1.282139e-05)) ((5.413654e-08 6.069448e-04 -4.596046e-08) (4.475410e-07 3.681036e-01 1.600925e-07))
0.474966      	((-6.107746e-05 -3.033594e-05 2.235647e-04) (-7.214387e-06 2.744823e-07 -1.528788e-05)) ((5.304086e-08 5.730030e-04 -4.208799e-08) (4.219905e-07 3.602417e-01 1.795627e-07))
0.581959      	((9.373215e-05 2.417124e-05 2.907031e-04) (-7.658700e-06 2.056539e-07 -1.711943e-05)) ((3.342120e-08 5.404507e-04 -1.638218e-08) (3.888998e-07 3.523609e-01 1.649231e-07))
0.710351      	((-7.223422e-05 3.717766e-05 1.909482e-04) (-7.830485e-06 2.044526e-07 -1.818769e-05)) ((3.364526e-08 5.109519e-04 -1.145575e-08) (3.689870e-07 3.446305e-01 1.599536e-07))
0.864421      	((-2.824691e-04 3.906473e-05 9.164007e-05) (-7.220533e-06 1.675114e-07 -1.990119e-05)) ((1.391985e-08 4.841193e-04 -1.630176e-08) (3.663753e-07 3.370775e-01 1.547268e-07))
1.049306      	((-3.003468e-04 2.390227e-05 2.062955e-04) (-7.424288e-06 -7.292082e-09 -2.109667e-05)) ((1.994946e-08 4.572734e-04 -1.696109e-08) (3.723634e-07 3.293570e-01 1.263216e-07))
1.271167      	((5.161997e-05 1.807503e-05 3.510169e-05) (-8.769497e-06 -2.954401e-07 -2.144857e-05)) ((1.577123e-08 4.296089e-04 -7.685076e-10) (3.497476e-07 3.209671e-01 1.454226e-07))
1.5374        	((-2.248970e-05 8.909206e-06 1.223181e-04) (-1.028988e-05 -4.834231e-07 -2.062712e-05)) ((-2.764579e-08 4.046058e-04 1.583020e-08) (3.180690e-07 3.117789e-01 1.501011e-07))
1.85688       	((-1.902005e-04 -2.144392e-05 8.977566e-05) (-1.181251e-05 -6.043551e-07 -2.234232e-05)) ((-4.440527e-08 3.867059e-04 3.411878e-08) (3.664473e-07 3.020270e-01 7.176314e-08))
2.240256      	((-1.212984e-04 -1.012854e-05 -1.124501e-04) (-1.469410e-05 -6.276556e-07 -2.217895e-05)) ((-3.848047e-08 3.761145e-04 2.786330e-08) (4.453629e-07 2.920359e-01 -3.062186e-08))
2.700307      	((1.215175e-05 6.916802e-05 2.111639e-05) (-1.819750e-05 -5.236488e-07 -1.646593e-05)) ((7.760033e-10 3.667615e-04 1.214788e-08) (4.302599e-07 2.821034e-01 -1.253136e-07))
3.252369      	((6.925168e-05 4.619577e-05 2.641298e-04) (-2.335968e-05 -4.085471e-07 -1.321040e-05)) ((5.571228e-08 3.538284e-04 -3.439012e-08) (5.542213e-07 2.724983e-01 -2.471204e-07))
3.9007        	((3.128082e-04 -5.503798e-05 2.413590e-04) (-3.021240e-05 -1.064634e-06 -1.223590e-05)) ((2.479553e-08 3.375912e-04 -2.287974e-08) (8.590281e-07 2.634837e-01 -4.248011e-07))
4.645449      	((6.565202e-04 -1.505241e-04 7.086959e-04) (-3.431230e-05 -1.529330e-06 -7.176440e-06)) ((2.219998e-08 3.194763e-04 -7.815155e-08) (9.855893e-07 2.550051e-01 -6.319734e-07))
5.486864      	((4.536796e-04 -1.397531e-04 9.818423e-04) (-3.242144e-05 -2.798025e-06 1.779991e-06)) ((-5.967248e-08 3.036621e-04 -1.882760e-08) (7.030128e-07 2.469654e-01 -5.962364e-07))
6.425375      	((9.142375e-05 -2.119736e-04 1.311162e-03) (-2.018612e-05 -2.630589e-06 1.194212e-05)) ((-1.409952e-07 2.896168e-04 6.004402e-08) (3.439201e-07 2.394206e-01 -8.535767e-07))
7.401228      	((9.046325e-04 -7.390544e-05 1.565647e-03) (1.047599e-05 -3.643636e-06 1.719130e-05)) ((-2.180316e-07 2.764462e-04 1.076348e-07) (1.781791e-07 2.328574e-01 -1.151046e-06))
8.384475      	((1.468214e-03 2.384205e-04 1.683598e-03) (2.154930e-05 -1.914439e-06 1.603935e-05)) ((-1.923455e-07 2.638606e-04 1.479935e-07) (-3.546325e-07 2.273479e-01 -1.120913e-06))
9.377252      	((1.337851e-03 2.380240e-04 1.610979e-03) (2.592290e-05 -3.044416e-06 1.021041e-05)) ((-1.938828e-07 2.524984e-04 1.626218e-07) (-1.113126e-06 2.227467e-01 -9.723936e-07))
10.377081     	((1.693295e-03 1.843921e-04 1.809915e-03) (2.975149e-05 -5.467765e-06 1.068926e-05)) ((-1.827243e-07 2.426670e-04 1.871725e-07) (-1.799356e-06 2.189709e-01 -1.323333e-06))
11.382889     	((1.599413e-03 1.705378e-04 1.830398e-03) (3.504692e-05 -9.616812e-06 8.845456e-06)) ((-3.602345e-07 2.333026e-04 1.509973e-07) (-2.701234e-06 2.159331e-01 -1.258132e-06))
12.395843     	((1.875862e-03 1.119678e-04 2.160574e-03) (4.705531e-05 -1.066479e-05 7.159607e-06)) ((-3.455104e-07 2.243271e-04 1.372671e-07) (-3.461344e-06 2.135106e-01 -5.006092e-07))
13.416631     	((2.334815e-03 1.932733e-04 2.366882e-03) (4.675376e-05 -1.013074e-05 8.799435e-06)) ((-3.150560e-07 2.188569e-04 3.697388e-08) (-4.237699e-06 2.115983e-01 3.100055e-07))
14.438404     	((1.891944e-03 2.978381e-04 2.483907e-03) (4.212792e-05 -6.489249e-06 7.777571e-06)) ((-2.433093e-07 2.155127e-04 -3.831784e-07) (-5.094268e-06 2.101162e-01 7.874420e-07))
15.461044     	((1.469664e-03 3.598208e-04 2.575011e-03) (2.403763e-05 -9.464706e-07 1.020157e-05)) ((-1.585091e-07 2.134190e-04 -4.696691e-07) (-5.609730e-06 2.090026e-01 8.918052e-07))
16.484712     	((6.954704e-04 4.354322e-04 2.804551e-03) (-1.127789e-05 1.508954e-06 2.823565e-05)) ((-2.974240e-08 2.113217e-04 -3.809196e-07) (-5.812332e-06 2.082394e-01 7.676286e-07))
17.509726     	((8.543709e-04 3.345250e-04 2.601030e-03) (-2.639158e-05 7.550622e-07 3.716647e-05)) ((-6.599619e-08 2.096018e-04 -3.941934e-07) (-5.933935e-06 2.077712e-01 1.797793e-06))
18.536323     	((1.999498e-03 4.316178e-04 2.857977e-03) (-1.357042e-05 2.120078e-06 5.057487e-05)) ((-1.254819e-07 2.078513e-04 -4.397421e-07) (-5.561421e-06 2.075448e-01 2.801903e-06))
19.564593     	((2.819664e-03 4.399464e-04 3.502648e-03) (7.768258e-06 -1.455801e-06 7.285073e-05)) ((-6.800712e-08 2.058815e-04 -2.086604e-07) (-4.946112e-06 2.075858e-01 3.243966e-06))
20.594446     	((2.961543e-03 2.317613e-04 3.305053e-03) (2.040426e-05 -4.305759e-06 6.520383e-05)) ((9.664423e-08 2.040804e-04 1.635720e-07) (-4.786519e-06 2.079178e-01 3.748321e-06))
21.626117     	((2.645522e-03 2.899113e-04 2.971684e-03) (-3.040506e-06 -5.193088e-06 4.940505e-05)) ((1.071795e-07 2.025090e-04 1.192685e-07) (-4.867937e-06 2.085244e-01 4.180026e-06))
22.659847     	((2.510649e-03 1.053836e-04 2.768028e-03) (-2.575395e-05 -1.515111e-06 4.599647e-05)) ((-2.466128e-08 2.020109e-04 4.217008e-07) (-4.468641e-06 2.093884e-01 5.459493e-06))
23.695829     	((2.407653e-03 -9.127929e-05 2.601634e-03) (-2.086645e-05 4.577890e-06 3.381705e-05)) ((-1.689883e-08 2.026029e-04 1.215804e-07) (-3.619067e-06 2.104924e-01 7.965998e-06))
24.734014     	((2.861319e-03 -3.986075e-04 1.837896e-03) (-1.575659e-05 8.878879e-06 4.675282e-06)) ((-6.883420e-09 2.036970e-04 -1.347235e-07) (-2.990461e-06 2.118198e-01 9.890148e-06))
25.773941     	((3.679029e-03 -6.915485e-04 2.193814e-03) (-3.325109e-05 1.303566e-05 -2.156469e-05)) ((-2.118462e-07 2.049564e-04 -7.590277e-08) (-1.736247e-06 2.133361e-01 9.587461e-06))
26.815286     	((4.211588e-03 -1.050276e-03 1.772127e-03) (-4.819551e-05 1.700368e-05 -5.415917e-05)) ((-4.600640e-07 2.080175e-04 -9.379501e-08) (3.580406e-07 2.149771e-01 7.757134e-06))
27.858013     	((4.608411e-03 -1.084558e-03 1.156802e-03) (-3.813264e-05 2.005819e-05 -6.275525e-05)) ((-4.573551e-07 2.107041e-04 -7.070202e-08) (1.628261e-06 2.166464e-01 5.336196e-06))
28.901944     	((3.739178e-03 -1.132345e-03 1.739704e-03) (-6.436553e-05 2.116796e-05 -7.730803e-05)) ((-5.206663e-07 2.133054e-04 6.323173e-08) (2.125610e-06 2.182299e-01 2.944979e-06))
29.946493     	((3.445400e-03 -9.504856e-04 1.512289e-03) (-8.366197e-05 1.936452e-05 -8.399314e-05)) ((-3.275140e-07 2.162544e-04 2.583864e-07) (1.610487e-06 2.196645e-01 -8.459541e-08))
