# Forces      
# CofR        : (0.000000e+00 0.000000e+00 0.000000e+00)
# Time        forces(pressure viscous)	moments(pressure viscous)
0             	((0.000000e+00 0.000000e+00 0.000000e+00) (-2.002962e-12 -2.008436e-02 -1.241815e-12)) ((0.000000e+00 0.000000e+00 0.000000e+00) (6.052471e-10 -9.598039e-14 -2.682734e-09))
0.012         	((2.147887e-05 -5.837004e+02 1.752850e-04) (1.925038e-09 -3.320741e-02 2.509371e-08)) ((1.513945e-05 8.627242e-07 -9.757897e-05) (-3.251356e-08 -1.605997e-10 2.779848e-08))
0.0264        	((-1.870055e-03 4.092863e+01 -1.442313e-02) (-2.132252e-08 -3.704075e-02 -1.209940e-07)) ((-5.081191e-07 -1.892237e-07 7.706093e-06) (-3.000711e-09 -1.458238e-10 7.240968e-09))
0.04368       	((-3.235847e-03 1.231143e+02 1.563995e-02) (-8.668733e-08 -3.364328e-02 -3.996214e-08)) ((-6.410832e-06 1.335453e-07 2.453691e-05) (1.716439e-07 -6.504409e-10 -1.642049e-07))
0.064416      	((-3.133148e-04 1.893593e+00 -3.613802e-04) (-3.239986e-07 -3.101407e-02 -9.289556e-08)) ((8.310885e-07 9.007541e-11 -9.118167e-07) (1.938515e-07 -2.608865e-09 -1.873059e-07))
0.0892992     	((1.801711e-03 -1.546304e+00 -2.040596e-03) (-4.295492e-07 -3.048799e-02 -2.800082e-07)) ((8.016252e-07 -3.095135e-07 -1.211064e-06) (1.173738e-07 -8.075176e-11 -1.183639e-07))
0.119159      	((-6.297223e-04 2.944868e+00 -1.048444e-03) (-3.410165e-07 -3.021539e-02 -2.860006e-07)) ((-2.664940e-07 1.790738e-07 5.686056e-07) (7.379981e-08 -6.658472e-09 -9.745486e-08))
0.154991      	((8.659304e-04 1.654590e+00 5.852939e-04) (-3.213204e-07 -2.987229e-02 -2.014025e-07)) ((-1.959697e-07 -9.418905e-08 8.862590e-08) (4.306382e-08 -8.843980e-09 -4.250174e-08))
0.197989      	((-3.414918e-04 6.399148e-01 -4.235294e-04) (-2.999393e-07 -2.951382e-02 -1.576996e-07)) ((-2.551046e-07 2.898565e-07 1.364159e-07) (2.563390e-08 7.288966e-09 -1.141763e-08))
0.249587      	((1.287507e-04 4.606753e-01 -1.621921e-04) (-2.704404e-07 -2.916949e-02 -1.576083e-07)) ((-6.365185e-08 2.568180e-07 1.288977e-07) (1.944112e-08 1.757325e-08 -1.078197e-08))
0.311504      	((-1.364642e-05 3.296050e-01 -1.367408e-05) (-4.238585e-07 -2.884762e-02 -2.383438e-07)) ((2.824945e-08 -3.190096e-08 1.217317e-07) (-5.596308e-09 3.145732e-08 2.141162e-08))
0.385805      	((-6.456229e-05 1.829178e-01 -2.242806e-05) (-5.404472e-07 -2.853081e-02 -2.811972e-07)) ((-4.123208e-08 -7.461211e-08 1.200531e-07) (-3.697306e-08 4.356825e-08 5.415008e-08))
0.474966      	((-1.091625e-04 9.487220e-02 -9.210575e-05) (-5.014447e-07 -2.820437e-02 -2.671772e-07)) ((-5.115228e-08 1.691188e-09 9.549242e-08) (-3.553169e-08 5.026106e-08 4.976758e-08))
0.581959      	((2.414272e-05 4.743592e-02 -1.201560e-04) (-4.296958e-07 -2.786234e-02 -2.224585e-07)) ((-1.111691e-08 2.632418e-08 5.194110e-08) (-3.775591e-08 4.979559e-08 4.992497e-08))
0.710351      	((-7.386068e-05 1.843089e-02 -1.708575e-05) (-4.956731e-08 -2.749736e-02 -1.428075e-07)) ((2.160055e-09 7.378940e-09 3.071317e-08) (-4.060490e-08 4.188452e-08 6.046272e-08))
0.864421      	((1.185233e-04 1.026892e-05 -4.412222e-05) (1.714802e-07 -2.710294e-02 -9.077722e-08)) ((4.518051e-09 1.895695e-08 -1.229651e-08) (-3.519011e-08 3.438632e-08 5.931509e-08))
1.049306      	((-5.848523e-05 -1.153779e-02 5.981166e-06) (8.164625e-09 -2.667536e-02 -6.345101e-08)) ((-1.100821e-09 3.293716e-08 -3.677695e-08) (-1.921492e-08 3.667095e-08 5.177703e-08))
1.271167      	((1.244575e-04 -1.739018e-02 -2.804914e-05) (-4.376426e-07 -2.621010e-02 -1.561817e-07)) ((1.576360e-08 5.150875e-08 -7.058656e-08) (-7.178292e-09 4.488772e-08 4.698028e-08))
1.5374        	((-1.853350e-04 -1.974751e-02 -2.571742e-07) (-6.161210e-07 -2.570420e-02 -3.063358e-07)) ((3.134258e-08 2.490975e-08 -7.468607e-08) (-9.444663e-09 5.364551e-08 4.217196e-08))
1.85688       	((1.269584e-04 -2.052963e-02 -6.581640e-05) (-4.813076e-07 -2.515266e-02 -5.432299e-07)) ((5.148596e-08 -1.422122e-08 -5.272750e-08) (-6.681694e-08 7.373594e-08 6.795627e-08))
2.240256      	((-1.765963e-04 -2.030976e-02 -1.779243e-05) (-3.224670e-07 -2.455426e-02 -4.888445e-07)) ((6.528864e-08 -4.252578e-08 -2.878003e-08) (-1.118810e-07 9.234434e-08 9.285134e-08))
2.700307      	((2.162068e-04 -1.959681e-02 -4.919977e-05) (-1.828786e-07 -2.390938e-02 -2.934591e-07)) ((4.864495e-08 -4.746911e-08 -1.797219e-08) (-1.909677e-07 9.279618e-08 1.302142e-07))
3.252369      	((-1.900018e-04 -1.872718e-02 3.554303e-05) (-1.398364e-07 -2.322293e-02 -6.604896e-09)) ((1.833129e-08 -4.310612e-08 -2.824944e-08) (-2.433749e-07 9.364164e-08 1.399552e-07))
3.914842      	((2.431687e-04 -1.820956e-02 -3.805039e-06) (-9.203720e-07 -2.250718e-02 1.097516e-07)) ((1.211368e-08 -7.289710e-09 -3.024218e-08) (-2.199994e-07 5.139647e-08 1.725619e-07))
4.709811      	((-2.720065e-04 -1.776055e-02 5.702271e-05) (-9.893718e-07 -2.177460e-02 5.594165e-07)) ((-1.821311e-09 7.831201e-08 -1.160935e-08) (-2.912991e-07 5.099962e-08 1.213830e-07))
5.663773      	((2.161414e-04 -1.720944e-02 1.698377e-05) (-1.601831e-06 -2.104555e-02 2.528078e-07)) ((-7.587837e-09 9.397969e-08 4.263030e-08) (-2.729698e-07 2.777514e-08 9.494144e-09))
6.808528      	((-2.748647e-04 -1.672750e-02 2.724066e-05) (-1.141232e-06 -2.034055e-02 1.948977e-07)) ((1.887352e-09 4.066209e-08 1.706318e-08) (-2.373697e-07 3.328371e-08 -1.319794e-07))
8.182233      	((2.089273e-04 -1.630783e-02 -6.531102e-06) (-5.784891e-07 -1.967548e-02 1.093118e-08)) ((7.867820e-09 -9.820316e-09 -4.115062e-08) (-2.517512e-07 3.730946e-08 -3.863224e-07))
9.83068       	((-1.407500e-04 -1.608304e-02 -1.588439e-05) (-3.540057e-07 -1.905333e-02 -2.563721e-07)) ((1.672581e-08 5.912594e-08 1.949954e-08) (-2.521628e-07 5.397859e-08 -3.679259e-07))
11.808816     	((1.585011e-04 -1.624124e-02 -3.028688e-05) (-5.273822e-07 -1.846788e-02 -5.021005e-07)) ((-9.026649e-09 6.358741e-08 -4.190542e-11) (-1.503443e-07 7.891315e-08 -3.798271e-07))
14.182579     	((-1.159681e-04 -1.674751e-02 -6.389886e-06) (-6.102438e-07 -1.791437e-02 -2.427405e-07)) ((-9.559120e-10 2.948111e-08 -1.132735e-08) (-9.216606e-08 8.559069e-08 -2.123297e-07))
17.031095     	((2.511825e-05 -1.770081e-02 7.161241e-06) (-2.540691e-06 -1.739257e-02 7.982340e-07)) ((1.854223e-09 3.615962e-08 -1.339003e-08) (-2.507175e-08 8.129084e-08 -1.475289e-07))
20.449314     	((-1.252533e-04 -1.921044e-02 1.467013e-05) (-3.376546e-06 -1.690824e-02 2.455954e-07)) ((1.261421e-08 4.737054e-08 8.469236e-10) (-6.409333e-08 6.818112e-08 -2.330981e-07))
24.551176     	((2.159674e-05 -2.142909e-02 -1.889305e-05) (-2.771003e-06 -1.646797e-02 -2.532234e-07)) ((1.307031e-10 2.994199e-08 1.806954e-08) (-1.246154e-07 4.763280e-08 -2.835331e-07))
29.473411     	((-7.689890e-05 -2.421886e-02 6.883939e-06) (-3.326772e-06 -1.607211e-02 2.049836e-07)) ((-1.480766e-09 4.359084e-08 -2.559787e-09) (-1.289418e-07 3.851540e-08 -1.967595e-07))
35.224856     	((-2.474059e-05 -2.779568e-02 3.850810e-06) (-2.900376e-06 -1.572795e-02 1.854236e-07)) ((3.178492e-09 4.253889e-08 3.517650e-09) (-9.283450e-08 4.675337e-08 -8.354681e-09))
41.806274     	((-2.800082e-05 -3.185306e-02 5.075653e-06) (-1.878401e-06 -1.544129e-02 2.495309e-07)) ((2.029349e-09 3.797177e-08 1.580962e-08) (-1.321004e-07 5.597382e-08 1.545222e-08))
49.21852      	((2.067640e-05 -3.613155e-02 1.358287e-05) (-3.838381e-07 -1.521444e-02 3.927473e-07)) ((1.131955e-09 4.093194e-08 6.692372e-09) (-1.640202e-07 4.433394e-08 2.787152e-09))
57.457847     	((4.626867e-05 -4.054343e-02 1.889348e-05) (1.452336e-06 -1.503461e-02 2.247981e-07)) ((-6.073886e-10 3.755306e-08 1.445190e-08) (-1.201937e-07 3.772645e-08 7.524843e-09))
65.678099     	((7.747044e-05 -4.493518e-02 2.490935e-05) (2.016139e-06 -1.488659e-02 1.341171e-09)) ((-4.182365e-09 3.215668e-08 1.747838e-08) (-1.311439e-08 3.436852e-08 -7.619488e-08))
73.848349     	((7.222218e-05 -4.874598e-02 3.696784e-05) (1.602663e-06 -1.474231e-02 -3.619107e-07)) ((-2.244301e-09 3.142309e-08 1.866302e-08) (2.327916e-07 3.126836e-08 -2.876285e-07))
81.990572     	((9.107007e-05 -5.211968e-02 5.078776e-05) (1.295284e-06 -1.458773e-02 -5.996835e-07)) ((5.441271e-10 3.323561e-08 1.720662e-08) (4.676496e-07 2.890635e-08 -4.872636e-07))
90.136998     	((9.866363e-05 -5.472968e-02 6.999122e-05) (1.429286e-06 -1.442581e-02 -3.634737e-07)) ((4.832420e-09 3.491927e-08 1.461900e-08) (4.887237e-07 2.887325e-08 -4.978133e-07))
98.308013     	((1.129547e-04 -5.621530e-02 9.160603e-05) (1.723053e-06 -1.427008e-02 3.007005e-07)) ((5.286164e-09 3.556204e-08 1.663683e-08) (3.302941e-07 3.402646e-08 -3.887363e-07))
106.503996    	((1.156209e-04 -5.676359e-02 1.142752e-04) (1.708456e-06 -1.412419e-02 9.394330e-07)) ((3.043962e-09 3.447997e-08 2.059990e-08) (2.140948e-07 4.143865e-08 -3.339763e-07))
114.714667    	((1.271558e-04 -5.686815e-02 1.354157e-04) (1.331372e-06 -1.398831e-02 1.130024e-06)) ((7.957925e-10 3.051771e-08 2.636566e-08) (2.562884e-07 4.508180e-08 -3.730098e-07))
122.932971    	((1.457824e-04 -5.663802e-02 1.645963e-04) (6.944525e-07 -1.386423e-02 1.124174e-06)) ((-5.266395e-10 2.634022e-08 3.193173e-08) (3.907820e-07 4.263570e-08 -4.585876e-07))
131.158582    	((1.644371e-04 -5.609849e-02 1.947082e-04) (2.130845e-07 -1.375259e-02 1.186370e-06)) ((-9.198916e-10 2.083274e-08 3.566899e-08) (5.310597e-07 4.124702e-08 -5.658270e-07))
139.393616    	((1.871146e-04 -5.567167e-02 2.207294e-04) (-1.925636e-08 -1.365197e-02 1.373716e-06)) ((-2.404490e-09 1.429466e-08 3.945234e-08) (6.557090e-07 4.586826e-08 -6.815507e-07))
147.638776    	((2.141588e-04 -5.526187e-02 2.502689e-04) (1.350110e-07 -1.356148e-02 1.741943e-06)) ((-4.107741e-09 8.045803e-09 4.491380e-08) (7.464219e-07 5.304933e-08 -7.650270e-07))
155.893161    	((2.385889e-04 -5.475079e-02 2.828160e-04) (4.649244e-07 -1.347993e-02 2.164654e-06)) ((-4.637618e-09 4.239318e-10 4.799270e-08) (8.211969e-07 6.110158e-08 -8.181254e-07))
164.155881    	((2.671187e-04 -5.431960e-02 3.228218e-04) (8.386512e-07 -1.340584e-02 2.587154e-06)) ((-4.386196e-09 -5.383337e-09 5.052973e-08) (9.238531e-07 6.923338e-08 -9.077863e-07))
172.426568    	((2.964358e-04 -5.393289e-02 3.642546e-04) (1.342711e-06 -1.333819e-02 2.970927e-06)) ((-4.481742e-09 -1.002263e-08 5.316937e-08) (1.063865e-06 7.000789e-08 -1.031597e-06))
180.704912    	((3.283066e-04 -5.355619e-02 4.107749e-04) (2.027963e-06 -1.327582e-02 3.402836e-06)) ((-4.543573e-09 -1.315494e-08 5.491645e-08) (1.231283e-06 6.045925e-08 -1.158002e-06))
188.990383    	((3.625532e-04 -5.318202e-02 4.724290e-04) (2.573444e-06 -1.321750e-02 3.920335e-06)) ((-5.081295e-09 -1.483887e-08 5.729632e-08) (1.428945e-06 4.399459e-08 -1.273168e-06))
197.282399    	((3.978499e-04 -5.274380e-02 5.384768e-04) (2.951994e-06 -1.316341e-02 4.358098e-06)) ((-6.325271e-09 -1.514541e-08 6.037237e-08) (1.673453e-06 3.444296e-08 -1.398307e-06))
205.580462    	((4.330887e-04 -5.223410e-02 6.161262e-04) (3.360753e-06 -1.311379e-02 4.854303e-06)) ((-7.315268e-09 -1.375437e-08 6.254679e-08) (1.956411e-06 2.861675e-08 -1.521298e-06))
213.884153    	((4.687310e-04 -5.180845e-02 6.983804e-04) (3.793077e-06 -1.306887e-02 5.451968e-06)) ((-8.498009e-09 -1.185771e-08 6.494446e-08) (2.311128e-06 2.280176e-08 -1.691370e-06))
222.193066    	((4.989940e-04 -5.149159e-02 7.803839e-04) (4.247124e-06 -1.302827e-02 6.116942e-06)) ((-9.504404e-09 -9.162522e-09 6.634642e-08) (2.706379e-06 2.115357e-08 -1.875780e-06))
230.506778    	((5.393661e-04 -5.130997e-02 8.871600e-04) (4.611944e-06 -1.299121e-02 6.842904e-06)) ((-1.069801e-08 -6.631293e-09 6.787081e-08) (3.139537e-06 2.013593e-08 -2.088852e-06))
238.824876    	((5.972586e-04 -5.114247e-02 1.017238e-03) (5.009108e-06 -1.295706e-02 7.738194e-06)) ((-1.127502e-08 -3.656142e-09 6.858956e-08) (3.590859e-06 2.132806e-08 -2.315481e-06))
247.146964    	((6.645612e-04 -5.092882e-02 1.170893e-03) (5.466007e-06 -1.292523e-02 8.889734e-06)) ((-1.167749e-08 -1.751357e-09 6.975405e-08) (4.076583e-06 2.893717e-08 -2.574854e-06))
255.472667    	((7.390863e-04 -5.058334e-02 1.348176e-03) (5.988845e-06 -1.289486e-02 1.035454e-05)) ((-1.255081e-08 7.188700e-10 7.169805e-08) (4.605151e-06 3.264837e-08 -2.888509e-06))
263.801624    	((8.274978e-04 -5.025180e-02 1.553187e-03) (6.704200e-06 -1.286559e-02 1.222602e-05)) ((-1.363334e-08 2.534237e-09 7.303061e-08) (5.147633e-06 3.376247e-08 -3.206505e-06))
272.13355     	((9.210313e-04 -4.998723e-02 1.775374e-03) (7.609949e-06 -1.283814e-02 1.445730e-05)) ((-1.447585e-08 4.800701e-09 7.428956e-08) (5.716463e-06 4.099724e-08 -3.514121e-06))
280.468104    	((1.030515e-03 -4.980681e-02 2.031903e-03) (8.680135e-06 -1.281317e-02 1.710676e-05)) ((-1.491765e-08 7.301726e-09 7.500033e-08) (6.314521e-06 5.290879e-08 -3.828122e-06))
288.804975    	((1.151767e-03 -4.967670e-02 2.324977e-03) (9.952462e-06 -1.279083e-02 2.022074e-05)) ((-1.448502e-08 9.623982e-09 7.546885e-08) (6.958637e-06 6.143998e-08 -4.152759e-06))
297.143891    	((1.293097e-03 -4.956097e-02 2.658266e-03) (1.150961e-05 -1.277083e-02 2.381808e-05)) ((-1.504337e-08 1.195298e-08 7.671233e-08) (7.686211e-06 6.942214e-08 -4.491084e-06))
305.484585    	((1.449746e-03 -4.944526e-02 3.041331e-03) (1.330672e-05 -1.275257e-02 2.791653e-05)) ((-1.679405e-08 1.381015e-08 7.931771e-08) (8.533521e-06 7.756526e-08 -4.881589e-06))
313.826776    	((1.633250e-03 -4.929862e-02 3.474977e-03) (1.531520e-05 -1.273556e-02 3.249370e-05)) ((-1.982849e-08 1.594541e-08 8.266180e-08) (9.529702e-06 8.490420e-08 -5.342327e-06))
322.170118    	((1.835460e-03 -4.912042e-02 3.974372e-03) (1.751145e-05 -1.271953e-02 3.762587e-05)) ((-2.247644e-08 1.779808e-08 8.642925e-08) (1.069163e-05 9.546748e-08 -5.867484e-06))
330.514206    	((2.059179e-03 -4.892961e-02 4.540979e-03) (1.990298e-05 -1.270438e-02 4.349043e-05)) ((-2.570437e-08 1.959687e-08 9.055951e-08) (1.202714e-05 1.111903e-07 -6.451250e-06))
338.85864     	((2.320667e-03 -4.876839e-02 5.180903e-03) (2.262455e-05 -1.269004e-02 5.019741e-05)) ((-2.994136e-08 2.066729e-08 9.501775e-08) (1.356062e-05 1.203115e-07 -7.097932e-06))
347.203023    	((2.615978e-03 -4.864267e-02 5.904967e-03) (2.573904e-05 -1.267653e-02 5.775299e-05)) ((-3.567999e-08 2.034601e-08 1.002212e-07) (1.534859e-05 1.128913e-07 -7.823496e-06))
355.546967    	((2.949016e-03 -4.854898e-02 6.725306e-03) (2.923971e-05 -1.266396e-02 6.616648e-05)) ((-4.227301e-08 1.946863e-08 1.054569e-07) (1.743192e-05 1.056052e-07 -8.648577e-06))
363.890087    	((3.328691e-03 -4.847412e-02 7.653911e-03) (3.313092e-05 -1.265238e-02 7.559890e-05)) ((-4.889824e-08 1.909313e-08 1.112338e-07) (1.981429e-05 1.101649e-07 -9.604573e-06))
372.231982    	((3.756193e-03 -4.841059e-02 8.697139e-03) (3.742732e-05 -1.264183e-02 8.617849e-05)) ((-5.441418e-08 1.943524e-08 1.187424e-07) (2.251537e-05 1.419451e-07 -1.075078e-05))
380.572214    	((4.238092e-03 -4.836419e-02 9.878175e-03) (4.218331e-05 -1.263223e-02 9.807191e-05)) ((-5.925989e-08 2.050643e-08 1.268867e-07) (2.559102e-05 1.997509e-07 -1.213007e-05))
388.910298    	((4.780760e-03 -4.834243e-02 1.122220e-02) (4.743204e-05 -1.262347e-02 1.114831e-04)) ((-6.384531e-08 2.239710e-08 1.354234e-07) (2.914273e-05 2.565273e-07 -1.377732e-05))
397.245686    	((5.399018e-03 -4.835077e-02 1.274177e-02) (5.324103e-05 -1.261565e-02 1.265932e-04)) ((-6.841962e-08 2.529955e-08 1.451753e-07) (3.324797e-05 2.959398e-07 -1.570804e-05))
405.577777    	((6.099051e-03 -4.839908e-02 1.446581e-02) (5.971215e-05 -1.260902e-02 1.435711e-04)) ((-7.357088e-08 2.770968e-08 1.575867e-07) (3.800934e-05 3.229023e-07 -1.793113e-05))
413.905916    	((6.899367e-03 -4.846844e-02 1.641283e-02) (6.699389e-05 -1.260380e-02 1.625271e-04)) ((-7.926747e-08 2.798770e-08 1.711631e-07) (4.352274e-05 3.327039e-07 -2.049472e-05))
422.229386    	((7.811911e-03 -4.855304e-02 1.860228e-02) (7.523537e-05 -1.260025e-02 1.836731e-04)) ((-8.636869e-08 2.366740e-08 1.831788e-07) (4.979016e-05 3.299394e-07 -2.344602e-05))
430.547415    	((8.836343e-03 -4.867947e-02 2.106653e-02) (8.442126e-05 -1.259831e-02 2.074083e-04)) ((-9.579794e-08 1.602683e-08 1.950065e-07) (5.689193e-05 3.367794e-07 -2.687058e-05))
438.859161    	((9.994686e-03 -4.887763e-02 2.381605e-02) (9.457949e-05 -1.259827e-02 2.341387e-04)) ((-1.093193e-07 8.876413e-09 2.079547e-07) (6.493411e-05 3.599415e-07 -3.086322e-05))
447.163701    	((1.128108e-02 -4.918204e-02 2.686753e-02) (1.057700e-04 -1.260074e-02 2.642440e-04)) ((-1.306053e-07 5.889203e-09 2.244709e-07) (7.402738e-05 4.310839e-07 -3.547432e-05))
455.460037    	((1.272086e-02 -4.962113e-02 3.025977e-02) (1.181557e-04 -1.260663e-02 2.979151e-04)) ((-1.536051e-07 5.461766e-09 2.436153e-07) (8.422775e-05 4.819884e-07 -4.073703e-05))
463.747084    	((1.430783e-02 -5.018952e-02 3.399178e-02) (1.325003e-04 -1.261685e-02 3.357584e-04)) ((-1.788002e-07 8.074530e-09 2.667403e-07) (9.544542e-05 4.288231e-07 -4.644817e-05))
472.023673    	((1.604939e-02 -5.088241e-02 3.808009e-02) (1.493143e-04 -1.263157e-02 3.787212e-04)) ((-2.027163e-07 8.964560e-09 2.952795e-07) (1.075731e-04 3.303262e-07 -5.234951e-05))
480.288609    	((1.796078e-02 -5.176891e-02 4.253468e-02) (1.689042e-04 -1.265114e-02 4.273299e-04)) ((-2.329134e-07 4.062078e-09 3.313819e-07) (1.206019e-04 1.596921e-07 -5.849600e-05))
488.540715    	((1.999851e-02 -5.292646e-02 4.734359e-02) (1.916481e-04 -1.267697e-02 4.818797e-04)) ((-2.678671e-07 -6.586480e-09 3.709800e-07) (1.344862e-04 -2.321819e-07 -6.474972e-05))
496.778813    	((2.218906e-02 -5.441777e-02 5.247676e-02) (2.180420e-04 -1.271064e-02 5.430077e-04)) ((-3.123429e-07 -2.028165e-08 4.098019e-07) (1.489250e-04 -7.914633e-07 -7.081382e-05))
505.001756    	((2.448278e-02 -5.620767e-02 5.789471e-02) (2.480468e-04 -1.275333e-02 6.110180e-04)) ((-3.678379e-07 -3.334397e-08 4.413851e-07) (1.633855e-04 -1.275817e-06 -7.660949e-05))
513.208511    	((2.687111e-02 -5.835950e-02 6.352731e-02) (2.814517e-04 -1.280554e-02 6.858836e-04)) ((-4.399576e-07 -4.729103e-08 4.743806e-07) (1.778047e-04 -1.520176e-06 -8.227479e-05))
521.398197    	((2.927127e-02 -6.101072e-02 6.914737e-02) (3.177334e-04 -1.286796e-02 7.665774e-04)) ((-5.325158e-07 -6.659697e-08 5.123528e-07) (1.923244e-04 -1.544749e-06 -8.784961e-05))
529.570036    	((3.163501e-02 -6.407590e-02 7.463897e-02) (3.561205e-04 -1.294104e-02 8.516683e-04)) ((-6.461644e-07 -8.055258e-08 5.486142e-07) (2.064700e-04 -1.489440e-06 -9.320320e-05))
537.723345    	((3.383623e-02 -6.747346e-02 7.966588e-02) (3.954803e-04 -1.302527e-02 9.398570e-04)) ((-7.798084e-07 -9.230628e-08 5.800073e-07) (2.198328e-04 -1.304829e-06 -9.816703e-05))
545.857592    	((3.576439e-02 -7.101199e-02 8.402248e-02) (4.352130e-04 -1.311961e-02 1.028910e-03)) ((-9.385339e-07 -8.175500e-08 6.170542e-07) (2.317771e-04 -8.386436e-07 -1.023700e-04))
553.972713    	((3.719642e-02 -7.477003e-02 8.729471e-02) (4.742263e-04 -1.322376e-02 1.115457e-03)) ((-1.131905e-06 -4.622301e-08 6.647149e-07) (2.416098e-04 -2.950551e-07 -1.055543e-04))
562.069133    	((3.808821e-02 -7.829984e-02 8.927307e-02) (5.105025e-04 -1.333597e-02 1.196261e-03)) ((-1.346080e-06 7.617422e-09 7.145117e-07) (2.486731e-04 -1.342920e-07 -1.077449e-04))
570.147786    	((3.825340e-02 -8.124248e-02 8.970283e-02) (5.412550e-04 -1.345066e-02 1.266312e-03)) ((-1.545358e-06 7.797398e-08 7.494405e-07) (2.533120e-04 -5.746437e-07 -1.094170e-04))
578.210203    	((3.764578e-02 -8.319811e-02 8.837035e-02) (5.639293e-04 -1.355928e-02 1.320498e-03)) ((-1.711297e-06 1.407765e-07 7.721775e-07) (2.559407e-04 -1.425043e-06 -1.108269e-04))
586.258566    	((3.616714e-02 -8.392363e-02 8.524565e-02) (5.759978e-04 -1.365355e-02 1.352825e-03)) ((-1.819588e-06 1.896083e-07 7.661994e-07) (2.571779e-04 -2.443152e-06 -1.118891e-04))
594.295749    	((3.379971e-02 -8.347300e-02 8.016206e-02) (5.751125e-04 -1.373012e-02 1.358083e-03)) ((-1.863461e-06 2.164820e-07 7.846425e-07) (2.568090e-04 -3.482226e-06 -1.120250e-04))
602.325306    	((3.066063e-02 -8.181154e-02 7.298702e-02) (5.593207e-04 -1.378858e-02 1.330099e-03)) ((-1.841550e-06 2.225149e-07 8.234253e-07) (2.551740e-04 -4.612771e-06 -1.112963e-04))
610.351421    	((2.698390e-02 -7.922834e-02 6.437655e-02) (5.286382e-04 -1.382939e-02 1.264228e-03)) ((-1.801585e-06 2.109641e-07 8.525236e-07) (2.528021e-04 -5.849842e-06 -1.097174e-04))
618.378684    	((2.304712e-02 -7.623829e-02 5.530151e-02) (4.837212e-04 -1.385522e-02 1.162705e-03)) ((-1.791870e-06 1.974164e-07 8.461386e-07) (2.507347e-04 -6.998101e-06 -1.077362e-04))
626.411695    	((1.943196e-02 -7.307275e-02 4.653654e-02) (4.284315e-04 -1.387173e-02 1.035001e-03)) ((-1.788171e-06 1.828128e-07 8.322380e-07) (2.491014e-04 -8.185394e-06 -1.055643e-04))
634.454633    	((1.640692e-02 -7.010130e-02 3.899869e-02) (3.692537e-04 -1.388493e-02 8.941144e-04)) ((-1.741710e-06 1.616681e-07 8.157250e-07) (2.467281e-04 -9.191903e-06 -1.026563e-04))
642.510836    	((1.429463e-02 -6.729434e-02 3.326629e-02) (3.112316e-04 -1.389635e-02 7.506752e-04)) ((-1.631970e-06 1.410368e-07 7.738219e-07) (2.443069e-04 -9.879527e-06 -9.965291e-05))
650.582481    	((1.308424e-02 -6.482749e-02 2.981262e-02) (2.585450e-04 -1.390921e-02 6.166108e-04)) ((-1.494821e-06 1.451801e-07 6.969159e-07) (2.419184e-04 -1.025908e-05 -9.719973e-05))
658.670354    	((1.284893e-02 -6.268441e-02 2.838975e-02) (2.141391e-04 -1.392373e-02 5.004609e-04)) ((-1.358138e-06 1.476603e-07 6.427247e-07) (2.404582e-04 -1.041277e-05 -9.574347e-05))
666.773799    	((1.324994e-02 -6.103086e-02 2.837503e-02) (1.815037e-04 -1.394153e-02 4.072492e-04)) ((-1.270497e-06 1.640832e-07 6.084580e-07) (2.392843e-04 -1.050255e-05 -9.452894e-05))
674.89104     	((1.411988e-02 -5.953807e-02 2.923080e-02) (1.633103e-04 -1.396211e-02 3.425537e-04)) ((-1.213652e-06 1.856451e-07 5.618759e-07) (2.358653e-04 -1.043668e-05 -9.229884e-05))
683.019608    	((1.518289e-02 -5.785238e-02 3.056014e-02) (1.590014e-04 -1.397992e-02 3.094314e-04)) ((-1.150371e-06 1.910575e-07 5.126126e-07) (2.282869e-04 -1.012481e-05 -8.869763e-05))
691.156762    	((1.640389e-02 -5.567554e-02 3.200098e-02) (1.657200e-04 -1.398681e-02 3.044111e-04)) ((-1.063877e-06 1.799703e-07 4.727146e-07) (2.169757e-04 -9.413226e-06 -8.445554e-05))
699.299752    	((1.756303e-02 -5.310729e-02 3.344536e-02) (1.788663e-04 -1.397497e-02 3.163877e-04)) ((-9.192344e-07 1.581506e-07 4.325925e-07) (2.060207e-04 -8.377718e-06 -8.109823e-05))
707.445978    	((1.862642e-02 -5.083305e-02 3.495568e-02) (1.954402e-04 -1.394754e-02 3.333626e-04)) ((-7.118629e-07 1.446556e-07 3.587783e-07) (1.986912e-04 -8.008781e-06 -7.878548e-05))
715.593097    	((1.966848e-02 -4.956076e-02 3.662199e-02) (2.148661e-04 -1.391495e-02 3.515172e-04)) ((-5.089363e-07 1.099604e-07 2.634883e-07) (1.947206e-04 -8.988239e-06 -7.688889e-05))
