# Forces      
# CofR        : (0.000000e+00 0.000000e+00 0.000000e+00)
# Time        forces(pressure viscous)	moments(pressure viscous)
0             	((0.000000e+00 0.000000e+00 0.000000e+00) (0.000000e+00 0.000000e+00 0.000000e+00)) ((0.000000e+00 0.000000e+00 0.000000e+00) (0.000000e+00 0.000000e+00 0.000000e+00))
0.012         	((7.411452e-04 -3.389669e-05 -2.152154e-03) (4.324315e-07 -1.316410e-06 -3.252096e-07)) ((3.607077e-02 -8.419754e-06 -1.241275e-04) (1.998175e+00 4.821353e-08 5.842341e-06))
0.0264        	((-7.094340e-04 8.978340e-03 -1.467063e-03) (1.811056e-06 -1.976351e-05 -4.290537e-06)) ((3.082028e-02 -1.931790e-05 -8.450077e-05) (6.149337e+00 -1.321492e-05 4.945887e-05))
0.04368       	((-4.141368e-03 -1.496963e-03 1.445127e-03) (1.255227e-05 -8.523558e-05 -1.651712e-05)) ((3.232526e-02 8.778323e-06 -1.070155e-04) (1.481753e+01 -1.393517e-04 7.361243e-05))
0.064416      	((-1.536990e-03 5.071519e-03 -7.577977e-03) (1.842850e-05 -1.355846e-04 -2.921335e-05)) ((2.987147e-02 1.221305e-05 -9.437084e-05) (1.441747e+01 -2.455885e-04 1.310586e-04))
0.0892992     	((-6.577204e-04 3.848710e-03 1.278420e-03) (2.969786e-05 -1.668392e-04 -5.297945e-05)) ((2.938124e-02 1.224505e-05 -9.696532e-05) (1.384418e+01 -3.828765e-04 1.776087e-04))
0.119159      	((-8.523122e-04 2.150915e-03 -3.472384e-03) (4.129682e-05 -1.607252e-04 -5.170015e-05)) ((2.766506e-02 5.803592e-06 -8.312267e-05) (1.331369e+01 -5.046076e-04 2.030441e-04))
0.154991      	((-1.263779e-03 1.813771e-03 -2.173089e-03) (4.687808e-05 -1.386820e-04 -5.903743e-05)) ((2.675483e-02 -3.140623e-06 -8.214894e-05) (1.287293e+01 -5.737175e-04 2.044276e-04))
0.197989      	((-2.513719e-03 3.296908e-03 -4.414468e-03) (4.383508e-05 -1.265165e-04 -6.091575e-05)) ((2.566022e-02 -2.300322e-07 -8.988698e-05) (1.251804e+01 -5.996867e-04 1.845062e-04))
0.249587      	((-2.945465e-03 4.098803e-03 -1.382725e-03) (4.353530e-05 -1.581619e-04 -6.169767e-05)) ((2.478461e-02 2.816265e-06 -9.748339e-05) (1.219065e+01 -6.244946e-04 1.414140e-04))
0.311504      	((-4.280159e-03 3.700884e-03 4.749025e-04) (4.270674e-05 -2.044100e-04 -8.156976e-05)) ((2.338353e-02 1.258818e-05 -8.812652e-05) (1.183061e+01 -6.615263e-04 5.981092e-05))
0.385344      	((-3.342715e-03 4.320139e-03 6.582641e-04) (3.535965e-05 -2.179884e-04 -1.423016e-04)) ((2.248012e-02 6.551814e-06 -7.150360e-05) (1.144494e+01 -6.628075e-04 -7.586011e-05))
0.471161      	((-2.182931e-03 -1.353241e-03 -2.393259e-03) (1.724961e-05 -1.541616e-04 -2.261154e-04)) ((2.217858e-02 4.910377e-06 -7.197684e-05) (1.107827e+01 -6.500844e-04 -2.120120e-04))
0.56902       	((-4.129667e-03 -2.703219e-03 -3.197615e-03) (-2.094099e-05 -5.053530e-05 -2.866974e-04)) ((2.199380e-02 4.331089e-06 -6.634408e-05) (1.074593e+01 -5.918426e-04 -3.162303e-04))
0.678944      	((-4.619783e-03 2.771360e-03 -3.954763e-03) (-7.456065e-05 1.008633e-05 -2.905089e-04)) ((2.150616e-02 -8.304502e-06 -6.690970e-05) (1.044765e+01 -4.483374e-04 -4.152791e-04))
0.799919      	((-7.158386e-03 1.388871e-02 1.011607e-02) (-1.149800e-04 4.717937e-05 -3.020353e-04)) ((2.078723e-02 -6.072595e-06 -4.838815e-05) (1.017911e+01 -2.551889e-04 -5.033088e-04))
0.921         	((-1.365398e-02 2.503148e-02 2.794169e-02) (-1.361934e-04 1.318596e-04 -2.542638e-04)) ((2.016672e-02 -7.839090e-06 -4.866578e-05) (9.945806e+00 -6.262416e-05 -5.457718e-04))
1.042366      	((-1.662081e-02 3.240504e-02 2.823171e-02) (-1.372628e-04 2.388402e-04 -1.621337e-04)) ((1.967226e-02 9.200487e-08 -6.069034e-05) (9.734308e+00 1.563555e-04 -4.955349e-04))
1.164123      	((-1.835692e-02 4.730131e-02 3.346277e-02) (-1.944766e-04 2.539614e-04 -7.530890e-05)) ((1.937392e-02 1.736557e-05 -6.797094e-05) (9.542042e+00 3.199285e-04 -3.316232e-04))
1.286368      	((-1.800966e-02 5.503801e-02 4.167778e-02) (-3.525839e-04 2.390691e-04 3.146319e-05)) ((1.917308e-02 2.518733e-05 -6.720868e-05) (9.368783e+00 3.430932e-04 -1.451397e-04))
1.409182      	((-1.272420e-02 5.932302e-02 4.424434e-02) (-5.123881e-04 4.086798e-04 1.257566e-04)) ((1.888693e-02 1.892776e-05 -4.564590e-05) (9.214281e+00 2.792913e-04 -3.539968e-05))
1.532668      	((-1.543896e-02 7.712151e-02 6.017517e-02) (-6.087093e-04 2.761197e-04 3.164402e-04)) ((1.854983e-02 3.486263e-05 -6.299838e-05) (9.077249e+00 2.208299e-04 1.556128e-05))
1.656965      	((-2.053173e-02 8.417583e-02 7.248099e-02) (-6.528065e-04 6.058004e-05 3.968552e-04)) ((1.822613e-02 3.632290e-05 -6.561682e-05) (8.957001e+00 1.365515e-04 -3.821869e-06))
1.782108      	((-1.827663e-02 9.459525e-02 8.305693e-02) (-6.028015e-04 3.770197e-04 5.118858e-04)) ((1.788023e-02 3.366897e-05 -6.209542e-05) (8.852821e+00 6.151060e-05 -8.486919e-05))
1.907725      	((-1.754788e-02 1.020038e-01 1.002922e-01) (-5.625798e-04 2.660371e-04 5.313882e-04)) ((1.751854e-02 3.275286e-05 -6.193863e-05) (8.764068e+00 2.941077e-05 -1.817037e-04))
2.033896      	((-2.094156e-02 8.056258e-02 6.843022e-02) (-4.633209e-04 2.075250e-05 3.451118e-04)) ((1.714774e-02 2.160515e-05 -4.613924e-05) (8.689573e+00 -3.723385e-05 -2.550764e-04))
2.160658      	((-2.337614e-02 7.433480e-02 5.361362e-02) (-2.725699e-04 3.022668e-04 2.183151e-04)) ((1.684685e-02 4.972595e-05 -5.005135e-05) (8.627547e+00 -8.709694e-05 -2.611778e-04))
2.288051      	((-1.837430e-02 9.422612e-02 4.643521e-02) (-1.574949e-04 7.146652e-04 7.238620e-07)) ((1.661076e-02 2.793249e-05 -3.418783e-05) (8.575903e+00 -1.792762e-04 -2.359499e-04))
2.416166      	((-2.023611e-02 1.036691e-01 3.020050e-02) (-7.259105e-05 6.626438e-04 -1.722939e-04)) ((1.638122e-02 5.345455e-06 -3.285206e-05) (8.533767e+00 -3.112671e-04 -2.800277e-04))
2.544688      	((-1.978022e-02 1.052946e-01 4.847349e-02) (8.059845e-05 1.093214e-03 -4.016562e-04)) ((1.617308e-02 1.123203e-05 -3.938135e-05) (8.501023e+00 -3.963314e-04 -4.182156e-04))
2.673293      	((-2.270936e-02 1.032579e-01 6.251059e-02) (2.378714e-04 1.566922e-03 -6.662125e-04)) ((1.599207e-02 3.159679e-05 -3.784274e-05) (8.476770e+00 -3.319839e-04 -5.958446e-04))
2.802007      	((-2.054665e-02 9.718064e-02 5.896319e-02) (4.071276e-04 2.234823e-03 -7.544182e-04)) ((1.581480e-02 4.831458e-05 -3.467507e-05) (8.460249e+00 -1.768933e-04 -7.115038e-04))
2.93083       	((-1.938900e-02 1.105654e-01 7.887501e-02) (5.684714e-04 2.728671e-03 -4.586748e-04)) ((1.567251e-02 5.554018e-05 -3.770494e-05) (8.450978e+00 -5.957087e-05 -7.496674e-04))
3.05978       	((-1.426800e-02 1.027375e-01 9.633872e-02) (6.373959e-04 2.759639e-03 6.081776e-06)) ((1.553989e-02 6.285478e-05 -4.161670e-05) (8.448700e+00 8.222590e-05 -7.352068e-04))
3.188871      	((-7.887538e-03 8.091700e-02 8.811782e-02) (6.100009e-04 2.781946e-03 7.038324e-04)) ((1.541017e-02 7.355461e-05 -4.926554e-05) (8.453785e+00 2.494486e-04 -6.257823e-04))
3.318103      	((-9.288695e-03 5.212988e-02 1.072012e-01) (5.691424e-04 2.005998e-03 1.519578e-03)) ((1.532516e-02 9.022513e-05 -5.359072e-05) (8.466306e+00 3.793209e-04 -4.173032e-04))
3.44748       	((-9.235785e-04 3.688320e-02 1.304686e-01) (4.992591e-04 9.008646e-04 1.993378e-03)) ((1.527841e-02 8.868963e-05 -4.735369e-05) (8.485621e+00 4.017518e-04 -2.047066e-04))
3.577013      	((-4.274459e-03 2.713373e-02 1.543524e-01) (2.709372e-04 5.021944e-04 1.972203e-03)) ((1.528417e-02 6.919102e-05 -3.874645e-05) (8.511312e+00 3.413621e-04 -7.334540e-05))
3.706723      	((-1.036685e-02 6.132614e-02 1.947652e-01) (2.727895e-05 -4.405254e-05 1.622496e-03)) ((1.530297e-02 5.144064e-05 -1.761561e-05) (8.543882e+00 2.583966e-04 4.258854e-05))
3.836617      	((-3.208940e-02 5.361566e-02 1.843666e-01) (-1.079356e-04 -9.909544e-04 9.878688e-04)) ((1.532156e-02 4.555199e-05 -9.526531e-06) (8.582640e+00 1.253066e-04 1.324461e-04))
