# Forces      
# CofR        : (0.000000e+00 0.000000e+00 0.000000e+00)
# Time        forces(pressure viscous)	moments(pressure viscous)
0             	((0.000000e+00 0.000000e+00 0.000000e+00) (0.000000e+00 0.000000e+00 0.000000e+00)) ((0.000000e+00 0.000000e+00 0.000000e+00) (0.000000e+00 0.000000e+00 0.000000e+00))
0.012         	((1.437495e-02 1.380213e-02 -1.514094e-02) (2.234158e-06 -2.924998e-06 -5.751883e-07)) ((3.521455e-01 -1.099756e-04 -1.176820e-03) (5.659035e+00 -3.325920e-06 1.921506e-05))
0.0264        	((-6.173238e-02 2.924705e-02 -1.354977e-02) (8.385705e-06 -2.083037e-05 -6.780248e-06)) ((3.767782e-01 7.686586e-05 -1.068248e-03) (8.753204e+00 -2.982375e-05 6.364663e-05))
0.04368       	((-6.612058e-02 2.493098e-02 -1.732850e-02) (-3.300742e-05 -6.652073e-05 -4.315592e-05)) ((3.898608e-01 2.037641e-04 -1.196484e-03) (1.530546e+01 -1.925436e-04 2.346587e-04))
0.0639284     	((-4.872740e-02 5.815924e-02 -2.439639e-02) (-8.458525e-05 1.093754e-04 -2.474575e-04)) ((3.686307e-01 2.360351e-05 -1.065322e-03) (3.245148e+01 -8.405002e-04 5.796752e-04))
0.0871464     	((-1.227875e-02 6.718790e-02 -2.415351e-02) (2.351439e-04 -2.425236e-03 -1.751912e-03)) ((3.696768e-01 -1.059196e-04 -1.163431e-03) (8.600594e+01 -3.916439e-03 4.302926e-03))
0.113335      	((-2.602028e-02 6.320636e-02 -3.688996e-02) (1.163033e-03 -3.461088e-03 -3.400952e-03)) ((3.545741e-01 -2.274680e-04 -1.081950e-03) (1.669402e+02 -1.554666e-02 -1.127235e-03))
0.1425        	((-5.226805e-02 7.120704e-02 -3.512321e-02) (1.025439e-03 -1.956036e-03 -2.319062e-03)) ((3.478280e-01 -2.372696e-04 -1.031961e-03) (1.552293e+02 -1.380615e-02 -3.443690e-03))
0.172253      	((-2.979274e-02 1.027462e-01 -3.548893e-02) (1.029459e-03 -1.505836e-03 -1.655155e-03)) ((3.505796e-01 -1.379226e-04 -1.115516e-03) (1.471451e+02 -1.095113e-02 -3.442347e-03))
0.202051      	((-5.248116e-02 5.063807e-02 -2.601982e-02) (1.132136e-03 -1.882830e-03 -2.081741e-03)) ((3.529742e-01 3.822715e-05 -1.138437e-03) (1.430770e+02 -1.037976e-02 -5.026206e-03))
0.231968      	((-9.127737e-02 8.414358e-02 -5.396836e-02) (1.105976e-03 -1.766916e-03 -2.621087e-03)) ((3.420943e-01 -8.314728e-06 -1.063928e-03) (1.385468e+02 -8.785844e-03 -7.581349e-03))
0.262028      	((-1.997814e-02 4.759496e-02 -4.608924e-02) (7.137233e-04 -8.759139e-04 -2.938964e-03)) ((3.473984e-01 1.707268e-04 -1.097021e-03) (1.342660e+02 -6.051224e-03 -8.770888e-03))
0.292259      	((-3.947687e-02 -7.327545e-02 -7.951941e-02) (-3.985469e-05 3.460283e-05 -2.979792e-03)) ((3.483487e-01 3.382457e-05 -1.165354e-03) (1.309279e+02 -3.281528e-03 -8.756536e-03))
0.322549      	((-6.272471e-02 6.414305e-03 -6.822588e-02) (-7.890573e-04 2.759371e-04 -2.956945e-03)) ((3.433597e-01 3.088029e-05 -1.060502e-03) (1.281538e+02 -8.423504e-05 -7.728361e-03))
0.35291       	((-9.201960e-02 1.160392e-01 -7.274831e-02) (-1.418921e-03 6.800180e-04 -2.770512e-03)) ((3.349534e-01 3.316581e-05 -8.664324e-04) (1.256842e+02 2.856288e-03 -5.786967e-03))
0.383329      	((-1.551491e-01 2.265258e-01 2.687868e-01) (-1.788175e-03 1.049962e-03 -2.129816e-03)) ((3.260246e-01 -1.746255e-04 -6.720932e-04) (1.234358e+02 4.641139e-03 -3.248161e-03))
0.413817      	((-2.367142e-01 3.342651e-01 3.470880e-01) (-1.944926e-03 1.079782e-03 -1.544588e-03)) ((3.183015e-01 4.251042e-05 -8.766148e-04) (1.213570e+02 4.849182e-03 -7.817178e-04))
0.44437       	((-2.627197e-01 7.905292e-01 4.243377e-01) (-2.402603e-03 1.413409e-03 -1.312036e-03)) ((3.126909e-01 3.643199e-05 -1.211046e-03) (1.194349e+02 3.959958e-03 9.797359e-04))
0.475004      	((-2.356339e-01 8.749159e-01 6.637057e-01) (-3.800178e-03 1.033383e-03 -3.278201e-04)) ((3.104096e-01 1.276449e-04 -1.173752e-03) (1.176727e+02 2.233130e-03 2.520131e-03))
0.505736      	((-1.147235e-01 5.844082e-01 5.595911e-01) (-5.347870e-03 1.165940e-03 -1.149863e-03)) ((3.091849e-01 2.203199e-04 -1.041625e-03) (1.160682e+02 -3.203111e-04 3.314181e-03))
0.536589      	((-1.415999e-01 8.424865e-01 4.868904e-01) (-7.022160e-03 4.298641e-04 -1.977938e-03)) ((3.067153e-01 3.667826e-04 -9.481847e-04) (1.146155e+02 -3.142887e-03 2.605401e-03))
0.567581      	((-2.869954e-01 1.005218e+00 7.673099e-01) (-7.960801e-03 6.021791e-05 -6.114890e-04)) ((3.034350e-01 5.886054e-04 -1.029219e-03) (1.133051e+02 -5.631387e-03 4.740398e-04))
0.598746      	((-3.441981e-01 1.168023e+00 8.139578e-01) (-7.966492e-03 9.561210e-04 1.252866e-03)) ((2.997668e-01 5.939761e-04 -9.870101e-04) (1.121310e+02 -6.721614e-03 -2.408679e-03))
0.630096      	((-3.472313e-01 1.424334e+00 1.005543e+00) (-7.904742e-03 3.127476e-03 1.933271e-03)) ((2.959093e-01 4.642248e-04 -1.128850e-03) (1.110911e+02 -5.700520e-03 -5.313437e-03))
0.661537      	((-3.538374e-01 1.561516e+00 1.338262e+00) (-7.665182e-03 6.660907e-03 4.620803e-03)) ((2.919766e-01 2.716536e-04 -1.071851e-03) (1.101839e+02 -3.848518e-03 -7.148594e-03))
0.693082      	((-2.873917e-01 1.331098e+00 1.347134e+00) (-7.303724e-03 6.400391e-03 7.081960e-03)) ((2.884604e-01 2.632047e-04 -1.011780e-03) (1.094008e+02 -2.109462e-03 -7.724901e-03))
0.724737      	((-2.972471e-01 8.454653e-01 7.063991e-01) (-6.377234e-03 5.055384e-03 3.924814e-03)) ((2.850461e-01 4.506769e-04 -9.345470e-04) (1.087258e+02 -5.438798e-04 -6.681653e-03))
0.75651       	((-3.081608e-01 8.979756e-01 4.232688e-01) (-5.268590e-03 4.687760e-03 8.643742e-05)) ((2.824204e-01 3.491249e-04 -4.656002e-04) (1.081495e+02 -6.889241e-04 -4.521991e-03))
0.788418      	((-3.359050e-01 9.600286e-01 4.136986e-01) (-4.039471e-03 6.834566e-03 -3.945237e-03)) ((2.802165e-01 3.750590e-05 -2.915280e-04) (1.076677e+02 -2.874684e-03 -3.357202e-03))
0.820484      	((-3.566212e-01 9.773566e-01 3.150174e-01) (-3.212357e-03 1.272378e-02 -8.038901e-03)) ((2.777421e-01 -1.957790e-04 -4.347677e-04) (1.072711e+02 -5.189055e-03 -4.334637e-03))
0.852723      	((-3.618000e-01 9.971541e-01 5.288809e-01) (-2.588145e-03 1.909558e-02 -6.887177e-03)) ((2.749981e-01 -9.668760e-05 -4.395616e-04) (1.069561e+02 -5.694120e-03 -6.879473e-03))
0.885015      	((-4.022908e-01 9.426658e-01 1.256884e+00) (-1.667247e-03 1.955548e-02 2.067619e-03)) ((2.719350e-01 2.379229e-04 -5.661320e-04) (1.067217e+02 -4.306205e-03 -9.254461e-03))
0.91733       	((-3.773275e-01 8.598021e-01 1.746776e+00) (-3.667894e-04 1.624389e-02 7.103800e-03)) ((2.686318e-01 4.042628e-04 -6.706558e-04) (1.065615e+02 -1.825289e-03 -1.009584e-02))
0.949669      	((-3.825744e-01 9.276382e-01 1.871084e+00) (7.340079e-04 1.883795e-02 5.768677e-03)) ((2.656738e-01 4.033532e-04 -5.846895e-04) (1.064704e+02 8.178889e-04 -9.596571e-03))
