# Forces      
# CofR        : (0.000000e+00 0.000000e+00 0.000000e+00)
# Time        forces(pressure viscous)	moments(pressure viscous)
0             	((0.000000e+00 0.000000e+00 0.000000e+00) (0.000000e+00 0.000000e+00 0.000000e+00)) ((0.000000e+00 0.000000e+00 0.000000e+00) (0.000000e+00 0.000000e+00 0.000000e+00))
0.012         	((2.425472e-01 8.656187e+01 -1.679279e+01) (5.803545e-03 -2.808084e-01 -1.915572e-02)) ((9.234622e-01 -7.752425e-01 1.427420e+03) (-6.135271e-02 2.584513e-03 7.367664e-01))
0.0264        	((-1.035163e-01 -1.681615e+02 -2.637041e+01) (1.302534e-02 -2.875632e-01 -3.476200e-02)) ((-2.147485e+01 -3.614026e+00 -9.137285e+02) (-6.202080e-02 7.367181e-03 6.944138e-01))
0.04368       	((1.542459e+00 1.236359e+02 -1.648975e+01) (1.424864e-02 -2.654925e-01 -4.091171e-02)) ((1.440738e+01 1.013962e+00 6.387608e+02) (-5.768906e-02 8.849071e-03 6.093926e-01))
0.064416      	((-9.344919e-01 -1.231069e+02 -2.627855e+01) (1.528151e-02 -2.560132e-01 -4.977742e-02)) ((-1.876586e+01 -3.991157e+00 -3.614146e+02) (-5.480106e-02 1.013256e-02 5.593103e-01))
0.0892992     	((4.772662e-01 7.258256e+01 -1.741183e+01) (1.604074e-02 -2.410052e-01 -5.638325e-02)) ((8.349712e+00 -7.068525e-01 2.529444e+02) (-5.111901e-02 1.110328e-02 5.059788e-01))
0.118914      	((-7.847816e-01 -6.041950e+01 -2.373598e+01) (1.697525e-02 -2.302429e-01 -6.429506e-02)) ((-9.313991e+00 -3.187611e+00 -1.212346e+02) (-4.888679e-02 1.135869e-02 4.734784e-01))
0.153333      	((-1.022345e-01 2.325791e+01 -1.885661e+01) (1.780718e-02 -2.194711e-01 -6.988160e-02)) ((5.696877e-01 -1.958552e+00 1.011120e+02) (-4.653805e-02 1.145410e-02 4.378918e-01))
0.192516      	((-7.793562e-01 -2.693002e+01 -2.169283e+01) (1.798545e-02 -2.102945e-01 -7.541773e-02)) ((-4.420315e+00 -3.097891e+00 -3.081101e+01) (-4.474304e-02 1.159189e-02 4.130858e-01))
0.236404      	((-5.900155e-01 4.064546e+00 -1.913996e+01) (1.778231e-02 -2.007538e-01 -8.031505e-02)) ((-1.797682e+00 -2.648059e+00 4.717464e+01) (-4.290709e-02 1.207553e-02 3.887228e-01))
0.282724      	((-8.069653e-01 -1.235849e+01 -2.061567e+01) (1.721420e-02 -1.929177e-01 -8.462762e-02)) ((-2.717636e+00 -3.092366e+00 1.499675e+00) (-4.150014e-02 1.215381e-02 3.710118e-01))
0.328439      	((-7.868868e-01 -2.181467e+00 -1.908496e+01) (1.656107e-02 -1.860977e-01 -8.841133e-02)) ((-2.220908e+00 -2.899182e+00 2.823522e+01) (-4.019081e-02 1.208390e-02 3.559526e-01))
0.373839      	((-8.329769e-01 -7.307401e+00 -1.963735e+01) (1.594050e-02 -1.803649e-01 -9.139683e-02)) ((-2.319302e+00 -3.088711e+00 1.318139e+01) (-3.903047e-02 1.171368e-02 3.444957e-01))
0.419157      	((-8.511539e-01 -3.444617e+00 -1.867898e+01) (1.537317e-02 -1.753073e-01 -9.421005e-02)) ((-2.152758e+00 -2.985484e+00 2.220676e+01) (-3.796215e-02 1.121975e-02 3.343188e-01))
0.464562      	((-8.938397e-01 -5.219337e+00 -1.877415e+01) (1.496378e-02 -1.705070e-01 -9.691982e-02)) ((-2.058445e+00 -3.074768e+00 1.701654e+01) (-3.685721e-02 1.085046e-02 3.261299e-01))
0.510061      	((-8.445744e-01 -3.693074e+00 -1.819264e+01) (1.495712e-02 -1.662607e-01 -9.917194e-02)) ((-1.993163e+00 -3.014227e+00 2.037788e+01) (-3.591582e-02 1.027973e-02 3.186332e-01))
0.555702      	((-8.329524e-01 -4.386799e+00 -1.813526e+01) (1.508559e-02 -1.625267e-01 -1.009204e-01)) ((-1.920987e+00 -3.030751e+00 1.838556e+01) (-3.513920e-02 9.457141e-03 3.117970e-01))
0.601853      	((-8.171125e-01 -3.622287e+00 -1.772531e+01) (1.524527e-02 -1.586991e-01 -1.026406e-01)) ((-1.865115e+00 -2.959868e+00 1.983689e+01) (-3.440739e-02 8.765621e-03 3.056362e-01))
0.648956      	((-7.942144e-01 -3.883800e+00 -1.759548e+01) (1.540305e-02 -1.549041e-01 -1.042516e-01)) ((-1.820906e+00 -2.940379e+00 1.886997e+01) (-3.374536e-02 8.009644e-03 2.999735e-01))
0.69768       	((-7.769108e-01 -3.361528e+00 -1.728654e+01) (1.560735e-02 -1.513420e-01 -1.056880e-01)) ((-1.749458e+00 -2.859826e+00 1.953899e+01) (-3.320626e-02 7.062546e-03 2.946359e-01))
0.748263      	((-7.687455e-01 -3.439872e+00 -1.707921e+01) (1.581204e-02 -1.480087e-01 -1.069064e-01)) ((-1.711856e+00 -2.821450e+00 1.895078e+01) (-3.274204e-02 6.049491e-03 2.896100e-01))
0.7988        	((-7.588633e-01 -3.124551e+00 -1.685697e+01) (1.607336e-02 -1.449143e-01 -1.078290e-01)) ((-1.654140e+00 -2.729567e+00 1.934664e+01) (-3.231914e-02 5.087304e-03 2.850964e-01))
0.849297      	((-7.733482e-01 -3.175184e+00 -1.670893e+01) (1.638472e-02 -1.420645e-01 -1.084770e-01)) ((-1.644303e+00 -2.686676e+00 1.896900e+01) (-3.193592e-02 4.218919e-03 2.808946e-01))
0.899743      	((-7.714010e-01 -2.909173e+00 -1.652644e+01) (1.672398e-02 -1.394639e-01 -1.089643e-01)) ((-1.589050e+00 -2.594665e+00 1.919775e+01) (-3.161592e-02 3.467394e-03 2.769903e-01))
0.950124      	((-8.004647e-01 -2.912793e+00 -1.637478e+01) (1.704621e-02 -1.372007e-01 -1.093354e-01)) ((-1.583578e+00 -2.545098e+00 1.887954e+01) (-3.136090e-02 2.808867e-03 2.734010e-01))
1.000465      	((-7.852348e-01 -2.605492e+00 -1.622641e+01) (1.737647e-02 -1.352155e-01 -1.096119e-01)) ((-1.532240e+00 -2.447997e+00 1.901763e+01) (-3.113947e-02 2.261076e-03 2.701229e-01))
1.050788      	((-8.057574e-01 -2.533453e+00 -1.609047e+01) (1.774857e-02 -1.334646e-01 -1.097333e-01)) ((-1.526290e+00 -2.392612e+00 1.875332e+01) (-3.092782e-02 1.838020e-03 2.671134e-01))
1.101109      	((-7.867143e-01 -2.333437e+00 -1.596950e+01) (1.817088e-02 -1.318903e-01 -1.096912e-01)) ((-1.489387e+00 -2.300421e+00 1.885325e+01) (-3.071301e-02 1.554769e-03 2.643438e-01))
1.151434      	((-8.005557e-01 -2.245094e+00 -1.584212e+01) (1.863213e-02 -1.304564e-01 -1.095165e-01)) ((-1.474438e+00 -2.245818e+00 1.864895e+01) (-3.047924e-02 1.392496e-03 2.617750e-01))
1.201763      	((-7.758747e-01 -2.097272e+00 -1.570023e+01) (1.913269e-02 -1.291286e-01 -1.092913e-01)) ((-1.442088e+00 -2.162093e+00 1.869519e+01) (-3.023410e-02 1.299819e-03 2.593575e-01))
1.252089      	((-7.884740e-01 -2.005240e+00 -1.557358e+01) (1.964521e-02 -1.279451e-01 -1.090154e-01)) ((-1.424047e+00 -2.109073e+00 1.853675e+01) (-2.998563e-02 1.252839e-03 2.570943e-01))
1.302404      	((-7.599289e-01 -1.878352e+00 -1.546939e+01) (2.015561e-02 -1.268896e-01 -1.087076e-01)) ((-1.398670e+00 -2.030652e+00 1.858449e+01) (-2.973249e-02 1.250666e-03 2.549822e-01))
1.352701      	((-7.644487e-01 -1.750142e+00 -1.539687e+01) (2.062624e-02 -1.259439e-01 -1.083647e-01)) ((-1.382753e+00 -1.986230e+00 1.848110e+01) (-2.947359e-02 1.293085e-03 2.530068e-01))
1.402974      	((-7.389249e-01 -1.632559e+00 -1.531865e+01) (2.104229e-02 -1.250556e-01 -1.080272e-01)) ((-1.359952e+00 -1.924292e+00 1.850613e+01) (-2.921976e-02 1.364963e-03 2.511383e-01))
1.453221      	((-7.347128e-01 -1.491366e+00 -1.526565e+01) (2.139869e-02 -1.242170e-01 -1.077197e-01)) ((-1.338276e+00 -1.887151e+00 1.842986e+01) (-2.897553e-02 1.436246e-03 2.493642e-01))
1.503444      	((-7.099882e-01 -1.416421e+00 -1.520211e+01) (2.169795e-02 -1.233903e-01 -1.074216e-01)) ((-1.318419e+00 -1.836221e+00 1.842754e+01) (-2.872859e-02 1.514326e-03 2.476544e-01))
1.553649      	((-7.037734e-01 -1.301009e+00 -1.516054e+01) (2.195658e-02 -1.225590e-01 -1.070705e-01)) ((-1.286527e+00 -1.797277e+00 1.835790e+01) (-2.846253e-02 1.627260e-03 2.459842e-01))
1.603845      	((-6.736748e-01 -1.246565e+00 -1.512377e+01) (2.217663e-02 -1.217248e-01 -1.066660e-01)) ((-1.267778e+00 -1.745819e+00 1.832209e+01) (-2.817284e-02 1.763931e-03 2.443434e-01))
1.654039      	((-6.621443e-01 -1.150314e+00 -1.508021e+01) (2.236214e-02 -1.209221e-01 -1.062269e-01)) ((-1.240525e+00 -1.709228e+00 1.823384e+01) (-2.787633e-02 1.906312e-03 2.427523e-01))
1.704243      	((-6.390151e-01 -1.130749e+00 -1.504204e+01) (2.253984e-02 -1.201607e-01 -1.058068e-01)) ((-1.231451e+00 -1.672740e+00 1.818160e+01) (-2.759377e-02 2.009221e-03 2.411922e-01))
1.754464      	((-6.322582e-01 -1.053869e+00 -1.501698e+01) (2.270896e-02 -1.194711e-01 -1.054061e-01)) ((-1.212142e+00 -1.645112e+00 1.810847e+01) (-2.733411e-02 2.076085e-03 2.397063e-01))
1.804708      	((-6.072751e-01 -1.050479e+00 -1.497769e+01) (2.289225e-02 -1.188197e-01 -1.050183e-01)) ((-1.210429e+00 -1.606547e+00 1.805809e+01) (-2.709243e-02 2.118531e-03 2.382837e-01))
1.854975      	((-5.977755e-01 -9.918611e-01 -1.496068e+01) (2.307903e-02 -1.181985e-01 -1.046303e-01)) ((-1.192802e+00 -1.586475e+00 1.800321e+01) (-2.685368e-02 2.123728e-03 2.369249e-01))
1.905268      	((-5.737939e-01 -9.948927e-01 -1.493261e+01) (2.327742e-02 -1.175950e-01 -1.042358e-01)) ((-1.196890e+00 -1.559103e+00 1.796859e+01) (-2.661337e-02 2.096058e-03 2.356384e-01))
1.955584      	((-5.667542e-01 -9.571285e-01 -1.492856e+01) (2.346413e-02 -1.169910e-01 -1.038223e-01)) ((-1.180091e+00 -1.549515e+00 1.793854e+01) (-2.636512e-02 2.058905e-03 2.344259e-01))
2.005924      	((-5.384436e-01 -9.723751e-01 -1.489937e+01) (2.363229e-02 -1.163718e-01 -1.033945e-01)) ((-1.181300e+00 -1.519326e+00 1.790325e+01) (-2.611620e-02 2.007893e-03 2.332720e-01))
2.056287      	((-5.313529e-01 -9.622598e-01 -1.488712e+01) (2.376604e-02 -1.157436e-01 -1.029249e-01)) ((-1.159875e+00 -1.506819e+00 1.786629e+01) (-2.586735e-02 1.960855e-03 2.321683e-01))
2.106674      	((-5.055237e-01 -9.910635e-01 -1.486688e+01) (2.389189e-02 -1.151113e-01 -1.024168e-01)) ((-1.158120e+00 -1.477924e+00 1.782376e+01) (-2.562538e-02 1.914061e-03 2.310972e-01))
2.157086      	((-4.974672e-01 -9.847335e-01 -1.485601e+01) (2.399479e-02 -1.144866e-01 -1.018673e-01)) ((-1.145730e+00 -1.464801e+00 1.779411e+01) (-2.538583e-02 1.872598e-03 2.300617e-01))
2.20753       	((-4.825258e-01 -1.034880e+00 -1.483614e+01) (2.410090e-02 -1.138762e-01 -1.012939e-01)) ((-1.148516e+00 -1.441221e+00 1.776971e+01) (-2.515553e-02 1.828834e-03 2.290453e-01))
2.258009      	((-4.666090e-01 -1.006217e+00 -1.482480e+01) (2.418968e-02 -1.132774e-01 -1.006866e-01)) ((-1.141467e+00 -1.416768e+00 1.773593e+01) (-2.492862e-02 1.807056e-03 2.280450e-01))
2.308531      	((-4.588230e-01 -1.079664e+00 -1.480581e+01) (2.428080e-02 -1.127033e-01 -1.000353e-01)) ((-1.143235e+00 -1.392083e+00 1.772497e+01) (-2.471337e-02 1.827948e-03 2.270811e-01))
2.359098      	((-4.381782e-01 -1.046293e+00 -1.478714e+01) (2.435273e-02 -1.121473e-01 -9.936191e-02)) ((-1.137162e+00 -1.357385e+00 1.767632e+01) (-2.451255e-02 1.877694e-03 2.261453e-01))
2.409717      	((-4.381152e-01 -1.145235e+00 -1.476795e+01) (2.443425e-02 -1.116407e-01 -9.867064e-02)) ((-1.143217e+00 -1.332300e+00 1.768729e+01) (-2.432730e-02 1.943669e-03 2.252558e-01))
2.460392      	((-4.174805e-01 -1.088654e+00 -1.473855e+01) (2.451048e-02 -1.111631e-01 -9.796887e-02)) ((-1.134015e+00 -1.289624e+00 1.761985e+01) (-2.415156e-02 2.021878e-03 2.243864e-01))
2.51113       	((-4.284717e-01 -1.230657e+00 -1.471951e+01) (2.461511e-02 -1.107255e-01 -9.724901e-02)) ((-1.144582e+00 -1.266745e+00 1.763056e+01) (-2.398623e-02 2.113065e-03 2.235399e-01))
2.561935      	((-4.026310e-01 -1.128634e+00 -1.467843e+01) (2.473398e-02 -1.102976e-01 -9.650733e-02)) ((-1.127194e+00 -1.219590e+00 1.755165e+01) (-2.382749e-02 2.235441e-03 2.226896e-01))
2.612809      	((-4.175572e-01 -1.291590e+00 -1.464219e+01) (2.489511e-02 -1.098776e-01 -9.573669e-02)) ((-1.140072e+00 -1.193280e+00 1.756015e+01) (-2.368126e-02 2.393458e-03 2.218328e-01))
2.663746      	((-3.806205e-01 -1.172148e+00 -1.458905e+01) (2.505220e-02 -1.094323e-01 -9.494577e-02)) ((-1.118188e+00 -1.140889e+00 1.748619e+01) (-2.354684e-02 2.588265e-03 2.209458e-01))
2.714744      	((-4.009483e-01 -1.331462e+00 -1.455621e+01) (2.523579e-02 -1.089927e-01 -9.412741e-02)) ((-1.135362e+00 -1.115815e+00 1.750336e+01) (-2.342666e-02 2.814782e-03 2.200557e-01))
2.765798      	((-3.640817e-01 -1.193796e+00 -1.450703e+01) (2.540719e-02 -1.085503e-01 -9.330621e-02)) ((-1.109493e+00 -1.068473e+00 1.743638e+01) (-2.330974e-02 3.055209e-03 2.191594e-01))
2.816905      	((-3.861575e-01 -1.349751e+00 -1.447226e+01) (2.560427e-02 -1.081348e-01 -9.249343e-02)) ((-1.130797e+00 -1.039657e+00 1.745415e+01) (-2.320025e-02 3.295921e-03 2.182757e-01))
2.868055      	((-3.382240e-01 -1.187878e+00 -1.441593e+01) (2.579386e-02 -1.077038e-01 -9.167726e-02)) ((-1.102159e+00 -9.855749e-01 1.739271e+01) (-2.310051e-02 3.558179e-03 2.173726e-01))
2.919244      	((-3.575218e-01 -1.330689e+00 -1.437730e+01) (2.600912e-02 -1.072715e-01 -9.087303e-02)) ((-1.127119e+00 -9.511396e-01 1.741029e+01) (-2.300843e-02 3.823828e-03 2.164762e-01))
2.970461      	((-3.109806e-01 -1.173502e+00 -1.432838e+01) (2.620991e-02 -1.068449e-01 -9.009330e-02)) ((-1.094778e+00 -9.012401e-01 1.735632e+01) (-2.292118e-02 4.078575e-03 2.155963e-01))
3.021701      	((-3.300874e-01 -1.282133e+00 -1.428737e+01) (2.641175e-02 -1.064420e-01 -8.931177e-02)) ((-1.121722e+00 -8.694155e-01 1.736232e+01) (-2.284034e-02 4.322679e-03 2.147417e-01))
3.072963      	((-2.910623e-01 -1.142941e+00 -1.424110e+01) (2.658246e-02 -1.060525e-01 -8.853879e-02)) ((-1.089820e+00 -8.293780e-01 1.732382e+01) (-2.277125e-02 4.575266e-03 2.139001e-01))
3.124245      	((-3.078824e-01 -1.221539e+00 -1.420561e+01) (2.674006e-02 -1.056774e-01 -8.777780e-02)) ((-1.118204e+00 -8.012249e-01 1.732693e+01) (-2.271051e-02 4.837423e-03 2.130628e-01))
3.175547      	((-2.764615e-01 -1.118168e+00 -1.416627e+01) (2.686516e-02 -1.053068e-01 -8.702548e-02)) ((-1.085712e+00 -7.700596e-01 1.730095e+01) (-2.266211e-02 5.116385e-03 2.122333e-01))
3.226868      	((-2.887797e-01 -1.165773e+00 -1.413057e+01) (2.697243e-02 -1.049353e-01 -8.629535e-02)) ((-1.115071e+00 -7.472899e-01 1.729315e+01) (-2.261708e-02 5.394110e-03 2.114147e-01))
3.278209      	((-2.616889e-01 -1.106710e+00 -1.410035e+01) (2.704256e-02 -1.045611e-01 -8.559514e-02)) ((-1.084367e+00 -7.239249e-01 1.727825e+01) (-2.258378e-02 5.682233e-03 2.106244e-01))
3.329574      	((-2.651765e-01 -1.122964e+00 -1.406696e+01) (2.710934e-02 -1.041807e-01 -8.491900e-02)) ((-1.116844e+00 -7.001518e-01 1.727753e+01) (-2.255618e-02 5.974163e-03 2.098585e-01))
3.380966      	((-2.403528e-01 -1.080564e+00 -1.404577e+01) (2.715874e-02 -1.038131e-01 -8.428312e-02)) ((-1.087737e+00 -6.821107e-01 1.727649e+01) (-2.254288e-02 6.273638e-03 2.091283e-01))
3.432396      	((-2.417212e-01 -1.082126e+00 -1.402349e+01) (2.720221e-02 -1.034499e-01 -8.367381e-02)) ((-1.120804e+00 -6.616831e-01 1.728608e+01) (-2.252927e-02 6.567068e-03 2.084166e-01))
3.483872      	((-2.216898e-01 -1.047399e+00 -1.400795e+01) (2.722453e-02 -1.030897e-01 -8.307598e-02)) ((-1.094562e+00 -6.499678e-01 1.729960e+01) (-2.253684e-02 6.887338e-03 2.077159e-01))
3.535402      	((-2.252100e-01 -1.055848e+00 -1.399584e+01) (2.725300e-02 -1.027413e-01 -8.252357e-02)) ((-1.127946e+00 -6.353950e-01 1.731529e+01) (-2.254907e-02 7.187895e-03 2.070226e-01))
3.587002      	((-2.034185e-01 -1.008485e+00 -1.398717e+01) (2.729029e-02 -1.024319e-01 -8.202529e-02)) ((-1.103386e+00 -6.255667e-01 1.734305e+01) (-2.257422e-02 7.472376e-03 2.063577e-01))
3.63869       	((-2.045654e-01 -1.031113e+00 -1.397187e+01) (2.737454e-02 -1.021319e-01 -8.155058e-02)) ((-1.136332e+00 -6.075634e-01 1.735066e+01) (-2.261121e-02 7.755476e-03 2.056965e-01))
3.690485      	((-1.759637e-01 -9.447175e-01 -1.397278e+01) (2.748890e-02 -1.018478e-01 -8.108971e-02)) ((-1.110366e+00 -5.983102e-01 1.739453e+01) (-2.265948e-02 8.048411e-03 2.050526e-01))
3.742406      	((-1.781674e-01 -9.722823e-01 -1.396097e+01) (2.764248e-02 -1.015814e-01 -8.066336e-02)) ((-1.141094e+00 -5.838416e-01 1.740271e+01) (-2.270448e-02 8.323442e-03 2.044268e-01))
3.794464      	((-1.501202e-01 -8.854234e-01 -1.396928e+01) (2.781412e-02 -1.013268e-01 -8.025978e-02)) ((-1.117449e+00 -5.760787e-01 1.746414e+01) (-2.276053e-02 8.610395e-03 2.038320e-01))
3.846658      	((-1.471039e-01 -8.978822e-01 -1.396703e+01) (2.802057e-02 -1.010839e-01 -7.988708e-02)) ((-1.147509e+00 -5.585122e-01 1.747797e+01) (-2.281596e-02 8.884272e-03 2.032600e-01))
3.898986      	((-1.192716e-01 -8.179523e-01 -1.398965e+01) (2.822967e-02 -1.008723e-01 -7.956190e-02)) ((-1.123506e+00 -5.539329e-01 1.754727e+01) (-2.287034e-02 9.144764e-03 2.027485e-01))
3.951451      	((-1.117035e-01 -8.100202e-01 -1.398708e+01) (2.844054e-02 -1.006915e-01 -7.927618e-02)) ((-1.152346e+00 -5.320015e-01 1.756364e+01) (-2.291708e-02 9.392075e-03 2.022800e-01))
4.004052      	((-8.282374e-02 -7.511451e-01 -1.401943e+01) (2.863889e-02 -1.005314e-01 -7.902153e-02)) ((-1.128050e+00 -5.300751e-01 1.764534e+01) (-2.296921e-02 9.654651e-03 2.018447e-01))
4.056777      	((-7.195356e-02 -7.469172e-01 -1.401800e+01) (2.886366e-02 -1.003779e-01 -7.880225e-02)) ((-1.155718e+00 -5.065603e-01 1.765857e+01) (-2.301620e-02 9.905350e-03 2.014293e-01))
4.109595      	((-4.140204e-02 -6.999708e-01 -1.406441e+01) (2.908537e-02 -1.002466e-01 -7.861397e-02)) ((-1.132612e+00 -5.052760e-01 1.774582e+01) (-2.306559e-02 1.015133e-02 2.010685e-01))
4.162477      	((-2.682856e-02 -6.803898e-01 -1.406559e+01) (2.932381e-02 -1.001304e-01 -7.846941e-02)) ((-1.157948e+00 -4.802726e-01 1.775244e+01) (-2.311344e-02 1.037771e-02 2.007213e-01))
4.215399      	((3.503471e-03 -6.408941e-01 -1.412810e+01) (2.955115e-02 -1.000443e-01 -7.837322e-02)) ((-1.135124e+00 -4.821335e-01 1.785085e+01) (-2.316246e-02 1.058754e-02 2.003929e-01))
4.26835       	((1.874467e-02 -6.029203e-01 -1.413969e+01) (2.979284e-02 -9.995909e-02 -7.831569e-02)) ((-1.158260e+00 -4.613395e-01 1.785333e+01) (-2.320866e-02 1.077196e-02 2.000610e-01))
4.321321      	((4.200517e-02 -6.011999e-01 -1.421773e+01) (3.002908e-02 -9.989553e-02 -7.830476e-02)) ((-1.135888e+00 -4.681341e-01 1.795761e+01) (-2.325005e-02 1.093132e-02 1.997653e-01))
4.37431       	((5.765358e-02 -5.485130e-01 -1.423274e+01) (3.027750e-02 -9.985694e-02 -7.833613e-02)) ((-1.158594e+00 -4.462753e-01 1.795475e+01) (-2.328490e-02 1.105909e-02 1.995041e-01))
4.427321      	((7.722859e-02 -5.864044e-01 -1.432314e+01) (3.051967e-02 -9.986294e-02 -7.841098e-02)) ((-1.137520e+00 -4.561500e-01 1.806959e+01) (-2.332064e-02 1.116675e-02 1.992971e-01))
4.480369      	((9.790845e-02 -4.886009e-01 -1.433612e+01) (3.076016e-02 -9.987098e-02 -7.853623e-02)) ((-1.156741e+00 -4.341524e-01 1.805931e+01) (-2.335217e-02 1.124561e-02 1.990962e-01))
4.533474      	((1.065192e-01 -5.685324e-01 -1.444012e+01) (3.097162e-02 -9.990207e-02 -7.867886e-02)) ((-1.135705e+00 -4.531993e-01 1.818002e+01) (-2.338976e-02 1.132357e-02 1.989128e-01))
4.586663      	((1.286609e-01 -4.366045e-01 -1.445298e+01) (3.114818e-02 -9.994536e-02 -7.884501e-02)) ((-1.151097e+00 -4.342865e-01 1.815981e+01) (-2.342127e-02 1.138517e-02 1.987352e-01))
4.639965      	((1.338676e-01 -5.651941e-01 -1.456004e+01) (3.128283e-02 -1.000319e-01 -7.901880e-02)) ((-1.131734e+00 -4.563414e-01 1.827479e+01) (-2.345537e-02 1.144194e-02 1.985907e-01))
4.693405      	((1.542830e-01 -4.069585e-01 -1.457416e+01) (3.137861e-02 -1.001183e-01 -7.920395e-02)) ((-1.143231e+00 -4.392466e-01 1.825599e+01) (-2.349091e-02 1.149474e-02 1.984555e-01))
4.747         	((1.543720e-01 -5.637799e-01 -1.468643e+01) (3.143349e-02 -1.002006e-01 -7.940282e-02)) ((-1.126186e+00 -4.612775e-01 1.837448e+01) (-2.353583e-02 1.155838e-02 1.983302e-01))
4.800789      	((1.783210e-01 -3.322458e-01 -1.469743e+01) (3.146905e-02 -1.002683e-01 -7.964320e-02)) ((-1.134348e+00 -4.403634e-01 1.835718e+01) (-2.358175e-02 1.161369e-02 1.982073e-01))
4.854833      	((1.705230e-01 -5.504644e-01 -1.481783e+01) (3.147651e-02 -1.003714e-01 -7.989700e-02)) ((-1.119494e+00 -4.666241e-01 1.849661e+01) (-2.364191e-02 1.167906e-02 1.981101e-01))
4.909186      	((2.024798e-01 -2.438728e-01 -1.481083e+01) (3.146004e-02 -1.004725e-01 -8.019170e-02)) ((-1.127124e+00 -4.363329e-01 1.845445e+01) (-2.369311e-02 1.171724e-02 1.980388e-01))
4.963931      	((1.842032e-01 -5.299529e-01 -1.494371e+01) (3.138506e-02 -1.006282e-01 -8.049512e-02)) ((-1.115221e+00 -4.692675e-01 1.862105e+01) (-2.374960e-02 1.175172e-02 1.980084e-01))
5.01909       	((2.190349e-01 -1.805033e-01 -1.491481e+01) (3.126842e-02 -1.007842e-01 -8.081335e-02)) ((-1.125077e+00 -4.281409e-01 1.856012e+01) (-2.380596e-02 1.178170e-02 1.979926e-01))
5.074681      	((1.978362e-01 -4.802847e-01 -1.505392e+01) (3.108751e-02 -1.009602e-01 -8.114843e-02)) ((-1.113860e+00 -4.585724e-01 1.871883e+01) (-2.386776e-02 1.180791e-02 1.979987e-01))
5.130749      	((2.309308e-01 -1.061839e-01 -1.502244e+01) (3.086349e-02 -1.011417e-01 -8.150345e-02)) ((-1.124436e+00 -4.129099e-01 1.866235e+01) (-2.392222e-02 1.182004e-02 1.980177e-01))
5.187313      	((1.990587e-01 -4.691788e-01 -1.517044e+01) (3.057552e-02 -1.013680e-01 -8.185436e-02)) ((-1.115477e+00 -4.465794e-01 1.881556e+01) (-2.398172e-02 1.183093e-02 1.980588e-01))
5.24438       	((2.345053e-01 -6.834611e-02 -1.512624e+01) (3.022792e-02 -1.016188e-01 -8.221578e-02)) ((-1.127539e+00 -3.963910e-01 1.875584e+01) (-2.404357e-02 1.183187e-02 1.981041e-01))
5.301963      	((1.960374e-01 -4.767461e-01 -1.528761e+01) (2.981577e-02 -1.018916e-01 -8.254993e-02)) ((-1.119811e+00 -4.338840e-01 1.891920e+01) (-2.413294e-02 1.185397e-02 1.981808e-01))
5.360095      	((2.327697e-01 -7.132091e-02 -1.523607e+01) (2.937528e-02 -1.021529e-01 -8.287336e-02)) ((-1.133279e+00 -3.792585e-01 1.885306e+01) (-2.423450e-02 1.189035e-02 1.982595e-01))
5.418254      	((1.946355e-01 -5.092429e-01 -1.541519e+01) (2.887507e-02 -1.024648e-01 -8.315278e-02)) ((-1.130440e+00 -4.177333e-01 1.902959e+01) (-2.435470e-02 1.193851e-02 1.983552e-01))
5.476421      	((2.300275e-01 -1.451767e-01 -1.536652e+01) (2.835571e-02 -1.028034e-01 -8.342201e-02)) ((-1.145869e+00 -3.659595e-01 1.894946e+01) (-2.447304e-02 1.197217e-02 1.984486e-01))
5.534573      	((2.001556e-01 -5.661655e-01 -1.554279e+01) (2.781067e-02 -1.032109e-01 -8.368503e-02)) ((-1.142477e+00 -4.019846e-01 1.911518e+01) (-2.461202e-02 1.199328e-02 1.985719e-01))
5.59271       	((2.333325e-01 -2.534734e-01 -1.550091e+01) (2.723435e-02 -1.036458e-01 -8.395405e-02)) ((-1.157347e+00 -3.547141e-01 1.904086e+01) (-2.475543e-02 1.199750e-02 1.987016e-01))
5.650833      	((2.121624e-01 -6.370011e-01 -1.567744e+01) (2.661651e-02 -1.041362e-01 -8.417778e-02)) ((-1.156465e+00 -3.866401e-01 1.920319e+01) (-2.491650e-02 1.200489e-02 1.988692e-01))
5.708957      	((2.361893e-01 -3.764624e-01 -1.565084e+01) (2.598759e-02 -1.046706e-01 -8.437003e-02)) ((-1.170539e+00 -3.496011e-01 1.914067e+01) (-2.508598e-02 1.201412e-02 1.990494e-01))
5.767094      	((2.202242e-01 -7.526123e-01 -1.581941e+01) (2.533286e-02 -1.052600e-01 -8.451170e-02)) ((-1.170341e+00 -3.792708e-01 1.930291e+01) (-2.527257e-02 1.201766e-02 1.992354e-01))
5.825186      	((2.421815e-01 -5.120876e-01 -1.580316e+01) (2.467193e-02 -1.058884e-01 -8.463330e-02)) ((-1.182418e+00 -3.471542e-01 1.923687e+01) (-2.546754e-02 1.201037e-02 1.994261e-01))
5.88329       	((2.260648e-01 -9.162966e-01 -1.597232e+01) (2.399400e-02 -1.065670e-01 -8.471581e-02)) ((-1.183094e+00 -3.773203e-01 1.940427e+01) (-2.568731e-02 1.200738e-02 1.996296e-01))
5.941324      	((2.463272e-01 -6.468023e-01 -1.596363e+01) (2.332895e-02 -1.072691e-01 -8.478744e-02)) ((-1.190394e+00 -3.504843e-01 1.931890e+01) (-2.591974e-02 1.200480e-02 1.998197e-01))
5.999312      	((2.282793e-01 -1.092307e+00 -1.612753e+01) (2.265496e-02 -1.080225e-01 -8.483440e-02)) ((-1.192686e+00 -3.827530e-01 1.949714e+01) (-2.617837e-02 1.200379e-02 2.000259e-01))
6.057204      	((2.439266e-01 -8.158645e-01 -1.612157e+01) (2.202204e-02 -1.087991e-01 -8.488600e-02)) ((-1.194997e+00 -3.640881e-01 1.939654e+01) (-2.644935e-02 1.199822e-02 2.002118e-01))
6.114962      	((2.252149e-01 -1.296534e+00 -1.628000e+01) (2.142045e-02 -1.096268e-01 -8.489750e-02)) ((-1.197122e+00 -3.980329e-01 1.958811e+01) (-2.675673e-02 1.200521e-02 2.003719e-01))
6.172597      	((2.457691e-01 -9.572110e-01 -1.626896e+01) (2.089487e-02 -1.104514e-01 -8.489956e-02)) ((-1.193487e+00 -3.811385e-01 1.946127e+01) (-2.707391e-02 1.201042e-02 2.004740e-01))
6.230112      	((2.226613e-01 -1.473413e+00 -1.642544e+01) (2.042171e-02 -1.113185e-01 -8.486514e-02)) ((-1.194896e+00 -4.211041e-01 1.967407e+01) (-2.742475e-02 1.203236e-02 2.005610e-01))
6.287509      	((2.468922e-01 -1.128988e+00 -1.639818e+01) (2.004499e-02 -1.121787e-01 -8.482303e-02)) ((-1.191092e+00 -4.029654e-01 1.954514e+01) (-2.778477e-02 1.206004e-02 2.005879e-01))
6.344795      	((2.168966e-01 -1.600835e+00 -1.655178e+01) (1.974588e-02 -1.130440e-01 -8.472594e-02)) ((-1.185150e+00 -4.461878e-01 1.972883e+01) (-2.817502e-02 1.210817e-02 2.005822e-01))
6.401986      	((2.420921e-01 -1.299477e+00 -1.651471e+01) (1.955358e-02 -1.138747e-01 -8.461830e-02)) ((-1.186188e+00 -4.234026e-01 1.962553e+01) (-2.856316e-02 1.215213e-02 2.005081e-01))
6.459105      	((2.074865e-01 -1.729735e+00 -1.666657e+01) (1.945653e-02 -1.146914e-01 -8.445795e-02)) ((-1.172876e+00 -4.697432e-01 1.976510e+01) (-2.898048e-02 1.221346e-02 2.003792e-01))
6.516172      	((2.304438e-01 -1.494117e+00 -1.662006e+01) (1.948405e-02 -1.154788e-01 -8.431745e-02)) ((-1.177387e+00 -4.485330e-01 1.968537e+01) (-2.939898e-02 1.227260e-02 2.001794e-01))
6.573204      	((1.895936e-01 -1.865750e+00 -1.676041e+01) (1.961730e-02 -1.162885e-01 -8.415981e-02)) ((-1.156354e+00 -5.008059e-01 1.978038e+01) (-2.985274e-02 1.235262e-02 1.999382e-01))
6.630213      	((2.132711e-01 -1.657848e+00 -1.670298e+01) (1.988128e-02 -1.170808e-01 -8.402006e-02)) ((-1.166682e+00 -4.788573e-01 1.970242e+01) (-3.030707e-02 1.243774e-02 1.996373e-01))
6.687209      	((1.750916e-01 -1.982571e+00 -1.684482e+01) (2.026084e-02 -1.178539e-01 -8.384128e-02)) ((-1.140402e+00 -5.307832e-01 1.980399e+01) (-3.078223e-02 1.254855e-02 1.992878e-01))
6.744192      	((1.943645e-01 -1.813205e+00 -1.678177e+01) (2.079166e-02 -1.185667e-01 -8.368307e-02)) ((-1.153127e+00 -5.104615e-01 1.970870e+01) (-3.123955e-02 1.265442e-02 1.988804e-01))
6.801174      	((1.580333e-01 -2.075542e+00 -1.691922e+01) (2.141228e-02 -1.192523e-01 -8.350227e-02)) ((-1.125306e+00 -5.631353e-01 1.980873e+01) (-3.169708e-02 1.276216e-02 1.984442e-01))
6.858124      	((1.739214e-01 -1.943778e+00 -1.684546e+01) (2.211599e-02 -1.199090e-01 -8.334660e-02)) ((-1.138632e+00 -5.438389e-01 1.970737e+01) (-3.213238e-02 1.285795e-02 1.979582e-01))
6.915102      	((1.396107e-01 -2.180753e+00 -1.695220e+01) (2.283106e-02 -1.205713e-01 -8.316265e-02)) ((-1.109788e+00 -5.951009e-01 1.977813e+01) (-3.257066e-02 1.296260e-02 1.974592e-01))
6.972043      	((1.456734e-01 -2.085640e+00 -1.688330e+01) (2.356157e-02 -1.212129e-01 -8.294080e-02)) ((-1.120133e+00 -5.843958e-01 1.966571e+01) (-3.299542e-02 1.307407e-02 1.969347e-01))
7.02899       	((1.062535e-01 -2.333239e+00 -1.697173e+01) (2.425600e-02 -1.218503e-01 -8.267834e-02)) ((-1.095034e+00 -6.376931e-01 1.972231e+01) (-3.342734e-02 1.321186e-02 1.963978e-01))
7.085957      	((1.084920e-01 -2.250649e+00 -1.691210e+01) (2.495874e-02 -1.224600e-01 -8.241991e-02)) ((-1.102283e+00 -6.305682e-01 1.958903e+01) (-3.384343e-02 1.336488e-02 1.958357e-01))
7.142928      	((7.801623e-02 -2.490832e+00 -1.696563e+01) (2.565757e-02 -1.230174e-01 -8.215609e-02)) ((-1.079483e+00 -6.748897e-01 1.964431e+01) (-3.424533e-02 1.351619e-02 1.952772e-01))
7.199916      	((8.028139e-02 -2.385191e+00 -1.691617e+01) (2.634668e-02 -1.235254e-01 -8.187710e-02)) ((-1.085134e+00 -6.717176e-01 1.949457e+01) (-3.461699e-02 1.366355e-02 1.947315e-01))
7.25693       	((5.364095e-02 -2.616915e+00 -1.695751e+01) (2.695528e-02 -1.240118e-01 -8.156832e-02)) ((-1.065757e+00 -7.121092e-01 1.955871e+01) (-3.497388e-02 1.381600e-02 1.942101e-01))
7.313981      	((5.321966e-02 -2.505612e+00 -1.692077e+01) (2.751005e-02 -1.244720e-01 -8.124113e-02)) ((-1.069474e+00 -7.108916e-01 1.942419e+01) (-3.531288e-02 1.396817e-02 1.936981e-01))
7.371066      	((3.608482e-02 -2.679358e+00 -1.696447e+01) (2.800264e-02 -1.249132e-01 -8.089894e-02)) ((-1.054568e+00 -7.397891e-01 1.950916e+01) (-3.564369e-02 1.412622e-02 1.931874e-01))
7.428191      	((2.941824e-02 -2.562895e+00 -1.693789e+01) (2.847028e-02 -1.253234e-01 -8.057076e-02)) ((-1.058661e+00 -7.374296e-01 1.936510e+01) (-3.596964e-02 1.429649e-02 1.926806e-01))
7.485371      	((1.626218e-02 -2.733278e+00 -1.697708e+01) (2.888940e-02 -1.257137e-01 -8.026066e-02)) ((-1.047980e+00 -7.569766e-01 1.945291e+01) (-3.629889e-02 1.448620e-02 1.922000e-01))
7.542605      	((5.918141e-03 -2.596544e+00 -1.696565e+01) (2.931505e-02 -1.260837e-01 -7.997675e-02)) ((-1.051476e+00 -7.529432e-01 1.930658e+01) (-3.662089e-02 1.469053e-02 1.917254e-01))
7.599887      	((-6.300095e-03 -2.772526e+00 -1.699531e+01) (2.972569e-02 -1.264305e-01 -7.971396e-02)) ((-1.046118e+00 -7.682108e-01 1.940090e+01) (-3.695425e-02 1.491158e-02 1.912569e-01))
7.657206      	((-1.702481e-02 -2.615855e+00 -1.699016e+01) (3.017820e-02 -1.267499e-01 -7.944925e-02)) ((-1.049156e+00 -7.603089e-01 1.927361e+01) (-3.729931e-02 1.516216e-02 1.907586e-01))
7.714553      	((-2.381780e-02 -2.760983e+00 -1.699606e+01) (3.064697e-02 -1.270750e-01 -7.922200e-02)) ((-1.045820e+00 -7.665069e-01 1.935924e+01) (-3.764803e-02 1.541327e-02 1.902336e-01))
7.771927      	((-3.199496e-02 -2.595277e+00 -1.699052e+01) (3.113490e-02 -1.273955e-01 -7.901884e-02)) ((-1.049895e+00 -7.539748e-01 1.926613e+01) (-3.799397e-02 1.566436e-02 1.896702e-01))
7.8293        	((-3.661199e-02 -2.676251e+00 -1.698563e+01) (3.164703e-02 -1.277174e-01 -7.885036e-02)) ((-1.046126e+00 -7.553752e-01 1.933228e+01) (-3.833580e-02 1.592855e-02 1.890853e-01))
7.886668      	((-4.495050e-02 -2.515227e+00 -1.699414e+01) (3.217768e-02 -1.280297e-01 -7.870702e-02)) ((-1.050920e+00 -7.432450e-01 1.928346e+01) (-3.867521e-02 1.618913e-02 1.884630e-01))
7.944         	((-5.199642e-02 -2.540432e+00 -1.698503e+01) (3.271529e-02 -1.283553e-01 -7.858913e-02)) ((-1.046036e+00 -7.463627e-01 1.932915e+01) (-3.901663e-02 1.644895e-02 1.878314e-01))
8.001356      	((-5.967593e-02 -2.417785e+00 -1.698019e+01) (3.328136e-02 -1.286721e-01 -7.848286e-02)) ((-1.053003e+00 -7.316076e-01 1.930542e+01) (-3.934633e-02 1.672275e-02 1.871683e-01))