# Forces      
# CofR        : (0.000000e+00 0.000000e+00 -9.000000e-02)
# Time        forces(pressure viscous)	moments(pressure viscous)
0             	((0.000000e+00 0.000000e+00 0.000000e+00) (-6.208310e-06 -1.395486e+00 1.479043e-03)) ((0.000000e+00 0.000000e+00 0.000000e+00) (-1.177681e-01 4.289567e-04 3.306603e-01))
0.00943865    	((4.396806e+00 -3.546693e+04 -2.566770e+02) (3.664841e-03 -4.002686e+00 -2.877615e-01)) ((4.664809e+02 5.930614e+01 -2.851609e+02) (-4.474955e-01 -2.337594e-02 1.182388e+00))
0.0204424     	((-1.222904e+01 7.498966e+03 -1.653119e+03) (4.162873e-02 -8.929897e+00 -1.811059e+00)) ((-5.333404e+01 -4.884295e+01 1.869027e+02) (-1.295406e+00 -1.482656e-01 2.264502e+00))
0.0327333     	((-2.168672e+01 4.000785e+03 -1.191327e+03) (1.502045e-01 -9.523182e+00 -3.759257e+00)) ((-1.411074e+02 -4.268115e+01 1.519117e+02) (-1.628559e+00 1.837977e-01 1.848400e+00))
0.0464548     	((-2.600430e+01 -7.742363e+02 -1.111661e+03) (1.432624e-01 -7.760042e+00 -3.419558e+00)) ((-5.716783e+01 -5.473362e+01 7.651112e+01) (-1.344642e+00 1.996538e-01 1.714442e+00))
0.0615997     	((-2.623924e+01 -7.212366e+02 -1.041284e+03) (1.521018e-01 -6.791749e+00 -3.441824e+00)) ((-4.409414e+01 -5.481081e+01 5.465587e+01) (-1.207768e+00 2.264918e-01 1.612302e+00))
0.0766739     	((-2.794182e+01 -5.350448e+02 -1.016278e+03) (1.521758e-01 -6.128700e+00 -3.521162e+00)) ((-3.499373e+01 -5.824278e+01 4.239793e+01) (-1.113362e+00 2.437255e-01 1.532794e+00))
0.0920093     	((-2.683526e+01 -5.567284e+02 -9.740985e+02) (1.509512e-01 -5.613244e+00 -3.577369e+00)) ((-3.094135e+01 -5.929512e+01 3.332037e+01) (-1.038575e+00 2.539523e-01 1.467871e+00))
0.107335      	((-2.517571e+01 -5.798439e+02 -9.455445e+02) (1.517322e-01 -5.210481e+00 -3.623352e+00)) ((-2.855537e+01 -6.055870e+01 2.448155e+01) (-9.802521e-01 2.586914e-01 1.415021e+00))
0.122748      	((-2.327363e+01 -5.973082e+02 -9.094531e+02) (1.541686e-01 -4.882786e+00 -3.656650e+00)) ((-2.710452e+01 -6.089811e+01 1.815804e+01) (-9.307837e-01 2.578323e-01 1.367365e+00))
0.138246      	((-2.141742e+01 -6.177881e+02 -8.821869e+02) (1.578101e-01 -4.610085e+00 -3.683053e+00)) ((-2.603900e+01 -6.160211e+01 1.244680e+01) (-8.882395e-01 2.507707e-01 1.325174e+00))
0.153837      	((-1.950968e+01 -6.378056e+02 -8.513591e+02) (1.618033e-01 -4.375235e+00 -3.707135e+00)) ((-2.531292e+01 -6.166593e+01 7.805621e+00) (-8.510217e-01 2.387037e-01 1.288356e+00))
0.169514      	((-1.820939e+01 -6.557469e+02 -8.257661e+02) (1.651766e-01 -4.166681e+00 -3.731717e+00)) ((-2.477841e+01 -6.225271e+01 4.413207e+00) (-8.181612e-01 2.238555e-01 1.254481e+00))
0.185278      	((-1.705108e+01 -6.723512e+02 -7.979421e+02) (1.675206e-01 -3.980766e+00 -3.756190e+00)) ((-2.440505e+01 -6.240934e+01 1.170226e+00) (-7.884668e-01 2.074459e-01 1.224021e+00))
0.2009        	((-1.626468e+01 -6.891202e+02 -7.753574e+02) (1.685129e-01 -3.817105e+00 -3.774466e+00)) ((-2.419798e+01 -6.331121e+01 -1.966309e+00) (-7.607874e-01 1.906096e-01 1.198199e+00))
0.216343      	((-1.559230e+01 -7.032443e+02 -7.517201e+02) (1.677385e-01 -3.673524e+00 -3.783337e+00)) ((-2.428578e+01 -6.406165e+01 -3.862151e+00) (-7.353155e-01 1.733590e-01 1.176814e+00))
0.231637      	((-1.490003e+01 -7.171268e+02 -7.310320e+02) (1.657091e-01 -3.546860e+00 -3.784145e+00)) ((-2.442839e+01 -6.485568e+01 -5.370632e+00) (-7.130416e-01 1.565760e-01 1.158321e+00))
0.246832      	((-1.445171e+01 -7.291427e+02 -7.089720e+02) (1.627390e-01 -3.434146e+00 -3.777740e+00)) ((-2.456533e+01 -6.529030e+01 -5.560977e+00) (-6.937554e-01 1.398321e-01 1.142158e+00))
0.261374      	((-1.453189e+01 -7.394837e+02 -6.904254e+02) (1.589875e-01 -3.336087e+00 -3.764354e+00)) ((-2.486921e+01 -6.611082e+01 -4.634112e+00) (-6.765866e-01 1.243959e-01 1.128606e+00))
0.274941      	((-1.467231e+01 -7.490663e+02 -6.723239e+02) (1.546837e-01 -3.251916e+00 -3.746202e+00)) ((-2.522458e+01 -6.655500e+01 -3.196989e+00) (-6.618443e-01 1.113987e-01 1.117104e+00))
0.287952      	((-1.479171e+01 -7.561123e+02 -6.560378e+02) (1.503052e-01 -3.176294e+00 -3.725740e+00)) ((-2.552337e+01 -6.701201e+01 -2.174029e+00) (-6.490602e-01 1.004679e-01 1.106395e+00))
0.300673      	((-1.484033e+01 -7.613117e+02 -6.396408e+02) (1.468726e-01 -3.105541e+00 -3.704648e+00)) ((-2.584328e+01 -6.727379e+01 -1.178493e+00) (-6.375980e-01 9.055039e-02 1.095746e+00))
0.313271      	((-1.483775e+01 -7.652739e+02 -6.247751e+02) (1.447940e-01 -3.037740e+00 -3.683240e+00)) ((-2.612444e+01 -6.752324e+01 -5.606248e-01) (-6.267866e-01 8.145609e-02 1.084555e+00))
0.325975      	((-1.494286e+01 -7.674318e+02 -6.095125e+02) (1.439160e-01 -2.971814e+00 -3.660501e+00)) ((-2.643990e+01 -6.761124e+01 -2.447351e-01) (-6.162569e-01 7.340388e-02 1.072788e+00))
0.338954      	((-1.488409e+01 -7.698204e+02 -5.952672e+02) (1.441094e-01 -2.907429e+00 -3.635760e+00)) ((-2.653725e+01 -6.773185e+01 -5.720495e-01) (-6.055954e-01 6.580287e-02 1.060725e+00))
0.35235       	((-1.492947e+01 -7.706353e+02 -5.800148e+02) (1.452318e-01 -2.843883e+00 -3.608192e+00)) ((-2.649757e+01 -6.777040e+01 -4.273158e-01) (-5.952202e-01 5.827239e-02 1.048483e+00))
0.366433      	((-1.483059e+01 -7.723020e+02 -5.645471e+02) (1.464542e-01 -2.780186e+00 -3.576144e+00)) ((-2.624019e+01 -6.779359e+01 -1.101413e+00) (-5.849516e-01 5.048015e-02 1.035770e+00))
0.381208      	((-1.487332e+01 -7.726041e+02 -5.483900e+02) (1.475570e-01 -2.716836e+00 -3.539066e+00)) ((-2.599320e+01 -6.771781e+01 -1.282818e+00) (-5.748371e-01 4.298487e-02 1.022793e+00))
0.396027      	((-1.508242e+01 -7.733533e+02 -5.338058e+02) (1.486717e-01 -2.657866e+00 -3.497548e+00)) ((-2.582673e+01 -6.774286e+01 -1.015602e+00) (-5.652500e-01 3.711194e-02 1.010858e+00))
0.410887      	((-1.540829e+01 -7.732808e+02 -5.187755e+02) (1.500010e-01 -2.603015e+00 -3.452578e+00)) ((-2.581741e+01 -6.759168e+01 -5.789226e-01) (-5.563824e-01 3.227789e-02 1.000015e+00))
0.425778      	((-1.561349e+01 -7.734820e+02 -5.046112e+02) (1.515070e-01 -2.551491e+00 -3.405875e+00)) ((-2.579386e+01 -6.735731e+01 -5.273708e-01) (-5.481406e-01 2.791913e-02 9.898059e-01))
0.440701      	((-1.590425e+01 -7.724410e+02 -4.906374e+02) (1.529584e-01 -2.502562e+00 -3.357162e+00)) ((-2.572280e+01 -6.693924e+01 -2.991696e-01) (-5.404369e-01 2.449779e-02 9.798711e-01))
0.455663      	((-1.606235e+01 -7.697623e+02 -4.767449e+02) (1.545200e-01 -2.456883e+00 -3.306531e+00)) ((-2.547770e+01 -6.639956e+01 -4.736691e-01) (-5.334981e-01 2.225348e-02 9.709843e-01))
0.47067       	((-1.610546e+01 -7.668640e+02 -4.629348e+02) (1.555827e-01 -2.414786e+00 -3.254017e+00)) ((-2.528190e+01 -6.566576e+01 -4.116186e-01) (-5.272718e-01 2.126555e-02 9.636380e-01))
0.485728      	((-1.620346e+01 -7.632073e+02 -4.494122e+02) (1.563882e-01 -2.375465e+00 -3.199555e+00)) ((-2.495195e+01 -6.503641e+01 -5.445604e-02) (-5.212955e-01 2.162218e-02 9.570872e-01))
0.500837      	((-1.620088e+01 -7.589971e+02 -4.364032e+02) (1.572375e-01 -2.338615e+00 -3.143631e+00)) ((-2.474036e+01 -6.436990e+01 1.076225e-01) (-5.156866e-01 2.311024e-02 9.512396e-01))
0.515996      	((-1.627863e+01 -7.549412e+02 -4.240944e+02) (1.585000e-01 -2.303858e+00 -3.086593e+00)) ((-2.446410e+01 -6.392956e+01 6.387723e-01) (-5.104408e-01 2.506417e-02 9.459586e-01))
0.531201      	((-1.628641e+01 -7.501723e+02 -4.123687e+02) (1.601399e-01 -2.270565e+00 -3.028718e+00)) ((-2.422101e+01 -6.350807e+01 7.974530e-01) (-5.056192e-01 2.706629e-02 9.407982e-01))
0.546446      	((-1.636401e+01 -7.451050e+02 -4.012407e+02) (1.620681e-01 -2.238874e+00 -2.970248e+00)) ((-2.405981e+01 -6.320570e+01 1.183675e+00) (-5.014259e-01 2.910814e-02 9.356389e-01))
0.561723      	((-1.646349e+01 -7.392659e+02 -3.904098e+02) (1.643560e-01 -2.208652e+00 -2.911205e+00)) ((-2.392140e+01 -6.305198e+01 1.577081e+00) (-4.978990e-01 3.145122e-02 9.304679e-01))
0.577026      	((-1.647276e+01 -7.326496e+02 -3.803524e+02) (1.664624e-01 -2.179980e+00 -2.851643e+00)) ((-2.371268e+01 -6.302735e+01 1.983751e+00) (-4.947202e-01 3.402744e-02 9.255883e-01))
0.592349      	((-1.639545e+01 -7.265934e+02 -3.710076e+02) (1.689475e-01 -2.152388e+00 -2.792701e+00)) ((-2.374377e+01 -6.311638e+01 1.677441e+00) (-4.919225e-01 3.606685e-02 9.207448e-01))
0.607686      	((-1.625660e+01 -7.201599e+02 -3.622369e+02) (1.717414e-01 -2.125708e+00 -2.735263e+00)) ((-2.370050e+01 -6.327548e+01 1.832066e+00) (-4.895471e-01 3.704627e-02 9.156499e-01))
0.623032      	((-1.616444e+01 -7.144249e+02 -3.537004e+02) (1.745161e-01 -2.099728e+00 -2.679117e+00)) ((-2.381632e+01 -6.350710e+01 1.816856e+00) (-4.876477e-01 3.737522e-02 9.102931e-01))
0.638382      	((-1.606557e+01 -7.073927e+02 -3.455998e+02) (1.770355e-01 -2.074543e+00 -2.623815e+00)) ((-2.379377e+01 -6.372851e+01 2.148215e+00) (-4.860160e-01 3.741716e-02 9.049459e-01))
0.653731      	((-1.584984e+01 -6.999086e+02 -3.378106e+02) (1.794058e-01 -2.050155e+00 -2.569738e+00)) ((-2.401089e+01 -6.399037e+01 2.073951e+00) (-4.847848e-01 3.666089e-02 8.998420e-01))
0.669071      	((-1.563045e+01 -6.921027e+02 -3.302624e+02) (1.819154e-01 -2.026647e+00 -2.517371e+00)) ((-2.404697e+01 -6.428649e+01 2.194175e+00) (-4.841855e-01 3.487362e-02 8.950189e-01))
0.684389      	((-1.551457e+01 -6.837383e+02 -3.230701e+02) (1.846239e-01 -2.003966e+00 -2.466614e+00)) ((-2.412181e+01 -6.475070e+01 2.675987e+00) (-4.842052e-01 3.231884e-02 8.902545e-01))
0.69967       	((-1.526684e+01 -6.753772e+02 -3.162135e+02) (1.871240e-01 -1.982245e+00 -2.417442e+00)) ((-2.421207e+01 -6.514664e+01 2.883738e+00) (-4.846686e-01 2.920125e-02 8.856395e-01))
0.714913      	((-1.505067e+01 -6.678080e+02 -3.100280e+02) (1.894396e-01 -1.961485e+00 -2.370009e+00)) ((-2.429593e+01 -6.566659e+01 3.450321e+00) (-4.854822e-01 2.553616e-02 8.813415e-01))
0.73012       	((-1.489181e+01 -6.601805e+02 -3.039385e+02) (1.917615e-01 -1.941644e+00 -2.324521e+00)) ((-2.452511e+01 -6.619430e+01 3.822690e+00) (-4.865639e-01 2.137498e-02 8.773649e-01))
0.745285      	((-1.467816e+01 -6.516116e+02 -2.979698e+02) (1.942308e-01 -1.922463e+00 -2.280626e+00)) ((-2.470919e+01 -6.666002e+01 4.230609e+00) (-4.879773e-01 1.687793e-02 8.734821e-01))
0.760404      	((-1.434549e+01 -6.428303e+02 -2.919767e+02) (1.968928e-01 -1.903880e+00 -2.238009e+00)) ((-2.491932e+01 -6.696792e+01 4.380516e+00) (-4.896669e-01 1.219497e-02 8.696307e-01))
0.775477      	((-1.400110e+01 -6.346613e+02 -2.865419e+02) (1.998864e-01 -1.885867e+00 -2.196493e+00)) ((-2.519074e+01 -6.730347e+01 4.584527e+00) (-4.916301e-01 7.533306e-03 8.658402e-01))
0.790504      	((-1.353969e+01 -6.261495e+02 -2.811756e+02) (2.032526e-01 -1.868314e+00 -2.156209e+00)) ((-2.544934e+01 -6.752666e+01 5.042071e+00) (-4.938377e-01 2.733165e-03 8.621283e-01))
0.805491      	((-1.321933e+01 -6.177361e+02 -2.758203e+02) (2.070803e-01 -1.851470e+00 -2.117015e+00)) ((-2.585217e+01 -6.785228e+01 5.663403e+00) (-4.962999e-01 -2.081918e-03 8.586517e-01))
0.820449      	((-1.282147e+01 -6.094242e+02 -2.709847e+02) (2.110734e-01 -1.835397e+00 -2.078755e+00)) ((-2.616180e+01 -6.801164e+01 6.164593e+00) (-4.989779e-01 -6.866229e-03 8.553957e-01))
0.835386      	((-1.258425e+01 -6.004671e+02 -2.659805e+02) (2.152553e-01 -1.819682e+00 -2.041683e+00)) ((-2.666666e+01 -6.826745e+01 6.781235e+00) (-5.018666e-01 -1.170671e-02 8.521006e-01))
0.850303      	((-1.222924e+01 -5.918312e+02 -2.613855e+02) (2.196150e-01 -1.804111e+00 -2.005593e+00)) ((-2.704021e+01 -6.833559e+01 7.402244e+00) (-5.048512e-01 -1.651024e-02 8.486406e-01))
0.865204      	((-1.190229e+01 -5.836742e+02 -2.569896e+02) (2.241568e-01 -1.788703e+00 -1.970432e+00)) ((-2.748304e+01 -6.844140e+01 7.873797e+00) (-5.078674e-01 -2.114343e-02 8.450525e-01))
0.880092      	((-1.152728e+01 -5.753099e+02 -2.527555e+02) (2.286332e-01 -1.773508e+00 -1.936273e+00)) ((-2.784626e+01 -6.840886e+01 8.514094e+00) (-5.109929e-01 -2.560420e-02 8.412830e-01))
0.894972      	((-1.121848e+01 -5.662231e+02 -2.485935e+02) (2.329710e-01 -1.758332e+00 -1.903008e+00)) ((-2.831836e+01 -6.837317e+01 8.975348e+00) (-5.142464e-01 -2.978024e-02 8.371810e-01))
0.909846      	((-1.090977e+01 -5.570250e+02 -2.442259e+02) (2.370222e-01 -1.742984e+00 -1.870371e+00)) ((-2.881200e+01 -6.823952e+01 9.476225e+00) (-5.176040e-01 -3.356050e-02 8.326674e-01))
0.924716      	((-1.060234e+01 -5.483858e+02 -2.403811e+02) (2.406662e-01 -1.727625e+00 -1.838479e+00)) ((-2.932663e+01 -6.813185e+01 9.955384e+00) (-5.210144e-01 -3.715213e-02 8.278843e-01))
0.939585      	((-1.024289e+01 -5.395444e+02 -2.363377e+02) (2.438748e-01 -1.712358e+00 -1.807494e+00)) ((-2.984757e+01 -6.789059e+01 1.041280e+01) (-5.243944e-01 -4.057288e-02 8.229009e-01))
0.954454      	((-1.002691e+01 -5.304644e+02 -2.322817e+02) (2.468662e-01 -1.697167e+00 -1.777400e+00)) ((-3.037543e+01 -6.771007e+01 1.087801e+01) (-5.276945e-01 -4.376945e-02 8.177376e-01))
0.969326      	((-9.656892e+00 -5.217205e+02 -2.285202e+02) (2.498010e-01 -1.682035e+00 -1.747903e+00)) ((-3.085583e+01 -6.730949e+01 1.134825e+01) (-5.309266e-01 -4.667896e-02 8.123894e-01))
0.984205      	((-9.339201e+00 -5.128244e+02 -2.249265e+02) (2.524311e-01 -1.667322e+00 -1.718731e+00)) ((-3.136393e+01 -6.694584e+01 1.181209e+01) (-5.342702e-01 -4.920897e-02 8.071524e-01))
0.999092      	((-9.017037e+00 -5.038195e+02 -2.213046e+02) (2.546962e-01 -1.653057e+00 -1.689943e+00)) ((-3.190554e+01 -6.646774e+01 1.224842e+01) (-5.377294e-01 -5.122269e-02 8.020491e-01))
1.013989      	((-8.689798e+00 -4.951865e+02 -2.179735e+02) (2.567323e-01 -1.639015e+00 -1.661491e+00)) ((-3.241983e+01 -6.601275e+01 1.274102e+01) (-5.413178e-01 -5.275394e-02 7.970395e-01))
1.028894      	((-8.330968e+00 -4.862239e+02 -2.144800e+02) (2.586731e-01 -1.624682e+00 -1.633139e+00)) ((-3.297753e+01 -6.540376e+01 1.308272e+01) (-5.451144e-01 -5.391810e-02 7.920953e-01))
1.043805      	((-8.016108e+00 -4.772220e+02 -2.111912e+02) (2.606537e-01 -1.610521e+00 -1.605347e+00)) ((-3.349355e+01 -6.480708e+01 1.339675e+01) (-5.490387e-01 -5.504194e-02 7.875574e-01))
1.05872       	((-7.630004e+00 -4.686308e+02 -2.081917e+02) (2.626406e-01 -1.596947e+00 -1.577896e+00)) ((-3.401214e+01 -6.410250e+01 1.369926e+01) (-5.531557e-01 -5.605419e-02 7.835848e-01))
1.07364       	((-7.461633e+00 -4.602410e+02 -2.052720e+02) (2.647537e-01 -1.584029e+00 -1.550505e+00)) ((-3.454878e+01 -6.358079e+01 1.403106e+01) (-5.574954e-01 -5.683404e-02 7.800658e-01))
1.088565      	((-7.272734e+00 -4.514204e+02 -2.023040e+02) (2.669508e-01 -1.571553e+00 -1.523310e+00)) ((-3.504720e+01 -6.287717e+01 1.440950e+01) (-5.619726e-01 -5.743553e-02 7.768484e-01))
1.103499      	((-7.164751e+00 -4.429409e+02 -1.995082e+02) (2.691196e-01 -1.559215e+00 -1.496515e+00)) ((-3.547694e+01 -6.220600e+01 1.469423e+01) (-5.665675e-01 -5.793559e-02 7.737371e-01))
1.118446      	((-7.022781e+00 -4.341739e+02 -1.967290e+02) (2.710855e-01 -1.547076e+00 -1.470384e+00)) ((-3.593266e+01 -6.144474e+01 1.494292e+01) (-5.711775e-01 -5.836979e-02 7.707930e-01))
1.133405      	((-7.077927e+00 -4.256216e+02 -1.943718e+02) (2.726332e-01 -1.535051e+00 -1.444781e+00)) ((-3.639607e+01 -6.080039e+01 1.506263e+01) (-5.758301e-01 -5.872046e-02 7.679010e-01))
1.148376      	((-7.085509e+00 -4.173583e+02 -1.921278e+02) (2.738158e-01 -1.522821e+00 -1.419172e+00)) ((-3.677831e+01 -5.999302e+01 1.535841e+01) (-5.806263e-01 -5.881654e-02 7.649817e-01))
1.163364      	((-7.221679e+00 -4.091194e+02 -1.900398e+02) (2.746575e-01 -1.510286e+00 -1.393488e+00)) ((-3.716589e+01 -5.931555e+01 1.556250e+01) (-5.854916e-01 -5.863613e-02 7.620303e-01))
1.17837       	((-7.212826e+00 -4.013036e+02 -1.879747e+02) (2.751506e-01 -1.498035e+00 -1.367933e+00)) ((-3.752741e+01 -5.848803e+01 1.557147e+01) (-5.903992e-01 -5.823337e-02 7.593146e-01))
1.193395      	((-7.139381e+00 -3.934994e+02 -1.859651e+02) (2.753990e-01 -1.486147e+00 -1.342927e+00)) ((-3.783261e+01 -5.767835e+01 1.557791e+01) (-5.952492e-01 -5.789911e-02 7.567529e-01))
1.208445      	((-7.046593e+00 -3.855189e+02 -1.839247e+02) (2.755126e-01 -1.474191e+00 -1.318561e+00)) ((-3.817330e+01 -5.687059e+01 1.581219e+01) (-5.999344e-01 -5.774704e-02 7.541544e-01))
1.223521      	((-6.866596e+00 -3.774195e+02 -1.823115e+02) (2.754120e-01 -1.462167e+00 -1.295006e+00)) ((-3.830267e+01 -5.611826e+01 1.619826e+01) (-6.043853e-01 -5.789142e-02 7.514979e-01))
1.238628      	((-6.709296e+00 -3.697516e+02 -1.806794e+02) (2.754364e-01 -1.450143e+00 -1.270971e+00)) ((-3.844352e+01 -5.538273e+01 1.633143e+01) (-6.085371e-01 -5.770144e-02 7.487335e-01))
1.253766      	((-6.548354e+00 -3.618413e+02 -1.792524e+02) (2.755917e-01 -1.438189e+00 -1.247549e+00)) ((-3.858043e+01 -5.471151e+01 1.642962e+01) (-6.125236e-01 -5.762974e-02 7.457781e-01))
1.268937      	((-6.426715e+00 -3.539788e+02 -1.780466e+02) (2.754230e-01 -1.426264e+00 -1.224735e+00)) ((-3.857872e+01 -5.405313e+01 1.647840e+01) (-6.164966e-01 -5.769493e-02 7.426693e-01))
1.284138      	((-6.295319e+00 -3.460538e+02 -1.769884e+02) (2.755853e-01 -1.414286e+00 -1.201630e+00)) ((-3.855055e+01 -5.336851e+01 1.633979e+01) (-6.206427e-01 -5.748190e-02 7.396318e-01))
1.299365      	((-6.101250e+00 -3.385943e+02 -1.763336e+02) (2.764164e-01 -1.402158e+00 -1.178361e+00)) ((-3.848375e+01 -5.263931e+01 1.616975e+01) (-6.248846e-01 -5.699851e-02 7.368288e-01))
1.314611      	((-5.984318e+00 -3.310714e+02 -1.757586e+02) (2.779587e-01 -1.389987e+00 -1.155350e+00)) ((-3.835499e+01 -5.208462e+01 1.607105e+01) (-6.291776e-01 -5.643386e-02 7.343159e-01))
1.329871      	((-5.810095e+00 -3.237542e+02 -1.751925e+02) (2.801877e-01 -1.377364e+00 -1.132616e+00)) ((-3.819371e+01 -5.151076e+01 1.581614e+01) (-6.333300e-01 -5.587553e-02 7.317995e-01))
1.345138      	((-5.630289e+00 -3.166527e+02 -1.748245e+02) (2.829262e-01 -1.364110e+00 -1.109899e+00)) ((-3.802199e+01 -5.097338e+01 1.563117e+01) (-6.373781e-01 -5.513233e-02 7.291079e-01))
1.36041       	((-5.425091e+00 -3.098953e+02 -1.745834e+02) (2.859806e-01 -1.350382e+00 -1.087471e+00)) ((-3.778696e+01 -5.041232e+01 1.537148e+01) (-6.413479e-01 -5.420203e-02 7.263631e-01))
1.375681      	((-5.309657e+00 -3.033425e+02 -1.746391e+02) (2.887809e-01 -1.336432e+00 -1.065745e+00)) ((-3.752524e+01 -4.992686e+01 1.511587e+01) (-6.451987e-01 -5.322753e-02 7.235745e-01))
1.390947      	((-5.216170e+00 -2.970429e+02 -1.750194e+02) (2.911631e-01 -1.322280e+00 -1.044693e+00)) ((-3.720631e+01 -4.948066e+01 1.481388e+01) (-6.488484e-01 -5.214130e-02 7.206714e-01))
1.406206      	((-5.126078e+00 -2.912123e+02 -1.754993e+02) (2.931286e-01 -1.307866e+00 -1.024135e+00)) ((-3.686986e+01 -4.908071e+01 1.445601e+01) (-6.523010e-01 -5.083204e-02 7.175656e-01))
1.421454      	((-5.140326e+00 -2.855662e+02 -1.760899e+02) (2.945316e-01 -1.293367e+00 -1.004106e+00)) ((-3.651056e+01 -4.878302e+01 1.418775e+01) (-6.555774e-01 -4.933058e-02 7.143675e-01))
1.436691      	((-5.143780e+00 -2.799297e+02 -1.768462e+02) (2.953625e-01 -1.278725e+00 -9.847857e-01)) ((-3.610412e+01 -4.848584e+01 1.384671e+01) (-6.586970e-01 -4.774871e-02 7.110222e-01))
1.451914      	((-5.193210e+00 -2.745280e+02 -1.776722e+02) (2.957175e-01 -1.263767e+00 -9.659285e-01)) ((-3.571041e+01 -4.824087e+01 1.347338e+01) (-6.615120e-01 -4.595577e-02 7.073350e-01))
1.467126      	((-5.285594e+00 -2.690851e+02 -1.785445e+02) (2.955795e-01 -1.248540e+00 -9.476213e-01)) ((-3.531018e+01 -4.804443e+01 1.301781e+01) (-6.640266e-01 -4.404874e-02 7.032653e-01))
1.482329      	((-5.378851e+00 -2.638890e+02 -1.795052e+02) (2.950317e-01 -1.233285e+00 -9.300467e-01)) ((-3.484922e+01 -4.784948e+01 1.259996e+01) (-6.662768e-01 -4.215074e-02 6.989446e-01))
1.497528      	((-5.496265e+00 -2.591723e+02 -1.806610e+02) (2.940842e-01 -1.218256e+00 -9.134651e-01)) ((-3.435702e+01 -4.766072e+01 1.213365e+01) (-6.682486e-01 -4.036476e-02 6.944724e-01))
1.512723      	((-5.642938e+00 -2.547823e+02 -1.818211e+02) (2.927902e-01 -1.203748e+00 -8.979351e-01)) ((-3.385265e+01 -4.755627e+01 1.164996e+01) (-6.698652e-01 -3.867973e-02 6.900463e-01))
1.527917      	((-5.847833e+00 -2.504213e+02 -1.829886e+02) (2.911932e-01 -1.189859e+00 -8.836238e-01)) ((-3.334948e+01 -4.748478e+01 1.121579e+01) (-6.711981e-01 -3.723347e-02 6.857806e-01))
1.543108      	((-6.020554e+00 -2.465798e+02 -1.844516e+02) (2.892659e-01 -1.176608e+00 -8.703729e-01)) ((-3.277730e+01 -4.746685e+01 1.075561e+01) (-6.723019e-01 -3.594606e-02 6.816816e-01))
1.558295      	((-6.298118e+00 -2.429053e+02 -1.857436e+02) (2.870449e-01 -1.163906e+00 -8.583728e-01)) ((-3.225759e+01 -4.750096e+01 1.040597e+01) (-6.731604e-01 -3.493232e-02 6.776530e-01))
1.573475      	((-6.553677e+00 -2.395182e+02 -1.872342e+02) (2.846853e-01 -1.151570e+00 -8.477354e-01)) ((-3.170080e+01 -4.757856e+01 1.006016e+01) (-6.736262e-01 -3.418758e-02 6.736407e-01))
1.588644      	((-6.822918e+00 -2.366105e+02 -1.885825e+02) (2.822035e-01 -1.139443e+00 -8.383138e-01)) ((-3.109243e+01 -4.762107e+01 9.608398e+00) (-6.737196e-01 -3.354824e-02 6.695080e-01))
1.6038        	((-7.119709e+00 -2.340477e+02 -1.901016e+02) (2.794276e-01 -1.127865e+00 -8.299099e-01)) ((-3.054427e+01 -4.775138e+01 9.280595e+00) (-6.734723e-01 -3.287508e-02 6.654492e-01))
1.618939      	((-7.366350e+00 -2.313227e+02 -1.915445e+02) (2.758608e-01 -1.116714e+00 -8.230434e-01)) ((-3.000580e+01 -4.786144e+01 8.908532e+00) (-6.730027e-01 -3.258113e-02 6.614804e-01))
1.634062      	((-7.697085e+00 -2.294331e+02 -1.931298e+02) (2.715180e-01 -1.105789e+00 -8.172834e-01)) ((-2.940379e+01 -4.802031e+01 8.491732e+00) (-6.724529e-01 -3.242960e-02 6.574171e-01))
1.649167      	((-8.032631e+00 -2.275529e+02 -1.946499e+02) (2.667637e-01 -1.095058e+00 -8.126689e-01)) ((-2.880640e+01 -4.816581e+01 8.096326e+00) (-6.717712e-01 -3.251269e-02 6.532025e-01))
1.664254      	((-8.405721e+00 -2.261663e+02 -1.963335e+02) (2.616917e-01 -1.084590e+00 -8.091471e-01)) ((-2.823024e+01 -4.836435e+01 7.767669e+00) (-6.708111e-01 -3.275795e-02 6.490371e-01))
1.679331      	((-8.745092e+00 -2.248640e+02 -1.978391e+02) (2.563375e-01 -1.074788e+00 -8.066601e-01)) ((-2.765573e+01 -4.844301e+01 7.433461e+00) (-6.696914e-01 -3.310937e-02 6.451876e-01))
1.694406      	((-9.154921e+00 -2.237523e+02 -1.993611e+02) (2.503353e-01 -1.065596e+00 -8.050139e-01)) ((-2.709956e+01 -4.858661e+01 7.158288e+00) (-6.684272e-01 -3.338754e-02 6.415435e-01))
1.709489      	((-9.548180e+00 -2.230649e+02 -2.006792e+02) (2.438001e-01 -1.056597e+00 -8.043715e-01)) ((-2.655166e+01 -4.865796e+01 6.930392e+00) (-6.669940e-01 -3.377505e-02 6.377578e-01))
1.724588      	((-9.997371e+00 -2.223583e+02 -2.020196e+02) (2.369179e-01 -1.048023e+00 -8.045148e-01)) ((-2.601135e+01 -4.871317e+01 6.724803e+00) (-6.654304e-01 -3.418734e-02 6.339601e-01))
1.739706      	((-1.039730e+01 -2.218673e+02 -2.032191e+02) (2.299544e-01 -1.039820e+00 -8.052469e-01)) ((-2.552463e+01 -4.871845e+01 6.556550e+00) (-6.638196e-01 -3.462017e-02 6.302138e-01))
1.754846      	((-1.083110e+01 -2.214971e+02 -2.042006e+02) (2.229207e-01 -1.032198e+00 -8.065786e-01)) ((-2.507636e+01 -4.866832e+01 6.431715e+00) (-6.620483e-01 -3.509008e-02 6.267629e-01))
1.770008      	((-1.126569e+01 -2.215918e+02 -2.053731e+02) (2.158624e-01 -1.025423e+00 -8.085792e-01)) ((-2.459991e+01 -4.861691e+01 6.273475e+00) (-6.602433e-01 -3.565584e-02 6.237470e-01))
1.78519       	((-1.177075e+01 -2.217605e+02 -2.063132e+02) (2.087980e-01 -1.019533e+00 -8.112960e-01)) ((-2.420750e+01 -4.855985e+01 6.343567e+00) (-6.583556e-01 -3.638683e-02 6.211418e-01))
1.800391      	((-1.219839e+01 -2.222637e+02 -2.072483e+02) (2.018698e-01 -1.014110e+00 -8.148359e-01)) ((-2.380477e+01 -4.842300e+01 6.335120e+00) (-6.562286e-01 -3.737940e-02 6.186347e-01))
1.815604      	((-1.267446e+01 -2.229065e+02 -2.081536e+02) (1.951206e-01 -1.009111e+00 -8.189231e-01)) ((-2.342487e+01 -4.833275e+01 6.399066e+00) (-6.537621e-01 -3.839721e-02 6.162340e-01))
1.830822      	((-1.310450e+01 -2.235574e+02 -2.089916e+02) (1.884985e-01 -1.004532e+00 -8.234590e-01)) ((-2.307728e+01 -4.820365e+01 6.604662e+00) (-6.510417e-01 -3.934345e-02 6.138772e-01))
1.846036      	((-1.353733e+01 -2.246271e+02 -2.098415e+02) (1.820334e-01 -1.000480e+00 -8.283860e-01)) ((-2.271178e+01 -4.808373e+01 6.852450e+00) (-6.481142e-01 -4.019317e-02 6.117314e-01))
1.861237      	((-1.398341e+01 -2.260484e+02 -2.106882e+02) (1.756964e-01 -9.970337e-01 -8.343015e-01)) ((-2.237558e+01 -4.798980e+01 7.161224e+00) (-6.451227e-01 -4.142375e-02 6.099105e-01))
1.876422      	((-1.440189e+01 -2.275447e+02 -2.114258e+02) (1.695812e-01 -9.943350e-01 -8.410452e-01)) ((-2.205007e+01 -4.785311e+01 7.514181e+00) (-6.420183e-01 -4.296464e-02 6.085317e-01))
1.891584      	((-1.480378e+01 -2.292853e+02 -2.121205e+02) (1.640257e-01 -9.921823e-01 -8.486164e-01)) ((-2.172517e+01 -4.769736e+01 7.861797e+00) (-6.387323e-01 -4.483037e-02 6.074743e-01))
1.906722      	((-1.522784e+01 -2.310387e+02 -2.128407e+02) (1.588476e-01 -9.908753e-01 -8.568357e-01)) ((-2.145351e+01 -4.753619e+01 8.430496e+00) (-6.352037e-01 -4.683937e-02 6.069846e-01))
1.921836      	((-1.556208e+01 -2.328153e+02 -2.134748e+02) (1.539652e-01 -9.902921e-01 -8.656238e-01)) ((-2.119901e+01 -4.732012e+01 8.915280e+00) (-6.315505e-01 -4.903067e-02 6.070157e-01))
1.936933      	((-1.592832e+01 -2.349539e+02 -2.140523e+02) (1.493621e-01 -9.902161e-01 -8.746489e-01)) ((-2.095331e+01 -4.714806e+01 9.570088e+00) (-6.277105e-01 -5.125511e-02 6.074855e-01))
1.952018      	((-1.629622e+01 -2.368248e+02 -2.144563e+02) (1.451017e-01 -9.906486e-01 -8.840091e-01)) ((-2.075800e+01 -4.692913e+01 1.009710e+01) (-6.237774e-01 -5.362175e-02 6.083447e-01))
1.967098      	((-1.667877e+01 -2.388908e+02 -2.148896e+02) (1.412587e-01 -9.916595e-01 -8.935062e-01)) ((-2.055774e+01 -4.673403e+01 1.086670e+01) (-6.197123e-01 -5.599637e-02 6.096383e-01))
1.982174      	((-1.709252e+01 -2.409488e+02 -2.154549e+02) (1.378687e-01 -9.931006e-01 -9.032341e-01)) ((-2.034777e+01 -4.655726e+01 1.172309e+01) (-6.155262e-01 -5.847686e-02 6.112564e-01))
1.997248      	((-1.750399e+01 -2.430968e+02 -2.158505e+02) (1.348506e-01 -9.951165e-01 -9.132002e-01)) ((-2.019541e+01 -4.635243e+01 1.256428e+01) (-6.111981e-01 -6.095191e-02 6.133044e-01))
2.012322      	((-1.789401e+01 -2.453534e+02 -2.162504e+02) (1.323481e-01 -9.974023e-01 -9.235397e-01)) ((-2.003690e+01 -4.612698e+01 1.342402e+01) (-6.068156e-01 -6.352972e-02 6.155735e-01))
2.0274        	((-1.829888e+01 -2.474060e+02 -2.167012e+02) (1.302781e-01 -9.998277e-01 -9.339509e-01)) ((-1.988648e+01 -4.597210e+01 1.426446e+01) (-6.023345e-01 -6.605515e-02 6.180944e-01))
2.042482      	((-1.866189e+01 -2.495470e+02 -2.171859e+02) (1.283927e-01 -1.002322e+00 -9.446254e-01)) ((-1.973287e+01 -4.576740e+01 1.502226e+01) (-5.978545e-01 -6.871417e-02 6.208067e-01))
2.057565      	((-1.900243e+01 -2.517618e+02 -2.175999e+02) (1.266570e-01 -1.004981e+00 -9.554025e-01)) ((-1.960070e+01 -4.555432e+01 1.588672e+01) (-5.933901e-01 -7.139719e-02 6.236999e-01))
2.072648      	((-1.931650e+01 -2.536886e+02 -2.180503e+02) (1.250952e-01 -1.007757e+00 -9.660714e-01)) ((-1.944268e+01 -4.535033e+01 1.661100e+01) (-5.889503e-01 -7.406341e-02 6.266128e-01))
2.087727      	((-1.963391e+01 -2.555682e+02 -2.184689e+02) (1.235932e-01 -1.010841e+00 -9.765875e-01)) ((-1.929061e+01 -4.516152e+01 1.728502e+01) (-5.844573e-01 -7.657834e-02 6.297674e-01))
2.102803      	((-1.988216e+01 -2.573105e+02 -2.188463e+02) (1.224054e-01 -1.013929e+00 -9.873839e-01)) ((-1.914274e+01 -4.499228e+01 1.796216e+01) (-5.800159e-01 -7.925485e-02 6.330797e-01))
2.117874      	((-2.010063e+01 -2.590857e+02 -2.191712e+02) (1.215576e-01 -1.016993e+00 -9.982843e-01)) ((-1.900042e+01 -4.479513e+01 1.862058e+01) (-5.755979e-01 -8.202788e-02 6.366038e-01))
2.132942      	((-2.033577e+01 -2.607803e+02 -2.195782e+02) (1.208459e-01 -1.020071e+00 -1.009167e+00)) ((-1.882830e+01 -4.462070e+01 1.917598e+01) (-5.712858e-01 -8.482138e-02 6.402336e-01))
2.148007      	((-2.050313e+01 -2.623474e+02 -2.198358e+02) (1.203567e-01 -1.023106e+00 -1.019996e+00)) ((-1.870609e+01 -4.439920e+01 1.980780e+01) (-5.669928e-01 -8.749985e-02 6.440054e-01))
2.16307       	((-2.069195e+01 -2.636996e+02 -2.201550e+02) (1.201920e-01 -1.025886e+00 -1.030982e+00)) ((-1.852238e+01 -4.422305e+01 2.039218e+01) (-5.627440e-01 -9.023811e-02 6.477972e-01))
2.178135      	((-2.083177e+01 -2.650499e+02 -2.206389e+02) (1.201654e-01 -1.028692e+00 -1.042080e+00)) ((-1.832626e+01 -4.403225e+01 2.096068e+01) (-5.585245e-01 -9.312790e-02 6.518084e-01))
2.193205      	((-2.095710e+01 -2.662920e+02 -2.208332e+02) (1.203889e-01 -1.031486e+00 -1.053414e+00)) ((-1.816179e+01 -4.381713e+01 2.159158e+01) (-5.544311e-01 -9.622162e-02 6.559025e-01))
2.208287      	((-2.102714e+01 -2.676863e+02 -2.212393e+02) (1.209277e-01 -1.034308e+00 -1.064785e+00)) ((-1.800277e+01 -4.359478e+01 2.224256e+01) (-5.504453e-01 -9.936577e-02 6.601696e-01))
2.223389      	((-2.110325e+01 -2.690808e+02 -2.214767e+02) (1.217415e-01 -1.037108e+00 -1.076204e+00)) ((-1.788530e+01 -4.331700e+01 2.293278e+01) (-5.465740e-01 -1.025634e-01 6.645037e-01))
2.238518      	((-2.112358e+01 -2.702565e+02 -2.216609e+02) (1.229198e-01 -1.039874e+00 -1.087408e+00)) ((-1.776497e+01 -4.298117e+01 2.351994e+01) (-5.427654e-01 -1.057157e-01 6.687570e-01))
2.253673      	((-2.116420e+01 -2.713809e+02 -2.218318e+02) (1.244714e-01 -1.042382e+00 -1.098457e+00)) ((-1.763123e+01 -4.265221e+01 2.410877e+01) (-5.390725e-01 -1.089121e-01 6.726887e-01))
2.268854      	((-2.126304e+01 -2.726188e+02 -2.221296e+02) (1.261652e-01 -1.044816e+00 -1.109112e+00)) ((-1.750196e+01 -4.236334e+01 2.469942e+01) (-5.355029e-01 -1.120337e-01 6.764709e-01))
2.284054      	((-2.128868e+01 -2.737824e+02 -2.222506e+02) (1.280068e-01 -1.047090e+00 -1.119340e+00)) ((-1.737861e+01 -4.204686e+01 2.525587e+01) (-5.321153e-01 -1.150441e-01 6.800692e-01))
2.299265      	((-2.128907e+01 -2.753288e+02 -2.223427e+02) (1.301667e-01 -1.049232e+00 -1.129247e+00)) ((-1.729709e+01 -4.170011e+01 2.586299e+01) (-5.288620e-01 -1.178788e-01 6.834940e-01))