# Forces      
# CofR        : (0.000000e+00 0.000000e+00 -9.000000e-02)
# Time        forces(pressure viscous)	moments(pressure viscous)
0             	((0.000000e+00 0.000000e+00 0.000000e+00) (-4.795076e+00 -8.903105e-04 -9.107071e-03)) ((0.000000e+00 0.000000e+00 0.000000e+00) (1.409471e-03 4.273641e-01 3.416076e-02))
0.0034055     	((-1.649793e+04 5.196041e+01 -9.890705e+02) (-9.517197e+00 7.680687e-03 1.592364e-01)) ((-1.090951e+01 -8.686353e+03 1.415180e+01) (1.846130e-03 1.099690e+00 4.504815e-02))
0.00749209    	((3.183536e+03 -7.160681e+01 3.526170e+01) (-1.987886e+01 2.086234e-04 6.222521e-01)) ((1.626415e+01 1.636521e+03 -2.766226e+01) (-2.681404e-03 2.634496e+00 6.625164e-02))
0.0123527     	((5.218865e+02 -2.801906e+01 -2.214903e+02) (-4.331991e+01 -2.019005e-02 3.775741e-01)) ((1.219332e+01 1.349582e+03 -4.607459e+01) (-1.406984e-02 5.333705e+00 1.132836e-01))
0.0178867     	((-5.089183e+02 5.195126e+00 -2.633040e+02) (-5.739704e+01 1.072016e-02 2.565564e-02)) ((5.666992e+00 1.135065e+02 -2.505925e+01) (-1.421635e-02 6.313966e+00 -5.313893e-02))
0.024145      	((-5.521229e+02 5.657517e+00 -2.503188e+02) (-6.266818e+01 1.283531e-02 -1.156912e-01)) ((7.637165e+00 8.317245e+01 -3.000479e+01) (-1.671147e-02 6.270264e+00 -1.503109e-01))
0.0309793     	((-4.611225e+02 -2.762687e+00 -2.527283e+02) (-6.121152e+01 1.530531e-02 -1.530690e-01)) ((8.185412e+00 8.362742e+01 -2.826428e+01) (-1.904488e-02 6.146226e+00 -1.472287e-01))
0.0378834     	((-4.463599e+02 9.420654e-01 -2.426056e+02) (-5.998568e+01 2.717762e-02 -1.783094e-01)) ((8.062867e+00 7.182334e+01 -2.812770e+01) (-2.088441e-02 6.036807e+00 -1.546289e-01))
0.044796      	((-4.378371e+02 5.414907e+00 -2.336232e+02) (-5.894340e+01 4.087461e-02 -1.986012e-01)) ((8.158815e+00 6.507367e+01 -2.622957e+01) (-2.153875e-02 5.941981e+00 -1.658782e-01))
0.0514661     	((-4.288456e+02 5.740513e+00 -2.286041e+02) (-5.805727e+01 4.659687e-02 -2.222440e-01)) ((8.482631e+00 5.971242e+01 -2.636081e+01) (-2.132887e-02 5.853926e+00 -1.720320e-01))
0.0578481     	((-4.231491e+02 4.505767e+00 -2.281008e+02) (-5.730033e+01 5.070506e-02 -2.442776e-01)) ((9.179627e+00 5.466888e+01 -2.727517e+01) (-2.163993e-02 5.776472e+00 -1.773453e-01))
0.0639088     	((-4.219205e+02 3.081692e+00 -2.278635e+02) (-5.665594e+01 5.388534e-02 -2.597124e-01)) ((9.854404e+00 5.105465e+01 -2.815750e+01) (-2.256442e-02 5.712569e+00 -1.832874e-01))
0.069651      	((-4.230854e+02 2.861688e+00 -2.281215e+02) (-5.610194e+01 5.502667e-02 -2.693994e-01)) ((1.049992e+01 4.831569e+01 -2.950118e+01) (-2.399724e-02 5.659429e+00 -1.888503e-01))
0.0751173     	((-4.251607e+02 2.308160e+00 -2.283526e+02) (-5.561480e+01 5.470516e-02 -2.751688e-01)) ((1.095032e+01 4.626635e+01 -3.096475e+01) (-2.526519e-02 5.613670e+00 -1.941396e-01))
0.0803463     	((-4.272145e+02 1.944710e+00 -2.286502e+02) (-5.517729e+01 5.427765e-02 -2.806588e-01)) ((1.137926e+01 4.451545e+01 -3.252319e+01) (-2.574015e-02 5.571570e+00 -1.990007e-01))
0.0853853     	((-4.287638e+02 1.481291e+00 -2.290286e+02) (-5.477824e+01 5.455744e-02 -2.868759e-01)) ((1.172873e+01 4.330830e+01 -3.388162e+01) (-2.565387e-02 5.531868e+00 -2.038584e-01))
0.0902789     	((-4.289557e+02 1.275180e+00 -2.298991e+02) (-5.440897e+01 5.317590e-02 -2.924535e-01)) ((1.186974e+01 4.196438e+01 -3.516960e+01) (-2.535392e-02 5.495119e+00 -2.068147e-01))
0.0950668     	((-4.283047e+02 8.831908e-01 -2.301888e+02) (-5.406300e+01 4.931373e-02 -2.978812e-01)) ((1.192527e+01 4.119365e+01 -3.613842e+01) (-2.466300e-02 5.460487e+00 -2.066753e-01))
0.0997902     	((-4.265614e+02 1.718003e+00 -2.307141e+02) (-5.373410e+01 4.413721e-02 -3.036476e-01)) ((1.191664e+01 4.046507e+01 -3.732191e+01) (-2.351684e-02 5.427048e+00 -2.039798e-01))
0.104495      	((-4.231453e+02 2.513770e+00 -2.310184e+02) (-5.341743e+01 3.888267e-02 -3.097264e-01)) ((1.177250e+01 3.995656e+01 -3.801397e+01) (-2.174247e-02 5.394540e+00 -1.997203e-01))
0.109222      	((-4.186888e+02 3.188219e+00 -2.314340e+02) (-5.311008e+01 3.372222e-02 -3.163860e-01)) ((1.150851e+01 3.938042e+01 -3.842043e+01) (-1.954732e-02 5.362688e+00 -1.945816e-01))
0.114013      	((-4.134176e+02 3.944174e+00 -2.315198e+02) (-5.281217e+01 2.878300e-02 -3.227613e-01)) ((1.137521e+01 3.910999e+01 -3.844773e+01) (-1.756426e-02 5.332053e+00 -1.893873e-01))
0.11889       	((-4.086300e+02 5.042731e+00 -2.321363e+02) (-5.252292e+01 2.377447e-02 -3.285681e-01)) ((1.116660e+01 3.844366e+01 -3.869467e+01) (-1.611821e-02 5.302803e+00 -1.839979e-01))
0.123862      	((-4.042062e+02 6.180992e+00 -2.323571e+02) (-5.224135e+01 1.930006e-02 -3.333922e-01)) ((1.109311e+01 3.810791e+01 -3.887012e+01) (-1.509927e-02 5.275103e+00 -1.788888e-01))
0.128925      	((-4.004386e+02 7.025228e+00 -2.329409e+02) (-5.196795e+01 1.561917e-02 -3.372530e-01)) ((1.091145e+01 3.749660e+01 -3.899116e+01) (-1.424807e-02 5.249123e+00 -1.742106e-01))
0.134067      	((-3.970698e+02 8.017017e+00 -2.330829e+02) (-5.170313e+01 1.263493e-02 -3.406780e-01)) ((1.083978e+01 3.722113e+01 -3.923929e+01) (-1.341756e-02 5.224493e+00 -1.699747e-01))
0.139274      	((-3.941586e+02 9.059527e+00 -2.340535e+02) (-5.144711e+01 9.678761e-03 -3.439162e-01)) ((1.075023e+01 3.638119e+01 -3.960912e+01) (-1.257545e-02 5.201048e+00 -1.657599e-01))
0.144535      	((-3.914217e+02 9.759881e+00 -2.346107e+02) (-5.119881e+01 7.149247e-03 -3.470296e-01)) ((1.073712e+01 3.589497e+01 -3.969451e+01) (-1.165929e-02 5.178554e+00 -1.616684e-01))
0.149843      	((-3.887969e+02 1.004666e+01 -2.356229e+02) (-5.095816e+01 5.512541e-03 -3.502557e-01)) ((1.072689e+01 3.504950e+01 -3.972697e+01) (-1.066642e-02 5.156854e+00 -1.580040e-01))
0.155195      	((-3.861261e+02 1.058335e+01 -2.363273e+02) (-5.072571e+01 4.147592e-03 -3.536521e-01)) ((1.080489e+01 3.448000e+01 -3.982781e+01) (-9.742876e-03 5.135969e+00 -1.547987e-01))
0.160593      	((-3.833822e+02 1.086184e+01 -2.373709e+02) (-5.050125e+01 3.566424e-03 -3.573696e-01)) ((1.073640e+01 3.362966e+01 -3.984299e+01) (-8.902227e-03 5.115713e+00 -1.523465e-01))
0.166041      	((-3.805622e+02 1.118426e+01 -2.379750e+02) (-5.028472e+01 3.640430e-03 -3.612251e-01)) ((1.075935e+01 3.315087e+01 -3.974004e+01) (-8.042192e-03 5.096273e+00 -1.501775e-01))
0.171544      	((-3.777744e+02 1.130813e+01 -2.388300e+02) (-5.007538e+01 3.983427e-03 -3.646409e-01)) ((1.063619e+01 3.244452e+01 -3.944399e+01) (-7.016918e-03 5.078038e+00 -1.480131e-01))
0.177108      	((-3.748567e+02 1.159300e+01 -2.392424e+02) (-4.987178e+01 3.785598e-03 -3.680241e-01)) ((1.059379e+01 3.203443e+01 -3.908970e+01) (-5.996204e-03 5.060533e+00 -1.453161e-01))
0.182739      	((-3.719183e+02 1.130523e+01 -2.401180e+02) (-4.967298e+01 3.911953e-03 -3.713367e-01)) ((1.045454e+01 3.127942e+01 -3.842842e+01) (-4.896475e-03 5.043684e+00 -1.427394e-01))
0.18844       	((-3.687080e+02 1.090566e+01 -2.404895e+02) (-4.947866e+01 3.664080e-03 -3.745171e-01)) ((1.046539e+01 3.089497e+01 -3.761625e+01) (-3.725818e-03 5.027532e+00 -1.397542e-01))
0.194216      	((-3.656830e+02 1.012299e+01 -2.411432e+02) (-4.928831e+01 4.035284e-03 -3.774530e-01)) ((1.036844e+01 3.028917e+01 -3.662254e+01) (-2.516520e-03 5.012160e+00 -1.372027e-01))
0.200073      	((-3.628672e+02 9.754657e+00 -2.412435e+02) (-4.910211e+01 5.301466e-03 -3.806739e-01)) ((1.032089e+01 3.012101e+01 -3.570946e+01) (-1.492072e-03 4.997072e+00 -1.351180e-01))
0.206013      	((-3.603431e+02 9.447590e+00 -2.417208e+02) (-4.892036e+01 6.756909e-03 -3.844079e-01)) ((1.022508e+01 2.965852e+01 -3.490851e+01) (-6.724991e-04 4.982052e+00 -1.331861e-01))
0.212037      	((-3.578888e+02 9.220363e+00 -2.417821e+02) (-4.874317e+01 8.232312e-03 -3.883030e-01)) ((1.017254e+01 2.947569e+01 -3.404560e+01) (-5.017517e-05 4.967378e+00 -1.313139e-01))
0.218145      	((-3.556122e+02 8.977701e+00 -2.422046e+02) (-4.857045e+01 1.051650e-02 -3.918532e-01)) ((1.003818e+01 2.898961e+01 -3.339103e+01) (5.527669e-04 4.953390e+00 -1.300334e-01))
0.224333      	((-3.534617e+02 9.147255e+00 -2.422490e+02) (-4.840136e+01 1.295953e-02 -3.948775e-01)) ((9.977776e+00 2.879482e+01 -3.286431e+01) (1.066240e-03 4.940143e+00 -1.291585e-01))
0.230597      	((-3.516751e+02 8.896371e+00 -2.425992e+02) (-4.823617e+01 1.470940e-02 -3.975579e-01)) ((9.846472e+00 2.834980e+01 -3.229967e+01) (1.477428e-03 4.927586e+00 -1.283470e-01))
0.236926      	((-3.500370e+02 8.712046e+00 -2.425053e+02) (-4.807455e+01 1.487082e-02 -4.000164e-01)) ((9.778092e+00 2.825579e+01 -3.176779e+01) (1.775720e-03 4.915695e+00 -1.270002e-01))
0.243312      	((-3.487364e+02 8.632971e+00 -2.427360e+02) (-4.791663e+01 1.473803e-02 -4.024078e-01)) ((9.675165e+00 2.791215e+01 -3.150691e+01) (2.038549e-03 4.904408e+00 -1.257702e-01))
0.249743      	((-3.477278e+02 8.459042e+00 -2.426059e+02) (-4.776300e+01 1.485167e-02 -4.048453e-01)) ((9.678733e+00 2.788442e+01 -3.124564e+01) (2.276628e-03 4.893569e+00 -1.248521e-01))
0.256209      	((-3.469681e+02 7.987511e+00 -2.428708e+02) (-4.761463e+01 1.487393e-02 -4.074967e-01)) ((9.657624e+00 2.756530e+01 -3.099483e+01) (2.565518e-03 4.883048e+00 -1.240598e-01))
0.2627        	((-3.463009e+02 7.514556e+00 -2.428360e+02) (-4.747143e+01 1.437035e-02 -4.102565e-01)) ((9.683595e+00 2.752436e+01 -3.064080e+01) (2.839933e-03 4.872843e+00 -1.228591e-01))
0.26921       	((-3.457076e+02 7.213792e+00 -2.429663e+02) (-4.733331e+01 1.416412e-02 -4.129321e-01)) ((9.686213e+00 2.732791e+01 -3.050710e+01) (3.119934e-03 4.863038e+00 -1.216321e-01))
0.275736      	((-3.450371e+02 7.072241e+00 -2.427136e+02) (-4.719947e+01 1.427953e-02 -4.155842e-01)) ((9.734937e+00 2.740825e+01 -3.034774e+01) (3.334094e-03 4.853519e+00 -1.203890e-01))
0.282279      	((-3.444787e+02 7.129339e+00 -2.427410e+02) (-4.706953e+01 1.439567e-02 -4.182682e-01)) ((9.728923e+00 2.725528e+01 -3.027338e+01) (3.482147e-03 4.844271e+00 -1.191920e-01))
0.288839      	((-3.439434e+02 7.196133e+00 -2.425778e+02) (-4.694311e+01 1.378745e-02 -4.209820e-01)) ((9.806068e+00 2.729092e+01 -3.022613e+01) (3.624466e-03 4.835381e+00 -1.177818e-01))
0.295417      	((-3.433342e+02 7.354622e+00 -2.427331e+02) (-4.681995e+01 1.251478e-02 -4.238379e-01)) ((9.848755e+00 2.703616e+01 -3.032093e+01) (3.756876e-03 4.826862e+00 -1.161364e-01))
0.302015      	((-3.426802e+02 7.422111e+00 -2.426956e+02) (-4.669927e+01 1.150078e-02 -4.269622e-01)) ((9.969578e+00 2.698572e+01 -3.037268e+01) (3.826013e-03 4.818534e+00 -1.146451e-01))
0.308634      	((-3.420087e+02 7.624242e+00 -2.430848e+02) (-4.658148e+01 1.075111e-02 -4.302933e-01)) ((1.002709e+01 2.661131e+01 -3.055919e+01) (3.928425e-03 4.810398e+00 -1.132708e-01))
0.315277      	((-3.413589e+02 7.829226e+00 -2.431346e+02) (-4.646685e+01 9.702807e-03 -4.336833e-01)) ((1.012804e+01 2.653672e+01 -3.061417e+01) (4.036593e-03 4.802460e+00 -1.115773e-01))
0.321946      	((-3.406047e+02 7.797088e+00 -2.433980e+02) (-4.635530e+01 9.108765e-03 -4.373237e-01)) ((1.016412e+01 2.624031e+01 -3.059965e+01) (4.140830e-03 4.794533e+00 -1.101611e-01))
0.328643      	((-3.398847e+02 7.638085e+00 -2.433921e+02) (-4.624609e+01 8.890059e-03 -4.412033e-01)) ((1.024895e+01 2.617657e+01 -3.046340e+01) (4.159986e-03 4.786594e+00 -1.090033e-01))
0.33537       	((-3.391544e+02 7.288699e+00 -2.436871e+02) (-4.613905e+01 8.732982e-03 -4.455354e-01)) ((1.025762e+01 2.582825e+01 -3.023268e+01) (4.042580e-03 4.778482e+00 -1.079628e-01))
0.342128      	((-3.383929e+02 6.838276e+00 -2.437162e+02) (-4.603434e+01 8.469520e-03 -4.497925e-01)) ((1.032989e+01 2.571936e+01 -2.981028e+01) (3.906522e-03 4.770575e+00 -1.070239e-01))
0.34892       	((-3.377700e+02 6.204639e+00 -2.440210e+02) (-4.593221e+01 8.427548e-03 -4.539423e-01)) ((1.032911e+01 2.534844e+01 -2.943563e+01) (3.721663e-03 4.762910e+00 -1.062254e-01))
0.355742      	((-3.372511e+02 5.402828e+00 -2.439242e+02) (-4.583208e+01 8.260984e-03 -4.577653e-01)) ((1.039035e+01 2.531230e+01 -2.887836e+01) (3.469139e-03 4.755599e+00 -1.054146e-01))
0.362594      	((-3.367738e+02 4.323182e+00 -2.441067e+02) (-4.573423e+01 8.303906e-03 -4.615595e-01)) ((1.041338e+01 2.499307e+01 -2.830904e+01) (3.220162e-03 4.748537e+00 -1.049221e-01))
0.369472      	((-3.363739e+02 3.321418e+00 -2.440682e+02) (-4.563894e+01 8.393278e-03 -4.650429e-01)) ((1.049291e+01 2.491443e+01 -2.767722e+01) (2.999977e-03 4.741942e+00 -1.045181e-01))
0.376373      	((-3.360199e+02 2.603723e+00 -2.443115e+02) (-4.554643e+01 8.286823e-03 -4.681962e-01)) ((1.049873e+01 2.459648e+01 -2.713950e+01) (2.780508e-03 4.735817e+00 -1.040918e-01))
0.383296      	((-3.356473e+02 1.755268e+00 -2.442192e+02) (-4.545636e+01 7.870449e-03 -4.709568e-01)) ((1.054387e+01 2.458583e+01 -2.651270e+01) (2.464038e-03 4.730154e+00 -1.034683e-01))
0.39024       	((-3.352847e+02 1.080482e+00 -2.444331e+02) (-4.536859e+01 7.497512e-03 -4.738504e-01)) ((1.053757e+01 2.428522e+01 -2.596324e+01) (2.080984e-03 4.724544e+00 -1.028615e-01))
0.397205      	((-3.349701e+02 1.235629e-01 -2.443044e+02) (-4.528244e+01 6.730556e-03 -4.768089e-01)) ((1.059391e+01 2.429290e+01 -2.531224e+01) (1.602988e-03 4.718941e+00 -1.019972e-01))
0.404191      	((-3.347340e+02 -6.679213e-01 -2.444797e+02) (-4.519815e+01 5.931066e-03 -4.797911e-01)) ((1.059992e+01 2.404544e+01 -2.479004e+01) (1.158797e-03 4.713436e+00 -1.011861e-01))
0.411201      	((-3.344535e+02 -1.619210e+00 -2.442900e+02) (-4.511611e+01 5.161023e-03 -4.826890e-01)) ((1.065493e+01 2.411682e+01 -2.421251e+01) (6.839068e-04 4.708139e+00 -1.003722e-01))
0.418234      	((-3.342476e+02 -2.338559e+00 -2.444453e+02) (-4.503649e+01 4.515192e-03 -4.856755e-01)) ((1.065704e+01 2.389189e+01 -2.376148e+01) (2.532021e-04 4.703001e+00 -9.961886e-02))
0.425293      	((-3.340649e+02 -3.213697e+00 -2.443082e+02) (-4.495857e+01 3.345843e-03 -4.887023e-01)) ((1.074366e+01 2.395472e+01 -2.322946e+01) (-1.577010e-04 4.698030e+00 -9.858103e-02))
0.432379      	((-3.338626e+02 -4.054421e+00 -2.445392e+02) (-4.488212e+01 1.563436e-03 -4.917217e-01)) ((1.077261e+01 2.367722e+01 -2.274187e+01) (-4.313434e-04 4.693304e+00 -9.722930e-02))
0.439493      	((-3.336151e+02 -5.143385e+00 -2.444281e+02) (-4.480672e+01 -3.647686e-04 -4.945220e-01)) ((1.085490e+01 2.372463e+01 -2.209332e+01) (-6.795087e-04 4.688837e+00 -9.571407e-02))
0.446635      	((-3.334060e+02 -5.727243e+00 -2.446640e+02) (-4.473340e+01 -1.890309e-03 -4.972598e-01)) ((1.088542e+01 2.345720e+01 -2.169301e+01) (-8.909990e-04 4.684548e+00 -9.437578e-02))
0.453808      	((-3.331518e+02 -6.569278e+00 -2.445320e+02) (-4.466211e+01 -3.577225e-03 -5.000234e-01)) ((1.098766e+01 2.352380e+01 -2.110793e+01) (-1.149456e-03 4.680327e+00 -9.290835e-02))
0.461013      	((-3.329196e+02 -7.175296e+00 -2.447017e+02) (-4.459286e+01 -5.189890e-03 -5.030177e-01)) ((1.104982e+01 2.331378e+01 -2.066679e+01) (-1.484458e-03 4.676024e+00 -9.150618e-02))
0.468252      	((-3.326690e+02 -7.941256e+00 -2.446243e+02) (-4.452580e+01 -6.833538e-03 -5.058182e-01)) ((1.118674e+01 2.335341e+01 -2.013609e+01) (-1.902862e-03 4.671959e+00 -9.005473e-02))
0.475523      	((-3.324422e+02 -8.546464e+00 -2.449696e+02) (-4.446154e+01 -8.467291e-03 -5.085378e-01)) ((1.126882e+01 2.303355e+01 -1.969351e+01) (-2.391333e-03 4.668093e+00 -8.859727e-02))
0.482829      	((-3.322334e+02 -9.277668e+00 -2.449287e+02) (-4.439953e+01 -1.038643e-02 -5.111573e-01)) ((1.141947e+01 2.305519e+01 -1.921181e+01) (-2.929998e-03 4.664389e+00 -8.700779e-02))
0.490168      	((-3.320711e+02 -9.895475e+00 -2.452638e+02) (-4.434010e+01 -1.230085e-02 -5.136509e-01)) ((1.150094e+01 2.273835e+01 -1.882395e+01) (-3.424485e-03 4.660969e+00 -8.550384e-02))
0.497539      	((-3.318927e+02 -1.073087e+01 -2.452724e+02) (-4.428289e+01 -1.445741e-02 -5.158927e-01)) ((1.163082e+01 2.271137e+01 -1.823529e+01) (-3.974667e-03 4.657849e+00 -8.386628e-02))
0.504941      	((-3.317893e+02 -1.140116e+01 -2.456222e+02) (-4.422815e+01 -1.658454e-02 -5.180721e-01)) ((1.172872e+01 2.238431e+01 -1.782201e+01) (-4.532839e-03 4.654887e+00 -8.244294e-02))
0.512373      	((-3.317113e+02 -1.245716e+01 -2.456097e+02) (-4.417538e+01 -1.897602e-02 -5.203185e-01)) ((1.189471e+01 2.238496e+01 -1.715958e+01) (-5.205974e-03 4.651916e+00 -8.096754e-02))
0.519831      	((-3.315816e+02 -1.345739e+01 -2.459498e+02) (-4.412476e+01 -2.131689e-02 -5.228484e-01)) ((1.201833e+01 2.206549e+01 -1.654847e+01) (-5.951832e-03 4.648818e+00 -7.970856e-02))
0.527315      	((-3.314232e+02 -1.485703e+01 -2.460762e+02) (-4.407610e+01 -2.402256e-02 -5.256515e-01)) ((1.219954e+01 2.195686e+01 -1.571203e+01) (-6.804264e-03 4.645608e+00 -7.829406e-02))
0.534821      	((-3.311640e+02 -1.615018e+01 -2.465756e+02) (-4.402960e+01 -2.674561e-02 -5.288493e-01)) ((1.231467e+01 2.152425e+01 -1.497765e+01) (-7.703453e-03 4.642280e+00 -7.690055e-02))
0.542347      	((-3.308300e+02 -1.761863e+01 -2.466532e+02) (-4.398488e+01 -2.950711e-02 -5.320060e-01)) ((1.247627e+01 2.146000e+01 -1.411603e+01) (-8.679364e-03 4.639079e+00 -7.548591e-02))
0.549889      	((-3.304544e+02 -1.891719e+01 -2.470375e+02) (-4.394246e+01 -3.192869e-02 -5.349830e-01)) ((1.257867e+01 2.110553e+01 -1.338670e+01) (-9.602639e-03 4.636157e+00 -7.426777e-02))
0.557444      	((-3.299711e+02 -2.040928e+01 -2.468872e+02) (-4.390194e+01 -3.421138e-02 -5.375833e-01)) ((1.273320e+01 2.120946e+01 -1.252415e+01) (-1.059950e-02 4.633570e+00 -7.308487e-02))
0.565008      	((-3.294298e+02 -2.172296e+01 -2.471641e+02) (-4.386314e+01 -3.607522e-02 -5.399134e-01)) ((1.283917e+01 2.093678e+01 -1.178249e+01) (-1.163423e-02 4.631216e+00 -7.216038e-02))
0.57258       	((-3.289238e+02 -2.292368e+01 -2.469832e+02) (-4.382562e+01 -3.767200e-02 -5.423612e-01)) ((1.299433e+01 2.105932e+01 -1.107797e+01) (-1.272362e-02 4.628798e+00 -7.149536e-02))
0.580157      	((-3.284328e+02 -2.394339e+01 -2.471894e+02) (-4.378960e+01 -3.891759e-02 -5.450310e-01)) ((1.308573e+01 2.083003e+01 -1.054463e+01) (-1.378211e-02 4.626346e+00 -7.108794e-02))
0.587738      	((-3.278949e+02 -2.502895e+01 -2.469046e+02) (-4.375483e+01 -4.005267e-02 -5.476637e-01)) ((1.321920e+01 2.102491e+01 -9.947701e+00) (-1.480012e-02 4.624037e+00 -7.081777e-02))
0.595323      	((-3.273092e+02 -2.590314e+01 -2.470178e+02) (-4.372140e+01 -4.099267e-02 -5.504265e-01)) ((1.328040e+01 2.086150e+01 -9.529216e+00) (-1.576483e-02 4.621741e+00 -7.075415e-02))
0.602912      	((-3.267149e+02 -2.671917e+01 -2.465962e+02) (-4.368882e+01 -4.174072e-02 -5.532431e-01)) ((1.338252e+01 2.115523e+01 -9.084439e+00) (-1.673867e-02 4.619403e+00 -7.091986e-02))
0.610506      	((-3.260693e+02 -2.722119e+01 -2.466254e+02) (-4.365739e+01 -4.211775e-02 -5.562429e-01)) ((1.340996e+01 2.104243e+01 -8.853343e+00) (-1.763968e-02 4.616966e+00 -7.129476e-02))
0.618108      	((-3.254016e+02 -2.764394e+01 -2.462137e+02) (-4.362688e+01 -4.231503e-02 -5.592870e-01)) ((1.348882e+01 2.132189e+01 -8.608325e+00) (-1.850109e-02 4.614539e+00 -7.166593e-02))
0.625719      	((-3.246888e+02 -2.776530e+01 -2.462395e+02) (-4.359747e+01 -4.224223e-02 -5.623048e-01)) ((1.350812e+01 2.121546e+01 -8.589357e+00) (-1.920636e-02 4.612264e+00 -7.207871e-02))
0.633342      	((-3.239522e+02 -2.789553e+01 -2.458580e+02) (-4.356869e+01 -4.194314e-02 -5.653035e-01)) ((1.354765e+01 2.148032e+01 -8.479419e+00) (-1.983739e-02 4.610055e+00 -7.253454e-02))
0.640981      	((-3.232055e+02 -2.772870e+01 -2.458900e+02) (-4.354072e+01 -4.131951e-02 -5.683891e-01)) ((1.350083e+01 2.136554e+01 -8.543336e+00) (-2.034097e-02 4.607824e+00 -7.309786e-02))
0.648637      	((-3.224462e+02 -2.742411e+01 -2.455267e+02) (-4.351338e+01 -4.062732e-02 -5.715414e-01)) ((1.350444e+01 2.161027e+01 -8.639566e+00) (-2.082003e-02 4.605541e+00 -7.365837e-02))
0.656314      	((-3.216378e+02 -2.707046e+01 -2.455963e+02) (-4.348673e+01 -4.011146e-02 -5.748179e-01)) ((1.342323e+01 2.147116e+01 -8.743310e+00) (-2.132740e-02 4.603167e+00 -7.403535e-02))
0.664013      	((-3.208461e+02 -2.659086e+01 -2.453777e+02) (-4.346060e+01 -3.949400e-02 -5.780149e-01)) ((1.341633e+01 2.161073e+01 -8.947693e+00) (-2.181149e-02 4.600860e+00 -7.448319e-02))
0.671736      	((-3.200932e+02 -2.614817e+01 -2.455754e+02) (-4.343542e+01 -3.883120e-02 -5.812497e-01)) ((1.331622e+01 2.139201e+01 -9.127152e+00) (-2.227589e-02 4.598544e+00 -7.491208e-02))
0.679483      	((-3.194086e+02 -2.556749e+01 -2.455234e+02) (-4.341109e+01 -3.805567e-02 -5.842939e-01)) ((1.325781e+01 2.141495e+01 -9.385026e+00) (-2.271071e-02 4.596387e+00 -7.534963e-02))
0.687255      	((-3.187315e+02 -2.495524e+01 -2.459480e+02) (-4.338798e+01 -3.716298e-02 -5.870928e-01)) ((1.314975e+01 2.105801e+01 -9.681433e+00) (-2.304910e-02 4.594483e+00 -7.578026e-02))
0.695049      	((-3.181639e+02 -2.427143e+01 -2.459704e+02) (-4.336565e+01 -3.624201e-02 -5.895818e-01)) ((1.310274e+01 2.104873e+01 -1.003279e+01) (-2.334318e-02 4.592778e+00 -7.629288e-02))
0.702864      	((-3.176545e+02 -2.360787e+01 -2.463846e+02) (-4.334426e+01 -3.535459e-02 -5.918510e-01)) ((1.300502e+01 2.071522e+01 -1.038593e+01) (-2.360196e-02 4.591180e+00 -7.686075e-02))
0.710699      	((-3.171951e+02 -2.278964e+01 -2.464917e+02) (-4.332377e+01 -3.450911e-02 -5.938514e-01)) ((1.295670e+01 2.065114e+01 -1.083979e+01) (-2.384687e-02 4.589738e+00 -7.744151e-02))
0.71855       	((-3.167658e+02 -2.210051e+01 -2.469038e+02) (-4.330435e+01 -3.387328e-02 -5.957476e-01)) ((1.286327e+01 2.029903e+01 -1.123720e+01) (-2.407434e-02 4.588370e+00 -7.786857e-02))
0.726415      	((-3.163669e+02 -2.143003e+01 -2.468667e+02) (-4.328569e+01 -3.332345e-02 -5.973166e-01)) ((1.284001e+01 2.030341e+01 -1.165098e+01) (-2.420151e-02 4.587253e+00 -7.820194e-02))
0.734294      	((-3.160436e+02 -2.088843e+01 -2.471399e+02) (-4.326799e+01 -3.289409e-02 -5.987800e-01)) ((1.279271e+01 2.003570e+01 -1.200546e+01) (-2.425832e-02 4.586221e+00 -7.844083e-02))
0.742184      	((-3.157653e+02 -2.041809e+01 -2.470001e+02) (-4.325111e+01 -3.261881e-02 -6.000830e-01)) ((1.279790e+01 2.011857e+01 -1.231154e+01) (-2.429119e-02 4.585299e+00 -7.867824e-02))
0.750085      	((-3.155508e+02 -2.006365e+01 -2.470994e+02) (-4.323541e+01 -3.245600e-02 -6.014245e-01)) ((1.274400e+01 1.996216e+01 -1.252367e+01) (-2.428769e-02 4.584418e+00 -7.881474e-02))
0.757997      	((-3.152574e+02 -1.980303e+01 -2.469143e+02) (-4.322083e+01 -3.237116e-02 -6.026432e-01)) ((1.272797e+01 2.006422e+01 -1.263443e+01) (-2.425556e-02 4.583732e+00 -7.882645e-02))
0.765922      	((-3.150068e+02 -1.963376e+01 -2.470049e+02) (-4.320749e+01 -3.257284e-02 -6.037065e-01)) ((1.270454e+01 1.992201e+01 -1.271648e+01) (-2.412801e-02 4.583256e+00 -7.865237e-02))
0.773862      	((-3.147143e+02 -1.967475e+01 -2.466777e+02) (-4.319489e+01 -3.278804e-02 -6.047509e-01)) ((1.273609e+01 2.013687e+01 -1.270172e+01) (-2.400120e-02 4.582800e+00 -7.852637e-02))
0.78182       	((-3.145073e+02 -1.971698e+01 -2.467139e+02) (-4.318317e+01 -3.285277e-02 -6.058846e-01)) ((1.273030e+01 2.006310e+01 -1.264800e+01) (-2.381616e-02 4.582322e+00 -7.852063e-02))
0.789798      	((-3.142964e+02 -1.999051e+01 -2.463811e+02) (-4.317218e+01 -3.295079e-02 -6.070828e-01)) ((1.272479e+01 2.029599e+01 -1.239283e+01) (-2.365035e-02 4.581812e+00 -7.854061e-02))
0.797799      	((-3.140852e+02 -2.033422e+01 -2.464096e+02) (-4.316198e+01 -3.309926e-02 -6.084975e-01)) ((1.270450e+01 2.022892e+01 -1.211739e+01) (-2.348653e-02 4.581149e+00 -7.854300e-02))
0.805827      	((-3.138051e+02 -2.070434e+01 -2.460902e+02) (-4.315223e+01 -3.311102e-02 -6.100185e-01)) ((1.273826e+01 2.047883e+01 -1.183661e+01) (-2.334866e-02 4.580400e+00 -7.863592e-02))
0.813884      	((-3.135464e+02 -2.100004e+01 -2.461414e+02) (-4.314307e+01 -3.326303e-02 -6.116278e-01)) ((1.271703e+01 2.041154e+01 -1.154494e+01) (-2.322511e-02 4.579597e+00 -7.860636e-02))
0.821973      	((-3.132458e+02 -2.143210e+01 -2.458867e+02) (-4.313428e+01 -3.341624e-02 -6.131125e-01)) ((1.275769e+01 2.060887e+01 -1.123040e+01) (-2.307295e-02 4.578921e+00 -7.849613e-02))
0.830095      	((-3.129257e+02 -2.172499e+01 -2.459630e+02) (-4.312589e+01 -3.364308e-02 -6.146036e-01)) ((1.276813e+01 2.052135e+01 -1.095146e+01) (-2.287347e-02 4.578294e+00 -7.824594e-02))
0.83825       	((-3.125770e+02 -2.205577e+01 -2.457346e+02) (-4.311757e+01 -3.401223e-02 -6.160538e-01)) ((1.280019e+01 2.070318e+01 -1.065456e+01) (-2.269452e-02 4.577677e+00 -7.795535e-02))
0.846439      	((-3.122496e+02 -2.235006e+01 -2.458457e+02) (-4.310951e+01 -3.465746e-02 -6.176847e-01)) ((1.280283e+01 2.059450e+01 -1.036434e+01) (-2.262822e-02 4.576881e+00 -7.748193e-02))
0.854662      	((-3.119022e+02 -2.256379e+01 -2.456215e+02) (-4.310161e+01 -3.536576e-02 -6.193140e-01)) ((1.284572e+01 2.077626e+01 -1.015935e+01) (-2.265961e-02 4.576013e+00 -7.705436e-02))
0.862917      	((-3.115739e+02 -2.253261e+01 -2.458390e+02) (-4.309441e+01 -3.629435e-02 -6.212299e-01)) ((1.282611e+01 2.058491e+01 -1.010777e+01) (-2.276387e-02 4.574957e+00 -7.646005e-02))
0.871202      	((-3.112228e+02 -2.253268e+01 -2.456674e+02) (-4.308772e+01 -3.726048e-02 -6.233093e-01)) ((1.285097e+01 2.071568e+01 -1.010482e+01) (-2.289100e-02 4.573805e+00 -7.581130e-02))
0.879517      	((-3.108979e+02 -2.232266e+01 -2.458959e+02) (-4.308171e+01 -3.818584e-02 -6.253377e-01)) ((1.282799e+01 2.051145e+01 -1.022046e+01) (-2.293775e-02 4.572758e+00 -7.516886e-02))
0.88786       	((-3.105452e+02 -2.215546e+01 -2.457436e+02) (-4.307610e+01 -3.916120e-02 -6.272234e-01)) ((1.284142e+01 2.062512e+01 -1.035100e+01) (-2.297949e-02 4.571804e+00 -7.457594e-02))
0.896228      	((-3.102300e+02 -2.187568e+01 -2.459394e+02) (-4.307091e+01 -4.003064e-02 -6.291248e-01)) ((1.281611e+01 2.043989e+01 -1.055068e+01) (-2.297998e-02 4.570818e+00 -7.409589e-02))
0.904621      	((-3.099017e+02 -2.164910e+01 -2.457691e+02) (-4.306597e+01 -4.067334e-02 -6.309552e-01)) ((1.283586e+01 2.057334e+01 -1.071872e+01) (-2.299248e-02 4.569819e+00 -7.376940e-02))
0.913035      	((-3.095742e+02 -2.135453e+01 -2.459702e+02) (-4.306138e+01 -4.130291e-02 -6.328452e-01)) ((1.282682e+01 2.040078e+01 -1.091118e+01) (-2.300555e-02 4.568733e+00 -7.352902e-02))
0.921469      	((-3.092874e+02 -2.114412e+01 -2.457982e+02) (-4.305697e+01 -4.176252e-02 -6.346577e-01)) ((1.283631e+01 2.053701e+01 -1.107709e+01) (-2.304134e-02 4.567642e+00 -7.340536e-02))
0.92992       	((-3.090383e+02 -2.089934e+01 -2.460081e+02) (-4.305287e+01 -4.213898e-02 -6.364336e-01)) ((1.279584e+01 2.035661e+01 -1.122056e+01) (-2.307246e-02 4.566550e+00 -7.325700e-02))
0.938388      	((-3.087850e+02 -2.075836e+01 -2.458307e+02) (-4.304892e+01 -4.237119e-02 -6.378886e-01)) ((1.279554e+01 2.048954e+01 -1.130999e+01) (-2.303990e-02 4.565673e+00 -7.315918e-02))
0.946869      	((-3.085517e+02 -2.058220e+01 -2.460558e+02) (-4.304520e+01 -4.248592e-02 -6.391965e-01)) ((1.275127e+01 2.030174e+01 -1.137959e+01) (-2.294549e-02 4.564898e+00 -7.299587e-02))
0.955364      	((-3.083360e+02 -2.053461e+01 -2.459213e+02) (-4.304163e+01 -4.237057e-02 -6.401995e-01)) ((1.275693e+01 2.041992e+01 -1.137604e+01) (-2.282490e-02 4.564297e+00 -7.297365e-02))
0.96387       	((-3.081067e+02 -2.052080e+01 -2.461282e+02) (-4.303837e+01 -4.236818e-02 -6.412784e-01)) ((1.271517e+01 2.024845e+01 -1.130095e+01) (-2.277781e-02 4.563582e+00 -7.298106e-02))
0.972386      	((-3.079399e+02 -2.065894e+01 -2.459139e+02) (-4.303518e+01 -4.215358e-02 -6.423475e-01)) ((1.271822e+01 2.042000e+01 -1.118836e+01) (-2.275367e-02 4.562778e+00 -7.331688e-02))
0.98091       	((-3.078177e+02 -2.060865e+01 -2.461437e+02) (-4.303245e+01 -4.169817e-02 -6.436449e-01)) ((1.266867e+01 2.022771e+01 -1.114461e+01) (-2.275067e-02 4.561787e+00 -7.375524e-02))
0.989442      	((-3.077296e+02 -2.070183e+01 -2.458971e+02) (-4.303006e+01 -4.121636e-02 -6.449095e-01)) ((1.267081e+01 2.041730e+01 -1.104906e+01) (-2.276648e-02 4.560801e+00 -7.420823e-02))
0.99798       	((-3.076722e+02 -2.070947e+01 -2.460880e+02) (-4.302803e+01 -4.068994e-02 -6.460440e-01)) ((1.262080e+01 2.025164e+01 -1.100270e+01) (-2.269064e-02 4.559929e+00 -7.467050e-02))
1.006523      	((-3.076477e+02 -2.085397e+01 -2.458571e+02) (-4.302606e+01 -4.026719e-02 -6.469527e-01)) ((1.260679e+01 2.043844e+01 -1.088518e+01) (-2.261253e-02 4.559174e+00 -7.508625e-02))
1.015072      	((-3.076059e+02 -2.085561e+01 -2.460390e+02) (-4.302403e+01 -4.004572e-02 -6.477729e-01)) ((1.255781e+01 2.028528e+01 -1.083502e+01) (-2.249815e-02 4.558437e+00 -7.541884e-02))
1.023626      	((-3.075712e+02 -2.099156e+01 -2.457773e+02) (-4.302177e+01 -3.988059e-02 -6.486035e-01)) ((1.255364e+01 2.048321e+01 -1.073711e+01) (-2.244477e-02 4.557611e+00 -7.567781e-02))
1.032184      	((-3.075393e+02 -2.096553e+01 -2.459221e+02) (-4.301941e+01 -3.958152e-02 -6.495359e-01)) ((1.252804e+01 2.035820e+01 -1.072422e+01) (-2.238798e-02 4.556668e+00 -7.596090e-02))
1.040746      	((-3.075196e+02 -2.096630e+01 -2.456969e+02) (-4.301708e+01 -3.933583e-02 -6.504490e-01)) ((1.253659e+01 2.052110e+01 -1.072895e+01) (-2.238016e-02 4.555715e+00 -7.621966e-02))
1.049313      	((-3.074855e+02 -2.087868e+01 -2.458848e+02) (-4.301492e+01 -3.923434e-02 -6.513351e-01)) ((1.251171e+01 2.035363e+01 -1.078131e+01) (-2.238870e-02 4.554788e+00 -7.630061e-02))
1.057883      	((-3.074676e+02 -2.081315e+01 -2.456939e+02) (-4.301281e+01 -3.911255e-02 -6.519004e-01)) ((1.253282e+01 2.048902e+01 -1.083034e+01) (-2.234005e-02 4.554116e+00 -7.633299e-02))
1.066458      	((-3.074398e+02 -2.065538e+01 -2.458978e+02) (-4.301079e+01 -3.916864e-02 -6.523216e-01)) ((1.252373e+01 2.031045e+01 -1.091401e+01) (-2.223652e-02 4.553570e+00 -7.621619e-02))
1.075036      	((-3.074326e+02 -2.065236e+01 -2.456829e+02) (-4.300863e+01 -3.924472e-02 -6.525096e-01)) ((1.255690e+01 2.046520e+01 -1.094897e+01) (-2.209716e-02 4.553160e+00 -7.616230e-02))
1.083619      	((-3.074013e+02 -2.056182e+01 -2.458638e+02) (-4.300651e+01 -3.938410e-02 -6.527849e-01)) ((1.254624e+01 2.030307e+01 -1.099869e+01) (-2.200391e-02 4.552645e+00 -7.606617e-02))
1.092206      	((-3.074172e+02 -2.059407e+01 -2.456427e+02) (-4.300429e+01 -3.950276e-02 -6.531091e-01)) ((1.258291e+01 2.047654e+01 -1.100409e+01) (-2.194844e-02 4.552044e+00 -7.612093e-02))