# Forces      
# CofR        : (0.000000e+00 0.000000e+00 -9.000000e-02)
# Time        forces(pressure viscous)	moments(pressure viscous)
0             	((0.000000e+00 0.000000e+00 0.000000e+00) (-1.775753e-02 -7.788746e-03 -8.099865e+00)) ((0.000000e+00 0.000000e+00 0.000000e+00) (6.457899e-02 -3.318569e+00 -5.607686e-03))
0.00931728    	((-3.677034e+02 1.895809e+02 -6.793123e+04) (4.678455e-01 -2.813095e-03 -1.146751e+01)) ((9.110789e+01 -7.703450e+03 -7.497102e+01) (2.303967e-02 -4.294638e+00 1.513015e-02))
0.0200367     	((7.786307e+01 -7.339514e+01 7.467707e+03) (9.227731e-01 5.802235e-03 -1.849784e+01)) ((3.687153e+00 5.484628e+02 4.111365e+01) (-4.146955e-02 -5.046524e+00 5.869173e-04))
0.0321592     	((-4.329480e+01 -1.132024e+01 5.404948e+03) (3.809157e-01 4.961481e-02 -3.504418e+01)) ((-1.188049e+01 1.213332e+02 4.407489e+01) (-6.476075e-02 -4.127323e+00 -4.648701e-02))
0.0456852     	((-2.006931e+01 -4.969393e+01 5.858984e+02) (4.745928e-01 5.276492e-02 -4.432059e+01)) ((9.720568e+00 -2.464053e+02 2.134729e+01) (-3.241265e-02 -4.041186e+00 -2.441893e-02))
0.0597199     	((-3.258458e+01 -3.435905e+01 -1.474379e+02) (5.537580e-01 5.426245e-02 -4.373092e+01)) ((5.470108e+00 -3.206405e+02 1.820731e+01) (-3.678580e-03 -3.644929e+00 -1.084371e-02))
0.0737546     	((-2.600532e+01 -2.893283e+01 -3.660301e+02) (5.668997e-01 7.396945e-02 -4.242681e+01)) ((5.679834e+00 -3.188485e+02 2.178154e+01) (1.389188e-02 -3.294447e+00 -8.066695e-03))
0.0877888     	((-2.150256e+01 -4.199228e+01 -5.856723e+02) (5.674224e-01 7.641773e-02 -4.146350e+01)) ((6.097563e+00 -3.301365e+02 2.401254e+01) (2.733975e-02 -3.034651e+00 -3.347448e-03))
0.101823      	((-1.717299e+01 -4.869771e+01 -7.338303e+02) (5.678131e-01 7.522971e-02 -4.072560e+01)) ((6.346082e+00 -3.316055e+02 2.618006e+01) (3.458176e-02 -2.820027e+00 -4.685587e-03))
0.115857      	((-1.449041e+01 -5.396449e+01 -8.398169e+02) (5.623007e-01 7.332101e-02 -4.016973e+01)) ((6.332567e+00 -3.302539e+02 2.538317e+01) (3.911009e-02 -2.649753e+00 -1.009422e-02))
0.12989       	((-1.291139e+01 -5.964681e+01 -9.213804e+02) (5.501820e-01 7.033838e-02 -3.976092e+01)) ((6.573139e+00 -3.293142e+02 2.633095e+01) (3.976154e-02 -2.519717e+00 -1.467276e-02))
0.143924      	((-1.165273e+01 -6.881654e+01 -9.833569e+02) (5.363787e-01 6.322300e-02 -3.944298e+01)) ((6.749676e+00 -3.276858e+02 2.946690e+01) (3.498911e-02 -2.411142e+00 -1.811362e-02))
0.157957      	((-1.032191e+01 -7.440427e+01 -1.028087e+03) (5.200341e-01 5.932037e-02 -3.918615e+01)) ((7.042722e+00 -3.251635e+02 3.102503e+01) (2.898140e-02 -2.316707e+00 -2.257268e-02))
0.171991      	((-9.449480e+00 -7.918509e+01 -1.057830e+03) (5.075652e-01 6.019832e-02 -3.897915e+01)) ((7.056255e+00 -3.216552e+02 3.150658e+01) (2.710693e-02 -2.239333e+00 -3.125591e-02))
0.186024      	((-8.528551e+00 -8.354425e+01 -1.078607e+03) (4.988816e-01 6.573198e-02 -3.881047e+01)) ((7.101216e+00 -3.181465e+02 3.355772e+01) (2.878747e-02 -2.175074e+00 -3.967823e-02))
0.200058      	((-7.184977e+00 -8.818996e+01 -1.091291e+03) (4.946785e-01 6.730405e-02 -3.867079e+01)) ((7.463949e+00 -3.147840e+02 3.627928e+01) (3.108954e-02 -2.119676e+00 -4.682175e-02))
0.214091      	((-5.962274e+00 -8.965297e+01 -1.098901e+03) (4.887740e-01 7.178917e-02 -3.855791e+01)) ((7.828594e+00 -3.112411e+02 3.814273e+01) (3.387428e-02 -2.074958e+00 -5.444285e-02))
0.228124      	((-5.065256e+00 -9.204790e+01 -1.104194e+03) (4.842217e-01 7.871206e-02 -3.847139e+01)) ((8.683950e+00 -3.089159e+02 4.004201e+01) (3.731670e-02 -2.044017e+00 -6.524124e-02))
0.242157      	((-4.352993e+00 -9.389945e+01 -1.109231e+03) (4.805002e-01 8.821475e-02 -3.840559e+01)) ((9.520021e+00 -3.074465e+02 4.263446e+01) (4.122663e-02 -2.022991e+00 -7.584830e-02))
0.25619       	((-2.597729e+00 -9.618707e+01 -1.112525e+03) (4.781587e-01 9.599549e-02 -3.835061e+01)) ((1.061532e+01 -3.061044e+02 4.508972e+01) (4.419919e-02 -2.005201e+00 -8.667308e-02))
0.270223      	((-2.019411e+00 -9.673117e+01 -1.115599e+03) (4.743090e-01 1.036757e-01 -3.830353e+01)) ((1.129633e+01 -3.050051e+02 4.691963e+01) (4.604279e-02 -1.989134e+00 -9.529601e-02))
0.284255      	((-1.984953e+00 -9.777169e+01 -1.118302e+03) (4.727232e-01 1.129979e-01 -3.826207e+01)) ((1.192266e+01 -3.041421e+02 4.822763e+01) (4.810264e-02 -1.975934e+00 -1.050140e-01))
0.298288      	((-1.138546e+00 -9.856490e+01 -1.120516e+03) (4.727425e-01 1.213777e-01 -3.822603e+01)) ((1.246304e+01 -3.036327e+02 4.960259e+01) (4.993466e-02 -1.964771e+00 -1.118503e-01))
0.312321      	((-6.208453e-01 -1.004461e+02 -1.121814e+03) (4.764944e-01 1.289570e-01 -3.819780e+01)) ((1.282606e+01 -3.032826e+02 5.019977e+01) (5.156305e-02 -1.958614e+00 -1.179866e-01))
0.326353      	((6.177127e-01 -1.016787e+02 -1.121377e+03) (4.803344e-01 1.381186e-01 -3.817598e+01)) ((1.291986e+01 -3.027744e+02 5.082610e+01) (5.288433e-02 -1.955070e+00 -1.245617e-01))
0.340385      	((1.822791e+00 -1.018721e+02 -1.120700e+03) (4.850510e-01 1.459272e-01 -3.816034e+01)) ((1.296510e+01 -3.021445e+02 5.064224e+01) (5.292798e-02 -1.954582e+00 -1.309946e-01))
0.354418      	((2.714962e+00 -1.016825e+02 -1.120123e+03) (4.885012e-01 1.535106e-01 -3.814922e+01)) ((1.286802e+01 -3.016671e+02 5.076849e+01) (5.250313e-02 -1.955685e+00 -1.370374e-01))
0.36845       	((4.186039e+00 -1.013694e+02 -1.119075e+03) (4.913358e-01 1.597718e-01 -3.814123e+01)) ((1.310890e+01 -3.011463e+02 4.985300e+01) (5.306374e-02 -1.959295e+00 -1.435916e-01))
0.382482      	((5.905129e+00 -9.931438e+01 -1.118153e+03) (4.906721e-01 1.658473e-01 -3.813653e+01)) ((1.346077e+01 -3.003444e+02 4.875916e+01) (5.359046e-02 -1.964657e+00 -1.474182e-01))
0.396515      	((7.026881e+00 -9.876701e+01 -1.117899e+03) (4.883820e-01 1.698777e-01 -3.813230e+01)) ((1.356299e+01 -2.999718e+02 4.752229e+01) (5.323921e-02 -1.969477e+00 -1.506167e-01))
0.410547      	((8.533548e+00 -9.664920e+01 -1.117649e+03) (4.844348e-01 1.724539e-01 -3.812755e+01)) ((1.358265e+01 -3.000857e+02 4.552941e+01) (5.224290e-02 -1.973028e+00 -1.514996e-01))
0.424579      	((9.925495e+00 -9.608293e+01 -1.116728e+03) (4.831170e-01 1.706636e-01 -3.812288e+01)) ((1.354341e+01 -3.001264e+02 4.325709e+01) (5.142360e-02 -1.976945e+00 -1.520278e-01))
0.438612      	((1.171630e+01 -9.187808e+01 -1.116888e+03) (4.809997e-01 1.677601e-01 -3.812208e+01)) ((1.354227e+01 -3.008020e+02 4.044249e+01) (5.064260e-02 -1.983044e+00 -1.489208e-01))
0.452644      	((1.318953e+01 -8.858722e+01 -1.117550e+03) (4.805378e-01 1.648564e-01 -3.812165e+01)) ((1.364426e+01 -3.012574e+02 3.740375e+01) (5.087686e-02 -1.988800e+00 -1.447405e-01))
0.466677      	((1.474378e+01 -8.488890e+01 -1.118529e+03) (4.802815e-01 1.600837e-01 -3.812216e+01)) ((1.396080e+01 -3.018247e+02 3.511036e+01) (5.146468e-02 -1.993887e+00 -1.387873e-01))
0.480709      	((1.652850e+01 -8.115324e+01 -1.119329e+03) (4.805406e-01 1.512271e-01 -3.812215e+01)) ((1.425983e+01 -3.020963e+02 3.199746e+01) (5.173379e-02 -1.999088e+00 -1.311279e-01))
0.494742      	((1.815299e+01 -7.750303e+01 -1.119990e+03) (4.805240e-01 1.437547e-01 -3.811891e+01)) ((1.441702e+01 -3.024647e+02 2.975361e+01) (5.365728e-02 -2.001123e+00 -1.230247e-01))
0.508775      	((1.938650e+01 -7.478412e+01 -1.120066e+03) (4.824321e-01 1.356038e-01 -3.811362e+01)) ((1.456884e+01 -3.026686e+02 2.728164e+01) (5.689728e-02 -2.002635e+00 -1.148230e-01))
0.522808      	((2.054524e+01 -7.244149e+01 -1.120557e+03) (4.844721e-01 1.279680e-01 -3.811000e+01)) ((1.457588e+01 -3.035149e+02 2.507932e+01) (6.036400e-02 -2.004911e+00 -1.067179e-01))
0.53684       	((2.159596e+01 -7.073113e+01 -1.120918e+03) (4.901248e-01 1.209654e-01 -3.810483e+01)) ((1.458910e+01 -3.039979e+02 2.281808e+01) (6.418786e-02 -2.006534e+00 -1.013167e-01))
0.550873      	((2.233290e+01 -6.963824e+01 -1.121603e+03) (4.952388e-01 1.137365e-01 -3.810087e+01)) ((1.456040e+01 -3.043891e+02 2.211939e+01) (6.654907e-02 -2.009058e+00 -9.314692e-02))
0.564906      	((2.313440e+01 -6.888611e+01 -1.122355e+03) (4.978844e-01 1.071047e-01 -3.809760e+01)) ((1.442574e+01 -3.048323e+02 2.088167e+01) (6.846610e-02 -2.011982e+00 -8.463099e-02))
0.578939      	((2.429665e+01 -6.818709e+01 -1.123369e+03) (4.996646e-01 1.007777e-01 -3.809187e+01)) ((1.436008e+01 -3.050421e+02 2.101515e+01) (7.096903e-02 -2.012438e+00 -7.552414e-02))
0.592972      	((2.557363e+01 -6.821293e+01 -1.124382e+03) (5.010222e-01 9.395227e-02 -3.808434e+01)) ((1.432996e+01 -3.055581e+02 2.036297e+01) (7.342459e-02 -2.011648e+00 -6.858225e-02))
0.607005      	((2.682372e+01 -6.792824e+01 -1.125196e+03) (5.002031e-01 9.109238e-02 -3.807510e+01)) ((1.429024e+01 -3.060191e+02 2.049333e+01) (7.584087e-02 -2.010080e+00 -6.278571e-02))
0.621038      	((2.805220e+01 -6.742406e+01 -1.126508e+03) (4.993720e-01 8.785852e-02 -3.806468e+01)) ((1.420228e+01 -3.074116e+02 1.906720e+01) (7.805618e-02 -2.008549e+00 -5.905642e-02))
0.635071      	((2.951603e+01 -6.674539e+01 -1.127651e+03) (4.992260e-01 8.660812e-02 -3.805514e+01)) ((1.417521e+01 -3.084567e+02 1.881700e+01) (8.041152e-02 -2.007239e+00 -5.711137e-02))
0.649104      	((3.093067e+01 -6.576921e+01 -1.129401e+03) (5.021142e-01 8.438572e-02 -3.804753e+01)) ((1.414700e+01 -3.094746e+02 1.766371e+01) (8.271497e-02 -2.007682e+00 -5.623389e-02))
0.663137      	((3.200779e+01 -6.457115e+01 -1.130951e+03) (5.049456e-01 8.272083e-02 -3.804167e+01)) ((1.413892e+01 -3.103977e+02 1.732060e+01) (8.492962e-02 -2.008940e+00 -5.438150e-02))
0.67717       	((3.329933e+01 -6.361125e+01 -1.132257e+03) (5.083244e-01 8.374700e-02 -3.803611e+01)) ((1.429577e+01 -3.108089e+02 1.633676e+01) (8.748755e-02 -2.010582e+00 -5.451754e-02))
0.691203      	((3.442031e+01 -6.298729e+01 -1.134267e+03) (5.119490e-01 8.611970e-02 -3.803248e+01)) ((1.419025e+01 -3.117290e+02 1.611156e+01) (9.009965e-02 -2.012058e+00 -5.434656e-02))
0.705236      	((3.526496e+01 -6.324360e+01 -1.135522e+03) (5.160832e-01 8.813577e-02 -3.802897e+01)) ((1.419492e+01 -3.125086e+02 1.515411e+01) (9.206919e-02 -2.013715e+00 -5.493607e-02))
0.719269      	((3.575187e+01 -6.340603e+01 -1.136247e+03) (5.192981e-01 8.900696e-02 -3.802503e+01)) ((1.394057e+01 -3.134464e+02 1.462162e+01) (9.301491e-02 -2.015053e+00 -5.449359e-02))
0.733302      	((3.642841e+01 -6.344718e+01 -1.137217e+03) (5.251361e-01 8.985151e-02 -3.802059e+01)) ((1.374978e+01 -3.142694e+02 1.371710e+01) (9.338862e-02 -2.016565e+00 -5.472149e-02))
0.747335      	((3.704185e+01 -6.348167e+01 -1.137651e+03) (5.323390e-01 9.180464e-02 -3.801712e+01)) ((1.354269e+01 -3.145923e+02 1.366033e+01) (9.375828e-02 -2.017573e+00 -5.447905e-02))
0.761367      	((3.763737e+01 -6.376300e+01 -1.138214e+03) (5.406869e-01 9.266062e-02 -3.801392e+01)) ((1.349512e+01 -3.149906e+02 1.271564e+01) (9.439599e-02 -2.018425e+00 -5.585562e-02))
0.7754        	((3.822677e+01 -6.399938e+01 -1.139090e+03) (5.496224e-01 9.477517e-02 -3.801037e+01)) ((1.342410e+01 -3.152450e+02 1.277751e+01) (9.498728e-02 -2.018942e+00 -5.627906e-02))
0.789433      	((3.892468e+01 -6.390818e+01 -1.139458e+03) (5.589439e-01 9.610564e-02 -3.800803e+01)) ((1.348662e+01 -3.155282e+02 1.179641e+01) (9.552640e-02 -2.019579e+00 -5.711604e-02))
0.803466      	((3.930887e+01 -6.476285e+01 -1.139181e+03) (5.666237e-01 9.730451e-02 -3.800750e+01)) ((1.332581e+01 -3.155632e+02 1.178809e+01) (9.576431e-02 -2.020428e+00 -5.701934e-02))
0.817499      	((3.989913e+01 -6.587397e+01 -1.138784e+03) (5.745832e-01 9.695562e-02 -3.800741e+01)) ((1.321772e+01 -3.160321e+02 1.070833e+01) (9.588175e-02 -2.021587e+00 -5.851819e-02))
0.831532      	((4.050007e+01 -6.640486e+01 -1.138276e+03) (5.809246e-01 9.637391e-02 -3.800774e+01)) ((1.314467e+01 -3.162024e+02 1.079906e+01) (9.588137e-02 -2.022580e+00 -5.885164e-02))
0.845565      	((4.078358e+01 -6.805267e+01 -1.138368e+03) (5.878618e-01 9.601438e-02 -3.800784e+01)) ((1.303749e+01 -3.164711e+02 1.070609e+01) (9.589550e-02 -2.023346e+00 -5.961800e-02))
0.859598      	((4.183883e+01 -6.916295e+01 -1.137796e+03) (5.940616e-01 9.539688e-02 -3.800915e+01)) ((1.303274e+01 -3.162936e+02 1.140676e+01) (9.570904e-02 -2.023683e+00 -5.927461e-02))
0.873631      	((4.253158e+01 -7.073119e+01 -1.137935e+03) (6.005411e-01 9.456600e-02 -3.801270e+01)) ((1.307035e+01 -3.163178e+02 1.165584e+01) (9.479057e-02 -2.025959e+00 -6.058516e-02))
0.887664      	((4.295246e+01 -7.242070e+01 -1.137666e+03) (6.064090e-01 9.600564e-02 -3.801669e+01)) ((1.297869e+01 -3.162525e+02 1.306594e+01) (9.391830e-02 -2.027802e+00 -6.213947e-02))
0.901697      	((4.363966e+01 -7.362581e+01 -1.137063e+03) (6.121224e-01 9.767802e-02 -3.802056e+01)) ((1.291367e+01 -3.164507e+02 1.319062e+01) (9.352119e-02 -2.029876e+00 -6.421826e-02))
0.91573       	((4.359272e+01 -7.590610e+01 -1.136275e+03) (6.164147e-01 9.844811e-02 -3.802564e+01)) ((1.264454e+01 -3.168352e+02 1.416321e+01) (9.310142e-02 -2.032173e+00 -6.633803e-02))
0.929762      	((4.389713e+01 -7.780097e+01 -1.135626e+03) (6.205314e-01 9.778524e-02 -3.803081e+01)) ((1.247483e+01 -3.171232e+02 1.462500e+01) (9.200715e-02 -2.035153e+00 -6.902346e-02))
0.943795      	((4.471994e+01 -7.913520e+01 -1.135275e+03) (6.239939e-01 9.802709e-02 -3.803705e+01)) ((1.247681e+01 -3.173357e+02 1.581771e+01) (9.007927e-02 -2.038722e+00 -7.059886e-02))
0.957828      	((4.470438e+01 -8.094838e+01 -1.134945e+03) (6.271945e-01 9.880486e-02 -3.804341e+01)) ((1.245060e+01 -3.174751e+02 1.677178e+01) (8.777085e-02 -2.042476e+00 -7.338135e-02))
0.971861      	((4.500587e+01 -8.257375e+01 -1.134386e+03) (6.283006e-01 1.006056e-01 -3.804687e+01)) ((1.253986e+01 -3.171855e+02 1.855932e+01) (8.589104e-02 -2.043599e+00 -7.556046e-02))
0.985894      	((4.574821e+01 -8.358413e+01 -1.134321e+03) (6.306117e-01 1.017030e-01 -3.804875e+01)) ((1.263650e+01 -3.174740e+02 1.898902e+01) (8.504654e-02 -2.043507e+00 -7.876925e-02))
0.999927      	((4.568114e+01 -8.485963e+01 -1.133824e+03) (6.321441e-01 1.027172e-01 -3.804944e+01)) ((1.261340e+01 -3.177315e+02 2.026396e+01) (8.455717e-02 -2.042765e+00 -7.978328e-02))
1.01396       	((4.568816e+01 -8.668627e+01 -1.133063e+03) (6.318549e-01 1.044781e-01 -3.804856e+01)) ((1.250268e+01 -3.182632e+02 2.054990e+01) (8.412075e-02 -2.041678e+00 -8.230756e-02))
1.027992      	((4.608955e+01 -8.718073e+01 -1.132474e+03) (6.313667e-01 1.073210e-01 -3.804967e+01)) ((1.248990e+01 -3.186249e+02 2.140394e+01) (8.348535e-02 -2.041849e+00 -8.492884e-02))
1.042025      	((4.634921e+01 -8.777774e+01 -1.132366e+03) (6.329344e-01 1.094147e-01 -3.805153e+01)) ((1.255511e+01 -3.189940e+02 2.139448e+01) (8.258145e-02 -2.043562e+00 -8.840495e-02))
1.056058      	((4.664831e+01 -8.823218e+01 -1.131479e+03) (6.351046e-01 1.124071e-01 -3.805273e+01)) ((1.258840e+01 -3.188635e+02 2.229565e+01) (8.145543e-02 -2.045197e+00 -9.125680e-02))
1.070091      	((4.713808e+01 -8.751108e+01 -1.131446e+03) (6.358506e-01 1.148022e-01 -3.805351e+01)) ((1.277012e+01 -3.190029e+02 2.179003e+01) (8.038627e-02 -2.047102e+00 -9.365674e-02))
1.084124      	((4.728298e+01 -8.787637e+01 -1.131592e+03) (6.371238e-01 1.172819e-01 -3.805517e+01)) ((1.275638e+01 -3.191278e+02 2.253840e+01) (7.939268e-02 -2.048998e+00 -9.508234e-02))
1.098157      	((4.792728e+01 -8.781663e+01 -1.131578e+03) (6.402682e-01 1.200698e-01 -3.805636e+01)) ((1.262707e+01 -3.197071e+02 2.167435e+01) (7.841207e-02 -2.051867e+00 -9.740848e-02))
1.112189      	((4.835090e+01 -8.740968e+01 -1.130349e+03) (6.430446e-01 1.219521e-01 -3.805886e+01)) ((1.254868e+01 -3.198544e+02 2.122623e+01) (7.745214e-02 -2.055738e+00 -9.872180e-02))
1.126222      	((4.819955e+01 -8.727748e+01 -1.130353e+03) (6.451223e-01 1.237421e-01 -3.806187e+01)) ((1.222842e+01 -3.204957e+02 2.042023e+01) (7.649635e-02 -2.060047e+00 -9.988461e-02))
1.140255      	((4.864378e+01 -8.716405e+01 -1.129725e+03) (6.487772e-01 1.258793e-01 -3.806521e+01)) ((1.204659e+01 -3.204357e+02 2.039012e+01) (7.558811e-02 -2.064059e+00 -1.000864e-01))
1.154288      	((4.915644e+01 -8.627128e+01 -1.129985e+03) (6.529504e-01 1.267396e-01 -3.806958e+01)) ((1.187242e+01 -3.209140e+02 1.900315e+01) (7.495472e-02 -2.068941e+00 -1.011778e-01))
1.168321      	((4.909006e+01 -8.642330e+01 -1.129642e+03) (6.568716e-01 1.278996e-01 -3.807356e+01)) ((1.175739e+01 -3.205055e+02 1.928945e+01) (7.454143e-02 -2.073365e+00 -1.008056e-01))
1.182354      	((4.946996e+01 -8.631800e+01 -1.129500e+03) (6.590806e-01 1.298233e-01 -3.807581e+01)) ((1.149254e+01 -3.205911e+02 1.832006e+01) (7.435419e-02 -2.076024e+00 -1.011335e-01))
1.196387      	((4.978835e+01 -8.601632e+01 -1.129364e+03) (6.610615e-01 1.333043e-01 -3.807688e+01)) ((1.138353e+01 -3.205888e+02 1.787219e+01) (7.475283e-02 -2.077147e+00 -1.020786e-01))
1.21042       	((4.963954e+01 -8.691981e+01 -1.129223e+03) (6.635146e-01 1.347149e-01 -3.807734e+01)) ((1.103774e+01 -3.211466e+02 1.670942e+01) (7.495990e-02 -2.078423e+00 -1.043705e-01))
1.224453      	((4.986050e+01 -8.711699e+01 -1.128415e+03) (6.653959e-01 1.379365e-01 -3.807698e+01)) ((1.082555e+01 -3.210913e+02 1.659830e+01) (7.528850e-02 -2.078981e+00 -1.059566e-01))
1.238486      	((5.010965e+01 -8.693476e+01 -1.127800e+03) (6.670126e-01 1.410211e-01 -3.807701e+01)) ((1.090374e+01 -3.208307e+02 1.558621e+01) (7.581969e-02 -2.079593e+00 -1.080471e-01))
1.252519      	((4.978353e+01 -8.777894e+01 -1.127829e+03) (6.678285e-01 1.430199e-01 -3.807838e+01)) ((1.079909e+01 -3.208062e+02 1.593337e+01) (7.566816e-02 -2.080404e+00 -1.093216e-01))
1.266551      	((5.004113e+01 -8.804128e+01 -1.127812e+03) (6.700824e-01 1.458883e-01 -3.807903e+01)) ((1.079507e+01 -3.206442e+02 1.525129e+01) (7.533869e-02 -2.081210e+00 -1.122434e-01))
1.280584      	((5.022126e+01 -8.713599e+01 -1.127893e+03) (6.699888e-01 1.483556e-01 -3.808103e+01)) ((1.084961e+01 -3.206623e+02 1.491633e+01) (7.513536e-02 -2.081510e+00 -1.134048e-01))
1.294617      	((4.987746e+01 -8.790900e+01 -1.127617e+03) (6.690773e-01 1.500736e-01 -3.808292e+01)) ((1.080436e+01 -3.206225e+02 1.458614e+01) (7.436933e-02 -2.082063e+00 -1.142885e-01))
1.30865       	((4.992243e+01 -8.735713e+01 -1.127151e+03) (6.685176e-01 1.530281e-01 -3.808371e+01)) ((1.066675e+01 -3.210625e+02 1.376298e+01) (7.330170e-02 -2.081331e+00 -1.160901e-01))
1.322683      	((5.012277e+01 -8.678760e+01 -1.126493e+03) (6.692461e-01 1.543281e-01 -3.808322e+01)) ((1.075812e+01 -3.210430e+02 1.303789e+01) (7.249140e-02 -2.080023e+00 -1.192693e-01))
1.336716      	((4.977355e+01 -8.572341e+01 -1.126433e+03) (6.692389e-01 1.563397e-01 -3.808314e+01)) ((1.094686e+01 -3.210270e+02 1.275392e+01) (7.161724e-02 -2.078708e+00 -1.211866e-01))
1.350749      	((5.023094e+01 -8.513576e+01 -1.125619e+03) (6.704044e-01 1.590836e-01 -3.808246e+01)) ((1.125460e+01 -3.205274e+02 1.233031e+01) (7.094462e-02 -2.077274e+00 -1.237915e-01))
1.364782      	((5.046429e+01 -8.341225e+01 -1.125924e+03) (6.706005e-01 1.598687e-01 -3.808375e+01)) ((1.150190e+01 -3.204719e+02 1.218664e+01) (6.987487e-02 -2.076950e+00 -1.244838e-01))
1.378815      	((5.027056e+01 -8.273147e+01 -1.126233e+03) (6.709798e-01 1.594466e-01 -3.808460e+01)) ((1.154790e+01 -3.206057e+02 1.167158e+01) (6.928371e-02 -2.076755e+00 -1.258938e-01))
1.392848      	((5.045531e+01 -8.125881e+01 -1.125766e+03) (6.718769e-01 1.619117e-01 -3.808412e+01)) ((1.172111e+01 -3.205003e+02 1.129919e+01) (6.952561e-02 -2.075970e+00 -1.269532e-01))
1.40688       	((5.048088e+01 -8.042753e+01 -1.125322e+03) (6.724071e-01 1.632480e-01 -3.808483e+01)) ((1.163535e+01 -3.208570e+02 1.039978e+01) (6.983673e-02 -2.076465e+00 -1.284404e-01))
1.420913      	((5.017521e+01 -7.916440e+01 -1.125157e+03) (6.713350e-01 1.642010e-01 -3.808550e+01)) ((1.161545e+01 -3.211024e+02 1.017072e+01) (7.056862e-02 -2.076129e+00 -1.279399e-01))
1.434946      	((5.057224e+01 -7.903554e+01 -1.124438e+03) (6.736745e-01 1.641338e-01 -3.808440e+01)) ((1.167539e+01 -3.206567e+02 1.002141e+01) (7.193472e-02 -2.075184e+00 -1.282818e-01))
1.448979      	((5.094354e+01 -7.779256e+01 -1.124336e+03) (6.754665e-01 1.640848e-01 -3.808486e+01)) ((1.175124e+01 -3.205095e+02 1.013839e+01) (7.304298e-02 -2.075429e+00 -1.271185e-01))
1.463012      	((5.093471e+01 -7.752986e+01 -1.124426e+03) (6.768477e-01 1.642394e-01 -3.808473e+01)) ((1.179766e+01 -3.201646e+02 9.956541e+00) (7.430317e-02 -2.075982e+00 -1.260605e-01))
1.477045      	((5.136589e+01 -7.790066e+01 -1.123955e+03) (6.798495e-01 1.656662e-01 -3.808481e+01)) ((1.179619e+01 -3.196193e+02 1.060249e+01) (7.573635e-02 -2.076064e+00 -1.255381e-01))
1.491078      	((5.168457e+01 -7.772521e+01 -1.123951e+03) (6.819833e-01 1.661310e-01 -3.808497e+01)) ((1.177324e+01 -3.197080e+02 9.613756e+00) (7.716379e-02 -2.076922e+00 -1.254406e-01))
1.505111      	((5.139234e+01 -7.918209e+01 -1.123231e+03) (6.829006e-01 1.671663e-01 -3.808477e+01)) ((1.158555e+01 -3.196202e+02 9.898954e+00) (7.863151e-02 -2.077536e+00 -1.250369e-01))
1.519144      	((5.173555e+01 -8.031588e+01 -1.122723e+03) (6.840280e-01 1.697151e-01 -3.808451e+01)) ((1.137755e+01 -3.196464e+02 9.669948e+00) (7.975652e-02 -2.078552e+00 -1.253727e-01))
1.533177      	((5.206353e+01 -8.083768e+01 -1.122358e+03) (6.849518e-01 1.718218e-01 -3.808431e+01)) ((1.143003e+01 -3.193276e+02 9.701705e+00) (8.150020e-02 -2.078261e+00 -1.250248e-01))
1.54721       	((5.194771e+01 -8.317800e+01 -1.121977e+03) (6.863380e-01 1.714999e-01 -3.808495e+01)) ((1.135394e+01 -3.188635e+02 1.012286e+01) (8.290041e-02 -2.078518e+00 -1.253646e-01))
1.561243      	((5.230561e+01 -8.444048e+01 -1.121926e+03) (6.860533e-01 1.723827e-01 -3.808661e+01)) ((1.131641e+01 -3.185070e+02 1.081030e+01) (8.337295e-02 -2.079450e+00 -1.242446e-01))
1.575276      	((5.262265e+01 -8.511836e+01 -1.122072e+03) (6.858219e-01 1.729085e-01 -3.808826e+01)) ((1.135918e+01 -3.183987e+02 1.047563e+01) (8.391955e-02 -2.079943e+00 -1.244389e-01))
1.589309      	((5.229037e+01 -8.704176e+01 -1.121952e+03) (6.852044e-01 1.732807e-01 -3.809020e+01)) ((1.121303e+01 -3.182567e+02 1.138342e+01) (8.391293e-02 -2.080245e+00 -1.240687e-01))
1.603342      	((5.244284e+01 -8.819645e+01 -1.121524e+03) (6.847301e-01 1.731320e-01 -3.809126e+01)) ((1.097551e+01 -3.185669e+02 1.059608e+01) (8.362785e-02 -2.080243e+00 -1.255296e-01))
1.617375      	((5.243145e+01 -8.817122e+01 -1.121283e+03) (6.846130e-01 1.745233e-01 -3.809185e+01)) ((1.097511e+01 -3.186176e+02 1.083312e+01) (8.367407e-02 -2.079442e+00 -1.272096e-01))
1.631408      	((5.214276e+01 -8.902791e+01 -1.121095e+03) (6.844722e-01 1.748527e-01 -3.809288e+01)) ((1.095975e+01 -3.184152e+02 1.119125e+01) (8.314441e-02 -2.078842e+00 -1.283710e-01))
1.645441      	((5.232477e+01 -8.859691e+01 -1.120996e+03) (6.841582e-01 1.753403e-01 -3.809426e+01)) ((1.100565e+01 -3.182781e+02 1.156030e+01) (8.243257e-02 -2.077440e+00 -1.287454e-01))
1.659474      	((5.265958e+01 -8.808196e+01 -1.120885e+03) (6.844094e-01 1.752654e-01 -3.809634e+01)) ((1.128013e+01 -3.178414e+02 1.162850e+01) (8.185991e-02 -2.077192e+00 -1.306374e-01))
1.673507      	((5.235542e+01 -8.726643e+01 -1.121340e+03) (6.831992e-01 1.739201e-01 -3.810043e+01)) ((1.129045e+01 -3.179457e+02 1.215097e+01) (8.076087e-02 -2.077968e+00 -1.303245e-01))
1.68754       	((5.261829e+01 -8.627356e+01 -1.121262e+03) (6.833693e-01 1.737843e-01 -3.810227e+01)) ((1.124374e+01 -3.181130e+02 1.181375e+01) (8.004364e-02 -2.078035e+00 -1.308779e-01))
1.701573      	((5.278127e+01 -8.490219e+01 -1.120739e+03) (6.825987e-01 1.732318e-01 -3.810402e+01)) ((1.134036e+01 -3.182751e+02 1.168553e+01) (7.950764e-02 -2.077748e+00 -1.315372e-01))
1.715605      	((5.249850e+01 -8.339991e+01 -1.120837e+03) (6.817606e-01 1.718130e-01 -3.810519e+01)) ((1.127416e+01 -3.186482e+02 1.119635e+01) (7.900111e-02 -2.077883e+00 -1.327783e-01))
1.729638      	((5.284621e+01 -8.187381e+01 -1.120457e+03) (6.827755e-01 1.724334e-01 -3.810515e+01)) ((1.139587e+01 -3.183816e+02 1.176857e+01) (7.903906e-02 -2.077440e+00 -1.332158e-01))
1.743671      	((5.325234e+01 -7.933845e+01 -1.120643e+03) (6.837269e-01 1.717028e-01 -3.810521e+01)) ((1.158810e+01 -3.184481e+02 1.106883e+01) (7.937049e-02 -2.077323e+00 -1.330636e-01))
1.757704      	((5.310212e+01 -7.812013e+01 -1.120910e+03) (6.849796e-01 1.711741e-01 -3.810599e+01)) ((1.172041e+01 -3.181240e+02 1.195557e+01) (7.948979e-02 -2.077706e+00 -1.323328e-01))
1.771737      	((5.359998e+01 -7.636673e+01 -1.121181e+03) (6.872812e-01 1.713567e-01 -3.810680e+01)) ((1.175834e+01 -3.182042e+02 1.141679e+01) (7.957528e-02 -2.078679e+00 -1.332794e-01))
1.78577       	((5.382302e+01 -7.414813e+01 -1.121519e+03) (6.881847e-01 1.723497e-01 -3.810744e+01)) ((1.180551e+01 -3.184160e+02 1.107299e+01) (8.002461e-02 -2.079655e+00 -1.328905e-01))
1.799803      	((5.348078e+01 -7.392660e+01 -1.121363e+03) (6.891040e-01 1.720397e-01 -3.810772e+01)) ((1.159764e+01 -3.187651e+02 1.065809e+01) (8.019317e-02 -2.081349e+00 -1.331725e-01))
1.813836      	((5.375143e+01 -7.255772e+01 -1.121373e+03) (6.893878e-01 1.728140e-01 -3.810706e+01)) ((1.145067e+01 -3.190569e+02 1.056565e+01) (8.025271e-02 -2.081880e+00 -1.324520e-01))
1.827869      	((5.416165e+01 -7.179780e+01 -1.121270e+03) (6.908670e-01 1.733357e-01 -3.810621e+01)) ((1.154084e+01 -3.188690e+02 1.019079e+01) (8.064783e-02 -2.082275e+00 -1.333168e-01))
1.841902      	((5.398943e+01 -7.103632e+01 -1.121537e+03) (6.918050e-01 1.735477e-01 -3.810603e+01)) ((1.156626e+01 -3.188460e+02 1.047202e+01) (8.088745e-02 -2.082808e+00 -1.328250e-01))
1.855935      	((5.443749e+01 -7.065978e+01 -1.121554e+03) (6.931488e-01 1.750723e-01 -3.810523e+01)) ((1.170908e+01 -3.184413e+02 1.032087e+01) (8.110088e-02 -2.083286e+00 -1.332995e-01))
1.869968      	((5.470071e+01 -7.010901e+01 -1.121792e+03) (6.930813e-01 1.770013e-01 -3.810657e+01)) ((1.182552e+01 -3.183312e+02 1.063167e+01) (8.108862e-02 -2.084065e+00 -1.338095e-01))
1.884001      	((5.444818e+01 -6.998175e+01 -1.122235e+03) (6.912767e-01 1.779500e-01 -3.810726e+01)) ((1.168957e+01 -3.186775e+02 9.910042e+00) (8.089784e-02 -2.084886e+00 -1.345643e-01))
1.898034      	((5.448930e+01 -7.067680e+01 -1.121525e+03) (6.907974e-01 1.798508e-01 -3.810636e+01)) ((1.157053e+01 -3.186454e+02 1.016140e+01) (8.087044e-02 -2.084779e+00 -1.357640e-01))
1.912067      	((5.477069e+01 -7.024809e+01 -1.121374e+03) (6.906435e-01 1.803201e-01 -3.810583e+01)) ((1.154871e+01 -3.188088e+02 9.639323e+00) (8.077817e-02 -2.085017e+00 -1.369877e-01))
1.9261        	((5.446986e+01 -7.011551e+01 -1.121491e+03) (6.894890e-01 1.813907e-01 -3.810535e+01)) ((1.159491e+01 -3.187423e+02 9.880799e+00) (8.086868e-02 -2.083953e+00 -1.374988e-01))
1.940133      	((5.487671e+01 -7.056722e+01 -1.121079e+03) (6.900295e-01 1.822790e-01 -3.810464e+01)) ((1.169142e+01 -3.183399e+02 9.988536e+00) (8.048550e-02 -2.083363e+00 -1.396130e-01))
1.954166      	((5.525583e+01 -6.913960e+01 -1.121653e+03) (6.893133e-01 1.826205e-01 -3.810459e+01)) ((1.190462e+01 -3.183735e+02 9.988292e+00) (7.953044e-02 -2.083577e+00 -1.397496e-01))
1.968199      	((5.506122e+01 -6.953963e+01 -1.121971e+03) (6.891204e-01 1.829994e-01 -3.810369e+01)) ((1.194908e+01 -3.183176e+02 1.026457e+01) (7.873527e-02 -2.083231e+00 -1.408717e-01))
1.982232      	((5.524103e+01 -6.915100e+01 -1.121951e+03) (6.884651e-01 1.837482e-01 -3.810244e+01)) ((1.199121e+01 -3.184255e+02 1.039214e+01) (7.761161e-02 -2.082607e+00 -1.409463e-01))
1.996265      	((5.542399e+01 -6.843335e+01 -1.122102e+03) (6.863378e-01 1.825708e-01 -3.810069e+01)) ((1.195066e+01 -3.191226e+02 9.153744e+00) (7.667954e-02 -2.082311e+00 -1.420653e-01))
2.010298      	((5.503425e+01 -6.861842e+01 -1.121985e+03) (6.845120e-01 1.821409e-01 -3.809906e+01)) ((1.191089e+01 -3.192263e+02 9.941228e+00) (7.582604e-02 -2.082271e+00 -1.421827e-01))
2.024331      	((5.537932e+01 -6.820391e+01 -1.122031e+03) (6.845479e-01 1.821579e-01 -3.809717e+01)) ((1.191445e+01 -3.193902e+02 9.607984e+00) (7.515936e-02 -2.082487e+00 -1.425695e-01))
2.038364      	((5.569738e+01 -6.716385e+01 -1.122103e+03) (6.846568e-01 1.822633e-01 -3.809600e+01)) ((1.211007e+01 -3.193291e+02 9.818341e+00) (7.531801e-02 -2.082144e+00 -1.424849e-01))
2.052396      	((5.555033e+01 -6.759175e+01 -1.122305e+03) (6.851541e-01 1.796762e-01 -3.809628e+01)) ((1.217010e+01 -3.191298e+02 1.019495e+01) (7.512238e-02 -2.083621e+00 -1.419794e-01))
2.066429      	((5.580196e+01 -6.728387e+01 -1.122596e+03) (6.854388e-01 1.784621e-01 -3.809703e+01)) ((1.208383e+01 -3.193060e+02 1.063765e+01) (7.496512e-02 -2.085196e+00 -1.403776e-01))
2.080462      	((5.605788e+01 -6.735558e+01 -1.122484e+03) (6.854962e-01 1.777189e-01 -3.809738e+01)) ((1.207047e+01 -3.193246e+02 1.045440e+01) (7.515230e-02 -2.087156e+00 -1.389579e-01))
2.094495      	((5.567013e+01 -6.840097e+01 -1.122381e+03) (6.849396e-01 1.753888e-01 -3.809794e+01)) ((1.177502e+01 -3.198017e+02 1.061901e+01) (7.513608e-02 -2.089278e+00 -1.371324e-01))
2.108528      	((5.596325e+01 -6.932184e+01 -1.122112e+03) (6.863661e-01 1.743185e-01 -3.809645e+01)) ((1.150273e+01 -3.199913e+02 1.052963e+01) (7.577247e-02 -2.090507e+00 -1.368659e-01))
2.122561      	((5.628777e+01 -6.996919e+01 -1.121725e+03) (6.879320e-01 1.729596e-01 -3.809543e+01)) ((1.154677e+01 -3.196354e+02 1.112470e+01) (7.675042e-02 -2.091421e+00 -1.349447e-01))
2.136594      	((5.613913e+01 -7.156009e+01 -1.121978e+03) (6.893293e-01 1.707107e-01 -3.809556e+01)) ((1.133485e+01 -3.197086e+02 1.133458e+01) (7.719820e-02 -2.093474e+00 -1.332125e-01))
2.150627      	((5.646290e+01 -7.290705e+01 -1.121971e+03) (6.913897e-01 1.707632e-01 -3.809514e+01)) ((1.125583e+01 -3.193543e+02 1.225606e+01) (7.771457e-02 -2.094770e+00 -1.317647e-01))
2.16466       	((5.678006e+01 -7.457892e+01 -1.122059e+03) (6.927844e-01 1.695733e-01 -3.809626e+01)) ((1.110458e+01 -3.192758e+02 1.253074e+01) (7.820899e-02 -2.096713e+00 -1.313953e-01))
2.178693      	((5.638037e+01 -7.656930e+01 -1.122353e+03) (6.922396e-01 1.697354e-01 -3.809757e+01)) ((1.082925e+01 -3.195017e+02 1.318263e+01) (7.875376e-02 -2.098446e+00 -1.300239e-01))