# Forces      
# CofR        : (0.000000e+00 0.000000e+00 0.000000e+00)
# Time        forces(pressure viscous)	moments(pressure viscous)
0             	((0.000000e+00 0.000000e+00 0.000000e+00) (-2.868893e-13 2.016868e-03 7.633119e-15)) ((0.000000e+00 0.000000e+00 0.000000e+00) (9.595102e-15 4.478203e-16 -7.354045e-10))
0.012         	((6.184793e-07 5.850690e-01 4.801283e-07) (1.599291e-09 2.307220e-03 -1.262788e-09)) ((1.221402e-10 6.240873e-12 -1.089214e-07) (1.336155e-11 5.436934e-13 -1.135572e-09))
0.0264        	((-8.935846e-06 -6.562764e-02 -5.740322e-06) (-3.669386e-09 2.329615e-03 -5.564360e-09)) ((4.599743e-10 3.634218e-11 5.925761e-09) (5.566249e-11 4.732962e-12 -7.476936e-10))
0.04368       	((1.467755e-05 -1.088597e-01 2.116250e-06) (7.075480e-09 2.045670e-03 -5.948684e-09)) ((-6.164300e-10 5.661797e-11 3.281574e-08) (4.973332e-12 6.946635e-12 1.861044e-10))
0.064416      	((6.017332e-08 -7.343894e-04 1.824052e-06) (-2.729657e-08 1.802206e-03 -1.291949e-09)) ((9.139112e-11 -6.927095e-12 -4.709865e-09) (-1.053079e-10 -1.687747e-11 -1.993607e-10))
0.0892992     	((-1.845608e-06 -2.798468e-04 1.740012e-06) (-4.415813e-08 1.658452e-03 -2.736982e-09)) ((1.719935e-11 -3.579332e-11 -2.387720e-10) (-9.877120e-11 -3.486299e-11 -2.879092e-11))
0.119159      	((1.814833e-06 -1.703447e-03 5.076235e-07) (-4.692038e-08 1.533785e-03 -7.634329e-10)) ((2.185060e-11 -1.210118e-11 6.698763e-10) (-1.302805e-10 -3.925328e-11 3.108993e-10))
0.154991      	((-1.390247e-06 -3.988848e-04 -5.613258e-07) (-1.086454e-07 1.409351e-03 3.450462e-09)) ((5.037892e-11 -1.946054e-11 -1.195917e-10) (-1.418481e-10 -4.134440e-11 5.375615e-10))
0.197989      	((-9.741766e-07 7.174368e-05 -5.489353e-07) (-1.765349e-07 1.292670e-03 5.692111e-09)) ((3.329434e-11 -7.958245e-13 -3.917366e-11) (-7.792463e-11 -3.344955e-11 1.245799e-09))
0.249587      	((-1.006411e-06 2.428963e-04 -3.624822e-07) (-2.113373e-07 1.187539e-03 8.290062e-09)) ((4.589716e-11 -5.104884e-12 -1.127099e-10) (3.132356e-11 -2.546061e-11 2.120492e-09))
0.311504      	((-5.158171e-07 3.479246e-04 -2.940826e-07) (-2.115206e-07 1.095083e-03 7.423493e-09)) ((2.757915e-11 -8.082881e-12 -1.001872e-10) (8.450519e-11 -1.578047e-11 2.499091e-09))
0.385805      	((-6.178844e-07 4.052825e-04 -1.922772e-07) (-1.995372e-07 1.013803e-03 3.572914e-09)) ((1.742050e-11 -4.059490e-12 -6.764736e-11) (8.547387e-11 -7.958727e-12 2.551842e-09))
0.474966      	((-4.542696e-07 4.346921e-04 -1.599105e-07) (-1.860125e-07 9.407856e-04 -1.516983e-10)) ((7.682569e-12 -4.973876e-12 -1.188064e-10) (7.322801e-11 -1.415018e-11 2.832667e-09))
0.581959      	((-3.290567e-07 4.459793e-04 -1.026808e-07) (-1.608195e-07 8.718880e-04 -3.384973e-09)) ((-2.631016e-14 -3.445010e-12 -1.403440e-10) (3.107739e-11 -2.272473e-11 3.622614e-09))
0.710351      	((-2.547299e-07 4.468097e-04 -8.822748e-08) (-1.326817e-07 8.048163e-04 -6.191242e-09)) ((-5.941245e-12 -1.970033e-12 -1.939446e-10) (1.584737e-11 -2.509386e-11 4.629595e-09))
0.864421      	((-1.908175e-07 4.442374e-04 -7.550795e-08) (-1.071996e-07 7.402726e-04 -7.502772e-09)) ((-9.918697e-12 -3.007056e-13 -2.519890e-10) (-1.429227e-12 -1.805842e-11 5.418679e-09))
1.049306      	((-6.452050e-08 4.440451e-04 -4.954354e-08) (-8.901368e-08 6.796390e-04 -8.182036e-09)) ((-1.147386e-11 -7.104202e-13 -3.134263e-10) (-7.278092e-11 -1.048888e-11 5.904979e-09))
1.271167      	((-2.582055e-08 4.507761e-04 -4.440826e-08) (-7.801790e-08 6.238670e-04 -6.898654e-09)) ((-9.215774e-12 4.844135e-13 -3.933512e-10) (-2.602215e-10 1.236188e-12 6.259236e-09))
1.5374        	((-7.813291e-08 4.667025e-04 -1.395034e-07) (-5.747625e-08 5.735316e-04 -4.326423e-09)) ((-3.360605e-12 1.240119e-12 -4.854948e-10) (-5.121228e-10 1.751351e-11 6.583292e-09))
1.85688       	((-8.741997e-08 4.935433e-04 -1.749737e-07) (-2.867850e-08 5.289005e-04 -3.343947e-09)) ((2.456215e-12 1.269942e-12 -5.942851e-10) (-7.360264e-10 2.577776e-11 6.600957e-09))
2.240256      	((-1.872334e-07 5.339891e-04 -3.142836e-07) (-3.551345e-09 4.901018e-04 -6.279617e-09)) ((5.434053e-12 1.298515e-12 -7.292836e-10) (-8.656693e-10 2.747725e-11 6.570885e-09))
2.700307      	((-1.632934e-07 5.899142e-04 -3.051045e-07) (1.717339e-08 4.570090e-04 -1.043050e-08)) ((5.011953e-12 1.157413e-12 -8.822710e-10) (-7.770252e-10 2.281534e-11 7.367418e-09))
3.239515      	((-3.058273e-08 6.616613e-04 -2.789076e-07) (1.637666e-08 4.297300e-04 -1.345356e-08)) ((2.989937e-12 9.472188e-13 -1.084041e-09) (-5.557326e-10 1.753115e-11 9.177923e-09))
3.857319      	((2.593214e-08 7.478150e-04 -2.397080e-07) (1.245245e-08 4.076059e-04 -1.552800e-08)) ((2.315052e-12 1.364964e-12 -1.333424e-09) (-4.007046e-10 7.979426e-12 1.113980e-08))
4.553095      	((2.967309e-07 8.465078e-04 -1.379910e-07) (1.909127e-08 3.897013e-04 -1.433203e-08)) ((3.862225e-13 1.681412e-12 -1.627436e-09) (-2.643103e-10 -4.482795e-13 1.310303e-08))
5.324548      	((4.421041e-07 9.569156e-04 -5.357303e-08) (2.494934e-08 3.753100e-04 -1.116878e-08)) ((-3.236704e-12 1.728822e-12 -1.936693e-09) (-1.461924e-10 -4.024293e-12 1.457828e-08))
6.086177      	((6.888957e-07 1.068157e-03 1.142891e-07) (3.135256e-08 3.649955e-04 -6.284900e-09)) ((-1.088956e-11 7.926067e-13 -2.166401e-09) (-7.841880e-11 -2.112712e-12 1.565827e-08))
6.837935      	((7.940091e-07 1.169684e-03 2.078974e-07) (3.696919e-08 3.573240e-04 -2.133134e-09)) ((-1.438228e-11 2.679058e-12 -2.365137e-09) (-2.131904e-10 -4.431444e-12 1.553900e-08))
7.581174      	((8.360116e-07 1.258087e-03 1.856017e-07) (4.026700e-08 3.514955e-04 -5.795372e-09)) ((-9.799044e-12 3.415772e-12 -2.616044e-09) (-6.650006e-10 -7.052003e-12 1.509571e-08))
8.319097      	((8.945135e-07 1.327257e-03 2.697563e-07) (2.260777e-08 3.466996e-04 -1.750705e-08)) ((-1.068208e-11 3.972662e-12 -2.845379e-09) (-1.587056e-09 9.322547e-12 1.516950e-08))
9.055418      	((1.197147e-06 1.377670e-03 4.993373e-07) (2.934002e-09 3.427761e-04 -2.597598e-08)) ((-1.133683e-11 2.581684e-12 -3.074417e-09) (-2.540100e-09 1.181735e-11 1.514210e-08))
9.792334      	((1.764649e-06 1.403697e-03 9.380951e-07) (1.794754e-08 3.392124e-04 -2.146943e-08)) ((-9.988481e-12 9.203635e-13 -3.265664e-09) (-3.196094e-09 9.725809e-12 1.467620e-08))
10.530006     	((2.067696e-06 1.407106e-03 1.188847e-06) (4.135935e-08 3.357185e-04 -1.161985e-08)) ((-9.278243e-12 8.117721e-13 -3.417310e-09) (-3.981222e-09 -1.767848e-11 1.477790e-08))
11.267546     	((1.953427e-06 1.394428e-03 1.017099e-06) (4.484620e-08 3.323198e-04 -1.311054e-08)) ((-2.472396e-12 1.578849e-12 -3.490186e-09) (-5.024727e-09 -3.020108e-11 1.577501e-08))
12.004096     	((1.904768e-06 1.374425e-03 9.330243e-07) (4.315721e-08 3.291328e-04 -1.774953e-08)) ((-1.028031e-12 -3.056127e-13 -3.471929e-09) (-5.977209e-09 -1.329164e-11 1.656914e-08))
12.739657     	((1.922305e-06 1.347047e-03 8.869444e-07) (4.183049e-08 3.262583e-04 -2.122924e-08)) ((-9.591699e-13 1.423565e-12 -3.396526e-09) (-6.676147e-09 -1.141488e-11 1.689120e-08))
13.474732     	((1.763377e-06 1.325015e-03 7.050931e-07) (5.125839e-08 3.235423e-04 -2.867436e-08)) ((-7.042900e-12 7.188753e-12 -3.305331e-09) (-7.228516e-09 6.858859e-12 1.661331e-08))
14.209621     	((1.853838e-06 1.312462e-03 7.425983e-07) (6.645927e-08 3.210291e-04 -3.187498e-08)) ((-1.480339e-11 1.169442e-11 -3.255247e-09) (-7.056278e-09 2.513574e-11 1.561819e-08))
14.944335     	((2.046229e-06 1.304483e-03 7.758294e-07) (8.904341e-08 3.188318e-04 -2.396323e-08)) ((-1.327039e-11 1.555711e-11 -3.234867e-09) (-6.294645e-09 2.291911e-11 1.424080e-08))
15.678769     	((2.036678e-06 1.297581e-03 5.722607e-07) (1.061937e-07 3.168884e-04 -1.256475e-08)) ((-1.220112e-11 1.645226e-11 -3.230555e-09) (-5.296868e-09 2.636853e-11 1.288454e-08))
16.413008     	((1.944640e-06 1.289751e-03 4.231355e-07) (1.098794e-07 3.150617e-04 -3.047426e-09)) ((-1.142018e-11 1.661750e-11 -3.232246e-09) (-4.266393e-09 3.582573e-11 1.189129e-08))
17.147179     	((2.141418e-06 1.281948e-03 3.982552e-07) (1.084216e-07 3.132634e-04 4.877815e-09)) ((-1.113522e-11 1.587550e-11 -3.237042e-09) (-3.566839e-09 5.787509e-11 1.161864e-08))
17.88132      	((2.505858e-06 1.274133e-03 3.610055e-07) (1.062959e-07 3.115011e-04 1.655885e-09)) ((-8.308044e-12 1.534132e-11 -3.238898e-09) (-3.702370e-09 2.498947e-11 1.188518e-08))
18.615277     	((2.951982e-06 1.266377e-03 4.408916e-07) (1.091094e-07 3.097990e-04 -4.909014e-09)) ((-5.579259e-12 1.473090e-11 -3.237558e-09) (-4.264186e-09 -2.948918e-11 1.230207e-08))
19.349227     	((3.312253e-06 1.259477e-03 4.625687e-07) (1.190637e-07 3.081711e-04 -7.067955e-09)) ((-2.938671e-12 1.529043e-11 -3.232757e-09) (-4.512928e-09 -4.226557e-11 1.265008e-08))
20.083356     	((3.695454e-06 1.252300e-03 4.229540e-07) (1.352693e-07 3.065949e-04 -6.639857e-09)) ((-6.731598e-13 1.430189e-11 -3.225284e-09) (-4.415412e-09 -1.974432e-11 1.287960e-08))
20.817678     	((4.130264e-06 1.245578e-03 4.799973e-07) (1.591747e-07 3.050565e-04 -3.990688e-09)) ((-1.596535e-12 1.275537e-11 -3.216670e-09) (-4.221967e-09 1.496282e-11 1.297120e-08))
21.552197     	((4.670971e-06 1.238995e-03 5.394548e-07) (1.880794e-07 3.035680e-04 -9.148768e-10)) ((-2.616430e-12 1.272824e-11 -3.205990e-09) (-4.089851e-09 2.082720e-11 1.311642e-08))
22.286923     	((5.044869e-06 1.233516e-03 5.610158e-07) (2.203518e-07 3.021662e-04 -2.108460e-09)) ((-1.079858e-12 1.213976e-11 -3.195127e-09) (-4.268152e-09 -1.068925e-11 1.313057e-08))
23.021891     	((5.197501e-06 1.228026e-03 4.274323e-07) (2.499736e-07 3.008545e-04 -4.740427e-09)) ((6.549793e-14 1.229305e-11 -3.184199e-09) (-4.445576e-09 -4.213897e-11 1.295761e-08))
23.757144     	((5.513991e-06 1.224026e-03 2.228750e-07) (2.764667e-07 2.996477e-04 -9.514960e-09)) ((1.681160e-12 1.335664e-11 -3.174921e-09) (-4.533107e-09 -1.492163e-11 1.286830e-08))
24.49272      	((5.704149e-06 1.219895e-03 -7.409844e-08) (3.007231e-07 2.985358e-04 -2.096875e-08)) ((5.049518e-12 1.477080e-11 -3.169033e-09) (-4.695662e-09 2.138098e-12 1.285193e-08))
25.228602     	((6.046431e-06 1.215394e-03 -3.553501e-07) (3.264850e-07 2.974819e-04 -3.577479e-08)) ((7.634604e-12 1.591928e-11 -3.165704e-09) (-4.800517e-09 -3.793537e-12 1.269743e-08))
25.964512     	((6.469574e-06 1.211091e-03 -6.189239e-07) (3.583506e-07 2.964760e-04 -5.004442e-08)) ((9.040965e-12 1.726825e-11 -3.161844e-09) (-4.682256e-09 1.554186e-11 1.244911e-08))
26.700414     	((6.900203e-06 1.205639e-03 -9.827648e-07) (3.928453e-07 2.954863e-04 -6.361421e-08)) ((1.057707e-11 1.945493e-11 -3.158059e-09) (-4.269835e-09 5.559180e-11 1.220775e-08))
27.436398     	((7.318785e-06 1.201450e-03 -1.348709e-06) (4.253135e-07 2.945248e-04 -7.838382e-08)) ((1.153885e-11 2.252995e-11 -3.156150e-09) (-3.701525e-09 1.026133e-10 1.220043e-08))
28.172556     	((7.892158e-06 1.196897e-03 -1.580799e-06) (4.581480e-07 2.935937e-04 -9.318676e-08)) ((9.702349e-12 2.504069e-11 -3.153660e-09) (-3.188096e-09 9.631071e-11 1.246797e-08))
28.90904      	((8.466063e-06 1.192414e-03 -1.832931e-06) (4.928876e-07 2.926734e-04 -1.086253e-07)) ((8.069679e-12 2.682577e-11 -3.150866e-09) (-2.822298e-09 4.953634e-11 1.283666e-08))
29.645971     	((9.202655e-06 1.187859e-03 -2.151801e-06) (5.347437e-07 2.917578e-04 -1.269052e-07)) ((6.774023e-12 2.777045e-11 -3.149057e-09) (-2.601129e-09 1.971412e-11 1.304610e-08))
30.383296     	((9.789923e-06 1.184560e-03 -2.487111e-06) (5.799922e-07 2.908742e-04 -1.473732e-07)) ((6.058578e-12 2.852562e-11 -3.148788e-09) (-2.430422e-09 4.145659e-11 1.314586e-08))
31.120958     	((1.048593e-05 1.181396e-03 -2.786878e-06) (6.272385e-07 2.900383e-04 -1.678661e-07)) ((5.923172e-12 2.826726e-11 -3.147724e-09) (-2.194355e-09 9.241119e-11 1.327270e-08))
31.858966     	((1.128255e-05 1.178488e-03 -3.134516e-06) (6.791356e-07 2.892533e-04 -1.885316e-07)) ((8.069110e-12 2.839547e-11 -3.146240e-09) (-1.882571e-09 1.241736e-10 1.346076e-08))
32.597324     	((1.219070e-05 1.174818e-03 -3.439892e-06) (7.365728e-07 2.885027e-04 -2.094887e-07)) ((1.067992e-11 2.807276e-11 -3.144125e-09) (-1.540118e-09 1.258056e-10 1.370071e-08))
33.336044     	((1.331253e-05 1.171078e-03 -3.880995e-06) (8.019430e-07 2.877693e-04 -2.339634e-07)) ((1.534808e-11 2.748035e-11 -3.142838e-09) (-1.274578e-09 1.219730e-10 1.405284e-08))
34.075138     	((1.453172e-05 1.167503e-03 -4.325415e-06) (8.758497e-07 2.870468e-04 -2.627855e-07)) ((2.114243e-11 2.599275e-11 -3.142065e-09) (-1.088077e-09 1.386420e-10 1.454735e-08))
34.814641     	((1.588588e-05 1.163826e-03 -4.786079e-06) (9.588680e-07 2.863251e-04 -2.945141e-07)) ((2.635427e-11 2.483762e-11 -3.140057e-09) (-9.133476e-10 1.656518e-10 1.517925e-08))
35.554585     	((1.747183e-05 1.160255e-03 -5.356757e-06) (1.053012e-06 2.856087e-04 -3.297076e-07)) ((3.171806e-11 2.300065e-11 -3.136638e-09) (-6.641362e-10 1.828944e-10 1.592132e-08))
36.294978     	((1.933336e-05 1.156552e-03 -6.009403e-06) (1.160459e-06 2.849071e-04 -3.693057e-07)) ((3.687751e-11 2.059116e-11 -3.132444e-09) (-3.792398e-10 1.938167e-10 1.679055e-08))
37.035841     	((2.137074e-05 1.152623e-03 -6.780722e-06) (1.281207e-06 2.842227e-04 -4.147652e-07)) ((4.193410e-11 1.809217e-11 -3.127529e-09) (-8.288047e-11 2.111945e-10 1.784106e-08))
37.777185     	((2.356946e-05 1.149214e-03 -7.567152e-06) (1.413835e-06 2.835650e-04 -4.651724e-07)) ((4.533572e-11 1.546653e-11 -3.122349e-09) (2.764817e-10 2.366999e-10 1.912276e-08))
38.519016     	((2.568878e-05 1.146673e-03 -8.324350e-06) (1.552711e-06 2.829484e-04 -5.182667e-07)) ((4.797221e-11 1.265238e-11 -3.116486e-09) (7.264636e-10 2.611474e-10 2.066748e-08))
39.261334     	((2.796076e-05 1.144520e-03 -9.178543e-06) (1.698433e-06 2.823741e-04 -5.753295e-07)) ((5.167754e-11 1.155235e-11 -3.109829e-09) (1.253901e-09 2.680627e-10 2.241946e-08))
40.004142     	((3.013502e-05 1.142291e-03 -9.951977e-06) (1.849067e-06 2.818288e-04 -6.338007e-07)) ((5.538120e-11 1.127470e-11 -3.102714e-09) (1.846942e-09 2.425003e-10 2.432152e-08))
40.747448     	((3.240394e-05 1.139762e-03 -1.086968e-05) (2.004398e-06 2.812965e-04 -6.946395e-07)) ((6.026025e-11 1.174972e-11 -3.096162e-09) (2.493682e-09 2.106899e-10 2.636803e-08))
41.491255     	((3.485374e-05 1.136938e-03 -1.193356e-05) (2.168427e-06 2.807650e-04 -7.610928e-07)) ((6.661807e-11 1.290642e-11 -3.089778e-09) (3.255522e-09 1.776055e-10 2.854041e-08))
42.235564     	((3.754989e-05 1.134199e-03 -1.313245e-05) (2.344286e-06 2.802336e-04 -8.339077e-07)) ((7.383833e-11 1.470921e-11 -3.083679e-09) (4.203140e-09 1.178853e-10 3.083018e-08))
42.980378     	((4.048494e-05 1.131676e-03 -1.445158e-05) (2.533842e-06 2.797072e-04 -9.136903e-07)) ((8.228234e-11 1.689033e-11 -3.077593e-09) (5.279447e-09 4.605242e-11 3.326519e-08))
43.725564     	((4.360089e-05 1.129397e-03 -1.585833e-05) (2.737228e-06 2.791901e-04 -1.000101e-06)) ((9.064874e-11 1.948803e-11 -3.071316e-09) (6.424914e-09 -9.070079e-12 3.586692e-08))
44.47111      	((4.688188e-05 1.127456e-03 -1.731259e-05) (2.954965e-06 2.786886e-04 -1.092455e-06)) ((9.862851e-11 2.141676e-11 -3.064957e-09) (7.638160e-09 -3.862767e-11 3.858859e-08))
45.216988     	((5.037948e-05 1.125542e-03 -1.885195e-05) (3.187329e-06 2.782034e-04 -1.190558e-06)) ((1.074207e-10 2.385990e-11 -3.058555e-09) (8.919208e-09 -4.265962e-11 4.141650e-08))
45.963167     	((5.406679e-05 1.123807e-03 -2.056073e-05) (3.434886e-06 2.777351e-04 -1.296445e-06)) ((1.165136e-10 2.546717e-11 -3.052487e-09) (1.025899e-08 -2.584221e-11 4.435278e-08))
46.70961      	((5.801415e-05 1.122113e-03 -2.234017e-05) (3.698795e-06 2.772831e-04 -1.410175e-06)) ((1.245447e-10 2.595536e-11 -3.046829e-09) (1.167998e-08 6.057322e-14 4.743763e-08))
47.456293     	((6.233627e-05 1.120505e-03 -2.428779e-05) (3.982933e-06 2.768459e-04 -1.532571e-06)) ((1.329946e-10 2.606336e-11 -3.042129e-09) (1.316069e-08 2.790756e-11 5.068345e-08))
48.203216     	((6.701324e-05 1.118971e-03 -2.634168e-05) (4.290022e-06 2.764235e-04 -1.664584e-06)) ((1.422131e-10 2.544013e-11 -3.038548e-09) (1.469655e-08 6.682135e-11 5.409986e-08))
48.950376     	((7.222529e-05 1.117480e-03 -2.856931e-05) (4.623814e-06 2.760149e-04 -1.807283e-06)) ((1.524886e-10 2.486371e-11 -3.035596e-09) (1.631270e-08 1.194256e-10 5.772749e-08))
49.697773     	((7.806062e-05 1.116104e-03 -3.096843e-05) (4.990419e-06 2.756216e-04 -1.961994e-06)) ((1.639727e-10 2.423538e-11 -3.032771e-09) (1.801597e-08 1.783495e-10 6.161570e-08))
50.445381     	((8.455928e-05 1.114828e-03 -3.353438e-05) (5.395187e-06 2.752454e-04 -2.129376e-06)) ((1.771774e-10 2.354689e-11 -3.030621e-09) (1.979587e-08 2.329310e-10 6.582028e-08))
51.193068     	((9.169041e-05 1.113628e-03 -3.619928e-05) (5.841931e-06 2.748859e-04 -2.309199e-06)) ((1.906912e-10 2.248160e-11 -3.028305e-09) (2.162470e-08 2.699365e-10 7.033974e-08))
51.940783     	((9.947331e-05 1.112529e-03 -3.906460e-05) (6.333366e-06 2.745430e-04 -2.502477e-06)) ((2.058494e-10 2.173478e-11 -3.026077e-09) (2.349450e-08 2.945423e-10 7.519033e-08))
52.688477     	((1.080545e-04 1.111538e-03 -4.216686e-05) (6.873361e-06 2.742177e-04 -2.711569e-06)) ((2.222088e-10 2.164937e-11 -3.023626e-09) (2.538272e-08 2.984666e-10 8.045726e-08))
53.436098     	((1.172484e-04 1.110779e-03 -4.560212e-05) (7.461184e-06 2.739108e-04 -2.938463e-06)) ((2.413755e-10 2.262710e-11 -3.020300e-09) (2.737052e-08 3.145092e-10 8.629090e-08))
54.183595     	((1.273295e-04 1.110183e-03 -4.939678e-05) (8.100488e-06 2.736244e-04 -3.185628e-06)) ((2.631593e-10 2.579981e-11 -3.015873e-09) (2.953635e-08 3.207593e-10 9.275837e-08))
54.930917     	((1.383740e-04 1.109724e-03 -5.354983e-05) (8.799732e-06 2.733607e-04 -3.455629e-06)) ((2.874651e-10 3.120024e-11 -3.010434e-09) (3.190921e-08 3.096695e-10 9.979441e-08))
55.678011     	((1.502937e-04 1.109492e-03 -5.809206e-05) (9.561525e-06 2.731254e-04 -3.751453e-06)) ((3.144404e-10 3.842218e-11 -3.003582e-09) (3.444457e-08 2.396990e-10 1.072902e-07))
56.424835     	((1.631859e-04 1.109509e-03 -6.296795e-05) (1.039111e-05 2.729217e-04 -4.072809e-06)) ((3.425521e-10 4.835564e-11 -2.994833e-09) (3.717260e-08 1.621669e-10 1.151398e-07))
57.171348     	((1.771107e-04 1.109655e-03 -6.836188e-05) (1.129524e-05 2.727464e-04 -4.421830e-06)) ((3.744789e-10 6.142823e-11 -2.983279e-09) (4.013405e-08 1.399541e-10 1.232539e-07))
57.917497     	((1.921699e-04 1.109914e-03 -7.421939e-05) (1.228416e-05 2.725996e-04 -4.802801e-06)) ((4.101103e-10 7.849417e-11 -2.968973e-09) (4.325068e-08 1.644928e-10 1.314224e-07))
58.663229     	((2.084116e-04 1.110432e-03 -8.055661e-05) (1.336661e-05 2.724835e-04 -5.218535e-06)) ((4.479421e-10 9.956717e-11 -2.952645e-09) (4.650474e-08 2.089729e-10 1.396199e-07))
59.40848      	((2.259431e-04 1.111285e-03 -8.735027e-05) (1.454730e-05 2.723981e-04 -5.670789e-06)) ((4.865185e-10 1.232681e-10 -2.934177e-09) (4.993246e-08 2.094219e-10 1.480787e-07))
60.153189     	((2.450060e-04 1.112465e-03 -9.476038e-05) (1.583166e-05 2.723390e-04 -6.162021e-06)) ((5.284009e-10 1.493806e-10 -2.914560e-09) (5.372748e-08 1.761975e-10 1.571008e-07))
60.897286     	((2.654566e-04 1.114258e-03 -1.027775e-04) (1.722282e-05 2.723096e-04 -6.694820e-06)) ((5.740005e-10 1.787487e-10 -2.894654e-09) (5.804178e-08 1.897120e-10 1.669842e-07))
61.640697     	((2.875785e-04 1.116676e-03 -1.115141e-04) (1.873064e-05 2.723163e-04 -7.273752e-06)) ((6.242576e-10 2.139552e-10 -2.872886e-09) (6.284096e-08 3.087119e-10 1.777744e-07))
62.383363     	((3.115703e-04 1.119919e-03 -1.208049e-04) (2.037140e-05 2.723697e-04 -7.902428e-06)) ((6.732332e-10 2.523448e-10 -2.849316e-09) (6.794070e-08 4.813748e-10 1.892524e-07))
63.125237     	((3.372833e-04 1.123976e-03 -1.307830e-04) (2.215310e-05 2.724780e-04 -8.583716e-06)) ((7.243661e-10 2.939820e-10 -2.821615e-09) (7.329971e-08 6.278690e-10 2.013200e-07))
63.866252     	((3.650054e-04 1.128822e-03 -1.415665e-04) (2.407900e-05 2.726394e-04 -9.322335e-06)) ((7.797117e-10 3.397891e-10 -2.790432e-09) (7.900673e-08 7.762146e-10 2.142738e-07))
64.60634      	((3.948942e-04 1.134798e-03 -1.532640e-04) (2.615176e-05 2.728597e-04 -1.012151e-05)) ((8.375683e-10 3.880874e-10 -2.754704e-09) (8.513189e-08 9.127078e-10 2.285796e-07))
65.345438     	((4.274570e-04 1.141763e-03 -1.659849e-04) (2.839099e-05 2.731519e-04 -1.099265e-05)) ((9.015065e-10 4.439144e-10 -2.714076e-09) (9.143814e-08 9.448606e-10 2.440229e-07))
66.083487     	((4.624836e-04 1.150305e-03 -1.796789e-04) (3.081866e-05 2.735366e-04 -1.194548e-05)) ((9.688728e-10 5.065069e-10 -2.670089e-09) (9.780870e-08 9.531645e-10 2.601125e-07))
66.820423     	((5.000194e-04 1.160720e-03 -1.943684e-04) (3.344773e-05 2.740395e-04 -1.297955e-05)) ((1.038746e-09 5.763201e-10 -2.623341e-09) (1.043941e-07 1.024477e-09 2.766753e-07))
67.556181     	((5.403138e-04 1.173224e-03 -2.100526e-04) (3.628859e-05 2.746753e-04 -1.409039e-05)) ((1.111011e-09 6.495026e-10 -2.575354e-09) (1.114444e-07 1.290427e-09 2.941400e-07))
68.290769     	((5.837538e-04 1.188130e-03 -2.268531e-04) (3.935156e-05 2.754581e-04 -1.527758e-05)) ((1.189845e-09 7.351710e-10 -2.523510e-09) (1.194739e-07 1.735088e-09 3.129507e-07))
69.024128     	((6.300601e-04 1.205771e-03 -2.448582e-04) (4.263947e-05 2.764095e-04 -1.654597e-05)) ((1.273741e-09 8.310208e-10 -2.468971e-09) (1.286319e-07 2.171412e-09 3.335751e-07))
69.756235     	((6.791583e-04 1.226179e-03 -2.636410e-04) (4.615359e-05 2.775495e-04 -1.789861e-05)) ((1.353186e-09 9.366827e-10 -2.413222e-09) (1.385379e-07 2.524884e-09 3.565225e-07))
70.487145     	((7.309745e-04 1.249579e-03 -2.832381e-04) (4.990415e-05 2.789051e-04 -1.934283e-05)) ((1.424659e-09 1.057861e-09 -2.357808e-09) (1.484550e-07 2.715471e-09 3.809021e-07))
71.216942     	((7.849579e-04 1.276895e-03 -3.036351e-04) (5.390066e-05 2.805129e-04 -2.087980e-05)) ((1.488116e-09 1.196313e-09 -2.302957e-09) (1.581681e-07 2.734305e-09 4.057238e-07))
71.945587     	((8.402109e-04 1.308220e-03 -3.245816e-04) (5.813332e-05 2.824076e-04 -2.250099e-05)) ((1.539031e-09 1.351799e-09 -2.248099e-09) (1.678312e-07 2.825544e-09 4.304662e-07))
