# Forces      
# CofR        : (0.000000e+00 0.000000e+00 0.000000e+00)
# Time        forces(pressure viscous)	moments(pressure viscous)
0             	((0.000000e+00 0.000000e+00 0.000000e+00) (0.000000e+00 0.000000e+00 0.000000e+00)) ((0.000000e+00 0.000000e+00 0.000000e+00) (0.000000e+00 0.000000e+00 0.000000e+00))
0.012         	((2.085442e-10 2.856624e-07 6.460149e-10) (4.519379e-11 7.323215e-09 -2.433210e-11)) ((-8.222751e-14 4.770044e-14 -6.536666e-09) (3.077250e-14 -5.900696e-13 -8.814840e-06))
0.0264        	((-1.719444e-09 4.318847e-08 1.593203e-10) (1.144066e-10 1.077975e-08 -4.508288e-11)) ((5.418085e-14 -5.807790e-13 -3.059763e-09) (7.501655e-15 -1.600095e-12 -8.075353e-06))
0.04368       	((4.284403e-09 1.376868e-07 2.503910e-09) (7.740915e-11 1.151368e-08 -6.732651e-11)) ((-7.999763e-14 -7.373247e-13 -1.746899e-09) (-1.259936e-13 -3.052468e-12 -7.317488e-06))
0.064416      	((1.291800e-09 -1.298993e-08 -1.822412e-09) (-1.369058e-10 1.023356e-08 -1.134430e-10)) ((2.638982e-14 -5.142137e-13 -1.027209e-09) (-2.351694e-13 -4.790854e-12 -6.560225e-06))
0.0892992     	((1.260684e-08 6.344368e-08 1.296042e-09) (-2.757641e-10 8.781925e-09 -1.728055e-10)) ((-7.473446e-14 -1.075697e-12 -8.264939e-10) (-1.464044e-13 -7.009329e-12 -5.827929e-06))
0.119159      	((-1.535352e-09 -2.167058e-10 2.285440e-10) (-2.198929e-10 7.565939e-09 -2.037807e-10)) ((1.570786e-13 -5.567578e-13 -6.658797e-10) (3.739316e-13 -8.905330e-12 -5.144619e-06))
0.154991      	((9.756019e-10 3.940932e-08 7.577771e-10) (3.598269e-11 7.354983e-09 -2.074656e-10)) ((3.780614e-14 -6.225689e-13 -5.722063e-10) (7.802716e-13 -9.554473e-12 -4.526850e-06))
0.197989      	((-3.560592e-09 7.996589e-09 2.826931e-11) (3.313343e-10 6.902739e-09 -2.044302e-10)) ((-7.417151e-14 -5.303850e-13 -4.746226e-10) (5.314644e-13 -9.103165e-12 -3.981930e-06))
0.249587      	((-3.211788e-09 1.643252e-08 6.771262e-11) (5.443964e-10 5.974255e-09 -2.002401e-10)) ((-8.383107e-14 -4.444703e-13 -3.986308e-10) (-1.183808e-13 -8.100365e-12 -3.510069e-06))
0.311504      	((6.409399e-09 1.534134e-08 -5.377837e-10) (7.429967e-10 5.006866e-09 -1.831366e-10)) ((-6.261102e-14 -3.939565e-13 -3.370861e-10) (-1.624502e-12 -7.100155e-12 -3.107048e-06))
0.385805      	((-5.773573e-10 2.256598e-08 -2.311734e-11) (7.559874e-10 4.673546e-09 -2.055294e-10)) ((5.269232e-15 -3.807864e-13 -2.908996e-10) (-1.406334e-12 -5.924911e-12 -2.763710e-06))
0.474966      	((-9.736916e-09 2.042132e-08 -8.822298e-11) (3.092808e-10 4.565660e-09 -2.335803e-10)) ((6.455942e-14 -2.168728e-13 -2.527388e-10) (3.128416e-13 -5.108917e-12 -2.469353e-06))
0.581959      	((-1.108105e-08 1.362721e-08 -4.724341e-10) (-4.258352e-10 3.723302e-09 -2.328977e-10)) ((1.248242e-13 -1.658850e-13 -2.144807e-10) (1.868577e-13 -4.223712e-12 -2.215705e-06))
0.710351      	((-3.485516e-09 1.499836e-08 -1.361398e-09) (-1.101185e-09 2.308715e-09 -2.696756e-10)) ((8.963927e-14 -1.405204e-13 -1.778359e-10) (-4.800291e-14 -3.435881e-12 -1.995580e-06))
0.864421      	((-6.757634e-09 2.624705e-08 -1.554426e-09) (-9.995550e-10 1.009238e-09 -2.666114e-10)) ((2.924699e-16 -1.380205e-13 -1.517742e-10) (-1.534625e-13 -4.149727e-12 -1.802997e-06))
1.049306      	((-5.172972e-09 2.022225e-08 -1.404123e-09) (-4.778967e-10 -2.852907e-10 -1.822660e-10)) ((1.165545e-13 5.775469e-14 -1.334437e-10) (-5.998016e-13 -4.606267e-12 -1.632926e-06))
1.271167      	((-9.086143e-09 2.974642e-08 -1.343833e-09) (-2.500017e-10 -1.160187e-09 -1.451972e-10)) ((-5.525451e-14 1.955381e-13 -1.184555e-10) (-1.279916e-12 -5.910434e-12 -1.481505e-06))
1.5374        	((-1.248594e-09 2.819579e-08 9.615663e-10) (-5.276997e-10 -1.881041e-09 -7.365464e-11)) ((-5.391243e-13 1.738524e-13 -1.027583e-10) (-4.078176e-12 -7.636899e-12 -1.346243e-06))
1.85688       	((2.559458e-09 2.607077e-08 8.322402e-10) (-7.387025e-11 -2.305999e-09 -2.133317e-11)) ((-7.120935e-13 8.622124e-15 -8.866392e-11) (-6.623415e-12 -5.833922e-12 -1.225700e-06))
2.240256      	((1.240321e-08 2.150258e-08 9.456543e-10) (8.101598e-10 -2.001569e-09 -6.567422e-11)) ((-1.019946e-12 -2.343781e-13 -7.772073e-11) (-1.000908e-11 -7.673553e-12 -1.119024e-06))
2.700307      	((1.033172e-08 2.362547e-08 6.971714e-10) (1.744117e-09 -1.090314e-09 2.179991e-12)) ((-1.059063e-12 -3.485690e-13 -6.775006e-11) (-1.584064e-11 -1.135444e-11 -1.025393e-06))
3.252369      	((5.934625e-09 1.830843e-08 5.653323e-10) (1.435559e-09 -7.992416e-10 2.722940e-11)) ((-9.690219e-13 -4.661195e-13 -5.802448e-11) (-2.186951e-11 -1.146512e-11 -9.435356e-07))
3.914842      	((6.027881e-09 1.367728e-08 1.646076e-09) (1.075134e-09 -4.199972e-10 -5.836917e-11)) ((-7.807109e-13 -6.574907e-13 -4.871103e-11) (-2.322148e-11 -8.579489e-12 -8.717418e-07))
4.709811      	((6.161168e-09 7.857304e-09 1.628073e-09) (1.022155e-09 -3.103786e-10 -1.213197e-10)) ((-5.356798e-13 -8.796465e-13 -4.107768e-11) (-2.299745e-11 -3.704711e-12 -8.081895e-07))
5.663773      	((5.157565e-09 2.061830e-09 3.049529e-09) (3.439848e-10 9.846268e-11 -1.649832e-10)) ((-6.621353e-13 -9.622173e-13 -3.558206e-11) (-1.831851e-11 5.933252e-12 -7.512438e-07))
6.808528      	((3.764756e-09 1.335864e-09 2.164497e-09) (-1.006244e-10 1.010929e-09 -2.454892e-10)) ((-7.320832e-13 -9.174530e-13 -3.152698e-11) (-1.227858e-11 1.523669e-11 -6.996830e-07))
8.182233      	((3.858012e-09 1.483129e-09 1.264065e-09) (-1.227261e-09 1.029830e-09 -3.134864e-10)) ((-7.269083e-13 -9.296878e-13 -2.847245e-11) (-1.005765e-11 1.736414e-11 -6.526659e-07))
9.83068       	((2.160403e-09 -3.636447e-11 8.631060e-11) (-2.555443e-09 6.763820e-10 -5.580300e-10)) ((-5.885035e-13 -8.370737e-13 -2.603211e-11) (-1.114893e-11 1.071689e-11 -6.095429e-07))
11.808816     	((7.749039e-10 1.805415e-10 6.803618e-11) (-3.060225e-09 5.075897e-10 -5.344429e-10)) ((-3.594031e-13 -7.415491e-13 -2.423364e-11) (-6.617370e-12 4.529210e-12 -5.697783e-07))
14.182579     	((3.597344e-10 -2.634413e-09 -3.138959e-10) (-2.864584e-09 1.800977e-10 -4.356869e-10)) ((-1.427372e-13 -5.277711e-13 -2.267111e-11) (4.304694e-12 -9.556412e-14 -5.330965e-07))
17.031095     	((-1.121641e-09 -1.344825e-09 7.616820e-11) (-2.748943e-09 1.206905e-10 -2.735936e-10)) ((-3.235859e-14 -4.124956e-13 -2.176826e-11) (1.127068e-11 -6.035655e-12 -4.995372e-07))
20.449314     	((-1.483754e-09 -1.624227e-09 -1.327827e-10) (-2.651383e-09 3.903735e-11 -2.044896e-10)) ((2.421238e-14 -3.967979e-13 -2.093455e-11) (1.657306e-11 -1.131062e-11 -4.691392e-07))
24.551176     	((-2.106342e-09 -3.604102e-10 1.082434e-10) (-2.134972e-09 3.429425e-10 -1.898474e-10)) ((1.805300e-14 -4.518231e-13 -2.035862e-11) (1.818783e-11 -1.611444e-11 -4.418171e-07))
29.473411     	((-1.417042e-09 7.211229e-11 -1.556412e-10) (-2.025769e-09 7.844192e-10 -2.181791e-10)) ((3.944690e-14 -4.758753e-13 -1.975355e-11) (2.063242e-11 -1.976834e-11 -4.174135e-07))
35.380094     	((-3.513383e-09 -1.286490e-09 -1.822667e-10) (-2.970675e-09 1.077149e-10 -1.930322e-10)) ((1.875035e-15 -4.880640e-13 -1.895311e-11) (2.454493e-11 -2.315158e-11 -3.956661e-07))
42.468112     	((-3.544140e-09 -1.684882e-09 -5.728429e-10) (-3.382798e-09 -4.767377e-10 -3.355855e-10)) ((-2.094602e-14 -5.163849e-13 -1.798395e-11) (2.603815e-11 -2.677267e-11 -3.762859e-07))
50.973735     	((-3.576059e-09 -1.681354e-09 -5.296160e-10) (-2.533316e-09 -1.545122e-10 -2.376590e-10)) ((3.274790e-14 -5.243175e-13 -1.714806e-11) (2.519507e-11 -2.462021e-11 -3.590714e-07))
61.095105     	((-2.692693e-09 -5.896365e-10 -4.491833e-10) (-1.938149e-09 6.466158e-11 -1.030394e-10)) ((1.024276e-13 -5.030457e-13 -1.613954e-11) (2.432950e-11 -2.087012e-11 -3.439238e-07))
72.832035     	((-2.507238e-09 4.015989e-10 -7.833040e-10) (-1.809580e-09 2.767493e-10 -2.271644e-10)) ((1.317099e-13 -5.398920e-13 -1.533071e-11) (2.547502e-11 -1.638005e-11 -3.308346e-07))
86.184284     	((-2.959408e-09 1.271698e-09 -6.974646e-10) (-1.795222e-09 8.912311e-10 -3.042410e-10)) ((1.258316e-13 -5.885571e-13 -1.480214e-11) (2.606867e-11 -1.026134e-11 -3.197779e-07))
101.15157     	((-3.075442e-09 1.231520e-09 -7.952860e-10) (-1.717075e-09 1.092017e-09 -2.611343e-10)) ((2.894908e-14 -6.037750e-13 -1.438612e-11) (2.685409e-11 -4.868087e-12 -3.106681e-07))
117.29857     	((-2.132491e-09 1.685175e-09 -5.959849e-10) (-1.549609e-09 8.945420e-10 -2.507460e-10)) ((-5.553694e-14 -6.039662e-13 -1.383861e-11) (2.944865e-11 -2.423222e-12 -3.034365e-07))
133.44133     	((-1.436931e-09 1.766313e-09 -5.633133e-10) (-1.000881e-09 5.691867e-10 -1.951274e-10)) ((-1.242669e-13 -5.907636e-13 -1.329013e-11) (3.252560e-11 -2.534381e-12 -2.980619e-07))
149.579592    	((-1.014810e-09 1.825327e-09 -5.435258e-10) (-5.328420e-10 2.107084e-10 -1.145654e-10)) ((-1.516612e-13 -5.597232e-13 -1.275404e-11) (3.398012e-11 -5.066606e-12 -2.942695e-07))
165.71304     	((-7.148447e-10 1.798534e-09 -5.820881e-10) (-4.887518e-10 2.324300e-10 -9.413715e-11)) ((-1.794072e-13 -5.111253e-13 -1.239676e-11) (3.341206e-11 -9.079480e-12 -2.918438e-07))
181.841242    	((-1.883242e-10 2.165990e-09 -5.579619e-10) (-9.736834e-10 3.602222e-10 -9.915621e-11)) ((-1.858202e-13 -4.811925e-13 -1.212329e-11) (3.210548e-11 -1.217019e-11 -2.905847e-07))
197.963909    	((8.565228e-11 2.038643e-09 -4.829399e-10) (-1.607162e-09 6.604775e-10 -5.692665e-11)) ((-1.695196e-13 -4.468479e-13 -1.190072e-11) (3.035462e-11 -1.369955e-11 -2.903465e-07))
214.080865    	((2.923965e-10 1.870886e-09 -5.820011e-10) (-1.379956e-09 8.591172e-10 -4.873041e-11)) ((-1.466985e-13 -4.396350e-13 -1.169906e-11) (2.714261e-11 -1.481728e-11 -2.909940e-07))
230.191871    	((5.621439e-10 1.609654e-09 -6.263358e-10) (-8.882602e-10 7.914819e-10 -6.174160e-11)) ((-1.386959e-13 -4.290683e-13 -1.149577e-11) (2.384125e-11 -1.527329e-11 -2.924065e-07))
246.296715    	((6.316420e-10 1.596627e-09 -4.845197e-10) (-6.294139e-10 7.721409e-10 -7.145522e-11)) ((-1.359237e-13 -4.133476e-13 -1.136467e-11) (2.166504e-11 -1.536992e-11 -2.944609e-07))
262.395077    	((6.431107e-10 1.787540e-09 -3.130181e-10) (-5.054754e-10 8.826454e-10 -8.558241e-11)) ((-1.439465e-13 -4.036772e-13 -1.129319e-11) (2.045778e-11 -1.543198e-11 -2.970340e-07))
278.486706    	((4.605488e-10 1.793214e-09 -2.943515e-10) (-3.338471e-10 1.010843e-09 -1.100439e-10)) ((-1.446170e-13 -3.989528e-13 -1.122819e-11) (2.053969e-11 -1.548699e-11 -3.000009e-07))
294.571389    	((4.280629e-10 1.752086e-09 -2.797890e-10) (-2.201838e-10 1.117432e-09 -1.424843e-10)) ((-1.415854e-13 -3.954641e-13 -1.121555e-11) (2.141220e-11 -1.554037e-11 -3.032334e-07))
310.648842    	((3.543893e-10 1.613151e-09 -3.006166e-10) (-8.657684e-11 1.202542e-09 -1.624420e-10)) ((-1.421064e-13 -3.996113e-13 -1.126360e-11) (2.229718e-11 -1.568658e-11 -3.066046e-07))
326.718958    	((3.505007e-10 1.480473e-09 -3.275582e-10) (6.089454e-11 1.321672e-09 -1.538732e-10)) ((-1.474401e-13 -4.112000e-13 -1.134473e-11) (2.329560e-11 -1.597476e-11 -3.099860e-07))
342.781583    	((3.523588e-10 1.520430e-09 -3.986261e-10) (1.140999e-10 1.422214e-09 -1.279148e-10)) ((-1.423316e-13 -4.252957e-13 -1.144701e-11) (2.440309e-11 -1.660945e-11 -3.132552e-07))
358.836333    	((3.519362e-10 1.317021e-09 -3.464875e-10) (1.703894e-10 1.509111e-09 -8.958227e-11)) ((-1.406116e-13 -4.325863e-13 -1.154196e-11) (2.552372e-11 -1.772227e-11 -3.163076e-07))
374.883078    	((3.800890e-10 1.246525e-09 -3.314027e-10) (1.581719e-10 1.525899e-09 -5.415362e-11)) ((-1.498642e-13 -4.393174e-13 -1.165521e-11) (2.599339e-11 -1.876006e-11 -3.190566e-07))
