# Forces      
# CofR        : (0.000000e+00 0.000000e+00 0.000000e+00)
# Time        forces(pressure viscous)	moments(pressure viscous)
0             	((0.000000e+00 0.000000e+00 0.000000e+00) (0.000000e+00 0.000000e+00 0.000000e+00)) ((0.000000e+00 0.000000e+00 0.000000e+00) (0.000000e+00 0.000000e+00 0.000000e+00))
0.012         	((1.887689e-09 -1.794565e-09 3.587041e-09) (2.919951e-11 -3.480427e-12 -2.559341e-11)) ((-1.612336e-08 1.536588e-12 2.992286e-14) (-1.109972e-05 -1.339999e-12 5.560722e-13))
0.0264        	((-1.731979e-09 -2.758098e-09 6.671474e-09) (1.656649e-10 1.045463e-11 -1.545613e-11)) ((-8.155383e-09 1.202250e-12 -3.133324e-13) (-1.016796e-05 -2.150778e-12 8.940490e-13))
0.04368       	((6.091582e-09 4.397281e-09 6.825018e-09) (3.379917e-10 4.472090e-11 -2.290828e-12)) ((-4.756948e-09 9.896573e-13 -3.218766e-13) (-9.214552e-06 -1.600163e-12 -1.769255e-13))
0.064416      	((1.416441e-09 -8.072058e-10 1.669175e-09) (4.441093e-10 7.778814e-11 -4.707765e-12)) ((-2.930205e-09 7.949324e-13 1.030812e-13) (-8.263751e-06 -5.015595e-13 -1.576677e-12))
0.0892992     	((4.413822e-09 2.151258e-09 2.523384e-09) (7.067487e-10 8.825714e-11 4.032775e-12)) ((-2.375640e-09 7.624744e-13 -9.390252e-14) (-7.346599e-06 -1.388013e-13 -1.641209e-12))
0.119159      	((3.287174e-09 -3.619375e-10 2.272753e-09) (8.532200e-10 6.381449e-11 2.647762e-11)) ((-1.864876e-09 4.079322e-13 1.408084e-13) (-6.493349e-06 4.868249e-13 -1.016257e-12))
0.154991      	((1.187067e-08 -2.642784e-09 -1.874238e-09) (7.311688e-10 2.712483e-11 5.028527e-11)) ((-1.570718e-09 3.882234e-13 6.440429e-14) (-5.724691e-06 1.554821e-12 -4.308704e-13))
0.197989      	((3.621661e-09 -4.000059e-10 -3.891528e-11) (5.095554e-10 2.077717e-11 9.272957e-11)) ((-1.302806e-09 2.519518e-13 -6.094337e-15) (-5.047878e-06 2.189716e-12 9.450547e-14))
0.249587      	((1.034811e-08 3.136369e-10 6.395739e-10) (3.234235e-10 2.799287e-11 1.184853e-10)) ((-1.124419e-09 1.893606e-13 -6.423977e-14) (-4.460483e-06 2.397836e-12 2.689635e-13))
0.311504      	((6.142388e-10 -6.312497e-10 1.361239e-09) (4.223757e-12 2.080719e-11 9.113273e-11)) ((-9.870154e-10 2.753658e-13 -1.245950e-13) (-3.955441e-06 2.884703e-12 -3.199741e-13))
0.385805      	((-3.257848e-09 -1.547836e-09 1.800644e-09) (-1.817496e-10 -1.952308e-11 3.376656e-11)) ((-8.877187e-10 3.500434e-13 -2.268105e-13) (-3.521471e-06 3.488134e-12 -1.209081e-12))
0.474966      	((-1.522277e-09 -3.542628e-09 6.846444e-10) (-1.738279e-10 -6.307563e-11 2.232370e-12)) ((-8.079185e-10 3.036064e-13 -2.448246e-13) (-3.146535e-06 4.313572e-12 -1.994672e-12))
0.581959      	((-8.159667e-09 -4.464326e-09 1.033003e-09) (-5.378815e-10 -4.675973e-11 6.561978e-11)) ((-7.288153e-10 2.425782e-13 -2.257121e-13) (-2.821930e-06 6.461509e-12 -2.910925e-12))
0.710351      	((-7.737407e-09 -1.734958e-09 4.989948e-09) (-9.996801e-10 1.471661e-11 1.658315e-10)) ((-6.497482e-10 2.897877e-13 -2.529758e-13) (-2.539742e-06 9.508562e-12 -4.507078e-12))
0.864421      	((-1.121650e-08 -3.945095e-10 7.635615e-09) (-1.172899e-09 1.619710e-10 3.114659e-10)) ((-5.882410e-10 2.681849e-13 -2.882673e-13) (-2.292931e-06 1.117754e-11 -6.829541e-12))
1.049306      	((-7.270905e-09 -3.122596e-09 9.097728e-09) (-1.428220e-09 1.742046e-10 3.342613e-10)) ((-5.411339e-10 1.657637e-13 -2.640060e-13) (-2.075279e-06 1.212504e-11 -8.722781e-12))
1.271167      	((3.641265e-10 -5.423772e-09 7.168790e-09) (-1.285196e-09 1.544452e-10 2.323961e-10)) ((-4.972930e-10 8.093186e-15 -2.658844e-13) (-1.881851e-06 1.093552e-11 -8.381457e-12))
1.5374        	((-3.297702e-09 -8.900127e-10 1.043943e-08) (-2.546303e-10 4.340504e-10 2.420021e-10)) ((-4.528207e-10 -8.298119e-14 -4.469751e-13) (-1.709384e-06 8.233713e-12 -8.525162e-12))
1.85688       	((7.238726e-10 3.989365e-10 1.307659e-08) (8.365522e-10 7.078148e-10 1.598735e-10)) ((-4.091975e-10 -1.736078e-13 -4.261978e-13) (-1.556079e-06 6.783796e-12 -1.183609e-11))
2.240256      	((1.524494e-09 3.567967e-09 1.505662e-08) (8.737142e-10 9.230855e-10 2.192674e-11)) ((-3.718815e-10 -1.224534e-13 -4.583597e-13) (-1.420844e-06 3.648433e-12 -1.532021e-11))
2.700307      	((2.087828e-09 4.934582e-09 1.314503e-08) (6.661925e-10 1.332389e-09 3.333829e-10)) ((-3.384610e-10 -1.185188e-13 -4.175039e-13) (-1.302406e-06 -1.771143e-12 -1.356250e-11))
3.252369      	((-1.566827e-09 5.367921e-09 1.297645e-08) (2.421347e-10 1.290521e-09 4.695848e-10)) ((-3.074098e-10 -1.543116e-13 -2.291110e-13) (-1.198939e-06 -8.330842e-12 -4.272405e-12))
3.914842      	((3.854316e-09 4.139797e-09 5.281487e-09) (2.990088e-10 7.812377e-10 6.480584e-10)) ((-2.771889e-10 -2.448029e-13 -3.593792e-14) (-1.108126e-06 -1.121143e-11 7.301598e-12))
4.709811      	((5.093144e-09 5.276090e-09 5.761415e-09) (3.155141e-10 2.650670e-10 1.252327e-09)) ((-2.488284e-10 -2.751421e-13 -2.581641e-14) (-1.027631e-06 -1.159341e-11 1.938206e-11))
5.663773      	((5.815601e-09 4.571035e-09 2.407019e-09) (4.625506e-10 -1.010632e-10 1.944592e-09)) ((-2.234426e-10 -3.499660e-13 7.058585e-14) (-9.554702e-07 -6.935619e-12 2.850621e-11))
6.808528      	((2.794618e-09 3.193044e-09 1.674649e-09) (4.083009e-10 -5.069188e-10 2.376705e-09)) ((-2.001225e-10 -3.633902e-13 1.746856e-13) (-8.901494e-07 -3.569485e-13 3.156831e-11))
8.182233      	((-6.323741e-11 1.290000e-09 3.918047e-10) (-1.028936e-09 -9.437160e-10 2.262072e-09)) ((-1.795744e-10 -2.126854e-13 1.555049e-13) (-8.306142e-07 2.507889e-12 2.849055e-11))
9.83068       	((-2.161684e-09 7.530456e-10 2.210713e-10) (-1.496685e-09 -9.509366e-10 2.110322e-09)) ((-1.615243e-10 -1.358266e-13 1.827824e-13) (-7.760543e-07 4.117245e-12 1.997043e-11))
11.808816     	((-1.259281e-09 7.524742e-12 2.239925e-11) (-1.155159e-09 -8.495991e-10 1.981254e-09)) ((-1.451106e-10 -1.581018e-13 2.996197e-13) (-7.258354e-07 6.980778e-12 1.153681e-11))
14.182579     	((-2.090463e-09 1.049211e-09 -7.297916e-10) (-1.327316e-09 -9.526969e-10 1.670667e-09)) ((-1.319583e-10 -1.756886e-13 3.873158e-13) (-6.796671e-07 1.471513e-11 2.541820e-12))
17.031095     	((-1.163866e-09 -4.775730e-11 -5.649469e-10) (-1.497690e-09 -9.483980e-10 1.468165e-09)) ((-1.213936e-10 -2.238313e-13 4.442126e-13) (-6.375558e-07 2.473032e-11 -6.691351e-12))
20.449314     	((-2.189555e-09 -4.986000e-10 -1.877418e-09) (-1.204043e-09 -9.339320e-10 1.347820e-09)) ((-1.119537e-10 -2.000331e-13 4.285246e-13) (-5.995449e-07 3.295815e-11 -1.549705e-11))
24.551176     	((-5.045388e-10 -9.270534e-10 -2.383179e-09) (-6.009925e-10 -9.133749e-10 1.317316e-09)) ((-1.031385e-10 -2.534557e-13 4.315340e-13) (-5.655887e-07 3.749548e-11 -2.314896e-11))
29.473411     	((-1.466279e-09 -3.627123e-10 -2.647503e-09) (-5.770238e-10 -8.741821e-10 1.404196e-09)) ((-9.583784e-11 -2.551393e-13 4.265341e-13) (-5.354115e-07 4.106469e-11 -3.046724e-11))
35.380094     	((-6.107932e-10 -2.568366e-09 -4.425942e-09) (-5.405759e-10 -1.006547e-09 1.538431e-09)) ((-8.965917e-11 -2.397983e-13 4.229789e-13) (-5.086540e-07 4.392354e-11 -3.858992e-11))
42.468112     	((-1.252286e-09 -2.827406e-09 -3.816725e-09) (-1.744834e-10 -1.058060e-09 1.857532e-09)) ((-8.457275e-11 -2.686385e-13 4.172643e-13) (-4.850506e-07 4.576260e-11 -4.452667e-11))
50.83959      	((-7.975780e-10 -3.615800e-09 -3.762406e-09) (-1.465497e-11 -1.330819e-09 1.880332e-09)) ((-8.001420e-11 -2.613956e-13 3.899049e-13) (-4.645792e-07 4.701334e-11 -4.616580e-11))
60.494389     	((-1.223283e-09 -3.610943e-09 -1.985247e-09) (-1.547494e-10 -1.864662e-09 1.632778e-09)) ((-7.584670e-11 -2.185896e-13 3.498022e-13) (-4.471289e-07 4.566207e-11 -4.092271e-11))
71.432343     	((-1.490389e-09 -3.468038e-09 -2.300180e-10) (-4.239402e-10 -1.811880e-09 1.828918e-09)) ((-7.210089e-11 -1.608794e-13 3.113045e-13) (-4.325255e-07 4.499297e-11 -3.229203e-11))
83.653248     	((-1.813997e-09 -2.208155e-09 1.430410e-09) (-7.151353e-10 -1.693935e-09 2.102088e-09)) ((-6.887709e-11 -1.204853e-13 2.693919e-13) (-4.206417e-07 4.518573e-11 -2.486391e-11))
96.480289     	((-1.305615e-09 -1.876666e-09 1.593359e-09) (-8.389184e-10 -1.630362e-09 2.192561e-09)) ((-6.620826e-11 -6.543680e-14 2.175071e-13) (-4.115440e-07 4.546490e-11 -2.006593e-11))
109.304383    	((-9.713302e-10 -6.694905e-10 1.987809e-09) (-8.282571e-10 -1.218608e-09 2.345245e-09)) ((-6.416939e-11 -3.881585e-14 1.652436e-13) (-4.050173e-07 4.610659e-11 -1.874718e-11))
122.125234    	((-7.227951e-10 5.328574e-10 2.353031e-09) (-6.287495e-10 -7.577753e-10 2.432405e-09)) ((-6.281809e-11 -3.344155e-14 1.274881e-13) (-4.006972e-07 4.821281e-11 -2.206335e-11))
134.942627    	((-7.954500e-10 1.093061e-09 2.104042e-09) (-5.917117e-10 -6.430956e-10 2.307534e-09)) ((-6.199794e-11 -3.938995e-14 1.228806e-13) (-3.982833e-07 5.047585e-11 -2.912364e-11))
147.756247    	((-9.566162e-10 1.420536e-09 2.064857e-09) (-6.701939e-10 -7.674351e-11 2.499427e-09)) ((-6.163329e-11 -4.296250e-14 1.147299e-13) (-3.975274e-07 4.908467e-11 -3.521869e-11))
160.5659      	((-8.472324e-10 2.455448e-09 2.056378e-09) (-7.624027e-10 4.273204e-10 2.574594e-09)) ((-6.156075e-11 -8.177267e-14 1.043809e-13) (-3.982421e-07 4.562440e-11 -4.095479e-11))
173.37116     	((-4.089960e-10 2.394749e-09 1.597919e-09) (-6.540192e-10 6.931999e-10 2.380991e-09)) ((-6.169864e-11 -8.580909e-14 1.056332e-13) (-4.002664e-07 4.190214e-11 -4.536245e-11))
186.171565    	((-4.100444e-10 2.618143e-09 1.218474e-09) (-6.852666e-10 7.288577e-10 2.048470e-09)) ((-6.207233e-11 -9.555223e-14 1.023956e-13) (-4.034242e-07 3.807051e-11 -4.716267e-11))
198.966798    	((-1.688417e-10 2.114168e-09 1.007420e-09) (-7.221047e-10 7.267317e-10 1.799770e-09)) ((-6.265619e-11 -1.078455e-13 1.073564e-13) (-4.075155e-07 3.490766e-11 -4.706115e-11))
211.756609    	((4.359003e-11 1.721806e-09 7.797078e-10) (-7.113365e-10 6.096634e-10 1.634569e-09)) ((-6.325322e-11 -1.206986e-13 1.176257e-13) (-4.123158e-07 3.304901e-11 -4.541135e-11))
224.54078     	((-2.579697e-10 1.512533e-09 7.426930e-10) (-6.380871e-10 4.673408e-10 1.548308e-09)) ((-6.393775e-11 -1.321636e-13 1.270238e-13) (-4.175887e-07 3.233029e-11 -4.281126e-11))
237.319086    	((-3.456338e-10 1.295759e-09 6.320631e-10) (-5.866030e-10 3.219505e-10 1.484744e-09)) ((-6.477548e-11 -1.378040e-13 1.394740e-13) (-4.230978e-07 3.302714e-11 -4.042240e-11))
250.091285    	((-4.156255e-10 1.321782e-09 4.066085e-10) (-5.618971e-10 2.127647e-10 1.455935e-09)) ((-6.570465e-11 -1.483976e-13 1.508552e-13) (-4.286061e-07 3.524708e-11 -3.884270e-11))
262.857031    	((-4.382818e-10 1.267862e-09 -2.198973e-10) (-5.640379e-10 1.314604e-10 1.456022e-09)) ((-6.685355e-11 -1.693034e-13 1.742545e-13) (-4.338758e-07 3.786721e-11 -3.822198e-11))
275.615972    	((-4.145879e-10 1.826300e-09 -1.661947e-10) (-5.672573e-10 1.543845e-10 1.542144e-09)) ((-6.796081e-11 -1.783410e-13 1.892827e-13) (-4.387052e-07 4.058093e-11 -3.926369e-11))
288.276854    	((-3.683823e-10 1.558519e-09 -1.049665e-09) (-6.066768e-10 1.424510e-10 1.565576e-09)) ((-6.885627e-11 -1.857972e-13 2.027608e-13) (-4.429118e-07 4.235378e-11 -4.130011e-11))
300.827008    	((-5.554001e-10 1.741585e-09 -1.306867e-09) (-7.203923e-10 1.465953e-10 1.597839e-09)) ((-6.964656e-11 -1.852185e-13 2.049943e-13) (-4.463669e-07 4.294626e-11 -4.353196e-11))
