# Forces      
# CofR        : (0.000000e+00 0.000000e+00 0.000000e+00)
# Time        forces(pressure viscous)	moments(pressure viscous)
0             	((0.000000e+00 0.000000e+00 0.000000e+00) (-1.374723e-14 -6.290964e-15 2.005355e-04)) ((0.000000e+00 0.000000e+00 0.000000e+00) (3.538016e-16 7.760550e-11 4.946566e-18))
0.012         	((-7.736429e-09 -3.226935e-08 5.829128e-02) (-1.587655e-10 -1.852478e-10 2.300227e-04)) ((2.385946e-11 1.545087e-08 2.110427e-13) (-1.302621e-12 2.255908e-10 1.591793e-14))
0.0264        	((-1.147270e-07 1.421733e-07 -4.261161e-03) (-3.865263e-10 -1.420668e-10 2.344549e-04)) ((-2.681498e-11 -1.005428e-09 2.540026e-12) (-1.521359e-12 2.994655e-10 3.185112e-13))
0.04368       	((2.729632e-07 -8.258120e-08 -1.207063e-02) (-5.192403e-10 2.639333e-11 2.081419e-04)) ((-1.306769e-10 -2.730638e-09 -4.516584e-12) (3.513646e-12 3.035362e-10 3.317891e-13))
0.064416      	((-1.669141e-07 1.748692e-07 -1.143322e-04) (1.160787e-09 2.481345e-09 1.843150e-04)) ((4.260173e-11 6.963307e-11 2.444012e-12) (-2.232946e-11 3.840519e-10 1.236105e-12))
0.0892992     	((1.379627e-07 -7.075814e-09 1.361007e-04) (1.711267e-09 3.909020e-09 1.701221e-04)) ((1.565819e-11 -9.295054e-11 -2.058479e-12) (-2.103558e-11 4.644405e-10 3.890917e-12))
0.119159      	((7.137316e-08 1.311164e-07 -1.910757e-04) (1.126229e-09 3.474504e-09 1.570587e-04)) ((5.297711e-12 -1.145663e-10 1.492945e-12) (6.639516e-12 5.096496e-10 2.921696e-12))
0.154991      	((-4.643314e-08 -1.459444e-08 -9.958951e-05) (1.040456e-09 3.040685e-09 1.433118e-04)) ((-9.921747e-13 -5.942908e-11 -7.593330e-13) (-1.475666e-11 5.372982e-10 5.902823e-13))
0.197989      	((-3.718910e-08 -1.236183e-08 -2.375200e-05) (1.206612e-09 2.261498e-09 1.295474e-04)) ((5.672106e-12 -2.125789e-11 -5.209705e-13) (-4.021908e-11 4.905389e-10 1.996502e-12))
0.249587      	((-4.026818e-09 -8.454867e-10 3.454010e-06) (1.201553e-09 1.743791e-09 1.161826e-04)) ((3.401041e-12 -8.558087e-12 1.501824e-13) (-3.986333e-11 4.108538e-10 5.009292e-12))
0.311504      	((-8.486196e-10 3.285311e-09 1.560283e-05) (5.089563e-10 1.150832e-09 1.036173e-04)) ((6.516269e-13 1.087586e-11 1.659743e-13) (-3.917785e-11 3.471971e-10 6.485582e-12))
0.385805      	((-1.207609e-08 -6.849541e-09 2.212252e-05) (1.855098e-10 6.433498e-10 9.217583e-05)) ((-2.757652e-13 1.970961e-11 -2.088376e-14) (-3.795266e-11 2.954511e-10 6.265275e-12))
0.474966      	((-9.729083e-09 -4.084206e-09 2.565136e-05) (3.003011e-11 3.823923e-10 8.202552e-05)) ((1.266032e-13 1.996885e-11 -3.214374e-14) (-3.493984e-11 2.650777e-10 5.309504e-12))
0.581959      	((-8.630189e-09 -7.102950e-09 2.710930e-05) (-3.809492e-10 2.222625e-10 7.310064e-05)) ((-5.026166e-14 2.188116e-11 7.452476e-14) (-2.581127e-11 2.244407e-10 3.751198e-12))
0.710351      	((-7.566508e-09 -5.078701e-09 2.709602e-05) (-7.491833e-10 2.028113e-10 6.528569e-05)) ((-1.263060e-13 2.394041e-11 5.568008e-14) (-1.309435e-11 1.657677e-10 2.380817e-12))
0.864421      	((-5.942043e-09 -4.451957e-09 2.613339e-05) (-8.967136e-10 2.244547e-10 5.847689e-05)) ((-1.501786e-13 2.458569e-11 4.242279e-14) (-3.747793e-12 1.223585e-10 1.421276e-12))
1.049306      	((-2.526389e-09 -2.788410e-09 2.469831e-05) (-8.633477e-10 2.301334e-10 5.255042e-05)) ((-8.727788e-14 2.370675e-11 3.466783e-14) (2.454253e-13 1.200622e-10 7.809405e-13))
1.271167      	((-3.092777e-09 -2.597180e-09 2.304131e-05) (-7.676985e-10 1.968124e-10 4.737709e-05)) ((-1.671586e-14 2.204443e-11 3.957061e-14) (1.658465e-12 1.403614e-10 4.441080e-13))
1.5374        	((-1.285623e-09 -1.502393e-09 2.129707e-05) (-5.213374e-10 1.423007e-10 4.283056e-05)) ((5.277865e-14 2.011376e-11 2.433444e-14) (2.115993e-12 1.651195e-10 3.358092e-13))
1.85688       	((-1.068771e-09 -1.082884e-09 1.959347e-05) (-7.944624e-11 7.182448e-11 3.881105e-05)) ((7.719943e-14 1.865950e-11 2.438932e-14) (2.346388e-12 1.924622e-10 3.634972e-13))
2.240256      	((-1.362510e-09 -4.486741e-10 1.800930e-05) (1.241723e-10 -1.307485e-11 3.524559e-05)) ((1.095905e-13 1.732717e-11 1.414635e-14) (2.634895e-12 2.094832e-10 3.818758e-13))
2.700307      	((-2.557635e-09 -1.209000e-09 1.656242e-05) (-6.567355e-11 -1.036308e-10 3.207509e-05)) ((1.294047e-13 1.629499e-11 1.592329e-14) (2.417553e-12 1.871190e-10 4.365532e-13))
3.252369      	((-3.030384e-09 -2.144612e-09 1.524674e-05) (-2.757783e-10 -1.798205e-10 2.924751e-05)) ((1.657791e-13 1.525707e-11 1.623885e-14) (3.990659e-12 1.382722e-10 6.317043e-13))
3.914842      	((-3.676856e-09 -2.950295e-09 1.406766e-05) (-3.858919e-10 -2.291967e-10 2.672050e-05)) ((1.846343e-13 1.426798e-11 2.736275e-14) (8.014515e-12 8.850973e-11 6.486521e-13))
4.709811      	((-4.729265e-09 -3.810168e-09 1.303350e-05) (-5.099493e-10 -2.698376e-10 2.446467e-05)) ((1.741924e-13 1.337840e-11 2.741694e-14) (1.203254e-11 5.698855e-11 3.931959e-13))
5.663773      	((-5.052708e-09 -3.987278e-09 1.215120e-05) (-6.142502e-10 -2.852600e-10 2.245959e-05)) ((1.524427e-13 1.242758e-11 3.399390e-14) (1.466395e-11 6.208350e-11 2.891367e-13))
6.808528      	((-4.946813e-09 -3.826549e-09 1.141304e-05) (-6.032836e-10 -2.789941e-10 2.068415e-05)) ((1.184133e-13 1.147033e-11 3.317935e-14) (1.459482e-11 8.518734e-11 1.420881e-13))
8.182233      	((-5.996700e-09 -4.736979e-09 1.081913e-05) (-5.997872e-10 -2.809091e-10 1.911415e-05)) ((9.094578e-14 1.062405e-11 3.294242e-14) (9.977846e-12 1.020283e-10 -1.719680e-13))
9.83068       	((-6.671530e-09 -5.183448e-09 1.037268e-05) (-5.731335e-10 -3.187630e-10 1.772599e-05)) ((7.411444e-14 9.890279e-12 4.078369e-14) (5.040557e-12 9.566754e-11 -2.996422e-13))
11.808816     	((-7.073063e-09 -6.532533e-09 1.007532e-05) (-6.107590e-10 -4.340346e-10 1.649977e-05)) ((7.081712e-14 9.190758e-12 4.160305e-14) (4.759320e-12 7.424234e-11 -4.252912e-13))
14.182579     	((-7.511319e-09 -6.462161e-09 9.929020e-06) (-7.544755e-10 -5.650081e-10 1.542034e-05)) ((7.723914e-14 8.562909e-12 4.320964e-14) (9.622128e-12 4.858480e-11 -6.973455e-13))
17.031095     	((-6.319897e-09 -5.301850e-09 9.926877e-06) (-9.147804e-10 -6.419128e-10 1.447590e-05)) ((1.002410e-13 8.035369e-12 4.332279e-14) (1.641517e-11 2.983193e-11 -1.015735e-12))
20.449314     	((-6.080316e-09 -4.818974e-09 1.005753e-05) (-1.075152e-09 -6.760430e-10 1.365626e-05)) ((1.067076e-13 7.661614e-12 4.008662e-14) (2.302064e-11 2.136116e-11 -1.040310e-12))
24.551176     	((-4.172636e-09 -2.975091e-09 1.030930e-05) (-1.084178e-09 -6.304135e-10 1.295282e-05)) ((1.104473e-13 7.303810e-12 3.509526e-14) (3.245728e-11 1.929213e-11 -9.116589e-13))
29.473411     	((-1.350975e-09 -3.818211e-10 1.066951e-05) (-8.347539e-10 -4.735335e-10 1.235930e-05)) ((1.061772e-13 6.986899e-12 3.145172e-14) (4.059150e-11 2.157136e-11 -7.549375e-13))
35.380094     	((1.793796e-09 2.908494e-09 1.111028e-05) (-5.145839e-10 -1.748376e-10 1.186854e-05)) ((7.084780e-14 6.771798e-12 2.939508e-14) (4.685566e-11 2.696781e-11 -8.264353e-13))
42.448323     	((4.464021e-09 5.769994e-09 1.159148e-05) (-1.905781e-10 1.538589e-10 1.147403e-05)) ((1.565810e-14 6.636123e-12 2.309954e-14) (5.500065e-11 2.382285e-11 -7.960741e-13))
50.669968     	((7.219509e-09 8.561996e-09 1.207487e-05) (2.530231e-10 5.228017e-10 1.117017e-05)) ((-1.958978e-14 6.480569e-12 2.556878e-14) (6.356843e-11 1.090132e-11 -7.006412e-13))
60.035645     	((1.026616e-08 1.161148e-08 1.249696e-05) (7.516560e-10 9.456732e-10 1.093583e-05)) ((-6.655571e-14 6.409450e-12 2.367384e-14) (7.106738e-11 -8.516265e-12 -6.010497e-13))
70.538918     	((1.340189e-08 1.469840e-08 1.283444e-05) (1.266942e-09 1.427062e-09 1.074724e-05)) ((-9.175595e-14 6.418811e-12 2.390369e-14) (7.665183e-11 -2.862668e-11 -6.020771e-13))
81.91114      	((1.657763e-08 1.792131e-08 1.308498e-05) (1.792247e-09 1.970810e-09 1.058952e-05)) ((-1.013711e-13 6.433888e-12 2.248592e-14) (8.139222e-11 -4.942950e-11 -5.725360e-13))
93.323112     	((1.867750e-08 2.037605e-08 1.326083e-05) (2.325380e-09 2.539992e-09 1.045807e-05)) ((-1.254738e-13 6.456103e-12 1.893444e-14) (8.679044e-11 -7.083710e-11 -3.888721e-13))
104.772706    	((2.017444e-08 2.225348e-08 1.333926e-05) (2.875070e-09 3.149788e-09 1.034450e-05)) ((-1.597680e-13 6.441865e-12 1.515456e-14) (9.061674e-11 -8.811612e-11 -3.726173e-13))
116.239035    	((2.037946e-08 2.297657e-08 1.335799e-05) (3.320780e-09 3.663823e-09 1.024538e-05)) ((-1.788751e-13 6.393792e-12 1.661471e-14) (9.191418e-11 -9.745702e-11 -1.427331e-13))
127.71061     	((2.061391e-08 2.338176e-08 1.334311e-05) (3.673158e-09 4.050963e-09 1.015767e-05)) ((-2.013247e-13 6.370293e-12 1.800375e-14) (9.083160e-11 -1.023993e-10 3.944142e-14))
139.188036    	((2.149501e-08 2.437203e-08 1.331066e-05) (3.986320e-09 4.386317e-09 1.007914e-05)) ((-2.271722e-13 6.358854e-12 2.036949e-14) (8.822579e-11 -1.028732e-10 9.801245e-14))
150.673734    	((2.228509e-08 2.503021e-08 1.327764e-05) (4.303385e-09 4.669614e-09 1.000927e-05)) ((-2.325287e-13 6.347951e-12 1.828300e-14) (8.396398e-11 -1.004779e-10 -2.177103e-14))
162.167432    	((2.317317e-08 2.568865e-08 1.324279e-05) (4.580922e-09 4.906937e-09 9.947292e-06)) ((-2.342820e-13 6.331223e-12 1.836772e-14) (7.906236e-11 -9.760879e-11 -2.358974e-13))
173.667825    	((2.361691e-08 2.583290e-08 1.320443e-05) (4.809689e-09 5.104814e-09 9.891540e-06)) ((-2.350835e-13 6.301025e-12 1.914982e-14) (7.354767e-11 -9.607797e-11 -2.611601e-13))
185.174105    	((2.435882e-08 2.596437e-08 1.317205e-05) (5.013860e-09 5.252388e-09 9.841501e-06)) ((-2.482741e-13 6.279203e-12 2.221055e-14) (6.769627e-11 -9.225668e-11 -1.904359e-13))
196.685761    	((2.504648e-08 2.599593e-08 1.314583e-05) (5.212894e-09 5.377455e-09 9.797012e-06)) ((-2.580628e-13 6.256879e-12 2.320386e-14) (6.125225e-11 -8.755774e-11 -1.956930e-13))
208.202272    	((2.558789e-08 2.600529e-08 1.312127e-05) (5.392412e-09 5.498162e-09 9.757510e-06)) ((-2.667461e-13 6.238890e-12 2.464189e-14) (5.479917e-11 -8.333502e-11 -3.492880e-14))
219.72315     	((2.600512e-08 2.574679e-08 1.309725e-05) (5.544277e-09 5.578412e-09 9.722274e-06)) ((-2.767604e-13 6.221466e-12 2.724710e-14) (4.889873e-11 -7.950103e-11 4.831720e-14))
231.247995    	((2.636751e-08 2.545221e-08 1.307366e-05) (5.656497e-09 5.623630e-09 9.690759e-06)) ((-2.795437e-13 6.196279e-12 2.892660e-14) (4.326759e-11 -7.582748e-11 1.367749e-14))
242.776453    	((2.670228e-08 2.510112e-08 1.305060e-05) (5.747681e-09 5.649319e-09 9.662428e-06)) ((-2.764658e-13 6.166911e-12 3.139207e-14) (3.775392e-11 -7.200085e-11 5.606596e-14))
254.308184    	((2.714163e-08 2.477315e-08 1.302855e-05) (5.832551e-09 5.655097e-09 9.636871e-06)) ((-2.781910e-13 6.147663e-12 3.267931e-14) (3.206508e-11 -6.851192e-11 1.434796e-13))
265.842884    	((2.703821e-08 2.398583e-08 1.300868e-05) (5.891562e-09 5.618086e-09 9.613847e-06)) ((-2.736663e-13 6.123385e-12 3.409927e-14) (2.644185e-11 -6.525325e-11 1.401864e-13))
277.380296    	((2.709422e-08 2.333390e-08 1.298985e-05) (5.936308e-09 5.553309e-09 9.593041e-06)) ((-2.735616e-13 6.106589e-12 3.502750e-14) (2.116828e-11 -6.170218e-11 1.142716e-13))
288.920197    	((2.707179e-08 2.252161e-08 1.297274e-05) (5.971343e-09 5.463127e-09 9.574231e-06)) ((-2.693066e-13 6.088850e-12 3.548913e-14) (1.632968e-11 -5.785325e-11 8.154630e-14))
300.462382    	((2.679709e-08 2.168771e-08 1.295680e-05) (5.980726e-09 5.347779e-09 9.557224e-06)) ((-2.665375e-13 6.072396e-12 3.548599e-14) (1.219913e-11 -5.373496e-11 4.033564e-14))
312.006661    	((2.676920e-08 2.109674e-08 1.294184e-05) (5.982913e-09 5.235105e-09 9.541806e-06)) ((-2.669731e-13 6.061842e-12 3.602534e-14) (8.402381e-12 -4.937695e-11 -3.965206e-14))
323.552861    	((2.666826e-08 2.055584e-08 1.292759e-05) (5.980975e-09 5.129466e-09 9.527792e-06)) ((-2.669112e-13 6.051931e-12 3.631423e-14) (4.819739e-12 -4.499770e-11 -1.832153e-13))
335.100823    	((2.662682e-08 2.004858e-08 1.291425e-05) (5.981081e-09 5.031252e-09 9.515034e-06)) ((-2.661516e-13 6.042812e-12 3.594843e-14) (1.487441e-12 -4.063180e-11 -2.623442e-13))
346.650408    	((2.653009e-08 1.959840e-08 1.290175e-05) (5.981182e-09 4.942945e-09 9.503396e-06)) ((-2.649762e-13 6.033902e-12 3.564961e-14) (-1.535372e-12 -3.628559e-11 -2.863780e-13))
358.201508    	((2.639109e-08 1.913631e-08 1.289031e-05) (5.980167e-09 4.858375e-09 9.492775e-06)) ((-2.633362e-13 6.024530e-12 3.541480e-14) (-4.196787e-12 -3.205453e-11 -4.058182e-13))
369.754015    	((2.627361e-08 1.872196e-08 1.287964e-05) (5.983354e-09 4.775631e-09 9.483066e-06)) ((-2.613951e-13 6.015043e-12 3.497600e-14) (-6.581521e-12 -2.802614e-11 -4.901309e-13))
381.307825    	((2.610718e-08 1.830392e-08 1.286964e-05) (5.983247e-09 4.696070e-09 9.474174e-06)) ((-2.589964e-13 6.004489e-12 3.443907e-14) (-8.691190e-12 -2.412988e-11 -5.484870e-13))
392.862833    	((2.589803e-08 1.788092e-08 1.286039e-05) (5.977681e-09 4.620092e-09 9.466020e-06)) ((-2.559377e-13 5.994114e-12 3.404770e-14) (-1.068621e-11 -2.019889e-11 -5.798933e-13))
404.418943    	((2.568549e-08 1.748381e-08 1.285177e-05) (5.970636e-09 4.549771e-09 9.458537e-06)) ((-2.525292e-13 5.983710e-12 3.411931e-14) (-1.271707e-11 -1.624741e-11 -5.991632e-13))
415.97607     	((2.538684e-08 1.702442e-08 1.284369e-05) (5.957284e-09 4.479916e-09 9.451658e-06)) ((-2.484185e-13 5.972508e-12 3.423207e-14) (-1.489624e-11 -1.230225e-11 -6.173076e-13))
427.534135    	((2.511170e-08 1.650085e-08 1.283608e-05) (5.941640e-09 4.407461e-09 9.445325e-06)) ((-2.434518e-13 5.962395e-12 3.419052e-14) (-1.727194e-11 -8.345767e-12 -6.301828e-13))
439.093065    	((2.485888e-08 1.603878e-08 1.282896e-05) (5.927759e-09 4.340191e-09 9.439489e-06)) ((-2.399875e-13 5.954460e-12 3.422263e-14) (-1.987753e-11 -4.374685e-12 -6.564382e-13))
450.652796    	((2.463126e-08 1.553334e-08 1.282227e-05) (5.917590e-09 4.275508e-09 9.434104e-06)) ((-2.365317e-13 5.948177e-12 3.445865e-14) (-2.268363e-11 -4.192235e-13 -6.917446e-13))
462.213268    	((2.440287e-08 1.501239e-08 1.281599e-05) (5.910290e-09 4.211167e-09 9.429128e-06)) ((-2.339679e-13 5.941885e-12 3.460702e-14) (-2.565533e-11 3.548035e-12 -7.257325e-13))
473.774427    	((2.415201e-08 1.445678e-08 1.281014e-05) (5.902253e-09 4.146803e-09 9.424528e-06)) ((-2.317224e-13 5.936238e-12 3.471929e-14) (-2.880758e-11 7.424537e-12 -7.487577e-13))
485.336224    	((2.389841e-08 1.388678e-08 1.280459e-05) (5.892457e-09 4.081836e-09 9.420266e-06)) ((-2.297886e-13 5.930600e-12 3.488796e-14) (-3.213403e-11 1.111126e-11 -7.635474e-13))
496.898615    	((2.361884e-08 1.326278e-08 1.279937e-05) (5.878666e-09 4.012933e-09 9.416310e-06)) ((-2.276001e-13 5.925048e-12 3.504607e-14) (-3.560899e-11 1.454032e-11 -7.754839e-13))
508.46156     	((2.332541e-08 1.261041e-08 1.279445e-05) (5.859112e-09 3.938878e-09 9.412633e-06)) ((-2.251556e-13 5.919473e-12 3.513744e-14) (-3.915759e-11 1.768536e-11 -7.781383e-13))
520.025022    	((2.300357e-08 1.189888e-08 1.278986e-05) (5.832455e-09 3.856651e-09 9.409216e-06)) ((-2.222127e-13 5.914145e-12 3.514959e-14) (-4.268749e-11 2.056951e-11 -7.784220e-13))
531.588967    	((2.266210e-08 1.117274e-08 1.278552e-05) (5.799178e-09 3.767120e-09 9.406034e-06)) ((-2.189729e-13 5.909126e-12 3.509657e-14) (-4.620480e-11 2.319469e-11 -7.816842e-13))
543.153366    	((2.232551e-08 1.041148e-08 1.278152e-05) (5.761481e-09 3.670097e-09 9.403073e-06)) ((-2.160647e-13 5.903817e-12 3.499380e-14) (-4.964851e-11 2.558289e-11 -7.883898e-13))
554.718187    	((2.198633e-08 9.649026e-09 1.277774e-05) (5.719092e-09 3.566851e-09 9.400316e-06)) ((-2.125947e-13 5.899031e-12 3.490861e-14) (-5.299479e-11 2.778517e-11 -7.974578e-13))
566.283407    	((2.167359e-08 8.869731e-09 1.277421e-05) (5.674748e-09 3.456629e-09 9.397746e-06)) ((-2.090810e-13 5.894963e-12 3.486289e-14) (-5.623087e-11 2.983486e-11 -8.056556e-13))
577.848999    	((2.136999e-08 8.081685e-09 1.277090e-05) (5.630130e-09 3.339651e-09 9.395350e-06)) ((-2.055196e-13 5.891306e-12 3.495844e-14) (-5.931856e-11 3.179267e-11 -8.161725e-13))
589.414941    	((2.107907e-08 7.303352e-09 1.276780e-05) (5.585849e-09 3.218049e-09 9.393115e-06)) ((-2.021231e-13 5.887858e-12 3.502806e-14) (-6.226458e-11 3.368176e-11 -8.238825e-13))
600.981212    	((2.080704e-08 6.538134e-09 1.276492e-05) (5.543179e-09 3.092848e-09 9.391032e-06)) ((-1.987738e-13 5.884565e-12 3.513874e-14) (-6.505467e-11 3.550687e-11 -8.298783e-13))
612.547793    	((2.055506e-08 5.798483e-09 1.276223e-05) (5.502618e-09 2.965381e-09 9.389091e-06)) ((-1.956420e-13 5.881336e-12 3.520374e-14) (-6.767249e-11 3.725106e-11 -8.390903e-13))
624.114665    	((2.032961e-08 5.080396e-09 1.275971e-05) (5.464789e-09 2.837457e-09 9.387282e-06)) ((-1.924286e-13 5.878404e-12 3.524359e-14) (-7.013035e-11 3.891850e-11 -8.498811e-13))
635.68181     	((2.013604e-08 4.394885e-09 1.275734e-05) (5.430691e-09 2.710687e-09 9.385595e-06)) ((-1.894062e-13 5.875831e-12 3.528049e-14) (-7.244635e-11 4.050057e-11 -8.625531e-13))
647.249213    	((1.996632e-08 3.729305e-09 1.275514e-05) (5.400615e-09 2.585757e-09 9.384022e-06)) ((-1.863905e-13 5.873461e-12 3.534917e-14) (-7.462903e-11 4.199675e-11 -8.741770e-13))
658.816858    	((1.982895e-08 3.083185e-09 1.275308e-05) (5.375437e-09 2.462943e-09 9.382557e-06)) ((-1.833811e-13 5.871420e-12 3.548723e-14) (-7.668182e-11 4.342352e-11 -8.838343e-13))
670.384731    	((1.972001e-08 2.459654e-09 1.275114e-05) (5.355641e-09 2.342646e-09 9.381191e-06)) ((-1.802936e-13 5.869618e-12 3.556652e-14) (-7.862272e-11 4.479405e-11 -8.933218e-13))
681.952818    	((1.964013e-08 1.850596e-09 1.274932e-05) (5.341560e-09 2.224920e-09 9.379915e-06)) ((-1.771888e-13 5.868147e-12 3.564695e-14) (-8.047356e-11 4.611409e-11 -9.027948e-13))
693.521108    	((1.958637e-08 1.260306e-09 1.274760e-05) (5.333623e-09 2.110084e-09 9.378723e-06)) ((-1.740768e-13 5.866922e-12 3.571734e-14) (-8.224863e-11 4.740147e-11 -9.121448e-13))
705.089588    	((1.953885e-08 6.763484e-10 1.274601e-05) (5.330670e-09 1.997837e-09 9.377612e-06)) ((-1.709129e-13 5.865813e-12 3.582391e-14) (-8.396758e-11 4.866468e-11 -9.227984e-13))
716.658249    	((1.950115e-08 9.819116e-11 1.274449e-05) (5.332074e-09 1.888455e-09 9.376575e-06)) ((-1.677849e-13 5.864879e-12 3.593830e-14) (-8.565960e-11 4.991117e-11 -9.328628e-13))
