# Forces      
# CofR        : (0.000000e+00 0.000000e+00 0.000000e+00)
# Time        forces(pressure viscous)	moments(pressure viscous)
0             	((0.000000e+00 0.000000e+00 0.000000e+00) (0.000000e+00 0.000000e+00 0.000000e+00)) ((0.000000e+00 0.000000e+00 0.000000e+00) (0.000000e+00 0.000000e+00 0.000000e+00))
0.012         	((8.532982e-13 -1.427560e-12 -3.430808e-10) (9.328585e-16 -7.528579e-15 -7.205918e-12)) ((1.548240e-16 -1.334523e-11 7.081255e-18) (-1.789268e-17 -8.816123e-09 5.210827e-16))
0.0264        	((-1.434133e-12 1.515722e-12 1.289873e-10) (1.192871e-15 -2.130639e-14 -1.253052e-11)) ((3.286347e-17 -6.679560e-12 -6.496195e-16) (-2.397474e-16 -8.074879e-09 7.356457e-16))
0.04368       	((-5.018341e-12 -8.216110e-12 -1.195033e-10) (-1.286063e-14 -1.596650e-14 -1.358261e-11)) ((-1.211828e-16 -3.683324e-12 -4.226014e-16) (4.022478e-16 -7.313134e-09 1.058912e-15))
0.064416      	((1.447486e-12 2.264103e-12 -4.498862e-12) (-3.997889e-14 1.183701e-14 -1.122993e-11)) ((-2.508211e-18 -2.095909e-12 2.959948e-17) (1.353941e-15 -6.547509e-09 1.375928e-15))
0.0892992     	((-4.322593e-12 -2.536892e-12 -1.498659e-11) (-5.915436e-14 4.028322e-14 -9.334480e-12)) ((3.143119e-17 -1.555737e-12 3.161028e-18) (1.854801e-15 -5.800319e-09 1.415652e-15))
0.119159      	((1.746610e-12 6.770509e-13 -3.989544e-12) (-7.159947e-14 7.006262e-14 -7.913052e-12)) ((-2.189978e-17 -1.115714e-12 6.522652e-18) (2.488452e-15 -5.094543e-09 1.618540e-15))
0.154991      	((1.429986e-12 1.618959e-12 9.789690e-12) (-8.347875e-14 1.095205e-13 -6.371550e-12)) ((1.946958e-17 -8.811887e-13 -6.735123e-17) (3.305754e-15 -4.446438e-09 1.994620e-15))
0.197989      	((1.115697e-12 1.092292e-12 -1.060932e-12) (-8.849233e-14 1.414447e-13 -4.972753e-12)) ((2.925307e-17 -7.002473e-13 -6.767095e-17) (3.717453e-15 -3.871844e-09 2.293069e-15))
0.249587      	((-1.066676e-13 1.117020e-12 9.482967e-12) (-8.648148e-14 1.592664e-13 -3.924828e-12)) ((4.623126e-17 -5.771116e-13 1.298756e-17) (3.629437e-15 -3.379341e-09 1.990919e-15))
0.311504      	((1.344481e-13 -2.731044e-13 1.815338e-12) (-7.967628e-14 1.728091e-13 -3.054227e-12)) ((3.801744e-17 -4.802729e-13 6.837281e-17) (3.434477e-15 -2.967753e-09 1.354962e-15))
0.385805      	((6.111493e-13 -9.524348e-13 -2.321934e-14) (-7.438939e-14 1.776785e-13 -2.339411e-12)) ((1.140488e-17 -4.116799e-13 1.089463e-16) (3.360685e-15 -2.628207e-09 1.066348e-15))
0.474966      	((1.187088e-12 2.596479e-13 -2.003580e-12) (-6.196376e-14 1.893109e-13 -1.660645e-12)) ((1.015033e-17 -3.666050e-13 8.688416e-17) (3.197921e-15 -2.347345e-09 3.242394e-16))
0.581959      	((1.952271e-12 1.088956e-12 2.039648e-12) (-4.239666e-14 1.977309e-13 -1.093510e-12)) ((1.951016e-17 -3.283104e-13 3.180729e-17) (3.096593e-15 -2.111270e-09 -7.142090e-16))
0.710351      	((2.781445e-12 1.531659e-12 -4.694540e-12) (-4.778225e-14 1.410832e-13 -9.755060e-13)) ((4.802767e-17 -2.914524e-13 2.975538e-17) (2.425994e-15 -1.908477e-09 1.328468e-16))
0.864421      	((2.935835e-12 1.291103e-12 -2.267957e-12) (-6.086383e-14 -1.639742e-14 -9.209794e-13)) ((6.689552e-17 -2.665972e-13 -4.398820e-17) (9.607104e-16 -1.730810e-09 2.486079e-15))
1.049306      	((4.432660e-12 1.230073e-12 1.988019e-13) (-1.025733e-13 -1.585969e-13 -5.884501e-13)) ((9.857037e-17 -2.507671e-13 -3.685215e-17) (-9.038530e-16 -1.572899e-09 3.893411e-15))
1.271167      	((5.694431e-12 1.015101e-12 -4.594897e-12) (-1.868093e-13 -2.281720e-13 -2.585934e-13)) ((3.943773e-17 -2.345390e-13 -7.287973e-17) (-3.544931e-15 -1.431131e-09 2.968369e-15))
1.5374        	((5.712372e-12 -4.459795e-13 -5.501106e-12) (-3.171445e-13 -2.539506e-13 1.770391e-13)) ((-6.983590e-17 -2.156797e-13 -1.117461e-16) (-7.127298e-15 -1.303153e-09 5.158205e-16))
1.85688       	((5.556343e-12 6.715358e-13 -3.739644e-12) (-4.767665e-13 -2.793464e-13 8.489724e-13)) ((-1.338520e-16 -1.990722e-13 -4.999631e-17) (-1.239329e-14 -1.187690e-09 -4.483840e-15))
2.240256      	((5.272815e-12 3.215132e-13 -4.728623e-12) (-7.053012e-13 -2.303962e-13 1.281006e-12)) ((-1.396088e-16 -1.883711e-13 -3.385658e-17) (-1.719330e-14 -1.084082e-09 -1.109671e-14))
2.700307      	((5.023863e-12 5.936921e-14 -4.043852e-12) (-1.104082e-12 -1.469413e-13 1.520258e-12)) ((-1.273852e-16 -1.806304e-13 -4.591280e-17) (-2.497211e-14 -9.918634e-10 -2.485753e-14))
3.252369      	((3.770130e-12 3.379718e-13 -2.678604e-12) (-1.617126e-12 -8.084944e-14 2.365734e-12)) ((-1.512522e-16 -1.728815e-13 -7.356068e-17) (-3.521913e-14 -9.104046e-10 -4.162775e-14))
3.914842      	((1.652385e-12 3.228278e-13 -8.062078e-13) (-2.116796e-12 1.217093e-14 3.730282e-12)) ((-7.468213e-17 -1.638765e-13 -1.240171e-16) (-4.255697e-14 -8.387555e-10 -4.979481e-14))
4.709811      	((7.421227e-13 1.901522e-14 6.055613e-13) (-2.663341e-12 1.354596e-13 4.261061e-12)) ((-9.459619e-17 -1.538586e-13 -1.008009e-16) (-4.860282e-14 -7.755855e-10 -5.631626e-14))
5.663773      	((-4.485937e-14 2.587140e-13 -1.122947e-12) (-2.994271e-12 1.309404e-13 3.992449e-12)) ((-9.113645e-17 -1.429572e-13 -3.170941e-17) (-5.157536e-14 -7.194111e-10 -5.711447e-14))
6.808528      	((-7.849722e-13 3.964439e-13 -2.668573e-13) (-2.970827e-12 4.884680e-14 3.863010e-12)) ((-9.792445e-17 -1.318458e-13 4.865541e-17) (-4.951176e-14 -6.689125e-10 -5.168289e-14))
8.182233      	((-1.114863e-12 -1.165370e-14 1.726285e-13) (-2.751926e-12 7.057351e-14 3.549185e-12)) ((-8.963018e-17 -1.210376e-13 3.420606e-17) (-4.347837e-14 -6.230670e-10 -4.739791e-14))
9.83068       	((-1.109494e-12 4.824249e-13 -2.559613e-13) (-2.377647e-12 1.075343e-13 2.715634e-12)) ((-6.106844e-17 -1.099500e-13 3.668473e-17) (-3.559566e-14 -5.810999e-10 -4.125260e-14))
11.808816     	((6.308198e-14 1.986215e-13 -1.069604e-12) (-1.860609e-12 -8.823202e-15 1.694018e-12)) ((-6.414093e-17 -9.996749e-14 6.719689e-17) (-2.870432e-14 -5.424725e-10 -3.122872e-14))
14.182579     	((2.579321e-13 1.895569e-13 -1.509688e-12) (-1.328737e-12 -2.508772e-13 1.149659e-12)) ((-4.483290e-17 -9.085677e-14 8.818631e-17) (-2.244400e-14 -5.068760e-10 -1.712237e-14))
17.031095     	((4.386320e-13 2.754714e-13 -1.221040e-12) (-8.987010e-13 -3.154963e-13 7.793436e-13)) ((-4.561141e-19 -8.302190e-14 1.029648e-16) (-1.552738e-14 -4.741498e-10 -7.955400e-15))
20.449314     	((4.363225e-13 1.018746e-13 -1.523451e-12) (-5.710410e-13 -2.105048e-13 4.707095e-13)) ((-8.952268e-19 -7.608561e-14 1.194117e-16) (-9.124399e-15 -4.441890e-10 -5.280660e-15))
24.551176     	((4.668411e-13 -6.431974e-14 -1.445564e-12) (-3.629129e-13 -1.133977e-13 4.004014e-13)) ((3.730940e-19 -6.990291e-14 1.244122e-16) (-4.907163e-15 -4.168118e-10 -4.084981e-15))
29.473411     	((3.889359e-13 2.058799e-14 -1.586017e-12) (-2.510006e-13 -5.533294e-14 4.910260e-13)) ((1.591210e-17 -6.473529e-14 1.147324e-16) (-3.246141e-15 -3.918263e-10 -3.225918e-15))
35.380094     	((6.246150e-13 9.508073e-16 -1.438768e-12) (-2.010759e-13 1.417994e-15 5.872140e-13)) ((1.521867e-17 -6.015021e-14 1.101366e-16) (-2.335497e-15 -3.690282e-10 -2.625529e-15))
42.468112     	((4.470251e-13 -2.277838e-14 -1.265232e-12) (-2.005962e-13 2.998509e-14 6.263804e-13)) ((9.045733e-18 -5.620997e-14 8.627991e-17) (-2.143277e-15 -3.482237e-10 -2.934661e-15))
50.973735     	((3.423223e-13 -3.732721e-14 -1.072682e-12) (-2.245519e-13 5.202727e-14 5.822417e-13)) ((3.235012e-18 -5.271024e-14 6.902663e-17) (-2.564816e-15 -3.292563e-10 -4.191316e-15))
61.180482     	((4.432764e-13 -4.188952e-14 -1.002428e-12) (-2.418076e-13 6.334790e-14 5.157206e-13)) ((8.705409e-18 -4.956314e-14 6.212246e-17) (-3.807467e-15 -3.119885e-10 -6.388363e-15))
73.428578     	((2.631288e-13 -4.525037e-14 -7.605841e-13) (-2.719287e-13 5.610759e-14 4.793125e-13)) ((1.604177e-17 -4.674862e-14 5.140836e-17) (-5.093099e-15 -2.963084e-10 -7.581940e-15))
88.126294     	((2.210536e-13 -1.891347e-15 -8.921719e-13) (-3.111868e-13 5.641761e-14 5.070177e-13)) ((1.987006e-17 -4.422178e-14 3.254575e-17) (-5.945485e-15 -2.820973e-10 -8.562881e-15))
105.763553    	((1.153153e-13 -3.770971e-16 -7.240297e-13) (-3.554112e-13 5.313747e-14 5.510967e-13)) ((2.776101e-17 -4.182278e-14 2.153163e-17) (-6.720136e-15 -2.692417e-10 -9.684585e-15))
126.928263    	((7.710375e-14 3.344797e-14 -6.430399e-13) (-3.941273e-13 5.329392e-14 5.427476e-13)) ((3.320346e-17 -3.964541e-14 1.548600e-17) (-6.682170e-15 -2.576219e-10 -1.031859e-14))
152.325916    	((4.144200e-14 3.738825e-14 -4.376721e-13) (-3.925853e-13 4.725240e-14 5.366613e-13)) ((2.992583e-17 -3.771518e-14 1.382944e-17) (-6.694635e-15 -2.471147e-10 -1.058486e-14))
182.803099    	((-3.376139e-14 4.263212e-14 -2.846596e-13) (-3.686636e-13 4.708899e-14 5.496034e-13)) ((2.511523e-17 -3.595638e-14 1.524675e-17) (-6.966627e-15 -2.375952e-10 -1.082669e-14))
219.375719    	((-4.007736e-14 1.850635e-14 -2.003615e-13) (-3.317373e-13 3.967371e-14 6.158720e-13)) ((2.651308e-17 -3.436884e-14 1.427631e-17) (-7.205585e-15 -2.289496e-10 -1.074601e-14))
263.262863    	((-4.807525e-14 2.250966e-14 -3.089389e-14) (-3.225238e-13 2.841052e-14 7.529452e-13)) ((2.558180e-17 -3.292449e-14 1.211856e-17) (-7.645165e-15 -2.210859e-10 -1.031964e-14))
315.927436    	((-9.724400e-14 1.907627e-14 3.307647e-14) (-3.209537e-13 1.477980e-14 8.676595e-13)) ((1.778610e-17 -3.161859e-14 8.000504e-18) (-8.232249e-15 -2.139293e-10 -1.015049e-14))
379.124923    	((-1.435422e-13 2.165202e-14 1.182733e-13) (-3.207866e-13 1.189437e-14 9.645210e-13)) ((1.258288e-17 -3.042653e-14 2.650101e-18) (-8.560771e-15 -2.074226e-10 -1.014581e-14))
454.961908    	((-6.828304e-14 1.516835e-14 1.786207e-13) (-3.188882e-13 9.642991e-15 1.032730e-12)) ((8.500507e-18 -2.933693e-14 -2.023324e-18) (-8.516956e-15 -2.015219e-10 -9.832221e-15))
545.966289    	((-5.904199e-14 2.544782e-15 1.459960e-13) (-3.223116e-13 1.178986e-14 1.078849e-12)) ((4.958608e-18 -2.833011e-14 -5.152908e-18) (-8.204684e-15 -1.961855e-10 -9.448756e-15))
655.171547    	((-1.000823e-13 1.477626e-14 1.387141e-13) (-3.257059e-13 7.082051e-15 1.093169e-12)) ((1.975013e-18 -2.742422e-14 -6.964925e-18) (-7.858580e-15 -1.913744e-10 -8.797278e-15))
786.217856    	((-1.260348e-13 2.636763e-14 1.269153e-13) (-3.200011e-13 6.422317e-15 1.088513e-12)) ((-3.036895e-19 -2.660491e-14 -8.062642e-18) (-7.398988e-15 -1.870564e-10 -8.317266e-15))
943.473427    	((-1.141020e-13 -4.412058e-16 4.739267e-14) (-3.111594e-13 1.116931e-14 1.063875e-12)) ((-2.643277e-19 -2.588358e-14 -6.141952e-18) (-7.030024e-15 -1.831995e-10 -7.966875e-15))
1132.180113   	((-1.113308e-13 -1.318536e-14 2.721378e-14) (-2.994500e-13 1.258177e-14 1.039400e-12)) ((-1.453252e-18 -2.525165e-14 -3.326349e-18) (-6.633509e-15 -1.797710e-10 -7.509418e-15))
1358.628135   	((-9.446333e-14 -1.478188e-14 5.782334e-15) (-2.878397e-13 1.136717e-14 1.008926e-12)) ((-2.689123e-18 -2.468866e-14 -1.349925e-18) (-6.294065e-15 -1.767402e-10 -7.028558e-15))
1630.365763   	((-1.249347e-13 -1.619460e-14 6.410613e-15) (-2.735698e-13 9.659282e-15 9.758237e-13)) ((-3.599436e-18 -2.418955e-14 1.496147e-18) (-5.913618e-15 -1.740760e-10 -6.536534e-15))
1956.450915   	((-1.341333e-13 -1.243813e-14 6.026086e-15) (-2.609716e-13 4.544246e-15 9.525488e-13)) ((-2.754192e-18 -2.375561e-14 5.085563e-18) (-5.583029e-15 -1.717480e-10 -6.088029e-15))
2347.753098   	((-1.120829e-13 -6.177539e-15 1.650237e-14) (-2.501290e-13 -3.801094e-15 9.390625e-13)) ((-2.921685e-18 -2.337914e-14 6.016691e-18) (-5.309554e-15 -1.697255e-10 -5.618811e-15))
2817.315718   	((-8.689679e-14 -4.911577e-15 2.232014e-14) (-2.407855e-13 -1.154959e-14 9.266430e-13)) ((-3.789096e-18 -2.305594e-14 4.673441e-18) (-5.049676e-15 -1.679791e-10 -5.151337e-15))
3380.790861   	((-7.500907e-14 -4.783533e-15 2.507677e-14) (-2.309080e-13 -1.685833e-14 9.173854e-13)) ((-3.750652e-18 -2.278362e-14 2.835350e-18) (-4.742377e-15 -1.664812e-10 -4.711192e-15))
4056.961033   	((-7.450272e-14 6.288604e-17 2.166935e-14) (-2.212219e-13 -2.140738e-14 9.123017e-13)) ((-3.581753e-18 -2.255181e-14 1.078304e-18) (-4.482091e-15 -1.652058e-10 -4.361416e-15))
4868.36524    	((-7.772347e-14 -8.735790e-16 1.149566e-14) (-2.125893e-13 -2.473405e-14 9.058001e-13)) ((-4.329510e-18 -2.235528e-14 1.957161e-19) (-4.282204e-15 -1.641275e-10 -4.104909e-15))
5842.050288   	((-8.991371e-14 6.853803e-15 2.838936e-14) (-2.021975e-13 -2.500034e-14 8.976154e-13)) ((-6.096590e-18 -2.218677e-14 1.945059e-19) (-4.100839e-15 -1.632223e-10 -3.949698e-15))
7010.472346   	((-1.149050e-13 2.179633e-14 7.859921e-14) (-1.868080e-13 -2.277055e-14 8.894061e-13)) ((-6.668794e-18 -2.204276e-14 6.471419e-19) (-3.964385e-15 -1.624677e-10 -3.871005e-15))
8412.578815   	((-1.192902e-13 2.877995e-14 9.511949e-14) (-1.742570e-13 -2.161530e-14 8.825559e-13)) ((-8.106547e-18 -2.192572e-14 1.888952e-18) (-3.791234e-15 -1.618436e-10 -3.702525e-15))
10095.106578  	((-1.280767e-13 3.428873e-14 1.099993e-13) (-1.646177e-13 -1.972280e-14 8.780944e-13)) ((-8.059767e-18 -2.183027e-14 3.101602e-18) (-3.665466e-15 -1.613308e-10 -3.587206e-15))
12114.139893  	((-1.330633e-13 4.656119e-14 1.145933e-13) (-1.561898e-13 -1.806013e-14 8.754973e-13)) ((-8.595493e-18 -2.175280e-14 3.971782e-18) (-3.563170e-15 -1.609121e-10 -3.491343e-15))
14536.979872  	((-1.402055e-13 6.034484e-14 1.186370e-13) (-1.496580e-13 -1.700230e-14 8.745941e-13)) ((-9.436851e-18 -2.168984e-14 4.376167e-18) (-3.494462e-15 -1.605722e-10 -3.406545e-15))
17444.387847  	((-1.480718e-13 7.504572e-14 1.264137e-13) (-1.442624e-13 -1.669120e-14 8.747325e-13)) ((-9.823522e-18 -2.163853e-14 4.763553e-18) (-3.448718e-15 -1.602979e-10 -3.313920e-15))
20933.277416  	((-1.551854e-13 9.096283e-14 1.404499e-13) (-1.397552e-13 -1.666667e-14 8.750712e-13)) ((-1.001487e-17 -2.159742e-14 5.159192e-18) (-3.415806e-15 -1.600774e-10 -3.227597e-15))
25119.944899  	((-1.630201e-13 1.082659e-13 1.596727e-13) (-1.360134e-13 -1.661639e-14 8.753601e-13)) ((-1.023554e-17 -2.156489e-14 5.399546e-18) (-3.386189e-15 -1.599010e-10 -3.151098e-15))
30143.945879  	((-1.726933e-13 1.266789e-13 1.832887e-13) (-1.329357e-13 -1.651776e-14 8.755885e-13)) ((-1.042347e-17 -2.153908e-14 5.579064e-18) (-3.364695e-15 -1.597603e-10 -3.080623e-15))
36172.747055  	((-1.838549e-13 1.433912e-13 2.115583e-13) (-1.304608e-13 -1.637243e-14 8.756679e-13)) ((-1.054458e-17 -2.151862e-14 5.665239e-18) (-3.360258e-15 -1.596485e-10 -3.019978e-15))
43407.308466  	((-1.963088e-13 1.592436e-13 2.453187e-13) (-1.283819e-13 -1.620885e-14 8.753240e-13)) ((-1.071971e-17 -2.150239e-14 5.681314e-18) (-3.369308e-15 -1.595599e-10 -2.971887e-15))
52088.782159  	((-2.072178e-13 1.800828e-13 2.884907e-13) (-1.263990e-13 -1.585345e-14 8.744474e-13)) ((-1.109418e-17 -2.148927e-14 5.264775e-18) (-3.403564e-15 -1.594898e-10 -2.942987e-15))
62388.613369  	((-2.237726e-13 1.983171e-13 3.375696e-13) (-1.245344e-13 -1.574935e-14 8.741016e-13)) ((-1.145767e-17 -2.147905e-14 4.478536e-18) (-3.421938e-15 -1.594345e-10 -2.955850e-15))
74306.809227  	((-2.421775e-13 2.155370e-13 3.955036e-13) (-1.241178e-13 -1.506032e-14 8.748924e-13)) ((-1.170701e-17 -2.147150e-14 4.513877e-18) (-3.415412e-15 -1.593910e-10 -2.927722e-15))
87843.375255  	((-2.589268e-13 2.348615e-13 4.602643e-13) (-1.242472e-13 -1.447589e-14 8.757483e-13)) ((-1.198208e-17 -2.146519e-14 4.684922e-18) (-3.407571e-15 -1.593568e-10 -2.900038e-15))
102998.31572  	((-2.751631e-13 2.546291e-13 5.309574e-13) (-1.245104e-13 -1.400773e-14 8.765891e-13)) ((-1.241922e-17 -2.145936e-14 4.754219e-18) (-3.402218e-15 -1.593300e-10 -2.875247e-15))
119182.093165 	((-2.863801e-13 2.738029e-13 6.134903e-13) (-1.247997e-13 -1.393942e-14 8.775781e-13)) ((-1.306523e-17 -2.145362e-14 4.657628e-18) (-3.392540e-15 -1.593090e-10 -2.845385e-15))
135365.896463 	((-2.930473e-13 2.436464e-13 7.008525e-13) (-1.262556e-13 -1.566365e-14 8.779911e-13)) ((-1.345935e-17 -2.144012e-14 5.466330e-18) (-3.413023e-15 -1.592927e-10 -2.786308e-15))
151549.719669 	((-3.137666e-13 2.791229e-13 7.788955e-13) (-1.295608e-13 -1.732959e-14 8.777697e-13)) ((-1.464285e-17 -2.142620e-14 1.506760e-18) (-3.376242e-15 -1.592801e-10 -2.719786e-15))
167733.557966 	((-3.030479e-13 2.599989e-13 8.843895e-13) (-1.279659e-13 -1.473604e-14 8.763472e-13)) ((-1.669423e-17 -2.141437e-14 5.014201e-18) (-3.253168e-15 -1.592704e-10 -2.546417e-15))
183917.407837 	((-2.672047e-13 2.987244e-13 1.033688e-12) (-1.255466e-13 -1.392336e-14 8.774710e-13)) ((-1.862618e-17 -2.141691e-14 2.345501e-18) (-3.144179e-15 -1.592627e-10 -2.654860e-15))
200101.266878 	((-1.766088e-13 2.745967e-13 1.213744e-12) (-1.258871e-13 -1.231841e-14 8.752371e-13)) ((-1.261904e-17 -2.138908e-14 6.526193e-18) (-3.151771e-15 -1.592569e-10 -2.623458e-15))
216285.134652 	((-1.417799e-13 2.253969e-13 1.370591e-12) (-1.259948e-13 -1.380571e-14 8.706814e-13)) ((-1.836634e-17 -2.136604e-14 5.980711e-18) (-3.277178e-15 -1.592528e-10 -2.717555e-15))
232469.011134 	((-1.075425e-13 2.405557e-13 1.512967e-12) (-1.253498e-13 -1.870694e-14 8.738450e-13)) ((-1.334958e-17 -2.134708e-14 8.116913e-18) (-3.179245e-15 -1.592496e-10 -2.738308e-15))
248652.895165 	((-2.989660e-14 2.370645e-13 1.596864e-12) (-1.215913e-13 -1.796166e-14 8.830715e-13)) ((-1.214081e-17 -2.133515e-14 9.632845e-18) (-3.119749e-15 -1.592463e-10 -2.617081e-15))
264836.787101 	((1.775362e-15 2.067571e-13 1.654970e-12) (-1.196975e-13 -2.145234e-14 8.849230e-13)) ((-1.067168e-17 -2.132679e-14 9.483517e-18) (-3.222570e-15 -1.592426e-10 -2.586031e-15))
281020.685935 	((1.962192e-13 2.142101e-13 1.706477e-12) (-1.093140e-13 -2.469296e-14 8.901005e-13)) ((-6.830906e-18 -2.130904e-14 1.193334e-17) (-3.076697e-15 -1.592390e-10 -2.685319e-15))
297204.591142 	((4.082701e-13 2.137896e-13 1.710500e-12) (-1.022381e-13 -2.747584e-14 8.919295e-13)) ((-9.380223e-19 -2.129352e-14 9.599999e-18) (-3.141382e-15 -1.592355e-10 -2.668916e-15))
313388.502632 	((6.505943e-13 2.160081e-13 1.645450e-12) (-8.917564e-14 -2.933835e-14 8.867801e-13)) ((3.252185e-19 -2.128401e-14 8.900662e-18) (-3.170779e-15 -1.592319e-10 -2.660736e-15))
329572.420006 	((8.843659e-13 1.790486e-13 1.520238e-12) (-7.652562e-14 -2.764684e-14 8.780464e-13)) ((-3.020650e-18 -2.127938e-14 8.525832e-18) (-3.062666e-15 -1.592283e-10 -2.697537e-15))
345756.342387 	((1.085016e-12 1.359163e-13 1.340795e-12) (-6.766547e-14 -2.674253e-14 8.701183e-13)) ((-3.762957e-18 -2.127307e-14 7.456594e-18) (-2.988130e-15 -1.592246e-10 -2.790254e-15))
361940.268825 	((1.185554e-12 8.550087e-14 1.144928e-12) (-6.320897e-14 -2.554885e-14 8.646094e-13)) ((-4.662643e-18 -2.127024e-14 5.992918e-18) (-2.979866e-15 -1.592207e-10 -2.849040e-15))
378124.198519 	((1.187974e-12 3.357858e-14 9.431221e-13) (-6.207845e-14 -2.536825e-14 8.617086e-13)) ((-5.630620e-18 -2.126591e-14 4.858734e-18) (-2.893233e-15 -1.592168e-10 -2.906015e-15))
