# Forces      
# CofR        : (0.000000e+00 0.000000e+00 0.000000e+00)
# Time        forces(pressure viscous)	moments(pressure viscous)
0             	((0.000000e+00 0.000000e+00 0.000000e+00) (-8.663531e-15 -3.969182e-15 1.265206e-04)) ((0.000000e+00 0.000000e+00 0.000000e+00) (2.231121e-16 4.891648e-11 3.120870e-18))
0.012         	((-6.430160e-09 -2.206920e-08 3.677451e-02) (-1.044102e-10 -1.191974e-10 1.451550e-04)) ((1.531734e-11 9.746055e-09 1.349709e-13) (-7.942691e-13 1.426149e-10 9.894754e-15))
0.0264        	((-6.302963e-08 1.127448e-07 -2.624534e-03) (-2.293906e-10 -7.678996e-11 1.480219e-04)) ((-1.962469e-11 -6.203739e-10 1.448142e-12) (-8.269453e-13 1.891735e-10 2.790504e-13))
0.04368       	((1.484225e-07 -7.748033e-08 -7.648881e-03) (-3.670031e-10 1.753389e-11 1.314741e-04)) ((-8.234664e-11 -1.729956e-09 -2.634494e-12) (2.360650e-12 1.931245e-10 2.486188e-13))
0.064416      	((-1.185613e-07 1.085377e-07 -7.249508e-05) (5.105636e-10 1.627499e-09 1.164411e-04)) ((2.689857e-11 3.725029e-11 1.353460e-12) (-1.127308e-11 2.362596e-10 5.565862e-13))
0.0892992     	((1.109634e-07 -8.135051e-09 9.222955e-05) (9.978342e-10 2.553049e-09 1.074863e-04)) ((8.843353e-12 -5.945090e-11 -5.956042e-13) (-8.055271e-12 2.924741e-10 1.789012e-12))
0.119159      	((1.305557e-08 5.319117e-08 -1.188280e-04) (1.153025e-09 2.107629e-09 9.923678e-05)) ((4.804562e-12 -6.952744e-11 1.336143e-12) (8.348666e-12 3.267194e-10 1.455396e-12))
0.154991      	((-3.957272e-09 7.306279e-09 -6.320274e-05) (1.014868e-09 1.673785e-09 9.053298e-05)) ((-2.352088e-12 -4.555334e-11 -1.244197e-12) (1.965648e-12 3.234696e-10 2.651135e-12))
0.197989      	((-3.559634e-08 -3.355149e-09 -1.523976e-05) (8.818055e-10 1.131861e-09 8.179119e-05)) ((1.855352e-12 -1.470530e-11 -2.637980e-13) (-5.725770e-12 2.818864e-10 4.034866e-12))
0.249587      	((5.406660e-09 5.876258e-09 2.116045e-06) (8.782041e-10 7.603094e-10 7.326273e-05)) ((1.786738e-12 -7.831246e-12 2.478904e-14) (-8.119827e-12 2.554272e-10 6.052485e-12))
0.311504      	((9.685600e-09 3.862242e-09 9.866526e-06) (5.578943e-10 4.263377e-10 6.520750e-05)) ((2.680495e-13 1.573606e-12 6.747628e-14) (-1.305369e-11 2.506035e-10 9.385302e-12))
0.385805      	((-4.367236e-09 -3.291918e-09 1.375184e-05) (3.381771e-10 1.625039e-10 5.783585e-05)) ((-2.575223e-13 6.921125e-12 3.722283e-14) (-1.278345e-11 2.235445e-10 1.157638e-11))
0.474966      	((-5.192018e-09 -2.000381e-09 1.580068e-05) (1.027689e-10 2.252016e-11 5.126558e-05)) ((-1.535389e-14 9.067082e-12 -3.604249e-14) (-9.525267e-12 1.735458e-10 1.218548e-11))
0.581959      	((-4.168171e-09 -2.935991e-09 1.665858e-05) (-1.052469e-10 -4.825008e-11 4.549461e-05)) ((-1.056962e-14 1.014842e-11 1.770730e-14) (-6.041987e-12 1.301785e-10 1.063207e-11))
0.710351      	((-3.522302e-09 -2.017401e-09 1.663642e-05) (-2.333280e-10 -3.413748e-11 4.048168e-05)) ((-5.708689e-14 1.152661e-11 2.427243e-14) (-1.569891e-12 9.177731e-11 8.149683e-12))
0.864421      	((-2.855436e-09 -2.099634e-09 1.604613e-05) (-2.288234e-10 -1.688210e-11 3.616437e-05)) ((-8.289045e-14 1.231357e-11 2.103135e-14) (9.172179e-13 6.373357e-11 5.761478e-12))
1.049306      	((-8.266082e-10 -1.196660e-09 1.516947e-05) (-6.084633e-11 -1.035892e-11 3.245339e-05)) ((-6.582469e-14 1.233481e-11 2.891192e-14) (9.157330e-13 5.633029e-11 3.888658e-12))
1.271167      	((2.314210e-12 -1.258187e-09 1.416508e-05) (1.174103e-10 4.753515e-13 2.925158e-05)) ((-4.673979e-14 1.163123e-11 1.634105e-14) (1.005218e-12 6.503875e-11 2.736851e-12))
1.5374        	((-2.786255e-10 -7.039094e-10 1.310939e-05) (2.609914e-10 4.832755e-12 2.646248e-05)) ((-6.127205e-15 1.080673e-11 2.026902e-14) (1.610331e-12 7.694804e-11 2.056283e-12))
1.85688       	((-7.474107e-10 -6.920501e-10 1.207183e-05) (2.131972e-10 -1.013085e-11 2.400489e-05)) ((4.258226e-15 1.022211e-11 1.899098e-14) (1.619580e-12 7.320988e-11 1.472296e-12))
2.240256      	((-4.909137e-10 -4.360552e-10 1.109843e-05) (-4.542057e-11 -3.098884e-11 2.182245e-05)) ((2.275533e-14 9.707196e-12 1.089255e-14) (1.306255e-12 6.053606e-11 1.020418e-12))
2.700307      	((-1.003523e-09 -5.137507e-10 1.019743e-05) (-3.146906e-10 -5.776897e-11 1.987541e-05)) ((4.068602e-14 9.257100e-12 1.367344e-14) (1.841718e-12 5.646672e-11 7.031290e-13))
3.252369      	((-1.238273e-09 -6.553506e-10 9.366521e-06) (-4.029297e-10 -8.816892e-11 1.813300e-05)) ((6.491523e-14 8.732626e-12 1.040822e-14) (2.584574e-12 5.681182e-11 3.756655e-13))
3.914842      	((-1.552448e-09 -1.110811e-09 8.604061e-06) (-3.080679e-10 -1.297768e-10 1.657074e-05)) ((8.981899e-14 8.172073e-12 1.451410e-14) (2.705195e-12 5.785177e-11 2.685397e-13))
4.709811      	((-2.369873e-09 -1.453746e-09 7.914536e-06) (-2.400499e-10 -1.703720e-10 1.516955e-05)) ((9.930357e-14 7.662452e-12 1.455288e-14) (3.343779e-12 6.161062e-11 2.498945e-13))
5.663773      	((-2.800604e-09 -1.760108e-09 7.301226e-06) (-1.988335e-10 -1.812642e-10 1.391538e-05)) ((9.657358e-14 7.191681e-12 1.465546e-14) (4.941377e-12 5.745655e-11 1.892142e-13))
6.808528      	((-2.259101e-09 -1.466819e-09 6.759558e-06) (-1.668944e-10 -1.535455e-10 1.279538e-05)) ((7.776785e-14 6.727142e-12 1.614809e-14) (6.089200e-12 5.059486e-11 7.775515e-14))
8.182233      	((-2.459947e-09 -1.736618e-09 6.286779e-06) (-1.691553e-10 -1.332584e-10 1.179619e-05)) ((5.867639e-14 6.220434e-12 1.553985e-14) (6.360953e-12 5.397313e-11 -7.406829e-14))
9.83068       	((-2.963981e-09 -2.095130e-09 5.884429e-06) (-1.649628e-10 -1.443360e-10 1.090444e-05)) ((4.892504e-14 5.772134e-12 1.523802e-14) (7.438607e-12 6.292605e-11 -2.286483e-13))
11.808816     	((-3.051872e-09 -2.496494e-09 5.549579e-06) (-1.279249e-10 -1.803913e-10 1.010751e-05)) ((4.920350e-14 5.352207e-12 1.742181e-14) (9.521941e-12 6.883446e-11 -4.175840e-13))
14.182579     	((-3.490843e-09 -2.828396e-09 5.279889e-06) (-1.495469e-10 -2.452707e-10 9.394626e-06)) ((5.139775e-14 4.962285e-12 2.117409e-14) (1.458760e-11 6.501957e-11 -5.266500e-13))
17.031095     	((-3.184056e-09 -2.562708e-09 5.073543e-06) (-2.456754e-10 -3.097726e-10 8.758010e-06)) ((5.555672e-14 4.612961e-12 2.156163e-14) (2.234271e-11 4.953716e-11 -5.624243e-13))
20.449314     	((-2.934577e-09 -2.273155e-09 4.930011e-06) (-3.528541e-10 -3.548567e-10 8.191922e-06)) ((4.950026e-14 4.337045e-12 2.120514e-14) (3.082619e-11 2.843844e-11 -7.246805e-13))
24.551176     	((-2.481003e-09 -2.140658e-09 4.848701e-06) (-4.285720e-10 -3.843271e-10 7.691981e-06)) ((4.433384e-14 4.087434e-12 2.191805e-14) (3.756772e-11 9.726713e-12 -8.923206e-13))
29.473411     	((-1.948118e-09 -1.555657e-09 4.823612e-06) (-4.664880e-10 -3.868817e-10 7.254711e-06)) ((4.707980e-14 3.878907e-12 2.288678e-14) (4.176003e-11 -6.557051e-12 -9.908311e-13))
35.380094     	((-8.096947e-10 -6.522089e-10 4.851718e-06) (-4.928844e-10 -3.540700e-10 6.876781e-06)) ((3.626153e-14 3.718262e-12 2.563486e-14) (4.613006e-11 -1.844591e-11 -1.148841e-12))
42.468112     	((5.060084e-10 7.380358e-10 4.929935e-06) (-4.210374e-10 -2.787498e-10 6.554805e-06)) ((3.344389e-14 3.569126e-12 2.795115e-14) (5.111857e-11 -2.691477e-11 -1.202134e-12))
50.973735     	((2.028970e-09 2.324222e-09 5.047056e-06) (-2.641433e-10 -1.540737e-10 6.286349e-06)) ((2.552136e-14 3.445859e-12 2.800978e-14) (5.555872e-11 -3.426024e-11 -1.048303e-12))
61.180482     	((3.002250e-09 3.505475e-09 5.189474e-06) (-7.624245e-11 -1.376652e-11 6.066943e-06)) ((7.267238e-15 3.371603e-12 2.778963e-14) (5.895224e-11 -4.069972e-11 -8.129269e-13))
73.253805     	((4.739880e-09 5.245129e-09 5.343974e-06) (1.638856e-10 1.858647e-10 5.893545e-06)) ((-2.049619e-14 3.311347e-12 2.583928e-14) (6.095640e-11 -4.756569e-11 -5.793020e-13))
87.179579     	((6.264815e-09 6.739297e-09 5.488973e-06) (3.962872e-10 4.291516e-10 5.759859e-06)) ((-3.804970e-14 3.292191e-12 2.560149e-14) (6.322246e-11 -5.344761e-11 -3.700281e-13))
102.94449     	((7.433792e-09 8.050910e-09 5.605671e-06) (6.497399e-10 6.841843e-10 5.654782e-06)) ((-4.785989e-14 3.285495e-12 2.520064e-14) (6.514021e-11 -5.913592e-11 -2.822773e-13))
120.542562    	((8.584549e-09 9.292878e-09 5.685971e-06) (9.200488e-10 9.614099e-10 5.568932e-06)) ((-5.503449e-14 3.281381e-12 2.501217e-14) (6.610179e-11 -6.448673e-11 -2.479715e-13))
138.90097     	((9.670123e-09 1.043888e-08 5.739447e-06) (1.237869e-09 1.269152e-09 5.497664e-06)) ((-6.434929e-14 3.275654e-12 2.331297e-14) (6.490112e-11 -7.005585e-11 -4.307255e-14))
157.319927    	((1.027543e-08 1.113165e-08 5.769346e-06) (1.567180e-09 1.589677e-09 5.437661e-06)) ((-7.012871e-14 3.257621e-12 2.447578e-14) (6.245965e-11 -7.365880e-11 1.684792e-13))
175.780553    	((1.062499e-08 1.151747e-08 5.782606e-06) (1.860384e-09 1.880374e-09 5.386142e-06)) ((-7.648718e-14 3.234220e-12 2.538780e-14) (5.929471e-11 -7.515699e-11 9.748828e-14))
194.257698    	((1.062536e-08 1.151084e-08 5.787827e-06) (2.101457e-09 2.120455e-09 5.341864e-06)) ((-8.055391e-14 3.210198e-12 2.545667e-14) (5.498850e-11 -7.420129e-11 4.883727e-14))
212.742837    	((1.046169e-08 1.138368e-08 5.787215e-06) (2.292498e-09 2.312496e-09 5.303753e-06)) ((-8.429997e-14 3.190214e-12 2.543930e-14) (5.023166e-11 -7.148340e-11 9.548366e-14))
231.237645    	((1.014153e-08 1.107123e-08 5.783431e-06) (2.433522e-09 2.451026e-09 5.270753e-06)) ((-8.457268e-14 3.170534e-12 2.485541e-14) (4.509938e-11 -6.843654e-11 1.392453e-13))
249.743183    	((9.713888e-09 1.066766e-08 5.778304e-06) (2.520572e-09 2.537945e-09 5.242129e-06)) ((-8.473850e-14 3.152887e-12 2.453077e-14) (3.987053e-11 -6.527757e-11 1.133651e-13))
268.258323    	((9.159230e-09 1.009830e-08 5.772382e-06) (2.559110e-09 2.575790e-09 5.217244e-06)) ((-8.168166e-14 3.135735e-12 2.487646e-14) (3.473751e-11 -6.185807e-11 8.696699e-14))
286.781735    	((8.571617e-09 9.466772e-09 5.766578e-06) (2.559450e-09 2.572723e-09 5.195571e-06)) ((-7.937211e-14 3.120066e-12 2.498174e-14) (2.972916e-11 -5.844598e-11 8.796145e-14))
305.31251     	((8.023819e-09 8.866607e-09 5.760722e-06) (2.535356e-09 2.543905e-09 5.176654e-06)) ((-7.841183e-14 3.106745e-12 2.542693e-14) (2.489165e-11 -5.505290e-11 1.033158e-13))
323.849848    	((7.486362e-09 8.248989e-09 5.754688e-06) (2.491854e-09 2.493637e-09 5.160103e-06)) ((-7.679057e-14 3.093468e-12 2.635420e-14) (2.027642e-11 -5.180020e-11 1.264455e-13))
342.392997    	((6.894397e-09 7.606429e-09 5.748813e-06) (2.433072e-09 2.426574e-09 5.145573e-06)) ((-7.432946e-14 3.079967e-12 2.689968e-14) (1.588633e-11 -4.858750e-11 1.381916e-13))
360.941301    	((6.450191e-09 7.083727e-09 5.743343e-06) (2.367769e-09 2.351265e-09 5.132789e-06)) ((-7.306159e-14 3.068802e-12 2.719086e-14) (1.187102e-11 -4.556714e-11 1.876646e-13))
379.494211    	((5.909517e-09 6.489835e-09 5.738071e-06) (2.289705e-09 2.265952e-09 5.121512e-06)) ((-7.037363e-14 3.056068e-12 2.760764e-14) (8.295593e-12 -4.294527e-11 2.614214e-13))
398.051236    	((5.403373e-09 5.896100e-09 5.733334e-06) (2.203711e-09 2.171229e-09 5.111558e-06)) ((-6.694870e-14 3.044320e-12 2.791889e-14) (5.079584e-12 -4.066518e-11 3.238367e-13))
416.611931    	((4.922487e-09 5.375033e-09 5.728848e-06) (2.111288e-09 2.074130e-09 5.102749e-06)) ((-6.469413e-14 3.033913e-12 2.789395e-14) (2.173826e-12 -3.868662e-11 3.560833e-13))
435.175908    	((4.479614e-09 4.855595e-09 5.724610e-06) (2.017208e-09 1.975035e-09 5.094924e-06)) ((-6.159182e-14 3.024426e-12 2.767659e-14) (-4.134382e-13 -3.696548e-11 3.822079e-13))
453.742824    	((4.038976e-09 4.348699e-09 5.720881e-06) (1.922790e-09 1.873088e-09 5.087980e-06)) ((-5.857987e-14 3.015825e-12 2.755694e-14) (-2.684510e-12 -3.542165e-11 4.075538e-13))
472.312373    	((3.635464e-09 3.885687e-09 5.717419e-06) (1.830235e-09 1.772431e-09 5.081807e-06)) ((-5.585249e-14 3.007988e-12 2.758912e-14) (-4.739925e-12 -3.395484e-11 4.477287e-13))
490.88428     	((3.261002e-09 3.445232e-09 5.714241e-06) (1.742113e-09 1.674747e-09 5.076310e-06)) ((-5.299451e-14 3.000634e-12 2.745382e-14) (-6.597392e-12 -3.257480e-11 4.890132e-13))
509.458304    	((2.902487e-09 3.019498e-09 5.711300e-06) (1.657146e-09 1.579402e-09 5.071407e-06)) ((-5.018657e-14 2.993784e-12 2.745037e-14) (-8.272559e-12 -3.133304e-11 5.283119e-13))
528.034226    	((2.578786e-09 2.623105e-09 5.708616e-06) (1.576793e-09 1.487082e-09 5.067030e-06)) ((-4.739965e-14 2.987734e-12 2.747639e-14) (-9.782478e-12 -3.022433e-11 5.759191e-13))
546.611855    	((2.273396e-09 2.251134e-09 5.706159e-06) (1.501849e-09 1.398497e-09 5.063118e-06)) ((-4.486553e-14 2.982219e-12 2.741395e-14) (-1.116913e-11 -2.921659e-11 6.184606e-13))
565.191024    	((1.994410e-09 1.905842e-09 5.703920e-06) (1.432437e-09 1.314713e-09 5.059618e-06)) ((-4.272896e-14 2.977435e-12 2.735435e-14) (-1.248744e-11 -2.826835e-11 6.588534e-13))
583.771583    	((1.732170e-09 1.594926e-09 5.701842e-06) (1.368460e-09 1.236898e-09 5.056481e-06)) ((-4.083324e-14 2.973009e-12 2.727977e-14) (-1.375460e-11 -2.737040e-11 6.939935e-13))
602.353395    	((1.476058e-09 1.281825e-09 5.699950e-06) (1.308113e-09 1.162691e-09 5.053667e-06)) ((-3.867133e-14 2.968706e-12 2.722720e-14) (-1.494811e-11 -2.652862e-11 7.199559e-13))
620.936334    	((1.236556e-09 1.001392e-09 5.698219e-06) (1.251082e-09 1.092842e-09 5.051140e-06)) ((-3.694069e-14 2.964929e-12 2.722170e-14) (-1.606359e-11 -2.573148e-11 7.427189e-13))
639.520291    	((1.011484e-09 7.403532e-10 5.696659e-06) (1.197408e-09 1.027474e-09 5.048872e-06)) ((-3.535088e-14 2.961517e-12 2.723812e-14) (-1.710419e-11 -2.496804e-11 7.629869e-13))
658.105163    	((7.989225e-10 4.982916e-10 5.695230e-06) (1.146849e-09 9.665578e-10 5.046833e-06)) ((-3.385262e-14 2.958348e-12 2.725648e-14) (-1.807297e-11 -2.423214e-11 7.806824e-13))
676.690863    	((5.946444e-10 2.671615e-10 5.693934e-06) (1.098854e-09 9.093739e-10 5.044999e-06)) ((-3.238241e-14 2.955355e-12 2.729735e-14) (-1.898315e-11 -2.352169e-11 7.964922e-13))
695.277308    	((4.017382e-10 5.420175e-11 5.692752e-06) (1.053459e-09 8.558857e-10 5.043348e-06)) ((-3.101873e-14 2.952559e-12 2.732082e-14) (-1.983790e-11 -2.283686e-11 8.104976e-13))
713.864425    	((2.146947e-10 -1.493378e-10 5.691682e-06) (1.010119e-09 8.056182e-10 5.041862e-06)) ((-2.965708e-14 2.949869e-12 2.735980e-14) (-2.063464e-11 -2.218586e-11 8.227342e-13))
732.452149    	((4.303760e-11 -3.334124e-10 5.690694e-06) (9.690952e-10 7.587812e-10 5.040522e-06)) ((-2.846047e-14 2.947472e-12 2.739831e-14) (-2.137631e-11 -2.157105e-11 8.331619e-13))
751.040421    	((-1.297905e-10 -5.150169e-10 5.689796e-06) (9.294249e-10 7.144372e-10 5.039313e-06)) ((-2.718797e-14 2.945128e-12 2.742126e-14) (-2.207080e-11 -2.098911e-11 8.417032e-13))
769.629187    	((-2.879953e-10 -6.778866e-10 5.688994e-06) (8.915823e-10 6.729989e-10 5.038223e-06)) ((-2.607822e-14 2.943049e-12 2.745465e-14) (-2.272636e-11 -2.043735e-11 8.485723e-13))
788.218399    	((-4.403949e-10 -8.358429e-10 5.688255e-06) (8.556164e-10 6.341620e-10 5.037239e-06)) ((-2.501407e-14 2.941147e-12 2.749418e-14) (-2.334613e-11 -1.990970e-11 8.539235e-13))
806.808015    	((-5.821740e-10 -9.809191e-10 5.687584e-06) (8.214700e-10 5.977785e-10 5.036351e-06)) ((-2.404122e-14 2.939415e-12 2.750939e-14) (-2.393153e-11 -1.940558e-11 8.583329e-13))
825.397995    	((-7.183649e-10 -1.117970e-09 5.686980e-06) (7.888365e-10 5.635624e-10 5.035549e-06)) ((-2.313722e-14 2.937820e-12 2.753588e-14) (-2.447746e-11 -1.892829e-11 8.624155e-13))
843.988304    	((-8.469254e-10 -1.248199e-09 5.686422e-06) (7.577540e-10 5.313248e-10 5.034824e-06)) ((-2.230621e-14 2.936362e-12 2.754467e-14) (-2.499052e-11 -1.847388e-11 8.661948e-13))
862.57891     	((-9.660361e-10 -1.370356e-09 5.685919e-06) (7.283955e-10 5.010177e-10 5.034169e-06)) ((-2.155599e-14 2.935049e-12 2.756396e-14) (-2.547312e-11 -1.804385e-11 8.693220e-13))
881.169786    	((-1.078385e-09 -1.484857e-09 5.685459e-06) (7.005844e-10 4.724790e-10 5.033576e-06)) ((-2.084050e-14 2.933841e-12 2.757081e-14) (-2.592489e-11 -1.763991e-11 8.717962e-13))
899.760904    	((-1.182672e-09 -1.591055e-09 5.685047e-06) (6.743061e-10 4.455987e-10 5.033041e-06)) ((-2.020329e-14 2.932741e-12 2.758569e-14) (-2.634786e-11 -1.726202e-11 8.737364e-13))
918.352242    	((-1.281772e-09 -1.693606e-09 5.684666e-06) (6.494820e-10 4.202141e-10 5.032556e-06)) ((-1.960625e-14 2.931720e-12 2.760505e-14) (-2.674349e-11 -1.690732e-11 8.754933e-13))
936.94378     	((-1.372018e-09 -1.786717e-09 5.684325e-06) (6.262418e-10 3.964581e-10 5.032118e-06)) ((-1.907792e-14 2.930802e-12 2.761879e-14) (-2.711144e-11 -1.657530e-11 8.770213e-13))
955.535498    	((-1.457098e-09 -1.875368e-09 5.684013e-06) (6.045119e-10 3.741007e-10 5.031721e-06)) ((-1.857578e-14 2.929938e-12 2.763817e-14) (-2.745440e-11 -1.626216e-11 8.782707e-13))
974.12738     	((-1.535474e-09 -1.955957e-09 5.683732e-06) (5.842078e-10 3.531230e-10 5.031362e-06)) ((-1.811082e-14 2.929150e-12 2.765362e-14) (-2.777537e-11 -1.596740e-11 8.791516e-13))
992.71941     	((-1.609442e-09 -2.035166e-09 5.683471e-06) (5.652593e-10 3.333994e-10 5.031037e-06)) ((-1.768764e-14 2.928430e-12 2.766959e-14) (-2.807612e-11 -1.569239e-11 8.798250e-13))
1011.311574   	((-1.677371e-09 -2.106505e-09 5.683239e-06) (5.476254e-10 3.150495e-10 5.030743e-06)) ((-1.729024e-14 2.927767e-12 2.768436e-14) (-2.835777e-11 -1.543598e-11 8.803529e-13))
1029.90386    	((-1.741039e-09 -2.174683e-09 5.683026e-06) (5.311853e-10 2.978381e-10 5.030477e-06)) ((-1.691842e-14 2.927154e-12 2.769477e-14) (-2.862125e-11 -1.519701e-11 8.807640e-13))
1048.496256   	((-1.799475e-09 -2.236064e-09 5.682835e-06) (5.159028e-10 2.818104e-10 5.030235e-06)) ((-1.657348e-14 2.926590e-12 2.770316e-14) (-2.886987e-11 -1.497441e-11 8.811899e-13))
1067.088753   	((-1.854093e-09 -2.295178e-09 5.682659e-06) (5.016969e-10 2.667997e-10 5.030016e-06)) ((-1.625050e-14 2.926061e-12 2.771435e-14) (-2.910241e-11 -1.476735e-11 8.814191e-13))
1085.68134    	((-1.904985e-09 -2.349491e-09 5.682501e-06) (4.884861e-10 2.528405e-10 5.029818e-06)) ((-1.596433e-14 2.925586e-12 2.772741e-14) (-2.931897e-11 -1.457394e-11 8.815157e-13))
1104.27401    	((-1.952232e-09 -2.400053e-09 5.682356e-06) (4.761998e-10 2.397732e-10 5.029639e-06)) ((-1.567876e-14 2.925135e-12 2.773604e-14) (-2.952093e-11 -1.439332e-11 8.815572e-13))
1122.866754   	((-1.996421e-09 -2.446955e-09 5.682227e-06) (4.647614e-10 2.275666e-10 5.029476e-06)) ((-1.541787e-14 2.924727e-12 2.774420e-14) (-2.970902e-11 -1.422429e-11 8.816816e-13))
1141.459567   	((-2.037189e-09 -2.489500e-09 5.682108e-06) (4.541301e-10 2.162128e-10 5.029328e-06)) ((-1.516585e-14 2.924346e-12 2.774888e-14) (-2.988462e-11 -1.406548e-11 8.819273e-13))
