# Forces      
# CofR        : (0.000000e+00 0.000000e+00 0.000000e+00)
# Time        forces(pressure viscous)	moments(pressure viscous)
0             	((0.000000e+00 0.000000e+00 0.000000e+00) (0.000000e+00 0.000000e+00 0.000000e+00)) ((0.000000e+00 0.000000e+00 0.000000e+00) (0.000000e+00 0.000000e+00 0.000000e+00))
0.012         	((3.706562e-10 -5.731887e-10 -1.367000e-07) (5.083864e-12 -3.008684e-12 -2.882772e-09)) ((6.158502e-14 -5.334832e-09 2.588682e-15) (-2.628906e-14 -3.509815e-06 2.094884e-13))
0.0264        	((-6.467197e-10 5.782277e-10 5.133368e-08) (2.723162e-12 -8.560168e-12 -5.011853e-09)) ((1.356742e-14 -2.691780e-09 -2.586483e-13) (-1.231495e-13 -3.214853e-06 2.972070e-13))
0.04368       	((-2.979704e-09 -3.284660e-09 -4.772331e-08) (-6.828692e-12 -6.977972e-12 -5.465761e-09)) ((-5.112469e-14 -1.511512e-09 -1.687843e-13) (2.091132e-13 -2.912151e-06 4.670223e-13))
0.064416      	((1.356936e-09 7.885543e-10 -1.461836e-09) (-6.473294e-11 4.294293e-12 -4.490924e-09)) ((-1.393160e-14 -8.891059e-10 2.294406e-15) (7.568695e-13 -2.608666e-06 6.665726e-13))
0.0892992     	((-8.308378e-10 -9.602250e-10 -3.941977e-09) (-1.672124e-10 1.298593e-11 -3.628038e-09)) ((1.511395e-15 -6.802727e-10 -4.211496e-15) (1.194409e-12 -2.313597e-06 8.173552e-13))
0.119159      	((2.599993e-09 3.623158e-10 -1.140803e-09) (-1.948240e-10 2.224440e-11 -3.049070e-09)) ((-1.240398e-14 -5.068289e-10 7.417342e-16) (1.638337e-12 -2.036263e-06 9.349481e-13))
0.154991      	((-8.270130e-11 9.320160e-10 3.722569e-09) (-1.779124e-10 4.142431e-11 -2.493477e-09)) ((2.239672e-14 -4.137269e-10 -2.558585e-14) (1.993566e-12 -1.783224e-06 8.765392e-13))
0.197989      	((-1.209528e-09 3.861535e-10 -4.611067e-10) (-1.395808e-10 5.647001e-11 -2.047163e-09)) ((7.440686e-15 -3.359430e-10 -4.663597e-15) (2.040536e-12 -1.559299e-06 8.089156e-13))
0.249587      	((-1.429454e-09 5.677951e-10 2.522606e-09) (-5.073866e-11 6.384318e-11 -1.748555e-09)) ((3.237181e-15 -2.811423e-10 -2.389474e-15) (2.121455e-12 -1.366539e-06 6.643116e-13))
0.311504      	((-1.706323e-09 -1.655918e-10 -8.424141e-10) (-3.866957e-11 6.555019e-11 -1.562452e-09)) ((-9.176236e-15 -2.392228e-10 1.876801e-14) (2.198451e-12 -1.204111e-06 3.682547e-13))
0.385805      	((-7.626352e-10 3.692259e-11 2.004373e-11) (-9.529556e-11 6.266374e-11 -1.431336e-09)) ((1.381103e-14 -2.104627e-10 3.040660e-14) (2.042545e-12 -1.068499e-06 2.659138e-13))
0.474966      	((-2.164792e-11 6.532382e-11 1.003426e-10) (-7.411245e-11 6.105453e-11 -1.202335e-09)) ((-1.932293e-15 -1.903160e-10 2.787771e-14) (1.825653e-12 -9.546549e-07 2.310163e-13))
0.581959      	((3.203188e-10 1.591827e-10 -6.144704e-11) (2.651779e-11 6.430064e-11 -8.526063e-10)) ((-1.156243e-14 -1.711941e-10 1.699733e-14) (1.779351e-12 -8.578404e-07 1.499175e-13))
0.710351      	((1.266190e-09 1.310214e-10 -1.708437e-09) (5.142848e-11 6.309358e-11 -5.527276e-10)) ((-1.636372e-14 -1.532183e-10 1.262735e-14) (1.683309e-12 -7.742425e-07 1.126872e-13))
0.864421      	((2.648401e-09 9.294329e-11 -1.213731e-09) (1.141606e-10 3.793774e-11 -2.078356e-10)) ((-2.647785e-15 -1.408004e-10 -9.171157e-15) (1.203656e-12 -7.010152e-07 1.912130e-13))
1.049306      	((3.598052e-09 -2.117444e-10 -7.743163e-10) (2.432217e-10 4.650535e-13 5.721218e-11)) ((2.113702e-14 -1.323174e-10 -1.664542e-14) (6.285718e-13 -6.361021e-07 3.137497e-13))
1.271167      	((2.272226e-09 9.958453e-11 -9.820851e-10) (2.069658e-10 -2.277694e-11 3.305536e-10)) ((-1.230841e-14 -1.242993e-10 -1.628536e-14) (3.147122e-13 -5.780377e-07 -3.148980e-13))
1.5374        	((2.543090e-09 -2.475656e-10 -1.972080e-09) (-3.890341e-11 -3.848754e-11 5.233931e-10)) ((-4.547299e-14 -1.148846e-10 -5.546191e-14) (-8.538625e-15 -5.258603e-07 -1.520089e-12))
1.85688       	((1.512958e-09 6.257633e-10 -2.634090e-09) (-2.330857e-10 -2.910117e-11 5.359189e-10)) ((-3.392840e-14 -1.044750e-10 -8.644473e-14) (-1.442862e-12 -4.790395e-07 -2.986609e-12))
2.240256      	((6.721308e-10 1.984705e-10 -2.042027e-09) (-3.314519e-10 9.232662e-12 5.704524e-10)) ((-1.672841e-14 -9.561745e-11 -8.747405e-14) (-3.163359e-12 -4.372954e-07 -6.128347e-12))
2.700307      	((-9.233485e-11 7.759186e-10 -2.481310e-09) (-4.432515e-10 3.248054e-11 6.439255e-10)) ((1.082825e-14 -8.861087e-11 -8.498091e-14) (-4.637714e-12 -4.003828e-07 -8.996886e-12))
3.252369      	((5.648839e-10 4.794332e-10 -1.098534e-09) (-5.298598e-10 4.107395e-11 8.807214e-10)) ((-1.539530e-14 -8.192355e-11 -7.138376e-14) (-6.609322e-12 -3.679441e-07 -1.021026e-11))
3.914842      	((1.718933e-09 4.098904e-10 4.748139e-10) (-5.583951e-10 5.317269e-11 9.069085e-10)) ((-1.018875e-14 -7.510506e-11 -6.058041e-14) (-7.992654e-12 -3.394552e-07 -1.130510e-11))
4.709811      	((1.872673e-09 2.632085e-10 2.852323e-10) (-5.056061e-10 2.635867e-11 6.910103e-10)) ((-3.263999e-14 -6.847116e-11 -4.034318e-14) (-8.820693e-12 -3.142893e-07 -1.252162e-11))
5.663773      	((8.453436e-10 2.224576e-10 8.637765e-10) (-4.604582e-10 -2.458128e-11 5.703225e-10)) ((-4.073148e-14 -6.188486e-11 -7.964454e-15) (-8.009142e-12 -2.918223e-07 -1.221853e-11))
6.808528      	((7.035355e-10 8.006277e-11 8.837535e-10) (-3.055437e-10 -5.370222e-11 4.084973e-10)) ((-2.493329e-14 -5.581824e-11 2.989403e-14) (-5.878932e-12 -2.715347e-07 -1.150922e-11))
8.182233      	((5.976530e-10 2.417867e-10 6.480647e-10) (-6.214982e-11 -6.919544e-11 1.496761e-10)) ((-2.312390e-14 -5.041521e-11 4.852162e-14) (-4.468639e-12 -2.530550e-07 -1.090376e-11))
9.83068       	((3.729018e-10 -3.469872e-11 4.751632e-10) (-2.674228e-11 -9.974358e-11 1.422624e-10)) ((-2.947590e-14 -4.540130e-11 5.101137e-14) (-3.845872e-12 -2.361200e-07 -8.259596e-12))
11.808816     	((6.306207e-11 1.478799e-11 -3.018338e-10) (-8.860446e-11 -1.032686e-10 1.065171e-10)) ((-1.320025e-15 -4.094722e-11 6.703820e-14) (-4.402033e-12 -2.205210e-07 -5.052425e-12))
14.182579     	((-9.107006e-11 -1.030976e-10 -1.417772e-10) (-1.123881e-10 -9.663071e-11 1.341614e-10)) ((4.243356e-14 -3.694302e-11 5.850497e-14) (-4.948502e-12 -2.061207e-07 -2.956373e-12))
17.031095     	((-4.313997e-12 -6.000585e-11 -7.840126e-11) (-2.324704e-10 -9.194159e-11 1.292200e-10)) ((7.676624e-14 -3.341089e-11 3.023572e-14) (-4.864102e-12 -1.928625e-07 -9.211142e-13))
20.449314     	((-2.604580e-10 -3.739901e-11 -1.041053e-10) (-2.830878e-10 -8.527551e-11 1.147620e-10)) ((1.012518e-13 -3.034724e-11 1.719563e-14) (-4.766801e-12 -1.807350e-07 6.969860e-13))
24.551176     	((-7.802090e-10 -1.489016e-11 -2.538176e-10) (-1.932584e-10 -8.445990e-11 1.716115e-10)) ((1.106906e-13 -2.777686e-11 9.004825e-15) (-5.142673e-12 -1.697191e-07 2.018436e-12))
29.473411     	((-7.152552e-10 -7.974993e-13 -3.033560e-10) (-1.174592e-10 -8.099131e-11 1.409618e-10)) ((1.155236e-13 -2.544562e-11 -3.275594e-15) (-5.866359e-12 -1.597599e-07 2.672807e-12))
35.380094     	((-5.608716e-10 -2.147690e-11 -3.922615e-10) (-1.679094e-11 -5.182180e-11 1.250802e-10)) ((9.970977e-14 -2.356574e-11 2.112729e-15) (-6.517801e-12 -1.507718e-07 3.235470e-12))
42.468112     	((-1.946756e-10 -1.393848e-11 -4.595716e-10) (2.698127e-11 -2.670761e-11 1.140947e-10)) ((8.578000e-14 -2.191925e-11 -9.303662e-16) (-7.185158e-12 -1.426595e-07 3.507524e-12))
50.973735     	((-1.418593e-11 -5.006346e-11 -3.911741e-10) (5.424140e-11 -1.165536e-11 9.660322e-11)) ((6.552501e-14 -2.044566e-11 -4.271745e-15) (-7.338030e-12 -1.353221e-07 2.978114e-12))
61.180482     	((-3.184882e-11 -6.024381e-11 -2.870789e-10) (6.557497e-11 -6.133663e-12 9.887203e-11)) ((5.567770e-14 -1.911027e-11 2.930479e-16) (-6.697735e-12 -1.286648e-07 2.729637e-12))
73.428578     	((-1.106717e-10 -7.778442e-11 -2.766053e-10) (7.508408e-11 9.811560e-12 1.019310e-10)) ((5.013561e-14 -1.797630e-11 -3.450422e-15) (-5.833387e-12 -1.226152e-07 2.532913e-12))
88.126294     	((-2.179139e-11 -6.969250e-11 -1.371905e-10) (5.054936e-11 2.700825e-11 -1.775646e-12)) ((4.372571e-14 -1.685849e-11 -2.536739e-15) (-4.803453e-12 -1.171320e-07 1.768654e-12))
105.763553    	((-1.293588e-10 -5.464661e-11 -3.835368e-10) (6.258249e-11 2.688005e-11 -2.640098e-11)) ((4.052022e-14 -1.586341e-11 4.569750e-15) (-3.824284e-12 -1.121927e-07 1.337501e-12))
126.928263    	((-1.341254e-10 -2.715131e-11 -4.696774e-10) (1.130218e-10 3.588694e-11 -2.666909e-11)) ((3.497986e-14 -1.493392e-11 1.343440e-14) (-2.455975e-12 -1.077733e-07 9.209460e-13))
152.150413    	((-1.502251e-10 -4.491339e-11 -6.408355e-10) (1.191672e-10 4.887683e-11 3.426231e-11)) ((3.307310e-14 -1.418403e-11 2.192249e-14) (-5.817383e-13 -1.038562e-07 6.051332e-13))
181.429192    	((-2.106243e-10 -7.193487e-11 -8.009293e-10) (2.058743e-10 5.627215e-11 -8.236827e-11)) ((3.396772e-14 -1.356896e-11 2.632055e-14) (1.277365e-12 -1.004388e-07 1.682037e-13))
214.763692    	((-2.619963e-10 -4.317047e-11 -9.781086e-10) (1.999670e-10 5.344721e-11 -2.283065e-10)) ((2.917263e-14 -1.301086e-11 2.780130e-14) (2.854838e-12 -9.749297e-08 -6.890441e-14))
252.15289     	((-2.471404e-10 -3.664190e-11 -1.011101e-09) (1.541090e-10 5.060167e-11 -2.423085e-10)) ((2.543728e-14 -1.252728e-11 2.919289e-14) (3.743356e-12 -9.498497e-08 -7.614952e-14))
292.687948    	((-1.818155e-10 -1.036066e-10 -9.286485e-10) (1.638213e-10 4.234921e-11 -1.951957e-10)) ((2.382728e-14 -1.215341e-11 2.598658e-14) (3.698346e-12 -9.289327e-08 6.242924e-13))
333.209852    	((-1.443230e-10 -7.666577e-11 -8.114313e-10) (2.082943e-10 3.753493e-11 -1.432050e-10)) ((2.401545e-14 -1.186758e-11 1.909082e-14) (3.342429e-12 -9.121365e-08 1.550333e-12))
373.718762    	((-4.330512e-11 -4.267257e-11 -6.320211e-10) (2.592264e-10 3.380174e-11 -1.106615e-10)) ((2.706104e-14 -1.161624e-11 1.221042e-14) (2.862598e-12 -8.989026e-08 2.378829e-12))
414.214595    	((-5.059879e-11 -1.422801e-12 -5.455446e-10) (3.232789e-10 3.655976e-11 -6.240379e-11)) ((2.829074e-14 -1.140658e-11 7.411013e-15) (2.366455e-12 -8.887632e-08 2.894722e-12))
454.697281    	((-3.160034e-11 -9.509324e-12 -4.173249e-10) (3.645827e-10 3.477665e-11 -2.506658e-11)) ((2.839314e-14 -1.125435e-11 2.094661e-15) (1.893877e-12 -8.811737e-08 3.195921e-12))
495.16714     	((-5.385748e-11 -8.599263e-12 -3.457032e-10) (3.767541e-10 2.610093e-11 7.109293e-14)) ((2.746082e-14 -1.114220e-11 -4.137239e-16) (1.472399e-12 -8.757079e-08 3.353887e-12))
535.625066    	((-7.386875e-11 -4.312892e-12 -2.925202e-10) (3.906806e-10 1.851046e-11 2.724010e-11)) ((2.786704e-14 -1.106307e-11 -3.270196e-15) (1.169713e-12 -8.719976e-08 3.419672e-12))
576.07202     	((-6.502837e-11 2.524953e-11 -2.404090e-10) (3.911709e-10 1.737295e-11 4.496542e-11)) ((3.005955e-14 -1.100804e-11 -6.375219e-15) (1.036230e-12 -8.697652e-08 3.365524e-12))
616.507231    	((-7.183348e-11 4.832343e-11 -2.077778e-10) (3.890771e-10 2.129810e-11 3.965856e-11)) ((3.134982e-14 -1.096597e-11 -8.608126e-15) (1.155692e-12 -8.687620e-08 3.167601e-12))
656.931033    	((-8.473272e-11 4.776469e-11 -1.881959e-10) (3.852504e-10 2.480231e-11 3.596154e-11)) ((3.191245e-14 -1.094433e-11 -1.064536e-14) (1.366888e-12 -8.687827e-08 3.074559e-12))
697.344254    	((-1.034762e-10 4.852447e-11 -1.649953e-10) (3.652379e-10 2.565478e-11 4.769076e-11)) ((3.193211e-14 -1.093319e-11 -1.254449e-14) (1.453330e-12 -8.696506e-08 3.030511e-12))
737.747681    	((-9.922409e-11 3.946627e-11 -1.567047e-10) (3.423143e-10 2.810227e-11 6.134940e-11)) ((3.109322e-14 -1.093869e-11 -1.428335e-14) (1.438596e-12 -8.712105e-08 2.953980e-12))
778.142045    	((-8.813484e-11 3.846583e-11 -1.348727e-10) (3.372369e-10 2.987467e-11 5.860914e-11)) ((3.091542e-14 -1.096348e-11 -1.553603e-14) (1.389917e-12 -8.733198e-08 2.879952e-12))
818.528193    	((-5.679329e-11 4.898987e-11 -1.057212e-10) (3.399061e-10 3.389935e-11 5.379059e-11)) ((3.154900e-14 -1.099347e-11 -1.617445e-14) (1.312724e-12 -8.758542e-08 2.792445e-12))
858.907105    	((-3.878462e-11 5.521059e-11 -8.344712e-11) (3.485329e-10 3.894691e-11 4.259469e-11)) ((3.229032e-14 -1.102823e-11 -1.669508e-14) (1.293990e-12 -8.787032e-08 2.675348e-12))
899.279643    	((-3.461168e-11 4.410768e-11 -7.226072e-11) (3.552588e-10 4.224669e-11 3.014217e-11)) ((3.319792e-14 -1.106738e-11 -1.692124e-14) (1.290897e-12 -8.817705e-08 2.539207e-12))
939.646566    	((-4.006169e-11 3.713231e-11 -5.928564e-11) (3.565787e-10 4.278529e-11 1.859327e-11)) ((3.360757e-14 -1.111469e-11 -1.703909e-14) (1.284675e-12 -8.849722e-08 2.402732e-12))
