# Forces      
# CofR        : (0.000000e+00 0.000000e+00 0.000000e+00)
# Time        forces(pressure viscous)	moments(pressure viscous)
0             	((0.000000e+00 0.000000e+00 0.000000e+00) (-3.455573e-14 -1.580654e-14 5.039763e-04)) ((0.000000e+00 0.000000e+00 0.000000e+00) (8.925199e-16 1.949831e-10 1.243181e-17))
0.012         	((4.032626e-09 -5.398281e-08 1.464982e-01) (-3.652876e-10 -4.346734e-10 5.776154e-04)) ((5.562626e-11 3.885625e-08 4.906390e-13) (-3.386469e-12 5.580872e-10 3.148200e-14))
0.0264        	((-5.477694e-07 -2.132835e-07 -1.173183e-02) (-9.829659e-10 -7.558482e-10 5.876560e-04)) ((-1.704144e-11 -2.747219e-09 1.347440e-11) (-3.018798e-12 7.333695e-10 6.141728e-14))
0.04368       	((1.039343e-06 4.633659e-07 -2.979126e-02) (-9.826491e-10 -6.667768e-10 5.206754e-04)) ((-3.416546e-10 -6.740833e-09 -1.834847e-11) (8.094509e-12 7.351374e-10 -1.128781e-13))
0.064416      	((-6.944472e-07 3.902793e-07 -2.772963e-04) (6.002829e-09 9.369996e-09 4.606615e-04)) ((1.186977e-10 2.466861e-10 1.157968e-11) (-1.944151e-11 9.474799e-10 -3.153403e-13))
0.0892992     	((6.756631e-07 -1.461740e-08 2.454064e-04) (8.847276e-09 1.428100e-08 4.249462e-04)) ((3.706919e-11 -1.308503e-10 -5.196919e-12) (-2.227024e-11 1.171559e-09 -1.200140e-12))
0.119159      	((2.932758e-07 2.857778e-07 -5.026166e-04) (2.715599e-09 1.087288e-08 3.922871e-04)) ((2.670930e-11 -2.226592e-10 3.543678e-12) (3.724695e-11 1.190970e-09 -9.077244e-13))
0.154991      	((-1.141544e-07 -1.115752e-09 -2.372511e-04) (-2.637961e-09 8.109189e-09 3.582350e-04)) ((-4.105121e-12 4.842802e-11 1.024689e-12) (4.356017e-11 1.105673e-09 3.269118e-13))
0.197989      	((-5.386443e-08 -7.005314e-08 -5.136026e-05) (-5.037332e-09 4.587220e-09 3.246138e-04)) ((-6.878292e-12 9.421154e-11 -6.349397e-13) (2.075756e-11 1.004631e-09 -2.597588e-12))
0.249587      	((7.036802e-09 -2.987268e-08 1.402763e-05) (-6.717681e-09 2.105802e-09 2.925260e-04)) ((-1.829367e-12 1.195603e-10 -7.199641e-13) (3.245573e-11 9.496082e-10 -4.707353e-12))
0.311504      	((-4.918332e-08 -1.099623e-08 4.606233e-05) (-6.649384e-09 5.191164e-10 2.628599e-04)) ((-2.171245e-12 1.218077e-10 2.882865e-14) (3.808267e-11 8.905875e-10 -2.960603e-12))
0.385805      	((-5.219804e-08 -3.695731e-08 6.359867e-05) (-4.780976e-09 -1.373997e-10 2.362426e-04)) ((-1.612254e-12 1.244107e-10 2.152261e-13) (4.158089e-11 8.843309e-10 -7.706519e-13))
0.474966      	((-3.059659e-08 -2.526754e-08 7.224415e-05) (-3.207330e-09 -2.317869e-10 2.129210e-04)) ((-7.977576e-13 1.181584e-10 2.506559e-13) (4.502046e-11 9.502315e-10 5.892132e-13))
0.581959      	((-3.028850e-08 -2.677020e-08 7.578530e-05) (-2.498365e-09 -3.618580e-10 1.924589e-04)) ((-2.508145e-13 1.094023e-10 1.238585e-13) (4.623649e-11 1.051287e-09 2.833107e-12))
0.710351      	((-2.014363e-08 -1.453617e-08 7.566637e-05) (-2.193014e-09 -4.679310e-10 1.740599e-04)) ((-1.306323e-13 1.020732e-10 1.505099e-13) (4.212346e-11 1.128153e-09 5.280706e-12))
0.864421      	((-1.851850e-08 -1.283154e-08 7.306168e-05) (-1.545667e-09 -3.235831e-10 1.572544e-04)) ((3.765284e-13 9.488321e-11 1.627069e-13) (3.524553e-11 1.130122e-09 6.629074e-12))
1.049306      	((-1.551970e-08 -8.467275e-09 6.909189e-05) (-1.062000e-09 -2.780649e-10 1.419250e-04)) ((6.031554e-13 8.608612e-11 1.503747e-13) (3.065440e-11 9.935965e-10 7.084245e-12))
1.271167      	((-1.028158e-08 -8.744821e-09 6.446023e-05) (-6.870803e-10 -4.317096e-10 1.280565e-04)) ((6.880543e-13 7.880846e-11 8.038419e-14) (2.690633e-11 7.301547e-10 7.303752e-12))
1.5374        	((-6.601450e-09 -4.370504e-09 5.974865e-05) (-5.117391e-10 -5.893931e-10 1.156250e-04)) ((6.553276e-13 7.355617e-11 6.568156e-14) (2.234109e-11 4.368321e-10 7.217703e-12))
1.85688       	((-1.035425e-09 -7.442278e-09 5.542678e-05) (-4.983465e-10 -7.652698e-10 1.045747e-04)) ((5.153430e-13 6.728124e-11 6.780352e-14) (1.998565e-11 2.636465e-10 6.551987e-12))
2.240256      	((-8.975759e-09 -4.238388e-09 5.167378e-05) (-2.477611e-10 -9.170670e-10 9.481462e-05)) ((5.570750e-13 6.065310e-11 5.566000e-14) (2.279753e-11 2.280172e-10 6.590410e-12))
2.700307      	((-1.269447e-08 -7.775659e-09 4.856666e-05) (-2.414565e-10 -9.474717e-10 8.622123e-05)) ((7.077214e-13 5.510276e-11 7.530626e-14) (3.590265e-11 2.679065e-10 6.706747e-12))
3.252369      	((-1.634098e-08 -1.252544e-08 4.611968e-05) (-1.061678e-10 -9.132931e-10 7.866463e-05)) ((7.250015e-13 5.157568e-11 7.459254e-14) (5.933261e-11 2.961880e-10 6.225524e-12))
3.914842      	((-2.160944e-08 -2.020933e-08 4.441018e-05) (3.598667e-10 -9.673534e-10 7.204010e-05)) ((7.301667e-13 4.777914e-11 8.265254e-14) (8.489323e-11 2.209938e-10 5.309972e-12))
4.709811      	((-2.397159e-08 -2.110999e-08 4.345213e-05) (4.080405e-10 -1.035619e-09 6.627685e-05)) ((7.596473e-13 4.405872e-11 8.656979e-14) (1.030983e-10 1.056067e-10 4.288556e-12))
5.663773      	((-2.966191e-08 -2.785676e-08 4.330441e-05) (-5.851424e-11 -1.182959e-09 6.130976e-05)) ((5.929288e-13 4.123895e-11 1.083751e-13) (1.029872e-10 3.677615e-11 3.413931e-12))
6.808528      	((-3.292008e-08 -2.765174e-08 4.404608e-05) (-8.046533e-10 -1.369609e-09 5.705999e-05)) ((5.778955e-13 3.896997e-11 1.087883e-13) (7.807072e-11 9.114823e-11 2.498764e-12))
8.182233      	((-3.090693e-08 -2.593563e-08 4.567437e-05) (-1.287979e-09 -1.503789e-09 5.344014e-05)) ((6.458967e-13 3.681975e-11 1.209052e-13) (3.213718e-11 1.901030e-10 1.854884e-12))
9.83068       	((-3.093916e-08 -2.370994e-08 4.812922e-05) (-1.900841e-09 -1.635889e-09 5.038253e-05)) ((6.486943e-13 3.498944e-11 1.227385e-13) (-1.419572e-11 2.480635e-10 9.032821e-13))
11.808816     	((-2.295897e-08 -1.655465e-08 5.134231e-05) (-2.283420e-09 -1.484948e-09 4.783834e-05)) ((6.224458e-13 3.306616e-11 1.271790e-13) (-4.920667e-11 2.670333e-10 -1.372031e-13))
14.182579     	((-1.196546e-08 -6.505460e-09 5.521804e-05) (-1.853698e-09 -8.879440e-10 4.574853e-05)) ((5.413084e-13 3.123431e-11 1.168166e-13) (-7.674839e-11 2.596651e-10 -8.347064e-13))
16.955899     	((-4.015893e-09 1.823936e-09 5.955125e-05) (-1.353120e-09 3.603460e-11 4.410969e-05)) ((2.676183e-13 3.005329e-11 1.163079e-13) (-1.057409e-10 2.793068e-10 -8.836925e-13))
20.130112     	((1.018643e-09 8.556256e-09 6.399946e-05) (-2.616229e-10 1.227514e-09 4.285742e-05)) ((2.932051e-14 2.878558e-11 1.181770e-13) (-1.408251e-10 3.805683e-10 -9.090419e-13))
23.705095     	((5.637728e-09 1.795536e-08 6.831357e-05) (8.234908e-11 2.373952e-09 4.189911e-05)) ((-2.499924e-13 2.748409e-11 1.125486e-13) (-1.700338e-10 5.764193e-10 -7.377547e-13))
27.679454     	((1.543182e-08 2.774218e-08 7.215402e-05) (2.280181e-10 3.317129e-09 4.112034e-05)) ((-4.566706e-13 2.697559e-11 1.007173e-13) (-1.859225e-10 8.821361e-10 -1.339195e-12))
31.656845     	((1.883825e-08 3.156185e-08 7.528985e-05) (5.805213e-10 3.646707e-09 4.049669e-05)) ((-5.636651e-13 2.719803e-11 1.027565e-13) (-1.578865e-10 1.120802e-09 -1.932154e-12))
35.625532     	((2.209965e-08 3.615246e-08 7.756657e-05) (1.356241e-09 3.700813e-09 3.995622e-05)) ((-6.661568e-13 2.758234e-11 9.939972e-14) (-1.193571e-10 1.198256e-09 -2.199134e-12))
39.598031     	((2.517374e-08 4.038906e-08 7.878330e-05) (1.379945e-09 3.541201e-09 3.944955e-05)) ((-7.877395e-13 2.770469e-11 1.017061e-13) (-5.274947e-11 1.103915e-09 -2.022477e-12))
43.58707      	((2.454643e-08 4.502295e-08 7.936486e-05) (8.242341e-10 3.623309e-09 3.897963e-05)) ((-9.111452e-13 2.809601e-11 1.076743e-13) (1.570096e-11 9.910372e-10 -1.674222e-12))
47.596328     	((1.999186e-08 4.514345e-08 7.947887e-05) (5.077389e-10 3.605264e-09 3.853884e-05)) ((-9.115233e-13 2.843824e-11 9.884398e-14) (6.730689e-11 8.981580e-10 -9.089081e-13))
51.622789     	((1.644424e-08 4.777035e-08 7.926571e-05) (-2.899040e-10 3.156256e-09 3.812390e-05)) ((-7.170143e-13 2.854516e-11 1.040522e-13) (1.360634e-10 7.716357e-10 -6.823598e-13))
55.664998     	((1.771648e-08 5.468928e-08 7.880609e-05) (-5.704956e-10 2.854653e-09 3.774022e-05)) ((-6.209423e-13 2.863671e-11 1.018635e-13) (2.163358e-10 6.323217e-10 -9.281401e-13))
59.724618     	((1.740406e-08 5.906944e-08 7.831397e-05) (-6.990054e-10 2.610193e-09 3.738296e-05)) ((-3.362036e-13 2.835407e-11 1.004097e-13) (2.922450e-10 4.917591e-10 -6.696493e-14))
63.802153     	((1.931032e-08 6.330015e-08 7.783413e-05) (-1.433518e-09 2.314535e-09 3.705320e-05)) ((-2.396828e-13 2.815013e-11 9.286122e-14) (3.630626e-10 3.568876e-10 4.891015e-13))
67.896905     	((2.657892e-08 7.039078e-08 7.743375e-05) (-1.888685e-09 2.198435e-09 3.675134e-05)) ((-1.977185e-13 2.789879e-11 8.320851e-14) (4.228793e-10 2.386830e-10 4.829983e-13))
72.007638     	((3.302468e-08 7.485201e-08 7.710943e-05) (-2.162323e-09 2.303631e-09 3.647523e-05)) ((-1.581308e-13 2.761205e-11 7.046307e-14) (4.668371e-10 1.232918e-10 1.014693e-12))
76.133347     	((4.556960e-08 8.210714e-08 7.682439e-05) (-2.019178e-09 2.586833e-09 3.622252e-05)) ((-2.219017e-13 2.742161e-11 6.529297e-14) (4.994641e-10 5.010930e-12 1.139463e-12))
80.273435     	((5.779905e-08 8.982773e-08 7.656673e-05) (-1.455229e-09 3.141492e-09 3.599124e-05)) ((-3.952033e-13 2.732489e-11 5.978450e-14) (5.199887e-10 -1.148907e-10 6.094866e-13))
84.427178     	((7.582323e-08 1.020477e-07 7.629524e-05) (-2.924440e-10 4.064867e-09 3.577861e-05)) ((-6.414235e-13 2.723098e-11 6.105596e-14) (5.281542e-10 -2.352099e-10 7.515294e-13))
88.593741     	((9.254608e-08 1.135222e-07 7.602766e-05) (1.461129e-09 5.403638e-09 3.558268e-05)) ((-8.557286e-13 2.706669e-11 7.431147e-14) (5.235099e-10 -3.327347e-10 9.967846e-13))
92.766914     	((1.067532e-07 1.214460e-07 7.579416e-05) (3.340831e-09 7.007440e-09 3.540434e-05)) ((-9.563968e-13 2.682970e-11 7.451500e-14) (5.071764e-10 -3.945475e-10 3.367670e-13))
96.94585      	((1.189578e-07 1.267531e-07 7.555909e-05) (5.432950e-09 8.565310e-09 3.524152e-05)) ((-1.074570e-12 2.663637e-11 8.204992e-14) (4.798145e-10 -4.170343e-10 -2.743895e-13))
101.130298    	((1.324831e-07 1.339996e-07 7.529703e-05) (7.726252e-09 1.015068e-08 3.509057e-05)) ((-1.228488e-12 2.641538e-11 1.057573e-13) (4.464700e-10 -4.123060e-10 -5.584075e-13))
105.320023    	((1.487218e-07 1.451081e-07 7.505711e-05) (1.046255e-08 1.195700e-08 3.495025e-05)) ((-1.434617e-12 2.627910e-11 1.123681e-13) (4.068993e-10 -3.871770e-10 -8.501592e-13))
109.51476     	((1.605636e-07 1.543762e-07 7.482968e-05) (1.342243e-08 1.398099e-08 3.482014e-05)) ((-1.670187e-12 2.617385e-11 1.126282e-13) (3.667276e-10 -3.500393e-10 2.874564e-14))
113.714265    	((1.722927e-07 1.629320e-07 7.462720e-05) (1.640306e-08 1.603347e-08 3.470047e-05)) ((-1.889288e-12 2.611970e-11 1.086956e-13) (3.280635e-10 -3.093224e-10 4.054813e-13))
117.918303    	((1.851710e-07 1.718082e-07 7.439974e-05) (1.939875e-08 1.798991e-08 3.458840e-05)) ((-2.107845e-12 2.613357e-11 1.007183e-13) (2.899511e-10 -2.741678e-10 3.772976e-13))
122.126697    	((1.976149e-07 1.823091e-07 7.418085e-05) (2.228925e-08 1.995729e-08 3.448244e-05)) ((-2.331972e-12 2.618421e-11 9.326121e-14) (2.576001e-10 -2.483850e-10 2.567208e-13))
126.339244    	((2.224704e-07 1.999577e-07 7.396839e-05) (2.551994e-08 2.223235e-08 3.438180e-05)) ((-2.585034e-12 2.634238e-11 8.126860e-14) (2.345157e-10 -2.293453e-10 1.752403e-13))
130.555714    	((2.455792e-07 2.167829e-07 7.376313e-05) (2.892604e-08 2.458977e-08 3.428593e-05)) ((-2.816783e-12 2.647760e-11 7.207983e-14) (2.224450e-10 -2.180463e-10 3.317849e-13))
134.775905    	((2.729266e-07 2.386545e-07 7.356042e-05) (3.248387e-08 2.705485e-08 3.419493e-05)) ((-3.071611e-12 2.660621e-11 6.299046e-14) (2.227167e-10 -2.169230e-10 7.455588e-13))
138.999643    	((3.026721e-07 2.641919e-07 7.336660e-05) (3.621184e-08 2.974962e-08 3.410889e-05)) ((-3.335990e-12 2.674000e-11 5.404997e-14) (2.370970e-10 -2.263575e-10 9.846085e-13))
143.226769    	((3.369386e-07 2.925338e-07 7.318132e-05) (4.008481e-08 3.260720e-08 3.402771e-05)) ((-3.579354e-12 2.690314e-11 3.823212e-14) (2.641559e-10 -2.501699e-10 1.137061e-12))
147.457123    	((3.815939e-07 3.285821e-07 7.300408e-05) (4.447655e-08 3.586663e-08 3.395104e-05)) ((-3.889475e-12 2.718576e-11 2.190206e-14) (3.056616e-10 -2.915301e-10 1.119397e-12))
151.690559    	((4.332427e-07 3.680176e-07 7.283913e-05) (4.945664e-08 3.953036e-08 3.387890e-05)) ((-4.212591e-12 2.751306e-11 8.834726e-16) (3.623773e-10 -3.541190e-10 9.719780e-13))
155.926951    	((4.945053e-07 4.156239e-07 7.267864e-05) (5.518136e-08 4.377527e-08 3.381093e-05)) ((-4.577811e-12 2.788347e-11 -2.283390e-14) (4.339334e-10 -4.425550e-10 9.560255e-13))
160.166176    	((5.648585e-07 4.687537e-07 7.252971e-05) (6.170096e-08 4.863562e-08 3.374708e-05)) ((-4.964105e-12 2.827807e-11 -3.989568e-14) (5.194269e-10 -5.552352e-10 1.130527e-12))
164.408121    	((6.375069e-07 5.225421e-07 7.240241e-05) (6.872570e-08 5.386245e-08 3.368791e-05)) ((-5.255434e-12 2.856572e-11 -5.323087e-14) (6.176599e-10 -6.893219e-10 1.441532e-12))
168.652682    	((7.241195e-07 5.873608e-07 7.228328e-05) (7.659068e-08 5.973914e-08 3.363334e-05)) ((-5.691277e-12 2.901662e-11 -7.055645e-14) (7.282468e-10 -8.432956e-10 1.724430e-12))
172.899776    	((8.200199e-07 6.575727e-07 7.215273e-05) (8.558010e-08 6.650716e-08 3.358206e-05)) ((-6.165906e-12 2.951860e-11 -8.719103e-14) (8.477843e-10 -1.014802e-09 1.693712e-12))
177.149323    	((9.185827e-07 7.281655e-07 7.200863e-05) (9.540397e-08 7.388276e-08 3.353265e-05)) ((-6.599442e-12 2.996744e-11 -1.041766e-13) (9.725211e-10 -1.202843e-09 1.894802e-12))
181.401208    	((1.022078e-06 8.027995e-07 7.186705e-05) (1.059041e-07 8.181236e-08 3.348476e-05)) ((-7.041172e-12 3.038847e-11 -1.200502e-13) (1.099848e-09 -1.405878e-09 2.231597e-12))
185.655311    	((1.133174e-06 8.816362e-07 7.173643e-05) (1.172747e-07 9.041516e-08 3.343871e-05)) ((-7.482952e-12 3.082190e-11 -1.370525e-13) (1.225926e-09 -1.616806e-09 2.370329e-12))
189.911521    	((1.251200e-06 9.652979e-07 7.161780e-05) (1.296414e-07 9.974692e-08 3.339469e-05)) ((-7.967949e-12 3.130351e-11 -1.603671e-13) (1.349506e-09 -1.829505e-09 2.653668e-12))
194.169729    	((1.378299e-06 1.055250e-06 7.151092e-05) (1.431736e-07 1.099168e-07 3.335282e-05)) ((-8.536551e-12 3.187908e-11 -1.855887e-13) (1.470187e-09 -2.041133e-09 3.357624e-12))
198.429827    	((1.511015e-06 1.149152e-06 7.141270e-05) (1.578537e-07 1.209161e-07 3.331312e-05)) ((-9.171413e-12 3.252132e-11 -2.173539e-13) (1.585754e-09 -2.249056e-09 3.875177e-12))
202.691717    	((1.650059e-06 1.247034e-06 7.132241e-05) (1.736290e-07 1.326563e-07 3.327557e-05)) ((-9.862673e-12 3.325380e-11 -2.556242e-13) (1.697191e-09 -2.450823e-09 4.128702e-12))
206.955311    	((1.795609e-06 1.351906e-06 7.123722e-05) (1.905084e-07 1.452447e-07 3.324007e-05)) ((-1.064200e-11 3.408894e-11 -2.880687e-13) (1.805975e-09 -2.643958e-09 4.393052e-12))
211.220526    	((1.951371e-06 1.465859e-06 7.115702e-05) (2.086724e-07 1.588417e-07 3.320636e-05)) ((-1.153398e-11 3.506619e-11 -3.211078e-13) (1.914695e-09 -2.830208e-09 4.721278e-12))
215.48728     	((2.119518e-06 1.589982e-06 7.108091e-05) (2.284104e-07 1.736349e-07 3.317426e-05)) ((-1.254123e-11 3.619753e-11 -3.529873e-13) (2.023888e-09 -3.007863e-09 4.766872e-12))
219.755492    	((2.303128e-06 1.726777e-06 7.100754e-05) (2.500689e-07 1.898421e-07 3.314362e-05)) ((-1.367055e-11 3.747985e-11 -3.887052e-13) (2.134663e-09 -3.176478e-09 4.846488e-12))
224.025081    	((2.502826e-06 1.877726e-06 7.094016e-05) (2.738136e-07 2.076536e-07 3.311451e-05)) ((-1.489494e-11 3.889524e-11 -4.363611e-13) (2.253282e-09 -3.343103e-09 5.032034e-12))
228.29597     	((2.722075e-06 2.045024e-06 7.087693e-05) (2.997202e-07 2.271909e-07 3.308702e-05)) ((-1.624051e-11 4.048389e-11 -4.954034e-13) (2.389513e-09 -3.520626e-09 4.717644e-12))
232.568082    	((2.965759e-06 2.231629e-06 7.081842e-05) (3.280709e-07 2.485983e-07 3.306123e-05)) ((-1.773909e-11 4.228922e-11 -5.535480e-13) (2.550941e-09 -3.720708e-09 4.485129e-12))
236.841339    	((3.236995e-06 2.441863e-06 7.076641e-05) (3.592514e-07 2.722038e-07 3.303724e-05)) ((-1.942738e-11 4.432681e-11 -6.127982e-13) (2.743448e-09 -3.948347e-09 5.106629e-12))
241.115667    	((3.539899e-06 2.678544e-06 7.071936e-05) (3.937057e-07 2.983576e-07 3.301500e-05)) ((-2.131800e-11 4.660995e-11 -6.839398e-13) (2.970963e-09 -4.206576e-09 6.034082e-12))
245.390999    	((3.879063e-06 2.945719e-06 7.067778e-05) (4.320240e-07 3.275747e-07 3.299453e-05)) ((-2.342078e-11 4.914904e-11 -7.588197e-13) (3.233332e-09 -4.498527e-09 6.755255e-12))
249.667264    	((4.257096e-06 3.245504e-06 7.063880e-05) (4.746606e-07 3.603034e-07 3.297576e-05)) ((-2.572906e-11 5.193352e-11 -8.277914e-13) (3.531909e-09 -4.829129e-09 8.988517e-12))
253.944388    	((4.677548e-06 3.581296e-06 7.060434e-05) (5.219672e-07 3.970084e-07 3.295855e-05)) ((-2.825126e-11 5.494598e-11 -8.855107e-13) (3.868120e-09 -5.209569e-09 1.253404e-11))
258.222308    	((5.145660e-06 3.953716e-06 7.057782e-05) (5.744931e-07 4.379386e-07 3.294307e-05)) ((-3.096784e-11 5.819784e-11 -9.492146e-13) (4.247532e-09 -5.647646e-09 1.774722e-11))
262.500941    	((5.664874e-06 4.363866e-06 7.056099e-05) (6.326220e-07 4.832989e-07 3.292943e-05)) ((-3.384594e-11 6.168759e-11 -1.038354e-12) (4.677356e-09 -6.155508e-09 2.307763e-11))
266.780202    	((6.237630e-06 4.813162e-06 7.055594e-05) (6.968091e-07 5.333256e-07 3.291794e-05)) ((-3.688352e-11 6.539218e-11 -1.136754e-12) (5.157266e-09 -6.732498e-09 2.704466e-11))
271.060003    	((6.864128e-06 5.299529e-06 7.056820e-05) (7.673695e-07 5.880681e-07 3.290887e-05)) ((-4.005653e-11 6.927760e-11 -1.244848e-12) (5.688178e-09 -7.379048e-09 2.996525e-11))
275.338735    	((7.547925e-06 5.828657e-06 7.059603e-05) (8.447114e-07 6.478652e-07 3.290251e-05)) ((-4.340598e-11 7.343573e-11 -1.365292e-12) (6.265510e-09 -8.099450e-09 3.165421e-11))
279.614811    	((8.295969e-06 6.404768e-06 7.063931e-05) (9.294354e-07 7.134054e-07 3.289930e-05)) ((-4.698355e-11 7.791417e-11 -1.526657e-12) (6.880113e-09 -8.892726e-09 3.255113e-11))
283.88787     	((9.111758e-06 7.029178e-06 7.069905e-05) (1.022240e-06 7.850143e-07 3.289928e-05)) ((-5.080532e-11 8.275093e-11 -1.734008e-12) (7.536297e-09 -9.756823e-09 3.232805e-11))
