# Forces      
# CofR        : (0.000000e+00 0.000000e+00 0.000000e+00)
# Time        forces(pressure viscous)	moments(pressure viscous)
0             	((0.000000e+00 0.000000e+00 0.000000e+00) (0.000000e+00 0.000000e+00 0.000000e+00)) ((0.000000e+00 0.000000e+00 0.000000e+00) (0.000000e+00 0.000000e+00 0.000000e+00))
0.012         	((-8.255146e-13 1.115830e-12 -2.321629e-12) (2.314173e-15 9.029900e-16 1.483308e-14)) ((1.004383e-11 -1.085308e-15 -1.464545e-17) (7.002861e-09 7.221303e-16 -2.599659e-16))
0.0264        	((7.608059e-13 1.830512e-12 -3.907941e-12) (-9.990152e-15 -1.720251e-14 1.296838e-14)) ((4.954965e-12 -8.442736e-16 2.120840e-16) (6.414186e-09 1.262901e-15 -2.598546e-16))
0.04368       	((-4.065658e-12 -2.823254e-12 -4.769240e-12) (7.953911e-15 -4.971581e-14 3.859674e-15)) ((2.735510e-12 -6.673000e-16 2.325534e-16) (5.809206e-09 6.894671e-16 5.745259e-16))
0.064416      	((1.298820e-12 -2.632622e-13 -1.003661e-12) (6.553324e-14 -7.221317e-14 -9.267389e-15)) ((1.531378e-12 -4.554423e-16 -7.394388e-17) (5.201099e-09 -7.596638e-16 1.449431e-15))
0.0892992     	((-5.125859e-13 -7.285477e-13 -3.173060e-13) (1.274960e-13 -7.910582e-14 -2.741943e-14)) ((1.149916e-12 -4.330439e-16 6.230340e-17) (4.607579e-09 -2.187577e-15 1.945785e-15))
0.119159      	((-7.223929e-13 -1.413858e-12 -3.519718e-12) (1.654948e-13 -7.404354e-14 -4.329859e-14)) ((8.212597e-13 -3.076940e-16 -9.582563e-18) (4.046946e-09 -2.981572e-15 2.061271e-15))
0.154991      	((8.652988e-13 1.788601e-12 1.021453e-12) (1.829300e-13 -6.539528e-14 -4.853470e-14)) ((6.506084e-13 -2.404555e-16 -2.188341e-17) (3.532113e-09 -3.221452e-15 1.796825e-15))
0.197989      	((8.679407e-13 2.294483e-13 -1.056781e-12) (1.991842e-13 -5.454652e-14 -4.787430e-14)) ((5.166995e-13 -1.123304e-16 -1.872322e-17) (3.075683e-09 -3.155645e-15 1.484675e-15))
0.249587      	((3.744121e-13 3.658666e-13 -1.081095e-12) (2.017587e-13 -5.113256e-14 -4.893367e-14)) ((4.274138e-13 -7.181201e-17 -4.539302e-17) (2.684450e-09 -2.978534e-15 1.364592e-15))
0.311504      	((4.826637e-13 8.945996e-13 -1.299211e-12) (1.864573e-13 -5.476519e-14 -4.035179e-14)) ((3.567154e-13 -9.300905e-17 -1.304804e-17) (2.357467e-09 -2.660977e-15 1.405738e-15))
0.385805      	((-2.643925e-13 1.169030e-12 -1.785256e-12) (1.675877e-13 -5.105043e-14 -3.344999e-14)) ((3.067282e-13 -9.695476e-17 3.148977e-17) (2.087697e-09 -2.680124e-15 1.392114e-15))
0.474966      	((-2.538226e-13 1.583082e-12 -1.690998e-12) (1.417939e-13 -3.201377e-14 -5.546063e-14)) ((2.739171e-13 -6.096707e-17 5.051777e-17) (1.864547e-09 -3.545108e-15 1.359559e-15))
0.581959      	((1.080070e-12 2.305697e-12 -5.571117e-13) (9.469965e-14 -1.044152e-15 -8.073551e-14)) ((2.455074e-13 -7.292972e-17 7.719160e-17) (1.676991e-09 -4.419905e-15 1.624519e-15))
0.710351      	((1.233960e-12 2.675063e-12 -2.082070e-12) (3.506728e-14 2.986270e-15 -8.008230e-14)) ((2.169520e-13 -9.304823e-17 9.843827e-17) (1.515892e-09 -4.777765e-15 2.321832e-15))
0.864421      	((1.532100e-12 3.353277e-12 -1.300569e-12) (-2.376772e-14 -4.131593e-14 -5.972258e-14)) ((1.977538e-13 -1.433644e-16 1.089775e-16) (1.374773e-09 -4.419143e-15 3.347441e-15))
1.049306      	((9.647889e-13 3.370487e-12 -2.321318e-12) (-6.329820e-14 -8.379055e-14 -2.849445e-14)) ((1.850427e-13 -1.558225e-16 1.011296e-16) (1.249342e-09 -3.348568e-15 3.981951e-15))
1.271167      	((-4.509184e-14 4.286008e-12 -2.890571e-12) (-6.149809e-14 -1.218770e-13 1.559236e-14)) ((1.723459e-13 -1.336730e-16 8.766171e-17) (1.136730e-09 -1.704435e-15 4.935072e-15))
1.5374        	((-4.457408e-13 4.014936e-12 -3.852225e-12) (-2.894830e-14 -1.875651e-13 8.184737e-14)) ((1.577117e-13 -3.372728e-17 6.372714e-17) (1.035071e-09 -6.816340e-16 8.309388e-15))
1.85688       	((4.711276e-13 4.217798e-12 -3.794381e-12) (-5.045483e-14 -3.192163e-13 1.904806e-13)) ((1.448670e-13 -1.689280e-18 3.037065e-17) (9.433494e-10 2.241375e-15 1.225460e-14))
2.240256      	((6.364341e-14 4.665796e-12 -3.443902e-12) (-5.180020e-14 -5.234152e-13 3.983753e-13)) ((1.369914e-13 5.485435e-17 -1.954754e-17) (8.610441e-10 6.591664e-15 1.773568e-14))
2.700307      	((7.475501e-14 4.219368e-12 -2.755735e-12) (-8.169807e-15 -8.374508e-13 7.297084e-13)) ((1.316147e-13 7.829145e-17 -5.222087e-17) (7.877860e-10 1.214476e-14 2.706096e-14))
3.252369      	((6.903452e-14 3.032736e-12 -2.833831e-12) (-6.120311e-14 -1.281449e-12 1.105290e-12)) ((1.263462e-13 1.221426e-16 -8.849421e-17) (7.230723e-10 2.029762e-14 3.621182e-14))
3.914842      	((3.087589e-13 1.380076e-12 -1.886676e-12) (-4.315999e-14 -1.710146e-12 1.471414e-12)) ((1.202840e-13 1.031715e-16 -6.858718e-17) (6.661465e-10 2.680801e-14 4.261386e-14))
4.709811      	((-9.580897e-14 4.757911e-13 -5.711063e-13) (5.213675e-14 -2.109564e-12 1.850275e-12)) ((1.131540e-13 1.100025e-16 -4.283507e-17) (6.159618e-10 3.109915e-14 4.679846e-14))
5.663773      	((1.574681e-13 7.070318e-15 4.279592e-13) (2.455214e-14 -2.393634e-12 2.145198e-12)) ((1.051313e-13 1.095251e-16 -2.741862e-17) (5.713457e-10 3.482089e-14 4.757574e-14))
6.808528      	((3.934361e-13 -5.544123e-13 7.782249e-13) (-3.868371e-15 -2.436471e-12 2.218254e-12)) ((9.709192e-14 1.132457e-16 -4.839070e-17) (5.312548e-10 3.507607e-14 4.643257e-14))
8.182233      	((4.658077e-14 -8.208190e-13 1.257887e-12) (-2.169514e-14 -2.287333e-12 2.088407e-12)) ((8.926191e-14 1.038532e-16 -4.748272e-17) (4.948567e-10 3.114453e-14 4.257752e-14))
9.83068       	((4.802846e-13 -1.006027e-12 1.170594e-12) (-6.652738e-14 -1.953788e-12 1.792674e-12)) ((8.139739e-14 9.059245e-17 -7.570777e-17) (4.615346e-10 2.513781e-14 3.462466e-14))
11.808816     	((1.953680e-13 1.840174e-13 3.765048e-13) (-1.658968e-13 -1.486580e-12 1.405831e-12)) ((7.426181e-14 8.234261e-17 -1.017591e-16) (4.308729e-10 2.051241e-14 2.462201e-14))
14.182579     	((1.116987e-13 2.276740e-13 -1.430987e-13) (-2.906893e-13 -1.043343e-12 1.044293e-12)) ((6.748460e-14 8.455429e-17 -1.134948e-16) (4.026188e-10 1.731198e-14 1.447602e-14))
17.031095     	((2.186330e-13 4.187065e-13 -6.272128e-14) (-3.014160e-13 -7.201100e-13 7.403038e-13)) ((6.185100e-14 6.247656e-17 -1.057798e-16) (3.766402e-10 1.279958e-14 7.371884e-15))
20.449314     	((8.512012e-14 4.752478e-13 -2.359806e-13) (-2.313394e-13 -4.858735e-13 4.988802e-13)) ((5.681720e-14 5.258043e-17 -9.985538e-17) (3.528463e-10 7.788852e-15 4.262461e-15))
24.551176     	((-4.682790e-14 4.304449e-13 -4.763419e-13) (-1.453892e-13 -3.444918e-13 3.370332e-13)) ((5.239314e-14 5.125981e-17 -1.048954e-16) (3.310962e-10 4.511446e-15 2.644652e-15))
29.473411     	((4.728326e-14 4.511067e-13 -2.648038e-13) (-7.882082e-14 -2.549381e-13 2.577299e-13)) ((4.867509e-14 4.000572e-17 -9.536171e-17) (3.112492e-10 2.883709e-15 2.126725e-15))
35.380094     	((-1.086205e-14 6.382759e-13 -2.670537e-13) (-3.777399e-14 -2.063947e-13 2.163724e-13)) ((4.534861e-14 3.199858e-17 -8.619898e-17) (2.931442e-10 1.492313e-15 3.138880e-15))
42.468112     	((-3.815683e-14 4.125101e-13 -2.823310e-13) (-7.449483e-15 -2.098141e-13 2.137508e-13)) ((4.244482e-14 2.901564e-17 -7.930998e-17) (2.766288e-10 9.932320e-16 4.296565e-15))
50.973735     	((-6.184754e-15 3.457414e-13 -1.892374e-13) (2.973769e-14 -2.312384e-13 2.332203e-13)) ((3.982383e-14 1.716449e-17 -7.148829e-17) (2.615708e-10 1.126561e-15 4.848169e-15))
61.180482     	((1.315191e-14 3.521351e-13 -2.592361e-13) (3.845412e-14 -2.727439e-13 2.749135e-13)) ((3.745733e-14 3.553899e-18 -6.533763e-17) (2.478595e-10 1.803054e-15 5.363797e-15))
73.428578     	((-6.301242e-15 2.111289e-13 -1.168040e-13) (2.749639e-14 -3.146260e-13 3.219434e-13)) ((3.539284e-14 -1.828910e-18 -5.780029e-17) (2.354041e-10 3.042532e-15 5.893989e-15))
88.126294     	((3.277762e-14 2.402779e-13 -4.507755e-14) (1.665796e-14 -3.440449e-13 3.578542e-13)) ((3.356704e-14 -9.826897e-18 -5.121039e-17) (2.241102e-10 4.297819e-15 6.372493e-15))
105.763553    	((9.924596e-15 1.128975e-13 9.951328e-16) (1.274779e-14 -3.558663e-13 3.723098e-13)) ((3.184186e-14 -1.734482e-17 -4.524796e-17) (2.138909e-10 4.737946e-15 6.787870e-15))
126.928263    	((3.077608e-14 7.212424e-14 7.888739e-14) (7.379877e-15 -3.561175e-13 3.666532e-13)) ((3.031148e-14 -2.049443e-17 -4.268149e-17) (2.046537e-10 4.778991e-15 7.020024e-15))
152.325916    	((8.447390e-15 -2.790042e-15 1.024669e-13) (-9.994026e-16 -3.395235e-13 3.457642e-13)) ((2.894269e-14 -2.314547e-17 -4.107242e-17) (1.963012e-10 4.911815e-15 7.130090e-15))
182.803099    	((1.527343e-14 -5.139844e-14 9.497571e-14) (-4.707334e-15 -3.130697e-13 3.119539e-13)) ((2.767440e-14 -2.532838e-17 -3.965189e-17) (1.887358e-10 5.211405e-15 7.148253e-15))
219.375719    	((2.612899e-14 -3.943117e-14 1.041534e-13) (-1.178746e-14 -2.933770e-13 2.889718e-13)) ((2.651426e-14 -2.587345e-17 -3.708956e-17) (1.818681e-10 5.713632e-15 7.266610e-15))
263.262863    	((3.274658e-14 -7.433242e-14 7.841341e-14) (-2.733436e-14 -2.894838e-13 2.806476e-13)) ((2.546262e-14 -2.385980e-17 -3.189215e-17) (1.756237e-10 6.090814e-15 7.523868e-15))
315.927436    	((1.176600e-14 -1.151608e-13 7.455997e-14) (-3.747295e-14 -2.927385e-13 2.802853e-13)) ((2.452217e-14 -2.030266e-17 -2.912386e-17) (1.699422e-10 6.334159e-15 7.736622e-15))
379.124923    	((-7.343131e-16 -1.099407e-13 7.421000e-14) (-3.389969e-14 -2.948484e-13 2.826582e-13)) ((2.365940e-14 -1.546106e-17 -2.705688e-17) (1.647756e-10 6.397841e-15 7.892332e-15))
454.961908    	((5.281660e-15 -1.009314e-13 7.789612e-14) (-3.674061e-14 -2.904302e-13 2.848171e-13)) ((2.286211e-14 -1.260313e-17 -2.463586e-17) (1.600886e-10 6.372910e-15 7.774371e-15))
545.966289    	((6.631902e-15 -9.886589e-14 6.711783e-14) (-3.011957e-14 -2.808091e-13 2.788985e-13)) ((2.213630e-14 -1.088911e-17 -2.293615e-17) (1.558488e-10 6.393980e-15 7.433371e-15))
655.171547    	((2.198096e-14 -9.399930e-14 6.469702e-14) (-1.452047e-14 -2.672437e-13 2.670740e-13)) ((2.147580e-14 -9.475065e-18 -2.158229e-17) (1.520264e-10 6.230204e-15 6.969643e-15))
786.217856    	((2.855196e-14 -9.341597e-14 4.402012e-14) (-1.193912e-15 -2.539115e-13 2.533424e-13)) ((2.087429e-14 -7.683919e-18 -2.201632e-17) (1.485950e-10 6.024333e-15 6.580228e-15))
943.473427    	((3.069292e-14 -9.037716e-14 2.576450e-14) (-5.236749e-15 -2.381312e-13 2.391963e-13)) ((2.033655e-14 -5.355422e-18 -2.389502e-17) (1.455297e-10 5.720150e-15 6.240894e-15))
1132.180113   	((2.253708e-14 -1.004806e-13 2.128846e-14) (-2.425107e-15 -2.271378e-13 2.228689e-13)) ((1.986689e-14 -3.406631e-18 -2.385140e-17) (1.428057e-10 5.337111e-15 5.995729e-15))
1358.628135   	((2.146749e-14 -1.016635e-13 2.197349e-14) (-5.061088e-16 -2.169127e-13 2.061415e-13)) ((1.945462e-14 -2.801895e-18 -2.197504e-17) (1.403981e-10 5.000300e-15 5.765068e-15))
1630.365763   	((1.942836e-14 -1.043447e-13 1.958518e-14) (-1.767487e-15 -2.063114e-13 1.951789e-13)) ((1.909088e-14 -2.558767e-18 -2.116614e-17) (1.382816e-10 4.679049e-15 5.516661e-15))
1956.450915   	((1.431631e-14 -1.065038e-13 1.522153e-14) (-6.531627e-15 -1.982878e-13 1.879184e-13)) ((1.877441e-14 -1.986161e-18 -2.102061e-17) (1.364312e-10 4.326543e-15 5.298358e-15))
2347.753098   	((1.405791e-14 -1.053106e-13 1.074791e-14) (-8.051094e-15 -1.938633e-13 1.841824e-13)) ((1.849910e-14 -1.009182e-18 -2.111054e-17) (1.348230e-10 4.014589e-15 5.120813e-15))
2817.315718   	((3.099023e-14 -1.016251e-13 1.118851e-14) (-7.615547e-15 -1.916618e-13 1.830741e-13)) ((1.826458e-14 -4.272567e-19 -2.102207e-17) (1.334344e-10 3.777074e-15 4.947801e-15))
3380.790861   	((5.078869e-14 -1.046389e-13 6.596145e-15) (-6.847595e-15 -1.892823e-13 1.817074e-13)) ((1.806607e-14 -1.473860e-19 -2.086038e-17) (1.322438e-10 3.536837e-15 4.766707e-15))
4056.961033   	((7.057529e-14 -1.035194e-13 4.878209e-15) (-6.301096e-15 -1.867842e-13 1.788187e-13)) ((1.789761e-14 3.654889e-19 -2.078959e-17) (1.312299e-10 3.353473e-15 4.569332e-15))
4868.36524    	((8.447271e-14 -9.897220e-14 1.142272e-14) (-4.883993e-15 -1.860114e-13 1.762387e-13)) ((1.775509e-14 1.020139e-18 -2.078432e-17) (1.303728e-10 3.233183e-15 4.385951e-15))
5842.050288   	((1.043048e-13 -8.572736e-14 1.048993e-14) (-3.907815e-15 -1.876323e-13 1.734924e-13)) ((1.763314e-14 2.413663e-18 -2.098846e-17) (1.296533e-10 3.152383e-15 4.154255e-15))
7010.472346   	((1.093398e-13 -7.427301e-14 1.907850e-14) (-1.462968e-15 -1.879945e-13 1.706329e-13)) ((1.753023e-14 2.705128e-18 -2.106299e-17) (1.290540e-10 3.067669e-15 3.976246e-15))
8412.578815   	((1.139933e-13 -6.361303e-14 2.512933e-14) (1.105979e-15 -1.869852e-13 1.679812e-13)) ((1.744431e-14 2.900632e-18 -2.121753e-17) (1.285582e-10 2.974992e-15 3.845671e-15))
10095.106578  	((1.173677e-13 -5.477804e-14 3.054666e-14) (3.485861e-15 -1.848224e-13 1.648564e-13)) ((1.737390e-14 2.902147e-18 -2.121415e-17) (1.281508e-10 2.868417e-15 3.728311e-15))
12114.139893  	((1.227125e-13 -4.798043e-14 3.633684e-14) (6.939124e-15 -1.818106e-13 1.618210e-13)) ((1.731643e-14 2.877652e-18 -2.111903e-17) (1.278181e-10 2.757623e-15 3.610378e-15))
14536.979872  	((1.291851e-13 -4.203541e-14 4.135407e-14) (1.051490e-14 -1.788532e-13 1.589934e-13)) ((1.727005e-14 2.911268e-18 -2.108780e-17) (1.275481e-10 2.672631e-15 3.498208e-15))
17444.387847  	((1.380182e-13 -3.646090e-14 4.742509e-14) (1.329970e-14 -1.762543e-13 1.566451e-13)) ((1.723297e-14 2.934019e-18 -2.099986e-17) (1.273301e-10 2.608193e-15 3.395866e-15))
20933.277416  	((1.494572e-13 -3.055411e-14 5.369309e-14) (1.541923e-14 -1.740764e-13 1.545898e-13)) ((1.720340e-14 2.950797e-18 -2.092392e-17) (1.271550e-10 2.561186e-15 3.307853e-15))
25119.944899  	((1.629871e-13 -2.393551e-14 6.072046e-14) (1.690687e-14 -1.723044e-13 1.528232e-13)) ((1.717976e-14 3.034241e-18 -2.088086e-17) (1.270149e-10 2.520745e-15 3.233146e-15))
30143.945879  	((1.788018e-13 -1.595905e-14 6.919107e-14) (1.786088e-14 -1.708366e-13 1.513076e-13)) ((1.716089e-14 3.099970e-18 -2.083068e-17) (1.269032e-10 2.486279e-15 3.174076e-15))
36172.747055  	((1.976738e-13 -5.964361e-15 7.861873e-14) (1.858785e-14 -1.695025e-13 1.500563e-13)) ((1.714582e-14 3.132266e-18 -2.082239e-17) (1.268145e-10 2.462543e-15 3.124688e-15))
43407.308466  	((2.210762e-13 7.395505e-15 8.933244e-14) (1.964361e-14 -1.682592e-13 1.491204e-13)) ((1.713390e-14 3.166146e-18 -2.082699e-17) (1.267443e-10 2.449122e-15 3.084370e-15))
52088.782159  	((2.503923e-13 2.596726e-14 1.014575e-13) (2.111373e-14 -1.671329e-13 1.484344e-13)) ((1.712430e-14 3.290731e-18 -2.080925e-17) (1.266887e-10 2.436204e-15 3.051492e-15))
62506.550591  	((2.866666e-13 5.105612e-14 1.167645e-13) (2.312148e-14 -1.658727e-13 1.479149e-13)) ((1.711635e-14 3.409475e-18 -2.086714e-17) (1.266449e-10 2.427533e-15 3.023915e-15))
74961.723769  	((3.331800e-13 8.427310e-14 1.318717e-13) (2.553055e-14 -1.646393e-13 1.474452e-13)) ((1.711027e-14 3.555360e-18 -2.096232e-17) (1.266104e-10 2.423546e-15 3.001788e-15))
89454.308657  	((3.753046e-13 1.186823e-13 1.437004e-13) (2.799497e-14 -1.635064e-13 1.474113e-13)) ((1.709868e-14 5.317487e-18 -2.083291e-17) (1.265833e-10 2.414560e-15 2.977468e-15))
105984.310622 	((4.316447e-13 1.548593e-13 1.557255e-13) (3.014966e-14 -1.622875e-13 1.496519e-13)) ((1.709632e-14 4.978022e-18 -2.051307e-17) (1.265621e-10 2.327394e-15 2.970950e-15))
124551.733802 	((4.922807e-13 2.134477e-13 1.684723e-13) (3.269753e-14 -1.595180e-13 1.479085e-13)) ((1.709126e-14 6.128703e-18 -2.018476e-17) (1.265455e-10 2.385524e-15 3.032142e-15))
144925.977801 	((5.436325e-13 2.850003e-13 1.859094e-13) (3.526439e-14 -1.573768e-13 1.479840e-13)) ((1.707778e-14 4.582123e-18 -2.135477e-17) (1.265326e-10 2.383837e-15 2.996949e-15))
165300.246338 	((5.764406e-13 3.565418e-13 2.023246e-13) (3.470893e-14 -1.541689e-13 1.472104e-13)) ((1.707506e-14 4.748036e-18 -2.341207e-17) (1.265224e-10 2.434819e-15 2.941361e-15))
185674.533282 	((6.442053e-13 4.512196e-13 2.275702e-13) (3.583285e-14 -1.482823e-13 1.475536e-13)) ((1.706746e-14 5.747328e-18 -2.454990e-17) (1.265144e-10 2.372473e-15 2.976807e-15))
206048.834335 	((6.504595e-13 5.852103e-13 2.828662e-13) (3.490803e-14 -1.427540e-13 1.468264e-13)) ((1.705211e-14 5.862026e-18 -2.197424e-17) (1.265086e-10 2.378491e-15 2.950164e-15))
226423.146881 	((6.642526e-13 7.294909e-13 3.379617e-13) (3.325100e-14 -1.416851e-13 1.460269e-13)) ((1.704797e-14 6.746518e-18 -2.140553e-17) (1.265038e-10 2.378885e-15 2.791521e-15))
246797.470504 	((6.561669e-13 8.308387e-13 3.776194e-13) (3.400165e-14 -1.361734e-13 1.457693e-13)) ((1.703218e-14 4.804703e-18 -2.264053e-17) (1.264997e-10 2.367405e-15 2.804397e-15))
267171.804793 	((6.748753e-13 9.005438e-13 3.646330e-13) (3.316588e-14 -1.281725e-13 1.469928e-13)) ((1.701963e-14 4.785213e-18 -2.490680e-17) (1.264963e-10 2.468951e-15 2.846501e-15))
287546.14956  	((6.901007e-13 8.963555e-13 3.345980e-13) (3.339086e-14 -1.252035e-13 1.469548e-13)) ((1.700727e-14 3.115010e-18 -2.369156e-17) (1.264932e-10 2.538906e-15 2.929294e-15))
307920.504946 	((6.985288e-13 8.864682e-13 2.964454e-13) (3.366439e-14 -1.214935e-13 1.417015e-13)) ((1.699868e-14 4.434941e-18 -2.094473e-17) (1.264903e-10 2.447700e-15 2.873697e-15))
328294.869275 	((6.578782e-13 8.422604e-13 2.470730e-13) (3.314279e-14 -1.208181e-13 1.406244e-13)) ((1.698879e-14 1.108726e-18 -2.126476e-17) (1.264875e-10 2.397802e-15 2.807870e-15))
348669.241853 	((5.890726e-13 7.501514e-13 2.226825e-13) (3.137673e-14 -1.227201e-13 1.406994e-13)) ((1.697869e-14 -1.597061e-18 -1.990118e-17) (1.264847e-10 2.298611e-15 2.796480e-15))
369043.621453 	((4.984901e-13 6.252847e-13 1.805343e-13) (2.868404e-14 -1.247544e-13 1.363246e-13)) ((1.697097e-14 -3.638656e-18 -1.897062e-17) (1.264818e-10 2.262927e-15 2.769653e-15))
389418.007099 	((3.718456e-13 4.824972e-13 1.363096e-13) (2.561710e-14 -1.272980e-13 1.303081e-13)) ((1.696549e-14 -3.636834e-18 -1.882480e-17) (1.264786e-10 2.237902e-15 2.771070e-15))
409792.398609 	((2.432494e-13 3.267376e-13 9.343024e-14) (2.127900e-14 -1.310835e-13 1.260579e-13)) ((1.696066e-14 -3.852445e-18 -1.845988e-17) (1.264752e-10 2.234789e-15 2.789076e-15))
430166.795487 	((1.260212e-13 1.864472e-13 6.217925e-14) (1.773078e-14 -1.355583e-13 1.225646e-13)) ((1.695897e-14 -4.437511e-18 -1.807210e-17) (1.264716e-10 2.253924e-15 2.788712e-15))
450541.197036 	((2.839156e-14 7.712318e-14 3.861532e-14) (1.475730e-14 -1.390598e-13 1.203631e-13)) ((1.696016e-14 -5.218264e-18 -1.773747e-17) (1.264681e-10 2.288743e-15 2.755872e-15))
470915.602658 	((-5.862569e-14 -3.054914e-15 2.008618e-14) (1.200702e-14 -1.409441e-13 1.193707e-13)) ((1.696137e-14 -5.162826e-18 -1.754217e-17) (1.264650e-10 2.307836e-15 2.721895e-15))
