# Forces      
# CofR        : (0.000000e+00 0.000000e+00 0.000000e+00)
# Time        forces(pressure viscous)	moments(pressure viscous)
0             	((0.000000e+00 0.000000e+00 0.000000e+00) (0.000000e+00 0.000000e+00 0.000000e+00)) ((0.000000e+00 0.000000e+00 0.000000e+00) (0.000000e+00 0.000000e+00 0.000000e+00))
0.012         	((-1.807204e-12 4.510970e-10 9.267440e-13) (-2.207153e-15 1.145228e-11 -3.781724e-14)) ((-1.188266e-16 8.482138e-17 -1.025842e-11) (4.907812e-17 -9.311607e-16 -1.396973e-08))
0.0264        	((-5.733837e-12 6.603707e-11 -3.984967e-15) (-1.565619e-14 1.691335e-11 -6.858838e-14)) ((8.993938e-17 -8.968357e-16 -4.701526e-12) (1.406502e-17 -2.587653e-15 -1.279646e-08))
0.04368       	((-4.205017e-12 2.099950e-10 3.319301e-12) (-1.989893e-14 1.781511e-11 -9.827538e-14)) ((-1.792841e-16 -1.088491e-15 -2.558725e-12) (-4.267292e-18 -4.628617e-15 -1.158990e-08))
0.064416      	((-6.882331e-12 -2.984024e-11 -2.922200e-12) (-1.663216e-14 1.537846e-11 -1.610631e-13)) ((5.824479e-17 -5.748914e-16 -1.372494e-12) (-2.872635e-16 -7.244384e-15 -1.037674e-08))
0.0892992     	((3.686577e-12 9.328921e-11 2.577337e-12) (-1.199307e-14 1.278884e-11 -2.449254e-13)) ((-2.760548e-16 -1.491221e-15 -1.026492e-12) (-8.962545e-16 -1.052766e-14 -9.192509e-09))
0.119159      	((-2.356592e-12 -1.688938e-11 4.048147e-13) (-9.044389e-15 1.039994e-11 -2.895671e-13)) ((1.223672e-17 -1.085214e-15 -7.650066e-13) (-1.188403e-15 -1.229247e-14 -8.073909e-09))
0.154991      	((1.366656e-12 4.594684e-11 -7.924616e-13) (-4.990574e-15 9.393247e-12 -2.991334e-13)) ((-1.273052e-16 -8.169791e-16 -6.235028e-13) (-1.485420e-15 -1.281543e-14 -7.046748e-09))
0.197989      	((-3.182103e-13 1.417030e-11 -1.237281e-13) (8.410175e-15 8.152272e-12 -2.947108e-13)) ((-2.245647e-16 -7.139516e-16 -5.102225e-13) (-1.940789e-15 -1.284561e-14 -6.136045e-09))
0.249587      	((1.425897e-12 3.686251e-11 1.073334e-12) (1.938263e-14 7.196203e-12 -3.027082e-13)) ((-1.738757e-16 -7.946852e-16 -4.199745e-13) (-2.032347e-15 -1.225580e-14 -5.355457e-09))
0.311504      	((-6.146000e-13 2.132643e-11 4.659023e-13) (1.920200e-14 6.519210e-12 -3.329903e-13)) ((-1.046454e-16 -4.913585e-16 -3.412453e-13) (-1.642621e-15 -1.173109e-14 -4.703117e-09))
0.385805      	((-2.449237e-12 1.664588e-11 -1.260862e-13) (1.019946e-14 6.211645e-12 -3.683430e-13)) ((-4.585361e-17 -1.914883e-16 -2.804752e-13) (-5.582902e-16 -1.189930e-14 -4.164927e-09))
0.474966      	((-4.504712e-12 1.682108e-11 5.256010e-13) (-9.358481e-15 6.202894e-12 -3.767284e-13)) ((-2.415320e-18 -1.143796e-16 -2.393159e-13) (-1.613122e-16 -1.185916e-14 -3.719704e-09))
0.581959      	((-3.526570e-12 1.150113e-11 4.591410e-13) (3.556894e-14 5.686657e-12 -2.925394e-13)) ((-3.201771e-17 1.467523e-16 -2.031444e-13) (-4.208696e-16 -8.003669e-15 -3.345460e-09))
0.710351      	((-5.605772e-12 8.675162e-12 -3.306929e-13) (9.790312e-14 4.870272e-12 -1.597228e-13)) ((1.116932e-16 2.765384e-16 -1.684219e-13) (-3.316050e-16 -1.599193e-15 -3.023966e-09))
0.864421      	((-5.211722e-12 1.506266e-11 -7.298706e-13) (1.251434e-13 4.739970e-12 -6.896889e-14)) ((1.923934e-16 5.994800e-16 -1.441964e-13) (4.791580e-16 3.966526e-15 -2.742369e-09))
1.049306      	((-5.566165e-12 2.375926e-11 -5.320251e-13) (1.652978e-13 4.493957e-12 2.955415e-14)) ((2.158807e-16 7.696634e-16 -1.299083e-13) (-9.097824e-16 7.033319e-15 -2.492136e-09))
1.271167      	((-7.115662e-12 2.693979e-11 -6.405487e-14) (1.793169e-13 4.051871e-12 1.637356e-13)) ((1.700669e-16 7.786451e-16 -1.186070e-13) (-4.579812e-15 7.562507e-15 -2.267482e-09))
1.5374        	((-8.027590e-12 2.919246e-11 -2.142713e-13) (3.609284e-13 4.301704e-12 2.867899e-13)) ((1.941858e-16 1.125828e-15 -1.094691e-13) (-1.023716e-14 4.496893e-15 -2.064719e-09))
1.85688       	((-9.600001e-12 4.015883e-11 -1.150995e-12) (7.396847e-13 4.883524e-12 2.595532e-13)) ((2.330879e-16 1.214503e-15 -1.023653e-13) (-1.864862e-14 -5.358880e-15 -1.881798e-09))
2.240256      	((-7.570987e-12 2.768208e-11 -6.363577e-14) (1.225086e-12 4.449144e-12 2.157189e-13)) ((2.512476e-16 1.293327e-15 -9.971790e-14) (-3.167526e-14 -2.042396e-14 -1.717687e-09))
2.700307      	((-7.423009e-12 1.652387e-11 7.912471e-14) (1.931510e-12 3.059425e-12 2.984288e-13)) ((1.981612e-16 1.308944e-15 -9.665368e-14) (-4.994749e-14 -3.837576e-14 -1.571648e-09))
3.252369      	((-5.832642e-12 1.199945e-11 9.640002e-14) (2.779452e-12 1.830779e-12 4.680906e-13)) ((1.067271e-16 1.219628e-15 -9.183508e-14) (-6.900030e-14 -5.114421e-14 -1.442639e-09))
3.914842      	((-4.432953e-12 7.799416e-12 4.726901e-13) (3.678064e-12 7.152062e-13 4.391440e-13)) ((1.957774e-16 1.002855e-15 -8.469206e-14) (-8.147676e-14 -6.581648e-14 -1.329079e-09))
4.709811      	((-7.425844e-13 4.286615e-12 5.350281e-13) (4.448199e-12 -8.275262e-13 2.497640e-13)) ((8.369413e-17 7.375334e-16 -7.633691e-14) (-8.720619e-14 -7.634497e-14 -1.228987e-09))
5.663773      	((9.707969e-13 -1.753545e-12 -2.701301e-14) (4.941743e-12 -2.785421e-12 4.879220e-14)) ((-5.138934e-17 5.064792e-16 -6.884771e-14) (-8.867662e-14 -8.101838e-14 -1.140082e-09))
6.808528      	((1.429661e-12 -1.532560e-12 6.043748e-14) (5.027100e-12 -3.596090e-12 -2.053575e-14)) ((-6.373142e-17 2.725375e-16 -6.191910e-14) (-8.418649e-14 -7.707193e-14 -1.060144e-09))
8.182233      	((1.938978e-12 -4.035591e-12 -3.133843e-13) (4.616621e-12 -3.231762e-12 -7.378241e-16)) ((-1.010281e-16 1.692268e-16 -5.585095e-14) (-7.249331e-14 -6.425032e-14 -9.875065e-10))
9.83068       	((1.766491e-12 -1.537771e-12 7.301889e-14) (4.001835e-12 -2.345949e-12 -4.962632e-14)) ((-1.864458e-16 -5.717547e-17 -5.096827e-14) (-5.748653e-14 -5.204179e-14 -9.210011e-10))
11.808816     	((2.146590e-13 1.691332e-12 -1.996721e-13) (3.182692e-12 -1.135225e-12 2.077477e-14)) ((-2.120814e-16 -1.491970e-16 -4.674160e-14) (-4.342025e-14 -3.627345e-14 -8.598406e-10))
14.182579     	((-4.075184e-13 1.495008e-12 -8.864626e-14) (2.358572e-12 -4.207330e-13 -3.792701e-14)) ((-2.175091e-16 -3.212407e-16 -4.342099e-14) (-3.099956e-14 -2.650885e-14 -8.035194e-10))
17.031095     	((-3.884325e-13 1.166809e-12 6.190312e-15) (1.691521e-12 -9.926070e-14 -1.121989e-13)) ((-2.051270e-16 -3.974848e-16 -4.085172e-14) (-2.202444e-14 -1.888490e-14 -7.517424e-10))
20.449314     	((-6.822166e-13 2.003156e-12 -1.243417e-13) (1.206213e-12 1.887020e-13 -4.256463e-14)) ((-1.748989e-16 -4.438147e-16 -3.879882e-14) (-1.653950e-14 -9.756835e-15 -7.043008e-10))
24.551176     	((-5.597327e-13 2.566640e-12 -1.400584e-13) (9.039141e-13 1.009853e-13 2.000103e-14)) ((-1.457589e-16 -4.189922e-16 -3.693434e-14) (-1.245723e-14 -5.056236e-15 -6.609514e-10))
29.473411     	((-5.409942e-13 2.321721e-12 -7.111234e-14) (7.133017e-13 -1.632115e-13 4.885053e-14)) ((-1.298040e-16 -3.686249e-16 -3.543830e-14) (-1.066898e-14 -4.177363e-15 -6.214067e-10))
35.380094     	((-8.267595e-13 2.368445e-12 -9.663140e-14) (6.193001e-13 -4.615797e-13 2.422992e-14)) ((-1.364022e-16 -3.587765e-16 -3.407456e-14) (-1.016443e-14 -6.160102e-15 -5.853128e-10))
42.468112     	((-6.492206e-13 2.198075e-12 -1.006598e-13) (6.083860e-13 -7.592129e-13 1.459943e-14)) ((-1.593947e-16 -3.252740e-16 -3.300197e-14) (-1.100821e-14 -8.072647e-15 -5.523641e-10))
50.973735     	((-4.488754e-13 2.286446e-12 -5.406301e-14) (6.558160e-13 -1.102832e-12 4.148994e-14)) ((-1.531027e-16 -3.108737e-16 -3.197578e-14) (-1.250133e-14 -9.083070e-15 -5.223143e-10))
61.180482     	((-7.284756e-13 2.029194e-12 -2.352924e-14) (7.101927e-13 -1.401393e-12 8.071103e-14)) ((-1.253203e-16 -2.841180e-16 -3.120437e-14) (-1.470913e-14 -9.789696e-15 -4.949494e-10))
73.428578     	((-1.870751e-13 1.782536e-12 -1.831082e-14) (8.217364e-13 -1.668164e-12 7.884570e-14)) ((-1.126825e-16 -2.552891e-16 -3.071296e-14) (-1.670605e-14 -1.151887e-14 -4.700857e-10))
88.126294     	((-3.350855e-13 1.799230e-12 5.612485e-14) (9.021366e-13 -1.882345e-12 8.121453e-14)) ((-9.903172e-17 -2.126143e-16 -3.023484e-14) (-1.767361e-14 -1.326888e-14 -4.475388e-10))
105.763553    	((-1.838827e-13 1.699498e-12 1.431463e-14) (9.521951e-13 -1.982209e-12 6.550196e-14)) ((-8.184405e-17 -1.718621e-16 -2.970958e-14) (-1.823624e-14 -1.423717e-14 -4.271251e-10))
126.928263    	((-9.737988e-14 1.451569e-12 2.389447e-14) (9.234097e-13 -1.947380e-12 4.182297e-14)) ((-6.844404e-17 -1.428822e-16 -2.926408e-14) (-1.781741e-14 -1.443374e-14 -4.086681e-10))
152.325916    	((1.448075e-13 1.398243e-12 2.204461e-15) (8.602700e-13 -1.860392e-12 1.003337e-14)) ((-6.256343e-17 -1.236877e-16 -2.885060e-14) (-1.685859e-14 -1.419098e-14 -3.919780e-10))
182.803099    	((1.763525e-13 1.378753e-12 3.011951e-14) (7.981870e-13 -1.797431e-12 -4.771738e-15)) ((-5.308443e-17 -1.015306e-16 -2.847177e-14) (-1.603536e-14 -1.339421e-14 -3.768565e-10))
219.375719    	((2.386210e-13 1.595244e-12 -2.896403e-14) (7.535376e-13 -1.791424e-12 -1.846622e-14)) ((-4.668872e-17 -9.907466e-17 -2.814891e-14) (-1.547817e-14 -1.304231e-14 -3.631245e-10))
263.262863    	((1.901635e-13 1.723680e-12 -1.731296e-14) (7.786016e-13 -1.848572e-12 -2.865971e-14)) ((-4.775899e-17 -9.654609e-17 -2.783169e-14) (-1.497409e-14 -1.286965e-14 -3.506355e-10))
315.927436    	((2.313136e-13 1.863893e-12 -6.824147e-15) (7.942864e-13 -1.834403e-12 -3.082230e-14)) ((-5.420840e-17 -9.807083e-17 -2.751876e-14) (-1.476312e-14 -1.316863e-14 -3.392742e-10))
379.124923    	((1.668933e-13 1.954618e-12 6.855101e-15) (7.636897e-13 -1.775371e-12 -2.650422e-14)) ((-4.879296e-17 -9.525510e-17 -2.722300e-14) (-1.466224e-14 -1.318393e-14 -3.289475e-10))
454.961908    	((1.612811e-13 2.077747e-12 -2.944682e-14) (7.376021e-13 -1.701815e-12 -1.916085e-14)) ((-3.959373e-17 -8.813623e-17 -2.694302e-14) (-1.437697e-14 -1.280907e-14 -3.195844e-10))
545.966289    	((1.501636e-13 2.082507e-12 -1.909964e-14) (7.054188e-13 -1.686825e-12 -1.430175e-14)) ((-3.043891e-17 -7.445452e-17 -2.668587e-14) (-1.385173e-14 -1.264242e-14 -3.111208e-10))
655.171547    	((8.276671e-14 2.200281e-12 8.098525e-15) (6.381794e-13 -1.662244e-12 -1.802643e-14)) ((-2.738819e-17 -6.555271e-17 -2.644762e-14) (-1.298890e-14 -1.202695e-14 -3.034957e-10))
786.217856    	((-1.223092e-14 2.191775e-12 2.665870e-14) (5.779407e-13 -1.644496e-12 -2.774188e-14)) ((-2.753312e-17 -6.079787e-17 -2.622474e-14) (-1.187687e-14 -1.138086e-14 -2.966502e-10))
943.473427    	((2.644623e-14 2.134478e-12 -2.306501e-14) (5.779330e-13 -1.625991e-12 -3.120057e-14)) ((-2.674573e-17 -5.751661e-17 -2.600313e-14) (-1.093847e-14 -1.075331e-14 -2.905318e-10))
1132.180113   	((8.332004e-14 2.129845e-12 -6.220908e-14) (5.911690e-13 -1.593461e-12 -3.046629e-14)) ((-2.777996e-17 -5.784400e-17 -2.579817e-14) (-1.002329e-14 -1.007288e-14 -2.850929e-10))
1358.628135   	((8.751426e-14 2.165135e-12 -7.342148e-14) (5.910333e-13 -1.558479e-12 -2.650470e-14)) ((-2.625512e-17 -5.618476e-17 -2.560588e-14) (-9.145162e-15 -9.483446e-15 -2.802847e-10))
1630.365763   	((6.659895e-14 2.225018e-12 -7.039133e-14) (6.015222e-13 -1.532331e-12 -2.758958e-14)) ((-2.884650e-17 -5.688870e-17 -2.543184e-14) (-8.516473e-15 -9.088144e-15 -2.760558e-10))
1956.450915   	((1.233526e-13 2.278057e-12 -4.919398e-14) (6.036176e-13 -1.505716e-12 -3.364336e-14)) ((-2.823600e-17 -6.034544e-17 -2.527077e-14) (-7.882116e-15 -8.797120e-15 -2.723579e-10))
2347.753098   	((1.337901e-13 2.289232e-12 -2.408090e-14) (5.950648e-13 -1.467554e-12 -4.010629e-14)) ((-2.476559e-17 -6.304222e-17 -2.512879e-14) (-7.364076e-15 -8.491205e-15 -2.691439e-10))
2817.315718   	((1.005956e-13 2.305445e-12 -1.584632e-14) (5.723420e-13 -1.426709e-12 -4.884302e-14)) ((-2.260528e-17 -6.473466e-17 -2.500550e-14) (-6.894829e-15 -8.171084e-15 -2.663690e-10))
3380.790861   	((7.495886e-14 2.334296e-12 -6.069896e-15) (5.484886e-13 -1.383992e-12 -5.519473e-14)) ((-2.307367e-17 -6.354105e-17 -2.489840e-14) (-6.488876e-15 -7.833417e-15 -2.639889e-10))
4056.961033   	((9.941940e-14 2.346268e-12 2.154249e-14) (5.282010e-13 -1.346381e-12 -5.679568e-14)) ((-2.398852e-17 -6.209290e-17 -2.480390e-14) (-6.099901e-15 -7.544851e-15 -2.619609e-10))
4868.36524    	((1.246663e-13 2.376822e-12 6.290776e-14) (5.106185e-13 -1.310695e-12 -5.546061e-14)) ((-2.376160e-17 -6.082204e-17 -2.472419e-14) (-5.752491e-15 -7.303268e-15 -2.602451e-10))
5842.050288   	((1.251891e-13 2.416463e-12 1.032922e-13) (4.952832e-13 -1.279561e-12 -5.211914e-14)) ((-2.353347e-17 -5.827944e-17 -2.465756e-14) (-5.392346e-15 -7.059464e-15 -2.588040e-10))
7010.472346   	((1.196781e-13 2.425726e-12 1.303487e-13) (4.824905e-13 -1.255768e-12 -4.878129e-14)) ((-2.354983e-17 -5.691013e-17 -2.460190e-14) (-5.013645e-15 -6.809666e-15 -2.576025e-10))
8412.578815   	((1.139698e-13 2.423312e-12 1.337751e-13) (4.724823e-13 -1.234767e-12 -4.478252e-14)) ((-2.461131e-17 -5.452530e-17 -2.455874e-14) (-4.540628e-15 -6.595635e-15 -2.566077e-10))
10095.106578  	((1.361404e-13 2.413501e-12 1.323001e-13) (4.624471e-13 -1.224085e-12 -4.257951e-14)) ((-2.515952e-17 -5.366998e-17 -2.452415e-14) (-4.165716e-15 -6.372568e-15 -2.557897e-10))
12114.139893  	((1.746822e-13 2.392701e-12 1.242349e-13) (4.512557e-13 -1.212972e-12 -4.092987e-14)) ((-2.544656e-17 -5.304502e-17 -2.449232e-14) (-3.848868e-15 -6.172946e-15 -2.551216e-10))
14536.979872  	((2.106274e-13 2.371201e-12 1.241506e-13) (4.424057e-13 -1.203941e-12 -3.966899e-14)) ((-2.696800e-17 -5.184773e-17 -2.446594e-14) (-3.597116e-15 -5.952007e-15 -2.545789e-10))
17444.387847  	((2.613693e-13 2.357474e-12 1.145323e-13) (4.329127e-13 -1.196616e-12 -3.725901e-14)) ((-2.698741e-17 -5.156598e-17 -2.444441e-14) (-3.460586e-15 -5.819085e-15 -2.541406e-10))
20933.277416  	((3.272724e-13 2.347054e-12 1.071340e-13) (4.235639e-13 -1.190771e-12 -3.591440e-14)) ((-2.701078e-17 -5.119588e-17 -2.442678e-14) (-3.331418e-15 -5.788933e-15 -2.537883e-10))
25119.944899  	((4.135159e-13 2.344578e-12 9.841758e-14) (4.155728e-13 -1.186476e-12 -3.519655e-14)) ((-2.702822e-17 -5.082606e-17 -2.441256e-14) (-3.217664e-15 -5.797344e-15 -2.535063e-10))
30143.945879  	((5.225111e-13 2.353067e-12 9.003239e-14) (4.095447e-13 -1.183065e-12 -3.488031e-14)) ((-2.711574e-17 -5.065494e-17 -2.440135e-14) (-3.125625e-15 -5.817219e-15 -2.532812e-10))
36172.747055  	((6.605598e-13 2.372833e-12 8.045870e-14) (4.046583e-13 -1.180380e-12 -3.475127e-14)) ((-2.716182e-17 -5.054705e-17 -2.439218e-14) (-3.050884e-15 -5.838405e-15 -2.531023e-10))
43222.642226  	((8.278523e-13 2.408824e-12 7.489630e-14) (4.004768e-13 -1.177968e-12 -3.459374e-14)) ((-2.721152e-17 -5.075912e-17 -2.438484e-14) (-2.988488e-15 -5.854552e-15 -2.529604e-10))
51293.638808  	((1.016924e-12 2.458078e-12 6.465678e-14) (3.964805e-13 -1.176297e-12 -3.448871e-14)) ((-2.708686e-17 -5.127647e-17 -2.437890e-14) (-2.921297e-15 -5.861499e-15 -2.528482e-10))
60385.7426    	((1.205754e-12 2.521141e-12 5.073313e-14) (3.924279e-13 -1.175719e-12 -3.432818e-14)) ((-2.699994e-17 -5.241015e-17 -2.437360e-14) (-2.839652e-15 -5.872999e-15 -2.527596e-10))
70498.958133  	((1.398903e-12 2.578082e-12 1.959579e-14) (3.857297e-13 -1.176598e-12 -3.584922e-14)) ((-2.818367e-17 -5.523183e-17 -2.436883e-14) (-2.781981e-15 -5.950541e-15 -2.526896e-10))
80710.110834  	((1.529076e-12 2.668224e-12 7.090356e-14) (3.810030e-13 -1.177345e-12 -3.774337e-14)) ((-2.049159e-17 -4.695623e-17 -2.435903e-14) (-2.997910e-15 -5.956540e-15 -2.526349e-10))
90921.290741  	((1.621395e-12 2.795643e-12 3.632024e-14) (3.758910e-13 -1.170862e-12 -3.431315e-14)) ((-3.041816e-17 -6.133100e-17 -2.435317e-14) (-2.639121e-15 -5.757086e-15 -2.525918e-10))
101132.491787 	((1.709272e-12 2.935806e-12 3.090311e-14) (3.729323e-13 -1.163222e-12 -3.583223e-14)) ((-2.385085e-17 -5.448148e-17 -2.435111e-14) (-2.847359e-15 -5.731040e-15 -2.525579e-10))
111343.709404 	((1.677270e-12 3.080555e-12 1.389555e-14) (3.747185e-13 -1.168777e-12 -3.706166e-14)) ((-1.520690e-17 -5.034514e-17 -2.433244e-14) (-3.044183e-15 -5.679674e-15 -2.525317e-10))
121554.940017 	((1.624506e-12 3.195493e-12 -4.098434e-15) (3.781698e-13 -1.178484e-12 -3.666087e-14)) ((-3.017963e-17 -4.939388e-17 -2.431244e-14) (-3.091902e-15 -5.858757e-15 -2.525114e-10))
131766.180945 	((1.638298e-12 3.420676e-12 -2.155775e-14) (3.794446e-13 -1.184944e-12 -3.943843e-14)) ((-3.020366e-17 -5.229479e-17 -2.428899e-14) (-2.984591e-15 -5.759175e-15 -2.524958e-10))
141977.430221 	((1.611427e-12 3.556259e-12 -5.783114e-14) (3.746010e-13 -1.197887e-12 -3.819083e-14)) ((-3.440156e-17 -5.518439e-17 -2.425605e-14) (-2.766910e-15 -5.779585e-15 -2.524836e-10))
152188.68682  	((1.714548e-12 3.685448e-12 -1.235347e-13) (3.731845e-13 -1.193426e-12 -3.950543e-14)) ((-3.333927e-17 -5.339107e-17 -2.422695e-14) (-2.773784e-15 -5.627417e-15 -2.524736e-10))
162399.949163 	((1.835303e-12 3.853944e-12 2.668138e-14) (3.789930e-13 -1.167644e-12 -4.435901e-14)) ((-1.703796e-17 -6.158595e-17 -2.422017e-14) (-3.244994e-15 -5.081797e-15 -2.524663e-10))
172611.216265 	((1.912533e-12 4.027324e-12 -4.028079e-14) (3.726413e-13 -1.163367e-12 -4.145820e-14)) ((-3.131853e-17 -4.597373e-17 -2.418458e-14) (-3.519564e-15 -5.015043e-15 -2.524597e-10))
182822.48774  	((1.967490e-12 4.219511e-12 -6.950730e-14) (3.744102e-13 -1.156632e-12 -4.907794e-14)) ((-4.912874e-17 -4.142966e-17 -2.416787e-14) (-3.741163e-15 -4.750292e-15 -2.524530e-10))
193033.76315  	((2.049275e-12 4.395271e-12 -1.195226e-13) (3.733300e-13 -1.142463e-12 -5.592415e-14)) ((-4.613999e-17 -3.805208e-17 -2.415266e-14) (-3.957819e-15 -4.767392e-15 -2.524460e-10))
203245.042135 	((2.036921e-12 4.459486e-12 -1.418650e-13) (3.794709e-13 -1.125197e-12 -6.324722e-14)) ((-4.217933e-17 -4.508554e-17 -2.413798e-14) (-3.842394e-15 -4.900074e-15 -2.524391e-10))
213456.324397 	((1.966482e-12 4.369007e-12 -1.035966e-13) (3.784555e-13 -1.115199e-12 -5.558541e-14)) ((-3.440906e-17 -5.601401e-17 -2.412353e-14) (-3.611456e-15 -5.081980e-15 -2.524323e-10))
223667.609713 	((1.911538e-12 4.133183e-12 -8.014845e-14) (3.717600e-13 -1.107790e-12 -5.299113e-14)) ((-3.350472e-17 -5.653219e-17 -2.410902e-14) (-3.365180e-15 -5.087105e-15 -2.524254e-10))
233878.897794 	((1.867756e-12 3.875317e-12 -7.569892e-14) (3.601980e-13 -1.105888e-12 -5.401963e-14)) ((-3.030362e-17 -5.719701e-17 -2.409218e-14) (-3.224367e-15 -4.948529e-15 -2.524187e-10))
