# Forces      
# CofR        : (0.000000e+00 0.000000e+00 0.000000e+00)
# Time        forces(pressure viscous)	moments(pressure viscous)
0             	((0.000000e+00 0.000000e+00 0.000000e+00) (0.000000e+00 0.000000e+00 0.000000e+00)) ((0.000000e+00 0.000000e+00 0.000000e+00) (0.000000e+00 0.000000e+00 0.000000e+00))
0.012         	((5.084408e-10 -9.010568e-08 -1.742727e-10) (4.716615e-12 -2.294066e-09 7.424125e-12)) ((2.594620e-14 -3.292748e-15 2.053207e-09) (-1.081652e-15 2.122213e-13 2.787359e-06))
0.0264        	((1.368772e-09 -1.331705e-08 9.888692e-13) (1.363554e-11 -3.388159e-09 1.345139e-11)) ((-1.031096e-14 2.017118e-13 9.473772e-10) (1.287205e-14 5.674049e-13 2.553346e-06))
0.04368       	((1.545163e-09 -4.240000e-08 -6.836792e-10) (6.320062e-12 -3.586566e-09 1.975210e-11)) ((4.683844e-14 2.353264e-13 5.237941e-10) (9.666986e-15 1.002610e-12 2.312953e-06))
0.064416      	((2.059152e-09 5.312367e-09 5.213183e-10) (-2.584183e-11 -3.118795e-09 3.277408e-11)) ((-2.108274e-16 1.350887e-13 2.899861e-10) (6.005101e-14 1.526712e-12 2.071722e-06))
0.0892992     	((6.066548e-10 -1.886609e-08 -5.597437e-10) (-6.186032e-11 -2.623520e-09 5.060124e-11)) ((7.144703e-14 3.081807e-13 2.227760e-10) (2.468620e-13 2.181218e-12 1.836947e-06))
0.119159      	((4.932831e-11 2.549407e-09 -6.140188e-11) (-8.309603e-11 -2.189287e-09 6.292490e-11)) ((2.249918e-14 2.190880e-13 1.711900e-10) (4.350718e-13 2.622152e-12 1.616058e-06))
0.154991      	((-1.687772e-11 -9.617364e-09 -3.340091e-11) (-9.540633e-11 -2.052630e-09 7.101705e-11)) ((3.982305e-14 1.709025e-13 1.429715e-10) (6.273876e-13 2.862946e-12 1.414265e-06))
0.197989      	((-4.135818e-10 -3.910633e-09 -1.529822e-10) (-9.235626e-11 -1.901235e-09 7.322562e-11)) ((4.616488e-14 1.772029e-13 1.181525e-10) (6.580138e-13 2.906055e-12 1.235604e-06))
0.249587      	((6.130215e-11 -5.996534e-09 -1.764518e-10) (-5.756233e-11 -1.763323e-09 7.136302e-11)) ((2.783987e-14 1.281513e-13 9.780456e-11) (5.328065e-13 2.865504e-12 1.081938e-06))
0.311504      	((-8.873772e-11 -4.891135e-09 -1.929425e-10) (-3.353829e-12 -1.625687e-09 6.773466e-11)) ((3.206616e-14 7.320323e-14 8.056681e-11) (2.822544e-13 2.742141e-12 9.526702e-07))
0.385805      	((1.945856e-09 -4.463136e-09 5.634917e-11) (-6.179323e-12 -1.472603e-09 6.663553e-11)) ((4.109779e-14 1.712313e-14 6.773503e-11) (9.197390e-14 2.598842e-12 8.450169e-07))
0.474966      	((1.167408e-10 -5.299241e-09 -2.945983e-11) (1.515187e-12 -1.333225e-09 7.380363e-11)) ((4.084132e-14 6.208204e-15 5.864218e-11) (1.278693e-14 2.515972e-12 7.549117e-07))
0.581959      	((8.272995e-10 -3.885983e-09 -5.288679e-11) (-6.489634e-12 -1.184884e-09 6.619527e-11)) ((1.036296e-14 -2.245297e-14 4.977861e-11) (-5.753264e-15 2.017339e-12 6.784496e-07))
0.710351      	((7.551561e-10 -3.827204e-09 -3.248012e-11) (-1.380702e-10 -1.030181e-09 4.255010e-11)) ((2.453564e-14 -7.229296e-14 4.104411e-11) (2.912646e-13 1.230445e-12 6.124917e-07))
0.864421      	((1.622698e-09 -5.219415e-09 -1.522865e-10) (-2.423104e-10 -8.311864e-10 2.202929e-11)) ((-1.154010e-14 -1.284453e-13 3.506873e-11) (6.917447e-13 4.876232e-13 5.547288e-07))
1.049306      	((3.511103e-09 -4.834621e-09 -7.077074e-11) (-3.166297e-10 -5.873092e-10 1.422389e-11)) ((-6.389665e-14 -1.755675e-13 3.126249e-11) (8.109388e-13 5.015981e-14 5.035076e-07))
1.271167      	((3.639555e-09 -5.503306e-09 -1.112001e-10) (-3.777931e-10 -4.297499e-10 3.099344e-12)) ((-1.238314e-13 -1.954345e-13 2.838724e-11) (1.005371e-12 8.073226e-13 4.576561e-07))
1.5374        	((2.703770e-09 -6.068605e-09 2.611678e-11) (-4.235867e-10 -3.164500e-10 -3.777804e-12)) ((-1.744405e-13 -2.035496e-13 2.571358e-11) (1.585788e-12 2.858661e-12 4.164167e-07))
1.85688       	((1.851006e-09 -7.680937e-09 -9.871661e-11) (-3.525451e-10 -2.435184e-10 -6.385872e-12)) ((-2.059945e-13 -2.127838e-13 2.319872e-11) (2.668341e-12 5.311660e-12 3.793668e-07))
2.240256      	((1.275141e-09 -6.765839e-09 2.115980e-10) (-3.280660e-10 -2.762204e-10 -1.546577e-11)) ((-2.313469e-13 -2.016676e-13 2.141413e-11) (4.528155e-12 7.310468e-12 3.462864e-07))
2.700307      	((2.261934e-09 -6.263462e-09 2.252494e-10) (-4.055504e-10 -2.961274e-10 -3.717381e-11)) ((-2.384753e-13 -2.022381e-13 1.969106e-11) (6.889138e-12 8.954364e-12 3.170006e-07))
3.252369      	((2.561645e-09 -4.306104e-09 1.891542e-10) (-4.302231e-10 -9.704390e-11 -6.049487e-11)) ((-1.993575e-13 -1.626257e-13 1.771586e-11) (9.582248e-12 1.001929e-11 2.912490e-07))
3.914842      	((2.397640e-09 -1.335644e-09 6.529902e-11) (-4.499109e-10 1.801673e-10 -4.814287e-11)) ((-2.107136e-13 -8.490910e-14 1.569324e-11) (1.106821e-11 1.082759e-11 2.686422e-07))
4.709811      	((1.717456e-10 1.031697e-10 8.969041e-11) (-5.599798e-10 3.926295e-10 -3.478146e-11)) ((-1.781735e-13 1.770506e-14 1.373312e-11) (1.039859e-11 1.137049e-11 2.486948e-07))
5.663773      	((7.419254e-10 1.480435e-09 -9.724584e-12) (-5.711144e-10 6.393296e-10 -4.629155e-11)) ((-1.333501e-13 5.315827e-14 1.190111e-11) (9.279108e-12 1.121440e-11 2.309102e-07))
6.808528      	((4.957562e-10 9.445812e-10 -5.689684e-11) (-5.566488e-10 6.253023e-10 -4.218546e-11)) ((-8.617100e-14 5.726819e-14 1.049800e-11) (7.649944e-12 1.100765e-11 2.148582e-07))
8.182233      	((7.338632e-10 8.953241e-10 -5.730747e-11) (-5.100029e-10 5.443860e-10 -4.465392e-11)) ((-4.446237e-14 6.374152e-14 9.457587e-12) (5.504220e-12 1.022858e-11 2.002357e-07))
9.83068       	((4.858410e-10 5.470726e-10 -1.456407e-10) (-4.418064e-10 4.586032e-10 -5.717801e-11)) ((-4.711849e-14 7.857852e-14 8.615915e-12) (4.243459e-12 9.096753e-12 1.868357e-07))
11.808816     	((8.810464e-10 1.876750e-10 -8.845969e-11) (-3.691536e-10 3.111936e-10 -6.622822e-11)) ((-2.253858e-14 8.891226e-14 7.953802e-12) (3.564260e-12 7.288713e-12 1.744946e-07))
14.182579     	((7.145746e-10 -3.499117e-10 -1.099122e-10) (-3.402074e-10 2.711077e-10 -7.711570e-11)) ((1.959278e-14 8.526201e-14 7.373446e-12) (3.279721e-12 4.801740e-12 1.630997e-07))
17.031095     	((8.312394e-10 -3.297358e-11 -6.476775e-11) (-3.266828e-10 1.634216e-10 -9.240157e-11)) ((2.435740e-14 9.434465e-14 6.866943e-12) (3.334762e-12 2.927896e-12 1.526004e-07))
20.449314     	((4.074444e-10 -4.540616e-11 -1.439842e-11) (-3.771858e-10 9.556473e-11 -8.641344e-11)) ((3.806503e-14 1.016254e-13 6.443836e-12) (3.351551e-12 1.562912e-12 1.429803e-07))
24.551176     	((-8.566121e-11 6.799958e-11 7.716656e-12) (-3.117529e-10 3.524564e-11 -6.993628e-11)) ((5.527162e-14 9.284499e-14 6.092179e-12) (3.639351e-12 3.584179e-13 1.342186e-07))
29.473411     	((-3.338659e-10 -1.969139e-10 1.876761e-11) (-2.305466e-10 -1.897386e-11 -5.142359e-11)) ((7.335731e-14 7.414442e-14 5.800640e-12) (4.064649e-12 -6.748445e-13 1.262755e-07))
35.380094     	((-4.882594e-10 -1.582700e-10 2.548621e-12) (-2.038729e-10 -4.178458e-12 -3.655926e-11)) ((8.233275e-14 5.142089e-14 5.558303e-12) (4.292383e-12 -1.288369e-12 1.190951e-07))
42.468112     	((-3.742316e-10 -1.290019e-10 -4.658847e-11) (-7.381014e-11 -1.459245e-11 -2.371501e-11)) ((8.175153e-14 5.304875e-14 5.331491e-12) (4.289728e-12 -1.643161e-12 1.126105e-07))
50.973735     	((-2.140238e-10 -3.555002e-10 -3.043854e-11) (1.356045e-11 -9.677050e-11 -2.536616e-11)) ((7.164013e-14 6.612777e-14 5.074768e-12) (4.317282e-12 -1.630752e-12 1.067425e-07))
61.180482     	((-1.003468e-10 -2.030985e-10 -6.132848e-11) (6.904273e-11 -5.766744e-11 -1.586503e-11)) ((6.406934e-14 6.856992e-14 4.858697e-12) (4.372302e-12 -1.050192e-12 1.014109e-07))
73.428578     	((2.728780e-11 -1.776151e-10 -3.865022e-11) (8.121021e-11 -3.486340e-11 7.697824e-12)) ((6.004572e-14 7.061525e-14 4.686204e-12) (3.895179e-12 -6.875918e-13 9.655752e-08))
88.126294     	((1.654853e-10 -2.524846e-11 -2.715823e-11) (1.940900e-10 1.079161e-10 2.645391e-11)) ((5.776528e-14 7.132965e-14 4.517407e-12) (3.048474e-12 -5.542146e-13 9.214809e-08))
105.763553    	((7.114432e-11 -2.166626e-10 -2.742890e-11) (2.291151e-10 1.035017e-10 3.398696e-11)) ((6.023697e-14 6.876517e-14 4.301627e-12) (2.372018e-12 -1.641893e-13 8.815762e-08))
126.928263    	((2.504756e-11 -3.285446e-10 -9.648156e-12) (9.593711e-11 5.628615e-11 3.869800e-11)) ((5.560993e-14 6.209546e-14 4.138448e-12) (1.722957e-12 4.934968e-13 8.456502e-08))
152.325916    	((-1.309292e-11 -3.955451e-10 4.804914e-13) (-2.799084e-11 -2.077109e-11 3.544309e-11)) ((5.297732e-14 5.784248e-14 4.040301e-12) (8.289097e-13 9.845091e-13 8.134566e-08))
182.803099    	((-1.647676e-10 -4.898358e-10 -2.903983e-11) (-7.397336e-11 4.020788e-11 3.206724e-11)) ((5.162764e-14 5.088298e-14 3.969031e-12) (-2.497377e-13 1.486173e-12 7.847393e-08))
218.387076    	((-2.689256e-10 -5.393626e-10 -3.215130e-11) (-9.404407e-11 6.978507e-11 3.400501e-11)) ((4.623435e-14 4.685454e-14 3.918012e-12) (-1.293066e-12 1.767556e-12 7.594895e-08))
259.076698    	((-4.159167e-10 -5.837562e-10 -2.164532e-11) (-1.553849e-10 8.095924e-12 3.840884e-11)) ((4.447812e-14 4.246852e-14 3.867757e-12) (-2.144731e-12 1.875034e-12 7.375361e-08))
304.870742    	((-3.442836e-10 -5.803292e-10 -6.328045e-11) (-1.860979e-10 -2.548921e-11 3.209187e-11)) ((4.169593e-14 4.368227e-14 3.828998e-12) (-2.801492e-12 1.699607e-12 7.186945e-08))
355.767854    	((-3.697520e-10 -5.938226e-10 -4.287098e-11) (-1.723264e-10 -4.608798e-11 2.559947e-11)) ((3.927066e-14 4.654633e-14 3.786790e-12) (-2.919327e-12 1.012186e-12 7.027075e-08))
406.783794    	((-3.061940e-10 -5.666816e-10 -3.723536e-11) (-1.503801e-10 -5.853697e-11 2.272342e-11)) ((3.837689e-14 4.665953e-14 3.748910e-12) (-2.617920e-12 1.811812e-13 6.896709e-08))
457.785683    	((-2.950300e-10 -5.350434e-10 -1.495972e-11) (-1.312779e-10 -5.279125e-11 2.706281e-11)) ((3.301927e-14 4.405433e-14 3.709314e-12) (-2.159860e-12 -3.944495e-13 6.791619e-08))
508.772147    	((-3.000774e-10 -4.967564e-10 -9.019562e-12) (-1.093555e-10 -3.381103e-11 3.019679e-11)) ((2.759825e-14 4.224696e-14 3.677630e-12) (-1.688775e-12 -7.523828e-13 6.708591e-08))
559.743452    	((-2.777835e-10 -4.485726e-10 -5.840145e-12) (-9.329035e-11 -6.574847e-12 3.143045e-11)) ((2.524676e-14 4.167412e-14 3.656199e-12) (-1.229456e-12 -9.537150e-13 6.643724e-08))
610.700116    	((-2.474298e-10 -4.034830e-10 6.162058e-12) (-8.347817e-11 2.543534e-11 3.040315e-11)) ((2.273797e-14 4.276084e-14 3.638982e-12) (-8.492341e-13 -1.098862e-12 6.594116e-08))
661.643154    	((-2.284786e-10 -3.580330e-10 -1.710051e-12) (-7.020739e-11 4.968472e-11 2.528108e-11)) ((2.103287e-14 4.350730e-14 3.627967e-12) (-6.138499e-13 -1.240642e-12 6.557041e-08))
712.573872    	((-2.112125e-10 -3.534253e-10 -7.532396e-12) (-5.536850e-11 6.492740e-11 2.111797e-11)) ((1.906298e-14 4.305170e-14 3.618938e-12) (-4.238028e-13 -1.365999e-12 6.530471e-08))
763.49353     	((-2.064261e-10 -3.564047e-10 -1.131381e-11) (-4.297847e-11 5.858635e-11 1.728465e-11)) ((1.709177e-14 4.240531e-14 3.606043e-12) (-3.283979e-13 -1.445755e-12 6.512577e-08))
814.403392    	((-1.954999e-10 -3.495188e-10 -1.065410e-11) (-4.974710e-11 5.547977e-11 1.474416e-11)) ((1.503750e-14 4.280606e-14 3.591515e-12) (-2.682373e-13 -1.497083e-12 6.501900e-08))
865.304829    	((-1.796591e-10 -3.273740e-10 -6.534767e-12) (-6.452542e-11 6.012448e-11 1.237788e-11)) ((1.312199e-14 4.282454e-14 3.574674e-12) (-1.898944e-13 -1.547940e-12 6.497163e-08))
916.197222    	((-1.568807e-10 -3.170738e-10 8.474172e-12) (-7.422615e-11 6.974099e-11 1.183005e-11)) ((1.138311e-14 4.284279e-14 3.559949e-12) (-1.093240e-13 -1.591535e-12 6.497319e-08))
967.081205    	((-1.439215e-10 -3.060938e-10 1.162489e-11) (-7.793975e-11 7.649994e-11 1.263681e-11)) ((9.078175e-15 4.264887e-14 3.542710e-12) (-7.956971e-14 -1.636014e-12 6.501411e-08))
1017.957972   	((-1.259147e-10 -2.861119e-10 1.935629e-11) (-8.041510e-11 9.049606e-11 1.443572e-11)) ((6.483061e-15 4.262846e-14 3.526445e-12) (-8.147018e-14 -1.631326e-12 6.508636e-08))
1068.828737   	((-1.039265e-10 -2.678636e-10 2.488145e-11) (-7.961379e-11 9.932648e-11 1.600610e-11)) ((4.172420e-15 4.326259e-14 3.511263e-12) (-1.090233e-13 -1.624924e-12 6.518321e-08))
1119.694603   	((-8.682938e-11 -2.470194e-10 2.789454e-11) (-8.244651e-11 1.045059e-10 1.696259e-11)) ((2.106457e-15 4.330805e-14 3.497911e-12) (-1.654254e-13 -1.608522e-12 6.529875e-08))
1170.556599   	((-7.996861e-11 -2.337405e-10 2.943813e-11) (-8.312715e-11 1.048341e-10 1.783404e-11)) ((3.741632e-16 4.351403e-14 3.487024e-12) (-2.330224e-13 -1.562353e-12 6.542783e-08))
1221.415795   	((-7.630026e-11 -2.189406e-10 3.495102e-11) (-7.963054e-11 1.069696e-10 1.945437e-11)) ((-7.741228e-16 4.367060e-14 3.478910e-12) (-3.114754e-13 -1.476280e-12 6.556596e-08))
