# Forces      
# CofR        : (0.000000e+00 0.000000e+00 0.000000e+00)
# Time        forces(pressure viscous)	moments(pressure viscous)
0             	((0.000000e+00 0.000000e+00 0.000000e+00) (0.000000e+00 0.000000e+00 0.000000e+00)) ((0.000000e+00 0.000000e+00 0.000000e+00) (0.000000e+00 0.000000e+00 0.000000e+00))
0.012         	((1.396745e-12 -1.791396e-12 3.522996e-12) (-1.492185e-15 -3.363673e-15 -2.320886e-14)) ((-1.591841e-11 1.519463e-15 3.111517e-17) (-1.109879e-08 -1.216960e-15 5.103691e-16))
0.0264        	((-1.602831e-12 -3.133009e-12 6.362279e-12) (1.919949e-14 2.617584e-14 -2.018010e-14)) ((-7.853157e-12 1.192162e-15 -3.085051e-16) (-1.016580e-08 -2.099573e-15 5.049244e-16))
0.04368       	((6.988052e-12 4.690669e-12 7.423853e-12) (-8.223355e-15 8.023226e-14 -6.503372e-15)) ((-4.335626e-12 9.924752e-16 -3.450104e-16) (-9.206973e-09 -1.179838e-15 -8.654595e-16))
0.064416      	((-2.496983e-12 2.196777e-13 1.674196e-12) (-9.986122e-14 1.199746e-13 1.378290e-14)) ((-2.427242e-12 6.682660e-16 1.269030e-16) (-8.243193e-09 1.131869e-15 -2.279901e-15))
0.0892992     	((1.144771e-12 1.307304e-12 4.506777e-13) (-1.989018e-13 1.335547e-13 4.213153e-14)) ((-1.822692e-12 6.508419e-16 -9.074249e-17) (-7.302536e-09 3.411613e-15 -3.072041e-15))
0.119159      	((9.814979e-13 2.173365e-12 5.609038e-12) (-2.597389e-13 1.237732e-13 6.728592e-14)) ((-1.301816e-12 4.617238e-16 1.934993e-17) (-6.414007e-09 4.680937e-15 -3.280969e-15))
0.154991      	((-1.236747e-12 -2.746006e-12 -1.636264e-12) (-2.881067e-13 1.082728e-13 7.571456e-14)) ((-1.031356e-12 3.627904e-16 3.795996e-17) (-5.598071e-09 5.071130e-15 -2.885914e-15))
0.197989      	((-1.437358e-12 -3.702285e-13 1.678222e-12) (-3.150921e-13 9.000576e-14 7.478294e-14)) ((-8.191132e-13 1.636992e-16 3.044577e-17) (-4.874696e-09 4.975301e-15 -2.376611e-15))
0.249587      	((-5.144083e-13 -5.330908e-13 1.711192e-12) (-3.219742e-13 8.360808e-14 7.674701e-14)) ((-6.775920e-13 1.023939e-16 7.290800e-17) (-4.254646e-09 4.702361e-15 -2.166448e-15))
0.311504      	((-7.715134e-13 -1.420265e-12 2.053642e-12) (-2.982865e-13 8.786674e-14 6.351205e-14)) ((-5.655313e-13 1.378186e-16 1.961475e-17) (-3.736419e-09 4.205272e-15 -2.240342e-15))
0.385805      	((3.909227e-13 -1.825205e-12 2.821971e-12) (-2.683505e-13 8.076490e-14 5.219814e-14)) ((-4.863017e-13 1.453745e-16 -4.952716e-17) (-3.308860e-09 4.238502e-15 -2.236208e-15))
0.474966      	((4.090129e-13 -2.510223e-12 2.666771e-12) (-2.276762e-13 4.990427e-14 8.610072e-14)) ((-4.342850e-13 9.064100e-17 -7.959102e-17) (-2.955184e-09 5.613764e-15 -2.197014e-15))
0.581959      	((-1.728139e-12 -3.639663e-12 8.853857e-13) (-1.451347e-13 1.433046e-15 1.254212e-13)) ((-3.892515e-13 1.103363e-16 -1.216921e-16) (-2.657918e-09 7.004107e-15 -2.600134e-15))
0.710351      	((-2.031907e-12 -4.243704e-12 3.306168e-12) (-4.256039e-14 -5.014373e-15 1.260998e-13)) ((-3.439763e-13 1.422431e-16 -1.544303e-16) (-2.402582e-09 7.563077e-15 -3.673115e-15))
0.864421      	((-2.466723e-12 -5.277912e-12 2.074735e-12) (5.264003e-14 6.574509e-14 9.589018e-14)) ((-3.135459e-13 2.222906e-16 -1.710402e-16) (-2.178914e-09 7.011708e-15 -5.279563e-15))
1.049306      	((-1.561973e-12 -5.309094e-12 3.699284e-12) (1.196573e-13 1.359021e-13 4.584960e-14)) ((-2.933931e-13 2.421402e-16 -1.599293e-16) (-1.980111e-09 5.280556e-15 -6.274505e-15))
1.271167      	((-4.088046e-15 -6.768133e-12 4.595648e-12) (1.142145e-13 1.961772e-13 -2.583479e-14)) ((-2.732632e-13 2.070753e-16 -1.382476e-16) (-1.801627e-09 2.646018e-15 -7.793922e-15))
1.5374        	((6.952915e-13 -6.363038e-12 6.103779e-12) (5.241507e-14 2.987056e-13 -1.313539e-13)) ((-2.500704e-13 4.844692e-17 -1.014077e-16) (-1.640504e-09 1.037936e-15 -1.311995e-14))
1.85688       	((-7.494653e-13 -6.662392e-12 6.014216e-12) (7.817950e-14 5.063764e-13 -3.042359e-13)) ((-2.297039e-13 -1.979754e-18 -4.838311e-17) (-1.495131e-09 -3.614335e-15 -1.931713e-14))
2.240256      	((-1.122317e-13 -7.411400e-12 5.424595e-12) (8.443494e-14 8.287219e-13 -6.324858e-13)) ((-2.172111e-13 -9.046615e-17 3.014801e-17) (-1.364684e-09 -1.037264e-14 -2.806028e-14))
2.700307      	((-9.799840e-14 -6.715686e-12 4.296880e-12) (1.682929e-14 1.326746e-12 -1.158189e-12)) ((-2.086718e-13 -1.289038e-16 8.365586e-17) (-1.248577e-09 -1.906173e-14 -4.289558e-14))
3.252369      	((-1.360289e-13 -4.845514e-12 4.421978e-12) (9.478517e-14 2.026155e-12 -1.752213e-12)) ((-2.003130e-13 -1.986297e-16 1.424404e-16) (-1.146013e-09 -3.206522e-14 -5.729155e-14))
3.914842      	((-4.915597e-13 -2.191249e-12 2.923076e-12) (5.047741e-14 2.705875e-12 -2.331796e-12)) ((-1.906913e-13 -1.685935e-16 1.110329e-16) (-1.055792e-09 -4.236393e-14 -6.752502e-14))
4.709811      	((1.508347e-13 -7.542164e-13 8.749369e-13) (-1.028956e-13 3.342679e-12 -2.934180e-12)) ((-1.793782e-13 -1.804957e-16 7.029141e-17) (-9.762547e-10 -4.922391e-14 -7.423384e-14))
5.663773      	((-2.820756e-13 1.264733e-14 -6.797158e-13) (-4.529798e-14 3.792932e-12 -3.401999e-12)) ((-1.666583e-13 -1.783527e-16 4.602018e-17) (-9.055427e-10 -5.517909e-14 -7.539198e-14))
6.808528      	((-6.216954e-13 9.047580e-13 -1.205764e-12) (2.583763e-16 3.859207e-12 -3.515524e-12)) ((-1.539107e-13 -1.827356e-16 7.813604e-17) (-8.420024e-10 -5.569737e-14 -7.333163e-14))
8.182233      	((-9.374149e-14 1.306373e-12 -1.989808e-12) (2.522925e-14 3.621146e-12 -3.305251e-12)) ((-1.415011e-13 -1.668928e-16 7.680416e-17) (-7.843142e-10 -4.945002e-14 -6.713463e-14))
9.83068       	((-8.119759e-13 1.591510e-12 -1.864604e-12) (7.426152e-14 3.091016e-12 -2.834626e-12)) ((-1.290301e-13 -1.487219e-16 1.212997e-16) (-7.315014e-10 -3.972460e-14 -5.464216e-14))
11.808816     	((-4.024763e-13 -2.581227e-13 -6.035296e-13) (2.140908e-13 2.344701e-12 -2.220450e-12)) ((-1.177134e-13 -1.257267e-16 1.582134e-16) (-6.829054e-10 -3.226131e-14 -3.856447e-14))
14.182579     	((-2.878805e-13 -3.963724e-13 1.253556e-13) (4.214738e-13 1.637278e-12 -1.647213e-12)) ((-1.069629e-13 -1.126463e-16 1.701558e-16) (-6.381248e-10 -2.710816e-14 -2.226760e-14))
17.031095     	((-4.614558e-13 -6.880768e-13 -2.351767e-14) (4.464167e-13 1.127617e-12 -1.179912e-12)) ((-9.802278e-14 -6.315749e-17 1.514439e-16) (-5.969500e-10 -2.030200e-14 -1.119267e-14))
20.449314     	((-2.795204e-13 -7.245612e-13 2.854181e-13) (3.358315e-13 7.605863e-13 -8.018517e-13)) ((-9.004328e-14 -3.521908e-17 1.391601e-16) (-5.592379e-10 -1.262783e-14 -6.427351e-15))
24.551176     	((-5.340248e-14 -6.432942e-13 6.675126e-13) (2.064880e-13 5.336916e-13 -5.488932e-13)) ((-8.302788e-14 -3.741700e-17 1.478932e-16) (-5.247653e-10 -7.603537e-15 -3.764077e-15))
29.473411     	((-1.568605e-13 -6.860157e-13 3.547166e-13) (1.120750e-13 3.962598e-13 -4.221820e-13)) ((-7.713476e-14 -1.701844e-17 1.317354e-16) (-4.933095e-10 -5.168429e-15 -3.049256e-15))
35.380094     	((-5.922871e-14 -9.618848e-13 3.543776e-13) (5.011659e-14 3.254094e-13 -3.524393e-13)) ((-7.186691e-14 -8.998515e-18 1.189735e-16) (-4.646150e-10 -2.912694e-15 -4.661574e-15))
42.468112     	((-7.464368e-14 -6.452914e-13 3.781260e-13) (-2.486061e-15 3.327980e-13 -3.496948e-13)) ((-6.726220e-14 -5.016323e-18 1.076623e-16) (-4.384401e-10 -1.903218e-15 -6.919007e-15))
50.973735     	((-5.926210e-14 -4.833881e-13 2.918637e-13) (-5.247512e-14 3.728897e-13 -3.679205e-13)) ((-6.311277e-14 7.232479e-18 9.882816e-17) (-4.145757e-10 -2.058375e-15 -7.824320e-15))
61.180482     	((-5.325580e-14 -5.620563e-13 3.522045e-13) (-6.074366e-14 4.291787e-13 -4.233645e-13)) ((-5.936426e-14 2.265377e-17 9.255521e-17) (-3.928459e-10 -2.930042e-15 -8.480209e-15))
73.428578     	((-5.859343e-14 -2.774803e-13 1.595682e-13) (-4.083177e-14 4.926120e-13 -4.937039e-13)) ((-5.609457e-14 2.742955e-17 8.207354e-17) (-3.731061e-10 -4.512325e-15 -9.342012e-15))
88.126294     	((-6.333266e-14 -3.549907e-13 3.527454e-14) (-2.276782e-14 5.355406e-13 -5.522087e-13)) ((-5.319918e-14 3.467092e-17 7.429815e-17) (-3.552066e-10 -6.486096e-15 -9.879030e-15))
105.763553    	((-1.493843e-14 -1.331587e-13 1.092194e-14) (-3.230868e-14 5.643383e-13 -5.815133e-13)) ((-5.046855e-14 4.217799e-17 6.487416e-17) (-3.390089e-10 -7.444772e-15 -1.051884e-14))
126.928263    	((-3.718196e-14 -9.561983e-14 -1.183171e-13) (-4.175319e-14 5.703367e-13 -5.739409e-13)) ((-4.804469e-14 4.301345e-17 6.245513e-17) (-3.243685e-10 -7.765601e-15 -1.075260e-14))
152.325916    	((-3.048148e-14 3.681538e-14 -1.526514e-13) (-4.560993e-14 5.398037e-13 -5.367296e-13)) ((-4.587899e-14 4.101214e-17 6.120909e-17) (-3.111308e-10 -7.960052e-15 -1.074564e-14))
182.803099    	((1.276309e-14 8.597910e-14 -1.656918e-13) (-3.021798e-14 4.929553e-13 -4.842559e-13)) ((-4.386650e-14 4.223616e-17 5.995043e-17) (-2.991402e-10 -8.553071e-15 -1.074760e-14))
219.375719    	((-2.556255e-14 7.139891e-14 -1.622810e-13) (-2.850175e-14 4.633521e-13 -4.522204e-13)) ((-4.202663e-14 4.093228e-17 5.582244e-17) (-2.882553e-10 -9.644620e-15 -1.083468e-14))
263.262863    	((-5.098302e-14 9.699221e-14 -1.724823e-13) (-3.068802e-14 4.532035e-13 -4.479245e-13)) ((-4.036231e-14 3.711483e-17 4.851067e-17) (-2.783590e-10 -1.037515e-14 -1.103956e-14))
315.927436    	((-6.898838e-14 1.780819e-13 -1.197542e-13) (-3.063941e-14 4.507247e-13 -4.467260e-13)) ((-3.887014e-14 3.218888e-17 4.293932e-17) (-2.693548e-10 -1.080933e-14 -1.126739e-14))
379.124923    	((-5.732193e-14 1.940789e-13 -8.400854e-14) (-2.920120e-14 4.523780e-13 -4.445417e-13)) ((-3.750539e-14 2.554167e-17 3.827342e-17) (-2.611666e-10 -1.076021e-14 -1.162860e-14))
454.961908    	((-4.539717e-14 2.094013e-13 -6.972018e-14) (-3.439912e-14 4.483118e-13 -4.420243e-13)) ((-3.623936e-14 2.027328e-17 3.514017e-17) (-2.537389e-10 -1.078156e-14 -1.139313e-14))
545.966289    	((-8.615588e-15 1.998050e-13 -6.535679e-14) (-1.941240e-14 4.360413e-13 -4.344313e-13)) ((-3.508790e-14 1.632224e-17 3.292707e-17) (-2.470202e-10 -1.087204e-14 -1.073537e-14))
655.171547    	((4.376209e-14 2.007788e-13 -4.086953e-14) (-4.654682e-15 4.211439e-13 -4.184466e-13)) ((-3.403825e-14 1.384552e-17 3.095409e-17) (-2.409628e-10 -1.061379e-14 -1.019559e-14))
786.217856    	((5.315260e-14 2.074728e-13 -4.020875e-14) (-5.467317e-15 4.070706e-13 -4.019893e-13)) ((-3.308525e-14 9.847629e-18 3.195042e-17) (-2.355254e-10 -1.019636e-14 -9.776413e-15))
943.473427    	((9.140732e-15 2.075611e-13 -5.478277e-14) (-2.581449e-14 3.841542e-13 -3.851733e-13)) ((-3.223679e-14 5.227946e-18 3.536703e-17) (-2.306682e-10 -9.536351e-15 -9.460443e-15))
1132.180113   	((-2.516256e-14 2.106558e-13 -6.241863e-14) (-4.724241e-14 3.647701e-13 -3.599186e-13)) ((-3.149461e-14 1.372117e-18 3.511583e-17) (-2.263517e-10 -8.637925e-15 -9.334895e-15))
1358.628135   	((-2.928414e-14 2.055972e-13 -6.049049e-14) (-6.485017e-14 3.481204e-13 -3.359374e-13)) ((-3.083911e-14 6.515657e-19 3.313482e-17) (-2.225367e-10 -7.943488e-15 -9.035084e-15))
1630.365763   	((-6.666013e-15 1.933099e-13 -5.178821e-14) (-7.069881e-14 3.378908e-13 -3.202638e-13)) ((-3.025531e-14 9.242264e-19 3.253340e-17) (-2.191826e-10 -7.317244e-15 -8.653109e-15))
1956.450915   	((-1.337329e-14 1.665650e-13 -6.020313e-14) (-7.343333e-14 3.325275e-13 -3.066615e-13)) ((-2.975339e-14 1.419805e-19 3.228454e-17) (-2.162503e-10 -6.805779e-15 -8.367533e-15))
2347.753098   	((-2.539697e-16 1.566556e-13 -5.145458e-14) (-7.108882e-14 3.255208e-13 -2.962320e-13)) ((-2.932197e-14 1.118321e-19 3.200470e-17) (-2.137019e-10 -6.350843e-15 -8.081760e-15))
2817.315718   	((3.169939e-14 1.500221e-13 -3.319692e-14) (-6.505269e-14 3.185857e-13 -2.874115e-13)) ((-2.895104e-14 -7.408483e-19 3.208995e-17) (-2.115012e-10 -5.984778e-15 -7.703308e-15))
3380.790861   	((4.751800e-14 1.478973e-13 -2.084756e-14) (-5.817260e-14 3.121070e-13 -2.795758e-13)) ((-2.863932e-14 -4.801991e-19 3.151272e-17) (-2.096137e-10 -5.666947e-15 -7.363270e-15))
4056.961033   	((6.598508e-14 1.432623e-13 -1.215550e-14) (-5.425126e-14 3.061474e-13 -2.707653e-13)) ((-2.837350e-14 -5.527640e-19 3.135436e-17) (-2.080061e-10 -5.406404e-15 -7.041576e-15))
4868.36524    	((8.357998e-14 1.370613e-13 -3.288107e-15) (-4.743305e-14 3.002189e-13 -2.623696e-13)) ((-2.814705e-14 -5.974518e-19 3.126106e-17) (-2.066468e-10 -5.236934e-15 -6.718356e-15))
5842.050288   	((9.102696e-14 1.297088e-13 -2.178119e-15) (-3.572057e-14 2.940140e-13 -2.543908e-13)) ((-2.795352e-14 -6.776170e-19 3.113303e-17) (-2.055058e-10 -5.118834e-15 -6.439179e-15))
7010.472346   	((1.018722e-13 1.220657e-13 3.272094e-16) (-2.634609e-14 2.886210e-13 -2.465277e-13)) ((-2.778984e-14 -6.677802e-19 3.096027e-17) (-2.045549e-10 -4.950621e-15 -6.271224e-15))
8412.578815   	((1.027122e-13 1.145759e-13 4.830154e-15) (-2.059067e-14 2.827954e-13 -2.379013e-13)) ((-2.765386e-14 -1.381817e-19 3.037554e-17) (-2.037680e-10 -4.758399e-15 -6.145649e-15))
10095.106578  	((1.032420e-13 1.108660e-13 7.323289e-15) (-1.661539e-14 2.782259e-13 -2.305533e-13)) ((-2.754244e-14 -1.856185e-19 2.995448e-17) (-2.031211e-10 -4.602772e-15 -6.042750e-15))
12114.139893  	((1.009123e-13 1.033668e-13 1.120488e-14) (-1.267655e-14 2.761606e-13 -2.237761e-13)) ((-2.745129e-14 -7.733051e-19 2.977282e-17) (-2.025925e-10 -4.498314e-15 -5.912753e-15))
14536.979872  	((1.162616e-13 1.043893e-13 4.735954e-15) (-9.673556e-15 2.774256e-13 -2.194994e-13)) ((-2.737707e-14 -1.485069e-18 2.889998e-17) (-2.021632e-10 -4.315128e-15 -5.681090e-15))
17444.387847  	((1.339290e-13 1.062626e-13 -2.104626e-15) (-6.756361e-15 2.762486e-13 -2.163988e-13)) ((-2.731712e-14 -1.450207e-18 2.860858e-17) (-2.018165e-10 -4.156273e-15 -5.544475e-15))
20933.277416  	((1.556570e-13 1.092772e-13 -8.684175e-15) (-4.521616e-15 2.742944e-13 -2.137430e-13)) ((-2.726905e-14 -1.327916e-18 2.831982e-17) (-2.015379e-10 -4.037967e-15 -5.446812e-15))
25119.944899  	((1.820116e-13 1.137574e-13 -1.676992e-14) (-2.620726e-15 2.725024e-13 -2.115613e-13)) ((-2.723095e-14 -1.157708e-18 2.804526e-17) (-2.013149e-10 -3.947023e-15 -5.368461e-15))
30143.945879  	((2.122525e-13 1.191611e-13 -2.790545e-14) (-4.095554e-16 2.708663e-13 -2.099705e-13)) ((-2.720102e-14 -9.497157e-19 2.788744e-17) (-2.011371e-10 -3.872149e-15 -5.309094e-15))
36172.747055  	((2.446907e-13 1.247278e-13 -4.113518e-14) (2.043281e-15 2.693725e-13 -2.089584e-13)) ((-2.717781e-14 -7.373275e-19 2.771788e-17) (-2.009957e-10 -3.807006e-15 -5.264533e-15))
43407.308466  	((2.806101e-13 1.323235e-13 -5.223733e-14) (5.406127e-15 2.681655e-13 -2.079864e-13)) ((-2.715969e-14 -5.307779e-19 2.758066e-17) (-2.008837e-10 -3.759349e-15 -5.230005e-15))
51927.366409  	((3.272633e-13 1.433604e-13 -5.938019e-14) (9.391848e-15 2.671075e-13 -2.073129e-13)) ((-2.714609e-14 -3.206848e-19 2.752476e-17) (-2.007950e-10 -3.711040e-15 -5.199534e-15))
61732.928153  	((3.793028e-13 1.572355e-13 -5.847030e-14) (1.353506e-14 2.663682e-13 -2.069421e-13)) ((-2.713283e-14 -4.153219e-19 2.737971e-17) (-2.007251e-10 -3.677579e-15 -5.174555e-15))
72823.999343  	((4.403765e-13 1.873580e-13 -4.798800e-14) (1.780079e-14 2.661906e-13 -2.061039e-13)) ((-2.712304e-14 1.924839e-18 2.656983e-17) (-2.006700e-10 -3.667787e-15 -5.144906e-15))
85200.584359  	((4.807226e-13 1.916755e-13 -2.162376e-14) (2.278904e-14 2.652534e-13 -2.074037e-13)) ((-2.711725e-14 -2.626287e-18 2.838799e-17) (-2.006266e-10 -3.585714e-15 -5.150331e-15))
98055.756964  	((5.342180e-13 2.789862e-13 4.748973e-14) (2.657387e-14 2.651190e-13 -2.049779e-13)) ((-2.710852e-14 -1.451334e-18 2.281191e-17) (-2.005927e-10 -3.571619e-15 -4.908604e-15))
110910.956173 	((5.657489e-13 3.116873e-13 8.987829e-14) (2.897636e-14 2.615176e-13 -2.071813e-13)) ((-2.708445e-14 -1.398537e-18 2.488791e-17) (-2.005664e-10 -3.507670e-15 -4.965492e-15))
123766.175697 	((6.370669e-13 3.174956e-13 2.030679e-13) (2.822919e-14 2.554816e-13 -2.037126e-13)) ((-2.708438e-14 3.158176e-18 2.476791e-17) (-2.005456e-10 -3.476404e-15 -4.853519e-15))
136621.410813 	((6.601308e-13 3.671037e-13 2.482523e-13) (2.803861e-14 2.594112e-13 -1.976388e-13)) ((-2.708077e-14 3.312866e-18 2.520877e-17) (-2.005294e-10 -3.572501e-15 -4.809017e-15))
149476.658307 	((7.187147e-13 4.263663e-13 3.372824e-13) (2.674418e-14 2.631394e-13 -1.918420e-13)) ((-2.705948e-14 1.669436e-18 3.083503e-17) (-2.005168e-10 -3.722498e-15 -5.208664e-15))
162331.915811 	((7.537584e-13 4.985186e-13 4.536556e-13) (2.659077e-14 2.648461e-13 -1.847726e-13)) ((-2.704908e-14 -9.444434e-20 2.803475e-17) (-2.005071e-10 -3.506181e-15 -5.139002e-15))
175187.182149 	((7.654678e-13 5.807951e-13 5.525128e-13) (2.537861e-14 2.654958e-13 -1.789669e-13)) ((-2.703853e-14 -7.464055e-19 2.692471e-17) (-2.004989e-10 -3.408358e-15 -5.096205e-15))
188042.456386 	((8.746092e-13 6.047783e-13 6.023468e-13) (2.404304e-14 2.649317e-13 -1.747507e-13)) ((-2.701148e-14 -3.865420e-18 2.921739e-17) (-2.004921e-10 -3.334329e-15 -4.972550e-15))
200897.737024 	((9.107027e-13 6.960076e-13 6.416661e-13) (2.624903e-14 2.658958e-13 -1.742603e-13)) ((-2.700038e-14 2.804118e-18 2.687545e-17) (-2.004866e-10 -3.287309e-15 -5.119237e-15))
213753.023571 	((9.947301e-13 7.185367e-13 6.357282e-13) (2.618970e-14 2.636161e-13 -1.779854e-13)) ((-2.698540e-14 8.517128e-19 2.844837e-17) (-2.004816e-10 -3.359521e-15 -4.989936e-15))
226608.315264 	((1.062002e-12 7.538713e-13 5.991864e-13) (2.911547e-14 2.604013e-13 -1.825931e-13)) ((-2.695947e-14 9.459150e-19 2.666890e-17) (-2.004769e-10 -3.484118e-15 -4.945392e-15))
239463.611192 	((1.124422e-12 7.655609e-13 5.349925e-13) (3.182949e-14 2.553408e-13 -1.823776e-13)) ((-2.693663e-14 -1.886868e-18 2.964198e-17) (-2.004726e-10 -3.474715e-15 -4.954392e-15))
252318.91113  	((1.090847e-12 7.337500e-13 4.461932e-13) (2.970473e-14 2.488037e-13 -1.834050e-13)) ((-2.691829e-14 -3.797342e-18 3.116124e-17) (-2.004682e-10 -3.439140e-15 -4.961048e-15))
265174.215253 	((9.514924e-13 6.685193e-13 3.454876e-13) (2.386221e-14 2.416350e-13 -1.834050e-13)) ((-2.690906e-14 -4.424987e-18 3.187670e-17) (-2.004635e-10 -3.344913e-15 -4.868805e-15))
278029.523382 	((7.636816e-13 5.784570e-13 2.285634e-13) (1.561147e-14 2.374025e-13 -1.843477e-13)) ((-2.689222e-14 -6.673056e-18 3.327207e-17) (-2.004587e-10 -3.265619e-15 -4.859593e-15))
290884.835393 	((5.691936e-13 4.703202e-13 1.132854e-13) (4.917996e-15 2.326160e-13 -1.864110e-13)) ((-2.687922e-14 -7.901074e-18 3.432782e-17) (-2.004538e-10 -3.241078e-15 -4.838817e-15))
303740.150813 	((3.857132e-13 3.709705e-13 2.110204e-14) (-5.440796e-15 2.261718e-13 -1.886870e-13)) ((-2.687184e-14 -7.177672e-18 3.411169e-17) (-2.004488e-10 -3.228692e-15 -4.793992e-15))
