# Forces      
# CofR        : (0.000000e+00 0.000000e+00 0.000000e+00)
# Time        forces(pressure viscous)	moments(pressure viscous)
0             	((0.000000e+00 0.000000e+00 0.000000e+00) (-1.145159e-14 7.983091e-05 3.271581e-16)) ((0.000000e+00 0.000000e+00 0.000000e+00) (3.963176e-16 1.772959e-17 -2.906296e-11))
0.012         	((-4.108325e-10 2.321823e-02 -4.501526e-09) (-5.389737e-11 9.160324e-05 -6.972322e-11)) ((9.542375e-12 1.603434e-13 -4.387190e-09) (4.083857e-13 1.741130e-14 -5.990021e-11))
0.0264        	((-1.346939e-07 -1.630714e-03 2.660104e-09) (-1.885471e-10 9.343877e-05 -6.448922e-11)) ((-1.951480e-11 -2.359133e-12 2.895329e-10) (-5.389780e-13 -1.072908e-13 -8.039454e-11))
0.04368       	((3.355769e-07 -4.844887e-03 -1.564166e-07) (1.005159e-10 8.301353e-05 -1.181174e-10)) ((-1.104451e-11 2.904946e-12 1.169032e-09) (-3.186780e-12 -1.637633e-13 -6.884374e-11))
0.064416      	((-4.776026e-08 -4.588808e-05 8.062459e-08) (1.535392e-09 7.351755e-05 9.150984e-10)) ((8.103518e-12 1.095424e-12 -5.775774e-11) (6.041588e-12 -3.832151e-13 -8.756756e-11))
0.0892992     	((-6.162215e-08 6.107473e-05 5.988920e-08) (1.733302e-09 6.786654e-05 1.764710e-09)) ((8.423885e-13 -2.510434e-12 -6.604782e-11) (9.409423e-12 -6.533975e-13 -9.667506e-11))
0.119159      	((3.467941e-08 -7.359937e-05 9.373781e-08) (9.671930e-10 6.266562e-05 1.820364e-09)) ((6.541166e-12 6.104243e-13 2.256858e-11) (-9.086884e-12 -1.355231e-12 -8.438322e-11))
0.154991      	((-1.661528e-08 -3.922151e-05 1.395109e-08) (6.480785e-10 5.716177e-05 1.674492e-09)) ((4.464351e-12 1.401392e-12 2.738568e-12) (-2.376822e-11 -3.296129e-12 -5.196357e-11))
0.197989      	((1.267943e-08 -9.469555e-06 -4.457203e-09) (2.351877e-10 5.162185e-05 1.253649e-09)) ((4.838957e-12 8.168989e-13 -1.736091e-12) (-2.144872e-11 -6.135377e-12 -1.658898e-11))
0.249587      	((1.381282e-09 1.356764e-06 -2.252410e-09) (-1.225197e-10 4.620308e-05 9.027821e-10)) ((2.852231e-12 4.231496e-13 -4.417888e-12) (-1.518445e-11 -7.166222e-12 8.214922e-13))
0.311504      	((-4.025015e-09 6.279539e-06 -8.790733e-10) (-3.292731e-10 4.107151e-05 6.085514e-10)) ((2.240305e-12 1.792075e-13 -5.013886e-12) (-8.767836e-12 -5.515728e-12 2.653066e-11))
0.385805      	((-1.689764e-09 8.652904e-06 -7.564459e-10) (-4.366257e-10 3.636018e-05 4.410502e-10)) ((1.736055e-12 1.486415e-13 -3.427955e-12) (-2.152575e-12 -3.240580e-12 4.370990e-11))
0.474966      	((-9.947916e-10 9.843454e-06 -1.214614e-09) (-2.777806e-10 3.215050e-05 3.604064e-10)) ((1.145498e-12 -9.410079e-15 -2.848596e-12) (2.665701e-12 -1.985462e-12 4.324635e-11))
0.581959      	((-2.702621e-10 1.034874e-05 -1.073413e-09) (1.736620e-10 2.845810e-05 2.774390e-10)) ((6.881916e-13 1.692847e-15 -2.537034e-12) (5.210973e-12 -1.480033e-12 2.818174e-11))
0.710351      	((3.997698e-11 1.032179e-05 -1.210283e-09) (5.598754e-10 2.526782e-05 1.815111e-10)) ((4.301971e-13 -1.575618e-14 -2.136091e-12) (6.363432e-12 -1.325426e-12 1.278320e-11))
0.864421      	((4.238341e-10 9.954104e-06 -7.273881e-10) (7.395581e-10 2.253954e-05 1.038025e-10)) ((2.180882e-13 -2.919335e-14 -2.414561e-12) (5.799626e-12 -1.352711e-12 5.843100e-13))
1.049306      	((6.233057e-10 9.404916e-06 -5.872608e-10) (8.692546e-10 2.021107e-05 7.369269e-11)) ((8.303092e-14 -2.128524e-14 -2.435687e-12) (4.227214e-12 -1.297786e-12 -1.237353e-11))
1.271167      	((5.258500e-10 8.785691e-06 -3.812318e-10) (7.963212e-10 1.821697e-05 5.745534e-11)) ((4.967289e-15 -1.800021e-14 -2.110268e-12) (3.392053e-12 -1.216001e-12 -2.659378e-11))
1.5374        	((4.966532e-10 8.141131e-06 -2.225921e-10) (5.892406e-10 1.649035e-05 3.818685e-11)) ((-2.584563e-14 -1.394988e-14 -2.018771e-12) (2.923163e-12 -1.209307e-12 -3.794702e-11))
1.85688       	((4.673878e-10 7.507733e-06 -2.247774e-10) (4.834392e-10 1.497243e-05 1.968130e-11)) ((-2.907987e-14 -1.058188e-14 -1.947201e-12) (2.021583e-12 -1.102256e-12 -4.556199e-11))
2.240256      	((6.429393e-10 6.908095e-06 -2.069870e-10) (4.234220e-10 1.362363e-05 5.418147e-12)) ((-2.180990e-14 -1.096563e-14 -1.908845e-12) (4.159913e-13 -9.442614e-13 -5.211428e-11))
2.700307      	((6.289659e-10 6.350906e-06 -2.096358e-10) (3.134426e-10 1.241776e-05 -9.829762e-12)) ((-1.837643e-14 -5.714431e-15 -1.850243e-12) (-1.204552e-12 -8.942143e-13 -5.542459e-11))
3.252369      	((4.575097e-10 5.835355e-06 -2.996146e-10) (1.998031e-10 1.133550e-05 -2.674553e-11)) ((-7.666307e-15 -1.094721e-14 -1.773486e-12) (-2.493562e-12 -8.229927e-13 -5.264030e-11))
3.914842      	((2.400156e-10 5.357178e-06 -4.550934e-10) (1.125115e-10 1.036183e-05 -4.294384e-11)) ((-1.405343e-15 -1.142059e-14 -1.650791e-12) (-3.403992e-12 -7.641852e-13 -4.384473e-11))
4.709811      	((-3.084266e-11 4.917676e-06 -6.020432e-10) (4.164317e-11 9.485512e-06 -5.237275e-11)) ((9.110815e-15 -1.981189e-14 -1.461520e-12) (-3.646452e-12 -6.888745e-13 -3.822764e-11))
5.663773      	((-4.065117e-10 4.518508e-06 -7.890791e-10) (1.940081e-11 8.698512e-06 -5.559647e-11)) ((2.213748e-14 -2.584318e-14 -1.277075e-12) (-3.728262e-12 -5.364356e-13 -4.032708e-11))
6.808528      	((-3.143163e-10 4.159469e-06 -7.786170e-10) (3.577278e-11 7.993641e-06 -5.021847e-11)) ((2.835658e-14 -2.244620e-14 -1.094992e-12) (-3.851980e-12 -4.528448e-13 -4.367671e-11))
8.182233      	((-2.239242e-10 3.839102e-06 -7.830269e-10) (4.748548e-11 7.362794e-06 -3.594721e-11)) ((2.897873e-14 -2.064782e-14 -9.331120e-13) (-4.051755e-12 -3.100919e-13 -4.535269e-11))
9.83068       	((-9.821016e-11 3.555290e-06 -9.163045e-10) (3.854418e-11 6.797083e-06 -2.034687e-11)) ((2.999328e-14 -2.285384e-14 -8.415010e-13) (-4.645578e-12 -1.959059e-13 -4.348193e-11))
11.808816     	((-3.679708e-10 3.304775e-06 -1.052893e-09) (-1.733173e-11 6.288066e-06 -1.860597e-11)) ((3.144513e-14 -2.708952e-14 -8.100088e-13) (-6.570442e-12 -1.452454e-13 -3.707208e-11))
14.182579     	((-8.126478e-10 3.085170e-06 -1.266197e-09) (-8.782322e-11 5.829017e-06 -4.429601e-11)) ((3.629094e-14 -3.023054e-14 -7.958126e-13) (-1.074114e-11 -1.096469e-13 -2.860449e-11))
17.031095     	((-8.178740e-10 2.895974e-06 -1.246243e-09) (-1.356693e-10 5.414842e-06 -8.675623e-11)) ((3.842582e-14 -3.131701e-14 -8.013591e-13) (-1.673176e-11 -7.557184e-14 -1.787714e-11))
20.449314     	((-7.667903e-10 2.737370e-06 -1.160936e-09) (-1.668561e-10 5.041718e-06 -1.209003e-10)) ((4.140230e-14 -2.808803e-14 -8.329909e-13) (-2.259902e-11 -1.244101e-13 -5.967921e-12))
24.551176     	((-6.492266e-10 2.607398e-06 -1.142394e-09) (-1.815589e-10 4.706810e-06 -1.508781e-10)) ((4.067013e-14 -2.742521e-14 -8.926249e-13) (-2.682024e-11 -1.762226e-13 4.049545e-12))
29.473411     	((-4.585356e-10 2.505891e-06 -8.859321e-10) (-1.745859e-10 4.407942e-06 -1.659967e-10)) ((3.781595e-14 -2.807548e-14 -9.705045e-13) (-2.973838e-11 -2.229073e-13 1.156539e-11))
35.380094     	((-1.971450e-10 2.430753e-06 -6.235326e-10) (-1.679763e-10 4.143035e-06 -1.702431e-10)) ((3.586517e-14 -2.792670e-14 -1.062474e-12) (-3.305909e-11 -3.913967e-13 1.881037e-11))
42.468112     	((1.072833e-10 2.382063e-06 -2.794818e-10) (-1.558360e-10 3.910011e-06 -1.674254e-10)) ((3.016441e-14 -2.622277e-14 -1.178002e-12) (-3.779415e-11 -5.282210e-13 2.706259e-11))
50.973735     	((6.470584e-10 2.357403e-06 1.910966e-10) (-1.398809e-10 3.706946e-06 -1.563717e-10)) ((2.196110e-14 -2.349448e-14 -1.325886e-12) (-4.402396e-11 -5.500747e-13 3.663594e-11))
61.180482     	((1.024304e-09 2.355802e-06 7.015417e-10) (-1.218496e-10 3.532250e-06 -1.369227e-10)) ((1.760705e-14 -2.062595e-14 -1.494491e-12) (-5.186793e-11 -5.136463e-13 4.779398e-11))
73.428578     	((1.576965e-09 2.373544e-06 1.285331e-09) (-8.761119e-11 3.384248e-06 -1.042070e-10)) ((1.298318e-14 -1.932191e-14 -1.684928e-12) (-6.034096e-11 -5.209805e-13 6.019051e-11))
88.126294     	((2.073895e-09 2.406393e-06 1.862836e-09) (-5.167761e-11 3.261429e-06 -6.593520e-11)) ((8.057107e-15 -1.986676e-14 -1.895111e-12) (-6.814510e-11 -6.247284e-13 7.211460e-11))
105.763553    	((2.580978e-09 2.449649e-06 2.406515e-09) (-4.461625e-12 3.161882e-06 -1.042041e-11)) ((-5.065543e-16 -1.637714e-14 -2.092254e-12) (-7.376532e-11 -6.226570e-13 8.083697e-11))
126.47183     	((3.252156e-09 2.496105e-06 3.067796e-09) (6.793468e-11 3.083600e-06 6.189237e-11)) ((-1.341427e-14 -1.737887e-14 -2.266512e-12) (-7.770705e-11 -5.532973e-13 8.525546e-11))
150.231578    	((3.817435e-09 2.537315e-06 3.608495e-09) (1.786926e-10 3.022503e-06 1.678257e-10)) ((-1.988989e-14 -1.847980e-14 -2.391739e-12) (-7.832175e-11 -5.345438e-13 8.640208e-11))
177.030106    	((4.482189e-09 2.567283e-06 4.218147e-09) (3.190190e-10 2.973952e-06 3.001284e-10)) ((-2.897630e-14 -1.823954e-14 -2.473270e-12) (-7.681641e-11 -4.497087e-13 8.539153e-11))
206.86619     	((4.953233e-09 2.584996e-06 4.648706e-09) (4.973558e-10 2.933966e-06 4.603762e-10)) ((-3.394142e-14 -1.896268e-14 -2.536922e-12) (-7.367017e-11 -3.691923e-13 8.272655e-11))
237.305389    	((5.186248e-09 2.596158e-06 4.867713e-09) (6.745402e-10 2.901207e-06 6.128411e-10)) ((-3.650224e-14 -1.969050e-14 -2.592734e-12) (-7.007630e-11 -3.090144e-13 7.927235e-11))
267.811381    	((5.284484e-09 2.600967e-06 4.958426e-09) (8.436636e-10 2.873686e-06 7.659527e-10)) ((-3.902965e-14 -1.952991e-14 -2.642640e-12) (-6.569539e-11 -3.414156e-13 7.514046e-11))
298.358352    	((5.276834e-09 2.603138e-06 4.979540e-09) (9.875488e-10 2.850508e-06 9.004336e-10)) ((-4.100867e-14 -1.991764e-14 -2.679323e-12) (-6.098067e-11 -4.263692e-13 7.043404e-11))
328.929138    	((5.157656e-09 2.603951e-06 4.867853e-09) (1.100603e-09 2.830959e-06 1.005030e-09)) ((-3.995521e-14 -2.016441e-14 -2.707845e-12) (-5.599860e-11 -5.025247e-13 6.513783e-11))
359.519403    	((4.957221e-09 2.603886e-06 4.667758e-09) (1.177231e-09 2.814478e-06 1.077172e-09)) ((-3.875053e-14 -2.040819e-14 -2.730285e-12) (-5.084417e-11 -5.516768e-13 5.952952e-11))
390.128453    	((4.719619e-09 2.603155e-06 4.431801e-09) (1.224286e-09 2.800517e-06 1.121400e-09)) ((-3.731580e-14 -2.107112e-14 -2.748636e-12) (-4.581429e-11 -5.994032e-13 5.401733e-11))
420.75451     	((4.443014e-09 2.602153e-06 4.143715e-09) (1.248627e-09 2.788673e-06 1.141116e-09)) ((-3.488935e-14 -2.183724e-14 -2.764918e-12) (-4.094401e-11 -6.527043e-13 4.867871e-11))
451.395101    	((4.121630e-09 2.600982e-06 3.818092e-09) (1.251540e-09 2.778599e-06 1.139362e-09)) ((-3.238748e-14 -2.237642e-14 -2.778261e-12) (-3.625985e-11 -7.036612e-13 4.361666e-11))
482.048035    	((3.789343e-09 2.599803e-06 3.481372e-09) (1.236347e-09 2.770012e-06 1.119064e-09)) ((-3.008330e-14 -2.308231e-14 -2.788686e-12) (-3.181843e-11 -7.350819e-13 3.893670e-11))
512.711504    	((3.448792e-09 2.598639e-06 3.154706e-09) (1.208260e-09 2.762676e-06 1.085889e-09)) ((-2.813736e-14 -2.357580e-14 -2.797999e-12) (-2.763547e-11 -7.380434e-13 3.451932e-11))
543.383979    	((3.110827e-09 2.597534e-06 2.829418e-09) (1.169075e-09 2.756400e-06 1.043419e-09)) ((-2.636854e-14 -2.401165e-14 -2.805875e-12) (-2.371862e-11 -7.399335e-13 3.039722e-11))
574.064154    	((2.778573e-09 2.596479e-06 2.511501e-09) (1.121211e-09 2.751021e-06 9.936693e-10)) ((-2.464922e-14 -2.449757e-14 -2.812164e-12) (-2.009046e-11 -7.426233e-13 2.661619e-11))
604.750924    	((2.467728e-09 2.595511e-06 2.213820e-09) (1.067573e-09 2.746405e-06 9.394570e-10)) ((-2.325511e-14 -2.508012e-14 -2.817689e-12) (-1.674907e-11 -7.450250e-13 2.318392e-11))
635.44334     	((2.175950e-09 2.594611e-06 1.937078e-09) (1.010005e-09 2.742437e-06 8.821159e-10)) ((-2.213766e-14 -2.552635e-14 -2.822328e-12) (-1.370848e-11 -7.579751e-13 2.007337e-11))
666.140594    	((1.912072e-09 2.593780e-06 1.684100e-09) (9.508886e-10 2.739019e-06 8.235037e-10)) ((-2.110986e-14 -2.587064e-14 -2.826235e-12) (-1.097412e-11 -7.724012e-13 1.728697e-11))
696.841996    	((1.674498e-09 2.593028e-06 1.459906e-09) (8.926560e-10 2.736071e-06 7.662429e-10)) ((-2.020268e-14 -2.618823e-14 -2.829577e-12) (-8.533200e-12 -7.835976e-13 1.479687e-11))
727.546962    	((1.464105e-09 2.592344e-06 1.261624e-09) (8.366779e-10 2.733525e-06 7.114650e-10)) ((-1.949884e-14 -2.645630e-14 -2.832493e-12) (-6.371606e-12 -7.913495e-13 1.258288e-11))
758.254993    	((1.280432e-09 2.591730e-06 1.086774e-09) (7.841369e-10 2.731323e-06 6.601880e-10)) ((-1.897487e-14 -2.670850e-14 -2.834985e-12) (-4.460781e-12 -7.928078e-13 1.063238e-11))
788.965668    	((1.123812e-09 2.591176e-06 9.368504e-10) (7.359278e-10 2.729417e-06 6.131009e-10)) ((-1.860301e-14 -2.692320e-14 -2.837121e-12) (-2.785245e-12 -7.883863e-13 8.922745e-12))
819.678626    	((9.898885e-10 2.590679e-06 8.093929e-10) (6.925321e-10 2.727765e-06 5.707155e-10)) ((-1.833412e-14 -2.704632e-14 -2.838949e-12) (-1.328347e-12 -7.812072e-13 7.434009e-12))
850.393562    	((8.784424e-10 2.590237e-06 7.032858e-10) (6.541812e-10 2.726331e-06 5.334831e-10)) ((-1.812838e-14 -2.714725e-14 -2.840509e-12) (-5.416193e-14 -7.735068e-13 6.143565e-12))
881.110216    	((7.817991e-10 2.589844e-06 6.094023e-10) (6.206930e-10 2.725086e-06 5.006370e-10)) ((-1.786421e-14 -2.725079e-14 -2.841823e-12) (1.056965e-12 -7.699817e-13 5.026665e-12))
911.828364    	((7.053641e-10 2.589493e-06 5.335749e-10) (5.919851e-10 2.724003e-06 4.722437e-10)) ((-1.772565e-14 -2.734025e-14 -2.842959e-12) (2.019009e-12 -7.670200e-13 4.061241e-12))
942.547815    	((6.407108e-10 2.589179e-06 4.720278e-10) (5.676084e-10 2.723061e-06 4.481704e-10)) ((-1.764867e-14 -2.741876e-14 -2.843931e-12) (2.851383e-12 -7.645500e-13 3.229312e-12))
973.268404    	((5.882548e-10 2.588900e-06 4.202651e-10) (5.470646e-10 2.722241e-06 4.278647e-10)) ((-1.756633e-14 -2.751059e-14 -2.844777e-12) (3.571522e-12 -7.626845e-13 2.513750e-12))
1003.98999    	((5.453078e-10 2.588655e-06 3.777927e-10) (5.300172e-10 2.721526e-06 4.109888e-10)) ((-1.752479e-14 -2.758299e-14 -2.845511e-12) (4.197192e-12 -7.610945e-13 1.897216e-12))
1034.712447   	((5.098107e-10 2.588436e-06 3.425462e-10) (5.159843e-10 2.720903e-06 3.970554e-10)) ((-1.747105e-14 -2.764551e-14 -2.846154e-12) (4.738342e-12 -7.593272e-13 1.365353e-12))
1065.435672   	((4.801526e-10 2.588240e-06 3.128346e-10) (5.044849e-10 2.720360e-06 3.855712e-10)) ((-1.742537e-14 -2.769403e-14 -2.846718e-12) (5.206326e-12 -7.573218e-13 9.063786e-13))
1096.15957    	((4.553576e-10 2.588068e-06 2.874859e-10) (4.950854e-10 2.719886e-06 3.761096e-10)) ((-1.738249e-14 -2.773754e-14 -2.847206e-12) (5.611571e-12 -7.550813e-13 5.107139e-13))
1126.884059   	((4.341042e-10 2.587915e-06 2.656492e-10) (4.873841e-10 2.719472e-06 3.683105e-10)) ((-1.733961e-14 -2.777523e-14 -2.847633e-12) (5.962036e-12 -7.533443e-13 1.697412e-13))
1157.609067   	((4.155480e-10 2.587781e-06 2.466027e-10) (4.810693e-10 2.719111e-06 3.618271e-10)) ((-1.729672e-14 -2.780084e-14 -2.848002e-12) (6.266117e-12 -7.517723e-13 -1.247318e-13))
1188.33453    	((3.992752e-10 2.587664e-06 2.299076e-10) (4.758110e-10 2.718795e-06 3.563604e-10)) ((-1.725223e-14 -2.782561e-14 -2.848330e-12) (6.532678e-12 -7.503386e-13 -3.812848e-13))
1219.060393   	((3.843032e-10 2.587559e-06 2.142781e-10) (4.713656e-10 2.718520e-06 3.516866e-10)) ((-1.719482e-14 -2.784912e-14 -2.848617e-12) (6.767222e-12 -7.490862e-13 -6.058049e-13))
1249.786606   	((3.707251e-10 2.587466e-06 1.997838e-10) (4.675436e-10 2.718278e-06 3.476297e-10)) ((-1.714981e-14 -2.786559e-14 -2.848864e-12) (6.973463e-12 -7.480300e-13 -8.027247e-13))
1280.513125   	((3.580739e-10 2.587385e-06 1.866784e-10) (4.641885e-10 2.718067e-06 3.440405e-10)) ((-1.709914e-14 -2.787964e-14 -2.849084e-12) (7.155702e-12 -7.472260e-13 -9.762428e-13))
1311.239912   	((3.462963e-10 2.587313e-06 1.744011e-10) (4.611802e-10 2.717883e-06 3.408071e-10)) ((-1.705024e-14 -2.789525e-14 -2.849276e-12) (7.316874e-12 -7.466018e-13 -1.129604e-12))
1341.966932   	((3.354142e-10 2.587250e-06 1.630569e-10) (4.584395e-10 2.717721e-06 3.378610e-10)) ((-1.700093e-14 -2.790986e-14 -2.849444e-12) (7.459576e-12 -7.460811e-13 -1.265781e-12))
1372.694156   	((3.252597e-10 2.587194e-06 1.525856e-10) (4.559081e-10 2.717580e-06 3.351330e-10)) ((-1.695412e-14 -2.792449e-14 -2.849591e-12) (7.586039e-12 -7.456706e-13 -1.386379e-12))
1403.421558   	((3.161144e-10 2.587147e-06 1.431101e-10) (4.535544e-10 2.717456e-06 3.326002e-10)) ((-1.691926e-14 -2.793582e-14 -2.849722e-12) (7.698191e-12 -7.453386e-13 -1.493068e-12))
1434.149115   	((3.076381e-10 2.587104e-06 1.343755e-10) (4.513637e-10 2.717348e-06 3.302406e-10)) ((-1.688106e-14 -2.794692e-14 -2.849837e-12) (7.797678e-12 -7.450587e-13 -1.587777e-12))
1464.876807   	((3.000272e-10 2.587067e-06 1.265901e-10) (4.493242e-10 2.717253e-06 3.280510e-10)) ((-1.685609e-14 -2.795389e-14 -2.849938e-12) (7.885772e-12 -7.448185e-13 -1.671882e-12))
1495.604616   	((2.931034e-10 2.587034e-06 1.191721e-10) (4.474350e-10 2.717171e-06 3.260473e-10)) ((-1.682499e-14 -2.796218e-14 -2.850022e-12) (7.963830e-12 -7.446022e-13 -1.746390e-12))
1526.332528   	((2.868716e-10 2.587004e-06 1.129095e-10) (4.456835e-10 2.717098e-06 3.241998e-10)) ((-1.680665e-14 -2.796729e-14 -2.850098e-12) (8.032666e-12 -7.444036e-13 -1.812158e-12))
1557.060529   	((2.814945e-10 2.586979e-06 1.075186e-10) (4.440860e-10 2.717034e-06 3.225125e-10)) ((-1.678564e-14 -2.797387e-14 -2.850162e-12) (8.093366e-12 -7.442238e-13 -1.869987e-12))
1587.788607   	((2.768114e-10 2.586956e-06 1.028757e-10) (4.426386e-10 2.716979e-06 3.209930e-10)) ((-1.677205e-14 -2.797926e-14 -2.850221e-12) (8.146693e-12 -7.440397e-13 -1.920962e-12))
1618.516754   	((2.727703e-10 2.586937e-06 9.890940e-11) (4.413431e-10 2.716930e-06 3.196378e-10)) ((-1.675887e-14 -2.798343e-14 -2.850270e-12) (8.193395e-12 -7.438840e-13 -1.965644e-12))
1649.244959   	((2.693369e-10 2.586919e-06 9.553618e-11) (4.401947e-10 2.716887e-06 3.184444e-10)) ((-1.674904e-14 -2.798724e-14 -2.850314e-12) (8.234226e-12 -7.437523e-13 -2.004740e-12))
1679.973217   	((2.663728e-10 2.586904e-06 9.260281e-11) (4.391878e-10 2.716850e-06 3.174010e-10)) ((-1.674139e-14 -2.799102e-14 -2.850352e-12) (8.269845e-12 -7.436380e-13 -2.038902e-12))
1710.70152    	((2.638939e-10 2.586891e-06 9.017301e-11) (4.383131e-10 2.716817e-06 3.164935e-10)) ((-1.673508e-14 -2.799391e-14 -2.850385e-12) (8.300821e-12 -7.435358e-13 -2.068688e-12))
1741.429863   	((2.618170e-10 2.586879e-06 8.819137e-11) (4.375613e-10 2.716788e-06 3.157166e-10)) ((-1.672595e-14 -2.799479e-14 -2.850412e-12) (8.327619e-12 -7.434492e-13 -2.094480e-12))
1772.15824    	((2.599575e-10 2.586870e-06 8.615223e-11) (4.369177e-10 2.716763e-06 3.150472e-10)) ((-1.672672e-14 -2.799920e-14 -2.850441e-12) (8.350795e-12 -7.433629e-13 -2.116886e-12))
1802.886649   	((2.585327e-10 2.586860e-06 8.485143e-11) (4.363798e-10 2.716741e-06 3.144944e-10)) ((-1.672344e-14 -2.800108e-14 -2.850462e-12) (8.370920e-12 -7.432900e-13 -2.136378e-12))
