# Forces      
# CofR        : (0.000000e+00 0.000000e+00 0.000000e+00)
# Time        forces(pressure viscous)	moments(pressure viscous)
0             	((0.000000e+00 0.000000e+00 0.000000e+00) (-5.481752e-14 -2.506059e-14 7.992883e-04)) ((0.000000e+00 0.000000e+00 0.000000e+00) (1.422732e-15 3.091355e-10 1.971665e-17))
0.012         	((4.979879e-08 -2.406251e-08 2.323001e-01) (-4.064274e-10 -6.199059e-10 9.155140e-04)) ((8.199983e-11 6.165258e-08 7.023782e-13) (-5.698766e-12 8.768578e-10 3.769083e-14))
0.0264        	((-1.350199e-06 -7.762816e-07 -2.014045e-02) (-1.534869e-09 -1.406933e-09 9.298663e-04)) ((2.609575e-11 -4.672856e-09 1.894328e-11) (-7.180849e-12 1.170537e-09 -2.118280e-13))
0.04368       	((2.488932e-06 1.042799e-06 -4.642289e-02) (-1.429276e-09 -9.715274e-10 8.223777e-04)) ((-5.562462e-10 -1.045490e-08 -2.521269e-11) (1.226094e-11 1.165372e-09 -8.474906e-13))
0.064416      	((-1.347351e-06 9.253949e-07 -4.205164e-04) (1.081918e-09 1.127010e-08 7.266790e-04)) ((1.828440e-10 4.692300e-10 1.659747e-11) (5.031307e-11 1.447397e-09 1.095188e-11))
0.0892992     	((1.110093e-06 -2.332803e-07 2.598214e-04) (3.328926e-09 1.587558e-08 6.697893e-04)) ((9.386613e-11 -8.881865e-11 -5.648762e-12) (1.284599e-10 1.858452e-09 3.353109e-11))
0.119159      	((-3.619366e-07 3.360608e-07 -8.094311e-04) (-5.175392e-10 1.027757e-08 6.184110e-04)) ((1.880905e-11 -1.683904e-10 1.248341e-11) (2.196300e-10 1.949348e-09 3.783701e-11))
0.154991      	((5.982207e-08 2.413730e-07 -3.367072e-04) (-5.022999e-09 8.333532e-09 5.653353e-04)) ((-7.717609e-12 2.219522e-10 -3.026120e-12) (2.201857e-10 1.894875e-09 2.887371e-11))
0.197989      	((-6.539525e-08 -1.154775e-07 -5.678254e-05) (-7.829068e-09 6.114696e-09 5.135877e-04)) ((-9.889021e-13 2.459931e-10 -7.242743e-13) (1.400510e-10 1.818696e-09 2.280514e-11))
0.249587      	((-2.621844e-08 -6.306992e-08 3.896534e-05) (-8.825068e-09 3.971044e-09 4.648663e-04)) ((-2.017306e-12 2.566850e-10 -6.222714e-13) (1.046674e-10 1.710577e-09 2.133619e-11))
0.311504      	((-1.488924e-07 -8.182003e-08 8.723987e-05) (-9.240265e-09 1.803633e-09 4.204694e-04)) ((-4.335266e-12 2.782129e-10 -1.039935e-12) (1.206791e-10 1.652130e-09 2.779269e-11))
0.385805      	((-1.325707e-07 -8.331441e-08 1.139243e-04) (-8.110915e-09 2.093481e-10 3.810646e-04)) ((-4.700527e-12 2.751216e-10 -1.360305e-12) (1.163836e-10 1.750083e-09 2.751252e-11))
0.474966      	((-6.357593e-08 -5.359793e-08 1.266084e-04) (-2.450492e-09 1.768273e-10 3.466132e-04)) ((-1.497440e-12 2.555973e-10 -7.359296e-13) (1.001013e-10 2.029103e-09 1.749856e-11))
0.581959      	((-3.624132e-08 -3.901471e-08 1.311693e-04) (8.892481e-10 2.214772e-10 3.162600e-04)) ((7.295876e-13 2.322426e-10 -1.017367e-12) (8.523069e-11 2.237779e-09 1.102208e-11))
0.710351      	((-3.022538e-08 -2.624571e-08 1.306178e-04) (4.342132e-10 -2.818090e-10 2.885215e-04)) ((9.508103e-13 2.134021e-10 -5.547944e-13) (6.908197e-11 2.141248e-09 7.620454e-12))
0.864421      	((-2.342898e-08 -2.430578e-08 1.266358e-04) (1.468208e-09 -7.638255e-10 2.623309e-04)) ((1.288071e-12 1.904918e-10 -3.016721e-13) (5.472740e-11 1.775150e-09 4.529023e-12))
1.049306      	((-1.372875e-08 -1.667948e-08 1.205044e-04) (6.266568e-10 -1.141169e-09 2.376265e-04)) ((1.347402e-12 1.702488e-10 -1.434116e-13) (3.689400e-11 1.241917e-09 2.780519e-12))
1.271167      	((-5.979166e-09 -1.516319e-08 1.134927e-04) (-2.351264e-09 -1.488212e-09 2.147678e-04)) ((1.220816e-12 1.563775e-10 -7.672416e-14) (2.163047e-11 8.691779e-10 1.857846e-12))
1.5374        	((-2.879532e-08 -9.662753e-09 1.067856e-04) (-3.787525e-09 -1.789790e-09 1.940722e-04)) ((1.146807e-12 1.444493e-10 2.158914e-14) (1.821978e-11 8.213911e-10 9.598899e-13))
1.85688       	((-3.172423e-08 -8.188283e-09 1.011413e-04) (-4.253652e-09 -1.895435e-09 1.756756e-04)) ((1.406448e-12 1.306171e-10 4.683985e-15) (3.169298e-11 8.572040e-10 1.162152e-12))
2.240256      	((-3.288156e-08 -6.364264e-09 9.697538e-05) (-3.223403e-09 -1.658634e-09 1.595129e-04)) ((1.609930e-12 1.170922e-10 7.092302e-14) (7.048623e-11 7.915705e-10 9.584882e-13))
2.700307      	((-4.566819e-08 -2.538728e-08 9.442561e-05) (-1.255974e-09 -1.381793e-09 1.454152e-04)) ((1.397909e-12 1.083605e-10 1.138458e-13) (1.270446e-10 5.944390e-10 1.010641e-12))
3.252369      	((-5.225364e-08 -4.089053e-08 9.377438e-05) (-6.161010e-10 -1.383828e-09 1.332016e-04)) ((1.592208e-12 1.003306e-10 1.319939e-13) (1.908781e-10 2.749956e-10 3.178444e-12))
3.914842      	((-5.904124e-08 -5.490034e-08 9.493289e-05) (-7.057995e-10 -1.783508e-09 1.227229e-04)) ((1.892955e-12 9.356956e-11 1.275222e-13) (2.315518e-10 5.018697e-11 4.503116e-12))
4.709811      	((-7.080781e-08 -6.687105e-08 9.825963e-05) (-1.731030e-09 -2.651070e-09 1.138302e-04)) ((1.759372e-12 8.759605e-11 7.060472e-14) (2.199585e-10 5.664076e-12 4.977942e-12))
5.663773      	((-7.021025e-08 -6.094457e-08 1.038295e-04) (-2.802907e-09 -3.355636e-09 1.063414e-04)) ((1.492332e-12 8.246984e-11 1.066980e-13) (1.577584e-10 6.870803e-11 4.630270e-12))
6.808528      	((-6.457877e-08 -5.150134e-08 1.116061e-04) (-4.616963e-09 -3.548085e-09 1.001238e-04)) ((1.608610e-12 7.801358e-11 1.161748e-13) (7.637730e-11 2.283113e-10 2.741990e-12))
8.177093      	((-4.712101e-08 -3.689913e-08 1.214893e-04) (-5.466196e-09 -3.189430e-09 9.505117e-05)) ((1.464216e-12 7.345837e-11 1.027552e-13) (-5.535500e-12 3.739127e-10 1.782645e-12))
9.770117      	((-2.367502e-08 -1.654420e-08 1.331028e-04) (-4.350620e-09 -2.337150e-09 9.102014e-05)) ((1.029801e-12 7.024273e-11 7.030284e-14) (-8.785463e-11 4.769819e-10 1.811101e-12))
11.587935     	((-1.483783e-08 2.008827e-09 1.457368e-04) (-2.457131e-09 -4.331491e-10 8.790429e-05)) ((6.219844e-13 6.611165e-11 1.118952e-13) (-1.868504e-10 6.792931e-10 1.549451e-12))
13.630159     	((-1.440030e-08 1.045052e-08 1.589621e-04) (-1.584649e-09 1.896171e-09 8.553761e-05)) ((1.886031e-13 6.288163e-11 1.306473e-13) (-3.100644e-10 1.293510e-09 -2.422543e-13))
15.864072     	((-7.528266e-09 1.711791e-08 1.718548e-04) (-1.425016e-09 3.439561e-09 8.372193e-05)) ((-5.321159e-13 6.106308e-11 1.466098e-13) (-4.009896e-10 2.266267e-09 -1.644362e-12))
18.084445     	((-9.828967e-09 9.340585e-09 1.830946e-04) (-2.271266e-10 3.671564e-09 8.237759e-05)) ((-1.097116e-12 6.222999e-11 1.843125e-13) (-4.361039e-10 2.946194e-09 -2.697671e-12))
20.29374      	((-2.387967e-09 2.033585e-08 1.921359e-04) (1.932131e-10 2.719162e-09 8.119429e-05)) ((-1.409279e-12 6.209612e-11 1.600688e-13) (-3.589717e-10 3.123267e-09 -3.310045e-12))
22.499576     	((-2.973001e-09 2.744822e-08 1.984046e-04) (-1.681684e-09 7.630041e-10 8.008324e-05)) ((-1.659229e-12 6.219266e-11 1.838039e-13) (-1.927132e-10 2.813642e-09 -6.554277e-13))
24.711419     	((-5.580347e-09 3.834946e-08 2.027808e-04) (-4.503726e-09 -1.754697e-09 7.907657e-05)) ((-2.215403e-12 6.228251e-11 1.856678e-13) (3.555698e-11 2.217686e-09 1.347279e-13))
26.934529     	((-5.166476e-08 7.906677e-09 2.046200e-04) (-1.011520e-08 -4.541390e-09 7.816725e-05)) ((-1.376168e-12 6.245769e-11 1.951975e-13) (2.600902e-10 1.715332e-09 -9.429812e-13))
29.169193     	((-8.935568e-08 -9.754811e-09 2.047557e-04) (-1.636587e-08 -7.742828e-09 7.729942e-05)) ((-7.747971e-13 6.308496e-11 2.450135e-13) (4.273296e-10 1.370564e-09 -5.524118e-13))
31.413708     	((-1.352008e-07 -3.687216e-08 2.038797e-04) (-2.136519e-08 -1.123612e-08 7.643543e-05)) ((6.538412e-13 6.243688e-11 3.330024e-13) (5.989549e-10 1.085797e-09 2.091940e-13))
33.666884     	((-1.463767e-07 -2.945753e-08 2.027048e-04) (-2.472807e-08 -1.524432e-08 7.562000e-05)) ((1.241363e-12 6.188563e-11 3.444406e-13) (7.964571e-10 9.126798e-10 1.060931e-12))
35.928677     	((-1.461441e-07 -1.236008e-08 2.015404e-04) (-2.577453e-08 -1.674536e-08 7.488512e-05)) ((1.469048e-12 6.142335e-11 3.234633e-13) (9.124028e-10 8.363547e-10 2.732848e-12))
38.198101     	((-1.719997e-07 -2.835264e-08 1.998319e-04) (-2.665702e-08 -1.714540e-08 7.420708e-05)) ((1.815299e-12 6.025412e-11 3.131746e-13) (9.561799e-10 7.266506e-10 5.070338e-12))
40.473613     	((-1.912651e-07 -4.660184e-08 1.983239e-04) (-2.892486e-08 -1.850293e-08 7.357924e-05)) ((2.043063e-12 5.941108e-11 3.029687e-13) (9.770947e-10 5.592580e-10 6.680500e-12))
42.752042     	((-1.990452e-07 -6.425988e-08 1.969329e-04) (-3.099510e-08 -1.983845e-08 7.300094e-05)) ((2.022675e-12 5.867847e-11 3.107623e-13) (9.597741e-10 3.949331e-10 6.924507e-12))
45.033777     	((-2.172053e-07 -8.943675e-08 1.958039e-04) (-3.298345e-08 -2.088341e-08 7.246844e-05)) ((1.936153e-12 5.773185e-11 3.207327e-13) (9.029208e-10 2.185545e-10 5.955458e-12))
47.3195       	((-2.267581e-07 -1.027774e-07 1.948147e-04) (-3.539970e-08 -2.141486e-08 7.197679e-05)) ((1.718813e-12 5.678539e-11 3.297175e-13) (8.139879e-10 4.744510e-11 5.560082e-12))
49.609347     	((-2.069875e-07 -9.783574e-08 1.939130e-04) (-3.674217e-08 -2.100448e-08 7.151875e-05)) ((1.352388e-12 5.618727e-11 2.973467e-13) (7.152102e-10 -7.388744e-11 5.720402e-12))
51.903565     	((-2.113119e-07 -1.178871e-07 1.930432e-04) (-3.651975e-08 -2.038215e-08 7.109063e-05)) ((1.351351e-12 5.523197e-11 3.090146e-13) (6.066460e-10 -1.368892e-10 5.747046e-12))
54.202133     	((-2.195553e-07 -1.437308e-07 1.922538e-04) (-3.584321e-08 -2.037729e-08 7.069333e-05)) ((1.243131e-12 5.419252e-11 3.167323e-13) (5.012607e-10 -1.651811e-10 5.336416e-12))
56.505128     	((-2.232876e-07 -1.663667e-07 1.915522e-04) (-3.460747e-08 -2.090145e-08 7.032880e-05)) ((1.078854e-12 5.308262e-11 3.120273e-13) (3.945734e-10 -1.778043e-10 5.072746e-12))
58.813123     	((-2.479682e-07 -1.976063e-07 1.907993e-04) (-3.343273e-08 -2.146278e-08 6.998929e-05)) ((9.033820e-13 5.208126e-11 2.898065e-13) (2.703527e-10 -1.544190e-10 4.401853e-12))
61.126344     	((-2.641682e-07 -2.296893e-07 1.901335e-04) (-3.183868e-08 -2.185756e-08 6.967300e-05)) ((6.067955e-13 5.146301e-11 3.150350e-13) (9.942968e-11 -7.003432e-11 4.002079e-12))
63.44469      	((-2.933286e-07 -2.675672e-07 1.894857e-04) (-3.020149e-08 -2.253710e-08 6.937852e-05)) ((4.831092e-13 5.073026e-11 3.065806e-13) (-8.346209e-11 5.445580e-11 3.403913e-12))
65.768047     	((-3.269518e-07 -3.097072e-07 1.888227e-04) (-2.959864e-08 -2.404328e-08 6.910043e-05)) ((3.776025e-13 5.018044e-11 3.147375e-13) (-2.416232e-10 1.860883e-10 2.987432e-12))
68.096224     	((-3.688598e-07 -3.552746e-07 1.880604e-04) (-2.970714e-08 -2.628698e-08 6.883275e-05)) ((2.543855e-13 4.965768e-11 3.242044e-13) (-3.872833e-10 3.300574e-10 3.053436e-12))
70.429075     	((-4.081669e-07 -3.909509e-07 1.873926e-04) (-3.032689e-08 -2.882749e-08 6.857655e-05)) ((-1.862404e-14 4.929540e-11 2.798524e-13) (-5.183974e-10 4.672787e-10 2.900781e-12))
72.766523     	((-4.521366e-07 -4.351478e-07 1.867768e-04) (-3.167755e-08 -3.198911e-08 6.833307e-05)) ((-1.827907e-13 4.883226e-11 2.724968e-13) (-6.190695e-10 5.842658e-10 3.155913e-12))
75.108451     	((-5.043859e-07 -4.839802e-07 1.862679e-04) (-3.403384e-08 -3.602580e-08 6.810453e-05)) ((-1.962553e-13 4.821714e-11 2.971061e-13) (-6.916355e-10 6.787063e-10 3.232007e-12))
77.454752     	((-5.568548e-07 -5.369365e-07 1.857500e-04) (-3.755231e-08 -4.095524e-08 6.789019e-05)) ((5.162606e-14 4.756849e-11 3.609074e-13) (-7.392998e-10 7.624212e-10 2.673017e-12))
79.805296     	((-6.122511e-07 -5.936178e-07 1.852173e-04) (-4.210455e-08 -4.679474e-08 6.768622e-05)) ((3.516860e-13 4.700458e-11 4.046362e-13) (-7.595306e-10 8.217076e-10 2.573077e-12))
82.15997      	((-6.658290e-07 -6.494070e-07 1.847057e-04) (-4.750516e-08 -5.328415e-08 6.748968e-05)) ((7.097548e-13 4.654935e-11 4.411801e-13) (-7.575761e-10 8.413504e-10 2.326586e-12))
84.51861      	((-7.231983e-07 -7.198900e-07 1.841914e-04) (-5.373263e-08 -6.063659e-08 6.729803e-05)) ((1.344086e-12 4.593374e-11 4.358887e-13) (-7.471670e-10 8.388122e-10 1.708233e-12))
86.881036     	((-7.809559e-07 -7.834393e-07 1.836771e-04) (-6.049788e-08 -6.828937e-08 6.711137e-05)) ((1.900381e-12 4.526920e-11 4.150814e-13) (-7.380869e-10 8.347806e-10 1.147270e-12))
89.247125     	((-8.571540e-07 -8.739444e-07 1.831513e-04) (-6.830473e-08 -7.679250e-08 6.693055e-05)) ((2.710888e-12 4.440631e-11 4.142353e-13) (-7.390287e-10 8.411528e-10 4.884515e-13))
91.616746     	((-9.334482e-07 -9.738339e-07 1.826632e-04) (-7.698828e-08 -8.656655e-08 6.675750e-05)) ((3.615907e-12 4.350224e-11 4.213566e-13) (-7.553207e-10 8.519728e-10 -3.067182e-13))
93.989736     	((-1.022054e-06 -1.099504e-06 1.821747e-04) (-8.653253e-08 -9.795246e-08 6.659158e-05)) ((4.808255e-12 4.242149e-11 4.579651e-13) (-7.870582e-10 8.560506e-10 -5.359852e-13))
96.365946     	((-1.113110e-06 -1.232438e-06 1.817850e-04) (-9.684192e-08 -1.105701e-07 6.643498e-05)) ((6.080949e-12 4.118480e-11 5.007226e-13) (-8.395748e-10 8.534666e-10 -5.257324e-14))
98.745252     	((-1.231869e-06 -1.398036e-06 1.814218e-04) (-1.085439e-07 -1.248155e-07 6.628853e-05)) ((7.657669e-12 3.958699e-11 5.320607e-13) (-9.280212e-10 8.521000e-10 7.899734e-13))
101.12754     	((-1.361560e-06 -1.585937e-06 1.810354e-04) (-1.220465e-07 -1.412753e-07 6.614908e-05)) ((9.239089e-12 3.798228e-11 5.714991e-13) (-1.053112e-09 8.555188e-10 2.056622e-12))
103.512675    	((-1.502781e-06 -1.784623e-06 1.806552e-04) (-1.368474e-07 -1.592785e-07 6.601545e-05)) ((1.077340e-11 3.630443e-11 5.979237e-13) (-1.217513e-09 8.796508e-10 2.666613e-12))
105.900506    	((-1.653644e-06 -1.999984e-06 1.802672e-04) (-1.525911e-07 -1.785041e-07 6.588680e-05)) ((1.229494e-11 3.456648e-11 6.355516e-13) (-1.432206e-09 9.374109e-10 3.583366e-12))
108.290879    	((-1.820091e-06 -2.230039e-06 1.798880e-04) (-1.692375e-07 -1.989878e-07 6.576257e-05)) ((1.382593e-11 3.271105e-11 6.914577e-13) (-1.698309e-09 1.033518e-09 5.363912e-12))
110.68363     	((-2.016877e-06 -2.491414e-06 1.795096e-04) (-1.874042e-07 -2.212512e-07 6.564232e-05)) ((1.549248e-11 3.070055e-11 7.414832e-13) (-2.006677e-09 1.165445e-09 8.383172e-12))
113.0786      	((-2.245514e-06 -2.785460e-06 1.791433e-04) (-2.078454e-07 -2.461498e-07 6.552584e-05)) ((1.719265e-11 2.865988e-11 7.979133e-13) (-2.348478e-09 1.330665e-09 1.255839e-11))
115.475636    	((-2.502359e-06 -3.106430e-06 1.788029e-04) (-2.306060e-07 -2.737629e-07 6.541332e-05)) ((1.893349e-11 2.662175e-11 8.759690e-13) (-2.723779e-09 1.542060e-09 1.712395e-11))
117.874579    	((-2.799515e-06 -3.465147e-06 1.784883e-04) (-2.561542e-07 -3.044481e-07 6.530500e-05)) ((2.087668e-11 2.439603e-11 9.654006e-13) (-3.135620e-09 1.806868e-09 2.206914e-11))
120.275266    	((-3.124904e-06 -3.849119e-06 1.781951e-04) (-2.844923e-07 -3.382500e-07 6.520106e-05)) ((2.289913e-11 2.218488e-11 1.057311e-12) (-3.582599e-09 2.128075e-09 2.743625e-11))
122.677531    	((-3.485673e-06 -4.261293e-06 1.779226e-04) (-3.155897e-07 -3.750231e-07 6.510161e-05)) ((2.504759e-11 1.995305e-11 1.153287e-12) (-4.066539e-09 2.512357e-09 3.234417e-11))
125.081225    	((-3.882405e-06 -4.705325e-06 1.776711e-04) (-3.497058e-07 -4.149111e-07 6.500668e-05)) ((2.742467e-11 1.766624e-11 1.252134e-12) (-4.590809e-09 2.963777e-09 3.803000e-11))
127.486212    	((-4.316872e-06 -5.185519e-06 1.774334e-04) (-3.871105e-07 -4.582967e-07 6.491613e-05)) ((3.002953e-11 1.528866e-11 1.358145e-12) (-5.151548e-09 3.486846e-09 4.404454e-11))
129.892353    	((-4.793633e-06 -5.706930e-06 1.772133e-04) (-4.281911e-07 -5.056745e-07 6.483007e-05)) ((3.292378e-11 1.278674e-11 1.468113e-12) (-5.746652e-09 4.076600e-09 4.988032e-11))
132.299508    	((-5.311218e-06 -6.269699e-06 1.770179e-04) (-4.732039e-07 -5.573838e-07 6.474910e-05)) ((3.608930e-11 1.016039e-11 1.587364e-12) (-6.373113e-09 4.725451e-09 5.456137e-11))
134.707529    	((-5.873181e-06 -6.879338e-06 1.768344e-04) (-5.225709e-07 -6.137322e-07 6.467327e-05)) ((3.959602e-11 7.363434e-12 1.719566e-12) (-7.028626e-09 5.426757e-09 5.821802e-11))
137.116264    	((-6.473784e-06 -7.534665e-06 1.766659e-04) (-5.762341e-07 -6.748418e-07 6.460260e-05)) ((4.341697e-11 4.474847e-12 1.848450e-12) (-7.721736e-09 6.178946e-09 5.975597e-11))
139.525555    	((-7.120545e-06 -8.252543e-06 1.764964e-04) (-6.344763e-07 -7.415403e-07 6.453624e-05)) ((4.777872e-11 1.340757e-12 1.992154e-12) (-8.452884e-09 6.976161e-09 5.797520e-11))
141.935238    	((-7.827946e-06 -9.043697e-06 1.763259e-04) (-6.983974e-07 -8.153341e-07 6.447322e-05)) ((5.278522e-11 -2.256902e-12 2.139530e-12) (-9.204737e-09 7.805785e-09 5.427277e-11))
144.345147    	((-8.589949e-06 -9.907156e-06 1.761718e-04) (-7.684558e-07 -8.966969e-07 6.441324e-05)) ((5.842864e-11 -6.252461e-12 2.308500e-12) (-9.986860e-09 8.663013e-09 4.990568e-11))
146.75511     	((-9.417141e-06 -1.085696e-05 1.760163e-04) (-8.456406e-07 -9.865256e-07 6.435584e-05)) ((6.484498e-11 -1.086067e-11 2.507037e-12) (-1.079535e-08 9.522255e-09 4.677866e-11))
149.164946    	((-1.031202e-05 -1.191028e-05 1.758698e-04) (-9.311690e-07 -1.086616e-06 6.430106e-05)) ((7.208744e-11 -1.605387e-11 2.735919e-12) (-1.162017e-08 1.035742e-08 4.326361e-11))
151.574469    	((-1.129353e-05 -1.306853e-05 1.757425e-04) (-1.026022e-06 -1.197960e-06 6.424961e-05)) ((8.007097e-11 -2.202952e-11 2.976682e-12) (-1.247382e-08 1.116888e-08 3.711884e-11))
153.983478    	((-1.235335e-05 -1.434079e-05 1.756267e-04) (-1.130250e-06 -1.321044e-06 6.420154e-05)) ((8.892802e-11 -2.876042e-11 3.218931e-12) (-1.339029e-08 1.198788e-08 2.686350e-11))
156.391763    	((-1.350750e-05 -1.574186e-05 1.755504e-04) (-1.244009e-06 -1.456489e-06 6.415792e-05)) ((9.878652e-11 -3.633260e-11 3.445113e-12) (-1.440173e-08 1.285215e-08 1.211638e-11))
158.799097    	((-1.477286e-05 -1.729696e-05 1.755033e-04) (-1.368385e-06 -1.605491e-06 6.411971e-05)) ((1.097958e-10 -4.479721e-11 3.632408e-12) (-1.554394e-08 1.377663e-08 2.346222e-12))
161.205235    	((-1.616601e-05 -1.899960e-05 1.754985e-04) (-1.505323e-06 -1.769672e-06 6.408789e-05)) ((1.215759e-10 -5.413728e-11 3.877831e-12) (-1.679334e-08 1.473351e-08 -1.509957e-13))
163.609912    	((-1.770153e-05 -2.088063e-05 1.755377e-04) (-1.656369e-06 -1.950604e-06 6.406270e-05)) ((1.343260e-10 -6.438452e-11 4.096861e-12) (-1.815845e-08 1.574687e-08 3.045115e-12))
166.012841    	((-1.939453e-05 -2.295529e-05 1.756325e-04) (-1.822534e-06 -2.149855e-06 6.404458e-05)) ((1.482149e-10 -7.564659e-11 4.357851e-12) (-1.968310e-08 1.685600e-08 9.656278e-12))
168.413697    	((-2.127070e-05 -2.525490e-05 1.757866e-04) (-2.005340e-06 -2.369660e-06 6.403453e-05)) ((1.634547e-10 -8.806960e-11 4.662037e-12) (-2.139136e-08 1.810319e-08 1.181703e-11))
170.812129    	((-2.335925e-05 -2.780085e-05 1.760077e-04) (-2.207191e-06 -2.612351e-06 6.403280e-05)) ((1.801621e-10 -1.016120e-10 5.024108e-12) (-2.330931e-08 1.952849e-08 1.256935e-11))
173.207715    	((-2.567639e-05 -3.060204e-05 1.763427e-04) (-2.429883e-06 -2.879099e-06 6.404110e-05)) ((1.982693e-10 -1.161545e-10 5.420704e-12) (-2.547972e-08 2.117954e-08 1.609352e-11))
175.599986    	((-2.823816e-05 -3.367982e-05 1.767854e-04) (-2.675352e-06 -3.171800e-06 6.406170e-05)) ((2.177408e-10 -1.319745e-10 5.833263e-12) (-2.792213e-08 2.307387e-08 3.013536e-11))
177.988453    	((-3.107152e-05 -3.706102e-05 1.773546e-04) (-2.946284e-06 -3.493440e-06 6.409692e-05)) ((2.385787e-10 -1.491973e-10 6.176475e-12) (-3.062790e-08 2.519723e-08 5.034944e-11))
180.3726      	((-3.420634e-05 -4.076598e-05 1.780489e-04) (-3.245343e-06 -3.847299e-06 6.414804e-05)) ((2.611572e-10 -1.679653e-10 6.479247e-12) (-3.355690e-08 2.753704e-08 9.191113e-11))
