# Forces      
# CofR        : (0.000000e+00 0.000000e+00 0.000000e+00)
# Time        forces(pressure viscous)	moments(pressure viscous)
0             	((0.000000e+00 0.000000e+00 0.000000e+00) (0.000000e+00 0.000000e+00 0.000000e+00)) ((0.000000e+00 0.000000e+00 0.000000e+00) (0.000000e+00 0.000000e+00 0.000000e+00))
0.012         	((-8.211596e-11 2.261491e-08 4.683468e-11) (1.816271e-13 5.744714e-10 -1.898688e-12)) ((-6.003489e-15 4.218393e-15 -5.145355e-10) (2.447888e-15 -4.667534e-14 -7.001461e-07))
0.0264        	((-2.752969e-10 3.319611e-09 9.268054e-13) (-6.852166e-14 8.484937e-10 -3.429566e-12)) ((4.328412e-15 -4.518049e-14 -2.362126e-10) (-3.538742e-17 -1.290869e-13 -6.413487e-07))
0.04368       	((-1.609130e-10 1.055827e-08 1.691709e-10) (-7.967340e-13 8.949737e-10 -4.915165e-12)) ((-8.647432e-15 -5.479354e-14 -1.290658e-10) (-2.935491e-15 -2.339360e-13 -5.808995e-07))
0.064416      	((-3.037098e-10 -1.457303e-09 -1.482891e-10) (-3.779068e-12 7.739012e-10 -8.101439e-12)) ((3.256646e-15 -2.942349e-14 -6.979234e-11) (-1.579588e-14 -3.671082e-13 -5.201491e-07))
0.0892992     	((2.626984e-10 4.663072e-09 1.296435e-10) (-5.308172e-12 6.445168e-10 -1.243807e-11)) ((-1.260912e-14 -7.576578e-14 -5.257056e-11) (-3.809981e-14 -5.345941e-13 -4.608914e-07))
0.119159      	((-1.282663e-10 -8.199683e-10 2.822187e-11) (-6.616226e-12 5.264947e-10 -1.475335e-11)) ((2.009960e-15 -5.505019e-14 -3.949587e-11) (-3.805395e-14 -6.221414e-13 -4.049730e-07))
0.154991      	((5.441077e-11 2.324917e-09 -3.816666e-11) (-1.003291e-11 4.789811e-10 -1.536999e-11)) ((-5.946474e-15 -4.284377e-14 -3.241282e-11) (-3.810421e-14 -6.537272e-13 -3.536917e-07))
0.197989      	((-7.283900e-11 7.876323e-10 4.127104e-12) (-1.135471e-11 4.202956e-10 -1.539172e-11)) ((-1.314438e-14 -3.685626e-14 -2.662191e-11) (-4.588918e-14 -6.668102e-13 -3.082397e-07))
0.249587      	((1.028784e-10 1.832719e-09 5.052497e-11) (-9.873030e-12 3.780101e-10 -1.566806e-11)) ((-8.238457e-15 -3.891062e-14 -2.195226e-11) (-6.505645e-14 -6.531094e-13 -2.692475e-07))
0.311504      	((-1.171636e-10 1.054179e-09 2.503854e-11) (-5.596252e-12 3.514707e-10 -1.721480e-11)) ((-6.378154e-15 -2.615023e-14 -1.790150e-11) (-8.038694e-14 -6.422674e-13 -2.366089e-07))
0.385805      	((-2.678721e-11 9.117577e-10 -1.037520e-11) (-8.315407e-13 3.345427e-10 -1.801627e-11)) ((-1.522914e-15 -1.020827e-14 -1.479976e-11) (-3.753477e-14 -6.030664e-13 -2.096213e-07))
0.474966      	((-2.568500e-10 8.746742e-10 1.689953e-11) (-1.689588e-12 3.224930e-10 -1.839547e-11)) ((8.760316e-16 -6.114237e-15 -1.269319e-11) (9.427172e-15 -5.535434e-13 -1.872307e-07))
0.581959      	((-1.990156e-10 6.778483e-10 3.564404e-11) (-5.381756e-12 2.902135e-10 -1.617902e-11)) ((5.216857e-15 7.695901e-15 -1.076267e-11) (5.380497e-15 -3.816417e-13 -1.683620e-07))
0.710351      	((-3.592493e-10 5.553001e-10 -2.120404e-11) (-1.482474e-11 2.455071e-10 -9.259459e-12)) ((7.610991e-15 1.747204e-14 -8.892030e-12) (-4.123683e-14 -8.434474e-14 -1.521344e-07))
0.864421      	((-2.816433e-10 1.087306e-09 -4.191851e-11) (-2.398898e-11 2.408642e-10 -3.059748e-12)) ((1.199056e-14 2.947352e-14 -7.627770e-12) (2.067269e-14 2.296776e-13 -1.379205e-07))
1.049306      	((-1.385187e-10 1.449104e-09 -4.447590e-11) (-2.133731e-11 2.181101e-10 -9.341013e-13)) ((1.185794e-14 3.768563e-14 -6.838116e-12) (-7.844582e-15 3.186238e-13 -1.252968e-07))
1.271167      	((-3.009581e-10 1.384170e-09 1.389103e-11) (-1.314462e-11 1.806126e-10 3.446722e-12)) ((2.575589e-15 3.499393e-14 -6.241955e-12) (-3.682904e-13 2.974055e-13 -1.139727e-07))
1.5374        	((-1.172550e-10 1.574766e-09 -4.912976e-11) (-2.647995e-13 1.914715e-10 7.610760e-12)) ((9.958859e-16 5.291459e-14 -5.735368e-12) (-7.514163e-13 1.445045e-13 -1.037607e-07))
1.85688       	((-3.154595e-10 1.934613e-09 -2.549590e-11) (1.853019e-11 2.167019e-10 9.539707e-12)) ((6.575057e-15 6.069239e-14 -5.323502e-12) (-1.209384e-12 -3.524925e-13 -9.455709e-08))
2.240256      	((-3.052906e-10 1.371168e-09 -1.730687e-11) (5.077726e-11 2.035906e-10 7.394947e-12)) ((3.551841e-15 6.291002e-14 -5.121307e-12) (-1.871625e-12 -1.142157e-12 -8.631037e-08))
2.700307      	((-3.093316e-10 9.254198e-10 1.244682e-11) (7.400449e-11 1.542628e-10 6.692388e-12)) ((4.174902e-15 6.474357e-14 -4.913519e-12) (-2.728134e-12 -2.049824e-12 -7.898145e-08))
3.252369      	((-1.411069e-10 6.843429e-10 1.271532e-11) (1.101907e-10 9.546242e-11 1.195620e-11)) ((5.503001e-15 6.563176e-14 -4.591854e-12) (-3.570425e-12 -2.833230e-12 -7.251529e-08))
3.914842      	((6.103436e-11 3.637353e-10 6.520303e-11) (1.724701e-10 4.567509e-11 1.419363e-11)) ((2.658099e-15 5.596590e-14 -4.165982e-12) (-3.979447e-12 -3.531329e-12 -6.682899e-08))
4.709811      	((-2.858852e-11 3.444001e-10 4.026071e-11) (2.146716e-10 -1.343007e-11 7.147144e-12)) ((-1.208158e-14 3.972773e-14 -3.727955e-12) (-4.070988e-12 -3.846191e-12 -6.181563e-08))
5.663773      	((1.370079e-10 3.795046e-11 4.781421e-11) (2.367700e-10 -6.133632e-11 1.909526e-12)) ((-2.816124e-14 2.018883e-14 -3.325678e-12) (-4.096357e-12 -3.969406e-12 -5.735600e-08))
6.808528      	((2.388940e-10 -1.701966e-10 -2.270053e-12) (2.448866e-10 -8.508081e-11 -4.777535e-12)) ((-2.820548e-14 5.899660e-15 -2.973560e-12) (-3.732483e-12 -3.771542e-12 -5.334261e-08))
8.182233      	((1.859497e-10 -1.218878e-10 -9.173866e-12) (2.199521e-10 -6.550940e-11 -9.356787e-12)) ((-2.745337e-14 -2.590033e-15 -2.683245e-12) (-3.081751e-12 -3.206399e-12 -4.969460e-08))
9.83068       	((1.357941e-10 -1.403561e-10 -3.727124e-11) (1.636808e-10 -4.717687e-11 -1.021370e-11)) ((-3.017718e-14 -1.565322e-14 -2.437089e-12) (-2.299120e-12 -2.534262e-12 -4.635467e-08))
11.808816     	((6.831721e-11 1.101508e-11 -1.818588e-11) (1.144754e-10 -2.610632e-11 -1.136513e-11)) ((-2.924797e-14 -2.049978e-14 -2.245568e-12) (-1.672434e-12 -1.966971e-12 -4.328283e-08))
14.182579     	((-3.169642e-11 -2.244244e-11 -1.952421e-11) (7.325009e-11 -1.353636e-11 -1.233472e-11)) ((-2.590609e-14 -2.985151e-14 -2.093807e-12) (-1.329511e-12 -1.669641e-12 -4.045059e-08))
17.031095     	((-1.637884e-11 1.584453e-11 -3.595120e-11) (4.989771e-11 -9.644894e-12 -9.684724e-12)) ((-1.736274e-14 -2.957636e-14 -1.969481e-12) (-8.857686e-13 -1.127508e-12 -3.784299e-08))
20.449314     	((3.006967e-11 4.560065e-11 -1.718465e-11) (3.693955e-11 -1.507402e-11 -2.768432e-12)) ((-1.179965e-14 -2.729659e-14 -1.860812e-12) (-5.771111e-13 -6.880523e-13 -3.545253e-08))
24.551176     	((6.061819e-11 5.290044e-11 -1.518907e-11) (3.193269e-11 -1.779563e-11 1.543382e-12)) ((-1.113681e-14 -2.527064e-14 -1.764092e-12) (-4.375492e-13 -5.538236e-13 -3.326989e-08))
29.473411     	((3.327509e-11 6.069625e-11 -1.209134e-11) (3.419881e-11 -1.270915e-11 -1.326746e-13)) ((-1.034396e-14 -2.346265e-14 -1.681926e-12) (-2.634406e-13 -5.679324e-13 -3.128241e-08))
35.380094     	((2.092115e-11 1.042999e-10 -1.225772e-11) (3.347369e-11 -9.088889e-12 -3.381832e-12)) ((-8.442560e-15 -2.411958e-14 -1.614269e-12) (-1.876681e-13 -6.397137e-13 -2.947330e-08))
42.468112     	((-2.798826e-13 1.277379e-10 -1.199762e-11) (3.742715e-11 -1.336267e-11 -4.628509e-12)) ((-7.795560e-15 -2.412766e-14 -1.561064e-12) (-1.850601e-13 -6.938986e-13 -2.782583e-08))
50.973735     	((-3.011624e-12 1.011716e-10 -1.027151e-11) (3.943901e-11 -1.906271e-11 -3.463921e-12)) ((-6.963552e-15 -2.288827e-14 -1.514501e-12) (-2.263093e-13 -7.336607e-13 -2.632581e-08))
61.180482     	((-3.834266e-12 1.304939e-10 -1.510889e-11) (4.061102e-11 -3.477812e-11 -2.099169e-12)) ((-4.341079e-15 -2.040633e-14 -1.472729e-12) (-3.103316e-13 -7.409436e-13 -2.496027e-08))
73.428578     	((9.720147e-12 1.430141e-10 -8.575226e-12) (4.619975e-11 -4.749869e-11 1.887658e-13)) ((-4.193356e-15 -1.625939e-14 -1.436134e-12) (-4.036153e-13 -7.126097e-13 -2.371751e-08))
88.126294     	((-3.079445e-12 1.237697e-10 -7.742015e-12) (5.671723e-11 -5.763315e-11 1.747414e-12)) ((-3.202688e-15 -1.471546e-14 -1.405851e-12) (-4.437297e-13 -6.432378e-13 -2.258756e-08))
105.763553    	((-7.068982e-12 7.598867e-11 -6.567492e-12) (5.898609e-11 -7.176324e-11 1.475417e-12)) ((-1.090131e-15 -1.410590e-14 -1.378788e-12) (-5.173843e-13 -5.616929e-13 -2.156238e-08))
126.928263    	((-1.701313e-12 5.868382e-11 -3.454584e-13) (5.196547e-11 -7.620999e-11 1.011711e-12)) ((-2.971764e-16 -1.209159e-14 -1.350213e-12) (-5.414085e-13 -4.344271e-13 -2.063408e-08))
152.325916    	((1.456812e-11 4.694816e-11 2.468199e-12) (4.129490e-11 -7.298956e-11 1.818566e-13)) ((-7.635858e-16 -1.146774e-14 -1.321737e-12) (-5.398273e-13 -4.001827e-13 -1.979342e-08))
182.803099    	((3.049790e-11 5.561145e-11 1.663040e-12) (3.388397e-11 -6.668280e-11 -3.912732e-13)) ((-1.714934e-15 -1.155768e-14 -1.294411e-12) (-5.360549e-13 -4.143256e-13 -1.903163e-08))
219.375719    	((2.599464e-11 5.844094e-11 1.644352e-12) (2.345448e-11 -6.669803e-11 -5.133453e-13)) ((-3.472416e-15 -1.178193e-14 -1.267701e-12) (-5.092263e-13 -4.255278e-13 -1.834040e-08))
263.262863    	((3.260584e-11 6.821258e-11 1.517938e-12) (1.662109e-11 -6.645971e-11 1.762944e-14)) ((-5.278038e-15 -1.172345e-14 -1.240195e-12) (-4.624541e-13 -3.974697e-13 -1.771336e-08))
315.927436    	((3.911102e-11 7.925572e-11 -4.691996e-12) (1.826495e-11 -6.626401e-11 6.568861e-13)) ((-5.819466e-15 -1.200308e-14 -1.216402e-12) (-4.348693e-13 -3.636857e-13 -1.714537e-08))
379.124923    	((2.556819e-11 6.572729e-11 -1.013651e-12) (2.395755e-11 -6.427686e-11 5.086883e-13)) ((-5.313474e-15 -1.217828e-14 -1.197181e-12) (-4.168573e-13 -3.103266e-13 -1.663192e-08))
454.961908    	((1.090368e-11 5.835619e-11 -6.234696e-12) (2.884601e-11 -5.974418e-11 9.693831e-13)) ((-5.172203e-15 -1.203105e-14 -1.178760e-12) (-4.878949e-13 -2.740884e-13 -1.616915e-08))
545.966289    	((-1.788741e-12 6.150470e-11 -6.465931e-12) (2.989515e-11 -5.364520e-11 2.243800e-12)) ((-5.123005e-15 -1.190945e-14 -1.162731e-12) (-5.445523e-13 -2.391447e-13 -1.575336e-08))
655.171547    	((1.092974e-12 7.452021e-11 -8.138840e-12) (2.781943e-11 -5.076535e-11 3.212803e-12)) ((-4.990708e-15 -1.186129e-14 -1.147883e-12) (-5.616986e-13 -2.008522e-13 -1.538154e-08))
784.71201     	((1.126440e-12 8.352634e-11 -7.334209e-12) (2.445076e-11 -5.140325e-11 4.350752e-12)) ((-5.024435e-15 -1.146262e-14 -1.133629e-12) (-5.771896e-13 -1.460528e-13 -1.505154e-08))
934.587069    	((4.076299e-12 8.791522e-11 -9.308379e-12) (2.537010e-11 -4.983181e-11 4.138215e-12)) ((-4.755832e-15 -1.131895e-14 -1.121842e-12) (-5.398535e-13 -1.009729e-13 -1.476151e-08))
1104.796993   	((9.415604e-12 8.795263e-11 -8.676517e-12) (2.714257e-11 -4.436195e-11 3.846381e-12)) ((-4.267348e-15 -1.086316e-14 -1.112554e-12) (-4.885088e-13 -6.522000e-14 -1.450872e-08))
1295.342501   	((1.152015e-11 8.715484e-11 -7.302322e-12) (2.851081e-11 -4.054651e-11 3.469353e-12)) ((-4.215416e-15 -1.067363e-14 -1.104592e-12) (-4.341635e-13 -3.851786e-14 -1.429000e-08))
1498.7068     	((1.658473e-11 8.413689e-11 -4.417278e-12) (2.816137e-11 -3.849663e-11 3.069507e-12)) ((-3.821246e-15 -1.078225e-14 -1.097597e-12) (-3.852485e-13 -3.038172e-14 -1.410243e-08))
1702.086407   	((2.016463e-11 8.561793e-11 -7.577940e-12) (2.727234e-11 -3.645064e-11 2.309264e-12)) ((-3.362353e-15 -1.084546e-14 -1.091454e-12) (-3.398110e-13 -3.746035e-14 -1.394336e-08))
1905.483548   	((2.103327e-11 8.714432e-11 -9.289382e-12) (2.642725e-11 -3.453180e-11 1.281108e-12)) ((-3.033319e-15 -1.083499e-14 -1.086152e-12) (-2.965691e-13 -4.407651e-14 -1.380906e-08))
2108.892346   	((2.145058e-11 9.038670e-11 -9.292160e-12) (2.522114e-11 -3.239908e-11 -1.087682e-14)) ((-2.693651e-15 -1.074826e-14 -1.081707e-12) (-2.484586e-13 -4.971196e-14 -1.369590e-08))
2312.315656   	((2.225073e-11 9.180138e-11 -8.216483e-12) (2.386107e-11 -3.032941e-11 -1.315549e-12)) ((-2.448684e-15 -1.067009e-14 -1.077869e-12) (-1.951457e-13 -5.558067e-14 -1.360029e-08))
2515.755578   	((2.428983e-11 9.185195e-11 -6.870815e-12) (2.264422e-11 -2.804973e-11 -2.226601e-12)) ((-2.302203e-15 -1.052681e-14 -1.074599e-12) (-1.497811e-13 -5.532238e-14 -1.351923e-08))
2719.207979   	((2.569554e-11 9.116641e-11 -7.130965e-12) (2.174140e-11 -2.584348e-11 -2.690766e-12)) ((-2.176019e-15 -1.033098e-14 -1.071556e-12) (-1.161438e-13 -5.387789e-14 -1.345017e-08))
2922.665509   	((2.640361e-11 8.996807e-11 -6.900937e-12) (2.080396e-11 -2.423353e-11 -2.883799e-12)) ((-2.081579e-15 -1.014613e-14 -1.068865e-12) (-8.954803e-14 -5.477134e-14 -1.339106e-08))
3126.128424   	((2.698913e-11 8.951016e-11 -6.847525e-12) (1.962538e-11 -2.332513e-11 -2.844443e-12)) ((-2.038072e-15 -9.915015e-15 -1.066516e-12) (-6.701381e-14 -6.183818e-14 -1.334018e-08))
3329.596733   	((2.824228e-11 8.954172e-11 -6.672715e-12) (1.822732e-11 -2.244951e-11 -2.613857e-12)) ((-1.995756e-15 -9.728922e-15 -1.064456e-12) (-4.748177e-14 -7.106374e-14 -1.329621e-08))
3533.070317   	((2.912467e-11 9.004217e-11 -6.472595e-12) (1.687826e-11 -2.158201e-11 -2.461058e-12)) ((-2.002841e-15 -9.627424e-15 -1.062703e-12) (-3.216165e-14 -7.700004e-14 -1.325802e-08))
3736.549082   	((2.980164e-11 9.027018e-11 -6.704188e-12) (1.585727e-11 -2.068682e-11 -2.367917e-12)) ((-2.011369e-15 -9.601567e-15 -1.061197e-12) (-2.037141e-14 -7.890586e-14 -1.322474e-08))
3940.032898   	((3.040684e-11 9.057524e-11 -6.768749e-12) (1.506351e-11 -1.994072e-11 -2.293061e-12)) ((-2.001379e-15 -9.584939e-15 -1.059855e-12) (-1.099743e-14 -7.799135e-14 -1.319563e-08))
4143.52146    	((3.097273e-11 9.088937e-11 -6.406116e-12) (1.440883e-11 -1.940945e-11 -2.146016e-12)) ((-1.992721e-15 -9.574647e-15 -1.058662e-12) (-3.130880e-15 -7.727675e-14 -1.317011e-08))
4347.014651   	((3.130184e-11 9.117740e-11 -6.008493e-12) (1.385364e-11 -1.900258e-11 -1.919604e-12)) ((-1.967808e-15 -9.560150e-15 -1.057632e-12) (3.475043e-15 -7.626090e-14 -1.314767e-08))
4550.512507   	((3.133045e-11 9.091125e-11 -5.839553e-12) (1.337889e-11 -1.858832e-11 -1.681391e-12)) ((-1.939545e-15 -9.567138e-15 -1.056723e-12) (9.784814e-15 -7.558247e-14 -1.312788e-08))
4754.014679   	((3.118661e-11 9.060254e-11 -5.989827e-12) (1.300051e-11 -1.817540e-11 -1.496732e-12)) ((-1.918088e-15 -9.568773e-15 -1.055917e-12) (1.577415e-14 -7.546189e-14 -1.311038e-08))
