# Forces      
# CofR        : (0.000000e+00 0.000000e+00 0.000000e+00)
# Time        forces(pressure viscous)	moments(pressure viscous)
0             	((0.000000e+00 0.000000e+00 0.000000e+00) (0.000000e+00 0.000000e+00 0.000000e+00)) ((0.000000e+00 0.000000e+00 0.000000e+00) (0.000000e+00 0.000000e+00 0.000000e+00))
0.012         	((4.466274e-11 -5.664580e-11 1.114753e-10) (-1.171586e-14 -1.074369e-13 -7.339381e-13)) ((-5.035831e-10 4.806610e-14 9.820087e-16) (-3.509746e-07 -3.860747e-14 1.608824e-14))
0.0264        	((-5.114333e-11 -9.865566e-11 2.014075e-10) (7.823250e-13 8.194310e-13 -6.351100e-13)) ((-2.486321e-10 3.771505e-14 -9.773556e-15) (-3.214724e-07 -6.662997e-14 1.620297e-14))
0.04368       	((2.216347e-10 1.479777e-10 2.342859e-10) (9.781909e-14 2.504716e-12 -1.634212e-13)) ((-1.375161e-10 3.135842e-14 -1.086102e-14) (-2.911571e-07 -3.801125e-14 -2.661505e-14))
0.064416      	((-7.601522e-11 5.353239e-12 5.301424e-11) (-2.576620e-12 3.760732e-12 4.850990e-13)) ((-7.725052e-11 2.117993e-14 4.096734e-15) (-2.606926e-07 3.440002e-14 -7.162259e-14))
0.0892992     	((3.815931e-11 4.293603e-11 1.826635e-11) (-5.716387e-12 4.244417e-12 1.345933e-12)) ((-5.818906e-11 2.079399e-14 -2.967104e-15) (-2.309699e-07 1.039860e-13 -9.611641e-14))
0.119159      	((4.861491e-11 6.712183e-11 1.774300e-10) (-7.784193e-12 3.933480e-12 2.156934e-12)) ((-4.173606e-11 1.454163e-14 7.166544e-16) (-2.029080e-07 1.440603e-13 -1.012161e-13))
0.154991      	((-2.338690e-11 -8.814244e-11 -5.257370e-11) (-8.827449e-12 3.420036e-12 2.442986e-12)) ((-3.318174e-11 1.118204e-14 1.448556e-15) (-1.771552e-07 1.591836e-13 -8.895792e-14))
0.197989      	((-3.429704e-11 -1.900210e-11 4.904845e-11) (-1.031411e-11 2.865904e-12 2.391763e-12)) ((-2.643924e-11 4.919918e-15 9.295481e-16) (-1.543277e-07 1.578984e-13 -7.444613e-14))
0.249587      	((3.912493e-12 -1.696690e-11 5.575700e-11) (-1.194181e-11 2.632746e-12 2.343825e-12)) ((-2.192479e-11 3.240654e-15 2.112512e-15) (-1.347523e-07 1.482886e-13 -6.649861e-14))
0.311504      	((-1.707314e-11 -4.709539e-11 5.980999e-11) (-1.184494e-11 2.633414e-12 1.990341e-12)) ((-1.834613e-11 4.511261e-15 3.023329e-16) (-1.183784e-07 1.298296e-13 -6.722612e-14))
0.385805      	((-1.144747e-11 -5.663745e-11 8.876569e-11) (-1.006161e-11 2.263921e-12 1.658708e-12)) ((-1.582415e-11 4.517996e-15 -1.487980e-15) (-1.048543e-07 1.309406e-13 -6.748519e-14))
0.474966      	((1.103494e-11 -9.156228e-11 7.889764e-11) (-8.195895e-12 1.270732e-12 2.696899e-12)) ((-1.415300e-11 3.190012e-15 -2.571843e-15) (-9.365119e-08 1.834304e-13 -7.493590e-14))
0.581959      	((-6.168353e-11 -1.226980e-10 1.977688e-11) (-2.052732e-12 -2.072331e-13 3.407478e-12)) ((-1.269038e-11 4.126059e-15 -4.272623e-15) (-8.422297e-08 2.307808e-13 -9.055585e-14))
0.710351      	((-9.130133e-11 -1.416736e-10 1.039176e-10) (4.786716e-12 -7.464604e-13 3.864416e-12)) ((-1.123039e-11 4.850424e-15 -4.805539e-15) (-7.611984e-08 2.492367e-13 -1.079531e-13))
0.864421      	((-1.105785e-10 -1.588726e-10 6.633985e-11) (8.589617e-12 1.734379e-12 3.992990e-12)) ((-1.024001e-11 7.248738e-15 -5.044413e-15) (-6.902186e-08 2.295294e-13 -1.451348e-13))
1.049306      	((-7.034015e-11 -1.548242e-10 1.233400e-10) (1.297140e-11 4.746813e-12 2.432149e-12)) ((-9.591341e-12 7.007131e-15 -4.167877e-15) (-6.271481e-08 1.378954e-13 -1.583161e-13))
1.271167      	((-3.034292e-11 -2.079489e-10 1.430533e-10) (1.164403e-11 6.287227e-12 -1.161969e-12)) ((-8.942976e-12 6.307471e-15 -3.287367e-15) (-5.705461e-08 4.292066e-14 -2.220990e-13))
1.5374        	((1.220569e-11 -2.072951e-10 1.820255e-10) (5.760141e-12 9.084581e-12 -4.550362e-12)) ((-8.205527e-12 1.849665e-15 -3.229299e-15) (-5.194704e-08 2.262105e-14 -4.005694e-13))
1.85688       	((-2.259767e-11 -2.060742e-10 1.569388e-10) (4.900996e-12 1.541220e-11 -9.820032e-12)) ((-7.530127e-12 9.852023e-16 -1.960463e-15) (-4.734105e-08 -9.236500e-14 -5.838020e-13))
2.240256      	((-4.686468e-12 -2.502648e-10 1.555389e-10) (7.955012e-12 2.474155e-11 -1.908742e-11)) ((-7.099710e-12 -2.229052e-15 6.341890e-16) (-4.321076e-08 -2.705650e-13 -8.563850e-13))
2.700307      	((7.922359e-12 -2.253358e-10 8.732142e-11) (4.334307e-12 4.022210e-11 -3.527302e-11)) ((-6.797095e-12 -4.310102e-15 2.951043e-15) (-3.953715e-08 -4.987696e-13 -1.333111e-12))
3.252369      	((-8.203189e-12 -1.720207e-10 8.963521e-11) (2.275005e-12 5.938394e-11 -5.328045e-11)) ((-6.494277e-12 -6.412021e-15 5.411022e-15) (-3.629417e-08 -8.704556e-13 -1.732383e-12))
3.914842      	((-1.851237e-11 -9.291885e-11 3.816614e-11) (-4.320996e-12 7.859821e-11 -7.171677e-11)) ((-6.148930e-12 -6.767791e-15 5.307424e-15) (-3.344212e-08 -1.200813e-12 -2.038181e-12))
4.709811      	((1.629580e-11 -3.402927e-11 6.971549e-12) (-9.819966e-12 9.946490e-11 -9.008988e-11)) ((-5.763862e-12 -6.649819e-15 4.190108e-15) (-3.092694e-08 -1.405390e-12 -2.264951e-12))
5.663773      	((-2.230005e-11 1.598372e-11 -2.406495e-11) (-3.967268e-12 1.120048e-10 -1.019071e-10)) ((-5.344635e-12 -6.819939e-15 2.800783e-15) (-2.869013e-08 -1.578235e-12 -2.306968e-12))
6.808528      	((-2.513056e-11 4.842168e-11 -2.122114e-11) (-5.339148e-13 1.147036e-10 -1.040505e-10)) ((-4.923624e-12 -6.084465e-15 2.804088e-15) (-2.667925e-08 -1.654979e-12 -2.165088e-12))
8.182233      	((-3.252643e-11 4.742818e-11 -5.142066e-11) (-1.712981e-12 1.054209e-10 -9.392352e-11)) ((-4.512742e-12 -4.887149e-15 3.222447e-15) (-2.485232e-08 -1.460788e-12 -1.869515e-12))
9.83068       	((-4.075671e-11 2.842855e-11 -4.642338e-11) (-8.244056e-12 8.645695e-11 -7.640310e-11)) ((-4.106796e-12 -3.696730e-15 4.401728e-15) (-2.317975e-08 -1.129873e-12 -1.506562e-12))
11.808816     	((-4.409386e-11 2.285974e-12 -1.420759e-11) (-8.726768e-12 6.641526e-11 -5.918989e-11)) ((-3.735555e-12 -3.439460e-15 5.623588e-15) (-2.164064e-08 -8.950593e-13 -1.099718e-12))
14.182579     	((-1.749128e-11 -4.330156e-11 -2.118416e-11) (-3.620543e-12 4.805996e-11 -4.499383e-11)) ((-3.398403e-12 -1.648433e-15 6.061003e-15) (-2.022210e-08 -7.196921e-13 -7.153145e-13))
17.031095     	((-3.098896e-11 -2.580991e-11 -7.772397e-12) (-3.201439e-12 3.337397e-11 -3.345303e-11)) ((-3.108015e-12 -3.170451e-16 6.196724e-15) (-1.891714e-08 -5.372487e-13 -4.169010e-13))
20.449314     	((-6.268459e-12 -3.497720e-11 -8.220445e-12) (-3.944555e-12 2.255664e-11 -2.395374e-11)) ((-2.850998e-12 2.584323e-16 6.902675e-15) (-1.772149e-08 -3.441652e-13 -2.317328e-13))
24.551176     	((-1.627075e-11 -2.036258e-11 7.468566e-12) (-4.014036e-12 1.479336e-11 -1.680513e-11)) ((-2.624867e-12 3.610905e-17 7.504538e-15) (-1.662925e-08 -2.171420e-13 -1.194292e-13))
29.473411     	((-1.545283e-11 -1.065593e-11 1.664555e-11) (-5.734867e-12 1.058412e-11 -1.172380e-11)) ((-2.430231e-12 2.702237e-16 6.991240e-15) (-1.563360e-08 -1.656815e-13 -6.094331e-14))
35.380094     	((-1.309015e-11 -2.179022e-11 1.172767e-11) (-8.066391e-12 9.337711e-12 -8.517312e-12)) ((-2.258300e-12 -2.759568e-16 6.520359e-15) (-1.472645e-08 -1.073356e-13 -9.002687e-14))
42.468112     	((-1.180802e-11 -1.498574e-11 1.509228e-11) (-1.155920e-11 8.759478e-12 -7.216190e-12)) ((-2.105880e-12 -2.403588e-16 5.811157e-15) (-1.389985e-08 -8.131680e-14 -1.177646e-13))
50.973735     	((-8.588486e-12 -1.640534e-11 9.481449e-12) (-1.454757e-11 8.613046e-12 -6.752799e-12)) ((-1.971567e-12 -1.564774e-16 5.166852e-15) (-1.314682e-08 -7.559989e-14 -1.416273e-13))
61.180482     	((-6.495590e-12 -6.800258e-12 1.701267e-11) (-1.342546e-11 9.811142e-12 -6.654920e-12)) ((-1.852174e-12 4.938150e-17 4.858681e-15) (-1.246128e-08 -7.202126e-14 -1.872060e-13))
73.428578     	((-3.706044e-12 -1.848858e-12 1.195900e-11) (-9.948171e-12 1.204456e-11 -7.655459e-12)) ((-1.743484e-12 9.404971e-17 4.649123e-15) (-1.183815e-08 -1.097619e-13 -2.275934e-13))
88.126294     	((-1.017084e-12 5.133158e-12 1.461642e-11) (-8.063482e-12 1.438093e-11 -9.560912e-12)) ((-1.648088e-12 1.705130e-16 4.326873e-15) (-1.127240e-08 -1.879367e-13 -2.590145e-13))
105.763553    	((-7.975480e-13 3.584700e-12 7.661028e-12) (-6.985207e-12 1.621123e-11 -1.043070e-11)) ((-1.561204e-12 6.740409e-17 3.816867e-15) (-1.075936e-08 -2.273299e-13 -2.764497e-13))
126.928263    	((8.258498e-13 1.584787e-12 2.183314e-12) (-6.069654e-12 1.699425e-11 -1.102604e-11)) ((-1.483158e-12 -5.605892e-17 3.279967e-15) (-1.029487e-08 -2.259069e-13 -2.939304e-13))
152.325916    	((2.304211e-12 -1.506715e-12 -6.607274e-12) (-4.688426e-12 1.707399e-11 -1.154603e-11)) ((-1.414817e-12 -1.641039e-16 2.754655e-15) (-9.874290e-09 -1.980458e-13 -3.063964e-13))
182.803099    	((1.968136e-12 -4.295326e-12 -1.451665e-11) (-2.816308e-12 1.626510e-11 -1.185671e-11)) ((-1.353004e-12 -3.907173e-16 2.612260e-15) (-9.493274e-09 -1.794339e-13 -3.024061e-13))
219.375719    	((3.089223e-12 -4.808769e-12 -1.649234e-11) (-2.062490e-12 1.482676e-11 -1.205467e-11)) ((-1.294657e-12 -5.712641e-16 2.545525e-15) (-9.147741e-09 -1.875162e-13 -2.823925e-13))
263.262863    	((5.952149e-12 -3.346710e-12 -1.514693e-11) (-1.572115e-12 1.363855e-11 -1.239761e-11)) ((-1.240518e-12 -7.349151e-16 2.364608e-15) (-8.834037e-09 -2.174292e-13 -2.548652e-13))
315.927436    	((8.211643e-12 -7.810200e-13 -1.199780e-11) (2.025831e-13 1.258349e-11 -1.279838e-11)) ((-1.191840e-12 -8.220633e-16 2.128909e-15) (-8.549117e-09 -2.400531e-13 -2.355323e-13))
379.124923    	((9.452253e-12 7.146894e-13 -1.009592e-11) (1.270514e-12 1.212546e-11 -1.290923e-11)) ((-1.149110e-12 -8.659790e-16 1.890846e-15) (-8.290556e-09 -2.628144e-13 -2.147534e-13))
454.961908    	((1.210872e-11 3.558734e-12 -4.946795e-12) (1.766828e-12 1.149503e-11 -1.306540e-11)) ((-1.111787e-12 -7.284051e-16 1.664368e-15) (-8.056545e-09 -2.595162e-13 -2.067080e-13))
545.966289    	((1.304425e-11 6.932332e-12 -7.356609e-13) (9.857955e-13 1.095844e-11 -1.290659e-11)) ((-1.078172e-12 -5.409175e-16 1.487035e-15) (-7.845555e-09 -2.514768e-13 -2.016342e-13))
655.171547    	((1.633678e-11 6.437111e-12 2.276517e-12) (4.759333e-13 1.076734e-11 -1.227700e-11)) ((-1.047125e-12 -3.855855e-16 1.372261e-15) (-7.655926e-09 -2.412909e-13 -1.951926e-13))
786.217856    	((1.653089e-11 4.085816e-12 2.280922e-12) (3.608908e-13 1.057649e-11 -1.164741e-11)) ((-1.018999e-12 -3.819877e-16 1.310820e-15) (-7.486128e-09 -2.352543e-13 -1.848834e-13))
943.473427    	((1.626218e-11 7.981474e-13 1.564611e-12) (5.162366e-13 9.959073e-12 -1.150062e-11)) ((-9.939652e-13 -3.478850e-16 1.194831e-15) (-7.334699e-09 -2.274876e-13 -1.767771e-13))
1132.180113   	((1.623468e-11 6.206401e-13 2.106757e-12) (9.740911e-13 9.236892e-12 -1.148584e-11)) ((-9.717655e-13 -3.054057e-16 1.051785e-15) (-7.200349e-09 -2.224120e-13 -1.685686e-13))
1358.628135   	((1.384443e-11 -1.862176e-13 2.245017e-12) (1.518155e-12 8.660100e-12 -1.126342e-11)) ((-9.522765e-13 -3.041410e-16 9.933087e-16) (-7.081815e-09 -2.211645e-13 -1.576739e-13))
1625.673893   	((1.435532e-11 8.005641e-13 2.577480e-12) (1.790321e-12 8.217125e-12 -1.093850e-11)) ((-9.355650e-13 -3.257970e-16 9.970865e-16) (-6.977980e-09 -2.264026e-13 -1.421753e-13))
1933.318907   	((1.253162e-11 1.086070e-12 3.738664e-12) (1.753438e-12 7.679874e-12 -1.041383e-11)) ((-9.213226e-13 -3.950375e-16 1.042976e-15) (-6.887674e-09 -2.290604e-13 -1.246661e-13))
2281.565146   	((9.144174e-12 1.571875e-12 4.520680e-12) (1.415070e-12 7.080862e-12 -9.761772e-12)) ((-9.090712e-13 -4.437223e-16 1.057569e-15) (-6.809693e-09 -2.268384e-13 -1.091905e-13))
2670.414889   	((7.086834e-12 1.753535e-12 5.038452e-12) (7.963393e-13 6.489259e-12 -9.159612e-12)) ((-8.984565e-13 -5.323141e-16 1.095934e-15) (-6.742726e-09 -2.206097e-13 -9.644189e-14))
3076.474462   	((5.274240e-12 1.433089e-12 4.956713e-12) (2.289345e-13 5.989854e-12 -8.547032e-12)) ((-8.896921e-13 -5.990182e-16 1.096512e-15) (-6.685671e-09 -2.094634e-13 -9.025238e-14))
3482.55856    	((3.867024e-12 1.899284e-12 5.518681e-12) (-1.758434e-13 5.566509e-12 -8.044649e-12)) ((-8.823282e-13 -6.887441e-16 1.128478e-15) (-6.637369e-09 -1.962700e-13 -8.772390e-14))
3888.666395   	((2.618002e-12 2.354355e-12 6.024530e-12) (-4.459011e-13 5.235425e-12 -7.584181e-12)) ((-8.761759e-13 -7.422083e-16 1.149047e-15) (-6.596621e-09 -1.823906e-13 -8.793090e-14))
4294.796877   	((1.491858e-12 2.931993e-12 6.389512e-12) (-7.340084e-13 5.093688e-12 -7.050611e-12)) ((-8.709774e-13 -7.738760e-16 1.173922e-15) (-6.562248e-09 -1.688667e-13 -8.844651e-14))
4700.948032   	((1.004391e-12 3.428236e-12 6.505852e-12) (-1.185119e-12 4.963695e-12 -6.491196e-12)) ((-8.665657e-13 -7.893706e-16 1.190526e-15) (-6.533217e-09 -1.562158e-13 -8.927174e-14))
5107.118335   	((4.661711e-13 3.860802e-12 6.709370e-12) (-1.635477e-12 4.871776e-12 -5.972733e-12)) ((-8.627635e-13 -8.091650e-16 1.212046e-15) (-6.508655e-09 -1.457275e-13 -8.963636e-14))
5513.306181   	((-2.398275e-13 4.171403e-12 6.909513e-12) (-2.025113e-12 4.812333e-12 -5.495262e-12)) ((-8.595226e-13 -8.368500e-16 1.236258e-15) (-6.487833e-09 -1.372591e-13 -8.960872e-14))
5919.509824   	((-8.165338e-13 4.358287e-12 7.005179e-12) (-2.369405e-12 4.768706e-12 -5.070307e-12)) ((-8.567360e-13 -8.640336e-16 1.265147e-15) (-6.470145e-09 -1.300503e-13 -8.943627e-14))
6325.727591   	((-8.896387e-13 4.425666e-12 7.042029e-12) (-2.647794e-12 4.742136e-12 -4.711331e-12)) ((-8.543007e-13 -8.891725e-16 1.292672e-15) (-6.455087e-09 -1.236543e-13 -8.927038e-14))
6731.957916   	((-1.065537e-12 4.484153e-12 7.086894e-12) (-2.820469e-12 4.713127e-12 -4.421533e-12)) ((-8.522263e-13 -9.106061e-16 1.312141e-15) (-6.442242e-09 -1.182269e-13 -8.900555e-14))
7138.199314   	((-1.029023e-12 4.502156e-12 7.103718e-12) (-2.915827e-12 4.677419e-12 -4.196563e-12)) ((-8.504361e-13 -9.145967e-16 1.324680e-15) (-6.431265e-09 -1.137917e-13 -8.866811e-14))
7544.450451   	((-1.206316e-12 4.523807e-12 7.016784e-12) (-2.980851e-12 4.627011e-12 -4.027611e-12)) ((-8.488962e-13 -9.158964e-16 1.329724e-15) (-6.421870e-09 -1.101471e-13 -8.843706e-14))
7950.710115   	((-1.345811e-12 4.534875e-12 7.007744e-12) (-3.014069e-12 4.574934e-12 -3.897331e-12)) ((-8.475751e-13 -9.182148e-16 1.335175e-15) (-6.413818e-09 -1.071618e-13 -8.832408e-14))
8356.977249   	((-1.458381e-12 4.557198e-12 7.007921e-12) (-3.036704e-12 4.524105e-12 -3.788664e-12)) ((-8.464371e-13 -9.210189e-16 1.341383e-15) (-6.406910e-09 -1.045819e-13 -8.839109e-14))
8763.250941   	((-1.522183e-12 4.550469e-12 6.995941e-12) (-3.058514e-12 4.478633e-12 -3.697948e-12)) ((-8.454561e-13 -9.231596e-16 1.346278e-15) (-6.400976e-09 -1.023235e-13 -8.863817e-14))
9169.53038    	((-1.527101e-12 4.517377e-12 6.995923e-12) (-3.077373e-12 4.434256e-12 -3.619913e-12)) ((-8.446030e-13 -9.247974e-16 1.349740e-15) (-6.395876e-09 -1.003280e-13 -8.893502e-14))
9575.814842   	((-1.517976e-12 4.476071e-12 7.014499e-12) (-3.105361e-12 4.395517e-12 -3.552687e-12)) ((-8.438719e-13 -9.256287e-16 1.352268e-15) (-6.391487e-09 -9.862592e-14 -8.921699e-14))
