# Forces      
# CofR        : (0.000000e+00 0.000000e+00 0.000000e+00)
# Time        forces(pressure viscous)	moments(pressure viscous)
0             	((0.000000e+00 0.000000e+00 0.000000e+00) (0.000000e+00 0.000000e+00 0.000000e+00)) ((0.000000e+00 0.000000e+00 0.000000e+00) (0.000000e+00 0.000000e+00 0.000000e+00))
0.012         	((-4.526420e-12 1.133115e-09 2.328476e-12) (-5.090363e-15 2.876757e-11 -9.499777e-14)) ((-2.985535e-16 2.130131e-16 -2.576860e-11) (1.232601e-16 -2.338990e-15 -3.509037e-08))
0.0264        	((-1.438432e-11 1.658928e-10 -8.067993e-15) (-3.821435e-14 4.248568e-11 -1.722739e-13)) ((2.257632e-16 -2.253051e-15 -1.181059e-11) (3.423316e-17 -6.498900e-15 -3.214326e-08))
0.04368       	((-1.048306e-11 5.275368e-10 8.341654e-12) (-4.989160e-14 4.475304e-11 -2.468312e-13)) ((-4.497329e-16 -2.734422e-15 -6.428501e-12) (-1.346353e-17 -1.162727e-14 -2.911256e-08))
0.064416      	((-1.722930e-11 -7.489537e-11 -7.343645e-12) (-4.714570e-14 3.863380e-11 -4.045307e-13)) ((1.468832e-16 -1.445132e-15 -3.449101e-12) (-7.187402e-16 -1.819820e-14 -2.606532e-08))
0.0892992     	((9.373753e-12 2.343018e-10 6.475338e-12) (-3.877755e-14 3.212852e-11 -6.153182e-13)) ((-6.906621e-16 -3.747484e-15 -2.580167e-12) (-2.236140e-15 -2.644569e-14 -2.309081e-08))
0.119159      	((-5.909073e-12 -4.238925e-11 1.039568e-12) (-3.349354e-14 2.612929e-11 -7.278091e-13)) ((3.246764e-17 -2.728040e-15 -1.923393e-12) (-2.960861e-15 -3.088260e-14 -2.028124e-08))
0.154991      	((3.412978e-12 1.154972e-10 -1.996142e-12) (-2.832716e-14 2.360334e-11 -7.517138e-13)) ((-3.193453e-16 -2.055251e-15 -1.567961e-12) (-3.711877e-15 -3.219414e-14 -1.770143e-08))
0.197989      	((-8.928217e-13 3.568326e-11 -3.014078e-13) (5.907133e-15 2.049051e-11 -7.407988e-13)) ((-5.677311e-16 -1.793192e-15 -1.283250e-12) (-4.831034e-15 -3.226253e-14 -1.541415e-08))
0.249587      	((3.571633e-12 9.254745e-11 2.687649e-12) (3.708469e-14 1.809824e-11 -7.606626e-13)) ((-4.396900e-16 -1.996402e-15 -1.056350e-12) (-5.050941e-15 -3.082514e-14 -1.345360e-08))
0.311504      	((-1.577978e-12 5.365878e-11 1.194901e-12) (3.882180e-14 1.641298e-11 -8.370924e-13)) ((-2.657862e-16 -1.238255e-15 -8.584242e-13) (-4.120366e-15 -2.955041e-14 -1.181508e-08))
0.385805      	((-6.003953e-12 4.184693e-11 -3.203515e-13) (2.190659e-14 1.563897e-11 -9.257010e-13)) ((-1.142477e-16 -4.822947e-16 -7.056734e-13) (-1.442202e-15 -2.991228e-14 -1.046319e-08))
0.474966      	((-1.130611e-11 4.226689e-11 1.306587e-12) (-2.611661e-14 1.561610e-11 -9.481962e-13)) ((-4.247230e-18 -2.853342e-16 -6.022064e-13) (-3.945097e-16 -2.975693e-14 -9.344720e-09))
0.581959      	((-8.914296e-12 2.905245e-11 1.192423e-12) (8.529643e-14 1.432069e-11 -7.372194e-13)) ((-7.294967e-17 3.662506e-16 -5.111688e-13) (-1.018932e-15 -2.005412e-14 -8.404488e-09))
0.710351      	((-1.427658e-11 2.195862e-11 -8.267799e-13) (2.399976e-13 1.224408e-11 -4.027540e-13)) ((2.728227e-16 6.891840e-16 -4.237678e-13) (-7.911067e-16 -3.972052e-15 -7.596755e-09))
0.864421      	((-1.308257e-11 3.839878e-11 -1.872714e-12) (2.752154e-13 1.190284e-11 -1.747722e-13)) ((4.907721e-16 1.510933e-15 -3.628073e-13) (1.364736e-15 1.014956e-14 -6.889258e-09))
1.049306      	((-1.401491e-11 6.014713e-11 -1.366182e-12) (3.751937e-13 1.127200e-11 6.914584e-14)) ((5.543993e-16 1.939332e-15 -3.268201e-13) (-2.313177e-15 1.778252e-14 -6.260575e-09))
1.271167      	((-1.736503e-11 6.801643e-11 -1.474766e-13) (3.953661e-13 1.013984e-11 4.082185e-13)) ((4.123471e-16 1.953172e-15 -2.983942e-13) (-1.186060e-14 1.910027e-14 -5.696170e-09))
1.5374        	((-1.983444e-11 7.357097e-11 -6.289459e-13) (8.630513e-13 1.075506e-11 7.224434e-13)) ((4.765711e-16 2.832781e-15 -2.753608e-13) (-2.618998e-14 1.148145e-14 -5.186772e-09))
1.85688       	((-2.371985e-11 1.009257e-10 -2.868844e-12) (1.850358e-12 1.223355e-11 6.502400e-13)) ((5.709911e-16 3.040604e-15 -2.574397e-13) (-4.724803e-14 -1.325500e-14 -4.727240e-09))
2.240256      	((-1.871452e-11 6.957592e-11 -1.436656e-13) (3.050556e-12 1.114963e-11 5.361652e-13)) ((6.089715e-16 3.245363e-15 -2.506997e-13) (-7.979942e-14 -5.119810e-14 -4.314977e-09))
2.700307      	((-1.828828e-11 4.172342e-11 2.299741e-13) (4.819528e-12 7.667813e-12 7.453406e-13)) ((4.792491e-16 3.296639e-15 -2.429446e-13) (-1.254457e-13 -9.610071e-14 -3.948128e-09))
3.252369      	((-1.434882e-11 3.030623e-11 2.176049e-13) (6.942884e-12 4.580945e-12 1.164004e-12)) ((2.517855e-16 3.070018e-15 -2.307289e-13) (-1.728752e-13 -1.284616e-13 -3.624076e-09))
3.914842      	((-1.056460e-11 1.925618e-11 1.248865e-12) (9.208112e-12 1.842327e-12 1.093042e-12)) ((4.690725e-16 2.503091e-15 -2.127159e-13) (-2.039071e-13 -1.659891e-13 -3.338833e-09))
4.709811      	((-1.629164e-12 1.107301e-11 1.334705e-12) (1.117680e-11 -1.989340e-12 6.235382e-13)) ((1.958637e-16 1.851788e-15 -1.916729e-13) (-2.181370e-13 -1.921973e-13 -3.087414e-09))
5.663773      	((2.465431e-12 -4.202735e-12 3.882061e-14) (1.241604e-11 -6.884788e-12 1.019583e-13)) ((-1.877113e-16 1.273629e-15 -1.728534e-13) (-2.213388e-13 -2.044161e-13 -2.864090e-09))
6.808528      	((4.058667e-12 -3.696059e-12 2.078226e-13) (1.262142e-11 -8.866787e-12 -7.029075e-14)) ((-2.261189e-16 6.666936e-16 -1.554559e-13) (-2.102088e-13 -1.941592e-13 -2.663282e-09))
8.182233      	((4.964559e-12 -1.008960e-11 -8.950722e-13) (1.161798e-11 -7.962151e-12 -3.516198e-14)) ((-2.956041e-16 3.927843e-16 -1.402073e-13) (-1.803630e-13 -1.612287e-13 -2.480807e-09))
9.83068       	((4.596964e-12 -3.672065e-12 3.822713e-13) (1.004842e-11 -5.777266e-12 -1.414994e-13)) ((-5.118385e-16 -1.694623e-16 -1.279516e-13) (-1.426603e-13 -1.304436e-13 -2.313741e-09))
11.808816     	((5.957272e-13 4.517896e-12 -1.600604e-13) (7.932710e-12 -2.780677e-12 6.263243e-14)) ((-5.616031e-16 -3.968160e-16 -1.173483e-13) (-1.088866e-13 -9.127892e-14 -2.160103e-09))
14.182579     	((-9.545026e-13 3.587071e-12 2.081495e-13) (5.793102e-12 -1.004390e-12 -9.073277e-14)) ((-4.914841e-16 -8.421747e-16 -1.091053e-13) (-7.705296e-14 -6.770337e-14 -2.018617e-09))
17.031095     	((-6.959761e-13 2.988402e-12 6.279185e-13) (3.988521e-12 -1.891091e-13 -2.527874e-13)) ((-3.873369e-16 -9.599180e-16 -1.027434e-13) (-5.423531e-14 -4.984962e-14 -1.888538e-09))
20.449314     	((-1.495656e-12 5.076623e-12 3.561787e-13) (2.756411e-12 5.062496e-13 -6.192500e-14)) ((-2.719213e-16 -1.051023e-15 -9.760025e-14) (-4.079857e-14 -2.784240e-14 -1.769348e-09))
24.551176     	((-7.131669e-13 6.621707e-12 3.471105e-13) (2.031210e-12 2.759756e-13 9.864069e-14)) ((-1.795799e-16 -9.907971e-16 -9.293474e-14) (-3.176021e-14 -1.756318e-14 -1.660441e-09))
29.473411     	((-1.140706e-12 6.202805e-12 3.804849e-13) (1.607968e-12 -4.178426e-13 1.463003e-13)) ((-1.418389e-16 -8.482724e-16 -8.920020e-14) (-2.655999e-14 -1.411102e-14 -1.561101e-09))
35.380094     	((-1.468447e-12 6.334010e-12 3.439438e-13) (1.408674e-12 -1.140461e-12 7.247652e-14)) ((-1.461943e-16 -8.321045e-16 -8.577030e-14) (-2.369002e-14 -1.734457e-14 -1.470441e-09))
42.468112     	((-1.313131e-12 5.703674e-12 2.296564e-13) (1.438089e-12 -1.902159e-12 3.935347e-14)) ((-1.985508e-16 -7.423167e-16 -8.308212e-14) (-2.636714e-14 -2.153382e-14 -1.387685e-09))
50.973735     	((-1.030692e-12 5.925437e-12 2.489852e-13) (1.569536e-12 -2.746815e-12 9.806014e-14)) ((-2.201134e-16 -7.269195e-16 -8.050224e-14) (-3.065976e-14 -2.396466e-14 -1.312215e-09))
61.180482     	((-2.114833e-12 5.085729e-12 2.688637e-13) (1.741776e-12 -3.518368e-12 2.071159e-13)) ((-1.757242e-16 -6.808575e-16 -7.851595e-14) (-3.592843e-14 -2.487813e-14 -1.243493e-09))
73.428578     	((-6.406703e-13 4.789892e-12 2.071024e-13) (2.076984e-12 -4.148440e-12 2.068221e-13)) ((-1.658380e-16 -6.093855e-16 -7.726064e-14) (-4.064017e-14 -2.846551e-14 -1.181050e-09))
88.126294     	((-1.238401e-12 4.360152e-12 3.106344e-13) (2.344845e-12 -4.611556e-12 1.753791e-13)) ((-1.484768e-16 -5.142600e-16 -7.604287e-14) (-4.272932e-14 -3.338595e-14 -1.124422e-09))
105.763553    	((-1.234203e-12 4.316589e-12 1.055841e-13) (2.440254e-12 -4.850096e-12 1.049642e-13)) ((-1.438056e-16 -4.348352e-16 -7.468530e-14) (-4.372401e-14 -3.628305e-14 -1.073146e-09))
126.928263    	((-1.029996e-12 3.658037e-12 4.422601e-14) (2.309191e-12 -4.808518e-12 4.345762e-14)) ((-1.448089e-16 -3.738040e-16 -7.352909e-14) (-4.403136e-14 -3.640834e-14 -1.026780e-09))
152.325916    	((-2.220276e-13 3.497422e-12 2.646661e-14) (2.114233e-12 -4.635485e-12 -3.540176e-14)) ((-1.446651e-16 -3.313763e-16 -7.245675e-14) (-4.161518e-14 -3.484328e-14 -9.848441e-10))
182.803099    	((5.264893e-14 3.445821e-12 7.630680e-14) (2.015334e-12 -4.573369e-12 -9.467778e-14)) ((-1.354438e-16 -2.837024e-16 -7.146665e-14) (-3.940104e-14 -3.214959e-14 -9.468457e-10))
219.375719    	((5.238281e-13 3.941890e-12 -1.187748e-13) (1.977653e-12 -4.586433e-12 -1.218780e-13)) ((-1.213095e-16 -2.740939e-16 -7.062852e-14) (-3.881029e-14 -3.082038e-14 -9.123404e-10))
263.262863    	((4.728284e-13 4.211425e-12 -5.342057e-14) (1.998014e-12 -4.617458e-12 -1.492940e-13)) ((-1.188170e-16 -2.684702e-16 -6.983690e-14) (-3.885303e-14 -2.985105e-14 -8.809639e-10))
315.927436    	((3.997304e-13 4.408952e-12 -4.322533e-14) (2.039058e-12 -4.588903e-12 -1.573719e-13)) ((-1.223902e-16 -2.600166e-16 -6.906022e-14) (-3.913669e-14 -3.019774e-14 -8.524269e-10))
379.124923    	((2.113894e-13 4.896570e-12 -5.758621e-15) (1.946568e-12 -4.485983e-12 -1.261983e-13)) ((-9.728420e-17 -2.470267e-16 -6.832934e-14) (-3.977334e-14 -2.954168e-14 -8.264988e-10))
454.961908    	((7.712661e-14 5.458336e-12 -4.197833e-14) (1.859083e-12 -4.291132e-12 -1.049557e-13)) ((-7.049048e-17 -2.281911e-16 -6.762195e-14) (-3.906306e-14 -2.841147e-14 -8.029913e-10))
545.966289    	((-1.104390e-13 5.675719e-12 1.823378e-14) (1.754768e-12 -4.115343e-12 -9.633373e-14)) ((-5.452227e-17 -1.995114e-16 -6.696765e-14) (-3.715620e-14 -2.763000e-14 -7.817437e-10))
655.171547    	((8.499098e-14 5.670137e-12 2.802553e-14) (1.628032e-12 -3.934431e-12 -1.020776e-13)) ((-5.374956e-17 -1.898471e-16 -6.636421e-14) (-3.480928e-14 -2.651657e-14 -7.626052e-10))
786.217856    	((1.728146e-13 5.646658e-12 3.169137e-14) (1.521878e-12 -3.804520e-12 -1.266135e-13)) ((-7.036223e-17 -1.876480e-16 -6.579918e-14) (-3.197794e-14 -2.562531e-14 -7.454270e-10))
943.473427    	((1.492932e-13 5.471326e-12 -5.202390e-15) (1.482384e-12 -3.749906e-12 -1.523630e-13)) ((-6.431402e-17 -1.841612e-16 -6.522397e-14) (-2.986260e-14 -2.481407e-14 -7.300755e-10))
1132.180113   	((2.627685e-14 5.184932e-12 1.807213e-14) (1.460659e-12 -3.742253e-12 -1.562126e-13)) ((-5.783526e-17 -1.829575e-16 -6.467770e-14) (-2.826913e-14 -2.348782e-14 -7.164276e-10))
1358.628135   	((-1.076599e-13 5.193211e-12 2.161025e-14) (1.378492e-12 -3.660322e-12 -1.555507e-13)) ((-5.553111e-17 -1.744569e-16 -6.418743e-14) (-2.609654e-14 -2.254057e-14 -7.043591e-10))
1630.365763   	((-7.976224e-14 5.217423e-12 -2.188962e-15) (1.336265e-12 -3.523415e-12 -1.500374e-13)) ((-4.823663e-17 -1.656849e-16 -6.375510e-14) (-2.484014e-14 -2.146303e-14 -6.937421e-10))
1956.450915   	((3.542184e-14 5.410519e-12 -2.582569e-15) (1.373026e-12 -3.392219e-12 -1.492418e-13)) ((-4.302107e-17 -1.740290e-16 -6.337050e-14) (-2.319805e-14 -2.075029e-14 -6.844574e-10))
2347.753098   	((1.387412e-13 5.589432e-12 2.382604e-14) (1.368199e-12 -3.284737e-12 -1.415329e-13)) ((-4.161425e-17 -1.799266e-16 -6.302676e-14) (-2.162678e-14 -2.016393e-14 -6.763878e-10))
2817.315718   	((2.916036e-13 5.741655e-12 2.582085e-14) (1.335285e-12 -3.176292e-12 -1.323990e-13)) ((-4.031240e-17 -1.809360e-16 -6.272783e-14) (-2.012112e-14 -1.966464e-14 -6.694178e-10))
3380.790861   	((3.928405e-13 5.874724e-12 -2.060989e-14) (1.319500e-12 -3.072506e-12 -1.295142e-13)) ((-3.854504e-17 -1.827580e-16 -6.246556e-14) (-1.860224e-14 -1.924458e-14 -6.634368e-10))
4056.961033   	((5.087024e-13 6.041553e-12 -6.337777e-14) (1.278977e-12 -2.980884e-12 -1.348507e-13)) ((-3.660166e-17 -1.832265e-16 -6.222860e-14) (-1.706108e-14 -1.857232e-14 -6.583397e-10))
4868.36524    	((5.438654e-13 6.237458e-12 -1.234375e-13) (1.226785e-12 -2.905802e-12 -1.467846e-13)) ((-3.125974e-17 -1.787706e-16 -6.203138e-14) (-1.548213e-14 -1.793134e-14 -6.540249e-10))
5842.050288   	((6.808151e-13 6.425484e-12 -1.743199e-13) (1.160532e-12 -2.851606e-12 -1.591278e-13)) ((-2.773770e-17 -1.758052e-16 -6.186303e-14) (-1.393265e-14 -1.716860e-14 -6.503982e-10))
7010.472346   	((8.576057e-13 6.546268e-12 -1.961705e-13) (1.091169e-12 -2.824656e-12 -1.708847e-13)) ((-2.934408e-17 -1.731746e-16 -6.171530e-14) (-1.243897e-14 -1.631386e-14 -6.473711e-10))
8412.578815   	((1.050543e-12 6.732876e-12 -2.063511e-13) (1.032289e-12 -2.813084e-12 -1.839319e-13)) ((-3.134758e-17 -1.720137e-16 -6.159225e-14) (-1.112195e-14 -1.529163e-14 -6.448616e-10))
10095.106578  	((1.279575e-12 6.912281e-12 -2.037932e-13) (9.743393e-13 -2.804902e-12 -1.916253e-13)) ((-3.156244e-17 -1.700475e-16 -6.148790e-14) (-1.017766e-14 -1.447648e-14 -6.427949e-10))
12114.139893  	((1.400242e-12 7.106966e-12 -1.648267e-13) (9.301376e-13 -2.806742e-12 -1.974411e-13)) ((-2.961513e-17 -1.653300e-16 -6.138769e-14) (-9.490850e-15 -1.384431e-14 -6.411031e-10))
14536.979872  	((1.636218e-12 7.287138e-12 -1.125221e-13) (8.860374e-13 -2.777051e-12 -2.001429e-13)) ((-3.326080e-17 -1.678947e-16 -6.133466e-14) (-8.820683e-15 -1.330405e-14 -6.397247e-10))
17366.279368  	((1.765940e-12 7.489655e-12 -2.786758e-14) (8.589140e-13 -2.774180e-12 -2.041097e-13)) ((-3.315953e-17 -1.660512e-16 -6.126788e-14) (-8.365496e-15 -1.279889e-14 -6.386090e-10))
20602.048022  	((1.883309e-12 7.705980e-12 2.366347e-14) (8.353785e-13 -2.761964e-12 -2.060118e-13)) ((-4.231723e-17 -1.774484e-16 -6.121837e-14) (-7.789782e-15 -1.224716e-14 -6.377093e-10))
24244.293542  	((1.788793e-12 7.778932e-12 2.348895e-13) (8.231859e-13 -2.757247e-12 -2.080457e-13)) ((-4.011741e-17 -1.701271e-16 -6.115209e-14) (-7.446986e-15 -1.183632e-14 -6.369871e-10))
28293.022065  	((1.955213e-12 7.928621e-12 3.018633e-13) (8.159856e-13 -2.761974e-12 -1.995883e-13)) ((-4.308385e-17 -1.735403e-16 -6.113555e-14) (-7.043859e-15 -1.181191e-14 -6.364092e-10))
32357.900921  	((2.123935e-12 8.100117e-12 3.652016e-13) (8.147837e-13 -2.758094e-12 -1.959425e-13)) ((-4.620109e-17 -1.723466e-16 -6.111075e-14) (-6.822002e-15 -1.163475e-14 -6.359484e-10))
36422.818188  	((2.309868e-12 8.220042e-12 3.870079e-13) (8.164051e-13 -2.750287e-12 -1.926884e-13)) ((-4.405040e-17 -1.770159e-16 -6.108176e-14) (-6.734004e-15 -1.141421e-14 -6.355820e-10))
40487.766028  	((2.514535e-12 8.310365e-12 5.013749e-13) (8.156264e-13 -2.745266e-12 -1.902352e-13)) ((-4.902845e-17 -1.731482e-16 -6.103701e-14) (-6.673367e-15 -1.138164e-14 -6.352912e-10))
44552.738008  	((2.638589e-12 8.463807e-12 5.000985e-13) (8.134751e-13 -2.734295e-12 -1.823662e-13)) ((-6.262068e-17 -1.792484e-16 -6.102865e-14) (-6.580333e-15 -1.137640e-14 -6.350603e-10))
48617.729116  	((2.794161e-12 8.502923e-12 6.829170e-13) (8.051593e-13 -2.715531e-12 -1.768755e-13)) ((-6.008812e-17 -1.709652e-16 -6.098279e-14) (-6.363991e-15 -1.136855e-14 -6.348773e-10))
52682.735238  	((2.867910e-12 8.714146e-12 6.782471e-13) (7.875283e-13 -2.700294e-12 -1.708964e-13)) ((-7.007061e-17 -1.755925e-16 -6.092215e-14) (-6.207414e-15 -1.185364e-14 -6.347340e-10))
56747.753277  	((2.779061e-12 9.217331e-12 6.825253e-13) (7.784900e-13 -2.673643e-12 -1.613248e-13)) ((-7.529944e-17 -1.760887e-16 -6.091430e-14) (-6.290155e-15 -1.242932e-14 -6.346213e-10))
60812.780807  	((2.859141e-12 9.078692e-12 7.381330e-13) (7.876764e-13 -2.686647e-12 -1.563044e-13)) ((-5.428619e-17 -1.800095e-16 -6.085369e-14) (-5.328346e-15 -1.285918e-14 -6.345317e-10))
64877.815924  	((2.774063e-12 9.272163e-12 6.469595e-13) (8.153967e-13 -2.686217e-12 -1.559041e-13)) ((-7.851715e-17 -1.497886e-16 -6.084168e-14) (-5.822044e-15 -1.219234e-14 -6.344611e-10))
68942.857115  	((2.279788e-12 9.612174e-12 6.394412e-13) (7.857110e-13 -2.678848e-12 -1.656462e-13)) ((-5.528831e-17 -1.786333e-16 -6.081695e-14) (-6.998310e-15 -1.152596e-14 -6.344060e-10))
73007.903028  	((1.926478e-12 1.003738e-11 7.199020e-13) (7.828462e-13 -2.694481e-12 -1.687928e-13)) ((-5.139426e-17 -1.805850e-16 -6.078051e-14) (-6.531762e-15 -1.230955e-14 -6.343621e-10))
77072.952753  	((1.651926e-12 1.037053e-11 7.653636e-13) (8.096564e-13 -2.695434e-12 -1.631587e-13)) ((-3.851927e-17 -1.852390e-16 -6.074787e-14) (-6.807673e-15 -1.293125e-14 -6.343264e-10))
81138.005549  	((1.373102e-12 1.075846e-11 7.040061e-13) (8.210963e-13 -2.705290e-12 -1.528196e-13)) ((-9.946666e-17 -1.831784e-16 -6.070561e-14) (-7.624971e-15 -1.215491e-14 -6.342987e-10))
85203.060789  	((1.305831e-12 1.117725e-11 5.135591e-13) (8.563566e-13 -2.707208e-12 -1.562105e-13)) ((-1.039942e-16 -1.707871e-16 -6.069712e-14) (-7.771550e-15 -1.279962e-14 -6.342761e-10))
89268.117989  	((9.482162e-13 1.156613e-11 4.626448e-13) (8.429834e-13 -2.716637e-12 -1.591198e-13)) ((-7.627073e-17 -1.719051e-16 -6.065948e-14) (-8.138752e-15 -1.348009e-14 -6.342584e-10))
93333.176784  	((8.984902e-13 1.193184e-11 4.706584e-13) (8.304471e-13 -2.730901e-12 -1.502992e-13)) ((-7.825263e-17 -1.969013e-16 -6.063693e-14) (-7.712934e-15 -1.389103e-14 -6.342436e-10))
