# Forces      
# CofR        : (0.000000e+00 0.000000e+00 0.000000e+00)
# Time        forces(pressure viscous)	moments(pressure viscous)
0             	((0.000000e+00 0.000000e+00 0.000000e+00) (0.000000e+00 0.000000e+00 0.000000e+00)) ((0.000000e+00 0.000000e+00 0.000000e+00) (0.000000e+00 0.000000e+00 0.000000e+00))
0.012         	((-2.253068e-10 9.011064e-08 1.912168e-10) (4.193644e-12 2.293750e-09 -7.597511e-12)) ((-2.445873e-14 1.634736e-14 -2.053206e-09) (9.620451e-15 -1.863785e-13 -2.787359e-06))
0.0264        	((-9.467422e-10 1.333200e-08 1.747283e-11) (8.681676e-12 3.387449e-09 -1.381551e-11)) ((1.576794e-14 -1.823757e-13 -9.473790e-10) (-9.669523e-16 -5.074167e-13 -2.553345e-06))
0.04368       	((-1.046726e-10 4.242474e-08 7.069913e-10) (1.398286e-12 3.585750e-09 -2.018301e-11)) ((-2.934101e-14 -2.176932e-13 -5.237979e-10) (-2.204767e-14 -9.460755e-13 -2.312953e-06))
0.064416      	((-6.819337e-10 -5.394653e-09 -5.991164e-10) (-2.951578e-11 3.117525e-09 -3.313750e-11)) ((1.668296e-14 -1.269140e-13 -2.899837e-10) (-3.528107e-14 -1.474315e-12 -2.071722e-06))
0.0892992     	((2.005442e-09 1.869601e-08 4.629574e-10) (-6.588409e-11 2.623736e-09 -5.107683e-11)) ((-3.468097e-14 -3.107837e-13 -2.227771e-10) (-7.641999e-15 -2.131655e-12 -1.836947e-06))
0.119159      	((-8.560466e-10 -2.478806e-09 1.065338e-10) (-8.569768e-11 2.192095e-09 -6.272290e-11)) ((1.355314e-14 -2.101956e-13 -1.711854e-10) (1.075047e-13 -2.574802e-12 -1.616058e-06))
0.154991      	((4.212870e-10 9.597555e-09 -9.031649e-11) (-9.256582e-11 2.060210e-09 -6.965956e-11)) ((-2.911872e-14 -1.747217e-13 -1.429640e-10) (2.424006e-13 -2.840828e-12 -1.414264e-06))
0.197989      	((-5.053069e-10 3.968021e-09 1.580532e-10) (-8.484832e-11 1.912384e-09 -7.128012e-11)) ((-4.351893e-14 -1.847258e-13 -1.181361e-10) (1.891150e-13 -2.906873e-12 -1.235603e-06))
0.249587      	((5.046951e-10 6.018640e-09 2.427757e-11) (-4.762054e-11 1.774912e-09 -7.156046e-11)) ((-5.467936e-14 -1.479006e-13 -9.778418e-11) (1.542114e-14 -2.776664e-12 -1.081937e-06))
0.311504      	((-4.699535e-10 4.881501e-09 1.118461e-10) (9.012952e-12 1.640266e-09 -7.046809e-11)) ((-1.244033e-14 -7.982557e-14 -8.055357e-11) (-1.575066e-13 -2.530288e-12 -9.526696e-07))
0.385805      	((9.065839e-10 4.614914e-09 -1.611165e-10) (6.637290e-12 1.489684e-09 -6.495806e-11)) ((1.498785e-14 -2.843800e-14 -6.773436e-11) (-3.419548e-13 -2.256910e-12 -8.450163e-07))
0.474966      	((-1.424002e-09 5.304075e-09 8.708567e-11) (1.243830e-11 1.353258e-09 -7.105778e-11)) ((3.018411e-14 -2.838685e-14 -5.862895e-11) (-1.537054e-13 -1.949361e-12 -7.549112e-07))
0.581959      	((-8.245667e-10 4.169760e-09 1.575072e-10) (1.322872e-11 1.205385e-09 -6.577129e-11)) ((4.429751e-14 3.889648e-15 -4.977282e-11) (1.203222e-13 -1.249170e-12 -6.784489e-07))
0.710351      	((-1.602808e-09 4.151552e-09 -8.653973e-11) (-1.347322e-10 1.059968e-09 -4.851850e-11)) ((7.430677e-14 4.960842e-14 -4.104003e-11) (3.716095e-13 -4.565481e-13 -6.124908e-07))
0.864421      	((-7.448514e-10 5.976658e-09 -3.144679e-10) (-2.485663e-10 8.792327e-10 -4.342633e-11)) ((5.081412e-14 7.590708e-14 -3.506112e-11) (1.101063e-12 2.931212e-13 -5.547280e-07))
1.049306      	((7.741217e-10 5.768641e-09 -1.490407e-10) (-2.840155e-10 6.505801e-10 -5.103290e-11)) ((4.123959e-14 1.196250e-13 -3.128734e-11) (1.295207e-12 2.678995e-13 -5.035059e-07))
1.271167      	((9.439033e-10 6.364012e-09 -9.442335e-11) (-2.912994e-10 5.014256e-10 -5.940062e-11)) ((1.662126e-14 1.471694e-13 -2.842114e-11) (3.494573e-13 -6.406428e-13 -4.576529e-07))
1.5374        	((5.540107e-11 6.251238e-09 -8.000536e-11) (-2.453225e-10 3.781646e-10 -6.059512e-11)) ((-1.500109e-14 1.855117e-13 -2.575780e-11) (-1.665541e-12 -2.258528e-12 -4.164128e-07))
1.85688       	((-4.691214e-10 7.341691e-09 4.073515e-11) (-1.368396e-11 2.530941e-10 -5.536839e-11)) ((-3.338615e-14 2.009851e-13 -2.323817e-11) (-4.492120e-12 -4.366991e-12 -3.793640e-07))
2.240256      	((-9.841315e-10 5.987023e-09 1.003668e-10) (2.211484e-10 2.447866e-10 -1.933320e-11)) ((-4.726789e-14 1.719920e-13 -2.143653e-11) (-7.436689e-12 -5.842130e-12 -3.462843e-07))
2.700307      	((2.865536e-10 4.666996e-09 1.976092e-10) (3.495024e-10 2.445534e-10 1.070037e-11)) ((-6.770290e-14 1.708401e-13 -1.969793e-11) (-1.002599e-11 -6.979719e-12 -3.169977e-07))
3.252369      	((3.143350e-10 3.230273e-09 5.087277e-11) (5.024659e-10 5.039010e-11 4.731147e-11)) ((-6.045840e-14 1.415417e-13 -1.773987e-11) (-1.224061e-11 -8.359835e-12 -2.912448e-07))
3.914842      	((1.054310e-09 1.279049e-09 2.020197e-10) (6.280327e-10 -1.938964e-10 5.550223e-11)) ((-1.174560e-13 9.333257e-14 -1.571687e-11) (-1.324485e-11 -9.445370e-12 -2.686387e-07))
4.709811      	((-4.258078e-10 5.058525e-10 1.995743e-10) (5.743629e-10 -3.899687e-10 4.352417e-11)) ((-1.605423e-13 -6.042337e-15 -1.377172e-11) (-1.402378e-11 -1.044449e-11 -2.486919e-07))
5.663773      	((8.857709e-10 -3.616175e-10 8.679141e-11) (4.725010e-10 -5.969325e-10 1.055640e-11)) ((-1.789721e-13 -5.321458e-14 -1.192518e-11) (-1.389941e-11 -1.041277e-11 -2.309082e-07))
6.808528      	((9.515315e-10 2.264863e-10 1.460329e-11) (2.917750e-10 -5.688914e-10 -5.719427e-11)) ((-1.660629e-13 -1.052989e-13 -1.052223e-11) (-1.289050e-11 -1.003203e-11 -2.148569e-07))
8.182233      	((1.306451e-09 2.586559e-11 6.211807e-11) (1.028362e-10 -4.536284e-10 -9.206163e-11)) ((-1.522408e-13 -1.317370e-13 -9.468556e-12) (-1.157877e-11 -8.432858e-12 -2.002347e-07))
9.83068       	((8.382353e-10 4.516196e-10 -1.541720e-10) (-1.078910e-11 -3.187965e-10 -1.219979e-10)) ((-1.695454e-13 -1.492283e-13 -8.628486e-12) (-9.225270e-12 -6.519288e-12 -1.868353e-07))
11.808816     	((9.380984e-10 4.163684e-10 -3.086171e-11) (-2.857720e-11 -1.361522e-10 -1.093601e-10)) ((-1.466377e-13 -1.473894e-13 -7.962056e-12) (-6.901776e-12 -5.181151e-12 -1.744939e-07))
14.182579     	((6.146884e-10 6.579873e-10 -1.818172e-10) (-9.325371e-11 -8.873723e-11 -1.036657e-10)) ((-1.010658e-13 -1.467718e-13 -7.377248e-12) (-4.301554e-12 -3.935972e-12 -1.630987e-07))
17.031095     	((8.263224e-10 2.775690e-10 -1.111429e-10) (-7.247715e-11 -3.590196e-12 -7.575986e-11)) ((-7.960026e-14 -1.400469e-13 -6.863765e-12) (-2.327548e-12 -3.478660e-12 -1.525992e-07))
20.449314     	((3.845321e-10 -2.419865e-12 -6.347561e-11) (-1.433814e-10 3.259205e-11 -4.422478e-11)) ((-6.324108e-14 -1.254108e-13 -6.443071e-12) (-1.206898e-12 -3.449885e-12 -1.429786e-07))
24.551176     	((-2.876052e-14 -1.822130e-10 -1.965831e-11) (-1.359874e-10 6.594168e-11 -2.675501e-11)) ((-3.695378e-14 -1.229914e-13 -6.081146e-12) (-1.634896e-13 -3.771343e-12 -1.342173e-07))
29.473411     	((-1.932495e-10 -2.175899e-10 4.295933e-12) (-1.179116e-10 1.160286e-10 -1.199969e-11)) ((-9.803551e-15 -1.101543e-13 -5.789585e-12) (7.343408e-13 -4.527174e-12 -1.262748e-07))
35.380094     	((-3.531628e-10 -1.532801e-10 7.657031e-12) (-1.337037e-10 9.527400e-11 -4.862614e-12)) ((1.312728e-14 -7.881462e-14 -5.547925e-12) (1.251500e-12 -5.203033e-12 -1.190945e-07))
42.468112     	((-3.702299e-10 -8.827133e-11 -3.570919e-11) (-7.556371e-11 1.158245e-10 -1.057134e-11)) ((1.247857e-14 -6.750880e-14 -5.322293e-12) (1.401162e-12 -5.445217e-12 -1.126103e-07))
50.973735     	((-2.286697e-10 1.564148e-10 -2.514362e-11) (-3.365997e-11 1.639812e-10 -7.799016e-12)) ((1.856819e-15 -6.724663e-14 -5.064840e-12) (1.219979e-12 -5.369089e-12 -1.067425e-07))
61.180482     	((-1.056191e-10 2.103157e-10 -5.174548e-11) (-3.510232e-11 7.392580e-11 -4.143578e-12)) ((-3.263238e-15 -7.308127e-14 -4.845660e-12) (1.003285e-12 -5.071440e-12 -1.014112e-07))
73.428578     	((1.002601e-10 4.116801e-10 -4.483712e-11) (-6.808239e-11 3.236044e-11 7.487659e-12)) ((3.249539e-16 -7.975691e-14 -4.678827e-12) (7.223244e-13 -4.530018e-12 -9.655761e-08))
88.126294     	((2.230436e-10 3.500615e-10 -4.286524e-11) (-3.758049e-12 -8.120126e-11 1.387361e-11)) ((1.830831e-15 -8.073055e-14 -4.519272e-12) (3.873864e-13 -3.771099e-12 -9.214786e-08))
105.763553    	((6.586641e-11 3.760120e-10 -3.542329e-11) (1.916912e-11 -6.616577e-11 1.621548e-11)) ((1.334705e-15 -8.389226e-14 -4.304389e-12) (4.728109e-14 -2.931970e-12 -8.815681e-08))
126.928263    	((-3.203438e-11 3.184519e-10 -1.312400e-11) (-6.681230e-11 -3.695602e-11 2.149307e-11)) ((-6.191248e-16 -8.099969e-14 -4.142931e-12) (-4.044582e-13 -2.084085e-12 -8.456414e-08))
152.325916    	((-9.129005e-11 2.555535e-10 -7.534097e-12) (-1.536720e-10 2.620778e-11 2.250678e-11)) ((-1.860543e-15 -7.824282e-14 -4.042569e-12) (-7.704838e-13 -1.033200e-12 -8.134514e-08))
182.803099    	((-2.838635e-10 9.517888e-11 -2.195385e-11) (-1.737090e-10 -7.408506e-11 2.384103e-11)) ((3.735030e-15 -7.539391e-14 -3.972469e-12) (-1.303546e-12 1.254822e-13 -7.847353e-08))
218.387063    	((-4.282778e-10 -3.872712e-12 -2.938844e-11) (-1.911065e-10 -1.388003e-10 2.301142e-11)) ((4.258965e-15 -7.205150e-14 -3.923140e-12) (-1.637768e-12 1.010036e-12 -7.594852e-08))
259.076653    	((-5.808274e-10 -1.233559e-10 -1.498703e-11) (-2.571538e-10 -1.105300e-10 1.801090e-11)) ((5.425546e-15 -6.822002e-14 -3.872898e-12) (-1.658859e-12 1.715279e-12 -7.375334e-08))
304.870643    	((-5.675785e-10 -8.096830e-11 -6.084512e-11) (-3.271125e-10 -6.410708e-11 1.061576e-11)) ((2.755609e-15 -6.859963e-14 -3.836020e-12) (-1.548354e-12 2.250317e-12 -7.186932e-08))
355.767683    	((-5.884898e-10 -6.762196e-11 -5.583566e-11) (-3.498132e-10 -3.218743e-11 4.531419e-12)) ((4.799575e-16 -7.036349e-14 -3.793634e-12) (-1.033151e-12 2.498109e-12 -7.027063e-08))
406.783487    	((-5.309636e-10 -1.941496e-11 -4.868229e-11) (-3.377718e-10 1.187738e-11 4.079734e-12)) ((-8.633942e-16 -6.930529e-14 -3.756910e-12) (-2.724973e-13 2.376192e-12 -6.896699e-08))
457.785276    	((-4.925071e-10 4.868795e-12 -2.219049e-11) (-3.327792e-10 3.048067e-11 9.093489e-12)) ((-2.041085e-15 -6.355411e-14 -3.719435e-12) (3.723884e-13 1.997855e-12 -6.791614e-08))
508.771597    	((-4.668577e-10 1.783489e-11 -1.667728e-11) (-3.221156e-10 3.409439e-11 1.298078e-11)) ((-4.408326e-15 -5.881744e-14 -3.688784e-12) (8.428205e-13 1.602295e-12 -6.708589e-08))
559.742836    	((-4.116805e-10 5.556044e-11 -2.124014e-11) (-3.137490e-10 2.868118e-11 1.382130e-11)) ((-6.144092e-15 -5.627816e-14 -3.667536e-12) (1.242625e-12 1.235401e-12 -6.643728e-08))
610.699447    	((-3.504969e-10 4.890719e-11 -1.431720e-11) (-3.011954e-10 1.546269e-11 1.473413e-11)) ((-8.669501e-15 -5.574838e-14 -3.650443e-12) (1.533754e-12 1.002208e-12 -6.594124e-08))
661.642449    	((-2.957051e-10 5.269461e-11 -1.829220e-11) (-2.717689e-10 9.349465e-12 1.732773e-11)) ((-1.019529e-14 -5.393650e-14 -3.639191e-12) (1.663862e-12 8.664848e-13 -6.557052e-08))
712.573186    	((-2.454050e-10 7.859995e-11 -2.214981e-11) (-2.404220e-10 5.956473e-12 1.366705e-11)) ((-1.193856e-14 -5.046498e-14 -3.629562e-12) (1.809766e-12 7.338717e-13 -6.530480e-08))
763.492868    	((-2.151582e-10 9.188926e-11 -2.279087e-11) (-2.254682e-10 2.295724e-11 9.319310e-12)) ((-1.426703e-14 -4.813825e-14 -3.615965e-12) (1.957152e-12 7.007540e-13 -6.512589e-08))
814.402711    	((-2.087533e-10 1.084105e-10 -2.240876e-11) (-2.327333e-10 3.342685e-11 5.974414e-12)) ((-1.555040e-14 -4.645483e-14 -3.600672e-12) (2.074839e-12 6.745924e-13 -6.501923e-08))
865.304092    	((-1.855600e-10 1.082368e-10 -1.167805e-11) (-2.548094e-10 3.407416e-11 2.116627e-12)) ((-1.624997e-14 -4.411988e-14 -3.583111e-12) (2.157689e-12 5.912172e-13 -6.497191e-08))
916.196435    	((-1.697378e-10 1.312949e-10 -2.845398e-12) (-2.751912e-10 2.736095e-11 1.119864e-12)) ((-1.631682e-14 -4.150162e-14 -3.568497e-12) (2.244924e-12 4.905016e-13 -6.497356e-08))
967.08036     	((-1.529184e-10 1.409419e-10 4.296428e-12) (-2.947450e-10 2.859892e-11 2.884878e-12)) ((-1.746357e-14 -3.941112e-14 -3.551181e-12) (2.265681e-12 4.313562e-13 -6.501454e-08))
1017.95707    	((-1.408612e-10 1.514996e-10 1.398906e-11) (-3.097514e-10 2.416995e-11 6.928224e-12)) ((-1.903483e-14 -3.718670e-14 -3.534930e-12) (2.219379e-12 4.134300e-13 -6.508685e-08))
1068.827764   	((-1.263128e-10 1.576490e-10 2.235751e-11) (-3.213969e-10 1.987853e-11 1.154892e-11)) ((-2.099632e-14 -3.576905e-14 -3.519705e-12) (2.124065e-12 4.160330e-13 -6.518375e-08))
1119.693551   	((-1.146595e-10 1.660600e-10 2.800379e-11) (-3.340549e-10 1.669441e-11 1.707631e-11)) ((-2.305076e-14 -3.450290e-14 -3.506011e-12) (2.010022e-12 4.882868e-13 -6.529934e-08))
1170.555502   	((-9.789579e-11 1.638968e-10 3.046384e-11) (-3.373124e-10 1.586301e-11 2.220270e-11)) ((-2.452840e-14 -3.360841e-14 -3.495020e-12) (1.895692e-12 5.960136e-13 -6.542844e-08))
1221.414671   	((-8.656870e-11 1.636399e-10 3.562360e-11) (-3.311564e-10 1.509867e-11 2.601329e-11)) ((-2.543574e-14 -3.298792e-14 -3.486934e-12) (1.784695e-12 6.996786e-13 -6.556654e-08))
