# Forces      
# CofR        : (0.000000e+00 0.000000e+00 0.000000e+00)
# Time        forces(pressure viscous)	moments(pressure viscous)
0             	((0.000000e+00 0.000000e+00 0.000000e+00) (-1.135308e-11 7.982463e-02 1.078003e-12)) ((0.000000e+00 0.000000e+00 0.000000e+00) (4.279734e-13 1.716937e-14 -2.513663e-08))
0.00765102    	((3.754521e-03 3.657982e+01 3.267274e-03) (-1.416091e-05 2.240872e-01 -1.634467e-05)) ((3.884039e-08 4.479814e-08 -7.970162e-06) (5.258743e-07 5.740303e-10 -3.786675e-07))
0.0168322     	((-4.085993e-03 -1.742079e+01 -4.813973e-03) (5.814338e-05 2.073826e-01 -2.108547e-05)) ((2.688045e-07 -2.570952e-08 3.339356e-06) (1.347749e-06 -3.212363e-09 1.614256e-08))
0.0278497     	((9.612026e-04 3.969303e+00 5.823324e-04) (4.539558e-05 1.701569e-01 -9.320566e-06)) ((-2.757347e-07 -1.328128e-08 -9.476850e-07) (7.938509e-07 -8.262575e-09 5.888836e-07))
0.0409635     	((-3.894090e-03 -1.518190e+00 -1.893099e-03) (-4.232433e-05 1.585173e-01 -1.214345e-05)) ((1.243254e-07 -2.356593e-08 -1.472822e-06) (5.318757e-07 -5.422029e-09 2.406868e-06))
0.056183      	((-1.187418e-03 1.082300e+00 8.721239e-04) (-9.446060e-05 1.511269e-01 -9.430697e-06)) ((-1.009366e-07 -2.127909e-08 -1.038665e-06) (4.945020e-07 -9.194280e-09 4.054239e-06))
0.0734942     	((-4.521958e-03 -9.547268e-02 -4.286747e-04) (-1.363324e-04 1.488566e-01 -3.356714e-06)) ((1.654711e-08 8.975565e-10 -1.248681e-06) (1.529215e-07 -2.643493e-09 4.298264e-06))
0.0928825     	((-1.272701e-03 4.756967e-01 2.419478e-04) (-1.259912e-04 1.467934e-01 2.506834e-06)) ((-4.415781e-08 9.247376e-09 -1.476102e-06) (-1.049685e-08 6.886057e-09 5.133196e-06))
0.113516      	((-2.650348e-03 2.365091e-01 -3.209832e-04) (-1.229293e-04 1.457823e-01 1.511797e-06)) ((-1.550158e-09 1.143378e-08 -1.759057e-06) (-1.806905e-07 9.605510e-09 6.390704e-06))
0.134167      	((-1.534350e-03 3.975745e-01 -2.127147e-04) (-1.276007e-04 1.453568e-01 2.258746e-06)) ((-5.752914e-09 1.940741e-08 -1.958375e-06) (-2.788036e-07 -5.360367e-09 6.686997e-06))
0.154756      	((-1.415965e-03 3.591904e-01 -6.110581e-04) (-1.189609e-04 1.452692e-01 6.716146e-08)) ((1.279236e-08 -4.855487e-09 -2.161341e-06) (-2.600537e-07 -1.253074e-08 7.239641e-06))
0.175205      	((1.296490e-05 4.208672e-01 -9.117534e-04) (-1.117232e-04 1.452093e-01 -3.531815e-06)) ((-1.733163e-09 -5.266751e-09 -2.167780e-06) (-2.137119e-07 -2.703024e-09 8.083883e-06))
0.195518      	((-2.796078e-04 4.262358e-01 -9.534159e-04) (-1.288265e-04 1.450112e-01 -1.619919e-06)) ((1.737933e-08 6.701808e-09 -2.289822e-06) (-2.151116e-07 7.697478e-10 8.560694e-06))
0.215762      	((1.439123e-03 4.498378e-01 -1.268109e-03) (-1.304311e-04 1.445314e-01 -3.982004e-06)) ((1.416699e-08 -8.900986e-09 -2.256417e-06) (-1.420192e-07 -1.035826e-09 8.987049e-06))
0.235956      	((3.029405e-03 4.557578e-01 -1.470208e-03) (-1.237544e-04 1.438781e-01 -3.277863e-06)) ((9.365309e-09 6.340810e-09 -2.387325e-06) (-1.520784e-08 -3.351978e-09 9.637420e-06))
0.25617       	((4.092374e-03 4.618525e-01 -1.514678e-03) (-1.274225e-04 1.431489e-01 1.308912e-06)) ((3.756599e-08 1.180386e-08 -2.461392e-06) (1.043841e-08 -9.005662e-09 1.002330e-05))
0.276439      	((5.721390e-03 4.616699e-01 -2.103695e-03) (-1.214954e-04 1.424321e-01 -3.535622e-06)) ((3.596061e-08 -2.349688e-09 -2.560608e-06) (1.003247e-07 -6.483931e-09 1.042008e-05))
0.296756      	((8.294743e-03 4.629677e-01 -2.376616e-03) (-1.086290e-04 1.418186e-01 -7.747145e-06)) ((3.091905e-08 4.867078e-09 -2.676062e-06) (2.094539e-07 -1.400661e-09 1.120761e-05))
0.317094      	((1.005437e-02 4.604238e-01 -2.606005e-03) (-1.076389e-04 1.412635e-01 -5.674376e-06)) ((5.659431e-08 9.844958e-09 -2.702610e-06) (2.318169e-07 1.536361e-09 1.170285e-05))
0.337439      	((1.273579e-02 4.585885e-01 -3.212428e-03) (-9.265894e-05 1.407377e-01 -7.948889e-06)) ((4.605804e-08 1.087638e-10 -2.778705e-06) (3.390344e-07 4.749846e-09 1.224998e-05))
0.357792      	((1.572670e-02 4.563439e-01 -3.718538e-03) (-7.875277e-05 1.402717e-01 -1.224672e-05)) ((5.280263e-08 -8.495164e-10 -2.854299e-06) (5.577070e-07 5.048579e-09 1.314156e-05))
0.378158      	((1.853032e-02 4.539353e-01 -4.157294e-03) (-7.615349e-05 1.398442e-01 -8.762355e-06)) ((7.131425e-08 2.196796e-09 -2.896654e-06) (6.473338e-07 4.485685e-09 1.384462e-05))
0.398534      	((2.245518e-02 4.525184e-01 -4.878798e-03) (-5.626409e-05 1.394334e-01 -1.089148e-05)) ((6.779381e-08 -9.928896e-09 -3.000496e-06) (7.633917e-07 7.254843e-09 1.482300e-05))
0.418916      	((2.624931e-02 4.516084e-01 -5.809418e-03) (-4.435391e-05 1.390596e-01 -1.705416e-05)) ((8.436269e-08 -6.019606e-09 -3.044716e-06) (1.030931e-06 3.807104e-09 1.621269e-05))
0.439302      	((3.054269e-02 4.509153e-01 -6.499322e-03) (-3.887163e-05 1.387242e-01 -1.349915e-05)) ((9.970232e-08 1.887355e-10 -3.099162e-06) (1.211931e-06 -3.198893e-09 1.758467e-05))
0.459693      	((3.595102e-02 4.502326e-01 -7.667854e-03) (-2.534211e-05 1.384114e-01 -1.587914e-05)) ((1.159793e-07 -1.427671e-08 -3.165310e-06) (1.416505e-06 -6.909002e-09 1.912961e-05))
0.480089      	((4.163072e-02 4.496289e-01 -9.063864e-03) (-1.735871e-05 1.381324e-01 -2.166375e-05)) ((1.374199e-07 -1.554439e-08 -3.194139e-06) (1.807679e-06 -7.622930e-09 2.093704e-05))
0.500488      	((4.813556e-02 4.490499e-01 -1.028977e-02) (-5.076475e-06 1.378862e-01 -2.024610e-05)) ((1.529339e-07 -4.902024e-09 -3.237890e-06) (2.205950e-06 -4.125718e-09 2.288475e-05))
0.52089       	((5.540572e-02 4.482045e-01 -1.212799e-02) (8.689097e-06 1.376555e-01 -2.528050e-05)) ((2.018444e-07 -1.747193e-08 -3.274272e-06) (2.662643e-06 -3.533476e-09 2.506802e-05))
0.541295      	((6.338878e-02 4.472517e-01 -1.406088e-02) (2.293680e-05 1.374455e-01 -2.992935e-05)) ((2.202285e-07 -9.932655e-09 -3.311601e-06) (3.238805e-06 6.930413e-09 2.745557e-05))
0.561702      	((7.248277e-02 4.461992e-01 -1.613754e-02) (4.363660e-05 1.372529e-01 -3.226159e-05)) ((2.482926e-07 -1.228516e-08 -3.360578e-06) (3.879228e-06 9.561406e-09 3.000559e-05))
0.58211       	((8.274296e-02 4.453517e-01 -1.879223e-02) (6.648124e-05 1.370659e-01 -4.038473e-05)) ((3.183513e-07 -2.765995e-08 -3.400181e-06) (4.628720e-06 1.670772e-08 3.283885e-05))
0.60252       	((9.462023e-02 4.445208e-01 -2.157553e-02) (9.430938e-05 1.368946e-01 -4.613363e-05)) ((3.456150e-07 -1.374499e-08 -3.461164e-06) (5.504275e-06 2.822277e-08 3.600126e-05))
0.62293       	((1.081250e-01 4.438833e-01 -2.497365e-02) (1.279450e-04 1.367338e-01 -5.429638e-05)) ((4.051800e-07 -3.055755e-08 -3.521445e-06) (6.445974e-06 2.960043e-08 3.962097e-05))
0.643341      	((1.232228e-01 4.437457e-01 -2.873005e-02) (1.639021e-04 1.365806e-01 -6.457049e-05)) ((4.779760e-07 -2.644001e-08 -3.579291e-06) (7.577691e-06 4.251547e-08 4.377733e-05))
0.663751      	((1.403748e-01 4.437274e-01 -3.284517e-02) (2.048790e-04 1.364470e-01 -7.147273e-05)) ((5.129138e-07 -2.181450e-08 -3.650628e-06) (8.781469e-06 4.351199e-08 4.846209e-05))
0.684159      	((1.598067e-01 4.437423e-01 -3.794761e-02) (2.517215e-04 1.363231e-01 -8.693667e-05)) ((5.994650e-07 -4.178101e-08 -3.700851e-06) (1.013160e-05 5.956611e-08 5.374807e-05))
0.704563      	((1.817732e-01 4.443317e-01 -4.328648e-02) (3.034316e-04 1.362155e-01 -1.002049e-04)) ((6.857921e-07 4.951144e-09 -3.756434e-06) (1.176454e-05 7.972569e-08 5.962890e-05))
0.724963      	((2.066982e-01 4.452694e-01 -4.932946e-02) (3.649857e-04 1.361257e-01 -1.114572e-04)) ((7.566487e-07 2.225025e-09 -3.798510e-06) (1.342853e-05 7.440486e-08 6.627312e-05))
0.745358      	((2.345178e-01 4.466860e-01 -5.648597e-02) (4.316624e-04 1.360469e-01 -1.326269e-04)) ((8.924574e-07 2.575180e-08 -3.815333e-06) (1.534473e-05 1.020322e-07 7.385102e-05))
0.765747      	((2.658643e-01 4.488305e-01 -6.379750e-02) (5.037618e-04 1.359900e-01 -1.476781e-04)) ((9.823517e-07 8.017359e-08 -3.844821e-06) (1.755928e-05 1.176296e-07 8.246438e-05))
0.786128      	((3.010175e-01 4.517837e-01 -7.242363e-02) (5.871139e-04 1.359513e-01 -1.684082e-04)) ((1.095514e-06 7.970256e-08 -3.853157e-06) (1.994434e-05 1.106672e-07 9.223846e-05))
0.806501      	((3.398313e-01 4.557127e-01 -8.222337e-02) (6.774464e-04 1.359328e-01 -1.946459e-04)) ((1.267155e-06 1.745863e-07 -3.875288e-06) (2.277011e-05 1.132152e-07 1.031926e-04))
0.826864      	((3.828364e-01 4.608546e-01 -9.244939e-02) (7.812338e-04 1.359434e-01 -2.100304e-04)) ((1.373364e-06 2.105950e-07 -3.904988e-06) (2.589905e-05 1.067080e-07 1.153259e-04))
0.847215      	((4.299905e-01 4.675914e-01 -1.045240e-01) (8.983500e-04 1.359808e-01 -2.404806e-04)) ((1.544108e-06 2.595564e-07 -3.921377e-06) (2.932785e-05 1.289447e-07 1.286880e-04))
0.867551      	((4.817225e-01 4.759362e-01 -1.177051e-01) (1.030131e-03 1.360534e-01 -2.785040e-04)) ((1.753823e-06 4.369186e-07 -3.955750e-06) (3.337682e-05 1.368474e-07 1.432393e-04))
0.887865      	((5.376310e-01 4.861727e-01 -1.310232e-01) (1.189796e-03 1.361645e-01 -3.014103e-04)) ((1.878781e-06 5.070054e-07 -3.991149e-06) (3.751607e-05 6.015193e-08 1.589217e-04))
0.908155      	((5.969584e-01 4.988608e-01 -1.466077e-01) (1.371239e-03 1.363144e-01 -3.536135e-04)) ((2.063567e-06 7.056280e-07 -4.027038e-06) (4.181565e-05 -3.202624e-08 1.756421e-04))
0.928419      	((6.588466e-01 5.149100e-01 -1.623272e-01) (1.573428e-03 1.365076e-01 -4.189294e-04)) ((2.245634e-06 9.454511e-07 -4.121391e-06) (4.635894e-05 -1.517423e-07 1.934772e-04))
0.948659      	((7.217797e-01 5.346865e-01 -1.777576e-01) (1.797362e-03 1.367443e-01 -4.690152e-04)) ((2.355694e-06 1.102868e-06 -4.237516e-06) (5.071696e-05 -3.376326e-07 2.124381e-04))
0.968875      	((7.839060e-01 5.584732e-01 -1.941071e-01) (2.026968e-03 1.370289e-01 -5.474341e-04)) ((2.566218e-06 1.351045e-06 -4.409759e-06) (5.530717e-05 -4.693742e-07 2.324669e-04))
0.989066      	((8.422776e-01 5.852734e-01 -2.087612e-01) (2.260461e-03 1.373585e-01 -6.250298e-04)) ((2.716103e-06 1.478862e-06 -4.612220e-06) (6.017977e-05 -6.520431e-07 2.532570e-04))
1.00923       	((8.938085e-01 6.147894e-01 -2.205470e-01) (2.492287e-03 1.377252e-01 -6.808253e-04)) ((2.774158e-06 1.588049e-06 -4.799457e-06) (6.454097e-05 -9.209682e-07 2.743756e-04))
1.029366      	((9.354503e-01 6.458571e-01 -2.308854e-01) (2.710442e-03 1.381387e-01 -7.581740e-04)) ((2.851533e-06 1.762767e-06 -4.980151e-06) (6.868319e-05 -1.146132e-06 2.950940e-04))
1.049473      	((9.637362e-01 6.750588e-01 -2.375529e-01) (2.914795e-03 1.385939e-01 -8.230901e-04)) ((2.736917e-06 1.799071e-06 -5.123629e-06) (7.254272e-05 -1.221685e-06 3.141334e-04))
1.069548      	((9.753652e-01 6.996875e-01 -2.392788e-01) (3.096676e-03 1.390701e-01 -8.608023e-04)) ((2.577408e-06 1.796454e-06 -5.270879e-06) (7.539098e-05 -1.132120e-06 3.302055e-04))
1.089593      	((9.688692e-01 7.197202e-01 -2.373899e-01) (3.227132e-03 1.395613e-01 -9.080514e-04)) ((2.363856e-06 1.694831e-06 -5.436102e-06) (7.772143e-05 -1.028944e-06 3.428369e-04))
1.109611      	((9.455358e-01 7.325362e-01 -2.300215e-01) (3.276749e-03 1.400388e-01 -9.209834e-04)) ((2.019918e-06 1.449521e-06 -5.554992e-06) (7.949788e-05 -1.070535e-06 3.524760e-04))
1.129608      	((9.081121e-01 7.376620e-01 -2.182658e-01) (3.220858e-03 1.404737e-01 -8.962123e-04)) ((1.790404e-06 1.208635e-06 -5.480379e-06) (8.030490e-05 -1.157960e-06 3.597258e-04))
1.14959       	((8.616458e-01 7.354779e-01 -2.053071e-01) (3.058475e-03 1.408714e-01 -8.700246e-04)) ((1.482391e-06 9.707027e-07 -5.251498e-06) (8.078521e-05 -1.173748e-06 3.646197e-04))
1.169563      	((8.114734e-01 7.269037e-01 -1.922346e-01) (2.804406e-03 1.412145e-01 -8.033896e-04)) ((1.175202e-06 7.826951e-07 -5.035742e-06) (8.079927e-05 -1.256254e-06 3.671213e-04))
1.189532      	((7.659778e-01 7.161982e-01 -1.808065e-01) (2.485954e-03 1.415014e-01 -7.143670e-04)) ((1.060581e-06 6.808385e-07 -4.921384e-06) (8.012663e-05 -1.499667e-06 3.675199e-04))
1.209504      	((7.319594e-01 7.046786e-01 -1.739069e-01) (2.152432e-03 1.417625e-01 -6.454479e-04)) ((9.884770e-07 7.160244e-07 -4.818321e-06) (7.971822e-05 -1.779163e-06 3.661326e-04))
1.229482      	((7.120687e-01 6.924626e-01 -1.689697e-01) (1.857675e-03 1.419941e-01 -5.630505e-04)) ((1.095086e-06 8.675457e-07 -4.816781e-06) (7.924207e-05 -2.115078e-06 3.630639e-04))
1.249468      	((7.039405e-01 6.804748e-01 -1.677256e-01) (1.638813e-03 1.421876e-01 -4.778887e-04)) ((1.287700e-06 1.001709e-06 -4.919477e-06) (7.829166e-05 -2.509336e-06 3.585823e-04))
1.269464      	((7.051281e-01 6.688103e-01 -1.703343e-01) (1.515339e-03 1.423623e-01 -4.390608e-04)) ((1.425794e-06 1.296369e-06 -5.042943e-06) (7.758538e-05 -2.880914e-06 3.528931e-04))
1.289468      	((7.107033e-01 6.575544e-01 -1.725867e-01) (1.510293e-03 1.425156e-01 -4.219509e-04)) ((1.568883e-06 1.549948e-06 -5.109134e-06) (7.630073e-05 -3.323350e-06 3.452145e-04))
1.309481      	((7.158121e-01 6.462877e-01 -1.745484e-01) (1.587545e-03 1.426246e-01 -4.183105e-04)) ((1.736305e-06 1.709721e-06 -5.080147e-06) (7.453746e-05 -3.777252e-06 3.370034e-04))
1.329499      	((7.144895e-01 6.369433e-01 -1.766621e-01) (1.672835e-03 1.426862e-01 -4.447689e-04)) ((1.851189e-06 1.884845e-06 -5.019707e-06) (7.352456e-05 -4.182639e-06 3.304239e-04))
1.349521      	((7.034091e-01 6.302691e-01 -1.762446e-01) (1.721621e-03 1.427191e-01 -4.531676e-04)) ((1.883062e-06 1.809148e-06 -5.014074e-06) (7.276767e-05 -4.517811e-06 3.253267e-04))
1.369545      	((6.837888e-01 6.269414e-01 -1.737618e-01) (1.708523e-03 1.427450e-01 -4.451438e-04)) ((1.713381e-06 1.462261e-06 -4.901922e-06) (7.210220e-05 -4.710139e-06 3.213725e-04))
1.389572      	((6.595581e-01 6.257557e-01 -1.707466e-01) (1.642528e-03 1.427662e-01 -4.443879e-04)) ((1.484390e-06 1.149019e-06 -4.657197e-06) (7.187504e-05 -4.712850e-06 3.178985e-04))
1.409601      	((6.326354e-01 6.262128e-01 -1.656711e-01) (1.526569e-03 1.427719e-01 -4.135067e-04)) ((1.259605e-06 7.263679e-07 -4.409706e-06) (7.181858e-05 -4.686565e-06 3.149800e-04))
1.429633      	((6.083918e-01 6.264800e-01 -1.600585e-01) (1.371599e-03 1.427643e-01 -3.641631e-04)) ((1.091011e-06 3.478155e-07 -4.182996e-06) (7.198794e-05 -4.712852e-06 3.127703e-04))
1.44967       	((5.898298e-01 6.268059e-01 -1.556730e-01) (1.198954e-03 1.427500e-01 -3.277918e-04)) ((1.081589e-06 2.585331e-07 -3.972493e-06) (7.247449e-05 -4.876111e-06 3.108494e-04))
1.469712      	((5.776484e-01 6.289506e-01 -1.518891e-01) (1.002955e-03 1.427318e-01 -2.700544e-04)) ((1.279888e-06 3.076755e-07 -3.833270e-06) (7.299801e-05 -5.236947e-06 3.100485e-04))
1.489759      	((5.754142e-01 6.309363e-01 -1.498965e-01) (8.011827e-04 1.427083e-01 -2.062610e-04)) ((1.499706e-06 4.725130e-07 -3.855654e-06) (7.394844e-05 -5.468657e-06 3.109330e-04))
1.509814      	((5.832507e-01 6.290468e-01 -1.515509e-01) (6.245712e-04 1.426584e-01 -1.668059e-04)) ((1.668036e-06 8.203667e-07 -4.014629e-06) (7.559413e-05 -5.353034e-06 3.134283e-04))
1.529875      	((5.969234e-01 6.234506e-01 -1.535860e-01) (5.149234e-04 1.425875e-01 -1.201816e-04)) ((1.893687e-06 1.159682e-06 -4.199248e-06) (7.671574e-05 -5.104565e-06 3.158415e-04))
1.549942      	((6.128103e-01 6.158292e-01 -1.578537e-01) (5.229578e-04 1.425377e-01 -1.079993e-04)) ((2.053209e-06 1.470154e-06 -4.320203e-06) (7.694132e-05 -4.829114e-06 3.151339e-04))
1.570015      	((6.257005e-01 6.083505e-01 -1.634211e-01) (6.262620e-04 1.424944e-01 -1.568070e-04)) ((2.085242e-06 1.803830e-06 -4.343681e-06) (7.660194e-05 -4.746757e-06 3.116838e-04))
1.590091      	((6.312024e-01 6.050952e-01 -1.657138e-01) (7.577611e-04 1.424472e-01 -1.968875e-04)) ((2.141471e-06 1.915973e-06 -4.300627e-06) (7.533566e-05 -5.023458e-06 3.077721e-04))
1.610171      	((6.293547e-01 6.077458e-01 -1.667193e-01) (8.688601e-04 1.424119e-01 -2.418374e-04)) ((2.109342e-06 1.824833e-06 -4.247183e-06) (7.391105e-05 -5.219449e-06 3.047349e-04))
1.630252      	((6.215690e-01 6.127579e-01 -1.683081e-01) (9.220583e-04 1.423567e-01 -2.931307e-04)) ((1.863581e-06 1.611850e-06 -4.196397e-06) (7.335814e-05 -5.019334e-06 3.037225e-04))
1.650334      	((6.109928e-01 6.195511e-01 -1.660856e-01) (9.138782e-04 1.422908e-01 -2.869817e-04)) ((1.762457e-06 1.266020e-06 -4.151524e-06) (7.320344e-05 -4.771330e-06 3.044802e-04))
1.670417      	((5.980127e-01 6.259932e-01 -1.626898e-01) (8.514602e-04 1.422504e-01 -2.709221e-04)) ((1.654974e-06 9.957544e-07 -4.102257e-06) (7.347079e-05 -4.624376e-06 3.060977e-04))
1.690501      	((5.830931e-01 6.302310e-01 -1.593180e-01) (7.418164e-04 1.422077e-01 -2.593072e-04)) ((1.428721e-06 8.344581e-07 -4.072448e-06) (7.436447e-05 -4.658374e-06 3.083573e-04))
1.710586      	((5.686937e-01 6.320467e-01 -1.536170e-01) (6.032951e-04 1.421615e-01 -2.008748e-04)) ((1.470265e-06 7.627568e-07 -4.087278e-06) (7.516217e-05 -5.053215e-06 3.108431e-04))
1.730674      	((5.545237e-01 6.320861e-01 -1.493116e-01) (4.679705e-04 1.421405e-01 -1.494762e-04)) ((1.549394e-06 8.387315e-07 -4.142994e-06) (7.594447e-05 -5.511307e-06 3.119929e-04))
1.750767      	((5.440991e-01 6.289368e-01 -1.476614e-01) (3.670508e-04 1.421211e-01 -1.140976e-04)) ((1.557394e-06 1.027772e-06 -4.249579e-06) (7.700176e-05 -5.878975e-06 3.108051e-04))
1.770866      	((5.399909e-01 6.226825e-01 -1.468894e-01) (3.097900e-04 1.420965e-01 -4.086328e-05)) ((1.791347e-06 1.218243e-06 -4.394616e-06) (7.806639e-05 -6.250142e-06 3.077698e-04))
1.790973      	((5.410630e-01 6.148481e-01 -1.498132e-01) (3.033183e-04 1.420764e-01 3.658358e-06)) ((1.997449e-06 1.466628e-06 -4.470067e-06) (7.925800e-05 -6.771857e-06 3.032640e-04))
