# Forces      
# CofR        : (0.000000e+00 0.000000e+00 0.000000e+00)
# Time        forces(pressure viscous)	moments(pressure viscous)
0             	((0.000000e+00 0.000000e+00 0.000000e+00) (1.592933e-04 -2.254458e-14 1.114631e-14)) ((0.000000e+00 0.000000e+00 0.000000e+00) (-3.150243e-16 -2.403796e-15 3.374892e-15))
0.012         	((4.633137e-02 -2.480557e-08 -1.773325e-08) (1.827419e-04 -1.590320e-10 -1.000588e-10)) ((-9.750409e-14 -1.890638e-11 -6.531263e-12) (2.566110e-14 1.429227e-12 2.583231e-12))
0.0264        	((-3.340665e-03 -2.881406e-07 -1.007665e-06) (1.863093e-04 -4.704377e-10 -8.615776e-10)) ((9.763147e-12 3.712046e-11 7.889101e-12) (1.839014e-13 4.296352e-12 4.413823e-12))
0.04368       	((-9.621093e-03 8.989768e-09 6.709912e-07) (1.654350e-04 -5.877292e-10 -7.218226e-10)) ((-5.763811e-12 2.105582e-11 3.547260e-11) (4.262460e-13 1.081190e-11 2.270956e-12))
0.064416      	((-9.137273e-05 3.601844e-08 -2.259308e-07) (1.464767e-04 2.930948e-09 2.147881e-09)) ((4.472457e-13 -1.826053e-11 -1.248967e-11) (4.275807e-13 -3.785962e-12 2.164469e-11))
0.0892992     	((1.127495e-04 -3.605514e-08 1.683564e-07) (1.351962e-04 4.464328e-09 3.513550e-09)) ((4.468316e-12 -2.105832e-12 -7.865836e-12) (5.496577e-13 3.678838e-12 2.396893e-11))
0.119159      	((-1.494773e-04 1.749442e-07 1.064486e-07) (1.248275e-04 3.087525e-09 3.055511e-09)) ((-3.053011e-12 -1.107988e-11 -2.996293e-12) (-4.730148e-13 3.771337e-11 -4.692620e-12))
0.154991      	((-7.812061e-05 -1.371787e-08 3.238062e-08) (1.138847e-04 2.438273e-09 2.506078e-09)) ((1.818125e-12 -7.156151e-12 -5.149357e-13) (-4.430880e-12 4.132255e-11 1.140929e-11))
0.197989      	((-1.874852e-05 -6.611002e-09 -7.645176e-09) (1.029102e-04 1.469721e-09 1.475341e-09)) ((1.836568e-12 -9.285332e-12 7.981237e-13) (-7.143330e-12 2.319423e-11 4.881322e-11))
0.249587      	((2.784142e-06 1.530508e-08 5.209153e-09) (9.223206e-05 6.111108e-10 7.375945e-10)) ((6.381572e-13 -4.882914e-12 1.274706e-12) (-5.605686e-12 8.945534e-12 6.036784e-11))
0.311504      	((1.240375e-05 3.151320e-09 2.948603e-09) (8.217508e-05 5.614440e-11 3.382742e-10)) ((2.716245e-13 -3.746474e-12 5.737837e-13) (-2.859832e-12 -3.223068e-12 6.143757e-11))
0.385805      	((1.739559e-05 -9.685479e-10 -9.977761e-10) (7.299728e-05 -2.043263e-10 3.491067e-11)) ((1.860231e-13 -2.543368e-12 4.076486e-13) (-1.049517e-12 -1.246135e-11 5.837194e-11))
0.474966      	((2.008276e-05 -4.350305e-09 -4.150494e-09) (6.483412e-05 -1.812969e-10 -2.017583e-10)) ((6.513044e-14 -1.663376e-12 1.631237e-13) (5.823534e-14 -1.577387e-11 5.207919e-11))
0.581959      	((2.120899e-05 -4.618235e-09 -4.620680e-09) (5.765928e-05 -1.633990e-10 -3.373585e-10)) ((6.265196e-14 -1.078454e-12 1.861616e-13) (-1.765004e-13 -1.332797e-11 4.521873e-11))
0.710351      	((2.118509e-05 -3.693937e-09 -4.006284e-09) (5.140399e-05 -9.075009e-11 -3.062707e-10)) ((7.054410e-14 -5.659936e-13 1.038508e-13) (-7.962534e-13 -7.012166e-12 3.675263e-11))
0.864421      	((2.042793e-05 -2.813246e-09 -2.894472e-09) (4.598611e-05 -5.970619e-11 -2.063653e-10)) ((8.585771e-14 -2.926779e-13 3.928976e-14) (-9.913757e-13 -2.051476e-12 2.800405e-11))
1.049306      	((1.930784e-05 -2.011476e-09 -2.213577e-09) (4.130072e-05 -4.307260e-11 -1.435843e-10)) ((6.967896e-14 -1.159307e-13 1.701423e-14) (-1.081127e-12 -6.180318e-13 2.096621e-11))
1.271167      	((1.802147e-05 -1.562346e-09 -1.943883e-09) (3.723609e-05 -3.339562e-11 -1.099859e-10)) ((7.393947e-14 -1.483972e-14 -2.726046e-15) (-9.567732e-13 9.620676e-14 1.514661e-11))
1.5374        	((1.667011e-05 -1.376349e-09 -1.049503e-09) (3.367935e-05 -3.934680e-11 -8.975948e-11)) ((6.188245e-14 1.862821e-14 -9.764180e-15) (-7.155722e-13 1.130006e-12 1.106510e-11))
1.85688       	((1.534628e-05 -8.903251e-10 -1.272782e-09) (3.053856e-05 -5.758079e-11 -1.127892e-10)) ((4.093139e-14 1.779137e-14 -6.704950e-15) (-4.925014e-13 1.140156e-12 8.208159e-12))
2.240256      	((1.410451e-05 -6.701650e-10 -9.028734e-10) (2.774935e-05 -9.807412e-11 -1.475369e-10)) ((1.924761e-14 2.774643e-14 -9.114799e-15) (-3.075650e-13 1.194188e-12 5.527399e-12))
2.700307      	((1.296133e-05 -6.274668e-10 -7.705913e-10) (2.526451e-05 -1.380444e-10 -1.583018e-10)) ((9.933182e-15 -1.428161e-16 -2.300237e-14) (-1.241940e-13 3.652446e-12 2.167860e-12))
3.252369      	((1.191266e-05 -9.268838e-10 -1.058402e-09) (2.304416e-05 -1.747680e-10 -1.597744e-10)) ((1.676433e-14 -2.475215e-14 -2.902893e-14) (2.451148e-13 7.243179e-12 -1.294106e-12))
3.914842      	((1.095992e-05 -1.510121e-09 -1.588352e-09) (2.105581e-05 -2.022700e-10 -1.702284e-10)) ((2.218206e-14 -4.520233e-14 -3.065064e-14) (5.953009e-13 1.006590e-11 -4.682690e-12))
4.709811      	((1.010906e-05 -2.275722e-09 -2.249257e-09) (1.927608e-05 -2.288021e-10 -1.796293e-10)) ((3.163249e-14 -6.529634e-14 -2.231606e-14) (8.773119e-13 1.274955e-11 -7.911167e-12))
5.663773      	((9.364787e-06 -2.916714e-09 -2.857870e-09) (1.768780e-05 -2.613313e-10 -2.060952e-10)) ((3.250570e-14 -7.356770e-14 -2.249459e-14) (1.069368e-12 1.518957e-11 -9.558899e-12))
6.808528      	((8.720451e-06 -2.528576e-09 -2.518403e-09) (1.627438e-05 -2.680587e-10 -2.229157e-10)) ((3.014980e-14 -7.498794e-14 -1.969997e-14) (1.138347e-12 1.626597e-11 -9.604438e-12))
8.182233      	((8.172872e-06 -2.848728e-09 -2.824061e-09) (1.501834e-05 -2.721971e-10 -2.369433e-10)) ((2.568147e-14 -8.916471e-14 -2.505945e-14) (1.196380e-12 1.597535e-11 -7.996344e-12))
9.83068       	((7.727736e-06 -3.206888e-09 -3.452248e-09) (1.390162e-05 -3.013667e-10 -2.856423e-10)) ((3.092378e-14 -9.581700e-14 -2.493892e-14) (1.171786e-12 1.451589e-11 -6.233397e-12))
11.808816     	((7.380398e-06 -4.350876e-09 -4.351157e-09) (1.290825e-05 -3.748481e-10 -3.640866e-10)) ((4.107703e-14 -1.167092e-13 -1.755000e-14) (9.371316e-13 1.371876e-11 -7.769696e-12))
14.182579     	((7.129498e-06 -4.220067e-09 -4.267844e-09) (1.202510e-05 -4.470404e-10 -4.475326e-10)) ((3.801855e-14 -1.369048e-13 -2.402075e-14) (8.553352e-13 1.773616e-11 -1.346360e-11))
17.031095     	((6.977166e-06 -3.860399e-09 -3.700998e-09) (1.124232e-05 -5.107328e-10 -5.039720e-10)) ((4.558142e-14 -1.323066e-13 -3.719150e-14) (6.681635e-13 2.523845e-11 -2.008781e-11))
20.449314     	((6.917536e-06 -3.240585e-09 -3.132993e-09) (1.055291e-05 -5.341834e-10 -5.265049e-10)) ((5.142164e-14 -1.342026e-13 -4.348774e-14) (3.014895e-13 3.322019e-11 -2.661270e-11))
24.551176     	((6.944250e-06 -2.673739e-09 -2.791579e-09) (9.951638e-06 -5.331110e-10 -5.463292e-10)) ((5.091557e-14 -1.215960e-13 -5.716706e-14) (1.256441e-13 3.853729e-11 -3.389452e-11))
29.473411     	((7.050565e-06 -1.395999e-09 -1.333207e-09) (9.432600e-06 -4.822165e-10 -4.954459e-10)) ((4.585927e-14 -8.547727e-14 -6.313319e-14) (-1.029768e-14 4.323700e-11 -4.116626e-11))
35.380094     	((7.227543e-06 6.590124e-10 6.827911e-10) (8.993321e-06 -3.344735e-10 -3.365986e-10)) ((4.588524e-14 -5.502163e-14 -5.795358e-14) (-8.234131e-14 4.953113e-11 -4.853039e-11))
42.468112     	((7.462366e-06 2.757440e-09 2.653826e-09) (8.628732e-06 -1.519201e-10 -1.514511e-10)) ((3.955841e-14 -3.874434e-14 -5.977683e-14) (-2.878807e-14 5.657091e-11 -5.792960e-11))
50.973735     	((7.727738e-06 4.432352e-09 4.217123e-09) (8.334229e-06 3.643075e-11 5.062819e-11)) ((3.913725e-14 -1.751103e-14 -6.213926e-14) (9.129839e-14 6.395072e-11 -6.664951e-11))
60.944717     	((8.003965e-06 6.757146e-09 6.657127e-09) (8.105234e-06 3.076802e-10 3.285410e-10)) ((3.781270e-14 7.459443e-15 -5.984167e-14) (-3.156271e-14 6.935310e-11 -7.433459e-11))
72.369472     	((8.254328e-06 9.192827e-09 9.015996e-09) (7.929660e-06 6.440715e-10 6.453568e-10)) ((4.621631e-14 4.149072e-14 -6.849244e-14) (-2.231700e-13 7.389967e-11 -7.984723e-11))
85.240863     	((8.450680e-06 1.143676e-08 1.134273e-08) (7.790718e-06 1.014442e-09 1.019613e-09)) ((4.352218e-14 7.891576e-14 -7.251806e-14) (-2.728581e-13 7.668961e-11 -8.142538e-11))
99.556506     	((8.586680e-06 1.317882e-08 1.324579e-08) (7.675206e-06 1.437832e-09 1.453369e-09)) ((3.669111e-14 9.149127e-14 -7.176462e-14) (-3.484802e-13 7.647831e-11 -8.113651e-11))
114.041285    	((8.686101e-06 1.487698e-08 1.498068e-08) (7.579733e-06 1.888933e-09 1.906871e-09)) ((2.860496e-14 1.065945e-13 -6.952357e-14) (-4.123837e-13 7.580335e-11 -7.944296e-11))
128.577317    	((8.736216e-06 1.603966e-08 1.620318e-08) (7.497684e-06 2.351944e-09 2.353978e-09)) ((2.620453e-14 1.136895e-13 -6.860145e-14) (-1.905920e-13 7.438204e-11 -7.582436e-11))
143.13901     	((8.757918e-06 1.661142e-08 1.678117e-08) (7.427150e-06 2.787701e-09 2.778088e-09)) ((2.318088e-14 1.160168e-13 -6.987892e-14) (-2.193148e-13 7.091740e-11 -7.088362e-11))
157.707019    	((8.762456e-06 1.677656e-08 1.692484e-08) (7.365917e-06 3.151152e-09 3.128053e-09)) ((2.238651e-14 1.142494e-13 -6.819032e-14) (-3.080438e-13 6.551173e-11 -6.501323e-11))
172.27902     	((8.755033e-06 1.685698e-08 1.704224e-08) (7.312349e-06 3.424448e-09 3.399674e-09)) ((2.098737e-14 1.124322e-13 -6.558150e-14) (-2.986183e-13 5.801687e-11 -5.801172e-11))
186.85836     	((8.738374e-06 1.680266e-08 1.699069e-08) (7.265128e-06 3.630194e-09 3.605458e-09)) ((2.011381e-14 1.182204e-13 -6.044075e-14) (-2.091849e-13 4.988087e-11 -5.024243e-11))
201.445773    	((8.719457e-06 1.670914e-08 1.692034e-08) (7.223226e-06 3.795361e-09 3.776120e-09)) ((2.130881e-14 1.272175e-13 -5.498430e-14) (-7.302066e-14 4.132469e-11 -4.159157e-11))
216.040014    	((8.702012e-06 1.646052e-08 1.670490e-08) (7.186089e-06 3.920209e-09 3.912346e-09)) ((2.408998e-14 1.334051e-13 -4.995833e-14) (3.708070e-14 3.283302e-11 -3.302830e-11))
230.640086    	((8.685178e-06 1.604218e-08 1.626438e-08) (7.153133e-06 4.001403e-09 4.005533e-09)) ((2.650311e-14 1.321498e-13 -4.395320e-14) (1.832480e-13 2.477773e-11 -2.487150e-11))
245.245461    	((8.670257e-06 1.544209e-08 1.571020e-08) (7.123948e-06 4.033931e-09 4.045902e-09)) ((2.934128e-14 1.307676e-13 -3.833329e-14) (3.214352e-13 1.729473e-11 -1.705623e-11))
259.855636    	((8.656633e-06 1.472182e-08 1.495452e-08) (7.098140e-06 4.031000e-09 4.042889e-09)) ((3.268087e-14 1.310499e-13 -3.625214e-14) (4.763290e-13 1.009218e-11 -9.227356e-12))
274.470089    	((8.644442e-06 1.394029e-08 1.418245e-08) (7.075321e-06 3.992308e-09 4.005564e-09)) ((3.542449e-14 1.319088e-13 -3.442966e-14) (5.969195e-13 3.167952e-12 -1.771169e-12))
289.088376    	((8.632880e-06 1.303956e-08 1.327031e-08) (7.055090e-06 3.916735e-09 3.934282e-09)) ((3.711407e-14 1.277219e-13 -3.257138e-14) (6.345977e-13 -3.460022e-12 4.975768e-12))
303.710135    	((8.622224e-06 1.220546e-08 1.239126e-08) (7.037106e-06 3.821182e-09 3.840438e-09)) ((3.822933e-14 1.242621e-13 -3.309962e-14) (6.395420e-13 -9.679061e-12 1.096069e-11))
318.335037    	((8.611956e-06 1.116414e-08 1.135029e-08) (7.021052e-06 3.694515e-09 3.713400e-09)) ((3.897724e-14 1.207461e-13 -3.252359e-14) (6.283607e-13 -1.523735e-11 1.648788e-11))
332.962783    	((8.602708e-06 1.024361e-08 1.042091e-08) (7.006705e-06 3.549299e-09 3.569770e-09)) ((3.877513e-14 1.178839e-13 -3.184183e-14) (6.090076e-13 -2.028392e-11 2.153345e-11))
347.593105    	((8.594124e-06 9.332650e-09 9.490426e-09) (6.993874e-06 3.396640e-09 3.416572e-09)) ((3.868436e-14 1.154817e-13 -3.068697e-14) (5.964592e-13 -2.484655e-11 2.611938e-11))
362.225763    	((8.586031e-06 8.427182e-09 8.595940e-09) (6.982373e-06 3.238658e-09 3.259014e-09)) ((3.879054e-14 1.138327e-13 -2.996964e-14) (5.634177e-13 -2.913530e-11 3.029390e-11))
376.860535    	((8.578280e-06 7.555285e-09 7.713163e-09) (6.972028e-06 3.079607e-09 3.099987e-09)) ((3.880455e-14 1.108908e-13 -2.985771e-14) (5.226553e-13 -3.312609e-11 3.410682e-11))
391.497224    	((8.571092e-06 6.631209e-09 6.785049e-09) (6.962702e-06 2.911978e-09 2.931620e-09)) ((3.831555e-14 1.063628e-13 -2.992085e-14) (4.988152e-13 -3.682725e-11 3.759314e-11))
406.135655    	((8.564646e-06 5.801682e-09 5.934858e-09) (6.954305e-06 2.742867e-09 2.761447e-09)) ((3.868114e-14 1.029744e-13 -2.998907e-14) (4.945639e-13 -4.026226e-11 4.081761e-11))
420.775666    	((8.558858e-06 4.979416e-09 5.102272e-09) (6.946753e-06 2.574568e-09 2.590751e-09)) ((3.902562e-14 9.921269e-14 -3.008243e-14) (4.981921e-13 -4.343693e-11 4.382937e-11))
435.41711     	((8.553372e-06 4.249689e-09 4.365215e-09) (6.939941e-06 2.413215e-09 2.427281e-09)) ((3.968470e-14 9.647282e-14 -3.043245e-14) (5.007490e-13 -4.642805e-11 4.669563e-11))
450.059856    	((8.548255e-06 3.525801e-09 3.621908e-09) (6.933778e-06 2.258222e-09 2.269010e-09)) ((4.024084e-14 9.261465e-14 -3.110463e-14) (4.954866e-13 -4.929358e-11 4.946559e-11))
464.703793    	((8.543648e-06 2.852765e-09 2.947984e-09) (6.928212e-06 2.108601e-09 2.117181e-09)) ((4.084649e-14 8.980679e-14 -3.188964e-14) (4.899042e-13 -5.205754e-11 5.210800e-11))
479.348817    	((8.539289e-06 2.223704e-09 2.313334e-09) (6.923174e-06 1.966872e-09 1.973200e-09)) ((4.142097e-14 8.737344e-14 -3.261321e-14) (4.890406e-13 -5.468622e-11 5.462257e-11))
493.994831    	((8.535169e-06 1.635534e-09 1.726089e-09) (6.918596e-06 1.834161e-09 1.838492e-09)) ((4.170352e-14 8.511795e-14 -3.327365e-14) (4.902856e-13 -5.720155e-11 5.704228e-11))
508.64175     	((8.531369e-06 1.068220e-09 1.149999e-09) (6.914437e-06 1.709581e-09 1.712023e-09)) ((4.189920e-14 8.261922e-14 -3.389057e-14) (4.897654e-13 -5.961324e-11 5.938794e-11))
523.289494    	((8.527816e-06 5.098867e-10 5.821950e-10) (6.910650e-06 1.591018e-09 1.591473e-09)) ((4.204994e-14 7.999408e-14 -3.462528e-14) (4.864979e-13 -6.195742e-11 6.166324e-11))
537.937991    	((8.524555e-06 -4.745970e-11 2.218049e-11) (6.907202e-06 1.476992e-09 1.475622e-09)) ((4.246431e-14 7.710429e-14 -3.536978e-14) (4.796050e-13 -6.425564e-11 6.388503e-11))
552.587178    	((8.521569e-06 -5.911101e-10 -5.216115e-10) (6.904062e-06 1.367738e-09 1.364630e-09)) ((4.301801e-14 7.428458e-14 -3.612405e-14) (4.739062e-13 -6.651940e-11 6.608095e-11))
567.236997    	((8.518836e-06 -1.130388e-09 -1.060338e-09) (6.901202e-06 1.261922e-09 1.257321e-09)) ((4.356338e-14 7.143071e-14 -3.684322e-14) (4.696093e-13 -6.875515e-11 6.826679e-11))
581.887394    	((8.516322e-06 -1.661973e-09 -1.592152e-09) (6.898596e-06 1.158666e-09 1.152867e-09)) ((4.410812e-14 6.848241e-14 -3.757443e-14) (4.649988e-13 -7.095943e-11 7.043214e-11))
596.538318    	((8.514015e-06 -2.185832e-09 -2.114388e-09) (6.896220e-06 1.057517e-09 1.051255e-09)) ((4.461981e-14 6.559315e-14 -3.827307e-14) (4.639910e-13 -7.312263e-11 7.256174e-11))
611.189726    	((8.511885e-06 -2.710319e-09 -2.631793e-09) (6.894052e-06 9.574785e-10 9.514464e-10)) ((4.513366e-14 6.268431e-14 -3.898220e-14) (4.636508e-13 -7.523856e-11 7.464487e-11))
625.841576    	((8.509929e-06 -3.227217e-09 -3.143071e-09) (6.892073e-06 8.585478e-10 8.530724e-10)) ((4.558860e-14 5.976602e-14 -3.970090e-14) (4.637740e-13 -7.731233e-11 7.668398e-11))
640.493831    	((8.508093e-06 -3.743008e-09 -3.655163e-09) (6.890262e-06 7.603611e-10 7.556446e-10)) ((4.598824e-14 5.672981e-14 -4.039584e-14) (4.653849e-13 -7.934276e-11 7.867715e-11))
655.146458    	((8.506413e-06 -4.252662e-09 -4.164938e-09) (6.888606e-06 6.627303e-10 6.585877e-10)) ((4.642921e-14 5.363245e-14 -4.103892e-14) (4.673595e-13 -8.132088e-11 8.061954e-11))
669.799425    	((8.504862e-06 -4.760572e-09 -4.669949e-09) (6.887091e-06 5.653488e-10 5.616167e-10)) ((4.680896e-14 5.057206e-14 -4.165097e-14) (4.685539e-13 -8.324206e-11 8.250992e-11))
684.452705    	((8.503440e-06 -5.262011e-09 -5.172146e-09) (6.885703e-06 4.681705e-10 4.645021e-10)) ((4.718409e-14 4.749780e-14 -4.226594e-14) (4.702254e-13 -8.510044e-11 8.433478e-11))
699.106271    	((8.502121e-06 -5.752895e-09 -5.663116e-09) (6.884432e-06 3.714281e-10 3.679347e-10)) ((4.751893e-14 4.454726e-14 -4.285811e-14) (4.721701e-13 -8.689477e-11 8.609148e-11))
713.760101    	((8.500910e-06 -6.230176e-09 -6.142165e-09) (6.883268e-06 2.757048e-10 2.722306e-10)) ((4.784103e-14 4.168960e-14 -4.341707e-14) (4.749056e-13 -8.862129e-11 8.777780e-11))
728.414172    	((8.499792e-06 -6.698476e-09 -6.611291e-09) (6.882200e-06 1.809800e-10 1.775068e-10)) ((4.810081e-14 3.891316e-14 -4.396354e-14) (4.772031e-13 -9.027500e-11 8.939215e-11))
743.068465    	((8.498763e-06 -7.148830e-09 -7.064360e-09) (6.881222e-06 8.776612e-11 8.423444e-11)) ((4.833562e-14 3.628058e-14 -4.449841e-14) (4.785249e-13 -9.185785e-11 9.093271e-11))
757.722962    	((8.497823e-06 -7.583781e-09 -7.499654e-09) (6.880326e-06 -3.543282e-12 -7.137988e-12)) ((4.851865e-14 3.379964e-14 -4.501889e-14) (4.793646e-13 -9.336860e-11 9.239997e-11))
772.377646    	((8.496946e-06 -8.005019e-09 -7.923501e-09) (6.879503e-06 -9.288071e-11 -9.657666e-11)) ((4.871860e-14 3.140660e-14 -4.554089e-14) (4.798718e-13 -9.480503e-11 9.379288e-11))
787.032503    	((8.496147e-06 -8.409036e-09 -8.329216e-09) (6.878750e-06 -1.799293e-10 -1.837932e-10)) ((4.890194e-14 2.909849e-14 -4.605635e-14) (4.801055e-13 -9.616541e-11 9.510906e-11))
801.687517    	((8.495408e-06 -8.795278e-09 -8.719117e-09) (6.878059e-06 -2.642939e-10 -2.684921e-10)) ((4.905901e-14 2.689265e-14 -4.656049e-14) (4.799402e-13 -9.745499e-11 9.635428e-11))
816.342678    	((8.494729e-06 -9.164874e-09 -9.092405e-09) (6.877424e-06 -3.457979e-10 -3.504629e-10)) ((4.921606e-14 2.475848e-14 -4.704808e-14) (4.793588e-13 -9.867703e-11 9.753553e-11))
830.997972    	((8.494100e-06 -9.517802e-09 -9.447584e-09) (6.876841e-06 -4.242552e-10 -4.294749e-10)) ((4.935076e-14 2.274384e-14 -4.753859e-14) (4.782621e-13 -9.983364e-11 9.865961e-11))
845.653388    	((8.493522e-06 -9.854355e-09 -9.786763e-09) (6.876306e-06 -4.995008e-10 -5.054065e-10)) ((4.946888e-14 2.081218e-14 -4.802083e-14) (4.769324e-13 -1.009333e-10 9.973428e-11))
860.308918    	((8.492986e-06 -1.017524e-08 -1.011023e-08) (6.875814e-06 -5.714353e-10 -5.781782e-10)) ((4.958332e-14 1.895299e-14 -4.849244e-14) (4.755477e-13 -1.019813e-10 1.007640e-10))
874.964552    	((8.492496e-06 -1.048176e-08 -1.041913e-08) (6.875363e-06 -6.401143e-10 -6.477943e-10)) ((4.969445e-14 1.717369e-14 -4.895096e-14) (4.742474e-13 -1.029831e-10 1.017528e-10))
889.620281    	((8.492040e-06 -1.077546e-08 -1.071436e-08) (6.874947e-06 -7.056943e-10 -7.142714e-10)) ((4.980123e-14 1.545430e-14 -4.940387e-14) (4.729200e-13 -1.039441e-10 1.027034e-10))
904.276098    	((8.491621e-06 -1.105741e-08 -1.099698e-08) (6.874565e-06 -7.683177e-10 -7.776705e-10)) ((4.990492e-14 1.379366e-14 -4.984337e-14) (4.714298e-13 -1.048687e-10 1.036181e-10))
