# Forces      
# CofR        : (0.000000e+00 0.000000e+00 0.000000e+00)
# Time        forces(pressure viscous)	moments(pressure viscous)
0             	((0.000000e+00 0.000000e+00 0.000000e+00) (0.000000e+00 0.000000e+00 0.000000e+00)) ((0.000000e+00 0.000000e+00 0.000000e+00) (0.000000e+00 0.000000e+00 0.000000e+00))
0.012         	((4.130530e-08 1.834367e-06 6.151122e-09) (1.931105e-09 4.817238e-08 -1.714536e-10)) ((-7.100889e-13 1.545368e-13 -4.339088e-08) (2.192060e-13 -3.698245e-12 -5.566950e-05))
0.0264        	((2.243317e-08 3.208484e-07 4.687318e-09) (3.646833e-09 6.852103e-08 -3.523090e-10)) ((-5.755346e-13 -4.551103e-12 -2.241913e-08) (-1.259800e-12 -1.033907e-11 -5.102181e-05))
0.04368       	((1.030357e-07 1.031050e-06 2.518653e-08) (5.447700e-09 7.234102e-08 -6.300779e-10)) ((-1.688175e-12 -6.676864e-12 -1.528205e-08) (-5.026394e-12 -2.078134e-11 -4.634328e-05))
0.064416      	((3.476227e-08 1.100976e-07 -3.667934e-09) (9.478339e-09 6.497190e-08 -9.941529e-10)) ((-1.264567e-13 -7.341808e-12 -1.158217e-08) (-7.638504e-12 -3.598763e-11 -4.181623e-05))
0.0892992     	((1.191632e-07 5.960522e-07 8.064181e-09) (1.617385e-08 5.732379e-08 -1.468077e-09)) ((1.399524e-13 -9.150041e-12 -1.050702e-08) (-1.035457e-12 -4.919721e-11 -3.763091e-05))
0.119159      	((-1.004189e-07 8.101861e-09 -2.687433e-09) (2.346520e-08 4.635104e-08 -1.714030e-09)) ((2.989846e-12 -9.248471e-12 -9.001940e-09) (2.593838e-12 -5.606000e-11 -3.391848e-05))
0.154991      	((8.589382e-09 4.062300e-07 -4.441143e-10) (2.962601e-08 3.165229e-08 -1.685002e-09)) ((3.470380e-12 -8.480727e-12 -8.033730e-09) (-2.420382e-12 -5.965607e-11 -3.070855e-05))
0.197989      	((-2.853717e-08 1.418085e-07 -9.623385e-09) (3.327857e-08 1.624993e-08 -1.653646e-09)) ((3.204305e-12 -6.989089e-12 -7.123755e-09) (-5.202035e-12 -6.044988e-11 -2.792849e-05))
0.249587      	((-1.356391e-07 2.070003e-07 -3.129422e-09) (3.575171e-08 5.196192e-09 -1.691230e-09)) ((6.449249e-13 -7.250463e-12 -6.347288e-09) (3.647607e-13 -5.932010e-11 -2.539833e-05))
0.311504      	((-1.808523e-07 1.723157e-07 -6.539988e-10) (4.083330e-08 7.686919e-09 -1.848056e-09)) ((-3.787802e-12 -4.701852e-12 -5.617895e-09) (4.550803e-12 -5.010361e-11 -2.298049e-05))
0.385805      	((-8.952100e-08 2.784388e-07 -7.993958e-09) (4.176042e-08 1.974926e-08 -1.612912e-09)) ((-3.877847e-12 -4.128990e-12 -4.896039e-09) (-8.139763e-12 -3.030859e-11 -2.067395e-05))
0.474966      	((-1.247859e-07 1.382106e-07 -1.281847e-08) (3.715169e-08 3.030071e-08 -1.267881e-09)) ((-3.913972e-12 -1.602619e-12 -4.228690e-09) (-1.394179e-11 -1.379627e-11 -1.852383e-05))
0.581959      	((7.030626e-09 2.518817e-07 -2.430648e-08) (2.191048e-08 3.942513e-08 -1.072028e-09)) ((-3.792977e-12 -1.396312e-12 -3.590785e-09) (-1.058678e-12 -7.570929e-12 -1.657126e-05))
0.710351      	((-6.269386e-08 3.100551e-07 -1.236786e-08) (8.784290e-11 4.438529e-08 -1.931037e-09)) ((-7.572820e-12 -4.750398e-12 -3.055219e-09) (3.393246e-11 -1.702319e-11 -1.483838e-05))
0.864421      	((-8.030555e-08 3.426005e-07 4.484252e-09) (-1.131852e-08 3.343050e-08 -2.708406e-09)) ((-8.110436e-12 -9.634936e-12 -2.598024e-09) (6.003747e-11 -4.414530e-11 -1.331508e-05))
1.049306      	((-6.427398e-08 2.261563e-07 1.126763e-08) (-1.163596e-08 2.406106e-08 -2.462747e-09)) ((-1.599735e-11 -1.418431e-11 -2.218575e-09) (4.095653e-11 -5.881374e-11 -1.197686e-05))
1.271167      	((-3.118674e-08 2.744390e-07 1.628759e-08) (-1.606458e-10 2.251157e-08 -1.541635e-09)) ((-1.882056e-11 -1.971891e-11 -1.918471e-09) (1.244063e-11 -4.388268e-11 -1.080684e-05))
1.5374        	((-1.152094e-07 1.676689e-07 8.072993e-09) (-5.119491e-09 2.506530e-08 -3.238104e-09)) ((-2.045426e-11 -2.089284e-11 -1.653514e-09) (3.049328e-11 3.891900e-13 -9.795052e-06))
1.85688       	((-7.672546e-08 3.035878e-07 1.423786e-09) (-2.284011e-08 3.091439e-08 -4.994635e-09)) ((-1.482971e-11 -1.423486e-11 -1.411477e-09) (1.447963e-10 4.369752e-11 -8.929355e-06))
2.240256      	((-1.434614e-07 2.602204e-07 3.876221e-09) (-5.360721e-08 3.861428e-08 -3.692239e-09)) ((-1.228240e-11 -5.158411e-12 -1.212576e-09) (2.259814e-10 1.185466e-10 -8.192734e-06))
2.700307      	((-6.201172e-08 1.740706e-07 1.112792e-08) (-7.775700e-08 3.599967e-08 -3.556844e-09)) ((-1.193540e-11 -7.017131e-12 -1.042283e-09) (2.326140e-10 2.609339e-10 -7.564005e-06))
3.252369      	((-2.475924e-08 7.985989e-08 1.546825e-08) (-7.546481e-08 3.773742e-08 -5.945641e-09)) ((-8.227004e-12 -3.139461e-12 -9.080203e-10) (3.128968e-10 4.145479e-10 -7.021195e-06))
3.914842      	((5.076630e-08 1.098659e-07 1.664986e-08) (-3.224615e-08 5.801108e-08 -9.384773e-09)) ((-3.849581e-12 -4.341103e-12 -7.904690e-10) (4.773626e-10 5.083539e-10 -6.545873e-06))
4.709811      	((7.460566e-08 1.797529e-08 1.176797e-08) (-8.139826e-11 6.346789e-08 -8.923914e-09)) ((-1.490647e-12 -5.104614e-12 -6.920262e-10) (6.144587e-10 5.691685e-10 -6.125303e-06))
5.663773      	((1.327060e-07 7.497108e-08 8.932324e-09) (2.305064e-08 5.416409e-08 -6.752114e-09)) ((-3.662882e-12 -9.550972e-12 -6.216678e-10) (7.523670e-10 5.008503e-10 -5.751279e-06))
6.808528      	((1.206484e-07 5.022579e-08 -1.544226e-08) (3.693588e-08 7.961118e-08 -9.214842e-09)) ((-3.666161e-12 -7.536191e-12 -5.741757e-10) (8.369183e-10 3.096909e-10 -5.417055e-06))
8.168589      	((9.944766e-08 1.144880e-07 -3.131027e-08) (9.972605e-09 9.986725e-08 -9.554372e-09)) ((-3.051361e-12 -1.026639e-11 -5.419550e-10) (8.226447e-10 1.468913e-10 -5.120898e-06))
9.747976      	((1.213929e-08 9.261091e-08 -3.003355e-08) (-1.530597e-08 7.954621e-08 -5.884327e-09)) ((-2.046615e-12 -1.114595e-11 -5.154180e-10) (8.151516e-10 1.614409e-11 -4.864259e-06))
11.551345     	((1.183175e-08 7.824867e-08 -2.529747e-08) (-4.644042e-08 5.358556e-08 -3.562543e-09)) ((-3.278476e-12 -1.246267e-11 -4.958473e-10) (7.752818e-10 -1.658355e-10 -4.648438e-06))
13.58389      	((-8.268346e-09 5.445009e-08 -2.110059e-08) (-4.626143e-08 4.316358e-08 -2.550889e-09)) ((-3.575088e-12 -1.355283e-11 -4.874268e-10) (6.264185e-10 -3.505066e-10 -4.473219e-06))
15.851734     	((3.733530e-08 4.902680e-08 -2.062718e-08) (-8.949323e-09 5.225928e-08 1.150207e-10)) ((-6.774537e-12 -1.564132e-11 -4.777858e-10) (4.970234e-10 -5.016527e-10 -4.336333e-06))
18.267773     	((3.395076e-08 5.629279e-08 -1.191403e-08) (9.064343e-09 4.367539e-08 4.196308e-10)) ((-1.006991e-11 -1.543977e-11 -4.709060e-10) (3.504298e-10 -6.207912e-10 -4.238143e-06))
20.752331     	((2.482852e-08 7.222889e-08 -5.100326e-09) (8.302256e-09 4.075257e-08 7.277323e-10)) ((-9.966970e-12 -1.418077e-11 -4.681637e-10) (2.087331e-10 -6.750000e-10 -4.175752e-06))
23.263198     	((6.754854e-09 4.960544e-08 6.431831e-10) (-1.013002e-08 2.752086e-08 2.040036e-09)) ((-8.502925e-12 -1.325079e-11 -4.637661e-10) (1.067283e-10 -6.469278e-10 -4.145701e-06))
25.774488     	((2.060202e-08 6.290101e-08 3.810368e-09) (-7.759162e-09 2.947482e-08 5.768013e-09)) ((-4.678667e-12 -1.470590e-11 -4.584487e-10) (7.768208e-11 -5.229902e-10 -4.144878e-06))
28.272171     	((4.827552e-08 8.299495e-08 4.528946e-10) (-1.657721e-09 3.145985e-08 7.820552e-09)) ((-1.769807e-12 -1.437622e-11 -4.551112e-10) (1.125755e-10 -3.747015e-10 -4.170708e-06))
30.744007     	((8.667608e-08 8.833261e-08 -2.225306e-09) (-2.467378e-08 1.962891e-09 6.655777e-09)) ((2.492507e-13 -1.368049e-11 -4.545927e-10) (2.080585e-10 -2.900762e-10 -4.220985e-06))
33.181136     	((9.513132e-08 7.982309e-08 -5.089334e-09) (-2.422640e-08 -4.170273e-09 6.183474e-09)) ((-4.499436e-13 -1.275765e-11 -4.546156e-10) (3.192361e-10 -3.261959e-10 -4.293286e-06))
35.579489     	((6.970098e-08 8.012985e-08 -4.567755e-09) (1.328175e-09 -7.178307e-09 5.448497e-09)) ((-3.695929e-13 -1.179478e-11 -4.569410e-10) (4.252941e-10 -4.321154e-10 -4.384433e-06))
37.937964     	((4.984774e-08 7.891921e-08 -6.257540e-09) (1.895475e-08 -1.817060e-08 4.539547e-09)) ((-9.581060e-13 -1.063541e-11 -4.629118e-10) (4.906204e-10 -5.660506e-10 -4.489033e-06))
40.258347     	((7.405266e-10 5.836790e-08 -8.530868e-09) (1.914387e-08 -2.080786e-08 4.208156e-09)) ((-2.110101e-12 -1.003628e-11 -4.734188e-10) (4.492747e-10 -6.896862e-10 -4.599246e-06))
42.544199     	((-7.025255e-08 3.788170e-08 -6.054909e-09) (6.601224e-09 -2.525912e-08 5.443464e-09)) ((-8.773717e-13 -1.164419e-11 -4.824768e-10) (3.338684e-10 -7.515258e-10 -4.705607e-06))
44.79963      	((-1.165371e-07 3.711449e-08 2.986819e-09) (-5.900304e-09 -5.417896e-08 7.523887e-09)) ((2.152802e-12 -1.256842e-11 -4.985279e-10) (1.859427e-10 -8.155338e-10 -4.798883e-06))
47.029185     	((-1.540280e-07 1.557378e-08 1.532774e-08) (-1.509052e-08 -5.691023e-08 1.113846e-08)) ((2.289192e-12 -1.355676e-11 -5.139700e-10) (9.367230e-11 -8.051163e-10 -4.871686e-06))
49.224951     	((-1.247701e-07 4.331573e-08 2.623998e-08) (7.026169e-10 -3.001489e-08 1.140408e-08)) ((1.935713e-12 -1.486659e-11 -5.237489e-10) (-1.553724e-11 -7.276263e-10 -4.919722e-06))
51.376127     	((-1.039781e-07 3.477921e-08 1.054957e-08) (3.009034e-08 -1.755776e-08 9.668807e-09)) ((2.161324e-13 -1.741255e-11 -5.276434e-10) (-8.350914e-11 -5.586620e-10 -4.943641e-06))
53.494463     	((-8.271213e-08 2.362620e-08 2.318217e-08) (4.209278e-08 6.240136e-09 7.727501e-09)) ((-2.241133e-12 -1.931326e-11 -5.258540e-10) (-4.523095e-11 -3.718610e-10 -4.947690e-06))
55.58824      	((-6.062828e-08 3.489087e-08 3.387780e-08) (2.922617e-08 1.765371e-08 6.950884e-09)) ((-3.378652e-12 -2.026312e-11 -5.209409e-10) (-9.459414e-12 -1.931450e-10 -4.937298e-06))
57.665206     	((-6.700280e-08 -2.830651e-08 2.426528e-08) (3.084186e-08 1.590526e-08 7.963018e-09)) ((-3.831347e-12 -2.275208e-11 -5.164337e-10) (4.467087e-11 -3.316728e-11 -4.917937e-06))
59.731953     	((1.791804e-08 2.099408e-08 9.407017e-09) (3.512136e-08 7.547828e-09 7.212975e-09)) ((-5.299919e-12 -2.278817e-11 -5.103348e-10) (1.644960e-10 2.083720e-11 -4.893441e-06))
