# Forces      
# CofR        : (0.000000e+00 0.000000e+00 0.000000e+00)
# Time        forces(pressure viscous)	moments(pressure viscous)
0             	((0.000000e+00 0.000000e+00 0.000000e+00) (0.000000e+00 0.000000e+00 0.000000e+00)) ((0.000000e+00 0.000000e+00 0.000000e+00) (0.000000e+00 0.000000e+00 0.000000e+00))
0.012         	((3.399337e-12 -5.683599e-12 -1.365838e-09) (4.105656e-15 -2.997220e-14 -2.868812e-11)) ((6.163610e-16 -5.312998e-11 2.817361e-17) (-7.263083e-17 -3.509762e-08 2.074662e-15))
0.0264        	((-5.715277e-12 6.032556e-12 5.135069e-10) (4.888663e-15 -8.482940e-14 -4.988670e-11)) ((1.308962e-16 -2.659426e-11 -2.586180e-15) (-9.564277e-16 -3.214668e-08 2.929074e-15))
0.04368       	((-2.005349e-11 -3.270603e-11 -4.757620e-10) (-5.228288e-14 -6.363939e-14 -5.407781e-11)) ((-4.823414e-16 -1.466698e-11 -1.682480e-15) (1.602497e-15 -2.911416e-08 4.218770e-15))
0.064416      	((5.817231e-12 9.000495e-12 -1.790494e-11) (-1.625534e-13 4.675190e-14 -4.470665e-11)) ((-1.151187e-17 -8.348087e-12 1.174057e-16) (5.394726e-15 -2.606626e-08 5.489073e-15))
0.0892992     	((-1.715589e-11 -1.008992e-11 -5.957657e-11) (-2.449281e-13 1.599887e-13 -3.714612e-11)) ((1.241662e-16 -6.198117e-12 1.287643e-17) (7.397154e-15 -2.309182e-08 5.656708e-15))
0.119159      	((7.143373e-12 2.704979e-12 -1.570313e-11) (-2.983328e-13 2.786336e-13 -3.148957e-11)) ((-8.929389e-17 -4.446525e-12 2.673274e-17) (9.956345e-15 -2.028236e-08 6.460206e-15))
0.154991      	((5.637987e-12 6.452721e-12 3.899445e-11) (-3.498835e-13 4.365006e-13 -2.536470e-11)) ((7.639029e-17 -3.512932e-12 -2.688861e-16) (1.324753e-14 -1.770258e-08 7.943061e-15))
0.197989      	((4.371058e-12 4.333964e-12 -4.166514e-12) (-3.731292e-13 5.638626e-13 -1.980961e-11)) ((1.179006e-16 -2.792321e-12 -2.692529e-16) (1.485417e-14 -1.541546e-08 9.138021e-15))
0.249587      	((-5.370627e-13 4.453257e-12 3.765847e-11) (-3.588060e-13 6.346726e-13 -1.564928e-11)) ((1.864600e-16 -2.301777e-12 5.798894e-17) (1.443623e-14 -1.345501e-08 7.941097e-15))
0.311504      	((3.105977e-13 -1.089463e-12 7.175521e-12) (-3.263802e-13 6.891145e-13 -1.218626e-11)) ((1.480975e-16 -1.915980e-12 2.676664e-16) (1.368291e-14 -1.181656e-08 5.405896e-15))
0.385805      	((2.191267e-12 -3.794024e-12 -2.260519e-13) (-2.922505e-13 7.079266e-13 -9.327260e-12)) ((4.641261e-17 -1.642686e-12 4.319391e-16) (1.343995e-14 -1.046478e-08 4.284459e-15))
0.474966      	((4.615912e-12 1.065466e-12 -8.137705e-12) (-2.413026e-13 7.548776e-13 -6.616485e-12)) ((4.391585e-17 -1.463023e-12 3.468219e-16) (1.275183e-14 -9.346500e-09 1.371249e-15))
0.581959      	((7.701379e-12 4.342487e-12 8.271996e-12) (-1.669417e-13 7.900411e-13 -4.355619e-12)) ((7.677086e-17 -1.310272e-12 1.266174e-16) (1.214376e-14 -8.406452e-09 -2.699650e-15))
0.710351      	((1.083445e-11 6.092284e-12 -1.852404e-11) (-1.808441e-13 5.649891e-13 -3.886680e-12)) ((1.843571e-16 -1.163261e-12 1.183582e-16) (9.303925e-15 -7.598895e-09 7.027674e-16))
0.864421      	((1.148353e-11 5.148868e-12 -9.181721e-12) (-2.067664e-13 -6.344266e-14 -3.664902e-12)) ((2.578400e-16 -1.064113e-12 -1.725538e-16) (3.368657e-15 -6.891397e-09 1.006915e-14))
1.049306      	((1.797616e-11 4.866646e-12 8.755532e-13) (-3.922982e-13 -6.322764e-13 -2.322873e-12)) ((3.905798e-16 -1.000986e-12 -1.503911e-16) (-3.575231e-15 -6.262587e-09 1.596692e-14))
1.271167      	((2.270535e-11 4.041794e-12 -1.824304e-11) (-7.449472e-13 -9.215613e-13 -1.003989e-12)) ((1.473935e-16 -9.363332e-13 -2.873728e-16) (-1.330425e-14 -5.698074e-09 1.281332e-14))
1.5374        	((2.336067e-11 -1.782112e-12 -2.158293e-11) (-1.244173e-12 -1.014870e-12 7.268332e-13)) ((-2.742105e-16 -8.611915e-13 -4.391844e-16) (-2.743048e-14 -5.188486e-09 2.809055e-15))
1.85688       	((2.223379e-11 2.656694e-12 -1.501104e-11) (-1.886342e-12 -1.113350e-12 3.394944e-12)) ((-5.255481e-16 -7.948264e-13 -2.017937e-16) (-4.910586e-14 -4.728748e-09 -1.776399e-14))
2.240256      	((2.081621e-11 1.242381e-12 -1.901445e-11) (-2.785884e-12 -9.301706e-13 5.135676e-12)) ((-5.469879e-16 -7.519146e-13 -1.367569e-16) (-6.862355e-14 -4.316237e-09 -4.425967e-14))
2.700307      	((1.946167e-11 2.785929e-13 -1.604615e-11) (-4.412980e-12 -5.826913e-13 6.048940e-12)) ((-5.059139e-16 -7.208450e-13 -1.848730e-16) (-9.905130e-14 -3.949089e-09 -9.867031e-14))
3.252369      	((1.472532e-11 1.374579e-12 -1.068978e-11) (-6.474703e-12 -3.093122e-13 9.385871e-12)) ((-6.029325e-16 -6.896494e-13 -2.908568e-16) (-1.393102e-13 -3.624797e-09 -1.649140e-13))
3.914842      	((6.201171e-12 1.235942e-12 -3.517658e-12) (-8.419340e-12 5.937068e-14 1.476231e-11)) ((-2.860058e-16 -6.535065e-13 -4.885545e-16) (-1.687480e-13 -3.339566e-09 -1.976193e-13))
4.709811      	((2.694384e-12 1.260667e-13 2.423230e-12) (-1.055230e-11 5.403708e-13 1.690205e-11)) ((-3.770914e-16 -6.134078e-13 -4.085729e-16) (-1.930040e-13 -3.088087e-09 -2.237316e-13))
5.663773      	((-1.704733e-13 1.035565e-12 -4.333659e-12) (-1.186145e-11 4.927466e-13 1.583367e-11)) ((-3.563076e-16 -5.698771e-13 -1.336649e-16) (-2.040564e-13 -2.864446e-09 -2.263134e-13))
6.808528      	((-2.951359e-12 1.797053e-12 -8.191760e-13) (-1.178169e-11 1.681178e-13 1.526372e-11)) ((-3.888001e-16 -5.254384e-13 1.851289e-16) (-1.951927e-13 -2.663391e-09 -2.044614e-13))
8.182233      	((-4.103070e-12 1.148607e-14 7.438025e-13) (-1.092402e-11 2.626110e-13 1.401320e-11)) ((-3.321485e-16 -4.822745e-13 1.312999e-16) (-1.712839e-13 -2.480858e-09 -1.873613e-13))
9.83068       	((-4.451046e-12 2.113840e-12 -1.098401e-12) (-9.445185e-12 4.080915e-13 1.069885e-11)) ((-2.554764e-16 -4.380571e-13 1.263070e-16) (-1.410294e-13 -2.313765e-09 -1.621340e-13))
11.808816     	((4.662714e-13 1.039149e-12 -3.944036e-12) (-7.428133e-12 -4.384641e-14 6.660261e-12)) ((-2.838116e-16 -3.982497e-13 2.350119e-16) (-1.154196e-13 -2.159970e-09 -1.207516e-13))
14.182579     	((1.444562e-12 1.493475e-12 -5.908874e-12) (-5.386779e-12 -1.002648e-12 4.481090e-12)) ((-2.926448e-16 -3.619042e-13 2.955462e-16) (-8.973703e-14 -2.018241e-09 -6.662140e-14))
17.031095     	((1.928825e-12 1.925404e-12 -4.559668e-12) (-3.648380e-12 -1.220690e-12 3.016579e-12)) ((-1.505175e-16 -3.306905e-13 3.347311e-16) (-6.012837e-14 -1.887933e-09 -3.126272e-14))
20.449314     	((2.100104e-12 1.265282e-12 -5.682698e-12) (-2.282677e-12 -7.890757e-13 1.799841e-12)) ((-1.602587e-16 -3.030067e-13 3.909990e-16) (-3.286956e-14 -1.768631e-09 -2.184518e-14))
24.551176     	((2.489062e-12 4.945762e-13 -5.033018e-12) (-1.405652e-12 -4.035890e-13 1.539119e-12)) ((-1.571713e-16 -2.783904e-13 4.010664e-16) (-1.606866e-14 -1.659618e-09 -1.834304e-14))
29.473411     	((2.195656e-12 8.177777e-13 -5.555911e-12) (-9.596142e-13 -1.939597e-13 1.939835e-12)) ((-8.536166e-17 -2.577533e-13 3.573759e-16) (-8.853128e-15 -1.560139e-09 -1.523767e-14))
35.380094     	((2.771777e-12 6.428425e-13 -5.229620e-12) (-7.437827e-13 2.176951e-14 2.380060e-12)) ((-7.465503e-17 -2.395024e-13 3.427096e-16) (-4.860110e-15 -1.469380e-09 -1.293838e-14))
42.468112     	((2.425314e-12 5.124197e-13 -4.466311e-12) (-6.810535e-13 1.161372e-13 2.570172e-12)) ((-9.074549e-17 -2.238034e-13 2.611835e-16) (-3.824905e-15 -1.386566e-09 -1.531238e-14))
50.973735     	((2.049873e-12 4.148939e-13 -3.699958e-12) (-8.034555e-13 2.059684e-13 2.440439e-12)) ((-8.938545e-17 -2.098224e-13 2.097045e-16) (-5.980609e-15 -1.311077e-09 -2.143867e-14))
61.180482     	((2.100565e-12 2.749734e-13 -3.947975e-12) (-9.524362e-13 2.491945e-13 2.165488e-12)) ((-6.751755e-17 -1.972419e-13 1.870642e-16) (-1.172905e-14 -1.242355e-09 -2.979324e-14))
73.428578     	((1.496970e-12 9.217572e-14 -2.677225e-12) (-1.092476e-12 2.069698e-13 2.099514e-12)) ((-3.719854e-17 -1.860916e-13 1.488486e-16) (-1.727198e-14 -1.179946e-09 -3.522201e-14))
88.126294     	((1.124336e-12 2.895744e-13 -3.159428e-12) (-1.296114e-12 1.855249e-13 2.168664e-12)) ((-8.853640e-19 -1.760293e-13 9.350459e-17) (-2.053411e-14 -1.123376e-09 -3.839104e-14))
105.763553    	((9.202100e-13 1.723976e-13 -2.410403e-12) (-1.543929e-12 1.419966e-13 2.362791e-12)) ((5.166958e-17 -1.665130e-13 6.633626e-17) (-2.329829e-14 -1.072192e-09 -4.192352e-14))
126.928263    	((6.739778e-13 1.712741e-13 -2.204740e-12) (-1.762751e-12 1.114830e-13 2.437545e-12)) ((9.946876e-17 -1.578616e-13 5.278195e-17) (-2.410326e-14 -1.025923e-09 -4.424094e-14))
152.325916    	((4.395853e-13 9.917349e-14 -1.611413e-12) (-1.765101e-12 7.791558e-14 2.428784e-12)) ((1.069994e-16 -1.501526e-13 6.237680e-17) (-2.436163e-14 -9.840823e-10 -4.494396e-14))
182.803099    	((-4.795468e-14 1.489571e-13 -1.378142e-12) (-1.622407e-12 7.930882e-14 2.457119e-12)) ((1.045524e-16 -1.432106e-13 7.107512e-17) (-2.552631e-14 -9.461783e-10 -4.608007e-14))
219.375719    	((-3.123581e-13 7.800722e-14 -3.694799e-13) (-1.407449e-12 3.878295e-14 2.762208e-12)) ((1.156977e-16 -1.368897e-13 7.554773e-17) (-2.630762e-14 -9.117535e-10 -4.556140e-14))
263.262863    	((-2.447222e-13 1.396411e-13 -1.895161e-13) (-1.303168e-12 -1.681851e-14 3.174322e-12)) ((1.045410e-16 -1.311254e-13 7.079022e-17) (-2.768677e-14 -8.804410e-10 -4.377672e-14))
315.927436    	((-1.047580e-13 1.004209e-13 5.821910e-14) (-1.317243e-12 -7.045713e-14 3.527484e-12)) ((8.060543e-17 -1.259095e-13 5.558523e-17) (-3.035294e-14 -8.519556e-10 -4.354349e-14))
379.124923    	((-1.776947e-13 1.169888e-13 3.656289e-13) (-1.262765e-12 -7.325560e-14 3.896798e-12)) ((5.567303e-17 -1.211658e-13 3.525654e-17) (-3.133337e-14 -8.260622e-10 -4.385734e-14))
454.961908    	((8.458915e-15 5.777194e-14 3.998855e-13) (-1.231751e-12 -6.632417e-14 4.229907e-12)) ((3.173159e-17 -1.168340e-13 1.063426e-17) (-3.120655e-14 -8.025827e-10 -4.344296e-14))
545.966289    	((1.579732e-13 6.971763e-14 4.729431e-13) (-1.272456e-12 -5.943530e-14 4.471528e-12)) ((1.274973e-17 -1.128550e-13 -5.851105e-18) (-3.023805e-14 -7.813463e-10 -4.221575e-14))
655.171547    	((4.071778e-13 5.637828e-14 5.222751e-13) (-1.308794e-12 -6.374198e-14 4.561315e-12)) ((7.385493e-19 -1.092402e-13 -1.629554e-17) (-2.881617e-14 -7.622098e-10 -4.071964e-14))
786.217856    	((4.841894e-13 7.222923e-14 4.242130e-13) (-1.255479e-12 -4.342430e-14 4.498589e-12)) ((-6.406923e-18 -1.059886e-13 -2.382563e-17) (-2.695116e-14 -7.450437e-10 -3.915515e-14))
943.473427    	((3.626682e-13 6.944990e-14 2.832440e-13) (-1.173335e-12 -3.362755e-14 4.399356e-12)) ((-1.316476e-17 -1.031120e-13 -1.924102e-17) (-2.541822e-14 -7.297099e-10 -3.654949e-14))
1132.180113   	((-6.417793e-14 8.514285e-14 1.815271e-13) (-1.125261e-12 -4.511687e-14 4.266202e-12)) ((-1.819099e-17 -1.005404e-13 -1.477966e-17) (-2.424550e-14 -7.160811e-10 -3.376320e-14))
1358.628135   	((-6.532679e-14 8.015649e-14 3.000650e-14) (-1.083800e-12 -7.474786e-14 4.117134e-12)) ((-2.425760e-17 -9.824431e-14 -1.703497e-18) (-2.324644e-14 -7.040323e-10 -3.129778e-14))
1630.365763   	((-1.164424e-13 2.480797e-14 -7.158136e-14) (-1.033664e-12 -1.003877e-13 4.029816e-12)) ((-2.719697e-17 -9.624093e-14 7.875313e-18) (-2.215706e-14 -6.934371e-10 -2.899730e-14))
1956.450915   	((-8.933697e-14 1.350624e-14 -1.747303e-13) (-9.833115e-13 -1.144882e-13 3.991792e-12)) ((-2.611489e-17 -9.452103e-14 1.713560e-17) (-2.119650e-14 -6.841730e-10 -2.731207e-14))
2347.753098   	((1.977384e-14 3.236851e-14 -2.882711e-13) (-9.121422e-13 -1.173756e-13 3.976462e-12)) ((-2.564939e-17 -9.302782e-14 2.435909e-17) (-2.030143e-14 -6.761220e-10 -2.575533e-14))
2817.315718   	((1.605992e-13 2.221685e-14 -3.949730e-13) (-8.209136e-13 -1.179722e-13 3.970927e-12)) ((-2.408193e-17 -9.174457e-14 2.439964e-17) (-1.988653e-14 -6.691681e-10 -2.442185e-14))
3380.790861   	((2.418567e-13 -1.661128e-14 -3.876112e-13) (-7.292665e-13 -1.248636e-13 3.969852e-12)) ((-2.453653e-17 -9.067305e-14 1.851041e-17) (-1.957598e-14 -6.632020e-10 -2.303232e-14))
4056.961033   	((3.680909e-13 -1.083948e-14 -3.709440e-13) (-6.495934e-13 -1.348767e-13 3.973383e-12)) ((-3.078909e-17 -8.977050e-14 5.152463e-18) (-1.888993e-14 -6.581180e-10 -2.129611e-14))
4868.36524    	((3.807739e-13 -1.775736e-14 -2.274934e-13) (-5.529917e-13 -1.458072e-13 3.955272e-12)) ((-3.432234e-17 -8.899392e-14 3.414351e-18) (-1.820043e-14 -6.538153e-10 -1.960996e-14))
5842.050288   	((3.272035e-13 -4.269219e-14 4.368554e-14) (-4.424978e-13 -1.629452e-13 3.922055e-12)) ((-3.460027e-17 -8.832148e-14 5.169824e-18) (-1.724768e-14 -6.501982e-10 -1.788238e-14))
7010.472346   	((2.505264e-13 -3.709853e-14 2.202258e-13) (-3.714244e-13 -1.754792e-13 3.896429e-12)) ((-3.670116e-17 -8.775772e-14 7.283546e-18) (-1.632081e-14 -6.471794e-10 -1.620571e-14))
8412.578815   	((2.006434e-13 -2.705704e-14 2.862999e-13) (-3.323504e-13 -1.830294e-13 3.878406e-12)) ((-3.969912e-17 -8.729718e-14 9.408397e-18) (-1.557846e-14 -6.446773e-10 -1.479160e-14))
10095.106578  	((1.644314e-13 -6.115717e-14 4.192895e-13) (-2.963823e-13 -1.884268e-13 3.868459e-12)) ((-4.059107e-17 -8.688818e-14 1.787727e-17) (-1.503004e-14 -6.426171e-10 -1.376089e-14))
12114.139893  	((1.752902e-13 -4.695523e-14 4.561874e-13) (-2.721698e-13 -1.984503e-13 3.853287e-12)) ((-4.165094e-17 -8.657989e-14 2.397657e-17) (-1.485030e-14 -6.409302e-10 -1.332065e-14))
14536.979872  	((1.734953e-13 -3.905034e-14 4.799334e-13) (-2.596249e-13 -2.077010e-13 3.831122e-12)) ((-4.289260e-17 -8.632017e-14 2.589669e-17) (-1.473130e-14 -6.395563e-10 -1.267207e-14))
17366.279526  	((2.128033e-13 -7.525864e-14 5.515616e-13) (-2.558131e-13 -2.199692e-13 3.803858e-12)) ((-3.858616e-17 -8.610240e-14 2.835558e-17) (-1.485297e-14 -6.384429e-10 -1.173900e-14))
20602.048493  	((2.355708e-13 6.354481e-14 5.805520e-13) (-2.420384e-13 -2.297276e-13 3.775118e-12)) ((-5.173818e-17 -8.590787e-14 2.071042e-17) (-1.498761e-14 -6.375456e-10 -1.126069e-14))
24244.294472  	((2.515905e-13 8.404508e-14 5.408730e-13) (-2.455244e-13 -2.336502e-13 3.754148e-12)) ((-5.067292e-17 -8.577519e-14 9.673475e-18) (-1.515981e-14 -6.368250e-10 -1.066940e-14))
28293.023587  	((3.228190e-13 1.529788e-13 4.685702e-13) (-2.588363e-13 -2.380703e-13 3.729106e-12)) ((-3.847120e-17 -8.563945e-14 2.290132e-17) (-1.497839e-14 -6.362492e-10 -1.008578e-14))
32357.903683  	((4.388700e-13 2.340562e-13 5.086908e-13) (-2.685264e-13 -2.367901e-13 3.701451e-12)) ((-4.884295e-17 -8.552631e-14 2.394130e-17) (-1.481642e-14 -6.357907e-10 -9.684681e-15))
36422.822108  	((4.587949e-13 3.250965e-13 5.796756e-13) (-2.661239e-13 -2.326285e-13 3.671559e-12)) ((-5.136575e-17 -8.543933e-14 2.020016e-17) (-1.447484e-14 -6.354262e-10 -9.277879e-15))
40487.771     	((4.300820e-13 4.045596e-13 5.997016e-13) (-2.569866e-13 -2.254770e-13 3.656666e-12)) ((-5.055137e-17 -8.537433e-14 2.037084e-17) (-1.425316e-14 -6.351371e-10 -8.826053e-15))
44552.743945  	((3.995933e-13 4.760025e-13 6.592016e-13) (-2.520749e-13 -2.199565e-13 3.645784e-12)) ((-4.968227e-17 -8.531420e-14 2.227717e-17) (-1.401939e-14 -6.349076e-10 -8.503193e-15))
48617.736016  	((2.937906e-13 6.049160e-13 4.975120e-13) (-2.554011e-13 -2.157781e-13 3.629119e-12)) ((-4.317458e-17 -8.527686e-14 1.023294e-17) (-1.385218e-14 -6.347258e-10 -8.224894e-15))
52682.743212  	((1.798534e-13 5.372542e-13 5.716904e-13) (-2.514059e-13 -2.053608e-13 3.628640e-12)) ((-5.595359e-17 -8.524863e-14 3.096398e-17) (-1.385967e-14 -6.345816e-10 -8.032778e-15))
56747.762313  	((7.608048e-14 6.204339e-13 6.652270e-13) (-2.563531e-13 -2.070102e-13 3.625335e-12)) ((-4.510426e-17 -8.518131e-14 3.207120e-17) (-1.388764e-14 -6.344674e-10 -7.986549e-15))
60812.790842  	((9.336551e-14 6.528019e-13 7.983941e-13) (-2.557109e-13 -1.993390e-13 3.633335e-12)) ((-7.234817e-17 -8.512204e-14 3.841612e-17) (-1.330588e-14 -6.343780e-10 -8.216691e-15))
64877.826848  	((-1.020574e-13 6.742899e-13 9.077449e-13) (-2.843413e-13 -2.044513e-13 3.657467e-12)) ((-5.195183e-17 -8.503685e-14 2.573335e-17) (-1.284871e-14 -6.343085e-10 -8.564636e-15))
68942.868839  	((-1.753707e-13 8.154596e-13 1.067426e-12) (-2.874476e-13 -2.046429e-13 3.676204e-12)) ((-3.141285e-17 -8.499143e-14 1.201963e-17) (-1.299627e-14 -6.342540e-10 -7.728770e-15))
73007.915615  	((-3.908466e-13 8.356663e-13 1.153606e-12) (-2.886313e-13 -1.979406e-13 3.677353e-12)) ((-2.371078e-17 -8.493949e-14 2.925409e-17) (-1.408916e-14 -6.342107e-10 -7.221271e-15))
77072.966211  	((-5.300344e-13 1.004509e-12 1.464662e-12) (-2.841605e-13 -1.958845e-13 3.667164e-12)) ((-5.074462e-17 -8.493376e-14 4.498495e-17) (-1.423726e-14 -6.341764e-10 -8.106288e-15))
81138.019862  	((-5.291948e-13 1.037970e-12 1.747097e-12) (-2.719562e-13 -1.842483e-13 3.652738e-12)) ((-4.876223e-17 -8.488934e-14 5.608406e-17) (-1.359066e-14 -6.341489e-10 -8.396775e-15))
85203.075956  	((-6.316510e-13 8.746791e-13 2.026422e-12) (-2.674144e-13 -1.749002e-13 3.652841e-12)) ((-2.812476e-17 -8.490605e-14 4.057178e-17) (-1.313740e-14 -6.341264e-10 -7.959720e-15))
89268.134004  	((-6.687901e-13 9.829964e-13 2.411003e-12) (-2.615213e-13 -1.818763e-13 3.660837e-12)) ((-4.250808e-17 -8.483151e-14 3.589636e-17) (-1.328907e-14 -6.341103e-10 -8.573586e-15))
93333.193634  	((-4.647159e-13 1.005655e-12 2.831540e-12) (-2.472310e-13 -1.772762e-13 3.668044e-12)) ((-4.107309e-17 -8.482982e-14 3.684655e-17) (-1.307496e-14 -6.340959e-10 -8.262417e-15))
