# Forces      
# CofR        : (0.000000e+00 0.000000e+00 0.000000e+00)
# Time        forces(pressure viscous)	moments(pressure viscous)
0             	((0.000000e+00 0.000000e+00 0.000000e+00) (0.000000e+00 0.000000e+00 0.000000e+00)) ((0.000000e+00 0.000000e+00 0.000000e+00) (0.000000e+00 0.000000e+00 0.000000e+00))
0.012         	((9.370520e-10 -1.429007e-07 -2.745366e-10) (1.181138e-11 -3.647937e-09 1.179461e-11)) ((4.108220e-14 -4.250589e-15 3.260060e-09) (-1.316996e-15 3.385074e-13 4.417714e-06))
0.0264        	((2.357757e-09 -2.122917e-08 1.425813e-12) (3.298337e-11 -5.383650e-09 2.141093e-11)) ((-1.338720e-14 3.225158e-13 1.510157e-09) (2.331726e-14 9.126109e-13 4.046902e-06))
0.04368       	((3.060172e-09 -6.764831e-08 -1.094405e-09) (1.569560e-11 -5.714969e-09 3.092197e-11)) ((8.476160e-14 3.831461e-13 8.424808e-10) (6.126247e-14 1.607180e-12 3.666225e-06))
0.064416      	((3.855620e-09 7.894052e-09 7.999880e-10) (-5.422216e-11 -4.997401e-09 5.206051e-11)) ((1.174235e-14 2.226765e-13 4.745836e-10) (1.417945e-13 2.430095e-12 3.284661e-06))
0.0892992     	((2.113069e-09 -3.057859e-08 -9.426870e-10) (-1.265047e-10 -4.238777e-09 8.191694e-11)) ((1.143555e-13 5.010666e-13 3.697385e-10) (3.396650e-13 3.459700e-12 2.913956e-06))
0.119159      	((7.024488e-11 2.789274e-09 -5.728253e-11) (-1.691776e-10 -3.580952e-09 1.064812e-10)) ((5.180814e-14 3.423504e-13 2.883919e-10) (6.414094e-13 4.288740e-12 2.565972e-06))
0.154991      	((-1.112467e-10 -1.610286e-08 -1.002187e-10) (-1.656948e-10 -3.412826e-09 1.215208e-10)) ((7.516112e-14 2.890759e-13 2.435780e-10) (1.024491e-12 4.716329e-12 2.248998e-06))
0.197989      	((-8.186543e-10 -6.123454e-09 -3.212901e-10) (-1.110631e-10 -3.220949e-09 1.254515e-10)) ((7.876414e-14 2.786200e-13 2.015307e-10) (1.099443e-12 4.813597e-12 1.968615e-06))
0.249587      	((-9.783359e-11 -8.344468e-09 -3.287524e-10) (-6.301743e-11 -2.988057e-09 1.261914e-10)) ((4.345672e-14 2.042376e-13 1.674739e-10) (9.333439e-13 4.860521e-12 1.726992e-06))
0.311504      	((1.097530e-09 -8.174621e-09 -3.070172e-10) (-2.231003e-11 -2.775431e-09 1.186068e-10)) ((3.981552e-14 9.821848e-14 1.390964e-10) (6.323005e-13 4.587633e-12 1.522940e-06))
0.385805      	((1.981062e-09 -9.067218e-09 7.286624e-12) (-5.451454e-11 -2.560146e-09 1.118277e-10)) ((3.030388e-14 7.637990e-14 1.180559e-10) (2.908206e-13 4.252977e-12 1.351997e-06))
0.474966      	((-1.251281e-09 -1.058164e-08 -9.583761e-11) (-1.441793e-10 -2.302815e-09 1.229034e-10)) ((5.333930e-14 6.741656e-14 1.025153e-10) (-2.532861e-13 4.278595e-12 1.207937e-06))
0.581959      	((-1.107610e-11 -8.104805e-09 1.252981e-10) (-2.789758e-10 -2.046896e-09 1.244844e-10)) ((-1.020888e-14 -7.536609e-15 8.713005e-11) (-3.469433e-13 3.848021e-12 1.085104e-06))
0.710351      	((2.324554e-09 -6.081271e-09 -1.377458e-10) (-4.115489e-10 -1.566511e-09 1.114058e-10)) ((1.276441e-15 -1.056742e-13 7.182648e-11) (5.287719e-13 3.038023e-12 9.789348e-07))
0.864421      	((5.495887e-09 -6.559516e-09 -2.503803e-10) (-4.943708e-10 -9.587249e-10 8.882860e-11)) ((-5.378345e-14 -1.769535e-13 6.108438e-11) (1.481943e-12 2.337507e-12 8.859759e-07))
1.049306      	((5.174369e-09 -7.870334e-09 -1.889667e-10) (-5.511003e-10 -5.611839e-10 5.807828e-11)) ((-9.112638e-14 -2.515951e-13 5.436029e-11) (1.488819e-12 1.478336e-12 8.036528e-07))
1.271167      	((6.643025e-09 -7.413530e-09 -1.799482e-10) (-7.577217e-10 -3.874498e-10 3.046388e-11)) ((-2.256048e-13 -3.097332e-13 4.933656e-11) (1.706990e-12 1.703885e-12 7.300771e-07))
1.5374        	((3.110532e-09 -1.034983e-08 1.072963e-10) (-9.240335e-10 -1.245153e-10 3.143206e-11)) ((-3.815461e-13 -3.694255e-13 4.400557e-11) (3.255811e-12 4.669328e-12 6.640198e-07))
1.85688       	((4.054329e-09 -1.131516e-08 -5.143961e-11) (-7.362075e-10 -3.291227e-11 2.834988e-11)) ((-4.850677e-13 -3.368200e-13 3.882441e-11) (4.843022e-12 8.517345e-12 6.048124e-07))
2.240256      	((3.441770e-09 -9.699490e-09 5.534819e-10) (-7.211551e-10 -1.162110e-10 -1.431291e-11)) ((-4.760430e-13 -2.819613e-13 3.503356e-11) (7.611975e-12 1.087801e-11 5.521053e-07))
2.700307      	((5.567959e-09 -8.961767e-09 3.892295e-10) (-5.310498e-10 -4.182171e-12 -5.652324e-11)) ((-5.344417e-13 -2.733514e-13 3.157507e-11) (1.147153e-11 1.235774e-11 5.055731e-07))
3.252369      	((5.289055e-09 -5.661500e-09 3.447814e-10) (-5.167047e-10 8.721675e-11 -7.996812e-11)) ((-4.974693e-13 -1.132368e-13 2.795755e-11) (1.388312e-11 1.271756e-11 4.647237e-07))
3.914842      	((3.258560e-09 -8.784302e-10 7.801386e-11) (-5.909548e-10 1.641032e-10 -5.966291e-11)) ((-3.463884e-13 1.916571e-14 2.414294e-11) (1.304019e-11 1.301586e-11 4.288757e-07))
4.709811      	((3.743350e-09 1.396456e-09 3.312960e-10) (-6.119084e-10 6.545411e-10 -5.965121e-11)) ((-3.028080e-13 6.046559e-14 2.082963e-11) (1.102897e-11 1.469232e-11 3.972259e-07))
5.663773      	((6.858801e-10 2.072987e-09 2.496156e-10) (-5.179740e-10 8.868671e-10 -9.166872e-11)) ((-1.547461e-13 1.374695e-13 1.791626e-11) (9.798000e-12 1.443375e-11 3.689582e-07))
6.808528      	((1.856266e-09 1.356415e-09 5.373491e-10) (-5.082990e-10 7.655021e-10 -1.158431e-10)) ((-6.180004e-14 1.322117e-13 1.573034e-11) (5.930330e-12 1.275651e-11 3.433997e-07))
8.182233      	((1.011736e-09 1.484115e-09 3.087875e-10) (-3.238307e-10 8.392946e-10 -1.563536e-10)) ((-1.203620e-13 1.830135e-13 1.414965e-11) (2.351977e-12 1.099695e-11 3.201072e-07))
9.83068       	((1.764131e-09 6.220734e-10 3.925471e-11) (-3.353043e-10 7.350863e-10 -1.876975e-10)) ((-1.125386e-13 1.467655e-13 1.294872e-11) (2.709011e-12 9.141212e-12 2.987588e-07))
11.808816     	((1.143448e-09 2.499710e-10 -9.953652e-11) (-5.633791e-10 7.553974e-10 -1.831531e-10)) ((-3.963351e-14 1.746929e-13 1.188549e-11) (4.000035e-12 6.576575e-12 2.790760e-07))
14.182579     	((1.241972e-09 -1.627429e-10 -1.956472e-10) (-7.022901e-10 5.357298e-10 -1.967591e-10)) ((2.648315e-14 1.717248e-13 1.110490e-11) (4.587128e-12 4.147348e-12 2.608831e-07))
17.031095     	((4.273451e-10 1.071326e-09 -9.297907e-11) (-7.475079e-10 1.428522e-10 -1.866014e-10)) ((6.205757e-14 1.642767e-13 1.048014e-11) (4.814111e-12 1.257238e-12 2.441317e-07))
20.449314     	((-2.923125e-10 -1.144734e-11 -1.193927e-11) (-7.702834e-10 1.443258e-10 -1.604328e-10)) ((1.028711e-13 1.225918e-13 9.852656e-12) (5.354527e-12 -1.567753e-12 2.288234e-07))
24.551176     	((-9.131545e-10 -1.620507e-11 1.584382e-11) (-7.536796e-10 1.780725e-10 -1.405122e-10)) ((1.500989e-13 8.717261e-14 9.316045e-12) (5.968186e-12 -3.818889e-12 2.149399e-07))
29.473411     	((-1.085111e-09 -5.575600e-11 -6.638132e-11) (-4.807534e-10 -1.782415e-11 -1.274795e-10)) ((1.767104e-13 8.032688e-14 8.907813e-12) (6.986946e-12 -5.255488e-12 2.024215e-07))
35.380094     	((-7.257146e-10 -5.241045e-10 5.106160e-11) (-1.791682e-10 -2.715166e-10 -8.340154e-11)) ((1.592797e-13 1.057620e-13 8.583925e-12) (7.777766e-12 -6.048657e-12 1.911543e-07))
42.468112     	((-8.027253e-10 -7.369771e-10 -4.488185e-11) (-9.874454e-11 -1.855766e-10 -5.458263e-11)) ((1.178778e-13 1.178705e-13 8.266541e-12) (8.916592e-12 -5.098564e-12 1.810051e-07))
50.973735     	((-4.562619e-10 -7.416482e-10 -5.189286e-11) (-2.615936e-11 2.739217e-11 -2.981825e-11)) ((1.178206e-13 1.241631e-13 7.888552e-12) (9.106094e-12 -4.491832e-12 1.718340e-07))
61.180482     	((-6.351334e-10 -5.676826e-10 -1.566287e-10) (4.913141e-11 1.856695e-10 -2.821521e-11)) ((1.121161e-13 1.224347e-13 7.494381e-12) (8.001044e-12 -4.863002e-12 1.635295e-07))
73.428578     	((-1.097099e-10 -2.334698e-10 -2.642279e-11) (3.078115e-12 3.283683e-10 9.305602e-14)) ((1.364907e-13 9.292097e-14 7.019993e-12) (5.973440e-12 -5.169451e-12 1.560140e-07))
88.126294     	((-3.800854e-10 -4.129244e-10 -1.540159e-10) (-8.232087e-11 2.048105e-10 4.270679e-12)) ((1.428335e-13 8.101149e-14 6.740709e-12) (3.527721e-12 -5.105106e-12 1.492420e-07))
105.763553    	((-2.522037e-10 -7.527546e-10 -3.977199e-11) (-5.329484e-11 9.195974e-11 1.247916e-11)) ((1.384534e-13 7.119963e-14 6.510781e-12) (1.928694e-12 -4.367191e-12 1.431856e-07))
126.623898    	((-6.110678e-10 -1.050628e-09 -1.554329e-10) (-2.267395e-10 9.863735e-11 1.852061e-11)) ((1.278300e-13 7.546607e-14 6.397730e-12) (-2.265188e-14 -3.619721e-12 1.378507e-07))
150.706717    	((-5.989935e-10 -1.176339e-09 -9.285811e-11) (-3.360424e-10 -2.159638e-11 1.072880e-11)) ((1.098693e-13 8.312435e-14 6.298634e-12) (-2.105327e-12 -3.042517e-12 1.332317e-07))
178.011322    	((-8.217551e-10 -1.477682e-09 -1.384537e-10) (-3.842902e-10 -1.179788e-10 -3.089394e-12)) ((9.646551e-14 8.946613e-14 6.175626e-12) (-3.771819e-12 -2.738395e-12 1.292878e-07))
208.53692     	((-6.871387e-10 -1.414973e-09 -3.706485e-11) (-3.345537e-10 -8.194519e-11 1.060661e-11)) ((8.309282e-14 9.043840e-14 6.005984e-12) (-4.499065e-12 -3.098897e-12 1.259659e-07))
240.737286    	((-6.159150e-10 -1.302038e-09 -1.288040e-10) (-2.650727e-10 -7.878483e-11 1.481978e-11)) ((7.911432e-14 9.449935e-14 5.855822e-12) (-4.167210e-12 -3.980340e-12 1.232598e-07))
272.92714     	((-4.173208e-10 -1.075643e-09 -1.327057e-10) (-1.641205e-10 1.232283e-11 1.881421e-11)) ((7.315900e-14 9.755307e-14 5.751641e-12) (-3.524885e-12 -4.884902e-12 1.211322e-07))
305.106262    	((-3.610186e-10 -9.702391e-10 -1.182485e-10) (-2.350343e-11 9.576304e-11 3.124506e-11)) ((6.100011e-14 9.455783e-14 5.670138e-12) (-2.868468e-12 -5.405611e-12 1.195066e-07))
337.274217    	((-2.581084e-10 -7.237876e-10 -6.758768e-11) (6.892262e-11 8.474140e-11 3.460055e-11)) ((4.850995e-14 9.073390e-14 5.609797e-12) (-2.245572e-12 -5.481947e-12 1.183087e-07))
369.430594    	((-2.724126e-10 -5.701151e-10 -2.429402e-11) (1.614248e-10 3.553125e-11 3.328802e-11)) ((3.794916e-14 8.897102e-14 5.541086e-12) (-1.840020e-12 -5.413237e-12 1.174672e-07))
401.575352    	((-1.991305e-10 -3.849931e-10 -8.583806e-12) (2.100430e-10 5.711956e-11 2.876692e-11)) ((2.985448e-14 9.147805e-14 5.468840e-12) (-1.564844e-12 -5.086850e-12 1.169239e-07))
433.708824    	((-2.259490e-10 -3.166205e-10 -2.073585e-11) (1.905719e-10 9.481656e-11 1.446007e-11)) ((2.233824e-14 9.241970e-14 5.396839e-12) (-1.364048e-12 -4.878076e-12 1.166308e-07))
465.831268    	((-1.858629e-10 -2.601353e-10 -1.835700e-11) (1.141742e-10 1.298707e-10 3.230408e-12)) ((1.532231e-14 8.996634e-14 5.339414e-12) (-1.222398e-12 -4.826096e-12 1.165485e-07))
497.942934    	((-1.609191e-10 -2.698623e-10 -2.569905e-11) (2.458932e-11 1.815437e-10 -9.103717e-12)) ((7.940494e-15 8.940110e-14 5.297298e-12) (-1.185409e-12 -4.944686e-12 1.166423e-07))
530.044322    	((-1.218769e-10 -2.100736e-10 -2.519761e-11) (-1.513245e-11 2.145623e-10 -2.088034e-11)) ((2.852356e-15 8.748065e-14 5.263730e-12) (-1.179498e-12 -5.282466e-12 1.168818e-07))
562.135975    	((-5.493600e-11 -1.696860e-10 -9.972133e-13) (-3.811008e-11 2.563931e-10 -3.090559e-11)) ((-9.605588e-16 8.650944e-14 5.241097e-12) (-1.129112e-12 -5.703317e-12 1.172414e-07))
594.218247    	((-1.305497e-11 -1.199472e-10 -1.806202e-12) (-5.459359e-11 3.003236e-10 -3.822777e-11)) ((-3.184918e-15 8.712453e-14 5.221792e-12) (-9.005635e-13 -5.969402e-12 1.176979e-07))
626.291541    	((3.804940e-11 -1.222324e-10 -3.094752e-11) (-5.673324e-11 3.197799e-10 -4.050894e-11)) ((-5.302943e-15 8.746929e-14 5.201077e-12) (-5.613171e-13 -6.127833e-12 1.182299e-07))
658.356426    	((6.267767e-11 -1.119780e-10 -4.739231e-11) (-4.130693e-11 3.221406e-10 -4.337150e-11)) ((-6.471758e-15 8.851167e-14 5.185373e-12) (-2.269427e-13 -6.307589e-12 1.188171e-07))
690.413532    	((8.338098e-11 -7.283297e-11 -3.991543e-11) (-2.274733e-11 3.161064e-10 -4.513002e-11)) ((-7.165073e-15 8.959464e-14 5.171294e-12) (7.606612e-14 -6.422552e-12 1.194403e-07))
722.463407    	((8.279657e-11 -4.869497e-11 -3.495818e-11) (-1.209344e-12 3.067238e-10 -4.516367e-11)) ((-6.975505e-15 9.045102e-14 5.166966e-12) (2.952640e-13 -6.456596e-12 1.200822e-07))
754.506751    	((9.899952e-11 -4.250120e-11 -3.036671e-11) (1.383902e-11 2.994177e-10 -4.122520e-11)) ((-6.540345e-15 9.132964e-14 5.170677e-12) (3.999435e-13 -6.404586e-12 1.207273e-07))
