# Forces      
# CofR        : (0.000000e+00 0.000000e+00 0.000000e+00)
# Time        forces(pressure viscous)	moments(pressure viscous)
0             	((0.000000e+00 0.000000e+00 0.000000e+00) (0.000000e+00 0.000000e+00 0.000000e+00)) ((0.000000e+00 0.000000e+00 0.000000e+00) (0.000000e+00 0.000000e+00 0.000000e+00))
0.012         	((5.460506e-11 -9.020670e-11 -2.164982e-08) (1.887978e-13 -4.751693e-13 -4.549793e-10)) ((9.767033e-15 -8.425725e-10 4.410608e-16) (-1.605481e-15 -5.562604e-07 3.293530e-14))
0.0264        	((-9.244454e-11 9.508970e-11 8.138569e-09) (1.223426e-13 -1.346850e-12 -7.912462e-10)) ((2.093737e-15 -4.222603e-10 -4.099026e-14) (-1.579422e-14 -5.094945e-07 4.655742e-14))
0.04368       	((-3.420826e-10 -5.173438e-10 -7.543015e-09) (-1.056898e-12 -1.030982e-12 -8.585081e-10)) ((-7.606608e-15 -2.335243e-10 -2.669971e-14) (2.577429e-14 -4.614456e-07 6.787528e-14))
0.064416      	((1.084783e-10 1.384959e-10 -2.811168e-10) (-3.631890e-12 7.007204e-13 -7.083858e-10)) ((-6.360228e-16 -1.336049e-10 1.772925e-15) (8.846922e-14 -4.131707e-07 9.071138e-14))
0.0892992     	((-2.554844e-10 -1.576395e-10 -9.034982e-10) (-7.079538e-12 2.545650e-12 -5.848784e-10)) ((1.539964e-15 -9.968263e-11 1.790063e-16) (1.252173e-13 -3.660860e-07 9.532643e-14))
0.119159      	((1.753287e-10 4.471655e-11 -2.078798e-10) (-9.371204e-12 4.388139e-12 -4.964637e-10)) ((-1.906614e-15 -7.197178e-11 5.551356e-16) (1.765044e-13 -3.216462e-07 1.067193e-13))
0.154991      	((7.371609e-11 1.065562e-10 6.263239e-10) (-1.166837e-11 6.942976e-12 -4.015329e-10)) ((1.187576e-15 -5.719975e-11 -4.146056e-15) (2.349547e-13 -2.808794e-07 1.218784e-13))
0.197989      	((4.806929e-11 6.249089e-11 -4.577531e-11) (-1.349017e-11 9.046991e-12 -3.165472e-10)) ((1.475634e-15 -4.569052e-11 -4.414781e-15) (2.534090e-13 -2.447464e-07 1.341067e-13))
0.249587      	((-6.819737e-11 7.646268e-11 5.481571e-10) (-1.159699e-11 1.006438e-11 -2.535589e-10)) ((3.518842e-15 -3.779523e-11 2.065639e-15) (2.440691e-13 -2.137540e-07 1.287207e-13))
0.311504      	((-4.512670e-11 -2.475956e-11 1.124426e-10) (-8.030145e-12 1.090665e-11 -2.012251e-10)) ((1.486584e-15 -3.158317e-11 3.838385e-15) (2.418944e-13 -1.878198e-07 9.782829e-14))
0.385805      	((-4.026607e-11 -4.372410e-11 -2.682516e-11) (-3.504032e-12 1.121214e-11 -1.566010e-10)) ((5.087160e-16 -2.719808e-11 6.415895e-15) (2.416919e-13 -1.663869e-07 8.106050e-14))
0.474966      	((7.967392e-11 1.586316e-11 -1.669357e-10) (-3.697737e-13 1.256542e-11 -1.139480e-10)) ((1.642778e-15 -2.429165e-11 5.603447e-15) (2.293932e-13 -1.486172e-07 5.947920e-14))
0.581959      	((3.807955e-11 7.136690e-11 1.168302e-10) (1.597892e-12 1.391951e-11 -7.925225e-11)) ((1.601760e-15 -2.176995e-11 3.041936e-15) (1.896459e-13 -1.336509e-07 1.350170e-14))
0.710351      	((1.296543e-10 8.778665e-11 -2.895581e-10) (2.491304e-12 1.031370e-11 -6.465868e-11)) ((1.878867e-15 -1.934801e-11 2.576406e-15) (8.873759e-14 -1.207825e-07 7.651036e-14))
0.864421      	((1.315411e-10 7.347909e-11 -1.330929e-10) (6.930688e-12 2.238781e-12 -5.130568e-11)) ((3.591996e-15 -1.771650e-11 -5.686882e-16) (2.888093e-15 -1.095088e-07 2.166463e-13))
1.049306      	((4.214352e-10 6.663051e-11 -9.490980e-11) (1.378412e-12 -6.170052e-12 -2.069684e-11)) ((4.337735e-15 -1.668884e-11 -3.765427e-15) (5.235578e-15 -9.949332e-08 3.221869e-13))
1.271167      	((3.335846e-10 5.904023e-11 -2.393095e-10) (-1.140974e-11 -1.425125e-11 7.898164e-12)) ((2.104859e-15 -1.565222e-11 -2.567495e-15) (-1.118123e-13 -9.050675e-08 2.831056e-13))
1.5374        	((5.501234e-10 -3.047548e-11 -2.915840e-10) (-1.546399e-11 -1.865390e-11 3.014391e-11)) ((-4.909579e-15 -1.443301e-11 -6.037649e-15) (-3.548391e-13 -8.240022e-08 1.701771e-13))
1.85688       	((3.489534e-10 5.227446e-11 -2.484396e-10) (-2.460962e-11 -2.031081e-11 6.535384e-11)) ((-6.554954e-15 -1.330172e-11 -2.410269e-15) (-6.799876e-13 -7.509215e-08 -1.633376e-13))
2.240256      	((2.572995e-10 1.139170e-11 -3.278475e-10) (-4.128325e-11 -1.576384e-11 8.646369e-11)) ((-9.326592e-15 -1.251198e-11 -1.632570e-15) (-1.026503e-12 -6.854147e-08 -6.831887e-13))
2.700307      	((1.594634e-10 2.253786e-11 -3.035339e-10) (-7.541651e-11 -1.036279e-11 9.745444e-11)) ((-9.666141e-15 -1.194540e-11 -3.896138e-15) (-1.548210e-12 -6.271790e-08 -1.462904e-12))
3.252369      	((5.969771e-11 1.639032e-11 -2.034808e-10) (-1.087759e-10 -5.741565e-12 1.361167e-10)) ((-9.437596e-15 -1.132902e-11 -5.127271e-15) (-2.013941e-12 -5.757913e-08 -2.405926e-12))
3.914842      	((1.445433e-11 2.058570e-11 -7.951839e-11) (-1.298322e-10 8.240243e-13 1.928259e-10)) ((-4.529840e-15 -1.065232e-11 -8.914932e-15) (-2.498476e-12 -5.306056e-08 -2.934431e-12))
4.709811      	((4.219810e-12 2.961327e-11 1.848195e-11) (-1.602560e-10 6.628793e-12 2.200706e-10)) ((-2.966354e-15 -9.935299e-12 -9.624086e-15) (-2.901439e-12 -4.907559e-08 -3.211317e-12))
5.663773      	((1.852416e-11 2.695555e-11 3.794650e-11) (-1.715525e-10 3.723146e-12 2.120009e-10)) ((-3.800008e-15 -9.200532e-12 -4.966802e-15) (-2.906139e-12 -4.552927e-08 -3.125382e-12))
6.808528      	((5.576190e-12 2.150570e-11 2.219467e-11) (-1.630313e-10 -1.341913e-13 2.049303e-10)) ((-6.338033e-15 -8.432005e-12 -2.030686e-15) (-2.629710e-12 -4.233870e-08 -2.774768e-12))
8.182233      	((-5.106954e-11 1.920838e-11 1.149901e-11) (-1.561734e-10 2.706154e-12 1.746337e-10)) ((-3.960316e-15 -7.698510e-12 -4.817836e-16) (-2.189134e-12 -3.944043e-08 -2.501179e-12))
9.83068       	((-4.707239e-11 1.798901e-11 -2.068110e-11) (-1.334097e-10 2.724659e-12 1.260788e-10)) ((-3.414990e-15 -6.972454e-12 -9.405308e-17) (-1.773832e-12 -3.678636e-08 -2.143808e-12))
11.808816     	((-5.054687e-12 -8.610977e-12 -3.781077e-11) (-1.028229e-10 -5.504038e-12 8.269036e-11)) ((-1.638993e-15 -6.322777e-12 4.239743e-15) (-1.515726e-12 -3.434372e-08 -1.513615e-12))
14.182579     	((2.115017e-11 1.586233e-11 -1.065733e-10) (-7.163285e-11 -1.283882e-11 5.580133e-11)) ((7.413953e-16 -5.741024e-12 7.161437e-15) (-1.206508e-12 -3.209202e-08 -9.331557e-13))
17.031095     	((2.155296e-11 -1.237840e-11 -7.221512e-11) (-4.222247e-11 -1.591990e-11 3.888063e-11)) ((1.544935e-15 -5.224442e-12 6.864812e-15) (-8.483917e-13 -3.001985e-08 -4.800090e-13))
20.449314     	((3.587687e-11 1.902170e-11 -6.712416e-11) (-2.603835e-11 -1.301931e-11 2.822562e-11)) ((3.437214e-15 -4.764507e-12 6.629431e-15) (-4.752745e-13 -2.812149e-08 -3.028351e-13))
24.551176     	((4.507271e-11 5.192538e-13 -4.139947e-11) (-1.461582e-11 -8.725163e-12 3.378843e-11)) ((5.746344e-15 -4.366259e-12 6.772011e-15) (-2.561354e-13 -2.638846e-08 -2.283709e-13))
29.473411     	((6.480200e-11 6.613796e-12 -3.081578e-11) (-9.594477e-12 -8.285052e-12 4.010174e-11)) ((6.990924e-15 -4.026474e-12 6.006611e-15) (-2.061881e-13 -2.480947e-08 -8.567490e-14))
35.380094     	((6.611113e-11 -1.312460e-12 -3.175090e-11) (-8.327828e-12 -7.938287e-12 4.710694e-11)) ((7.739693e-15 -3.723128e-12 5.810694e-15) (-2.321739e-13 -2.337144e-08 6.921596e-15))
42.468112     	((6.133220e-11 2.341844e-12 -3.968204e-11) (-7.380313e-12 -8.108235e-12 5.242476e-11)) ((7.530087e-15 -3.457612e-12 5.025736e-15) (-3.534803e-13 -2.206213e-08 2.633865e-14))
50.973735     	((5.254583e-11 -8.929199e-13 -5.064034e-11) (-7.223030e-12 -8.078719e-12 5.525362e-11)) ((7.585155e-15 -3.217974e-12 4.237876e-15) (-4.957297e-13 -2.087034e-08 -1.559213e-14))
61.180482     	((5.126579e-11 -7.655678e-12 -2.987463e-11) (-7.525339e-12 -8.558648e-12 5.968482e-11)) ((6.727424e-15 -3.004726e-12 3.585126e-15) (-5.851118e-13 -1.978564e-08 -1.262545e-13))
73.428578     	((5.218849e-11 -4.284094e-12 -1.345020e-11) (-1.102347e-11 -8.547149e-12 6.956093e-11)) ((6.284866e-15 -2.823689e-12 3.557949e-15) (-6.530132e-13 -1.879873e-08 -2.379341e-13))
88.126294     	((5.502515e-11 -2.695261e-12 -3.520219e-12) (-1.626478e-11 -6.876363e-12 7.608927e-11)) ((5.528071e-15 -2.662378e-12 3.150541e-15) (-6.496990e-13 -1.790170e-08 -3.575342e-13))
105.763553    	((3.052390e-11 -3.118943e-12 -1.460826e-11) (-2.294207e-11 -4.347721e-12 8.119241e-11)) ((5.415086e-15 -2.517370e-12 2.512550e-15) (-5.853589e-13 -1.708810e-08 -4.672187e-13))
126.928263    	((1.125426e-11 -3.764577e-12 -1.737747e-11) (-2.859900e-11 -2.385592e-12 8.179801e-11)) ((4.910737e-15 -2.389290e-12 1.590107e-15) (-4.567420e-13 -1.635140e-08 -5.508275e-13))
152.325916    	((6.023009e-12 -2.397928e-12 -2.079249e-11) (-2.471647e-11 -1.150035e-12 8.006226e-11)) ((4.572270e-15 -2.271156e-12 1.253378e-15) (-3.378781e-13 -1.568469e-08 -5.664207e-13))
182.803099    	((5.524008e-12 2.360889e-12 -3.161154e-11) (-1.762201e-11 -9.062433e-14 7.420967e-11)) ((4.818345e-15 -2.164458e-12 1.441762e-15) (-2.454594e-13 -1.508062e-08 -5.702982e-13))
219.375719    	((5.130034e-12 3.500181e-12 -3.007927e-11) (-1.337401e-11 1.173411e-12 6.847554e-11)) ((4.264646e-15 -2.070111e-12 1.659268e-15) (-1.608202e-13 -1.453282e-08 -5.753226e-13))
263.262863    	((1.137229e-11 2.759220e-12 -2.085458e-11) (-1.098114e-11 1.919567e-12 6.237428e-11)) ((3.611435e-15 -1.985208e-12 2.039499e-15) (-1.101380e-13 -1.403576e-08 -5.466569e-13))
315.927436    	((1.419224e-11 1.648436e-12 -1.452075e-11) (-8.234510e-12 3.005543e-12 5.907239e-11)) ((2.486821e-15 -1.906610e-12 2.029057e-15) (-1.000118e-13 -1.358468e-08 -5.391596e-13))
379.124923    	((1.724746e-11 -3.471649e-12 -8.097549e-12) (-6.488821e-12 3.543901e-12 5.859245e-11)) ((1.662969e-15 -1.834816e-12 1.768040e-15) (-7.971546e-14 -1.317611e-08 -5.068125e-13))
454.961908    	((1.455600e-11 -2.292304e-12 -1.116356e-11) (-4.841180e-12 3.518567e-12 5.744477e-11)) ((1.104404e-15 -1.770202e-12 1.368377e-15) (-6.681517e-14 -1.280726e-08 -4.912456e-13))
545.966289    	((1.253182e-11 -2.795258e-12 -1.748397e-11) (-5.498528e-12 3.418992e-12 5.589259e-11)) ((7.058444e-16 -1.711793e-12 1.192015e-15) (-4.629535e-14 -1.247564e-08 -4.932064e-13))
655.171547    	((9.065312e-12 -2.722370e-12 -2.036394e-11) (-7.952992e-12 3.390555e-12 5.324606e-11)) ((7.078928e-16 -1.659063e-12 1.204585e-15) (-2.553503e-14 -1.217830e-08 -5.062619e-13))
786.217856    	((1.337333e-11 -5.626729e-12 -1.551741e-11) (-1.098314e-11 2.992906e-12 5.340031e-11)) ((5.708512e-16 -1.612224e-12 1.232788e-15) (6.038625e-15 -1.191286e-08 -5.127593e-13))
942.868687    	((1.831185e-11 -5.322174e-12 -1.485190e-11) (-1.021885e-11 2.768001e-12 5.125572e-11)) ((4.859809e-16 -1.570762e-12 1.287074e-15) (3.272576e-14 -1.167719e-08 -5.054837e-13))
1125.124793   	((2.233200e-11 -8.226235e-12 -9.846962e-12) (-8.677707e-12 2.681756e-12 4.804944e-11)) ((3.494431e-16 -1.535763e-12 1.289846e-15) (6.124207e-14 -1.146995e-08 -5.032090e-13))
1332.987497   	((2.624097e-11 -6.130656e-12 -3.842736e-12) (-8.034995e-12 2.927058e-12 4.579874e-11)) ((3.315655e-16 -1.505210e-12 1.351287e-15) (9.276202e-14 -1.128927e-08 -4.840871e-13))
1566.459137   	((2.951393e-11 -3.896258e-12 5.573114e-13) (-7.127537e-12 3.222312e-12 4.356425e-11)) ((3.762460e-16 -1.479111e-12 1.347649e-15) (1.240793e-13 -1.113291e-08 -4.599022e-13))
1822.565136   	((3.169165e-11 -5.838818e-12 1.950900e-12) (-6.056918e-12 3.333521e-12 4.129399e-11)) ((3.846104e-16 -1.456499e-12 1.280948e-15) (1.391812e-13 -1.099844e-08 -4.254508e-13))
2078.693849   	((3.296069e-11 -8.447581e-12 2.317485e-12) (-3.975896e-12 3.255875e-12 3.847180e-11)) ((3.606687e-16 -1.437251e-12 1.134906e-15) (1.431406e-13 -1.088412e-08 -3.893877e-13))
2334.837983   	((3.462980e-11 -7.591634e-12 2.840165e-12) (-1.452708e-12 3.254994e-12 3.614983e-11)) ((3.281624e-16 -1.420649e-12 1.037813e-15) (1.399043e-13 -1.078727e-08 -3.611579e-13))
2590.990133   	((3.587733e-11 -7.414121e-12 4.689231e-12) (9.448167e-13 3.184029e-12 3.493955e-11)) ((2.935153e-16 -1.406496e-12 1.028803e-15) (1.250759e-13 -1.070543e-08 -3.330956e-13))
2847.150673   	((3.700143e-11 -7.125687e-12 5.871570e-12) (2.905072e-12 3.065181e-12 3.360654e-11)) ((2.357182e-16 -1.394237e-12 1.027461e-15) (1.077633e-13 -1.063604e-08 -3.041478e-13))
3103.319787   	((3.895746e-11 -6.769874e-12 6.565366e-12) (4.394684e-12 2.971210e-12 3.197366e-11)) ((2.421969e-16 -1.383760e-12 1.019512e-15) (9.172606e-14 -1.057705e-08 -2.797768e-13))
3359.497968   	((3.994188e-11 -6.103053e-12 6.810705e-12) (6.132685e-12 2.715863e-12 3.083232e-11)) ((2.619424e-16 -1.374860e-12 9.887674e-16) (7.902280e-14 -1.052668e-08 -2.598307e-13))
3615.685253   	((4.095045e-11 -5.680821e-12 6.507712e-12) (7.801626e-12 2.615478e-12 3.027759e-11)) ((2.745671e-16 -1.367311e-12 9.804805e-16) (6.803786e-14 -1.048356e-08 -2.448426e-13))
3871.881521   	((4.152372e-11 -5.634856e-12 6.077824e-12) (9.060951e-12 2.506633e-12 2.990202e-11)) ((2.816461e-16 -1.360773e-12 9.790776e-16) (5.900419e-14 -1.044649e-08 -2.340466e-13))
4128.086614   	((4.179804e-11 -5.475642e-12 6.269045e-12) (1.013796e-11 2.372323e-12 2.958768e-11)) ((2.951697e-16 -1.355109e-12 9.438487e-16) (5.245503e-14 -1.041452e-08 -2.266577e-13))
4384.30008    	((4.170293e-11 -5.367762e-12 6.833204e-12) (1.089402e-11 2.242478e-12 2.925961e-11)) ((3.088735e-16 -1.350226e-12 9.347625e-16) (4.777438e-14 -1.038686e-08 -2.211491e-13))
4640.521313   	((4.194422e-11 -5.248919e-12 7.210976e-12) (1.144144e-11 2.173922e-12 2.882601e-11)) ((3.269720e-16 -1.345976e-12 9.304707e-16) (4.406430e-14 -1.036287e-08 -2.159545e-13))
4896.749745   	((4.210771e-11 -4.867550e-12 7.261559e-12) (1.191779e-11 2.191919e-12 2.829603e-11)) ((3.335493e-16 -1.342239e-12 9.201793e-16) (4.140946e-14 -1.034200e-08 -2.111423e-13))
5152.984932   	((4.205632e-11 -4.521262e-12 7.101954e-12) (1.228395e-11 2.246534e-12 2.784652e-11)) ((3.441165e-16 -1.338960e-12 9.125178e-16) (3.989172e-14 -1.032381e-08 -2.064186e-13))
5409.226308   	((4.220726e-11 -4.568680e-12 6.788684e-12) (1.255282e-11 2.295463e-12 2.750030e-11)) ((3.589755e-16 -1.336130e-12 9.065416e-16) (3.860464e-14 -1.030792e-08 -2.017918e-13))
5665.473392   	((4.244737e-11 -4.842502e-12 6.740578e-12) (1.270850e-11 2.327195e-12 2.723527e-11)) ((3.769670e-16 -1.333679e-12 9.005144e-16) (3.695509e-14 -1.029400e-08 -1.971440e-13))
5921.725704   	((4.266571e-11 -4.767395e-12 6.647906e-12) (1.274305e-11 2.342780e-12 2.698425e-11)) ((3.959114e-16 -1.331522e-12 8.982360e-16) (3.506287e-14 -1.028178e-08 -1.923186e-13))
