# Forces      
# CofR        : (0.000000e+00 0.000000e+00 0.000000e+00)
# Time        forces(pressure viscous)	moments(pressure viscous)
0             	((0.000000e+00 0.000000e+00 0.000000e+00) (1.265131e-02 -1.778795e-12 9.036334e-13)) ((0.000000e+00 0.000000e+00 0.000000e+00) (-2.501958e-14 -1.538024e-13 2.678963e-13))
0.012         	((3.730347e+00 4.107772e-05 3.963111e-05) (1.690816e-02 -1.226711e-07 -1.246388e-07)) ((-3.095433e-10 4.187611e-10 -3.418062e-10) (-2.172632e-11 2.109088e-10 -9.873625e-11))
0.0264        	((-9.831626e-01 -1.698186e-04 -2.088877e-04) (1.674872e-02 -2.798761e-07 -3.134046e-07)) ((-1.063529e-09 -1.891007e-08 -5.005866e-09) (8.208968e-11 -1.509577e-08 1.458781e-08))
0.04368       	((-3.059503e-01 1.368438e-04 1.607449e-04) (1.402925e-02 -1.119292e-07 -1.325446e-07)) ((9.985193e-10 1.489752e-08 4.126905e-09) (3.113471e-10 -1.171434e-08 1.053257e-08))
0.064416      	((-7.092092e-03 -2.555141e-05 -2.392650e-05) (1.240238e-02 5.169572e-08 6.345568e-08)) ((2.338759e-10 2.255903e-10 -5.974906e-10) (6.152129e-10 5.818692e-10 -2.686820e-09))
0.0892992     	((1.589364e-03 -2.612871e-05 -2.841301e-05) (1.139781e-02 -3.283060e-08 4.220128e-08)) ((2.150435e-10 -3.497778e-10 -6.055664e-10) (8.115081e-10 -3.931404e-10 -2.640581e-09))
0.119159      	((4.295324e-03 -1.285224e-05 -9.425501e-06) (1.058697e-02 -2.884942e-08 6.651990e-08)) ((2.781205e-10 -1.921636e-10 -2.670716e-10) (8.474092e-10 -1.367404e-09 -1.500901e-09))
0.154991      	((6.664966e-03 -2.824438e-06 -3.872366e-06) (9.958190e-03 3.200928e-08 1.791228e-08)) ((1.402548e-10 -4.234373e-11 7.874295e-11) (5.411318e-10 -1.113566e-09 -8.674583e-10))
0.197989      	((7.565020e-03 -1.247745e-06 -1.520976e-06) (9.469383e-03 1.495106e-08 4.450376e-08)) ((3.808297e-10 -1.374763e-10 -3.368732e-10) (6.514925e-10 -8.734521e-11 -1.436144e-09))
0.249587      	((8.388572e-03 1.032374e-06 2.093697e-06) (9.053861e-03 3.384946e-09 9.793532e-08)) ((5.879060e-10 -1.834721e-10 -1.981897e-10) (5.399242e-10 1.268567e-09 -3.193374e-09))
0.311504      	((9.218097e-03 1.348748e-06 3.924691e-07) (8.684488e-03 1.537766e-08 1.276484e-07)) ((1.549893e-10 -4.797957e-11 -1.962415e-10) (4.547572e-10 3.731376e-09 -6.703310e-09))
0.385805      	((1.038192e-02 -1.950796e-06 -2.576344e-06) (8.349658e-03 9.231298e-09 9.558936e-08)) ((1.817123e-10 -4.902616e-12 -3.093781e-10) (3.610179e-10 7.308304e-09 -9.692574e-09))
0.473235      	((1.188786e-02 -3.765844e-06 -5.967888e-06) (8.053719e-03 -7.489261e-09 -9.964675e-10)) ((9.507077e-11 -1.521330e-11 -2.205002e-10) (2.230551e-10 1.007769e-08 -1.134732e-08))
0.573817      	((1.381033e-02 -5.186071e-06 -6.635555e-06) (7.804023e-03 -6.605463e-08 -7.227233e-08)) ((2.617082e-11 -1.308586e-10 -2.114674e-10) (2.022784e-10 1.163725e-08 -1.245343e-08))
0.687586      	((1.610555e-02 -7.524670e-06 -9.194277e-06) (7.597977e-03 -1.256136e-07 -1.663764e-07)) ((8.087547e-12 -1.540227e-10 -2.111183e-10) (2.217151e-10 1.287500e-08 -1.258425e-08))
0.814562      	((1.851862e-02 -1.238207e-05 -1.412164e-05) (7.431056e-03 -2.053462e-07 -2.994864e-07)) ((-2.961871e-11 -3.047340e-10 -1.644327e-10) (2.586385e-10 1.314504e-08 -1.239354e-08))
0.946043      	((2.118635e-02 -1.580899e-05 -1.718627e-05) (7.301625e-03 -3.112031e-07 -4.035524e-07)) ((1.094089e-11 -4.606862e-10 6.642398e-13) (1.979837e-10 1.225489e-08 -1.127474e-08))
1.076114      	((2.368469e-02 -1.503220e-05 -1.694465e-05) (7.192730e-03 -3.395498e-07 -3.890701e-07)) ((4.591250e-11 -2.739211e-10 1.779747e-11) (1.913455e-10 8.290930e-09 -7.294800e-09))
1.205118      	((2.589012e-02 -1.340482e-05 -1.498347e-05) (7.089276e-03 -2.870411e-07 -3.111439e-07)) ((1.949936e-11 -1.057940e-10 -6.856283e-11) (2.805284e-10 2.439309e-09 -2.328548e-09))
1.333746      	((2.770918e-02 -1.124541e-05 -1.305911e-05) (6.986924e-03 -2.707065e-07 -2.677596e-07)) ((4.366513e-11 -5.142074e-11 -2.911504e-10) (2.657178e-10 2.601450e-09 -2.730437e-09))
1.462593      	((2.901346e-02 -8.066154e-06 -9.854587e-06) (6.891272e-03 -3.835378e-07 -3.633904e-07)) ((2.025938e-11 -1.506968e-10 -3.598569e-10) (4.260071e-10 1.361655e-08 -1.289061e-08))
1.591796      	((2.977694e-02 -6.981100e-06 -9.186220e-06) (6.804059e-03 -5.260249e-07 -5.150417e-07)) ((-4.514958e-11 -3.748928e-10 -3.517411e-10) (6.395785e-10 2.600778e-08 -2.564380e-08))
1.721043      	((2.991460e-02 -5.527249e-06 -9.570940e-06) (6.723608e-03 -5.573700e-07 -5.538311e-07)) ((-8.866309e-11 -4.659653e-10 -3.327653e-10) (5.646986e-10 3.092808e-08 -3.272902e-08))
1.849985      	((2.962238e-02 -7.447995e-07 -6.259201e-06) (6.650051e-03 -4.872461e-07 -4.936834e-07)) ((-7.938176e-11 -3.720359e-10 -2.493971e-10) (4.534653e-10 3.034969e-08 -3.392002e-08))
1.978547      	((2.909057e-02 4.734500e-07 -4.189179e-06) (6.584311e-03 -4.230033e-07 -4.289759e-07)) ((-1.055872e-10 -4.321734e-10 -5.545484e-11) (4.394709e-10 3.127156e-08 -3.488078e-08))
2.106843      	((2.855135e-02 2.443420e-06 -5.547937e-06) (6.526991e-03 -3.964536e-07 -3.993635e-07)) ((-1.486636e-10 -4.868290e-10 -1.719416e-11) (5.121104e-10 3.436900e-08 -3.723065e-08))
2.234995      	((2.819235e-02 -8.286120e-07 -7.632466e-06) (6.476468e-03 -3.872691e-07 -4.075815e-07)) ((-1.989956e-10 -4.615872e-10 -4.558152e-11) (5.442157e-10 3.554798e-08 -3.840234e-08))
2.363021      	((2.799770e-02 -2.304099e-06 -1.173077e-05) (6.430701e-03 -3.769481e-07 -4.179575e-07)) ((-2.153016e-10 -3.621163e-10 -1.670962e-10) (6.498609e-10 3.389391e-08 -3.679525e-08))
2.490903      	((2.795885e-02 -4.680811e-06 -1.336010e-05) (6.388723e-03 -3.806744e-07 -4.156462e-07)) ((-2.106985e-10 -2.323440e-10 -2.993482e-10) (6.556211e-10 3.114588e-08 -3.469431e-08))
2.618634      	((2.788966e-02 -5.752418e-06 -1.571833e-05) (6.349002e-03 -3.622835e-07 -4.040546e-07)) ((-1.123606e-10 -2.258073e-12 -3.717133e-10) (6.640821e-10 2.774665e-08 -3.189063e-08))
2.746222      	((2.769296e-02 -7.872503e-06 -1.679154e-05) (6.309662e-03 -3.503696e-07 -4.043162e-07)) ((-4.147052e-11 1.898290e-10 -3.643710e-10) (4.161272e-10 2.446675e-08 -2.961879e-08))
2.873673      	((2.744768e-02 -1.326416e-05 -2.427417e-05) (6.271752e-03 -3.477532e-07 -4.096926e-07)) ((9.131628e-12 1.244920e-10 -3.568535e-10) (1.293870e-10 2.176694e-08 -2.669424e-08))
3.00099       	((2.716945e-02 -2.025444e-05 -2.985356e-05) (6.236487e-03 -3.546780e-07 -4.372498e-07)) ((-3.251304e-11 -4.322755e-11 -3.344307e-10) (-1.369824e-10 1.935910e-08 -2.249106e-08))
3.128177      	((2.693131e-02 -2.874310e-05 -3.872884e-05) (6.204531e-03 -4.147395e-07 -5.165951e-07)) ((-1.213777e-10 -3.123170e-10 -2.986166e-10) (-2.367160e-10 1.616926e-08 -1.895405e-08))
3.255246      	((2.675257e-02 -3.752001e-05 -4.543125e-05) (6.176340e-03 -5.298624e-07 -6.553914e-07)) ((-1.983819e-10 -5.482757e-10 -2.783236e-10) (1.170614e-11 1.432447e-08 -1.659937e-08))
3.382228      	((2.668266e-02 -4.501331e-05 -5.280583e-05) (6.151574e-03 -6.698640e-07 -8.300927e-07)) ((-2.161984e-10 -6.916126e-10 -2.596049e-10) (6.336182e-10 1.377213e-08 -1.439325e-08))
3.50914       	((2.663629e-02 -5.428248e-05 -6.191305e-05) (6.129607e-03 -8.247370e-07 -1.023490e-06)) ((-1.826816e-10 -7.027396e-10 -3.069860e-10) (9.270743e-10 1.336439e-08 -1.233388e-08))
3.635986      	((2.657553e-02 -6.389622e-05 -6.982345e-05) (6.109778e-03 -1.021911e-06 -1.231984e-06)) ((-1.478912e-10 -7.025888e-10 -4.036899e-10) (7.738609e-10 1.350751e-08 -1.166965e-08))
3.762765      	((2.646123e-02 -7.020294e-05 -7.807882e-05) (6.091199e-03 -1.237553e-06 -1.459340e-06)) ((-1.925754e-10 -6.939186e-10 -5.025300e-10) (1.221242e-09 1.491641e-08 -1.224186e-08))
3.889476      	((2.631204e-02 -7.863214e-05 -8.790663e-05) (6.073463e-03 -1.460512e-06 -1.707195e-06)) ((-2.392088e-10 -7.869336e-10 -5.597348e-10) (2.105648e-09 1.673189e-08 -1.323270e-08))
4.016119      	((2.613583e-02 -8.799528e-05 -9.722492e-05) (6.056617e-03 -1.700875e-06 -1.962577e-06)) ((-2.638383e-10 -8.503691e-10 -6.072883e-10) (2.704729e-09 1.842509e-08 -1.415257e-08))
4.142699      	((2.596577e-02 -9.896228e-05 -1.085862e-04) (6.040869e-03 -1.938037e-06 -2.239155e-06)) ((-2.337541e-10 -9.669185e-10 -5.895994e-10) (3.395983e-09 2.044099e-08 -1.437213e-08))
4.269219      	((2.578974e-02 -1.125664e-04 -1.215296e-04) (6.026455e-03 -2.192243e-06 -2.532301e-06)) ((-2.088686e-10 -1.080147e-09 -5.794490e-10) (4.324653e-09 2.202638e-08 -1.352028e-08))
4.395683      	((2.563627e-02 -1.230785e-04 -1.321573e-04) (6.013421e-03 -2.441326e-06 -2.818953e-06)) ((-1.931877e-10 -1.188758e-09 -6.100825e-10) (5.280522e-09 2.222052e-08 -1.216562e-08))
4.522093      	((2.549579e-02 -1.368836e-04 -1.471293e-04) (6.001641e-03 -2.684589e-06 -3.088693e-06)) ((-1.718058e-10 -1.295692e-09 -6.420697e-10) (5.519239e-09 1.975985e-08 -9.821706e-09))
4.648453      	((2.534888e-02 -1.524411e-04 -1.602239e-04) (5.990710e-03 -2.962255e-06 -3.350603e-06)) ((-1.047840e-10 -1.318510e-09 -7.127608e-10) (5.045871e-09 1.612114e-08 -7.078850e-09))
4.774765      	((2.519992e-02 -1.696020e-04 -1.783969e-04) (5.980271e-03 -3.267383e-06 -3.653336e-06)) ((-8.299150e-11 -1.374099e-09 -7.818709e-10) (4.074095e-09 1.277247e-08 -3.024308e-09))
4.901031      	((2.504086e-02 -1.929160e-04 -1.991583e-04) (5.970096e-03 -3.594824e-06 -3.990655e-06)) ((-8.093097e-11 -1.473957e-09 -8.218869e-10) (2.551830e-09 8.454221e-09 3.135629e-09))
5.027254      	((2.489821e-02 -2.169881e-04 -2.246210e-04) (5.960247e-03 -3.960288e-06 -4.348371e-06)) ((-1.544437e-10 -1.618766e-09 -8.959067e-10) (8.784484e-10 1.359789e-09 1.072739e-08))
5.153437      	((2.476078e-02 -2.445497e-04 -2.507570e-04) (5.950828e-03 -4.363357e-06 -4.706211e-06)) ((-2.271966e-10 -1.719061e-09 -1.018356e-09) (-2.813911e-10 -7.893887e-09 2.019581e-08))
5.279582      	((2.464278e-02 -2.727671e-04 -2.811450e-04) (5.941792e-03 -4.795885e-06 -5.090176e-06)) ((-3.041058e-10 -1.922688e-09 -1.213944e-09) (-1.092586e-09 -1.929254e-08 3.092894e-08))
5.405691      	((2.453074e-02 -3.053021e-04 -3.163277e-04) (5.933050e-03 -5.259224e-06 -5.533714e-06)) ((-3.534006e-10 -2.141415e-09 -1.349829e-09) (-1.576534e-09 -3.303405e-08 4.254359e-08))
5.531766      	((2.443264e-02 -3.427758e-04 -3.564700e-04) (5.924646e-03 -5.760726e-06 -6.055440e-06)) ((-3.773397e-10 -2.309677e-09 -1.437270e-09) (-1.691760e-09 -4.866896e-08 5.606604e-08))
5.657809      	((2.434359e-02 -3.852444e-04 -3.995414e-04) (5.916632e-03 -6.306702e-06 -6.655929e-06)) ((-4.112958e-10 -2.427426e-09 -1.514424e-09) (-1.587505e-09 -6.538786e-08 7.154509e-08))
5.783823      	((2.426247e-02 -4.334819e-04 -4.474947e-04) (5.908947e-03 -6.926513e-06 -7.324061e-06)) ((-4.678491e-10 -2.619292e-09 -1.645472e-09) (-1.210016e-09 -8.309575e-08 8.849231e-08))
5.909812      	((2.418886e-02 -4.881109e-04 -4.979626e-04) (5.901521e-03 -7.648029e-06 -8.090964e-06)) ((-4.983663e-10 -2.847713e-09 -1.805373e-09) (-4.273286e-10 -1.015384e-07 1.064583e-07))
6.035777      	((2.412394e-02 -5.499347e-04 -5.533540e-04) (5.894344e-03 -8.497393e-06 -8.964273e-06)) ((-4.904050e-10 -3.131559e-09 -1.979414e-09) (4.756461e-10 -1.218627e-07 1.260146e-07))
6.161719      	((2.406098e-02 -6.189287e-04 -6.168151e-04) (5.887439e-03 -9.472627e-06 -9.931623e-06)) ((-4.800427e-10 -3.465072e-09 -2.140333e-09) (1.400345e-09 -1.453517e-07 1.484934e-07))
6.287637      	((2.400163e-02 -6.952614e-04 -6.908602e-04) (5.880868e-03 -1.059071e-05 -1.101371e-05)) ((-5.063084e-10 -3.880985e-09 -2.299307e-09) (2.915608e-09 -1.718389e-07 1.737260e-07))
6.413532      	((2.394174e-02 -7.789767e-04 -7.686548e-04) (5.874669e-03 -1.184065e-05 -1.223618e-05)) ((-5.818085e-10 -4.296604e-09 -2.472375e-09) (5.143427e-09 -2.005462e-07 2.024651e-07))
6.539404      	((2.388298e-02 -8.709189e-04 -8.512538e-04) (5.868851e-03 -1.320031e-05 -1.360139e-05)) ((-6.626994e-10 -4.764952e-09 -2.688289e-09) (7.838059e-09 -2.309086e-07 2.363033e-07))
6.665254      	((2.382065e-02 -9.739419e-04 -9.403651e-04) (5.863357e-03 -1.469126e-05 -1.509761e-05)) ((-7.823530e-10 -5.359719e-09 -2.935275e-09) (1.061235e-08 -2.625143e-07 2.750155e-07))
6.791083      	((2.375721e-02 -1.089045e-03 -1.040469e-03) (5.858134e-03 -1.634590e-05 -1.675405e-05)) ((-8.594468e-10 -6.144122e-09 -3.222201e-09) (1.302450e-08 -2.946047e-07 3.183092e-07))
6.916891      	((2.369275e-02 -1.214041e-03 -1.151181e-03) (5.853125e-03 -1.819345e-05 -1.860857e-05)) ((-8.639668e-10 -7.105974e-09 -3.548752e-09) (1.510586e-08 -3.268983e-07 3.649515e-07))
7.04268       	((2.362922e-02 -1.354183e-03 -1.273654e-03) (5.848298e-03 -2.029457e-05 -2.067210e-05)) ((-8.378528e-10 -8.116788e-09 -3.914814e-09) (1.727826e-08 -3.610882e-07 4.133317e-07))
7.168451      	((2.356819e-02 -1.507832e-03 -1.409253e-03) (5.843648e-03 -2.268818e-05 -2.295461e-05)) ((-7.504407e-10 -9.201501e-09 -4.351389e-09) (1.974515e-08 -3.988257e-07 4.635223e-07))
7.294204      	((2.350748e-02 -1.677248e-03 -1.560382e-03) (5.839162e-03 -2.536893e-05 -2.547282e-05)) ((-6.086158e-10 -1.031651e-08 -4.874182e-09) (2.226800e-08 -4.403458e-07 5.174184e-07))
7.419941      	((2.344969e-02 -1.866712e-03 -1.730515e-03) (5.834845e-03 -2.835665e-05 -2.826275e-05)) ((-4.410186e-10 -1.160145e-08 -5.423817e-09) (2.503002e-08 -4.854947e-07 5.757787e-07))
7.545663      	((2.339772e-02 -2.079172e-03 -1.919860e-03) (5.830711e-03 -3.167676e-05 -3.135513e-05)) ((-2.240999e-10 -1.301648e-08 -6.044674e-09) (2.812045e-08 -5.350609e-07 6.399191e-07))
7.671369      	((2.335136e-02 -2.316045e-03 -2.130637e-03) (5.826754e-03 -3.537020e-05 -3.480284e-05)) ((2.689272e-11 -1.456005e-08 -6.723801e-09) (3.098055e-08 -5.899759e-07 7.111541e-07))
7.797061      	((2.331548e-02 -2.582230e-03 -2.365922e-03) (5.822978e-03 -3.951410e-05 -3.865924e-05)) ((3.700010e-10 -1.626678e-08 -7.515629e-09) (3.265706e-08 -6.513844e-07 7.904337e-07))
7.922739      	((2.328702e-02 -2.879606e-03 -2.631587e-03) (5.819408e-03 -4.414791e-05 -4.297393e-05)) ((7.901652e-10 -1.823949e-08 -8.390918e-09) (3.271653e-08 -7.205926e-07 8.797856e-07))
8.048403      	((2.326692e-02 -3.210051e-03 -2.928164e-03) (5.815984e-03 -4.931710e-05 -4.781609e-05)) ((1.313506e-09 -2.033347e-08 -9.329898e-09) (3.187698e-08 -7.989056e-07 9.806217e-07))
8.174055      	((2.325560e-02 -3.576213e-03 -3.259160e-03) (5.812709e-03 -5.514638e-05 -5.322978e-05)) ((1.898873e-09 -2.259508e-08 -1.029836e-08) (3.098969e-08 -8.881820e-07 1.091396e-06))
8.299693      	((2.325189e-02 -3.979646e-03 -3.625168e-03) (5.809668e-03 -6.170745e-05 -5.922028e-05)) ((2.404921e-09 -2.499118e-08 -1.137266e-08) (3.070695e-08 -9.919541e-07 1.210744e-06))
8.425318      	((2.326231e-02 -4.431117e-03 -4.032795e-03) (5.807013e-03 -6.910701e-05 -6.584332e-05)) ((2.923792e-09 -2.762070e-08 -1.254378e-08) (3.099682e-08 -1.110006e-06 1.335926e-06))
8.550931      	((2.328053e-02 -4.930806e-03 -4.489193e-03) (5.804846e-03 -7.751579e-05 -7.320182e-05)) ((3.578963e-09 -3.063973e-08 -1.378087e-08) (3.228766e-08 -1.241410e-06 1.462935e-06))
8.676532      	((2.331449e-02 -5.481722e-03 -4.993502e-03) (5.803229e-03 -8.705857e-05 -8.135269e-05)) ((4.413793e-09 -3.392990e-08 -1.511564e-08) (3.440890e-08 -1.390330e-06 1.594354e-06))
8.80212       	((2.335607e-02 -6.091265e-03 -5.552408e-03) (5.802196e-03 -9.777246e-05 -9.034804e-05)) ((5.385610e-09 -3.746205e-08 -1.645720e-08) (3.752542e-08 -1.560263e-06 1.735324e-06))
8.927697      	((2.341873e-02 -6.766356e-03 -6.174297e-03) (5.801915e-03 -1.097430e-04 -1.003865e-04)) ((6.654378e-09 -4.124398e-08 -1.777622e-08) (4.128893e-08 -1.747711e-06 1.887686e-06))
9.053265      	((2.351011e-02 -7.507532e-03 -6.864639e-03) (5.802503e-03 -1.230574e-04 -1.116907e-04)) ((8.355620e-09 -4.536983e-08 -1.899705e-08) (4.499579e-08 -1.951871e-06 2.055181e-06))
9.178833      	((2.363140e-02 -8.336434e-03 -7.633588e-03) (5.803969e-03 -1.378058e-04 -1.244832e-04)) ((1.039634e-08 -4.997728e-08 -2.022397e-08) (4.597976e-08 -2.174217e-06 2.244647e-06))
9.30436       	((2.378943e-02 -9.267178e-03 -8.503267e-03) (5.806390e-03 -1.541330e-04 -1.390008e-04)) ((1.290250e-08 -5.537628e-08 -2.138645e-08) (4.357322e-08 -2.412882e-06 2.463889e-06))
9.42984       	((2.400142e-02 -1.030786e-02 -9.465035e-03) (5.810053e-03 -1.722669e-04 -1.554981e-04)) ((1.633323e-08 -6.096395e-08 -2.235198e-08) (3.719884e-08 -2.664057e-06 2.718043e-06))
9.555274      	((2.425565e-02 -1.145808e-02 -1.052980e-02) (5.815138e-03 -1.923724e-04 -1.740594e-04)) ((2.076452e-08 -6.686948e-08 -2.316652e-08) (2.509769e-08 -2.931062e-06 3.007568e-06))
9.680661      	((2.458044e-02 -1.272622e-02 -1.170161e-02) (5.821922e-03 -2.145896e-04 -1.947509e-04)) ((2.597063e-08 -7.321976e-08 -2.440198e-08) (9.305941e-09 -3.223025e-06 3.335228e-06))
9.805996      	((2.499966e-02 -1.411351e-02 -1.297576e-02) (5.830953e-03 -2.391465e-04 -2.176821e-04)) ((3.204305e-08 -8.014233e-08 -2.562079e-08) (-3.370340e-09 -3.534201e-06 3.698134e-06))
9.931278      	((2.551814e-02 -1.562586e-02 -1.435876e-02) (5.842764e-03 -2.662358e-04 -2.429634e-04)) ((3.897846e-08 -8.809799e-08 -2.651334e-08) (-8.234448e-09 -3.852614e-06 4.083576e-06))
10.056504     	((2.614396e-02 -1.726990e-02 -1.584913e-02) (5.857787e-03 -2.961406e-04 -2.709335e-04)) ((4.691584e-08 -9.723328e-08 -2.697946e-08) (-3.872823e-09 -4.168567e-06 4.483272e-06))
10.181673     	((2.689488e-02 -1.903359e-02 -1.744539e-02) (5.876500e-03 -3.291241e-04 -3.018698e-04)) ((5.579084e-08 -1.070446e-07 -2.687903e-08) (5.038183e-09 -4.481891e-06 4.896110e-06))
10.306786     	((2.781336e-02 -2.087719e-02 -1.909868e-02) (5.899271e-03 -3.652213e-04 -3.356398e-04)) ((6.548025e-08 -1.162349e-07 -2.696018e-08) (1.249065e-08 -4.802237e-06 5.326830e-06))
10.431847     	((2.888994e-02 -2.278897e-02 -2.080876e-02) (5.926716e-03 -4.043472e-04 -3.719478e-04)) ((7.611263e-08 -1.249989e-07 -2.749329e-08) (1.396487e-08 -5.133029e-06 5.767230e-06))
10.556856     	((3.014404e-02 -2.473825e-02 -2.254417e-02) (5.959446e-03 -4.464311e-04 -4.107864e-04)) ((8.738422e-08 -1.325509e-07 -2.830626e-08) (8.723979e-09 -5.459503e-06 6.203693e-06))
10.681805     	((3.158635e-02 -2.667644e-02 -2.426061e-02) (5.997764e-03 -4.912856e-04 -4.520111e-04)) ((9.966797e-08 -1.382214e-07 -2.903171e-08) (-9.250149e-09 -5.764695e-06 6.614236e-06))
10.806709     	((3.326027e-02 -2.853086e-02 -2.592414e-02) (6.042713e-03 -5.384230e-04 -4.952446e-04)) ((1.130613e-07 -1.408224e-07 -2.956120e-08) (-3.900575e-08 -6.042009e-06 6.982316e-06))
10.931586     	((3.511105e-02 -3.024920e-02 -2.744876e-02) (6.094747e-03 -5.871551e-04 -5.396324e-04)) ((1.263592e-07 -1.405851e-07 -2.973057e-08) (-6.922669e-08 -6.276298e-06 7.289312e-06))
11.056437     	((3.704928e-02 -3.177484e-02 -2.877723e-02) (6.153791e-03 -6.359115e-04 -5.832942e-04)) ((1.381521e-07 -1.376985e-07 -2.920997e-08) (-9.327381e-08 -6.483747e-06 7.539829e-06))
11.18125      	((3.901418e-02 -3.293593e-02 -2.978189e-02) (6.218812e-03 -6.831535e-04 -6.249507e-04)) ((1.473993e-07 -1.314144e-07 -2.733996e-08) (-1.164602e-07 -6.644411e-06 7.711612e-06))
11.306053     	((4.081144e-02 -3.365690e-02 -3.035067e-02) (6.287514e-03 -7.277037e-04 -6.635017e-04)) ((1.526180e-07 -1.230677e-07 -2.373475e-08) (-1.507254e-07 -6.715411e-06 7.765086e-06))
