# Forces      
# CofR        : (0.000000e+00 0.000000e+00 0.000000e+00)
# Time        forces(pressure viscous)	moments(pressure viscous)
0             	((0.000000e+00 0.000000e+00 0.000000e+00) (7.130411e-16 1.265197e-05 -1.611161e-15)) ((0.000000e+00 0.000000e+00 0.000000e+00) (3.535094e-16 -3.347205e-18 -4.553938e-12))
0.012         	((-1.869078e-10 3.679402e-03 -7.225746e-10) (-9.171685e-12 1.452080e-05 -1.108389e-11)) ((1.481551e-12 -4.233221e-15 -6.953547e-10) (5.270270e-14 1.969826e-15 -9.502262e-12))
0.0264        	((-1.625687e-08 -2.525768e-04 4.476941e-09) (-2.729185e-11 1.481833e-05 -7.370671e-12)) ((-3.426018e-12 -2.081139e-13 4.647042e-11) (-1.018623e-13 -2.404710e-14 -1.290318e-11))
0.04368       	((4.580200e-08 -7.708553e-04 -2.910771e-08) (1.491113e-11 1.317089e-05 -1.681987e-11)) ((-1.539370e-12 3.258459e-13 1.844783e-10) (-5.256059e-13 -3.513416e-14 -1.115004e-11))
0.064416      	((-7.902884e-09 -7.301795e-06 1.259898e-08) (2.151942e-10 1.166659e-05 1.603138e-10)) ((1.203989e-12 2.944991e-13 -7.846206e-12) (1.064263e-12 -5.060829e-14 -1.403843e-11))
0.0892992     	((-7.159300e-09 1.031337e-05 9.663907e-09) (2.781402e-10 1.077141e-05 2.851483e-10)) ((3.261827e-13 -6.388663e-13 -1.026755e-11) (2.122149e-12 -1.053417e-13 -1.547023e-11))
0.119159      	((3.684368e-09 -1.147940e-05 1.136471e-08) (2.237462e-10 9.946604e-06 2.720418e-10)) ((1.093579e-12 1.057192e-13 2.564634e-12) (-4.906900e-13 -8.004266e-14 -1.375648e-11))
0.154991      	((2.040079e-10 -6.209929e-06 -9.912339e-10) (1.744480e-10 9.071441e-06 2.551770e-10)) ((5.868287e-13 1.209222e-13 7.709046e-13) (-3.071743e-12 -1.715611e-13 -1.064419e-11))
0.197989      	((1.396434e-09 -1.506097e-06 -2.867671e-09) (7.940821e-11 8.187399e-06 1.672885e-10)) ((7.781094e-13 -3.771939e-14 1.303711e-13) (-3.571617e-12 -6.642191e-13 -3.353719e-12))
0.249587      	((1.179434e-09 1.987520e-07 -7.028960e-10) (1.146785e-11 7.319525e-06 8.242780e-11)) ((5.647672e-13 -1.400449e-14 -7.354470e-13) (-3.065093e-12 -9.039613e-13 2.177644e-13))
0.311504      	((1.228115e-09 9.796088e-07 -1.532479e-10) (-1.113241e-11 6.493699e-06 3.338633e-11)) ((3.641828e-13 -1.668346e-14 -9.961032e-13) (-2.381939e-12 -7.285077e-13 8.710648e-13))
0.385805      	((2.473986e-10 1.352115e-06 -2.351540e-10) (-1.276147e-11 5.730722e-06 5.380312e-12)) ((2.552375e-13 -5.001077e-15 -8.256675e-13) (-1.453100e-12 -6.333035e-13 1.904615e-12))
0.474966      	((-1.366303e-10 1.527135e-06 -2.650657e-10) (-1.354975e-11 5.046118e-06 -1.149417e-11)) ((1.595393e-13 -4.428855e-15 -6.818751e-13) (-7.201904e-13 -5.940183e-13 1.236796e-12))
0.581959      	((-3.286837e-10 1.597369e-06 -2.265375e-10) (-2.284237e-11 4.446829e-06 -2.105678e-11)) ((9.958365e-14 -3.856172e-15 -5.803553e-13) (-3.974438e-13 -4.650181e-13 -2.192297e-12))
0.710351      	((-2.562485e-10 1.591047e-06 -2.267939e-10) (-4.503978e-13 3.933329e-06 -2.601049e-11)) ((5.498979e-14 -3.256274e-15 -4.687680e-13) (-3.836657e-13 -3.077845e-13 -5.358368e-12))
0.864421      	((-1.846012e-10 1.533464e-06 -1.837270e-10) (4.115223e-11 3.499089e-06 -2.832013e-11)) ((2.987579e-14 -5.844954e-15 -4.732800e-13) (-2.015860e-13 -1.894693e-13 -5.572030e-12))
1.049306      	((-1.348005e-10 1.448856e-06 -1.524163e-10) (7.044524e-11 3.132987e-06 -2.175102e-11)) ((1.299814e-14 -3.444696e-15 -4.620048e-13) (-1.799955e-13 -1.079001e-13 -3.566770e-12))
1.271167      	((-8.349165e-11 1.355207e-06 -1.123186e-10) (7.215497e-11 2.823476e-06 -1.544803e-11)) ((3.284734e-15 -3.233255e-15 -4.259040e-13) (-2.481660e-13 -8.167263e-14 -1.031670e-12))
1.5374        	((-2.027498e-11 1.259633e-06 -8.559023e-11) (5.871434e-11 2.558276e-06 -1.179365e-11)) ((-2.564726e-15 -2.500708e-15 -4.197728e-13) (-2.169466e-13 -6.777697e-14 9.322434e-13))
1.85688       	((-5.202583e-13 1.166415e-06 -6.336466e-11) (4.589269e-11 2.326189e-06 -9.621102e-12)) ((-2.999689e-15 -1.224526e-15 -4.234859e-13) (-8.914610e-14 -4.884373e-14 1.966816e-12))
2.240256      	((-1.378832e-11 1.077971e-06 -5.840058e-11) (3.463779e-11 2.119873e-06 -1.157086e-11)) ((-6.975107e-16 -8.412125e-16 -4.240208e-13) (-7.774370e-14 -4.661099e-14 1.907237e-12))
2.700307      	((-2.080719e-11 9.954759e-07 -6.465473e-11) (3.854223e-11 1.934799e-06 -1.437582e-11)) ((4.516190e-16 -7.304015e-16 -4.210217e-13) (-2.163941e-13 -4.284352e-14 2.889392e-13))
3.252369      	((-2.394862e-11 9.185485e-07 -6.327101e-11) (4.451297e-11 1.767976e-06 -1.425810e-11)) ((1.371447e-15 -1.175838e-15 -3.896426e-13) (-4.063268e-13 -3.530654e-14 -2.387230e-12))
3.914842      	((-7.335295e-12 8.462336e-07 -5.864970e-11) (3.712939e-11 1.617232e-06 -1.324019e-11)) ((1.941229e-15 -1.999778e-15 -3.540618e-13) (-5.604911e-13 -3.293124e-14 -4.883767e-12))
4.709811      	((3.354754e-11 7.790642e-07 -4.505693e-11) (2.950229e-11 1.480983e-06 -1.312552e-11)) ((2.997540e-15 -3.482486e-15 -3.179329e-13) (-6.748597e-13 -2.681837e-14 -6.817418e-12))
5.663773      	((7.290176e-11 7.171142e-07 -3.308877e-11) (2.030748e-11 1.358067e-06 -1.261233e-11)) ((3.933404e-15 -4.128430e-15 -2.868512e-13) (-7.282177e-13 -3.157339e-14 -7.716906e-12))
6.808528      	((8.112188e-11 6.602373e-07 -2.896633e-11) (1.132242e-11 1.247480e-06 -1.086017e-11)) ((4.403242e-15 -3.727717e-15 -2.514317e-13) (-7.526177e-13 -3.401756e-14 -7.655854e-12))
8.182233      	((7.080156e-11 6.081913e-07 -3.162377e-11) (8.251549e-12 1.148199e-06 -8.398770e-12)) ((4.653688e-15 -3.628848e-15 -2.168402e-13) (-8.631177e-13 -2.791451e-15 -7.320606e-12))
9.83068       	((6.462764e-11 5.609091e-07 -4.036760e-11) (9.385690e-12 1.059008e-06 -7.530439e-12)) ((5.890246e-15 -3.985918e-15 -1.880853e-13) (-1.174455e-12 2.065461e-14 -6.983410e-12))
11.808816     	((4.202549e-11 5.176750e-07 -6.184559e-11) (1.000029e-11 9.786103e-07 -8.315760e-12)) ((6.306454e-15 -4.289494e-15 -1.635542e-13) (-1.704636e-12 1.194895e-14 -6.312532e-12))
14.182579     	((2.574453e-11 4.781742e-07 -7.809542e-11) (8.887189e-12 9.058192e-07 -1.021173e-11)) ((7.602054e-15 -4.713880e-15 -1.425195e-13) (-2.476079e-12 5.591138e-15 -5.053557e-12))
17.031095     	((1.592213e-11 4.421340e-07 -7.752255e-11) (6.528111e-12 8.396479e-07 -1.258853e-11)) ((7.800371e-15 -4.949975e-15 -1.233020e-13) (-3.473086e-12 4.293850e-15 -3.556564e-12))
20.449314     	((-1.235200e-11 4.092648e-07 -9.639692e-11) (4.725813e-12 7.793418e-07 -1.545130e-11)) ((8.619065e-15 -4.654476e-15 -1.077238e-13) (-4.508194e-12 1.445169e-14 -2.205212e-12))
24.551176     	((-1.197500e-11 3.791974e-07 -7.902151e-11) (4.382113e-12 7.243402e-07 -1.512228e-11)) ((8.825869e-15 -4.309914e-15 -9.535849e-14) (-5.466683e-12 3.725246e-14 -1.013911e-12))
29.473411     	((7.794434e-12 3.518069e-07 -4.985356e-11) (5.252157e-12 6.742354e-07 -1.157260e-11)) ((7.773724e-15 -3.982327e-15 -8.493279e-14) (-6.315345e-12 4.546642e-14 6.438687e-14))
35.380094     	((2.308822e-11 3.268998e-07 -2.926060e-11) (7.270984e-12 6.286807e-07 -7.594141e-12)) ((6.509692e-15 -3.668881e-15 -7.710117e-14) (-7.219170e-12 4.675632e-14 1.133734e-12))
42.468112     	((3.640409e-11 3.044003e-07 -1.191981e-11) (7.324600e-12 5.873347e-07 -4.119855e-12)) ((6.066161e-15 -3.554597e-15 -7.103655e-14) (-8.332667e-12 3.871943e-14 2.337742e-12))
50.973735     	((5.744572e-11 2.841061e-07 1.160121e-11) (8.888087e-12 5.498551e-07 -2.778719e-13)) ((6.238822e-15 -3.650465e-15 -6.566810e-14) (-9.670154e-12 2.173779e-14 3.813007e-12))
61.180482     	((7.469189e-11 2.658444e-07 2.703320e-11) (1.162178e-11 5.158966e-07 3.706309e-12)) ((6.245203e-15 -3.380118e-15 -6.111557e-14) (-1.127110e-11 -3.351297e-15 5.669572e-12))
73.428578     	((9.219716e-11 2.494834e-07 4.615290e-11) (1.559421e-11 4.851078e-07 6.386900e-12)) ((5.506254e-15 -3.110709e-15 -5.805134e-14) (-1.311401e-11 -1.578658e-14 7.859494e-12))
88.126294     	((1.251452e-10 2.348667e-07 8.075230e-11) (1.867688e-11 4.571735e-07 7.974784e-12)) ((4.555140e-15 -3.017627e-15 -5.601254e-14) (-1.514900e-11 -1.970202e-14 1.028179e-11))
105.763553    	((1.497871e-10 2.218925e-07 1.058246e-10) (2.148969e-11 4.318148e-07 7.852881e-12)) ((3.697849e-15 -2.740082e-15 -5.418274e-14) (-1.726828e-11 -2.718340e-14 1.281850e-11))
126.928263    	((1.614507e-10 2.105005e-07 1.166011e-10) (1.952948e-11 4.088083e-07 5.523703e-12)) ((2.784558e-15 -2.471173e-15 -5.256903e-14) (-1.933239e-11 -3.238014e-14 1.524266e-11))
152.325916    	((1.734207e-10 2.005610e-07 1.283540e-10) (1.603917e-11 3.879702e-07 2.509469e-12)) ((2.030501e-15 -2.269542e-15 -5.135987e-14) (-2.124415e-11 -2.812135e-14 1.746341e-11))
182.803099    	((1.791115e-10 1.919685e-07 1.337559e-10) (1.281035e-11 3.691441e-07 -1.037213e-12)) ((1.271647e-15 -2.001317e-15 -5.066730e-14) (-2.291163e-11 -2.524830e-14 1.938543e-11))
219.375719    	((1.988469e-10 1.845828e-07 1.510972e-10) (1.139247e-11 3.522002e-07 -4.440745e-12)) ((5.232196e-16 -1.742206e-15 -5.075483e-14) (-2.426107e-11 -2.670992e-14 2.097675e-11))
263.262863    	((2.128090e-10 1.783517e-07 1.582863e-10) (1.098943e-11 3.370196e-07 -6.866114e-12)) ((-4.638629e-17 -1.615819e-15 -5.144380e-14) (-2.525999e-11 -1.660654e-14 2.224988e-11))
315.927436    	((2.109551e-10 1.732329e-07 1.601346e-10) (1.034992e-11 3.235013e-07 -8.429558e-12)) ((-4.776257e-16 -1.474644e-15 -5.246657e-14) (-2.588303e-11 -8.339987e-15 2.317313e-11))
379.124923    	((2.109744e-10 1.691307e-07 1.625025e-10) (9.578980e-12 3.115578e-07 -9.592093e-12)) ((-7.315225e-16 -1.138310e-15 -5.410208e-14) (-2.614078e-11 -6.919559e-15 2.371813e-11))
454.961908    	((2.163143e-10 1.659822e-07 1.708637e-10) (1.045411e-11 3.011052e-07 -8.710130e-12)) ((-1.050133e-15 -1.082780e-15 -5.632714e-14) (-2.606974e-11 -1.060942e-14 2.388050e-11))
545.966289    	((2.185613e-10 1.636654e-07 1.736423e-10) (1.279299e-11 2.920581e-07 -6.506833e-12)) ((-1.152565e-15 -1.120441e-15 -5.844916e-14) (-2.568010e-11 -9.752296e-15 2.370487e-11))
655.171547    	((2.185069e-10 1.619956e-07 1.760547e-10) (1.622651e-11 2.843194e-07 -3.189797e-12)) ((-1.095819e-15 -9.816681e-16 -6.018216e-14) (-2.500644e-11 -7.908650e-15 2.320608e-11))
786.217856    	((2.167583e-10 1.608136e-07 1.768355e-10) (2.094244e-11 2.777748e-07 1.466650e-12)) ((-1.034687e-15 -9.630180e-16 -6.158598e-14) (-2.408447e-11 -8.543122e-15 2.241003e-11))
943.473427    	((2.130357e-10 1.599682e-07 1.760058e-10) (2.723003e-11 2.722963e-07 7.358584e-12)) ((-1.040721e-15 -9.664373e-16 -6.254194e-14) (-2.293267e-11 -1.255078e-14 2.134788e-11))
1130.209489   	((2.069160e-10 1.593546e-07 1.696099e-10) (3.443608e-11 2.677550e-07 1.388357e-11)) ((-9.304723e-16 -9.562589e-16 -6.313527e-14) (-2.160382e-11 -1.817403e-14 2.008121e-11))
1346.46528    	((1.962516e-10 1.588863e-07 1.608025e-10) (4.209915e-11 2.640207e-07 2.072713e-11)) ((-7.439348e-16 -1.024329e-15 -6.337882e-14) (-2.014163e-11 -2.171058e-14 1.867911e-11))
1592.277237   	((1.825253e-10 1.585019e-07 1.509046e-10) (4.934522e-11 2.609654e-07 2.763551e-11)) ((-5.109274e-16 -1.031424e-15 -6.353785e-14) (-1.860331e-11 -2.583135e-14 1.719088e-11))
1867.679932   	((1.705005e-10 1.581841e-07 1.410561e-10) (5.609934e-11 2.584773e-07 3.418934e-11)) ((-2.637357e-16 -1.011295e-15 -6.363522e-14) (-1.705401e-11 -2.870231e-14 1.567448e-11))
2163.903685   	((1.590652e-10 1.579294e-07 1.312673e-10) (6.198017e-11 2.564613e-07 3.996077e-11)) ((-5.287849e-17 -1.007702e-15 -6.372799e-14) (-1.554841e-11 -2.889326e-14 1.419295e-11))
2460.404631   	((1.475405e-10 1.577315e-07 1.213754e-10) (6.675315e-11 2.548362e-07 4.466190e-11)) ((1.203633e-16 -9.955539e-16 -6.371821e-14) (-1.412478e-11 -2.844835e-14 1.278415e-11))
2757.139911   	((1.365957e-10 1.575624e-07 1.117931e-10) (7.044697e-11 2.535245e-07 4.830784e-11)) ((2.522254e-16 -9.787582e-16 -6.367564e-14) (-1.280230e-11 -2.794871e-14 1.146608e-11))
3054.070516   	((1.262349e-10 1.574249e-07 1.026734e-10) (7.306035e-11 2.524687e-07 5.093931e-11)) ((3.847769e-16 -9.624641e-16 -6.365730e-14) (-1.159632e-11 -2.748852e-14 1.025946e-11))
3351.161683   	((1.161902e-10 1.573092e-07 9.393681e-11) (7.475337e-11 2.516176e-07 5.268947e-11)) ((5.017489e-16 -9.486798e-16 -6.363666e-14) (-1.050751e-11 -2.579465e-14 9.169258e-12))
3648.384381   	((1.068031e-10 1.572145e-07 8.580058e-11) (7.563791e-11 2.509320e-07 5.365138e-11)) ((6.082805e-16 -9.385342e-16 -6.361942e-14) (-9.538388e-12 -2.391665e-14 8.200524e-12))
3945.714123   	((9.841658e-11 1.571353e-07 7.814958e-11) (7.587556e-11 2.503786e-07 5.396766e-11)) ((7.132418e-16 -9.317970e-16 -6.360905e-14) (-8.683417e-12 -2.215240e-14 7.346927e-12))
4243.130799   	((9.102581e-11 1.570704e-07 7.124764e-11) (7.562207e-11 2.499319e-07 5.378238e-11)) ((8.202858e-16 -9.256797e-16 -6.360285e-14) (-7.934737e-12 -2.081243e-14 6.599946e-12))
4540.61782    	((8.450831e-11 1.570164e-07 6.511025e-11) (7.503184e-11 2.495707e-07 5.322152e-11)) ((9.162386e-16 -9.221216e-16 -6.360388e-14) (-7.282720e-12 -1.965758e-14 5.948064e-12))
4838.16169    	((7.867652e-11 1.569722e-07 5.953222e-11) (7.418852e-11 2.492785e-07 5.237529e-11)) ((9.986409e-16 -9.195835e-16 -6.361108e-14) (-6.719192e-12 -1.872186e-14 5.383472e-12))
5135.751419   	((7.364989e-11 1.569356e-07 5.479434e-11) (7.316424e-11 2.490418e-07 5.135465e-11)) ((1.068428e-15 -9.181503e-16 -6.361949e-14) (-6.233978e-12 -1.805607e-14 4.898280e-12))
5433.378125   	((6.933998e-11 1.569059e-07 5.057584e-11) (7.203419e-11 2.488499e-07 5.023105e-11)) ((1.128623e-15 -9.181650e-16 -6.362920e-14) (-5.818384e-12 -1.752927e-14 4.483517e-12))
5731.034632   	((6.569557e-11 1.568811e-07 4.708795e-11) (7.086994e-11 2.486941e-07 4.906467e-11)) ((1.178375e-15 -9.181237e-16 -6.364032e-14) (-5.464457e-12 -1.708936e-14 4.130208e-12))
6028.715159   	((6.256544e-11 1.568609e-07 4.401745e-11) (6.972405e-11 2.485676e-07 4.790721e-11)) ((1.220549e-15 -9.179726e-16 -6.365140e-14) (-5.164055e-12 -1.674115e-14 3.830336e-12))
6326.415052   	((5.995814e-11 1.568443e-07 4.149502e-11) (6.862734e-11 2.484647e-07 4.680422e-11)) ((1.257648e-15 -9.188685e-16 -6.366252e-14) (-4.909723e-12 -1.649290e-14 3.577126e-12))
6624.130564   	((5.776201e-11 1.568308e-07 3.933353e-11) (6.760400e-11 2.483811e-07 4.577598e-11)) ((1.289072e-15 -9.196196e-16 -6.367203e-14) (-4.695135e-12 -1.626605e-14 3.363766e-12))
6921.858688   	((5.591303e-11 1.568195e-07 3.757901e-11) (6.667030e-11 2.483130e-07 4.484248e-11)) ((1.315479e-15 -9.203075e-16 -6.367956e-14) (-4.514628e-12 -1.607119e-14 3.184578e-12))
7219.597003   	((5.437902e-11 1.568101e-07 3.608791e-11) (6.583320e-11 2.482575e-07 4.400182e-11)) ((1.337974e-15 -9.210009e-16 -6.368636e-14) (-4.363270e-12 -1.587603e-14 3.034261e-12))
7517.343557   	((5.311825e-11 1.568026e-07 3.491540e-11) (6.509197e-11 2.482123e-07 4.325707e-11)) ((1.355861e-15 -9.204703e-16 -6.369230e-14) (-4.236738e-12 -1.569387e-14 2.908623e-12))
7815.096786   	((5.206654e-11 1.567964e-07 3.390575e-11) (6.444084e-11 2.481754e-07 4.260246e-11)) ((1.371205e-15 -9.199368e-16 -6.369792e-14) (-4.131235e-12 -1.552916e-14 2.803943e-12))
8112.855428   	((5.121018e-11 1.567914e-07 3.306672e-11) (6.387580e-11 2.481453e-07 4.203424e-11)) ((1.383685e-15 -9.197087e-16 -6.370264e-14) (-4.043472e-12 -1.539257e-14 2.716884e-12))
8410.618466   	((5.051346e-11 1.567870e-07 3.232045e-11) (6.338974e-11 2.481207e-07 4.154422e-11)) ((1.393850e-15 -9.197593e-16 -6.370628e-14) (-3.970628e-12 -1.527397e-14 2.644645e-12))
8708.385073   	((4.992224e-11 1.567833e-07 3.170398e-11) (6.297429e-11 2.481007e-07 4.112680e-11)) ((1.402353e-15 -9.196757e-16 -6.370949e-14) (-3.910303e-12 -1.517299e-14 2.584842e-12))
9006.154588   	((4.944102e-11 1.567805e-07 3.123499e-11) (6.262145e-11 2.480842e-07 4.077287e-11)) ((1.409429e-15 -9.195531e-16 -6.371232e-14) (-3.860430e-12 -1.508944e-14 2.535424e-12))
9303.926476   	((4.904389e-11 1.567781e-07 3.081734e-11) (6.232464e-11 2.480708e-07 4.047480e-11)) ((1.415224e-15 -9.192027e-16 -6.371447e-14) (-3.819278e-12 -1.501347e-14 2.494639e-12))
9601.700303   	((4.872955e-11 1.567762e-07 3.053151e-11) (6.207546e-11 2.480598e-07 4.022563e-11)) ((1.419834e-15 -9.192377e-16 -6.371614e-14) (-3.785334e-12 -1.495087e-14 2.461074e-12))
9899.47572    	((4.846728e-11 1.567745e-07 3.024875e-11) (6.186834e-11 2.480508e-07 4.001792e-11)) ((1.423866e-15 -9.191448e-16 -6.371765e-14) (-3.757396e-12 -1.489923e-14 2.433469e-12))
10197.252433  	((4.825578e-11 1.567734e-07 3.010701e-11) (6.169726e-11 2.480435e-07 3.984764e-11)) ((1.427356e-15 -9.187109e-16 -6.371906e-14) (-3.734416e-12 -1.485349e-14 2.410778e-12))
10495.03021   	((4.808805e-11 1.567722e-07 2.988986e-11) (6.155610e-11 2.480374e-07 3.970601e-11)) ((1.430051e-15 -9.189492e-16 -6.371972e-14) (-3.715536e-12 -1.481752e-14 2.392142e-12))
10792.808862  	((4.794980e-11 1.567714e-07 2.974597e-11) (6.144066e-11 2.480325e-07 3.959025e-11)) ((1.432193e-15 -9.189002e-16 -6.372052e-14) (-3.700026e-12 -1.478822e-14 2.376838e-12))
11090.588232  	((4.783621e-11 1.567706e-07 2.961424e-11) (6.134651e-11 2.480284e-07 3.949533e-11)) ((1.433981e-15 -9.188552e-16 -6.372116e-14) (-3.687293e-12 -1.476375e-14 2.364286e-12))
11388.368188  	((4.774619e-11 1.567701e-07 2.952602e-11) (6.126994e-11 2.480251e-07 3.941872e-11)) ((1.435432e-15 -9.187655e-16 -6.372167e-14) (-3.676847e-12 -1.474337e-14 2.353984e-12))
