# Forces      
# CofR        : (0.000000e+00 0.000000e+00 0.000000e+00)
# Time        forces(pressure viscous)	moments(pressure viscous)
0             	((0.000000e+00 0.000000e+00 0.000000e+00) (-1.140508e-13 7.993344e-04 3.054902e-15)) ((0.000000e+00 0.000000e+00 0.000000e+00) (3.926673e-15 1.775486e-16 -2.921652e-10))
0.012         	((8.567235e-08 2.324700e-01 4.191409e-08) (-2.024081e-11 9.155820e-04 -6.292396e-10)) ((7.604174e-11 1.757888e-12 -4.367783e-08) (6.810982e-12 2.339132e-13 -5.457609e-10))
0.0264        	((-2.886487e-06 -2.014436e-02 -1.059874e-06) (-1.505327e-09 9.299143e-04 -1.300767e-09)) ((-5.070026e-11 -1.251258e-11 2.377624e-09) (1.610417e-12 1.252691e-14 -6.262227e-10))
0.04368       	((4.774888e-06 -4.647841e-02 -2.766377e-07) (4.631619e-09 8.223568e-04 -1.017019e-09)) ((-1.581058e-10 2.905300e-11 1.266992e-08) (-2.774848e-11 -1.003324e-12 -3.869187e-10))
0.064416      	((1.216777e-07 -4.168815e-04 1.009952e-06) (1.992502e-08 7.264183e-04 8.141717e-09)) ((6.654865e-11 1.961381e-11 -1.390059e-09) (2.148287e-11 -2.968212e-12 -1.997430e-10))
0.0892992     	((-2.677569e-07 2.583711e-04 4.740327e-07) (2.972772e-08 6.694408e-04 1.062671e-08)) ((1.206161e-11 -2.197578e-11 -5.557234e-10) (2.618137e-11 -1.579762e-12 3.964506e-10))
0.119159      	((3.542193e-07 -8.117578e-04 5.593668e-07) (3.378454e-08 6.181299e-04 7.890200e-09)) ((2.731860e-11 9.355285e-12 7.455743e-10) (-5.385436e-11 -6.095773e-12 9.681417e-10))
0.154991      	((9.534025e-08 -3.372938e-04 1.506330e-07) (3.007370e-08 5.650914e-04 7.480681e-09)) ((3.964912e-11 3.904459e-12 3.400197e-10) (-3.966661e-11 -7.202987e-12 1.146424e-09))
0.197989      	((4.112941e-08 -5.603044e-05 -9.339898e-08) (1.757476e-08 5.134504e-04 5.854933e-09)) ((2.390422e-11 2.660856e-12 9.151104e-11) (1.692838e-11 1.188847e-13 1.236966e-09))
0.249587      	((-1.113870e-07 3.914852e-05 -8.165770e-08) (-4.768886e-09 4.648418e-04 5.354535e-09)) ((1.377443e-11 3.306584e-12 4.462803e-11) (-7.873502e-12 3.617844e-12 1.415119e-09))
0.311504      	((-1.873451e-07 8.706092e-05 -7.878928e-08) (-2.454567e-08 4.205237e-04 5.013175e-09)) ((1.154755e-11 1.573109e-12 2.128457e-11) (-4.615278e-11 4.612399e-12 1.408583e-09))
0.385805      	((-1.520318e-07 1.137495e-04 -7.529161e-08) (-3.367258e-08 3.811559e-04 4.420625e-09)) ((7.058627e-12 -4.314584e-13 3.026185e-12) (-4.088177e-11 6.375022e-12 1.245552e-09))
0.474966      	((-1.297726e-07 1.264609e-04 -6.186482e-08) (-3.692372e-08 3.467194e-04 3.454744e-09)) ((3.359705e-12 -1.029609e-12 -8.140692e-12) (-2.226600e-11 9.398974e-12 1.065001e-09))
0.581959      	((-8.759824e-08 1.310595e-04 -3.993921e-08) (-3.490234e-08 3.163755e-04 2.308979e-09)) ((2.169776e-12 -8.191467e-13 -1.668886e-11) (-1.269300e-12 1.100050e-11 9.850270e-10))
0.710351      	((-5.772030e-08 1.305451e-04 -2.984020e-08) (-2.829211e-08 2.886420e-04 9.763517e-10)) ((1.274651e-12 -4.742464e-13 -1.793763e-11) (2.252085e-11 1.026316e-11 1.175530e-09))
0.864421      	((-1.628672e-08 1.265752e-04 -2.621785e-08) (-1.806588e-08 2.624476e-04 -4.473266e-10)) ((7.628453e-13 -4.482965e-13 -7.778021e-12) (3.737179e-11 9.931629e-12 1.427731e-09))
1.049306      	((4.426124e-09 1.204621e-04 -1.786620e-08) (-9.938005e-09 2.377436e-04 -1.475023e-09)) ((-3.322939e-14 -5.083031e-14 -1.639486e-12) (4.726139e-11 1.068851e-11 1.652255e-09))
1.271167      	((-3.461741e-09 1.134423e-04 -1.060272e-08) (-7.180654e-09 2.148865e-04 -1.901055e-09)) ((-7.061094e-13 -3.306130e-14 -6.470842e-12) (4.816276e-11 9.955637e-12 1.777043e-09))
1.5374        	((1.092358e-08 1.067590e-04 -1.026772e-08) (-6.470959e-09 1.941823e-04 -1.986342e-09)) ((-1.188761e-12 1.362454e-14 -1.717443e-11) (3.565194e-11 9.401996e-12 1.714312e-09))
1.85688       	((1.016527e-08 1.011396e-04 -8.364051e-09) (-4.673138e-09 1.757779e-04 -1.878667e-09)) ((-1.006052e-12 7.657337e-15 -2.594916e-11) (6.370872e-12 9.241875e-12 1.577303e-09))
2.240256      	((-2.942493e-09 9.697427e-05 -8.524041e-09) (-3.226611e-09 1.596130e-04 -1.538371e-09)) ((-5.550062e-13 -8.992444e-14 -3.258977e-11) (-4.114365e-11 9.393890e-12 1.432615e-09))
2.700307      	((-2.646285e-08 9.443556e-05 -2.140212e-08) (-3.595809e-09 1.455131e-04 -1.147219e-09)) ((1.042614e-13 -6.676083e-15 -3.914166e-11) (-1.012142e-10 8.539786e-12 1.291649e-09))
3.252369      	((-4.874345e-08 9.381243e-05 -4.250214e-08) (-3.261381e-09 1.332920e-04 -1.106332e-09)) ((9.876621e-13 7.551943e-14 -5.120733e-11) (-1.602361e-10 7.240075e-12 1.257572e-09))
3.914842      	((-5.418692e-08 9.498075e-05 -4.730849e-08) (-3.643406e-09 1.227943e-04 -1.322496e-09)) ((1.289027e-12 2.271893e-13 -6.389342e-11) (-1.947298e-10 6.349826e-12 1.221670e-09))
4.709811      	((-5.754616e-08 9.832935e-05 -6.310285e-08) (-4.101375e-09 1.138783e-04 -1.898954e-09)) ((1.280157e-12 1.805589e-13 -7.962431e-11) (-1.807679e-10 5.876809e-12 1.157467e-09))
5.663773      	((-4.028438e-08 1.039024e-04 -5.612058e-08) (-2.158663e-09 1.063781e-04 -2.495050e-09)) ((1.067925e-12 2.563341e-13 -1.017261e-10) (-1.222092e-10 5.313738e-12 1.156697e-09))
6.808528      	((-2.446186e-08 1.116962e-04 -4.982487e-08) (1.684500e-09 1.001583e-04 -2.820075e-09)) ((7.484764e-13 1.380846e-13 -1.310562e-10) (-4.808312e-11 2.913319e-12 1.208127e-09))
8.177356      	((-1.394533e-10 1.215929e-04 -3.441043e-08) (4.076080e-09 9.507104e-05 -2.501643e-09)) ((4.288221e-13 8.820673e-14 -1.668856e-10) (3.647757e-11 1.482589e-12 1.473595e-09))
9.77072       	((2.677286e-08 1.332399e-04 -1.438153e-08) (5.915552e-09 9.100639e-05 -1.641286e-09)) ((-2.068652e-13 2.821811e-13 -2.048452e-10) (1.179079e-10 4.278323e-13 1.857050e-09))
11.588746     	((4.694045e-08 1.459261e-04 3.124584e-09) (7.346967e-09 8.783854e-05 1.966106e-10)) ((-1.267507e-12 4.920255e-13 -2.487106e-10) (2.122037e-10 -3.005614e-13 2.129575e-09))
13.630857     	((6.178794e-08 1.591948e-04 1.315988e-08) (9.852843e-09 8.540816e-05 2.423491e-09)) ((-2.073989e-12 6.639654e-13 -2.899846e-10) (3.148755e-10 -9.198261e-13 2.220823e-09))
15.860018     	((7.352654e-08 1.721218e-04 1.883399e-08) (1.245186e-08 8.355341e-05 3.923263e-09)) ((-2.764009e-12 1.083289e-12 -3.253149e-10) (3.684114e-10 -6.042447e-13 2.150054e-09))
18.074742     	((6.791089e-08 1.833605e-04 1.304343e-08) (1.294800e-08 8.219862e-05 4.063731e-09)) ((-2.794862e-12 1.543114e-12 -3.528495e-10) (3.587349e-10 -1.085491e-12 2.035971e-09))
20.277651     	((8.392137e-08 1.924365e-04 2.525357e-08) (1.251976e-08 8.103914e-05 2.710044e-09)) ((-3.181297e-12 1.788521e-12 -3.778848e-10) (2.443449e-10 -1.928425e-13 1.874962e-09))
22.477166     	((9.834155e-08 1.987443e-04 3.821784e-08) (1.335387e-08 7.995179e-05 1.159505e-09)) ((-2.799306e-12 2.426595e-12 -3.986990e-10) (8.670777e-11 -5.020176e-13 1.710116e-09))
24.682687     	((1.038279e-07 2.031826e-04 4.828470e-08) (1.280594e-08 7.895884e-05 -1.026102e-09)) ((-3.025829e-12 2.799002e-12 -4.177831e-10) (-1.378613e-10 -2.775645e-12 1.723735e-09))
26.899002     	((7.241498e-08 2.050808e-04 2.550741e-08) (8.024336e-09 7.806837e-05 -3.552729e-09)) ((-2.398005e-12 2.929879e-12 -4.316507e-10) (-3.770663e-10 -2.896999e-12 1.981895e-09))
29.125873     	((4.560035e-08 2.052588e-04 1.301046e-08) (1.804628e-09 7.722722e-05 -6.344288e-09)) ((-1.867584e-12 3.102176e-12 -4.402093e-10) (-5.478887e-10 -2.269100e-12 2.292048e-09))
31.361232     	((1.212573e-08 2.043938e-04 -1.039829e-08) (-1.658563e-09 7.639551e-05 -9.376805e-09)) ((-1.144158e-12 3.239651e-12 -4.449169e-10) (-7.145893e-10 -3.326551e-12 2.463037e-09))
33.603815     	((2.080745e-08 2.032352e-04 2.083905e-09) (-5.072887e-09 7.561417e-05 -1.269212e-08)) ((-1.185371e-12 3.272553e-12 -4.463007e-10) (-8.967393e-10 -4.694308e-12 2.559355e-09))
35.851252     	((5.337618e-08 2.020402e-04 2.102052e-08) (-5.063046e-09 7.491177e-05 -1.398179e-08)) ((-8.818603e-13 3.266084e-12 -4.454883e-10) (-1.019814e-09 -5.325808e-12 2.592362e-09))
38.101869     	((5.382076e-08 2.003235e-04 1.250557e-08) (-3.841572e-09 7.426687e-05 -1.369334e-08)) ((-2.085653e-13 3.281370e-12 -4.438834e-10) (-1.059778e-09 -4.688738e-12 2.583523e-09))
40.356592     	((5.671261e-08 1.987631e-04 4.627481e-10) (-3.730109e-09 7.366905e-05 -1.419976e-08)) ((-1.431128e-13 3.306730e-12 -4.430490e-10) (-1.058842e-09 -5.964495e-12 2.517438e-09))
42.615923     	((6.341054e-08 1.973319e-04 -1.068489e-08) (-2.983296e-09 7.311614e-05 -1.487434e-08)) ((-1.309046e-13 3.304849e-12 -4.426591e-10) (-1.031404e-09 -6.996118e-12 2.455909e-09))
44.879835     	((6.617565e-08 1.961275e-04 -2.771161e-08) (-2.217214e-09 7.260507e-05 -1.524096e-08)) ((4.488324e-14 3.415323e-12 -4.427924e-10) (-9.807853e-10 -5.178193e-12 2.440323e-09))
47.148375     	((9.271047e-08 1.951073e-04 -3.869303e-08) (-8.074809e-10 7.213353e-05 -1.538600e-08)) ((6.890444e-15 3.504426e-12 -4.434728e-10) (-9.100880e-10 -5.900239e-12 2.428419e-09))
49.421524     	((1.332463e-07 1.941547e-04 -2.813319e-08) (2.153277e-09 7.169367e-05 -1.476540e-08)) ((-3.661115e-13 3.513291e-12 -4.440158e-10) (-8.220765e-10 -7.008135e-12 2.405055e-09))
51.699323     	((1.612555e-07 1.932405e-04 -3.526030e-08) (5.884117e-09 7.128119e-05 -1.337288e-08)) ((-3.697231e-13 3.595913e-12 -4.444243e-10) (-7.243401e-10 -7.360795e-12 2.367592e-09))
53.982091     	((1.829518e-07 1.924086e-04 -5.038819e-08) (9.713901e-09 7.089590e-05 -1.241844e-08)) ((-3.223440e-13 3.709895e-12 -4.447178e-10) (-6.270938e-10 -7.912524e-12 2.336542e-09))
56.270159     	((2.045511e-07 1.916600e-04 -6.049117e-08) (1.333259e-08 7.053978e-05 -1.191794e-08)) ((-3.712761e-13 3.783924e-12 -4.449070e-10) (-5.273068e-10 -8.980951e-12 2.310084e-09))
58.563434     	((2.303694e-07 1.908936e-04 -7.506133e-08) (1.740456e-08 7.020788e-05 -1.137764e-08)) ((-4.509635e-13 3.837905e-12 -4.450564e-10) (-4.200266e-10 -1.033669e-11 2.260270e-09))
60.861738     	((2.511314e-07 1.902029e-04 -9.211526e-08) (2.214908e-08 6.989827e-05 -1.065277e-08)) ((-3.467464e-13 3.744905e-12 -4.453288e-10) (-2.863355e-10 -1.030614e-11 2.164588e-09))
63.16492      	((2.722091e-07 1.895360e-04 -1.186621e-07) (2.663358e-08 6.960924e-05 -1.007668e-08)) ((-8.674039e-14 3.725277e-12 -4.455186e-10) (-1.290329e-10 -9.705777e-12 2.044120e-09))
65.472834     	((2.966114e-07 1.888656e-04 -1.425320e-07) (3.099818e-08 6.933652e-05 -1.028067e-08)) ((-7.214694e-14 3.633947e-12 -4.455594e-10) (2.483447e-12 -8.439031e-12 1.923116e-09))
67.785358     	((3.239604e-07 1.881033e-04 -1.649127e-07) (3.556035e-08 6.907380e-05 -1.072456e-08)) ((-1.996003e-14 3.393174e-12 -4.455983e-10) (1.283551e-10 -6.106585e-12 1.808418e-09))
70.102454     	((3.423583e-07 1.874193e-04 -1.872689e-07) (3.971437e-08 6.882138e-05 -1.152951e-08)) ((4.742116e-14 3.129605e-12 -4.456233e-10) (2.387812e-10 -4.912429e-12 1.702646e-09))
72.424099     	((3.723451e-07 1.867932e-04 -2.091528e-07) (4.362273e-08 6.858115e-05 -1.293476e-08)) ((2.249494e-14 2.909441e-12 -4.455523e-10) (3.157043e-10 -3.147787e-12 1.610218e-09))
74.750227     	((4.119275e-07 1.862731e-04 -2.296910e-07) (4.768719e-08 6.835512e-05 -1.486564e-08)) ((-8.945277e-14 2.756884e-12 -4.455218e-10) (3.604969e-10 -1.212689e-12 1.540164e-09))
77.080724     	((4.570576e-07 1.857607e-04 -2.528500e-07) (5.200620e-08 6.814283e-05 -1.729309e-08)) ((-7.488979e-14 2.602438e-12 -4.454388e-10) (3.828181e-10 -4.896584e-13 1.498121e-09))
79.415454     	((5.153805e-07 1.852144e-04 -2.746122e-07) (5.676369e-08 6.793982e-05 -2.008170e-08)) ((-3.323532e-14 2.432306e-12 -4.454314e-10) (3.815562e-10 4.082400e-13 1.496408e-09))
81.754263     	((5.661950e-07 1.847122e-04 -2.934700e-07) (6.146054e-08 6.774412e-05 -2.322859e-08)) ((2.546359e-14 2.273525e-12 -4.456403e-10) (3.516407e-10 1.514923e-12 1.535835e-09))
84.09699      	((6.348356e-07 1.841960e-04 -3.226757e-07) (6.634092e-08 6.755306e-05 -2.694952e-08)) ((2.065653e-13 2.223669e-12 -4.458465e-10) (3.028840e-10 2.174587e-12 1.613338e-09))
86.443502     	((7.050995e-07 1.836821e-04 -3.487312e-07) (7.152755e-08 6.736650e-05 -3.093821e-08)) ((4.087584e-13 2.229047e-12 -4.459770e-10) (2.497007e-10 2.973615e-12 1.733416e-09))
88.793644     	((7.921494e-07 1.831591e-04 -3.806544e-07) (7.744910e-08 6.718552e-05 -3.523751e-08)) ((7.539198e-13 2.240250e-12 -4.459937e-10) (1.970655e-10 2.787713e-12 1.886945e-09))
91.147273     	((8.983020e-07 1.826734e-04 -4.191586e-07) (8.457421e-08 6.701226e-05 -3.998336e-08)) ((1.176289e-12 2.234695e-12 -4.460691e-10) (1.472732e-10 1.231508e-12 2.058270e-09))
93.504261     	((1.017682e-06 1.821833e-04 -4.749374e-07) (9.292739e-08 6.684595e-05 -4.546726e-08)) ((1.705593e-12 2.225635e-12 -4.462106e-10) (1.068930e-10 6.581652e-13 2.245875e-09))
95.864493     	((1.150785e-06 1.817864e-04 -5.332231e-07) (1.023618e-07 6.668817e-05 -5.166774e-08)) ((2.153320e-12 2.260355e-12 -4.464382e-10) (8.042554e-11 1.217299e-12 2.454314e-09))
98.227888     	((1.303241e-06 1.814250e-04 -6.082780e-07) (1.133403e-07 6.654034e-05 -5.869969e-08)) ((2.750625e-12 2.333369e-12 -4.466304e-10) (7.330501e-11 2.051106e-12 2.684681e-09))
100.594362    	((1.472111e-06 1.810492e-04 -6.952366e-07) (1.263334e-07 6.639991e-05 -6.663472e-08)) ((3.478141e-12 2.319913e-12 -4.467147e-10) (9.545859e-11 1.764066e-12 2.927064e-09))
102.962624    	((1.646936e-06 1.806696e-04 -7.938682e-07) (1.408681e-07 6.626522e-05 -7.540678e-08)) ((4.268445e-12 2.237930e-12 -4.467609e-10) (1.488384e-10 -1.123931e-13 3.176280e-09))
105.332529    	((1.822241e-06 1.802912e-04 -8.989384e-07) (1.564579e-07 6.613569e-05 -8.491402e-08)) ((5.107962e-12 2.145394e-12 -4.467095e-10) (2.352205e-10 -2.814496e-12 3.430569e-09))
107.704098    	((1.997327e-06 1.799195e-04 -1.012575e-06) (1.728510e-07 6.601087e-05 -9.500295e-08)) ((5.971424e-12 2.013060e-12 -4.465974e-10) (3.549746e-10 -6.712396e-12 3.684276e-09))
110.077341    	((2.180729e-06 1.795408e-04 -1.146149e-06) (1.901310e-07 6.589000e-05 -1.059615e-07)) ((7.023278e-12 1.817563e-12 -4.464196e-10) (5.067755e-10 -1.231910e-11 3.930860e-09))
112.452243    	((2.369571e-06 1.791638e-04 -1.299404e-06) (2.085690e-07 6.577239e-05 -1.182098e-07)) ((8.095910e-12 1.604273e-12 -4.463154e-10) (6.896480e-10 -1.755574e-11 4.154098e-09))
114.828778    	((2.566896e-06 1.788221e-04 -1.470920e-06) (2.284482e-07 6.565882e-05 -1.319617e-07)) ((9.241031e-12 1.433048e-12 -4.463035e-10) (9.010191e-10 -2.249013e-11 4.344635e-09))
117.206916    	((2.780569e-06 1.785081e-04 -1.658721e-06) (2.500310e-07 6.554978e-05 -1.472496e-07)) ((1.049621e-11 1.224120e-12 -4.463414e-10) (1.143132e-09 -2.843838e-11 4.508962e-09))
119.586615    	((2.999690e-06 1.782144e-04 -1.862867e-06) (2.731926e-07 6.544516e-05 -1.640858e-07)) ((1.181563e-11 1.001988e-12 -4.464200e-10) (1.415153e-09 -3.545905e-11 4.652185e-09))
121.967842    	((3.229925e-06 1.779366e-04 -2.081052e-06) (2.979252e-07 6.534496e-05 -1.824793e-07)) ((1.318157e-11 8.054439e-13 -4.465083e-10) (1.714791e-09 -4.210593e-11 4.773677e-09))
124.350562    	((3.478531e-06 1.776790e-04 -2.312777e-06) (3.243238e-07 6.524922e-05 -2.024932e-07)) ((1.460966e-11 6.438507e-13 -4.466078e-10) (2.038683e-09 -4.842360e-11 4.888635e-09))
126.734755    	((3.753373e-06 1.774385e-04 -2.557480e-06) (3.527924e-07 6.515802e-05 -2.240979e-07)) ((1.612348e-11 5.842800e-13 -4.467010e-10) (2.381200e-09 -5.371074e-11 5.011124e-09))
129.1205      	((4.061293e-06 1.772086e-04 -2.820089e-06) (3.837902e-07 6.507115e-05 -2.474800e-07)) ((1.775861e-11 6.019226e-13 -4.467482e-10) (2.736493e-09 -5.814418e-11 5.152635e-09))
131.507794    	((4.406300e-06 1.769911e-04 -3.099800e-06) (4.177132e-07 6.498845e-05 -2.728878e-07)) ((1.949156e-11 6.828863e-13 -4.467567e-10) (3.100295e-09 -6.127762e-11 5.329082e-09))
133.896571    	((4.795936e-06 1.767905e-04 -3.395212e-06) (4.548940e-07 6.491009e-05 -3.003779e-07)) ((2.125337e-11 8.482386e-13 -4.467391e-10) (3.466908e-09 -6.451281e-11 5.563088e-09))
136.28679     	((5.235501e-06 1.766030e-04 -3.709339e-06) (4.956816e-07 6.483629e-05 -3.301022e-07)) ((2.312275e-11 1.096792e-12 -4.466774e-10) (3.833667e-09 -6.823684e-11 5.876153e-09))
138.678431    	((5.739165e-06 1.764175e-04 -4.044232e-06) (5.408084e-07 6.476687e-05 -3.622362e-07)) ((2.511989e-11 1.417737e-12 -4.465579e-10) (4.198973e-09 -7.057658e-11 6.279393e-09))
141.071474    	((6.308687e-06 1.762378e-04 -4.400818e-06) (5.909787e-07 6.470162e-05 -3.969419e-07)) ((2.728121e-11 1.726264e-12 -4.463813e-10) (4.561515e-09 -7.165464e-11 6.784715e-09))
143.465917    	((6.957148e-06 1.760613e-04 -4.793379e-06) (6.470814e-07 6.463989e-05 -4.348334e-07)) ((2.973335e-11 2.037088e-12 -4.461531e-10) (4.923347e-09 -7.149577e-11 7.398939e-09))
145.861768    	((7.687243e-06 1.758897e-04 -5.220713e-06) (7.099782e-07 6.458081e-05 -4.764223e-07)) ((3.238118e-11 2.293081e-12 -4.458927e-10) (5.281858e-09 -7.157326e-11 8.122473e-09))
148.259063    	((8.516222e-06 1.757147e-04 -5.700233e-06) (7.813506e-07 6.452369e-05 -5.227411e-07)) ((3.544772e-11 2.579063e-12 -4.455891e-10) (5.631428e-09 -7.033739e-11 8.931409e-09))
150.65785     	((9.438938e-06 1.755510e-04 -6.229256e-06) (8.623534e-07 6.446845e-05 -5.745119e-07)) ((3.885590e-11 2.880654e-12 -4.452982e-10) (5.974090e-09 -6.692326e-11 9.807875e-09))
153.058186    	((1.046953e-05 1.753870e-04 -6.812872e-06) (9.535389e-07 6.441508e-05 -6.320531e-07)) ((4.265603e-11 3.080762e-12 -4.449646e-10) (6.326377e-09 -6.630579e-11 1.077689e-08))
155.459011    	((1.160147e-05 1.752389e-04 -7.456965e-06) (1.054969e-06 6.436428e-05 -6.955897e-07)) ((4.685489e-11 3.260455e-12 -4.445524e-10) (6.710851e-09 -7.353840e-11 1.186861e-08))
157.859482    	((1.283887e-05 1.751096e-04 -8.176037e-06) (1.166855e-06 6.431661e-05 -7.657063e-07)) ((5.161624e-11 3.509047e-12 -4.440622e-10) (7.151844e-09 -8.651802e-11 1.309702e-08))
160.259436    	((1.417907e-05 1.750086e-04 -8.965310e-06) (1.289767e-06 6.427227e-05 -8.426160e-07)) ((5.669219e-11 3.746343e-12 -4.435257e-10) (7.667296e-09 -1.019663e-10 1.444375e-08))
162.658705    	((1.562976e-05 1.749318e-04 -9.841427e-06) (1.424601e-06 6.423128e-05 -9.268893e-07)) ((6.229833e-11 4.018388e-12 -4.429879e-10) (8.274751e-09 -1.160285e-10 1.588300e-08))
165.057118    	((1.719260e-05 1.748826e-04 -1.081892e-05) (1.571869e-06 6.419373e-05 -1.019849e-06)) ((6.851791e-11 4.511500e-12 -4.424526e-10) (8.979561e-09 -1.165058e-10 1.742153e-08))
167.454494    	((1.888383e-05 1.748536e-04 -1.191785e-05) (1.732883e-06 6.415996e-05 -1.123085e-06)) ((7.546502e-11 5.256255e-12 -4.418840e-10) (9.784558e-09 -1.031092e-10 1.903214e-08))
169.850643    	((2.071175e-05 1.748643e-04 -1.314384e-05) (1.908933e-06 6.413114e-05 -1.237834e-06)) ((8.304232e-11 6.136276e-12 -4.411688e-10) (1.070356e-08 -9.037144e-11 2.069745e-08))
172.245361    	((2.269216e-05 1.749103e-04 -1.450872e-05) (2.101389e-06 6.410780e-05 -1.365046e-06)) ((9.138269e-11 7.325619e-12 -4.402564e-10) (1.176996e-08 -8.156080e-11 2.240759e-08))
174.638414    	((2.484306e-05 1.749929e-04 -1.601839e-05) (2.312515e-06 6.409069e-05 -1.505856e-06)) ((1.006118e-10 8.906710e-12 -4.391701e-10) (1.298483e-08 -7.438355e-11 2.413252e-08))
177.029472    	((2.718778e-05 1.751327e-04 -1.768578e-05) (2.544370e-06 6.408050e-05 -1.661299e-06)) ((1.107552e-10 1.103222e-11 -4.380531e-10) (1.437773e-08 -7.633675e-11 2.587399e-08))
179.418297    	((2.974276e-05 1.753462e-04 -1.953034e-05) (2.798530e-06 6.407838e-05 -1.832904e-06)) ((1.217941e-10 1.383380e-11 -4.369080e-10) (1.596040e-08 -7.756149e-11 2.767008e-08))
