# Forces      
# CofR        : (0.000000e+00 0.000000e+00 0.000000e+00)
# Time        forces(pressure viscous)	moments(pressure viscous)
0             	((0.000000e+00 0.000000e+00 0.000000e+00) (-2.212209e-13 -1.004294e-13 3.217059e-03)) ((0.000000e+00 0.000000e+00 0.000000e+00) (6.101987e-15 1.239765e-09 7.933593e-17))
0.012         	((1.448270e-06 1.193219e-06 9.281915e-01) (4.372516e-10 -2.499318e-09 3.682359e-03)) ((1.668357e-10 2.476854e-07 8.118682e-13) (1.014333e-12 3.579549e-09 3.580943e-13))
0.0264        	((-7.095347e-06 -1.454992e-05 -1.251297e-01) (-2.471993e-09 -1.146823e-08 3.701381e-03)) ((1.761195e-09 -2.893552e-08 1.769822e-11) (-1.237021e-10 5.135395e-09 -9.547320e-12))
0.04368       	((8.748352e-06 1.089902e-05 -1.604600e-01) (1.229209e-08 -9.640550e-09 3.229372e-03)) ((-2.257229e-09 -3.262847e-08 -1.663349e-11) (1.357169e-11 5.193039e-09 -2.092110e-11))
0.064416      	((-2.168707e-06 1.731513e-06 -6.238579e-04) (-1.641181e-08 1.488170e-08 2.844761e-03)) ((3.530397e-10 3.034861e-09 1.767392e-11) (5.124972e-10 5.255272e-09 -4.121966e-11))
0.0892992     	((-3.248054e-07 -8.486870e-07 -1.025839e-03) (-4.744860e-08 1.553235e-08 2.617447e-03)) ((3.394793e-10 2.865218e-09 6.199027e-12) (1.022436e-09 5.531777e-09 -7.238875e-11))
0.119159      	((-2.676727e-06 -4.412789e-07 -2.006883e-03) (-3.295595e-09 5.864368e-09 2.422607e-03)) ((3.266026e-11 2.571716e-09 -6.528176e-12) (9.988703e-10 4.987935e-09 -5.917842e-11))
0.154991      	((-2.348998e-06 -2.129642e-06 -2.111791e-04) (7.429853e-08 2.951154e-09 2.235415e-03)) ((2.724453e-11 2.973830e-09 5.413134e-12) (7.015016e-10 5.528987e-09 -5.093415e-11))
0.197989      	((-2.531867e-07 -1.621247e-06 3.428350e-04) (1.168142e-07 1.172639e-10 2.065334e-03)) ((1.419238e-11 3.239217e-09 3.157775e-12) (5.427956e-10 7.137546e-09 -7.721068e-11))
0.249587      	((-1.203227e-06 -5.397091e-07 5.796674e-04) (1.244239e-07 -5.479230e-09 1.916540e-03)) ((2.199011e-11 3.294595e-09 4.756728e-12) (4.855733e-10 8.168202e-09 -1.113556e-10))
0.311504      	((-1.587788e-07 -6.766570e-07 7.354303e-04) (1.594174e-07 -1.780229e-08 1.787235e-03)) ((1.544959e-11 3.321871e-09 1.976105e-12) (4.729177e-10 9.471417e-09 -1.144749e-10))
0.385805      	((-1.495355e-07 -3.421510e-07 8.243081e-04) (1.797613e-07 -2.314240e-08 1.672073e-03)) ((1.580639e-11 2.917272e-09 -2.263872e-12) (4.412456e-10 1.113398e-08 -9.076785e-11))
0.474966      	((-1.106739e-07 -2.672101e-07 8.717735e-04) (1.352530e-07 -2.619154e-08 1.564152e-03)) ((2.179749e-11 2.608187e-09 -3.783389e-12) (3.856084e-10 1.239466e-08 -6.517772e-11))
0.581959      	((-3.375309e-07 -1.578346e-07 9.005694e-04) (7.752767e-08 -2.754067e-08 1.458832e-03)) ((2.231834e-11 2.369369e-09 -3.660261e-12) (3.432907e-10 1.299886e-08 -4.554360e-11))
0.710351      	((-3.083534e-07 -1.348006e-08 9.274905e-04) (5.461421e-08 -2.258784e-08 1.356512e-03)) ((2.397929e-11 2.188677e-09 -1.457567e-12) (4.427354e-10 1.276897e-08 -3.832173e-11))
0.864421      	((-3.780672e-07 -9.635203e-08 9.654526e-04) (6.148709e-08 -1.778701e-08 1.259621e-03)) ((2.277952e-11 2.005939e-09 -1.517629e-12) (7.891766e-10 1.149048e-08 -3.182043e-11))
1.049306      	((-4.438228e-07 -1.848014e-07 1.025933e-03) (7.922010e-08 -1.341000e-08 1.169955e-03)) ((1.872383e-11 1.846529e-09 -1.573779e-12) (1.384927e-09 9.300892e-09 -1.896612e-11))
1.271167      	((-5.116837e-07 -4.105445e-07 1.113147e-03) (1.025154e-07 -1.010435e-08 1.088540e-03)) ((1.356630e-11 1.712445e-09 6.362919e-13) (2.010971e-09 6.823649e-09 -5.680139e-12))
1.5374        	((-7.045291e-07 -5.889229e-07 1.233842e-03) (9.298194e-08 -1.389374e-08 1.016125e-03)) ((9.475371e-12 1.621145e-09 2.192905e-12) (2.357306e-09 5.269908e-09 -4.203842e-13))
1.85342       	((-8.390155e-07 -6.521134e-07 1.394501e-03) (6.651225e-08 -2.128538e-08 9.536401e-04)) ((1.322874e-11 1.535540e-09 2.101867e-12) (2.276389e-09 5.041053e-09 -9.581628e-13))
2.218821      	((-8.505997e-07 -6.825307e-07 1.595492e-03) (5.213078e-08 -2.689834e-08 9.015832e-04)) ((1.197238e-11 1.449474e-09 -5.533875e-14) (1.917885e-09 6.010288e-09 2.111025e-12))
2.633221      	((-7.799039e-07 -5.363866e-07 1.834960e-03) (2.751250e-08 -2.962759e-08 8.589025e-04)) ((4.869785e-12 1.358172e-09 -1.766772e-12) (1.527526e-09 8.247924e-09 4.030716e-12))
3.096161      	((-7.054946e-07 -3.229045e-07 2.109629e-03) (-7.325622e-09 -2.796722e-08 8.241014e-04)) ((-6.949707e-12 1.250257e-09 -2.216915e-12) (1.229105e-09 1.182713e-08 -3.474532e-12))
3.575987      	((-6.238135e-07 -1.959863e-08 2.401431e-03) (-4.302506e-08 -2.252461e-08 7.971363e-04)) ((-7.991412e-12 1.170171e-09 -1.334832e-12) (9.787278e-10 1.671060e-08 -1.689093e-11))
4.049504      	((-4.798808e-07 2.037582e-07 2.684412e-03) (-3.772697e-08 -6.593368e-09 7.763484e-04)) ((-1.283109e-11 1.213524e-09 3.504389e-13) (2.574325e-10 2.270489e-08 -1.200366e-11))
4.516779      	((-1.144333e-07 4.364770e-07 2.945340e-03) (2.989233e-09 1.737701e-09 7.600268e-04)) ((-1.633168e-11 1.314272e-09 2.983329e-12) (1.060519e-10 2.637530e-08 -1.001657e-11))
4.979223      	((-3.006954e-07 1.906682e-07 3.160980e-03) (2.796117e-09 -1.442739e-08 7.473840e-04)) ((1.177480e-13 1.416582e-09 5.498367e-12) (1.136820e-09 2.608044e-08 -1.255719e-11))
5.439136      	((-3.465844e-07 3.058518e-07 3.315682e-03) (-1.873616e-08 -4.573064e-08 7.372714e-04)) ((4.468911e-12 1.487470e-09 5.205663e-12) (3.141410e-09 2.379825e-08 -1.398795e-11))
5.898441      	((-1.033003e-07 6.673615e-07 3.410517e-03) (-5.201759e-08 -6.483415e-08 7.282567e-04)) ((-1.446972e-12 1.573765e-09 5.300945e-12) (4.473147e-09 2.051955e-08 -8.022619e-12))
6.357513      	((1.107594e-06 2.077849e-06 3.444514e-03) (-7.601526e-08 -5.771451e-08 7.196188e-04)) ((-4.751080e-11 1.653573e-09 3.749383e-12) (5.873003e-09 1.631473e-08 -1.005516e-11))
6.815717      	((1.080708e-06 2.427196e-06 3.415430e-03) (-8.184825e-08 -3.645697e-08 7.110285e-04)) ((-5.715824e-11 1.659004e-09 4.218812e-12) (7.300808e-09 1.162205e-08 -3.022828e-11))
7.272297      	((2.544429e-07 1.825063e-06 3.356474e-03) (-1.033369e-07 -3.231812e-08 7.027059e-04)) ((-2.710340e-11 1.623024e-09 8.708242e-12) (8.898440e-09 6.740510e-09 -3.996292e-11))
7.726949      	((-1.039765e-06 1.159185e-06 3.294938e-03) (-1.359576e-07 -4.805484e-08 6.952880e-04)) ((-4.884361e-13 1.658115e-09 1.287590e-11) (1.049698e-08 2.118387e-09 -4.764052e-11))
8.179856      	((-1.524753e-06 1.157444e-06 3.228481e-03) (-1.801104e-07 -7.486439e-08 6.889762e-04)) ((2.437990e-11 1.615879e-09 1.370244e-11) (1.234570e-08 -1.911730e-09 -4.208883e-11))
8.6314        	((-1.880933e-06 1.052836e-06 3.192755e-03) (-2.051065e-07 -8.985117e-08 6.837686e-04)) ((3.911445e-12 1.530049e-09 9.077472e-12) (1.302976e-08 -3.842438e-09 -9.528144e-12))
9.0818        	((-2.472807e-06 4.808148e-07 3.186709e-03) (-2.025607e-07 -8.454955e-08 6.793954e-04)) ((-1.146127e-11 1.449465e-09 8.492354e-12) (1.191125e-08 -2.588517e-09 2.844855e-11))
9.531125      	((-2.658365e-06 2.022495e-07 3.185721e-03) (-1.816546e-07 -7.134615e-08 6.754409e-04)) ((-3.396034e-11 1.374508e-09 1.008570e-11) (1.007790e-08 -2.816396e-10 4.973830e-11))
9.979467      	((-2.472079e-06 1.474458e-07 3.174260e-03) (-1.678480e-07 -6.234186e-08 6.715259e-04)) ((-6.492882e-11 1.330327e-09 7.256909e-12) (9.301994e-09 -4.320216e-10 5.320047e-11))
10.42694      	((-2.079897e-06 4.531678e-08 3.155040e-03) (-1.607744e-07 -5.821365e-08 6.675910e-04)) ((-7.857532e-11 1.296996e-09 6.219504e-12) (9.185540e-09 -2.347560e-09 8.018758e-11))
10.873648     	((-1.684468e-06 6.573196e-08 3.125159e-03) (-1.618510e-07 -5.585972e-08 6.636778e-04)) ((-8.772342e-11 1.271854e-09 5.181402e-12) (9.320549e-09 -4.410426e-09 9.243485e-11))
11.319707     	((-1.281613e-06 -5.261210e-08 3.092631e-03) (-1.696865e-07 -5.794852e-08 6.598004e-04)) ((-8.065432e-11 1.255445e-09 2.417824e-12) (9.575901e-09 -6.175905e-09 7.803962e-11))
11.765206     	((-1.059574e-06 -3.827287e-07 3.059535e-03) (-1.755358e-07 -6.332790e-08 6.560384e-04)) ((-6.614421e-11 1.238530e-09 4.850501e-13) (9.680874e-09 -7.687353e-09 7.418947e-11))
12.210191     	((-8.562949e-07 -6.266848e-07 3.033597e-03) (-1.780884e-07 -7.195814e-08 6.525169e-04)) ((-5.909446e-11 1.218559e-09 2.561873e-12) (9.360741e-09 -8.805870e-09 5.450342e-11))
12.654688     	((-1.044472e-06 -1.152632e-06 3.013882e-03) (-1.856847e-07 -8.684119e-08 6.492819e-04)) ((-4.586438e-11 1.191860e-09 5.205770e-12) (8.542864e-09 -9.247773e-09 6.400398e-11))
13.098731     	((-1.505023e-06 -1.792738e-06 3.001088e-03) (-1.914190e-07 -1.041640e-07 6.462684e-04)) ((-3.479396e-11 1.162970e-09 6.837077e-12) (7.183413e-09 -8.642370e-09 1.132814e-10))
13.542363     	((-1.865058e-06 -2.240190e-06 2.992663e-03) (-1.923807e-07 -1.191007e-07 6.433951e-04)) ((-2.983809e-11 1.140929e-09 7.038537e-12) (5.917832e-09 -7.671194e-09 1.691612e-10))
13.985627     	((-2.437775e-06 -2.911504e-06 2.984419e-03) (-1.970805e-07 -1.417848e-07 6.406009e-04)) ((-2.526886e-11 1.121319e-09 7.772981e-12) (5.390668e-09 -6.857883e-09 1.763160e-10))
14.428561     	((-2.327982e-06 -3.011688e-06 2.976181e-03) (-2.017598e-07 -1.693412e-07 6.379067e-04)) ((-2.796622e-11 1.117338e-09 9.682296e-12) (5.572329e-09 -6.500563e-09 1.508834e-10))
14.8712       	((-3.290736e-06 -3.953015e-06 2.965209e-03) (-2.082538e-07 -2.004765e-07 6.353203e-04)) ((-1.492013e-11 1.095920e-09 1.299397e-11) (5.984407e-09 -6.239490e-09 1.458547e-10))
15.313552     	((-4.385194e-06 -4.973436e-06 2.952880e-03) (-2.142981e-07 -2.346804e-07 6.328454e-04)) ((-3.022327e-12 1.079645e-09 1.520169e-11) (6.161110e-09 -5.664164e-09 1.318105e-10))
15.755641     	((-5.139552e-06 -5.962315e-06 2.940554e-03) (-2.162009e-07 -2.661508e-07 6.305265e-04)) ((6.410674e-12 1.064641e-09 1.588525e-11) (5.687846e-09 -4.636349e-09 9.254944e-11))
16.197468     	((-6.116726e-06 -7.080645e-06 2.927815e-03) (-2.283769e-07 -3.063279e-07 6.283891e-04)) ((2.673754e-11 1.035767e-09 1.666061e-11) (5.303015e-09 -3.730676e-09 7.787057e-11))
16.639018     	((-6.862673e-06 -8.220108e-06 2.916538e-03) (-2.585464e-07 -3.597010e-07 6.264421e-04)) ((4.234263e-11 1.009304e-09 1.881858e-11) (5.229084e-09 -3.407656e-09 5.339353e-11))
17.080334     	((-8.031248e-06 -9.585960e-06 2.904984e-03) (-3.056235e-07 -4.250151e-07 6.246602e-04)) ((5.594820e-11 9.803172e-10 2.102689e-11) (5.412904e-09 -3.467900e-09 3.256880e-11))
17.521433     	((-9.154997e-06 -1.115151e-05 2.893071e-03) (-3.606708e-07 -5.008817e-07 6.229664e-04)) ((6.377647e-11 9.557924e-10 2.274763e-11) (5.432770e-09 -3.117010e-09 4.105735e-11))
17.962312     	((-1.029910e-05 -1.305301e-05 2.880745e-03) (-4.169775e-07 -5.849282e-07 6.212710e-04)) ((6.919511e-11 9.305516e-10 2.745496e-11) (4.883318e-09 -2.180204e-09 3.683325e-11))
18.402982     	((-1.174249e-05 -1.477906e-05 2.872524e-03) (-4.801311e-07 -6.723175e-07 6.196067e-04)) ((7.147078e-11 9.041210e-10 3.078371e-11) (3.942407e-09 -1.017808e-09 -8.601018e-12))
18.843461     	((-1.276234e-05 -1.656043e-05 2.863025e-03) (-5.411030e-07 -7.585278e-07 6.179730e-04)) ((7.370964e-11 8.847678e-10 3.299785e-11) (2.551595e-09 4.262365e-10 -6.579276e-11))
19.283776     	((-1.399749e-05 -1.858343e-05 2.853044e-03) (-6.001003e-07 -8.469722e-07 6.163443e-04)) ((7.678210e-11 8.672000e-10 3.409262e-11) (9.313739e-10 1.932380e-09 -6.391860e-11))
19.723941     	((-1.516828e-05 -2.070977e-05 2.840834e-03) (-6.635665e-07 -9.480811e-07 6.147031e-04)) ((7.579638e-11 8.573779e-10 3.545434e-11) (-4.627654e-10 3.147350e-09 -2.038901e-11))
20.163969     	((-1.650866e-05 -2.299886e-05 2.831293e-03) (-7.311960e-07 -1.060001e-06 6.130871e-04)) ((7.311560e-11 8.441144e-10 3.480805e-11) (-1.935931e-09 4.277333e-09 1.081665e-11))
20.603873     	((-1.777566e-05 -2.539558e-05 2.822830e-03) (-8.018187e-07 -1.174082e-06 6.115363e-04)) ((7.460495e-11 8.301606e-10 3.304478e-11) (-3.908455e-09 5.553633e-09 2.672324e-11))
21.043665     	((-1.917752e-05 -2.790864e-05 2.814544e-03) (-8.796644e-07 -1.290160e-06 6.100591e-04)) ((8.072088e-11 8.115281e-10 3.084463e-11) (-6.268586e-09 6.802476e-09 4.271166e-11))
21.483369     	((-2.053529e-05 -3.058641e-05 2.806818e-03) (-9.633785e-07 -1.412122e-06 6.086676e-04)) ((9.038472e-11 7.936719e-10 2.980408e-11) (-8.692291e-09 7.880241e-09 5.829304e-11))
21.923007     	((-2.203668e-05 -3.349371e-05 2.798902e-03) (-1.051774e-06 -1.544639e-06 6.073610e-04)) ((1.105702e-10 7.678638e-10 2.982765e-11) (-1.093595e-08 8.716741e-09 6.901544e-11))
22.362593     	((-2.367424e-05 -3.677347e-05 2.789735e-03) (-1.146786e-06 -1.694664e-06 6.061053e-04)) ((1.301859e-10 7.426000e-10 3.003989e-11) (-1.283572e-08 9.299898e-09 1.005982e-10))
22.802135     	((-2.551790e-05 -4.029456e-05 2.781469e-03) (-1.251685e-06 -1.864116e-06 6.048774e-04)) ((1.535465e-10 7.142316e-10 3.127670e-11) (-1.446825e-08 9.748397e-09 1.350065e-10))
23.241636     	((-2.750785e-05 -4.400035e-05 2.772617e-03) (-1.367646e-06 -2.050972e-06 6.036454e-04)) ((1.785494e-10 6.840830e-10 3.093158e-11) (-1.606779e-08 1.018460e-08 1.521488e-10))
23.681101     	((-2.973110e-05 -4.813777e-05 2.764278e-03) (-1.492833e-06 -2.254019e-06 6.023980e-04)) ((2.043763e-10 6.533562e-10 3.084073e-11) (-1.792187e-08 1.076409e-08 1.699393e-10))
24.120536     	((-3.241696e-05 -5.284734e-05 2.755546e-03) (-1.629353e-06 -2.474259e-06 6.011470e-04)) ((2.365239e-10 6.189418e-10 3.096137e-11) (-2.023319e-08 1.161662e-08 1.926734e-10))
24.559946     	((-3.550006e-05 -5.809694e-05 2.746105e-03) (-1.780831e-06 -2.717849e-06 5.999009e-04)) ((2.688657e-10 5.845786e-10 3.072282e-11) (-2.289080e-08 1.275066e-08 2.169795e-10))
24.999335     	((-3.893299e-05 -6.376808e-05 2.737227e-03) (-1.948469e-06 -2.987592e-06 5.986801e-04)) ((2.963994e-10 5.529078e-10 3.184690e-11) (-2.568446e-08 1.409417e-08 2.461301e-10))
25.438708     	((-4.269256e-05 -7.010008e-05 2.729798e-03) (-2.130790e-06 -3.284138e-06 5.975032e-04)) ((3.250582e-10 5.252556e-10 3.238910e-11) (-2.876181e-08 1.576740e-08 2.578614e-10))
25.878057     	((-4.695900e-05 -7.697079e-05 2.724160e-03) (-2.328455e-06 -3.605034e-06 5.963905e-04)) ((3.585770e-10 4.959512e-10 3.238792e-11) (-3.234207e-08 1.789833e-08 2.218065e-10))
26.317357     	((-5.150950e-05 -8.456790e-05 2.719093e-03) (-2.544388e-06 -3.954679e-06 5.953480e-04)) ((3.977701e-10 4.705500e-10 3.238241e-11) (-3.640565e-08 2.036267e-08 1.441257e-10))
26.756608     	((-5.644393e-05 -9.227175e-05 2.714058e-03) (-2.780101e-06 -4.333650e-06 5.943631e-04)) ((4.280158e-10 4.488365e-10 3.138945e-11) (-4.080112e-08 2.306327e-08 6.710548e-11))
27.195812     	((-6.144063e-05 -1.001222e-04 2.708965e-03) (-3.034159e-06 -4.736687e-06 5.934190e-04)) ((4.541937e-10 4.331006e-10 2.951826e-11) (-4.541242e-08 2.602668e-08 4.597866e-11))
27.634968     	((-6.678465e-05 -1.084156e-04 2.703625e-03) (-3.301768e-06 -5.164930e-06 5.925002e-04)) ((4.798486e-10 4.183401e-10 2.790555e-11) (-5.015363e-08 2.943388e-08 8.580269e-11))
28.074024     	((-7.235835e-05 -1.172010e-04 2.697896e-03) (-3.580407e-06 -5.622261e-06 5.915894e-04)) ((5.122972e-10 4.040682e-10 2.692807e-11) (-5.507090e-08 3.334885e-08 1.625056e-10))
28.512967     	((-7.846782e-05 -1.267114e-04 2.692098e-03) (-3.873901e-06 -6.110356e-06 5.906778e-04)) ((5.486370e-10 3.869462e-10 2.586339e-11) (-6.032610e-08 3.772527e-08 2.579712e-10))
28.951803     	((-8.501063e-05 -1.369228e-04 2.686574e-03) (-4.186407e-06 -6.632216e-06 5.897691e-04)) ((5.898071e-10 3.683366e-10 2.464828e-11) (-6.600122e-08 4.252394e-08 3.348248e-10))
29.390548     	((-9.212337e-05 -1.480408e-04 2.681471e-03) (-4.524148e-06 -7.193222e-06 5.888723e-04)) ((6.387285e-10 3.471380e-10 2.365834e-11) (-7.208932e-08 4.762239e-08 4.106716e-10))
29.829248     	((-9.967876e-05 -1.600890e-04 2.676849e-03) (-4.887398e-06 -7.797445e-06 5.879992e-04)) ((6.949638e-10 3.237653e-10 2.335596e-11) (-7.858184e-08 5.300788e-08 4.982991e-10))
30.267929     	((-1.077318e-04 -1.729058e-04 2.672777e-03) (-5.276750e-06 -8.447109e-06 5.871575e-04)) ((7.552759e-10 2.951969e-10 2.369986e-11) (-8.543531e-08 5.866759e-08 5.850191e-10))
30.706602     	((-1.162143e-04 -1.865038e-04 2.669322e-03) (-5.695067e-06 -9.143335e-06 5.863520e-04)) ((8.183730e-10 2.644941e-10 2.310392e-11) (-9.263366e-08 6.450432e-08 6.417253e-10))
31.145266     	((-1.250939e-04 -2.011663e-04 2.666069e-03) (-6.141918e-06 -9.890702e-06 5.855788e-04)) ((8.849299e-10 2.314493e-10 2.284874e-11) (-1.002985e-07 7.058029e-08 6.714889e-10))
31.583884     	((-1.345117e-04 -2.169510e-04 2.663178e-03) (-6.618973e-06 -1.069450e-05 5.848388e-04)) ((9.545996e-10 1.965406e-10 2.360733e-11) (-1.084415e-07 7.682623e-08 6.955446e-10))
32.022456     	((-1.446187e-04 -2.338403e-04 2.660542e-03) (-7.129897e-06 -1.155723e-05 5.841352e-04)) ((1.027641e-09 1.577657e-10 2.469449e-11) (-1.170694e-07 8.314063e-08 7.250133e-10))
32.460953     	((-1.556393e-04 -2.522812e-04 2.657723e-03) (-7.683665e-06 -1.248661e-05 5.834577e-04)) ((1.110753e-09 1.129563e-10 2.533462e-11) (-1.262377e-07 8.951657e-08 7.755101e-10))
32.899372     	((-1.673619e-04 -2.722830e-04 2.655559e-03) (-8.284140e-06 -1.349254e-05 5.828079e-04)) ((1.201903e-09 6.416680e-11 2.623978e-11) (-1.360789e-07 9.601822e-08 9.209435e-10))
33.337706     	((-1.799358e-04 -2.940792e-04 2.653876e-03) (-8.933933e-06 -1.458644e-05 5.821922e-04)) ((1.305311e-09 1.130992e-11 2.636568e-11) (-1.466759e-07 1.027401e-07 1.149096e-09))
33.77595      	((-1.934781e-04 -3.176371e-04 2.652367e-03) (-9.638506e-06 -1.577871e-05 5.816126e-04)) ((1.421251e-09 -4.888635e-11 2.630787e-11) (-1.578594e-07 1.094752e-07 1.409063e-09))
34.214097     	((-2.079209e-04 -3.430904e-04 2.651265e-03) (-1.040224e-05 -1.707730e-05 5.810749e-04)) ((1.548641e-09 -1.153420e-10 2.781114e-11) (-1.696425e-07 1.161954e-07 1.713048e-09))
34.652141     	((-2.236664e-04 -3.705507e-04 2.650916e-03) (-1.123271e-05 -1.848550e-05 5.805827e-04)) ((1.685886e-09 -1.906904e-10 2.910529e-11) (-1.823239e-07 1.231279e-07 2.130713e-09))
35.090074     	((-2.409168e-04 -4.005899e-04 2.650889e-03) (-1.213715e-05 -2.001399e-05 5.801369e-04)) ((1.844547e-09 -2.770278e-10 3.098062e-11) (-1.959017e-07 1.302977e-07 2.635676e-09))
35.527888     	((-2.596683e-04 -4.326355e-04 2.651676e-03) (-1.312522e-05 -2.167608e-05 5.797419e-04)) ((2.012151e-09 -3.754863e-10 3.656686e-11) (-2.099387e-07 1.375552e-07 3.199718e-09))
35.965574     	((-2.800479e-04 -4.673127e-04 2.652881e-03) (-1.421052e-05 -2.348289e-05 5.794025e-04)) ((2.199169e-09 -4.888264e-10 4.513419e-11) (-2.243466e-07 1.447382e-07 3.799403e-09))
36.403124     	((-3.019778e-04 -5.047580e-04 2.654918e-03) (-1.539188e-05 -2.544855e-05 5.791174e-04)) ((2.404629e-09 -6.160514e-10 5.400070e-11) (-2.393773e-07 1.522385e-07 4.346532e-09))
36.840527     	((-3.259633e-04 -5.454624e-04 2.657846e-03) (-1.666933e-05 -2.758431e-05 5.788789e-04)) ((2.618264e-09 -7.557383e-10 6.543509e-11) (-2.558500e-07 1.604916e-07 4.752607e-09))
37.277774     	((-3.518391e-04 -5.895475e-04 2.662108e-03) (-1.805032e-05 -2.990360e-05 5.786899e-04)) ((2.842343e-09 -9.065486e-10 7.721260e-11) (-2.743321e-07 1.696293e-07 5.104511e-09))
37.714851     	((-3.800552e-04 -6.376684e-04 2.668040e-03) (-1.954890e-05 -3.242344e-05 5.785643e-04)) ((3.078805e-09 -1.069188e-09 9.117121e-11) (-2.948232e-07 1.797022e-07 5.408561e-09))
38.151743     	((-4.112686e-04 -6.905294e-04 2.675163e-03) (-2.118804e-05 -3.517662e-05 5.784906e-04)) ((3.336025e-09 -1.243945e-09 1.018884e-10) (-3.173125e-07 1.907243e-07 5.556310e-09))
38.588439     	((-4.448248e-04 -7.479464e-04 2.685047e-03) (-2.297553e-05 -3.818384e-05 5.784877e-04)) ((3.610625e-09 -1.423120e-09 1.112566e-10) (-3.422960e-07 2.029102e-07 5.605437e-09))
39.024926     	((-4.813979e-04 -8.102166e-04 2.696666e-03) (-2.492020e-05 -4.145406e-05 5.785896e-04)) ((3.899529e-09 -1.603886e-09 1.155011e-10) (-3.698702e-07 2.165736e-07 5.669633e-09))
39.46119      	((-5.213528e-04 -8.768821e-04 2.710960e-03) (-2.703086e-05 -4.499384e-05 5.788262e-04)) ((4.182193e-09 -1.787630e-09 1.100701e-10) (-3.996454e-07 2.320875e-07 5.626570e-09))
39.897218     	((-5.641869e-04 -9.480526e-04 2.727644e-03) (-2.931268e-05 -4.882888e-05 5.792425e-04)) ((4.454246e-09 -1.949592e-09 1.010818e-10) (-4.298567e-07 2.490286e-07 5.626430e-09))
40.332997     	((-6.103382e-04 -1.024437e-03 2.747082e-03) (-3.179209e-05 -5.300992e-05 5.798886e-04)) ((4.718995e-09 -2.089449e-09 8.548864e-11) (-4.586008e-07 2.663004e-07 5.701612e-09))
40.768511     	((-6.593631e-04 -1.105672e-03 2.770108e-03) (-3.447261e-05 -5.754220e-05 5.807638e-04)) ((4.987018e-09 -2.210675e-09 7.118316e-11) (-4.873415e-07 2.843532e-07 5.788764e-09))
41.20375      	((-7.114128e-04 -1.192065e-03 2.797998e-03) (-3.734160e-05 -6.239612e-05 5.818398e-04)) ((5.259673e-09 -2.333145e-09 5.980828e-11) (-5.196218e-07 3.046777e-07 5.530475e-09))
41.638705     	((-7.672546e-04 -1.284705e-03 2.830129e-03) (-4.041294e-05 -6.757524e-05 5.831333e-04)) ((5.543087e-09 -2.466688e-09 3.931646e-11) (-5.565969e-07 3.284824e-07 5.050997e-09))
42.07338      	((-8.268440e-04 -1.383163e-03 2.867219e-03) (-4.369876e-05 -7.309991e-05 5.846910e-04)) ((5.818810e-09 -2.590538e-09 1.814164e-11) (-5.971484e-07 3.560641e-07 4.767071e-09))
42.50778      	((-8.909450e-04 -1.488338e-03 2.910127e-03) (-4.720645e-05 -7.901392e-05 5.865429e-04)) ((6.087424e-09 -2.706626e-09 5.878922e-12) (-6.399245e-07 3.868591e-07 4.302176e-09))
42.941913     	((-9.581088e-04 -1.599503e-03 2.960293e-03) (-5.096793e-05 -8.534672e-05 5.887468e-04)) ((6.339289e-09 -2.790199e-09 4.207154e-12) (-6.847444e-07 4.189863e-07 3.610388e-09))
43.375657     	((-1.028492e-03 -1.716301e-03 3.017772e-03) (-5.499806e-05 -9.209287e-05 5.913583e-04)) ((6.537866e-09 -2.846568e-09 -5.582244e-13) (-7.317050e-07 4.515224e-07 3.053695e-09))
43.808979     	((-1.101943e-03 -1.839126e-03 3.084581e-03) (-5.930264e-05 -9.928871e-05 5.944612e-04)) ((6.689406e-09 -2.870697e-09 -2.011212e-11) (-7.793162e-07 4.841052e-07 2.589654e-09))
44.241882     	((-1.178066e-03 -1.965431e-03 3.160678e-03) (-6.391378e-05 -1.069785e-04 5.981396e-04)) ((6.751414e-09 -2.836107e-09 -5.961129e-11) (-8.230095e-07 5.138124e-07 1.768788e-09))
44.674356     	((-1.255202e-03 -2.095106e-03 3.247629e-03) (-6.880229e-05 -1.151500e-04 6.024441e-04)) ((6.726799e-09 -2.736906e-09 -1.321362e-10) (-8.619945e-07 5.409682e-07 5.115649e-10))
45.106425     	((-1.334167e-03 -2.226014e-03 3.344745e-03) (-7.393836e-05 -1.237191e-04 6.073721e-04)) ((6.577096e-09 -2.581210e-09 -2.116420e-10) (-8.999068e-07 5.675961e-07 -1.135698e-10))
