# Forces      
# CofR        : (0.000000e+00 0.000000e+00 0.000000e+00)
# Time        forces(pressure viscous)	moments(pressure viscous)
0             	((0.000000e+00 0.000000e+00 0.000000e+00) (-4.550817e-15 3.178045e-05 1.588228e-16)) ((0.000000e+00 0.000000e+00 0.000000e+00) (1.548101e-16 7.364394e-18 -1.146550e-11))
0.012         	((-3.717357e-10 9.242556e-03 -1.905443e-09) (-2.264076e-11 3.647252e-05 -2.764603e-11)) ((3.853808e-12 6.499980e-14 -1.747086e-09) (1.486582e-13 6.933864e-15 -2.387588e-11))
0.0264        	((-5.481559e-08 -6.386533e-04 6.866500e-09) (-7.860097e-11 3.721510e-05 -2.160289e-11)) ((-8.390097e-12 -7.421895e-13 1.146217e-10) (-2.418150e-13 -4.986460e-14 -3.241214e-11))
0.04368       	((1.366989e-07 -1.934163e-03 -6.900231e-08) (1.154342e-11 3.307349e-05 -4.465433e-11)) ((-4.048797e-12 9.120663e-13 4.667346e-10) (-1.307982e-12 -7.352926e-14 -2.803608e-11))
0.064416      	((-3.298682e-08 -1.831876e-05 3.309918e-08) (6.109205e-10 2.929432e-05 3.798592e-10)) ((3.055684e-12 6.672282e-13 -2.273191e-11) (2.747420e-12 -1.882379e-13 -3.516681e-11))
0.0892992     	((-7.785757e-09 2.544357e-05 2.250275e-08) (7.850099e-10 2.704539e-05 7.080386e-10)) ((7.623616e-13 -1.376828e-12 -2.452427e-11) (5.180537e-12 -5.977505e-13 -3.696277e-11))
0.119159      	((7.673965e-09 -2.896578e-05 3.206840e-08) (5.722639e-10 2.497395e-05 7.177003e-10)) ((2.773685e-12 3.165794e-13 6.714188e-12) (-1.905834e-12 -1.032163e-12 -3.121460e-11))
0.154991      	((-1.610548e-09 -1.560799e-05 2.461925e-09) (4.114956e-10 2.277772e-05 6.949892e-10)) ((1.334036e-12 3.274569e-13 1.685057e-12) (-8.307469e-12 -1.312011e-12 -2.271903e-11))
0.197989      	((6.487069e-09 -3.782563e-06 -7.905630e-09) (2.059674e-10 2.056164e-05 4.911907e-10)) ((1.965509e-12 -5.636664e-14 3.459931e-13) (-8.865681e-12 -1.994417e-12 -7.032181e-12))
0.249587      	((4.337273e-09 5.118368e-07 -8.692373e-10) (9.605821e-11 1.838816e-05 2.952483e-10)) ((1.306314e-12 3.510456e-14 -1.763437e-12) (-7.761765e-12 -2.562955e-12 4.973060e-13))
0.311504      	((1.409023e-09 2.477672e-06 -2.433876e-10) (2.632425e-11 1.632265e-05 1.678028e-10)) ((8.575880e-13 -1.180292e-14 -2.400036e-12) (-6.295443e-12 -2.852447e-12 4.770432e-12))
0.385805      	((3.816825e-10 3.416143e-06 -6.085897e-10) (1.865201e-11 1.441772e-05 8.397426e-11)) ((6.097055e-13 2.896147e-15 -1.913216e-12) (-3.944417e-12 -2.847283e-12 9.273118e-12))
0.474966      	((-2.793673e-10 3.864153e-06 -4.808999e-10) (4.155538e-11 1.271046e-05 3.711503e-11)) ((3.875377e-13 -2.639240e-14 -1.583017e-12) (-1.756044e-12 -2.395802e-12 4.092600e-12))
0.581959      	((-2.024528e-10 4.046793e-06 -4.166905e-10) (1.743070e-11 1.121522e-05 -5.312785e-12)) ((2.554236e-13 -1.032710e-14 -1.315331e-12) (5.022180e-14 -1.754136e-12 -7.623714e-12))
0.710351      	((-2.553904e-10 4.032273e-06 -4.774298e-10) (3.669648e-11 9.931226e-06 -3.581814e-11)) ((1.539860e-13 -1.208177e-14 -1.093355e-12) (6.404963e-13 -1.202913e-12 -1.224931e-11))
0.864421      	((-3.046272e-10 3.887472e-06 -5.121430e-10) (8.862394e-11 8.842073e-06 -4.277296e-11)) ((7.275005e-14 -1.234148e-14 -1.142005e-12) (4.462119e-13 -9.285665e-13 -9.058542e-12))
1.049306      	((-1.969786e-10 3.673837e-06 -4.474003e-10) (1.222719e-10 7.920623e-06 -3.235633e-11)) ((2.612953e-14 -1.083792e-14 -1.141936e-12) (-1.466065e-13 -7.784603e-13 -4.758583e-12))
1.271167      	((-1.208714e-10 3.436377e-06 -3.861008e-10) (1.787909e-10 7.138689e-06 -2.458890e-11)) ((5.673565e-16 -6.206962e-15 -1.040634e-12) (-4.506084e-13 -6.410416e-13 -2.688444e-12))
1.5374        	((1.641234e-11 3.192468e-06 -2.720943e-10) (2.378116e-10 6.466563e-06 -2.224191e-11)) ((-1.046843e-14 -5.716197e-15 -1.013096e-12) (-4.262815e-13 -5.065135e-13 -2.885937e-12))
1.85688       	((1.907737e-10 2.953467e-06 -1.808458e-10) (2.305589e-10 5.877336e-06 -1.725135e-11)) ((-9.922850e-15 -3.744650e-15 -1.010640e-12) (-4.670644e-13 -4.135634e-13 -3.838301e-12))
2.240256      	((1.903073e-10 2.726008e-06 -1.111508e-10) (1.757635e-10 5.353356e-06 -1.458409e-11)) ((-6.509158e-15 -1.517028e-15 -1.001050e-12) (-7.872944e-13 -3.743711e-13 -5.348925e-12))
2.700307      	((1.595578e-10 2.513331e-06 -5.370537e-11) (1.398419e-10 4.883795e-06 -1.966950e-11)) ((-3.636035e-15 -2.138168e-15 -9.937031e-13) (-1.359514e-12 -3.655506e-13 -8.841568e-12))
3.252369      	((1.936927e-10 2.314731e-06 -2.392280e-11) (1.130790e-10 4.461225e-06 -2.495745e-11)) ((-2.788579e-16 -2.452214e-15 -9.307738e-13) (-1.861666e-12 -3.506399e-13 -1.294740e-11))
3.914842      	((7.756842e-11 2.128116e-06 -2.191630e-11) (5.058759e-11 4.079912e-06 -2.487098e-11)) ((2.163565e-15 -5.030315e-15 -8.457659e-13) (-2.106552e-12 -2.550499e-13 -1.493432e-11))
4.709811      	((6.839409e-12 1.954964e-06 -4.677229e-11) (-4.860002e-12 3.735720e-06 -2.253251e-11)) ((3.932272e-15 -7.271534e-15 -7.564643e-13) (-2.113027e-12 -1.531071e-13 -1.557544e-11))
5.663773      	((-9.992944e-11 1.795943e-06 -1.127132e-10) (-2.885594e-11 3.425613e-06 -2.094745e-11)) ((8.032323e-15 -8.966867e-15 -6.799025e-13) (-2.014565e-12 -1.533934e-13 -1.661307e-11))
6.808528      	((-7.005542e-11 1.650844e-06 -1.126471e-10) (-2.163170e-11 3.146908e-06 -1.716584e-11)) ((1.225702e-14 -6.975770e-15 -5.911962e-13) (-1.956764e-12 -1.416403e-13 -1.744733e-11))
8.182233      	((8.024133e-12 1.518662e-06 -8.254957e-11) (-1.197328e-11 2.896698e-06 -1.231921e-11)) ((1.355808e-14 -7.348772e-15 -5.076844e-13) (-2.136410e-12 -1.131234e-13 -1.758010e-11))
9.83068       	((4.844941e-11 1.398735e-06 -6.303370e-11) (2.672073e-12 2.671811e-06 -7.351351e-12)) ((1.393089e-14 -8.831284e-15 -4.361283e-13) (-2.791902e-12 -5.775086e-14 -1.737185e-11))
11.808816     	((6.527510e-12 1.289437e-06 -1.191128e-10) (6.094078e-12 2.469099e-06 -2.351687e-12)) ((1.354534e-14 -9.426372e-15 -3.721460e-13) (-3.859687e-12 -9.307623e-15 -1.659295e-11))
14.182579     	((-3.691354e-11 1.190104e-06 -2.154886e-10) (-9.968511e-12 2.285724e-06 -6.701719e-12)) ((1.552924e-14 -9.797644e-15 -3.208051e-13) (-5.415159e-12 1.699929e-14 -1.466657e-11))
17.031095     	((4.190520e-11 1.100335e-06 -2.000567e-10) (-2.279169e-11 2.119299e-06 -1.458911e-11)) ((1.562034e-14 -9.943861e-15 -2.804824e-13) (-7.596030e-12 9.460121e-14 -1.193157e-11))
20.449314     	((3.148396e-11 1.019295e-06 -2.468411e-10) (-2.707270e-11 1.968022e-06 -2.498521e-11)) ((1.640285e-14 -1.103959e-14 -2.534572e-13) (-9.772647e-12 1.454331e-13 -9.293153e-12))
24.551176     	((-3.368648e-12 9.464183e-07 -3.004423e-10) (-2.795764e-11 1.830547e-06 -3.715184e-11)) ((1.601918e-14 -1.171686e-14 -2.355668e-13) (-1.126194e-11 1.160333e-13 -7.330588e-12))
29.473411     	((7.528149e-11 8.815365e-07 -2.046305e-10) (-1.879934e-11 1.705858e-06 -4.166995e-11)) ((1.220086e-14 -1.187616e-14 -2.203531e-13) (-1.200667e-11 1.135885e-14 -5.253940e-12))
35.380094     	((1.757261e-10 8.240095e-07 -1.298877e-10) (-1.054671e-11 1.593104e-06 -4.035317e-11)) ((8.331217e-15 -1.073233e-14 -2.106004e-13) (-1.281798e-11 -1.695172e-13 -2.456564e-12))
42.468112     	((1.714324e-10 7.736384e-07 -1.058180e-10) (-9.872623e-12 1.491421e-06 -4.424381e-11)) ((8.637892e-15 -1.058789e-14 -2.066219e-13) (-1.421456e-11 -2.768832e-13 1.189123e-12))
50.973735     	((1.565345e-10 7.299886e-07 -9.488999e-11) (-1.623545e-11 1.399956e-06 -5.305993e-11)) ((8.511232e-15 -1.130766e-14 -2.069095e-13) (-1.633961e-11 -3.126427e-13 5.728317e-12))
61.180482     	((1.976793e-10 6.927597e-07 -3.277546e-11) (-1.745604e-11 1.317848e-06 -6.324051e-11)) ((7.560606e-15 -1.143877e-14 -2.085282e-13) (-1.930437e-11 -3.174858e-13 1.046404e-11))
73.428578     	((2.031607e-10 6.615584e-07 -1.016563e-11) (-1.846563e-11 1.244285e-06 -7.836038e-11)) ((5.689655e-15 -1.143984e-14 -2.139695e-13) (-2.322519e-11 -3.239871e-13 1.569435e-11))
88.126294     	((2.559203e-10 6.360440e-07 5.923613e-11) (-2.354848e-11 1.178592e-06 -8.956076e-11)) ((3.520374e-15 -1.117051e-14 -2.226946e-13) (-2.790176e-11 -3.292773e-13 2.174025e-11))
105.763553    	((3.185415e-10 6.160391e-07 1.484334e-10) (-2.930143e-11 1.120204e-06 -9.961175e-11)) ((3.945794e-16 -1.078189e-14 -2.361936e-13) (-3.307205e-11 -3.121987e-13 2.811874e-11))
126.928263    	((3.497710e-10 6.010018e-07 1.815110e-10) (-3.777469e-11 1.068668e-06 -1.123629e-10)) ((-1.196097e-15 -9.611866e-15 -2.534539e-13) (-3.838996e-11 -3.210023e-13 3.410161e-11))
152.325916    	((3.902258e-10 5.908629e-07 2.483522e-10) (-4.706832e-11 1.023625e-06 -1.206217e-10)) ((-2.898235e-15 -8.393631e-15 -2.725086e-13) (-4.326888e-11 -3.185608e-13 3.955499e-11))
182.803099    	((4.343153e-10 5.851139e-07 3.028032e-10) (-5.371511e-11 9.847906e-07 -1.264834e-10)) ((-4.217761e-15 -7.543804e-15 -2.940151e-13) (-4.743396e-11 -2.992326e-13 4.403155e-11))
219.375719    	((5.087139e-10 5.829816e-07 3.781403e-10) (-5.778003e-11 9.518520e-07 -1.282172e-10)) ((-6.086315e-15 -6.885259e-15 -3.167087e-13) (-5.058162e-11 -2.374120e-13 4.747672e-11))
263.262863    	((6.014831e-10 5.835954e-07 4.747170e-10) (-5.680577e-11 9.244297e-07 -1.217911e-10)) ((-7.863381e-15 -6.851662e-15 -3.376320e-13) (-5.256569e-11 -2.062990e-13 4.969225e-11))
315.927436    	((6.956821e-10 5.857896e-07 5.867371e-10) (-4.365006e-11 9.019973e-07 -1.063602e-10)) ((-8.757157e-15 -6.699520e-15 -3.537749e-13) (-5.331193e-11 -1.871181e-13 5.061114e-11))
377.698839    	((7.693619e-10 5.885670e-07 6.700563e-10) (-2.015829e-11 8.839610e-07 -8.300756e-11)) ((-9.057784e-15 -6.982415e-15 -3.643470e-13) (-5.272831e-11 -1.798409e-13 5.025766e-11))
448.559805    	((8.123740e-10 5.907924e-07 7.290642e-10) (1.094498e-11 8.694961e-07 -5.202278e-11)) ((-8.946887e-15 -7.089414e-15 -3.707300e-13) (-5.097212e-11 -2.012330e-13 4.876192e-11))
528.507612    	((8.509273e-10 5.920687e-07 7.699879e-10) (4.937885e-11 8.578352e-07 -1.485451e-11)) ((-9.183431e-15 -6.998868e-15 -3.751408e-13) (-4.837215e-11 -2.297198e-13 4.640847e-11))
617.550203    	((8.627942e-10 5.925663e-07 7.791553e-10) (9.175997e-11 8.483436e-07 2.630052e-11)) ((-8.810795e-15 -6.925478e-15 -3.787375e-13) (-4.531188e-11 -2.517508e-13 4.355454e-11))
708.611012    	((8.452160e-10 5.929093e-07 7.630898e-10) (1.318221e-10 8.406896e-07 6.544579e-11)) ((-9.550610e-15 -6.854406e-15 -3.814339e-13) (-4.211792e-11 -2.678734e-13 4.049600e-11))
799.772183    	((8.096985e-10 5.929406e-07 7.306418e-10) (1.668091e-10 8.344574e-07 9.929647e-11)) ((-8.647185e-15 -6.727240e-15 -3.835016e-13) (-3.894537e-11 -2.868382e-13 3.738803e-11))
891.013937    	((7.630329e-10 5.929343e-07 6.854910e-10) (1.943929e-10 8.294039e-07 1.257695e-10)) ((-8.337940e-15 -6.573409e-15 -3.854947e-13) (-3.587432e-11 -3.024257e-13 3.434195e-11))
982.3208      	((7.094510e-10 5.928754e-07 6.334842e-10) (2.136190e-10 8.252888e-07 1.440246e-10)) ((-8.209971e-15 -6.547756e-15 -3.869606e-13) (-3.301155e-11 -3.144384e-13 3.147135e-11))
1073.681918   	((6.513926e-10 5.928018e-07 5.763997e-10) (2.267628e-10 8.219468e-07 1.566781e-10)) ((-7.650254e-15 -6.488266e-15 -3.882299e-13) (-3.026506e-11 -3.230701e-13 2.872913e-11))
1165.088409   	((5.921193e-10 5.927100e-07 5.179180e-10) (2.335289e-10 8.192240e-07 1.631464e-10)) ((-7.317830e-15 -6.502820e-15 -3.890902e-13) (-2.775202e-11 -3.300341e-13 2.621491e-11))
1256.532494   	((5.341331e-10 5.926223e-07 4.608325e-10) (2.358798e-10 8.170029e-07 1.653554e-10)) ((-7.046135e-15 -6.512731e-15 -3.899088e-13) (-2.541552e-11 -3.356370e-13 2.387939e-11))
1348.007387   	((4.780859e-10 5.925384e-07 4.061493e-10) (2.343867e-10 8.151901e-07 1.635860e-10)) ((-6.664399e-15 -6.503883e-15 -3.904581e-13) (-2.330046e-11 -3.400533e-13 2.175133e-11))
1439.507386   	((4.254429e-10 5.924631e-07 3.547559e-10) (2.295938e-10 8.137102e-07 1.585795e-10)) ((-6.295525e-15 -6.538257e-15 -3.908878e-13) (-2.140551e-11 -3.449844e-13 1.984301e-11))
1531.027782   	((3.768166e-10 5.923942e-07 3.072422e-10) (2.227999e-10 8.125006e-07 1.518169e-10)) ((-6.063778e-15 -6.565821e-15 -3.912492e-13) (-1.970273e-11 -3.495048e-13 1.813460e-11))
1622.564724   	((3.332855e-10 5.923341e-07 2.646752e-10) (2.144355e-10 8.115105e-07 1.435098e-10)) ((-5.803391e-15 -6.558873e-15 -3.915687e-13) (-1.820744e-11 -3.528852e-13 1.663473e-11))
1714.115076   	((2.947604e-10 5.922820e-07 2.268081e-10) (2.054247e-10 8.106987e-07 1.344968e-10)) ((-5.540245e-15 -6.564294e-15 -3.918340e-13) (-1.689025e-11 -3.560717e-13 1.531102e-11))
1805.676293   	((2.608547e-10 5.922382e-07 1.933547e-10) (1.963240e-10 8.100329e-07 1.254436e-10)) ((-5.340037e-15 -6.568775e-15 -3.920029e-13) (-1.573184e-11 -3.586985e-13 1.414561e-11))
1897.24631    	((2.315423e-10 5.922003e-07 1.642519e-10) (1.873418e-10 8.094866e-07 1.165202e-10)) ((-5.173978e-15 -6.572419e-15 -3.921402e-13) (-1.472430e-11 -3.609421e-13 1.313361e-11))
1988.82346    	((2.064214e-10 5.921682e-07 1.392950e-10) (1.787672e-10 8.090380e-07 1.079902e-10)) ((-5.019464e-15 -6.575284e-15 -3.922590e-13) (-1.385547e-11 -3.625722e-13 1.226080e-11))
2080.406396   	((1.850162e-10 5.921409e-07 1.180549e-10) (1.707485e-10 8.086694e-07 9.996231e-11)) ((-4.883413e-15 -6.575401e-15 -3.923462e-13) (-1.311408e-11 -3.636363e-13 1.151376e-11))
2171.99403    	((1.670644e-10 5.921179e-07 1.003248e-10) (1.634279e-10 8.083662e-07 9.265296e-11)) ((-4.783614e-15 -6.582014e-15 -3.924247e-13) (-1.248038e-11 -3.644996e-13 1.087673e-11))
2263.585485   	((1.520836e-10 5.920985e-07 8.541532e-11) (1.568959e-10 8.081168e-07 8.615129e-11)) ((-4.708610e-15 -6.589125e-15 -3.924969e-13) (-1.193988e-11 -3.651798e-13 1.033466e-11))
2355.180057   	((1.397154e-10 5.920816e-07 7.312087e-11) (1.511536e-10 8.079115e-07 8.044821e-11)) ((-4.643975e-15 -6.592827e-15 -3.925590e-13) (-1.148122e-11 -3.657467e-13 9.875893e-12))
2446.777174   	((1.294568e-10 5.920676e-07 6.290212e-11) (1.461748e-10 8.077425e-07 7.549934e-11)) ((-4.592799e-15 -6.593483e-15 -3.926162e-13) (-1.109452e-11 -3.662421e-13 9.488969e-12))
2538.376376   	((1.210875e-10 5.920563e-07 5.459456e-11) (1.419117e-10 8.076032e-07 7.124724e-11)) ((-4.548956e-15 -6.595300e-15 -3.926684e-13) (-1.076949e-11 -3.665825e-13 9.163587e-12))
2629.977288   	((1.142145e-10 5.920469e-07 4.775508e-11) (1.382967e-10 8.074886e-07 6.763060e-11)) ((-4.514998e-15 -6.596030e-15 -3.927182e-13) (-1.049724e-11 -3.668666e-13 8.890997e-12))
2721.579604   	((1.085792e-10 5.920388e-07 4.215289e-11) (1.352542e-10 8.073941e-07 6.458961e-11)) ((-4.484538e-15 -6.596766e-15 -3.927602e-13) (-1.026976e-11 -3.671358e-13 8.663302e-12))
2813.183076   	((1.039732e-10 5.920315e-07 3.747132e-11) (1.327183e-10 8.073162e-07 6.205255e-11)) ((-4.459609e-15 -6.598249e-15 -3.927949e-13) (-1.007981e-11 -3.673566e-13 8.473249e-12))
2904.787499   	((1.002093e-10 5.920260e-07 3.369201e-11) (1.306253e-10 8.072519e-07 5.994926e-11)) ((-4.439583e-15 -6.598401e-15 -3.928245e-13) (-9.921679e-12 -3.675390e-13 8.314802e-12))
2996.392709   	((9.716852e-11 5.920214e-07 3.065036e-11) (1.288943e-10 8.071990e-07 5.821253e-11)) ((-4.421636e-15 -6.599632e-15 -3.928481e-13) (-9.790031e-12 -3.677168e-13 8.183305e-12))
3087.998568   	((9.463090e-11 5.920173e-07 2.810243e-11) (1.274726e-10 8.071553e-07 5.678615e-11)) ((-4.409612e-15 -6.600289e-15 -3.928689e-13) (-9.680640e-12 -3.678895e-13 8.074120e-12))
3179.604963   	((9.255220e-11 5.920140e-07 2.600836e-11) (1.263097e-10 8.071193e-07 5.561917e-11)) ((-4.398321e-15 -6.600593e-15 -3.928845e-13) (-9.589788e-12 -3.680384e-13 7.983540e-12))
3271.211802   	((9.078701e-11 5.920110e-07 2.419615e-11) (1.253593e-10 8.070896e-07 5.466611e-11)) ((-4.390242e-15 -6.601559e-15 -3.928975e-13) (-9.514411e-12 -3.681566e-13 7.908388e-12))
3362.819008   	((8.935223e-11 5.920091e-07 2.275824e-11) (1.245831e-10 8.070651e-07 5.388555e-11)) ((-4.381542e-15 -6.601774e-15 -3.929084e-13) (-9.451806e-12 -3.682519e-13 7.845950e-12))
3454.426517   	((8.813481e-11 5.920072e-07 2.153907e-11) (1.239493e-10 8.070448e-07 5.324696e-11)) ((-4.375519e-15 -6.602484e-15 -3.929175e-13) (-9.399760e-12 -3.683255e-13 7.793950e-12))
3546.034277   	((8.712973e-11 5.920060e-07 2.056356e-11) (1.234299e-10 8.070281e-07 5.272243e-11)) ((-4.369950e-15 -6.602746e-15 -3.929251e-13) (-9.356590e-12 -3.683798e-13 7.750772e-12))
3637.642245   	((8.627854e-11 5.920048e-07 1.974513e-11) (1.230016e-10 8.070144e-07 5.228984e-11)) ((-4.365396e-15 -6.602906e-15 -3.929314e-13) (-9.320658e-12 -3.684246e-13 7.714816e-12))
3729.250384   	((8.554828e-11 5.920039e-07 1.902168e-11) (1.226473e-10 8.070030e-07 5.193181e-11)) ((-4.361442e-15 -6.603248e-15 -3.929367e-13) (-9.290697e-12 -3.684592e-13 7.684834e-12))
3820.858664   	((8.494448e-11 5.920031e-07 1.844042e-11) (1.223532e-10 8.069936e-07 5.163552e-11)) ((-4.358115e-15 -6.603433e-15 -3.929410e-13) (-9.265708e-12 -3.684867e-13 7.659825e-12))
3912.46706    	((8.443080e-11 5.920025e-07 1.794959e-11) (1.221073e-10 8.069859e-07 5.138774e-11)) ((-4.355356e-15 -6.603458e-15 -3.929447e-13) (-9.244854e-12 -3.685088e-13 7.638943e-12))
4004.075551   	((8.399145e-11 5.920019e-07 1.752304e-11) (1.219009e-10 8.069795e-07 5.118011e-11)) ((-4.353094e-15 -6.603566e-15 -3.929477e-13) (-9.227440e-12 -3.685271e-13 7.621505e-12))
4095.684121   	((8.362553e-11 5.920014e-07 1.716786e-11) (1.217268e-10 8.069742e-07 5.100512e-11)) ((-4.351125e-15 -6.603578e-15 -3.929502e-13) (-9.212899e-12 -3.685411e-13 7.606932e-12))
4187.292756   	((8.340376e-11 5.920010e-07 1.685543e-11) (1.215813e-10 8.069698e-07 5.085256e-11)) ((-4.350680e-15 -6.603557e-15 -3.929521e-13) (-9.200754e-12 -3.685564e-13 7.594749e-12))
4278.901444   	((8.313394e-11 5.920006e-07 1.664481e-11) (1.214553e-10 8.069662e-07 5.072313e-11)) ((-4.349044e-15 -6.603282e-15 -3.929548e-13) (-9.190590e-12 -3.685624e-13 7.584600e-12))
4370.510175   	((8.285310e-11 5.920002e-07 1.640872e-11) (1.213497e-10 8.069632e-07 5.062309e-11)) ((-4.347408e-15 -6.603466e-15 -3.929553e-13) (-9.182164e-12 -3.685697e-13 7.576102e-12))
4462.118941   	((8.265691e-11 5.920001e-07 1.621897e-11) (1.212602e-10 8.069608e-07 5.053475e-11)) ((-4.346203e-15 -6.603587e-15 -3.929565e-13) (-9.175104e-12 -3.685738e-13 7.568988e-12))
4553.727736   	((8.250250e-11 5.920000e-07 1.606490e-11) (1.211843e-10 8.069588e-07 5.046035e-11)) ((-4.345392e-15 -6.603702e-15 -3.929575e-13) (-9.169206e-12 -3.685770e-13 7.563059e-12))
