# Forces      
# CofR        : (0.000000e+00 0.000000e+00 0.000000e+00)
# Time        forces(pressure viscous)	moments(pressure viscous)
0             	((0.000000e+00 0.000000e+00 0.000000e+00) (2.805276e-16 5.003886e-06 -6.379012e-16)) ((0.000000e+00 0.000000e+00 0.000000e+00) (1.390354e-16 -1.318624e-18 -1.798283e-12))
0.012         	((-7.957499e-11 1.455195e-03 -2.927898e-10) (-3.659625e-12 5.743159e-06 -4.380778e-12)) ((5.873022e-13 -1.670637e-15 -2.750278e-10) (2.031458e-14 7.754894e-16 -3.761732e-12))
0.0264        	((-5.647241e-09 -9.962958e-05 1.982509e-09) (-1.019776e-11 5.861136e-06 -2.811861e-12)) ((-1.368427e-12 -7.336702e-14 1.850010e-11) (-4.098082e-14 -9.978261e-15 -5.108580e-12))
0.04368       	((1.690353e-08 -3.050102e-04 -1.170281e-08) (7.386873e-12 5.209785e-06 -6.624300e-12)) ((-6.013208e-13 1.211744e-13 7.278058e-11) (-2.094024e-13 -1.430571e-14 -4.414331e-12))
0.064416      	((-2.584622e-09 -2.889197e-06 4.927762e-09) (8.203531e-11 4.614864e-06 6.413674e-11)) ((4.754569e-13 1.221828e-13 -2.946478e-12) (4.110646e-13 -1.288160e-14 -5.557630e-12))
0.0892992     	((-3.184062e-09 4.108161e-06 3.855847e-09) (1.039905e-10 4.260838e-06 1.113965e-10)) ((1.316959e-13 -2.638134e-13 -4.114869e-12) (8.376898e-13 -1.545977e-14 -6.173908e-12))
0.119159      	((1.410761e-09 -4.532133e-06 4.374566e-09) (8.405861e-11 3.934604e-06 1.040453e-10)) ((4.257826e-13 4.005190e-14 9.884946e-13) (-1.608838e-13 -2.407776e-15 -5.565187e-12))
0.154991      	((-8.499019e-11 -2.455560e-06 -5.458522e-10) (6.735727e-11 3.588337e-06 9.696984e-11)) ((2.272213e-13 5.008285e-14 3.072802e-13) (-1.130994e-12 -6.167847e-14 -4.275599e-12))
0.197989      	((1.051577e-10 -5.956231e-07 -1.102942e-09) (3.174996e-11 3.238400e-06 6.190692e-11)) ((2.928150e-13 -2.030240e-14 6.096489e-14) (-1.228827e-12 -2.598948e-13 -1.122544e-12))
0.249587      	((4.285045e-10 7.786517e-08 -4.209980e-10) (5.133139e-12 2.894734e-06 2.967325e-11)) ((2.197397e-13 -8.271561e-15 -2.885104e-13) (-9.520252e-13 -3.501881e-13 4.514161e-13))
0.311504      	((4.300194e-10 3.862325e-07 -1.445822e-10) (-6.228752e-12 2.567560e-06 1.137551e-11)) ((1.418004e-13 -3.402393e-15 -4.009029e-13) (-6.745431e-13 -2.676897e-13 7.153780e-13))
0.385805      	((3.170186e-11 5.331148e-07 -1.204988e-10) (-9.284495e-12 2.265094e-06 7.458186e-13)) ((1.001525e-13 -4.435444e-15 -3.451289e-13) (-4.125812e-13 -1.941117e-13 1.097064e-12))
0.474966      	((-7.248371e-11 6.019780e-07 -1.070844e-10) (-9.528420e-12 1.993578e-06 -4.409881e-12)) ((6.203408e-14 -4.007381e-15 -2.807501e-13) (-2.899107e-13 -1.720430e-13 9.199216e-13))
0.581959      	((-1.170933e-10 6.294590e-07 -8.669045e-11) (-1.156449e-11 1.755941e-06 -7.437602e-12)) ((3.851449e-14 -3.041867e-15 -2.430633e-13) (-1.935781e-13 -1.533317e-13 -1.322862e-13))
0.710351      	((-1.016273e-10 6.268142e-07 -7.791913e-11) (-6.686749e-12 1.552486e-06 -7.020057e-12)) ((2.097556e-14 -2.101407e-15 -1.973868e-13) (-1.650236e-13 -1.326026e-13 -1.409677e-12))
0.864421      	((-8.657074e-11 6.040612e-07 -6.996288e-11) (3.423615e-12 1.380637e-06 -7.299753e-12)) ((1.138167e-14 -2.597950e-15 -1.980346e-13) (-7.699957e-14 -9.197347e-14 -1.515323e-12))
1.049306      	((-6.163350e-11 5.707488e-07 -5.420862e-11) (1.211957e-11 1.235947e-06 -7.591292e-12)) ((4.689215e-15 -1.418419e-15 -1.923943e-13) (-2.983092e-14 -4.875549e-14 -3.622682e-13))
1.271167      	((-3.490523e-11 5.338920e-07 -4.125052e-11) (1.186843e-11 1.113803e-06 -6.558935e-12)) ((1.002489e-15 -1.269721e-15 -1.780599e-13) (-3.642123e-14 -3.428173e-14 9.358968e-13))
1.5374        	((-3.618909e-11 4.963441e-07 -3.468972e-11) (6.825756e-12 1.009285e-06 -5.111232e-12)) ((-7.871167e-16 -9.513819e-16 -1.748778e-13) (-4.000156e-14 -2.661021e-14 1.787555e-12))
1.85688       	((-2.268381e-11 4.597695e-07 -3.291881e-11) (3.579375e-12 9.178902e-07 -4.536991e-12)) ((-9.460380e-16 -4.833039e-16 -1.745481e-13) (1.584851e-14 -2.174572e-14 2.120459e-12))
2.240256      	((-8.158966e-12 4.250506e-07 -3.102589e-11) (5.520690e-12 8.366438e-07 -5.792912e-12)) ((-2.234393e-16 -2.561633e-16 -1.741934e-13) (2.546616e-14 -2.164170e-14 2.022585e-12))
2.700307      	((-1.556118e-11 3.925974e-07 -2.647088e-11) (7.639868e-12 7.637229e-07 -7.100087e-12)) ((1.264976e-16 -1.674138e-16 -1.726826e-13) (-4.394767e-14 -2.086957e-14 1.372885e-12))
3.252369      	((-8.746316e-12 3.622900e-07 -1.867914e-11) (8.332368e-12 6.979520e-07 -6.662288e-12)) ((4.161831e-16 -3.345638e-16 -1.589514e-13) (-1.495062e-13 -1.564839e-14 2.443541e-13))
3.914842      	((-1.328651e-12 3.337962e-07 -1.475699e-11) (7.930666e-12 6.384961e-07 -5.714772e-12)) ((4.881395e-16 -5.355262e-16 -1.435839e-13) (-2.435625e-13 -1.231770e-14 -9.453603e-13))
4.709811      	((1.667181e-12 3.073934e-07 -1.333635e-11) (6.784124e-12 5.847363e-07 -5.099214e-12)) ((7.147682e-16 -9.785166e-16 -1.284687e-13) (-2.938564e-13 -1.032255e-14 -2.036484e-12))
5.663773      	((2.110917e-12 2.831498e-07 -1.866037e-11) (7.472418e-12 5.362142e-07 -4.567653e-12)) ((1.427433e-15 -1.557099e-15 -1.163516e-13) (-3.068833e-13 -8.637330e-15 -2.939645e-12))
6.808528      	((1.078428e-11 2.609198e-07 -2.042672e-11) (8.633264e-12 4.925571e-07 -3.920034e-12)) ((1.949701e-15 -1.713103e-15 -1.031269e-13) (-3.127487e-13 -6.226662e-15 -3.494179e-12))
8.182233      	((1.050888e-11 2.405545e-07 -2.005381e-11) (9.566944e-12 4.533635e-07 -3.240154e-12)) ((2.064470e-15 -1.712590e-15 -9.001049e-14) (-3.629050e-13 2.946819e-15 -3.774261e-12))
9.83068       	((1.018994e-11 2.220474e-07 -1.718029e-11) (9.215602e-12 4.181465e-07 -3.052380e-12)) ((2.377617e-15 -1.735349e-15 -7.781239e-14) (-5.009312e-13 1.088234e-14 -3.746487e-12))
11.808816     	((1.097309e-12 2.050898e-07 -2.201972e-11) (6.332281e-12 3.863905e-07 -3.444618e-12)) ((2.594330e-15 -1.694385e-15 -6.668250e-14) (-7.925410e-13 7.963424e-15 -3.361706e-12))
14.182579     	((-1.872552e-11 1.896064e-07 -2.879569e-11) (2.293770e-12 3.576280e-07 -4.317073e-12)) ((3.016623e-15 -1.519558e-15 -5.729277e-14) (-1.208008e-12 9.558250e-15 -2.722177e-12))
17.031095     	((-1.739976e-11 1.754791e-07 -2.140377e-11) (-1.118887e-12 3.314645e-07 -5.005058e-12)) ((2.788063e-15 -1.334460e-15 -4.924411e-14) (-1.699312e-12 1.803978e-14 -1.992915e-12))
20.449314     	((-1.814025e-11 1.625998e-07 -1.966584e-11) (-4.796922e-12 3.076021e-07 -5.804471e-12)) ((2.907889e-15 -1.187116e-15 -4.269956e-14) (-2.244728e-12 2.593870e-14 -1.224104e-12))
24.551176     	((-1.044474e-11 1.508011e-07 -1.170623e-11) (-7.854336e-12 2.858193e-07 -6.518400e-12)) ((3.045505e-15 -1.107103e-15 -3.703469e-14) (-2.787136e-12 3.405940e-14 -4.693706e-13))
29.473411     	((-5.607956e-12 1.400277e-07 -7.394316e-12) (-8.622929e-12 2.659524e-07 -6.306667e-12)) ((2.806365e-15 -8.519166e-16 -3.223057e-14) (-3.245125e-12 3.791005e-14 2.359620e-13))
35.380094     	((-3.581269e-12 1.301753e-07 -6.057058e-12) (-8.426015e-12 2.478683e-07 -5.327186e-12)) ((2.512888e-15 -5.444951e-16 -2.846404e-14) (-3.629609e-12 3.910714e-14 9.645050e-13))
42.468112     	((8.064220e-12 1.212331e-07 5.513374e-12) (-6.919518e-12 2.314335e-07 -3.842870e-12)) ((2.506777e-15 -4.553078e-16 -2.551612e-14) (-3.993168e-12 3.692406e-14 1.677209e-12))
50.973735     	((2.372858e-11 1.131032e-07 2.065858e-11) (-4.143088e-12 2.165133e-07 -1.567473e-12)) ((2.587097e-15 -4.879421e-16 -2.292382e-14) (-4.344658e-12 3.464252e-14 2.322795e-12))
61.180482     	((2.976991e-11 1.057193e-07 2.830879e-11) (-1.091615e-12 2.029736e-07 8.671864e-13)) ((2.452219e-15 -3.642519e-16 -2.066529e-14) (-4.738493e-12 3.376236e-14 2.958347e-12))
73.428578     	((3.385781e-11 9.903556e-08 3.228017e-11) (2.001165e-12 1.906803e-07 2.601561e-12)) ((2.017457e-15 -2.943951e-16 -1.883726e-14) (-5.227435e-12 3.386241e-14 3.630139e-12))
88.126294     	((3.396366e-11 9.298823e-08 3.138430e-11) (4.021662e-12 1.795023e-07 3.420442e-12)) ((1.602579e-15 -2.872628e-16 -1.732470e-14) (-5.808895e-12 3.346459e-14 4.360073e-12))
105.763553    	((3.791699e-11 8.754178e-08 3.447444e-11) (5.338297e-12 1.693252e-07 3.389758e-12)) ((1.203548e-15 -3.128842e-16 -1.594524e-14) (-6.456313e-12 3.292651e-14 5.117385e-12))
126.928263    	((4.040145e-11 8.268601e-08 3.584325e-11) (5.795722e-12 1.600554e-07 2.809244e-12)) ((7.938170e-16 -3.242508e-16 -1.477166e-14) (-7.124958e-12 3.303197e-14 5.878709e-12))
152.325916    	((3.759046e-11 7.832045e-08 3.191497e-11) (5.680724e-12 1.516086e-07 1.641817e-12)) ((4.549253e-16 -3.155339e-16 -1.369699e-14) (-7.753768e-12 3.084553e-14 6.586336e-12))
182.803099    	((3.759018e-11 7.440015e-08 3.063736e-11) (5.343406e-12 1.439129e-07 2.520523e-13)) ((1.052331e-16 -2.960017e-16 -1.282173e-14) (-8.304657e-12 2.726444e-14 7.200217e-12))
219.375719    	((3.640167e-11 7.086333e-08 2.799604e-11) (4.510932e-12 1.369049e-07 -1.120493e-12)) ((-2.272117e-16 -2.708127e-16 -1.218019e-14) (-8.757421e-12 2.421150e-14 7.709286e-12))
263.262863    	((3.327637e-11 6.768787e-08 2.417871e-11) (3.364482e-12 1.305276e-07 -2.535238e-12)) ((-4.350686e-16 -2.562559e-16 -1.168648e-14) (-9.103761e-12 2.329309e-14 8.105323e-12))
315.927436    	((3.306282e-11 6.489880e-08 2.223607e-11) (2.326256e-12 1.247344e-07 -3.808055e-12)) ((-6.028397e-16 -2.730046e-16 -1.130217e-14) (-9.342458e-12 2.218855e-14 8.379420e-12))
379.124923    	((3.514158e-11 6.245095e-08 2.236806e-11) (1.563360e-12 1.194848e-07 -4.827049e-12)) ((-7.780485e-16 -2.889764e-16 -1.101559e-14) (-9.476408e-12 2.094498e-14 8.544267e-12))
454.961908    	((3.343483e-11 6.030319e-08 1.984353e-11) (9.321953e-13 1.147403e-07 -5.634813e-12)) ((-9.009975e-16 -3.093530e-16 -1.078753e-14) (-9.517170e-12 2.016248e-14 8.611589e-12))
545.966289    	((3.119717e-11 5.844122e-08 1.716459e-11) (5.170486e-13 1.104658e-07 -6.160895e-12)) ((-9.624281e-16 -3.252449e-16 -1.062673e-14) (-9.474523e-12 1.997094e-14 8.586380e-12))
655.171547    	((2.887543e-11 5.683218e-08 1.498960e-11) (3.035298e-13 1.066304e-07 -6.466351e-12)) ((-9.985981e-16 -3.219014e-16 -1.053835e-14) (-9.352788e-12 1.838651e-14 8.476158e-12))
786.217856    	((2.625999e-11 5.545801e-08 1.323957e-11) (2.642080e-13 1.032058e-07 -6.551286e-12)) ((-1.018082e-15 -3.359085e-16 -1.052352e-14) (-9.158238e-12 1.502616e-14 8.291978e-12))
943.473427    	((2.487251e-11 5.428989e-08 1.224077e-11) (4.971897e-13 1.001655e-07 -6.332868e-12)) ((-9.994434e-16 -3.203494e-16 -1.056754e-14) (-8.894927e-12 1.189601e-14 8.042631e-12))
1132.180113   	((2.393425e-11 5.330505e-08 1.214909e-11) (8.445028e-13 9.748419e-08 -5.858555e-12)) ((-9.597748e-16 -2.888443e-16 -1.062969e-14) (-8.563093e-12 8.104304e-15 7.731616e-12))
1358.628135   	((2.377829e-11 5.247969e-08 1.305156e-11) (1.286947e-12 9.513594e-08 -5.107581e-12)) ((-9.092617e-16 -2.386240e-16 -1.069551e-14) (-8.172496e-12 2.989677e-15 7.363289e-12))
1630.365763   	((2.377867e-11 5.178936e-08 1.343839e-11) (1.862527e-12 9.309445e-08 -4.179469e-12)) ((-8.308302e-16 -2.080365e-16 -1.076618e-14) (-7.729561e-12 -2.678740e-15 6.942782e-12))
1956.450915   	((2.338631e-11 5.121447e-08 1.324500e-11) (2.597305e-12 9.133263e-08 -3.114424e-12)) ((-7.181997e-16 -1.901752e-16 -1.081410e-14) (-7.243704e-12 -5.088523e-15 6.486769e-12))
2347.753098   	((2.284899e-11 5.073608e-08 1.278184e-11) (3.539324e-12 8.982287e-08 -1.856476e-12)) ((-6.062505e-16 -1.586728e-16 -1.088057e-14) (-6.727894e-12 -5.069655e-15 6.006265e-12))
2817.315718   	((2.236066e-11 5.033836e-08 1.187004e-11) (4.683981e-12 8.853733e-08 -5.782949e-13)) ((-5.043342e-16 -1.012993e-16 -1.092395e-14) (-6.197261e-12 -3.384566e-15 5.508463e-12))
3380.790861   	((2.150726e-11 5.000966e-08 1.104512e-11) (5.877903e-12 8.744891e-08 6.080509e-13)) ((-3.995049e-16 -7.405827e-17 -1.094448e-14) (-5.663791e-12 -1.185486e-15 5.000597e-12))
4039.903047   	((2.036546e-11 4.974036e-08 1.027830e-11) (7.045520e-12 8.653305e-08 1.725039e-12)) ((-2.918853e-16 -5.801956e-17 -1.096037e-14) (-5.139890e-12 5.934459e-16 4.494397e-12))
4794.899987   	((1.897994e-11 4.951898e-08 9.229399e-12) (8.103261e-12 8.576562e-08 2.787640e-12)) ((-1.859411e-16 -5.010698e-17 -1.099337e-14) (-4.632552e-12 2.168380e-15 4.002649e-12))
5645.982267   	((1.795920e-11 4.933686e-08 8.120783e-12) (8.986365e-12 8.512496e-08 3.621218e-12)) ((-9.251546e-17 -4.954599e-17 -1.102083e-14) (-4.151195e-12 3.449837e-15 3.531552e-12))
6593.312675   	((1.712754e-11 4.918614e-08 7.025029e-12) (9.787586e-12 8.459152e-08 4.383428e-12)) ((-1.371981e-18 -4.632002e-17 -1.103949e-14) (-3.702257e-12 4.035256e-15 3.089031e-12))
7557.12155    	((1.625786e-11 4.906329e-08 6.150040e-12) (1.054127e-11 8.414914e-08 5.018458e-12)) ((8.154726e-17 -4.073807e-17 -1.106003e-14) (-3.289268e-12 4.604570e-15 2.680837e-12))
8522.0113     	((1.540101e-11 4.896156e-08 5.427525e-12) (1.117200e-11 8.378226e-08 5.561799e-12)) ((1.563794e-16 -3.478276e-17 -1.108533e-14) (-2.913465e-12 4.859554e-15 2.309268e-12))
9487.786456   	((1.466075e-11 4.887716e-08 4.847914e-12) (1.166050e-11 8.347846e-08 5.991651e-12)) ((2.267978e-16 -3.466517e-17 -1.110954e-14) (-2.575177e-12 5.406936e-15 1.974752e-12))
10454.28671   	((1.404994e-11 4.880660e-08 4.498081e-12) (1.201977e-11 8.322660e-08 6.312730e-12)) ((2.924761e-16 -3.211835e-17 -1.113048e-14) (-2.273530e-12 5.963223e-15 1.675735e-12))
11421.38302   	((1.359197e-11 4.874772e-08 4.229211e-12) (1.228391e-11 8.301778e-08 6.535354e-12)) ((3.514881e-16 -3.017574e-17 -1.114645e-14) (-2.007139e-12 6.398231e-15 1.410645e-12))
12388.970092  	((1.325987e-11 4.869828e-08 3.997697e-12) (1.246846e-11 8.284431e-08 6.676762e-12)) ((4.023573e-16 -2.613835e-17 -1.115796e-14) (-1.773053e-12 6.572044e-15 1.176814e-12))
13356.962914  	((1.303852e-11 4.865692e-08 3.766801e-12) (1.258992e-11 8.270009e-08 6.752977e-12)) ((4.463226e-16 -2.170290e-17 -1.116659e-14) (-1.568312e-12 6.622961e-15 9.716797e-13))
14325.29147   	((1.289816e-11 4.862211e-08 3.587028e-12) (1.265853e-11 8.257996e-08 6.770279e-12)) ((4.843680e-16 -1.735586e-17 -1.117248e-14) (-1.389833e-12 6.586369e-15 7.922243e-13))
15293.898558  	((1.282653e-11 4.859283e-08 3.473905e-12) (1.268576e-11 8.247975e-08 6.743392e-12)) ((5.171174e-16 -1.462222e-17 -1.117672e-14) (-1.234698e-12 6.579447e-15 6.358775e-13))
16262.737087  	((1.278685e-11 4.856813e-08 3.402426e-12) (1.267076e-11 8.239598e-08 6.680992e-12)) ((5.466031e-16 -1.167901e-17 -1.118033e-14) (-1.100253e-12 6.556317e-15 5.003417e-13))
17231.768371  	((1.274094e-11 4.854732e-08 3.323106e-12) (1.261095e-11 8.232587e-08 6.589942e-12)) ((5.722718e-16 -8.582193e-18 -1.118375e-14) (-9.841234e-13 6.439236e-15 3.832070e-13))
18200.960375  	((1.267767e-11 4.852975e-08 3.227059e-12) (1.252041e-11 8.226706e-08 6.478895e-12)) ((5.941779e-16 -6.107840e-18 -1.118723e-14) (-8.839671e-13 6.276327e-15 2.821690e-13))
19170.286682  	((1.262048e-11 4.851490e-08 3.119343e-12) (1.241511e-11 8.221767e-08 6.355739e-12)) ((6.127219e-16 -3.667495e-18 -1.119008e-14) (-7.977717e-13 6.128321e-15 1.952168e-13))
20139.725383  	((1.255833e-11 4.850226e-08 3.038121e-12) (1.230133e-11 8.217611e-08 6.227201e-12)) ((6.286609e-16 -1.811781e-18 -1.119264e-14) (-7.237350e-13 5.950151e-15 1.205764e-13))
21109.258317  	((1.247906e-11 4.849154e-08 2.972814e-12) (1.218253e-11 8.214110e-08 6.095852e-12)) ((6.418066e-16 -1.642106e-19 -1.119475e-14) (-6.602651e-13 5.768566e-15 5.665489e-14))
22078.870379  	((1.240180e-11 4.848246e-08 2.888191e-12) (1.206199e-11 8.211154e-08 5.964641e-12)) ((6.527327e-16 1.230768e-18 -1.119639e-14) (-6.059109e-13 5.607496e-15 1.980975e-15))
23048.549013  	((1.231831e-11 4.847475e-08 2.818241e-12) (1.194267e-11 8.208656e-08 5.837154e-12)) ((6.616809e-16 2.481415e-18 -1.119767e-14) (-5.594348e-13 5.468990e-15 -4.470821e-14))
24018.283746  	((1.225894e-11 4.846803e-08 2.770129e-12) (1.182764e-11 8.206540e-08 5.715461e-12)) ((6.697168e-16 3.371661e-18 -1.119870e-14) (-5.197714e-13 5.347573e-15 -8.453493e-14))
24988.065818  	((1.219994e-11 4.846240e-08 2.714598e-12) (1.171819e-11 8.204746e-08 5.600304e-12)) ((6.764448e-16 4.002983e-18 -1.119960e-14) (-4.859684e-13 5.243553e-15 -1.184762e-13))
25957.887919  	((1.213952e-11 4.845759e-08 2.649832e-12) (1.161465e-11 8.203223e-08 5.492081e-12)) ((6.820646e-16 4.416430e-18 -1.120018e-14) (-4.571933e-13 5.155456e-15 -1.473608e-13))
26927.743903  	((1.208148e-11 4.845351e-08 2.584886e-12) (1.151805e-11 8.201929e-08 5.391545e-12)) ((6.866845e-16 4.840384e-18 -1.120046e-14) (-4.327303e-13 5.081244e-15 -1.719183e-13))
27897.628611  	((1.202774e-11 4.845002e-08 2.528573e-12) (1.142862e-11 8.200827e-08 5.298844e-12)) ((6.906569e-16 5.188909e-18 -1.120062e-14) (-4.119545e-13 5.020712e-15 -1.927805e-13))
28867.537701  	((1.198325e-11 4.844699e-08 2.481402e-12) (1.134652e-11 8.199887e-08 5.214010e-12)) ((6.942394e-16 5.523556e-18 -1.120070e-14) (-3.943319e-13 4.970133e-15 -2.104822e-13))
