# Forces      
# CofR        : (0.000000e+00 0.000000e+00 0.000000e+00)
# Time        forces(pressure viscous)	moments(pressure viscous)
0             	((0.000000e+00 0.000000e+00 0.000000e+00) (0.000000e+00 0.000000e+00 0.000000e+00)) ((0.000000e+00 0.000000e+00 0.000000e+00) (0.000000e+00 0.000000e+00 0.000000e+00))
0.012         	((-2.981628e-10 4.406404e-10 -9.285364e-10) (3.078110e-12 3.799643e-13 5.826624e-12)) ((4.011439e-09 -4.334506e-13 -5.780509e-15) (2.787920e-06 2.879391e-13 -1.038586e-13))
0.0264        	((2.592179e-10 7.280150e-10 -1.549576e-09) (7.699605e-12 -6.895928e-12 4.959429e-12)) ((1.991676e-09 -3.386710e-13 8.219535e-14) (2.553649e-06 4.971679e-13 -8.853247e-14))
0.04368       	((-1.585999e-09 -1.155469e-09 -1.910288e-09) (3.043964e-11 -1.936659e-11 2.173313e-12)) ((1.115708e-09 -2.692557e-13 9.264040e-14) (2.313151e-06 2.905489e-13 2.497859e-13))
0.064416      	((6.700417e-10 -2.127932e-10 -4.484906e-10) (6.593765e-11 -2.696113e-11 -3.620435e-12)) ((6.416240e-10 -1.896262e-13 -3.245498e-14) (2.071891e-06 -2.624710e-13 5.946410e-13))
0.0892992     	((-1.237535e-10 -4.051029e-10 -3.887235e-11) (1.010451e-10 -2.972332e-11 -1.002321e-11)) ((4.932863e-10 -1.774804e-13 1.945568e-14) (1.837121e-06 -8.157082e-13 8.017983e-13))
0.119159      	((4.486421e-10 -3.278195e-10 -1.053222e-09) (1.305277e-10 -2.926314e-11 -1.536566e-11)) ((3.635785e-10 -1.201100e-13 -2.157442e-14) (1.616235e-06 -1.159521e-12 8.984934e-13))
0.154991      	((1.435622e-09 5.013738e-10 3.838773e-10) (1.235818e-10 -2.635261e-11 -1.866413e-11)) ((2.953877e-10 -1.061863e-13 -1.675988e-14) (1.414432e-06 -1.390402e-12 8.537591e-13))
0.197989      	((6.934767e-10 1.883584e-10 -3.289639e-10) (9.098613e-11 -2.515735e-11 -2.015609e-11)) ((2.392630e-10 -4.693890e-14 -2.222536e-14) (1.235777e-06 -1.661426e-12 8.331788e-13))
0.249587      	((1.205282e-09 -2.838534e-11 -4.973595e-10) (5.523029e-11 -2.803990e-11 -2.189860e-11)) ((2.004482e-10 -4.470326e-14 -2.213860e-14) (1.082112e-06 -1.751567e-12 8.154527e-13))
0.311504      	((-1.114973e-10 1.393596e-10 -5.629194e-10) (2.441222e-11 -2.609680e-11 -2.498107e-11)) ((1.702781e-10 -4.290365e-14 -8.705870e-15) (9.528403e-07 -1.615567e-12 6.987570e-13))
0.385805      	((-3.105444e-10 1.748305e-10 -5.944891e-10) (1.080652e-11 -1.740585e-11 -3.421467e-11)) ((1.495342e-10 -4.172113e-14 9.489214e-15) (8.451837e-07 -1.470209e-12 4.844545e-13))
0.474966      	((2.145687e-10 4.507668e-10 -5.668252e-10) (-2.786910e-11 -7.784316e-12 -4.609999e-11)) ((1.352295e-10 -3.840246e-14 1.891608e-14) (7.550784e-07 -1.429960e-12 3.197275e-13))
0.581959      	((9.900163e-10 1.129335e-09 -2.841438e-10) (6.921968e-11 1.096352e-11 -4.966390e-11)) ((1.215351e-10 -4.061799e-14 3.124021e-14) (6.786214e-07 -1.488627e-12 3.438677e-13))
0.710351      	((-2.773571e-10 1.279795e-09 -4.764959e-10) (1.931233e-10 2.339242e-11 -4.410356e-11)) ((1.082726e-10 -3.976238e-14 3.293077e-14) (6.126706e-07 -1.437944e-12 5.147575e-13))
0.864421      	((-5.622696e-10 1.500082e-09 -5.553913e-11) (2.014372e-10 2.498195e-11 -1.840493e-11)) ((9.891896e-11 -4.749016e-14 3.791021e-14) (5.549024e-07 -8.329686e-13 4.858222e-13))
1.049306      	((-3.210875e-10 2.160543e-09 -1.979527e-10) (1.720152e-10 2.595994e-11 5.899548e-12)) ((9.264552e-11 -4.375907e-14 2.772023e-14) (5.036703e-07 -1.796942e-13 7.275705e-13))
1.271167      	((-6.663767e-10 2.224240e-09 -3.648389e-10) (8.805438e-11 6.373427e-12 3.060747e-11)) ((8.672556e-11 -4.556841e-14 3.167571e-14) (4.578163e-07 -2.630459e-13 1.929527e-12))
1.5374        	((-8.789755e-11 1.709068e-09 -4.454520e-10) (1.349957e-11 -5.713576e-11 5.685966e-11)) ((7.999537e-11 -2.248668e-14 1.758627e-14) (4.165715e-07 -6.906679e-13 3.666346e-12))
1.85688       	((3.646308e-10 1.196340e-09 -7.920585e-10) (1.533653e-11 -1.452210e-10 1.143308e-10)) ((7.286844e-11 -2.919498e-14 1.507730e-14) (3.795086e-07 -1.446054e-13 5.596704e-12))
2.240256      	((2.149273e-11 1.136432e-09 -1.052344e-09) (1.064318e-10 -2.168098e-10 1.972144e-10)) ((6.707239e-11 -3.246095e-14 2.156350e-14) (3.464199e-07 1.639153e-12 7.708791e-12))
2.700307      	((1.373639e-10 4.361502e-11 -1.611308e-09) (1.414695e-10 -3.129889e-10 2.719671e-10)) ((6.246851e-11 -2.158103e-14 2.171604e-14) (3.171277e-07 3.475301e-12 9.735141e-12))
3.252369      	((1.694114e-10 1.244222e-10 -1.160412e-09) (1.936800e-10 -4.072588e-10 3.686707e-10)) ((5.796359e-11 -2.098362e-14 2.019527e-14) (2.913646e-07 5.319187e-12 1.112417e-11))
3.914842      	((7.496097e-11 4.824201e-10 -2.702297e-10) (1.699109e-10 -4.746911e-10 4.731833e-10)) ((5.344280e-11 -8.005166e-15 -3.718076e-16) (2.687387e-07 7.169598e-12 1.197308e-11))
4.709811      	((1.106448e-10 7.946423e-10 3.733845e-10) (1.451285e-10 -5.191226e-10 5.134107e-10)) ((4.911250e-11 1.127666e-14 -1.446476e-14) (2.487630e-07 8.103217e-12 1.218924e-11))
5.663773      	((-1.649390e-10 5.366114e-10 7.273472e-10) (1.218425e-10 -4.927216e-10 4.988938e-10)) ((4.465533e-11 3.389825e-14 -2.446219e-14) (2.309411e-07 7.946732e-12 1.194273e-11))
6.808528      	((-4.511623e-10 3.925057e-10 1.060983e-09) (3.542682e-11 -4.157325e-10 4.321962e-10)) ((4.039933e-11 3.334883e-14 -3.186917e-14) (2.148594e-07 7.057111e-12 1.125747e-11))
8.182233      	((-4.013102e-11 -1.832599e-11 8.769898e-10) (-2.462813e-11 -2.680512e-10 3.552111e-10)) ((3.653749e-11 3.211571e-14 -4.287376e-14) (2.002194e-07 5.915583e-12 9.923305e-12))
9.83068       	((-2.507399e-10 2.533244e-10 8.278707e-10) (-5.179992e-11 -1.397276e-10 2.661276e-10)) ((3.292474e-11 3.957894e-14 -6.040588e-14) (1.868056e-07 5.220791e-12 7.735199e-12))
11.808816     	((-3.888654e-11 1.575857e-10 4.194233e-10) (-3.831540e-11 -5.783293e-11 2.169745e-10)) ((2.974449e-11 3.491589e-14 -5.566848e-14) (1.744524e-07 5.263978e-12 5.097644e-12))
14.182579     	((-3.282015e-10 1.846699e-10 1.911055e-10) (-2.112966e-11 -2.450021e-11 1.606998e-10)) ((2.688569e-11 1.189434e-14 -4.513256e-14) (1.630494e-07 5.077279e-12 2.975644e-12))
17.031095     	((-6.747200e-11 9.562617e-11 1.916432e-10) (-1.103202e-11 -1.773058e-11 1.196926e-10)) ((2.432524e-11 -1.542590e-14 -2.305318e-14) (1.525457e-07 4.329639e-12 1.312990e-12))
20.449314     	((-4.611148e-11 7.375966e-12 9.817454e-11) (-4.597225e-11 -1.962846e-12 8.751745e-11)) ((2.216245e-11 -3.270411e-14 -1.190649e-14) (1.429269e-07 3.727192e-12 -3.179881e-13))
24.551176     	((-2.189494e-12 -6.649892e-11 4.878826e-11) (-5.915780e-11 4.539540e-11 6.617498e-11)) ((2.027697e-11 -3.581827e-14 1.139792e-15) (1.341739e-07 3.370981e-12 -1.593621e-12))
29.473411     	((-7.287788e-11 -1.940846e-10 -2.740198e-11) (-2.628191e-12 5.857806e-11 4.847850e-11)) ((1.862048e-11 -4.164443e-14 1.572897e-14) (1.262472e-07 3.524760e-12 -2.191618e-12))
35.380094     	((-2.531114e-11 -2.025351e-10 -3.578778e-11) (-2.995674e-11 5.505004e-11 3.674850e-11)) ((1.718439e-11 -4.461021e-14 1.645700e-14) (1.190853e-07 4.239872e-12 -2.387788e-12))
42.468112     	((-8.944328e-11 -5.971212e-11 -3.372993e-11) (-5.276231e-11 7.255507e-11 2.251177e-11)) ((1.597540e-11 -3.715322e-14 7.080240e-15) (1.126115e-07 4.840582e-12 -2.435366e-12))
50.973735     	((-6.910106e-11 -6.676871e-11 3.254303e-13) (-3.806996e-11 7.483066e-11 -1.429706e-11)) ((1.494482e-11 -3.660429e-14 2.088391e-15) (1.067480e-07 4.886514e-12 -2.039994e-12))
61.180482     	((-5.672950e-11 8.200535e-11 1.045107e-10) (-2.022985e-11 9.320268e-11 -2.374300e-11)) ((1.405494e-11 -3.134619e-14 -4.194760e-15) (1.014196e-07 4.564421e-12 -1.458896e-12))
73.428578     	((-4.000122e-11 1.112750e-10 2.319062e-10) (-2.176301e-11 9.905828e-11 -4.163981e-11)) ((1.326778e-11 -2.555224e-14 -9.705420e-15) (9.656912e-08 4.120137e-12 -1.035240e-12))
88.126294     	((-5.577383e-11 1.353902e-10 2.534828e-10) (-2.318105e-11 1.326820e-10 -3.713153e-11)) ((1.252785e-11 -2.329249e-14 -9.695745e-15) (9.216355e-08 3.418416e-12 -6.618322e-13))
105.763553    	((-1.961259e-11 8.180007e-11 1.034271e-10) (-1.972707e-11 1.304849e-10 -5.228517e-11)) ((1.174743e-11 -2.001191e-14 -1.048439e-14) (8.817652e-08 2.803015e-12 -1.916286e-13))
126.928263    	((-1.632049e-12 1.150029e-11 -6.248051e-11) (-2.777821e-11 9.901441e-11 -8.540919e-11)) ((1.106029e-11 -2.188764e-14 -7.182481e-15) (8.458685e-08 2.151605e-12 1.930059e-13))
152.325916    	((3.153803e-11 -4.687283e-11 -1.367751e-10) (-4.142735e-11 6.064414e-11 -1.051023e-10)) ((1.048478e-11 -2.027395e-14 -6.653373e-15) (8.137191e-08 1.333067e-12 4.628937e-13))
182.803099    	((5.545083e-11 -1.477976e-10 -2.980306e-10) (-3.683800e-12 2.118893e-11 -1.209320e-10)) ((1.002475e-11 -1.801806e-14 -8.207241e-15) (7.850417e-08 4.020971e-13 6.864349e-13))
218.387049    	((1.096326e-11 -1.751959e-10 -3.836638e-10) (7.460342e-12 1.539970e-11 -1.151098e-10)) ((9.651775e-12 -1.734779e-14 -9.698707e-15) (7.598215e-08 -5.805106e-13 7.967002e-13))
259.076609    	((-3.217139e-12 -2.348757e-10 -4.749220e-10) (3.077909e-11 1.288961e-11 -1.233727e-10)) ((9.332806e-12 -1.230935e-14 -1.077074e-14) (7.378930e-08 -1.453801e-12 7.903757e-13))
304.87055     	((-2.688288e-11 -1.837071e-10 -4.591767e-10) (5.443667e-11 3.542478e-11 -1.260184e-10)) ((9.058766e-12 -8.806649e-15 -1.174913e-14) (7.190704e-08 -2.164096e-12 6.300502e-13))
355.767513    	((9.564265e-12 -1.962190e-10 -4.534480e-10) (7.253879e-11 4.316588e-11 -1.416436e-10)) ((8.821915e-12 -9.883578e-15 -1.061883e-14) (7.030921e-08 -2.445525e-12 2.593588e-13))
406.783022    	((4.473775e-11 -1.782467e-10 -4.316612e-10) (8.048470e-11 5.404151e-11 -1.496788e-10)) ((8.631384e-12 -1.024811e-14 -9.477146e-15) (6.900597e-08 -2.363646e-12 -2.488792e-13))
457.784519    	((5.031320e-11 -1.499642e-10 -3.786788e-10) (7.881624e-11 7.294943e-11 -1.454233e-10)) ((8.465391e-12 -1.026207e-14 -8.718524e-15) (6.795530e-08 -2.127947e-12 -6.761876e-13))
508.770646    	((3.344765e-11 -1.349319e-10 -3.298420e-10) (8.476410e-11 8.985298e-11 -1.348155e-10)) ((8.336903e-12 -1.063567e-14 -6.932061e-15) (6.712568e-08 -1.835063e-12 -9.802001e-13))
559.741647    	((3.898068e-11 -1.125576e-10 -2.644020e-10) (8.880363e-11 1.092519e-10 -1.166884e-10)) ((8.229719e-12 -1.121329e-14 -5.205550e-15) (6.647810e-08 -1.543708e-12 -1.215014e-12))
610.697974    	((5.175492e-11 -1.157850e-10 -2.278500e-10) (9.730625e-11 1.258108e-10 -1.006487e-10)) ((8.143693e-12 -1.046577e-14 -4.092016e-15) (6.598322e-08 -1.266807e-12 -1.394417e-12))
661.640652    	((5.972686e-11 -1.002179e-10 -1.773856e-10) (9.435365e-11 1.338183e-10 -9.035392e-11)) ((8.078866e-12 -1.034198e-14 -3.192862e-15) (6.561376e-08 -1.005360e-12 -1.564131e-12))
712.571015    	((3.213962e-11 -9.822215e-11 -1.487846e-10) (8.929634e-11 1.377434e-10 -8.292012e-11)) ((8.029904e-12 -1.134226e-14 -2.197180e-15) (6.534904e-08 -8.024876e-13 -1.654042e-12))
763.490358    	((2.869044e-11 -9.903865e-11 -1.325342e-10) (8.776954e-11 1.396772e-10 -7.500263e-11)) ((7.995619e-12 -1.169935e-14 -2.000907e-15) (6.517082e-08 -7.358969e-13 -1.614843e-12))
814.399882    	((3.480808e-11 -7.757249e-11 -1.152497e-10) (8.398744e-11 1.419801e-10 -7.031383e-11)) ((7.971366e-12 -1.275503e-14 -1.976487e-15) (6.506460e-08 -7.432069e-13 -1.534555e-12))
865.300976    	((3.998572e-11 -6.336418e-11 -9.919236e-11) (7.803168e-11 1.458706e-10 -7.072740e-11)) ((7.952793e-12 -1.360701e-14 -1.885649e-15) (6.501777e-08 -7.680843e-13 -1.477116e-12))
916.193157    	((5.618876e-11 -4.573740e-11 -8.591574e-11) (7.483500e-11 1.461871e-10 -7.396927e-11)) ((7.944871e-12 -1.420317e-14 -1.909139e-15) (6.501986e-08 -7.807584e-13 -1.415160e-12))
967.076932    	((6.153824e-11 -3.823125e-11 -7.481051e-11) (7.219798e-11 1.474827e-10 -7.594548e-11)) ((7.942129e-12 -1.467708e-14 -1.580320e-15) (6.506147e-08 -8.070575e-13 -1.275646e-12))
1017.953468   	((8.038218e-11 -2.962683e-11 -6.532733e-11) (7.379054e-11 1.499856e-10 -7.709103e-11)) ((7.946099e-12 -1.515526e-14 -1.221173e-15) (6.513436e-08 -8.397289e-13 -1.122657e-12))
1068.823947   	((8.847213e-11 -2.206455e-11 -5.383911e-11) (7.358630e-11 1.533336e-10 -7.802857e-11)) ((7.954433e-12 -1.558793e-14 -8.589506e-16) (6.523182e-08 -8.485558e-13 -1.011456e-12))
1119.689502   	((9.735537e-11 -1.395540e-11 -4.261979e-11) (7.201568e-11 1.552842e-10 -7.852569e-11)) ((7.965593e-12 -1.607971e-14 -4.165761e-16) (6.534792e-08 -8.527201e-13 -9.055612e-13))
1170.551215   	((1.082135e-10 -1.218895e-11 -3.463766e-11) (7.083997e-11 1.557592e-10 -7.829107e-11)) ((7.979981e-12 -1.655758e-14 -8.482200e-17) (6.547752e-08 -8.659951e-13 -7.974896e-13))
1221.410149   	((1.207838e-10 -9.423192e-12 -2.426194e-11) (7.160887e-11 1.558265e-10 -7.778308e-11)) ((7.995841e-12 -1.705826e-14 1.340534e-16) (6.561624e-08 -9.134567e-13 -7.021664e-13))
