# Forces      
# CofR        : (0.000000e+00 0.000000e+00 0.000000e+00)
# Time        forces(pressure viscous)	moments(pressure viscous)
0             	((0.000000e+00 0.000000e+00 0.000000e+00) (5.650753e-16 1.004981e-05 -1.279806e-15)) ((0.000000e+00 0.000000e+00 0.000000e+00) (2.791204e-16 -2.657359e-18 -3.615184e-12))
0.012         	((-1.523303e-10 2.922640e-03 -5.787519e-10) (-7.307224e-12 1.153437e-05 -8.802278e-12)) ((1.177756e-12 -3.360476e-15 -5.523487e-10) (4.151079e-14 1.563318e-15 -7.550231e-12))
0.0264        	((-1.236450e-08 -2.004476e-04 3.699903e-09) (-2.126686e-11 1.177091e-05 -5.796695e-12)) ((-2.730755e-12 -1.591071e-13 3.699744e-11) (-8.122099e-14 -1.940017e-14 -1.025262e-11))
0.04368       	((3.553555e-08 -6.124041e-04 -2.324996e-08) (1.289119e-11 1.046246e-05 -1.335498e-11)) ((-1.217041e-12 2.537641e-13 1.464098e-10) (-4.184298e-13 -2.812879e-14 -8.859279e-12))
0.064416      	((-5.873855e-09 -5.800924e-06 9.967508e-09) (1.686959e-10 9.267575e-06 1.281583e-10)) ((9.550850e-13 2.370422e-13 -6.121256e-12) (8.380005e-13 -3.601599e-14 -1.115370e-11))
0.0892992     	((-5.966258e-09 8.212148e-06 7.691559e-09) (2.174205e-10 8.556520e-06 2.259433e-10)) ((2.612281e-13 -5.131985e-13 -8.197103e-12) (1.683630e-12 -7.430091e-14 -1.231850e-11))
0.119159      	((2.928402e-09 -9.112914e-06 8.953203e-09) (1.755962e-10 7.901341e-06 2.138781e-10)) ((8.625798e-13 7.888471e-14 2.023262e-12) (-3.714144e-13 -5.856695e-14 -1.099892e-11))
0.154991      	((7.246827e-11 -4.932441e-06 -9.073999e-10) (1.381060e-10 7.206081e-06 1.998715e-10)) ((4.669971e-13 9.936599e-14 6.147828e-13) (-2.368111e-12 -1.591730e-13 -8.509190e-12))
0.197989      	((8.483797e-10 -1.196238e-06 -2.321259e-09) (6.336912e-11 6.503660e-06 1.295608e-10)) ((6.069113e-13 -3.601025e-14 1.105745e-13) (-2.690703e-12 -5.728961e-13 -2.575541e-12))
0.249587      	((9.508734e-10 1.573910e-07 -6.570959e-10) (8.766247e-12 5.813996e-06 6.243958e-11)) ((4.528701e-13 -1.152855e-14 -5.904770e-13) (-2.218675e-12 -7.838934e-13 3.401928e-13))
0.311504      	((9.357004e-10 7.773238e-07 -2.086081e-10) (-9.665690e-12 5.157636e-06 2.318412e-11)) ((2.874288e-13 -1.367235e-14 -7.952305e-13) (-1.626262e-12 -6.482311e-13 8.507078e-13))
0.385805      	((1.201611e-10 1.072920e-06 -1.963141e-10) (-1.150142e-11 4.551097e-06 9.816345e-13)) ((2.027998e-13 -3.854743e-15 -6.675792e-13) (-9.679324e-13 -5.643037e-13 1.629501e-12))
0.474966      	((-1.302128e-10 1.211732e-06 -2.113689e-10) (-1.254004e-11 4.006780e-06 -1.115525e-11)) ((1.261161e-13 -4.408581e-15 -5.490659e-13) (-4.776164e-13 -5.360517e-13 1.149106e-12))
0.581959      	((-2.590495e-10 1.267275e-06 -1.815395e-10) (-1.993139e-11 3.530324e-06 -1.743923e-11)) ((7.826698e-14 -3.194881e-15 -4.696656e-13) (-2.415907e-13 -4.222684e-13 -1.266648e-12))
0.710351      	((-2.040885e-10 1.262153e-06 -1.767727e-10) (-5.002602e-12 3.122184e-06 -1.951540e-11)) ((4.295494e-14 -2.105874e-15 -3.783894e-13) (-2.562849e-13 -2.894398e-13 -3.829049e-12))
0.864421      	((-1.611283e-10 1.216435e-06 -1.358307e-10) (2.428726e-11 2.777183e-06 -2.066722e-11)) ((2.400648e-14 -4.489586e-15 -3.823936e-13) (-7.761894e-14 -1.697870e-13 -4.098878e-12))
1.049306      	((-1.127824e-10 1.149315e-06 -1.153314e-10) (4.684463e-11 2.486452e-06 -1.737596e-11)) ((1.019235e-14 -1.953610e-15 -3.729357e-13) (-4.491571e-14 -8.690535e-14 -2.250449e-12))
1.271167      	((-6.263764e-11 1.075046e-06 -8.378602e-11) (4.777709e-11 2.240783e-06 -1.331332e-11)) ((2.552117e-15 -2.207908e-15 -3.441985e-13) (-1.465807e-13 -6.673156e-14 -4.998708e-14))
1.5374        	((-2.640200e-11 9.992952e-07 -6.727862e-11) (3.552729e-11 2.030385e-06 -9.986949e-12)) ((-1.820501e-15 -1.695657e-15 -3.385150e-13) (-1.373662e-13 -5.205825e-14 1.488505e-12))
1.85688       	((-1.308420e-11 9.254388e-07 -5.522420e-11) (2.184360e-11 1.846304e-06 -8.559438e-12)) ((-2.262406e-15 -8.684861e-16 -3.407705e-13) (-1.255163e-14 -4.093457e-14 2.380068e-12))
2.240256      	((-7.607073e-12 8.553649e-07 -5.527629e-11) (1.732426e-11 1.682663e-06 -1.068258e-11)) ((-5.812433e-16 -5.213006e-16 -3.405347e-13) (2.123821e-14 -3.917190e-14 2.409480e-12))
2.700307      	((-2.661179e-11 7.899574e-07 -5.754418e-11) (2.662450e-11 1.535842e-06 -1.318863e-11)) ((3.101826e-16 -4.546217e-16 -3.364261e-13) (-9.454881e-14 -3.170440e-14 9.760188e-13))
3.252369      	((-2.420995e-11 7.289523e-07 -5.641467e-11) (3.275598e-11 1.403469e-06 -1.334667e-11)) ((1.006569e-15 -7.173652e-16 -3.111044e-13) (-2.849794e-13 -2.047050e-14 -1.309321e-12))
3.914842      	((-1.174234e-11 6.716130e-07 -5.082526e-11) (2.794183e-11 1.283838e-06 -1.239664e-11)) ((1.518621e-15 -1.267822e-15 -2.826273e-13) (-4.184648e-13 -1.081579e-14 -3.424278e-12))
4.709811      	((2.385632e-11 6.184082e-07 -4.255196e-11) (2.512253e-11 1.175700e-06 -1.139597e-11)) ((2.217677e-15 -2.419712e-15 -2.548328e-13) (-4.937208e-13 -7.905048e-15 -5.261547e-12))
5.663773      	((5.561114e-11 5.693942e-07 -3.069222e-11) (2.067987e-11 1.078129e-06 -1.010007e-11)) ((3.013427e-15 -3.349583e-15 -2.303498e-13) (-5.357122e-13 -1.303708e-14 -6.528567e-12))
6.808528      	((5.344453e-11 5.244171e-07 -2.833414e-11) (1.749052e-11 9.903411e-07 -8.192690e-12)) ((3.408944e-15 -3.210490e-15 -2.027120e-13) (-5.738515e-13 -1.203504e-14 -6.974093e-12))
8.182233      	((3.385072e-11 4.832744e-07 -2.956579e-11) (1.161987e-11 9.115244e-07 -6.381986e-12)) ((3.558448e-15 -3.320113e-15 -1.749314e-13) (-6.750476e-13 1.325042e-15 -6.697099e-12))
9.83068       	((3.735358e-11 4.459039e-07 -3.206843e-11) (3.624712e-12 8.407269e-07 -5.743987e-12)) ((4.282002e-15 -3.493329e-15 -1.511418e-13) (-9.064692e-13 1.999542e-14 -6.139357e-12))
11.808816     	((2.218996e-11 4.116828e-07 -4.472838e-11) (2.840470e-13 7.769009e-07 -6.590141e-12)) ((4.638240e-15 -3.496664e-15 -1.310465e-13) (-1.341779e-12 3.041770e-14 -5.327913e-12))
14.182579     	((-7.151023e-13 3.803800e-07 -5.908128e-11) (-1.095956e-12 7.190972e-07 -7.890738e-12)) ((5.546917e-15 -3.630936e-15 -1.135009e-13) (-1.957317e-12 3.196526e-14 -4.247057e-12))
17.031095     	((2.485039e-12 3.518402e-07 -5.230660e-11) (-1.954982e-12 6.665409e-07 -1.001837e-11)) ((5.820230e-15 -3.606618e-15 -9.880688e-14) (-2.769275e-12 3.950313e-14 -3.114764e-12))
20.449314     	((-1.938400e-11 3.258491e-07 -7.221088e-11) (-4.871524e-12 6.186351e-07 -1.260260e-11)) ((6.924187e-15 -3.321601e-15 -8.691826e-14) (-3.647741e-12 4.582016e-14 -1.932038e-12))
24.551176     	((-1.630795e-11 3.020197e-07 -6.425874e-11) (-3.682821e-12 5.749324e-07 -1.336365e-11)) ((7.513550e-15 -3.011328e-15 -7.672931e-14) (-4.486652e-12 5.237802e-14 -8.753507e-13))
29.473411     	((-8.907589e-12 2.802531e-07 -4.769992e-11) (-8.220046e-13 5.350996e-07 -1.215750e-11)) ((6.807201e-15 -2.791928e-15 -6.799807e-14) (-5.279170e-12 5.408212e-14 1.183756e-13))
35.380094     	((-6.043496e-12 2.603815e-07 -3.925365e-11) (1.550429e-12 4.988633e-07 -9.210701e-12)) ((5.661963e-15 -2.394473e-15 -6.095765e-14) (-6.089297e-12 4.175152e-14 1.133058e-12))
42.468112     	((7.768274e-12 2.424092e-07 -1.840858e-11) (4.602405e-12 4.659522e-07 -5.800513e-12)) ((4.925410e-15 -2.215192e-15 -5.528367e-14) (-7.012481e-12 3.134082e-14 2.275109e-12))
50.973735     	((3.292160e-11 2.261504e-07 6.239073e-12) (8.189119e-12 4.360946e-07 -1.620733e-12)) ((4.802758e-15 -2.265736e-15 -5.065175e-14) (-8.077464e-12 1.805040e-14 3.606921e-12))
61.180482     	((5.744583e-11 2.114846e-07 2.917069e-11) (1.154534e-11 4.090189e-07 2.476955e-12)) ((4.642745e-15 -2.075603e-15 -4.675535e-14) (-9.290915e-12 1.004743e-14 5.118140e-12))
73.428578     	((7.929853e-11 1.982855e-07 4.961526e-11) (1.351496e-11 3.844541e-07 4.868064e-12)) ((4.191028e-15 -1.955540e-15 -4.384887e-14) (-1.068673e-11 -6.206656e-16 6.796648e-12))
88.126294     	((9.751143e-11 1.864164e-07 6.540889e-11) (1.404933e-11 3.621453e-07 6.278776e-12)) ((3.552721e-15 -1.865022e-15 -4.160646e-14) (-1.223339e-11 -2.791263e-15 8.613271e-12))
105.763553    	((1.075904e-10 1.757919e-07 7.548946e-11) (1.333567e-11 3.418654e-07 6.431072e-12)) ((2.921343e-15 -1.614778e-15 -3.949365e-14) (-1.383538e-11 7.537177e-16 1.045472e-11))
126.928263    	((1.153904e-10 1.663912e-07 8.067039e-11) (1.211809e-11 3.234341e-07 5.292481e-12)) ((2.188172e-15 -1.451048e-15 -3.764326e-14) (-1.538566e-11 9.353592e-15 1.222522e-11))
152.325916    	((1.130203e-10 1.581132e-07 7.965588e-11) (9.533510e-12 3.066969e-07 3.084005e-12)) ((1.593199e-15 -1.275735e-15 -3.621110e-14) (-1.680935e-11 8.952060e-15 1.386074e-11))
182.803099    	((1.195792e-10 1.508304e-07 8.547748e-11) (7.615778e-12 2.915202e-07 7.528024e-13)) ((8.983351e-16 -1.129889e-15 -3.525060e-14) (-1.802505e-11 5.164371e-15 1.521570e-11))
219.375719    	((1.284075e-10 1.444326e-07 9.336203e-11) (6.278425e-12 2.777952e-07 -1.263791e-12)) ((2.440724e-16 -9.921426e-16 -3.475356e-14) (-1.898814e-11 6.711152e-15 1.630866e-11))
263.262863    	((1.315667e-10 1.388809e-07 9.889129e-11) (6.527420e-12 2.654199e-07 -2.969223e-12)) ((-2.600080e-16 -8.909854e-16 -3.473506e-14) (-1.969986e-11 4.379462e-15 1.715765e-11))
315.927436    	((1.289697e-10 1.341461e-07 1.006416e-10) (6.390067e-12 2.543101e-07 -4.413075e-12)) ((-6.833499e-16 -7.998131e-16 -3.510110e-14) (-2.015650e-11 -3.376168e-15 1.773629e-11))
379.124923    	((1.297056e-10 1.302035e-07 1.023618e-10) (5.825197e-12 2.443910e-07 -5.181557e-12)) ((-8.646296e-16 -7.534954e-16 -3.565770e-14) (-2.038020e-11 -1.343409e-14 1.806098e-11))
454.961908    	((1.324266e-10 1.269966e-07 1.022196e-10) (6.135548e-12 2.355956e-07 -5.578340e-12)) ((-9.210538e-16 -6.006437e-16 -3.629986e-14) (-2.036478e-11 -1.175160e-14 1.816607e-11))
545.966289    	((1.295283e-10 1.244379e-07 9.792694e-11) (6.964944e-12 2.278597e-07 -5.366944e-12)) ((-9.200021e-16 -4.834436e-16 -3.725966e-14) (-2.011952e-11 -1.726385e-15 1.807522e-11))
655.171547    	((1.263823e-10 1.224342e-07 9.317213e-11) (8.785572e-12 2.211179e-07 -4.224524e-12)) ((-8.554027e-16 -4.793085e-16 -3.834961e-14) (-1.966078e-11 7.815102e-15 1.775501e-11))
786.217856    	((1.238628e-10 1.208983e-07 8.992561e-11) (1.150517e-11 2.152996e-07 -2.278766e-12)) ((-7.769452e-16 -5.329847e-16 -3.936314e-14) (-1.900318e-11 1.681776e-14 1.721092e-11))
943.473427    	((1.226110e-10 1.197298e-07 8.945078e-11) (1.510401e-11 2.103298e-07 3.591051e-13)) ((-5.974803e-16 -5.965817e-16 -4.017713e-14) (-1.817775e-11 1.919894e-14 1.646360e-11))
1132.180113   	((1.203750e-10 1.188377e-07 8.923652e-11) (1.913657e-11 2.061266e-07 3.837061e-12)) ((-4.150009e-16 -5.661503e-16 -4.079304e-14) (-1.719953e-11 1.990340e-14 1.554544e-11))
1358.628135   	((1.160192e-10 1.181470e-07 8.828332e-11) (2.333300e-11 2.026023e-07 7.890410e-12)) ((-2.923618e-16 -5.471043e-16 -4.121468e-14) (-1.610080e-11 1.987891e-14 1.449962e-11))
1624.790065   	((1.110481e-10 1.176134e-07 8.541550e-11) (2.748432e-11 1.996747e-07 1.173347e-11)) ((-8.482118e-17 -5.181206e-16 -4.134686e-14) (-1.492468e-11 2.006844e-14 1.336538e-11))
1930.739282   	((1.053393e-10 1.171901e-07 8.264016e-11) (3.150583e-11 1.972588e-07 1.570699e-11)) ((7.183298e-17 -5.173138e-16 -4.142675e-14) (-1.370810e-11 1.934415e-14 1.218756e-11))
2276.536445   	((9.984432e-11 1.168497e-07 7.916505e-11) (3.537193e-11 1.952768e-07 1.957986e-11)) ((2.595570e-16 -5.233930e-16 -4.148182e-14) (-1.249768e-11 1.605169e-14 1.100574e-11))
2662.231754   	((9.397872e-11 1.165717e-07 7.447876e-11) (3.895388e-11 1.936570e-07 2.312678e-11)) ((4.520295e-16 -5.527893e-16 -4.146731e-14) (-1.132587e-11 1.117995e-14 9.866507e-12))
3061.639652   	((8.829103e-11 1.163540e-07 6.937313e-11) (4.203552e-11 1.923425e-07 2.623119e-11)) ((6.005310e-16 -5.533787e-16 -4.143735e-14) (-1.021676e-11 6.447743e-15 8.789201e-12))
3461.403769   	((8.277056e-11 1.161767e-07 6.417717e-11) (4.450436e-11 1.912769e-07 2.879664e-11)) ((7.295774e-16 -5.657146e-16 -4.142270e-14) (-9.187332e-12 2.179650e-15 7.794115e-12))
3861.463399   	((7.727156e-11 1.160330e-07 5.939125e-11) (4.632005e-11 1.904155e-07 3.079472e-11)) ((8.522448e-16 -5.731603e-16 -4.140097e-14) (-8.248513e-12 -1.977362e-17 6.890731e-12))
4261.766127   	((7.211039e-11 1.159142e-07 5.495512e-11) (4.756147e-11 1.897188e-07 3.223052e-11)) ((9.627879e-16 -5.850214e-16 -4.137723e-14) (-7.403146e-12 -1.088201e-15 6.080904e-12))
4662.268122   	((6.730861e-11 1.158169e-07 5.060071e-11) (4.833725e-11 1.891554e-07 3.318821e-11)) ((1.066437e-15 -5.887870e-16 -4.136383e-14) (-6.650994e-12 -1.805205e-15 5.359689e-12))
5062.932702   	((6.292523e-11 1.157364e-07 4.674278e-11) (4.870761e-11 1.886993e-07 3.373355e-11)) ((1.151664e-15 -5.985158e-16 -4.135609e-14) (-5.987136e-12 -2.334048e-15 4.722150e-12))
5463.729694   	((5.897613e-11 1.156705e-07 4.318936e-11) (4.875721e-11 1.883298e-07 3.392264e-11)) ((1.226652e-15 -6.015368e-16 -4.134246e-14) (-5.405596e-12 -2.712655e-15 4.162840e-12))
5864.634328   	((5.550804e-11 1.156161e-07 3.993406e-11) (4.857117e-11 1.880300e-07 3.383609e-11)) ((1.293286e-15 -5.998484e-16 -4.133198e-14) (-4.899803e-12 -3.175167e-15 3.675662e-12))
6265.626406   	((5.246188e-11 1.155713e-07 3.705208e-11) (4.821516e-11 1.877866e-07 3.354072e-11)) ((1.352450e-15 -5.987672e-16 -4.132490e-14) (-4.462300e-12 -3.627809e-15 3.253628e-12))
6666.68945    	((4.977129e-11 1.155344e-07 3.448175e-11) (4.774688e-11 1.875886e-07 3.311043e-11)) ((1.405265e-15 -5.991554e-16 -4.132018e-14) (-4.085700e-12 -3.956077e-15 2.889771e-12))
7067.81009    	((4.742082e-11 1.155041e-07 3.225268e-11) (4.720791e-11 1.874274e-07 3.259501e-11)) ((1.450614e-15 -5.990064e-16 -4.131708e-14) (-3.762907e-12 -4.193306e-15 2.577167e-12))
7468.977455   	((4.537509e-11 1.154788e-07 3.034592e-11) (4.663236e-11 1.872960e-07 3.202581e-11)) ((1.489323e-15 -5.994872e-16 -4.131502e-14) (-3.487371e-12 -4.423871e-15 2.309748e-12))
7870.182742   	((4.363414e-11 1.154580e-07 2.859111e-11) (4.604829e-11 1.871888e-07 3.143229e-11)) ((1.522703e-15 -6.003949e-16 -4.131371e-14) (-3.253135e-12 -4.631052e-15 2.081854e-12))
8271.418825   	((4.215078e-11 1.154409e-07 2.715715e-11) (4.547179e-11 1.871013e-07 3.084213e-11)) ((1.550667e-15 -6.006777e-16 -4.131450e-14) (-3.054649e-12 -4.825387e-15 1.888336e-12))
8672.679927   	((4.088178e-11 1.154268e-07 2.587054e-11) (4.491857e-11 1.870297e-07 3.027196e-11)) ((1.574715e-15 -6.013518e-16 -4.131538e-14) (-2.886904e-12 -5.005830e-15 1.724554e-12))
9073.961376   	((3.981194e-11 1.154151e-07 2.478450e-11) (4.439888e-11 1.869711e-07 2.973442e-11)) ((1.594995e-15 -6.018617e-16 -4.131661e-14) (-2.745556e-12 -5.169186e-15 1.586355e-12))
9475.259386   	((3.890858e-11 1.154055e-07 2.390041e-11) (4.391839e-11 1.869230e-07 2.923669e-11)) ((1.612344e-15 -6.023878e-16 -4.131815e-14) (-2.626802e-12 -5.308287e-15 1.470056e-12))
9876.57089    	((3.815269e-11 1.153974e-07 2.319960e-11) (4.348172e-11 1.868836e-07 2.878467e-11)) ((1.626498e-15 -6.029523e-16 -4.131928e-14) (-2.527234e-12 -5.435102e-15 1.372445e-12))
10277.893411  	((3.753862e-11 1.153908e-07 2.258301e-11) (4.308820e-11 1.868513e-07 2.837792e-11)) ((1.638345e-15 -6.032042e-16 -4.132071e-14) (-2.443946e-12 -5.543452e-15 1.290756e-12))
10679.224936  	((3.703982e-11 1.153853e-07 2.204274e-11) (4.273769e-11 1.868248e-07 2.801566e-11)) ((1.648101e-15 -6.033006e-16 -4.132310e-14) (-2.374418e-12 -5.629252e-15 1.222548e-12))
11080.563825  	((3.663119e-11 1.153807e-07 2.155785e-11) (4.242968e-11 1.868030e-07 2.769749e-11)) ((1.656100e-15 -6.033518e-16 -4.132308e-14) (-2.316491e-12 -5.703881e-15 1.165714e-12))
11481.908741  	((3.634498e-11 1.153768e-07 2.118335e-11) (4.216304e-11 1.867850e-07 2.742086e-11)) ((1.663005e-15 -6.040019e-16 -4.132294e-14) (-2.268325e-12 -5.761346e-15 1.118406e-12))
11883.258605  	((3.589871e-11 1.153736e-07 2.086066e-11) (4.192707e-11 1.867702e-07 2.718150e-11)) ((1.668480e-15 -6.037607e-16 -4.132428e-14) (-2.228351e-12 -5.809582e-15 1.079120e-12))
12284.612537  	((3.560774e-11 1.153710e-07 2.059393e-11) (4.172248e-11 1.867580e-07 2.697551e-11)) ((1.673168e-15 -6.036508e-16 -4.132684e-14) (-2.195216e-12 -5.842161e-15 1.046601e-12))
12685.969818  	((3.541935e-11 1.153688e-07 2.037875e-11) (4.155211e-11 1.867480e-07 2.679998e-11)) ((1.676998e-15 -6.034931e-16 -4.132698e-14) (-2.167809e-12 -5.866696e-15 1.019701e-12))
13087.329859  	((3.529099e-11 1.153672e-07 2.021997e-11) (4.140626e-11 1.867397e-07 2.665198e-11)) ((1.680200e-15 -6.038533e-16 -4.132715e-14) (-2.145159e-12 -5.883702e-15 9.974602e-13))
13488.692176  	((3.522061e-11 1.153658e-07 2.008443e-11) (4.128493e-11 1.867329e-07 2.652708e-11)) ((1.682766e-15 -6.039003e-16 -4.132582e-14) (-2.126456e-12 -5.893861e-15 9.791336e-13))
13890.056373  	((3.509307e-11 1.153647e-07 1.997790e-11) (4.117903e-11 1.867273e-07 2.642318e-11)) ((1.684874e-15 -6.037141e-16 -4.132622e-14) (-2.111037e-12 -5.904464e-15 9.640260e-13))
14291.422125  	((3.499898e-11 1.153637e-07 1.988257e-11) (4.109235e-11 1.867226e-07 2.633628e-11)) ((1.686662e-15 -6.037031e-16 -4.132639e-14) (-2.098328e-12 -5.912552e-15 9.515482e-13))
