# Forces      
# CofR        : (0.000000e+00 0.000000e+00 0.000000e+00)
# Time        forces(pressure viscous)	moments(pressure viscous)
0             	((0.000000e+00 0.000000e+00 0.000000e+00) (-1.097633e-13 -5.007419e-14 1.599027e-03)) ((0.000000e+00 0.000000e+00 0.000000e+00) (2.900806e-15 6.177101e-10 3.944522e-17))
0.012         	((2.907799e-07 1.405366e-07 4.640999e-01) (-1.757186e-10 -1.114499e-09 1.829647e-03)) ((1.327042e-10 1.233827e-07 9.913907e-13) (-1.024190e-11 1.728103e-09 6.253116e-14))
0.0264        	((-3.503588e-06 -3.301296e-06 -4.816459e-02) (-3.338759e-09 -3.521593e-09 1.850902e-03)) ((3.160382e-10 -1.118822e-08 8.040375e-12) (-1.423195e-11 2.448738e-09 1.315256e-12))
0.04368       	((5.182873e-06 2.742305e-06 -8.847728e-02) (-2.459695e-09 -2.316995e-09 1.629317e-03)) ((-1.063509e-09 -1.966728e-08 -1.421648e-11) (4.545094e-11 2.499966e-09 -1.191096e-12))
0.064416      	((-1.415362e-06 2.628788e-06 -6.954219e-04) (-2.250264e-08 1.279621e-08 1.436691e-03)) ((2.771661e-10 1.320410e-09 1.373822e-11) (2.749854e-10 2.910094e-09 -1.315228e-11))
0.0892992     	((1.298205e-06 -4.126026e-07 -1.265869e-05) (-3.255034e-08 1.786495e-08 1.322650e-03)) ((2.027472e-10 3.166013e-10 -1.006339e-11) (5.319044e-10 3.499613e-09 -3.252874e-11))
0.119159      	((2.794124e-07 5.016768e-07 -1.469615e-03) (-8.882573e-09 1.308755e-08 1.222347e-03)) ((6.719500e-11 5.334637e-10 1.398620e-12) (5.444332e-10 3.183986e-09 -4.714848e-11))
0.154991      	((9.596806e-08 -1.211488e-07 -4.138905e-04) (6.589603e-09 9.948290e-09 1.121064e-03)) ((7.583008e-12 7.302545e-10 6.553982e-12) (4.073796e-10 2.440408e-09 -4.824099e-11))
0.197989      	((-1.930502e-07 -3.259689e-07 9.581918e-06) (-2.100555e-10 5.460918e-09 1.024962e-03)) ((4.678121e-12 8.583156e-10 -1.561120e-12) (3.027802e-10 2.195340e-09 -4.228318e-11))
0.249587      	((-2.832294e-07 -2.781665e-07 1.570631e-04) (-3.036999e-09 2.553628e-09 9.372833e-04)) ((4.586235e-13 9.606985e-10 -8.491603e-13) (2.241996e-10 2.507223e-09 -3.755641e-11))
0.311504      	((-3.294090e-07 -1.823381e-07 2.442410e-04) (1.024798e-08 1.553326e-09 8.595675e-04)) ((1.984337e-12 9.100265e-10 1.010929e-12) (1.728396e-10 3.042699e-09 -3.470814e-11))
0.385805      	((-8.859738e-08 -1.553941e-07 2.910064e-04) (2.665720e-08 1.561369e-09 7.913031e-04)) ((4.496413e-12 8.859937e-10 7.723455e-13) (1.417205e-10 3.768605e-09 -3.246548e-11))
0.474966      	((-3.923313e-08 -8.030324e-08 3.138088e-04) (3.706267e-08 1.124969e-09 7.307663e-04)) ((5.225189e-12 8.178306e-10 4.307458e-13) (1.275779e-10 4.327169e-09 -3.343637e-11))
0.581959      	((-2.556856e-08 -8.863294e-08 3.222880e-04) (3.286324e-08 -7.879670e-10 6.749399e-04)) ((4.577547e-12 7.171780e-10 2.756326e-13) (1.108987e-10 4.176712e-09 -3.091967e-11))
0.710351      	((-9.245989e-08 -5.443674e-08 3.211044e-04) (1.903033e-08 -3.422865e-09 6.213079e-04)) ((3.850977e-12 6.503157e-10 -2.736952e-13) (8.987416e-11 3.404268e-09 -2.298694e-11))
0.864421      	((-9.427114e-08 -6.684960e-08 3.151823e-04) (4.869950e-09 -5.457239e-09 5.696442e-04)) ((4.452498e-12 5.940491e-10 -5.565861e-13) (6.985848e-11 2.981970e-09 -1.329761e-11))
1.049306      	((-1.040694e-07 -4.348308e-08 3.084218e-04) (-3.037881e-09 -6.077001e-09 5.208712e-04)) ((4.620209e-12 5.542940e-10 -5.224931e-13) (7.327176e-11 3.304041e-09 -7.465632e-12))
1.271167      	((-1.006278e-07 -2.484549e-08 3.043929e-04) (-2.057076e-09 -5.300860e-09 4.757862e-04)) ((5.390265e-12 5.077081e-10 -5.572582e-13) (1.364699e-10 3.867721e-09 -4.703204e-12))
1.5374        	((-1.125407e-07 -5.496179e-08 3.052898e-04) (6.368858e-09 -4.522552e-09 4.348505e-04)) ((5.267016e-12 4.649252e-10 -3.330682e-13) (2.691721e-10 3.800946e-09 -4.397828e-12))
1.85688       	((-1.655896e-07 -8.328522e-08 3.121340e-04) (1.571468e-08 -3.644519e-09 3.983229e-04)) ((4.597037e-12 4.257965e-10 1.754537e-13) (4.488400e-10 2.951724e-09 -2.594636e-12))
2.240256      	((-2.163054e-07 -1.613424e-07 3.258915e-04) (1.294652e-08 -4.037369e-09 3.663229e-04)) ((5.127202e-12 3.920007e-10 5.731320e-13) (6.136680e-10 1.947750e-09 -3.401908e-13))
2.700307      	((-2.544529e-07 -2.247533e-07 3.482791e-04) (-1.688615e-09 -6.575567e-09 3.388247e-04)) ((6.157409e-12 3.704713e-10 1.101896e-13) (6.818726e-10 1.136508e-09 3.527970e-12))
3.252369      	((-2.806360e-07 -2.227805e-07 3.799982e-04) (-1.396187e-08 -9.598044e-09 3.156267e-04)) ((6.218567e-12 3.438516e-10 1.707914e-13) (5.895445e-10 6.574180e-10 7.770525e-12))
3.905046      	((-2.740036e-07 -2.126150e-07 4.214930e-04) (-2.252481e-08 -1.243102e-08 2.965897e-04)) ((4.738135e-12 3.190153e-10 2.167814e-13) (4.217445e-10 9.801081e-10 8.113666e-12))
4.658052      	((-2.025821e-07 -1.569935e-07 4.718402e-04) (-2.393268e-08 -1.315067e-08 2.813056e-04)) ((3.092401e-12 2.982016e-10 1.307715e-14) (2.816322e-10 2.061364e-09 6.920275e-12))
5.510929      	((-1.299655e-07 -1.148386e-07 5.295410e-04) (-1.994761e-08 -1.198887e-08 2.691646e-04)) ((1.960287e-12 2.749485e-10 -1.212261e-13) (1.983665e-10 3.109557e-09 4.748711e-12))
6.462954      	((-1.240100e-07 -4.590743e-08 5.933349e-04) (-2.045948e-08 -9.045951e-09 2.596411e-04)) ((1.612384e-12 2.528607e-10 -8.679827e-14) (9.640309e-11 4.389811e-09 9.922007e-13))
7.44562       	((-7.936103e-08 4.911456e-08 6.604448e-04) (-2.013022e-08 -5.336567e-09 2.526709e-04)) ((1.368336e-12 2.476710e-10 1.087629e-15) (-8.607507e-12 6.661428e-09 -2.234818e-12))
8.418817      	((-6.534602e-08 7.330374e-08 7.217895e-04) (-1.362844e-08 -2.274124e-09 2.476047e-04)) ((5.380867e-13 2.474651e-10 1.749145e-13) (-8.548942e-11 8.834431e-09 1.930948e-12))
9.382915      	((1.200972e-09 9.695142e-08 7.748905e-04) (-4.571585e-09 -3.771347e-09 2.435868e-04)) ((-1.158480e-12 2.512561e-10 5.814142e-13) (9.345410e-11 9.526292e-09 3.133925e-12))
10.340587     	((8.372777e-08 1.604694e-07 8.175704e-04) (1.307096e-09 -8.192040e-09 2.400812e-04)) ((-4.013980e-12 2.522564e-10 6.877439e-13) (5.147803e-10 8.879848e-09 -6.836816e-13))
11.296289     	((1.524143e-07 2.663543e-07 8.502694e-04) (-3.984929e-10 -1.279386e-08 2.370962e-04)) ((-9.234055e-12 2.568078e-10 9.112892e-13) (1.125562e-09 7.473380e-09 -1.440026e-12))
12.253522     	((3.096126e-07 4.740150e-07 8.682513e-04) (-1.179830e-08 -1.377322e-08 2.345175e-04)) ((-1.527036e-11 2.575457e-10 8.336816e-13) (1.810996e-09 5.256490e-09 -6.203508e-12))
13.213337     	((3.339626e-07 5.629421e-07 8.736558e-04) (-1.802087e-08 -1.173433e-08 2.320760e-04)) ((-1.446855e-11 2.527571e-10 1.330271e-12) (2.439893e-09 3.392201e-09 -6.670709e-12))
14.175063     	((1.687136e-07 5.359110e-07 8.705541e-04) (-2.815642e-08 -1.376557e-08 2.296741e-04)) ((-1.059928e-11 2.459160e-10 1.666894e-12) (3.248034e-09 2.016314e-09 -9.880054e-12))
15.137843     	((2.612757e-08 5.071505e-07 8.597209e-04) (-4.676801e-08 -1.716226e-08 2.273898e-04)) ((-4.201936e-12 2.479787e-10 2.256597e-12) (3.931232e-09 1.156443e-09 -1.078908e-11))
16.101547     	((-1.962842e-07 3.559787e-07 8.463996e-04) (-6.385960e-08 -2.194274e-08 2.251967e-04)) ((2.783585e-12 2.469326e-10 2.605904e-12) (4.438330e-09 6.237823e-10 -5.552179e-12))
17.066489     	((-3.710470e-07 1.992465e-07 8.341990e-04) (-7.755997e-08 -3.318505e-08 2.230976e-04)) ((3.441366e-12 2.438564e-10 2.496730e-12) (4.912222e-09 3.704861e-10 2.208723e-12))
18.032974     	((-2.791374e-07 3.587190e-07 8.267945e-04) (-8.597397e-08 -3.888424e-08 2.211991e-04)) ((8.358923e-13 2.469057e-10 2.384774e-12) (5.046039e-09 2.426858e-10 9.464979e-13))
19.000936     	((-2.427482e-07 4.216673e-07 8.193161e-04) (-8.261381e-08 -3.124257e-08 2.194887e-04)) ((5.715785e-14 2.477868e-10 1.809845e-12) (4.670204e-09 3.718940e-10 1.049036e-11))
19.970321     	((-3.461787e-07 2.988301e-07 8.125126e-04) (-7.934355e-08 -2.396165e-08 2.179201e-04)) ((-1.297727e-12 2.437006e-10 2.017388e-12) (4.130054e-09 6.126830e-10 1.575120e-11))
20.941518     	((-3.952366e-07 2.034405e-07 8.062954e-04) (-7.927485e-08 -2.124607e-08 2.164480e-04)) ((-4.340795e-12 2.348241e-10 2.003481e-12) (3.659722e-09 6.801499e-10 1.064505e-11))
21.91479      	((-3.151825e-07 1.750873e-07 8.018344e-04) (-7.411122e-08 -1.732663e-08 2.150644e-04)) ((-9.529984e-12 2.269480e-10 2.125778e-12) (3.229013e-09 6.358309e-10 6.932463e-12))
22.889518     	((-3.093509e-07 9.204519e-08 7.983165e-04) (-6.902385e-08 -1.608743e-08 2.137774e-04)) ((-1.257507e-11 2.182317e-10 1.732227e-12) (3.012981e-09 3.486600e-10 1.911758e-11))
23.865702     	((-3.053367e-07 3.043218e-08 7.949524e-04) (-7.049158e-08 -2.028635e-08 2.125740e-04)) ((-1.155360e-11 2.094150e-10 2.020159e-12) (3.091172e-09 -3.189366e-10 2.969430e-11))
24.843528     	((-2.377787e-07 1.355636e-08 7.911576e-04) (-7.136243e-08 -2.325993e-08 2.114280e-04)) ((-9.948549e-12 2.016540e-10 2.104926e-12) (3.004222e-09 -8.947372e-10 1.840993e-11))
25.822971     	((-2.781209e-07 -7.046807e-08 7.872303e-04) (-6.836117e-08 -2.467086e-08 2.103100e-04)) ((-8.479703e-12 1.945016e-10 1.974871e-12) (2.692782e-09 -1.151143e-09 1.067930e-11))
26.803865     	((-3.349144e-07 -1.412504e-07 7.838615e-04) (-6.340604e-08 -2.510530e-08 2.092295e-04)) ((-7.766561e-12 1.877205e-10 1.916702e-12) (2.306203e-09 -1.130121e-09 1.083874e-11))
27.786042     	((-4.100943e-07 -2.526187e-07 7.803506e-04) (-5.830067e-08 -2.692604e-08 2.081971e-04)) ((-6.822841e-12 1.813738e-10 2.034058e-12) (1.955991e-09 -9.407367e-10 1.122663e-11))
28.769164     	((-5.010738e-07 -3.390006e-07 7.771876e-04) (-5.614496e-08 -3.199570e-08 2.072241e-04)) ((-6.385722e-12 1.761249e-10 2.148185e-12) (1.791969e-09 -7.719524e-10 1.019865e-11))
29.75248      	((-5.699514e-07 -4.386891e-07 7.740968e-04) (-5.810256e-08 -4.048115e-08 2.063153e-04)) ((-7.298405e-12 1.725784e-10 2.252900e-12) (1.887037e-09 -8.158724e-10 6.326687e-12))
30.735991     	((-6.937550e-07 -5.964813e-07 7.714393e-04) (-6.101042e-08 -5.022360e-08 2.054737e-04)) ((-7.111086e-12 1.696098e-10 2.401310e-12) (1.958567e-09 -8.518329e-10 -4.301096e-12))
31.719909     	((-8.684411e-07 -8.090650e-07 7.684539e-04) (-6.281509e-08 -5.942266e-08 2.046803e-04)) ((-5.062029e-12 1.650030e-10 2.268796e-12) (1.827657e-09 -6.318382e-10 -9.515337e-12))
32.704316     	((-1.111923e-06 -1.042220e-06 7.655718e-04) (-6.782270e-08 -7.127461e-08 2.039207e-04)) ((-2.051153e-12 1.595242e-10 2.139399e-12) (1.674796e-09 -3.237034e-10 -6.619019e-12))
33.689296     	((-1.304311e-06 -1.288273e-06 7.620653e-04) (-7.646592e-08 -8.635309e-08 2.031757e-04)) ((7.341033e-13 1.541967e-10 2.116411e-12) (1.577538e-09 -4.426705e-11 -6.667087e-12))
34.674896     	((-1.554992e-06 -1.537027e-06 7.595115e-04) (-8.689103e-08 -1.024720e-07 2.024577e-04)) ((3.039708e-12 1.485593e-10 2.207907e-12) (1.414263e-09 3.220152e-10 -9.832046e-12))
35.661179     	((-1.788174e-06 -1.779650e-06 7.564214e-04) (-9.865661e-08 -1.189197e-07 2.017529e-04)) ((5.387351e-12 1.432570e-10 2.113120e-12) (1.108409e-09 8.201903e-10 -9.332784e-12))
36.648185     	((-1.983937e-06 -1.968542e-06 7.537284e-04) (-1.106690e-07 -1.344066e-07 2.010575e-04)) ((7.256988e-12 1.379119e-10 1.848134e-12) (7.467544e-10 1.330339e-09 -4.082807e-12))
37.635914     	((-2.183931e-06 -2.210920e-06 7.515050e-04) (-1.230669e-07 -1.501902e-07 2.003911e-04)) ((9.244755e-12 1.328600e-10 1.715953e-12) (4.280177e-10 1.786030e-09 -1.296121e-12))
38.624368     	((-2.414785e-06 -2.463406e-06 7.496680e-04) (-1.383539e-07 -1.680938e-07 1.997611e-04)) ((1.152650e-11 1.278486e-10 1.629167e-12) (2.266074e-10 2.099744e-09 -5.155995e-13))
39.61358      	((-2.650626e-06 -2.759588e-06 7.480851e-04) (-1.574448e-07 -1.893769e-07 1.991735e-04)) ((1.413649e-11 1.230693e-10 1.735183e-12) (1.712927e-10 2.212611e-09 4.482491e-12))
40.603578     	((-2.850512e-06 -3.072438e-06 7.457864e-04) (-1.769279e-07 -2.122223e-07 1.986061e-04)) ((1.705711e-11 1.187741e-10 2.006039e-12) (8.482912e-11 2.287384e-09 6.098394e-12))
41.594373     	((-3.096868e-06 -3.456759e-06 7.435238e-04) (-1.968311e-07 -2.365400e-07 1.980469e-04)) ((2.010177e-11 1.151446e-10 2.233369e-12) (-1.213500e-10 2.385066e-09 8.919264e-12))
42.585958     	((-3.351726e-06 -3.870373e-06 7.414179e-04) (-2.184943e-07 -2.633526e-07 1.974954e-04)) ((2.336404e-11 1.115206e-10 2.525834e-12) (-4.187513e-10 2.490892e-09 1.189573e-11))
43.57833      	((-3.621996e-06 -4.332107e-06 7.393161e-04) (-2.415929e-07 -2.927361e-07 1.969474e-04)) ((2.700965e-11 1.077295e-10 2.913850e-12) (-7.887773e-10 2.604389e-09 6.960582e-12))
44.571498     	((-3.948145e-06 -4.853545e-06 7.371341e-04) (-2.666077e-07 -3.254220e-07 1.964054e-04)) ((3.088472e-11 1.028509e-10 3.045050e-12) (-1.223284e-09 2.730651e-09 1.086157e-12))
45.565467     	((-4.376803e-06 -5.518383e-06 7.348677e-04) (-2.953990e-07 -3.637382e-07 1.958765e-04)) ((3.582270e-11 9.673764e-11 3.092989e-12) (-1.702348e-09 2.873820e-09 -3.669346e-12))
46.56029      	((-4.824523e-06 -6.227362e-06 7.325266e-04) (-3.279753e-07 -4.081233e-07 1.953632e-04)) ((4.130969e-11 9.019882e-11 3.254343e-12) (-2.226520e-09 3.022797e-09 -1.081057e-11))
47.556042     	((-5.329136e-06 -7.032765e-06 7.304943e-04) (-3.648144e-07 -4.588102e-07 1.948713e-04)) ((4.575250e-11 8.447720e-11 3.422472e-12) (-2.782729e-09 3.142141e-09 -1.681926e-11))
48.552738     	((-5.766302e-06 -7.799628e-06 7.289783e-04) (-4.036686e-07 -5.133606e-07 1.944115e-04)) ((5.008714e-11 8.009975e-11 3.644009e-12) (-3.378165e-09 3.231176e-09 -1.948713e-11))
49.550366     	((-6.291114e-06 -8.655986e-06 7.276120e-04) (-4.452055e-07 -5.722168e-07 1.939837e-04)) ((5.434468e-11 7.503880e-11 3.865811e-12) (-3.997463e-09 3.291693e-09 -2.414900e-11))
50.548914     	((-6.793619e-06 -9.463541e-06 7.260038e-04) (-4.879349e-07 -6.335592e-07 1.935753e-04)) ((5.879081e-11 6.949782e-11 4.293186e-12) (-4.625916e-09 3.377244e-09 -2.727446e-11))
51.548361     	((-7.388268e-06 -1.033420e-05 7.242741e-04) (-5.324632e-07 -6.972584e-07 1.931767e-04)) ((6.307212e-11 6.349227e-11 4.671573e-12) (-5.301146e-09 3.540219e-09 -2.707381e-11))
52.548681     	((-8.076741e-06 -1.134690e-05 7.224609e-04) (-5.814031e-07 -7.666506e-07 1.927831e-04)) ((6.823315e-11 5.754057e-11 5.020214e-12) (-6.064513e-09 3.796802e-09 -2.915534e-11))
53.54985      	((-8.871098e-06 -1.243923e-05 7.208161e-04) (-6.355154e-07 -8.423891e-07 1.923975e-04)) ((7.330362e-11 5.161892e-11 5.334925e-12) (-6.927027e-09 4.157987e-09 -3.602207e-11))
54.551855     	((-9.766163e-06 -1.364073e-05 7.192865e-04) (-6.956380e-07 -9.248739e-07 1.920225e-04)) ((7.885079e-11 4.554481e-11 5.696881e-12) (-7.875474e-09 4.622563e-09 -4.371997e-11))
55.55468      	((-1.072463e-05 -1.487494e-05 7.179584e-04) (-7.610938e-07 -1.013097e-06 1.916602e-04)) ((8.433382e-11 3.983776e-11 5.882427e-12) (-8.924670e-09 5.226322e-09 -4.545520e-11))
56.558311     	((-1.177784e-05 -1.617165e-05 7.167282e-04) (-8.316039e-07 -1.106450e-06 1.913118e-04)) ((8.992806e-11 3.400349e-11 6.072866e-12) (-1.007521e-08 5.998396e-09 -4.245312e-11))
57.562735     	((-1.287172e-05 -1.748843e-05 7.156357e-04) (-9.061670e-07 -1.204343e-06 1.909786e-04)) ((9.532340e-11 2.885216e-11 6.164990e-12) (-1.130790e-08 6.943288e-09 -4.416121e-11))
58.567884     	((-1.411578e-05 -1.894243e-05 7.145456e-04) (-9.863019e-07 -1.308061e-06 1.906593e-04)) ((1.015849e-10 2.326611e-11 6.392999e-12) (-1.262562e-08 8.061553e-09 -4.577396e-11))
59.573676     	((-1.547986e-05 -2.052231e-05 7.134803e-04) (-1.073665e-06 -1.419391e-06 1.903521e-04)) ((1.090957e-10 1.739024e-11 6.526561e-12) (-1.403567e-08 9.341643e-09 -4.159513e-11))
60.580055     	((-1.698097e-05 -2.224342e-05 7.124559e-04) (-1.169380e-06 -1.539572e-06 1.900568e-04)) ((1.173754e-10 1.136555e-11 6.619132e-12) (-1.552575e-08 1.075867e-08 -3.420854e-11))
61.586965     	((-1.861475e-05 -2.416215e-05 7.114290e-04) (-1.274801e-06 -1.671338e-06 1.897727e-04)) ((1.274493e-10 4.922648e-12 6.976101e-12) (-1.708752e-08 1.228723e-08 -2.759015e-11))
62.594352     	((-2.037540e-05 -2.620976e-05 7.103997e-04) (-1.390119e-06 -1.815148e-06 1.894990e-04)) ((1.382063e-10 -1.947425e-12 7.080313e-12) (-1.873542e-08 1.392431e-08 -2.831020e-11))
63.602164     	((-2.219209e-05 -2.843335e-05 7.094173e-04) (-1.514430e-06 -1.971155e-06 1.892359e-04)) ((1.502269e-10 -8.601862e-12 7.255279e-12) (-2.050000e-08 1.565377e-08 -2.996620e-11))
64.610343     	((-2.413587e-05 -3.084881e-05 7.084530e-04) (-1.648359e-06 -2.140668e-06 1.889829e-04)) ((1.634900e-10 -1.580811e-11 7.480162e-12) (-2.238429e-08 1.746390e-08 -2.448370e-11))
65.618834     	((-2.620476e-05 -3.354185e-05 7.075973e-04) (-1.793267e-06 -2.326679e-06 1.887417e-04)) ((1.787459e-10 -2.373821e-11 7.647744e-12) (-2.438534e-08 1.933630e-08 -1.532400e-11))
66.627582     	((-2.845314e-05 -3.653286e-05 7.067901e-04) (-1.950861e-06 -2.532421e-06 1.885131e-04)) ((1.961893e-10 -3.292472e-11 7.887236e-12) (-2.652550e-08 2.124121e-08 -1.120866e-11))
67.636535     	((-3.091349e-05 -3.979909e-05 7.060501e-04) (-2.123749e-06 -2.759547e-06 1.882973e-04)) ((2.151463e-10 -4.389294e-11 8.270077e-12) (-2.879529e-08 2.316027e-08 -1.308861e-11))
68.645637     	((-3.358233e-05 -4.336045e-05 7.053597e-04) (-2.314142e-06 -3.009278e-06 1.880947e-04)) ((2.357865e-10 -5.637439e-11 8.568204e-12) (-3.119563e-08 2.507470e-08 -2.436510e-11))
69.654833     	((-3.645962e-05 -4.729051e-05 7.046971e-04) (-2.522932e-06 -3.284078e-06 1.879043e-04)) ((2.584129e-10 -7.049792e-11 8.920115e-12) (-3.375541e-08 2.700531e-08 -4.779123e-11))
70.664062     	((-3.956411e-05 -5.156238e-05 7.041113e-04) (-2.750719e-06 -3.585021e-06 1.877251e-04)) ((2.820395e-10 -8.647051e-11 9.586307e-12) (-3.654341e-08 2.897824e-08 -7.061929e-11))
71.67326      	((-4.296678e-05 -5.628866e-05 7.035341e-04) (-3.000701e-06 -3.915524e-06 1.875564e-04)) ((3.085812e-10 -1.048803e-10 1.046461e-11) (-3.956633e-08 3.095243e-08 -8.644359e-11))
72.682353     	((-4.665023e-05 -6.143984e-05 7.030126e-04) (-3.274380e-06 -4.279237e-06 1.873982e-04)) ((3.369559e-10 -1.247609e-10 1.119854e-11) (-4.280250e-08 3.294798e-08 -9.871184e-11))
73.691266     	((-5.069174e-05 -6.704744e-05 7.025542e-04) (-3.573623e-06 -4.678037e-06 1.872514e-04)) ((3.668891e-10 -1.470361e-10 1.183846e-11) (-4.623439e-08 3.503878e-08 -9.560134e-11))
74.699914     	((-5.507720e-05 -7.315441e-05 7.021749e-04) (-3.899286e-06 -5.114134e-06 1.871164e-04)) ((3.990140e-10 -1.709044e-10 1.237637e-11) (-4.990834e-08 3.730628e-08 -7.376905e-11))
75.708211     	((-5.983313e-05 -7.978096e-05 7.019572e-04) (-4.251708e-06 -5.589324e-06 1.869946e-04)) ((4.329993e-10 -1.963847e-10 1.280756e-11) (-5.391335e-08 3.985032e-08 -1.626221e-11))
76.716062     	((-6.506675e-05 -8.695266e-05 7.018174e-04) (-4.635528e-06 -6.105379e-06 1.868868e-04)) ((4.706885e-10 -2.254446e-10 1.332073e-11) (-5.831573e-08 4.265977e-08 7.972312e-11))
77.723368     	((-7.078244e-05 -9.478949e-05 7.018774e-04) (-5.055910e-06 -6.671102e-06 1.867997e-04)) ((5.139702e-10 -2.575803e-10 1.435272e-11) (-6.281321e-08 4.559084e-08 2.029160e-10))
78.730024     	((-7.709183e-05 -1.033556e-04 7.019908e-04) (-5.518127e-06 -7.297301e-06 1.867354e-04)) ((5.639904e-10 -2.949338e-10 1.548561e-11) (-6.708966e-08 4.855780e-08 3.465984e-10))
79.735915     	((-8.396259e-05 -1.125993e-04 7.023486e-04) (-6.027506e-06 -7.988278e-06 1.866944e-04)) ((6.179364e-10 -3.365473e-10 1.718646e-11) (-7.118269e-08 5.147926e-08 4.543090e-10))
80.740917     	((-9.148599e-05 -1.226804e-04 7.029033e-04) (-6.590043e-06 -8.749593e-06 1.866782e-04)) ((6.774452e-10 -3.815233e-10 1.878813e-11) (-7.517359e-08 5.428570e-08 5.213027e-10))
81.744901     	((-9.967225e-05 -1.336964e-04 7.038413e-04) (-7.208613e-06 -9.585888e-06 1.866901e-04)) ((7.423689e-10 -4.291554e-10 2.037390e-11) (-7.928308e-08 5.719870e-08 5.843957e-10))
82.74773      	((-1.087641e-04 -1.457311e-04 7.051107e-04) (-7.889592e-06 -1.049963e-05 1.867300e-04)) ((8.121593e-10 -4.826197e-10 2.228198e-11) (-8.382689e-08 6.050973e-08 6.561342e-10))
83.749264     	((-1.187981e-04 -1.588443e-04 7.068044e-04) (-8.635322e-06 -1.149291e-05 1.867961e-04)) ((8.862074e-10 -5.395389e-10 2.443450e-11) (-8.910536e-08 6.458129e-08 7.481658e-10))
84.749361     	((-1.297700e-04 -1.731009e-04 7.090097e-04) (-9.446011e-06 -1.256926e-05 1.868928e-04)) ((9.640147e-10 -5.984952e-10 2.550448e-11) (-9.531784e-08 6.969893e-08 8.789967e-10))
85.747858     	((-1.417043e-04 -1.884572e-04 7.119192e-04) (-1.032565e-05 -1.373290e-05 1.870299e-04)) ((1.044903e-09 -6.599633e-10 2.602541e-11) (-1.024695e-07 7.581501e-08 1.045288e-09))
86.744573     	((-1.548045e-04 -2.051779e-04 7.156342e-04) (-1.128668e-05 -1.499479e-05 1.872146e-04)) ((1.134464e-09 -7.249238e-10 2.627387e-11) (-1.104879e-07 8.269272e-08 1.165741e-09))
87.739316     	((-1.691196e-04 -2.233114e-04 7.201373e-04) (-1.234338e-05 -1.636891e-05 1.874576e-04)) ((1.232785e-09 -7.946635e-10 2.622121e-11) (-1.192694e-07 9.013899e-08 1.164288e-09))
88.731913     	((-1.845293e-04 -2.429126e-04 7.256870e-04) (-1.350263e-05 -1.786449e-05 1.877701e-04)) ((1.335630e-09 -8.657098e-10 2.661801e-11) (-1.289445e-07 9.813441e-08 1.078671e-09))
89.722277     	((-2.010273e-04 -2.641099e-04 7.324956e-04) (-1.476366e-05 -1.948629e-05 1.881677e-04)) ((1.437196e-09 -9.353960e-10 2.660791e-11) (-1.396947e-07 1.068779e-07 1.057204e-09))
