# Forces      
# CofR        : (0.000000e+00 0.000000e+00 0.000000e+00)
# Time        forces(pressure viscous)	moments(pressure viscous)
0             	((0.000000e+00 0.000000e+00 0.000000e+00) (5.780703e-14 1.006862e-03 -1.293371e-13)) ((0.000000e+00 0.000000e+00 0.000000e+00) (2.863182e-14 -2.640958e-16 -3.678827e-10))
0.012         	((1.321883e-07 2.927631e-01 1.047159e-07) (1.435657e-10 1.152910e-03 -7.741763e-10)) ((8.449830e-11 -6.754995e-14 -5.489652e-08) (9.075288e-12 2.434199e-13 -6.670523e-10))
0.0264        	((-3.515430e-06 -2.670088e-02 -1.352344e-06) (-1.448440e-09 1.169649e-03 -1.601626e-09)) ((-8.751242e-12 2.253439e-12 2.943579e-09) (9.305732e-12 7.632299e-14 -7.122967e-10))
0.04368       	((5.815438e-06 -5.782359e-02 -4.839550e-07) (6.328491e-09 1.033072e-03 -1.359548e-09)) ((-2.190684e-10 2.390698e-11 1.613506e-08) (-2.473915e-11 -1.245562e-12 -3.754865e-10))
0.064416      	((1.777455e-07 -5.064984e-04 1.395871e-06) (6.470987e-09 9.117693e-04 6.150367e-09)) ((7.595394e-11 2.520183e-11 -1.877137e-09) (2.565745e-12 -1.042851e-11 -2.456049e-10))
0.0892992     	((-1.190150e-06 2.272207e-04 6.192595e-07) (5.639670e-09 8.398353e-04 6.612601e-09)) ((2.151673e-11 -2.163881e-11 -4.224330e-10) (-1.336946e-11 -2.150480e-11 3.882923e-10))
0.119159      	((1.456769e-06 -1.016032e-03 5.859241e-07) (1.488965e-08 7.757037e-04 5.565659e-09)) ((3.120689e-11 1.429533e-11 9.015915e-10) (-1.149419e-10 -3.242502e-11 1.145989e-09))
0.154991      	((-1.441460e-07 -3.809868e-04 1.809569e-07) (1.058874e-08 7.097987e-04 5.259702e-09)) ((4.419758e-11 2.640064e-12 2.824978e-10) (-8.406702e-11 -3.816562e-11 1.226711e-09))
0.197989      	((-5.690330e-08 -4.731809e-05 -1.284212e-07) (-8.571980e-09 6.460845e-04 2.285959e-09)) ((1.732283e-11 5.143522e-12 2.205184e-11) (-2.011918e-12 -3.300040e-11 1.363431e-09))
0.249587      	((-2.645080e-07 6.309222e-05 -1.282312e-07) (-3.184071e-08 5.866079e-04 3.038002e-09)) ((1.773521e-11 4.494818e-12 3.816708e-11) (-4.305448e-12 -2.444571e-11 1.615405e-09))
0.311504      	((-2.195468e-07 1.217293e-04 -1.101790e-07) (-4.538782e-08 5.328564e-04 3.346669e-09)) ((1.249471e-11 2.577226e-12 1.143933e-11) (5.462576e-13 -1.472153e-11 1.562027e-09))
0.385805      	((-2.087055e-07 1.544364e-04 -1.130352e-07) (-5.256348e-08 4.853433e-04 2.875911e-09)) ((7.895322e-12 -6.493530e-13 -1.009699e-11) (4.229568e-11 -6.104167e-12 1.405772e-09))
0.474966      	((-1.743506e-07 1.694646e-04 -7.442135e-08) (-5.755041e-08 4.437139e-04 2.454606e-09)) ((3.774319e-12 -5.095264e-13 -2.037437e-11) (6.729181e-11 -7.010478e-13 1.345448e-09))
0.581959      	((-1.377820e-07 1.747759e-04 -4.991805e-08) (-5.130942e-08 4.066766e-04 1.353350e-09)) ((2.167948e-12 -8.478832e-13 -2.568416e-11) (8.259355e-11 1.932475e-12 1.394578e-09))
0.710351      	((-7.422667e-08 1.738657e-04 -4.199369e-08) (-3.664112e-08 3.723400e-04 -2.269865e-10)) ((9.893914e-13 -3.201587e-13 -2.291767e-11) (9.132825e-11 2.393088e-12 1.695487e-09))
0.864421      	((-4.548631e-09 1.688274e-04 -3.316888e-08) (-2.374499e-08 3.396226e-04 -1.828887e-09)) ((2.183890e-13 -4.340111e-13 -2.121029e-11) (9.663587e-11 7.339133e-13 2.135286e-09))
1.049306      	((-1.104199e-08 1.615837e-04 -2.009837e-08) (-1.690849e-08 3.086363e-04 -2.710915e-09)) ((-8.634117e-13 -3.999227e-13 -2.135194e-11) (9.805036e-11 -1.851014e-13 2.466808e-09))
1.271167      	((4.402746e-09 1.537917e-04 -1.601728e-08) (-1.200600e-08 2.797842e-04 -2.922565e-09)) ((-1.767259e-12 -3.842669e-14 -2.568799e-11) (8.297452e-11 1.259742e-12 2.570462e-09))
1.5374        	((1.924053e-08 1.469428e-04 -1.102832e-08) (-8.827801e-09 2.534422e-04 -2.954094e-09)) ((-2.098782e-12 1.851094e-13 -3.796462e-11) (4.878191e-11 3.691517e-12 2.420839e-09))
1.85688       	((4.371624e-10 1.419791e-04 -9.252676e-09) (-8.153661e-09 2.298775e-04 -2.484818e-09)) ((-1.592585e-12 1.630528e-13 -5.468521e-11) (-1.804911e-11 7.576552e-12 2.196029e-09))
2.240256      	((-3.619435e-08 1.393269e-04 -2.121005e-08) (-7.042429e-09 2.091552e-04 -1.542410e-09)) ((-5.047506e-13 -1.202088e-13 -6.517244e-11) (-1.075653e-10 8.514241e-12 1.981702e-09))
2.700307      	((-6.678012e-08 1.394319e-04 -5.417586e-08) (-5.376998e-09 1.911881e-04 -1.226402e-09)) ((9.471069e-13 2.408391e-13 -7.872044e-11) (-2.015302e-10 7.924591e-12 1.870493e-09))
3.252369      	((-8.986319e-08 1.425112e-04 -6.836232e-08) (-6.055297e-09 1.758013e-04 -1.554634e-09)) ((1.854266e-12 3.948157e-13 -9.844663e-11) (-2.740791e-10 8.134082e-12 1.805682e-09))
3.914842      	((-7.843543e-08 1.489824e-04 -8.745005e-08) (-5.861186e-09 1.627745e-04 -2.560211e-09)) ((1.518281e-12 3.641563e-13 -1.277474e-10) (-2.828493e-10 8.617784e-12 1.669615e-09))
4.709811      	((-6.177167e-08 1.590585e-04 -8.695513e-08) (-1.939251e-09 1.518697e-04 -3.639012e-09)) ((1.953618e-12 2.508777e-13 -1.657724e-10) (-2.254784e-10 7.771478e-12 1.642767e-09))
5.663773      	((-2.871214e-08 1.727666e-04 -7.371604e-08) (1.717685e-09 1.428561e-04 -4.203623e-09)) ((1.409005e-12 1.501239e-13 -2.134191e-10) (-1.145709e-10 5.548356e-12 1.769792e-09))
6.788471      	((-1.994027e-09 1.899285e-04 -5.015263e-08) (3.509337e-09 1.355702e-04 -4.022825e-09)) ((8.132219e-13 -1.061906e-14 -2.713555e-10) (-5.662624e-12 3.572617e-12 2.182525e-09))
8.083966      	((4.061939e-08 2.098359e-04 -2.557747e-08) (7.624130e-09 1.297655e-04 -3.109799e-09)) ((-3.872136e-14 2.302935e-13 -3.357763e-10) (7.746814e-11 2.265411e-12 2.838949e-09))
9.549854      	((6.952171e-08 2.316392e-04 -3.201554e-09) (1.008219e-08 1.252463e-04 -9.043973e-10)) ((-1.574101e-12 5.876710e-13 -4.099402e-10) (1.701292e-10 -5.368164e-14 3.328482e-09))
11.185282     	((1.038138e-07 2.546427e-04 2.000324e-08) (1.319040e-08 1.217624e-04 1.794705e-09)) ((-3.119648e-12 9.882559e-13 -4.762323e-10) (2.768723e-10 -2.116952e-12 3.531227e-09))
12.868621     	((1.303755e-07 2.768703e-04 3.219495e-08) (1.672886e-08 1.192702e-04 3.785972e-09)) ((-4.192313e-12 1.469692e-12 -5.324668e-10) (3.040410e-10 -6.071285e-13 3.705935e-09))
14.538689     	((1.186627e-07 2.955917e-04 2.359431e-08) (1.940238e-08 1.173710e-04 3.274635e-09)) ((-4.314319e-12 2.029337e-12 -5.797279e-10) (2.592431e-10 2.644033e-12 3.468015e-09))
16.198867     	((1.441249e-07 3.110790e-04 4.981508e-08) (2.167838e-08 1.157294e-04 1.251971e-09)) ((-4.407658e-12 2.437786e-12 -6.218319e-10) (1.014039e-10 1.785998e-12 3.187037e-09))
17.856411     	((1.719174e-07 3.219787e-04 8.070255e-08) (2.045940e-08 1.142265e-04 -7.648888e-10)) ((-4.136402e-12 3.145590e-12 -6.625455e-10) (-1.585236e-10 2.167555e-13 3.276651e-09))
19.518065     	((2.089837e-07 3.294030e-04 1.182979e-07) (1.650577e-08 1.128425e-04 -3.528089e-09)) ((-4.047616e-12 3.809666e-12 -6.984469e-10) (-5.108455e-10 -4.363541e-12 3.516744e-09))
21.186869     	((2.212092e-07 3.330508e-04 1.348110e-07) (1.106251e-08 1.115881e-04 -5.949393e-09)) ((-3.600893e-12 3.966750e-12 -7.222561e-10) (-8.642718e-10 -5.948064e-12 3.830516e-09))
22.862268     	((2.208134e-07 3.328860e-04 1.272882e-07) (5.002957e-09 1.104119e-04 -8.503212e-09)) ((-2.649169e-12 3.760529e-12 -7.353802e-10) (-1.224667e-09 -1.368357e-12 4.275654e-09))
24.542405     	((1.404569e-07 3.306636e-04 5.481320e-08) (-5.466933e-11 1.092621e-04 -1.245809e-08)) ((-7.808668e-13 4.320305e-12 -7.404571e-10) (-1.480239e-09 -1.353103e-12 4.459981e-09))
26.22642      	((9.318423e-08 3.280054e-04 2.451332e-08) (-3.242118e-09 1.081658e-04 -1.690807e-08)) ((-2.592162e-13 4.412588e-12 -7.410342e-10) (-1.640634e-09 -2.350271e-12 4.396017e-09))
27.914503     	((1.522384e-07 3.256771e-04 6.307100e-08) (-3.510214e-09 1.071793e-04 -1.917307e-08)) ((-8.778187e-13 4.165809e-12 -7.376773e-10) (-1.747194e-09 -1.739674e-12 4.241993e-09))
29.606195     	((1.844441e-07 3.230549e-04 6.082986e-08) (-3.882726e-10 1.062877e-04 -1.856451e-08)) ((-1.268507e-13 4.091009e-12 -7.324713e-10) (-1.767846e-09 -2.644728e-12 4.070671e-09))
31.301316     	((1.908346e-07 3.197302e-04 3.597482e-08) (3.362155e-09 1.054391e-04 -1.869263e-08)) ((4.386189e-13 4.149878e-12 -7.276958e-10) (-1.767277e-09 -6.672074e-12 3.935398e-09))
32.99826      	((2.173886e-07 3.170079e-04 2.612771e-08) (7.105610e-09 1.046444e-04 -1.956640e-08)) ((1.423862e-13 4.133790e-12 -7.254034e-10) (-1.750229e-09 -6.918563e-12 3.873193e-09))
34.696511     	((2.418553e-07 3.147529e-04 1.076794e-08) (1.087992e-08 1.039192e-04 -1.990944e-08)) ((-1.856220e-13 4.384336e-12 -7.244695e-10) (-1.675473e-09 -8.214985e-12 3.868411e-09))
36.396645     	((2.838089e-07 3.127648e-04 2.925970e-09) (1.453900e-08 1.032491e-04 -1.937233e-08)) ((-2.678421e-13 4.650226e-12 -7.236406e-10) (-1.550830e-09 -8.952432e-12 3.847889e-09))
38.098885     	((3.319604e-07 3.110342e-04 -6.382556e-09) (1.871961e-08 1.026250e-04 -1.742882e-08)) ((-2.463960e-13 4.796914e-12 -7.233186e-10) (-1.366239e-09 -8.636713e-12 3.808789e-09))
39.803351     	((3.531372e-07 3.093712e-04 -3.603615e-08) (2.277149e-08 1.020331e-04 -1.523155e-08)) ((1.119620e-13 4.931423e-12 -7.234662e-10) (-1.118288e-09 -9.097329e-12 3.736877e-09))
41.510184     	((3.916753e-07 3.078109e-04 -6.078571e-08) (2.763334e-08 1.014668e-04 -1.317682e-08)) ((2.464971e-13 4.955281e-12 -7.236263e-10) (-8.502498e-10 -7.981714e-12 3.617643e-09))
43.219547     	((4.274849e-07 3.065812e-04 -8.848947e-08) (3.363295e-08 1.009369e-04 -1.174345e-08)) ((8.624868e-14 5.275638e-12 -7.238696e-10) (-6.249041e-10 -5.727682e-12 3.513867e-09))
44.931507     	((4.795281e-07 3.053119e-04 -1.155207e-07) (3.952511e-08 1.004429e-04 -1.065385e-08)) ((-7.909720e-14 5.582266e-12 -7.237690e-10) (-4.178634e-10 -5.572331e-12 3.468380e-09))
46.646049     	((4.866361e-07 3.041551e-04 -1.755759e-07) (4.439920e-08 9.998130e-05 -1.153276e-08)) ((2.505957e-13 5.368567e-12 -7.238485e-10) (-2.661701e-10 -3.528119e-12 3.448506e-09))
48.363233     	((5.383529e-07 3.031767e-04 -2.014655e-07) (4.978255e-08 9.955572e-05 -1.366532e-08)) ((-8.866572e-14 5.216316e-12 -7.241214e-10) (-2.039588e-10 2.297568e-12 3.416994e-09))
50.083178     	((5.803881e-07 3.021731e-04 -2.524578e-07) (5.543341e-08 9.916169e-05 -1.654118e-08)) ((3.244446e-13 4.983741e-12 -7.242880e-10) (-1.777694e-10 9.502128e-12 3.389274e-09))
51.806183     	((6.605628e-07 3.011253e-04 -2.859354e-07) (6.158257e-08 9.878959e-05 -1.972601e-08)) ((5.017067e-13 4.699685e-12 -7.241781e-10) (-1.432620e-10 1.596594e-11 3.376828e-09))
53.532346     	((7.292056e-07 2.998491e-04 -3.069997e-07) (6.828876e-08 9.842520e-05 -2.255480e-08)) ((5.573244e-13 4.363283e-12 -7.239279e-10) (-9.548999e-11 2.064615e-11 3.372442e-09))
55.261548     	((7.967195e-07 2.988051e-04 -3.350738e-07) (7.493022e-08 9.807353e-05 -2.539052e-08)) ((7.814211e-13 4.080479e-12 -7.236551e-10) (-5.423672e-11 2.156686e-11 3.386153e-09))
56.993732     	((8.636377e-07 2.977048e-04 -3.823016e-07) (8.167916e-08 9.773292e-05 -2.912193e-08)) ((1.048031e-12 3.725899e-12 -7.232038e-10) (-2.045211e-11 1.875541e-11 3.402806e-09))
58.728871     	((9.474227e-07 2.967900e-04 -4.341850e-07) (8.877204e-08 9.740539e-05 -3.388130e-08)) ((1.319916e-12 3.451151e-12 -7.228066e-10) (1.329804e-11 1.101919e-11 3.432513e-09))
60.466932     	((1.025010e-06 2.960210e-04 -4.821506e-07) (9.619322e-08 9.709819e-05 -3.913013e-08)) ((1.623781e-12 3.310402e-12 -7.224563e-10) (4.232307e-11 3.849737e-12 3.474255e-09))
62.208003     	((1.096379e-06 2.951523e-04 -5.438425e-07) (1.032367e-07 9.680586e-05 -4.491360e-08)) ((2.100264e-12 3.229590e-12 -7.221666e-10) (7.000231e-11 -1.447318e-12 3.548672e-09))
63.952059     	((1.204800e-06 2.942912e-04 -6.119747e-07) (1.106618e-07 9.652291e-05 -5.145318e-08)) ((2.600602e-12 3.244335e-12 -7.220338e-10) (9.666016e-11 -6.427805e-12 3.652909e-09))
65.698973     	((1.312304e-06 2.934759e-04 -6.837039e-07) (1.187867e-07 9.624602e-05 -5.856365e-08)) ((3.020770e-12 3.212460e-12 -7.222121e-10) (1.290289e-10 -1.344693e-11 3.768609e-09))
67.448621     	((1.446510e-06 2.926909e-04 -7.677562e-07) (1.278310e-07 9.597354e-05 -6.639055e-08)) ((3.590483e-12 3.289613e-12 -7.225410e-10) (1.606963e-10 -2.142255e-11 3.880582e-09))
69.200922     	((1.631882e-06 2.918684e-04 -8.691085e-07) (1.392580e-07 9.570527e-05 -7.531624e-08)) ((4.315468e-12 3.371721e-12 -7.227873e-10) (1.876963e-10 -2.624171e-11 4.000587e-09))
70.955807     	((1.819476e-06 2.910270e-04 -9.784138e-07) (1.524598e-07 9.544390e-05 -8.514609e-08)) ((5.093123e-12 3.406702e-12 -7.228689e-10) (2.130765e-10 -2.779847e-11 4.152055e-09))
72.713216     	((2.036869e-06 2.902402e-04 -1.114190e-06) (1.675411e-07 9.519432e-05 -9.626110e-08)) ((6.049483e-12 3.453834e-12 -7.228842e-10) (2.497364e-10 -2.910704e-11 4.351197e-09))
74.473122     	((2.284806e-06 2.895081e-04 -1.273251e-06) (1.850043e-07 9.495698e-05 -1.088872e-07)) ((7.037005e-12 3.536085e-12 -7.229702e-10) (3.156487e-10 -3.347350e-11 4.595636e-09))
76.235491     	((2.565183e-06 2.888339e-04 -1.460267e-06) (2.048808e-07 9.473060e-05 -1.230831e-07)) ((8.229998e-12 3.549218e-12 -7.229873e-10) (4.249403e-10 -3.860112e-11 4.871527e-09))
78.000267     	((2.879968e-06 2.881893e-04 -1.667482e-06) (2.275810e-07 9.451414e-05 -1.390722e-07)) ((9.367771e-12 3.530479e-12 -7.229068e-10) (5.958450e-10 -4.462934e-11 5.178446e-09))
79.767395     	((3.198419e-06 2.876115e-04 -1.886002e-06) (2.524968e-07 9.430810e-05 -1.560597e-07)) ((1.062605e-11 3.366938e-12 -7.227337e-10) (8.293254e-10 -5.146521e-11 5.505751e-09))
81.536839     	((3.519098e-06 2.870313e-04 -2.117414e-06) (2.791394e-07 9.411126e-05 -1.739199e-07)) ((1.189383e-11 3.093305e-12 -7.224614e-10) (1.118344e-09 -5.780180e-11 5.841657e-09))
83.308563     	((3.834438e-06 2.863976e-04 -2.365053e-06) (3.068540e-07 9.392023e-05 -1.927178e-07)) ((1.338482e-11 2.743935e-12 -7.220449e-10) (1.462988e-09 -6.063986e-11 6.185500e-09))
85.082525     	((4.179209e-06 2.857621e-04 -2.644253e-06) (3.361986e-07 9.373371e-05 -2.130150e-07)) ((1.517889e-11 2.323118e-12 -7.216395e-10) (1.855175e-09 -5.969823e-11 6.541799e-09))
86.858669     	((4.537933e-06 2.851388e-04 -2.949418e-06) (3.676186e-07 9.355135e-05 -2.357153e-07)) ((1.697719e-11 1.873420e-12 -7.213943e-10) (2.281085e-09 -5.890675e-11 6.909275e-09))
88.636936     	((4.915280e-06 2.845468e-04 -3.291362e-06) (4.011783e-07 9.337328e-05 -2.612622e-07)) ((1.892928e-11 1.486684e-12 -7.212512e-10) (2.728516e-09 -5.888016e-11 7.284150e-09))
90.416918     	((5.325771e-06 2.840155e-04 -3.656981e-06) (4.374453e-07 9.320077e-05 -2.895405e-07)) ((2.089562e-11 1.091269e-12 -7.212462e-10) (3.201323e-09 -5.978675e-11 7.666816e-09))
92.198414     	((5.756907e-06 2.835204e-04 -4.044700e-06) (4.765763e-07 9.303411e-05 -3.204460e-07)) ((2.302827e-11 6.366065e-13 -7.212168e-10) (3.706089e-09 -6.226421e-11 8.041275e-09))
93.981333     	((6.209099e-06 2.830674e-04 -4.445678e-06) (5.186354e-07 9.287381e-05 -3.536603e-07)) ((2.530743e-11 2.753076e-13 -7.211992e-10) (4.226108e-09 -6.459848e-11 8.397000e-09))
95.76559      	((6.699063e-06 2.826510e-04 -4.871389e-06) (5.639764e-07 9.272063e-05 -3.892826e-07)) ((2.772103e-11 1.182950e-13 -7.212061e-10) (4.752921e-09 -6.783421e-11 8.739696e-09))
97.551109     	((7.238413e-06 2.822741e-04 -5.321952e-06) (6.130277e-07 9.257501e-05 -4.276113e-07)) ((3.027603e-11 1.142737e-13 -7.212662e-10) (5.282354e-09 -7.094368e-11 9.092949e-09))
99.337817     	((7.849083e-06 2.819059e-04 -5.808788e-06) (6.667421e-07 9.243646e-05 -4.691630e-07)) ((3.308706e-11 2.156793e-13 -7.213314e-10) (5.811182e-09 -7.159610e-11 9.486078e-09))
101.125639    	((8.528745e-06 2.815610e-04 -6.335262e-06) (7.256639e-07 9.230503e-05 -5.144746e-07)) ((3.607702e-11 4.485729e-13 -7.214699e-10) (6.343315e-09 -7.048200e-11 9.944549e-09))
102.914486    	((9.267258e-06 2.812503e-04 -6.889878e-06) (7.895110e-07 9.218154e-05 -5.632784e-07)) ((3.901878e-11 6.186266e-13 -7.216911e-10) (6.885966e-09 -6.755549e-11 1.049475e-08))
104.704261    	((1.010859e-05 2.809332e-04 -7.502209e-06) (8.593085e-07 9.206457e-05 -6.159925e-07)) ((4.246584e-11 1.053479e-12 -7.218265e-10) (7.462435e-09 -6.257825e-11 1.116661e-08))
106.494861    	((1.104526e-05 2.806360e-04 -8.167612e-06) (9.358919e-07 9.195354e-05 -6.731329e-07)) ((4.623015e-11 1.753157e-12 -7.219462e-10) (8.084571e-09 -5.335455e-11 1.198126e-08))
108.286182    	((1.210522e-05 2.803535e-04 -8.890244e-06) (1.020655e-06 9.184887e-05 -7.351576e-07)) ((5.036258e-11 2.550711e-12 -7.220729e-10) (8.735966e-09 -3.940651e-11 1.293328e-08))
110.078123    	((1.330489e-05 2.800913e-04 -9.708215e-06) (1.115636e-06 9.175079e-05 -8.040741e-07)) ((5.524331e-11 3.524380e-12 -7.221153e-10) (9.399127e-09 -2.393625e-11 1.401955e-08))
111.870573    	((1.465634e-05 2.798403e-04 -1.061998e-05) (1.222736e-06 9.165906e-05 -8.813069e-07)) ((6.069110e-11 4.354499e-12 -7.220393e-10) (1.007851e-08 -1.236564e-11 1.523694e-08))
113.663419    	((1.615556e-05 2.796099e-04 -1.164975e-05) (1.343064e-06 9.157378e-05 -9.681799e-07)) ((6.701871e-11 5.183591e-12 -7.217764e-10) (1.078792e-08 -4.583774e-12 1.658991e-08))
115.45653     	((1.781941e-05 2.793856e-04 -1.279352e-05) (1.477265e-06 9.149459e-05 -1.065655e-06)) ((7.408640e-11 5.944134e-12 -7.212982e-10) (1.154633e-08 -6.085522e-12 1.810254e-08))
117.249761    	((1.965502e-05 2.791652e-04 -1.406696e-05) (1.626579e-06 9.142061e-05 -1.174340e-06)) ((8.205048e-11 6.643016e-12 -7.206695e-10) (1.238085e-08 -1.761036e-11 1.976748e-08))
119.04295     	((2.168537e-05 2.789579e-04 -1.548942e-05) (1.793367e-06 9.135062e-05 -1.295783e-06)) ((9.085445e-11 7.266217e-12 -7.199130e-10) (1.330179e-08 -3.807197e-11 2.154612e-08))
120.835929    	((2.390339e-05 2.787543e-04 -1.707185e-05) (1.979581e-06 9.128278e-05 -1.431238e-06)) ((1.005555e-10 7.915069e-12 -7.189940e-10) (1.433119e-08 -6.797542e-11 2.340211e-08))
122.628517    	((2.631331e-05 2.785991e-04 -1.881642e-05) (2.186423e-06 9.121772e-05 -1.581567e-06)) ((1.109973e-10 8.700767e-12 -7.179200e-10) (1.548982e-08 -9.689325e-11 2.531753e-08))
124.420522    	((2.890612e-05 2.784974e-04 -2.073299e-05) (2.413513e-06 9.115789e-05 -1.747720e-06)) ((1.221717e-10 9.721899e-12 -7.166507e-10) (1.678161e-08 -1.200850e-10 2.732873e-08))
126.211751    	((3.169181e-05 2.784432e-04 -2.284878e-05) (2.659977e-06 9.110474e-05 -1.930857e-06)) ((1.345404e-10 1.113740e-11 -7.150742e-10) (1.823248e-08 -1.342707e-10 2.949317e-08))
128.002006    	((3.470268e-05 2.784471e-04 -2.516103e-05) (2.927387e-06 9.105955e-05 -2.131773e-06)) ((1.479277e-10 1.318311e-11 -7.131818e-10) (1.987639e-08 -1.422023e-10 3.181069e-08))
129.791083    	((3.795269e-05 2.785109e-04 -2.768030e-05) (3.218365e-06 9.102221e-05 -2.351504e-06)) ((1.623250e-10 1.591722e-11 -7.108710e-10) (2.173068e-08 -1.477700e-10 3.424250e-08))
131.578758    	((4.147229e-05 2.786342e-04 -3.043554e-05) (3.535759e-06 9.099179e-05 -2.591945e-06)) ((1.782238e-10 1.945457e-11 -7.083002e-10) (2.379389e-08 -1.461893e-10 3.675196e-08))
133.364792    	((4.528198e-05 2.788595e-04 -3.344042e-05) (3.881956e-06 9.096897e-05 -2.854950e-06)) ((1.957225e-10 2.405051e-11 -7.055896e-10) (2.606178e-08 -1.406454e-10 3.936150e-08))
135.148832    	((4.940987e-05 2.792257e-04 -3.669811e-05) (4.259772e-06 9.095742e-05 -3.142545e-06)) ((2.146806e-10 2.961195e-11 -7.028030e-10) (2.849584e-08 -1.324352e-10 4.206759e-08))
136.930628    	((5.387838e-05 2.797296e-04 -4.025969e-05) (4.671319e-06 9.096025e-05 -3.458185e-06)) ((2.355134e-10 3.642097e-11 -6.997723e-10) (3.108656e-08 -1.343280e-10 4.487184e-08))
138.709916    	((5.875276e-05 2.803890e-04 -4.411486e-05) (5.120455e-06 9.097928e-05 -3.802853e-06)) ((2.580329e-10 4.465360e-11 -6.964187e-10) (3.387451e-08 -1.337509e-10 4.777884e-08))
140.48643     	((6.406081e-05 2.812123e-04 -4.830209e-05) (5.608758e-06 9.101327e-05 -4.175991e-06)) ((2.821036e-10 5.442155e-11 -6.927569e-10) (3.700232e-08 -8.260469e-11 5.096653e-08))
142.259791    	((6.991479e-05 2.822419e-04 -5.286302e-05) (6.140793e-06 9.106292e-05 -4.581887e-06)) ((3.084411e-10 6.620992e-11 -6.887930e-10) (4.046960e-08 -1.676029e-11 5.455992e-08))
