# Forces      
# CofR        : (0.000000e+00 0.000000e+00 0.000000e+00)
# Time        forces(pressure viscous)	moments(pressure viscous)
0             	((0.000000e+00 0.000000e+00 0.000000e+00) (0.000000e+00 0.000000e+00 0.000000e+00)) ((0.000000e+00 0.000000e+00 0.000000e+00) (0.000000e+00 0.000000e+00 0.000000e+00))
0.012         	((5.390427e-12 -9.008369e-12 -2.164718e-09) (6.992170e-15 -4.750321e-14 -4.546871e-11)) ((9.768609e-16 -8.420739e-11 4.463067e-17) (-1.168436e-16 -5.562598e-08 3.288343e-15))
0.0264        	((-9.065211e-12 9.559023e-12 8.138532e-10) (7.921310e-15 -1.344544e-13 -7.906735e-11)) ((2.075298e-16 -4.215209e-11 -4.098819e-15) (-1.518279e-15 -5.094907e-08 4.642780e-15))
0.04368       	((-3.187591e-11 -5.183197e-11 -7.540454e-10) (-8.420745e-14 -1.009564e-13 -8.571312e-11)) ((-7.643443e-16 -2.324980e-11 -2.666645e-15) (2.541019e-15 -4.614291e-08 6.690148e-15))
0.064416      	((9.286673e-12 1.424895e-11 -2.836940e-11) (-2.617742e-13 7.363581e-14 -7.085461e-11)) ((-2.013149e-17 -1.323593e-11 1.855728e-16) (8.555777e-15 -4.131243e-08 8.713855e-15))
0.0892992     	((-2.712808e-11 -1.598132e-11 -9.431072e-11) (-3.997320e-13 2.531307e-13 -5.885393e-11)) ((1.952306e-16 -9.829069e-12 2.065817e-17) (1.173920e-14 -3.659848e-08 8.994889e-15))
0.119159      	((1.156195e-11 4.298850e-12 -2.466745e-11) (-4.892364e-13 4.411635e-13 -4.989192e-11)) ((-1.439028e-16 -7.053194e-12 4.354532e-17) (1.584026e-14 -3.214613e-08 1.026864e-14))
0.154991      	((8.868763e-12 1.023304e-11 6.183229e-11) (-5.785017e-13 6.924984e-13 -4.019326e-11)) ((1.204341e-16 -5.573634e-12 -4.265782e-16) (2.109320e-14 -2.805794e-08 1.258889e-14))
0.197989      	((6.822582e-12 6.862727e-12 -6.498609e-12) (-6.188933e-13 8.949614e-13 -3.140425e-11)) ((1.897387e-16 -4.431219e-12 -4.258590e-16) (2.359751e-14 -2.443354e-08 1.448820e-14))
0.249587      	((-9.440586e-13 7.059570e-12 5.954245e-11) (-5.871363e-13 1.006495e-12 -2.483014e-11)) ((2.997028e-16 -3.653330e-12 1.009854e-16) (2.286994e-14 -2.132676e-08 1.262655e-14))
0.311504      	((1.451601e-13 -1.734369e-12 1.137034e-11) (-5.277876e-13 1.093037e-12 -1.934435e-11)) ((2.313611e-16 -3.041532e-12 4.182587e-16) (2.170868e-14 -1.873011e-08 8.620870e-15))
0.385805      	((3.219158e-12 -5.961002e-12 -5.657039e-13) (-4.568753e-13 1.122810e-12 -1.479562e-11)) ((7.625503e-17 -2.608123e-12 6.810046e-16) (2.139146e-14 -1.658765e-08 6.872945e-15))
0.474966      	((7.162273e-12 1.681274e-12 -1.314028e-11) (-3.739885e-13 1.198774e-12 -1.049576e-11)) ((7.059114e-17 -2.323115e-12 5.465796e-16) (2.023254e-14 -1.481512e-08 2.289544e-15))
0.581959      	((1.207768e-11 6.913490e-12 1.332238e-11) (-2.600992e-13 1.256189e-12 -6.909462e-12)) ((1.212423e-16 -2.080640e-12 2.029426e-16) (1.902679e-14 -1.332498e-08 -4.097679e-15))
0.710351      	((1.693216e-11 9.622299e-12 -2.916980e-11) (-2.866962e-13 8.972958e-13 -6.162397e-12)) ((2.850821e-16 -1.847293e-12 1.885520e-16) (1.422805e-14 -1.204481e-08 1.364352e-15))
0.864421      	((1.791686e-11 8.169427e-12 -1.479393e-11) (-3.011043e-13 -9.914108e-14 -5.799672e-12)) ((4.042664e-16 -1.689927e-12 -2.661251e-16) (4.823767e-15 -1.092326e-08 1.640117e-14))
1.049306      	((2.894058e-11 7.678805e-12 1.410352e-12) (-6.059924e-13 -1.003873e-12 -3.649327e-12)) ((6.139978e-16 -1.589751e-12 -2.457349e-16) (-5.484387e-15 -9.926474e-09 2.608644e-14))
1.271167      	((3.603067e-11 6.402921e-12 -2.873342e-11) (-1.181551e-12 -1.472741e-12 -1.539554e-12)) ((2.258266e-16 -1.487235e-12 -4.499596e-16) (-2.002052e-14 -9.031626e-09 2.122588e-14))
1.5374        	((3.777018e-11 -2.851448e-12 -3.391764e-11) (-1.940958e-12 -1.619136e-12 1.193409e-12)) ((-4.304969e-16 -1.368059e-12 -6.904361e-16) (-4.208224e-14 -8.223864e-09 5.327426e-15))
1.85688       	((3.537032e-11 4.236567e-12 -2.381640e-11) (-2.960067e-12 -1.769447e-12 5.405641e-12)) ((-8.204410e-16 -1.262546e-12 -3.213522e-16) (-7.732543e-14 -7.495140e-09 -2.787221e-14))
2.240256      	((3.280287e-11 1.919811e-12 -3.050014e-11) (-4.391636e-12 -1.485263e-12 8.195219e-12)) ((-8.543670e-16 -1.194159e-12 -2.150090e-16) (-1.088555e-13 -6.841302e-09 -7.016684e-14))
2.700307      	((3.025240e-11 5.151495e-13 -2.530038e-11) (-7.024172e-12 -9.156961e-13 9.587957e-12)) ((-8.082129e-16 -1.144608e-12 -2.982793e-16) (-1.563836e-13 -6.259392e-09 -1.558406e-13))
3.252369      	((2.283011e-11 2.226011e-12 -1.706260e-11) (-1.031742e-11 -4.785475e-13 1.482370e-11)) ((-9.546648e-16 -1.094746e-12 -4.629315e-16) (-2.194126e-13 -5.745426e-09 -2.601771e-13))
3.914842      	((9.279480e-12 1.871266e-12 -5.963519e-12) (-1.334543e-11 9.902700e-14 2.327542e-11)) ((-4.463670e-16 -1.037088e-12 -7.658768e-16) (-2.667278e-13 -5.293375e-09 -3.124498e-13))
4.709811      	((3.991096e-12 2.439122e-13 3.854229e-12) (-1.667334e-11 8.528644e-13 2.669267e-11)) ((-5.915073e-16 -9.732693e-13 -6.572630e-16) (-3.056256e-13 -4.894814e-09 -3.537098e-13))
5.663773      	((-2.672830e-13 1.658514e-12 -6.688743e-12) (-1.872831e-11 7.390319e-13 2.503153e-11)) ((-5.582734e-16 -9.041117e-13 -2.225064e-16) (-3.223627e-13 -4.540359e-09 -3.572648e-13))
6.808528      	((-4.382345e-12 3.100727e-12 -9.658310e-13) (-1.862358e-11 2.431638e-13 2.408118e-11)) ((-6.095136e-16 -8.334198e-13 2.839581e-16) (-3.070116e-13 -4.221689e-09 -3.226674e-13))
8.182233      	((-6.141375e-12 1.843136e-13 1.185389e-12) (-1.726583e-11 4.079077e-13 2.204616e-11)) ((-4.943146e-16 -7.648429e-13 2.010135e-16) (-2.692935e-13 -3.932370e-09 -2.956435e-13))
9.83068       	((-7.057457e-12 3.165556e-12 -1.638003e-12) (-1.498283e-11 6.260148e-13 1.679225e-11)) ((-3.780836e-16 -6.946311e-13 2.073738e-16) (-2.215646e-13 -3.667524e-09 -2.561943e-13))
11.808816     	((9.805615e-13 1.002219e-12 -5.836834e-12) (-1.181543e-11 -1.141692e-13 1.043320e-11)) ((-3.683187e-16 -6.314290e-13 4.423490e-16) (-1.809019e-13 -3.423756e-09 -1.927634e-13))
14.182579     	((2.477496e-12 1.893970e-12 -9.278127e-12) (-8.625093e-12 -1.643028e-12 7.019713e-12)) ((-3.777967e-16 -5.738508e-13 5.482491e-16) (-1.410307e-13 -3.199109e-09 -1.094071e-13))
17.031095     	((2.774404e-12 2.300768e-12 -6.860248e-12) (-5.843418e-12 -1.995888e-12 4.753819e-12)) ((-1.137371e-16 -5.243617e-13 6.497171e-16) (-9.599417e-14 -2.992554e-09 -5.202787e-14))
20.449314     	((3.487206e-12 1.275385e-12 -8.532268e-12) (-3.615439e-12 -1.303039e-12 2.860369e-12)) ((-1.315451e-16 -4.804168e-13 7.481175e-16) (-5.314779e-14 -2.803439e-09 -3.651842e-14))
24.551176     	((4.367196e-12 -1.063332e-13 -7.011331e-12) (-2.162957e-12 -6.979713e-13 2.482279e-12)) ((-1.045856e-16 -4.413674e-13 7.638852e-16) (-2.585223e-14 -2.630639e-09 -3.064692e-14))
29.473411     	((3.920722e-12 6.295703e-13 -7.781318e-12) (-1.441979e-12 -3.857388e-13 3.177831e-12)) ((1.436831e-17 -4.085944e-13 6.958890e-16) (-1.389369e-14 -2.472964e-09 -2.501674e-14))
35.380094     	((4.614426e-12 2.582439e-13 -7.638980e-12) (-1.100227e-12 -6.565108e-14 3.898078e-12)) ((2.715008e-17 -3.796555e-13 6.682312e-16) (-7.237930e-15 -2.329120e-09 -2.110099e-14))
42.468112     	((4.358411e-12 1.836083e-13 -6.389236e-12) (-9.194957e-13 9.725159e-14 4.299675e-12)) ((-3.556443e-17 -3.547429e-13 5.298238e-16) (-5.281792e-15 -2.197882e-09 -2.290593e-14))
50.973735     	((3.885759e-12 3.056133e-13 -5.250129e-12) (-1.062958e-12 2.505674e-13 4.127772e-12)) ((-3.111150e-17 -3.325293e-13 4.382299e-16) (-8.639130e-15 -2.078269e-09 -3.293280e-14))
61.180482     	((3.743684e-12 1.153083e-14 -6.128311e-12) (-1.416930e-12 3.324515e-13 3.735731e-12)) ((-3.625870e-17 -3.125408e-13 3.842251e-16) (-1.701231e-14 -1.969381e-09 -4.777750e-14))
73.428578     	((3.045512e-12 -2.527438e-13 -3.590369e-12) (-1.696526e-12 2.291982e-13 3.629619e-12)) ((-6.688078e-18 -2.948872e-13 2.930271e-16) (-2.479615e-14 -1.870485e-09 -5.731540e-14))
88.126294     	((2.210881e-12 1.843278e-13 -4.445296e-12) (-2.124786e-12 1.604192e-13 3.606530e-12)) ((4.475265e-17 -2.789100e-13 2.036114e-16) (-2.959915e-14 -1.780831e-09 -6.224044e-14))
105.763553    	((2.023126e-12 7.108578e-14 -3.192350e-12) (-2.572382e-12 6.592631e-14 4.017644e-12)) ((1.229363e-16 -2.638090e-13 1.520083e-16) (-3.322483e-14 -1.699701e-09 -6.790406e-14))
126.928263    	((1.579963e-12 1.791263e-13 -3.119800e-12) (-2.978086e-12 -2.848948e-14 4.201464e-12)) ((1.793747e-16 -2.500806e-13 1.167202e-16) (-3.580718e-14 -1.626358e-09 -7.302123e-14))
152.325916    	((8.211874e-13 1.032598e-13 -2.665795e-12) (-3.104981e-12 -8.890395e-14 4.358281e-12)) ((1.784211e-16 -2.378666e-13 1.178279e-16) (-3.685607e-14 -1.560038e-09 -7.412263e-14))
182.803099    	((2.172382e-13 1.291108e-13 -2.137648e-12) (-2.862683e-12 -1.005527e-13 4.438091e-12)) ((1.677659e-16 -2.268671e-13 1.240902e-16) (-3.851407e-14 -1.499950e-09 -7.492554e-14))
219.375719    	((-2.203310e-13 -4.580300e-14 -4.676733e-13) (-2.420285e-12 -1.701203e-13 4.983643e-12)) ((1.624013e-16 -2.168732e-13 1.300468e-16) (-3.842409e-14 -1.445386e-09 -7.205517e-14))
263.262863    	((-1.924851e-13 8.285194e-14 -2.172436e-14) (-2.213709e-12 -2.583130e-13 5.550447e-12)) ((1.380353e-16 -2.076807e-13 1.278600e-16) (-4.070447e-14 -1.395754e-09 -7.025164e-14))
315.927436    	((3.033682e-13 6.550364e-14 -2.345435e-13) (-2.235536e-12 -3.040823e-13 5.949635e-12)) ((1.067671e-16 -1.994038e-13 1.055769e-16) (-4.397224e-14 -1.350604e-09 -6.988306e-14))
379.124923    	((4.335678e-13 4.637773e-14 -5.308959e-14) (-2.166467e-12 -2.967485e-13 6.376055e-12)) ((7.299947e-17 -1.918537e-13 7.116855e-17) (-4.523252e-14 -1.309562e-09 -7.059964e-14))
454.961908    	((6.145163e-13 -4.866291e-14 8.495193e-14) (-2.095816e-12 -2.583043e-13 6.818943e-12)) ((4.121303e-17 -1.850216e-13 3.849317e-17) (-4.528962e-14 -1.272348e-09 -6.999776e-14))
545.966289    	((1.179498e-12 6.214229e-14 7.486721e-15) (-2.135605e-12 -1.943651e-13 7.202188e-12)) ((1.597152e-17 -1.787754e-13 1.552332e-17) (-4.393915e-14 -1.238708e-09 -6.843611e-14))
655.171547    	((1.353181e-12 7.558029e-14 -8.221787e-14) (-2.216425e-12 -1.485226e-13 7.468845e-12)) ((8.407744e-19 -1.731035e-13 -6.106885e-18) (-4.258001e-14 -1.208417e-09 -6.754237e-14))
786.217856    	((1.022715e-12 7.714348e-14 -4.393546e-13) (-2.081611e-12 -1.187239e-13 7.443291e-12)) ((-9.054212e-18 -1.680333e-13 -2.156792e-17) (-4.055562e-14 -1.181250e-09 -6.559207e-14))
943.473427    	((6.027012e-13 -2.935420e-14 -4.461583e-13) (-1.940121e-12 -1.392358e-13 7.189249e-12)) ((-8.877575e-18 -1.634952e-13 -2.863468e-17) (-3.938344e-14 -1.156992e-09 -6.246835e-14))
1132.180113   	((3.952108e-13 -4.763528e-14 -4.201042e-13) (-1.810106e-12 -1.876821e-13 6.913066e-12)) ((-1.212187e-17 -1.593723e-13 -2.403335e-17) (-3.820382e-14 -1.135428e-09 -5.854166e-14))
1358.628135   	((3.274880e-13 -1.093222e-13 -3.463538e-13) (-1.667631e-12 -2.513799e-13 6.741341e-12)) ((-2.208615e-17 -1.557201e-13 -1.120764e-17) (-3.742061e-14 -1.116351e-09 -5.463624e-14))
1630.365763   	((6.996177e-14 -1.775522e-13 -4.494382e-13) (-1.567519e-12 -2.855667e-13 6.633880e-12)) ((-3.032010e-17 -1.525311e-13 -2.388675e-18) (-3.627176e-14 -1.099576e-09 -5.078594e-14))
1956.450915   	((-1.628729e-13 -2.069114e-13 -6.502564e-13) (-1.474028e-12 -3.080613e-13 6.583703e-12)) ((-3.099289e-17 -1.497595e-13 1.026751e-17) (-3.550343e-14 -1.084907e-09 -4.776264e-14))
2347.753098   	((-1.513690e-13 -2.354377e-13 -6.934812e-13) (-1.393686e-12 -3.355719e-13 6.594944e-12)) ((-3.271962e-17 -1.473370e-13 2.149462e-17) (-3.411572e-14 -1.072157e-09 -4.514677e-14))
2817.315718   	((-3.572351e-13 -2.881425e-13 -6.869889e-13) (-1.287785e-12 -3.583284e-13 6.620305e-12)) ((-3.101615e-17 -1.452975e-13 2.397268e-17) (-3.229150e-14 -1.061142e-09 -4.263000e-14))
3380.790861   	((-7.707378e-13 -4.256811e-13 -6.252441e-13) (-1.178530e-12 -3.645194e-13 6.612326e-12)) ((-1.523573e-17 -1.435722e-13 3.822230e-17) (-3.047628e-14 -1.051683e-09 -4.036979e-14))
4056.961033   	((-1.025704e-12 -3.682623e-13 -5.039689e-13) (-1.018074e-12 -3.864549e-13 6.541001e-12)) ((-2.856558e-17 -1.420404e-13 1.214703e-17) (-2.862788e-14 -1.043614e-09 -3.645836e-14))
4868.36524    	((-1.288209e-12 -4.259461e-13 -4.949739e-13) (-8.155998e-13 -3.880229e-13 6.428493e-12)) ((-3.010879e-17 -1.407754e-13 3.942797e-17) (-2.608992e-14 -1.036771e-09 -3.273409e-14))
5842.050288   	((-1.395983e-12 -3.257055e-13 -7.127797e-13) (-7.288751e-13 -3.778634e-13 6.331019e-12)) ((-3.396538e-17 -1.396841e-13 4.489291e-17) (-2.465088e-14 -1.031012e-09 -3.017112e-14))
7010.472346   	((-1.358435e-12 -2.159711e-13 -6.527580e-13) (-6.716042e-13 -3.609120e-13 6.260804e-12)) ((-2.938944e-17 -1.387802e-13 4.684006e-17) (-2.348560e-14 -1.026195e-09 -2.752907e-14))
8412.578815   	((-1.288512e-12 -6.644670e-14 -4.856141e-13) (-6.147673e-13 -3.436403e-13 6.214693e-12)) ((-3.590184e-17 -1.380492e-13 4.879838e-17) (-2.261524e-14 -1.022192e-09 -2.528821e-14))
10071.106503  	((-1.176354e-12 9.903049e-14 -2.893641e-13) (-5.598707e-13 -3.252671e-13 6.176726e-12)) ((-4.340367e-17 -1.374453e-13 4.926781e-17) (-2.194651e-14 -1.018889e-09 -2.350556e-14))
11986.066779  	((-9.430478e-13 2.315490e-13 -6.211364e-14) (-4.929540e-13 -3.122322e-13 6.116248e-12)) ((-3.582692e-17 -1.369277e-13 4.389675e-17) (-2.190755e-14 -1.016180e-09 -2.198120e-14))
14157.468946  	((-7.644207e-13 3.626931e-13 1.560052e-13) (-4.285048e-13 -3.067582e-13 6.058244e-12)) ((-3.441733e-17 -1.365168e-13 4.338629e-17) (-2.155420e-14 -1.013971e-09 -2.053687e-14))
16585.320569  	((-5.881596e-13 4.274422e-13 4.011054e-13) (-3.815993e-13 -3.005879e-13 6.021427e-12)) ((-2.859668e-17 -1.361863e-13 4.659382e-17) (-2.097349e-14 -1.012178e-09 -1.892063e-14))
19149.876293  	((-3.714653e-13 4.160017e-13 7.371421e-13) (-3.556339e-13 -3.106321e-13 5.992867e-12)) ((-1.476388e-17 -1.359108e-13 4.981334e-17) (-2.117776e-14 -1.010729e-09 -1.712410e-14))
21714.480976  	((-2.498411e-13 5.140956e-13 9.117231e-13) (-3.270632e-13 -3.201581e-13 5.968989e-12)) ((-9.583305e-18 -1.357014e-13 4.775671e-17) (-2.129645e-14 -1.009564e-09 -1.572420e-14))
24279.124773  	((-1.558519e-13 6.487971e-13 1.023178e-12) (-2.957927e-13 -3.250259e-13 5.951471e-12)) ((1.090567e-18 -1.355357e-13 3.848478e-17) (-2.111766e-14 -1.008629e-09 -1.477737e-14))
26843.799884  	((-3.048854e-14 6.835102e-13 1.195980e-12) (-2.742146e-13 -3.241230e-13 5.944190e-12)) ((1.481323e-18 -1.354034e-13 3.674641e-17) (-2.109893e-14 -1.007881e-09 -1.410338e-14))
29408.499987  	((1.032965e-13 7.151725e-13 1.356076e-12) (-2.554194e-13 -3.245598e-13 5.938650e-12)) ((9.437469e-19 -1.352957e-13 3.639832e-17) (-2.104448e-14 -1.007282e-09 -1.366310e-14))
31973.220051  	((2.333380e-13 7.337718e-13 1.503503e-12) (-2.405910e-13 -3.245224e-13 5.935352e-12)) ((5.116739e-19 -1.352098e-13 3.680997e-17) (-2.098647e-14 -1.006804e-09 -1.329731e-14))
34537.956045  	((3.626036e-13 7.480873e-13 1.639576e-12) (-2.277108e-13 -3.249334e-13 5.932906e-12)) ((3.571603e-20 -1.351409e-13 3.670201e-17) (-2.095076e-14 -1.006423e-09 -1.305416e-14))
37102.704752  	((4.842232e-13 7.543858e-13 1.761847e-12) (-2.177268e-13 -3.250519e-13 5.931817e-12)) ((-2.150588e-19 -1.350861e-13 3.700036e-17) (-2.091859e-14 -1.006118e-09 -1.284225e-14))
39667.463591  	((6.031117e-13 7.598852e-13 1.873877e-12) (-2.092822e-13 -3.253610e-13 5.931211e-12)) ((-5.044219e-19 -1.350422e-13 3.700313e-17) (-2.090029e-14 -1.005875e-09 -1.270063e-14))
42232.230514  	((7.183361e-13 7.618132e-13 1.975683e-12) (-2.026337e-13 -3.255183e-13 5.931371e-12)) ((-6.370948e-19 -1.350072e-13 3.725676e-17) (-2.088346e-14 -1.005682e-09 -1.257455e-14))
44797.00388   	((8.389010e-13 7.676570e-13 2.071758e-12) (-1.966875e-13 -3.257780e-13 5.932003e-12)) ((-3.993828e-19 -1.349796e-13 3.734857e-17) (-2.087322e-14 -1.005528e-09 -1.249598e-14))
47361.782383  	((9.385364e-13 7.562482e-13 2.158695e-12) (-1.908785e-13 -3.251105e-13 5.936639e-12)) ((-4.804264e-18 -1.349517e-13 3.722891e-17) (-2.076196e-14 -1.005405e-09 -1.243197e-14))
49926.564981  	((1.058187e-12 7.616228e-13 2.244306e-12) (-1.879063e-13 -3.270196e-13 5.935054e-12)) ((-7.345104e-19 -1.349390e-13 3.761872e-17) (-2.083905e-14 -1.005306e-09 -1.239773e-14))
52491.350844  	((1.156110e-12 7.495481e-13 2.322020e-12) (-1.832931e-13 -3.260646e-13 5.939214e-12)) ((-4.656403e-18 -1.349196e-13 3.750946e-17) (-2.076131e-14 -1.005228e-09 -1.234562e-14))
55056.139308  	((1.282988e-12 7.622229e-13 2.401272e-12) (-1.805987e-13 -3.275125e-13 5.938458e-12)) ((-1.320412e-19 -1.349137e-13 3.792433e-17) (-2.082622e-14 -1.005166e-09 -1.233522e-14))
57620.929846  	((1.280271e-12 6.726133e-13 2.451319e-12) (-1.697323e-13 -3.205254e-13 5.954733e-12)) ((-1.597532e-17 -1.348844e-13 3.796072e-17) (-2.041884e-14 -1.005117e-09 -1.232021e-14))
60185.722035  	((1.374338e-12 6.621909e-13 2.515174e-12) (-1.643695e-13 -3.275198e-13 5.973194e-12)) ((-1.575133e-17 -1.348770e-13 3.799019e-17) (-1.983507e-14 -1.005078e-09 -1.264277e-14))
