# Forces      
# CofR        : (0.000000e+00 0.000000e+00 0.000000e+00)
# Time        forces(pressure viscous)	moments(pressure viscous)
0             	((0.000000e+00 0.000000e+00 0.000000e+00) (2.524399e-05 -3.599497e-15 1.844810e-15)) ((0.000000e+00 0.000000e+00 0.000000e+00) (-4.995153e-17 -3.727835e-16 5.403312e-16))
0.012         	((7.341284e-03 -4.422177e-09 -3.413156e-09) (2.897185e-05 -2.624564e-11 -1.690654e-11)) ((-2.379111e-14 -3.115666e-12 -1.053499e-12) (3.382429e-15 2.418924e-13 4.159326e-13))
0.0264        	((-5.061710e-04 -4.219282e-08 -1.486501e-07) (2.956318e-05 -7.300567e-11 -1.323205e-10)) ((1.700615e-12 6.686041e-12 1.663361e-12) (-1.402234e-14 6.758858e-13 6.783112e-13))
0.04368       	((-1.536730e-03 -1.818413e-09 8.883698e-08) (2.627434e-05 -1.005562e-10 -1.209255e-10)) ((-1.069360e-12 3.195263e-12 5.386083e-12) (7.578327e-14 1.757460e-12 3.226300e-13))
0.064416      	((-1.460917e-05 4.025477e-09 -3.661248e-08) (2.327288e-05 4.044632e-10 4.531075e-10)) ((-5.632322e-14 -2.887645e-12 -1.969014e-12) (1.837850e-13 -9.734981e-13 3.572896e-12))
0.0892992     	((2.032399e-05 -1.244249e-08 3.049092e-08) (2.148677e-05 6.232496e-10 7.815753e-10)) ((1.287600e-12 -7.267955e-13 -1.119673e-12) (-2.010160e-13 -1.419812e-12 5.117260e-12))
0.119159      	((-2.297273e-05 1.766719e-08 8.954695e-09) (1.984129e-05 4.565924e-10 6.995151e-10)) ((-7.452273e-13 -1.589155e-12 -3.837008e-13) (-1.709463e-13 3.990816e-12 9.036204e-13))
0.154991      	((-1.237875e-05 -4.261216e-09 -6.581878e-10) (1.809612e-05 3.515041e-10 5.897503e-10)) ((1.390369e-13 -8.037411e-13 3.212583e-13) (-6.823985e-13 6.608255e-12 -9.619860e-13))
0.197989      	((-3.006096e-06 -6.123213e-10 1.670007e-09) (1.633449e-05 1.507341e-10 3.845010e-10)) ((-2.835378e-14 -1.264782e-12 4.469465e-13) (-1.235544e-12 4.283423e-12 5.199374e-13))
0.249587      	((4.019480e-07 2.150331e-09 2.695898e-09) (1.460599e-05 1.380245e-11 2.255143e-10)) ((-1.629872e-13 -8.548862e-13 1.546308e-13) (-9.850974e-13 1.926704e-12 2.358342e-12))
0.311504      	((1.962217e-06 1.150645e-09 1.093250e-09) (1.296265e-05 -6.493438e-11 1.329458e-10)) ((-4.653055e-14 -6.185185e-13 4.715793e-14) (-6.508570e-13 -7.345983e-14 3.366157e-12))
0.385805      	((2.708239e-06 1.595352e-10 3.735213e-11) (1.144627e-05 -1.085714e-10 6.423335e-11)) ((-1.210523e-14 -4.213053e-13 4.062150e-14) (-4.291271e-13 -2.573805e-12 4.215759e-12))
0.474966      	((3.060951e-06 -3.115611e-10 -8.849505e-11) (1.008682e-05 -1.160113e-10 1.205701e-11)) ((-1.542351e-14 -2.837662e-13 2.959637e-14) (-3.427091e-13 -3.477907e-12 4.396714e-12))
0.581959      	((3.204028e-06 -2.976782e-10 -2.067768e-10) (8.896539e-06 -1.296163e-10 -2.390483e-11)) ((-8.124180e-15 -1.857872e-13 1.527452e-14) (-1.425109e-13 -3.002401e-12 4.613265e-12))
0.710351      	((3.192684e-06 -4.015703e-10 -3.692218e-10) (7.875255e-06 -1.218504e-10 -3.968908e-11)) ((3.523604e-15 -1.162262e-13 5.925037e-15) (4.345835e-14 -1.694680e-12 4.348221e-12))
0.864421      	((3.078080e-06 -3.897252e-10 -4.001718e-10) (7.009867e-06 -1.030026e-10 -4.860141e-11)) ((2.749516e-15 -5.984068e-14 -4.015705e-15) (3.478058e-14 -7.424994e-13 3.249356e-12))
1.049306      	((2.909006e-06 -3.049359e-10 -3.562153e-10) (6.278613e-06 -7.420522e-11 -4.136025e-11)) ((3.835008e-15 -2.850328e-14 -4.470752e-15) (3.142212e-14 -5.420285e-15 2.221879e-12))
1.271167      	((2.720978e-06 -2.229774e-10 -2.747869e-10) (5.658839e-06 -4.741319e-11 -2.909951e-11)) ((3.868498e-15 -7.670734e-15 -4.725797e-15) (9.576735e-14 3.031273e-13 1.816253e-12))
1.5374        	((2.528401e-06 -1.324204e-10 -1.746956e-10) (5.126539e-06 -3.042561e-11 -2.144521e-11)) ((4.185095e-15 2.339589e-15 -4.447768e-15) (1.254440e-13 2.754073e-13 1.413697e-12))
1.85688       	((2.339957e-06 -6.989297e-11 -9.603661e-11) (4.660128e-06 -2.089213e-11 -1.888767e-11)) ((3.319127e-15 1.105469e-15 -4.067087e-15) (1.281526e-13 2.611221e-13 1.068493e-12))
2.240256      	((2.160877e-06 -3.620602e-11 -4.758079e-11) (4.245544e-06 -1.275583e-11 -2.275068e-11)) ((2.479929e-15 -3.921620e-15 -2.744907e-15) (1.417484e-13 4.477385e-13 7.521418e-13))
2.700307      	((1.993417e-06 -7.245195e-12 -3.070875e-11) (3.873856e-06 -1.397510e-11 -2.481745e-11)) ((2.090384e-15 -7.729180e-15 -3.000819e-15) (1.657916e-13 7.740739e-13 3.537812e-13))
3.252369      	((1.837285e-06 1.478207e-11 -1.308987e-11) (3.539129e-06 -1.721499e-11 -2.039443e-11)) ((2.542491e-15 -8.944491e-15 -2.675133e-15) (1.803438e-13 1.142244e-12 -6.062650e-14))
3.914842      	((1.690337e-06 7.127752e-12 -1.521451e-11) (3.236894e-06 -1.901518e-11 -1.904450e-11)) ((3.559854e-15 -1.064612e-14 -2.809003e-15) (1.925496e-13 1.474092e-12 -5.306425e-13))
4.709811      	((1.553750e-06 4.521961e-12 -2.361403e-11) (2.963886e-06 -1.938547e-11 -1.915454e-11)) ((5.838369e-15 -1.186689e-14 -3.777245e-15) (1.888135e-13 1.651764e-12 -8.218321e-13))
5.663773      	((1.428074e-06 -3.803761e-11 -5.566474e-11) (2.717843e-06 -1.757393e-11 -1.600406e-11)) ((8.375705e-15 -1.356363e-14 -3.365281e-15) (1.945921e-13 1.551120e-12 -9.336228e-13))
6.808528      	((1.313295e-06 -7.265057e-11 -8.664694e-11) (2.496692e-06 -1.771070e-11 -1.380108e-11)) ((7.548529e-15 -1.520237e-14 -1.626360e-15) (1.954407e-13 1.430228e-12 -1.025671e-12))
8.182233      	((1.208531e-06 -8.523936e-11 -8.305247e-11) (2.298174e-06 -1.466041e-11 -1.439856e-11)) ((7.277482e-15 -1.586141e-14 3.978663e-16) (1.407690e-13 1.599564e-12 -1.170029e-12))
9.83068       	((1.113340e-06 -5.611212e-11 -5.198678e-11) (2.119781e-06 -9.613611e-12 -1.115685e-11)) ((7.252366e-15 -1.622339e-14 5.640333e-16) (8.464978e-14 2.165192e-12 -1.558874e-12))
11.808816     	((1.026313e-06 -4.196003e-11 -4.827392e-11) (1.958971e-06 -8.506265e-12 -8.483065e-12)) ((6.285560e-15 -1.490895e-14 4.070431e-16) (7.063111e-14 3.105011e-12 -2.306166e-12))
14.182579     	((9.470121e-07 -7.860983e-11 -8.289897e-11) (1.813420e-06 -9.000511e-12 -6.445916e-12)) ((5.518954e-15 -1.591228e-14 6.523702e-16) (1.042943e-13 4.431943e-12 -3.636540e-12))
17.031095     	((8.750274e-07 -6.937335e-11 -7.188266e-11) (1.681223e-06 -1.074722e-11 -9.624568e-12)) ((6.168574e-15 -1.615730e-14 -1.296731e-15) (1.243062e-13 6.227704e-12 -5.525219e-12))
20.449314     	((8.096838e-07 -1.270004e-10 -1.414408e-10) (1.560922e-06 -1.592058e-11 -1.769168e-11)) ((6.998922e-15 -1.759877e-14 -2.143964e-15) (1.148817e-13 8.034966e-12 -7.450549e-12))
24.551176     	((7.505879e-07 -1.788645e-10 -1.939652e-10) (1.451429e-06 -2.251837e-11 -2.515326e-11)) ((7.448917e-15 -1.807382e-14 -3.429957e-15) (1.268868e-13 9.442306e-12 -8.938568e-12))
29.473411     	((6.975258e-07 -1.236843e-10 -1.372489e-10) (1.351950e-06 -2.731327e-11 -2.805234e-11)) ((8.592280e-15 -1.446220e-14 -4.181000e-15) (1.761864e-13 1.032573e-11 -1.003911e-11))
35.380094     	((6.499885e-07 -1.181022e-10 -1.163043e-10) (1.261813e-06 -3.064135e-11 -2.980381e-11)) ((7.871077e-15 -1.083651e-14 -2.798287e-15) (1.914855e-13 1.093978e-11 -1.089116e-11))
42.468112     	((6.078020e-07 -7.667219e-11 -7.666051e-11) (1.180306e-06 -3.409732e-11 -3.345680e-11)) ((8.286882e-15 -8.582139e-15 -1.663196e-15) (1.949112e-13 1.204299e-11 -1.205945e-11))
50.973735     	((5.705668e-07 -4.363768e-11 -4.514007e-11) (1.106741e-06 -3.875561e-11 -3.684018e-11)) ((8.945851e-15 -7.341610e-15 -1.626163e-15) (1.595756e-13 1.384948e-11 -1.390321e-11))
61.180482     	((5.380443e-07 -1.456693e-11 -1.656609e-11) (1.040463e-06 -4.375144e-11 -3.951026e-11)) ((8.674451e-15 -6.679995e-15 -1.646564e-15) (1.204837e-13 1.634313e-11 -1.640730e-11))
73.428578     	((5.099722e-07 1.764575e-11 1.936265e-11) (9.808128e-07 -5.058611e-11 -4.425868e-11)) ((7.784529e-15 -6.117315e-15 -1.823953e-15) (9.868053e-14 1.966373e-11 -1.965571e-11))
88.126294     	((4.860411e-07 3.178653e-11 4.116311e-11) (9.272121e-07 -5.933494e-11 -5.396364e-11)) ((7.344343e-15 -5.490326e-15 -2.135357e-15) (6.595588e-14 2.369077e-11 -2.359727e-11))
105.763553    	((4.661840e-07 7.262974e-11 8.225419e-11) (8.791625e-07 -7.015276e-11 -6.480287e-11)) ((7.045999e-15 -4.569021e-15 -2.736400e-15) (5.502503e-14 2.807429e-11 -2.794580e-11))
126.928263    	((4.501378e-07 9.882482e-11 9.430675e-11) (8.362617e-07 -8.011168e-11 -7.724625e-11)) ((6.557532e-15 -3.659440e-15 -3.713284e-15) (3.776409e-14 3.241848e-11 -3.237206e-11))
152.325916    	((4.375382e-07 1.269922e-10 1.123140e-10) (7.981974e-07 -8.928091e-11 -8.929919e-11)) ((6.161049e-15 -2.211345e-15 -4.080237e-15) (3.024509e-14 3.641917e-11 -3.646925e-11))
182.803099    	((4.284294e-07 1.765583e-10 1.612321e-10) (7.647362e-07 -9.630573e-11 -9.809912e-11)) ((5.482442e-15 -2.258770e-16 -4.083345e-15) (1.840638e-14 3.984750e-11 -3.993435e-11))
219.375719    	((4.222299e-07 2.240254e-10 2.075178e-10) (7.356576e-07 -1.000062e-10 -1.034484e-10)) ((5.388035e-15 1.445710e-15 -4.081187e-15) (-2.237489e-16 4.251307e-11 -4.268570e-11))
263.262863    	((4.186634e-07 2.809623e-10 2.595596e-10) (7.107608e-07 -9.941734e-11 -1.040893e-10)) ((5.120895e-15 2.693109e-15 -3.993821e-15) (-8.654110e-16 4.438082e-11 -4.459756e-11))
315.927436    	((4.171900e-07 3.261316e-10 3.096236e-10) (6.898027e-07 -9.393125e-11 -9.958652e-11)) ((4.921137e-15 3.649623e-15 -3.809687e-15) (-2.156548e-14 4.536972e-11 -4.565348e-11))
379.124923    	((4.172126e-07 3.715773e-10 3.645741e-10) (6.724490e-07 -8.271163e-11 -8.814222e-11)) ((4.544997e-15 4.323690e-15 -3.662022e-15) (-4.683241e-14 4.546390e-11 -4.582532e-11))
454.482902    	((4.179498e-07 4.166104e-10 4.088031e-10) (6.582868e-07 -6.652960e-11 -7.144679e-11)) ((4.355010e-15 4.569868e-15 -3.336707e-15) (-6.289999e-14 4.465633e-11 -4.501487e-11))
541.984791    	((4.188488e-07 4.525484e-10 4.416236e-10) (6.468571e-07 -4.546555e-11 -5.066138e-11)) ((4.148175e-15 4.685410e-15 -3.103617e-15) (-8.303402e-14 4.300565e-11 -4.338721e-11))
641.625766    	((4.193838e-07 4.695516e-10 4.588294e-10) (6.376260e-07 -2.079154e-11 -2.638741e-11)) ((3.883999e-15 4.729321e-15 -2.853212e-15) (-9.540741e-14 4.074159e-11 -4.115594e-11))
753.412954    	((4.195500e-07 4.648736e-10 4.566430e-10) (6.301487e-07 5.031404e-12 -7.054848e-13)) ((3.705980e-15 4.610086e-15 -2.597527e-15) (-9.634253e-14 3.811899e-11 -3.857384e-11))
875.005964    	((4.195221e-07 4.482397e-10 4.394714e-10) (6.240834e-07 3.005707e-11 2.400181e-11)) ((3.618454e-15 4.416217e-15 -2.354382e-15) (-9.137357e-14 3.537149e-11 -3.585460e-11))
996.73532     	((4.195189e-07 4.258947e-10 4.169347e-10) (6.192032e-07 5.269332e-11 4.663040e-11)) ((3.575221e-15 4.286806e-15 -2.143373e-15) (-8.879207e-14 3.265582e-11 -3.315625e-11))
1118.58286    	((4.194071e-07 3.962070e-10 3.875602e-10) (6.152449e-07 7.144996e-11 6.542094e-11)) ((3.499469e-15 3.983921e-15 -1.954851e-15) (-8.543555e-14 3.003918e-11 -3.054396e-11))
1240.52978    	((4.193091e-07 3.628389e-10 3.536474e-10) (6.120524e-07 8.522399e-11 7.929772e-11)) ((3.452398e-15 3.751079e-15 -1.870804e-15) (-8.233552e-14 2.758796e-11 -2.811233e-11))
1362.55997    	((4.191989e-07 3.265548e-10 3.167989e-10) (6.094664e-07 9.486008e-11 8.923775e-11)) ((3.454071e-15 3.292434e-15 -1.755422e-15) (-8.045470e-14 2.526742e-11 -2.582901e-11))
1484.660623   	((4.191031e-07 2.903667e-10 2.802701e-10) (6.073755e-07 1.003968e-10 9.491316e-11)) ((3.462228e-15 3.117801e-15 -1.657928e-15) (-8.019407e-14 2.314916e-11 -2.373801e-11))
1606.820662   	((4.190084e-07 2.544204e-10 2.438565e-10) (6.056804e-07 1.025044e-10 9.708801e-11)) ((3.469373e-15 2.964281e-15 -1.500071e-15) (-8.127846e-14 2.122211e-11 -2.183850e-11))
1729.030539   	((4.189282e-07 2.205544e-10 2.095880e-10) (6.043071e-07 1.022323e-10 9.686392e-11)) ((3.459968e-15 2.649664e-15 -1.458409e-15) (-8.294344e-14 1.946741e-11 -2.010981e-11))
1851.281991   	((4.188571e-07 1.890085e-10 1.777557e-10) (6.031928e-07 9.997471e-11 9.454574e-11)) ((3.462472e-15 2.308339e-15 -1.407102e-15) (-8.496642e-14 1.789638e-11 -1.855887e-11))
1973.568041   	((4.187958e-07 1.604276e-10 1.488358e-10) (6.022890e-07 9.615301e-11 9.065907e-11)) ((3.474435e-15 2.069793e-15 -1.344816e-15) (-8.669475e-14 1.650884e-11 -1.719035e-11))
2095.882835   	((4.187433e-07 1.345614e-10 1.227771e-10) (6.015546e-07 9.137604e-11 8.582995e-11)) ((3.483200e-15 1.872732e-15 -1.285358e-15) (-8.840805e-14 1.528590e-11 -1.598356e-11))
2218.221524   	((4.186995e-07 1.116648e-10 9.971979e-11) (6.009577e-07 8.616554e-11 8.057576e-11)) ((3.496959e-15 1.696172e-15 -1.225426e-15) (-8.989014e-14 1.421238e-11 -1.492400e-11))
2340.580068   	((4.186621e-07 9.155009e-11 7.936935e-11) (6.004718e-07 8.071298e-11 7.507024e-11)) ((3.507863e-15 1.513231e-15 -1.175071e-15) (-9.105190e-14 1.327822e-11 -1.400029e-11))
2462.955085   	((4.186312e-07 7.418089e-11 6.175111e-11) (6.000761e-07 7.530386e-11 6.960092e-11)) ((3.518949e-15 1.381508e-15 -1.140900e-15) (-9.191246e-14 1.247059e-11 -1.320073e-11))
2585.343748   	((4.186053e-07 5.930459e-11 4.679823e-11) (5.997537e-07 7.002729e-11 6.429301e-11)) ((3.528177e-15 1.280270e-15 -1.104877e-15) (-9.248892e-14 1.177751e-11 -1.251545e-11))
2707.743701   	((4.185837e-07 4.676320e-11 3.409355e-11) (5.994908e-07 6.508019e-11 5.931068e-11)) ((3.535930e-15 1.200135e-15 -1.079051e-15) (-9.280162e-14 1.118515e-11 -1.192902e-11))
2830.152983   	((4.185657e-07 3.620189e-11 2.356925e-11) (5.992765e-07 6.053621e-11 5.471540e-11)) ((3.542782e-15 1.127791e-15 -1.060125e-15) (-9.308802e-14 1.068303e-11 -1.143066e-11))
2952.569966   	((4.185509e-07 2.738124e-11 1.469374e-11) (5.991016e-07 5.645961e-11 5.059867e-11)) ((3.547916e-15 1.064114e-15 -1.044133e-15) (-9.330416e-14 1.025777e-11 -1.100854e-11))
3074.993297   	((4.185386e-07 2.008450e-11 7.307765e-12) (5.989589e-07 5.285069e-11 4.695689e-11)) ((3.551389e-15 1.007866e-15 -1.027553e-15) (-9.345084e-14 9.899537e-12 -1.065259e-11))
3197.42186    	((4.185284e-07 1.407511e-11 1.212234e-12) (5.988423e-07 4.969321e-11 4.377681e-11)) ((3.553878e-15 9.614131e-16 -1.012815e-15) (-9.354261e-14 9.598758e-12 -1.035425e-11))
3319.854726   	((4.185198e-07 9.161555e-12 -3.770414e-12) (5.987470e-07 4.697054e-11 4.103209e-11)) ((3.554679e-15 9.263032e-16 -1.001132e-15) (-9.363809e-14 9.347751e-12 -1.010486e-11))
3442.291127   	((4.185128e-07 5.128275e-12 -7.804198e-12) (5.986691e-07 4.464219e-11 3.868074e-11)) ((3.555955e-15 8.986302e-16 -9.903299e-16) (-9.368014e-14 9.139072e-12 -9.897072e-12))
3564.73043    	((4.185071e-07 1.840379e-12 -1.111006e-11) (5.986055e-07 4.267581e-11 3.669746e-11)) ((3.557683e-15 8.757450e-16 -9.818521e-16) (-9.368361e-14 8.965538e-12 -9.724377e-12))
3687.172113   	((4.185023e-07 -8.487684e-13 -1.379997e-11) (5.985535e-07 4.102487e-11 3.503587e-11)) ((3.558664e-15 8.553105e-16 -9.757665e-16) (-9.367426e-14 8.821740e-12 -9.581347e-12))
3809.615746   	((4.184983e-07 -2.998303e-12 -1.595637e-11) (5.985109e-07 3.965254e-11 3.365524e-11)) ((3.559412e-15 8.402208e-16 -9.705496e-16) (-9.365800e-14 8.702799e-12 -9.463047e-12))
3932.060975   	((4.184950e-07 -4.745339e-12 -1.775014e-11) (5.984761e-07 3.851807e-11 3.251422e-11)) ((3.560027e-15 8.273903e-16 -9.664787e-16) (-9.363226e-14 8.604686e-12 -9.365472e-12))
4054.507509   	((4.184924e-07 -6.193421e-12 -1.921639e-11) (5.984476e-07 3.758560e-11 3.157221e-11)) ((3.560252e-15 8.171676e-16 -9.630195e-16) (-9.359996e-14 8.523897e-12 -9.285060e-12))
4176.955112   	((4.184902e-07 -7.345501e-12 -2.043111e-11) (5.984243e-07 3.682561e-11 3.080347e-11)) ((3.560667e-15 8.085641e-16 -9.594583e-16) (-9.357133e-14 8.457423e-12 -9.218814e-12))
4299.403587   	((4.184881e-07 -8.308830e-12 -2.135692e-11) (5.984053e-07 3.620531e-11 3.017972e-11)) ((3.560862e-15 8.018665e-16 -9.567992e-16) (-9.354433e-14 8.402694e-12 -9.164322e-12))
4421.852777   	((4.184867e-07 -9.091242e-12 -2.213564e-11) (5.983897e-07 3.570330e-11 2.967366e-11)) ((3.561190e-15 7.960067e-16 -9.543147e-16) (-9.351890e-14 8.357728e-12 -9.119472e-12))
4544.302549   	((4.184854e-07 -9.747524e-12 -2.277412e-11) (5.983769e-07 3.529358e-11 2.926184e-11)) ((3.561334e-15 7.915174e-16 -9.525940e-16) (-9.349755e-14 8.320808e-12 -9.082648e-12))
4666.752799   	((4.184845e-07 -1.029421e-11 -2.328238e-11) (5.983665e-07 3.496167e-11 2.892721e-11)) ((3.561490e-15 7.875168e-16 -9.511504e-16) (-9.348149e-14 8.290376e-12 -9.052295e-12))
4789.203439   	((4.184838e-07 -1.075434e-11 -2.352153e-11) (5.983579e-07 3.469293e-11 2.865618e-11)) ((3.562033e-15 7.829302e-16 -9.499686e-16) (-9.347099e-14 8.265267e-12 -9.027267e-12))
4911.654399   	((4.184830e-07 -1.109821e-11 -2.409608e-11) (5.983509e-07 3.447472e-11 2.843139e-11)) ((3.561793e-15 7.809663e-16 -9.491296e-16) (-9.345637e-14 8.244584e-12 -9.006622e-12))
5034.10562    	((4.184825e-07 -1.142031e-11 -2.440213e-11) (5.983452e-07 3.429563e-11 2.825297e-11)) ((3.561782e-15 7.786094e-16 -9.484223e-16) (-9.344588e-14 8.227517e-12 -8.989582e-12))
5156.557055   	((4.184820e-07 -1.171871e-11 -2.447699e-11) (5.983405e-07 3.414914e-11 2.810537e-11)) ((3.562756e-15 7.769784e-16 -9.475216e-16) (-9.343726e-14 8.213400e-12 -8.975482e-12))
5279.008666   	((4.184817e-07 -1.188855e-11 -2.485768e-11) (5.983366e-07 3.402989e-11 2.797983e-11)) ((3.562074e-15 7.749966e-16 -9.471612e-16) (-9.342910e-14 8.201747e-12 -8.963866e-12))
5401.460421   	((4.184814e-07 -1.207942e-11 -2.504390e-11) (5.983335e-07 3.392987e-11 2.788192e-11)) ((3.561980e-15 7.735202e-16 -9.468660e-16) (-9.342370e-14 8.192137e-12 -8.954253e-12))
5523.912295   	((4.184813e-07 -1.222876e-11 -2.519774e-11) (5.983309e-07 3.384764e-11 2.779905e-11)) ((3.561955e-15 7.722066e-16 -9.465698e-16) (-9.341906e-14 8.184191e-12 -8.946288e-12))
5646.364266   	((4.184811e-07 -1.236470e-11 -2.530019e-11) (5.983288e-07 3.377868e-11 2.773141e-11)) ((3.562006e-15 7.712542e-16 -9.463016e-16) (-9.341482e-14 8.177619e-12 -8.939695e-12))
