# Forces      
# CofR        : (0.000000e+00 0.000000e+00 0.000000e+00)
# Time        forces(pressure viscous)	moments(pressure viscous)
0             	((0.000000e+00 0.000000e+00 0.000000e+00) (0.000000e+00 0.000000e+00 0.000000e+00)) ((0.000000e+00 0.000000e+00 0.000000e+00) (0.000000e+00 0.000000e+00 0.000000e+00))
0.012         	((6.777673e-13 -1.133946e-12 -2.725186e-10) (7.356012e-16 -5.980158e-15 -5.723852e-12)) ((1.229811e-16 -1.060047e-11 5.625080e-18) (-1.419340e-17 -7.002895e-09 4.139080e-16))
0.0264        	((-1.139090e-12 1.204002e-12 1.024582e-10) (9.456062e-16 -1.692417e-14 -9.953323e-12)) ((2.610349e-17 -5.305729e-12 -5.160111e-16) (-1.904109e-16 -6.414104e-09 5.843384e-16))
0.04368       	((-3.985178e-12 -6.526326e-12 -9.492470e-11) (-1.020066e-14 -1.268161e-14 -1.078899e-11)) ((-9.626020e-17 -2.925722e-12 -3.356834e-16) (3.195013e-16 -5.809028e-09 8.410795e-16))
0.064416      	((1.149028e-12 1.798623e-12 -3.573645e-12) (-3.170889e-14 9.407707e-15 -8.920253e-12)) ((-1.970982e-18 -1.664783e-12 2.351766e-17) (1.075408e-15 -5.200869e-09 1.092784e-15))
0.0892992     	((-3.434327e-12 -2.015358e-12 -1.190533e-11) (-4.685656e-14 3.200337e-14 -7.414849e-12)) ((2.497534e-17 -1.235702e-12 2.509204e-18) (1.473125e-15 -4.607352e-09 1.124206e-15))
0.119159      	((1.384892e-12 5.377875e-13 -3.171634e-12) (-5.668798e-14 5.565381e-14 -6.285739e-12)) ((-1.736408e-17 -8.861769e-13 5.166302e-18) (1.975818e-15 -4.046731e-09 1.285453e-15))
0.154991      	((1.136577e-12 1.285801e-12 7.775972e-12) (-6.607302e-14 8.699292e-14 -5.061118e-12)) ((1.548420e-17 -6.998862e-13 -5.349173e-17) (2.624447e-15 -3.531917e-09 1.584363e-15))
0.197989      	((8.871463e-13 8.678419e-13 -8.435110e-13) (-7.001854e-14 1.123551e-13 -3.949825e-12)) ((2.324061e-17 -5.561630e-13 -5.373231e-17) (2.951837e-15 -3.075497e-09 1.821128e-15))
0.249587      	((-8.303461e-14 8.872228e-13 7.533830e-12) (-6.850588e-14 1.265119e-13 -3.117272e-12)) ((3.669717e-17 -4.583574e-13 1.023721e-17) (2.882909e-15 -2.684284e-09 1.580879e-15))
0.311504      	((1.102366e-13 -2.168756e-13 1.442854e-12) (-6.317373e-14 1.372590e-13 -2.425674e-12)) ((3.021970e-17 -3.814395e-13 5.435820e-17) (2.727867e-15 -2.357346e-09 1.075663e-15))
0.385805      	((4.879648e-13 -7.564288e-13 -1.701294e-14) (-5.911210e-14 1.411350e-13 -1.858048e-12)) ((9.064789e-18 -3.269571e-13 8.657063e-17) (2.668244e-15 -2.087636e-09 8.458098e-16))
0.474966      	((9.449385e-13 2.056848e-13 -1.589125e-12) (-4.926889e-14 1.503746e-13 -1.319031e-12)) ((8.001342e-18 -2.911558e-13 6.895897e-17) (2.539283e-15 -1.864541e-09 2.555728e-16))
0.581959      	((1.550905e-12 8.650316e-13 1.618114e-12) (-3.369073e-14 1.570307e-13 -8.685424e-13)) ((1.550236e-17 -2.607415e-13 2.530571e-17) (2.462055e-15 -1.677023e-09 -5.702505e-16))
0.710351      	((2.213559e-12 1.216440e-12 -3.731369e-12) (-3.810387e-14 1.120463e-13 -7.747522e-13)) ((3.822552e-17 -2.314680e-13 2.363030e-17) (1.931563e-15 -1.515942e-09 1.020585e-16))
0.864421      	((2.334329e-12 1.025403e-12 -1.800161e-12) (-4.888466e-14 -1.301670e-14 -7.316322e-13)) ((5.322788e-17 -2.117275e-13 -3.494845e-17) (7.686994e-16 -1.374819e-09 1.971873e-15))
1.049306      	((3.517547e-12 9.775655e-13 1.561744e-13) (-8.168610e-14 -1.259491e-13 -4.676920e-13)) ((7.834710e-17 -1.991547e-13 -2.924245e-17) (-7.175260e-16 -1.249388e-09 3.085965e-15))
1.271167      	((4.522229e-12 8.064139e-13 -3.649783e-12) (-1.483932e-13 -1.810470e-13 -2.055982e-13)) ((3.146148e-17 -1.862649e-13 -5.791497e-17) (-2.825353e-15 -1.136779e-09 2.344423e-15))
1.5374        	((4.529357e-12 -3.540985e-13 -4.374797e-12) (-2.522168e-13 -2.016880e-13 1.403919e-13)) ((-5.552321e-17 -1.712853e-13 -8.884485e-17) (-5.674065e-15 -1.035124e-09 3.998475e-16))
1.85688       	((4.411118e-12 5.334085e-13 -2.967492e-12) (-3.789219e-13 -2.218383e-13 6.741173e-13)) ((-1.064685e-16 -1.580968e-13 -3.970864e-17) (-9.848007e-15 -9.434092e-10 -3.564101e-15))
2.240256      	((4.191276e-12 2.559541e-13 -3.754278e-12) (-5.605270e-13 -1.827778e-13 1.017054e-12)) ((-1.109819e-16 -1.496009e-13 -2.683398e-17) (-1.365536e-14 -8.611113e-10 -8.819970e-15))
2.700307      	((3.998492e-12 4.696362e-14 -3.212496e-12) (-8.767420e-13 -1.166885e-13 1.207738e-12)) ((-1.011928e-16 -1.434557e-13 -3.644029e-17) (-1.983798e-14 -7.878594e-10 -1.975033e-14))
3.252369      	((2.997513e-12 2.678953e-13 -2.127592e-12) (-1.283984e-12 -6.439940e-14 1.879669e-12)) ((-1.200886e-16 -1.373056e-13 -5.852621e-17) (-2.798208e-14 -7.231544e-10 -3.307392e-14))
3.914842      	((1.319057e-12 2.572147e-13 -6.371091e-13) (-1.681478e-12 9.393076e-15 2.964318e-12)) ((-5.948673e-17 -1.301567e-13 -9.855455e-17) (-3.381630e-14 -6.662414e-10 -3.956044e-14))
4.709811      	((5.923569e-13 1.430880e-14 4.803402e-13) (-2.116468e-12 1.075843e-13 3.385536e-12)) ((-7.514910e-17 -1.222018e-13 -7.992406e-17) (-3.861509e-14 -6.160636e-10 -4.474128e-14))
5.663773      	((-3.562112e-14 2.056505e-13 -8.942680e-13) (-2.379199e-12 1.044162e-13 3.171882e-12)) ((-7.248689e-17 -1.135445e-13 -2.506326e-17) (-4.098824e-14 -5.714428e-10 -4.538317e-14))
6.808528      	((-6.264590e-13 3.131661e-13 -2.164770e-13) (-2.360321e-12 3.920615e-14 3.070100e-12)) ((-7.775737e-17 -1.047213e-13 3.884730e-17) (-3.935730e-14 -5.313306e-10 -4.107023e-14))
8.182233      	((-8.908382e-13 -1.012675e-14 1.365997e-13) (-2.186345e-12 5.641669e-14 2.820616e-12)) ((-7.157391e-17 -9.613767e-14 2.720927e-17) (-3.456359e-14 -4.949144e-10 -3.766863e-14))
9.83068       	((-8.798163e-13 3.836743e-13 -2.011522e-13) (-1.889390e-12 8.595264e-14 2.158331e-12)) ((-4.876122e-17 -8.733131e-14 2.910554e-17) (-2.829473e-14 -4.615790e-10 -3.279318e-14))
11.808816     	((4.642486e-14 1.586880e-13 -8.504735e-13) (-1.478321e-12 -6.505706e-15 1.346467e-12)) ((-5.122636e-17 -7.940249e-14 5.325180e-17) (-2.280784e-14 -4.308964e-10 -2.482658e-14))
14.182579     	((2.038451e-13 1.508925e-13 -1.194879e-12) (-1.055296e-12 -1.986454e-13 9.139321e-13)) ((-3.572935e-17 -7.216540e-14 6.988853e-17) (-1.781628e-14 -4.026214e-10 -1.359643e-14))
17.031095     	((3.503544e-13 2.210494e-13 -9.673095e-13) (-7.144097e-13 -2.499964e-13 6.195841e-13)) ((-1.480914e-18 -6.594149e-14 8.126662e-17) (-1.231631e-14 -3.766264e-10 -6.330666e-15))
20.449314     	((3.453718e-13 8.024581e-14 -1.209619e-12) (-4.540972e-13 -1.667431e-13 3.743234e-13)) ((-9.806770e-19 -6.043294e-14 9.464791e-17) (-7.252747e-15 -3.528280e-10 -4.192135e-15))
24.551176     	((3.671309e-13 -4.936257e-14 -1.150050e-12) (-2.889077e-13 -8.975370e-14 3.185191e-13)) ((-4.157656e-19 -5.552184e-14 9.844458e-17) (-3.896991e-15 -3.310819e-10 -3.225847e-15))
29.473411     	((3.054956e-13 1.569468e-14 -1.262716e-12) (-1.998270e-13 -4.349355e-14 3.898118e-13)) ((1.228053e-17 -5.141796e-14 9.098371e-17) (-2.583502e-15 -3.112353e-10 -2.548770e-15))
35.380094     	((4.953219e-13 2.357650e-15 -1.143052e-12) (-1.602085e-13 1.515342e-15 4.658153e-13)) ((1.166521e-17 -4.777617e-14 8.729861e-17) (-1.869306e-15 -2.931260e-10 -2.072647e-15))
42.468112     	((3.511877e-13 -1.825992e-14 -1.007967e-12) (-1.596738e-13 2.438142e-14 4.967456e-13)) ((6.872948e-18 -4.464667e-14 6.831802e-17) (-1.716173e-15 -2.766003e-10 -2.316178e-15))
50.973735     	((2.670595e-13 -2.915774e-14 -8.563788e-13) (-1.787270e-13 4.178440e-14 4.606411e-13)) ((2.079294e-18 -4.186731e-14 5.455862e-17) (-2.049715e-15 -2.615337e-10 -3.307492e-15))
61.180482     	((3.499370e-13 -3.326462e-14 -7.947343e-13) (-1.916640e-13 5.098224e-14 4.079714e-13)) ((6.567610e-18 -3.936836e-14 4.914638e-17) (-3.025263e-15 -2.478171e-10 -5.044415e-15))
73.428578     	((2.039810e-13 -3.301873e-14 -6.045831e-13) (-2.158128e-13 4.476165e-14 3.784057e-13)) ((1.257149e-17 -3.713227e-14 4.061857e-17) (-4.039528e-15 -2.353618e-10 -5.969375e-15))
88.126294     	((1.718323e-13 -8.656350e-16 -7.052155e-13) (-2.465509e-13 4.570396e-14 4.018514e-13)) ((1.583851e-17 -3.512532e-14 2.570573e-17) (-4.749661e-15 -2.240734e-10 -6.766148e-15))
105.763553    	((8.828659e-14 8.817199e-16 -5.801558e-13) (-2.804751e-13 4.305850e-14 4.360099e-13)) ((2.201812e-17 -3.321943e-14 1.672639e-17) (-5.367560e-15 -2.138619e-10 -7.650006e-15))
126.928263    	((5.519441e-14 2.805270e-14 -5.129852e-13) (-3.101761e-13 4.348610e-14 4.278268e-13)) ((2.623445e-17 -3.148979e-14 1.211687e-17) (-5.343488e-15 -2.046321e-10 -8.161177e-15))
152.325916    	((2.576145e-14 3.079320e-14 -3.483996e-13) (-3.095543e-13 3.865749e-14 4.242825e-13)) ((2.367902e-17 -2.995725e-14 1.056794e-17) (-5.347892e-15 -1.962860e-10 -8.360381e-15))
182.803099    	((-2.703504e-14 3.324132e-14 -2.267979e-13) (-2.914044e-13 3.848146e-14 4.349199e-13)) ((1.996367e-17 -2.855944e-14 1.172254e-17) (-5.567659e-15 -1.887245e-10 -8.532470e-15))
219.375719    	((-3.237703e-14 1.511428e-14 -1.668294e-13) (-2.636497e-13 3.283880e-14 4.881970e-13)) ((2.066049e-17 -2.729909e-14 1.079663e-17) (-5.757547e-15 -1.818571e-10 -8.486361e-15))
263.262863    	((-4.027735e-14 1.674112e-14 -2.154165e-14) (-2.559659e-13 2.404558e-14 5.975298e-13)) ((1.977993e-17 -2.615134e-14 9.264547e-18) (-6.107931e-15 -1.756108e-10 -8.147082e-15))
315.927436    	((-7.709223e-14 1.333693e-14 2.248855e-14) (-2.543634e-13 1.316048e-14 6.885239e-13)) ((1.362007e-17 -2.511416e-14 6.198168e-18) (-6.581974e-15 -1.699260e-10 -8.005829e-15))
379.124923    	((-1.113084e-13 1.548457e-14 8.897530e-14) (-2.539502e-13 1.073631e-14 7.659795e-13)) ((9.406996e-18 -2.416703e-14 1.762962e-18) (-6.841281e-15 -1.647575e-10 -7.983087e-15))
454.961908    	((-5.624627e-14 1.078814e-14 1.356187e-13) (-2.533157e-13 8.896543e-15 8.182914e-13)) ((6.508284e-18 -2.330212e-14 -1.920156e-18) (-6.805001e-15 -1.600701e-10 -7.724558e-15))
545.966289    	((-4.959991e-14 1.013614e-15 1.105480e-13) (-2.553474e-13 1.032113e-14 8.530500e-13)) ((3.843558e-18 -2.250201e-14 -4.135359e-18) (-6.550605e-15 -1.558309e-10 -7.419632e-15))
655.171547    	((-6.917308e-14 1.200377e-14 1.138289e-13) (-2.572094e-13 6.686944e-15 8.641892e-13)) ((1.811435e-18 -2.178300e-14 -5.530462e-18) (-6.287937e-15 -1.520092e-10 -6.920742e-15))
786.217856    	((-9.510212e-14 1.992941e-14 9.645329e-14) (-2.519492e-13 6.187920e-15 8.626030e-13)) ((3.050149e-20 -2.113220e-14 -6.462324e-18) (-5.923553e-15 -1.485791e-10 -6.546085e-15))
943.473427    	((-8.612826e-14 4.324887e-16 2.606824e-14) (-2.460071e-13 9.855082e-15 8.433483e-13)) ((-9.673087e-20 -2.055954e-14 -5.024757e-18) (-5.621708e-15 -1.455153e-10 -6.277356e-15))
1132.180113   	((-8.587812e-14 -3.844425e-15 9.716425e-15) (-2.365290e-13 1.073256e-14 8.242208e-13)) ((-1.308252e-18 -2.005865e-14 -2.711356e-18) (-5.298028e-15 -1.427916e-10 -5.945823e-15))
1358.628135   	((-7.795018e-14 -3.255324e-15 8.799628e-15) (-2.274757e-13 9.392350e-15 8.001806e-13)) ((-1.965552e-18 -1.961040e-14 -1.292109e-18) (-5.022761e-15 -1.403840e-10 -5.563860e-15))
1630.365763   	((-1.037054e-13 -5.114637e-15 1.963719e-15) (-2.163781e-13 7.738954e-15 7.750543e-13)) ((-2.539220e-18 -1.921355e-14 1.141335e-18) (-4.723463e-15 -1.382676e-10 -5.207956e-15))
1956.450915   	((-1.059906e-13 -3.090447e-15 1.343240e-14) (-2.069268e-13 3.316602e-15 7.576874e-13)) ((-1.850851e-18 -1.886821e-14 3.881612e-18) (-4.460955e-15 -1.364183e-10 -4.826028e-15))
2347.753098   	((-9.949078e-14 -2.319479e-15 2.455315e-14) (-1.998186e-13 -2.315795e-15 7.477057e-13)) ((-1.983471e-18 -1.856783e-14 4.615827e-18) (-4.225578e-15 -1.348117e-10 -4.442093e-15))
2817.315718   	((-8.569302e-14 -3.980355e-15 2.632176e-14) (-1.937601e-13 -7.831380e-15 7.377491e-13)) ((-2.723156e-18 -1.831169e-14 3.483685e-18) (-4.014151e-15 -1.334244e-10 -4.082135e-15))
3380.790861   	((-7.618927e-14 -4.179885e-15 2.212409e-14) (-1.875482e-13 -1.159407e-14 7.286621e-13)) ((-2.569708e-18 -1.809550e-14 2.101860e-18) (-3.770266e-15 -1.322346e-10 -3.720996e-15))
4056.961033   	((-7.985681e-14 -7.524023e-16 1.377609e-14) (-1.805040e-13 -1.490653e-14 7.229655e-13)) ((-2.357033e-18 -1.791100e-14 7.310381e-19) (-3.560208e-15 -1.312216e-10 -3.430598e-15))
4868.36524    	((-8.681527e-14 -1.115331e-15 6.912120e-15) (-1.739163e-13 -1.720870e-14 7.167428e-13)) ((-2.888374e-18 -1.775533e-14 2.018169e-19) (-3.392212e-15 -1.303652e-10 -3.234805e-15))
5842.050288   	((-9.819107e-14 1.566252e-15 2.539781e-14) (-1.648499e-13 -1.780547e-14 7.097253e-13)) ((-3.973287e-18 -1.762249e-14 4.632833e-19) (-3.206068e-15 -1.296464e-10 -3.136276e-15))
7010.472346   	((-1.196117e-13 5.903180e-15 8.283865e-14) (-1.510228e-13 -1.708965e-14 7.039691e-13)) ((-4.663612e-18 -1.750755e-14 1.099621e-18) (-3.027565e-15 -1.290474e-10 -3.082655e-15))
8412.578815   	((-1.187310e-13 1.120555e-14 1.037947e-13) (-1.408606e-13 -1.632033e-14 6.989848e-13)) ((-5.376921e-18 -1.741538e-14 1.864800e-18) (-2.881247e-15 -1.285520e-10 -3.010570e-15))
10095.106578  	((-1.194458e-13 1.641636e-14 1.168722e-13) (-1.335233e-13 -1.549908e-14 6.956400e-13)) ((-5.995244e-18 -1.734029e-14 2.386924e-18) (-2.793633e-15 -1.281450e-10 -2.916400e-15))
12114.139893  	((-1.217024e-13 2.344245e-14 1.234062e-13) (-1.274285e-13 -1.456398e-14 6.939526e-13)) ((-6.678015e-18 -1.727895e-14 2.845327e-18) (-2.729210e-15 -1.278129e-10 -2.818371e-15))
14536.979872  	((-1.259029e-13 3.008415e-14 1.280072e-13) (-1.221306e-13 -1.390003e-14 6.931277e-13)) ((-7.113819e-18 -1.722890e-14 3.271314e-18) (-2.686329e-15 -1.275434e-10 -2.724874e-15))
17444.387847  	((-1.318454e-13 3.713256e-14 1.337264e-13) (-1.176390e-13 -1.367758e-14 6.932474e-13)) ((-7.354710e-18 -1.718830e-14 3.634735e-18) (-2.655724e-15 -1.273258e-10 -2.637740e-15))
20933.277416  	((-1.387421e-13 4.460412e-14 1.407744e-13) (-1.138477e-13 -1.356333e-14 6.940064e-13)) ((-7.564469e-18 -1.715571e-14 3.923623e-18) (-2.626486e-15 -1.271510e-10 -2.559051e-15))
25119.944899  	((-1.462040e-13 5.230991e-14 1.499499e-13) (-1.108976e-13 -1.360673e-14 6.948302e-13)) ((-7.725521e-18 -1.712960e-14 4.120690e-18) (-2.603845e-15 -1.270112e-10 -2.491299e-15))
30143.945879  	((-1.543550e-13 6.132019e-14 1.614236e-13) (-1.085656e-13 -1.360569e-14 6.954462e-13)) ((-7.874740e-18 -1.710875e-14 4.250044e-18) (-2.590954e-15 -1.268997e-10 -2.435106e-15))
36172.747055  	((-1.635951e-13 7.174541e-14 1.767040e-13) (-1.067107e-13 -1.352506e-14 6.958473e-13)) ((-8.000009e-18 -1.709232e-14 4.317183e-18) (-2.586942e-15 -1.268112e-10 -2.390916e-15))
43407.308466  	((-1.747369e-13 8.414403e-14 1.970699e-13) (-1.053932e-13 -1.322392e-14 6.961112e-13)) ((-8.128904e-18 -1.707933e-14 4.303690e-18) (-2.594224e-15 -1.267410e-10 -2.355158e-15))
52088.782159  	((-1.880476e-13 9.634121e-14 2.246465e-13) (-1.044234e-13 -1.290148e-14 6.959365e-13)) ((-8.374162e-18 -1.706905e-14 4.194129e-18) (-2.612821e-15 -1.266855e-10 -2.332345e-15))
62506.550591  	((-1.975842e-13 1.171588e-13 2.634576e-13) (-1.027714e-13 -1.227130e-14 6.950488e-13)) ((-8.900712e-18 -1.706032e-14 3.400549e-18) (-2.660678e-15 -1.266417e-10 -2.343797e-15))
74961.724246  	((-2.169122e-13 1.320346e-13 3.046302e-13) (-1.024938e-13 -1.214131e-14 6.952978e-13)) ((-9.063792e-18 -1.705391e-14 3.396293e-18) (-2.664629e-15 -1.266072e-10 -2.332635e-15))
89454.310113  	((-2.356590e-13 1.507992e-13 3.518080e-13) (-1.030081e-13 -1.176269e-14 6.956056e-13)) ((-9.150460e-18 -1.704885e-14 3.528777e-18) (-2.662588e-15 -1.265801e-10 -2.306762e-15))
105984.31358  	((-2.565831e-13 1.734868e-13 4.047256e-13) (-1.040760e-13 -1.135852e-14 6.960898e-13)) ((-9.304273e-18 -1.704429e-14 3.706602e-18) (-2.654745e-15 -1.265588e-10 -2.283779e-15))
124551.738788 	((-2.808247e-13 1.998280e-13 4.682940e-13) (-1.052001e-13 -1.094622e-14 6.964452e-13)) ((-9.574321e-18 -1.703974e-14 3.815987e-18) (-2.644772e-15 -1.265421e-10 -2.262474e-15))
144925.988091 	((-3.054268e-13 2.313152e-13 5.518944e-13) (-1.062200e-13 -1.083136e-14 6.970091e-13)) ((-1.024904e-17 -1.703519e-14 3.905571e-18) (-2.628105e-15 -1.265290e-10 -2.238115e-15))
165300.262212 	((-3.237557e-13 2.369242e-13 6.301069e-13) (-1.110437e-13 -1.160675e-14 6.964642e-13)) ((-8.576616e-18 -1.702102e-14 2.661574e-18) (-2.678215e-15 -1.265190e-10 -2.150155e-15))
185674.555087 	((-3.399488e-13 2.684244e-13 7.426355e-13) (-1.179165e-13 -1.139525e-14 6.952649e-13)) ((-1.277983e-17 -1.701159e-14 -1.002885e-18) (-2.587702e-15 -1.265114e-10 -1.999853e-15))
206048.861876 	((-3.184124e-13 2.888061e-13 8.722539e-13) (-1.152657e-13 -1.167898e-14 6.928725e-13)) ((-1.039901e-17 -1.700251e-14 7.317537e-19) (-2.599902e-15 -1.265055e-10 -1.863368e-15))
226423.179771 	((-2.824873e-13 3.252485e-13 9.755581e-13) (-1.107332e-13 -1.130921e-14 6.934055e-13)) ((-1.087455e-17 -1.699197e-14 5.010033e-18) (-2.666883e-15 -1.265011e-10 -2.002834e-15))
246797.507608 	((-1.941649e-13 3.233900e-13 1.131452e-12) (-1.073221e-13 -9.674082e-15 6.914960e-13)) ((-1.320811e-17 -1.697387e-14 4.502283e-18) (-2.678253e-15 -1.264978e-10 -2.081956e-15))
267171.845806 	((-1.462306e-13 3.109348e-13 1.259504e-12) (-1.054203e-13 -1.002957e-14 6.909302e-13)) ((-1.099834e-17 -1.695700e-14 5.906456e-18) (-2.627064e-15 -1.264950e-10 -2.069352e-15))
287546.193099 	((-7.544122e-14 3.078279e-13 1.354624e-12) (-1.049922e-13 -9.978666e-15 6.919313e-13)) ((-9.331944e-18 -1.695260e-14 7.054860e-18) (-2.625880e-15 -1.264924e-10 -2.092009e-15))
307920.550121 	((-6.848649e-14 2.740481e-13 1.380809e-12) (-1.021664e-13 -1.190245e-14 6.970380e-13)) ((-5.478695e-18 -1.693550e-14 6.858217e-18) (-2.637330e-15 -1.264897e-10 -2.085292e-15))
328294.916362 	((4.209785e-14 2.718305e-13 1.394413e-12) (-9.583265e-14 -1.460775e-14 7.002910e-13)) ((-6.000038e-18 -1.693166e-14 8.001962e-18) (-2.506191e-15 -1.264868e-10 -2.169452e-15))
348669.290722 	((1.597420e-13 2.520294e-13 1.369707e-12) (-9.131361e-14 -1.647399e-14 7.053713e-13)) ((-6.633657e-19 -1.692338e-14 7.758717e-18) (-2.523328e-15 -1.264840e-10 -2.119357e-15))
369043.672969 	((3.304471e-13 2.364878e-13 1.273635e-12) (-8.373765e-14 -1.878508e-14 7.042011e-13)) ((1.576557e-18 -1.691376e-14 6.896672e-18) (-2.568499e-15 -1.264813e-10 -2.060449e-15))
389418.062174 	((5.298147e-13 1.907612e-13 1.160851e-12) (-7.187414e-14 -1.766481e-14 6.973796e-13)) ((-1.758989e-18 -1.691095e-14 6.627257e-18) (-2.449420e-15 -1.264784e-10 -2.089123e-15))
409792.457471 	((7.162500e-13 1.404959e-13 1.019887e-12) (-6.373134e-14 -1.752085e-14 6.907789e-13)) ((-2.660402e-18 -1.690653e-14 5.736597e-18) (-2.399983e-15 -1.264755e-10 -2.173837e-15))
430166.85829  	((8.309679e-13 8.823397e-14 8.669621e-13) (-5.824884e-14 -1.748973e-14 6.865705e-13)) ((-3.262983e-18 -1.690301e-14 4.453998e-18) (-2.401139e-15 -1.264724e-10 -2.234046e-15))
450541.264136 	((8.668190e-13 3.412511e-14 7.088242e-13) (-5.763390e-14 -1.766216e-14 6.853322e-13)) ((-4.119676e-18 -1.689945e-14 3.663015e-18) (-2.332526e-15 -1.264692e-10 -2.274697e-15))
470915.674319 	((8.443398e-13 -1.344414e-14 5.692533e-13) (-6.080703e-14 -1.800288e-14 6.851540e-13)) ((-4.380691e-18 -1.689651e-14 2.477792e-18) (-2.290553e-15 -1.264662e-10 -2.291030e-15))
