# Forces      
# CofR        : (0.000000e+00 0.000000e+00 0.000000e+00)
# Time        forces(pressure viscous)	moments(pressure viscous)
0             	((0.000000e+00 0.000000e+00 0.000000e+00) (0.000000e+00 0.000000e+00 0.000000e+00)) ((0.000000e+00 0.000000e+00 0.000000e+00) (0.000000e+00 0.000000e+00 0.000000e+00))
0.012         	((1.758563e-12 -2.255233e-12 4.435212e-12) (-1.866074e-15 -4.234558e-15 -2.921906e-14)) ((-2.004016e-11 1.912896e-15 3.917082e-17) (-1.397254e-08 -1.532100e-15 6.425306e-16))
0.0264        	((-2.018005e-12 -3.944083e-12 8.009703e-12) (2.423252e-14 3.295161e-14 -2.540443e-14)) ((-9.886638e-12 1.500849e-15 -3.883860e-16) (-1.279798e-08 -2.643320e-15 6.357064e-16))
0.04368       	((8.797642e-12 5.905072e-12 9.346063e-12) (-1.022854e-14 1.009961e-13 -8.173123e-15)) ((-5.458369e-12 1.249448e-15 -4.343459e-16) (-1.159089e-08 -1.485625e-15 -1.089373e-15))
0.064416      	((-3.142355e-12 2.759420e-13 2.107745e-12) (-1.255119e-13 1.510301e-13 1.736467e-14)) ((-3.055883e-12 8.413262e-16 1.597900e-16) (-1.037757e-08 1.424237e-15 -2.870053e-15))
0.0892992     	((1.441996e-12 1.646060e-12 5.686118e-13) (-2.501477e-13 1.681490e-13 5.304179e-14)) ((-2.294819e-12 8.194669e-16 -1.142838e-16) (-9.193363e-09 4.293264e-15 -3.866939e-15))
0.119159      	((1.241660e-12 2.735951e-12 7.061606e-12) (-3.267418e-13 1.558265e-13 8.471242e-14)) ((-1.639081e-12 5.812513e-16 2.434510e-17) (-8.074783e-09 5.891000e-15 -4.130023e-15))
0.154991      	((-1.553343e-12 -3.457351e-12 -2.059844e-12) (-3.625067e-13 1.363140e-13 9.533836e-14)) ((-1.298593e-12 4.566496e-16 4.780912e-17) (-7.047597e-09 6.382520e-15 -3.632647e-15))
0.197989      	((-1.804367e-12 -4.688311e-13 2.110804e-12) (-3.967502e-13 1.133122e-13 9.419760e-14)) ((-1.031383e-12 2.059566e-16 3.834263e-17) (-6.136939e-09 6.261415e-15 -2.991631e-15))
0.249587      	((-6.424712e-13 -6.719319e-13 2.154474e-12) (-4.060269e-13 1.052387e-13 9.668006e-14)) ((-8.532061e-13 1.290331e-16 9.180097e-17) (-5.356353e-09 5.918668e-15 -2.727121e-15))
0.311504      	((-9.675235e-13 -1.788161e-12 2.585178e-12) (-3.763062e-13 1.105671e-13 8.008187e-14)) ((-7.121195e-13 1.735680e-16 2.454607e-17) (-4.703947e-09 5.295248e-15 -2.819668e-15))
0.385805      	((4.836193e-13 -2.299723e-12 3.552201e-12) (-3.385193e-13 1.015862e-13 6.573735e-14)) ((-6.123696e-13 1.829350e-16 -6.231916e-17) (-4.165682e-09 5.338488e-15 -2.815067e-15))
0.474966      	((5.168289e-13 -3.163630e-12 3.354745e-12) (-2.872865e-13 6.268616e-14 1.082616e-13)) ((-5.468746e-13 1.143278e-16 -1.003124e-16) (-3.720424e-09 7.069617e-15 -2.768080e-15))
0.581959      	((-2.178205e-12 -4.582601e-12 1.114126e-12) (-1.817780e-13 1.769947e-15 1.576597e-13)) ((-4.901695e-13 1.390160e-16 -1.532077e-16) (-3.346179e-09 8.819657e-15 -3.274006e-15))
0.710351      	((-2.571550e-12 -5.345862e-12 4.161360e-12) (-5.098172e-14 -6.300838e-15 1.587668e-13)) ((-4.331589e-13 1.792037e-16 -1.944216e-16) (-3.024720e-09 9.524955e-15 -4.620041e-15))
0.864421      	((-3.113830e-12 -6.639668e-12 2.614134e-12) (6.934979e-14 8.280480e-14 1.209267e-13)) ((-3.948417e-13 2.801540e-16 -2.150345e-16) (-2.743131e-09 8.832779e-15 -6.640745e-15))
1.049306      	((-1.975509e-12 -6.675335e-12 4.664317e-12) (1.546911e-13 1.716775e-13 5.789995e-14)) ((-3.694662e-13 3.048221e-16 -2.012313e-16) (-2.492846e-09 6.645113e-15 -7.894084e-15))
1.271167      	((-1.915735e-14 -8.521156e-12 5.782615e-12) (1.474006e-13 2.473392e-13 -3.258066e-14)) ((-3.441200e-13 2.607249e-16 -1.738592e-16) (-2.268142e-09 3.319740e-15 -9.811057e-15))
1.5374        	((8.728603e-13 -8.010870e-12 7.682986e-12) (6.743391e-14 3.760727e-13 -1.655877e-13)) ((-3.149210e-13 6.083575e-17 -1.276457e-16) (-2.065295e-09 1.294385e-15 -1.651210e-14))
1.85688       	((-9.446269e-13 -8.383457e-12 7.566081e-12) (9.832977e-14 6.373918e-13 -3.834162e-13)) ((-2.892721e-13 -2.369910e-18 -6.107968e-17) (-1.882279e-09 -4.559838e-15 -2.430339e-14))
2.240256      	((-1.411844e-13 -9.335875e-12 6.818951e-12) (1.073982e-13 1.042504e-12 -7.960676e-13)) ((-2.735347e-13 -1.137737e-16 3.798345e-17) (-1.718054e-09 -1.303393e-14 -3.531879e-14))
2.700307      	((-1.216848e-13 -8.461973e-12 5.389460e-12) (2.211851e-14 1.669161e-12 -1.457459e-12)) ((-2.627701e-13 -1.623782e-16 1.056086e-16) (-1.571884e-09 -2.394191e-14 -5.399693e-14))
3.252369      	((-1.737288e-13 -6.108089e-12 5.550435e-12) (1.186554e-13 2.548530e-12 -2.204670e-12)) ((-2.522365e-13 -2.502235e-16 1.800753e-16) (-1.442763e-09 -4.031984e-14 -7.209360e-14))
3.914842      	((-6.179087e-13 -2.759552e-12 3.661459e-12) (5.918941e-14 3.403761e-12 -2.933698e-12)) ((-2.401116e-13 -2.126954e-16 1.403387e-16) (-1.329182e-09 -5.327345e-14 -8.498627e-14))
4.709811      	((1.916235e-13 -9.522411e-13 1.092305e-12) (-1.340994e-13 4.205677e-12 -3.692266e-12)) ((-2.258598e-13 -2.275922e-16 8.887674e-17) (-1.229050e-09 -6.190369e-14 -9.344877e-14))
5.663773      	((-3.560319e-13 1.778775e-14 -8.566612e-13) (-5.852356e-14 4.772246e-12 -4.280861e-12)) ((-2.098416e-13 -2.248375e-16 5.839727e-17) (-1.140029e-09 -6.942010e-14 -9.489407e-14))
6.808528      	((-7.886567e-13 1.140180e-12 -1.515811e-12) (-7.277812e-16 4.855370e-12 -4.423026e-12)) ((-1.937864e-13 -2.303496e-16 9.861699e-17) (-1.060036e-09 -7.010685e-14 -9.223210e-14))
8.182233      	((-1.245542e-13 1.642784e-12 -2.505657e-12) (3.042704e-14 4.555248e-12 -4.157523e-12)) ((-1.781605e-13 -2.102509e-16 9.698890e-17) (-9.874098e-10 -6.224258e-14 -8.442848e-14))
9.83068       	((-1.031524e-12 1.998711e-12 -2.343732e-12) (8.833447e-14 3.887090e-12 -3.563913e-12)) ((-1.624572e-13 -1.879062e-16 1.531205e-16) (-9.209217e-10 -4.997449e-14 -6.872770e-14))
11.808816     	((-5.214637e-13 -3.122633e-13 -7.545746e-13) (2.606137e-13 2.947721e-12 -2.790895e-12)) ((-1.482067e-13 -1.577681e-16 1.991046e-16) (-8.597423e-10 -4.055263e-14 -4.846237e-14))
14.182579     	((-3.665972e-13 -5.162093e-13 1.505980e-13) (5.234775e-13 2.058348e-12 -2.070435e-12)) ((-1.346733e-13 -1.414163e-16 2.142123e-16) (-8.033659e-10 -3.407309e-14 -2.798196e-14))
17.031095     	((-5.846598e-13 -8.733793e-13 -4.073376e-14) (5.560196e-13 1.417071e-12 -1.484098e-12)) ((-1.234158e-13 -7.905475e-17 1.905496e-16) (-7.515288e-10 -2.554397e-14 -1.406775e-14))
20.449314     	((-3.528767e-13 -9.130943e-13 3.634207e-13) (4.171007e-13 9.555022e-13 -1.007975e-12)) ((-1.133701e-13 -4.360824e-17 1.752944e-16) (-7.040511e-10 -1.590005e-14 -8.060270e-15))
24.551176     	((-6.821418e-14 -8.032882e-13 8.424357e-13) (2.563275e-13 6.696477e-13 -6.903967e-13)) ((-1.045363e-13 -4.695644e-17 1.865007e-16) (-6.606516e-10 -9.564030e-15 -4.700171e-15))
29.473411     	((-1.917913e-13 -8.648746e-13 4.519423e-13) (1.398600e-13 4.973451e-13 -5.301544e-13)) ((-9.711629e-14 -2.091523e-17 1.658780e-16) (-6.210507e-10 -6.508375e-15 -3.790921e-15))
35.380094     	((-6.796923e-14 -1.201177e-12 4.500227e-13) (6.415421e-14 4.089008e-13 -4.418930e-13)) ((-9.048403e-14 -1.134639e-17 1.498524e-16) (-5.849266e-10 -3.663271e-15 -5.812571e-15))
42.468112     	((-9.648840e-14 -8.122713e-13 4.828547e-13) (-3.314141e-15 4.181033e-13 -4.383427e-13)) ((-8.468528e-14 -5.540522e-18 1.355283e-16) (-5.519748e-10 -2.390737e-15 -8.676182e-15))
50.973735     	((-7.136514e-14 -6.012740e-13 3.780155e-13) (-6.537802e-14 4.696332e-13 -4.610977e-13)) ((-7.946136e-14 9.612436e-18 1.246750e-16) (-5.219323e-10 -2.593103e-15 -9.825630e-15))
61.180482     	((-6.358922e-14 -7.098226e-13 4.420561e-13) (-7.513037e-14 5.390716e-13 -5.290963e-13)) ((-7.474024e-14 2.875015e-17 1.168218e-16) (-4.945770e-10 -3.648662e-15 -1.062255e-14))
73.428578     	((-6.906171e-14 -3.439029e-13 2.079541e-13) (-4.976821e-14 6.167082e-13 -6.171434e-13)) ((-7.062536e-14 3.432445e-17 1.037869e-16) (-4.697264e-10 -5.617158e-15 -1.170674e-14))
88.126294     	((-7.000582e-14 -4.422527e-13 4.490477e-14) (-2.648255e-14 6.721177e-13 -6.929406e-13)) ((-6.697880e-14 4.349726e-17 9.358485e-17) (-4.471924e-10 -8.106839e-15 -1.238301e-14))
105.763553    	((-1.148370e-14 -1.629893e-13 2.329673e-14) (-3.934086e-14 7.105347e-13 -7.296737e-13)) ((-6.354171e-14 5.313038e-17 8.149732e-17) (-4.268005e-10 -9.385002e-15 -1.319135e-14))
126.928263    	((-3.683722e-14 -1.141845e-13 -1.416091e-13) (-5.589692e-14 7.195281e-13 -7.203085e-13)) ((-6.048761e-14 5.431652e-17 7.839070e-17) (-4.083689e-10 -9.792415e-15 -1.345746e-14))
152.325916    	((-3.931830e-14 4.961485e-14 -1.830497e-13) (-6.589393e-14 6.804083e-13 -6.731618e-13)) ((-5.776216e-14 5.143147e-17 7.690671e-17) (-3.917037e-10 -1.004450e-14 -1.344152e-14))
182.803099    	((1.948602e-14 1.113363e-13 -2.029427e-13) (-4.885971e-14 6.207081e-13 -6.077582e-13)) ((-5.522869e-14 5.342862e-17 7.503645e-17) (-3.766082e-10 -1.080653e-14 -1.341794e-14))
219.375719    	((-3.000093e-14 9.870137e-14 -1.981519e-13) (-4.782036e-14 5.843619e-13 -5.689899e-13)) ((-5.291194e-14 5.124376e-17 7.036549e-17) (-3.629047e-10 -1.218268e-14 -1.352456e-14))
263.262863    	((-7.014838e-14 1.335801e-13 -2.096048e-13) (-5.797851e-14 5.715561e-13 -5.634535e-13)) ((-5.081681e-14 4.698962e-17 6.105034e-17) (-3.504459e-10 -1.316969e-14 -1.372256e-14))
315.927436    	((-9.758275e-14 2.265997e-13 -1.505540e-13) (-5.751263e-14 5.685340e-13 -5.627874e-13)) ((-4.893681e-14 4.007818e-17 5.440831e-17) (-3.391104e-10 -1.374830e-14 -1.398498e-14))
379.124923    	((-8.458653e-14 2.510671e-13 -9.882648e-14) (-5.267038e-14 5.687017e-13 -5.588253e-13)) ((-4.721860e-14 3.195136e-17 4.825525e-17) (-3.288022e-10 -1.368478e-14 -1.444253e-14))
454.961908    	((-7.318011e-14 2.725962e-13 -8.054191e-14) (-5.948356e-14 5.642518e-13 -5.544223e-13)) ((-4.562503e-14 2.469126e-17 4.449097e-17) (-3.194517e-10 -1.368237e-14 -1.415093e-14))
545.966289    	((-1.552428e-14 2.484834e-13 -7.654945e-14) (-3.801885e-14 5.491439e-13 -5.465292e-13)) ((-4.417353e-14 1.978257e-17 4.157215e-17) (-3.109942e-10 -1.377084e-14 -1.334489e-14))
655.171547    	((5.276071e-14 2.593993e-13 -5.692325e-14) (-1.360783e-14 5.313488e-13 -5.269497e-13)) ((-4.285191e-14 1.679786e-17 3.894908e-17) (-3.033692e-10 -1.345458e-14 -1.271729e-14))
786.217856    	((6.355573e-14 2.657044e-13 -6.456715e-14) (-1.519273e-14 5.148068e-13 -5.075397e-13)) ((-4.165347e-14 1.106071e-17 4.041605e-17) (-2.965249e-10 -1.296128e-14 -1.218474e-14))
943.473427    	((2.270543e-14 2.689778e-13 -8.673113e-14) (-3.986444e-14 4.881294e-13 -4.872790e-13)) ((-4.058415e-14 6.068177e-18 4.446158e-17) (-2.904113e-10 -1.211880e-14 -1.186916e-14))
1132.180113   	((-2.276798e-14 2.686483e-13 -9.330255e-14) (-6.915716e-14 4.649251e-13 -4.562087e-13)) ((-3.964825e-14 1.334774e-18 4.416757e-17) (-2.849781e-10 -1.095371e-14 -1.175411e-14))
1358.628135   	((-2.690049e-14 2.694964e-13 -8.626435e-14) (-9.528879e-14 4.467195e-13 -4.274996e-13)) ((-3.882128e-14 9.115920e-19 4.141881e-17) (-2.801762e-10 -1.010490e-14 -1.139995e-14))
1630.365763   	((-3.325479e-15 2.609231e-13 -6.989362e-14) (-1.019642e-13 4.358707e-13 -4.105030e-13)) ((-3.808550e-14 1.762719e-18 4.003335e-17) (-2.759539e-10 -9.376954e-15 -1.090672e-14))
1956.450915   	((4.075702e-15 2.342662e-13 -8.318975e-14) (-1.029015e-13 4.256710e-13 -3.929866e-13)) ((-3.745430e-14 5.732132e-19 4.006733e-17) (-2.722625e-10 -8.779410e-15 -1.049338e-14))
2347.753098   	((4.348677e-14 2.268736e-13 -8.943582e-14) (-9.983556e-14 4.155065e-13 -3.783705e-13)) ((-3.691077e-14 4.441372e-19 4.007302e-17) (-2.690544e-10 -8.204812e-15 -1.011597e-14))
2817.315718   	((9.420384e-14 2.197469e-13 -7.627377e-14) (-9.511360e-14 4.064613e-13 -3.655068e-13)) ((-3.644672e-14 -6.917955e-19 4.042802e-17) (-2.662839e-10 -7.706630e-15 -9.654661e-15))
3380.790861   	((1.206351e-13 2.078515e-13 -6.891411e-14) (-8.937311e-14 3.971896e-13 -3.533439e-13)) ((-3.605460e-14 -3.557641e-19 3.974873e-17) (-2.639074e-10 -7.336367e-15 -9.189660e-15))
4056.961033   	((1.393835e-13 2.093344e-13 -5.631588e-14) (-8.403042e-14 3.872055e-13 -3.406301e-13)) ((-3.571992e-14 -5.508514e-19 3.970090e-17) (-2.618830e-10 -7.015972e-15 -8.790756e-15))
4868.36524    	((1.513526e-13 2.089966e-13 -5.060766e-14) (-7.218666e-14 3.779703e-13 -3.287439e-13)) ((-3.543472e-14 -5.248626e-19 3.965036e-17) (-2.601710e-10 -6.758421e-15 -8.463324e-15))
5842.050288   	((1.492360e-13 2.050305e-13 -5.357809e-14) (-5.409001e-14 3.699616e-13 -3.179875e-13)) ((-3.519103e-14 -7.369186e-19 3.981334e-17) (-2.587339e-10 -6.512083e-15 -8.265749e-15))
7010.472346   	((1.391731e-13 1.960377e-13 -5.296892e-14) (-4.118003e-14 3.625698e-13 -3.076124e-13)) ((-3.498553e-14 -2.970580e-19 3.931518e-17) (-2.575360e-10 -6.237848e-15 -8.154965e-15))
8412.578815   	((1.258481e-13 1.948342e-13 -4.921698e-14) (-2.975256e-14 3.562545e-13 -2.965755e-13)) ((-3.481442e-14 1.898091e-19 3.853539e-17) (-2.565445e-10 -5.987730e-15 -8.013412e-15))
10095.106578  	((1.135765e-13 1.974966e-13 -4.332832e-14) (-1.997911e-14 3.507701e-13 -2.873066e-13)) ((-3.467386e-14 6.700408e-20 3.806169e-17) (-2.557293e-10 -5.779513e-15 -7.839693e-15))
12114.139893  	((1.078741e-13 2.008325e-13 -3.621390e-14) (-1.078046e-14 3.482504e-13 -2.794507e-13)) ((-3.455930e-14 -5.001466e-19 3.764603e-17) (-2.550631e-10 -5.650564e-15 -7.644648e-15))
14536.979872  	((9.986896e-14 2.046721e-13 -1.796722e-14) (-5.117196e-15 3.505370e-13 -2.731418e-13)) ((-3.446575e-14 -2.234248e-18 3.715082e-17) (-2.545219e-10 -5.449022e-15 -7.319001e-15))
17444.387847  	((1.212083e-13 2.236705e-13 -1.788343e-14) (-2.400925e-15 3.498240e-13 -2.687210e-13)) ((-3.439151e-14 -1.622682e-18 3.639994e-17) (-2.540847e-10 -5.220678e-15 -7.121712e-15))
20933.277416  	((1.468910e-13 2.437733e-13 -1.406721e-14) (-2.467575e-16 3.480920e-13 -2.652273e-13)) ((-3.433163e-14 -1.339121e-18 3.577159e-17) (-2.537332e-10 -5.054346e-15 -6.991112e-15))
25119.944899  	((1.737275e-13 2.668098e-13 -4.527107e-15) (1.369205e-15 3.463933e-13 -2.623227e-13)) ((-3.428407e-14 -1.021518e-18 3.526144e-17) (-2.534518e-10 -4.929428e-15 -6.889101e-15))
30143.945879  	((2.030712e-13 2.981191e-13 1.176054e-14) (2.494027e-15 3.448675e-13 -2.599118e-13)) ((-3.424709e-14 -7.573155e-19 3.490102e-17) (-2.532272e-10 -4.829630e-15 -6.804323e-15))
36172.747055  	((2.320487e-13 3.402050e-13 3.769722e-14) (3.760307e-15 3.437272e-13 -2.580821e-13)) ((-3.421914e-14 -4.717780e-19 3.454571e-17) (-2.530486e-10 -4.739894e-15 -6.736915e-15))
43222.64291   	((2.713967e-13 3.980803e-13 7.655491e-14) (5.762178e-15 3.432448e-13 -2.561472e-13)) ((-3.419836e-14 -1.103216e-19 3.418547e-17) (-2.529069e-10 -4.662121e-15 -6.691171e-15))
51293.640855  	((3.209891e-13 4.670124e-13 1.290589e-13) (8.597267e-15 3.431403e-13 -2.539621e-13)) ((-3.418318e-14 2.651011e-19 3.384315e-17) (-2.527948e-10 -4.593174e-15 -6.662234e-15))
60385.746695  	((3.693857e-13 5.395869e-13 1.936743e-13) (1.207430e-14 3.434246e-13 -2.514739e-13)) ((-3.416632e-14 -3.167056e-19 3.406272e-17) (-2.527063e-10 -4.529546e-15 -6.636513e-15))
70498.964975  	((4.521574e-13 6.126535e-13 2.684420e-13) (1.606252e-14 3.439226e-13 -2.490081e-13)) ((-3.415804e-14 1.387123e-18 3.113454e-17) (-2.526366e-10 -4.503700e-15 -6.574225e-15))
80710.124625  	((4.614372e-13 6.471958e-13 3.590222e-13) (2.007322e-14 3.430396e-13 -2.479345e-13)) ((-3.412917e-14 3.013750e-18 3.764846e-17) (-2.525820e-10 -4.449480e-15 -6.672971e-15))
90921.311447  	((5.032023e-13 7.251841e-13 4.578616e-13) (1.839852e-14 3.405147e-13 -2.456099e-13)) ((-3.413389e-14 -3.871516e-18 4.239061e-17) (-2.525389e-10 -4.410394e-15 -6.677392e-15))
101132.519505 	((6.166567e-13 7.610650e-13 5.246213e-13) (1.862561e-14 3.367508e-13 -2.454842e-13)) ((-3.409595e-14 -1.042612e-18 3.286528e-17) (-2.525053e-10 -4.231606e-15 -6.671822e-15))
111343.744039 	((6.834603e-13 7.881044e-13 6.537223e-13) (2.172603e-14 3.388184e-13 -2.437537e-13)) ((-3.409859e-14 3.261357e-18 3.877338e-17) (-2.524795e-10 -4.274236e-15 -6.598934e-15))
121554.981529 	((7.831308e-13 8.487520e-13 7.903610e-13) (2.426130e-14 3.465410e-13 -2.358497e-13)) ((-3.407126e-14 2.255650e-18 4.295807e-17) (-2.524589e-10 -4.502330e-15 -6.866373e-15))
131766.229376 	((8.055585e-13 9.593642e-13 9.199043e-13) (2.959837e-14 3.497975e-13 -2.290090e-13)) ((-3.405443e-14 2.900968e-18 4.205189e-17) (-2.524426e-10 -4.538454e-15 -7.055447e-15))
141977.485883 	((8.796757e-13 1.084269e-12 1.149081e-12) (2.751934e-14 3.434401e-13 -2.197759e-13)) ((-3.402848e-14 2.585329e-18 3.788827e-17) (-2.524296e-10 -4.491196e-15 -6.908484e-15))
152188.7497   	((9.983761e-13 1.243719e-12 1.324404e-12) (2.649075e-14 3.474230e-13 -2.143794e-13)) ((-3.400728e-14 3.762389e-18 3.467222e-17) (-2.524191e-10 -4.334261e-15 -6.652406e-15))
162400.019311 	((1.039962e-12 1.301413e-12 1.438986e-12) (2.815543e-14 3.455574e-13 -2.105354e-13)) ((-3.399275e-14 -4.242889e-18 3.016472e-17) (-2.524100e-10 -4.287468e-15 -6.381469e-15))
172611.29393  	((1.188071e-12 1.419765e-12 1.507342e-12) (2.805830e-14 3.440078e-13 -2.063721e-13)) ((-3.395734e-14 4.049924e-19 3.319757e-17) (-2.524025e-10 -4.248034e-15 -6.487145e-15))
182822.572904 	((1.351957e-12 1.455835e-12 1.532348e-12) (3.413923e-14 3.414771e-13 -2.042009e-13)) ((-3.393003e-14 7.414379e-20 3.352867e-17) (-2.523963e-10 -4.250036e-15 -6.364107e-15))
193033.855545 	((1.476311e-12 1.473948e-12 1.484438e-12) (3.708542e-14 3.351804e-13 -2.114618e-13)) ((-3.391126e-14 -1.750055e-18 3.760094e-17) (-2.523904e-10 -4.352160e-15 -6.392367e-15))
203245.141541 	((1.538998e-12 1.410510e-12 1.354031e-12) (3.486889e-14 3.258299e-13 -2.128307e-13)) ((-3.388737e-14 -3.047462e-18 3.632374e-17) (-2.523846e-10 -4.477121e-15 -6.421771e-15))
213456.430528 	((1.453703e-12 1.290800e-12 1.145923e-12) (2.876695e-14 3.161481e-13 -2.176670e-13)) ((-3.386852e-14 -3.831158e-18 3.802606e-17) (-2.523788e-10 -4.343023e-15 -6.395660e-15))
223667.722495 	((1.278314e-12 1.147340e-12 9.221172e-13) (2.041703e-14 3.102161e-13 -2.195294e-13)) ((-3.384978e-14 -4.694261e-18 3.857884e-17) (-2.523730e-10 -4.174891e-15 -6.320955e-15))
233879.017411 	((1.046876e-12 9.876810e-13 7.026612e-13) (8.870345e-15 3.060702e-13 -2.195028e-13)) ((-3.383034e-14 -7.830078e-18 4.036974e-17) (-2.523673e-10 -4.112849e-15 -6.328012e-15))
