# Forces      
# CofR        : (0.000000e+00 0.000000e+00 0.000000e+00)
# Time        forces(pressure viscous)	moments(pressure viscous)
0             	((0.000000e+00 0.000000e+00 0.000000e+00) (-6.905589e-14 -3.156066e-14 1.006804e-03)) ((0.000000e+00 0.000000e+00 0.000000e+00) (1.797243e-15 3.893456e-10 2.483476e-17))
0.012         	((9.354200e-08 2.579375e-09 2.925491e-01) (-3.621076e-10 -7.552050e-10 1.152825e-03)) ((9.797891e-11 7.767726e-08 7.908192e-13) (-7.428745e-12 1.099649e-09 6.165757e-14))
0.0264        	((-1.953802e-06 -1.114190e-06 -2.669527e-02) (-1.848033e-09 -1.834391e-09 1.169591e-03)) ((7.406849e-11 -6.176719e-09 1.633389e-11) (-1.187603e-11 1.479138e-09 -7.087751e-13))
0.04368       	((3.498649e-06 1.252271e-06 -5.775410e-02) (-2.022306e-09 -1.081287e-09 1.033106e-03)) ((-6.893165e-10 -1.296899e-08 -2.093453e-11) (1.364677e-11 1.490586e-09 -1.042685e-12))
0.064416      	((-1.597656e-06 1.493213e-06 -5.117160e-04) (-2.282786e-09 1.262217e-08 9.121917e-04)) ((2.084533e-10 6.806392e-10 1.413984e-11) (9.042284e-11 1.842918e-09 4.629501e-12))
0.0892992     	((1.076237e-06 -5.514688e-07 2.320453e-04) (-1.298831e-10 1.893485e-08 8.403938e-04)) ((1.206130e-10 -2.394739e-11 -3.105224e-12) (1.980754e-10 2.274402e-09 6.125903e-12))
0.119159      	((-2.743980e-08 6.682644e-07 -1.015333e-03) (2.246487e-09 1.334404e-08 7.761142e-04)) ((6.046506e-11 -1.179027e-10 5.222064e-12) (2.995846e-10 2.212258e-09 -5.708954e-12))
0.154991      	((1.884226e-07 1.311959e-07 -3.811392e-04) (4.002418e-09 9.789586e-09 7.101103e-04)) ((9.005138e-12 3.021765e-10 3.632885e-12) (2.809789e-10 1.925360e-09 -1.574168e-11))
0.197989      	((-4.575663e-08 -1.036444e-07 -4.795429e-05) (3.451709e-09 6.716988e-09 6.462336e-04)) ((1.550496e-12 3.459824e-10 2.030515e-12) (1.976236e-10 1.846104e-09 -1.689765e-11))
0.249587      	((-3.822285e-08 -1.062718e-07 6.305359e-05) (-4.805414e-09 4.568937e-09 5.866199e-04)) ((1.965112e-12 3.999575e-10 -2.617207e-13) (1.632642e-10 1.896831e-09 -1.755020e-11))
0.311504      	((-2.685284e-07 -1.164638e-07 1.220640e-04) (-1.007915e-08 3.135177e-09 5.327821e-04)) ((-2.464663e-13 4.167682e-10 9.510756e-13) (1.572722e-10 1.989376e-09 -1.942847e-11))
0.385805      	((-1.590718e-07 -1.002237e-07 1.547261e-04) (-3.364403e-09 2.032657e-09 4.852283e-04)) ((-1.389497e-13 4.060417e-10 5.189377e-13) (1.406135e-10 2.247746e-09 -1.786256e-11))
0.474966      	((-4.325307e-08 -6.092539e-08 1.696630e-04) (7.927235e-09 7.674329e-10 4.435741e-04)) ((1.191684e-12 3.712260e-10 2.268056e-13) (1.212290e-10 2.609253e-09 -1.010871e-11))
0.581959      	((-2.061045e-08 -5.166838e-08 1.749010e-04) (1.226132e-08 -3.219989e-10 4.065211e-04)) ((5.673988e-13 3.388240e-10 6.800652e-14) (9.887401e-11 2.812110e-09 -6.323946e-12))
0.710351      	((-2.296305e-08 -3.461061e-08 1.739575e-04) (1.246391e-08 -9.979593e-10 3.721827e-04)) ((1.540043e-12 3.119042e-10 1.103168e-13) (8.182782e-11 2.596985e-09 -5.558237e-12))
0.864421      	((-1.560083e-08 -3.053592e-08 1.689053e-04) (1.035219e-08 -1.719115e-09 3.394700e-04)) ((1.842646e-12 2.811604e-10 1.285055e-14) (6.446442e-11 1.990269e-09 -3.557174e-12))
1.049306      	((-9.137940e-09 -2.283064e-08 1.616417e-04) (5.050035e-09 -2.291497e-09 3.084777e-04)) ((1.884262e-12 2.485236e-10 -1.095155e-14) (4.693634e-11 1.432943e-09 -2.321452e-12))
1.271167      	((-2.827885e-08 -1.703799e-08 1.538485e-04) (1.246113e-10 -2.712609e-09 2.796252e-04)) ((1.818852e-12 2.248647e-10 1.044543e-13) (3.742717e-11 1.341205e-09 -2.153539e-12))
1.5374        	((-4.748593e-08 -1.351800e-08 1.469603e-04) (-2.629438e-09 -2.843176e-09 2.532998e-04)) ((1.945886e-12 2.076278e-10 -5.983210e-14) (4.774219e-11 1.476572e-09 -2.030756e-12))
1.85688       	((-5.063082e-08 -4.864515e-09 1.419646e-04) (-2.438491e-09 -2.379188e-09 2.297477e-04)) ((2.406119e-12 1.870052e-10 -2.251203e-14) (9.245220e-11 1.497298e-09 -4.155855e-13))
2.240256      	((-6.698275e-08 -2.756224e-08 1.393123e-04) (-1.410214e-09 -1.790436e-09 2.090251e-04)) ((2.122128e-12 1.694022e-10 1.188151e-13) (1.673811e-10 1.223856e-09 7.774869e-13))
2.700307      	((-8.292718e-08 -4.939931e-08 1.393836e-04) (-2.780986e-09 -1.557206e-09 1.910561e-04)) ((2.174316e-12 1.546767e-10 1.229332e-13) (2.605622e-10 6.596062e-10 2.298427e-12))
3.252369      	((-9.793607e-08 -8.250349e-08 1.424459e-04) (-3.406979e-09 -1.973305e-09 1.756834e-04)) ((2.743720e-12 1.411782e-10 1.392431e-13) (3.388252e-10 1.729118e-10 5.059617e-12))
3.914842      	((-1.066694e-07 -9.362417e-08 1.488739e-04) (-4.366575e-09 -3.206234e-09 1.626797e-04)) ((3.151091e-12 1.318731e-10 5.175488e-14) (3.472562e-10 -5.455992e-11 7.191436e-12))
4.709811      	((-1.209196e-07 -9.595880e-08 1.589401e-04) (-6.751842e-09 -4.744840e-09 1.517955e-04)) ((2.508441e-12 1.264639e-10 1.181660e-13) (2.683887e-10 -5.441544e-11 6.340327e-12))
5.663773      	((-1.064141e-07 -7.862149e-08 1.726151e-04) (-9.448851e-09 -5.461315e-09 1.427877e-04)) ((2.203761e-12 1.195338e-10 1.049450e-13) (1.378659e-10 2.041786e-10 4.538112e-12))
6.788246      	((-6.835329e-08 -5.537820e-08 1.897523e-04) (-9.626063e-09 -5.299079e-09 1.355247e-04)) ((1.795326e-12 1.123335e-10 2.403116e-14) (3.155561e-11 5.734535e-10 2.634607e-12))
8.083422      	((-3.665955e-08 -2.972514e-08 2.095776e-04) (-7.084788e-09 -4.311510e-09 1.297752e-04)) ((1.350926e-12 1.062840e-10 1.151376e-14) (-4.745355e-11 8.211499e-10 9.835060e-13))
9.549074      	((-3.300662e-08 -6.189610e-09 2.312968e-04) (-4.501414e-09 -1.841829e-09 1.253479e-04)) ((1.250988e-12 9.952819e-11 7.724469e-14) (-1.414690e-10 1.248879e-09 -9.311168e-13))
11.184516     	((-3.135218e-08 1.017970e-08 2.542212e-04) (-5.165151e-09 9.751686e-10 1.219587e-04)) ((7.713831e-13 9.499773e-11 1.096921e-13) (-2.672820e-10 2.428289e-09 -3.660031e-12))
12.871156     	((-1.984192e-08 2.522420e-08 2.764115e-04) (-5.750035e-09 2.943448e-09 1.195220e-04)) ((-5.053735e-13 9.423699e-11 1.681486e-13) (-3.457731e-10 3.709127e-09 -5.884528e-12))
14.545316     	((-1.896823e-08 1.051193e-08 2.951040e-04) (-3.731633e-09 2.388854e-09 1.176141e-04)) ((-1.157038e-12 9.488243e-11 2.722485e-13) (-3.706167e-10 4.450781e-09 -6.763269e-12))
16.209765     	((8.773251e-09 4.210527e-08 3.105535e-04) (-2.904949e-09 1.072206e-09 1.159232e-04)) ((-2.041846e-12 9.534382e-11 1.982850e-13) (-2.622972e-10 4.482154e-09 -4.248818e-12))
17.871365     	((1.338826e-08 6.100338e-08 3.213509e-04) (-3.083809e-09 -1.390838e-09 1.143766e-04)) ((-3.297765e-12 9.627900e-11 1.830464e-13) (-7.808029e-12 3.805776e-09 3.087539e-13))
19.53749      	((2.372098e-08 1.005099e-07 3.286596e-04) (-8.285509e-09 -4.503985e-09 1.129642e-04)) ((-4.108373e-12 9.689168e-11 1.642778e-13) (3.505865e-10 2.915406e-09 5.912205e-13))
21.211693     	((6.779542e-09 1.054498e-07 3.322149e-04) (-1.774874e-08 -7.646809e-09 1.116830e-04)) ((-3.496242e-12 9.727974e-11 3.291095e-13) (7.070848e-10 2.146464e-09 -2.531707e-13))
22.893847     	((-3.586311e-08 9.835717e-08 3.319700e-04) (-2.541494e-08 -1.014246e-08 1.104586e-04)) ((-2.049436e-12 9.682139e-11 4.861271e-13) (1.033081e-09 1.519581e-09 -1.262780e-13))
24.582257     	((-1.527819e-07 1.812475e-08 3.297315e-04) (-3.227748e-08 -1.436817e-08 1.092458e-04)) ((2.787877e-13 9.451027e-11 5.912316e-13) (1.289356e-09 1.185580e-09 -1.103361e-12))
26.275685     	((-2.231808e-07 -2.757973e-08 3.271087e-04) (-3.882001e-08 -2.035130e-08 1.080926e-04)) ((1.849264e-12 9.312865e-11 6.037147e-13) (1.499202e-09 1.100516e-09 1.443461e-12))
27.973832     	((-2.054587e-07 1.212744e-08 3.248389e-04) (-4.179575e-08 -2.368550e-08 1.070588e-04)) ((1.902831e-12 9.225754e-11 6.024023e-13) (1.642331e-09 1.082358e-09 3.169203e-12))
29.676634     	((-2.413705e-07 -4.248835e-10 3.222909e-04) (-4.251750e-08 -2.406544e-08 1.061227e-04)) ((2.839874e-12 9.104859e-11 6.671804e-13) (1.706118e-09 1.017981e-09 4.557213e-12))
31.383459     	((-2.727028e-07 -3.285502e-08 3.190503e-04) (-4.400044e-08 -2.471835e-08 1.052354e-04)) ((3.196538e-12 9.082518e-11 6.322074e-13) (1.700773e-09 8.235513e-10 7.148653e-12))
33.09411      	((-2.757101e-07 -5.084799e-08 3.164155e-04) (-4.700002e-08 -2.585600e-08 1.044069e-04)) ((2.709929e-12 9.083783e-11 5.499343e-13) (1.643914e-09 5.238590e-10 1.072035e-11))
34.807889     	((-2.919893e-07 -7.821659e-08 3.142475e-04) (-5.088040e-08 -2.695132e-08 1.036530e-04)) ((2.141076e-12 8.983303e-11 5.138436e-13) (1.559410e-09 2.953333e-10 1.055992e-11))
36.523085     	((-2.886591e-07 -9.874888e-08 3.123487e-04) (-5.354699e-08 -2.730556e-08 1.029599e-04)) ((1.525629e-12 8.843549e-11 5.870988e-13) (1.414866e-09 1.770673e-10 9.577517e-12))
38.239675     	((-2.748877e-07 -1.176815e-07 3.106844e-04) (-5.330886e-08 -2.631122e-08 1.023174e-04)) ((5.614938e-13 8.690790e-11 5.735211e-13) (1.208471e-09 1.493137e-10 9.092601e-12))
39.958178     	((-2.981828e-07 -1.683027e-07 3.090865e-04) (-5.111099e-08 -2.488416e-08 1.017102e-04)) ((-2.126784e-13 8.517423e-11 6.314169e-13) (9.326883e-10 1.883023e-10 8.035858e-12))
41.678834     	((-3.159896e-07 -2.103021e-07 3.075985e-04) (-4.824643e-08 -2.404970e-08 1.011316e-04)) ((-7.961794e-13 8.346590e-11 6.970784e-13) (6.527717e-10 2.303729e-10 5.964333e-12))
43.401919     	((-3.420530e-07 -2.596278e-07 3.064304e-04) (-4.609343e-08 -2.403072e-08 1.005931e-04)) ((-1.248502e-12 8.143888e-11 7.174936e-13) (4.115937e-10 2.515915e-10 6.009359e-12))
45.127568     	((-3.682342e-07 -3.125668e-07 3.051800e-04) (-4.447104e-08 -2.527200e-08 1.000927e-04)) ((-1.839164e-12 7.998095e-11 7.472776e-13) (2.109025e-10 2.631008e-10 3.737027e-12))
46.85583      	((-4.310510e-07 -3.891196e-07 3.040705e-04) (-4.459518e-08 -2.847957e-08 9.962661e-05)) ((-1.803719e-12 7.838237e-11 7.372998e-13) (7.038063e-11 2.540555e-10 1.764902e-12))
48.586763     	((-4.716632e-07 -4.450057e-07 3.030998e-04) (-4.580154e-08 -3.266270e-08 9.919696e-05)) ((-2.102204e-12 7.735514e-11 7.292029e-13) (-9.362675e-12 2.484011e-10 5.926504e-13))
50.320279     	((-5.338613e-07 -5.183141e-07 3.020994e-04) (-4.739089e-08 -3.745461e-08 9.879880e-05)) ((-2.006296e-12 7.609729e-11 7.283385e-13) (-7.982254e-11 2.828791e-10 -7.218250e-13))
52.056335     	((-5.867549e-07 -5.683227e-07 3.010521e-04) (-4.944718e-08 -4.255583e-08 9.842237e-05)) ((-2.304232e-12 7.535472e-11 7.382173e-13) (-1.617531e-10 3.578897e-10 -1.405830e-12))
53.795047     	((-6.447076e-07 -6.279079e-07 2.997769e-04) (-5.167629e-08 -4.771631e-08 9.805383e-05)) ((-2.365310e-12 7.453613e-11 7.171150e-13) (-2.500490e-10 4.711896e-10 -8.383092e-13))
55.536692     	((-7.134427e-07 -7.029322e-07 2.987509e-04) (-5.474440e-08 -5.374083e-08 9.769930e-05)) ((-1.870477e-12 7.341768e-11 7.540731e-13) (-3.242759e-10 6.158612e-10 -5.480594e-13))
57.281341     	((-8.222857e-07 -7.930546e-07 2.976465e-04) (-6.000919e-08 -6.113287e-08 9.735672e-05)) ((-1.208861e-12 7.165958e-11 7.819285e-13) (-3.953015e-10 7.740588e-10 -1.298907e-12))
59.029        	((-9.176564e-07 -8.875823e-07 2.967628e-04) (-6.671344e-08 -6.968664e-08 9.703004e-05)) ((-5.234187e-13 7.030599e-11 8.135355e-13) (-4.640665e-10 9.360600e-10 -1.119468e-12))
60.779663     	((-1.023318e-06 -9.875033e-07 2.959943e-04) (-7.445781e-08 -7.916472e-08 9.672502e-05)) ((2.344131e-13 6.874296e-11 8.270941e-13) (-5.364012e-10 1.115369e-09 -5.159217e-13))
62.533243     	((-1.133294e-06 -1.102652e-06 2.950990e-04) (-8.282699e-08 -8.920285e-08 9.643306e-05)) ((1.447463e-12 6.699285e-11 8.587655e-13) (-6.323998e-10 1.305099e-09 -7.051876e-13))
64.289582     	((-1.263614e-06 -1.236163e-06 2.942513e-04) (-9.259154e-08 -1.004054e-07 9.615096e-05)) ((2.862274e-12 6.526540e-11 8.205428e-13) (-7.419632e-10 1.480786e-09 3.429109e-13))
66.048542     	((-1.386802e-06 -1.375937e-06 2.934185e-04) (-1.039363e-07 -1.129885e-07 9.587519e-05)) ((4.195759e-12 6.389657e-11 8.079559e-13) (-8.415273e-10 1.626195e-09 2.622305e-12))
67.810095     	((-1.521103e-06 -1.541483e-06 2.926278e-04) (-1.165979e-07 -1.271043e-07 9.560442e-05)) ((5.727790e-12 6.250730e-11 8.032096e-13) (-9.272661e-10 1.734407e-09 5.997778e-12))
69.574154     	((-1.697214e-06 -1.744182e-06 2.917836e-04) (-1.318172e-07 -1.436998e-07 9.533891e-05)) ((7.568116e-12 6.053565e-11 8.663642e-13) (-1.005301e-09 1.807563e-09 9.659793e-12))
71.340623     	((-1.860458e-06 -1.954115e-06 2.909544e-04) (-1.484023e-07 -1.619209e-07 9.508225e-05)) ((9.325006e-12 5.868144e-11 8.674317e-13) (-1.100565e-09 1.865314e-09 1.114443e-11))
73.10941      	((-2.054565e-06 -2.215912e-06 2.901625e-04) (-1.659829e-07 -1.822832e-07 9.483694e-05)) ((1.155378e-11 5.640741e-11 9.033481e-13) (-1.253617e-09 1.948764e-09 1.127737e-11))
74.880406     	((-2.274210e-06 -2.509368e-06 2.894348e-04) (-1.852266e-07 -2.051716e-07 9.460227e-05)) ((1.375064e-11 5.403219e-11 9.396225e-13) (-1.475537e-09 2.068212e-09 1.004451e-11))
76.653487     	((-2.517640e-06 -2.850797e-06 2.887623e-04) (-2.063905e-07 -2.307972e-07 9.437777e-05)) ((1.630966e-11 5.140670e-11 1.038471e-12) (-1.769200e-09 2.216322e-09 9.591659e-12))
78.428556     	((-2.792452e-06 -3.227622e-06 2.881259e-04) (-2.299383e-07 -2.595168e-07 9.416313e-05)) ((1.885295e-11 4.869128e-11 1.098737e-12) (-2.139237e-09 2.394118e-09 1.072364e-11))
80.205529     	((-3.084456e-06 -3.624226e-06 2.875432e-04) (-2.554052e-07 -2.904773e-07 9.395885e-05)) ((2.133509e-11 4.589784e-11 1.137665e-12) (-2.592120e-09 2.608778e-09 1.225666e-11))
81.984326     	((-3.385322e-06 -4.034865e-06 2.869321e-04) (-2.822347e-07 -3.232166e-07 9.376271e-05)) ((2.371205e-11 4.307355e-11 1.191640e-12) (-3.120596e-09 2.872168e-09 1.243526e-11))
83.764873     	((-3.721030e-06 -4.476061e-06 2.862945e-04) (-3.106868e-07 -3.579330e-07 9.357181e-05)) ((2.618337e-11 3.991090e-11 1.290040e-12) (-3.715640e-09 3.191680e-09 1.173652e-11))
85.547091     	((-4.100150e-06 -4.963816e-06 2.856674e-04) (-3.413066e-07 -3.953413e-07 9.338546e-05)) ((2.879091e-11 3.662733e-11 1.377836e-12) (-4.369555e-09 3.577331e-09 1.220444e-11))
87.330891     	((-4.550358e-06 -5.512163e-06 2.850698e-04) (-3.757378e-07 -4.368460e-07 9.320410e-05)) ((3.158697e-11 3.315691e-11 1.493107e-12) (-5.068148e-09 4.027071e-09 1.227940e-11))
89.116174     	((-5.044201e-06 -6.102782e-06 2.844943e-04) (-4.146268e-07 -4.830287e-07 9.302782e-05)) ((3.438441e-11 2.973589e-11 1.612379e-12) (-5.804058e-09 4.527772e-09 1.239222e-11))
90.902832     	((-5.595315e-06 -6.736996e-06 2.839654e-04) (-4.580801e-07 -5.337829e-07 9.285675e-05)) ((3.754035e-11 2.609640e-11 1.723016e-12) (-6.580001e-09 5.086641e-09 1.439408e-11))
92.690755     	((-6.189218e-06 -7.403438e-06 2.834729e-04) (-5.059458e-07 -5.889080e-07 9.269132e-05)) ((4.095752e-11 2.232704e-11 1.860726e-12) (-7.382167e-09 5.706438e-09 1.762565e-11))
94.479844     	((-6.827545e-06 -8.110567e-06 2.830284e-04) (-5.580263e-07 -6.485833e-07 9.253241e-05)) ((4.477926e-11 1.842996e-11 1.973591e-12) (-8.193793e-09 6.387324e-09 2.144541e-11))
96.270005     	((-7.529215e-06 -8.865056e-06 2.826383e-04) (-6.149407e-07 -7.131316e-07 9.238137e-05)) ((4.892992e-11 1.429169e-11 2.064751e-12) (-9.013300e-09 7.131029e-09 2.495781e-11))
98.06115      	((-8.305568e-06 -9.696620e-06 2.822748e-04) (-6.772498e-07 -7.835186e-07 9.223817e-05)) ((5.377036e-11 9.921329e-12 2.209115e-12) (-9.860806e-09 7.955477e-09 2.727266e-11))
99.853187     	((-9.140511e-06 -1.058426e-05 2.819536e-04) (-7.449924e-07 -8.597895e-07 9.210278e-05)) ((5.895576e-11 5.422835e-12 2.378408e-12) (-1.075785e-08 8.878964e-09 2.965282e-11))
101.646015    	((-1.005729e-05 -1.155805e-05 2.816490e-04) (-8.187362e-07 -9.426628e-07 9.197507e-05)) ((6.482818e-11 6.037376e-13 2.535656e-12) (-1.170710e-08 9.911037e-09 3.014355e-11))
103.439521    	((-1.106411e-05 -1.262843e-05 2.813542e-04) (-8.995186e-07 -1.033625e-06 9.185483e-05)) ((7.155772e-11 -4.718513e-12 2.705003e-12) (-1.270015e-08 1.103570e-08 2.670297e-11))
105.233581    	((-1.214793e-05 -1.379256e-05 2.810722e-04) (-9.881572e-07 -1.133431e-06 9.174167e-05)) ((7.906009e-11 -1.042070e-11 2.925243e-12) (-1.374388e-08 1.222160e-08 2.195071e-11))
107.028068    	((-1.333511e-05 -1.507265e-05 2.808126e-04) (-1.085796e-06 -1.243155e-06 9.163583e-05)) ((8.743784e-11 -1.672762e-11 3.185710e-12) (-1.483623e-08 1.345670e-08 1.558509e-11))
108.822846    	((-1.463434e-05 -1.650715e-05 2.805753e-04) (-1.193604e-06 -1.364967e-06 9.153763e-05)) ((9.707101e-11 -2.375762e-11 3.456024e-12) (-1.597491e-08 1.474080e-08 6.272426e-12))
110.617779    	((-1.605558e-05 -1.809791e-05 2.803471e-04) (-1.312847e-06 -1.500450e-06 9.144655e-05)) ((1.078363e-10 -3.163164e-11 3.746408e-12) (-1.719005e-08 1.607095e-08 -8.016230e-13))
112.41272     	((-1.760182e-05 -1.984574e-05 2.801567e-04) (-1.444572e-06 -1.650556e-06 9.136327e-05)) ((1.197235e-10 -4.036708e-11 4.113210e-12) (-1.849546e-08 1.744333e-08 -5.955769e-12))
114.207517    	((-1.929402e-05 -2.177663e-05 2.799659e-04) (-1.590464e-06 -1.816675e-06 9.128730e-05)) ((1.328435e-10 -5.010789e-11 4.447056e-12) (-1.990003e-08 1.883184e-08 -9.832691e-12))
116.002012    	((-2.114896e-05 -2.392696e-05 2.797966e-04) (-1.751889e-06 -2.000956e-06 9.121689e-05)) ((1.473018e-10 -6.095823e-11 4.849356e-12) (-2.142852e-08 2.024962e-08 -1.450502e-11))
117.796035    	((-2.316829e-05 -2.628302e-05 2.796619e-04) (-1.929581e-06 -2.204638e-06 9.115118e-05)) ((1.628133e-10 -7.304189e-11 5.250621e-12) (-2.309949e-08 2.171856e-08 -1.790847e-11))
119.589408    	((-2.537377e-05 -2.888625e-05 2.795438e-04) (-2.124815e-06 -2.430131e-06 9.108909e-05)) ((1.797927e-10 -8.633300e-11 5.631212e-12) (-2.489857e-08 2.325319e-08 -2.332282e-11))
121.381939    	((-2.778021e-05 -3.172796e-05 2.794917e-04) (-2.339286e-06 -2.679082e-06 9.103212e-05)) ((1.977002e-10 -1.007845e-10 6.123345e-12) (-2.682592e-08 2.486419e-08 -3.259327e-11))
123.173424    	((-3.039369e-05 -3.482258e-05 2.795240e-04) (-2.575090e-06 -2.952474e-06 9.098347e-05)) ((2.165744e-10 -1.162779e-10 6.595091e-12) (-2.891112e-08 2.652052e-08 -3.227993e-11))
124.963643    	((-3.324675e-05 -3.821718e-05 2.796254e-04) (-2.833807e-06 -3.252535e-06 9.094427e-05)) ((2.370567e-10 -1.331482e-10 7.132753e-12) (-3.118518e-08 2.826290e-08 -2.170125e-11))
126.752366    	((-3.636179e-05 -4.192180e-05 2.798152e-04) (-3.116148e-06 -3.580286e-06 9.091448e-05)) ((2.593435e-10 -1.515562e-10 7.633130e-12) (-3.372984e-08 3.015787e-08 -2.531309e-11))
128.539347    	((-3.975988e-05 -4.599418e-05 2.801333e-04) (-3.424050e-06 -3.939243e-06 9.089523e-05)) ((2.839770e-10 -1.715650e-10 8.129442e-12) (-3.654870e-08 3.223874e-08 -3.638371e-11))
130.324334    	((-4.350695e-05 -5.042376e-05 2.806095e-04) (-3.761471e-06 -4.332733e-06 9.089102e-05)) ((3.104808e-10 -1.938824e-10 8.668881e-12) (-3.956369e-08 3.449516e-08 -1.140932e-11))
132.107055    	((-4.760458e-05 -5.523336e-05 2.812866e-04) (-4.130669e-06 -4.760977e-06 9.090727e-05)) ((3.392747e-10 -2.182217e-10 9.054926e-12) (-4.285483e-08 3.699908e-08 4.133214e-11))
133.887223    	((-5.208508e-05 -6.049044e-05 2.821445e-04) (-4.531734e-06 -5.225498e-06 9.094405e-05)) ((3.706951e-10 -2.446437e-10 9.502023e-12) (-4.658956e-08 3.991566e-08 9.765560e-11))
135.664526    	((-5.702288e-05 -6.621676e-05 2.831980e-04) (-4.968833e-06 -5.731116e-06 9.100052e-05)) ((4.041228e-10 -2.737028e-10 9.989949e-12) (-5.079524e-08 4.329554e-08 1.456718e-10))
137.438619    	((-6.242808e-05 -7.248534e-05 2.845185e-04) (-5.448628e-06 -6.286265e-06 9.108102e-05)) ((4.400385e-10 -3.044477e-10 1.032050e-11) (-5.521432e-08 4.695239e-08 2.179982e-10))
139.209127    	((-6.838128e-05 -7.927614e-05 2.861888e-04) (-5.979223e-06 -6.897394e-06 9.119489e-05)) ((4.778946e-10 -3.368979e-10 1.053449e-11) (-5.968645e-08 5.067578e-08 2.916418e-10))
140.975654    	((-7.485198e-05 -8.664173e-05 2.882617e-04) (-6.564567e-06 -7.567896e-06 9.134899e-05)) ((5.178508e-10 -3.708761e-10 1.099434e-11) (-6.419444e-08 5.447360e-08 3.395816e-10))
142.737783    	((-8.189065e-05 -9.461087e-05 2.907564e-04) (-7.205789e-06 -8.300043e-06 9.154908e-05)) ((5.596578e-10 -4.058246e-10 1.174197e-11) (-6.892250e-08 5.854455e-08 4.185012e-10))
