# Forces      
# CofR        : (0.000000e+00 0.000000e+00 0.000000e+00)
# Time        forces(pressure viscous)	moments(pressure viscous)
0             	((0.000000e+00 0.000000e+00 0.000000e+00) (0.000000e+00 0.000000e+00 0.000000e+00)) ((0.000000e+00 0.000000e+00 0.000000e+00) (0.000000e+00 0.000000e+00 0.000000e+00))
0.012         	((-1.008165e-10 1.400900e-10 -2.926934e-10) (5.138734e-13 1.198626e-13 1.851901e-12)) ((1.265729e-09 -1.367691e-13 -1.840575e-15) (8.816099e-07 9.090875e-14 -3.275225e-14))
0.0264        	((9.157062e-11 2.305412e-10 -4.912097e-10) (-7.483609e-14 -2.182312e-12 1.627238e-12)) ((6.256902e-10 -1.065417e-13 2.644924e-14) (8.075088e-07 1.587032e-13 -3.152521e-14))
0.04368       	((-5.086648e-10 -3.578937e-10 -6.029612e-10) (3.600547e-12 -6.343736e-12 5.227764e-13)) ((3.470391e-10 -8.430929e-14 2.921500e-14) (7.313814e-07 8.453171e-14 7.571051e-14))
0.064416      	((1.752409e-10 -4.410845e-11 -1.285823e-10) (1.205012e-11 -9.080634e-12 -1.298226e-12)) ((1.959779e-10 -5.830520e-14 -9.375865e-15) (6.549084e-07 -1.024694e-13 1.888251e-13))
0.0892992     	((-5.734283e-11 -9.841671e-11 -2.447808e-11) (1.964251e-11 -9.957956e-12 -3.531072e-12)) ((1.483212e-10 -5.505259e-14 7.156650e-15) (5.803400e-07 -2.785128e-13 2.514884e-13))
0.119159      	((-1.195392e-11 -1.742415e-10 -4.274521e-10) (2.509509e-11 -9.385302e-12 -5.327639e-12)) ((1.070645e-10 -3.983861e-14 -1.295502e-15) (5.099918e-07 -3.749653e-13 2.661672e-13))
0.154991      	((2.115083e-10 2.104126e-10 1.364354e-10) (2.675229e-11 -8.171081e-12 -6.249709e-12)) ((8.557233e-11 -3.098486e-14 -4.025573e-15) (4.454965e-07 -4.143218e-13 2.312655e-13))
0.197989      	((1.362508e-10 1.471649e-11 -1.361421e-10) (2.479034e-11 -6.835112e-12 -6.484257e-12)) ((6.850141e-11 -1.363059e-14 -3.524395e-15) (3.883423e-07 -4.299394e-13 2.027799e-13))
0.249587      	((1.610117e-10 5.473163e-11 -1.235422e-10) (1.671125e-11 -6.180943e-12 -6.417720e-12)) ((5.699448e-11 -1.088323e-14 -6.374753e-15) (3.392976e-07 -4.128788e-13 1.888701e-13))
0.311504      	((4.679981e-11 1.293421e-10 -1.731923e-10) (1.149338e-11 -6.753014e-12 -5.731147e-12)) ((4.785186e-11 -1.262018e-14 -1.636096e-15) (2.982226e-07 -3.803736e-13 1.845974e-13))
0.385805      	((-1.635215e-10 1.738512e-10 -2.149139e-10) (1.078315e-11 -6.503082e-12 -6.327633e-12)) ((4.145805e-11 -1.363102e-14 4.087115e-15) (2.642375e-07 -3.701361e-13 1.652484e-13))
0.474966      	((-5.817366e-11 2.042150e-10 -2.095443e-10) (8.109322e-12 -4.878606e-12 -1.003883e-11)) ((3.718329e-11 -9.875426e-15 6.539756e-15) (2.360206e-07 -4.433009e-13 1.442647e-13))
0.581959      	((1.786205e-10 2.981083e-10 -1.190355e-10) (2.985466e-11 -2.103661e-12 -1.202288e-11)) ((3.333154e-11 -9.683589e-15 9.985809e-15) (2.122291e-07 -4.904773e-13 1.487591e-13))
0.710351      	((1.077920e-11 3.593504e-10 -2.514713e-10) (4.890856e-11 -4.414846e-13 -1.169602e-11)) ((2.957489e-11 -1.309735e-14 1.244805e-14) (1.917642e-07 -5.252444e-13 2.293117e-13))
0.864421      	((-2.583122e-11 4.541889e-10 -1.078959e-10) (4.669729e-11 -1.193307e-12 -7.943591e-12)) ((2.694873e-11 -1.798666e-14 1.462233e-14) (1.738377e-07 -5.732596e-13 3.955939e-13))
1.049306      	((7.463354e-11 4.935779e-10 -1.790103e-10) (4.575310e-11 -2.368394e-12 -1.134513e-12)) ((2.528844e-11 -1.722895e-14 1.185743e-14) (1.579153e-07 -5.267375e-13 5.255892e-13))
1.271167      	((-1.618337e-10 6.798265e-10 -2.212675e-10) (3.847493e-11 -9.307424e-12 1.427267e-12)) ((2.361188e-11 -1.585141e-14 9.640304e-15) (1.436345e-07 -4.382417e-13 6.946642e-13))
1.5374        	((-9.684714e-11 5.916791e-10 -3.423576e-10) (2.167155e-11 -2.002541e-11 5.547897e-12)) ((2.171594e-11 -9.438558e-15 8.420761e-15) (1.307573e-07 -3.374521e-13 1.056800e-12))
1.85688       	((6.643880e-11 5.415701e-10 -3.400596e-10) (1.317976e-11 -3.556241e-11 2.005763e-11)) ((1.989623e-11 -1.144468e-15 2.997986e-15) (1.191538e-07 5.964726e-14 1.546325e-12))
2.240256      	((-1.169981e-12 4.560796e-10 -4.216317e-10) (1.305505e-11 -5.955845e-11 4.425693e-11)) ((1.866449e-11 4.589749e-15 -4.260169e-15) (1.087595e-07 6.524814e-13 2.228212e-12))
2.700307      	((-2.348042e-11 2.603081e-10 -4.114634e-10) (9.051978e-13 -9.810488e-11 7.297773e-11)) ((1.779319e-11 7.487325e-15 -6.303190e-15) (9.952288e-08 1.299707e-12 3.202086e-12))
3.252369      	((3.628192e-11 1.292803e-10 -4.209064e-10) (1.215241e-11 -1.481042e-10 1.094242e-10)) ((1.682492e-11 9.962699e-15 -6.760991e-15) (9.137625e-08 1.936435e-12 4.348006e-12))
3.914842      	((-3.657188e-11 1.825325e-11 -2.713362e-10) (2.443182e-11 -1.920211e-10 1.488474e-10)) ((1.578973e-11 6.334527e-15 -2.750599e-15) (8.421622e-08 2.663357e-12 4.941591e-12))
4.709811      	((8.148741e-11 7.295582e-11 -9.026717e-12) (6.201906e-12 -2.274441e-10 1.973331e-10)) ((1.469345e-11 6.009436e-15 -1.577380e-15) (7.790050e-08 3.335086e-12 5.255033e-12))
5.663773      	((-6.033868e-11 1.106100e-10 1.641420e-10) (1.288570e-12 -2.470649e-10 2.290839e-10)) ((1.356468e-11 7.169620e-15 -1.405007e-15) (7.228005e-08 3.593528e-12 5.422423e-12))
6.808528      	((2.335552e-11 4.372203e-11 1.586149e-10) (-9.270428e-12 -2.487392e-10 2.332319e-10)) ((1.242931e-11 7.947989e-15 -4.935124e-15) (6.722189e-08 3.482206e-12 5.245219e-12))
8.182233      	((-3.652395e-11 -6.679811e-11 1.531794e-10) (-2.868278e-11 -2.259919e-10 2.186613e-10)) ((1.133171e-11 8.718080e-15 -8.076597e-15) (6.262350e-08 2.988322e-12 4.816711e-12))
9.83068       	((-4.749289e-11 -3.714058e-11 1.580926e-10) (-4.956228e-11 -1.816103e-10 1.846643e-10)) ((1.028322e-11 9.439866e-15 -1.038839e-14) (5.841403e-08 2.626975e-12 3.957864e-12))
11.808816     	((-7.182660e-11 7.687419e-12 6.406425e-11) (-6.058954e-11 -1.351501e-10 1.485914e-10)) ((9.323319e-12 9.356825e-15 -1.293780e-14) (5.454120e-08 2.388733e-12 2.928872e-12))
14.182579     	((-5.109068e-11 2.695105e-11 9.110200e-13) (-6.574414e-11 -9.537994e-11 1.133027e-10)) ((8.459992e-12 7.995934e-15 -1.485404e-14) (5.096995e-08 2.040732e-12 1.945095e-12))
17.031095     	((-5.609208e-11 1.607164e-11 -1.455353e-11) (-6.369257e-11 -6.918504e-11 8.317560e-11)) ((7.697236e-12 3.303402e-15 -1.312481e-14) (4.768072e-08 1.664039e-12 1.138547e-12))
20.449314     	((-1.139641e-11 4.160615e-11 5.114716e-11) (-5.764079e-11 -4.841099e-11 5.753008e-11)) ((7.020605e-12 -1.169539e-15 -1.056813e-14) (4.466559e-08 1.216312e-12 6.068268e-13))
24.551176     	((-2.051789e-11 2.637775e-11 1.216199e-11) (-4.764006e-11 -2.925064e-11 3.874308e-11)) ((6.434755e-12 -3.981065e-15 -8.620175e-15) (4.191378e-08 9.284133e-13 1.993842e-13))
29.473411     	((5.121907e-12 2.430571e-11 -1.223007e-12) (-3.513992e-11 -1.164857e-11 2.560795e-11)) ((5.934772e-12 -5.270201e-15 -6.304132e-15) (3.940847e-08 8.930304e-13 -2.392535e-13))
35.380094     	((3.980650e-12 2.585895e-11 -5.538760e-12) (-3.314606e-11 1.179355e-12 1.616546e-11)) ((5.492744e-12 -5.781731e-15 -5.091537e-15) (3.713020e-08 8.771068e-13 -4.846078e-13))
42.468112     	((7.820734e-12 2.933180e-11 -1.633285e-11) (-3.108835e-11 8.565880e-12 1.471539e-11)) ((5.099529e-12 -5.635573e-15 -4.412814e-15) (3.505813e-08 8.596311e-13 -5.233700e-13))
50.973735     	((-1.060561e-11 5.190945e-11 -2.361536e-11) (-2.404900e-11 8.466122e-12 1.715610e-11)) ((4.751143e-12 -5.282330e-15 -2.952142e-15) (3.317247e-08 9.040766e-13 -4.474368e-13))
61.180482     	((-1.484602e-11 4.393066e-11 8.394997e-12) (-1.339871e-11 2.734281e-12 2.285580e-11)) ((4.447385e-12 -5.084305e-15 -1.759746e-15) (3.145636e-08 9.523757e-13 -2.654198e-13))
73.428578     	((4.253333e-12 3.279739e-11 2.371109e-11) (-9.283629e-12 -2.228995e-12 2.907045e-11)) ((4.187534e-12 -6.073667e-15 8.223558e-17) (2.989476e-08 9.316932e-13 -2.162701e-14))
88.126294     	((4.470943e-12 -2.003405e-11 2.648380e-13) (-6.644949e-13 -9.546490e-12 3.066025e-11)) ((3.967800e-12 -5.812554e-15 1.533104e-15) (2.847485e-08 8.304040e-13 1.674002e-13))
105.763553    	((5.669603e-12 -3.010813e-11 -9.023745e-12) (2.690107e-12 -1.745182e-11 2.537104e-11)) ((3.760483e-12 -4.790668e-15 1.193836e-15) (2.718690e-08 6.676060e-13 3.230809e-13))
126.928263    	((3.126544e-11 -1.218933e-11 6.989563e-12) (7.052083e-13 -1.783487e-11 2.310780e-11)) ((3.576091e-12 -3.097774e-15 -5.544043e-16) (2.602062e-08 5.158829e-13 4.353773e-13))
152.325916    	((4.491441e-11 1.724632e-12 5.858827e-12) (8.292664e-13 -1.866861e-11 1.835950e-11)) ((3.408079e-12 -2.158778e-15 -1.778038e-15) (2.496446e-08 3.973677e-13 5.243382e-13))
182.803099    	((5.515616e-11 2.141259e-11 2.012025e-11) (2.791402e-12 -2.191949e-11 1.141263e-11)) ((3.254134e-12 -1.937029e-15 -2.550389e-15) (2.400741e-08 3.021533e-13 6.151847e-13))
219.375719    	((5.104163e-11 2.775764e-11 2.824240e-11) (1.004108e-11 -2.281923e-11 7.008709e-12)) ((3.109347e-12 -1.364598e-15 -3.143973e-15) (2.314062e-08 2.410529e-13 6.506747e-13))
263.262863    	((5.332362e-11 4.440348e-11 4.623601e-11) (1.646694e-11 -2.313310e-11 3.500164e-12)) ((2.977712e-12 -1.195397e-15 -3.441236e-15) (2.235565e-08 1.940208e-13 6.746686e-13))
315.927436    	((6.397194e-11 3.975937e-11 3.354411e-11) (1.957489e-11 -2.164873e-11 1.986715e-12)) ((2.862429e-12 -1.134524e-15 -3.957030e-15) (2.164526e-08 1.707355e-13 6.838549e-13))
379.124923    	((6.323053e-11 3.596075e-11 1.985474e-11) (2.118701e-11 -2.118417e-11 2.176760e-13)) ((2.758027e-12 -7.825793e-16 -4.543808e-15) (2.100405e-08 1.219224e-13 7.243559e-13))
454.961908    	((5.085842e-11 3.419303e-11 1.402998e-11) (1.931660e-11 -2.075275e-11 -3.387695e-12)) ((2.667641e-12 -6.339575e-16 -4.652285e-15) (2.042736e-08 3.133737e-14 7.806305e-13))
545.966289    	((5.217601e-11 4.138414e-11 1.575020e-11) (2.152365e-11 -1.851482e-11 -5.513331e-12)) ((2.584135e-12 -5.853068e-16 -4.591373e-15) (1.991139e-08 -5.915852e-14 7.996443e-13))
653.120985    	((4.844880e-11 4.127352e-11 1.384237e-11) (2.182134e-11 -1.602974e-11 -6.256288e-12)) ((2.514021e-12 -8.439401e-16 -4.644017e-15) (1.945368e-08 -1.078694e-13 7.810322e-13))
776.424811    	((4.701452e-11 4.568050e-11 1.938635e-11) (2.108052e-11 -1.309042e-11 -5.854231e-12)) ((2.454185e-12 -8.422886e-16 -4.552572e-15) (1.905145e-08 -1.444144e-13 7.184189e-13))
915.877335    	((3.652413e-11 4.227560e-11 1.292472e-11) (1.877923e-11 -9.422876e-12 -6.279044e-12)) ((2.400831e-12 -6.465437e-16 -4.539139e-15) (1.870126e-08 -1.858029e-13 6.293289e-13))
1071.477886   	((3.741184e-11 4.417925e-11 1.559805e-11) (1.780339e-11 -5.454712e-12 -6.606256e-12)) ((2.353192e-12 -4.522006e-16 -4.510844e-15) (1.839860e-08 -2.294169e-13 5.337140e-13))
1232.956937   	((4.136621e-11 4.289272e-11 1.369331e-11) (1.833978e-11 -2.600895e-12 -7.101538e-12)) ((2.312257e-12 -3.597673e-16 -4.432164e-15) (1.814088e-08 -2.600237e-13 4.465796e-13))
1394.440939   	((4.638690e-11 4.058808e-11 1.201248e-11) (1.861613e-11 -3.402815e-13 -7.204998e-12)) ((2.278390e-12 -3.419904e-16 -4.205574e-15) (1.792356e-08 -2.745164e-13 3.742655e-13))
1555.928011   	((4.174399e-11 3.814649e-11 1.032685e-11) (1.988854e-11 1.234988e-12 -7.069854e-12)) ((2.249795e-12 -4.171123e-16 -3.936499e-15) (1.774130e-08 -2.711034e-13 3.072897e-13))
1717.420008   	((3.661729e-11 3.653305e-11 9.623601e-12) (1.966285e-11 2.470955e-12 -6.804643e-12)) ((2.226491e-12 -6.569601e-16 -3.613685e-15) (1.758837e-08 -2.551743e-13 2.438988e-13))
1878.921085   	((3.075147e-11 3.441490e-11 9.681561e-12) (1.840086e-11 3.229916e-12 -6.495392e-12)) ((2.206756e-12 -9.385660e-16 -3.350062e-15) (1.745977e-08 -2.252701e-13 1.869003e-13))
2040.434789   	((2.575459e-11 3.411671e-11 1.017369e-11) (1.785125e-11 3.821815e-12 -6.121382e-12)) ((2.189209e-12 -1.151484e-15 -3.172774e-15) (1.735114e-08 -1.917573e-13 1.455151e-13))
2201.964037   	((2.429385e-11 3.301868e-11 9.256067e-12) (1.804521e-11 4.204463e-12 -5.900898e-12)) ((2.173887e-12 -1.262604e-15 -3.001882e-15) (1.725894e-08 -1.591016e-13 1.207644e-13))
2363.504243   	((2.349346e-11 3.198430e-11 8.027435e-12) (1.850593e-11 4.709134e-12 -5.700709e-12)) ((2.160788e-12 -1.389412e-15 -2.900268e-15) (1.718025e-08 -1.311742e-13 1.091218e-13))
2525.05407    	((2.540286e-11 3.086429e-11 6.947079e-12) (1.949890e-11 5.170879e-12 -5.543052e-12)) ((2.149653e-12 -1.528447e-15 -2.839370e-15) (1.711275e-08 -1.111557e-13 1.058192e-13))
2686.614633   	((2.715416e-11 2.986127e-11 6.461935e-12) (2.076991e-11 5.478744e-12 -5.465845e-12)) ((2.140103e-12 -1.556995e-15 -2.772890e-15) (1.705454e-08 -9.565931e-14 1.028958e-13))
2848.1867     	((2.838504e-11 2.853435e-11 6.039020e-12) (2.188316e-11 5.731560e-12 -5.332099e-12)) ((2.131927e-12 -1.563511e-15 -2.713095e-15) (1.700413e-08 -8.446080e-14 9.771223e-14))
3009.770732   	((2.890440e-11 2.724061e-11 5.545384e-12) (2.251894e-11 5.813635e-12 -5.176141e-12)) ((2.124916e-12 -1.599098e-15 -2.649837e-15) (1.696028e-08 -7.685064e-14 9.093896e-14))
3171.366949   	((2.932055e-11 2.580980e-11 5.026014e-12) (2.299980e-11 5.710738e-12 -5.253469e-12)) ((2.118809e-12 -1.644865e-15 -2.577931e-15) (1.692199e-08 -7.229651e-14 8.365576e-14))
3332.96701    	((2.922274e-11 2.459874e-11 4.300117e-12) (2.334062e-11 5.523470e-12 -5.432479e-12)) ((2.113465e-12 -1.663723e-15 -2.516932e-15) (1.688840e-08 -6.788449e-14 7.662578e-14))
3494.570524   	((2.895906e-11 2.363979e-11 3.479029e-12) (2.361469e-11 5.415694e-12 -5.491847e-12)) ((2.108730e-12 -1.665644e-15 -2.458094e-15) (1.685884e-08 -6.236860e-14 6.878758e-14))
3656.177527   	((2.851777e-11 2.274934e-11 2.847637e-12) (2.362928e-11 5.384847e-12 -5.483457e-12)) ((2.104547e-12 -1.669945e-15 -2.413299e-15) (1.683272e-08 -5.553371e-14 6.109120e-14))
3817.787706   	((2.941325e-11 2.207913e-11 2.375964e-12) (2.364984e-11 5.426245e-12 -5.463425e-12)) ((2.100865e-12 -1.687056e-15 -2.370361e-15) (1.680958e-08 -4.705294e-14 5.410459e-14))
