# Forces      
# CofR        : (0.000000e+00 0.000000e+00 0.000000e+00)
# Time        forces(pressure viscous)	moments(pressure viscous)
0             	((0.000000e+00 0.000000e+00 0.000000e+00) (-1.435170e-14 1.005026e-04 3.950385e-16)) ((0.000000e+00 0.000000e+00 0.000000e+00) (4.979054e-16 2.234872e-17 -3.666137e-11))
0.012         	((-1.070110e-10 2.923109e-02 -4.974394e-09) (-6.622453e-11 1.153160e-04 -8.734916e-11)) ((1.193289e-11 2.030016e-13 -5.522440e-09) (5.307442e-13 2.101618e-14 -7.530283e-11))
0.0264        	((-1.693318e-07 -2.067254e-03 -4.904950e-09) (-2.322902e-10 1.176109e-04 -8.709820e-11)) ((-2.361941e-11 -3.311853e-12 3.647207e-10) (-6.225577e-13 -1.411784e-13 -1.006128e-10))
0.04368       	((4.182825e-07 -6.092038e-03 -1.865898e-07) (1.651102e-10 1.044743e-04 -1.535199e-10)) ((-1.452135e-11 3.992589e-12 1.470988e-09) (-3.919349e-12 -1.953111e-13 -8.594468e-11))
0.064416      	((-5.042160e-08 -5.769495e-05 1.012372e-07) (1.911995e-09 9.251791e-05 1.132674e-09)) ((1.051000e-11 9.989950e-13 -7.435961e-11) (7.127814e-12 -4.010639e-13 -1.084537e-10))
0.0892992     	((-8.515538e-08 7.538435e-05 7.598551e-08) (1.997045e-09 8.540276e-05 2.183612e-09)) ((9.339401e-13 -3.194402e-12 -8.433061e-11) (9.425200e-12 -1.884132e-12 -1.222027e-10))
0.119159      	((4.472697e-08 -9.310375e-05 1.234847e-07) (8.675681e-10 7.885649e-05 2.220370e-09)) ((7.679909e-12 5.749219e-13 3.114848e-11) (-1.316864e-11 -3.571177e-12 -1.105930e-10))
0.154991      	((-1.875603e-08 -4.935492e-05 2.301743e-08) (5.800760e-10 7.193429e-05 2.003276e-09)) ((6.123293e-12 1.793156e-12 3.110926e-12) (-2.867079e-11 -5.362427e-12 -6.955330e-11))
0.197989      	((-1.162561e-09 -1.188827e-05 -1.667675e-09) (3.288360e-10 6.497318e-05 1.452452e-09)) ((6.444341e-12 9.665969e-13 -3.334021e-12) (-2.382822e-11 -6.168568e-12 -3.658936e-11))
0.249587      	((-5.926589e-09 1.745090e-06 2.297779e-09) (-2.130515e-12 5.817343e-05 1.052677e-09)) ((4.114344e-12 6.016725e-13 -4.890974e-12) (-1.522682e-11 -5.318577e-12 -2.151668e-11))
0.311504      	((-6.771070e-09 7.896289e-06 -6.465130e-11) (-3.186339e-10 5.174388e-05 7.255429e-10)) ((3.140566e-12 2.727322e-13 -5.205139e-12) (-6.086989e-12 -3.342085e-12 1.708828e-11))
0.385805      	((-4.351216e-09 1.090598e-05 -6.730252e-10) (-5.005275e-10 4.585138e-05 4.761045e-10)) ((2.209425e-12 2.140398e-13 -3.640325e-12) (1.815100e-12 -8.045040e-13 4.162847e-11))
0.474966      	((-2.784637e-09 1.245759e-05 -2.459681e-09) (-3.270572e-10 4.059268e-05 3.792276e-10)) ((1.417807e-12 2.207420e-14 -3.099127e-12) (5.836428e-12 3.442803e-13 4.935172e-11))
0.581959      	((-1.762751e-09 1.311534e-05 -2.395626e-09) (1.276661e-10 3.597698e-05 3.053843e-10)) ((8.910541e-13 4.362653e-14 -2.800983e-12) (8.035033e-12 1.420056e-13 4.236756e-11))
0.710351      	((-6.772151e-10 1.308736e-05 -2.038921e-09) (5.500622e-10 3.197864e-05 2.086078e-10)) ((5.276444e-13 1.106730e-14 -2.347225e-12) (9.559336e-12 -2.769793e-13 2.766556e-11))
0.864421      	((-4.112559e-10 1.262107e-05 -1.568911e-09) (8.206513e-10 2.854759e-05 1.455714e-10)) ((2.669026e-13 -1.392693e-14 -2.747696e-12) (8.205739e-12 -6.520142e-13 1.219818e-11))
1.049306      	((-3.874068e-10 1.192759e-05 -1.290433e-09) (9.107115e-10 2.560919e-05 1.118018e-10)) ((1.042598e-13 -1.438661e-14 -2.857963e-12) (5.659245e-12 -9.246579e-13 -5.604784e-12))
1.271167      	((-3.497340e-10 1.113969e-05 -9.923035e-10) (9.132489e-10 2.308361e-05 7.352775e-11)) ((3.213456e-14 -1.606545e-14 -2.501909e-12) (4.186192e-12 -1.126010e-12 -2.457826e-11))
1.5374        	((7.817091e-11 1.031573e-05 -6.537550e-10) (8.615565e-10 2.089020e-05 4.787293e-11)) ((-1.937280e-15 -8.457635e-15 -2.293610e-12) (3.151333e-12 -1.171982e-12 -3.910692e-11))
1.85688       	((1.644477e-10 9.506445e-06 -5.191650e-10) (7.120602e-10 1.895969e-05 2.680499e-11)) ((-1.616669e-14 -1.395107e-14 -2.176667e-12) (2.414977e-12 -1.053997e-12 -4.834169e-11))
2.240256      	((3.158545e-10 8.741971e-06 -5.293994e-10) (4.617707e-10 1.724482e-05 4.294188e-12)) ((-2.092694e-14 -1.686424e-14 -2.137686e-12) (1.401155e-12 -9.316534e-13 -5.363912e-11))
2.700307      	((3.543473e-10 8.032862e-06 -4.964908e-10) (2.125223e-10 1.571307e-05 -2.239339e-11)) ((-2.046080e-14 -1.416242e-14 -2.147205e-12) (-4.340912e-13 -8.108004e-13 -5.435532e-11))
3.252369      	((1.267738e-10 7.378879e-06 -5.642498e-10) (1.192179e-10 1.433979e-05 -4.985362e-11)) ((-1.002450e-14 -1.496085e-14 -2.116167e-12) (-2.309669e-12 -6.537653e-13 -5.161277e-11))
3.914842      	((-2.488909e-10 6.775829e-06 -7.291617e-10) (6.202433e-11 1.310587e-05 -6.912489e-11)) ((-1.039651e-15 -2.128909e-14 -1.936052e-12) (-3.431313e-12 -6.163740e-13 -4.827335e-11))
4.709811      	((-2.914302e-10 6.224816e-06 -9.087150e-10) (9.684505e-11 1.199738e-05 -7.637328e-11)) ((1.523867e-14 -2.996385e-14 -1.685240e-12) (-4.165901e-12 -5.978470e-13 -4.811495e-11))
5.663773      	((-5.860274e-10 5.728316e-06 -1.181082e-09) (1.681545e-10 1.100376e-05 -6.934264e-11)) ((2.971752e-14 -2.933365e-14 -1.464371e-12) (-4.940762e-12 -4.853726e-13 -4.750909e-11))
6.808528      	((-5.280100e-10 5.285076e-06 -1.038174e-09) (1.228498e-10 1.011493e-05 -5.287473e-11)) ((3.259939e-14 -2.604456e-14 -1.288561e-12) (-5.905920e-12 -4.563246e-13 -4.581043e-11))
8.182233      	((-6.217994e-10 4.892292e-06 -1.278091e-09) (1.026355e-10 9.320218e-06 -4.781001e-11)) ((3.057770e-14 -2.581287e-14 -1.161039e-12) (-6.719698e-12 -4.046644e-13 -4.169385e-11))
9.83068       	((-9.766750e-10 4.548522e-06 -1.582349e-09) (4.526910e-11 8.608718e-06 -6.385379e-11)) ((2.681844e-14 -3.300508e-14 -1.111706e-12) (-7.922300e-12 -3.315595e-13 -3.381835e-11))
11.808816     	((-1.277506e-09 4.252239e-06 -1.617367e-09) (-4.424575e-11 7.970102e-06 -8.669628e-11)) ((3.300353e-14 -3.887618e-14 -1.114742e-12) (-1.049277e-11 -3.150542e-13 -2.367674e-11))
14.182579     	((-1.316116e-09 4.001794e-06 -1.957706e-09) (-8.387904e-11 7.396025e-06 -1.357611e-10)) ((4.485230e-14 -3.954222e-14 -1.149338e-12) (-1.520921e-11 -3.039531e-13 -1.154908e-11))
17.031095     	((-1.096669e-09 3.794034e-06 -1.795760e-09) (-9.835886e-11 6.880289e-06 -1.884622e-10)) ((4.960616e-14 -4.017674e-14 -1.223332e-12) (-2.161131e-11 -2.963374e-13 2.484887e-12))
20.449314     	((-8.262326e-10 3.629202e-06 -1.639481e-09) (-1.118291e-10 6.418236e-06 -2.269826e-10)) ((5.048089e-14 -4.124137e-14 -1.321874e-12) (-2.804791e-11 -3.805087e-13 1.543537e-11))
24.551176     	((-7.753422e-10 3.505743e-06 -1.532256e-09) (-1.401563e-10 6.006258e-06 -2.551633e-10)) ((5.044306e-14 -4.377526e-14 -1.456032e-12) (-3.273575e-11 -4.252202e-13 2.602222e-11))
29.473411     	((-4.108284e-10 3.422274e-06 -1.137110e-09) (-1.665702e-10 5.641564e-06 -2.672120e-10)) ((4.677495e-14 -4.187834e-14 -1.632940e-12) (-3.655954e-11 -4.352373e-13 3.510902e-11))
35.380094     	((4.949051e-11 3.377151e-06 -6.385044e-10) (-1.557704e-10 5.321592e-06 -2.651240e-10)) ((4.117752e-14 -4.296482e-14 -1.846510e-12) (-4.096172e-11 -2.280510e-13 4.378431e-11))
42.468112     	((6.044610e-10 3.368822e-06 -4.873369e-11) (-1.498832e-10 5.043926e-06 -2.382871e-10)) ((3.155922e-14 -4.050062e-14 -2.094718e-12) (-4.583960e-11 -1.209025e-13 5.146461e-11))
50.973735     	((1.447380e-09 3.393985e-06 9.449147e-10) (-1.147614e-10 4.806127e-06 -1.959919e-10)) ((1.757330e-14 -3.568606e-14 -2.385995e-12) (-5.100303e-11 -3.590005e-14 5.990659e-11))
61.180482     	((2.309989e-09 3.446224e-06 1.847571e-09) (-5.047178e-11 4.606281e-06 -1.262952e-10)) ((9.047964e-15 -3.507086e-14 -2.714301e-12) (-5.680879e-11 1.151601e-13 6.985314e-11))
73.428578     	((3.061484e-09 3.518280e-06 2.627718e-09) (5.114394e-11 4.442005e-06 -3.929186e-11)) ((5.431704e-15 -3.253013e-14 -3.071611e-12) (-6.493246e-11 -7.251572e-14 8.226947e-11))
88.073951     	((3.904247e-09 3.601419e-06 3.518430e-09) (1.804453e-10 4.310434e-06 7.557445e-11)) ((-1.229209e-14 -3.065377e-14 -3.405861e-12) (-7.327216e-11 6.495632e-14 9.374429e-11))
105.100554    	((4.711980e-09 3.685630e-06 4.379332e-09) (3.189269e-10 4.208512e-06 1.969053e-10)) ((-2.690349e-14 -3.036528e-14 -3.699012e-12) (-7.976697e-11 2.183420e-13 1.018128e-10))
124.492437    	((5.533299e-09 3.755428e-06 5.166748e-09) (4.874884e-10 4.129039e-06 3.522350e-10)) ((-3.737293e-14 -3.002937e-14 -3.905130e-12) (-8.309921e-11 3.049320e-14 1.070440e-10))
146.240204    	((6.377033e-09 3.804312e-06 5.930530e-09) (6.696097e-10 4.065217e-06 5.192128e-10)) ((-4.459459e-14 -3.103414e-14 -4.040805e-12) (-8.367286e-11 -3.119199e-15 1.089157e-10))
169.798336    	((7.183503e-09 3.833975e-06 6.619364e-09) (8.948555e-10 4.012295e-06 7.334308e-10)) ((-5.585899e-14 -3.146665e-14 -4.145945e-12) (-8.213746e-11 2.138955e-13 1.078488e-10))
193.418373    	((7.651436e-09 3.852102e-06 7.046531e-09) (1.145364e-09 3.968528e-06 9.722777e-10)) ((-6.028410e-14 -3.054413e-14 -4.252040e-12) (-7.890105e-11 4.092887e-13 1.055657e-10))
217.096935    	((7.922464e-09 3.859671e-06 7.305532e-09) (1.380119e-09 3.931192e-06 1.182746e-09)) ((-6.260420e-14 -3.211648e-14 -4.338781e-12) (-7.508778e-11 4.059423e-13 1.028418e-10))
240.807978    	((7.993435e-09 3.862963e-06 7.328482e-09) (1.581158e-09 3.899398e-06 1.359733e-09)) ((-6.075150e-14 -3.349823e-14 -4.409265e-12) (-7.048513e-11 4.059033e-13 9.893509e-11))
264.53619     	((7.903302e-09 3.863790e-06 7.209457e-09) (1.740762e-09 3.872278e-06 1.499202e-09)) ((-5.932705e-14 -3.470539e-14 -4.462338e-12) (-6.544128e-11 3.397487e-13 9.422909e-11))
288.27937     	((7.610985e-09 3.863175e-06 6.922165e-09) (1.846176e-09 3.849111e-06 1.589938e-09)) ((-5.810202e-14 -3.554355e-14 -4.503506e-12) (-6.022907e-11 2.996568e-13 8.917214e-11))
312.038091    	((7.265160e-09 3.861419e-06 6.582560e-09) (1.914065e-09 3.829245e-06 1.645708e-09)) ((-5.631180e-14 -3.569145e-14 -4.536550e-12) (-5.481126e-11 2.914522e-13 8.384840e-11))
335.811135    	((6.892682e-09 3.859064e-06 6.181595e-09) (1.952450e-09 3.812177e-06 1.668131e-09)) ((-5.373125e-14 -3.592573e-14 -4.564867e-12) (-4.936390e-11 2.899429e-13 7.853919e-11))
359.596495    	((6.488987e-09 3.856478e-06 5.786462e-09) (1.962662e-09 3.797493e-06 1.670982e-09)) ((-5.146282e-14 -3.632928e-14 -4.588859e-12) (-4.397470e-11 2.487522e-13 7.329512e-11))
383.392505    	((6.052810e-09 3.853788e-06 5.344239e-09) (1.949119e-09 3.784823e-06 1.651952e-09)) ((-4.891936e-14 -3.673623e-14 -4.609843e-12) (-3.877483e-11 1.567598e-13 6.827004e-11))
407.19785     	((5.573886e-09 3.851172e-06 4.873727e-09) (1.919145e-09 3.773868e-06 1.614885e-09)) ((-4.649766e-14 -3.710818e-14 -4.627935e-12) (-3.385449e-11 6.681373e-14 6.340157e-11))
431.011372    	((5.100728e-09 3.848663e-06 4.391230e-09) (1.875627e-09 3.764382e-06 1.562436e-09)) ((-4.435877e-14 -3.732831e-14 -4.643907e-12) (-2.923726e-11 -2.528951e-14 5.874380e-11))
454.832054    	((4.623986e-09 3.846300e-06 3.922577e-09) (1.817430e-09 3.756145e-06 1.497285e-09)) ((-4.179622e-14 -3.730229e-14 -4.657568e-12) (-2.497758e-11 -8.379252e-14 5.445193e-11))
478.659015    	((4.161623e-09 3.844118e-06 3.465277e-09) (1.749746e-09 3.748979e-06 1.424099e-09)) ((-3.960411e-14 -3.745664e-14 -4.669087e-12) (-2.102925e-11 -1.221534e-13 5.048736e-11))
502.491487    	((3.716783e-09 3.842088e-06 3.035831e-09) (1.673134e-09 3.742738e-06 1.345900e-09)) ((-3.768843e-14 -3.770846e-14 -4.678964e-12) (-1.737823e-11 -1.639013e-13 4.682024e-11))
526.328792    	((3.324558e-09 3.840174e-06 2.646487e-09) (1.592683e-09 3.737288e-06 1.266151e-09)) ((-3.629369e-14 -3.815515e-14 -4.687387e-12) (-1.400307e-11 -2.109296e-13 4.345750e-11))
550.170339    	((2.930726e-09 3.838397e-06 2.268152e-09) (1.508787e-09 3.732516e-06 1.185330e-09)) ((-3.480229e-14 -3.839277e-14 -4.694827e-12) (-1.089479e-11 -2.562348e-13 4.039189e-11))
574.015619    	((2.597252e-09 3.836805e-06 1.939611e-09) (1.427048e-09 3.728336e-06 1.106855e-09)) ((-3.376977e-14 -3.851643e-14 -4.701422e-12) (-8.031495e-12 -2.815203e-13 3.759314e-11))
597.864192    	((2.276102e-09 3.835347e-06 1.626740e-09) (1.347983e-09 3.724669e-06 1.031795e-09)) ((-3.265424e-14 -3.866657e-14 -4.707181e-12) (-5.421498e-12 -2.911628e-13 3.502300e-11))
621.715675    	((1.997663e-09 3.834021e-06 1.345576e-09) (1.273047e-09 3.721447e-06 9.604176e-10)) ((-3.181142e-14 -3.884697e-14 -4.712134e-12) (-3.059686e-12 -2.975943e-13 3.271628e-11))
645.569727    	((1.740800e-09 3.832812e-06 1.093691e-09) (1.203017e-09 3.718612e-06 8.932762e-10)) ((-3.108931e-14 -3.899283e-14 -4.716438e-12) (-9.338673e-13 -3.045064e-13 3.064287e-11))
669.426046    	((1.512569e-09 3.831714e-06 8.694436e-10) (1.138383e-09 3.716115e-06 8.312452e-10)) ((-3.043956e-14 -3.903888e-14 -4.720186e-12) (9.786493e-13 -3.105999e-13 2.878606e-11))
693.284371    	((1.311694e-09 3.830730e-06 6.713433e-10) (1.079653e-09 3.713913e-06 7.748185e-10)) ((-2.984548e-14 -3.908407e-14 -4.723461e-12) (2.697555e-12 -3.149861e-13 2.712247e-11))
717.144468    	((1.134764e-09 3.829841e-06 4.944188e-10) (1.026570e-09 3.711971e-06 7.234926e-10)) ((-2.925635e-14 -3.916087e-14 -4.726359e-12) (4.229612e-12 -3.185720e-13 2.563427e-11))
741.005989    	((9.822088e-10 3.829040e-06 3.396841e-10) (9.793399e-10 3.710255e-06 6.774093e-10)) ((-2.873522e-14 -3.926436e-14 -4.728891e-12) (5.595027e-12 -3.220224e-13 2.431241e-11))
764.868554    	((8.448107e-10 3.828310e-06 2.037622e-10) (9.372988e-10 3.708737e-06 6.362856e-10)) ((-2.832943e-14 -3.939306e-14 -4.731137e-12) (6.808392e-12 -3.248186e-13 2.314039e-11))
788.732043    	((7.243459e-10 3.827663e-06 8.029774e-11) (9.000503e-10 3.707395e-06 5.994946e-10)) ((-2.790853e-14 -3.952755e-14 -4.733132e-12) (7.888062e-12 -3.261697e-13 2.210022e-11))
812.596351    	((6.175140e-10 3.827073e-06 -2.702104e-11) (8.671891e-10 3.706207e-06 5.668230e-10)) ((-2.758696e-14 -3.964872e-14 -4.734864e-12) (8.844175e-12 -3.253184e-13 2.117277e-11))
836.461386    	((5.235715e-10 3.826547e-06 -1.231600e-10) (8.381472e-10 3.705154e-06 5.377716e-10)) ((-2.727977e-14 -3.970144e-14 -4.736443e-12) (9.693567e-12 -3.230138e-13 2.034895e-11))
860.327067    	((4.405979e-10 3.826076e-06 -2.075485e-10) (8.125483e-10 3.704220e-06 5.120232e-10)) ((-2.700110e-14 -3.975425e-14 -4.737842e-12) (1.044891e-11 -3.209371e-13 1.961767e-11))
884.193322    	((3.658635e-10 3.825651e-06 -2.841803e-10) (7.898129e-10 3.703392e-06 4.892181e-10)) ((-2.672253e-14 -3.980449e-14 -4.739085e-12) (1.112083e-11 -3.194003e-13 1.896832e-11))
908.060087    	((2.993266e-10 3.825271e-06 -3.527880e-10) (7.696208e-10 3.702657e-06 4.688131e-10)) ((-2.647331e-14 -3.985738e-14 -4.740174e-12) (1.171785e-11 -3.188956e-13 1.839085e-11))
931.927307    	((2.388590e-10 3.824929e-06 -4.142503e-10) (7.516153e-10 3.702005e-06 4.505674e-10)) ((-2.624359e-14 -3.989910e-14 -4.741139e-12) (1.225109e-11 -3.187177e-13 1.787344e-11))
955.794929    	((1.844504e-10 3.824622e-06 -4.704478e-10) (7.356028e-10 3.701426e-06 4.342225e-10)) ((-2.602447e-14 -3.993733e-14 -4.741998e-12) (1.272888e-11 -3.179178e-13 1.740978e-11))
979.662909    	((1.347812e-10 3.824347e-06 -5.209442e-10) (7.212181e-10 3.700911e-06 4.195416e-10)) ((-2.582318e-14 -3.997095e-14 -4.742764e-12) (1.315642e-11 -3.170200e-13 1.699436e-11))
1003.531207   	((8.965241e-11 3.824102e-06 -5.668872e-10) (7.082254e-10 3.700454e-06 4.062611e-10)) ((-2.563378e-14 -3.999489e-14 -4.743458e-12) (1.353886e-11 -3.161422e-13 1.662172e-11))
1027.399787   	((4.894415e-11 3.823883e-06 -6.084431e-10) (6.964984e-10 3.700047e-06 3.942664e-10)) ((-2.545405e-14 -4.002350e-14 -4.744077e-12) (1.388203e-11 -3.153638e-13 1.628574e-11))
1051.268617   	((1.100302e-11 3.823687e-06 -6.468237e-10) (6.858331e-10 3.699686e-06 3.833764e-10)) ((-2.529125e-14 -4.004787e-14 -4.744625e-12) (1.419003e-11 -3.147642e-13 1.598323e-11))
1075.137669   	((-2.325314e-11 3.823511e-06 -6.815646e-10) (6.761004e-10 3.699364e-06 3.734398e-10)) ((-2.513371e-14 -4.007171e-14 -4.745117e-12) (1.446500e-11 -3.142591e-13 1.571260e-11))
1099.006918   	((-5.456121e-11 3.823353e-06 -7.133122e-10) (6.672059e-10 3.699078e-06 3.643680e-10)) ((-2.500424e-14 -4.009364e-14 -4.745548e-12) (1.471021e-11 -3.137808e-13 1.547046e-11))
1122.876343   	((-8.298952e-11 3.823212e-06 -7.421448e-10) (6.590868e-10 3.698824e-06 3.561102e-10)) ((-2.488181e-14 -4.011028e-14 -4.745935e-12) (1.493055e-11 -3.133166e-13 1.525252e-11))
1146.745922   	((-1.088248e-10 3.823085e-06 -7.686590e-10) (6.516933e-10 3.698597e-06 3.485986e-10)) ((-2.477361e-14 -4.012406e-14 -4.746278e-12) (1.512865e-11 -3.130784e-13 1.505583e-11))
1170.615639   	((-1.320987e-10 3.822973e-06 -7.921662e-10) (6.449710e-10 3.698395e-06 3.417819e-10)) ((-2.467440e-14 -4.013816e-14 -4.746579e-12) (1.530681e-11 -3.130164e-13 1.487896e-11))
1194.485479   	((-1.528241e-10 3.822875e-06 -8.131204e-10) (6.388551e-10 3.698216e-06 3.355807e-10)) ((-2.459617e-14 -4.014925e-14 -4.746853e-12) (1.546708e-11 -3.130885e-13 1.472036e-11))
1218.355427   	((-1.715910e-10 3.822786e-06 -8.321534e-10) (6.333158e-10 3.698056e-06 3.299633e-10)) ((-2.451322e-14 -4.016179e-14 -4.747094e-12) (1.561103e-11 -3.131809e-13 1.457822e-11))
1242.225472   	((-1.884107e-10 3.822705e-06 -8.489871e-10) (6.283039e-10 3.697913e-06 3.248824e-10)) ((-2.445288e-14 -4.017203e-14 -4.747312e-12) (1.573981e-11 -3.132517e-13 1.445069e-11))
1266.095603   	((-2.034192e-10 3.822633e-06 -8.639765e-10) (6.237929e-10 3.697786e-06 3.203067e-10)) ((-2.439100e-14 -4.018181e-14 -4.747502e-12) (1.585538e-11 -3.132967e-13 1.433604e-11))
1289.96581    	((-2.167606e-10 3.822569e-06 -8.776574e-10) (6.197580e-10 3.697673e-06 3.162013e-10)) ((-2.433168e-14 -4.019247e-14 -4.747668e-12) (1.595851e-11 -3.133508e-13 1.423315e-11))
1313.836085   	((-2.288669e-10 3.822511e-06 -8.899472e-10) (6.161320e-10 3.697572e-06 3.125171e-10)) ((-2.428912e-14 -4.019915e-14 -4.747822e-12) (1.605034e-11 -3.133978e-13 1.414095e-11))
1337.70642    	((-2.393466e-10 3.822460e-06 -9.004185e-10) (6.129018e-10 3.697482e-06 3.092154e-10)) ((-2.424588e-14 -4.020757e-14 -4.747954e-12) (1.613209e-11 -3.134332e-13 1.405828e-11))
1361.576809   	((-2.485871e-10 3.822414e-06 -9.096251e-10) (6.100312e-10 3.697402e-06 3.062776e-10)) ((-2.421247e-14 -4.021434e-14 -4.748076e-12) (1.620465e-11 -3.134476e-13 1.398448e-11))
1385.447246   	((-2.567632e-10 3.822373e-06 -9.177049e-10) (6.074864e-10 3.697331e-06 3.036737e-10)) ((-2.418086e-14 -4.021871e-14 -4.748182e-12) (1.626927e-11 -3.134142e-13 1.391871e-11))
1409.317727   	((-2.639392e-10 3.822336e-06 -9.248717e-10) (6.052325e-10 3.697267e-06 3.013720e-10)) ((-2.415422e-14 -4.022196e-14 -4.748276e-12) (1.632693e-11 -3.133561e-13 1.386001e-11))
1433.188245   	((-2.704055e-10 3.822304e-06 -9.313551e-10) (6.032355e-10 3.697211e-06 2.993351e-10)) ((-2.413074e-14 -4.022557e-14 -4.748360e-12) (1.637845e-11 -3.132926e-13 1.380769e-11))
