# Forces      
# CofR        : (0.000000e+00 0.000000e+00 0.000000e+00)
# Time        forces(pressure viscous)	moments(pressure viscous)
0             	((0.000000e+00 0.000000e+00 0.000000e+00) (-1.388025e-15 -6.259054e-16 2.005089e-05)) ((0.000000e+00 0.000000e+00 0.000000e+00) (3.263168e-17 7.651936e-12 5.004931e-19))
0.012         	((-1.347145e-09 -3.814294e-09 5.827266e-03) (-1.782694e-11 -1.942297e-11 2.301167e-05)) ((2.490686e-12 1.544008e-09 2.198566e-14) (-1.221597e-13 2.253326e-11 1.184903e-15))
0.0264        	((6.684030e-10 2.390305e-08 -4.012426e-04) (-2.878905e-11 -8.878661e-12 2.348255e-05)) ((-3.719131e-12 -9.570784e-11 1.597146e-13) (-1.013637e-13 2.993474e-11 5.381639e-14))
0.04368       	((6.901045e-09 -2.003690e-08 -1.219777e-03) (-5.207828e-11 4.338737e-12 2.087219e-05)) ((-1.301674e-11 -2.750848e-10 -3.188005e-13) (3.761555e-13 3.055082e-11 4.351414e-14))
0.064416      	((-2.253783e-08 1.668127e-08 -1.154823e-05) (1.597932e-10 1.816169e-10 1.848983e-05)) ((4.254649e-12 4.391441e-12 1.456786e-13) (-1.500636e-12 3.481172e-11 -1.294772e-14))
0.0892992     	((2.578713e-08 -3.423536e-09 1.614528e-05) (3.205132e-10 2.866215e-10 1.707082e-05)) ((1.675407e-12 -9.069798e-12 -1.177323e-13) (-3.782186e-13 4.304202e-11 -4.401779e-14))
0.119159      	((2.263069e-09 7.516491e-09 -1.841439e-05) (2.779242e-10 2.516219e-10 1.576226e-05)) ((7.099141e-13 -1.178519e-11 1.452985e-13) (1.579611e-12 4.655582e-11 7.475099e-14))
0.154991      	((-1.351079e-09 -1.253072e-09 -1.008079e-05) (2.164829e-10 2.182171e-10 1.437521e-05)) ((-6.816757e-13 -1.009510e-11 1.940335e-13) (6.765925e-13 4.524071e-11 5.010791e-13))
0.197989      	((1.102839e-09 -2.162589e-09 -2.467064e-06) (1.590020e-10 1.382136e-10 1.297536e-05)) ((1.229975e-13 -5.138299e-12 8.643631e-14) (-7.058202e-13 3.896833e-11 7.958834e-13))
0.249587      	((2.390266e-10 4.589858e-10 3.031545e-07) (1.287108e-10 7.703927e-11 1.160174e-05)) ((2.657592e-13 -3.080015e-12 1.487412e-14) (-2.348137e-12 3.347890e-11 7.993613e-13))
0.311504      	((7.101902e-10 3.880627e-10 1.555420e-06) (1.005410e-10 3.264549e-11 1.029495e-05)) ((9.287536e-15 -1.356552e-12 3.662871e-15) (-3.240988e-12 3.045339e-11 7.838195e-13))
0.385805      	((1.096723e-10 -1.905038e-10 2.147080e-06) (9.024668e-11 2.241369e-12 9.088167e-06)) ((-1.892938e-14 -2.857207e-13 1.401255e-14) (-3.291300e-12 3.123800e-11 7.366399e-13))
0.474966      	((6.367780e-11 -2.057046e-10 2.427874e-06) (6.123076e-11 -6.588381e-12 8.005203e-06)) ((-1.184534e-14 3.208709e-13 8.601959e-15) (-2.320213e-12 3.154434e-11 6.322885e-13))
0.581959      	((9.670507e-11 -2.794274e-10 2.542529e-06) (2.419653e-11 -8.101393e-12 7.056198e-06)) ((-1.720517e-14 6.176853e-13 1.113616e-14) (-1.276020e-12 2.851524e-11 6.220456e-13))
0.710351      	((-7.043102e-11 -1.367653e-10 2.534795e-06) (2.094276e-11 1.776678e-12 6.241805e-06)) ((-3.990554e-15 8.820501e-13 8.957265e-15) (-7.583571e-13 2.174347e-11 5.656352e-13))
0.864421      	((-2.153151e-10 -2.009911e-10 2.444662e-06) (2.366658e-11 5.565415e-13 5.552166e-06)) ((-2.634669e-16 1.055920e-12 6.637892e-15) (-1.125748e-12 1.357565e-11 4.209740e-13))
1.049306      	((-2.912866e-10 -1.830220e-10 2.310675e-06) (3.931859e-11 -2.997294e-12 4.970107e-06)) ((-1.439604e-15 1.175814e-12 5.310002e-15) (-1.498945e-12 6.636111e-12 2.693648e-13))
1.271167      	((-2.773636e-10 -1.344590e-10 2.161331e-06) (6.214990e-11 -4.400901e-12 4.477471e-06)) ((-1.555018e-15 1.210784e-12 4.147320e-15) (-1.570835e-12 1.322024e-12 1.426570e-13))
1.5374        	((-1.922814e-10 -6.760792e-11 2.009189e-06) (7.614385e-11 -4.181226e-12 4.054955e-06)) ((-2.259100e-15 1.168699e-12 3.651904e-15) (-1.484222e-12 -3.627672e-12 7.504448e-14))
1.85688       	((-1.318058e-10 -4.220918e-11 1.860468e-06) (6.603432e-11 -2.946373e-12 3.685127e-06)) ((-3.258548e-15 1.178751e-12 2.893865e-15) (-1.250127e-12 -8.121188e-12 3.120221e-14))
2.240256      	((-1.505271e-10 -3.667476e-12 1.718978e-06) (2.711672e-11 -7.342517e-12 3.356479e-06)) ((-4.740219e-15 1.174616e-12 2.849471e-15) (-9.846484e-13 -1.201012e-11 -7.579296e-15))
2.700307      	((-1.786423e-10 -6.107716e-12 1.586688e-06) (-1.667598e-11 -1.139969e-11 3.061803e-06)) ((-4.543283e-15 1.165464e-12 2.208348e-15) (-7.051735e-13 -1.590417e-11 -3.279940e-14))
3.252369      	((-1.873900e-10 -4.314177e-13 1.463296e-06) (-4.015694e-11 -9.892014e-12 2.796340e-06)) ((-3.040214e-15 1.138532e-12 2.196623e-15) (-4.027460e-13 -1.867676e-11 -5.061764e-14))
3.914842      	((-2.249383e-10 5.523928e-12 1.347107e-06) (-4.427321e-11 -8.757864e-12 2.556652e-06)) ((-3.193970e-16 1.076673e-12 1.831764e-15) (-2.645551e-14 -1.945639e-11 -5.340531e-14))
4.709811      	((-2.008894e-10 1.747679e-11 1.238735e-06) (-3.698681e-11 -8.249372e-12 2.340316e-06)) ((1.466572e-15 1.003129e-12 1.970682e-15) (4.582850e-13 -1.911067e-11 -3.330902e-14))
5.663773      	((-1.635004e-10 -9.172306e-12 1.138666e-06) (-2.104613e-11 -5.592938e-12 2.145434e-06)) ((3.364021e-15 9.339620e-13 2.020510e-15) (8.070420e-13 -1.845190e-11 -1.726939e-14))
6.808528      	((-1.753650e-10 -3.877433e-11 1.047030e-06) (9.058430e-12 -2.185631e-12 1.970287e-06)) ((5.093830e-15 8.711200e-13 2.083872e-15) (9.612451e-13 -1.692681e-11 -2.483572e-14))
8.182233      	((-1.581016e-10 -5.382031e-11 9.636009e-07) (3.551259e-11 7.134131e-13 1.813109e-06)) ((3.208186e-15 8.211204e-13 1.649029e-15) (1.013547e-12 -1.524566e-11 -3.313248e-14))
9.83068       	((-1.169299e-10 -4.757289e-11 8.880044e-07) (4.365515e-11 4.321749e-12 1.671982e-06)) ((5.348676e-16 7.707880e-13 1.156561e-15) (1.076128e-12 -1.455371e-11 -5.168962e-14))
11.808816     	((-1.034834e-10 -6.269744e-11 8.188856e-07) (4.707453e-11 3.843202e-12 1.544860e-06)) ((-2.301329e-16 7.167352e-13 1.142623e-15) (1.566732e-12 -1.437022e-11 -3.996693e-14))
14.182579     	((-1.031522e-10 -8.240265e-11 7.556537e-07) (4.723993e-11 1.609744e-12 1.429799e-06)) ((1.938277e-15 6.666826e-13 1.571370e-15) (2.755162e-12 -1.435318e-11 -3.268086e-14))
17.031095     	((-6.700660e-11 -5.833823e-11 6.980610e-07) (4.232952e-11 -3.341786e-12 1.325261e-06)) ((2.625747e-15 6.248355e-13 1.979673e-15) (4.491861e-12 -1.468285e-11 -6.517470e-14))
20.449314     	((-8.415412e-11 -9.075015e-11 6.456983e-07) (3.664170e-11 -9.607809e-12 1.230108e-06)) ((1.894315e-15 5.884503e-13 2.267777e-15) (6.193608e-12 -1.516744e-11 -1.022230e-13))
24.551176     	((-9.049266e-11 -8.602133e-11 5.981343e-07) (2.552352e-11 -1.479717e-11 1.143493e-06)) ((2.311793e-15 5.514687e-13 2.699704e-15) (7.415928e-12 -1.555457e-11 -1.252204e-13))
29.473411     	((-4.906996e-11 -4.618682e-11 5.551518e-07) (1.388262e-11 -1.581809e-11 1.064767e-06)) ((2.366974e-15 5.169570e-13 2.923352e-15) (8.413844e-12 -1.589773e-11 -1.403396e-13))
35.380094     	((-3.292155e-11 -2.036987e-11 5.163362e-07) (1.114064e-11 -1.456735e-11 9.933420e-07)) ((1.600352e-15 4.853179e-13 2.814755e-15) (9.243492e-12 -1.602037e-11 -1.505743e-13))
42.468112     	((-1.963799e-11 -1.398097e-11 4.816007e-07) (7.633027e-12 -1.512025e-11 9.286896e-07)) ((2.317629e-15 4.531535e-13 2.595963e-15) (1.009525e-11 -1.635306e-11 -1.372781e-13))
50.973735     	((-6.902522e-12 -6.312158e-12 4.506784e-07) (1.755077e-12 -1.627089e-11 8.702433e-07)) ((4.399324e-15 4.211623e-13 2.452109e-15) (1.150551e-11 -1.739358e-11 -1.196671e-13))
61.180482     	((2.074379e-11 2.078175e-11 4.232952e-07) (-8.317332e-12 -1.752570e-11 8.174443e-07)) ((6.052539e-15 3.916815e-13 2.422163e-15) (1.353667e-11 -1.916201e-11 -1.104841e-13))
73.428578     	((3.797381e-11 4.291133e-11 3.991723e-07) (-1.656268e-11 -2.114023e-11 7.697659e-07)) ((6.559739e-15 3.662169e-13 2.326407e-15) (1.627052e-11 -2.163560e-11 -1.112775e-13))
88.126294     	((8.639271e-11 7.914849e-11 3.781509e-07) (-2.309210e-11 -2.516341e-11 7.267218e-07)) ((7.445436e-15 3.429081e-13 1.921246e-15) (1.959040e-11 -2.479537e-11 -1.108080e-13))
105.763553    	((1.172838e-10 1.106171e-10 3.600712e-07) (-3.020765e-11 -3.014889e-11 6.878965e-07)) ((8.485302e-15 3.218902e-13 1.714217e-15) (2.321987e-11 -2.836351e-11 -9.475573e-14))
126.928263    	((1.468109e-10 1.463958e-10 3.448544e-07) (-3.939903e-11 -3.592947e-11 6.529586e-07)) ((9.676245e-15 3.032345e-13 1.671813e-15) (2.694797e-11 -3.195478e-11 -7.504914e-14))
152.325916    	((1.669520e-10 1.620689e-10 3.322054e-07) (-4.868382e-11 -4.296078e-11 6.216539e-07)) ((1.062939e-14 2.869903e-13 1.662623e-15) (3.040290e-11 -3.524027e-11 -4.304299e-14))
182.803099    	((1.842011e-10 1.763089e-10 3.220721e-07) (-5.811431e-11 -5.112201e-11 5.937815e-07)) ((1.085945e-14 2.724626e-13 1.681388e-15) (3.340367e-11 -3.804864e-11 1.180527e-15))
219.375719    	((2.068919e-10 1.959005e-10 3.141594e-07) (-6.690290e-11 -5.832308e-11 5.691662e-07)) ((1.100284e-14 2.594431e-13 1.589411e-15) (3.583665e-11 -4.030239e-11 2.767029e-14))
263.262863    	((2.430795e-10 2.401207e-10 3.082928e-07) (-7.180770e-11 -6.166893e-11 5.476423e-07)) ((1.044646e-14 2.486000e-13 1.444449e-15) (3.760757e-11 -4.203072e-11 2.476447e-14))
315.927436    	((2.520883e-10 2.616076e-10 3.043433e-07) (-7.514730e-11 -6.179814e-11 5.290638e-07)) ((9.793209e-15 2.392955e-13 1.330994e-15) (3.871806e-11 -4.323944e-11 2.433447e-14))
379.124923    	((2.612970e-10 2.718145e-10 3.020357e-07) (-7.446200e-11 -5.971461e-11 5.132631e-07)) ((9.339968e-15 2.315802e-13 1.114771e-15) (3.915677e-11 -4.381456e-11 3.560820e-14))
454.961908    	((2.713449e-10 2.836210e-10 3.008957e-07) (-6.947345e-11 -5.526887e-11 5.000263e-07)) ((8.934187e-15 2.248369e-13 1.057312e-15) (3.884544e-11 -4.361657e-11 4.816738e-14))
545.966289    	((2.892088e-10 3.034253e-10 3.004761e-07) (-6.095736e-11 -4.719804e-11 4.890811e-07)) ((8.334618e-15 2.194446e-13 1.048788e-15) (3.783922e-11 -4.262820e-11 5.749329e-14))
653.244488    	((2.945937e-10 3.066709e-10 3.004203e-07) (-4.885394e-11 -3.526193e-11 4.801402e-07)) ((7.720994e-15 2.160222e-13 1.073028e-15) (3.624117e-11 -4.095448e-11 6.514086e-14))
776.795694    	((2.994951e-10 3.100994e-10 3.003957e-07) (-3.339091e-11 -2.009239e-11 4.728753e-07)) ((7.061430e-15 2.138302e-13 9.590244e-16) (3.425559e-11 -3.884942e-11 6.944626e-14))
916.628913    	((2.993815e-10 3.068500e-10 3.002896e-07) (-1.578174e-11 -2.966436e-12 4.669810e-07)) ((6.262328e-15 2.126712e-13 8.620003e-16) (3.202305e-11 -3.648999e-11 7.659315e-14))
1072.759996   	((2.886338e-10 2.963526e-10 3.001078e-07) (1.775404e-12 1.431484e-11 4.621970e-07)) ((5.529964e-15 2.116298e-13 8.196177e-16) (2.971274e-11 -3.405920e-11 9.251083e-14))
1235.916636   	((2.714619e-10 2.789783e-10 2.999658e-07) (1.790891e-11 3.011718e-11 4.583406e-07)) ((4.939829e-15 2.108896e-13 7.924531e-16) (2.742916e-11 -3.164957e-11 1.065924e-13))
1399.23839    	((2.514299e-10 2.582661e-10 2.998221e-07) (3.153862e-11 4.336539e-11 4.552288e-07)) ((4.450804e-15 2.103941e-13 7.540535e-16) (2.522416e-11 -2.934906e-11 1.131214e-13))
1562.702797   	((2.275022e-10 2.347916e-10 2.996804e-07) (4.214593e-11 5.374624e-11 4.527193e-07)) ((4.084006e-15 2.098127e-13 7.210234e-16) (2.312721e-11 -2.717601e-11 1.156275e-13))
1726.288069   	((2.028170e-10 2.099076e-10 2.995473e-07) (4.989067e-11 6.126159e-11 4.506964e-07)) ((3.740587e-15 2.093823e-13 7.158176e-16) (2.116721e-11 -2.516314e-11 1.187424e-13))
1889.975194   	((1.785711e-10 1.853170e-10 2.994292e-07) (5.491587e-11 6.604786e-11 4.490664e-07)) ((3.448906e-15 2.090274e-13 7.223329e-16) (1.937572e-11 -2.333004e-11 1.229873e-13))
2053.747923   	((1.555803e-10 1.617373e-10 2.993276e-07) (5.774544e-11 6.860751e-11 4.477526e-07)) ((3.192282e-15 2.087669e-13 7.268473e-16) (1.775357e-11 -2.167033e-11 1.260091e-13))
2217.592281   	((1.340377e-10 1.399145e-10 2.992411e-07) (5.874026e-11 6.938780e-11 4.466935e-07)) ((2.998025e-15 2.085468e-13 7.259672e-16) (1.629782e-11 -2.018380e-11 1.273693e-13))
2381.496349   	((1.142450e-10 1.196416e-10 2.991673e-07) (5.826170e-11 6.875946e-11 4.458386e-07)) ((2.796766e-15 2.084179e-13 7.321648e-16) (1.500341e-11 -1.886756e-11 1.277575e-13))
2545.450008   	((9.600254e-11 1.015259e-10 2.991056e-07) (5.662837e-11 6.705363e-11 4.451478e-07)) ((2.648006e-15 2.083012e-13 7.394322e-16) (1.386310e-11 -1.771098e-11 1.276990e-13))
2709.44476    	((7.968144e-11 8.523180e-11 2.990539e-07) (5.417140e-11 6.458097e-11 4.445891e-07)) ((2.511832e-15 2.082184e-13 7.427132e-16) (1.286505e-11 -1.670197e-11 1.275987e-13))
2873.473487   	((6.537280e-11 7.101178e-11 2.990110e-07) (5.123213e-11 6.164161e-11 4.441369e-07)) ((2.404695e-15 2.081533e-13 7.464269e-16) (1.199670e-11 -1.582570e-11 1.274779e-13))
3037.530264   	((5.297005e-11 5.861814e-11 2.989754e-07) (4.804118e-11 5.846804e-11 4.437706e-07)) ((2.334418e-15 2.080818e-13 7.536062e-16) (1.124534e-11 -1.506917e-11 1.272256e-13))
3201.610168   	((4.226816e-11 4.793137e-11 2.989459e-07) (4.478208e-11 5.522823e-11 4.434737e-07)) ((2.262016e-15 2.080367e-13 7.595307e-16) (1.059956e-11 -1.441969e-11 1.267714e-13))
3365.709134   	((3.316768e-11 3.893899e-11 2.989218e-07) (4.160121e-11 5.205913e-11 4.432330e-07)) ((2.194493e-15 2.080067e-13 7.632139e-16) (1.004697e-11 -1.386395e-11 1.262294e-13))
3529.823798   	((2.540508e-11 3.114311e-11 2.989016e-07) (3.858603e-11 4.904845e-11 4.430377e-07)) ((2.130034e-15 2.079902e-13 7.662776e-16) (9.576083e-12 -1.339064e-11 1.256984e-13))
3693.951381   	((1.890943e-11 2.477588e-11 2.988853e-07) (3.578538e-11 4.625645e-11 4.428792e-07)) ((2.072653e-15 2.079832e-13 7.691772e-16) (9.177176e-12 -1.299017e-11 1.252246e-13))
3858.089582   	((1.341284e-11 1.931922e-11 2.988716e-07) (3.323143e-11 4.370693e-11 4.427504e-07)) ((2.021372e-15 2.079812e-13 7.713473e-16) (8.840873e-12 -1.265273e-11 1.248235e-13))
4022.236507   	((8.890778e-12 1.485930e-11 2.988605e-07) (3.094463e-11 4.142418e-11 4.426458e-07)) ((1.982419e-15 2.079767e-13 7.726214e-16) (8.558644e-12 -1.236958e-11 1.244809e-13))
4186.390591   	((5.160893e-12 1.114381e-11 2.988513e-07) (2.892814e-11 3.940787e-11 4.425607e-07)) ((1.952996e-15 2.079717e-13 7.741455e-16) (8.322465e-12 -1.213269e-11 1.241845e-13))
4350.550546   	((2.086768e-12 8.129197e-12 2.988437e-07) (2.717224e-11 3.765544e-11 4.424916e-07)) ((1.929656e-15 2.079675e-13 7.750569e-16) (8.125410e-12 -1.193517e-11 1.239312e-13))
4514.715309   	((-4.221946e-13 5.657365e-12 2.988373e-07) (2.565858e-11 3.614594e-11 4.424353e-07)) ((1.909677e-15 2.079653e-13 7.760278e-16) (7.961797e-12 -1.177129e-11 1.237158e-13))
4678.884009   	((-2.461359e-12 3.637940e-12 2.988323e-07) (2.436897e-11 3.486067e-11 4.423895e-07)) ((1.893125e-15 2.079640e-13 7.768055e-16) (7.826155e-12 -1.163548e-11 1.235462e-13))
4843.055925   	((-4.120569e-12 2.014527e-12 2.988281e-07) (2.328016e-11 3.377665e-11 4.423523e-07)) ((1.879335e-15 2.079632e-13 7.773925e-16) (7.714032e-12 -1.152325e-11 1.234059e-13))
5007.230468   	((-5.465511e-12 7.014151e-13 2.988247e-07) (2.236967e-11 3.286962e-11 4.423219e-07)) ((1.867722e-15 2.079631e-13 7.779917e-16) (7.621461e-12 -1.143061e-11 1.232869e-13))
5171.407155   	((-6.563925e-12 -3.990209e-13 2.988218e-07) (2.161419e-11 3.211783e-11 4.422972e-07)) ((1.857594e-15 2.079635e-13 7.784331e-16) (7.545124e-12 -1.135428e-11 1.232011e-13))
5335.58559    	((-7.452643e-12 -1.314135e-12 2.988193e-07) (2.099087e-11 3.149608e-11 4.422770e-07)) ((1.849244e-15 2.079640e-13 7.788065e-16) (7.482313e-12 -1.129148e-11 1.231302e-13))
5499.765452   	((-8.172838e-12 -2.061349e-12 2.988174e-07) (2.048064e-11 3.098699e-11 4.422606e-07)) ((1.842125e-15 2.079645e-13 7.787729e-16) (7.430729e-12 -1.123991e-11 1.230652e-13))
5663.946474   	((-8.750199e-12 -2.624359e-12 2.988160e-07) (2.006374e-11 3.057030e-11 4.422473e-07)) ((1.836617e-15 2.079652e-13 7.789882e-16) (7.388351e-12 -1.119754e-11 1.230187e-13))
5828.128443   	((-9.220839e-12 -3.113152e-12 2.988147e-07) (1.972500e-11 3.023180e-11 4.422364e-07)) ((1.831569e-15 2.079658e-13 7.792049e-16) (7.353596e-12 -1.116279e-11 1.229805e-13))
5992.311182   	((-9.599619e-12 -3.470463e-12 2.988138e-07) (1.945022e-11 2.995692e-11 4.422275e-07)) ((1.827984e-15 2.079664e-13 7.793300e-16) (7.325128e-12 -1.113434e-11 1.229484e-13))
6156.494549   	((-9.898038e-12 -3.731994e-12 2.988131e-07) (1.922991e-11 2.973759e-11 4.422202e-07)) ((1.825317e-15 2.079668e-13 7.795226e-16) (7.301717e-12 -1.111098e-11 1.229329e-13))
6320.678427   	((-1.018200e-11 -4.094578e-12 2.988124e-07) (1.904992e-11 2.955654e-11 4.422143e-07)) ((1.822037e-15 2.079674e-13 7.796771e-16) (7.282588e-12 -1.109187e-11 1.229083e-13))
6484.86272    	((-1.038272e-11 -4.218974e-12 2.988118e-07) (1.890641e-11 2.941470e-11 4.422095e-07)) ((1.820770e-15 2.079673e-13 7.796682e-16) (7.266873e-12 -1.107619e-11 1.228924e-13))
6649.047353   	((-1.056133e-11 -4.389971e-12 2.988113e-07) (1.878753e-11 2.929369e-11 4.422056e-07)) ((1.820397e-15 2.079666e-13 7.796305e-16) (7.254029e-12 -1.106336e-11 1.228886e-13))
6813.232263   	((-1.070976e-11 -4.613828e-12 2.988112e-07) (1.869250e-11 2.919704e-11 4.422024e-07)) ((1.818533e-15 2.079675e-13 7.797798e-16) (7.243420e-12 -1.105277e-11 1.228812e-13))
6977.417399   	((-1.080499e-11 -4.700633e-12 2.988109e-07) (1.861617e-11 2.912072e-11 4.421998e-07)) ((1.816522e-15 2.079677e-13 7.798652e-16) (7.234702e-12 -1.104408e-11 1.228757e-13))
7141.602719   	((-1.092367e-11 -4.784197e-12 2.988103e-07) (1.855271e-11 2.905801e-11 4.421977e-07)) ((1.815906e-15 2.079676e-13 7.796238e-16) (7.227526e-12 -1.103693e-11 1.228707e-13))
