# Forces      
# CofR        : (0.000000e+00 0.000000e+00 0.000000e+00)
# Time        forces(pressure viscous)	moments(pressure viscous)
0             	((0.000000e+00 0.000000e+00 0.000000e+00) (7.993322e-04 -1.130389e-13 5.578595e-14)) ((0.000000e+00 0.000000e+00 0.000000e+00) (-1.580869e-15 -1.205371e-14 1.691606e-14))
0.012         	((2.324620e-01 -6.125348e-08 -1.411414e-09) (9.155846e-04 -6.823518e-10 -3.947509e-10)) ((2.900345e-13 -7.804118e-11 -3.023394e-11) (5.920489e-14 4.895202e-12 1.134148e-11))
0.0264        	((-2.014427e-02 -2.340363e-06 -5.569558e-06) (9.299238e-04 -2.848540e-09 -4.476666e-09)) ((4.289706e-11 5.761737e-11 7.938250e-12) (-8.874167e-14 1.864103e-11 2.532029e-11))
0.04368       	((-4.647345e-02 1.058863e-06 4.287527e-06) (8.223673e-04 -2.710472e-09 -2.873780e-09)) ((-3.418594e-11 1.306459e-10 1.875090e-10) (1.166117e-12 5.132620e-11 1.048926e-11))
0.064416      	((-4.184635e-04 4.627679e-07 -4.330573e-07) (7.264500e-04 5.901103e-09 8.916915e-09)) ((-1.590253e-12 -5.797889e-11 -6.776407e-11) (6.116084e-12 -1.753789e-12 4.606932e-11))
0.0892992     	((2.591017e-04 -3.750719e-07 2.246033e-07) (6.694862e-04 7.766771e-09 1.030788e-08)) ((2.808259e-11 2.430304e-12 -3.738736e-11) (-3.019798e-12 -2.013477e-11 1.043567e-10))
0.119159      	((-8.119578e-04 7.923006e-07 3.212793e-07) (6.181680e-04 4.447235e-09 7.375550e-09)) ((-8.118494e-12 -2.144985e-11 -2.376933e-11) (-1.002578e-11 6.660699e-11 8.795168e-11))
0.154991      	((-3.370169e-04 1.093233e-07 2.971154e-07) (5.651107e-04 1.604464e-09 6.321070e-09)) ((-7.121124e-12 -1.661669e-11 -7.171626e-12) (-2.201130e-12 5.329631e-11 1.801464e-10))
0.197989      	((-5.599344e-05 3.490275e-09 -4.551929e-08) (5.134441e-04 -1.431762e-09 2.815597e-09)) ((2.752229e-13 -6.998063e-13 -1.690565e-12) (5.148512e-12 -4.258042e-12 2.488067e-10))
0.249587      	((3.906122e-05 -4.317410e-08 -5.211089e-08) (4.648259e-04 -1.703345e-09 2.169251e-09)) ((-3.456152e-12 -1.600533e-11 6.145132e-13) (6.227825e-12 1.746219e-11 2.002062e-10))
0.311504      	((8.700513e-05 -5.408974e-08 -5.340368e-08) (4.205113e-04 -1.431714e-09 2.800683e-09)) ((-3.013996e-13 -6.106396e-12 1.125166e-14) (3.279335e-12 6.911530e-11 1.465624e-10))
0.385805      	((1.137025e-04 -5.171857e-08 -6.126805e-08) (3.811546e-04 -1.889693e-09 1.980090e-09)) ((-3.552687e-13 -4.527717e-12 -6.278733e-13) (6.937620e-13 8.925099e-11 1.092618e-10))
0.474966      	((1.264332e-04 -4.854674e-08 -4.618343e-08) (3.467334e-04 -2.746232e-09 1.168628e-09)) ((2.212476e-13 -2.423460e-12 -9.189228e-13) (-2.474144e-12 7.507861e-11 8.409100e-11))
0.581959      	((1.310328e-04 -3.819440e-08 -3.693073e-08) (3.164062e-04 -2.973059e-09 3.709601e-10)) ((5.533024e-13 -1.944511e-12 -8.980818e-13) (-4.732660e-12 4.954823e-11 6.956335e-11))
0.710351      	((1.305217e-04 -2.809449e-08 -2.342653e-08) (2.886836e-04 -2.724967e-09 -5.251017e-10)) ((6.801273e-13 -2.196040e-12 -7.775759e-13) (-5.399497e-12 2.033756e-11 6.406118e-11))
0.864421      	((1.265511e-04 -1.974528e-08 -2.672247e-08) (2.624930e-04 -2.578179e-09 -1.075784e-09)) ((2.099173e-13 -1.438906e-12 -5.426163e-13) (-6.388845e-12 -4.003653e-12 6.312076e-11))
1.049306      	((1.204524e-04 -1.542288e-08 -1.907626e-08) (2.377862e-04 -2.484344e-09 -1.717944e-09)) ((-3.681355e-14 -8.607543e-13 -4.939025e-13) (-6.580887e-12 -2.062675e-11 6.234001e-11))
1.271167      	((1.134394e-04 -1.031790e-08 -1.186055e-08) (2.149223e-04 -2.619774e-09 -2.305983e-09)) ((-2.007211e-13 -4.491708e-13 -2.706306e-13) (-5.712492e-12 -2.565161e-11 5.461906e-11))
1.5374        	((1.067621e-04 -8.753024e-09 -8.523300e-09) (1.942120e-04 -2.724752e-09 -2.480297e-09)) ((-2.533236e-13 -2.330933e-13 -1.471035e-13) (-3.967566e-12 -1.570628e-11 3.578873e-11))
1.85688       	((1.011418e-04 -4.956443e-09 -7.371301e-09) (1.758043e-04 -2.611742e-09 -2.361556e-09)) ((-8.193989e-14 -4.996728e-13 -1.575720e-13) (-2.201951e-12 1.101320e-11 4.782689e-12))
2.240256      	((9.697042e-05 -1.098617e-08 -8.998055e-09) (1.596381e-04 -2.327393e-09 -1.941884e-09)) ((5.820231e-14 -8.609328e-13 -1.524710e-13) (1.125437e-13 5.544570e-11 -4.002223e-11))
2.700307      	((9.442509e-05 -2.036088e-08 -2.184590e-08) (1.455359e-04 -1.926942e-09 -1.497061e-09)) ((-3.005523e-14 -1.325028e-12 -2.617499e-13) (2.950495e-12 1.142648e-10 -9.471206e-11))
3.252369      	((9.380239e-05 -4.349323e-08 -4.359866e-08) (1.333118e-04 -1.872433e-09 -1.520196e-09)) ((-9.808154e-14 -1.847121e-12 -2.771051e-13) (3.595030e-12 1.729567e-10 -1.490192e-10))
3.914842      	((9.497129e-05 -4.986983e-08 -5.112219e-08) (1.228082e-04 -2.220827e-09 -1.851534e-09)) ((-1.610387e-13 -1.863590e-12 -3.565830e-13) (4.874897e-12 2.025379e-10 -1.790165e-10))
4.709811      	((9.832089e-05 -6.505449e-08 -6.400785e-08) (1.138830e-04 -2.877042e-09 -2.372364e-09)) ((-1.599272e-13 -1.807623e-12 -5.398659e-13) (6.020260e-12 1.891180e-10 -1.676976e-10))
5.663773      	((1.038932e-04 -5.942935e-08 -5.508112e-08) (1.063778e-04 -3.462924e-09 -2.943565e-09)) ((-1.063589e-13 -1.646373e-12 -5.922817e-13) (6.582974e-12 1.367673e-10 -1.264179e-10))
6.808528      	((1.116845e-04 -5.074383e-08 -5.091179e-08) (1.001557e-04 -3.704333e-09 -3.333659e-09)) ((-1.049218e-13 -1.447506e-12 -5.614347e-13) (7.257124e-12 6.218178e-11 -4.686622e-11))
8.176671      	((1.215873e-04 -3.373733e-08 -3.231714e-08) (9.505818e-05 -3.260247e-09 -2.902528e-09)) ((-5.729170e-14 -1.225764e-12 -6.158834e-13) (7.142779e-12 -2.196712e-11 4.441847e-11))
9.768694      	((1.332366e-04 -1.357414e-08 -1.483361e-08) (9.097579e-05 -2.426021e-09 -2.057119e-09)) ((-2.022957e-13 -7.472782e-13 -6.921674e-13) (8.011885e-12 -1.019747e-10 1.199830e-10))
11.584733     	((1.459172e-04 7.125546e-09 5.570059e-09) (8.779250e-05 -5.038690e-10 -1.010635e-10)) ((-3.250704e-13 2.872331e-13 -8.149354e-13) (8.745909e-12 -1.983720e-10 2.055845e-10))
13.624231     	((1.591726e-04 1.627488e-08 1.461003e-08) (8.535300e-05 1.798893e-09 2.183577e-09)) ((-4.321951e-13 1.068222e-12 -1.010415e-12) (9.925468e-12 -3.040999e-10 3.151716e-10))
15.847428     	((1.720928e-04 2.774106e-08 2.246563e-08) (8.349852e-05 3.561593e-09 3.795194e-09)) ((-8.216305e-13 1.747111e-12 -1.372332e-12) (9.175666e-12 -3.628314e-10 3.774674e-10))
18.05645      	((1.833223e-04 2.023548e-08 1.556389e-08) (8.214668e-05 3.967569e-09 4.095328e-09)) ((-1.308058e-12 1.637570e-12 -1.578646e-12) (7.122336e-12 -3.519700e-10 3.733408e-10))
20.253715     	((1.924089e-04 3.053730e-08 2.826756e-08) (8.099382e-05 3.255403e-09 2.659931e-09)) ((-1.727583e-12 2.111373e-12 -1.705408e-12) (9.156632e-12 -2.393274e-10 2.896717e-10))
22.447517     	((1.987154e-04 4.157411e-08 4.363562e-08) (7.991788e-05 1.756120e-09 1.036396e-09)) ((-2.495463e-12 1.626343e-12 -1.605122e-12) (1.324690e-11 -7.342699e-11 1.369086e-10))
24.647291     	((2.031826e-04 5.151600e-08 5.506997e-08) (7.894051e-05 -4.482547e-10 -8.790999e-10)) ((-3.004602e-12 1.979495e-12 -1.514791e-12) (1.075301e-11 1.498121e-10 -8.945693e-11))
26.85777      	((2.051067e-04 2.219983e-08 2.991858e-08) (7.806618e-05 -3.429002e-09 -3.423002e-09)) ((-3.114656e-12 1.365731e-12 -1.345831e-12) (8.859418e-12 3.902492e-10 -3.401055e-10))
29.078802     	((2.053013e-04 2.980114e-09 1.455714e-08) (7.723988e-05 -6.681739e-09 -6.444544e-09)) ((-3.186111e-12 1.078780e-12 -1.207816e-12) (8.511952e-12 5.735415e-10 -5.133196e-10))
31.308476     	((2.044349e-04 -2.833950e-08 -1.262779e-08) (7.641635e-05 -1.032060e-08 -9.720847e-09)) ((-3.119504e-12 5.858540e-13 -1.222061e-12) (8.846649e-12 7.392330e-10 -6.761070e-10))
33.545712     	((2.032733e-04 -2.596193e-08 -7.120736e-09) (7.564189e-05 -1.458604e-08 -1.352546e-08)) ((-3.002032e-12 6.153042e-13 -1.162609e-12) (9.975400e-12 9.297071e-10 -8.732221e-10))
35.788743     	((2.020776e-04 -6.248923e-09 9.544527e-09) (7.494664e-05 -1.618568e-08 -1.523016e-08)) ((-3.062948e-12 2.994580e-13 -1.043975e-12) (1.104114e-11 1.051154e-09 -9.916638e-10))
38.035128     	((2.003607e-04 -1.554528e-08 1.219469e-09) (7.430738e-05 -1.625154e-08 -1.512698e-08)) ((-3.106508e-12 -4.175653e-13 -9.785907e-13) (9.664115e-12 1.085624e-09 -1.022460e-09))
40.285209     	((1.987871e-04 -3.154681e-08 -1.851908e-08) (7.371508e-05 -1.731399e-08 -1.619760e-08)) ((-3.097383e-12 -5.589212e-13 -9.999584e-13) (8.648806e-12 1.094655e-09 -1.027217e-09))
42.539725     	((1.973349e-04 -4.718845e-08 -3.052959e-08) (7.316639e-05 -1.848653e-08 -1.727986e-08)) ((-3.138421e-12 -6.215008e-13 -1.025539e-12) (8.530988e-12 1.070322e-09 -1.009279e-09))
44.79869      	((1.961068e-04 -7.079983e-08 -4.996790e-08) (7.265671e-05 -1.952285e-08 -1.781976e-08)) ((-3.275340e-12 -8.423902e-13 -1.005917e-12) (8.603019e-12 1.011069e-09 -9.626298e-10))
47.062241     	((1.950791e-04 -7.844513e-08 -6.300597e-08) (7.218420e-05 -2.006736e-08 -1.816293e-08)) ((-3.440731e-12 -8.334218e-13 -9.283737e-13) (8.973184e-12 9.276472e-10 -8.844188e-10))
49.330395     	((1.941140e-04 -7.642828e-08 -5.911144e-08) (7.174234e-05 -1.952112e-08 -1.785368e-08)) ((-3.522975e-12 -5.651261e-13 -9.264662e-13) (9.452518e-12 8.299462e-10 -7.887388e-10))
51.603196     	((1.931899e-04 -9.537476e-08 -7.218510e-08) (7.132775e-05 -1.885733e-08 -1.684812e-08)) ((-3.629767e-12 -6.222129e-13 -1.062686e-12) (1.007152e-11 7.218259e-10 -6.874692e-10))
53.88092      	((1.923415e-04 -1.199263e-07 -9.501830e-08) (7.093995e-05 -1.875426e-08 -1.640915e-08)) ((-3.737707e-12 -7.518578e-13 -1.210753e-12) (9.784785e-12 6.149103e-10 -5.830024e-10))
56.163966     	((1.915959e-04 -1.455249e-07 -1.086941e-07) (7.058178e-05 -1.907329e-08 -1.629895e-08)) ((-3.831556e-12 -7.831981e-13 -1.281359e-12) (8.495574e-12 5.072281e-10 -4.684316e-10))
58.452242     	((1.908390e-04 -1.761320e-07 -1.366918e-07) (7.024830e-05 -1.934767e-08 -1.646908e-08)) ((-3.908063e-12 -8.620133e-13 -1.321712e-12) (7.354787e-12 3.925800e-10 -3.304439e-10))
60.745551     	((1.901398e-04 -2.116621e-07 -1.579015e-07) (6.993668e-05 -1.956104e-08 -1.656256e-08)) ((-3.834118e-12 -1.048611e-12 -1.310832e-12) (7.669616e-12 2.499972e-10 -1.440799e-10))
63.043748     	((1.894916e-04 -2.462505e-07 -1.969332e-07) (6.964583e-05 -2.014488e-08 -1.666398e-08)) ((-3.761686e-12 -1.396201e-12 -1.311165e-12) (8.042515e-12 7.147301e-11 4.281467e-11))
65.346712     	((1.888143e-04 -2.878146e-07 -2.300685e-07) (6.937085e-05 -2.143179e-08 -1.761587e-08)) ((-3.578000e-12 -1.481734e-12 -1.323800e-12) (7.984277e-12 -8.373139e-11 2.085437e-10))
67.654335     	((1.880539e-04 -3.322904e-07 -2.635675e-07) (6.910609e-05 -2.355572e-08 -1.896603e-08)) ((-3.416645e-12 -1.636772e-12 -1.309351e-12) (7.275261e-12 -2.219391e-10 3.550081e-10))
69.966505     	((1.873653e-04 -3.662497e-07 -2.955873e-07) (6.885176e-05 -2.607494e-08 -2.067228e-08)) ((-3.197515e-12 -1.767593e-12 -1.346330e-12) (6.436579e-12 -3.475164e-10 4.833654e-10))
72.283207     	((1.867430e-04 -4.099628e-07 -3.299682e-07) (6.860960e-05 -2.913672e-08 -2.310217e-08)) ((-3.002445e-12 -1.852972e-12 -1.381371e-12) (7.203431e-12 -4.448087e-10 5.908101e-10))
74.604468     	((1.862369e-04 -4.560061e-07 -3.667202e-07) (6.838236e-05 -3.300480e-08 -2.622936e-08)) ((-2.868247e-12 -1.864695e-12 -1.361335e-12) (7.164338e-12 -5.136712e-10 6.695939e-10))
76.930158     	((1.857292e-04 -5.021402e-07 -4.033272e-07) (6.816923e-05 -3.760676e-08 -2.991886e-08)) ((-2.735587e-12 -1.923942e-12 -1.377580e-12) (7.125947e-12 -5.576161e-10 7.212440e-10))
79.260129     	((1.851846e-04 -5.567385e-07 -4.468158e-07) (6.796533e-05 -4.306120e-08 -3.433622e-08)) ((-2.587256e-12 -2.073213e-12 -1.457881e-12) (7.454430e-12 -5.785772e-10 7.416174e-10))
81.594226     	((1.846722e-04 -6.050354e-07 -4.802818e-07) (6.776829e-05 -4.902129e-08 -3.913000e-08)) ((-2.435518e-12 -2.159065e-12 -1.558787e-12) (7.572197e-12 -5.737954e-10 7.418201e-10))
83.932275     	((1.841622e-04 -6.677883e-07 -5.307964e-07) (6.757634e-05 -5.576572e-08 -4.464833e-08)) ((-2.334916e-12 -2.408527e-12 -1.649874e-12) (7.932748e-12 -5.483699e-10 7.305533e-10))
86.274161     	((1.836455e-04 -7.252522e-07 -5.781889e-07) (6.738910e-05 -6.288057e-08 -5.059439e-08)) ((-2.324319e-12 -2.784046e-12 -1.701778e-12) (9.222443e-12 -5.205218e-10 7.147857e-10))
88.61976      	((1.831261e-04 -8.027927e-07 -6.386390e-07) (6.720772e-05 -7.072597e-08 -5.717881e-08)) ((-2.310418e-12 -3.323785e-12 -1.722870e-12) (1.137472e-11 -4.939746e-10 7.023208e-10))
90.968866     	((1.826391e-04 -8.929265e-07 -7.086614e-07) (6.703443e-05 -7.978804e-08 -6.462808e-08)) ((-2.309904e-12 -3.959922e-12 -1.730234e-12) (1.280165e-11 -4.709647e-10 6.982840e-10))
93.32123      	((1.821491e-04 -1.005749e-06 -8.025537e-07) (6.686829e-05 -9.016952e-08 -7.338894e-08)) ((-2.299881e-12 -4.754230e-12 -1.783108e-12) (1.357632e-11 -4.599238e-10 7.154194e-10))
95.67672      	((1.817509e-04 -1.125891e-06 -8.961399e-07) (6.671082e-05 -1.016402e-07 -8.300126e-08)) ((-2.267365e-12 -5.380851e-12 -1.853538e-12) (1.308700e-11 -4.701552e-10 7.548377e-10))
98.035223     	((1.813969e-04 -1.275921e-06 -1.018061e-06) (6.656363e-05 -1.146994e-07 -9.380196e-08)) ((-2.212134e-12 -6.333299e-12 -1.952726e-12) (1.416199e-11 -5.133631e-10 8.186395e-10))
100.396633    	((1.810178e-04 -1.446856e-06 -1.159592e-06) (6.642368e-05 -1.296630e-07 -1.062599e-07)) ((-2.154179e-12 -7.425158e-12 -2.059072e-12) (1.626907e-11 -5.885751e-10 9.189890e-10))
102.760837    	((1.806356e-04 -1.633787e-06 -1.312891e-06) (6.628937e-05 -1.462290e-07 -1.200568e-07)) ((-2.065889e-12 -8.513002e-12 -2.205096e-12) (1.651488e-11 -6.924837e-10 1.062500e-09))
105.127719    	((1.802582e-04 -1.832300e-06 -1.476963e-06) (6.616040e-05 -1.641058e-07 -1.349487e-07)) ((-1.988778e-12 -9.682073e-12 -2.367735e-12) (1.666513e-11 -8.345893e-10 1.252697e-09))
107.497147    	((1.798779e-04 -2.045022e-06 -1.650303e-06) (6.603591e-05 -1.830793e-07 -1.506780e-07)) ((-1.881295e-12 -1.091323e-11 -2.554082e-12) (1.726408e-11 -1.022298e-09 1.490526e-09))
109.868992    	((1.795080e-04 -2.285144e-06 -1.846836e-06) (6.591567e-05 -2.035838e-07 -1.674673e-07)) ((-1.764748e-12 -1.237027e-11 -2.730550e-12) (1.810995e-11 -1.256474e-09 1.770038e-09))
112.243109    	((1.791350e-04 -2.558033e-06 -2.075694e-06) (6.579877e-05 -2.265121e-07 -1.862639e-07)) ((-1.530062e-12 -1.395939e-11 -2.919168e-12) (1.867702e-11 -1.531836e-09 2.092062e-09))
114.619343    	((1.787927e-04 -2.853740e-06 -2.321669e-06) (6.568558e-05 -2.517835e-07 -2.070367e-07)) ((-1.267986e-12 -1.556852e-11 -3.082228e-12) (1.845860e-11 -1.844296e-09 2.457514e-09))
116.997537    	((1.784744e-04 -3.187729e-06 -2.599478e-06) (6.557672e-05 -2.798930e-07 -2.302157e-07)) ((-1.041486e-12 -1.742304e-11 -3.253759e-12) (1.832643e-11 -2.188400e-09 2.858925e-09))
119.377534    	((1.781792e-04 -3.546454e-06 -2.897712e-06) (6.547216e-05 -3.109245e-07 -2.558208e-07)) ((-8.311302e-13 -1.935124e-11 -3.433114e-12) (1.835008e-11 -2.563780e-09 3.295018e-09))
121.759187    	((1.779040e-04 -3.929743e-06 -3.218868e-06) (6.537191e-05 -3.446606e-07 -2.837087e-07)) ((-6.338665e-13 -2.135270e-11 -3.602802e-12) (1.830117e-11 -2.972532e-09 3.767434e-09))
124.142362    	((1.776498e-04 -4.341812e-06 -3.564265e-06) (6.527597e-05 -3.811627e-07 -3.140325e-07)) ((-4.013650e-13 -2.351627e-11 -3.783876e-12) (1.738092e-11 -3.416072e-09 4.286183e-09))
126.52693     	((1.774119e-04 -4.784565e-06 -3.933613e-06) (6.518433e-05 -4.207090e-07 -3.468632e-07)) ((-8.296363e-14 -2.586789e-11 -3.969161e-12) (1.609625e-11 -3.891571e-09 4.848487e-09))
128.91277     	((1.771882e-04 -5.264598e-06 -4.333329e-06) (6.509699e-05 -4.638392e-07 -3.825869e-07)) ((2.188929e-13 -2.844248e-11 -4.197986e-12) (1.497122e-11 -4.393631e-09 5.439465e-09))
131.299764    	((1.769836e-04 -5.784098e-06 -4.763750e-06) (6.501422e-05 -5.109985e-07 -4.215954e-07)) ((5.401514e-13 -3.120409e-11 -4.478219e-12) (1.433417e-11 -4.914676e-09 6.054972e-09))
133.687791    	((1.767969e-04 -6.342854e-06 -5.225893e-06) (6.493635e-05 -5.624048e-07 -4.640975e-07)) ((8.788842e-13 -3.410231e-11 -4.833761e-12) (1.480702e-11 -5.451267e-09 6.693100e-09))
136.076726    	((1.766174e-04 -6.947244e-06 -5.725584e-06) (6.486327e-05 -6.184068e-07 -5.104005e-07)) ((1.284119e-12 -3.723735e-11 -5.275165e-12) (1.476933e-11 -6.006742e-09 7.351822e-09))
138.466442    	((1.764496e-04 -7.596475e-06 -6.256785e-06) (6.479485e-05 -6.793097e-07 -5.606002e-07)) ((1.666519e-12 -4.050207e-11 -5.733532e-12) (1.288041e-11 -6.576227e-09 8.029514e-09))
140.856805    	((1.762802e-04 -8.309197e-06 -6.835530e-06) (6.473031e-05 -7.460221e-07 -6.152107e-07)) ((2.063229e-12 -4.409869e-11 -6.063515e-12) (9.600266e-12 -7.167994e-09 8.726691e-09))
143.247678    	((1.761122e-04 -9.092915e-06 -7.469049e-06) (6.466871e-05 -8.197070e-07 -6.750772e-07)) ((2.494691e-12 -4.805879e-11 -6.195953e-12) (7.960784e-12 -7.777553e-09 9.440502e-09))
145.638916    	((1.759575e-04 -9.949074e-06 -8.161785e-06) (6.460968e-05 -9.010969e-07 -7.411635e-07)) ((2.885371e-12 -5.232210e-11 -6.297270e-12) (6.745368e-12 -8.392145e-09 1.016776e-08))
148.030366    	((1.758034e-04 -1.089601e-05 -8.922293e-06) (6.455276e-05 -9.915514e-07 -8.143326e-07)) ((3.229245e-12 -5.695807e-11 -6.746919e-12) (4.274436e-12 -9.009199e-09 1.090165e-08))
150.421867    	((1.756607e-04 -1.194211e-05 -9.762496e-06) (6.449813e-05 -1.092471e-06 -8.955850e-07)) ((3.724356e-12 -6.213921e-11 -7.703573e-12) (4.161116e-12 -9.631405e-09 1.163148e-08))
152.813244    	((1.755318e-04 -1.309601e-05 -1.069400e-05) (6.444648e-05 -1.204605e-06 -9.860529e-07)) ((4.312717e-12 -6.791887e-11 -8.976629e-12) (5.928583e-12 -1.026812e-08 1.238625e-08))
155.204303    	((1.754316e-04 -1.436596e-05 -1.171207e-05) (6.439873e-05 -1.328468e-06 -1.085689e-06)) ((4.896764e-12 -7.416418e-11 -1.023634e-11) (1.027200e-11 -1.095505e-08 1.320206e-08))
157.594832    	((1.753620e-04 -1.576705e-05 -1.283695e-05) (6.435547e-05 -1.464521e-06 -1.194899e-06)) ((5.607642e-12 -8.095436e-11 -1.143750e-11) (2.115320e-11 -1.173211e-08 1.412959e-08))
159.984609    	((1.753241e-04 -1.732070e-05 -1.408172e-05) (6.431724e-05 -1.613927e-06 -1.314820e-06)) ((6.688482e-12 -8.838657e-11 -1.269517e-11) (3.490381e-11 -1.262110e-08 1.521088e-08))
162.373393    	((1.753255e-04 -1.902399e-05 -1.546688e-05) (6.428436e-05 -1.777587e-06 -1.446929e-06)) ((8.157912e-12 -9.666313e-11 -1.407561e-11) (4.160279e-11 -1.363347e-08 1.645681e-08))
164.760924    	((1.753757e-04 -2.090429e-05 -1.700352e-05) (6.425754e-05 -1.957285e-06 -1.592667e-06)) ((1.020166e-11 -1.059240e-10 -1.570217e-11) (5.331768e-11 -1.478419e-08 1.786412e-08))
167.146917    	((1.754770e-04 -2.298244e-05 -1.869881e-05) (6.423801e-05 -2.155522e-06 -1.753435e-06)) ((1.285283e-11 -1.163131e-10 -1.742875e-11) (7.721224e-11 -1.608338e-08 1.944528e-08))
169.531059    	((1.756412e-04 -2.528237e-05 -2.058172e-05) (6.422647e-05 -2.374665e-06 -1.931320e-06)) ((1.624999e-11 -1.280884e-10 -1.912303e-11) (9.567019e-11 -1.754514e-08 2.119310e-08))
171.91301     	((1.758641e-04 -2.782780e-05 -2.266488e-05) (6.422382e-05 -2.616409e-06 -2.127231e-06)) ((2.048645e-11 -1.410454e-10 -2.073256e-11) (1.009885e-10 -1.921059e-08 2.316534e-08))
174.292406    	((1.761959e-04 -3.062894e-05 -2.496118e-05) (6.423194e-05 -2.882893e-06 -2.342686e-06)) ((2.574263e-11 -1.550665e-10 -2.224514e-11) (9.871952e-11 -2.111236e-08 2.538765e-08))
176.66886     	((1.766197e-04 -3.370273e-05 -2.748725e-05) (6.425166e-05 -3.176052e-06 -2.580367e-06)) ((3.210857e-11 -1.701731e-10 -2.376227e-11) (9.944931e-11 -2.323953e-08 2.787434e-08))
179.041958    	((1.771666e-04 -3.707454e-05 -3.025806e-05) (6.428447e-05 -3.497868e-06 -2.842934e-06)) ((3.976415e-11 -1.864626e-10 -2.521390e-11) (1.007957e-10 -2.555391e-08 3.065067e-08))
