# Forces      
# CofR        : (0.000000e+00 0.000000e+00 0.000000e+00)
# Time        forces(pressure viscous)	moments(pressure viscous)
0             	((0.000000e+00 0.000000e+00 0.000000e+00) (-9.018073e-13 6.340696e-03 8.562886e-14)) ((0.000000e+00 0.000000e+00 0.000000e+00) (3.399523e-14 1.363811e-15 -1.996674e-09))
0.012         	((7.462442e-06 1.860564e+00 6.656846e-06) (3.078099e-09 7.620157e-03 -1.388239e-08)) ((-8.480940e-11 6.903204e-11 -3.381132e-07) (2.176891e-11 1.990452e-12 -1.913549e-09))
0.0264        	((-6.114442e-05 -3.474448e-01 -5.984959e-05) (-3.430884e-08 7.603709e-03 -6.681255e-08)) ((5.975739e-09 5.979522e-11 2.732899e-08) (1.952385e-09 3.144852e-11 3.299103e-09))
0.04368       	((7.570161e-05 -2.596962e-01 3.471955e-05) (1.151664e-09 6.528996e-03 -6.823580e-08)) ((-3.964452e-09 -8.117622e-11 9.645370e-08) (1.670140e-09 6.338194e-11 1.019812e-08))
0.064416      	((-8.801630e-06 2.020624e-04 4.669261e-06) (-9.000742e-08 5.756386e-03 -4.309272e-08)) ((-4.026593e-10 1.171265e-10 -1.457219e-08) (-7.597116e-12 6.512832e-11 1.594705e-08))
0.0892992     	((-2.258450e-05 -2.042153e-03 -3.237766e-06) (-8.025229e-07 5.295890e-03 -2.701512e-08)) ((4.738558e-10 -2.775361e-10 1.768637e-09) (3.399998e-11 4.015926e-11 1.932687e-08))
0.119159      	((-2.510404e-05 -1.299109e-03 -4.820061e-06) (-1.246306e-06 4.910719e-03 3.761853e-09)) ((6.276701e-10 9.879936e-11 2.344796e-09) (9.218647e-10 -1.986507e-11 2.218889e-08))
0.154991      	((-1.039688e-05 9.668172e-04 -5.182855e-06) (-1.171643e-06 4.570567e-03 -7.804658e-09)) ((6.135300e-10 5.290700e-11 2.432291e-09) (4.878672e-10 -8.375697e-11 2.356472e-08))
0.197989      	((-1.371236e-05 1.749478e-03 -2.526558e-06) (-1.512570e-06 4.282028e-03 -1.602399e-08)) ((3.071405e-10 3.290511e-11 1.474609e-10) (1.672411e-10 -7.819555e-11 2.523647e-08))
0.249587      	((-1.037715e-05 2.184528e-03 -2.350402e-06) (-1.781379e-06 4.039818e-03 -3.225479e-08)) ((1.074149e-10 -6.832479e-11 -2.385446e-09) (6.037736e-10 -8.180236e-11 2.925551e-08))
0.311504      	((-6.848369e-06 2.455889e-03 -1.434685e-06) (-1.636430e-06 3.826226e-03 -6.042692e-08)) ((2.081609e-12 4.240758e-12 -3.098111e-09) (7.875643e-10 -6.349712e-11 3.632929e-08))
0.385805      	((-6.030392e-06 2.651288e-03 -4.926552e-07) (-1.576217e-06 3.625796e-03 -5.548387e-08)) ((-4.224185e-11 7.885815e-12 -3.108335e-09) (3.406582e-10 4.196417e-12 4.143122e-08))
0.474966      	((-5.006378e-06 2.862240e-03 3.866090e-08) (-1.500474e-06 3.432382e-03 -4.262198e-08)) ((-6.756825e-11 -8.038834e-12 -4.413639e-09) (-3.977303e-10 4.795532e-11 4.218947e-08))
0.581959      	((-3.429433e-06 3.137283e-03 -4.874419e-07) (-1.222902e-06 3.248164e-03 -3.002096e-08)) ((-5.051965e-11 2.292492e-12 -6.170036e-09) (-1.408219e-09 3.060513e-11 4.419410e-08))
0.710351      	((-1.301564e-06 3.505781e-03 -7.713478e-07) (-9.047830e-07 3.077304e-03 -2.026308e-08)) ((-3.565863e-11 -3.438558e-12 -7.936435e-09) (-2.575172e-09 2.793584e-11 4.908786e-08))
0.864421      	((8.924074e-08 4.002993e-03 -1.446061e-06) (-6.394916e-07 2.922184e-03 -1.755789e-08)) ((7.975268e-13 -8.951960e-13 -9.869694e-09) (-3.558552e-09 5.792472e-11 5.427591e-08))
1.044362      	((2.880806e-06 4.641401e-03 -1.885089e-06) (-1.916420e-07 2.786765e-03 -3.335570e-08)) ((1.469082e-11 7.309189e-12 -1.253552e-08) (-3.858905e-09 5.116502e-11 6.213784e-08))
1.249987      	((5.830392e-06 5.413804e-03 -2.252284e-06) (2.392706e-07 2.671860e-03 -6.858340e-08)) ((1.968201e-11 1.963477e-11 -1.551160e-08) (-3.458491e-09 3.152745e-11 7.441935e-08))
1.481066      	((8.013586e-06 6.329938e-03 -2.751756e-06) (5.666547e-07 2.576743e-03 -9.178479e-08)) ((2.975561e-11 1.217330e-11 -1.867691e-08) (-2.837648e-09 1.764498e-11 9.086846e-08))
1.732794      	((1.046770e-05 7.316352e-03 -2.636641e-06) (7.087431e-07 2.500568e-03 -8.689332e-08)) ((1.181716e-11 2.499367e-11 -2.203935e-08) (-2.077843e-09 -2.359981e-12 1.097489e-07))
1.981431      	((1.153376e-05 8.296291e-03 -2.141456e-06) (6.276250e-07 2.440471e-03 -6.611043e-08)) ((-2.588687e-12 3.398640e-11 -2.493973e-08) (-1.365264e-09 6.980383e-12 1.241477e-07))
2.227049      	((1.272389e-05 9.206922e-03 -2.155339e-06) (5.395883e-07 2.388640e-03 -2.751896e-08)) ((3.061131e-11 3.895479e-11 -2.723549e-08) (5.042199e-10 4.094233e-11 1.396538e-07))
2.470172      	((1.541394e-05 9.978205e-03 -1.243481e-06) (4.646138e-07 2.344264e-03 -9.472757e-09)) ((8.887750e-11 5.315504e-11 -2.938658e-08) (1.001085e-09 1.041025e-10 1.531487e-07))
2.712159      	((1.824362e-05 1.055528e-02 -1.021559e-06) (2.730875e-07 2.307860e-03 -6.084139e-08)) ((8.741214e-11 4.510768e-11 -3.209646e-08) (-2.509657e-09 1.558890e-10 1.648844e-07))
2.954123      	((2.020766e-05 1.094161e-02 -9.240450e-07) (1.573494e-08 2.276372e-03 -1.386552e-07)) ((1.320497e-10 3.170485e-11 -3.489591e-08) (-6.997054e-09 2.153255e-10 1.704358e-07))
3.196244      	((2.444586e-05 1.109583e-02 1.533754e-06) (-1.021588e-07 2.246462e-03 -1.850991e-07)) ((1.307713e-10 1.977750e-11 -3.745677e-08) (-1.068669e-08 1.894828e-10 1.661781e-07))
3.43801       	((3.033602e-05 1.101468e-02 3.976995e-06) (-2.384783e-08 2.218364e-03 -1.574413e-07)) ((8.139510e-11 6.189516e-11 -3.922696e-08) (-1.380525e-08 1.001788e-10 1.608165e-07))
3.678964      	((3.545992e-05 1.084956e-02 4.567500e-06) (2.501262e-07 2.192480e-03 -1.092063e-07)) ((9.972298e-11 9.527455e-11 -3.999838e-08) (-1.678091e-08 1.181826e-10 1.558842e-07))
3.919089      	((3.784239e-05 1.068090e-02 3.389418e-06) (5.220360e-07 2.169179e-03 -9.332792e-08)) ((9.901051e-11 1.538443e-10 -3.974981e-08) (-1.927684e-08 2.954268e-10 1.487469e-07))
4.158573      	((3.827585e-05 1.054468e-02 1.107039e-06) (5.751612e-07 2.150067e-03 -1.825656e-07)) ((5.953177e-11 1.831602e-10 -3.958961e-08) (-2.466392e-08 2.735967e-10 1.457111e-07))
4.397549      	((3.848795e-05 1.043463e-02 1.914334e-06) (5.375298e-07 2.134712e-03 -2.668084e-07)) ((-1.161035e-11 1.883721e-10 -3.981758e-08) (-2.898945e-08 3.417853e-10 1.421871e-07))
4.636003      	((4.131121e-05 1.034038e-02 3.367434e-06) (5.584171e-07 2.120662e-03 -2.976794e-07)) ((-7.067193e-11 1.741220e-10 -4.066938e-08) (-3.121177e-08 2.729403e-10 1.348201e-07))
4.873871      	((4.810910e-05 1.027353e-02 5.084688e-06) (6.456944e-07 2.107083e-03 -2.889515e-07)) ((-3.555952e-11 1.422384e-10 -4.159689e-08) (-3.202273e-08 1.594373e-10 1.269187e-07))
5.111146      	((5.510964e-05 1.020940e-02 7.568337e-06) (7.942201e-07 2.094411e-03 -2.590831e-07)) ((4.463585e-12 1.036597e-10 -4.222783e-08) (-3.288983e-08 5.194230e-11 1.211742e-07))
5.347849      	((6.433546e-05 1.007794e-02 1.008190e-05) (1.053479e-06 2.082037e-03 -1.890980e-07)) ((-1.001288e-11 6.535581e-11 -4.244205e-08) (-3.265145e-08 3.714546e-11 1.175458e-07))
5.583992      	((7.182370e-05 9.939108e-03 1.093966e-05) (1.353945e-06 2.069769e-03 -9.201069e-08)) ((3.337428e-13 6.165043e-11 -4.233947e-08) (-3.097094e-08 2.586235e-11 1.152213e-07))
5.819618      	((7.931370e-05 9.817714e-03 1.225940e-05) (1.625388e-06 2.058202e-03 -1.294464e-08)) ((-2.092651e-11 6.456493e-11 -4.200621e-08) (-2.916105e-08 1.748286e-10 1.143238e-07))
6.054769      	((8.846602e-05 9.734831e-03 1.363145e-05) (1.918682e-06 2.047471e-03 4.918944e-08)) ((-4.335057e-11 7.127252e-11 -4.167851e-08) (-2.758702e-08 2.756264e-10 1.132578e-07))
6.28947       	((1.012251e-04 9.668058e-03 1.573941e-05) (2.263517e-06 2.037454e-03 1.216056e-07)) ((-7.635933e-11 9.491435e-11 -4.149791e-08) (-2.650071e-08 1.410341e-10 1.146447e-07))
6.523753      	((1.146047e-04 9.620979e-03 1.748777e-05) (2.646205e-06 2.028442e-03 2.087348e-07)) ((-1.129363e-10 1.002340e-10 -4.151889e-08) (-2.648662e-08 3.366868e-10 1.196664e-07))
6.757664      	((1.284098e-04 9.583919e-03 1.835613e-05) (3.036366e-06 2.020581e-03 2.784924e-07)) ((-1.092876e-10 8.802964e-11 -4.173164e-08) (-2.729461e-08 5.460598e-10 1.269025e-07))
6.991228      	((1.396594e-04 9.549675e-03 1.908676e-05) (3.402690e-06 2.013529e-03 3.216887e-07)) ((-8.664424e-11 6.620410e-11 -4.205428e-08) (-2.771777e-08 4.641795e-10 1.352269e-07))
7.224458      	((1.508425e-04 9.517716e-03 2.097619e-05) (3.774121e-06 2.006822e-03 3.581841e-07)) ((-1.014812e-10 5.044396e-11 -4.234884e-08) (-2.796890e-08 2.575422e-10 1.417997e-07))
7.45737       	((1.636587e-04 9.478282e-03 2.163205e-05) (4.193651e-06 2.000287e-03 3.898280e-07)) ((-1.042188e-10 2.351209e-11 -4.257048e-08) (-2.923616e-08 5.445719e-11 1.471921e-07))
7.689985      	((1.803080e-04 9.431271e-03 2.324030e-05) (4.672387e-06 1.993992e-03 4.262545e-07)) ((-1.051117e-10 1.013414e-11 -4.263423e-08) (-3.110441e-08 -3.088885e-12 1.504198e-07))
7.922343      	((1.995408e-04 9.373698e-03 2.652159e-05) (5.228657e-06 1.987863e-03 4.759081e-07)) ((-1.431865e-10 1.738006e-11 -4.264225e-08) (-3.307629e-08 1.437930e-10 1.516105e-07))
8.154493      	((2.205370e-04 9.314511e-03 3.031348e-05) (5.851673e-06 1.981805e-03 5.364154e-07)) ((-1.915624e-10 1.475113e-11 -4.261482e-08) (-3.537686e-08 4.665506e-10 1.543841e-07))
8.386469      	((2.433170e-04 9.263125e-03 3.393994e-05) (6.528614e-06 1.975915e-03 6.145208e-07)) ((-2.315632e-10 2.319598e-11 -4.260794e-08) (-3.789400e-08 7.368617e-10 1.605522e-07))
8.618279      	((2.670946e-04 9.224256e-03 3.802707e-05) (7.249518e-06 1.970317e-03 7.149769e-07)) ((-2.849025e-10 3.935258e-11 -4.264264e-08) (-4.065176e-08 8.965168e-10 1.697782e-07))
8.849922      	((2.934970e-04 9.194833e-03 4.200565e-05) (8.019667e-06 1.965041e-03 8.365169e-07)) ((-3.160581e-10 5.657518e-11 -4.271494e-08) (-4.337952e-08 1.266145e-09 1.813136e-07))
9.081399      	((3.195891e-04 9.171490e-03 4.566969e-05) (8.840753e-06 1.960066e-03 9.659525e-07)) ((-3.369130e-10 6.611600e-11 -4.282926e-08) (-4.572647e-08 1.647996e-09 1.929769e-07))
9.312712      	((3.467695e-04 9.149890e-03 4.840636e-05) (9.725010e-06 1.955336e-03 1.108398e-06)) ((-3.624497e-10 7.118290e-11 -4.296097e-08) (-4.654474e-08 1.697355e-09 2.027526e-07))
9.543857      	((3.751962e-04 9.124644e-03 5.173276e-05) (1.067664e-05 1.950775e-03 1.265019e-06)) ((-3.783829e-10 9.053873e-11 -4.309407e-08) (-4.602227e-08 1.467360e-09 2.114669e-07))
9.77483       	((4.080049e-04 9.094488e-03 5.530699e-05) (1.171343e-05 1.946349e-03 1.423673e-06)) ((-4.003044e-10 1.087684e-10 -4.321419e-08) (-4.580504e-08 1.215365e-09 2.205695e-07))
10.005632     	((4.449369e-04 9.061056e-03 5.883184e-05) (1.284793e-05 1.942037e-03 1.574802e-06)) ((-3.935128e-10 1.304927e-10 -4.332662e-08) (-4.672417e-08 1.149860e-09 2.308976e-07))
10.236267     	((4.857125e-04 9.030617e-03 6.297104e-05) (1.408015e-05 1.937874e-03 1.716443e-06)) ((-3.694412e-10 1.394931e-10 -4.343918e-08) (-4.871116e-08 1.197111e-09 2.433110e-07))
10.466739     	((5.305650e-04 9.000353e-03 6.733725e-05) (1.540415e-05 1.933896e-03 1.849392e-06)) ((-3.800154e-10 1.400479e-10 -4.353893e-08) (-5.147793e-08 1.082499e-09 2.590320e-07))
10.697054     	((5.814075e-04 8.972387e-03 7.347853e-05) (1.684333e-05 1.930111e-03 1.989432e-06)) ((-4.078779e-10 1.434001e-10 -4.360674e-08) (-5.482470e-08 6.579947e-10 2.788848e-07))
10.927217     	((6.384141e-04 8.944675e-03 7.894757e-05) (1.842180e-05 1.926482e-03 2.140185e-06)) ((-4.281649e-10 1.557163e-10 -4.366924e-08) (-5.864734e-08 1.590861e-10 3.031736e-07))
11.15723      	((7.040275e-04 8.914023e-03 8.507599e-05) (2.017125e-05 1.922926e-03 2.307688e-06)) ((-4.457023e-10 1.534785e-10 -4.372079e-08) (-6.272606e-08 -9.432526e-11 3.315927e-07))
11.387098     	((7.773136e-04 8.889091e-03 9.210315e-05) (2.214242e-05 1.919454e-03 2.489087e-06)) ((-4.879304e-10 1.391411e-10 -4.375254e-08) (-6.749090e-08 -1.067876e-10 3.630680e-07))
11.616824     	((8.554023e-04 8.867121e-03 9.911014e-05) (2.433674e-05 1.916100e-03 2.686703e-06)) ((-5.366760e-10 1.033493e-10 -4.375663e-08) (-7.280424e-08 7.579237e-11 3.971327e-07))
11.84641      	((9.404691e-04 8.842406e-03 1.073567e-04) (2.673937e-05 1.912826e-03 2.912634e-06)) ((-6.073104e-10 7.156155e-11 -4.371082e-08) (-7.773202e-08 6.423031e-10 4.341063e-07))
12.07586      	((1.033025e-03 8.818276e-03 1.162810e-04) (2.937580e-05 1.909622e-03 3.169955e-06)) ((-7.054135e-10 2.675258e-11 -4.361564e-08) (-8.203234e-08 1.594192e-09 4.735742e-07))
12.305179     	((1.135987e-03 8.797420e-03 1.260680e-04) (3.229512e-05 1.906518e-03 3.434144e-06)) ((-7.958139e-10 4.344106e-12 -4.349957e-08) (-8.709488e-08 1.904333e-09 5.146232e-07))
12.534369     	((1.247498e-03 8.781956e-03 1.374410e-04) (3.553181e-05 1.903570e-03 3.727800e-06)) ((-8.769678e-10 -2.044566e-12 -4.337648e-08) (-9.188260e-08 1.548283e-09 5.568676e-07))
12.763433     	((1.369482e-03 8.770436e-03 1.497782e-04) (3.913217e-05 1.900838e-03 4.099407e-06)) ((-9.525941e-10 -2.182424e-11 -4.323057e-08) (-9.351014e-08 1.143928e-09 6.003790e-07))
12.992373     	((1.502664e-03 8.759193e-03 1.631402e-04) (4.314317e-05 1.898326e-03 4.543970e-06)) ((-1.029521e-09 -3.338451e-11 -4.306817e-08) (-9.378726e-08 9.428770e-10 6.452802e-07))
13.221194     	((1.646575e-03 8.749373e-03 1.773233e-04) (4.757287e-05 1.895992e-03 5.024394e-06)) ((-1.119434e-09 -4.472564e-11 -4.289262e-08) (-9.650559e-08 9.030000e-10 6.932462e-07))
13.449898     	((1.804248e-03 8.742784e-03 1.924871e-04) (5.245629e-05 1.893809e-03 5.514151e-06)) ((-1.218246e-09 -6.273360e-11 -4.270763e-08) (-1.027353e-07 8.291426e-10 7.443019e-07))
13.678489     	((1.976713e-03 8.738329e-03 2.089965e-04) (5.785794e-05 1.891740e-03 6.021802e-06)) ((-1.287948e-09 -7.953464e-11 -4.249158e-08) (-1.107492e-07 5.854769e-10 7.987147e-07))
13.906971     	((2.166359e-03 8.740570e-03 2.278198e-04) (6.384409e-05 1.889815e-03 6.577857e-06)) ((-1.379903e-09 -1.137797e-10 -4.227621e-08) (-1.192494e-07 2.502753e-10 8.556193e-07))
14.135347     	((2.377975e-03 8.748011e-03 2.493390e-04) (7.047993e-05 1.888108e-03 7.209925e-06)) ((-1.475592e-09 -1.607451e-10 -4.209186e-08) (-1.285559e-07 3.470331e-10 9.146503e-07))
14.36362      	((2.613718e-03 8.760485e-03 2.725217e-04) (7.782076e-05 1.886614e-03 7.917216e-06)) ((-1.603000e-09 -2.247182e-10 -4.191913e-08) (-1.382733e-07 7.306869e-10 9.785491e-07))
14.591793     	((2.876397e-03 8.779771e-03 2.974131e-04) (8.594592e-05 1.885294e-03 8.699257e-06)) ((-1.745906e-09 -2.865808e-10 -4.173204e-08) (-1.475935e-07 9.391610e-10 1.052090e-06))
14.81987      	((3.166298e-03 8.803058e-03 3.233023e-04) (9.494360e-05 1.884166e-03 9.570284e-06)) ((-1.883903e-09 -3.377627e-10 -4.152280e-08) (-1.553874e-07 9.377509e-10 1.136111e-06))
15.047855     	((3.481271e-03 8.835434e-03 3.519782e-04) (1.048639e-04 1.883313e-03 1.054853e-05)) ((-2.045422e-09 -4.163040e-10 -4.130414e-08) (-1.610019e-07 9.644075e-10 1.230168e-06))
15.275755     	((3.818533e-03 8.882126e-03 3.831073e-04) (1.157583e-04 1.882874e-03 1.162237e-05)) ((-2.224097e-09 -5.255603e-10 -4.109641e-08) (-1.664104e-07 1.312985e-09 1.333708e-06))
15.503576     	((4.179800e-03 8.943057e-03 4.173313e-04) (1.276472e-04 1.882965e-03 1.278853e-05)) ((-2.401988e-09 -6.777611e-10 -4.086539e-08) (-1.741824e-07 2.303404e-09 1.445825e-06))
15.731324     	((4.567540e-03 9.019832e-03 4.548214e-04) (1.405510e-04 1.883684e-03 1.405025e-05)) ((-2.598101e-09 -8.408703e-10 -4.061433e-08) (-1.843677e-07 3.231934e-09 1.564173e-06))
15.958995     	((4.981757e-03 9.115317e-03 4.953702e-04) (1.544887e-04 1.885194e-03 1.544974e-05)) ((-2.757787e-09 -1.027590e-09 -4.032758e-08) (-1.953807e-07 3.810429e-09 1.689280e-06))
16.186595     	((5.425970e-03 9.232410e-03 5.396208e-04) (1.695830e-04 1.887611e-03 1.699993e-05)) ((-2.998405e-09 -1.256048e-09 -3.995226e-08) (-2.066950e-07 5.185671e-09 1.821187e-06))
16.414136     	((5.903820e-03 9.376714e-03 5.874875e-04) (1.859570e-04 1.891080e-03 1.864653e-05)) ((-3.283136e-09 -1.605366e-09 -3.951622e-08) (-2.206607e-07 7.078653e-09 1.960254e-06))
16.641628     	((6.424295e-03 9.545444e-03 6.403449e-04) (2.037776e-04 1.895726e-03 2.038763e-05)) ((-3.623718e-09 -2.050953e-09 -3.894682e-08) (-2.376199e-07 9.641288e-09 2.105638e-06))
16.869082     	((6.974717e-03 9.745018e-03 7.011527e-04) (2.230847e-04 1.901665e-03 2.225867e-05)) ((-4.017840e-09 -2.619142e-09 -3.827113e-08) (-2.585408e-07 1.236196e-08 2.256243e-06))
17.096505     	((7.550579e-03 9.981967e-03 7.664057e-04) (2.438066e-04 1.909094e-03 2.429226e-05)) ((-4.412215e-09 -3.254913e-09 -3.747532e-08) (-2.821562e-07 1.436010e-08 2.408967e-06))
17.323904     	((8.153083e-03 1.025301e-02 8.330758e-04) (2.659919e-04 1.918152e-03 2.654830e-05)) ((-4.742530e-09 -3.918924e-09 -3.660501e-08) (-3.055370e-07 1.726482e-08 2.560576e-06))
17.551184     	((8.779851e-03 1.055430e-02 9.070981e-04) (2.896952e-04 1.928883e-03 2.905431e-05)) ((-5.031048e-09 -4.643306e-09 -3.565691e-08) (-3.299633e-07 2.069980e-08 2.710636e-06))
17.778134     	((9.419271e-03 1.090442e-02 9.789501e-04) (3.148377e-04 1.941447e-03 3.177239e-05)) ((-5.282650e-09 -5.375345e-09 -3.476250e-08) (-3.550654e-07 2.295890e-08 2.859105e-06))
18.004761     	((1.005868e-02 1.129621e-02 1.050927e-03) (3.412191e-04 1.955978e-03 3.466487e-05)) ((-5.491647e-09 -6.182096e-09 -3.395111e-08) (-3.766555e-07 2.465882e-08 3.006407e-06))
18.231113     	((1.068422e-02 1.173383e-02 1.118068e-03) (3.685595e-04 1.972654e-03 3.761085e-05)) ((-5.658548e-09 -7.004069e-09 -3.326481e-08) (-3.967961e-07 2.661275e-08 3.146591e-06))
18.457192     	((1.127939e-02 1.221148e-02 1.182497e-03) (3.965254e-04 1.991620e-03 4.054899e-05)) ((-5.764308e-09 -7.735658e-09 -3.265082e-08) (-4.160540e-07 2.825331e-08 3.270713e-06))
18.683049     	((1.183162e-02 1.271931e-02 1.244148e-03) (4.248267e-04 2.013053e-03 4.357896e-05)) ((-5.869807e-09 -8.520228e-09 -3.213993e-08) (-4.296701e-07 2.926267e-08 3.373928e-06))
18.908817     	((1.231322e-02 1.324180e-02 1.296225e-03) (4.529986e-04 2.036948e-03 4.663033e-05)) ((-5.969624e-09 -9.160046e-09 -3.181087e-08) (-4.357459e-07 3.039010e-08 3.445676e-06))
19.134595     	((1.269391e-02 1.376268e-02 1.334010e-03) (4.804206e-04 2.062960e-03 4.957347e-05)) ((-6.014377e-09 -9.552347e-09 -3.169789e-08) (-4.333647e-07 3.139494e-08 3.471338e-06))
19.360406     	((1.293861e-02 1.425988e-02 1.358189e-03) (5.061510e-04 2.090377e-03 5.228880e-05)) ((-6.016894e-09 -9.813172e-09 -3.171932e-08) (-4.245528e-07 3.252771e-08 3.453614e-06))
19.586285     	((1.303702e-02 1.469469e-02 1.367428e-03) (5.293012e-04 2.117852e-03 5.461342e-05)) ((-5.933400e-09 -9.929145e-09 -3.196636e-08) (-4.130877e-07 3.334714e-08 3.393914e-06))
19.812295     	((1.295704e-02 1.503511e-02 1.353052e-03) (5.488694e-04 2.144041e-03 5.640766e-05)) ((-5.830397e-09 -9.806805e-09 -3.233712e-08) (-4.010233e-07 3.379745e-08 3.293593e-06))
20.038592     	((1.266875e-02 1.524953e-02 1.314406e-03) (5.636659e-04 2.167953e-03 5.751670e-05)) ((-5.724318e-09 -9.362320e-09 -3.235281e-08) (-3.885841e-07 3.457462e-08 3.144171e-06))
20.265344     	((1.210357e-02 1.531634e-02 1.244705e-03) (5.722007e-04 2.188703e-03 5.783037e-05)) ((-5.657986e-09 -8.541573e-09 -3.216451e-08) (-3.721558e-07 3.825538e-08 2.931611e-06))
20.492693     	((1.125274e-02 1.520141e-02 1.144824e-03) (5.726124e-04 2.205203e-03 5.711070e-05)) ((-5.723141e-09 -7.264739e-09 -3.192838e-08) (-3.536968e-07 4.869619e-08 2.655347e-06))
20.720803     	((1.008889e-02 1.488627e-02 1.007823e-03) (5.624894e-04 2.216285e-03 5.499636e-05)) ((-5.638601e-09 -5.360678e-09 -3.134690e-08) (-3.415246e-07 6.762647e-08 2.353185e-06))
20.949886     	((8.605699e-03 1.434737e-02 8.381853e-04) (5.395770e-04 2.220703e-03 5.143493e-05)) ((-5.234209e-09 -3.061556e-09 -3.020148e-08) (-3.361881e-07 9.679384e-08 2.066467e-06))
21.179741     	((6.809507e-03 1.369422e-02 6.444127e-04) (5.022730e-04 2.218463e-03 4.648087e-05)) ((-3.858176e-09 -3.108731e-10 -2.928666e-08) (-3.298054e-07 1.351222e-07 1.819343e-06))
21.409941     	((4.748945e-03 1.301586e-02 4.153227e-04) (4.506203e-04 2.211269e-03 3.996832e-05)) ((-1.127216e-09 2.579501e-09 -2.915834e-08) (-3.258429e-07 1.670954e-07 1.602902e-06))
21.640512     	((2.549243e-03 1.241614e-02 1.816284e-04) (3.868535e-04 2.201883e-03 3.203945e-05)) ((2.003558e-09 4.229775e-09 -2.856154e-08) (-3.278193e-07 1.842099e-07 1.356799e-06))
21.871539     	((3.559764e-04 1.202456e-02 -4.157097e-05) (3.140353e-04 2.192694e-03 2.305670e-05)) ((5.109708e-09 4.400951e-09 -2.808963e-08) (-3.343931e-07 1.932675e-07 1.074917e-06))
22.10308      	((-1.660523e-03 1.182686e-02 -2.335777e-04) (2.368432e-04 2.186501e-03 1.360912e-05)) ((7.221399e-09 3.600981e-09 -2.828845e-08) (-3.461364e-07 1.987317e-07 7.184491e-07))
22.335129     	((-3.404941e-03 1.183868e-02 -3.937921e-04) (1.599970e-04 2.185799e-03 4.476088e-06)) ((7.924058e-09 2.344412e-09 -2.839335e-08) (-3.525007e-07 2.103619e-07 2.704142e-07))
22.567613     	((-4.836392e-03 1.197750e-02 -5.101397e-04) (8.631315e-05 2.190920e-03 -3.624953e-06)) ((7.599700e-09 1.586232e-09 -3.008578e-08) (-3.450416e-07 2.337935e-07 -2.264060e-07))
