# Forces      
# CofR        : (0.000000e+00 0.000000e+00 0.000000e+00)
# Time        forces(pressure viscous)	moments(pressure viscous)
0             	((0.000000e+00 0.000000e+00 0.000000e+00) (0.000000e+00 0.000000e+00 0.000000e+00)) ((0.000000e+00 0.000000e+00 0.000000e+00) (0.000000e+00 0.000000e+00 0.000000e+00))
0.012         	((1.080217e-09 -1.132632e-09 2.247140e-09) (1.220578e-11 -2.211554e-12 -1.555862e-11)) ((-1.012540e-08 9.655484e-13 1.916436e-14) (-7.003158e-06 -8.170667e-13 3.406973e-13))
0.0264        	((-1.148221e-09 -1.809609e-09 4.136107e-09) (8.126266e-11 1.022710e-11 -1.130945e-11)) ((-5.075343e-09 7.561576e-13 -1.966501e-13) (-6.414991e-06 -1.344369e-12 4.780058e-13))
0.04368       	((4.380171e-09 2.845724e-09 4.464709e-09) (1.509586e-10 3.636769e-11 -2.812264e-12)) ((-2.903634e-09 6.211418e-13 -2.095178e-13) (-5.812191e-06 -9.412462e-13 -2.493554e-13))
0.064416      	((-3.452399e-10 -2.960747e-10 1.187366e-09) (1.896360e-10 5.640155e-11 2.382991e-12)) ((-1.732448e-09 4.712052e-13 6.389894e-14) (-5.209292e-06 -4.033694e-14 -1.139883e-12))
0.0892992     	((1.728318e-09 1.322951e-09 1.036891e-09) (2.817748e-10 6.315000e-11 1.009375e-11)) ((-1.371774e-09 4.730000e-13 -7.087391e-14) (-4.625233e-06 4.717595e-13 -1.389208e-12))
0.119159      	((2.277722e-09 4.188699e-10 2.210089e-09) (2.947203e-10 5.390103e-11 2.188871e-11)) ((-1.048803e-09 3.093379e-13 3.688072e-14) (-4.078905e-06 7.524127e-13 -1.178037e-12))
0.154991      	((4.050906e-09 -1.865144e-09 -1.267721e-09) (2.256274e-10 3.916007e-11 3.839391e-11)) ((-8.731329e-10 2.485878e-13 3.972922e-14) (-3.583427e-06 1.319185e-12 -9.060194e-13))
0.197989      	((5.349257e-10 -9.810468e-10 -1.984286e-10) (1.137196e-10 3.099925e-11 4.353408e-11)) ((-7.159005e-10 1.369983e-13 1.332313e-15) (-3.145883e-06 1.796120e-12 -7.638663e-13))
0.249587      	((6.828576e-09 1.790305e-10 8.689302e-10) (1.374068e-11 3.849035e-11 4.228733e-11)) ((-6.093752e-10 1.395017e-13 -2.745160e-14) (-2.767745e-06 1.898441e-12 -7.472946e-13))
0.311504      	((-3.641331e-10 -5.747408e-10 9.636196e-10) (-9.276744e-11 4.101908e-11 4.863785e-11)) ((-5.288822e-10 1.309871e-13 -5.431717e-14) (-2.446395e-06 1.981727e-12 -6.431260e-13))
0.385805      	((-1.697144e-09 -8.953964e-10 1.038174e-09) (-2.014158e-10 1.886330e-11 6.308078e-11)) ((-4.716273e-10 1.332360e-13 -1.027673e-13) (-2.174543e-06 2.501942e-12 -7.337910e-13))
0.474966      	((4.321477e-10 -1.800272e-09 1.335624e-09) (-1.755333e-10 -9.807389e-12 5.962951e-11)) ((-4.292243e-10 1.578046e-13 -1.458183e-13) (-1.943008e-06 3.067073e-12 -1.239853e-12))
0.581959      	((1.687247e-11 -2.497319e-09 1.150830e-09) (-1.792545e-10 -3.279572e-11 5.050777e-11)) ((-3.872356e-10 1.231382e-13 -1.574005e-13) (-1.744273e-06 3.798377e-12 -1.942727e-12))
0.710351      	((-5.452418e-09 -2.123811e-09 2.467569e-09) (-2.645247e-10 1.950990e-12 1.023525e-10)) ((-3.453816e-10 1.257689e-13 -1.598052e-13) (-1.572048e-06 4.951948e-12 -2.867734e-12))
0.864421      	((-3.210070e-09 -7.854420e-10 4.695142e-09) (-1.959721e-10 1.039003e-10 1.719960e-10)) ((-3.145139e-10 8.707471e-14 -1.523062e-13) (-1.421304e-06 5.398217e-12 -3.791841e-12))
1.049306      	((-2.574909e-09 -1.032411e-09 5.820292e-09) (-2.236559e-10 1.219649e-10 1.668886e-10)) ((-2.927150e-10 3.327640e-14 -1.550098e-13) (-1.288051e-06 5.043907e-12 -4.120819e-12))
1.271167      	((-1.647258e-09 -2.508921e-09 5.751379e-09) (-2.950308e-10 1.414086e-10 1.255565e-10)) ((-2.728929e-10 -1.470236e-14 -1.573714e-13) (-1.169261e-06 4.023824e-12 -4.240173e-12))
1.5374        	((5.259232e-10 -1.955557e-09 3.866049e-09) (-2.219241e-11 1.928518e-10 8.725861e-11)) ((-2.495089e-10 -1.120359e-13 -1.485012e-13) (-1.062919e-06 2.570037e-12 -5.277159e-12))
1.85688       	((-8.692374e-10 -2.581226e-09 4.173672e-09) (4.320909e-10 2.639517e-10 -3.776211e-11)) ((-2.252102e-10 -1.776717e-13 -8.489969e-14) (-9.679267e-07 -5.790281e-14 -7.617787e-12))
2.240256      	((6.816635e-10 -2.564819e-10 5.604215e-09) (4.131863e-10 4.941621e-10 -1.512230e-10)) ((-2.049775e-10 -1.657123e-13 -9.212960e-14) (-8.836793e-07 -2.115780e-12 -1.218327e-11))
2.700307      	((-8.721363e-10 -4.931251e-10 5.527796e-09) (4.759578e-10 6.899905e-10 -1.691756e-10)) ((-1.881606e-10 -1.505396e-13 -8.467286e-14) (-8.095532e-07 -3.685058e-12 -1.505008e-11))
3.252369      	((1.138337e-10 1.657092e-09 6.434847e-09) (6.918100e-10 9.034698e-10 -3.684508e-11)) ((-1.714369e-10 -9.941399e-14 -8.361781e-14) (-7.446100e-07 -5.615743e-12 -1.443052e-11))
3.914842      	((2.358903e-10 1.430417e-09 4.370602e-09) (6.828112e-10 8.791042e-10 -2.906838e-11)) ((-1.555874e-10 -1.565339e-13 1.290842e-15) (-6.876004e-07 -7.865351e-12 -1.243944e-11))
4.709811      	((1.466927e-09 2.716390e-09 3.140978e-09) (5.925384e-10 7.269718e-10 9.265320e-11)) ((-1.411867e-10 -1.265947e-13 -1.600425e-15) (-6.371613e-07 -1.037852e-11 -7.622415e-12))
5.663773      	((2.406994e-09 2.253547e-09 2.180826e-09) (2.241773e-10 4.354900e-10 3.126910e-10)) ((-1.271680e-10 -7.853168e-14 -1.873951e-14) (-5.920130e-07 -1.143722e-11 -9.377460e-13))
6.808528      	((1.913257e-09 1.796921e-09 4.706511e-10) (-1.248717e-10 1.181144e-10 4.768578e-10)) ((-1.143966e-10 -1.207407e-13 4.062770e-14) (-5.511514e-07 -9.313987e-12 2.811106e-12))
8.182233      	((8.026485e-10 1.212559e-09 -9.669282e-11) (-1.555520e-10 -3.714559e-11 6.092379e-10)) ((-1.027225e-10 -7.145896e-14 7.180228e-14) (-5.139021e-07 -6.180292e-12 3.070500e-12))
9.83068       	((-6.656787e-10 1.464544e-09 -3.911318e-11) (-5.607823e-10 -5.394137e-11 6.724121e-10)) ((-9.232435e-11 -6.188870e-14 9.975347e-14) (-4.797671e-07 -3.949758e-12 3.834290e-13))
11.808816     	((-1.035043e-09 5.685822e-11 6.398059e-11) (-7.962272e-10 2.766373e-11 7.034193e-10)) ((-8.290364e-11 -5.817009e-14 1.726489e-13) (-4.483253e-07 -1.149562e-12 -3.465702e-12))
14.182579     	((-9.152483e-10 1.987259e-10 -1.313161e-10) (-7.400913e-10 -4.628409e-11 5.378369e-10)) ((-7.458887e-11 -6.335069e-14 2.060655e-13) (-4.193212e-07 1.519693e-12 -4.760217e-12))
17.031095     	((-1.069259e-09 7.536809e-10 -3.876270e-10) (-6.716620e-10 -1.016259e-10 4.191759e-10)) ((-6.787563e-11 -1.044048e-13 2.561537e-13) (-3.927090e-07 5.226008e-12 -5.843431e-12))
20.449314     	((-7.501747e-10 -4.108645e-10 -7.305641e-10) (-6.174522e-10 -9.231829e-11 4.589671e-10)) ((-6.246635e-11 -1.133478e-13 2.551327e-13) (-3.685040e-07 1.032676e-11 -8.385206e-12))
24.551176     	((-5.270834e-10 -1.445645e-10 -1.169892e-09) (-3.517636e-10 -1.625924e-10 4.341228e-10)) ((-5.773020e-11 -1.149557e-13 2.450779e-13) (-3.466632e-07 1.413703e-11 -1.152423e-11))
29.473411     	((-5.669670e-10 -1.165865e-10 -1.106162e-09) (-3.338235e-10 -1.707694e-10 4.817505e-10)) ((-5.349391e-11 -1.359628e-13 2.565547e-13) (-3.270849e-07 1.581714e-11 -1.433749e-11))
35.380094     	((-4.023883e-10 -4.215383e-10 -1.360315e-09) (-4.863278e-10 -2.342815e-10 5.034714e-10)) ((-4.942540e-11 -1.411549e-13 2.416212e-13) (-3.095801e-07 1.626949e-11 -1.654088e-11))
42.468112     	((-5.077021e-10 -8.184262e-10 -1.678270e-09) (-4.794332e-10 -3.688400e-10 5.743526e-10)) ((-4.621918e-11 -1.333171e-13 2.144757e-13) (-2.938849e-07 1.707137e-11 -1.842457e-11))
50.973735     	((-6.472043e-10 -1.136734e-09 -1.754858e-09) (-2.323673e-10 -5.079060e-10 6.903403e-10)) ((-4.345596e-11 -1.267679e-13 1.916115e-13) (-2.798004e-07 1.800413e-11 -1.837394e-11))
61.180482     	((-6.788553e-10 -1.040044e-09 -1.187468e-09) (-2.199504e-10 -5.511155e-10 8.376685e-10)) ((-4.097295e-11 -1.234251e-13 1.687726e-13) (-2.671865e-07 1.813854e-11 -1.702703e-11))
73.42128      	((-7.214895e-10 -7.883521e-10 -5.504874e-10) (-2.567806e-10 -7.023994e-10 7.048495e-10)) ((-3.855682e-11 -1.136324e-13 1.425051e-13) (-2.559525e-07 1.823768e-11 -1.439166e-11))
87.695869     	((-6.233778e-10 -1.113515e-09 -6.422760e-11) (-3.576619e-10 -7.944114e-10 6.728293e-10)) ((-3.648936e-11 -1.159407e-13 1.385625e-13) (-2.461806e-07 1.779800e-11 -9.660847e-12))
104.00391     	((-6.219638e-10 -1.820481e-09 -2.743701e-10) (-4.614436e-10 -7.466164e-10 7.831301e-10)) ((-3.467071e-11 -1.029384e-13 1.361492e-13) (-2.378591e-07 1.771834e-11 -5.357604e-12))
122.345019    	((-3.877719e-10 -1.790930e-09 -1.102064e-10) (-4.755710e-10 -7.580117e-10 8.163893e-10)) ((-3.319451e-11 -8.876470e-14 1.164847e-13) (-2.309166e-07 1.874863e-11 -2.838708e-12))
142.671149    	((-4.906760e-10 -1.599491e-09 -6.907515e-11) (-4.149643e-10 -7.308692e-10 8.306361e-10)) ((-3.197422e-11 -7.185009e-14 9.446977e-14) (-2.252483e-07 2.001287e-11 -2.005781e-12))
162.991375    	((-2.490087e-10 -1.281498e-09 1.662354e-10) (-4.193849e-10 -5.768629e-10 9.187532e-10)) ((-3.110981e-11 -5.977810e-14 7.504509e-14) (-2.209241e-07 2.091035e-11 -2.376845e-12))
183.305352    	((-1.041422e-10 -8.421281e-10 3.622411e-10) (-4.406762e-10 -3.983826e-10 1.042873e-09)) ((-3.038716e-11 -5.562556e-14 6.171459e-14) (-2.177281e-07 2.151183e-11 -3.693916e-12))
203.612765    	((1.292773e-10 -2.244048e-10 6.271327e-10) (-3.632380e-10 -2.097395e-10 1.156841e-09)) ((-2.985938e-11 -4.898035e-14 5.325066e-14) (-2.155128e-07 2.156564e-11 -5.316753e-12))
223.913154    	((2.423895e-10 1.134207e-10 7.720583e-10) (-3.026270e-10 -1.054371e-10 1.234850e-09)) ((-2.955152e-11 -5.913753e-14 5.821395e-14) (-2.141220e-07 2.061672e-11 -6.077474e-12))
244.20611     	((-1.086825e-11 3.875896e-10 6.255576e-10) (-2.469643e-10 -3.950147e-11 1.247310e-09)) ((-2.932409e-11 -5.559366e-14 5.099697e-14) (-2.134490e-07 1.861004e-11 -6.079356e-12))
264.491393    	((-2.220889e-10 6.034672e-10 6.300841e-10) (-2.875419e-10 7.232915e-11 1.246861e-09)) ((-2.916813e-11 -5.753060e-14 5.280745e-14) (-2.133876e-07 1.620658e-11 -5.859135e-12))
284.76887     	((-1.513446e-10 6.198616e-10 4.417928e-10) (-2.943964e-10 1.224312e-10 1.188295e-09)) ((-2.911342e-11 -6.184409e-14 5.522129e-14) (-2.138430e-07 1.415194e-11 -5.653199e-12))
305.038394    	((-3.150976e-11 6.122077e-10 3.988476e-10) (-2.611558e-10 1.148616e-10 1.072427e-09)) ((-2.913352e-11 -6.159116e-14 5.540430e-14) (-2.147347e-07 1.256616e-11 -5.259757e-12))
325.299938    	((-1.232175e-11 6.111582e-10 3.717511e-10) (-2.159813e-10 6.608343e-11 9.336990e-10)) ((-2.924395e-11 -6.611154e-14 5.927982e-14) (-2.159928e-07 1.155424e-11 -4.717348e-12))
345.553562    	((3.595774e-11 6.018028e-10 4.247188e-10) (-1.874952e-10 1.931630e-11 8.324404e-10)) ((-2.942568e-11 -7.271189e-14 6.329081e-14) (-2.175476e-07 1.104933e-11 -4.212098e-12))
365.799217    	((-1.893136e-12 5.943283e-10 4.658572e-10) (-1.749080e-10 -2.152921e-11 7.786623e-10)) ((-2.967079e-11 -7.749914e-14 6.585874e-14) (-2.193290e-07 1.123862e-11 -3.874115e-12))
386.036829    	((-1.919553e-11 5.850836e-10 5.225758e-10) (-1.689744e-10 -4.859121e-11 7.715277e-10)) ((-2.992742e-11 -8.134004e-14 7.062250e-14) (-2.212677e-07 1.175463e-11 -3.997537e-12))
406.266388    	((-5.966143e-11 6.179358e-10 5.375962e-10) (-1.674342e-10 -6.612821e-11 7.873443e-10)) ((-3.018474e-11 -8.601985e-14 7.430037e-14) (-2.232936e-07 1.244018e-11 -4.436471e-12))
426.487936    	((-1.192015e-10 6.755783e-10 5.576099e-10) (-1.730519e-10 -6.540851e-11 8.236305e-10)) ((-3.047126e-11 -9.038275e-14 7.859021e-14) (-2.253342e-07 1.328817e-11 -5.131596e-12))
446.701496    	((-4.097578e-11 7.033491e-10 4.908970e-10) (-1.722404e-10 -5.562786e-11 8.689101e-10)) ((-3.078540e-11 -9.372093e-14 8.294230e-14) (-2.273260e-07 1.400020e-11 -5.881138e-12))
466.907256    	((-1.039854e-10 7.322911e-10 4.540134e-10) (-1.797224e-10 -5.278964e-11 8.977657e-10)) ((-3.110405e-11 -9.654841e-14 8.587466e-14) (-2.292134e-07 1.450721e-11 -6.617074e-12))
