# Forces      
# CofR        : (0.000000e+00 0.000000e+00 0.000000e+00)
# Time        forces(pressure viscous)	moments(pressure viscous)
0             	((0.000000e+00 0.000000e+00 0.000000e+00) (2.444223e-13 4.000709e-03 -5.469096e-13)) ((0.000000e+00 0.000000e+00 0.000000e+00) (7.938907e-14 -1.058277e-15 -1.259469e-09))
0.012         	((2.449831e-06 1.170660e+00 2.545324e-06) (4.557418e-09 4.671594e-03 -3.699854e-09)) ((5.295481e-11 1.415994e-11 -2.150782e-07) (1.803043e-11 7.363206e-13 -1.663234e-09))
0.0264        	((-2.684250e-05 -1.749331e-01 -2.619940e-05) (-3.012515e-08 4.684242e-03 -2.337008e-08)) ((2.375968e-09 2.924728e-11 1.344994e-08) (4.328444e-10 1.195583e-11 2.953584e-10))
0.04368       	((3.463440e-05 -1.920316e-01 1.344393e-05) (-1.082087e-08 4.068662e-03 -2.617429e-08)) ((-1.762826e-09 -3.508649e-11 6.543227e-08) (2.788885e-10 1.861000e-12 3.501496e-09))
0.064416      	((-1.473182e-06 -3.724117e-04 2.759943e-06) (9.681527e-08 3.583233e-03 -1.876499e-08)) ((-5.030585e-11 9.902016e-11 -1.224405e-08) (-2.123401e-10 9.885197e-12 4.567760e-09))
0.0892992     	((-4.841211e-06 -1.465501e-03 3.919381e-07) (1.709592e-08 3.296441e-03 -1.405888e-08)) ((7.862365e-11 -1.353754e-10 1.169633e-09) (-4.499729e-10 8.731200e-12 6.426632e-09))
0.119159      	((-2.879727e-06 -1.963535e-03 -1.130355e-06) (-3.334704e-07 3.054087e-03 -1.595932e-09)) ((1.488902e-10 4.347849e-12 5.952425e-10) (-1.582762e-10 -5.211188e-12 7.844050e-09))
0.154991      	((-9.515638e-06 3.660766e-06 -3.726213e-06) (-6.168381e-07 2.826379e-03 5.578453e-09)) ((2.420506e-10 -7.535478e-11 1.297167e-10) (1.602464e-10 -1.091898e-11 8.695320e-09))
0.197989      	((-2.474944e-06 6.025546e-04 -1.786640e-06) (-8.129242e-07 2.622823e-03 5.389725e-09)) ((2.127245e-10 -4.072218e-11 -1.807813e-10) (4.298210e-10 1.046065e-12 9.762220e-09))
0.249587      	((-6.382883e-06 8.973054e-04 -9.901168e-07) (-9.982277e-07 2.447308e-03 -7.085030e-09)) ((1.480510e-10 -1.897879e-11 1.478858e-10) (6.456456e-10 2.995266e-11 9.877499e-09))
0.311504      	((-3.142197e-06 1.089034e-03 -9.664642e-07) (-9.766563e-07 2.295114e-03 -2.185866e-08)) ((7.147117e-11 4.676070e-12 -5.425616e-10) (7.169399e-10 3.554607e-11 1.116356e-08))
0.385805      	((-2.597368e-06 1.197472e-03 -4.128436e-07) (-7.920438e-07 2.157267e-03 -2.480187e-08)) ((1.989397e-13 1.152014e-11 -9.134352e-10) (4.291116e-10 4.454770e-11 1.352906e-08))
0.474966      	((-1.415859e-06 1.264242e-03 -2.347201e-07) (-6.616473e-07 2.025462e-03 -2.731759e-08)) ((-3.967607e-11 -6.008090e-13 -1.236053e-09) (2.713825e-10 7.183214e-11 1.585977e-08))
0.581959      	((-1.471093e-06 1.324206e-03 -1.105071e-07) (-6.026576e-07 1.896652e-03 -3.181391e-08)) ((-5.526628e-11 -7.364630e-12 -1.462877e-09) (9.539405e-11 8.317959e-11 1.718047e-08))
0.710351      	((-9.579163e-07 1.397151e-03 -7.090231e-08) (-5.193844e-07 1.772852e-03 -2.699738e-08)) ((-4.830638e-11 7.965967e-14 -1.829908e-09) (-3.420185e-10 7.837866e-11 1.803617e-08))
0.864421      	((-6.073822e-07 1.501746e-03 -3.212162e-07) (-4.065878e-07 1.656937e-03 -2.114710e-08)) ((-3.406480e-11 -3.225380e-13 -2.363591e-09) (-1.036876e-09 8.517398e-11 1.923294e-08))
1.049306      	((-1.911223e-07 1.649425e-03 -4.200892e-07) (-3.006514e-07 1.550682e-03 -1.287864e-08)) ((-1.488536e-11 -9.724015e-13 -2.985868e-09) (-1.794970e-09 8.621834e-11 2.092052e-08))
1.271167      	((1.034154e-07 1.849540e-03 -7.570042e-07) (-1.442427e-07 1.455283e-03 -1.266465e-08)) ((9.432303e-12 3.231516e-12 -3.700894e-09) (-2.388157e-09 8.074892e-11 2.444505e-08))
1.533011      	((9.252873e-07 2.112296e-03 -8.333116e-07) (2.427767e-08 1.372404e-03 -2.356874e-08)) ((1.632025e-11 5.433875e-12 -4.554867e-09) (-2.472349e-09 7.616278e-11 2.956117e-08))
1.834484      	((1.283446e-06 2.437169e-03 -9.485132e-07) (1.747960e-07 1.302585e-03 -3.743040e-08)) ((1.333549e-11 5.093469e-12 -5.572972e-09) (-2.054368e-09 5.051617e-11 3.580763e-08))
2.175257      	((1.943152e-06 2.824121e-03 -8.212226e-07) (2.203222e-07 1.244801e-03 -4.145198e-08)) ((9.029327e-12 6.624775e-12 -6.805003e-09) (-1.448806e-09 2.642444e-11 4.393986e-08))
2.554927      	((2.204018e-06 3.264856e-03 -6.229698e-07) (1.503404e-07 1.197417e-03 -3.609914e-08)) ((-1.407020e-12 5.318335e-12 -8.274096e-09) (-9.907678e-10 8.708445e-12 5.053749e-08))
2.938947      	((2.431720e-06 3.721960e-03 -3.387489e-07) (1.470226e-07 1.161132e-03 -3.073689e-08)) ((-1.495172e-11 9.686014e-12 -9.578493e-09) (-7.207699e-10 2.840965e-11 5.364868e-08))
3.317479      	((2.998113e-06 4.154739e-03 3.764091e-08) (1.821977e-07 1.132301e-03 -1.256307e-08)) ((-9.345323e-12 9.550434e-12 -1.049753e-08) (-1.397235e-10 3.355050e-11 5.334958e-08))
3.690744      	((3.702831e-06 4.551497e-03 2.348836e-07) (1.645544e-07 1.109472e-03 -7.954527e-09)) ((-8.911213e-13 1.015674e-11 -1.138683e-08) (-5.808693e-10 3.454908e-11 5.144878e-08))
4.060344      	((3.523262e-06 4.865618e-03 -1.697789e-07) (9.506860e-08 1.091515e-03 -3.847569e-08)) ((4.570354e-12 7.194565e-13 -1.260625e-08) (-2.449364e-09 5.137808e-11 5.125358e-08))
4.428307      	((4.126785e-06 5.082054e-03 2.698956e-08) (-2.141658e-08 1.076411e-03 -9.393115e-08)) ((1.179835e-11 -1.162505e-11 -1.389062e-08) (-5.602181e-09 7.578448e-11 5.406021e-08))
4.79606       	((5.864597e-06 5.204349e-03 1.171214e-06) (-9.378289e-08 1.062346e-03 -1.282564e-07)) ((-1.863662e-12 -3.512488e-11 -1.524225e-08) (-8.365571e-09 7.369801e-11 5.676217e-08))
5.163718      	((8.601005e-06 5.230173e-03 2.495503e-06) (-9.205813e-08 1.049304e-03 -1.092619e-07)) ((4.195642e-12 -4.131163e-11 -1.643686e-08) (-9.980643e-09 6.533655e-11 5.786759e-08))
5.530444      	((9.022109e-06 5.162094e-03 2.022204e-06) (-3.364599e-08 1.037205e-03 -9.231621e-08)) ((6.100598e-11 -3.727719e-11 -1.696206e-08) (-1.180242e-08 4.417589e-11 5.752396e-08))
5.895619      	((8.179267e-06 5.059066e-03 8.726907e-07) (1.949266e-08 1.026011e-03 -1.031819e-07)) ((1.158588e-10 -4.090702e-11 -1.696279e-08) (-1.347519e-08 8.602127e-11 5.634087e-08))
6.259164      	((8.127325e-06 4.963562e-03 4.944375e-07) (7.902868e-08 1.015883e-03 -1.290169e-07)) ((1.037965e-10 -3.661035e-11 -1.663614e-08) (-1.545784e-08 1.614778e-10 5.472656e-08))
6.621343      	((9.758283e-06 4.881351e-03 6.728261e-07) (1.485772e-07 1.007260e-03 -1.572864e-07)) ((5.253792e-11 -1.145181e-11 -1.632725e-08) (-1.691266e-08 1.771960e-10 5.401378e-08))
6.982415      	((9.826250e-06 4.842030e-03 4.267863e-07) (2.360776e-07 1.000253e-03 -1.844110e-07)) ((3.666871e-11 1.323334e-11 -1.613107e-08) (-1.782060e-08 1.556745e-10 5.234738e-08))
7.342467      	((9.362208e-06 4.829216e-03 1.869213e-07) (3.315565e-07 9.942326e-04 -1.820025e-07)) ((1.159897e-11 2.184820e-11 -1.618089e-08) (-1.682038e-08 1.311430e-10 4.752569e-08))
7.701513      	((1.003090e-05 4.818139e-03 2.770936e-07) (3.810584e-07 9.885885e-04 -1.555250e-07)) ((-8.650309e-13 2.439969e-11 -1.639564e-08) (-1.453642e-08 1.864576e-10 4.353692e-08))
8.059635      	((1.048242e-05 4.790100e-03 3.402083e-07) (4.185665e-07 9.829119e-04 -1.247956e-07)) ((9.098892e-12 1.842423e-11 -1.653376e-08) (-1.228993e-08 2.117907e-10 4.041523e-08))
8.416978      	((1.199200e-05 4.751665e-03 7.936121e-07) (4.564070e-07 9.772484e-04 -9.167789e-08)) ((1.995774e-11 1.173247e-11 -1.656140e-08) (-1.062012e-08 2.926665e-10 3.804503e-08))
8.773643      	((1.297285e-05 4.700783e-03 7.236156e-07) (4.825735e-07 9.717414e-04 -7.372714e-08)) ((3.590829e-11 1.535125e-11 -1.649072e-08) (-1.003446e-08 2.859264e-10 3.640200e-08))
9.12968       	((1.439026e-05 4.644562e-03 4.444830e-07) (5.220383e-07 9.663660e-04 -6.899388e-08)) ((3.867809e-11 1.452640e-11 -1.634742e-08) (-1.012809e-08 1.520234e-10 3.544756e-08))
9.485135      	((1.650241e-05 4.594159e-03 6.980570e-07) (5.815003e-07 9.612330e-04 -6.221767e-08)) ((9.304471e-12 2.118897e-11 -1.616035e-08) (-1.035242e-08 3.093878e-11 3.572885e-08))
9.84006       	((1.800210e-05 4.551863e-03 1.675812e-07) (6.401123e-07 9.564454e-04 -5.600752e-08)) ((-1.331720e-11 3.051335e-11 -1.596785e-08) (-1.019124e-08 -8.736650e-11 3.642268e-08))
10.194486     	((1.921258e-05 4.525604e-03 -3.421123e-07) (7.000359e-07 9.520961e-04 -5.353506e-08)) ((-4.095062e-11 4.578029e-11 -1.582198e-08) (-9.422964e-09 -7.446690e-11 3.679947e-08))
10.54843      	((2.097617e-05 4.509977e-03 -9.997569e-07) (7.633027e-07 9.481910e-04 -5.012758e-08)) ((-6.224262e-11 6.078388e-11 -1.574997e-08) (-8.562616e-09 2.289323e-11 3.742903e-08))
10.901898     	((2.295246e-05 4.501100e-03 -1.704426e-06) (8.371050e-07 9.446296e-04 -6.529979e-08)) ((-6.861413e-11 7.667913e-11 -1.571711e-08) (-8.346054e-09 4.481505e-11 3.783312e-08))
11.254895     	((2.479304e-05 4.489440e-03 -2.563533e-06) (9.314663e-07 9.412016e-04 -9.203364e-08)) ((-4.080620e-11 8.279132e-11 -1.568959e-08) (-7.588944e-09 -1.956903e-11 3.766528e-08))
11.607424     	((2.695037e-05 4.475647e-03 -2.744630e-06) (1.041484e-06 9.377593e-04 -1.007761e-07)) ((-2.139081e-11 7.960403e-11 -1.565442e-08) (-6.173648e-09 -1.293919e-10 3.783817e-08))
11.959494     	((2.893572e-05 4.457055e-03 -3.149853e-06) (1.155414e-06 9.342750e-04 -1.016622e-07)) ((-1.346938e-11 7.649893e-11 -1.560539e-08) (-5.044215e-09 -1.762353e-10 3.867056e-08))
12.311131     	((3.044375e-05 4.434459e-03 -3.740670e-06) (1.256238e-06 9.307982e-04 -1.150365e-07)) ((4.168430e-12 8.217564e-11 -1.554320e-08) (-4.433194e-09 -2.225046e-10 4.006843e-08))
12.662365     	((3.299191e-05 4.411933e-03 -4.583165e-06) (1.355743e-06 9.274230e-04 -1.439333e-07)) ((1.791811e-11 7.921684e-11 -1.547678e-08) (-4.309880e-09 -2.538503e-10 4.148312e-08))
13.013218     	((3.575923e-05 4.390397e-03 -5.752819e-06) (1.467762e-06 9.242254e-04 -1.906246e-07)) ((2.716462e-11 8.054987e-11 -1.540405e-08) (-4.654181e-09 -2.276279e-10 4.288178e-08))
13.363708     	((3.873520e-05 4.374815e-03 -7.082590e-06) (1.588506e-06 9.212790e-04 -2.483288e-07)) ((3.320433e-11 8.420709e-11 -1.533706e-08) (-5.476104e-09 -1.330748e-10 4.452926e-08))
13.71384      	((4.178656e-05 4.361837e-03 -8.523899e-06) (1.714410e-06 9.185911e-04 -3.043414e-07)) ((3.493229e-11 9.465207e-11 -1.528836e-08) (-5.908937e-09 -1.883559e-11 4.620750e-08))
14.063624     	((4.482634e-05 4.351079e-03 -1.025815e-05) (1.845323e-06 9.161330e-04 -3.641270e-07)) ((4.398760e-11 1.010533e-10 -1.525894e-08) (-5.944257e-09 1.111169e-10 4.709824e-08))
14.413059     	((4.841612e-05 4.339962e-03 -1.201335e-05) (1.993059e-06 9.138700e-04 -4.344865e-07)) ((5.043976e-11 9.889755e-11 -1.523668e-08) (-6.123858e-09 2.390708e-10 4.697076e-08))
14.762154     	((5.270660e-05 4.324918e-03 -1.407120e-05) (2.172345e-06 9.117252e-04 -5.188101e-07)) ((6.383217e-11 9.717581e-11 -1.522163e-08) (-6.604821e-09 3.482435e-10 4.643468e-08))
15.110962     	((5.775473e-05 4.309760e-03 -1.646269e-05) (2.370966e-06 9.096359e-04 -6.236232e-07)) ((9.149041e-11 1.075589e-10 -1.519945e-08) (-7.373252e-09 4.207905e-10 4.696205e-08))
15.459483     	((6.245371e-05 4.295047e-03 -1.873914e-05) (2.567976e-06 9.075700e-04 -7.408110e-07)) ((1.134483e-10 1.200503e-10 -1.516789e-08) (-7.870738e-09 4.512043e-10 4.933771e-08))
15.807707     	((6.824945e-05 4.277599e-03 -2.131139e-05) (2.771220e-06 9.054744e-04 -8.609411e-07)) ((1.379592e-10 1.286262e-10 -1.512638e-08) (-7.562800e-09 4.665878e-10 5.317735e-08))
16.155655     	((7.406955e-05 4.259397e-03 -2.380859e-05) (2.998078e-06 9.033321e-04 -9.835576e-07)) ((1.587993e-10 1.329139e-10 -1.507624e-08) (-6.557328e-09 5.791266e-10 5.750390e-08))
16.503339     	((8.040063e-05 4.240754e-03 -2.631034e-05) (3.251444e-06 9.011499e-04 -1.105283e-06)) ((1.742979e-10 1.360985e-10 -1.502056e-08) (-5.049069e-09 8.245163e-10 6.165963e-08))
16.850774     	((8.738206e-05 4.224997e-03 -2.942346e-05) (3.530288e-06 8.989740e-04 -1.233012e-06)) ((1.932437e-10 1.415399e-10 -1.497473e-08) (-3.426049e-09 1.109908e-09 6.560228e-08))
17.19798      	((9.409942e-05 4.212448e-03 -3.216582e-05) (3.828424e-06 8.968699e-04 -1.366879e-06)) ((2.042180e-10 1.500674e-10 -1.493533e-08) (-1.762808e-09 1.392033e-09 6.945843e-08))
17.544982     	((1.010643e-04 4.202315e-03 -3.540872e-05) (4.138117e-06 8.948823e-04 -1.503179e-06)) ((2.230825e-10 1.619042e-10 -1.490277e-08) (-2.689306e-11 1.661169e-09 7.335085e-08))
17.891788     	((1.086046e-04 4.193207e-03 -3.930205e-05) (4.465575e-06 8.930204e-04 -1.651436e-06)) ((2.465387e-10 1.721855e-10 -1.487079e-08) (1.894056e-09 1.847420e-09 7.732670e-08))
18.2384       	((1.168660e-04 4.184465e-03 -4.311579e-05) (4.816979e-06 8.912695e-04 -1.809389e-06)) ((2.635993e-10 1.767077e-10 -1.483840e-08) (4.219663e-09 1.928202e-09 8.153786e-08))
18.584824     	((1.259102e-04 4.173103e-03 -4.762674e-05) (5.201415e-06 8.895787e-04 -1.978994e-06)) ((2.912832e-10 1.780255e-10 -1.480397e-08) (7.014731e-09 1.961093e-09 8.596177e-08))
18.931062     	((1.360025e-04 4.161826e-03 -5.250057e-05) (5.631946e-06 8.879060e-04 -2.168238e-06)) ((3.200347e-10 1.789665e-10 -1.477301e-08) (1.022582e-08 1.972111e-09 9.042825e-08))
19.277127     	((1.475919e-04 4.149898e-03 -5.770439e-05) (6.123531e-06 8.862171e-04 -2.376337e-06)) ((3.502923e-10 1.793366e-10 -1.474010e-08) (1.372874e-08 1.966447e-09 9.480384e-08))
19.623028     	((1.605732e-04 4.138222e-03 -6.363799e-05) (6.680537e-06 8.844999e-04 -2.602817e-06)) ((3.889860e-10 1.746157e-10 -1.470504e-08) (1.755137e-08 1.871544e-09 9.930917e-08))
19.968774     	((1.752726e-04 4.126921e-03 -7.032670e-05) (7.298058e-06 8.827791e-04 -2.848088e-06)) ((4.383467e-10 1.710667e-10 -1.466630e-08) (2.206826e-08 1.671414e-09 1.045975e-07))
20.314376     	((1.916073e-04 4.115145e-03 -7.768713e-05) (7.973543e-06 8.810790e-04 -3.113164e-06)) ((4.921652e-10 1.692413e-10 -1.462204e-08) (2.749970e-08 1.408773e-09 1.111900e-07))
20.659847     	((2.098840e-04 4.104300e-03 -8.593843e-05) (8.712927e-06 8.794263e-04 -3.407842e-06)) ((5.440788e-10 1.706200e-10 -1.457688e-08) (3.351333e-08 1.126846e-09 1.192341e-07))
21.005196     	((2.300456e-04 4.095103e-03 -9.515365e-05) (9.523043e-06 8.778458e-04 -3.745702e-06)) ((6.000960e-10 1.742999e-10 -1.453368e-08) (3.972984e-08 8.519696e-10 1.287533e-07))
21.350428     	((2.519853e-04 4.087675e-03 -1.050178e-04) (1.040701e-05 8.763484e-04 -4.126135e-06)) ((6.542027e-10 1.760299e-10 -1.449554e-08) (4.619688e-08 6.068346e-10 1.396891e-07))
21.695551     	((2.765398e-04 4.081244e-03 -1.157374e-04) (1.137798e-05 8.749291e-04 -4.546278e-06)) ((7.127364e-10 1.846949e-10 -1.446007e-08) (5.302483e-08 3.823806e-10 1.519869e-07))
22.04057      	((3.030960e-04 4.074552e-03 -1.269784e-04) (1.244582e-05 8.735671e-04 -5.001664e-06)) ((7.743213e-10 1.961532e-10 -1.442294e-08) (6.023793e-08 2.214851e-10 1.655235e-07))
22.385488     	((3.317289e-04 4.068442e-03 -1.386867e-04) (1.361800e-05 8.722579e-04 -5.496693e-06)) ((8.302433e-10 2.102534e-10 -1.438271e-08) (6.753152e-08 8.882210e-11 1.799532e-07))
22.73031      	((3.625536e-04 4.062702e-03 -1.511065e-04) (1.491138e-05 8.710044e-04 -6.032640e-06)) ((8.892790e-10 2.239285e-10 -1.434040e-08) (7.500517e-08 -1.099777e-10 1.948493e-07))
23.07504      	((3.961662e-04 4.056901e-03 -1.647542e-04) (1.633844e-05 8.697876e-04 -6.616259e-06)) ((9.520943e-10 2.383915e-10 -1.429718e-08) (8.287210e-08 -3.721467e-10 2.104386e-07))
23.419632     	((4.327087e-04 4.051722e-03 -1.787726e-04) (1.790310e-05 8.685922e-04 -7.248388e-06)) ((1.013456e-09 2.560480e-10 -1.425620e-08) (9.111654e-08 -7.173102e-10 2.275111e-07))
23.764061     	((4.721356e-04 4.045766e-03 -1.943455e-04) (1.961095e-05 8.673956e-04 -7.936009e-06)) ((1.085172e-09 2.786129e-10 -1.421382e-08) (9.958224e-08 -1.156148e-09 2.465312e-07))
24.108335     	((5.147003e-04 4.040949e-03 -2.107572e-04) (2.146411e-05 8.662000e-04 -8.683030e-06)) ((1.158829e-09 3.042877e-10 -1.417257e-08) (1.082055e-07 -1.738263e-09 2.675838e-07))
24.452461     	((5.604351e-04 4.036859e-03 -2.290789e-04) (2.347444e-05 8.650214e-04 -9.498477e-06)) ((1.251281e-09 3.379942e-10 -1.412916e-08) (1.169640e-07 -2.360397e-09 2.902233e-07))
24.796448     	((6.095330e-04 4.034758e-03 -2.484833e-04) (2.565144e-05 8.638828e-04 -1.038241e-05)) ((1.351675e-09 3.722314e-10 -1.408446e-08) (1.259605e-07 -2.945254e-09 3.142227e-07))
25.140313     	((6.623999e-04 4.033942e-03 -2.695296e-04) (2.800533e-05 8.628100e-04 -1.133849e-05)) ((1.461668e-09 4.070243e-10 -1.403429e-08) (1.352230e-07 -3.502052e-09 3.394026e-07))
25.484076     	((7.191962e-04 4.034941e-03 -2.921804e-04) (3.053870e-05 8.618127e-04 -1.236862e-05)) ((1.584754e-09 4.442807e-10 -1.397595e-08) (1.450204e-07 -3.962945e-09 3.662780e-07))
25.827744     	((7.811374e-04 4.036864e-03 -3.169998e-04) (3.326842e-05 8.608907e-04 -1.347674e-05)) ((1.725369e-09 4.795576e-10 -1.390047e-08) (1.555089e-07 -4.224851e-09 3.951795e-07))
26.17132      	((8.480306e-04 4.040421e-03 -3.438024e-04) (3.623112e-05 8.600584e-04 -1.468342e-05)) ((1.879429e-09 5.239922e-10 -1.381351e-08) (1.658246e-07 -4.248301e-09 4.253296e-07))
26.514808     	((9.210267e-04 4.044560e-03 -3.733009e-04) (3.947014e-05 8.593433e-04 -1.601317e-05)) ((2.059762e-09 5.853298e-10 -1.371455e-08) (1.753135e-07 -4.070773e-09 4.555250e-07))
26.858211     	((9.997458e-04 4.051351e-03 -4.048559e-04) (4.301999e-05 8.587713e-04 -1.747522e-05)) ((2.247145e-09 6.664989e-10 -1.360857e-08) (1.842249e-07 -3.581132e-09 4.850812e-07))
27.201533     	((1.085526e-03 4.060223e-03 -4.394331e-04) (4.690335e-05 8.583468e-04 -1.907577e-05)) ((2.451051e-09 7.592325e-10 -1.350054e-08) (1.931209e-07 -2.653283e-09 5.150105e-07))
27.54478      	((1.179155e-03 4.071806e-03 -4.768345e-04) (5.115225e-05 8.580651e-04 -2.082413e-05)) ((2.669787e-09 8.704035e-10 -1.339447e-08) (2.026756e-07 -1.259331e-09 5.465611e-07))
27.887961     	((1.281610e-03 4.085953e-03 -5.173631e-04) (5.580647e-05 8.579112e-04 -2.272120e-05)) ((2.906992e-09 9.937050e-10 -1.328190e-08) (2.138448e-07 4.135474e-10 5.806888e-07))
28.231085     	((1.392748e-03 4.103460e-03 -5.610611e-04) (6.089281e-05 8.578906e-04 -2.477066e-05)) ((3.165977e-09 1.122816e-09 -1.315386e-08) (2.271973e-07 2.091235e-09 6.185473e-07))
28.574158     	((1.514648e-03 4.126273e-03 -6.087584e-04) (6.645131e-05 8.580572e-04 -2.699745e-05)) ((3.443605e-09 1.270831e-09 -1.302086e-08) (2.426985e-07 3.409817e-09 6.605102e-07))
28.917182     	((1.647712e-03 4.153787e-03 -6.606963e-04) (7.252804e-05 8.584528e-04 -2.941314e-05)) ((3.734943e-09 1.445584e-09 -1.288994e-08) (2.607045e-07 4.281739e-09 7.068330e-07))
29.260163     	((1.791778e-03 4.188263e-03 -7.166843e-04) (7.915434e-05 8.591237e-04 -3.202333e-05)) ((4.042435e-09 1.678475e-09 -1.273874e-08) (2.815807e-07 4.688567e-09 7.582220e-07))
29.603102     	((1.946899e-03 4.230986e-03 -7.778038e-04) (8.635778e-05 8.601705e-04 -3.484558e-05)) ((4.384969e-09 1.971590e-09 -1.255348e-08) (3.051656e-07 4.703272e-09 8.128474e-07))
29.945995     	((2.113482e-03 4.281375e-03 -8.424038e-04) (9.421094e-05 8.616798e-04 -3.788846e-05)) ((4.746146e-09 2.308360e-09 -1.232494e-08) (3.298917e-07 4.811021e-09 8.678951e-07))
30.288836     	((2.291121e-03 4.339182e-03 -9.113099e-04) (1.027444e-04 8.636591e-04 -4.115489e-05)) ((5.116779e-09 2.693727e-09 -1.204352e-08) (3.547712e-07 5.865199e-09 9.235857e-07))
30.631614     	((2.477644e-03 4.407959e-03 -9.835081e-04) (1.119220e-04 8.661458e-04 -4.467162e-05)) ((5.486859e-09 3.135366e-09 -1.171694e-08) (3.797290e-07 7.690001e-09 9.830963e-07))
30.974327     	((2.674960e-03 4.486077e-03 -1.058439e-03) (1.217375e-04 8.691767e-04 -4.842021e-05)) ((5.836388e-09 3.639842e-09 -1.136336e-08) (4.070076e-07 9.129901e-09 1.047421e-06))
31.316969     	((2.883146e-03 4.575520e-03 -1.137612e-03) (1.321676e-04 8.727997e-04 -5.238230e-05)) ((6.166928e-09 4.214017e-09 -1.100648e-08) (4.386546e-07 1.008366e-08 1.117888e-06))
31.659527     	((3.101412e-03 4.678550e-03 -1.220315e-03) (1.432180e-04 8.770828e-04 -5.656376e-05)) ((6.451939e-09 4.846797e-09 -1.064662e-08) (4.738957e-07 1.139057e-08 1.193856e-06))
32.002014     	((3.325312e-03 4.795424e-03 -1.305470e-03) (1.548968e-04 8.820840e-04 -6.098428e-05)) ((6.664810e-09 5.530615e-09 -1.028482e-08) (5.101020e-07 1.294079e-08 1.271423e-06))
32.344445     	((3.556604e-03 4.929774e-03 -1.393723e-03) (1.672283e-04 8.879163e-04 -6.566616e-05)) ((6.808154e-09 6.287204e-09 -9.937711e-09) (5.445477e-07 1.461078e-08 1.346950e-06))
32.686847     	((3.789577e-03 5.080755e-03 -1.483222e-03) (1.801800e-04 8.946572e-04 -7.060083e-05)) ((6.864666e-09 7.074690e-09 -9.622849e-09) (5.764759e-07 1.603532e-08 1.420878e-06))
33.029267     	((4.022181e-03 5.249262e-03 -1.573661e-03) (1.936830e-04 9.023998e-04 -7.577391e-05)) ((6.840738e-09 7.930042e-09 -9.309384e-09) (6.059431e-07 1.685857e-08 1.492885e-06))
33.37175      	((4.251019e-03 5.430423e-03 -1.663027e-03) (2.076014e-04 9.112098e-04 -8.113325e-05)) ((6.798523e-09 8.826895e-09 -9.020437e-09) (6.335700e-07 1.625842e-08 1.561245e-06))
33.714381     	((4.472283e-03 5.628717e-03 -1.748973e-03) (2.217394e-04 9.211702e-04 -8.657743e-05)) ((6.680545e-09 9.751426e-09 -8.800186e-09) (6.605462e-07 1.315809e-08 1.625170e-06))
34.057188     	((4.677454e-03 5.841989e-03 -1.828394e-03) (2.359434e-04 9.323141e-04 -9.204439e-05)) ((6.514181e-09 1.063559e-08 -8.606335e-09) (6.832382e-07 1.008438e-08 1.681802e-06))
34.400091     	((4.861117e-03 6.062587e-03 -1.900908e-03) (2.500471e-04 9.446220e-04 -9.750814e-05)) ((6.362893e-09 1.149092e-08 -8.445336e-09) (6.981106e-07 7.272400e-09 1.724979e-06))
34.743081     	((5.012779e-03 6.283224e-03 -1.960809e-03) (2.638111e-04 9.579475e-04 -1.028796e-04)) ((6.206649e-09 1.229517e-08 -8.315267e-09) (7.052008e-07 2.763735e-09 1.747242e-06))
35.086167     	((5.119895e-03 6.497400e-03 -2.005327e-03) (2.768785e-04 9.719813e-04 -1.079969e-04)) ((5.994057e-09 1.304884e-08 -8.214007e-09) (7.045258e-07 -3.498225e-09 1.745691e-06))
35.429358     	((5.175865e-03 6.696455e-03 -2.030223e-03) (2.888816e-04 9.862592e-04 -1.126946e-04)) ((5.670748e-09 1.367806e-08 -8.179619e-09) (6.952565e-07 -1.018847e-08 1.718496e-06))
35.772677     	((5.170484e-03 6.864668e-03 -2.029632e-03) (2.994459e-04 1.000207e-03 -1.167363e-04)) ((5.182313e-09 1.415229e-08 -8.208027e-09) (6.779407e-07 -1.794923e-08 1.661929e-06))
