# Forces      
# CofR        : (0.000000e+00 0.000000e+00 0.000000e+00)
# Time        forces(pressure viscous)	moments(pressure viscous)
0             	((0.000000e+00 0.000000e+00 0.000000e+00) (0.000000e+00 0.000000e+00 0.000000e+00)) ((0.000000e+00 0.000000e+00 0.000000e+00) (0.000000e+00 0.000000e+00 0.000000e+00))
0.012         	((4.704667e-09 -3.578488e-09 7.294228e-09) (8.239134e-11 -6.207248e-12 -5.410667e-11)) ((-3.257737e-08 3.101107e-12 5.772735e-14) (-2.215026e-05 -2.845072e-12 1.168509e-12))
0.0264        	((-3.757177e-09 -5.122562e-09 1.384601e-08) (5.143673e-10 1.079008e-11 -2.996827e-11)) ((-1.687061e-08 2.429381e-12 -6.108929e-13) (-2.029321e-05 -4.261721e-12 1.987701e-12))
0.04368       	((3.587933e-09 7.806064e-09 1.267514e-08) (1.124667e-09 7.859923e-11 -2.608075e-11)) ((-1.031561e-08 1.933901e-12 -6.037315e-13) (-1.840117e-05 -3.646615e-12 -2.013600e-13))
0.064416      	((1.575547e-08 -2.850765e-09 4.193023e-09) (1.910570e-09 1.565218e-10 -6.484579e-11)) ((-6.824660e-09 1.729274e-12 1.460636e-13) (-1.652888e-05 -3.309915e-12 -2.483980e-12))
0.0892992     	((6.762793e-09 4.035580e-09 9.019859e-09) (2.973454e-09 1.993171e-10 -6.876021e-11)) ((-5.795195e-09 1.409377e-12 -3.954396e-14) (-1.474299e-05 -3.771832e-12 -2.601172e-12))
0.119159      	((8.106765e-09 -2.477998e-09 2.973776e-09) (3.700171e-09 1.502267e-10 -2.934741e-11)) ((-4.733214e-09 1.100351e-12 1.475135e-13) (-1.310424e-05 -2.887282e-12 -1.906781e-12))
0.154991      	((2.175874e-08 -4.245429e-09 -4.272146e-09) (3.670378e-09 6.999334e-11 8.529430e-11)) ((-4.053034e-09 7.849431e-13 8.139500e-14) (-1.165121e-05 -3.184729e-13 -3.991940e-13))
0.197989      	((5.715512e-09 -3.086491e-09 -3.316584e-09) (3.349405e-09 3.643725e-11 1.488551e-10)) ((-3.483573e-09 5.493207e-13 -1.168772e-13) (-1.038445e-05 2.838256e-12 -6.231290e-13))
0.249587      	((1.397983e-08 -1.195035e-09 5.220674e-10) (3.043275e-09 4.341424e-11 1.806349e-10)) ((-3.081817e-09 4.447182e-13 -2.729765e-13) (-9.273738e-06 5.650531e-12 -2.708801e-12))
0.311504      	((3.801542e-09 -1.104559e-09 4.083809e-09) (1.102613e-09 1.659119e-10 3.323306e-10)) ((-2.741392e-09 1.010947e-12 -7.178397e-13) (-8.281298e-06 7.502306e-12 -3.455969e-12))
0.385805      	((-2.361235e-08 -3.938235e-09 6.387545e-09) (-1.123385e-09 2.985507e-10 5.040278e-10)) ((-2.469251e-09 1.064929e-12 -7.635035e-13) (-7.392987e-06 8.594004e-12 -3.425715e-12))
0.474966      	((-3.875263e-08 -5.415172e-09 3.487618e-09) (-2.754181e-09 2.045257e-10 4.981442e-10)) ((-2.229776e-09 1.055883e-12 -7.001828e-13) (-6.604317e-06 7.559569e-12 -1.813451e-12))
0.581959      	((-4.119068e-08 -4.290992e-09 8.703870e-09) (-3.521282e-09 1.042412e-10 6.597015e-10)) ((-1.998270e-09 8.808113e-13 -5.596351e-13) (-5.911151e-06 8.484624e-12 -3.117277e-13))
0.710351      	((-2.804280e-08 5.461395e-10 1.457918e-08) (-1.271569e-09 2.596619e-10 9.516888e-10)) ((-1.772015e-09 1.121381e-12 -7.839334e-13) (-5.305733e-06 1.370557e-11 -3.936782e-12))
0.864421      	((-1.636833e-08 -3.413506e-09 1.882240e-08) (-1.097584e-09 7.091550e-10 1.091198e-09)) ((-1.562951e-09 8.592433e-13 -6.238648e-13) (-4.776827e-06 2.000720e-11 -1.394591e-11))
1.049306      	((-7.136001e-09 -8.054463e-09 1.457079e-08) (-2.815729e-09 1.070656e-09 1.065839e-09)) ((-1.390895e-09 6.526711e-13 -5.721177e-13) (-4.312172e-06 2.413919e-11 -2.170999e-11))
1.271167      	((2.444780e-10 -9.861181e-09 1.975067e-08) (-1.736942e-09 1.238724e-09 7.237146e-10)) ((-1.253703e-09 3.767864e-13 -9.270494e-13) (-3.901647e-06 1.907715e-11 -1.901965e-11))
1.5374        	((1.925005e-09 9.909646e-10 3.415031e-08) (-1.916126e-10 1.563169e-09 7.480242e-10)) ((-1.139528e-09 3.210013e-13 -1.551636e-12) (-3.538697e-06 4.689616e-12 -1.255297e-11))
1.85688       	((4.357659e-09 9.208440e-09 4.015750e-08) (-6.801369e-10 2.216002e-09 1.277634e-09)) ((-1.040960e-09 6.435857e-13 -1.810080e-12) (-3.219667e-06 -6.423042e-12 -9.630976e-12))
2.240256      	((6.425006e-09 1.670828e-08 3.822634e-08) (-8.326167e-11 2.792029e-09 1.819573e-09)) ((-9.463980e-10 6.579741e-13 -1.839043e-12) (-2.941616e-06 -9.321608e-12 5.153091e-12))
2.700307      	((6.025392e-09 1.566563e-08 3.845735e-08) (-3.911358e-10 2.005551e-09 2.159582e-09)) ((-8.574501e-10 9.826165e-14 -1.036555e-12) (-2.700504e-06 -6.788078e-12 3.229130e-11))
3.252369      	((5.816489e-09 8.705896e-09 1.849563e-08) (-2.228991e-10 -3.452246e-10 2.948271e-09)) ((-7.719404e-10 -1.784824e-13 -5.582997e-13) (-2.490949e-06 6.976354e-12 6.137354e-11))
3.914842      	((1.140951e-08 1.218245e-08 7.244683e-09) (-9.704642e-10 -1.585836e-09 5.474167e-09)) ((-6.939009e-10 -7.039214e-13 -1.052758e-13) (-2.307026e-06 1.777522e-11 1.077771e-10))
4.709811      	((4.550650e-09 1.566148e-08 1.414561e-08) (-9.023012e-10 -2.312842e-09 8.617605e-09)) ((-6.226959e-10 -1.057536e-12 2.001612e-13) (-2.143744e-06 3.623560e-11 1.478080e-10))
5.663773      	((8.449778e-09 1.160151e-08 1.168575e-08) (-6.010306e-10 -3.607025e-09 1.173675e-08)) ((-5.553498e-10 -1.203537e-12 6.016582e-13) (-1.997358e-06 6.192426e-11 1.607895e-10))
6.808528      	((-4.197603e-09 1.145703e-08 7.253398e-09) (-1.628125e-09 -3.971211e-09 1.243655e-08)) ((-4.973685e-10 -1.145328e-12 6.661593e-13) (-1.865000e-06 7.322346e-11 1.536608e-10))
8.182233      	((-1.419813e-10 5.349981e-09 4.397624e-09) (-4.314977e-09 -3.300202e-09 1.162821e-08)) ((-4.488699e-10 -9.565148e-13 6.570140e-13) (-1.744561e-06 7.746724e-11 1.245691e-10))
9.83068       	((-3.099390e-09 3.807137e-09 5.135405e-09) (-4.918208e-09 -3.166333e-09 1.048599e-08)) ((-4.057524e-10 -7.117531e-13 6.776495e-13) (-1.634527e-06 7.985370e-11 8.654909e-11))
11.808816     	((-1.242074e-09 3.943952e-09 2.609129e-09) (-3.688113e-09 -4.235760e-09 8.117211e-09)) ((-3.685626e-10 -7.111451e-13 7.362280e-13) (-1.534036e-06 9.523085e-11 4.234490e-11))
14.182579     	((-1.991679e-09 -1.178503e-09 4.317616e-09) (-1.639129e-09 -3.804812e-09 7.446746e-09)) ((-3.383216e-10 -5.835519e-13 6.291090e-13) (-1.443016e-06 1.162425e-10 5.178811e-12))
17.031095     	((-1.625084e-09 -5.031249e-10 -7.453954e-10) (-1.324443e-09 -3.687711e-09 6.959589e-09)) ((-3.144771e-10 -5.732072e-13 6.898274e-13) (-1.361673e-06 1.317050e-10 -2.910286e-11))
20.449314     	((-1.196247e-09 -1.707238e-09 -3.797102e-09) (-2.097971e-09 -4.291196e-09 6.055535e-09)) ((-2.929533e-10 -7.276645e-13 1.030751e-12) (-1.290166e-06 1.399242e-10 -6.897585e-11))
24.476732     	((-2.708040e-09 4.495907e-11 -4.479149e-09) (-2.747405e-09 -4.999860e-09 6.039213e-09)) ((-2.748894e-10 -7.372386e-13 1.223229e-12) (-1.228971e-06 1.415537e-10 -1.179474e-10))
29.130372     	((-1.940126e-09 -1.655885e-09 -4.514828e-09) (-4.110246e-09 -5.708075e-09 5.556556e-09)) ((-2.601335e-10 -8.143284e-13 1.374915e-12) (-1.177911e-06 1.333908e-10 -1.548905e-10))
34.427249     	((-2.016873e-09 -6.955516e-09 -6.668317e-09) (-2.922411e-09 -5.327310e-09 6.156121e-09)) ((-2.465750e-10 -7.850929e-13 1.414131e-12) (-1.136347e-06 1.296213e-10 -1.783835e-10))
40.367302     	((-2.171664e-09 -1.158633e-08 -7.277093e-09) (-2.087189e-09 -4.552899e-09 7.173748e-09)) ((-2.365064e-10 -6.466283e-13 1.276024e-12) (-1.103403e-06 1.188945e-10 -1.802831e-10))
46.798362     	((-5.151817e-09 -4.100924e-09 1.376413e-09) (-1.725489e-09 -5.335168e-09 6.745506e-09)) ((-2.297962e-10 -5.741157e-13 1.239546e-12) (-1.078704e-06 1.096039e-10 -1.668657e-10))
53.228538     	((-6.447104e-09 1.139800e-09 5.856622e-09) (-2.173459e-09 -5.287455e-09 6.530704e-09)) ((-2.238369e-10 -3.385098e-13 9.875401e-13) (-1.062112e-06 1.053989e-10 -1.469948e-10))
59.657792     	((-7.419432e-09 9.134817e-09 1.470303e-08) (-3.079816e-09 -2.773074e-09 7.891722e-09)) ((-2.199558e-10 -6.671632e-14 7.536257e-13) (-1.052458e-06 1.083199e-10 -1.394287e-10))
66.085976     	((-4.556826e-09 1.334897e-08 1.422668e-08) (-2.972986e-09 -4.297215e-10 8.502537e-09)) ((-2.165884e-10 9.559861e-14 5.569869e-13) (-1.048970e-06 1.115620e-10 -1.501657e-10))
72.512953     	((-4.240692e-09 1.423837e-08 1.051893e-08) (-2.174010e-09 -3.905785e-10 6.579891e-09)) ((-2.143093e-10 1.312149e-13 4.991857e-13) (-1.050908e-06 1.083307e-10 -1.703039e-10))
78.938661     	((-3.712935e-09 1.421845e-08 8.212367e-09) (-1.718327e-09 9.056918e-10 5.569747e-09)) ((-2.138047e-10 1.996850e-13 3.126396e-13) (-1.057764e-06 9.579578e-11 -1.899819e-10))
85.363048     	((-3.682848e-09 1.525783e-08 6.478716e-09) (-1.286928e-09 1.890473e-09 4.283709e-09)) ((-2.143852e-10 2.106438e-13 1.986270e-13) (-1.069076e-06 7.826389e-11 -2.056373e-10))
91.785817     	((-3.305056e-09 1.087987e-08 3.489263e-09) (-1.294905e-09 2.713004e-09 2.961708e-09)) ((-2.159095e-10 1.446751e-13 1.039506e-13) (-1.084352e-06 5.716776e-11 -2.135879e-10))
98.206757     	((-4.247578e-09 6.356894e-09 2.076208e-09) (-1.316023e-09 2.773500e-09 1.749171e-09)) ((-2.194132e-10 4.465966e-14 4.845714e-14) (-1.102974e-06 3.817518e-11 -2.149739e-10))
104.50869     	((-5.567825e-09 4.324631e-09 8.146640e-10) (-1.245181e-09 1.874645e-09 7.030770e-10)) ((-2.235109e-10 -3.879033e-14 4.301210e-14) (-1.123797e-06 2.494910e-11 -2.061215e-10))
110.689606    	((-5.350007e-09 -3.333649e-09 -2.491657e-09) (-1.117753e-09 7.049438e-10 1.437441e-10)) ((-2.283885e-10 -1.713490e-13 1.500642e-13) (-1.145408e-06 2.059125e-11 -1.885020e-10))
116.762618    	((-6.966054e-09 -2.334379e-09 -1.157993e-11) (-1.086934e-09 -1.440992e-10 1.907403e-10)) ((-2.343322e-10 -2.827650e-13 1.985920e-13) (-1.166235e-06 2.553377e-11 -1.680200e-10))
122.743386    	((-8.411058e-09 1.329182e-09 5.709227e-09) (-9.893866e-10 -3.470097e-10 1.176061e-09)) ((-2.398486e-10 -3.340200e-13 2.230710e-13) (-1.184941e-06 3.800456e-11 -1.513193e-10))
128.648541    	((-1.050428e-08 2.247597e-09 5.928871e-09) (-5.696819e-10 1.459291e-10 2.649208e-09)) ((-2.458789e-10 -4.524529e-13 3.307224e-13) (-1.200588e-06 5.557534e-11 -1.438268e-10))
134.495315    	((-1.232241e-08 2.865400e-09 2.169730e-09) (6.633626e-10 1.727958e-10 3.240852e-09)) ((-2.505889e-10 -5.843849e-13 5.528982e-13) (-1.212577e-06 8.219493e-11 -1.532891e-10))
140.29982     	((-1.250442e-08 1.863887e-09 -1.873639e-09) (1.859914e-09 6.168957e-10 3.670056e-09)) ((-2.543696e-10 -6.422580e-13 6.842474e-13) (-1.220646e-06 1.065308e-10 -1.740341e-10))
146.076111    	((-1.118020e-08 5.225073e-09 -1.364272e-09) (2.159541e-09 1.434274e-09 4.382501e-09)) ((-2.567236e-10 -6.285735e-13 7.210809e-13) (-1.224953e-06 1.222484e-10 -2.011536e-10))
151.813842    	((-8.883281e-09 6.291374e-09 -5.260466e-09) (1.954120e-09 1.621319e-09 4.718686e-09)) ((-2.581637e-10 -6.253536e-13 7.720489e-13) (-1.225972e-06 1.249502e-10 -2.229948e-10))
