# Forces      
# CofR        : (0.000000e+00 0.000000e+00 0.000000e+00)
# Time        forces(pressure viscous)	moments(pressure viscous)
0             	((0.000000e+00 0.000000e+00 0.000000e+00) (0.000000e+00 0.000000e+00 0.000000e+00)) ((0.000000e+00 0.000000e+00 0.000000e+00) (0.000000e+00 0.000000e+00 0.000000e+00))
0.012         	((6.862623e-10 -1.134692e-07 -2.188157e-10) (7.459263e-12 -2.892663e-09 9.356807e-12)) ((3.264557e-14 -3.799365e-15 2.586925e-09) (-1.226584e-15 2.679476e-13 3.509093e-06))
0.0264        	((1.790365e-09 -1.681093e-08 5.509872e-13) (2.117404e-11 -4.270231e-09 1.695438e-11)) ((-1.216053e-14 2.549974e-13 1.195724e-09) (1.702582e-14 7.190105e-13 3.214514e-06))
0.04368       	((2.163572e-09 -5.353077e-08 -8.619711e-10) (9.661407e-12 -4.525729e-09 2.470156e-11)) ((6.274990e-14 2.994729e-13 6.637528e-10) (2.729406e-14 1.268196e-12 2.911990e-06))
0.064416      	((2.813311e-09 6.508788e-09 6.466770e-10) (-3.757608e-11 -3.944645e-09 4.113278e-11)) ((5.268737e-15 1.719288e-13 3.703418e-10) (9.386115e-14 1.921324e-12 2.608567e-06))
0.0892992     	((1.236169e-09 -2.399131e-08 -7.220353e-10) (-8.875073e-11 -3.331440e-09 6.404872e-11)) ((9.059846e-14 3.920865e-13 2.863173e-10) (2.931303e-13 2.754058e-12 2.313492e-06))
0.119159      	((-2.309740e-12 2.778894e-09 -6.864358e-11) (-1.209670e-10 -2.797716e-09 8.172960e-11)) ((3.382519e-14 2.734477e-13 2.215356e-10) (5.519639e-13 3.378596e-12 2.036151e-06))
0.154991      	((4.021244e-11 -1.232047e-08 -7.508784e-11) (-1.360130e-10 -2.647950e-09 9.287352e-11)) ((5.290615e-14 2.210377e-13 1.859927e-10) (8.387701e-13 3.712025e-12 1.783116e-06))
0.197989      	((-5.497531e-10 -4.989294e-09 -2.253159e-10) (-1.117750e-10 -2.478772e-09 9.677709e-11)) ((5.803514e-14 2.237561e-13 1.538170e-10) (8.982423e-13 3.755209e-12 1.559176e-06))
0.249587      	((2.032371e-10 -7.097831e-09 -2.260993e-10) (-5.800213e-11 -2.312379e-09 9.612870e-11)) ((3.536189e-14 1.694707e-13 1.275400e-10) (7.802532e-13 3.724377e-12 1.366398e-06))
0.311504      	((3.471723e-10 -6.373495e-09 -2.411917e-10) (-6.316130e-12 -2.146893e-09 8.991319e-11)) ((4.145521e-14 8.967210e-14 1.054537e-10) (4.931000e-13 3.551130e-12 1.203949e-06))
0.385805      	((2.170329e-09 -6.285496e-09 3.114224e-12) (-3.404399e-11 -1.958152e-09 8.549525e-11)) ((4.339593e-14 3.302731e-14 8.905574e-11) (1.635503e-13 3.247736e-12 1.068312e-06))
0.474966      	((-4.924892e-10 -7.574605e-09 -2.858001e-11) (-5.765305e-11 -1.761668e-09 9.556350e-11)) ((5.056553e-14 2.850847e-14 7.723176e-11) (-1.655242e-13 3.145568e-12 9.544406e-07))
0.581959      	((6.625949e-10 -5.807265e-09 -3.595464e-12) (-8.821302e-11 -1.571927e-09 9.178032e-11)) ((-2.519413e-15 -5.538624e-15 6.562508e-11) (-3.196494e-13 2.756711e-12 8.575997e-07))
0.710351      	((1.011643e-09 -4.756641e-09 -1.075514e-10) (-2.382138e-10 -1.319955e-09 6.693874e-11)) ((1.275126e-14 -1.021277e-13 5.409705e-11) (2.743161e-13 1.945331e-12 7.739846e-07))
0.864421      	((3.567984e-09 -6.538487e-09 -2.625158e-10) (-3.393744e-10 -9.691770e-10 4.875127e-11)) ((-4.124065e-14 -1.557966e-13 4.611902e-11) (9.712801e-13 1.339619e-12 7.007657e-07))
1.049306      	((4.364652e-09 -5.850755e-09 -1.502328e-10) (-4.290951e-10 -6.525331e-10 3.814436e-11)) ((-9.053956e-14 -2.144957e-13 4.105413e-11) (9.101955e-13 7.775174e-13 6.358769e-07))
1.271167      	((5.175321e-09 -6.337689e-09 -4.232499e-11) (-6.178093e-10 -5.078264e-10 2.678112e-11)) ((-1.712119e-13 -2.471627e-13 3.731007e-11) (1.196435e-12 1.556209e-12 5.778294e-07))
1.5374        	((3.158040e-09 -7.572782e-09 3.313413e-11) (-6.552089e-10 -3.256756e-10 1.880150e-11)) ((-2.560967e-13 -2.777899e-13 3.355281e-11) (2.442706e-12 4.300692e-12 5.256641e-07))
1.85688       	((2.161336e-09 -9.293654e-09 -1.079800e-10) (-5.240558e-10 -2.089542e-10 1.283228e-11)) ((-3.051758e-13 -2.422378e-13 2.992933e-11) (3.706917e-12 6.932011e-12 4.788469e-07))
2.240256      	((1.885081e-09 -8.488748e-09 3.704518e-10) (-4.758445e-10 -2.128469e-10 7.494056e-12)) ((-3.441704e-13 -2.413274e-13 2.733304e-11) (5.234557e-12 8.920047e-12 4.371029e-07))
2.700307      	((3.180654e-09 -7.849172e-09 2.807161e-10) (-4.809992e-10 -2.451989e-10 -4.066576e-11)) ((-3.448867e-13 -2.496205e-13 2.485497e-11) (7.913538e-12 1.035293e-11 4.001965e-07))
3.252369      	((4.126013e-09 -4.421307e-09 2.599291e-10) (-4.983992e-10 -6.404868e-11 -6.039723e-11)) ((-3.170418e-13 -1.680731e-13 2.222637e-11) (1.095619e-11 1.124035e-11 3.677682e-07))
3.914842      	((2.599409e-09 -1.194486e-09 9.197261e-11) (-5.116451e-10 2.801471e-10 -3.894827e-11)) ((-2.895041e-13 -6.008853e-14 1.944244e-11) (1.172626e-11 1.248598e-11 3.393020e-07))
4.709811      	((1.143897e-09 7.287994e-10 7.194283e-11) (-5.793429e-10 5.697631e-10 -5.090132e-11)) ((-2.133803e-13 5.189352e-14 1.689701e-11) (1.053589e-11 1.291005e-11 3.141808e-07))
5.663773      	((1.083676e-09 1.553362e-09 1.017079e-10) (-5.734050e-10 8.116544e-10 -6.030734e-11)) ((-1.637087e-13 7.851760e-14 1.457997e-11) (9.487577e-12 1.275462e-11 2.917662e-07))
6.808528      	((8.285160e-10 1.517062e-09 1.279701e-10) (-6.137379e-10 7.170507e-10 -6.746767e-11)) ((-7.709406e-14 9.378690e-14 1.285044e-11) (7.239032e-12 1.207001e-11 2.715168e-07))
8.182233      	((9.272115e-10 8.781961e-10 1.182238e-10) (-4.597248e-10 7.235998e-10 -9.072811e-11)) ((-6.161003e-14 1.148896e-13 1.158303e-11) (4.181877e-12 1.068987e-11 2.530651e-07))
9.83068       	((8.516383e-10 5.908099e-10 -6.735182e-11) (-4.141549e-10 6.588746e-10 -1.207982e-10)) ((-7.902418e-14 1.063197e-13 1.055812e-11) (3.397756e-12 9.192310e-12 2.361555e-07))
11.808816     	((8.451418e-10 8.040229e-11 -6.657290e-11) (-4.848310e-10 5.164401e-10 -1.243722e-10)) ((-3.248824e-14 1.137544e-13 9.709147e-12) (3.927296e-12 7.217619e-12 2.205763e-07))
14.182579     	((9.503221e-10 -1.443858e-10 -1.305919e-10) (-4.635797e-10 4.686786e-10 -1.344437e-10)) ((2.250072e-14 1.225464e-13 9.009318e-12) (3.868022e-12 4.916221e-12 2.061828e-07))
17.031095     	((8.737084e-10 2.140222e-10 -5.627970e-11) (-4.620284e-10 2.054173e-10 -1.406521e-10)) ((3.459226e-14 1.257682e-13 8.428202e-12) (3.849380e-12 2.610535e-12 1.929181e-07))
20.449314     	((-1.156163e-10 1.486096e-10 -3.612701e-12) (-5.303573e-10 1.033449e-10 -1.162567e-10)) ((6.389476e-14 1.271914e-13 7.950843e-12) (4.178933e-12 6.104422e-13 1.807767e-07))
24.551176     	((-2.352002e-10 6.409892e-11 3.355935e-11) (-4.305840e-10 6.345980e-11 -8.652158e-11)) ((9.681897e-14 9.825932e-14 7.502215e-12) (4.591137e-12 -1.105001e-12 1.697399e-07))
29.473411     	((-7.476946e-10 -2.326851e-10 9.939668e-12) (-3.820462e-10 1.090109e-11 -7.078606e-11)) ((1.154236e-13 6.839699e-14 7.140659e-12) (5.152323e-12 -2.325830e-12 1.597580e-07))
35.380094     	((-7.331287e-10 -1.892700e-10 -3.405723e-11) (-1.625921e-10 -4.770671e-11 -5.938380e-11)) ((1.237262e-13 6.738281e-14 6.861373e-12) (5.448452e-12 -3.240084e-12 1.507621e-07))
42.468112     	((-2.875912e-10 -4.724042e-10 -6.717530e-12) (-2.088557e-11 -1.762206e-10 -4.246314e-11)) ((1.023640e-13 8.518271e-14 6.562028e-12) (5.841545e-12 -3.445093e-12 1.426480e-07))
50.973735     	((-4.093679e-10 -3.951932e-10 -9.529578e-11) (1.167212e-12 -1.487518e-10 -2.984519e-11)) ((8.821673e-14 9.258144e-14 6.290887e-12) (6.479598e-12 -2.513107e-12 1.353036e-07))
61.180482     	((-6.918795e-11 -4.620331e-10 -6.337140e-11) (1.098892e-10 6.299699e-13 -1.324889e-11)) ((8.595584e-14 9.320488e-14 6.043347e-12) (5.844182e-12 -2.421895e-12 1.286362e-07))
73.428578     	((-9.162894e-12 -2.661330e-10 -2.283586e-11) (1.666611e-10 1.599596e-10 1.980939e-11)) ((8.360342e-14 8.945947e-14 5.766916e-12) (4.600291e-12 -2.319044e-12 1.225779e-07))
88.126294     	((9.089289e-11 -1.580302e-10 -3.685334e-11) (1.008378e-10 1.554112e-10 3.275786e-11)) ((9.008270e-14 7.894018e-14 5.450815e-12) (3.668398e-12 -1.972187e-12 1.170901e-07))
105.763553    	((-9.770434e-11 -4.372799e-10 -4.031847e-11) (-4.209175e-11 5.828784e-11 2.510928e-11)) ((9.163643e-14 7.138400e-14 5.243685e-12) (2.602521e-12 -1.555020e-12 1.121482e-07))
126.928263    	((-1.938011e-10 -6.147051e-10 -3.334613e-11) (-1.490073e-10 3.435500e-11 2.663699e-11)) ((8.364759e-14 6.680099e-14 5.091379e-12) (1.199176e-12 -8.848595e-13 1.077266e-07))
152.150433    	((-3.433198e-10 -7.047228e-10 -3.892654e-11) (-1.452909e-10 5.451898e-11 3.362881e-11)) ((8.237932e-14 6.240469e-14 5.008589e-12) (-2.626027e-13 -1.038999e-13 1.038064e-07))
181.42925     	((-4.861095e-10 -8.366840e-10 -7.515152e-11) (-1.663674e-10 4.898948e-11 2.926929e-11)) ((7.656403e-14 6.206976e-14 4.935609e-12) (-2.019615e-12 3.857143e-13 1.003852e-07))
214.763813    	((-5.650893e-10 -1.013110e-09 -5.190758e-11) (-2.293271e-10 -5.225230e-11 1.905849e-11)) ((6.478656e-14 6.382118e-14 4.861842e-12) (-3.476270e-12 4.260894e-13 9.743667e-08))
252.153108    	((-4.957209e-10 -9.686068e-10 -6.939385e-11) (-2.095350e-10 -9.629712e-11 1.278471e-11)) ((6.280931e-14 6.899552e-14 4.767771e-12) (-4.037205e-12 1.334454e-13 9.492718e-08))
292.688512    	((-4.117871e-10 -9.393386e-10 -1.151203e-10) (-1.708530e-10 -1.027086e-10 1.488826e-11)) ((5.655289e-14 6.715231e-14 4.690539e-12) (-3.790881e-12 -4.659099e-13 9.283445e-08))
333.210721    	((-4.202368e-10 -8.522889e-10 -9.030786e-11) (-1.608505e-10 -6.068197e-11 3.168021e-11)) ((4.966348e-14 6.221691e-14 4.620132e-12) (-3.360947e-12 -1.144564e-12 9.115491e-08))
373.719898    	((-3.277687e-10 -6.876967e-10 -5.547220e-11) (-1.312403e-10 3.386873e-12 4.044913e-11)) ((4.342510e-14 6.326875e-14 4.566314e-12) (-2.789724e-12 -1.849403e-12 8.983087e-08))
414.215998    	((-3.210297e-10 -6.321345e-10 -1.620805e-11) (-9.124058e-11 6.070872e-11 4.257469e-11)) ((3.965056e-14 6.284318e-14 4.518467e-12) (-2.191804e-12 -2.469009e-12 8.881430e-08))
454.698975    	((-2.834445e-10 -5.168824e-10 -2.210287e-11) (-5.118846e-11 9.866986e-11 3.999451e-11)) ((3.455853e-14 6.329714e-14 4.484532e-12) (-1.682018e-12 -2.761955e-12 8.805179e-08))
495.169168    	((-2.889000e-10 -4.683958e-10 -2.697783e-11) (-3.433369e-11 9.333033e-11 3.033399e-11)) ((2.953171e-14 6.292797e-14 4.453269e-12) (-1.273982e-12 -2.853899e-12 8.750209e-08))
535.627427    	((-2.763775e-10 -4.178961e-10 -2.686309e-11) (-2.511481e-11 7.895114e-11 1.930857e-11)) ((2.738553e-14 6.255438e-14 4.429929e-12) (-1.042813e-12 -2.841641e-12 8.712893e-08))
576.074679    	((-2.571338e-10 -3.592818e-10 -6.869196e-12) (-3.018994e-11 9.440332e-11 1.390507e-11)) ((2.314508e-14 6.456996e-14 4.404886e-12) (-9.137231e-13 -2.755584e-12 8.690384e-08))
616.510095    	((-2.317913e-10 -3.225786e-10 1.966955e-11) (-2.528158e-11 1.417543e-10 1.530563e-11)) ((1.657709e-14 6.554020e-14 4.375012e-12) (-9.236752e-13 -2.684441e-12 8.680228e-08))
656.934127    	((-2.081567e-10 -2.859947e-10 2.097556e-11) (-2.864240e-11 1.624700e-10 1.665914e-11)) ((1.152152e-14 6.546706e-14 4.348178e-12) (-9.628180e-13 -2.706801e-12 8.680318e-08))
697.347597    	((-1.515352e-10 -2.347049e-10 2.022917e-11) (-5.547803e-11 1.616741e-10 1.484081e-11)) ((7.090662e-15 6.479863e-14 4.316873e-12) (-9.995018e-13 -2.864528e-12 8.688901e-08))
737.751285    	((-1.063968e-10 -2.089963e-10 2.259315e-11) (-8.735694e-11 1.592458e-10 1.192276e-11)) ((2.343682e-15 6.401261e-14 4.287083e-12) (-1.039837e-12 -3.044424e-12 8.704420e-08))
778.145936    	((-6.907929e-11 -1.893134e-10 2.321228e-11) (-1.084073e-10 1.614678e-10 1.221836e-11)) ((-1.072530e-15 6.295474e-14 4.263889e-12) (-1.109760e-12 -3.153015e-12 8.725434e-08))
818.532386    	((-4.375035e-11 -1.653250e-10 2.794344e-11) (-1.188724e-10 1.615012e-10 1.358488e-11)) ((-4.188459e-15 6.221194e-14 4.243555e-12) (-1.108890e-12 -3.195038e-12 8.750703e-08))
858.911591    	((-1.013981e-11 -1.530174e-10 2.991665e-11) (-1.197391e-10 1.705948e-10 1.465299e-11)) ((-8.026695e-15 6.157851e-14 4.227398e-12) (-1.086888e-12 -3.130856e-12 8.779114e-08))
899.284405    	((-2.228731e-12 -1.458366e-10 2.688967e-11) (-1.155444e-10 1.730715e-10 1.395887e-11)) ((-1.054977e-14 6.136035e-14 4.219380e-12) (-1.062824e-12 -3.012453e-12 8.809706e-08))
939.651597    	((3.256756e-13 -1.493908e-10 2.252162e-11) (-1.160044e-10 1.693172e-10 1.308472e-11)) ((-1.190376e-14 6.173446e-14 4.216302e-12) (-1.022593e-12 -2.919698e-12 8.841644e-08))
