# Forces      
# CofR        : (0.000000e+00 0.000000e+00 0.000000e+00)
# Time        forces(pressure viscous)	moments(pressure viscous)
0             	((0.000000e+00 0.000000e+00 0.000000e+00) (4.000695e-03 -5.625043e-13 2.857540e-13)) ((0.000000e+00 0.000000e+00 0.000000e+00) (-7.911885e-15 -4.863659e-14 8.471624e-14))
0.012         	((1.170619e+00 1.694301e-06 2.243234e-06) (4.671592e-03 -4.870239e-09 -4.105209e-09)) ((2.740320e-12 -8.097650e-11 -1.127420e-10) (1.237614e-13 -2.117111e-12 -1.400351e-11))
0.0264        	((-1.749241e-01 -2.689713e-05 -4.461116e-05) (4.684265e-03 -2.735098e-08 -3.681921e-08)) ((-7.748842e-11 -2.401020e-09 -5.518731e-10) (-3.992244e-12 -3.605401e-10 3.810056e-10))
0.04368       	((-1.920168e-01 2.119681e-05 4.026060e-05) (4.068681e-03 -2.334896e-08 -2.591028e-08)) ((7.346705e-11 1.806968e-09 1.022298e-09) (-1.988687e-12 -1.477499e-10 2.493413e-10))
0.064416      	((-3.815393e-04 3.329994e-07 -2.812595e-06) (3.583282e-03 -2.285923e-08 -5.412878e-09)) ((3.710326e-11 8.525123e-11 -2.324254e-10) (-3.670763e-12 2.392348e-10 -2.485050e-11))
0.0892992     	((-1.466676e-03 -5.241570e-06 -5.012729e-06) (3.296528e-03 -5.835781e-08 -2.324697e-08)) ((8.088317e-11 -6.342390e-11 -1.580138e-10) (2.834061e-11 4.447712e-10 -2.065870e-10))
0.119159      	((-1.963368e-03 -1.267965e-06 -1.754877e-06) (3.054159e-03 -6.912826e-08 -2.661443e-08)) ((2.099347e-11 9.823715e-12 -4.252497e-11) (5.032860e-11 4.733124e-10 -3.619740e-10))
0.154991      	((3.782999e-06 -3.470012e-06 -3.048830e-06) (2.826513e-03 -5.433805e-08 -2.602965e-08)) ((3.569725e-11 -1.814155e-11 -5.309472e-11) (2.998100e-11 5.349787e-10 -2.126431e-10))
0.197989      	((6.019168e-04 -1.804097e-06 -1.683610e-06) (2.623099e-03 -4.017542e-08 -2.125880e-08)) ((2.343862e-11 -1.056662e-11 -3.980940e-11) (-1.815579e-11 3.268306e-10 6.959785e-11))
0.249587      	((8.963303e-04 -1.008237e-06 -9.587092e-07) (2.447681e-03 -3.177525e-08 -1.047088e-08)) ((1.436365e-11 -5.493090e-12 -1.917925e-11) (-1.488493e-11 -5.801421e-11 3.026995e-10))
0.311504      	((1.088828e-03 -7.991273e-07 -9.284374e-07) (2.295521e-03 -3.195858e-08 -1.972819e-08)) ((1.088661e-11 -1.636157e-11 -7.729787e-12) (-2.704121e-11 -3.578577e-10 3.606520e-10))
0.385805      	((1.197420e-03 -2.573012e-07 -5.066028e-07) (2.157646e-03 -3.482800e-08 -3.096689e-08)) ((1.693607e-11 -5.049677e-12 -7.657603e-12) (-7.747408e-11 -3.499941e-10 4.074357e-10))
0.474966      	((1.264110e-03 -1.532828e-07 -2.320013e-07) (2.025793e-03 -3.683150e-08 -3.534426e-08)) ((1.530258e-11 5.010957e-12 -8.554330e-12) (-1.027551e-10 -1.649620e-10 4.210289e-10))
0.581959      	((1.324024e-03 2.744391e-09 -6.819402e-08) (1.896965e-03 -3.415919e-08 -3.532361e-08)) ((1.417903e-11 1.500838e-11 -6.853471e-12) (-9.236219e-11 3.596986e-11 8.698277e-11))
0.710351      	((1.396998e-03 4.319999e-09 -4.294810e-08) (1.773164e-03 -2.726305e-08 -2.979450e-08)) ((1.110999e-11 1.694383e-11 -4.747492e-12) (-8.178232e-11 4.085520e-10 -4.969780e-10))
0.864421      	((1.501477e-03 -3.101316e-07 -2.744044e-07) (1.657189e-03 -2.052918e-08 -2.211583e-08)) ((1.248132e-11 1.959290e-11 -4.979858e-12) (-6.409651e-11 1.146844e-09 -1.260619e-09))
1.049306      	((1.649089e-03 -3.697914e-07 -4.268895e-07) (1.550844e-03 -1.575353e-08 -1.397898e-08)) ((1.100089e-11 4.405769e-12 -8.088219e-12) (-4.127157e-11 1.974830e-09 -2.092091e-09))
1.271167      	((1.849234e-03 -7.799923e-07 -7.932598e-07) (1.455341e-03 -2.180198e-08 -1.813670e-08)) ((8.315541e-12 -1.830644e-11 -7.204660e-12) (-3.119844e-11 2.568625e-09 -2.675180e-09))
1.532916      	((2.111961e-03 -8.474646e-07 -8.447063e-07) (1.372302e-03 -3.419924e-08 -3.057414e-08)) ((1.644473e-12 -2.576269e-11 -8.899183e-12) (-1.879760e-11 2.697969e-09 -2.686997e-09))
1.834196      	((2.436714e-03 -8.658383e-07 -9.616542e-07) (1.302212e-03 -3.985668e-08 -4.377353e-08)) ((-8.027037e-13 -2.760084e-11 -1.358087e-11) (1.061413e-11 2.296118e-09 -2.246437e-09))
2.174684      	((2.823264e-03 -7.370658e-07 -8.329826e-07) (1.244191e-03 -4.055911e-08 -4.822969e-08)) ((-2.314267e-12 -2.622575e-11 -1.744086e-11) (5.067958e-11 1.737214e-09 -1.703374e-09))
2.553982      	((3.263868e-03 -5.861930e-07 -6.671027e-07) (1.196727e-03 -3.927447e-08 -4.343281e-08)) ((-4.718171e-13 -2.531239e-11 -9.403053e-12) (7.310124e-11 1.269650e-09 -1.325457e-09))
2.937057      	((3.720693e-03 -2.245514e-07 -3.343417e-07) (1.160563e-03 -3.589469e-08 -3.509275e-08)) ((1.227302e-12 -1.009232e-11 -6.205411e-12) (7.908022e-11 9.238727e-10 -9.931699e-10))
3.314635      	((4.153237e-03 1.703204e-07 3.710618e-08) (1.131836e-03 -1.906813e-08 -1.413970e-08)) ((7.733042e-12 -2.350728e-12 -1.023115e-11) (7.271125e-11 2.592488e-10 -4.488553e-10))
3.687069      	((4.550268e-03 4.449255e-07 2.065881e-07) (1.109090e-03 -1.431149e-08 -1.216118e-08)) ((1.052203e-11 6.281485e-12 -2.186735e-11) (8.460586e-11 7.812365e-10 -9.219000e-10))
4.055859      	((4.865227e-03 4.558382e-08 -2.446479e-07) (1.091352e-03 -4.498283e-08 -4.521577e-08)) ((1.902644e-11 6.691885e-12 -4.104612e-11) (9.898660e-11 2.616177e-09 -2.716362e-09))
4.42306       	((5.082539e-03 2.073254e-07 -4.492128e-08) (1.076471e-03 -1.009620e-07 -9.729216e-08)) ((2.516860e-11 -1.389672e-11 -4.222530e-11) (5.382832e-11 5.514299e-09 -5.842352e-09))
4.790096      	((5.205912e-03 1.610302e-06 1.152124e-06) (1.062585e-03 -1.351374e-07 -1.262124e-07)) ((3.206490e-11 -1.391796e-11 -3.231944e-11) (2.473043e-11 8.309205e-09 -8.708332e-09))
5.157         	((5.232765e-03 3.285850e-06 2.667827e-06) (1.049708e-03 -1.060919e-07 -1.066252e-07)) ((2.761431e-11 -1.580871e-11 -3.587246e-12) (2.993988e-11 9.991647e-09 -1.029949e-08))
5.522956      	((5.164932e-03 2.753257e-06 2.093433e-06) (1.037756e-03 -8.185612e-08 -8.826668e-08)) ((2.104733e-11 -6.224234e-11 3.290894e-11) (3.308197e-11 1.168405e-08 -1.204990e-08))
5.887368      	((5.060679e-03 1.805483e-06 9.642853e-07) (1.026664e-03 -8.646177e-08 -9.930001e-08)) ((3.275370e-11 -1.154740e-10 4.015835e-11) (3.209489e-12 1.337696e-08 -1.363142e-08))
6.250161      	((4.963833e-03 1.252084e-06 5.767249e-07) (1.016635e-03 -1.131007e-07 -1.220545e-07)) ((3.284809e-11 -1.086867e-10 4.984292e-12) (-6.004728e-11 1.520399e-08 -1.569197e-08))
6.611592      	((4.879651e-03 1.571173e-06 5.995968e-07) (1.008101e-03 -1.459659e-07 -1.485611e-07)) ((1.775605e-11 -7.312121e-11 -4.052621e-11) (-8.786862e-11 1.667434e-08 -1.744785e-08))
6.971916      	((4.838831e-03 1.264586e-06 1.468159e-07) (1.001186e-03 -1.633560e-07 -1.814440e-07)) ((-1.872186e-12 -6.057153e-11 -7.108552e-11) (-4.610667e-11 1.770802e-08 -1.827066e-08))
7.331216      	((4.825032e-03 6.005570e-07 -2.205249e-08) (9.951441e-04 -1.462023e-07 -1.905188e-07)) ((-1.562515e-11 -3.430023e-11 -8.665575e-11) (2.627673e-11 1.701937e-08 -1.691419e-08))
7.689572      	((4.813150e-03 7.111625e-07 -7.901415e-08) (9.893968e-04 -1.316902e-07 -1.720895e-07)) ((-1.717035e-11 -4.600782e-12 -7.903884e-11) (-8.775607e-12 1.498515e-08 -1.525216e-08))
8.047089      	((4.785195e-03 6.745924e-07 -1.159221e-07) (9.836605e-04 -1.229483e-07 -1.487376e-07)) ((-1.728248e-11 -9.965912e-12 -5.795958e-11) (-1.065622e-10 1.278867e-08 -1.398982e-08))
8.403838      	((4.747386e-03 1.057535e-06 1.772838e-07) (9.780008e-04 -1.007992e-07 -1.213238e-07)) ((-9.705689e-12 -2.391155e-11 -4.055988e-11) (-1.869403e-10 1.107515e-08 -1.296304e-08))
8.75987       	((4.697167e-03 1.009619e-06 -8.019962e-08) (9.725028e-04 -8.006943e-08 -1.056161e-07)) ((-1.507468e-11 -5.084528e-11 -3.214768e-11) (-1.265285e-10 1.017389e-08 -1.174408e-08))
9.115241      	((4.641827e-03 7.766826e-07 -4.049020e-07) (9.671523e-04 -6.297967e-08 -1.071729e-07)) ((-1.687270e-11 -5.606270e-11 -2.404559e-11) (2.036375e-11 1.030119e-08 -1.081052e-08))
9.470013      	((4.592199e-03 7.160131e-07 -2.045366e-07) (9.620431e-04 -5.104773e-08 -1.067480e-07)) ((-1.832053e-11 -3.137619e-11 -3.289860e-11) (1.056213e-10 1.074392e-08 -1.062400e-08))
9.824242      	((4.550474e-03 7.328197e-07 -8.277062e-07) (9.572423e-04 -4.103874e-08 -1.032835e-07)) ((-2.780978e-11 -6.795727e-12 -5.409977e-11) (1.743929e-10 1.037310e-08 -1.034738e-08))
10.17797      	((4.524471e-03 -1.093177e-07 -1.615424e-06) (9.528628e-04 -3.731214e-08 -1.060653e-07)) ((-4.322462e-11 1.464563e-11 -6.823745e-11) (1.790632e-10 9.367086e-09 -9.811253e-09))
10.531208     	((4.508844e-03 -1.044631e-06 -2.325217e-06) (9.489393e-04 -4.928774e-08 -1.116798e-07)) ((-5.573258e-11 3.350882e-11 -6.967521e-11) (7.002705e-11 8.598323e-09 -9.501370e-09))
10.883946     	((4.499177e-03 -1.875348e-06 -3.238740e-06) (9.453778e-04 -7.663774e-08 -1.347308e-07)) ((-7.001410e-11 3.688679e-11 -6.483010e-11) (2.201038e-11 8.397723e-09 -8.923237e-09))
11.236186     	((4.486758e-03 -2.849467e-06 -4.116999e-06) (9.419661e-04 -1.016250e-07 -1.676152e-07)) ((-8.472980e-11 1.254678e-11 -5.742941e-11) (7.795447e-11 7.484736e-09 -7.301708e-09))
11.587944     	((4.473154e-03 -3.182407e-06 -4.510776e-06) (9.385528e-04 -1.143095e-07 -1.811923e-07)) ((-9.123207e-11 -3.981503e-12 -4.819459e-11) (8.327138e-11 5.784388e-09 -5.772408e-09))
11.939242     	((4.454927e-03 -3.684182e-06 -5.208752e-06) (9.351014e-04 -1.245849e-07 -1.884956e-07)) ((-9.192758e-11 -1.120526e-11 -4.469240e-11) (4.912946e-11 4.358069e-09 -5.004317e-09))
12.290108     	((4.431821e-03 -4.733719e-06 -6.033592e-06) (9.316443e-04 -1.504001e-07 -2.071319e-07)) ((-9.719578e-11 -2.451416e-11 -4.211839e-11) (2.672059e-12 3.322589e-09 -4.623462e-09))
12.640568     	((4.409729e-03 -5.734564e-06 -7.271107e-06) (9.282826e-04 -1.887300e-07 -2.408513e-07)) ((-9.623336e-11 -3.947632e-11 -3.943889e-11) (-1.809610e-11 2.588514e-09 -4.465325e-09))
12.990644     	((4.387633e-03 -6.930835e-06 -8.629585e-06) (9.250928e-04 -2.382040e-07 -2.941634e-07)) ((-9.463195e-11 -4.838991e-11 -4.242289e-11) (-2.413829e-11 2.532064e-09 -4.854979e-09))
13.340352     	((4.372416e-03 -8.540067e-06 -1.049977e-05) (9.221647e-04 -2.989148e-07 -3.678436e-07)) ((-9.638853e-11 -6.080381e-11 -4.646464e-11) (-5.257124e-11 3.355481e-09 -5.616933e-09))
13.689702     	((4.359095e-03 -1.014904e-05 -1.218939e-05) (9.194797e-04 -3.622343e-07 -4.389923e-07)) ((-1.031509e-10 -6.771798e-11 -4.860496e-11) (-1.342201e-10 3.614979e-09 -5.798293e-09))
14.038703     	((4.348117e-03 -1.186513e-05 -1.424976e-05) (9.169937e-04 -4.313056e-07 -5.109830e-07)) ((-1.086947e-10 -7.783759e-11 -4.778742e-11) (-2.246496e-10 3.410816e-09 -5.853686e-09))
14.387365     	((4.336907e-03 -1.387764e-05 -1.640579e-05) (9.146922e-04 -5.177556e-07 -5.954014e-07)) ((-1.082321e-10 -8.291692e-11 -4.459348e-11) (-2.478849e-10 3.489946e-09 -6.506379e-09))
14.735677     	((4.321718e-03 -1.608446e-05 -1.889577e-05) (9.125191e-04 -6.182250e-07 -7.006863e-07)) ((-1.069108e-10 -9.411202e-11 -4.661802e-11) (-2.229285e-10 3.936016e-09 -6.973787e-09))
15.083603     	((4.306899e-03 -1.868714e-05 -2.182333e-05) (9.104436e-04 -7.292496e-07 -8.284593e-07)) ((-1.117492e-10 -1.216469e-10 -5.694745e-11) (-2.495979e-10 4.525247e-09 -7.092146e-09))
15.431192     	((4.291457e-03 -2.075237e-05 -2.438252e-05) (9.083996e-04 -8.494465e-07 -9.644558e-07)) ((-1.241217e-10 -1.478253e-10 -6.978230e-11) (-2.928731e-10 4.581434e-09 -7.575580e-09))
15.778557     	((4.274887e-03 -2.364975e-05 -2.762849e-05) (9.063121e-04 -9.754009e-07 -1.110996e-06)) ((-1.326850e-10 -1.745585e-10 -7.654730e-11) (-2.643374e-10 4.031371e-09 -7.450640e-09))
16.125683     	((4.256568e-03 -2.630763e-05 -3.059774e-05) (9.041617e-04 -1.105923e-06 -1.264380e-06)) ((-1.373381e-10 -1.942077e-10 -8.036847e-11) (-2.323382e-10 2.839953e-09 -6.569835e-09))
16.472549     	((4.238064e-03 -2.909030e-05 -3.357082e-05) (9.019626e-04 -1.238574e-06 -1.412384e-06)) ((-1.397292e-10 -2.117430e-10 -7.978862e-11) (-2.370890e-10 8.853973e-10 -5.143025e-09))
16.819167     	((4.222189e-03 -3.253729e-05 -3.726354e-05) (8.997728e-04 -1.381284e-06 -1.565422e-06)) ((-1.436860e-10 -2.388145e-10 -7.706324e-11) (-2.292921e-10 -1.390865e-09 -3.182775e-09))
17.165559     	((4.210716e-03 -3.604207e-05 -4.091574e-05) (8.976649e-04 -1.533023e-06 -1.727535e-06)) ((-1.454613e-10 -2.596210e-10 -7.186318e-11) (-2.373224e-10 -3.679913e-09 -8.900819e-10))
17.511738     	((4.201187e-03 -3.966527e-05 -4.473516e-05) (8.956766e-04 -1.690722e-06 -1.893883e-06)) ((-1.500556e-10 -2.782655e-10 -6.779945e-11) (-2.855332e-10 -5.994473e-09 1.525985e-09))
17.85771      	((4.192175e-03 -4.375287e-05 -4.928300e-05) (8.938085e-04 -1.858031e-06 -2.071560e-06)) ((-1.539548e-10 -3.045441e-10 -6.253694e-11) (-3.532445e-10 -8.268803e-09 3.968465e-09))
18.203483     	((4.183607e-03 -4.817705e-05 -5.424738e-05) (8.920549e-04 -2.038208e-06 -2.266394e-06)) ((-1.580975e-10 -3.299774e-10 -5.242665e-11) (-3.483916e-10 -1.075636e-08 6.508661e-09))
18.54906      	((4.172612e-03 -5.306728e-05 -5.953524e-05) (8.903699e-04 -2.233774e-06 -2.474690e-06)) ((-1.586200e-10 -3.607076e-10 -4.748685e-11) (-2.642838e-10 -1.390026e-08 9.316180e-09))
18.894452     	((4.160880e-03 -5.861380e-05 -6.520811e-05) (8.887072e-04 -2.450825e-06 -2.699381e-06)) ((-1.556840e-10 -3.883690e-10 -5.294436e-11) (-1.672155e-10 -1.755637e-08 1.241715e-08))
19.239674     	((4.148832e-03 -6.468957e-05 -7.157324e-05) (8.870329e-04 -2.690848e-06 -2.948603e-06)) ((-1.519308e-10 -4.228330e-10 -6.809478e-11) (-8.713492e-11 -2.146072e-08 1.581396e-08))
19.584739     	((4.136929e-03 -7.138384e-05 -7.860239e-05) (8.853318e-04 -2.953720e-06 -3.227158e-06)) ((-1.476896e-10 -4.699502e-10 -8.038022e-11) (-3.760959e-11 -2.554997e-08 1.958265e-08))
19.929657     	((4.125215e-03 -7.877781e-05 -8.642050e-05) (8.836135e-04 -3.240579e-06 -3.533568e-06)) ((-1.430164e-10 -5.306848e-10 -8.143410e-11) (-4.405775e-11 -3.018295e-08 2.392012e-08))
20.274445     	((4.113359e-03 -8.705940e-05 -9.539144e-05) (8.818984e-04 -3.552041e-06 -3.869971e-06)) ((-1.362268e-10 -6.074474e-10 -7.649092e-11) (-8.704252e-11 -3.580348e-08 2.897038e-08))
20.619112     	((4.101273e-03 -9.604125e-05 -1.054069e-04) (8.802000e-04 -3.891754e-06 -4.243084e-06)) ((-1.272470e-10 -6.890240e-10 -7.077679e-11) (-1.374273e-10 -4.243007e-08 3.478235e-08))
20.963665     	((4.089766e-03 -1.061292e-04 -1.164529e-04) (8.785293e-04 -4.272533e-06 -4.661209e-06)) ((-1.147924e-10 -7.692628e-10 -6.281560e-11) (-1.816994e-10 -4.974503e-08 4.128610e-08))
21.30811      	((4.080073e-03 -1.170325e-04 -1.284859e-04) (8.769103e-04 -4.699434e-06 -5.127041e-06)) ((-9.589621e-11 -8.429228e-10 -5.154351e-11) (-2.066088e-10 -5.747706e-08 4.844336e-08))
21.652452     	((4.072677e-03 -1.289258e-04 -1.413273e-04) (8.753763e-04 -5.170928e-06 -5.636358e-06)) ((-7.619003e-11 -9.091639e-10 -3.901027e-11) (-2.165744e-10 -6.555312e-08 5.619409e-08))
21.996695     	((4.065845e-03 -1.418256e-04 -1.553337e-04) (8.739228e-04 -5.689830e-06 -6.194782e-06)) ((-4.944835e-11 -9.825146e-10 -3.046153e-11) (-1.989327e-10 -7.400893e-08 6.446775e-08))
22.340839     	((4.060411e-03 -1.558144e-04 -1.705480e-04) (8.725471e-04 -6.263138e-06 -6.811758e-06)) ((-2.010283e-11 -1.065311e-09 -2.587501e-11) (-1.882771e-10 -8.280521e-08 7.305753e-08))
22.684811     	((4.054310e-03 -1.704174e-04 -1.865451e-04) (8.712393e-04 -6.890331e-06 -7.486812e-06)) ((8.177050e-13 -1.152910e-09 -2.379957e-11) (-1.755953e-10 -9.180734e-08 8.180334e-08))
23.028572     	((4.047665e-03 -1.861575e-04 -2.037563e-04) (8.699765e-04 -7.572308e-06 -8.219364e-06)) ((1.828279e-11 -1.246367e-09 -2.315588e-11) (-1.324045e-10 -1.009649e-07 9.046391e-08))
23.372141     	((4.040017e-03 -2.027653e-04 -2.219744e-04) (8.687325e-04 -8.312915e-06 -9.011863e-06)) ((3.364896e-11 -1.344007e-09 -2.284045e-11) (-6.929143e-11 -1.102922e-07 9.902350e-08))
23.71557      	((4.032268e-03 -2.202551e-04 -2.412646e-04) (8.674908e-04 -9.110495e-06 -9.864806e-06)) ((4.842384e-11 -1.441329e-09 -2.072176e-11) (-1.336888e-11 -1.199678e-07 1.078096e-07))
24.058878     	((4.024147e-03 -2.390968e-04 -2.617982e-04) (8.662429e-04 -9.965089e-06 -1.077811e-05)) ((6.590789e-11 -1.544065e-09 -2.047124e-11) (4.231869e-11 -1.303054e-07 1.173235e-07))
24.402066     	((4.017207e-03 -2.588553e-04 -2.835722e-04) (8.650057e-04 -1.087662e-05 -1.175612e-05)) ((8.091444e-11 -1.653165e-09 -2.327531e-11) (1.201890e-10 -1.412282e-07 1.276204e-07))
24.74514      	((4.010804e-03 -2.802791e-04 -3.070606e-04) (8.637944e-04 -1.185269e-05 -1.280909e-05)) ((1.061124e-10 -1.777021e-09 -2.960007e-11) (1.862705e-10 -1.526222e-07 1.385869e-07))
25.088102     	((4.005873e-03 -3.037227e-04 -3.326251e-04) (8.626214e-04 -1.290657e-05 -1.395126e-05)) ((1.420442e-10 -1.912546e-09 -3.803026e-11) (1.463078e-10 -1.644396e-07 1.503428e-07))
25.430956     	((4.002474e-03 -3.287843e-04 -3.600666e-04) (8.615036e-04 -1.404290e-05 -1.518805e-05)) ((1.864280e-10 -2.057900e-09 -4.909553e-11) (3.034947e-11 -1.768310e-07 1.629296e-07))
25.773709     	((3.999870e-03 -3.559863e-04 -3.895891e-04) (8.604456e-04 -1.527158e-05 -1.652380e-05)) ((2.364919e-10 -2.213634e-09 -6.240744e-11) (-5.572582e-11 -1.898860e-07 1.762692e-07))
26.116369     	((3.998158e-03 -3.857233e-04 -4.218564e-04) (8.594526e-04 -1.660426e-05 -1.797100e-05)) ((2.937823e-10 -2.389038e-09 -7.309785e-11) (-1.275396e-10 -2.034960e-07 1.903036e-07))
26.458945     	((3.997172e-03 -4.181945e-04 -4.571835e-04) (8.585267e-04 -1.804639e-05 -1.953991e-05)) ((3.613629e-10 -2.588028e-09 -8.461038e-11) (-2.039216e-10 -2.180931e-07 2.052814e-07))
26.801447     	((3.996663e-03 -4.538068e-04 -4.958489e-04) (8.576600e-04 -1.960097e-05 -2.123919e-05)) ((4.424667e-10 -2.814936e-09 -9.627128e-11) (-2.522352e-10 -2.340330e-07 2.215939e-07))
27.143888     	((3.997257e-03 -4.923996e-04 -5.376801e-04) (8.568698e-04 -2.128845e-05 -2.307937e-05)) ((5.426359e-10 -3.063559e-09 -1.058935e-10) (-2.944948e-10 -2.509831e-07 2.385560e-07))
27.48628      	((3.998526e-03 -5.341789e-04 -5.828976e-04) (8.561556e-04 -2.313167e-05 -2.508021e-05)) ((6.542139e-10 -3.328885e-09 -1.176655e-10) (-4.316771e-10 -2.686060e-07 2.559607e-07))
27.828639     	((4.000959e-03 -5.794937e-04 -6.324807e-04) (8.555200e-04 -2.513673e-05 -2.726702e-05)) ((7.785717e-10 -3.619434e-09 -1.311472e-10) (-6.130202e-10 -2.871866e-07 2.742036e-07))
28.170983     	((4.005149e-03 -6.290573e-04 -6.862018e-04) (8.549844e-04 -2.732485e-05 -2.966148e-05)) ((9.147598e-10 -3.927608e-09 -1.394875e-10) (-6.114944e-10 -3.065433e-07 2.931408e-07))
28.513326     	((4.010730e-03 -6.831644e-04 -7.449058e-04) (8.545509e-04 -2.972149e-05 -3.229042e-05)) ((1.057841e-09 -4.271853e-09 -1.413974e-10) (-4.709739e-10 -3.264966e-07 3.130371e-07))
28.855686     	((4.019471e-03 -7.410230e-04 -8.079464e-04) (8.542343e-04 -3.234509e-05 -3.516928e-05)) ((1.202379e-09 -4.636120e-09 -1.352222e-10) (-3.270441e-10 -3.475872e-07 3.342378e-07))
29.198078     	((4.029591e-03 -8.040128e-04 -8.768465e-04) (8.540358e-04 -3.521289e-05 -3.831812e-05)) ((1.361168e-09 -5.040798e-09 -1.218689e-10) (-2.515769e-10 -3.703268e-07 3.571197e-07))
29.540492     	((4.042026e-03 -8.723423e-04 -9.516254e-04) (8.539505e-04 -3.834470e-05 -4.175427e-05)) ((1.539940e-09 -5.475137e-09 -1.117682e-10) (-3.946304e-10 -3.953462e-07 3.816884e-07))
29.882885     	((4.057872e-03 -9.472416e-04 -1.032892e-03) (8.539713e-04 -4.176215e-05 -4.548498e-05)) ((1.762550e-09 -5.955634e-09 -9.541853e-11) (-7.676697e-10 -4.241177e-07 4.088830e-07))
30.225266     	((4.078059e-03 -1.028282e-03 -1.121121e-03) (8.541268e-04 -4.548106e-05 -4.952420e-05)) ((2.014856e-09 -6.459061e-09 -6.929852e-11) (-1.115569e-09 -4.572197e-07 4.395707e-07))
30.567649     	((4.102482e-03 -1.116721e-03 -1.216932e-03) (8.544543e-04 -4.952710e-05 -5.388979e-05)) ((2.319657e-09 -6.984658e-09 -3.190162e-11) (-1.206784e-09 -4.949819e-07 4.739715e-07))
30.910045     	((4.131514e-03 -1.211432e-03 -1.320774e-03) (8.550128e-04 -5.391156e-05 -5.861752e-05)) ((2.685702e-09 -7.540404e-09 2.725550e-11) (-1.096194e-09 -5.367616e-07 5.117006e-07))
31.252468     	((4.165670e-03 -1.312455e-03 -1.432269e-03) (8.558905e-04 -5.863141e-05 -6.373457e-05)) ((3.106052e-09 -8.124951e-09 9.533976e-11) (-9.562672e-10 -5.808257e-07 5.513791e-07))
31.594927     	((4.205839e-03 -1.422348e-03 -1.552494e-03) (8.571526e-04 -6.373016e-05 -6.928793e-05)) ((3.594314e-09 -8.744665e-09 1.583055e-10) (-9.481045e-10 -6.263803e-07 5.921185e-07))
31.937431     	((4.253869e-03 -1.539791e-03 -1.681571e-03) (8.588007e-04 -6.923396e-05 -7.531427e-05)) ((4.151495e-09 -9.381471e-09 2.155816e-10) (-1.141473e-09 -6.754016e-07 6.359048e-07))
32.279929     	((4.310681e-03 -1.664726e-03 -1.818259e-03) (8.608480e-04 -7.516817e-05 -8.182674e-05)) ((4.763587e-09 -1.003011e-08 2.949859e-10) (-1.492237e-09 -7.290040e-07 6.848039e-07))
32.622341     	((4.376286e-03 -1.793511e-03 -1.959906e-03) (8.633214e-04 -8.149276e-05 -8.879206e-05)) ((5.418780e-09 -1.067128e-08 4.565418e-10) (-1.844966e-09 -7.864900e-07 7.382306e-07))
32.964711     	((4.450022e-03 -1.930237e-03 -2.109775e-03) (8.662387e-04 -8.814771e-05 -9.619679e-05)) ((6.152330e-09 -1.133819e-08 7.216277e-10) (-2.084888e-09 -8.483453e-07 7.981159e-07))
33.307086     	((4.533311e-03 -2.074092e-03 -2.267674e-03) (8.696313e-04 -9.520530e-05 -1.040804e-04)) ((6.936158e-09 -1.199898e-08 1.026843e-09) (-2.561936e-09 -9.131059e-07 8.621374e-07))
33.64947      	((4.629417e-03 -2.225442e-03 -2.434666e-03) (8.735799e-04 -1.027291e-04 -1.124858e-04)) ((7.794725e-09 -1.262300e-08 1.303242e-09) (-3.487094e-09 -9.791194e-07 9.279822e-07))
33.991863     	((4.741341e-03 -2.383772e-03 -2.608103e-03) (8.782254e-04 -1.107647e-04 -1.214284e-04)) ((8.737424e-09 -1.315867e-08 1.543973e-09) (-4.295165e-09 -1.044392e-06 9.930348e-07))
34.334278     	((4.869491e-03 -2.548077e-03 -2.788472e-03) (8.837363e-04 -1.194002e-04 -1.310163e-04)) ((9.752180e-09 -1.368501e-08 1.760322e-09) (-5.076373e-09 -1.100996e-06 1.050036e-06))
34.676737     	((5.014005e-03 -2.712695e-03 -2.969785e-03) (8.902305e-04 -1.286482e-04 -1.412801e-04)) ((1.088773e-08 -1.408442e-08 1.952726e-09) (-6.133578e-09 -1.143110e-06 1.093456e-06))
35.019251     	((5.176102e-03 -2.879679e-03 -3.153770e-03) (8.976544e-04 -1.383739e-04 -1.520491e-04)) ((1.217162e-08 -1.437468e-08 2.167046e-09) (-7.239611e-09 -1.180887e-06 1.130932e-06))
35.361837     	((5.358467e-03 -3.045846e-03 -3.335444e-03) (9.060695e-04 -1.484478e-04 -1.631560e-04)) ((1.350477e-08 -1.456457e-08 2.433514e-09) (-7.898613e-09 -1.221006e-06 1.168531e-06))
35.704491     	((5.559225e-03 -3.208409e-03 -3.513687e-03) (9.156961e-04 -1.587327e-04 -1.744630e-04)) ((1.483714e-08 -1.466721e-08 2.762098e-09) (-7.770428e-09 -1.260729e-06 1.205136e-06))
36.047202     	((5.771599e-03 -3.363077e-03 -3.684009e-03) (9.265691e-04 -1.691163e-04 -1.858636e-04)) ((1.617001e-08 -1.463060e-08 3.157388e-09) (-6.760868e-09 -1.299335e-06 1.240607e-06))
