# Forces      
# CofR        : (0.000000e+00 0.000000e+00 0.000000e+00)
# Time        forces(pressure viscous)	moments(pressure viscous)
0             	((0.000000e+00 0.000000e+00 0.000000e+00) (0.000000e+00 0.000000e+00 0.000000e+00)) ((0.000000e+00 0.000000e+00 0.000000e+00) (0.000000e+00 0.000000e+00 0.000000e+00))
0.012         	((-7.153760e-12 1.795881e-09 3.691314e-12) (-7.368459e-15 4.559471e-11 -1.505693e-13)) ((-4.732904e-16 3.375284e-16 -4.084141e-11) (1.953254e-16 -3.707080e-15 -5.561449e-08))
0.0264        	((-2.276917e-11 2.629459e-10 -9.778921e-15) (-5.885246e-14 6.733725e-11 -2.730169e-13)) ((3.575095e-16 -3.571329e-15 -1.871990e-11) (5.254419e-17 -1.029853e-14 -5.094364e-08))
0.04368       	((-1.649192e-11 8.361711e-10 1.322683e-11) (-7.892371e-14 7.093421e-11 -3.911623e-13)) ((-7.118431e-16 -4.334168e-15 -1.019045e-11) (-2.559899e-17 -1.842901e-14 -4.614036e-08))
0.064416      	((-2.721690e-11 -1.186094e-10 -1.164445e-11) (-8.298028e-14 6.123796e-11 -6.410735e-13)) ((2.336643e-16 -2.291983e-15 -5.468846e-12) (-1.134643e-15 -2.884392e-14 -4.131094e-08))
0.0892992     	((1.503188e-11 3.712946e-10 1.026580e-11) (-7.477267e-14 5.092709e-11 -9.753645e-13)) ((-1.090552e-15 -5.941692e-15 -4.091964e-12) (-3.520125e-15 -4.191643e-14 -3.659688e-08))
0.119159      	((-9.350487e-12 -6.713435e-11 1.681001e-12) (-6.934399e-14 4.142117e-11 -1.153995e-12)) ((5.450537e-17 -4.326380e-15 -3.051119e-12) (-4.653681e-15 -4.895245e-14 -3.214435e-08))
0.154991      	((5.372023e-12 1.831621e-10 -3.168111e-12) (-6.842358e-14 3.742204e-11 -1.191149e-12)) ((-5.055308e-16 -3.261463e-15 -2.487811e-12) (-5.837809e-15 -5.101696e-14 -2.805611e-08))
0.197989      	((-1.567301e-12 5.669724e-11 -4.617809e-13) (-1.203918e-14 3.249543e-11 -1.173774e-12)) ((-9.040187e-16 -2.840008e-15 -2.036322e-12) (-7.563043e-15 -5.112266e-14 -2.443146e-08))
0.249587      	((5.681267e-12 1.465980e-10 4.253346e-12) (4.121055e-14 2.871737e-11 -1.205508e-12)) ((-7.011912e-16 -3.163676e-15 -1.676388e-12) (-7.879026e-15 -4.891442e-14 -2.132451e-08))
0.311504      	((-2.575352e-12 8.517974e-11 1.929881e-12) (4.697243e-14 2.607026e-11 -1.326940e-12)) ((-4.251631e-16 -1.968940e-15 -1.362443e-12) (-6.468179e-15 -4.695115e-14 -1.872777e-08))
0.385805      	((-9.288121e-12 6.639553e-11 -5.178385e-13) (2.774433e-14 2.483664e-11 -1.466236e-12)) ((-1.805203e-16 -7.663281e-16 -1.120190e-12) (-2.296422e-15 -4.745450e-14 -1.658513e-08))
0.474966      	((-1.792461e-11 6.696410e-11 2.034898e-12) (-4.829883e-14 2.480070e-11 -1.505173e-12)) ((-3.691393e-18 -4.498168e-16 -9.560874e-13) (-6.223703e-16 -4.708764e-14 -1.481230e-08))
0.581959      	((-1.422921e-11 4.636965e-11 1.944839e-12) (1.281769e-13 2.275270e-11 -1.171323e-12)) ((-1.029540e-16 5.771198e-16 -8.115263e-13) (-1.621406e-15 -3.168802e-14 -1.332187e-08))
0.710351      	((-2.291058e-11 3.499967e-11 -1.312796e-12) (3.739224e-13 1.941984e-11 -6.405767e-13)) ((4.202496e-16 1.081398e-15 -6.727130e-13) (-1.257021e-15 -6.103947e-15 -1.204142e-08))
0.864421      	((-2.078069e-11 6.167146e-11 -3.016935e-12) (3.727351e-13 1.885867e-11 -2.772381e-13)) ((7.883363e-16 2.401555e-15 -5.759379e-13) (2.421169e-15 1.645739e-14 -1.091988e-08))
1.049306      	((-2.225187e-11 9.609652e-11 -2.234948e-12) (5.236247e-13 1.784333e-11 1.039340e-13)) ((8.938983e-16 3.081063e-15 -5.187501e-13) (-3.559572e-15 2.835577e-14 -9.923285e-09))
1.271167      	((-2.682327e-11 1.082727e-10 -2.307206e-13) (5.379662e-13 1.600991e-11 6.399960e-13)) ((6.321735e-16 3.099325e-15 -4.736347e-13) (-1.919211e-14 3.045476e-14 -9.028610e-09))
1.5374        	((-3.090837e-11 1.169870e-10 -1.115368e-12) (1.290754e-12 1.695982e-11 1.144571e-12)) ((7.310492e-16 4.490199e-15 -4.370167e-13) (-4.209470e-14 1.850140e-14 -8.221147e-09))
1.85688       	((-3.700918e-11 1.600503e-10 -4.541567e-12) (2.907177e-12 1.932394e-11 1.026143e-12)) ((8.816224e-16 4.805232e-15 -4.084837e-13) (-7.560508e-14 -2.084061e-14 -7.492750e-09))
2.240256      	((-2.909873e-11 1.103675e-10 -2.022204e-13) (4.798437e-12 1.762358e-11 8.309632e-13)) ((9.329455e-16 5.140094e-15 -3.976689e-13) (-1.267764e-13 -8.137667e-14 -6.839303e-09))
2.700307      	((-2.843845e-11 6.662830e-11 4.301750e-13) (7.580987e-12 1.211887e-11 1.168860e-12)) ((7.312743e-16 5.233191e-15 -3.852929e-13) (-1.987963e-13 -1.519661e-13 -6.257866e-09))
3.252369      	((-2.234823e-11 4.818391e-11 3.118392e-13) (1.094897e-11 7.220044e-12 1.835886e-12)) ((3.771585e-16 4.884951e-15 -3.657426e-13) (-2.737448e-13 -2.038943e-13 -5.744283e-09))
3.914842      	((-1.586484e-11 3.011482e-11 2.079648e-12) (1.457535e-11 2.997724e-12 1.736075e-12)) ((7.046930e-16 3.953052e-15 -3.370756e-13) (-3.226680e-13 -2.638601e-13 -5.292214e-09))
4.709811      	((-2.337419e-12 1.800082e-11 2.104857e-12) (1.770390e-11 -3.013432e-12 9.936104e-13)) ((2.878868e-16 2.931342e-15 -3.036570e-13) (-3.443624e-13 -3.048118e-13 -4.893746e-09))
5.663773      	((4.052810e-12 -6.407586e-12 1.612879e-13) (1.965486e-11 -1.072283e-11 1.324588e-13)) ((-3.657715e-16 2.020781e-15 -2.738166e-13) (-3.483320e-13 -3.251550e-13 -4.539791e-09))
6.808528      	((7.050818e-12 -5.507806e-12 4.420132e-13) (2.000141e-11 -1.381671e-11 -1.439556e-13)) ((-4.541837e-16 1.022453e-15 -2.462365e-13) (-3.310964e-13 -3.084383e-13 -4.221512e-09))
8.182233      	((8.127225e-12 -1.584775e-11 -1.502994e-12) (1.841407e-11 -1.240006e-11 -9.665091e-14)) ((-5.663847e-16 5.695269e-16 -2.220362e-13) (-2.837456e-13 -2.560224e-13 -3.932283e-09))
9.83068       	((7.508572e-12 -6.323341e-12 6.400469e-13) (1.586027e-11 -8.993186e-12 -2.477108e-13)) ((-8.822904e-16 -2.859709e-16 -2.027491e-13) (-2.232921e-13 -2.066799e-13 -3.667486e-09))
11.808816     	((1.303811e-12 6.288310e-12 -1.313173e-13) (1.247800e-11 -4.291901e-12 9.540640e-14)) ((-8.891484e-16 -6.548226e-16 -1.860522e-13) (-1.698107e-13 -1.446258e-13 -3.423970e-09))
14.182579     	((-1.344021e-12 4.921136e-12 -1.649296e-13) (8.926292e-12 -1.548744e-12 -1.825655e-13)) ((-8.864225e-16 -1.291817e-15 -1.730555e-13) (-1.214054e-13 -1.085295e-13 -3.199704e-09))
17.031095     	((-5.519284e-13 3.357225e-12 4.947916e-13) (5.901726e-12 -1.574741e-13 -4.605151e-13)) ((-7.865406e-16 -1.480512e-15 -1.631381e-13) (-8.297854e-14 -7.680684e-14 -2.993508e-09))
20.449314     	((-1.883928e-12 6.593896e-12 2.156781e-14) (3.902346e-12 9.249079e-13 -1.552584e-13)) ((-5.530119e-16 -1.642504e-15 -1.550583e-13) (-5.989253e-14 -4.141221e-14 -2.804575e-09))
24.551176     	((-2.251551e-14 9.079894e-12 -1.174758e-13) (2.748439e-12 5.989717e-13 8.097646e-14)) ((-4.547309e-16 -1.524287e-15 -1.476791e-13) (-4.533625e-14 -2.528709e-14 -2.631942e-09))
29.473411     	((-9.924444e-13 9.226601e-12 -3.909794e-14) (2.170108e-12 -5.519565e-13 1.660324e-13)) ((-3.813159e-16 -1.317919e-15 -1.417697e-13) (-3.853963e-14 -2.044654e-14 -2.474487e-09))
35.380094     	((-1.582641e-12 9.341132e-12 3.179675e-14) (1.973514e-12 -1.697401e-12 4.758276e-14)) ((-3.796528e-16 -1.288122e-15 -1.363063e-13) (-3.494884e-14 -2.626397e-14 -2.330807e-09))
42.468112     	((-1.606581e-12 8.316646e-12 -1.841323e-13) (2.083513e-12 -2.854921e-12 -4.650823e-14)) ((-4.196823e-16 -1.148475e-15 -1.320722e-13) (-3.742278e-14 -3.236064e-14 -2.199659e-09))
50.973735     	((-1.530308e-12 8.472375e-12 1.229632e-13) (2.375737e-12 -4.179893e-12 5.574664e-14)) ((-4.719815e-16 -1.142503e-15 -1.279482e-13) (-4.475305e-14 -3.666888e-14 -2.080064e-09))
61.180482     	((-3.440203e-12 7.636127e-12 2.629283e-14) (2.721311e-12 -5.424115e-12 2.347275e-13)) ((-3.948631e-16 -1.087539e-15 -1.247350e-13) (-5.303162e-14 -3.753221e-14 -1.971170e-09))
73.428578     	((-1.476824e-12 7.489924e-12 -5.398123e-14) (3.326719e-12 -6.282669e-12 2.474096e-13)) ((-3.549176e-16 -9.631265e-16 -1.226617e-13) (-6.001001e-14 -4.294615e-14 -1.872223e-09))
88.126294     	((-2.697331e-12 6.189803e-12 1.572555e-13) (3.783737e-12 -6.962313e-12 1.893496e-13)) ((-3.104258e-16 -8.213752e-16 -1.206633e-13) (-6.402808e-14 -5.108625e-14 -1.782481e-09))
105.763553    	((-2.660223e-12 6.314645e-12 6.965504e-14) (3.905995e-12 -7.391522e-12 8.408817e-14)) ((-2.733512e-16 -6.996298e-16 -1.184989e-13) (-6.615010e-14 -5.680409e-14 -1.701213e-09))
126.928263    	((-2.461149e-12 5.591918e-12 -1.530220e-14) (3.711142e-12 -7.412549e-12 -9.727693e-15)) ((-2.456548e-16 -6.193900e-16 -1.165621e-13) (-6.704673e-14 -5.600301e-14 -1.627719e-09))
152.325916    	((-1.013391e-12 5.583272e-12 5.379203e-14) (3.438227e-12 -7.307496e-12 -1.652976e-13)) ((-2.465146e-16 -5.681512e-16 -1.147908e-13) (-6.440275e-14 -5.282577e-14 -1.561240e-09))
182.803099    	((-7.660569e-13 6.314362e-12 4.351209e-14) (3.322850e-12 -7.220888e-12 -2.865966e-13)) ((-2.272363e-16 -4.820632e-16 -1.131612e-13) (-6.119797e-14 -4.861316e-14 -1.500995e-09))
219.375719    	((-5.153262e-13 6.223084e-12 -2.683555e-13) (3.189401e-12 -7.306558e-12 -3.366928e-13)) ((-1.979777e-16 -4.605482e-16 -1.117751e-13) (-6.126978e-14 -4.532437e-14 -1.446288e-09))
263.262863    	((-1.729761e-13 6.438083e-12 -2.188403e-13) (3.054568e-12 -7.288959e-12 -3.926904e-13)) ((-1.863827e-16 -4.547181e-16 -1.104956e-13) (-6.154369e-14 -4.463844e-14 -1.396544e-09))
315.927436    	((1.175258e-13 6.846799e-12 -1.421491e-13) (3.107509e-12 -7.170872e-12 -4.077672e-13)) ((-1.823134e-16 -4.462032e-16 -1.092528e-13) (-6.275723e-14 -4.588306e-14 -1.351305e-09))
379.124923    	((-2.392177e-13 7.175316e-12 -8.651474e-14) (3.093602e-12 -6.964997e-12 -3.264847e-13)) ((-1.521103e-16 -4.073578e-16 -1.081367e-13) (-6.443735e-14 -4.498095e-14 -1.310218e-09))
454.961908    	((-7.917642e-13 8.086361e-12 -1.902982e-13) (3.095981e-12 -6.622019e-12 -2.726510e-13)) ((-1.017259e-16 -3.886263e-16 -1.070741e-13) (-6.335179e-14 -4.294989e-14 -1.272983e-09))
545.966289    	((-8.615168e-13 8.753685e-12 -4.486450e-14) (3.029940e-12 -6.234613e-12 -2.485277e-13)) ((-8.962898e-17 -3.675798e-16 -1.060508e-13) (-5.934731e-14 -4.222589e-14 -1.239335e-09))
655.171547    	((-8.529748e-13 9.172721e-12 -3.191442e-14) (2.907726e-12 -5.799463e-12 -2.512518e-13)) ((-7.821174e-17 -3.517244e-16 -1.050798e-13) (-5.414847e-14 -4.015566e-14 -1.209029e-09))
786.217856    	((-7.378215e-13 8.912232e-12 -3.099070e-16) (2.725184e-12 -5.578356e-12 -2.750630e-13)) ((-7.858232e-17 -3.416285e-16 -1.041384e-13) (-4.997710e-14 -3.934786e-14 -1.181836e-09))
943.473427    	((-1.006248e-12 8.816284e-12 -5.322993e-14) (2.445181e-12 -5.447432e-12 -3.086740e-13)) ((-7.595399e-17 -3.337975e-16 -1.032041e-13) (-4.739990e-14 -3.728524e-14 -1.157548e-09))
1132.180113   	((-1.317484e-12 8.954045e-12 -6.769481e-14) (2.114764e-12 -5.298273e-12 -3.181669e-13)) ((-5.363336e-17 -3.185251e-16 -1.023220e-13) (-4.585793e-14 -3.459091e-14 -1.135951e-09))
1358.628135   	((-5.907904e-13 9.203272e-12 -9.841637e-14) (1.940541e-12 -5.161741e-12 -3.123716e-13)) ((-5.860010e-17 -2.938587e-16 -1.015411e-13) (-4.275171e-14 -3.257319e-14 -1.116841e-09))
1630.365763   	((-1.742294e-13 9.280592e-12 -9.706137e-14) (1.902760e-12 -5.013283e-12 -2.984519e-13)) ((-5.159577e-17 -2.759314e-16 -1.008381e-13) (-3.976794e-14 -3.088019e-14 -1.100028e-09))
1956.450915   	((-2.410665e-13 9.085035e-12 -9.377231e-14) (1.812687e-12 -4.849204e-12 -2.963742e-13)) ((-4.583643e-17 -2.771240e-16 -1.001877e-13) (-3.615558e-14 -2.961108e-14 -1.085325e-09))
2347.753098   	((-3.471643e-14 8.959114e-12 -1.392646e-13) (1.771673e-12 -4.654397e-12 -3.113508e-13)) ((-4.429019e-17 -2.850364e-16 -9.961600e-14) (-3.294171e-14 -2.832830e-14 -1.072542e-09))
2817.315718   	((3.600947e-14 8.923474e-12 -2.009679e-13) (1.759939e-12 -4.502984e-12 -3.288535e-13)) ((-4.533301e-17 -2.973565e-16 -9.910949e-14) (-3.046755e-14 -2.694433e-14 -1.061493e-09))
3380.790861   	((1.373475e-14 8.930253e-12 -3.112255e-13) (1.755879e-12 -4.379861e-12 -3.397839e-13)) ((-4.308498e-17 -3.007098e-16 -9.868426e-14) (-2.787216e-14 -2.607888e-14 -1.052003e-09))
4056.961033   	((6.222227e-14 9.125278e-12 -3.102360e-13) (1.757910e-12 -4.298212e-12 -3.601716e-13)) ((-3.717634e-17 -3.129767e-16 -9.831174e-14) (-2.532656e-14 -2.395790e-14 -1.043909e-09))
4868.36524    	((1.000400e-13 9.377782e-12 -2.701676e-13) (1.744548e-12 -4.267845e-12 -3.631587e-13)) ((-3.341211e-17 -3.131652e-16 -9.798491e-14) (-2.335565e-14 -2.162013e-14 -1.037050e-09))
5842.050288   	((-1.081566e-13 9.684215e-12 -1.014592e-13) (1.725842e-12 -4.302187e-12 -3.452540e-13)) ((-3.855533e-17 -3.009777e-16 -9.767259e-14) (-2.155360e-14 -1.999209e-14 -1.031278e-09))
7010.472346   	((-1.525764e-13 9.913126e-12 3.405348e-14) (1.679320e-12 -4.311079e-12 -3.312551e-13)) ((-4.241391e-17 -2.990369e-16 -9.744051e-14) (-1.973874e-14 -1.908739e-14 -1.026451e-09))
8412.578815   	((-2.124957e-13 1.013237e-11 1.409037e-13) (1.623993e-12 -4.301326e-12 -3.228732e-13)) ((-4.741981e-17 -3.009047e-16 -9.725334e-14) (-1.822520e-14 -1.853559e-14 -1.022441e-09))
10071.106433  	((-2.896764e-13 1.024595e-11 2.777214e-13) (1.563460e-12 -4.282582e-12 -3.141074e-13)) ((-5.680230e-17 -2.994122e-16 -9.708601e-14) (-1.688366e-14 -1.801345e-14 -1.019132e-09))
11986.066563  	((-2.805371e-13 1.048492e-11 5.435718e-13) (1.506960e-12 -4.268507e-12 -3.087573e-13)) ((-2.421125e-17 -3.222371e-16 -9.695338e-14) (-1.578911e-14 -1.749602e-14 -1.016419e-09))
14157.468517  	((-2.359788e-13 1.076352e-11 6.588851e-13) (1.457452e-12 -4.252201e-12 -2.916546e-13)) ((-5.824696e-17 -3.133353e-16 -9.683741e-14) (-1.512000e-14 -1.699100e-14 -1.014207e-09))
16585.31987   	((-1.933104e-13 1.092778e-11 7.770402e-13) (1.424925e-12 -4.227548e-12 -2.800607e-13)) ((-3.749242e-17 -3.307897e-16 -9.676253e-14) (-1.476233e-14 -1.616879e-14 -1.012412e-09))
19149.875025  	((-1.839278e-13 1.109581e-11 8.673489e-13) (1.393443e-12 -4.203747e-12 -2.665826e-13)) ((-3.546700e-17 -3.351211e-16 -9.669260e-14) (-1.431481e-14 -1.590496e-14 -1.010962e-09))
21714.479131  	((-2.724251e-13 1.124866e-11 8.675981e-13) (1.359343e-12 -4.176594e-12 -2.588561e-13)) ((-3.744632e-17 -3.290159e-16 -9.663693e-14) (-1.412070e-14 -1.586695e-14 -1.009795e-09))
24279.122337  	((-2.611907e-13 1.146730e-11 9.652404e-13) (1.335804e-12 -4.160731e-12 -2.579317e-13)) ((-3.746479e-17 -3.361402e-16 -9.658950e-14) (-1.375124e-14 -1.550302e-14 -1.008859e-09))
26843.796838  	((-2.704309e-13 1.169026e-11 1.060883e-12) (1.313812e-12 -4.144527e-12 -2.615684e-13)) ((-3.883232e-17 -3.413471e-16 -9.655183e-14) (-1.345660e-14 -1.510683e-14 -1.008109e-09))
29408.496323  	((-3.166831e-13 1.190264e-11 1.187838e-12) (1.291774e-12 -4.128298e-12 -2.665800e-13)) ((-4.242365e-17 -3.467113e-16 -9.652114e-14) (-1.313534e-14 -1.474589e-14 -1.007510e-09))
31973.215767  	((-3.673637e-13 1.223444e-11 1.242738e-12) (1.270455e-12 -4.107137e-12 -2.618694e-13)) ((-7.421589e-17 -3.430590e-16 -9.648905e-14) (-1.252731e-14 -1.471284e-14 -1.007031e-09))
34537.951144  	((-3.570332e-13 1.244230e-11 1.315724e-12) (1.270772e-12 -4.085928e-12 -2.631485e-13)) ((-3.900845e-17 -3.599034e-16 -9.647956e-14) (-1.195893e-14 -1.479504e-14 -1.006648e-09))
37102.699236  	((-3.179567e-13 1.286542e-11 1.275601e-12) (1.263703e-12 -4.071520e-12 -2.596663e-13)) ((-7.674676e-17 -3.431976e-16 -9.646007e-14) (-1.181864e-14 -1.495746e-14 -1.006343e-09))
39667.457472  	((-3.364199e-13 1.309213e-11 1.206794e-12) (1.253373e-12 -4.063644e-12 -2.691764e-13)) ((-6.832135e-17 -3.556219e-16 -9.644164e-14) (-1.101522e-14 -1.546176e-14 -1.006100e-09))
42232.223799  	((-3.165439e-13 1.334693e-11 1.183934e-12) (1.241159e-12 -4.058601e-12 -2.804329e-13)) ((-6.974205e-17 -3.558936e-16 -9.643636e-14) (-1.074555e-14 -1.573672e-14 -1.005907e-09))
44796.996582  	((-3.186181e-13 1.360444e-11 1.189264e-12) (1.229743e-12 -4.054771e-12 -2.837909e-13)) ((-8.465535e-17 -3.418294e-16 -9.643186e-14) (-1.040896e-14 -1.593561e-14 -1.005753e-09))
47361.774518  	((-3.257166e-13 1.391395e-11 1.183844e-12) (1.219802e-12 -4.047375e-12 -2.827603e-13)) ((-8.277591e-17 -3.461748e-16 -9.642856e-14) (-1.014560e-14 -1.607651e-14 -1.005629e-09))
49926.556564  	((-3.465887e-13 1.424614e-11 1.184684e-12) (1.214202e-12 -4.037412e-12 -2.827598e-13)) ((-8.241202e-17 -3.476114e-16 -9.642125e-14) (-1.000670e-14 -1.614865e-14 -1.005531e-09))
52491.341892  	((-3.855160e-13 1.457382e-11 1.223263e-12) (1.209742e-12 -4.027956e-12 -2.825034e-13)) ((-8.998385e-17 -3.421624e-16 -9.640878e-14) (-9.929321e-15 -1.618587e-14 -1.005453e-09))
55056.12984   	((-4.394490e-13 1.491441e-11 1.201047e-12) (1.204347e-12 -4.019992e-12 -2.796472e-13)) ((-7.877328e-17 -3.552548e-16 -9.640192e-14) (-9.769323e-15 -1.618618e-14 -1.005391e-09))
57620.91988   	((-4.933517e-13 1.531533e-11 1.206184e-12) (1.199160e-12 -4.011104e-12 -2.798965e-13)) ((-8.426995e-17 -3.508126e-16 -9.640394e-14) (-9.665246e-15 -1.628670e-14 -1.005341e-09))
60185.711592  	((-5.577378e-13 1.562192e-11 1.278606e-12) (1.193787e-12 -4.002499e-12 -2.788363e-13)) ((-1.039370e-16 -3.389941e-16 -9.638654e-14) (-9.640259e-15 -1.646419e-14 -1.005302e-09))
