# Forces      
# CofR        : (0.000000e+00 0.000000e+00 0.000000e+00)
# Time        forces(pressure viscous)	moments(pressure viscous)
0             	((0.000000e+00 0.000000e+00 0.000000e+00) (0.000000e+00 0.000000e+00 0.000000e+00)) ((0.000000e+00 0.000000e+00 0.000000e+00) (0.000000e+00 0.000000e+00 0.000000e+00))
0.012         	((-1.416531e-11 3.583337e-09 7.370131e-12) (-1.093580e-14 9.098012e-11 -3.004679e-13)) ((-9.449560e-16 6.730559e-16 -8.149441e-11) (3.895912e-16 -7.396700e-15 -1.109655e-07))
0.0264        	((-4.527863e-11 5.247751e-10 -4.453315e-15) (-1.081996e-13 1.343664e-10 -5.446430e-13)) ((7.112442e-16 -7.128536e-15 -3.735851e-11) (9.593072e-17 -2.053997e-14 -1.016460e-07))
0.04368       	((-3.224594e-11 1.668809e-09 2.642276e-11) (-1.566651e-13 1.415614e-10 -7.801959e-13)) ((-1.415370e-15 -8.650248e-15 -2.034319e-11) (-7.610882e-17 -3.678060e-14 -9.206249e-08))
0.064416      	((-5.380833e-11 -2.361568e-10 -2.326463e-11) (-2.098930e-13 1.222259e-10 -1.279061e-12)) ((4.704358e-16 -4.581833e-15 -1.092464e-11) (-2.246368e-15 -5.754479e-14 -8.242718e-08))
0.0892992     	((3.093144e-11 7.405766e-10 2.049590e-11) (-2.203965e-13 1.016493e-10 -1.947719e-12)) ((-2.154197e-15 -1.186762e-14 -8.178926e-12) (-6.897113e-15 -8.362715e-14 -7.302261e-08))
0.119159      	((-1.858143e-11 -1.337310e-10 3.497376e-12) (-2.247328e-13 8.269431e-11 -2.305068e-12)) ((1.266749e-16 -8.646065e-15 -6.102559e-12) (-9.051289e-15 -9.768095e-14 -6.414050e-08))
0.154991      	((1.046671e-11 3.661285e-10 -6.365652e-12) (-2.613571e-13 7.474061e-11 -2.374150e-12)) ((-1.004145e-15 -6.536484e-15 -4.978696e-12) (-1.133752e-14 -1.017661e-13 -5.598594e-08))
0.197989      	((-3.977537e-12 1.138741e-10 -8.344255e-13) (-1.443636e-13 6.494994e-11 -2.336687e-12)) ((-1.839540e-15 -5.653826e-15 -4.076478e-12) (-1.461008e-14 -1.019579e-13 -4.875627e-08))
0.249587      	((1.153859e-11 2.920063e-10 8.418858e-12) (-2.667758e-14 5.747853e-11 -2.397984e-12)) ((-1.415251e-15 -6.301120e-15 -3.356568e-12) (-1.528412e-14 -9.782932e-14 -4.255875e-08))
0.311504      	((-5.728096e-12 1.702944e-10 3.944947e-12) (2.220880e-14 5.232611e-11 -2.638562e-12)) ((-8.618098e-16 -3.943947e-15 -2.728816e-12) (-1.308763e-14 -9.409608e-14 -3.737827e-08))
0.385805      	((-1.719473e-11 1.332161e-10 -1.180268e-12) (1.449734e-14 4.983036e-11 -2.910781e-12)) ((-3.500880e-16 -1.521156e-15 -2.244582e-12) (-5.205791e-15 -9.479459e-14 -3.310298e-08))
0.474966      	((-3.574946e-11 1.336948e-10 3.997825e-12) (-1.561390e-13 4.971450e-11 -2.995502e-12)) ((4.643668e-18 -8.759986e-16 -1.916594e-12) (-1.434789e-15 -9.333535e-14 -2.956475e-08))
0.581959      	((-2.936558e-11 9.376270e-11 4.079394e-12) (1.813884e-13 4.564495e-11 -2.343480e-12)) ((-1.367312e-16 1.151899e-15 -1.626637e-12) (-3.231006e-15 -6.287030e-14 -2.658951e-08))
0.710351      	((-4.693633e-11 7.072027e-11 -2.727791e-12) (6.380834e-13 3.879566e-11 -1.301423e-12)) ((8.082505e-16 2.139503e-15 -1.348015e-12) (-2.349707e-15 -1.267667e-14 -2.403321e-08))
0.864421      	((-4.209020e-11 1.270889e-10 -6.454857e-12) (3.677853e-13 3.757596e-11 -5.503651e-13)) ((1.639384e-15 4.843204e-15 -1.154155e-12) (5.975131e-15 3.351387e-14 -2.179413e-08))
1.049306      	((-4.361069e-11 1.957030e-10 -4.595526e-12) (6.636295e-13 3.545711e-11 1.874562e-13)) ((1.792484e-15 6.135608e-15 -1.039238e-12) (-6.269295e-15 5.702860e-14 -1.980462e-08))
1.271167      	((-5.083706e-11 2.179892e-10 -4.592754e-13) (6.419698e-13 3.158933e-11 1.224221e-12)) ((1.177854e-15 6.187385e-15 -9.488343e-13) (-4.088044e-14 6.098017e-14 -1.801868e-08))
1.5374        	((-5.852462e-11 2.352723e-10 -2.862772e-12) (2.134044e-12 3.334138e-11 2.252503e-12)) ((1.316200e-15 8.911823e-15 -8.751945e-13) (-8.753688e-14 3.886442e-14 -1.640694e-08))
1.85688       	((-7.042415e-11 3.198603e-10 -9.011258e-12) (5.563471e-12 3.820975e-11 2.021522e-12)) ((1.615181e-15 9.535769e-15 -8.175057e-13) (-1.546808e-13 -4.088370e-14 -1.495312e-08))
2.240256      	((-5.501697e-11 2.203494e-10 -2.989569e-13) (9.310657e-12 3.506100e-11 1.575231e-12)) ((1.680041e-15 1.027359e-14 -7.952205e-13) (-2.544108e-13 -1.642575e-13 -1.364904e-08))
2.700307      	((-5.420780e-11 1.361588e-10 1.154509e-12) (1.467921e-11 2.417574e-11 2.275046e-12)) ((1.310986e-15 1.048652e-14 -7.701234e-13) (-3.977958e-13 -3.026842e-13 -1.248881e-08))
3.252369      	((-4.305801e-11 9.614244e-11 8.621855e-13) (2.147295e-11 1.428636e-11 3.565791e-12)) ((7.718174e-16 9.836036e-15 -7.299720e-13) (-5.460912e-13 -4.090964e-13 -1.146409e-08))
3.914842      	((-2.712318e-11 5.726613e-11 4.657569e-12) (2.896787e-11 6.398242e-12 3.468408e-12)) ((1.172704e-15 7.874502e-15 -6.720849e-13) (-6.416719e-13 -5.292081e-13 -1.056216e-08))
4.709811      	((-4.900044e-12 3.770803e-11 4.167349e-12) (3.533565e-11 -5.370153e-12 2.008511e-12)) ((4.329523e-16 5.796449e-15 -6.050865e-13) (-6.805296e-13 -6.097344e-13 -9.767137e-09))
5.663773      	((9.744981e-12 -1.037411e-11 4.600688e-13) (3.916768e-11 -2.035285e-11 1.156321e-13)) ((-1.113621e-15 4.065901e-15 -5.454983e-13) (-6.821036e-13 -6.533176e-13 -9.060844e-09))
6.808528      	((1.573233e-11 -9.890786e-12 -1.235784e-13) (3.994128e-11 -2.639750e-11 -5.203676e-13)) ((-1.244557e-15 1.834830e-15 -4.906301e-13) (-6.496004e-13 -6.227301e-13 -8.425693e-09))
8.182233      	((1.707300e-11 -2.998653e-11 -3.508894e-12) (3.678997e-11 -2.356368e-11 -5.328069e-13)) ((-1.309699e-15 9.409516e-16 -4.419995e-13) (-5.550242e-13 -5.104727e-13 -7.848480e-09))
9.83068       	((1.556780e-11 -1.258889e-11 2.028003e-12) (3.110434e-11 -1.716287e-11 -6.487342e-13)) ((-2.252993e-15 -6.710546e-16 -4.033411e-13) (-4.327475e-13 -4.107912e-13 -7.320052e-09))
11.808816     	((1.342686e-12 1.106284e-11 -8.250891e-13) (2.421630e-11 -8.474557e-12 4.204178e-14)) ((-1.979584e-15 -1.437106e-15 -3.705557e-13) (-3.273215e-13 -2.910675e-13 -6.834093e-09))
14.182579     	((-4.954024e-12 8.749244e-12 7.099372e-14) (1.690102e-11 -3.114664e-12 -5.208034e-13)) ((-1.786130e-15 -2.705595e-15 -3.448770e-13) (-2.301934e-13 -2.194644e-13 -6.386495e-09))
17.031095     	((-1.803385e-12 3.641010e-12 1.362305e-12) (1.047481e-11 -2.516691e-13 -9.793505e-13)) ((-1.573720e-15 -3.135673e-15 -3.250231e-13) (-1.535873e-13 -1.551355e-13 -5.974910e-09))
20.449314     	((-4.497674e-12 1.009970e-11 -2.996283e-13) (6.368979e-12 1.648303e-12 -3.543214e-13)) ((-1.068422e-15 -3.367150e-15 -3.090303e-13) (-1.100290e-13 -8.381688e-14 -5.597787e-09))
24.551176     	((7.422198e-13 1.767832e-11 -2.198008e-13) (4.279502e-12 1.103992e-12 2.122405e-13)) ((-8.902055e-16 -3.127064e-15 -2.940992e-13) (-8.348957e-14 -5.024173e-14 -5.253212e-09))
29.473411     	((3.171394e-13 1.868125e-11 -2.969642e-13) (3.699804e-12 -1.205435e-12 3.382434e-13)) ((-7.229361e-16 -2.719858e-15 -2.824052e-13) (-6.985921e-14 -4.147139e-14 -4.938980e-09))
35.380094     	((-3.362519e-12 1.900519e-11 4.171721e-13) (3.606132e-12 -3.398709e-12 -3.744705e-14)) ((-6.567812e-16 -2.674327e-15 -2.713389e-13) (-6.280477e-14 -5.507379e-14 -4.652313e-09))
42.468112     	((-3.918125e-12 1.642728e-11 -1.084726e-12) (3.671301e-12 -5.489098e-12 -4.124752e-13)) ((-6.786580e-16 -2.455877e-15 -2.628996e-13) (-6.335960e-14 -6.938820e-14 -4.390698e-09))
50.973735     	((-4.700709e-12 1.805728e-11 8.213001e-13) (4.551467e-12 -7.719516e-12 -2.539281e-13)) ((-8.668734e-16 -2.486270e-15 -2.547815e-13) (-7.510374e-14 -7.528292e-14 -4.152145e-09))
61.180482     	((-8.867234e-12 1.674666e-11 -9.684807e-13) (5.487876e-12 -9.770493e-12 4.232715e-14)) ((-7.284026e-16 -2.386437e-15 -2.483359e-13) (-8.538192e-14 -7.272231e-14 -3.934967e-09))
73.428578     	((-9.475369e-12 1.540752e-11 5.194188e-14) (6.516641e-12 -1.061146e-11 2.372006e-13)) ((-7.001186e-16 -2.148609e-15 -2.439941e-13) (-1.031874e-13 -7.713702e-14 -3.737626e-09))
88.126294     	((-8.877783e-12 1.134449e-11 7.238915e-14) (7.321764e-12 -1.159864e-11 2.307376e-13)) ((-6.180382e-16 -1.876348e-15 -2.399378e-13) (-1.176898e-13 -8.883442e-14 -3.558590e-09))
105.763553    	((-7.725000e-12 1.074630e-11 -1.142586e-13) (7.622556e-12 -1.307168e-11 4.442897e-14)) ((-5.120273e-16 -1.561269e-15 -2.355260e-13) (-1.270371e-13 -9.997663e-14 -3.396442e-09))
126.928263    	((-5.955853e-12 1.296328e-11 -2.871185e-13) (7.665299e-12 -1.356165e-11 -1.874567e-13)) ((-5.386943e-16 -1.343932e-15 -2.316295e-13) (-1.315575e-13 -1.010801e-13 -3.249772e-09))
152.325916    	((-6.066805e-12 1.182729e-11 2.571259e-14) (7.545410e-12 -1.368565e-11 -5.630859e-13)) ((-5.783731e-16 -1.250476e-15 -2.279670e-13) (-1.244889e-13 -9.754785e-14 -3.117054e-09))
182.803099    	((-5.273372e-12 1.046281e-11 -2.594044e-13) (7.064949e-12 -1.352252e-11 -8.766227e-13)) ((-5.250233e-16 -1.094844e-15 -2.248284e-13) (-1.170294e-13 -8.788487e-14 -2.996726e-09))
219.375719    	((-5.357147e-12 9.857803e-12 -6.521995e-13) (6.599472e-12 -1.308182e-11 -1.127193e-12)) ((-4.725935e-16 -1.091222e-15 -2.221465e-13) (-1.156280e-13 -8.146459e-14 -2.887432e-09))
263.262863    	((-4.232981e-12 9.731886e-12 -5.124206e-13) (6.293590e-12 -1.244756e-11 -1.248065e-12)) ((-4.228575e-16 -1.096757e-15 -2.194995e-13) (-1.139695e-13 -8.209163e-14 -2.788064e-09))
315.927436    	((-4.332974e-12 1.076326e-11 -3.473783e-13) (6.201484e-12 -1.187110e-11 -1.246435e-12)) ((-4.243399e-16 -1.096929e-15 -2.169740e-13) (-1.139918e-13 -8.433345e-14 -2.697750e-09))
379.124923    	((-4.159270e-12 1.241721e-11 -4.294774e-13) (6.058392e-12 -1.119100e-11 -1.081647e-12)) ((-3.859086e-16 -1.025654e-15 -2.147941e-13) (-1.129256e-13 -8.410931e-14 -2.615813e-09))
454.961908    	((-3.741170e-12 1.398891e-11 -3.281464e-13) (5.782390e-12 -1.050462e-11 -9.690476e-13)) ((-2.891201e-16 -1.028641e-15 -2.126693e-13) (-1.064742e-13 -8.442759e-14 -2.541615e-09))
545.966289    	((-3.796527e-12 1.456953e-11 -4.319611e-13) (5.271265e-12 -9.884719e-12 -9.687685e-13)) ((-1.824243e-16 -1.012566e-15 -2.105473e-13) (-9.366870e-14 -8.013274e-14 -2.474601e-09))
655.171547    	((-4.417014e-12 1.480394e-11 -4.283451e-13) (4.653053e-12 -9.313408e-12 -9.531047e-13)) ((-1.417239e-16 -9.126300e-16 -2.084438e-13) (-8.371644e-14 -7.291060e-14 -2.414273e-09))
786.217856    	((-4.164102e-12 1.566837e-11 -6.936722e-13) (4.092639e-12 -8.831679e-12 -9.709613e-13)) ((-1.344513e-16 -8.606826e-16 -2.064347e-13) (-7.797580e-14 -6.633336e-14 -2.360170e-09))
943.473427    	((-3.189559e-12 1.594022e-11 -9.632528e-13) (3.954129e-12 -8.466510e-12 -1.005474e-12)) ((-6.315163e-17 -8.265685e-16 -2.044785e-13) (-7.234084e-14 -5.930788e-14 -2.311847e-09))
1132.180113   	((-1.911165e-12 1.619238e-11 -1.158824e-12) (3.907711e-12 -8.304475e-12 -9.834358e-13)) ((-2.545432e-17 -7.661815e-16 -2.025915e-13) (-6.777076e-14 -5.483649e-14 -2.268886e-09))
1358.628135   	((-5.217273e-13 1.693769e-11 -1.017246e-12) (4.053067e-12 -8.212466e-12 -1.009369e-12)) ((-1.316510e-17 -6.963540e-16 -2.007365e-13) (-6.172876e-14 -5.164413e-14 -2.230895e-09))
1630.365763   	((5.210915e-13 1.778326e-11 -7.343111e-13) (4.281387e-12 -8.175618e-12 -1.014929e-12)) ((-3.906680e-17 -6.550134e-16 -1.990648e-13) (-5.512823e-14 -4.795530e-14 -2.197476e-09))
1956.450915   	((1.528463e-12 1.838971e-11 -3.818838e-13) (4.626585e-12 -8.350897e-12 -1.058611e-12)) ((-6.097714e-18 -6.504587e-16 -1.974087e-13) (-4.984265e-14 -4.393742e-14 -2.168230e-09))
2347.753098   	((1.732437e-12 1.906348e-11 -2.732120e-13) (4.919210e-12 -8.323809e-12 -1.113360e-12)) ((-5.816724e-17 -6.472694e-16 -1.962366e-13) (-4.643045e-14 -3.872563e-14 -2.142782e-09))
2817.315718   	((1.527795e-12 1.853253e-11 4.671599e-13) (5.188909e-12 -8.316912e-12 -1.089181e-12)) ((-1.014609e-16 -6.195692e-16 -1.951993e-13) (-4.461776e-14 -3.627810e-14 -2.120771e-09))
3380.790861   	((1.424901e-12 1.813330e-11 8.922085e-13) (5.290724e-12 -8.246160e-12 -1.030173e-12)) ((-1.419788e-16 -5.941091e-16 -1.943416e-13) (-4.140285e-14 -3.535779e-14 -2.101856e-09))
4056.961033   	((1.894997e-12 1.811553e-11 1.166149e-12) (5.241442e-12 -8.227862e-12 -9.735979e-13)) ((-1.995049e-16 -6.330107e-16 -1.935896e-13) (-3.993092e-14 -3.566732e-14 -2.085699e-09))
4861.599878   	((2.303037e-12 1.806647e-11 1.298899e-12) (5.102184e-12 -8.281097e-12 -9.510087e-13)) ((-2.668974e-16 -6.771706e-16 -1.929502e-13) (-3.835279e-14 -3.360542e-14 -2.071984e-09))
5794.717729   	((2.306767e-12 1.792271e-11 1.455078e-12) (4.889771e-12 -8.317988e-12 -9.286444e-13)) ((-3.203058e-16 -7.002781e-16 -1.924142e-13) (-3.640626e-14 -3.039119e-14 -2.060425e-09))
6856.323646   	((2.072937e-12 1.758777e-11 1.597072e-12) (4.640160e-12 -8.337306e-12 -9.441114e-13)) ((-3.425370e-16 -7.451393e-16 -1.919517e-13) (-3.377288e-14 -2.812093e-14 -2.050754e-09))
8046.425442   	((2.054307e-12 1.715005e-11 1.688789e-12) (4.436138e-12 -8.336367e-12 -9.622791e-13)) ((-3.344029e-16 -7.494294e-16 -1.915827e-13) (-3.100857e-14 -2.640026e-14 -2.042713e-09))
9331.450478   	((2.061146e-12 1.677424e-11 1.686451e-12) (4.254981e-12 -8.337678e-12 -9.736159e-13)) ((-3.158123e-16 -7.379292e-16 -1.912733e-13) (-2.898353e-14 -2.488122e-14 -2.036065e-09))
10616.530669  	((2.010191e-12 1.633665e-11 1.656477e-12) (4.075670e-12 -8.347809e-12 -9.871869e-13)) ((-3.029450e-16 -7.311053e-16 -1.910137e-13) (-2.739985e-14 -2.366907e-14 -2.030604e-09))
11901.655994  	((1.930114e-12 1.591714e-11 1.633991e-12) (3.917709e-12 -8.350655e-12 -1.003150e-12)) ((-2.901095e-16 -7.214774e-16 -1.908013e-13) (-2.607815e-14 -2.266839e-14 -2.026133e-09))
13186.81873   	((1.873419e-12 1.556682e-11 1.577006e-12) (3.782388e-12 -8.345726e-12 -1.015649e-12)) ((-2.816851e-16 -7.124974e-16 -1.906317e-13) (-2.527493e-14 -2.194365e-14 -2.022483e-09))
14472.012247  	((1.778540e-12 1.528882e-11 1.429439e-12) (3.665959e-12 -8.330901e-12 -1.027195e-12)) ((-2.739232e-16 -6.966689e-16 -1.904971e-13) (-2.500594e-14 -2.131264e-14 -2.019507e-09))
15757.231145  	((1.696781e-12 1.504830e-11 1.305324e-12) (3.570298e-12 -8.299603e-12 -1.029649e-12)) ((-2.578186e-16 -6.807347e-16 -1.903984e-13) (-2.499970e-14 -2.092788e-14 -2.017083e-09))
17042.470807  	((1.666375e-12 1.482555e-11 1.223996e-12) (3.495382e-12 -8.283860e-12 -1.037833e-12)) ((-2.512977e-16 -6.743493e-16 -1.903124e-13) (-2.470346e-14 -2.028243e-14 -2.015109e-09))
18327.727429  	((1.642143e-12 1.462282e-11 1.138227e-12) (3.439179e-12 -8.275063e-12 -1.042806e-12)) ((-2.466868e-16 -6.707276e-16 -1.902438e-13) (-2.434563e-14 -1.960594e-14 -2.013504e-09))
19612.997927  	((1.615682e-12 1.444096e-11 1.060616e-12) (3.394154e-12 -8.268113e-12 -1.045852e-12)) ((-2.427044e-16 -6.684352e-16 -1.901893e-13) (-2.398107e-14 -1.904108e-14 -2.012197e-09))
20898.279801  	((1.579784e-12 1.428627e-11 9.873583e-13) (3.357843e-12 -8.261604e-12 -1.048376e-12)) ((-2.400220e-16 -6.670666e-16 -1.901453e-13) (-2.367962e-14 -1.859607e-14 -2.011135e-09))
22183.570975  	((1.517711e-12 1.416515e-11 9.217584e-13) (3.328571e-12 -8.255209e-12 -1.050682e-12)) ((-2.378233e-16 -6.657699e-16 -1.901104e-13) (-2.345534e-14 -1.824050e-14 -2.010270e-09))
23468.869746  	((1.444633e-12 1.407427e-11 8.632976e-13) (3.304593e-12 -8.250377e-12 -1.052823e-12)) ((-2.367758e-16 -6.642109e-16 -1.900819e-13) (-2.326941e-14 -1.794268e-14 -2.009567e-09))
24754.174723  	((1.365630e-12 1.400734e-11 8.076644e-13) (3.284986e-12 -8.246861e-12 -1.054765e-12)) ((-2.362394e-16 -6.628248e-16 -1.900586e-13) (-2.311986e-14 -1.769585e-14 -2.008994e-09))
26039.484781  	((1.283730e-12 1.396239e-11 7.521264e-13) (3.269207e-12 -8.244378e-12 -1.056520e-12)) ((-2.354889e-16 -6.617530e-16 -1.900396e-13) (-2.299188e-14 -1.748217e-14 -2.008529e-09))
27324.798985  	((1.201201e-12 1.393006e-11 7.061105e-13) (3.256315e-12 -8.242598e-12 -1.058239e-12)) ((-2.343031e-16 -6.611308e-16 -1.900242e-13) (-2.288492e-14 -1.730664e-14 -2.008150e-09))
28610.116568  	((1.121549e-12 1.390891e-11 6.545153e-13) (3.245473e-12 -8.241424e-12 -1.059766e-12)) ((-2.331753e-16 -6.607409e-16 -1.900117e-13) (-2.279312e-14 -1.718568e-14 -2.007841e-09))
29895.436905  	((1.049405e-12 1.389930e-11 6.157790e-13) (3.236304e-12 -8.240524e-12 -1.061139e-12)) ((-2.324718e-16 -6.603423e-16 -1.900015e-13) (-2.271163e-14 -1.709597e-14 -2.007590e-09))
