# Forces      
# CofR        : (0.000000e+00 0.000000e+00 0.000000e+00)
# Time        forces(pressure viscous)	moments(pressure viscous)
0             	((0.000000e+00 0.000000e+00 0.000000e+00) (1.599115e-03 -2.257642e-13 1.109847e-13)) ((0.000000e+00 0.000000e+00 0.000000e+00) (-3.162969e-15 -2.408121e-14 3.376094e-14))
0.012         	((4.644225e-01 5.201565e-08 1.287024e-07) (1.829781e-03 -1.213160e-09 -1.111068e-09)) ((1.838913e-12 -1.188880e-10 -5.491302e-11) (8.649422e-14 -4.907460e-12 1.764492e-11))
0.0264        	((-4.817385e-02 -6.518269e-06 -1.341167e-05) (1.850973e-03 -6.152429e-09 -1.102335e-08)) ((4.179708e-11 -2.129354e-10 -5.215332e-11) (3.671951e-13 4.384601e-12 2.832964e-11))
0.04368       	((-8.857596e-02 4.537394e-06 1.191494e-05) (1.629212e-03 -4.820435e-09 -7.076172e-09)) ((-3.694768e-11 4.059209e-10 3.902046e-10) (4.582246e-13 8.114929e-11 -2.979511e-11))
0.064416      	((-6.908253e-04 1.414218e-06 -8.466729e-07) (1.435893e-03 2.174905e-09 6.106318e-10)) ((1.583626e-11 -6.946614e-11 -1.241331e-10) (1.115915e-12 1.130842e-10 -6.776034e-11))
0.0892992     	((-1.815825e-05 -1.551726e-06 8.652635e-08) (1.321655e-03 -6.888241e-09 -1.683116e-09)) ((2.476975e-11 -1.498315e-11 -6.637933e-11) (-3.556618e-11 1.906236e-10 -3.244836e-11))
0.119159      	((-1.473350e-03 7.205523e-07 8.416466e-08) (1.221779e-03 -1.713276e-08 1.780306e-09)) ((-1.698783e-12 1.532773e-11 -6.058380e-11) (-6.087553e-11 2.503800e-10 1.380401e-10))
0.154991      	((-4.163911e-04 1.295535e-07 1.523609e-07) (1.120757e-03 -1.686460e-08 4.705929e-09)) ((6.014647e-12 3.784428e-12 -9.334037e-12) (-5.170970e-11 1.942302e-10 3.657729e-10))
0.197989      	((9.391312e-06 -3.082455e-07 -2.185271e-07) (1.024877e-03 -1.348696e-08 6.607328e-09)) ((4.871379e-12 6.762663e-12 1.049412e-11) (-4.897362e-11 1.574043e-10 3.228397e-10))
0.249587      	((1.561918e-04 -2.349534e-07 -2.015647e-07) (9.373678e-04 -1.003294e-08 7.042988e-09)) ((3.265457e-12 -8.507519e-12 7.506655e-12) (-4.852787e-11 1.422911e-10 2.611259e-10))
0.311504      	((2.434032e-04 -1.605299e-07 -1.814901e-07) (8.597879e-04 -8.213817e-09 4.149667e-09)) ((3.937615e-12 -4.189110e-12 9.535846e-13) (-4.401032e-11 9.486690e-11 2.267398e-10))
0.385805      	((2.905087e-04 -1.399028e-07 -1.364282e-07) (7.916385e-04 -8.186918e-09 5.382573e-10)) ((5.060320e-12 -3.955859e-12 -1.791174e-12) (-4.142091e-11 6.011890e-11 2.419631e-10))
0.474966      	((3.134069e-04 -1.125378e-07 -1.031766e-07) (7.311777e-04 -7.408659e-09 -2.636440e-09)) ((2.182696e-12 -3.609407e-12 -3.379337e-12) (-3.239068e-11 1.659104e-11 2.182119e-10))
0.581959      	((3.221027e-04 -6.720615e-08 -9.931604e-08) (6.753745e-04 -6.525336e-09 -4.209486e-09)) ((2.609235e-12 -3.319054e-12 -3.219196e-12) (-2.203071e-11 -2.244265e-11 1.648985e-10))
0.710351      	((3.209133e-04 -5.855649e-08 -6.972283e-08) (6.217336e-04 -6.677542e-09 -5.727711e-09)) ((9.895657e-13 -2.112107e-12 -2.570133e-12) (-1.509290e-11 -3.776443e-11 1.600461e-10))
0.864421      	((3.150728e-04 -5.189415e-08 -5.784415e-08) (5.700328e-04 -7.178538e-09 -7.038590e-09)) ((4.708145e-13 -1.609280e-12 -1.694834e-12) (-1.168112e-11 -4.939380e-11 1.526186e-10))
1.049306      	((3.083464e-04 -2.486266e-08 -2.133658e-08) (5.212267e-04 -7.389763e-09 -6.605962e-09)) ((-3.060635e-14 -2.251976e-13 -9.251746e-13) (-1.061004e-11 -3.778910e-11 9.671640e-11))
1.271167      	((3.043958e-04 -2.185541e-08 -3.008374e-08) (4.761250e-04 -6.865413e-09 -5.675314e-09)) ((-2.609213e-13 1.316360e-13 -5.567422e-13) (-9.982884e-12 2.680640e-11 -1.703203e-11))
1.5374        	((3.052965e-04 -3.206424e-08 -2.962598e-08) (4.351703e-04 -5.298034e-09 -4.441931e-09)) ((1.982253e-13 1.276491e-13 -8.476017e-13) (-7.818772e-12 1.806826e-10 -1.802857e-10))
1.85688       	((3.121799e-04 -8.668724e-08 -9.443650e-08) (3.986178e-04 -3.768809e-09 -3.429890e-09)) ((4.830285e-13 -2.038031e-12 -8.361252e-13) (-2.694896e-12 3.753247e-10 -3.600558e-10))
2.240256      	((3.259729e-04 -1.407438e-07 -1.335029e-07) (3.665613e-04 -4.273405e-09 -3.755815e-09)) ((3.940582e-13 -4.236049e-12 -6.810723e-13) (5.157206e-14 5.334459e-10 -5.201898e-10))
2.700307      	((3.484572e-04 -2.186079e-07 -2.209909e-07) (3.390088e-04 -7.281143e-09 -6.264911e-09)) ((3.057427e-13 -5.335736e-12 -1.399795e-12) (3.742803e-12 5.997145e-10 -5.946837e-10))
3.252369      	((3.802584e-04 -2.110174e-07 -1.925822e-07) (3.157705e-04 -1.022936e-08 -9.033613e-09)) ((1.433327e-13 -4.306106e-12 -1.716862e-12) (1.067599e-11 5.273407e-10 -5.015046e-10))
3.905043      	((4.218054e-04 -2.052508e-07 -2.120439e-07) (2.966879e-04 -1.244137e-08 -1.161389e-08)) ((-3.282343e-13 -4.364440e-12 -2.113809e-12) (1.399659e-11 3.734512e-10 -3.253874e-10))
4.657962      	((4.723136e-04 -1.427641e-07 -1.330375e-07) (2.813313e-04 -1.319964e-08 -1.230304e-08)) ((1.341338e-13 -4.114313e-12 -2.091058e-12) (1.521284e-11 2.464399e-10 -1.933923e-10))
5.510609      	((5.302428e-04 -1.133070e-07 -1.079417e-07) (2.690376e-04 -1.235350e-08 -1.123431e-08)) ((-1.509405e-13 -3.919523e-12 -1.953273e-12) (1.892405e-11 1.547514e-10 -9.909322e-11))
6.462199      	((5.943561e-04 -2.837081e-08 -2.910491e-08) (2.592877e-04 -9.199744e-09 -8.263033e-09)) ((-5.567865e-14 -7.002698e-13 -2.214121e-12) (2.068685e-11 6.599746e-11 -8.431569e-12))
7.442081      	((6.616538e-04 6.192218e-08 6.245105e-08) (2.521378e-04 -5.728700e-09 -4.720267e-09)) ((-5.343834e-13 4.599836e-12 -4.336785e-12) (2.315483e-11 4.815616e-11 4.580774e-12))
8.411686      	((7.231148e-04 1.063654e-07 9.720595e-08) (2.469655e-04 -3.034454e-09 -9.009741e-10)) ((-1.034994e-12 8.497220e-12 -6.171734e-12) (2.218442e-11 6.643897e-12 -2.087354e-11))
9.371764      	((7.762887e-04 1.424078e-07 1.269457e-07) (2.429652e-04 -4.774659e-09 -2.598942e-09)) ((-2.135146e-12 7.589845e-12 -6.851378e-12) (3.185942e-11 2.519796e-10 -3.026364e-10))
10.325292     	((8.191548e-04 1.963980e-07 1.818731e-07) (2.395880e-04 -9.685588e-09 -7.943513e-09)) ((-2.744176e-12 5.631229e-12 -7.369650e-12) (2.450002e-11 7.754443e-10 -8.205715e-10))
11.276718     	((8.521815e-04 3.033454e-07 3.025112e-07) (2.367397e-04 -1.307510e-08 -1.182772e-08)) ((-3.589569e-12 4.646615e-12 -5.770531e-12) (2.341712e-11 1.382384e-09 -1.397816e-09))
12.229356     	((8.707808e-04 5.263755e-07 5.160419e-07) (2.342974e-04 -1.331749e-08 -1.258936e-08)) ((-3.121107e-12 4.296138e-12 -3.986826e-12) (2.813775e-11 2.064891e-09 -2.062882e-09))
13.184021     	((8.767058e-04 6.368466e-07 6.256995e-07) (2.319969e-04 -1.135123e-08 -1.064802e-08)) ((-3.229658e-12 3.221518e-12 -2.775824e-12) (2.569381e-11 2.717795e-09 -2.740492e-09))
14.139833     	((8.738178e-04 6.171644e-07 6.161454e-07) (2.297536e-04 -1.413730e-08 -1.319570e-08)) ((-4.136908e-12 2.518711e-12 -2.585425e-12) (2.162029e-11 3.596987e-09 -3.611863e-09))
15.096024     	((8.633473e-04 5.595807e-07 5.201404e-07) (2.276347e-04 -1.673488e-08 -1.724840e-08)) ((-4.003185e-12 2.993477e-14 -3.316982e-12) (1.861362e-11 4.267051e-09 -4.261721e-09))
16.052557     	((8.498779e-04 4.496175e-07 4.168014e-07) (2.256116e-04 -2.012528e-08 -2.082902e-08)) ((-2.831568e-12 -1.391476e-12 -4.662625e-12) (1.644694e-11 4.626871e-09 -4.606505e-09))
17.010053     	((8.372070e-04 3.081482e-07 2.499253e-07) (2.236600e-04 -2.852148e-08 -3.066881e-08)) ((-3.842303e-12 -9.300986e-13 -6.818305e-12) (1.668114e-11 4.999915e-09 -4.919759e-09))
17.968954     	((8.289802e-04 4.392167e-07 4.334818e-07) (2.218538e-04 -3.186711e-08 -3.495072e-08)) ((-4.595764e-12 4.106999e-12 -7.469779e-12) (8.867952e-12 5.097662e-09 -4.950224e-09))
18.92923      	((8.211441e-04 5.252824e-07 5.298688e-07) (2.201972e-04 -2.352465e-08 -2.676040e-08)) ((-5.520564e-12 3.788836e-12 -7.852570e-12) (7.067245e-12 4.763518e-09 -4.538639e-09))
19.890982     	((8.139430e-04 4.342752e-07 3.826189e-07) (2.186651e-04 -1.417224e-08 -1.946443e-08)) ((-6.934207e-12 2.175664e-12 -7.870054e-12) (1.220937e-11 4.269412e-09 -3.978093e-09))
20.854572     	((8.072432e-04 3.026876e-07 3.034501e-07) (2.172199e-04 -1.075199e-08 -1.694268e-08)) ((-8.622547e-12 1.359953e-12 -6.436614e-12) (6.717372e-12 3.857212e-09 -3.506265e-09))
21.819736     	((8.023912e-04 2.544917e-07 2.996808e-07) (2.158565e-04 -7.819693e-09 -1.320537e-08)) ((-9.971714e-12 1.909853e-12 -4.555656e-12) (-2.097237e-12 3.457754e-09 -3.100644e-09))
22.786354     	((7.986961e-04 1.766155e-07 2.318918e-07) (2.145845e-04 -8.082312e-09 -8.120544e-09)) ((-1.003544e-11 5.171804e-13 -3.089968e-12) (-1.375923e-11 3.079154e-09 -2.928253e-09))
23.754382     	((7.952354e-04 1.669546e-07 1.660786e-07) (2.133871e-04 -1.183402e-08 -8.480224e-09)) ((-1.011025e-11 -8.907822e-13 -2.269223e-12) (-1.623928e-11 2.974121e-09 -3.009987e-09))
24.723873     	((7.914278e-04 1.551338e-07 1.713676e-07) (2.122369e-04 -1.311036e-08 -1.152537e-08)) ((-9.907025e-12 -7.867602e-13 -1.762177e-12) (1.885364e-11 2.977633e-09 -2.954632e-09))
25.694915     	((7.874146e-04 8.335582e-08 1.066065e-07) (2.111107e-04 -1.350414e-08 -1.288018e-08)) ((-1.031220e-11 -1.957799e-12 -1.765145e-12) (4.053345e-11 2.849868e-09 -2.708879e-09))
26.667024     	((7.840208e-04 2.467216e-08 7.047590e-08) (2.100261e-04 -1.364749e-08 -1.277665e-08)) ((-1.081609e-11 -1.927264e-12 -1.963185e-12) (3.480659e-11 2.564275e-09 -2.405556e-09))
27.639357     	((7.805302e-04 -2.554987e-08 -4.361439e-08) (2.089969e-04 -1.489940e-08 -1.309705e-08)) ((-1.030290e-11 -2.683824e-12 -2.343357e-12) (3.163558e-11 2.239855e-09 -2.176642e-09))
28.611923     	((7.773423e-04 -7.688219e-08 -9.412952e-08) (2.080301e-04 -1.907562e-08 -1.572066e-08)) ((-9.744985e-12 -3.396217e-12 -2.671664e-12) (2.510209e-11 2.025717e-09 -2.170906e-09))
29.584954     	((7.743012e-04 -1.497590e-07 -1.609319e-07) (2.071293e-04 -2.508553e-08 -2.204884e-08)) ((-9.276918e-12 -3.796247e-12 -3.675682e-12) (2.573771e-11 2.057846e-09 -2.285738e-09))
30.558518     	((7.716061e-04 -3.205104e-07 -2.730847e-07) (2.062958e-04 -3.124084e-08 -3.038501e-08)) ((-8.774356e-12 -4.958321e-12 -4.565197e-12) (3.138770e-11 2.195515e-09 -2.285645e-09))
31.532642     	((7.686608e-04 -5.141031e-07 -4.467368e-07) (2.055117e-04 -3.961597e-08 -3.776578e-08)) ((-8.431824e-12 -6.145355e-12 -5.386880e-12) (3.568964e-11 2.169794e-09 -2.227266e-09))
32.507409     	((7.658400e-04 -7.023144e-07 -6.331780e-07) (2.047651e-04 -5.122159e-08 -4.699618e-08)) ((-7.982228e-12 -6.372765e-12 -5.771639e-12) (3.043736e-11 2.078082e-09 -2.200560e-09))
33.482876     	((7.623089e-04 -9.128367e-07 -8.577780e-07) (2.040329e-04 -6.402614e-08 -5.982547e-08)) ((-8.261431e-12 -7.112916e-12 -6.270676e-12) (2.604922e-11 2.036830e-09 -2.118543e-09))
34.45907      	((7.597352e-04 -1.131560e-06 -1.046770e-06) (2.033278e-04 -7.718895e-08 -7.354636e-08)) ((-9.090505e-12 -7.177987e-12 -6.682457e-12) (3.182719e-11 1.964606e-09 -1.878921e-09))
35.436043     	((7.565866e-04 -1.307484e-06 -1.257018e-06) (2.026374e-04 -9.007884e-08 -8.723111e-08)) ((-1.009108e-11 -7.670031e-12 -6.634534e-12) (3.898587e-11 1.750030e-09 -1.524637e-09))
36.413829     	((7.538425e-04 -1.460749e-06 -1.445847e-06) (2.019560e-04 -1.016212e-07 -1.005099e-07)) ((-1.087636e-11 -7.372116e-12 -6.692768e-12) (3.555606e-11 1.387698e-09 -1.163895e-09))
37.392453     	((7.515072e-04 -1.656871e-06 -1.638595e-06) (2.013010e-04 -1.140657e-07 -1.128721e-07)) ((-1.178804e-11 -6.997971e-12 -6.740512e-12) (2.065348e-11 1.003095e-09 -8.747221e-10))
38.371941     	((7.495852e-04 -1.876866e-06 -1.820631e-06) (2.006823e-04 -1.286926e-07 -1.253273e-07)) ((-1.276469e-11 -6.860739e-12 -6.577350e-12) (7.039945e-12 6.946257e-10 -6.949785e-10))
39.352358     	((7.479762e-04 -2.112084e-06 -2.071063e-06) (2.001073e-04 -1.451558e-07 -1.408822e-07)) ((-1.357597e-11 -7.908110e-12 -6.313437e-12) (8.391951e-12 5.228639e-10 -6.110139e-10))
40.333721     	((7.456982e-04 -2.374755e-06 -2.320430e-06) (1.995548e-04 -1.629722e-07 -1.591986e-07)) ((-1.420886e-11 -9.476471e-12 -6.375060e-12) (1.150143e-11 4.428474e-10 -5.022603e-10))
41.316031     	((7.433471e-04 -2.687355e-06 -2.638282e-06) (1.990098e-04 -1.823941e-07 -1.796887e-07)) ((-1.433835e-11 -1.211003e-11 -6.343588e-12) (9.459355e-12 3.510303e-10 -2.974163e-10))
42.29929      	((7.412169e-04 -3.022831e-06 -2.963837e-06) (1.984710e-04 -2.040564e-07 -2.021669e-07)) ((-1.447847e-11 -1.469958e-11 -6.080334e-12) (7.558761e-12 2.039671e-10 -5.775959e-11))
43.283615     	((7.390305e-04 -3.378963e-06 -3.287612e-06) (1.979334e-04 -2.275277e-07 -2.253523e-07)) ((-1.399922e-11 -1.715668e-11 -5.758168e-12) (7.971012e-12 -2.362105e-11 2.512583e-10))
44.269082     	((7.368264e-04 -3.774455e-06 -3.698480e-06) (1.973996e-04 -2.529300e-07 -2.508443e-07)) ((-1.314734e-11 -2.061633e-11 -5.420736e-12) (7.655033e-12 -3.183976e-10 6.129966e-10))
45.255675     	((7.345538e-04 -4.279571e-06 -4.183438e-06) (1.968775e-04 -2.820929e-07 -2.798968e-07)) ((-1.224333e-11 -2.435827e-11 -5.336643e-12) (8.523545e-12 -6.867973e-10 1.004808e-09))
46.243384     	((7.322346e-04 -4.813070e-06 -4.720529e-06) (1.963712e-04 -3.158114e-07 -3.129320e-07)) ((-1.106283e-11 -2.768935e-11 -5.641937e-12) (1.384925e-11 -1.091025e-09 1.400836e-09))
47.232095     	((7.300855e-04 -5.471225e-06 -5.342124e-06) (1.958845e-04 -3.559109e-07 -3.513979e-07)) ((-9.540598e-12 -3.053866e-11 -6.175032e-12) (2.187096e-11 -1.488333e-09 1.792309e-09))
48.221738     	((7.285216e-04 -6.093737e-06 -5.973815e-06) (1.954283e-04 -4.004885e-07 -3.945936e-07)) ((-7.983205e-12 -3.296823e-11 -6.780832e-12) (3.227580e-11 -1.884855e-09 2.178098e-09))
49.212284     	((7.271348e-04 -6.793525e-06 -6.620898e-06) (1.950041e-04 -4.492196e-07 -4.417283e-07)) ((-6.129734e-12 -3.611861e-11 -7.305282e-12) (4.400459e-11 -2.279363e-09 2.574638e-09))
50.203705     	((7.255361e-04 -7.452961e-06 -7.275033e-06) (1.945993e-04 -5.005702e-07 -4.916946e-07)) ((-4.879274e-12 -4.048530e-11 -7.865570e-12) (4.958998e-11 -2.654388e-09 2.996402e-09))
51.195976     	((7.237855e-04 -8.149605e-06 -7.966284e-06) (1.942046e-04 -5.535279e-07 -5.443866e-07)) ((-3.940548e-12 -4.490289e-11 -8.611034e-12) (5.253811e-11 -3.018112e-09 3.456575e-09))
52.189067     	((7.219964e-04 -8.935766e-06 -8.737130e-06) (1.938160e-04 -6.101606e-07 -6.006465e-07)) ((-3.448008e-12 -5.028069e-11 -9.342587e-12) (5.609999e-11 -3.420588e-09 3.985794e-09))
53.182948     	((7.203018e-04 -9.808659e-06 -9.610058e-06) (1.934342e-04 -6.712075e-07 -6.616244e-07)) ((-3.053493e-12 -5.632292e-11 -1.014499e-11) (6.237472e-11 -3.918910e-09 4.606326e-09))
54.1776       	((7.187234e-04 -1.079306e-05 -1.055058e-05) (1.930619e-04 -7.378519e-07 -7.275968e-07)) ((-2.888957e-12 -6.224967e-11 -1.100288e-11) (6.800962e-11 -4.533450e-09 5.285877e-09))
55.173009     	((7.173340e-04 -1.182174e-05 -1.154554e-05) (1.927021e-04 -8.100501e-07 -7.981517e-07)) ((-3.354956e-12 -6.781722e-11 -1.182797e-11) (7.363863e-11 -5.266396e-09 6.048548e-09))
56.169162     	((7.160611e-04 -1.288828e-05 -1.256732e-05) (1.923559e-04 -8.870053e-07 -8.730156e-07)) ((-4.275223e-12 -7.366792e-11 -1.266852e-11) (8.567251e-11 -6.083768e-09 6.888705e-09))
57.166062     	((7.149272e-04 -1.397870e-05 -1.364986e-05) (1.920246e-04 -9.683666e-07 -9.523114e-07)) ((-5.215989e-12 -8.016035e-11 -1.351728e-11) (1.032220e-10 -6.968715e-09 7.768874e-09))
58.163672     	((7.138676e-04 -1.511515e-05 -1.475985e-05) (1.917083e-04 -1.053621e-06 -1.035511e-06)) ((-6.382977e-12 -8.656475e-11 -1.437553e-11) (1.185316e-10 -7.926844e-09 8.707773e-09))
59.161914     	((7.127784e-04 -1.638231e-05 -1.603398e-05) (1.914033e-04 -1.144381e-06 -1.124834e-06)) ((-6.399066e-12 -9.509803e-11 -1.514690e-11) (1.323688e-10 -8.962855e-09 9.740946e-09))
60.16073      	((7.117273e-04 -1.776275e-05 -1.739208e-05) (1.911088e-04 -1.241924e-06 -1.221529e-06)) ((-6.087509e-12 -1.037200e-10 -1.587277e-11) (1.453096e-10 -1.006251e-08 1.088698e-08))
61.160076     	((7.107117e-04 -1.927164e-05 -1.887535e-05) (1.908254e-04 -1.347310e-06 -1.326238e-06)) ((-5.263631e-12 -1.132200e-10 -1.649825e-11) (1.560125e-10 -1.123654e-08 1.213339e-08))
62.159907     	((7.096633e-04 -2.091795e-05 -2.049590e-05) (1.905513e-04 -1.461843e-06 -1.440154e-06)) ((-3.786334e-12 -1.237092e-10 -1.723738e-11) (1.627055e-10 -1.250604e-08 1.347271e-08))
63.160177     	((7.086541e-04 -2.270605e-05 -2.222079e-05) (1.902865e-04 -1.586093e-06 -1.563236e-06)) ((-1.220263e-12 -1.342431e-10 -1.808426e-11) (1.625435e-10 -1.386678e-08 1.491989e-08))
64.160841     	((7.076456e-04 -2.461280e-05 -2.410263e-05) (1.900308e-04 -1.719900e-06 -1.696372e-06)) ((2.038007e-12 -1.454976e-10 -1.902394e-11) (1.581953e-10 -1.532478e-08 1.649103e-08))
65.161852     	((7.067286e-04 -2.671829e-05 -2.616300e-05) (1.897855e-04 -1.865294e-06 -1.841615e-06)) ((6.048311e-12 -1.572337e-10 -2.009814e-11) (1.498038e-10 -1.688853e-08 1.819024e-08))
66.163163     	((7.059123e-04 -2.903063e-05 -2.843186e-05) (1.895522e-04 -2.024728e-06 -2.000726e-06)) ((1.058906e-11 -1.695867e-10 -2.124674e-11) (1.434131e-10 -1.856001e-08 2.002057e-08))
67.164729     	((7.051295e-04 -3.161104e-05 -3.095782e-05) (1.893301e-04 -2.200916e-06 -2.176266e-06)) ((1.545147e-11 -1.833880e-10 -2.236578e-11) (1.366886e-10 -2.035014e-08 2.196906e-08))
68.166499     	((7.044345e-04 -3.445015e-05 -3.374770e-05) (1.891192e-04 -2.396096e-06 -2.370352e-06)) ((2.042143e-11 -1.987247e-10 -2.356646e-11) (1.315923e-10 -2.226860e-08 2.405368e-08))
69.168424     	((7.037633e-04 -3.757127e-05 -3.680187e-05) (1.889195e-04 -2.611499e-06 -2.584554e-06)) ((2.556607e-11 -2.153443e-10 -2.498687e-11) (1.290948e-10 -2.431967e-08 2.629299e-08))
70.170448     	((7.031274e-04 -4.100606e-05 -4.017578e-05) (1.887296e-04 -2.849532e-06 -2.820989e-06)) ((3.057458e-11 -2.339315e-10 -2.656586e-11) (1.377896e-10 -2.651338e-08 2.868290e-08))
71.172513     	((7.025585e-04 -4.477401e-05 -4.384848e-05) (1.885489e-04 -3.112714e-06 -3.080881e-06)) ((3.585450e-11 -2.543865e-10 -2.831455e-11) (1.503986e-10 -2.889242e-08 3.121710e-08))
72.174554     	((7.019972e-04 -4.889596e-05 -4.788821e-05) (1.883765e-04 -3.402951e-06 -3.366711e-06)) ((4.150271e-11 -2.770976e-10 -3.021345e-11) (1.503135e-10 -3.147942e-08 3.393308e-08))
73.176502     	((7.014607e-04 -5.342189e-05 -5.231527e-05) (1.882109e-04 -3.722408e-06 -3.681018e-06)) ((4.741596e-11 -3.023174e-10 -3.211049e-11) (1.430121e-10 -3.428166e-08 3.687744e-08))
74.17828      	((7.010596e-04 -5.835160e-05 -5.712822e-05) (1.880537e-04 -4.073261e-06 -4.024734e-06)) ((5.359162e-11 -3.296425e-10 -3.390213e-11) (1.349658e-10 -3.737223e-08 4.007934e-08))
75.17981      	((7.007148e-04 -6.368933e-05 -6.234624e-05) (1.879075e-04 -4.457514e-06 -4.399666e-06)) ((6.024755e-11 -3.589541e-10 -3.583526e-11) (1.364132e-10 -4.076747e-08 4.350544e-08))
76.181007     	((7.005545e-04 -6.948903e-05 -6.800387e-05) (1.877734e-04 -4.876653e-06 -4.807705e-06)) ((6.760678e-11 -3.900687e-10 -3.749150e-11) (1.494529e-10 -4.449071e-08 4.723650e-08))
77.181786     	((7.004995e-04 -7.573159e-05 -7.411985e-05) (1.876511e-04 -5.332773e-06 -5.250873e-06)) ((7.594384e-11 -4.238476e-10 -3.867164e-11) (1.715672e-10 -4.858800e-08 5.128960e-08))
78.182054     	((7.005507e-04 -8.254371e-05 -8.077390e-05) (1.875429e-04 -5.830802e-06 -5.734032e-06)) ((8.543734e-11 -4.617831e-10 -3.916970e-11) (2.035726e-10 -5.289867e-08 5.552760e-08))
79.181717     	((7.007024e-04 -8.994487e-05 -8.802433e-05) (1.874517e-04 -6.376665e-06 -6.263503e-06)) ((9.642190e-11 -5.039315e-10 -3.909796e-11) (2.152105e-10 -5.729258e-08 5.978899e-08))
80.180673     	((7.009411e-04 -9.795001e-05 -9.587744e-05) (1.873794e-04 -6.975334e-06 -6.844779e-06)) ((1.094849e-10 -5.491669e-10 -3.945477e-11) (1.823698e-10 -6.171371e-08 6.396269e-08))
81.178816     	((7.014879e-04 -1.065574e-04 -1.043099e-04) (1.873321e-04 -7.629555e-06 -7.481876e-06)) ((1.242294e-10 -5.972226e-10 -4.169099e-11) (1.406951e-10 -6.608855e-08 6.805705e-08))
82.176035     	((7.023141e-04 -1.159614e-04 -1.135281e-04) (1.873109e-04 -8.343625e-06 -8.179518e-06)) ((1.426949e-10 -6.508654e-10 -4.528200e-11) (1.066394e-10 -7.051458e-08 7.226253e-08))
83.172212     	((7.035035e-04 -1.262220e-04 -1.235769e-04) (1.873134e-04 -9.122043e-06 -8.942530e-06)) ((1.647159e-10 -7.095455e-10 -4.867445e-11) (1.053575e-10 -7.516938e-08 7.687552e-08))
84.167231     	((7.050217e-04 -1.374087e-04 -1.345437e-04) (1.873379e-04 -9.967447e-06 -9.771938e-06)) ((1.903651e-10 -7.732875e-10 -4.929456e-11) (1.162611e-10 -8.041689e-08 8.216426e-08))
85.160956     	((7.069564e-04 -1.495552e-04 -1.464256e-04) (1.873862e-04 -1.088150e-05 -1.066941e-05)) ((2.199161e-10 -8.412286e-10 -4.622416e-11) (1.224862e-10 -8.648824e-08 8.832629e-08))
86.153239     	((7.095342e-04 -1.627769e-04 -1.593729e-04) (1.874676e-04 -1.187281e-05 -1.164070e-05)) ((2.531248e-10 -9.136505e-10 -4.187249e-11) (1.680258e-10 -9.337519e-08 9.526384e-08))
87.143933     	((7.128680e-04 -1.771520e-04 -1.735453e-04) (1.875920e-04 -1.295080e-05 -1.269772e-05)) ((2.928072e-10 -9.920852e-10 -3.760512e-11) (1.950200e-10 -1.009338e-07 1.028601e-07))
88.132888     	((7.169757e-04 -1.927098e-04 -1.889023e-04) (1.877697e-04 -1.412711e-05 -1.385414e-05)) ((3.406339e-10 -1.075982e-09 -3.504021e-11) (2.019538e-10 -1.089184e-07 1.108686e-07))
89.119953     	((7.220141e-04 -2.096438e-04 -2.055330e-04) (1.880102e-04 -1.541840e-05 -1.512360e-05)) ((4.008109e-10 -1.165014e-09 -3.359257e-11) (2.454686e-10 -1.170206e-07 1.190194e-07))
90.104976     	((7.282489e-04 -2.278216e-04 -2.234008e-04) (1.883237e-04 -1.682573e-05 -1.650595e-05)) ((4.730189e-10 -1.256442e-09 -3.196487e-11) (2.693724e-10 -1.255396e-07 1.275388e-07))
