# Forces      
# CofR        : (0.000000e+00 0.000000e+00 0.000000e+00)
# Time        forces(pressure viscous)	moments(pressure viscous)
0             	((0.000000e+00 0.000000e+00 0.000000e+00) (0.000000e+00 0.000000e+00 0.000000e+00)) ((0.000000e+00 0.000000e+00 0.000000e+00) (0.000000e+00 0.000000e+00 0.000000e+00))
0.012         	((-1.128738e-11 2.846318e-09 5.852669e-12) (-9.920351e-15 7.226583e-11 -2.386561e-13)) ((-7.504031e-16 5.347589e-16 -6.473165e-11) (3.095020e-16 -5.875392e-15 -8.814303e-08))
0.0264        	((-3.601541e-11 4.168010e-10 -8.429943e-15) (-8.896859e-14 1.067274e-10 -4.326577e-13)) ((5.657597e-16 -5.661415e-15 -2.967250e-11) (7.904636e-17 -1.631823e-14 -8.074027e-08))
0.04368       	((-2.583006e-11 1.325443e-09 2.097801e-11) (-1.247141e-13 1.124368e-10 -6.198119e-13)) ((-1.125829e-15 -6.870219e-15 -1.615571e-11) (-5.179241e-17 -2.921245e-14 -7.312772e-08))
0.064416      	((-4.290420e-11 -1.877516e-10 -1.846663e-11) (-1.522271e-13 9.707445e-11 -1.015792e-12)) ((3.724692e-16 -3.636528e-15 -8.673538e-12) (-1.788434e-15 -4.572089e-14 -6.547390e-08))
0.0892992     	((2.426133e-11 5.883422e-10 1.627640e-11) (-1.518071e-13 8.073101e-11 -1.546319e-12)) ((-1.717998e-15 -9.422695e-15 -6.492041e-12) (-5.514064e-15 -6.644452e-14 -5.800319e-08))
0.119159      	((-1.477870e-11 -1.062943e-10 2.736136e-12) (-1.504355e-13 6.567071e-11 -1.829933e-12)) ((9.479290e-17 -6.862670e-15 -4.842596e-12) (-7.254601e-15 -7.760086e-14 -5.094727e-08))
0.154991      	((8.402602e-12 2.905968e-10 -5.049685e-12) (-1.671345e-13 5.934422e-11 -1.886497e-12)) ((-7.979860e-16 -5.180562e-15 -3.949849e-12) (-9.086865e-15 -8.084793e-14 -4.446904e-08))
0.197989      	((-2.872777e-12 9.021082e-11 -6.856839e-13) (-7.484043e-14 5.155445e-11 -1.857152e-12)) ((-1.447982e-15 -4.493899e-15 -3.233649e-12) (-1.173851e-14 -8.098627e-14 -3.872550e-08))
0.249587      	((9.082721e-12 2.320869e-10 6.704090e-12) (1.568679e-14 4.559838e-11 -1.907504e-12)) ((-1.118686e-15 -5.010303e-15 -2.662379e-12) (-1.220984e-14 -7.764249e-14 -3.380210e-08))
0.311504      	((-4.335523e-12 1.352496e-10 3.122889e-12) (3.753590e-14 4.146195e-11 -2.099582e-12)) ((-6.818153e-16 -3.129017e-15 -2.164181e-12) (-1.020291e-14 -7.463083e-14 -2.968686e-08))
0.385805      	((-1.415236e-11 1.055008e-10 -8.830894e-13) (2.277675e-14 3.949153e-11 -2.316749e-12)) ((-2.826404e-16 -1.213550e-15 -1.779822e-12) (-3.820285e-15 -7.525689e-14 -2.629093e-08))
0.474966      	((-2.838058e-11 1.061304e-10 3.186685e-12) (-1.014559e-13 3.942577e-11 -2.382351e-12)) ((1.058743e-18 -7.056197e-16 -1.519468e-12) (-1.061284e-15 -7.432887e-14 -2.348074e-08))
0.581959      	((-2.299528e-11 7.421745e-11 3.176501e-12) (1.782254e-13 3.618408e-11 -1.861039e-12)) ((-1.333171e-16 9.126270e-16 -1.289656e-12) (-2.588230e-15 -5.013063e-14 -2.111789e-08))
0.710351      	((-3.685835e-11 5.586610e-11 -2.135149e-12) (5.575179e-13 3.080656e-11 -1.023344e-12)) ((6.321025e-16 1.682612e-15 -1.068875e-12) (-1.949595e-15 -9.864399e-15 -1.908783e-08))
0.864421      	((-3.321513e-11 9.968213e-11 -4.976433e-12) (4.223059e-13 2.986262e-11 -4.393599e-13)) ((1.271041e-15 3.813112e-15 -9.151388e-13) (4.421733e-15 2.641970e-14 -1.730969e-08))
1.049306      	((-3.505370e-11 1.541192e-10 -3.638451e-12) (6.535435e-13 2.820304e-11 1.519440e-13)) ((1.426965e-15 4.891892e-15 -8.241203e-13) (-5.284613e-15 4.514936e-14 -1.572971e-08))
1.271167      	((-4.118181e-11 1.726147e-10 -3.789557e-13) (6.460509e-13 2.520421e-11 9.953331e-13)) ((9.559693e-16 4.908090e-15 -7.524426e-13) (-3.168449e-14 4.855107e-14 -1.431136e-08))
1.5374        	((-4.755006e-11 1.863159e-10 -2.061539e-12) (1.837544e-12 2.664764e-11 1.807333e-12)) ((1.094440e-15 7.094422e-15 -6.941339e-13) (-6.847179e-14 3.027866e-14 -1.303132e-08))
1.85688       	((-5.707274e-11 2.539658e-10 -7.195354e-12) (4.500694e-12 3.046181e-11 1.615314e-12)) ((1.331308e-15 7.586904e-15 -6.485752e-13) (-1.217780e-13 -3.279389e-14 -1.187666e-08))
2.240256      	((-4.463233e-11 1.750422e-10 -2.561647e-13) (7.482048e-12 2.785866e-11 1.274695e-12)) ((1.397147e-15 8.145626e-15 -6.311002e-13) (-2.015008e-13 -1.300050e-13 -1.084089e-08))
2.700307      	((-4.380402e-11 1.071913e-10 8.175582e-13) (1.181131e-11 1.918458e-11 1.824371e-12)) ((1.085886e-15 8.306529e-15 -6.112893e-13) (-3.154680e-13 -2.406874e-13 -9.919320e-09))
3.252369      	((-3.463651e-11 7.636486e-11 6.338833e-13) (1.717159e-11 1.138572e-11 2.867583e-12)) ((5.978359e-16 7.792062e-15 -5.797731e-13) (-4.337729e-13 -3.240433e-13 -9.105354e-09))
3.914842      	((-2.309232e-11 4.648798e-11 3.523176e-12) (2.302709e-11 4.946727e-12 2.761894e-12)) ((1.023106e-15 6.265198e-15 -5.340314e-13) (-5.104899e-13 -4.192004e-13 -8.388904e-09))
4.709811      	((-3.611265e-12 2.946512e-11 3.310948e-12) (2.805427e-11 -4.468452e-12 1.594199e-12)) ((3.993921e-16 4.623914e-15 -4.808996e-13) (-5.427536e-13 -4.835400e-13 -7.757384e-09))
5.663773      	((7.188413e-12 -9.322765e-12 3.165636e-13) (3.110964e-11 -1.650498e-11 1.483543e-13)) ((-7.789027e-16 3.219513e-15 -4.335936e-13) (-5.456322e-13 -5.174732e-13 -7.196375e-09))
6.808528      	((1.171946e-11 -8.060717e-12 1.469529e-13) (3.172106e-11 -2.136170e-11 -3.137114e-13)) ((-8.175369e-16 1.521851e-15 -3.899811e-13) (-5.205508e-13 -4.918334e-13 -6.691890e-09))
8.182233      	((1.271455e-11 -2.426676e-11 -3.101519e-12) (2.920199e-11 -1.915216e-11 -3.136233e-13)) ((-8.697014e-16 7.800601e-16 -3.516001e-13) (-4.471169e-13 -4.072889e-13 -6.233434e-09))
9.83068       	((1.214042e-11 -9.820269e-12 1.298592e-12) (2.492158e-11 -1.392258e-11 -4.640367e-13)) ((-1.603183e-15 -5.433777e-16 -3.208414e-13) (-3.498671e-13 -3.317968e-13 -5.813717e-09))
11.808816     	((1.325711e-12 9.524830e-12 -1.043919e-12) (1.951643e-11 -6.842111e-12 4.665331e-14)) ((-1.400434e-15 -1.103994e-15 -2.946464e-13) (-2.652718e-13 -2.349746e-13 -5.427734e-09))
14.182579     	((-3.499508e-12 7.083171e-12 -4.856852e-13) (1.374302e-11 -2.544233e-12 -4.018015e-13)) ((-1.284299e-15 -2.159213e-15 -2.742566e-13) (-1.879004e-13 -1.772852e-13 -5.072236e-09))
17.031095     	((-1.667530e-12 4.096238e-12 3.916270e-13) (8.783308e-12 -3.426177e-13 -8.081983e-13)) ((-1.044444e-15 -2.488524e-15 -2.585091e-13) (-1.294896e-13 -1.284723e-13 -4.745354e-09))
20.449314     	((-3.950869e-12 9.392460e-12 -8.346194e-13) (5.567359e-12 1.240272e-12 -3.485120e-13)) ((-6.376121e-16 -2.716858e-15 -2.458100e-13) (-9.569358e-14 -7.099125e-14 -4.445841e-09))
24.551176     	((-3.213438e-13 1.427405e-11 -1.030981e-12) (3.792247e-12 7.667922e-13 4.099457e-14)) ((-4.754807e-16 -2.534711e-15 -2.340066e-13) (-7.657667e-14 -4.610524e-14 -4.172175e-09))
29.473411     	((-9.435960e-13 1.500058e-11 -1.031138e-12) (3.200422e-12 -1.031572e-12 1.839969e-13)) ((-3.177135e-16 -2.227596e-15 -2.247329e-13) (-6.340018e-14 -3.777664e-14 -3.922595e-09))
35.380094     	((-3.265332e-12 1.562456e-11 -6.593361e-13) (3.011571e-12 -2.783800e-12 -6.233852e-14)) ((-2.560768e-16 -2.187870e-15 -2.160154e-13) (-5.553391e-14 -4.697767e-14 -3.694888e-09))
42.468112     	((-3.371745e-12 1.296417e-11 -1.293664e-12) (3.118012e-12 -4.537697e-12 -3.159376e-13)) ((-3.126096e-16 -1.983599e-15 -2.093204e-13) (-5.667081e-14 -5.631513e-14 -3.487059e-09))
50.973735     	((-3.609329e-12 1.374072e-11 -7.746503e-14) (3.755430e-12 -6.482852e-12 -1.538236e-13)) ((-4.839870e-16 -1.996701e-15 -2.027636e-13) (-6.774843e-14 -6.176493e-14 -3.297545e-09))
61.180482     	((-6.674584e-12 1.317315e-11 -9.004552e-13) (4.347893e-12 -8.177290e-12 8.602066e-14)) ((-3.906298e-16 -1.917093e-15 -1.976789e-13) (-7.692326e-14 -6.139594e-14 -3.125004e-09))
73.428578     	((-5.646724e-12 1.191294e-11 -4.414647e-13) (5.272785e-12 -9.174807e-12 1.961085e-13)) ((-3.932489e-16 -1.719445e-15 -1.942926e-13) (-8.982286e-14 -6.568001e-14 -2.968222e-09))
88.126294     	((-6.114120e-12 9.060655e-12 -1.062404e-13) (6.008867e-12 -1.006827e-11 1.900584e-13)) ((-3.476551e-16 -1.451218e-15 -1.910683e-13) (-9.824153e-14 -7.597808e-14 -2.826008e-09))
105.763553    	((-5.350291e-12 8.767597e-12 -2.010496e-13) (6.209423e-12 -1.094506e-11 7.749176e-14)) ((-3.215245e-16 -1.204426e-15 -1.875605e-13) (-1.043295e-13 -8.400684e-14 -2.697205e-09))
126.928263    	((-3.970800e-12 9.532732e-12 -1.848771e-13) (6.062540e-12 -1.133850e-11 -1.037222e-13)) ((-3.794315e-16 -1.049729e-15 -1.844396e-13) (-1.066743e-13 -8.284032e-14 -2.580713e-09))
152.325916    	((-3.190696e-12 8.887454e-12 -6.317744e-14) (5.816016e-12 -1.133404e-11 -4.027713e-13)) ((-4.032209e-16 -9.320081e-16 -1.815467e-13) (-1.012811e-13 -7.920296e-14 -2.475315e-09))
182.803099    	((-3.005355e-12 8.890270e-12 -1.483482e-13) (5.436941e-12 -1.129462e-11 -6.496534e-13)) ((-3.865638e-16 -7.917500e-16 -1.789669e-13) (-9.553109e-14 -7.192944e-14 -2.379783e-09))
219.375719    	((-3.548149e-12 8.294789e-12 -5.469817e-13) (5.227602e-12 -1.120066e-11 -7.953287e-13)) ((-3.459775e-16 -8.064725e-16 -1.767250e-13) (-9.388065e-14 -6.496151e-14 -2.293008e-09))
263.262863    	((-2.450849e-12 8.234192e-12 -4.110212e-13) (4.968731e-12 -1.094125e-11 -8.988369e-13)) ((-3.030531e-16 -7.853375e-16 -1.746192e-13) (-9.493991e-14 -6.543815e-14 -2.214111e-09))
315.927436    	((-2.254424e-12 9.182587e-12 -3.000617e-13) (5.045194e-12 -1.050906e-11 -9.330102e-13)) ((-2.927553e-16 -7.782954e-16 -1.727064e-13) (-9.625410e-14 -6.910294e-14 -2.142385e-09))
379.124923    	((-2.561865e-12 9.530128e-12 -2.321767e-13) (5.052582e-12 -1.003077e-11 -7.944359e-13)) ((-2.672016e-16 -7.149092e-16 -1.710737e-13) (-9.668637e-14 -6.903662e-14 -2.077286e-09))
454.961908    	((-2.261806e-12 1.147533e-11 -1.757266e-13) (4.941678e-12 -9.204427e-12 -7.027355e-13)) ((-2.152777e-16 -7.177303e-16 -1.694351e-13) (-9.173791e-14 -6.835779e-14 -2.018321e-09))
545.966289    	((-2.353982e-12 1.268407e-11 -1.293778e-13) (4.752674e-12 -8.257491e-12 -6.555926e-13)) ((-1.588824e-16 -7.199392e-16 -1.677699e-13) (-8.145197e-14 -6.641800e-14 -1.965048e-09))
655.171547    	((-2.815537e-12 1.318739e-11 -1.774119e-13) (4.284118e-12 -7.753417e-12 -5.842774e-13)) ((-1.030118e-16 -6.779205e-16 -1.661047e-13) (-7.397291e-14 -6.032956e-14 -1.917088e-09))
786.217856    	((-2.303076e-12 1.352283e-11 -4.427074e-13) (3.827730e-12 -7.492119e-12 -5.937292e-13)) ((-6.094886e-17 -6.131963e-16 -1.644396e-13) (-6.830373e-14 -5.562364e-14 -1.874079e-09))
943.473427    	((-2.469797e-12 1.397644e-11 -5.686840e-13) (3.388371e-12 -7.290160e-12 -5.941537e-13)) ((-3.472708e-17 -5.852900e-16 -1.628657e-13) (-6.473324e-14 -4.928829e-14 -1.835663e-09))
1132.180113   	((-1.549943e-12 1.438018e-11 -6.294481e-13) (3.034364e-12 -7.204688e-12 -6.131734e-13)) ((-4.291394e-17 -5.579761e-16 -1.614582e-13) (-6.078344e-14 -4.457195e-14 -1.801502e-09))
1358.628135   	((-1.198207e-12 1.449286e-11 -6.209697e-13) (2.959236e-12 -7.095027e-12 -6.221039e-13)) ((-7.562680e-17 -5.113990e-16 -1.601660e-13) (-5.566793e-14 -4.074633e-14 -1.771278e-09))
1630.365763   	((-8.459512e-13 1.457044e-11 -5.713802e-13) (3.038125e-12 -7.009205e-12 -6.435171e-13)) ((-5.633753e-17 -4.890482e-16 -1.589461e-13) (-4.959978e-14 -3.847046e-14 -1.744685e-09))
1956.450915   	((-3.076118e-13 1.450156e-11 -4.404764e-13) (3.184288e-12 -6.962469e-12 -6.562952e-13)) ((-3.144286e-17 -4.750480e-16 -1.577918e-13) (-4.306763e-14 -3.589328e-14 -1.721408e-09))
2347.753098   	((5.496179e-15 1.429637e-11 -2.202278e-13) (3.343409e-12 -6.870545e-12 -6.770734e-13)) ((-1.686224e-17 -4.798359e-16 -1.567723e-13) (-3.825464e-14 -3.369694e-14 -1.701149e-09))
2817.315718   	((-7.249907e-13 1.433123e-11 3.179332e-14) (3.532437e-12 -6.842125e-12 -7.203737e-13)) ((-2.974152e-17 -4.920625e-16 -1.558654e-13) (-3.414613e-14 -3.152289e-14 -1.683627e-09))
3380.790861   	((-5.027854e-13 1.434232e-11 3.037216e-13) (3.605172e-12 -6.837503e-12 -7.390550e-13)) ((-5.095901e-17 -4.950266e-16 -1.549948e-13) (-3.155794e-14 -2.947255e-14 -1.668569e-09))
4056.961033   	((-4.057135e-13 1.467142e-11 4.454806e-13) (3.596043e-12 -6.719960e-12 -7.374433e-13)) ((-7.933808e-17 -4.776985e-16 -1.543930e-13) (-2.984193e-14 -2.869997e-14 -1.655719e-09))
4868.36524    	((-3.302076e-13 1.468827e-11 5.107630e-13) (3.590583e-12 -6.671022e-12 -7.380933e-13)) ((-1.045439e-16 -4.774682e-16 -1.538701e-13) (-2.740748e-14 -2.795603e-14 -1.644819e-09))
5841.520897   	((-1.970574e-13 1.449797e-11 5.455763e-13) (3.585078e-12 -6.629616e-12 -7.392323e-13)) ((-1.421768e-16 -5.175443e-16 -1.534366e-13) (-2.581036e-14 -2.769985e-14 -1.635636e-09))
6976.439738   	((-2.103438e-13 1.441774e-11 5.671023e-13) (3.545818e-12 -6.569462e-12 -7.297958e-13)) ((-1.628469e-16 -5.345742e-16 -1.530833e-13) (-2.371339e-14 -2.631201e-14 -1.627958e-09))
8273.131821   	((-1.019758e-13 1.448170e-11 5.076635e-13) (3.497179e-12 -6.509265e-12 -7.146361e-13)) ((-1.804412e-16 -5.481202e-16 -1.527913e-13) (-2.160816e-14 -2.464887e-14 -1.621580e-09))
9731.605633   	((6.582668e-14 1.436901e-11 4.211968e-13) (3.429931e-12 -6.456471e-12 -6.909142e-13)) ((-1.978535e-16 -5.535664e-16 -1.525471e-13) (-1.976182e-14 -2.302497e-14 -1.616314e-09))
11349.493629  	((2.655793e-13 1.427347e-11 4.113721e-13) (3.351064e-12 -6.411577e-12 -6.627920e-13)) ((-2.095169e-16 -5.551788e-16 -1.523479e-13) (-1.813692e-14 -2.187372e-14 -1.611988e-09))
12967.440076  	((4.616901e-13 1.418794e-11 4.050372e-13) (3.270042e-12 -6.371217e-12 -6.362510e-13)) ((-2.170357e-16 -5.542687e-16 -1.521896e-13) (-1.677422e-14 -2.117237e-14 -1.608456e-09))
14585.433558  	((5.334447e-13 1.408512e-11 3.140533e-13) (3.194429e-12 -6.322351e-12 -6.175997e-13)) ((-2.206561e-16 -5.509101e-16 -1.520666e-13) (-1.603900e-14 -2.092933e-14 -1.605583e-09))
16203.465583  	((6.733258e-13 1.406725e-11 3.319217e-13) (3.137682e-12 -6.279623e-12 -5.992601e-13)) ((-2.181206e-16 -5.537772e-16 -1.519686e-13) (-1.546529e-14 -2.031235e-14 -1.603255e-09))
17821.528798  	((7.451402e-13 1.406372e-11 3.390865e-13) (3.087011e-12 -6.252940e-12 -5.876795e-13)) ((-2.193146e-16 -5.609459e-16 -1.518862e-13) (-1.487486e-14 -1.985916e-14 -1.601370e-09))
19439.617467  	((7.897684e-13 1.409562e-11 3.457864e-13) (3.045092e-12 -6.230033e-12 -5.788356e-13)) ((-2.207590e-16 -5.680379e-16 -1.518212e-13) (-1.445305e-14 -1.959699e-14 -1.599847e-09))
21057.726761  	((7.971452e-13 1.416200e-11 3.443202e-13) (3.012365e-12 -6.209904e-12 -5.702734e-13)) ((-2.178081e-16 -5.677742e-16 -1.517705e-13) (-1.409929e-14 -1.936590e-14 -1.598617e-09))
22675.852761  	((7.818466e-13 1.423504e-11 3.542666e-13) (2.982617e-12 -6.191952e-12 -5.638706e-13)) ((-2.152795e-16 -5.671312e-16 -1.517309e-13) (-1.382914e-14 -1.916884e-14 -1.597624e-09))
24293.992265  	((7.623682e-13 1.431428e-11 3.578929e-13) (2.957099e-12 -6.176232e-12 -5.599624e-13)) ((-2.130251e-16 -5.664318e-16 -1.517000e-13) (-1.361623e-14 -1.898009e-14 -1.596822e-09))
25912.142707  	((7.389005e-13 1.438490e-11 3.610569e-13) (2.935712e-12 -6.163557e-12 -5.578122e-13)) ((-2.111476e-16 -5.657273e-16 -1.516761e-13) (-1.345809e-14 -1.880138e-14 -1.596175e-09))
27530.302007  	((7.249195e-13 1.444675e-11 3.711142e-13) (2.917954e-12 -6.152841e-12 -5.573787e-13)) ((-2.094690e-16 -5.655194e-16 -1.516577e-13) (-1.332126e-14 -1.862982e-14 -1.595653e-09))
29148.468488  	((7.194681e-13 1.450363e-11 3.792281e-13) (2.902741e-12 -6.143271e-12 -5.571056e-13)) ((-2.080982e-16 -5.660391e-16 -1.516439e-13) (-1.319507e-14 -1.847216e-14 -1.595232e-09))
30766.64078   	((7.069861e-13 1.454050e-11 3.955327e-13) (2.888908e-12 -6.133482e-12 -5.556895e-13)) ((-2.069639e-16 -5.680614e-16 -1.516342e-13) (-1.303193e-14 -1.833256e-14 -1.594892e-09))
32384.817776  	((6.810448e-13 1.455775e-11 4.205658e-13) (2.877702e-12 -6.120509e-12 -5.515094e-13)) ((-2.068926e-16 -5.721032e-16 -1.516290e-13) (-1.269830e-14 -1.831612e-14 -1.594618e-09))
34002.998581  	((6.109371e-13 1.454206e-11 4.873367e-13) (2.866883e-12 -6.099496e-12 -5.444595e-13)) ((-2.073236e-16 -5.815130e-16 -1.516288e-13) (-1.204951e-14 -1.840378e-14 -1.594396e-09))
35621.182468  	((6.262193e-13 1.455252e-11 4.865609e-13) (2.869112e-12 -6.076694e-12 -5.330872e-13)) ((-2.067305e-16 -5.861150e-16 -1.516277e-13) (-1.126935e-14 -1.903350e-14 -1.594217e-09))
37239.368848  	((6.467627e-13 1.455847e-11 4.789836e-13) (2.870212e-12 -6.068547e-12 -5.261650e-13)) ((-2.053926e-16 -5.867633e-16 -1.516255e-13) (-1.099578e-14 -1.941560e-14 -1.594073e-09))
