# Forces      
# CofR        : (0.000000e+00 0.000000e+00 0.000000e+00)
# Time        forces(pressure viscous)	moments(pressure viscous)
0             	((0.000000e+00 0.000000e+00 0.000000e+00) (-9.058109e-14 6.346805e-04 2.427794e-15)) ((0.000000e+00 0.000000e+00 0.000000e+00) (3.126166e-15 1.409799e-16 -2.320292e-10))
0.012         	((5.147089e-08 1.846064e-01 1.735407e-08) (-1.167403e-10 7.272196e-04 -5.244031e-10)) ((6.371444e-11 1.329213e-12 -3.473016e-08) (5.256683e-12 1.652346e-13 -4.437982e-10))
0.0264        	((-1.925649e-06 -1.531990e-02 -7.199873e-07) (-1.118632e-09 7.392858e-04 -9.753827e-10)) ((-6.147285e-11 -1.498789e-11 1.950961e-09) (9.299930e-13 1.541627e-13 -5.361402e-10))
0.04368       	((3.327875e-06 -3.726830e-02 -3.340284e-07) (3.381521e-09 6.544402e-04 -8.405970e-10)) ((-1.310683e-10 2.598128e-11 9.881775e-09) (-2.166221e-11 -5.342762e-13 -3.789190e-10))
0.064416      	((-5.516824e-09 -3.404050e-04 8.009209e-07) (2.106282e-08 5.785054e-04 7.437772e-09)) ((6.311721e-11 1.489607e-11 -1.000919e-09) (2.433497e-11 -2.404400e-12 -2.356487e-10))
0.0892992     	((1.759659e-07 2.606392e-04 3.512634e-07) (2.840368e-08 5.333686e-04 9.616819e-09)) ((7.164697e-12 -1.866294e-11 -5.255021e-10) (4.181431e-11 4.177200e-12 3.455562e-10))
0.119159      	((3.044144e-09 -6.404474e-04 5.147849e-07) (2.485008e-08 4.924091e-04 6.430925e-09)) ((2.607239e-11 -5.184012e-12 5.283721e-10) (1.595525e-11 3.726954e-12 7.157408e-10))
0.154991      	((-1.318992e-07 -2.858803e-04 9.677164e-08) (2.224598e-08 4.498551e-04 5.147218e-09)) ((2.433195e-11 4.198760e-12 3.158749e-10) (4.854901e-11 2.929074e-12 6.638346e-10))
0.197989      	((-1.716181e-08 -5.589862e-05 -7.068624e-08) (1.466190e-08 4.081531e-04 2.869706e-09)) ((1.836510e-11 2.056463e-12 8.526798e-11) (7.375760e-11 6.104608e-12 6.907897e-10))
0.249587      	((-5.283935e-08 2.350000e-05 -5.448004e-08) (-1.825210e-09 3.686256e-04 2.227091e-09)) ((1.272328e-11 5.300253e-12 3.772666e-11) (4.535320e-11 4.018824e-12 9.333536e-10))
0.311504      	((-1.388550e-07 6.296238e-05 -5.113963e-08) (-1.892145e-08 3.323067e-04 2.413730e-09)) ((8.808025e-12 5.281030e-13 1.934591e-11) (1.038139e-11 2.528814e-12 1.049245e-09))
0.385805      	((-1.324311e-07 8.456415e-05 -5.698053e-08) (-2.484224e-08 2.998701e-04 2.497870e-09)) ((5.188082e-12 1.307840e-13 8.235708e-12) (-3.948915e-12 1.251240e-12 9.227489e-10))
0.474966      	((-8.552389e-08 9.513923e-05 -4.408002e-08) (-2.358928e-08 2.714850e-04 2.224257e-09)) ((2.378147e-12 -3.841215e-13 1.199608e-12) (-3.300566e-12 1.270209e-12 7.448904e-10))
0.581959      	((-5.685738e-08 9.923641e-05 -3.008259e-08) (-2.190435e-08 2.465691e-04 1.666478e-09)) ((1.112330e-12 -5.749874e-13 -4.995218e-12) (2.319540e-12 1.015797e-12 6.741101e-10))
0.710351      	((-3.177948e-08 9.908376e-05 -2.506718e-08) (-1.723128e-08 2.239776e-04 8.522432e-10)) ((6.759020e-13 -6.663587e-13 -8.535692e-12) (1.861787e-11 -1.533039e-13 7.449377e-10))
0.864421      	((-3.310729e-09 9.582978e-05 -1.736354e-08) (-1.056305e-08 2.029327e-04 1.226568e-10)) ((4.779094e-13 -4.872729e-13 -5.389457e-12) (2.786784e-11 -3.899810e-13 8.715881e-10))
1.049306      	((-6.408719e-09 9.080629e-05 -1.511584e-08) (-5.499033e-09 1.834142e-04 -3.727601e-10)) ((-1.891414e-14 -1.381560e-13 -2.597516e-12) (3.576255e-11 5.028277e-13 1.019254e-09))
1.271167      	((-7.856776e-09 8.496211e-05 -9.053524e-09) (-3.387656e-09 1.655975e-04 -8.932651e-10)) ((-3.784715e-13 1.132458e-14 -1.810216e-12) (3.644848e-11 9.443947e-13 1.131597e-09))
1.5374        	((-4.994302e-09 7.919121e-05 -8.231744e-09) (-2.765655e-09 1.495556e-04 -1.222598e-09)) ((-6.364285e-13 6.072160e-14 -8.326268e-12) (2.873448e-11 1.127534e-12 1.169611e-09))
1.85688       	((7.027222e-09 7.407542e-05 -6.228284e-09) (-1.370688e-09 1.352863e-04 -1.260421e-09)) ((-6.925205e-13 -3.996424e-15 -1.302910e-11) (1.311359e-11 9.965110e-13 1.108044e-09))
2.240256      	((4.994025e-09 6.983828e-05 -8.063686e-09) (-3.742840e-10 1.227124e-04 -1.200629e-09)) ((-4.067505e-13 -2.405230e-14 -1.690406e-11) (-1.263318e-11 1.290470e-12 1.012499e-09))
2.700307      	((-1.022484e-08 6.660924e-05 -1.129994e-08) (-1.063086e-09 1.116883e-04 -1.046545e-09)) ((-1.077557e-13 -9.378984e-14 -1.951075e-11) (-4.673475e-11 3.085930e-12 9.180943e-10))
3.252369      	((-2.407636e-08 6.450344e-05 -2.326242e-08) (-1.905213e-09 1.020502e-04 -9.266477e-10)) ((2.705411e-13 1.315771e-14 -2.580361e-11) (-8.570026e-11 3.483546e-12 8.442008e-10))
3.914842      	((-3.588021e-08 6.357799e-05 -3.215844e-08) (-1.983433e-09 9.367142e-05 -9.886249e-10)) ((5.875904e-13 1.529522e-13 -3.243022e-11) (-1.197416e-10 2.295050e-12 8.135956e-10))
4.709811      	((-3.579998e-08 6.383227e-05 -3.342937e-08) (-2.144172e-09 8.645443e-05 -1.129806e-09)) ((7.338234e-13 1.594898e-13 -3.958139e-11) (-1.303879e-10 2.125334e-12 7.425029e-10))
5.663773      	((-3.921249e-08 6.548470e-05 -4.380406e-08) (-2.203325e-09 8.030751e-05 -1.438056e-09)) ((8.697444e-13 8.571442e-14 -4.918824e-11) (-1.046356e-10 1.911998e-12 6.776700e-10))
6.808528      	((-2.706834e-08 6.853606e-05 -3.542026e-08) (-9.371581e-10 7.511850e-05 -1.665541e-09)) ((6.817888e-13 6.569587e-14 -6.353041e-11) (-5.566222e-11 1.386199e-12 6.629447e-10))
8.182233      	((-2.112669e-08 7.293434e-05 -3.382553e-08) (1.050815e-09 7.079064e-05 -1.798683e-09)) ((5.424452e-13 1.300558e-14 -8.068813e-11) (3.593831e-12 -7.820008e-15 6.901425e-10))
9.83068       	((-5.653581e-09 7.861209e-05 -2.361342e-08) (2.609925e-09 6.721639e-05 -1.689053e-09)) ((3.165506e-13 -2.587915e-14 -1.020322e-10) (7.067304e-11 -1.474721e-12 8.477673e-10))
11.776614     	((1.357893e-08 8.536092e-05 -6.826690e-09) (3.763877e-09 6.432344e-05 -8.342750e-10)) ((-2.284645e-13 9.926632e-14 -1.245584e-10) (1.269279e-10 -1.911737e-12 1.132690e-09))
14.021248     	((2.632020e-08 9.279919e-05 1.513019e-09) (4.805360e-09 6.205348e-05 4.961177e-10)) ((-7.644482e-13 2.387186e-13 -1.504910e-10) (1.842297e-10 -2.041726e-12 1.349030e-09))
16.564701     	((3.491168e-08 1.004452e-04 6.988984e-09) (6.928797e-09 6.030653e-05 2.076564e-09)) ((-1.206213e-12 3.993516e-13 -1.758897e-10) (2.431735e-10 -2.995675e-12 1.473697e-09))
19.406101     	((4.104387e-08 1.079500e-04 1.506104e-08) (8.129918e-09 5.895289e-05 3.366141e-09)) ((-1.615243e-12 6.015449e-13 -1.971126e-10) (2.841905e-10 -2.594043e-12 1.444626e-09))
22.369906     	((5.164201e-08 1.145576e-04 2.281770e-08) (8.919921e-09 5.790871e-05 3.803837e-09)) ((-1.920535e-12 8.832919e-13 -2.146709e-10) (2.512459e-10 -2.501153e-12 1.313774e-09))
25.318518     	((5.997800e-08 1.199235e-04 2.907633e-08) (9.854324e-09 5.706679e-05 3.584515e-09)) ((-1.873625e-12 1.268114e-12 -2.288676e-10) (1.849690e-10 -2.057193e-12 1.131332e-09))
28.261469     	((6.661689e-08 1.237871e-04 3.281496e-08) (9.930782e-09 5.629795e-05 2.671718e-09)) ((-1.985647e-12 1.609731e-12 -2.417856e-10) (8.784003e-11 -3.143174e-12 1.042022e-09))
31.212222     	((6.509773e-08 1.261635e-04 3.757144e-08) (9.860182e-09 5.558089e-05 1.543185e-09)) ((-2.103652e-12 1.900220e-12 -2.520692e-10) (-3.975891e-11 -3.178800e-12 1.015166e-09))
34.178716     	((5.231778e-08 1.272529e-04 3.179956e-08) (7.893742e-09 5.493293e-05 4.335330e-10)) ((-1.729546e-12 2.131724e-12 -2.600961e-10) (-1.745800e-10 -3.410011e-12 1.124698e-09))
37.162272     	((3.728024e-08 1.273847e-04 2.532533e-08) (4.557797e-09 5.431871e-05 -1.161348e-09)) ((-1.352549e-12 2.142062e-12 -2.652280e-10) (-3.000082e-10 -3.527683e-12 1.306401e-09))
40.157561     	((3.367209e-08 1.271772e-04 2.783148e-08) (2.409231e-09 5.373802e-05 -2.915729e-09)) ((-1.255179e-12 2.185953e-12 -2.684086e-10) (-4.314944e-10 -3.438879e-12 1.454319e-09))
43.157095     	((5.240942e-08 1.264199e-04 4.443904e-08) (1.432590e-09 5.319927e-05 -3.781878e-09)) ((-1.231881e-12 2.268369e-12 -2.693137e-10) (-5.562296e-10 -4.092212e-12 1.577865e-09))
46.161829     	((7.222916e-08 1.256451e-04 5.811383e-08) (2.033384e-09 5.270063e-05 -3.845909e-09)) ((-9.928571e-13 2.249660e-12 -2.694824e-10) (-6.505777e-10 -4.332834e-12 1.661599e-09))
49.17401      	((7.899884e-08 1.247628e-04 5.853134e-08) (2.504578e-09 5.224014e-05 -3.833295e-09)) ((-8.726673e-13 2.168884e-12 -2.694474e-10) (-7.160218e-10 -4.033837e-12 1.742192e-09))
52.194196     	((8.272336e-08 1.239353e-04 5.456534e-08) (2.570612e-09 5.181705e-05 -4.169828e-09)) ((-8.059791e-13 2.117357e-12 -2.695061e-10) (-7.528642e-10 -3.460056e-12 1.788992e-09))
55.223247     	((9.237221e-08 1.232578e-04 5.872204e-08) (2.879363e-09 5.143066e-05 -4.244268e-09)) ((-7.615692e-13 2.064937e-12 -2.699449e-10) (-7.756474e-10 -2.995119e-12 1.799416e-09))
58.261756     	((1.082671e-07 1.227099e-04 5.794610e-08) (3.790363e-09 5.107778e-05 -3.979302e-09)) ((-6.392382e-13 2.025141e-12 -2.707680e-10) (-7.770723e-10 -2.213559e-12 1.811920e-09))
61.30927      	((1.305050e-07 1.221937e-04 6.399502e-08) (5.396427e-09 5.075241e-05 -3.325119e-09)) ((-6.911113e-13 2.005775e-12 -2.716443e-10) (-7.611724e-10 -2.203152e-12 1.833267e-09))
64.365411     	((1.556963e-07 1.217018e-04 6.845606e-08) (7.591337e-09 5.045107e-05 -2.336224e-09)) ((-7.140409e-13 2.138086e-12 -2.725021e-10) (-7.292070e-10 -3.117766e-12 1.838153e-09))
67.429832     	((1.787632e-07 1.211793e-04 7.027912e-08) (1.018976e-08 5.017000e-05 -1.268590e-09)) ((-8.003702e-13 2.234057e-12 -2.731192e-10) (-6.843790e-10 -4.164302e-12 1.830657e-09))
70.50218      	((2.177978e-07 1.207200e-04 8.320967e-08) (1.372269e-08 4.991028e-05 3.861041e-10)) ((-1.062702e-12 2.356754e-12 -2.736224e-10) (-6.291416e-10 -4.238298e-12 1.816415e-09))
73.582166     	((2.481700e-07 1.202712e-04 9.721323e-08) (1.801481e-08 4.967171e-05 2.615804e-09)) ((-1.329669e-12 2.468205e-12 -2.740201e-10) (-5.681758e-10 -3.847331e-12 1.784614e-09))
76.669497     	((2.762743e-07 1.197878e-04 1.036584e-07) (2.223242e-08 4.944930e-05 4.707203e-09)) ((-1.392818e-12 2.572465e-12 -2.743395e-10) (-5.086568e-10 -3.792410e-12 1.743771e-09))
79.763927     	((3.040645e-07 1.193815e-04 1.040076e-07) (2.674041e-08 4.924428e-05 6.390040e-09)) ((-1.410836e-12 2.602178e-12 -2.745826e-10) (-4.498496e-10 -3.336860e-12 1.695798e-09))
82.865235     	((3.315498e-07 1.189492e-04 1.069909e-07) (3.163018e-08 4.905385e-05 7.987090e-09)) ((-1.528561e-12 2.610207e-12 -2.747112e-10) (-3.894437e-10 -2.736298e-12 1.637109e-09))
85.973308     	((3.565079e-07 1.184823e-04 1.091650e-07) (3.640676e-08 4.887251e-05 9.597852e-09)) ((-1.644439e-12 2.635000e-12 -2.747623e-10) (-3.269900e-10 -2.957585e-12 1.583214e-09))
89.087861     	((3.752672e-07 1.180533e-04 1.082014e-07) (4.064138e-08 4.870010e-05 1.088135e-08)) ((-1.665787e-12 2.607884e-12 -2.748388e-10) (-2.754270e-10 -3.230840e-12 1.535050e-09))
92.208045     	((4.063452e-07 1.177122e-04 1.125113e-07) (4.482874e-08 4.854014e-05 1.197176e-08)) ((-1.794327e-12 2.504802e-12 -2.748352e-10) (-2.348388e-10 -4.670492e-12 1.484267e-09))
95.331365     	((4.538741e-07 1.173348e-04 1.232181e-07) (4.973267e-08 4.838985e-05 1.328441e-08)) ((-2.016061e-12 2.324126e-12 -2.747105e-10) (-2.018907e-10 -6.677728e-12 1.440602e-09))
98.457867     	((5.037186e-07 1.169802e-04 1.412950e-07) (5.509408e-08 4.824719e-05 1.491777e-08)) ((-2.292277e-12 2.092659e-12 -2.746593e-10) (-1.794067e-10 -8.290283e-12 1.408783e-09))
101.587433    	((5.560356e-07 1.166404e-04 1.586152e-07) (6.063592e-08 4.811094e-05 1.664974e-08)) ((-2.473296e-12 1.867322e-12 -2.747099e-10) (-1.696562e-10 -8.830468e-12 1.398342e-09))
104.720052    	((6.185298e-07 1.163017e-04 1.803462e-07) (6.659676e-08 4.797943e-05 1.852120e-08)) ((-2.670750e-12 1.645185e-12 -2.747820e-10) (-1.729294e-10 -8.681037e-12 1.407002e-09))
107.855758    	((6.854937e-07 1.159577e-04 2.012701e-07) (7.287925e-08 4.785197e-05 2.044273e-08)) ((-2.834738e-12 1.451950e-12 -2.748480e-10) (-1.904439e-10 -8.290083e-12 1.439070e-09))
110.994479    	((7.600919e-07 1.156180e-04 2.268290e-07) (7.947936e-08 4.772877e-05 2.234017e-08)) ((-3.031198e-12 1.292130e-12 -2.749130e-10) (-2.293762e-10 -7.990635e-12 1.494961e-09))
114.136107    	((8.498692e-07 1.153059e-04 2.571243e-07) (8.688696e-08 4.761109e-05 2.438740e-08)) ((-3.249365e-12 1.213267e-12 -2.749647e-10) (-2.890999e-10 -6.779817e-12 1.575411e-09))
117.280681    	((9.587881e-07 1.149977e-04 2.916526e-07) (9.560470e-08 4.749851e-05 2.666991e-08)) ((-3.482348e-12 1.176572e-12 -2.750158e-10) (-3.635487e-10 -5.380350e-12 1.683169e-09))
120.428407    	((1.083001e-06 1.147347e-04 3.305613e-07) (1.057725e-07 4.739196e-05 2.926388e-08)) ((-3.727235e-12 1.166469e-12 -2.751417e-10) (-4.506144e-10 -4.432858e-12 1.821091e-09))
123.579415    	((1.221951e-06 1.144944e-04 3.734157e-07) (1.172693e-07 4.729199e-05 3.228152e-08)) ((-3.997804e-12 1.213750e-12 -2.752246e-10) (-5.497762e-10 -4.159889e-12 1.995139e-09))
126.733686    	((1.371917e-06 1.142650e-04 4.193189e-07) (1.299282e-07 4.719805e-05 3.571095e-08)) ((-4.248889e-12 1.267087e-12 -2.752711e-10) (-6.579925e-10 -4.360787e-12 2.207483e-09))
129.891161    	((1.540795e-06 1.140408e-04 4.699056e-07) (1.442324e-07 4.710939e-05 3.969990e-08)) ((-4.568150e-12 1.327567e-12 -2.752593e-10) (-7.679418e-10 -4.215581e-12 2.455058e-09))
133.051778    	((1.719374e-06 1.138132e-04 5.192568e-07) (1.601722e-07 4.702493e-05 4.412885e-08)) ((-4.852338e-12 1.394109e-12 -2.751984e-10) (-8.729681e-10 -3.508083e-12 2.728399e-09))
136.215498    	((1.898306e-06 1.135728e-04 5.692841e-07) (1.773059e-07 4.694349e-05 4.897410e-08)) ((-5.138860e-12 1.449650e-12 -2.751126e-10) (-9.690609e-10 -2.451603e-12 3.017663e-09))
139.382282    	((2.090488e-06 1.133304e-04 6.170343e-07) (1.957698e-07 4.686446e-05 5.413271e-08)) ((-5.397102e-12 1.485047e-12 -2.750313e-10) (-1.053043e-09 -1.557204e-12 3.317582e-09))
142.55206     	((2.296099e-06 1.130996e-04 6.659631e-07) (2.158854e-07 4.678784e-05 5.959565e-08)) ((-5.658872e-12 1.467440e-12 -2.749705e-10) (-1.124294e-09 -5.861603e-13 3.619510e-09))
145.724745    	((2.519052e-06 1.128836e-04 7.158867e-07) (2.380175e-07 4.671365e-05 6.546857e-08)) ((-5.909810e-12 1.398358e-12 -2.749548e-10) (-1.183198e-09 6.039649e-13 3.919851e-09))
148.900275    	((2.754431e-06 1.126904e-04 7.648022e-07) (2.621514e-07 4.664225e-05 7.166853e-08)) ((-6.157232e-12 1.326351e-12 -2.749703e-10) (-1.230097e-09 3.433463e-12 4.216289e-09))
152.078493    	((3.005373e-06 1.125135e-04 8.150058e-07) (2.883128e-07 4.657387e-05 7.818342e-08)) ((-6.455507e-12 1.226249e-12 -2.749955e-10) (-1.264806e-09 7.548771e-12 4.508798e-09))
155.259333    	((3.271907e-06 1.123500e-04 8.686215e-07) (3.165977e-07 4.650846e-05 8.512224e-08)) ((-6.808115e-12 1.111325e-12 -2.750108e-10) (-1.284264e-09 1.132270e-11 4.800256e-09))
158.442737    	((3.560528e-06 1.122029e-04 9.281339e-07) (3.472420e-07 4.644618e-05 9.263189e-08)) ((-7.216848e-12 9.704555e-13 -2.750239e-10) (-1.293360e-09 1.451986e-11 5.096859e-09))
161.628693    	((3.876867e-06 1.120710e-04 9.947405e-07) (3.806011e-07 4.638732e-05 1.008350e-07)) ((-7.725316e-12 8.395308e-13 -2.750409e-10) (-1.298736e-09 1.648601e-11 5.406931e-09))
164.817174    	((4.225481e-06 1.119499e-04 1.069024e-06) (4.170368e-07 4.633206e-05 1.097779e-07)) ((-8.316851e-12 6.875003e-13 -2.750638e-10) (-1.306214e-09 1.852375e-11 5.738971e-09))
168.00815     	((4.610325e-06 1.118352e-04 1.155514e-06) (4.568492e-07 4.628027e-05 1.195832e-07)) ((-9.044822e-12 5.329288e-13 -2.750614e-10) (-1.323167e-09 2.177665e-11 6.106081e-09))
171.200836    	((5.039678e-06 1.117223e-04 1.256238e-06) (5.005422e-07 4.623153e-05 1.304552e-07)) ((-9.886058e-12 3.989957e-13 -2.750124e-10) (-1.357085e-09 2.462192e-11 6.518869e-09))
174.394214    	((5.522318e-06 1.116170e-04 1.373769e-06) (5.490583e-07 4.618556e-05 1.425782e-07)) ((-1.083642e-11 3.130036e-13 -2.749318e-10) (-1.413903e-09 2.668086e-11 6.975926e-09))
177.588113    	((6.063301e-06 1.115146e-04 1.513229e-06) (6.033706e-07 4.614210e-05 1.562307e-07)) ((-1.192960e-11 2.507038e-13 -2.748318e-10) (-1.500809e-09 2.846763e-11 7.470540e-09))
180.782345    	((6.671516e-06 1.114175e-04 1.675402e-06) (6.643865e-07 4.610113e-05 1.717791e-07)) ((-1.317392e-11 1.958912e-13 -2.747081e-10) (-1.620066e-09 3.184725e-11 8.007869e-09))
183.976705    	((7.356107e-06 1.113221e-04 1.864659e-06) (7.328332e-07 4.606266e-05 1.895711e-07)) ((-1.462258e-11 1.376086e-13 -2.745391e-10) (-1.780464e-09 3.876499e-11 8.611730e-09))
187.170971    	((8.127113e-06 1.112292e-04 2.083657e-06) (8.095368e-07 4.602672e-05 2.097630e-07)) ((-1.626544e-11 6.292360e-14 -2.743356e-10) (-1.995732e-09 4.747208e-11 9.305057e-09))
190.364899    	((8.984931e-06 1.111498e-04 2.330165e-06) (8.952970e-07 4.599392e-05 2.324412e-07)) ((-1.798113e-11 -2.014723e-14 -2.741246e-10) (-2.267997e-09 5.483997e-11 1.008904e-08))
193.558226    	((9.940301e-06 1.110857e-04 2.601209e-06) (9.910891e-07 4.596452e-05 2.575738e-07)) ((-1.973848e-11 -1.099247e-13 -2.739157e-10) (-2.599523e-09 5.862106e-11 1.096038e-08))
196.750676    	((1.099505e-05 1.110323e-04 2.901726e-06) (1.097799e-06 4.593855e-05 2.855080e-07)) ((-2.158310e-11 -1.866169e-13 -2.736449e-10) (-2.989335e-09 5.950003e-11 1.192263e-08))
199.94196     	((1.214988e-05 1.109970e-04 3.229738e-06) (1.215741e-06 4.591618e-05 3.165400e-07)) ((-2.353840e-11 -3.527567e-13 -2.733235e-10) (-3.428091e-09 5.969995e-11 1.299165e-08))
203.131778    	((1.341242e-05 1.109802e-04 3.585815e-06) (1.345583e-06 4.589730e-05 3.508014e-07)) ((-2.562229e-11 -6.698109e-13 -2.729613e-10) (-3.903558e-09 5.944422e-11 1.416390e-08))
206.319824    	((1.479302e-05 1.109860e-04 3.970895e-06) (1.488361e-06 4.588200e-05 3.884862e-07)) ((-2.779639e-11 -1.187096e-12 -2.725969e-10) (-4.409639e-09 5.303581e-11 1.544074e-08))
209.505794    	((1.629733e-05 1.110182e-04 4.382913e-06) (1.645107e-06 4.587055e-05 4.299305e-07)) ((-3.003707e-11 -1.868143e-12 -2.721959e-10) (-4.924144e-09 3.927076e-11 1.682297e-08))
212.689378    	((1.793802e-05 1.110774e-04 4.822921e-06) (1.817065e-06 4.586362e-05 4.754633e-07)) ((-3.242303e-11 -2.714328e-12 -2.717413e-10) (-5.433813e-09 2.401789e-11 1.830772e-08))
215.870239    	((1.972356e-05 1.111724e-04 5.291972e-06) (2.004979e-06 4.586113e-05 5.250400e-07)) ((-3.497446e-11 -3.743402e-12 -2.712295e-10) (-5.937124e-09 1.016658e-11 1.992463e-08))
219.048032    	((2.166969e-05 1.113067e-04 5.791963e-06) (2.209949e-06 4.586267e-05 5.789562e-07)) ((-3.763490e-11 -4.949306e-12 -2.706375e-10) (-6.434357e-09 6.344575e-12 2.170323e-08))
222.222413    	((2.377335e-05 1.114919e-04 6.324854e-06) (2.432803e-06 4.586915e-05 6.372697e-07)) ((-4.046230e-11 -6.416982e-12 -2.699928e-10) (-6.937611e-09 1.208100e-11 2.366244e-08))
225.392995    	((2.605690e-05 1.117399e-04 6.896015e-06) (2.675869e-06 4.588204e-05 7.004200e-07)) ((-4.345079e-11 -8.177643e-12 -2.693667e-10) (-7.448682e-09 1.994328e-11 2.576393e-08))
