# Forces      
# CofR        : (0.000000e+00 0.000000e+00 0.000000e+00)
# Time        forces(pressure viscous)	moments(pressure viscous)
0             	((0.000000e+00 0.000000e+00 0.000000e+00) (0.000000e+00 0.000000e+00 0.000000e+00)) ((0.000000e+00 0.000000e+00 0.000000e+00) (0.000000e+00 0.000000e+00 0.000000e+00))
0.012         	((-8.988268e-12 2.260894e-09 4.647909e-12) (-8.658259e-15 5.740141e-11 -1.895625e-13)) ((-5.959388e-16 4.248571e-16 -5.141713e-11) (2.458739e-16 -4.666961e-15 -7.001450e-08))
0.0264        	((-2.863962e-11 3.310503e-10 -9.824507e-15) (-7.257715e-14 8.477434e-11 -3.436919e-13)) ((4.497777e-16 -4.496474e-15 -2.356817e-11) (6.463698e-17 -1.296372e-14 -6.413426e-08))
0.04368       	((-2.065386e-11 1.052748e-09 1.665691e-11) (-9.923243e-14 8.930569e-11 -4.923989e-13)) ((-8.953343e-16 -5.456722e-15 -1.283075e-11) (-3.638911e-17 -2.320222e-14 -5.808734e-08))
0.064416      	((-3.418387e-11 -1.492405e-10 -1.466284e-11) (-1.117582e-13 7.710067e-11 -8.069779e-13)) ((2.949309e-16 -2.886816e-15 -6.886979e-12) (-1.425110e-15 -3.631488e-14 -5.200756e-08))
0.0892992     	((1.907871e-11 4.673885e-10 1.292655e-11) (-1.058903e-13 6.411945e-11 -1.228008e-12)) ((-1.369209e-15 -7.482055e-15 -5.153838e-12) (-4.411036e-15 -5.277317e-14 -4.607311e-08))
0.119159      	((-1.175696e-11 -8.448075e-11 2.142655e-12) (-1.015878e-13 5.215418e-11 -1.453023e-12)) ((7.201468e-17 -5.448385e-15 -3.843557e-12) (-5.815779e-15 -6.163260e-14 -4.046801e-08))
0.154991      	((6.725365e-12 2.306924e-10 -3.997143e-12) (-1.067783e-13 4.712342e-11 -1.498888e-12)) ((-6.347983e-16 -4.109325e-15 -3.134407e-12) (-7.285610e-15 -6.422159e-14 -3.532164e-08))
0.197989      	((-2.111661e-12 7.150021e-11 -5.676143e-13) (-3.445537e-14 4.092757e-11 -1.476178e-12)) ((-1.143155e-15 -3.571649e-15 -2.565793e-12) (-9.423360e-15 -6.434005e-14 -3.075888e-08))
0.249587      	((7.182106e-12 1.844772e-10 5.346555e-12) (3.554559e-14 3.618298e-11 -1.516263e-12)) ((-8.852103e-16 -3.981459e-15 -2.112376e-12) (-9.803086e-15 -6.161435e-14 -2.684774e-08))
0.311504      	((-3.329232e-12 1.073344e-10 2.452800e-12) (4.587977e-14 3.287122e-11 -1.669523e-12)) ((-5.390316e-16 -2.482307e-15 -1.716922e-12) (-8.084295e-15 -5.917922e-14 -2.357875e-08))
0.385805      	((-1.150462e-11 8.367671e-11 -6.668884e-13) (2.643351e-14 3.131281e-11 -1.843496e-12)) ((-2.274459e-16 -9.656997e-16 -1.411798e-12) (-2.909675e-15 -5.975377e-14 -2.088130e-08))
0.474966      	((-2.255249e-11 8.427037e-11 2.540162e-12) (-6.931147e-14 3.126705e-11 -1.894306e-12)) ((-3.644681e-18 -5.647328e-16 -1.205107e-12) (-8.211481e-16 -5.917317e-14 -1.864928e-08))
0.581959      	((-1.805537e-11 5.868038e-11 2.482764e-12) (1.543806e-13 2.868812e-11 -1.477273e-12)) ((-1.191141e-16 7.249995e-16 -1.022873e-12) (-2.117349e-15 -3.985235e-14 -1.677270e-08))
0.710351      	((-2.903140e-11 4.418851e-11 -1.661917e-12) (4.611397e-13 2.445745e-11 -8.075509e-13)) ((5.161217e-16 1.353728e-15 -8.478456e-13) (-1.618657e-15 -7.656509e-15 -1.516047e-08))
0.864421      	((-2.626140e-11 7.832803e-11 -3.867589e-12) (4.084784e-13 2.373501e-11 -3.484089e-13)) ((1.002230e-15 3.027908e-15 -7.258852e-13) (3.284027e-15 2.092707e-14 -1.374831e-08))
1.049306      	((-2.797341e-11 1.216231e-10 -2.858741e-12) (5.986893e-13 2.243869e-11 1.258697e-13)) ((1.133220e-15 3.883256e-15 -6.537529e-13) (-4.396059e-15 3.578896e-14 -1.249351e-08))
1.271167      	((-3.326557e-11 1.366697e-10 -3.045670e-13) (6.080317e-13 2.009774e-11 7.988817e-13)) ((7.793112e-16 3.899929e-15 -5.968973e-13) (-2.461519e-14 3.844566e-14 -1.136704e-08))
1.5374        	((-3.844108e-11 1.475905e-10 -1.508805e-12) (1.553187e-12 2.127150e-11 1.438540e-12)) ((8.968837e-16 5.646142e-15 -5.507040e-13) (-5.360282e-14 2.365271e-14 -1.035040e-08))
1.85688       	((-4.604204e-11 2.015909e-10 -5.718762e-12) (3.624465e-12 2.426808e-11 1.287052e-12)) ((1.087569e-15 6.040018e-15 -5.146629e-13) (-9.593906e-14 -2.611874e-14 -9.433324e-09))
2.240256      	((-3.610890e-11 1.390017e-10 -2.405862e-13) (6.001175e-12 2.215305e-11 1.029357e-12)) ((1.145460e-15 6.467833e-15 -5.009346e-13) (-1.598068e-13 -1.028136e-13 -8.610638e-09))
2.700307      	((-3.532423e-11 8.444211e-11 5.962927e-13) (9.479116e-12 1.524008e-11 1.457526e-12)) ((8.996354e-16 6.588829e-15 -4.852799e-13) (-2.503654e-13 -1.912837e-13 -7.878634e-09))
3.252369      	((-2.785378e-11 6.066996e-11 4.247836e-13) (1.372132e-11 9.065824e-12 2.296319e-12)) ((4.680969e-16 6.169934e-15 -4.604865e-13) (-3.445158e-13 -2.570868e-13 -7.232073e-09))
3.914842      	((-1.928401e-11 3.751577e-11 2.708668e-12) (1.832118e-11 3.841570e-12 2.188140e-12)) ((8.561572e-16 4.974070e-15 -4.242874e-13) (-4.058567e-13 -3.325656e-13 -6.662963e-09))
4.709811      	((-2.844082e-12 2.306136e-11 2.636850e-12) (2.228081e-11 -3.683103e-12 1.255070e-12)) ((3.405173e-16 3.682692e-15 -3.821557e-13) (-4.324362e-13 -3.837886e-13 -6.161325e-09))
5.663773      	((5.303549e-12 -7.851519e-12 2.332324e-13) (2.472155e-11 -1.333307e-11 1.431222e-13)) ((-5.106938e-16 2.545058e-15 -3.445921e-13) (-4.361663e-13 -4.100954e-13 -5.715712e-09))
6.808528      	((9.250735e-12 -6.724687e-12 5.673352e-13) (2.517944e-11 -1.720282e-11 -2.037463e-13)) ((-6.477743e-16 1.259707e-15 -3.098635e-13) (-4.149391e-13 -3.888208e-13 -5.315006e-09))
8.182233      	((1.030131e-11 -1.969515e-11 -1.938284e-12) (2.319312e-11 -1.541663e-11 -1.522699e-13)) ((-7.653402e-16 6.807429e-16 -2.793860e-13) (-3.553348e-13 -3.218041e-13 -4.950868e-09))
9.83068       	((9.801582e-12 -7.830197e-12 1.208756e-12) (1.987146e-11 -1.117988e-11 -2.908813e-13)) ((-1.246504e-15 -3.979687e-16 -2.550337e-13) (-2.784953e-13 -2.618050e-13 -4.617493e-09))
11.808816     	((1.586543e-12 7.764251e-12 -3.758307e-13) (1.560686e-11 -5.422235e-12 1.240095e-13)) ((-1.165181e-15 -8.365033e-16 -2.341370e-13) (-2.109340e-13 -1.837192e-13 -4.310912e-09))
14.182579     	((-1.851297e-12 5.706946e-12 -4.431559e-14) (1.107259e-11 -1.956755e-12 -2.552547e-13)) ((-1.114207e-15 -1.666765e-15 -2.178764e-13) (-1.491873e-13 -1.363677e-13 -4.028557e-09))
17.031095     	((-8.592285e-13 3.823310e-12 7.614658e-13) (7.189606e-12 -1.933193e-13 -5.807122e-13)) ((-9.686239e-16 -1.896422e-15 -2.053122e-13) (-1.014064e-13 -9.750628e-14 -3.768943e-09))
20.449314     	((-2.480588e-12 7.818708e-12 -3.780998e-14) (4.647535e-12 1.117631e-12 -2.032709e-13)) ((-7.002097e-16 -2.076077e-15 -1.951666e-13) (-7.332986e-14 -5.178736e-14 -3.531064e-09))
24.551176     	((1.476357e-13 1.131582e-11 -1.277183e-13) (3.240538e-12 7.462189e-13 1.080034e-13)) ((-5.582300e-16 -1.937309e-15 -1.858354e-13) (-5.609299e-14 -3.198634e-14 -3.313711e-09))
29.473411     	((-8.301157e-13 1.172883e-11 -1.542692e-13) (2.614805e-12 -7.003754e-13 2.075591e-13)) ((-4.742967e-16 -1.675480e-15 -1.784214e-13) (-4.731105e-14 -2.573723e-14 -3.115475e-09))
35.380094     	((-2.026579e-12 1.214078e-11 4.570068e-14) (2.413280e-12 -2.146011e-12 2.845219e-14)) ((-4.513403e-16 -1.639795e-15 -1.715178e-13) (-4.275650e-14 -3.342019e-14 -2.934595e-09))
42.468112     	((-2.100085e-12 1.040141e-11 -3.362115e-13) (2.540230e-12 -3.563447e-12 -1.275139e-13)) ((-4.924621e-16 -1.467629e-15 -1.662142e-13) (-4.486070e-14 -4.117086e-14 -2.769500e-09))
50.973735     	((-2.123151e-12 1.066866e-11 2.417207e-13) (2.999958e-12 -5.212062e-12 -9.298484e-16)) ((-5.825175e-16 -1.482735e-15 -1.610128e-13) (-5.481513e-14 -4.643665e-14 -2.618950e-09))
61.180482     	((-4.522342e-12 1.006938e-11 -9.288937e-14) (3.438406e-12 -6.676947e-12 2.136497e-13)) ((-4.972176e-16 -1.412898e-15 -1.569884e-13) (-6.416927e-14 -4.719556e-14 -2.481876e-09))
73.428578     	((-2.757291e-12 9.446400e-12 -1.221260e-13) (4.209923e-12 -7.604343e-12 2.515409e-13)) ((-4.445356e-16 -1.254149e-15 -1.543473e-13) (-7.331661e-14 -5.291821e-14 -2.357324e-09))
88.126294     	((-4.055648e-12 7.507475e-12 1.460212e-13) (4.816901e-12 -8.424419e-12 2.094979e-13)) ((-3.754109e-16 -1.063253e-15 -1.518283e-13) (-7.918553e-14 -6.164178e-14 -2.244352e-09))
105.763553    	((-3.769162e-12 7.575314e-12 6.963833e-14) (4.978934e-12 -9.021878e-12 9.786156e-14)) ((-3.137988e-16 -9.089268e-16 -1.491307e-13) (-8.255219e-14 -6.840612e-14 -2.142040e-09))
126.928263    	((-3.293608e-12 7.180136e-12 -4.738554e-14) (4.747790e-12 -9.224086e-12 -4.474708e-14)) ((-3.108135e-16 -8.088875e-16 -1.466794e-13) (-8.409556e-14 -6.789439e-14 -2.049512e-09))
152.325916    	((-1.995718e-12 7.442942e-12 1.543124e-14) (4.492265e-12 -9.184688e-12 -2.723077e-13)) ((-3.166173e-16 -7.310235e-16 -1.444213e-13) (-7.979292e-14 -6.472545e-14 -1.965805e-09))
182.803099    	((-1.848467e-12 7.796385e-12 -4.408598e-14) (4.244264e-12 -9.140555e-12 -4.707103e-13)) ((-2.922584e-16 -6.068777e-16 -1.423408e-13) (-7.538768e-14 -5.947304e-14 -1.889944e-09))
219.375719    	((-1.753183e-12 7.526966e-12 -3.932961e-13) (4.070996e-12 -9.220710e-12 -5.547547e-13)) ((-2.574882e-16 -6.076290e-16 -1.405657e-13) (-7.517865e-14 -5.416885e-14 -1.821049e-09))
263.262863    	((-1.194241e-12 7.465512e-12 -3.025313e-13) (3.853941e-12 -9.159788e-12 -6.387997e-13)) ((-2.252112e-16 -5.919251e-16 -1.388955e-13) (-7.595736e-14 -5.400407e-14 -1.758405e-09))
315.927436    	((-4.108579e-13 8.032635e-12 -1.877598e-13) (3.907588e-12 -8.843195e-12 -6.509232e-13)) ((-2.215848e-16 -5.813670e-16 -1.373430e-13) (-7.780920e-14 -5.642251e-14 -1.701442e-09))
379.124923    	((-6.431030e-13 7.817011e-12 -1.758560e-13) (3.929745e-12 -8.545597e-12 -5.439621e-13)) ((-1.798292e-16 -5.259074e-16 -1.360390e-13) (-7.985895e-14 -5.624293e-14 -1.649723e-09))
454.961908    	((-7.424010e-13 8.966918e-12 -1.944497e-13) (4.018992e-12 -8.026574e-12 -4.570836e-13)) ((-1.383730e-16 -5.160797e-16 -1.347498e-13) (-7.700057e-14 -5.451663e-14 -1.602866e-09))
545.966289    	((-8.423083e-13 1.021576e-11 -1.011050e-13) (3.942480e-12 -7.364688e-12 -4.176421e-13)) ((-1.167346e-16 -4.965897e-16 -1.334632e-13) (-7.098975e-14 -5.329707e-14 -1.560528e-09))
655.171547    	((-9.288112e-13 1.044987e-11 -1.511296e-13) (3.738823e-12 -6.818437e-12 -3.829520e-13)) ((-1.022431e-16 -4.756505e-16 -1.321974e-13) (-6.462160e-14 -5.060527e-14 -1.522400e-09))
786.217856    	((-7.070275e-13 1.025397e-11 -1.702917e-13) (3.431383e-12 -6.498341e-12 -3.868304e-13)) ((-7.165265e-17 -4.559311e-16 -1.309277e-13) (-6.045302e-14 -4.775648e-14 -1.488197e-09))
943.473427    	((-2.300690e-13 1.033969e-11 -3.323175e-13) (2.974847e-12 -6.319979e-12 -3.940846e-13)) ((-4.624184e-17 -4.231164e-16 -1.297170e-13) (-5.727404e-14 -4.297060e-14 -1.457650e-09))
1132.180113   	((-9.006981e-14 1.089713e-11 -3.917795e-13) (2.585339e-12 -6.205137e-12 -4.073844e-13)) ((-4.414908e-17 -4.058427e-16 -1.286012e-13) (-5.486070e-14 -3.912902e-14 -1.430489e-09))
1358.628135   	((-1.099342e-12 1.119605e-11 -3.512801e-13) (2.415947e-12 -6.049293e-12 -4.275780e-13)) ((-6.196843e-17 -3.847904e-16 -1.275654e-13) (-5.049656e-14 -3.669929e-14 -1.406457e-09))
1630.365763   	((-7.689918e-13 1.156968e-11 -3.051356e-13) (2.345996e-12 -5.878162e-12 -4.360454e-13)) ((-6.011627e-17 -3.702439e-16 -1.266669e-13) (-4.663192e-14 -3.473067e-14 -1.385316e-09))
1956.450915   	((-2.655112e-14 1.174410e-11 -2.659988e-13) (2.286869e-12 -5.727265e-12 -4.542537e-13)) ((-5.591822e-17 -3.722994e-16 -1.258435e-13) (-4.206105e-14 -3.327781e-14 -1.366821e-09))
2347.753098   	((4.551629e-13 1.188839e-11 -2.635077e-13) (2.252372e-12 -5.565576e-12 -4.744166e-13)) ((-5.332949e-17 -3.756743e-16 -1.251094e-13) (-3.755628e-14 -3.171076e-14 -1.350734e-09))
2817.315718   	((6.532225e-13 1.202383e-11 -2.915979e-13) (2.264857e-12 -5.413948e-12 -4.934070e-13)) ((-4.339434e-17 -3.834422e-16 -1.244466e-13) (-3.284261e-14 -3.019312e-14 -1.336818e-09))
3380.790861   	((6.766182e-13 1.211346e-11 -1.252737e-13) (2.278248e-12 -5.304065e-12 -5.154429e-13)) ((-4.036133e-17 -3.929476e-16 -1.238740e-13) (-2.864051e-14 -2.776504e-14 -1.324856e-09))
4056.961033   	((3.415249e-13 1.234176e-11 2.000806e-13) (2.291752e-12 -5.300910e-12 -4.958118e-13)) ((-4.632607e-17 -3.997744e-16 -1.233357e-13) (-2.614728e-14 -2.547840e-14 -1.314645e-09))
4868.36524    	((3.393252e-13 1.258649e-11 4.136082e-13) (2.278865e-12 -5.304726e-12 -4.635861e-13)) ((-5.485019e-17 -3.829028e-16 -1.229050e-13) (-2.418555e-14 -2.408046e-14 -1.305987e-09))
5842.050288   	((3.682507e-13 1.293357e-11 5.806815e-13) (2.228918e-12 -5.288580e-12 -4.481041e-13)) ((-4.301282e-17 -3.857942e-16 -1.225247e-13) (-2.251060e-14 -2.298300e-14 -1.298695e-09))
7010.472346   	((3.582930e-13 1.288488e-11 5.358929e-13) (2.202518e-12 -5.256246e-12 -4.368303e-13)) ((-4.509062e-17 -3.965095e-16 -1.222226e-13) (-2.073012e-14 -2.173614e-14 -1.292592e-09))
8382.561126   	((4.297963e-13 1.320191e-11 4.214909e-13) (2.185461e-12 -5.221573e-12 -4.469080e-13)) ((-1.138793e-16 -3.943161e-16 -1.219589e-13) (-1.976540e-14 -2.029210e-14 -1.287522e-09))
9958.327443   	((3.807989e-13 1.346763e-11 3.687560e-13) (2.131765e-12 -5.194306e-12 -4.629859e-13)) ((-1.112297e-16 -4.058256e-16 -1.217607e-13) (-1.776443e-14 -1.946912e-14 -1.283336e-09))
11737.780271  	((2.449397e-13 1.374184e-11 3.180102e-13) (2.078508e-12 -5.152061e-12 -4.675874e-13)) ((-1.139339e-16 -4.119515e-16 -1.215925e-13) (-1.621265e-14 -1.872917e-14 -1.279902e-09))
13720.926988  	((-4.435002e-14 1.394957e-11 1.349952e-13) (2.021905e-12 -5.099022e-12 -4.721323e-13)) ((-1.252868e-16 -4.050382e-16 -1.214536e-13) (-1.528850e-14 -1.800755e-14 -1.277096e-09))
15757.926088  	((-2.149199e-13 1.431866e-11 2.008798e-13) (1.983237e-12 -5.054473e-12 -4.749177e-13)) ((-9.003680e-17 -4.230520e-16 -1.213336e-13) (-1.456140e-14 -1.675346e-14 -1.274819e-09))
17794.973456  	((-4.158632e-13 1.454646e-11 2.073124e-13) (1.942616e-12 -5.024001e-12 -4.648496e-13)) ((-9.529634e-17 -4.268408e-16 -1.212431e-13) (-1.425001e-14 -1.544880e-14 -1.272977e-09))
19832.059814  	((-5.862185e-13 1.472647e-11 2.014363e-13) (1.912263e-12 -4.996561e-12 -4.596838e-13)) ((-9.841280e-17 -4.306557e-16 -1.211697e-13) (-1.373574e-14 -1.458632e-14 -1.271492e-09))
21869.177541  	((-7.124233e-13 1.480625e-11 2.156003e-13) (1.889722e-12 -4.973137e-12 -4.568393e-13)) ((-1.053764e-16 -4.292972e-16 -1.211056e-13) (-1.317407e-14 -1.401591e-14 -1.270296e-09))
23906.320577  	((-8.002227e-13 1.484586e-11 2.162531e-13) (1.864844e-12 -4.954493e-12 -4.535614e-13)) ((-1.027403e-16 -4.381070e-16 -1.210640e-13) (-1.264256e-14 -1.341652e-14 -1.269335e-09))
25943.483947  	((-8.995524e-13 1.482075e-11 2.558709e-13) (1.845279e-12 -4.933154e-12 -4.473094e-13)) ((-1.019324e-16 -4.464356e-16 -1.210266e-13) (-1.193428e-14 -1.315079e-14 -1.268563e-09))
27980.663666  	((-9.489331e-13 1.479505e-11 2.641008e-13) (1.839300e-12 -4.908964e-12 -4.389336e-13)) ((-1.026257e-16 -4.534973e-16 -1.209988e-13) (-1.107169e-14 -1.339940e-14 -1.267943e-09))
30017.856504  	((-9.211870e-13 1.478366e-11 2.129272e-13) (1.839520e-12 -4.894781e-12 -4.328033e-13)) ((-1.038761e-16 -4.531639e-16 -1.209759e-13) (-1.053630e-14 -1.369494e-14 -1.267446e-09))
32055.059873  	((-8.835508e-13 1.477295e-11 1.615865e-13) (1.842451e-12 -4.884189e-12 -4.308597e-13)) ((-1.042803e-16 -4.539422e-16 -1.209601e-13) (-1.020647e-14 -1.383318e-14 -1.267048e-09))
34092.271693  	((-8.446254e-13 1.476650e-11 1.192788e-13) (1.851692e-12 -4.874323e-12 -4.302854e-13)) ((-1.064107e-16 -4.525850e-16 -1.209497e-13) (-9.962179e-15 -1.393863e-14 -1.266728e-09))
36129.490293  	((-7.944274e-13 1.476383e-11 7.211607e-14) (1.861914e-12 -4.866882e-12 -4.298991e-13)) ((-1.060481e-16 -4.533177e-16 -1.209484e-13) (-9.779263e-15 -1.396982e-14 -1.266471e-09))
38166.714329  	((-6.872988e-13 1.467275e-11 2.812229e-14) (1.863005e-12 -4.865425e-12 -4.304787e-13)) ((-1.053411e-16 -4.548889e-16 -1.209365e-13) (-9.644379e-15 -1.398664e-14 -1.266266e-09))
40203.942723  	((-5.889103e-13 1.455024e-11 2.563172e-14) (1.865257e-12 -4.865843e-12 -4.311423e-13)) ((-1.104344e-16 -4.503435e-16 -1.209216e-13) (-9.565834e-15 -1.402358e-14 -1.266102e-09))
42241.174608  	((-4.905649e-13 1.445545e-11 1.266389e-14) (1.862844e-12 -4.867862e-12 -4.310295e-13)) ((-1.057109e-16 -4.568922e-16 -1.209206e-13) (-9.531274e-15 -1.389743e-14 -1.265970e-09))
44278.409293  	((-3.861768e-13 1.435953e-11 -1.278270e-15) (1.863255e-12 -4.869249e-12 -4.324583e-13)) ((-1.053427e-16 -4.573653e-16 -1.209147e-13) (-9.535711e-15 -1.385722e-14 -1.265864e-09))
46315.646221  	((-2.790411e-13 1.427444e-11 -1.700943e-14) (1.864815e-12 -4.870628e-12 -4.334196e-13)) ((-1.053812e-16 -4.576661e-16 -1.209095e-13) (-9.519413e-15 -1.385138e-14 -1.265780e-09))
48352.884945  	((-1.676352e-13 1.419587e-11 -3.618822e-14) (1.866740e-12 -4.872102e-12 -4.341321e-13)) ((-1.054217e-16 -4.579569e-16 -1.209053e-13) (-9.498592e-15 -1.385489e-14 -1.265712e-09))
