# Forces      
# CofR        : (0.000000e+00 0.000000e+00 0.000000e+00)
# Time        forces(pressure viscous)	moments(pressure viscous)
0             	((0.000000e+00 0.000000e+00 0.000000e+00) (0.000000e+00 0.000000e+00 0.000000e+00)) ((0.000000e+00 0.000000e+00 0.000000e+00) (0.000000e+00 0.000000e+00 0.000000e+00))
0.012         	((1.421393e-09 -1.425496e-09 2.838456e-09) (1.895037e-11 -2.771342e-12 -1.992240e-11)) ((-1.277374e-08 1.217738e-12 2.395831e-14) (-8.816606e-06 -1.044641e-12 4.347281e-13))
0.0264        	((-1.397103e-09 -2.238419e-09 5.239325e-09) (1.156454e-10 1.068483e-11 -1.346882e-11)) ((-6.428704e-09 9.533149e-13 -2.478723e-13) (-8.076299e-06 -1.697030e-12 6.592323e-13))
0.04368       	((5.298598e-09 3.564373e-09 5.557712e-09) (2.237051e-10 4.210022e-11 -3.586657e-12)) ((-3.710036e-09 7.849129e-13 -2.611977e-13) (-7.318113e-06 -1.213942e-12 -2.415001e-13))
0.064416      	((1.901318e-10 -4.313175e-10 1.440472e-09) (2.779792e-10 6.816264e-11 -1.578407e-12)) ((-2.246047e-09 6.096419e-13 7.964934e-14) (-6.560778e-06 -2.149418e-13 -1.388817e-12))
0.0892992     	((3.154608e-09 1.610273e-09 1.615217e-09) (4.248030e-10 7.615525e-11 5.921198e-12)) ((-1.798045e-09 6.081974e-13 -8.517292e-14) (-5.828507e-06 1.463541e-13 -1.517012e-12))
0.119159      	((2.340465e-09 -1.324390e-10 1.804676e-09) (4.945407e-10 5.646518e-11 2.028225e-11)) ((-1.392277e-09 3.320400e-13 1.226902e-13) (-5.145204e-06 5.371482e-13 -1.099056e-12))
0.154991      	((6.914297e-09 -2.183573e-09 -1.392849e-09) (4.077525e-10 2.980903e-11 4.152749e-11)) ((-1.166321e-09 3.087131e-13 6.785316e-14) (-4.527366e-06 1.481750e-12 -7.588566e-13))
0.197989      	((1.717923e-09 -1.080920e-09 -4.684175e-10) (2.418123e-10 2.456773e-11 5.163511e-11)) ((-9.608547e-10 1.942953e-13 1.211024e-14) (-3.982444e-06 2.085274e-12 -6.312113e-13))
0.249587      	((9.180929e-09 5.658569e-10 1.117983e-09) (9.969602e-11 3.875368e-11 6.800511e-11)) ((-8.228941e-10 1.528900e-13 -2.496417e-14) (-3.510610e-06 2.270551e-12 -4.303262e-13))
0.311504      	((-9.863110e-10 -6.836281e-10 8.638787e-10) (-7.142168e-11 4.164826e-11 7.572128e-11)) ((-7.182944e-10 1.807933e-13 -7.550586e-14) (-3.107660e-06 2.462384e-12 -3.350466e-13))
0.385805      	((-1.597223e-09 -9.873465e-10 1.656146e-09) (-1.973949e-10 1.949448e-11 6.480959e-11)) ((-6.436896e-10 2.071291e-13 -1.543429e-13) (-2.764404e-06 2.835234e-12 -8.270813e-13))
0.474966      	((6.662905e-10 -2.488319e-09 1.091081e-09) (-6.018359e-11 -2.555683e-11 3.044314e-11)) ((-5.860338e-10 2.112135e-13 -1.910934e-13) (-2.470084e-06 3.300871e-12 -1.432303e-12))
0.581959      	((-3.005103e-09 -3.446865e-09 1.125867e-09) (-3.058442e-10 -5.833745e-11 3.157421e-11)) ((-5.289192e-10 1.978717e-13 -2.157462e-13) (-2.216429e-06 4.160359e-12 -1.776318e-12))
0.710351      	((-6.375401e-09 -2.149040e-09 3.239378e-09) (-7.271885e-10 -6.641145e-11 5.260511e-11)) ((-4.717727e-10 2.239327e-13 -2.240063e-13) (-1.996288e-06 6.094633e-12 -3.005083e-12))
0.864421      	((-6.864515e-09 -6.531581e-10 6.256365e-09) (-7.109932e-10 9.114095e-11 1.976636e-10)) ((-4.287351e-10 1.600500e-13 -2.020378e-13) (-1.803667e-06 7.138324e-12 -4.624472e-12))
1.049306      	((-4.894189e-09 -1.338365e-09 7.465620e-09) (-6.143359e-10 1.297597e-10 2.059431e-10)) ((-3.970465e-10 1.164001e-13 -2.271353e-13) (-1.633587e-06 6.949172e-12 -5.227929e-12))
1.271167      	((-3.067725e-10 -3.833300e-09 6.543177e-09) (-5.862376e-10 1.407288e-10 1.274459e-10)) ((-3.674916e-10 -1.187463e-15 -2.260175e-13) (-1.482186e-06 5.945714e-12 -4.850837e-12))
1.5374        	((-1.562966e-09 -1.621345e-09 6.099959e-09) (4.392293e-11 3.552147e-10 1.812611e-10)) ((-3.353780e-10 -9.176820e-14 -2.887761e-13) (-1.346902e-06 3.445358e-12 -4.754810e-12))
1.85688       	((-2.452358e-10 -1.157942e-09 7.614586e-09) (6.603172e-10 4.840926e-10 8.008833e-11)) ((-3.028128e-10 -1.775269e-13 -2.361899e-13) (-1.226328e-06 1.324910e-12 -8.153859e-12))
2.240256      	((3.449683e-10 1.047438e-09 9.755107e-09) (4.492513e-10 7.782653e-10 -9.957384e-12)) ((-2.752893e-10 -1.590776e-13 -2.138282e-13) (-1.119654e-06 4.022466e-14 -1.429835e-11))
2.700307      	((4.136088e-10 2.335889e-09 9.526369e-09) (4.677206e-10 1.068559e-09 5.375460e-11)) ((-2.516573e-10 -1.031254e-13 -2.496113e-13) (-1.026011e-06 -2.196137e-12 -1.680155e-11))
3.252369      	((-2.648045e-10 3.075798e-09 9.180732e-09) (7.105978e-10 1.182408e-09 1.674230e-10)) ((-2.286617e-10 -1.067286e-13 -1.677660e-13) (-9.440705e-07 -6.446537e-12 -1.258512e-11))
3.914842      	((1.502985e-09 2.864986e-09 5.342966e-09) (7.677920e-10 9.650616e-10 2.174681e-10)) ((-2.071965e-10 -1.944972e-13 -1.350739e-14) (-8.721443e-07 -1.006091e-11 -6.508008e-12))
4.709811      	((3.523071e-09 4.320938e-09 4.645278e-09) (5.634719e-10 5.993434e-10 5.229190e-10)) ((-1.868954e-10 -1.734139e-13 -2.803709e-14) (-8.084562e-07 -1.223922e-11 1.631709e-12))
5.663773      	((4.362285e-09 2.758701e-09 2.399831e-09) (2.493969e-10 2.173973e-10 9.194107e-10)) ((-1.679339e-10 -1.511567e-13 -1.815767e-14) (-7.514005e-07 -1.139980e-11 9.261279e-12))
6.808528      	((2.746542e-09 2.367597e-09 5.985285e-10) (5.320817e-11 -1.448551e-10 1.086318e-09)) ((-1.507010e-10 -2.218220e-13 8.451136e-14) (-6.997472e-07 -7.731285e-12 1.337842e-11))
8.182233      	((2.179177e-10 1.660164e-09 5.842591e-10) (-2.880873e-10 -3.705629e-10 1.204457e-09)) ((-1.351690e-10 -1.282484e-13 1.098793e-13) (-6.526655e-07 -3.951399e-12 1.285666e-11))
9.83068       	((-1.284532e-09 1.156297e-09 -2.148256e-10) (-9.289636e-10 -3.455723e-10 1.212497e-09)) ((-1.215464e-10 -7.777470e-14 1.297736e-13) (-6.095205e-07 -1.744105e-12 7.552165e-12))
11.808816     	((-7.292336e-10 -1.197093e-10 1.168171e-10) (-8.424548e-10 -3.390783e-10 1.119076e-09)) ((-1.090244e-10 -8.565328e-14 2.194523e-13) (-5.697747e-07 1.236980e-12 1.890747e-12))
14.182579     	((-1.605179e-09 6.525045e-10 -5.680912e-10) (-8.207245e-10 -4.276296e-10 9.442659e-10)) ((-9.849572e-11 -9.161658e-14 2.783443e-13) (-5.331637e-07 6.189533e-12 -2.228753e-12))
17.031095     	((-8.105265e-10 2.982355e-10 -5.237267e-10) (-7.212930e-10 -3.840762e-10 8.751750e-10)) ((-9.041355e-11 -1.342525e-13 3.414947e-13) (-4.996585e-07 1.260863e-11 -6.132046e-12))
20.449314     	((-1.433455e-09 -3.391365e-10 -1.042622e-09) (-6.724186e-10 -4.101140e-10 7.937792e-10)) ((-8.331617e-11 -1.505006e-13 3.345095e-13) (-4.692741e-07 1.930773e-11 -1.074659e-11))
24.551176     	((-7.833895e-10 -7.701179e-10 -1.916950e-09) (-5.698496e-10 -3.983101e-10 8.291904e-10)) ((-7.698458e-11 -1.717364e-13 3.415151e-13) (-4.419794e-07 2.368629e-11 -1.576813e-11))
29.473411     	((-6.045153e-10 -2.853081e-10 -1.567670e-09) (-6.734041e-10 -3.615299e-10 8.939708e-10)) ((-7.095915e-11 -2.012343e-13 3.318851e-13) (-4.176199e-07 2.569832e-11 -1.978152e-11))
35.380094     	((-5.224949e-10 -1.284805e-09 -2.929771e-09) (-5.645664e-10 -4.956109e-10 8.579464e-10)) ((-6.608971e-11 -1.784069e-13 3.087007e-13) (-3.958963e-07 2.685700e-11 -2.420649e-11))
42.468112     	((-7.909169e-10 -1.817720e-09 -2.799930e-09) (-4.106637e-10 -7.035926e-10 9.801123e-10)) ((-6.204161e-11 -1.898521e-13 2.890170e-13) (-3.765143e-07 2.902525e-11 -2.835774e-11))
50.973735     	((-8.787122e-10 -2.186820e-09 -3.022348e-09) (-1.743193e-10 -8.202381e-10 1.157373e-09)) ((-5.867013e-11 -1.845674e-13 2.748931e-13) (-3.592886e-07 2.970063e-11 -2.862220e-11))
61.095101     	((-7.714214e-10 -2.016777e-09 -1.570578e-09) (-1.621091e-10 -9.897013e-10 1.207919e-09)) ((-5.521477e-11 -1.734372e-13 2.364665e-13) (-3.441350e-07 2.994040e-11 -2.626990e-11))
72.832022     	((-1.048369e-09 -2.094732e-09 -7.174209e-10) (-2.164192e-10 -1.236022e-09 1.063593e-09)) ((-5.227209e-11 -1.344589e-13 2.119407e-13) (-3.310468e-07 2.950150e-11 -2.102679e-11))
86.184259     	((-8.776685e-10 -2.182326e-09 1.331353e-10) (-4.411635e-10 -1.166565e-09 1.251022e-09)) ((-4.966630e-11 -1.261205e-13 2.019937e-13) (-3.199881e-07 2.920272e-11 -1.449049e-11))
101.15153     	((-9.336196e-10 -2.276347e-09 2.167207e-10) (-5.307110e-10 -1.124085e-09 1.374374e-09)) ((-4.744675e-11 -1.051983e-13 1.767227e-13) (-3.108743e-07 2.971825e-11 -9.899657e-12))
117.2985      	((-6.557767e-10 -1.765202e-09 6.844078e-10) (-5.919249e-10 -1.117094e-09 1.356408e-09)) ((-4.573225e-11 -8.280082e-14 1.374036e-13) (-3.036442e-07 3.130593e-11 -7.846140e-12))
133.441243    	((-5.093281e-10 -8.388058e-10 8.880173e-10) (-5.440794e-10 -8.375022e-10 1.537559e-09)) ((-4.438230e-11 -5.195670e-14 1.052842e-13) (-2.982745e-07 3.302566e-11 -8.148990e-12))
149.579459    	((-6.110835e-10 -2.751207e-10 1.230638e-09) (-5.300347e-10 -5.280428e-10 1.676579e-09)) ((-4.338950e-11 -2.626193e-14 8.700842e-14) (-2.944854e-07 3.437414e-11 -1.063237e-11))
165.712838    	((-2.891151e-10 3.999507e-11 1.136784e-09) (-5.434341e-10 -3.395883e-10 1.710383e-09)) ((-4.277798e-11 -5.267043e-14 8.153256e-14) (-2.920638e-07 3.530101e-11 -1.445875e-11))
181.84096     	((9.749978e-11 8.259735e-10 1.407533e-09) (-4.882175e-10 -9.362075e-11 1.783389e-09)) ((-4.237951e-11 -6.890975e-14 7.160080e-14) (-2.908122e-07 3.425716e-11 -1.802952e-11))
197.963552    	((-7.886355e-12 9.935833e-10 1.167865e-09) (-5.707230e-10 2.309891e-10 1.885214e-09)) ((-4.217264e-11 -7.112023e-14 7.465177e-14) (-2.905819e-07 3.102363e-11 -2.062281e-11))
214.080429    	((-2.491672e-10 1.274832e-09 8.540121e-10) (-5.710603e-10 3.526604e-10 1.776205e-09)) ((-4.213871e-11 -7.965809e-14 7.404524e-14) (-2.912383e-07 2.774293e-11 -2.221836e-11))
230.191355    	((-2.116604e-10 1.470690e-09 6.629972e-10) (-4.954891e-10 4.013992e-10 1.608465e-09)) ((-4.218135e-11 -7.357883e-14 7.425571e-14) (-2.926610e-07 2.504587e-11 -2.218746e-11))
246.29611     	((3.313536e-11 1.461425e-09 5.906450e-10) (-4.336465e-10 3.780354e-10 1.429271e-09)) ((-4.231964e-11 -8.592766e-14 7.461629e-14) (-2.947278e-07 2.329340e-11 -2.081747e-11))
262.394342    	((-1.142895e-10 1.361256e-09 5.994565e-10) (-3.866320e-10 3.049017e-10 1.270422e-09)) ((-4.258310e-11 -9.320449e-14 8.193068e-14) (-2.973122e-07 2.288993e-11 -2.000284e-11))
278.485864    	((-3.694624e-10 1.197265e-09 6.455095e-10) (-3.876169e-10 2.456358e-10 1.200880e-09)) ((-4.292792e-11 -1.039428e-13 8.586521e-14) (-3.002895e-07 2.313894e-11 -1.938608e-11))
294.570491    	((-3.836684e-10 1.212309e-09 7.251993e-10) (-3.582339e-10 1.739470e-10 1.170444e-09)) ((-4.332523e-11 -1.074468e-13 8.946587e-14) (-3.035307e-07 2.372280e-11 -1.836975e-11))
310.647956    	((-3.657964e-10 1.203678e-09 7.463658e-10) (-3.070332e-10 1.299802e-10 1.196639e-09)) ((-4.383218e-11 -1.116678e-13 9.305686e-14) (-3.069061e-07 2.450932e-11 -1.755618e-11))
326.71805     	((-3.807157e-10 1.255053e-09 6.703635e-10) (-2.569269e-10 1.103217e-10 1.225942e-09)) ((-4.439245e-11 -1.155506e-13 9.838679e-14) (-3.102894e-07 2.538020e-11 -1.732482e-11))
342.780578    	((-3.839861e-10 1.447528e-09 6.389601e-10) (-2.308410e-10 9.410334e-11 1.253732e-09)) ((-4.498880e-11 -1.229787e-13 1.029001e-13) (-3.135606e-07 2.680014e-11 -1.817509e-11))
358.835193    	((-3.799069e-10 1.563711e-09 3.552225e-10) (-2.192669e-10 9.074908e-11 1.278596e-09)) ((-4.561912e-11 -1.286751e-13 1.065172e-13) (-3.166153e-07 2.803715e-11 -1.984192e-11))
374.881791    	((-3.323303e-10 1.542383e-09 1.525955e-10) (-2.352699e-10 9.322427e-11 1.285618e-09)) ((-4.621702e-11 -1.344326e-13 1.122031e-13) (-3.193656e-07 2.831409e-11 -2.136463e-11))
