# Forces      
# CofR        : (0.000000e+00 0.000000e+00 0.000000e+00)
# Time        forces(pressure viscous)	moments(pressure viscous)
0             	((0.000000e+00 0.000000e+00 0.000000e+00) (0.000000e+00 0.000000e+00 0.000000e+00)) ((0.000000e+00 0.000000e+00 0.000000e+00) (0.000000e+00 0.000000e+00 0.000000e+00))
0.012         	((1.731820e-08 -9.098370e-07 -1.581765e-09) (4.496036e-10 -2.359659e-08 7.841248e-11)) ((2.550497e-13 4.804118e-14 2.110921e-08) (-5.632320e-15 2.317369e-12 2.788280e-05))
0.0264        	((2.781672e-08 -1.458716e-07 3.745470e-10) (1.203014e-09 -3.425405e-08 1.172192e-10)) ((-1.265699e-14 2.249417e-12 1.031320e-08) (-6.547015e-13 5.704565e-12 2.554875e-05))
0.04368       	((6.559792e-08 -4.695585e-07 -8.110304e-09) (1.350195e-09 -3.671019e-08 2.039969e-10)) ((9.462318e-13 3.033148e-12 6.410784e-09) (-1.557381e-12 1.209096e-11 2.317424e-05))
0.064416      	((3.746455e-08 -1.207771e-08 1.009484e-09) (1.033319e-09 -3.311770e-08 3.742689e-10)) ((1.303396e-13 2.779555e-12 4.322196e-09) (-2.290901e-12 2.047593e-11 2.083300e-05))
0.0892992     	((9.895710e-08 -2.462867e-07 -4.883021e-09) (2.002680e-09 -2.923358e-08 5.496560e-10)) ((2.181628e-12 3.993920e-12 3.780730e-09) (6.365982e-14 2.891747e-11 1.861222e-05))
0.119159      	((-3.827002e-08 -1.171604e-08 -1.091668e-09) (3.930723e-09 -2.567536e-08 6.947897e-10)) ((1.506693e-12 2.484151e-12 3.223419e-09) (3.246831e-12 3.405738e-11 1.658792e-05))
0.154991      	((-2.138167e-08 -1.111829e-07 -2.343326e-09) (6.042744e-09 -2.083648e-08 7.581189e-10)) ((1.966789e-12 2.702822e-12 2.788736e-09) (1.527620e-12 3.368095e-11 1.480459e-05))
0.197989      	((-2.502138e-08 -4.248551e-08 -2.274183e-09) (6.558828e-09 -1.398681e-08 6.832220e-10)) ((1.410082e-12 2.212370e-12 2.423153e-09) (-4.046341e-12 2.851730e-11 1.325773e-05))
0.249587      	((-7.097845e-09 -7.751121e-08 1.014712e-09) (5.301955e-09 -7.611928e-09 6.450995e-10)) ((1.252502e-12 1.996830e-12 2.110289e-09) (-6.928752e-12 2.328135e-11 1.189396e-05))
0.311504      	((-2.489729e-08 -2.399683e-08 -4.686335e-10) (7.518725e-09 -6.003442e-09 6.651959e-10)) ((2.330139e-13 1.860848e-12 1.829014e-09) (-3.349697e-12 1.996301e-11 1.065225e-05))
0.385805      	((-4.478327e-08 -4.570744e-08 4.207441e-09) (1.163108e-08 -7.078538e-09 7.271322e-10)) ((-5.249237e-13 1.362534e-12 1.588764e-09) (-3.694391e-13 2.444887e-11 9.519751e-06))
0.474966      	((-2.680273e-08 -3.859006e-08 9.250289e-10) (8.565222e-09 -1.052422e-08 8.287794e-10)) ((-9.415547e-13 4.072034e-13 1.367647e-09) (-6.564934e-12 2.671440e-11 8.503491e-06))
0.581959      	((-3.405803e-08 -9.737237e-08 1.173967e-09) (7.325737e-10 -1.241279e-08 7.825382e-10)) ((-8.672144e-13 -1.372952e-13 1.159013e-09) (-9.995860e-12 2.167804e-11 7.605558e-06))
0.710351      	((-4.201382e-08 -5.520514e-08 -4.797503e-09) (-7.561931e-09 -1.295835e-08 8.204888e-10)) ((-1.150611e-12 -2.910852e-13 9.751042e-10) (-5.623764e-12 1.814442e-11 6.819949e-06))
0.864421      	((-6.512296e-09 -1.287314e-07 -2.369245e-10) (-1.110477e-08 -8.125954e-09 8.711342e-10)) ((-2.200236e-12 -3.330440e-13 8.219545e-10) (8.129036e-12 1.339448e-11 6.133378e-06))
1.049306      	((-6.582481e-08 -1.026133e-07 2.523014e-09) (-1.339826e-08 -1.642255e-09 7.692395e-10)) ((-3.002696e-12 -1.332918e-13 6.922551e-10) (1.916881e-11 4.150510e-12 5.530703e-06))
1.271167      	((-1.820816e-08 -9.650322e-08 7.313813e-09) (-1.061490e-08 6.651847e-09 2.513509e-10)) ((-5.942668e-12 8.054355e-13 5.974612e-10) (1.963054e-11 1.700111e-11 4.999634e-06))
1.5374        	((2.421181e-08 -7.047383e-08 4.202873e-09) (-6.435613e-09 1.143494e-08 -4.656818e-10)) ((-7.677575e-12 1.440562e-12 5.165742e-10) (1.566766e-11 4.361804e-11 4.532199e-06))
1.85688       	((3.666838e-08 -6.893494e-08 4.136029e-09) (-7.818980e-09 1.022039e-08 -9.182033e-10)) ((-6.364897e-12 2.759048e-12 4.425691e-10) (1.545100e-11 6.343022e-11 4.123576e-06))
2.240256      	((5.574306e-08 -4.964363e-08 6.237253e-09) (5.013190e-10 1.256441e-08 -1.548295e-09)) ((-6.367022e-12 2.575080e-12 3.847459e-10) (-1.261445e-11 5.906444e-11 3.769385e-06))
2.700307      	((1.783506e-08 -6.711669e-08 1.179081e-09) (-2.588341e-09 1.096648e-08 -1.803810e-09)) ((-7.311891e-12 1.443853e-12 3.275825e-10) (-5.987541e-11 2.601492e-11 3.463611e-06))
3.252369      	((-9.204085e-10 -2.567946e-08 6.605407e-09) (-7.132637e-09 1.176677e-08 -2.263425e-09)) ((-5.816581e-12 1.717885e-12 2.795748e-10) (-1.065372e-10 -2.433469e-12 3.198404e-06))
3.914842      	((-1.589892e-08 -1.094996e-08 6.923931e-09) (4.337672e-10 1.024215e-08 -1.377278e-09)) ((-4.512645e-12 1.659692e-12 2.388449e-10) (-1.646118e-10 -2.104194e-11 2.965796e-06))
4.709811      	((1.157874e-08 1.505722e-08 4.578995e-09) (6.390787e-09 7.002401e-09 -3.176050e-10)) ((-1.431347e-12 1.917598e-12 2.047670e-10) (-2.115820e-10 -3.816164e-11 2.759315e-06))
5.663773      	((9.848453e-09 1.844288e-08 2.410536e-09) (7.499673e-09 7.016487e-10 -2.255188e-10)) ((8.527809e-13 2.202982e-12 1.768429e-10) (-2.458162e-10 -6.399848e-11 2.574170e-06))
6.808528      	((2.713898e-09 1.636246e-08 1.222963e-09) (6.282752e-09 4.376182e-10 -5.589084e-10)) ((7.069940e-13 3.369373e-12 1.578939e-10) (-2.313556e-10 -9.259104e-11 2.406900e-06))
8.182233      	((9.122208e-09 6.503767e-09 -1.360441e-09) (1.158205e-08 -1.073729e-09 -1.489139e-09)) ((1.211843e-13 2.872005e-12 1.459272e-10) (-1.737415e-10 -9.932373e-11 2.254823e-06))
9.83068       	((1.389971e-08 6.913478e-10 -5.000684e-09) (1.312963e-08 -6.580179e-09 -1.336702e-09)) ((6.281127e-13 1.957242e-12 1.391923e-10) (-1.320487e-10 -1.140660e-10 2.116206e-06))
11.808816     	((1.099394e-09 -6.920363e-09 -4.985275e-09) (7.633583e-09 -7.339427e-09 -1.233426e-09)) ((4.956377e-13 -1.120124e-13 1.316466e-10) (-7.709486e-11 -1.659200e-10 1.990323e-06))
14.182579     	((-7.152057e-09 -1.013635e-08 -5.606135e-09) (1.717569e-09 -5.166463e-09 -1.991385e-09)) ((1.006355e-12 -6.534368e-13 1.248824e-10) (-1.020449e-11 -2.088607e-10 1.877428e-06))
17.015874     	((-2.114067e-08 -7.430270e-09 -2.609232e-09) (-2.789598e-09 -1.666115e-09 -2.011975e-09)) ((1.313507e-12 -1.338999e-13 1.207841e-10) (5.159548e-11 -2.214253e-10 1.778346e-06))
20.320896     	((-2.298861e-08 -7.059000e-09 -4.950644e-09) (-5.263767e-09 -4.451191e-09 -2.037954e-09)) ((1.477519e-12 6.185425e-13 1.167720e-10) (1.055927e-10 -2.087641e-10 1.694179e-06))
24.111428     	((-1.638188e-08 -7.289874e-09 -3.383286e-09) (7.290217e-11 -4.430109e-09 -2.145267e-09)) ((6.815850e-13 1.376909e-12 1.133161e-10) (1.473083e-10 -1.912609e-10 1.624731e-06))
28.401322     	((-2.092686e-08 -1.370085e-08 -1.036910e-09) (5.938701e-09 -4.392351e-09 -1.734763e-09)) ((4.350345e-13 2.147851e-12 1.079910e-10) (1.859118e-10 -1.640131e-10 1.568945e-06))
33.202129     	((-1.473956e-08 -1.940142e-08 -2.053944e-09) (7.812142e-09 -1.397677e-09 -1.152131e-09)) ((4.079701e-13 2.003938e-12 1.035224e-10) (2.060415e-10 -1.356999e-10 1.525570e-06))
38.310748     	((-1.577083e-08 -1.259733e-08 -3.632395e-09) (7.715957e-09 -3.568964e-09 -8.823351e-10)) ((1.427970e-12 1.671568e-12 1.002687e-10) (2.024518e-10 -1.160436e-10 1.494425e-06))
43.418766     	((4.330324e-09 6.171578e-09 -4.262196e-09) (1.042054e-08 -2.242339e-10 -3.285718e-10)) ((2.104494e-12 1.042587e-12 9.762119e-11) (1.952584e-10 -1.027092e-10 1.474777e-06))
48.52615      	((1.083168e-08 1.407296e-08 -5.147057e-09) (1.459172e-08 5.484227e-09 -2.282974e-10)) ((2.027882e-12 1.090793e-12 9.507208e-11) (1.846465e-10 -1.131936e-10 1.464908e-06))
53.632833     	((1.656146e-08 2.663253e-08 -5.639896e-09) (1.434586e-08 7.402537e-09 -4.630245e-10)) ((1.626868e-12 1.149444e-12 9.228859e-11) (1.833017e-10 -1.399330e-10 1.463798e-06))
58.738666     	((8.813938e-09 2.638471e-08 -4.435034e-09) (4.582265e-09 6.890509e-09 -4.755375e-10)) ((1.366959e-12 1.185143e-12 9.114580e-11) (1.968004e-10 -1.447964e-10 1.470600e-06))
63.843621     	((4.090284e-09 2.695460e-08 -4.739432e-09) (-1.488257e-09 7.611563e-09 -6.830367e-11)) ((1.213230e-12 1.469494e-12 9.094340e-11) (2.214717e-10 -1.286083e-10 1.484610e-06))
68.947678     	((-2.911724e-09 2.099326e-08 -3.769490e-09) (-2.538324e-09 6.410428e-09 4.136636e-10)) ((1.109822e-12 1.646972e-12 9.074316e-11) (2.456325e-10 -1.019172e-10 1.505112e-06))
73.995732     	((-1.745385e-09 2.054090e-08 -4.576187e-09) (-3.254740e-09 6.567779e-09 6.058912e-10)) ((1.057032e-12 1.692415e-12 9.112164e-11) (2.664319e-10 -6.798891e-11 1.531150e-06))
78.942187     	((-7.540274e-09 7.999445e-09 -2.412873e-09) (-3.041476e-09 6.721398e-09 7.820326e-10)) ((9.314108e-13 1.690100e-12 9.205419e-11) (2.646546e-10 -3.801906e-11 1.561397e-06))
83.794043     	((-6.169882e-09 5.939055e-09 -4.768457e-09) (-3.135803e-09 6.626033e-09 9.147381e-10)) ((8.953418e-13 1.627776e-12 9.409821e-11) (2.424691e-10 -9.504498e-12 1.593896e-06))
88.560724     	((-1.001108e-08 -6.169402e-09 -4.537571e-09) (-2.472533e-09 4.021228e-09 1.092652e-09)) ((7.651777e-13 1.696887e-12 9.691829e-11) (2.080142e-10 9.157452e-12 1.626272e-06))
93.253615     	((-5.494471e-09 -1.166312e-08 -5.534792e-09) (-9.803463e-10 2.509344e-09 1.328402e-09)) ((8.059518e-13 1.430514e-12 1.002645e-10) (1.741771e-10 9.997467e-12 1.656061e-06))
97.883734     	((-8.119616e-09 -1.183069e-08 -8.123259e-09) (1.124318e-09 4.555356e-09 1.822183e-09)) ((1.098717e-12 1.370456e-12 1.032717e-10) (1.557193e-10 -1.392512e-11 1.681317e-06))
102.463897    	((-8.706583e-09 -9.605741e-09 -7.530884e-09) (4.357677e-09 5.298508e-09 2.071868e-09)) ((1.607448e-12 1.345720e-12 1.052191e-10) (1.649079e-10 -5.543525e-11 1.700919e-06))
107.007308    	((-5.953631e-09 -3.932826e-09 -8.473491e-09) (7.350335e-09 6.141119e-09 2.233592e-09)) ((1.972401e-12 1.326061e-12 1.057370e-10) (1.948388e-10 -9.264387e-11 1.714331e-06))
111.491728    	((-1.173235e-08 -8.102032e-09 -3.420947e-09) (9.764074e-09 6.643300e-09 2.672617e-09)) ((1.983290e-12 1.483152e-12 1.051047e-10) (2.221157e-10 -1.223404e-10 1.721609e-06))
115.9189      	((-1.243531e-08 -1.860728e-09 -5.324884e-09) (1.014358e-08 4.485179e-09 2.672332e-09)) ((2.111464e-12 1.698235e-12 1.043707e-10) (2.394320e-10 -1.312845e-10 1.723586e-06))
120.30873     	((-1.474885e-08 3.592964e-10 2.056601e-10) (1.224885e-08 2.080566e-09 3.216050e-09)) ((1.974570e-12 2.158640e-12 1.029364e-10) (2.465896e-10 -1.276680e-10 1.721303e-06))
