# Forces      
# CofR        : (0.000000e+00 0.000000e+00 0.000000e+00)
# Time        forces(pressure viscous)	moments(pressure viscous)
0             	((0.000000e+00 0.000000e+00 0.000000e+00) (3.586506e-15 6.341130e-05 -8.126360e-15)) ((0.000000e+00 0.000000e+00 0.000000e+00) (1.779119e-15 -1.664198e-17 -2.297776e-11))
0.012         	((-4.228504e-10 1.844236e-02 -2.914684e-09) (-4.327182e-11 7.276603e-05 -5.557577e-11)) ((7.311217e-12 -2.402936e-14 -3.483943e-09) (3.018600e-13 9.973487e-15 -4.762118e-11))
0.0264        	((-1.245700e-07 -1.288139e-03 4.890792e-09) (-1.649829e-10 7.423207e-05 -4.732476e-11)) ((-1.541593e-11 -1.661878e-12 2.260686e-10) (-4.589009e-13 -1.011755e-13 -6.432565e-11))
0.04368       	((2.955692e-07 -3.852103e-03 -1.268549e-07) (1.138410e-11 6.595700e-05 -9.537666e-11)) ((-9.153958e-12 2.233493e-12 9.343925e-10) (-2.513488e-12 -1.503012e-13 -5.544765e-11))
0.064416      	((-6.922177e-08 -3.648129e-05 6.237154e-08) (1.277807e-09 5.841489e-05 7.535835e-10)) ((6.603200e-12 1.061701e-12 -4.946136e-11) (5.303962e-12 -3.261366e-13 -7.037268e-11))
0.0892992     	((-1.960849e-08 4.927221e-05 5.000940e-08) (1.552391e-09 5.392668e-05 1.434654e-09)) ((7.351793e-13 -2.256759e-12 -4.869416e-11) (8.649268e-12 -9.816747e-13 -7.436807e-11))
0.119159      	((1.863188e-08 -5.823488e-05 6.832409e-08) (9.633888e-10 4.979485e-05 1.464061e-09)) ((5.641355e-12 5.521311e-13 1.553061e-11) (-6.094407e-12 -1.803200e-12 -6.235918e-11))
0.154991      	((-1.221581e-08 -3.115933e-05 8.705509e-09) (6.342905e-10 4.541955e-05 1.370741e-09)) ((3.385630e-12 8.190560e-13 2.864560e-12) (-1.890895e-11 -3.270441e-12 -4.059816e-11))
0.197989      	((1.658957e-08 -7.531725e-06 -6.954740e-09) (1.967785e-10 4.101209e-05 1.036897e-09)) ((4.183923e-12 2.472800e-13 -1.671570e-13) (-1.625867e-11 -5.082229e-12 -1.252153e-11))
0.249587      	((7.175187e-09 1.058582e-06 -2.009008e-09) (-1.248392e-10 3.669674e-05 7.517789e-10)) ((2.304675e-12 2.772659e-13 -3.476544e-12) (-9.750930e-12 -5.856005e-12 3.391806e-12))
0.311504      	((-2.472824e-09 4.979445e-06 -5.392080e-10) (-2.834127e-10 3.260511e-05 5.182549e-10)) ((1.739009e-12 1.199749e-13 -4.307492e-12) (-5.584681e-12 -5.628169e-12 2.151901e-11))
0.385805      	((-2.014215e-09 6.857837e-06 -1.387011e-10) (-3.174507e-10 2.884299e-05 3.482555e-10)) ((1.358247e-12 4.058013e-14 -3.024343e-12) (-2.346901e-12 -4.994243e-12 3.256758e-11))
0.474966      	((-1.082463e-09 7.785785e-06 -9.317900e-10) (-1.662770e-10 2.547802e-05 2.444561e-10)) ((8.772253e-13 1.687216e-15 -2.540536e-12) (8.124091e-13 -4.230603e-12 2.191878e-11))
0.581959      	((2.074274e-10 8.176248e-06 -5.838030e-10) (1.352819e-10 2.252810e-05 1.683956e-10)) ((5.453091e-13 -6.943854e-15 -2.212749e-12) (2.988011e-12 -3.447340e-12 1.843119e-12))
0.710351      	((-1.276861e-11 8.150096e-06 -8.332429e-10) (4.426119e-10 1.998466e-05 1.015050e-10)) ((3.315680e-13 -2.247822e-14 -1.860560e-12) (3.739720e-12 -2.838037e-12 -1.047510e-11))
0.864421      	((-4.061991e-11 7.858389e-06 -7.141529e-10) (6.411502e-10 1.781555e-05 3.229251e-11)) ((1.554400e-13 -2.436332e-14 -2.050335e-12) (3.818013e-12 -2.451430e-12 -1.634009e-11))
1.049306      	((2.392795e-10 7.424984e-06 -6.570300e-10) (7.060521e-10 1.596976e-05 -1.197215e-12)) ((6.526408e-14 -1.464355e-14 -2.039548e-12) (2.491888e-12 -2.024344e-12 -1.735133e-11))
1.271167      	((3.576544e-10 6.938963e-06 -4.268085e-10) (6.677806e-10 1.439379e-05 -6.118087e-13)) ((6.544537e-15 -1.103667e-14 -1.805054e-12) (1.420754e-12 -1.519450e-12 -1.903415e-11))
1.5374        	((5.094043e-10 6.434882e-06 -1.837972e-10) (5.603757e-10 1.303251e-05 9.032214e-13)) ((-2.243730e-14 -1.050919e-14 -1.757992e-12) (1.003442e-12 -1.127424e-12 -2.506290e-11))
1.85688       	((5.661835e-10 5.939487e-06 -1.091830e-10) (3.928913e-10 1.183687e-05 2.246375e-12)) ((-2.205612e-14 -1.063524e-14 -1.697715e-12) (3.645933e-13 -9.451934e-13 -3.159051e-11))
2.240256      	((4.565068e-10 5.469472e-06 -6.534237e-11) (2.064871e-10 1.077430e-05 -6.266344e-12)) ((-1.631925e-14 -9.814017e-15 -1.674234e-12) (-5.055158e-13 -8.847126e-13 -3.809468e-11))
2.700307      	((4.924183e-10 5.031461e-06 -6.184734e-11) (1.447064e-10 9.823614e-06 -1.696416e-11)) ((-1.436738e-14 -7.644256e-15 -1.626588e-12) (-1.367483e-12 -7.427319e-13 -4.173127e-11))
3.252369      	((2.997716e-10 4.625260e-06 -8.672460e-11) (1.488528e-10 8.969401e-06 -2.200585e-11)) ((-6.921574e-15 -8.360549e-15 -1.538654e-12) (-2.382806e-12 -6.329605e-13 -4.097566e-11))
3.914842      	((1.228005e-10 4.246989e-06 -2.252202e-10) (1.374451e-10 8.199922e-06 -3.175434e-11)) ((5.685176e-16 -1.101150e-14 -1.403636e-12) (-3.370560e-12 -5.366349e-13 -3.811822e-11))
4.709811      	((-1.224932e-10 3.897864e-06 -3.159897e-10) (1.180240e-10 7.506693e-06 -3.815145e-11)) ((1.031264e-14 -1.282559e-14 -1.235012e-12) (-3.691612e-12 -4.616471e-13 -3.403624e-11))
5.663773      	((-2.547878e-10 3.578703e-06 -5.158555e-10) (8.314966e-11 6.883324e-06 -4.506774e-11)) ((1.895617e-14 -1.778860e-14 -1.087275e-12) (-3.288791e-12 -3.625414e-13 -3.200147e-11))
6.808528      	((-5.957456e-11 3.289909e-06 -5.149093e-10) (5.495110e-11 6.324246e-06 -4.895759e-11)) ((2.054793e-14 -1.703546e-14 -9.344273e-13) (-2.793966e-12 -2.448655e-13 -3.188860e-11))
8.182233      	((-4.654619e-11 3.030876e-06 -5.249970e-10) (4.006716e-11 5.823344e-06 -4.540146e-11)) ((1.860033e-14 -1.586410e-14 -7.998546e-13) (-2.920222e-12 -2.127164e-13 -3.155569e-11))
9.83068       	((-7.089942e-11 2.799273e-06 -6.059373e-10) (3.248181e-11 5.373682e-06 -3.681538e-11)) ((2.085755e-14 -1.551743e-14 -7.055319e-13) (-3.732370e-12 -1.159003e-13 -3.024094e-11))
11.808816     	((1.757280e-11 2.591851e-06 -6.273095e-10) (2.533706e-11 4.968821e-06 -3.058214e-11)) ((2.280027e-14 -1.921664e-14 -6.457376e-13) (-5.546873e-12 -7.182706e-15 -2.832644e-11))
14.182579     	((-2.302431e-10 2.407152e-06 -8.103687e-10) (1.308695e-11 4.603304e-06 -3.869800e-11)) ((2.610494e-14 -2.156321e-14 -5.978730e-13) (-8.806518e-12 5.352777e-14 -2.525892e-11))
17.031095     	((-2.416569e-10 2.244465e-06 -7.312809e-10) (-1.485090e-11 4.272684e-06 -4.686502e-11)) ((2.598418e-14 -2.113861e-14 -5.697566e-13) (-1.313577e-11 5.825111e-14 -1.873232e-11))
20.449314     	((-3.545698e-10 2.102936e-06 -7.554225e-10) (-8.934659e-11 3.973666e-06 -5.830086e-11)) ((2.727228e-14 -1.878887e-14 -5.618290e-13) (-1.777701e-11 -1.060180e-16 -9.911557e-12))
24.551176     	((-5.332628e-10 1.982185e-06 -8.188699e-10) (-1.578717e-10 3.703862e-06 -8.367947e-11)) ((2.843843e-14 -1.918548e-14 -5.755217e-13) (-2.191865e-11 -8.311796e-14 -3.645933e-12))
29.473411     	((-5.383548e-10 1.881915e-06 -6.856357e-10) (-1.892458e-10 3.461492e-06 -9.770139e-11)) ((2.752560e-14 -1.740131e-14 -6.067564e-13) (-2.491410e-11 -1.893065e-13 1.443297e-14))
35.380094     	((-3.765350e-10 1.800689e-06 -5.127777e-10) (-1.954436e-10 3.245021e-06 -1.013525e-10)) ((2.737713e-14 -1.603128e-14 -6.518628e-13) (-2.755079e-11 -3.930151e-13 4.521075e-12))
42.468112     	((-2.088395e-10 1.737924e-06 -3.628829e-10) (-2.037197e-10 3.052840e-06 -1.052067e-10)) ((2.458588e-14 -1.331560e-14 -7.098232e-13) (-3.111665e-11 -5.731268e-13 1.031053e-11))
50.973735     	((4.838937e-11 1.692335e-06 -1.124554e-10) (-1.905502e-10 2.883358e-06 -1.068672e-10)) ((2.090214e-14 -1.377223e-14 -7.726868e-13) (-3.622554e-11 -6.260611e-13 1.759613e-11))
61.180482     	((2.885361e-10 1.663282e-06 1.508182e-10) (-1.822561e-10 2.734990e-06 -1.092623e-10)) ((1.848667e-14 -1.538907e-14 -8.472416e-13) (-4.271695e-11 -6.557142e-13 2.649594e-11))
73.428578     	((6.643829e-10 1.650389e-06 5.116674e-10) (-1.639457e-10 2.606452e-06 -1.091995e-10)) ((1.273696e-14 -1.531257e-14 -9.406272e-13) (-5.005526e-11 -6.472402e-13 3.615061e-11))
88.126294     	((1.072878e-09 1.650890e-06 9.268747e-10) (-1.548714e-10 2.496677e-06 -9.795400e-11)) ((9.174814e-15 -1.359858e-14 -1.052091e-12) (-5.746906e-11 -6.228085e-13 4.665311e-11))
105.763553    	((1.395752e-09 1.662739e-06 1.315988e-09) (-1.391546e-10 2.404607e-06 -7.739336e-11)) ((5.591470e-15 -1.231476e-14 -1.174131e-12) (-6.411253e-11 -6.325707e-13 5.667159e-11))
126.928263    	((1.789086e-09 1.682809e-06 1.723924e-09) (-1.070137e-10 2.329143e-06 -4.826612e-11)) ((5.461909e-16 -1.190580e-14 -1.291339e-12) (-6.915358e-11 -5.776808e-13 6.461261e-11))
152.086627    	((2.152791e-09 1.707303e-06 2.062633e-09) (-6.290809e-11 2.268849e-06 6.451395e-12)) ((-7.063956e-15 -1.257524e-14 -1.398208e-12) (-7.218304e-11 -5.767585e-13 6.954129e-11))
181.217022    	((2.394341e-09 1.731294e-06 2.323502e-09) (-8.664328e-12 2.221564e-06 7.891555e-11)) ((-9.007060e-15 -1.284126e-14 -1.472535e-12) (-7.267706e-11 -5.465731e-13 7.141444e-11))
214.301843    	((2.735996e-09 1.749736e-06 2.649392e-09) (6.211087e-11 2.184210e-06 1.542736e-10)) ((-1.423460e-14 -1.251895e-14 -1.524639e-12) (-7.142533e-11 -4.977438e-13 7.106612e-11))
251.335381    	((2.971417e-09 1.761127e-06 2.867329e-09) (1.627154e-10 2.153930e-06 2.541571e-10)) ((-1.679741e-14 -1.235740e-14 -1.566001e-12) (-6.868194e-11 -4.689491e-13 6.871116e-11))
290.870564    	((3.125520e-09 1.767381e-06 3.010115e-09) (2.673544e-10 2.129085e-06 3.563282e-10)) ((-1.877199e-14 -1.256354e-14 -1.599606e-12) (-6.509870e-11 -4.725844e-13 6.513369e-11))
330.486109    	((3.212289e-09 1.770733e-06 3.079632e-09) (3.680280e-10 2.108626e-06 4.532472e-10)) ((-2.060177e-14 -1.234738e-14 -1.623453e-12) (-6.120829e-11 -4.655694e-13 6.117210e-11))
370.163541    	((3.223814e-09 1.771957e-06 3.075811e-09) (4.629158e-10 2.091493e-06 5.418873e-10)) ((-2.143814e-14 -1.254626e-14 -1.644044e-12) (-5.685745e-11 -4.443987e-13 5.684289e-11))
409.881418    	((3.162095e-09 1.772520e-06 3.021807e-09) (5.439222e-10 2.077215e-06 6.155980e-10)) ((-2.090982e-14 -1.264681e-14 -1.661316e-12) (-5.236439e-11 -4.206024e-13 5.236087e-11))
449.629592    	((3.046851e-09 1.772612e-06 2.914123e-09) (6.048660e-10 2.065289e-06 6.709083e-10)) ((-2.019177e-14 -1.290424e-14 -1.673984e-12) (-4.783144e-11 -4.070278e-13 4.792428e-11))
489.404593    	((2.900191e-09 1.772435e-06 2.762901e-09) (6.477961e-10 2.055320e-06 7.085556e-10)) ((-1.975022e-14 -1.316469e-14 -1.685183e-12) (-4.338529e-11 -4.106386e-13 4.360905e-11))
529.203574    	((2.712557e-09 1.772022e-06 2.574468e-09) (6.709121e-10 2.046959e-06 7.278130e-10)) ((-1.858909e-14 -1.339391e-14 -1.693383e-12) (-3.916613e-11 -4.127033e-13 3.951480e-11))
569.023196    	((2.506096e-09 1.771528e-06 2.370025e-09) (6.779703e-10 2.039936e-06 7.320813e-10)) ((-1.747678e-14 -1.368406e-14 -1.699940e-12) (-3.514415e-11 -4.166907e-13 3.559365e-11))
608.860236    	((2.302113e-09 1.771005e-06 2.167656e-09) (6.738657e-10 2.034024e-06 7.248388e-10)) ((-1.621896e-14 -1.405871e-14 -1.705540e-12) (-3.133836e-11 -4.159667e-13 3.186404e-11))
648.711947    	((2.100011e-09 1.770511e-06 1.965480e-09) (6.593176e-10 2.029043e-06 7.079590e-10)) ((-1.490242e-14 -1.438076e-14 -1.710484e-12) (-2.781320e-11 -4.112228e-13 2.839025e-11))
688.57602     	((1.907930e-09 1.770015e-06 1.768445e-09) (6.371235e-10 2.024836e-06 6.837510e-10)) ((-1.370201e-14 -1.476283e-14 -1.714642e-12) (-2.457926e-11 -4.030254e-13 2.520998e-11))
728.450512    	((1.724566e-09 1.769568e-06 1.578787e-09) (6.098581e-10 2.021279e-06 6.538638e-10)) ((-1.258232e-14 -1.509119e-14 -1.718290e-12) (-2.162889e-11 -3.959150e-13 2.231605e-11))
768.333783    	((1.547798e-09 1.769147e-06 1.400614e-09) (5.786578e-10 2.018266e-06 6.203784e-10)) ((-1.156767e-14 -1.541244e-14 -1.721400e-12) (-1.895705e-11 -3.882243e-13 1.970186e-11))
808.224444    	((1.387185e-09 1.768763e-06 1.237391e-09) (5.455865e-10 2.015710e-06 5.854430e-10)) ((-1.071304e-14 -1.569116e-14 -1.723964e-12) (-1.653977e-11 -3.819165e-13 1.733130e-11))
848.121338    	((1.238563e-09 1.768413e-06 1.087228e-09) (5.115547e-10 2.013537e-06 5.495579e-10)) ((-9.977718e-15 -1.593138e-14 -1.726129e-12) (-1.438615e-11 -3.757337e-13 1.520394e-11))
888.023497    	((1.107876e-09 1.768094e-06 9.564701e-10) (4.780169e-10 2.011687e-06 5.143229e-10)) ((-9.424740e-15 -1.611981e-14 -1.727953e-12) (-1.247886e-11 -3.703621e-13 1.330792e-11))
927.930107    	((9.915837e-10 1.767807e-06 8.400252e-10) (4.458786e-10 2.010111e-06 4.807775e-10)) ((-8.954747e-15 -1.629640e-14 -1.729490e-12) (-1.079364e-11 -3.666986e-13 1.162784e-11))
967.840489    	((8.907277e-10 1.767550e-06 7.391702e-10) (4.155453e-10 2.008765e-06 4.493919e-10)) ((-8.566616e-15 -1.644303e-14 -1.730875e-12) (-9.315276e-12 -3.632758e-13 1.014842e-11))
1007.75407    	((8.052629e-10 1.767325e-06 6.532243e-10) (3.876413e-10 2.007616e-06 4.206483e-10)) ((-8.286584e-15 -1.657328e-14 -1.732036e-12) (-8.023877e-12 -3.608991e-13 8.852699e-12))
1047.670373   	((7.330429e-10 1.767123e-06 5.815286e-10) (3.625598e-10 2.006634e-06 3.948894e-10)) ((-8.101185e-15 -1.666007e-14 -1.732999e-12) (-6.906364e-12 -3.592463e-13 7.726119e-12))
1087.588994   	((6.710993e-10 1.766944e-06 5.206772e-10) (3.402957e-10 2.005794e-06 3.722128e-10)) ((-7.946272e-15 -1.675866e-14 -1.733813e-12) (-5.937347e-12 -3.577089e-13 6.749293e-12))
1127.509595   	((6.202533e-10 1.766788e-06 4.703922e-10) (3.207764e-10 2.005074e-06 3.524486e-10)) ((-7.814191e-15 -1.684106e-14 -1.734501e-12) (-5.105003e-12 -3.561624e-13 5.910622e-12))
1167.431893   	((5.776665e-10 1.766650e-06 4.287878e-10) (3.039342e-10 2.004458e-06 3.354620e-10)) ((-7.702089e-15 -1.688744e-14 -1.735094e-12) (-4.391991e-12 -3.551449e-13 5.191209e-12))
1207.355645   	((5.426461e-10 1.766533e-06 3.945634e-10) (2.895306e-10 2.003930e-06 3.210054e-10)) ((-7.627532e-15 -1.693029e-14 -1.735599e-12) (-3.783808e-12 -3.542134e-13 4.575681e-12))
1247.280648   	((5.137543e-10 1.766428e-06 3.657912e-10) (2.773903e-10 2.003477e-06 3.087878e-10)) ((-7.562001e-15 -1.698225e-14 -1.736037e-12) (-3.267673e-12 -3.530934e-13 4.051007e-12))
1287.206729   	((4.897931e-10 1.766335e-06 3.424011e-10) (2.671974e-10 2.003089e-06 2.985809e-10)) ((-7.514068e-15 -1.702764e-14 -1.736411e-12) (-2.829115e-12 -3.519818e-13 3.604943e-12))
1327.133737   	((4.699838e-10 1.766254e-06 3.226467e-10) (2.587160e-10 2.002755e-06 2.901070e-10)) ((-7.471796e-15 -1.706674e-14 -1.736732e-12) (-2.456318e-12 -3.510129e-13 3.226138e-12))
1367.061547   	((4.535581e-10 1.766185e-06 3.065210e-10) (2.516816e-10 2.002469e-06 2.830928e-10)) ((-7.437420e-15 -1.709678e-14 -1.737001e-12) (-2.140460e-12 -3.501947e-13 2.905782e-12))
1406.990048   	((4.397293e-10 1.766125e-06 2.930442e-10) (2.458415e-10 2.002222e-06 2.772968e-10)) ((-7.402872e-15 -1.712682e-14 -1.737235e-12) (-1.870861e-12 -3.495245e-13 2.633211e-12))
1446.919147   	((4.280804e-10 1.766072e-06 2.815675e-10) (2.410142e-10 2.002011e-06 2.725139e-10)) ((-7.372873e-15 -1.715026e-14 -1.737436e-12) (-1.641840e-12 -3.489744e-13 2.402265e-12))
1486.848761   	((4.179622e-10 1.766026e-06 2.716305e-10) (2.370031e-10 2.001829e-06 2.685432e-10)) ((-7.345720e-15 -1.717111e-14 -1.737605e-12) (-1.446335e-12 -3.484926e-13 2.205652e-12))
1526.77882    	((4.091717e-10 1.765986e-06 2.628494e-10) (2.336470e-10 2.001673e-06 2.652342e-10)) ((-7.317139e-15 -1.719091e-14 -1.737752e-12) (-1.278941e-12 -3.480596e-13 2.037749e-12))
1566.709263   	((4.015652e-10 1.765951e-06 2.553536e-10) (2.308271e-10 2.001539e-06 2.624553e-10)) ((-7.291093e-15 -1.720640e-14 -1.737878e-12) (-1.135373e-12 -3.476726e-13 1.894137e-12))
1606.640037   	((3.948115e-10 1.765921e-06 2.486454e-10) (2.284363e-10 2.001423e-06 2.600909e-10)) ((-7.268890e-15 -1.721868e-14 -1.737987e-12) (-1.011934e-12 -3.473241e-13 1.770894e-12))
1646.571096   	((3.889659e-10 1.765895e-06 2.426567e-10) (2.263857e-10 2.001323e-06 2.580539e-10)) ((-7.246500e-15 -1.723228e-14 -1.738080e-12) (-9.052974e-13 -3.470188e-13 1.664860e-12))
1686.502402   	((3.837065e-10 1.765873e-06 2.373505e-10) (2.246135e-10 2.001238e-06 2.562837e-10)) ((-7.221814e-15 -1.724397e-14 -1.738159e-12) (-8.129563e-13 -3.467795e-13 1.573454e-12))
1726.433918   	((3.790766e-10 1.765854e-06 2.325968e-10) (2.230641e-10 2.001164e-06 2.547320e-10)) ((-7.205496e-15 -1.725311e-14 -1.738230e-12) (-7.329504e-13 -3.465843e-13 1.494622e-12))
1766.365616   	((3.749195e-10 1.765837e-06 2.281318e-10) (2.217064e-10 2.001101e-06 2.533757e-10)) ((-7.184011e-15 -1.726137e-14 -1.738287e-12) (-6.633954e-13 -3.464199e-13 1.426348e-12))
1806.297471   	((3.712606e-10 1.765823e-06 2.244317e-10) (2.205018e-10 2.001046e-06 2.521590e-10)) ((-7.169861e-15 -1.726892e-14 -1.738340e-12) (-6.030675e-13 -3.462929e-13 1.367218e-12))
1846.229459   	((3.679680e-10 1.765810e-06 2.209796e-10) (2.194328e-10 2.000999e-06 2.510668e-10)) ((-7.155304e-15 -1.727548e-14 -1.738384e-12) (-5.505808e-13 -3.461807e-13 1.315904e-12))
1886.161562   	((3.651095e-10 1.765799e-06 2.181566e-10) (2.184844e-10 2.000959e-06 2.500940e-10)) ((-7.142868e-15 -1.728025e-14 -1.738422e-12) (-5.050825e-13 -3.460864e-13 1.271517e-12))
1926.093764   	((3.626178e-10 1.765790e-06 2.156328e-10) (2.176424e-10 2.000924e-06 2.492217e-10)) ((-7.132043e-15 -1.728444e-14 -1.738454e-12) (-4.654974e-13 -3.460061e-13 1.232958e-12))
1966.026051   	((3.604700e-10 1.765782e-06 2.134624e-10) (2.168975e-10 2.000894e-06 2.484496e-10)) ((-7.123259e-15 -1.728800e-14 -1.738482e-12) (-4.310632e-13 -3.459393e-13 1.199469e-12))
2005.958411   	((3.585903e-10 1.765775e-06 2.115012e-10) (2.162400e-10 2.000868e-06 2.477623e-10)) ((-7.115875e-15 -1.729135e-14 -1.738506e-12) (-4.011921e-13 -3.458843e-13 1.170466e-12))
2045.890833   	((3.569884e-10 1.765769e-06 2.099048e-10) (2.156626e-10 2.000845e-06 2.471544e-10)) ((-7.109810e-15 -1.729398e-14 -1.738527e-12) (-3.753405e-13 -3.458395e-13 1.145388e-12))
2085.823309   	((3.556568e-10 1.765763e-06 2.085601e-10) (2.151597e-10 2.000826e-06 2.466226e-10)) ((-7.101680e-15 -1.729467e-14 -1.738543e-12) (-3.530099e-13 -3.458050e-13 1.123714e-12))
2125.755832   	((3.544695e-10 1.765760e-06 2.071903e-10) (2.147204e-10 2.000810e-06 2.461554e-10)) ((-7.100970e-15 -1.729884e-14 -1.738561e-12) (-3.337862e-13 -3.457711e-13 1.105107e-12))
2165.688393   	((3.534634e-10 1.765755e-06 2.061792e-10) (2.143439e-10 2.000795e-06 2.457617e-10)) ((-7.095587e-15 -1.730077e-14 -1.738574e-12) (-3.172921e-13 -3.457401e-13 1.089070e-12))
2205.620989   	((3.526960e-10 1.765752e-06 2.054580e-10) (2.140215e-10 2.000783e-06 2.454213e-10)) ((-7.095683e-15 -1.730199e-14 -1.738585e-12) (-3.032519e-13 -3.457132e-13 1.075454e-12))
2245.553615   	((3.520102e-10 1.765749e-06 2.048045e-10) (2.137465e-10 2.000773e-06 2.451318e-10)) ((-7.093858e-15 -1.730305e-14 -1.738595e-12) (-2.911954e-13 -3.456938e-13 1.063774e-12))
2285.486266   	((3.514389e-10 1.765747e-06 2.042393e-10) (2.135140e-10 2.000764e-06 2.448839e-10)) ((-7.092233e-15 -1.730397e-14 -1.738604e-12) (-2.808600e-13 -3.456761e-13 1.053742e-12))
