# Forces      
# CofR        : (0.000000e+00 0.000000e+00 0.000000e+00)
# Time        forces(pressure viscous)	moments(pressure viscous)
0             	((0.000000e+00 0.000000e+00 0.000000e+00) (7.983069e-05 -1.134993e-14 5.607809e-15)) ((0.000000e+00 0.000000e+00 0.000000e+00) (-1.578769e-16 -1.199726e-15 1.696250e-15))
0.012         	((2.321743e-02 -1.340368e-08 -9.958403e-09) (9.160372e-05 -8.164452e-11 -5.211492e-11)) ((-6.588974e-14 -9.699269e-12 -3.305847e-12) (1.090340e-14 7.502762e-13 1.307703e-12))
0.0264        	((-1.630745e-03 -1.391726e-07 -4.841186e-07) (9.343991e-05 -2.314424e-10 -4.244198e-10)) ((4.860717e-12 2.011630e-11 4.830458e-12) (7.317122e-14 2.108194e-12 2.217457e-12))
0.04368       	((-4.844236e-03 2.321088e-09 3.025962e-07) (8.301478e-05 -3.074704e-10 -3.751534e-10)) ((-2.547411e-12 1.029697e-11 1.719796e-11) (2.340684e-13 5.442814e-12 1.273587e-12))
0.064416      	((-4.604893e-05 1.212555e-08 -1.174305e-07) (7.351905e-05 1.430179e-09 1.316380e-09)) ((9.010481e-14 -9.381421e-12 -5.855767e-12) (4.216144e-13 -1.787821e-12 1.121675e-11))
0.0892992     	((6.102465e-05 -2.946198e-08 9.696508e-08) (6.786827e-05 2.301988e-09 2.183543e-09)) ((2.464088e-12 -1.357743e-12 -4.063095e-12) (1.872706e-13 2.731354e-13 1.451894e-11))
0.119159      	((-7.359955e-05 7.006068e-08 4.874084e-08) (6.266716e-05 1.733945e-09 1.943158e-09)) ((-1.630616e-12 -5.259859e-12 -1.480113e-12) (5.290874e-13 2.023218e-11 1.038299e-12))
0.154991      	((-3.920203e-05 -1.020223e-08 1.648415e-08) (5.716292e-05 1.239867e-09 1.747760e-09)) ((3.853917e-13 -2.970671e-12 6.187975e-13) (1.105414e-12 3.110108e-11 -3.233391e-12))
0.197989      	((-9.453127e-06 9.827446e-09 1.039976e-08) (5.162221e-05 5.404610e-10 1.274748e-09)) ((-7.271224e-14 -4.671672e-12 8.687056e-13) (1.136700e-12 2.414312e-11 4.220405e-12))
0.249587      	((1.354677e-06 6.275096e-09 6.846199e-09) (4.620239e-05 4.406782e-11 8.340332e-10)) ((-1.905404e-13 -2.270800e-12 2.191025e-13) (5.670731e-13 1.296139e-11 1.111319e-11))
0.311504      	((6.275412e-06 1.336582e-09 1.590465e-09) (4.107054e-05 -2.877524e-10 5.371062e-10)) ((-1.016031e-13 -2.059055e-12 1.677383e-13) (-1.261312e-13 4.332570e-12 1.536941e-11))
0.385805      	((8.648283e-06 5.879717e-10 9.450034e-10) (3.635926e-05 -4.465443e-10 3.823749e-10)) ((1.919861e-14 -1.458468e-12 1.545508e-13) (-1.131041e-13 -3.922169e-12 1.732389e-11))
0.474966      	((9.840198e-06 -4.926306e-10 -6.762526e-10) (3.214980e-05 -4.759049e-10 2.779666e-10)) ((3.479879e-14 -1.059998e-12 9.329679e-14) (-2.057463e-13 -8.968538e-12 1.716833e-11))
0.581959      	((1.034722e-05 -8.848960e-10 -9.066083e-10) (2.845787e-05 -4.678336e-10 1.598843e-10)) ((3.766288e-15 -7.566761e-13 2.638426e-14) (-3.504149e-13 -9.659111e-12 1.384850e-11))
0.710351      	((1.032027e-05 -1.086585e-09 -9.796163e-10) (2.526823e-05 -3.679376e-10 5.694187e-11)) ((2.879191e-14 -4.522760e-13 -3.596483e-15) (-3.626161e-13 -8.337106e-12 1.051522e-11))
0.864421      	((9.952573e-06 -5.137744e-10 -5.495862e-10) (2.254060e-05 -2.775533e-10 6.444515e-12)) ((2.353473e-14 -2.216202e-13 -1.329409e-14) (-3.901468e-13 -6.260171e-12 9.311348e-12))
1.049306      	((9.403804e-06 -3.703525e-10 -5.080196e-10) (2.021286e-05 -2.003539e-10 -8.207605e-12)) ((1.613021e-14 -9.580341e-14 -1.229419e-14) (-3.323037e-13 -4.119031e-12 8.244877e-12))
1.271167      	((8.784550e-06 -2.240018e-10 -3.835249e-10) (1.821934e-05 -1.454031e-10 -1.332303e-11)) ((2.137117e-14 -2.723708e-14 -1.585561e-14) (-1.625779e-13 -2.790065e-12 7.167601e-12))
1.5374        	((8.140552e-06 -9.661314e-11 -1.610027e-10) (1.649308e-05 -1.112881e-10 -9.321848e-12)) ((1.526657e-14 4.162971e-15 -1.481281e-14) (-5.232369e-15 -2.014029e-12 6.142145e-12))
1.85688       	((7.507422e-06 -1.041845e-10 -9.796576e-11) (1.497513e-05 -7.556795e-11 -1.764001e-11)) ((1.466930e-14 5.404451e-15 -1.440396e-14) (1.641192e-13 -8.912054e-13 5.248953e-12))
2.240256      	((6.907851e-06 -1.035564e-10 -2.221814e-10) (1.362623e-05 -7.169529e-11 -4.052358e-11)) ((1.267926e-14 -5.290402e-15 -9.038812e-15) (3.182783e-13 4.842339e-13 4.067325e-12))
2.700307      	((6.350389e-06 -1.604403e-10 -3.111897e-10) (1.242037e-05 -7.932464e-11 -6.428924e-11)) ((1.185948e-14 -1.213715e-14 -8.136594e-15) (4.114439e-13 1.583467e-12 2.398508e-12))
3.252369      	((5.834868e-06 -2.332052e-10 -3.221570e-10) (1.133805e-05 -8.910480e-11 -7.438594e-11)) ((1.250232e-14 -1.866530e-14 -7.296018e-15) (4.399313e-13 2.640029e-12 7.113009e-13))
3.914842      	((5.356531e-06 -4.241115e-10 -4.976591e-10) (1.036444e-05 -9.166173e-11 -7.947487e-11)) ((1.169266e-14 -2.156834e-14 -5.650340e-15) (4.444706e-13 3.556473e-12 -7.774681e-13))
4.709811      	((4.917142e-06 -6.021969e-10 -6.774358e-10) (9.488133e-06 -7.661010e-11 -8.514892e-11)) ((1.832807e-14 -3.233287e-14 -1.097424e-15) (5.093477e-13 4.041774e-12 -1.712217e-12))
5.663773      	((4.518154e-06 -7.509663e-10 -8.083955e-10) (8.700912e-06 -7.782120e-11 -8.499301e-11)) ((2.291843e-14 -4.890555e-14 3.719254e-15) (5.355443e-13 4.201991e-12 -2.437323e-12))
6.808528      	((4.159351e-06 -6.762023e-10 -7.895610e-10) (7.995717e-06 -7.114236e-11 -6.834120e-11)) ((1.918581e-14 -5.532896e-14 5.498211e-15) (5.093779e-13 4.110096e-12 -3.069863e-12))
8.182233      	((3.839236e-06 -8.060871e-10 -8.285353e-10) (7.364576e-06 -5.570551e-11 -5.128232e-11)) ((1.765463e-14 -5.382675e-14 5.007888e-15) (4.281969e-13 4.089228e-12 -3.658282e-12))
9.83068       	((3.555420e-06 -9.151429e-10 -9.050739e-10) (6.798618e-06 -4.883266e-11 -4.238573e-11)) ((1.694186e-14 -5.024655e-14 1.323234e-15) (3.599358e-13 4.622347e-12 -4.670768e-12))
11.808816     	((3.304892e-06 -1.010668e-09 -1.031573e-09) (6.289462e-06 -5.685008e-11 -4.167414e-11)) ((1.866900e-14 -4.991617e-14 1.677725e-15) (3.030040e-13 6.316648e-12 -6.973404e-12))
14.182579     	((3.085246e-06 -1.190522e-09 -1.243835e-09) (5.830275e-06 -8.577538e-11 -6.282303e-11)) ((2.221680e-14 -5.386901e-14 5.446725e-16) (2.743602e-13 9.859193e-12 -1.133181e-11))
17.031095     	((2.896095e-06 -1.114435e-09 -1.265940e-09) (5.415968e-06 -1.174473e-10 -9.999909e-11)) ((2.410899e-14 -5.559287e-14 -8.751796e-16) (2.878253e-13 1.537289e-11 -1.686215e-11))
20.449314     	((2.737431e-06 -1.172082e-09 -1.188658e-09) (5.042710e-06 -1.495827e-10 -1.370962e-10)) ((2.363631e-14 -5.365806e-14 -2.588733e-15) (3.425759e-13 2.136661e-11 -2.257239e-11))
24.551176     	((2.607528e-06 -1.114032e-09 -1.133948e-09) (4.707685e-06 -1.776402e-10 -1.663698e-10)) ((2.278976e-14 -5.160574e-14 -6.505301e-15) (3.092611e-13 2.570663e-11 -2.711169e-11))
29.473411     	((2.505979e-06 -8.458272e-10 -8.605311e-10) (4.408703e-06 -1.885682e-10 -1.790608e-10)) ((2.249954e-14 -4.746644e-14 -1.185161e-14) (2.864206e-13 2.874987e-11 -3.040366e-11))
35.380094     	((2.430755e-06 -6.406919e-10 -5.836068e-10) (4.143681e-06 -1.929473e-10 -1.809878e-10)) ((2.249702e-14 -4.245562e-14 -1.328641e-14) (3.466049e-13 3.201033e-11 -3.368956e-11))
42.468112     	((2.382002e-06 -2.390150e-10 -2.859617e-10) (3.910611e-06 -1.848108e-10 -1.787005e-10)) ((1.890037e-14 -3.563931e-14 -1.215021e-14) (3.785662e-13 3.674054e-11 -3.761944e-11))
50.973735     	((2.357321e-06 2.393116e-10 2.321866e-10) (3.707515e-06 -1.693123e-10 -1.660127e-10)) ((1.693830e-14 -2.699671e-14 -1.143448e-14) (4.206349e-13 4.291853e-11 -4.293679e-11))
61.180482     	((2.355731e-06 7.705716e-10 7.431483e-10) (3.532719e-06 -1.483714e-10 -1.441831e-10)) ((1.371499e-14 -2.240038e-14 -1.099410e-14) (4.652537e-13 5.078090e-11 -4.968529e-11))
73.428578     	((2.373431e-06 1.358199e-09 1.324483e-09) (3.384569e-06 -1.085310e-10 -1.103848e-10)) ((1.291222e-14 -1.657063e-14 -1.204207e-14) (4.936099e-13 5.929541e-11 -5.710570e-11))
88.126294     	((2.406257e-06 1.920136e-09 1.908336e-09) (3.261563e-06 -5.359233e-11 -6.945741e-11)) ((1.237301e-14 -1.285563e-14 -1.328407e-14) (5.231102e-13 6.728251e-11 -6.431998e-11))
105.763553    	((2.449476e-06 2.472514e-09 2.471766e-09) (3.161798e-06 1.553938e-13 -1.156043e-11)) ((1.114584e-14 -3.893144e-15 -1.342490e-14) (5.024577e-13 7.292330e-11 -7.015875e-11))
126.473621    	((2.495897e-06 3.155855e-09 3.116107e-09) (3.083366e-06 7.608698e-11 6.180431e-11)) ((1.105953e-14 7.621185e-15 -1.287929e-14) (3.440679e-13 7.681197e-11 -7.410903e-11))
150.236944    	((2.537095e-06 3.742940e-09 3.663947e-09) (3.022205e-06 1.822995e-10 1.710337e-10)) ((1.231979e-14 1.343096e-14 -1.217711e-14) (2.962679e-13 7.752229e-11 -7.534713e-11))
177.040823    	((2.567035e-06 4.378037e-09 4.303460e-09) (2.973650e-06 3.114900e-10 3.050634e-10)) ((1.318009e-14 2.452571e-14 -1.335006e-14) (2.182939e-13 7.626405e-11 -7.482680e-11))
206.884033    	((2.584758e-06 4.855513e-09 4.766711e-09) (2.933687e-06 4.757844e-10 4.717730e-10)) ((1.487898e-14 2.985201e-14 -1.407103e-14) (1.228483e-13 7.330721e-11 -7.215634e-11))
237.341023    	((2.595951e-06 5.076031e-09 5.000247e-09) (2.900957e-06 6.366198e-10 6.338721e-10)) ((1.513224e-14 3.282905e-14 -1.377954e-14) (1.421780e-13 6.985278e-11 -6.854943e-11))
267.864817    	((2.600752e-06 5.176548e-09 5.108763e-09) (2.873459e-06 7.895201e-10 7.903099e-10)) ((1.543873e-14 3.571676e-14 -1.432175e-14) (2.513678e-13 6.558896e-11 -6.419520e-11))
298.429614    	((2.602952e-06 5.174394e-09 5.127190e-09) (2.850299e-06 9.244532e-10 9.273271e-10)) ((1.590036e-14 3.717712e-14 -1.486093e-14) (3.101569e-13 6.107730e-11 -5.951744e-11))
329.018261    	((2.603768e-06 5.062765e-09 5.027511e-09) (2.830765e-06 1.029482e-09 1.034280e-09)) ((1.606370e-14 3.621007e-14 -1.508017e-14) (3.384064e-13 5.610524e-11 -5.448084e-11))
359.626412    	((2.603710e-06 4.859655e-09 4.833211e-09) (2.814300e-06 1.102527e-09 1.108432e-09)) ((1.622241e-14 3.494571e-14 -1.514270e-14) (3.512675e-13 5.091653e-11 -4.941627e-11))
390.253369    	((2.602995e-06 4.619462e-09 4.599632e-09) (2.800358e-06 1.148408e-09 1.153475e-09)) ((1.691082e-14 3.345980e-14 -1.491822e-14) (3.718603e-13 4.583086e-11 -4.447102e-11))
420.897332    	((2.601989e-06 4.351435e-09 4.330608e-09) (2.788532e-06 1.173892e-09 1.174191e-09)) ((1.750283e-14 3.119733e-14 -1.446174e-14) (3.894070e-13 4.090538e-11 -3.969364e-11))
451.555835    	((2.600823e-06 4.034403e-09 4.014630e-09) (2.778474e-06 1.176733e-09 1.174603e-09)) ((1.811728e-14 2.884960e-14 -1.410721e-14) (3.995603e-13 3.615878e-11 -3.514035e-11))
482.226679    	((2.599627e-06 3.707418e-09 3.687912e-09) (2.769899e-06 1.161805e-09 1.157666e-09)) ((1.885039e-14 2.670706e-14 -1.395119e-14) (4.083568e-13 3.166276e-11 -3.078894e-11))
512.908059    	((2.598469e-06 3.373966e-09 3.358164e-09) (2.762573e-06 1.132873e-09 1.126374e-09)) ((1.923181e-14 2.461755e-14 -1.378763e-14) (4.159344e-13 2.742739e-11 -2.661613e-11))
543.598447    	((2.597371e-06 3.042832e-09 3.031548e-09) (2.756305e-06 1.092916e-09 1.084731e-09)) ((1.959250e-14 2.289975e-14 -1.370318e-14) (4.229515e-13 2.348623e-11 -2.269079e-11))
574.296539    	((2.596302e-06 2.718339e-09 2.712999e-09) (2.750930e-06 1.044954e-09 1.035718e-09)) ((1.977029e-14 2.119184e-14 -1.364026e-14) (4.290834e-13 1.983318e-11 -1.904989e-11))
605.001227    	((2.595342e-06 2.408492e-09 2.408595e-09) (2.746318e-06 9.908253e-10 9.814010e-10)) ((2.008358e-14 1.965210e-14 -1.346064e-14) (4.333980e-13 1.645993e-11 -1.570747e-11))
635.711565    	((2.594437e-06 2.124457e-09 2.126901e-09) (2.742352e-06 9.331795e-10 9.236458e-10)) ((2.033070e-14 1.843745e-14 -1.332384e-14) (4.401015e-13 1.339297e-11 -1.267416e-11))
666.426744    	((2.593608e-06 1.865772e-09 1.869665e-09) (2.738937e-06 8.744740e-10 8.647958e-10)) ((2.051379e-14 1.732993e-14 -1.330065e-14) (4.516112e-13 1.062002e-11 -9.940690e-12))
697.146076    	((2.592856e-06 1.632081e-09 1.639552e-09) (2.735990e-06 8.163878e-10 8.069912e-10)) ((2.071733e-14 1.627948e-14 -1.327352e-14) (4.592675e-13 8.132826e-12 -7.506328e-12))
727.868972    	((2.592174e-06 1.426327e-09 1.437317e-09) (2.733446e-06 7.609351e-10 7.516595e-10)) ((2.084924e-14 1.543452e-14 -1.318643e-14) (4.655841e-13 5.927860e-12 -5.349606e-12))
758.594936    	((2.591560e-06 1.247168e-09 1.260140e-09) (2.731246e-06 7.087972e-10 6.998017e-10)) ((2.098239e-14 1.477426e-14 -1.315934e-14) (4.721159e-13 3.985776e-12 -3.454502e-12))
789.323544    	((2.591007e-06 1.091810e-09 1.107008e-09) (2.729341e-06 6.608255e-10 6.521546e-10)) ((2.105656e-14 1.426326e-14 -1.314368e-14) (4.781563e-13 2.282845e-12 -1.798018e-12))
820.054436    	((2.590512e-06 9.591356e-10 9.762216e-10) (2.727690e-06 6.174936e-10 6.090434e-10)) ((2.113186e-14 1.389533e-14 -1.315342e-14) (4.847346e-13 7.994355e-13 -3.547294e-13))
850.787305    	((2.590068e-06 8.494321e-10 8.677413e-10) (2.726257e-06 5.792653e-10 5.711119e-10)) ((2.119328e-14 1.359518e-14 -1.311810e-14) (4.915372e-13 -5.024444e-13 9.096609e-13))
881.52189     	((2.589673e-06 7.559664e-10 7.743183e-10) (2.725012e-06 5.457039e-10 5.379341e-10)) ((2.126073e-14 1.330095e-14 -1.309381e-14) (4.980937e-13 -1.639614e-12 2.005792e-12))
912.257968    	((2.589322e-06 6.780396e-10 6.954659e-10) (2.723930e-06 5.165318e-10 5.091615e-10)) ((2.129858e-14 1.311102e-14 -1.306817e-14) (5.045111e-13 -2.619666e-12 2.954400e-12))
942.99535     	((2.589009e-06 6.161322e-10 6.323199e-10) (2.722988e-06 4.918617e-10 4.847269e-10)) ((2.133240e-14 1.304022e-14 -1.304498e-14) (5.102963e-13 -3.467995e-12 3.773526e-12))
973.733869    	((2.588732e-06 5.660492e-10 5.807778e-10) (2.722168e-06 4.714152e-10 4.643546e-10)) ((2.137674e-14 1.297549e-14 -1.303118e-14) (5.150281e-13 -4.200588e-12 4.479197e-12))
1004.473385   	((2.588484e-06 5.235043e-10 5.368736e-10) (2.721454e-06 4.544391e-10 4.473512e-10)) ((2.142038e-14 1.289586e-14 -1.300668e-14) (5.191989e-13 -4.835862e-12 5.089140e-12))
1035.213775   	((2.588264e-06 4.888446e-10 5.006914e-10) (2.720831e-06 4.404620e-10 4.333169e-10)) ((2.146010e-14 1.284072e-14 -1.298420e-14) (5.228954e-13 -5.385505e-12 5.614913e-12))
1065.954932   	((2.588071e-06 4.599010e-10 4.706743e-10) (2.720288e-06 4.290532e-10 4.217632e-10)) ((2.147807e-14 1.278650e-14 -1.295961e-14) (5.260729e-13 -5.859739e-12 6.068098e-12))
1096.696762   	((2.587899e-06 4.354221e-10 4.453605e-10) (2.719814e-06 4.197460e-10 4.122373e-10)) ((2.148985e-14 1.272372e-14 -1.293530e-14) (5.286091e-13 -6.269811e-12 6.457888e-12))
1127.439184   	((2.587747e-06 4.145235e-10 4.234323e-10) (2.719401e-06 4.121241e-10 4.043927e-10)) ((2.149076e-14 1.266902e-14 -1.291155e-14) (5.305020e-13 -6.624176e-12 6.793401e-12))
1158.182125   	((2.587613e-06 3.962781e-10 4.041915e-10) (2.719040e-06 4.058347e-10 3.978977e-10)) ((2.149754e-14 1.260795e-14 -1.289225e-14) (5.318257e-13 -6.931559e-12 7.083503e-12))
1188.925523   	((2.587495e-06 3.801576e-10 3.871326e-10) (2.718725e-06 4.006010e-10 3.924726e-10)) ((2.149528e-14 1.255236e-14 -1.287695e-14) (5.329362e-13 -7.200558e-12 7.336570e-12))
1219.66932    	((2.587391e-06 3.652198e-10 3.717535e-10) (2.718449e-06 3.961544e-10 3.878434e-10)) ((2.149960e-14 1.249304e-14 -1.286346e-14) (5.339555e-13 -7.436793e-12 7.557940e-12))
1250.413468   	((2.587299e-06 3.514088e-10 3.575486e-10) (2.718208e-06 3.923009e-10 3.838351e-10)) ((2.149646e-14 1.243378e-14 -1.285418e-14) (5.348458e-13 -7.644654e-12 7.752133e-12))
1281.157922   	((2.587218e-06 3.385044e-10 3.443769e-10) (2.717997e-06 3.888817e-10 3.802735e-10)) ((2.150340e-14 1.237029e-14 -1.284378e-14) (5.356202e-13 -7.828142e-12 7.923420e-12))
1311.902644   	((2.587146e-06 3.266428e-10 3.321340e-10) (2.717813e-06 3.857997e-10 3.770566e-10)) ((2.150645e-14 1.231192e-14 -1.283729e-14) (5.363162e-13 -7.990433e-12 8.074884e-12))
1342.6476     	((2.587083e-06 3.156328e-10 3.202839e-10) (2.717651e-06 3.829704e-10 3.741181e-10)) ((2.150744e-14 1.225938e-14 -1.283249e-14) (5.369537e-13 -8.134144e-12 8.208942e-12))
1373.39276    	((2.587028e-06 3.053833e-10 3.098379e-10) (2.717510e-06 3.803577e-10 3.714153e-10)) ((2.151251e-14 1.220934e-14 -1.282845e-14) (5.375206e-13 -8.261458e-12 8.327956e-12))
1404.138098   	((2.586981e-06 2.960876e-10 3.003704e-10) (2.717387e-06 3.779193e-10 3.689044e-10)) ((2.150958e-14 1.216405e-14 -1.282577e-14) (5.380358e-13 -8.374471e-12 8.433620e-12))
1434.88359    	((2.586939e-06 2.874745e-10 2.916534e-10) (2.717278e-06 3.756459e-10 3.665538e-10)) ((2.151325e-14 1.212124e-14 -1.282283e-14) (5.385067e-13 -8.474469e-12 8.527121e-12))
1465.629218   	((2.586899e-06 2.796847e-10 2.839081e-10) (2.717184e-06 3.735206e-10 3.643887e-10)) ((2.151294e-14 1.208446e-14 -1.282019e-14) (5.389083e-13 -8.563111e-12 8.610029e-12))
1496.374962   	((2.586867e-06 2.726112e-10 2.764738e-10) (2.717101e-06 3.715477e-10 3.623703e-10)) ((2.151439e-14 1.205432e-14 -1.281996e-14) (5.392557e-13 -8.641590e-12 8.683693e-12))
1527.120809   	((2.586839e-06 2.664292e-10 2.702003e-10) (2.717028e-06 3.697327e-10 3.605158e-10)) ((2.151525e-14 1.202932e-14 -1.281906e-14) (5.395647e-13 -8.711044e-12 8.748795e-12))
1557.866745   	((2.586814e-06 2.609643e-10 2.647729e-10) (2.716965e-06 3.680796e-10 3.588240e-10)) ((2.151732e-14 1.200695e-14 -1.281796e-14) (5.398327e-13 -8.772233e-12 8.806138e-12))
1588.612759   	((2.586792e-06 2.562736e-10 2.599103e-10) (2.716909e-06 3.665839e-10 3.573066e-10)) ((2.151732e-14 1.198669e-14 -1.281764e-14) (5.400702e-13 -8.826031e-12 8.856644e-12))
1619.358841   	((2.586771e-06 2.521169e-10 2.556925e-10) (2.716861e-06 3.652417e-10 3.559473e-10)) ((2.151869e-14 1.197330e-14 -1.281643e-14) (5.402674e-13 -8.873086e-12 8.900947e-12))
1650.104981   	((2.586755e-06 2.485777e-10 2.521296e-10) (2.716818e-06 3.640536e-10 3.547405e-10)) ((2.151912e-14 1.196344e-14 -1.281609e-14) (5.404361e-13 -8.914354e-12 8.939692e-12))
1680.851174   	((2.586739e-06 2.455811e-10 2.492696e-10) (2.716780e-06 3.630137e-10 3.536866e-10)) ((2.151993e-14 1.195307e-14 -1.281523e-14) (5.405841e-13 -8.950314e-12 8.973458e-12))
1711.597412   	((2.586726e-06 2.430765e-10 2.466547e-10) (2.716748e-06 3.621115e-10 3.527711e-10)) ((2.152025e-14 1.194108e-14 -1.281506e-14) (5.407106e-13 -8.981595e-12 9.002833e-12))
1742.343689   	((2.586715e-06 2.409489e-10 2.448039e-10) (2.716719e-06 3.613347e-10 3.519894e-10)) ((2.152127e-14 1.193940e-14 -1.281406e-14) (5.408272e-13 -9.008530e-12 9.028230e-12))
1773.090002   	((2.586704e-06 2.391474e-10 2.431370e-10) (2.716694e-06 3.606738e-10 3.513174e-10)) ((2.152187e-14 1.193501e-14 -1.281349e-14) (5.409239e-13 -9.031919e-12 9.050234e-12))
1803.836345   	((2.586696e-06 2.377134e-10 2.414297e-10) (2.716672e-06 3.601179e-10 3.507433e-10)) ((2.152208e-14 1.193121e-14 -1.281311e-14) (5.410020e-13 -9.052226e-12 9.069308e-12))
