# Forces      
# CofR        : (0.000000e+00 0.000000e+00 0.000000e+00)
# Time        forces(pressure viscous)	moments(pressure viscous)
0             	((0.000000e+00 0.000000e+00 0.000000e+00) (1.005023e-04 -1.422439e-14 7.040779e-15)) ((0.000000e+00 0.000000e+00 0.000000e+00) (-1.987567e-16 -1.514511e-15 2.129399e-15))
0.012         	((2.923008e-02 -1.661374e-08 -1.215730e-08) (1.153166e-04 -1.021822e-10 -6.489995e-11)) ((-7.883091e-14 -1.213810e-11 -4.151155e-12) (1.492588e-14 9.359458e-13 1.642908e-12))
0.0264        	((-2.067285e-03 -1.775284e-07 -6.165608e-07) (1.176123e-04 -2.950088e-10 -5.360931e-10)) ((6.147584e-12 2.478777e-11 5.834021e-12) (1.186337e-13 2.677095e-12 2.814897e-12))
0.04368       	((-6.091231e-03 5.056755e-09 3.927420e-07) (1.044759e-04 -3.850103e-10 -4.677823e-10)) ((-3.270345e-12 1.309889e-11 2.176715e-11) (2.919226e-13 6.843717e-12 1.573633e-12))
0.064416      	((-5.789603e-05 1.527421e-08 -1.473365e-07) (9.251945e-05 1.860003e-09 1.544519e-09)) ((3.222369e-13 -1.179394e-11 -7.439650e-12) (4.197979e-13 -1.851896e-12 1.405559e-11))
0.0892992     	((7.532024e-05 -2.998404e-08 1.195407e-07) (8.540458e-05 3.020029e-09 2.589130e-09)) ((2.561767e-12 -1.308463e-12 -5.324353e-12) (4.697480e-13 -1.214229e-12 1.829057e-11))
0.119159      	((-9.310069e-05 9.404633e-08 6.711242e-08) (7.885818e-05 2.287541e-09 2.319335e-09)) ((-1.608161e-12 -6.919123e-12 -1.938531e-12) (8.088393e-13 2.108301e-11 2.810096e-12))
0.154991      	((-4.934640e-05 -1.423606e-08 2.043229e-08) (7.193511e-05 1.613674e-09 2.024132e-09)) ((9.222334e-13 -3.572822e-12 3.762091e-13) (4.209049e-13 3.328913e-11 2.461822e-12))
0.197989      	((-1.188685e-05 1.041672e-08 2.303008e-08) (6.497295e-05 7.398351e-10 1.431310e-09)) ((3.900335e-13 -5.973518e-12 1.014149e-12) (1.239626e-12 2.477690e-11 1.511921e-11))
0.249587      	((1.728841e-06 7.626320e-09 1.344734e-08) (5.817230e-05 9.287689e-11 9.486159e-10)) ((1.310007e-13 -2.685741e-12 4.045116e-13) (2.068167e-12 1.644302e-11 2.335109e-11))
0.311504      	((7.888925e-06 1.578640e-09 1.800431e-09) (5.174285e-05 -3.434780e-10 6.495302e-10)) ((-2.163659e-14 -2.646571e-12 2.550879e-13) (7.038572e-13 7.666097e-12 2.742314e-11))
0.385805      	((1.090179e-05 8.172460e-10 -4.891317e-10) (4.585052e-05 -4.963029e-10 4.571442e-10)) ((6.372047e-14 -1.877810e-12 2.232906e-13) (-1.925751e-13 -4.761091e-12 2.660158e-11))
0.474966      	((1.245577e-05 -1.365282e-09 -2.014526e-09) (4.059200e-05 -4.696519e-10 3.083325e-10)) ((5.780070e-14 -1.277227e-12 1.076427e-13) (2.240529e-13 -1.088158e-11 2.143099e-11))
0.581959      	((1.311393e-05 -1.807145e-09 -2.141334e-09) (3.597661e-05 -4.157404e-10 1.544787e-10)) ((1.149092e-14 -9.004919e-13 1.994602e-14) (5.866518e-13 -1.142841e-11 1.560302e-11))
0.710351      	((1.308581e-05 -1.815731e-09 -1.759353e-09) (3.197897e-05 -3.279590e-10 2.813024e-11)) ((2.227060e-14 -5.386703e-13 -1.870582e-14) (5.358045e-13 -1.054643e-11 1.304046e-11))
0.864421      	((1.261946e-05 -1.166812e-09 -1.354297e-09) (2.854897e-05 -2.768673e-10 -2.527812e-11)) ((2.292321e-14 -2.615982e-13 -2.159488e-14) (4.301671e-13 -7.961534e-12 1.140074e-11))
1.049306      	((1.192661e-05 -1.062927e-09 -1.189666e-09) (2.561149e-05 -2.162299e-10 -1.635410e-11)) ((2.159984e-14 -1.109312e-13 -1.671745e-14) (3.035777e-13 -4.975128e-12 9.623464e-12))
1.271167      	((1.113883e-05 -8.535605e-10 -9.525488e-10) (2.308635e-05 -1.538316e-10 -1.618739e-11)) ((3.237629e-14 -4.163452e-14 -1.466067e-14) (2.444920e-13 -3.213860e-12 7.986549e-12))
1.5374        	((1.031513e-05 -4.545596e-10 -5.707402e-10) (2.089305e-05 -1.104626e-10 -2.254355e-11)) ((2.600920e-14 -1.556123e-14 -1.539201e-14) (3.076059e-13 -2.268101e-12 6.438358e-12))
1.85688       	((9.505925e-06 -4.553332e-10 -3.708693e-10) (1.896269e-05 -9.687852e-11 -3.234581e-11)) ((2.328395e-14 -1.013658e-14 -1.610650e-14) (3.099384e-13 -1.753782e-12 5.492906e-12))
2.240256      	((8.741593e-06 -4.534718e-10 -6.056094e-10) (1.724805e-05 -1.030331e-10 -4.897439e-11)) ((1.864051e-14 -1.345710e-14 -5.815526e-15) (3.198804e-13 -8.456026e-13 4.394281e-12))
2.700307      	((8.032309e-06 -3.739372e-10 -5.536016e-10) (1.571646e-05 -1.154373e-10 -6.979365e-11)) ((1.328559e-14 -1.373138e-14 -5.255797e-15) (3.443674e-13 5.496968e-13 2.719800e-12))
3.252369      	((7.378292e-06 -5.396444e-10 -6.088549e-10) (1.434321e-05 -1.219982e-10 -9.137651e-11)) ((1.606655e-14 -2.317174e-14 -6.317288e-15) (3.857583e-13 2.155192e-12 6.591259e-13))
3.914842      	((6.775246e-06 -7.320155e-10 -8.391402e-10) (1.310919e-05 -1.262849e-10 -1.068421e-10)) ((1.580447e-14 -3.591957e-14 -3.297538e-15) (5.713347e-13 3.309013e-12 -1.280158e-12))
4.709811      	((6.224536e-06 -9.440147e-10 -9.332909e-10) (1.200043e-05 -1.051383e-10 -1.062649e-10)) ((2.551283e-14 -5.323964e-14 -3.714219e-16) (6.012954e-13 4.393441e-12 -2.991641e-12))
5.663773      	((5.728289e-06 -1.119940e-09 -1.192681e-09) (1.100635e-05 -1.112549e-10 -9.758645e-11)) ((2.805207e-14 -6.715276e-14 7.590180e-16) (6.530033e-13 5.210313e-12 -4.260749e-12))
6.808528      	((5.285263e-06 -1.071362e-09 -1.108186e-09) (1.011706e-05 -1.116795e-10 -8.524392e-11)) ((2.232509e-14 -6.252486e-14 -1.482219e-15) (8.086691e-13 5.505157e-12 -5.012369e-12))
8.182233      	((4.892553e-06 -1.271082e-09 -1.297028e-09) (9.321967e-06 -1.013081e-10 -7.891918e-11)) ((1.882482e-14 -5.561514e-14 -7.244329e-15) (7.599930e-13 5.779917e-12 -5.425520e-12))
9.83068       	((4.548823e-06 -1.407163e-09 -1.574489e-09) (8.610163e-06 -1.106123e-10 -9.354627e-11)) ((2.156371e-14 -5.054861e-14 -1.107823e-14) (6.350506e-13 6.798194e-12 -6.112065e-12))
11.808816     	((4.252454e-06 -1.547502e-09 -1.596429e-09) (7.971297e-06 -1.325716e-10 -1.143859e-10)) ((2.687019e-14 -5.672008e-14 -6.565579e-15) (5.574147e-13 9.313891e-12 -8.689723e-12))
14.182579     	((4.001924e-06 -1.827521e-09 -1.980363e-09) (7.397105e-06 -1.843896e-10 -1.625806e-10)) ((2.534025e-14 -6.690569e-14 -6.343589e-15) (5.342050e-13 1.383344e-11 -1.344167e-11))
17.031095     	((3.794127e-06 -1.833694e-09 -1.926041e-09) (6.881274e-06 -2.403761e-10 -2.205195e-10)) ((2.979536e-14 -7.149665e-14 -8.145800e-15) (5.339108e-13 2.029077e-11 -1.960506e-11))
20.449314     	((3.629178e-06 -1.617015e-09 -1.643733e-09) (6.419120e-06 -2.794100e-10 -2.550252e-10)) ((3.051997e-14 -6.963912e-14 -1.217129e-14) (5.048513e-13 2.704809e-11 -2.613243e-11))
24.551176     	((3.505605e-06 -1.565029e-09 -1.528101e-09) (6.007155e-06 -2.993658e-10 -2.770457e-10)) ((3.595485e-14 -6.510332e-14 -1.434030e-14) (5.330038e-13 3.170236e-11 -3.140056e-11))
29.473411     	((3.422149e-06 -1.161166e-09 -1.083591e-09) (5.642452e-06 -3.029680e-10 -2.827131e-10)) ((3.526141e-14 -5.845844e-14 -2.004737e-14) (4.387177e-13 3.539354e-11 -3.475743e-11))
35.380094     	((3.376993e-06 -6.335792e-10 -6.379027e-10) (5.322420e-06 -2.837606e-10 -2.772576e-10)) ((3.353420e-14 -5.325524e-14 -2.321053e-14) (2.631956e-13 3.972135e-11 -3.839790e-11))
42.468112     	((3.368690e-06 2.482975e-11 1.351389e-11) (5.044611e-06 -2.504804e-10 -2.417194e-10)) ((3.177588e-14 -4.460617e-14 -2.333129e-14) (1.269555e-13 4.453777e-11 -4.276565e-11))
50.973735     	((3.393803e-06 1.000120e-09 9.810532e-10) (4.806579e-06 -1.822960e-10 -2.013531e-10)) ((2.826580e-14 -2.885656e-14 -2.348535e-14) (1.988784e-14 4.996286e-11 -4.809393e-11))
61.180482     	((3.446048e-06 1.873613e-09 1.870399e-09) (4.606460e-06 -1.124663e-10 -1.313600e-10)) ((2.749018e-14 -1.850245e-14 -2.357606e-14) (-4.782611e-14 5.601705e-11 -5.447924e-11))
73.428578     	((3.518094e-06 2.689112e-09 2.691438e-09) (4.441868e-06 -2.408496e-11 -4.360768e-11)) ((2.684970e-14 -1.193835e-14 -2.211648e-14) (-1.089359e-13 6.443693e-11 -6.152037e-11))
88.074912     	((3.601191e-06 3.604496e-09 3.621976e-09) (4.310109e-06 9.174588e-11 7.820989e-11)) ((2.670619e-14 3.906669e-15 -1.892242e-14) (-2.402960e-13 7.278064e-11 -7.045175e-11))
105.103912    	((3.685366e-06 4.484709e-09 4.464939e-09) (4.208169e-06 2.125152e-10 2.021666e-10)) ((2.709381e-14 1.903253e-14 -1.787696e-14) (-3.270872e-13 7.924444e-11 -7.827682e-11))
124.49963     	((3.755113e-06 5.296556e-09 5.246760e-09) (4.128744e-06 3.522653e-10 3.617414e-10)) ((2.825067e-14 2.955896e-14 -1.960621e-14) (-1.185586e-13 8.269156e-11 -8.244659e-11))
146.252189    	((3.803985e-06 6.113925e-09 6.041075e-09) (4.064944e-06 5.236815e-10 5.305509e-10)) ((2.921273e-14 3.725378e-14 -1.955397e-14) (-6.706088e-14 8.343990e-11 -8.402222e-11))
169.819998    	((3.833588e-06 6.873949e-09 6.791334e-09) (4.012003e-06 7.447249e-10 7.444032e-10)) ((2.906886e-14 4.937621e-14 -2.032470e-14) (-1.537619e-13 8.199294e-11 -8.312776e-11))
193.449839    	((3.851766e-06 7.366976e-09 7.274885e-09) (3.968246e-06 9.858993e-10 9.882063e-10)) ((2.858746e-14 5.505666e-14 -2.120588e-14) (-1.625075e-13 7.887374e-11 -8.082069e-11))
217.138242    	((3.859294e-06 7.634833e-09 7.546133e-09) (3.930926e-06 1.205807e-09 1.210917e-09)) ((2.922622e-14 5.678873e-14 -2.127014e-14) (-4.831122e-14 7.522459e-11 -7.774515e-11))
240.859118    	((3.862621e-06 7.720709e-09 7.605605e-09) (3.899137e-06 1.398146e-09 1.398661e-09)) ((2.999613e-14 5.505004e-14 -2.108470e-14) (1.679003e-14 7.066972e-11 -7.365295e-11))
264.597141    	((3.863446e-06 7.610107e-09 7.483430e-09) (3.872010e-06 1.550124e-09 1.546210e-09)) ((3.001572e-14 5.286312e-14 -2.067170e-14) (3.802487e-14 6.560136e-11 -6.884042e-11))
288.350149    	((3.862837e-06 7.321341e-09 7.203930e-09) (3.848827e-06 1.649757e-09 1.642520e-09)) ((2.993466e-14 5.098517e-14 -2.032264e-14) (4.675673e-15 6.036667e-11 -6.379065e-11))
312.118698    	((3.861120e-06 7.004898e-09 6.876879e-09) (3.828943e-06 1.713265e-09 1.702241e-09)) ((2.927080e-14 4.895971e-14 -2.004011e-14) (7.653993e-15 5.493329e-11 -5.841575e-11))
335.901557    	((3.858733e-06 6.620135e-09 6.475842e-09) (3.811849e-06 1.739442e-09 1.725905e-09)) ((2.871692e-14 4.645454e-14 -1.964817e-14) (3.875526e-14 4.956490e-11 -5.305435e-11))
359.696703    	((3.856165e-06 6.236947e-09 6.091069e-09) (3.797138e-06 1.741449e-09 1.727675e-09)) ((2.837404e-14 4.456137e-14 -1.904793e-14) (8.756515e-14 4.423998e-11 -4.775311e-11))
383.502461    	((3.853454e-06 5.818629e-09 5.673373e-09) (3.784435e-06 1.727723e-09 1.713379e-09)) ((2.833731e-14 4.258580e-14 -1.833663e-14) (1.312360e-13 3.910492e-11 -4.263616e-11))
407.317514    	((3.850859e-06 5.335486e-09 5.186458e-09) (3.773455e-06 1.694731e-09 1.678960e-09)) ((2.789982e-14 3.959087e-14 -1.789124e-14) (1.814419e-13 3.416986e-11 -3.773078e-11))
431.140717    	((3.848340e-06 4.861315e-09 4.713108e-09) (3.763948e-06 1.645308e-09 1.628690e-09)) ((2.772738e-14 3.745934e-14 -1.748257e-14) (2.330796e-13 2.953869e-11 -3.316868e-11))
454.971056    	((3.845983e-06 4.376358e-09 4.235017e-09) (3.755695e-06 1.582535e-09 1.565453e-09)) ((2.749381e-14 3.490569e-14 -1.740718e-14) (2.674108e-13 2.522809e-11 -2.892913e-11))
478.807661    	((3.843802e-06 3.911278e-09 3.770359e-09) (3.748515e-06 1.510440e-09 1.492553e-09)) ((2.740921e-14 3.277077e-14 -1.729078e-14) (2.879804e-13 2.122776e-11 -2.499023e-11))
502.649768    	((3.841771e-06 3.472784e-09 3.338694e-09) (3.742262e-06 1.432467e-09 1.414146e-09)) ((2.737390e-14 3.094096e-14 -1.726608e-14) (2.888115e-13 1.753218e-11 -2.133623e-11))
526.496703    	((3.839860e-06 3.075055e-09 2.940255e-09) (3.736802e-06 1.352206e-09 1.333648e-09)) ((2.755571e-14 2.952888e-14 -1.720286e-14) (2.835282e-13 1.413325e-11 -1.796823e-11))
550.347876    	((3.838092e-06 2.687944e-09 2.557927e-09) (3.732024e-06 1.270044e-09 1.251773e-09)) ((2.773348e-14 2.796731e-14 -1.709979e-14) (2.759793e-13 1.099166e-11 -1.487934e-11))
574.202778    	((3.836495e-06 2.348880e-09 2.217475e-09) (3.727836e-06 1.190263e-09 1.171802e-09)) ((2.785031e-14 2.678793e-14 -1.705803e-14) (2.645443e-13 8.082692e-12 -1.202314e-11))
598.060968    	((3.835041e-06 2.027621e-09 1.896644e-09) (3.724162e-06 1.113259e-09 1.094335e-09)) ((2.797871e-14 2.564362e-14 -1.705546e-14) (2.506517e-13 5.431237e-12 -9.415480e-12))
621.92206     	((3.833716e-06 1.747784e-09 1.613722e-09) (3.720933e-06 1.041206e-09 1.021042e-09)) ((2.819833e-14 2.484813e-14 -1.711217e-14) (2.364498e-13 3.029241e-12 -7.045904e-12))
645.785717    	((3.832513e-06 1.491429e-09 1.355237e-09) (3.718094e-06 9.736992e-10 9.520153e-10)) ((2.837458e-14 2.407539e-14 -1.718206e-14) (2.284160e-13 8.739432e-13 -4.905585e-12))
669.651641    	((3.831418e-06 1.263371e-09 1.126049e-09) (3.715593e-06 9.110247e-10 8.881408e-10)) ((2.852226e-14 2.335403e-14 -1.727925e-14) (2.217153e-13 -1.066035e-12 -2.991727e-12))
693.519566    	((3.830434e-06 1.064771e-09 9.240522e-10) (3.713388e-06 8.541091e-10 8.298561e-10)) ((2.868750e-14 2.276752e-14 -1.733259e-14) (2.152086e-13 -2.803468e-12 -1.288140e-12))
717.389262    	((3.829550e-06 8.851580e-10 7.438209e-10) (3.711444e-06 8.023224e-10 7.768369e-10)) ((2.880124e-14 2.219914e-14 -1.746350e-14) (2.104717e-13 -4.348268e-12 2.294415e-13))
741.260524    	((3.828745e-06 7.326632e-10 5.885591e-10) (3.709726e-06 7.560092e-10 7.294836e-10)) ((2.898027e-14 2.171037e-14 -1.755937e-14) (2.065081e-13 -5.721612e-12 1.572107e-12))
765.133173    	((3.828020e-06 5.947142e-10 4.494581e-10) (3.708207e-06 7.145718e-10 6.872356e-10)) ((2.912384e-14 2.129357e-14 -1.760829e-14) (2.029692e-13 -6.940469e-12 2.755034e-12))
789.00705     	((3.827369e-06 4.736768e-10 3.256707e-10) (3.706864e-06 6.777376e-10 6.495912e-10)) ((2.926002e-14 2.092822e-14 -1.767385e-14) (2.009087e-13 -8.023004e-12 3.804757e-12))
812.882016    	((3.826781e-06 3.671499e-10 2.162347e-10) (3.705674e-06 6.452070e-10 6.161309e-10)) ((2.940334e-14 2.058465e-14 -1.773291e-14) (1.992799e-13 -8.985143e-12 4.737642e-12))
836.757949    	((3.826256e-06 2.722766e-10 1.195044e-10) (3.704620e-06 6.164327e-10 5.865410e-10)) ((2.953195e-14 2.026403e-14 -1.776979e-14) (1.974602e-13 -9.833492e-12 5.562310e-12))
860.634738    	((3.825785e-06 1.889342e-10 3.395999e-11) (3.703686e-06 5.910137e-10 5.604274e-10)) ((2.964012e-14 1.996407e-14 -1.780013e-14) (1.965208e-13 -1.058605e-11 6.296014e-12))
884.512287    	((3.825362e-06 1.131982e-10 -4.249635e-11) (3.702857e-06 5.684769e-10 5.373835e-10)) ((2.974189e-14 1.968627e-14 -1.782375e-14) (1.954334e-13 -1.125770e-11 6.950172e-12))
908.390512    	((3.824984e-06 4.552603e-11 -1.122674e-10) (3.702123e-06 5.484810e-10 5.169518e-10)) ((2.983725e-14 1.941893e-14 -1.785550e-14) (1.941216e-13 -1.185519e-11 7.529490e-12))
932.269336    	((3.824642e-06 -1.590443e-11 -1.747736e-10) (3.701470e-06 5.306064e-10 4.987925e-10)) ((2.992886e-14 1.917640e-14 -1.788703e-14) (1.926786e-13 -1.238811e-11 8.047126e-12))
956.148694    	((3.824335e-06 -7.139590e-11 -2.315512e-10) (3.700891e-06 5.145685e-10 4.825611e-10)) ((3.000474e-14 1.894554e-14 -1.791574e-14) (1.910247e-13 -1.286406e-11 8.511911e-12))
980.028524    	((3.824061e-06 -1.218505e-10 -2.831520e-10) (3.700376e-06 5.002057e-10 4.679041e-10)) ((3.007894e-14 1.873226e-14 -1.793908e-14) (1.890690e-13 -1.329002e-11 8.927870e-12))
1003.908776   	((3.823816e-06 -1.677228e-10 -3.299463e-10) (3.699918e-06 4.872598e-10 4.546444e-10)) ((3.013457e-14 1.854461e-14 -1.796527e-14) (1.870249e-13 -1.367015e-11 9.300557e-12))
1027.789401   	((3.823599e-06 -2.091430e-10 -3.721684e-10) (3.699511e-06 4.755412e-10 4.426169e-10)) ((3.018856e-14 1.836350e-14 -1.798727e-14) (1.850637e-13 -1.401142e-11 9.635315e-12))
1051.670359   	((3.823403e-06 -2.476114e-10 -4.112945e-10) (3.699149e-06 4.648567e-10 4.316475e-10)) ((3.023085e-14 1.819361e-14 -1.801077e-14) (1.832027e-13 -1.431820e-11 9.935960e-12))
1075.551613   	((3.823227e-06 -2.824547e-10 -4.468021e-10) (3.698828e-06 4.551173e-10 4.216408e-10)) ((3.027795e-14 1.803046e-14 -1.802919e-14) (1.815035e-13 -1.459354e-11 1.020580e-11))
1099.43313    	((3.823067e-06 -3.140759e-10 -4.794299e-10) (3.698541e-06 4.462194e-10 4.125079e-10)) ((3.030990e-14 1.788880e-14 -1.804800e-14) (1.800149e-13 -1.483973e-11 1.044732e-11))
1123.314882   	((3.822927e-06 -3.430788e-10 -5.088433e-10) (3.698287e-06 4.380824e-10 4.041727e-10)) ((3.034906e-14 1.775271e-14 -1.806477e-14) (1.787119e-13 -1.506126e-11 1.066427e-11))
1147.196842   	((3.822801e-06 -3.692264e-10 -5.355348e-10) (3.698060e-06 4.306425e-10 3.965497e-10)) ((3.037593e-14 1.763716e-14 -1.808202e-14) (1.775398e-13 -1.525993e-11 1.085884e-11))
1171.078988   	((3.822689e-06 -3.928942e-10 -5.593972e-10) (3.697858e-06 4.238714e-10 3.896219e-10)) ((3.040563e-14 1.753246e-14 -1.809700e-14) (1.765699e-13 -1.543839e-11 1.103376e-11))
1194.961299   	((3.822589e-06 -4.139282e-10 -5.811787e-10) (3.697678e-06 4.177271e-10 3.833308e-10)) ((3.043465e-14 1.744326e-14 -1.810898e-14) (1.757617e-13 -1.559837e-11 1.119093e-11))
1218.843757   	((3.822502e-06 -4.326391e-10 -6.001721e-10) (3.697518e-06 4.121553e-10 3.776493e-10)) ((3.045055e-14 1.736540e-14 -1.811977e-14) (1.751235e-13 -1.574206e-11 1.133179e-11))
1242.726346   	((3.822420e-06 -4.495444e-10 -6.176363e-10) (3.697375e-06 4.071256e-10 3.724992e-10)) ((3.047569e-14 1.729082e-14 -1.812809e-14) (1.745583e-13 -1.587099e-11 1.145800e-11))
1266.609052   	((3.822351e-06 -4.645584e-10 -6.333388e-10) (3.697248e-06 4.026018e-10 3.678619e-10)) ((3.049071e-14 1.722672e-14 -1.813890e-14) (1.740830e-13 -1.598614e-11 1.157102e-11))
1290.491862   	((3.822286e-06 -4.779604e-10 -6.467142e-10) (3.697135e-06 3.985364e-10 3.636992e-10)) ((3.050447e-14 1.717822e-14 -1.814898e-14) (1.736735e-13 -1.608917e-11 1.167228e-11))
1314.374765   	((3.822229e-06 -4.898770e-10 -6.586453e-10) (3.697034e-06 3.949051e-10 3.599744e-10)) ((3.051831e-14 1.712914e-14 -1.815642e-14) (1.733152e-13 -1.618145e-11 1.176279e-11))
1338.25775    	((3.822179e-06 -5.001719e-10 -6.694516e-10) (3.696944e-06 3.916740e-10 3.566716e-10)) ((3.053075e-14 1.708529e-14 -1.816321e-14) (1.729968e-13 -1.626393e-11 1.184375e-11))
1362.140809   	((3.822132e-06 -5.095621e-10 -6.785968e-10) (3.696864e-06 3.887956e-10 3.537396e-10)) ((3.054174e-14 1.705080e-14 -1.816899e-14) (1.727313e-13 -1.633730e-11 1.191597e-11))
1386.023933   	((3.822090e-06 -5.178192e-10 -6.872512e-10) (3.696793e-06 3.862429e-10 3.511138e-10)) ((3.055180e-14 1.701733e-14 -1.817337e-14) (1.724878e-13 -1.640267e-11 1.198039e-11))
1409.907116   	((3.822056e-06 -5.250860e-10 -6.946303e-10) (3.696729e-06 3.839890e-10 3.487973e-10)) ((3.055970e-14 1.699062e-14 -1.817835e-14) (1.722789e-13 -1.646145e-11 1.203808e-11))
1433.790351   	((3.822022e-06 -5.315549e-10 -7.010381e-10) (3.696672e-06 3.819968e-10 3.467480e-10)) ((3.056735e-14 1.696329e-14 -1.818193e-14) (1.720833e-13 -1.651395e-11 1.208961e-11))
