# Forces      
# CofR        : (0.000000e+00 0.000000e+00 0.000000e+00)
# Time        forces(pressure viscous)	moments(pressure viscous)
0             	((0.000000e+00 0.000000e+00 0.000000e+00) (0.000000e+00 0.000000e+00 0.000000e+00)) ((0.000000e+00 0.000000e+00 0.000000e+00) (0.000000e+00 0.000000e+00 0.000000e+00))
0.012         	((1.392363e-09 -1.833447e-09 -4.331071e-07) (2.591796e-11 -9.448637e-12 -9.222964e-09)) ((1.940867e-13 -1.702095e-08 6.566173e-15) (-7.330930e-14 -1.109977e-05 6.745085e-13))
0.0264        	((-2.910863e-09 1.683452e-09 1.619035e-07) (-8.866573e-12 -2.440940e-11 -1.603678e-08)) ((4.099090e-14 -8.735068e-09 -8.167206e-13) (-3.275471e-13 -1.016783e-05 9.424476e-13))
0.04368       	((-1.256311e-08 -1.058093e-08 -1.494498e-07) (-3.067985e-11 -1.510558e-11 -1.773929e-08)) ((-1.756497e-13 -5.086439e-09 -5.156810e-13) (8.933963e-13 -9.214281e-06 1.282999e-12))
0.064416      	((1.156430e-08 2.099216e-09 -2.152906e-10) (-2.751941e-10 2.247614e-11 -1.474339e-08)) ((-1.070598e-13 -3.180570e-09 -7.122668e-14) (3.128232e-12 -8.263398e-06 1.797648e-12))
0.0892992     	((5.608209e-09 -2.855234e-09 -3.917796e-09) (-8.590272e-10 5.197893e-11 -1.192175e-08)) ((4.736914e-15 -2.558459e-09 -5.122508e-14) (4.632601e-12 -7.346232e-06 2.061110e-12))
0.119159      	((7.386733e-09 1.657428e-09 -1.459469e-08) (-1.129925e-09 8.822787e-11 -1.021023e-08)) ((3.106552e-14 -2.016943e-09 1.166339e-14) (5.807197e-12 -6.492988e-06 1.526884e-12))
0.154991      	((-7.322520e-09 3.223353e-09 2.059871e-08) (-8.893332e-10 1.519541e-10 -8.491790e-09)) ((9.565431e-14 -1.694295e-09 6.865802e-15) (6.471854e-12 -5.724372e-06 2.277895e-13))
0.197989      	((6.586812e-09 9.108597e-10 -7.881234e-09) (-3.604822e-10 1.900312e-10 -6.918726e-09)) ((-2.252286e-14 -1.404745e-09 -4.048049e-14) (6.090955e-12 -5.047606e-06 -4.367108e-13))
0.249587      	((-6.348007e-09 1.360783e-09 5.039245e-09) (1.245669e-10 2.247252e-10 -5.203316e-09)) ((3.224461e-14 -1.209282e-09 2.400816e-14) (6.010171e-12 -4.460268e-06 -2.483588e-13))
0.311504      	((3.117527e-09 -1.416306e-10 -2.591469e-09) (8.540053e-10 2.313292e-10 -3.837855e-09)) ((5.633927e-14 -1.060414e-09 3.103125e-14) (6.161647e-12 -3.955290e-06 2.704517e-13))
0.385805      	((1.344627e-08 3.807392e-10 -5.299004e-09) (1.673725e-09 2.065945e-10 -3.102489e-09)) ((3.036888e-14 -9.532455e-10 5.406266e-15) (6.059294e-12 -3.521378e-06 1.654618e-13))
0.474966      	((1.726361e-08 2.252057e-11 -9.659889e-10) (2.029871e-09 1.983329e-10 -2.493038e-09)) ((-1.225716e-13 -8.659899e-10 -3.913439e-15) (5.952214e-12 -3.146529e-06 -2.264717e-13))
0.581959      	((1.094668e-08 -8.563420e-10 1.211807e-09) (1.602842e-09 1.600915e-10 -1.239916e-09)) ((-7.151269e-16 -7.833438e-10 -7.517424e-14) (4.397685e-12 -2.822035e-06 -1.158699e-12))
0.710351      	((5.451690e-09 -1.065178e-09 4.671369e-09) (1.038446e-09 4.996263e-11 -1.695914e-10)) ((-3.907009e-14 -7.014730e-10 -1.191528e-13) (3.369296e-12 -2.539942e-06 -1.679650e-12))
0.864421      	((1.319040e-08 -1.530942e-09 -9.953754e-09) (1.360190e-09 -7.780072e-11 -8.373202e-11)) ((-2.458397e-13 -6.360478e-10 -1.445981e-13) (5.345900e-12 -2.293140e-06 -2.312985e-12))
1.049306      	((7.405069e-09 1.591281e-10 -7.444462e-09) (1.296244e-09 -6.390917e-11 1.960636e-10)) ((-2.777089e-13 -5.847570e-10 -4.112388e-16) (4.990616e-12 -2.075418e-06 -4.655657e-12))
1.271167      	((1.196655e-08 -5.103300e-10 -3.140480e-09) (8.854280e-10 -3.093266e-11 -9.358989e-11)) ((-2.338219e-13 -5.379100e-10 -5.846746e-14) (7.498147e-13 -1.881924e-06 -6.748944e-12))
1.5374        	((1.096388e-08 1.370074e-09 -3.649914e-10) (5.380361e-10 -7.800064e-11 2.031897e-10)) ((-4.306980e-13 -4.908003e-10 5.985472e-14) (-1.120568e-12 -1.709416e-06 -1.331701e-11))
1.85688       	((1.304782e-08 6.022074e-10 -5.124034e-09) (2.213001e-10 -5.540058e-11 9.774885e-10)) ((-6.929740e-13 -4.435831e-10 6.880919e-16) (-7.567521e-13 -1.556073e-06 -2.161379e-11))
2.240256      	((1.351658e-08 1.961562e-09 1.072425e-09) (-5.646240e-10 -1.062684e-10 1.244406e-09)) ((-8.774338e-13 -4.029091e-10 7.545955e-14) (-4.649918e-12 -1.420809e-06 -2.792735e-11))
2.700307      	((1.305145e-08 1.059292e-09 7.938173e-10) (-5.823101e-10 -2.239879e-10 4.455257e-10)) ((-8.913638e-13 -3.670034e-10 9.345071e-14) (-3.072733e-12 -1.302390e-06 -2.407425e-11))
3.252369      	((1.452629e-08 1.522397e-09 5.751095e-09) (-7.275060e-10 -1.987947e-10 5.990670e-10)) ((-6.821406e-13 -3.322661e-10 1.491779e-13) (2.211597e-12 -1.198964e-06 -2.236462e-11))
3.914842      	((6.134986e-09 1.512519e-09 8.042409e-09) (-3.744230e-10 -2.836972e-10 9.513264e-10)) ((-3.698318e-13 -2.985617e-10 1.224695e-13) (4.218738e-12 -1.108194e-06 -2.211346e-11))
4.709811      	((5.513776e-09 3.018395e-09 8.243653e-09) (1.796818e-09 -2.436532e-10 2.228824e-10)) ((-2.011056e-13 -2.675824e-10 4.074629e-14) (1.504698e-11 -1.027720e-06 -9.422619e-12))
5.663773      	((2.663913e-09 3.554582e-09 4.330218e-09) (3.216332e-09 -3.336542e-10 -1.056159e-09)) ((-1.113664e-13 -2.399235e-10 1.862698e-13) (2.726697e-11 -9.555508e-07 -1.067351e-12))
6.808528      	((-4.095827e-10 2.933514e-09 1.715976e-09) (3.487220e-09 -4.168288e-10 -2.102035e-09)) ((-6.738223e-14 -2.151348e-10 1.866605e-13) (3.412116e-11 -8.902193e-07 2.274742e-12))
8.182233      	((3.580841e-10 1.952741e-09 1.227577e-09) (2.910288e-09 -3.613490e-10 -2.129683e-09)) ((3.483676e-14 -1.933685e-10 2.740143e-13) (3.576944e-11 -8.306654e-07 7.206100e-12))
9.83068       	((1.904595e-10 6.815375e-10 1.573346e-10) (2.016889e-09 -4.555933e-10 -1.809320e-09)) ((2.464011e-13 -1.744613e-10 2.704489e-13) (2.738673e-11 -7.760900e-07 1.063785e-11))
11.808816     	((3.634270e-10 -5.085564e-11 -1.567497e-10) (1.708168e-09 -5.519181e-10 -1.459354e-09)) ((4.888512e-13 -1.564703e-10 1.406005e-13) (1.274265e-11 -7.258601e-07 1.424393e-11))
14.182579     	((1.017400e-09 4.167981e-11 1.257652e-09) (1.158103e-09 -3.423663e-10 -1.640184e-09)) ((6.035404e-13 -1.419591e-10 7.079546e-15) (6.972907e-14 -6.796743e-07 1.665532e-11))
17.031095     	((1.412416e-09 5.420501e-10 -8.325785e-10) (1.852835e-09 -2.339168e-10 -1.284204e-09)) ((5.791467e-13 -1.298702e-10 -2.101025e-14) (-8.361762e-12 -6.375429e-07 2.345849e-11))
20.449314     	((-1.271709e-09 -1.097183e-10 -1.071794e-09) (1.549406e-09 -1.689118e-10 -5.984335e-10)) ((6.076844e-13 -1.194330e-10 2.500919e-14) (-1.584784e-11 -5.995311e-07 3.076339e-11))
24.551176     	((-2.993206e-09 -2.782962e-10 -1.925331e-09) (5.638463e-10 -1.437135e-10 -1.060413e-09)) ((4.748795e-13 -1.101546e-10 4.527888e-14) (-2.309085e-11 -5.655875e-07 3.550409e-11))
29.473411     	((-3.035947e-09 -9.884016e-10 -1.511874e-09) (1.456543e-09 -2.181651e-10 -9.760840e-10)) ((4.173936e-13 -1.022023e-10 -3.130356e-15) (-3.150961e-11 -5.354136e-07 3.973575e-11))
35.380094     	((-4.638315e-09 -2.404186e-10 -3.590601e-09) (1.690338e-09 -2.721454e-10 -6.203723e-10)) ((3.421479e-13 -9.589589e-11 2.514449e-14) (-3.885478e-11 -5.086571e-07 4.234288e-11))
42.468112     	((-4.256003e-09 -4.707694e-10 -4.388087e-09) (2.137022e-09 -3.305320e-10 -1.359725e-09)) ((3.119923e-13 -9.035595e-11 1.989501e-14) (-4.457724e-11 -4.850575e-07 4.161766e-11))
50.839589     	((-4.135202e-09 -2.504258e-10 -4.925939e-09) (2.204721e-09 -1.280420e-10 -1.360651e-09)) ((2.747556e-13 -8.535801e-11 2.388318e-14) (-4.307538e-11 -4.645875e-07 4.215759e-11))
60.494387     	((-2.352479e-09 -4.733110e-10 -4.922716e-09) (1.980897e-09 -1.762074e-10 -1.917258e-09)) ((2.578097e-13 -8.075346e-11 1.204587e-13) (-3.789724e-11 -4.471390e-07 4.123529e-11))
71.43234      	((-5.007327e-10 -8.959166e-10 -4.711706e-09) (2.077406e-09 -2.420058e-10 -2.104111e-09)) ((1.991549e-13 -7.650852e-11 2.400715e-13) (-2.931938e-11 -4.325398e-07 4.046690e-11))
83.653243     	((1.133739e-09 -1.084487e-09 -3.307790e-09) (2.625875e-09 -2.975535e-10 -1.853849e-09)) ((1.545791e-13 -7.271915e-11 2.703500e-13) (-2.065368e-11 -4.206591e-07 4.117499e-11))
96.480262     	((1.456925e-09 -9.584317e-10 -2.716769e-09) (2.749631e-09 -2.459620e-10 -1.436614e-09)) ((9.731756e-14 -6.961568e-11 2.531731e-13) (-1.564354e-11 -4.115623e-07 4.182608e-11))
109.30432     	((1.761711e-09 -1.176822e-09 -1.343507e-09) (2.987431e-09 -2.822449e-10 -7.697612e-10)) ((5.337120e-14 -6.723633e-11 2.018669e-13) (-1.586939e-11 -4.050373e-07 4.303550e-11))
122.125155    	((2.146624e-09 -1.107717e-09 -9.726059e-11) (3.329274e-09 -2.953268e-10 -3.152871e-10)) ((1.510653e-14 -6.562050e-11 1.631736e-13) (-2.021200e-11 -4.007198e-07 4.513371e-11))
134.942527    	((1.742208e-09 -1.177778e-09 2.051133e-10) (2.715069e-09 -2.682667e-10 -1.573949e-10)) ((-2.697189e-14 -6.461662e-11 1.233994e-13) (-2.704751e-11 -3.983079e-07 4.614789e-11))
147.756121    	((1.567539e-09 -1.080583e-09 6.600328e-10) (2.498148e-09 -3.050273e-10 2.869395e-10)) ((-4.216898e-14 -6.411559e-11 8.245003e-14) (-3.323245e-11 -3.975533e-07 4.362864e-11))
160.565734    	((1.035272e-09 -1.185881e-09 1.440520e-09) (2.474569e-09 -3.988776e-10 5.696367e-10)) ((-2.553951e-14 -6.396167e-11 5.595918e-14) (-3.940020e-11 -3.982703e-07 3.985394e-11))
173.370936    	((5.157150e-10 -8.925788e-10 1.643281e-09) (2.454521e-09 -4.352707e-10 4.396765e-10)) ((-2.832093e-15 -6.404785e-11 3.171369e-14) (-4.400441e-11 -4.002950e-07 3.601761e-11))
186.171299    	((2.516869e-10 -8.778664e-10 1.531783e-09) (2.350068e-09 -4.391677e-10 4.096687e-10)) ((2.000233e-14 -6.442442e-11 1.071013e-14) (-4.631992e-11 -4.034528e-07 3.161833e-11))
198.966516    	((3.715740e-10 -7.209423e-10 8.294485e-10) (2.458306e-09 -4.018549e-10 3.419233e-10)) ((3.444376e-14 -6.504799e-11 -1.138395e-14) (-4.565327e-11 -4.075439e-07 2.868901e-11))
211.756301    	((2.205136e-10 -5.979788e-10 3.094583e-10) (2.400296e-09 -3.565098e-10 2.243933e-10)) ((4.626672e-14 -6.569654e-11 -2.981379e-14) (-4.314323e-11 -4.123435e-07 2.723371e-11))
224.540417    	((2.372324e-10 -7.195835e-10 -2.790657e-10) (2.303726e-09 -3.617043e-10 9.714211e-11)) ((5.848149e-14 -6.643142e-11 -3.370209e-14) (-4.064887e-11 -4.176168e-07 2.675815e-11))
237.318638    	((3.948023e-11 -7.510940e-10 -8.984017e-10) (2.223008e-09 -3.987160e-10 8.628685e-11)) ((7.190903e-14 -6.734685e-11 -3.812600e-14) (-3.914517e-11 -4.231264e-07 2.763316e-11))
250.090728    	((-3.066541e-10 -7.404884e-10 -9.798154e-10) (2.067444e-09 -4.310796e-10 5.896164e-11)) ((9.727238e-14 -6.839394e-11 -5.000276e-14) (-3.907110e-11 -4.286345e-07 2.922496e-11))
262.8564      	((-7.757765e-10 -5.952985e-10 -1.012539e-09) (1.962506e-09 -4.264424e-10 9.503765e-13)) ((1.297896e-13 -6.963865e-11 -7.356035e-14) (-3.922250e-11 -4.339044e-07 3.136976e-11))
275.61531     	((-9.620767e-10 -4.704470e-10 -6.483259e-10) (1.970223e-09 -4.197508e-10 1.548406e-11)) ((1.508218e-13 -7.085771e-11 -9.212567e-14) (-4.025451e-11 -4.387335e-07 3.375492e-11))
288.275519    	((-1.788124e-09 -3.971778e-10 -1.109912e-09) (2.040078e-09 -4.196510e-10 4.233358e-11)) ((1.674077e-13 -7.190377e-11 -1.079061e-13) (-4.221421e-11 -4.429391e-07 3.491914e-11))
300.825392    	((-2.164084e-09 -4.969284e-10 -8.577200e-10) (2.044114e-09 -4.370284e-10 3.898859e-11)) ((1.662045e-13 -7.280417e-11 -1.088813e-13) (-4.381226e-11 -4.463939e-07 3.460213e-11))
