# Forces      
# CofR        : (0.000000e+00 0.000000e+00 0.000000e+00)
# Time        forces(pressure viscous)	moments(pressure viscous)
0             	((0.000000e+00 0.000000e+00 0.000000e+00) (-9.095225e-15 6.341130e-05 3.266625e-16)) ((0.000000e+00 0.000000e+00 0.000000e+00) (3.131824e-16 1.470739e-17 -2.298323e-11))
0.012         	((-3.969737e-10 1.844236e-02 -3.386847e-09) (-4.352988e-11 7.276603e-05 -5.508711e-11)) ((7.617800e-12 1.274524e-13 -3.485219e-09) (3.161040e-13 1.395979e-14 -4.763078e-11))
0.0264        	((-1.254328e-07 -1.288139e-03 2.936543e-09) (-1.656603e-10 7.423207e-05 -4.981737e-11)) ((-1.547170e-11 -1.813507e-12 2.261675e-10) (-4.386012e-13 -9.460663e-14 -6.433915e-11))
0.04368       	((2.967607e-07 -3.852102e-03 -1.245360e-07) (1.152286e-11 6.595700e-05 -9.801335e-11)) ((-9.240729e-12 2.221670e-12 9.346749e-10) (-2.510486e-12 -1.386282e-13 -5.545581e-11))
0.064416      	((-6.901198e-08 -3.648124e-05 6.339682e-08) (1.288455e-09 5.841489e-05 7.520752e-10)) ((6.644010e-12 9.958920e-13 -4.947280e-11) (5.345151e-12 -3.192641e-13 -7.036713e-11))
0.0892992     	((-1.984711e-08 4.927204e-05 4.765648e-08) (1.568531e-09 5.392668e-05 1.432461e-09)) ((7.010268e-13 -2.187197e-12 -4.869098e-11) (8.673052e-12 -1.006666e-12 -7.441825e-11))
0.119159      	((1.588577e-08 -5.823486e-05 6.971836e-08) (9.645527e-10 4.979485e-05 1.465882e-09)) ((5.568946e-12 5.390807e-13 1.552322e-11) (-6.202335e-12 -1.871779e-12 -6.239938e-11))
0.154991      	((-1.372152e-08 -3.115934e-05 1.011980e-08) (6.259951e-10 4.541955e-05 1.380144e-09)) ((3.339894e-12 8.709610e-13 2.848788e-12) (-1.903192e-11 -3.439648e-12 -4.061958e-11))
0.197989      	((1.648954e-08 -7.531867e-06 -6.334941e-09) (1.889742e-10 4.101208e-05 1.051628e-09)) ((4.167505e-12 2.420673e-13 -1.810852e-13) (-1.642111e-11 -5.405196e-12 -1.268841e-11))
0.249587      	((7.062652e-09 1.058866e-06 -1.930367e-09) (-1.320942e-10 3.669673e-05 7.683320e-10)) ((2.286846e-12 2.769523e-13 -3.483299e-12) (-1.003407e-11 -6.194343e-12 3.185737e-12))
0.311504      	((-2.493856e-09 4.979438e-06 -4.108146e-10) (-2.898311e-10 3.260510e-05 5.345080e-10)) ((1.715029e-12 1.319676e-13 -4.309880e-12) (-5.887002e-12 -5.888581e-12 2.133703e-11))
0.385805      	((-2.096640e-09 6.857921e-06 -1.457992e-10) (-3.222962e-10 2.884298e-05 3.625206e-10)) ((1.347757e-12 6.410499e-14 -3.032207e-12) (-2.601978e-12 -5.208056e-12 3.237173e-11))
0.474966      	((-1.057903e-09 7.785742e-06 -9.831355e-10) (-1.697675e-10 2.547801e-05 2.560240e-10)) ((8.715680e-13 -1.081026e-14 -2.540383e-12) (6.155297e-13 -4.463350e-12 2.170706e-11))
0.581959      	((1.873149e-10 8.176287e-06 -5.783153e-10) (1.319166e-10 2.252809e-05 1.771589e-10)) ((5.368316e-13 -4.656041e-15 -2.215927e-12) (2.818285e-12 -3.666801e-12 1.676176e-12))
0.710351      	((5.164318e-13 8.150073e-06 -8.576038e-10) (4.391621e-10 1.998466e-05 1.069199e-10)) ((3.268968e-13 -2.385118e-14 -1.862207e-12) (3.607808e-12 -2.977695e-12 -1.059347e-11))
0.864421      	((-5.393878e-11 7.858403e-06 -7.015618e-10) (6.378433e-10 1.781554e-05 3.545790e-11)) ((1.519840e-13 -2.491562e-14 -2.051847e-12) (3.731492e-12 -2.533228e-12 -1.644452e-11))
1.049306      	((2.434094e-10 7.424971e-06 -6.565005e-10) (7.031492e-10 1.596975e-05 1.332877e-12)) ((6.343911e-14 -1.475570e-14 -2.041067e-12) (2.442324e-12 -2.070597e-12 -1.744314e-11))
1.271167      	((3.536774e-10 6.938965e-06 -4.210512e-10) (6.653520e-10 1.439379e-05 2.008383e-12)) ((4.573694e-15 -1.089845e-14 -1.806275e-12) (1.402940e-12 -1.551001e-12 -1.911648e-11))
1.5374        	((5.119678e-10 6.434878e-06 -1.874593e-10) (5.585189e-10 1.303251e-05 3.292990e-12)) ((-2.334297e-14 -1.062123e-14 -1.759223e-12) (1.009682e-12 -1.153890e-12 -2.513353e-11))
1.85688       	((5.639723e-10 5.939493e-06 -1.053245e-10) (3.915378e-10 1.183687e-05 4.215602e-12)) ((-2.272005e-14 -9.763852e-15 -1.698732e-12) (3.830274e-13 -9.634627e-13 -3.165346e-11))
2.240256      	((4.580360e-10 5.469473e-06 -6.274813e-11) (2.050282e-10 1.077429e-05 -4.413432e-12)) ((-1.675651e-14 -9.582230e-15 -1.675209e-12) (-4.858544e-13 -8.993745e-13 -3.815433e-11))
2.700307      	((4.903552e-10 5.031462e-06 -6.240848e-11) (1.432610e-10 9.823612e-06 -1.529632e-11)) ((-1.481571e-14 -7.517552e-15 -1.627496e-12) (-1.350566e-12 -7.564807e-13 -4.178529e-11))
3.252369      	((2.999480e-10 4.625260e-06 -8.630454e-11) (1.478337e-10 8.969399e-06 -2.065210e-11)) ((-7.149316e-15 -8.515951e-15 -1.539520e-12) (-2.371373e-12 -6.465087e-13 -4.101150e-11))
3.914842      	((1.223147e-10 4.246993e-06 -2.240461e-10) (1.367157e-10 8.199921e-06 -3.065107e-11)) ((3.051423e-16 -1.084879e-14 -1.404358e-12) (-3.363213e-12 -5.490366e-13 -3.814609e-11))
4.709811      	((-1.231311e-10 3.897863e-06 -3.172271e-10) (1.174708e-10 7.506692e-06 -3.726803e-11)) ((1.011433e-14 -1.308171e-14 -1.235739e-12) (-3.686390e-12 -4.712833e-13 -3.405767e-11))
5.663773      	((-2.551280e-10 3.578696e-06 -5.176642e-10) (8.274278e-11 6.883323e-06 -4.436782e-11)) ((1.882284e-14 -1.796733e-14 -1.087879e-12) (-3.285353e-12 -3.709253e-13 -3.201615e-11))
6.808528      	((-5.996868e-11 3.289904e-06 -5.171759e-10) (5.464703e-11 6.324246e-06 -4.839405e-11)) ((2.047134e-14 -1.714442e-14 -9.350259e-13) (-2.792486e-12 -2.516669e-13 -3.189497e-11))
8.182233      	((-4.600109e-11 3.030871e-06 -5.245723e-10) (3.983752e-11 5.823344e-06 -4.490413e-11)) ((1.851234e-14 -1.585176e-14 -8.004133e-13) (-2.920229e-12 -2.181677e-13 -3.155436e-11))
9.83068       	((-7.116714e-11 2.799270e-06 -6.077945e-10) (3.232187e-11 5.373682e-06 -3.636893e-11)) ((2.080887e-14 -1.554446e-14 -7.060486e-13) (-3.732348e-12 -1.217046e-13 -3.023770e-11))
11.808816     	((1.787788e-11 2.591853e-06 -6.284536e-10) (2.520239e-11 4.968821e-06 -3.018954e-11)) ((2.277370e-14 -1.938530e-14 -6.462292e-13) (-5.546691e-12 -1.250179e-14 -2.832323e-11))
14.182579     	((-2.306100e-10 2.407150e-06 -8.130379e-10) (1.297468e-11 4.603304e-06 -3.838608e-11)) ((2.611536e-14 -2.173154e-14 -5.983470e-13) (-8.806276e-12 4.993016e-14 -2.525892e-11))
17.031095     	((-2.414249e-10 2.244465e-06 -7.324546e-10) (-1.492629e-11 4.272684e-06 -4.660026e-11)) ((2.598058e-14 -2.125873e-14 -5.702173e-13) (-1.313544e-11 5.639029e-14 -1.873177e-11))
20.449314     	((-3.548499e-10 2.102938e-06 -7.565695e-10) (-8.940926e-11 3.973666e-06 -5.807030e-11)) ((2.728586e-14 -1.892803e-14 -5.622622e-13) (-1.777642e-11 -6.260865e-16 -9.911230e-12))
24.551176     	((-5.332547e-10 1.982185e-06 -8.199075e-10) (-1.579093e-10 3.703862e-06 -8.345376e-11)) ((2.846877e-14 -1.931767e-14 -5.759450e-13) (-2.191743e-11 -8.393022e-14 -3.646987e-12))
29.473411     	((-5.385495e-10 1.881913e-06 -6.866045e-10) (-1.892692e-10 3.461492e-06 -9.746828e-11)) ((2.757045e-14 -1.752601e-14 -6.071667e-13) (-2.491276e-11 -1.901740e-13 1.268447e-14))
35.380094     	((-3.769967e-10 1.800685e-06 -5.143382e-10) (-1.954567e-10 3.245021e-06 -1.011673e-10)) ((2.742657e-14 -1.615758e-14 -6.522651e-13) (-2.754982e-11 -3.933812e-13 4.519677e-12))
42.468112     	((-2.093984e-10 1.737918e-06 -3.644209e-10) (-2.037183e-10 3.052840e-06 -1.050211e-10)) ((2.463880e-14 -1.342520e-14 -7.102145e-13) (-3.111567e-11 -5.744876e-13 1.030922e-11))
50.973735     	((4.796200e-11 1.692338e-06 -1.142544e-10) (-1.905447e-10 2.883358e-06 -1.066992e-10)) ((2.095321e-14 -1.385441e-14 -7.730683e-13) (-3.622444e-11 -6.272409e-13 1.759457e-11))
61.180482     	((2.879932e-10 1.663289e-06 1.482180e-10) (-1.822482e-10 2.734990e-06 -1.091355e-10)) ((1.854412e-14 -1.548256e-14 -8.476155e-13) (-4.271524e-11 -6.561497e-13 2.649414e-11))
73.428578     	((6.624310e-10 1.650382e-06 5.061450e-10) (-1.639380e-10 2.606452e-06 -1.090787e-10)) ((1.280961e-14 -1.539610e-14 -9.409941e-13) (-5.005370e-11 -6.474791e-13 3.614916e-11))
88.126294     	((1.072431e-09 1.650894e-06 9.252418e-10) (-1.548636e-10 2.496677e-06 -9.785696e-11)) ((9.226392e-15 -1.367917e-14 -1.052443e-12) (-5.746704e-11 -6.224932e-13 4.665147e-11))
105.763553    	((1.395613e-09 1.662735e-06 1.314470e-09) (-1.391419e-10 2.404607e-06 -7.732136e-11)) ((5.638321e-15 -1.239124e-14 -1.174469e-12) (-6.411029e-11 -6.318147e-13 5.666970e-11))
126.928263    	((1.788950e-09 1.682809e-06 1.722315e-09) (-1.070283e-10 2.329142e-06 -4.826324e-11)) ((5.861405e-16 -1.198048e-14 -1.291673e-12) (-6.915137e-11 -5.764662e-13 6.461038e-11))
152.086627    	((2.151294e-09 1.707304e-06 2.058961e-09) (-6.294732e-11 2.268849e-06 6.377886e-12)) ((-6.993358e-15 -1.263854e-14 -1.398551e-12) (-7.218071e-11 -5.751250e-13 6.953898e-11))
181.217023    	((2.393268e-09 1.731283e-06 2.321060e-09) (-8.675094e-12 2.221563e-06 7.885269e-11)) ((-8.947001e-15 -1.289936e-14 -1.472871e-12) (-7.267501e-11 -5.447823e-13 7.141170e-11))
214.301845    	((2.734062e-09 1.749735e-06 2.645385e-09) (6.204679e-11 2.184210e-06 1.541575e-10)) ((-1.416734e-14 -1.256777e-14 -1.524976e-12) (-7.142353e-11 -4.957012e-13 7.106357e-11))
251.335385    	((2.970950e-09 1.761130e-06 2.864780e-09) (1.626648e-10 2.153930e-06 2.540647e-10)) ((-1.674068e-14 -1.240773e-14 -1.566335e-12) (-6.868060e-11 -4.668511e-13 6.870764e-11))
290.870572    	((3.124796e-09 1.767382e-06 3.007930e-09) (2.672882e-10 2.129085e-06 3.562024e-10)) ((-1.871091e-14 -1.261159e-14 -1.599937e-12) (-6.509776e-11 -4.704074e-13 6.512968e-11))
330.486121    	((3.210880e-09 1.770733e-06 3.076829e-09) (3.679532e-10 2.108626e-06 4.530874e-10)) ((-2.053632e-14 -1.239967e-14 -1.623779e-12) (-6.120769e-11 -4.631804e-13 6.116779e-11))
370.163556    	((3.223269e-09 1.771956e-06 3.074846e-09) (4.628501e-10 2.091492e-06 5.417625e-10)) ((-2.137904e-14 -1.259669e-14 -1.644370e-12) (-5.685724e-11 -4.417326e-13 5.683722e-11))
409.881437    	((3.161409e-09 1.772518e-06 3.020689e-09) (5.438369e-10 2.077215e-06 6.154599e-10)) ((-2.084879e-14 -1.269665e-14 -1.661639e-12) (-5.236467e-11 -4.177531e-13 5.235475e-11))
449.629615    	((3.046223e-09 1.772610e-06 2.913375e-09) (6.047789e-10 2.065289e-06 6.708052e-10)) ((-2.012995e-14 -1.295360e-14 -1.674307e-12) (-4.783208e-11 -4.040230e-13 4.791772e-11))
489.40462     	((2.899512e-09 1.772434e-06 2.762025e-09) (6.477032e-10 2.055320e-06 7.084645e-10)) ((-1.968631e-14 -1.321207e-14 -1.685503e-12) (-4.338641e-11 -4.074595e-13 4.360202e-11))
529.203606    	((2.711944e-09 1.772021e-06 2.573869e-09) (6.708254e-10 2.046958e-06 7.277432e-10)) ((-1.852498e-14 -1.344045e-14 -1.693703e-12) (-3.916754e-11 -4.094816e-13 3.950733e-11))
569.023233    	((2.505466e-09 1.771527e-06 2.369509e-09) (6.778815e-10 2.039935e-06 7.320198e-10)) ((-1.741240e-14 -1.373119e-14 -1.700260e-12) (-3.514577e-11 -4.134605e-13 3.558593e-11))
608.860277    	((2.301579e-09 1.771005e-06 2.167333e-09) (6.737801e-10 2.034023e-06 7.247898e-10)) ((-1.615521e-14 -1.410580e-14 -1.705858e-12) (-3.134009e-11 -4.127002e-13 3.185625e-11))
648.711992    	((2.099383e-09 1.770510e-06 1.965046e-09) (6.592334e-10 2.029043e-06 7.079237e-10)) ((-1.483723e-14 -1.442631e-14 -1.710802e-12) (-2.781499e-11 -4.079109e-13 2.838238e-11))
688.576071    	((1.907365e-09 1.770015e-06 1.768201e-09) (6.370415e-10 2.024836e-06 6.837297e-10)) ((-1.363749e-14 -1.480865e-14 -1.714958e-12) (-2.458111e-11 -3.996799e-13 2.520205e-11))
728.450567    	((1.723969e-09 1.769569e-06 1.578555e-09) (6.097759e-10 2.021279e-06 6.538471e-10)) ((-1.251763e-14 -1.513670e-14 -1.718605e-12) (-2.163078e-11 -3.924916e-13 2.230815e-11))
768.333843    	((1.547087e-09 1.769146e-06 1.400217e-09) (5.785945e-10 2.018266e-06 6.203656e-10)) ((-1.150239e-14 -1.545915e-14 -1.721713e-12) (-1.895894e-11 -3.847643e-13 1.969386e-11))
808.224508    	((1.386595e-09 1.768763e-06 1.237206e-09) (5.455201e-10 2.015709e-06 5.854324e-10)) ((-1.064835e-14 -1.573723e-14 -1.724275e-12) (-1.654165e-11 -3.784426e-13 1.732329e-11))
848.121407    	((1.237969e-09 1.768413e-06 1.087086e-09) (5.114856e-10 2.013537e-06 5.495522e-10)) ((-9.912734e-15 -1.597811e-14 -1.726443e-12) (-1.438801e-11 -3.722552e-13 1.519604e-11))
888.02357     	((1.107261e-09 1.768094e-06 9.564224e-10) (4.779469e-10 2.011687e-06 5.143149e-10)) ((-9.360613e-15 -1.616440e-14 -1.728264e-12) (-1.248064e-11 -3.668678e-13 1.329998e-11))
927.930185    	((9.909737e-10 1.767807e-06 8.399316e-10) (4.458057e-10 2.010111e-06 4.807710e-10)) ((-8.890614e-15 -1.634086e-14 -1.729800e-12) (-1.079540e-11 -3.631974e-13 1.161991e-11))
967.840571    	((8.902692e-10 1.767552e-06 7.392853e-10) (4.154712e-10 2.008765e-06 4.493893e-10)) ((-8.502345e-15 -1.648569e-14 -1.731187e-12) (-9.316986e-12 -3.597813e-13 1.014049e-11))
1007.754158   	((8.045912e-10 1.767325e-06 6.530722e-10) (3.875645e-10 2.007616e-06 4.206405e-10)) ((-8.221552e-15 -1.661679e-14 -1.732346e-12) (-8.025613e-12 -3.573947e-13 8.844823e-12))
1047.670464   	((7.323408e-10 1.767123e-06 5.813658e-10) (3.624854e-10 2.006634e-06 3.948822e-10)) ((-8.037172e-15 -1.670281e-14 -1.733311e-12) (-6.908120e-12 -3.557698e-13 7.718185e-12))
1087.589089   	((6.704334e-10 1.766944e-06 5.204923e-10) (3.402165e-10 2.005794e-06 3.722015e-10)) ((-7.880858e-15 -1.680404e-14 -1.734123e-12) (-5.939002e-12 -3.542003e-13 6.741259e-12))
1127.509695   	((6.196002e-10 1.766788e-06 4.702778e-10) (3.206996e-10 2.005074e-06 3.524404e-10)) ((-7.748644e-15 -1.688609e-14 -1.734811e-12) (-5.106642e-12 -3.526742e-13 5.902437e-12))
1167.431997   	((5.770474e-10 1.766651e-06 4.286913e-10) (3.038606e-10 2.004458e-06 3.354574e-10)) ((-7.636642e-15 -1.693259e-14 -1.735405e-12) (-4.393639e-12 -3.516801e-13 5.182788e-12))
1207.355754   	((5.419724e-10 1.766533e-06 3.943114e-10) (2.894580e-10 2.003930e-06 3.209978e-10)) ((-7.563532e-15 -1.697693e-14 -1.735909e-12) (-3.785358e-12 -3.507552e-13 4.567076e-12))
1247.280762   	((5.130846e-10 1.766427e-06 3.657464e-10) (2.773145e-10 2.003477e-06 3.087797e-10)) ((-7.496571e-15 -1.702751e-14 -1.736347e-12) (-3.269215e-12 -3.496195e-13 4.042359e-12))
1287.206847   	((4.891535e-10 1.766335e-06 3.423648e-10) (2.671226e-10 2.003089e-06 2.985682e-10)) ((-7.448759e-15 -1.707270e-14 -1.736722e-12) (-2.830661e-12 -3.485040e-13 3.596281e-12))
1327.13386    	((4.693428e-10 1.766254e-06 3.226268e-10) (2.586405e-10 2.002755e-06 2.900932e-10)) ((-7.406404e-15 -1.711185e-14 -1.737042e-12) (-2.457854e-12 -3.475330e-13 3.217480e-12))
1367.061674   	((4.529232e-10 1.766185e-06 3.065050e-10) (2.516065e-10 2.002469e-06 2.830762e-10)) ((-7.372128e-15 -1.714207e-14 -1.737312e-12) (-2.141970e-12 -3.467110e-13 2.897159e-12))
1406.990179   	((4.390612e-10 1.766125e-06 2.930528e-10) (2.457665e-10 2.002222e-06 2.772784e-10)) ((-7.337654e-15 -1.717183e-14 -1.737545e-12) (-1.872358e-12 -3.460378e-13 2.624598e-12))
1446.919282   	((4.274223e-10 1.766072e-06 2.815691e-10) (2.409396e-10 2.002011e-06 2.724940e-10)) ((-7.307684e-15 -1.719532e-14 -1.737746e-12) (-1.643333e-12 -3.454881e-13 2.393664e-12))
1486.8489     	((4.172985e-10 1.766026e-06 2.716427e-10) (2.369283e-10 2.001829e-06 2.685228e-10)) ((-7.280521e-15 -1.721619e-14 -1.737915e-12) (-1.447835e-12 -3.450060e-13 2.197060e-12))
1526.778964   	((4.085052e-10 1.765986e-06 2.629358e-10) (2.335718e-10 2.001673e-06 2.652134e-10)) ((-7.252935e-15 -1.723457e-14 -1.738062e-12) (-1.280522e-12 -3.445738e-13 2.029140e-12))
1566.709411   	((4.009045e-10 1.765951e-06 2.553938e-10) (2.307510e-10 2.001538e-06 2.624353e-10)) ((-7.225540e-15 -1.725148e-14 -1.738188e-12) (-1.136952e-12 -3.441754e-13 1.885521e-12))
1606.64019    	((3.941474e-10 1.765921e-06 2.486807e-10) (2.283597e-10 2.001423e-06 2.600710e-10)) ((-7.203647e-15 -1.726371e-14 -1.738297e-12) (-1.013500e-12 -3.438430e-13 1.762286e-12))
1646.571254   	((3.882480e-10 1.765895e-06 2.427205e-10) (2.263085e-10 2.001323e-06 2.580343e-10)) ((-7.181377e-15 -1.727721e-14 -1.738390e-12) (-9.068581e-13 -3.435462e-13 1.656254e-12))
1686.502563   	((3.829940e-10 1.765873e-06 2.374045e-10) (2.245368e-10 2.001238e-06 2.562643e-10)) ((-7.156668e-15 -1.728895e-14 -1.738470e-12) (-8.145229e-13 -3.433113e-13 1.564846e-12))
1726.434084   	((3.783872e-10 1.765854e-06 2.325214e-10) (2.229900e-10 2.001164e-06 2.547271e-10)) ((-7.139013e-15 -1.729800e-14 -1.738540e-12) (-7.345259e-13 -3.431235e-13 1.486000e-12))
1766.365787   	((3.741937e-10 1.765837e-06 2.281958e-10) (2.216310e-10 2.001100e-06 2.533684e-10)) ((-7.118438e-15 -1.730644e-14 -1.738598e-12) (-6.649527e-13 -3.429594e-13 1.417719e-12))
1806.297646   	((3.705304e-10 1.765822e-06 2.244805e-10) (2.204251e-10 2.001046e-06 2.521463e-10)) ((-7.104466e-15 -1.731418e-14 -1.738650e-12) (-6.046227e-13 -3.428358e-13 1.358568e-12))
1846.229638   	((3.672110e-10 1.765810e-06 2.210404e-10) (2.193555e-10 2.000999e-06 2.510538e-10)) ((-7.089989e-15 -1.732065e-14 -1.738694e-12) (-5.521199e-13 -3.427275e-13 1.307231e-12))
1886.161746   	((3.643743e-10 1.765799e-06 2.181973e-10) (2.184074e-10 2.000958e-06 2.500787e-10)) ((-7.077523e-15 -1.732551e-14 -1.738732e-12) (-5.066039e-13 -3.426354e-13 1.262827e-12))
1926.093952   	((3.618929e-10 1.765790e-06 2.156752e-10) (2.175653e-10 2.000924e-06 2.492059e-10)) ((-7.066702e-15 -1.732974e-14 -1.738764e-12) (-4.670048e-13 -3.425575e-13 1.224257e-12))
1966.026244   	((3.597583e-10 1.765782e-06 2.135076e-10) (2.168208e-10 2.000894e-06 2.484324e-10)) ((-7.057868e-15 -1.733341e-14 -1.738792e-12) (-4.325582e-13 -3.424920e-13 1.190764e-12))
2005.958608   	((3.578771e-10 1.765775e-06 2.115498e-10) (2.161635e-10 2.000868e-06 2.477444e-10)) ((-7.050547e-15 -1.733679e-14 -1.738816e-12) (-4.026789e-13 -3.424382e-13 1.161763e-12))
2045.891035   	((3.562879e-10 1.765769e-06 2.099427e-10) (2.155866e-10 2.000845e-06 2.471362e-10)) ((-7.044472e-15 -1.733945e-14 -1.738837e-12) (-3.768249e-13 -3.423942e-13 1.136688e-12))
2085.823515   	((3.549321e-10 1.765764e-06 2.085759e-10) (2.150830e-10 2.000826e-06 2.466041e-10)) ((-7.039554e-15 -1.734168e-14 -1.738855e-12) (-3.545021e-13 -3.423575e-13 1.115046e-12))
2125.756041   	((3.537159e-10 1.765759e-06 2.072429e-10) (2.146450e-10 2.000810e-06 2.461382e-10)) ((-7.035829e-15 -1.734425e-14 -1.738871e-12) (-3.352876e-13 -3.423239e-13 1.096414e-12))
2165.688608   	((3.527271e-10 1.765755e-06 2.061745e-10) (2.142680e-10 2.000795e-06 2.457430e-10)) ((-7.030669e-15 -1.734611e-14 -1.738884e-12) (-3.187832e-13 -3.422965e-13 1.080386e-12))
2205.621208   	((3.519627e-10 1.765752e-06 2.054977e-10) (2.139456e-10 2.000783e-06 2.454042e-10)) ((-7.030419e-15 -1.734730e-14 -1.738896e-12) (-3.047419e-13 -3.422696e-13 1.066764e-12))
2245.553838   	((3.512965e-10 1.765749e-06 2.048421e-10) (2.136710e-10 2.000773e-06 2.451141e-10)) ((-7.028601e-15 -1.734833e-14 -1.738905e-12) (-2.926899e-13 -3.422500e-13 1.055084e-12))
2285.486493   	((3.507336e-10 1.765747e-06 2.042783e-10) (2.134387e-10 2.000763e-06 2.448679e-10)) ((-7.026875e-15 -1.734936e-14 -1.738914e-12) (-2.823513e-13 -3.422324e-13 1.045053e-12))
