# Forces      
# CofR        : (0.000000e+00 0.000000e+00 0.000000e+00)
# Time        forces(pressure viscous)	moments(pressure viscous)
0             	((0.000000e+00 0.000000e+00 0.000000e+00) (-2.179096e-14 -9.971251e-15 3.178686e-04)) ((0.000000e+00 0.000000e+00 0.000000e+00) (5.612112e-16 1.230103e-10 7.840653e-18))
0.012         	((-6.457279e-09 -4.510646e-08 9.240439e-02) (-2.458250e-10 -2.886325e-10 3.645012e-04)) ((3.673111e-11 2.449909e-08 3.212903e-13) (-2.089565e-12 3.556448e-10 2.362984e-14))
0.0264        	((-9.246479e-08 1.132229e-07 -7.006441e-03) (-5.308175e-10 -3.090521e-10 3.712528e-04)) ((-3.202537e-11 -1.638989e-09 5.035593e-12) (-2.358277e-12 4.711954e-10 9.347984e-14))
0.04368       	((2.403756e-07 2.694655e-09 -1.900072e-02) (-3.675591e-10 -3.640764e-11 3.293323e-04)) ((-2.102753e-10 -4.311611e-09 -8.823090e-12) (5.355154e-12 4.748711e-10 2.404196e-13))
0.064416      	((-1.270741e-07 2.692673e-07 -1.792782e-04) (6.902899e-09 5.057407e-09 2.915493e-04)) ((6.949353e-11 1.402895e-10 4.441199e-12) (-3.171812e-11 5.975887e-10 1.553228e-12))
0.0892992     	((3.060133e-07 4.711895e-09 1.914376e-04) (9.398008e-09 7.747041e-09 2.690472e-04)) ((2.562009e-11 -1.321880e-10 -2.206478e-12) (-2.410808e-11 6.953927e-10 1.628264e-13))
0.119159      	((9.990721e-08 2.372306e-07 -3.091209e-04) (4.572547e-09 6.269762e-09 2.483754e-04)) ((1.178931e-11 -1.728655e-10 3.120927e-14) (1.885309e-11 7.353611e-10 1.846405e-12))
0.154991      	((-1.945761e-07 -3.547649e-08 -1.556458e-04) (1.310467e-09 4.818498e-09 2.267015e-04)) ((-1.454157e-12 -5.705096e-11 1.206594e-12) (-2.073473e-11 7.271226e-10 4.744512e-12))
0.197989      	((-2.887857e-08 -3.040187e-08 -3.659879e-05) (9.285805e-10 3.331492e-09 2.051153e-04)) ((1.995886e-12 -4.696394e-12 -5.169066e-13) (-7.712176e-11 6.365999e-10 1.896612e-12))
0.249587      	((1.350225e-08 -1.632920e-08 5.814281e-06) (1.259254e-09 2.252122e-09 1.843012e-04)) ((4.774491e-12 2.275880e-11 2.641765e-13) (-8.768245e-11 5.704476e-10 -1.547005e-12))
0.311504      	((-1.717986e-09 -6.710262e-09 2.569185e-05) (3.548939e-10 1.291909e-09 1.648606e-04)) ((3.865465e-13 3.791177e-11 -4.565035e-14) (-9.039843e-11 5.483075e-10 -2.684067e-12))
0.385805      	((-2.017315e-08 -1.248779e-08 3.679177e-05) (-6.620940e-10 8.288702e-10 1.472722e-04)) ((3.921001e-13 4.890209e-11 2.971965e-13) (-8.310625e-11 5.209460e-10 -1.900814e-12))
0.474966      	((-2.448591e-08 -1.294026e-08 4.251339e-05) (-1.785716e-09 5.599373e-10 1.317767e-04)) ((9.831353e-14 5.319836e-11 3.180785e-13) (-6.542537e-11 4.988656e-10 -6.878822e-13))
0.581959      	((-1.543362e-08 -1.362330e-08 4.488410e-05) (-2.265996e-09 4.832251e-10 1.181477e-04)) ((-1.632799e-14 5.194686e-11 3.141622e-13) (-4.094711e-11 4.932161e-10 -2.519409e-13))
0.710351      	((-1.085026e-08 -8.565508e-09 4.482771e-05) (-2.306146e-09 4.044818e-10 1.060795e-04)) ((-9.676725e-14 5.115547e-11 2.027240e-13) (-2.661125e-11 5.046251e-10 -4.321985e-13))
0.864421      	((-6.028288e-09 -7.678834e-09 4.324680e-05) (-2.025302e-09 2.972513e-10 9.537957e-05)) ((2.685575e-14 4.868799e-11 1.395627e-13) (-2.262621e-11 5.233012e-10 -5.694392e-13))
1.049306      	((-3.625642e-09 -4.844308e-09 4.086908e-05) (-1.253796e-09 2.480146e-10 8.587828e-05)) ((1.947860e-13 4.534424e-11 7.646313e-14) (-2.096354e-11 5.179938e-10 -2.994955e-13))
1.271167      	((-3.720180e-09 -4.384473e-09 3.807909e-05) (-4.551299e-10 1.939372e-10 7.744467e-05)) ((2.579331e-13 4.142401e-11 6.772010e-14) (-1.766631e-11 4.918638e-10 3.200851e-13))
1.5374        	((-2.653305e-09 -2.353252e-09 3.516832e-05) (4.023474e-12 9.033401e-11 6.995812e-05)) ((3.178908e-13 3.722636e-11 4.767783e-14) (-1.394562e-11 4.452587e-10 8.017956e-13))
1.85688       	((-2.407578e-09 -2.158078e-09 3.238392e-05) (3.231852e-10 -3.993120e-11 6.331667e-05)) ((3.296839e-13 3.455220e-11 3.338826e-14) (-1.074032e-11 3.829034e-10 9.213033e-13))
2.240256      	((-1.755219e-09 -2.958453e-09 2.986010e-05) (3.809742e-10 -1.830960e-10 5.743570e-05)) ((3.058551e-13 3.226597e-11 1.808437e-14) (-6.078508e-12 2.897622e-10 1.225428e-12))
2.700307      	((-2.623107e-09 -4.149433e-09 2.761379e-05) (-3.904528e-11 -3.193782e-10 5.222801e-05)) ((3.129558e-13 2.989305e-11 2.177241e-14) (6.569747e-13 1.621681e-10 1.595913e-12))
3.252369      	((-6.752082e-09 -5.516033e-09 2.564409e-05) (-6.081432e-10 -4.437931e-10 4.760641e-05)) ((3.313968e-13 2.740979e-11 3.752088e-14) (8.160014e-12 6.527868e-11 1.860120e-12))
3.914842      	((-7.924177e-09 -7.636140e-09 2.397507e-05) (-8.937537e-10 -5.358690e-10 4.350404e-05)) ((3.425599e-13 2.559517e-11 5.102524e-14) (1.857765e-11 5.049529e-11 1.989881e-12))
4.709811      	((-1.008531e-08 -9.267923e-09 2.262707e-05) (-8.412795e-10 -5.648591e-10 3.987839e-05)) ((3.581817e-13 2.393270e-11 5.565759e-14) (2.818094e-11 6.289186e-11 1.587993e-12))
5.663773      	((-9.348827e-09 -9.415290e-09 2.158902e-05) (-6.551558e-10 -5.397846e-10 3.669500e-05)) ((2.934759e-13 2.209506e-11 6.165684e-14) (2.748850e-11 3.601507e-11 8.594820e-13))
6.808528      	((-1.167656e-08 -1.006427e-08 2.088889e-05) (-7.729907e-10 -4.765797e-10 3.391274e-05)) ((2.090269e-13 2.045663e-11 6.390070e-14) (2.152971e-11 9.787362e-12 3.341391e-13))
8.182233      	((-1.225640e-08 -1.137959e-08 2.054879e-05) (-1.138699e-09 -5.015237e-10 3.148698e-05)) ((1.918178e-13 1.912114e-11 8.345599e-14) (2.012468e-11 2.941279e-11 8.271415e-14))
9.83068       	((-1.379125e-08 -1.272972e-08 2.056084e-05) (-1.322370e-09 -6.220234e-10 2.937803e-05)) ((2.146323e-13 1.795464e-11 9.390543e-14) (1.536192e-11 9.637560e-11 1.843724e-14))
11.808816     	((-1.412449e-08 -1.231221e-08 2.092271e-05) (-1.474801e-09 -7.838236e-10 2.755362e-05)) ((2.389937e-13 1.698966e-11 8.157675e-14) (6.780148e-12 1.764155e-10 -4.171613e-13))
14.182579     	((-1.423081e-08 -1.069924e-08 2.161329e-05) (-1.702873e-09 -9.199807e-10 2.598846e-05)) ((2.509428e-13 1.606317e-11 7.975127e-14) (-2.809545e-13 2.159771e-10 -6.836582e-13))
17.031095     	((-1.031281e-08 -7.460502e-09 2.258952e-05) (-1.753783e-09 -8.889330e-10 2.466613e-05)) ((2.323720e-13 1.524970e-11 7.493291e-14) (-5.364143e-12 2.223429e-10 -7.252870e-13))
20.449314     	((-6.228929e-09 -3.932258e-09 2.383212e-05) (-1.658588e-09 -7.206180e-10 2.356805e-05)) ((1.972889e-13 1.460642e-11 8.135438e-14) (-9.281625e-12 2.051465e-10 -8.685323e-13))
24.551176     	((-5.891470e-10 1.541808e-09 2.526269e-05) (-1.175949e-09 -3.064944e-10 2.267661e-05)) ((1.817119e-13 1.382949e-11 7.763404e-14) (-1.048141e-11 1.725251e-10 -1.147893e-12))
29.370748     	((5.322795e-09 7.417458e-09 2.676557e-05) (-5.210080e-10 3.505973e-10 2.198277e-05)) ((7.736733e-14 1.328543e-11 7.041951e-14) (-1.260491e-11 1.547337e-10 -9.250465e-13))
34.902424     	((1.144840e-08 1.450536e-08 2.820042e-05) (2.140425e-10 1.191747e-09 2.145292e-05)) ((-9.841928e-14 1.293339e-11 5.985890e-14) (-1.739503e-11 1.537666e-10 -5.078756e-13))
41.14091      	((1.595433e-08 1.923983e-08 2.944736e-05) (8.575398e-10 1.970900e-09 2.103577e-05)) ((-1.636712e-13 1.262815e-11 5.564661e-14) (-1.489758e-11 1.741067e-10 -4.606876e-13))
48.08396      	((2.115435e-08 2.549366e-08 3.048154e-05) (1.440273e-09 2.789054e-09 2.068504e-05)) ((-2.011410e-13 1.254536e-11 5.392242e-14) (-5.875631e-12 2.095755e-10 -5.283481e-13))
55.145319     	((2.722873e-08 3.167605e-08 3.130657e-05) (1.965423e-09 3.454955e-09 2.039376e-05)) ((-2.381074e-13 1.258971e-11 4.472418e-14) (1.527714e-11 2.335727e-10 -4.832325e-13))
62.235685     	((3.111749e-08 3.688080e-08 3.174344e-05) (2.690382e-09 4.286429e-09 2.014146e-05)) ((-3.177208e-13 1.269542e-11 4.064948e-14) (4.040807e-11 2.644947e-10 -7.466493e-13))
69.344375     	((3.351659e-08 4.068013e-08 3.190374e-05) (3.252604e-09 4.908001e-09 1.991813e-05)) ((-3.738408e-13 1.277636e-11 3.540809e-14) (6.673979e-11 2.711219e-10 -7.670272e-13))
76.45922      	((3.397122e-08 4.214914e-08 3.190568e-05) (3.688164e-09 5.398576e-09 1.971140e-05)) ((-4.046596e-13 1.282548e-11 3.542759e-14) (8.269905e-11 2.539383e-10 -7.234421e-13))
83.577596     	((3.572530e-08 4.503109e-08 3.180507e-05) (3.934765e-09 5.780313e-09 1.952177e-05)) ((-4.449788e-13 1.297504e-11 3.576994e-14) (1.030623e-10 2.257570e-10 -5.976818e-13))
90.701589     	((3.832492e-08 4.712350e-08 3.165858e-05) (4.272639e-09 5.991640e-09 1.934717e-05)) ((-4.022393e-13 1.293576e-11 3.572849e-14) (1.243846e-10 2.070109e-10 -4.471719e-13))
97.831924     	((4.199569e-08 5.083401e-08 3.148414e-05) (4.746905e-09 6.244969e-09 1.918479e-05)) ((-3.595205e-13 1.285642e-11 2.871846e-14) (1.433684e-10 1.961172e-10 9.186995e-14))
104.967731    	((4.637674e-08 5.380952e-08 3.133788e-05) (5.246485e-09 6.500968e-09 1.903583e-05)) ((-3.650716e-13 1.281998e-11 2.126544e-14) (1.630204e-10 1.803421e-10 4.309952e-13))
112.108263    	((5.180532e-08 5.813918e-08 3.123363e-05) (5.698059e-09 6.820715e-09 1.890190e-05)) ((-4.095777e-13 1.281694e-11 1.826578e-14) (1.835624e-10 1.513707e-10 5.614713e-13))
119.25321     	((5.913625e-08 6.405698e-08 3.114725e-05) (6.226102e-09 7.277866e-09 1.878272e-05)) ((-4.675334e-13 1.283194e-11 2.116119e-14) (2.037549e-10 1.122903e-10 6.306030e-13))
126.402286    	((6.600293e-08 6.973891e-08 3.105515e-05) (6.811643e-09 7.774789e-09 1.867544e-05)) ((-5.280864e-13 1.284563e-11 2.399787e-14) (2.243595e-10 7.203255e-11 3.425951e-13))
133.55513     	((7.273204e-08 7.543809e-08 3.097749e-05) (7.483391e-09 8.362183e-09 1.857878e-05)) ((-5.811217e-13 1.284602e-11 2.033994e-14) (2.454791e-10 3.140225e-11 2.012745e-13))
140.711453    	((8.011031e-08 8.145674e-08 3.090846e-05) (8.222346e-09 9.042289e-09 1.849170e-05)) ((-6.359689e-13 1.285794e-11 2.084046e-14) (2.657615e-10 -3.543773e-12 8.487652e-13))
147.871015    	((8.794030e-08 8.769441e-08 3.083941e-05) (9.152325e-09 9.824286e-09 1.841299e-05)) ((-7.000082e-13 1.287059e-11 2.085949e-14) (2.814020e-10 -3.105664e-11 7.964929e-13))
155.033571    	((9.703622e-08 9.515977e-08 3.076396e-05) (1.029377e-08 1.077621e-08 1.834138e-05)) ((-7.783353e-13 1.291274e-11 1.837478e-14) (2.927119e-10 -5.184286e-11 6.789446e-13))
162.198892    	((1.062632e-07 1.023539e-07 3.068837e-05) (1.159813e-08 1.183389e-08 1.827602e-05)) ((-8.607609e-13 1.296990e-11 1.657487e-14) (3.009754e-10 -6.838442e-11 6.510195e-13))
169.366786    	((1.172068e-07 1.113021e-07 3.061602e-05) (1.313180e-08 1.307276e-08 1.821631e-05)) ((-9.675863e-13 1.304432e-11 1.223272e-14) (3.079415e-10 -8.453591e-11 3.987039e-13))
176.537086    	((1.284999e-07 1.198614e-07 3.054420e-05) (1.488626e-08 1.443785e-08 1.816134e-05)) ((-1.049912e-12 1.310424e-11 6.748050e-15) (3.139098e-10 -9.918391e-11 4.382202e-13))
183.709652    	((1.391636e-07 1.283151e-07 3.047702e-05) (1.676801e-08 1.586432e-08 1.811062e-05)) ((-1.137648e-12 1.315850e-11 3.149852e-15) (3.181967e-10 -1.118133e-10 6.029011e-13))
190.884335    	((1.501382e-07 1.372826e-07 3.040937e-05) (1.879982e-08 1.740677e-08 1.806345e-05)) ((-1.215615e-12 1.319903e-11 5.364989e-16) (3.207100e-10 -1.204680e-10 4.432563e-13))
198.060997    	((1.613463e-07 1.460842e-07 3.034621e-05) (2.091247e-08 1.901896e-08 1.801957e-05)) ((-1.276815e-12 1.322320e-11 -2.544018e-15) (3.220822e-10 -1.283539e-10 2.848890e-13))
205.239503    	((1.728533e-07 1.551464e-07 3.028781e-05) (2.301989e-08 2.063758e-08 1.797900e-05)) ((-1.353680e-12 1.326217e-11 -3.899168e-15) (3.240532e-10 -1.369873e-10 2.791774e-13))
212.419731    	((1.860587e-07 1.657572e-07 3.023211e-05) (2.521074e-08 2.233243e-08 1.794146e-05)) ((-1.442181e-12 1.331689e-11 -5.219778e-15) (3.280218e-10 -1.465123e-10 6.920387e-13))
219.601572    	((2.008900e-07 1.770674e-07 3.017913e-05) (2.755310e-08 2.411360e-08 1.790664e-05)) ((-1.535789e-12 1.338860e-11 -4.253739e-15) (3.335850e-10 -1.569245e-10 9.153829e-13))
226.784929    	((2.168407e-07 1.899528e-07 3.012946e-05) (3.003437e-08 2.602385e-08 1.787438e-05)) ((-1.647131e-12 1.347200e-11 -6.544465e-15) (3.411680e-10 -1.690093e-10 1.010924e-12))
233.969712    	((2.338519e-07 2.032663e-07 3.008276e-05) (3.262300e-08 2.803084e-08 1.784453e-05)) ((-1.751491e-12 1.355074e-11 -9.503050e-15) (3.517840e-10 -1.847971e-10 1.144494e-12))
241.15584     	((2.537104e-07 2.187633e-07 3.003844e-05) (3.541770e-08 3.018661e-08 1.781689e-05)) ((-1.877374e-12 1.365225e-11 -1.494796e-14) (3.666099e-10 -2.060032e-10 1.387951e-12))
248.343238    	((2.746825e-07 2.351489e-07 2.999525e-05) (3.840538e-08 3.249055e-08 1.779121e-05)) ((-2.005308e-12 1.375462e-11 -1.878342e-14) (3.851667e-10 -2.328727e-10 1.549368e-12))
255.531841    	((2.973073e-07 2.529027e-07 2.995340e-05) (4.157550e-08 3.496270e-08 1.776726e-05)) ((-2.143610e-12 1.386537e-11 -2.447870e-14) (4.071684e-10 -2.659897e-10 1.584177e-12))
262.721586    	((3.206440e-07 2.712393e-07 2.991357e-05) (4.487447e-08 3.755295e-08 1.774494e-05)) ((-2.281783e-12 1.398791e-11 -2.911051e-14) (4.325428e-10 -3.046558e-10 1.570085e-12))
269.912418    	((3.447565e-07 2.901479e-07 2.987482e-05) (4.826415e-08 4.023001e-08 1.772408e-05)) ((-2.417853e-12 1.411889e-11 -3.314042e-14) (4.614338e-10 -3.478670e-10 1.656174e-12))
277.10428     	((3.701452e-07 3.107107e-07 2.983750e-05) (5.179708e-08 4.306111e-08 1.770449e-05)) ((-2.562506e-12 1.424792e-11 -3.756368e-14) (4.938866e-10 -3.955727e-10 1.780849e-12))
284.297114    	((3.980325e-07 3.329838e-07 2.980317e-05) (5.554595e-08 4.608164e-08 1.768615e-05)) ((-2.715815e-12 1.439341e-11 -4.383221e-14) (5.296621e-10 -4.478071e-10 1.928736e-12))
291.490861    	((4.281688e-07 3.569682e-07 2.977138e-05) (5.954385e-08 4.930123e-08 1.766905e-05)) ((-2.876576e-12 1.455386e-11 -4.850780e-14) (5.687442e-10 -5.043612e-10 2.061949e-12))
298.685467    	((4.616485e-07 3.833946e-07 2.974086e-05) (6.389654e-08 5.279189e-08 1.765305e-05)) ((-3.063127e-12 1.474858e-11 -5.355647e-14) (6.109363e-10 -5.650881e-10 2.095601e-12))
305.880889    	((4.971492e-07 4.118241e-07 2.971296e-05) (6.860871e-08 5.658181e-08 1.763807e-05)) ((-3.268526e-12 1.495825e-11 -5.837049e-14) (6.560831e-10 -6.299754e-10 1.944277e-12))
313.077085    	((5.344126e-07 4.414193e-07 2.968694e-05) (7.363388e-08 6.063127e-08 1.762408e-05)) ((-3.479365e-12 1.518277e-11 -6.466261e-14) (7.043731e-10 -6.986324e-10 1.661183e-12))
320.274019    	((5.734862e-07 4.723926e-07 2.966217e-05) (7.896043e-08 6.492455e-08 1.761097e-05)) ((-3.702123e-12 1.541945e-11 -7.092530e-14) (7.556748e-10 -7.705559e-10 1.400704e-12))
327.471652    	((6.146671e-07 5.052196e-07 2.963821e-05) (8.461270e-08 6.948509e-08 1.759859e-05)) ((-3.940024e-12 1.567127e-11 -7.778991e-14) (8.093491e-10 -8.449102e-10 1.220728e-12))
334.669949    	((6.582041e-07 5.400635e-07 2.961549e-05) (9.063241e-08 7.434827e-08 1.758687e-05)) ((-4.195605e-12 1.593944e-11 -8.509682e-14) (8.646410e-10 -9.209292e-10 1.119089e-12))
341.868876    	((7.043435e-07 5.769131e-07 2.959434e-05) (9.704380e-08 7.953892e-08 1.757579e-05)) ((-4.460108e-12 1.622367e-11 -9.344468e-14) (9.216312e-10 -9.990391e-10 1.075994e-12))
349.068406    	((7.533723e-07 6.160479e-07 2.957466e-05) (1.038701e-07 8.506588e-08 1.756532e-05)) ((-4.735426e-12 1.652213e-11 -1.046289e-13) (9.809903e-10 -1.080423e-09 1.056734e-12))
356.26851     	((8.053538e-07 6.575460e-07 2.955644e-05) (1.111093e-07 9.092419e-08 1.755545e-05)) ((-5.022104e-12 1.683396e-11 -1.157538e-13) (1.044127e-09 -1.166467e-09 1.148286e-12))
363.469164    	((8.602862e-07 7.017230e-07 2.954026e-05) (1.187516e-07 9.712045e-08 1.754619e-05)) ((-5.325995e-12 1.716333e-11 -1.276496e-13) (1.112134e-09 -1.258029e-09 1.282273e-12))
370.670343    	((9.184777e-07 7.486324e-07 2.952545e-05) (1.268450e-07 1.036830e-07 1.753752e-05)) ((-5.646494e-12 1.751403e-11 -1.412690e-13) (1.185164e-09 -1.354547e-09 1.420901e-12))
377.872025    	((9.800381e-07 7.983143e-07 2.951222e-05) (1.354332e-07 1.106407e-07 1.752942e-05)) ((-5.983058e-12 1.788534e-11 -1.566780e-13) (1.263097e-09 -1.455314e-09 1.428911e-12))
385.074189    	((1.045030e-06 8.507162e-07 2.950050e-05) (1.445351e-07 1.179975e-07 1.752189e-05)) ((-6.336922e-12 1.827793e-11 -1.745117e-13) (1.345561e-09 -1.560710e-09 1.557127e-12))
392.276816    	((1.113842e-06 9.059427e-07 2.948995e-05) (1.541799e-07 1.257944e-07 1.751490e-05)) ((-6.713407e-12 1.869605e-11 -1.919865e-13) (1.431322e-09 -1.671354e-09 1.782481e-12))
399.479017    	((1.186742e-06 9.642971e-07 2.948049e-05) (1.644126e-07 1.340478e-07 1.750843e-05)) ((-7.113297e-12 1.914154e-11 -2.079612e-13) (1.521203e-09 -1.787207e-09 1.751562e-12))
406.680507    	((1.263805e-06 1.025952e-06 2.947239e-05) (1.752779e-07 1.427708e-07 1.750246e-05)) ((-7.535653e-12 1.961778e-11 -2.244014e-13) (1.616247e-09 -1.908151e-09 1.938393e-12))
413.881202    	((1.345627e-06 1.091323e-06 2.946571e-05) (1.868074e-07 1.520062e-07 1.749703e-05)) ((-7.975705e-12 2.012624e-11 -2.442908e-13) (1.716596e-09 -2.034657e-09 1.857611e-12))
421.081016    	((1.432285e-06 1.160412e-06 2.945997e-05) (1.990326e-07 1.617815e-07 1.749209e-05)) ((-8.436100e-12 2.065450e-11 -2.656245e-13) (1.822505e-09 -2.168003e-09 1.391558e-12))
428.279858    	((1.523890e-06 1.233545e-06 2.945577e-05) (2.119873e-07 1.721374e-07 1.748763e-05)) ((-8.922386e-12 2.120575e-11 -2.877994e-13) (1.934269e-09 -2.308774e-09 1.004777e-12))
435.477637    	((1.620825e-06 1.310770e-06 2.945289e-05) (2.257428e-07 1.831049e-07 1.748366e-05)) ((-9.434167e-12 2.178561e-11 -3.082761e-13) (2.052078e-09 -2.455843e-09 6.559622e-13))
442.674258    	((1.723166e-06 1.392144e-06 2.945144e-05) (2.403421e-07 1.947265e-07 1.748019e-05)) ((-9.966883e-12 2.240121e-11 -3.287081e-13) (2.175256e-09 -2.609436e-09 8.963450e-13))
449.869621    	((1.831201e-06 1.478056e-06 2.945148e-05) (2.558042e-07 2.070158e-07 1.747723e-05)) ((-1.052789e-11 2.305257e-11 -3.491052e-13) (2.304592e-09 -2.770856e-09 1.786988e-12))
