# Forces      
# CofR        : (0.000000e+00 0.000000e+00 0.000000e+00)
# Time        forces(pressure viscous)	moments(pressure viscous)
0             	((0.000000e+00 0.000000e+00 0.000000e+00) (-2.883740e-15 2.005204e-05 1.114075e-16)) ((0.000000e+00 0.000000e+00 0.000000e+00) (9.168570e-17 4.606518e-18 -7.226238e-12))
0.012         	((-2.708552e-10 5.831537e-03 -1.239935e-09) (-1.448839e-11 2.301339e-05 -1.742812e-11)) ((2.439846e-12 4.107791e-14 -1.102416e-09) (9.098522e-14 4.370623e-15 -1.505595e-11))
0.0264        	((-2.919362e-08 -4.013353e-04 5.645995e-09) (-4.574368e-11 2.348377e-05 -1.287709e-11)) ((-5.390883e-12 -4.110637e-13 7.318129e-11) (-1.525165e-13 -3.405734e-14 -2.044297e-11))
0.04368       	((7.789918e-08 -1.221201e-03 -4.467764e-08) (1.763930e-11 2.087193e-05 -2.761928e-11)) ((-2.496444e-12 5.278726e-13 2.932161e-10) (-8.293947e-13 -5.020645e-14 -1.766297e-11))
0.064416      	((-1.526611e-08 -1.156725e-05 2.038876e-08) (3.605762e-10 1.848765e-05 2.489673e-10)) ((1.932827e-12 4.491022e-13 -1.312853e-11) (1.718560e-12 -1.099257e-13 -2.222321e-11))
0.0892992     	((-9.143074e-09 1.623244e-05 1.457434e-08) (4.696208e-10 1.706878e-05 4.532932e-10)) ((4.945611e-13 -9.371706e-13 -1.598330e-11) (3.488972e-12 -2.282062e-13 -2.427293e-11))
0.119159      	((4.826161e-09 -1.822487e-05 1.871257e-08) (3.652760e-10 1.576164e-05 4.405927e-10)) ((1.722874e-12 1.987739e-13 4.139494e-12) (-7.462688e-13 -2.155535e-13 -2.125947e-11))
0.154991      	((5.570361e-11 -9.844427e-06 -1.206431e-10) (2.755385e-10 1.437511e-05 4.173076e-10)) ((8.716436e-13 2.195910e-13 1.212398e-12) (-5.066202e-12 -3.485204e-13 -1.632317e-11))
0.197989      	((3.175580e-09 -2.387079e-06 -4.399669e-09) (1.349408e-10 1.297512e-05 2.817986e-10)) ((1.222214e-12 -4.001874e-14 1.722196e-13) (-6.060989e-12 -9.800913e-13 -5.229951e-12))
0.249587      	((2.313206e-09 3.180155e-07 -7.087110e-10) (4.480411e-11 1.160125e-05 1.495166e-10)) ((8.707760e-13 -4.202260e-15 -1.148790e-12) (-5.630982e-12 -1.244917e-12 4.518237e-13))
0.311504      	((1.718605e-09 1.557068e-06 -1.355332e-10) (6.989947e-12 1.029457e-05 7.203508e-11)) ((5.603779e-13 -1.409347e-14 -1.558620e-12) (-4.716318e-12 -1.112444e-12 1.943751e-12))
0.385805      	((5.833595e-10 2.148551e-06 -2.988290e-10) (3.646522e-12 9.088134e-06 2.488304e-11)) ((3.881824e-13 1.127862e-14 -1.268569e-12) (-2.982124e-12 -1.112886e-12 3.750992e-12))
0.474966      	((-1.617146e-10 2.427543e-06 -4.614884e-10) (7.403906e-12 8.006085e-06 -5.925358e-12)) ((2.508307e-13 -9.049301e-15 -1.054010e-12) (-1.522137e-12 -1.115173e-12 1.512773e-12))
0.581959      	((-3.882764e-10 2.540106e-06 -3.123627e-10) (-8.461930e-12 7.058718e-06 -2.783669e-11)) ((1.599068e-13 -1.753713e-15 -8.881851e-13) (-6.964546e-13 -8.892351e-13 -5.161911e-12))
0.710351      	((-3.026539e-10 2.530622e-06 -3.645198e-10) (2.111509e-11 6.246329e-06 -4.035286e-11)) ((9.286711e-14 -4.877325e-15 -7.212495e-13) (-5.145980e-13 -6.025375e-13 -9.434121e-12))
0.864421      	((-2.272679e-10 2.439319e-06 -3.276824e-10) (8.915856e-11 5.558527e-06 -4.737542e-11)) ((4.699066e-14 -7.612613e-15 -7.373327e-13) (-4.532827e-13 -4.472924e-13 -8.634543e-12))
1.049306      	((-1.318286e-10 2.304931e-06 -3.001467e-10) (1.501380e-10 4.977862e-06 -3.453102e-11)) ((1.805042e-14 -5.985309e-15 -7.206484e-13) (-5.540821e-13 -3.517715e-13 -5.807682e-12))
1.271167      	((-2.811754e-11 2.155930e-06 -2.099441e-10) (1.682176e-10 4.486248e-06 -1.589985e-11)) ((1.291841e-15 -5.522318e-15 -6.558137e-13) (-4.773343e-13 -2.824951e-13 -3.192733e-12))
1.5374        	((1.789646e-11 2.003647e-06 -1.557276e-10) (1.513753e-10 4.064464e-06 -8.154464e-12)) ((-8.261505e-15 -4.358205e-15 -6.472709e-13) (-3.342212e-13 -2.290413e-13 -1.155424e-12))
1.85688       	((5.757125e-11 1.854837e-06 -8.232427e-11) (1.301377e-10 3.695084e-06 -1.180488e-11)) ((-5.719668e-15 -2.263967e-15 -6.551017e-13) (-3.378090e-13 -1.837229e-13 -4.699078e-13))
2.240256      	((1.736786e-11 1.713596e-06 -6.144056e-11) (1.071367e-10 3.366717e-06 -1.427179e-11)) ((-2.530998e-15 -1.704329e-15 -6.587364e-13) (-4.495768e-13 -1.558253e-13 -1.341471e-12))
2.700307      	((3.093742e-12 1.581714e-06 -3.843420e-11) (8.155747e-11 3.072285e-06 -1.309570e-11)) ((-3.426704e-16 -1.484416e-15 -6.565901e-13) (-5.973978e-13 -1.326813e-13 -3.267308e-12))
3.252369      	((6.385831e-11 1.458714e-06 -1.887475e-11) (6.306896e-11 2.807031e-06 -1.316135e-11)) ((1.469191e-15 -1.936537e-15 -6.132435e-13) (-8.420533e-13 -1.049871e-13 -6.574654e-12))
3.914842      	((8.544545e-11 1.342909e-06 -8.838709e-12) (6.318278e-11 2.567426e-06 -1.264726e-11)) ((2.622669e-15 -3.281821e-15 -5.564582e-13) (-1.115526e-12 -9.760748e-14 -9.745410e-12))
4.709811      	((8.011416e-11 1.235094e-06 7.187325e-13) (5.290037e-11 2.350957e-06 -1.184124e-11)) ((4.659827e-15 -4.533886e-15 -4.963244e-13) (-1.268467e-12 -8.612158e-14 -1.089665e-11))
5.663773      	((7.162438e-11 1.135746e-06 -3.821165e-11) (4.037967e-11 2.155736e-06 -1.233071e-11)) ((6.671045e-15 -5.857846e-15 -4.469940e-13) (-1.252598e-12 -6.014970e-14 -1.039528e-11))
6.808528      	((5.358814e-11 1.044754e-06 -5.610350e-11) (3.829789e-11 1.980207e-06 -1.264908e-11)) ((7.904328e-15 -5.409199e-15 -3.920191e-13) (-1.220228e-12 -3.339474e-14 -9.848134e-12))
8.182233      	((4.490182e-11 9.617046e-07 -6.005281e-11) (2.918119e-11 1.822672e-06 -1.212998e-11)) ((8.165582e-15 -5.876381e-15 -3.370324e-13) (-1.386737e-12 1.465829e-15 -9.819684e-12))
9.83068       	((8.658412e-11 8.863193e-07 -5.360379e-11) (1.483157e-11 1.681139e-06 -8.808097e-12)) ((9.867992e-15 -6.908701e-15 -2.904058e-13) (-1.884604e-12 3.360097e-14 -9.238549e-12))
11.808816     	((7.884648e-11 8.173529e-07 -5.514766e-11) (3.066247e-13 1.553561e-06 -7.884869e-12)) ((1.039673e-14 -7.531448e-15 -2.496945e-13) (-2.717171e-12 8.294264e-15 -8.165218e-12))
14.182579     	((5.035244e-11 7.542832e-07 -6.866506e-11) (-1.525401e-11 1.438087e-06 -9.529495e-12)) ((1.208485e-14 -7.466510e-15 -2.151681e-13) (-3.792489e-12 -2.508127e-14 -6.983073e-12))
17.031095     	((6.080995e-11 6.969001e-07 -4.638069e-11) (-2.784494e-11 1.333160e-06 -1.014005e-11)) ((1.231465e-14 -7.230022e-15 -1.867218e-13) (-5.137649e-12 -3.604158e-14 -5.861685e-12))
20.449314     	((1.056376e-11 6.446992e-07 -8.632571e-11) (-3.123995e-11 1.237600e-06 -1.401746e-11)) ((1.268713e-14 -7.364596e-15 -1.654518e-13) (-6.608743e-12 -5.993762e-14 -4.870665e-12))
24.551176     	((-7.468345e-12 5.972682e-07 -9.443862e-11) (-2.461787e-11 1.150549e-06 -1.843700e-11)) ((1.271618e-14 -7.554704e-15 -1.488718e-13) (-7.843919e-12 -9.292208e-14 -3.771499e-12))
29.473411     	((1.687032e-11 5.544144e-07 -6.457634e-11) (-1.941106e-11 1.071364e-06 -1.835507e-11)) ((1.149151e-14 -7.586208e-15 -1.346165e-13) (-8.781109e-12 -1.281674e-13 -2.665189e-12))
35.380094     	((1.684359e-11 5.157053e-07 -6.082940e-11) (-1.637232e-11 9.995061e-07 -1.741976e-11)) ((9.469668e-15 -7.484294e-15 -1.244085e-13) (-9.645870e-12 -1.689816e-13 -1.547854e-12))
42.468112     	((2.707965e-11 4.810579e-07 -6.093018e-11) (-1.047487e-11 9.344195e-07 -1.782137e-11)) ((8.755617e-15 -7.978374e-15 -1.174162e-13) (-1.073970e-11 -1.563731e-13 2.603979e-14))
50.973735     	((4.505997e-11 4.502044e-07 -5.476061e-11) (-7.119193e-12 8.755620e-07 -1.747068e-11)) ((8.280627e-15 -8.169035e-15 -1.119587e-13) (-1.225625e-11 -1.303688e-13 2.031460e-12))
61.180482     	((7.313713e-11 4.228696e-07 -2.391436e-11) (-6.997212e-12 8.223851e-07 -1.840906e-11)) ((7.264022e-15 -7.886239e-15 -1.088142e-13) (-1.430773e-11 -1.219357e-13 4.762897e-12))
73.428578     	((9.743594e-11 3.987791e-07 4.514569e-12) (-1.136120e-11 7.743617e-07 -2.136866e-11)) ((5.992527e-15 -7.131953e-15 -1.076452e-13) (-1.702226e-11 -1.266266e-13 8.191478e-12))
88.126294     	((1.541417e-10 3.777923e-07 4.621586e-11) (-1.379266e-11 7.310063e-07 -2.560990e-11)) ((3.888772e-15 -7.037809e-15 -1.082084e-13) (-2.032764e-11 -1.294583e-13 1.222797e-11))
105.763553    	((1.968574e-10 3.597272e-07 8.390608e-11) (-1.678361e-11 6.918986e-07 -3.156506e-11)) ((1.655943e-15 -6.796472e-15 -1.096845e-13) (-2.394811e-11 -1.542937e-13 1.665293e-11))
126.928263    	((2.338714e-10 3.445232e-07 1.228388e-10) (-2.022310e-11 6.567148e-07 -3.789645e-11)) ((-4.623561e-16 -6.490393e-15 -1.104151e-13) (-2.754737e-11 -1.454394e-13 2.117305e-11))
152.325916    	((2.535884e-10 3.318909e-07 1.406478e-10) (-2.586281e-11 6.251991e-07 -4.534229e-11)) ((-1.782172e-15 -5.868022e-15 -1.124814e-13) (-3.091285e-11 -1.381048e-13 2.541438e-11))
182.803099    	((2.668616e-10 3.217678e-07 1.596220e-10) (-3.475829e-11 5.971374e-07 -5.345274e-11)) ((-2.723875e-15 -5.106900e-15 -1.157478e-13) (-3.380778e-11 -1.201584e-13 2.903508e-11))
219.375719    	((2.859561e-10 3.138706e-07 1.823060e-10) (-4.222606e-11 5.723497e-07 -6.015102e-11)) ((-3.485346e-15 -4.376591e-15 -1.204059e-13) (-3.612222e-11 -9.568689e-14 3.198498e-11))
263.262863    	((3.198942e-10 3.080200e-07 2.255964e-10) (-4.355917e-11 5.506718e-07 -6.345057e-11)) ((-4.066739e-15 -3.836902e-15 -1.265895e-13) (-3.782445e-11 -7.886746e-14 3.414157e-11))
315.927436    	((3.330432e-10 3.040769e-07 2.457960e-10) (-4.018954e-11 5.319550e-07 -6.391413e-11)) ((-4.416497e-15 -3.360907e-15 -1.336492e-13) (-3.885095e-11 -6.854436e-14 3.562304e-11))
379.124923    	((3.324141e-10 3.017823e-07 2.596023e-10) (-3.457679e-11 5.160360e-07 -6.216215e-11)) ((-4.499749e-15 -2.823859e-15 -1.403158e-13) (-3.922216e-11 -5.913264e-14 3.636285e-11))
454.961908    	((3.378217e-10 3.006555e-07 2.751682e-10) (-2.633695e-11 5.027034e-07 -5.824178e-11)) ((-4.253397e-15 -2.528578e-15 -1.465184e-13) (-3.890093e-11 -6.187371e-14 3.636773e-11))
545.966289    	((3.561924e-10 3.002468e-07 2.921272e-10) (-1.456470e-11 4.916843e-07 -5.034116e-11)) ((-4.131467e-15 -2.560135e-15 -1.508121e-13) (-3.789147e-11 -6.498877e-14 3.568389e-11))
653.247811    	((3.578492e-10 3.001971e-07 2.991684e-10) (1.100175e-13 4.826888e-07 -3.890395e-11)) ((-4.313117e-15 -2.501883e-15 -1.529989e-13) (-3.633152e-11 -6.232117e-14 3.434208e-11))
776.80529     	((3.572227e-10 3.001795e-07 3.024267e-10) (1.713963e-11 4.753853e-07 -2.402938e-11)) ((-4.567330e-15 -2.424739e-15 -1.540893e-13) (-3.434807e-11 -6.183989e-14 3.246355e-11))
916.647307    	((3.505074e-10 3.000833e-07 2.994748e-10) (3.565755e-11 4.694623e-07 -7.184633e-12)) ((-4.663587e-15 -2.367458e-15 -1.546726e-13) (-3.209583e-11 -6.266920e-14 3.026246e-11))
1072.789142   	((3.353383e-10 2.999064e-07 2.889306e-10) (5.418019e-11 4.646517e-07 1.006622e-11)) ((-4.584343e-15 -2.309934e-15 -1.551221e-13) (-2.973315e-11 -6.063324e-14 2.794207e-11))
1235.958678   	((3.147190e-10 2.997667e-07 2.726781e-10) (7.091671e-11 4.607694e-07 2.605154e-11)) ((-4.445934e-15 -2.269789e-15 -1.554338e-13) (-2.738211e-11 -6.009742e-14 2.565232e-11))
1399.285361   	((2.935203e-10 2.996224e-07 2.525908e-10) (8.507794e-11 4.576358e-07 3.943766e-11)) ((-4.343101e-15 -2.300237e-15 -1.555643e-13) (-2.512504e-11 -6.276596e-14 2.346447e-11))
1562.745944   	((2.687472e-10 2.994785e-07 2.297261e-10) (9.601365e-11 4.551104e-07 4.972042e-11)) ((-4.183189e-15 -2.320839e-15 -1.556861e-13) (-2.300050e-11 -6.640234e-14 2.138473e-11))
1726.317963   	((2.426908e-10 2.993468e-07 2.056183e-10) (1.038083e-10 4.530750e-07 5.701699e-11)) ((-3.961030e-15 -2.341953e-15 -1.558370e-13) (-2.102778e-11 -6.929826e-14 1.944926e-11))
1889.982105   	((2.167769e-10 2.992295e-07 1.814406e-10) (1.088202e-10 4.514348e-07 6.166517e-11)) ((-3.747026e-15 -2.355284e-15 -1.559862e-13) (-1.922095e-11 -7.192364e-14 1.766923e-11))
2053.721994   	((1.926309e-10 2.991281e-07 1.579614e-10) (1.115669e-10 4.501127e-07 6.406170e-11)) ((-3.510246e-15 -2.360116e-15 -1.561499e-13) (-1.758436e-11 -7.384866e-14 1.605384e-11))
2217.523818   	((1.704683e-10 2.990410e-07 1.362790e-10) (1.124269e-10 4.490467e-07 6.470476e-11)) ((-3.335313e-15 -2.367134e-15 -1.562984e-13) (-1.611635e-11 -7.499487e-14 1.460632e-11))
2381.375963   	((1.503071e-10 2.989668e-07 1.161521e-10) (1.118072e-10 4.481862e-07 6.392134e-11)) ((-3.152733e-15 -2.375357e-15 -1.564260e-13) (-1.481496e-11 -7.587951e-14 1.332105e-11))
2545.268792   	((1.319199e-10 2.989045e-07 9.799506e-11) (1.100547e-10 4.474909e-07 6.206431e-11)) ((-2.985718e-15 -2.373339e-15 -1.565435e-13) (-1.366814e-11 -7.638101e-14 1.218671e-11))
2709.194379   	((1.155221e-10 2.988525e-07 8.170359e-11) (1.075140e-10 4.469284e-07 5.947877e-11)) ((-2.831011e-15 -2.374672e-15 -1.566707e-13) (-1.266449e-11 -7.669064e-14 1.119300e-11))
2873.146291   	((1.011197e-10 2.988092e-07 6.749083e-11) (1.044920e-10 4.464730e-07 5.643145e-11)) ((-2.689231e-15 -2.377475e-15 -1.567749e-13) (-1.179231e-11 -7.676472e-14 1.032840e-11))
3037.119323   	((8.862464e-11 2.987736e-07 5.488451e-11) (1.012495e-10 4.461041e-07 5.317651e-11)) ((-2.584709e-15 -2.379431e-15 -1.568551e-13) (-1.103773e-11 -7.669209e-14 9.579541e-12))
3201.109293   	((7.783581e-11 2.987444e-07 4.408131e-11) (9.794937e-11 4.458051e-07 4.989149e-11)) ((-2.502508e-15 -2.381659e-15 -1.569181e-13) (-1.038831e-11 -7.664690e-14 8.935248e-12))
3365.112838   	((6.851719e-11 2.987204e-07 3.509108e-11) (9.471233e-11 4.455625e-07 4.667812e-11)) ((-2.430788e-15 -2.382835e-15 -1.569710e-13) (-9.833028e-12 -7.668376e-14 8.383925e-12))
3529.127264   	((6.074827e-11 2.987002e-07 2.741425e-11) (9.164411e-11 4.453657e-07 4.362086e-11)) ((-2.369061e-15 -2.383233e-15 -1.570225e-13) (-9.360462e-12 -7.677536e-14 7.914347e-12))
3693.150414   	((5.417913e-11 2.986839e-07 2.083703e-11) (8.879463e-11 4.452059e-07 4.078422e-11)) ((-2.313664e-15 -2.383041e-15 -1.570643e-13) (-8.960200e-12 -7.691290e-14 7.516642e-12))
3857.180568   	((4.871021e-11 2.986705e-07 1.527631e-11) (8.620424e-11 4.450762e-07 3.820012e-11)) ((-2.265329e-15 -2.383407e-15 -1.571000e-13) (-8.622945e-12 -7.707629e-14 7.181342e-12))
4021.21635    	((4.415472e-11 2.986592e-07 1.074997e-11) (8.388857e-11 4.449707e-07 3.589129e-11)) ((-2.226616e-15 -2.383587e-15 -1.571341e-13) (-8.339738e-12 -7.727125e-14 6.899600e-12))
4185.256657   	((4.043180e-11 2.986500e-07 7.064443e-12) (8.185544e-11 4.448849e-07 3.386028e-11)) ((-2.194588e-15 -2.383535e-15 -1.571656e-13) (-8.102614e-12 -7.744668e-14 6.663643e-12))
4349.30061    	((3.728889e-11 2.986423e-07 4.034883e-12) (8.008746e-11 4.448151e-07 3.209499e-11)) ((-2.167492e-15 -2.383445e-15 -1.571920e-13) (-7.904763e-12 -7.759603e-14 6.466723e-12))
4513.347504   	((3.476000e-11 2.986362e-07 1.555731e-12) (7.856658e-11 4.447584e-07 3.057250e-11)) ((-2.145372e-15 -2.383493e-15 -1.572149e-13) (-7.740484e-12 -7.772148e-14 6.303089e-12))
4677.396778   	((3.269428e-11 2.986313e-07 -4.764596e-13) (7.727087e-11 4.447122e-07 2.927577e-11)) ((-2.126683e-15 -2.383435e-15 -1.572344e-13) (-7.604164e-12 -7.784422e-14 6.167334e-12))
4841.447978   	((3.101176e-11 2.986270e-07 -2.163337e-12) (7.617767e-11 4.446746e-07 2.818143e-11)) ((-2.110989e-15 -2.383244e-15 -1.572503e-13) (-7.491534e-12 -7.795582e-14 6.055166e-12))
5005.500739   	((2.967054e-11 2.986235e-07 -3.478520e-12) (7.526360e-11 4.446440e-07 2.726714e-11)) ((-2.097476e-15 -2.383058e-15 -1.572637e-13) (-7.398490e-12 -7.805656e-14 5.962539e-12))
5169.554768   	((2.854941e-11 2.986206e-07 -4.579965e-12) (7.450307e-11 4.446190e-07 2.650721e-11)) ((-2.086153e-15 -2.383046e-15 -1.572745e-13) (-7.321827e-12 -7.815831e-14 5.886262e-12))
5333.60983    	((2.765173e-11 2.986184e-07 -5.456227e-12) (7.387603e-11 4.445987e-07 2.588022e-11)) ((-2.077331e-15 -2.383086e-15 -1.572838e-13) (-7.258750e-12 -7.825178e-14 5.823486e-12))
5497.665733   	((2.693026e-11 2.986166e-07 -6.171544e-12) (7.336177e-11 4.445822e-07 2.536624e-11)) ((-2.069136e-15 -2.382925e-15 -1.572914e-13) (-7.206907e-12 -7.833478e-14 5.771935e-12))
5661.722323   	((2.634275e-11 2.986150e-07 -6.765358e-12) (7.294289e-11 4.445687e-07 2.494718e-11)) ((-2.063230e-15 -2.383056e-15 -1.572973e-13) (-7.164349e-12 -7.840839e-14 5.729619e-12))
5825.77947    	((2.589116e-11 2.986142e-07 -7.219825e-12) (7.260239e-11 4.445577e-07 2.460673e-11)) ((-2.058263e-15 -2.382926e-15 -1.573024e-13) (-7.129435e-12 -7.846858e-14 5.694898e-12))
5989.837073   	((2.546306e-11 2.986129e-07 -7.623269e-12) (7.232571e-11 4.445487e-07 2.432834e-11)) ((-2.053869e-15 -2.382821e-15 -1.573062e-13) (-7.100792e-12 -7.852322e-14 5.666415e-12))
6153.89505    	((2.514374e-11 2.986122e-07 -7.936753e-12) (7.210249e-11 4.445414e-07 2.410557e-11)) ((-2.050194e-15 -2.382697e-15 -1.573096e-13) (-7.077320e-12 -7.856778e-14 5.643056e-12))
6317.953331   	((2.487797e-11 2.986117e-07 -8.198017e-12) (7.192141e-11 4.445355e-07 2.392408e-11)) ((-2.047152e-15 -2.382622e-15 -1.573122e-13) (-7.058085e-12 -7.860522e-14 5.623921e-12))
6482.011862   	((2.466627e-11 2.986113e-07 -8.397691e-12) (7.177525e-11 4.445306e-07 2.377784e-11)) ((-2.044833e-15 -2.382521e-15 -1.573144e-13) (-7.042303e-12 -7.863655e-14 5.608213e-12))
6646.070596   	((2.448452e-11 2.986108e-07 -8.581377e-12) (7.165661e-11 4.445266e-07 2.365887e-11)) ((-2.042836e-15 -2.382588e-15 -1.573161e-13) (-7.029349e-12 -7.866265e-14 5.595319e-12))
6810.129497   	((2.433912e-11 2.986105e-07 -8.725951e-12) (7.156040e-11 4.445234e-07 2.356261e-11)) ((-2.041255e-15 -2.382486e-15 -1.573176e-13) (-7.018712e-12 -7.868400e-14 5.584727e-12))
6974.188532   	((2.421733e-11 2.986102e-07 -8.841725e-12) (7.148189e-11 4.445208e-07 2.348409e-11)) ((-2.039980e-15 -2.382382e-15 -1.573188e-13) (-7.009969e-12 -7.870141e-14 5.576017e-12))
7138.247677   	((2.411592e-11 2.986101e-07 -8.935547e-12) (7.141784e-11 4.445186e-07 2.342017e-11)) ((-2.038885e-15 -2.382331e-15 -1.573197e-13) (-7.002782e-12 -7.871566e-14 5.568854e-12))
