# Forces      
# CofR        : (0.000000e+00 0.000000e+00 0.000000e+00)
# Time        forces(pressure viscous)	moments(pressure viscous)
0             	((0.000000e+00 0.000000e+00 0.000000e+00) (0.000000e+00 0.000000e+00 0.000000e+00)) ((0.000000e+00 0.000000e+00 0.000000e+00) (0.000000e+00 0.000000e+00 0.000000e+00))
0.012         	((7.125782e-11 -8.977522e-11 1.767443e-10) (1.368727e-14 -1.704483e-13 -1.165135e-12)) ((-7.983157e-10 7.619549e-14 1.554968e-15) (-5.562576e-07 -6.129839e-14 2.552886e-14))
0.0264        	((-8.144248e-11 -1.559165e-10 3.194471e-10) (1.411268e-12 1.293159e-12 -1.007820e-12)) ((-3.943364e-10 5.978917e-14 -1.549319e-14) (-5.095010e-07 -1.057831e-13 2.597342e-14))
0.04368       	((3.518577e-10 2.340310e-10 3.711382e-10) (5.057374e-13 3.943170e-12 -2.339703e-13)) ((-2.183421e-10 4.966555e-14 -1.717900e-14) (-4.614597e-07 -6.064796e-14 -4.144687e-14))
0.064416      	((-1.181785e-10 7.524093e-12 8.373543e-11) (-3.535881e-12 5.932090e-12 7.889970e-13)) ((-1.229066e-10 3.357717e-14 6.521601e-15) (-4.131890e-07 5.300487e-14 -1.132575e-13))
0.0892992     	((6.100613e-11 7.067788e-11 3.340052e-11) (-8.525190e-12 6.745115e-12 2.137883e-12)) ((-9.274967e-11 3.319917e-14 -4.811637e-15) (-3.661041e-07 1.610656e-13 -1.524486e-13))
0.119159      	((9.278226e-11 1.030492e-10 2.803231e-10) (-1.177630e-11 6.250202e-12 3.405699e-12)) ((-6.669152e-11 2.317742e-14 1.174423e-15) (-3.216632e-07 2.246437e-13 -1.604463e-13))
0.154991      	((-2.383532e-11 -1.415654e-10 -8.618944e-11) (-1.343828e-11 5.432479e-12 3.837457e-12)) ((-5.313188e-11 1.756512e-14 2.543411e-15) (-2.808950e-07 2.509266e-13 -1.412600e-13))
0.197989      	((-4.278152e-11 -3.500935e-11 7.426498e-11) (-1.651279e-11 4.597990e-12 3.795986e-12)) ((-4.241446e-11 7.556446e-15 1.332745e-15) (-2.447613e-07 2.531220e-13 -1.209881e-13))
0.249587      	((2.225895e-11 -2.703838e-11 9.175976e-11) (-2.062023e-11 4.295312e-12 3.568138e-12)) ((-3.521865e-11 5.441182e-15 3.064135e-15) (-2.137672e-07 2.371711e-13 -1.086299e-13))
0.311504      	((-1.873041e-11 -7.692911e-11 8.814345e-11) (-2.116291e-11 4.322109e-12 2.975907e-12)) ((-2.951165e-11 6.779055e-15 5.022384e-16) (-1.878296e-07 2.052097e-13 -1.068701e-13))
0.385805      	((-4.107104e-11 -8.012371e-11 1.475291e-10) (-1.783759e-11 3.512419e-12 2.630500e-12)) ((-2.550030e-11 7.178632e-15 -2.307375e-15) (-1.663920e-07 2.051237e-13 -1.036028e-13))
0.474966      	((2.900263e-12 -1.556860e-10 1.167220e-10) (-1.409522e-11 1.958640e-12 4.026050e-12)) ((-2.283320e-11 5.381139e-15 -3.889661e-15) (-1.486179e-07 2.859757e-13 -1.172614e-13))
0.581959      	((-9.213021e-11 -2.052174e-10 2.960297e-11) (-3.384377e-14 -1.282322e-13 5.216405e-12)) ((-2.046792e-11 7.217644e-15 -7.136993e-15) (-1.336487e-07 3.741696e-13 -1.528338e-13))
0.710351      	((-1.722228e-10 -2.259535e-10 1.640433e-10) (1.360603e-11 -1.207739e-12 6.457673e-12)) ((-1.813304e-11 8.000459e-15 -7.430737e-15) (-1.207788e-07 4.123852e-13 -1.816727e-13))
0.864421      	((-1.977249e-10 -2.474782e-10 1.164505e-10) (1.878609e-11 1.353499e-12 6.155261e-12)) ((-1.653030e-11 1.139858e-14 -7.729014e-15) (-1.095055e-07 3.574895e-13 -2.093453e-13))
1.049306      	((-1.177584e-10 -2.362179e-10 1.996941e-10) (2.517088e-11 5.891530e-12 3.615473e-12)) ((-1.549876e-11 1.160729e-14 -6.423172e-15) (-9.949010e-08 1.941322e-13 -2.167734e-13))
1.271167      	((-6.689492e-11 -3.223134e-10 2.424743e-10) (2.419384e-11 9.033086e-12 -2.270303e-12)) ((-1.445876e-11 9.140709e-15 -4.154527e-15) (-9.050380e-08 5.599701e-14 -3.381794e-13))
1.5374        	((1.172779e-11 -3.287400e-10 2.655191e-10) (1.268915e-11 1.301518e-11 -7.594212e-12)) ((-1.328450e-11 3.296411e-15 -5.064720e-15) (-8.239715e-08 2.376841e-14 -6.020085e-13))
1.85688       	((-3.680699e-11 -3.404342e-10 2.291579e-10) (9.317008e-12 2.252037e-11 -1.497814e-11)) ((-1.217995e-11 1.605807e-15 -3.301521e-15) (-7.508868e-08 -1.221874e-13 -9.121297e-13))
2.240256      	((6.070437e-13 -3.868688e-10 2.257010e-10) (1.475650e-11 3.756961e-11 -2.813345e-11)) ((-1.145883e-11 -2.564381e-15 6.270615e-16) (-6.853790e-08 -3.906469e-13 -1.318830e-12))
2.700307      	((1.300407e-11 -3.701752e-10 1.081059e-10) (8.626083e-12 6.167051e-11 -5.410930e-11)) ((-1.095630e-11 -6.603362e-15 4.694672e-15) (-6.271368e-08 -7.507839e-13 -2.009213e-12))
3.252369      	((-2.830049e-12 -2.899801e-10 9.715358e-11) (2.720412e-12 9.142478e-11 -8.428611e-11)) ((-1.042629e-11 -1.016377e-14 7.533145e-15) (-5.757389e-08 -1.286151e-12 -2.642987e-12))
3.914842      	((-3.187789e-11 -1.888781e-10 1.820287e-11) (-7.301253e-12 1.203689e-10 -1.140547e-10)) ((-9.841624e-12 -1.148958e-14 9.018976e-15) (-5.305471e-08 -1.759863e-12 -3.161781e-12))
4.709811      	((1.998439e-11 -6.371766e-11 -4.585724e-12) (-1.701682e-11 1.519863e-10 -1.413882e-10)) ((-9.197635e-12 -1.180698e-14 8.515559e-15) (-4.906892e-08 -2.087348e-12 -3.518219e-12))
5.663773      	((-5.340912e-11 4.287223e-11 -1.641014e-11) (-9.479749e-12 1.711520e-10 -1.565336e-10)) ((-8.514431e-12 -1.178719e-14 5.588309e-15) (-4.552362e-08 -2.389847e-12 -3.515289e-12))
6.808528      	((-2.817780e-11 8.906515e-11 -3.081406e-11) (-3.613566e-12 1.754383e-10 -1.558370e-10)) ((-7.831498e-12 -8.907105e-15 5.525485e-15) (-4.233498e-08 -2.465560e-12 -3.296576e-12))
8.182233      	((-3.933666e-11 7.870432e-11 -7.503938e-11) (-1.082333e-11 1.591531e-10 -1.383022e-10)) ((-7.163315e-12 -7.561406e-15 5.252178e-15) (-3.943663e-08 -2.098303e-12 -2.845784e-12))
9.83068       	((-7.606275e-11 4.256573e-11 -7.125341e-11) (-2.559198e-11 1.274177e-10 -1.101011e-10)) ((-6.515108e-12 -5.051203e-15 6.551986e-15) (-3.678334e-08 -1.588847e-12 -2.294990e-12))
11.808816     	((-7.209244e-11 -1.205757e-11 -3.587251e-11) (-2.445282e-11 9.831390e-11 -8.415886e-11)) ((-5.912573e-12 -4.475332e-15 9.130702e-15) (-3.434212e-08 -1.238216e-12 -1.708676e-12))
14.182579     	((-4.494579e-11 -6.120805e-11 -2.885650e-11) (-1.720975e-11 7.117749e-11 -6.402719e-11)) ((-5.372728e-12 -1.989152e-15 9.325960e-15) (-3.209187e-08 -1.020603e-12 -1.103661e-12))
17.031095     	((-4.130509e-11 -4.357675e-11 -1.200626e-11) (-1.334971e-11 4.890150e-11 -4.717429e-11)) ((-4.900967e-12 -9.412174e-16 9.987610e-15) (-3.002087e-08 -7.266040e-13 -6.674792e-13))
20.449314     	((-4.998543e-12 -3.822087e-11 -8.142975e-12) (-1.510245e-11 3.290891e-11 -3.458265e-11)) ((-4.489070e-12 -1.902694e-15 1.152304e-14) (-2.812313e-08 -4.466217e-13 -3.754470e-13))
24.551176     	((-2.958338e-12 -1.309072e-11 9.929238e-12) (-2.087083e-11 2.231580e-11 -2.323658e-11)) ((-4.128797e-12 -2.369336e-15 1.205674e-14) (-2.639027e-08 -2.704602e-13 -1.919585e-13))
29.473411     	((-1.228757e-11 -2.894360e-11 1.155281e-11) (-2.174402e-11 1.632475e-11 -1.422218e-11)) ((-3.816487e-12 -2.161214e-15 1.080483e-14) (-2.481150e-08 -1.801430e-13 -1.259924e-13))
35.380094     	((1.085908e-11 -2.398298e-11 1.885629e-11) (-2.165635e-11 1.265647e-11 -9.228714e-12)) ((-3.540261e-12 -1.924739e-15 9.700142e-15) (-2.337373e-08 -9.325555e-14 -1.579350e-13))
42.468112     	((6.089503e-12 -2.365172e-11 1.874498e-11) (-2.060417e-11 1.201672e-11 -6.455603e-12)) ((-3.296317e-12 -2.454051e-15 9.035727e-15) (-2.206456e-08 -3.094412e-14 -2.274456e-13))
50.973735     	((5.768729e-12 -2.621202e-11 1.839254e-11) (-1.816563e-11 1.256537e-11 -5.216408e-12)) ((-3.076748e-12 -3.027852e-15 8.887118e-15) (-2.087262e-08 -4.599781e-14 -2.758493e-13))
61.180482     	((-5.426984e-12 8.275483e-13 3.570994e-11) (-1.376640e-11 1.509688e-11 -5.408143e-12)) ((-2.881631e-12 -2.831356e-15 8.119060e-15) (-1.978777e-08 -1.136262e-13 -3.398994e-13))
73.428578     	((-2.751554e-12 1.172882e-11 3.920169e-11) (-1.014042e-11 1.852840e-11 -8.613889e-12)) ((-2.714496e-12 -2.082280e-15 7.452075e-15) (-1.880084e-08 -2.413458e-13 -3.954913e-13))
88.126294     	((-5.905469e-12 1.648604e-11 3.001131e-11) (-5.288817e-12 2.263148e-11 -1.154005e-11)) ((-2.564487e-12 -1.279781e-15 6.565556e-15) (-1.790385e-08 -3.571349e-13 -4.257715e-13))
105.763553    	((-1.058961e-11 2.723456e-12 -2.534810e-12) (-4.282026e-12 2.496518e-11 -1.428785e-11)) ((-2.430639e-12 -1.253924e-15 6.113792e-15) (-1.709012e-08 -3.853892e-13 -4.232813e-13))
126.928263    	((-5.952038e-12 -5.876969e-12 -2.177367e-11) (-4.197590e-12 2.379522e-11 -1.634149e-11)) ((-2.312889e-12 -1.669133e-15 5.971077e-15) (-1.635321e-08 -3.582746e-13 -4.164661e-13))
152.325916    	((1.078155e-11 -5.379863e-12 -2.558029e-11) (-2.481598e-12 2.123931e-11 -1.761609e-11)) ((-2.203702e-12 -2.371634e-15 5.761126e-15) (-1.568608e-08 -3.388614e-13 -4.128579e-13))
182.803099    	((2.149663e-11 -1.040259e-11 -2.279716e-11) (-3.209741e-12 1.913226e-11 -1.776145e-11)) ((-2.104989e-12 -2.497194e-15 5.382499e-15) (-1.508168e-08 -3.147350e-13 -4.263601e-13))
219.375719    	((2.749626e-11 -4.403544e-12 -1.329051e-11) (-4.607085e-12 1.690046e-11 -1.745210e-11)) ((-2.016167e-12 -2.236691e-15 4.641672e-15) (-1.453376e-08 -3.135562e-13 -4.094613e-13))
263.262863    	((3.247468e-11 3.356664e-13 -3.486078e-12) (-3.805363e-12 1.450087e-11 -1.786905e-11)) ((-1.936489e-12 -2.016336e-15 3.953756e-15) (-1.403657e-08 -3.492528e-13 -3.554617e-13))
315.927436    	((3.544079e-11 7.174297e-12 4.795236e-12) (-1.791101e-12 1.344680e-11 -1.813803e-11)) ((-1.864734e-12 -1.831760e-15 3.329096e-15) (-1.358539e-08 -3.862518e-13 -3.164776e-13))
379.124923    	((2.742683e-11 1.039567e-11 1.090351e-11) (-2.904857e-13 1.249209e-11 -1.767057e-11)) ((-1.799421e-12 -1.620538e-15 2.870514e-15) (-1.317663e-08 -3.893839e-13 -3.054306e-13))
454.961908    	((3.002343e-11 7.130759e-12 1.107905e-11) (9.641114e-13 1.165084e-11 -1.637252e-11)) ((-1.741215e-12 -1.532430e-15 2.897808e-15) (-1.280761e-08 -3.961369e-13 -2.757823e-13))
545.966289    	((3.280380e-11 1.205967e-12 1.289321e-11) (2.619185e-12 1.073145e-11 -1.549762e-11)) ((-1.688634e-12 -1.539611e-15 2.649647e-15) (-1.247574e-08 -4.110334e-13 -2.313298e-13))
655.171547    	((3.563595e-11 1.552773e-12 1.698942e-11) (5.124108e-12 9.255127e-12 -1.609290e-11)) ((-1.640707e-12 -1.305237e-15 2.454501e-15) (-1.217814e-08 -4.334973e-13 -1.933939e-13))
786.217856    	((3.383300e-11 5.399755e-12 2.080845e-11) (6.975987e-12 8.206187e-12 -1.616230e-11)) ((-1.598254e-12 -1.212547e-15 2.498794e-15) (-1.191247e-08 -4.633382e-13 -1.548909e-13))
942.868647    	((3.425605e-11 5.968102e-12 2.358896e-11) (8.339999e-12 7.256879e-12 -1.524735e-11)) ((-1.560421e-12 -1.289364e-15 2.493112e-15) (-1.167661e-08 -4.738038e-13 -1.236989e-13))
1125.124685   	((2.940824e-11 8.777300e-12 2.579525e-11) (7.203972e-12 6.383679e-12 -1.357929e-11)) ((-1.527622e-12 -1.371789e-15 2.457208e-15) (-1.146924e-08 -4.644442e-13 -1.039834e-13))
1332.987296   	((3.018517e-11 1.073906e-11 2.808563e-11) (6.320487e-12 5.285523e-12 -1.234843e-11)) ((-1.499493e-12 -1.455260e-15 2.368397e-15) (-1.128849e-08 -4.366825e-13 -9.049351e-14))
1566.458841   	((3.257766e-11 1.355182e-11 2.952606e-11) (6.216379e-12 4.534892e-12 -1.069533e-11)) ((-1.475059e-12 -1.475256e-15 2.266740e-15) (-1.113210e-08 -4.053252e-13 -8.152596e-14))
1822.564946   	((3.073225e-11 1.459001e-11 3.023223e-11) (6.264476e-12 4.132065e-12 -8.869820e-12)) ((-1.453505e-12 -1.500546e-15 2.175714e-15) (-1.099759e-08 -3.695642e-13 -7.550954e-14))
2078.693815   	((2.588799e-11 1.497427e-11 3.041536e-11) (6.698826e-12 4.010591e-12 -7.113774e-12)) ((-1.435313e-12 -1.452870e-15 2.071375e-15) (-1.088323e-08 -3.314560e-13 -7.531156e-14))
2334.838043   	((2.362467e-11 1.554913e-11 3.109883e-11) (6.606224e-12 4.224837e-12 -5.220489e-12)) ((-1.419501e-12 -1.418549e-15 1.970973e-15) (-1.078631e-08 -2.942366e-13 -8.218570e-14))
2590.990278   	((2.227794e-11 1.614584e-11 3.188107e-11) (6.766241e-12 4.447618e-12 -3.772759e-12)) ((-1.406205e-12 -1.324784e-15 1.882498e-15) (-1.070440e-08 -2.581616e-13 -9.015622e-14))
2847.150904   	((2.082515e-11 1.686262e-11 3.218342e-11) (7.210058e-12 4.772132e-12 -2.557229e-12)) ((-1.394835e-12 -1.188270e-15 1.788344e-15) (-1.063498e-08 -2.254764e-13 -9.956808e-14))
3103.320104   	((1.891318e-11 1.726052e-11 3.259979e-11) (7.899159e-12 5.085350e-12 -1.525027e-12)) ((-1.385031e-12 -1.095162e-15 1.702825e-15) (-1.057600e-08 -1.997650e-13 -1.062501e-13))
3359.498376   	((1.633489e-11 1.757804e-11 3.282748e-11) (8.462268e-12 5.302049e-12 -7.827448e-13)) ((-1.376649e-12 -1.037308e-15 1.637670e-15) (-1.052567e-08 -1.808710e-13 -1.089697e-13))
3615.685754   	((1.432030e-11 1.789133e-11 3.289236e-11) (8.845902e-12 5.376084e-12 -2.660672e-13)) ((-1.369514e-12 -9.736129e-16 1.578422e-15) (-1.048259e-08 -1.668987e-13 -1.114279e-13))
3871.882112   	((1.309059e-11 1.810214e-11 3.300602e-11) (9.126094e-12 5.432414e-12 1.152159e-13)) ((-1.363322e-12 -9.298630e-16 1.540916e-15) (-1.044555e-08 -1.578322e-13 -1.115061e-13))
4128.08729    	((1.261310e-11 1.812864e-11 3.297032e-11) (9.220819e-12 5.432292e-12 3.865359e-13)) ((-1.357921e-12 -8.948612e-16 1.518709e-15) (-1.041361e-08 -1.515382e-13 -1.111930e-13))
4384.300832   	((1.258367e-11 1.800013e-11 3.262015e-11) (9.299674e-12 5.390141e-12 6.019791e-13)) ((-1.353189e-12 -8.399598e-16 1.498929e-15) (-1.038597e-08 -1.463478e-13 -1.101532e-13))
4640.522134   	((1.244664e-11 1.782944e-11 3.225516e-11) (9.407588e-12 5.291492e-12 7.770930e-13)) ((-1.349091e-12 -7.951953e-16 1.477617e-15) (-1.036199e-08 -1.409577e-13 -1.085492e-13))
4896.75064    	((1.220359e-11 1.760987e-11 3.202804e-11) (9.612213e-12 5.145411e-12 9.266326e-13)) ((-1.345501e-12 -7.647577e-16 1.462537e-15) (-1.034114e-08 -1.352875e-13 -1.075002e-13))
5152.985907   	((1.165103e-11 1.744942e-11 3.180379e-11) (9.888452e-12 4.998894e-12 1.053226e-12)) ((-1.342355e-12 -7.439294e-16 1.451825e-15) (-1.032296e-08 -1.294709e-13 -1.069428e-13))
5409.227368   	((1.067529e-11 1.734675e-11 3.170344e-11) (1.011008e-11 4.865982e-12 1.189667e-12)) ((-1.339605e-12 -7.358557e-16 1.442810e-15) (-1.030708e-08 -1.233297e-13 -1.062848e-13))
5665.474537   	((9.717982e-12 1.725650e-11 3.157022e-11) (1.025826e-11 4.743994e-12 1.305850e-12)) ((-1.337205e-12 -7.243629e-16 1.430586e-15) (-1.029317e-08 -1.175633e-13 -1.060769e-13))
5921.726936   	((8.992601e-12 1.718950e-11 3.148067e-11) (1.032485e-11 4.632662e-12 1.385248e-12)) ((-1.335120e-12 -7.065374e-16 1.420504e-15) (-1.028097e-08 -1.124238e-13 -1.068154e-13))
