# Forces      
# CofR        : (0.000000e+00 0.000000e+00 0.000000e+00)
# Time        forces(pressure viscous)	moments(pressure viscous)
0             	((0.000000e+00 0.000000e+00 0.000000e+00) (-2.274635e-14 1.592938e-04 6.101699e-16)) ((0.000000e+00 0.000000e+00 0.000000e+00) (7.888843e-16 3.538594e-17 -5.826065e-11))
0.012         	((1.475414e-09 4.633297e-02 -5.568496e-09) (-9.669394e-11 1.827410e-04 -1.363684e-10)) ((1.857186e-11 3.139351e-13 -8.749333e-09) (9.006770e-13 3.494899e-14 -1.185516e-10))
0.0264        	((-3.181913e-07 -3.340635e-03 -3.488344e-08) (-3.748917e-10 1.863070e-04 -1.555701e-10)) ((-3.460855e-11 -5.935381e-12 5.659515e-10) (-8.190806e-13 -1.734207e-13 -1.567874e-10))
0.04368       	((7.226480e-07 -9.622331e-03 -2.659332e-07) (2.918683e-10 1.654325e-04 -2.453172e-10)) ((-2.402251e-11 7.273713e-12 2.348894e-09) (-5.971207e-12 -2.581318e-13 -1.324746e-10))
0.064416      	((-7.406236e-08 -9.105030e-05 1.802161e-07) (3.157212e-09 1.464762e-04 1.728073e-09)) ((1.649047e-11 1.363292e-12 -1.354738e-10) (1.145863e-11 -5.928860e-13 -1.653630e-10))
0.0892992     	((-1.494873e-07 1.128712e-04 1.058466e-07) (2.978902e-09 1.351955e-04 3.208888e-09)) ((2.382148e-12 -5.628000e-12 -1.333388e-10) (4.411151e-12 -3.699981e-12 -1.796621e-10))
0.119159      	((1.152564e-07 -1.494775e-04 1.995490e-07) (9.922739e-10 1.248259e-04 3.156566e-09)) ((1.175708e-11 1.152670e-13 6.214737e-11) (-3.555927e-11 -8.360343e-12 -1.604738e-10))
0.154991      	((1.401436e-08 -7.807503e-05 5.998209e-08) (1.090498e-09 1.138844e-04 2.829906e-09)) ((1.218448e-11 3.575811e-12 3.993469e-12) (-4.256852e-11 -7.852813e-12 -1.298640e-10))
0.197989      	((3.050705e-08 -1.866696e-05 1.739399e-08) (8.156928e-10 1.029114e-04 2.007433e-09)) ((1.183777e-11 2.044306e-12 -8.967481e-12) (-2.404479e-11 -5.342706e-12 -1.148166e-10))
0.249587      	((-7.402445e-10 2.819806e-06 1.451432e-08) (-4.001761e-10 9.223445e-05 1.416650e-09)) ((6.645665e-12 7.125268e-13 -3.681113e-12) (-1.202647e-11 -4.742592e-12 -8.031214e-11))
0.311504      	((-1.665609e-08 1.241666e-05 4.366608e-09) (-1.474649e-09 8.217712e-05 9.301511e-10)) ((4.402417e-12 4.128687e-13 -5.019381e-12) (1.564765e-12 -4.213594e-12 -1.842122e-11))
0.385805      	((-1.455831e-08 1.739917e-05 -3.076485e-09) (-1.634902e-09 7.299924e-05 5.345910e-10)) ((2.879155e-12 1.952453e-13 -4.347055e-12) (1.055192e-11 -3.077697e-12 2.499360e-11))
0.474966      	((-8.201533e-09 2.008252e-05 -5.183041e-09) (-6.624239e-10 6.483640e-05 3.273070e-10)) ((1.916746e-12 1.587173e-13 -3.508114e-12) (1.441961e-11 -2.576791e-12 5.191464e-11))
0.581959      	((-4.397541e-09 2.121008e-05 -5.815692e-09) (4.714992e-10 5.766176e-05 1.663994e-10)) ((1.120448e-12 1.211723e-13 -2.606946e-12) (1.479368e-11 -2.625969e-12 6.836459e-11))
0.710351      	((-2.318633e-09 2.118555e-05 -4.461737e-09) (1.046050e-09 5.140567e-05 1.229688e-10)) ((6.673073e-13 1.263406e-14 -2.597313e-12) (1.127899e-11 -2.628868e-12 7.391117e-11))
0.864421      	((-1.817701e-09 2.042934e-05 -3.562176e-09) (1.221901e-09 4.598624e-05 9.941884e-11)) ((3.176477e-13 -4.299082e-14 -3.509874e-12) (7.217376e-12 -2.563735e-12 4.936952e-11))
1.049306      	((-2.034311e-09 1.930968e-05 -2.440783e-09) (1.221684e-09 4.129901e-05 8.363179e-11)) ((1.305582e-13 -3.160228e-14 -3.658410e-12) (4.079231e-12 -2.369300e-12 2.238613e-11))
1.271167      	((-1.503256e-09 1.802389e-05 -2.207123e-09) (1.128691e-09 3.723222e-05 7.966436e-11)) ((2.922957e-14 -4.815705e-14 -3.068370e-12) (1.550908e-12 -2.145568e-12 1.003655e-11))
1.5374        	((-6.340043e-10 1.667209e-05 -1.443338e-09) (1.052761e-09 3.367387e-05 6.279874e-11)) ((-2.192803e-14 -4.179853e-14 -2.782110e-12) (-3.830501e-13 -1.911840e-12 1.436883e-13))
1.85688       	((-9.401006e-11 1.534732e-05 -1.136023e-09) (9.374804e-10 3.053255e-05 2.602714e-11)) ((-5.405299e-14 -4.034278e-14 -2.648808e-12) (-1.913618e-12 -1.647499e-12 -1.165200e-11))
2.240256      	((4.081700e-10 1.410506e-05 -6.386826e-10) (7.925961e-10 2.774329e-05 -1.961525e-11)) ((-6.681341e-14 -3.433368e-14 -2.756985e-12) (-2.820249e-12 -1.127541e-12 -2.281222e-11))
2.700307      	((2.179241e-10 1.296207e-05 -6.465822e-10) (5.887686e-10 2.525865e-05 -6.862700e-11)) ((-6.016305e-14 -3.279084e-14 -2.922887e-12) (-4.463931e-12 -7.847013e-13 -3.042874e-11))
3.252369      	((-2.919186e-10 1.191302e-05 -8.401753e-10) (3.843476e-10 2.303886e-05 -1.087228e-10)) ((-4.737791e-14 -2.993242e-14 -2.999118e-12) (-7.396064e-12 -7.122546e-13 -3.245708e-11))
3.914842      	((-6.682269e-10 1.095997e-05 -1.598548e-09) (3.398779e-10 2.105136e-05 -1.245576e-10)) ((-2.675879e-14 -3.496757e-14 -2.778441e-12) (-1.056174e-11 -6.004482e-13 -2.800805e-11))
4.709811      	((-1.584997e-09 1.010890e-05 -2.264376e-09) (3.021103e-10 1.927256e-05 -1.331749e-10)) ((1.051034e-15 -4.118697e-14 -2.399952e-12) (-1.351141e-11 -3.741315e-13 -1.207143e-11))
5.663773      	((-2.799830e-09 9.364683e-06 -2.735542e-09) (2.462313e-10 1.768519e-05 -1.476058e-10)) ((1.234904e-14 -3.894848e-14 -2.209016e-12) (-1.619257e-11 -2.615346e-13 9.624782e-12))
6.808528      	((-2.586579e-09 8.720179e-06 -2.521886e-09) (2.556395e-10 1.627272e-05 -1.542837e-10)) ((1.810203e-14 -3.766117e-14 -2.171213e-12) (-1.792079e-11 -2.251890e-13 3.037949e-11))
8.182233      	((-3.323465e-09 8.172825e-06 -2.818498e-09) (2.849782e-10 1.501745e-05 -1.670610e-10)) ((3.540115e-14 -4.198683e-14 -2.278597e-12) (-1.788291e-11 -2.069471e-13 4.879672e-11))
9.83068       	((-3.314565e-09 7.727753e-06 -3.391739e-09) (2.004622e-10 1.390146e-05 -2.080996e-10)) ((4.167897e-14 -4.857001e-14 -2.450955e-12) (-1.645817e-11 -1.379148e-13 6.176216e-11))
11.808816     	((-3.923758e-09 7.380574e-06 -4.139968e-09) (8.940920e-11 1.290859e-05 -2.934716e-10)) ((6.838584e-14 -5.177976e-14 -2.691559e-12) (-1.587806e-11 -1.236755e-13 6.946815e-11))
14.182579     	((-3.129988e-09 7.129802e-06 -4.158437e-09) (6.052141e-11 1.202565e-05 -3.861963e-10)) ((9.283527e-14 -5.282311e-14 -3.000175e-12) (-2.007035e-11 -1.146069e-13 7.977590e-11))
17.031095     	((-2.622385e-09 6.977654e-06 -3.663255e-09) (-2.111886e-11 1.124289e-05 -4.490468e-10)) ((9.199664e-14 -5.685623e-14 -3.398992e-12) (-2.766690e-11 -4.063420e-14 8.964442e-11))
20.449314     	((-2.500888e-09 6.918107e-06 -3.308792e-09) (-1.020877e-10 1.055341e-05 -5.017766e-10)) ((9.661051e-14 -5.871966e-14 -3.922794e-12) (-3.505207e-11 1.230427e-13 9.882827e-11))
24.551176     	((-2.149048e-09 6.944863e-06 -2.643486e-09) (-1.047027e-10 9.952138e-06 -5.021091e-10)) ((8.453818e-14 -5.939802e-14 -4.573198e-12) (-3.938525e-11 2.870791e-13 1.113488e-10))
29.473411     	((-3.776931e-10 7.051021e-06 -1.352406e-09) (-4.284625e-11 9.433230e-06 -4.462919e-10)) ((5.187101e-14 -5.424018e-14 -5.327832e-12) (-4.336767e-11 3.108820e-13 1.226593e-10))
35.380094     	((1.440323e-09 7.228024e-06 5.347677e-10) (7.579911e-11 8.994181e-06 -3.098528e-10)) ((1.962602e-14 -5.376984e-14 -6.239491e-12) (-4.943073e-11 2.013692e-13 1.371155e-10))
42.468112     	((3.473550e-09 7.462885e-06 2.600403e-09) (2.593745e-10 8.629833e-06 -1.302692e-10)) ((4.435276e-15 -4.483921e-14 -7.216633e-12) (-5.579893e-11 -1.241032e-15 1.521047e-10))
50.973735     	((5.034794e-09 7.728400e-06 4.008665e-09) (5.404952e-10 8.335484e-06 4.583899e-11)) ((-1.649967e-14 -4.596052e-14 -8.288306e-12) (-6.252008e-11 -1.007644e-13 1.672246e-10))
60.94389      	((7.367567e-09 8.004598e-06 6.402548e-09) (9.019204e-10 8.106475e-06 3.092398e-10)) ((-4.032473e-14 -4.712511e-14 -9.235850e-12) (-6.703887e-11 4.755346e-14 1.808311e-10))
72.367001     	((9.987014e-09 8.254904e-06 8.761333e-09) (1.382031e-09 7.930884e-06 6.150921e-10)) ((-7.360681e-14 -5.065146e-14 -1.004426e-11) (-7.151820e-11 1.106566e-13 1.897080e-10))
85.236202     	((1.226614e-08 8.451288e-06 1.109021e-08) (1.816825e-09 7.791902e-06 9.881257e-10)) ((-1.089974e-13 -4.413833e-14 -1.061490e-11) (-7.442244e-11 -4.705999e-14 1.943802e-10))
99.549113     	((1.413872e-08 8.587377e-06 1.291159e-08) (2.261911e-09 7.676374e-06 1.411785e-09)) ((-1.222294e-13 -4.050326e-14 -1.107538e-11) (-7.403520e-11 -7.917005e-14 1.932721e-10))
114.028435    	((1.582741e-08 8.686859e-06 1.463612e-08) (2.702195e-09 7.581028e-06 1.864381e-09)) ((-1.398473e-13 -3.554525e-14 -1.148888e-11) (-7.313133e-11 1.416594e-13 1.910054e-10))
128.558965    	((1.677052e-08 8.736859e-06 1.579159e-08) (3.142705e-09 7.499149e-06 2.290374e-09)) ((-1.468533e-13 -3.125583e-14 -1.184923e-11) (-7.199546e-11 3.827223e-13 1.880450e-10))
143.115135    	((1.716717e-08 8.758433e-06 1.633805e-08) (3.562041e-09 7.428714e-06 2.707940e-09)) ((-1.508832e-13 -2.716334e-14 -1.214330e-11) (-6.884666e-11 3.243105e-13 1.840642e-10))
157.677603    	((1.725242e-08 8.762904e-06 1.648532e-08) (3.897042e-09 7.367567e-06 3.057624e-09)) ((-1.511954e-13 -2.600711e-14 -1.235211e-11) (-6.359872e-11 3.745027e-13 1.790434e-10))
172.244052    	((1.719987e-08 8.755631e-06 1.649432e-08) (4.135264e-09 7.314091e-06 3.327504e-09)) ((-1.480833e-13 -2.371059e-14 -1.250799e-11) (-5.638335e-11 3.505311e-13 1.723011e-10))
186.817838    	((1.710525e-08 8.738737e-06 1.640306e-08) (4.336383e-09 7.266907e-06 3.530734e-09)) ((-1.542666e-13 -2.252007e-14 -1.262882e-11) (-4.820252e-11 3.233158e-13 1.649436e-10))
201.399696    	((1.691586e-08 8.719922e-06 1.625791e-08) (4.533595e-09 7.225021e-06 3.693095e-09)) ((-1.634163e-13 -2.461650e-14 -1.272140e-11) (-3.959052e-11 4.242818e-13 1.573632e-10))
215.988372    	((1.667799e-08 8.702446e-06 1.595785e-08) (4.703517e-09 7.187900e-06 3.816826e-09)) ((-1.695128e-13 -2.830984e-14 -1.279855e-11) (-3.106341e-11 5.104303e-13 1.494122e-10))
230.582872    	((1.619766e-08 8.685660e-06 1.553048e-08) (4.820128e-09 7.154976e-06 3.897995e-09)) ((-1.700773e-13 -3.063300e-14 -1.286537e-11) (-2.284706e-11 5.585261e-13 1.413229e-10))
245.18267     	((1.564162e-08 8.670610e-06 1.495184e-08) (4.878807e-09 7.125818e-06 3.928488e-09)) ((-1.690261e-13 -3.191601e-14 -1.292554e-11) (-1.492203e-11 5.857667e-13 1.333956e-10))
259.787268    	((1.499048e-08 8.657065e-06 1.418361e-08) (4.901162e-09 7.100029e-06 3.921403e-09)) ((-1.689260e-13 -3.366416e-14 -1.297440e-11) (-7.326551e-12 6.292870e-13 1.254413e-10))
274.396144    	((1.437758e-08 8.644887e-06 1.338291e-08) (4.881100e-09 7.077227e-06 3.875148e-09)) ((-1.692537e-13 -3.691762e-14 -1.301532e-11) (-3.441332e-13 6.195868e-13 1.179530e-10))
289.008858    	((1.367944e-08 8.633409e-06 1.247860e-08) (4.828487e-09 7.057013e-06 3.793279e-09)) ((-1.659285e-13 -3.885010e-14 -1.305183e-11) (6.139438e-12 6.045862e-13 1.112700e-10))
303.625047    	((1.309427e-08 8.622563e-06 1.162134e-08) (4.765722e-09 7.039026e-06 3.695272e-09)) ((-1.626845e-13 -3.938750e-14 -1.308330e-11) (1.224077e-11 6.398680e-13 1.056234e-10))
318.244381    	((1.229351e-08 8.612353e-06 1.056471e-08) (4.676460e-09 7.022968e-06 3.568821e-09)) ((-1.578213e-13 -4.013318e-14 -1.311107e-11) (1.792784e-11 6.143218e-13 1.009134e-10))
332.866568    	((1.170319e-08 8.603051e-06 9.615786e-09) (4.576113e-09 7.008620e-06 3.423622e-09)) ((-1.550036e-13 -4.053803e-14 -1.313524e-11) (2.315852e-11 5.701145e-13 9.698091e-11))
347.491353    	((1.110241e-08 8.594451e-06 8.726281e-09) (4.470253e-09 6.995787e-06 3.272713e-09)) ((-1.531025e-13 -4.066583e-14 -1.315750e-11) (2.788204e-11 5.555198e-13 9.355716e-11))
362.118498    	((1.054259e-08 8.586434e-06 7.831916e-09) (4.359665e-09 6.984293e-06 3.116096e-09)) ((-1.510038e-13 -4.113133e-14 -1.317691e-11) (3.216028e-11 5.847700e-13 9.057787e-11))
376.747778    	((1.002255e-08 8.578741e-06 6.965794e-09) (4.251468e-09 6.973964e-06 2.957733e-09)) ((-1.481153e-13 -4.134719e-14 -1.319424e-11) (3.603962e-11 6.178091e-13 8.798632e-11))
391.378997    	((9.438373e-09 8.571622e-06 6.038996e-09) (4.138881e-09 6.964658e-06 2.790693e-09)) ((-1.438826e-13 -4.111381e-14 -1.321109e-11) (3.951400e-11 6.343998e-13 8.566411e-11))
406.01198     	((8.902104e-09 8.565171e-06 5.220797e-09) (4.025393e-09 6.956280e-06 2.623575e-09)) ((-1.407431e-13 -4.121392e-14 -1.322671e-11) (4.273513e-11 6.548370e-13 8.349355e-11))
420.646568    	((8.363553e-09 8.559336e-06 4.389331e-09) (3.911135e-09 6.948743e-06 2.454971e-09)) ((-1.368980e-13 -4.145851e-14 -1.324089e-11) (4.575965e-11 6.734605e-13 8.141057e-11))
435.282618    	((7.915670e-09 8.553831e-06 3.678131e-09) (3.803265e-09 6.941943e-06 2.294145e-09)) ((-1.342421e-13 -4.195015e-14 -1.325356e-11) (4.865425e-11 6.848273e-13 7.934412e-11))
449.919995    	((7.428474e-09 8.548751e-06 2.935530e-09) (3.699364e-09 6.935796e-06 2.136965e-09)) ((-1.302795e-13 -4.282347e-14 -1.326521e-11) (5.141654e-11 6.911395e-13 7.728876e-11))
464.558582    	((6.966730e-09 8.544108e-06 2.286134e-09) (3.598332e-09 6.930242e-06 1.986855e-09)) ((-1.278243e-13 -4.360920e-14 -1.327566e-11) (5.404973e-11 6.973587e-13 7.526221e-11))
479.198275    	((6.520059e-09 8.539676e-06 1.661247e-09) (3.501903e-09 6.925209e-06 1.846007e-09)) ((-1.253401e-13 -4.425727e-14 -1.328491e-11) (5.654933e-11 7.064059e-13 7.329322e-11))
493.838977    	((6.093172e-09 8.535489e-06 1.058022e-09) (3.409843e-09 6.920632e-06 1.712272e-09)) ((-1.225800e-13 -4.477920e-14 -1.329335e-11) (5.894753e-11 7.140086e-13 7.137701e-11))
508.4806      	((5.659371e-09 8.531645e-06 4.518662e-10) (3.320600e-09 6.916467e-06 1.583324e-09)) ((-1.194187e-13 -4.534822e-14 -1.330121e-11) (6.127453e-11 7.171870e-13 6.943595e-11))
523.123064    	((5.266496e-09 8.528125e-06 -1.203074e-10) (3.237495e-09 6.912679e-06 1.460313e-09)) ((-1.164571e-13 -4.598565e-14 -1.330829e-11) (6.354985e-11 7.182792e-13 6.746580e-11))
537.766297    	((4.836018e-09 8.524868e-06 -6.893325e-10) (3.157080e-09 6.909231e-06 1.341979e-09)) ((-1.131586e-13 -4.671224e-14 -1.331471e-11) (6.578659e-11 7.176634e-13 6.547830e-11))
552.410233    	((4.411561e-09 8.521892e-06 -1.227927e-09) (3.077886e-09 6.906092e-06 1.229088e-09)) ((-1.102346e-13 -4.734000e-14 -1.332051e-11) (6.800253e-11 7.170032e-13 6.348638e-11))
567.05481     	((3.979135e-09 8.519152e-06 -1.759153e-09) (2.999447e-09 6.903234e-06 1.121096e-09)) ((-1.073041e-13 -4.791140e-14 -1.332579e-11) (7.020048e-11 7.145624e-13 6.149993e-11))
581.699974    	((3.535688e-09 8.516628e-06 -2.283398e-09) (2.920215e-09 6.900630e-06 1.016848e-09)) ((-1.043702e-13 -4.852402e-14 -1.333065e-11) (7.237954e-11 7.116169e-13 5.953179e-11))
596.345675    	((3.087308e-09 8.514308e-06 -2.802720e-09) (2.839935e-09 6.898254e-06 9.152523e-10)) ((-1.013395e-13 -4.919617e-14 -1.333512e-11) (7.452970e-11 7.081886e-13 5.759420e-11))
610.991867    	((2.638030e-09 8.512182e-06 -3.311992e-09) (2.758589e-09 6.896088e-06 8.158467e-10)) ((-9.838994e-14 -4.991092e-14 -1.333920e-11) (7.664106e-11 7.029026e-13 5.569382e-11))
625.638507    	((2.182424e-09 8.510216e-06 -3.829276e-09) (2.675496e-09 6.894109e-06 7.173303e-10)) ((-9.517861e-14 -5.058034e-14 -1.334300e-11) (7.870151e-11 6.963942e-13 5.384570e-11))
640.285557    	((1.733639e-09 8.508409e-06 -4.337503e-09) (2.591480e-09 6.892303e-06 6.196516e-10)) ((-9.210002e-14 -5.125433e-14 -1.334650e-11) (8.070499e-11 6.902016e-13 5.205383e-11))
654.932983    	((1.282686e-09 8.506744e-06 -4.841136e-09) (2.506589e-09 6.890652e-06 5.227311e-10)) ((-8.901746e-14 -5.188034e-14 -1.334972e-11) (8.264675e-11 6.872741e-13 5.032093e-11))
669.580754    	((8.409479e-10 8.505211e-06 -5.338428e-09) (2.421296e-09 6.889142e-06 4.265661e-10)) ((-8.600328e-14 -5.248619e-14 -1.335264e-11) (8.453207e-11 6.846488e-13 4.865072e-11))
684.22884     	((4.072898e-10 8.503792e-06 -5.829366e-09) (2.336102e-09 6.887761e-06 3.310144e-10)) ((-8.298959e-14 -5.300960e-14 -1.335534e-11) (8.635999e-11 6.824477e-13 4.704333e-11))
698.877215    	((-1.749376e-11 8.502481e-06 -6.312753e-09) (2.251098e-09 6.886495e-06 2.359054e-10)) ((-8.002591e-14 -5.343015e-14 -1.335785e-11) (8.812387e-11 6.802774e-13 4.550015e-11))
713.525857    	((-4.288318e-10 8.501272e-06 -6.783013e-09) (2.166928e-09 6.885336e-06 1.418480e-10)) ((-7.720418e-14 -5.378607e-14 -1.336017e-11) (8.982284e-11 6.776456e-13 4.402525e-11))
728.174742    	((-8.308234e-10 8.500160e-06 -7.244218e-09) (2.083684e-09 6.884274e-06 4.877401e-11)) ((-7.443906e-14 -5.408823e-14 -1.336230e-11) (9.145561e-11 6.744684e-13 4.262624e-11))
742.823852    	((-1.221551e-09 8.499137e-06 -7.685712e-09) (2.001576e-09 6.883300e-06 -4.273699e-11)) ((-7.185496e-14 -5.433734e-14 -1.336428e-11) (9.301789e-11 6.715031e-13 4.129905e-11))
757.473168    	((-1.608848e-09 8.498190e-06 -8.116714e-09) (1.920309e-09 6.882406e-06 -1.325896e-10)) ((-6.932609e-14 -5.461385e-14 -1.336611e-11) (9.451115e-11 6.693874e-13 4.003751e-11))
772.122674    	((-1.989170e-09 8.497313e-06 -8.531524e-09) (1.839930e-09 6.881587e-06 -2.204902e-10)) ((-6.693401e-14 -5.486900e-14 -1.336777e-11) (9.592709e-11 6.677451e-13 3.884163e-11))
786.772355    	((-2.361832e-09 8.496505e-06 -8.931730e-09) (1.760586e-09 6.880835e-06 -3.062391e-10)) ((-6.459746e-14 -5.512487e-14 -1.336933e-11) (9.727242e-11 6.658942e-13 3.769767e-11))
801.422195    	((-2.727257e-09 8.495758e-06 -9.316374e-09) (1.682587e-09 6.880144e-06 -3.896026e-10)) ((-6.234962e-14 -5.536721e-14 -1.337075e-11) (9.854918e-11 6.635297e-13 3.659008e-11))
816.072184    	((-3.086437e-09 8.495069e-06 -9.684973e-09) (1.606055e-09 6.879510e-06 -4.703942e-10)) ((-6.023551e-14 -5.559905e-14 -1.337205e-11) (9.975706e-11 6.609072e-13 3.550956e-11))
830.722307    	((-3.440137e-09 8.494432e-06 -1.004208e-08) (1.531013e-09 6.878927e-06 -5.486801e-10)) ((-5.814420e-14 -5.582413e-14 -1.337326e-11) (1.009040e-10 6.584411e-13 3.445070e-11))
845.372555    	((-3.786909e-09 8.493844e-06 -1.038521e-08) (1.457532e-09 6.878391e-06 -6.244200e-10)) ((-5.612990e-14 -5.604410e-14 -1.337438e-11) (1.019971e-10 6.560924e-13 3.340610e-11))
860.022916    	((-4.129571e-09 8.493304e-06 -1.071915e-08) (1.385525e-09 6.877898e-06 -6.977441e-10)) ((-5.414653e-14 -5.625340e-14 -1.337542e-11) (1.030437e-10 6.538724e-13 3.237106e-11))
874.673382    	((-4.467014e-09 8.492803e-06 -1.104296e-08) (1.315005e-09 6.877445e-06 -7.687866e-10)) ((-5.221798e-14 -5.644775e-14 -1.337638e-11) (1.040493e-10 6.518533e-13 3.134066e-11))
889.323944    	((-4.801209e-09 8.492343e-06 -1.135995e-08) (1.245829e-09 6.877027e-06 -8.376822e-10)) ((-5.031434e-14 -5.663435e-14 -1.337727e-11) (1.050230e-10 6.503296e-13 3.031399e-11))
903.974593    	((-5.130819e-09 8.491921e-06 -1.166959e-08) (1.177842e-09 6.876644e-06 -9.044914e-10)) ((-4.838233e-14 -5.684274e-14 -1.337811e-11) (1.059731e-10 6.491560e-13 2.929353e-11))
