# Forces      
# CofR        : (0.000000e+00 0.000000e+00 0.000000e+00)
# Time        forces(pressure viscous)	moments(pressure viscous)
0             	((0.000000e+00 0.000000e+00 0.000000e+00) (0.000000e+00 0.000000e+00 0.000000e+00)) ((0.000000e+00 0.000000e+00 0.000000e+00) (0.000000e+00 0.000000e+00 0.000000e+00))
0.012         	((1.279069e-08 -7.007384e-09 1.536212e-08) (2.075113e-10 -9.629693e-12 -6.802624e-11)) ((-6.661878e-08 6.327541e-12 1.084441e-13) (-4.421539e-05 -6.299628e-12 2.452565e-12))
0.0264        	((-1.040196e-08 -9.182670e-09 2.845068e-08) (1.912519e-09 -1.846590e-11 -5.749407e-12)) ((-3.602843e-08 4.873935e-12 -1.192466e-12) (-4.051665e-05 -8.536262e-12 4.298995e-12))
0.04368       	((-1.577427e-08 1.796009e-08 3.073695e-08) (3.700204e-09 8.722033e-11 2.535911e-11)) ((-2.377564e-08 3.621679e-12 -1.028937e-12) (-3.678025e-05 -6.900026e-12 1.306112e-12))
0.064416      	((3.235706e-08 -7.043803e-09 1.727204e-08) (4.543798e-09 2.160119e-10 -6.019054e-11)) ((-1.739002e-08 3.258548e-12 3.764434e-13) (-3.313827e-05 -7.191905e-12 -1.416514e-12))
0.0892992     	((-5.395183e-08 9.941945e-09 1.981240e-08) (6.323587e-09 2.848467e-10 -4.422900e-11)) ((-1.544210e-08 2.046818e-12 5.949238e-13) (-2.973658e-05 -8.741859e-12 -1.607940e-12))
0.119159      	((1.807449e-08 -3.502558e-09 9.433741e-09) (7.723504e-09 2.044959e-10 1.232704e-10)) ((-1.292568e-08 2.248788e-12 2.968769e-13) (-2.668770e-05 -9.130858e-12 -6.608454e-15))
0.154991      	((-2.736832e-08 -9.249722e-09 -9.295273e-09) (7.469278e-09 5.506423e-11 3.517105e-10)) ((-1.146004e-08 2.328153e-12 -1.667453e-13) (-2.403633e-05 -5.065106e-12 2.829160e-12))
0.197989      	((-3.221364e-09 -4.372515e-09 -2.749213e-09) (9.324997e-09 -1.819150e-11 4.716646e-10)) ((-1.021866e-08 1.326601e-12 -5.091704e-13) (-2.174908e-05 1.258400e-12 4.078101e-12))
0.249587      	((-3.505417e-08 2.421889e-09 1.486123e-08) (1.179020e-08 1.301541e-10 8.469733e-10)) ((-9.220567e-09 1.751235e-12 -8.086338e-13) (-1.970457e-05 7.870432e-12 4.849097e-12))
0.311504      	((-2.557866e-08 -5.800181e-09 1.233103e-08) (6.108296e-09 -1.347777e-11 9.292884e-10)) ((-8.212125e-09 2.889070e-12 -1.339369e-12) (-1.777634e-05 1.141471e-11 7.012899e-12))
0.385805      	((-7.707841e-08 -6.509308e-09 1.439949e-08) (-2.899585e-09 -4.055954e-10 5.220181e-10)) ((-7.312631e-09 2.315507e-12 -1.284192e-12) (-1.594304e-05 1.076066e-11 7.779477e-12))
0.474966      	((-7.778354e-08 -2.266174e-09 1.891649e-08) (-8.412844e-09 -8.078084e-11 7.852645e-10)) ((-6.494459e-09 1.835106e-12 -1.064172e-12) (-1.425163e-05 1.566089e-11 5.005155e-12))
0.581959      	((-3.752697e-08 -9.852311e-09 2.081852e-08) (-7.309268e-09 6.093953e-10 1.345972e-09)) ((-5.722759e-09 2.178582e-12 -1.013754e-12) (-1.273878e-05 3.304801e-11 -3.805911e-12))
0.710351      	((-5.293583e-08 -2.000626e-09 4.408797e-08) (-9.069454e-10 1.355016e-09 2.036662e-09)) ((-4.943081e-09 3.228813e-12 -1.699320e-12) (-1.140939e-05 4.863287e-11 -1.444462e-11))
0.864421      	((2.766639e-09 9.113197e-09 4.499042e-08) (4.412817e-09 3.024227e-09 3.562203e-09)) ((-4.255448e-09 2.538566e-12 -1.198190e-12) (-1.024534e-05 6.078556e-11 -3.313111e-11))
1.049306      	((-1.536922e-08 7.307763e-09 6.109011e-08) (5.242016e-09 4.099247e-09 4.421882e-09)) ((-3.765941e-09 1.266683e-12 -4.260096e-13) (-9.223144e-06 6.118816e-11 -4.588331e-11))
1.271167      	((-1.529861e-08 4.740667e-08 7.918953e-08) (1.681243e-10 4.831414e-09 4.601449e-09)) ((-3.406438e-09 1.397344e-12 -2.891360e-12) (-8.326123e-06 3.516411e-11 -2.094355e-11))
1.5374        	((-3.301438e-08 6.218088e-08 1.214633e-07) (4.719095e-09 6.722326e-09 6.099894e-09)) ((-3.122618e-09 2.934528e-12 -5.051228e-12) (-7.544049e-06 -2.734922e-11 4.578091e-11))
1.85688       	((1.516146e-08 4.120966e-08 9.566911e-08) (4.767680e-09 6.266993e-09 7.872403e-09)) ((-2.864788e-09 2.519554e-12 -4.302040e-12) (-6.869156e-06 -5.342439e-11 1.078392e-10))
2.240256      	((1.038089e-10 4.124302e-08 8.352570e-08) (2.577801e-09 4.855949e-10 7.571328e-09)) ((-2.603141e-09 6.275108e-13 -2.118638e-12) (-6.290935e-06 -8.782160e-12 1.699221e-10))
2.700307      	((2.475669e-08 4.129311e-08 3.904758e-08) (2.753133e-09 -3.330743e-09 1.285856e-08)) ((-2.344084e-09 7.451081e-13 -2.697428e-12) (-5.795445e-06 4.451437e-11 2.794927e-10))
3.252369      	((1.015640e-08 3.132572e-08 2.389614e-08) (1.522654e-08 -5.466520e-09 2.140840e-08)) ((-2.102651e-09 -1.291171e-12 -1.959247e-12) (-5.366908e-06 1.272403e-10 3.912759e-10))
3.914842      	((3.195559e-08 5.737901e-08 3.598794e-08) (1.939463e-08 -5.515747e-09 3.305206e-08)) ((-1.874108e-09 -2.186301e-12 -3.050250e-13) (-4.991371e-06 2.375109e-10 4.687394e-10))
4.709811      	((1.275233e-08 6.610404e-08 4.056017e-08) (1.282374e-08 -4.152928e-09 4.624154e-08)) ((-1.680217e-09 -2.534766e-12 7.272213e-13) (-4.658763e-06 3.583056e-10 4.953197e-10))
5.663773      	((1.244189e-08 5.796227e-08 3.354419e-08) (1.045799e-08 -5.482521e-09 5.023058e-08)) ((-1.509150e-09 -3.178447e-12 2.366809e-12) (-4.361861e-06 4.680082e-10 4.277493e-10))
6.808528      	((3.724492e-09 5.694331e-08 3.879225e-08) (8.227510e-09 -5.705449e-10 5.195667e-08)) ((-1.369503e-09 -3.914934e-12 2.993492e-12) (-4.095162e-06 5.085209e-10 3.072482e-10))
8.182233      	((-1.147447e-08 4.701002e-08 3.383388e-08) (-7.293347e-09 3.013437e-10 4.786052e-08)) ((-1.243359e-09 -2.764282e-12 1.834572e-12) (-3.855224e-06 4.762494e-10 1.894111e-10))
9.830352      	((-1.910607e-08 2.382342e-08 3.831205e-08) (-1.268288e-08 -6.065439e-09 4.025338e-08)) ((-1.141980e-09 -1.411773e-12 7.396440e-13) (-3.640267e-06 4.575748e-10 8.247816e-11))
11.758516     	((-1.811456e-08 8.525283e-09 2.325605e-08) (-4.604223e-09 -8.919289e-09 3.445270e-08)) ((-1.067645e-09 -6.671722e-13 2.187635e-13) (-3.453358e-06 4.476915e-10 -2.480382e-11))
13.973087     	((-1.097775e-08 1.637582e-08 1.559845e-08) (-1.019219e-08 -1.179713e-08 2.831722e-08)) ((-1.013845e-09 -1.891817e-12 1.525636e-12) (-3.295495e-06 4.481063e-10 -1.505643e-10))
16.481377     	((-1.172694e-08 1.616999e-08 9.001291e-09) (-5.528583e-09 -1.522249e-08 2.702529e-08)) ((-9.668993e-10 -1.968678e-12 1.727193e-12) (-3.166733e-06 4.221243e-10 -2.859620e-10))
19.291442     	((-9.072642e-09 1.791138e-08 4.556732e-09) (1.567327e-10 -1.466474e-08 2.756129e-08)) ((-9.328282e-10 -2.061798e-12 2.765358e-12) (-3.065610e-06 3.715926e-10 -4.273673e-10))
22.393085     	((-1.033692e-08 1.299004e-08 8.332334e-09) (1.597007e-09 -1.331770e-08 2.604450e-08)) ((-9.077521e-10 -1.920389e-12 3.417185e-12) (-2.990474e-06 2.831585e-10 -5.292936e-10))
25.589355     	((-7.080418e-09 6.475905e-09 6.862890e-09) (-1.900934e-09 -1.002251e-08 2.575194e-08)) ((-8.870595e-10 -2.061355e-12 3.804911e-12) (-2.940966e-06 1.780836e-10 -5.540071e-10))
28.812641     	((-8.009719e-10 1.515443e-08 2.586530e-09) (-9.431848e-10 -9.889807e-09 2.317366e-08)) ((-8.702904e-10 -1.999828e-12 3.947807e-12) (-2.914419e-06 9.948600e-11 -4.975136e-10))
32.035622     	((3.798115e-10 4.750452e-08 3.290612e-08) (-5.937547e-10 -4.617664e-09 2.365629e-08)) ((-8.573872e-10 -1.309346e-12 3.272166e-12) (-2.908796e-06 8.044157e-11 -3.910814e-10))
35.249648     	((-5.193927e-09 5.914744e-08 3.800795e-08) (2.079939e-09 -6.053987e-09 2.164575e-08)) ((-8.482461e-10 -6.080244e-13 2.533183e-12) (-2.921793e-06 1.026431e-10 -2.983083e-10))
38.427498     	((-7.484553e-09 8.023637e-08 4.812778e-08) (3.102533e-09 -6.426800e-09 1.818539e-08)) ((-8.448906e-10 9.578595e-14 1.793111e-12) (-2.951567e-06 1.653531e-10 -2.626797e-10))
41.557399     	((-1.328032e-08 7.637469e-08 3.587389e-08) (4.190488e-09 -5.348184e-09 1.316525e-08)) ((-8.484095e-10 5.166953e-13 9.104205e-13) (-2.996364e-06 2.366453e-10 -2.733515e-10))
44.63392      	((-1.623096e-08 7.157239e-08 3.597393e-08) (4.299898e-09 5.655943e-10 8.258070e-09)) ((-8.607874e-10 8.555121e-13 1.839368e-14) (-3.054226e-06 2.828289e-10 -3.250421e-10))
47.655793     	((-1.609051e-08 5.233412e-08 2.342189e-08) (3.670684e-09 6.007384e-09 4.186376e-09)) ((-8.791234e-10 6.688802e-13 -5.505152e-13) (-3.122101e-06 2.916461e-10 -3.973069e-10))
50.6256       	((-1.872541e-08 3.805040e-08 2.117576e-08) (2.328104e-09 5.709703e-09 -1.044337e-09)) ((-8.983314e-10 2.816625e-13 -1.156095e-12) (-3.195354e-06 2.593489e-10 -4.619927e-10))
53.549072     	((-2.321042e-08 5.415557e-09 7.164556e-09) (3.513776e-09 4.729631e-09 -1.938147e-09)) ((-9.208532e-10 -2.657049e-13 -1.426063e-12) (-3.268313e-06 1.937584e-10 -5.146874e-10))
56.431386     	((-1.965960e-08 -3.305566e-08 4.909090e-09) (5.607118e-09 4.671240e-09 -3.036993e-10)) ((-9.452641e-10 -2.399917e-13 -1.354876e-12) (-3.334945e-06 1.175162e-10 -5.460789e-10))
59.277312     	((-1.277366e-08 -5.203688e-08 3.854444e-09) (9.949601e-09 2.924419e-09 1.940605e-09)) ((-9.720083e-10 -9.619394e-13 -5.061076e-13) (-3.390074e-06 4.833938e-11 -5.207087e-10))
62.094369     	((-3.395994e-09 -4.374066e-08 9.450172e-09) (1.119892e-08 -2.640314e-10 5.588072e-09)) ((-9.934546e-10 -1.244250e-12 5.746744e-13) (-3.430150e-06 1.390934e-11 -4.663570e-10))
64.859694     	((-2.607987e-09 -3.516216e-08 1.801365e-08) (8.243487e-09 -9.115516e-10 1.036575e-08)) ((-1.016318e-09 -1.541232e-12 1.210795e-12) (-3.454075e-06 2.695277e-12 -3.876738e-10))
67.576134     	((2.597165e-10 -1.103824e-08 9.279469e-09) (5.328120e-09 -2.370393e-09 1.166680e-08)) ((-1.031790e-09 -1.349541e-12 1.289100e-12) (-3.463583e-06 1.140776e-11 -3.011286e-10))
70.258843     	((-4.351098e-09 -2.393607e-09 -6.581662e-09) (6.603996e-09 -3.221065e-09 1.213396e-08)) ((-1.036393e-09 -1.045958e-12 1.362892e-12) (-3.461702e-06 3.136093e-11 -2.254535e-10))
72.916681     	((-1.405412e-08 1.158918e-08 -2.397817e-08) (7.807772e-09 -3.550682e-10 1.297074e-08)) ((-1.036144e-09 -6.409284e-13 1.063850e-12) (-3.452050e-06 6.396921e-11 -1.656070e-10))
75.557633     	((-7.962837e-09 5.614221e-08 -8.389463e-09) (5.781831e-09 4.967627e-09 1.486326e-08)) ((-1.032377e-09 -5.064283e-13 1.017093e-12) (-3.437164e-06 1.223125e-10 -1.499416e-10))
