# Forces      
# CofR        : (0.000000e+00 0.000000e+00 0.000000e+00)
# Time        forces(pressure viscous)	moments(pressure viscous)
0             	((0.000000e+00 0.000000e+00 0.000000e+00) (0.000000e+00 0.000000e+00 0.000000e+00)) ((0.000000e+00 0.000000e+00 0.000000e+00) (0.000000e+00 0.000000e+00 0.000000e+00))
0.012         	((-7.998000e-10 3.322946e-09 -7.580915e-09) (8.442290e-11 3.345727e-12 4.554054e-11)) ((3.257749e-08 -3.518721e-12 -4.741176e-14) (2.215026e-05 2.378828e-12 -8.571279e-13))
0.0264        	((8.897584e-10 5.533425e-09 -1.206329e-08) (4.616962e-10 -3.706570e-11 2.656411e-11)) ((1.687089e-08 -2.786828e-12 5.417112e-13) (2.029321e-05 3.281458e-12 -6.088539e-13))
0.04368       	((-2.447277e-08 -9.569502e-09 -1.436604e-08) (1.127479e-09 -1.091375e-10 -2.076198e-11)) ((1.031560e-08 -2.322715e-12 6.487129e-13) (1.840117e-05 1.364476e-12 1.189964e-12))
0.064416      	((2.289656e-08 -3.139054e-09 -4.335443e-09) (2.093470e-09 -1.467286e-10 -5.242162e-11)) ((6.824615e-09 -1.646480e-12 -3.297953e-13) (1.652887e-05 -2.262021e-12 3.183566e-12))
0.0892992     	((2.823167e-09 -5.973183e-09 5.051550e-09) (3.365945e-09 -1.352046e-10 -8.349889e-11)) ((5.795453e-09 -1.352262e-12 -5.143029e-13) (1.474299e-05 -6.365709e-12 4.772545e-12))
0.119159      	((8.515931e-09 -1.299410e-09 7.292001e-09) (4.258150e-09 -1.041357e-10 -9.357458e-11)) ((4.733374e-09 -1.265602e-12 -4.943875e-13) (1.310423e-05 -8.846539e-12 6.040426e-12))
0.154991      	((2.985538e-08 7.422930e-10 2.607204e-09) (4.285823e-09 -8.518797e-11 -9.587276e-11)) ((4.054060e-09 -9.232042e-13 -5.507790e-13) (1.165120e-05 -9.511777e-12 7.184760e-12))
0.197989      	((1.249697e-08 -1.911162e-09 9.214737e-10) (3.996941e-09 -8.161214e-11 -1.115784e-10)) ((3.484430e-09 -6.717601e-13 -4.628303e-13) (1.038444e-05 -1.028244e-11 8.251971e-12))
0.249587      	((1.658925e-08 1.517707e-10 -1.636799e-09) (3.856954e-09 -6.469882e-11 -1.505201e-10)) ((3.082849e-09 -6.292203e-13 -3.765885e-13) (9.273738e-06 -1.270022e-11 9.137223e-12))
0.311504      	((5.644734e-09 1.116079e-09 -2.791577e-09) (2.031927e-09 -4.917651e-11 -2.275167e-10)) ((2.741997e-09 -6.563405e-13 -2.841584e-13) (8.281305e-06 -1.462664e-11 8.616052e-12))
0.385805      	((-2.386486e-08 2.369433e-09 -2.424208e-09) (-3.011038e-10 -8.426357e-11 -3.190033e-10)) ((2.469625e-09 -4.933081e-13 -1.682333e-13) (7.392996e-06 -1.475344e-11 7.326839e-12))
0.474966      	((-3.893296e-08 2.742763e-09 -3.224158e-09) (-2.171485e-09 -9.452649e-11 -3.946341e-10)) ((2.229975e-09 -3.448695e-13 -7.914258e-14) (6.604325e-06 -1.287949e-11 5.158072e-12))
0.581959      	((-4.322779e-08 8.774198e-09 2.144738e-09) (-2.999523e-09 1.860123e-11 -2.573411e-10)) ((1.998084e-09 -2.634220e-13 2.971104e-13) (5.911143e-06 -1.198064e-11 4.889101e-12))
0.710351      	((-3.246160e-08 1.156981e-08 6.610229e-09) (-7.799634e-10 -1.827682e-11 -2.746709e-10)) ((1.771401e-09 -2.908112e-13 5.010995e-13) (5.305709e-06 -1.034617e-11 5.706578e-12))
0.864421      	((-1.440362e-08 1.758940e-08 4.041350e-10) (-5.274576e-10 1.316643e-10 -5.391917e-10)) ((1.562617e-09 6.031951e-14 1.852337e-13) (4.776785e-06 -8.506445e-12 4.924574e-12))
1.049306      	((-7.100896e-09 1.177340e-08 -7.697248e-09) (-2.112501e-09 5.318435e-10 -6.296512e-10)) ((1.390638e-09 -2.324688e-13 4.530284e-13) (4.312125e-06 -3.851083e-12 4.636872e-12))
1.271167      	((5.999853e-09 1.932890e-08 -4.831773e-09) (-6.221280e-10 2.398832e-10 -4.716429e-10)) ((1.253027e-09 4.975043e-13 -2.037962e-13) (3.901591e-06 -2.400289e-12 1.310861e-11))
1.5374        	((-4.117540e-09 3.295657e-08 2.689819e-09) (8.865219e-10 7.139201e-12 1.931387e-10)) ((1.138691e-09 1.128221e-12 -1.034369e-12) (3.538637e-06 -7.174422e-12 3.040766e-11))
1.85688       	((9.305387e-09 4.313391e-08 1.384395e-08) (1.108877e-09 5.665093e-10 1.710679e-09)) ((1.039780e-09 1.920638e-12 -1.528990e-12) (3.219564e-06 -2.099785e-11 4.479642e-11))
2.240256      	((3.416038e-09 3.971067e-08 1.830985e-08) (4.589841e-10 6.856162e-10 2.238983e-09)) ((9.438678e-10 1.741996e-12 -1.309598e-12) (2.941510e-06 -2.712377e-11 4.973530e-11))
2.700307      	((2.392360e-09 3.492848e-08 1.161307e-08) (-5.613828e-10 1.534385e-09 2.188624e-09)) ((8.554185e-10 1.001807e-12 -1.015047e-12) (2.700393e-06 -3.368506e-11 3.797256e-11))
3.252369      	((5.495175e-09 1.666473e-08 5.845238e-09) (6.306322e-10 2.740004e-09 5.960444e-10)) ((7.704425e-10 2.472285e-13 -4.992177e-13) (2.490802e-06 -5.893361e-11 1.660905e-11))
3.914842      	((1.137626e-08 8.015904e-09 1.378437e-08) (-1.328118e-09 5.005178e-09 -1.461012e-09)) ((6.924347e-10 -3.970936e-14 -4.639126e-13) (2.306886e-06 -9.242337e-11 -9.188729e-12))
4.709811      	((7.057852e-09 1.358630e-08 1.798616e-08) (-9.657997e-10 8.018747e-09 -2.936792e-09)) ((6.207812e-10 -2.550559e-14 -5.626902e-13) (2.143618e-06 -1.268579e-10 -3.088816e-11))
5.663773      	((8.774563e-09 1.172137e-08 1.264095e-08) (-3.655107e-10 9.901886e-09 -4.409659e-09)) ((5.538815e-10 -3.613891e-13 -4.859319e-13) (1.997223e-06 -1.496470e-10 -4.797895e-11))
6.808528      	((-3.201755e-09 7.999682e-09 1.287610e-08) (-1.300810e-09 1.146799e-08 -4.296126e-09)) ((4.964684e-10 -5.024566e-13 -6.664972e-13) (1.864867e-06 -1.435557e-10 -6.346199e-11))
8.182233      	((1.067057e-10 5.391583e-09 7.458094e-09) (-3.882714e-09 1.102408e-08 -3.892714e-09)) ((4.480966e-10 -7.850996e-13 -5.202532e-13) (1.744429e-06 -1.160955e-10 -7.300920e-11))
9.83068       	((-7.882166e-10 3.446095e-09 4.332779e-09) (-4.066946e-09 9.632187e-09 -4.430854e-09)) ((4.046848e-10 -1.040007e-12 -2.736052e-13) (1.634424e-06 -8.037716e-11 -7.886730e-11))
11.808816     	((-2.334607e-09 2.847774e-09 3.505638e-09) (-1.683154e-09 8.264385e-09 -4.788968e-09)) ((3.675106e-10 -1.100422e-12 -1.678843e-14) (1.533953e-06 -4.084692e-11 -9.252757e-11))
14.182579     	((-6.171974e-10 3.653791e-09 -1.104158e-09) (-5.309316e-10 7.749257e-09 -4.617064e-09)) ((3.371544e-10 -9.009959e-13 9.152722e-14) (1.442934e-06 -3.772112e-12 -1.096313e-10))
17.031095     	((-3.058833e-09 -1.494959e-09 3.467932e-10) (-8.050917e-10 7.405711e-09 -3.623897e-09)) ((3.132955e-10 -8.713827e-13 7.859159e-14) (1.361594e-06 3.443965e-11 -1.238312e-10))
20.449314     	((-3.150858e-09 -5.044960e-09 -1.390251e-09) (-9.076603e-10 7.512867e-09 -2.835522e-09)) ((2.917763e-10 -9.118083e-13 4.528693e-14) (1.290085e-06 7.451277e-11 -1.328765e-10))
24.476636     	((-4.226561e-09 -4.688424e-09 1.723551e-09) (-1.449916e-09 7.544830e-09 -3.346412e-09)) ((2.737548e-10 -9.155480e-13 1.860800e-14) (1.228900e-06 1.121152e-10 -1.310798e-10))
29.130069     	((-2.090373e-09 -3.514336e-09 2.096897e-11) (-2.830714e-09 8.175780e-09 -3.474756e-09)) ((2.591567e-10 -7.951939e-13 -5.925891e-14) (1.177845e-06 1.493843e-10 -1.281511e-10))
34.426738     	((-3.133947e-09 -5.671095e-09 -5.086702e-09) (-1.908261e-09 8.533008e-09 -3.557829e-09)) ((2.462328e-10 -6.345122e-13 -1.347595e-13) (1.136280e-06 1.712712e-10 -1.237300e-10))
40.366584     	((-2.752251e-09 -7.541867e-09 -9.764476e-09) (-1.811072e-09 8.814380e-09 -3.464425e-09)) ((2.365170e-10 -6.029865e-13 -8.708251e-14) (1.103362e-06 1.741292e-10 -1.154924e-10))
46.797635     	((-5.211403e-09 1.517926e-09 -1.306392e-09) (-1.343226e-09 8.679991e-09 -3.903246e-09)) ((2.295357e-10 -5.057840e-13 -2.026101e-13) (1.078681e-06 1.621260e-10 -1.106402e-10))
53.227801     	((-6.816860e-09 6.567739e-09 3.456333e-09) (-1.585295e-09 8.377566e-09 -3.441826e-09)) ((2.233340e-10 -3.855911e-13 -3.937544e-13) (1.062097e-06 1.451835e-10 -1.080611e-10))
59.657045     	((-6.797093e-09 1.490466e-08 1.048819e-08) (-2.642216e-09 8.815097e-09 -1.888319e-09)) ((2.188302e-10 -2.226066e-13 -6.612979e-13) (1.052455e-06 1.391197e-10 -1.074642e-10))
66.08521      	((-4.635258e-09 1.472720e-08 1.455855e-08) (-3.184504e-09 8.761862e-09 -5.600413e-10)) ((2.150364e-10 -9.151501e-14 -7.963938e-13) (1.048971e-06 1.460495e-10 -1.054832e-10))
72.512166     	((-4.902107e-09 1.149010e-08 1.520059e-08) (-2.238084e-09 6.839827e-09 -4.303064e-10)) ((2.128248e-10 1.484264e-14 -8.878304e-13) (1.050905e-06 1.616795e-10 -9.806134e-11))
78.937848     	((-4.442733e-09 7.997492e-09 1.385678e-08) (-1.504124e-09 5.140990e-09 7.346006e-10)) ((2.124112e-10 1.220818e-13 -8.740207e-13) (1.057760e-06 1.775597e-10 -8.382639e-11))
85.362212     	((-5.424016e-09 5.785237e-09 1.440209e-08) (-1.049016e-09 3.792627e-09 1.844101e-09)) ((2.131101e-10 8.362280e-14 -7.369977e-13) (1.069074e-06 1.885774e-10 -6.328223e-11))
91.784991     	((-4.703801e-09 4.126222e-09 1.158511e-08) (-8.704777e-10 2.524516e-09 2.523418e-09)) ((2.147072e-10 -3.918896e-14 -5.147071e-13) (1.084351e-06 1.937778e-10 -4.233352e-11))
98.205946     	((-5.647464e-09 1.903585e-09 6.778823e-09) (-8.185490e-10 1.237614e-09 2.450769e-09)) ((2.182488e-10 -1.113577e-13 -3.322607e-13) (1.102975e-06 1.907474e-10 -2.573365e-11))
104.50654     	((-5.910219e-09 2.057642e-09 5.157230e-09) (-6.370620e-10 1.038154e-10 1.644057e-09)) ((2.222797e-10 -1.552906e-13 -1.892872e-13) (1.123795e-06 1.805661e-10 -1.693188e-11))
110.68637     	((-6.142898e-09 -1.230204e-09 -3.801603e-09) (-3.113081e-10 -2.964262e-10 5.953554e-10)) ((2.271263e-10 -2.725852e-13 2.926874e-15) (1.145403e-06 1.638399e-10 -1.536006e-11))
116.760241    	((-7.647125e-09 1.876502e-09 -2.617465e-09) (-5.521336e-11 -1.478862e-10 -3.570010e-10)) ((2.328479e-10 -3.236696e-13 4.543608e-14) (1.166232e-06 1.479603e-10 -2.367092e-11))
122.741762    	((-9.372930e-09 7.979051e-09 -4.990225e-11) (-3.932607e-11 3.913594e-10 -1.188097e-09)) ((2.379730e-10 -2.970829e-13 -1.206052e-14) (1.184943e-06 1.363244e-10 -3.896390e-11))
128.646719    	((-1.017104e-08 8.444516e-09 1.320876e-09) (-6.661722e-11 1.861646e-09 -7.245234e-10)) ((2.437438e-10 -3.642720e-13 3.897992e-14) (1.200596e-06 1.321165e-10 -5.672907e-11))
134.492202    	((-1.214656e-08 4.682329e-09 2.065414e-09) (8.580763e-10 3.834814e-09 1.227687e-09)) ((2.485408e-10 -4.743168e-13 1.122922e-13) (1.212574e-06 1.464322e-10 -8.017941e-11))
140.295431    	((-1.142631e-08 1.313400e-09 2.985798e-09) (2.192056e-09 4.346174e-09 2.119741e-09)) ((2.523268e-10 -5.136567e-13 1.108119e-13) (1.220640e-06 1.733303e-10 -1.025415e-10))
146.071691    	((-1.108740e-08 2.005877e-09 6.561811e-09) (2.434959e-09 4.598777e-09 2.662495e-09)) ((2.545848e-10 -5.401784e-13 1.005064e-13) (1.224954e-06 2.011740e-10 -1.150803e-10))
151.804726    	((-8.259728e-09 -2.889120e-09 7.680708e-09) (1.993191e-09 4.800232e-09 2.870548e-09)) ((2.560662e-10 -6.109120e-13 1.762066e-13) (1.225972e-06 2.214138e-10 -1.131596e-10))
