# Forces      
# CofR        : (0.000000e+00 0.000000e+00 0.000000e+00)
# Time        forces(pressure viscous)	moments(pressure viscous)
0             	((0.000000e+00 0.000000e+00 0.000000e+00) (0.000000e+00 0.000000e+00 0.000000e+00)) ((0.000000e+00 0.000000e+00 0.000000e+00) (0.000000e+00 0.000000e+00 0.000000e+00))
0.012         	((2.878392e-10 -5.682926e-08 -1.103530e-10) (1.891452e-12 -1.445200e-09 4.676656e-12)) ((1.638550e-14 -2.322316e-15 1.293992e-09) (-7.817462e-16 1.333257e-13 1.758695e-06))
0.0264        	((8.149336e-10 -8.370148e-09 1.642428e-12) (5.784201e-12 -2.134734e-09 8.492074e-12)) ((-6.811134e-15 1.261896e-13 5.955780e-10) (6.963930e-15 3.560894e-13 1.611023e-06))
0.04368       	((8.155681e-10 -2.663427e-08 -4.319503e-10) (2.583271e-12 -2.255497e-09 1.241170e-11)) ((2.795894e-14 1.462705e-13 3.273915e-10) (7.167453e-15 6.240795e-13 1.459265e-06))
0.064416      	((1.139621e-09 3.482028e-09 3.421745e-10) (-1.294028e-11 -1.955578e-09 2.061597e-11)) ((-2.396610e-15 8.249405e-14 1.791985e-10) (4.326251e-14 9.618320e-13 1.306866e-06))
0.0892992     	((6.450931e-11 -1.180092e-08 -3.541533e-10) (-2.527942e-11 -1.636469e-09 3.192625e-11)) ((4.074969e-14 1.911823e-13 1.363763e-10) (1.473580e-13 1.381538e-12 1.158382e-06))
0.119159      	((1.566908e-10 1.890233e-09 -5.362364e-11) (-3.298617e-11 -1.348920e-09 3.892399e-11)) ((9.309193e-15 1.377956e-13 1.036810e-10) (2.389729e-13 1.630962e-12 1.018476e-06))
0.154991      	((-1.117997e-10 -5.927859e-09 1.884234e-11) (-4.591624e-11 -1.245135e-09 4.242819e-11)) ((2.135238e-14 1.086303e-13 8.590061e-11) (3.321713e-13 1.746462e-12 8.904240e-07))
0.197989      	((-2.524860e-10 -2.321118e-09 -4.721833e-11) (-5.292931e-11 -1.126437e-09 4.395836e-11)) ((3.344888e-14 1.017542e-13 7.084231e-11) (4.013025e-13 1.792404e-12 7.769892e-07))
0.249587      	((1.757504e-11 -4.212256e-09 -1.520053e-10) (-4.491403e-11 -1.036015e-09 4.252801e-11)) ((2.886696e-14 8.822966e-14 5.851528e-11) (3.353247e-13 1.744087e-12 6.795471e-07))
0.311504      	((-2.313035e-10 -2.810668e-09 -8.756554e-11) (-1.750885e-11 -9.710903e-10 4.221565e-11)) ((2.378909e-14 6.147887e-14 4.795471e-11) (1.354048e-13 1.628384e-12 5.977778e-07))
0.385805      	((1.012074e-09 -2.584667e-09 1.975106e-11) (9.408828e-12 -8.949149e-10 4.439757e-11)) ((1.992830e-14 1.901418e-14 4.001951e-11) (4.411586e-14 1.565274e-12 5.299250e-07))
0.474966      	((4.191980e-10 -2.344168e-09 -2.565101e-11) (1.436189e-11 -8.287958e-10 4.746956e-11)) ((1.390344e-14 -1.126976e-15 3.451435e-11) (8.746779e-14 1.638861e-12 4.733778e-07))
0.581959      	((6.398178e-10 -2.118395e-09 -5.631264e-11) (-5.893707e-12 -7.430140e-10 4.138554e-11)) ((1.715695e-14 -2.745394e-14 2.927541e-11) (2.503182e-13 1.410332e-12 4.255508e-07))
0.710351      	((1.954578e-10 -2.042977e-09 2.906168e-12) (-7.306919e-11 -6.375698e-10 2.852615e-11)) ((4.572532e-15 -5.635046e-14 2.415365e-11) (4.005401e-13 7.692174e-13 3.843522e-07))
0.864421      	((3.294833e-10 -3.294519e-09 -2.066827e-11) (-1.848883e-10 -5.695663e-10 1.738633e-11)) ((-1.035610e-14 -8.422118e-14 2.068751e-11) (3.385213e-13 7.961811e-14 3.482668e-07))
1.049306      	((1.808256e-09 -3.145660e-09 -2.817616e-11) (-2.328051e-10 -4.391894e-10 3.154580e-12)) ((-3.288452e-14 -9.718043e-14 1.848502e-11) (3.697495e-13 -3.699151e-13 3.162447e-07))
1.271167      	((1.763884e-09 -3.480413e-09 -2.940146e-11) (-2.090722e-10 -3.302503e-10 -1.492240e-11)) ((-6.560613e-14 -1.110625e-13 1.680522e-11) (4.636237e-13 -2.529886e-13 2.875506e-07))
1.5374        	((1.943899e-09 -3.942896e-09 3.070986e-12) (-1.905755e-10 -3.224544e-10 -2.539560e-11)) ((-8.484426e-14 -1.316970e-13 1.534815e-11) (5.647344e-13 5.268163e-13 2.617105e-07))
1.85688       	((1.293843e-09 -4.996571e-09 -1.294661e-11) (-1.763722e-10 -3.324969e-10 -2.870703e-11)) ((-1.062394e-13 -1.380279e-13 1.406048e-11) (1.437283e-12 2.011945e-12 2.384609e-07))
2.240256      	((7.413854e-10 -4.043041e-09 6.860143e-11) (-2.223559e-10 -3.377405e-10 -2.257866e-11)) ((-1.098490e-13 -1.458051e-13 1.322246e-11) (3.110204e-12 3.960692e-12 2.176649e-07))
2.700307      	((1.064866e-09 -3.286845e-09 1.265444e-10) (-3.055566e-10 -2.943874e-10 -1.378314e-11)) ((-1.033565e-13 -1.573134e-13 1.235526e-11) (4.950284e-12 5.931627e-12 1.992160e-07))
3.252369      	((8.705202e-10 -2.809069e-09 1.136648e-10) (-3.604693e-10 -1.739992e-10 -1.838304e-11)) ((-9.594865e-14 -1.351980e-13 1.129054e-11) (6.617287e-12 7.189622e-12 1.829677e-07))
3.914842      	((1.115270e-09 -1.462353e-09 4.466136e-11) (-3.313690e-10 -3.229112e-11 -2.564884e-11)) ((-1.064843e-13 -8.853727e-14 1.013894e-11) (7.905952e-12 8.111580e-12 1.686996e-07))
4.709811      	((3.036920e-10 -3.160076e-10 6.364525e-11) (-3.280090e-10 1.499848e-10 -2.385830e-11)) ((-1.115425e-13 -3.599456e-14 8.980027e-12) (8.766618e-12 8.790767e-12 1.561176e-07))
5.663773      	((3.197819e-10 7.979189e-10 -4.068310e-11) (-3.734864e-10 2.850057e-10 -1.950282e-11)) ((-9.256943e-14 8.021373e-15 7.851709e-12) (8.721766e-12 8.968476e-12 1.449083e-07))
6.808528      	((3.685654e-10 4.572999e-10 -1.205543e-10) (-3.723973e-10 3.071870e-10 -1.875576e-11)) ((-4.779051e-14 1.448248e-14 6.966241e-12) (7.462853e-12 7.948607e-12 1.348062e-07))
8.182233      	((3.349419e-10 7.962850e-10 -1.105576e-10) (-3.696354e-10 2.813876e-10 -2.094288e-11)) ((-4.337997e-14 2.139323e-14 6.267628e-12) (6.085594e-12 7.162112e-12 1.256128e-07))
9.83068       	((4.090721e-10 5.334786e-10 -1.598384e-10) (-3.070092e-10 2.179073e-10 -2.386656e-11)) ((-3.814504e-14 3.356114e-14 5.697552e-12) (4.823979e-12 6.224977e-12 1.171890e-07))
11.808816     	((3.629553e-10 1.011087e-10 -1.173239e-10) (-2.571892e-10 1.409538e-10 -1.856702e-11)) ((-1.464524e-14 4.367063e-14 5.246936e-12) (3.286154e-12 4.929337e-12 1.094368e-07))
14.182579     	((1.795254e-10 -2.409838e-10 -1.063410e-10) (-2.157823e-10 7.200593e-11 -1.246340e-11)) ((1.763224e-14 5.413817e-14 4.907323e-12) (2.410927e-12 3.826323e-12 1.022820e-07))
17.031095     	((2.491695e-10 -4.072597e-11 -6.750376e-11) (-1.718990e-10 4.149698e-11 -1.456543e-11)) ((2.067463e-14 5.597807e-14 4.606626e-12) (2.199959e-12 2.533745e-12 9.568761e-08))
20.449314     	((3.635875e-10 -1.454927e-10 -5.390794e-11) (-1.796553e-10 1.447890e-11 -2.126418e-11)) ((2.888952e-14 5.984104e-14 4.317184e-12) (2.058321e-12 1.693487e-12 8.964332e-08))
24.551176     	((1.627828e-10 -1.421815e-10 -3.634320e-13) (-1.656622e-10 -1.592354e-11 -2.823578e-11)) ((2.731681e-14 5.987292e-14 4.077491e-12) (1.973293e-12 1.092443e-12 8.413257e-08))
29.473411     	((3.163871e-12 -2.839759e-10 4.437131e-12) (-1.525506e-10 -5.249879e-11 -2.309199e-11)) ((3.196080e-14 5.851120e-14 3.882251e-12) (2.127999e-12 5.391335e-13 7.912564e-08))
35.380094     	((-3.456754e-11 -1.565377e-10 2.593753e-11) (-1.120826e-10 -2.526911e-11 -1.326573e-11)) ((3.528773e-14 4.939849e-14 3.723955e-12) (2.501820e-12 3.897367e-14 7.458209e-08))
42.468112     	((-1.083536e-10 -3.540842e-10 1.778389e-11) (-7.654678e-11 2.180981e-11 -3.445199e-12)) ((3.623139e-14 3.476738e-14 3.563050e-12) (2.684540e-12 -2.726241e-13 7.045728e-08))
50.973735     	((-1.002849e-10 -1.753190e-10 2.412314e-12) (-2.405267e-11 4.854318e-11 -6.479224e-13)) ((3.944174e-14 2.469103e-14 3.443100e-12) (2.666234e-12 -3.027949e-13 6.671146e-08))
61.180482     	((8.692163e-11 -8.057953e-11 -2.545157e-11) (2.893664e-12 5.383555e-11 2.019944e-12)) ((4.501820e-14 2.591065e-14 3.323365e-12) (2.419048e-12 -1.508596e-13 6.331023e-08))
73.428578     	((8.168426e-11 -1.011994e-10 4.897386e-12) (3.850239e-11 4.917320e-11 3.823144e-12)) ((4.363224e-14 3.142396e-14 3.181851e-12) (2.173712e-12 1.147238e-13 6.022025e-08))
88.126294     	((1.526084e-12 -8.737880e-11 -1.302632e-11) (4.068801e-11 4.811742e-11 7.148247e-12)) ((3.695931e-14 3.477647e-14 3.057878e-12) (1.997808e-12 4.182255e-13 5.741112e-08))
105.763553    	((7.811093e-11 -5.160952e-11 -1.154642e-11) (4.944251e-11 5.273717e-11 1.009662e-11)) ((2.962603e-14 3.578662e-14 2.957773e-12) (1.775769e-12 6.467731e-13 5.486077e-08))
126.928263    	((6.450096e-11 -1.023464e-10 -2.769610e-11) (4.368287e-11 4.819023e-11 7.654623e-12)) ((2.627823e-14 3.646441e-14 2.872084e-12) (1.653617e-12 8.515575e-13 5.254956e-08))
152.325916    	((9.088335e-11 -8.802256e-11 -7.346057e-12) (6.154112e-11 5.034599e-11 1.388356e-11)) ((2.487183e-14 3.395757e-14 2.794027e-12) (1.400403e-12 1.156064e-12 5.045919e-08))
182.803099    	((8.063025e-11 -1.139571e-10 -1.537395e-11) (5.192591e-11 4.409452e-11 2.289294e-11)) ((2.463878e-14 3.245033e-14 2.693691e-12) (1.070634e-12 1.419625e-12 4.857309e-08))
219.375719    	((1.854077e-11 -1.821617e-10 2.051396e-12) (2.166119e-11 5.797658e-11 2.698130e-11)) ((2.279522e-14 3.047811e-14 2.617829e-12) (6.197858e-13 1.558803e-12 4.687581e-08))
263.262863    	((-3.966791e-11 -2.337642e-10 1.488711e-11) (5.303976e-12 4.788034e-11 2.898569e-11)) ((2.166816e-14 3.000558e-14 2.569823e-12) (1.300238e-13 1.679538e-12 4.535336e-08))
315.243586    	((-7.620532e-11 -2.638838e-10 3.922022e-12) (-2.180224e-11 2.527765e-11 2.757424e-11)) ((2.403415e-14 2.733278e-14 2.534722e-12) (-2.681739e-13 1.645089e-12 4.399972e-08))
375.316399    	((-5.811290e-11 -2.580939e-10 -8.546923e-12) (-3.549639e-11 8.192523e-12 2.295291e-11)) ((2.687074e-14 2.388653e-14 2.508808e-12) (-6.381369e-13 1.456621e-12 4.280961e-08))
443.479711    	((-9.529439e-11 -2.635689e-10 -1.799134e-11) (-4.058624e-11 2.000763e-12 1.849315e-11)) ((2.652618e-14 2.115698e-14 2.490097e-12) (-8.968641e-13 1.290895e-12 4.177346e-08))
519.731986    	((-1.008924e-10 -2.269919e-10 -6.987455e-12) (-4.278994e-11 -7.436776e-12 1.651898e-11)) ((2.733703e-14 2.115232e-14 2.468824e-12) (-1.043033e-12 1.126761e-12 4.087967e-08))
600.606857    	((-1.255314e-10 -2.565187e-10 9.413393e-13) (-4.192914e-11 -1.019965e-11 1.615975e-11)) ((2.594950e-14 2.036344e-14 2.451723e-12) (-1.017644e-12 8.433485e-13 4.012203e-08))
681.463569    	((-1.121601e-10 -2.603752e-10 -4.199240e-12) (-5.014955e-11 -8.175440e-12 1.769785e-11)) ((2.568508e-14 1.974818e-14 2.437938e-12) (-8.620728e-13 5.713240e-13 3.949268e-08))
762.304123    	((-1.057310e-10 -2.431702e-10 -1.906660e-12) (-4.983579e-11 -4.413341e-12 1.732281e-11)) ((2.473496e-14 1.938349e-14 2.424609e-12) (-6.863686e-13 4.056039e-13 3.897582e-08))
843.130913    	((-1.095552e-10 -2.333963e-10 2.706503e-12) (-5.131325e-11 -1.886836e-12 1.770527e-11)) ((2.247036e-14 1.853587e-14 2.413325e-12) (-5.301981e-13 3.114193e-13 3.855500e-08))
923.946351    	((-1.147056e-10 -2.230488e-10 8.242016e-12) (-5.497704e-11 -1.688859e-12 1.706190e-11)) ((2.012020e-14 1.779559e-14 2.405473e-12) (-3.841077e-13 2.510966e-13 3.821352e-08))
1004.750434   	((-1.170651e-10 -2.137801e-10 1.167954e-11) (-5.645578e-11 -3.000237e-12 1.645993e-11)) ((1.787737e-14 1.734370e-14 2.398748e-12) (-2.583497e-13 1.779856e-13 3.793736e-08))
1085.543212   	((-1.202170e-10 -2.152997e-10 1.313244e-11) (-5.924921e-11 -3.994024e-12 1.553841e-11)) ((1.612574e-14 1.690596e-14 2.392230e-12) (-1.452845e-13 8.995060e-14 3.771443e-08))
1166.327067   	((-1.191288e-10 -2.163113e-10 9.348943e-12) (-5.495819e-11 -3.545324e-12 1.616853e-11)) ((1.551969e-14 1.663005e-14 2.384675e-12) (-6.328820e-14 1.406286e-14 3.753540e-08))
1247.104274   	((-1.199271e-10 -2.136808e-10 9.946762e-12) (-5.206591e-11 -2.796229e-12 1.668252e-11)) ((1.520914e-14 1.641704e-14 2.375183e-12) (-1.828015e-15 -6.519814e-14 3.739246e-08))
1327.877027   	((-1.129956e-10 -2.127023e-10 1.373722e-11) (-4.620001e-11 -1.045308e-12 1.679514e-11)) ((1.459810e-14 1.665121e-14 2.366569e-12) (5.484922e-14 -1.666948e-13 3.727935e-08))
1408.647507   	((-1.065324e-10 -2.093108e-10 1.356720e-11) (-3.804481e-11 2.671998e-12 1.717746e-11)) ((1.397435e-14 1.718976e-14 2.359172e-12) (9.446244e-14 -2.632930e-13 3.719077e-08))
1489.417812   	((-1.027427e-10 -2.106390e-10 1.352386e-11) (-2.977733e-11 4.881648e-12 1.779500e-11)) ((1.342471e-14 1.756524e-14 2.352319e-12) (1.372071e-13 -3.522144e-13 3.712228e-08))
1570.189899   	((-9.738942e-11 -2.086801e-10 1.406390e-11) (-2.262418e-11 6.975612e-12 1.850339e-11)) ((1.257067e-14 1.750026e-14 2.345869e-12) (1.894538e-13 -4.128374e-13 3.707021e-08))
1650.963537   	((-9.648383e-11 -2.000960e-10 1.427283e-11) (-1.820079e-11 9.535912e-12 1.878918e-11)) ((1.151418e-14 1.740844e-14 2.339610e-12) (2.469707e-13 -4.417925e-13 3.703163e-08))
1731.73821    	((-9.465639e-11 -1.938547e-10 1.377248e-11) (-1.562185e-11 1.171503e-11 1.901308e-11)) ((1.076733e-14 1.753943e-14 2.334510e-12) (2.987910e-13 -4.603752e-13 3.700414e-08))
1812.515239   	((-9.302088e-11 -1.855284e-10 1.306223e-11) (-1.192887e-11 1.336328e-11 1.897254e-11)) ((9.913614e-15 1.752745e-14 2.330226e-12) (3.367393e-13 -4.698878e-13 3.698566e-08))
1893.295802   	((-9.085416e-11 -1.803319e-10 1.241314e-11) (-7.842021e-12 1.311239e-11 1.902854e-11)) ((9.103537e-15 1.758099e-14 2.326738e-12) (3.741230e-13 -4.601918e-13 3.697442e-08))
