# Forces      
# CofR        : (0.000000e+00 0.000000e+00 0.000000e+00)
# Time        forces(pressure viscous)	moments(pressure viscous)
0             	((0.000000e+00 0.000000e+00 0.000000e+00) (0.000000e+00 0.000000e+00 0.000000e+00)) ((0.000000e+00 0.000000e+00 0.000000e+00) (0.000000e+00 0.000000e+00 0.000000e+00))
0.012         	((-1.005694e-10 2.847265e-08 5.908898e-11) (3.281243e-13 7.233640e-10 -2.391416e-12)) ((-7.573846e-15 5.299029e-15 -6.478938e-10) (3.070959e-15 -5.874682e-14 -8.814322e-07))
0.0264        	((-3.424953e-10 4.182348e-09 1.563959e-12) (1.491679e-13 1.068434e-09 -4.318322e-12)) ((5.393394e-15 -5.695788e-14 -2.975663e-10) (-1.749626e-16 -1.622074e-13 -8.074125e-07))
0.04368       	((-1.870337e-10 1.330272e-08 2.140215e-10) (-8.785879e-13 1.127340e-09 -6.197804e-12)) ((-1.076502e-14 -6.905040e-14 -1.627586e-10) (-4.656495e-15 -2.951363e-13 -7.313187e-07))
0.064416      	((-3.678912e-10 -1.821758e-09 -1.873951e-10) (-5.598437e-12 9.753666e-10 -1.022395e-11)) ((4.233041e-15 -3.725270e-14 -8.819707e-11) (-2.025311e-14 -4.642237e-13 -6.548556e-07))
0.0892992     	((3.568982e-10 5.869218e-09 1.627481e-10) (-8.095820e-12 8.129315e-10 -1.574664e-11)) ((-1.539089e-14 -9.566984e-14 -6.655533e-11) (-4.493797e-14 -6.763239e-13 -5.802858e-07))
0.119159      	((-1.691892e-10 -1.021002e-09 3.535877e-11) (-1.033567e-11 6.652166e-10 -1.871442e-11)) ((2.556955e-15 -6.883527e-14 -5.010599e-11) (-4.063520e-14 -7.867178e-13 -5.099366e-07))
0.154991      	((6.540941e-11 2.930864e-09 -4.671981e-11) (-1.667741e-11 6.065495e-10 -1.959379e-11)) ((-8.294052e-15 -5.428999e-14 -4.119325e-11) (-3.460983e-14 -8.293897e-13 -4.454430e-07))
0.197989      	((-1.127417e-10 1.029798e-09 9.748278e-12) (-1.901939e-11 5.342235e-10 -1.972783e-11)) ((-1.649124e-14 -4.755100e-14 -3.386179e-11) (-4.251621e-14 -8.509335e-13 -3.882857e-07))
0.249587      	((1.463991e-10 2.301113e-09 6.121329e-11) (-1.552197e-11 4.827486e-10 -2.005966e-11)) ((-1.041296e-14 -4.872484e-14 -2.792992e-11) (-7.515657e-14 -8.348398e-13 -3.392405e-07))
0.311504      	((-1.698928e-10 1.323139e-09 3.088330e-11) (-8.061473e-12 4.517418e-10 -2.167392e-11)) ((-7.810080e-15 -3.211856e-14 -2.279327e-11) (-1.111149e-13 -8.211513e-13 -2.981695e-07))
0.385805      	((3.485263e-12 1.177397e-09 -1.528979e-11) (7.684270e-14 4.299225e-10 -2.225710e-11)) ((-1.287990e-15 -1.157971e-14 -1.887621e-11) (-6.580798e-14 -7.684861e-13 -2.641892e-07))
0.474966      	((-3.262510e-10 1.108376e-09 2.267496e-11) (-9.090116e-13 4.095041e-10 -2.286365e-11)) ((1.549502e-15 -8.178880e-15 -1.620917e-11) (2.945829e-15 -7.043425e-13 -2.359752e-07))
0.581959      	((-2.287880e-10 8.907260e-10 5.206431e-11) (-6.792775e-12 3.678583e-10 -2.083050e-11)) ((8.170676e-15 9.926687e-15 -1.374190e-11) (2.120705e-14 -4.715594e-13 -2.121839e-07))
0.710351      	((-4.821477e-10 7.867170e-10 -3.261687e-11) (-1.852198e-11 3.175323e-10 -1.220040e-11)) ((9.294420e-15 2.265649e-14 -1.134758e-11) (-5.052418e-14 -8.527876e-14 -1.917167e-07))
0.864421      	((-3.579544e-10 1.493329e-09 -5.133260e-11) (-3.438781e-11 3.061550e-10 -4.809450e-12)) ((1.431601e-14 3.691808e-14 -9.733232e-12) (2.380976e-14 2.801675e-13 -1.737893e-07))
1.049306      	((-1.182176e-10 1.849809e-09 -5.911523e-11) (-3.631523e-11 2.705999e-10 -2.551115e-12)) ((1.581552e-14 4.580644e-14 -8.722050e-12) (3.853827e-15 4.028215e-13 -1.578696e-07))
1.271167      	((-3.635420e-10 1.757413e-09 1.556369e-11) (-2.657361e-11 2.227937e-10 3.559239e-12)) ((1.164438e-15 4.310954e-14 -7.958327e-12) (-4.638565e-13 3.710521e-13 -1.435919e-07))
1.5374        	((-4.912581e-11 1.969114e-09 -6.243821e-11) (-1.324651e-11 2.299456e-10 8.575880e-12)) ((2.133795e-15 6.668535e-14 -7.304663e-12) (-9.881116e-13 1.434853e-13 -1.307196e-07))
1.85688       	((-3.788776e-10 2.437498e-09 -2.937245e-11) (1.126000e-11 2.568977e-10 9.636397e-12)) ((5.947473e-15 7.430288e-14 -6.765255e-12) (-1.610774e-12 -5.240177e-13 -1.191215e-07))
2.240256      	((-4.002973e-10 1.693920e-09 -1.715770e-11) (5.455525e-11 2.427696e-10 8.197875e-12)) ((7.239974e-16 7.661989e-14 -6.481350e-12) (-2.493169e-12 -1.523232e-12 -1.087326e-07))
2.700307      	((-3.918406e-10 1.188404e-09 1.696865e-11) (8.851209e-11 1.896194e-10 6.669471e-12)) ((4.263755e-15 8.065279e-14 -6.190883e-12) (-3.506706e-12 -2.634865e-12 -9.950242e-08))
3.252369      	((-1.123269e-10 9.034879e-10 1.935699e-11) (1.314546e-10 1.260392e-10 1.406124e-11)) ((4.936336e-15 8.356413e-14 -5.760317e-12) (-4.522185e-12 -3.589390e-12 -9.136092e-08))
3.914842      	((7.788458e-11 4.647509e-10 8.412861e-11) (2.137099e-10 5.693899e-11 1.602710e-11)) ((2.086000e-15 7.222742e-14 -5.211641e-12) (-4.994271e-12 -4.433146e-12 -8.420387e-08))
4.709811      	((6.320413e-12 4.798769e-10 5.426037e-11) (2.705557e-10 -1.905543e-11 8.572827e-12)) ((-1.783657e-14 5.085069e-14 -4.653372e-12) (-5.049800e-12 -4.705729e-12 -7.789362e-08))
5.663773      	((1.884337e-10 3.249865e-11 5.448006e-11) (2.968074e-10 -7.445857e-11 4.987153e-12)) ((-4.140331e-14 2.176895e-14 -4.139407e-12) (-5.064722e-12 -4.762592e-12 -7.227864e-08))
6.808528      	((3.135903e-10 -1.481966e-10 4.275395e-12) (2.976769e-10 -1.014168e-10 -5.206478e-12)) ((-3.602597e-14 4.948962e-15 -3.690598e-12) (-4.531435e-12 -4.563820e-12 -6.722420e-08))
8.182233      	((2.796255e-10 -1.987381e-10 -3.079860e-11) (2.517485e-10 -8.125303e-11 -1.342297e-11)) ((-3.628044e-14 -6.501790e-15 -3.328828e-12) (-3.681393e-12 -3.950729e-12 -6.262972e-08))
9.83068       	((2.117971e-10 -1.689665e-10 -5.314510e-11) (1.823258e-10 -6.713941e-11 -1.748057e-11)) ((-4.148788e-14 -1.983117e-14 -3.027231e-12) (-2.762620e-12 -3.203209e-12 -5.842294e-08))
11.808816     	((1.194837e-10 1.480141e-11 -1.987959e-11) (1.264798e-10 -4.095015e-11 -1.875544e-11)) ((-4.057233e-14 -2.820458e-14 -2.786995e-12) (-2.163829e-12 -2.503760e-12 -5.455298e-08))
14.182579     	((-1.407758e-11 9.811838e-12 -2.949671e-11) (7.788548e-11 -1.600033e-11 -1.597452e-11)) ((-3.103366e-14 -3.837320e-14 -2.598789e-12) (-1.716118e-12 -2.053012e-12 -5.098392e-08))
17.031095     	((3.679629e-12 4.004136e-11 -4.028798e-11) (4.821227e-11 -1.377847e-11 -1.017495e-11)) ((-2.050610e-14 -3.785658e-14 -2.441185e-12) (-1.150888e-12 -1.364781e-12 -4.769682e-08))
20.449314     	((6.698851e-11 6.894981e-11 -2.569718e-11) (3.762962e-11 -2.015923e-11 -3.942208e-12)) ((-1.199128e-14 -3.229671e-14 -2.304390e-12) (-7.698710e-13 -9.280701e-13 -4.468304e-08))
24.551176     	((1.064424e-10 8.438206e-11 -7.975513e-12) (3.610954e-11 -1.914182e-11 -2.200886e-12)) ((-1.152398e-14 -3.062336e-14 -2.180648e-12) (-4.088933e-13 -8.321119e-13 -4.193222e-08))
29.473411     	((5.319534e-11 8.013478e-11 2.538258e-12) (3.106991e-11 -1.057893e-11 -4.422348e-12)) ((-9.341767e-15 -2.981472e-14 -2.079861e-12) (-1.386097e-13 -8.508510e-13 -3.942830e-08))
35.380094     	((5.084436e-11 1.356827e-10 -4.586244e-12) (2.390171e-11 -9.032136e-12 -5.389156e-12)) ((-8.016819e-15 -3.084981e-14 -1.995086e-12) (4.793734e-15 -8.764719e-13 -3.715014e-08))
42.468112     	((1.563533e-11 1.368034e-10 1.930814e-12) (3.162270e-11 -1.466658e-11 -2.851841e-12)) ((-6.579767e-15 -2.937044e-14 -1.928747e-12) (2.658261e-14 -9.365287e-13 -3.507737e-08))
50.973735     	((-3.619807e-11 1.473857e-10 8.536517e-12) (3.688376e-11 -2.951667e-11 3.823317e-13)) ((-5.403111e-15 -2.582165e-14 -1.867221e-12) (-3.210756e-14 -1.039958e-12 -3.319108e-08))
61.180482     	((-4.010545e-12 1.825083e-10 -9.799139e-12) (4.343195e-11 -5.007310e-11 1.225753e-12)) ((-3.689940e-15 -2.241505e-14 -1.812433e-12) (-1.006105e-13 -1.011812e-12 -3.147354e-08))
73.428578     	((2.517552e-11 1.853870e-10 2.102482e-12) (5.481911e-11 -7.036683e-11 2.810045e-12)) ((-2.201751e-15 -1.957587e-14 -1.766877e-12) (-1.987579e-13 -9.361266e-13 -2.990969e-08))
88.126294     	((1.013081e-11 1.108532e-10 -4.981970e-12) (6.101360e-11 -8.302148e-11 3.298138e-12)) ((1.540934e-15 -1.869984e-14 -1.728648e-12) (-3.733456e-13 -7.900891e-13 -2.848811e-08))
105.763553    	((2.460684e-11 8.992046e-11 -3.391803e-12) (5.914452e-11 -9.050595e-11 2.004968e-12)) ((1.558864e-15 -1.729318e-14 -1.689982e-12) (-5.428002e-13 -6.689120e-13 -2.719919e-08))
126.928263    	((6.614994e-11 8.392957e-11 7.801749e-13) (4.870545e-11 -9.669613e-11 9.456846e-13)) ((5.760396e-17 -1.610462e-14 -1.647327e-12) (-6.144042e-13 -5.746748e-13 -2.603167e-08))
152.325916    	((5.392357e-11 8.695568e-11 -1.815328e-12) (3.581720e-11 -9.283907e-11 4.975794e-13)) ((-1.674133e-15 -1.601985e-14 -1.606495e-12) (-6.154348e-13 -5.169107e-13 -2.497398e-08))
182.803099    	((5.063311e-11 8.427218e-11 -1.670429e-12) (3.068909e-11 -7.996430e-11 -2.983480e-13)) ((-3.997223e-15 -1.587178e-14 -1.568563e-12) (-5.504173e-13 -5.148445e-13 -2.401558e-08))
219.375719    	((4.944901e-11 8.777769e-11 -3.305756e-12) (2.445949e-11 -7.330720e-11 8.583732e-13)) ((-5.505169e-15 -1.662989e-14 -1.530895e-12) (-5.240169e-13 -4.960314e-13 -2.314714e-08))
263.262863    	((7.927482e-11 9.493707e-11 -2.616103e-12) (2.060825e-11 -7.383699e-11 3.309920e-12)) ((-6.400681e-15 -1.663023e-14 -1.496727e-12) (-5.633750e-13 -4.230672e-13 -2.236025e-08))
315.927436    	((7.250165e-11 8.320986e-11 -1.346166e-12) (1.920909e-11 -7.074765e-11 4.067944e-12)) ((-6.775616e-15 -1.635138e-14 -1.470174e-12) (-6.104946e-13 -3.848056e-13 -2.164829e-08))
379.124923    	((6.609280e-11 7.312486e-11 -3.771890e-12) (3.029268e-11 -6.584124e-11 4.534424e-12)) ((-6.840625e-15 -1.657859e-14 -1.446243e-12) (-6.730496e-13 -3.553692e-13 -2.100616e-08))
454.961908    	((5.413651e-11 8.188817e-11 -8.640339e-12) (3.584115e-11 -6.384092e-11 4.956575e-12)) ((-6.242857e-15 -1.626473e-14 -1.422492e-12) (-7.412573e-13 -2.809995e-13 -2.042903e-08))
545.966289    	((4.036930e-11 1.041033e-10 -7.981159e-12) (3.352005e-11 -5.710326e-11 6.462012e-12)) ((-5.942565e-15 -1.557093e-14 -1.399697e-12) (-7.264718e-13 -2.077571e-13 -1.991271e-08))
653.121024    	((3.392778e-11 1.021786e-10 -1.280094e-11) (2.913323e-11 -5.198345e-11 6.861496e-12)) ((-5.043768e-15 -1.479712e-14 -1.379506e-12) (-6.550220e-13 -1.490717e-13 -1.945473e-08))
776.424929    	((3.078088e-11 1.085561e-10 -9.593867e-12) (2.670175e-11 -4.955045e-11 6.213955e-12)) ((-4.188528e-15 -1.445259e-14 -1.364303e-12) (-6.078569e-13 -1.025704e-13 -1.905230e-08))
915.877566    	((1.831280e-11 1.038165e-10 -1.444583e-11) (2.334525e-11 -4.336676e-11 4.116581e-12)) ((-3.389115e-15 -1.431025e-14 -1.351965e-12) (-5.512360e-13 -5.812825e-14 -1.870196e-08))
1071.478263   	((1.743068e-11 1.015006e-10 -1.133422e-11) (1.570623e-11 -3.809157e-11 1.595852e-12)) ((-2.666102e-15 -1.452990e-14 -1.341890e-12) (-4.498068e-13 -1.362862e-14 -1.839903e-08))
1232.957644   	((1.175031e-11 1.001819e-10 -7.551093e-12) (9.026416e-12 -2.841392e-11 -9.465890e-14)) ((-2.077267e-15 -1.415510e-14 -1.332325e-12) (-3.570638e-13 6.010684e-15 -1.814095e-08))
1394.441953   	((1.185445e-11 9.732477e-11 -4.665446e-12) (6.054114e-12 -2.138517e-11 -1.179065e-12)) ((-1.787846e-15 -1.397915e-14 -1.324757e-12) (-2.759606e-13 1.170369e-14 -1.792330e-08))
1555.929335   	((1.072617e-11 9.604909e-11 -9.622671e-12) (4.660149e-12 -1.541681e-11 -1.764520e-12)) ((-1.641332e-15 -1.379088e-14 -1.318216e-12) (-2.179481e-13 7.797262e-15 -1.774076e-08))
1717.421706   	((1.340225e-11 9.533572e-11 -1.018013e-11) (4.725677e-12 -9.888615e-12 -2.260718e-12)) ((-1.762136e-15 -1.368315e-14 -1.312859e-12) (-1.768442e-13 -1.820848e-15 -1.758758e-08))
1878.923177   	((1.292284e-11 9.566026e-11 -9.762175e-12) (4.852660e-12 -7.384038e-12 -2.344721e-12)) ((-1.714948e-15 -1.359113e-14 -1.307675e-12) (-1.417874e-13 -1.908410e-14 -1.745881e-08))
2040.437223   	((1.426194e-11 9.695572e-11 -1.018825e-11) (4.843554e-12 -5.398984e-12 -2.387121e-12)) ((-1.678826e-15 -1.347575e-14 -1.302816e-12) (-1.154001e-13 -4.620535e-14 -1.735008e-08))
2201.966752   	((1.371329e-11 9.810830e-11 -8.609443e-12) (4.369337e-12 -3.585347e-12 -2.407112e-12)) ((-1.626488e-15 -1.336488e-14 -1.298614e-12) (-9.711918e-14 -7.610340e-14 -1.725781e-08))
2363.507068   	((1.315435e-11 9.745747e-11 -7.509199e-12) (3.336668e-12 -1.494536e-12 -2.153932e-12)) ((-1.529272e-15 -1.319812e-14 -1.295056e-12) (-8.785177e-14 -1.070752e-13 -1.717904e-08))
2525.057006   	((1.375267e-11 9.663423e-11 -6.695146e-12) (2.042571e-12 4.997561e-13 -1.865776e-12)) ((-1.390613e-15 -1.310746e-14 -1.291908e-12) (-8.611924e-14 -1.340705e-13 -1.711146e-08))
2686.617676   	((1.353457e-11 9.587044e-11 -6.366314e-12) (6.631964e-13 2.049345e-12 -1.679308e-12)) ((-1.302916e-15 -1.312534e-14 -1.288962e-12) (-7.975490e-14 -1.578653e-13 -1.705320e-08))
2848.189845   	((1.241144e-11 9.585165e-11 -6.283852e-12) (-5.800505e-13 3.462325e-12 -1.477090e-12)) ((-1.253581e-15 -1.315188e-14 -1.286359e-12) (-7.321310e-14 -1.765965e-13 -1.700274e-08))
3009.773984   	((1.158741e-11 9.554929e-11 -6.155542e-12) (-1.835873e-12 4.762270e-12 -1.366023e-12)) ((-1.251435e-15 -1.321361e-14 -1.284091e-12) (-6.639470e-14 -1.860190e-13 -1.695884e-08))
3171.37031    	((1.095408e-11 9.469737e-11 -6.498064e-12) (-2.471334e-12 5.854880e-12 -1.120064e-12)) ((-1.204635e-15 -1.332759e-14 -1.282129e-12) (-6.229726e-14 -1.885685e-13 -1.692047e-08))
3332.970423   	((1.070988e-11 9.405221e-11 -6.680777e-12) (-2.824432e-12 6.550383e-12 -7.366096e-13)) ((-1.131167e-15 -1.342597e-14 -1.280434e-12) (-5.454866e-14 -1.878276e-13 -1.688682e-08))
3494.573991   	((1.037767e-11 9.342025e-11 -6.825222e-12) (-3.103134e-12 7.163457e-12 -3.487463e-13)) ((-1.077237e-15 -1.348767e-14 -1.278839e-12) (-4.488154e-14 -1.879088e-13 -1.685720e-08))
3656.181052   	((9.879887e-12 9.256265e-11 -7.248843e-12) (-3.328709e-12 7.604140e-12 -7.529576e-15)) ((-1.016966e-15 -1.350639e-14 -1.277429e-12) (-3.405849e-14 -1.917972e-13 -1.683105e-08))
3817.791293   	((9.419512e-12 9.174417e-11 -7.046308e-12) (-3.533575e-12 7.931771e-12 3.327911e-13)) ((-9.869952e-16 -1.350539e-14 -1.276158e-12) (-2.413184e-14 -1.980348e-13 -1.680787e-08))
