# Forces      
# CofR        : (0.000000e+00 0.000000e+00 0.000000e+00)
# Time        forces(pressure viscous)	moments(pressure viscous)
0             	((0.000000e+00 0.000000e+00 0.000000e+00) (2.016863e-03 -2.843425e-13 1.393274e-13)) ((0.000000e+00 0.000000e+00 0.000000e+00) (-3.989610e-15 -3.033272e-14 4.249532e-14))
0.012         	((5.850488e-01 1.889773e-07 4.101184e-07) (2.307222e-03 -1.534084e-09 -1.320052e-09)) ((2.656665e-12 -1.275397e-10 -6.625102e-11) (1.564922e-13 -6.046262e-12 1.740351e-11))
0.0264        	((-6.562639e-02 -9.133818e-06 -1.781046e-05) (2.329640e-03 -8.766444e-09 -1.514036e-08)) ((4.534897e-11 -4.624758e-10 -1.124932e-10) (3.102229e-13 -4.201560e-11 5.054122e-11))
0.04368       	((-1.088472e-01 6.991450e-06 1.626419e-05) (2.045690e-03 -7.195636e-09 -1.133446e-08)) ((-5.710139e-11 5.674312e-10 4.962985e-10) (2.495948e-12 2.185898e-11 -2.620869e-11))
0.064416      	((-7.406187e-04 1.686125e-06 -1.606539e-06) (1.802312e-03 -4.308184e-09 -1.675460e-09)) ((2.321639e-11 -7.739130e-11 -1.682539e-10) (1.271119e-11 1.084137e-10 -5.862076e-11))
0.0892992     	((-2.771111e-04 -2.076746e-06 -1.523547e-08) (1.658531e-03 -1.459661e-08 -4.493990e-09)) ((2.135426e-11 -3.844384e-11 -9.759377e-11) (-1.449305e-11 1.026215e-10 8.682307e-13))
0.119159      	((-1.704327e-03 7.129701e-07 -1.299309e-07) (1.533763e-03 -1.715693e-08 2.107070e-09)) ((1.578190e-11 1.176364e-11 -5.072317e-11) (-4.706548e-11 1.297547e-10 7.855793e-11))
0.154991      	((-3.990231e-04 9.445123e-08 5.381696e-08) (1.409315e-03 -1.495672e-08 6.687529e-09)) ((1.167664e-11 -9.300994e-12 1.495670e-11) (-4.227761e-11 1.605040e-10 2.911272e-10))
0.197989      	((7.188181e-05 -4.338266e-07 -4.488231e-07) (1.292640e-03 -1.551602e-08 7.555223e-09)) ((2.090898e-11 2.927880e-11 7.178891e-12) (-2.869485e-11 1.389021e-10 4.738450e-10))
0.249587      	((2.429112e-04 -3.532435e-07 -3.548855e-07) (1.187563e-03 -1.380708e-08 5.560050e-09)) ((1.228784e-11 -2.065724e-12 3.727163e-12) (-2.444138e-11 1.037830e-10 4.213314e-10))
0.311504      	((3.478109e-04 -2.194502e-07 -2.577169e-07) (1.095170e-03 -1.211720e-08 1.490131e-09)) ((1.484405e-11 -2.848537e-12 -3.230238e-12) (-3.021849e-11 5.230043e-11 3.733180e-10))
0.385805      	((4.052308e-04 -1.931441e-07 -1.790757e-07) (1.013933e-03 -1.147869e-08 -5.278931e-10)) ((8.407356e-12 -3.919488e-12 -3.484793e-12) (-3.565112e-11 3.704598e-11 3.295384e-10))
0.474966      	((4.346031e-04 -1.445532e-07 -1.508320e-07) (9.409203e-04 -1.190237e-08 -2.064595e-09)) ((3.591149e-12 -4.069677e-12 -3.986118e-12) (-3.115923e-11 7.781246e-12 2.891428e-10))
0.581959      	((4.458890e-04 -9.407597e-08 -1.119266e-07) (8.720208e-04 -1.097973e-08 -3.860761e-09)) ((3.019411e-12 -1.514024e-12 -3.172121e-12) (-2.446744e-11 -1.860921e-11 2.401625e-10))
0.710351      	((4.467247e-04 -8.613316e-08 -8.952885e-08) (8.049452e-04 -9.992261e-09 -5.718494e-09)) ((3.356581e-12 -2.117790e-14 -2.356029e-12) (-2.352778e-11 -3.805625e-11 2.081628e-10))
0.864421      	((4.442019e-04 -4.821063e-08 -4.399664e-08) (7.403891e-04 -9.590799e-09 -7.662223e-09)) ((1.790555e-12 1.219592e-12 -1.204693e-12) (-2.249500e-11 -2.340921e-11 1.546854e-10))
1.049306      	((4.439965e-04 -2.973640e-08 -4.621972e-08) (6.797409e-04 -8.292310e-09 -8.716730e-09)) ((7.535482e-13 2.684702e-12 -9.492917e-13) (-1.690852e-11 5.219078e-11 1.939864e-11))
1.271167      	((4.507307e-04 -4.485657e-08 -4.159118e-08) (6.239565e-04 -6.534056e-09 -7.359403e-09)) ((1.169711e-12 3.100752e-12 -1.292469e-12) (-1.314411e-11 2.374457e-10 -2.201129e-10))
1.5374        	((4.666011e-04 -1.207896e-07 -1.318242e-07) (5.735922e-04 -5.491857e-09 -4.913823e-09)) ((1.969585e-12 -1.360402e-12 -1.301981e-12) (-1.038291e-11 5.125168e-10 -5.144769e-10))
1.85688       	((4.934784e-04 -1.910151e-07 -1.753782e-07) (5.289161e-04 -5.563863e-09 -4.204517e-09)) ((1.783090e-12 -5.262849e-12 -1.245092e-12) (-3.051305e-12 7.634629e-10 -7.656494e-10))
2.240256      	((5.339285e-04 -3.243445e-07 -3.276450e-07) (4.900668e-04 -9.862224e-09 -7.647640e-09)) ((1.131500e-12 -8.085222e-12 -1.725062e-12) (4.902101e-12 9.133769e-10 -8.785786e-10))
2.700307      	((5.898734e-04 -3.347382e-07 -2.969880e-07) (4.569054e-04 -1.450549e-08 -1.244180e-08)) ((6.164260e-13 -7.851027e-12 -2.483897e-12) (1.029989e-11 8.407741e-10 -7.782468e-10))
3.239297      	((6.615915e-04 -2.740631e-07 -2.770830e-07) (4.295625e-04 -1.667203e-08 -1.589871e-08)) ((-4.749487e-13 -6.743140e-12 -2.740027e-12) (1.845680e-11 6.396353e-10 -5.576922e-10))
3.856674      	((7.476771e-04 -2.584275e-07 -2.316206e-07) (4.073940e-04 -1.877060e-08 -1.725682e-08)) ((-3.517477e-14 -7.178053e-12 -2.986263e-12) (2.757744e-11 4.856491e-10 -3.835244e-10))
4.551822      	((8.463327e-04 -1.448972e-07 -1.338040e-07) (3.894683e-04 -1.745045e-08 -1.605235e-08)) ((1.775470e-13 -6.533256e-12 -2.379836e-12) (3.155434e-11 3.590522e-10 -2.594874e-10))
5.321299      	((9.565935e-04 -6.517338e-08 -3.903759e-08) (3.751091e-04 -1.411077e-08 -1.278766e-08)) ((-2.036580e-13 -2.099250e-12 -2.588088e-12) (3.116612e-11 2.503788e-10 -1.579072e-10))
6.081037      	((1.067689e-03 1.058859e-07 1.300234e-07) (3.648152e-04 -9.675731e-09 -6.873332e-09)) ((6.791225e-13 6.619384e-12 -5.507362e-12) (3.430085e-11 1.565087e-10 -1.425300e-10))
6.830993      	((1.169177e-03 2.392905e-07 2.261159e-07) (3.571729e-04 -5.593452e-09 -2.818020e-09)) ((4.875322e-14 1.312001e-11 -9.733300e-12) (4.774700e-11 2.900381e-10 -3.000872e-10))
7.572465      	((1.257596e-03 2.413754e-07 1.976663e-07) (3.513954e-04 -8.859889e-09 -6.078150e-09)) ((-6.570571e-14 9.217942e-12 -1.042456e-11) (5.073038e-11 7.248909e-10 -7.630507e-10))
8.308639      	((1.326851e-03 2.944115e-07 2.821515e-07) (3.466777e-04 -2.044877e-08 -1.737462e-08)) ((-1.153926e-12 8.790577e-12 -1.355236e-11) (3.104522e-11 1.617425e-09 -1.712809e-09))
9.043332      	((1.377486e-03 5.098374e-07 5.043094e-07) (3.428293e-04 -2.788343e-08 -2.507855e-08)) ((-1.634989e-12 6.807014e-12 -1.172136e-11) (2.155457e-11 2.519480e-09 -2.594185e-09))
9.778753      	((1.403900e-03 9.935587e-07 9.689153e-07) (3.393053e-04 -2.277825e-08 -2.008456e-08)) ((-6.719554e-13 5.522580e-12 -6.389836e-12) (2.648106e-11 3.127891e-09 -3.178225e-09))
10.51494      	((1.407607e-03 1.250136e-06 1.239212e-06) (3.358491e-04 -9.642561e-09 -9.276989e-09)) ((-3.187801e-12 4.722891e-12 -3.280306e-13) (4.454281e-11 3.900588e-09 -3.831482e-09))
11.250953     	((1.394740e-03 1.084651e-06 1.099172e-06) (3.324718e-04 -9.733895e-09 -1.007663e-08)) ((-3.790016e-12 5.469046e-13 -1.437717e-12) (4.188872e-11 5.017708e-09 -4.864784e-09))
11.986075     	((1.374944e-03 1.012952e-06 9.872316e-07) (3.293143e-04 -1.428330e-08 -1.593132e-08)) ((-1.152206e-12 1.303677e-12 -4.860547e-12) (2.464445e-11 6.055591e-09 -5.898876e-09))
12.720231     	((1.347247e-03 9.987295e-07 9.653650e-07) (3.264781e-04 -1.931497e-08 -2.094883e-08)) ((-1.518833e-12 9.384954e-13 -8.924631e-12) (2.369338e-11 6.857684e-09 -6.731336e-09))
13.453922     	((1.324846e-03 7.551041e-07 7.319442e-07) (3.237873e-04 -2.743314e-08 -2.965007e-08)) ((-5.256036e-12 5.667177e-12 -1.481136e-11) (1.895066e-11 7.441186e-09 -7.293653e-09))
14.187446     	((1.312039e-03 7.597678e-07 7.799990e-07) (3.212786e-04 -2.889759e-08 -3.366968e-08)) ((-9.005697e-12 1.277323e-11 -1.692291e-11) (2.252691e-11 7.321203e-09 -7.067918e-09))
14.920802     	((1.303937e-03 8.381918e-07 8.474154e-07) (3.190756e-04 -1.889188e-08 -2.549946e-08)) ((-1.217888e-11 1.158597e-11 -1.693707e-11) (3.753553e-11 6.607947e-09 -6.203496e-09))
15.653907     	((1.296910e-03 6.559614e-07 6.244360e-07) (3.171280e-04 -5.263151e-09 -1.381886e-08)) ((-1.479522e-11 8.144983e-12 -1.592570e-11) (2.572492e-11 5.632965e-09 -5.142901e-09))
16.386797     	((1.288931e-03 3.945629e-07 4.388873e-07) (3.152938e-04 7.303708e-10 -5.629828e-09)) ((-1.700093e-11 5.295926e-12 -1.289882e-11) (1.918502e-11 4.634969e-09 -4.304810e-09))
17.119585     	((1.281105e-03 2.459105e-07 3.986326e-07) (3.134863e-04 -9.812495e-10 1.972990e-09)) ((-1.755983e-11 3.411273e-12 -8.759070e-12) (-1.086237e-11 3.906655e-09 -3.981295e-09))
17.852369     	((1.273429e-03 2.185481e-07 3.232309e-07) (3.117141e-04 -7.742098e-09 -6.651712e-10)) ((-1.723952e-11 1.201574e-12 -4.652912e-12) (6.137663e-12 3.937823e-09 -4.104526e-09))
18.585        	((1.265784e-03 3.158597e-07 4.142986e-07) (3.100021e-04 -1.358651e-08 -7.810061e-09)) ((-1.626489e-11 3.151038e-13 -2.303826e-12) (5.497876e-11 4.444764e-09 -4.346264e-09))
19.317489     	((1.258969e-03 2.962775e-07 4.562369e-07) (3.083668e-04 -1.578183e-08 -1.056494e-08)) ((-1.706445e-11 -1.327037e-12 -1.367462e-12) (6.512858e-11 4.682347e-09 -4.404109e-09))
20.050033     	((1.251854e-03 2.500329e-07 3.786257e-07) (3.067849e-04 -1.705578e-08 -1.085852e-08)) ((-1.671954e-11 -4.102103e-12 -9.022272e-13) (4.732681e-11 4.571052e-09 -4.321255e-09))
20.782738     	((1.245242e-03 2.508784e-07 4.391654e-07) (3.052431e-04 -1.825915e-08 -8.905439e-09)) ((-1.503591e-11 -3.155703e-12 -9.324378e-13) (1.027485e-11 4.365122e-09 -4.218001e-09))
21.515637     	((1.238666e-03 3.680550e-07 4.803716e-07) (3.037527e-04 -1.994114e-08 -6.188201e-09)) ((-1.427860e-11 -1.509517e-12 -1.298431e-12) (-1.463995e-11 4.202681e-09 -4.366085e-09))
22.248752     	((1.233160e-03 2.968756e-07 5.008148e-07) (3.023485e-04 -2.163332e-08 -7.919033e-09)) ((-1.380133e-11 -2.936120e-12 -2.618732e-12) (-2.355836e-12 4.362566e-09 -4.560689e-09))
22.982104     	((1.227691e-03 5.418915e-08 3.357842e-07) (3.010388e-04 -2.518917e-08 -1.162149e-08)) ((-1.297731e-11 -3.767895e-12 -4.177816e-12) (3.410406e-11 4.527882e-09 -4.576792e-09))
23.715734     	((1.223678e-03 -1.809284e-07 1.295292e-07) (2.998356e-04 -3.444758e-08 -1.716556e-08)) ((-1.365545e-11 -4.928564e-12 -6.564163e-12) (2.662445e-11 4.574293e-09 -4.654379e-09))
24.449673     	((1.219518e-03 -5.258382e-07 -1.925346e-07) (2.987258e-04 -4.979630e-08 -2.875384e-08)) ((-1.453536e-11 -8.306119e-12 -7.009742e-12) (1.755281e-11 4.677434e-09 -4.826202e-09))
25.183957     	((1.214993e-03 -8.674875e-07 -5.056373e-07) (2.976720e-04 -6.701862e-08 -4.432031e-08)) ((-1.636645e-11 -1.119597e-11 -7.905178e-12) (1.427921e-11 4.782237e-09 -4.767150e-09))
25.918484     	((1.210760e-03 -1.192562e-06 -8.010477e-07) (2.966704e-04 -8.397217e-08 -6.045045e-08)) ((-1.752026e-11 -1.211352e-11 -8.803488e-12) (-6.439899e-12 4.654609e-09 -4.446293e-09))
26.652958     	((1.205225e-03 -1.666662e-06 -1.194817e-06) (2.956877e-04 -1.025867e-07 -7.627528e-08)) ((-2.026983e-11 -1.386858e-11 -1.032805e-11) (-3.011430e-11 4.220221e-09 -3.920450e-09))
27.387416     	((1.201069e-03 -2.030836e-06 -1.585416e-06) (2.947355e-04 -1.224142e-07 -9.322273e-08)) ((-2.295656e-11 -1.436563e-11 -1.179204e-11) (-6.552715e-11 3.652466e-09 -3.373212e-09))
28.122011     	((1.196389e-03 -2.301716e-06 -1.838634e-06) (2.938085e-04 -1.414802e-07 -1.094814e-07)) ((-2.519826e-11 -1.273758e-11 -1.234939e-11) (-8.797251e-11 3.099533e-09 -2.971727e-09))
28.856907     	((1.191952e-03 -2.649612e-06 -2.125736e-06) (2.928919e-04 -1.616734e-07 -1.268266e-07)) ((-2.740166e-11 -1.175158e-11 -1.255647e-11) (-7.369350e-11 2.717138e-09 -2.674207e-09))
29.592213     	((1.187341e-03 -3.108486e-06 -2.474501e-06) (2.919809e-04 -1.849654e-07 -1.478393e-07)) ((-2.908300e-11 -1.116238e-11 -1.292328e-11) (-4.922824e-11 2.518917e-09 -2.336133e-09))
30.327851     	((1.184084e-03 -3.480675e-06 -2.831961e-06) (2.911026e-04 -2.083811e-07 -1.708558e-07)) ((-2.926663e-11 -1.025736e-11 -1.292771e-11) (-3.394042e-11 2.323390e-09 -1.867168e-09))
31.063781     	((1.180879e-03 -3.922340e-06 -3.155418e-06) (2.902736e-04 -2.321754e-07 -1.930109e-07)) ((-2.989309e-11 -9.012645e-12 -1.340462e-11) (-3.053988e-11 2.017112e-09 -1.270863e-09))
31.800031     	((1.177954e-03 -4.371564e-06 -3.571663e-06) (2.894959e-04 -2.579944e-07 -2.160993e-07)) ((-2.949775e-11 -1.133757e-11 -1.345604e-11) (-3.093794e-11 1.636938e-09 -6.606930e-10))
32.536625     	((1.174435e-03 -4.805708e-06 -3.875083e-06) (2.887582e-04 -2.850017e-07 -2.391825e-07)) ((-2.854440e-11 -1.296673e-11 -1.345585e-11) (-2.347957e-11 1.200812e-09 -8.307661e-11))
33.273588     	((1.170544e-03 -5.344149e-06 -4.382732e-06) (2.880389e-04 -3.155697e-07 -2.658240e-07)) ((-2.747247e-11 -1.738325e-11 -1.296642e-11) (-4.056274e-12 7.946504e-10 4.270180e-10))
34.010936     	((1.167066e-03 -5.969161e-06 -4.869433e-06) (2.873316e-04 -3.527088e-07 -2.977539e-07)) ((-2.552305e-11 -2.147164e-11 -1.219545e-11) (1.383484e-11 5.235446e-10 7.906709e-10))
34.748682     	((1.163353e-03 -6.590290e-06 -5.392608e-06) (2.866234e-04 -3.947408e-07 -3.333306e-07)) ((-2.305678e-11 -2.607556e-11 -1.063242e-11) (2.812309e-11 3.289068e-10 1.048709e-09))
35.486865     	((1.159615e-03 -7.306943e-06 -6.002516e-06) (2.859119e-04 -4.411061e-07 -3.722501e-07)) ((-2.018581e-11 -3.203031e-11 -9.172027e-12) (3.960749e-11 1.167288e-10 1.307525e-09))
36.225511     	((1.155820e-03 -8.200119e-06 -6.766034e-06) (2.852114e-04 -4.938041e-07 -4.166885e-07)) ((-1.785451e-11 -3.919219e-11 -8.650884e-12) (4.825240e-11 -1.244973e-10 1.616225e-09))
36.96463      	((1.151700e-03 -9.186977e-06 -7.607044e-06) (2.845265e-04 -5.541400e-07 -4.678494e-07)) ((-1.580606e-11 -4.617192e-11 -8.539082e-12) (5.527160e-11 -3.706804e-10 1.963740e-09))
37.704256     	((1.148135e-03 -1.027794e-05 -8.539396e-06) (2.838652e-04 -6.220593e-07 -5.253244e-07)) ((-1.322611e-11 -5.175600e-11 -8.779640e-12) (6.196676e-11 -6.319897e-10 2.354945e-09))
38.444406     	((1.145538e-03 -1.135420e-05 -9.473984e-06) (2.832452e-04 -6.946764e-07 -5.871923e-07)) ((-1.196396e-11 -5.601876e-11 -9.304947e-12) (7.443505e-11 -1.006191e-09 2.837564e-09))
39.185058     	((1.143419e-03 -1.251721e-05 -1.047437e-05) (2.826689e-04 -7.714424e-07 -6.531460e-07)) ((-1.121415e-11 -6.070796e-11 -1.008597e-11) (9.530603e-11 -1.516840e-09 3.429131e-09))
39.926118     	((1.141171e-03 -1.360577e-05 -1.136544e-05) (2.821228e-04 -8.516958e-07 -7.212302e-07)) ((-1.105811e-11 -6.576971e-11 -1.134666e-11) (1.109766e-10 -2.088332e-09 4.060709e-09))
40.667574     	((1.138485e-03 -1.461949e-05 -1.232352e-05) (2.815889e-04 -9.316542e-07 -7.905533e-07)) ((-1.068146e-11 -7.115773e-11 -1.314130e-11) (1.156581e-10 -2.750456e-09 4.769691e-09))
41.409422     	((1.135622e-03 -1.591490e-05 -1.347631e-05) (2.810556e-04 -1.015792e-06 -8.645924e-07)) ((-1.033755e-11 -7.820321e-11 -1.535983e-11) (1.127191e-10 -3.557371e-09 5.616464e-09))
42.151657     	((1.132806e-03 -1.738855e-05 -1.478573e-05) (2.805212e-04 -1.108156e-06 -9.455079e-07)) ((-9.934306e-12 -8.538362e-11 -1.735733e-11) (9.857363e-11 -4.524548e-09 6.608430e-09))
42.894278     	((1.130303e-03 -1.902372e-05 -1.626728e-05) (2.799927e-04 -1.209089e-06 -1.034109e-06)) ((-9.795524e-12 -9.467411e-11 -1.878324e-11) (8.001471e-11 -5.674894e-09 7.791191e-09))
43.637289     	((1.127999e-03 -2.082150e-05 -1.783561e-05) (2.794759e-04 -1.319512e-06 -1.130199e-06)) ((-1.013489e-11 -1.046966e-10 -1.948579e-11) (6.500130e-11 -6.983958e-09 9.153166e-09))
44.380677     	((1.126035e-03 -2.270922e-05 -1.951350e-05) (2.789766e-04 -1.438347e-06 -1.233988e-06)) ((-1.057758e-11 -1.153111e-10 -1.979029e-11) (4.525465e-11 -8.394853e-09 1.066725e-08))
45.124426     	((1.124125e-03 -2.469021e-05 -2.125820e-05) (2.784945e-04 -1.565436e-06 -1.345556e-06)) ((-1.093229e-11 -1.265653e-10 -2.014605e-11) (1.498292e-11 -9.877843e-09 1.231552e-08))
45.868518     	((1.122336e-03 -2.673155e-05 -2.303493e-05) (2.780285e-04 -1.699885e-06 -1.462421e-06)) ((-1.154467e-11 -1.375136e-10 -2.048364e-11) (-5.720349e-12 -1.146668e-08 1.404685e-08))
46.612934     	((1.120549e-03 -2.894472e-05 -2.494686e-05) (2.775775e-04 -1.842671e-06 -1.585153e-06)) ((-1.086839e-11 -1.494569e-10 -2.075932e-11) (-9.071118e-12 -1.317451e-08 1.586179e-08))
47.357654     	((1.118814e-03 -3.124497e-05 -2.698615e-05) (2.771403e-04 -1.994122e-06 -1.715852e-06)) ((-9.273288e-12 -1.608028e-10 -2.151322e-11) (-2.861668e-12 -1.497158e-08 1.779833e-08))
48.102662     	((1.117155e-03 -3.374402e-05 -2.915717e-05) (2.767175e-04 -2.155315e-06 -1.855488e-06)) ((-5.822155e-12 -1.718648e-10 -2.297066e-11) (9.976974e-12 -1.684405e-08 1.989017e-08))
48.847937     	((1.115418e-03 -3.646124e-05 -3.151405e-05) (2.763065e-04 -2.328798e-06 -2.005573e-06)) ((-1.527347e-12 -1.833080e-10 -2.490288e-11) (2.749398e-11 -1.877864e-08 2.212896e-08))
49.59346      	((1.113786e-03 -3.938411e-05 -3.401334e-05) (2.759068e-04 -2.515569e-06 -2.166781e-06)) ((3.914533e-12 -1.951413e-10 -2.675455e-11) (4.421372e-11 -2.080309e-08 2.452943e-08))
50.339216     	((1.112266e-03 -4.249150e-05 -3.669993e-05) (2.755202e-04 -2.715939e-06 -2.340367e-06)) ((1.020584e-11 -2.082570e-10 -2.834591e-11) (7.012550e-11 -2.291652e-08 2.710138e-08))
51.085185     	((1.110814e-03 -4.588348e-05 -3.959101e-05) (2.751472e-04 -2.932362e-06 -2.528025e-06)) ((1.847120e-11 -2.226784e-10 -2.974120e-11) (1.088455e-10 -2.510586e-08 2.982871e-08))
51.831345     	((1.109507e-03 -4.957344e-05 -4.271954e-05) (2.747889e-04 -3.167820e-06 -2.731685e-06)) ((2.810954e-11 -2.381253e-10 -3.129472e-11) (1.462887e-10 -2.735192e-08 3.270173e-08))
52.577671     	((1.108335e-03 -5.362434e-05 -4.612350e-05) (2.744474e-04 -3.425008e-06 -2.953209e-06)) ((3.839772e-11 -2.550934e-10 -3.316243e-11) (1.794142e-10 -2.964019e-08 3.571514e-08))
53.324137     	((1.107293e-03 -5.804319e-05 -4.985297e-05) (2.741244e-04 -3.706627e-06 -3.194696e-06)) ((4.770505e-11 -2.740114e-10 -3.517421e-11) (2.103910e-10 -3.202675e-08 3.887362e-08))
54.070716     	((1.106298e-03 -6.281676e-05 -5.390359e-05) (2.738193e-04 -4.014102e-06 -3.458574e-06)) ((5.556544e-11 -2.943967e-10 -3.741308e-11) (2.289220e-10 -3.453214e-08 4.220903e-08))
54.817379     	((1.105320e-03 -6.805229e-05 -5.833727e-05) (2.735304e-04 -4.350017e-06 -3.747090e-06)) ((6.197705e-11 -3.167591e-10 -4.009520e-11) (2.343289e-10 -3.715410e-08 4.576582e-08))
55.564095     	((1.104391e-03 -7.372584e-05 -6.321533e-05) (2.732557e-04 -4.715979e-06 -4.063747e-06)) ((6.729535e-11 -3.417200e-10 -4.310878e-11) (2.282054e-10 -3.991814e-08 4.957291e-08))
56.31083      	((1.103543e-03 -7.992330e-05 -6.849241e-05) (2.729919e-04 -5.114395e-06 -4.408461e-06)) ((7.272918e-11 -3.692648e-10 -4.617637e-11) (2.162600e-10 -4.295319e-08 5.367909e-08))
57.057548     	((1.102685e-03 -8.669473e-05 -7.440086e-05) (2.727359e-04 -5.549228e-06 -4.785401e-06)) ((7.876223e-11 -4.025792e-10 -4.922799e-11) (2.080959e-10 -4.630460e-08 5.811759e-08))
57.804206     	((1.101911e-03 -9.408886e-05 -8.086548e-05) (2.724881e-04 -6.023832e-06 -5.198024e-06)) ((8.602143e-11 -4.406292e-10 -5.203955e-11) (1.948382e-10 -4.998954e-08 6.289830e-08))
58.550758     	((1.101264e-03 -1.021702e-04 -8.787023e-05) (2.722532e-04 -6.543004e-06 -5.649321e-06)) ((9.400696e-11 -4.825399e-10 -5.413244e-11) (1.698146e-10 -5.391596e-08 6.794542e-08))
59.297155     	((1.100826e-03 -1.109376e-04 -9.551169e-05) (2.720382e-04 -7.110563e-06 -6.143645e-06)) ((1.032837e-10 -5.287125e-10 -5.604630e-11) (1.441155e-10 -5.804177e-08 7.323443e-08))
60.043342     	((1.100696e-03 -1.203875e-04 -1.038203e-04) (2.718490e-04 -7.727307e-06 -6.682813e-06)) ((1.144259e-10 -5.784517e-10 -5.702091e-11) (1.100774e-10 -6.249157e-08 7.880484e-08))
60.789261     	((1.100792e-03 -1.306806e-04 -1.127993e-04) (2.716869e-04 -8.398014e-06 -7.269631e-06)) ((1.275071e-10 -6.310497e-10 -5.701345e-11) (4.155307e-11 -6.733252e-08 8.469397e-08))
61.534853     	((1.101065e-03 -1.418749e-04 -1.225956e-04) (2.715517e-04 -9.130116e-06 -7.909284e-06)) ((1.424818e-10 -6.874213e-10 -5.665815e-11) (-7.316250e-11 -7.253975e-08 9.080129e-08))
62.280054     	((1.101473e-03 -1.541504e-04 -1.333248e-04) (2.714449e-04 -9.934915e-06 -8.608628e-06)) ((1.609245e-10 -7.491231e-10 -5.476114e-11) (-1.895391e-10 -7.805143e-08 9.701162e-08))
63.024797     	((1.102133e-03 -1.673541e-04 -1.449381e-04) (2.713684e-04 -1.081822e-05 -9.373299e-06)) ((1.835239e-10 -8.151767e-10 -5.157762e-11) (-2.944319e-10 -8.387096e-08 1.033834e-07))
63.76901      	((1.103126e-03 -1.817896e-04 -1.574265e-04) (2.713198e-04 -1.178643e-05 -1.020736e-05)) ((2.121128e-10 -8.869499e-10 -4.968354e-11) (-4.400587e-10 -8.999373e-08 1.099794e-07))
64.51262      	((1.104468e-03 -1.975329e-04 -1.710450e-04) (2.712954e-04 -1.284750e-05 -1.111866e-05)) ((2.474349e-10 -9.655587e-10 -4.996827e-11) (-5.649629e-10 -9.638316e-08 1.169098e-07))
65.255573     	((1.106381e-03 -2.146133e-04 -1.857468e-04) (2.712937e-04 -1.400776e-05 -1.211432e-05)) ((2.889705e-10 -1.048764e-09 -5.377248e-11) (-6.301484e-10 -1.030548e-07 1.243490e-07))
65.997841     	((1.108973e-03 -2.333018e-04 -2.017562e-04) (2.713187e-04 -1.527160e-05 -1.319749e-05)) ((3.375612e-10 -1.139445e-09 -6.111443e-11) (-6.628203e-10 -1.104580e-07 1.326867e-07))
66.739362     	((1.112383e-03 -2.535246e-04 -2.191263e-04) (2.713818e-04 -1.664231e-05 -1.437294e-05)) ((3.940543e-10 -1.238221e-09 -6.481623e-11) (-6.404037e-10 -1.188785e-07 1.422457e-07))
67.480059     	((1.116609e-03 -2.754904e-04 -2.378188e-04) (2.714886e-04 -1.812470e-05 -1.564448e-05)) ((4.569215e-10 -1.340974e-09 -6.150232e-11) (-5.289935e-10 -1.283868e-07 1.531591e-07))
68.219846     	((1.121753e-03 -2.991776e-04 -2.580805e-04) (2.716469e-04 -1.972715e-05 -1.701837e-05)) ((5.262889e-10 -1.450508e-09 -5.146857e-11) (-4.067859e-10 -1.390857e-07 1.653235e-07))
68.958644     	((1.127974e-03 -3.245894e-04 -2.800022e-04) (2.718652e-04 -2.145272e-05 -1.850101e-05)) ((6.044850e-10 -1.566524e-09 -3.819263e-11) (-3.675371e-10 -1.510503e-07 1.788140e-07))
69.696412     	((1.135575e-03 -3.520982e-04 -3.035221e-04) (2.721563e-04 -2.331821e-05 -2.010435e-05)) ((6.972892e-10 -1.689464e-09 -2.438778e-11) (-3.833316e-10 -1.640525e-07 1.933597e-07))
70.433127     	((1.144691e-03 -3.813956e-04 -3.285638e-04) (2.725550e-04 -2.534023e-05 -2.184313e-05)) ((8.006064e-10 -1.813093e-09 -1.123122e-11) (-3.653352e-10 -1.771799e-07 2.080662e-07))
71.168737     	((1.155594e-03 -4.129789e-04 -3.553783e-04) (2.730864e-04 -2.754034e-05 -2.373178e-05)) ((9.189550e-10 -1.942785e-09 2.272052e-12) (-2.346861e-10 -1.896944e-07 2.223218e-07))
71.903251     	((1.168966e-03 -4.469844e-04 -3.841988e-04) (2.737653e-04 -2.993015e-05 -2.577835e-05)) ((1.050668e-09 -2.079389e-09 1.802962e-11) (-5.329094e-11 -2.022764e-07 2.368976e-07))
