# Forces      
# CofR        : (0.000000e+00 0.000000e+00 0.000000e+00)
# Time        forces(pressure viscous)	moments(pressure viscous)
0             	((0.000000e+00 0.000000e+00 0.000000e+00) (-2.209830e-15 -9.933072e-16 3.177862e-05)) ((0.000000e+00 0.000000e+00 0.000000e+00) (5.458938e-17 1.214023e-11 7.938503e-19))
0.012         	((-2.074022e-09 -5.972284e-09 9.235787e-03) (-2.800335e-11 -3.070389e-11 3.646979e-05)) ((3.936788e-12 2.447200e-09 3.475974e-14) (-1.951862e-13 3.576465e-11 1.987821e-15))
0.0264        	((-2.526961e-09 3.753511e-08 -6.385067e-04) (-4.742281e-11 -1.377042e-11 3.721316e-05)) ((-5.721558e-12 -1.519685e-10 2.162959e-13) (-1.726566e-13 4.751120e-11 8.245203e-14))
0.04368       	((1.715489e-08 -3.124126e-08 -1.931904e-03) (-8.818082e-11 9.141762e-12 3.307390e-05)) ((-2.071655e-11 -4.361214e-10 -4.563942e-13) (5.976962e-13 4.847786e-11 6.911054e-14))
0.064416      	((-3.523640e-08 2.629151e-08 -1.829432e-05) (2.253667e-10 2.995974e-10 2.929804e-05)) ((6.774882e-12 7.348323e-12 2.134656e-13) (-2.445327e-12 5.570867e-11 -4.170874e-14))
0.0892992     	((3.798993e-08 -4.352661e-09 2.531400e-05) (4.644123e-10 4.733279e-10 2.704898e-05)) ((2.625846e-12 -1.459675e-11 -1.800223e-13) (-1.156459e-12 6.952931e-11 -2.491738e-13))
0.119159      	((2.275597e-09 1.264280e-08 -2.925629e-05) (4.117329e-10 4.175767e-10 2.497523e-05)) ((1.198986e-12 -1.861216e-11 3.468409e-13) (1.731581e-12 7.552105e-11 -6.020779e-14))
0.154991      	((-1.573415e-09 -1.154754e-09 -1.597247e-05) (3.215364e-10 3.769259e-10 2.277831e-05)) ((-9.227725e-13 -1.557953e-11 1.936944e-13) (5.480120e-13 7.493770e-11 1.354012e-12))
0.197989      	((1.837761e-09 -2.772182e-09 -3.903398e-06) (2.600828e-10 2.656417e-10 2.056241e-05)) ((3.741754e-13 -7.919502e-12 2.024360e-13) (-1.320108e-12 6.532104e-11 2.495355e-12))
0.249587      	((1.250180e-09 4.685579e-10 4.892448e-07) (2.246861e-10 1.668059e-10 1.838930e-05)) ((4.398609e-13 -4.618762e-12 4.631000e-14) (-3.411107e-12 5.640691e-11 2.407067e-12))
0.311504      	((1.808702e-09 8.278712e-10 2.475246e-06) (1.625875e-10 8.990245e-11 1.632352e-05)) ((2.363516e-14 -1.969813e-12 5.650656e-15) (-4.676273e-12 5.145915e-11 2.115449e-12))
0.385805      	((1.732302e-10 -4.280420e-10 3.414975e-06) (1.267038e-10 3.999619e-11 1.441778e-05)) ((-1.679745e-14 -2.102006e-13 3.276571e-14) (-4.707194e-12 5.197270e-11 1.736781e-12))
0.474966      	((1.224642e-10 -3.624390e-10 3.867153e-06) (6.965693e-11 1.855788e-11 1.270881e-05)) ((-4.650824e-15 6.826905e-13 1.359485e-14) (-3.129465e-12 5.106260e-11 1.444137e-12))
0.581959      	((1.454091e-10 -4.493082e-10 4.052098e-06) (4.995395e-11 7.248136e-12 1.121084e-05)) ((-2.685720e-14 1.124095e-12 1.603317e-14) (-1.883207e-12 4.409255e-11 1.300009e-12))
0.710351      	((-2.669374e-10 -2.118407e-10 4.039313e-06) (6.774056e-11 8.334776e-12 9.923736e-06)) ((-1.666594e-14 1.542033e-12 1.636904e-14) (-1.614660e-12 3.211863e-11 1.008025e-12))
0.864421      	((-4.464851e-10 -4.030334e-10 3.895104e-06) (6.062795e-11 -1.265786e-12 8.831828e-06)) ((-1.087932e-14 1.809594e-12 1.295705e-14) (-2.198026e-12 1.920789e-11 6.694857e-13))
1.049306      	((-4.885601e-10 -2.639515e-10 3.681400e-06) (3.028738e-11 -5.210476e-12 7.908327e-06)) ((-9.737838e-15 1.985519e-12 9.097494e-15) (-2.501806e-12 7.552730e-12 4.039678e-13))
1.271167      	((-3.705651e-10 -2.909614e-10 3.443112e-06) (1.493383e-11 -4.613252e-12 7.125034e-06)) ((-1.149769e-14 2.018846e-12 8.265213e-15) (-2.419817e-12 -9.437405e-13 2.437115e-13))
1.5374        	((-2.612419e-10 -1.560215e-10 3.199485e-06) (1.377907e-11 -5.150805e-12 6.452040e-06)) ((-1.035799e-14 1.925906e-12 5.968484e-15) (-2.270661e-12 -6.591127e-12 1.304199e-13))
1.85688       	((-2.621125e-10 -1.135354e-10 2.960502e-06) (-6.135515e-11 -1.148487e-11 5.862268e-06)) ((-9.960185e-15 1.919072e-12 5.746354e-15) (-1.939812e-12 -1.102379e-11 1.898108e-14))
2.240256      	((-3.057577e-10 -3.106912e-11 2.732708e-06) (-9.586445e-11 -1.540728e-11 5.338015e-06)) ((-9.078884e-15 1.900092e-12 4.995467e-15) (-1.455723e-12 -1.364385e-11 -4.342766e-14))
2.700307      	((-2.752741e-10 6.399871e-12 2.519379e-06) (-5.043125e-11 -1.149043e-11 4.868308e-06)) ((-8.772564e-15 1.866688e-12 4.183996e-15) (-8.512676e-13 -1.457039e-11 -6.083431e-14))
3.252369      	((-2.617025e-10 4.062267e-11 2.320103e-06) (-1.964404e-11 -7.996108e-12 4.445684e-06)) ((-6.276336e-15 1.810712e-12 4.242202e-15) (-1.961956e-13 -1.384528e-11 -6.780625e-14))
3.914842      	((-3.313309e-10 1.347609e-11 2.132776e-06) (-3.906488e-11 -9.460991e-12 4.064617e-06)) ((-1.453170e-15 1.726982e-12 3.835946e-15) (3.527465e-13 -1.269805e-11 -6.881844e-14))
4.709811      	((-4.109254e-10 -8.362841e-12 1.958841e-06) (-4.389214e-11 -1.056271e-11 3.720941e-06)) ((3.364197e-15 1.629342e-12 4.459267e-15) (8.305264e-13 -1.213265e-11 -4.360227e-14))
5.663773      	((-3.755065e-10 -7.160733e-11 1.799074e-06) (-1.532601e-13 -1.041714e-11 3.411496e-06)) ((7.852127e-15 1.525124e-12 4.687929e-15) (1.241809e-12 -1.137377e-11 -1.009887e-14))
6.808528      	((-2.178988e-10 -5.161632e-11 1.653330e-06) (3.995873e-11 -6.194935e-12 3.133526e-06)) ((8.167506e-15 1.433192e-12 3.741691e-15) (1.207522e-12 -1.197885e-11 -1.812852e-14))
8.182233      	((-7.658167e-11 -3.135160e-11 1.520924e-06) (5.040085e-11 1.584109e-12 2.884023e-06)) ((4.136445e-15 1.352420e-12 2.302680e-15) (9.778329e-13 -1.394768e-11 -2.772192e-14))
9.83068       	((-2.220284e-11 -1.429630e-11 1.400874e-06) (5.425234e-11 7.786476e-12 2.659799e-06)) ((-1.012095e-16 1.266744e-12 1.576529e-15) (1.205708e-12 -1.581676e-11 -3.593185e-14))
11.808816     	((-7.251486e-11 -8.367617e-11 1.291408e-06) (6.708879e-11 9.068263e-12 2.457739e-06)) ((-5.431311e-16 1.180878e-12 2.068750e-15) (2.113667e-12 -1.674081e-11 -5.768659e-14))
14.182579     	((-1.324238e-10 -1.731494e-10 1.191879e-06) (5.842022e-11 2.733391e-12 2.274942e-06)) ((2.505206e-15 1.096616e-12 2.938275e-15) (4.084011e-12 -1.737996e-11 -7.367264e-14))
17.031095     	((-6.044570e-11 -1.424303e-10 1.101877e-06) (4.034577e-11 -4.450092e-12 2.109067e-06)) ((4.915155e-15 1.022973e-12 2.923379e-15) (6.807714e-12 -1.884409e-11 -1.561747e-13))
20.449314     	((-1.092636e-10 -1.912586e-10 1.020618e-06) (2.117497e-11 -1.151537e-11 1.958345e-06)) ((4.561073e-15 9.551919e-13 2.984502e-15) (9.236908e-12 -2.085557e-11 -2.446506e-13))
24.551176     	((-1.820242e-10 -2.407783e-10 9.475971e-07) (-4.070039e-13 -2.125974e-11 1.821443e-06)) ((4.590885e-15 8.895723e-13 3.260430e-15) (1.087223e-11 -2.229836e-11 -2.604213e-13))
29.473411     	((-9.462026e-11 -1.352138e-10 8.826213e-07) (-1.145656e-11 -2.412792e-11 1.697338e-06)) ((4.073554e-15 8.319246e-13 2.779793e-15) (1.201372e-11 -2.249419e-11 -2.130092e-13))
35.380094     	((-1.044571e-11 -6.862954e-11 8.250232e-07) (-1.601837e-11 -2.651630e-11 1.585161e-06)) ((3.522558e-15 7.794005e-13 2.645166e-15) (1.292686e-11 -2.187737e-11 -1.694155e-13))
42.468112     	((-4.225195e-11 -7.352404e-11 7.746024e-07) (-2.551435e-11 -3.652961e-11 1.484057e-06)) ((4.594655e-15 7.296296e-13 3.315906e-15) (1.417020e-11 -2.163863e-11 -1.527881e-13))
50.973735     	((-5.402099e-11 -7.172793e-11 7.308937e-07) (-3.851252e-11 -5.060013e-11 1.393114e-06)) ((6.567928e-15 6.833633e-13 3.328085e-15) (1.639950e-11 -2.290962e-11 -1.488258e-13))
61.180482     	((6.003617e-12 -6.224300e-12 6.936204e-07) (-5.147690e-11 -6.210060e-11 1.311483e-06)) ((8.361847e-15 6.407037e-13 3.532323e-15) (1.955747e-11 -2.540376e-11 -1.526191e-13))
73.428578     	((3.101144e-11 1.634066e-11 6.623689e-07) (-6.180938e-11 -7.493983e-11 1.238378e-06)) ((9.995490e-15 6.010714e-13 3.922699e-15) (2.368299e-11 -2.915665e-11 -1.659401e-13))
88.126294     	((7.394682e-11 7.784675e-11 6.367776e-07) (-7.307699e-11 -8.887147e-11 1.173095e-06)) ((1.093805e-14 5.648479e-13 4.157717e-15) (2.854687e-11 -3.408115e-11 -1.398619e-13))
105.763553    	((1.498813e-10 1.661426e-10 6.166742e-07) (-8.673207e-11 -1.011130e-10 1.115065e-06)) ((1.194772e-14 5.295659e-13 3.744968e-15) (3.372565e-11 -3.962684e-11 -9.835727e-14))
126.928263    	((1.792989e-10 1.935314e-10 6.015631e-07) (-1.014017e-10 -1.158296e-10 1.063834e-06)) ((1.407281e-14 4.986103e-13 3.641883e-15) (3.900676e-11 -4.526386e-11 -3.070393e-14))
152.325916    	((2.279020e-10 2.579031e-10 5.913536e-07) (-1.138262e-10 -1.258076e-10 1.019062e-06)) ((1.574319e-14 4.720297e-13 3.200143e-15) (4.404214e-11 -5.069638e-11 1.817931e-14))
182.803099    	((2.918490e-10 3.169906e-10 5.855540e-07) (-1.193910e-10 -1.301902e-10 9.804652e-07)) ((1.666193e-14 4.503964e-13 2.875943e-15) (4.819419e-11 -5.519071e-11 3.924570e-14))
219.375719    	((3.771272e-10 3.939986e-10 5.833752e-07) (-1.202890e-10 -1.289980e-10 9.477437e-07)) ((1.637087e-14 4.330687e-13 2.589884e-15) (5.121076e-11 -5.831192e-11 5.911675e-14))
263.262863    	((4.765457e-10 4.886712e-10 5.839522e-07) (-1.141510e-10 -1.215408e-10 9.205131e-07)) ((1.618061e-14 4.183432e-13 2.542666e-15) (5.301631e-11 -5.995230e-11 6.887980e-14))
315.927436    	((5.787084e-10 5.855830e-10 5.861197e-07) (-9.963404e-11 -1.057146e-10 8.982400e-07)) ((1.545403e-14 4.072500e-13 2.373953e-15) (5.356581e-11 -6.023444e-11 6.467169e-14))
377.699718    	((6.560562e-10 6.628832e-10 5.888770e-07) (-7.889209e-11 -8.177407e-11 8.803177e-07)) ((1.434706e-14 3.995511e-13 2.165097e-15) (5.290547e-11 -5.919734e-11 5.003463e-14))
448.562066    	((7.059601e-10 7.170930e-10 5.910893e-07) (-5.104784e-11 -5.094127e-11 8.659277e-07)) ((1.293801e-14 3.948039e-13 2.089525e-15) (5.116286e-11 -5.718954e-11 3.396889e-14))
528.511458    	((7.510278e-10 7.590486e-10 5.923678e-07) (-1.574037e-11 -1.402206e-11 8.543208e-07)) ((1.150461e-14 3.917014e-13 2.058603e-15) (4.861819e-11 -5.443830e-11 2.261177e-14))
617.555618    	((7.694175e-10 7.741314e-10 5.928681e-07) (2.438897e-11 2.704344e-11 8.448727e-07)) ((9.784669e-15 3.900611e-13 2.062794e-15) (4.560475e-11 -5.127235e-11 1.740515e-14))
708.61502     	((7.592545e-10 7.587237e-10 5.932155e-07) (6.307688e-11 6.630210e-11 8.372546e-07)) ((8.762898e-15 3.884389e-13 2.134294e-15) (4.243923e-11 -4.804103e-11 1.316892e-14))
799.77468     	((7.263005e-10 7.255298e-10 5.932503e-07) (9.661646e-11 1.002236e-10 8.310561e-07)) ((7.306171e-15 3.878868e-13 2.166503e-15) (3.927946e-11 -4.482400e-11 7.934125e-15))
891.015926    	((6.812543e-10 6.807265e-10 5.932338e-07) (1.228295e-10 1.269810e-10 8.260301e-07)) ((7.148233e-15 3.863392e-13 2.197229e-15) (3.620330e-11 -4.169455e-11 4.356929e-15))
982.324243    	((6.305930e-10 6.299152e-10 5.931685e-07) (1.413332e-10 1.456496e-10 8.219367e-07)) ((6.355783e-15 3.857924e-13 2.235437e-15) (3.331820e-11 -3.876922e-11 3.451026e-15))
1073.689494   	((5.743148e-10 5.729543e-10 5.930863e-07) (1.538061e-10 1.581703e-10 8.186127e-07)) ((5.966942e-15 3.849833e-13 2.268548e-15) (3.056321e-11 -3.598786e-11 2.345154e-15))
1165.103329   	((5.162689e-10 5.148017e-10 5.929916e-07) (1.604134e-10 1.647399e-10 8.159058e-07)) ((5.942814e-15 3.839898e-13 2.288984e-15) (2.802552e-11 -3.343039e-11 1.104073e-15))
1256.558333   	((4.591447e-10 4.572426e-10 5.928992e-07) (1.623804e-10 1.664993e-10 8.136976e-07)) ((5.712813e-15 3.834054e-13 2.301488e-15) (2.569585e-11 -3.108470e-11 2.411475e-15))
1348.047925   	((4.047116e-10 4.023328e-10 5.928125e-07) (1.607531e-10 1.646419e-10 8.118948e-07)) ((5.566205e-15 3.828747e-13 2.320545e-15) (2.356916e-11 -2.894767e-11 4.747764e-15))
1439.566474   	((3.535621e-10 3.507829e-10 5.927344e-07) (1.558515e-10 1.594341e-10 8.104235e-07)) ((5.398165e-15 3.824907e-13 2.336115e-15) (2.167231e-11 -2.704096e-11 6.801309e-15))
1531.109238   	((3.062326e-10 3.032518e-10 5.926641e-07) (1.490400e-10 1.523937e-10 8.092208e-07)) ((5.304190e-15 3.821083e-13 2.349390e-15) (1.997385e-11 -2.533769e-11 7.998005e-15))
1622.672247   	((2.634098e-10 2.602421e-10 5.926025e-07) (1.408337e-10 1.439949e-10 8.082366e-07)) ((5.110984e-15 3.818774e-13 2.356046e-15) (1.847543e-11 -2.383404e-11 8.973064e-15))
1714.252175   	((2.255352e-10 2.219139e-10 5.925487e-07) (1.318834e-10 1.348530e-10 8.074296e-07)) ((4.963008e-15 3.816786e-13 2.364408e-15) (1.715999e-11 -2.251369e-11 9.219539e-15))
1805.846237   	((1.922881e-10 1.884870e-10 5.925036e-07) (1.228563e-10 1.257040e-10 8.067678e-07)) ((4.815899e-15 3.815528e-13 2.372785e-15) (1.600098e-11 -2.135196e-11 9.227773e-15))
1897.452095   	((1.635878e-10 1.595464e-10 5.924648e-07) (1.139584e-10 1.166894e-10 8.062246e-07)) ((4.694671e-15 3.814515e-13 2.383967e-15) (1.499490e-11 -2.034309e-11 9.327963e-15))
1989.067792   	((1.390014e-10 1.346772e-10 5.924320e-07) (1.054034e-10 1.080699e-10 8.057787e-07)) ((4.577862e-15 3.813910e-13 2.390139e-15) (1.412860e-11 -1.947623e-11 9.316287e-15))
2080.69169    	((1.182640e-10 1.137077e-10 5.924040e-07) (9.745260e-11 1.000431e-10 8.054122e-07)) ((4.490202e-15 3.813391e-13 2.391517e-15) (1.338642e-11 -1.873383e-11 8.999208e-15))
2172.322419   	((1.007702e-10 9.607873e-11 5.923807e-07) (9.021052e-11 9.273685e-11 8.051109e-07)) ((4.416281e-15 3.812976e-13 2.390393e-15) (1.275306e-11 -1.810118e-11 8.559134e-15))
2263.958827   	((8.623736e-11 8.144243e-11 5.923609e-07) (8.377312e-11 8.624586e-11 8.048629e-07)) ((4.351140e-15 3.812675e-13 2.393728e-15) (1.221394e-11 -1.756293e-11 8.038497e-15))
2355.599954   	((7.421243e-11 6.932669e-11 5.923443e-07) (7.814239e-11 8.056169e-11 8.046589e-07)) ((4.292130e-15 3.812453e-13 2.391753e-15) (1.175680e-11 -1.710656e-11 7.488164e-15))
2447.244993   	((6.426285e-11 5.934493e-11 5.923301e-07) (7.327017e-11 7.564253e-11 8.044909e-07)) ((4.241270e-15 3.812297e-13 2.392874e-15) (1.137093e-11 -1.672171e-11 6.957508e-15))
2538.893273   	((5.608239e-11 5.113070e-11 5.923186e-07) (6.910389e-11 7.142905e-11 8.043525e-07)) ((4.198853e-15 3.812180e-13 2.394336e-15) (1.104670e-11 -1.639830e-11 6.448941e-15))
2630.544234   	((4.942019e-11 4.450728e-11 5.923088e-07) (6.556391e-11 6.785213e-11 8.042385e-07)) ((4.161962e-15 3.812116e-13 2.395562e-15) (1.077534e-11 -1.612779e-11 6.012468e-15))
2722.19741    	((4.392544e-11 3.886015e-11 5.923006e-07) (6.258599e-11 6.483978e-11 8.041446e-07)) ((4.130536e-15 3.812051e-13 2.397292e-15) (1.054900e-11 -1.590213e-11 5.628719e-15))
2813.852415   	((3.951373e-11 3.458994e-11 5.922939e-07) (6.010628e-11 6.233610e-11 8.040672e-07)) ((4.106017e-15 3.811992e-13 2.398200e-15) (1.036012e-11 -1.571379e-11 5.290389e-15))
2905.508929   	((3.581457e-11 3.072075e-11 5.922880e-07) (5.805386e-11 6.026048e-11 8.040034e-07)) ((4.085092e-15 3.811937e-13 2.399100e-15) (1.020284e-11 -1.555689e-11 4.988727e-15))
2997.166685   	((3.287791e-11 2.793873e-11 5.922835e-07) (5.636566e-11 5.855869e-11 8.039508e-07)) ((4.069601e-15 3.811895e-13 2.398813e-15) (1.007207e-11 -1.542638e-11 4.757548e-15))
3088.825466   	((3.034734e-11 2.521627e-11 5.922792e-07) (5.498110e-11 5.715750e-11 8.039074e-07)) ((4.054502e-15 3.811858e-13 2.399271e-15) (9.963219e-12 -1.531784e-11 4.558267e-15))
3180.485091   	((2.837212e-11 2.342316e-11 5.922762e-07) (5.385237e-11 5.602403e-11 8.038716e-07)) ((4.044786e-15 3.811822e-13 2.400211e-15) (9.872885e-12 -1.522771e-11 4.381619e-15))
3272.145412   	((2.663018e-11 2.148551e-11 5.922733e-07) (5.292738e-11 5.508743e-11 8.038421e-07)) ((4.034133e-15 3.811799e-13 2.400698e-15) (9.797876e-12 -1.515286e-11 4.222915e-15))
3363.806306   	((2.530614e-11 2.035912e-11 5.922714e-07) (5.217430e-11 5.433318e-11 8.038178e-07)) ((4.028712e-15 3.811771e-13 2.400889e-15) (9.735548e-12 -1.509062e-11 4.100381e-15))
3455.467672   	((2.410109e-11 1.904733e-11 5.922694e-07) (5.155625e-11 5.370800e-11 8.037977e-07)) ((4.021805e-15 3.811758e-13 2.400997e-15) (9.683625e-12 -1.503886e-11 4.009264e-15))
3547.129427   	((2.312335e-11 1.811925e-11 5.922680e-07) (5.104884e-11 5.320104e-11 8.037811e-07)) ((4.017395e-15 3.811740e-13 2.401230e-15) (9.640631e-12 -1.499590e-11 3.923480e-15))
3638.791504   	((2.223311e-11 1.704646e-11 5.922668e-07) (5.063061e-11 5.277687e-11 8.037674e-07)) ((4.012456e-15 3.811729e-13 2.401760e-15) (9.604776e-12 -1.496005e-11 3.852855e-15))
3730.453846   	((2.159375e-11 1.663910e-11 5.922658e-07) (5.028678e-11 5.243423e-11 8.037561e-07)) ((4.011944e-15 3.811703e-13 2.401705e-15) (9.574814e-12 -1.493013e-11 3.805164e-15))
3822.116408   	((2.092380e-11 1.573027e-11 5.922648e-07) (4.999829e-11 5.213910e-11 8.037468e-07)) ((4.006305e-15 3.811702e-13 2.401867e-15) (9.549891e-12 -1.490527e-11 3.755716e-15))
3913.779151   	((2.047017e-11 1.546821e-11 5.922641e-07) (4.975867e-11 5.190366e-11 8.037391e-07)) ((4.006423e-15 3.811684e-13 2.402107e-15) (9.529013e-12 -1.488440e-11 3.722483e-15))
4005.442043   	((2.005812e-11 1.496886e-11 5.922640e-07) (4.955576e-11 5.169482e-11 8.037328e-07)) ((4.003601e-15 3.811684e-13 2.402389e-15) (9.511666e-12 -1.486706e-11 3.684481e-15))
4097.105061   	((1.966678e-11 1.452823e-11 5.922626e-07) (4.938464e-11 5.152436e-11 8.037275e-07)) ((4.000873e-15 3.811677e-13 2.402021e-15) (9.497055e-12 -1.485254e-11 3.658076e-15))
4188.768181   	((1.936520e-11 1.428931e-11 5.922625e-07) (4.924130e-11 5.138019e-11 8.037232e-07)) ((4.002826e-15 3.811655e-13 2.402424e-15) (9.484979e-12 -1.484044e-11 3.635760e-15))
4280.431386   	((1.906335e-11 1.382128e-11 5.922625e-07) (4.911766e-11 5.125409e-11 8.037196e-07)) ((4.000730e-15 3.811666e-13 2.402657e-15) (9.474806e-12 -1.483026e-11 3.623995e-15))
4372.094662   	((1.886886e-11 1.368379e-11 5.922624e-07) (4.901411e-11 5.115032e-11 8.037167e-07)) ((4.000847e-15 3.811665e-13 2.402596e-15) (9.466286e-12 -1.482176e-11 3.610373e-15))
4463.757997   	((1.868687e-11 1.343993e-11 5.922621e-07) (4.892561e-11 5.106000e-11 8.037143e-07)) ((4.000191e-15 3.811666e-13 2.402487e-15) (9.459215e-12 -1.481472e-11 3.595683e-15))
4555.42138    	((1.857276e-11 1.337045e-11 5.922621e-07) (4.885178e-11 5.098778e-11 8.037123e-07)) ((3.999182e-15 3.811665e-13 2.402549e-15) (9.453347e-12 -1.480884e-11 3.584917e-15))
