# Forces      
# CofR        : (0.000000e+00 0.000000e+00 0.000000e+00)
# Time        forces(pressure viscous)	moments(pressure viscous)
0             	((0.000000e+00 0.000000e+00 0.000000e+00) (0.000000e+00 0.000000e+00 0.000000e+00)) ((0.000000e+00 0.000000e+00 0.000000e+00) (0.000000e+00 0.000000e+00 0.000000e+00))
0.012         	((3.427109e-11 -5.688610e-11 -1.365943e-08) (8.815338e-14 -2.997818e-13 -2.869986e-10)) ((6.163087e-15 -5.314983e-10 2.796529e-16) (-8.981250e-16 -3.509764e-07 2.076844e-14))
0.0264        	((-5.783867e-11 6.013508e-11 5.135080e-09) (6.595076e-14 -8.492327e-13 -4.990949e-10)) ((1.316689e-15 -2.662369e-10 -2.586149e-14) (-9.804413e-15 -3.214683e-07 2.934443e-14))
0.04368       	((-2.095958e-10 -3.267208e-10 -4.758848e-09) (-6.196741e-13 -6.454504e-13 -5.413205e-10)) ((-4.817118e-15 -1.470784e-10 -1.683684e-14) (1.615823e-14 -2.911482e-07 4.257192e-14))
0.064416      	((6.445375e-11 8.855238e-11 -1.779591e-10) (-2.023445e-12 4.452210e-13 -4.469737e-10)) ((-2.961719e-16 -8.397662e-11 1.130878e-15) (5.455305e-14 -2.606811e-07 5.605070e-14))
0.0892992     	((-1.653521e-10 -1.001455e-10 -5.818176e-10) (-3.668427e-12 1.584098e-12 -3.699144e-10)) ((1.036379e-15 -6.253554e-11 8.678307e-17) (7.590508e-14 -2.309585e-07 5.864021e-14))
0.119159      	((9.403711e-11 2.786615e-11 -1.396353e-10) (-4.787606e-12 2.742108e-12 -3.138934e-10)) ((-1.103168e-15 -4.503914e-11 2.341776e-16) (1.054116e-13 -2.028972e-07 6.618321e-14))
0.154991      	((5.219305e-11 6.568439e-11 3.915564e-10) (-5.977944e-12 4.374866e-12 -2.531212e-10)) ((7.799059e-16 -3.571243e-11 -2.682127e-15) (1.419311e-13 -1.771454e-07 7.717938e-14))
0.197989      	((3.310978e-11 4.105946e-11 -3.163929e-11) (-6.651320e-12 5.783584e-12 -1.986826e-10)) ((1.103801e-15 -2.847480e-11 -2.763428e-15) (1.567543e-13 -1.543184e-07 8.784585e-14))
0.249587      	((-2.371511e-11 4.615326e-11 3.591582e-10) (-5.596848e-12 6.508213e-12 -1.584818e-10)) ((2.146959e-15 -2.352400e-11 1.205230e-15) (1.512428e-13 -1.347440e-07 8.115302e-14))
0.311504      	((-1.933858e-11 -1.319670e-11 7.279501e-11) (-4.361249e-12 7.054106e-12 -1.246524e-10)) ((1.173971e-15 -1.962917e-11 2.580267e-15) (1.477995e-13 -1.183722e-07 5.844426e-14))
0.385805      	((-1.151454e-11 -2.989668e-11 -1.683292e-11) (-2.879337e-12 7.260446e-12 -9.576338e-11)) ((3.679888e-16 -1.687435e-11 4.112937e-15) (1.491195e-13 -1.048512e-07 4.764759e-14))
0.474966      	((4.517188e-11 9.515863e-12 -9.138091e-11) (-1.653759e-12 7.893277e-12 -6.863888e-11)) ((9.577743e-16 -1.505313e-11 3.482440e-15) (1.419350e-13 -9.365083e-08 2.733326e-14))
0.581959      	((4.624485e-11 4.448244e-11 8.127296e-11) (-6.029683e-13 8.447190e-12 -4.668911e-11)) ((8.480227e-16 -1.348875e-11 1.754536e-15) (1.187480e-13 -8.422447e-08 -5.410936e-15))
0.710351      	((8.631596e-11 5.883625e-11 -1.849056e-10) (-3.352917e-13 6.015556e-12 -4.037399e-11)) ((1.134399e-15 -1.198080e-11 1.555713e-15) (6.772483e-14 -7.612223e-08 3.907250e-14))
0.864421      	((9.102391e-11 4.956772e-11 -9.546120e-11) (5.968673e-13 4.921135e-13 -3.411988e-11)) ((2.522824e-15 -1.096886e-11 -6.825887e-16) (1.036055e-14 -6.902407e-08 1.275845e-13))
1.049306      	((2.204492e-10 4.407207e-11 -2.338192e-11) (-1.992033e-12 -4.936486e-12 -1.782868e-11)) ((3.013500e-15 -1.032790e-11 -2.388167e-15) (-1.581900e-15 -6.271708e-08 1.920463e-13))
1.271167      	((2.262247e-10 4.058993e-11 -1.638859e-10) (-6.806309e-12 -9.189765e-12 -2.002437e-12)) ((1.176541e-15 -9.675257e-12 -2.060986e-15) (-6.383977e-14 -5.705680e-08 1.690786e-13))
1.5374        	((3.042223e-10 -1.963307e-11 -1.945236e-10) (-9.247539e-12 -1.112708e-11 1.411409e-11)) ((-2.986137e-15 -8.915547e-12 -3.839177e-15) (-2.185109e-13 -5.194930e-08 7.873456e-14))
1.85688       	((2.273817e-10 2.926743e-11 -1.561512e-10) (-1.626456e-11 -1.214023e-11 3.840965e-11)) ((-4.346276e-15 -8.220054e-12 -1.568840e-15) (-4.409234e-13 -4.734360e-08 -1.396121e-13))
2.240256      	((1.834579e-10 8.218225e-12 -2.063790e-10) (-2.606594e-11 -9.816974e-12 5.472822e-11)) ((-5.318891e-15 -7.750088e-12 -1.070960e-15) (-6.755170e-13 -4.321356e-08 -4.560642e-13))
2.700307      	((1.384060e-10 1.373180e-11 -1.737213e-10) (-4.614380e-11 -6.311452e-12 6.169284e-11)) ((-5.946869e-15 -7.409853e-12 -2.618200e-15) (-9.876067e-13 -3.954026e-08 -9.597080e-13))
3.252369      	((8.659566e-11 1.080098e-11 -1.133247e-10) (-6.892084e-11 -3.433431e-12 9.087948e-11)) ((-5.727903e-15 -7.054716e-12 -2.800638e-15) (-1.297980e-12 -3.629763e-08 -1.556400e-12))
3.914842      	((2.064211e-11 8.551573e-12 -4.950912e-11) (-8.404642e-11 1.368430e-12 1.338596e-10)) ((-2.920634e-15 -6.654632e-12 -4.751369e-15) (-1.623151e-12 -3.344609e-08 -1.922166e-12))
4.709811      	((1.765834e-11 1.428570e-11 1.396113e-11) (-1.013044e-10 4.845868e-12 1.534197e-10)) ((-2.682571e-15 -6.223577e-12 -5.522525e-15) (-1.875932e-12 -3.093153e-08 -2.120152e-12))
5.663773      	((-1.592716e-12 1.096910e-11 -1.055729e-11) (-1.113731e-10 2.590246e-12 1.469793e-10)) ((-2.942691e-15 -5.773539e-12 -2.140637e-15) (-1.912754e-12 -2.869435e-08 -2.073906e-12))
6.808528      	((5.509145e-12 2.005371e-11 9.996083e-12) (-1.112574e-10 6.956122e-13 1.402008e-10)) ((-3.599008e-15 -5.303595e-12 1.849801e-16) (-1.753330e-12 -2.668227e-08 -1.867708e-12))
8.182233      	((-3.379206e-11 1.537024e-11 7.432762e-12) (-1.059792e-10 2.087353e-12 1.221061e-10)) ((-2.549656e-15 -4.854126e-12 8.001518e-16) (-1.517136e-12 -2.485499e-08 -1.708404e-12))
9.83068       	((-3.421438e-11 7.790894e-12 -2.559062e-11) (-9.031994e-11 2.352220e-12 8.988026e-11)) ((-3.188620e-15 -4.399804e-12 1.179647e-15) (-1.228575e-12 -2.318183e-08 -1.503638e-12))
11.808816     	((7.003580e-12 -1.929386e-12 -1.711838e-11) (-7.031876e-11 -2.506069e-12 5.605947e-11)) ((-1.182925e-15 -3.992496e-12 2.648783e-15) (-9.877148e-13 -2.164196e-08 -1.055318e-12))
14.182579     	((2.131593e-12 8.874464e-12 -7.034630e-11) (-5.083003e-11 -9.428538e-12 3.493167e-11)) ((1.709755e-16 -3.629132e-12 4.321521e-15) (-8.225759e-13 -2.022248e-08 -6.357280e-13))
17.031095     	((1.959566e-11 -1.929976e-12 -3.903112e-11) (-3.126420e-11 -1.090718e-11 2.352436e-11)) ((1.116591e-15 -3.311833e-12 4.705321e-15) (-5.714363e-13 -1.891660e-08 -3.283308e-13))
20.449314     	((1.024656e-11 7.026366e-12 -4.731371e-11) (-1.702294e-11 -7.668852e-12 1.511126e-11)) ((1.229798e-15 -3.028402e-12 4.405838e-15) (-2.943950e-13 -1.772060e-08 -2.343574e-13))
24.551176     	((3.918548e-11 -8.366696e-13 -3.110673e-11) (-8.880152e-12 -4.946873e-12 1.416181e-11)) ((2.513868e-15 -2.779686e-12 4.293105e-15) (-1.064791e-13 -1.662840e-08 -2.011671e-13))
29.473411     	((4.504324e-11 9.620488e-13 -1.629113e-11) (-3.927143e-12 -4.386829e-12 1.970761e-11)) ((3.297455e-15 -2.567806e-12 3.777312e-15) (-4.715779e-14 -1.563278e-08 -1.446534e-13))
35.380094     	((4.968673e-11 -6.847031e-13 -1.636605e-11) (-2.443542e-12 -3.308891e-12 2.364204e-11)) ((3.602502e-15 -2.380128e-12 3.684415e-15) (-3.256120e-14 -1.472547e-08 -1.329555e-13))
42.468112     	((4.725153e-11 -1.299853e-12 -1.002324e-11) (-2.989320e-12 -2.324702e-12 2.614330e-11)) ((3.616260e-15 -2.215346e-12 3.152644e-15) (-5.072114e-14 -1.389870e-08 -1.526056e-13))
50.973735     	((4.536521e-11 1.896984e-12 -1.049973e-11) (-6.491196e-12 -1.797784e-12 2.908463e-11)) ((3.634816e-15 -2.068997e-12 2.741559e-15) (-1.040297e-13 -1.314560e-08 -1.805893e-13))
61.180482     	((4.315402e-11 -5.048805e-12 -1.573068e-11) (-7.591399e-12 -2.498971e-12 3.450088e-11)) ((3.453731e-15 -1.935905e-12 2.458116e-15) (-1.761462e-13 -1.246016e-08 -2.227701e-13))
73.428578     	((3.167688e-11 -1.769282e-12 -1.274179e-11) (-9.995774e-12 -3.557752e-12 3.988458e-11)) ((3.434412e-15 -1.817097e-12 2.102320e-15) (-2.602432e-13 -1.183709e-08 -2.759783e-13))
88.126294     	((2.231366e-11 -2.212839e-12 -5.614433e-12) (-1.008195e-11 -4.614511e-12 4.372365e-11)) ((3.055923e-15 -1.711535e-12 1.595628e-15) (-3.285536e-13 -1.127124e-08 -3.100169e-13))
105.763553    	((2.095620e-11 -9.236068e-13 -8.403346e-12) (-1.100198e-11 -4.559041e-12 4.918555e-11)) ((2.748654e-15 -1.617225e-12 1.247664e-15) (-3.520555e-13 -1.075813e-08 -3.318518e-13))
126.928263    	((2.192207e-11 -1.320758e-12 -7.738493e-12) (-1.210282e-11 -3.646961e-12 5.250536e-11)) ((2.288974e-15 -1.533979e-12 1.091291e-15) (-3.489201e-13 -1.029357e-08 -3.556447e-13))
152.325916    	((1.887668e-11 2.504599e-13 -8.512873e-12) (-1.163400e-11 -2.564420e-12 5.572042e-11)) ((2.257914e-15 -1.459375e-12 9.036387e-16) (-3.221059e-13 -9.873005e-09 -3.569224e-13))
182.803099    	((1.029788e-11 1.633171e-12 -1.255929e-11) (-8.894783e-12 -1.529507e-12 5.603212e-11)) ((2.471283e-15 -1.391494e-12 7.692125e-16) (-2.772587e-13 -9.491960e-09 -3.549160e-13))
219.375719    	((2.746752e-12 2.837039e-12 -1.741972e-11) (-7.469065e-12 -5.204796e-13 5.283638e-11)) ((2.759920e-15 -1.327946e-12 9.685611e-16) (-2.211274e-13 -9.146395e-09 -3.689151e-13))
263.262863    	((1.160192e-12 3.680402e-12 -1.913745e-11) (-5.845846e-12 3.843368e-14 4.958323e-11)) ((2.811625e-15 -1.269739e-12 9.292222e-16) (-1.826708e-13 -8.832724e-09 -3.752500e-13))
315.927436    	((-3.716744e-12 3.257137e-12 -1.370930e-11) (-4.232025e-12 1.563918e-13 4.603875e-11)) ((2.576221e-15 -1.216659e-12 8.644889e-16) (-1.677125e-13 -8.547870e-09 -3.807928e-13))
379.124923    	((-5.262229e-12 1.520252e-12 -1.035241e-11) (-2.142328e-12 5.659677e-14 4.390326e-11)) ((2.091193e-15 -1.169924e-12 8.450132e-16) (-1.630110e-13 -8.289398e-09 -3.735905e-13))
454.961908    	((-1.474615e-12 1.074533e-13 -6.742889e-12) (-7.672939e-13 6.187893e-13 4.265164e-11)) ((1.706051e-15 -1.129344e-12 9.054003e-16) (-1.459608e-13 -8.055496e-09 -3.591049e-13))
545.966289    	((-1.141281e-13 6.420586e-14 -2.054541e-12) (4.987689e-13 1.381381e-12 4.264020e-11)) ((1.209879e-15 -1.092255e-12 8.647677e-16) (-1.261049e-13 -7.844605e-09 -3.439815e-13))
655.171547    	((1.590669e-12 1.023142e-12 -3.387669e-12) (6.939784e-13 1.680149e-12 4.305736e-11)) ((9.320456e-16 -1.058506e-12 7.476708e-16) (-1.181936e-13 -7.655090e-09 -3.207560e-13))
786.217856    	((3.671627e-12 -5.551529e-13 -4.634356e-12) (6.939937e-13 1.568569e-12 4.198919e-11)) ((7.282056e-16 -1.027866e-12 5.969175e-16) (-1.121144e-13 -7.485407e-09 -3.068352e-13))
943.473427    	((3.990746e-12 -3.785381e-13 -7.016804e-12) (5.837232e-13 1.653865e-12 4.033371e-11)) ((6.335952e-16 -1.000646e-12 5.911468e-16) (-1.084423e-13 -7.334130e-09 -3.003416e-13))
1132.180113   	((3.346584e-12 -1.232719e-12 -7.828651e-12) (7.152343e-13 1.596152e-12 3.883335e-11)) ((5.042061e-16 -9.764248e-13 4.959161e-16) (-1.011897e-13 -7.199908e-09 -2.917222e-13))
1358.628135   	((3.204183e-12 -2.168337e-12 -9.045870e-12) (1.116914e-12 1.542812e-12 3.701456e-11)) ((4.986392e-16 -9.552195e-13 3.835241e-16) (-8.852837e-14 -7.081469e-09 -2.841731e-13))
1625.673897   	((7.180703e-13 3.052878e-13 -7.689415e-12) (8.142035e-13 1.398144e-12 3.554003e-11)) ((5.223151e-16 -9.369950e-13 3.211468e-16) (-7.183556e-14 -6.977691e-09 -2.801183e-13))
1933.318913   	((2.247910e-13 -2.739737e-13 -7.137273e-12) (3.451118e-13 1.315233e-12 3.464489e-11)) ((5.065985e-16 -9.215459e-13 2.771796e-16) (-5.085709e-14 -6.887433e-09 -2.766788e-13))
2281.56515    	((1.318627e-12 -1.780391e-12 -7.099096e-12) (1.711191e-14 1.207407e-12 3.359562e-11)) ((4.664817e-16 -9.081070e-13 1.716066e-16) (-3.424655e-14 -6.809526e-09 -2.740955e-13))
2670.414878   	((1.936296e-12 -1.602248e-12 -6.382346e-12) (3.327534e-14 1.152734e-12 3.222420e-11)) ((4.900149e-16 -8.965350e-13 1.195189e-16) (-2.159109e-14 -6.742620e-09 -2.667436e-13))
3076.47433    	((2.065234e-12 -1.604422e-12 -7.145932e-12) (3.958218e-13 1.182124e-12 3.083775e-11)) ((5.286775e-16 -8.869544e-13 9.179619e-17) (-1.342186e-14 -6.685636e-09 -2.593577e-13))
3482.558311   	((1.887250e-12 -1.652852e-12 -6.622609e-12) (7.265833e-13 1.293170e-12 2.969612e-11)) ((5.852098e-16 -8.789914e-13 1.023624e-16) (-7.850214e-15 -6.637398e-09 -2.521798e-13))
3888.666032   	((1.962110e-12 -1.649896e-12 -5.909388e-12) (1.169373e-12 1.375426e-12 2.876764e-11)) ((6.321169e-16 -8.722703e-13 9.622754e-17) (-4.020044e-15 -6.596686e-09 -2.424390e-13))
4294.796397   	((2.232399e-12 -1.502397e-12 -5.208024e-12) (1.690452e-12 1.341777e-12 2.794880e-11)) ((6.565852e-16 -8.665591e-13 8.920137e-17) (-2.334788e-15 -6.562330e-09 -2.298266e-13))
4700.947435   	((2.187682e-12 -1.288317e-12 -4.506766e-12) (2.016187e-12 1.248763e-12 2.732500e-11)) ((6.845905e-16 -8.617191e-13 8.795896e-17) (-2.920439e-15 -6.533308e-09 -2.171346e-13))
5107.117624   	((2.244725e-12 -1.007021e-12 -3.540621e-12) (2.341958e-12 1.148942e-12 2.674159e-11)) ((7.032698e-16 -8.576557e-13 7.645660e-17) (-4.762297e-15 -6.508751e-09 -2.066552e-13))
5513.305364   	((2.297054e-12 -1.128952e-12 -2.730650e-12) (2.605294e-12 1.073963e-12 2.620860e-11)) ((6.865334e-16 -8.542173e-13 6.158057e-17) (-6.662766e-15 -6.487935e-09 -1.986120e-13))
5919.508906   	((2.510631e-12 -1.290448e-12 -2.392555e-12) (2.716252e-12 1.017115e-12 2.580629e-11)) ((6.909424e-16 -8.512586e-13 5.136932e-17) (-9.117950e-15 -6.470250e-09 -1.920610e-13))
6325.726578   	((2.390279e-12 -1.427213e-12 -2.424467e-12) (2.750505e-12 9.764931e-13 2.550319e-11)) ((7.018546e-16 -8.487233e-13 3.165822e-17) (-1.127810e-14 -6.455194e-09 -1.866930e-13))
6731.956809   	((2.078225e-12 -1.529734e-12 -2.466618e-12) (2.766086e-12 9.769846e-13 2.524293e-11)) ((7.304805e-16 -8.465271e-13 3.203045e-17) (-1.285792e-14 -6.442348e-09 -1.817561e-13))
7138.198111   	((1.825639e-12 -1.368062e-12 -2.654599e-12) (2.771136e-12 1.009026e-12 2.504662e-11)) ((7.359212e-16 -8.446434e-13 2.819154e-17) (-1.390343e-14 -6.431368e-09 -1.781494e-13))
7544.449145   	((1.564460e-12 -1.296554e-12 -2.585045e-12) (2.768122e-12 1.058051e-12 2.490936e-11)) ((7.418590e-16 -8.430272e-13 2.373780e-17) (-1.466248e-14 -6.421970e-09 -1.755730e-13))
7950.708701   	((1.229567e-12 -1.225706e-12 -2.339609e-12) (2.744130e-12 1.114707e-12 2.487039e-11)) ((7.475787e-16 -8.416335e-13 1.881076e-17) (-1.502656e-14 -6.413915e-09 -1.736522e-13))
8356.975721   	((9.388115e-13 -1.250445e-12 -2.131609e-12) (2.720323e-12 1.156446e-12 2.486226e-11)) ((7.479782e-16 -8.404366e-13 1.346091e-17) (-1.526639e-14 -6.407003e-09 -1.721615e-13))
8763.249292   	((7.574649e-13 -1.260815e-12 -2.074663e-12) (2.734217e-12 1.187974e-12 2.484482e-11)) ((7.513881e-16 -8.394086e-13 7.086866e-18) (-1.536818e-14 -6.401067e-09 -1.711319e-13))
9169.528599   	((6.057223e-13 -1.441837e-12 -2.069999e-12) (2.768109e-12 1.214804e-12 2.484108e-11)) ((7.497419e-16 -8.385181e-13 -4.250655e-18) (-1.562443e-14 -6.395962e-09 -1.702658e-13))
9575.812922   	((5.223428e-13 -1.430227e-12 -2.004016e-12) (2.793701e-12 1.230782e-12 2.483350e-11)) ((7.503659e-16 -8.377575e-13 -5.239477e-18) (-1.568820e-14 -6.391571e-09 -1.689333e-13))
