# Forces      
# CofR        : (0.000000e+00 0.000000e+00 0.000000e+00)
# Time        forces(pressure viscous)	moments(pressure viscous)
0             	((0.000000e+00 0.000000e+00 0.000000e+00) (0.000000e+00 0.000000e+00 0.000000e+00)) ((0.000000e+00 0.000000e+00 0.000000e+00) (0.000000e+00 0.000000e+00 0.000000e+00))
0.012         	((2.409631e-09 -2.925819e-09 -6.875426e-07) (4.295300e-11 -1.482807e-11 -1.476876e-08)) ((3.065721e-13 -2.718061e-08 8.712349e-15) (-1.170610e-13 -1.759343e-05 1.087903e-12))
0.0264        	((-6.105157e-09 2.487187e-09 2.557476e-07) (-5.319432e-11 -3.880693e-11 -2.575156e-08)) ((5.984598e-14 -1.414528e-08 -1.280222e-12) (-4.287720e-13 -1.611739e-05 1.635762e-12))
0.04368       	((-2.239048e-08 -1.655889e-08 -2.315537e-07) (-1.515627e-10 -2.008433e-11 -2.871151e-08)) ((-3.147929e-13 -8.473289e-09 -8.439228e-13) (1.292207e-12 -1.461096e-05 1.841680e-12))
0.064416      	((2.565269e-08 3.285904e-09 9.252303e-09) (-4.992133e-10 3.850505e-11 -2.430976e-08)) ((-1.846459e-13 -5.533441e-09 -8.830932e-14) (4.059285e-12 -1.311560e-05 1.993864e-12))
0.0892992     	((1.639067e-08 -4.411395e-09 -8.016012e-09) (-1.482007e-09 9.394028e-11 -1.992100e-08)) ((3.734339e-14 -4.590046e-09 -4.758412e-14) (5.541216e-12 -1.168280e-05 1.388146e-12))
0.119159      	((3.891312e-09 2.871431e-09 -2.338424e-08) (-2.167349e-09 1.462142e-10 -1.708866e-08)) ((2.658000e-14 -3.719976e-09 6.890462e-14) (7.116527e-12 -1.036080e-05 2.593674e-14))
0.154991      	((-1.671193e-08 3.772033e-09 1.873284e-08) (-2.007322e-09 1.822422e-10 -1.361385e-08)) ((1.171223e-13 -3.150773e-09 -1.262699e-13) (7.324729e-12 -9.181493e-06 -1.238919e-12))
0.197989      	((1.211189e-08 3.471136e-10 -1.163012e-08) (-6.741268e-10 2.257591e-10 -1.053889e-08)) ((6.981806e-14 -2.668218e-09 -1.427091e-13) (6.818434e-12 -8.148728e-06 -1.058210e-12))
0.249587      	((2.883899e-09 1.220762e-09 -3.567891e-09) (1.845718e-09 3.197122e-10 -8.741564e-09)) ((1.209845e-13 -2.336310e-09 -3.326943e-14) (7.771392e-12 -7.246948e-06 4.558775e-13))
0.311504      	((2.660994e-08 2.920778e-10 -7.179564e-09) (3.971986e-09 3.256303e-10 -7.393759e-09)) ((1.834562e-13 -2.073049e-09 2.532326e-14) (8.352912e-12 -6.454638e-06 1.226723e-12))
0.385805      	((2.951562e-08 -9.059392e-10 3.055536e-09) (5.467503e-09 2.444514e-10 -4.884633e-09)) ((-4.031468e-14 -1.869514e-09 -1.392516e-13) (9.096858e-12 -5.757052e-06 1.145397e-12))
0.474966      	((3.053487e-08 -6.402728e-11 -4.427281e-09) (5.730618e-09 1.556647e-10 -2.830389e-09)) ((-1.792215e-13 -1.694195e-09 -7.945772e-14) (1.051296e-11 -5.143671e-06 1.301953e-12))
0.581959      	((1.524661e-08 -2.488660e-09 2.717702e-10) (3.626752e-09 7.029815e-11 -4.211559e-10)) ((-1.516170e-13 -1.528349e-09 2.599998e-14) (1.253517e-11 -4.607353e-06 2.902803e-12))
0.710351      	((2.098218e-08 -2.707850e-09 4.127700e-09) (2.654166e-09 -4.787227e-13 8.503673e-10)) ((-1.767128e-13 -1.361336e-09 -1.474660e-13) (1.512455e-11 -4.139557e-06 4.282517e-12))
0.864421      	((2.306007e-08 -1.468859e-09 -2.757426e-09) (3.173564e-09 3.049402e-11 -3.250427e-10)) ((-3.908680e-13 -1.216107e-09 1.767040e-14) (1.468698e-11 -3.730529e-06 4.384599e-13))
1.049306      	((1.436506e-08 -5.206945e-10 -9.245570e-09) (3.150053e-09 3.105086e-10 -9.625850e-10)) ((-1.731620e-13 -1.095030e-09 1.239774e-13) (7.600309e-12 -3.370682e-06 -7.280876e-12))
1.271167      	((1.686158e-08 5.850914e-10 6.290699e-10) (2.212476e-10 1.077691e-10 -1.720580e-10)) ((-6.980256e-13 -9.914459e-10 2.265364e-14) (-1.288990e-12 -3.052152e-06 -1.518416e-11))
1.5374        	((7.288950e-09 1.946129e-09 -3.586207e-10) (-2.086034e-09 5.476474e-11 1.127646e-09)) ((-1.376005e-12 -9.023702e-10 5.104776e-13) (-3.657404e-13 -2.769659e-06 -2.748496e-11))
1.85688       	((2.420006e-08 2.154450e-09 4.142732e-09) (-2.060919e-09 3.960388e-10 2.018673e-09)) ((-2.297252e-12 -8.191653e-10 8.419818e-13) (6.534241e-12 -2.520248e-06 -3.964624e-11))
2.240256      	((2.321244e-08 1.577157e-09 3.257715e-09) (-8.272009e-10 -2.020651e-10 2.637661e-10)) ((-2.082416e-12 -7.435796e-10 6.253257e-13) (1.169141e-11 -2.301865e-06 -4.096184e-11))
2.700307      	((3.128182e-08 2.449532e-09 8.711655e-09) (4.254223e-10 -4.839508e-10 6.209983e-10)) ((-1.673885e-12 -6.742260e-10 2.052040e-13) (1.824905e-11 -2.111856e-06 -3.775323e-11))
3.252369      	((1.762553e-08 2.203109e-09 8.153380e-09) (1.641657e-09 -4.962556e-10 4.471369e-10)) ((-9.511691e-13 -6.066745e-10 1.239131e-13) (3.411951e-11 -1.946408e-06 -2.524476e-11))
3.914842      	((1.042185e-08 6.402585e-09 1.560171e-08) (3.589831e-09 -6.634909e-10 -7.030822e-10)) ((-4.939874e-13 -5.443978e-10 -9.594470e-14) (5.603354e-11 -1.801163e-06 -1.037961e-12))
4.709811      	((9.094147e-09 5.590165e-09 1.448023e-08) (7.760184e-09 -6.211093e-10 -2.761837e-09)) ((-2.636298e-13 -4.882488e-10 -5.581660e-15) (8.200349e-11 -1.672291e-06 2.651177e-11))
5.663773      	((6.527986e-09 4.467939e-09 7.064982e-09) (8.593254e-09 -6.261773e-10 -5.149746e-09)) ((8.548540e-14 -4.374352e-10 -1.170981e-14) (1.033292e-10 -1.556732e-06 3.434609e-11))
6.808528      	((4.164958e-09 2.324765e-09 3.590655e-09) (8.051320e-09 -3.769661e-10 -6.805775e-09)) ((3.336444e-13 -3.915133e-10 3.888348e-13) (1.084777e-10 -1.452135e-06 3.262501e-11))
8.182233      	((2.106290e-09 1.414640e-09 5.436675e-10) (7.606597e-09 -4.695203e-10 -5.064625e-09)) ((4.625646e-13 -3.534683e-10 4.553979e-13) (9.656848e-11 -1.356889e-06 3.423794e-11))
9.83068       	((4.001765e-09 3.807597e-10 1.057789e-09) (6.367396e-09 -3.891202e-10 -3.960156e-09)) ((8.139368e-13 -3.180691e-10 3.751592e-13) (7.340490e-11 -1.269727e-06 3.849346e-11))
11.808816     	((1.983822e-09 -7.434572e-10 3.351266e-11) (4.214342e-09 -5.932731e-10 -4.781159e-09)) ((1.234284e-12 -2.876101e-10 1.789601e-13) (4.144593e-11 -1.189754e-06 4.728676e-11))
14.182579     	((3.420766e-09 8.740359e-10 -9.638032e-10) (3.110528e-09 -1.226646e-10 -4.651628e-09)) ((1.228790e-12 -2.625542e-10 1.404721e-13) (1.341611e-11 -1.116800e-06 5.827143e-11))
17.031095     	((-2.103058e-10 -3.208159e-10 -3.619874e-09) (3.643471e-09 -1.723149e-10 -2.843556e-09)) ((1.050410e-12 -2.410895e-10 1.268350e-13) (-9.369016e-12 -1.051047e-06 7.539565e-11))
20.449314     	((-3.886377e-09 -1.782027e-09 -5.451509e-10) (2.760548e-09 -5.784437e-10 -2.924285e-09)) ((9.228176e-13 -2.232839e-10 1.327280e-13) (-3.409765e-11 -9.925227e-07 8.642835e-11))
24.551176     	((-6.677042e-09 -2.061852e-09 -2.785275e-09) (2.591811e-09 -5.383356e-10 -4.393291e-09)) ((8.870252e-13 -2.079844e-10 5.262395e-14) (-5.816194e-11 -9.410658e-07 8.966785e-11))
29.439653     	((-6.530950e-09 -1.616645e-10 -1.567111e-09) (4.297825e-09 -6.861120e-10 -3.707227e-09)) ((7.215172e-13 -1.956030e-10 2.221551e-14) (-8.429030e-11 -8.965285e-07 9.148294e-11))
35.137969     	((-7.560586e-09 -2.182252e-10 -7.681923e-09) (5.073954e-09 -5.245544e-10 -3.754052e-09)) ((5.679842e-13 -1.844777e-10 3.703716e-14) (-1.036800e-10 -8.589048e-07 9.241389e-11))
41.64605      	((-8.513623e-09 -2.325897e-10 -9.903238e-09) (4.197140e-09 -1.840405e-10 -1.860915e-09)) ((5.038049e-13 -1.756454e-10 9.014514e-14) (-1.096271e-10 -8.278294e-07 9.100885e-11))
48.963815     	((-4.917695e-09 -9.302211e-10 -9.580735e-09) (3.483677e-09 -1.096883e-10 -2.199636e-09)) ((5.324388e-13 -1.676791e-10 3.212095e-13) (-1.053665e-10 -8.027444e-07 8.667144e-11))
57.059609     	((6.189403e-10 -2.202538e-09 -6.061075e-09) (4.867706e-09 -3.175973e-10 -3.687759e-09)) ((4.547065e-13 -1.601342e-10 5.204967e-13) (-9.062831e-11 -7.831495e-07 8.400082e-11))
65.154136     	((5.894644e-09 -3.270195e-09 -2.663541e-09) (5.737533e-09 -4.286716e-10 -2.820141e-09)) ((2.865921e-13 -1.543917e-10 6.568151e-13) (-7.898032e-11 -7.693888e-07 8.250154e-11))
73.247315     	((8.468369e-09 -3.444785e-09 6.372260e-10) (6.134137e-09 -7.481170e-10 -1.720981e-09)) ((1.616041e-13 -1.501062e-10 6.752391e-13) (-7.916546e-11 -7.605514e-07 7.943442e-11))
81.338894     	((6.799480e-09 -3.413517e-09 2.335833e-09) (6.493401e-09 -8.597110e-10 -1.090049e-09)) ((1.049558e-15 -1.467865e-10 5.279977e-13) (-8.840245e-11 -7.560406e-07 8.012134e-11))
89.428765     	((4.790265e-09 -3.105462e-09 3.312086e-09) (5.803621e-09 -8.297647e-10 -9.222392e-10)) ((-1.374878e-13 -1.447826e-10 3.476191e-13) (-9.870340e-11 -7.552944e-07 7.758907e-11))
97.516808     	((5.098989e-09 -3.929468e-09 4.990186e-09) (5.288800e-09 -9.092033e-10 -3.812921e-10)) ((-2.245184e-13 -1.440280e-10 2.374117e-13) (-1.075096e-10 -7.579443e-07 6.930245e-11))
105.60292     	((4.077034e-09 -3.942569e-09 4.519727e-09) (5.487976e-09 -9.005978e-10 -9.953770e-12)) ((-1.698208e-13 -1.439736e-10 1.421098e-13) (-1.161585e-10 -7.636747e-07 6.081520e-11))
113.68663     	((1.061114e-09 -4.288250e-09 2.137702e-09) (4.430022e-09 -9.642430e-10 2.478119e-10)) ((-9.206039e-14 -1.446757e-10 9.817505e-14) (-1.225642e-10 -7.721969e-07 5.171954e-11))
121.767763    	((-7.592163e-10 -4.106674e-09 4.301259e-10) (3.694559e-09 -9.919474e-10 5.661721e-10)) ((-3.395399e-14 -1.463489e-10 7.132914e-14) (-1.277740e-10 -7.831017e-07 4.224579e-11))
129.846192    	((-2.086303e-09 -4.454714e-09 -1.983314e-09) (2.814797e-09 -9.849893e-10 4.929772e-10)) ((1.089989e-14 -1.486330e-10 6.844536e-14) (-1.277229e-10 -7.958394e-07 3.367017e-11))
137.899935    	((-3.250084e-09 -4.648354e-09 -4.371198e-09) (2.082202e-09 -9.234042e-10 -6.931921e-11)) ((9.345093e-14 -1.517351e-10 4.346690e-14) (-1.237413e-10 -8.096711e-07 2.730968e-11))
145.799301    	((-4.600766e-09 -4.240698e-09 -7.560925e-09) (1.943212e-09 -8.564615e-10 -3.595698e-10)) ((2.204152e-13 -1.549931e-10 -1.269858e-14) (-1.178109e-10 -8.236068e-07 2.447614e-11))
153.564322    	((-4.476974e-09 -4.291595e-09 -8.051187e-09) (1.711609e-09 -8.116873e-10 -7.840379e-10)) ((2.968905e-13 -1.583805e-10 -7.172962e-14) (-1.109515e-10 -8.368415e-07 2.473503e-11))
161.215879    	((-5.439105e-10 -5.365330e-09 -5.626347e-09) (1.605011e-09 -7.658613e-10 -1.059757e-09)) ((2.839753e-13 -1.615990e-10 -3.812549e-14) (-1.047192e-10 -8.486888e-07 3.087836e-11))
168.776386    	((1.212497e-10 -5.972429e-09 -4.331785e-09) (2.031658e-09 -6.848105e-10 -6.813713e-10)) ((2.910166e-13 -1.646849e-10 3.757170e-15) (-1.015652e-10 -8.586214e-07 3.940317e-11))
176.267776    	((-2.855751e-10 -6.307696e-09 -3.557627e-09) (2.866698e-09 -7.138082e-10 3.881013e-10)) ((3.156562e-13 -1.672787e-10 3.037820e-14) (-1.028316e-10 -8.662933e-07 4.988461e-11))
183.710422    	((-3.085052e-09 -6.966442e-09 -3.698187e-09) (3.223948e-09 -8.512327e-10 1.238268e-09)) ((3.505415e-13 -1.695661e-10 2.538408e-14) (-1.056966e-10 -8.715646e-07 5.835667e-11))
191.121078    	((-3.844031e-09 -7.883765e-09 -3.209652e-09) (3.271847e-09 -9.951381e-10 1.524466e-09)) ((3.543622e-13 -1.711777e-10 2.911615e-14) (-1.080166e-10 -8.745467e-07 6.407332e-11))
