# Forces      
# CofR        : (0.000000e+00 0.000000e+00 0.000000e+00)
# Time        forces(pressure viscous)	moments(pressure viscous)
0             	((0.000000e+00 0.000000e+00 0.000000e+00) (0.000000e+00 0.000000e+00 0.000000e+00)) ((0.000000e+00 0.000000e+00 0.000000e+00) (0.000000e+00 0.000000e+00 0.000000e+00))
0.012         	((-2.479998e-10 4.377936e-10 1.085554e-07) (3.454295e-12 3.372473e-12 2.286217e-09)) ((-9.732470e-14 4.234046e-09 3.276294e-14) (-1.069021e-14 2.787934e-06 -1.163622e-13))
0.0264        	((4.169328e-10 -4.007274e-10 -4.073796e-08) (2.693075e-12 8.079971e-12 3.976195e-09)) ((-4.470352e-14 2.132850e-09 2.293481e-13) (4.932485e-14 2.553616e-06 -1.455575e-13))
0.04368       	((9.264489e-10 2.573405e-09 3.793152e-08) (3.409846e-12 7.988645e-12 4.332040e-09)) ((2.133052e-14 1.193271e-09 1.337966e-13) (-9.692252e-14 2.313081e-06 -1.860134e-13))
0.064416      	((1.321052e-10 -7.428033e-10 1.013669e-09) (-2.005312e-11 3.756432e-13 3.560533e-09)) ((-1.872889e-14 6.973268e-10 4.221666e-15) (-3.829298e-13 2.071800e-06 -3.332545e-13))
0.0892992     	((1.853765e-09 7.919881e-10 3.681296e-09) (-7.479450e-11 -7.496928e-12 2.886081e-09)) ((-2.183724e-14 5.304851e-10 3.615718e-15) (-5.026015e-13 1.837029e-06 -4.787594e-13))
0.119159      	((7.977370e-10 -1.679166e-10 9.960543e-10) (-8.482980e-11 -1.434626e-11 2.432794e-09)) ((-1.879844e-15 3.924407e-10 5.854661e-15) (-6.467189e-13 1.616147e-06 -6.013255e-13))
0.154991      	((-6.822302e-10 -4.650292e-10 -3.244576e-09) (-7.393933e-11 -2.629887e-11 1.992360e-09)) ((-1.716187e-14 3.185602e-10 3.020147e-14) (-8.947340e-13 1.414351e-06 -5.582481e-13))
0.197989      	((-1.640746e-09 -3.214744e-10 5.202501e-10) (-6.498424e-11 -4.086418e-11 1.628512e-09)) ((-2.612902e-14 2.579376e-10 2.616836e-14) (-1.294438e-12 1.235701e-06 -6.282714e-13))
0.249587      	((-1.023512e-09 -3.966105e-10 -2.594011e-09) (-1.243340e-11 -4.757499e-11 1.398674e-09)) ((-2.847584e-14 2.153407e-10 -6.488417e-15) (-1.418560e-12 1.082047e-06 -6.894924e-13))
0.311504      	((-1.238648e-09 1.394115e-10 4.132226e-10) (1.542833e-11 -4.514783e-11 1.235407e-09)) ((-3.402665e-14 1.823517e-10 -2.381219e-14) (-1.029150e-12 9.527924e-07 -5.042745e-13))
0.385805      	((-9.969242e-10 1.447462e-10 -4.636229e-10) (-1.782222e-11 -4.228946e-11 1.081228e-09)) ((-1.273536e-14 1.597798e-10 -2.797171e-14) (-6.393852e-13 8.451556e-07 -2.637086e-13))
0.474966      	((-6.992764e-10 -8.986022e-11 5.156357e-10) (-3.919179e-11 -3.964707e-11 8.833092e-10)) ((-2.397830e-14 1.442784e-10 -1.968878e-14) (-3.306449e-13 7.550717e-07 -2.072074e-14))
0.581959      	((-9.604047e-10 -3.275766e-10 -6.487496e-11) (3.635980e-12 -4.191333e-11 6.462672e-10)) ((-4.787844e-14 1.296536e-10 -1.485024e-14) (-3.303482e-13 6.786310e-07 -6.281791e-16))
0.710351      	((-7.116430e-10 -5.020491e-10 1.682606e-09) (5.676139e-11 -4.107218e-11 4.557496e-10)) ((-6.148454e-14 1.159193e-10 -1.692941e-14) (-3.533110e-13 6.126879e-07 1.842360e-13))
0.864421      	((3.102731e-10 -7.447308e-10 1.249712e-09) (1.558424e-10 -2.164576e-11 2.575467e-10)) ((-6.890107e-14 1.065191e-10 -1.265546e-15) (7.957553e-14 5.549164e-07 5.973448e-13))
1.049306      	((-1.953210e-10 -3.953172e-10 2.169620e-09) (2.504356e-10 7.161127e-12 7.167223e-11)) ((-4.243629e-14 1.002339e-10 1.215747e-14) (6.049729e-13 5.036741e-07 4.210683e-13))
1.271167      	((-9.035024e-10 -3.779646e-10 1.809514e-09) (2.359698e-10 8.405964e-12 -1.749982e-10)) ((-3.704918e-14 9.418378e-11 1.468411e-14) (1.148993e-12 4.578092e-07 4.590456e-13))
1.5374        	((-9.783487e-10 8.939225e-11 2.205779e-09) (1.710491e-10 6.031822e-12 -3.063612e-10)) ((5.105525e-15 8.720307e-11 3.320453e-14) (2.105129e-12 4.165596e-07 9.395436e-13))
1.85688       	((-1.270301e-09 -2.394749e-10 1.628008e-09) (1.192014e-10 -2.660766e-11 -3.071054e-10)) ((4.229020e-14 7.966614e-11 5.337424e-14) (3.073225e-12 3.795056e-07 2.175299e-12))
2.240256      	((-2.210756e-09 -1.043752e-10 1.442141e-09) (2.349849e-10 -4.523137e-11 -3.426571e-10)) ((4.294650e-14 7.320973e-11 4.982560e-14) (4.835208e-12 3.464269e-07 4.605991e-12))
2.700307      	((-2.239324e-09 1.063535e-10 3.505107e-10) (3.590351e-10 -5.160955e-11 -4.408407e-10)) ((6.554571e-14 6.808298e-11 5.562003e-14) (6.405331e-12 3.171371e-07 7.176806e-12))
3.252369      	((-1.934432e-09 5.301427e-11 -3.819800e-11) (4.190343e-10 -6.522805e-11 -6.346458e-10)) ((5.594335e-14 6.313003e-11 3.607788e-14) (7.012753e-12 2.913768e-07 9.357364e-12))
3.914842      	((-5.192300e-10 7.004636e-11 -5.374819e-10) (5.307345e-10 -6.451316e-11 -6.730425e-10)) ((4.016587e-14 5.820719e-11 2.046639e-14) (7.681450e-12 2.687540e-07 1.071652e-11))
4.709811      	((-1.802903e-10 -7.507672e-11 3.591968e-10) (5.593239e-10 -6.342061e-11 -5.917459e-10)) ((1.290604e-14 5.334971e-11 2.219950e-15) (8.933329e-12 2.487776e-07 1.168728e-11))
5.663773      	((7.638663e-10 1.970677e-12 6.417095e-10) (4.832603e-10 -7.051547e-11 -5.373000e-10)) ((2.318921e-14 4.841968e-11 3.503880e-15) (9.336010e-12 2.309571e-07 1.117320e-11))
6.808528      	((8.793568e-10 -3.767049e-11 3.920632e-10) (3.501760e-10 -8.960160e-11 -4.343765e-10)) ((1.550485e-14 4.379038e-11 6.976836e-15) (8.845698e-12 2.148762e-07 9.106971e-12))
8.182233      	((9.743066e-10 -1.131726e-10 3.138152e-10) (2.345756e-10 -1.362855e-10 -2.279828e-10)) ((2.783859e-14 3.955026e-11 1.124893e-14) (7.598782e-12 2.002339e-07 7.865964e-12))
9.83068       	((7.559992e-10 -2.638418e-10 5.645346e-10) (1.628063e-10 -1.469032e-10 -1.201085e-10)) ((1.606123e-14 3.563670e-11 1.091331e-14) (6.093705e-12 1.868172e-07 6.794882e-12))
11.808816     	((6.521170e-10 -1.667324e-10 6.002249e-10) (6.210909e-11 -1.120703e-10 -8.490597e-11)) ((2.081012e-14 3.216122e-11 -8.921020e-15) (4.759909e-12 1.744589e-07 5.582002e-12))
14.182579     	((-8.369966e-12 -2.063182e-10 5.156917e-10) (1.590337e-11 -1.026636e-10 -6.455498e-11)) ((3.623250e-14 2.901708e-11 -2.878173e-14) (3.211063e-12 1.630531e-07 5.045414e-12))
17.031095     	((4.702942e-12 -1.742584e-10 4.394422e-10) (-9.050017e-11 -9.836561e-11 -6.627942e-11)) ((4.368777e-14 2.623953e-11 -3.205124e-14) (1.931956e-12 1.525503e-07 4.749644e-12))
20.449314     	((-2.058001e-10 -8.690820e-11 1.615646e-10) (-1.963758e-10 -8.118242e-11 -2.096952e-11)) ((6.097154e-14 2.385684e-11 -3.680566e-14) (9.004455e-13 1.429325e-07 4.318817e-12))
24.551176     	((-3.438627e-10 -6.496393e-11 1.045612e-10) (-2.425203e-10 -6.661934e-11 -3.204600e-11)) ((7.310239e-14 2.176087e-11 -3.065699e-14) (-2.268842e-13 1.341797e-07 4.000142e-12))
29.473411     	((-4.895953e-10 -7.128808e-11 -1.670206e-10) (-2.102555e-10 -5.604708e-11 3.072154e-11)) ((8.158581e-14 1.994671e-11 -1.945030e-14) (-1.154161e-12 1.262526e-07 3.912943e-12))
35.380094     	((-2.901037e-10 -3.070146e-11 2.704881e-11) (-1.713809e-10 -2.933207e-11 3.465505e-11)) ((7.756592e-14 1.835934e-11 -1.485476e-14) (-1.296466e-12 1.190904e-07 4.199133e-12))
42.468112     	((-1.837987e-10 -2.825352e-11 1.836967e-10) (-1.440223e-10 -1.824871e-11 -1.164911e-11)) ((6.227052e-14 1.703331e-11 -1.510270e-14) (-1.201172e-12 1.126150e-07 4.551246e-12))
50.973735     	((-3.758122e-12 1.940733e-11 2.327745e-10) (-9.663872e-11 -3.986258e-12 -5.710032e-11)) ((5.034412e-14 1.589967e-11 -1.324345e-14) (-1.424553e-12 1.067498e-07 4.871138e-12))
61.180482     	((1.346842e-10 -3.950711e-11 2.875598e-10) (-9.912697e-11 6.569083e-12 -7.602065e-11)) ((4.596984e-14 1.491641e-11 -1.359460e-14) (-1.199421e-12 1.014217e-07 4.773204e-12))
73.428578     	((2.948245e-10 -1.683488e-11 3.796771e-10) (-1.214773e-10 2.500696e-11 -6.840082e-11)) ((3.725998e-14 1.403400e-11 -1.449918e-14) (-1.039819e-12 9.657297e-08 4.065349e-12))
88.126294     	((2.788314e-10 -2.038813e-11 4.015167e-10) (-9.460782e-11 3.796102e-11 -4.789498e-11)) ((3.768923e-14 1.322723e-11 -1.342516e-14) (-7.215503e-13 9.216744e-08 3.431559e-12))
105.763553    	((1.196611e-10 -1.905937e-11 3.151246e-10) (-1.113134e-10 3.883608e-11 -4.519333e-11)) ((3.929085e-14 1.238771e-11 -7.162890e-15) (-2.239474e-13 8.818001e-08 3.019601e-12))
126.928263    	((-7.832576e-11 -3.841070e-12 2.131540e-10) (-1.209366e-10 3.573753e-11 -3.304616e-11)) ((4.107221e-14 1.162060e-11 -7.533754e-15) (-1.204873e-14 8.459047e-08 2.432475e-12))
152.325916    	((-1.880897e-10 4.481078e-12 1.044110e-10) (-1.512875e-10 2.243462e-11 -5.647821e-11)) ((3.829308e-14 1.097686e-11 -9.210911e-15) (1.747769e-13 8.137526e-08 1.730187e-12))
182.803099    	((-3.319425e-10 -2.556411e-11 5.787225e-12) (-1.612263e-10 1.191150e-11 -1.160358e-10)) ((3.679327e-14 1.045504e-11 -1.084707e-14) (4.233953e-13 7.850742e-08 9.298899e-13))
218.38705     	((-4.006807e-10 -2.864406e-11 -5.199231e-11) (-1.342820e-10 5.954420e-12 -5.955860e-11)) ((3.389427e-14 1.003215e-11 -9.302577e-15) (5.700486e-13 7.598585e-08 3.336110e-14))
259.076617    	((-5.042138e-10 -1.163006e-11 -1.225702e-10) (-1.652921e-10 6.465176e-12 -2.548210e-11)) ((3.006482e-14 9.667870e-12 -5.631168e-15) (5.102875e-13 7.379342e-08 -7.037491e-13))
304.87057     	((-4.772068e-10 -4.934039e-11 -6.820379e-11) (-1.271424e-10 1.332654e-12 2.156592e-11)) ((2.479774e-14 9.346721e-12 -3.108389e-15) (2.994423e-13 7.191122e-08 -1.221641e-12))
355.767548    	((-4.376365e-10 -2.773714e-11 -8.341674e-11) (-8.044726e-11 6.778512e-12 6.484073e-11)) ((2.177440e-14 9.077879e-12 -4.685257e-17) (-5.385338e-14 7.031392e-08 -1.452121e-12))
406.783026    	((-3.955716e-10 -1.148504e-11 -4.932645e-11) (-7.012986e-11 1.491805e-11 7.480929e-11)) ((2.277785e-14 8.865588e-12 1.106335e-15) (-4.681806e-13 6.901026e-08 -1.286408e-12))
457.784439    	((-3.562969e-10 1.331682e-11 -3.405141e-11) (-5.887147e-11 2.427679e-11 7.812024e-11)) ((2.321822e-14 8.679288e-12 2.492370e-15) (-8.855216e-13 6.795928e-08 -1.091145e-12))
508.77056     	((-3.313225e-10 1.833048e-11 -1.899419e-11) (-4.062758e-11 3.320401e-11 5.896331e-11)) ((2.411979e-14 8.528229e-12 4.323014e-15) (-1.227797e-12 6.712938e-08 -9.079021e-13))
559.741598    	((-2.790706e-10 2.822047e-11 9.363165e-12) (-2.392166e-11 3.646132e-11 4.447276e-11)) ((2.480356e-14 8.399776e-12 5.515287e-15) (-1.522550e-12 6.648172e-08 -7.224953e-13))
610.698028    	((-2.346468e-10 4.558336e-11 1.485677e-12) (-1.572022e-11 3.999947e-11 4.851501e-11)) ((2.544378e-14 8.298925e-12 5.779095e-15) (-1.746083e-12 6.598660e-08 -5.566754e-13))
661.640839    	((-1.926851e-10 4.310301e-11 1.294547e-11) (-6.844952e-12 3.949840e-11 5.005344e-11)) ((2.696588e-14 8.220507e-12 5.091901e-15) (-1.936228e-12 6.561665e-08 -3.796032e-13))
712.571306    	((-1.611411e-10 3.453514e-11 2.692849e-11) (2.509225e-11 3.643715e-11 5.031733e-11)) ((2.772898e-14 8.160747e-12 4.949729e-15) (-2.121399e-12 6.535150e-08 -2.371185e-13))
763.490709    	((-1.430578e-10 2.864191e-11 1.822986e-11) (4.490206e-11 3.210741e-11 4.808178e-11)) ((2.850385e-14 8.117185e-12 4.372089e-15) (-2.210559e-12 6.517302e-08 -1.755658e-13))
814.400335    	((-1.249202e-10 2.805116e-11 1.157793e-11) (5.936232e-11 2.791286e-11 4.375650e-11)) ((2.932391e-14 8.085349e-12 3.422174e-15) (-2.278728e-12 6.506666e-08 -1.105292e-13))
865.30155     	((-1.048860e-10 3.166897e-11 1.729277e-11) (5.860768e-11 2.308819e-11 4.152221e-11)) ((3.057355e-14 8.061574e-12 2.159837e-15) (-2.321832e-12 6.501989e-08 -5.261592e-14))
916.193737    	((-1.077335e-10 4.175679e-11 4.133547e-11) (5.051427e-11 2.114854e-11 4.468440e-11)) ((3.135425e-14 8.051659e-12 8.799439e-16) (-2.328442e-12 6.502214e-08 -2.854373e-14))
967.077507    	((-1.079435e-10 4.144652e-11 5.776585e-11) (4.297881e-11 2.105731e-11 4.668440e-11)) ((3.192625e-14 8.049139e-12 -1.806116e-16) (-2.301030e-12 6.506385e-08 -2.491816e-14))
1017.954015   	((-1.128697e-10 4.667666e-11 6.921627e-11) (3.706876e-11 2.419189e-11 4.989371e-11)) ((3.291273e-14 8.052676e-12 -1.083762e-15) (-2.220426e-12 6.513690e-08 -1.238480e-14))
1068.824493   	((-1.111074e-10 4.959785e-11 7.759599e-11) (3.582689e-11 2.766777e-11 5.128466e-11)) ((3.387631e-14 8.059370e-12 -1.439283e-15) (-2.121793e-12 6.523443e-08 -1.061197e-14))
1119.69008    	((-9.913416e-11 5.118543e-11 8.873355e-11) (3.805937e-11 3.040193e-11 5.101538e-11)) ((3.465855e-14 8.070122e-12 -1.862371e-15) (-2.021058e-12 6.535057e-08 -4.035212e-14))
1170.551822   	((-9.107868e-11 4.941824e-11 9.121473e-11) (3.612826e-11 3.273291e-11 4.935351e-11)) ((3.501525e-14 8.085284e-12 -2.146976e-15) (-1.908186e-12 6.548020e-08 -7.904944e-14))
1221.410755   	((-8.969778e-11 4.936218e-11 9.691597e-11) (3.529092e-11 3.491549e-11 4.721134e-11)) ((3.543414e-14 8.103345e-12 -2.208222e-15) (-1.791328e-12 6.561879e-08 -1.338703e-13))
