# Forces      
# CofR        : (0.000000e+00 0.000000e+00 0.000000e+00)
# Time        forces(pressure viscous)	moments(pressure viscous)
0             	((0.000000e+00 0.000000e+00 0.000000e+00) (0.000000e+00 0.000000e+00 0.000000e+00)) ((0.000000e+00 0.000000e+00 0.000000e+00) (0.000000e+00 0.000000e+00 0.000000e+00))
0.012         	((-1.141070e-12 2.846224e-10 5.846992e-13) (-1.420501e-15 7.225858e-12 -2.386075e-14)) ((-7.496992e-17 5.352165e-17 -6.472587e-12) (3.096759e-17 -5.875218e-16 -8.814302e-09))
0.0264        	((-3.618938e-12 4.166563e-11 -2.634210e-15) (-9.946593e-15 1.067153e-11 -4.327709e-14)) ((5.675765e-17 -5.658466e-16 -2.966408e-12) (8.942059e-18 -1.632759e-15 -8.074018e-09))
0.04368       	((-2.658060e-12 1.324946e-10 2.094109e-12) (-1.256088e-14 1.124036e-11 -6.200911e-14)) ((-1.131566e-16 -6.867753e-16 -1.614368e-12) (-2.523894e-18 -2.920415e-15 -7.312731e-09))
0.064416      	((-4.346024e-12 -1.883160e-11 -1.843585e-12) (-1.016498e-14 9.702852e-12 -1.016266e-13)) ((3.671309e-17 -3.626653e-16 -8.658901e-13) (-1.814276e-16 -4.570827e-15 -6.547274e-09))
0.0892992     	((2.319033e-12 5.886322e-11 1.626160e-12) (-7.036502e-15 8.068940e-12 -1.545319e-13)) ((-1.743691e-16 -9.407861e-16 -6.475661e-13) (-5.664237e-16 -6.642435e-15 -5.800065e-09))
0.119159      	((-1.487635e-12 -1.065862e-11 2.540784e-13) (-5.043975e-15 6.561565e-12 -1.826750e-13)) ((7.602217e-18 -6.845997e-16 -4.825771e-13) (-7.513720e-16 -7.755697e-15 -5.094262e-09))
0.154991      	((8.636957e-13 2.898546e-11 -4.996883e-13) (-2.174223e-15 5.926213e-12 -1.887226e-13)) ((-8.033349e-17 -5.152169e-16 -3.932938e-13) (-9.388443e-16 -8.085672e-15 -4.446148e-09))
0.197989      	((-1.955739e-13 8.935867e-12 -7.866110e-14) (6.257535e-15 5.142942e-12 -1.859065e-13)) ((-1.414980e-16 -4.504883e-16 -3.218287e-13) (-1.228120e-15 -8.105201e-15 -3.871516e-09))
0.249587      	((9.002162e-13 2.326167e-11 6.777883e-13) (1.293729e-14 4.539134e-12 -1.909588e-13)) ((-1.094829e-16 -5.013139e-16 -2.648987e-13) (-1.286172e-15 -7.730376e-15 -3.378985e-09))
0.311504      	((-3.855470e-13 1.345039e-11 2.925166e-13) (1.270031e-14 4.111157e-12 -2.100499e-13)) ((-6.588197e-17 -3.098219e-16 -2.152343e-13) (-1.036139e-15 -7.396477e-15 -2.967381e-09))
0.385805      	((-1.553769e-12 1.050174e-11 -7.946871e-14) (6.763080e-15 3.916951e-12 -2.324253e-13)) ((-2.900892e-17 -1.207297e-16 -1.768973e-13) (-3.527140e-16 -7.508261e-15 -2.627808e-09))
0.474966      	((-2.843101e-12 1.061295e-11 3.326908e-13) (-5.668354e-15 3.911542e-12 -2.376627e-13)) ((-1.746567e-18 -7.227254e-17 -1.509323e-13) (-1.051367e-16 -7.487151e-15 -2.346898e-09))
0.581959      	((-2.222345e-12 7.246564e-12 2.868689e-13) (2.278487e-14 3.585747e-12 -1.844123e-13)) ((-2.071561e-17 9.278525e-17 -1.281206e-13) (-2.677237e-16 -5.054828e-15 -2.110776e-09))
0.710351      	((-3.527336e-12 5.458131e-12 -2.081504e-13) (6.251596e-14 3.071665e-12 -1.006281e-13)) ((7.086751e-17 1.747876e-16 -1.062235e-13) (-2.095691e-16 -1.012372e-15 -1.907939e-09))
0.864421      	((-3.285368e-12 9.474589e-12 -4.579466e-13) (8.112825e-14 2.989498e-12 -4.339017e-14)) ((1.211824e-16 3.779765e-16 -9.094469e-14) (2.970332e-16 2.491963e-15 -1.730273e-09))
1.049306      	((-3.511111e-12 1.496246e-11 -3.336723e-13) (1.064125e-13 2.835684e-12 1.897298e-14)) ((1.353223e-16 4.852555e-16 -8.193553e-14) (-5.706640e-16 4.430415e-15 -1.572394e-09))
1.271167      	((-4.519780e-12 1.698092e-11 -4.163714e-14) (1.165904e-13 2.558941e-12 1.035397e-13)) ((1.080199e-16 4.915245e-16 -7.480726e-14) (-2.864593e-15 4.763197e-15 -1.430653e-09))
1.5374        	((-5.087766e-12 1.840274e-11 -1.292040e-13) (2.304092e-13 2.717134e-12 1.809380e-13)) ((1.233314e-16 7.100288e-16 -6.904661e-14) (-6.427262e-15 2.822407e-15 -1.302723e-09))
1.85688       	((-6.081875e-12 2.533406e-11 -7.282476e-13) (4.672515e-13 3.082938e-12 1.639854e-13)) ((1.479417e-16 7.670732e-16 -6.456894e-14) (-1.174499e-14 -3.398946e-15 -1.187311e-09))
2.240256      	((-4.798378e-12 1.746390e-11 -4.070755e-14) (7.744902e-13 2.808739e-12 1.362288e-13)) ((1.599586e-16 8.163164e-16 -6.290411e-14) (-1.996373e-14 -1.290785e-14 -1.083766e-09))
2.700307      	((-4.705436e-12 1.041502e-11 4.833240e-14) (1.220337e-12 1.931186e-12 1.884951e-13)) ((1.260295e-16 8.254178e-16 -6.097442e-14) (-3.151604e-14 -2.424153e-14 -9.916227e-10))
3.252369      	((-3.702576e-12 7.559491e-12 6.147961e-14) (1.756405e-12 1.156002e-12 2.965206e-13)) ((6.842008e-17 7.691325e-16 -5.794079e-14) (-4.357439e-14 -3.229223e-14 -9.102235e-10))
3.914842      	((-2.827299e-12 4.946695e-12 2.943394e-13) (2.322613e-12 4.481927e-13 2.780493e-13)) ((1.252044e-16 6.339675e-16 -5.343832e-14) (-5.144672e-14 -4.149659e-14 -8.385714e-10))
4.709811      	((-4.884602e-13 2.687201e-12 3.368710e-13) (2.806491e-12 -5.273678e-13 1.578521e-13)) ((5.340778e-17 4.653275e-16 -4.817011e-14) (-5.507279e-14 -4.814779e-14 -7.754173e-10))
5.663773      	((6.093784e-13 -1.124839e-12 -2.475710e-14) (3.117897e-12 -1.763973e-12 3.172630e-14)) ((-2.901304e-17 3.186411e-16 -4.344487e-14) (-5.605112e-14 -5.108323e-14 -7.193229e-10))
6.808528      	((8.774111e-13 -9.767871e-13 3.571577e-14) (3.172166e-12 -2.278538e-12 -1.198869e-14)) ((-3.586383e-17 1.732571e-16 -3.907251e-14) (-5.320107e-14 -4.860719e-14 -6.688863e-10))
8.182233      	((1.219045e-12 -2.548925e-12 -1.918776e-13) (2.911266e-12 -2.048233e-12 1.494165e-15)) ((-6.120824e-17 1.080006e-16 -3.524416e-14) (-4.585640e-14 -4.056665e-14 -6.230559e-10))
9.83068       	((1.101017e-12 -9.862153e-13 3.947351e-14) (2.524557e-12 -1.488001e-12 -2.918846e-14)) ((-1.141984e-16 -3.537784e-17 -3.216020e-14) (-3.638581e-14 -3.284540e-14 -5.810946e-10))
11.808816     	((1.466543e-13 1.066984e-12 -1.320375e-13) (2.012703e-12 -7.218553e-13 1.466466e-14)) ((-1.333531e-16 -9.441532e-17 -2.949349e-14) (-2.747613e-14 -2.287968e-14 -5.425056e-10))
14.182579     	((-2.506235e-13 9.550639e-13 -5.300960e-14) (1.494366e-12 -2.683908e-13 -2.161236e-14)) ((-1.372866e-16 -2.024543e-16 -2.739763e-14) (-1.963055e-14 -1.671436e-14 -5.069702e-10))
17.031095     	((-2.696490e-13 6.494466e-13 -2.965787e-14) (1.080185e-12 -5.480136e-14 -7.248312e-14)) ((-1.172667e-16 -2.199678e-16 -2.578185e-14) (-1.335348e-14 -1.202746e-14 -4.743024e-10))
20.449314     	((-4.638864e-13 1.129026e-12 -7.709246e-14) (7.847843e-13 1.291156e-13 -2.979435e-14)) ((-9.067422e-17 -2.314375e-16 -2.448039e-14) (-9.601355e-15 -6.741055e-15 -4.443699e-10))
24.551176     	((-4.183070e-13 1.471374e-12 -9.133939e-14) (6.070843e-13 7.452880e-14 8.886059e-15)) ((-7.176759e-17 -2.130013e-16 -2.330364e-14) (-6.923690e-15 -4.432262e-15 -4.170194e-10))
29.473411     	((-3.728704e-13 1.320093e-12 -4.001029e-14) (4.841103e-13 -9.221960e-14 2.581340e-14)) ((-6.105805e-17 -1.804004e-16 -2.235640e-14) (-5.834605e-15 -3.829710e-15 -3.920688e-10))
35.380094     	((-5.669728e-13 1.361739e-12 -6.157732e-14) (4.165425e-13 -2.816150e-13 1.327592e-14)) ((-6.614927e-17 -1.731429e-16 -2.149654e-14) (-5.691187e-15 -4.722255e-15 -3.692950e-10))
42.468112     	((-4.283549e-13 1.285530e-12 -6.407811e-14) (4.020691e-13 -4.705920e-13 7.782451e-15)) ((-8.074829e-17 -1.554219e-16 -2.081879e-14) (-6.340919e-15 -5.759794e-15 -3.485055e-10))
50.973735     	((-2.924597e-13 1.349422e-12 -4.318357e-14) (4.284926e-13 -6.881931e-13 2.693931e-14)) ((-7.801643e-17 -1.487736e-16 -2.017151e-14) (-7.317584e-15 -6.294178e-15 -3.295445e-10))
61.180482     	((-4.427712e-13 1.206603e-12 -1.895006e-15) (4.565767e-13 -8.757191e-13 5.168904e-14)) ((-6.496086e-17 -1.388693e-16 -1.968731e-14) (-8.674870e-15 -6.536340e-15 -3.122775e-10))
73.428578     	((-1.156634e-13 1.048456e-12 3.281085e-15) (5.178971e-13 -1.047673e-12 5.020835e-14)) ((-5.961145e-17 -1.269100e-16 -1.937615e-14) (-9.997192e-15 -7.553155e-15 -2.965888e-10))
88.126294     	((-2.021788e-13 1.087583e-12 4.234290e-14) (5.642706e-13 -1.189552e-12 5.017665e-14)) ((-5.456690e-17 -1.111327e-16 -1.907241e-14) (-1.086492e-14 -8.636112e-15 -2.823623e-10))
105.763553    	((-7.678355e-14 1.038428e-12 1.228925e-14) (5.958886e-13 -1.256667e-12 4.190899e-14)) ((-4.773670e-17 -9.547097e-17 -1.874188e-14) (-1.139257e-14 -9.240824e-15 -2.694821e-10))
126.928263    	((-2.428472e-14 9.000050e-13 1.959630e-14) (5.811971e-13 -1.232242e-12 2.844564e-14)) ((-4.219262e-17 -8.414189e-17 -1.846256e-14) (-1.114690e-14 -9.293405e-15 -2.578366e-10))
152.325916    	((1.175098e-13 8.637113e-13 4.492805e-15) (5.471355e-13 -1.179425e-12 9.547528e-15)) ((-3.994092e-17 -7.465942e-17 -1.820280e-14) (-1.056455e-14 -9.112702e-15 -2.473065e-10))
182.803099    	((1.297921e-13 9.209933e-13 1.021179e-14) (5.061129e-13 -1.132078e-12 -1.463535e-15)) ((-3.503813e-17 -6.311265e-17 -1.796696e-14) (-1.003029e-14 -8.625660e-15 -2.377662e-10))
219.375719    	((1.515456e-13 1.040680e-12 -1.787683e-14) (4.763089e-13 -1.126502e-12 -8.481943e-15)) ((-3.062415e-17 -6.087684e-17 -1.776240e-14) (-9.731386e-15 -8.423980e-15 -2.291023e-10))
263.262863    	((1.515718e-13 1.115851e-12 -1.382675e-14) (4.829123e-13 -1.172833e-12 -1.410595e-14)) ((-3.130267e-17 -6.052165e-17 -1.756181e-14) (-9.409957e-15 -8.317881e-15 -2.212230e-10))
315.927436    	((1.838340e-13 1.183755e-12 -6.637277e-15) (4.898563e-13 -1.162461e-12 -1.496014e-14)) ((-3.535305e-17 -6.135402e-17 -1.736437e-14) (-9.220481e-15 -8.508339e-15 -2.140541e-10))
379.124923    	((1.543624e-13 1.227835e-12 1.448385e-15) (4.748745e-13 -1.120146e-12 -1.251443e-14)) ((-3.190446e-17 -5.938440e-17 -1.717728e-14) (-9.103581e-15 -8.519883e-15 -2.075375e-10))
454.961908    	((1.530524e-13 1.294595e-12 -1.757127e-14) (4.596701e-13 -1.073222e-12 -8.449526e-15)) ((-2.688105e-17 -5.491644e-17 -1.700187e-14) (-8.852133e-15 -8.325648e-15 -2.016287e-10))
545.966289    	((1.544932e-13 1.301216e-12 -1.437038e-14) (4.449653e-13 -1.065325e-12 -4.876559e-15)) ((-2.125340e-17 -4.621072e-17 -1.683913e-14) (-8.505835e-15 -8.229079e-15 -1.962879e-10))
655.171547    	((9.219146e-14 1.390750e-12 3.931239e-15) (4.067657e-13 -1.060157e-12 -6.558687e-15)) ((-1.851688e-17 -4.104815e-17 -1.668924e-14) (-7.994321e-15 -7.818980e-15 -1.914758e-10))
786.217856    	((5.168289e-14 1.385125e-12 1.287686e-14) (3.723029e-13 -1.053802e-12 -1.228453e-14)) ((-1.746506e-17 -3.761259e-17 -1.654699e-14) (-7.292061e-15 -7.336198e-15 -1.871557e-10))
943.473427    	((6.275552e-14 1.347447e-12 -2.220233e-14) (3.624120e-13 -1.038781e-12 -1.485275e-14)) ((-1.690192e-17 -3.523646e-17 -1.640801e-14) (-6.669910e-15 -6.901539e-15 -1.832947e-10))
1132.180113   	((8.083475e-14 1.316458e-12 -4.062703e-14) (3.646679e-13 -1.015147e-12 -1.605020e-14)) ((-1.823773e-17 -3.492034e-17 -1.627791e-14) (-6.091644e-15 -6.507324e-15 -1.798626e-10))
1358.628135   	((7.925231e-14 1.329685e-12 -3.996152e-14) (3.587954e-13 -9.938969e-13 -1.434406e-14)) ((-1.760370e-17 -3.405160e-17 -1.615716e-14) (-5.551675e-15 -6.103546e-15 -1.768283e-10))
1630.365763   	((8.601974e-14 1.372858e-12 -3.294572e-14) (3.598417e-13 -9.805632e-13 -1.660789e-14)) ((-1.918740e-17 -3.561761e-17 -1.604894e-14) (-5.097458e-15 -5.797427e-15 -1.741596e-10))
1956.450915   	((9.038975e-14 1.390287e-12 -2.225376e-14) (3.590249e-13 -9.664892e-13 -2.027183e-14)) ((-1.819448e-17 -3.732198e-17 -1.594675e-14) (-4.687333e-15 -5.605159e-15 -1.718260e-10))
2347.753098   	((1.003173e-13 1.384863e-12 -1.195553e-14) (3.569377e-13 -9.446900e-13 -2.380044e-14)) ((-1.548104e-17 -3.824122e-17 -1.585427e-14) (-4.322648e-15 -5.391267e-15 -1.697976e-10))
2817.315718   	((8.012103e-14 1.383036e-12 -6.195420e-15) (3.530867e-13 -9.205501e-13 -2.961132e-14)) ((-1.533170e-17 -3.842837e-17 -1.577417e-14) (-4.095272e-15 -5.229995e-15 -1.680460e-10))
3380.790861   	((6.572648e-14 1.403637e-12 -6.793501e-15) (3.468093e-13 -8.925515e-13 -3.404787e-14)) ((-1.555222e-17 -3.769799e-17 -1.570512e-14) (-3.839792e-15 -5.056613e-15 -1.665437e-10))
4056.961033   	((6.327505e-14 1.427542e-12 -7.281286e-15) (3.380653e-13 -8.655467e-13 -3.642407e-14)) ((-1.659305e-17 -3.744645e-17 -1.564518e-14) (-3.607856e-15 -4.860889e-15 -1.652643e-10))
4868.36524    	((7.068706e-14 1.444119e-12 -1.217816e-15) (3.276981e-13 -8.407500e-13 -3.738318e-14)) ((-1.663470e-17 -3.647939e-17 -1.559500e-14) (-3.424677e-15 -4.653286e-15 -1.641823e-10))
5842.050288   	((7.011041e-14 1.465158e-12 1.133288e-14) (3.195398e-13 -8.181886e-13 -3.595071e-14)) ((-1.656221e-17 -3.534279e-17 -1.555307e-14) (-3.237448e-15 -4.477019e-15 -1.632739e-10))
7010.472346   	((5.845822e-14 1.474201e-12 2.368443e-14) (3.117980e-13 -7.978586e-13 -3.395553e-14)) ((-1.622685e-17 -3.449522e-17 -1.551855e-14) (-3.042507e-15 -4.365682e-15 -1.625169e-10))
8412.578815   	((5.766050e-14 1.474197e-12 2.646472e-14) (3.035820e-13 -7.802231e-13 -3.221034e-14)) ((-1.656708e-17 -3.303870e-17 -1.549077e-14) (-2.812724e-15 -4.281374e-15 -1.618905e-10))
10095.106578  	((6.032881e-14 1.469309e-12 3.344177e-14) (2.945180e-13 -7.677420e-13 -3.103339e-14)) ((-1.714048e-17 -3.281052e-17 -1.546849e-14) (-2.615246e-15 -4.155484e-15 -1.613758e-10))
12114.139893  	((6.763871e-14 1.468804e-12 3.950160e-14) (2.852118e-13 -7.596832e-13 -3.043261e-14)) ((-1.708361e-17 -3.280484e-17 -1.545072e-14) (-2.450906e-15 -4.022531e-15 -1.609554e-10))
14536.979872  	((7.433526e-14 1.476360e-12 4.833302e-14) (2.769380e-13 -7.535873e-13 -3.049202e-14)) ((-1.754702e-17 -3.236834e-17 -1.543559e-14) (-2.288819e-15 -3.879471e-15 -1.606141e-10))
17444.387847  	((7.431037e-14 1.481834e-12 6.869524e-14) (2.703379e-13 -7.471411e-13 -3.074596e-14)) ((-1.852802e-17 -3.234870e-17 -1.542279e-14) (-2.155271e-15 -3.668524e-15 -1.603384e-10))
20933.277416  	((7.900021e-14 1.497032e-12 7.973512e-14) (2.641583e-13 -7.399896e-13 -3.037941e-14)) ((-1.902785e-17 -3.309380e-17 -1.541306e-14) (-2.064438e-15 -3.512940e-15 -1.601170e-10))
25119.944899  	((8.514853e-14 1.517320e-12 8.748082e-14) (2.586565e-13 -7.345406e-13 -2.922976e-14)) ((-1.899908e-17 -3.305186e-17 -1.540480e-14) (-1.967369e-15 -3.466861e-15 -1.599398e-10))
30143.945879  	((9.055247e-14 1.542987e-12 9.411219e-14) (2.535272e-13 -7.302484e-13 -2.853364e-14)) ((-1.909532e-17 -3.315071e-17 -1.539826e-14) (-1.891659e-15 -3.435726e-15 -1.597985e-10))
36172.747055  	((9.428687e-14 1.573948e-12 1.002357e-13) (2.485424e-13 -7.270707e-13 -2.803113e-14)) ((-1.930970e-17 -3.341651e-17 -1.539321e-14) (-1.823592e-15 -3.409645e-15 -1.596863e-10))
43407.308466  	((1.025394e-13 1.607860e-12 1.030611e-13) (2.435467e-13 -7.252771e-13 -2.739273e-14)) ((-1.968885e-17 -3.391443e-17 -1.538942e-14) (-1.748985e-15 -3.379053e-15 -1.595973e-10))
52088.782159  	((1.208139e-13 1.628391e-12 1.026738e-13) (2.368752e-13 -7.249844e-13 -2.773833e-14)) ((-2.083806e-17 -3.454462e-17 -1.538645e-14) (-1.696916e-15 -3.408101e-15 -1.595268e-10))
62388.613035  	((1.371252e-13 1.678158e-12 1.191822e-13) (2.310795e-13 -7.221415e-13 -2.803286e-14)) ((-1.989502e-17 -3.371962e-17 -1.538429e-14) (-1.701902e-15 -3.372470e-15 -1.594712e-10))
74306.808202  	((1.700301e-13 1.756155e-12 1.202609e-13) (2.280644e-13 -7.192701e-13 -2.750753e-14)) ((-1.967913e-17 -3.353802e-17 -1.538200e-14) (-1.650662e-15 -3.327119e-15 -1.594276e-10))
87843.373173  	((2.244007e-13 1.864834e-12 1.136963e-13) (2.264087e-13 -7.180913e-13 -2.752314e-14)) ((-1.943449e-17 -3.348762e-17 -1.537959e-14) (-1.620823e-15 -3.306604e-15 -1.593934e-10))
102998.312216 	((3.059872e-13 2.011493e-12 1.006489e-13) (2.258172e-13 -7.174015e-13 -2.789725e-14)) ((-1.871090e-17 -3.347374e-17 -1.537662e-14) (-1.614416e-15 -3.292586e-15 -1.593667e-10))
119182.086403 	((3.915173e-13 2.181310e-12 1.061808e-13) (2.262592e-13 -7.187897e-13 -2.892110e-14)) ((-1.515519e-17 -2.985866e-17 -1.536994e-14) (-1.697748e-15 -3.275786e-15 -1.593458e-10))
135365.886554 	((4.937072e-13 2.384006e-12 7.124510e-14) (2.274091e-13 -7.176577e-13 -2.787879e-14)) ((-1.952749e-17 -3.534694e-17 -1.536542e-14) (-1.589939e-15 -3.248723e-15 -1.593295e-10))
151549.706516 	((6.253376e-13 2.608791e-12 5.193806e-14) (2.273955e-13 -7.169742e-13 -2.867574e-14)) ((-1.753931e-17 -3.349124e-17 -1.535883e-14) (-1.649255e-15 -3.200217e-15 -1.593168e-10))
167733.541557 	((6.659298e-13 2.844373e-12 1.243678e-14) (2.330303e-13 -7.224765e-13 -2.825891e-14)) ((-1.699538e-17 -3.763835e-17 -1.534511e-14) (-1.647165e-15 -3.136339e-15 -1.593072e-10))
183917.388513 	((7.168054e-13 3.058397e-12 -2.116068e-16) (2.345261e-13 -7.238725e-13 -2.929224e-14)) ((-2.483179e-17 -3.364927e-17 -1.533400e-14) (-1.737210e-15 -3.189551e-15 -1.592997e-10))
200101.245935 	((7.329582e-13 3.171483e-12 4.758887e-14) (2.402610e-13 -7.232411e-13 -2.810302e-14)) ((-1.713192e-17 -3.971592e-17 -1.532055e-14) (-1.524906e-15 -3.231944e-15 -1.592936e-10))
216285.113759 	((7.774337e-13 3.284859e-12 -7.728967e-15) (2.416614e-13 -7.269811e-13 -2.404188e-14)) ((-2.470334e-17 -4.385961e-17 -1.528853e-14) (-1.710790e-15 -3.078904e-15 -1.592888e-10))
232468.990057 	((8.059171e-13 3.365955e-12 5.574816e-15) (2.380870e-13 -7.147824e-13 -2.652819e-14)) ((-2.766346e-17 -3.561964e-17 -1.528176e-14) (-1.685708e-15 -3.118926e-15 -1.592849e-10))
248652.874705 	((8.122131e-13 3.459059e-12 1.000598e-14) (2.365378e-13 -7.085370e-13 -2.795284e-14)) ((-2.262560e-17 -4.142793e-17 -1.526491e-14) (-1.660276e-15 -3.162584e-15 -1.592811e-10))
264836.766396 	((8.355996e-13 3.539255e-12 1.990896e-14) (2.297678e-13 -6.981622e-13 -2.766387e-14)) ((-2.638433e-17 -4.887353e-17 -1.525058e-14) (-1.858561e-15 -3.216018e-15 -1.592769e-10))
281020.664306 	((8.858624e-13 3.496646e-12 5.648113e-14) (2.289198e-13 -6.945946e-13 -2.456797e-14)) ((-2.863422e-17 -5.815202e-17 -1.523676e-14) (-1.715308e-15 -3.217990e-15 -1.592724e-10))
297204.568685 	((9.127092e-13 3.300565e-12 3.846282e-14) (2.211949e-13 -6.901664e-13 -2.852350e-14)) ((-2.902763e-17 -5.105003e-17 -1.522950e-14) (-1.664911e-15 -3.189901e-15 -1.592680e-10))
313388.478642 	((9.242587e-13 3.020748e-12 -2.425073e-14) (2.155155e-13 -6.901051e-13 -3.020979e-14)) ((-2.578884e-17 -4.476879e-17 -1.522012e-14) (-1.813112e-15 -3.125214e-15 -1.592633e-10))
329572.392943 	((9.397168e-13 2.747662e-12 -7.796096e-14) (2.088799e-13 -6.909615e-13 -3.258255e-14)) ((-2.145896e-17 -4.312535e-17 -1.520322e-14) (-1.897661e-15 -3.119865e-15 -1.592589e-10))
345756.310978 	((9.328688e-13 2.534866e-12 -1.284291e-13) (2.039558e-13 -6.955764e-13 -3.458867e-14)) ((-2.152755e-17 -4.261253e-17 -1.518653e-14) (-1.913314e-15 -3.160801e-15 -1.592548e-10))
361940.232522 	((9.329918e-13 2.351636e-12 -1.709296e-13) (2.010906e-13 -6.993273e-13 -3.640446e-14)) ((-2.202205e-17 -4.287999e-17 -1.517430e-14) (-1.888701e-15 -3.199628e-15 -1.592509e-10))
378124.157048 	((9.246783e-13 2.197216e-12 -2.093892e-13) (1.997621e-13 -7.016732e-13 -3.707767e-14)) ((-2.243870e-17 -4.308661e-17 -1.516612e-14) (-1.835338e-15 -3.189967e-15 -1.592474e-10))
