# Forces      
# CofR        : (0.000000e+00 0.000000e+00 0.000000e+00)
# Time        forces(pressure viscous)	moments(pressure viscous)
0             	((0.000000e+00 0.000000e+00 0.000000e+00) (-5.021793e-13 -3.987704e-13 7.981996e-03)) ((0.000000e+00 0.000000e+00 0.000000e+00) (1.728283e-14 2.683863e-09 -1.446897e-14))
0.012         	((1.335064e-05 1.148646e-05 2.344398e+00) (-2.567183e-08 -3.441542e-08 9.839773e-03)) ((-2.179024e-12 6.333210e-07 -2.026192e-11) (-1.610265e-10 1.031241e-08 1.568487e-12))
0.0264        	((-8.208329e-05 -8.341954e-05 -4.915133e-01) (-2.563845e-07 -1.050589e-07 9.798510e-03)) ((1.020805e-08 -1.061428e-07 2.967211e-13) (-4.206599e-09 2.458834e-08 2.888134e-11))
0.04368       	((7.756112e-05 5.981608e-05 -2.887398e-01) (-2.134928e-07 -8.664903e-08 8.353823e-03)) ((-8.036827e-09 -4.622085e-08 -2.492008e-11) (-3.718317e-09 2.416190e-08 2.997633e-11))
0.064416      	((-2.202381e-05 4.974393e-06 -2.060382e-04) (-1.567046e-07 6.122497e-09 7.371076e-03)) ((1.553119e-10 2.027629e-08 3.738544e-12) (-1.684083e-10 1.965912e-08 -5.794652e-11))
0.0892992     	((-3.827196e-06 -1.465400e-05 -2.038618e-03) (1.342312e-07 2.416266e-08 6.778091e-03)) ((6.183118e-10 1.997473e-08 4.341893e-11) (6.140215e-10 2.137188e-08 -1.209759e-10))
0.119159      	((-1.106511e-05 -6.269659e-06 -3.251975e-04) (1.090716e-06 6.447158e-09 6.285050e-03)) ((1.055803e-10 1.900887e-08 2.400163e-11) (6.395594e-10 2.335219e-08 -2.228328e-10))
0.154991      	((1.971763e-05 -2.983776e-06 2.026255e-03) (1.405677e-06 -1.081487e-08 5.866740e-03)) ((6.848590e-11 1.899164e-08 -3.318492e-11) (1.203076e-09 3.647025e-08 -4.639800e-10))
0.197989      	((-1.838921e-05 -5.221865e-06 2.886940e-03) (4.174896e-07 -4.628457e-08 5.524048e-03)) ((5.430073e-11 2.032171e-08 -7.623839e-11) (1.314743e-09 5.374954e-08 -4.102361e-10))
0.249587      	((-6.354012e-06 -2.801902e-06 3.408985e-03) (-1.518324e-07 -6.530176e-08 5.237440e-03)) ((6.915546e-11 1.983613e-08 -2.836298e-11) (1.449667e-09 6.140262e-08 -2.846128e-10))
0.311504      	((-8.265224e-06 -1.204582e-06 3.744800e-03) (1.654487e-07 -5.957280e-08 4.980163e-03)) ((1.328519e-10 1.785516e-08 -1.431171e-11) (1.851236e-09 6.134509e-08 -2.623334e-10))
0.385805      	((-1.336443e-06 -1.974778e-07 4.081282e-03) (4.930000e-07 -4.045991e-08 4.737631e-03)) ((1.261113e-10 1.766786e-08 -4.023739e-12) (2.606997e-09 5.992934e-08 -2.488279e-10))
0.474966      	((-3.136060e-06 -8.509945e-07 4.491770e-03) (8.015271e-07 -1.008975e-08 4.507440e-03)) ((1.300124e-10 1.705631e-08 -1.079933e-11) (3.837117e-09 5.625819e-08 -1.653172e-10))
0.581959      	((1.219651e-07 -1.288728e-06 5.048892e-03) (1.078086e-06 3.415851e-09 4.293271e-03)) ((9.973260e-11 1.639375e-08 -8.535093e-12) (5.160151e-09 5.123539e-08 -8.889644e-11))
0.709787      	((-1.328833e-06 -2.148000e-06 5.786902e-03) (1.211856e-06 -4.833377e-09 4.100037e-03)) ((8.124350e-11 1.533249e-08 -1.439151e-11) (6.230096e-09 4.670387e-08 -7.611268e-11))
0.858299      	((-1.394253e-06 -2.781239e-06 6.735385e-03) (1.203968e-06 -3.412954e-08 3.932227e-03)) ((8.707663e-11 1.451176e-08 -1.615778e-11) (6.589654e-09 4.524976e-08 -6.445524e-11))
1.02735       	((-2.626532e-06 -3.506351e-06 7.868698e-03) (1.168584e-06 -6.317095e-08 3.789919e-03)) ((7.404219e-11 1.316948e-08 -1.692456e-11) (6.475418e-09 4.618079e-08 -4.104015e-11))
1.216776      	((-3.917774e-06 -4.263429e-06 9.189144e-03) (1.149947e-06 -7.653554e-08 3.673266e-03)) ((6.491506e-11 1.170927e-08 -2.089782e-11) (6.402232e-09 4.737538e-08 -5.916230e-11))
1.418531      	((-5.747324e-06 -4.277309e-06 1.058403e-02) (1.097209e-06 -7.707425e-08 3.582697e-03)) ((-1.372074e-11 1.073466e-08 -2.132196e-11) (5.620428e-09 5.178006e-08 -7.709372e-11))
1.617977      	((-7.312548e-06 -3.550556e-06 1.194379e-02) (9.723685e-07 -3.865232e-08 3.509141e-03)) ((-1.726250e-11 1.040029e-08 -1.489337e-11) (3.208832e-09 6.074705e-08 -7.932176e-11))
1.815334      	((-9.006419e-06 -1.900197e-06 1.315990e-02) (7.508062e-07 1.681703e-08 3.443378e-03)) ((-5.207494e-11 1.079408e-08 -1.375330e-11) (7.536028e-10 7.143280e-08 -6.587922e-11))
2.011409      	((-1.070898e-05 4.797021e-07 1.420157e-02) (3.681398e-07 2.475018e-08 3.385761e-03)) ((-1.055478e-10 1.154918e-08 -1.945588e-11) (1.424841e-09 7.864004e-08 -2.914259e-11))
2.207273      	((-1.383767e-05 1.640239e-06 1.496044e-02) (-8.759936e-08 -4.294351e-08 3.335723e-03)) ((-1.286255e-10 1.238316e-08 -2.065857e-11) (5.627554e-09 8.511562e-08 6.867350e-12))
2.403611      	((-1.650407e-05 2.989713e-06 1.546111e-02) (-5.333173e-07 -1.509967e-07 3.290648e-03)) ((-8.236595e-11 1.295126e-08 -6.569519e-12) (1.199556e-08 9.338292e-08 3.913700e-11))
2.60032       	((-1.861017e-05 4.683940e-06 1.563177e-02) (-8.792987e-07 -2.148505e-07 3.248932e-03)) ((-1.345704e-10 1.326050e-08 -9.758225e-12) (1.731677e-08 1.036726e-07 3.320754e-11))
2.796834      	((-2.109124e-05 7.133654e-06 1.558475e-02) (-1.069684e-06 -2.248668e-07 3.210239e-03)) ((-2.858535e-10 1.365832e-08 8.206272e-12) (2.134825e-08 1.150893e-07 4.868725e-11))
2.992751      	((-2.277512e-05 1.031543e-05 1.542460e-02) (-1.180970e-06 -2.122805e-07 3.175021e-03)) ((-2.864507e-10 1.385554e-08 1.818396e-11) (2.600722e-08 1.210999e-07 -3.220213e-11))
3.188057      	((-2.795078e-05 9.986560e-06 1.521332e-02) (-1.245093e-06 -2.117500e-07 3.144882e-03)) ((-9.340545e-11 1.357764e-08 1.328219e-11) (3.111857e-08 1.248864e-07 -2.058283e-10))
3.382918      	((-3.940804e-05 5.997448e-06 1.496026e-02) (-1.287126e-06 -2.375279e-07 3.119515e-03)) ((2.212428e-10 1.324110e-08 2.637630e-11) (3.455506e-08 1.346711e-07 -3.124734e-10))
3.577444      	((-4.492857e-05 5.537205e-06 1.470984e-02) (-1.240442e-06 -2.369321e-07 3.096082e-03)) ((2.878372e-10 1.301480e-08 4.548528e-11) (3.464278e-08 1.461997e-07 -2.867447e-10))
3.771626      	((-4.851314e-05 1.105391e-05 1.451202e-02) (-1.136699e-06 -1.701625e-07 3.073265e-03)) ((1.870443e-10 1.297333e-08 2.857127e-11) (3.377442e-08 1.548932e-07 -3.109871e-10))
3.965432      	((-5.583508e-05 1.286373e-05 1.433854e-02) (-1.119847e-06 -8.381092e-08 3.051689e-03)) ((1.677727e-10 1.275271e-08 3.570355e-11) (3.357816e-08 1.597850e-07 -3.969635e-10))
4.158874      	((-6.467547e-05 1.410722e-05 1.420170e-02) (-1.171105e-06 -4.968753e-08 3.031522e-03)) ((1.852718e-10 1.259729e-08 4.880808e-11) (3.495272e-08 1.618336e-07 -3.204746e-10))
4.351982      	((-7.264735e-05 1.548809e-05 1.406261e-02) (-1.284980e-06 -2.414168e-08 3.012691e-03)) ((1.743346e-10 1.270132e-08 6.022992e-11) (3.605399e-08 1.610298e-07 -1.630720e-10))
4.544775      	((-8.099037e-05 1.654359e-05 1.395466e-02) (-1.413888e-06 1.160665e-08 2.995785e-03)) ((1.456906e-10 1.297021e-08 6.301232e-11) (3.669806e-08 1.589480e-07 7.794608e-11))
4.737269      	((-8.935582e-05 1.872003e-05 1.387006e-02) (-1.560111e-06 5.310004e-08 2.980813e-03)) ((9.885757e-11 1.330330e-08 3.560921e-11) (3.703699e-08 1.554552e-07 5.186165e-10))
4.929475      	((-9.433886e-05 2.166197e-05 1.377233e-02) (-1.748449e-06 9.843196e-08 2.966945e-03)) ((1.176548e-10 1.371877e-08 4.775253e-11) (3.703785e-08 1.488399e-07 6.237533e-10))
5.121404      	((-1.039130e-04 2.476213e-05 1.367550e-02) (-2.000836e-06 1.525390e-07 2.953690e-03)) ((9.198778e-11 1.393826e-08 4.716431e-11) (3.725286e-08 1.397042e-07 5.505042e-10))
5.313064      	((-1.106282e-04 2.658577e-05 1.358407e-02) (-2.304555e-06 2.263860e-07 2.941068e-03)) ((4.106826e-11 1.396722e-08 2.624291e-11) (3.812174e-08 1.287113e-07 7.469308e-10))
5.504468      	((-1.182585e-04 2.980204e-05 1.352163e-02) (-2.603438e-06 2.960556e-07 2.929280e-03)) ((-3.730747e-11 1.380346e-08 1.941669e-11) (3.946002e-08 1.192858e-07 1.037582e-09))
5.695631      	((-1.254396e-04 3.327655e-05 1.346516e-02) (-2.849571e-06 4.073072e-07 2.918292e-03)) ((-1.006169e-10 1.355606e-08 1.936407e-11) (3.938150e-08 1.138997e-07 1.057864e-09))
5.886587      	((-1.319559e-04 3.587523e-05 1.340277e-02) (-3.096465e-06 5.656108e-07 2.908058e-03)) ((-1.288754e-10 1.332461e-08 1.682784e-11) (3.751779e-08 1.079765e-07 9.289520e-10))
6.077381      	((-1.386673e-04 3.689354e-05 1.333284e-02) (-3.362256e-06 7.013333e-07 2.898570e-03)) ((-9.222575e-11 1.320338e-08 2.626479e-11) (3.570833e-08 9.886471e-08 6.008811e-10))
6.267994      	((-1.486828e-04 3.884991e-05 1.326085e-02) (-3.600377e-06 7.916561e-07 2.889590e-03)) ((-5.678532e-11 1.308651e-08 3.184843e-11) (3.513758e-08 9.155241e-08 1.629838e-10))
6.458441      	((-1.595983e-04 4.158269e-05 1.319033e-02) (-3.820123e-06 8.719200e-07 2.880988e-03)) ((-1.306208e-11 1.293822e-08 3.420817e-11) (3.445046e-08 8.925179e-08 -2.155918e-10))
6.648747      	((-1.708061e-04 4.581101e-05 1.312556e-02) (-4.065560e-06 9.583199e-07 2.872643e-03)) ((-1.084099e-11 1.284989e-08 2.422400e-11) (3.413813e-08 8.994217e-08 -6.113976e-10))
6.838918      	((-1.796935e-04 5.077108e-05 1.307158e-02) (-4.325983e-06 1.041222e-06 2.864454e-03)) ((-6.831709e-11 1.284854e-08 2.084140e-11) (3.517348e-08 9.126980e-08 -9.335795e-10))
7.028958      	((-1.914683e-04 5.621556e-05 1.302503e-02) (-4.601671e-06 1.112734e-06 2.856458e-03)) ((-1.766198e-10 1.286304e-08 3.705513e-11) (3.848192e-08 9.320805e-08 -9.631520e-10))
7.218874      	((-2.065741e-04 6.349400e-05 1.297992e-02) (-4.891118e-06 1.178314e-06 2.848755e-03)) ((-3.075999e-10 1.291058e-08 4.065664e-11) (4.414535e-08 9.726380e-08 -7.957517e-10))
7.408669      	((-2.226758e-04 6.979461e-05 1.293618e-02) (-5.185037e-06 1.256117e-06 2.841438e-03)) ((-4.168258e-10 1.295646e-08 3.962735e-11) (5.094591e-08 1.038772e-07 -4.887562e-10))
7.598345      	((-2.395583e-04 7.704849e-05 1.289585e-02) (-5.499392e-06 1.356539e-06 2.834531e-03)) ((-5.126165e-10 1.301812e-08 5.184934e-11) (5.793343e-08 1.125556e-07 -1.677610e-10))
7.787906      	((-2.592710e-04 8.460425e-05 1.285424e-02) (-5.852591e-06 1.490928e-06 2.827990e-03)) ((-5.630497e-10 1.303296e-08 5.716574e-11) (6.487993e-08 1.226515e-07 4.605483e-12))
7.977358      	((-2.814278e-04 9.286876e-05 1.281381e-02) (-6.262921e-06 1.655091e-06 2.821785e-03)) ((-5.958923e-10 1.294155e-08 5.255167e-11) (7.182429e-08 1.334240e-07 -1.239688e-10))
8.166705      	((-3.043394e-04 1.012509e-04 1.277477e-02) (-6.743993e-06 1.833927e-06 2.815898e-03)) ((-5.963729e-10 1.279116e-08 4.377710e-11) (7.881602e-08 1.442656e-07 -4.229698e-10))
8.355948      	((-3.276850e-04 1.095904e-04 1.273781e-02) (-7.280987e-06 2.022536e-06 2.810296e-03)) ((-6.128915e-10 1.263705e-08 4.823299e-11) (8.608498e-08 1.552314e-07 -5.238547e-10))
8.545086      	((-3.537326e-04 1.177883e-04 1.270243e-02) (-7.878390e-06 2.221274e-06 2.804954e-03)) ((-6.287976e-10 1.249501e-08 4.522026e-11) (9.326790e-08 1.662866e-07 -3.138164e-10))
8.734117      	((-3.827164e-04 1.273403e-04 1.266819e-02) (-8.556695e-06 2.435501e-06 2.799861e-03)) ((-6.656673e-10 1.235648e-08 4.027542e-11) (9.993941e-08 1.769164e-07 7.716190e-11))
8.923044      	((-4.168041e-04 1.377721e-04 1.263220e-02) (-9.351757e-06 2.684004e-06 2.794984e-03)) ((-7.232020e-10 1.215907e-08 3.481012e-11) (1.055875e-07 1.867907e-07 3.318556e-10))
9.111869      	((-4.547251e-04 1.483197e-04 1.259245e-02) (-1.028809e-05 2.961615e-06 2.790270e-03)) ((-7.930602e-10 1.191612e-08 4.345536e-11) (1.105527e-07 1.954279e-07 3.209787e-10))
9.300596      	((-4.964429e-04 1.611028e-04 1.255035e-02) (-1.136840e-05 3.274817e-06 2.785666e-03)) ((-9.113959e-10 1.161386e-08 5.140844e-11) (1.152672e-07 2.033387e-07 3.448472e-10))
9.489228      	((-5.402648e-04 1.743823e-04 1.250870e-02) (-1.259582e-05 3.625500e-06 2.781150e-03)) ((-1.038668e-09 1.129710e-08 5.061047e-11) (1.197051e-07 2.109092e-07 6.885925e-10))
9.677769      	((-5.886820e-04 1.895292e-04 1.246606e-02) (-1.395427e-05 4.028511e-06 2.776703e-03)) ((-1.166457e-09 1.090315e-08 3.853683e-11) (1.233973e-07 2.192822e-07 1.226156e-09))
9.866219      	((-6.404040e-04 2.025936e-04 1.242685e-02) (-1.543571e-05 4.467656e-06 2.772366e-03)) ((-1.233210e-09 1.047979e-08 3.384024e-11) (1.264319e-07 2.288288e-07 1.775643e-09))
10.054584     	((-6.942382e-04 2.197739e-04 1.238548e-02) (-1.703869e-05 4.947629e-06 2.768144e-03)) ((-1.341784e-09 1.006072e-08 3.877670e-11) (1.295840e-07 2.391293e-07 2.270719e-09))
10.242866     	((-7.526117e-04 2.383981e-04 1.234790e-02) (-1.876729e-05 5.482767e-06 2.764041e-03)) ((-1.470235e-09 9.617617e-09 3.612374e-11) (1.329726e-07 2.502561e-07 2.764515e-09))
10.431067     	((-8.156676e-04 2.572989e-04 1.230792e-02) (-2.064160e-05 6.061851e-06 2.760036e-03)) ((-1.593248e-09 9.177897e-09 4.150735e-11) (1.364232e-07 2.625863e-07 3.251306e-09))
10.619192     	((-8.851516e-04 2.766828e-04 1.227450e-02) (-2.267534e-05 6.671596e-06 2.756140e-03)) ((-1.716619e-09 8.713155e-09 4.641115e-11) (1.402867e-07 2.770680e-07 3.763084e-09))
10.807243     	((-9.609726e-04 2.999498e-04 1.224171e-02) (-2.486253e-05 7.327203e-06 2.752363e-03)) ((-1.883572e-09 8.230413e-09 3.717499e-11) (1.447155e-07 2.946016e-07 4.408697e-09))
10.995221     	((-1.045960e-03 3.259593e-04 1.221422e-02) (-2.720620e-05 8.042975e-06 2.748707e-03)) ((-2.085350e-09 7.688362e-09 2.508619e-11) (1.498972e-07 3.161445e-07 5.251922e-09))
11.183131     	((-1.142867e-03 3.562822e-04 1.218835e-02) (-2.973967e-05 8.822086e-06 2.745157e-03)) ((-2.321691e-09 7.091821e-09 7.696189e-12) (1.563453e-07 3.428932e-07 5.925191e-09))
11.370974     	((-1.254815e-03 3.890613e-04 1.216465e-02) (-3.253502e-05 9.659437e-06 2.741703e-03)) ((-2.541116e-09 6.459162e-09 -2.249399e-11) (1.646525e-07 3.748021e-07 6.104160e-09))
11.558756     	((-1.380899e-03 4.253648e-04 1.214505e-02) (-3.566642e-05 1.056408e-05 2.738371e-03)) ((-2.747566e-09 5.838598e-09 -5.463423e-11) (1.750633e-07 4.110427e-07 6.379931e-09))
11.746477     	((-1.523945e-03 4.665874e-04 1.212841e-02) (-3.916673e-05 1.155873e-05 2.735201e-03)) ((-2.942443e-09 5.179926e-09 -9.781991e-11) (1.877941e-07 4.521937e-07 7.066646e-09))
11.934135     	((-1.684576e-03 5.124760e-04 1.211614e-02) (-4.307412e-05 1.266046e-05 2.732240e-03)) ((-3.114253e-09 4.475744e-09 -1.500171e-10) (2.030007e-07 4.983932e-07 7.988779e-09))
12.121733     	((-1.862413e-03 5.664889e-04 1.210667e-02) (-4.742562e-05 1.389782e-05 2.729518e-03)) ((-3.324015e-09 3.710140e-09 -1.904226e-10) (2.207578e-07 5.489620e-07 8.796349e-09))
12.309271     	((-2.059725e-03 6.262374e-04 1.210133e-02) (-5.226230e-05 1.530380e-05 2.727059e-03)) ((-3.503350e-09 2.890326e-09 -2.133842e-10) (2.405463e-07 6.045050e-07 9.582721e-09))
12.496752     	((-2.278139e-03 6.930132e-04 1.209975e-02) (-5.765415e-05 1.690594e-05 2.724870e-03)) ((-3.688763e-09 1.965371e-09 -1.958353e-10) (2.622678e-07 6.657182e-07 1.081213e-08))
12.684178     	((-2.519911e-03 7.670948e-04 1.210253e-02) (-6.367823e-05 1.870978e-05 2.722923e-03)) ((-3.881202e-09 9.150377e-10 -1.857546e-10) (2.874097e-07 7.337808e-07 1.227540e-08))
12.87155      	((-2.784652e-03 8.491430e-04 1.210921e-02) (-7.036872e-05 2.070881e-05 2.721170e-03)) ((-4.117688e-09 -2.548736e-10 -1.729435e-10) (3.164703e-07 8.117089e-07 1.363484e-08))
13.058868     	((-3.073671e-03 9.390020e-04 1.212035e-02) (-7.774918e-05 2.292535e-05 2.719580e-03)) ((-4.372427e-09 -1.522064e-09 -1.822374e-10) (3.485028e-07 9.012119e-07 1.480807e-08))
13.246131     	((-3.391413e-03 1.039020e-03 1.214270e-02) (-8.590967e-05 2.541692e-05 2.718247e-03)) ((-4.644224e-09 -2.919910e-09 -1.998570e-10) (3.808776e-07 1.000056e-06 1.595038e-08))
13.433338     	((-3.739890e-03 1.149637e-03 1.217167e-02) (-9.498644e-05 2.821711e-05 2.717221e-03)) ((-4.925008e-09 -4.382661e-09 -2.256415e-10) (4.137382e-07 1.105633e-06 1.679978e-08))
13.620486     	((-4.124236e-03 1.274613e-03 1.220819e-02) (-1.050577e-04 3.134905e-05 2.716491e-03)) ((-5.299633e-09 -6.022837e-09 -2.482154e-10) (4.485712e-07 1.218438e-06 1.692393e-08))
13.80758      	((-4.547536e-03 1.410184e-03 1.225253e-02) (-1.161354e-04 3.484555e-05 2.716045e-03)) ((-5.765127e-09 -7.889547e-09 -2.850979e-10) (4.861929e-07 1.343143e-06 1.635951e-08))
13.994622     	((-5.012488e-03 1.554659e-03 1.231114e-02) (-1.283096e-04 3.869288e-05 2.715986e-03)) ((-6.348344e-09 -9.954006e-09 -3.160307e-10) (5.284490e-07 1.480047e-06 1.565409e-08))
14.181614     	((-5.521510e-03 1.710687e-03 1.238396e-02) (-1.417253e-04 4.286557e-05 2.716485e-03)) ((-7.049502e-09 -1.216400e-08 -4.218025e-10) (5.771831e-07 1.626330e-06 1.555310e-08))
14.368527     	((-6.072871e-03 1.878075e-03 1.247398e-02) (-1.564922e-04 4.737605e-05 2.717631e-03)) ((-7.715013e-09 -1.444657e-08 -5.869786e-10) (6.326057e-07 1.782928e-06 1.606985e-08))
14.555303     	((-6.668862e-03 2.060595e-03 1.258840e-02) (-1.726664e-04 5.227102e-05 2.719558e-03)) ((-8.418807e-09 -1.662600e-08 -7.261835e-10) (6.929514e-07 1.951720e-06 1.626809e-08))
14.741927     	((-7.310204e-03 2.261884e-03 1.272988e-02) (-1.903220e-04 5.763484e-05 2.722460e-03)) ((-9.204761e-09 -1.886957e-08 -8.604568e-10) (7.567792e-07 2.134855e-06 1.571833e-08))
14.928376     	((-8.000345e-03 2.481497e-03 1.291300e-02) (-2.095647e-04 6.353906e-05 2.726527e-03)) ((-1.003919e-08 -2.109732e-08 -9.290710e-10) (8.238114e-07 2.336267e-06 1.491214e-08))
15.114629     	((-8.738213e-03 2.719902e-03 1.313672e-02) (-2.305114e-04 7.004604e-05 2.731983e-03)) ((-1.083913e-08 -2.332669e-08 -8.987059e-10) (8.939230e-07 2.555549e-06 1.411017e-08))
15.300664     	((-9.526917e-03 2.977929e-03 1.341369e-02) (-2.533342e-04 7.722513e-05 2.739133e-03)) ((-1.152674e-08 -2.553968e-08 -8.733170e-10) (9.654761e-07 2.780452e-06 1.387155e-08))
15.486459     	((-1.037777e-02 3.262080e-03 1.374020e-02) (-2.781915e-04 8.513407e-05 2.748313e-03)) ((-1.227137e-08 -2.765730e-08 -9.375110e-10) (1.038420e-06 3.005911e-06 1.322599e-08))
15.671981     	((-1.129112e-02 3.566797e-03 1.411529e-02) (-3.051502e-04 9.378047e-05 2.759624e-03)) ((-1.305439e-08 -2.951760e-08 -1.049356e-09) (1.117091e-06 3.237267e-06 1.239606e-08))
15.857188     	((-1.224420e-02 3.886644e-03 1.454899e-02) (-3.340673e-04 1.031958e-04 2.773471e-03)) ((-1.352926e-08 -3.053411e-08 -1.221015e-09) (1.198982e-06 3.476014e-06 1.408324e-08))
16.042071     	((-1.321923e-02 4.221899e-03 1.505890e-02) (-3.647708e-04 1.135116e-04 2.790290e-03)) ((-1.384982e-08 -3.045215e-08 -1.427330e-09) (1.276971e-06 3.716866e-06 1.792520e-08))
16.226671     	((-1.421048e-02 4.562526e-03 1.563171e-02) (-3.972400e-04 1.246516e-04 2.810103e-03)) ((-1.389321e-08 -2.922803e-08 -1.811867e-09) (1.350870e-06 3.958246e-06 2.243994e-08))
16.411034     	((-1.520020e-02 4.906587e-03 1.626564e-02) (-4.313372e-04 1.363821e-04 2.832782e-03)) ((-1.365905e-08 -2.650495e-08 -2.498745e-09) (1.421899e-06 4.193784e-06 2.968779e-08))
16.595193     	((-1.615265e-02 5.238830e-03 1.697732e-02) (-4.666489e-04 1.485706e-04 2.858624e-03)) ((-1.299587e-08 -2.206919e-08 -3.431679e-09) (1.485281e-06 4.407330e-06 4.077274e-08))
16.779124     	((-1.704309e-02 5.554336e-03 1.775545e-02) (-5.027047e-04 1.610932e-04 2.888008e-03)) ((-1.200795e-08 -1.632338e-08 -4.354632e-09) (1.538091e-06 4.586358e-06 5.405113e-08))
16.96278      	((-1.782908e-02 5.832776e-03 1.857042e-02) (-5.388642e-04 1.736397e-04 2.920961e-03)) ((-1.072764e-08 -9.020537e-09 -5.342180e-09) (1.577381e-06 4.721388e-06 7.043091e-08))
17.146177     	((-1.847357e-02 6.057267e-03 1.939359e-02) (-5.745044e-04 1.859633e-04 2.957210e-03)) ((-9.089703e-09 -2.486649e-10 -6.425818e-09) (1.591501e-06 4.788231e-06 9.084162e-08))
17.329421     	((-1.893795e-02 6.211297e-03 2.018284e-02) (-6.086767e-04 1.976006e-04 2.996022e-03)) ((-7.173492e-09 9.494993e-09 -7.829472e-09) (1.582546e-06 4.776560e-06 1.143393e-07))
17.512609     	((-1.918314e-02 6.289419e-03 2.090397e-02) (-6.402301e-04 2.079903e-04 3.035885e-03)) ((-4.728934e-09 1.970355e-08 -9.361449e-09) (1.564460e-06 4.696500e-06 1.376860e-07))
17.695856     	((-1.915858e-02 6.256490e-03 2.149613e-02) (-6.677194e-04 2.164479e-04 3.074711e-03)) ((-1.490681e-09 2.983492e-08 -1.108745e-08) (1.547145e-06 4.563562e-06 1.623079e-07))
17.879311     	((-1.881337e-02 6.108584e-03 2.192034e-02) (-6.893104e-04 2.222681e-04 3.110605e-03)) ((2.088816e-09 4.016867e-08 -1.295379e-08) (1.526547e-06 4.385257e-06 1.918035e-07))
18.063134     	((-1.808833e-02 5.829317e-03 2.209920e-02) (-7.028537e-04 2.249187e-04 3.141978e-03)) ((6.354118e-09 5.067431e-08 -1.487144e-08) (1.492199e-06 4.166622e-06 2.313662e-07))
