# Forces      
# CofR        : (0.000000e+00 0.000000e+00 0.000000e+00)
# Time        forces(pressure viscous)	moments(pressure viscous)
0             	((0.000000e+00 0.000000e+00 0.000000e+00) (0.000000e+00 0.000000e+00 0.000000e+00)) ((0.000000e+00 0.000000e+00 0.000000e+00) (0.000000e+00 0.000000e+00 0.000000e+00))
0.012         	((3.828852e-10 -4.503354e-10 8.892354e-10) (1.825638e-12 -8.776623e-13 -5.930300e-12)) ((-4.011422e-09 3.827402e-13 7.747544e-15) (-2.787920e-06 -3.130175e-13 1.311021e-13))
0.0264        	((-4.334484e-10 -7.571596e-10 1.612513e-09) (1.599644e-11 6.137881e-12 -5.141494e-12)) ((-1.991663e-09 3.003766e-13 -7.741394e-14) (-2.553649e-06 -5.417073e-13 1.508421e-13))
0.04368       	((1.780189e-09 1.157768e-09 1.843671e-09) (2.342769e-11 1.755508e-11 -1.577291e-12)) ((-1.115708e-09 2.477840e-13 -8.523097e-14) (-2.313152e-06 -3.588308e-13 -1.629375e-13))
0.064416      	((-4.813930e-10 -1.135970e-11 4.078288e-10) (1.585041e-11 2.561734e-11 1.779121e-12)) ((-6.416332e-10 1.683471e-13 3.385787e-14) (-2.071892e-06 1.478301e-13 -5.438510e-13))
0.0892992     	((3.594180e-10 4.390719e-10 2.853456e-10) (8.021377e-12 3.086787e-11 5.825531e-12)) ((-4.932747e-10 1.735671e-13 -2.708559e-14) (-1.837121e-06 5.374659e-13 -7.056964e-13))
0.119159      	((9.807030e-10 4.006635e-10 1.377002e-09) (9.026212e-12 2.961423e-11 1.116653e-11)) ((-3.636245e-10 1.252016e-13 2.316840e-15) (-1.616236e-06 7.238126e-13 -6.776048e-13))
0.154991      	((6.069061e-10 -8.528908e-10 -6.221149e-10) (-1.221165e-11 2.410205e-11 1.448451e-11)) ((-2.953920e-10 7.943357e-14 2.534982e-14) (-1.414433e-06 9.143709e-13 -6.152266e-13))
0.197989      	((1.863286e-10 -2.111495e-10 3.227224e-10) (-5.169162e-11 2.017052e-11 1.527444e-11)) ((-2.392745e-10 4.195509e-14 -6.806703e-15) (-1.235778e-06 9.644234e-13 -5.567808e-13))
0.249587      	((8.587190e-10 -2.138641e-10 3.742220e-10) (-8.687887e-11 1.864908e-11 1.565726e-11)) ((-2.004282e-10 3.981076e-14 -2.139056e-16) (-1.082112e-06 8.835628e-13 -4.689313e-13))
0.311504      	((-1.864485e-10 -2.637707e-10 4.617409e-10) (-9.877775e-11 1.858051e-11 1.447920e-11)) ((-1.702843e-10 4.368174e-14 -1.249529e-14) (-9.528390e-07 8.420864e-13 -4.781326e-13))
0.385805      	((-3.791724e-10 -3.805323e-10 5.295382e-10) (-8.330392e-11 1.768831e-11 1.591033e-11)) ((-1.495321e-10 4.823507e-14 -2.384064e-14) (-8.451823e-07 9.390169e-13 -5.288749e-13))
0.474966      	((-1.601575e-10 -6.981323e-10 5.238384e-10) (-1.069680e-10 1.055219e-11 2.519331e-11)) ((-1.352182e-10 4.943067e-14 -3.941433e-14) (-7.550792e-07 1.282916e-12 -5.121169e-13))
0.581959      	((3.613759e-11 -9.184790e-10 4.396167e-10) (-1.160833e-11 4.557421e-12 3.619223e-11)) ((-1.215535e-10 5.230775e-14 -4.948175e-14) (-6.786244e-07 1.790580e-12 -5.888800e-13))
0.710351      	((-1.035765e-09 -1.274726e-09 7.811243e-10) (1.022302e-10 2.351575e-12 4.163530e-11)) ((-1.082760e-10 4.123816e-14 -4.226349e-14) (-6.126747e-07 2.229558e-12 -8.907469e-13))
0.864421      	((-1.167811e-09 -9.641551e-10 9.052559e-10) (1.391636e-10 1.099413e-11 4.057490e-11)) ((-9.897460e-11 5.518662e-14 -4.366102e-14) (-5.549068e-07 2.043858e-12 -9.478946e-13))
1.049306      	((-7.967790e-10 -8.459828e-10 1.570781e-09) (1.583112e-10 2.221020e-11 3.683577e-11)) ((-9.270214e-11 4.479412e-14 -3.987208e-14) (-5.036729e-07 1.464285e-12 -9.865628e-13))
1.271167      	((-4.737430e-10 -1.179472e-09 1.545898e-09) (9.136320e-11 2.339453e-11 2.667015e-11)) ((-8.679826e-11 1.306241e-14 -2.800539e-14) (-4.578191e-07 9.759824e-13 -1.433730e-12))
1.5374        	((3.680778e-10 -1.464021e-09 1.073649e-09) (1.313781e-11 3.597864e-11 -7.231988e-12)) ((-8.006512e-11 -1.395657e-15 -1.830277e-14) (-4.165754e-07 3.313447e-13 -2.105074e-12))
1.85688       	((-6.831455e-11 -1.544415e-09 6.201437e-10) (-1.641717e-11 8.129768e-11 -7.671461e-11)) ((-7.291625e-11 -1.680286e-14 -2.551019e-15) (-3.795112e-07 -6.975057e-13 -3.277894e-12))
2.240256      	((-2.764955e-10 -1.752610e-09 6.684234e-10) (3.823133e-11 1.742428e-10 -1.416432e-10)) ((-6.709341e-11 -4.900479e-14 2.590014e-14) (-3.464213e-07 -1.844277e-12 -5.075305e-12))
2.700307      	((-9.171715e-11 -1.705372e-09 2.756429e-10) (4.237120e-11 2.791976e-10 -2.302516e-10)) ((-6.246752e-11 -7.235534e-14 4.622218e-14) (-3.171307e-07 -3.455681e-12 -7.265298e-12))
3.252369      	((-2.152879e-10 -1.304570e-09 1.146023e-10) (6.237978e-11 3.768583e-10 -3.343361e-10)) ((-5.800415e-11 -6.463928e-14 4.102747e-14) (-2.913705e-07 -4.672216e-12 -9.597493e-12))
3.914842      	((-3.462654e-10 -5.926716e-10 2.246237e-10) (3.852233e-11 4.638072e-10 -4.271437e-10)) ((-5.354449e-11 -4.883392e-14 4.355644e-14) (-2.687461e-07 -5.348611e-12 -1.152104e-11))
4.709811      	((-3.288576e-10 -3.287712e-11 3.427189e-10) (1.333827e-11 5.069004e-10 -4.508249e-10)) ((-4.923669e-11 -4.621487e-14 4.585533e-14) (-2.487725e-07 -6.278780e-12 -1.217396e-11))
5.663773      	((-2.394422e-10 5.618588e-10 2.642767e-10) (-1.443004e-11 5.011083e-10 -4.172789e-10)) ((-4.479526e-11 -4.157451e-14 3.345818e-14) (-2.309516e-07 -6.493926e-12 -1.144193e-11))
6.808528      	((-5.254173e-10 7.926125e-10 8.347309e-11) (-6.605363e-11 4.378978e-10 -3.283518e-10)) ((-4.054804e-11 -3.636405e-14 2.740786e-14) (-2.148681e-07 -6.018435e-12 -9.667550e-12))
8.182233      	((-2.476988e-10 6.597809e-10 -4.578946e-11) (-1.318441e-10 3.310567e-10 -2.237238e-10)) ((-3.669240e-11 -2.705229e-14 3.279227e-14) (-2.002259e-07 -5.178189e-12 -7.797313e-12))
9.83068       	((-5.250547e-10 6.577014e-10 2.132095e-10) (-1.516479e-10 2.482022e-10 -1.229803e-10)) ((-3.305084e-11 -1.673448e-14 2.741987e-14) (-1.868104e-07 -4.083332e-12 -6.118007e-12))
11.808816     	((-1.739171e-10 2.640303e-10 1.082802e-10) (-1.049597e-10 1.983900e-10 -4.042193e-11)) ((-2.982483e-11 -1.326240e-14 4.226572e-14) (-1.744566e-07 -2.743060e-12 -5.475157e-12))
14.182579     	((-3.880124e-10 4.662871e-11 1.209916e-10) (-6.014813e-11 1.607283e-10 -8.534402e-12)) ((-2.693437e-11 -1.703278e-14 5.780808e-14) (-1.630522e-07 -1.562508e-12 -4.922844e-12))
17.031095     	((-1.799779e-10 -6.101295e-12 6.372868e-11) (-4.017791e-11 1.283757e-10 -2.702252e-11)) ((-2.438999e-11 -2.517965e-14 7.538723e-14) (-1.525467e-07 -5.878273e-13 -4.063385e-12))
20.449314     	((-1.228534e-10 -6.115262e-11 -2.192586e-11) (-6.151645e-11 1.187488e-10 -6.592788e-12)) ((-2.222685e-11 -3.600675e-14 8.687327e-14) (-1.429277e-07 2.945548e-13 -3.606463e-12))
24.551176     	((-1.099875e-10 -1.144201e-10 -1.369008e-10) (-9.205983e-11 8.528713e-11 2.519590e-11)) ((-2.034285e-11 -4.089135e-14 9.050680e-14) (-1.341740e-07 1.111516e-12 -3.475917e-12))
29.473411     	((-1.811293e-10 -1.175393e-10 -2.996412e-10) (-2.416513e-11 5.759005e-11 4.075909e-11)) ((-1.867292e-11 -4.389394e-14 8.461013e-14) (-1.262471e-07 1.481789e-12 -3.495424e-12))
35.380094     	((-1.090860e-10 -1.025973e-10 -2.845080e-10) (-4.174195e-11 3.308474e-11 4.653834e-11)) ((-1.721912e-11 -4.200376e-14 8.003760e-14) (-1.190863e-07 1.489434e-12 -3.634394e-12))
42.468112     	((-1.120841e-10 -1.038020e-10 -1.440042e-10) (-4.459378e-11 -1.678935e-13 3.669830e-11)) ((-1.600037e-11 -3.648681e-14 6.969884e-14) (-1.126136e-07 1.680120e-12 -4.043089e-12))
50.973735     	((-6.117163e-11 -9.168087e-11 -1.533740e-10) (-4.317769e-11 -2.051085e-11 4.481191e-11)) ((-1.497050e-11 -3.244479e-14 6.261023e-14) (-1.067503e-07 1.713389e-12 -4.450099e-12))
61.180482     	((-8.467146e-11 2.798464e-11 2.397375e-11) (-3.905887e-11 -3.138994e-11 7.124297e-11)) ((-1.407199e-11 -3.406686e-14 5.865627e-14) (-1.014228e-07 1.370780e-12 -4.374685e-12))
73.428578     	((-3.848583e-11 1.686057e-10 6.617956e-11) (-3.799819e-11 -4.939980e-11 8.899119e-11)) ((-1.327018e-11 -2.894954e-14 5.267695e-14) (-9.657243e-08 1.197114e-12 -4.017566e-12))
88.126294     	((-3.338152e-11 2.198519e-10 1.520323e-10) (-3.808230e-11 -5.330069e-11 1.105123e-10)) ((-1.252485e-11 -3.038343e-14 4.984784e-14) (-9.216607e-08 1.007913e-12 -3.565014e-12))
105.763553    	((-6.954174e-12 1.055706e-10 9.396551e-11) (-4.304541e-11 -6.843680e-11 1.089288e-10)) ((-1.173679e-11 -2.903701e-14 4.438094e-14) (-8.817864e-08 5.885956e-13 -2.958278e-12))
126.928263    	((3.282610e-11 -3.219513e-11 4.980510e-11) (-5.804943e-11 -1.022923e-10 8.702181e-11)) ((-1.104106e-11 -3.182592e-14 4.293441e-14) (-8.458869e-08 2.755630e-13 -2.189211e-12))
152.325916    	((6.362072e-11 -1.324149e-10 -1.539951e-11) (-7.844859e-11 -1.203586e-10 5.649169e-11)) ((-1.045785e-11 -3.174658e-14 3.963137e-14) (-8.137337e-08 -4.860969e-14 -1.286654e-12))
182.803099    	((7.607149e-11 -2.893898e-10 -1.024906e-10) (-4.727938e-11 -1.298348e-10 3.769198e-11)) ((-9.987655e-12 -3.114024e-14 3.805989e-14) (-7.850527e-08 -3.076837e-13 -2.659139e-13))
218.387056    	((2.857852e-11 -3.901237e-10 -1.622259e-10) (-3.720684e-11 -1.399877e-10 2.058218e-11)) ((-9.609695e-12 -2.808587e-14 3.397312e-14) (-7.598279e-08 -3.743586e-13 6.492835e-13))
259.076632    	((7.567519e-12 -4.703587e-10 -2.204287e-10) (-1.728610e-11 -1.472688e-10 1.831292e-11)) ((-9.288578e-12 -2.304378e-14 2.962046e-14) (-7.378980e-08 -2.097366e-13 1.387945e-12))
304.870598    	((-3.014020e-11 -4.622111e-10 -2.020094e-10) (-4.505783e-12 -1.418736e-10 4.043890e-11)) ((-9.014819e-12 -1.792038e-14 2.394459e-14) (-7.190740e-08 -5.830820e-14 2.058566e-12))
355.767598    	((-9.456066e-13 -4.495620e-10 -2.099771e-10) (1.754651e-11 -1.410454e-10 5.154683e-11)) ((-8.780268e-12 -1.370440e-14 2.063815e-14) (-7.030966e-08 2.081796e-13 2.311925e-12))
406.78312     	((3.447740e-11 -4.230786e-10 -1.834362e-10) (4.118367e-11 -1.329591e-10 7.170350e-11)) ((-8.591498e-12 -1.123958e-14 1.841393e-14) (-6.900645e-08 6.766846e-13 2.077766e-12))
457.784542    	((3.921591e-11 -3.711788e-10 -1.547490e-10) (5.419059e-11 -1.297222e-10 8.818714e-11)) ((-8.430499e-12 -1.027038e-14 1.716203e-14) (-6.795567e-08 1.051577e-12 1.812823e-12))
508.770631    	((2.952131e-11 -3.166520e-10 -1.393856e-10) (6.404066e-11 -1.213170e-10 1.018994e-10)) ((-8.305124e-12 -1.010189e-14 1.636917e-14) (-6.712587e-08 1.319079e-12 1.518187e-12))
559.741644    	((2.413794e-11 -2.588235e-10 -1.209849e-10) (6.678482e-11 -1.163687e-10 1.097703e-10)) ((-8.200573e-12 -1.057389e-14 1.507309e-14) (-6.647800e-08 1.498825e-12 1.244586e-12))
610.698004    	((3.439795e-11 -2.289529e-10 -1.240606e-10) (7.384744e-11 -1.064394e-10 1.187979e-10)) ((-8.117378e-12 -1.133553e-14 1.440290e-14) (-6.598278e-08 1.664286e-12 9.854251e-13))
661.640751    	((3.530189e-11 -1.881462e-10 -1.147722e-10) (7.520315e-11 -8.862965e-11 1.315765e-10)) ((-8.055735e-12 -1.271984e-14 1.423394e-14) (-6.561305e-08 1.811518e-12 7.464920e-13))
712.57115     	((5.575439e-12 -1.568355e-10 -1.132030e-10) (7.223851e-11 -7.622519e-11 1.382568e-10)) ((-8.009573e-12 -1.345663e-14 1.426282e-14) (-6.534831e-08 1.998494e-12 5.361598e-13))
763.49048     	((-4.911890e-12 -1.370631e-10 -1.210623e-10) (6.775868e-11 -6.931554e-11 1.410237e-10)) ((-7.978620e-12 -1.413792e-14 1.433640e-14) (-6.517021e-08 2.128924e-12 4.413130e-13))
814.400021    	((-3.866881e-12 -1.274474e-10 -1.085911e-10) (5.987393e-11 -6.453421e-11 1.423549e-10)) ((-7.956998e-12 -1.507684e-14 1.477373e-14) (-6.506407e-08 2.247021e-12 3.649769e-13))
865.301172    	((7.805310e-13 -1.090834e-10 -1.018999e-10) (5.432706e-11 -6.071801e-11 1.452406e-10)) ((-7.940738e-12 -1.634062e-14 1.546006e-14) (-6.501728e-08 2.346430e-12 2.772268e-13))
916.193354    	((1.920503e-11 -9.571179e-11 -8.187849e-11) (5.286640e-11 -6.296146e-11 1.475254e-10)) ((-7.934565e-12 -1.722755e-14 1.620949e-14) (-6.501943e-08 2.383133e-12 2.022508e-13))
967.077113    	((3.174698e-11 -8.202828e-11 -6.925041e-11) (5.459431e-11 -6.416774e-11 1.513179e-10)) ((-7.933443e-12 -1.751891e-14 1.708214e-14) (-6.506116e-08 2.333892e-12 1.841315e-13))
1017.953601   	((5.441636e-11 -7.317572e-11 -5.714804e-11) (5.716814e-11 -6.457423e-11 1.574187e-10)) ((-7.938345e-12 -1.823940e-14 1.835354e-14) (-6.513413e-08 2.227190e-12 1.666073e-13))
1068.824047   	((6.626909e-11 -6.742151e-11 -4.572016e-11) (5.817655e-11 -6.558562e-11 1.628606e-10)) ((-7.947589e-12 -1.879358e-14 1.928588e-14) (-6.523166e-08 2.129121e-12 1.089695e-13))
1119.689602   	((7.823030e-11 -5.723119e-11 -3.646226e-11) (5.882998e-11 -6.568269e-11 1.677817e-10)) ((-7.959496e-12 -1.908668e-14 1.989995e-14) (-6.534785e-08 1.993013e-12 9.965373e-14))
1170.551348   	((8.717944e-11 -4.674252e-11 -3.691626e-11) (5.799663e-11 -6.420359e-11 1.684874e-10)) ((-7.974580e-12 -1.918782e-14 2.017948e-14) (-6.547752e-08 1.862986e-12 1.276966e-13))
1221.410281   	((9.386622e-11 -3.814317e-11 -3.523997e-11) (5.816090e-11 -6.032747e-11 1.698309e-10)) ((-7.990613e-12 -1.931666e-14 2.043796e-14) (-6.561628e-08 1.745739e-12 2.011646e-13))
