# Forces      
# CofR        : (0.000000e+00 0.000000e+00 0.000000e+00)
# Time        forces(pressure viscous)	moments(pressure viscous)
0             	((0.000000e+00 0.000000e+00 0.000000e+00) (5.036889e-05 -7.153176e-15 3.624792e-15)) ((0.000000e+00 0.000000e+00 0.000000e+00) (-9.965211e-17 -7.362273e-16 1.069100e-15))
0.012         	((1.464844e-02 -8.642352e-09 -6.553747e-09) (5.780239e-05 -5.194796e-11 -3.336749e-11)) ((-4.454501e-14 -6.171763e-12 -2.093806e-12) (6.744325e-15 4.781715e-13 8.273765e-13))
0.0264        	((-1.018695e-03 -8.582852e-08 -3.006324e-07) (5.897240e-05 -1.454687e-10 -2.654351e-10)) ((3.237237e-12 1.304334e-11 3.192727e-12) (7.214704e-15 1.340428e-12 1.372669e-12))
0.04368       	((-3.061726e-03 -1.662270e-09 1.833956e-07) (5.240309e-05 -1.971035e-10 -2.387857e-10)) ((-1.882366e-12 6.440123e-12 1.083218e-11) (1.498875e-13 3.464994e-12 7.312067e-13))
0.064416      	((-2.910749e-05 8.312602e-09 -7.388993e-08) (4.641316e-05 8.702242e-10 8.838788e-10)) ((-3.918752e-14 -5.859886e-12 -3.803197e-12) (3.398210e-13 -1.441769e-12 6.937355e-12))
0.0892992     	((3.960090e-05 -2.290737e-08 6.165597e-08) (4.284861e-05 1.383379e-09 1.484917e-09)) ((2.087277e-12 -1.248243e-12 -2.279925e-12) (-4.060570e-13 -1.035059e-12 8.844122e-12))
0.119159      	((-4.611568e-05 4.000656e-08 2.463438e-08) (3.956608e-05 1.047974e-09 1.322528e-09)) ((-1.443864e-12 -3.215879e-12 -8.600307e-13) (-6.648954e-13 1.033762e-11 2.010975e-13))
0.154991      	((-2.472197e-05 -7.705002e-09 3.252485e-09) (3.608826e-05 7.907895e-10 1.187619e-09)) ((2.130865e-13 -1.699892e-12 7.058431e-13) (-7.844639e-13 1.649861e-11 -3.552348e-12))
0.197989      	((-5.980769e-06 2.914821e-09 2.635558e-09) (3.258235e-05 3.191924e-10 8.673893e-10)) ((-3.210649e-13 -2.792515e-12 6.204057e-13) (-1.776685e-12 1.144684e-11 1.151953e-12))
0.249587      	((8.300126e-07 5.131329e-09 4.181503e-09) (2.914696e-05 -2.571048e-12 5.767857e-10)) ((-4.422036e-13 -1.561148e-12 1.300378e-13) (-2.370583e-12 4.873857e-12 5.936350e-12))
0.311504      	((3.944588e-06 1.796328e-09 1.713418e-09) (2.588683e-05 -1.632882e-10 3.867948e-10)) ((-1.127536e-13 -1.264898e-12 1.176267e-13) (-1.674739e-12 -9.811171e-14 8.261184e-12))
0.385805      	((5.435301e-06 -8.916437e-11 4.611254e-10) (2.288575e-05 -2.460585e-10 2.691751e-10)) ((-1.770628e-14 -9.012990e-13 1.126870e-13) (-6.672375e-13 -5.494137e-12 9.363963e-12))
0.474966      	((6.160339e-06 -3.550149e-10 1.042882e-10) (2.019946e-05 -2.777163e-10 1.801164e-10)) ((-8.030663e-15 -6.315530e-13 4.659650e-14) (-2.334907e-13 -8.505678e-12 9.572862e-12))
0.581959      	((6.462185e-06 -3.238677e-10 -2.274561e-11) (1.784577e-05 -3.124686e-10 7.989236e-11)) ((-1.254307e-14 -4.632557e-13 3.250178e-14) (1.412727e-13 -8.239166e-12 9.753954e-12))
0.710351      	((6.440777e-06 -6.501685e-10 -4.515763e-10) (1.581984e-05 -2.935173e-10 -6.825612e-12)) ((1.515742e-15 -2.857996e-13 5.251861e-15) (2.932506e-13 -6.266446e-12 7.279966e-12))
0.864421      	((6.209629e-06 -5.545240e-10 -4.656774e-10) (1.409586e-05 -2.330274e-10 -6.552114e-11)) ((-1.059379e-15 -1.519109e-13 -1.180521e-15) (3.387644e-13 -4.644440e-12 4.542686e-12))
1.049306      	((5.867371e-06 -4.505564e-10 -4.677086e-10) (1.263247e-05 -1.568944e-10 -6.918081e-11)) ((-3.431915e-15 -7.362272e-14 -3.873807e-15) (4.063928e-13 -2.179829e-12 3.290471e-12))
1.271167      	((5.485407e-06 -3.259931e-10 -4.122591e-10) (1.138620e-05 -1.141371e-10 -4.191944e-11)) ((2.902639e-15 -2.699198e-14 -1.127068e-14) (4.040680e-13 -7.113195e-13 2.775999e-12))
1.5374        	((5.091167e-06 -2.271344e-10 -2.613339e-10) (1.031164e-05 -9.666080e-11 -2.605742e-11)) ((3.718776e-15 2.379083e-15 -4.116672e-15) (3.732249e-13 -3.464583e-13 2.481818e-12))
1.85688       	((4.703511e-06 -9.632038e-11 -1.272354e-10) (9.368272e-06 -7.979528e-11 -2.300144e-11)) ((7.495381e-15 1.734042e-15 -4.703187e-15) (4.350546e-13 1.486849e-13 2.029484e-12))
2.240256      	((4.334778e-06 -7.566483e-11 -5.223657e-11) (8.529798e-06 -6.195816e-11 -2.809264e-11)) ((5.045972e-15 -3.316463e-15 -3.465966e-15) (5.781246e-13 8.651636e-13 1.432928e-12))
2.700307      	((3.990587e-06 3.721536e-11 -2.488500e-11) (7.779345e-06 -5.121552e-11 -3.540736e-11)) ((8.488419e-15 -6.476736e-15 -4.940131e-15) (6.045236e-13 1.635492e-12 6.005654e-13))
3.252369      	((3.671041e-06 1.413715e-11 -4.341575e-11) (7.104497e-06 -4.678978e-11 -3.890024e-11)) ((8.120538e-15 -1.136438e-14 -5.620280e-15) (5.207418e-13 2.220751e-12 -4.512102e-13))
3.914842      	((3.372027e-06 -2.372956e-11 -8.555380e-11) (6.495878e-06 -4.236905e-11 -3.456749e-11)) ((1.225261e-14 -1.510855e-14 -6.967062e-15) (4.613335e-13 2.646785e-12 -1.136789e-12))
4.709811      	((3.095395e-06 -1.314134e-10 -1.860574e-10) (5.947004e-06 -4.119884e-11 -3.462016e-11)) ((1.255628e-14 -1.891834e-14 -5.257750e-15) (5.243773e-13 3.001367e-12 -1.491162e-12))
5.663773      	((2.841430e-06 -2.938159e-10 -3.137107e-10) (5.453120e-06 -4.430176e-11 -3.923566e-11)) ((1.415954e-14 -2.543834e-14 -1.802745e-15) (5.552825e-13 3.105660e-12 -1.622008e-12))
6.808528      	((2.610542e-06 -3.293103e-10 -3.285307e-10) (5.009728e-06 -4.479710e-11 -3.940076e-11)) ((1.038240e-14 -2.714249e-14 5.922152e-16) (4.713468e-13 2.724132e-12 -1.428744e-12))
8.182233      	((2.402343e-06 -3.167555e-10 -3.294257e-10) (4.612035e-06 -3.844780e-11 -4.086345e-11)) ((9.081327e-15 -2.520787e-14 2.672291e-15) (3.957001e-13 2.317460e-12 -1.493283e-12))
9.83068       	((2.214849e-06 -3.666065e-10 -4.036837e-10) (4.254852e-06 -3.076340e-11 -4.112165e-11)) ((9.637009e-15 -2.597786e-14 3.108748e-15) (3.175958e-13 2.703222e-12 -2.103354e-12))
11.808816     	((2.045643e-06 -4.680464e-10 -4.764866e-10) (3.933112e-06 -3.049689e-11 -3.966761e-11)) ((1.184854e-14 -2.626796e-14 3.517939e-15) (2.093766e-13 4.142225e-12 -3.422581e-12))
14.182579     	((1.893639e-06 -5.724853e-10 -5.653466e-10) (3.642422e-06 -4.152253e-11 -4.395207e-11)) ((1.329213e-14 -2.706002e-14 4.256371e-15) (7.288607e-14 6.729414e-12 -6.457466e-12))
17.031095     	((1.758271e-06 -4.624328e-10 -4.774756e-10) (3.379172e-06 -4.794944e-11 -5.098291e-11)) ((1.001791e-14 -2.819758e-14 2.013886e-15) (-3.276045e-14 1.038992e-11 -1.067171e-11))
20.449314     	((1.638397e-06 -4.284479e-10 -4.678042e-10) (3.140522e-06 -5.383686e-11 -5.727513e-11)) ((1.092559e-14 -2.904288e-14 1.373338e-15) (-1.237342e-13 1.400925e-11 -1.483963e-11))
24.551176     	((1.533081e-06 -5.445393e-10 -5.784576e-10) (2.924406e-06 -6.959419e-11 -6.939712e-11)) ((1.244013e-14 -2.817843e-14 -5.234330e-16) (-1.024898e-13 1.688820e-11 -1.818600e-11))
29.473411     	((1.442467e-06 -4.799060e-10 -4.637029e-10) (2.729324e-06 -7.536564e-11 -7.171069e-11)) ((1.389957e-14 -2.617618e-14 -3.338653e-15) (-3.158654e-14 1.911466e-11 -2.050130e-11))
35.380094     	((1.365542e-06 -3.728737e-10 -3.766442e-10) (2.554007e-06 -7.152659e-11 -6.577993e-11)) ((1.272279e-14 -2.437925e-14 -4.318041e-15) (3.565014e-16 2.107271e-11 -2.280454e-11))
42.468112     	((1.301938e-06 -3.577920e-10 -3.625491e-10) (2.397200e-06 -7.697979e-11 -7.088098e-11)) ((1.121873e-14 -2.492069e-14 -4.215312e-15) (9.118345e-14 2.407346e-11 -2.565992e-11))
50.973735     	((1.250721e-06 -2.446941e-10 -2.509018e-10) (2.257633e-06 -8.406421e-11 -8.047498e-11)) ((1.064849e-14 -2.151522e-14 -4.999139e-15) (1.383313e-13 2.818460e-11 -2.961893e-11))
61.180482     	((1.211524e-06 -3.983478e-11 -6.096596e-11) (2.134083e-06 -8.812855e-11 -8.550107e-11)) ((9.664960e-15 -1.898646e-14 -6.118849e-15) (1.648394e-13 3.310209e-11 -3.447976e-11))
73.428578     	((1.184081e-06 1.885040e-10 1.689434e-10) (2.025462e-06 -8.968217e-11 -9.116170e-11)) ((8.648535e-15 -1.524630e-14 -7.223447e-15) (2.107874e-13 3.891579e-11 -4.012489e-11))
88.126294     	((1.167394e-06 3.970623e-10 3.851535e-10) (1.930809e-06 -9.502813e-11 -9.906406e-11)) ((8.101740e-15 -1.018873e-14 -8.371535e-15) (2.506190e-13 4.548570e-11 -4.645575e-11))
105.763553    	((1.159821e-06 6.862556e-10 6.727705e-10) (1.849273e-06 -9.572335e-11 -9.906642e-11)) ((7.308560e-15 -5.463657e-15 -9.385478e-15) (2.495534e-13 5.211954e-11 -5.283240e-11))
126.928263    	((1.160585e-06 8.615297e-10 8.383394e-10) (1.780128e-06 -8.549004e-11 -9.411632e-11)) ((6.434616e-15 -2.992260e-15 -1.060881e-14) (1.901562e-13 5.796409e-11 -5.854402e-11))
152.325916    	((1.168238e-06 1.066989e-09 1.040070e-09) (1.722719e-06 -7.287700e-11 -8.172015e-11)) ((5.975997e-15 -6.452209e-16 -1.015498e-14) (1.590880e-13 6.256881e-11 -6.297143e-11))
182.803099    	((1.180198e-06 1.261796e-09 1.234241e-09) (1.676101e-06 -5.365839e-11 -6.126725e-11)) ((6.534527e-15 7.945323e-16 -9.295354e-15) (2.066453e-13 6.554880e-11 -6.556779e-11))
218.497918    	((1.193397e-06 1.444629e-09 1.428102e-09) (1.639189e-06 -2.500187e-11 -3.140176e-11)) ((7.100603e-15 8.176327e-16 -9.103368e-15) (2.155161e-13 6.669198e-11 -6.628316e-11))
259.389002    	((1.204278e-06 1.661569e-09 1.645924e-09) (1.609980e-06 2.465974e-11 1.977173e-11)) ((7.026473e-15 3.517021e-15 -8.497029e-15) (2.042887e-13 6.569516e-11 -6.498830e-11))
305.465859    	((1.211389e-06 1.811028e-09 1.805769e-09) (1.586587e-06 8.109206e-11 7.710810e-11)) ((7.356645e-15 6.040964e-15 -8.099433e-15) (1.983284e-13 6.357273e-11 -6.278835e-11))
356.730847    	((1.215008e-06 1.925034e-09 1.916524e-09) (1.567411e-06 1.558979e-10 1.526307e-10)) ((7.544788e-15 8.057264e-15 -8.051395e-15) (2.090200e-13 6.023515e-11 -5.958018e-11))
408.700085    	((1.217376e-06 1.982434e-09 1.979593e-09) (1.551883e-06 2.238745e-10 2.199497e-10)) ((7.470096e-15 1.082788e-14 -8.108131e-15) (2.021406e-13 5.682816e-11 -5.634500e-11))
460.753268    	((1.218188e-06 1.973432e-09 1.972243e-09) (1.539010e-06 2.969330e-10 2.906460e-10)) ((7.422073e-15 1.147113e-14 -7.846722e-15) (1.863240e-13 5.286428e-11 -5.251426e-11))
512.868263    	((1.218616e-06 1.930113e-09 1.929535e-09) (1.528423e-06 3.562976e-10 3.468122e-10)) ((7.654466e-15 1.134972e-14 -7.205096e-15) (1.757782e-13 4.899758e-11 -4.873711e-11))
565.029525    	((1.218722e-06 1.852650e-09 1.852066e-09) (1.519669e-06 4.048578e-10 3.931479e-10)) ((7.853604e-15 1.121629e-14 -7.192277e-15) (1.633567e-13 4.509186e-11 -4.493469e-11))
617.229571    	((1.218713e-06 1.747318e-09 1.750799e-09) (1.512439e-06 4.402797e-10 4.273349e-10)) ((8.139553e-15 1.002640e-14 -7.154142e-15) (1.514597e-13 4.125103e-11 -4.118547e-11))
669.463426    	((1.218570e-06 1.619929e-09 1.626943e-09) (1.506448e-06 4.605525e-10 4.469216e-10)) ((8.460211e-15 9.759675e-15 -7.037079e-15) (1.374518e-13 3.761533e-11 -3.762743e-11))
721.726377    	((1.218371e-06 1.489177e-09 1.498075e-09) (1.501478e-06 4.675174e-10 4.536527e-10)) ((8.645561e-15 8.970910e-15 -6.991539e-15) (1.221955e-13 3.426772e-11 -3.434274e-11))
774.013897    	((1.218133e-06 1.354674e-09 1.364735e-09) (1.497342e-06 4.667080e-10 4.526072e-10)) ((8.773248e-15 7.958463e-15 -6.880681e-15) (1.135061e-13 3.108761e-11 -3.122022e-11))
826.321551    	((1.217913e-06 1.222105e-09 1.232998e-09) (1.493900e-06 4.592414e-10 4.450682e-10)) ((8.913097e-15 7.042002e-15 -6.661581e-15) (1.085904e-13 2.811219e-11 -2.829426e-11))
878.645836    	((1.217688e-06 1.093139e-09 1.103663e-09) (1.491028e-06 4.455198e-10 4.313983e-10)) ((9.005300e-15 6.188229e-15 -6.513197e-15) (1.062617e-13 2.539865e-11 -2.562505e-11))
930.98394     	((1.217487e-06 9.733063e-10 9.838646e-10) (1.488630e-06 4.277932e-10 4.138585e-10)) ((9.116930e-15 5.489060e-15 -6.430107e-15) (1.043351e-13 2.291971e-11 -2.318547e-11))
983.333526    	((1.217298e-06 8.613479e-10 8.705785e-10) (1.486624e-06 4.073336e-10 3.932957e-10)) ((9.177880e-15 4.876725e-15 -6.329002e-15) (1.023322e-13 2.070561e-11 -2.099847e-11))
1035.69265    	((1.217129e-06 7.604762e-10 7.690473e-10) (1.484945e-06 3.853503e-10 3.713274e-10)) ((9.263353e-15 4.315144e-15 -6.261369e-15) (1.006193e-13 1.873182e-11 -1.905486e-11))
1088.059697   	((1.216976e-06 6.700418e-10 6.774835e-10) (1.483538e-06 3.628096e-10 3.486481e-10)) ((9.341325e-15 3.850934e-15 -6.215248e-15) (9.914397e-14 1.699518e-11 -1.733829e-11))
1140.433334   	((1.216838e-06 5.904477e-10 5.969904e-10) (1.482357e-06 3.406778e-10 3.264386e-10)) ((9.382450e-15 3.473382e-15 -6.147395e-15) (9.696395e-14 1.545745e-11 -1.582557e-11))
1192.812455   	((1.216718e-06 5.213899e-10 5.269657e-10) (1.481364e-06 3.196554e-10 3.053131e-10)) ((9.418930e-15 3.146344e-15 -6.055541e-15) (9.389802e-14 1.410967e-11 -1.449823e-11))
1245.196149   	((1.216611e-06 4.618359e-10 4.665946e-10) (1.480530e-06 3.000883e-10 2.855405e-10)) ((9.457563e-15 2.868555e-15 -5.979325e-15) (9.159554e-14 1.293958e-11 -1.334480e-11))
1297.583661   	((1.216518e-06 4.112396e-10 4.153545e-10) (1.479828e-06 2.822238e-10 2.674981e-10)) ((9.479365e-15 2.618125e-15 -5.921759e-15) (8.958794e-14 1.192672e-11 -1.234910e-11))
1349.974367   	((1.216436e-06 3.687899e-10 3.718218e-10) (1.479236e-06 2.662404e-10 2.513423e-10)) ((9.513717e-15 2.419187e-15 -5.872497e-15) (8.775718e-14 1.105188e-11 -1.149068e-11))
1402.367753   	((1.216364e-06 3.335115e-10 3.357812e-10) (1.478738e-06 2.521306e-10 2.370377e-10)) ((9.539922e-15 2.281291e-15 -5.836900e-15) (8.652079e-14 1.030399e-11 -1.075632e-11))
1454.76339    	((1.216304e-06 3.044652e-10 3.057586e-10) (1.478318e-06 2.398375e-10 2.245489e-10)) ((9.562095e-15 2.165560e-15 -5.804994e-15) (8.539276e-14 9.668861e-12 -1.013220e-11))
1507.160924   	((1.216251e-06 2.805532e-10 2.813322e-10) (1.477963e-06 2.292832e-10 2.138233e-10)) ((9.574561e-15 2.067338e-15 -5.779288e-15) (8.424100e-14 9.131698e-12 -9.605237e-12))
1559.560059   	((1.216204e-06 2.608988e-10 2.611424e-10) (1.477664e-06 2.203253e-10 2.046881e-10)) ((9.581269e-15 1.985157e-15 -5.756560e-15) (8.323777e-14 8.679215e-12 -9.159989e-12))
1611.960548   	((1.216164e-06 2.449622e-10 2.449405e-10) (1.477411e-06 2.128190e-10 1.970176e-10)) ((9.594088e-15 1.918022e-15 -5.739685e-15) (8.234475e-14 8.297907e-12 -8.784762e-12))
1664.362184   	((1.216130e-06 2.319290e-10 2.315254e-10) (1.477198e-06 2.065844e-10 1.906269e-10)) ((9.608722e-15 1.855948e-15 -5.727016e-15) (8.157876e-14 7.977398e-12 -8.469425e-12))
1716.764793   	((1.216101e-06 2.212997e-10 2.206513e-10) (1.477017e-06 2.014388e-10 1.853515e-10)) ((9.620464e-15 1.806216e-15 -5.714243e-15) (8.098437e-14 7.706812e-12 -8.203178e-12))
1769.168228   	((1.216077e-06 2.125495e-10 2.114795e-10) (1.476865e-06 1.972311e-10 1.810232e-10)) ((9.631766e-15 1.763740e-15 -5.701701e-15) (8.050295e-14 7.479002e-12 -7.979400e-12))
1821.572365   	((1.216055e-06 2.051948e-10 2.039706e-10) (1.476736e-06 1.937790e-10 1.774784e-10)) ((9.636004e-15 1.727361e-15 -5.691146e-15) (8.012973e-14 7.287175e-12 -7.791083e-12))
1873.977098   	((1.216036e-06 1.990951e-10 1.977313e-10) (1.476626e-06 1.909693e-10 1.745853e-10)) ((9.641121e-15 1.698661e-15 -5.682028e-15) (7.983627e-14 7.124934e-12 -7.631875e-12))
1926.382338   	((1.216021e-06 1.940143e-10 1.922952e-10) (1.476534e-06 1.886822e-10 1.722225e-10)) ((9.642783e-15 1.673161e-15 -5.673490e-15) (7.958619e-14 6.988441e-12 -7.497782e-12))
1978.788009   	((1.216008e-06 1.897007e-10 1.879058e-10) (1.476456e-06 1.868064e-10 1.702853e-10)) ((9.642591e-15 1.651425e-15 -5.665784e-15) (7.938416e-14 6.872824e-12 -7.384266e-12))
2031.194046   	((1.215996e-06 1.859203e-10 1.840729e-10) (1.476389e-06 1.852624e-10 1.686859e-10)) ((9.643892e-15 1.634260e-15 -5.660673e-15) (7.921050e-14 6.774658e-12 -7.287861e-12))
2083.600394   	((1.215986e-06 1.826805e-10 1.807547e-10) (1.476333e-06 1.839816e-10 1.673551e-10)) ((9.645083e-15 1.619758e-15 -5.655250e-15) (7.905870e-14 6.691417e-12 -7.206062e-12))
2136.007006   	((1.215978e-06 1.798374e-10 1.778921e-10) (1.476286e-06 1.829081e-10 1.662369e-10)) ((9.646394e-15 1.604790e-15 -5.651858e-15) (7.892310e-14 6.620564e-12 -7.136397e-12))
2188.41384    	((1.215971e-06 1.773720e-10 1.752933e-10) (1.476246e-06 1.819950e-10 1.652973e-10)) ((9.647595e-15 1.591114e-15 -5.647847e-15) (7.882115e-14 6.560208e-12 -7.077067e-12))
2240.820864   	((1.215963e-06 1.750820e-10 1.733597e-10) (1.476212e-06 1.812074e-10 1.644903e-10)) ((9.648803e-15 1.577279e-15 -5.644771e-15) (7.873455e-14 6.508861e-12 -7.026505e-12))
2293.228048   	((1.215960e-06 1.732420e-10 1.709738e-10) (1.476183e-06 1.805285e-10 1.637840e-10)) ((9.650441e-15 1.567493e-15 -5.642537e-15) (7.864238e-14 6.464913e-12 -6.983193e-12))
2345.635366   	((1.215955e-06 1.715019e-10 1.694701e-10) (1.476158e-06 1.799363e-10 1.631786e-10)) ((9.651452e-15 1.558551e-15 -5.640714e-15) (7.857061e-14 6.427169e-12 -6.946068e-12))
2398.042799   	((1.215951e-06 1.700371e-10 1.678464e-10) (1.476138e-06 1.794188e-10 1.626379e-10)) ((9.652378e-15 1.549048e-15 -5.638797e-15) (7.851542e-14 6.394812e-12 -6.914264e-12))
2450.450328   	((1.215948e-06 1.687536e-10 1.665769e-10) (1.476120e-06 1.789628e-10 1.621720e-10)) ((9.653037e-15 1.543827e-15 -5.637681e-15) (7.846140e-14 6.367016e-12 -6.887001e-12))
2502.857939   	((1.215946e-06 1.676318e-10 1.655118e-10) (1.476105e-06 1.785618e-10 1.617615e-10)) ((9.653651e-15 1.537584e-15 -5.636464e-15) (7.841476e-14 6.343230e-12 -6.863638e-12))
2555.265618   	((1.215944e-06 1.666679e-10 1.646139e-10) (1.476093e-06 1.782103e-10 1.614009e-10)) ((9.654132e-15 1.532668e-15 -5.635507e-15) (7.837591e-14 6.322907e-12 -6.843667e-12))
2607.673354   	((1.215942e-06 1.658384e-10 1.638316e-10) (1.476082e-06 1.779020e-10 1.610842e-10)) ((9.654655e-15 1.528228e-15 -5.634760e-15) (7.834329e-14 6.305568e-12 -6.826619e-12))
2660.081139   	((1.215940e-06 1.651587e-10 1.630618e-10) (1.476073e-06 1.776342e-10 1.608049e-10)) ((9.655192e-15 1.524843e-15 -5.634073e-15) (7.831441e-14 6.290736e-12 -6.812033e-12))
2712.488966   	((1.215939e-06 1.645801e-10 1.624903e-10) (1.476065e-06 1.774010e-10 1.605667e-10)) ((9.655477e-15 1.522017e-15 -5.633562e-15) (7.829092e-14 6.278073e-12 -6.799574e-12))
2764.896827   	((1.215938e-06 1.641084e-10 1.620089e-10) (1.476059e-06 1.771996e-10 1.603635e-10)) ((9.655666e-15 1.519911e-15 -5.633065e-15) (7.827050e-14 6.267324e-12 -6.788980e-12))
2817.304717   	((1.215937e-06 1.636801e-10 1.616433e-10) (1.476054e-06 1.770270e-10 1.601887e-10)) ((9.655944e-15 1.517914e-15 -5.632661e-15) (7.825297e-14 6.258191e-12 -6.779964e-12))
2869.712632   	((1.215936e-06 1.633258e-10 1.613492e-10) (1.476049e-06 1.768806e-10 1.600395e-10)) ((9.656210e-15 1.516212e-15 -5.632330e-15) (7.823820e-14 6.250445e-12 -6.772311e-12))
