# Forces      
# CofR        : (0.000000e+00 0.000000e+00 0.000000e+00)
# Time        forces(pressure viscous)	moments(pressure viscous)
0             	((0.000000e+00 0.000000e+00 0.000000e+00) (-3.168536e-12 -2.516071e-12 5.036299e-02)) ((0.000000e+00 0.000000e+00 0.000000e+00) (1.090472e-13 1.693403e-08 -9.129300e-14))
0.0112008     	((1.405261e-03 1.378898e-03 1.580853e+01) (-1.002118e-05 -6.862065e-06 1.076316e-01)) ((2.523926e-09 5.212629e-06 3.306268e-10) (-7.358778e-08 8.044611e-08 2.211716e-11))
0.0246419     	((-2.443097e-03 -1.875121e-03 -7.295044e+00) (-2.172933e-05 -1.137126e-05 9.921214e-02)) ((1.119535e-07 -8.954526e-07 -5.415186e-09) (-4.562715e-07 1.145413e-06 -2.432914e-09))
0.0407711     	((-1.006275e-03 2.735830e-04 1.501887e+00) (-4.022849e-05 -4.900424e-06 8.097943e-02)) ((-1.210305e-07 1.001560e-06 -8.477392e-10) (-2.396603e-07 1.005380e-06 -2.207615e-09))
0.0601261     	((-1.752710e-03 -6.725611e-04 -5.849979e-01) (-2.956659e-05 -7.277063e-07 7.470857e-02)) ((4.733368e-08 2.832936e-07 -1.115696e-09) (-1.057005e-07 -8.340832e-08 2.749576e-09))
0.0828229     	((1.846243e-04 3.309537e-04 4.218280e-01) (-4.592284e-06 -1.887974e-06 7.065288e-02)) ((-1.858196e-08 7.325594e-07 -3.535655e-09) (-1.347505e-07 1.620076e-07 7.519277e-09))
0.108845      	((1.390685e-04 -1.086659e-04 -2.577071e-02) (2.660790e-05 -2.137225e-06 6.907633e-02)) ((1.070507e-08 7.118996e-07 -9.242666e-10) (1.030155e-08 6.657637e-07 3.763936e-09))
0.138167      	((4.734409e-04 9.860867e-05 1.911568e-01) (3.793022e-05 -1.326735e-06 6.782057e-02)) ((-8.605125e-09 7.743783e-07 4.896172e-10) (4.998300e-08 1.161901e-06 -4.491076e-11))
0.170764      	((-1.231572e-04 -1.210431e-04 1.060638e-01) (2.934993e-05 -9.447826e-07 6.704592e-02)) ((6.766574e-09 7.191710e-07 2.729888e-11) (1.107259e-07 1.272199e-06 -2.129896e-09))
0.20354       	((-3.245441e-04 -9.960755e-05 1.698801e-01) (3.053527e-05 -1.249614e-06 6.662480e-02)) ((4.704161e-09 7.997859e-07 -1.160613e-09) (1.516465e-07 1.191722e-06 -3.506325e-09))
0.236251      	((-3.744137e-04 -2.408067e-04 1.600996e-01) (3.136793e-05 -1.595391e-06 6.640521e-02)) ((8.821230e-09 7.684943e-07 1.618062e-10) (1.617436e-07 1.236602e-06 -2.782676e-09))
0.268794      	((-5.735128e-04 -2.903278e-04 1.877999e-01) (3.228535e-05 -2.090481e-06 6.622795e-02)) ((8.396391e-09 7.960240e-07 -5.638610e-10) (1.649007e-07 1.161069e-06 -2.437644e-09))
0.301111      	((-6.559603e-04 -3.332965e-04 1.942286e-01) (3.306818e-05 -2.359757e-06 6.602772e-02)) ((9.912050e-09 7.975725e-07 -1.022023e-09) (1.604195e-07 1.211496e-06 -2.123814e-09))
0.333294      	((-8.349352e-04 -3.457421e-04 2.074511e-01) (3.490020e-05 -2.362899e-06 6.573514e-02)) ((1.075510e-08 7.925030e-07 -6.615930e-10) (1.429381e-07 1.247171e-06 -2.109201e-09))
0.365409      	((-1.058638e-03 -4.061515e-04 2.116468e-01) (3.440886e-05 -2.199789e-06 6.535668e-02)) ((1.344941e-08 7.481972e-07 1.798125e-10) (1.142390e-07 1.321772e-06 -2.511753e-09))
0.397535      	((-1.415504e-03 -4.366069e-04 2.156512e-01) (3.274752e-05 -1.975384e-06 6.494198e-02)) ((1.328728e-08 7.232787e-07 -1.235114e-10) (9.135728e-08 1.414376e-06 -2.695141e-09))
0.429751      	((-1.718070e-03 -4.992751e-04 2.158685e-01) (3.057133e-05 -2.140335e-06 6.455169e-02)) ((1.389503e-08 6.920717e-07 5.982638e-10) (9.207083e-08 1.449415e-06 -2.713844e-09))
0.462063      	((-2.093710e-03 -5.508889e-04 2.164324e-01) (2.736910e-05 -2.533974e-06 6.420305e-02)) ((1.471022e-08 6.712771e-07 3.300288e-10) (9.020059e-08 1.475694e-06 -2.308547e-09))
0.494419      	((-2.485046e-03 -6.637002e-04 2.148379e-01) (2.489910e-05 -2.521724e-06 6.388734e-02)) ((1.846977e-08 6.376327e-07 4.220357e-10) (5.489056e-08 1.507471e-06 -3.198553e-09))
0.526777      	((-2.939529e-03 -7.733612e-04 2.134004e-01) (2.213487e-05 -2.259962e-06 6.359798e-02)) ((2.217447e-08 6.097927e-07 3.141034e-10) (-2.236626e-09 1.553189e-06 -4.332656e-09))
0.55915       	((-3.478604e-03 -9.203195e-04 2.112107e-01) (1.886480e-05 -2.243261e-06 6.332958e-02)) ((2.514561e-08 5.752687e-07 6.800766e-10) (-5.338043e-08 1.636012e-06 -4.231577e-09))
0.591545      	((-4.152285e-03 -1.098495e-03 2.094691e-01) (1.464304e-05 -2.733141e-06 6.308074e-02)) ((2.754042e-08 5.498575e-07 7.258704e-10) (-9.274372e-08 1.717793e-06 -4.023111e-09))
0.623958      	((-4.887834e-03 -1.303500e-03 2.085623e-01) (1.030149e-05 -3.719224e-06 6.285116e-02)) ((3.005929e-08 5.215654e-07 5.985257e-10) (-1.295386e-07 1.817207e-06 -3.898417e-09))
0.656384      	((-5.722332e-03 -1.533370e-03 2.080029e-01) (6.440324e-06 -4.848058e-06 6.264189e-02)) ((3.204717e-08 4.950831e-07 5.447067e-10) (-1.715511e-07 1.964558e-06 -4.051685e-09))
0.688822      	((-6.684196e-03 -1.779263e-03 2.072292e-01) (2.849892e-06 -5.867830e-06 6.245401e-02)) ((3.392210e-08 4.691581e-07 7.128965e-10) (-2.247642e-07 2.171301e-06 -4.041282e-09))
0.721274      	((-7.775547e-03 -2.039676e-03 2.061435e-01) (-6.287658e-07 -6.854366e-06 6.228585e-02)) ((3.545035e-08 4.459556e-07 1.103295e-09) (-2.928163e-07 2.443856e-06 -4.403125e-09))
0.75374       	((-8.996422e-03 -2.346076e-03 2.048661e-01) (-4.162790e-06 -7.899724e-06 6.213370e-02)) ((3.742276e-08 4.239604e-07 1.001756e-09) (-3.785448e-07 2.780400e-06 -5.074102e-09))
0.786217      	((-1.042281e-02 -2.676757e-03 2.037258e-01) (-7.982184e-06 -9.022042e-06 6.199435e-02)) ((3.987573e-08 4.077465e-07 1.201195e-09) (-4.793211e-07 3.185202e-06 -5.810123e-09))
0.818705      	((-1.209693e-02 -3.078471e-03 2.027011e-01) (-1.251415e-05 -1.032667e-05 6.186507e-02)) ((4.277964e-08 3.919685e-07 1.010600e-09) (-5.968138e-07 3.659249e-06 -6.672277e-09))
0.851205      	((-1.397456e-02 -3.516197e-03 2.017375e-01) (-1.795800e-05 -1.185889e-05 6.174376e-02)) ((4.540117e-08 3.721951e-07 2.105364e-09) (-7.309039e-07 4.214242e-06 -7.255905e-09))
0.883715      	((-1.606128e-02 -4.005071e-03 2.009771e-01) (-2.405350e-05 -1.348024e-05 6.162966e-02)) ((4.810002e-08 3.509772e-07 2.704757e-09) (-8.852141e-07 4.876027e-06 -7.087997e-09))
0.916236      	((-1.840108e-02 -4.531457e-03 2.004007e-01) (-3.069949e-05 -1.496824e-05 6.152315e-02)) ((5.145498e-08 3.260540e-07 3.597677e-09) (-1.068025e-06 5.648427e-06 -9.011885e-09))
0.948767      	((-2.103401e-02 -5.147177e-03 1.998581e-01) (-3.833033e-05 -1.649648e-05 6.142461e-02)) ((5.755092e-08 2.976169e-07 3.711252e-09) (-1.282242e-06 6.514033e-06 -1.199611e-08))
0.981309      	((-2.404037e-02 -5.859204e-03 1.993402e-01) (-4.739549e-05 -1.840455e-05 6.133398e-02)) ((6.575825e-08 2.670894e-07 3.535854e-09) (-1.520105e-06 7.474959e-06 -1.246163e-08))
1.013861      	((-2.749873e-02 -6.653294e-03 1.988561e-01) (-5.826875e-05 -2.087731e-05 6.125140e-02)) ((7.357707e-08 2.340091e-07 3.797768e-09) (-1.777134e-06 8.536340e-06 -1.251753e-08))
1.046424      	((-3.143422e-02 -7.571779e-03 1.983873e-01) (-7.129536e-05 -2.379863e-05 6.117666e-02)) ((8.185860e-08 1.969090e-07 4.767861e-09) (-2.062819e-06 9.712264e-06 -1.209454e-08))
1.078997      	((-3.592268e-02 -8.617539e-03 1.979158e-01) (-8.669845e-05 -2.704862e-05 6.110914e-02)) ((9.237773e-08 1.517182e-07 5.343802e-09) (-2.390392e-06 1.102559e-05 -1.027129e-08))
1.111578      	((-4.102793e-02 -9.803826e-03 1.974340e-01) (-1.045048e-04 -3.064664e-05 6.104844e-02)) ((1.039063e-07 9.883063e-08 5.226024e-09) (-2.770965e-06 1.249954e-05 -9.426107e-09))
1.144161      	((-4.680658e-02 -1.113465e-02 1.970029e-01) (-1.250322e-04 -3.437151e-05 6.099437e-02)) ((1.170232e-07 3.943134e-08 4.983416e-09) (-3.214463e-06 1.414458e-05 -8.154885e-09))
1.176741      	((-5.333969e-02 -1.264480e-02 1.966786e-01) (-1.489226e-04 -3.837294e-05 6.094674e-02)) ((1.329486e-07 -2.747505e-08 5.023808e-09) (-3.721937e-06 1.597196e-05 -4.096810e-09))
1.209317      	((-6.067671e-02 -1.433632e-02 1.964965e-01) (-1.764334e-04 -4.297437e-05 6.090497e-02)) ((1.487842e-07 -1.004343e-07 4.846746e-09) (-4.290053e-06 1.801923e-05 4.563093e-09))
1.241888      	((-6.891499e-02 -1.624487e-02 1.964989e-01) (-2.073869e-04 -4.851416e-05 6.086860e-02)) ((1.659741e-07 -1.803468e-07 4.889525e-09) (-4.918971e-06 2.035288e-05 1.482435e-08))
1.274451      	((-7.818036e-02 -1.840716e-02 1.967286e-01) (-2.418324e-04 -5.515923e-05 6.083751e-02)) ((1.864725e-07 -2.691441e-07 6.422751e-09) (-5.614666e-06 2.303334e-05 2.349779e-08))
1.307006      	((-8.859011e-02 -2.086948e-02 1.972663e-01) (-2.798488e-04 -6.283841e-05 6.081205e-02)) ((2.101067e-07 -3.642502e-07 7.112103e-09) (-6.394786e-06 2.610365e-05 2.898020e-08))
1.339549      	((-1.003592e-01 -2.365309e-02 1.981507e-01) (-3.220016e-04 -7.140672e-05 6.079280e-02)) ((2.354742e-07 -4.697165e-07 8.278745e-09) (-7.290705e-06 2.961016e-05 3.304837e-08))
1.372081      	((-1.137317e-01 -2.675992e-02 1.993832e-01) (-3.696382e-04 -8.069053e-05 6.078025e-02)) ((2.633432e-07 -5.875182e-07 8.638624e-09) (-8.329659e-06 3.358999e-05 3.872332e-08))
1.404598      	((-1.287809e-01 -3.026978e-02 2.009560e-01) (-4.235455e-04 -9.077628e-05 6.077513e-02)) ((2.968735e-07 -7.121627e-07 7.169773e-09) (-9.518080e-06 3.810794e-05 4.809774e-08))
1.437098      	((-1.457842e-01 -3.415345e-02 2.030572e-01) (-4.850012e-04 -1.017290e-04 6.077892e-02)) ((3.326155e-07 -8.557930e-07 5.448912e-09) (-1.087698e-05 4.321973e-05 7.440171e-08))
1.469579      	((-1.646231e-01 -3.842870e-02 2.058635e-01) (-5.555268e-04 -1.142049e-04 6.079377e-02)) ((3.716733e-07 -1.015579e-06 4.934871e-09) (-1.239131e-05 4.891161e-05 1.107661e-07))
1.502039      	((-1.853799e-01 -4.317476e-02 2.093082e-01) (-6.357386e-04 -1.293763e-04 6.082137e-02)) ((4.158438e-07 -1.196413e-06 8.011498e-09) (-1.401538e-05 5.519554e-05 1.343829e-07))
1.534474      	((-2.080808e-01 -4.834893e-02 2.135307e-01) (-7.270283e-04 -1.480192e-04 6.086326e-02)) ((4.658226e-07 -1.405241e-06 1.183344e-08) (-1.571766e-05 6.206154e-05 1.217782e-07))
1.566882      	((-2.327983e-01 -5.402062e-02 2.186256e-01) (-8.319438e-04 -1.700831e-04 6.092229e-02)) ((5.194997e-07 -1.634764e-06 1.646245e-08) (-1.749995e-05 6.941794e-05 9.999151e-08))
1.59926       	((-2.592100e-01 -6.002401e-02 2.249013e-01) (-9.507627e-04 -1.960488e-04 6.100222e-02)) ((5.763635e-07 -1.871667e-06 2.141807e-08) (-1.934318e-05 7.720863e-05 8.728201e-08))
1.631605      	((-2.867519e-01 -6.643007e-02 2.326268e-01) (-1.082766e-03 -2.272251e-04 6.110550e-02)) ((6.406008e-07 -2.102546e-06 2.895242e-08) (-2.119785e-05 8.541475e-05 5.643034e-08))
1.663905      	((-3.150981e-01 -7.280243e-02 2.422052e-01) (-1.225087e-03 -2.630907e-04 6.123291e-02)) ((7.006661e-07 -2.316128e-06 3.759511e-08) (-2.305637e-05 9.411979e-05 5.905172e-10))
1.69614       	((-3.436154e-01 -7.922053e-02 2.528459e-01) (-1.377293e-03 -3.018358e-04 6.138463e-02)) ((7.661912e-07 -2.525099e-06 4.425464e-08) (-2.493251e-05 1.031660e-04 -6.426894e-08))
1.728308      	((-3.708904e-01 -8.527918e-02 2.652919e-01) (-1.537709e-03 -3.424888e-04 6.156256e-02)) ((8.256085e-07 -2.703025e-06 5.742008e-08) (-2.679950e-05 1.123618e-04 -1.261130e-07))
1.760407      	((-3.955206e-01 -9.066688e-02 2.791214e-01) (-1.701451e-03 -3.841115e-04 6.176624e-02)) ((8.775353e-07 -2.821035e-06 7.767387e-08) (-2.864991e-05 1.215586e-04 -1.710924e-07))
1.792435      	((-4.164473e-01 -9.522133e-02 2.937599e-01) (-1.862005e-03 -4.245067e-04 6.199411e-02)) ((9.062839e-07 -2.879746e-06 9.687601e-08) (-3.043558e-05 1.306699e-04 -2.088771e-07))
1.824396      	((-4.317792e-01 -9.852088e-02 3.083862e-01) (-2.014940e-03 -4.626936e-04 6.224426e-02)) ((9.032331e-07 -2.865279e-06 1.204441e-07) (-3.203248e-05 1.393327e-04 -2.721309e-07))
1.856291      	((-4.403287e-01 -1.000451e-01 3.214974e-01) (-2.154669e-03 -4.979436e-04 6.250846e-02)) ((8.664882e-07 -2.737888e-06 1.401835e-07) (-3.330971e-05 1.470416e-04 -3.166766e-07))
1.888124      	((-4.410880e-01 -9.959029e-02 3.325091e-01) (-2.266982e-03 -5.261644e-04 6.277370e-02)) ((7.999644e-07 -2.526028e-06 1.504139e-07) (-3.426530e-05 1.535367e-04 -3.124771e-07))
1.9199        	((-4.334981e-01 -9.695466e-02 3.398152e-01) (-2.335507e-03 -5.436987e-04 6.302735e-02)) ((7.227214e-07 -2.284841e-06 1.518869e-07) (-3.487375e-05 1.588766e-04 -3.440854e-07))
1.951631      	((-4.178936e-01 -9.205562e-02 3.431325e-01) (-2.350722e-03 -5.484871e-04 6.326076e-02)) ((6.737588e-07 -2.048443e-06 1.438259e-07) (-3.504619e-05 1.628978e-04 -4.387833e-07))
1.983326      	((-3.950375e-01 -8.570105e-02 3.420320e-01) (-2.298569e-03 -5.394518e-04 6.346816e-02)) ((6.310402e-07 -1.817255e-06 1.313597e-07) (-3.477820e-05 1.656107e-04 -5.644333e-07))
2.014997      	((-3.689351e-01 -7.802693e-02 3.383312e-01) (-2.177834e-03 -5.166700e-04 6.364504e-02)) ((5.659897e-07 -1.557551e-06 1.172701e-07) (-3.410721e-05 1.672379e-04 -7.046377e-07))
2.046658      	((-3.419708e-01 -7.114725e-02 3.321733e-01) (-1.997849e-03 -4.799234e-04 6.379210e-02)) ((5.031541e-07 -1.264179e-06 9.392803e-08) (-3.322686e-05 1.680551e-04 -8.945545e-07))
2.078321      	((-3.185036e-01 -6.559550e-02 3.250670e-01) (-1.780831e-03 -4.344979e-04 6.391856e-02)) ((4.595263e-07 -9.060533e-07 6.891640e-08) (-3.224933e-05 1.679464e-04 -1.167309e-06))
2.109994      	((-3.013288e-01 -6.182448e-02 3.172473e-01) (-1.556237e-03 -3.867165e-04 6.402822e-02)) ((4.316858e-07 -5.652208e-07 5.128537e-08) (-3.130219e-05 1.669987e-04 -1.577241e-06))
2.141685      	((-2.916991e-01 -6.002417e-02 3.098368e-01) (-1.351183e-03 -3.413626e-04 6.412628e-02)) ((4.290883e-07 -3.106509e-07 5.754987e-08) (-3.046923e-05 1.654168e-04 -2.064340e-06))
2.173399      	((-2.886406e-01 -5.976713e-02 3.035116e-01) (-1.188443e-03 -3.034617e-04 6.422311e-02)) ((4.287161e-07 -1.503349e-07 8.148509e-08) (-2.971622e-05 1.631635e-04 -2.519549e-06))
2.205135      	((-2.910750e-01 -6.094249e-02 2.975103e-01) (-1.084540e-03 -2.757161e-04 6.431499e-02)) ((4.220473e-07 -1.260476e-07 1.110899e-07) (-2.909720e-05 1.602978e-04 -2.842638e-06))
2.236891      	((-2.959519e-01 -6.264466e-02 2.920684e-01) (-1.049468e-03 -2.613209e-04 6.439750e-02)) ((4.602256e-07 -2.839286e-07 1.293009e-07) (-2.853033e-05 1.566484e-04 -3.099529e-06))
2.268663      	((-3.008347e-01 -6.431169e-02 2.864504e-01) (-1.078559e-03 -2.622072e-04 6.446411e-02)) ((5.958863e-07 -6.917975e-07 1.272276e-07) (-2.794422e-05 1.522513e-04 -3.345880e-06))
2.300446      	((-3.038233e-01 -6.561435e-02 2.803441e-01) (-1.134620e-03 -2.719568e-04 6.450105e-02)) ((7.217661e-07 -1.098281e-06 1.351636e-07) (-2.745256e-05 1.483885e-04 -3.549377e-06))
2.332235      	((-3.021654e-01 -6.615315e-02 2.757453e-01) (-1.170386e-03 -2.835830e-04 6.451009e-02)) ((7.320908e-07 -1.293066e-06 1.799091e-07) (-2.705902e-05 1.461345e-04 -3.841465e-06))
2.364027      	((-2.960627e-01 -6.577425e-02 2.736716e-01) (-1.169631e-03 -2.942277e-04 6.450733e-02)) ((7.109503e-07 -1.355488e-06 2.004828e-07) (-2.663522e-05 1.451916e-04 -4.245472e-06))
2.395818      	((-2.865744e-01 -6.492624e-02 2.729984e-01) (-1.137457e-03 -2.981856e-04 6.450226e-02)) ((7.505330e-07 -1.387900e-06 1.771586e-07) (-2.635473e-05 1.447873e-04 -4.585333e-06))
2.42761       	((-2.738948e-01 -6.316139e-02 2.734924e-01) (-1.082780e-03 -2.898276e-04 6.449980e-02)) ((8.530829e-07 -1.448019e-06 1.078643e-07) (-2.636504e-05 1.441939e-04 -4.746877e-06))
2.459401      	((-2.584342e-01 -6.094342e-02 2.732633e-01) (-1.016456e-03 -2.699528e-04 6.450038e-02)) ((9.624569e-07 -1.527008e-06 3.530925e-08) (-2.657638e-05 1.427423e-04 -4.755431e-06))
2.491196      	((-2.433298e-01 -5.848991e-02 2.723827e-01) (-9.359697e-04 -2.405519e-04 6.449968e-02)) ((9.997957e-07 -1.469200e-06 -2.180206e-08) (-2.697789e-05 1.407281e-04 -4.713421e-06))
2.522997      	((-2.293883e-01 -5.676360e-02 2.720317e-01) (-8.272558e-04 -2.089803e-04 6.449071e-02)) ((9.376988e-07 -1.197381e-06 -4.688874e-08) (-2.743123e-05 1.391858e-04 -4.816695e-06))
2.554807      	((-2.181586e-01 -5.530937e-02 2.720374e-01) (-6.989975e-04 -1.812205e-04 6.447372e-02)) ((8.469969e-07 -8.571529e-07 -6.981785e-08) (-2.777359e-05 1.382362e-04 -5.150922e-06))
2.586632      	((-2.119841e-01 -5.477040e-02 2.717788e-01) (-5.589489e-04 -1.502427e-04 6.445400e-02)) ((7.582583e-07 -4.855120e-07 -8.494392e-08) (-2.836444e-05 1.380707e-04 -5.464755e-06))
2.618472      	((-2.107286e-01 -5.571966e-02 2.706142e-01) (-4.104820e-04 -1.158836e-04 6.443057e-02)) ((6.668563e-07 -1.905739e-07 -7.271377e-08) (-2.936945e-05 1.391337e-04 -5.486020e-06))
2.65033       	((-2.142624e-01 -5.749830e-02 2.671993e-01) (-2.782199e-04 -8.430085e-05 6.439582e-02)) ((5.935161e-07 -2.496015e-08 -3.938912e-08) (-3.060234e-05 1.410398e-04 -5.111285e-06))
2.682205      	((-2.203623e-01 -6.036444e-02 2.628574e-01) (-2.028576e-04 -5.718480e-05 6.435881e-02)) ((5.695229e-07 -4.369317e-08 4.579701e-09) (-3.202010e-05 1.419843e-04 -4.279164e-06))
2.714094      	((-2.280005e-01 -6.375815e-02 2.582646e-01) (-2.026730e-04 -4.550154e-05 6.433016e-02)) ((5.546264e-07 -2.141643e-07 6.628692e-08) (-3.322140e-05 1.408312e-04 -3.322063e-06))
2.745995      	((-2.362585e-01 -6.703267e-02 2.545970e-01) (-2.685175e-04 -5.684470e-05 6.430964e-02)) ((5.411642e-07 -4.270945e-07 1.340286e-07) (-3.383068e-05 1.378911e-04 -2.635206e-06))
2.777903      	((-2.433035e-01 -6.983301e-02 2.525620e-01) (-3.697657e-04 -8.542701e-05 6.429418e-02)) ((5.321697e-07 -6.399529e-07 1.835192e-07) (-3.393480e-05 1.343424e-04 -2.300403e-06))
2.809813      	((-2.482195e-01 -7.278284e-02 2.520210e-01) (-4.769211e-04 -1.236616e-04 6.428162e-02)) ((5.402954e-07 -8.117763e-07 2.084408e-07) (-3.372178e-05 1.311699e-04 -2.212092e-06))
2.841722      	((-2.512999e-01 -7.543393e-02 2.533620e-01) (-5.692351e-04 -1.639119e-04 6.426830e-02)) ((5.714730e-07 -9.295548e-07 2.027489e-07) (-3.342640e-05 1.290154e-04 -2.253401e-06))
