# Forces      
# CofR        : (0.000000e+00 0.000000e+00 0.000000e+00)
# Time        forces(pressure viscous)	moments(pressure viscous)
0             	((0.000000e+00 0.000000e+00 0.000000e+00) (0.000000e+00 0.000000e+00 0.000000e+00)) ((0.000000e+00 0.000000e+00 0.000000e+00) (0.000000e+00 0.000000e+00 0.000000e+00))
0.012         	((-3.662991e-10 6.950376e-10 1.721324e-07) (6.848353e-12 5.483934e-12 3.634665e-09)) ((-1.544102e-13 6.723409e-09 5.239125e-14) (-2.109156e-14 4.418623e-06 -1.873878e-13))
0.0264        	((6.059947e-10 -6.380209e-10 -6.453304e-08) (6.660940e-12 1.282311e-11 6.315642e-09)) ((-7.056688e-14 3.399445e-09 3.657421e-13) (6.428056e-14 4.047329e-06 -2.444896e-13))
0.04368       	((1.029930e-09 4.108102e-09 6.023147e-08) (1.210885e-11 1.253505e-11 6.896848e-09)) ((3.101552e-14 1.917604e-09 2.119426e-13) (-1.312611e-13 3.666427e-06 -3.102356e-13))
0.064416      	((8.267965e-10 -1.220687e-09 1.109880e-09) (-4.398530e-11 -2.542617e-12 5.658550e-09)) ((-2.850080e-14 1.137104e-09 2.701304e-14) (-6.272854e-13 3.284787e-06 -5.508695e-13))
0.0892992     	((3.494897e-09 1.320439e-09 4.780292e-09) (-1.695694e-10 -1.398858e-11 4.553152e-09)) ((-2.905181e-14 8.761273e-10 1.855873e-14) (-8.298097e-13 2.914089e-06 -9.351331e-13))
0.119159      	((1.512634e-09 -3.278397e-10 2.054227e-09) (-1.976193e-10 -3.049478e-11 3.817250e-09)) ((2.352921e-15 6.582587e-10 1.146064e-14) (-1.160481e-12 2.566113e-06 -1.282330e-12))
0.154991      	((-1.353725e-09 -5.602737e-10 -5.299018e-09) (-1.393654e-10 -6.192344e-11 3.120071e-09)) ((-3.254791e-14 5.406744e-10 6.356036e-14) (-1.793117e-12 2.249130e-06 -1.324643e-12))
0.197989      	((-1.443013e-09 -5.585222e-10 9.085293e-10) (-1.965388e-11 -8.426663e-11 2.599360e-09)) ((-5.893924e-14 4.402216e-10 2.775724e-14) (-2.092177e-12 1.968766e-06 -1.212007e-12))
0.249587      	((-1.880318e-09 -5.248931e-10 -3.768834e-09) (1.049881e-10 -8.553728e-11 2.230494e-09)) ((-7.543168e-14 3.696461e-10 6.190215e-16) (-1.716985e-12 1.727170e-06 -9.695019e-13))
0.311504      	((-2.104107e-09 2.713925e-10 1.557804e-09) (6.676934e-11 -7.697889e-11 1.959686e-09)) ((-5.380456e-14 3.162269e-10 -3.108336e-14) (-1.288664e-12 1.523149e-06 -6.195287e-13))
0.385805      	((-1.591635e-09 2.606304e-10 -1.144533e-09) (-7.837674e-11 -6.223958e-11 1.773290e-09)) ((-3.970023e-14 2.792350e-10 -2.672083e-14) (-1.041613e-12 1.352242e-06 -2.821793e-13))
0.474966      	((-2.485771e-10 -8.098822e-11 -5.178624e-10) (-7.086979e-11 -5.168626e-11 1.457760e-09)) ((-2.938822e-14 2.529015e-10 5.307194e-15) (-4.935900e-13 1.208220e-06 1.753374e-13))
0.581959      	((-8.154892e-10 -4.942080e-10 -1.040806e-09) (1.057136e-10 -6.159820e-11 9.421957e-10)) ((-6.780709e-14 2.279453e-10 1.241375e-14) (1.047628e-14 1.085419e-06 3.033414e-13))
0.710351      	((-3.875245e-10 -8.201694e-10 7.682387e-10) (2.908594e-11 -7.975355e-11 5.878681e-10)) ((-8.305624e-14 2.042798e-10 3.237825e-14) (9.308979e-14 9.792695e-07 2.685131e-14))
0.864421      	((-1.370845e-09 -1.126103e-09 3.938886e-09) (7.582785e-11 -7.013308e-11 2.094855e-10)) ((-7.262808e-14 1.876044e-10 4.433160e-14) (-1.047293e-13 8.863041e-07 -9.808486e-13))
1.049306      	((1.580639e-09 -5.273937e-10 2.947768e-09) (3.513112e-10 -4.674111e-11 -7.952210e-11)) ((-2.724468e-14 1.759756e-10 5.914170e-14) (1.470505e-14 8.039534e-07 -1.687651e-12))
1.271167      	((-2.387192e-09 -3.958571e-10 4.222135e-09) (3.087802e-10 -1.550180e-11 -3.257945e-10)) ((-1.891449e-14 1.652306e-10 4.520418e-14) (1.810294e-12 7.303524e-07 -7.923956e-13))
1.5374        	((-4.933762e-10 4.788734e-10 3.332432e-09) (2.254854e-10 -1.268819e-11 -5.053631e-10)) ((3.750024e-14 1.521047e-10 6.942097e-14) (4.074984e-12 6.642792e-07 3.431747e-13))
1.85688       	((-1.510119e-09 -5.805822e-10 4.048868e-09) (2.415957e-10 -5.494244e-11 -4.511349e-10)) ((8.576492e-14 1.379341e-10 1.024811e-13) (5.440388e-12 6.050696e-07 1.898889e-12))
2.240256      	((-1.991258e-09 1.898020e-10 1.205147e-09) (2.263244e-10 -1.024989e-10 -4.299055e-10)) ((9.672676e-14 1.259964e-10 9.503119e-14) (6.863733e-12 5.523644e-07 5.640486e-12))
2.700307      	((-2.162691e-09 6.748345e-11 3.406851e-09) (2.723587e-10 -1.379155e-10 -4.868012e-10)) ((7.687833e-14 1.164958e-10 6.859221e-14) (7.834203e-12 5.058271e-07 9.069775e-12))
3.252369      	((-1.297727e-09 1.121425e-10 9.786491e-10) (4.135715e-10 -1.596387e-10 -7.083851e-10)) ((4.378028e-14 1.073641e-10 2.525962e-14) (8.347940e-12 4.649642e-07 1.117094e-11))
3.914842      	((7.380486e-10 4.246898e-10 2.008904e-09) (5.094060e-10 -1.562381e-10 -6.615887e-10)) ((3.726697e-14 9.800042e-11 -3.705496e-15) (9.296873e-12 4.290846e-07 1.338004e-11))
4.709811      	((1.422562e-09 9.201821e-11 1.843097e-09) (5.752660e-10 -1.518645e-10 -5.280060e-10)) ((5.004871e-14 8.906591e-11 4.692883e-15) (1.053910e-11 3.973764e-07 1.329951e-11))
5.663773      	((1.622764e-09 3.505362e-10 8.297538e-10) (7.171427e-10 -1.687139e-10 -3.732434e-10)) ((5.499181e-14 8.051430e-11 1.352914e-14) (1.137205e-11 3.690427e-07 1.053236e-11))
6.808528      	((1.573384e-09 5.532145e-10 8.681446e-10) (5.951828e-10 -2.343957e-10 -1.988137e-11)) ((6.810572e-14 7.260218e-11 1.311895e-14) (1.038339e-11 3.434353e-07 8.310918e-12))
8.182233      	((1.890239e-09 1.699309e-10 6.341297e-10) (4.080457e-10 -2.936448e-10 1.975961e-10)) ((5.294635e-14 6.549352e-11 -3.295676e-15) (9.155412e-12 3.201019e-07 6.746677e-12))
9.83068       	((8.244488e-10 -1.712626e-10 9.320312e-10) (2.072188e-10 -2.965392e-10 4.158082e-10)) ((4.792255e-14 5.892336e-11 -2.991105e-15) (6.900570e-12 2.987154e-07 6.095033e-12))
11.808816     	((4.935924e-12 -2.307499e-10 7.409746e-10) (-5.933754e-11 -2.465913e-10 3.346802e-10)) ((3.692173e-14 5.298119e-11 -4.458820e-14) (5.303370e-12 2.790115e-07 6.967145e-12))
14.182579     	((4.272060e-12 -4.012859e-10 8.080068e-10) (-1.915747e-10 -2.421066e-10 2.168962e-10)) ((7.144419e-14 4.774933e-11 -4.310102e-14) (3.658943e-12 2.608270e-07 7.503127e-12))
17.031095     	((2.293960e-10 -3.010727e-10 3.612085e-10) (-3.619373e-10 -2.262374e-10 2.642262e-10)) ((1.001449e-13 4.311202e-11 -5.138511e-14) (1.357241e-12 2.440936e-07 6.854862e-12))
20.449314     	((-8.152591e-10 -1.609592e-10 1.077660e-10) (-3.597522e-10 -1.657696e-10 2.219934e-10)) ((1.366346e-13 3.915496e-11 -3.964710e-14) (-1.010010e-12 2.288070e-07 6.387730e-12))
24.551176     	((-4.964377e-10 -1.447614e-10 -3.788478e-10) (-1.675671e-10 -1.473677e-10 1.799484e-10)) ((1.485636e-13 3.580076e-11 -3.055402e-14) (-3.389230e-12 2.149496e-07 6.704500e-12))
29.473411     	((-2.103167e-10 -2.656414e-11 1.244013e-10) (-1.814113e-10 -1.128767e-10 1.340163e-10)) ((1.423684e-13 3.298827e-11 -2.301481e-14) (-4.493731e-12 2.024425e-07 7.709602e-12))
35.380094     	((-2.952428e-10 8.471132e-11 8.896207e-11) (-1.973269e-10 -6.907564e-11 8.368533e-11)) ((1.096782e-13 3.067937e-11 -2.876593e-14) (-5.533929e-12 1.911814e-07 9.040051e-12))
42.468112     	((-9.053462e-11 9.070698e-11 2.084340e-10) (-1.960044e-10 -3.918165e-11 -1.763923e-11)) ((9.621522e-14 2.847031e-11 -3.348279e-14) (-6.006926e-12 1.810461e-07 9.730943e-12))
50.973735     	((-2.306445e-11 -5.276341e-11 2.935364e-10) (-2.192317e-10 -2.749984e-11 1.151383e-11)) ((8.958276e-14 2.655436e-11 -2.810931e-14) (-5.835905e-12 1.718935e-07 9.414499e-12))
61.180482     	((-2.048225e-10 -8.457833e-11 1.585701e-10) (-2.826478e-10 -2.549445e-11 4.221396e-11)) ((8.617592e-14 2.492171e-11 -2.298825e-14) (-6.129559e-12 1.636010e-07 8.336577e-12))
73.428578     	((1.582875e-11 -1.638286e-11 3.995048e-10) (-3.705964e-10 -6.769812e-12 1.306777e-10)) ((7.650396e-14 2.337315e-11 -1.473875e-14) (-6.259056e-12 1.560883e-07 7.171812e-12))
88.126294     	((-1.237496e-10 -1.076624e-10 2.531136e-10) (-4.128750e-10 1.207215e-11 1.631481e-10)) ((7.174629e-14 2.202194e-11 -3.815610e-15) (-5.832889e-12 1.493144e-07 5.949196e-12))
105.763553    	((-3.709767e-10 -4.743606e-11 2.733390e-10) (-3.371715e-10 1.472726e-11 5.593080e-11)) ((6.322845e-14 2.068181e-11 -8.088885e-15) (-5.338188e-12 1.432575e-07 4.119051e-12))
126.623881    	((-5.896799e-10 -1.192692e-10 9.907980e-11) (-1.903866e-10 -1.415483e-11 1.081035e-10)) ((6.208777e-14 1.953783e-11 -1.322147e-14) (-5.060234e-12 1.379240e-07 2.436629e-12))
150.706664    	((-7.900330e-10 -9.068559e-11 -1.779210e-11) (-3.207865e-11 -4.046764e-11 1.498056e-10)) ((5.775128e-14 1.856472e-11 -1.448377e-14) (-4.678129e-12 1.333093e-07 4.636678e-13))
178.011213    	((-1.000256e-09 -1.155145e-10 -1.313558e-10) (-4.252550e-11 -3.937913e-11 1.760534e-10)) ((5.542975e-14 1.778633e-11 -1.251487e-14) (-4.187639e-12 1.293698e-07 -1.437760e-12))
208.53673     	((-1.002399e-09 -2.908667e-11 -6.850956e-11) (-1.190201e-10 -1.481153e-11 1.712275e-10)) ((5.254999e-14 1.712729e-11 -2.849676e-15) (-4.111235e-12 1.260485e-07 -2.416838e-12))
240.736791    	((-8.631518e-10 -9.774810e-11 -2.686445e-11) (-1.551449e-10 1.029670e-11 1.182141e-10)) ((4.860959e-14 1.660608e-11 4.930817e-15) (-4.836142e-12 1.233433e-07 -2.483345e-12))
272.926364    	((-6.970912e-10 -1.042727e-10 8.751309e-11) (-8.555202e-11 1.486185e-11 1.394387e-10)) ((4.685551e-14 1.622287e-11 7.463404e-15) (-5.774592e-12 1.212182e-07 -1.996932e-12))
305.105192    	((-4.350455e-10 -8.780429e-11 1.448150e-10) (9.331835e-12 2.900783e-11 1.862414e-10)) ((4.779827e-14 1.592261e-11 8.115560e-15) (-6.393441e-12 1.195953e-07 -1.386972e-12))
337.27291     	((-2.731183e-10 -2.517846e-11 1.917272e-10) (7.081377e-11 4.704211e-11 1.988266e-10)) ((4.789093e-14 1.569418e-11 8.129684e-15) (-6.599873e-12 1.183998e-07 -7.265447e-13))
369.42909     	((-1.745772e-10 4.438096e-11 2.018295e-10) (8.642071e-11 6.297786e-11 2.099133e-10)) ((5.105850e-14 1.550518e-11 4.479328e-15) (-6.228821e-12 1.175612e-07 -1.648984e-13))
401.573652    	((-8.455307e-11 5.424509e-11 2.615767e-10) (6.413499e-11 6.467868e-11 2.447735e-10)) ((5.444300e-14 1.534980e-11 2.772649e-15) (-5.716720e-12 1.170206e-07 1.363243e-13))
433.706911    	((-3.485114e-11 4.559889e-11 2.096561e-10) (3.539677e-11 4.909360e-11 2.577913e-10)) ((5.779632e-14 1.522409e-11 2.751015e-16) (-5.282256e-12 1.167296e-07 6.487536e-14))
465.829123    	((2.594027e-12 4.252161e-11 2.329712e-10) (1.862674e-11 3.557327e-11 2.854826e-10)) ((6.054827e-14 1.513356e-11 -1.442535e-15) (-4.927722e-12 1.166491e-07 -2.765056e-13))
497.940573    	((1.094934e-11 3.652713e-11 1.864587e-10) (2.816392e-11 2.639123e-11 3.065280e-10)) ((6.289726e-14 1.509191e-11 -1.657382e-15) (-4.706384e-12 1.167452e-07 -4.702446e-13))
530.041784    	((-2.385408e-12 3.822597e-11 2.195086e-10) (2.482369e-11 2.227461e-11 3.211601e-10)) ((6.591025e-14 1.509175e-11 -2.395845e-15) (-4.693192e-12 1.169873e-07 -4.826403e-13))
562.133268    	((5.242895e-12 3.514097e-11 2.438709e-10) (3.123766e-11 1.709364e-11 3.432054e-10)) ((6.936492e-14 1.513754e-11 -2.997642e-15) (-4.871061e-12 1.173491e-07 -3.458577e-13))
594.215351    	((-1.357669e-11 3.925675e-11 2.875000e-10) (4.728939e-11 1.346304e-11 3.639895e-10)) ((7.216984e-14 1.519969e-11 -3.732005e-15) (-5.008317e-12 1.178074e-07 -1.542914e-13))
626.288404    	((-1.552389e-11 1.076385e-11 2.901097e-10) (6.706028e-11 8.115874e-12 3.821069e-10)) ((7.509904e-14 1.526409e-11 -3.732946e-15) (-5.158700e-12 1.183412e-07 2.208492e-13))
658.352981    	((2.715792e-11 8.701870e-12 2.947451e-10) (6.208571e-11 4.816772e-12 3.987172e-10)) ((7.741998e-14 1.534162e-11 -3.998707e-15) (-5.322790e-12 1.189300e-07 6.239689e-13))
690.409733    	((4.812912e-11 7.419532e-12 3.077195e-10) (6.222289e-11 6.495545e-12 4.065968e-10)) ((7.971449e-14 1.542962e-11 -4.186579e-15) (-5.418222e-12 1.195548e-07 9.847921e-13))
722.459263    	((8.253988e-11 4.274031e-12 3.196621e-10) (6.527597e-11 9.950446e-12 3.975761e-10)) ((8.105814e-14 1.552589e-11 -4.517195e-15) (-5.409823e-12 1.201983e-07 1.282238e-12))
754.502303    	((1.167906e-10 6.321696e-12 3.184200e-10) (6.605847e-11 1.505522e-11 3.885608e-10)) ((8.268921e-14 1.562716e-11 -4.716178e-15) (-5.319775e-12 1.208447e-07 1.464348e-12))
