# Forces      
# CofR        : (0.000000e+00 0.000000e+00 0.000000e+00)
# Time        forces(pressure viscous)	moments(pressure viscous)
0             	((0.000000e+00 0.000000e+00 0.000000e+00) (0.000000e+00 0.000000e+00 0.000000e+00)) ((0.000000e+00 0.000000e+00 0.000000e+00) (0.000000e+00 0.000000e+00 0.000000e+00))
0.012         	((1.074302e-12 -1.797202e-12 -4.319134e-10) (1.185163e-15 -9.477931e-15 -9.071736e-12)) ((1.949117e-16 -1.680070e-11 8.914295e-18) (-2.256397e-17 -1.109884e-08 6.560097e-16))
0.0264        	((-1.805632e-12 1.908138e-12 1.623853e-10) (1.505575e-15 -2.682336e-14 -1.577504e-11)) ((4.137447e-17 -8.409135e-12 -8.178224e-16) (-3.018784e-16 -1.016567e-08 9.261346e-16))
0.04368       	((-6.319775e-12 -1.034339e-11 -1.504460e-10) (-1.622028e-14 -2.010270e-14 -1.709961e-11)) ((-1.525575e-16 -4.637124e-12 -5.320254e-16) (5.064319e-16 -9.206692e-09 1.333179e-15))
0.064416      	((1.823775e-12 2.849975e-12 -5.663588e-12) (-5.042514e-14 1.489144e-14 -1.413763e-11)) ((-3.200290e-18 -2.638707e-12 3.725161e-17) (1.704643e-15 -8.242830e-09 1.732498e-15))
0.0892992     	((-5.440241e-12 -3.193580e-12 -1.886444e-11) (-7.473307e-14 5.070288e-14 -1.175100e-11)) ((3.955211e-17 -1.958683e-12 3.987887e-18) (2.335450e-15 -7.302178e-09 1.782767e-15))
0.119159      	((2.203873e-12 8.527100e-13 -5.017867e-12) (-9.050815e-14 8.820177e-14 -9.961586e-12)) ((-2.763433e-17 -1.404732e-12 8.239416e-18) (3.134475e-15 -6.413667e-09 2.038023e-15))
0.154991      	((1.798808e-12 2.038392e-12 1.232521e-11) (-1.055674e-13 1.378812e-13 -8.021272e-12)) ((2.447295e-17 -1.109484e-12 -8.479959e-17) (4.164597e-15 -5.597761e-09 2.511136e-15))
0.197989      	((1.402801e-12 1.374705e-12 -1.334246e-12) (-1.119631e-13 1.780662e-13 -6.260669e-12)) ((3.681413e-17 -8.816851e-13 -8.523141e-17) (4.682149e-15 -4.874401e-09 2.887253e-15))
0.249587      	((-1.377161e-13 1.406409e-12 1.193604e-11) (-1.092668e-13 2.005045e-13 -4.941716e-12)) ((5.825496e-17 -7.266573e-13 1.650861e-17) (4.569247e-15 -4.254383e-09 2.507123e-15))
0.311504      	((1.622593e-13 -3.438247e-13 2.283481e-12) (-1.005572e-13 2.175783e-13 -3.845752e-12)) ((4.779439e-17 -6.047371e-13 8.596550e-17) (4.324173e-15 -3.736226e-09 1.706320e-15))
0.385805      	((7.646733e-13 -1.199440e-12 -3.216149e-14) (-9.359292e-14 2.236948e-13 -2.945481e-12)) ((1.434771e-17 -5.183777e-13 1.371305e-16) (4.232783e-15 -3.308763e-09 1.343720e-15))
0.474966      	((1.490702e-12 3.279348e-13 -2.526572e-12) (-7.789723e-14 2.383474e-13 -2.090733e-12)) ((1.288580e-17 -4.616258e-13 1.094861e-16) (4.027060e-15 -2.955175e-09 4.106711e-16))
0.581959      	((2.457446e-12 1.370979e-12 2.572170e-12) (-5.335902e-14 2.489925e-13 -1.376739e-12)) ((2.454179e-17 -4.134074e-13 3.997672e-17) (3.893224e-15 -2.657968e-09 -8.948515e-16))
0.710351      	((3.494006e-12 1.928367e-12 -5.905579e-12) (-5.985334e-14 1.776553e-13 -1.228270e-12)) ((6.026011e-17 -3.669986e-13 3.742809e-17) (3.044905e-15 -2.402661e-09 1.726303e-16))
0.864421      	((3.691119e-12 1.625862e-12 -2.857935e-12) (-7.553694e-14 -2.063475e-14 -1.159288e-12)) ((8.403365e-17 -3.357022e-13 -5.537361e-17) (1.198157e-15 -2.178986e-09 3.134547e-15))
1.049306      	((5.587961e-12 1.547549e-12 2.530188e-13) (-1.286674e-13 -1.997112e-13 -7.402554e-13)) ((1.240117e-16 -3.157703e-13 -4.645958e-17) (-1.138863e-15 -1.980184e-09 4.914337e-15))
1.271167      	((7.170755e-12 1.277875e-12 -5.784447e-12) (-2.351472e-13 -2.876535e-13 -3.251368e-13)) ((4.937341e-17 -2.953391e-13 -9.170027e-17) (-4.443673e-15 -1.801705e-09 3.762751e-15))
1.5374        	((7.208291e-12 -5.612530e-13 -6.915606e-12) (-3.986811e-13 -3.197417e-13 2.233709e-13)) ((-8.780610e-17 -2.715947e-13 -1.405375e-16) (-8.948858e-15 -1.640587e-09 6.687055e-16))
1.85688       	((6.998955e-12 8.452788e-13 -4.713394e-12) (-5.998452e-13 -3.517741e-13 1.069299e-12)) ((-1.682252e-16 -2.506806e-13 -6.297161e-17) (-1.559568e-14 -1.495226e-09 -5.639105e-15))
2.240256      	((6.632872e-12 4.036981e-13 -5.956875e-12) (-8.873860e-13 -2.904925e-13 1.613703e-12)) ((-1.755914e-16 -2.372000e-13 -4.275369e-17) (-2.165048e-14 -1.364791e-09 -1.396431e-14))
2.700307      	((6.308090e-12 7.574672e-14 -5.089537e-12) (-1.390520e-12 -1.850231e-13 1.913710e-12)) ((-1.602974e-16 -2.274480e-13 -5.783613e-17) (-3.143399e-14 -1.248693e-09 -3.128591e-14))
3.252369      	((4.740767e-12 4.260648e-13 -3.372607e-12) (-2.036903e-12 -1.014317e-13 2.977304e-12)) ((-1.905148e-16 -2.176831e-13 -9.244405e-17) (-4.432303e-14 -1.146143e-09 -5.239049e-14))
3.914842      	((2.067735e-12 4.052652e-13 -1.021973e-12) (-2.664677e-12 1.587272e-14 4.693804e-12)) ((-9.367159e-17 -2.063385e-13 -1.560475e-16) (-5.355286e-14 -1.055942e-09 -6.267234e-14))
4.709811      	((9.282108e-13 2.522618e-14 7.635813e-13) (-3.351230e-12 1.706094e-13 5.362788e-12)) ((-1.190710e-16 -1.937210e-13 -1.271969e-16) (-6.117259e-14 -9.764160e-10 -7.088619e-14))
5.663773      	((-5.672117e-14 3.255108e-13 -1.409131e-12) (-3.768112e-12 1.640792e-13 5.024944e-12)) ((-1.145344e-16 -1.799932e-13 -4.018978e-17) (-6.488758e-14 -9.056964e-10 -7.187072e-14))
6.808528      	((-9.817321e-13 5.023543e-13 -3.275687e-13) (-3.738884e-12 6.069770e-14 4.860062e-12)) ((-1.233263e-16 -1.659991e-13 6.086648e-17) (-6.227477e-14 -8.421220e-10 -6.502692e-14))
8.182233      	((-1.393320e-12 -1.316132e-14 2.188735e-13) (-3.463647e-12 8.820676e-14 4.465451e-12)) ((-1.121396e-16 -1.523891e-13 4.302264e-17) (-5.468217e-14 -7.844054e-10 -5.963381e-14))
9.83068       	((-1.400436e-12 6.053959e-13 -3.270777e-13) (-2.992034e-12 1.344297e-13 3.416248e-12)) ((-7.653535e-17 -1.384288e-13 4.632511e-17) (-4.477468e-14 -7.315714e-10 -5.188921e-14))
11.808816     	((8.609434e-14 2.474147e-13 -1.344768e-12) (-2.341559e-12 -1.207040e-14 2.130954e-12)) ((-8.019980e-17 -1.258607e-13 8.493198e-17) (-3.612930e-14 -6.829419e-10 -3.927697e-14))
14.182579     	((3.253328e-13 2.364288e-13 -1.908461e-12) (-1.673863e-12 -3.166005e-13 1.445799e-12)) ((-5.627055e-17 -1.143909e-13 1.112548e-16) (-2.828056e-14 -6.381281e-10 -2.160866e-14))
17.031095     	((5.506750e-13 3.431565e-13 -1.543101e-12) (-1.130608e-12 -3.979711e-13 9.802997e-13)) ((7.974474e-19 -1.045280e-13 1.303145e-16) (-1.959800e-14 -5.969276e-10 -1.000795e-14))
20.449314     	((5.505891e-13 1.318373e-13 -1.916151e-12) (-7.178258e-13 -2.658458e-13 5.917107e-13)) ((-1.477947e-18 -9.579299e-14 1.503516e-16) (-1.147817e-14 -5.592085e-10 -6.660743e-15))
24.551176     	((5.955398e-13 -8.624385e-14 -1.819676e-12) (-4.554260e-13 -1.431828e-13 5.031399e-13)) ((1.603494e-18 -8.801058e-14 1.573578e-16) (-6.171810e-15 -5.247421e-10 -5.176627e-15))
29.473411     	((4.955903e-13 2.891375e-14 -1.987678e-12) (-3.149522e-13 -7.054981e-14 6.183343e-13)) ((2.040348e-17 -8.150255e-14 1.445482e-16) (-4.068500e-15 -4.932869e-10 -4.088504e-15))
35.380094     	((7.888461e-13 -3.394499e-15 -1.812390e-12) (-2.519844e-13 1.067648e-15 7.403119e-13)) ((1.991029e-17 -7.573038e-14 1.390323e-16) (-2.900859e-15 -4.645858e-10 -3.335793e-15))
42.468112     	((5.694260e-13 -2.828018e-14 -1.586715e-12) (-2.516047e-13 3.660891e-14 7.904712e-13)) ((1.174981e-17 -7.076922e-14 1.090156e-16) (-2.658881e-15 -4.383948e-10 -3.733481e-15))
50.973735     	((4.424634e-13 -4.910337e-14 -1.342334e-12) (-2.818081e-13 6.451906e-14 7.369979e-13)) ((5.103395e-18 -6.636202e-14 8.751387e-17) (-3.192533e-15 -4.145169e-10 -5.326738e-15))
61.180482     	((5.630533e-13 -5.225692e-14 -1.264503e-12) (-3.050186e-13 7.870976e-14 6.525039e-13)) ((1.150874e-17 -6.239808e-14 7.857013e-17) (-4.779849e-15 -3.927785e-10 -8.118350e-15))
73.428578     	((3.409887e-13 -6.210927e-14 -9.537252e-13) (-3.431419e-13 7.004794e-14 6.077650e-13)) ((2.061003e-17 -5.885592e-14 6.510964e-17) (-6.397027e-15 -3.730390e-10 -9.651782e-15))
88.126294     	((2.864033e-13 -3.377272e-15 -1.128962e-12) (-3.931974e-13 6.955577e-14 6.402522e-13)) ((2.479705e-17 -5.567426e-14 4.129422e-17) (-7.431629e-15 -3.551484e-10 -1.086767e-14))
105.763553    	((1.527331e-13 -2.769287e-15 -9.016145e-13) (-4.514364e-13 6.511628e-14 6.976686e-13)) ((3.514746e-17 -5.265449e-14 2.775951e-17) (-8.387690e-15 -3.389640e-10 -1.227516e-14))
126.928263    	((1.083110e-13 3.932443e-14 -8.035715e-13) (-5.017534e-13 6.469659e-14 6.908721e-13)) ((4.185934e-17 -4.991412e-14 1.990773e-17) (-8.339636e-15 -3.243352e-10 -1.305574e-14))
152.325916    	((6.742469e-14 4.404329e-14 -5.453858e-13) (-4.989647e-13 5.704360e-14 6.801476e-13)) ((3.776153e-17 -4.748221e-14 1.805148e-17) (-8.363279e-15 -3.111072e-10 -1.339390e-14))
182.803099    	((-4.314392e-14 5.541614e-14 -3.464410e-13) (-4.669629e-13 5.737774e-14 6.956672e-13)) ((3.164664e-17 -4.526960e-14 1.981102e-17) (-8.715675e-15 -2.991228e-10 -1.374567e-14))
219.375719    	((-5.504258e-14 2.449757e-14 -2.352832e-13) (-4.177236e-13 4.738960e-14 7.794931e-13)) ((3.423023e-17 -4.326920e-14 1.885294e-17) (-9.000989e-15 -2.882385e-10 -1.363049e-14))
263.262863    	((-6.117198e-14 3.237739e-14 -4.373715e-14) (-4.064986e-13 3.302238e-14 9.499212e-13)) ((3.313585e-17 -4.145243e-14 1.583023e-17) (-9.548047e-15 -2.783386e-10 -1.309052e-14))
315.927436    	((-1.259621e-13 2.982776e-14 5.219727e-14) (-4.054680e-13 1.559832e-14 1.093975e-12)) ((2.317738e-17 -3.980832e-14 1.047638e-17) (-1.027841e-14 -2.693290e-10 -1.290561e-14))
379.124923    	((-1.839403e-13 3.356007e-14 1.601177e-13) (-4.050336e-13 1.197437e-14 1.214842e-12)) ((1.632272e-17 -3.830817e-14 4.048132e-18) (-1.070443e-14 -2.611379e-10 -1.290438e-14))
454.961908    	((-7.702991e-14 2.088471e-14 2.335738e-13) (-4.015262e-13 9.526807e-15 1.306120e-12)) ((1.111582e-17 -3.693492e-14 -1.900433e-18) (-1.061336e-14 -2.537100e-10 -1.252522e-14))
545.966289    	((-6.387662e-14 2.756506e-15 1.954817e-13) (-4.067927e-13 1.182963e-14 1.364125e-12)) ((6.370765e-18 -3.566759e-14 -6.162155e-18) (-1.023116e-14 -2.469924e-10 -1.204298e-14))
655.171547    	((-1.315959e-13 1.702328e-14 1.807936e-13) (-4.114858e-13 5.776396e-15 1.382519e-12)) ((2.133360e-18 -3.452671e-14 -8.765613e-18) (-9.804604e-15 -2.409359e-10 -1.121385e-14))
786.217856    	((-1.537539e-13 3.241447e-14 1.753516e-13) (-4.039875e-13 5.687317e-15 1.375070e-12)) ((-7.951011e-19 -3.349410e-14 -1.014218e-17) (-9.214661e-15 -2.355001e-10 -1.056325e-14))
943.473427    	((-1.378413e-13 -4.137629e-15 7.928662e-14) (-3.912226e-13 1.151827e-14 1.344670e-12)) ((-8.646019e-19 -3.258668e-14 -7.642306e-18) (-8.764053e-15 -2.306451e-10 -1.009092e-14))
1132.180113   	((-1.376509e-13 -2.774150e-14 4.116881e-14) (-3.752877e-13 1.338806e-14 1.311348e-12)) ((-1.793071e-18 -3.178938e-14 -4.207015e-18) (-8.312402e-15 -2.263293e-10 -9.502819e-15))
1358.628135   	((-1.042695e-13 -3.196171e-14 -5.974885e-15) (-3.600426e-13 1.243830e-14 1.270910e-12)) ((-4.054207e-18 -3.108183e-14 -1.241118e-18) (-7.878527e-15 -2.225141e-10 -8.853041e-15))
1630.365763   	((-1.324518e-13 -3.796150e-14 1.204093e-14) (-3.443034e-13 1.040382e-14 1.228782e-12)) ((-5.343770e-18 -3.045291e-14 2.370769e-18) (-7.390798e-15 -2.191604e-10 -8.192375e-15))
1956.450915   	((-1.484223e-13 -3.658025e-14 9.335722e-15) (-3.290754e-13 4.881637e-15 1.199209e-12)) ((-4.340029e-18 -2.990752e-14 6.342688e-18) (-6.981337e-15 -2.162298e-10 -7.627278e-15))
2347.753098   	((-1.101669e-13 -2.490324e-14 1.699804e-14) (-3.138998e-13 -6.753986e-15 1.180162e-12)) ((-4.394918e-18 -2.943443e-14 7.811313e-18) (-6.659471e-15 -2.136839e-10 -7.081225e-15))
2817.315718   	((-7.125808e-14 -1.717988e-14 1.379853e-14) (-2.987978e-13 -1.757624e-14 1.163614e-12)) ((-4.924631e-18 -2.902736e-14 6.600843e-18) (-6.339700e-15 -2.114854e-10 -6.513762e-15))
3380.790861   	((-5.082748e-14 -1.558634e-14 1.501228e-14) (-2.839664e-13 -2.518124e-14 1.154237e-12)) ((-4.885096e-18 -2.868390e-14 4.518150e-18) (-5.971159e-15 -2.095997e-10 -5.985424e-15))
4056.961033   	((-3.729372e-14 -6.460582e-15 4.929357e-15) (-2.710032e-13 -3.093055e-14 1.151170e-12)) ((-4.716779e-18 -2.839189e-14 2.339039e-18) (-5.653118e-15 -2.079938e-10 -5.566204e-15))
4868.36524    	((-2.845107e-14 4.737117e-15 -1.422791e-15) (-2.583006e-13 -3.450260e-14 1.146946e-12)) ((-4.991388e-18 -2.814421e-14 1.233629e-18) (-5.417174e-15 -2.066360e-10 -5.231666e-15))
5842.050288   	((-3.203346e-14 2.083852e-14 7.707529e-15) (-2.455189e-13 -3.358436e-14 1.140035e-12)) ((-6.480009e-18 -2.793281e-14 1.665540e-18) (-5.169113e-15 -2.054960e-10 -4.967341e-15))
7010.472346   	((-4.487338e-14 3.857877e-14 3.601116e-14) (-2.269718e-13 -3.067157e-14 1.132169e-12)) ((-6.608289e-18 -2.775284e-14 3.530989e-18) (-4.916711e-15 -2.045456e-10 -4.813906e-15))
8412.578815   	((-4.060221e-14 5.912225e-14 4.599889e-14) (-2.062459e-13 -2.851158e-14 1.124691e-12)) ((-8.568169e-18 -2.760361e-14 4.857570e-18) (-4.726607e-15 -2.037589e-10 -4.630827e-15))
10095.106578  	((-3.516653e-14 8.268332e-14 5.594974e-14) (-1.935805e-13 -2.581189e-14 1.117891e-12)) ((-9.706543e-18 -2.748231e-14 5.526917e-18) (-4.617833e-15 -2.031125e-10 -4.498512e-15))
12114.139893  	((-3.266530e-14 1.027900e-13 7.309122e-14) (-1.836694e-13 -2.385907e-14 1.113266e-12)) ((-1.038875e-17 -2.738363e-14 6.314860e-18) (-4.537044e-15 -2.025846e-10 -4.348292e-15))
14536.979872  	((-3.507566e-14 1.208024e-13 9.713370e-14) (-1.760859e-13 -2.256261e-14 1.111003e-12)) ((-1.104884e-17 -2.730409e-14 7.043727e-18) (-4.469783e-15 -2.021559e-10 -4.205042e-15))
17444.387847  	((-4.251582e-14 1.373880e-13 1.248081e-13) (-1.692836e-13 -2.182965e-14 1.109754e-12)) ((-1.189537e-17 -2.724010e-14 7.447413e-18) (-4.407133e-15 -2.018098e-10 -4.090579e-15))
20933.277416  	((-4.929100e-14 1.534679e-13 1.531222e-13) (-1.631288e-13 -2.094854e-14 1.108938e-12)) ((-1.280465e-17 -2.718871e-14 7.573139e-18) (-4.343013e-15 -2.015315e-10 -4.001014e-15))
25119.944899  	((-5.414114e-14 1.699637e-13 1.840161e-13) (-1.576500e-13 -2.077480e-14 1.108476e-12)) ((-1.332704e-17 -2.714739e-14 7.752767e-18) (-4.310957e-15 -2.013088e-10 -3.912798e-15))
30143.945879  	((-5.954736e-14 1.843788e-13 2.191427e-13) (-1.529823e-13 -2.058848e-14 1.107879e-12)) ((-1.357982e-17 -2.711474e-14 7.787279e-18) (-4.301800e-15 -2.011312e-10 -3.829429e-15))
36172.747055  	((-6.456887e-14 2.010734e-13 2.587904e-13) (-1.490917e-13 -2.057619e-14 1.106961e-12)) ((-1.382171e-17 -2.708900e-14 7.696254e-18) (-4.314100e-15 -2.009900e-10 -3.761608e-15))
43407.308466  	((-6.804136e-14 2.235472e-13 3.063196e-13) (-1.455611e-13 -2.024551e-14 1.105407e-12)) ((-1.417241e-17 -2.706891e-14 7.403710e-18) (-4.348418e-15 -2.008781e-10 -3.710380e-15))
51927.365781  	((-6.346208e-14 2.586919e-13 3.666833e-13) (-1.411558e-13 -1.979657e-14 1.103188e-12)) ((-1.502303e-17 -2.705235e-14 5.981907e-18) (-4.414488e-15 -2.007895e-10 -3.725055e-15))
61732.926285  	((-6.783158e-14 2.848485e-13 4.325887e-13) (-1.393695e-13 -1.946621e-14 1.103645e-12)) ((-1.542445e-17 -2.704051e-14 6.036156e-18) (-4.398014e-15 -2.007197e-10 -3.678262e-15))
72823.995644  	((-6.710326e-14 3.120517e-13 5.101938e-13) (-1.380883e-13 -1.905481e-14 1.104537e-12)) ((-1.574453e-17 -2.703131e-14 6.044986e-18) (-4.375844e-15 -2.006648e-10 -3.624298e-15))
85200.578255  	((-5.459599e-14 3.415106e-13 5.945101e-13) (-1.373722e-13 -1.869312e-14 1.105828e-12)) ((-1.619530e-17 -2.702351e-14 6.181057e-18) (-4.354120e-15 -2.006216e-10 -3.584353e-15))
98055.744919  	((-2.141369e-14 3.693155e-13 6.867669e-13) (-1.366632e-13 -1.844615e-14 1.107584e-12)) ((-1.692684e-17 -2.701618e-14 6.114767e-18) (-4.353162e-15 -2.005877e-10 -3.555528e-15))
110910.938192 	((3.207717e-14 3.669983e-13 7.939524e-13) (-1.365252e-13 -1.992909e-14 1.109567e-12)) ((-1.718719e-17 -2.700267e-14 6.662550e-18) (-4.335461e-15 -2.005613e-10 -3.494977e-15))
123766.152049 	((8.054625e-14 3.627915e-13 8.962387e-13) (-1.354106e-13 -1.821379e-14 1.111272e-12)) ((-2.089071e-17 -2.699756e-14 7.523382e-18) (-4.411657e-15 -2.005405e-10 -3.409141e-15))
136621.381666 	((1.475381e-13 3.476300e-13 9.706215e-13) (-1.422647e-13 -2.054746e-14 1.110084e-12)) ((-1.916728e-17 -2.697791e-14 9.694523e-18) (-4.282753e-15 -2.005245e-10 -3.447017e-15))
149476.623523 	((1.995346e-13 3.285972e-13 1.169482e-12) (-1.444026e-13 -2.480134e-14 1.112582e-12)) ((-1.810313e-17 -2.696649e-14 9.548088e-18) (-4.046855e-15 -2.005120e-10 -3.484125e-15))
162331.875231 	((3.005234e-13 3.154334e-13 1.354450e-12) (-1.429797e-13 -2.656265e-14 1.108707e-12)) ((-2.084451e-17 -2.694367e-14 3.603098e-18) (-4.146561e-15 -2.005028e-10 -3.408738e-15))
175187.134961 	((4.179355e-13 3.263826e-13 1.499870e-12) (-1.423742e-13 -2.613655e-14 1.106261e-12)) ((-1.267116e-17 -2.692850e-14 7.686674e-18) (-4.166535e-15 -2.004955e-10 -3.343232e-15))
188042.401669 	((5.232151e-13 2.589506e-13 1.701394e-12) (-1.400441e-13 -2.424557e-14 1.107541e-12)) ((-2.793875e-17 -2.689712e-14 9.641564e-18) (-4.207364e-15 -2.004900e-10 -3.517402e-15))
200897.675246 	((5.986180e-13 2.771221e-13 1.890963e-12) (-1.359993e-13 -3.025086e-14 1.118312e-12)) ((-2.277772e-17 -2.687158e-14 1.044067e-17) (-3.872168e-15 -2.004858e-10 -3.593058e-15))
213752.954423 	((7.194484e-13 2.259947e-13 2.054341e-12) (-1.298067e-13 -2.930532e-14 1.126805e-12)) ((-1.249883e-17 -2.685957e-14 1.200283e-17) (-3.816632e-15 -2.004816e-10 -3.240538e-15))
226608.239096 	((8.304448e-13 2.536329e-13 2.183243e-12) (-1.213208e-13 -3.475410e-14 1.128494e-12)) ((-1.212551e-17 -2.684637e-14 1.261630e-17) (-4.056310e-15 -2.004773e-10 -3.455931e-15))
239463.529208 	((9.841889e-13 2.473221e-13 2.294050e-12) (-1.171461e-13 -3.665504e-14 1.133688e-12)) ((-1.181476e-17 -2.683030e-14 1.399463e-17) (-4.043757e-15 -2.004730e-10 -3.438808e-15))
252318.824188 	((1.247963e-12 2.797626e-13 2.384348e-12) (-1.089346e-13 -3.965374e-14 1.137308e-12)) ((-9.781677e-18 -2.681629e-14 1.242213e-17) (-3.887418e-15 -2.004687e-10 -3.533947e-15))
265174.123901 	((1.520898e-12 3.000494e-13 2.357385e-12) (-9.611883e-14 -4.067879e-14 1.130303e-12)) ((-6.463309e-18 -2.680100e-14 1.191368e-17) (-3.938270e-15 -2.004645e-10 -3.487605e-15))
278029.427613 	((1.761644e-12 2.981754e-13 2.206337e-12) (-7.367511e-14 -3.959506e-14 1.125033e-12)) ((-6.085186e-18 -2.677962e-14 1.159442e-17) (-3.894026e-15 -2.004603e-10 -3.540762e-15))
290884.734779 	((1.923863e-12 2.735507e-13 1.986928e-12) (-5.771126e-14 -3.692427e-14 1.111098e-12)) ((-6.054095e-18 -2.676846e-14 1.038123e-17) (-3.795462e-15 -2.004559e-10 -3.590354e-15))
303740.045166 	((1.982150e-12 2.405360e-13 1.739889e-12) (-5.232966e-14 -3.389700e-14 1.097266e-12)) ((-6.712123e-18 -2.676307e-14 8.739005e-18) (-3.747405e-15 -2.004513e-10 -3.654716e-15))
