# Forces      
# CofR        : (0.000000e+00 0.000000e+00 0.000000e+00)
# Time        forces(pressure viscous)	moments(pressure viscous)
0             	((0.000000e+00 0.000000e+00 0.000000e+00) (0.000000e+00 0.000000e+00 0.000000e+00)) ((0.000000e+00 0.000000e+00 0.000000e+00) (0.000000e+00 0.000000e+00 0.000000e+00))
0.012         	((1.780978e-10 -2.861413e-10 -6.848283e-08) (1.496725e-12 -1.503596e-12 -1.440666e-09)) ((3.087727e-14 -2.668236e-09 1.357203e-15) (-8.427102e-15 -1.759058e-06 1.044896e-13))
0.0264        	((-3.043703e-10 2.968236e-10 2.573675e-08) (5.695794e-13 -4.279889e-12 -2.506249e-09)) ((6.699717e-15 -1.340919e-09 -1.296530e-13) (-5.452011e-14 -1.611194e-06 1.480715e-13))
0.04368       	((-1.267066e-09 -1.634198e-09 -2.386951e-08) (-4.649169e-12 -3.519661e-12 -2.725964e-09)) ((-2.465824e-14 -7.462541e-10 -8.400648e-14) (9.254601e-14 -1.459346e-06 2.279152e-13))
0.064416      	((4.749942e-10 4.177351e-10 -8.552018e-10) (-2.098606e-11 1.584294e-12 -2.243381e-09)) ((-3.777412e-15 -4.319386e-10 4.898438e-15) (3.233189e-13 -1.306914e-06 3.268348e-13))
0.0892992     	((-6.387950e-10 -4.893978e-10 -2.505167e-09) (-4.910882e-11 6.854700e-12 -1.832359e-09)) ((4.734855e-15 -3.257425e-10 -5.905338e-16) (4.767398e-13 -1.158433e-06 3.614462e-13))
0.119159      	((9.959374e-10 1.472618e-10 -5.125509e-10) (-6.330601e-11 1.208104e-11 -1.553514e-09)) ((-6.427078e-15 -2.384150e-10 7.934635e-16) (6.739706e-13 -1.018532e-06 4.304963e-13))
0.154991      	((3.305448e-11 4.055458e-10 1.957105e-09) (-6.670889e-11 2.012470e-11 -1.273744e-09)) ((3.253133e-15 -1.918317e-10 -1.391876e-14) (8.877236e-13 -8.904806e-07 4.877572e-13))
0.197989      	((-1.830478e-10 1.741232e-10 -2.217865e-10) (-7.442881e-11 2.715080e-11 -1.028130e-09)) ((4.308184e-15 -1.545016e-10 -1.260636e-14) (9.349862e-13 -7.770541e-07 5.287972e-13))
0.249587      	((-6.383657e-10 2.917547e-10 1.548206e-09) (-6.533412e-11 2.953880e-11 -8.654573e-10)) ((8.754926e-15 -1.285445e-10 7.479653e-15) (8.662291e-13 -6.796181e-07 5.313366e-13))
0.311504      	((-3.599819e-10 -9.034939e-11 -6.376345e-11) (-2.683644e-11 2.998505e-11 -7.432139e-10)) ((-2.377962e-15 -1.081755e-10 8.992258e-15) (8.850384e-13 -5.978529e-07 4.134868e-13))
0.385805      	((-4.782515e-10 -8.405322e-11 1.606414e-10) (2.621634e-12 2.796205e-11 -6.166949e-10)) ((2.167535e-15 -9.412979e-11 1.840579e-14) (8.567355e-13 -5.300057e-07 4.022850e-13))
0.474966      	((3.985728e-10 5.366756e-11 -8.444949e-10) (1.355393e-11 3.059461e-11 -4.808722e-10)) ((3.904912e-16 -8.466276e-11 1.457574e-14) (7.533017e-13 -4.734691e-07 4.775970e-13))
0.581959      	((-1.470607e-10 1.672943e-10 6.833812e-11) (2.614163e-11 3.992577e-11 -3.639618e-10)) ((1.414825e-15 -7.599426e-11 1.179445e-14) (6.432812e-13 -4.256544e-07 5.094353e-13))
0.710351      	((5.503198e-10 1.111410e-10 -1.023684e-09) (4.971423e-11 3.982265e-11 -2.602827e-10)) ((3.061026e-15 -6.781225e-11 1.528568e-14) (2.096812e-13 -3.844655e-07 3.825093e-13))
0.864421      	((7.390063e-10 1.358095e-10 -9.364299e-11) (1.040885e-10 2.505185e-11 -8.571928e-11)) ((9.029870e-15 -6.214421e-11 -1.444080e-15) (-4.977332e-14 -3.483779e-07 5.364472e-13))
1.049306      	((1.748644e-09 7.632121e-11 -8.085576e-10) (9.474416e-11 6.782564e-12 5.894014e-11)) ((4.763136e-15 -5.848785e-11 -3.636704e-15) (-3.380136e-14 -3.163435e-07 8.660206e-13))
1.271167      	((8.160740e-10 9.731686e-11 -5.809879e-10) (5.297512e-11 -9.857386e-12 1.732400e-10)) ((1.801202e-15 -5.508565e-11 -1.497311e-14) (-3.152452e-13 -2.876407e-07 8.436572e-13))
1.5374        	((1.571708e-09 -1.571725e-11 -1.146563e-09) (9.419515e-12 -2.827003e-11 2.480651e-10)) ((-1.593806e-14 -5.098549e-11 -2.308733e-14) (-8.557673e-13 -2.617950e-07 6.399895e-13))
1.85688       	((7.142519e-10 1.516473e-10 -1.120749e-09) (-6.968786e-11 -3.018814e-11 2.744894e-10)) ((-2.190797e-14 -4.680849e-11 -2.282215e-14) (-1.253230e-12 -2.385405e-07 -3.426468e-13))
2.240256      	((5.015852e-10 1.011613e-10 -1.379138e-09) (-1.504517e-10 -1.374440e-11 2.900403e-10)) ((-2.421029e-14 -4.344305e-11 -1.546201e-14) (-2.025282e-12 -2.177393e-07 -2.065207e-12))
2.700307      	((-4.558805e-10 1.552438e-10 -1.113448e-09) (-2.222237e-10 -1.020225e-12 2.882351e-10)) ((-1.387520e-14 -4.077113e-11 -2.730706e-14) (-3.027868e-12 -1.992859e-07 -4.077340e-12))
3.252369      	((-4.437686e-10 1.271449e-10 -9.372225e-10) (-2.984072e-10 1.146569e-11 3.487755e-10)) ((-4.604381e-15 -3.800492e-11 -2.907614e-14) (-4.184642e-12 -1.830325e-07 -5.932764e-12))
3.914842      	((-2.800918e-10 1.950204e-10 -1.861714e-10) (-3.508498e-10 2.443046e-11 4.252912e-10)) ((-5.213213e-16 -3.522655e-11 -4.026833e-14) (-5.821156e-12 -1.687559e-07 -7.127713e-12))
4.709811      	((2.103068e-10 1.655296e-10 2.530287e-10) (-3.961163e-10 2.621532e-11 4.685110e-10)) ((-5.501813e-15 -3.247900e-11 -3.676040e-14) (-6.517833e-12 -1.561575e-07 -7.425812e-12))
5.663773      	((3.778889e-10 1.166293e-10 2.655920e-10) (-4.066762e-10 1.686340e-11 4.676744e-10)) ((-1.963103e-14 -2.968443e-11 -2.434763e-14) (-6.367048e-12 -1.449309e-07 -7.105069e-12))
6.808528      	((2.539781e-11 -3.295199e-11 1.180550e-10) (-3.766495e-10 -3.292918e-12 3.993059e-10)) ((-1.758552e-14 -2.694396e-11 -4.572874e-15) (-6.056436e-12 -1.348165e-07 -6.352030e-12))
8.182233      	((1.001835e-10 2.169438e-11 1.634570e-10) (-3.444204e-10 -2.693154e-11 3.449618e-10)) ((-8.628309e-15 -2.442771e-11 5.680540e-16) (-5.195820e-12 -1.256145e-07 -5.436523e-12))
9.83068       	((1.640044e-10 -9.873393e-12 3.215664e-10) (-2.891067e-10 -4.124252e-11 3.107733e-10)) ((-1.322022e-14 -2.202531e-11 4.841680e-15) (-4.344575e-12 -1.171816e-07 -4.781851e-12))
11.808816     	((1.348390e-10 -8.142865e-11 -1.132228e-10) (-2.176197e-10 -5.929627e-11 2.433224e-10)) ((-6.867962e-15 -1.988088e-11 1.896268e-14) (-4.094239e-12 -1.094174e-07 -3.579920e-12))
14.182579     	((8.613416e-11 -8.772443e-11 -2.101887e-10) (-1.498989e-10 -5.544213e-11 1.635549e-10)) ((1.143222e-14 -1.798270e-11 3.038305e-14) (-3.481492e-12 -1.022541e-07 -2.512177e-12))
17.031095     	((5.599320e-11 -6.801540e-11 -2.010120e-10) (-1.299862e-10 -4.596693e-11 1.560410e-10)) ((2.677639e-14 -1.629690e-11 2.580386e-14) (-2.704641e-12 -9.565489e-08 -1.709518e-12))
20.449314     	((5.453969e-11 -4.618064e-11 -1.270394e-10) (-1.113910e-10 -4.555433e-11 1.469879e-10)) ((3.275605e-14 -1.485522e-11 2.113530e-14) (-2.065095e-12 -8.960875e-08 -7.627740e-13))
24.551176     	((2.876269e-11 -2.891908e-11 -1.318673e-10) (-1.007620e-10 -3.791481e-11 1.480433e-10)) ((3.698481e-14 -1.360415e-11 2.117288e-14) (-1.649328e-12 -8.409886e-08 -9.733729e-14))
29.473411     	((-3.936980e-12 -1.245840e-11 -1.237370e-10) (-9.661958e-11 -3.229005e-11 1.635778e-10)) ((4.281040e-14 -1.247939e-11 1.696536e-14) (-1.641211e-12 -7.909380e-08 4.332126e-13))
35.380094     	((-1.215959e-10 1.115291e-11 -1.257989e-10) (-1.149408e-10 -3.209990e-11 1.528026e-10)) ((4.167708e-14 -1.148042e-11 1.179009e-14) (-2.020397e-12 -7.455457e-08 8.715757e-13))
42.468112     	((-2.431623e-10 -8.570446e-12 -1.577646e-10) (-1.196523e-10 -2.790340e-11 1.359192e-10)) ((3.767527e-14 -1.059145e-11 4.685644e-15) (-2.465856e-12 -7.043797e-08 1.000788e-12))
50.973735     	((-1.508344e-10 -3.050649e-11 -1.488726e-10) (-9.936061e-11 -2.540222e-11 1.146854e-10)) ((3.541971e-14 -9.832098e-12 1.334844e-15) (-2.570501e-12 -6.670129e-08 7.040607e-13))
61.180482     	((-1.330581e-11 -4.992755e-11 -8.817100e-11) (-5.676861e-11 -2.052284e-11 1.153475e-10)) ((3.133298e-14 -9.158184e-12 6.105500e-15) (-2.551961e-12 -6.330588e-08 3.367247e-13))
73.428578     	((6.426151e-11 -1.422559e-11 -5.298495e-11) (-2.407327e-11 -8.678265e-12 1.121872e-10)) ((2.567471e-14 -8.566960e-12 5.190180e-15) (-2.464011e-12 -6.021840e-08 1.458479e-13))
88.126294     	((6.399240e-11 -7.432761e-12 -8.119859e-12) (-1.000868e-11 1.512683e-12 1.072527e-10)) ((2.081297e-14 -8.059734e-12 4.998851e-15) (-2.240358e-12 -5.740944e-08 -8.460575e-14))
105.763553    	((9.416221e-11 -2.716166e-12 -1.128543e-12) (4.072332e-12 1.272705e-11 1.063886e-10)) ((1.613878e-14 -7.618745e-12 3.276028e-15) (-1.943536e-12 -5.485905e-08 -3.856650e-13))
126.928263    	((8.616899e-11 -7.359532e-12 -1.616208e-11) (-4.372863e-12 1.995649e-11 1.085734e-10)) ((1.463904e-14 -7.221410e-12 2.756350e-15) (-1.718418e-12 -5.254849e-08 -7.181856e-13))
152.325916    	((7.978150e-11 6.734663e-12 -4.774336e-11) (-1.804417e-11 2.181373e-11 9.654188e-11)) ((1.430428e-14 -6.831953e-12 1.486107e-15) (-1.540371e-12 -5.046008e-08 -9.632002e-13))
182.803099    	((4.920036e-11 -5.941190e-12 -6.228232e-11) (-4.936516e-11 2.213280e-11 7.503751e-11)) ((1.445303e-14 -6.471999e-12 9.665027e-16) (-1.287149e-12 -4.857667e-08 -1.078744e-12))
219.375719    	((-7.096351e-12 -2.649567e-12 -1.067763e-10) (-5.374136e-11 2.236690e-11 5.184809e-11)) ((1.283485e-14 -6.153563e-12 6.743159e-16) (-9.163695e-13 -4.688234e-08 -1.134748e-12))
263.262863    	((-1.392142e-11 1.028259e-11 -1.385099e-10) (-5.645410e-11 2.607484e-11 4.048297e-11)) ((1.155856e-14 -5.882090e-12 1.481517e-15) (-3.703310e-13 -4.536277e-08 -1.231750e-12))
315.243553    	((-3.243940e-11 2.740682e-12 -1.586893e-10) (-7.086958e-11 2.661909e-11 1.809380e-11)) ((9.812832e-15 -5.646310e-12 2.022272e-15) (2.144707e-13 -4.401137e-08 -1.267938e-12))
375.316302    	((-9.280648e-12 -9.617622e-12 -1.633690e-10) (-5.381067e-11 2.827888e-11 -7.407704e-13)) ((9.845200e-15 -5.450688e-12 2.662080e-15) (6.547110e-13 -4.282312e-08 -1.274616e-12))
443.479514    	((-1.419638e-11 -1.625843e-11 -1.751109e-10) (-4.099900e-11 2.772871e-11 -1.175864e-11)) ((1.008020e-14 -5.288359e-12 3.264910e-15) (9.877971e-13 -4.178849e-08 -1.270945e-12))
519.731641    	((-3.357343e-11 -3.334020e-12 -1.786950e-10) (-3.492589e-11 2.614812e-11 -1.090039e-11)) ((9.677000e-15 -5.153639e-12 2.895607e-15) (1.184275e-12 -4.089595e-08 -1.203739e-12))
600.606126    	((-6.632576e-11 8.798930e-12 -1.737312e-10) (-1.545981e-11 2.538788e-11 -7.688794e-12)) ((1.158763e-14 -5.039512e-12 2.561129e-15) (1.287444e-12 -4.013905e-08 -9.652536e-13))
681.462459    	((-7.558193e-11 6.960806e-12 -1.640822e-10) (4.354487e-13 2.577404e-11 -6.731557e-12)) ((1.257333e-14 -4.944765e-12 2.025177e-15) (1.227523e-12 -3.951031e-08 -7.375553e-13))
762.302628    	((-8.484513e-11 9.315650e-12 -1.474660e-10) (1.152436e-11 2.320250e-11 -1.273302e-11)) ((1.310659e-14 -4.864192e-12 1.573341e-15) (1.117919e-12 -3.899395e-08 -5.476430e-13))
843.129007    	((-9.042924e-11 1.078165e-11 -1.383258e-10) (2.008974e-11 2.172820e-11 -1.578291e-11)) ((1.304446e-14 -4.796354e-12 1.316688e-15) (9.889112e-13 -3.857336e-08 -4.032705e-13))
923.944069    	((-9.917521e-11 1.354058e-11 -1.363944e-10) (2.862632e-11 1.984789e-11 -1.941914e-11)) ((1.332317e-14 -4.741910e-12 7.732030e-16) (8.380329e-13 -3.823200e-08 -3.016724e-13))
1004.747901   	((-9.939302e-11 1.683859e-11 -1.340104e-10) (3.813912e-11 1.904208e-11 -2.011103e-11)) ((1.362889e-14 -4.697365e-12 4.251217e-16) (6.977113e-13 -3.795592e-08 -2.244770e-13))
1085.540412   	((-1.062021e-10 1.681085e-11 -1.386053e-10) (4.412383e-11 1.862927e-11 -1.930968e-11)) ((1.364864e-14 -4.660373e-12 2.661637e-16) (5.977612e-13 -3.773315e-08 -1.822342e-13))
1166.323973   	((-1.075116e-10 1.749904e-11 -1.345636e-10) (4.684493e-11 1.754517e-11 -1.668187e-11)) ((1.387779e-14 -4.630146e-12 1.832327e-16) (5.321009e-13 -3.755434e-08 -1.456016e-13))
1247.100855   	((-1.099251e-10 1.918303e-11 -1.368166e-10) (4.871630e-11 1.789581e-11 -1.476709e-11)) ((1.424982e-14 -4.605231e-12 2.362509e-16) (5.107614e-13 -3.741168e-08 -9.825147e-14))
1327.873285   	((-1.118533e-10 2.548130e-11 -1.288831e-10) (4.963801e-11 1.914227e-11 -1.438228e-11)) ((1.429579e-14 -4.585087e-12 1.895598e-17) (5.028586e-13 -3.729881e-08 -5.244966e-14))
1408.643447   	((-1.101804e-10 2.676562e-11 -1.260946e-10) (5.103283e-11 2.026806e-11 -1.568391e-11)) ((1.454340e-14 -4.569306e-12 -2.731176e-16) (4.767313e-13 -3.721043e-08 1.507434e-14))
1489.413437   	((-1.055638e-10 2.904055e-11 -1.259580e-10) (5.400420e-11 2.133179e-11 -1.737055e-11)) ((1.461784e-14 -4.556390e-12 -5.550865e-16) (4.425810e-13 -3.714216e-08 6.841936e-14))
1570.1852     	((-9.823687e-11 3.051644e-11 -1.225493e-10) (5.866470e-11 2.312732e-11 -1.708710e-11)) ((1.456563e-14 -4.545383e-12 -8.587339e-16) (4.162233e-13 -3.709034e-08 1.019384e-13))
1650.958597   	((-9.296407e-11 3.144259e-11 -1.164139e-10) (6.139139e-11 2.512839e-11 -1.651798e-11)) ((1.437198e-14 -4.536394e-12 -1.274571e-15) (3.902872e-13 -3.705205e-08 1.330949e-13))
1731.733027   	((-8.967182e-11 3.091272e-11 -1.107147e-10) (6.479970e-11 2.700814e-11 -1.614310e-11)) ((1.424787e-14 -4.530124e-12 -1.691431e-15) (3.515465e-13 -3.702484e-08 1.662954e-13))
1812.509803   	((-8.608387e-11 3.037102e-11 -1.082163e-10) (6.937375e-11 2.815283e-11 -1.643803e-11)) ((1.404181e-14 -4.526010e-12 -2.034024e-15) (3.106065e-13 -3.700664e-08 1.903971e-13))
1893.290093   	((-8.470580e-11 3.006152e-11 -1.061254e-10) (7.446274e-11 2.878075e-11 -1.663695e-11)) ((1.383959e-14 -4.523081e-12 -2.371233e-15) (2.805863e-13 -3.699566e-08 2.010459e-13))
