# Forces      
# CofR        : (0.000000e+00 0.000000e+00 0.000000e+00)
# Time        forces(pressure viscous)	moments(pressure viscous)
0             	((0.000000e+00 0.000000e+00 0.000000e+00) (-6.048123e-13 -2.600184e-13 7.981996e-03)) ((0.000000e+00 0.000000e+00 0.000000e+00) (1.549070e-14 2.684009e-09 2.150575e-16))
0.012         	((1.334183e-05 1.165965e-05 2.344400e+00) (-2.562909e-08 -3.450100e-08 9.839773e-03)) ((1.907140e-11 6.333565e-07 -1.263780e-11) (-1.613595e-10 1.032089e-08 2.010842e-12))
0.0264        	((-8.263533e-05 -8.320689e-05 -4.915146e-01) (-2.563471e-07 -1.052133e-07 9.798509e-03)) ((1.020253e-08 -1.061494e-07 1.094153e-12) (-4.206394e-09 2.460042e-08 2.962545e-11))
0.04368       	((7.774668e-05 5.957011e-05 -2.887406e-01) (-2.134374e-07 -8.686040e-08 8.353822e-03)) ((-8.040284e-09 -4.622555e-08 -3.057886e-11) (-3.719467e-09 2.417248e-08 3.109123e-11))
0.064416      	((-2.195155e-05 5.028029e-06 -2.062531e-04) (-1.570448e-07 5.898578e-09 7.371076e-03)) ((1.551542e-10 2.027736e-08 1.121630e-11) (-1.687407e-10 1.966038e-08 -5.755933e-11))
0.0892992     	((-3.875708e-06 -1.473167e-05 -2.038686e-03) (1.336906e-07 2.394831e-08 6.778091e-03)) ((6.184516e-10 1.997540e-08 4.894927e-11) (6.141224e-10 2.136242e-08 -1.188302e-10))
0.119159      	((-1.101435e-05 -6.210132e-06 -3.252299e-04) (1.092091e-06 6.067900e-09 6.285049e-03)) ((1.056631e-10 1.900994e-08 2.909833e-11) (6.369993e-10 2.335500e-08 -2.247596e-10))
0.154991      	((1.971716e-05 -3.041592e-06 2.026249e-03) (1.408376e-06 -1.111553e-08 5.866739e-03)) ((6.711583e-11 1.899138e-08 -2.483747e-11) (1.197727e-09 3.648366e-08 -4.671648e-10))
0.197989      	((-1.834231e-05 -5.180096e-06 2.886939e-03) (4.197783e-07 -4.655501e-08 5.524047e-03)) ((5.242416e-11 2.032418e-08 -6.336967e-11) (1.310195e-09 5.376277e-08 -4.177039e-10))
0.249587      	((-6.351889e-06 -2.831601e-06 3.408990e-03) (-1.508041e-07 -6.556116e-08 5.237439e-03)) ((6.720395e-11 1.983962e-08 -1.983529e-11) (1.448083e-09 6.141065e-08 -2.959636e-10))
0.311504      	((-8.262482e-06 -1.178491e-06 3.744800e-03) (1.657386e-07 -5.964740e-08 4.980162e-03)) ((1.318746e-10 1.785574e-08 -9.244619e-12) (1.848270e-09 6.135433e-08 -2.628558e-10))
0.385805      	((-1.326532e-06 -2.003959e-07 4.081343e-03) (4.935444e-07 -4.053288e-08 4.737630e-03)) ((1.262824e-10 1.766790e-08 -4.078506e-12) (2.602655e-09 5.993246e-08 -2.418245e-10))
0.474966      	((-3.139396e-06 -8.600572e-07 4.491718e-03) (8.014428e-07 -1.018696e-08 4.507439e-03)) ((1.300679e-10 1.705650e-08 -8.149702e-12) (3.834830e-09 5.626125e-08 -1.585775e-10))
0.581959      	((1.234161e-07 -1.283004e-06 5.048945e-03) (1.077450e-06 3.375835e-09 4.293271e-03)) ((9.966942e-11 1.639465e-08 -4.993377e-12) (5.158843e-09 5.124130e-08 -8.457495e-11))
0.709787      	((-1.327005e-06 -2.157187e-06 5.786875e-03) (1.211544e-06 -4.799364e-09 4.100036e-03)) ((8.093760e-11 1.533273e-08 -1.096096e-11) (6.228258e-09 4.670461e-08 -7.213433e-11))
0.858299      	((-1.381582e-06 -2.782981e-06 6.735404e-03) (1.203917e-06 -3.404656e-08 3.932227e-03)) ((8.679880e-11 1.451192e-08 -1.379919e-11) (6.588117e-09 4.524590e-08 -6.070521e-11))
1.02735       	((-2.616675e-06 -3.509163e-06 7.868736e-03) (1.168704e-06 -6.307190e-08 3.789918e-03)) ((7.376200e-11 1.316976e-08 -1.470347e-11) (6.474100e-09 4.618004e-08 -3.689518e-11))
1.216776      	((-3.891214e-06 -4.233104e-06 9.189261e-03) (1.150087e-06 -7.633333e-08 3.673266e-03)) ((6.472982e-11 1.170958e-08 -1.881535e-11) (6.399590e-09 4.737635e-08 -5.340674e-11))
1.418531      	((-5.738158e-06 -4.308890e-06 1.058401e-02) (1.097247e-06 -7.687640e-08 3.582697e-03)) ((-1.397381e-11 1.073475e-08 -1.909684e-11) (5.619251e-09 5.178086e-08 -7.038401e-11))
1.617977      	((-7.284925e-06 -3.548450e-06 1.194376e-02) (9.723621e-07 -3.844766e-08 3.509141e-03)) ((-1.739909e-11 1.040027e-08 -1.247232e-11) (3.208797e-09 6.074869e-08 -7.309585e-11))
1.815334      	((-8.986371e-06 -1.917854e-06 1.315986e-02) (7.507677e-07 1.701944e-08 3.443378e-03)) ((-5.219572e-11 1.079420e-08 -1.132259e-11) (7.521804e-10 7.143562e-08 -5.941774e-11))
2.011409      	((-1.068362e-05 4.717658e-07 1.420146e-02) (3.680831e-07 2.498052e-08 3.385761e-03)) ((-1.057057e-10 1.154925e-08 -1.727818e-11) (1.421288e-09 7.864300e-08 -2.178830e-11))
2.207272      	((-1.382607e-05 1.621584e-06 1.496027e-02) (-8.762468e-08 -4.272831e-08 3.335723e-03)) ((-1.289840e-10 1.238335e-08 -1.875786e-11) (5.622345e-09 8.511952e-08 1.520301e-11))
2.403611      	((-1.649263e-05 2.983619e-06 1.546116e-02) (-5.333496e-07 -1.508206e-07 3.290648e-03)) ((-8.263179e-11 1.295139e-08 -4.638518e-12) (1.198868e-08 9.338879e-08 4.821657e-11))
2.60032       	((-1.859850e-05 4.670075e-06 1.563174e-02) (-8.793292e-07 -2.147017e-07 3.248932e-03)) ((-1.349214e-10 1.326062e-08 -7.942073e-12) (1.730812e-08 1.036790e-07 4.261032e-11))
2.796834      	((-2.108078e-05 7.125129e-06 1.558477e-02) (-1.069707e-06 -2.247172e-07 3.210239e-03)) ((-2.862118e-10 1.365844e-08 9.932033e-12) (2.133871e-08 1.150957e-07 5.848419e-11))
2.992751      	((-2.275703e-05 1.030286e-05 1.542447e-02) (-1.180961e-06 -2.121499e-07 3.175021e-03)) ((-2.869008e-10 1.385559e-08 1.907659e-11) (2.599788e-08 1.211060e-07 -2.194065e-11))
3.188057      	((-2.793218e-05 1.001047e-05 1.521327e-02) (-1.244993e-06 -2.115496e-07 3.144882e-03)) ((-9.373612e-11 1.357765e-08 1.354888e-11) (3.110740e-08 1.248933e-07 -1.944047e-10))
3.382918      	((-3.940934e-05 5.947527e-06 1.496020e-02) (-1.287064e-06 -2.375125e-07 3.119515e-03)) ((2.205843e-10 1.324120e-08 2.669515e-11) (3.454368e-08 1.346776e-07 -3.011525e-10))
3.577444      	((-4.492680e-05 5.538180e-06 1.470983e-02) (-1.240346e-06 -2.368531e-07 3.096082e-03)) ((2.875547e-10 1.301471e-08 4.597895e-11) (3.463276e-08 1.462072e-07 -2.764073e-10))
3.771626      	((-4.849838e-05 1.106851e-05 1.451212e-02) (-1.136594e-06 -1.699044e-07 3.073265e-03)) ((1.865067e-10 1.297329e-08 2.925018e-11) (3.376346e-08 1.549021e-07 -3.012252e-10))
3.965432      	((-5.583400e-05 1.287650e-05 1.433851e-02) (-1.119786e-06 -8.355055e-08 3.051688e-03)) ((1.675375e-10 1.275250e-08 3.622755e-11) (3.356568e-08 1.597937e-07 -3.873010e-10))
4.158874      	((-6.467157e-05 1.411998e-05 1.420175e-02) (-1.171057e-06 -4.941428e-08 3.031522e-03)) ((1.848066e-10 1.259707e-08 4.931639e-11) (3.493895e-08 1.618426e-07 -3.108267e-10))
4.351982      	((-7.266187e-05 1.545923e-05 1.406253e-02) (-1.284973e-06 -2.394833e-08 3.012690e-03)) ((1.736893e-10 1.270108e-08 6.060938e-11) (3.603929e-08 1.610390e-07 -1.534622e-10))
4.544775      	((-8.099302e-05 1.654381e-05 1.395467e-02) (-1.413846e-06 1.187172e-08 2.995785e-03)) ((1.451002e-10 1.296993e-08 6.338975e-11) (3.668361e-08 1.589571e-07 8.733461e-11))
4.737269      	((-8.936779e-05 1.869972e-05 1.387000e-02) (-1.560051e-06 5.337452e-08 2.980813e-03)) ((9.821799e-11 1.330298e-08 3.617555e-11) (3.702275e-08 1.554643e-07 5.276808e-10))
4.929475      	((-9.433562e-05 2.168203e-05 1.377237e-02) (-1.748387e-06 9.873418e-08 2.966945e-03)) ((1.172036e-10 1.371837e-08 4.821555e-11) (3.702214e-08 1.488502e-07 6.325899e-10))
5.121404      	((-1.039219e-04 2.475335e-05 1.367548e-02) (-2.000842e-06 1.527970e-07 2.953690e-03)) ((9.139963e-11 1.393784e-08 4.763449e-11) (3.723602e-08 1.397165e-07 5.590200e-10))
5.313064      	((-1.106315e-04 2.659111e-05 1.358408e-02) (-2.304592e-06 2.266268e-07 2.941068e-03)) ((4.051174e-11 1.396680e-08 2.672748e-11) (3.810461e-08 1.287252e-07 7.550331e-10))
5.504468      	((-1.182663e-04 2.979870e-05 1.352162e-02) (-2.603482e-06 2.962931e-07 2.929279e-03)) ((-3.790339e-11 1.380303e-08 1.987899e-11) (3.944259e-08 1.193003e-07 1.045214e-09))
5.695631      	((-1.254517e-04 3.325893e-05 1.346513e-02) (-2.849644e-06 4.074855e-07 2.918291e-03)) ((-1.013163e-10 1.355564e-08 1.983828e-11) (3.936444e-08 1.139149e-07 1.064823e-09))
5.886587      	((-1.319601e-04 3.588722e-05 1.340280e-02) (-3.096526e-06 5.658495e-07 2.908058e-03)) ((-1.293876e-10 1.332410e-08 1.731788e-11) (3.750063e-08 1.079929e-07 9.354558e-10))
6.077381      	((-1.386729e-04 3.689916e-05 1.333286e-02) (-3.362328e-06 7.015931e-07 2.898570e-03)) ((-9.277955e-11 1.320286e-08 2.676508e-11) (3.569116e-08 9.888168e-08 6.070626e-10))
6.267994      	((-1.486899e-04 3.885880e-05 1.326087e-02) (-3.600473e-06 7.918952e-07 2.889589e-03)) ((-5.732985e-11 1.308596e-08 3.233183e-11) (3.512059e-08 9.157001e-08 1.688301e-10))
6.458441      	((-1.596063e-04 4.158876e-05 1.319035e-02) (-3.820246e-06 8.721305e-07 2.880988e-03)) ((-1.362955e-11 1.293762e-08 3.470067e-11) (3.443328e-08 8.926931e-08 -2.098706e-10))
6.648748      	((-1.708150e-04 4.581895e-05 1.312558e-02) (-4.065740e-06 9.584831e-07 2.872642e-03)) ((-1.139087e-11 1.284929e-08 2.476933e-11) (3.412055e-08 8.995899e-08 -6.056626e-10))
6.838918      	((-1.797039e-04 5.077666e-05 1.307160e-02) (-4.326229e-06 1.041368e-06 2.864453e-03)) ((-6.885563e-11 1.284793e-08 2.147465e-11) (3.515557e-08 9.128632e-08 -9.275684e-10))
7.028958      	((-1.914801e-04 5.622200e-05 1.302505e-02) (-4.601958e-06 1.112882e-06 2.856458e-03)) ((-1.771530e-10 1.286238e-08 3.770462e-11) (3.846418e-08 9.322484e-08 -9.565861e-10))
7.218874      	((-2.065879e-04 6.349834e-05 1.297994e-02) (-4.891441e-06 1.178464e-06 2.848754e-03)) ((-3.081505e-10 1.290987e-08 4.112897e-11) (4.412816e-08 9.728106e-08 -7.886586e-10))
7.408669      	((-2.226912e-04 6.979945e-05 1.293619e-02) (-5.185378e-06 1.256280e-06 2.841438e-03)) ((-4.173568e-10 1.295559e-08 4.019128e-11) (5.092925e-08 1.038961e-07 -4.814845e-10))
7.598345      	((-2.395753e-04 7.705246e-05 1.289587e-02) (-5.499726e-06 1.356706e-06 2.834531e-03)) ((-5.131579e-10 1.301718e-08 5.253683e-11) (5.791759e-08 1.125806e-07 -1.605986e-10))
7.787906      	((-2.592900e-04 8.460804e-05 1.285425e-02) (-5.852957e-06 1.491093e-06 2.827990e-03)) ((-5.635727e-10 1.303206e-08 5.807508e-11) (6.486521e-08 1.226810e-07 1.112669e-11))
7.977358      	((-2.814489e-04 9.287107e-05 1.281382e-02) (-6.263336e-06 1.655259e-06 2.821785e-03)) ((-5.964542e-10 1.294071e-08 5.337028e-11) (7.181014e-08 1.334563e-07 -1.177501e-10))
8.166705      	((-3.043647e-04 1.012445e-04 1.277476e-02) (-6.744459e-06 1.834062e-06 2.815898e-03)) ((-5.970042e-10 1.279028e-08 4.457105e-11) (7.880287e-08 1.443011e-07 -4.170725e-10))
8.355948      	((-3.277065e-04 1.095984e-04 1.273782e-02) (-7.281446e-06 2.022707e-06 2.810296e-03)) ((-6.134376e-10 1.263611e-08 4.892798e-11) (8.607238e-08 1.552684e-07 -5.185347e-10))
8.545086      	((-3.537635e-04 1.177761e-04 1.270242e-02) (-7.878923e-06 2.221400e-06 2.804953e-03)) ((-6.294734e-10 1.249415e-08 4.595665e-11) (9.325543e-08 1.663252e-07 -3.089681e-10))
8.734117      	((-3.827474e-04 1.273333e-04 1.266817e-02) (-8.557304e-06 2.435597e-06 2.799861e-03)) ((-6.662963e-10 1.235566e-08 4.102234e-11) (9.992680e-08 1.769563e-07 8.148622e-11))
8.923044      	((-4.168320e-04 1.377782e-04 1.263221e-02) (-9.352429e-06 2.684123e-06 2.794984e-03)) ((-7.236833e-10 1.215818e-08 3.562359e-11) (1.055737e-07 1.868314e-07 3.354940e-10))
9.111869      	((-4.547643e-04 1.483052e-04 1.259242e-02) (-1.028887e-05 2.961652e-06 2.790270e-03)) ((-7.936538e-10 1.191530e-08 4.430158e-11) (1.105385e-07 1.954695e-07 3.238304e-10))
9.300596      	((-4.964836e-04 1.610937e-04 1.255033e-02) (-1.136928e-05 3.274816e-06 2.785666e-03)) ((-9.119646e-10 1.161300e-08 5.222679e-11) (1.152532e-07 2.033819e-07 3.471709e-10))
9.489228      	((-5.403097e-04 1.743677e-04 1.250867e-02) (-1.259680e-05 3.625474e-06 2.781150e-03)) ((-1.039238e-09 1.129619e-08 5.140028e-11) (1.196904e-07 2.109542e-07 6.905463e-10))
9.677769      	((-5.887266e-04 1.895251e-04 1.246606e-02) (-1.395535e-05 4.028483e-06 2.776703e-03)) ((-1.166970e-09 1.090222e-08 3.928704e-11) (1.233815e-07 2.193287e-07 1.227859e-09))
9.866219      	((-6.404588e-04 2.025726e-04 1.242681e-02) (-1.543691e-05 4.467556e-06 2.772366e-03)) ((-1.233826e-09 1.047888e-08 3.458012e-11) (1.264155e-07 2.288767e-07 1.777045e-09))
10.054584     	((-6.942929e-04 2.197638e-04 1.238548e-02) (-1.704000e-05 4.947495e-06 2.768143e-03)) ((-1.342350e-09 1.005975e-08 3.950111e-11) (1.295665e-07 2.391793e-07 2.271671e-09))
10.242866     	((-7.526759e-04 2.383775e-04 1.234789e-02) (-1.876861e-05 5.482613e-06 2.764041e-03)) ((-1.470897e-09 9.616693e-09 3.688662e-11) (1.329550e-07 2.503066e-07 2.765371e-09))
10.431067     	((-8.157303e-04 2.572934e-04 1.230794e-02) (-2.064299e-05 6.061689e-06 2.760036e-03)) ((-1.593772e-09 9.176868e-09 4.223739e-11) (1.364052e-07 2.626383e-07 3.251957e-09))
10.619192     	((-8.852255e-04 2.766646e-04 1.227450e-02) (-2.267695e-05 6.671363e-06 2.756139e-03)) ((-1.717219e-09 8.712120e-09 4.712614e-11) (1.402682e-07 2.771226e-07 3.763210e-09))
10.807243     	((-9.610581e-04 2.999299e-04 1.224173e-02) (-2.486425e-05 7.326874e-06 2.752362e-03)) ((-1.884253e-09 8.229332e-09 3.781447e-11) (1.446975e-07 2.946594e-07 4.408517e-09))
10.995222     	((-1.046056e-03 3.259383e-04 1.221425e-02) (-2.720800e-05 8.042590e-06 2.748707e-03)) ((-2.086124e-09 7.687102e-09 2.567043e-11) (1.498802e-07 3.162061e-07 5.251528e-09))
11.183131     	((-1.142971e-03 3.562591e-04 1.218836e-02) (-2.974137e-05 8.821705e-06 2.745157e-03)) ((-2.322377e-09 7.090540e-09 8.284038e-12) (1.563293e-07 3.429610e-07 5.926374e-09))
11.370974     	((-1.254925e-03 3.890454e-04 1.216469e-02) (-3.253675e-05 9.659043e-06 2.741702e-03)) ((-2.541804e-09 6.457673e-09 -2.194393e-11) (1.646369e-07 3.748754e-07 6.106751e-09))
11.558756     	((-1.381022e-03 4.253421e-04 1.214507e-02) (-3.566838e-05 1.056359e-05 2.738370e-03)) ((-2.748235e-09 5.837130e-09 -5.412045e-11) (1.750465e-07 4.111205e-07 6.382895e-09))
11.746478     	((-1.524076e-03 4.665761e-04 1.212846e-02) (-3.916893e-05 1.155819e-05 2.735201e-03)) ((-2.943050e-09 5.178374e-09 -9.746482e-11) (1.877752e-07 4.522771e-07 7.070065e-09))
11.934136     	((-1.684723e-03 5.124527e-04 1.211617e-02) (-4.307666e-05 1.265984e-05 2.732240e-03)) ((-3.114883e-09 4.474252e-09 -1.496828e-10) (2.029807e-07 4.984825e-07 7.992711e-09))
12.121733     	((-1.862577e-03 5.664714e-04 1.210672e-02) (-4.742853e-05 1.389711e-05 2.729518e-03)) ((-3.324633e-09 3.708421e-09 -1.901206e-10) (2.207366e-07 5.490572e-07 8.800698e-09))
12.309271     	((-2.059904e-03 6.262116e-04 1.210137e-02) (-5.226569e-05 1.530301e-05 2.727059e-03)) ((-3.503929e-09 2.888605e-09 -2.131266e-10) (2.405223e-07 6.046058e-07 9.587717e-09))
12.496752     	((-2.278336e-03 6.929791e-04 1.209978e-02) (-5.765810e-05 1.690508e-05 2.724870e-03)) ((-3.689285e-09 1.963524e-09 -1.957894e-10) (2.622422e-07 6.658247e-07 1.081768e-08))
12.684178     	((-2.520133e-03 7.670534e-04 1.210256e-02) (-6.368278e-05 1.870883e-05 2.722923e-03)) ((-3.881766e-09 9.129813e-10 -1.856393e-10) (2.873847e-07 7.338963e-07 1.228063e-08))
12.87155      	((-2.784878e-03 8.491175e-04 1.210926e-02) (-7.037384e-05 2.070782e-05 2.721170e-03)) ((-4.118040e-09 -2.569515e-10 -1.728388e-10) (3.164462e-07 8.118366e-07 1.364024e-08))
13.058869     	((-3.073936e-03 9.389488e-04 1.212037e-02) (-7.775498e-05 2.292425e-05 2.719579e-03)) ((-4.372868e-09 -1.524288e-09 -1.821518e-10) (3.484787e-07 9.013522e-07 1.481421e-08))
13.246132     	((-3.391689e-03 1.038979e-03 1.214276e-02) (-8.591618e-05 2.541575e-05 2.718247e-03)) ((-4.644510e-09 -2.922154e-09 -1.997895e-10) (3.808526e-07 1.000206e-06 1.595669e-08))
13.433338     	((-3.740205e-03 1.149579e-03 1.217171e-02) (-9.499372e-05 2.821582e-05 2.717221e-03)) ((-4.925308e-09 -4.384948e-09 -2.256099e-10) (4.137142e-07 1.105793e-06 1.680685e-08))
13.620487     	((-4.124577e-03 1.274560e-03 1.220825e-02) (-1.050657e-04 3.134765e-05 2.716491e-03)) ((-5.299888e-09 -6.025321e-09 -2.482541e-10) (4.485473e-07 1.218609e-06 1.693246e-08))
13.80758      	((-4.547917e-03 1.410117e-03 1.225259e-02) (-1.161443e-04 3.484403e-05 2.716046e-03)) ((-5.765334e-09 -7.891939e-09 -2.850919e-10) (4.861682e-07 1.343324e-06 1.636848e-08))
13.994622     	((-5.012904e-03 1.554584e-03 1.231121e-02) (-1.283195e-04 3.869118e-05 2.715987e-03)) ((-6.348525e-09 -9.956389e-09 -3.160023e-10) (5.284222e-07 1.480236e-06 1.566271e-08))
14.181614     	((-5.521965e-03 1.710603e-03 1.238405e-02) (-1.417363e-04 4.286363e-05 2.716486e-03)) ((-7.049679e-09 -1.216661e-08 -4.218122e-10) (5.771527e-07 1.626527e-06 1.556134e-08))
14.368527     	((-6.073368e-03 1.877981e-03 1.247409e-02) (-1.565043e-04 4.737386e-05 2.717633e-03)) ((-7.715077e-09 -1.444926e-08 -5.868556e-10) (6.325707e-07 1.783132e-06 1.607741e-08))
14.555303     	((-6.669390e-03 2.060487e-03 1.258851e-02) (-1.726798e-04 5.226858e-05 2.719561e-03)) ((-8.418771e-09 -1.662865e-08 -7.260582e-10) (6.929115e-07 1.951929e-06 1.627564e-08))
14.741927     	((-7.310784e-03 2.261751e-03 1.272997e-02) (-1.903368e-04 5.763210e-05 2.722463e-03)) ((-9.205027e-09 -1.887259e-08 -8.603540e-10) (7.567338e-07 2.135073e-06 1.572608e-08))
14.928376     	((-8.000959e-03 2.481381e-03 1.291318e-02) (-2.095809e-04 6.353609e-05 2.726531e-03)) ((-1.003923e-08 -2.110032e-08 -9.289150e-10) (8.237606e-07 2.336497e-06 1.492052e-08))
15.114629     	((-8.738876e-03 2.719737e-03 1.313688e-02) (-2.305292e-04 7.004268e-05 2.731989e-03)) ((-1.083906e-08 -2.332918e-08 -8.985232e-10) (8.938670e-07 2.555786e-06 1.411801e-08))
15.300664     	((-9.527634e-03 2.977816e-03 1.341404e-02) (-2.533537e-04 7.722150e-05 2.739140e-03)) ((-1.152671e-08 -2.554376e-08 -8.732508e-10) (9.654108e-07 2.780686e-06 1.387870e-08))
15.486459     	((-1.037855e-02 3.261902e-03 1.374049e-02) (-2.782129e-04 8.512997e-05 2.748322e-03)) ((-1.227148e-08 -2.766077e-08 -9.375176e-10) (1.038348e-06 3.006145e-06 1.323270e-08))
15.67198      	((-1.129198e-02 3.566588e-03 1.411554e-02) (-3.051737e-04 9.377581e-05 2.759635e-03)) ((-1.305452e-08 -2.952075e-08 -1.049382e-09) (1.117015e-06 3.237499e-06 1.240549e-08))
15.857188     	((-1.224507e-02 3.886409e-03 1.454926e-02) (-3.340925e-04 1.031908e-04 2.773483e-03)) ((-1.352907e-08 -3.053640e-08 -1.220851e-09) (1.198895e-06 3.476244e-06 1.409845e-08))
16.042071     	((-1.322013e-02 4.221629e-03 1.505925e-02) (-3.647977e-04 1.135061e-04 2.790305e-03)) ((-1.384937e-08 -3.045371e-08 -1.427017e-09) (1.276869e-06 3.717091e-06 1.794390e-08))
16.22667      	((-1.421137e-02 4.562256e-03 1.563209e-02) (-3.972687e-04 1.246455e-04 2.810120e-03)) ((-1.389219e-08 -2.922836e-08 -1.811768e-09) (1.350753e-06 3.958472e-06 2.246039e-08))
16.411033     	((-1.520108e-02 4.906246e-03 1.626619e-02) (-4.313675e-04 1.363750e-04 2.832801e-03)) ((-1.365769e-08 -2.650383e-08 -2.498690e-09) (1.421772e-06 4.194002e-06 2.971000e-08))
16.595193     	((-1.615354e-02 5.238438e-03 1.697778e-02) (-4.666805e-04 1.485624e-04 2.858646e-03)) ((-1.299419e-08 -2.206631e-08 -3.431743e-09) (1.485136e-06 4.407529e-06 4.079502e-08))
16.779123     	((-1.704391e-02 5.553926e-03 1.775602e-02) (-5.027369e-04 1.610839e-04 2.888032e-03)) ((-1.200645e-08 -1.632116e-08 -4.354573e-09) (1.537926e-06 4.586526e-06 5.407088e-08))
16.962778     	((-1.782981e-02 5.832274e-03 1.857100e-02) (-5.388966e-04 1.736288e-04 2.920988e-03)) ((-1.072595e-08 -9.015702e-09 -5.342078e-09) (1.577193e-06 4.721510e-06 7.044958e-08))
17.146176     	((-1.847420e-02 6.056715e-03 1.939419e-02) (-5.745365e-04 1.859508e-04 2.957239e-03)) ((-9.088149e-09 -2.437115e-10 -6.425818e-09) (1.591286e-06 4.788301e-06 9.086127e-08))
17.32942      	((-1.893840e-02 6.210665e-03 2.018337e-02) (-6.087076e-04 1.975863e-04 2.996052e-03)) ((-7.172274e-09 9.501152e-09 -7.829370e-09) (1.582315e-06 4.776576e-06 1.143547e-07))
17.512607     	((-1.918346e-02 6.288707e-03 2.090445e-02) (-6.402590e-04 2.079740e-04 3.035916e-03)) ((-4.726892e-09 1.970873e-08 -9.361241e-09) (1.564221e-06 4.696468e-06 1.376957e-07))
17.695855     	((-1.915867e-02 6.255713e-03 2.149650e-02) (-6.677452e-04 2.164290e-04 3.074740e-03)) ((-1.489169e-09 2.984058e-08 -1.108738e-08) (1.546901e-06 4.563489e-06 1.623170e-07))
17.87931      	((-1.881321e-02 6.107743e-03 2.192059e-02) (-6.893314e-04 2.222465e-04 3.110631e-03)) ((2.090683e-09 4.017383e-08 -1.295358e-08) (1.526297e-06 4.385152e-06 1.918116e-07))
18.063134     	((-1.808786e-02 5.828421e-03 2.209922e-02) (-7.028683e-04 2.248944e-04 3.142001e-03)) ((6.356034e-09 5.068035e-08 -1.487151e-08) (1.491939e-06 4.166479e-06 2.313751e-07))
