# Forces      
# CofR        : (0.000000e+00 0.000000e+00 0.000000e+00)
# Time        forces(pressure viscous)	moments(pressure viscous)
0             	((0.000000e+00 0.000000e+00 0.000000e+00) (1.882819e-13 3.217245e-03 -4.112782e-13)) ((0.000000e+00 0.000000e+00 0.000000e+00) (9.012809e-14 -8.427080e-16 -1.171187e-09))
0.012         	((1.471655e-06 9.288684e-01 1.550982e-06) (3.429745e-09 3.682614e-03 -2.405076e-09)) ((9.113024e-11 7.118238e-12 -1.714888e-07) (1.984000e-11 6.259710e-13 -1.496955e-09))
0.0264        	((-2.114166e-05 -1.251636e-01 -1.666816e-05) (1.375945e-08 3.701658e-03 -1.313639e-08)) ((1.447199e-09 5.138317e-11 9.298825e-09) (2.568114e-10 -3.649244e-12 3.433706e-10))
0.04368       	((3.024806e-05 -1.606869e-01 7.828450e-06) (2.851879e-08 3.229411e-03 -1.354155e-08)) ((-1.165787e-09 2.382861e-11 5.262983e-08) (1.945814e-10 -1.218011e-11 2.779549e-09))
0.064416      	((-2.222046e-06 -5.911741e-04 1.011112e-06) (-7.886460e-10 2.843537e-03 -1.230710e-08)) ((3.632750e-11 4.142140e-11 -9.404517e-09) (-1.784228e-10 -1.523886e-11 2.524420e-09))
0.0892992     	((-5.040255e-06 -1.041243e-03 2.533928e-06) (-2.359739e-08 2.615933e-03 -1.421965e-08)) ((3.169770e-11 -1.102441e-10 1.337897e-10) (-2.686490e-10 6.108777e-12 2.304201e-09))
0.119159      	((-1.397780e-06 -2.015985e-03 -5.451316e-07) (-1.459016e-07 2.422197e-03 -1.248338e-08)) ((5.171303e-11 6.204401e-12 6.683089e-10) (7.490651e-11 2.442666e-11 2.486712e-09))
0.154991      	((-4.841810e-06 -2.122638e-04 -2.705453e-06) (-3.346177e-07 2.235697e-03 -1.054530e-08)) ((1.466259e-10 -3.250798e-11 3.723727e-11) (4.163703e-10 2.670477e-11 4.254100e-09))
0.197989      	((-2.960438e-06 3.411953e-04 -1.474396e-06) (-4.922205e-07 2.065850e-03 -1.089822e-08)) ((1.396482e-10 -2.636317e-11 -3.368548e-10) (5.323220e-10 4.385997e-11 5.389104e-09))
0.249587      	((-3.044520e-06 5.780354e-04 -8.526637e-07) (-6.182657e-07 1.917148e-03 -1.255700e-08)) ((9.703861e-11 -2.136467e-11 -4.988558e-11) (6.041041e-10 6.716890e-11 5.560417e-09))
0.311504      	((-2.263907e-06 7.345157e-04 -6.884323e-07) (-6.485054e-07 1.787962e-03 -1.368361e-08)) ((3.695799e-11 1.838458e-12 -2.188968e-10) (6.046550e-10 8.481168e-11 5.834955e-09))
0.385805      	((-1.784018e-06 8.233773e-04 -3.249140e-07) (-5.478483e-07 1.672947e-03 -1.748136e-08)) ((1.687509e-11 -1.767572e-12 -3.602116e-10) (5.052491e-10 8.441098e-11 7.284566e-09))
0.474966      	((-7.974847e-07 8.715951e-04 -2.176468e-07) (-4.160356e-07 1.565135e-03 -2.024507e-08)) ((-8.571127e-12 5.061706e-12 -5.471956e-10) (3.709551e-10 6.056313e-11 9.548355e-09))
0.581959      	((-7.131122e-07 9.003081e-04 -8.948241e-08) (-3.467543e-07 1.459874e-03 -2.016823e-08)) ((-2.870161e-11 -1.276227e-13 -7.373983e-10) (2.632330e-10 4.049044e-11 1.102108e-08))
0.710351      	((-5.529433e-07 9.273930e-04 -5.624332e-08) (-3.207139e-07 1.357541e-03 -2.119447e-08)) ((-3.423984e-11 1.075173e-12 -9.049442e-10) (6.311592e-11 3.820499e-11 1.184450e-08))
0.864421      	((-4.650632e-07 9.655338e-04 -6.809780e-08) (-2.983929e-07 1.260596e-03 -2.053526e-08)) ((-3.063647e-11 7.486595e-13 -1.093120e-09) (-3.058967e-10 4.786208e-11 1.229603e-08))
1.049306      	((-2.655108e-07 1.026342e-03 -2.245030e-07) (-2.470933e-07 1.170930e-03 -1.510309e-08)) ((-2.243366e-11 3.182086e-13 -1.458529e-09) (-8.219292e-10 5.994002e-11 1.291395e-08))
1.271167      	((-1.657188e-07 1.113473e-03 -3.319447e-07) (-1.654874e-07 1.089522e-03 -7.645732e-09)) ((-5.323099e-12 3.634052e-13 -1.769850e-09) (-1.409520e-09 5.317204e-11 1.405372e-08))
1.5374        	((-2.315108e-08 1.234393e-03 -5.234036e-07) (-6.341483e-08 1.017114e-03 -9.290297e-09)) ((5.962397e-12 7.922248e-13 -2.165870e-09) (-1.846272e-09 4.485935e-11 1.611166e-08))
1.85362       	((2.496648e-07 1.395447e-03 -6.107897e-07) (3.292120e-08 9.545452e-04 -1.838250e-08)) ((1.077145e-11 9.766620e-13 -2.666266e-09) (-1.838374e-09 3.773839e-11 1.892170e-08))
2.219404      	((4.392032e-07 1.596969e-03 -6.886600e-07) (1.031217e-07 9.022966e-04 -2.796351e-08)) ((8.351491e-12 1.509516e-12 -3.280017e-09) (-1.447768e-09 2.690008e-11 2.367372e-08))
2.63437       	((8.575376e-07 1.837210e-03 -4.543572e-07) (1.100609e-07 8.592414e-04 -2.953104e-08)) ((-1.886009e-13 2.607384e-12 -4.029185e-09) (-1.013152e-09 1.724475e-11 2.878960e-08))
3.098043      	((1.042180e-06 2.113230e-03 -2.983004e-07) (6.572360e-08 8.239090e-04 -2.452544e-08)) ((-6.933632e-12 2.500717e-12 -4.919329e-09) (-7.133772e-10 3.916215e-12 3.226947e-08))
3.579198      	((1.353229e-06 2.406353e-03 3.446844e-08) (7.853848e-08 7.964498e-04 -1.825075e-08)) ((-1.360408e-11 4.775382e-12 -5.747391e-09) (-6.358368e-10 -2.714251e-11 3.419318e-08))
4.053626      	((1.777699e-06 2.690188e-03 2.851801e-07) (1.095293e-07 7.753306e-04 -1.035864e-09)) ((-1.195744e-11 4.095547e-12 -6.353752e-09) (-5.276614e-11 -2.379336e-11 3.342503e-08))
4.521297      	((2.144247e-06 2.952131e-03 4.953536e-07) (7.949839e-08 7.589428e-04 5.812732e-09)) ((-7.839151e-12 5.103752e-12 -6.942484e-09) (-1.849901e-10 1.130212e-12 3.143321e-08))
4.983602      	((2.122417e-06 3.168420e-03 3.610931e-07) (4.972597e-08 7.464079e-04 -1.295335e-08)) ((-1.516867e-11 3.061112e-12 -7.665394e-09) (-1.636478e-09 1.762663e-11 3.037360e-08))
5.443066      	((2.252991e-06 3.323749e-03 4.198081e-07) (-5.973390e-09 7.364925e-04 -5.020226e-08)) ((-1.703034e-11 -1.387172e-12 -8.402865e-09) (-4.064159e-09 3.572429e-11 3.097037e-08))
5.901776      	((2.886235e-06 3.419385e-03 6.996053e-07) (-4.432926e-08 7.276688e-04 -7.197014e-08)) ((-1.263118e-11 -1.237284e-11 -9.138205e-09) (-5.515026e-09 6.325028e-11 3.129432e-08))
6.360253      	((4.663758e-06 3.453915e-03 2.132591e-06) (-1.492321e-08 7.191448e-04 -6.398118e-08)) ((-1.391559e-11 -1.886768e-11 -9.714619e-09) (-6.743964e-09 3.637875e-11 3.168963e-08))
6.817809      	((5.590403e-06 3.424749e-03 2.334365e-06) (1.117505e-08 7.107886e-04 -4.601895e-08)) ((1.455873e-11 -1.391327e-11 -1.013425e-08) (-8.195767e-09 -9.366053e-12 3.495572e-08))
7.273633      	((5.529941e-06 3.366024e-03 1.843998e-06) (6.375795e-08 7.028195e-04 -4.471147e-08)) ((4.476506e-11 -1.846984e-11 -1.019353e-08) (-9.931109e-09 -1.048036e-11 3.708781e-08))
7.727447      	((4.897020e-06 3.304649e-03 1.149923e-06) (1.179182e-07 6.958380e-04 -5.531260e-08)) ((5.817166e-11 -2.428659e-11 -9.992020e-09) (-1.128362e-08 1.439128e-11 3.763339e-08))
8.179421      	((5.034362e-06 3.237185e-03 1.094897e-06) (1.300534e-07 6.898293e-04 -7.255711e-08)) ((1.499473e-11 -1.295930e-11 -9.651264e-09) (-1.254477e-08 3.816888e-11 3.789131e-08))
8.629932      	((5.363214e-06 3.199354e-03 1.272440e-06) (1.414719e-07 6.846850e-04 -8.760490e-08)) ((-2.642329e-11 4.716328e-12 -9.424060e-09) (-1.320252e-08 4.529314e-11 3.701424e-08))
9.079283      	((5.231605e-06 3.190161e-03 8.033168e-07) (1.903751e-07 6.803458e-04 -8.005746e-08)) ((-3.792840e-11 2.202345e-11 -9.345616e-09) (-1.201408e-08 1.207072e-10 3.380488e-08))
9.527617      	((5.284991e-06 3.187536e-03 5.821077e-07) (2.525961e-07 6.765232e-04 -5.362759e-08)) ((-4.756001e-11 3.045138e-11 -9.375463e-09) (-9.611530e-09 1.197603e-10 2.923646e-08))
9.975001      	((5.572964e-06 3.175330e-03 4.920020e-07) (2.814326e-07 6.728065e-04 -3.323339e-08)) ((-5.002937e-11 2.678649e-11 -9.445860e-09) (-8.467815e-09 1.106657e-10 2.689398e-08))
10.421496     	((6.175209e-06 3.155590e-03 5.883670e-07) (2.848724e-07 6.690878e-04 -2.971253e-08)) ((-3.711167e-11 2.476885e-11 -9.467313e-09) (-8.846162e-09 2.102777e-10 2.626053e-08))
10.86721      	((7.328040e-06 3.125501e-03 7.338008e-07) (3.009574e-07 6.653780e-04 -2.484709e-08)) ((-2.028536e-11 2.063213e-11 -9.414450e-09) (-9.144543e-09 2.697335e-10 2.613577e-08))
11.312248     	((8.136238e-06 3.093024e-03 5.374448e-07) (3.249003e-07 6.616807e-04 -1.900782e-08)) ((-9.711332e-12 1.946606e-11 -9.321645e-09) (-9.046928e-09 2.456240e-10 2.690887e-08))
11.756693     	((8.933414e-06 3.059686e-03 4.493689e-07) (3.454931e-07 6.580697e-04 -1.790840e-08)) ((-1.290050e-11 2.006942e-11 -9.211339e-09) (-9.048059e-09 1.843076e-10 2.812795e-08))
12.200593     	((9.835528e-06 3.033331e-03 4.195910e-07) (3.662277e-07 6.546739e-04 -2.052141e-08)) ((-2.372508e-11 2.433722e-11 -9.109671e-09) (-9.403662e-09 9.284990e-11 2.897154e-08))
12.643986     	((1.100885e-05 3.012446e-03 2.592329e-07) (3.979716e-07 6.515313e-04 -2.923436e-08)) ((-3.181417e-11 2.763577e-11 -9.031237e-09) (-9.658539e-09 1.934428e-11 2.911777e-08))
13.086919     	((1.197161e-05 2.998986e-03 -3.229050e-07) (4.396477e-07 6.486093e-04 -4.710879e-08)) ((-2.809508e-11 3.222436e-11 -8.980249e-09) (-9.256349e-09 -6.365796e-12 2.889461e-08))
13.529447     	((1.303499e-05 2.989401e-03 -5.973034e-07) (4.883888e-07 6.458354e-04 -6.148137e-08)) ((-2.121484e-11 3.590972e-11 -8.951321e-09) (-8.297112e-09 -2.019633e-11 2.881331e-08))
13.971612     	((1.380199e-05 2.980463e-03 -8.441801e-07) (5.355921e-07 6.431301e-04 -7.248361e-08)) ((-1.208063e-11 3.543431e-11 -8.934835e-09) (-7.686427e-09 -6.021535e-11 2.911396e-08))
14.413417     	((1.509387e-05 2.971259e-03 -9.401994e-07) (5.898774e-07 6.404954e-04 -8.661988e-08)) ((1.839587e-12 3.656759e-11 -8.919465e-09) (-7.670383e-09 -1.237197e-10 2.946535e-08))
14.854876     	((1.566839e-05 2.959822e-03 -1.414827e-06) (6.459504e-07 6.379577e-04 -1.084400e-07)) ((2.514674e-11 3.627269e-11 -8.903069e-09) (-8.026606e-09 -1.396562e-10 2.992310e-08))
15.295976     	((1.600995e-05 2.947441e-03 -2.140821e-06) (6.927288e-07 6.355370e-04 -1.341084e-07)) ((4.415737e-11 3.700738e-11 -8.875972e-09) (-8.456429e-09 -1.121057e-10 3.030742e-08))
15.736718     	((1.736855e-05 2.935337e-03 -2.846942e-06) (7.503264e-07 6.332653e-04 -1.602123e-07)) ((5.158616e-11 3.923884e-11 -8.842625e-09) (-8.696213e-09 -7.466627e-11 3.015302e-08))
16.177171     	((1.817989e-05 2.922763e-03 -3.662886e-06) (8.219124e-07 6.311620e-04 -1.882225e-07)) ((5.156338e-11 4.157968e-11 -8.807034e-09) (-8.663441e-09 -2.413086e-11 2.931947e-08))
16.617378     	((1.940342e-05 2.911493e-03 -4.457009e-06) (8.990323e-07 6.292311e-04 -2.190126e-07)) ((4.236636e-11 4.806843e-11 -8.776663e-09) (-8.325110e-09 3.730155e-11 2.852349e-08))
17.057353     	((2.077805e-05 2.900070e-03 -5.374074e-06) (9.734206e-07 6.274418e-04 -2.547704e-07)) ((3.085070e-11 5.304009e-11 -8.749856e-09) (-7.887486e-09 1.102117e-10 2.859170e-08))
17.4971       	((2.230469e-05 2.888541e-03 -6.586155e-06) (1.040994e-06 6.257314e-04 -3.002233e-07)) ((3.117534e-11 5.916763e-11 -8.726841e-09) (-7.535582e-09 1.685435e-10 2.942392e-08))
17.93663      	((2.425622e-05 2.876532e-03 -7.956693e-06) (1.117779e-06 6.240245e-04 -3.557127e-07)) ((3.677226e-11 6.900351e-11 -8.708628e-09) (-7.080348e-09 1.809520e-10 3.043300e-08))
18.375954     	((2.562321e-05 2.867602e-03 -9.409943e-06) (1.200846e-06 6.223377e-04 -4.197765e-07)) ((4.544019e-11 7.809688e-11 -8.697803e-09) (-6.368276e-09 2.483249e-10 3.117742e-08))
18.815121     	((2.718730e-05 2.857770e-03 -1.073521e-05) (1.285911e-06 6.206773e-04 -4.851658e-07)) ((5.590325e-11 8.553291e-11 -8.682843e-09) (-5.404624e-09 3.539161e-10 3.173074e-08))
19.254184     	((2.920890e-05 2.847125e-03 -1.226019e-05) (1.381433e-06 6.190111e-04 -5.550059e-07)) ((7.269442e-11 9.215733e-11 -8.667593e-09) (-4.449944e-09 4.076346e-10 3.207658e-08))
19.693129     	((3.147403e-05 2.835130e-03 -1.378786e-05) (1.496217e-06 6.173231e-04 -6.301340e-07)) ((8.652469e-11 9.759310e-11 -8.650352e-09) (-3.447169e-09 4.415596e-10 3.220277e-08))
20.131952     	((3.383686e-05 2.825057e-03 -1.545325e-05) (1.625604e-06 6.156534e-04 -7.074355e-07)) ((9.974608e-11 1.025937e-10 -8.637389e-09) (-2.222278e-09 5.350055e-10 3.240576e-08))
20.570666     	((3.638112e-05 2.816648e-03 -1.700078e-05) (1.762067e-06 6.140515e-04 -7.852866e-07)) ((1.089629e-10 1.031911e-10 -8.624570e-09) (-7.850416e-10 6.335902e-10 3.285262e-08))
21.009275     	((3.908604e-05 2.808711e-03 -1.863745e-05) (1.902743e-06 6.125322e-04 -8.652377e-07)) ((1.151522e-10 1.056263e-10 -8.609828e-09) (7.716274e-10 6.446054e-10 3.368302e-08))
21.447791     	((4.207367e-05 2.801524e-03 -2.057442e-05) (2.051457e-06 6.111026e-04 -9.530321e-07)) ((1.246886e-10 1.053098e-10 -8.591855e-09) (2.376805e-09 5.662703e-10 3.489040e-08))
21.886218     	((4.513670e-05 2.793615e-03 -2.239906e-05) (2.210031e-06 6.097491e-04 -1.046964e-06)) ((1.365701e-10 1.019735e-10 -8.571191e-09) (4.031004e-09 4.832454e-10 3.631255e-08))
22.324561     	((4.869022e-05 2.785018e-03 -2.465664e-05) (2.383615e-06 6.084385e-04 -1.151834e-06)) ((1.504765e-10 9.733814e-11 -8.551891e-09) (5.668955e-09 4.140756e-10 3.787849e-08))
22.762839     	((5.257640e-05 2.776599e-03 -2.698890e-05) (2.577289e-06 6.071444e-04 -1.267978e-06)) ((1.668872e-10 9.072998e-11 -8.536246e-09) (7.283967e-09 3.722279e-10 3.961232e-08))
23.201069     	((5.682369e-05 2.768144e-03 -2.951044e-05) (2.792862e-06 6.058456e-04 -1.394144e-06)) ((1.860994e-10 8.588231e-11 -8.520971e-09) (8.871513e-09 3.492444e-10 4.144500e-08))
23.639143     	((6.160260e-05 2.759997e-03 -3.237100e-05) (3.030978e-06 6.045432e-04 -1.532341e-06)) ((2.079981e-10 8.347069e-11 -8.506471e-09) (1.062008e-08 3.343000e-10 4.344313e-08))
24.077015     	((6.720727e-05 2.751550e-03 -3.561010e-05) (3.292521e-06 6.032496e-04 -1.682697e-06)) ((2.360231e-10 8.146185e-11 -8.489706e-09) (1.270855e-08 3.146560e-10 4.592532e-08))
24.514721     	((7.346278e-05 2.742976e-03 -3.937870e-05) (3.578337e-06 6.019749e-04 -1.849013e-06)) ((2.652062e-10 7.890626e-11 -8.471865e-09) (1.509420e-08 2.761598e-10 4.909967e-08))
24.952285     	((8.046176e-05 2.734772e-03 -4.330089e-05) (3.891664e-06 6.007295e-04 -2.030719e-06)) ((2.912999e-10 7.689343e-11 -8.454150e-09) (1.767896e-08 2.095733e-10 5.291948e-08))
25.389724     	((8.812225e-05 2.727930e-03 -4.767956e-05) (4.235536e-06 5.995299e-04 -2.229631e-06)) ((3.168393e-10 7.446661e-11 -8.435940e-09) (2.044072e-08 1.168339e-10 5.738757e-08))
25.827045     	((9.653814e-05 2.722480e-03 -5.263982e-05) (4.610402e-06 5.983930e-04 -2.452733e-06)) ((3.451775e-10 7.302210e-11 -8.415279e-09) (2.334651e-08 -1.888807e-11 6.256844e-08))
26.264265     	((1.058496e-04 2.717647e-03 -5.773411e-05) (5.025821e-06 5.973214e-04 -2.699576e-06)) ((3.707599e-10 7.278926e-11 -8.392645e-09) (2.643057e-08 -2.033669e-10 6.825577e-08))
26.701422     	((1.151769e-04 2.713112e-03 -6.309209e-05) (5.480985e-06 5.963070e-04 -2.965810e-06)) ((3.966444e-10 7.257701e-11 -8.369678e-09) (2.980088e-08 -4.056087e-10 7.418022e-08))
27.138526     	((1.250435e-04 2.708092e-03 -6.850005e-05) (5.973707e-06 5.953246e-04 -3.246681e-06)) ((4.189366e-10 7.438980e-11 -8.347912e-09) (3.348349e-08 -5.899949e-10 8.035835e-08))
27.575583     	((1.354687e-04 2.702949e-03 -7.439117e-05) (6.502692e-06 5.943507e-04 -3.541812e-06)) ((4.417056e-10 7.960429e-11 -8.328956e-09) (3.757628e-08 -7.669047e-10 8.706275e-08))
28.012603     	((1.464584e-04 2.697568e-03 -8.069504e-05) (7.068742e-06 5.933728e-04 -3.856612e-06)) ((4.643172e-10 8.874827e-11 -8.312118e-09) (4.206472e-08 -9.128398e-10 9.441807e-08))
28.44959      	((1.582448e-04 2.692384e-03 -8.741822e-05) (7.675387e-06 5.923940e-04 -4.194192e-06)) ((4.922258e-10 9.967431e-11 -8.296600e-09) (4.678393e-08 -9.806978e-10 1.023408e-07))
28.886548     	((1.707162e-04 2.687500e-03 -9.470135e-05) (8.324815e-06 5.914243e-04 -4.558248e-06)) ((5.272709e-10 1.103740e-10 -8.279889e-09) (5.159983e-08 -9.710881e-10 1.106885e-07))
29.323484     	((1.842718e-04 2.682857e-03 -1.024794e-04) (9.024280e-06 5.904686e-04 -4.951325e-06)) ((5.692533e-10 1.192228e-10 -8.260006e-09) (5.657129e-08 -9.342929e-10 1.193979e-07))
29.760404     	((1.989845e-04 2.678855e-03 -1.109051e-04) (9.781391e-06 5.895346e-04 -5.375075e-06)) ((6.169814e-10 1.262667e-10 -8.238589e-09) (6.173011e-08 -9.027273e-10 1.284091e-07))
30.197313     	((2.144637e-04 2.675574e-03 -1.199163e-04) (1.059691e-05 5.886363e-04 -5.830817e-06)) ((6.667207e-10 1.319279e-10 -8.216494e-09) (6.710017e-08 -8.600036e-10 1.375932e-07))
30.634219     	((2.312745e-04 2.672694e-03 -1.294821e-04) (1.147365e-05 5.877804e-04 -6.319480e-06)) ((7.152115e-10 1.386099e-10 -8.194186e-09) (7.268990e-08 -8.375292e-10 1.470157e-07))
31.071078     	((2.493481e-04 2.670105e-03 -1.396135e-04) (1.241444e-05 5.869602e-04 -6.841526e-06)) ((7.660566e-10 1.448071e-10 -8.171044e-09) (7.856990e-08 -8.307654e-10 1.569492e-07))
31.507862     	((2.688102e-04 2.668113e-03 -1.506042e-04) (1.342409e-05 5.861723e-04 -7.399953e-06)) ((8.214871e-10 1.538880e-10 -8.147758e-09) (8.488170e-08 -7.511119e-10 1.675268e-07))
31.94457      	((2.898765e-04 2.666115e-03 -1.625383e-04) (1.450920e-05 5.854190e-04 -8.001367e-06)) ((8.836522e-10 1.682684e-10 -8.122242e-09) (9.146457e-08 -6.072521e-10 1.788097e-07))
32.381199     	((3.128791e-04 2.664599e-03 -1.754936e-04) (1.568403e-05 5.847019e-04 -8.651477e-06)) ((9.524669e-10 1.861007e-10 -8.096145e-09) (9.823064e-08 -4.196322e-10 1.906626e-07))
32.817749     	((3.379190e-04 2.663528e-03 -1.895049e-04) (1.695936e-05 5.840305e-04 -9.359084e-06)) ((1.028274e-09 2.112203e-10 -8.068784e-09) (1.051800e-07 -2.990238e-10 2.031414e-07))
33.254215     	((3.652385e-04 2.662814e-03 -2.045546e-04) (1.834075e-05 5.834084e-04 -1.013094e-05)) ((1.108631e-09 2.416558e-10 -8.038454e-09) (1.124401e-07 -3.331753e-10 2.166552e-07))
33.690595     	((3.949947e-04 2.662741e-03 -2.207595e-04) (1.983761e-05 5.828364e-04 -1.097114e-05)) ((1.196083e-09 2.716265e-10 -8.005433e-09) (1.200402e-07 -5.171140e-10 2.314460e-07))
34.126884     	((4.274165e-04 2.663329e-03 -2.383585e-04) (2.147073e-05 5.823279e-04 -1.188522e-05)) ((1.293371e-09 3.035837e-10 -7.968990e-09) (1.279457e-07 -6.766670e-10 2.470260e-07))
34.563077     	((4.625326e-04 2.664736e-03 -2.573773e-04) (2.325579e-05 5.818869e-04 -1.288078e-05)) ((1.402422e-09 3.388794e-10 -7.929371e-09) (1.360375e-07 -8.371938e-10 2.632559e-07))
34.999168     	((5.005154e-04 2.667003e-03 -2.779342e-04) (2.520518e-05 5.815233e-04 -1.396794e-05)) ((1.527702e-09 3.785042e-10 -7.889326e-09) (1.440705e-07 -1.100609e-09 2.799578e-07))
35.435153     	((5.418779e-04 2.669943e-03 -3.002809e-04) (2.733042e-05 5.812267e-04 -1.515317e-05)) ((1.665611e-09 4.260768e-10 -7.849631e-09) (1.524429e-07 -1.345447e-09 2.976389e-07))
35.871025     	((5.867127e-04 2.673558e-03 -3.242491e-04) (2.964473e-05 5.809830e-04 -1.644154e-05)) ((1.810678e-09 4.812755e-10 -7.805514e-09) (1.612148e-07 -1.460916e-09 3.168797e-07))
36.30678      	((6.352145e-04 2.678158e-03 -3.502106e-04) (3.216289e-05 5.807960e-04 -1.784074e-05)) ((1.967852e-09 5.466122e-10 -7.758752e-09) (1.703745e-07 -1.463893e-09 3.382099e-07))
36.742425     	((6.875305e-04 2.684503e-03 -3.780654e-04) (3.489125e-05 5.806700e-04 -1.934887e-05)) ((2.132926e-09 6.260986e-10 -7.709921e-09) (1.804505e-07 -1.256371e-09 3.619545e-07))
37.177983     	((7.450833e-04 2.692699e-03 -4.087462e-04) (3.786429e-05 5.806168e-04 -2.098007e-05)) ((2.312000e-09 7.231940e-10 -7.658856e-09) (1.917905e-07 -7.807578e-10 3.878337e-07))
37.613461     	((8.072890e-04 2.702935e-03 -4.418210e-04) (4.111025e-05 5.806538e-04 -2.274659e-05)) ((2.498844e-09 8.392292e-10 -7.602099e-09) (2.047688e-07 -2.514912e-10 4.158868e-07))
38.048862     	((8.738990e-04 2.715500e-03 -4.772676e-04) (4.462586e-05 5.808063e-04 -2.464347e-05)) ((2.682519e-09 9.809621e-10 -7.539604e-09) (2.198391e-07 5.835894e-11 4.466290e-07))
38.484194     	((9.450975e-04 2.730986e-03 -5.160964e-04) (4.841754e-05 5.811089e-04 -2.668715e-05)) ((2.878689e-09 1.150547e-09 -7.463776e-09) (2.369434e-07 2.004397e-10 4.795103e-07))
38.919263     	((1.022023e-03 2.749443e-03 -5.577621e-04) (5.252280e-05 5.816076e-04 -2.890237e-05)) ((3.087988e-09 1.347546e-09 -7.360537e-09) (2.551772e-07 1.978981e-10 5.132106e-07))
39.353985     	((1.103684e-03 2.771287e-03 -6.021024e-04) (5.697430e-05 5.823692e-04 -3.130770e-05)) ((3.304469e-09 1.573820e-09 -7.234507e-09) (2.732655e-07 4.258199e-10 5.465863e-07))
39.788438     	((1.190684e-03 2.796857e-03 -6.495379e-04) (6.178970e-05 5.833985e-04 -3.390781e-05)) ((3.533228e-09 1.833019e-09 -7.096337e-09) (2.916359e-07 1.272458e-09 5.800789e-07))
40.222601     	((1.282711e-03 2.826962e-03 -6.995100e-04) (6.695132e-05 5.846583e-04 -3.668952e-05)) ((3.764610e-09 2.121016e-09 -6.943025e-09) (3.120052e-07 2.501424e-09 6.161114e-07))
40.656447     	((1.381436e-03 2.861539e-03 -7.535877e-04) (7.248257e-05 5.861449e-04 -3.967761e-05)) ((4.010707e-09 2.438733e-09 -6.771262e-09) (3.344191e-07 3.707096e-09 6.547236e-07))
41.089978     	((1.485850e-03 2.901934e-03 -8.112193e-04) (7.841900e-05 5.878972e-04 -4.290181e-05)) ((4.267325e-09 2.783708e-09 -6.581397e-09) (3.579749e-07 4.852534e-09 6.942997e-07))
41.523189     	((1.597202e-03 2.949455e-03 -8.718957e-04) (8.477012e-05 5.899818e-04 -4.635214e-05)) ((4.511488e-09 3.151886e-09 -6.393714e-09) (3.827660e-07 6.106153e-09 7.357304e-07))
41.956085     	((1.713755e-03 3.002837e-03 -9.358614e-04) (9.153269e-05 5.924417e-04 -5.003040e-05)) ((4.742271e-09 3.544073e-09 -6.199871e-09) (4.090343e-07 7.294433e-09 7.800843e-07))
42.388665     	((1.836870e-03 3.065209e-03 -1.002963e-03) (9.872048e-05 5.953491e-04 -5.395555e-05)) ((4.946315e-09 3.970566e-09 -6.004451e-09) (4.363856e-07 8.370188e-09 8.266609e-07))
42.820773     	((1.964183e-03 3.135765e-03 -1.073099e-03) (1.063658e-04 5.987721e-04 -5.815524e-05)) ((5.119858e-09 4.440063e-09 -5.804433e-09) (4.632414e-07 9.519481e-09 8.715795e-07))
43.25244      	((2.094988e-03 3.217336e-03 -1.145386e-03) (1.144811e-04 6.027726e-04 -6.262305e-05)) ((5.238903e-09 4.963594e-09 -5.610333e-09) (4.882304e-07 1.065983e-08 9.126339e-07))
43.683734     	((2.228012e-03 3.309019e-03 -1.219146e-03) (1.230245e-04 6.073819e-04 -6.734923e-05)) ((5.299858e-09 5.535879e-09 -5.428603e-09) (5.111415e-07 1.153444e-08 9.517246e-07))
44.114687     	((2.361081e-03 3.410844e-03 -1.294021e-03) (1.319052e-04 6.126391e-04 -7.230045e-05)) ((5.311328e-09 6.153849e-09 -5.277617e-09) (5.335432e-07 1.131707e-08 9.899222e-07))
44.545299     	((2.492649e-03 3.522982e-03 -1.368286e-03) (1.409894e-04 6.186329e-04 -7.738217e-05)) ((5.264665e-09 6.796709e-09 -5.131665e-09) (5.566451e-07 9.943607e-09 1.027464e-06))
44.975502     	((2.621710e-03 3.645299e-03 -1.440926e-03) (1.502184e-04 6.254245e-04 -8.252814e-05)) ((5.200419e-09 7.462786e-09 -4.994586e-09) (5.796435e-07 8.455177e-09 1.063554e-06))
45.405293     	((2.744536e-03 3.776911e-03 -1.509634e-03) (1.595669e-04 6.330071e-04 -8.770988e-05)) ((5.107498e-09 8.131623e-09 -4.865916e-09) (6.012860e-07 7.487325e-09 1.096027e-06))
