# Forces      
# CofR        : (0.000000e+00 0.000000e+00 0.000000e+00)
# Time        forces(pressure viscous)	moments(pressure viscous)
0             	((0.000000e+00 0.000000e+00 0.000000e+00) (0.000000e+00 0.000000e+00 0.000000e+00)) ((0.000000e+00 0.000000e+00 0.000000e+00) (0.000000e+00 0.000000e+00 0.000000e+00))
0.012         	((3.510398e-12 -4.499777e-12 8.849639e-12) (-3.602846e-15 -8.448522e-15 -5.830774e-14)) ((-3.998602e-11 3.816783e-15 7.814775e-17) (-2.787889e-08 -3.057315e-15 1.282152e-15))
0.0264        	((-4.027992e-12 -7.868109e-12 1.598209e-11) (4.894684e-14 6.572957e-14 -5.068071e-14)) ((-1.972739e-11 2.994648e-15 -7.749429e-16) (-2.553534e-08 -5.275223e-15 1.268830e-15))
0.04368       	((1.755558e-11 1.178088e-11 1.864774e-11) (-1.921078e-14 2.014142e-13 -1.617116e-14)) ((-1.089222e-11 2.492929e-15 -8.666670e-16) (-2.312690e-08 -2.967086e-15 -2.171886e-15))
0.064416      	((-6.258587e-12 5.446082e-13 4.205926e-12) (-2.484628e-13 3.012448e-13 3.478202e-14)) ((-6.098896e-12 1.678948e-15 3.191046e-16) (-2.070604e-08 2.834711e-15 -5.724720e-15))
0.0892992     	((2.884584e-12 3.287155e-12 1.146969e-12) (-4.966723e-13 3.356099e-13 1.058596e-13)) ((-4.580556e-12 1.636070e-15 -2.285818e-16) (-1.834331e-08 8.549365e-15 -7.710100e-15))
0.119159      	((2.536343e-12 5.457314e-12 1.409182e-11) (-6.494545e-13 3.110614e-13 1.690667e-13)) ((-3.272246e-12 1.159501e-15 4.842919e-17) (-1.611157e-08 1.173595e-14 -8.234097e-15))
0.154991      	((-3.061863e-12 -6.902258e-12 -4.109538e-12) (-7.212141e-13 2.720840e-13 1.904338e-13)) ((-2.592886e-12 9.104410e-16 9.560379e-17) (-1.406222e-08 1.272114e-14 -7.241952e-15))
0.197989      	((-3.550347e-12 -9.667000e-13 4.190290e-12) (-7.920630e-13 2.261382e-13 1.881637e-13)) ((-2.059624e-12 4.100333e-16 7.660852e-17) (-1.224538e-08 1.248192e-14 -5.967406e-15))
0.249587      	((-1.231116e-12 -1.346431e-12 4.303972e-12) (-8.165282e-13 2.099617e-13 1.929533e-13)) ((-1.703994e-12 2.583555e-16 1.831514e-16) (-1.068801e-08 1.180695e-14 -5.439990e-15))
0.311504      	((-1.894303e-12 -3.569236e-12 5.155208e-12) (-7.583984e-13 2.202413e-13 1.604105e-13)) ((-1.422388e-12 3.474193e-16 4.742030e-17) (-9.386333e-09 1.057734e-14 -5.621383e-15))
0.385805      	((8.805152e-13 -4.603729e-12 7.079095e-12) (-6.819402e-13 2.017837e-13 1.311003e-13)) ((-1.223305e-12 3.639544e-16 -1.243276e-16) (-8.312340e-09 1.067135e-14 -5.616536e-15))
0.474966      	((1.046733e-12 -6.347475e-12 6.668133e-12) (-5.799090e-13 1.238228e-13 2.147271e-13)) ((-1.092528e-12 2.304422e-16 -2.017259e-16) (-7.423874e-09 1.412726e-14 -5.543255e-15))
0.581959      	((-4.370855e-12 -9.148392e-12 2.212835e-12) (-3.539100e-13 3.180483e-15 3.122359e-13)) ((-9.792818e-13 2.790134e-16 -3.054506e-16) (-6.677065e-09 1.760842e-14 -6.547379e-15))
0.710351      	((-5.253034e-12 -1.070010e-11 8.298480e-12) (-7.668976e-14 -1.297083e-14 3.173459e-13)) ((-8.654099e-13 3.583796e-16 -3.883004e-16) (-6.035578e-09 1.901794e-14 -9.190612e-15))
0.864421      	((-6.302222e-12 -1.320734e-11 5.235494e-12) (1.679905e-13 1.648523e-13 2.434920e-13)) ((-7.888830e-13 5.617673e-16 -4.256767e-16) (-5.473651e-09 1.766803e-14 -1.320006e-14))
1.049306      	((-4.025752e-12 -1.324931e-11 9.369517e-12) (3.476964e-13 3.476355e-13 1.178505e-13)) ((-7.382068e-13 6.081172e-16 -4.003206e-16) (-4.974201e-09 1.322346e-14 -1.570981e-14))
1.271167      	((-1.793583e-13 -1.700510e-11 1.151563e-11) (3.293052e-13 4.960101e-13 -6.594509e-14)) ((-6.875944e-13 5.203892e-16 -3.456109e-16) (-4.525806e-09 6.528076e-15 -1.959373e-14))
1.5374        	((1.726214e-12 -1.598818e-11 1.531769e-11) (1.497795e-13 7.503019e-13 -3.321329e-13)) ((-6.293243e-13 1.191043e-16 -2.533722e-16) (-4.121032e-09 2.466598e-15 -3.288354e-14))
1.85688       	((-1.898611e-12 -1.667625e-11 1.505267e-11) (1.956886e-13 1.270685e-12 -7.680641e-13)) ((-5.780622e-13 -3.105218e-18 -1.234054e-16) (-3.755838e-09 -9.180779e-15 -4.832752e-14))
2.240256      	((-2.785150e-13 -1.868476e-11 1.349181e-11) (2.247930e-13 2.072704e-12 -1.587600e-12)) ((-5.465640e-13 -2.274218e-16 7.712934e-17) (-3.428150e-09 -2.580757e-14 -7.039302e-14))
2.700307      	((-2.284542e-13 -1.696431e-11 1.055970e-11) (5.589998e-14 3.320839e-12 -2.902684e-12)) ((-5.249467e-13 -3.250229e-16 2.134010e-16) (-3.136494e-09 -4.734284e-14 -1.076818e-13))
3.252369      	((-3.751591e-13 -1.226081e-11 1.090920e-11) (2.340662e-13 5.064227e-12 -4.385216e-12)) ((-5.038309e-13 -4.998401e-16 3.653403e-16) (-2.878866e-09 -8.004103e-14 -1.435069e-13))
3.914842      	((-1.231077e-12 -5.514648e-12 7.134591e-12) (7.406667e-14 6.764844e-12 -5.836973e-12)) ((-4.795241e-13 -4.294869e-16 2.850050e-16) (-2.652246e-09 -1.057651e-13 -1.693358e-13))
4.709811      	((3.830222e-13 -1.925595e-12 2.090524e-12) (-3.163731e-13 8.367247e-12 -7.353239e-12)) ((-4.509965e-13 -4.580815e-16 1.817001e-16) (-2.452458e-09 -1.229381e-13 -1.863483e-13))
5.663773      	((-6.881432e-13 7.593500e-14 -1.716305e-12) (-1.308607e-13 9.497381e-12 -8.522054e-12)) ((-4.189867e-13 -4.521771e-16 1.209282e-16) (-2.274835e-09 -1.380101e-13 -1.892850e-13))
6.808528      	((-1.669342e-12 2.297583e-12 -2.988443e-12) (-9.620244e-15 9.660214e-12 -8.797361e-12)) ((-3.868877e-13 -4.610397e-16 1.982271e-16) (-2.115220e-09 -1.396360e-13 -1.834105e-13))
8.182233      	((-3.211399e-13 3.266089e-12 -5.034136e-12) (4.750718e-14 9.057257e-12 -8.259684e-12)) ((-3.556801e-13 -4.173568e-16 1.968863e-16) (-1.970303e-09 -1.239548e-13 -1.677168e-13))
9.83068       	((-2.163213e-12 3.883825e-12 -4.662516e-12) (1.275988e-13 7.712853e-12 -7.067214e-12)) ((-3.243143e-13 -3.716066e-16 3.083591e-16) (-1.837635e-09 -9.931251e-14 -1.365311e-13))
11.808816     	((-1.284099e-12 -5.791957e-13 -1.389687e-12) (4.422282e-13 5.855436e-12 -5.532935e-12)) ((-2.958349e-13 -3.457165e-16 4.111285e-16) (-1.715560e-09 -8.057795e-14 -9.665684e-14))
14.182579     	((-9.560754e-13 -1.259412e-12 3.604683e-13) (9.733935e-13 4.109281e-12 -4.106546e-12)) ((-2.688187e-13 -3.307065e-16 4.492078e-16) (-1.603066e-09 -6.778295e-14 -5.677793e-14))
17.031095     	((-1.431424e-12 -1.820688e-12 3.446176e-14) (1.040765e-12 2.826255e-12 -2.930512e-12)) ((-2.463186e-13 -2.469982e-16 4.165159e-16) (-1.499627e-09 -5.054726e-14 -2.885880e-14))
20.449314     	((-1.056287e-12 -1.933731e-12 9.884223e-13) (7.680063e-13 1.890856e-12 -1.965313e-12)) ((-2.262534e-13 -2.026308e-16 4.011733e-16) (-1.404885e-09 -3.079249e-14 -1.624505e-14))
24.551176     	((-4.667283e-13 -1.600573e-12 1.922040e-12) (4.674752e-13 1.317654e-12 -1.331425e-12)) ((-2.086165e-13 -2.056992e-16 4.223625e-16) (-1.318283e-09 -1.766580e-14 -9.257462e-15))
29.473411     	((-6.325175e-13 -1.819620e-12 1.172131e-12) (2.614060e-13 9.728864e-13 -1.001800e-12)) ((-1.937987e-13 -1.559656e-16 3.830165e-16) (-1.239265e-09 -1.164141e-14 -7.029560e-15))
35.380094     	((-3.595636e-13 -2.361512e-12 1.166996e-12) (1.336538e-13 7.938101e-13 -8.286784e-13)) ((-1.805689e-13 -1.288479e-16 3.451603e-16) (-1.167188e-09 -5.952196e-15 -1.083330e-14))
42.468112     	((-4.916783e-13 -1.638897e-12 1.200258e-12) (9.488632e-16 7.959528e-13 -8.272308e-13)) ((-1.689872e-13 -1.091190e-16 3.149216e-16) (-1.101444e-09 -3.643122e-15 -1.573610e-14))
50.973735     	((-3.036508e-13 -1.184766e-12 1.024451e-12) (-1.094275e-13 8.990539e-13 -8.800185e-13)) ((-1.585683e-13 -6.031617e-17 2.864596e-16) (-1.041511e-09 -4.264977e-15 -1.792993e-14))
61.180482     	((-2.904781e-13 -1.471333e-12 9.787328e-13) (-1.303786e-13 1.028662e-12 -1.007878e-12)) ((-1.491381e-13 -1.448025e-17 2.662319e-16) (-9.869381e-10 -6.530368e-15 -1.970305e-14))
73.428578     	((-2.576898e-13 -6.406855e-13 6.406978e-13) (-9.582200e-14 1.179018e-12 -1.182060e-12)) ((-1.409402e-13 7.303020e-19 2.373155e-16) (-9.373585e-10 -1.062083e-14 -2.193518e-14))
88.126294     	((-1.704068e-13 -8.341976e-13 2.316973e-13) (-4.983234e-14 1.314664e-12 -1.354794e-12)) ((-1.336558e-13 3.233176e-17 2.068425e-16) (-8.923982e-10 -1.594713e-14 -2.368851e-14))
105.763553    	((-2.996718e-14 -2.690369e-13 2.224735e-13) (-7.531368e-14 1.418931e-12 -1.434945e-12)) ((-1.268065e-13 6.533164e-17 1.766889e-16) (-8.517099e-10 -1.885050e-14 -2.552857e-14))
126.928263    	((-6.657222e-14 -1.708896e-13 -1.438217e-13) (-1.540227e-13 1.436874e-12 -1.415559e-12)) ((-1.206856e-13 8.063970e-17 1.662026e-16) (-8.149319e-10 -1.971497e-14 -2.599930e-14))
152.325916    	((-1.087607e-13 1.117020e-13 -2.723966e-13) (-2.143236e-13 1.360391e-12 -1.319969e-12)) ((-1.152618e-13 8.971579e-17 1.566843e-16) (-7.816800e-10 -2.022973e-14 -2.607323e-14))
182.803099    	((5.544969e-14 2.309839e-13 -3.685343e-13) (-1.879633e-13 1.250495e-12 -1.196814e-12)) ((-1.102001e-13 1.037200e-16 1.514057e-16) (-7.515589e-10 -2.166340e-14 -2.590204e-14))
219.375719    	((-6.502018e-15 2.570936e-13 -3.369043e-13) (-2.079871e-13 1.186071e-12 -1.128216e-12)) ((-1.055830e-13 1.014574e-16 1.402404e-16) (-7.242151e-10 -2.457144e-14 -2.596232e-14))
263.262863    	((-1.679390e-13 2.877382e-13 -3.551678e-13) (-2.731388e-13 1.155316e-12 -1.121025e-12)) ((-1.014119e-13 9.310505e-17 1.213326e-16) (-6.993530e-10 -2.713630e-14 -2.577247e-14))
315.927436    	((-2.271494e-13 5.061945e-13 -2.766926e-13) (-2.540666e-13 1.161157e-12 -1.126238e-12)) ((-9.765950e-14 7.603133e-17 1.100244e-16) (-6.767365e-10 -2.846654e-14 -2.631447e-14))
379.124923    	((-1.811818e-13 5.909399e-13 -1.612853e-13) (-2.254836e-13 1.160274e-12 -1.121168e-12)) ((-9.422801e-14 5.935167e-17 9.814834e-17) (-6.561729e-10 -2.832343e-14 -2.712026e-14))
454.961908    	((-1.850788e-13 6.039558e-13 -1.181175e-13) (-2.290448e-13 1.137496e-12 -1.108052e-12)) ((-9.107260e-14 4.259474e-17 9.162970e-17) (-6.375195e-10 -2.822244e-14 -2.653402e-14))
545.966289    	((-6.395766e-15 6.248091e-13 -1.187021e-13) (-1.593383e-13 1.116156e-12 -1.098663e-12)) ((-8.817302e-14 3.288835e-17 8.684525e-17) (-6.206513e-10 -2.814097e-14 -2.514697e-14))
655.171547    	((1.164689e-13 6.949877e-13 -6.263205e-14) (-1.009388e-13 1.097324e-12 -1.068619e-12)) ((-8.553029e-14 2.689986e-17 8.137142e-17) (-6.054472e-10 -2.756446e-14 -2.392954e-14))
786.217856    	((1.441343e-13 6.628322e-13 -7.678758e-14) (-1.200252e-13 1.070899e-12 -1.036429e-12)) ((-8.313229e-14 2.035612e-17 8.472896e-17) (-5.918001e-10 -2.656164e-14 -2.308977e-14))
943.473427    	((6.952654e-14 6.082599e-13 -1.180937e-13) (-1.430586e-13 1.032620e-12 -9.943778e-13)) ((-8.099158e-14 8.848177e-18 9.432385e-17) (-5.796095e-10 -2.492893e-14 -2.297906e-14))
1132.180113   	((2.752551e-14 5.636895e-13 -1.585448e-13) (-1.489485e-13 9.849490e-13 -9.322303e-13)) ((-7.910793e-14 -5.794058e-19 9.518505e-17) (-5.687779e-10 -2.295623e-14 -2.280797e-14))
1358.628135   	((3.040887e-14 5.486558e-13 -1.600772e-13) (-1.709617e-13 9.365153e-13 -8.712918e-13)) ((-7.744938e-14 -2.257209e-18 9.207834e-17) (-5.592034e-10 -2.149969e-14 -2.214927e-14))
1630.365763   	((2.786371e-14 5.076162e-13 -1.638990e-13) (-1.973864e-13 9.074713e-13 -8.338426e-13)) ((-7.599382e-14 -2.903190e-19 8.909117e-17) (-5.507819e-10 -2.021602e-14 -2.131259e-14))
1956.450915   	((5.854178e-14 4.587101e-13 -1.735371e-13) (-2.117330e-13 8.826176e-13 -8.031811e-13)) ((-7.472573e-14 -3.427902e-19 8.649692e-17) (-5.434176e-10 -1.901704e-14 -2.048373e-14))
2347.753098   	((7.140460e-14 4.506984e-13 -1.705703e-13) (-2.002499e-13 8.586189e-13 -7.790617e-13)) ((-7.364845e-14 1.840423e-18 8.435952e-17) (-5.370168e-10 -1.806012e-14 -1.972250e-14))
2817.315718   	((9.997613e-14 4.447236e-13 -1.511667e-13) (-1.877443e-13 8.331606e-13 -7.514961e-13)) ((-7.272573e-14 2.474318e-18 8.356786e-17) (-5.314893e-10 -1.706167e-14 -1.900019e-14))
3380.790861   	((1.035496e-13 4.501245e-13 -1.594728e-13) (-1.723043e-13 8.050349e-13 -7.201358e-13)) ((-7.194493e-14 2.940001e-18 8.294370e-17) (-5.267463e-10 -1.596272e-14 -1.844520e-14))
4056.961033   	((1.016539e-13 4.451037e-13 -1.583820e-13) (-1.554588e-13 7.822527e-13 -6.900625e-13)) ((-7.127830e-14 3.870959e-18 8.147185e-17) (-5.227046e-10 -1.493429e-14 -1.800687e-14))
4868.36524    	((8.615614e-14 4.630096e-13 -1.568398e-13) (-1.321425e-13 7.633283e-13 -6.644931e-13)) ((-7.070822e-14 4.886355e-18 8.024655e-17) (-5.192844e-10 -1.392618e-14 -1.767395e-14))
5842.050288   	((3.149249e-14 4.652359e-13 -1.733818e-13) (-1.146227e-13 7.490705e-13 -6.413241e-13)) ((-7.019531e-14 6.267447e-18 7.981502e-17) (-5.164110e-10 -1.299485e-14 -1.744458e-14))
7010.472346   	((6.144893e-14 4.574810e-13 -2.014649e-13) (-9.628791e-14 7.396163e-13 -6.190846e-13)) ((-6.979196e-14 4.055768e-18 8.066531e-17) (-5.140139e-10 -1.232868e-14 -1.726803e-14))
8412.578815   	((5.702581e-14 4.642270e-13 -1.908166e-13) (-7.740428e-14 7.321170e-13 -5.984610e-13)) ((-6.945561e-14 5.137675e-18 7.905688e-17) (-5.120277e-10 -1.160993e-14 -1.712321e-14))
10095.106578  	((1.933484e-14 4.686994e-13 -1.764534e-13) (-6.731801e-14 7.239243e-13 -5.794506e-13)) ((-6.917701e-14 5.898449e-18 7.806225e-17) (-5.103931e-10 -1.101675e-14 -1.688904e-14))
12114.139893  	((-3.409093e-14 4.790809e-13 -1.660151e-13) (-6.294584e-14 7.163708e-13 -5.628429e-13)) ((-6.894670e-14 6.395972e-18 7.742224e-17) (-5.090562e-10 -1.057153e-14 -1.659781e-14))
14536.979872  	((-9.098450e-14 5.033626e-13 -1.482310e-13) (-5.905403e-14 7.117424e-13 -5.471969e-13)) ((-6.875812e-14 5.978119e-18 7.681138e-17) (-5.079688e-10 -1.033414e-14 -1.627485e-14))
17444.387847  	((-1.575676e-13 5.142612e-13 -1.018557e-13) (-5.799359e-14 7.118347e-13 -5.325128e-13)) ((-6.860321e-14 3.984123e-18 7.704524e-17) (-5.070886e-10 -1.018054e-14 -1.580895e-14))
20863.516663  	((-1.519711e-13 5.453096e-13 -7.963550e-14) (-5.895241e-14 7.132876e-13 -5.212791e-13)) ((-6.847321e-14 5.523598e-18 6.892879e-17) (-5.063796e-10 -9.882131e-15 -1.513815e-14))
24794.37603   	((-1.269612e-13 5.615241e-13 -9.380886e-14) (-5.741242e-14 7.161901e-13 -5.128337e-13)) ((-6.836889e-14 1.444043e-18 7.722102e-17) (-5.058109e-10 -9.655045e-15 -1.499495e-14))
29236.97365   	((-7.382970e-14 5.802728e-13 -9.718474e-14) (-5.557909e-14 7.112109e-13 -5.067532e-13)) ((-6.828843e-14 2.639997e-18 7.371625e-17) (-5.053562e-10 -9.476949e-15 -1.473315e-14))
34191.315625  	((-5.140692e-14 5.526045e-13 -8.469252e-14) (-4.929817e-14 7.016333e-13 -5.029901e-13)) ((-6.818679e-14 1.188673e-17 7.129335e-17) (-5.049948e-10 -9.276571e-15 -1.459619e-14))
39308.807451  	((3.146016e-14 5.956050e-13 -9.839504e-14) (-4.524833e-14 6.869259e-13 -4.953462e-13)) ((-6.815362e-14 8.517632e-18 6.471236e-17) (-5.047069e-10 -9.537058e-15 -1.379251e-14))
44426.337242  	((2.036322e-13 6.153748e-13 -1.375035e-13) (-3.935943e-14 6.796656e-13 -4.941278e-13)) ((-6.809285e-14 8.787000e-18 6.420634e-17) (-5.044788e-10 -9.488235e-15 -1.362630e-14))
49543.896978  	((3.089496e-13 6.281563e-13 -1.652759e-13) (-2.729450e-14 6.834953e-13 -4.922014e-13)) ((-6.800930e-14 6.405675e-18 7.552326e-17) (-5.042998e-10 -9.296666e-15 -1.371245e-14))
54661.48028   	((4.349582e-13 6.744806e-13 -3.037424e-13) (-2.243617e-14 6.993864e-13 -4.933102e-13)) ((-6.797285e-14 8.736250e-18 6.500490e-17) (-5.041581e-10 -9.286898e-15 -1.385119e-14))
59779.082226  	((6.385019e-13 6.956003e-13 -2.272802e-13) (-1.649358e-14 7.092839e-13 -4.843638e-13)) ((-6.796439e-14 8.211977e-18 5.329745e-17) (-5.040461e-10 -9.329006e-15 -1.349897e-14))
64896.69891   	((6.389218e-13 7.629524e-13 -2.732992e-13) (-1.094467e-14 7.111014e-13 -4.838066e-13)) ((-6.791840e-14 4.335901e-18 7.095557e-17) (-5.039571e-10 -9.123504e-15 -1.344654e-14))
70014.327254  	((8.290358e-13 7.742449e-13 -4.971768e-13) (-1.472750e-14 6.973572e-13 -4.929318e-13)) ((-6.787298e-14 1.383072e-17 6.942368e-17) (-5.038874e-10 -9.141646e-15 -1.359474e-14))
75131.964757  	((8.779860e-13 9.049894e-13 -5.609255e-13) (-8.427881e-15 6.682658e-13 -4.776421e-13)) ((-6.782498e-14 -7.358023e-18 6.159130e-17) (-5.038333e-10 -8.563366e-15 -1.356626e-14))
80249.609436  	((9.444999e-13 9.016760e-13 -6.273176e-13) (-3.748854e-15 6.530217e-13 -4.730290e-13)) ((-6.778314e-14 7.721479e-18 8.274725e-17) (-5.037909e-10 -8.428342e-15 -1.340174e-14))
85367.259802  	((1.019203e-12 1.004905e-12 -5.621898e-13) (-3.117721e-15 6.618248e-13 -4.775535e-13)) ((-6.774927e-14 8.485553e-18 7.828843e-17) (-5.037571e-10 -8.947901e-15 -1.395090e-14))
90484.914676  	((1.124812e-12 1.130230e-12 -4.677916e-13) (-1.484093e-15 6.783180e-13 -4.838355e-13)) ((-6.773206e-14 9.078143e-18 5.420450e-17) (-5.037304e-10 -9.012924e-15 -1.374308e-14))
95602.573124  	((1.113450e-12 1.178979e-12 -4.385320e-13) (3.845769e-16 6.849407e-13 -4.980036e-13)) ((-6.770349e-14 1.233075e-17 5.958187e-17) (-5.037092e-10 -9.242535e-15 -1.315727e-14))
100720.234413 	((1.256785e-12 1.363531e-12 -3.949963e-13) (3.841608e-15 6.941457e-13 -5.022117e-13)) ((-6.766104e-14 1.812822e-17 6.423896e-17) (-5.036925e-10 -9.223850e-15 -1.314500e-14))
105837.897984 	((1.334424e-12 1.377936e-12 -3.545701e-13) (9.140909e-15 6.882344e-13 -4.997738e-13)) ((-6.766080e-14 2.526634e-18 7.114324e-17) (-5.036783e-10 -9.000881e-15 -1.296534e-14))
110955.563387 	((1.525289e-12 1.430416e-12 -2.838181e-13) (1.474411e-14 6.816115e-13 -4.850063e-13)) ((-6.763191e-14 -1.032577e-17 7.389138e-17) (-5.036667e-10 -8.538257e-15 -1.300202e-14))
116073.230233 	((1.605731e-12 1.615306e-12 -2.055529e-13) (1.938068e-14 6.782530e-13 -4.781667e-13)) ((-6.760892e-14 8.829824e-19 6.769198e-17) (-5.036571e-10 -8.370808e-15 -1.345555e-14))
121190.898238 	((1.815561e-12 1.717197e-12 -1.446571e-13) (2.751195e-14 6.670496e-13 -4.810059e-13)) ((-6.759155e-14 6.354502e-18 5.823277e-17) (-5.036486e-10 -8.514296e-15 -1.376621e-14))
