# Forces      
# CofR        : (0.000000e+00 0.000000e+00 0.000000e+00)
# Time        forces(pressure viscous)	moments(pressure viscous)
0             	((0.000000e+00 0.000000e+00 0.000000e+00) (6.099450e-13 9.983591e-03 -1.364789e-12)) ((0.000000e+00 0.000000e+00 0.000000e+00) (1.981119e-13 -2.640884e-15 -3.142949e-09))
0.012         	((2.407373e-05 2.938995e+00 1.954367e-05) (-1.454568e-08 1.273033e-02 -6.165657e-08)) ((-4.052755e-10 2.112250e-10 -5.267628e-07) (4.130878e-10 9.096790e-12 5.442220e-11))
0.0264        	((-1.453378e-04 -6.891070e-01 -1.270939e-04) (-1.240079e-07 1.265084e-02 -1.727118e-07)) ((1.366591e-08 5.325491e-10 6.060956e-08) (8.546082e-09 7.565681e-11 8.544973e-09))
0.04368       	((1.470448e-04 -3.075203e-01 8.699972e-05) (-1.539474e-07 1.069944e-02 -1.429988e-07)) ((-9.512204e-09 -5.589988e-10 1.245931e-07) (7.337419e-09 1.600136e-10 2.400297e-08))
0.064416      	((-3.357379e-05 -1.737128e-03 -1.131770e-05) (-1.046877e-06 9.448802e-03 -8.679654e-08)) ((1.173266e-10 -1.994055e-10 -1.248549e-08) (1.168548e-09 1.294274e-10 2.665451e-08))
0.0892992     	((-5.370537e-05 -1.317232e-03 -1.247114e-05) (-2.842493e-06 8.688203e-03 1.548804e-08)) ((1.610767e-09 -2.582829e-10 6.156922e-09) (2.556037e-09 8.887190e-11 2.939299e-08))
0.119159      	((-9.433376e-05 1.375356e-03 -9.293350e-06) (-4.106886e-06 8.061112e-03 6.943810e-08)) ((1.503315e-09 -1.188428e-10 6.808339e-09) (3.131278e-09 1.800801e-10 4.211285e-08))
0.154991      	((-6.850665e-05 3.719449e-03 -3.342735e-06) (-5.081952e-06 7.548132e-03 7.543023e-08)) ((6.573241e-10 -1.879965e-10 1.502977e-09) (2.967224e-09 2.408543e-10 6.370696e-08))
0.197989      	((-7.396971e-05 4.649314e-03 -2.073589e-06) (-5.322147e-06 7.141604e-03 1.411941e-07)) ((1.124260e-10 -2.447208e-10 -9.630146e-09) (2.995995e-09 4.249484e-10 7.930830e-08))
0.249587      	((-2.414115e-05 5.260616e-03 -3.615422e-07) (-4.242063e-06 6.800652e-03 1.664064e-07)) ((1.294985e-10 2.670699e-11 -9.054941e-09) (1.857476e-09 5.439869e-10 9.989627e-08))
0.311504      	((-1.613055e-05 5.738817e-03 5.019069e-07) (-3.612468e-06 6.491987e-03 1.177771e-07)) ((-1.007138e-10 1.665510e-11 -9.784842e-09) (7.634195e-10 4.736781e-10 1.137907e-07))
0.385805      	((-1.542885e-05 6.353698e-03 -1.070846e-06) (-3.449126e-06 6.205990e-03 5.357622e-08)) ((-1.258509e-10 -5.242542e-11 -1.487304e-08) (-1.464058e-09 4.207152e-10 1.130475e-07))
0.474966      	((-1.060002e-05 7.136615e-03 -2.555009e-06) (-2.852868e-06 5.941070e-03 9.263505e-09)) ((-3.775190e-11 3.086236e-11 -1.974191e-08) (-4.280523e-09 3.399183e-10 1.142621e-07))
0.580826      	((-2.185245e-06 8.197886e-03 -3.728291e-06) (-2.049888e-06 5.702932e-03 -2.224915e-08)) ((3.834352e-11 3.780331e-11 -2.549026e-08) (-6.471370e-09 1.992673e-10 1.231727e-07))
0.703406      	((4.726852e-06 9.529543e-03 -4.412241e-06) (-1.293202e-06 5.498041e-03 -5.898678e-08)) ((-1.748453e-11 -3.231849e-12 -3.206616e-08) (-7.223224e-09 1.038212e-10 1.357748e-07))
0.842715      	((1.283097e-05 1.113976e-02 -5.848650e-06) (-5.550326e-07 5.325850e-03 -1.056336e-07)) ((2.564950e-11 4.860119e-11 -4.008068e-08) (-7.282814e-09 2.595933e-11 1.526456e-07))
0.998672      	((1.990941e-05 1.291860e-02 -8.803605e-06) (2.657688e-07 5.185618e-03 -1.699445e-07)) ((9.802751e-11 4.751406e-11 -4.895332e-08) (-6.937548e-09 2.638594e-11 1.783258e-07))
1.163502      	((2.821962e-05 1.485461e-02 -9.557515e-06) (1.167806e-06 5.074965e-03 -2.228358e-07)) ((1.267033e-10 1.002097e-10 -5.827050e-08) (-5.334368e-09 -1.927009e-11 2.068576e-07))
1.326582      	((4.170396e-05 1.667246e-02 -8.301228e-06) (1.965233e-06 4.983877e-03 -1.864242e-07)) ((1.050161e-10 1.316985e-10 -6.573348e-08) (-2.070468e-09 -7.063221e-11 2.336183e-07))
1.488249      	((4.792968e-05 1.836055e-02 -6.765270e-06) (2.091142e-06 4.900271e-03 -9.110333e-08)) ((1.543454e-10 1.297813e-10 -7.111785e-08) (8.381778e-10 5.553412e-12 2.570370e-07))
1.648984      	((5.432746e-05 1.974760e-02 -5.753522e-06) (1.934743e-06 4.821788e-03 -6.178717e-08)) ((2.244704e-10 2.178076e-10 -7.568592e-08) (1.666139e-09 1.339558e-10 2.821989e-07))
1.809636      	((6.487537e-05 2.076162e-02 -5.292801e-06) (1.775597e-06 4.747843e-03 -1.535953e-07)) ((3.095794e-10 2.077227e-10 -8.025130e-08) (-3.736194e-09 2.009100e-10 3.164065e-07))
1.970619      	((7.241453e-05 2.141446e-02 -6.722917e-06) (1.599772e-06 4.681212e-03 -2.732342e-07)) ((4.144952e-10 1.894663e-10 -8.384858e-08) (-1.076426e-08 2.435256e-10 3.552701e-07))
2.131692      	((8.677444e-05 2.166601e-02 -1.982738e-06) (1.516070e-06 4.619202e-03 -3.314674e-07)) ((3.229908e-10 2.347042e-10 -8.610396e-08) (-1.594226e-08 3.060249e-10 3.843988e-07))
2.292386      	((1.023845e-04 2.162750e-02 2.213529e-06) (1.410009e-06 4.562918e-03 -3.166070e-07)) ((2.474048e-10 3.004614e-10 -8.701030e-08) (-1.971693e-08 3.150510e-10 3.960033e-07))
2.452536      	((1.100587e-04 2.132653e-02 3.752567e-06) (1.264060e-06 4.515708e-03 -2.799193e-07)) ((2.515285e-10 4.406848e-10 -8.745182e-08) (-2.244387e-08 2.547572e-10 4.011951e-07))
2.612253      	((1.181861e-04 2.089939e-02 1.659218e-06) (1.289580e-06 4.475992e-03 -2.313805e-07)) ((2.591250e-10 5.337986e-10 -8.831582e-08) (-2.322095e-08 2.098206e-10 4.040663e-07))
2.771681      	((1.345935e-04 2.048519e-02 1.740582e-06) (1.588246e-06 4.440055e-03 -2.186118e-07)) ((1.499089e-10 6.100728e-10 -8.914894e-08) (-2.503996e-08 2.669029e-10 4.020935e-07))
2.930878      	((1.478971e-04 2.012949e-02 7.954742e-07) (1.739954e-06 4.406594e-03 -2.347154e-07)) ((1.583710e-10 6.466039e-10 -8.922943e-08) (-2.760187e-08 4.515248e-10 4.003067e-07))
3.08982       	((1.642483e-04 1.998283e-02 2.601363e-06) (1.773212e-06 4.376043e-03 -2.299131e-07)) ((1.280663e-10 6.554838e-10 -8.960811e-08) (-2.914253e-08 9.068585e-10 3.965183e-07))
3.248488      	((1.823688e-04 1.992220e-02 3.099322e-06) (2.083143e-06 4.348130e-03 -2.139664e-07)) ((1.746045e-10 6.358927e-10 -9.038448e-08) (-3.022442e-08 1.364750e-09 3.842433e-07))
3.406905      	((1.973819e-04 1.983360e-02 1.586117e-07) (2.566147e-06 4.322127e-03 -2.191726e-07)) ((1.960098e-10 6.548434e-10 -9.120763e-08) (-3.030641e-08 1.625829e-09 3.690568e-07))
3.565123      	((2.218338e-04 1.970792e-02 -1.169316e-06) (3.099692e-06 4.297879e-03 -2.177531e-07)) ((1.940960e-10 6.496754e-10 -9.189014e-08) (-2.842817e-08 1.556233e-09 3.545000e-07))
3.723179      	((2.473305e-04 1.947790e-02 -1.744221e-06) (3.713667e-06 4.274770e-03 -1.948764e-07)) ((2.227925e-10 6.416510e-10 -9.221261e-08) (-2.584134e-08 1.445386e-09 3.402630e-07))
3.881083      	((2.781070e-04 1.925014e-02 -5.512542e-07) (4.460800e-06 4.252534e-03 -2.003521e-07)) ((2.409403e-10 6.407855e-10 -9.227577e-08) (-2.550773e-08 9.523112e-10 3.283292e-07))
4.038848      	((3.151997e-04 1.905061e-02 -1.210146e-06) (5.273829e-06 4.231673e-03 -2.264365e-07)) ((2.969647e-10 6.187398e-10 -9.237761e-08) (-2.676187e-08 5.811572e-10 3.218346e-07))
4.196486      	((3.594162e-04 1.891861e-02 -2.857545e-06) (6.104071e-06 4.212887e-03 -2.702737e-07)) ((3.085911e-10 5.507198e-10 -9.269364e-08) (-2.845913e-08 3.131731e-10 3.249441e-07))
4.354004      	((4.025712e-04 1.883910e-02 -4.918775e-06) (6.901804e-06 4.196479e-03 -3.166586e-07)) ((3.447739e-10 4.443667e-10 -9.331546e-08) (-2.905634e-08 2.678661e-11 3.381852e-07))
4.511409      	((4.553254e-04 1.879296e-02 -6.911615e-06) (7.695807e-06 4.182247e-03 -3.666084e-07)) ((3.292249e-10 3.737926e-10 -9.412933e-08) (-2.878287e-08 -2.813482e-10 3.562119e-07))
4.668718      	((5.075317e-04 1.871771e-02 -8.560089e-06) (8.584429e-06 4.169391e-03 -4.118461e-07)) ((2.751321e-10 2.812390e-10 -9.491801e-08) (-2.832097e-08 -6.345582e-10 3.746502e-07))
4.82594       	((5.673526e-04 1.863619e-02 -1.214027e-05) (9.674429e-06 4.157319e-03 -4.552924e-07)) ((2.541754e-10 2.426122e-10 -9.561609e-08) (-2.724294e-08 -6.598081e-10 3.918071e-07))
4.98308       	((6.367215e-04 1.852404e-02 -1.461232e-05) (1.097568e-05 4.145852e-03 -4.961459e-07)) ((2.309103e-10 2.196753e-10 -9.605157e-08) (-2.587543e-08 -4.374817e-10 4.089088e-07))
5.140138      	((7.155841e-04 1.839769e-02 -1.714583e-05) (1.241586e-05 4.134927e-03 -5.377602e-07)) ((2.558365e-10 1.878537e-10 -9.626419e-08) (-2.438409e-08 -9.685958e-11 4.296726e-07))
5.297117      	((8.035269e-04 1.826943e-02 -2.006287e-05) (1.400587e-05 4.124428e-03 -6.006190e-07)) ((2.772244e-10 1.563953e-10 -9.637523e-08) (-2.334313e-08 2.952490e-10 4.543157e-07))
5.45402       	((8.967213e-04 1.816310e-02 -2.213732e-05) (1.578028e-05 4.114401e-03 -6.720109e-07)) ((2.766749e-10 1.283092e-10 -9.652207e-08) (-2.344774e-08 6.988416e-10 4.813941e-07))
5.610848      	((9.986095e-04 1.807962e-02 -2.415735e-05) (1.777856e-05 4.104910e-03 -7.630996e-07)) ((2.701700e-10 4.438500e-11 -9.674311e-08) (-2.446787e-08 1.096526e-09 5.105419e-07))
5.767599      	((1.111770e-03 1.800373e-02 -2.735350e-05) (2.003327e-05 4.095849e-03 -8.662316e-07)) ((3.032720e-10 -5.926436e-11 -9.699939e-08) (-2.548214e-08 1.011773e-09 5.406198e-07))
5.924265      	((1.233866e-03 1.793063e-02 -3.132720e-05) (2.252531e-05 4.087106e-03 -9.805393e-07)) ((3.393107e-10 -1.714662e-10 -9.726911e-08) (-2.618286e-08 8.939731e-11 5.722319e-07))
6.080842      	((1.364354e-03 1.785938e-02 -3.582166e-05) (2.524528e-05 4.078675e-03 -1.104439e-06)) ((3.660651e-10 -2.404860e-10 -9.755932e-08) (-2.681755e-08 -1.173524e-09 6.077150e-07))
6.237334      	((1.499636e-03 1.778993e-02 -3.985788e-05) (2.814881e-05 4.070585e-03 -1.225677e-06)) ((3.929000e-10 -2.514758e-10 -9.781185e-08) (-2.715088e-08 -1.986478e-09 6.484756e-07))
6.393742      	((1.644743e-03 1.772386e-02 -4.448634e-05) (3.118434e-05 4.062824e-03 -1.346167e-06)) ((4.431316e-10 -2.462025e-10 -9.801760e-08) (-2.712615e-08 -2.624462e-09 6.956217e-07))
6.550068      	((1.805548e-03 1.765722e-02 -5.053718e-05) (3.442767e-05 4.055370e-03 -1.496226e-06)) ((5.405197e-10 -2.327624e-10 -9.820013e-08) (-2.745639e-08 -2.985287e-09 7.476658e-07))
6.706311      	((1.980805e-03 1.759954e-02 -5.775027e-05) (3.800266e-05 4.048224e-03 -1.686237e-06)) ((6.353646e-10 -2.149531e-10 -9.838424e-08) (-2.772128e-08 -3.246238e-09 8.019678e-07))
6.862475      	((2.175687e-03 1.754704e-02 -6.556415e-05) (4.198640e-05 4.041433e-03 -1.893780e-06)) ((7.043357e-10 -2.336721e-10 -9.852955e-08) (-2.770023e-08 -4.097276e-09 8.580789e-07))
7.018562      	((2.390121e-03 1.749532e-02 -7.503740e-05) (4.642189e-05 4.035010e-03 -2.108254e-06)) ((8.058367e-10 -2.626272e-10 -9.867889e-08) (-2.713940e-08 -5.029601e-09 9.165640e-07))
7.174574      	((2.625276e-03 1.745298e-02 -8.464116e-05) (5.136867e-05 4.028998e-03 -2.328791e-06)) ((8.936952e-10 -2.719157e-10 -9.886721e-08) (-2.632355e-08 -5.706608e-09 9.775413e-07))
7.330514      	((2.883281e-03 1.741831e-02 -9.449739e-05) (5.685725e-05 4.023430e-03 -2.566837e-06)) ((9.533463e-10 -2.895135e-10 -9.909191e-08) (-2.675961e-08 -6.062275e-09 1.043786e-06))
7.486384      	((3.168856e-03 1.738692e-02 -1.071777e-04) (6.290738e-05 4.018262e-03 -2.838393e-06)) ((1.027692e-09 -3.298493e-10 -9.935535e-08) (-2.831207e-08 -5.689151e-09 1.119759e-06))
7.642185      	((3.483051e-03 1.736174e-02 -1.211089e-04) (6.954397e-05 4.013418e-03 -3.125655e-06)) ((1.103613e-09 -3.137873e-10 -9.966644e-08) (-2.801052e-08 -4.520072e-09 1.209012e-06))
7.79792       	((3.831587e-03 1.734188e-02 -1.358697e-04) (7.684393e-05 4.008880e-03 -3.445716e-06)) ((1.163881e-09 -2.875005e-10 -9.994054e-08) (-2.546696e-08 -3.184862e-09 1.311059e-06))
7.953593      	((4.213694e-03 1.733304e-02 -1.549266e-04) (8.494467e-05 4.004771e-03 -3.818541e-06)) ((1.285630e-09 -2.236714e-10 -1.000823e-07) (-2.118620e-08 -2.284358e-09 1.420765e-06))
8.109205      	((4.632293e-03 1.732837e-02 -1.766202e-04) (9.394029e-05 4.001137e-03 -4.238960e-06)) ((1.427028e-09 -1.595189e-10 -1.001221e-07) (-1.474546e-08 -1.236756e-09 1.538464e-06))
8.264758      	((5.090489e-03 1.733159e-02 -1.988021e-04) (1.037980e-04 3.997959e-03 -4.699555e-06)) ((1.594325e-09 -6.412237e-11 -1.001328e-07) (-7.188480e-09 1.869042e-10 1.671417e-06))
8.420255      	((5.612053e-03 1.733540e-02 -2.236137e-04) (1.145798e-04 3.995153e-03 -5.210903e-06)) ((1.719825e-09 3.257817e-11 -1.001464e-07) (8.649853e-10 2.421178e-09 1.826921e-06))
8.575698      	((6.190685e-03 1.735648e-02 -2.524873e-04) (1.264686e-04 3.992750e-03 -5.783934e-06)) ((1.784466e-09 1.609007e-10 -1.001595e-07) (8.761258e-09 5.857581e-09 2.007779e-06))
8.731089      	((6.824221e-03 1.740187e-02 -2.805740e-04) (1.395357e-04 3.990888e-03 -6.413081e-06)) ((1.837221e-09 2.882604e-10 -1.002507e-07) (1.714672e-08 9.403981e-09 2.215890e-06))
8.886428      	((7.523390e-03 1.747062e-02 -3.153390e-04) (1.538931e-04 3.989639e-03 -7.102518e-06)) ((1.977666e-09 4.206730e-10 -1.003755e-07) (2.811494e-08 1.238752e-08 2.451634e-06))
9.041717      	((8.308199e-03 1.755454e-02 -3.517844e-04) (1.698758e-04 3.989125e-03 -7.849314e-06)) ((2.213892e-09 5.788477e-10 -1.004302e-07) (4.068964e-08 1.477222e-08 2.707967e-06))
9.196955      	((9.171156e-03 1.766749e-02 -3.887563e-04) (1.877761e-04 3.989674e-03 -8.642715e-06)) ((2.404204e-09 7.643722e-10 -1.005883e-07) (5.240882e-08 1.626973e-08 2.971809e-06))
9.352145      	((1.012080e-02 1.780858e-02 -4.302544e-04) (2.078722e-04 3.991479e-03 -9.507053e-06)) ((2.575285e-09 8.429732e-10 -1.008819e-07) (6.195419e-08 1.821639e-08 3.241999e-06))
9.507289      	((1.115189e-02 1.800645e-02 -4.742920e-04) (2.304724e-04 3.994749e-03 -1.047429e-05)) ((2.695304e-09 9.251251e-10 -1.012802e-07) (6.969571e-08 2.068440e-08 3.520856e-06))
9.66239       	((1.227054e-02 1.825049e-02 -5.233908e-04) (2.553171e-04 3.999543e-03 -1.158365e-05)) ((3.052767e-09 1.157965e-09 -1.016807e-07) (7.851197e-08 2.188398e-08 3.820240e-06))
9.817451      	((1.348367e-02 1.855622e-02 -5.834207e-04) (2.825085e-04 4.005941e-03 -1.283388e-05)) ((3.531283e-09 1.664763e-09 -1.019774e-07) (9.261901e-08 2.253581e-08 4.142877e-06))
9.972471      	((1.479280e-02 1.891835e-02 -6.405493e-04) (3.124059e-04 4.014395e-03 -1.420066e-05)) ((3.832848e-09 2.227352e-09 -1.021840e-07) (1.079493e-07 2.316146e-08 4.476749e-06))
10.127447     	((1.618966e-02 1.934719e-02 -7.106427e-04) (3.452326e-04 4.025296e-03 -1.570395e-05)) ((4.223763e-09 2.656683e-09 -1.022331e-07) (1.229965e-07 2.489727e-08 4.818691e-06))
10.282373     	((1.767863e-02 1.987385e-02 -7.864048e-04) (3.810793e-04 4.038832e-03 -1.736417e-05)) ((4.544010e-09 3.079464e-09 -1.023526e-07) (1.425958e-07 2.783708e-08 5.177905e-06))
10.437243     	((1.921494e-02 2.053714e-02 -8.660684e-04) (4.195861e-04 4.055531e-03 -1.915934e-05)) ((4.854289e-09 3.673374e-09 -1.024442e-07) (1.659904e-07 3.313616e-08 5.567428e-06))
10.592028     	((2.079814e-02 2.130174e-02 -9.528324e-04) (4.605531e-04 4.076140e-03 -2.113230e-05)) ((5.200852e-09 4.492283e-09 -1.026397e-07) (1.878985e-07 4.001860e-08 5.976410e-06))
10.746721     	((2.241201e-02 2.220004e-02 -1.039350e-03) (5.037263e-04 4.101213e-03 -2.329803e-05)) ((5.772163e-09 5.579014e-09 -1.033752e-07) (2.071597e-07 4.746617e-08 6.393348e-06))
10.901352     	((2.404627e-02 2.319642e-02 -1.118001e-03) (5.491083e-04 4.130955e-03 -2.560993e-05)) ((6.320798e-09 6.767283e-09 -1.045209e-07) (2.273754e-07 5.132282e-08 6.802005e-06))
11.055948     	((2.561079e-02 2.427993e-02 -1.206614e-03) (5.965310e-04 4.165512e-03 -2.809068e-05)) ((6.904586e-09 7.863101e-09 -1.056911e-07) (2.432849e-07 5.089153e-08 7.168116e-06))
11.210502     	((2.703655e-02 2.548635e-02 -1.280199e-03) (6.451196e-04 4.204993e-03 -3.070146e-05)) ((6.976965e-09 8.841034e-09 -1.065431e-07) (2.533522e-07 5.028686e-08 7.467427e-06))
11.365008     	((2.828364e-02 2.674110e-02 -1.354717e-03) (6.936943e-04 4.249558e-03 -3.340992e-05)) ((6.966653e-09 9.800697e-09 -1.072249e-07) (2.588338e-07 4.790231e-08 7.700636e-06))
11.519471     	((2.926165e-02 2.796062e-02 -1.405038e-03) (7.408912e-04 4.298518e-03 -3.608676e-05)) ((6.883573e-09 1.058685e-08 -1.082059e-07) (2.589980e-07 4.500906e-08 7.858959e-06))
11.673898     	((2.988089e-02 2.906681e-02 -1.445857e-03) (7.847652e-04 4.350116e-03 -3.857229e-05)) ((7.117245e-09 1.123427e-08 -1.088968e-07) (2.554629e-07 4.482033e-08 7.948905e-06))
11.828296     	((3.006179e-02 3.001101e-02 -1.450234e-03) (8.233087e-04 4.401582e-03 -4.062517e-05)) ((7.225392e-09 1.136861e-08 -1.085928e-07) (2.551769e-07 4.862863e-08 7.985144e-06))
11.982685     	((2.967467e-02 3.073425e-02 -1.434604e-03) (8.540427e-04 4.449724e-03 -4.210847e-05)) ((7.673726e-09 1.086658e-08 -1.072989e-07) (2.591033e-07 5.364320e-08 7.962727e-06))
12.137083     	((2.865614e-02 3.109687e-02 -1.377383e-03) (8.739510e-04 4.491993e-03 -4.277689e-05)) ((7.800290e-09 9.883091e-09 -1.045421e-07) (2.672026e-07 5.705053e-08 7.878842e-06))
12.291534     	((2.689731e-02 3.102583e-02 -1.284986e-03) (8.796677e-04 4.526852e-03 -4.257537e-05)) ((7.770792e-09 8.326489e-09 -1.017050e-07) (2.748566e-07 5.471689e-08 7.717525e-06))
12.446083     	((2.444758e-02 3.046921e-02 -1.153904e-03) (8.676098e-04 4.552358e-03 -4.155693e-05)) ((7.218678e-09 6.193104e-09 -1.000514e-07) (2.747660e-07 4.657740e-08 7.492570e-06))
12.600773     	((2.124086e-02 2.950976e-02 -1.010827e-03) (8.345709e-04 4.567490e-03 -3.968201e-05)) ((6.871364e-09 3.705159e-09 -9.817773e-08) (2.693364e-07 2.540470e-08 7.211938e-06))
12.755651     	((1.740032e-02 2.819968e-02 -8.248541e-04) (7.784856e-04 4.573030e-03 -3.677478e-05)) ((6.106658e-09 1.031153e-09 -9.637914e-08) (2.679365e-07 -8.738585e-09 6.887722e-06))
12.910753     	((1.317612e-02 2.682509e-02 -6.435276e-04) (7.011776e-04 4.570823e-03 -3.273971e-05)) ((4.865210e-09 -1.629218e-09 -9.467395e-08) (2.757844e-07 -4.126035e-08 6.541562e-06))
13.066097     	((8.891134e-03 2.557722e-02 -4.284380e-04) (6.077482e-04 4.563679e-03 -2.746428e-05)) ((2.417709e-09 -3.918746e-09 -8.830076e-08) (3.001140e-07 -6.572576e-08 6.141536e-06))
13.221699     	((4.945156e-03 2.449608e-02 -2.458778e-04) (5.039732e-04 4.553715e-03 -2.118347e-05)) ((-2.477468e-10 -5.207268e-09 -7.612067e-08) (3.358196e-07 -8.481760e-08 5.711079e-06))
13.377568     	((1.565855e-03 2.371214e-02 -9.030690e-05) (3.981602e-04 4.544466e-03 -1.470746e-05)) ((-2.308822e-09 -5.360936e-09 -5.959961e-08) (3.728586e-07 -1.080835e-07 5.205225e-06))
13.533693     	((-1.155910e-03 2.316749e-02 1.035211e-05) (2.963109e-04 4.537975e-03 -8.734830e-06)) ((-3.941756e-09 -5.056763e-09 -4.824670e-08) (4.034043e-07 -1.382062e-07 4.623549e-06))
13.690077     	((-3.140500e-03 2.280247e-02 5.471352e-05) (2.032850e-04 4.534145e-03 -3.824716e-06)) ((-3.752684e-09 -3.989293e-09 -5.165205e-08) (4.193620e-07 -1.688362e-07 3.995373e-06))
13.846718     	((-4.411209e-03 2.254779e-02 7.927888e-05) (1.233272e-04 4.532935e-03 -7.714259e-08)) ((-3.295403e-09 -3.489689e-09 -6.096263e-08) (4.244144e-07 -1.895189e-07 3.344320e-06))
14.003617     	((-5.178225e-03 2.235714e-02 8.429949e-05) (5.744037e-05 4.534076e-03 2.739808e-06)) ((-1.451358e-09 -3.071299e-09 -6.879850e-08) (4.218536e-07 -1.933304e-07 2.733938e-06))
14.160774     	((-5.538477e-03 2.215085e-02 6.698459e-05) (3.978295e-06 4.535780e-03 4.503928e-06)) ((3.144636e-10 -3.250919e-09 -7.208015e-08) (4.035191e-07 -1.866608e-07 2.263272e-06))
14.318162     	((-5.612344e-03 2.189583e-02 5.278408e-05) (-4.169583e-05 4.536700e-03 5.314656e-06)) ((1.396331e-09 -3.713849e-09 -7.344911e-08) (3.691800e-07 -1.780984e-07 2.110838e-06))
