# Forces      
# CofR        : (0.000000e+00 0.000000e+00 0.000000e+00)
# Time        forces(pressure viscous)	moments(pressure viscous)
0             	((0.000000e+00 0.000000e+00 0.000000e+00) (2.852229e-15 5.036903e-05 -6.453576e-15)) ((0.000000e+00 0.000000e+00 0.000000e+00) (1.412385e-15 -1.321884e-17 -1.820294e-11))
0.012         	((-4.332936e-10 1.464895e-02 -2.440823e-09) (-3.487316e-11 5.780208e-05 -4.416759e-11)) ((5.830823e-12 -1.898423e-14 -2.767617e-09) (2.331055e-13 8.006212e-15 -3.784739e-11))
0.0264        	((-1.069644e-07 -1.018669e-03 6.236122e-09) (-1.382145e-10 5.897170e-05 -3.622446e-11)) ((-1.249617e-11 -1.246922e-12 1.779336e-10) (-3.819756e-13 -8.262625e-14 -5.130369e-11))
0.04368       	((2.476294e-07 -3.062150e-03 -1.035667e-07) (-2.460753e-11 5.240234e-05 -7.535891e-11)) ((-7.121858e-12 1.661596e-12 7.448758e-10) (-2.009087e-12 -1.213362e-13 -4.453476e-11))
0.064416      	((-6.408438e-08 -2.899941e-05 5.037572e-08) (1.024524e-09 4.641195e-05 6.035518e-10)) ((5.187093e-12 9.365724e-13 -4.021749e-11) (4.356356e-12 -2.644255e-13 -5.598977e-11))
0.0892992     	((-9.808253e-09 3.962420e-05 3.864209e-08) (1.291949e-09 4.284715e-05 1.149470e-09)) ((7.601693e-13 -2.009988e-12 -3.798066e-11) (7.130940e-12 -8.619509e-13 -5.879069e-11))
0.119159      	((1.278126e-08 -4.611419e-05 5.291827e-08) (8.393346e-10 3.956472e-05 1.178649e-09)) ((4.524898e-12 4.437129e-13 1.159282e-11) (-4.848517e-12 -1.735380e-12 -4.969330e-11))
0.154991      	((-5.841615e-09 -2.474604e-05 5.960449e-09) (5.492924e-10 3.608712e-05 1.117822e-09)) ((2.544492e-12 4.604463e-13 2.487290e-12) (-1.521906e-11 -2.812037e-12 -3.436421e-11))
0.197989      	((1.330153e-08 -5.987432e-06 -9.728402e-09) (1.914508e-10 3.258161e-05 8.152862e-10)) ((3.345213e-12 5.944202e-14 3.146380e-13) (-1.357639e-11 -3.508346e-12 -1.249446e-11))
0.249587      	((7.799598e-09 8.304574e-07 -1.517238e-09) (-3.066907e-12 2.914682e-05 5.558535e-10)) ((1.974883e-12 1.587801e-13 -2.689524e-12) (-8.634455e-12 -3.558984e-12 -1.608917e-12))
0.311504      	((-4.436347e-10 3.947247e-06 -2.129088e-11) (-8.682656e-11 2.588700e-05 3.656186e-10)) ((1.406748e-12 3.656016e-14 -3.509037e-12) (-5.605406e-12 -3.765045e-12 9.578878e-12))
0.385805      	((-1.030495e-09 5.435271e-06 -1.888357e-10) (-8.263853e-11 2.288605e-05 2.335579e-10)) ((1.075465e-12 1.170564e-14 -2.622159e-12) (-2.777251e-12 -3.939795e-12 1.763938e-11))
0.474966      	((-7.411698e-10 6.161757e-06 -3.467671e-10) (-1.547326e-11 2.019964e-05 1.540378e-10)) ((6.908888e-13 -9.668104e-15 -2.218660e-12) (2.823712e-13 -3.434880e-12 8.351885e-12))
0.581959      	((2.181577e-10 6.463647e-06 -3.332837e-10) (4.717575e-11 1.784550e-05 8.257825e-11)) ((4.458924e-13 -1.566468e-14 -1.881468e-12) (2.435748e-12 -2.616534e-12 -7.575073e-12))
0.710351      	((-7.547917e-11 6.442036e-06 -5.589211e-10) (1.580672e-10 1.581918e-05 2.340792e-11)) ((2.652647e-13 -2.131792e-14 -1.585565e-12) (2.663338e-12 -1.990566e-12 -1.436206e-11))
0.864421      	((-1.648673e-10 6.210964e-06 -5.695861e-10) (3.080726e-10 1.409487e-05 -1.755223e-11)) ((1.289581e-13 -1.793237e-14 -1.712133e-12) (2.188418e-12 -1.617445e-12 -1.565152e-11))
1.049306      	((3.652854e-11 5.868465e-06 -5.359669e-10) (4.313818e-10 1.263115e-05 -3.027355e-11)) ((5.349958e-14 -1.299719e-14 -1.723491e-12) (8.446654e-13 -1.305512e-12 -1.432023e-11))
1.271167      	((2.395518e-10 5.486282e-06 -4.327907e-10) (4.726760e-10 1.138457e-05 -3.516745e-11)) ((9.095345e-15 -7.947683e-15 -1.540220e-12) (-7.607134e-14 -1.000925e-12 -1.113607e-11))
1.5374        	((4.337182e-10 5.091697e-06 -2.923410e-10) (3.421188e-10 1.030989e-05 -3.177188e-11)) ((-1.263515e-14 -5.821604e-15 -1.488438e-12) (-2.132160e-13 -8.292452e-13 -1.019505e-11))
1.85688       	((5.719822e-10 4.703907e-06 -1.961811e-10) (1.818510e-10 9.366655e-06 -1.848934e-11)) ((-1.351067e-14 -6.919265e-15 -1.467337e-12) (-4.693956e-13 -7.185519e-13 -1.389743e-11))
2.240256      	((3.643658e-10 4.335008e-06 -8.308536e-11) (1.515772e-10 8.528207e-06 -1.820283e-11)) ((-1.103655e-14 -6.029921e-15 -1.436958e-12) (-9.595813e-13 -5.650528e-13 -2.014879e-11))
2.700307      	((4.256670e-10 3.990752e-06 -4.392832e-12) (2.067346e-10 7.777597e-06 -2.456852e-11)) ((-1.004225e-14 -6.147398e-15 -1.408572e-12) (-1.567604e-12 -3.927543e-13 -2.677315e-11))
3.252369      	((2.911059e-10 3.671156e-06 -9.633916e-12) (1.626556e-10 7.102781e-06 -2.558481e-11)) ((-5.331873e-15 -5.928138e-15 -1.347237e-12) (-2.273937e-12 -3.216804e-13 -2.986402e-11))
3.914842      	((1.307414e-10 3.372191e-06 -7.148756e-11) (7.316420e-11 6.494407e-06 -2.406653e-11)) ((-1.028640e-15 -1.033284e-14 -1.235209e-12) (-2.877388e-12 -2.641840e-13 -2.860447e-11))
4.709811      	((5.748492e-11 3.095579e-06 -1.549498e-10) (9.255867e-11 5.945688e-06 -2.414172e-11)) ((5.137868e-15 -1.222114e-14 -1.088830e-12) (-3.148027e-12 -2.260312e-13 -2.704467e-11))
5.663773      	((-9.046411e-11 2.841629e-06 -2.761911e-10) (1.118344e-10 5.451751e-06 -2.764108e-11)) ((1.403774e-14 -1.271341e-14 -9.582505e-13) (-3.189760e-12 -2.157577e-13 -2.614433e-11))
6.808528      	((-1.230068e-10 2.610642e-06 -3.181983e-10) (7.778736e-11 5.008261e-06 -3.024070e-11)) ((1.716123e-14 -1.018246e-14 -8.241507e-13) (-2.933112e-12 -1.376785e-13 -2.610068e-11))
8.182233      	((-5.119651e-11 2.402339e-06 -3.206377e-10) (5.430992e-11 4.610535e-06 -3.097109e-11)) ((1.577089e-14 -1.033204e-14 -6.986619e-13) (-2.583625e-12 -2.566351e-14 -2.654825e-11))
9.83068       	((-7.350212e-11 2.214842e-06 -3.730975e-10) (5.137237e-11 4.253351e-06 -3.234912e-11)) ((1.591909e-14 -1.241996e-14 -6.075601e-13) (-2.644427e-12 4.809176e-14 -2.553942e-11))
11.808816     	((-2.529959e-11 2.045681e-06 -4.656063e-10) (2.916369e-11 3.931655e-06 -3.410240e-11)) ((1.562142e-14 -1.471105e-14 -5.340768e-13) (-3.836412e-12 5.475130e-14 -2.092545e-11))
14.182579     	((-1.249469e-10 1.893648e-06 -5.824052e-10) (-1.483549e-11 3.641059e-06 -4.384372e-11)) ((1.734171e-14 -1.678943e-14 -4.722615e-13) (-6.490225e-12 9.129128e-14 -1.476348e-11))
17.031095     	((-4.504412e-11 1.758252e-06 -4.704258e-10) (-3.378165e-11 3.377929e-06 -5.220334e-11)) ((2.023481e-14 -1.334121e-14 -4.269573e-13) (-1.010379e-11 1.638721e-13 -9.904845e-12))
20.449314     	((-7.173747e-11 1.638311e-06 -4.757831e-10) (-3.740423e-11 3.139401e-06 -5.881369e-11)) ((2.226994e-14 -1.321174e-14 -4.024252e-13) (-1.394110e-11 1.206236e-13 -6.647500e-12))
24.551176     	((-2.016098e-10 1.532961e-06 -5.768792e-10) (-4.609526e-11 2.923420e-06 -7.031475e-11)) ((2.208041e-14 -1.461929e-14 -3.903888e-13) (-1.691671e-11 -6.124160e-15 -4.562062e-12))
29.473411     	((-1.653567e-10 1.442373e-06 -4.811029e-10) (-5.636980e-11 2.728475e-06 -7.011926e-11)) ((2.015131e-14 -1.577572e-14 -3.893866e-13) (-1.887788e-11 -1.144591e-13 -2.644874e-12))
35.380094     	((-7.658833e-11 1.365488e-06 -3.941946e-10) (-8.015394e-11 2.553265e-06 -7.026702e-11)) ((1.852378e-14 -1.560213e-14 -4.028693e-13) (-2.098777e-11 -2.514749e-13 9.468964e-13))
42.468112     	((-1.483368e-10 1.301906e-06 -3.672882e-10) (-1.072448e-10 2.396565e-06 -8.030641e-11)) ((1.933375e-14 -1.516759e-14 -4.280062e-13) (-2.428018e-11 -3.336780e-13 5.042455e-12))
50.973735     	((-1.093410e-10 1.250697e-06 -2.872538e-10) (-1.231656e-10 2.257119e-06 -8.863871e-11)) ((1.678044e-14 -1.487789e-14 -4.621380e-13) (-2.830554e-11 -3.502765e-13 9.744630e-12))
61.180482     	((6.657310e-11 1.211502e-06 -8.121649e-11) (-1.289946e-10 2.133659e-06 -9.127683e-11)) ((1.507867e-14 -1.345721e-14 -5.061473e-13) (-3.311747e-11 -3.702570e-13 1.588182e-11))
73.428578     	((2.854087e-10 1.184061e-06 1.564222e-10) (-1.272225e-10 2.025106e-06 -9.684323e-11)) ((1.170343e-14 -1.246040e-14 -5.543312e-13) (-3.893501e-11 -4.355925e-13 2.274311e-11))
88.126294     	((4.964337e-10 1.167367e-06 3.799069e-10) (-1.311353e-10 1.930502e-06 -1.052352e-10)) ((7.706034e-15 -1.137914e-14 -6.076371e-13) (-4.561100e-11 -4.604323e-13 3.016895e-11))
105.763553    	((7.723774e-10 1.159826e-06 6.526623e-10) (-1.331136e-10 1.849009e-06 -1.056710e-10)) ((3.228241e-15 -1.053182e-14 -6.680102e-13) (-5.224874e-11 -4.456122e-13 3.820016e-11))
126.928263    	((9.404824e-10 1.160601e-06 8.107202e-10) (-1.316201e-10 1.779928e-06 -9.897439e-11)) ((6.140037e-16 -9.320544e-15 -7.345821e-13) (-5.807329e-11 -3.967984e-13 4.595844e-11))
152.325916    	((1.123286e-09 1.168255e-06 9.953522e-10) (-1.304561e-10 1.722591e-06 -8.707374e-11)) ((-2.028145e-15 -8.931603e-15 -8.040498e-13) (-6.267289e-11 -3.864487e-13 5.262657e-11))
182.803099    	((1.307193e-09 1.180218e-06 1.193123e-09) (-1.224945e-10 1.676028e-06 -6.906262e-11)) ((-3.711187e-15 -9.219059e-15 -8.691191e-13) (-6.560414e-11 -4.383987e-13 5.713484e-11))
218.494468    	((1.482562e-09 1.193449e-06 1.380876e-09) (-8.725733e-11 1.639154e-06 -4.059253e-11)) ((-3.319273e-15 -1.002650e-14 -9.179412e-13) (-6.669364e-11 -3.892971e-13 5.939819e-11))
259.378779    	((1.677762e-09 1.204344e-06 1.586153e-09) (-3.403689e-11 1.609970e-06 7.667180e-12)) ((-5.835171e-15 -1.026358e-14 -9.501428e-13) (-6.567342e-11 -3.741119e-13 5.918398e-11))
305.44558     	((1.836355e-09 1.211477e-06 1.752180e-09) (2.578648e-11 1.586589e-06 6.432629e-11)) ((-7.633052e-15 -1.033185e-14 -9.703188e-13) (-6.353018e-11 -3.675991e-13 5.755983e-11))
356.697161    	((1.942765e-09 1.215092e-06 1.861360e-09) (1.024335e-10 1.567419e-06 1.389284e-10)) ((-9.784722e-15 -1.032448e-14 -9.873372e-13) (-6.020817e-11 -3.643408e-13 5.459360e-11))
408.632469    	((2.005289e-09 1.217462e-06 1.926109e-09) (1.705424e-10 1.551899e-06 2.052662e-10)) ((-1.210786e-14 -1.015704e-14 -1.002433e-12) (-5.680411e-11 -3.551004e-13 5.143642e-11))
460.651862    	((2.006059e-09 1.218279e-06 1.920446e-09) (2.424588e-10 1.539034e-06 2.764810e-10)) ((-1.292527e-14 -1.029145e-14 -1.014961e-12) (-5.275913e-11 -3.444879e-13 4.765602e-11))
512.733412    	((1.960674e-09 1.218705e-06 1.875124e-09) (2.990791e-10 1.528455e-06 3.321014e-10)) ((-1.285385e-14 -1.077904e-14 -1.024002e-12) (-4.883042e-11 -3.328726e-13 4.392245e-11))
564.861413    	((1.878691e-09 1.218812e-06 1.790923e-09) (3.451252e-10 1.519706e-06 3.772403e-10)) ((-1.270993e-14 -1.112601e-14 -1.032032e-12) (-4.488766e-11 -3.206876e-13 4.015944e-11))
617.028141    	((1.763025e-09 1.218793e-06 1.686877e-09) (3.782345e-10 1.512479e-06 4.102714e-10)) ((-1.152365e-14 -1.132958e-14 -1.038292e-12) (-4.103797e-11 -3.136669e-13 3.642175e-11))
669.228426    	((1.636079e-09 1.218643e-06 1.567854e-09) (3.966381e-10 1.506489e-06 4.290840e-10)) ((-1.144182e-14 -1.152327e-14 -1.043037e-12) (-3.742121e-11 -3.109104e-13 3.286410e-11))
721.457381    	((1.504979e-09 1.218441e-06 1.441570e-09) (4.028368e-10 1.501521e-06 4.360242e-10)) ((-1.079295e-14 -1.169329e-14 -1.046646e-12) (-3.408534e-11 -3.133735e-13 2.957261e-11))
773.710353    	((1.368180e-09 1.218202e-06 1.312202e-09) (4.014445e-10 1.497386e-06 4.357988e-10)) ((-9.921695e-15 -1.185478e-14 -1.049604e-12) (-3.091230e-11 -3.170125e-13 2.642680e-11))
825.983315    	((1.235462e-09 1.217979e-06 1.182299e-09) (3.934971e-10 1.493943e-06 4.288068e-10)) ((-9.098492e-15 -1.204385e-14 -1.052120e-12) (-2.794435e-11 -3.212861e-13 2.348496e-11))
878.272893    	((1.105981e-09 1.217755e-06 1.053267e-09) (3.795514e-10 1.491071e-06 4.155394e-10)) ((-8.304327e-15 -1.214658e-14 -1.054457e-12) (-2.524202e-11 -3.238663e-13 2.079394e-11))
930.576281    	((9.854196e-10 1.217554e-06 9.343914e-10) (3.615199e-10 1.488672e-06 3.984420e-10)) ((-7.667214e-15 -1.222617e-14 -1.056417e-12) (-2.277766e-11 -3.245917e-13 1.834127e-11))
982.891146    	((8.730261e-10 1.217363e-06 8.218923e-10) (3.408888e-10 1.486665e-06 3.786557e-10)) ((-7.060316e-15 -1.231646e-14 -1.058017e-12) (-2.056732e-11 -3.235430e-13 1.613708e-11))
1035.215546   	((7.705018e-10 1.217196e-06 7.196930e-10) (3.186048e-10 1.484986e-06 3.569961e-10)) ((-6.521821e-15 -1.241278e-14 -1.059255e-12) (-1.861052e-11 -3.229530e-13 1.417507e-11))
1087.547871   	((6.797286e-10 1.217039e-06 6.283375e-10) (2.957979e-10 1.483577e-06 3.347132e-10)) ((-6.121808e-15 -1.250978e-14 -1.060230e-12) (-1.688390e-11 -3.228309e-13 1.244454e-11))
1139.886786   	((5.997470e-10 1.216903e-06 5.472889e-10) (2.735913e-10 1.482395e-06 3.127199e-10)) ((-5.746410e-15 -1.253728e-14 -1.061062e-12) (-1.535831e-11 -3.222760e-13 1.091620e-11))
1192.231185   	((5.301169e-10 1.216782e-06 4.772790e-10) (2.524367e-10 1.481402e-06 2.917458e-10)) ((-5.448136e-15 -1.258199e-14 -1.061767e-12) (-1.401848e-11 -3.212596e-13 9.574656e-12))
1244.580157   	((4.701563e-10 1.216675e-06 4.163927e-10) (2.327193e-10 1.480567e-06 2.720553e-10)) ((-5.201080e-15 -1.262667e-14 -1.062345e-12) (-1.285591e-11 -3.201517e-13 8.409161e-12))
1296.932949   	((4.193423e-10 1.216581e-06 3.650880e-10) (2.146483e-10 1.479864e-06 2.540387e-10)) ((-4.978934e-15 -1.265851e-14 -1.062841e-12) (-1.185152e-11 -3.195836e-13 7.406894e-12))
1349.288936   	((3.765744e-10 1.216499e-06 3.217791e-10) (1.984623e-10 1.479272e-06 2.379097e-10)) ((-4.794264e-15 -1.268642e-14 -1.063265e-12) (-1.098343e-11 -3.190562e-13 6.544445e-12))
1401.647603   	((3.410795e-10 1.216428e-06 2.858806e-10) (1.842061e-10 1.478773e-06 2.236379e-10)) ((-4.662678e-15 -1.271407e-14 -1.063619e-12) (-1.024120e-11 -3.187485e-13 5.804991e-12))
1454.008523   	((3.118012e-10 1.216368e-06 2.562036e-10) (1.718080e-10 1.478353e-06 2.111734e-10)) ((-4.557819e-15 -1.273600e-14 -1.063912e-12) (-9.611276e-12 -3.188757e-13 5.176137e-12))
1506.371339   	((2.875910e-10 1.216314e-06 2.317967e-10) (1.611767e-10 1.477998e-06 2.004516e-10)) ((-4.471359e-15 -1.274403e-14 -1.064154e-12) (-9.079976e-12 -3.189079e-13 4.643225e-12))
1558.735757   	((2.676843e-10 1.216267e-06 2.117792e-10) (1.521477e-10 1.477698e-06 1.913786e-10)) ((-4.412732e-15 -1.275290e-14 -1.064358e-12) (-8.629827e-12 -3.189241e-13 4.192504e-12))
1611.101529   	((2.515287e-10 1.216227e-06 1.955292e-10) (1.445487e-10 1.477445e-06 1.837561e-10)) ((-4.363666e-15 -1.276187e-14 -1.064529e-12) (-8.249518e-12 -3.188805e-13 3.813049e-12))
1663.468448   	((2.381906e-10 1.216193e-06 1.819363e-10) (1.382268e-10 1.477231e-06 1.774253e-10)) ((-4.320142e-15 -1.277214e-14 -1.064672e-12) (-7.929656e-12 -3.188131e-13 3.493951e-12))
1715.83634    	((2.272957e-10 1.216164e-06 1.711693e-10) (1.329917e-10 1.477050e-06 1.721845e-10)) ((-4.285425e-15 -1.278038e-14 -1.064797e-12) (-7.660408e-12 -3.187245e-13 3.224807e-12))
1768.205058   	((2.183218e-10 1.216139e-06 1.622155e-10) (1.286919e-10 1.476897e-06 1.678814e-10)) ((-4.258395e-15 -1.278644e-14 -1.064901e-12) (-7.434162e-12 -3.186367e-13 2.998485e-12))
1820.574478   	((2.107914e-10 1.216118e-06 1.546349e-10) (1.251576e-10 1.476768e-06 1.643536e-10)) ((-4.231123e-15 -1.279440e-14 -1.064989e-12) (-7.244040e-12 -3.185878e-13 2.808233e-12))
1872.944494   	((2.045207e-10 1.216099e-06 1.484046e-10) (1.222610e-10 1.476658e-06 1.614692e-10)) ((-4.207793e-15 -1.279894e-14 -1.065064e-12) (-7.083645e-12 -3.185697e-13 2.647648e-12))
1925.315017   	((1.992062e-10 1.216083e-06 1.431367e-10) (1.198852e-10 1.476566e-06 1.591054e-10)) ((-4.187968e-15 -1.280222e-14 -1.065129e-12) (-6.948825e-12 -3.185504e-13 2.512598e-12))
1977.685971   	((1.947513e-10 1.216069e-06 1.387050e-10) (1.179298e-10 1.476487e-06 1.571606e-10)) ((-4.169791e-15 -1.280633e-14 -1.065184e-12) (-6.834701e-12 -3.185363e-13 2.398238e-12))
2030.057291   	((1.908976e-10 1.216058e-06 1.348330e-10) (1.163171e-10 1.476421e-06 1.555580e-10)) ((-4.151545e-15 -1.280956e-14 -1.065231e-12) (-6.738025e-12 -3.185502e-13 2.301234e-12))
2082.428922   	((1.875862e-10 1.216049e-06 1.314026e-10) (1.149736e-10 1.476365e-06 1.542347e-10)) ((-4.138805e-15 -1.281196e-14 -1.065271e-12) (-6.656095e-12 -3.185576e-13 2.219130e-12))
2134.800817   	((1.846681e-10 1.216040e-06 1.284460e-10) (1.138460e-10 1.476317e-06 1.531261e-10)) ((-4.123593e-15 -1.281432e-14 -1.065304e-12) (-6.586359e-12 -3.185612e-13 2.149313e-12))
2187.172935   	((1.821306e-10 1.216033e-06 1.259903e-10) (1.128908e-10 1.476277e-06 1.521839e-10)) ((-4.112865e-15 -1.281650e-14 -1.065333e-12) (-6.526904e-12 -3.185725e-13 2.089716e-12))
2239.545242   	((1.798820e-10 1.216027e-06 1.237228e-10) (1.120744e-10 1.476243e-06 1.513787e-10)) ((-4.102305e-15 -1.281826e-14 -1.065357e-12) (-6.476189e-12 -3.185830e-13 2.038845e-12))
2291.917709   	((1.779311e-10 1.216022e-06 1.218728e-10) (1.113707e-10 1.476214e-06 1.506869e-10)) ((-4.092969e-15 -1.281927e-14 -1.065378e-12) (-6.432751e-12 -3.185953e-13 1.995228e-12))
2344.290312   	((1.762316e-10 1.216018e-06 1.202473e-10) (1.107595e-10 1.476190e-06 1.500843e-10)) ((-4.084720e-15 -1.282001e-14 -1.065395e-12) (-6.395548e-12 -3.186093e-13 1.957829e-12))
2396.663029   	((1.747591e-10 1.216014e-06 1.188229e-10) (1.102281e-10 1.476169e-06 1.495608e-10)) ((-4.077755e-15 -1.282071e-14 -1.065410e-12) (-6.363687e-12 -3.186251e-13 1.925730e-12))
2449.035842   	((1.734653e-10 1.216011e-06 1.175402e-10) (1.097626e-10 1.476151e-06 1.491004e-10)) ((-4.071770e-15 -1.282144e-14 -1.065422e-12) (-6.336397e-12 -3.186400e-13 1.898201e-12))
2501.408737   	((1.723557e-10 1.216009e-06 1.164924e-10) (1.093552e-10 1.476136e-06 1.486949e-10)) ((-4.066800e-15 -1.282191e-14 -1.065433e-12) (-6.313042e-12 -3.186545e-13 1.874603e-12))
2553.781701   	((1.714029e-10 1.216006e-06 1.155954e-10) (1.089990e-10 1.476124e-06 1.483398e-10)) ((-4.062657e-15 -1.282228e-14 -1.065442e-12) (-6.293123e-12 -3.186691e-13 1.854439e-12))
2606.154723   	((1.706063e-10 1.216005e-06 1.147171e-10) (1.086880e-10 1.476113e-06 1.480273e-10)) ((-4.059300e-15 -1.282318e-14 -1.065450e-12) (-6.276159e-12 -3.186794e-13 1.837236e-12))
2658.527793   	((1.698917e-10 1.216003e-06 1.144620e-10) (1.084170e-10 1.476104e-06 1.477513e-10)) ((-4.060477e-15 -1.282356e-14 -1.065457e-12) (-6.261675e-12 -3.186850e-13 1.822478e-12))
2710.900905   	((1.693352e-10 1.216001e-06 1.136281e-10) (1.081835e-10 1.476096e-06 1.475142e-10)) ((-4.055156e-15 -1.282386e-14 -1.065462e-12) (-6.249273e-12 -3.186952e-13 1.809900e-12))
2763.274052   	((1.688407e-10 1.216000e-06 1.131109e-10) (1.079813e-10 1.476090e-06 1.473181e-10)) ((-4.052688e-15 -1.282404e-14 -1.065466e-12) (-6.238741e-12 -3.187021e-13 1.799182e-12))
2815.647228   	((1.684243e-10 1.215999e-06 1.126999e-10) (1.078087e-10 1.476084e-06 1.471463e-10)) ((-4.050913e-15 -1.282421e-14 -1.065470e-12) (-6.229809e-12 -3.187081e-13 1.790056e-12))
2868.020429   	((1.680867e-10 1.215998e-06 1.123940e-10) (1.076620e-10 1.476080e-06 1.470025e-10)) ((-4.049706e-15 -1.282442e-14 -1.065474e-12) (-6.222250e-12 -3.187140e-13 1.782311e-12))
