# Forces      
# CofR        : (0.000000e+00 0.000000e+00 0.000000e+00)
# Time        forces(pressure viscous)	moments(pressure viscous)
0             	((0.000000e+00 0.000000e+00 0.000000e+00) (0.000000e+00 0.000000e+00 0.000000e+00)) ((0.000000e+00 0.000000e+00 0.000000e+00) (0.000000e+00 0.000000e+00 0.000000e+00))
0.012         	((1.554958e-08 1.148905e-06 3.269950e-09) (7.301076e-10 2.988862e-08 -1.046675e-10)) ((-3.992819e-13 1.338745e-13 -2.678385e-08) (9.483642e-14 -2.358055e-12 -3.510742e-05))
0.0264        	((7.592991e-09 1.896273e-07 2.065749e-09) (1.819456e-09 4.311736e-08 -1.948794e-10)) ((-5.428831e-14 -2.573580e-12 -1.328655e-08) (-3.744447e-13 -6.512540e-12 -3.217078e-05))
0.04368       	((7.417571e-08 6.110836e-07 1.552170e-08) (2.371133e-09 4.607930e-08 -3.360185e-10)) ((-5.187570e-13 -3.617006e-12 -8.485463e-09) (-7.769429e-13 -1.289078e-11 -2.919149e-05))
0.064416      	((1.062371e-08 2.797289e-08 -4.757863e-09) (2.603245e-09 4.136590e-08 -5.964678e-10)) ((-1.153001e-13 -3.839538e-12 -5.939627e-09) (-3.400687e-13 -2.101246e-11 -2.626849e-05))
0.0892992     	((1.500163e-07 3.302814e-07 4.549551e-09) (4.594558e-09 3.644236e-08 -8.766842e-10)) ((6.452554e-13 -5.232984e-12 -5.284490e-09) (2.214562e-12 -2.993766e-11 -2.351508e-05))
0.119159      	((-1.005108e-07 5.510254e-09 7.703270e-10) (7.959036e-09 3.136486e-08 -1.061986e-09)) ((1.376970e-12 -4.107611e-12 -4.511406e-09) (4.932095e-12 -3.279652e-11 -2.102484e-05))
0.154991      	((2.459432e-09 1.624722e-07 1.589672e-09) (1.132994e-08 2.409153e-08 -1.079585e-09)) ((7.573996e-13 -4.421678e-12 -3.926706e-09) (6.050562e-13 -3.325806e-11 -1.884518e-05))
0.197989      	((-4.612297e-08 7.605220e-08 -5.571343e-09) (1.160313e-08 1.460856e-08 -9.447986e-10)) ((1.355452e-12 -3.907789e-12 -3.446379e-09) (-6.597781e-12 -3.234724e-11 -1.696239e-05))
0.249587      	((-1.664474e-08 9.210377e-08 3.502087e-10) (1.131971e-08 7.479905e-09 -8.138300e-10)) ((1.143788e-12 -3.701080e-12 -3.036538e-09) (-7.832995e-12 -2.899213e-11 -1.529348e-05))
0.311504      	((-5.250419e-08 4.599739e-08 -2.677650e-09) (1.483807e-08 6.684431e-09 -8.640640e-10)) ((-2.264033e-13 -3.096557e-12 -2.644142e-09) (2.659528e-14 -2.316075e-11 -1.374419e-05))
0.385805      	((-6.466211e-08 8.428064e-08 -2.071563e-09) (1.917641e-08 9.646482e-09 -1.093372e-09)) ((-7.085190e-13 -2.707626e-12 -2.290173e-09) (3.835447e-12 -2.181752e-11 -1.229994e-05))
0.474966      	((-4.243952e-08 8.822729e-08 -7.818852e-09) (1.618687e-08 1.484385e-08 -9.416306e-10)) ((-1.693914e-12 -2.156211e-12 -1.972698e-09) (-3.557947e-12 -1.948283e-11 -1.098827e-05))
0.581959      	((-4.753143e-08 1.145899e-07 -1.003928e-08) (5.378568e-09 1.815562e-08 -7.481905e-10)) ((-5.492559e-13 -1.418955e-12 -1.673379e-09) (-2.026953e-12 -9.746308e-12 -9.822892e-06))
0.710351      	((-5.137844e-08 1.325728e-07 -6.647055e-09) (-6.831422e-09 2.226297e-08 -8.275103e-10)) ((-1.490328e-12 -2.820610e-12 -1.406419e-09) (8.618483e-12 -6.795668e-12 -8.801365e-06))
0.864421      	((-4.889249e-08 1.855983e-07 -1.713251e-09) (-1.258677e-08 1.765306e-08 -8.605846e-10)) ((-3.576927e-12 -4.854309e-12 -1.187095e-09) (3.595226e-11 -1.206536e-11 -7.908128e-06))
1.049306      	((-1.400708e-07 1.489411e-07 8.786616e-09) (-1.447172e-08 1.107711e-08 -1.100669e-09)) ((-5.957949e-12 -5.879660e-12 -1.004663e-09) (5.529457e-11 -9.134182e-12 -7.124242e-06))
1.271167      	((-3.935486e-08 1.170194e-07 1.059164e-08) (-1.001856e-08 -1.332952e-10 -1.278363e-09)) ((-1.018174e-11 -8.482488e-12 -8.721372e-10) (3.279463e-11 -2.992571e-12 -6.434962e-06))
1.5374        	((-1.439935e-08 1.808122e-07 6.226512e-09) (-9.172276e-09 3.037038e-10 -1.167942e-09)) ((-1.157703e-11 -9.539349e-12 -7.529768e-10) (4.715351e-12 1.397878e-11 -5.831171e-06))
1.85688       	((-3.075721e-09 1.733311e-07 2.531708e-09) (-9.621882e-09 4.573064e-09 -6.884076e-10)) ((-9.842708e-12 -7.797367e-12 -6.474725e-10) (1.024868e-11 2.480956e-11 -5.306767e-06))
2.240256      	((-1.854097e-08 1.785919e-07 7.264518e-09) (-1.133375e-08 4.205923e-09 -9.324640e-10)) ((-9.574378e-12 -4.468793e-12 -5.601029e-10) (2.062513e-11 4.811737e-11 -4.854805e-06))
2.700307      	((-2.270951e-08 1.411783e-07 4.497614e-09) (-2.108385e-08 7.557690e-09 9.051915e-11)) ((-8.153442e-12 -2.192326e-12 -4.764233e-10) (3.307463e-11 9.638712e-11 -4.466079e-06))
3.252369      	((-1.276741e-08 6.535348e-08 1.235732e-08) (-2.195127e-08 8.483001e-09 3.446145e-10)) ((-7.363399e-12 -3.547833e-12 -4.081412e-10) (5.002025e-11 1.568552e-10 -4.129519e-06))
3.914842      	((1.155390e-08 6.593119e-08 6.161285e-09) (-1.687476e-08 1.347624e-08 -6.260719e-10)) ((-3.404961e-12 -3.911582e-12 -3.513619e-10) (8.680834e-11 2.327211e-10 -3.834414e-06))
4.709811      	((2.937883e-08 3.908147e-08 7.993912e-09) (-1.551409e-08 2.208845e-08 -2.117574e-09)) ((-6.176628e-13 -4.197447e-12 -3.020052e-10) (1.465524e-10 3.024287e-10 -3.572521e-06))
5.663773      	((4.017570e-08 2.715112e-08 1.982212e-09) (-2.017175e-08 2.606041e-08 -4.506059e-09)) ((2.281109e-13 -4.804468e-12 -2.617352e-10) (2.065326e-10 3.103900e-10 -3.338054e-06))
6.808528      	((2.746971e-08 1.695316e-08 4.123574e-09) (-1.406775e-08 2.165000e-08 -4.686911e-09)) ((-1.945672e-12 -5.123405e-12 -2.356181e-10) (2.576954e-10 2.652071e-10 -3.126703e-06))
8.182233      	((3.271070e-08 2.494662e-08 -5.443921e-09) (-1.451062e-09 3.054092e-08 -3.748193e-09)) ((-1.957607e-12 -5.566621e-12 -2.216899e-10) (2.835230e-10 1.923340e-10 -2.935152e-06))
9.83068       	((2.284902e-08 3.416562e-08 -8.863211e-09) (-8.984021e-09 2.979598e-08 -3.820943e-09)) ((-2.602280e-12 -6.002967e-12 -2.095703e-10) (2.993462e-10 1.220384e-10 -2.761627e-06))
11.808816     	((-1.016111e-08 2.897240e-08 -8.612793e-09) (-1.426679e-08 2.675223e-08 -1.208838e-09)) ((-1.294275e-12 -5.736602e-12 -1.989520e-10) (3.341680e-10 6.145265e-11 -2.605638e-06))
14.145219     	((-1.660008e-08 1.787355e-08 -7.430999e-09) (-2.067075e-08 2.389723e-08 -2.287859e-10)) ((-1.024781e-12 -5.355230e-12 -1.910624e-10) (3.397165e-10 -2.360419e-11 -2.469187e-06))
16.848416     	((-2.127355e-08 1.514586e-08 -8.979671e-09) (-2.746886e-08 1.881177e-08 -1.249605e-09)) ((-7.750479e-13 -6.110779e-12 -1.868169e-10) (3.051892e-10 -1.265755e-10 -2.353795e-06))
19.928667     	((-7.536422e-09 9.325997e-09 -1.006641e-08) (-1.677195e-08 1.640821e-08 2.764252e-10)) ((-1.777032e-12 -5.902970e-12 -1.819810e-10) (2.600557e-10 -2.160686e-10 -2.259175e-06))
23.396465     	((-1.016078e-08 1.395353e-08 -6.167335e-09) (-1.214414e-08 1.995896e-08 2.193947e-10)) ((-3.716969e-12 -6.710873e-12 -1.777697e-10) (1.961745e-10 -2.740426e-10 -2.184044e-06))
27.263404     	((-1.516570e-08 9.087156e-09 -3.765775e-09) (-1.052772e-08 1.647597e-08 5.216075e-10)) ((-3.890891e-12 -6.618702e-12 -1.726050e-10) (1.408931e-10 -3.016250e-10 -2.126699e-06))
31.321481     	((-1.979307e-08 1.410403e-08 -1.651481e-09) (-8.372234e-09 1.586794e-08 1.017963e-10)) ((-3.059471e-12 -6.356054e-12 -1.671469e-10) (1.043478e-10 -2.968910e-10 -2.087186e-06))
35.379148     	((3.990898e-09 2.943770e-08 -5.669739e-09) (-7.299269e-09 1.242871e-08 2.238287e-10)) ((-1.914648e-12 -7.126379e-12 -1.616551e-10) (8.973719e-11 -2.690743e-10 -2.064237e-06))
39.436378     	((1.058038e-08 3.568264e-08 -4.134481e-09) (-4.862565e-09 8.882293e-09 6.942048e-10)) ((-1.106867e-12 -7.598107e-12 -1.582728e-10) (1.063096e-10 -2.261919e-10 -2.055587e-06))
43.493151     	((3.429382e-08 5.006241e-08 -5.662566e-09) (-1.593834e-10 7.814912e-09 1.717686e-09)) ((-1.014467e-12 -7.110274e-12 -1.550500e-10) (1.398142e-10 -1.829334e-10 -2.059525e-06))
47.549345     	((2.795798e-08 4.412602e-08 -4.512983e-09) (-1.254418e-08 4.400989e-09 1.524332e-09)) ((-1.081219e-12 -6.715650e-12 -1.534897e-10) (1.726733e-10 -1.699154e-10 -2.074837e-06))
51.593627     	((2.867303e-08 4.026246e-08 -5.696661e-09) (-1.386928e-08 2.661465e-09 1.382694e-09)) ((-1.412407e-12 -6.175459e-12 -1.524166e-10) (1.800262e-10 -2.107164e-10 -2.100646e-06))
55.565473     	((2.168416e-08 3.184593e-08 -4.087556e-09) (-5.404552e-09 2.586438e-09 1.578526e-09)) ((-1.443315e-12 -5.645353e-12 -1.517932e-10) (1.660781e-10 -2.693445e-10 -2.135715e-06))
59.462154     	((1.385656e-08 2.502438e-08 -5.865654e-09) (-3.261022e-10 -1.060734e-09 1.749925e-09)) ((-1.381699e-12 -5.270689e-12 -1.527423e-10) (1.439925e-10 -3.148999e-10 -2.178306e-06))
63.285921     	((-1.710638e-09 1.988352e-08 -4.446440e-09) (4.942480e-09 -3.237713e-09 2.137920e-09)) ((-1.128159e-12 -4.962242e-12 -1.550992e-10) (1.042667e-10 -3.366433e-10 -2.225813e-06))
67.042854     	((-1.137105e-08 2.024770e-08 -7.146990e-09) (3.948985e-09 -3.732422e-09 2.221555e-09)) ((-1.342551e-12 -4.760450e-12 -1.585162e-10) (4.659327e-11 -3.337523e-10 -2.274927e-06))
70.740242     	((-4.365603e-08 1.661733e-08 -7.706375e-09) (1.281546e-09 -2.806655e-09 2.456642e-09)) ((-1.019914e-12 -4.846580e-12 -1.636205e-10) (-8.806513e-12 -3.030482e-10 -2.321856e-06))
74.385328     	((-5.355914e-08 1.631662e-08 -3.500817e-09) (-1.877536e-09 -7.684153e-09 3.170269e-09)) ((-4.910645e-13 -5.108698e-12 -1.689126e-10) (-2.722765e-11 -2.596246e-10 -2.362951e-06))
77.987608     	((-5.647922e-08 1.680699e-08 -1.914724e-09) (-2.604372e-09 -1.127117e-08 4.614721e-09)) ((1.342816e-13 -5.406974e-12 -1.723909e-10) (-2.503233e-11 -2.256011e-10 -2.395621e-06))
81.557718     	((-4.022743e-08 1.944506e-08 1.017434e-10) (4.456398e-09 -6.895557e-09 4.731097e-09)) ((5.089992e-13 -6.197478e-12 -1.735204e-10) (3.802858e-12 -1.996142e-10 -2.418568e-06))
85.068038     	((-3.265887e-08 1.877668e-08 4.350165e-09) (1.094171e-08 -2.310209e-10 5.327682e-09)) ((4.457868e-13 -6.729457e-12 -1.724760e-10) (2.012805e-11 -1.559282e-10 -2.431602e-06))
88.525697     	((-2.836767e-08 1.141774e-08 3.543180e-09) (1.087630e-08 5.409259e-09 5.620250e-09)) ((1.260659e-13 -7.239356e-12 -1.702936e-10) (2.385654e-11 -1.514639e-10 -2.435878e-06))
91.945354     	((-6.625369e-09 2.244734e-08 4.783210e-09) (1.106057e-08 1.294719e-08 5.339308e-09)) ((-8.904354e-13 -7.738350e-12 -1.685707e-10) (4.808453e-11 -1.536003e-10 -2.433373e-06))
95.340325     	((1.101413e-08 2.386789e-08 5.919446e-09) (1.377452e-08 1.972896e-08 4.892814e-09)) ((-1.840257e-12 -7.904713e-12 -1.664284e-10) (6.578252e-11 -1.630859e-10 -2.425834e-06))
