# Forces      
# CofR        : (0.000000e+00 0.000000e+00 0.000000e+00)
# Time        forces(pressure viscous)	moments(pressure viscous)
0             	((0.000000e+00 0.000000e+00 0.000000e+00) (0.000000e+00 0.000000e+00 0.000000e+00)) ((0.000000e+00 0.000000e+00 0.000000e+00) (0.000000e+00 0.000000e+00 0.000000e+00))
0.012         	((5.383498e-13 -9.007217e-13 -2.164692e-10) (5.809050e-16 -4.750205e-15 -4.546610e-12)) ((9.768741e-17 -8.420240e-12 4.468311e-18) (-1.126207e-17 -5.562597e-09 3.287771e-16))
0.0264        	((-9.047594e-13 9.563868e-13 8.138549e-11) (7.499073e-16 -1.344329e-14 -7.906191e-12)) ((2.073422e-17 -4.214469e-12 -4.098822e-16) (-1.512316e-16 -5.094904e-09 4.641529e-16))
0.04368       	((-3.164886e-12 -5.184071e-12 -7.540128e-11) (-8.093269e-15 -1.007272e-14 -8.569957e-12)) ((-7.646304e-17 -2.323954e-12 -2.666423e-16) (2.537791e-16 -4.614275e-09 6.680654e-16))
0.064416      	((9.122309e-13 1.428813e-12 -2.838697e-12) (-2.515731e-14 7.476163e-15 -7.085613e-12)) ((-1.551514e-18 -1.322349e-12 1.868518e-17) (8.541870e-16 -4.131196e-09 8.679335e-16))
0.0892992     	((-2.728464e-12 -1.600943e-12 -9.457475e-12) (-3.713659e-14 2.542468e-14 -5.889955e-12)) ((1.984429e-17 -9.815128e-13 1.992181e-18) (1.170024e-15 -3.659747e-09 8.928109e-16))
0.119159      	((1.098762e-12 4.260378e-13 -2.521352e-12) (-4.491154e-14 4.420707e-14 -4.993053e-12)) ((-1.377748e-17 -7.038738e-13 4.094206e-18) (1.568933e-15 -3.214428e-09 1.020948e-15))
0.154991      	((9.029590e-13 1.022508e-12 6.176908e-12) (-5.233541e-14 6.910012e-14 -4.020199e-12)) ((1.231691e-17 -5.558972e-13 -4.248834e-17) (2.083759e-15 -2.805493e-09 1.258494e-15))
0.197989      	((7.053733e-13 6.890980e-13 -6.707217e-13) (-5.544172e-14 8.925085e-14 -3.137346e-12)) ((1.846469e-17 -4.417362e-13 -4.266807e-17) (2.344081e-15 -2.442942e-09 1.446249e-15))
0.249587      	((-6.497369e-14 7.048408e-13 5.985242e-12) (-5.429012e-14 1.004967e-13 -2.475928e-12)) ((2.913909e-17 -3.640493e-13 8.077791e-18) (2.289981e-15 -2.132188e-09 1.255181e-15))
0.311504      	((8.972407e-14 -1.723074e-13 1.146581e-12) (-5.010400e-14 1.090265e-13 -1.926535e-12)) ((2.401232e-17 -3.029536e-13 4.320809e-17) (2.166692e-15 -1.872492e-09 8.538892e-16))
0.385805      	((3.891836e-13 -6.007416e-13 -1.258519e-14) (-4.696103e-14 1.121058e-13 -1.475754e-12)) ((7.202660e-18 -2.596785e-13 6.878611e-17) (2.118765e-15 -1.658253e-09 6.710799e-16))
0.474966      	((7.519096e-13 1.630895e-13 -1.260553e-12) (-3.915258e-14 1.194450e-13 -1.047696e-12)) ((6.307319e-18 -2.312425e-13 5.475335e-17) (2.016592e-15 -1.481044e-09 2.016088e-16))
0.581959      	((1.232016e-12 6.870852e-13 1.284133e-12) (-2.675948e-14 1.247112e-13 -6.898725e-13)) ((1.231097e-17 -2.070862e-13 2.012165e-17) (1.957199e-15 -1.332095e-09 -4.550067e-16))
0.710351      	((1.761055e-12 9.661248e-13 -2.965470e-12) (-3.035351e-14 8.898878e-14 -6.153337e-13)) ((3.041766e-17 -1.838357e-13 1.875562e-17) (1.537231e-15 -1.204146e-09 7.876461e-17))
0.864421      	((1.855554e-12 8.144272e-13 -1.429036e-12) (-3.916190e-14 -1.033177e-14 -5.811979e-13)) ((4.232815e-17 -1.681571e-13 -2.777084e-17) (6.142740e-16 -1.092049e-09 1.564408e-15))
1.049306      	((2.792018e-12 7.768058e-13 1.228598e-13) (-6.500861e-14 -1.000239e-13 -3.716508e-13)) ((6.226767e-17 -1.581711e-13 -2.320876e-17) (-5.695835e-16 -9.924175e-10 2.447385e-15))
1.271167      	((3.591561e-12 6.405801e-13 -2.899031e-12) (-1.178603e-13 -1.437129e-13 -1.633901e-13)) ((2.507108e-17 -1.479327e-13 -4.602063e-17) (-2.250310e-15 -9.029703e-10 1.855224e-15))
1.5374        	((3.592700e-12 -2.810715e-13 -3.478292e-12) (-2.005207e-13 -1.602087e-13 1.113938e-13)) ((-4.413092e-17 -1.360346e-13 -7.062287e-17) (-4.515771e-15 -8.222235e-10 3.119002e-16))
1.85688       	((3.502225e-12 4.235936e-13 -2.355212e-12) (-3.011257e-13 -1.761860e-13 5.353158e-13)) ((-8.466661e-17 -1.255607e-13 -3.155019e-17) (-7.825266e-15 -7.493725e-10 -2.832503e-15))
2.240256      	((3.331150e-12 2.037115e-13 -2.981246e-12) (-4.454186e-13 -1.450507e-13 8.075734e-13)) ((-8.821346e-17 -1.188149e-13 -2.127502e-17) (-1.084578e-14 -6.840014e-10 -7.009050e-15))
2.700307      	((3.181031e-12 3.712253e-14 -2.551775e-12) (-6.962374e-13 -9.267607e-14 9.594424e-13)) ((-8.038394e-17 -1.139357e-13 -2.891840e-17) (-1.575911e-14 -6.258154e-10 -1.569194e-14))
3.252369      	((2.382573e-12 2.123481e-13 -1.690089e-12) (-1.019501e-12 -5.125891e-14 1.493394e-12)) ((-9.537296e-17 -1.090536e-13 -4.652213e-17) (-2.223112e-14 -5.744184e-10 -2.627739e-14))
3.914842      	((1.051985e-12 2.048496e-13 -5.040097e-13) (-1.335597e-12 7.292361e-15 2.355393e-12)) ((-4.734200e-17 -1.033776e-13 -7.833067e-17) (-2.686918e-14 -5.292107e-10 -3.142804e-14))
4.709811      	((4.724022e-13 1.066630e-14 3.810632e-13) (-1.681730e-12 8.551268e-14 2.689753e-12)) ((-5.971587e-17 -9.706053e-14 -6.338624e-17) (-3.067795e-14 -4.893530e-10 -3.554550e-14))
5.663773      	((-2.840011e-14 1.634935e-13 -7.114918e-13) (-1.890362e-12 8.323680e-14 2.519915e-12)) ((-5.763052e-17 -9.018506e-14 -1.985483e-17) (-3.257100e-14 -4.539095e-10 -3.606025e-14))
6.808528      	((-4.992485e-13 2.477137e-13 -1.751330e-13) (-1.875185e-12 3.140430e-14 2.439670e-12)) ((-6.174898e-17 -8.317830e-14 3.099841e-17) (-3.128091e-14 -4.220474e-10 -3.263413e-14))
8.182233      	((-7.111519e-13 -8.585710e-15 1.082731e-13) (-1.736971e-12 4.506598e-14 2.241366e-12)) ((-5.709363e-17 -7.636114e-14 2.162586e-17) (-2.747220e-14 -3.931212e-10 -2.993400e-14))
9.83068       	((-6.981491e-13 3.053188e-13 -1.583623e-13) (-1.501298e-12 6.861959e-14 1.715162e-12)) ((-3.888377e-17 -6.936647e-14 2.310113e-17) (-2.248790e-14 -3.666421e-10 -2.606393e-14))
11.808816     	((3.328832e-14 1.251089e-13 -6.763059e-13) (-1.174488e-12 -4.860726e-15 1.070080e-12)) ((-4.057714e-17 -6.306899e-14 4.236838e-17) (-1.812320e-14 -3.422702e-10 -1.973279e-14))
14.182579     	((1.607729e-13 1.203563e-13 -9.460271e-13) (-8.381828e-13 -1.574363e-13 7.263801e-13)) ((-2.839469e-17 -5.732003e-14 5.543809e-17) (-1.414456e-14 -3.198107e-10 -1.079756e-14))
17.031095     	((2.785340e-13 1.757301e-13 -7.671325e-13) (-5.677647e-13 -1.982447e-13 4.924843e-13)) ((-1.501126e-18 -5.237628e-14 6.438529e-17) (-9.778048e-15 -2.991624e-10 -5.028727e-15))
20.449314     	((2.736526e-13 6.396459e-14 -9.604585e-13) (-3.609420e-13 -1.321983e-13 2.974712e-13)) ((-8.480044e-19 -4.800101e-14 7.506789e-17) (-5.765383e-15 -2.802588e-10 -3.327090e-15))
24.551176     	((2.888627e-13 -3.902074e-14 -9.146863e-13) (-2.299109e-13 -7.111193e-14 2.533115e-13)) ((-5.269348e-19 -4.410024e-14 7.808274e-17) (-3.096268e-15 -2.629854e-10 -2.550551e-15))
29.473411     	((2.406481e-13 1.223595e-14 -1.004386e-12) (-1.589984e-13 -3.426302e-14 3.095440e-13)) ((9.574534e-18 -4.084081e-14 7.217662e-17) (-2.054227e-15 -2.472208e-10 -2.017907e-15))
35.380094     	((3.922876e-13 2.614388e-15 -9.085100e-13) (-1.276051e-13 1.473970e-15 3.696469e-13)) ((9.067769e-18 -3.794816e-14 6.926943e-17) (-1.494334e-15 -2.328361e-10 -1.637896e-15))
42.468112     	((2.765218e-13 -1.456041e-14 -8.030509e-13) (-1.269968e-13 1.971564e-14 3.940237e-13)) ((5.307120e-18 -3.546262e-14 5.413380e-17) (-1.373117e-15 -2.197091e-10 -1.831379e-15))
50.973735     	((2.085200e-13 -2.349377e-14 -6.833411e-13) (-1.421455e-13 3.346156e-14 3.647868e-13)) ((1.377887e-18 -3.325513e-14 4.318515e-17) (-1.634889e-15 -2.077412e-10 -2.612070e-15))
61.180482     	((2.769027e-13 -2.586334e-14 -6.304097e-13) (-1.522018e-13 4.097319e-14 3.230479e-13)) ((4.985086e-18 -3.127070e-14 3.890205e-17) (-2.402097e-15 -1.968455e-10 -3.988258e-15))
73.428578     	((1.587654e-13 -2.473852e-14 -4.811694e-13) (-1.712655e-13 3.574649e-14 2.994167e-13)) ((9.854085e-18 -2.949429e-14 3.212790e-17) (-3.208672e-15 -1.869517e-10 -4.707289e-15))
88.126294     	((1.346079e-13 -3.229785e-16 -5.591561e-13) (-1.953425e-13 3.686696e-14 3.186140e-13)) ((1.260053e-17 -2.790019e-14 2.030254e-17) (-3.794251e-15 -1.779851e-10 -5.353447e-15))
105.763553    	((6.841831e-14 1.283799e-15 -4.645839e-13) (-2.215796e-13 3.469702e-14 3.450186e-13)) ((1.746317e-17 -2.638614e-14 1.305122e-17) (-4.279473e-15 -1.698738e-10 -6.046229e-15))
126.928263    	((4.088782e-14 2.330878e-14 -4.079196e-13) (-2.445707e-13 3.523735e-14 3.381744e-13)) ((2.073920e-17 -2.501221e-14 9.420445e-18) (-4.269145e-15 -1.625423e-10 -6.455091e-15))
152.325916    	((1.648151e-14 2.420723e-14 -2.769522e-13) (-2.443276e-13 3.137366e-14 3.359908e-13)) ((1.867469e-17 -2.379518e-14 8.166244e-18) (-4.267799e-15 -1.559129e-10 -6.610306e-15))
182.803099    	((-2.259873e-14 2.503246e-14 -1.799426e-13) (-2.304603e-13 3.134688e-14 3.448972e-13)) ((1.581517e-17 -2.268452e-14 9.067332e-18) (-4.436912e-15 -1.499066e-10 -6.735400e-15))
219.375719    	((-2.608610e-14 1.178232e-14 -1.366935e-13) (-2.093336e-13 2.696872e-14 3.872929e-13)) ((1.616555e-17 -2.168359e-14 8.240331e-18) (-4.591635e-15 -1.444517e-10 -6.710820e-15))
263.262863    	((-3.357613e-14 1.269689e-14 -1.661945e-14) (-2.031104e-13 2.000453e-14 4.744527e-13)) ((1.538009e-17 -2.077166e-14 7.087240e-18) (-4.873548e-15 -1.394901e-10 -6.435179e-15))
315.927436    	((-6.222047e-14 9.795349e-15 1.545709e-14) (-2.019856e-13 1.145684e-14 5.464057e-13)) ((1.045614e-17 -1.994794e-14 4.794212e-18) (-5.252245e-15 -1.349745e-10 -6.321211e-15))
379.124923    	((-8.571384e-14 1.115745e-14 6.833975e-14) (-2.015744e-13 9.359712e-15 6.076276e-13)) ((7.200604e-18 -1.919570e-14 1.236519e-18) (-5.459801e-15 -1.308688e-10 -6.294460e-15))
454.961908    	((-4.692323e-14 7.781463e-15 1.051882e-13) (-2.008559e-13 7.981154e-15 6.485759e-13)) ((5.051680e-18 -1.850898e-14 -1.672659e-18) (-5.428335e-15 -1.271453e-10 -6.083968e-15))
545.966289    	((-4.195512e-14 1.244779e-15 8.395691e-14) (-2.021052e-13 8.863932e-15 6.751954e-13)) ((3.016462e-18 -1.787297e-14 -3.333980e-18) (-5.218958e-15 -1.237778e-10 -5.836290e-15))
655.171547    	((-4.870737e-14 9.311435e-15 9.171418e-14) (-2.029195e-13 5.988932e-15 6.840736e-13)) ((1.537923e-18 -1.730212e-14 -4.455106e-18) (-5.015991e-15 -1.207421e-10 -5.448402e-15))
786.217856    	((-7.170549e-14 1.404661e-14 7.130756e-14) (-1.983330e-13 5.636612e-15 6.841857e-13)) ((2.374325e-19 -1.678553e-14 -5.257490e-18) (-4.728671e-15 -1.180174e-10 -5.153202e-15))
943.473427    	((-6.603392e-14 6.096385e-16 1.371643e-14) (-1.934090e-13 8.056926e-15 6.686002e-13)) ((-3.202222e-20 -1.633073e-14 -4.253773e-18) (-4.487601e-15 -1.155836e-10 -4.940779e-15))
1132.180113   	((-6.577160e-14 -2.151710e-15 1.974825e-16) (-1.857685e-13 8.613224e-15 6.543672e-13)) ((-9.698009e-19 -1.593310e-14 -2.360858e-18) (-4.223403e-15 -1.134199e-10 -4.690419e-15))
1358.628135   	((-6.433489e-14 -7.907477e-16 7.406503e-15) (-1.789129e-13 7.400111e-15 6.346074e-13)) ((-1.525191e-18 -1.557658e-14 -1.147672e-18) (-3.999254e-15 -1.115073e-10 -4.401902e-15))
1630.365763   	((-8.459871e-14 8.823715e-16 4.668602e-15) (-1.709790e-13 5.691236e-15 6.150338e-13)) ((-1.923863e-18 -1.526101e-14 8.506863e-19) (-3.762837e-15 -1.098261e-10 -4.133510e-15))
1956.450915   	((-8.873997e-14 4.322697e-16 1.620800e-14) (-1.642839e-13 2.460749e-15 6.020194e-13)) ((-1.352693e-18 -1.498632e-14 2.964351e-18) (-3.558582e-15 -1.083571e-10 -3.827239e-15))
2347.753098   	((-8.690946e-14 -1.861579e-15 2.406854e-14) (-1.599480e-13 -1.481199e-15 5.949936e-13)) ((-1.528178e-18 -1.474707e-14 3.444248e-18) (-3.373726e-15 -1.070809e-10 -3.517285e-15))
2817.315718   	((-7.414895e-14 -6.131037e-15 2.667995e-14) (-1.560767e-13 -5.415370e-15 5.880433e-13)) ((-2.019047e-18 -1.454367e-14 2.588774e-18) (-3.208379e-15 -1.059789e-10 -3.237618e-15))
3380.790861   	((-6.762702e-14 -5.216728e-15 1.983753e-14) (-1.518277e-13 -8.222188e-15 5.802303e-13)) ((-1.923985e-18 -1.437223e-14 1.490142e-18) (-3.019232e-15 -1.050338e-10 -2.954087e-15))
4056.961033   	((-6.826258e-14 -1.554977e-15 1.319847e-14) (-1.474895e-13 -1.068824e-14 5.744886e-13)) ((-1.742616e-18 -1.422525e-14 3.892119e-19) (-2.848849e-15 -1.042292e-10 -2.717992e-15))
4868.36524    	((-7.148826e-14 2.352933e-15 1.429722e-14) (-1.427003e-13 -1.239253e-14 5.685231e-13)) ((-2.364245e-18 -1.410214e-14 -5.820427e-20) (-2.699679e-15 -1.035490e-10 -2.555935e-15))
5842.050288   	((-7.922289e-14 5.532655e-15 2.849103e-14) (-1.363945e-13 -1.290367e-14 5.624333e-13)) ((-3.324255e-18 -1.399727e-14 1.036100e-19) (-2.548115e-15 -1.029782e-10 -2.470737e-15))
7010.472346   	((-8.768877e-14 8.505761e-15 5.727346e-14) (-1.286929e-13 -1.255645e-14 5.581681e-13)) ((-4.240225e-18 -1.390801e-14 5.580523e-19) (-2.403852e-15 -1.025027e-10 -2.421515e-15))
8412.578815   	((-9.482499e-14 1.342005e-14 8.718794e-14) (-1.165959e-13 -1.208713e-14 5.543891e-13)) ((-4.298038e-18 -1.383351e-14 1.215213e-18) (-2.271705e-15 -1.021094e-10 -2.381194e-15))
10095.106578  	((-9.695168e-14 1.709813e-14 9.589539e-14) (-1.095866e-13 -1.166526e-14 5.524258e-13)) ((-4.811841e-18 -1.377377e-14 1.747742e-18) (-2.183312e-15 -1.017864e-10 -2.309786e-15))
12114.139893  	((-1.017197e-13 1.922071e-14 1.017626e-13) (-1.044429e-13 -1.119146e-14 5.515332e-13)) ((-5.348355e-18 -1.372496e-14 2.193464e-18) (-2.116299e-15 -1.015228e-10 -2.233259e-15))
14536.979872  	((-1.080310e-13 2.076096e-14 1.069320e-13) (-1.001358e-13 -1.078856e-14 5.514405e-13)) ((-5.668647e-18 -1.368520e-14 2.575988e-18) (-2.067139e-15 -1.013090e-10 -2.165652e-15))
17444.387847  	((-1.141865e-13 2.185824e-14 1.133770e-13) (-9.652245e-14 -1.062366e-14 5.518569e-13)) ((-5.883742e-18 -1.365315e-14 2.877064e-18) (-2.036125e-15 -1.011364e-10 -2.103923e-15))
20933.277416  	((-1.216387e-13 2.302572e-14 1.211190e-13) (-9.352239e-14 -1.057420e-14 5.524936e-13)) ((-6.003176e-18 -1.362730e-14 3.091018e-18) (-2.014677e-15 -1.009978e-10 -2.049919e-15))
25119.944899  	((-1.295862e-13 2.513462e-14 1.319744e-13) (-9.106700e-14 -1.046751e-14 5.532518e-13)) ((-6.091605e-18 -1.360657e-14 3.270798e-18) (-1.995674e-15 -1.008869e-10 -2.003301e-15))
30143.945879  	((-1.390089e-13 2.821424e-14 1.448159e-13) (-8.910352e-14 -1.043859e-14 5.539765e-13)) ((-6.164486e-18 -1.358996e-14 3.379148e-18) (-1.981043e-15 -1.007986e-10 -1.963854e-15))
36172.747055  	((-1.507539e-13 3.250044e-14 1.586971e-13) (-8.754721e-14 -1.043211e-14 5.545055e-13)) ((-6.233305e-18 -1.357669e-14 3.446295e-18) (-1.972858e-15 -1.007284e-10 -1.933375e-15))
43407.308466  	((-1.646840e-13 3.856105e-14 1.738100e-13) (-8.637734e-14 -1.038579e-14 5.548685e-13)) ((-6.309062e-18 -1.356608e-14 3.467101e-18) (-1.971212e-15 -1.006728e-10 -1.909078e-15))
52088.782159  	((-1.812072e-13 4.731742e-14 1.908882e-13) (-8.559475e-14 -1.008058e-14 5.550444e-13)) ((-6.401017e-18 -1.355767e-14 3.456208e-18) (-1.976020e-15 -1.006288e-10 -1.889223e-15))
62506.550591  	((-1.996845e-13 5.820643e-14 2.114052e-13) (-8.512100e-14 -9.773166e-15 5.548450e-13)) ((-6.553298e-18 -1.355104e-14 3.325932e-18) (-1.990014e-15 -1.005941e-10 -1.877280e-15))
75007.872709  	((-2.157194e-13 7.861323e-14 2.399122e-13) (-8.408069e-14 -9.272327e-15 5.539562e-13)) ((-6.954402e-18 -1.354528e-14 2.640818e-18) (-2.031480e-15 -1.005668e-10 -1.889703e-15))
90009.45925   	((-2.430367e-13 9.630256e-14 2.721200e-13) (-8.441973e-14 -9.036747e-15 5.540445e-13)) ((-7.007454e-18 -1.354119e-14 2.676563e-18) (-2.032155e-15 -1.005453e-10 -1.880873e-15))
107576.007237 	((-2.735920e-13 1.174916e-13 3.123774e-13) (-8.539226e-14 -8.741210e-15 5.542372e-13)) ((-6.992645e-18 -1.353738e-14 2.826465e-18) (-2.033940e-15 -1.005284e-10 -1.857180e-15))
127707.521882 	((-3.068309e-13 1.423530e-13 3.638385e-13) (-8.669225e-14 -8.407329e-15 5.543352e-13)) ((-7.054488e-18 -1.353365e-14 2.933764e-18) (-2.035899e-15 -1.005152e-10 -1.834235e-15))
150404.007189 	((-3.436404e-13 1.734158e-13 4.261448e-13) (-8.828742e-14 -8.094509e-15 5.546785e-13)) ((-7.102003e-18 -1.352996e-14 2.966921e-18) (-2.030754e-15 -1.005048e-10 -1.810685e-15))
175665.466233 	((-3.824696e-13 2.023817e-13 4.942551e-13) (-9.058633e-14 -7.859120e-15 5.548027e-13)) ((-7.628874e-18 -1.352669e-14 3.080445e-18) (-2.036842e-15 -1.004966e-10 -1.768824e-15))
201315.227244 	((-4.246736e-13 2.209437e-13 5.349546e-13) (-9.627185e-14 -8.083136e-15 5.529494e-13)) ((-7.743232e-18 -1.351647e-14 7.486118e-18) (-2.038997e-15 -1.004905e-10 -1.844258e-15))
226965.00577  	((-4.207498e-13 2.583772e-13 6.415407e-13) (-9.401655e-14 -9.142621e-15 5.518723e-13)) ((-1.063324e-17 -1.350547e-14 3.784707e-18) (-1.956740e-15 -1.004857e-10 -1.878051e-15))
252614.796717 	((-4.220022e-13 2.930480e-13 7.413473e-13) (-9.220101e-14 -8.717128e-15 5.472064e-13)) ((-9.556823e-18 -1.350031e-14 3.965277e-18) (-1.856974e-15 -1.004823e-10 -1.852209e-15))
278264.599544 	((-3.881616e-13 3.384364e-13 8.733122e-13) (-8.871926e-14 -8.533872e-15 5.435650e-13)) ((-7.680869e-18 -1.348752e-14 3.090469e-18) (-1.855608e-15 -1.004797e-10 -1.865314e-15))
303914.413738 	((-3.613621e-13 3.188082e-13 1.020603e-12) (-9.115598e-14 -5.841114e-15 5.441989e-13)) ((-1.086835e-17 -1.347714e-14 3.970067e-18) (-1.903547e-15 -1.004776e-10 -1.760313e-15))
329564.239419 	((-3.462374e-13 3.491100e-13 1.129883e-12) (-9.056602e-14 -7.263939e-15 5.493282e-13)) ((-8.772396e-18 -1.346449e-14 4.603913e-18) (-1.943161e-15 -1.004757e-10 -1.845004e-15))
355214.077801 	((-2.812779e-13 3.253546e-13 1.177224e-12) (-8.825109e-14 -3.951160e-15 5.554129e-13)) ((-7.144214e-18 -1.345390e-14 5.892975e-18) (-1.926425e-15 -1.004738e-10 -1.683313e-15))
380863.927941 	((-2.339532e-13 2.935697e-13 1.185151e-12) (-8.660574e-14 -5.258911e-15 5.596530e-13)) ((-4.583542e-18 -1.344806e-14 6.972797e-18) (-2.020532e-15 -1.004717e-10 -1.640555e-15))
406513.788359 	((-1.570401e-13 2.884843e-13 1.160860e-12) (-8.285533e-14 -7.345093e-15 5.618134e-13)) ((-5.370075e-19 -1.344654e-14 7.315601e-18) (-1.956995e-15 -1.004696e-10 -1.682831e-15))
432163.658294 	((-1.155457e-14 2.499796e-13 1.072571e-12) (-7.818386e-14 -9.264605e-15 5.611186e-13)) ((2.984882e-19 -1.344385e-14 5.532844e-18) (-1.983920e-15 -1.004674e-10 -1.586214e-15))
457813.535991 	((1.442554e-13 2.108287e-13 9.819165e-13) (-6.980000e-14 -1.022019e-14 5.560948e-13)) ((-2.187075e-18 -1.343980e-14 5.251063e-18) (-1.926430e-15 -1.004652e-10 -1.608789e-15))
483463.420723 	((3.221038e-13 1.681268e-13 8.756752e-13) (-6.027270e-14 -1.103231e-14 5.505522e-13)) ((-2.401895e-18 -1.343617e-14 4.488826e-18) (-1.901725e-15 -1.004630e-10 -1.676173e-15))
509113.312149 	((4.725436e-13 1.196326e-13 7.489308e-13) (-5.472632e-14 -1.097752e-14 5.464528e-13)) ((-2.466840e-18 -1.343205e-14 3.557798e-18) (-1.894446e-15 -1.004606e-10 -1.729463e-15))
534763.210029 	((5.625271e-13 6.787349e-14 6.164654e-13) (-5.250880e-14 -1.156093e-14 5.450128e-13)) ((-3.014772e-18 -1.342898e-14 2.881776e-18) (-1.875377e-15 -1.004581e-10 -1.766136e-15))
560413.113997 	((5.922674e-13 1.852514e-14 4.993108e-13) (-5.265160e-14 -1.213840e-14 5.452850e-13)) ((-3.331105e-18 -1.342661e-14 2.181967e-18) (-1.850177e-15 -1.004556e-10 -1.779811e-15))
586063.023289 	((5.896463e-13 -2.286024e-14 3.953011e-13) (-5.575614e-14 -1.220166e-14 5.458120e-13)) ((-3.363844e-18 -1.342413e-14 1.356472e-18) (-1.830649e-15 -1.004533e-10 -1.774830e-15))
611712.937299 	((5.732075e-13 -5.722168e-14 3.098250e-13) (-5.875807e-14 -1.230791e-14 5.475653e-13)) ((-3.076862e-18 -1.342120e-14 7.712655e-19) (-1.825848e-15 -1.004510e-10 -1.762784e-15))
