# Forces      
# CofR        : (0.000000e+00 0.000000e+00 0.000000e+00)
# Time        forces(pressure viscous)	moments(pressure viscous)
0             	((0.000000e+00 0.000000e+00 0.000000e+00) (-5.690019e-13 4.000708e-03 5.402817e-14)) ((0.000000e+00 0.000000e+00 0.000000e+00) (2.144955e-14 8.605068e-16 -1.259816e-09))
0.012         	((2.571550e-06 1.170660e+00 2.234714e-06) (4.476715e-09 4.671595e-03 -3.517339e-09)) ((7.330179e-11 2.357943e-11 -2.151603e-07) (1.877555e-13 9.397534e-13 -1.670867e-09))
0.0264        	((-2.718558e-05 -1.749331e-01 -2.561235e-05) (-3.023225e-08 4.684243e-03 -2.345028e-08)) ((2.371468e-09 1.110062e-11 1.346270e-08) (4.052101e-10 1.207171e-11 2.832409e-10))
0.04368       	((3.469047e-05 -1.920313e-01 1.363268e-05) (-1.089955e-08 4.068662e-03 -2.628387e-08)) ((-1.765730e-09 -5.074749e-11 6.544145e-08) (2.531781e-10 2.430769e-12 3.490283e-09))
0.064416      	((-1.416751e-06 -3.724680e-04 2.585210e-06) (9.684353e-08 3.583234e-03 -1.863575e-08)) ((-5.050143e-11 9.786767e-11 -1.224569e-08) (-2.360262e-10 9.139322e-12 4.554829e-09))
0.0892992     	((-4.875904e-06 -1.465458e-03 3.135003e-07) (1.705910e-08 3.296441e-03 -1.398437e-08)) ((7.795080e-11 -1.337633e-10 1.168069e-09) (-4.715374e-10 8.485814e-12 6.412183e-09))
0.119159      	((-2.847365e-06 -1.963578e-03 -1.074081e-06) (-3.337238e-07 3.054087e-03 -1.435748e-09)) ((1.474466e-10 4.195618e-12 5.940965e-10) (-1.768391e-10 -2.899252e-12 7.839425e-09))
0.154991      	((-9.532485e-06 3.681955e-06 -3.748193e-06) (-6.173843e-07 2.826379e-03 5.711869e-09)) ((2.426303e-10 -7.415890e-11 1.282911e-10) (1.391242e-10 -8.667317e-12 8.701878e-09))
0.197989      	((-2.462362e-06 6.025124e-04 -1.783472e-06) (-8.136294e-07 2.622820e-03 5.389423e-09)) ((2.097672e-10 -4.280351e-11 -1.825997e-10) (4.073186e-10 1.775805e-12 9.770871e-09))
0.249587      	((-6.393251e-06 8.972908e-04 -1.005218e-06) (-9.989991e-07 2.447305e-03 -6.768386e-09)) ((1.432622e-10 -1.675010e-11 1.458099e-10) (6.431139e-10 3.046757e-11 9.888260e-09))
0.311504      	((-3.135401e-06 1.088992e-03 -9.632062e-07) (-9.763730e-07 2.295112e-03 -2.128798e-08)) ((7.088403e-11 3.588498e-12 -5.445650e-10) (7.342272e-10 3.558254e-11 1.112925e-08))
0.385805      	((-2.601324e-06 1.197480e-03 -4.241002e-07) (-7.914050e-07 2.157267e-03 -2.428859e-08)) ((4.325823e-13 1.150691e-11 -9.151894e-10) (4.527415e-10 4.407895e-11 1.348682e-08))
0.474966      	((-1.411172e-06 1.264229e-03 -2.291110e-07) (-6.612646e-07 2.025462e-03 -2.702909e-08)) ((-3.927466e-11 -1.100132e-12 -1.237532e-09) (2.875566e-10 7.106675e-11 1.583456e-08))
0.581959      	((-1.472479e-06 1.324220e-03 -1.175021e-07) (-6.024890e-07 1.896652e-03 -3.162185e-08)) ((-5.508917e-11 -8.076725e-12 -1.464334e-09) (1.085847e-10 8.180453e-11 1.716642e-08))
0.710351      	((-9.530576e-07 1.397140e-03 -7.089576e-08) (-5.192669e-07 1.772853e-03 -2.683825e-08)) ((-4.821035e-11 -4.986840e-13 -1.831326e-09) (-3.297964e-10 7.625180e-11 1.802408e-08))
0.864421      	((-6.068746e-07 1.501754e-03 -3.271562e-07) (-4.065668e-07 1.656938e-03 -2.108290e-08)) ((-3.384935e-11 -1.307394e-12 -2.364946e-09) (-1.030280e-09 8.220129e-11 1.922808e-08))
1.049306      	((-1.887195e-07 1.649419e-03 -4.258158e-07) (-3.006200e-07 1.550682e-03 -1.286006e-08)) ((-1.462212e-11 -1.256875e-12 -2.987202e-09) (-1.791873e-09 8.305713e-11 2.091969e-08))
1.271167      	((1.065289e-07 1.849530e-03 -7.646412e-07) (-1.442164e-07 1.455283e-03 -1.268622e-08)) ((9.683607e-12 2.645793e-12 -3.702214e-09) (-2.386832e-09 7.772646e-11 2.444585e-08))
1.533011      	((9.277164e-07 2.112292e-03 -8.414276e-07) (2.427265e-08 1.372404e-03 -2.360960e-08)) ((1.656050e-11 4.959590e-12 -4.556200e-09) (-2.471892e-09 7.335887e-11 2.956383e-08))
1.834484      	((1.285081e-06 2.437141e-03 -9.612527e-07) (1.747675e-07 1.302585e-03 -3.750677e-08)) ((1.358907e-11 4.519577e-12 -5.574276e-09) (-2.054345e-09 4.833646e-11 3.581178e-08))
2.175257      	((1.945285e-06 2.824130e-03 -8.316203e-07) (2.202911e-07 1.244801e-03 -4.152287e-08)) ((9.290247e-12 6.143977e-12 -6.806331e-09) (-1.448947e-09 2.459092e-11 4.394564e-08))
2.554927      	((2.203636e-06 3.264859e-03 -6.429381e-07) (1.502880e-07 1.197417e-03 -3.622698e-08)) ((-1.135854e-12 4.781045e-12 -8.275426e-09) (-9.913594e-10 6.711878e-12 5.054521e-08))
2.938947      	((2.439621e-06 3.721894e-03 -3.454715e-07) (1.469595e-07 1.161132e-03 -3.085263e-08)) ((-1.465296e-11 9.049484e-12 -9.579818e-09) (-7.213759e-10 2.627574e-11 5.365703e-08))
3.317479      	((2.994530e-06 4.154784e-03 1.411233e-08) (1.820966e-07 1.132302e-03 -1.273835e-08)) ((-9.067479e-12 8.942956e-12 -1.049888e-08) (-1.407189e-10 3.109347e-11 5.335800e-08))
3.690743      	((3.705751e-06 4.551463e-03 2.178448e-07) (1.644642e-07 1.109472e-03 -8.151459e-09)) ((-6.188870e-13 9.663013e-12 -1.138817e-08) (-5.830734e-10 3.199553e-11 5.145679e-08))
4.060344      	((3.520652e-06 4.865642e-03 -1.948886e-07) (9.498405e-08 1.091515e-03 -3.872374e-08)) ((4.860443e-12 2.380748e-13 -1.260757e-08) (-2.452129e-09 4.873077e-11 5.126132e-08))
4.428307      	((4.124768e-06 5.082047e-03 -2.272140e-09) (-2.149602e-08 1.076411e-03 -9.424047e-08)) ((1.210628e-11 -1.212388e-11 -1.389189e-08) (-5.605519e-09 7.320296e-11 5.406744e-08))
4.79606       	((5.863403e-06 5.204326e-03 1.145210e-06) (-9.380745e-08 1.062346e-03 -1.285405e-07)) ((-1.530080e-12 -3.552201e-11 -1.524348e-08) (-8.369009e-09 7.148122e-11 5.676902e-08))
5.163718      	((8.602626e-06 5.230144e-03 2.478881e-06) (-9.202119e-08 1.049304e-03 -1.095092e-07)) ((4.614360e-12 -4.161706e-11 -1.643808e-08) (-9.982902e-09 6.343520e-11 5.787450e-08))
5.530443      	((9.020320e-06 5.162088e-03 2.000599e-06) (-3.360074e-08 1.037205e-03 -9.260067e-08)) ((6.144204e-11 -3.755644e-11 -1.696323e-08) (-1.180379e-08 4.257020e-11 5.753061e-08))
5.895619      	((8.171870e-06 5.059045e-03 8.525523e-07) (1.954828e-08 1.026011e-03 -1.034616e-07)) ((1.162838e-10 -4.125982e-11 -1.696394e-08) (-1.347656e-08 8.438620e-11 5.634710e-08))
6.259164      	((8.115151e-06 4.963551e-03 4.668241e-07) (7.907841e-08 1.015883e-03 -1.293663e-07)) ((1.042589e-10 -3.694932e-11 -1.663723e-08) (-1.545945e-08 1.597401e-10 5.473166e-08))
6.621342      	((9.759031e-06 4.881340e-03 6.621831e-07) (1.486302e-07 1.007260e-03 -1.576554e-07)) ((5.299959e-11 -1.181534e-11 -1.632830e-08) (-1.691448e-08 1.756283e-10 5.401906e-08))
6.982415      	((9.827575e-06 4.842021e-03 4.126937e-07) (2.361451e-07 1.000253e-03 -1.847986e-07)) ((3.718193e-11 1.284767e-11 -1.613208e-08) (-1.782268e-08 1.541170e-10 5.235310e-08))
7.342467      	((9.365965e-06 4.829210e-03 1.714513e-07) (3.316511e-07 9.942326e-04 -1.824319e-07)) ((1.208963e-11 2.149475e-11 -1.618187e-08) (-1.682209e-08 1.295105e-10 4.753168e-08))
7.701513      	((1.003575e-05 4.818130e-03 2.597090e-07) (3.812053e-07 9.885886e-04 -1.559781e-07)) ((-3.443315e-13 2.400888e-11 -1.639659e-08) (-1.453670e-08 1.847459e-10 4.354314e-08))
8.059635      	((1.048885e-05 4.790106e-03 3.243632e-07) (4.187631e-07 9.829120e-04 -1.252708e-07)) ((9.579800e-12 1.804309e-11 -1.653466e-08) (-1.228852e-08 2.098357e-10 4.042086e-08))
8.416978      	((1.199942e-05 4.751665e-03 7.776339e-07) (4.566497e-07 9.772485e-04 -9.216435e-08)) ((2.046054e-11 1.139348e-11 -1.656228e-08) (-1.061715e-08 2.906524e-10 3.805046e-08))
8.773643      	((1.298063e-05 4.700782e-03 7.069141e-07) (4.828428e-07 9.717415e-04 -7.424150e-08)) ((3.643795e-11 1.504399e-11 -1.649155e-08) (-1.003027e-08 2.841008e-10 3.640834e-08))
9.12968       	((1.439940e-05 4.644560e-03 4.270405e-07) (5.223321e-07 9.663661e-04 -6.954741e-08)) ((3.922958e-11 1.423920e-11 -1.634823e-08) (-1.012224e-08 1.502228e-10 3.545451e-08))
9.485134      	((1.651388e-05 4.594156e-03 6.813587e-07) (5.818452e-07 9.612331e-04 -6.280980e-08)) ((9.851118e-12 2.094133e-11 -1.616112e-08) (-1.034463e-08 2.888227e-11 3.573535e-08))
9.84006       	((1.801250e-05 4.551860e-03 1.467251e-07) (6.405159e-07 9.564454e-04 -5.666887e-08)) ((-1.275351e-11 3.022734e-11 -1.596861e-08) (-1.018221e-08 -8.967817e-11 3.642847e-08))
10.194486     	((1.922376e-05 4.525611e-03 -3.658973e-07) (7.004987e-07 9.520962e-04 -5.428647e-08)) ((-4.034808e-11 4.549046e-11 -1.582271e-08) (-9.413788e-09 -7.687984e-11 3.680481e-08))
10.54843      	((2.098894e-05 4.509975e-03 -1.025316e-06) (7.638095e-07 9.481911e-04 -5.097174e-08)) ((-6.161878e-11 6.050189e-11 -1.575067e-08) (-8.553079e-09 2.039818e-11 3.743436e-08))
10.901898     	((2.296709e-05 4.501102e-03 -1.730080e-06) (8.376653e-07 9.446297e-04 -6.623640e-08)) ((-6.796786e-11 7.648770e-11 -1.571781e-08) (-8.335945e-09 4.212256e-11 3.783879e-08))
11.254894     	((2.480737e-05 4.489433e-03 -2.596857e-06) (9.320857e-07 9.412016e-04 -9.310580e-08)) ((-4.013584e-11 8.261985e-11 -1.569025e-08) (-7.578310e-09 -2.242251e-11 3.767174e-08))
11.607423     	((2.696608e-05 4.475644e-03 -2.776334e-06) (1.042153e-06 9.377593e-04 -1.019559e-07)) ((-2.073905e-11 7.946548e-11 -1.565507e-08) (-6.161772e-09 -1.322785e-10 3.784559e-08))
11.959494     	((2.895405e-05 4.457051e-03 -3.185061e-06) (1.156144e-06 9.342750e-04 -1.029500e-07)) ((-1.279594e-11 7.637526e-11 -1.560602e-08) (-5.030675e-09 -1.791772e-10 3.867888e-08))
12.311131     	((3.046249e-05 4.434459e-03 -3.776421e-06) (1.256987e-06 9.307982e-04 -1.164456e-07)) ((4.861488e-12 8.206584e-11 -1.554380e-08) (-4.417456e-09 -2.255814e-10 4.007818e-08))
12.662364     	((3.301211e-05 4.411933e-03 -4.624222e-06) (1.356469e-06 9.274230e-04 -1.454579e-07)) ((1.863132e-11 7.916589e-11 -1.547732e-08) (-4.291756e-09 -2.569534e-10 4.149458e-08))
13.013218     	((3.578096e-05 4.390397e-03 -5.795524e-06) (1.468495e-06 9.242254e-04 -1.922858e-07)) ((2.792848e-11 8.042216e-11 -1.540459e-08) (-4.633675e-09 -2.306731e-10 4.289496e-08))
13.363707     	((3.875905e-05 4.374818e-03 -7.130684e-06) (1.589303e-06 9.212789e-04 -2.501491e-07)) ((3.401066e-11 8.392350e-11 -1.533756e-08) (-5.453723e-09 -1.359344e-10 4.454428e-08))
13.713839     	((4.181273e-05 4.361839e-03 -8.575761e-06) (1.715307e-06 9.185911e-04 -3.063195e-07)) ((3.575742e-11 9.443566e-11 -1.528885e-08) (-5.884177e-09 -2.130838e-11 4.622489e-08))
14.063623     	((4.485425e-05 4.351075e-03 -1.031397e-05) (1.846319e-06 9.161330e-04 -3.662596e-07)) ((4.481412e-11 1.008736e-10 -1.525939e-08) (-5.916745e-09 1.089718e-10 4.711749e-08))
14.413059     	((4.844815e-05 4.339967e-03 -1.207477e-05) (1.994167e-06 9.138700e-04 -4.368164e-07)) ((5.128350e-11 9.870867e-11 -1.523714e-08) (-6.094326e-09 2.370636e-10 4.699133e-08))
14.762153     	((5.274187e-05 4.324915e-03 -1.413791e-05) (2.173577e-06 9.117252e-04 -5.213893e-07)) ((6.472661e-11 9.698877e-11 -1.522207e-08) (-6.574230e-09 3.461986e-10 4.645625e-08))
15.110961     	((5.779416e-05 4.309768e-03 -1.653554e-05) (2.372347e-06 9.096359e-04 -6.264677e-07)) ((9.240796e-11 1.073921e-10 -1.519988e-08) (-7.339951e-09 4.186791e-10 4.698453e-08))
15.459482     	((6.249659e-05 4.295048e-03 -1.881921e-05) (2.569521e-06 9.075700e-04 -7.439321e-07)) ((1.144283e-10 1.198472e-10 -1.516829e-08) (-7.832432e-09 4.490528e-10 4.936157e-08))
15.807706     	((6.829685e-05 4.277603e-03 -2.139796e-05) (2.772917e-06 9.054744e-04 -8.643658e-07)) ((1.389593e-10 1.284393e-10 -1.512677e-08) (-7.519781e-09 4.645911e-10 5.320321e-08))
16.155654     	((7.412089e-05 4.259400e-03 -2.390488e-05) (2.999939e-06 9.033321e-04 -9.873169e-07)) ((1.598699e-10 1.327196e-10 -1.507658e-08) (-6.509587e-09 5.776360e-10 5.753284e-08))
16.503338     	((8.045741e-05 4.240760e-03 -2.641575e-05) (3.253502e-06 9.011500e-04 -1.109422e-06)) ((1.754308e-10 1.359126e-10 -1.502090e-08) (-4.996983e-09 8.233027e-10 6.169199e-08))
16.850773     	((8.744298e-05 4.225004e-03 -2.953821e-05) (3.532556e-06 8.989741e-04 -1.237549e-06)) ((1.944269e-10 1.413353e-10 -1.497505e-08) (-3.368493e-09 1.108728e-09 6.563749e-08))
17.197979     	((9.416569e-05 4.212458e-03 -3.228912e-05) (3.830918e-06 8.968699e-04 -1.371814e-06)) ((2.054400e-10 1.498588e-10 -1.493565e-08) (-1.699131e-09 1.391158e-09 6.949666e-08))
17.544981     	((1.011367e-04 4.202322e-03 -3.554183e-05) (4.140836e-06 8.948824e-04 -1.508525e-06)) ((2.243712e-10 1.616988e-10 -1.490305e-08) (4.290339e-11 1.660721e-09 7.339274e-08))
17.891786     	((1.086827e-04 4.193217e-03 -3.944528e-05) (4.468529e-06 8.930204e-04 -1.657227e-06)) ((2.478534e-10 1.719711e-10 -1.487107e-08) (1.969847e-09 1.847404e-09 7.737247e-08))
18.238399     	((1.169508e-04 4.184469e-03 -4.327128e-05) (4.820182e-06 8.912695e-04 -1.815671e-06)) ((2.649727e-10 1.765088e-10 -1.483864e-08) (4.302524e-09 1.928423e-09 8.158831e-08))
18.584822     	((1.260028e-04 4.173100e-03 -4.779303e-05) (5.204919e-06 8.895786e-04 -1.985802e-06)) ((2.926943e-10 1.778073e-10 -1.480420e-08) (7.105038e-09 1.961396e-09 8.601638e-08))
18.93106      	((1.361029e-04 4.161830e-03 -5.268352e-05) (5.635801e-06 8.879058e-04 -2.175648e-06)) ((3.215323e-10 1.787524e-10 -1.477323e-08) (1.032370e-08 1.972477e-09 9.048709e-08))
19.277125     	((1.477022e-04 4.149899e-03 -5.790302e-05) (6.127784e-06 8.862170e-04 -2.384442e-06)) ((3.518763e-10 1.791164e-10 -1.474028e-08) (1.383406e-08 1.966626e-09 9.486753e-08))
19.623026     	((1.606934e-04 4.138226e-03 -6.385470e-05) (6.685213e-06 8.844999e-04 -2.611696e-06)) ((3.906638e-10 1.744128e-10 -1.470521e-08) (1.766385e-08 1.871255e-09 9.937811e-08))
19.968772     	((1.754055e-04 4.126922e-03 -7.056498e-05) (7.303200e-06 8.827791e-04 -2.857806e-06)) ((4.402050e-10 1.708489e-10 -1.466643e-08) (2.219092e-08 1.670726e-09 1.046730e-07))
20.314374     	((1.917566e-04 4.115160e-03 -7.795170e-05) (7.979200e-06 8.810791e-04 -3.123817e-06)) ((4.942288e-10 1.691074e-10 -1.462215e-08) (2.763448e-08 1.407807e-09 1.112728e-07))
20.659845     	((2.100454e-04 4.104308e-03 -8.622769e-05) (8.719115e-06 8.794266e-04 -3.419519e-06)) ((5.463034e-10 1.705018e-10 -1.457695e-08) (3.366092e-08 1.125424e-09 1.193264e-07))
21.005194     	((2.302233e-04 4.095118e-03 -9.547226e-05) (9.529811e-06 8.778463e-04 -3.758501e-06)) ((6.025343e-10 1.742290e-10 -1.453373e-08) (3.989195e-08 8.504805e-10 1.288564e-07))
21.350426     	((2.521785e-04 4.087691e-03 -1.053682e-04) (1.041439e-05 8.763490e-04 -4.140169e-06)) ((6.568535e-10 1.760181e-10 -1.449559e-08) (4.637607e-08 6.051975e-10 1.398039e-07))
21.695549     	((2.767540e-04 4.081260e-03 -1.161234e-04) (1.138603e-05 8.749296e-04 -4.561607e-06)) ((7.155563e-10 1.847640e-10 -1.446006e-08) (5.322429e-08 3.802642e-10 1.521126e-07))
22.040568     	((3.033252e-04 4.074569e-03 -1.273986e-04) (1.245460e-05 8.735675e-04 -5.018394e-06)) ((7.772650e-10 1.962424e-10 -1.442291e-08) (6.045863e-08 2.192384e-10 1.656597e-07))
22.385486     	((3.319713e-04 4.068455e-03 -1.391425e-04) (1.362759e-05 8.722583e-04 -5.515024e-06)) ((8.332984e-10 2.104824e-10 -1.438269e-08) (6.776954e-08 8.656967e-11 1.800978e-07))
22.730309     	((3.628205e-04 4.062720e-03 -1.516072e-04) (1.492198e-05 8.710047e-04 -6.052807e-06)) ((8.925277e-10 2.242387e-10 -1.434037e-08) (7.525942e-08 -1.114970e-10 1.949989e-07))
23.075038     	((3.964535e-04 4.056921e-03 -1.652998e-04) (1.635013e-05 8.697879e-04 -6.638442e-06)) ((9.555544e-10 2.388405e-10 -1.429716e-08) (8.314537e-08 -3.729883e-10 2.105946e-07))
23.41963      	((4.330227e-04 4.051753e-03 -1.793647e-04) (1.791592e-05 8.685924e-04 -7.272757e-06)) ((1.017110e-09 2.567274e-10 -1.425614e-08) (9.141126e-08 -7.189829e-10 2.276786e-07))
23.764058     	((4.724770e-04 4.045801e-03 -1.949893e-04) (1.962501e-05 8.673960e-04 -7.962716e-06)) ((1.089062e-09 2.793790e-10 -1.421378e-08) (9.990169e-08 -1.158987e-09 2.467106e-07))
24.108331     	((5.150740e-04 4.041004e-03 -2.114617e-04) (2.147952e-05 8.662006e-04 -8.712273e-06)) ((1.162959e-09 3.051707e-10 -1.417257e-08) (1.085541e-07 -1.742881e-09 2.677748e-07))
24.452457     	((5.608406e-04 4.036915e-03 -2.298441e-04) (2.349139e-05 8.650222e-04 -9.530512e-06)) ((1.255821e-09 3.390279e-10 -1.412918e-08) (1.173440e-07 -2.364447e-09 2.904230e-07))
24.796443     	((6.099759e-04 4.034834e-03 -2.493244e-04) (2.567007e-05 8.638841e-04 -1.041754e-05)) ((1.356686e-09 3.733362e-10 -1.408445e-08) (1.263733e-07 -2.947619e-09 3.144332e-07))
25.140307     	((6.628782e-04 4.034030e-03 -2.704429e-04) (2.802571e-05 8.628120e-04 -1.137692e-05)) ((1.467067e-09 4.082618e-10 -1.403418e-08) (1.356705e-07 -3.500736e-09 3.396258e-07))
25.48407      	((7.197190e-04 4.035040e-03 -2.931751e-04) (3.056077e-05 8.618153e-04 -1.241058e-05)) ((1.590657e-09 4.456361e-10 -1.397568e-08) (1.455058e-07 -3.957540e-09 3.665254e-07))
25.827738     	((7.817155e-04 4.036970e-03 -3.180813e-04) (3.329255e-05 8.608938e-04 -1.352258e-05)) ((1.731702e-09 4.811418e-10 -1.389998e-08) (1.560271e-07 -4.213976e-09 3.954491e-07))
26.171314     	((8.486476e-04 4.040543e-03 -3.449749e-04) (3.625760e-05 8.600624e-04 -1.473361e-05)) ((1.886460e-09 5.259036e-10 -1.381285e-08) (1.663638e-07 -4.234531e-09 4.256104e-07))
26.514801     	((9.217062e-04 4.044709e-03 -3.745757e-04) (3.949940e-05 8.593488e-04 -1.606820e-05)) ((2.067496e-09 5.876523e-10 -1.371384e-08) (1.758653e-07 -4.052408e-09 4.557995e-07))
26.858204     	((1.000483e-03 4.051520e-03 -4.062512e-04) (4.305227e-05 8.587784e-04 -1.753556e-05)) ((2.255646e-09 6.690901e-10 -1.360767e-08) (1.847968e-07 -3.557106e-09 4.853482e-07))
27.201525     	((1.086331e-03 4.060436e-03 -4.409441e-04) (4.693881e-05 8.583558e-04 -1.914186e-05)) ((2.460172e-09 7.622006e-10 -1.349974e-08) (1.937228e-07 -2.625685e-09 5.152811e-07))
27.544772     	((1.180043e-03 4.072045e-03 -4.784924e-04) (5.119149e-05 8.580757e-04 -2.089653e-05)) ((2.679805e-09 8.736315e-10 -1.339361e-08) (2.033195e-07 -1.229672e-09 5.468399e-07))
27.887953     	((1.282564e-03 4.086226e-03 -5.191447e-04) (5.584950e-05 8.579231e-04 -2.280025e-05)) ((2.917564e-09 9.974442e-10 -1.328084e-08) (2.145457e-07 4.409094e-10 5.809976e-07))
28.231077     	((1.393791e-03 4.103794e-03 -5.629924e-04) (6.093970e-05 8.579040e-04 -2.485685e-05)) ((3.177206e-09 1.127004e-09 -1.315258e-08) (2.279605e-07 2.110058e-09 6.188997e-07))
28.57415      	((1.515803e-03 4.126690e-03 -6.108664e-04) (6.650273e-05 8.580732e-04 -2.709157e-05)) ((3.455773e-09 1.275958e-09 -1.301950e-08) (2.435279e-07 3.419647e-09 6.609055e-07))
28.917174     	((1.648950e-03 4.154284e-03 -6.629595e-04) (7.258410e-05 8.584718e-04 -2.951528e-05)) ((3.747698e-09 1.451780e-09 -1.288847e-08) (2.616236e-07 4.281627e-09 7.072872e-07))
29.260155     	((1.793125e-03 4.188853e-03 -7.191651e-04) (7.921520e-05 8.591461e-04 -3.213432e-05)) ((4.056800e-09 1.686107e-09 -1.273675e-08) (2.825928e-07 4.677630e-09 7.587361e-07))
29.603094     	((1.948346e-03 4.231691e-03 -7.804973e-04) (8.642428e-05 8.601982e-04 -3.496653e-05)) ((4.400635e-09 1.980522e-09 -1.255104e-08) (3.062589e-07 4.680006e-09 8.133732e-07))
29.945987     	((2.115007e-03 4.282178e-03 -8.453129e-04) (9.428363e-05 8.617142e-04 -3.802013e-05)) ((4.763033e-09 2.318612e-09 -1.232186e-08) (3.310426e-07 4.788045e-09 8.683955e-07))
30.288827     	((2.292740e-03 4.340104e-03 -9.144588e-04) (1.028234e-04 8.637008e-04 -4.129812e-05)) ((5.135101e-09 2.705382e-09 -1.204015e-08) (3.559694e-07 5.854654e-09 9.240669e-07))
30.631605     	((2.479320e-03 4.409016e-03 -9.868668e-04) (1.120069e-04 8.661943e-04 -4.482671e-05)) ((5.506042e-09 3.149087e-09 -1.171308e-08) (3.810110e-07 7.689070e-09 9.835955e-07))
30.974317     	((2.676705e-03 4.487260e-03 -1.062028e-03) (1.218280e-04 8.692321e-04 -4.858754e-05)) ((5.855707e-09 3.655051e-09 -1.135971e-08) (4.083963e-07 9.129279e-09 1.047959e-06))
31.316957     	((2.884952e-03 4.576887e-03 -1.141497e-03) (1.322622e-04 8.728631e-04 -5.256288e-05)) ((6.187403e-09 4.231143e-09 -1.100290e-08) (4.401670e-07 1.008831e-08 1.118513e-06))
31.659515     	((3.103239e-03 4.680142e-03 -1.224411e-03) (1.433162e-04 8.771557e-04 -5.675792e-05)) ((6.471510e-09 4.866016e-09 -1.064299e-08) (4.755443e-07 1.140024e-08 1.194556e-06))
32.002        	((3.327195e-03 4.797189e-03 -1.309872e-03) (1.549992e-04 8.821671e-04 -6.119357e-05)) ((6.684802e-09 5.551398e-09 -1.028110e-08) (5.118333e-07 1.294394e-08 1.272117e-06))
32.344431     	((3.558427e-03 4.931795e-03 -1.398341e-03) (1.673350e-04 8.880120e-04 -6.589098e-05)) ((6.826090e-09 6.309763e-09 -9.934439e-09) (5.463268e-07 1.460786e-08 1.347583e-06))
32.686832     	((3.791311e-03 5.083066e-03 -1.488098e-03) (1.802896e-04 8.947668e-04 -7.084096e-05)) ((6.881419e-09 7.099143e-09 -9.619620e-09) (5.783161e-07 1.602419e-08 1.421454e-06))
33.029251     	((4.023820e-03 5.251768e-03 -1.578769e-03) (1.937947e-04 9.025251e-04 -7.603040e-05)) ((6.856967e-09 7.956660e-09 -9.306583e-09) (6.078016e-07 1.684688e-08 1.493352e-06))
33.371732     	((4.252494e-03 5.433050e-03 -1.668326e-03) (2.077125e-04 9.113511e-04 -8.140573e-05)) ((6.814850e-09 8.856172e-09 -9.018151e-09) (6.354454e-07 1.622680e-08 1.561617e-06))
33.714361     	((4.473513e-03 5.631642e-03 -1.754423e-03) (2.218472e-04 9.213295e-04 -8.686444e-05)) ((6.695786e-09 9.782524e-09 -8.798264e-09) (6.624393e-07 1.311258e-08 1.625411e-06))
34.057166     	((4.678360e-03 5.845058e-03 -1.833946e-03) (2.360469e-04 9.324919e-04 -9.234518e-05)) ((6.527832e-09 1.066855e-08 -8.603399e-09) (6.851017e-07 1.005760e-08 1.681806e-06))
34.400071     	((4.861608e-03 6.065694e-03 -1.906528e-03) (2.501444e-04 9.448157e-04 -9.782209e-05)) ((6.376763e-09 1.152498e-08 -8.442032e-09) (6.999041e-07 7.241284e-09 1.724628e-06))
34.743067     	((5.012728e-03 6.286249e-03 -1.966302e-03) (2.638984e-04 9.581528e-04 -1.032042e-04)) ((6.217046e-09 1.233054e-08 -8.310493e-09) (7.069086e-07 2.728101e-09 1.746500e-06))
35.086158     	((5.119111e-03 6.500345e-03 -2.010776e-03) (2.769495e-04 9.721933e-04 -1.083296e-04)) ((6.004602e-09 1.308557e-08 -8.209116e-09) (7.061298e-07 -3.558123e-09 1.744608e-06))
35.429355     	((5.174255e-03 6.699076e-03 -2.035333e-03) (2.889311e-04 9.864705e-04 -1.130320e-04)) ((5.675637e-09 1.371376e-08 -8.173664e-09) (6.967064e-07 -1.024795e-08 1.717052e-06))
35.77268      	((5.167997e-03 6.866739e-03 -2.034371e-03) (2.994689e-04 1.000409e-03 -1.170744e-04)) ((5.182855e-09 1.418604e-08 -8.201884e-09) (6.791656e-07 -1.799830e-08 1.660106e-06))
