# Forces      
# CofR        : (0.000000e+00 0.000000e+00 0.000000e+00)
# Time        forces(pressure viscous)	moments(pressure viscous)
0             	((0.000000e+00 0.000000e+00 0.000000e+00) (9.227538e-14 1.599119e-03 -2.051771e-13)) ((0.000000e+00 0.000000e+00 0.000000e+00) (4.528182e-14 -4.192988e-16 -5.836225e-10))
0.012         	((3.490746e-07 4.644387e-01 2.576355e-07) (8.907659e-10 1.829779e-03 -1.132929e-09)) ((1.069024e-10 4.749125e-13 -8.669554e-08) (1.421149e-11 3.897800e-13 -9.596590e-10))
0.0264        	((-6.203014e-06 -4.817516e-02 -3.427549e-06) (-2.686026e-09 1.850959e-03 -3.147505e-09)) ((2.134738e-10 2.076271e-11 4.590572e-09) (2.153976e-11 1.320851e-12 -7.597186e-10))
0.04368       	((1.041037e-05 -8.858623e-02 6.483856e-07) (7.245737e-09 1.629203e-03 -2.962522e-09)) ((-4.553899e-10 9.063928e-12 2.599345e-08) (-3.433879e-11 -7.850201e-13 -7.239014e-11))
0.064416      	((4.660863e-08 -6.858727e-04 1.757176e-06) (1.413848e-08 1.435825e-03 -6.271033e-11)) ((1.074510e-10 5.735603e-11 -3.493927e-09) (-1.078509e-10 1.008678e-11 -5.009810e-11))
0.0892992     	((-8.345998e-07 -1.983583e-05 1.448478e-06) (2.729078e-09 1.321572e-03 -1.621422e-10)) ((1.699955e-11 -5.660964e-11 -3.684924e-10) (-1.362240e-10 3.472118e-11 4.567082e-10))
0.119159      	((1.193872e-06 -1.472728e-03 5.506020e-07) (-7.673318e-09 1.221756e-03 6.972295e-10)) ((1.899131e-11 -1.357450e-11 8.110488e-10) (-1.299326e-10 4.158865e-11 9.019593e-10))
0.154991      	((-8.333918e-07 -4.161813e-04 -1.357249e-07) (-4.967938e-08 1.120779e-03 3.503065e-09)) ((1.958230e-11 -1.336541e-12 7.514270e-11) (-5.883986e-11 2.361860e-11 1.406282e-09))
0.197989      	((-5.627823e-07 9.202807e-06 -3.472693e-07) (-1.083142e-07 1.024918e-03 5.471857e-09)) ((1.146536e-11 -7.761427e-12 -5.841578e-11) (-7.956566e-12 1.863571e-11 1.916242e-09))
0.249587      	((-8.015122e-07 1.563192e-04 -2.375994e-07) (-1.401294e-07 9.373891e-04 6.441258e-09)) ((2.708161e-11 8.260325e-13 -3.732617e-11) (6.406677e-11 1.742697e-11 2.052831e-09))
0.311504      	((-3.997596e-07 2.435015e-04 -2.190879e-07) (-1.480920e-07 8.597627e-04 5.568314e-09)) ((2.268265e-11 -3.821080e-12 -5.363378e-11) (1.510503e-10 1.621997e-11 2.012389e-09))
0.385805      	((-4.549385e-07 2.905836e-04 -1.698581e-07) (-1.445504e-07 7.915586e-04 3.457038e-09)) ((1.211069e-11 -3.806131e-12 -3.803118e-11) (1.749106e-10 1.760768e-11 2.000072e-09))
0.474966      	((-2.906790e-07 3.134800e-04 -1.238648e-07) (-1.287605e-07 7.310630e-04 2.060869e-09)) ((6.337103e-12 -2.813657e-12 -5.625960e-11) (1.999497e-10 1.364196e-11 2.115533e-09))
0.581959      	((-2.270272e-07 3.221470e-04 -8.290358e-08) (-1.097336e-07 6.752596e-04 3.133941e-10)) ((2.319434e-12 -1.810536e-12 -6.019103e-11) (1.898899e-10 7.871890e-12 2.518544e-09))
0.710351      	((-1.539880e-07 3.209673e-04 -6.091537e-08) (-1.002149e-07 6.216273e-04 -2.103613e-09)) ((-1.310290e-12 -4.489836e-13 -8.046535e-11) (1.626751e-10 6.133066e-12 3.272082e-09))
0.864421      	((-1.597932e-07 3.151030e-04 -5.442039e-08) (-8.935700e-08 5.699383e-04 -3.979673e-09)) ((-3.925970e-12 -8.427902e-14 -1.190278e-10) (1.409446e-10 8.704217e-12 4.175403e-09))
1.049306      	((-8.192657e-08 3.083905e-04 -4.008556e-08) (-7.216494e-08 5.211365e-04 -5.443783e-09)) ((-5.126338e-12 5.965286e-13 -1.511785e-10) (9.662375e-11 1.178584e-11 4.885341e-09))
1.271167      	((1.473005e-09 3.044209e-04 -3.030254e-08) (-5.631760e-08 4.760343e-04 -5.618815e-09)) ((-5.326111e-12 8.449186e-13 -1.887370e-10) (-3.655068e-13 1.570044e-11 4.930995e-09))
1.5374        	((1.192204e-08 3.053362e-04 -3.467685e-08) (-3.681952e-08 4.350873e-04 -4.545114e-09)) ((-4.141891e-12 7.402584e-13 -2.423025e-10) (-1.623463e-10 2.298997e-11 4.525678e-09))
1.85688       	((-3.523562e-08 3.122323e-04 -1.009931e-07) (-2.202296e-08 3.985595e-04 -2.866677e-09)) ((-7.314700e-13 4.825835e-13 -2.701398e-10) (-3.550252e-10 2.772277e-11 4.281937e-09))
2.240256      	((-1.306751e-07 3.260192e-04 -1.285482e-07) (-1.732184e-08 3.665351e-04 -2.838586e-09)) ((2.041357e-12 9.072148e-13 -3.147300e-10) (-5.068768e-10 2.974193e-11 4.161219e-09))
2.700307      	((-1.994547e-07 3.485049e-04 -2.126323e-07) (-1.238850e-08 3.390076e-04 -5.203390e-09)) ((3.664842e-12 8.020110e-13 -3.856120e-10) (-5.635903e-10 2.759446e-11 3.944354e-09))
3.252369      	((-1.749485e-07 3.803028e-04 -1.971163e-07) (-4.805941e-09 3.157880e-04 -7.917290e-09)) ((2.288201e-12 9.764047e-13 -4.729976e-10) (-4.852294e-10 2.101327e-11 3.799204e-09))
3.9053        	((-1.003421e-07 4.218539e-04 -2.071370e-07) (1.768836e-10 2.967307e-04 -1.048062e-08)) ((2.019777e-12 7.032819e-13 -5.947938e-10) (-3.173104e-10 1.690021e-11 4.395959e-09))
4.658749      	((1.984130e-08 4.723688e-04 -1.397262e-07) (6.597615e-09 2.814122e-04 -1.105896e-08)) ((1.146047e-12 6.132180e-13 -7.522626e-10) (-1.876657e-10 1.347862e-11 5.781252e-09))
5.512182      	((1.074148e-07 5.303329e-04 -1.043093e-07) (1.660416e-08 2.691599e-04 -1.013237e-08)) ((1.905662e-13 9.290899e-13 -9.387676e-10) (-9.369053e-11 7.623550e-12 7.704942e-09))
6.464812      	((2.285032e-07 5.944818e-04 -3.533202e-08) (1.939190e-08 2.594335e-04 -7.387430e-09)) ((-2.921806e-12 8.076087e-13 -1.138292e-09) (1.894723e-12 1.224753e-12 8.956015e-09))
7.44711       	((3.414586e-07 6.618571e-04 6.142055e-08) (2.281757e-08 2.522789e-04 -3.786145e-09)) ((-7.596818e-12 1.262570e-12 -1.295924e-09) (3.195508e-11 -3.678124e-12 9.795839e-09))
8.419032      	((3.725577e-07 7.233737e-04 8.888031e-08) (2.985268e-08 2.470894e-04 -4.423663e-10)) ((-1.067863e-11 2.330531e-12 -1.431820e-09) (4.339850e-11 -2.244736e-12 1.021122e-08))
9.381382      	((4.144267e-07 7.765549e-04 1.213464e-07) (3.340175e-08 2.430680e-04 -2.850534e-09)) ((-9.601173e-12 3.915005e-12 -1.572277e-09) (-2.318260e-10 -3.886907e-12 1.014771e-08))
10.337253     	((4.753188e-07 8.194201e-04 1.786251e-07) (3.148171e-08 2.396532e-04 -7.873335e-09)) ((-8.297582e-12 4.020402e-12 -1.704309e-09) (-7.431022e-10 7.066310e-12 1.008466e-08))
11.291141     	((6.207106e-07 8.523278e-04 2.975941e-07) (2.401531e-08 2.367593e-04 -1.204021e-08)) ((-7.533516e-12 4.294616e-12 -1.833415e-09) (-1.380285e-09 6.400744e-12 1.040878e-08))
12.246123     	((8.781782e-07 8.707567e-04 5.053823e-07) (2.051160e-08 2.342690e-04 -1.337928e-08)) ((-6.990365e-12 3.469632e-12 -1.945771e-09) (-2.094009e-09 -1.022159e-12 1.054865e-08))
13.202837     	((1.043447e-06 8.765930e-04 6.001094e-07) (2.132131e-08 2.319297e-04 -1.170715e-08)) ((-5.556710e-12 2.317218e-12 -2.034202e-09) (-2.757140e-09 -5.135558e-12 1.061213e-08))
14.160574     	((1.042824e-06 8.735894e-04 5.628329e-07) (1.335603e-08 2.296654e-04 -1.491054e-08)) ((-3.775920e-12 2.582271e-12 -2.080749e-09) (-3.613154e-09 -1.066081e-11 1.120880e-08))
15.118589     	((1.031401e-06 8.630397e-04 4.824757e-07) (1.147214e-08 2.275328e-04 -1.865279e-08)) ((-8.350607e-15 2.415093e-12 -2.083008e-09) (-4.213546e-09 -7.469115e-12 1.137798e-08))
16.076982     	((9.400974e-07 8.496357e-04 4.032526e-07) (1.832843e-08 2.254928e-04 -2.177336e-08)) ((1.130587e-12 2.298104e-12 -2.056486e-09) (-4.541249e-09 -3.134007e-12 1.098901e-08))
17.036482     	((8.070541e-07 8.370991e-04 2.618052e-07) (2.046180e-08 2.235160e-04 -3.021209e-08)) ((6.011832e-13 4.610226e-12 -2.013888e-09) (-4.928731e-09 1.911094e-12 1.080688e-08))
17.997438     	((1.033839e-06 8.290496e-04 4.190794e-07) (2.706729e-08 2.216976e-04 -3.344849e-08)) ((-3.999261e-12 5.904897e-12 -1.981006e-09) (-4.978271e-09 1.186349e-11 1.059671e-08))
18.959768     	((1.186986e-06 8.212418e-04 4.987196e-07) (4.516700e-08 2.200368e-04 -2.531620e-08)) ((-3.923201e-12 7.045234e-12 -1.958742e-09) (-4.602899e-09 1.774287e-11 1.001069e-08))
19.92357      	((1.201863e-06 8.141468e-04 3.689297e-07) (6.020636e-08 2.185055e-04 -1.867993e-08)) ((-3.658969e-12 7.601862e-12 -1.943892e-09) (-4.123124e-09 1.404439e-11 9.461745e-09))
20.889111     	((1.218989e-06 8.076146e-04 2.954809e-07) (6.895657e-08 2.170693e-04 -1.608956e-08)) ((-4.212599e-12 8.228631e-12 -1.933730e-09) (-3.744590e-09 9.119682e-12 9.051548e-09))
21.856178     	((1.356784e-06 8.028441e-04 2.921586e-07) (7.605146e-08 2.157144e-04 -1.183880e-08)) ((-5.564386e-12 9.048606e-12 -1.928805e-09) (-3.342354e-09 1.029021e-11 8.814938e-09))
22.824752     	((1.490718e-06 7.991127e-04 2.427018e-07) (7.869822e-08 2.144482e-04 -6.496327e-09)) ((-4.499419e-12 9.145916e-12 -1.928948e-09) (-2.982936e-09 2.116057e-11 8.932772e-09))
23.794806     	((1.716736e-06 7.956944e-04 1.882538e-07) (8.325077e-08 2.132591e-04 -6.927487e-09)) ((-3.304671e-12 9.536888e-12 -1.931659e-09) (-2.908640e-09 1.567918e-11 9.084250e-09))
24.766319     	((1.902530e-06 7.918599e-04 2.054063e-07) (9.290449e-08 2.121170e-04 -9.094602e-09)) ((-3.515714e-12 9.895774e-12 -1.935126e-09) (-2.924444e-09 -2.371067e-11 9.035287e-09))
25.739279     	((2.068837e-06 7.878583e-04 1.377102e-07) (1.050143e-07 2.109994e-04 -1.015058e-08)) ((-2.670502e-12 1.024362e-11 -1.936853e-09) (-2.806400e-09 -4.641320e-11 8.853786e-09))
26.712922     	((2.257674e-06 7.843406e-04 1.274990e-07) (1.198444e-07 2.099220e-04 -9.341948e-09)) ((-2.831633e-12 1.047087e-11 -1.937026e-09) (-2.529560e-09 -4.482430e-11 8.579176e-09))
27.686832     	((2.483556e-06 7.808677e-04 2.918205e-08) (1.374190e-07 2.088975e-04 -8.948547e-09)) ((-1.428592e-12 9.894114e-12 -1.934844e-09) (-2.244666e-09 -4.123536e-11 8.306031e-09))
28.661162     	((2.784511e-06 7.776707e-04 -1.567883e-08) (1.572245e-07 2.079331e-04 -1.159652e-08)) ((-5.680809e-13 9.285550e-12 -1.931790e-09) (-2.098214e-09 -3.650824e-11 8.159023e-09))
29.636026     	((3.037112e-06 7.745834e-04 -6.587044e-08) (1.777088e-07 2.070336e-04 -1.758173e-08)) ((1.778685e-13 9.207347e-12 -1.927905e-09) (-2.188168e-09 -4.063036e-11 8.086558e-09))
30.611484     	((3.173253e-06 7.718624e-04 -1.594654e-07) (1.986669e-07 2.061985e-04 -2.459354e-08)) ((1.313712e-12 8.828793e-12 -1.924409e-09) (-2.351874e-09 -4.938222e-11 7.989480e-09))
31.587547     	((3.354448e-06 7.688942e-04 -3.168926e-07) (2.188953e-07 2.054089e-04 -3.089604e-08)) ((2.891219e-12 8.704946e-12 -1.921324e-09) (-2.345778e-09 -3.516939e-11 7.940708e-09))
32.564261     	((3.547900e-06 7.660255e-04 -4.840049e-07) (2.374732e-07 2.046559e-04 -3.909499e-08)) ((3.692919e-12 8.735732e-12 -1.918961e-09) (-2.282111e-09 -1.751881e-11 7.950854e-09))
33.541717     	((3.823922e-06 7.625377e-04 -6.872767e-07) (2.564709e-07 2.039201e-04 -5.067695e-08)) ((4.578717e-12 9.082342e-12 -1.917605e-09) (-2.268653e-09 -2.034558e-11 7.975747e-09))
34.519958     	((4.053612e-06 7.599544e-04 -8.562291e-07) (2.763732e-07 2.032124e-04 -6.316856e-08)) ((4.744139e-12 9.792346e-12 -1.916902e-09) (-2.202851e-09 -3.443659e-11 7.955946e-09))
35.498998     	((4.373649e-06 7.568579e-04 -1.035741e-06) (2.989167e-07 2.025178e-04 -7.550717e-08)) ((4.997987e-12 1.065156e-11 -1.915967e-09) (-1.993963e-09 -3.934325e-11 7.866274e-09))
36.478902     	((4.749704e-06 7.541445e-04 -1.201017e-06) (3.254836e-07 2.018304e-04 -8.657647e-08)) ((4.775955e-12 1.141278e-11 -1.915717e-09) (-1.652458e-09 -2.608718e-11 7.809439e-09))
37.459684     	((5.162978e-06 7.518161e-04 -1.368068e-06) (3.543935e-07 2.011670e-04 -9.722666e-08)) ((4.213888e-12 1.226484e-11 -1.916337e-09) (-1.334145e-09 -1.478440e-11 7.904338e-09))
38.441344     	((5.585701e-06 7.499242e-04 -1.527139e-06) (3.826648e-07 2.005393e-04 -1.080598e-07)) ((4.253735e-12 1.292148e-11 -1.917061e-09) (-1.070355e-09 -3.501669e-11 8.199260e-09))
39.423896     	((6.056198e-06 7.483081e-04 -1.742614e-06) (4.124494e-07 1.999553e-04 -1.209419e-07)) ((5.179699e-12 1.366418e-11 -1.918288e-09) (-8.755372e-10 -6.261867e-11 8.568124e-09))
40.407371     	((6.588229e-06 7.459890e-04 -1.959651e-06) (4.457891e-07 1.993934e-04 -1.363491e-07)) ((6.282418e-12 1.404428e-11 -1.919214e-09) (-7.787891e-10 -7.806362e-11 8.941877e-09))
41.39178      	((7.208844e-06 7.437707e-04 -2.239272e-06) (4.837196e-07 1.988440e-04 -1.536234e-07)) ((8.482517e-12 1.471544e-11 -1.920901e-09) (-6.846853e-10 -8.790313e-11 9.315916e-09))
42.377166     	((7.910335e-06 7.416093e-04 -2.533615e-06) (5.276262e-07 1.983027e-04 -1.722473e-07)) ((1.079752e-11 1.481535e-11 -1.922641e-09) (-4.955036e-10 -9.095415e-11 9.668914e-09))
43.363659     	((8.679980e-06 7.394594e-04 -2.825545e-06) (5.773506e-07 1.977636e-04 -1.915757e-07)) ((1.327128e-11 1.437198e-11 -1.923367e-09) (-2.327453e-10 -8.330848e-11 1.004611e-08))
44.35127      	((9.599800e-06 7.372726e-04 -3.178548e-06) (6.335382e-07 1.972297e-04 -2.131247e-07)) ((1.626091e-11 1.348034e-11 -1.922981e-09) (5.640876e-11 -6.668680e-11 1.053369e-08))
45.339969     	((1.070513e-05 7.350498e-04 -3.619097e-06) (6.981224e-07 1.967081e-04 -2.385843e-07)) ((1.942064e-11 1.237356e-11 -1.921624e-09) (3.691734e-10 -4.657117e-11 1.117487e-08))
46.329753     	((1.189628e-05 7.327124e-04 -4.097993e-06) (7.710860e-07 1.962014e-04 -2.682916e-07)) ((2.199481e-11 1.074341e-11 -1.920191e-09) (6.857176e-10 -2.783201e-11 1.199190e-08))
47.320601     	((1.321951e-05 7.306964e-04 -4.609489e-06) (8.528000e-07 1.957167e-04 -3.021389e-07)) ((2.389185e-11 9.568884e-12 -1.919226e-09) (9.917172e-10 -2.185979e-12 1.295017e-08))
48.3125       	((1.457491e-05 7.290796e-04 -5.131493e-06) (9.422633e-07 1.952624e-04 -3.395452e-07)) ((2.633628e-11 8.401156e-12 -1.918018e-09) (1.288722e-09 2.007443e-11 1.400417e-08))
49.305449     	((1.597635e-05 7.277410e-04 -5.671746e-06) (1.038771e-06 1.948406e-04 -3.800350e-07)) ((2.928178e-11 7.540499e-12 -1.916023e-09) (1.562038e-09 3.154651e-11 1.513834e-08))
50.299446     	((1.731235e-05 7.261630e-04 -6.243049e-06) (1.139288e-06 1.944389e-04 -4.229116e-07)) ((3.315350e-11 6.118052e-12 -1.913104e-09) (1.861108e-09 3.790184e-11 1.633859e-08))
51.29449      	((1.870122e-05 7.244957e-04 -6.858486e-06) (1.243346e-06 1.940470e-04 -4.681560e-07)) ((3.703379e-11 4.709406e-12 -1.910414e-09) (2.227151e-09 4.743883e-11 1.758996e-08))
52.290595     	((2.015070e-05 7.227178e-04 -7.553597e-06) (1.352300e-06 1.936603e-04 -5.173061e-07)) ((4.182348e-11 3.548202e-12 -1.907922e-09) (2.651322e-09 5.784520e-11 1.888852e-08))
53.287556     	((2.176740e-05 7.210702e-04 -8.324040e-06) (1.469173e-06 1.932815e-04 -5.714141e-07)) ((4.724698e-11 2.951947e-12 -1.905914e-09) (3.127701e-09 5.886889e-11 2.019759e-08))
54.285305     	((2.350101e-05 7.195135e-04 -9.155871e-06) (1.596095e-06 1.929132e-04 -6.308812e-07)) ((5.236141e-11 3.028595e-12 -1.903949e-09) (3.649596e-09 4.604516e-11 2.148064e-08))
55.283825     	((2.535432e-05 7.181561e-04 -1.002465e-05) (1.733837e-06 1.925574e-04 -6.943881e-07)) ((5.740164e-11 3.572903e-12 -1.902210e-09) (4.256623e-09 3.139329e-11 2.273977e-08))
56.283112     	((2.727677e-05 7.169039e-04 -1.094224e-05) (1.881099e-06 1.922150e-04 -7.614108e-07)) ((6.263205e-11 4.360714e-12 -1.900096e-09) (4.943989e-09 1.856992e-11 2.403578e-08))
57.283127     	((2.929048e-05 7.158142e-04 -1.190611e-05) (2.037141e-06 1.918883e-04 -8.321130e-07)) ((6.851453e-11 5.259041e-12 -1.898180e-09) (5.709581e-09 1.015464e-12 2.536869e-08))
58.283782     	((3.147232e-05 7.146925e-04 -1.301940e-05) (2.203358e-06 1.915741e-04 -9.082200e-07)) ((7.617113e-11 6.968939e-12 -1.895826e-09) (6.594739e-09 -1.227374e-11 2.676346e-08))
59.285011     	((3.382966e-05 7.136477e-04 -1.419820e-05) (2.381305e-06 1.912712e-04 -9.906921e-07)) ((8.344953e-11 8.737107e-12 -1.893596e-09) (7.580421e-09 -2.060982e-11 2.825702e-08))
60.286765     	((3.645623e-05 7.126228e-04 -1.546833e-05) (2.573917e-06 1.909798e-04 -1.079802e-06)) ((9.059099e-11 1.040546e-11 -1.891285e-09) (8.620359e-09 -2.464124e-11 2.988077e-08))
61.288996     	((3.934712e-05 7.116290e-04 -1.685653e-05) (2.783355e-06 1.906992e-04 -1.177110e-06)) ((9.802505e-11 1.184308e-11 -1.889028e-09) (9.696342e-09 -2.035898e-11 3.169356e-08))
62.291662     	((4.260000e-05 7.106818e-04 -1.835345e-05) (3.012835e-06 1.904297e-04 -1.283186e-06)) ((1.055238e-10 1.313281e-11 -1.886967e-09) (1.082040e-08 -6.900705e-12 3.376287e-08))
63.294715     	((4.625424e-05 7.097911e-04 -1.996120e-05) (3.266345e-06 1.901717e-04 -1.398088e-06)) ((1.135247e-10 1.431677e-11 -1.885276e-09) (1.200445e-08 8.895178e-12 3.609689e-08))
64.298097     	((5.033327e-05 7.089538e-04 -2.169490e-05) (3.547623e-06 1.899259e-04 -1.522774e-06)) ((1.222677e-10 1.538686e-11 -1.883794e-09) (1.325842e-08 1.782525e-11 3.869280e-08))
65.301663     	((5.487141e-05 7.081670e-04 -2.358673e-05) (3.859722e-06 1.896922e-04 -1.658275e-06)) ((1.318295e-10 1.627936e-11 -1.882024e-09) (1.459817e-08 2.556575e-11 4.159720e-08))
66.305317     	((5.987054e-05 7.074919e-04 -2.568490e-05) (4.204936e-06 1.894715e-04 -1.806489e-06)) ((1.425987e-10 1.708770e-11 -1.880433e-09) (1.602711e-08 4.509720e-11 4.485643e-08))
67.308978     	((6.539960e-05 7.069075e-04 -2.802137e-05) (4.585754e-06 1.892644e-04 -1.969670e-06)) ((1.555414e-10 1.828888e-11 -1.878589e-09) (1.757045e-08 7.691010e-11 4.856618e-08))
68.31256      	((7.140889e-05 7.064126e-04 -3.059285e-05) (5.004356e-06 1.890714e-04 -2.149806e-06)) ((1.705142e-10 1.991216e-11 -1.876388e-09) (1.922963e-08 1.136639e-10 5.271352e-08))
69.31597      	((7.799903e-05 7.060076e-04 -3.344092e-05) (5.463855e-06 1.888930e-04 -2.349140e-06)) ((1.874159e-10 2.241123e-11 -1.873675e-09) (2.102644e-08 1.250766e-10 5.729836e-08))
70.319109     	((8.521391e-05 7.056767e-04 -3.656655e-05) (5.968124e-06 1.887282e-04 -2.568667e-06)) ((2.055667e-10 2.559072e-11 -1.870646e-09) (2.301867e-08 9.938056e-11 6.238170e-08))
71.321877     	((9.304112e-05 7.054566e-04 -3.998353e-05) (6.520473e-06 1.885776e-04 -2.809904e-06)) ((2.248661e-10 2.986471e-11 -1.866909e-09) (2.520181e-08 2.244893e-11 6.793368e-08))
72.324166     	((1.014840e-04 7.053540e-04 -4.365430e-05) (7.123471e-06 1.884416e-04 -3.072974e-06)) ((2.455407e-10 3.563399e-11 -1.862155e-09) (2.760298e-08 -1.084489e-10 7.392057e-08))
73.325866     	((1.105536e-04 7.053572e-04 -4.766384e-05) (7.780547e-06 1.883201e-04 -3.359457e-06)) ((2.679240e-10 4.262164e-11 -1.855755e-09) (3.026057e-08 -2.223705e-10 8.025610e-08))
74.326866     	((1.203756e-04 7.054355e-04 -5.203002e-05) (8.496789e-06 1.882132e-04 -3.671392e-06)) ((2.924716e-10 5.038652e-11 -1.847260e-09) (3.317642e-08 -2.768465e-10 8.680893e-08))
75.327053     	((1.310030e-04 7.057962e-04 -5.668313e-05) (9.280777e-06 1.881278e-04 -4.009193e-06)) ((3.189043e-10 6.168884e-11 -1.836902e-09) (3.628832e-08 -2.605467e-10 9.337750e-08))
76.326315     	((1.424113e-04 7.063146e-04 -6.171019e-05) (1.013600e-05 1.880676e-04 -4.376681e-06)) ((3.487700e-10 7.725024e-11 -1.825355e-09) (3.948624e-08 -1.983242e-10 9.998622e-08))
77.324535     	((1.547825e-04 7.071071e-04 -6.713317e-05) (1.107147e-05 1.880349e-04 -4.778826e-06)) ((3.804622e-10 9.568127e-11 -1.813027e-09) (4.272466e-08 -1.341807e-10 1.066076e-07))
78.321596     	((1.680323e-04 7.083108e-04 -7.292120e-05) (1.209121e-05 1.880300e-04 -5.217693e-06)) ((4.134580e-10 1.161481e-10 -1.800909e-09) (4.601251e-08 -1.101450e-10 1.133743e-07))
79.317384     	((1.823788e-04 7.100646e-04 -7.916543e-05) (1.319897e-05 1.880546e-04 -5.694830e-06)) ((4.483385e-10 1.394593e-10 -1.788547e-09) (4.935995e-08 -9.146144e-11 1.205163e-07))
80.311775     	((1.978896e-04 7.121757e-04 -8.586679e-05) (1.439725e-05 1.881075e-04 -6.213145e-06)) ((4.851577e-10 1.646931e-10 -1.774738e-09) (5.276172e-08 -6.342335e-11 1.283764e-07))
81.304628     	((2.146903e-04 7.148107e-04 -9.311946e-05) (1.569119e-05 1.881879e-04 -6.773094e-06)) ((5.262253e-10 1.919654e-10 -1.758396e-09) (5.643823e-08 -3.790919e-11 1.370856e-07))
82.29579      	((2.328713e-04 7.181503e-04 -1.010507e-04) (1.709248e-05 1.883050e-04 -7.378122e-06)) ((5.703029e-10 2.226283e-10 -1.740355e-09) (6.056981e-08 6.642689e-12 1.464444e-07))
83.285099     	((2.527725e-04 7.222375e-04 -1.096892e-04) (1.861414e-05 1.884709e-04 -8.035129e-06)) ((6.165079e-10 2.584847e-10 -1.722221e-09) (6.516113e-08 1.212196e-10 1.564316e-07))
84.272387     	((2.743723e-04 7.271930e-04 -1.189941e-04) (2.026696e-05 1.886998e-04 -8.752336e-06)) ((6.650708e-10 2.989677e-10 -1.701611e-09) (7.000992e-08 2.506147e-10 1.671516e-07))
85.257524     	((2.976720e-04 7.334391e-04 -1.290257e-04) (2.205738e-05 1.890156e-04 -9.533585e-06)) ((7.154237e-10 3.453049e-10 -1.677891e-09) (7.501775e-08 3.242178e-10 1.785997e-07))
86.240427     	((3.226360e-04 7.409974e-04 -1.398204e-04) (2.398933e-05 1.894370e-04 -1.037701e-05)) ((7.680717e-10 3.949711e-10 -1.651245e-09) (8.045898e-08 3.964582e-10 1.908831e-07))
87.221066     	((3.496618e-04 7.501502e-04 -1.514583e-04) (2.607853e-05 1.899755e-04 -1.128451e-05)) ((8.241164e-10 4.516807e-10 -1.622762e-09) (8.642202e-08 5.264887e-10 2.039777e-07))
88.199405     	((3.786120e-04 7.610942e-04 -1.639090e-04) (2.833325e-05 1.906468e-04 -1.225802e-05)) ((8.825072e-10 5.171056e-10 -1.594291e-09) (9.285156e-08 7.539916e-10 2.181961e-07))
89.175477     	((4.093863e-04 7.739193e-04 -1.770911e-04) (3.075879e-05 1.914647e-04 -1.330301e-05)) ((9.404046e-10 5.906998e-10 -1.564735e-09) (9.968649e-08 9.055871e-10 2.335634e-07))
90.14928      	((4.419258e-04 7.887985e-04 -1.908997e-04) (3.336228e-05 1.924433e-04 -1.441974e-05)) ((9.932512e-10 6.773922e-10 -1.537201e-09) (1.070757e-07 9.108039e-10 2.498319e-07))
