# Forces      
# CofR        : (0.000000e+00 0.000000e+00 0.000000e+00)
# Time        forces(pressure viscous)	moments(pressure viscous)
0             	((0.000000e+00 0.000000e+00 0.000000e+00) (-3.031242e-13 -1.303179e-13 4.000474e-03)) ((0.000000e+00 0.000000e+00 0.000000e+00) (7.763725e-15 1.345191e-09 1.077841e-16))
0.012         	((2.431750e-06 2.033838e-06 1.169808e+00) (-1.214148e-10 -4.216982e-09 4.671268e-03)) ((1.582826e-10 3.127598e-07 2.388667e-13) (1.692533e-11 4.601186e-09 5.983716e-13))
0.0264        	((-9.787735e-06 -2.176778e-05 -1.748863e-01) (-1.913356e-08 -2.358012e-08 4.683964e-03)) ((2.805090e-09 -4.096614e-08 3.627951e-11) (-3.136733e-10 7.638383e-09 6.848376e-13))
0.04368       	((1.238551e-05 1.565144e-05 -1.917500e-01) (-3.710718e-09 -2.591591e-08 4.068770e-03)) ((-2.962603e-09 -3.713444e-08 -6.893272e-11) (-1.420117e-10 8.421540e-09 -9.893575e-12))
0.064416      	((-4.582233e-06 3.047246e-06 -4.206480e-04) (-6.554008e-08 -7.508042e-09 3.584796e-03)) ((3.267792e-10 4.608587e-09 4.556509e-11) (5.966101e-10 1.039175e-08 -5.230673e-11))
0.0892992     	((-1.899298e-06 -3.067975e-06 -1.445025e-03) (-1.520365e-07 -3.383079e-09 3.298089e-03)) ((3.580433e-10 4.252040e-09 -2.972188e-12) (1.181375e-09 1.136696e-08 -8.836982e-11))
0.119159      	((-4.393719e-06 -1.002701e-06 -1.956097e-03) (-4.219337e-08 -1.447051e-08 3.054280e-03)) ((5.264649e-11 4.183105e-09 -1.409106e-11) (1.165921e-09 1.062697e-08 -7.110752e-11))
0.154991      	((-2.400646e-06 -3.094596e-06 5.569345e-06) (1.429499e-07 -2.572277e-08 2.825778e-03)) ((-1.041527e-11 5.167617e-09 1.089612e-11) (1.024197e-09 1.213536e-08 -4.243223e-11))
0.197989      	((6.922810e-07 -1.926222e-06 6.046771e-04) (2.310906e-07 -2.949346e-08 2.621978e-03)) ((2.952837e-11 5.216228e-09 8.277731e-13) (9.115108e-10 1.355045e-08 -5.274426e-11))
0.249587      	((-1.577255e-06 -1.010741e-06 8.986601e-04) (2.889214e-07 -2.790436e-08 2.446317e-03)) ((1.694432e-11 5.216204e-09 2.934468e-12) (7.819206e-10 1.447466e-08 -6.477441e-11))
0.311504      	((3.171158e-07 -8.002939e-07 1.089692e-03) (3.154676e-07 -2.486483e-08 2.293980e-03)) ((3.595063e-11 5.035057e-09 -4.956224e-12) (7.212498e-10 1.614120e-08 -5.452298e-11))
0.385805      	((-8.885312e-07 -3.310652e-07 1.198462e-03) (2.383782e-07 -2.816007e-08 2.155971e-03)) ((3.251460e-11 4.400719e-09 -3.458216e-12) (6.435242e-10 1.856736e-08 -4.277322e-11))
0.474966      	((-7.030285e-07 -2.556966e-07 1.264651e-03) (1.228726e-07 -3.246988e-08 2.024006e-03)) ((3.606944e-11 4.071131e-09 -2.168179e-12) (5.252684e-10 2.115882e-08 -3.937856e-11))
0.581959      	((-9.190736e-07 -1.445908e-08 1.324580e-03) (9.007329e-08 -2.959302e-08 1.895085e-03)) ((3.704194e-11 3.802436e-09 -1.663911e-12) (5.748975e-10 2.198186e-08 -4.620891e-11))
0.710351      	((-5.380061e-07 -7.355662e-08 1.396913e-03) (1.350274e-07 -2.253705e-08 1.771274e-03)) ((3.244064e-11 3.545953e-09 -2.494831e-12) (9.898003e-10 2.083712e-08 -4.888268e-11))
0.864421      	((-6.458910e-07 -2.945771e-07 1.501305e-03) (1.901614e-07 -1.712414e-08 1.655392e-03)) ((2.873354e-11 3.257100e-09 -1.112405e-12) (1.744365e-09 1.902606e-08 -3.878372e-11))
1.049306      	((-6.495037e-07 -5.146292e-07 1.648882e-03) (2.141132e-07 -1.433446e-08 1.549130e-03)) ((2.021878e-11 2.986688e-09 7.336999e-13) (2.564106e-09 1.624510e-08 -3.011875e-11))
1.271167      	((-1.046480e-06 -8.667902e-07 1.848842e-03) (1.793998e-07 -1.849121e-08 1.453700e-03)) ((1.667323e-11 2.817251e-09 3.507501e-12) (3.133989e-09 1.292874e-08 -3.207212e-11))
1.5328        	((-1.100388e-06 -9.044254e-07 2.111173e-03) (1.585704e-07 -2.902830e-08 1.370877e-03)) ((1.464740e-11 2.636097e-09 3.039951e-12) (3.155275e-09 1.143142e-08 -3.439876e-11))
1.833879      	((-1.292641e-06 -9.982429e-07 2.435174e-03) (1.506142e-07 -3.729871e-08 1.301214e-03)) ((1.831174e-11 2.396402e-09 3.809292e-13) (2.770844e-09 1.166287e-08 -2.062875e-11))
2.174093      	((-1.493619e-06 -8.736719e-07 2.820932e-03) (9.042522e-08 -3.952780e-08 1.243923e-03)) ((4.852106e-12 2.149763e-09 -3.159933e-12) (2.245618e-09 1.351745e-08 -8.131491e-12))
2.553052      	((-1.671353e-06 -6.962784e-07 3.259703e-03) (3.145233e-08 -3.776693e-08 1.197327e-03)) ((-1.468522e-11 1.986775e-09 -3.281600e-12) (1.776476e-09 1.828769e-08 -5.935045e-12))
2.935568      	((-1.921282e-06 -4.036981e-07 3.714457e-03) (-2.210073e-08 -3.233423e-08 1.161885e-03)) ((-1.433618e-11 1.988760e-09 -2.295412e-12) (1.274887e-09 2.537627e-08 7.633725e-12))
3.312915      	((-1.654550e-06 -9.257829e-08 4.145219e-03) (-7.039807e-08 -1.871694e-08 1.133478e-03)) ((-1.481109e-11 2.165998e-09 1.561074e-12) (4.546882e-10 3.491674e-08 4.320226e-12))
3.685585      	((-1.306450e-06 1.647637e-07 4.540931e-03) (-3.628940e-08 -1.126270e-08 1.110782e-03)) ((-2.531852e-11 2.438942e-09 4.843658e-12) (4.539404e-10 4.171496e-08 -2.543859e-11))
4.05511       	((-1.488909e-06 -3.947034e-07 4.854436e-03) (-5.215597e-09 -3.938554e-08 1.092815e-03)) ((5.170982e-12 2.700002e-09 6.820722e-12) (1.846898e-09 4.201122e-08 -2.835803e-11))
4.423332      	((-1.428854e-06 -1.435287e-07 5.069238e-03) (-8.021919e-08 -9.529647e-08 1.077634e-03)) ((3.402680e-11 2.893826e-09 4.221580e-12) (4.831481e-09 3.854236e-08 -3.152776e-11))
4.791407      	((-5.922686e-07 1.084456e-06 5.190724e-03) (-1.067382e-07 -1.256878e-07 1.063459e-03)) ((2.135789e-11 3.000851e-09 4.678321e-12) (7.719898e-09 3.386562e-08 -1.018152e-10))
5.159312      	((3.866580e-07 2.524264e-06 5.215518e-03) (-9.235341e-08 -1.020140e-07 1.050215e-03)) ((-2.206648e-11 3.093845e-09 2.073209e-12) (9.428986e-09 2.751790e-08 -1.495788e-10))
5.526284      	((-1.281280e-06 1.625676e-06 5.146195e-03) (-1.377389e-07 -7.982683e-08 1.037667e-03)) ((-2.194664e-11 3.109023e-09 7.685996e-12) (1.062230e-08 1.988284e-08 -1.438218e-10))
5.891692      	((-3.179826e-06 6.817067e-07 5.042816e-03) (-2.005302e-07 -9.699713e-08 1.025849e-03)) ((9.793900e-12 3.153239e-09 1.705814e-11) (1.203493e-08 1.421572e-08 -1.362765e-10))
6.255499      	((-4.604729e-06 8.608204e-08 4.948522e-03) (-2.459781e-07 -1.339219e-07 1.015130e-03)) ((4.729099e-11 3.186128e-09 2.078135e-11) (1.409484e-08 8.651278e-09 -1.355796e-10))
6.617977      	((-5.060927e-06 5.412228e-07 4.870466e-03) (-3.045151e-07 -1.627184e-07 1.006218e-03)) ((5.737252e-11 3.092585e-09 1.571051e-11) (1.592854e-08 2.957947e-09 -9.271494e-11))
6.979433      	((-5.969572e-06 3.725307e-08 4.834772e-03) (-3.540682e-07 -1.874583e-07 9.991732e-04)) ((4.417349e-11 2.945035e-09 2.067306e-11) (1.733940e-08 -1.245982e-09 -2.526555e-11))
7.339972      	((-6.830719e-06 -3.211902e-07 4.824933e-03) (-3.724272e-07 -1.895840e-07 9.930234e-04)) ((4.180669e-12 2.768622e-09 2.168877e-11) (1.716637e-08 -2.833499e-09 -1.671696e-12))
7.699591      	((-6.895360e-06 -3.996055e-07 4.815987e-03) (-3.752837e-07 -1.821870e-07 9.872025e-04)) ((-4.617340e-11 2.619234e-09 1.843826e-11) (1.626009e-08 -2.353365e-09 6.734380e-12))
8.058298      	((-6.634506e-06 -4.207981e-07 4.788626e-03) (-3.806564e-07 -1.660727e-07 9.812559e-04)) ((-7.479376e-11 2.511589e-09 1.867589e-11) (1.472681e-08 -9.952506e-10 5.614409e-12))
8.416153      	((-5.342064e-06 -4.215760e-08 4.750072e-03) (-3.746561e-07 -1.443689e-07 9.752100e-04)) ((-8.554510e-11 2.445901e-09 1.705332e-11) (1.340350e-08 -1.095048e-09 1.293112e-11))
8.773233      	((-4.874915e-06 -2.778708e-07 4.699434e-03) (-3.650745e-07 -1.239805e-07 9.693221e-04)) ((-7.294460e-11 2.381857e-09 1.590196e-11) (1.223800e-08 -2.479626e-09 5.669447e-11))
9.129608      	((-4.966029e-06 -9.367991e-07 4.644385e-03) (-3.701397e-07 -1.053414e-07 9.636825e-04)) ((-4.510947e-11 2.341695e-09 1.252649e-11) (1.072062e-08 -4.358152e-09 1.199074e-10))
9.485351      	((-3.874235e-06 -9.588445e-07 4.595548e-03) (-3.754542e-07 -9.540209e-08 9.583618e-04)) ((-4.559819e-11 2.328153e-09 1.167096e-11) (9.683932e-09 -7.083711e-09 1.531924e-10))
9.840513      	((-3.713177e-06 -1.537140e-06 4.555049e-03) (-3.659300e-07 -8.948183e-08 9.533870e-04)) ((-4.155869e-11 2.291525e-09 1.243811e-11) (8.473449e-09 -9.360268e-09 1.912318e-10))
10.195117     	((-4.182893e-06 -2.483077e-06 4.530801e-03) (-3.547053e-07 -9.161887e-08 9.488435e-04)) ((-4.908168e-11 2.254043e-09 8.690958e-12) (7.318495e-09 -1.081696e-08 1.768420e-10))
10.549177     	((-4.796867e-06 -3.571085e-06 4.516546e-03) (-3.548338e-07 -1.130522e-07 9.447684e-04)) ((-6.737085e-11 2.220643e-09 4.493484e-12) (6.966636e-09 -1.210806e-08 1.616995e-10))
10.902718     	((-5.338025e-06 -4.582622e-06 4.508401e-03) (-3.744845e-07 -1.541875e-07 9.410520e-04)) ((-7.806624e-11 2.179677e-09 5.464177e-12) (6.157819e-09 -1.224462e-08 1.302385e-10))
11.255757     	((-6.777978e-06 -5.985321e-06 4.498420e-03) (-3.859872e-07 -1.901925e-07 9.374866e-04)) ((-7.139130e-11 2.120038e-09 4.505603e-12) (3.696302e-09 -9.923167e-09 1.486301e-10))
11.608315     	((-7.313943e-06 -6.667107e-06 4.485950e-03) (-3.680673e-07 -2.096624e-07 9.339389e-04)) ((-7.647578e-11 2.089740e-09 7.716899e-12) (1.092629e-09 -6.303975e-09 1.180066e-10))
11.96042      	((-8.408547e-06 -7.617595e-06 4.467421e-03) (-3.462330e-07 -2.329962e-07 9.303721e-04)) ((-6.335688e-11 2.064532e-09 8.640600e-12) (-2.240746e-10 -2.887139e-09 4.550828e-11))
12.312097     	((-9.674770e-06 -8.871730e-06 4.444443e-03) (-3.442009e-07 -2.752940e-07 9.268325e-04)) ((-4.229717e-11 2.040442e-09 1.335064e-11) (-6.729146e-10 1.589781e-10 1.859471e-11))
12.66336      	((-1.089452e-05 -1.010305e-05 4.423298e-03) (-3.515266e-07 -3.275669e-07 9.234548e-04)) ((-2.812308e-11 2.030378e-09 1.775671e-11) (-7.363081e-10 2.954819e-09 1.402116e-11))
13.014233     	((-1.264536e-05 -1.179819e-05 4.402645e-03) (-3.763109e-07 -3.901064e-07 9.202855e-04)) ((-4.085628e-12 2.000222e-09 2.107576e-11) (-5.841393e-10 5.188324e-09 2.297109e-11))
13.36474      	((-1.425194e-05 -1.361031e-05 4.388609e-03) (-4.114189e-07 -4.628023e-07 9.173669e-04)) ((1.806246e-11 1.968775e-09 2.361303e-11) (-1.368663e-10 6.849361e-09 2.616037e-11))
13.714894     	((-1.593171e-05 -1.566694e-05 4.376470e-03) (-4.457991e-07 -5.421464e-07 9.146999e-04)) ((4.084008e-11 1.926783e-09 2.656795e-11) (8.598604e-11 8.597016e-09 2.080806e-11))
14.064707     	((-1.798579e-05 -1.771142e-05 4.365703e-03) (-4.965773e-07 -6.323293e-07 9.122599e-04)) ((6.038571e-11 1.878546e-09 3.035524e-11) (5.636338e-10 9.727615e-09 2.068968e-11))
14.414192     	((-1.988210e-05 -2.018887e-05 4.353931e-03) (-5.782352e-07 -7.415366e-07 9.100097e-04)) ((9.060992e-11 1.827147e-09 3.706197e-11) (1.500442e-09 9.654325e-09 4.098594e-12))
14.763371     	((-2.202217e-05 -2.296023e-05 4.337594e-03) (-6.901581e-07 -8.681064e-07 9.078843e-04)) ((1.267811e-10 1.771543e-09 4.158235e-11) (2.424862e-09 8.533203e-09 -4.608053e-11))
15.112267     	((-2.447270e-05 -2.647747e-05 4.321544e-03) (-8.215313e-07 -1.016164e-06 9.058492e-04)) ((1.537743e-10 1.718483e-09 4.898021e-11) (3.384088e-09 7.453459e-09 -1.010369e-10))
15.46083      	((-2.674270e-05 -2.904800e-05 4.305626e-03) (-9.521880e-07 -1.167973e-06 9.038351e-04)) ((1.558782e-10 1.682117e-09 5.039234e-11) (3.475448e-09 7.896295e-09 -8.965649e-11))
15.809103     	((-2.938980e-05 -3.268993e-05 4.288608e-03) (-1.080618e-06 -1.321484e-06 9.017635e-04)) ((1.707718e-10 1.640149e-09 5.354491e-11) (2.277828e-09 9.388262e-09 -7.182404e-11))
16.157132     	((-3.150642e-05 -3.600488e-05 4.270850e-03) (-1.208174e-06 -1.483372e-06 8.996313e-04)) ((1.838447e-10 1.598713e-09 5.868911e-11) (3.874557e-10 1.097190e-08 -9.289735e-11))
16.504925     	((-3.386503e-05 -3.969991e-05 4.251951e-03) (-1.336891e-06 -1.650502e-06 8.974585e-04)) ((2.041356e-10 1.550305e-09 6.338108e-11) (-1.721015e-09 1.222104e-08 -1.302014e-10))
16.852488     	((-3.651258e-05 -4.396615e-05 4.236330e-03) (-1.473360e-06 -1.825448e-06 8.953020e-04)) ((2.131094e-10 1.511499e-09 6.473612e-11) (-4.156570e-09 1.333327e-08 -1.387530e-10))
17.199827     	((-3.913274e-05 -4.844550e-05 4.225155e-03) (-1.617699e-06 -2.009945e-06 8.932459e-04)) ((2.241694e-10 1.478850e-09 6.511584e-11) (-6.811673e-09 1.418089e-08 -1.955202e-10))
17.546948     	((-4.192940e-05 -5.288482e-05 4.215905e-03) (-1.767526e-06 -2.201779e-06 8.913230e-04)) ((2.328129e-10 1.446419e-09 6.421373e-11) (-9.504361e-09 1.480610e-08 -2.812041e-10))
17.893859     	((-4.532880e-05 -5.832479e-05 4.206382e-03) (-1.926207e-06 -2.408876e-06 8.895154e-04)) ((2.484198e-10 1.403828e-09 6.189570e-11) (-1.239394e-08 1.544693e-08 -2.648667e-10))
18.240573     	((-4.892906e-05 -6.390300e-05 4.197622e-03) (-2.097558e-06 -2.635553e-06 8.878191e-04)) ((2.568087e-10 1.362130e-09 5.734838e-11) (-1.553043e-08 1.604067e-08 -1.963062e-10))
18.587106     	((-5.284854e-05 -7.009276e-05 4.185840e-03) (-2.277504e-06 -2.880807e-06 8.861831e-04)) ((2.821981e-10 1.310948e-09 5.456347e-11) (-1.906490e-08 1.703233e-08 -1.348554e-10))
18.933474     	((-5.711587e-05 -7.690855e-05 4.174069e-03) (-2.468226e-06 -3.150246e-06 8.845650e-04)) ((3.088112e-10 1.266594e-09 5.265455e-11) (-2.300777e-08 1.860611e-08 -6.459716e-11))
19.279686     	((-6.223458e-05 -8.451449e-05 4.161468e-03) (-2.678920e-06 -3.450432e-06 8.829325e-04)) ((3.401871e-10 1.219208e-09 5.103620e-11) (-2.719279e-08 2.059881e-08 4.372145e-11))
19.625751     	((-6.771629e-05 -9.284061e-05 4.149179e-03) (-2.910638e-06 -3.783615e-06 8.812707e-04)) ((3.776489e-10 1.172584e-09 5.066391e-11) (-3.164015e-08 2.291853e-08 1.191010e-10))
19.971684     	((-7.396536e-05 -1.019817e-04 4.137314e-03) (-3.159604e-06 -4.146308e-06 8.795973e-04)) ((4.179461e-10 1.124895e-09 5.306260e-11) (-3.667043e-08 2.588763e-08 1.388582e-10))
20.317517     	((-8.132183e-05 -1.122430e-04 4.125145e-03) (-3.430511e-06 -4.538952e-06 8.779324e-04)) ((4.659614e-10 1.071705e-09 5.527704e-11) (-4.264585e-08 2.987915e-08 1.588808e-10))
20.663245     	((-8.957439e-05 -1.236549e-04 4.112811e-03) (-3.730789e-06 -4.969970e-06 8.762882e-04)) ((5.215536e-10 1.022937e-09 5.687864e-11) (-4.954531e-08 3.483952e-08 1.663802e-10))
21.008868     	((-9.913054e-05 -1.363816e-04 4.100881e-03) (-4.068986e-06 -5.446956e-06 8.746732e-04)) ((5.782198e-10 9.703366e-10 5.752552e-11) (-5.713769e-08 4.060124e-08 1.481806e-10))
21.354396     	((-1.092182e-04 -1.501487e-04 4.091222e-03) (-4.447784e-06 -5.973819e-06 8.731145e-04)) ((6.376204e-10 9.239739e-10 5.631865e-11) (-6.520505e-08 4.688136e-08 1.105488e-10))
21.69983      	((-1.203354e-04 -1.649022e-04 4.083624e-03) (-4.866877e-06 -6.548581e-06 8.716455e-04)) ((6.976115e-10 8.781318e-10 5.387613e-11) (-7.373460e-08 5.352718e-08 7.080102e-11))
22.045176     	((-1.323075e-04 -1.810876e-04 4.076738e-03) (-5.328205e-06 -7.177138e-06 8.702666e-04)) ((7.703885e-10 8.235370e-10 5.146550e-11) (-8.275675e-08 6.055191e-08 5.573799e-11))
22.39044      	((-1.451796e-04 -1.983490e-04 4.070831e-03) (-5.834334e-06 -7.867415e-06 8.689697e-04)) ((8.476836e-10 7.680192e-10 4.870284e-11) (-9.217992e-08 6.797341e-08 7.909941e-11))
22.735627     	((-1.588586e-04 -2.168834e-04 4.064482e-03) (-6.386329e-06 -8.628109e-06 8.677353e-04)) ((9.290489e-10 7.165102e-10 4.652685e-11) (-1.017403e-07 7.578795e-08 1.252390e-10))
23.080746     	((-1.734501e-04 -2.363850e-04 4.057116e-03) (-6.988276e-06 -9.460358e-06 8.665289e-04)) ((1.007205e-09 6.697719e-10 4.491632e-11) (-1.114498e-07 8.395848e-08 1.335311e-10))
23.425804     	((-1.887437e-04 -2.570738e-04 4.049705e-03) (-7.641402e-06 -1.036382e-05 8.653400e-04)) ((1.093906e-09 6.238571e-10 4.478417e-11) (-1.212304e-07 9.239501e-08 1.165090e-10))
23.770804     	((-2.047671e-04 -2.789975e-04 4.041007e-03) (-8.346825e-06 -1.134373e-05 8.641573e-04)) ((1.183802e-09 5.793748e-10 4.487114e-11) (-1.309761e-07 1.008753e-07 1.376147e-10))
24.115748     	((-2.212676e-04 -3.022247e-04 4.033023e-03) (-9.104037e-06 -1.240331e-05 8.629839e-04)) ((1.279878e-09 5.368641e-10 4.396783e-11) (-1.407807e-07 1.092417e-07 2.025206e-10))
24.460637     	((-2.389710e-04 -3.273729e-04 4.024875e-03) (-9.915961e-06 -1.354803e-05 8.618216e-04)) ((1.389975e-09 4.860485e-10 4.214208e-11) (-1.508864e-07 1.176797e-07 2.702468e-10))
24.805471     	((-2.581974e-04 -3.546509e-04 4.018290e-03) (-1.078812e-05 -1.478188e-05 8.606802e-04)) ((1.516403e-09 4.220087e-10 3.956717e-11) (-1.615990e-07 1.266179e-07 3.762741e-10))
25.150257     	((-2.787428e-04 -3.841220e-04 4.013009e-03) (-1.172698e-05 -1.611259e-05 8.595752e-04)) ((1.658489e-09 3.493987e-10 3.790709e-11) (-1.730541e-07 1.361402e-07 5.646088e-10))
25.494968     	((-3.007673e-04 -4.156975e-04 4.009347e-03) (-1.273228e-05 -1.754213e-05 8.585191e-04)) ((1.815730e-09 2.647400e-10 3.443739e-11) (-1.854353e-07 1.462848e-07 8.366209e-10))
25.839531     	((-3.244568e-04 -4.500242e-04 4.007047e-03) (-1.381244e-05 -1.908415e-05 8.575253e-04)) ((1.985275e-09 1.718506e-10 3.325691e-11) (-1.986052e-07 1.570574e-07 1.165613e-09))
26.183937     	((-3.501603e-04 -4.873869e-04 4.005673e-03) (-1.497512e-05 -2.075319e-05 8.565990e-04)) ((2.168729e-09 5.980185e-11 3.410044e-11) (-2.126331e-07 1.684895e-07 1.547165e-09))
26.528213     	((-3.783203e-04 -5.285515e-04 4.004765e-03) (-1.623878e-05 -2.257498e-05 8.557366e-04)) ((2.372926e-09 -6.726788e-11 3.801645e-11) (-2.274787e-07 1.802315e-07 2.060443e-09))
26.872387     	((-4.090817e-04 -5.736804e-04 4.004677e-03) (-1.761403e-05 -2.456309e-05 8.549424e-04)) ((2.600722e-09 -2.083592e-10 4.182938e-11) (-2.434381e-07 1.922053e-07 2.779298e-09))
27.216468     	((-4.425396e-04 -6.225730e-04 4.005373e-03) (-1.910269e-05 -2.671624e-05 8.542102e-04)) ((2.842241e-09 -3.635640e-10 4.322257e-11) (-2.613497e-07 2.050992e-07 3.548347e-09))
27.560461     	((-4.788545e-04 -6.758070e-04 4.007089e-03) (-2.072166e-05 -2.905510e-05 8.535462e-04)) ((3.110225e-09 -5.363987e-10 4.380706e-11) (-2.808620e-07 2.184995e-07 4.064225e-09))
27.904374     	((-5.183775e-04 -7.339766e-04 4.010319e-03) (-2.250286e-05 -3.162299e-05 8.529966e-04)) ((3.429428e-09 -7.470391e-10 4.863499e-11) (-3.003801e-07 2.310917e-07 4.511531e-09))
28.248214     	((-5.615804e-04 -7.971641e-04 4.015189e-03) (-2.447179e-05 -3.444546e-05 8.525785e-04)) ((3.783531e-09 -9.832660e-10 5.326581e-11) (-3.201323e-07 2.427284e-07 5.067517e-09))
28.59199      	((-6.085622e-04 -8.654599e-04 4.022493e-03) (-2.663228e-05 -3.752693e-05 8.522830e-04)) ((4.171449e-09 -1.244500e-09 5.570687e-11) (-3.418103e-07 2.543867e-07 5.470513e-09))
28.935714     	((-6.601039e-04 -9.393716e-04 4.031549e-03) (-2.899527e-05 -4.088585e-05 8.520775e-04)) ((4.581819e-09 -1.533722e-09 5.732927e-11) (-3.664178e-07 2.674778e-07 5.580159e-09))
29.279395     	((-7.163742e-04 -1.020335e-03 4.042684e-03) (-3.157914e-05 -4.455117e-05 8.519396e-04)) ((5.021514e-09 -1.864680e-09 6.655212e-11) (-3.945715e-07 2.827720e-07 5.466144e-09))
29.623047     	((-7.771379e-04 -1.108812e-03 4.056813e-03) (-3.439984e-05 -4.854706e-05 8.518871e-04)) ((5.495563e-09 -2.216653e-09 7.424223e-11) (-4.267189e-07 3.005655e-07 5.058150e-09))
29.966682     	((-8.432103e-04 -1.204817e-03 4.075930e-03) (-3.746043e-05 -5.288965e-05 8.519651e-04)) ((5.994450e-09 -2.590572e-09 8.678978e-11) (-4.631586e-07 3.218470e-07 4.463978e-09))
30.310311     	((-9.162739e-04 -1.310342e-03 4.098295e-03) (-4.079461e-05 -5.763422e-05 8.522235e-04)) ((6.554292e-09 -3.005727e-09 9.855951e-11) (-5.036601e-07 3.468784e-07 4.085865e-09))
30.653925     	((-9.946562e-04 -1.424224e-03 4.125816e-03) (-4.441473e-05 -6.281690e-05 8.526968e-04)) ((7.130684e-09 -3.414426e-09 1.070808e-10) (-5.485620e-07 3.761014e-07 4.098340e-09))
30.997501     	((-1.079136e-03 -1.546989e-03 4.159172e-03) (-4.831191e-05 -6.844431e-05 8.534577e-04)) ((7.680055e-09 -3.804687e-09 1.158336e-10) (-5.971780e-07 4.095378e-07 4.186466e-09))
31.341064     	((-1.170493e-03 -1.678670e-03 4.198028e-03) (-5.251204e-05 -7.456186e-05 8.546248e-04)) ((8.159942e-09 -4.139987e-09 1.191513e-10) (-6.465759e-07 4.453533e-07 4.035661e-09))
31.684588     	((-1.268827e-03 -1.820044e-03 4.244258e-03) (-5.706921e-05 -8.123247e-05 8.562775e-04)) ((8.615854e-09 -4.442149e-09 1.244982e-10) (-6.955877e-07 4.818005e-07 3.642328e-09))
32.028017     	((-1.373799e-03 -1.969571e-03 4.299255e-03) (-6.201524e-05 -8.845652e-05 8.583830e-04)) ((9.045077e-09 -4.718240e-09 1.222850e-10) (-7.474390e-07 5.206690e-07 3.071451e-09))
32.37138      	((-1.484227e-03 -2.126173e-03 4.361424e-03) (-6.733237e-05 -9.618679e-05 8.608462e-04)) ((9.454747e-09 -4.946431e-09 1.135182e-10) (-8.058150e-07 5.649653e-07 2.303561e-09))
32.714703     	((-1.600662e-03 -2.290969e-03 4.432206e-03) (-7.297735e-05 -1.044173e-04 8.636700e-04)) ((9.818448e-09 -5.090210e-09 9.503730e-11) (-8.695841e-07 6.155590e-07 8.237447e-10))
33.057932     	((-1.723106e-03 -2.465329e-03 4.514268e-03) (-7.897848e-05 -1.131585e-04 8.669870e-04)) ((1.016246e-08 -5.173876e-09 7.623665e-11) (-9.376802e-07 6.701761e-07 -5.581510e-10))
33.401107     	((-1.851379e-03 -2.648887e-03 4.607754e-03) (-8.539246e-05 -1.224222e-04 8.708611e-04)) ((1.044744e-08 -5.212631e-09 5.237786e-11) (-1.009811e-06 7.264637e-07 -1.260039e-09))
33.744231     	((-1.985474e-03 -2.840362e-03 4.715338e-03) (-9.224803e-05 -1.322486e-04 8.753637e-04)) ((1.061871e-08 -5.194509e-09 2.943832e-11) (-1.083048e-06 7.833463e-07 -8.091949e-10))
34.087321     	((-2.125796e-03 -3.038531e-03 4.840132e-03) (-9.957342e-05 -1.427073e-04 8.806451e-04)) ((1.063315e-08 -5.091859e-09 1.500860e-12) (-1.151440e-06 8.373272e-07 5.683441e-10))
34.43042      	((-2.268269e-03 -3.239066e-03 4.980530e-03) (-1.073581e-04 -1.538285e-04 8.868298e-04)) ((1.044861e-08 -4.889353e-09 -6.675744e-11) (-1.210143e-06 8.846468e-07 1.640610e-09))
34.773568     	((-2.411012e-03 -3.438816e-03 5.137094e-03) (-1.155478e-04 -1.655113e-04 8.939421e-04)) ((1.006101e-08 -4.547011e-09 -1.665828e-10) (-1.261987e-06 9.259203e-07 1.874593e-09))
35.116752     	((-2.554211e-03 -3.639749e-03 5.311974e-03) (-1.240484e-04 -1.775924e-04 9.020280e-04)) ((9.511488e-09 -4.049100e-09 -2.524572e-10) (-1.313061e-06 9.656338e-07 2.209388e-09))
35.459998     	((-2.696116e-03 -3.838612e-03 5.503606e-03) (-1.327612e-04 -1.899577e-04 9.112695e-04)) ((8.779946e-09 -3.401344e-09 -3.287824e-10) (-1.362288e-06 1.005015e-06 4.179566e-09))
35.803329     	((-2.833251e-03 -4.030429e-03 5.712386e-03) (-1.416303e-04 -2.025460e-04 9.217606e-04)) ((7.851901e-09 -2.637528e-09 -4.380020e-10) (-1.406227e-06 1.042239e-06 7.472087e-09))
