# Forces      
# CofR        : (0.000000e+00 0.000000e+00 0.000000e+00)
# Time        forces(pressure viscous)	moments(pressure viscous)
0             	((0.000000e+00 0.000000e+00 0.000000e+00) (0.000000e+00 0.000000e+00 0.000000e+00)) ((0.000000e+00 0.000000e+00 0.000000e+00) (0.000000e+00 0.000000e+00 0.000000e+00))
0.012         	((2.557979e-08 1.451181e-06 4.455080e-09) (1.200253e-09 3.791424e-08 -1.342715e-10)) ((-5.300458e-13 1.478992e-13 -3.404994e-08) (1.492377e-13 -2.946840e-12 -4.420674e-05))
0.0264        	((1.480445e-08 2.458372e-07 3.067980e-09) (2.689253e-09 5.423199e-08 -2.655182e-10)) ((-2.122516e-13 -3.402080e-12 -1.720614e-08) (-5.378645e-13 -8.246721e-12 -4.051222e-05))
0.04368       	((9.513469e-08 7.938668e-07 1.991556e-08) (3.918861e-09 5.763324e-08 -4.676949e-10)) ((-8.721265e-13 -4.902728e-12 -1.133158e-08) (-1.718095e-12 -1.640023e-11 -3.677703e-05))
0.064416      	((1.524708e-08 6.122643e-08 -5.357710e-09) (5.559496e-09 5.188263e-08 -7.878309e-10)) ((1.207068e-13 -5.400438e-12 -8.252393e-09) (-1.087607e-12 -2.662116e-11 -3.313497e-05))
0.0892992     	((1.800755e-07 4.467835e-07 6.897733e-09) (9.141767e-09 4.589541e-08 -1.153613e-09)) ((5.010021e-13 -6.806681e-12 -7.436894e-09) (4.376525e-12 -3.744217e-11 -2.973315e-05))
0.119159      	((-1.357154e-07 -7.737789e-09 -8.256290e-10) (1.440362e-08 3.823886e-08 -1.363663e-09)) ((2.483504e-12 -6.140167e-12 -6.345384e-09) (6.541905e-12 -4.269236e-11 -2.668436e-05))
0.154991      	((1.417433e-08 2.689583e-07 -1.834927e-09) (1.900847e-08 2.774682e-08 -1.379145e-09)) ((2.121616e-12 -6.578757e-12 -5.591036e-09) (6.687044e-13 -4.317030e-11 -2.403287e-05))
0.197989      	((-2.308212e-08 1.042027e-07 -5.031240e-09) (1.917030e-08 1.606016e-08 -1.215941e-09)) ((2.399081e-12 -5.399012e-12 -4.946100e-09) (-6.074109e-12 -4.178952e-11 -2.174522e-05))
0.249587      	((-5.944877e-08 1.527900e-07 -2.679985e-09) (2.134995e-08 7.016145e-09 -9.980524e-10)) ((1.716696e-12 -5.352297e-12 -4.403815e-09) (-4.803701e-12 -4.034986e-11 -1.970025e-05))
0.311504      	((-1.111006e-07 6.534477e-08 -1.590993e-09) (2.549438e-08 3.135069e-09 -1.087160e-09)) ((-8.103440e-13 -3.933842e-12 -3.856358e-09) (4.816079e-12 -3.044781e-11 -1.777192e-05))
0.385805      	((-6.094650e-08 1.544766e-07 -5.491054e-09) (2.661300e-08 9.152037e-09 -1.319153e-09)) ((-2.192849e-12 -3.970575e-12 -3.330158e-09) (4.354111e-12 -1.793415e-11 -1.593850e-05))
0.474966      	((-6.961640e-08 1.229699e-07 -9.438996e-09) (2.210209e-08 2.112330e-08 -1.055651e-09)) ((-2.591764e-12 -2.018540e-12 -2.872248e-09) (-6.493240e-12 -1.288538e-11 -1.424667e-05))
0.581959      	((-2.684689e-08 1.358147e-07 -1.539236e-08) (1.097559e-08 3.028658e-08 -7.747587e-10)) ((-1.153076e-12 -1.545701e-12 -2.439965e-09) (-4.289733e-12 -7.876227e-12 -1.273323e-05))
0.710351      	((-6.186640e-08 1.955906e-07 -1.225791e-08) (-7.637405e-09 3.506137e-08 -1.109089e-09)) ((-3.756566e-12 -3.411903e-12 -2.056646e-09) (7.765174e-12 -1.223932e-11 -1.140278e-05))
0.864421      	((-5.187916e-08 2.374865e-07 2.333072e-09) (-1.772194e-08 2.832293e-08 -1.286902e-09)) ((-6.033159e-12 -6.965762e-12 -1.737499e-09) (3.789817e-11 -2.180431e-11 -1.023765e-05))
1.049306      	((-8.958021e-08 1.801500e-07 1.110487e-08) (-1.923382e-08 1.416075e-08 -1.298610e-09)) ((-9.999365e-12 -8.399571e-12 -1.483151e-09) (4.398580e-11 -2.714903e-11 -9.214931e-06))
1.271167      	((-3.058800e-08 1.457076e-07 1.195200e-08) (-1.383515e-08 4.592955e-09 -4.890259e-10)) ((-1.351325e-11 -1.207575e-11 -1.290639e-09) (1.883173e-11 -7.553449e-12 -8.317930e-06))
1.5374        	((-2.959998e-08 2.068948e-07 8.061140e-09) (-1.299894e-08 8.428420e-09 -1.610601e-09)) ((-1.558337e-11 -1.315863e-11 -1.113351e-09) (1.394115e-11 1.778450e-11 -7.536768e-06))
1.85688       	((-4.209113e-08 2.015933e-07 7.046714e-09) (-1.313962e-08 1.593191e-08 -2.449170e-09)) ((-1.335938e-11 -1.032951e-11 -9.536079e-10) (4.755519e-11 3.022059e-11 -6.863109e-06))
2.240256      	((-6.860275e-08 2.289325e-07 6.292090e-09) (-2.481285e-08 1.742649e-08 -1.642512e-09)) ((-1.078119e-11 -4.399817e-12 -8.223292e-10) (9.451507e-11 7.193085e-11 -6.286115e-06))
2.700307      	((-5.802945e-08 1.319586e-07 6.839850e-09) (-4.576040e-08 1.595634e-08 -1.020054e-09)) ((-1.001002e-11 -5.156170e-12 -7.013945e-10) (1.178168e-10 1.625141e-10 -5.791772e-06))
3.252369      	((-4.861630e-09 8.770166e-08 1.561129e-08) (-4.061006e-08 2.329677e-08 -8.208606e-10)) ((-7.582718e-12 -4.240025e-12 -6.039680e-10) (1.420788e-10 2.573189e-10 -5.364497e-06))
3.914842      	((2.355908e-08 7.821883e-08 7.884327e-09) (-2.365654e-08 3.163684e-08 -2.571035e-09)) ((-2.987057e-12 -5.088320e-12 -5.222822e-10) (2.270056e-10 3.582577e-10 -4.989942e-06))
4.709811      	((5.386065e-08 4.606606e-08 8.428346e-09) (-1.371152e-08 4.064256e-08 -4.430305e-09)) ((-4.068057e-14 -4.533236e-12 -4.515881e-10) (3.161457e-10 4.262999e-10 -4.657870e-06))
5.663773      	((4.948694e-08 1.896419e-08 5.404027e-09) (-5.460204e-09 3.792693e-08 -4.887605e-09)) ((-1.806205e-12 -6.986648e-12 -3.984663e-10) (4.227093e-10 4.022693e-10 -4.361274e-06))
6.808528      	((7.647722e-08 3.021001e-08 1.156493e-09) (5.534973e-09 3.440657e-08 -5.015478e-09)) ((-3.203608e-12 -5.818697e-12 -3.649383e-10) (4.941767e-10 3.134016e-10 -4.094761e-06))
8.182233      	((5.438227e-08 4.692537e-08 -1.640233e-08) (1.019353e-08 5.161122e-08 -4.346546e-09)) ((-3.158100e-12 -8.129832e-12 -3.423427e-10) (5.000828e-10 2.027873e-10 -3.854705e-06))
9.830319      	((3.197442e-08 6.326002e-08 -1.586387e-08) (-1.462315e-08 5.283011e-08 -4.462389e-09)) ((-1.958869e-12 -8.200156e-12 -3.239868e-10) (5.028494e-10 9.885788e-11 -3.639346e-06))
11.75842      	((-2.322124e-08 3.919886e-08 -1.767510e-08) (-3.007422e-08 4.455887e-08 -1.956034e-09)) ((-1.557803e-12 -8.812816e-12 -3.101318e-10) (5.258077e-10 -9.486171e-12 -3.452046e-06))
13.972859     	((-1.482069e-08 3.975712e-08 -1.008778e-08) (-3.791570e-08 3.498124e-08 -1.920649e-09)) ((-2.437262e-12 -8.811877e-12 -3.048319e-10) (4.751044e-10 -1.344529e-10 -3.293930e-06))
16.480837     	((-8.529662e-09 2.062116e-08 -1.496840e-08) (-2.897814e-08 3.124625e-08 -9.691586e-10)) ((-2.461282e-12 -1.006975e-11 -2.982308e-10) (3.966438e-10 -2.636465e-10 -3.164983e-06))
19.290544     	((9.149250e-09 2.181172e-08 -9.275966e-09) (-9.226269e-09 2.763492e-08 5.485728e-10)) ((-5.259303e-12 -1.020982e-11 -2.900844e-10) (3.105675e-10 -3.741733e-10 -3.063719e-06))
22.392309     	((-6.104370e-09 2.866579e-08 -1.042736e-08) (2.000717e-10 2.913692e-08 1.259874e-09)) ((-6.856864e-12 -1.026093e-11 -2.854326e-10) (2.117862e-10 -4.390150e-10 -2.988427e-06))
25.58954      	((-6.896875e-09 3.577283e-08 -5.910634e-09) (-2.506341e-09 2.597179e-08 2.276789e-10)) ((-6.178012e-12 -9.076683e-12 -2.833867e-10) (1.270344e-10 -4.502690e-10 -2.938801e-06))
28.81283      	((-1.726198e-09 2.969639e-08 -2.051029e-09) (-9.567405e-09 1.587038e-08 7.075902e-10)) ((-4.620943e-12 -9.763680e-12 -2.787221e-10) (7.639578e-11 -4.137293e-10 -2.912074e-06))
32.035816     	((2.877506e-08 5.945222e-08 -2.025917e-09) (-1.179214e-08 1.579288e-08 2.778506e-09)) ((-2.241690e-12 -1.058205e-11 -2.723373e-10) (7.950993e-11 -3.300988e-10 -2.906233e-06))
35.249212     	((3.519323e-08 6.435684e-08 -4.180940e-09) (-2.562343e-09 1.584275e-08 4.224684e-09)) ((-1.530604e-12 -1.018163e-11 -2.668480e-10) (1.369835e-10 -2.321422e-10 -2.919028e-06))
38.428411     	((6.103812e-08 6.213819e-08 -3.801679e-09) (-1.883087e-08 2.197644e-09 3.574419e-09)) ((-9.486473e-13 -9.553560e-12 -2.640405e-10) (2.163343e-10 -1.927255e-10 -2.948544e-06))
41.561144     	((5.277757e-08 5.129753e-08 -6.419405e-09) (-1.803385e-08 -1.208977e-09 2.924817e-09)) ((-1.085665e-12 -8.931956e-12 -2.618212e-10) (2.722160e-10 -2.410185e-10 -2.993073e-06))
44.640611     	((4.453811e-08 4.678909e-08 -8.412968e-09) (-3.024975e-09 -2.502834e-09 2.474586e-09)) ((-9.568702e-13 -8.369484e-12 -2.620807e-10) (2.976919e-10 -3.176214e-10 -3.050745e-06))
47.664411     	((2.406621e-08 3.295403e-08 -3.301499e-09) (7.388836e-09 -8.003526e-09 2.194890e-09)) ((-1.007985e-12 -7.785994e-12 -2.644865e-10) (2.885370e-10 -4.056100e-10 -3.118427e-06))
50.635174     	((1.629020e-09 3.657678e-08 -7.760353e-09) (1.196509e-08 -1.132468e-08 2.210106e-09)) ((-1.430641e-12 -7.479469e-12 -2.691994e-10) (2.309215e-10 -4.786840e-10 -3.191503e-06))
53.558965     	((-4.233318e-08 2.822941e-08 -1.307757e-08) (8.258831e-09 -1.011491e-08 2.785800e-09)) ((-1.629829e-12 -7.967841e-12 -2.760806e-10) (1.430043e-10 -5.244017e-10 -3.264401e-06))
56.441164     	((-8.337543e-08 2.644054e-08 -4.676212e-09) (-3.354189e-09 -1.621170e-08 4.157014e-09)) ((-2.877344e-13 -7.987612e-12 -2.849642e-10) (3.959009e-11 -5.247211e-10 -3.331111e-06))
59.286592     	((-9.676301e-08 1.540510e-08 -5.624018e-10) (-3.712915e-09 -2.870950e-08 6.296567e-09)) ((8.322008e-13 -8.699703e-12 -2.935725e-10) (-4.155752e-11 -4.773229e-10 -3.386326e-06))
62.103003     	((-8.910416e-08 1.302059e-08 1.145772e-08) (-4.789410e-09 -2.716158e-08 7.466786e-09)) ((8.737435e-13 -9.635181e-12 -2.991032e-10) (-7.317663e-11 -3.996387e-10 -3.426568e-06))
64.870478     	((-6.692136e-08 2.175069e-08 6.678446e-09) (1.612358e-08 -1.484102e-08 6.955461e-09)) ((1.355953e-12 -1.174257e-11 -3.010714e-10) (-7.930643e-11 -2.921751e-10 -3.450728e-06))
67.588706     	((-4.529270e-08 1.805895e-08 1.136044e-08) (2.368271e-08 2.260728e-09 7.212006e-09)) ((5.709947e-13 -1.275995e-11 -2.997907e-10) (-6.042075e-11 -1.818596e-10 -3.460511e-06))
70.272778     	((-3.953195e-08 5.869268e-09 1.225673e-08) (2.611400e-08 5.829844e-09 6.294245e-09)) ((-1.459698e-13 -1.293287e-11 -2.968454e-10) (-5.345899e-11 -1.298407e-10 -3.458854e-06))
72.931415     	((-2.161874e-08 7.746375e-10 9.016538e-09) (2.737909e-08 1.285837e-08 5.794801e-09)) ((-1.832921e-12 -1.243458e-11 -2.937920e-10) (-1.263041e-11 -1.015718e-10 -3.449334e-06))
75.573745     	((1.364074e-08 2.809436e-08 1.520123e-08) (2.697989e-08 2.153139e-08 5.117471e-09)) ((-3.521329e-12 -1.186140e-11 -2.903849e-10) (7.162921e-11 -8.224005e-11 -3.434483e-06))
