# Forces      
# CofR        : (0.000000e+00 0.000000e+00 0.000000e+00)
# Time        forces(pressure viscous)	moments(pressure viscous)
0             	((0.000000e+00 0.000000e+00 0.000000e+00) (4.474667e-16 7.982845e-06 -1.015707e-15)) ((0.000000e+00 0.000000e+00 0.000000e+00) (2.218815e-16 -2.104944e-18 -2.870398e-12))
0.012         	((-1.234375e-10 2.321527e-03 -4.627450e-10) (-5.818245e-12 9.162138e-06 -6.990627e-12)) ((9.361048e-13 -2.668565e-15 -4.387517e-10) (3.274085e-14 1.238789e-15 -5.998778e-12))
0.0264        	((-9.481499e-09 -1.591068e-04 3.030498e-09) (-1.663135e-11 9.350160e-06 -4.557041e-12)) ((-2.174791e-12 -1.224808e-13 2.944046e-11) (-6.486386e-14 -1.559308e-14 -8.146309e-12))
0.04368       	((2.770265e-08 -4.865079e-04 -1.855055e-08) (1.088946e-11 8.310909e-06 -1.059145e-11)) ((-9.634159e-13 1.982896e-13 1.162190e-10) (-3.331938e-13 -2.248308e-14 -7.038934e-12))
0.064416      	((-4.432468e-09 -4.608401e-06 7.894044e-09) (1.327554e-10 7.361794e-06 1.021785e-10)) ((7.585033e-13 1.908598e-13 -4.794476e-12) (6.607014e-13 -2.566977e-14 -8.862829e-12))
0.0892992     	((-4.892960e-09 6.535726e-06 6.131137e-09) (1.698470e-10 6.796993e-06 1.790737e-10)) ((2.076629e-13 -4.120383e-13 -6.534173e-12) (1.331456e-12 -4.210966e-14 -9.813110e-12))
0.119159      	((2.335733e-09 -7.235205e-06 7.067226e-09) (1.366029e-10 6.276556e-06 1.684937e-10)) ((6.819182e-13 6.173928e-14 1.596877e-12) (-2.869778e-13 -2.497011e-14 -8.796065e-12))
0.154991      	((-6.298577e-11 -3.917756e-06 -7.875447e-10) (1.079279e-10 5.724233e-06 1.568714e-10)) ((3.683366e-13 8.227437e-14 4.889566e-13) (-1.847293e-12 -1.165277e-13 -6.790187e-12))
0.197989      	((4.872495e-10 -9.502019e-07 -1.847139e-09) (4.971514e-11 5.166152e-06 1.005701e-10)) ((4.747680e-13 -3.309620e-14 9.282660e-14) (-2.047709e-12 -4.449820e-13 -1.939499e-12))
0.249587      	((7.235297e-10 1.247143e-07 -5.936769e-10) (6.781587e-12 4.618152e-06 4.766535e-11)) ((3.602402e-13 -1.070722e-14 -4.701187e-13) (-1.631383e-12 -6.095002e-13 4.686038e-13))
0.311504      	((7.277680e-10 6.169208e-07 -2.059113e-10) (-8.603012e-12 4.096547e-06 1.720608e-11)) ((2.258734e-13 -9.550853e-15 -6.330649e-13) (-1.171876e-12 -4.895210e-13 8.694031e-13))
0.385805      	((6.573706e-11 8.515400e-07 -1.721348e-10) (-1.091023e-11 3.614450e-06 -1.892152e-14)) ((1.604991e-13 -5.113928e-15 -5.387421e-13) (-7.138897e-13 -3.981213e-13 1.473187e-12))
0.474966      	((-1.092063e-10 9.616380e-07 -1.676221e-10) (-1.166439e-11 3.181759e-06 -8.997769e-12)) ((9.964053e-14 -5.236426e-15 -4.409654e-13) (-4.051033e-13 -3.726223e-13 1.105655e-12))
0.581959      	((-2.052666e-10 1.005631e-06 -1.449529e-10) (-1.642639e-11 2.803031e-06 -1.353520e-11)) ((6.184446e-14 -3.445036e-15 -3.794445e-13) (-2.258584e-13 -2.975547e-13 -6.983730e-13))
0.710351      	((-1.675162e-10 1.001508e-06 -1.352140e-10) (-5.987043e-12 2.478677e-06 -1.339284e-11)) ((3.391612e-14 -2.398600e-15 -3.059024e-13) (-2.213440e-13 -2.214126e-13 -2.764748e-12))
0.864421      	((-1.385494e-10 9.652081e-07 -1.081855e-10) (1.390040e-11 2.204587e-06 -1.391507e-11)) ((1.852905e-14 -3.720054e-15 -3.089850e-13) (-8.554095e-14 -1.362028e-13 -2.984996e-12))
1.049306      	((-9.307962e-11 9.119465e-07 -8.999256e-11) (3.047517e-11 1.973698e-06 -1.311126e-11)) ((7.683589e-15 -2.054521e-15 -3.005459e-13) (-5.170439e-14 -6.733748e-14 -1.355365e-12))
1.271167      	((-4.561979e-11 8.530312e-07 -6.575774e-11) (3.020170e-11 1.778673e-06 -1.069357e-11)) ((1.631133e-15 -2.008664e-15 -2.776277e-13) (-1.111139e-13 -5.435133e-14 5.218589e-13))
1.5374        	((-3.346700e-11 7.929724e-07 -5.483887e-11) (1.911768e-11 1.611703e-06 -8.312113e-12)) ((-1.698163e-15 -1.471648e-15 -2.727717e-13) (-1.039958e-13 -4.229961e-14 1.855349e-12))
1.85688       	((-2.372868e-11 7.344341e-07 -5.073774e-11) (9.201112e-12 1.465652e-06 -7.384138e-12)) ((-1.863473e-15 -8.596426e-16 -2.736406e-13) (-2.797128e-15 -3.295077e-14 2.561518e-12))
2.240256      	((-1.033312e-11 6.788854e-07 -5.075064e-11) (1.088749e-11 1.335820e-06 -9.118072e-12)) ((-5.599595e-16 -5.437852e-16 -2.733980e-13) (3.332752e-14 -3.077957e-14 2.500232e-12))
2.700307      	((-2.292279e-11 6.270106e-07 -4.742720e-11) (1.894176e-11 1.219317e-06 -1.131297e-11)) ((1.943156e-16 -4.577730e-16 -2.699261e-13) (-5.588207e-14 -2.536295e-14 1.339285e-12))
3.252369      	((-2.052858e-11 5.786043e-07 -4.033695e-11) (2.239094e-11 1.114258e-06 -1.119225e-11)) ((6.365791e-16 -6.475695e-16 -2.487421e-13) (-2.084004e-13 -1.648636e-14 -4.938441e-13))
3.914842      	((-1.342737e-11 5.330929e-07 -3.537161e-11) (1.915126e-11 1.019300e-06 -9.949991e-12)) ((1.138142e-15 -1.039979e-15 -2.257039e-13) (-3.428664e-13 -9.565314e-15 -2.279086e-12))
4.709811      	((7.308539e-12 4.908931e-07 -3.340056e-11) (1.720113e-11 9.334594e-07 -8.979243e-12)) ((1.716218e-15 -1.808842e-15 -2.036128e-13) (-4.054976e-13 -7.881865e-15 -3.878667e-12))
5.663773      	((2.994782e-11 4.520763e-07 -2.751065e-11) (1.729389e-11 8.559944e-07 -7.771509e-12)) ((2.597757e-15 -2.651677e-15 -1.846730e-13) (-4.249485e-13 -8.672119e-15 -5.109721e-12))
6.808528      	((3.945416e-11 4.164743e-07 -2.208566e-11) (1.766198e-11 7.862993e-07 -6.172302e-12)) ((3.038134e-15 -2.660811e-15 -1.628990e-13) (-4.547379e-13 -4.174230e-15 -5.838413e-12))
8.182233      	((2.601261e-11 3.838745e-07 -2.801479e-11) (1.716353e-11 7.237237e-07 -4.959909e-12)) ((2.943153e-15 -2.759256e-15 -1.410564e-13) (-5.577520e-13 4.469788e-15 -5.970665e-12))
9.83068       	((1.387554e-11 3.542626e-07 -3.280220e-11) (1.072712e-11 6.675053e-07 -4.846834e-12)) ((3.410680e-15 -2.876090e-15 -1.218659e-13) (-7.613995e-13 1.283137e-14 -5.507020e-12))
11.808816     	((-8.027270e-12 3.271546e-07 -4.360842e-11) (1.852041e-12 6.168252e-07 -5.826514e-12)) ((3.735430e-15 -2.908582e-15 -1.050640e-13) (-1.132166e-12 1.845087e-14 -4.750743e-12))
14.182579     	((-3.271486e-11 3.023762e-07 -5.282209e-11) (-5.243264e-12 5.709252e-07 -7.134245e-12)) ((4.387905e-15 -2.753007e-15 -9.060212e-14) (-1.681767e-12 2.081593e-14 -3.721176e-12))
17.031095     	((-2.414881e-11 2.797732e-07 -3.967548e-11) (-9.395175e-12 5.291861e-07 -8.385307e-12)) ((4.426138e-15 -2.769680e-15 -7.823679e-14) (-2.381166e-12 2.942026e-14 -2.662239e-12))
20.449314     	((-3.127395e-11 2.591775e-07 -4.986366e-11) (-1.096556e-11 4.911291e-07 -1.016776e-11)) ((5.221649e-15 -2.539181e-15 -6.832321e-14) (-3.151810e-12 3.576892e-14 -1.705958e-12))
24.551176     	((-2.494334e-11 2.403129e-07 -4.565979e-11) (-1.207475e-11 4.563986e-07 -1.154764e-11)) ((5.800334e-15 -2.304071e-15 -6.001097e-14) (-3.886622e-12 4.797962e-14 -7.405447e-13))
29.473411     	((-1.215269e-11 2.230817e-07 -3.235447e-11) (-1.077713e-11 4.247338e-07 -1.093643e-11)) ((5.296047e-15 -1.960569e-15 -5.298245e-14) (-4.514154e-12 5.059635e-14 1.802215e-13))
35.380094     	((-7.626175e-12 2.073275e-07 -2.560129e-11) (-7.953547e-12 3.959181e-07 -9.487240e-12)) ((4.538185e-15 -1.606160e-15 -4.730466e-14) (-5.132032e-12 4.039993e-14 1.106294e-12))
42.468112     	((7.322129e-12 1.930241e-07 -9.756034e-12) (-3.502706e-12 3.697390e-07 -7.156385e-12)) ((4.161974e-15 -1.514177e-15 -4.280678e-14) (-5.797205e-12 2.902008e-14 2.079407e-12))
50.973735     	((2.527041e-11 1.800261e-07 8.858621e-12) (1.930514e-12 3.459803e-07 -4.002400e-12)) ((4.210514e-15 -1.515047e-15 -3.902694e-14) (-6.512356e-12 2.911338e-14 3.121205e-12))
61.180482     	((3.848560e-11 1.682649e-07 2.259766e-11) (5.839757e-12 3.244254e-07 -9.117568e-13)) ((4.062683e-15 -1.252316e-15 -3.581960e-14) (-7.345101e-12 3.755769e-14 4.289433e-12))
73.428578     	((5.564678e-11 1.576711e-07 3.688148e-11) (9.222105e-12 3.048618e-07 2.043450e-12)) ((3.506118e-15 -1.071247e-15 -3.319864e-14) (-8.350505e-12 4.190943e-14 5.580477e-12))
88.126294     	((6.627580e-11 1.481276e-07 4.406470e-11) (1.118426e-11 2.870839e-07 3.580998e-12)) ((2.836877e-15 -1.065293e-15 -3.106932e-14) (-9.504784e-12 4.382483e-14 6.964433e-12))
105.763553    	((7.208790e-11 1.395529e-07 4.691217e-11) (1.149731e-11 2.709103e-07 3.374611e-12)) ((2.238452e-15 -9.522967e-16 -2.915467e-14) (-1.073771e-11 3.965623e-14 8.361123e-12))
126.928263    	((7.643722e-11 1.319418e-07 4.804078e-11) (1.026655e-11 2.561939e-07 2.338069e-12)) ((1.624048e-15 -8.721342e-16 -2.756075e-14) (-1.197158e-11 3.347925e-14 9.722164e-12))
152.325916    	((7.902471e-11 1.251691e-07 4.838116e-11) (8.572724e-12 2.428095e-07 8.321678e-13)) ((1.087676e-15 -7.417824e-16 -2.624506e-14) (-1.312048e-11 2.608845e-14 1.098700e-11))
182.803099    	((8.267542e-11 1.191334e-07 5.064468e-11) (6.400836e-12 2.306466e-07 -5.948282e-13)) ((4.983330e-16 -6.700963e-16 -2.527150e-14) (-1.411435e-11 1.896800e-14 1.209034e-11))
219.375719    	((8.878683e-11 1.137662e-07 5.596890e-11) (4.980426e-12 2.196115e-07 -1.965332e-12)) ((-1.239496e-16 -5.518502e-16 -2.455564e-14) (-1.492474e-11 1.551257e-14 1.298108e-11))
263.262863    	((8.896583e-11 1.090363e-07 5.691919e-11) (4.290055e-12 2.096201e-07 -2.883662e-12)) ((-5.112895e-16 -4.616255e-16 -2.404854e-14) (-1.552325e-11 1.079616e-14 1.364923e-11))
315.927436    	((8.623625e-11 1.049397e-07 5.525984e-11) (3.107206e-12 2.005996e-07 -3.812655e-12)) ((-7.688724e-16 -3.844239e-16 -2.378500e-14) (-1.590691e-11 7.635005e-15 1.410169e-11))
379.124923    	((8.577656e-11 1.014440e-07 5.597781e-11) (2.300862e-12 1.924892e-07 -4.686493e-12)) ((-9.070990e-16 -3.564422e-16 -2.371986e-14) (-1.609004e-11 6.938590e-15 1.434196e-11))
454.961908    	((8.126882e-11 9.848988e-08 5.429013e-11) (1.097129e-12 1.852328e-07 -5.171010e-12)) ((-9.975847e-16 -3.343626e-16 -2.387924e-14) (-1.608820e-11 3.942200e-15 1.439846e-11))
545.966289    	((7.465054e-11 9.602744e-08 5.141571e-11) (5.983991e-13 1.787776e-07 -5.484989e-12)) ((-9.903847e-16 -2.809797e-16 -2.421944e-14) (-1.592108e-11 -1.775680e-16 1.429339e-11))
655.171547    	((6.980717e-11 9.400151e-08 4.880301e-11) (7.621083e-13 1.730749e-07 -5.333831e-12)) ((-9.541467e-16 -2.246080e-16 -2.462861e-14) (-1.559838e-11 -6.449434e-15 1.403950e-11))
786.217856    	((6.650191e-11 9.235978e-08 4.718434e-11) (1.644005e-12 1.680772e-07 -4.550467e-12)) ((-8.867345e-16 -1.941782e-16 -2.506205e-14) (-1.515100e-11 -1.206794e-14 1.364134e-11))
943.473427    	((6.599950e-11 9.104547e-08 4.647599e-11) (3.394352e-12 1.637358e-07 -3.507165e-12)) ((-8.095936e-16 -1.911402e-16 -2.548516e-14) (-1.459199e-11 -1.075409e-14 1.310808e-11))
1132.180113   	((6.677659e-11 9.000431e-08 4.673774e-11) (5.812952e-12 1.599992e-07 -1.967023e-12)) ((-7.236345e-16 -1.938547e-16 -2.585505e-14) (-1.392754e-11 -6.007987e-15 1.247053e-11))
1358.628135   	((6.719099e-11 8.917892e-08 4.674624e-11) (8.794788e-12 1.568120e-07 1.269165e-13)) ((-5.939785e-16 -1.947042e-16 -2.616143e-14) (-1.316478e-11 -2.175089e-16 1.173698e-11))
1630.365763   	((6.634815e-11 8.852195e-08 4.791542e-11) (1.200979e-11 1.541161e-07 2.580603e-12)) ((-3.953652e-16 -1.878132e-16 -2.644054e-14) (-1.232903e-11 4.464965e-15 1.092627e-11))
1955.299099   	((6.475686e-11 8.799558e-08 4.740427e-11) (1.553407e-11 1.518530e-07 5.198606e-12)) ((-2.275700e-16 -1.355984e-16 -2.662412e-14) (-1.144393e-11 7.283852e-15 1.007098e-11))
2333.564609   	((6.332082e-11 8.757449e-08 4.659493e-11) (1.906193e-11 1.499687e-07 7.974943e-12)) ((-9.717407e-17 -1.269059e-16 -2.671204e-14) (-1.053346e-11 7.753602e-15 9.191111e-12))
2765.272169   	((6.192059e-11 8.723515e-08 4.548091e-11) (2.222802e-11 1.484087e-07 1.081519e-11)) ((3.053360e-17 -1.228037e-16 -2.677872e-14) (-9.625142e-12 9.153774e-15 8.312358e-12))
3250.511759   	((5.992764e-11 8.696228e-08 4.378220e-11) (2.510385e-11 1.471245e-07 1.345819e-11)) ((1.493013e-16 -1.527277e-16 -2.680786e-14) (-8.744203e-12 9.927540e-15 7.450833e-12))
3786.574787   	((5.733115e-11 8.674147e-08 4.173677e-11) (2.757014e-11 1.460708e-07 1.588989e-11)) ((2.868029e-16 -1.651563e-16 -2.681709e-14) (-7.905034e-12 9.485057e-15 6.620154e-12))
4323.254573   	((5.458647e-11 8.656821e-08 3.920247e-11) (2.968362e-11 1.452121e-07 1.795091e-11)) ((4.269291e-16 -1.568327e-16 -2.684114e-14) (-7.121513e-12 9.203054e-15 5.837440e-12))
4860.442926   	((5.170328e-11 8.642522e-08 3.661849e-11) (3.135899e-11 1.445115e-07 1.961070e-11)) ((5.444674e-16 -1.486502e-16 -2.687692e-14) (-6.400985e-12 8.699061e-15 5.117026e-12))
5398.052658   	((4.883751e-11 8.630897e-08 3.400704e-11) (3.264631e-11 1.439418e-07 2.089819e-11)) ((6.434077e-16 -1.532523e-16 -2.689991e-14) (-5.747401e-12 7.794194e-15 4.465486e-12))
5936.009214   	((4.619015e-11 8.621210e-08 3.154456e-11) (3.360355e-11 1.434775e-07 2.181989e-11)) ((7.362367e-16 -1.661987e-16 -2.691296e-14) (-5.160669e-12 7.148263e-15 3.883654e-12))
6474.251569   	((4.365308e-11 8.613249e-08 2.920504e-11) (3.429919e-11 1.430997e-07 2.243427e-11)) ((8.171468e-16 -1.742325e-16 -2.691847e-14) (-4.639988e-12 6.601021e-15 3.368173e-12))
7012.728871   	((4.132605e-11 8.606633e-08 2.698416e-11) (3.474287e-11 1.427914e-07 2.281143e-11)) ((8.804415e-16 -1.817222e-16 -2.692263e-14) (-4.181471e-12 6.171946e-15 2.914538e-12))
7551.39991    	((3.919525e-11 8.601169e-08 2.505536e-11) (3.497695e-11 1.425398e-07 2.299482e-11)) ((9.355735e-16 -1.858904e-16 -2.692558e-14) (-3.780629e-12 5.822095e-15 2.517718e-12))
8090.230428   	((3.726063e-11 8.596615e-08 2.325924e-11) (3.503382e-11 1.423340e-07 2.302739e-11)) ((9.846244e-16 -1.883330e-16 -2.692847e-14) (-3.431907e-12 5.612386e-15 2.172321e-12))
8629.19248    	((3.554351e-11 8.592870e-08 2.167874e-11) (3.495558e-11 1.421655e-07 2.293757e-11)) ((1.028352e-15 -1.911939e-16 -2.693101e-14) (-3.130006e-12 5.409368e-15 1.873360e-12))
9168.262913   	((3.403481e-11 8.589754e-08 2.027422e-11) (3.477889e-11 1.420274e-07 2.275471e-11)) ((1.066271e-15 -1.930833e-16 -2.693435e-14) (-2.869898e-12 5.131251e-15 1.615941e-12))
9707.422804   	((3.273968e-11 8.587184e-08 1.902446e-11) (3.453485e-11 1.419139e-07 2.250809e-11)) ((1.098563e-15 -1.946682e-16 -2.693746e-14) (-2.646493e-12 4.880162e-15 1.395108e-12))
10246.656526  	((3.161127e-11 8.585020e-08 1.794615e-11) (3.424791e-11 1.418206e-07 2.222175e-11)) ((1.126986e-15 -1.963289e-16 -2.694049e-14) (-2.455220e-12 4.665688e-15 1.206326e-12))
10785.951284  	((3.066794e-11 8.583242e-08 1.704063e-11) (3.393914e-11 1.417438e-07 2.191366e-11)) ((1.150967e-15 -1.977280e-16 -2.694296e-14) (-2.292087e-12 4.477919e-15 1.045529e-12))
11325.296467  	((2.984701e-11 8.581760e-08 1.624054e-11) (3.362266e-11 1.416805e-07 2.159691e-11)) ((1.171445e-15 -1.985997e-16 -2.694478e-14) (-2.153307e-12 4.286989e-15 9.088490e-13))
11864.683372  	((2.914531e-11 8.580533e-08 1.552088e-11) (3.330955e-11 1.416282e-07 2.128211e-11)) ((1.189243e-15 -1.989212e-16 -2.694616e-14) (-2.035639e-12 4.087312e-15 7.929924e-13))
12404.104811  	((2.856093e-11 8.579513e-08 1.494704e-11) (3.300753e-11 1.415850e-07 2.097808e-11)) ((1.204363e-15 -1.991862e-16 -2.694739e-14) (-1.936161e-12 3.893521e-15 6.950598e-13))
12943.554863  	((2.805444e-11 8.578631e-08 1.441388e-11) (3.272237e-11 1.415493e-07 2.069032e-11)) ((1.217093e-15 -1.995971e-16 -2.694831e-14) (-1.852221e-12 3.723926e-15 6.124906e-13))
13483.028636  	((2.763081e-11 8.577915e-08 1.397706e-11) (3.245804e-11 1.415197e-07 2.042338e-11)) ((1.227911e-15 -1.999937e-16 -2.694937e-14) (-1.781549e-12 3.583522e-15 5.429879e-13))
14022.52209   	((2.727347e-11 8.577318e-08 1.361389e-11) (3.221668e-11 1.414952e-07 2.017942e-11)) ((1.236866e-15 -2.002086e-16 -2.695013e-14) (-1.722147e-12 3.468168e-15 4.845955e-13))
14562.031887  	((2.697641e-11 8.576832e-08 1.331399e-11) (3.199872e-11 1.414748e-07 1.995938e-11)) ((1.244518e-15 -2.005273e-16 -2.695079e-14) (-1.672303e-12 3.374983e-15 4.356311e-13))
15101.555272  	((2.672184e-11 8.576413e-08 1.308284e-11) (3.180380e-11 1.414579e-07 1.976267e-11)) ((1.250866e-15 -2.007320e-16 -2.695109e-14) (-1.630568e-12 3.304497e-15 3.946396e-13))
15641.08996   	((2.651307e-11 8.576067e-08 1.287009e-11) (3.163154e-11 1.414438e-07 1.958802e-11)) ((1.256427e-15 -2.008973e-16 -2.695153e-14) (-1.595663e-12 3.244741e-15 3.603931e-13))
16180.634057  	((2.634299e-11 8.575753e-08 1.264409e-11) (3.148062e-11 1.414321e-07 1.943400e-11)) ((1.260635e-15 -2.011640e-16 -2.695205e-14) (-1.566506e-12 3.200463e-15 3.318140e-13))
16720.185982  	((2.620196e-11 8.575502e-08 1.247673e-11) (3.134919e-11 1.414224e-07 1.930046e-11)) ((1.264269e-15 -2.013842e-16 -2.695242e-14) (-1.542199e-12 3.165903e-15 3.079957e-13))
17259.744428  	((2.608560e-11 8.575300e-08 1.235484e-11) (3.123563e-11 1.414142e-07 1.918546e-11)) ((1.267355e-15 -2.014080e-16 -2.695287e-14) (-1.521958e-12 3.139890e-15 2.881798e-13))
17799.308317  	((2.599122e-11 8.575140e-08 1.228420e-11) (3.113798e-11 1.414075e-07 1.908708e-11)) ((1.270142e-15 -2.013581e-16 -2.695327e-14) (-1.505121e-12 3.121851e-15 2.717153e-13))
