# Forces      
# CofR        : (0.000000e+00 0.000000e+00 0.000000e+00)
# Time        forces(pressure viscous)	moments(pressure viscous)
0             	((0.000000e+00 0.000000e+00 0.000000e+00) (3.178037e-05 -4.506477e-15 2.313193e-15)) ((0.000000e+00 0.000000e+00 0.000000e+00) (-6.287250e-17 -4.672494e-16 6.748459e-16))
0.012         	((9.242237e-03 -5.541171e-09 -4.259178e-09) (3.647271e-05 -3.297758e-11 -2.122726e-11)) ((-2.949169e-14 -3.915197e-12 -1.325246e-12) (4.251004e-15 3.036959e-13 5.233438e-13))
0.0264        	((-6.386691e-04 -5.339379e-08 -1.878153e-07) (3.721553e-05 -9.188427e-11 -1.668695e-10)) ((2.115659e-12 8.369199e-12 2.073154e-12) (-1.165096e-14 8.495867e-13 8.577257e-13))
0.04368       	((-1.933897e-03 -1.975953e-09 1.128538e-07) (3.307395e-05 -1.259768e-10 -1.519091e-10)) ((-1.307282e-12 4.029859e-12 6.792749e-12) (9.575178e-14 2.206586e-12 4.173143e-13))
0.064416      	((-1.838517e-05 5.241394e-09 -4.627498e-08) (2.929514e-05 5.149394e-10 5.731165e-10)) ((-6.168898e-14 -3.652408e-12 -2.459616e-12) (2.281226e-13 -1.135223e-12 4.478151e-12))
0.0892992     	((2.542973e-05 -1.565643e-08 3.869828e-08) (2.704644e-05 7.964906e-10 9.823397e-10)) ((1.526828e-12 -9.079021e-13 -1.404342e-12) (-3.746675e-13 -1.519023e-12 6.177176e-12))
0.119159      	((-2.896621e-05 2.314106e-08 1.271146e-08) (2.497501e-05 5.872861e-10 8.793263e-10)) ((-9.465300e-13 -2.015684e-12 -4.804003e-13) (-4.276635e-13 5.272738e-12 8.661164e-13))
0.154991      	((-1.558840e-05 -5.298646e-09 -5.036325e-10) (2.277868e-05 4.503502e-10 7.517163e-10)) ((1.272247e-13 -1.041069e-12 4.241218e-13) (-8.330947e-13 8.711275e-12 -1.592045e-12))
0.197989      	((-3.782292e-06 -5.727576e-10 2.501286e-09) (2.056243e-05 1.905702e-10 5.044911e-10)) ((-8.556916e-14 -1.605418e-12 5.102960e-13) (-1.454344e-12 5.895479e-12 -4.240088e-15))
0.249587      	((5.108724e-07 2.559969e-09 3.418751e-09) (1.838858e-05 1.928081e-11 3.055287e-10)) ((-2.119464e-13 -1.048005e-12 1.471742e-13) (-1.337684e-12 2.754805e-12 2.238456e-12))
0.311504      	((2.475955e-06 1.751722e-09 1.021618e-09) (1.632280e-05 -7.613178e-11 1.813070e-10)) ((-6.468218e-14 -7.730186e-13 6.865316e-14) (-9.380536e-13 -4.286885e-14 3.624639e-12))
0.385805      	((3.415850e-06 2.257549e-10 -2.311995e-11) (1.441776e-05 -1.318342e-10 9.924669e-11)) ((-2.373402e-14 -5.318618e-13 5.800460e-14) (-4.930615e-13 -3.268314e-12 4.842354e-12))
0.474966      	((3.863020e-06 -2.169569e-10 -6.788332e-11) (1.271056e-05 -1.458910e-10 4.583750e-11)) ((-1.466637e-14 -3.602732e-13 4.002144e-14) (-2.393362e-13 -4.558105e-12 5.273208e-12))
0.581959      	((4.045450e-06 -3.084244e-10 -1.399756e-10) (1.121556e-05 -1.590387e-10 -4.709926e-12)) ((-1.300491e-14 -2.543080e-13 2.358928e-14) (-3.342574e-14 -4.164963e-12 5.828216e-12))
0.710351      	((4.031379e-06 -4.205857e-10 -3.851052e-10) (9.931796e-06 -1.499031e-10 -3.731842e-11)) ((2.823074e-15 -1.654429e-13 6.145082e-15) (6.411837e-14 -2.651704e-12 5.411145e-12))
0.864421      	((3.887019e-06 -3.909145e-10 -4.044959e-10) (8.842847e-06 -1.268561e-10 -4.545646e-11)) ((2.480171e-16 -8.456440e-14 -9.390556e-16) (2.716752e-14 -1.690599e-12 3.724678e-12))
1.049306      	((3.673588e-06 -3.433735e-10 -4.037951e-10) (7.921616e-06 -8.863450e-11 -3.374886e-11)) ((2.445936e-15 -3.753838e-14 -4.668242e-15) (3.603744e-14 -7.569933e-13 2.279186e-12))
1.271167      	((3.435899e-06 -2.792817e-10 -3.414474e-10) (7.139840e-06 -6.065349e-11 -2.247253e-11)) ((3.227593e-15 -1.057597e-14 -5.694681e-15) (1.125130e-13 -1.081823e-13 1.729888e-12))
1.5374        	((3.191993e-06 -2.019967e-10 -2.431515e-10) (6.467726e-06 -4.777389e-11 -2.136433e-11)) ((3.947908e-15 1.521703e-15 -5.236398e-15) (1.550296e-13 1.074386e-13 1.449982e-12))
1.85688       	((2.952936e-06 -1.155146e-10 -1.558931e-10) (5.878474e-06 -3.864571e-11 -2.953074e-11)) ((3.642569e-15 -1.317792e-15 -4.732986e-15) (1.979231e-13 3.727405e-13 1.203890e-12))
2.240256      	((2.725547e-06 -7.180904e-11 -1.012522e-10) (5.354563e-06 -2.900370e-11 -2.912996e-11)) ((2.769120e-15 -6.090755e-15 -3.945200e-15) (2.376173e-13 7.671014e-13 9.178507e-13))
2.700307      	((2.512938e-06 -1.678948e-11 -6.854119e-11) (4.885037e-06 -2.304744e-11 -2.624740e-11)) ((1.906829e-15 -9.375452e-15 -4.018211e-15) (2.542247e-13 1.159185e-12 5.797103e-13))
3.252369      	((2.314478e-06 1.446572e-12 -3.750141e-11) (4.462436e-06 -2.163400e-11 -2.893737e-11)) ((2.305259e-15 -1.209634e-14 -4.977258e-15) (2.695467e-13 1.589558e-12 9.829399e-14))
3.914842      	((2.127932e-06 -7.341620e-13 -3.408607e-11) (4.081090e-06 -1.974002e-11 -2.931757e-11)) ((4.277418e-15 -1.318129e-14 -5.232414e-15) (2.997941e-13 1.888816e-12 -4.245365e-13))
4.709811      	((1.954834e-06 -2.399668e-11 -5.415735e-11) (3.736848e-06 -2.435295e-11 -2.584921e-11)) ((7.314476e-15 -1.420622e-14 -5.074252e-15) (3.168045e-13 1.855457e-12 -7.707541e-13))
5.663773      	((1.795806e-06 -1.092652e-10 -1.235209e-10) (3.426675e-06 -2.868725e-11 -2.465546e-11)) ((9.571817e-15 -1.646684e-14 -2.929632e-15) (2.855056e-13 1.790290e-12 -8.754429e-13))
6.808528      	((1.650764e-06 -1.096283e-10 -1.282684e-10) (3.147879e-06 -2.748521e-11 -2.567994e-11)) ((7.798693e-15 -1.870936e-14 -1.160408e-15) (2.381724e-13 1.835616e-12 -1.046453e-12))
8.182233      	((1.518613e-06 -8.133100e-11 -9.217373e-11) (2.897546e-06 -2.435095e-11 -2.502416e-11)) ((7.436559e-15 -1.871256e-14 1.809077e-16) (1.877221e-13 1.869048e-12 -1.257098e-12))
9.83068       	((1.398672e-06 -5.624554e-11 -8.035620e-11) (2.672594e-06 -1.645643e-11 -1.784199e-11)) ((7.582051e-15 -1.809331e-14 3.340562e-16) (1.426444e-13 2.387903e-12 -1.517498e-12))
11.808816     	((1.289359e-06 -1.019760e-10 -1.475559e-10) (2.469907e-06 -1.076951e-11 -1.396573e-11)) ((7.023070e-15 -1.769064e-14 2.696855e-16) (8.546633e-14 3.492981e-12 -2.472486e-12))
14.182579     	((1.190017e-06 -1.936012e-10 -2.310548e-10) (2.286533e-06 -1.583990e-11 -1.811219e-11)) ((6.051748e-15 -1.939125e-14 7.497988e-16) (4.730878e-14 5.116617e-12 -4.286253e-12))
17.031095     	((1.100202e-06 -1.608021e-10 -1.793572e-10) (2.120083e-06 -2.255315e-11 -2.313709e-11)) ((6.715986e-15 -1.975450e-14 -7.508160e-16) (1.390414e-14 7.370142e-12 -6.697948e-12))
20.449314     	((1.019201e-06 -2.343625e-10 -2.505666e-10) (1.968770e-06 -3.069984e-11 -2.960258e-11)) ((8.106185e-15 -2.073235e-14 -1.159229e-15) (-3.021960e-14 9.560658e-12 -9.170929e-12))
24.551176     	((9.463644e-07 -2.932697e-10 -2.875164e-10) (1.831257e-06 -4.323163e-11 -3.987307e-11)) ((8.788003e-15 -2.069673e-14 -2.181858e-15) (-1.715435e-14 1.105250e-11 -1.096930e-11))
29.473411     	((8.815026e-07 -2.057070e-10 -2.108538e-10) (1.706553e-06 -4.833517e-11 -4.243933e-11)) ((1.000894e-14 -1.745097e-14 -3.464990e-15) (6.360383e-14 1.194631e-11 -1.203180e-11))
35.380094     	((8.239731e-07 -1.124401e-10 -1.261368e-10) (1.593762e-06 -4.415923e-11 -3.934886e-11)) ((9.352553e-15 -1.308484e-14 -2.981611e-15) (1.078411e-13 1.273888e-11 -1.275858e-11))
42.468112     	((7.736086e-07 -8.866229e-11 -9.672626e-11) (1.492022e-06 -4.469780e-11 -4.351488e-11)) ((8.990270e-15 -1.230857e-14 -2.669856e-15) (1.564671e-13 1.404083e-11 -1.426912e-11))
50.973735     	((7.299735e-07 -9.888923e-11 -8.754329e-11) (1.400494e-06 -5.141733e-11 -5.294604e-11)) ((9.912494e-15 -1.116159e-14 -3.024621e-15) (1.823156e-13 1.621247e-11 -1.659966e-11))
61.180482     	((6.927421e-07 -3.043553e-11 -2.533664e-11) (1.318321e-06 -6.048734e-11 -6.344789e-11)) ((1.037210e-14 -9.635677e-15 -3.780953e-15) (1.773397e-13 1.928101e-11 -1.966598e-11))
73.428578     	((6.615469e-07 -6.004393e-12 -2.076878e-12) (1.244709e-06 -7.464238e-11 -7.549593e-11)) ((1.008910e-14 -7.777195e-15 -4.364820e-15) (1.554382e-13 2.315841e-11 -2.361888e-11))
88.126294     	((6.360201e-07 7.348485e-11 6.650915e-11) (1.178960e-06 -8.592348e-11 -8.697848e-11)) ((9.698424e-15 -4.884203e-15 -4.858960e-15) (1.254021e-13 2.792100e-11 -2.832170e-11))
105.763553    	((6.160082e-07 1.734752e-10 1.606901e-10) (1.120518e-06 -9.500480e-11 -9.596071e-11)) ((9.000069e-15 -2.291789e-15 -5.513532e-15) (9.832843e-14 3.312393e-11 -3.349728e-11))
126.928263    	((6.009686e-07 2.087407e-10 1.962657e-10) (1.068935e-06 -1.040974e-10 -1.063200e-10)) ((7.929909e-15 -7.082623e-16 -6.089781e-15) (7.562041e-14 3.846995e-11 -3.867731e-11))
152.325916    	((5.908216e-07 2.774038e-10 2.653563e-10) (1.023852e-06 -1.098800e-10 -1.141506e-10)) ((6.762442e-15 8.609476e-16 -6.337416e-15) (5.090439e-14 4.342859e-11 -4.355381e-11))
182.803099    	((5.850828e-07 3.329215e-10 3.223237e-10) (9.849802e-07 -1.133098e-10 -1.184477e-10)) ((6.221136e-15 2.120042e-15 -5.984028e-15) (2.218089e-14 4.759040e-11 -4.775844e-11))
219.375719    	((5.829313e-07 4.086015e-10 3.958809e-10) (9.520100e-07 -1.118069e-10 -1.182985e-10)) ((5.826897e-15 4.261940e-15 -5.430274e-15) (1.287897e-15 5.085057e-11 -5.093331e-11))
263.262863    	((5.835377e-07 5.045459e-10 4.913513e-10) (9.245583e-07 -1.049450e-10 -1.103343e-10)) ((5.841932e-15 6.080080e-15 -5.267574e-15) (-2.811074e-14 5.283796e-11 -5.294535e-11))
315.927436    	((5.857238e-07 6.163301e-10 5.992035e-10) (9.021066e-07 -8.917998e-11 -9.470476e-11)) ((5.432640e-15 6.940555e-15 -5.039873e-15) (-2.361917e-14 5.358479e-11 -5.360383e-11))
377.705573    	((5.885094e-07 7.035456e-10 6.851303e-10) (8.840541e-07 -6.481894e-11 -7.134362e-11)) ((5.178235e-15 7.453328e-15 -5.027744e-15) (-1.184049e-14 5.297896e-11 -5.286278e-11))
448.579676    	((5.907393e-07 7.690152e-10 7.472881e-10) (8.695775e-07 -3.281165e-11 -3.970821e-11)) ((4.980465e-15 7.576229e-15 -4.967960e-15) (-2.404876e-15 5.113981e-11 -5.105403e-11))
528.546767    	((5.920169e-07 8.149984e-10 7.865324e-10) (8.579088e-07 5.629397e-12 -2.726860e-12)) ((4.774627e-15 7.916921e-15 -4.760161e-15) (9.095318e-15 4.851317e-11 -4.853141e-11))
617.6146      	((5.925139e-07 8.284458e-10 7.977985e-10) (8.484121e-07 4.781531e-11 3.816920e-11)) ((4.632947e-15 7.779714e-15 -4.614491e-15) (1.166737e-14 4.545109e-11 -4.556356e-11))
708.733927    	((5.928553e-07 8.065060e-10 7.818806e-10) (8.407543e-07 8.723875e-11 7.735918e-11)) ((4.456733e-15 8.528650e-15 -4.113376e-15) (1.657078e-14 4.225348e-11 -4.244805e-11))
799.953651    	((5.928897e-07 7.706969e-10 7.489296e-10) (8.345195e-07 1.217555e-10 1.113255e-10)) ((4.358613e-15 7.328536e-15 -3.926942e-15) (2.339251e-14 3.909503e-11 -3.932048e-11))
891.25505     	((5.928813e-07 7.240274e-10 7.018924e-10) (8.294645e-07 1.493000e-10 1.378883e-10)) ((4.321082e-15 7.208625e-15 -3.676469e-15) (3.472583e-14 3.603181e-11 -3.626818e-11))
982.62359     	((5.928223e-07 6.726055e-10 6.503735e-10) (8.253491e-07 1.684001e-10 1.562297e-10)) ((4.291357e-15 6.833339e-15 -3.523128e-15) (4.519173e-14 3.317538e-11 -3.340938e-11))
1074.04913    	((5.927463e-07 6.154187e-10 5.931925e-10) (8.220072e-07 1.813183e-10 1.688955e-10)) ((4.305700e-15 6.406946e-15 -3.507196e-15) (5.261732e-14 3.043105e-11 -3.067811e-11))
1165.523313   	((5.926536e-07 5.561839e-10 5.347563e-10) (8.192850e-07 1.878092e-10 1.752735e-10)) ((4.329551e-15 6.055087e-15 -3.308101e-15) (5.825251e-14 2.791866e-11 -2.817360e-11))
1257.038714   	((5.925645e-07 4.986806e-10 4.774646e-10) (8.170643e-07 1.897765e-10 1.773371e-10)) ((4.323033e-15 5.761279e-15 -3.129430e-15) (6.203796e-14 2.558525e-11 -2.586014e-11))
1348.588741   	((5.924806e-07 4.435529e-10 4.226405e-10) (8.152517e-07 1.879748e-10 1.755127e-10)) ((4.328277e-15 5.398511e-15 -3.085009e-15) (6.495997e-14 2.346668e-11 -2.375415e-11))
1440.167758   	((5.924043e-07 3.919463e-10 3.713995e-10) (8.137719e-07 1.829336e-10 1.703752e-10)) ((4.339709e-15 4.966512e-15 -3.011891e-15) (6.717635e-14 2.157862e-11 -2.187063e-11))
1531.771012   	((5.923354e-07 3.440840e-10 3.238180e-10) (8.125624e-07 1.760796e-10 1.635026e-10)) ((4.360061e-15 4.667180e-15 -2.916468e-15) (6.882998e-14 1.987799e-11 -2.017548e-11))
1623.39453    	((5.922748e-07 3.010794e-10 2.810939e-10) (8.115725e-07 1.676141e-10 1.551315e-10)) ((4.373192e-15 4.368497e-15 -2.857926e-15) (7.046056e-14 1.838237e-11 -1.868940e-11))
1715.034981   	((5.922222e-07 2.629901e-10 2.432576e-10) (8.107609e-07 1.585707e-10 1.460458e-10)) ((4.396782e-15 4.128883e-15 -2.841265e-15) (7.215868e-14 1.706713e-11 -1.737656e-11))
1806.689576   	((5.921782e-07 2.297142e-10 2.098272e-10) (8.100953e-07 1.494571e-10 1.369175e-10)) ((4.409984e-15 3.920375e-15 -2.841651e-15) (7.331388e-14 1.590914e-11 -1.622000e-11))
1898.354984   	((5.921402e-07 2.007930e-10 1.809943e-10) (8.095491e-07 1.404956e-10 1.279398e-10)) ((4.410786e-15 3.730279e-15 -2.798095e-15) (7.412133e-14 1.490108e-11 -1.521493e-11))
1990.028922   	((5.921078e-07 1.760846e-10 1.562407e-10) (8.091007e-07 1.319266e-10 1.193297e-10)) ((4.407905e-15 3.556938e-15 -2.762751e-15) (7.475045e-14 1.403512e-11 -1.434972e-11))
2081.709894   	((5.920801e-07 1.549769e-10 1.349517e-10) (8.087322e-07 1.239271e-10 1.112782e-10)) ((4.410203e-15 3.413618e-15 -2.733755e-15) (7.502758e-14 1.329367e-11 -1.360813e-11))
2173.396665   	((5.920574e-07 1.372999e-10 1.171722e-10) (8.084291e-07 1.166407e-10 1.039717e-10)) ((4.410617e-15 3.300529e-15 -2.696247e-15) (7.541845e-14 1.265882e-11 -1.297543e-11))
2265.088218   	((5.920380e-07 1.224687e-10 1.023298e-10) (8.081798e-07 1.101156e-10 9.747943e-11)) ((4.412745e-15 3.199048e-15 -2.663142e-15) (7.567232e-14 1.211665e-11 -1.243774e-11))
2356.783714   	((5.920221e-07 1.102064e-10 9.002921e-11) (8.079746e-07 1.043913e-10 9.178132e-11)) ((4.413790e-15 3.125940e-15 -2.638978e-15) (7.589881e-14 1.165704e-11 -1.198221e-11))
2448.482462   	((5.920085e-07 1.000633e-10 7.988384e-11) (8.078057e-07 9.942035e-11 8.683230e-11)) ((4.415772e-15 3.061852e-15 -2.622255e-15) (7.604802e-14 1.126949e-11 -1.159826e-11))
2540.183893   	((5.919967e-07 9.171923e-11 7.151387e-11) (8.076665e-07 9.516481e-11 8.257973e-11)) ((4.416818e-15 3.009786e-15 -2.609024e-15) (7.616320e-14 1.094405e-11 -1.127551e-11))
2631.887537   	((5.919873e-07 8.493890e-11 6.465500e-11) (8.075519e-07 9.156046e-11 7.896551e-11)) ((4.418350e-15 2.965755e-15 -2.596966e-15) (7.635345e-14 1.067132e-11 -1.100494e-11))
2723.593006   	((5.919791e-07 7.940702e-11 5.902843e-11) (8.074575e-07 8.852774e-11 7.592552e-11)) ((4.417918e-15 2.929039e-15 -2.587925e-15) (7.655040e-14 1.044332e-11 -1.077915e-11))
2815.299982   	((5.919724e-07 7.486922e-11 5.445450e-11) (8.073797e-07 8.600290e-11 7.339046e-11)) ((4.417305e-15 2.898340e-15 -2.580681e-15) (7.674111e-14 1.025298e-11 -1.059083e-11))
2907.008198   	((5.919665e-07 7.114401e-11 5.063551e-11) (8.073155e-07 8.391166e-11 7.129073e-11)) ((4.416869e-15 2.873743e-15 -2.574550e-15) (7.690749e-14 1.009437e-11 -1.043395e-11))
2998.71744    	((5.919618e-07 6.809980e-11 4.757074e-11) (8.072626e-07 8.218607e-11 6.955936e-11)) ((4.416305e-15 2.852375e-15 -2.568758e-15) (7.703587e-14 9.962567e-12 -1.030374e-11))
3090.427526   	((5.919583e-07 6.565813e-11 4.500506e-11) (8.072190e-07 8.077131e-11 6.813245e-11)) ((4.416632e-15 2.833283e-15 -2.564008e-15) (7.714152e-14 9.852771e-12 -1.019555e-11))
3182.13831    	((5.919550e-07 6.364348e-11 4.288024e-11) (8.071830e-07 7.961554e-11 6.697105e-11)) ((4.417122e-15 2.818056e-15 -2.560193e-15) (7.723180e-14 9.761742e-12 -1.010589e-11))
3273.849668   	((5.919520e-07 6.192068e-11 4.118321e-11) (8.071533e-07 7.866915e-11 6.601902e-11)) ((4.417343e-15 2.805098e-15 -2.557719e-15) (7.731218e-14 9.686186e-12 -1.003142e-11))
3365.561502   	((5.919500e-07 6.053048e-11 3.973549e-11) (8.071289e-07 7.789876e-11 6.524107e-11)) ((4.417971e-15 2.794245e-15 -2.555308e-15) (7.738978e-14 9.623400e-12 -9.969560e-12))
3457.273729   	((5.919479e-07 5.932337e-11 3.857979e-11) (8.071086e-07 7.726489e-11 6.460358e-11)) ((4.418494e-15 2.785200e-15 -2.553517e-15) (7.745968e-14 9.571233e-12 -9.918156e-12))
3548.986278   	((5.919464e-07 5.831224e-11 3.760566e-11) (8.070920e-07 7.674499e-11 6.407831e-11)) ((4.418951e-15 2.777437e-15 -2.551929e-15) (7.751652e-14 9.527921e-12 -9.875521e-12))
3640.699095   	((5.919450e-07 5.742329e-11 3.706101e-11) (8.070782e-07 7.631767e-11 6.364501e-11)) ((4.419898e-15 2.770214e-15 -2.550604e-15) (7.756199e-14 9.491804e-12 -9.840031e-12))
3732.412132   	((5.919439e-07 5.678052e-11 3.599780e-11) (8.070669e-07 7.596476e-11 6.328044e-11)) ((4.419468e-15 2.765905e-15 -2.549483e-15) (7.760660e-14 9.461706e-12 -9.810445e-12))
3824.125351   	((5.919431e-07 5.615563e-11 3.542319e-11) (8.070575e-07 7.566990e-11 6.298607e-11)) ((4.419569e-15 2.761651e-15 -2.548564e-15) (7.764577e-14 9.436643e-12 -9.785785e-12))
3915.838721   	((5.919421e-07 5.558634e-11 3.508496e-11) (8.070497e-07 7.542353e-11 6.274120e-11)) ((4.419443e-15 2.759445e-15 -2.547989e-15) (7.767422e-14 9.415765e-12 -9.765205e-12))
4007.552215   	((5.919418e-07 5.523146e-11 3.446369e-11) (8.070434e-07 7.521824e-11 6.252857e-11)) ((4.419843e-15 2.755271e-15 -2.547185e-15) (7.770151e-14 9.398338e-12 -9.748006e-12))
4099.265812   	((5.919414e-07 5.485109e-11 3.412379e-11) (8.070381e-07 7.504388e-11 6.235675e-11)) ((4.419871e-15 2.752724e-15 -2.546583e-15) (7.772578e-14 9.383788e-12 -9.733645e-12))
4190.979494   	((5.919412e-07 5.455144e-11 3.380872e-11) (8.070337e-07 7.489784e-11 6.220723e-11)) ((4.419917e-15 2.750357e-15 -2.546124e-15) (7.774528e-14 9.371638e-12 -9.721654e-12))
4282.693246   	((5.919409e-07 5.427000e-11 3.360872e-11) (8.070301e-07 7.477336e-11 6.208238e-11)) ((4.420073e-15 2.748722e-15 -2.545732e-15) (7.776184e-14 9.361487e-12 -9.711637e-12))
4374.407055   	((5.919403e-07 5.401138e-11 3.351316e-11) (8.070272e-07 7.466757e-11 6.197897e-11)) ((4.419898e-15 2.748281e-15 -2.545712e-15) (7.777214e-14 9.353025e-12 -9.703281e-12))
4466.120913   	((5.919402e-07 5.389568e-11 3.319729e-11) (8.070247e-07 7.457921e-11 6.188406e-11)) ((4.420362e-15 2.745891e-15 -2.545195e-15) (7.778430e-14 9.345957e-12 -9.696299e-12))
4557.834809   	((5.919401e-07 5.373158e-11 3.305490e-11) (8.070227e-07 7.450323e-11 6.181056e-11)) ((4.420260e-15 2.744828e-15 -2.544980e-15) (7.779600e-14 9.340078e-12 -9.690483e-12))
