# Forces      
# CofR        : (0.000000e+00 0.000000e+00 0.000000e+00)
# Time        forces(pressure viscous)	moments(pressure viscous)
0             	((0.000000e+00 0.000000e+00 0.000000e+00) (-4.804194e-12 -2.065400e-12 6.340324e-02)) ((0.000000e+00 0.000000e+00 0.000000e+00) (1.230469e-13 2.131984e-08 1.708262e-15))
0.00953863    	((2.241031e-03 2.093739e-03 2.329827e+01) (-1.566808e-05 -1.588518e-05 1.536152e-01)) ((7.589345e-09 7.803058e-06 -3.761298e-09) (-3.453094e-07 4.791999e-07 3.869165e-09))
0.020985      	((-4.247162e-03 -3.230679e-03 -1.105441e+01) (-3.613257e-05 -2.035899e-05 1.414611e-01)) ((1.866175e-07 -1.344921e-06 -1.265826e-08) (-8.539183e-07 2.159901e-06 2.299178e-09))
0.0347206     	((-1.402276e-03 4.442207e-04 2.492379e+00) (-5.507706e-05 -3.275963e-06 1.160052e-01)) ((-1.687510e-07 1.551450e-06 2.796828e-10) (-4.531586e-07 1.728822e-06 8.178243e-10))
0.0510986     	((-2.318250e-03 -9.565643e-04 -9.479834e-01) (-3.558728e-05 1.226540e-06 1.077076e-01)) ((8.601843e-08 4.582012e-07 -9.436831e-10) (-3.203288e-07 5.671038e-08 9.174836e-09))
0.0701323     	((3.647402e-04 4.882384e-04 6.842134e-01) (-4.208680e-07 -3.098593e-06 1.023715e-01)) ((-2.981503e-08 1.201319e-06 -4.529125e-09) (-2.576459e-07 4.844081e-07 1.459619e-08))
0.0918063     	((1.936447e-04 -1.973085e-04 -5.412653e-02) (4.224619e-05 -2.329091e-06 1.005579e-01)) ((1.776967e-08 1.132415e-06 -2.018341e-10) (4.077122e-09 1.121062e-06 8.926669e-09))
0.1161        	((5.638599e-04 6.899809e-05 3.070270e-01) (5.581543e-05 -1.278678e-06 9.905959e-02)) ((-1.642694e-08 1.235117e-06 2.377435e-10) (7.067113e-08 1.826452e-06 2.040094e-09))
0.142092      	((-2.595554e-04 -2.546120e-04 1.589898e-01) (4.521318e-05 -1.164183e-06 9.825575e-02)) ((1.131651e-08 1.131179e-06 -1.746132e-09) (1.564640e-07 2.042490e-06 -3.293221e-09))
0.168102      	((-6.352291e-04 -2.630564e-04 2.619432e-01) (4.590812e-05 -1.673185e-06 9.786710e-02)) ((7.206072e-09 1.273145e-06 9.864609e-10) (1.917516e-07 1.910528e-06 -6.256435e-09))
0.194045      	((-8.621481e-04 -4.857946e-04 2.408461e-01) (4.747292e-05 -2.292113e-06 9.772147e-02)) ((1.414114e-08 1.213939e-06 7.705243e-10) (1.950566e-07 1.967402e-06 -4.612143e-09))
0.219841      	((-1.187724e-03 -5.975359e-04 2.821824e-01) (5.080174e-05 -2.892887e-06 9.757568e-02)) ((1.392982e-08 1.292088e-06 -1.730202e-09) (1.958685e-07 1.952101e-06 -4.150789e-09))
0.245463      	((-1.429449e-03 -7.167581e-04 2.881825e-01) (5.288716e-05 -3.300387e-06 9.735184e-02)) ((1.877596e-08 1.273575e-06 -7.164352e-10) (1.725334e-07 2.021933e-06 -4.766570e-09))
0.270994      	((-1.813274e-03 -7.756000e-04 3.050876e-01) (5.478639e-05 -3.541238e-06 9.697461e-02)) ((1.787062e-08 1.291864e-06 -7.812402e-10) (1.249854e-07 2.104376e-06 -5.692731e-09))
0.296451      	((-2.203529e-03 -8.805267e-04 3.091432e-01) (5.522763e-05 -3.005749e-06 9.647715e-02)) ((2.307919e-08 1.238804e-06 7.928956e-10) (6.144630e-08 2.213149e-06 -4.883757e-09))
0.321933      	((-2.896217e-03 -1.020642e-03 3.136719e-01) (5.188013e-05 -2.467179e-06 9.593516e-02)) ((2.465740e-08 1.202596e-06 4.675837e-10) (-2.583197e-10 2.386815e-06 -4.178693e-09))
0.347488      	((-3.466104e-03 -1.162977e-03 3.134353e-01) (4.700283e-05 -2.761715e-06 9.542743e-02)) ((2.481615e-08 1.151038e-06 5.880377e-10) (-3.541374e-08 2.527836e-06 -3.827130e-09))
0.373108      	((-4.195585e-03 -1.360485e-03 3.137895e-01) (4.326087e-05 -3.349909e-06 9.497454e-02)) ((2.656571e-08 1.130572e-06 1.304876e-09) (-6.995355e-08 2.633008e-06 -3.167016e-09))
0.39876       	((-4.927908e-03 -1.585413e-03 3.117945e-01) (4.074165e-05 -3.535223e-06 9.456566e-02)) ((3.263515e-08 1.086199e-06 2.172177e-09) (-1.356350e-07 2.779341e-06 -2.176318e-09))
0.424424      	((-5.793048e-03 -1.832127e-03 3.109824e-01) (3.713044e-05 -3.335612e-06 9.419226e-02)) ((3.865516e-08 1.047226e-06 3.213569e-09) (-2.320684e-07 2.991254e-06 -1.223910e-09))
0.450099      	((-6.879856e-03 -2.163215e-03 3.087102e-01) (3.225879e-05 -3.433835e-06 9.384710e-02)) ((4.470336e-08 9.992647e-07 3.572799e-09) (-3.401014e-07 3.243175e-06 1.119611e-10))
0.475798      	((-8.044648e-03 -2.553462e-03 3.073252e-01) (2.693403e-05 -4.216431e-06 9.352585e-02)) ((4.973809e-08 9.648855e-07 3.791133e-09) (-4.447608e-07 3.497906e-06 7.817209e-10))
0.501511      	((-9.423268e-03 -3.038098e-03 3.059955e-01) (2.174438e-05 -5.614946e-06 9.322575e-02)) ((5.659933e-08 9.273721e-07 3.114988e-09) (-5.500375e-07 3.784702e-06 3.288302e-10))
0.527233      	((-1.105918e-02 -3.590740e-03 3.052833e-01) (1.585740e-05 -7.316903e-06 9.294890e-02)) ((6.378121e-08 8.878569e-07 3.397257e-09) (-6.704936e-07 4.155755e-06 1.343223e-10))
0.552965      	((-1.288963e-02 -4.183461e-03 3.046727e-01) (9.643718e-06 -9.195275e-06 9.269813e-02)) ((6.967543e-08 8.456083e-07 3.784554e-09) (-8.156575e-07 4.635079e-06 2.085616e-10))
0.578706      	((-1.499962e-02 -4.825947e-03 3.036112e-01) (3.420886e-06 -1.120744e-05 9.247299e-02)) ((7.598345e-08 8.061153e-07 3.762604e-09) (-9.879323e-07 5.244737e-06 9.999751e-11))
0.604456      	((-1.729013e-02 -5.524420e-03 3.022994e-01) (-2.542596e-06 -1.306539e-05 9.226973e-02)) ((8.170420e-08 7.706892e-07 3.977042e-09) (-1.191602e-06 5.986997e-06 -1.534256e-09))
0.630215      	((-1.996643e-02 -6.359658e-03 3.008203e-01) (-8.779959e-06 -1.514873e-05 9.208412e-02)) ((8.860628e-08 7.383065e-07 4.473607e-09) (-1.426971e-06 6.818303e-06 -3.904937e-09))
0.655982      	((-2.306707e-02 -7.279321e-03 2.994710e-01) (-1.606202e-05 -1.784117e-05 9.191222e-02)) ((9.385496e-08 7.025184e-07 5.312961e-09) (-1.689985e-06 7.718353e-06 -3.900488e-09))
0.681756      	((-2.663593e-02 -8.418840e-03 2.982837e-01) (-2.441216e-05 -2.098992e-05 9.175182e-02)) ((1.027589e-07 6.598306e-07 6.063474e-09) (-1.987032e-06 8.717443e-06 -4.144622e-09))
0.707539      	((-3.082278e-02 -9.655199e-03 2.971419e-01) (-3.439110e-05 -2.441246e-05 9.160154e-02)) ((1.144950e-07 6.050395e-07 6.272511e-09) (-2.326119e-06 9.849537e-06 -4.873836e-09))
0.73333       	((-3.557008e-02 -1.111828e-02 2.961672e-01) (-4.628422e-05 -2.825314e-05 9.146121e-02)) ((1.305589e-07 5.452135e-07 6.052576e-09) (-2.723884e-06 1.114453e-05 -5.137808e-09))
0.759129      	((-4.093614e-02 -1.273365e-02 2.952578e-01) (-5.995117e-05 -3.252283e-05 9.133111e-02)) ((1.458579e-07 4.835194e-07 7.814426e-09) (-3.185252e-06 1.263456e-05 -1.034871e-08))
0.784935      	((-4.700961e-02 -1.456008e-02 2.944769e-01) (-7.564375e-05 -3.700769e-05 9.121116e-02)) ((1.615476e-07 4.203085e-07 8.751044e-09) (-3.720041e-06 1.434445e-05 -1.733662e-08))
0.810748      	((-5.385927e-02 -1.667341e-02 2.939429e-01) (-9.378017e-05 -4.192528e-05 9.110132e-02)) ((1.799346e-07 3.526957e-07 1.088774e-08) (-4.340617e-06 1.628004e-05 -2.271873e-08))
0.836566      	((-6.165584e-02 -1.913658e-02 2.936447e-01) (-1.149035e-04 -4.775049e-05 9.100144e-02)) ((2.021855e-07 2.778744e-07 1.226332e-08) (-5.048992e-06 1.845507e-05 -2.712396e-08))
0.86239       	((-7.057553e-02 -2.189916e-02 2.934133e-01) (-1.395706e-04 -5.468205e-05 9.091124e-02)) ((2.294455e-07 1.914283e-07 1.412273e-08) (-5.847701e-06 2.090681e-05 -3.240523e-08))
0.888214      	((-8.070110e-02 -2.503271e-02 2.932733e-01) (-1.683405e-04 -6.291444e-05 9.083092e-02)) ((2.606781e-07 9.148374e-08 1.494787e-08) (-6.742113e-06 2.366543e-05 -3.808232e-08))
0.914034      	((-9.213427e-02 -2.857620e-02 2.932245e-01) (-2.017712e-04 -7.248952e-05 9.076081e-02)) ((2.969649e-07 -2.118383e-08 1.425916e-08) (-7.749781e-06 2.676495e-05 -3.789658e-08))
0.939851      	((-1.050164e-01 -3.252195e-02 2.932768e-01) (-2.401952e-04 -8.316802e-05 9.070112e-02)) ((3.373418e-07 -1.488919e-07 1.419203e-08) (-8.896774e-06 3.026115e-05 -3.104477e-08))
0.965661      	((-1.195479e-01 -3.697663e-02 2.934795e-01) (-2.837780e-04 -9.482229e-05 9.065195e-02)) ((3.847401e-07 -2.916914e-07 1.481503e-08) (-1.021446e-05 3.422273e-05 -1.794648e-08))
0.991465      	((-1.358582e-01 -4.205775e-02 2.939537e-01) (-3.326882e-04 -1.078287e-04 9.061312e-02)) ((4.423389e-07 -4.498037e-07 1.613783e-08) (-1.172345e-05 3.872742e-05 -1.097066e-09))
1.01726       	((-1.540824e-01 -4.777153e-02 2.948635e-01) (-3.873614e-04 -1.221493e-04 9.058503e-02)) ((5.045863e-07 -6.231507e-07 1.603524e-08) (-1.345136e-05 4.383640e-05 1.444896e-08))
1.043047      	((-1.744923e-01 -5.431059e-02 2.964406e-01) (-4.486380e-04 -1.381344e-04 9.056900e-02)) ((5.680448e-07 -8.153107e-07 1.628233e-08) (-1.542706e-05 4.960087e-05 2.708493e-08))
1.068821      	((-1.972258e-01 -6.164039e-02 2.987069e-01) (-5.174308e-04 -1.561683e-04 9.056631e-02)) ((6.348992e-07 -1.026854e-06 1.823762e-08) (-1.767629e-05 5.607647e-05 3.007493e-08))
1.094583      	((-2.222281e-01 -6.983975e-02 3.018025e-01) (-5.949811e-04 -1.764829e-04 9.057862e-02)) ((7.125002e-07 -1.253032e-06 1.967614e-08) (-2.021123e-05 6.326411e-05 3.328511e-08))
1.12033       	((-2.497913e-01 -7.900175e-02 3.057049e-01) (-6.819413e-04 -1.998460e-04 9.060727e-02)) ((8.033452e-07 -1.496827e-06 1.495754e-08) (-2.305642e-05 7.122435e-05 4.588527e-08))
1.14606       	((-2.803053e-01 -8.917141e-02 3.103273e-01) (-7.809345e-04 -2.273062e-04 9.065382e-02)) ((9.077078e-07 -1.768473e-06 1.258780e-08) (-2.621410e-05 8.000336e-05 5.524145e-08))
1.171771      	((-3.135506e-01 -1.002070e-01 3.164117e-01) (-8.943331e-04 -2.596605e-04 9.072164e-02)) ((1.016518e-06 -2.059981e-06 1.330608e-08) (-2.965910e-05 8.957545e-05 7.200634e-08))
1.197449      	((-3.494217e-01 -1.121867e-01 3.239468e-01) (-1.023061e-03 -2.977334e-04 9.081352e-02)) ((1.124228e-06 -2.373620e-06 2.756037e-08) (-3.332967e-05 9.990703e-05 9.735299e-08))
1.223088      	((-3.874356e-01 -1.249186e-01 3.331252e-01) (-1.166324e-03 -3.433967e-04 9.093249e-02)) ((1.236639e-06 -2.696897e-06 4.633220e-08) (-3.713079e-05 1.110298e-04 9.866188e-08))
1.248686      	((-4.271340e-01 -1.382042e-01 3.448305e-01) (-1.321802e-03 -3.969596e-04 9.108131e-02)) ((1.346642e-06 -3.009990e-06 7.126983e-08) (-4.103068e-05 1.230372e-04 6.494649e-08))
1.274239      	((-4.676251e-01 -1.514258e-01 3.587074e-01) (-1.488510e-03 -4.567128e-04 9.126038e-02)) ((1.450810e-06 -3.300119e-06 1.019864e-07) (-4.498107e-05 1.357180e-04 1.761190e-08))
1.299746      	((-5.078027e-01 -1.642779e-01 3.749892e-01) (-1.665673e-03 -5.214078e-04 9.147284e-02)) ((1.555205e-06 -3.547940e-06 1.301728e-07) (-4.892619e-05 1.488158e-04 -3.345431e-08))
1.325205      	((-5.456152e-01 -1.762706e-01 3.928971e-01) (-1.851619e-03 -5.901668e-04 9.171782e-02)) ((1.649020e-06 -3.760512e-06 1.504987e-07) (-5.285502e-05 1.621200e-04 -9.481752e-08))
1.350614      	((-5.791012e-01 -1.865802e-01 4.128423e-01) (-2.041175e-03 -6.610071e-04 9.199609e-02)) ((1.713824e-06 -3.918726e-06 1.665969e-07) (-5.658958e-05 1.753778e-04 -2.226805e-07))
1.375973      	((-6.059858e-01 -1.946803e-01 4.334967e-01) (-2.228189e-03 -7.325991e-04 9.230776e-02)) ((1.723619e-06 -3.981746e-06 1.835206e-07) (-5.992086e-05 1.881357e-04 -4.228429e-07))
1.401282      	((-6.244446e-01 -1.996559e-01 4.533564e-01) (-2.408086e-03 -8.043285e-04 9.264565e-02)) ((1.696311e-06 -3.898196e-06 2.101450e-07) (-6.261424e-05 1.996300e-04 -6.278876e-07))
1.426544      	((-6.317089e-01 -2.011319e-01 4.700409e-01) (-2.571460e-03 -8.715436e-04 9.299636e-02)) ((1.638768e-06 -3.664168e-06 2.261724e-07) (-6.453562e-05 2.092002e-04 -8.813732e-07))
1.451764      	((-6.276043e-01 -1.981649e-01 4.834196e-01) (-2.701862e-03 -9.233581e-04 9.334364e-02)) ((1.548326e-06 -3.437600e-06 2.289219e-07) (-6.574931e-05 2.166098e-04 -1.196888e-06))
1.476947      	((-6.114519e-01 -1.907657e-01 4.921485e-01) (-2.774268e-03 -9.492741e-04 9.367213e-02)) ((1.469815e-06 -3.194897e-06 2.105013e-07) (-6.639134e-05 2.221329e-04 -1.425115e-06))
1.502104      	((-5.829433e-01 -1.797261e-01 4.952552e-01) (-2.763984e-03 -9.438257e-04 9.397025e-02)) ((1.387968e-06 -2.924646e-06 1.790548e-07) (-6.649741e-05 2.260350e-04 -1.480394e-06))
1.52724       	((-5.473428e-01 -1.666627e-01 4.919124e-01) (-2.662229e-03 -9.053444e-04 9.422768e-02)) ((1.292231e-06 -2.614673e-06 1.389379e-07) (-6.619815e-05 2.285539e-04 -1.369049e-06))
1.552365      	((-5.081721e-01 -1.537187e-01 4.842542e-01) (-2.472895e-03 -8.407803e-04 9.444141e-02)) ((1.217209e-06 -2.210914e-06 1.080513e-07) (-6.552987e-05 2.299201e-04 -1.279562e-06))
1.577486      	((-4.705014e-01 -1.422482e-01 4.749418e-01) (-2.218267e-03 -7.619242e-04 9.461814e-02)) ((1.190607e-06 -1.676815e-06 5.649784e-08) (-6.449811e-05 2.301085e-04 -1.413903e-06))
1.602614      	((-4.411935e-01 -1.338547e-01 4.646917e-01) (-1.935850e-03 -6.786615e-04 9.476596e-02)) ((1.171380e-06 -1.081935e-06 2.380897e-08) (-6.323501e-05 2.291402e-04 -1.873966e-06))
1.627752      	((-4.228923e-01 -1.288238e-01 4.541731e-01) (-1.660166e-03 -5.930482e-04 9.489570e-02)) ((1.142604e-06 -5.018098e-07 1.919315e-08) (-6.207254e-05 2.273141e-04 -2.506091e-06))
1.652906      	((-4.153206e-01 -1.274329e-01 4.449391e-01) (-1.416657e-03 -5.108288e-04 9.501420e-02)) ((1.125093e-06 -9.201486e-08 2.932734e-08) (-6.123797e-05 2.251870e-04 -3.008087e-06))
1.678077      	((-4.182729e-01 -1.287864e-01 4.369178e-01) (-1.237158e-03 -4.431253e-04 9.512361e-02)) ((1.059182e-06 1.025922e-07 8.269293e-08) (-6.069137e-05 2.228202e-04 -3.213431e-06))
1.703264      	((-4.276092e-01 -1.321676e-01 4.292056e-01) (-1.147860e-03 -3.980921e-04 9.522580e-02)) ((1.016693e-06 1.061838e-07 1.545812e-07) (-6.028174e-05 2.196543e-04 -3.234538e-06))
1.728464      	((-4.382050e-01 -1.361552e-01 4.225523e-01) (-1.154566e-03 -3.797320e-04 9.532196e-02)) ((1.124263e-06 -2.210049e-07 1.915258e-07) (-5.984747e-05 2.152366e-04 -3.283636e-06))
1.753674      	((-4.484031e-01 -1.392708e-01 4.156351e-01) (-1.247402e-03 -3.912367e-04 9.541051e-02)) ((1.355124e-06 -9.285269e-07 2.075716e-07) (-5.904957e-05 2.093576e-04 -3.553023e-06))
1.77889       	((-4.533975e-01 -1.407635e-01 4.089088e-01) (-1.370689e-03 -4.205963e-04 9.546958e-02)) ((1.478403e-06 -1.571421e-06 2.769246e-07) (-5.805924e-05 2.039404e-04 -4.134709e-06))
1.804109      	((-4.505758e-01 -1.405158e-01 4.036836e-01) (-1.453610e-03 -4.514633e-04 9.549416e-02)) ((1.442837e-06 -1.964517e-06 3.797347e-07) (-5.707981e-05 2.008482e-04 -4.961773e-06))
1.829328      	((-4.396388e-01 -1.383158e-01 4.025106e-01) (-1.472929e-03 -4.743265e-04 9.550955e-02)) ((1.421321e-06 -2.155486e-06 4.006065e-07) (-5.603682e-05 1.994608e-04 -5.751442e-06))
1.854545      	((-4.225245e-01 -1.337536e-01 4.031878e-01) (-1.441793e-03 -4.819428e-04 9.552444e-02)) ((1.465623e-06 -2.247328e-06 3.243330e-07) (-5.503894e-05 1.985283e-04 -6.328422e-06))
1.879761      	((-4.004749e-01 -1.276838e-01 4.030186e-01) (-1.370467e-03 -4.713032e-04 9.553626e-02)) ((1.542957e-06 -2.326897e-06 2.112169e-07) (-5.413311e-05 1.972848e-04 -6.619310e-06))
1.904977      	((-3.753363e-01 -1.207397e-01 4.021789e-01) (-1.271510e-03 -4.406170e-04 9.554353e-02)) ((1.630147e-06 -2.259998e-06 5.933526e-08) (-5.343627e-05 1.951295e-04 -6.596568e-06))
1.930196      	((-3.498642e-01 -1.136407e-01 4.007586e-01) (-1.138179e-03 -3.954140e-04 9.554116e-02)) ((1.576874e-06 -1.910227e-06 -4.522717e-08) (-5.289234e-05 1.926794e-04 -6.542743e-06))
1.955419      	((-3.268529e-01 -1.079290e-01 4.001033e-01) (-9.801438e-04 -3.449501e-04 9.553098e-02)) ((1.458542e-06 -1.416025e-06 -1.171895e-07) (-5.239450e-05 1.900857e-04 -6.625841e-06))
1.980651      	((-3.101760e-01 -1.039030e-01 3.995786e-01) (-8.043534e-04 -2.897282e-04 9.551733e-02)) ((1.375849e-06 -7.708937e-07 -2.332183e-07) (-5.222207e-05 1.878289e-04 -6.865826e-06))
2.005895      	((-3.019699e-01 -1.024433e-01 3.987342e-01) (-6.006431e-04 -2.275631e-04 9.549078e-02)) ((1.294160e-06 -1.290377e-07 -3.080695e-07) (-5.277088e-05 1.874977e-04 -6.982024e-06))
2.031153      	((-3.021631e-01 -1.038429e-01 3.951792e-01) (-3.939861e-04 -1.706008e-04 9.544531e-02)) ((1.182071e-06 3.243776e-07 -2.697721e-07) (-5.373331e-05 1.891872e-04 -6.829531e-06))
2.056427      	((-3.096092e-01 -1.081158e-01 3.893362e-01) (-2.280766e-04 -1.183812e-04 9.539192e-02)) ((1.104489e-06 4.493970e-07 -1.531902e-07) (-5.524804e-05 1.913870e-04 -6.096966e-06))
2.081713      	((-3.212505e-01 -1.139945e-01 3.828340e-01) (-1.410181e-04 -8.506350e-05 9.533750e-02)) ((1.035936e-06 2.845076e-07 2.215015e-08) (-5.677212e-05 1.924214e-04 -4.930823e-06))
2.107012      	((-3.350269e-01 -1.208818e-01 3.765183e-01) (-1.583792e-04 -8.836446e-05 9.529473e-02)) ((9.944819e-07 -7.581333e-08 2.271195e-07) (-5.750518e-05 1.908569e-04 -3.758994e-06))
2.132318      	((-3.486002e-01 -1.272729e-01 3.714018e-01) (-2.693896e-04 -1.279630e-04 9.526942e-02)) ((9.570297e-07 -5.072538e-07 4.190873e-07) (-5.735478e-05 1.867730e-04 -2.862493e-06))
2.15763       	((-3.590739e-01 -1.322468e-01 3.681870e-01) (-4.252953e-04 -1.926876e-04 9.525289e-02)) ((9.493273e-07 -9.336895e-07 5.300223e-07) (-5.650873e-05 1.819245e-04 -2.333483e-06))
2.182942      	((-3.657982e-01 -1.359553e-01 3.680682e-01) (-5.799705e-04 -2.669768e-04 9.523813e-02)) ((1.012448e-06 -1.270479e-06 5.369490e-07) (-5.529798e-05 1.778758e-04 -2.093538e-06))
2.208253      	((-3.694619e-01 -1.384164e-01 3.701363e-01) (-7.058142e-04 -3.339852e-04 9.522261e-02)) ((1.103930e-06 -1.508587e-06 4.815493e-07) (-5.418234e-05 1.753900e-04 -1.962474e-06))
2.23356       	((-3.696115e-01 -1.388017e-01 3.751182e-01) (-7.874315e-04 -3.797594e-04 9.520691e-02)) ((1.219392e-06 -1.608898e-06 3.638533e-07) (-5.356070e-05 1.746947e-04 -1.842137e-06))
2.258862      	((-3.670874e-01 -1.373961e-01 3.801597e-01) (-8.238245e-04 -4.016309e-04 9.519670e-02)) ((1.373348e-06 -1.653375e-06 2.105558e-07) (-5.341728e-05 1.753693e-04 -1.808289e-06))
