# Forces      
# CofR        : (0.000000e+00 0.000000e+00 0.000000e+00)
# Time        forces(pressure viscous)	moments(pressure viscous)
0             	((0.000000e+00 0.000000e+00 0.000000e+00) (0.000000e+00 0.000000e+00 0.000000e+00)) ((0.000000e+00 0.000000e+00 0.000000e+00) (0.000000e+00 0.000000e+00 0.000000e+00))
0.012         	((2.717188e-11 -4.517771e-11 -1.084988e-08) (6.145645e-14 -2.381123e-13 -2.279500e-10)) ((4.895627e-15 -4.221481e-10 2.225189e-16) (-6.817260e-16 -2.787904e-07 1.649289e-14))
0.0264        	((-4.581274e-11 4.780311e-11 4.078936e-09) (4.924260e-14 -6.744012e-13 -3.964040e-10)) ((1.044419e-15 -2.114261e-10 -2.054262e-14) (-7.743656e-15 -2.553511e-07 2.329942e-14))
0.04368       	((-1.648357e-10 -2.595790e-10 -3.779889e-09) (-4.768654e-13 -5.110348e-13 -4.298877e-10)) ((-3.826899e-15 -1.167544e-10 -1.337059e-14) (1.281018e-14 -2.312660e-07 3.374620e-14))
0.064416      	((5.010687e-11 7.061875e-11 -1.415699e-10) (-1.535320e-12 3.567189e-13 -3.550605e-10)) ((-2.066225e-16 -6.661495e-11 9.004887e-16) (4.319684e-14 -2.070630e-07 4.428700e-14))
0.0892992     	((-1.325943e-10 -7.971202e-11 -4.650913e-10) (-2.690721e-12 1.256990e-12 -2.940901e-10)) ((8.662502e-16 -4.957312e-11 7.756733e-17) (5.984639e-14 -1.834495e-07 4.624545e-14))
0.119159      	((7.051461e-11 2.203726e-11 -1.134496e-10) (-3.460118e-12 2.177295e-12 -2.494774e-10)) ((-8.428842e-16 -3.567184e-11 1.910696e-16) (8.240250e-14 -1.611536e-07 5.221665e-14))
0.154991      	((4.213217e-11 5.185691e-11 3.104887e-10) (-4.290699e-12 3.463565e-12 -2.010951e-10)) ((6.166411e-16 -2.826157e-11 -2.117487e-15) (1.108216e-13 -1.406899e-07 6.160179e-14))
0.197989      	((2.826165e-11 3.319660e-11 -2.650388e-11) (-4.701314e-12 4.576802e-12 -1.576638e-10)) ((9.007394e-16 -2.251854e-11 -2.179072e-15) (1.229022e-13 -1.225497e-07 7.095754e-14))
0.249587      	((-1.411949e-11 3.602026e-11 2.893750e-10) (-4.033402e-12 5.165366e-12 -1.255598e-10)) ((1.650162e-15 -1.859461e-11 8.443181e-16) (1.183375e-13 -1.069958e-07 6.449486e-14))
0.311504      	((-1.257055e-11 -9.890548e-12 5.724637e-11) (-3.266198e-12 5.611563e-12 -9.847343e-11)) ((1.026034e-15 -1.550784e-11 2.092719e-15) (1.153521e-13 -9.398893e-08 4.542869e-14))
0.385805      	((-4.154647e-12 -2.541766e-11 -1.209461e-11) (-2.247292e-12 5.776744e-12 -7.540105e-11)) ((2.839843e-16 -1.332288e-11 3.276735e-15) (1.161401e-13 -8.324938e-08 3.715457e-14))
0.474966      	((3.573751e-11 7.961116e-12 -7.285115e-11) (-1.421460e-12 6.217674e-12 -5.377312e-11)) ((7.412834e-16 -1.188068e-11 2.854615e-15) (1.097254e-13 -7.435582e-08 2.018735e-14))
0.581959      	((4.458794e-11 3.469217e-11 6.731539e-11) (-6.397836e-13 6.600812e-12 -3.625649e-11)) ((6.113851e-16 -1.064508e-11 1.279305e-15) (9.350657e-14 -6.687289e-08 -7.476419e-15))
0.710351      	((7.078763e-11 4.725803e-11 -1.467335e-10) (-6.912024e-13 4.654060e-12 -3.178403e-11)) ((9.820738e-16 -9.454069e-12 1.220307e-15) (5.709300e-14 -6.044188e-08 2.685759e-14))
0.864421      	((7.881965e-11 4.020445e-11 -7.678632e-11) (-1.657412e-13 6.520003e-14 -2.736221e-11)) ((1.971506e-15 -8.654178e-12 -6.712315e-16) (1.058836e-14 -5.480782e-08 1.005469e-13))
1.049306      	((1.642347e-10 3.575618e-11 -9.311812e-12) (-1.907027e-12 -4.363795e-12 -1.541556e-11)) ((2.532629e-15 -8.146926e-12 -1.815252e-15) (-7.658499e-15 -4.980145e-08 1.508492e-13))
1.271167      	((1.831558e-10 3.185012e-11 -1.335405e-10) (-5.463999e-12 -7.454656e-12 -3.710105e-12)) ((1.040139e-15 -7.629232e-12 -1.758922e-15) (-5.844896e-14 -4.530809e-08 1.303082e-13))
1.5374        	((2.268696e-10 -1.504760e-11 -1.589082e-10) (-8.003841e-12 -8.754662e-12 9.499799e-12)) ((-2.437841e-15 -7.027681e-12 -3.143097e-15) (-1.793180e-13 -4.125315e-08 5.614427e-14))
1.85688       	((1.830122e-10 2.206749e-11 -1.208369e-10) (-1.353225e-11 -9.454690e-12 2.922402e-11)) ((-3.680641e-15 -6.480508e-12 -1.408405e-15) (-3.612111e-13 -3.759622e-08 -1.210558e-13))
2.240256      	((1.489341e-10 7.572202e-12 -1.660851e-10) (-2.096232e-11 -7.791115e-12 4.305181e-11)) ((-4.039321e-15 -6.115325e-12 -8.668486e-16) (-5.454009e-13 -3.431648e-08 -3.706744e-13))
2.700307      	((1.225785e-10 9.846374e-12 -1.323055e-10) (-3.639155e-11 -4.902548e-12 4.914553e-11)) ((-4.668203e-15 -5.850130e-12 -2.020717e-15) (-7.849568e-13 -3.139899e-08 -7.710118e-13))
3.252369      	((7.998912e-11 9.157032e-12 -8.931037e-11) (-5.415058e-11 -2.578898e-12 7.316282e-11)) ((-4.587334e-15 -5.576444e-12 -2.254995e-15) (-1.039478e-12 -2.882324e-08 -1.255119e-12))
3.914842      	((2.267621e-11 6.134271e-12 -3.900101e-11) (-6.685384e-11 1.078450e-12 1.094622e-10)) ((-2.274622e-15 -5.265980e-12 -3.701464e-15) (-1.298611e-12 -2.655801e-08 -1.545997e-12))
4.709811      	((1.172898e-11 8.891557e-12 1.073683e-11) (-8.103878e-11 4.073576e-12 1.252624e-10)) ((-2.396070e-15 -4.929251e-12 -4.105088e-15) (-1.505790e-12 -2.456059e-08 -1.717179e-12))
5.663773      	((-3.746840e-12 8.894101e-12 -1.737881e-11) (-8.989503e-11 2.097793e-12 1.193863e-10)) ((-2.446915e-15 -4.574655e-12 -1.486869e-15) (-1.541956e-12 -2.278369e-08 -1.682307e-12))
6.808528      	((-8.367168e-13 1.762000e-11 3.959514e-12) (-9.033617e-11 6.555434e-13 1.137081e-10)) ((-2.820461e-15 -4.205806e-12 7.011773e-16) (-1.409461e-12 -2.118567e-08 -1.521564e-12))
8.182233      	((-2.324584e-11 8.140216e-12 7.122402e-12) (-8.522111e-11 1.892221e-12 9.994802e-11)) ((-1.909520e-15 -3.852566e-12 5.677081e-16) (-1.225414e-12 -1.973455e-08 -1.396153e-12))
9.83068       	((-2.870617e-11 1.209259e-11 -2.121377e-11) (-7.327850e-11 2.250028e-12 7.424585e-11)) ((-2.237696e-15 -3.493265e-12 6.890220e-16) (-1.000313e-12 -1.840594e-08 -1.230482e-12))
11.808816     	((7.967727e-12 1.389350e-12 -2.320996e-11) (-5.775438e-11 -1.735801e-12 4.648958e-11)) ((-1.169186e-15 -3.172432e-12 2.050881e-15) (-8.153681e-13 -1.718316e-08 -8.652525e-13))
14.182579     	((2.896574e-12 9.188693e-12 -6.040929e-11) (-4.285145e-11 -8.251452e-12 2.903888e-11)) ((-4.561221e-16 -2.884346e-12 3.124243e-15) (-6.790871e-13 -1.605599e-08 -5.013406e-13))
17.031095     	((1.487141e-11 5.136122e-12 -3.924763e-11) (-2.720297e-11 -9.441686e-12 1.871586e-11)) ((3.971713e-16 -2.633723e-12 3.388207e-15) (-4.870062e-13 -1.501919e-08 -2.498407e-13))
20.449314     	((7.579425e-12 7.855782e-12 -4.762244e-11) (-1.547343e-11 -6.474725e-12 1.154109e-11)) ((2.288552e-16 -2.410863e-12 3.214546e-15) (-2.582797e-13 -1.406969e-08 -1.763767e-13))
24.551176     	((2.870490e-11 3.203390e-12 -3.764351e-11) (-8.760058e-12 -4.133791e-12 1.028102e-11)) ((9.456738e-16 -2.213670e-12 2.875543e-15) (-8.948006e-14 -1.320246e-08 -1.684548e-13))
29.473411     	((3.386592e-11 5.940243e-12 -1.753060e-11) (-4.744865e-12 -3.812343e-12 1.408423e-11)) ((1.740778e-15 -2.046421e-12 2.411414e-15) (-4.397870e-14 -1.241174e-08 -1.357035e-13))
35.380094     	((3.952631e-11 3.259799e-12 -2.837464e-11) (-2.594131e-12 -2.829912e-12 1.842577e-11)) ((1.993144e-15 -1.898648e-12 2.374760e-15) (-2.650868e-14 -1.169094e-08 -1.364440e-13))
42.468112     	((3.469026e-11 1.532307e-12 -1.790285e-11) (-4.049780e-12 -1.660151e-12 2.103623e-11)) ((1.978898e-15 -1.769480e-12 1.971337e-15) (-1.625754e-14 -1.103404e-08 -1.741113e-13))
50.973735     	((3.288159e-11 3.676128e-12 -1.310405e-11) (-7.474869e-12 -1.001616e-12 2.230216e-11)) ((2.073366e-15 -1.654840e-12 1.613420e-15) (-4.152371e-14 -1.043561e-08 -2.184654e-13))
61.180482     	((3.057618e-11 -2.220757e-12 -1.816581e-11) (-9.543518e-12 -1.598485e-12 2.490162e-11)) ((1.831327e-15 -1.550624e-12 1.474026e-15) (-9.154550e-14 -9.890815e-09 -2.540042e-13))
73.428578     	((2.610702e-11 6.695048e-13 -1.254823e-11) (-1.099376e-11 -2.269568e-12 2.968577e-11)) ((1.956135e-15 -1.456884e-12 1.323964e-15) (-1.438990e-13 -9.395681e-09 -2.896460e-13))
88.126294     	((1.990868e-11 -3.743179e-13 -9.710858e-12) (-1.204552e-11 -3.176608e-12 3.217670e-11)) ((1.722056e-15 -1.372513e-12 9.620824e-16) (-2.058124e-13 -8.946362e-09 -3.172245e-13))
105.763553    	((1.382908e-11 3.746494e-13 -9.306248e-12) (-1.230076e-11 -3.678118e-12 3.408371e-11)) ((1.758143e-15 -1.296938e-12 7.527909e-16) (-2.404264e-13 -8.539162e-09 -3.268244e-13))
126.928263    	((1.224102e-11 -3.581943e-13 -1.089223e-11) (-1.177303e-11 -3.170718e-12 3.679842e-11)) ((1.597137e-15 -1.229917e-12 6.692265e-16) (-2.417615e-13 -8.170464e-09 -3.382387e-13))
152.325916    	((9.997383e-12 -4.834922e-13 -9.724452e-12) (-1.051348e-11 -2.718251e-12 3.977995e-11)) ((1.399023e-15 -1.170559e-12 5.908774e-16) (-2.321192e-13 -7.836713e-09 -3.309664e-13))
182.803099    	((9.603780e-12 -1.996880e-13 -9.260988e-12) (-7.846699e-12 -2.212862e-12 4.204799e-11)) ((1.384842e-15 -1.115864e-12 6.210676e-16) (-2.204120e-13 -7.534227e-09 -2.954588e-13))
219.375719    	((5.298065e-12 6.144956e-13 -9.313556e-12) (-5.590391e-12 -1.656172e-12 4.311626e-11)) ((1.718104e-15 -1.066222e-12 7.450190e-16) (-2.098999e-13 -7.259734e-09 -2.725007e-13))
263.262863    	((5.208596e-13 1.647887e-12 -1.128420e-11) (-5.132437e-12 -1.434135e-12 4.218443e-11)) ((1.812657e-15 -1.019688e-12 8.894022e-16) (-2.066181e-13 -7.010544e-09 -2.634009e-13))
315.927436    	((-2.979915e-13 2.283479e-12 -1.070651e-11) (-4.529971e-12 -9.986801e-13 4.090800e-11)) ((1.735605e-15 -9.765608e-13 7.228273e-16) (-1.962564e-13 -6.784271e-09 -2.666698e-13))
379.124923    	((-1.994957e-12 4.961983e-13 -7.559167e-12) (-3.878934e-12 -6.847406e-13 3.942637e-11)) ((1.675881e-15 -9.375768e-13 5.395583e-16) (-1.887646e-13 -6.578920e-09 -2.694505e-13))
454.961908    	((-1.234166e-12 1.323686e-12 -4.992284e-12) (-2.995978e-12 -5.443357e-13 3.818318e-11)) ((1.404029e-15 -9.030158e-13 4.476443e-16) (-1.822871e-13 -6.392915e-09 -2.660427e-13))
545.966289    	((1.313376e-12 3.015630e-13 -3.002469e-12) (-2.192670e-12 -2.052920e-13 3.740874e-11)) ((1.061694e-15 -8.729960e-13 4.579665e-16) (-1.668355e-13 -6.225025e-09 -2.599128e-13))
655.171547    	((2.673851e-12 7.487557e-13 7.682424e-13) (-1.308760e-12 6.704543e-14 3.738603e-11)) ((7.729553e-16 -8.462188e-13 4.840393e-16) (-1.550898e-13 -6.074148e-09 -2.459328e-13))
786.217856    	((4.835965e-12 -7.163106e-13 4.984608e-13) (-6.070632e-13 8.570316e-14 3.717524e-11)) ((5.171204e-16 -8.223294e-13 4.557625e-16) (-1.479692e-13 -5.939030e-09 -2.278177e-13))
943.473427    	((4.252731e-12 -8.247968e-13 -7.961781e-13) (-6.015570e-14 3.676057e-13 3.607540e-11)) ((3.655628e-16 -8.008532e-13 4.094567e-16) (-1.373726e-13 -5.818505e-09 -2.139490e-13))
1132.180113   	((3.864261e-12 -2.029542e-13 -2.940723e-12) (4.857905e-13 5.403003e-13 3.446118e-11)) ((3.098601e-16 -7.812438e-13 3.976135e-16) (-1.246892e-13 -5.711489e-09 -2.080926e-13))
1358.628135   	((2.231916e-12 -5.483661e-13 -4.711179e-12) (8.852985e-13 4.055974e-13 3.263861e-11)) ((2.857312e-16 -7.640450e-13 3.559153e-16) (-1.173098e-13 -5.616938e-09 -2.044508e-13))
1630.365763   	((1.565247e-12 2.045689e-14 -5.820502e-12) (9.042279e-13 2.176417e-13 3.149337e-11)) ((2.581290e-16 -7.489069e-13 3.031150e-16) (-1.118915e-13 -5.533808e-09 -2.003441e-13))
1953.217412   	((1.385139e-12 2.794241e-13 -6.276918e-12) (5.758102e-13 1.304988e-13 3.035573e-11)) ((2.446145e-16 -7.359844e-13 2.718959e-16) (-1.024764e-13 -5.461151e-09 -1.957908e-13))
2327.186075   	((1.110634e-12 -4.621340e-13 -5.333753e-12) (2.334967e-13 2.499114e-13 2.906228e-11)) ((2.768621e-16 -7.249239e-13 2.603570e-16) (-9.277443e-14 -5.398119e-09 -1.924929e-13))
2752.275168   	((5.038001e-14 -2.965397e-13 -5.081536e-12) (1.251085e-13 3.214762e-13 2.804107e-11)) ((2.978647e-16 -7.154311e-13 2.317860e-16) (-8.339594e-14 -5.343807e-09 -1.876408e-13))
3228.488319   	((-1.248352e-12 -4.141684e-13 -4.331827e-12) (-5.400392e-14 2.848345e-13 2.724640e-11)) ((2.950316e-16 -7.073447e-13 2.081117e-16) (-7.505420e-14 -5.297281e-09 -1.796800e-13))
3739.765106   	((-1.975464e-12 -3.100038e-13 -4.042375e-12) (-1.128154e-13 2.599399e-13 2.653407e-11)) ((2.873669e-16 -7.003286e-13 1.823166e-16) (-6.615477e-14 -5.257686e-09 -1.716476e-13))
4251.07634    	((-1.930048e-12 -4.719730e-13 -3.780443e-12) (1.039385e-13 2.046403e-13 2.571961e-11)) ((2.898564e-16 -6.944968e-13 1.796563e-16) (-5.907603e-14 -5.224250e-09 -1.625302e-13))
4762.418915   	((-1.962473e-12 -6.820528e-13 -4.159048e-12) (3.485806e-13 1.212248e-13 2.494773e-11)) ((3.028678e-16 -6.895543e-13 1.810800e-16) (-5.459922e-14 -5.196121e-09 -1.538645e-13))
5273.790159   	((-2.220589e-12 -7.360559e-13 -4.557851e-12) (5.435393e-13 5.861420e-14 2.445664e-11)) ((3.134584e-16 -6.853113e-13 1.724127e-16) (-5.066284e-14 -5.172511e-09 -1.462692e-13))
5785.187275   	((-2.399532e-12 -7.428463e-13 -4.882276e-12) (6.787241e-13 -5.661751e-15 2.408439e-11)) ((3.087412e-16 -6.816608e-13 1.629339e-16) (-4.861069e-14 -5.152682e-09 -1.399335e-13))
6296.607707   	((-2.711344e-12 -8.629102e-13 -5.347971e-12) (8.010308e-13 -4.464799e-14 2.379438e-11)) ((3.096574e-16 -6.785852e-13 1.454625e-16) (-4.835414e-14 -5.136019e-09 -1.349901e-13))
6808.048888   	((-2.801448e-12 -8.525464e-13 -5.747590e-12) (9.330584e-13 -4.816898e-14 2.353326e-11)) ((3.150286e-16 -6.760395e-13 1.280659e-16) (-4.773702e-14 -5.121993e-09 -1.308673e-13))
7319.508241   	((-2.725826e-12 -9.178090e-13 -5.828873e-12) (1.114655e-12 -4.626538e-14 2.331952e-11)) ((3.280979e-16 -6.739036e-13 1.174882e-16) (-4.724056e-14 -5.110174e-09 -1.268528e-13))
7830.983452   	((-2.486905e-12 -1.049320e-12 -5.902746e-12) (1.314543e-12 -4.623219e-14 2.314820e-11)) ((3.161871e-16 -6.720966e-13 1.032681e-16) (-4.688734e-14 -5.100201e-09 -1.238968e-13))
8342.472487   	((-2.290889e-12 -1.159228e-12 -6.039514e-12) (1.496594e-12 -4.962450e-14 2.301265e-11)) ((3.085799e-16 -6.705574e-13 8.834283e-17) (-4.692583e-14 -5.091775e-09 -1.216339e-13))
8853.97352    	((-2.021822e-12 -1.102459e-12 -6.070102e-12) (1.669913e-12 -3.908288e-14 2.289727e-11)) ((3.100729e-16 -6.692638e-13 7.773383e-17) (-4.723014e-14 -5.084648e-09 -1.195063e-13))
9365.48494    	((-1.872227e-12 -9.603516e-13 -6.153768e-12) (1.813168e-12 -1.659335e-14 2.282551e-11)) ((3.167818e-16 -6.681575e-13 7.085241e-17) (-4.725553e-14 -5.078612e-09 -1.177678e-13))
9877.005363   	((-1.688259e-12 -9.013159e-13 -6.172374e-12) (1.920081e-12 3.568618e-15 2.279559e-11)) ((3.236921e-16 -6.672194e-13 6.591602e-17) (-4.695947e-14 -5.073497e-09 -1.162367e-13))
10388.533527  	((-1.526322e-12 -8.830388e-13 -6.215441e-12) (2.004628e-12 2.578419e-14 2.276990e-11)) ((3.251401e-16 -6.664335e-13 6.132336e-17) (-4.681257e-14 -5.069156e-09 -1.149068e-13))
10900.068283  	((-1.412458e-12 -8.665215e-13 -6.247004e-12) (2.076688e-12 4.005284e-14 2.274328e-11)) ((3.254330e-16 -6.657631e-13 5.735832e-17) (-4.663683e-14 -5.065470e-09 -1.136680e-13))
11411.608683  	((-1.325686e-12 -8.472914e-13 -6.258777e-12) (2.138843e-12 4.854418e-14 2.271717e-11)) ((3.261576e-16 -6.651932e-13 5.355610e-17) (-4.645463e-14 -5.062339e-09 -1.125939e-13))
11923.153933  	((-1.270358e-12 -8.421047e-13 -6.248186e-12) (2.193041e-12 5.065379e-14 2.269307e-11)) ((3.272293e-16 -6.647083e-13 5.017028e-17) (-4.630742e-14 -5.059677e-09 -1.116527e-13))
