# Forces      
# CofR        : (0.000000e+00 0.000000e+00 0.000000e+00)
# Time        forces(pressure viscous)	moments(pressure viscous)
0             	((0.000000e+00 0.000000e+00 0.000000e+00) (0.000000e+00 0.000000e+00 0.000000e+00)) ((0.000000e+00 0.000000e+00 0.000000e+00) (0.000000e+00 0.000000e+00 0.000000e+00))
0.012         	((2.339863e-10 -2.840051e-10 5.600846e-10) (6.357620e-13 -5.505076e-13 -3.709649e-12)) ((-2.528021e-09 2.412421e-13 4.904263e-15) (-1.759049e-06 -1.957867e-13 8.173735e-14))
0.0264        	((-2.651749e-10 -4.848868e-10 1.013876e-09) (7.499735e-12 3.983354e-12 -3.192238e-12)) ((-1.252205e-09 1.893133e-13 -4.885711e-14) (-1.611215e-06 -3.372566e-13 8.884892e-14))
0.04368       	((1.121681e-09 7.341479e-10 1.167717e-09) (8.516135e-12 1.153933e-11 -1.026996e-12)) ((-6.977438e-10 1.565628e-13 -5.402159e-14) (-1.459391e-06 -2.071987e-13 -1.159896e-13))
0.064416      	((-3.358462e-10 1.009336e-11 2.607493e-10) (4.355187e-13 1.739149e-11 2.228405e-12)) ((-3.974001e-10 1.055417e-13 2.142806e-14) (-1.306972e-06 1.393469e-13 -3.580766e-13))
0.0892992     	((1.843757e-10 2.562066e-10 1.515509e-10) (-1.255564e-11 2.079817e-11 6.205561e-12)) ((-3.030022e-10 1.076848e-13 -1.703764e-14) (-1.158491e-06 4.440292e-13 -4.814727e-13))
0.119159      	((5.315597e-10 2.793618e-10 8.823920e-10) (-1.608177e-11 1.939203e-11 1.018900e-11)) ((-2.209491e-10 7.782147e-14 1.183654e-15) (-1.018587e-06 6.304827e-13 -4.917781e-13))
0.154991      	((2.167517e-10 -5.200135e-10 -3.474921e-10) (-2.453213e-11 1.607862e-11 1.147791e-11)) ((-1.779991e-10 5.023331e-14 1.341036e-14) (-8.905311e-07 7.528930e-13 -4.476313e-13))
0.197989      	((-2.682271e-11 -1.277539e-10 2.346906e-10) (-4.664362e-11 1.392918e-11 1.104844e-11)) ((-1.434138e-10 2.374491e-14 4.391110e-17) (-7.771016e-07 7.708445e-13 -4.101095e-13))
0.249587      	((3.218784e-10 -1.302653e-10 2.570580e-10) (-7.089508e-11 1.272400e-11 1.035466e-11)) ((-1.197169e-10 1.838416e-14 5.666108e-15) (-6.796596e-07 6.883761e-13 -3.520710e-13))
0.311504      	((-9.248385e-11 -2.226436e-10 2.612946e-10) (-8.038468e-11 1.303748e-11 8.141849e-12)) ((-1.010603e-10 2.224263e-14 -9.871258e-16) (-5.978834e-07 6.016056e-13 -3.321033e-13))
0.385805      	((-2.584444e-10 -2.445575e-10 4.062183e-10) (-6.570527e-11 1.218374e-11 6.900674e-12)) ((-8.812789e-11 2.805837e-14 -1.124927e-14) (-5.300230e-07 6.050193e-13 -3.485297e-13))
0.474966      	((-1.702578e-10 -4.911119e-10 3.657860e-10) (-7.334259e-11 6.294713e-12 1.154917e-11)) ((-7.940061e-11 2.449752e-14 -1.661407e-14) (-4.734724e-07 8.347161e-13 -3.753441e-13))
0.581959      	((-8.318446e-11 -6.714959e-10 1.415736e-10) (-8.938000e-12 6.951341e-13 1.750881e-11)) ((-7.129291e-11 2.995229e-14 -2.735690e-14) (-4.256471e-07 1.220227e-12 -5.023992e-13))
0.710351      	((-7.079958e-10 -8.127292e-10 5.064762e-10) (7.716139e-11 -9.321325e-13 2.105737e-11)) ((-6.340511e-11 2.555878e-14 -2.438921e-14) (-3.844538e-07 1.435087e-12 -6.169750e-13))
0.864421      	((-1.019664e-09 -7.036958e-10 3.969244e-10) (1.029637e-10 3.556143e-12 2.511701e-11)) ((-5.785681e-11 3.087061e-14 -2.072138e-14) (-3.483685e-07 1.226674e-12 -5.256539e-13))
1.049306      	((-2.669176e-10 -6.625050e-10 8.961166e-10) (1.089320e-10 1.032704e-11 1.773882e-11)) ((-5.425009e-11 3.362749e-14 -1.802716e-14) (-3.163400e-07 7.796620e-13 -5.442981e-13))
1.271167      	((-3.755851e-10 -7.962261e-10 8.902968e-10) (6.581863e-11 1.394925e-11 -4.090936e-12)) ((-5.079311e-11 2.011369e-14 -1.525091e-14) (-2.876427e-07 2.850426e-13 -7.585910e-13))
1.5374        	((8.881105e-11 -1.003028e-09 5.631950e-10) (1.511001e-11 2.980526e-11 -2.663221e-11)) ((-4.682025e-11 1.001435e-14 -1.382405e-14) (-2.617969e-07 1.581898e-14 -1.322663e-12))
1.85688       	((-4.111084e-11 -1.043636e-09 5.634506e-10) (-4.730830e-12 6.288447e-11 -4.642083e-11)) ((-4.281638e-11 4.018502e-15 -6.689668e-15) (-2.385369e-07 -2.159963e-13 -2.352580e-12))
2.240256      	((-1.688596e-11 -1.117234e-09 5.177078e-10) (-3.230221e-11 1.023741e-10 -8.852510e-11)) ((-3.978548e-11 -1.382949e-14 6.805820e-15) (-2.177325e-07 -1.020681e-12 -3.612317e-12))
2.700307      	((-1.978331e-10 -1.196784e-09 9.647481e-12) (-3.828183e-11 1.615844e-10 -1.530065e-10)) ((-3.742174e-11 -3.225854e-14 2.146655e-14) (-1.992771e-07 -2.135464e-12 -5.176817e-12))
3.252369      	((-4.587322e-11 -1.039572e-09 -1.410553e-10) (3.966724e-12 2.462223e-10 -2.398103e-10)) ((-3.496797e-11 -4.187624e-14 2.997370e-14) (-1.830227e-07 -2.965551e-12 -7.065129e-12))
3.914842      	((-3.986982e-11 -5.963985e-10 -1.754901e-10) (2.976575e-11 3.277020e-10 -3.270109e-10)) ((-3.247364e-11 -3.973197e-14 3.181251e-14) (-1.687463e-07 -3.608628e-12 -8.683104e-12))
4.709811      	((-1.151770e-10 8.603173e-12 1.555519e-10) (4.920167e-12 3.962503e-10 -3.681070e-10)) ((-3.007431e-11 -3.857624e-14 3.207984e-14) (-1.561514e-07 -4.676015e-12 -9.260845e-12))
5.663773      	((-2.000792e-10 1.936880e-10 2.202047e-11) (-4.276045e-12 4.171324e-10 -3.669562e-10)) ((-2.756843e-11 -3.739673e-14 2.415730e-14) (-1.449272e-07 -5.254540e-12 -9.008824e-12))
6.808528      	((-1.698093e-10 3.226501e-10 -1.033669e-10) (-2.549263e-11 3.798705e-10 -3.274105e-10)) ((-2.509094e-11 -3.026700e-14 1.657187e-14) (-1.348110e-07 -4.700135e-12 -8.297532e-12))
8.182233      	((-1.117381e-10 4.135647e-10 -9.264446e-11) (-7.494237e-11 3.202637e-10 -2.481096e-10)) ((-2.278450e-11 -2.456561e-14 2.114765e-14) (-1.256088e-07 -3.838649e-12 -6.947293e-12))
9.83068       	((-2.054411e-10 4.054777e-10 1.150558e-10) (-9.765488e-11 2.622913e-10 -1.707686e-10)) ((-2.057280e-11 -1.481704e-14 2.005956e-14) (-1.171799e-07 -3.028652e-12 -5.489609e-12))
11.808816     	((-1.495844e-10 7.962700e-11 4.398671e-11) (-8.623032e-11 2.002829e-10 -1.107559e-10)) ((-1.856193e-11 -1.198993e-14 2.989896e-14) (-1.094192e-07 -2.405357e-12 -4.199246e-12))
14.182579     	((-2.305446e-10 -1.096432e-10 3.882774e-11) (-6.718677e-11 1.467079e-10 -6.691648e-11)) ((-1.677676e-11 -9.782188e-15 3.440452e-14) (-1.022567e-07 -1.621407e-12 -3.395753e-12))
17.031095     	((-2.308993e-10 -9.876307e-12 2.811008e-11) (-5.167499e-11 1.106335e-10 -5.021237e-11)) ((-1.521553e-11 -1.376228e-14 3.951626e-14) (-9.565781e-08 -9.514648e-13 -2.667240e-12))
20.449314     	((-8.686591e-11 -2.121390e-11 3.550454e-11) (-4.419238e-11 8.626697e-11 -2.685682e-11)) ((-1.387711e-11 -2.350105e-14 4.579723e-14) (-8.961070e-08 -3.472504e-13 -2.028269e-12))
24.551176     	((-1.418244e-12 -3.238478e-11 4.629826e-13) (-4.852277e-11 6.592691e-11 -6.750892e-12)) ((-1.273363e-11 -2.833324e-14 4.907468e-14) (-8.409962e-08 1.220822e-13 -1.797560e-12))
29.473411     	((-8.254428e-11 -1.057444e-10 -1.829254e-11) (-3.831194e-11 4.943571e-11 8.953258e-12)) ((-1.172430e-11 -2.851605e-14 4.619564e-14) (-7.909416e-08 3.931276e-13 -1.734386e-12))
35.380094     	((-6.254071e-11 -7.945921e-11 -4.891928e-11) (-3.754757e-11 4.431365e-11 2.396893e-11)) ((-1.081962e-11 -2.799598e-14 4.307866e-14) (-7.455411e-08 5.615515e-13 -1.816535e-12))
42.468112     	((-9.685493e-11 -1.185753e-10 -1.209613e-10) (-3.362245e-11 3.199702e-11 1.871169e-11)) ((-1.001457e-11 -2.610803e-14 4.072944e-14) (-7.043757e-08 4.828434e-13 -1.945781e-12))
50.973735     	((-6.766483e-11 -5.689274e-11 -8.348044e-11) (-2.846340e-11 2.722696e-11 1.251318e-11)) ((-9.321079e-12 -2.449550e-14 3.698637e-14) (-6.670147e-08 1.035179e-13 -1.923730e-12))
61.180482     	((-3.822549e-11 4.655001e-12 -3.308660e-12) (-2.387796e-11 2.402110e-11 1.272551e-11)) ((-8.691210e-12 -1.954206e-14 3.270868e-14) (-6.330692e-08 -2.919265e-13 -1.892884e-12))
73.428578     	((6.227658e-12 3.475626e-11 5.409674e-11) (-1.699129e-11 7.999494e-12 8.790064e-12)) ((-8.146004e-12 -1.769136e-14 2.776264e-14) (-6.021984e-08 -3.816341e-13 -1.900417e-12))
88.126294     	((-4.642284e-12 3.994511e-11 6.620641e-11) (-2.448891e-11 -6.720095e-12 1.406817e-11)) ((-7.682700e-12 -1.624238e-14 2.482921e-14) (-5.741067e-08 -4.261781e-13 -1.904538e-12))
105.763553    	((-1.666474e-11 7.670201e-11 9.410390e-11) (-2.516707e-11 -1.500719e-11 2.292417e-11)) ((-7.291503e-12 -1.301354e-14 2.208726e-14) (-5.486005e-08 -4.864330e-13 -1.914273e-12))
126.928263    	((-3.411027e-13 6.558845e-11 9.244866e-11) (-2.579157e-11 -1.664823e-11 2.596313e-11)) ((-6.934433e-12 -1.249955e-14 2.159393e-14) (-5.254920e-08 -6.448034e-13 -1.863205e-12))
152.325916    	((3.279463e-11 7.305204e-11 1.020562e-10) (-2.390624e-11 -1.940485e-11 1.753896e-11)) ((-6.572202e-12 -1.381232e-14 2.139422e-14) (-5.046083e-08 -8.524657e-13 -1.672312e-12))
182.803099    	((4.405289e-11 6.007915e-11 9.029309e-11) (-1.766167e-11 -1.944544e-11 6.046909e-12)) ((-6.228520e-12 -1.231640e-14 1.989159e-14) (-4.857778e-08 -1.103863e-12 -1.336120e-12))
219.375719    	((6.565010e-11 -2.159682e-11 1.700728e-11) (-3.769371e-12 -2.539421e-11 -3.971610e-12)) ((-5.933836e-12 -1.202001e-14 1.948812e-14) (-4.688352e-08 -1.214226e-12 -9.543862e-13))
263.262863    	((7.189950e-11 -7.351421e-11 -5.918416e-12) (2.720670e-12 -3.222951e-11 -1.137007e-11)) ((-5.681981e-12 -1.216613e-14 1.939769e-14) (-4.536385e-08 -1.236674e-12 -4.647451e-13))
315.243553    	((6.586384e-11 -1.004523e-10 -2.559331e-11) (2.233814e-13 -3.905148e-11 -1.456035e-11)) ((-5.470234e-12 -1.161385e-14 1.781930e-14) (-4.401192e-08 -1.202213e-12 -3.737076e-14))
375.316302    	((4.034091e-11 -1.057026e-10 -2.031565e-11) (-1.347419e-11 -4.788787e-11 -1.751342e-11)) ((-5.287128e-12 -1.078613e-14 1.551486e-14) (-4.282324e-08 -1.086815e-12 2.775235e-13))
443.47951     	((2.200195e-11 -1.161332e-10 -2.621293e-11) (-2.024211e-11 -5.643925e-11 -1.855017e-11)) ((-5.138455e-12 -9.264302e-15 1.336331e-14) (-4.178831e-08 -9.396827e-13 5.528807e-13))
519.731632    	((2.360172e-11 -1.244110e-10 -4.181437e-11) (-2.271055e-11 -5.899573e-11 -9.889932e-12)) ((-5.015015e-12 -8.843707e-15 1.202098e-14) (-4.089549e-08 -7.510333e-13 7.541360e-13))
600.605996    	((2.989714e-11 -1.294338e-10 -5.411373e-11) (-1.826033e-11 -5.617482e-11 -2.962489e-14)) ((-4.913199e-12 -8.434202e-15 1.139649e-14) (-4.013834e-08 -5.122291e-13 7.791156e-13))
681.462157    	((2.484534e-11 -1.308499e-10 -5.964312e-11) (-1.899805e-11 -4.738133e-11 1.254964e-11)) ((-4.829617e-12 -8.716332e-15 1.118209e-14) (-3.950929e-08 -3.043838e-13 6.701040e-13))
762.302204    	((2.588228e-11 -1.258453e-10 -6.567647e-11) (-1.809960e-11 -4.274500e-11 1.868290e-11)) ((-4.758848e-12 -8.551332e-15 1.066866e-14) (-3.899274e-08 -1.860338e-13 5.708648e-13))
843.128561    	((2.822679e-11 -1.213568e-10 -6.935921e-11) (-1.468120e-11 -3.776380e-11 2.317952e-11)) ((-4.700607e-12 -8.184237e-15 1.030612e-14) (-3.857218e-08 -9.384771e-14 4.640568e-13))
923.943589    	((3.211774e-11 -1.177747e-10 -7.487244e-11) (-1.047162e-11 -3.298971e-11 2.655844e-11)) ((-4.655762e-12 -7.855554e-15 9.922353e-15) (-3.823080e-08 -1.841059e-14 3.579591e-13))
1004.747343   	((2.353560e-11 -1.136613e-10 -7.647853e-11) (-6.772953e-12 -2.919276e-11 2.955348e-11)) ((-4.619277e-12 -7.565166e-15 9.405310e-15) (-3.795464e-08 6.658297e-14 2.421743e-13))
1085.539832   	((5.712422e-12 -1.177058e-10 -8.350371e-11) (-6.675255e-12 -2.877201e-11 2.994285e-11)) ((-4.588913e-12 -7.735364e-15 9.146486e-15) (-3.773182e-08 1.576359e-13 1.509400e-13))
1166.323431   	((-3.131078e-12 -1.162689e-10 -8.329269e-11) (-5.624745e-12 -2.818932e-11 3.056836e-11)) ((-4.564379e-12 -7.684336e-15 9.079793e-15) (-3.755299e-08 2.268180e-13 1.072747e-13))
1247.100375   	((-4.155872e-12 -1.190277e-10 -8.347428e-11) (-3.519132e-12 -2.778277e-11 3.127635e-11)) ((-4.544276e-12 -7.458902e-15 9.118794e-15) (-3.741029e-08 2.657948e-13 1.103488e-13))
1327.872839   	((-4.754890e-13 -1.185020e-10 -7.928642e-11) (-3.630157e-12 -2.852508e-11 3.238490e-11)) ((-4.529022e-12 -7.222212e-15 9.185908e-15) (-3.729744e-08 3.091924e-13 1.253420e-13))
1408.643009   	((2.727021e-12 -1.189851e-10 -7.661501e-11) (-3.998616e-12 -2.952700e-11 3.529326e-11)) ((-4.517208e-12 -7.137671e-15 9.182535e-15) (-3.720910e-08 3.760552e-13 1.247227e-13))
1489.41303    	((1.201710e-11 -1.185034e-10 -7.513668e-11) (-1.835690e-12 -3.072573e-11 3.801868e-11)) ((-4.507697e-12 -7.206437e-15 9.169675e-15) (-3.714087e-08 4.474467e-13 1.051623e-13))
1570.184846   	((1.915344e-11 -1.151061e-10 -7.125996e-11) (5.078822e-13 -3.170951e-11 4.041199e-11)) ((-4.500311e-12 -7.206611e-15 9.018776e-15) (-3.708912e-08 5.221814e-13 5.984182e-14))
1650.958276   	((2.317482e-11 -1.105643e-10 -6.802490e-11) (2.257251e-12 -3.297139e-11 4.192876e-11)) ((-4.494845e-12 -7.161713e-15 8.815433e-15) (-3.705088e-08 5.901521e-13 3.001082e-15))
1731.732724   	((1.983250e-11 -1.065425e-10 -6.535594e-11) (3.498271e-12 -3.312141e-11 4.388763e-11)) ((-4.491318e-12 -7.062208e-15 8.637017e-15) (-3.702369e-08 6.388733e-13 -5.267986e-14))
1812.509494   	((1.932000e-11 -1.025486e-10 -6.236789e-11) (3.436419e-12 -3.263632e-11 4.556861e-11)) ((-4.489214e-12 -7.038907e-15 8.542479e-15) (-3.700547e-08 6.652575e-13 -9.977585e-14))
1893.289768   	((1.838760e-11 -9.899032e-11 -6.057069e-11) (3.407046e-12 -3.233551e-11 4.678386e-11)) ((-4.488447e-12 -6.946518e-15 8.458185e-15) (-3.699447e-08 6.788779e-13 -1.334531e-13))
