# Forces      
# CofR        : (0.000000e+00 0.000000e+00 0.000000e+00)
# Time        forces(pressure viscous)	moments(pressure viscous)
0             	((0.000000e+00 0.000000e+00 0.000000e+00) (3.077094e-12 5.036594e-02 -6.885184e-12)) ((0.000000e+00 0.000000e+00 0.000000e+00) (9.994487e-13 -1.332292e-14 -1.585578e-08))
0.0112126     	((1.736196e-03 1.580510e+01 1.120179e-03) (2.798432e-06 1.076340e-01 -8.671298e-06)) ((2.029121e-08 1.757332e-08 -3.360615e-06) (1.829740e-07 5.979480e-10 -6.180761e-08))
0.0246677     	((-1.250715e-03 -7.293889e+00 -1.770291e-03) (2.551293e-05 9.921964e-02 -1.034428e-05)) ((1.317909e-07 -6.379069e-09 1.444391e-06) (5.431792e-07 -1.783235e-09 -1.326956e-07))
0.0408139     	((4.719851e-04 1.503559e+00 2.656944e-04) (1.616508e-05 8.097813e-02 -4.531398e-06)) ((-1.116744e-07 -1.805143e-09 -1.955492e-07) (3.510455e-07 -2.544270e-09 1.270082e-07))
0.0601893     	((-1.680676e-03 -5.877906e-01 -7.580233e-04) (-2.399304e-05 7.481883e-02 -4.964307e-06)) ((6.077163e-08 -7.593576e-09 -5.290006e-07) (2.147842e-07 -1.254208e-09 1.021003e-06))
0.0829011     	((-5.149239e-04 4.225153e-01 3.064521e-04) (-4.908495e-05 7.087828e-02 -4.481480e-06)) ((-3.696792e-08 -1.112224e-08 -3.904591e-07) (1.968120e-07 -2.137525e-09 1.656476e-06))
0.10893       	((-1.690252e-03 -2.558071e-02 -1.776823e-04) (-6.159122e-05 6.936589e-02 -2.360396e-06)) ((5.923649e-09 1.973267e-09 -5.009742e-07) (7.253267e-08 6.491801e-10 1.925709e-06))
0.138255      	((-3.347311e-04 1.910892e-01 1.230226e-04) (-5.471168e-05 6.808782e-02 5.216835e-07)) ((-1.943811e-08 4.385230e-09 -5.886611e-07) (1.159940e-08 2.576987e-09 2.226990e-06))
0.170855      	((-8.855634e-04 1.059213e-01 -1.122688e-04) (-5.328207e-05 6.731386e-02 5.757388e-07)) ((-1.327938e-09 -1.854583e-09 -7.252108e-07) (-7.524710e-08 3.849310e-09 2.645983e-06))
0.203636      	((-2.369531e-04 1.700688e-01 -1.233674e-04) (-4.973932e-05 6.689095e-02 -3.621076e-07)) ((-1.898081e-09 4.919061e-09 -7.966067e-07) (-1.107833e-07 4.947993e-09 2.884802e-06))
0.236351      	((-2.190795e-04 1.600354e-01 -1.795658e-04) (-4.495060e-05 6.666555e-02 8.611300e-07)) ((-1.217799e-09 1.835406e-10 -9.137584e-07) (-1.403507e-07 2.178656e-09 3.190031e-06))
0.268858      	((2.304375e-04 1.875003e-01 -3.411510e-04) (-4.619522e-05 6.649788e-02 -2.075362e-06)) ((2.884853e-09 -1.142791e-09 -9.546002e-07) (-1.352432e-07 2.504273e-09 3.424936e-06))
0.301139      	((3.170205e-04 1.938788e-01 -4.038212e-04) (-4.734889e-05 6.630735e-02 -1.865104e-06)) ((5.935831e-09 5.161315e-09 -1.047357e-06) (-1.093842e-07 1.362762e-09 3.633175e-06))
0.333285      	((9.628906e-04 2.065438e-01 -3.710692e-04) (-4.749671e-05 6.601055e-02 -1.425734e-06)) ((-2.524724e-09 3.359323e-09 -1.092781e-06) (-1.024200e-07 1.088626e-09 4.033495e-06))
0.3654        	((1.235333e-03 2.108706e-01 -5.780216e-04) (-5.194644e-05 6.562608e-02 -4.333115e-06)) ((1.247659e-08 3.880763e-10 -1.164557e-06) (-5.592734e-08 3.076459e-09 4.297752e-06))
0.397528      	((1.897473e-03 2.148046e-01 -5.490494e-04) (-5.078611e-05 6.520908e-02 -1.998839e-06)) ((1.148143e-09 5.282352e-09 -1.239022e-06) (-2.887842e-08 1.661939e-09 4.450691e-06))
0.429748      	((2.722875e-03 2.150413e-01 -6.742503e-04) (-4.418630e-05 6.481004e-02 -2.349055e-06)) ((1.261636e-08 -3.076546e-09 -1.316878e-06) (-3.591024e-08 4.768857e-09 4.681285e-06))
0.462065      	((3.662088e-03 2.159488e-01 -8.220155e-04) (-3.533089e-05 6.445787e-02 -3.949557e-06)) ((1.568887e-08 4.128339e-10 -1.369514e-06) (-2.471886e-08 7.528268e-09 4.956268e-06))
0.494387      	((4.528570e-03 2.145872e-01 -8.805115e-04) (-2.697344e-05 6.414283e-02 -2.668059e-06)) ((7.084329e-09 1.880503e-09 -1.415298e-06) (-1.063276e-09 7.826610e-09 5.151696e-06))
0.526712      	((5.468446e-03 2.132647e-01 -1.087671e-03) (-1.964438e-05 6.385003e-02 -4.251888e-06)) ((2.103756e-08 -6.337554e-09 -1.454476e-06) (6.196987e-08 7.298539e-09 5.310508e-06))
0.559053      	((6.462979e-03 2.113272e-01 -1.244190e-03) (-1.231382e-05 6.358270e-02 -4.839063e-06)) ((1.479923e-08 2.015174e-09 -1.493913e-06) (1.373972e-07 4.879090e-09 5.461793e-06))
0.591415      	((7.587723e-03 2.097311e-01 -1.491868e-03) (-5.126977e-06 6.332991e-02 -5.967766e-06)) ((1.588202e-08 -3.883574e-09 -1.536492e-06) (1.911060e-07 2.167408e-09 5.622891e-06))
0.623795      	((8.832362e-03 2.088329e-01 -1.747602e-03) (2.142735e-06 6.309469e-02 -7.106550e-06)) ((2.815965e-08 -7.431903e-09 -1.576955e-06) (2.617782e-07 3.960064e-10 5.854525e-06))
0.656187      	((1.023596e-02 2.081624e-01 -1.939787e-03) (9.058561e-06 6.288171e-02 -6.796565e-06)) ((2.416812e-08 -4.278371e-09 -1.610774e-06) (3.229638e-07 1.022647e-09 6.187751e-06))
0.688588      	((1.186212e-02 2.074679e-01 -2.248711e-03) (1.596247e-05 6.269010e-02 -8.279476e-06)) ((3.140856e-08 -6.754842e-09 -1.640638e-06) (3.947367e-07 1.964544e-09 6.623625e-06))
0.721001      	((1.363686e-02 2.065495e-01 -2.603542e-03) (2.271908e-05 6.252009e-02 -9.744541e-06)) ((3.972098e-08 -6.736222e-09 -1.668442e-06) (5.007873e-07 2.803722e-09 7.152811e-06))
0.753424      	((1.564051e-02 2.055799e-01 -2.966350e-03) (2.919391e-05 6.236696e-02 -1.021181e-05)) ((4.328540e-08 -5.484086e-09 -1.694655e-06) (6.020320e-07 3.908708e-09 7.797641e-06))
0.785856      	((1.796287e-02 2.046783e-01 -3.432641e-03) (3.594428e-05 6.222668e-02 -1.163050e-05)) ((5.141131e-08 -4.592710e-09 -1.720166e-06) (7.359077e-07 3.884342e-09 8.584177e-06))
0.818295      	((2.060403e-02 2.038586e-01 -3.967495e-03) (4.333915e-05 6.209732e-02 -1.346284e-05)) ((6.073386e-08 -3.535253e-09 -1.746987e-06) (9.058424e-07 8.595616e-10 9.501473e-06))
0.85074       	((2.364513e-02 2.030237e-01 -4.543095e-03) (5.183246e-05 6.197681e-02 -1.537595e-05)) ((6.969022e-08 -3.636026e-09 -1.773065e-06) (1.083671e-06 -1.514177e-10 1.052813e-05))
0.883192      	((2.706983e-02 2.021068e-01 -5.231017e-03) (6.175757e-05 6.186362e-02 -1.795993e-05)) ((7.929643e-08 -3.454892e-09 -1.797482e-06) (1.294965e-06 9.731975e-10 1.167858e-05))
0.915648      	((3.088952e-02 2.012509e-01 -6.009865e-03) (7.308423e-05 6.175819e-02 -2.064876e-05)) ((9.074325e-08 -3.900460e-09 -1.821600e-06) (1.541674e-06 2.123594e-10 1.296975e-05))
0.948109      	((3.519826e-02 2.004937e-01 -6.863387e-03) (8.598856e-05 6.165996e-02 -2.340657e-05)) ((1.020846e-07 -4.350476e-09 -1.845877e-06) (1.814650e-06 1.080966e-09 1.440956e-05))
0.980572      	((4.006819e-02 1.999363e-01 -7.877483e-03) (1.009826e-04 6.156888e-02 -2.697114e-05)) ((1.151449e-07 -4.470980e-09 -1.870688e-06) (2.133977e-06 1.411045e-09 1.600384e-05))
1.013038      	((4.556339e-02 1.995317e-01 -9.011755e-03) (1.183108e-04 6.148570e-02 -3.077827e-05)) ((1.307419e-07 -4.640297e-09 -1.895876e-06) (2.504902e-06 3.082831e-09 1.777164e-05))
1.045505      	((5.178089e-02 1.992495e-01 -1.027240e-02) (1.383318e-04 6.140977e-02 -3.478936e-05)) ((1.478080e-07 -4.215990e-09 -1.919576e-06) (2.902118e-06 7.165392e-09 1.974421e-05))
1.077971      	((5.881564e-02 1.990875e-01 -1.173500e-02) (1.619024e-04 6.134096e-02 -4.013745e-05)) ((1.661576e-07 -1.366979e-09 -1.940152e-06) (3.336201e-06 1.073214e-08 2.193827e-05))
1.110433      	((6.679640e-02 1.990737e-01 -1.340844e-02) (1.893264e-04 6.127930e-02 -4.652226e-05)) ((1.883411e-07 2.299557e-09 -1.958128e-06) (3.821080e-06 1.565381e-08 2.438071e-05))
1.14289       	((7.584378e-02 1.992455e-01 -1.529198e-02) (2.204340e-04 6.122455e-02 -5.340233e-05)) ((2.110270e-07 6.878133e-09 -1.973422e-06) (4.373177e-06 2.106310e-08 2.712990e-05))
1.17534       	((8.604421e-02 1.996125e-01 -1.747571e-02) (2.549043e-04 6.117671e-02 -6.132564e-05)) ((2.373227e-07 1.492717e-08 -1.987903e-06) (5.020923e-06 2.554062e-08 3.027491e-05))
1.207782      	((9.751828e-02 2.002462e-01 -1.992900e-02) (2.930419e-04 6.113579e-02 -7.012599e-05)) ((2.649886e-07 2.346761e-08 -2.004575e-06) (5.774134e-06 3.045685e-08 3.387863e-05))
1.240213      	((1.103745e-01 2.012123e-01 -2.270989e-02) (3.357398e-04 6.110212e-02 -7.990253e-05)) ((2.945544e-07 3.492221e-08 -2.024838e-06) (6.636306e-06 2.911934e-08 3.795031e-05))
1.272632      	((1.248933e-01 2.024876e-01 -2.587535e-02) (3.843531e-04 6.107658e-02 -9.091768e-05)) ((3.303706e-07 5.268113e-08 -2.047220e-06) (7.632130e-06 1.666031e-08 4.250990e-05))
1.305036      	((1.411979e-01 2.042348e-01 -2.939918e-02) (4.399835e-04 6.106029e-02 -1.035074e-04)) ((3.731920e-07 7.345235e-08 -2.071328e-06) (8.747990e-06 -1.416855e-09 4.762058e-05))
1.337422      	((1.593413e-01 2.064529e-01 -3.329253e-02) (5.042427e-04 6.105471e-02 -1.177098e-04)) ((4.209422e-07 9.763078e-08 -2.092238e-06) (9.981229e-06 -1.107223e-08 5.329345e-05))
1.369788      	((1.793274e-01 2.095491e-01 -3.752732e-02) (5.783649e-04 6.106256e-02 -1.339278e-04)) ((4.726949e-07 1.290408e-07 -2.108317e-06) (1.133392e-05 -7.424959e-09 5.947989e-05))
1.402132      	((2.012702e-01 2.134702e-01 -4.221221e-02) (6.636357e-04 6.108622e-02 -1.525013e-04)) ((5.329655e-07 1.667282e-07 -2.121440e-06) (1.280105e-05 -5.273795e-09 6.615998e-05))
1.43445       	((2.253210e-01 2.180824e-01 -4.722783e-02) (7.609440e-04 6.112826e-02 -1.738442e-04)) ((5.982844e-07 2.082095e-07 -2.132414e-06) (1.435922e-05 -1.316511e-08 7.333792e-05))
1.46674       	((2.513951e-01 2.237044e-01 -5.266415e-02) (8.726573e-04 6.119091e-02 -1.988587e-04)) ((6.639344e-07 2.601437e-07 -2.150338e-06) (1.599975e-05 -1.963667e-08 8.099472e-05))
1.498993      	((2.790010e-01 2.305996e-01 -5.847677e-02) (9.996098e-04 6.127643e-02 -2.283758e-04)) ((7.244759e-07 3.221018e-07 -2.171432e-06) (1.767283e-05 -1.685886e-08 8.907422e-05))
1.531206      	((3.077203e-01 2.391964e-01 -6.452889e-02) (1.139895e-03 6.138557e-02 -2.617867e-04)) ((7.812896e-07 3.984590e-07 -2.193107e-06) (1.938729e-05 -1.102813e-08 9.764691e-05))
1.563377      	((3.370269e-01 2.491386e-01 -7.061018e-02) (1.289841e-03 6.152086e-02 -2.978679e-04)) ((8.320302e-07 4.856243e-07 -2.217039e-06) (2.118373e-05 -2.006278e-08 1.067758e-04))
1.595501      	((3.661911e-01 2.604524e-01 -7.662139e-02) (1.449117e-03 6.168327e-02 -3.354993e-04)) ((8.672186e-07 5.673759e-07 -2.250431e-06) (2.303366e-05 -1.265665e-08 1.163049e-04))
1.627578      	((3.931913e-01 2.736614e-01 -8.230302e-02) (1.615716e-03 6.187407e-02 -3.737142e-04)) ((8.922717e-07 6.331797e-07 -2.296198e-06) (2.492517e-05 4.813376e-08 1.259857e-04))
1.659594      	((4.170532e-01 2.884801e-01 -8.713719e-02) (1.784665e-03 6.209281e-02 -4.106233e-04)) ((9.057624e-07 6.953875e-07 -2.349090e-06) (2.680625e-05 1.265603e-07 1.355486e-04))
1.691547      	((4.361597e-01 3.035669e-01 -9.117747e-02) (1.946785e-03 6.233772e-02 -4.453182e-04)) ((9.247665e-07 7.584651e-07 -2.409477e-06) (2.861330e-05 1.667261e-07 1.448868e-04))
1.72344       	((4.485556e-01 3.179114e-01 -9.381430e-02) (2.094707e-03 6.260103e-02 -4.785969e-04)) ((9.316448e-07 8.056196e-07 -2.466464e-06) (3.023223e-05 1.999118e-07 1.535707e-04))
1.75528       	((4.529488e-01 3.300792e-01 -9.489236e-02) (2.220925e-03 6.287155e-02 -5.081037e-04)) ((9.060986e-07 8.037953e-07 -2.520243e-06) (3.151880e-05 2.889165e-07 1.610480e-04))
1.787077      	((4.487761e-01 3.393571e-01 -9.395706e-02) (2.313103e-03 6.313585e-02 -5.291227e-04)) ((8.539583e-07 7.611689e-07 -2.590912e-06) (3.247992e-05 4.291912e-07 1.670734e-04))
1.818833      	((4.353859e-01 3.445630e-01 -9.072203e-02) (2.355444e-03 6.338336e-02 -5.392734e-04)) ((7.713725e-07 6.916294e-07 -2.652091e-06) (3.305729e-05 4.873220e-07 1.715615e-04))
1.850552      	((4.139561e-01 3.452421e-01 -8.568235e-02) (2.332938e-03 6.360569e-02 -5.397418e-04)) ((6.652287e-07 5.970707e-07 -2.633453e-06) (3.312058e-05 3.960973e-07 1.745412e-04))
1.882243      	((3.864593e-01 3.423153e-01 -7.898425e-02) (2.236000e-03 6.379608e-02 -5.280266e-04)) ((5.474309e-07 5.031846e-07 -2.521490e-06) (3.272028e-05 2.457869e-07 1.762950e-04))
1.913921      	((3.572032e-01 3.365709e-01 -7.196894e-02) (2.067318e-03 6.395169e-02 -5.030391e-04)) ((4.445513e-07 4.162640e-07 -2.384390e-06) (3.195573e-05 1.100371e-07 1.771919e-04))
1.945598      	((3.294629e-01 3.290681e-01 -6.575362e-02) (1.849358e-03 6.408213e-02 -4.678165e-04)) ((3.804055e-07 3.502199e-07 -2.253968e-06) (3.096907e-05 -1.327345e-08 1.769908e-04))
1.977285      	((3.071834e-01 3.204870e-01 -6.047407e-02) (1.614276e-03 6.418962e-02 -4.256890e-04)) ((3.369803e-07 2.980530e-07 -2.160421e-06) (2.992405e-05 -1.215335e-07 1.757963e-04))
2.008992      	((2.928905e-01 3.125193e-01 -5.684193e-02) (1.389502e-03 6.428204e-02 -3.782072e-04)) ((3.425933e-07 2.919412e-07 -2.135528e-06) (2.907329e-05 -1.960326e-07 1.739319e-04))
2.040722      	((2.862345e-01 3.052172e-01 -5.464942e-02) (1.194784e-03 6.437361e-02 -3.278111e-04)) ((3.904098e-07 3.430173e-07 -2.192570e-06) (2.851361e-05 -1.656629e-07 1.715447e-04))
2.072477      	((2.863772e-01 2.987180e-01 -5.397064e-02) (1.050783e-03 6.446666e-02 -2.808913e-04)) ((4.505947e-07 4.249998e-07 -2.284964e-06) (2.813748e-05 1.569878e-09 1.687083e-04))
2.104257      	((2.913773e-01 2.919083e-01 -5.444251e-02) (9.720890e-04 6.455401e-02 -2.476904e-04)) ((4.970190e-07 5.019341e-07 -2.337374e-06) (2.777614e-05 1.928890e-07 1.654431e-04))
2.136056      	((2.976323e-01 2.861143e-01 -5.536359e-02) (9.654680e-04 6.463087e-02 -2.372664e-04)) ((5.287273e-07 5.732801e-07 -2.339925e-06) (2.709057e-05 1.482438e-07 1.613860e-04))
2.16787       	((3.036758e-01 2.801035e-01 -5.617559e-02) (1.016534e-03 6.468680e-02 -2.475119e-04)) ((5.499838e-07 6.218828e-07 -2.290299e-06) (2.597824e-05 -2.225942e-07 1.569494e-04))
2.199693      	((3.068648e-01 2.744902e-01 -5.644050e-02) (1.083659e-03 6.471433e-02 -2.644661e-04)) ((5.839231e-07 6.360573e-07 -2.220325e-06) (2.489980e-05 -7.051073e-07 1.533913e-04))
2.231521      	((3.047403e-01 2.700818e-01 -5.650211e-02) (1.124772e-03 6.472200e-02 -2.755383e-04)) ((5.982313e-07 6.036151e-07 -2.203269e-06) (2.417439e-05 -1.051779e-06 1.513676e-04))
2.26335       	((2.978387e-01 2.686479e-01 -5.595655e-02) (1.126494e-03 6.472416e-02 -2.744500e-04)) ((5.572571e-07 5.118422e-07 -2.203489e-06) (2.377868e-05 -1.133594e-06 1.504152e-04))
2.295178      	((2.869197e-01 2.688404e-01 -5.469682e-02) (1.097199e-03 6.473001e-02 -2.655647e-04)) ((4.562519e-07 3.404206e-07 -2.145468e-06) (2.361418e-05 -1.019867e-06 1.496708e-04))
2.327005      	((2.731410e-01 2.694520e-01 -5.287977e-02) (1.044258e-03 6.473774e-02 -2.524382e-04)) ((3.413024e-07 1.483648e-07 -2.007781e-06) (2.365176e-05 -8.990624e-07 1.487100e-04))
2.358833      	((2.578896e-01 2.691868e-01 -5.017217e-02) (9.765648e-04 6.474463e-02 -2.322175e-04)) ((2.543962e-07 -5.235943e-09 -1.818635e-06) (2.364453e-05 -8.708692e-07 1.470677e-04))
2.390663      	((2.426056e-01 2.694021e-01 -4.767580e-02) (8.839243e-04 6.474680e-02 -2.105524e-04)) ((2.314005e-07 -1.002639e-07 -1.635515e-06) (2.353368e-05 -9.769914e-07 1.453717e-04))
2.4225        	((2.286490e-01 2.700276e-01 -4.532389e-02) (7.612241e-04 6.474333e-02 -1.913776e-04)) ((2.432531e-07 -1.290929e-07 -1.535581e-06) (2.338780e-05 -1.193761e-06 1.442762e-04))
2.454348      	((2.181903e-01 2.703943e-01 -4.373032e-02) (6.209076e-04 6.473295e-02 -1.701479e-04)) ((3.000120e-07 -1.032980e-07 -1.525929e-06) (2.318594e-05 -1.497188e-06 1.437999e-04))
2.48621       	((2.136717e-01 2.701168e-01 -4.299210e-02) (4.648721e-04 6.471740e-02 -1.456347e-04)) ((3.705391e-07 -3.831002e-08 -1.620199e-06) (2.318451e-05 -1.693531e-06 1.444460e-04))
2.518088      	((2.146386e-01 2.678822e-01 -4.321270e-02) (3.093681e-04 6.469115e-02 -1.242864e-04)) ((4.563621e-07 5.130558e-08 -1.751113e-06) (2.341009e-05 -1.718109e-06 1.464228e-04))
2.549982      	((2.191469e-01 2.636356e-01 -4.404055e-02) (1.937044e-04 6.465850e-02 -1.025034e-04)) ((5.399537e-07 1.583439e-07 -1.884053e-06) (2.376529e-05 -1.452040e-06 1.482064e-04))
2.58189       	((2.259828e-01 2.589939e-01 -4.606487e-02) (1.498357e-04 6.462862e-02 -8.571666e-05)) ((6.239315e-07 2.601904e-07 -1.986439e-06) (2.410266e-05 -9.384372e-07 1.481722e-04))
2.613811      	((2.341345e-01 2.542185e-01 -4.839086e-02) (1.786599e-04 6.460693e-02 -8.784130e-05)) ((6.810296e-07 3.459859e-07 -2.022104e-06) (2.423198e-05 -5.001342e-07 1.461541e-04))
2.64574       	((2.425140e-01 2.510468e-01 -5.010991e-02) (2.575304e-04 6.458860e-02 -1.040688e-04)) ((7.333315e-07 4.198575e-07 -2.018565e-06) (2.403627e-05 -2.769403e-07 1.431183e-04))
2.677675      	((2.489739e-01 2.497430e-01 -5.172024e-02) (3.576235e-04 6.456872e-02 -1.262547e-04)) ((7.659368e-07 4.458606e-07 -2.011346e-06) (2.355593e-05 -2.396478e-07 1.401081e-04))
2.709612      	((2.534677e-01 2.505389e-01 -5.329542e-02) (4.595644e-04 6.455076e-02 -1.557562e-04)) ((7.546065e-07 4.180514e-07 -1.997648e-06) (2.307577e-05 -3.009694e-07 1.376296e-04))
2.741549      	((2.564742e-01 2.524397e-01 -5.457923e-02) (5.478317e-04 6.453312e-02 -1.837664e-04)) ((7.225780e-07 3.460062e-07 -1.983839e-06) (2.262348e-05 -3.944876e-07 1.360353e-04))
2.773482      	((2.582057e-01 2.556205e-01 -5.513125e-02) (6.101988e-04 6.451349e-02 -2.021332e-04)) ((6.932100e-07 2.499920e-07 -1.977274e-06) (2.222650e-05 -4.592256e-07 1.356087e-04))
2.805412      	((2.586947e-01 2.583662e-01 -5.495426e-02) (6.437342e-04 6.449743e-02 -2.152533e-04)) ((6.405082e-07 1.671028e-07 -1.969586e-06) (2.211682e-05 -4.781072e-07 1.363032e-04))
2.837335      	((2.563599e-01 2.610177e-01 -5.377733e-02) (6.493206e-04 6.448969e-02 -2.199157e-04)) ((5.968402e-07 1.012352e-07 -1.943938e-06) (2.213674e-05 -5.396441e-07 1.376552e-04))
