# Forces      
# CofR        : (0.000000e+00 0.000000e+00 0.000000e+00)
# Time        forces(pressure viscous)	moments(pressure viscous)
0             	((0.000000e+00 0.000000e+00 0.000000e+00) (0.000000e+00 0.000000e+00 0.000000e+00)) ((0.000000e+00 0.000000e+00 0.000000e+00) (0.000000e+00 0.000000e+00 0.000000e+00))
0.012         	((-1.468030e-10 4.513589e-08 9.423489e-11) (9.492935e-13 1.147171e-09 -3.794570e-12)) ((-1.207571e-14 8.343898e-15 -1.027437e-09) (4.840687e-15 -9.331588e-14 -1.396979e-06))
0.0264        	((-5.241734e-10 6.643061e-09 4.198640e-12) (1.311205e-12 1.694458e-09 -6.848170e-12)) ((8.306074e-15 -9.061408e-14 -4.724773e-10) (-8.429611e-16 -2.559110e-13 -1.279673e-06))
0.04368       	((-2.263669e-10 2.113173e-08 3.435054e-10) (-8.205947e-13 1.789327e-09 -9.864667e-12)) ((-1.654212e-14 -1.093246e-13 -2.591910e-10) (-1.015735e-14 -4.702074e-13 -1.159105e-06))
0.064416      	((-5.237003e-10 -2.832600e-09 -2.968820e-10) (-1.084463e-11 1.549937e-09 -1.622919e-11)) ((7.227117e-15 -6.013341e-14 -1.412869e-10) (-3.080443e-14 -7.385244e-13 -1.037996e-06))
0.0892992     	((6.953669e-10 9.302393e-09 2.498172e-10) (-1.740474e-11 1.294976e-09 -2.514319e-11)) ((-2.242876e-14 -1.528274e-13 -1.071549e-10) (-5.817071e-14 -1.076542e-12 -9.199522e-07))
0.119159      	((-3.138522e-10 -1.554744e-09 5.639893e-11) (-2.172903e-11 1.064638e-09 -3.036737e-11)) ((4.661860e-15 -1.083332e-13 -8.113842e-11) (-2.839262e-14 -1.263430e-12 -8.086710e-07))
0.154991      	((1.278255e-10 4.661625e-09 -6.360662e-11) (-3.190334e-11 9.775728e-10 -3.227587e-11)) ((-1.514289e-14 -8.650631e-14 -6.702015e-11) (8.353545e-15 -1.343080e-12 -7.067502e-07))
0.197989      	((-2.376349e-10 1.773290e-09 2.727433e-11) (-3.611651e-11 8.755084e-10 -3.314853e-11)) ((-2.184615e-14 -8.037005e-14 -5.520347e-11) (7.072704e-15 -1.397535e-12 -6.164467e-07))
0.249587      	((2.794766e-10 3.517980e-09 8.996614e-11) (-2.945842e-11 8.019228e-10 -3.332298e-11)) ((-1.441541e-14 -7.903256e-14 -4.556976e-11) (-6.564676e-14 -1.356392e-12 -5.389096e-07))
0.311504      	((-3.292763e-10 2.131557e-09 4.577673e-11) (-1.192053e-11 7.559644e-10 -3.417871e-11)) ((-3.633908e-15 -5.371627e-14 -3.727826e-11) (-1.506147e-13 -1.278649e-12 -4.738998e-07))
0.385805      	((1.681990e-10 2.031854e-09 -3.618780e-11) (6.936138e-12 7.081407e-10 -3.445196e-11)) ((5.878432e-15 -1.944614e-14 -3.102188e-11) (-1.385506e-13 -1.193311e-12 -4.200207e-07))
0.474966      	((-4.727284e-10 1.771916e-09 3.581999e-11) (8.502709e-12 6.608175e-10 -3.807822e-11)) ((4.783987e-15 -1.154626e-14 -2.670657e-11) (-6.685458e-14 -1.145058e-12 -3.751871e-07))
0.581959      	((-2.761653e-10 1.580094e-09 9.085242e-11) (-1.132972e-11 5.917666e-10 -3.596235e-11)) ((2.234141e-14 1.473344e-14 -2.264897e-11) (6.049603e-14 -7.660184e-13 -3.373135e-07))
0.710351      	((-9.429862e-10 1.642905e-09 -5.134854e-11) (-4.790425e-11 5.180826e-10 -2.547465e-11)) ((2.519367e-14 3.300615e-14 -1.868930e-11) (9.265384e-14 -1.471315e-13 -3.047059e-07))
0.864421      	((-6.738479e-10 2.750403e-09 -1.108738e-10) (-1.032789e-10 4.850736e-10 -2.144761e-11)) ((2.203896e-14 5.430185e-14 -1.601355e-11) (2.604639e-13 2.330104e-13 -2.761449e-07))
1.049306      	((6.879655e-11 3.041905e-09 -7.983160e-11) (-1.150404e-10 4.163576e-10 -1.250315e-11)) ((2.558887e-14 6.388156e-14 -1.433644e-11) (2.405081e-13 4.713121e-13 -2.507921e-07))
1.271167      	((-2.442209e-10 2.828252e-09 -3.064923e-11) (-9.226767e-11 3.353907e-10 -3.009247e-12)) ((5.779832e-15 7.346716e-14 -1.305844e-11) (-4.835892e-13 4.375578e-13 -2.280667e-07))
1.5374        	((9.601967e-11 3.214593e-09 -7.471686e-11) (-5.457087e-11 3.195201e-10 1.620588e-12)) ((9.883602e-15 1.002582e-13 -1.195473e-11) (-1.679302e-12 -1.159563e-13 -2.075926e-07))
1.85688       	((-4.558890e-10 3.740743e-09 -1.653192e-11) (1.249388e-11 3.187593e-10 3.371824e-12)) ((7.996366e-16 1.063097e-13 -1.099493e-11) (-2.853118e-12 -1.250451e-12 -1.891608e-07))
2.240256      	((-6.824406e-10 2.791402e-09 3.331277e-12) (7.541515e-11 2.908424e-10 4.768062e-12)) ((-3.003266e-15 1.052085e-13 -1.041760e-11) (-4.004652e-12 -2.718165e-12 -1.726641e-07))
2.700307      	((-3.076145e-10 1.883400e-09 4.705926e-11) (1.411697e-10 2.337771e-10 3.852676e-12)) ((3.707139e-16 1.143035e-13 -9.812895e-12) (-5.294214e-12 -4.239458e-12 -1.580195e-07))
3.252369      	((-1.413202e-10 1.414066e-09 9.627326e-11) (2.092008e-10 1.459306e-10 1.536666e-11)) ((-5.049007e-15 1.115060e-13 -9.030943e-12) (-6.682004e-12 -5.443621e-12 -1.451127e-07))
3.914842      	((2.002028e-10 7.472988e-10 1.654483e-10) (3.425614e-10 3.657757e-11 1.953885e-11)) ((-1.614500e-14 9.886683e-14 -8.118276e-12) (-7.759093e-12 -6.418274e-12 -1.337754e-07))
4.709811      	((7.968161e-11 6.571708e-10 1.078420e-10) (4.340563e-10 -8.064822e-11 1.488882e-11)) ((-5.002065e-14 5.676290e-14 -7.222984e-12) (-7.774471e-12 -6.890203e-12 -1.237798e-07))
5.663773      	((3.866934e-10 -7.702390e-11 8.697881e-11) (4.392408e-10 -1.713980e-10 8.754620e-12)) ((-7.722576e-14 9.600796e-15 -6.373791e-12) (-7.625172e-12 -7.105102e-12 -1.148782e-07))
6.808528      	((5.939295e-10 -1.270061e-10 -3.068342e-11) (3.913955e-10 -1.947027e-10 -4.914894e-12)) ((-6.974413e-14 -8.511242e-15 -5.655247e-12) (-7.000912e-12 -6.751680e-12 -1.068605e-07))
8.182233      	((4.916947e-10 -3.901593e-10 -5.030332e-11) (2.668842e-10 -1.974956e-10 -1.844739e-11)) ((-7.297811e-14 -1.955939e-14 -5.089764e-12) (-5.985885e-12 -5.852031e-12 -9.956815e-08))
9.83068       	((5.216040e-10 1.622333e-11 -9.947804e-11) (1.752804e-10 -1.432411e-10 -3.050744e-11)) ((-7.617904e-14 -3.417814e-14 -4.624764e-12) (-4.761142e-12 -4.757436e-12 -9.288669e-08))
11.808816     	((2.703305e-10 1.505338e-10 -7.124336e-11) (1.257761e-10 -7.046902e-11 -3.469062e-11)) ((-6.524198e-14 -4.963441e-14 -4.257375e-12) (-3.814178e-12 -3.790060e-12 -8.673885e-08))
14.182579     	((-3.120224e-12 1.659369e-10 -7.738655e-11) (6.568366e-11 -1.656540e-11 -3.145741e-11)) ((-4.299772e-14 -6.178420e-14 -3.973932e-12) (-3.053091e-12 -3.171093e-12 -8.106716e-08))
17.031095     	((6.999624e-11 1.628489e-10 -7.517871e-11) (4.056695e-11 2.041693e-12 -2.670126e-11)) ((-3.311258e-14 -5.485916e-14 -3.731172e-12) (-2.006124e-12 -2.415381e-12 -7.583907e-08))
20.449314     	((2.531109e-10 1.605597e-10 -5.341264e-11) (1.834562e-11 3.637460e-12 -2.227969e-11)) ((-2.269750e-14 -5.530710e-14 -3.513490e-12) (-1.097936e-12 -1.965893e-12 -7.104624e-08))
24.551176     	((1.589818e-10 2.058070e-10 -1.362446e-11) (-4.882790e-12 2.585778e-11 -1.726820e-11)) ((-2.229732e-14 -5.616982e-14 -3.318200e-12) (-5.345728e-13 -1.763411e-12 -6.667548e-08))
29.473411     	((7.923612e-11 2.179410e-10 6.765460e-12) (-1.072629e-11 3.279967e-11 -1.115172e-11)) ((-1.957528e-14 -5.521567e-14 -3.160921e-12) (-6.636539e-14 -1.698995e-12 -6.270085e-08))
35.380094     	((-2.249372e-11 1.815061e-10 6.884264e-12) (-9.673169e-12 4.261102e-11 -4.579357e-12)) ((-1.582800e-14 -5.032619e-14 -3.026962e-12) (2.875845e-13 -1.831145e-12 -5.909093e-08))
42.468112     	((-4.463771e-11 1.614117e-10 5.771429e-12) (1.429453e-11 2.764790e-11 -8.253929e-13)) ((-1.167061e-14 -4.548359e-14 -2.912727e-12) (5.380194e-13 -1.985125e-12 -5.581156e-08))
50.973735     	((-3.460393e-11 1.979845e-10 5.497330e-12) (3.321964e-11 -1.009198e-11 1.337649e-12)) ((-3.928816e-15 -3.904180e-14 -2.808115e-12) (4.803014e-13 -2.027889e-12 -5.282912e-08))
61.180482     	((7.958829e-11 1.614161e-10 -7.840233e-12) (7.704212e-11 -4.170531e-11 2.930248e-12)) ((6.343592e-15 -3.137869e-14 -2.731413e-12) (2.125565e-13 -1.934141e-12 -5.011532e-08))
73.428578     	((1.221605e-10 1.555037e-10 -3.155230e-12) (7.403156e-11 -6.734637e-11 3.132724e-12)) ((8.732003e-15 -3.093822e-14 -2.648538e-12) (-1.623992e-13 -1.712317e-12 -4.764839e-08))
88.126294     	((1.340387e-10 1.536385e-10 -1.043291e-11) (5.329734e-11 -8.405880e-11 7.836865e-12)) ((4.304105e-15 -3.210238e-14 -2.553588e-12) (-4.911696e-13 -1.523006e-12 -4.540788e-08))
105.763553    	((8.190102e-11 1.724237e-10 -3.648754e-12) (3.021559e-11 -7.416068e-11 9.364378e-12)) ((1.370873e-16 -3.244185e-14 -2.464618e-12) (-6.086649e-13 -1.327897e-12 -4.337501e-08))
126.928263    	((6.036115e-11 1.450114e-10 -1.133641e-12) (3.208052e-11 -4.779260e-11 1.112973e-11)) ((-3.924852e-15 -3.327663e-14 -2.389065e-12) (-6.809862e-13 -1.159137e-12 -4.153257e-08))
152.325916    	((9.057101e-11 1.533443e-10 -3.466628e-12) (2.366578e-11 -2.947338e-11 1.326901e-11)) ((-6.037682e-15 -3.327333e-14 -2.327630e-12) (-7.760785e-13 -1.071993e-12 -3.986439e-08))
182.803099    	((1.273718e-10 1.755926e-10 1.252266e-12) (3.117882e-11 -2.767277e-11 1.538764e-11)) ((-6.036311e-15 -3.227872e-14 -2.273847e-12) (-8.705353e-13 -9.406605e-13 -3.835654e-08))
219.375719    	((8.098592e-11 1.548493e-10 -1.035409e-11) (4.321361e-11 -3.770203e-11 1.657599e-11)) ((-5.510412e-15 -3.132386e-14 -2.210655e-12) (-1.015592e-12 -7.065113e-13 -3.699373e-08))
263.262863    	((3.725155e-11 1.416785e-10 7.016114e-12) (3.958607e-11 -5.466994e-11 1.660915e-11)) ((-5.315680e-15 -2.873406e-14 -2.147689e-12) (-1.099620e-12 -5.139317e-13 -3.576397e-08))
315.927436    	((-1.671162e-11 1.095390e-10 1.060322e-11) (3.248093e-11 -7.327243e-11 1.618161e-11)) ((-3.818469e-15 -2.703726e-14 -2.105745e-12) (-1.139447e-12 -2.508232e-13 -3.465901e-08))
378.781482    	((-4.866340e-11 1.029563e-10 -1.430083e-11) (1.199929e-11 -7.092519e-11 1.447130e-11)) ((-3.999713e-15 -2.780627e-14 -2.069413e-12) (-1.193267e-12 1.835059e-15 -3.367172e-08))
451.823389    	((-5.956382e-11 9.889074e-11 -8.209404e-12) (-1.481186e-11 -5.821969e-11 1.423194e-11)) ((-4.050017e-15 -2.846482e-14 -2.042353e-12) (-1.172964e-12 1.896231e-13 -3.280064e-08))
535.051758    	((-7.997479e-11 9.693277e-11 -5.988027e-12) (-4.645023e-11 -5.478632e-11 1.453839e-11)) ((-1.669676e-15 -2.774455e-14 -2.017800e-12) (-1.108800e-12 3.749655e-13 -3.203982e-08))
628.464948    	((-7.728570e-11 8.373723e-11 -4.261294e-12) (-5.481761e-11 -4.732223e-11 1.418466e-11)) ((-5.841195e-16 -2.699449e-14 -1.996575e-12) (-9.410784e-13 5.811045e-13 -3.138109e-08))
730.298545    	((-8.026072e-11 8.290237e-11 -2.734833e-12) (-5.379480e-11 -3.268737e-11 1.278548e-11)) ((4.971254e-16 -2.600349e-14 -1.979437e-12) (-7.738380e-13 6.720778e-13 -3.081631e-08))
832.119269    	((-7.570495e-11 8.438500e-11 -1.356709e-11) (-5.086313e-11 -1.939070e-11 1.140156e-11)) ((1.054290e-15 -2.479678e-14 -1.964888e-12) (-6.254838e-13 6.505917e-13 -3.034285e-08))
933.924984    	((-7.680902e-11 8.357003e-11 -6.221178e-12) (-4.939094e-11 -7.802243e-12 1.017419e-11)) ((1.148704e-15 -2.385079e-14 -1.954204e-12) (-4.809084e-13 5.279739e-13 -2.994911e-08))
1035.71881    	((-8.030263e-11 7.508202e-11 1.581354e-12) (-4.691245e-11 3.734674e-12 1.060703e-11)) ((1.153370e-15 -2.285995e-14 -1.944687e-12) (-3.415304e-13 3.511537e-13 -2.962440e-08))
1137.504109   	((-8.362319e-11 6.414039e-11 5.194837e-12) (-4.177348e-11 8.516781e-12 1.103451e-11)) ((1.359012e-15 -2.156098e-14 -1.934809e-12) (-2.182844e-13 1.741999e-13 -2.935677e-08))
1239.284084   	((-8.674891e-11 5.108244e-11 4.233708e-12) (-3.608586e-11 8.735692e-12 1.230481e-11)) ((1.457113e-15 -2.073203e-14 -1.926330e-12) (-1.312827e-13 7.022772e-14 -2.913648e-08))
1341.059839   	((-8.407122e-11 3.907440e-11 2.223912e-12) (-3.611066e-11 8.756387e-12 1.270488e-11)) ((1.540970e-15 -2.006923e-14 -1.918663e-12) (-6.410682e-14 1.259953e-14 -2.895466e-08))
1442.830814   	((-8.586028e-11 3.180371e-11 5.556844e-12) (-3.606481e-11 9.075344e-12 1.323523e-11)) ((1.213786e-15 -1.935526e-14 -1.912354e-12) (-2.257297e-14 -1.598606e-14 -2.880446e-08))
1544.59967    	((-8.939679e-11 2.451305e-11 8.969388e-12) (-3.616360e-11 8.404776e-12 1.351569e-11)) ((7.657436e-16 -1.872494e-14 -1.906667e-12) (-2.922679e-15 -2.942250e-14 -2.868013e-08))
1646.368862   	((-9.426527e-11 1.638880e-11 1.136656e-11) (-3.661764e-11 7.420355e-12 1.384662e-11)) ((3.638784e-16 -1.806395e-14 -1.901532e-12) (1.460672e-14 -3.401140e-14 -2.857700e-08))
1748.140665   	((-9.687242e-11 9.747576e-12 1.087820e-11) (-3.813483e-11 5.915577e-12 1.410979e-11)) ((1.743608e-16 -1.744493e-14 -1.897520e-12) (3.235076e-14 -3.323090e-14 -2.849120e-08))
1849.917209   	((-9.753337e-11 8.128309e-12 1.236646e-11) (-3.986491e-11 5.491844e-12 1.439883e-11)) ((1.112138e-16 -1.698002e-14 -1.894304e-12) (5.648328e-14 -2.689462e-14 -2.841968e-08))
1951.700409   	((-9.628413e-11 6.851742e-12 1.302017e-11) (-4.242306e-11 5.806891e-12 1.488012e-11)) ((-7.217797e-17 -1.650167e-14 -1.891612e-12) (8.491851e-14 -2.675837e-14 -2.835997e-08))
2053.491933   	((-9.568819e-11 7.117996e-12 1.354026e-11) (-4.563951e-11 6.446242e-12 1.538149e-11)) ((-2.547516e-16 -1.612168e-14 -1.889171e-12) (1.152603e-13 -3.734121e-14 -2.831010e-08))
2155.292599   	((-9.466226e-11 8.661752e-12 1.430724e-11) (-4.820671e-11 7.595497e-12 1.579633e-11)) ((-5.395590e-16 -1.578551e-14 -1.887147e-12) (1.416473e-13 -5.240492e-14 -2.826845e-08))
2257.099085   	((-9.416126e-11 8.204800e-12 1.512798e-11) (-5.030869e-11 8.431979e-12 1.613057e-11)) ((-8.841127e-16 -1.545433e-14 -1.885486e-12) (1.639046e-13 -6.527114e-14 -2.823363e-08))
2358.912258   	((-9.367784e-11 7.742861e-12 1.619913e-11) (-5.202415e-11 8.919159e-12 1.651637e-11)) ((-1.223226e-15 -1.518273e-14 -1.884093e-12) (1.791822e-13 -7.578269e-14 -2.820450e-08))
