# Forces      
# CofR        : (0.000000e+00 0.000000e+00 0.000000e+00)
# Time        forces(pressure viscous)	moments(pressure viscous)
0             	((0.000000e+00 0.000000e+00 0.000000e+00) (0.000000e+00 0.000000e+00 0.000000e+00)) ((0.000000e+00 0.000000e+00 0.000000e+00) (0.000000e+00 0.000000e+00 0.000000e+00))
0.012         	((-1.308169e-12 1.768451e-12 -3.679560e-12) (3.681780e-15 1.431237e-15 2.350814e-14)) ((1.591848e-11 -1.720106e-15 -2.321132e-17) (1.109879e-08 1.144477e-15 -4.120111e-16))
0.0264        	((1.205528e-12 2.901187e-12 -6.193639e-12) (-1.576426e-14 -2.726525e-14 2.055352e-14)) ((7.853202e-12 -1.338099e-15 3.361186e-16) (1.016580e-08 2.001531e-15 -4.117264e-16))
0.04368       	((-6.443508e-12 -4.474722e-12 -7.558998e-12) (1.275473e-14 -7.880341e-14 6.123418e-15)) ((4.335648e-12 -1.057618e-15 3.685771e-16) (9.206973e-09 1.092510e-15 9.109005e-16))
0.064416      	((2.059341e-12 -4.177664e-13 -1.590910e-12) (1.040692e-13 -1.144649e-13 -1.468310e-14)) ((2.427259e-12 -7.218581e-16 -1.171996e-16) (8.243193e-09 -1.204059e-15 2.297838e-15))
0.0892992     	((-8.103648e-13 -1.154652e-12 -5.024101e-13) (2.022804e-13 -1.253872e-13 -4.345754e-14)) ((1.822704e-12 -6.863781e-16 9.872304e-17) (7.302537e-09 -3.466756e-15 3.084918e-15))
0.119159      	((-1.140666e-12 -2.241908e-12 -5.577683e-12) (2.624976e-13 -1.173584e-13 -6.862744e-14)) ((1.301826e-12 -4.877386e-16 -1.515810e-17) (6.414007e-09 -4.725644e-15 3.268310e-15))
0.154991      	((1.376100e-12 2.834605e-12 1.618813e-12) (2.900533e-13 -1.036332e-13 -7.691957e-14)) ((1.031362e-12 -3.812284e-16 -3.461960e-17) (5.598071e-09 -5.105765e-15 2.848570e-15))
0.197989      	((1.378141e-12 3.636038e-13 -1.675954e-12) (3.156031e-13 -8.645257e-14 -7.593380e-14)) ((8.191181e-13 -1.780416e-16 -2.976053e-17) (4.874696e-09 -5.002105e-15 2.353538e-15))
0.249587      	((6.008254e-13 5.815709e-13 -1.710375e-12) (3.190508e-13 -8.102137e-14 -7.762551e-14)) ((6.775959e-13 -1.138442e-16 -7.200891e-17) (4.254646e-09 -4.720839e-15 2.162257e-15))
0.311504      	((7.650293e-13 1.419953e-12 -2.062184e-12) (2.947262e-13 -8.677754e-14 -6.395821e-14)) ((5.655343e-13 -1.475051e-16 -2.075744e-17) (3.736419e-09 -4.219994e-15 2.228167e-15))
0.385805      	((-4.282632e-13 1.853751e-12 -2.827931e-12) (2.649948e-13 -8.100381e-14 -5.312622e-14)) ((4.863037e-13 -1.537604e-16 4.994987e-17) (3.308860e-09 -4.251783e-15 2.207259e-15))
0.474966      	((-3.992362e-13 2.509342e-12 -2.683976e-12) (2.242198e-13 -5.102669e-14 -8.825751e-14)) ((4.342922e-13 -9.637310e-17 7.992939e-17) (2.955184e-09 -5.620020e-15 2.152550e-15))
0.581959      	((1.710166e-12 3.654246e-12 -8.830269e-13) (1.515868e-13 -1.775585e-15 -1.284443e-13)) ((3.892502e-13 -1.154596e-16 1.224222e-16) (2.657918e-09 -7.006847e-15 2.572303e-15))
0.710351      	((1.943853e-12 4.241353e-12 -3.299078e-12) (5.893948e-14 4.583518e-15 -1.271393e-13)) ((3.439805e-13 -1.474131e-16 1.559836e-16) (2.402582e-09 -7.579141e-15 3.682771e-15))
0.864421      	((2.420123e-12 5.315442e-12 -2.054651e-12) (-3.422408e-14 -6.572620e-14 -9.442352e-14)) ((3.135419e-13 -2.272753e-16 1.729262e-16) (2.178914e-09 -7.005276e-15 5.311358e-15))
1.049306      	((1.525244e-12 5.345723e-12 -3.673526e-12) (-9.619513e-14 -1.323751e-13 -4.513721e-14)) ((2.933927e-13 -2.469361e-16 1.602948e-16) (1.980111e-09 -5.315566e-15 6.318817e-15))
1.271167      	((-9.146126e-14 6.798280e-12 -4.571346e-12) (-9.383825e-14 -1.926771e-13 2.433304e-14)) ((2.732657e-13 -2.117568e-16 1.390434e-16) (1.801627e-09 -2.710357e-15 7.821028e-15))
1.5374        	((-7.084021e-13 6.367614e-12 -6.104126e-12) (-4.452282e-14 -2.968323e-13 1.293899e-13)) ((2.500703e-13 -5.360330e-17 1.009791e-16) (1.640504e-09 -1.084421e-15 1.315943e-14))
1.85688       	((7.433650e-13 6.683232e-12 -6.004641e-12) (-8.113641e-14 -5.055665e-13 3.013294e-13)) ((2.297018e-13 -2.884030e-18 4.827874e-17) (1.495131e-09 3.531554e-15 1.942272e-14))
2.240256      	((9.593121e-14 7.389270e-12 -5.461405e-12) (-8.243822e-14 -8.289634e-13 6.304276e-13)) ((2.172079e-13 8.683237e-17 -3.120253e-17) (1.364684e-09 1.044480e-14 2.809700e-14))
2.700307      	((1.275855e-13 6.678999e-12 -4.368283e-12) (-1.224788e-14 -1.325825e-12 1.154844e-12)) ((2.086714e-13 1.237902e-16 -8.279906e-17) (1.248577e-09 1.924211e-14 4.285034e-14))
3.252369      	((9.890230e-14 4.793295e-12 -4.497836e-12) (-9.664686e-14 -2.029453e-12 1.749518e-12)) ((2.003073e-13 1.932104e-16 -1.401276e-16) (1.146013e-09 3.213565e-14 5.735907e-14))
3.914842      	((4.879550e-13 2.178980e-12 -2.990640e-12) (-7.144669e-14 -2.708046e-12 2.328934e-12)) ((1.906867e-13 1.632496e-16 -1.084444e-16) (1.055792e-09 4.245440e-14 6.749286e-14))
4.709811      	((-1.533255e-13 7.545431e-13 -9.048354e-13) (7.762945e-14 -3.339482e-12 2.928830e-12)) ((1.793772e-13 1.736050e-16 -6.724698e-17) (9.762548e-10 4.922695e-14 7.411054e-14))
5.663773      	((2.448166e-13 1.659765e-14 6.800988e-13) (3.739315e-14 -3.789095e-12 3.395195e-12)) ((1.666565e-13 1.730662e-16 -4.303794e-17) (9.055428e-10 5.512147e-14 7.535700e-14))
6.808528      	((6.331494e-13 -8.665851e-13 1.244736e-12) (-7.966433e-15 -3.856436e-12 3.510800e-12)) ((1.539060e-13 1.796841e-16 -7.662993e-17) (8.420020e-10 5.550862e-14 7.357197e-14))
8.182233      	((7.505557e-14 -1.294850e-12 1.998838e-12) (-3.735005e-14 -3.620901e-12 3.305599e-12)) ((1.414911e-13 1.648225e-16 -7.522655e-17) (7.843138e-10 4.927488e-14 6.748688e-14))
9.83068       	((7.543896e-13 -1.588832e-12 1.844108e-12) (-1.137161e-13 -3.092038e-12 2.836928e-12)) ((1.290243e-13 1.440904e-16 -1.201062e-16) (7.315010e-10 3.981328e-14 5.486136e-14))
11.808816     	((3.005811e-13 2.904730e-13 5.984946e-13) (-2.749343e-13 -2.352013e-12 2.224523e-12)) ((1.177116e-13 1.302510e-16 -1.614745e-16) (6.829047e-10 3.249129e-14 3.902942e-14))
14.182579     	((1.689462e-13 3.533330e-13 -2.370831e-13) (-4.696956e-13 -1.650276e-12 1.652623e-12)) ((1.069717e-13 1.348525e-16 -1.800890e-16) (6.381240e-10 2.744904e-14 2.294463e-14))
17.031095     	((3.469984e-13 6.514543e-13 -1.039513e-13) (-4.832997e-13 -1.138995e-12 1.170852e-12)) ((9.804121e-14 9.844575e-17 -1.682821e-16) (5.969495e-10 2.030017e-14 1.168092e-14))
20.449314     	((1.353681e-13 7.528843e-13 -3.760170e-13) (-3.717215e-13 -7.691105e-13 7.890473e-13)) ((9.006145e-14 8.397974e-17 -1.580554e-16) (5.592374e-10 1.237170e-14 6.767739e-15))
24.551176     	((-7.539532e-14 6.884996e-13 -7.493641e-13) (-2.343378e-13 -5.467927e-13 5.339129e-13)) ((8.304786e-14 8.106750e-17 -1.662280e-16) (5.247647e-10 7.144842e-15 4.247961e-15))
29.473411     	((8.277969e-14 7.215403e-13 -4.187750e-13) (-1.271596e-13 -4.046876e-13 4.085454e-13)) ((7.715468e-14 6.404631e-17 -1.509623e-16) (4.933089e-10 4.548144e-15 3.439448e-15))
35.380094     	((-1.021020e-14 1.014117e-12 -4.140021e-13) (-6.135801e-14 -3.274552e-13 3.442630e-13)) ((7.188047e-14 5.062727e-17 -1.364462e-16) (4.646145e-10 2.366264e-15 5.050108e-15))
42.468112     	((-6.186580e-14 6.558208e-13 -4.462882e-13) (-1.457877e-14 -3.345001e-13 3.394660e-13)) ((6.727660e-14 4.637264e-17 -1.257356e-16) (4.384399e-10 1.605289e-15 6.864642e-15))
50.973735     	((-4.603171e-15 5.604016e-13 -2.855039e-13) (4.637205e-14 -3.686604e-13 3.723852e-13)) ((6.312095e-14 2.772308e-17 -1.132551e-16) (4.145756e-10 1.798535e-15 7.769802e-15))
61.180482     	((2.308294e-14 5.522275e-13 -4.147609e-13) (6.094734e-14 -4.354889e-13 4.388066e-13)) ((5.936862e-14 6.026359e-18 -1.034198e-16) (3.928458e-10 2.861981e-15 8.574667e-15))
73.428578     	((-7.359114e-15 3.509376e-13 -1.732017e-13) (4.349270e-14 -5.012252e-13 5.135137e-13)) ((5.609809e-14 -2.948935e-18 -9.155413e-17) (3.731057e-10 4.874150e-15 9.402204e-15))
88.126294     	((6.140212e-14 3.797157e-13 -7.576966e-14) (2.670624e-14 -5.483946e-13 5.701820e-13)) ((5.320415e-14 -1.596009e-17 -8.063144e-17) (3.552062e-10 6.844302e-15 1.020304e-14))
105.763553    	((2.611097e-14 1.914652e-13 1.403457e-14) (1.692059e-14 -5.664625e-13 5.928640e-13)) ((5.046961e-14 -2.744676e-17 -7.177398e-17) (3.390097e-10 7.517257e-15 1.085265e-14))
126.928263    	((5.813731e-14 1.106488e-13 1.279997e-13) (6.426599e-15 -5.646367e-13 5.838735e-13)) ((4.804265e-14 -3.219464e-17 -6.794068e-17) (3.243696e-10 7.510062e-15 1.120426e-14))
152.325916    	((1.406282e-14 -1.152322e-15 1.639732e-13) (-1.118885e-14 -5.377684e-13 5.514944e-13)) ((4.587314e-14 -3.595738e-17 -6.572346e-17) (3.111315e-10 7.709361e-15 1.134829e-14))
182.803099    	((3.304788e-14 -7.794063e-14 1.522616e-13) (-1.706482e-14 -4.966640e-13 4.972181e-13)) ((4.386284e-14 -3.925029e-17 -6.331350e-17) (2.991410e-10 8.112147e-15 1.142734e-14))
219.375719    	((4.775180e-14 -5.650448e-14 1.691116e-13) (-3.006591e-14 -4.661634e-13 4.612162e-13)) ((4.202431e-14 -4.049219e-17 -5.914105e-17) (2.882559e-10 8.875603e-15 1.163432e-14))
263.262863    	((5.590113e-14 -1.229531e-13 1.185794e-13) (-5.937092e-14 -4.622943e-13 4.466804e-13)) ((4.035829e-14 -3.721339e-17 -5.098376e-17) (2.783592e-10 9.440287e-15 1.207205e-14))
315.927436    	((9.723321e-15 -1.770960e-13 1.134647e-13) (-7.593353e-14 -4.678194e-13 4.458351e-13)) ((3.886690e-14 -3.180023e-17 -4.694844e-17) (2.693548e-10 9.809684e-15 1.246698e-14))
379.124923    	((1.771405e-15 -1.724523e-13 1.298135e-13) (-7.215680e-14 -4.692288e-13 4.511540e-13)) ((3.750093e-14 -2.422353e-17 -4.334091e-17) (2.611666e-10 9.912059e-15 1.270164e-14))
454.961908    	((2.481388e-16 -1.463316e-13 1.350135e-13) (-8.125120e-14 -4.629872e-13 4.562124e-13)) ((3.623535e-14 -1.973914e-17 -3.985867e-17) (2.537387e-10 9.908578e-15 1.250580e-14))
545.966289    	((5.556836e-15 -1.387993e-13 1.180336e-13) (-6.891619e-14 -4.473415e-13 4.478692e-13)) ((3.508714e-14 -1.655571e-17 -3.749990e-17) (2.470201e-10 9.961557e-15 1.190616e-14))
655.171547    	((4.145491e-14 -1.538047e-13 1.101727e-13) (-3.480614e-14 -4.271084e-13 4.282290e-13)) ((3.403901e-14 -1.412049e-17 -3.548936e-17) (2.409628e-10 9.730794e-15 1.118701e-14))
786.217856    	((4.798644e-14 -1.571654e-13 8.033409e-14) (-1.231755e-14 -4.062637e-13 4.080125e-13)) ((3.308467e-14 -1.118748e-17 -3.599534e-17) (2.355258e-10 9.417296e-15 1.057751e-14))
943.473427    	((4.651686e-14 -1.569111e-13 5.531215e-14) (-1.823654e-14 -3.815131e-13 3.859724e-13)) ((3.223396e-14 -7.660385e-18 -3.864010e-17) (2.306687e-10 9.014475e-15 9.981833e-15))
1132.180113   	((2.292071e-14 -1.690597e-13 4.375851e-14) (-1.580153e-14 -3.627587e-13 3.591098e-13)) ((3.149095e-14 -4.673369e-18 -3.836299e-17) (2.263522e-10 8.485596e-15 9.535176e-15))
1358.628135   	((1.186345e-14 -1.761692e-13 2.747139e-14) (-1.791077e-14 -3.473280e-13 3.331603e-13)) ((3.083613e-14 -3.950484e-18 -3.540472e-17) (2.225375e-10 7.962874e-15 9.192626e-15))
1630.365763   	((2.670033e-14 -1.771876e-13 2.273889e-14) (-2.172420e-14 -3.318828e-13 3.169754e-13)) ((3.025979e-14 -3.766249e-18 -3.412557e-17) (2.191836e-10 7.492123e-15 8.797319e-15))
1956.450915   	((1.713848e-14 -1.570600e-13 3.154198e-14) (-2.999951e-14 -3.192552e-13 3.054408e-13)) ((2.976049e-14 -2.995752e-18 -3.381416e-17) (2.162515e-10 7.005056e-15 8.443347e-15))
2347.753098   	((1.624278e-14 -1.392819e-13 3.322997e-14) (-3.457366e-14 -3.101725e-13 2.990833e-13)) ((2.932480e-14 -1.596105e-18 -3.392728e-17) (2.137028e-10 6.579012e-15 8.149552e-15))
2817.315718   	((4.418756e-14 -1.169727e-13 3.463934e-14) (-3.726963e-14 -3.027332e-13 2.949467e-13)) ((2.895171e-14 -6.804351e-19 -3.368250e-17) (2.115017e-10 6.214161e-15 7.863566e-15))
3380.790861   	((6.843524e-14 -9.676763e-14 4.013672e-14) (-3.416639e-14 -2.946702e-13 2.890672e-13)) ((2.863827e-14 1.652758e-19 -3.348080e-17) (2.096145e-10 5.815888e-15 7.581623e-15))
4056.961033   	((1.075584e-13 -7.940193e-14 3.899383e-14) (-3.009478e-14 -2.891759e-13 2.825220e-13)) ((2.837172e-14 1.645605e-18 -3.342046e-17) (2.080073e-10 5.484000e-15 7.292596e-15))
4868.36524    	((1.544500e-13 -5.959948e-14 3.810382e-14) (-2.240353e-14 -2.901198e-13 2.764751e-13)) ((2.814513e-14 3.529362e-18 -3.322350e-17) (2.066482e-10 5.206553e-15 6.900866e-15))
5842.050288   	((1.880233e-13 -4.439126e-14 4.380210e-14) (-1.353989e-14 -2.875977e-13 2.710454e-13)) ((2.795301e-14 4.405730e-18 -3.358603e-17) (2.055072e-10 5.002008e-15 6.629367e-15))
7010.472346   	((2.086167e-13 -2.361843e-14 5.041486e-14) (-5.732951e-15 -2.848465e-13 2.663004e-13)) ((2.779082e-14 5.230314e-18 -3.400122e-17) (2.045562e-10 4.859828e-15 6.426090e-15))
8412.578815   	((2.169271e-13 -5.849867e-15 5.574212e-14) (-1.466267e-15 -2.817532e-13 2.610159e-13)) ((2.765502e-14 5.621184e-18 -3.437871e-17) (2.037693e-10 4.773290e-15 6.239704e-15))
10095.106578  	((2.279356e-13 6.837035e-15 6.231957e-14) (1.908192e-15 -2.776005e-13 2.552487e-13)) ((2.754293e-14 5.793303e-18 -3.452003e-17) (2.031225e-10 4.692371e-15 6.056650e-15))
12114.139893  	((2.451100e-13 1.738337e-14 6.684745e-14) (5.981339e-15 -2.725809e-13 2.504336e-13)) ((2.745138e-14 5.927567e-18 -3.460067e-17) (2.025942e-10 4.586301e-15 5.884760e-15))
14536.979872  	((2.696365e-13 2.608343e-14 6.809440e-14) (1.102895e-14 -2.678087e-13 2.456793e-13)) ((2.737663e-14 5.878132e-18 -3.442839e-17) (2.021651e-10 4.474083e-15 5.717168e-15))
17444.387847  	((2.978816e-13 3.669338e-14 7.186229e-14) (1.582477e-14 -2.636571e-13 2.413785e-13)) ((2.731603e-14 5.798072e-18 -3.415483e-17) (2.018184e-10 4.380657e-15 5.562515e-15))
20933.277416  	((3.316053e-13 5.204307e-14 7.772488e-14) (1.941290e-14 -2.600156e-13 2.378448e-13)) ((2.726722e-14 5.763199e-18 -3.395022e-17) (2.015398e-10 4.298745e-15 5.431786e-15))
25119.944899  	((3.709734e-13 7.176618e-14 8.685608e-14) (2.207169e-14 -2.567204e-13 2.350485e-13)) ((2.722832e-14 5.836584e-18 -3.382132e-17) (2.013168e-10 4.230161e-15 5.325133e-15))
30143.945879  	((4.165373e-13 9.581943e-14 1.015067e-13) (2.480742e-14 -2.536281e-13 2.328475e-13)) ((2.719759e-14 5.791763e-18 -3.372010e-17) (2.011390e-10 4.187685e-15 5.233699e-15))
36172.747055  	((4.639689e-13 1.241725e-13 1.205288e-13) (2.804549e-14 -2.504940e-13 2.309846e-13)) ((2.717328e-14 6.019359e-18 -3.369699e-17) (2.009976e-10 4.155417e-15 5.152475e-15))
43407.308466  	((5.152331e-13 1.570621e-13 1.438909e-13) (3.217898e-14 -2.477912e-13 2.294630e-13)) ((2.715395e-14 6.397805e-18 -3.383811e-17) (2.008855e-10 4.133363e-15 5.084552e-15))
51927.365684  	((5.750305e-13 2.010592e-13 1.758465e-13) (3.716626e-14 -2.454163e-13 2.285216e-13)) ((2.713867e-14 6.718746e-18 -3.414744e-17) (2.007969e-10 4.107033e-15 5.025486e-15))
61732.925999  	((6.373322e-13 2.548547e-13 2.225829e-13) (4.207897e-14 -2.435375e-13 2.287140e-13)) ((2.712402e-14 9.178285e-18 -3.379623e-17) (2.007269e-10 4.063330e-15 4.970352e-15))
72823.995076  	((7.034241e-13 3.485088e-13 2.906724e-13) (4.648082e-14 -2.408652e-13 2.278966e-13)) ((2.711312e-14 6.347233e-18 -3.545178e-17) (2.006718e-10 4.071897e-15 4.933650e-15))
85200.577298  	((7.523586e-13 4.211984e-13 3.805809e-13) (5.104226e-14 -2.393722e-13 2.306697e-13)) ((2.710650e-14 8.623488e-18 -3.369147e-17) (2.006285e-10 4.008953e-15 4.835034e-15))
98055.742827  	((7.593859e-13 5.732374e-13 4.910555e-13) (5.163135e-14 -2.338762e-13 2.296506e-13)) ((2.708058e-14 6.745859e-18 -3.485348e-17) (2.005946e-10 4.052001e-15 4.913580e-15))
110910.934933 	((8.269154e-13 7.422081e-13 5.918408e-13) (5.111587e-14 -2.277491e-13 2.283429e-13)) ((2.706411e-14 6.418397e-18 -3.438600e-17) (2.005684e-10 4.157525e-15 4.916949e-15))
123766.147344 	((8.727920e-13 9.305471e-13 6.868631e-13) (5.146440e-14 -2.247147e-13 2.269722e-13)) ((2.706494e-14 5.561609e-18 -2.988275e-17) (2.005475e-10 4.160802e-15 4.828768e-15))
136621.375199 	((8.995552e-13 1.109542e-12 7.611068e-13) (5.038824e-14 -2.179806e-13 2.297642e-13)) ((2.705721e-14 5.302374e-18 -3.167806e-17) (2.005312e-10 4.338727e-15 4.443299e-15))
149476.615159 	((9.624892e-13 1.302722e-12 8.245161e-13) (5.263912e-14 -2.091856e-13 2.330499e-13)) ((2.702979e-14 8.276805e-18 -3.727179e-17) (2.005189e-10 4.218281e-15 4.491230e-15))
162331.864936 	((9.795144e-13 1.499509e-12 8.890581e-13) (5.412795e-14 -2.037840e-13 2.344961e-13)) ((2.701783e-14 7.240807e-18 -3.667761e-17) (2.005090e-10 4.117692e-15 4.604627e-15))
175187.123386 	((9.667328e-13 1.675788e-12 9.545295e-13) (5.191173e-14 -1.963278e-13 2.382669e-13)) ((2.699817e-14 2.878038e-18 -3.401272e-17) (2.005006e-10 4.082273e-15 4.659117e-15))
188042.389828 	((9.982368e-13 1.788020e-12 9.761914e-13) (4.829662e-14 -1.892975e-13 2.383755e-13)) ((2.697516e-14 1.166976e-17 -3.944261e-17) (2.004935e-10 4.027514e-15 4.650183e-15))
200897.663109 	((9.985748e-13 1.894274e-12 9.444342e-13) (4.686039e-14 -1.821604e-13 2.318754e-13)) ((2.694631e-14 4.834066e-18 -3.386534e-17) (2.004878e-10 3.702054e-15 4.495905e-15))
213752.942911 	((1.035605e-12 1.948484e-12 9.193960e-13) (4.338364e-14 -1.770009e-13 2.331097e-13)) ((2.692912e-14 4.672124e-18 -3.229108e-17) (2.004826e-10 3.650288e-15 4.463648e-15))
226608.228688 	((1.068479e-12 1.901711e-12 8.737388e-13) (4.030058e-14 -1.725752e-13 2.358797e-13)) ((2.691606e-14 4.572271e-19 -3.245549e-17) (2.004776e-10 3.657485e-15 4.483245e-15))
239463.519584 	((1.071466e-12 1.810252e-12 8.399538e-13) (3.991964e-14 -1.682267e-13 2.357543e-13)) ((2.689777e-14 -4.295797e-18 -3.458308e-17) (2.004729e-10 3.566146e-15 4.408673e-15))
252318.815252 	((1.010394e-12 1.666115e-12 7.830452e-13) (4.000412e-14 -1.644759e-13 2.326056e-13)) ((2.688216e-14 -4.537476e-18 -3.217212e-17) (2.004682e-10 3.484050e-15 4.288110e-15))
265174.115313 	((8.661517e-13 1.388546e-12 6.873208e-13) (3.709882e-14 -1.681885e-13 2.218238e-13)) ((2.687166e-14 -7.385288e-18 -2.986135e-17) (2.004633e-10 3.434596e-15 4.302765e-15))
278029.41934  	((7.112835e-13 1.094636e-12 5.675868e-13) (3.117603e-14 -1.753957e-13 2.098989e-13)) ((2.686048e-14 -6.746188e-18 -3.011752e-17) (2.004583e-10 3.433441e-15 4.261882e-15))
290884.727042 	((5.466478e-13 7.758412e-13 4.421136e-13) (2.500718e-14 -1.859339e-13 2.024473e-13)) ((2.685266e-14 -7.507745e-18 -2.947901e-17) (2.004532e-10 3.477880e-15 4.287116e-15))
303740.037605 	((3.903174e-13 5.038028e-13 3.293999e-13) (2.028816e-14 -1.967727e-13 1.966622e-13)) ((2.685092e-14 -8.314400e-18 -2.861802e-17) (2.004481e-10 3.564767e-15 4.280639e-15))
