# Forces      
# CofR        : (0.000000e+00 0.000000e+00 0.000000e+00)
# Time        forces(pressure viscous)	moments(pressure viscous)
0             	((0.000000e+00 0.000000e+00 0.000000e+00) (-7.194434e-14 5.040054e-04 1.929053e-15)) ((0.000000e+00 0.000000e+00 0.000000e+00) (2.487161e-15 1.119559e-16 -1.842828e-10))
0.012         	((3.075120e-08 1.466054e-01 4.404118e-09) (-1.652278e-10 5.776588e-04 -4.207663e-10)) ((5.275952e-11 1.033640e-12 -2.760944e-08) (3.790737e-12 1.259068e-13 -3.590869e-10))
0.0264        	((-1.396776e-06 -1.173440e-02 -4.809766e-07) (-9.886413e-10 5.876884e-04 -7.259715e-10)) ((-6.377569e-11 -1.425980e-11 1.600214e-09) (-2.390450e-13 1.136160e-13 -4.508703e-10))
0.04368       	((2.507261e-06 -2.982667e-02 -3.844411e-07) (2.137497e-09 5.206700e-04 -7.401367e-10)) ((-1.033658e-10 2.192443e-11 7.732662e-09) (-1.695858e-11 -5.019356e-13 -3.491726e-10))
0.064416      	((-9.570835e-08 -2.761316e-04 6.317408e-07) (2.037327e-08 4.604881e-04 6.200107e-09)) ((5.408866e-11 1.192339e-11 -7.213381e-10) (2.179346e-11 -1.583345e-12 -2.688562e-10))
0.0892992     	((2.271031e-07 2.450190e-04 2.799956e-07) (2.865509e-08 4.246973e-04 8.535492e-09)) ((3.405072e-12 -1.417419e-11 -4.511682e-10) (2.082578e-11 -2.746618e-12 1.424391e-10))
0.119159      	((-1.036699e-07 -5.019663e-04 4.748790e-07) (2.480317e-08 3.920700e-04 5.731063e-09)) ((2.781757e-11 -1.994740e-12 3.722942e-10) (-4.835543e-11 -4.391170e-12 4.323100e-10))
0.154991      	((-2.197054e-07 -2.366141e-04 5.235063e-08) (2.120456e-08 3.580262e-04 4.194875e-09)) ((1.486716e-11 5.275413e-12 1.847382e-10) (-1.342277e-11 -4.607733e-12 3.098759e-10))
0.197989      	((2.742185e-08 -5.102212e-05 -7.266359e-08) (1.273865e-08 3.244645e-04 2.309773e-09)) ((1.050020e-11 1.900860e-12 3.473866e-11) (2.537101e-11 -4.143809e-12 2.240760e-10))
0.249587      	((-1.372480e-08 1.402809e-05 -1.620413e-08) (6.476803e-10 2.924570e-04 1.620076e-09)) ((9.822417e-12 3.219105e-12 2.033045e-11) (8.368541e-12 -2.273569e-12 4.202817e-10))
0.311504      	((-8.177376e-08 4.600973e-05 -3.169447e-08) (-1.157452e-08 2.628566e-04 1.486787e-09)) ((6.623337e-12 1.201157e-12 9.424246e-12) (-1.812066e-12 -2.489464e-12 6.330579e-10))
0.385805      	((-8.141874e-08 6.353908e-05 -3.202011e-08) (-1.629041e-08 2.362836e-04 1.650231e-09)) ((3.339834e-12 1.068146e-13 2.823607e-12) (-2.029371e-11 -2.549880e-12 6.294024e-10))
0.474966      	((-5.767889e-08 7.219493e-05 -3.030365e-08) (-1.411966e-08 2.129868e-04 1.556373e-09)) ((1.709537e-12 7.975370e-14 2.750570e-12) (-1.966748e-11 -1.614015e-12 5.064817e-10))
0.581959      	((-3.660766e-08 7.573831e-05 -2.242430e-08) (-1.146482e-08 1.925358e-04 1.085981e-09)) ((6.898092e-13 -3.266108e-13 -8.065703e-14) (-6.769339e-12 -1.612130e-12 4.177251e-10))
0.710351      	((-1.423627e-08 7.562920e-05 -1.783888e-08) (-9.021697e-09 1.741347e-04 5.528526e-10)) ((4.078426e-13 -3.893500e-13 -3.908485e-12) (1.118742e-11 -2.108101e-12 4.260416e-10))
0.864421      	((-4.289663e-10 7.304595e-05 -1.339966e-08) (-5.860296e-09 1.573177e-04 7.720104e-11)) ((2.907955e-13 -4.523665e-13 -5.515842e-12) (2.318786e-11 -1.868064e-12 4.796394e-10))
1.049306      	((-7.087970e-10 6.907563e-05 -1.142351e-08) (-3.229987e-09 1.419819e-04 -2.986656e-10)) ((6.821044e-14 -2.239285e-13 -3.417337e-12) (3.160544e-11 -6.768118e-13 5.533884e-10))
1.271167      	((-3.757640e-09 6.443198e-05 -7.641069e-09) (-1.401710e-09 1.281165e-04 -5.953705e-10)) ((-1.909688e-13 -8.796408e-14 -2.183849e-12) (3.150624e-11 6.206211e-13 6.285933e-10))
1.5374        	((-5.200026e-09 5.972446e-05 -4.867450e-09) (5.834697e-11 1.156903e-04 -8.176448e-10)) ((-3.337274e-13 -3.458717e-15 -4.185236e-12) (2.480599e-11 1.725693e-12 6.635201e-10))
1.85688       	((-3.437154e-09 5.541045e-05 -5.526575e-09) (1.121026e-09 1.046429e-04 -9.072340e-10)) ((-4.465648e-13 1.589870e-14 -7.012205e-12) (1.459618e-11 2.032079e-12 6.496016e-10))
2.240256      	((3.701032e-09 5.165907e-05 -5.150860e-09) (1.358300e-09 9.488490e-05 -8.622438e-10)) ((-3.725029e-13 -4.100795e-14 -9.050812e-12) (-3.445631e-12 1.933011e-12 6.144249e-10))
2.700307      	((-3.174773e-09 4.855592e-05 -8.608121e-09) (6.951736e-10 8.629297e-05 -8.138543e-10)) ((-1.848925e-13 -5.259985e-14 -1.029431e-11) (-2.608433e-11 2.069359e-12 5.901477e-10))
3.252369      	((-1.141205e-08 4.611447e-05 -1.290463e-08) (-3.046263e-11 7.873302e-05 -8.446257e-10)) ((1.369353e-15 -2.648618e-14 -1.250327e-11) (-4.962727e-11 2.194331e-12 5.691903e-10))
3.914842      	((-1.880725e-08 4.441763e-05 -1.933700e-08) (-3.809568e-10 7.210035e-05 -8.839890e-10)) ((2.603075e-13 1.576201e-14 -1.646421e-11) (-7.519288e-11 2.302043e-12 5.308528e-10))
4.709811      	((-2.391093e-08 4.346479e-05 -2.173565e-08) (-6.981279e-10 6.632427e-05 -8.901980e-10)) ((3.402983e-13 6.107244e-14 -2.121836e-11) (-9.105697e-11 2.042987e-12 4.832409e-10))
5.663773      	((-2.576171e-08 4.332277e-05 -2.479957e-08) (-9.989202e-10 6.134036e-05 -9.744623e-10)) ((5.937621e-13 -3.394214e-15 -2.592076e-11) (-8.226676e-11 1.732404e-12 4.145736e-10))
6.808528      	((-2.262956e-08 4.407142e-05 -2.775343e-08) (-7.914196e-10 5.707630e-05 -1.088087e-09)) ((5.265029e-13 8.061161e-15 -3.182881e-11) (-5.195094e-11 1.586833e-12 3.668601e-10))
8.182233      	((-1.946063e-08 4.570314e-05 -2.430372e-08) (-1.444617e-10 5.344980e-05 -1.077828e-09)) ((4.108737e-13 -1.587630e-14 -4.081945e-11) (-1.481143e-11 5.351110e-13 3.749061e-10))
9.83068       	((-1.444767e-08 4.816011e-05 -2.308365e-08) (6.081024e-10 5.039282e-05 -1.219400e-09)) ((3.777252e-13 -7.288422e-14 -5.078828e-11) (2.068379e-11 -7.432899e-13 4.102676e-10))
11.808816     	((-7.484540e-09 5.137781e-05 -1.597729e-08) (1.750791e-09 4.784694e-05 -1.162334e-09)) ((1.745429e-13 -7.284071e-14 -6.302328e-11) (5.420679e-11 -7.724123e-13 5.189866e-10))
14.182579     	((6.516110e-09 5.526053e-05 -5.633799e-09) (2.931378e-09 4.574914e-05 -5.577094e-10)) ((-1.408078e-13 2.439201e-14 -7.647651e-11) (8.172532e-11 -7.809980e-13 7.408505e-10))
16.95554      	((1.525516e-08 5.960945e-05 2.983884e-09) (3.665598e-09 4.409465e-05 3.990159e-10)) ((-3.633379e-13 9.661446e-14 -9.158870e-11) (1.073774e-10 -8.262713e-13 8.911760e-10))
20.12869      	((2.221243e-08 6.407167e-05 8.067681e-09) (4.947401e-09 4.282199e-05 1.494409e-09)) ((-5.282627e-13 2.241439e-13 -1.068529e-10) (1.375468e-10 -6.871077e-13 9.898388e-10))
23.701687     	((3.133885e-08 6.839626e-05 1.744562e-08) (5.718022e-09 4.183738e-05 2.575088e-09)) ((-8.091449e-13 3.920670e-13 -1.197386e-10) (1.625101e-10 -6.787954e-13 1.018119e-09))
27.673009     	((4.485384e-08 7.224733e-05 2.939911e-08) (6.407191e-09 4.104280e-05 3.565848e-09)) ((-1.097293e-12 5.255635e-13 -1.300222e-10) (1.635862e-10 -9.203748e-13 9.189004e-10))
31.638611     	((4.920075e-08 7.539499e-05 3.439442e-08) (7.344639e-09 4.041456e-05 4.028778e-09)) ((-1.190073e-12 8.038625e-13 -1.385313e-10) (1.208080e-10 -2.161520e-12 7.914897e-10))
35.593957     	((5.285193e-08 7.768704e-05 3.892650e-08) (8.591155e-09 3.987473e-05 4.162463e-09)) ((-1.264311e-12 1.018527e-12 -1.461728e-10) (6.681261e-11 -2.661311e-12 6.781483e-10))
39.552507     	((5.459457e-08 7.891709e-05 4.355473e-08) (8.522043e-09 3.937353e-05 4.062370e-09)) ((-1.341964e-12 1.233516e-12 -1.522693e-10) (-3.337742e-12 -2.126224e-12 6.608894e-10))
43.5277       	((5.619203e-08 7.951237e-05 4.833137e-08) (8.107425e-09 3.891240e-05 4.088248e-09)) ((-1.312626e-12 1.405347e-12 -1.569906e-10) (-7.697255e-11 -2.241555e-12 6.875266e-10))
47.521881     	((5.472667e-08 7.963100e-05 4.989657e-08) (6.964994e-09 3.848366e-05 4.052280e-09)) ((-1.274142e-12 1.543424e-12 -1.601393e-10) (-1.343225e-10 -1.868781e-12 7.308290e-10))
51.532205     	((5.710864e-08 7.942982e-05 5.364637e-08) (6.518454e-09 3.808162e-05 3.740676e-09)) ((-1.194715e-12 1.625410e-12 -1.619420e-10) (-2.010438e-10 -2.463832e-12 7.853482e-10))
55.559289     	((6.782942e-08 7.897815e-05 6.210968e-08) (6.766068e-09 3.770940e-05 3.587364e-09)) ((-1.064733e-12 1.654141e-12 -1.624631e-10) (-2.739671e-10 -2.852736e-12 8.653528e-10))
59.60365      	((7.616721e-08 7.848676e-05 6.961562e-08) (7.078493e-09 3.736236e-05 3.461817e-09)) ((-9.304376e-13 1.621860e-12 -1.627887e-10) (-3.468368e-10 -3.462407e-12 9.696979e-10))
63.665097     	((8.473373e-08 7.800408e-05 7.561314e-08) (7.308879e-09 3.704209e-05 3.389609e-09)) ((-9.390323e-13 1.550011e-12 -1.631287e-10) (-4.142255e-10 -4.104693e-12 1.076728e-09))
67.742933     	((9.755967e-08 7.759746e-05 8.515341e-08) (7.654271e-09 3.674951e-05 3.569409e-09)) ((-9.373383e-13 1.500853e-12 -1.635293e-10) (-4.687505e-10 -3.485794e-12 1.173835e-09))
71.835939     	((1.084060e-07 7.726109e-05 9.178723e-08) (8.067829e-09 3.648244e-05 3.931918e-09)) ((-9.379838e-13 1.467589e-12 -1.640791e-10) (-5.137731e-10 -3.433470e-12 1.251027e-09))
75.943172     	((1.269971e-07 7.696394e-05 1.004540e-07) (8.835352e-09 3.623898e-05 4.434872e-09)) ((-9.835197e-13 1.469267e-12 -1.647398e-10) (-5.466754e-10 -3.241601e-12 1.310408e-09))
80.06199      	((1.450946e-07 7.669927e-05 1.096192e-07) (1.008525e-08 3.601738e-05 5.175822e-09)) ((-1.055235e-12 1.448922e-12 -1.653765e-10) (-5.670724e-10 -2.773213e-12 1.356773e-09))
84.188601     	((1.698815e-07 7.642280e-05 1.241829e-07) (1.195793e-08 3.581448e-05 6.359580e-09)) ((-1.246267e-12 1.447161e-12 -1.659178e-10) (-5.735067e-10 -2.647380e-12 1.384664e-09))
88.322588     	((1.942338e-07 7.614880e-05 1.386881e-07) (1.456007e-08 3.562747e-05 8.053267e-09)) ((-1.380982e-12 1.462141e-12 -1.664341e-10) (-5.690836e-10 -2.563270e-12 1.407494e-09))
92.46358      	((2.149446e-07 7.590532e-05 1.496922e-07) (1.741772e-08 3.545650e-05 9.992816e-09)) ((-1.464762e-12 1.467907e-12 -1.669524e-10) (-5.555456e-10 -2.183763e-12 1.424870e-09))
96.611        	((2.388580e-07 7.566286e-05 1.578245e-07) (2.048204e-08 3.530008e-05 1.189902e-08)) ((-1.564134e-12 1.534990e-12 -1.673923e-10) (-5.338172e-10 -1.839537e-12 1.421557e-09))
100.764532    	((2.617005e-07 7.539221e-05 1.690762e-07) (2.393362e-08 3.515476e-05 1.394068e-08)) ((-1.723894e-12 1.603306e-12 -1.677298e-10) (-5.076698e-10 -1.352976e-12 1.396308e-09))
104.924342    	((2.887742e-07 7.514170e-05 1.839248e-07) (2.782216e-08 3.501928e-05 1.622096e-08)) ((-1.889409e-12 1.672838e-12 -1.680225e-10) (-4.778179e-10 -6.017206e-13 1.362530e-09))
109.091321    	((3.123039e-07 7.490672e-05 1.976529e-07) (3.193248e-08 3.489330e-05 1.858790e-08)) ((-2.030817e-12 1.711137e-12 -1.682697e-10) (-4.467264e-10 5.842952e-14 1.333408e-09))
113.26538     	((3.346273e-07 7.469421e-05 2.114607e-07) (3.611570e-08 3.477707e-05 2.108390e-08)) ((-2.095604e-12 1.724100e-12 -1.684509e-10) (-4.172115e-10 7.383710e-13 1.303440e-09))
117.446109    	((3.625293e-07 7.446449e-05 2.273007e-07) (4.050577e-08 3.466852e-05 2.367365e-08)) ((-2.211103e-12 1.674506e-12 -1.685487e-10) (-3.887877e-10 4.880411e-13 1.269689e-09))
121.633239    	((3.903834e-07 7.423706e-05 2.432999e-07) (4.500712e-08 3.456572e-05 2.627285e-08)) ((-2.366554e-12 1.576166e-12 -1.686578e-10) (-3.635544e-10 -1.823230e-14 1.239139e-09))
125.826437    	((4.334115e-07 7.402340e-05 2.684413e-07) (5.019036e-08 3.446800e-05 2.925747e-08)) ((-2.637670e-12 1.462962e-12 -1.687936e-10) (-3.482947e-10 -4.935574e-13 1.218017e-09))
130.025443    	((4.778548e-07 7.381244e-05 2.943228e-07) (5.583142e-08 3.437481e-05 3.250173e-08)) ((-2.914545e-12 1.347871e-12 -1.689114e-10) (-3.432733e-10 -9.098611e-13 1.210226e-09))
134.230018    	((5.292240e-07 7.360545e-05 3.248368e-07) (6.185089e-08 3.428614e-05 3.595589e-08)) ((-3.212257e-12 1.222501e-12 -1.690052e-10) (-3.518161e-10 -1.264328e-12 1.222854e-09))
138.43985     	((5.863954e-07 7.340614e-05 3.599783e-07) (6.832937e-08 3.420218e-05 3.969532e-08)) ((-3.507106e-12 1.130509e-12 -1.690930e-10) (-3.780934e-10 -1.369709e-12 1.257799e-09))
142.654807    	((6.492805e-07 7.321828e-05 3.987895e-07) (7.518186e-08 3.412299e-05 4.365368e-08)) ((-3.812528e-12 1.041196e-12 -1.691758e-10) (-4.213185e-10 -1.276594e-12 1.312718e-09))
146.874792    	((7.243004e-07 7.303845e-05 4.455548e-07) (8.274868e-08 3.404825e-05 4.811358e-08)) ((-4.169199e-12 9.762838e-13 -1.692514e-10) (-4.778237e-10 -1.253635e-12 1.387344e-09))
151.098694    	((8.112996e-07 7.286916e-05 4.979632e-07) (9.126483e-08 3.397770e-05 5.317609e-08)) ((-4.564826e-12 9.177371e-13 -1.693110e-10) (-5.473440e-10 -1.007123e-12 1.484089e-09))
155.325092    	((9.121625e-07 7.270850e-05 5.591467e-07) (1.009702e-07 3.391120e-05 5.896626e-08)) ((-5.000503e-12 8.859202e-13 -1.693568e-10) (-6.314631e-10 -4.879920e-13 1.603454e-09))
159.553808    	((1.023898e-06 7.256168e-05 6.287003e-07) (1.118710e-07 3.384881e-05 6.559036e-08)) ((-5.476072e-12 8.505218e-13 -1.694020e-10) (-7.293405e-10 -1.551783e-13 1.745500e-09))
163.784671    	((1.147571e-06 7.243225e-05 7.011517e-07) (1.239608e-07 3.379093e-05 7.287664e-08)) ((-5.934839e-12 8.533460e-13 -1.694246e-10) (-8.395631e-10 2.553762e-13 1.911679e-09))
168.017505    	((1.285241e-06 7.230721e-05 7.851541e-07) (1.374635e-07 3.373716e-05 8.106189e-08)) ((-6.526579e-12 8.446098e-13 -1.694022e-10) (-9.618227e-10 8.350036e-13 2.101684e-09))
172.252148    	((1.434660e-06 7.217786e-05 8.755182e-07) (1.524802e-07 3.368665e-05 9.029279e-08)) ((-7.167390e-12 8.576010e-13 -1.693318e-10) (-1.093818e-09 1.278632e-12 2.313300e-09))
176.488425    	((1.593683e-06 7.203977e-05 9.687899e-07) (1.689436e-07 3.363835e-05 1.003437e-07)) ((-7.812414e-12 9.133819e-13 -1.692496e-10) (-1.234479e-09 1.539565e-12 2.544627e-09))
180.726174    	((1.759116e-06 7.190038e-05 1.066913e-06) (1.866580e-07 3.359163e-05 1.110819e-07)) ((-8.441917e-12 9.683414e-13 -1.691813e-10) (-1.381620e-09 1.518121e-12 2.789672e-09))
184.965223    	((1.937466e-06 7.177326e-05 1.172797e-06) (2.058233e-07 3.354678e-05 1.227050e-07)) ((-9.102658e-12 9.891905e-13 -1.691266e-10) (-1.532295e-09 1.088953e-12 3.042512e-09))
189.205392    	((2.130222e-06 7.165583e-05 1.285626e-06) (2.267799e-07 3.350397e-05 1.353970e-07)) ((-9.785035e-12 9.676180e-13 -1.690826e-10) (-1.682193e-09 1.200703e-12 3.299338e-09))
193.446512    	((2.335959e-06 7.155003e-05 1.406072e-06) (2.496263e-07 3.346331e-05 1.492020e-07)) ((-1.052805e-11 9.195439e-13 -1.690551e-10) (-1.828910e-09 1.560464e-12 3.558783e-09))
197.688424    	((2.554554e-06 7.145516e-05 1.532336e-06) (2.743732e-07 3.342488e-05 1.640684e-07)) ((-1.132129e-11 8.298676e-13 -1.690285e-10) (-1.972366e-09 1.722151e-12 3.820512e-09))
201.930975    	((2.787257e-06 7.136817e-05 1.667645e-06) (3.010446e-07 3.338859e-05 1.800475e-07)) ((-1.219154e-11 6.982633e-13 -1.689824e-10) (-2.115937e-09 1.389301e-12 4.087971e-09))
206.174023    	((3.037000e-06 7.128797e-05 1.814434e-06) (3.298342e-07 3.335425e-05 1.972921e-07)) ((-1.315049e-11 5.410678e-13 -1.689241e-10) (-2.263780e-09 1.648339e-13 4.362054e-09))
210.417425    	((3.307455e-06 7.121334e-05 1.973481e-06) (3.610676e-07 3.332166e-05 2.160138e-07)) ((-1.419395e-11 3.679900e-13 -1.688548e-10) (-2.415079e-09 -1.421348e-12 4.642272e-09))
214.661035    	((3.602175e-06 7.114380e-05 2.147108e-06) (3.951322e-07 3.329066e-05 2.364300e-07)) ((-1.534498e-11 1.932775e-13 -1.687746e-10) (-2.570693e-09 -1.856432e-12 4.930344e-09))
218.904698    	((3.925502e-06 7.107980e-05 2.336742e-06) (4.325624e-07 3.326128e-05 2.587219e-07)) ((-1.664871e-11 2.723112e-14 -1.686937e-10) (-2.734831e-09 -9.899152e-13 5.224977e-09))
223.148244    	((4.281991e-06 7.102282e-05 2.546389e-06) (4.738026e-07 3.323370e-05 2.831078e-07)) ((-1.813082e-11 -1.478810e-13 -1.686169e-10) (-2.916832e-09 8.959553e-13 5.534007e-09))
227.391487    	((4.675532e-06 7.097247e-05 2.780091e-06) (5.191641e-07 3.320795e-05 3.097983e-07)) ((-1.980776e-11 -3.473255e-13 -1.685374e-10) (-3.130815e-09 3.078487e-12 5.872887e-09))
231.634221    	((5.113501e-06 7.093016e-05 3.041210e-06) (5.690029e-07 3.318414e-05 3.391307e-07)) ((-2.166268e-11 -5.752028e-13 -1.684364e-10) (-3.382363e-09 4.790695e-12 6.260078e-09))
235.876219    	((5.596978e-06 7.089605e-05 3.334183e-06) (6.237800e-07 3.316239e-05 3.716794e-07)) ((-2.373049e-11 -8.388260e-13 -1.683165e-10) (-3.670763e-09 7.155207e-12 6.707334e-09))
240.117229    	((6.129121e-06 7.086967e-05 3.661200e-06) (6.839211e-07 3.314270e-05 4.079131e-07)) ((-2.598691e-11 -1.150534e-12 -1.681884e-10) (-3.998007e-09 9.906690e-12 7.222624e-09))
244.356985    	((6.716580e-06 7.085455e-05 4.024792e-06) (7.501720e-07 3.312538e-05 4.483648e-07)) ((-2.842860e-11 -1.543959e-12 -1.680276e-10) (-4.360410e-09 1.108334e-11 7.799100e-09))
248.595201    	((7.364774e-06 7.084903e-05 4.425684e-06) (8.231717e-07 3.311050e-05 4.932169e-07)) ((-3.106519e-11 -2.052039e-12 -1.678297e-10) (-4.766756e-09 8.170952e-12 8.440764e-09))
252.831561    	((8.072969e-06 7.085998e-05 4.862821e-06) (9.033159e-07 3.309842e-05 5.424491e-07)) ((-3.380498e-11 -2.606058e-12 -1.676047e-10) (-5.223156e-09 1.999994e-12 9.158652e-09))
257.065733    	((8.849247e-06 7.088949e-05 5.341199e-06) (9.913688e-07 3.308960e-05 5.964811e-07)) ((-3.670996e-11 -3.198572e-12 -1.673814e-10) (-5.730954e-09 -5.057549e-12 9.947945e-09))
261.297367    	((9.700690e-06 7.094193e-05 5.865443e-06) (1.088242e-06 3.308453e-05 6.558192e-07)) ((-3.985379e-11 -3.945677e-12 -1.671584e-10) (-6.285855e-09 -9.282874e-12 1.080874e-08))
265.526086    	((1.062942e-05 7.101698e-05 6.436179e-06) (1.194443e-06 3.308364e-05 7.206823e-07)) ((-4.326800e-11 -4.886085e-12 -1.668989e-10) (-6.895323e-09 -6.500557e-12 1.175315e-08))
269.751489    	((1.163582e-05 7.111617e-05 7.054411e-06) (1.310155e-06 3.308717e-05 7.914045e-07)) ((-4.694935e-11 -6.022630e-12 -1.666040e-10) (-7.560092e-09 1.319464e-12 1.279315e-08))
273.973161    	((1.272450e-05 7.124114e-05 7.718004e-06) (1.435913e-06 3.309548e-05 8.682790e-07)) ((-5.077215e-11 -7.450343e-12 -1.662693e-10) (-8.276903e-09 1.749831e-11 1.391781e-08))
278.19068     	((1.390444e-05 7.140183e-05 8.435675e-06) (1.572970e-06 3.310931e-05 9.518134e-07)) ((-5.483175e-11 -9.225387e-12 -1.659382e-10) (-9.025613e-09 3.276083e-11 1.510530e-08))
282.403612    	((1.517839e-05 7.159854e-05 9.207418e-06) (1.722191e-06 3.312955e-05 1.042564e-06)) ((-5.914350e-11 -1.142741e-11 -1.656284e-10) (-9.797557e-09 4.168281e-11 1.635378e-08))
286.611515    	((1.654686e-05 7.183586e-05 1.003481e-05) (1.884225e-06 3.315664e-05 1.140882e-06)) ((-6.379701e-11 -1.401001e-11 -1.653062e-10) (-1.059461e-08 4.286494e-11 1.766147e-08))
