# Forces      
# CofR        : (0.000000e+00 0.000000e+00 0.000000e+00)
# Time        forces(pressure viscous)	moments(pressure viscous)
0             	((0.000000e+00 0.000000e+00 0.000000e+00) (0.000000e+00 0.000000e+00 0.000000e+00)) ((0.000000e+00 0.000000e+00 0.000000e+00) (0.000000e+00 0.000000e+00 0.000000e+00))
0.012         	((2.699689e-12 -4.514560e-12 -1.084922e-09) (3.175750e-15 -2.380768e-14 -2.278760e-11)) ((4.895939e-16 -4.220228e-11 2.238289e-17) (-5.738755e-17 -2.787903e-08 1.647921e-15))
0.0264        	((-4.538529e-12 4.792195e-12 4.078932e-10) (3.852723e-15 -6.738083e-14 -3.962602e-11)) ((1.039606e-16 -2.112403e-11 -2.054276e-15) (-7.592869e-16 -2.553502e-08 2.326557e-15))
0.04368       	((-1.591265e-11 -2.597997e-11 -3.779088e-10) (-4.129286e-14 -5.053390e-14 -4.295455e-11)) ((-3.831588e-16 -1.164965e-11 -1.336424e-15) (1.272689e-15 -2.312619e-08 3.350411e-15))
0.064416      	((4.608892e-12 7.152218e-12 -1.422359e-11) (-1.283887e-13 3.721767e-14 -3.551187e-11)) ((-8.813082e-18 -6.630222e-12 9.335030e-17) (4.284169e-15 -2.070513e-08 4.357564e-15))
0.0892992     	((-1.363867e-11 -8.016916e-12 -4.734231e-11) (-1.925159e-13 1.271695e-13 -2.950951e-11)) ((9.893563e-17 -4.922332e-12 1.016478e-17) (5.873209e-15 -1.834241e-08 4.488651e-15))
0.119159      	((5.632482e-12 2.146731e-12 -1.251254e-11) (-2.340984e-13 2.214220e-13 -2.501586e-11)) ((-7.047433e-17 -3.530956e-12 2.110035e-17) (7.897915e-15 -1.611071e-08 5.127401e-15))
0.154991      	((4.490221e-12 5.123649e-12 3.096958e-11) (-2.740022e-13 3.463275e-13 -2.014838e-11)) ((6.085207e-17 -2.789361e-12 -2.135096e-16) (1.050168e-14 -1.406144e-08 6.309113e-15))
0.197989      	((3.489048e-12 3.444887e-12 -3.324295e-12) (-2.917586e-13 4.473338e-13 -1.573289e-11)) ((9.276682e-17 -2.217018e-12 -2.145815e-16) (1.178581e-14 -1.224463e-08 7.257972e-15))
0.249587      	((-4.054608e-13 3.536495e-12 2.993636e-11) (-2.818572e-13 5.038172e-13 -1.242537e-11)) ((1.475020e-16 -1.827438e-12 4.448832e-17) (1.146822e-14 -1.068735e-08 6.304657e-15))
0.311504      	((2.971520e-13 -8.637273e-13 5.706954e-12) (-2.573067e-13 5.470803e-13 -9.673910e-12)) ((1.183508e-16 -1.521050e-12 2.135721e-16) (1.086392e-14 -9.385850e-09 4.289153e-15))
0.385805      	((1.795826e-12 -3.019443e-12 -1.480559e-13) (-2.331779e-13 5.621896e-13 -7.405936e-12)) ((3.632248e-17 -1.304013e-12 3.435748e-16) (1.066224e-14 -8.312097e-09 3.390863e-15))
0.474966      	((3.691804e-12 8.447384e-13 -6.426292e-12) (-1.931504e-13 5.991953e-13 -5.254018e-12)) ((3.392903e-17 -1.161348e-12 2.756089e-16) (1.012517e-14 -7.423851e-09 1.072542e-15))
0.581959      	((6.138857e-12 3.443920e-12 6.538479e-12) (-1.334084e-13 6.267809e-13 -3.459233e-12)) ((6.159857e-17 -1.040079e-12 1.004322e-16) (9.684871e-15 -6.677191e-09 -2.173765e-15))
0.710351      	((8.649155e-12 4.844593e-12 -1.475023e-11) (-1.445168e-13 4.481953e-13 -3.087336e-12)) ((1.474051e-16 -9.233652e-13 9.367597e-17) (7.471354e-15 -6.035774e-09 5.252579e-16))
0.864421      	((9.169125e-12 4.087466e-12 -7.253651e-12) (-1.700846e-13 -5.046746e-14 -2.911231e-12)) ((2.065276e-16 -8.446516e-13 -1.381355e-16) (2.772823e-15 -5.473831e-09 7.953408e-15))
1.049306      	((1.419874e-11 3.872521e-12 6.842730e-13) (-3.144337e-13 -5.019351e-13 -1.849210e-12)) ((3.108035e-16 -7.945312e-13 -1.188125e-16) (-2.855572e-15 -4.974383e-09 1.257331e-14))
1.271167      	((1.803236e-11 3.210032e-12 -1.450742e-11) (-5.910988e-13 -7.296571e-13 -8.045865e-13)) ((1.192977e-16 -7.431853e-13 -2.290610e-16) (-1.074173e-14 -4.526002e-09 9.959903e-15))
1.5374        	((1.842231e-11 -1.412410e-12 -1.720180e-11) (-9.924231e-13 -8.044834e-13 5.724160e-13)) ((-2.187505e-16 -6.835107e-13 -3.500090e-16) (-2.199679e-14 -4.121243e-09 2.072771e-15))
1.85688       	((1.763488e-11 2.115538e-12 -1.190503e-11) (-1.501064e-12 -8.841044e-13 2.693757e-12)) ((-4.187521e-16 -6.308521e-13 -1.592430e-16) (-3.905627e-14 -3.756076e-09 -1.410862e-14))
2.240256      	((1.657793e-11 9.910129e-13 -1.504994e-11) (-2.218005e-12 -7.366213e-13 4.070649e-12)) ((-4.371459e-16 -5.968318e-13 -1.089404e-16) (-5.446905e-14 -3.428416e-09 -3.513182e-14))
2.700307      	((1.556470e-11 2.148165e-13 -1.275986e-11) (-3.501489e-12 -4.636242e-13 4.805570e-12)) ((-4.015822e-16 -5.722082e-13 -1.464059e-16) (-7.877893e-14 -3.136784e-09 -7.844692e-14))
3.252369      	((1.177173e-11 1.082168e-12 -8.483095e-12) (-5.134629e-12 -2.475293e-13 7.463371e-12)) ((-4.793039e-16 -5.475035e-13 -2.310815e-16) (-1.108938e-13 -2.879189e-09 -1.311956e-13))
3.914842      	((5.008006e-12 9.964828e-13 -2.724848e-12) (-6.688941e-12 4.606483e-14 1.174614e-11)) ((-2.293024e-16 -5.188581e-13 -3.893927e-16) (-1.341719e-13 -2.652620e-09 -1.571155e-13))
4.709811      	((2.195665e-12 8.737771e-14 1.926371e-12) (-8.391292e-12 4.291212e-13 1.343969e-11)) ((-2.995051e-16 -4.870551e-13 -3.234305e-16) (-1.534057e-13 -2.452862e-09 -1.778438e-13))
5.663773      	((-1.346852e-13 8.209718e-13 -3.476814e-12) (-9.435431e-12 3.975064e-13 1.259128e-11)) ((-2.843943e-16 -4.525055e-13 -1.047103e-16) (-1.623233e-13 -2.275219e-09 -1.799839e-13))
6.808528      	((-2.390809e-12 1.366543e-12 -7.102114e-13) (-9.368915e-12 1.382283e-13 1.214805e-11)) ((-3.089548e-16 -4.172527e-13 1.482910e-16) (-1.554263e-13 -2.115519e-09 -1.626957e-13))
8.182233      	((-3.313585e-12 -7.980000e-15 5.939658e-13) (-8.684694e-12 2.109010e-13 1.115954e-11)) ((-2.688668e-16 -3.829963e-13 1.058356e-16) (-1.363906e-13 -1.970532e-09 -1.490722e-13))
9.83068       	((-3.567165e-12 1.573802e-12 -9.005112e-13) (-7.501264e-12 3.267170e-13 8.525999e-12)) ((-2.003927e-16 -3.478905e-13 1.061948e-16) (-1.121089e-13 -1.837809e-09 -1.293672e-13))
11.808816     	((2.958730e-13 5.929756e-13 -3.310947e-12) (-5.868875e-12 -4.259307e-14 5.320548e-12)) ((-1.948288e-16 -3.163081e-13 2.175966e-16) (-9.078594e-14 -1.715648e-09 -9.784540e-14))
14.182579     	((1.158297e-12 1.274263e-12 -4.544401e-12) (-4.266282e-12 -7.909374e-13 3.567449e-12)) ((-2.472059e-16 -2.873994e-13 2.244179e-16) (-7.148328e-14 -1.603074e-09 -5.351201e-14))
17.031095     	((1.594141e-12 1.472708e-12 -3.627474e-12) (-2.881537e-12 -9.587715e-13 2.397015e-12)) ((-1.176568e-16 -2.626124e-13 2.622932e-16) (-4.814157e-14 -1.499571e-09 -2.547112e-14))
20.449314     	((1.682030e-12 1.037675e-12 -4.475485e-12) (-1.813377e-12 -6.240974e-13 1.432488e-12)) ((-1.317456e-16 -2.406321e-13 3.078994e-16) (-2.622830e-14 -1.404812e-09 -1.766514e-14))
24.551176     	((1.926918e-12 3.809288e-13 -4.090507e-12) (-1.126134e-12 -3.154310e-13 1.221220e-12)) ((-1.262665e-16 -2.210801e-13 3.147641e-16) (-1.306336e-14 -1.318225e-09 -1.451634e-14))
29.473411     	((1.662066e-12 6.728953e-13 -4.487022e-12) (-7.688152e-13 -1.495068e-13 1.536413e-12)) ((-7.327524e-17 -2.047012e-13 2.825793e-16) (-7.222785e-15 -1.239208e-09 -1.197067e-14))
35.380094     	((2.206924e-12 5.105836e-13 -4.206821e-12) (-5.963085e-13 2.455828e-14 1.872492e-12)) ((-6.386997e-17 -1.902060e-13 2.690836e-16) (-4.245255e-15 -1.167115e-09 -1.008049e-14))
42.468112     	((1.826161e-12 4.228156e-13 -3.569713e-12) (-5.527841e-13 1.012463e-13 2.015890e-12)) ((-7.477827e-17 -1.777454e-13 2.071158e-16) (-3.383769e-15 -1.101331e-09 -1.191239e-14))
50.973735     	((1.537559e-12 3.111325e-13 -3.005522e-12) (-6.474855e-13 1.708751e-13 1.904465e-12)) ((-7.730389e-17 -1.666510e-13 1.620145e-16) (-5.111056e-15 -1.041363e-09 -1.642229e-14))
61.180482     	((1.630380e-12 2.231760e-13 -3.074013e-12) (-7.525500e-13 2.041690e-13 1.684826e-12)) ((-5.687326e-17 -1.566725e-13 1.469467e-16) (-9.753434e-15 -9.867705e-10 -2.304631e-14))
73.428578     	((1.111746e-12 8.569354e-14 -2.129545e-12) (-8.604640e-13 1.785630e-13 1.614102e-12)) ((-2.811183e-17 -1.478059e-13 1.175637e-16) (-1.411544e-14 -9.371947e-10 -2.718663e-14))
88.126294     	((8.464906e-13 2.330817e-13 -2.617818e-12) (-1.019669e-12 1.650658e-13 1.675545e-12)) ((-1.143940e-19 -1.398199e-13 7.409633e-17) (-1.685740e-14 -8.922578e-10 -2.981929e-14))
105.763553    	((6.498074e-13 1.361583e-13 -1.991290e-12) (-1.197197e-12 1.380905e-13 1.836938e-12)) ((4.269886e-17 -1.322629e-13 5.020016e-17) (-1.907004e-14 -8.516026e-10 -3.285172e-14))
126.928263    	((4.371821e-13 1.450166e-13 -1.819351e-12) (-1.355088e-12 1.208900e-13 1.874326e-12)) ((8.035802e-17 -1.253951e-13 4.167491e-17) (-1.944004e-14 -8.148517e-10 -3.446943e-14))
152.325916    	((3.159864e-13 8.789215e-14 -1.259667e-12) (-1.349808e-12 9.305770e-14 1.840220e-12)) ((8.422327e-17 -1.192800e-13 4.752617e-17) (-1.982571e-14 -7.816183e-10 -3.502917e-14))
182.803099    	((-9.021552e-14 1.393446e-13 -9.043576e-13) (-1.240085e-12 9.583330e-14 1.874325e-12)) ((8.032793e-17 -1.137585e-13 5.392828e-17) (-2.073160e-14 -7.515118e-10 -3.586584e-14))
219.375719    	((-2.835227e-13 8.790043e-14 -3.529549e-13) (-1.094269e-12 6.658498e-14 2.108165e-12)) ((9.199874e-17 -1.087285e-13 5.609267e-17) (-2.138381e-14 -7.241694e-10 -3.572292e-14))
263.262863    	((-2.383806e-13 1.145393e-13 -2.303050e-13) (-1.031450e-12 1.628602e-14 2.473097e-12)) ((8.532428e-17 -1.041611e-13 5.159805e-17) (-2.250927e-14 -6.992978e-10 -3.420040e-14))
315.927436    	((-2.582621e-13 1.053316e-13 5.969029e-14) (-1.043168e-12 -2.611928e-14 2.768764e-12)) ((6.440480e-17 -1.000276e-13 4.065226e-17) (-2.473547e-14 -6.766690e-10 -3.394718e-14))
379.124923    	((-3.117746e-13 1.187531e-13 3.554713e-13) (-1.007331e-12 -3.327822e-14 3.068534e-12)) ((4.794509e-17 -9.625025e-14 2.337587e-17) (-2.566055e-14 -6.560995e-10 -3.419766e-14))
454.961908    	((-4.777277e-14 6.883892e-14 3.740184e-13) (-9.901676e-13 -2.570560e-14 3.320405e-12)) ((2.785784e-17 -9.280214e-14 3.875882e-18) (-2.549789e-14 -6.374491e-10 -3.380278e-14))
545.966289    	((-2.699367e-14 6.264701e-14 4.083157e-13) (-1.003423e-12 -2.263612e-14 3.519362e-12)) ((1.049925e-17 -8.963691e-14 -7.086162e-18) (-2.459679e-14 -6.205797e-10 -3.277076e-14))
655.171547    	((-4.177141e-14 7.651635e-14 4.301140e-13) (-1.039836e-12 -3.317529e-14 3.574274e-12)) ((1.193126e-19 -8.676299e-14 -1.594248e-17) (-2.351139e-14 -6.053731e-10 -3.104358e-14))
786.217856    	((8.891016e-14 1.090281e-13 3.980130e-13) (-9.979610e-13 -2.196229e-14 3.534165e-12)) ((-5.155169e-18 -8.418643e-14 -2.118282e-17) (-2.197298e-14 -5.917315e-10 -2.968469e-14))
943.473427    	((1.069853e-14 7.426122e-14 2.989648e-13) (-9.406089e-13 -1.032653e-14 3.451033e-12)) ((-8.606852e-18 -8.188975e-14 -1.699927e-17) (-2.077803e-14 -5.795467e-10 -2.779113e-14))
1132.180113   	((-1.258752e-13 7.862932e-14 1.988545e-13) (-8.941928e-13 -8.418798e-15 3.353488e-12)) ((-1.320626e-17 -7.985845e-14 -1.110481e-17) (-1.972529e-14 -5.687162e-10 -2.581765e-14))
1358.628135   	((-1.547661e-13 4.008582e-14 1.204792e-13) (-8.664410e-13 -2.116039e-14 3.227173e-12)) ((-1.671564e-17 -7.804544e-14 -2.003562e-18) (-1.880101e-14 -5.591417e-10 -2.397963e-14))
1630.365763   	((-1.329849e-13 2.186466e-15 9.070466e-14) (-8.347150e-13 -3.789633e-14 3.134740e-12)) ((-2.053741e-17 -7.645012e-14 6.061748e-18) (-1.797151e-14 -5.507235e-10 -2.211227e-14))
1956.450915   	((-1.110061e-13 -3.827437e-16 5.573116e-14) (-7.842666e-13 -5.596258e-14 3.102749e-12)) ((-1.819568e-17 -7.507632e-14 1.513163e-17) (-1.718706e-14 -5.433641e-10 -2.034547e-14))
2347.753098   	((-3.667029e-14 1.079346e-14 -1.750420e-14) (-7.164138e-13 -6.677404e-14 3.090179e-12)) ((-1.627534e-17 -7.389063e-14 2.243456e-17) (-1.633588e-14 -5.369695e-10 -1.888115e-14))
2817.315718   	((4.269030e-14 -1.072790e-14 -7.646843e-14) (-6.339053e-13 -7.446963e-14 3.067535e-12)) ((-1.474150e-17 -7.287577e-14 2.428830e-17) (-1.571072e-14 -5.314463e-10 -1.794022e-14))
3380.790861   	((9.740948e-14 -2.324644e-14 -7.156449e-14) (-5.725720e-13 -8.465887e-14 3.057842e-12)) ((-1.295553e-17 -7.201733e-14 2.179113e-17) (-1.519288e-14 -5.267069e-10 -1.705366e-14))
4056.961033   	((1.824908e-13 -2.432371e-14 -6.147847e-14) (-5.269651e-13 -9.541581e-14 3.050519e-12)) ((-1.177269e-17 -7.128588e-14 1.835080e-17) (-1.465511e-14 -5.226687e-10 -1.605042e-14))
4868.36524    	((2.926291e-13 -4.015405e-14 -9.280214e-14) (-4.944763e-13 -1.051894e-13 3.054932e-12)) ((-1.297535e-17 -7.067380e-14 1.444025e-17) (-1.393502e-14 -5.192510e-10 -1.488057e-14))
5842.050288   	((3.115580e-13 -8.155098e-14 -3.388865e-14) (-4.353006e-13 -1.182845e-13 3.045066e-12)) ((-1.472090e-17 -7.014361e-14 1.661901e-17) (-1.316061e-14 -5.163791e-10 -1.343158e-14))
7010.472346   	((2.927964e-13 -1.006117e-13 -5.234044e-15) (-3.729102e-13 -1.242829e-13 3.032094e-12)) ((-1.512164e-17 -6.969570e-14 1.750867e-17) (-1.271446e-14 -5.139834e-10 -1.240904e-14))
8412.578815   	((2.364986e-13 -1.202372e-13 4.133423e-14) (-3.423508e-13 -1.280659e-13 3.027481e-12)) ((-1.872255e-17 -6.932632e-14 1.968672e-17) (-1.237677e-14 -5.119994e-10 -1.146983e-14))
10095.106578  	((1.811288e-13 -1.300647e-13 9.505852e-14) (-3.224248e-13 -1.317555e-13 3.018906e-12)) ((-2.244586e-17 -6.901871e-14 2.201547e-17) (-1.217561e-14 -5.103668e-10 -1.069963e-14))
12114.139893  	((1.651152e-13 -1.335635e-13 1.491487e-13) (-3.087917e-13 -1.353507e-13 3.007844e-12)) ((-2.568668e-17 -6.876596e-14 2.331285e-17) (-1.205855e-14 -5.090315e-10 -1.001270e-14))
14536.979872  	((1.840102e-13 -1.459965e-13 2.154700e-13) (-3.029125e-13 -1.395214e-13 2.997529e-12)) ((-2.678001e-17 -6.856143e-14 2.541896e-17) (-1.201132e-14 -5.079454e-10 -9.351350e-15))
17444.387847  	((2.076256e-13 -1.918357e-13 3.849977e-13) (-2.987585e-13 -1.486438e-13 2.989614e-12)) ((-2.069115e-17 -6.837147e-14 3.099228e-17) (-1.221806e-14 -5.070663e-10 -8.516776e-15))
20863.516435  	((2.250454e-13 -1.533761e-13 4.498751e-13) (-2.980003e-13 -1.533929e-13 2.976757e-12)) ((-2.600576e-17 -6.825688e-14 2.619302e-17) (-1.243336e-14 -5.063578e-10 -8.115158e-15))
24794.375351  	((2.307421e-13 -1.228011e-13 5.202536e-13) (-2.893413e-13 -1.583678e-13 2.962906e-12)) ((-2.838758e-17 -6.815100e-14 2.410118e-17) (-1.246316e-14 -5.057895e-10 -8.023736e-15))
29236.972302  	((2.433994e-13 -8.545833e-14 4.885520e-13) (-2.903370e-13 -1.602410e-13 2.945949e-12)) ((-2.887841e-17 -6.804163e-14 2.648505e-17) (-1.240691e-14 -5.053359e-10 -7.781722e-15))
34191.313385  	((1.977607e-13 -5.225394e-14 6.655070e-13) (-2.610811e-13 -1.617752e-13 2.939322e-12)) ((-3.007265e-17 -6.795692e-14 2.573044e-17) (-1.227297e-14 -5.049744e-10 -7.490526e-15))
39308.802993  	((1.761142e-13 7.879734e-15 7.519491e-13) (-2.358008e-13 -1.627415e-13 2.928992e-12)) ((-3.538866e-17 -6.789971e-14 2.782884e-17) (-1.207599e-14 -5.046878e-10 -7.292052e-15))
44426.33055   	((1.819621e-13 -4.392860e-15 7.900090e-13) (-2.322088e-13 -1.653000e-13 2.913917e-12)) ((-2.442675e-17 -6.781950e-14 2.181694e-17) (-1.204183e-14 -5.044607e-10 -7.059468e-15))
49543.888048  	((2.482689e-13 1.065638e-14 9.547702e-13) (-2.271059e-13 -1.706009e-13 2.896834e-12)) ((-3.469964e-17 -6.776495e-14 1.840094e-17) (-1.164729e-14 -5.042809e-10 -6.424401e-15))
54661.469096  	((2.195765e-13 1.497092e-13 9.325442e-13) (-2.421449e-13 -1.701538e-13 2.877336e-12)) ((-3.319666e-17 -6.773522e-14 4.191960e-17) (-1.151483e-14 -5.041396e-10 -6.542172e-15))
59779.068762  	((2.471169e-13 8.399794e-14 1.212949e-12) (-2.507725e-13 -1.634183e-13 2.877602e-12)) ((-2.825878e-17 -6.769354e-14 2.721793e-17) (-1.126160e-14 -5.040277e-10 -6.887913e-15))
64896.683161  	((1.419145e-13 1.132616e-13 1.347068e-12) (-2.563223e-13 -1.601023e-13 2.888422e-12)) ((-3.908614e-17 -6.761237e-14 2.776023e-17) (-1.087265e-14 -5.039399e-10 -7.006691e-15))
70014.309183  	((2.891253e-13 1.977129e-13 1.466985e-12) (-2.644772e-13 -1.632356e-13 2.887801e-12)) ((-3.644636e-17 -6.756299e-14 2.303590e-17) (-1.073939e-14 -5.038720e-10 -6.960150e-15))
75131.944333  	((2.996134e-13 2.489446e-13 1.690808e-12) (-2.496677e-13 -1.685340e-13 2.920256e-12)) ((-3.123081e-17 -6.750295e-14 3.040324e-17) (-1.082414e-14 -5.038191e-10 -7.272437e-15))
80249.586623  	((4.608729e-13 3.460827e-13 1.955452e-12) (-2.370310e-13 -1.589549e-13 2.940074e-12)) ((-2.338865e-17 -6.747214e-14 3.104930e-17) (-1.085258e-14 -5.037769e-10 -6.987055e-15))
85367.234574  	((3.249865e-13 3.677112e-13 2.320294e-12) (-2.408701e-13 -1.516604e-13 2.950627e-12)) ((-3.785572e-17 -6.746018e-14 3.471665e-17) (-1.118711e-14 -5.037433e-10 -7.267047e-15))
90484.886993  	((5.174467e-13 4.005454e-13 2.651039e-12) (-2.267548e-13 -1.493002e-13 2.924383e-12)) ((-3.444021e-17 -6.741477e-14 3.378729e-17) (-1.101473e-14 -5.037167e-10 -7.052943e-15))
95602.542993  	((6.593040e-13 2.594728e-13 3.098787e-12) (-2.314867e-13 -1.427230e-13 2.923126e-12)) ((-1.827586e-17 -6.741186e-14 2.937239e-17) (-1.080657e-14 -5.036951e-10 -6.574756e-15))
100720.201838 	((8.896507e-13 3.052555e-13 3.431093e-12) (-2.092174e-13 -1.472762e-13 2.921069e-12)) ((-2.855775e-17 -6.738698e-14 3.321287e-17) (-1.100586e-14 -5.036779e-10 -6.960217e-15))
105837.862981 	((1.308672e-12 2.964225e-13 3.925216e-12) (-2.083928e-13 -1.440441e-13 2.928386e-12)) ((-3.111057e-17 -6.734392e-14 4.048285e-17) (-1.087161e-14 -5.036640e-10 -7.006342e-15))
110955.525972 	((1.503750e-12 2.392459e-13 4.427618e-12) (-2.009028e-13 -1.423555e-13 2.947782e-12)) ((-2.684844e-17 -6.733250e-14 3.004530e-17) (-1.073921e-14 -5.036530e-10 -6.850502e-15))
116073.190452 	((1.837591e-12 2.239161e-13 4.972571e-12) (-1.883127e-13 -1.429614e-13 2.956536e-12)) ((-2.892462e-17 -6.731391e-14 3.561569e-17) (-1.066218e-14 -5.036435e-10 -6.938486e-15))
121190.856113 	((2.280535e-12 1.318505e-13 5.571757e-12) (-1.706043e-13 -1.376996e-13 2.968804e-12)) ((-2.536490e-17 -6.728242e-14 3.439618e-17) (-1.043560e-14 -5.036353e-10 -6.649896e-15))
