# Forces      
# CofR        : (0.000000e+00 0.000000e+00 0.000000e+00)
# Time        forces(pressure viscous)	moments(pressure viscous)
0             	((0.000000e+00 0.000000e+00 0.000000e+00) (5.036577e-03 -7.081509e-13 3.597430e-13)) ((0.000000e+00 0.000000e+00 0.000000e+00) (-9.960473e-15 -6.122978e-14 1.066514e-13))
0.012         	((1.475643e+00 3.246272e-06 3.910109e-06) (5.948280e-03 -8.718841e-09 -7.821640e-09)) ((-3.217129e-12 -1.653729e-11 -1.339847e-10) (8.956662e-14 -6.129326e-12 -2.625226e-11))
0.0264        	((-2.459832e-01 -3.931952e-05 -5.966225e-05) (5.949334e-03 -4.109078e-08 -5.931616e-08)) ((-2.367637e-10 -3.807653e-09 -8.889834e-10) (-1.138868e-11 -9.263714e-10 8.311585e-10))
0.04368       	((-2.257772e-01 3.077679e-05 5.272605e-05) (5.140493e-03 -3.469807e-08 -5.042039e-08)) ((3.251255e-10 2.528384e-09 1.280635e-09) (-1.931295e-11 -6.339651e-10 5.573125e-10))
0.064416      	((-8.442136e-05 -2.439308e-06 -5.233487e-06) (4.529344e-03 -3.704271e-08 -3.303964e-08)) ((-9.662870e-11 3.304696e-10 -3.754515e-10) (3.200358e-11 3.573235e-11 -1.915952e-11))
0.0892992     	((-1.822884e-03 -3.990873e-06 -6.277040e-06) (4.167127e-03 -5.334248e-08 -5.553937e-08)) ((2.022996e-10 -1.191154e-10 -1.876091e-10) (9.088716e-11 2.834010e-10 -2.280284e-10))
0.119159      	((-1.768842e-03 -2.874805e-06 -3.123125e-06) (3.862714e-03 -3.243640e-08 -7.292493e-08)) ((3.214586e-11 3.308408e-11 -1.257364e-10) (7.106543e-11 5.673958e-10 -2.398507e-10))
0.154991      	((3.541394e-04 -3.745003e-06 -4.912042e-06) (3.584953e-03 -4.282108e-08 -6.093169e-08)) ((6.285343e-11 -7.598117e-11 -8.072833e-11) (1.870650e-11 4.029565e-10 5.248346e-10))
0.197989      	((1.035424e-03 -3.013477e-06 -1.797816e-06) (3.342401e-03 -7.677085e-08 -3.724404e-08)) ((2.678703e-12 -3.581676e-11 -4.924656e-11) (2.149201e-11 -1.652051e-11 1.210116e-09))
0.249587      	((1.398470e-03 -1.191435e-06 -1.725068e-06) (3.136240e-03 -4.816615e-08 -3.109190e-08)) ((7.595659e-11 -6.922985e-12 -2.922713e-11) (-3.829365e-12 -2.898644e-10 1.217509e-09))
0.311504      	((1.629097e-03 -6.877177e-07 -1.207349e-06) (2.956739e-03 -2.419478e-08 -4.729763e-08)) ((4.535887e-11 -1.899918e-12 -1.801491e-11) (-3.226176e-11 -5.082563e-10 1.043450e-09))
0.385805      	((1.765007e-03 -3.577632e-07 -6.897578e-07) (2.790774e-03 -3.662786e-08 -5.158140e-08)) ((4.121246e-11 -1.121958e-12 -1.834114e-11) (-6.228457e-11 -4.405579e-10 9.603079e-10))
0.474966      	((1.876290e-03 5.337684e-09 1.244714e-08) (2.630165e-03 -3.864001e-08 -4.257498e-08)) ((2.310922e-11 3.777081e-12 -1.462551e-11) (-8.114902e-11 -1.894631e-10 5.252129e-10))
0.581959      	((2.005382e-03 7.531762e-08 -2.068490e-08) (2.474689e-03 -3.445665e-08 -3.998888e-08)) ((2.023415e-11 1.476915e-11 -1.441450e-11) (-8.939797e-11 3.525162e-10 -3.124329e-10))
0.710351      	((2.177979e-03 -4.053062e-07 -3.250934e-07) (2.327651e-03 -2.515372e-08 -2.747788e-08)) ((2.743116e-11 2.292647e-11 -1.770579e-11) (-8.502130e-11 1.251223e-09 -1.390604e-09))
0.864421      	((2.416039e-03 -4.468722e-07 -6.012810e-07) (2.191775e-03 -1.538516e-08 -1.445073e-08)) ((2.705360e-11 9.180165e-12 -1.708831e-11) (-6.081956e-11 2.340710e-09 -2.442010e-09))
1.049306      	((2.737262e-03 -1.021977e-06 -1.055915e-06) (2.068807e-03 -2.392821e-08 -2.180266e-08)) ((8.864304e-12 -2.568685e-11 -2.063427e-11) (-4.996433e-11 3.145384e-09 -3.197613e-09))
1.266241      	((3.152828e-03 -1.150759e-06 -1.213106e-06) (1.961470e-03 -4.215597e-08 -4.068024e-08)) ((5.567604e-12 -4.085074e-11 -2.155646e-11) (-2.807835e-11 3.354286e-09 -3.362964e-09))
1.514958      	((3.662126e-03 -1.303212e-06 -1.449609e-06) (1.870350e-03 -5.360830e-08 -6.094502e-08)) ((-2.213579e-12 -4.379967e-11 -3.009534e-11) (8.533666e-12 3.058991e-09 -3.028709e-09))
1.795196      	((4.264326e-03 -1.214219e-06 -1.361881e-06) (1.794596e-03 -5.651352e-08 -6.527076e-08)) ((-1.875786e-13 -4.331623e-11 -3.490432e-11) (5.573063e-11 2.520388e-09 -2.531292e-09))
2.106625      	((4.941784e-03 -1.338006e-06 -1.361288e-06) (1.733294e-03 -5.690001e-08 -6.100370e-08)) ((-7.043713e-12 -4.535060e-11 -2.198599e-11) (8.677672e-11 2.093865e-09 -1.985101e-09))
2.414418      	((5.622786e-03 -1.128237e-06 -1.340208e-06) (1.685879e-03 -4.885469e-08 -4.473189e-08)) ((2.024686e-12 -3.596586e-11 -1.375090e-11) (9.285567e-11 1.186788e-09 -1.235461e-09))
2.71799       	((6.270384e-03 -7.153820e-07 -7.982895e-07) (1.647399e-03 -3.560963e-08 -2.704302e-08)) ((7.133793e-12 -1.289618e-11 -2.012494e-11) (8.708481e-11 2.877924e-10 -6.019492e-10))
3.017985      	((6.845189e-03 -3.352250e-07 -5.591540e-07) (1.616325e-03 -3.746057e-08 -2.700082e-08)) ((1.486304e-11 -1.164901e-11 -4.142679e-11) (9.869687e-11 3.784763e-10 -8.075556e-10))
3.315744      	((7.278787e-03 -4.108179e-07 -7.234567e-07) (1.590680e-03 -7.709963e-08 -7.022478e-08)) ((2.281733e-11 -2.260289e-11 -3.988519e-11) (1.119572e-10 2.912361e-09 -3.321279e-09))
3.612807      	((7.567504e-03 1.069800e-08 -3.498495e-07) (1.569166e-03 -1.425465e-07 -1.331715e-07)) ((3.716557e-11 -3.495605e-11 -4.821569e-11) (7.923412e-11 6.778973e-09 -7.295427e-09))
3.909921      	((7.712655e-03 6.477242e-07 1.363714e-07) (1.549520e-03 -1.820727e-07 -1.734812e-07)) ((2.378963e-11 -6.185078e-11 -1.886469e-11) (5.132102e-11 1.042173e-08 -1.103927e-08))
4.206843      	((7.710138e-03 1.222697e-06 6.556014e-07) (1.530955e-03 -1.780547e-07 -1.796592e-07)) ((1.050789e-11 -1.025604e-10 3.376831e-11) (7.250788e-11 1.297811e-08 -1.318968e-08))
4.50291       	((7.576354e-03 6.155296e-07 7.652800e-09) (1.513424e-03 -1.659387e-07 -1.658677e-07)) ((1.832224e-11 -1.586579e-10 7.338153e-11) (3.445454e-11 1.391518e-08 -1.416314e-08))
4.797614      	((7.425397e-03 4.431684e-07 -1.727901e-07) (1.496853e-03 -1.848124e-07 -1.874692e-07)) ((5.043462e-11 -1.836479e-10 6.265701e-11) (8.629962e-11 1.570520e-08 -1.586637e-08))
5.091071      	((7.288014e-03 -4.421910e-07 -1.720944e-06) (1.481909e-03 -2.325040e-07 -2.380443e-07)) ((4.345364e-11 -1.414433e-10 7.532376e-12) (1.787413e-10 1.903425e-08 -1.984347e-08))
5.383588      	((7.209643e-03 -1.876344e-07 -8.309989e-07) (1.470135e-03 -2.961717e-07 -2.886208e-07)) ((5.110608e-11 -6.475188e-11 -5.869269e-11) (1.383441e-10 2.260706e-08 -2.392659e-08))
5.675306      	((7.173290e-03 -4.445018e-07 -6.667436e-07) (1.460599e-03 -3.170772e-07 -3.180757e-07)) ((3.475286e-11 -7.566904e-11 -1.086226e-10) (-3.503446e-11 2.380108e-08 -2.422250e-08))
5.966231      	((7.144505e-03 4.091612e-08 -4.619086e-07) (1.451963e-03 -3.118397e-07 -3.222869e-07)) ((4.443369e-11 -6.361840e-11 -1.061834e-10) (-2.773577e-10 2.407987e-08 -2.378737e-08))
6.256325      	((7.107668e-03 2.573908e-08 -2.696451e-07) (1.443640e-03 -2.912309e-07 -3.041829e-07)) ((4.880732e-11 -5.361772e-11 -6.705170e-11) (-2.425328e-10 2.280980e-08 -2.203583e-08))
6.545569      	((7.039604e-03 4.675772e-07 5.033762e-07) (1.435015e-03 -2.495987e-07 -2.684544e-07)) ((6.352915e-11 -4.393941e-11 -4.015420e-11) (-8.980335e-11 2.023955e-08 -1.844452e-08))
6.834006      	((6.945055e-03 1.629152e-07 1.711101e-07) (1.426095e-03 -2.215971e-07 -2.279379e-07)) ((6.610574e-11 -6.585452e-11 -1.701873e-11) (-4.537914e-12 1.874372e-08 -1.761407e-08))
7.121732      	((6.857250e-03 -6.369585e-08 -4.603534e-07) (1.417495e-03 -2.063646e-07 -1.987758e-07)) ((5.968972e-11 -1.185323e-10 2.361190e-12) (5.918480e-12 1.791434e-08 -1.819264e-08))
7.408885      	((6.779687e-03 8.750546e-07 6.872192e-08) (1.409547e-03 -1.932831e-07 -1.836234e-07)) ((5.448517e-11 -1.139009e-10 1.560305e-11) (-8.345064e-12 1.676687e-08 -1.777599e-08))
7.695582      	((6.722522e-03 2.346918e-06 9.830881e-07) (1.402252e-03 -1.753959e-07 -1.717209e-07)) ((5.599463e-11 -7.679994e-11 5.671541e-12) (-1.885213e-11 1.569997e-08 -1.705405e-08))
7.981868      	((6.682214e-03 1.669395e-06 8.113882e-07) (1.395616e-03 -1.577635e-07 -1.520067e-07)) ((3.235437e-11 -5.872838e-11 -1.884956e-11) (-4.825137e-11 1.474180e-08 -1.677169e-08))
8.267757      	((6.653244e-03 5.908349e-07 -3.085465e-07) (1.389648e-03 -1.627334e-07 -1.511943e-07)) ((4.069514e-12 -4.462650e-11 -4.062970e-11) (-1.012406e-10 1.413731e-08 -1.673442e-08))
8.553271      	((6.632675e-03 -4.464501e-07 -1.075152e-06) (1.384448e-03 -1.651052e-07 -1.647040e-07)) ((-3.745449e-11 -2.937182e-11 -4.959443e-11) (-1.596492e-10 1.458552e-08 -1.665572e-08))
8.838425      	((6.614133e-03 -5.829533e-07 -1.301588e-06) (1.379907e-03 -1.705935e-07 -1.740998e-07)) ((-5.495107e-11 -1.348424e-11 -7.132489e-11) (-1.804313e-10 1.578223e-08 -1.781431e-08))
9.12323       	((6.590710e-03 -1.052044e-06 -1.290088e-06) (1.375598e-03 -1.932844e-07 -1.938592e-07)) ((-8.462547e-11 1.900928e-12 -8.948565e-11) (-1.320262e-10 1.711940e-08 -1.877016e-08))
9.407697      	((6.558004e-03 -1.825478e-06 -1.927220e-06) (1.371158e-03 -2.052644e-07 -2.092265e-07)) ((-1.092639e-10 -5.888744e-12 -9.663806e-11) (-4.599419e-12 1.647477e-08 -1.723714e-08))
9.691837      	((6.520423e-03 -2.709374e-06 -2.556272e-06) (1.366573e-03 -2.011807e-07 -2.064088e-07)) ((-1.333750e-10 1.197801e-11 -1.062077e-10) (8.504846e-11 1.407300e-08 -1.438363e-08))
9.975665      	((6.482056e-03 -2.964094e-06 -2.568404e-06) (1.361995e-03 -1.933176e-07 -1.933464e-07)) ((-1.585148e-10 3.962163e-11 -1.177364e-10) (1.073664e-10 1.167169e-08 -1.206492e-08))
10.25919      	((6.451345e-03 -2.747223e-06 -2.306147e-06) (1.357601e-03 -1.771686e-07 -1.759999e-07)) ((-1.743369e-10 6.684665e-11 -1.319681e-10) (8.928369e-11 9.923983e-09 -1.024555e-08))
10.542424     	((6.423469e-03 -3.301461e-06 -2.773191e-06) (1.353434e-03 -1.637650e-07 -1.566250e-07)) ((-1.951240e-10 8.297078e-11 -1.418551e-10) (6.352451e-11 8.385785e-09 -8.730047e-09))
10.825373     	((6.402481e-03 -4.492936e-06 -4.166916e-06) (1.349479e-03 -1.673296e-07 -1.503310e-07)) ((-2.135309e-10 7.847050e-11 -1.384563e-10) (2.607283e-12 6.934234e-09 -7.420261e-09))
11.108044     	((6.386390e-03 -6.647952e-06 -6.376220e-06) (1.345721e-03 -1.931278e-07 -1.733074e-07)) ((-2.308076e-10 4.837370e-11 -1.364682e-10) (-4.077306e-11 5.547687e-09 -5.977641e-09))
11.390442     	((6.368773e-03 -8.464746e-06 -7.982354e-06) (1.342115e-03 -2.381507e-07 -2.187489e-07)) ((-2.491137e-10 2.309465e-11 -1.334085e-10) (-2.256123e-11 4.098639e-09 -4.591208e-09))
11.672568     	((6.353821e-03 -1.004042e-05 -9.791713e-06) (1.338686e-03 -2.954133e-07 -2.751432e-07)) ((-2.632952e-10 -8.967896e-12 -1.207539e-10) (2.720652e-11 2.892422e-09 -3.783828e-09))
11.954427     	((6.333079e-03 -1.160351e-05 -1.117543e-05) (1.335388e-03 -3.591695e-07 -3.406614e-07)) ((-2.655577e-10 -2.857700e-11 -1.038624e-10) (4.405094e-11 2.576234e-09 -3.462545e-09))
12.236029     	((6.311448e-03 -1.354594e-05 -1.304947e-05) (1.332192e-03 -4.366462e-07 -4.168959e-07)) ((-2.657645e-10 -3.937160e-11 -8.846578e-11) (4.477537e-11 2.955429e-09 -3.600218e-09))
12.517382     	((6.287297e-03 -1.544061e-05 -1.544011e-05) (1.329101e-03 -5.291781e-07 -5.068797e-07)) ((-2.622835e-10 -4.396812e-11 -8.146711e-11) (3.573465e-11 3.841071e-09 -4.229912e-09))
12.798498     	((6.263358e-03 -1.784173e-05 -1.789496e-05) (1.326115e-03 -6.372753e-07 -6.144015e-07)) ((-2.657967e-10 -4.930867e-11 -8.197764e-11) (-2.447810e-11 5.166480e-09 -5.421567e-09))
13.079383     	((6.240421e-03 -2.072413e-05 -2.070750e-05) (1.323217e-03 -7.572773e-07 -7.294810e-07)) ((-2.721621e-10 -5.657266e-11 -8.551564e-11) (-1.438679e-10 6.378602e-09 -6.479550e-09))
13.360044     	((6.223208e-03 -2.329808e-05 -2.369309e-05) (1.320451e-03 -8.754505e-07 -8.503617e-07)) ((-2.715670e-10 -7.639813e-11 -8.702615e-11) (-3.142203e-10 7.538475e-09 -7.158542e-09))
13.640484     	((6.205904e-03 -2.664115e-05 -2.671111e-05) (1.317803e-03 -9.983883e-07 -9.816636e-07)) ((-2.738238e-10 -1.037330e-10 -9.046362e-11) (-4.774984e-10 9.013444e-09 -7.797918e-09))
13.920709     	((6.185708e-03 -3.044850e-05 -3.002224e-05) (1.315213e-03 -1.140414e-06 -1.124313e-06)) ((-2.736278e-10 -1.271512e-10 -9.434847e-11) (-4.768442e-10 1.030174e-08 -8.632804e-09))
14.200725     	((6.164764e-03 -3.472947e-05 -3.415557e-05) (1.312651e-03 -1.298476e-06 -1.282382e-06)) ((-2.779299e-10 -1.602700e-10 -1.001786e-10) (-2.872091e-10 1.106939e-08 -9.129212e-09))
14.480538     	((6.145599e-03 -3.923328e-05 -3.852934e-05) (1.310138e-03 -1.467328e-06 -1.462388e-06)) ((-2.830186e-10 -1.981671e-10 -1.072621e-10) (-1.290825e-10 1.143168e-08 -8.884394e-09))
14.760153     	((6.131225e-03 -4.407251e-05 -4.346419e-05) (1.307713e-03 -1.648430e-06 -1.655926e-06)) ((-2.884669e-10 -2.430060e-10 -1.219858e-10) (-1.856193e-11 1.063293e-08 -8.280945e-09))
15.039572     	((6.118982e-03 -4.929661e-05 -4.873692e-05) (1.305410e-03 -1.848207e-06 -1.856065e-06)) ((-2.924772e-10 -2.911625e-10 -1.425906e-10) (9.596876e-11 8.274847e-09 -7.709623e-09))
15.318799     	((6.107352e-03 -5.536835e-05 -5.434449e-05) (1.303240e-03 -2.068961e-06 -2.064126e-06)) ((-2.960546e-10 -3.364056e-10 -1.599897e-10) (2.322240e-10 5.003809e-09 -6.902610e-09))
15.59784      	((6.094238e-03 -6.176842e-05 -6.093356e-05) (1.301163e-03 -2.311139e-06 -2.284315e-06)) ((-2.945429e-10 -3.822368e-10 -1.711162e-10) (3.865874e-10 1.568304e-09 -5.356748e-09))
15.876702     	((6.079796e-03 -6.865738e-05 -6.792864e-05) (1.299142e-03 -2.562515e-06 -2.526804e-06)) ((-2.946635e-10 -4.127814e-10 -1.716625e-10) (4.765381e-10 -1.572310e-09 -2.745803e-09))
16.155397     	((6.062513e-03 -7.678527e-05 -7.558469e-05) (1.297136e-03 -2.827145e-06 -2.793884e-06)) ((-2.914290e-10 -4.413970e-10 -1.685773e-10) (5.741125e-10 -4.969943e-09 1.027872e-09))
16.433929     	((6.047785e-03 -8.557183e-05 -8.381858e-05) (1.295138e-03 -3.117143e-06 -3.081146e-06)) ((-2.878329e-10 -4.689752e-10 -1.703216e-10) (6.923259e-10 -8.830454e-09 5.491014e-09))
16.712303     	((6.032949e-03 -9.500745e-05 -9.306643e-05) (1.293122e-03 -3.440908e-06 -3.394825e-06)) ((-2.807901e-10 -5.138975e-10 -1.866581e-10) (7.832982e-10 -1.286871e-08 1.009469e-08))
16.990518     	((6.018996e-03 -1.050503e-04 -1.035176e-04) (1.291057e-03 -3.800014e-06 -3.742588e-06)) ((-2.715243e-10 -5.780990e-10 -2.019753e-10) (8.528622e-10 -1.748174e-08 1.479096e-08))
17.268578     	((6.005631e-03 -1.163790e-04 -1.147042e-04) (1.288966e-03 -4.190108e-06 -4.120769e-06)) ((-2.542122e-10 -6.581871e-10 -2.131855e-10) (8.512487e-10 -2.306225e-08 2.008486e-08))
17.546489     	((5.992359e-03 -1.287549e-04 -1.268501e-04) (1.286897e-03 -4.607604e-06 -4.524842e-06)) ((-2.371779e-10 -7.477724e-10 -2.202473e-10) (7.975232e-10 -2.965728e-08 2.629934e-08))
17.824258     	((5.978579e-03 -1.420182e-04 -1.399706e-04) (1.284873e-03 -5.051958e-06 -4.954569e-06)) ((-2.247890e-10 -8.409188e-10 -2.160931e-10) (7.733433e-10 -3.737471e-08 3.352921e-08))
18.101891     	((5.965041e-03 -1.564529e-04 -1.542446e-04) (1.282895e-03 -5.523171e-06 -5.417634e-06)) ((-2.171142e-10 -9.343667e-10 -2.068799e-10) (6.858090e-10 -4.594398e-08 4.194614e-08))
18.37939      	((5.952107e-03 -1.723451e-04 -1.698176e-04) (1.280968e-03 -6.028341e-06 -5.923978e-06)) ((-2.124174e-10 -1.032241e-09 -1.935774e-10) (4.802177e-10 -5.507004e-08 5.154638e-08))
18.656757     	((5.940860e-03 -1.898915e-04 -1.867625e-04) (1.279106e-03 -6.587613e-06 -6.482071e-06)) ((-2.033813e-10 -1.130515e-09 -1.791233e-10) (2.923826e-10 -6.466021e-08 6.173924e-08))
18.933995     	((5.931344e-03 -2.093513e-04 -2.057193e-04) (1.277321e-03 -7.215081e-06 -7.105226e-06)) ((-1.810390e-10 -1.228907e-09 -1.750657e-10) (1.278450e-10 -7.470337e-08 7.213086e-08))
19.211107     	((5.924657e-03 -2.308472e-04 -2.265418e-04) (1.275630e-03 -7.921890e-06 -7.804997e-06)) ((-1.455519e-10 -1.328457e-09 -1.741242e-10) (1.434229e-11 -8.508589e-08 8.270942e-08))
19.488093     	((5.917870e-03 -2.548208e-04 -2.495990e-04) (1.274019e-03 -8.720556e-06 -8.588187e-06)) ((-9.774138e-11 -1.445514e-09 -1.771409e-10) (9.568749e-12 -9.582276e-08 9.366761e-08))
19.764956     	((5.910557e-03 -2.812556e-04 -2.756606e-04) (1.272457e-03 -9.620910e-06 -9.470913e-06)) ((-4.390600e-11 -1.596162e-09 -1.807382e-10) (7.020180e-11 -1.070075e-07 1.052214e-07))
20.041699     	((5.902601e-03 -3.107232e-04 -3.042677e-04) (1.270928e-03 -1.063487e-05 -1.046654e-05)) ((1.272825e-11 -1.771212e-09 -1.812377e-10) (1.479378e-10 -1.186816e-07 1.175960e-07))
20.318323     	((5.892850e-03 -3.422301e-04 -3.353598e-04) (1.269408e-03 -1.176505e-05 -1.158048e-05)) ((7.370387e-11 -1.966050e-09 -1.824300e-10) (2.484419e-10 -1.310311e-07 1.308919e-07))
20.594833     	((5.882386e-03 -3.762460e-04 -3.688837e-04) (1.267891e-03 -1.300663e-05 -1.281595e-05)) ((1.344081e-10 -2.173024e-09 -1.825760e-10) (3.533924e-10 -1.440148e-07 1.450715e-07))
20.871234     	((5.871614e-03 -4.127512e-04 -4.053697e-04) (1.266389e-03 -1.436210e-05 -1.417602e-05)) ((1.927390e-10 -2.389585e-09 -1.815700e-10) (4.388677e-10 -1.575866e-07 1.600827e-07))
21.147536     	((5.862079e-03 -4.525375e-04 -4.444068e-04) (1.264920e-03 -1.583904e-05 -1.565874e-05)) ((2.480249e-10 -2.608528e-09 -1.849033e-10) (5.023196e-10 -1.717831e-07 1.758603e-07))
21.42374      	((5.854255e-03 -4.949989e-04 -4.866971e-04) (1.263513e-03 -1.744825e-05 -1.727335e-05)) ((2.959439e-10 -2.840638e-09 -1.909973e-10) (4.970244e-10 -1.866761e-07 1.922047e-07))
21.699844     	((5.848365e-03 -5.414863e-04 -5.326465e-04) (1.262178e-03 -1.920840e-05 -1.903673e-05)) ((3.444995e-10 -3.087122e-09 -2.035872e-10) (4.172612e-10 -2.025196e-07 2.091593e-07))
21.975846     	((5.844620e-03 -5.917911e-04 -5.825833e-04) (1.260908e-03 -2.113082e-05 -2.095368e-05)) ((4.020057e-10 -3.354828e-09 -2.150714e-10) (3.019382e-10 -2.200901e-07 2.276629e-07))
22.251753     	((5.841985e-03 -6.471376e-04 -6.374776e-04) (1.259696e-03 -2.322455e-05 -2.303207e-05)) ((4.730359e-10 -3.650499e-09 -2.285858e-10) (1.428487e-10 -2.400405e-07 2.485068e-07))
22.527563     	((5.840473e-03 -7.080824e-04 -6.980860e-04) (1.258538e-03 -2.551436e-05 -2.530212e-05)) ((5.723294e-10 -3.988860e-09 -2.408462e-10) (-1.617941e-11 -2.623277e-07 2.716719e-07))
22.803281     	((5.840505e-03 -7.744077e-04 -7.639696e-04) (1.257440e-03 -2.802130e-05 -2.778549e-05)) ((6.979373e-10 -4.359623e-09 -2.491501e-10) (-1.804612e-10 -2.865312e-07 2.968883e-07))
23.078906     	((5.842835e-03 -8.469819e-04 -8.359466e-04) (1.256417e-03 -3.076499e-05 -3.049607e-05)) ((8.610663e-10 -4.777781e-09 -2.685136e-10) (-4.033108e-10 -3.128657e-07 3.240777e-07))
23.354354     	((5.847297e-03 -9.263734e-04 -9.150491e-04) (1.255484e-03 -3.377156e-05 -3.346327e-05)) ((1.059668e-09 -5.249696e-09 -2.967056e-10) (-6.662305e-10 -3.414797e-07 3.531946e-07))
23.629571     	((5.854189e-03 -1.013121e-03 -1.001384e-03) (1.254658e-03 -3.706213e-05 -3.671117e-05)) ((1.278343e-09 -5.755989e-09 -3.300772e-10) (-8.454263e-10 -3.722214e-07 3.844399e-07))
23.904587     	((5.864834e-03 -1.107298e-03 -1.095396e-03) (1.253936e-03 -4.063038e-05 -4.024274e-05)) ((1.530610e-09 -6.316926e-09 -3.664979e-10) (-8.431649e-10 -4.059201e-07 4.193204e-07))
24.179431     	((5.878759e-03 -1.209480e-03 -1.197080e-03) (1.253387e-03 -4.450335e-05 -4.410652e-05)) ((1.824814e-09 -6.933052e-09 -3.980858e-10) (-7.484248e-10 -4.407255e-07 4.562727e-07))
24.454103     	((5.897242e-03 -1.319890e-03 -1.306866e-03) (1.253101e-03 -4.875399e-05 -4.836877e-05)) ((2.140461e-09 -7.582126e-09 -4.173204e-10) (-6.269843e-10 -4.740059e-07 4.917327e-07))
24.728615     	((5.921095e-03 -1.440113e-03 -1.425621e-03) (1.253133e-03 -5.343972e-05 -5.306038e-05)) ((2.459854e-09 -8.258171e-09 -4.234604e-10) (-4.985678e-10 -5.055730e-07 5.252959e-07))
25.003036     	((5.951197e-03 -1.570039e-03 -1.555479e-03) (1.253439e-03 -5.857031e-05 -5.819137e-05)) ((2.821561e-09 -8.996177e-09 -4.054509e-10) (-4.558140e-10 -5.388666e-07 5.606301e-07))
25.277426     	((5.986731e-03 -1.714169e-03 -1.696780e-03) (1.253930e-03 -6.417821e-05 -6.376304e-05)) ((3.256807e-09 -9.797414e-09 -3.525873e-10) (-3.626954e-10 -5.783996e-07 6.022607e-07))
25.551786     	((6.027714e-03 -1.872520e-03 -1.851751e-03) (1.254599e-03 -7.030399e-05 -6.980111e-05)) ((3.783163e-09 -1.067349e-08 -2.744551e-10) (-3.905728e-10 -6.263409e-07 6.519425e-07))
25.826116     	((6.076319e-03 -2.043096e-03 -2.020878e-03) (1.255546e-03 -7.699015e-05 -7.637318e-05)) ((4.400752e-09 -1.164764e-08 -1.690460e-10) (-5.474357e-10 -6.814896e-07 7.088390e-07))
26.100408     	((6.136638e-03 -2.227807e-03 -2.202554e-03) (1.256885e-03 -8.425629e-05 -8.352568e-05)) ((5.102399e-09 -1.265896e-08 -6.278098e-11) (-7.512334e-10 -7.432709e-07 7.721610e-07))
26.374658     	((6.208638e-03 -2.426941e-03 -2.398757e-03) (1.258735e-03 -9.213066e-05 -9.126060e-05)) ((5.907353e-09 -1.372222e-08 6.619086e-11) (-8.310934e-10 -8.124719e-07 8.418972e-07))
26.648869     	((6.296344e-03 -2.638021e-03 -2.606283e-03) (1.261361e-03 -1.006701e-04 -9.962501e-05)) ((6.819473e-09 -1.474037e-08 1.886658e-10) (-1.126379e-09 -8.839631e-07 9.138694e-07))
26.923058     	((6.396791e-03 -2.862699e-03 -2.826982e-03) (1.264830e-03 -1.098907e-04 -1.086775e-04)) ((7.874011e-09 -1.576016e-08 3.296386e-10) (-1.316082e-09 -9.546287e-07 9.865099e-07))
27.19723      	((6.513362e-03 -3.103414e-03 -3.063499e-03) (1.268973e-03 -1.197619e-04 -1.184094e-04)) ((9.087908e-09 -1.682076e-08 5.367802e-10) (-1.106048e-09 -1.032124e-06 1.067744e-06))
27.471238     	((6.648874e-03 -3.353383e-03 -3.311544e-03) (1.273859e-03 -1.302773e-04 -1.288319e-04)) ((1.043772e-08 -1.786759e-08 8.459941e-10) (-7.430536e-10 -1.116771e-06 1.159641e-06))
27.74509      	((6.803283e-03 -3.616772e-03 -3.569004e-03) (1.279539e-03 -1.415065e-04 -1.399217e-04)) ((1.188012e-08 -1.893823e-08 1.254020e-09) (-1.559846e-09 -1.205957e-06 1.257612e-06))
28.01883      	((6.980553e-03 -3.891371e-03 -3.838743e-03) (1.286176e-03 -1.534130e-04 -1.516314e-04)) ((1.342349e-08 -1.996490e-08 1.689657e-09) (-3.805641e-09 -1.300987e-06 1.360526e-06))
28.292503     	((7.178709e-03 -4.173973e-03 -4.117963e-03) (1.293885e-03 -1.660177e-04 -1.640755e-04)) ((1.514300e-08 -2.087997e-08 2.138742e-09) (-6.662416e-09 -1.395751e-06 1.462812e-06))
28.566097     	((7.401755e-03 -4.463845e-03 -4.402600e-03) (1.302765e-03 -1.794571e-04 -1.773865e-04)) ((1.700259e-08 -2.168796e-08 2.620242e-09) (-9.439399e-09 -1.478956e-06 1.554059e-06))
