# Forces      
# CofR        : (0.000000e+00 0.000000e+00 0.000000e+00)
# Time        forces(pressure viscous)	moments(pressure viscous)
0             	((0.000000e+00 0.000000e+00 0.000000e+00) (0.000000e+00 0.000000e+00 0.000000e+00)) ((0.000000e+00 0.000000e+00 0.000000e+00) (0.000000e+00 0.000000e+00 0.000000e+00))
0.012         	((-4.331112e-11 1.133264e-08 2.337452e-11) (1.722343e-14 2.877952e-10 -9.507483e-13)) ((-2.996673e-15 2.122881e-15 -2.577775e-10) (1.228758e-15 -2.339143e-14 -3.509039e-07))
0.0264        	((-1.410884e-10 1.661251e-09 1.812078e-13) (-2.159896e-13 4.250527e-10 -1.720606e-12)) ((2.215423e-15 -2.258282e-14 -1.182393e-10) (1.534989e-16 -6.485253e-14 -3.214341e-07))
0.04368       	((-9.296435e-11 5.283003e-09 8.399791e-11) (-4.780535e-13 4.480416e-10 -2.464162e-12)) ((-4.412335e-15 -2.739704e-14 -6.447557e-11) (-7.068215e-16 -1.165679e-13 -2.911321e-07))
0.064416      	((-1.633233e-10 -7.400604e-10 -7.395783e-11) (-1.217736e-12 3.870510e-10 -4.048369e-12)) ((1.530190e-15 -1.460861e-14 -3.472287e-11) (-7.355656e-15 -1.824151e-13 -2.606717e-07))
0.0892992     	((1.118629e-10 2.338864e-09 6.471964e-11) (-1.593631e-12 3.219873e-10 -6.180784e-12)) ((-6.600967e-15 -3.772157e-14 -2.606119e-11) (-2.075284e-14 -2.650076e-13 -2.309484e-07))
0.119159      	((-5.966762e-11 -4.205661e-10 1.292233e-11) (-1.726699e-12 2.622294e-10 -7.326989e-12)) ((6.638399e-16 -2.748513e-14 -1.950024e-11) (-2.536820e-14 -3.091660e-13 -2.028860e-07))
0.154991      	((3.088889e-11 1.161461e-09 -2.042216e-11) (-2.300749e-12 2.375220e-10 -7.578991e-12)) ((-3.216684e-15 -2.103291e-14 -1.594786e-11) (-3.072028e-14 -3.239366e-13 -1.771339e-07))
0.197989      	((-2.513237e-11 3.725034e-10 -1.460145e-12) (-2.051158e-12 2.071989e-10 -7.493029e-12)) ((-6.332091e-15 -1.787115e-14 -1.307540e-11) (-3.874265e-14 -3.268396e-13 -1.543052e-07))
0.249587      	((4.240385e-11 9.185169e-10 2.637557e-11) (-1.706598e-12 1.845965e-10 -7.673631e-12)) ((-4.739928e-15 -1.944529e-14 -1.077403e-11) (-4.549025e-14 -3.167622e-13 -1.347297e-07))
0.311504      	((-3.569049e-11 5.362829e-10 1.348837e-11) (-8.606937e-13 1.699956e-10 -8.490040e-12)) ((-2.841130e-15 -1.273068e-14 -8.770816e-12) (-4.418007e-14 -3.072970e-13 -1.183574e-07))
0.385805      	((-3.457907e-11 4.393550e-10 -4.207845e-12) (-4.366927e-13 1.617520e-10 -9.164535e-12)) ((-9.506580e-16 -4.958868e-15 -7.228429e-12) (-1.955759e-14 -3.011156e-13 -1.048353e-07))
0.474966      	((-1.185951e-10 4.269122e-10 1.049426e-11) (-1.404545e-12 1.588143e-10 -9.344356e-12)) ((2.253426e-17 -2.731648e-15 -6.183814e-12) (-2.228694e-15 -2.866673e-13 -9.363307e-08))
0.581959      	((-1.043215e-10 3.090926e-10 1.465444e-11) (-1.223138e-12 1.452694e-10 -7.510845e-12)) ((9.701728e-16 3.634112e-15 -5.246361e-12) (-1.120406e-14 -1.979585e-13 -8.420491e-08))
0.710351      	((-1.588978e-10 2.387940e-10 -9.507362e-12) (-1.466119e-12 1.223841e-10 -4.254640e-12)) ((3.292475e-15 7.717285e-15 -4.342513e-12) (-1.328661e-14 -4.644907e-14 -7.610100e-08))
0.864421      	((-1.417343e-10 4.531142e-10 -2.120062e-11) (-5.083992e-12 1.191168e-10 -1.540210e-12)) ((7.056235e-15 1.573377e-14 -3.718826e-12) (2.583494e-14 1.193236e-13 -6.900272e-08))
1.049306      	((-1.117598e-10 6.813544e-10 -1.971808e-11) (-3.169067e-12 1.118913e-10 -8.366964e-14)) ((5.387573e-15 1.960696e-14 -3.344573e-12) (-4.787976e-16 1.799528e-13 -6.269686e-08))
1.271167      	((-1.465306e-10 6.883439e-10 2.517146e-12) (-3.154057e-12 9.757701e-11 2.385030e-12)) ((3.029724e-15 1.876231e-14 -3.051398e-12) (-1.426136e-13 1.730260e-13 -5.703791e-08))
1.5374        	((-1.327376e-10 7.716715e-10 -1.831429e-11) (1.797081e-12 1.015825e-10 5.552829e-12)) ((1.872223e-15 2.749696e-14 -2.811947e-12) (-3.085813e-13 1.154136e-13 -5.193238e-08))
1.85688       	((-1.881483e-10 9.921532e-10 -2.347464e-11) (1.394014e-11 1.160105e-10 5.772895e-12)) ((4.020784e-15 3.017053e-14 -2.618389e-12) (-5.238759e-13 -1.382435e-13 -4.732867e-08))
2.240256      	((-1.528035e-10 7.026022e-10 -8.892936e-13) (2.639892e-11 1.097422e-10 4.371899e-12)) ((3.746791e-15 3.217607e-14 -2.537562e-12) (-8.308947e-13 -5.332925e-13 -4.320093e-08))
2.700307      	((-1.427860e-10 4.497296e-10 2.211293e-12) (4.118217e-11 7.953815e-11 5.475445e-12)) ((3.079601e-15 3.298065e-14 -2.449486e-12) (-1.274307e-12 -9.831355e-13 -3.953040e-08))
3.252369      	((-1.217038e-10 2.992558e-10 7.264445e-12) (6.226872e-11 4.576537e-11 8.194101e-12)) ((2.431299e-15 3.158032e-14 -2.309262e-12) (-1.730995e-12 -1.382083e-12 -3.629005e-08))
3.914842      	((-2.224601e-11 1.690509e-10 2.222485e-11) (9.009273e-11 2.432448e-11 8.792674e-12)) ((6.832367e-16 2.536844e-14 -2.113436e-12) (-2.018468e-12 -1.756700e-12 -3.343887e-08))
4.709811      	((-3.469304e-11 1.378182e-10 1.664985e-11) (1.113297e-10 -9.321395e-12 5.331374e-12)) ((-2.286637e-15 1.891603e-14 -1.898320e-12) (-2.096769e-12 -1.980243e-12 -3.092534e-08))
5.663773      	((5.143722e-11 -4.117442e-12 7.204094e-12) (1.233707e-10 -4.805167e-11 6.202800e-14)) ((-8.614370e-15 1.258759e-14 -1.705152e-12) (-2.098079e-12 -2.132145e-12 -2.869091e-08))
6.808528      	((8.868037e-11 -5.069813e-11 1.729161e-12) (1.259122e-10 -6.311644e-11 -3.400595e-12)) ((-1.110438e-14 5.169879e-15 -1.531198e-12) (-1.956307e-12 -2.026648e-12 -2.668101e-08))
8.182233      	((5.441955e-11 -7.341226e-11 6.126505e-14) (1.183458e-10 -5.538162e-11 -3.786901e-12)) ((-9.391067e-15 8.317583e-16 -1.377305e-12) (-1.653214e-12 -1.632611e-12 -2.485440e-08))
9.83068       	((4.823546e-11 -4.103477e-11 -1.286674e-12) (9.479730e-11 -3.840529e-11 -3.310773e-12)) ((-1.041620e-14 -4.435155e-15 -1.254791e-12) (-1.284383e-12 -1.279560e-12 -2.318209e-08))
11.808816     	((1.587767e-11 3.439946e-11 -2.004043e-12) (6.928031e-11 -1.550969e-11 -2.562674e-12)) ((-8.812846e-15 -7.197896e-15 -1.154843e-12) (-9.423924e-13 -9.491691e-13 -2.164419e-08))
14.182579     	((-3.605905e-11 5.951289e-12 1.296142e-12) (4.511009e-11 -6.072090e-12 -3.942854e-12)) ((-8.268249e-15 -1.052828e-14 -1.075458e-12) (-6.324017e-13 -7.326075e-13 -2.022711e-08))
17.031095     	((-1.594797e-11 1.838340e-11 8.290248e-13) (2.763700e-11 -5.758383e-13 -4.533617e-12)) ((-6.847954e-15 -1.131063e-14 -1.012336e-12) (-3.940220e-13 -5.048292e-13 -1.892346e-08))
20.449314     	((-1.438275e-11 2.811519e-11 8.742111e-13) (1.744960e-11 2.205171e-12 -2.727819e-12)) ((-4.452368e-15 -1.062982e-14 -9.599312e-13) (-2.373982e-13 -3.095165e-13 -1.772874e-08))
24.551176     	((-7.484539e-12 5.163694e-11 1.003844e-12) (1.291288e-11 -4.935223e-13 -1.015428e-12)) ((-3.870275e-15 -1.014015e-14 -9.125543e-13) (-1.389516e-13 -1.977258e-13 -1.663747e-08))
29.473411     	((7.646717e-12 5.837437e-11 -3.426963e-12) (1.223477e-11 -4.017584e-12 -6.081785e-13)) ((-3.451483e-15 -8.933341e-15 -8.724800e-13) (-1.041940e-13 -1.593194e-13 -1.564295e-08))
35.380094     	((-9.148478e-12 5.700851e-11 1.435119e-12) (1.206835e-11 -7.138616e-12 -1.374999e-12)) ((-2.762814e-15 -8.881407e-15 -8.373466e-13) (-9.145220e-14 -1.845744e-13 -1.473652e-08))
42.468112     	((-1.724318e-11 5.482899e-11 -2.374503e-12) (1.365536e-11 -9.728086e-12 -1.375723e-12)) ((-2.949325e-15 -8.998531e-15 -8.097418e-13) (-1.201903e-13 -2.237692e-13 -1.391028e-08))
50.973735     	((-2.016518e-11 4.643699e-11 4.711605e-12) (1.565585e-11 -1.250171e-11 -9.681740e-13)) ((-2.790877e-15 -8.545829e-15 -7.850556e-13) (-1.464379e-13 -2.431111e-13 -1.315748e-08))
61.180482     	((-9.049461e-12 5.170710e-11 -4.668429e-12) (1.799854e-11 -1.638006e-11 -1.268242e-12)) ((-2.523912e-15 -8.105959e-15 -7.641197e-13) (-1.605904e-13 -2.455804e-13 -1.247189e-08))
73.428578     	((5.194480e-12 5.465350e-11 -4.886328e-13) (2.170125e-11 -2.109271e-11 -1.511902e-12)) ((-2.364342e-15 -7.242874e-15 -7.489359e-13) (-1.959779e-13 -2.653945e-13 -1.184821e-08))
88.126294     	((-1.220570e-12 5.802532e-11 -1.546896e-12) (2.383840e-11 -2.542039e-11 -1.959429e-12)) ((-2.197261e-15 -6.613719e-15 -7.339793e-13) (-2.332664e-13 -2.975625e-13 -1.128168e-08))
105.763553    	((-7.827723e-12 5.415040e-11 -2.941137e-13) (2.401956e-11 -2.797065e-11 -2.343511e-12)) ((-1.916501e-15 -6.031567e-15 -7.204344e-13) (-2.675270e-13 -3.301769e-13 -1.076803e-08))
126.928263    	((-7.360913e-12 5.097862e-11 -7.060007e-13) (2.556167e-11 -2.979181e-11 -2.266180e-12)) ((-1.738858e-15 -5.541546e-15 -7.096816e-13) (-2.878969e-13 -3.374440e-13 -1.030296e-08))
152.325916    	((9.971460e-13 4.105642e-11 -9.077918e-13) (2.590617e-11 -3.404149e-11 -2.009149e-12)) ((-1.421023e-15 -5.267982e-15 -6.999877e-13) (-2.718250e-13 -3.336229e-13 -9.881925e-09))
182.803099    	((-1.023311e-11 2.763064e-11 -9.654291e-14) (2.521271e-11 -3.669442e-11 -1.851605e-12)) ((-8.025630e-16 -4.940869e-15 -6.905514e-13) (-2.607811e-13 -3.278407e-13 -9.500444e-09))
219.375719    	((-2.073856e-11 2.022019e-11 -3.106509e-13) (2.220344e-11 -3.719294e-11 -1.703118e-12)) ((-5.347977e-16 -4.856434e-15 -6.806331e-13) (-2.696183e-13 -3.043707e-13 -9.154408e-09))
263.262863    	((-1.566824e-11 1.428280e-11 5.266113e-13) (1.951676e-11 -3.584685e-11 -1.425959e-12)) ((-9.220550e-16 -4.606230e-15 -6.707600e-13) (-2.774930e-13 -2.746781e-13 -8.840234e-09))
315.927436    	((-9.246309e-12 1.123413e-11 9.022706e-13) (1.686755e-11 -3.529799e-11 -1.148968e-12)) ((-1.090445e-15 -4.527917e-15 -6.612597e-13) (-2.848110e-13 -2.279985e-13 -8.554839e-09))
379.124923    	((-2.868258e-12 1.038837e-11 3.079901e-13) (1.533159e-11 -3.615289e-11 -9.041883e-13)) ((-1.410751e-15 -4.459611e-15 -6.514238e-13) (-2.814338e-13 -1.941312e-13 -8.295741e-09))
454.961908    	((2.456069e-12 1.004115e-11 -4.464385e-14) (1.423305e-11 -3.674483e-11 -9.623209e-13)) ((-1.705653e-15 -4.302267e-15 -6.413940e-13) (-2.675410e-13 -1.804367e-13 -8.061141e-09))
545.966289    	((5.335446e-12 1.116806e-11 6.711494e-13) (1.338678e-11 -3.563403e-11 -1.017525e-12)) ((-1.989482e-15 -4.060299e-15 -6.329705e-13) (-2.461965e-13 -1.870483e-13 -7.849522e-09))
655.171547    	((4.969627e-12 1.373797e-11 2.226595e-12) (1.246809e-11 -3.409491e-11 -7.914137e-13)) ((-2.002656e-15 -3.706174e-15 -6.253110e-13) (-2.135972e-13 -1.885732e-13 -7.659381e-09))
786.217856    	((-2.360516e-12 1.178957e-11 5.544122e-13) (1.143858e-11 -3.125724e-11 -5.374086e-13)) ((-1.922586e-15 -3.411293e-15 -6.182072e-13) (-1.833926e-13 -1.827230e-13 -7.489174e-09))
943.473427    	((-7.938327e-12 1.221407e-11 1.043324e-12) (1.172650e-11 -2.856350e-11 -2.469433e-13)) ((-1.868886e-15 -3.367191e-15 -6.117313e-13) (-1.608649e-13 -1.693698e-13 -7.337413e-09))
1132.180113   	((-7.870400e-12 1.148994e-11 3.794117e-13) (1.209857e-11 -2.659829e-11 -2.949654e-13)) ((-1.773965e-15 -3.281908e-15 -6.058135e-13) (-1.461098e-13 -1.646829e-13 -7.202751e-09))
1358.628135   	((-6.797681e-12 1.106642e-11 -7.667268e-13) (1.244620e-11 -2.538881e-11 -2.839454e-13)) ((-1.678133e-15 -3.161388e-15 -6.009045e-13) (-1.463097e-13 -1.620880e-13 -7.083960e-09))
1625.673898   	((-5.516384e-12 1.223403e-11 1.145700e-12) (1.320054e-11 -2.520220e-11 -1.529824e-13)) ((-1.668637e-15 -3.024407e-15 -5.970508e-13) (-1.505676e-13 -1.592321e-13 -6.979909e-09))
1933.31892    	((-3.575222e-12 1.414049e-11 3.656861e-13) (1.369047e-11 -2.601190e-11 -1.399807e-14)) ((-1.805938e-15 -3.058341e-15 -5.936262e-13) (-1.540352e-13 -1.507460e-13 -6.889426e-09))
2281.565166   	((-8.050246e-13 1.607530e-11 -1.069629e-12) (1.449070e-11 -2.682123e-11 1.318722e-13)) ((-1.973547e-15 -3.091430e-15 -5.903674e-13) (-1.527248e-13 -1.372202e-13 -6.811309e-09))
2670.414911   	((7.805581e-13 1.725997e-11 -6.645906e-13) (1.515039e-11 -2.713229e-11 2.183712e-13)) ((-2.166300e-15 -3.079064e-15 -5.875798e-13) (-1.472676e-13 -1.258047e-13 -6.744236e-09))
3076.474443   	((1.988257e-12 1.839445e-11 -7.937813e-13) (1.546463e-11 -2.683122e-11 1.364452e-13)) ((-2.338060e-15 -3.083620e-15 -5.852788e-13) (-1.371357e-13 -1.161232e-13 -6.687124e-09))
3482.558492   	((3.366509e-12 1.967032e-11 -1.048070e-12) (1.558467e-11 -2.626150e-11 -5.653187e-14)) ((-2.389226e-15 -3.046633e-15 -5.833192e-13) (-1.238347e-13 -1.082682e-13 -6.638782e-09))
3888.666271   	((4.527200e-12 2.116647e-11 -1.356902e-12) (1.561638e-11 -2.565497e-11 -2.935770e-13)) ((-2.418622e-15 -3.058531e-15 -5.816453e-13) (-1.085800e-13 -1.018714e-13 -6.597992e-09))
4294.796688   	((5.504715e-12 2.271381e-11 -1.495656e-12) (1.571403e-11 -2.490836e-11 -5.345747e-13)) ((-2.429182e-15 -3.072293e-15 -5.802272e-13) (-9.523725e-14 -9.694388e-14 -6.563577e-09))
4700.947774   	((6.309029e-12 2.388544e-11 -1.514013e-12) (1.576523e-11 -2.405803e-11 -7.592556e-13)) ((-2.415849e-15 -3.065670e-15 -5.790192e-13) (-8.502346e-14 -9.407066e-14 -6.534503e-09))
5107.118006   	((6.919800e-12 2.444294e-11 -1.280177e-12) (1.579096e-11 -2.319199e-11 -9.194867e-13)) ((-2.417265e-15 -3.064575e-15 -5.780124e-13) (-7.709502e-14 -9.260077e-14 -6.509898e-09))
5513.305778   	((7.362093e-12 2.504497e-11 -9.909285e-13) (1.584577e-11 -2.242360e-11 -9.980161e-13)) ((-2.400848e-15 -3.066211e-15 -5.771511e-13) (-7.150087e-14 -9.139886e-14 -6.489037e-09))
5919.509347   	((7.917035e-12 2.522557e-11 -1.064861e-12) (1.595617e-11 -2.188183e-11 -1.033154e-12)) ((-2.404200e-15 -3.086017e-15 -5.764127e-13) (-6.787419e-14 -9.119343e-14 -6.471313e-09))
6325.727046   	((8.280086e-12 2.532529e-11 -1.465589e-12) (1.611537e-11 -2.146272e-11 -1.046078e-12)) ((-2.438026e-15 -3.129170e-15 -5.758177e-13) (-6.459400e-14 -9.183046e-14 -6.456226e-09))
6731.957305   	((8.492770e-12 2.530573e-11 -1.535582e-12) (1.629918e-11 -2.115320e-11 -1.027766e-12)) ((-2.443055e-15 -3.138658e-15 -5.752654e-13) (-6.050092e-14 -9.091170e-14 -6.443357e-09))
7138.198634   	((8.607913e-12 2.570728e-11 -1.745436e-12) (1.645622e-11 -2.092791e-11 -9.666824e-13)) ((-2.450698e-15 -3.155100e-15 -5.747831e-13) (-5.712969e-14 -9.000103e-14 -6.432361e-09))
7544.449701   	((8.566378e-12 2.598173e-11 -2.066855e-12) (1.654897e-11 -2.079921e-11 -8.882670e-13)) ((-2.458349e-15 -3.171996e-15 -5.743676e-13) (-5.423815e-14 -8.938643e-14 -6.422951e-09))
7950.709288   	((8.376377e-12 2.599914e-11 -2.152971e-12) (1.658647e-11 -2.071407e-11 -8.232412e-13)) ((-2.458425e-15 -3.179391e-15 -5.740155e-13) (-5.259706e-14 -8.898449e-14 -6.414887e-09))
8356.976341   	((8.212598e-12 2.595364e-11 -2.190717e-12) (1.661397e-11 -2.062940e-11 -7.850005e-13)) ((-2.451034e-15 -3.184213e-15 -5.737137e-13) (-5.146037e-14 -8.897047e-14 -6.407967e-09))
8763.249946   	((8.076642e-12 2.589542e-11 -2.287800e-12) (1.663641e-11 -2.056937e-11 -7.677524e-13)) ((-2.444100e-15 -3.186177e-15 -5.734598e-13) (-5.018057e-14 -8.897221e-14 -6.402024e-09))
9169.529289   	((7.960131e-12 2.580144e-11 -2.357532e-12) (1.665257e-11 -2.052704e-11 -7.674383e-13)) ((-2.435515e-15 -3.186149e-15 -5.732434e-13) (-4.889966e-14 -8.912879e-14 -6.396915e-09))
9575.813649   	((7.880453e-12 2.573416e-11 -2.348535e-12) (1.665964e-11 -2.049677e-11 -7.719838e-13)) ((-2.430291e-15 -3.187183e-15 -5.730613e-13) (-4.764624e-14 -8.938661e-14 -6.392518e-09))
