# Forces      
# CofR        : (0.000000e+00 0.000000e+00 0.000000e+00)
# Time        forces(pressure viscous)	moments(pressure viscous)
0             	((0.000000e+00 0.000000e+00 0.000000e+00) (0.000000e+00 0.000000e+00 0.000000e+00)) ((0.000000e+00 0.000000e+00 0.000000e+00) (0.000000e+00 0.000000e+00 0.000000e+00))
0.012         	((9.012550e-11 -1.130171e-10 2.225680e-10) (4.517383e-14 -2.160450e-13 -1.468469e-12)) ((-1.005188e-09 9.593839e-14 1.956314e-15) (-7.002871e-07 -7.726385e-14 3.216005e-14))
0.0264        	((-1.028599e-10 -1.959270e-10 4.024105e-10) (1.926918e-12 1.622163e-12 -1.269049e-12)) ((-4.966882e-10 7.528308e-14 -1.949977e-14) (-6.414252e-07 -1.333163e-13 3.295924e-14))
0.04368       	((4.433650e-10 2.943747e-10 4.669593e-10) (9.601216e-13 4.927787e-12 -3.029440e-13)) ((-2.752241e-10 6.249146e-14 -2.160597e-14) (-5.809493e-07 -7.718718e-14 -5.147475e-14))
0.064416      	((-1.467660e-10 8.565789e-12 1.052492e-10) (-3.950362e-12 7.429113e-12 9.631159e-13)) ((-1.551474e-10 4.226971e-14 8.251049e-15) (-5.201910e-07 6.504375e-14 -1.424639e-13))
0.0892992     	((7.667317e-11 9.080472e-11 4.517582e-11) (-1.024217e-11 8.484655e-12 2.667117e-12)) ((-1.172294e-10 4.194414e-14 -6.150328e-15) (-4.609344e-07 2.004433e-13 -1.926859e-13))
0.119159      	((1.307155e-10 1.265278e-10 3.523853e-10) (-1.425663e-11 7.841931e-12 4.246031e-12)) ((-8.444054e-11 2.944593e-14 1.316725e-15) (-4.050169e-07 2.814461e-13 -2.032748e-13))
0.154991      	((-1.960749e-11 -1.805098e-10 -1.114613e-10) (-1.615928e-11 6.791802e-12 4.775556e-12)) ((-6.736804e-11 2.198118e-14 3.382634e-15) (-3.537343e-07 3.157643e-13 -1.785212e-13))
0.197989      	((-4.029209e-11 -4.835384e-11 9.119895e-11) (-2.050431e-11 5.798601e-12 4.742450e-12)) ((-5.384644e-11 9.295744e-15 1.626766e-15) (-3.082847e-07 3.207161e-13 -1.554422e-13))
0.249587      	((3.753062e-11 -3.670589e-11 1.168057e-10) (-2.694750e-11 5.411939e-12 4.371988e-12)) ((-4.474880e-11 7.148888e-15 3.541633e-15) (-2.692927e-07 2.997334e-13 -1.422222e-13))
0.311504      	((-1.581886e-11 -9.591198e-11 1.070643e-10) (-2.811181e-11 5.419102e-12 3.555850e-12)) ((-3.753081e-11 8.181127e-15 6.804038e-16) (-2.366509e-07 2.579692e-13 -1.393956e-13))
0.385805      	((-7.644813e-11 -9.595825e-11 1.900645e-10) (-2.388905e-11 4.305415e-12 3.166005e-12)) ((-3.246965e-11 9.226690e-15 -2.950498e-15) (-2.096595e-07 2.554983e-13 -1.332372e-13))
0.474966      	((-1.332378e-11 -1.988903e-10 1.418949e-10) (-1.980206e-11 2.572529e-12 4.913966e-12)) ((-2.909809e-11 7.395990e-15 -5.136071e-15) (-1.872670e-07 3.499843e-13 -1.454219e-13))
0.581959      	((-1.140451e-10 -2.650711e-10 3.902769e-11) (8.466139e-13 -7.156085e-14 5.986148e-12)) ((-2.608142e-11 9.816065e-15 -9.269617e-15) (-1.683984e-07 4.644214e-13 -1.865509e-13))
0.710351      	((-2.347734e-10 -2.942235e-10 1.993697e-10) (2.050205e-11 -1.493529e-12 7.952271e-12)) ((-2.312063e-11 1.038590e-14 -9.452170e-15) (-1.521723e-07 5.161378e-13 -2.152619e-13))
0.864421      	((-2.697740e-10 -3.077293e-10 1.550094e-10) (2.685884e-11 8.637216e-13 8.045097e-12)) ((-2.107800e-11 1.440858e-14 -9.548562e-15) (-1.379592e-07 4.391032e-13 -2.396222e-13))
1.049306      	((-1.415215e-10 -2.896728e-10 2.625584e-10) (3.403373e-11 6.083916e-12 4.574151e-12)) ((-1.977327e-11 1.409821e-14 -7.283679e-15) (-1.253334e-07 2.401467e-13 -2.690240e-13))
1.271167      	((-1.096306e-10 -3.918860e-10 3.212872e-10) (3.329040e-11 9.972326e-12 -3.718205e-12)) ((-1.845203e-11 1.106039e-14 -5.077638e-15) (-1.140067e-07 5.943903e-14 -4.135963e-13))
1.5374        	((1.792647e-11 -4.160537e-10 3.131119e-10) (2.000313e-11 1.519889e-11 -1.024446e-11)) ((-1.696465e-11 4.245031e-15 -5.772091e-15) (-1.037907e-07 9.856638e-15 -7.199602e-13))
1.85688       	((-4.775834e-11 -4.373044e-10 2.745391e-10) (1.421507e-11 2.743850e-11 -1.880289e-11)) ((-1.554824e-11 2.587263e-15 -4.434067e-15) (-9.458252e-08 -1.198685e-13 -1.130600e-12))
2.240256      	((9.226384e-12 -4.859654e-10 2.689512e-10) (1.867515e-11 4.611673e-11 -3.426383e-11)) ((-1.460713e-11 -2.666964e-15 2.630939e-16) (-8.633144e-08 -4.390916e-13 -1.635291e-12))
2.700307      	((1.009228e-11 -4.678579e-10 1.131896e-10) (9.133270e-12 7.580225e-11 -6.564720e-11)) ((-1.394898e-11 -8.247858e-15 6.562079e-15) (-7.899734e-08 -8.905709e-13 -2.452914e-12))
3.252369      	((5.992330e-12 -3.699191e-10 9.348622e-11) (2.425936e-12 1.127517e-10 -1.048349e-10)) ((-1.323882e-11 -1.340809e-14 1.026828e-14) (-7.252650e-08 -1.526021e-12 -3.263751e-12))
3.914842      	((-4.440066e-11 -2.651436e-10 -1.319920e-11) (-7.472886e-12 1.491071e-10 -1.439488e-10)) ((-1.246571e-11 -1.550685e-14 1.202169e-14) (-6.683791e-08 -2.136096e-12 -3.918750e-12))
4.709811      	((2.797339e-11 -7.397555e-11 -1.379148e-11) (-2.385609e-11 1.865683e-10 -1.760009e-10)) ((-1.162971e-11 -1.581422e-14 1.131636e-14) (-6.182075e-08 -2.589882e-12 -4.294544e-12))
5.663773      	((-7.614377e-11 5.949069e-11 -3.006232e-12) (-1.433627e-11 2.094780e-10 -1.923075e-10)) ((-1.075220e-11 -1.565354e-14 8.135483e-15) (-5.735720e-08 -2.907851e-12 -4.291418e-12))
6.808528      	((-3.615151e-11 1.084090e-10 -4.692188e-11) (-6.312377e-12 2.153961e-10 -1.888401e-10)) ((-9.875221e-12 -1.194501e-14 6.938552e-15) (-5.334139e-08 -2.940613e-12 -4.065193e-12))
8.182233      	((-5.568902e-11 1.127572e-10 -8.816727e-11) (-2.067717e-11 1.929174e-10 -1.645716e-10)) ((-9.022414e-12 -9.295942e-15 6.986605e-15) (-4.969069e-08 -2.456215e-12 -3.521318e-12))
9.83068       	((-9.269978e-11 6.841086e-11 -8.768377e-11) (-3.517305e-11 1.520456e-10 -1.288466e-10)) ((-8.199732e-12 -6.679012e-15 8.328171e-15) (-4.634873e-08 -1.863180e-12 -2.786977e-12))
11.808816     	((-8.998158e-11 -1.127829e-11 -3.338565e-11) (-3.324942e-11 1.175867e-10 -9.701451e-11)) ((-7.433496e-12 -5.391851e-15 1.035948e-14) (-4.327396e-08 -1.454204e-12 -2.067017e-12))
14.182579     	((-6.217476e-11 -6.578021e-11 -3.215576e-11) (-2.702698e-11 8.401605e-11 -7.289700e-11)) ((-6.748001e-12 -2.176977e-15 1.207433e-14) (-4.043924e-08 -1.192131e-12 -1.343004e-12))
17.031095     	((-5.169279e-11 -5.785542e-11 -1.534149e-11) (-2.265547e-11 5.753369e-11 -5.270743e-11)) ((-6.148191e-12 -1.334387e-15 1.341689e-14) (-3.782954e-08 -7.984475e-13 -8.419909e-13))
20.449314     	((-1.567840e-11 -3.542867e-11 -1.180058e-11) (-2.725080e-11 3.986793e-11 -3.814933e-11)) ((-5.625545e-12 -2.416015e-15 1.483151e-14) (-3.543788e-08 -4.663780e-13 -4.883805e-13))
24.551176     	((-6.685975e-12 -1.882550e-11 1.353460e-11) (-3.035622e-11 2.753655e-11 -2.343657e-11)) ((-5.169714e-12 -3.077597e-15 1.504903e-14) (-3.325465e-08 -2.544394e-13 -2.751807e-13))
29.473411     	((-9.930547e-12 -3.778672e-11 9.877584e-12) (-2.678417e-11 1.995902e-11 -1.287335e-11)) ((-4.773838e-12 -3.028115e-15 1.389637e-14) (-3.126609e-08 -1.427757e-13 -2.105518e-13))
35.380094     	((1.251125e-11 -2.479705e-11 1.783656e-11) (-2.113722e-11 1.535472e-11 -8.083473e-12)) ((-4.418924e-12 -3.779733e-15 1.312469e-14) (-2.945588e-08 -4.529344e-14 -2.720914e-13))
42.468112     	((1.273493e-11 -2.909797e-11 2.094450e-11) (-1.835735e-11 1.502595e-11 -4.417203e-12)) ((-4.108328e-12 -4.976235e-15 1.261181e-14) (-2.780868e-08 3.334568e-14 -3.964403e-13))
50.973735     	((5.690928e-12 -2.599206e-11 2.911913e-11) (-1.582657e-11 1.497565e-11 -1.966523e-12)) ((-3.827982e-12 -5.361110e-15 1.201268e-14) (-2.630948e-08 6.238349e-15 -4.613926e-13))
61.180482     	((-5.526075e-12 8.497210e-12 4.826094e-11) (-1.017374e-11 1.852149e-11 -4.208787e-12)) ((-3.589096e-12 -4.219005e-15 1.063220e-14) (-2.494472e-08 -1.138117e-13 -5.227091e-13))
73.428578     	((-6.358114e-12 1.426903e-11 4.524737e-11) (-3.141323e-12 2.464583e-11 -7.662655e-12)) ((-3.378494e-12 -2.909224e-15 9.405406e-15) (-2.370278e-08 -2.750749e-13 -5.594978e-13))
88.126294     	((-1.188485e-11 5.036852e-12 5.728230e-12) (-1.250197e-12 2.762057e-11 -1.178406e-11)) ((-3.190506e-12 -1.878256e-15 8.672367e-15) (-2.257387e-08 -3.960182e-13 -5.339359e-13))
105.763553    	((-1.256029e-11 -6.296380e-12 -2.542368e-11) (-9.344917e-13 2.756979e-11 -1.568852e-11)) ((-3.029181e-12 -2.794215e-15 8.786738e-15) (-2.154982e-08 -4.325036e-13 -5.005101e-13))
126.928263    	((9.050583e-12 -5.434402e-12 -2.219956e-11) (-1.631040e-12 2.533574e-11 -1.877877e-11)) ((-2.880592e-12 -3.718135e-15 8.370985e-15) (-2.062240e-08 -4.330709e-13 -5.071071e-13))
152.325916    	((3.081310e-11 -6.015363e-12 -2.049057e-11) (-2.714674e-12 2.200963e-11 -1.883168e-11)) ((-2.745184e-12 -3.664380e-15 7.525571e-15) (-1.978296e-08 -4.179481e-13 -5.180108e-13))
182.803099    	((4.113416e-11 -3.247446e-13 -3.281526e-12) (-4.753793e-12 1.894851e-11 -1.786466e-11)) ((-2.624750e-12 -2.829186e-15 6.040904e-15) (-1.902252e-08 -4.085414e-13 -5.070488e-13))
219.375719    	((4.646192e-11 1.929685e-12 3.760591e-12) (-4.261849e-12 1.564736e-11 -1.909675e-11)) ((-2.514229e-12 -2.484006e-15 5.138776e-15) (-1.833269e-08 -4.084323e-13 -5.025374e-13))
263.262863    	((4.180748e-11 8.215105e-12 1.148248e-11) (-1.903483e-12 1.392136e-11 -1.833831e-11)) ((-2.411108e-12 -2.569786e-15 4.304717e-15) (-1.770691e-08 -4.325840e-13 -4.575881e-13))
315.927436    	((3.092093e-11 1.897795e-11 2.170099e-11) (1.962347e-12 1.214340e-11 -1.897041e-11)) ((-2.319136e-12 -2.648544e-15 3.887364e-15) (-1.714015e-08 -4.772676e-13 -3.927886e-13))
379.124923    	((4.462103e-11 1.245903e-11 2.230667e-11) (4.796214e-12 1.126892e-11 -1.882721e-11)) ((-2.236055e-12 -2.477458e-15 3.784489e-15) (-1.662799e-08 -4.934836e-13 -3.497815e-13))
454.961908    	((4.216543e-11 6.613624e-12 2.374444e-11) (6.781662e-12 1.111870e-11 -1.770136e-11)) ((-2.159105e-12 -2.228905e-15 3.587997e-15) (-1.616636e-08 -5.331075e-13 -3.068183e-13))
545.966289    	((4.384734e-11 9.817996e-12 3.167162e-11) (1.108696e-11 8.384189e-12 -1.732486e-11)) ((-2.091116e-12 -1.901785e-15 3.314470e-15) (-1.575144e-08 -5.640180e-13 -2.616423e-13))
655.171547    	((4.464748e-11 1.567977e-11 3.952527e-11) (1.378124e-11 5.668603e-12 -1.714055e-11)) ((-2.031199e-12 -1.701014e-15 3.232855e-15) (-1.538033e-08 -5.979433e-13 -2.104070e-13))
784.711926    	((4.244032e-11 2.130198e-11 4.501348e-11) (1.417830e-11 4.024799e-12 -1.634411e-11)) ((-1.979453e-12 -1.674955e-15 3.135198e-15) (-1.505090e-08 -6.037373e-13 -1.825333e-13))
934.586839    	((4.062008e-11 2.253133e-11 4.661064e-11) (1.564896e-11 3.063870e-12 -1.403434e-11)) ((-1.933957e-12 -1.694838e-15 3.001036e-15) (-1.476123e-08 -5.814834e-13 -1.628884e-13))
1104.79656    	((3.894850e-11 2.240750e-11 4.634833e-11) (1.697052e-11 1.724370e-12 -1.158790e-11)) ((-1.895479e-12 -1.793285e-15 2.914043e-15) (-1.450862e-08 -5.315531e-13 -1.443312e-13))
1295.341826   	((3.976144e-11 2.205727e-11 4.597721e-11) (1.787625e-11 1.184273e-12 -9.111664e-12)) ((-1.862544e-12 -1.773080e-15 2.749549e-15) (-1.428993e-08 -4.704214e-13 -1.315116e-13))
1498.705798   	((4.101351e-11 2.160599e-11 4.415936e-11) (1.791677e-11 1.130322e-12 -7.278426e-12)) ((-1.833451e-12 -1.700287e-15 2.563627e-15) (-1.410238e-08 -4.135545e-13 -1.287026e-13))
1702.085012   	((3.328539e-11 2.311228e-11 4.456304e-11) (1.749758e-11 9.997606e-13 -5.195516e-12)) ((-1.808859e-12 -1.494124e-15 2.390846e-15) (-1.394333e-08 -3.632738e-13 -1.266698e-13))
1905.48195    	((2.892325e-11 2.234144e-11 4.340466e-11) (1.725131e-11 7.513376e-13 -4.513584e-12)) ((-1.788157e-12 -1.313384e-15 2.251639e-15) (-1.380913e-08 -3.265230e-13 -1.199401e-13))
2108.890584   	((2.726286e-11 2.198710e-11 4.302417e-11) (1.680207e-11 8.002698e-13 -3.690678e-12)) ((-1.770424e-12 -1.151550e-15 2.104954e-15) (-1.369609e-08 -2.927790e-13 -1.115627e-13))
2312.313723   	((2.745956e-11 2.128526e-11 4.271040e-11) (1.585980e-11 7.797193e-13 -2.993684e-12)) ((-1.755180e-12 -1.038718e-15 2.047983e-15) (-1.360057e-08 -2.645520e-13 -1.023240e-13))
2515.753476   	((2.769545e-11 2.105937e-11 4.232889e-11) (1.541184e-11 8.330625e-13 -2.142565e-12)) ((-1.742141e-12 -1.009945e-15 2.012873e-15) (-1.351960e-08 -2.395662e-13 -9.474371e-14))
2719.205885   	((2.538789e-11 2.063651e-11 4.149706e-11) (1.524501e-11 8.954018e-13 -1.292760e-12)) ((-1.730974e-12 -9.917919e-16 2.004713e-15) (-1.345062e-08 -2.133793e-13 -8.801602e-14))
2922.663424   	((2.430584e-11 2.035757e-11 4.079881e-11) (1.522471e-11 9.527260e-13 -7.595899e-13)) ((-1.721552e-12 -9.879448e-16 2.016729e-15) (-1.339156e-08 -1.893342e-13 -8.112731e-14))
3126.126344   	((2.422158e-11 1.980920e-11 4.029456e-11) (1.536002e-11 1.024304e-12 -2.799056e-13)) ((-1.713437e-12 -9.820342e-16 2.030590e-15) (-1.334074e-08 -1.693617e-13 -7.778427e-14))
3329.594655   	((2.427823e-11 1.954432e-11 3.996947e-11) (1.570295e-11 8.738471e-13 3.744694e-14)) ((-1.706208e-12 -9.823753e-16 2.053812e-15) (-1.329681e-08 -1.480703e-13 -7.685999e-14))
3533.068237   	((2.333109e-11 1.895011e-11 3.971902e-11) (1.602540e-11 7.316639e-13 3.686707e-13)) ((-1.699923e-12 -9.884559e-16 2.074977e-15) (-1.325867e-08 -1.286903e-13 -7.811802e-14))
3736.546999   	((2.149019e-11 1.880101e-11 3.939200e-11) (1.636098e-11 5.575562e-13 6.157805e-13)) ((-1.694450e-12 -9.863983e-16 2.083622e-15) (-1.322545e-08 -1.122700e-13 -8.053923e-14))
3940.03081    	((2.046862e-11 1.875083e-11 3.941779e-11) (1.671447e-11 3.730169e-13 8.145981e-13)) ((-1.689637e-12 -9.753172e-16 2.079764e-15) (-1.319640e-08 -9.862232e-14 -8.262995e-14))
4143.519367   	((2.029648e-11 1.866902e-11 3.938770e-11) (1.704573e-11 1.976368e-13 9.069701e-13)) ((-1.685381e-12 -9.512821e-16 2.075017e-15) (-1.317093e-08 -8.658002e-14 -8.550863e-14))
4347.01255    	((2.015972e-11 1.853652e-11 3.937379e-11) (1.733944e-11 7.182909e-14 1.037263e-12)) ((-1.681702e-12 -9.417672e-16 2.072008e-15) (-1.314854e-08 -7.673487e-14 -8.891074e-14))
4550.510403   	((1.996064e-11 1.829589e-11 3.937986e-11) (1.768283e-11 -1.898682e-14 1.210041e-12)) ((-1.678452e-12 -9.272455e-16 2.077322e-15) (-1.312880e-08 -6.904863e-14 -9.223658e-14))
4754.012577   	((1.952074e-11 1.817306e-11 3.937766e-11) (1.810368e-11 -8.777947e-14 1.371530e-12)) ((-1.675580e-12 -9.116559e-16 2.080858e-15) (-1.311135e-08 -6.231828e-14 -9.590100e-14))
