# Forces      
# CofR        : (0.000000e+00 0.000000e+00 0.000000e+00)
# Time        forces(pressure viscous)	moments(pressure viscous)
0             	((0.000000e+00 0.000000e+00 0.000000e+00) (0.000000e+00 0.000000e+00 0.000000e+00)) ((0.000000e+00 0.000000e+00 0.000000e+00) (0.000000e+00 0.000000e+00 0.000000e+00))
0.012         	((1.838059e-10 -2.255599e-10 4.445932e-10) (3.633594e-13 -4.395130e-13 -2.942168e-12)) ((-2.007236e-09 1.915569e-13 3.899399e-15) (-1.397260e-06 -1.550561e-13 6.456289e-14))
0.0264        	((-2.088043e-10 -3.875500e-10 8.048862e-10) (5.241244e-12 3.184559e-12 -2.534808e-12)) ((-9.934188e-10 1.503127e-13 -3.884375e-14) (-1.279826e-06 -2.671624e-13 6.886687e-14))
0.04368       	((8.886441e-10 5.846467e-10 9.295249e-10) (5.037872e-12 9.377386e-12 -7.013062e-13)) ((-5.524981e-10 1.244708e-13 -4.301516e-14) (-1.159205e-06 -1.612857e-13 -9.524481e-14))
0.064416      	((-2.746504e-10 1.445993e-11 2.087527e-10) (-2.676706e-12 1.414602e-11 1.921263e-12)) ((-3.135819e-10 8.381799e-14 1.697409e-14) (-1.038080e-06 1.185078e-13 -2.852070e-13))
0.0892992     	((1.470112e-10 1.951564e-10 1.118261e-10) (-1.454578e-11 1.662580e-11 5.252490e-12)) ((-2.383717e-10 8.483275e-14 -1.310814e-14) (-9.200386e-07 3.767767e-13 -3.882544e-13))
0.119159      	((3.819125e-10 2.294899e-10 6.996742e-10) (-1.845477e-11 1.549467e-11 8.459930e-12)) ((-1.731150e-10 6.094573e-14 1.526597e-15) (-8.087592e-07 5.426436e-13 -4.052390e-13))
0.154991      	((1.134170e-10 -3.948036e-10 -2.594795e-10) (-2.424948e-11 1.318795e-11 9.391659e-12)) ((-1.390223e-10 4.156444e-14 9.386453e-15) (-7.068354e-07 6.392639e-13 -3.667403e-13))
0.197989      	((-4.804978e-11 -1.056255e-10 1.829324e-10) (-3.981120e-11 1.150459e-11 8.775147e-12)) ((-1.117261e-10 1.870215e-14 8.023911e-16) (-6.165365e-07 6.451791e-13 -3.290844e-13))
0.249587      	((1.989850e-10 -9.732396e-11 2.265042e-10) (-5.768944e-11 1.069749e-11 8.272852e-12)) ((-9.315482e-11 1.400354e-14 5.745477e-15) (-5.389997e-07 5.877223e-13 -2.919298e-13))
0.311504      	((-4.903225e-11 -1.752476e-10 2.046074e-10) (-6.277809e-11 1.025710e-11 6.756213e-12)) ((-7.846899e-11 1.624213e-14 3.070154e-16) (-4.739837e-07 5.037134e-13 -2.736369e-13))
0.385805      	((-2.361194e-10 -1.948746e-10 3.341778e-10) (-5.084897e-11 8.824704e-12 5.746790e-12)) ((-6.826125e-11 2.115768e-14 -8.180625e-15) (-4.200974e-07 4.818098e-13 -2.552981e-13))
0.474966      	((-1.315395e-10 -3.911232e-10 2.918971e-10) (-5.470269e-11 4.973033e-12 9.095042e-12)) ((-6.137989e-11 1.825322e-14 -1.254476e-14) (-3.752604e-07 6.861802e-13 -2.926795e-13))
0.581959      	((-1.382069e-10 -5.379886e-10 8.772922e-11) (-8.243044e-12 1.162043e-12 1.315155e-11)) ((-5.507610e-11 2.284089e-14 -2.060554e-14) (-3.373876e-07 9.930953e-13 -4.076896e-13))
0.710351      	((-5.091843e-10 -6.484523e-10 3.740884e-10) (5.401595e-11 -2.832052e-13 1.585988e-11)) ((-4.893661e-11 2.081137e-14 -1.892340e-14) (-3.047841e-07 1.142746e-12 -4.820768e-13))
0.864421      	((-8.485694e-10 -5.974346e-10 3.066311e-10) (7.752390e-11 1.139594e-12 1.601313e-11)) ((-4.462075e-11 2.767873e-14 -1.807542e-14) (-2.762242e-07 9.490575e-13 -4.401532e-13))
1.049306      	((-1.139012e-10 -5.416582e-10 6.820969e-10) (8.807933e-11 8.738799e-12 6.699818e-12)) ((-4.187327e-11 2.844561e-14 -1.400604e-14) (-2.508677e-07 4.958290e-13 -4.504209e-13))
1.271167      	((-3.485475e-10 -6.345704e-10 7.201421e-10) (6.533940e-11 1.600340e-11 -7.450907e-12)) ((-3.917132e-11 1.620376e-14 -1.063025e-14) (-2.281387e-07 1.436026e-13 -6.661686e-13))
1.5374        	((2.968247e-11 -8.251897e-10 4.701973e-10) (2.986733e-11 2.454589e-11 -2.000768e-11)) ((-3.607612e-11 9.429443e-15 -1.132596e-14) (-2.076578e-07 1.532602e-14 -1.180810e-12))
1.85688       	((-4.977965e-11 -8.791848e-10 4.912369e-10) (1.501804e-11 4.826204e-11 -3.757901e-11)) ((-3.304399e-11 5.241629e-15 -7.562557e-15) (-1.892161e-07 -2.494864e-13 -1.890172e-12))
2.240256      	((2.196142e-11 -9.115920e-10 4.254860e-10) (-3.726232e-12 8.258156e-11 -6.731433e-11)) ((-3.081494e-11 -5.931968e-15 2.104887e-15) (-1.727124e-07 -8.476940e-13 -2.910623e-12))
2.700307      	((-1.032018e-10 -9.557209e-10 7.292142e-11) (-2.568742e-11 1.314035e-10 -1.220674e-10)) ((-2.914647e-11 -2.301515e-14 1.516884e-14) (-1.580615e-07 -1.619540e-12 -4.335940e-12))
3.252369      	((-3.630061e-11 -8.472139e-10 -6.067845e-11) (-8.861012e-12 2.010703e-10 -1.973246e-10)) ((-2.733848e-11 -3.231135e-14 2.454487e-14) (-1.451494e-07 -2.419306e-12 -5.941210e-12))
3.914842      	((-2.690549e-11 -5.597049e-10 -2.141891e-10) (7.593337e-12 2.707730e-10 -2.695516e-10)) ((-2.547614e-11 -3.473435e-14 2.578963e-14) (-1.338066e-07 -3.236946e-12 -7.192035e-12))
4.709811      	((1.060820e-12 -4.740592e-11 5.689324e-11) (-1.107961e-11 3.327614e-10 -3.148111e-10)) ((-2.364932e-11 -3.424903e-14 2.558754e-14) (-1.238016e-07 -4.051830e-12 -7.801275e-12))
5.663773      	((-1.891859e-10 1.167892e-10 -7.574448e-13) (-7.767398e-12 3.604009e-10 -3.261297e-10)) ((-2.174485e-11 -3.314814e-14 1.921131e-14) (-1.148904e-07 -4.619917e-12 -7.659888e-12))
6.808528      	((-6.672936e-11 2.419769e-10 -5.551708e-11) (-1.799236e-11 3.406267e-10 -3.026127e-10)) ((-1.983446e-11 -2.728567e-14 1.562671e-14) (-1.068630e-07 -4.378996e-12 -7.032171e-12))
8.182233      	((-1.661640e-10 2.597161e-10 -1.698887e-10) (-5.558372e-11 2.864564e-10 -2.404504e-10)) ((-1.806145e-11 -2.120527e-14 1.709147e-14) (-9.956294e-08 -3.584021e-12 -5.957268e-12))
9.83068       	((-2.081650e-10 2.877682e-10 4.258387e-11) (-8.827466e-11 2.321158e-10 -1.699891e-10)) ((-1.633682e-11 -1.321783e-14 1.904335e-14) (-9.287705e-08 -2.714180e-12 -4.680235e-12))
11.808816     	((-1.592867e-10 4.314473e-11 2.096096e-13) (-8.172653e-11 1.766795e-10 -1.197055e-10)) ((-1.474723e-11 -9.429614e-15 2.383166e-14) (-8.672328e-08 -2.073153e-12 -3.533461e-12))
14.182579     	((-2.252255e-10 -7.335390e-11 3.084201e-11) (-7.981951e-11 1.262399e-10 -7.859031e-11)) ((-1.334063e-11 -4.562628e-15 2.857419e-14) (-8.104595e-08 -1.547461e-12 -2.648736e-12))
17.031095     	((-2.255896e-10 -1.050012e-11 2.552959e-11) (-7.125431e-11 9.536526e-11 -5.341218e-11)) ((-1.209978e-11 -4.972124e-15 3.040424e-14) (-7.581504e-08 -8.900161e-13 -2.071744e-12))
20.449314     	((-1.324624e-10 1.165639e-11 2.878052e-11) (-4.576212e-11 7.378919e-11 -3.226697e-11)) ((-1.103008e-11 -9.716906e-15 3.426193e-14) (-7.102013e-08 -4.242823e-13 -1.477796e-12))
24.551176     	((-2.737050e-11 -4.864044e-11 1.513418e-11) (-4.084868e-11 5.855967e-11 -1.341266e-11)) ((-1.011887e-11 -1.625707e-14 3.838021e-14) (-6.664780e-08 -1.312934e-13 -1.205411e-12))
29.473411     	((-2.452306e-11 -5.122526e-11 1.076054e-11) (-3.258814e-11 4.093663e-11 1.751514e-12)) ((-9.330064e-12 -1.790885e-14 3.722994e-14) (-6.267357e-08 1.536726e-13 -1.144619e-12))
35.380094     	((-3.803940e-11 -3.846672e-11 2.111028e-12) (-2.615738e-11 3.342873e-11 1.508954e-11)) ((-8.616725e-12 -1.620909e-14 3.333571e-14) (-5.906501e-08 3.269424e-13 -1.169966e-12))
42.468112     	((-4.758779e-11 -8.359871e-11 -1.904850e-11) (-2.534780e-11 3.178694e-11 1.712981e-11)) ((-7.977297e-12 -1.619475e-14 3.088928e-14) (-5.578843e-08 3.812369e-13 -1.396550e-12))
50.973735     	((-6.631576e-11 -5.982924e-11 -4.744726e-11) (-2.556432e-11 2.774913e-11 7.350355e-12)) ((-7.417197e-12 -1.366771e-14 2.794216e-14) (-5.281140e-08 1.084640e-13 -1.453193e-12))
61.180482     	((-2.815075e-11 -1.007158e-11 -3.300682e-11) (-1.101032e-11 3.002215e-11 -9.146544e-13)) ((-6.950293e-12 -1.459935e-14 2.734852e-14) (-5.010325e-08 -3.203497e-13 -1.369102e-12))
73.428578     	((-7.748414e-12 3.660455e-11 2.712063e-11) (-1.267995e-11 3.104983e-11 -5.694618e-13)) ((-6.536541e-12 -1.245825e-14 2.404269e-14) (-4.764012e-08 -5.836057e-13 -1.330948e-12))
88.126294     	((1.991806e-11 2.206719e-11 3.091121e-11) (-8.980998e-12 2.188866e-11 -1.176192e-12)) ((-6.156436e-12 -1.004267e-14 2.044676e-14) (-4.540163e-08 -6.129800e-13 -1.290620e-12))
105.763553    	((3.095709e-11 4.721814e-11 7.198844e-11) (-7.285763e-12 1.100309e-11 1.209607e-12)) ((-5.813769e-12 -7.987827e-15 1.658395e-14) (-4.336996e-08 -6.148690e-13 -1.244103e-12))
126.928263    	((3.794970e-11 3.750585e-11 5.821704e-11) (-6.607686e-12 2.598552e-12 2.835649e-12)) ((-5.513391e-12 -7.931839e-15 1.552334e-14) (-4.152816e-08 -6.586070e-13 -1.248825e-12))
152.325916    	((5.043550e-11 5.150816e-11 6.994969e-11) (-2.814306e-12 -1.798250e-12 4.479671e-13)) ((-5.254194e-12 -8.376325e-15 1.484712e-14) (-3.986108e-08 -7.198528e-13 -1.288542e-12))
182.803099    	((6.367904e-11 7.971249e-11 9.388613e-11) (-5.592887e-12 -1.860515e-13 -3.466808e-12)) ((-5.014367e-12 -9.151532e-15 1.410272e-14) (-3.835461e-08 -8.243093e-13 -1.257174e-12))
219.375719    	((4.854567e-11 5.574379e-11 6.901000e-11) (-9.296046e-12 -1.609296e-12 -9.228321e-12)) ((-4.778130e-12 -7.958330e-15 1.351758e-14) (-3.699366e-08 -1.019368e-12 -1.051980e-12))
263.262863    	((7.344917e-11 2.276049e-11 5.574012e-11) (-1.968065e-11 -3.133598e-12 -9.570374e-12)) ((-4.563633e-12 -7.206283e-15 1.304566e-14) (-3.576544e-08 -1.147881e-12 -7.355840e-13))
315.927436    	((7.558001e-11 -1.427874e-11 3.339407e-11) (-1.910193e-11 -1.079259e-11 -1.165654e-11)) ((-4.376857e-12 -6.991304e-15 1.180963e-14) (-3.466176e-08 -1.153057e-12 -4.151842e-13))
378.781451    	((4.207367e-11 -3.280276e-11 2.018367e-11) (-6.887157e-12 -1.766099e-11 -1.478714e-11)) ((-4.216137e-12 -7.443579e-15 1.082224e-14) (-3.367613e-08 -1.107001e-12 -1.813298e-13))
451.823303    	((3.209905e-11 -3.505141e-11 1.730205e-11) (-2.881063e-13 -2.418356e-11 -1.273114e-11)) ((-4.074306e-12 -7.600618e-15 1.022249e-14) (-3.280610e-08 -1.032759e-12 4.642214e-14))
535.051596    	((3.319696e-11 -4.353415e-11 1.169386e-11) (2.810010e-12 -3.032055e-11 -1.226816e-11)) ((-3.949530e-12 -7.049033e-15 9.609830e-15) (-3.204610e-08 -9.302836e-13 2.419513e-13))
628.464675    	((3.069558e-11 -4.350468e-11 5.794170e-12) (-1.887695e-13 -3.502652e-11 -1.004071e-11)) ((-3.842934e-12 -6.726539e-15 8.772870e-15) (-3.138822e-08 -8.215808e-13 3.846484e-13))
730.297834    	((3.599652e-11 -5.044906e-11 -8.284341e-14) (-2.616793e-12 -3.451253e-11 -4.582842e-12)) ((-3.756557e-12 -6.373314e-15 8.305950e-15) (-3.082418e-08 -6.959097e-13 4.789775e-13))
832.118231    	((2.672432e-11 -5.364741e-11 -7.292921e-12) (-6.715281e-12 -3.310289e-11 6.932146e-13)) ((-3.689178e-12 -6.208296e-15 8.211776e-15) (-3.035131e-08 -5.348234e-13 4.645493e-13))
933.92365     	((2.918678e-11 -5.691733e-11 -1.622591e-11) (-1.271738e-11 -2.874357e-11 6.062862e-12)) ((-3.635147e-12 -6.066594e-15 7.874559e-15) (-2.995808e-08 -3.692454e-13 3.674970e-13))
1035.717202   	((3.557292e-11 -6.029003e-11 -2.482324e-11) (-1.551020e-11 -2.530551e-11 9.628436e-12)) ((-3.591716e-12 -6.113493e-15 7.598778e-15) (-2.963362e-08 -2.066142e-13 2.357402e-13))
1137.50213    	((3.860341e-11 -6.247854e-11 -3.157473e-11) (-1.503885e-11 -2.317012e-11 1.112568e-11)) ((-3.554731e-12 -5.969472e-15 7.263210e-15) (-2.936609e-08 -8.452672e-14 1.136896e-13))
1239.281686   	((3.708616e-11 -6.396799e-11 -3.492132e-11) (-1.293819e-11 -2.149238e-11 1.158829e-11)) ((-3.523478e-12 -5.797649e-15 6.866718e-15) (-2.914585e-08 1.250895e-14 2.976742e-14))
1341.057116   	((2.442477e-11 -6.232405e-11 -3.631356e-11) (-1.211810e-11 -2.068028e-11 1.153365e-11)) ((-3.497400e-12 -5.638786e-15 6.757230e-15) (-2.896407e-08 7.469786e-14 -1.951739e-14))
1442.82778    	((1.711668e-11 -6.437595e-11 -3.952925e-11) (-1.130398e-11 -1.959389e-11 1.197837e-11)) ((-3.476328e-12 -5.307714e-15 6.681536e-15) (-2.881391e-08 1.003769e-13 -4.539558e-14))
1544.596345   	((1.842138e-11 -6.651861e-11 -4.261623e-11) (-1.057684e-11 -1.923120e-11 1.208216e-11)) ((-3.458829e-12 -4.962391e-15 6.697807e-15) (-2.868955e-08 1.007171e-13 -5.486750e-14))
1646.365252   	((2.033644e-11 -6.836683e-11 -4.413852e-11) (-1.102808e-11 -1.884594e-11 1.254648e-11)) ((-3.443986e-12 -5.181824e-15 6.697714e-15) (-2.858639e-08 1.011346e-13 -5.135746e-14))
1748.136772   	((1.975070e-11 -6.896741e-11 -4.400691e-11) (-1.105173e-11 -1.850799e-11 1.379105e-11)) ((-3.432073e-12 -5.412502e-15 6.627722e-15) (-2.850061e-08 1.080527e-13 -3.227432e-14))
1849.913041   	((1.994775e-11 -6.999845e-11 -4.420664e-11) (-1.048290e-11 -1.879483e-11 1.530862e-11)) ((-3.422585e-12 -5.507508e-15 6.566714e-15) (-2.842918e-08 1.249801e-13 -2.334517e-14))
1951.695977   	((1.805920e-11 -7.044321e-11 -4.380884e-11) (-8.821074e-12 -1.898025e-11 1.689840e-11)) ((-3.415082e-12 -5.487659e-15 6.534042e-15) (-2.836958e-08 1.493431e-13 -3.022849e-14))
2053.48724    	((1.338131e-11 -7.000599e-11 -4.287057e-11) (-7.456679e-12 -1.910319e-11 1.839471e-11)) ((-3.408839e-12 -5.412347e-15 6.493559e-15) (-2.831983e-08 1.758151e-13 -4.563881e-14))
2155.287703   	((1.423689e-11 -6.897425e-11 -4.250502e-11) (-6.520018e-12 -1.905331e-11 1.974294e-11)) ((-3.403775e-12 -5.364125e-15 6.466839e-15) (-2.827829e-08 1.990787e-13 -6.471878e-14))
2257.093987   	((1.531024e-11 -6.807008e-11 -4.186039e-11) (-5.690607e-12 -1.865662e-11 2.116213e-11)) ((-3.399540e-12 -5.305107e-15 6.419732e-15) (-2.824356e-08 2.230793e-13 -8.589866e-14))
2358.906946   	((1.896164e-11 -6.765168e-11 -4.087079e-11) (-5.205604e-12 -1.806693e-11 2.247585e-11)) ((-3.396236e-12 -5.260268e-15 6.393325e-15) (-2.821450e-08 2.456236e-13 -1.063033e-13))
