# Forces      
# CofR        : (0.000000e+00 0.000000e+00 0.000000e+00)
# Time        forces(pressure viscous)	moments(pressure viscous)
0             	((0.000000e+00 0.000000e+00 0.000000e+00) (-5.021792e-12 -3.987704e-12 7.981996e-02)) ((0.000000e+00 0.000000e+00 0.000000e+00) (1.728282e-13 2.683863e-08 -1.446897e-13))
0.0075768     	((3.633246e-03 3.286281e-03 3.691774e+01) (-2.266999e-05 -2.303110e-05 2.245025e-01)) ((1.132479e-08 1.237012e-05 -5.868628e-09) (-5.187104e-07 6.977548e-07 5.532610e-09))
0.016669      	((-6.782332e-03 -5.153744e-03 -1.752708e+01) (-5.376817e-05 -2.951868e-05 2.080438e-01)) ((2.996318e-07 -2.130655e-06 -1.989320e-08) (-1.277579e-06 3.250718e-06 2.892406e-09))
0.0275795     	((-2.314905e-03 7.216909e-04 3.945413e+00) (-8.173002e-05 -4.532141e-06 1.706645e-01)) ((-2.646413e-07 2.472626e-06 7.670421e-10) (-6.869196e-07 2.618222e-06 -7.934123e-10))
0.0405888     	((-3.660079e-03 -1.504736e-03 -1.508274e+00) (-4.965070e-05 1.898300e-06 1.585837e-01)) ((1.427787e-07 7.492101e-07 -9.604440e-10) (-4.937381e-07 1.204389e-07 1.475795e-08))
0.0557069     	((5.408399e-04 7.812543e-04 1.077477e+00) (2.354390e-06 -4.031963e-06 1.508183e-01)) ((-4.981349e-08 1.886066e-06 -5.420819e-09) (-3.966387e-07 7.892215e-07 2.325169e-08))
0.0729217     	((2.580185e-04 -3.086290e-04 -9.602457e-02) (6.120080e-05 -3.404145e-06 1.483018e-01)) ((2.580017e-08 1.763137e-06 1.645237e-09) (2.084823e-08 1.693912e-06 1.395656e-08))
0.0922169     	((9.741912e-04 7.357079e-05 4.735716e-01) (8.546389e-05 -2.232284e-06 1.462550e-01)) ((-2.381927e-08 1.937536e-06 -2.012211e-10) (1.223149e-07 2.753452e-06 2.904955e-09))
0.112846      	((-1.350298e-04 -4.252480e-04 2.357923e-01) (7.241052e-05 -1.993295e-06 1.452208e-01)) ((2.186713e-08 1.787462e-06 -5.155095e-10) (2.404380e-07 3.126612e-06 -4.283806e-09))
0.133493      	((-1.116209e-03 -3.901986e-04 3.954345e-01) (6.630702e-05 -2.219540e-06 1.447881e-01)) ((1.333410e-08 2.013997e-06 1.224154e-09) (3.033001e-07 3.005443e-06 -8.736344e-09))
0.154082      	((-1.549209e-03 -6.984815e-04 3.581307e-01) (6.879697e-05 -2.777729e-06 1.447132e-01)) ((1.712090e-08 1.915745e-06 4.820088e-10) (2.982524e-07 3.157011e-06 -7.816012e-09))
0.174563      	((-1.987921e-03 -9.016269e-04 4.199174e-01) (7.620125e-05 -4.285931e-06 1.446278e-01)) ((1.588869e-08 2.076579e-06 -2.470245e-09) (2.759863e-07 3.156177e-06 -8.045628e-09))
0.194904      	((-2.232562e-03 -1.064587e-03 4.257138e-01) (8.114069e-05 -4.890434e-06 1.444129e-01)) ((2.626314e-08 2.022211e-06 -1.281959e-09) (2.437793e-07 3.202275e-06 -9.656254e-09))
0.215152      	((-3.111325e-03 -1.231404e-03 4.504357e-01) (8.036016e-05 -5.053176e-06 1.439465e-01)) ((2.722405e-08 2.070187e-06 -1.317957e-09) (1.694440e-07 3.409175e-06 -1.069411e-08))
0.235339      	((-3.652376e-03 -1.420700e-03 4.561459e-01) (8.230445e-05 -4.345602e-06 1.432879e-01)) ((3.171114e-08 2.026357e-06 6.126099e-10) (5.024992e-08 3.582171e-06 -1.331435e-08))
0.255543      	((-4.690139e-03 -1.626892e-03 4.625051e-01) (7.969809e-05 -2.932531e-06 1.425526e-01)) ((3.709575e-08 2.007093e-06 2.712810e-09) (-4.232381e-08 3.750677e-06 -1.528296e-08))
0.275801      	((-5.698470e-03 -1.881832e-03 4.619105e-01) (7.594023e-05 -3.679161e-06 1.418570e-01)) ((4.208399e-08 1.924854e-06 3.208257e-09) (-8.619644e-08 3.924169e-06 -1.288011e-08))
0.296109      	((-6.823244e-03 -2.191280e-03 4.628010e-01) (7.122203e-05 -5.287849e-06 1.412365e-01)) ((4.313075e-08 1.882788e-06 2.315881e-09) (-1.320572e-07 4.063786e-06 -8.938682e-09))
0.316441      	((-7.983796e-03 -2.516273e-03 4.608777e-01) (6.676756e-05 -5.711745e-06 1.406768e-01)) ((4.934121e-08 1.828169e-06 3.936020e-09) (-2.142092e-07 4.320057e-06 -7.258668e-09))
0.33678       	((-9.419328e-03 -2.913219e-03 4.582994e-01) (6.185992e-05 -5.642167e-06 1.401675e-01)) ((6.008246e-08 1.776954e-06 4.520382e-09) (-3.425225e-07 4.672697e-06 -7.575268e-09))
0.357127      	((-1.099172e-02 -3.359020e-03 4.562877e-01) (5.705090e-05 -5.975679e-06 1.397007e-01)) ((6.998196e-08 1.707865e-06 5.284777e-09) (-4.882863e-07 5.064458e-06 -7.441911e-09))
0.377489      	((-1.289695e-02 -3.913032e-03 4.539700e-01) (5.220055e-05 -6.802678e-06 1.392715e-01)) ((7.776761e-08 1.660289e-06 5.575374e-09) (-6.281645e-07 5.496083e-06 -7.779275e-09))
0.397869      	((-1.501737e-02 -4.517418e-03 4.519818e-01) (4.589118e-05 -7.904664e-06 1.388750e-01)) ((8.492839e-08 1.602387e-06 7.119871e-09) (-7.650332e-07 6.008734e-06 -7.385802e-09))
0.418264      	((-1.746900e-02 -5.231522e-03 4.507865e-01) (3.928548e-05 -9.465105e-06 1.385089e-01)) ((9.208641e-08 1.549792e-06 8.184911e-09) (-9.271662e-07 6.668602e-06 -7.592609e-09))
0.438671      	((-2.043109e-02 -6.110669e-03 4.498574e-01) (3.349677e-05 -1.155128e-05 1.381730e-01)) ((9.998741e-08 1.496912e-06 7.241805e-09) (-1.128038e-06 7.525845e-06 -8.229822e-09))
0.45909       	((-2.386225e-02 -7.106555e-03 4.493747e-01) (2.727872e-05 -1.375065e-05 1.378692e-01)) ((1.090170e-07 1.445973e-06 6.352556e-09) (-1.380540e-06 8.566207e-06 -7.292576e-09))
0.479516      	((-2.783454e-02 -8.299291e-03 4.489296e-01) (1.978513e-05 -1.600349e-05 1.375961e-01)) ((1.202434e-07 1.388461e-06 6.744271e-09) (-1.691760e-06 9.765299e-06 -4.767637e-09))
0.499948      	((-3.227640e-02 -9.608156e-03 4.480504e-01) (1.153541e-05 -1.831464e-05 1.373490e-01)) ((1.337701e-07 1.330973e-06 6.936591e-09) (-2.063281e-06 1.109745e-05 -4.406137e-09))
0.520385      	((-3.734953e-02 -1.106858e-02 4.468470e-01) (1.042207e-06 -2.077578e-05 1.371218e-01)) ((1.460329e-07 1.262130e-06 7.573481e-09) (-2.495304e-06 1.253862e-05 -2.911614e-09))
0.540828      	((-4.302437e-02 -1.275692e-02 4.453086e-01) (-1.237355e-05 -2.378596e-05 1.369101e-01)) ((1.627380e-07 1.190359e-06 7.348622e-09) (-2.977132e-06 1.413093e-05 -2.161697e-09))
0.561277      	((-4.944974e-02 -1.465461e-02 4.438156e-01) (-2.816919e-05 -2.758475e-05 1.367109e-01)) ((1.798338e-07 1.106249e-06 8.558811e-09) (-3.517321e-06 1.591756e-05 -9.671335e-10))
0.581731      	((-5.685355e-02 -1.679961e-02 4.424614e-01) (-4.631132e-05 -3.203554e-05 1.365236e-01)) ((1.993225e-07 1.010673e-06 9.877723e-09) (-4.133374e-06 1.792960e-05 3.558345e-09))
0.602191      	((-6.522821e-02 -1.927110e-02 4.413584e-01) (-6.667318e-05 -3.703802e-05 1.363484e-01)) ((2.231628e-07 9.061782e-07 1.273416e-08) (-4.841631e-06 2.021036e-05 1.172788e-08))
0.622657      	((-7.480275e-02 -2.209099e-02 4.404196e-01) (-8.874301e-05 -4.255842e-05 1.361856e-01)) ((2.499473e-07 7.876605e-07 1.516760e-08) (-5.652893e-06 2.282703e-05 1.871133e-08))
0.643128      	((-8.566510e-02 -2.529079e-02 4.397151e-01) (-1.124691e-04 -4.866969e-05 1.360351e-01)) ((2.806931e-07 6.610874e-07 1.613583e-08) (-6.578196e-06 2.584210e-05 2.229412e-08))
0.663603      	((-9.793123e-02 -2.891479e-02 4.392448e-01) (-1.384890e-04 -5.559411e-05 1.358970e-01)) ((3.153434e-07 5.283533e-07 1.715720e-08) (-7.629372e-06 2.928058e-05 1.677304e-08))
0.684082      	((-1.118380e-01 -3.302692e-02 4.389042e-01) (-1.681589e-04 -6.346241e-05 1.357715e-01)) ((3.519770e-07 3.862254e-07 1.978875e-08) (-8.828970e-06 3.315344e-05 5.948272e-09))
0.704563      	((-1.276444e-01 -3.774957e-02 4.387066e-01) (-2.025866e-04 -7.230820e-05 1.356590e-01)) ((3.932492e-07 2.272079e-07 2.305645e-08) (-1.019830e-05 3.746354e-05 -2.903267e-10))
0.725042      	((-1.456748e-01 -4.309916e-02 4.386499e-01) (-2.428523e-04 -8.271469e-05 1.355601e-01)) ((4.452109e-07 5.059053e-08 2.421080e-08) (-1.172391e-05 4.226302e-05 -1.583358e-09))
0.745517      	((-1.661668e-01 -4.917122e-02 4.389208e-01) (-2.894836e-04 -9.543182e-05 1.354757e-01)) ((5.067045e-07 -1.430687e-07 2.553663e-08) (-1.340383e-05 4.766797e-05 -3.112172e-09))
0.765988      	((-1.893489e-01 -5.595900e-02 4.395773e-01) (-3.426560e-04 -1.103668e-04 1.354060e-01)) ((5.737831e-07 -3.619825e-07 2.969714e-08) (-1.527096e-05 5.380393e-05 2.402958e-09))
0.786454      	((-2.152355e-01 -6.361962e-02 4.407664e-01) (-4.027386e-04 -1.274139e-04 1.353523e-01)) ((6.501140e-07 -6.016511e-07 3.529907e-08) (-1.736170e-05 6.075895e-05 1.317618e-08))
0.806914      	((-2.441147e-01 -7.228701e-02 4.423316e-01) (-4.702822e-04 -1.464605e-04 1.353160e-01)) ((7.371112e-07 -8.636929e-07 4.152346e-08) (-1.971681e-05 6.859403e-05 2.381698e-08))
0.827366      	((-2.763548e-01 -8.209006e-02 4.446402e-01) (-5.467214e-04 -1.676154e-04 1.352978e-01)) ((8.424461e-07 -1.150505e-06 5.147598e-08) (-2.238889e-05 7.735665e-05 4.484150e-08))
0.847803      	((-3.121823e-01 -9.296028e-02 4.478853e-01) (-6.336475e-04 -1.917905e-04 1.352990e-01)) ((9.635323e-07 -1.472577e-06 6.433686e-08) (-2.540214e-05 8.714396e-05 7.303063e-08))
0.868224      	((-3.518025e-01 -1.050838e-01 4.522236e-01) (-7.326426e-04 -2.196176e-04 1.353227e-01)) ((1.103957e-06 -1.834482e-06 8.594862e-08) (-2.875755e-05 9.802494e-05 9.730393e-08))
0.888627      	((-3.952045e-01 -1.184380e-01 4.578573e-01) (-8.462291e-04 -2.509302e-04 1.353722e-01)) ((1.245515e-06 -2.219204e-06 1.115559e-07) (-3.249020e-05 1.100034e-04 1.247332e-07))
0.909009      	((-4.425970e-01 -1.329073e-01 4.652267e-01) (-9.770347e-04 -2.860874e-04 1.354516e-01)) ((1.385731e-06 -2.638093e-06 1.297428e-07) (-3.663377e-05 1.230634e-04 1.603342e-07))
0.929367      	((-4.940841e-01 -1.486796e-01 4.740032e-01) (-1.127386e-03 -3.255909e-04 1.355629e-01)) ((1.536793e-06 -3.108715e-06 1.488251e-07) (-4.121803e-05 1.371918e-04 2.031725e-07))
0.949698      	((-5.491045e-01 -1.657619e-01 4.856964e-01) (-1.297503e-03 -3.715238e-04 1.357091e-01)) ((1.692208e-06 -3.618852e-06 1.754617e-07) (-4.615570e-05 1.523936e-04 2.138786e-07))
0.970001      	((-6.072721e-01 -1.837566e-01 4.998322e-01) (-1.485753e-03 -4.261861e-04 1.358925e-01)) ((1.849848e-06 -4.149321e-06 2.159772e-07) (-5.134482e-05 1.687694e-04 1.453268e-07))
0.990274      	((-6.670104e-01 -2.024773e-01 5.174230e-01) (-1.693089e-03 -4.917753e-04 1.361119e-01)) ((2.001392e-06 -4.644450e-06 2.651856e-07) (-5.667946e-05 1.862007e-04 1.392429e-08))
1.010514      	((-7.268012e-01 -2.209565e-01 5.389344e-01) (-1.915628e-03 -5.651466e-04 1.363731e-01)) ((2.142646e-06 -5.088001e-06 3.011364e-07) (-6.225107e-05 2.045468e-04 -1.402634e-07))
1.030719      	((-7.844361e-01 -2.383855e-01 5.643751e-01) (-2.147569e-03 -6.438781e-04 1.366788e-01)) ((2.268828e-06 -5.450942e-06 3.248410e-07) (-6.794859e-05 2.236829e-04 -3.138813e-07))
1.050889      	((-8.374584e-01 -2.536242e-01 5.909142e-01) (-2.378894e-03 -7.261655e-04 1.370277e-01)) ((2.354572e-06 -5.706046e-06 3.235887e-07) (-7.344231e-05 2.433312e-04 -5.474452e-07))
1.071022      	((-8.821125e-01 -2.660368e-01 6.206651e-01) (-2.601510e-03 -8.099163e-04 1.374201e-01)) ((2.389150e-06 -5.832341e-06 3.136996e-07) (-7.842618e-05 2.627952e-04 -8.463238e-07))
1.09112       	((-9.156430e-01 -2.747743e-01 6.501785e-01) (-2.812559e-03 -8.936805e-04 1.378524e-01)) ((2.371499e-06 -5.789196e-06 3.327217e-07) (-8.257797e-05 2.810803e-04 -1.162200e-06))
1.111186      	((-9.344155e-01 -2.784082e-01 6.770065e-01) (-3.015500e-03 -9.753200e-04 1.383159e-01)) ((2.316511e-06 -5.593703e-06 3.593496e-07) (-8.570231e-05 2.967618e-04 -1.501771e-06))
1.131222      	((-9.365608e-01 -2.767312e-01 6.992699e-01) (-3.197426e-03 -1.046103e-03 1.387957e-01)) ((2.265028e-06 -5.360186e-06 3.455412e-07) (-8.776079e-05 3.089650e-04 -1.874652e-06))
1.151234      	((-9.224172e-01 -2.689204e-01 7.146168e-01) (-3.321853e-03 -1.090324e-03 1.392718e-01)) ((2.219343e-06 -5.084818e-06 3.087581e-07) (-8.891227e-05 3.180291e-04 -2.253212e-06))
1.171224      	((-8.915330e-01 -2.555928e-01 7.235564e-01) (-3.354003e-03 -1.098268e-03 1.397165e-01)) ((2.130342e-06 -4.682546e-06 2.633463e-07) (-8.927661e-05 3.247430e-04 -2.551856e-06))
1.191198      	((-8.481190e-01 -2.386212e-01 7.242716e-01) (-3.277441e-03 -1.067997e-03 1.401128e-01)) ((1.989812e-06 -4.097587e-06 2.023841e-07) (-8.897120e-05 3.294553e-04 -2.723536e-06))
1.211159      	((-7.970730e-01 -2.209342e-01 7.164753e-01) (-3.090951e-03 -1.003428e-03 1.404517e-01)) ((1.846288e-06 -3.384275e-06 1.467977e-07) (-8.814223e-05 3.323145e-04 -2.834678e-06))
1.231115      	((-7.450764e-01 -2.050294e-01 7.062172e-01) (-2.812189e-03 -9.144117e-04 1.407402e-01)) ((1.790035e-06 -2.535884e-06 6.688064e-08) (-8.685764e-05 3.333399e-04 -3.007935e-06))
1.251071      	((-7.016252e-01 -1.927620e-01 6.941738e-01) (-2.479412e-03 -8.108939e-04 1.409851e-01)) ((1.756364e-06 -1.619093e-06 1.030925e-08) (-8.540505e-05 3.328601e-04 -3.365404e-06))
1.271032      	((-6.718367e-01 -1.845528e-01 6.817042e-01) (-2.141054e-03 -7.022312e-04 1.412011e-01)) ((1.731766e-06 -8.317729e-07 -9.959825e-09) (-8.402394e-05 3.310762e-04 -3.980206e-06))
1.291001      	((-6.565841e-01 -1.816564e-01 6.688901e-01) (-1.843635e-03 -6.015323e-04 1.413936e-01)) ((1.663108e-06 -2.585803e-07 1.006048e-08) (-8.277639e-05 3.282419e-04 -4.702494e-06))
1.31098       	((-6.559387e-01 -1.826436e-01 6.582120e-01) (-1.625208e-03 -5.225799e-04 1.415639e-01)) ((1.525178e-06 1.239483e-07 1.089774e-07) (-8.148390e-05 3.246051e-04 -5.342189e-06))
1.330969      	((-6.641442e-01 -1.870173e-01 6.489223e-01) (-1.508652e-03 -4.724740e-04 1.417079e-01)) ((1.492372e-06 1.982360e-07 1.982401e-07) (-8.026662e-05 3.203151e-04 -5.902623e-06))
1.350968      	((-6.760275e-01 -1.922453e-01 6.406193e-01) (-1.505590e-03 -4.573776e-04 1.418355e-01)) ((1.687775e-06 -3.341952e-07 2.669881e-07) (-7.902388e-05 3.147872e-04 -6.617391e-06))
1.370973      	((-6.872362e-01 -1.964379e-01 6.317537e-01) (-1.600590e-03 -4.741263e-04 1.419443e-01)) ((1.980750e-06 -1.262393e-06 3.447490e-07) (-7.766036e-05 3.080229e-04 -7.494695e-06))
1.390984      	((-6.912132e-01 -1.987469e-01 6.235235e-01) (-1.723326e-03 -5.016944e-04 1.420118e-01)) ((2.112757e-06 -2.070752e-06 4.764162e-07) (-7.652902e-05 3.021865e-04 -8.371342e-06))
1.410996      	((-6.846976e-01 -1.982683e-01 6.173022e-01) (-1.804832e-03 -5.268038e-04 1.420452e-01)) ((2.059828e-06 -2.649863e-06 5.999044e-07) (-7.554476e-05 2.984033e-04 -9.266192e-06))
1.43101       	((-6.682823e-01 -1.941937e-01 6.154815e-01) (-1.817551e-03 -5.452142e-04 1.420694e-01)) ((2.024575e-06 -2.931839e-06 6.119553e-07) (-7.433677e-05 2.960752e-04 -1.011219e-05))
1.451024      	((-6.453940e-01 -1.881261e-01 6.148858e-01) (-1.769494e-03 -5.466147e-04 1.420867e-01)) ((2.098588e-06 -3.010559e-06 4.793672e-07) (-7.308835e-05 2.942710e-04 -1.065068e-05))
1.471038      	((-6.173692e-01 -1.799901e-01 6.153904e-01) (-1.669761e-03 -5.260556e-04 1.420918e-01)) ((2.259989e-06 -3.058983e-06 2.666575e-07) (-7.205391e-05 2.925383e-04 -1.083601e-05))
1.491053      	((-5.884156e-01 -1.708284e-01 6.148861e-01) (-1.538018e-03 -4.830546e-04 1.420884e-01)) ((2.365717e-06 -2.928836e-06 6.093536e-08) (-7.136487e-05 2.902189e-04 -1.075651e-05))
1.511071      	((-5.630624e-01 -1.624506e-01 6.135654e-01) (-1.374485e-03 -4.185698e-04 1.420805e-01)) ((2.323018e-06 -2.374484e-06 -8.803494e-08) (-7.118837e-05 2.877345e-04 -1.066627e-05))
1.531093      	((-5.435479e-01 -1.567572e-01 6.143545e-01) (-1.165095e-03 -3.488302e-04 1.420651e-01)) ((2.162948e-06 -1.506078e-06 -1.606987e-07) (-7.130291e-05 2.865710e-04 -1.092239e-05))
1.551121      	((-5.341453e-01 -1.529661e-01 6.152729e-01) (-9.383535e-04 -2.809157e-04 1.420384e-01)) ((1.947778e-06 -7.328447e-07 -1.813533e-07) (-7.166829e-05 2.869546e-04 -1.126386e-05))
1.571156      	((-5.366950e-01 -1.523281e-01 6.135412e-01) (-7.306668e-04 -2.103023e-04 1.420048e-01)) ((1.785249e-06 -1.366935e-07 -1.895789e-07) (-7.263696e-05 2.883726e-04 -1.113309e-05))
1.591198      	((-5.481765e-01 -1.556758e-01 6.088763e-01) (-5.564876e-04 -1.517090e-04 1.419528e-01)) ((1.600173e-06 1.097036e-07 -5.696732e-08) (-7.384138e-05 2.912538e-04 -1.049266e-05))
1.611248      	((-5.654573e-01 -1.615618e-01 6.012093e-01) (-4.677458e-04 -1.260917e-04 1.418919e-01)) ((1.444185e-06 -7.453470e-08 1.629975e-07) (-7.453767e-05 2.933976e-04 -9.578551e-06))
1.631303      	((-5.834167e-01 -1.686980e-01 5.923142e-01) (-5.160688e-04 -1.384649e-04 1.418473e-01)) ((1.338957e-06 -4.530500e-07 4.162054e-07) (-7.447248e-05 2.916707e-04 -8.656473e-06))
1.651363      	((-5.976379e-01 -1.753117e-01 5.857724e-01) (-6.661730e-04 -1.900914e-04 1.418179e-01)) ((1.258501e-06 -8.753665e-07 6.491177e-07) (-7.345269e-05 2.869683e-04 -8.157224e-06))
1.671425      	((-6.048023e-01 -1.798766e-01 5.843932e-01) (-8.448388e-04 -2.633819e-04 1.417962e-01)) ((1.251682e-06 -1.210286e-06 7.667877e-07) (-7.179325e-05 2.818062e-04 -7.927292e-06))
1.691488      	((-6.040789e-01 -1.814516e-01 5.891116e-01) (-9.912701e-04 -3.306796e-04 1.417759e-01)) ((1.357335e-06 -1.496749e-06 7.196726e-07) (-7.016943e-05 2.780737e-04 -7.527292e-06))
1.71155       	((-5.986431e-01 -1.818901e-01 5.949746e-01) (-1.071113e-03 -3.772003e-04 1.417480e-01)) ((1.564742e-06 -1.700464e-06 5.706675e-07) (-6.899982e-05 2.767243e-04 -7.010253e-06))
1.731611      	((-5.886754e-01 -1.788872e-01 6.033430e-01) (-1.082452e-03 -3.962643e-04 1.417151e-01)) ((1.775133e-06 -1.777316e-06 3.712009e-07) (-6.848296e-05 2.774644e-04 -6.647084e-06))
1.751669      	((-5.759494e-01 -1.730078e-01 6.097722e-01) (-1.027990e-03 -3.896642e-04 1.416872e-01)) ((1.918603e-06 -1.800417e-06 2.037833e-07) (-6.835968e-05 2.796088e-04 -6.669375e-06))
1.771726      	((-5.601163e-01 -1.657869e-01 6.145437e-01) (-9.166006e-04 -3.677930e-04 1.416690e-01)) ((2.043264e-06 -1.714240e-06 6.698137e-08) (-6.812334e-05 2.824909e-04 -7.296251e-06))
1.791782      	((-5.427267e-01 -1.579081e-01 6.157849e-01) (-7.772137e-04 -3.357095e-04 1.416640e-01)) ((2.030046e-06 -1.334640e-06 -1.119026e-08) (-6.768651e-05 2.847975e-04 -8.379901e-06))
