# Forces      
# CofR        : (0.000000e+00 0.000000e+00 0.000000e+00)
# Time        forces(pressure viscous)	moments(pressure viscous)
0             	((0.000000e+00 0.000000e+00 0.000000e+00) (5.040040e-04 -7.130610e-14 3.522636e-14)) ((0.000000e+00 0.000000e+00 0.000000e+00) (-9.967588e-16 -7.603121e-15 1.067284e-14))
0.012         	((1.466004e-01 -5.758976e-08 -2.743881e-08) (5.776609e-04 -4.601107e-10 -2.705337e-10)) ((-1.774892e-14 -5.395065e-11 -1.976596e-11) (5.434671e-14 3.917641e-12 7.692298e-12))
0.0264        	((-1.173428e-02 -1.244856e-06 -3.482880e-06) (5.876947e-04 -1.658333e-09 -2.852330e-09)) ((3.119078e-11 7.147614e-11 1.546412e-11) (2.563612e-13 1.400759e-11 1.465936e-11))
0.04368       	((-2.982337e-02 4.176135e-07 2.661360e-06) (5.206762e-04 -1.728273e-09 -2.027571e-09)) ((-2.272586e-11 8.630675e-11 1.062380e-10) (1.192092e-12 3.376965e-11 7.489953e-12))
0.064416      	((-2.770635e-04 1.967845e-07 -5.386938e-07) (4.604882e-04 7.899391e-09 6.761944e-09)) ((2.183554e-12 -5.379957e-11 -3.960605e-11) (5.467808e-12 5.154996e-12 4.468486e-11))
0.0892992     	((2.447428e-04 -9.850593e-08 3.220979e-07) (4.247011e-04 1.143915e-08 9.221500e-09)) ((1.130176e-11 -4.664266e-12 -2.363383e-11) (2.159372e-12 1.757363e-11 2.688407e-11))
0.119159      	((-5.021899e-04 5.682187e-07 3.257153e-07) (3.920778e-04 8.022432e-09 6.389700e-09)) ((-5.441725e-12 -1.319438e-11 -9.249578e-12) (3.884162e-12 1.098943e-10 -3.613404e-11))
0.154991      	((-2.368913e-04 -7.386526e-08 1.412990e-07) (3.580283e-04 5.640143e-09 4.174105e-09)) ((9.991127e-13 -2.080082e-12 -6.276442e-12) (9.470964e-12 8.298380e-11 9.331196e-12))
0.197989      	((-5.124857e-05 -1.271539e-09 -3.962137e-08) (3.244576e-04 1.726177e-09 1.677209e-09)) ((-1.075021e-12 -3.864367e-12 1.004633e-12) (9.150898e-12 1.664528e-11 8.286701e-11))
0.249587      	((1.393059e-05 -1.049348e-08 -3.196970e-09) (2.924437e-04 -7.042859e-10 3.369825e-10)) ((-8.571520e-13 -1.041581e-11 2.959336e-13) (9.144221e-12 1.642157e-11 9.853407e-11))
0.311504      	((4.594534e-05 -1.684371e-08 -2.405522e-08) (2.628434e-04 -1.906345e-09 -3.238616e-10)) ((-9.927846e-13 -3.648043e-12 -2.460746e-13) (9.712410e-12 2.845037e-11 8.864134e-11))
0.385805      	((6.351706e-05 -2.550934e-08 -2.927858e-08) (2.362774e-04 -2.360806e-09 -4.548322e-10)) ((-8.782266e-14 -2.050976e-12 3.157970e-14) (9.544900e-12 4.471570e-11 8.147653e-11))
0.474966      	((7.218175e-05 -2.217186e-08 -2.494175e-08) (2.129899e-04 -2.146226e-09 -4.788678e-10)) ((-1.843929e-13 -1.331080e-12 -6.635966e-13) (8.477393e-12 4.480704e-11 7.159904e-11))
0.581959      	((7.572642e-05 -2.064814e-08 -2.079875e-08) (1.925462e-04 -1.819554e-09 -4.337708e-10)) ((2.499277e-13 -9.373972e-13 -4.811775e-13) (7.399207e-12 3.398931e-11 5.801048e-11))
0.710351      	((7.561321e-05 -1.567874e-08 -1.572158e-08) (1.741495e-04 -1.586683e-09 -4.834434e-10)) ((3.553831e-13 -6.278414e-13 -3.275559e-13) (6.410831e-12 1.103077e-11 5.127664e-11))
0.864421      	((7.303604e-05 -1.245541e-08 -1.048412e-08) (1.573347e-04 -1.434330e-09 -5.789317e-10)) ((2.689252e-13 -4.966496e-13 -2.963939e-13) (5.698537e-12 -5.088607e-12 4.380058e-11))
1.049306      	((6.906592e-05 -1.052759e-08 -1.239890e-08) (1.420020e-04 -1.404272e-09 -7.635825e-10)) ((1.462010e-13 -4.019179e-13 -2.279372e-13) (5.201003e-12 -1.487225e-11 3.658184e-11))
1.271167      	((6.442666e-05 -7.447395e-09 -8.614178e-09) (1.281385e-04 -1.369256e-09 -9.821973e-10)) ((1.917699e-14 -1.635549e-13 -1.358124e-13) (4.572518e-12 -1.672337e-11 3.126135e-11))
1.5374        	((5.972408e-05 -4.086055e-09 -6.670468e-09) (1.157097e-04 -1.331919e-09 -1.135750e-09)) ((-1.019890e-13 -1.232983e-13 -6.359707e-14) (3.666661e-12 -1.268380e-11 2.584989e-11))
1.85688       	((5.541264e-05 -5.408699e-09 -4.932316e-09) (1.046581e-04 -1.405149e-09 -1.145220e-09)) ((-7.044697e-14 -1.208122e-13 -9.635894e-14) (3.327107e-12 -4.595195e-12 1.683278e-11))
2.240256      	((5.165869e-05 -5.085324e-09 -4.864733e-09) (9.489687e-05 -1.377096e-09 -1.058640e-09)) ((-4.705095e-14 -1.640028e-13 -6.186914e-14) (4.017497e-12 9.040535e-12 1.497066e-13))
2.700307      	((4.855553e-05 -7.381092e-09 -8.233316e-09) (8.630259e-05 -1.274709e-09 -9.968070e-10)) ((-1.288158e-14 -4.166009e-13 -6.725666e-14) (4.927570e-12 2.947786e-11 -2.299830e-11))
3.252369      	((4.611315e-05 -1.392909e-08 -1.260333e-08) (7.874108e-05 -1.273572e-09 -1.000214e-09)) ((-1.092495e-14 -6.280126e-13 -8.108050e-14) (5.516733e-12 5.407270e-11 -4.645335e-11))
3.914842      	((4.441314e-05 -1.923003e-08 -1.957455e-08) (7.210720e-05 -1.282928e-09 -1.068561e-09)) ((-5.745879e-14 -7.916647e-13 -1.268669e-13) (5.589417e-12 8.046521e-11 -6.951613e-11))
4.709811      	((4.346119e-05 -2.273727e-08 -2.285601e-08) (6.633006e-05 -1.285081e-09 -1.122758e-09)) ((-2.887758e-14 -7.377221e-13 -1.971782e-13) (5.146998e-12 9.620709e-11 -8.565976e-11))
5.663773      	((4.332038e-05 -2.532728e-08 -2.681945e-08) (6.134513e-05 -1.330099e-09 -1.254081e-09)) ((3.977939e-14 -8.759726e-13 -2.370823e-13) (4.864315e-12 8.536070e-11 -8.133878e-11))
6.808528      	((4.407017e-05 -2.774574e-08 -2.767002e-08) (5.707762e-05 -1.486573e-09 -1.394633e-09)) ((2.288385e-14 -7.646682e-13 -2.109343e-13) (4.487142e-12 5.338018e-11 -5.452103e-11))
8.182233      	((4.570043e-05 -2.600181e-08 -2.413550e-08) (5.344614e-05 -1.564698e-09 -1.354085e-09)) ((5.800757e-14 -6.886560e-13 -2.259547e-13) (4.124862e-12 1.613775e-11 -1.555699e-11))
9.83068       	((4.815646e-05 -2.274294e-08 -2.362366e-08) (5.038745e-05 -1.714005e-09 -1.541513e-09)) ((1.085969e-13 -7.101956e-13 -2.385593e-13) (4.230238e-12 -1.666173e-11 2.085641e-11))
11.808816     	((5.137547e-05 -1.637291e-08 -1.535268e-08) (4.783872e-05 -1.618933e-09 -1.454793e-09)) ((1.384034e-13 -5.083861e-13 -3.128717e-13) (4.087502e-12 -4.974385e-11 5.467645e-11))
14.182579     	((5.526149e-05 -5.351523e-09 -5.585220e-09) (4.573292e-05 -9.609123e-10 -7.670214e-10)) ((5.875838e-14 -2.127946e-13 -3.359150e-13) (3.650412e-12 -7.564600e-11 8.308215e-11))
16.954405     	((5.960977e-05 4.306418e-09 4.183544e-09) (4.407198e-05 1.204699e-10 3.078134e-10)) ((-3.253179e-15 -3.780560e-14 -3.246258e-13) (2.799644e-12 -9.828855e-11 1.062986e-10))
20.125331     	((6.407111e-05 1.057806e-08 9.534350e-09) (4.279624e-05 1.264765e-09 1.455230e-09)) ((-1.159205e-13 1.209456e-13 -4.443082e-13) (2.852090e-12 -1.292644e-10 1.351828e-10))
23.695039     	((6.839327e-05 2.029323e-08 1.956062e-08) (4.181091e-05 2.492921e-09 2.577915e-09)) ((-2.768408e-13 4.315477e-13 -5.782968e-13) (3.418940e-12 -1.560070e-10 1.599091e-10))
27.662027     	((7.224353e-05 3.199134e-08 3.143949e-08) (4.101811e-05 3.644227e-09 3.612275e-09)) ((-4.404822e-13 7.146119e-13 -6.882697e-13) (4.006546e-12 -1.591585e-10 1.590675e-10))
31.617292     	((7.539249e-05 3.677421e-08 3.602140e-08) (4.039359e-05 4.173257e-09 4.063709e-09)) ((-7.193828e-13 7.275355e-13 -7.385611e-13) (4.606974e-12 -1.169641e-10 1.176632e-10))
35.561982     	((7.768766e-05 4.170606e-08 4.132374e-08) (3.985771e-05 4.420147e-09 4.163039e-09)) ((-9.885836e-13 7.988766e-13 -7.728318e-13) (4.244705e-12 -5.982210e-11 7.284606e-11))
39.509445     	((7.892277e-05 4.670425e-08 4.633174e-08) (3.936146e-05 4.392821e-09 4.115564e-09)) ((-1.212962e-12 8.667121e-13 -7.466371e-13) (4.543346e-12 1.383417e-11 6.468392e-12))
43.473834     	((7.952203e-05 5.004807e-08 5.125657e-08) (3.890437e-05 4.374141e-09 4.232967e-09)) ((-1.375122e-12 8.390846e-13 -7.134677e-13) (4.258996e-12 8.007097e-11 -6.615276e-11))
47.457645     	((7.963919e-05 4.881147e-08 5.241536e-08) (3.847919e-05 4.197225e-09 4.043397e-09)) ((-1.489526e-12 8.223144e-13 -6.631144e-13) (4.197197e-12 1.433528e-10 -1.235271e-10))
51.457892     	((7.944479e-05 5.201132e-08 5.668891e-08) (3.807925e-05 3.580759e-09 3.686459e-09)) ((-1.574114e-12 8.407176e-13 -6.340837e-13) (4.316020e-12 2.155657e-10 -2.005155e-10))
55.47472      	((7.899037e-05 5.901315e-08 6.455992e-08) (3.770945e-05 3.220775e-09 3.537606e-09)) ((-1.594831e-12 7.237290e-13 -6.013284e-13) (3.875954e-12 2.897874e-10 -2.872659e-10))
59.50865      	((7.850349e-05 6.467873e-08 7.031719e-08) (3.736586e-05 3.029155e-09 3.358812e-09)) ((-1.542918e-12 6.003117e-13 -5.895312e-13) (4.244856e-12 3.613015e-10 -3.629392e-10))
63.559637     	((7.801235e-05 6.785004e-08 7.392547e-08) (3.704874e-05 2.734493e-09 3.147177e-09)) ((-1.460284e-12 5.745624e-13 -5.880109e-13) (4.241849e-12 4.264767e-10 -4.269117e-10))
67.627086     	((7.760512e-05 7.464128e-08 8.213694e-08) (3.675884e-05 2.563697e-09 3.138064e-09)) ((-1.404647e-12 5.717644e-13 -5.663382e-13) (2.780911e-12 4.805355e-10 -4.797740e-10))
71.70981      	((7.726350e-05 7.967947e-08 8.882339e-08) (3.649432e-05 2.636402e-09 3.401707e-09)) ((-1.395229e-12 6.004472e-13 -5.080286e-13) (2.137872e-12 5.253778e-10 -5.211784e-10))
75.806849     	((7.696203e-05 8.839825e-08 9.756683e-08) (3.625225e-05 2.954386e-09 3.875786e-09)) ((-1.405376e-12 6.614179e-13 -4.672820e-13) (1.766244e-12 5.611805e-10 -5.535546e-10))
79.917381     	((7.669103e-05 9.668624e-08 1.066216e-07) (3.603076e-05 3.527562e-09 4.563944e-09)) ((-1.389582e-12 7.386105e-13 -4.251198e-13) (1.976830e-12 5.835662e-10 -5.743464e-10))
84.040676     	((7.641154e-05 1.095983e-07 1.195317e-07) (3.582731e-05 4.541480e-09 5.639876e-09)) ((-1.391977e-12 8.876877e-13 -4.052232e-13) (2.447521e-12 5.910469e-10 -5.800576e-10))
88.176009     	((7.613111e-05 1.221889e-07 1.338470e-07) (3.563962e-05 6.028044e-09 7.219995e-09)) ((-1.414958e-12 1.037003e-12 -4.074645e-13) (2.525230e-12 5.852038e-10 -5.742145e-10))
92.322689     	((7.588305e-05 1.300454e-07 1.441612e-07) (3.546809e-05 7.673670e-09 9.103525e-09)) ((-1.434018e-12 1.120783e-12 -4.251629e-13) (2.280395e-12 5.688828e-10 -5.548212e-10))
96.480248     	((7.563629e-05 1.379335e-07 1.510208e-07) (3.531103e-05 9.288645e-09 1.091759e-08)) ((-1.489616e-12 1.228157e-12 -4.432481e-13) (2.297616e-12 5.427183e-10 -5.279748e-10))
100.648362    	((7.536547e-05 1.468554e-07 1.613159e-07) (3.516516e-05 1.105792e-08 1.283180e-08)) ((-1.585686e-12 1.391965e-12 -4.459188e-13) (2.007559e-12 5.116950e-10 -4.966760e-10))
104.826533    	((7.511252e-05 1.593361e-07 1.749847e-07) (3.502903e-05 1.312093e-08 1.502309e-08)) ((-1.668788e-12 1.534119e-12 -4.151618e-13) (1.425451e-12 4.760374e-10 -4.605605e-10))
109.014244    	((7.487718e-05 1.702945e-07 1.871211e-07) (3.490245e-05 1.531226e-08 1.736994e-08)) ((-1.711299e-12 1.644548e-12 -3.843811e-13) (1.444152e-12 4.375135e-10 -4.240607e-10))
113.211011    	((7.466777e-05 1.791017e-07 1.986760e-07) (3.478575e-05 1.749006e-08 1.973594e-08)) ((-1.723720e-12 1.686355e-12 -3.718884e-13) (1.650503e-12 4.025938e-10 -3.877552e-10))
117.416429    	((7.443616e-05 1.897712e-07 2.130388e-07) (3.467659e-05 1.958217e-08 2.216814e-08)) ((-1.669464e-12 1.797369e-12 -3.325768e-13) (2.310807e-12 3.702924e-10 -3.524503e-10))
121.627452    	((7.420690e-05 2.011119e-07 2.259030e-07) (3.457315e-05 2.170990e-08 2.451652e-08)) ((-1.558155e-12 1.909574e-12 -2.730807e-13) (2.724958e-12 3.435677e-10 -3.210864e-10))
125.842233    	((7.399437e-05 2.209495e-07 2.485497e-07) (3.447492e-05 2.420035e-08 2.724719e-08)) ((-1.422853e-12 2.163555e-12 -2.086073e-13) (3.169424e-12 3.254641e-10 -2.978348e-10))
130.060562    	((7.378088e-05 2.404097e-07 2.707660e-07) (3.438119e-05 2.684033e-08 3.014252e-08)) ((-1.278401e-12 2.411116e-12 -1.500531e-13) (3.449474e-12 3.184671e-10 -2.837202e-10))
134.282264    	((7.357303e-05 2.654153e-07 2.985360e-07) (3.429210e-05 2.964760e-08 3.322643e-08)) ((-1.155225e-12 2.701580e-12 -9.864544e-14) (3.494141e-12 3.245379e-10 -2.829967e-10))
138.507163    	((7.337471e-05 2.937467e-07 3.304084e-07) (3.420788e-05 3.269697e-08 3.660782e-08)) ((-1.064102e-12 2.970675e-12 -4.501071e-14) (3.588517e-12 3.449301e-10 -2.967831e-10))
142.735099    	((7.318669e-05 3.260827e-07 3.662938e-07) (3.412842e-05 3.600134e-08 4.023924e-08)) ((-9.684867e-13 3.248280e-12 4.834266e-15) (3.705837e-12 3.824417e-10 -3.235653e-10))
146.96591     	((7.300751e-05 3.659054e-07 4.096990e-07) (3.405333e-05 3.972972e-08 4.434138e-08)) ((-8.857312e-13 3.573108e-12 5.444923e-14) (3.686818e-12 4.338324e-10 -3.657008e-10))
151.199443    	((7.284059e-05 4.095084e-07 4.576022e-07) (3.398254e-05 4.388678e-08 4.892728e-08)) ((-8.206268e-13 3.937763e-12 1.183627e-13) (3.421021e-12 4.985191e-10 -4.248823e-10))
155.435547    	((7.267701e-05 4.613835e-07 5.133322e-07) (3.391566e-05 4.863729e-08 5.411680e-08)) ((-7.830370e-13 4.336363e-12 1.868430e-13) (2.923400e-12 5.784459e-10 -5.001539e-10))
159.674061    	((7.252809e-05 5.200418e-07 5.786056e-07) (3.385272e-05 5.401978e-08 6.009256e-08)) ((-7.526141e-13 4.793499e-12 2.546879e-13) (2.551879e-12 6.738629e-10 -5.904691e-10))
163.91483     	((7.240110e-05 5.812820e-07 6.452271e-07) (3.379438e-05 5.989997e-08 6.666791e-08)) ((-7.601941e-13 5.202984e-12 3.042492e-13) (2.466638e-12 7.835556e-10 -6.948351e-10))
168.15762     	((7.228190e-05 6.530837e-07 7.226225e-07) (3.374043e-05 6.655931e-08 7.401060e-08)) ((-7.391823e-13 5.751517e-12 3.586895e-13) (3.026492e-12 9.079829e-10 -8.127237e-10))
172.402289    	((7.215075e-05 7.304067e-07 8.078811e-07) (3.368960e-05 7.410375e-08 8.237106e-08)) ((-7.497852e-13 6.360060e-12 4.158764e-13) (3.600792e-12 1.044307e-09 -9.419885e-10))
176.648731    	((7.200631e-05 8.082971e-07 8.928837e-07) (3.364050e-05 8.227443e-08 9.143614e-08)) ((-7.760228e-13 6.906474e-12 4.665869e-13) (3.786744e-12 1.187507e-09 -1.078567e-09))
180.896827    	((7.186637e-05 8.899421e-07 9.832116e-07) (3.359286e-05 9.098165e-08 1.010841e-07)) ((-8.066908e-13 7.477814e-12 5.209752e-13) (3.831317e-12 1.336199e-09 -1.218841e-09))
185.146435    	((7.173756e-05 9.772695e-07 1.079908e-06) (3.354708e-05 1.004398e-07 1.115513e-07)) ((-8.278917e-13 8.083442e-12 5.713091e-13) (3.819403e-12 1.486758e-09 -1.359084e-09))
189.397413    	((7.161920e-05 1.070365e-06 1.182812e-06) (3.350328e-05 1.107399e-07 1.229258e-07)) ((-7.890303e-13 8.721772e-12 6.232961e-13) (4.042428e-12 1.635573e-09 -1.496511e-09))
193.649623    	((7.151249e-05 1.170610e-06 1.293925e-06) (3.346155e-05 1.219943e-07 1.353400e-07)) ((-7.222943e-13 9.423520e-12 6.888865e-13) (4.427042e-12 1.781778e-09 -1.630620e-09))
197.902933    	((7.141532e-05 1.274786e-06 1.410942e-06) (3.342197e-05 1.341517e-07 1.488040e-07)) ((-6.308829e-13 1.016244e-11 7.695444e-13) (4.723347e-12 1.925309e-09 -1.761019e-09))
202.157224    	((7.132636e-05 1.384205e-06 1.534137e-06) (3.338454e-05 1.471554e-07 1.632700e-07)) ((-5.275162e-13 1.094639e-11 8.474933e-13) (4.744464e-12 2.067123e-09 -1.887809e-09))
206.412389    	((7.124298e-05 1.500696e-06 1.665496e-06) (3.334914e-05 1.610826e-07 1.787943e-07)) ((-4.115623e-13 1.179238e-11 9.089078e-13) (4.476286e-12 2.209355e-09 -2.012846e-09))
210.668329    	((7.116457e-05 1.627194e-06 1.807719e-06) (3.331557e-05 1.760954e-07 1.955300e-07)) ((-2.804612e-13 1.271331e-11 9.554988e-13) (4.056431e-12 2.353969e-09 -2.138445e-09))
214.924944    	((7.109069e-05 1.765064e-06 1.963470e-06) (3.328366e-05 1.924353e-07 2.137519e-07)) ((-1.578845e-13 1.372904e-11 1.020406e-12) (3.751418e-12 2.501126e-09 -2.264922e-09))
219.182129    	((7.101888e-05 1.917384e-06 2.135441e-06) (3.325320e-05 2.103670e-07 2.337771e-07)) ((-3.393480e-14 1.489146e-11 1.153202e-12) (4.029250e-12 2.652636e-09 -2.394050e-09))
223.43977     	((7.095302e-05 2.085294e-06 2.325025e-06) (3.322430e-05 2.300963e-07 2.558323e-07)) ((8.844225e-14 1.619768e-11 1.357485e-12) (4.769928e-12 2.813064e-09 -2.529167e-09))
227.69774     	((7.089075e-05 2.271256e-06 2.534296e-06) (3.319704e-05 2.517855e-07 2.800573e-07)) ((2.040909e-13 1.766518e-11 1.606628e-12) (5.534404e-12 2.990552e-09 -2.676925e-09))
231.955903    	((7.083325e-05 2.478333e-06 2.767648e-06) (3.317146e-05 2.756574e-07 3.066837e-07)) ((3.057367e-13 1.929993e-11 1.866498e-12) (6.430048e-12 3.194860e-09 -2.845574e-09))
236.214109    	((7.078257e-05 2.710466e-06 3.028703e-06) (3.314761e-05 3.020004e-07 3.359940e-07)) ((4.187478e-13 2.110975e-11 2.152952e-12) (7.706194e-12 3.435568e-09 -3.043439e-09))
240.472191    	((7.073615e-05 2.970838e-06 3.319732e-06) (3.312532e-05 3.311544e-07 3.683794e-07)) ((5.631175e-13 2.311345e-11 2.479137e-12) (9.244421e-12 3.715010e-09 -3.276879e-09))
244.72997     	((7.069552e-05 3.264473e-06 3.646132e-06) (3.310459e-05 3.636284e-07 4.044288e-07)) ((7.574021e-13 2.536318e-11 2.842691e-12) (9.572243e-12 4.035206e-09 -3.549210e-09))
248.987243    	((7.065673e-05 3.593005e-06 4.010241e-06) (3.308529e-05 3.998209e-07 4.445772e-07)) ((1.011425e-12 2.783721e-11 3.240621e-12) (9.170146e-12 4.398527e-09 -3.866291e-09))
253.243794    	((7.062267e-05 3.959203e-06 4.413400e-06) (3.306737e-05 4.400723e-07 4.891930e-07)) ((1.338184e-12 3.053070e-11 3.675796e-12) (8.143577e-12 4.809125e-09 -4.231227e-09))
257.499389    	((7.059766e-05 4.365274e-06 4.860246e-06) (3.305097e-05 4.846949e-07 5.386164e-07)) ((1.762183e-12 3.347704e-11 4.137184e-12) (7.513232e-12 5.277910e-09 -4.648545e-09))
261.753775    	((7.058143e-05 4.812197e-06 5.352433e-06) (3.303634e-05 5.340326e-07 5.932614e-07)) ((2.335434e-12 3.669158e-11 4.616412e-12) (4.909480e-12 5.804708e-09 -5.121739e-09))
266.006683    	((7.057584e-05 5.302003e-06 5.893702e-06) (3.302379e-05 5.884666e-07 6.536486e-07)) ((3.047771e-12 4.019897e-11 5.112547e-12) (-9.685133e-13 6.386792e-09 -5.646366e-09))
270.257834    	((7.058803e-05 5.831702e-06 6.479806e-06) (3.301378e-05 6.481600e-07 7.198645e-07)) ((3.814029e-12 4.387576e-11 5.600551e-12) (-7.083997e-12 7.024935e-09 -6.218690e-09))
274.506936    	((7.061706e-05 6.407252e-06 7.117313e-06) (3.300660e-05 7.133217e-07 7.921996e-07)) ((4.718561e-12 4.775684e-11 6.077088e-12) (-1.198404e-11 7.718269e-09 -6.845090e-09))
278.753687    	((7.066005e-05 7.035004e-06 7.811496e-06) (3.300241e-05 7.846524e-07 8.712685e-07)) ((5.794178e-12 5.192391e-11 6.588336e-12) (-1.753851e-11 8.470121e-09 -7.520894e-09))
282.997767    	((7.072197e-05 7.715467e-06 8.565709e-06) (3.300155e-05 8.624977e-07 9.577379e-07)) ((7.045994e-12 5.641882e-11 7.139475e-12) (-2.759861e-11 9.278633e-09 -8.249241e-09))
287.238843    	((7.080013e-05 8.454364e-06 9.384210e-06) (3.300422e-05 9.473659e-07 1.052117e-06)) ((8.506219e-12 6.125486e-11 7.691350e-12) (-3.818478e-11 1.014271e-08 -9.028859e-09))
