# Forces      
# CofR        : (0.000000e+00 0.000000e+00 0.000000e+00)
# Time        forces(pressure viscous)	moments(pressure viscous)
0             	((0.000000e+00 0.000000e+00 0.000000e+00) (0.000000e+00 0.000000e+00 0.000000e+00)) ((0.000000e+00 0.000000e+00 0.000000e+00) (0.000000e+00 0.000000e+00 0.000000e+00))
0.012         	((-2.274013e-12 5.678984e-10 1.166753e-12) (-2.739601e-15 1.441763e-11 -4.760952e-14)) ((-1.496002e-16 1.067796e-16 -1.291464e-11) (6.178387e-17 -1.172263e-15 -1.758685e-08))
0.0264        	((-7.216891e-12 8.313704e-11 -4.849441e-15) (-1.961441e-14 2.129275e-11 -8.634660e-14)) ((1.132136e-16 -1.129075e-15 -5.918948e-12) (1.761245e-17 -3.257576e-15 -1.610979e-08))
0.04368       	((-5.286982e-12 2.643726e-10 4.179062e-12) (-2.504343e-14 2.242819e-11 -1.237192e-13)) ((-2.256550e-16 -1.370352e-15 -3.221353e-12) (-5.607110e-18 -5.827146e-15 -1.459083e-08))
0.064416      	((-8.659397e-12 -3.756143e-11 -3.679120e-12) (-2.139940e-14 1.936075e-11 -2.027627e-13)) ((7.337738e-17 -7.238383e-16 -1.728001e-12) (-3.613995e-16 -9.120236e-15 -1.306355e-08))
0.0892992     	((4.650938e-12 1.174417e-10 3.244741e-12) (-1.584128e-14 1.610057e-11 -3.083508e-13)) ((-3.472708e-16 -1.877503e-15 -1.292426e-12) (-1.127024e-15 -1.325363e-14 -1.157271e-08))
0.119159      	((-2.965811e-12 -2.125940e-11 5.114704e-13) (-1.231277e-14 1.309325e-11 -3.645835e-13)) ((1.556086e-17 -1.366371e-15 -9.632393e-13) (-1.493954e-15 -1.547569e-14 -1.016449e-08))
0.154991      	((1.718829e-12 5.785078e-11 -9.981136e-13) (-7.645789e-15 1.182613e-11 -3.766064e-13)) ((-1.602162e-16 -1.028821e-15 -7.850974e-13) (-1.867655e-15 -1.613382e-14 -8.871399e-09))
0.197989      	((-4.081189e-13 1.784647e-11 -1.551280e-13) (9.247411e-15 1.026421e-11 -3.710722e-13)) ((-2.829499e-16 -8.987403e-16 -6.424718e-13) (-2.438120e-15 -1.617084e-14 -7.724918e-09))
0.249587      	((1.794096e-12 4.640338e-11 1.350359e-12) (2.339073e-14 9.061383e-12 -3.811385e-13)) ((-2.192237e-16 -1.000569e-15 -5.288386e-13) (-2.553106e-15 -1.543218e-14 -6.742233e-09))
0.311504      	((-7.769123e-13 2.685579e-11 5.887111e-13) (2.334784e-14 8.210333e-12 -4.193226e-13)) ((-1.319827e-16 -6.188547e-16 -4.297100e-13) (-2.067147e-15 -1.477582e-14 -5.920992e-09))
0.385805      	((-3.070700e-12 2.095781e-11 -1.589057e-13) (1.241763e-14 7.823317e-12 -4.637457e-13)) ((-5.765115e-17 -2.411562e-16 -3.531962e-13) (-7.022659e-16 -1.498065e-14 -5.243449e-09))
0.474966      	((-5.670202e-12 2.117865e-11 6.603774e-13) (-1.208442e-14 7.812076e-12 -4.743790e-13)) ((-2.823935e-18 -1.438188e-16 -3.013729e-13) (-1.987463e-16 -1.492409e-14 -4.682937e-09))
0.581959      	((-4.444502e-12 1.449222e-11 5.820323e-13) (4.448041e-14 7.162208e-12 -3.684740e-13)) ((-3.965792e-17 1.845041e-16 -2.558204e-13) (-5.255971e-16 -1.006834e-14 -4.211776e-09))
0.710351      	((-7.072912e-12 1.093795e-11 -4.164274e-13) (1.226072e-13 6.132515e-12 -2.011646e-13)) ((1.402303e-16 3.475781e-16 -2.120916e-13) (-4.145759e-16 -2.008888e-15 -3.807025e-09))
0.864421      	((-6.562134e-12 1.900994e-11 -9.226539e-13) (1.543300e-13 5.967629e-12 -8.695106e-14)) ((2.427309e-16 7.551542e-16 -1.815845e-13) (6.141275e-16 5.008609e-15 -3.452502e-09))
1.049306      	((-7.009159e-12 2.995236e-11 -6.720419e-13) (2.049373e-13 5.656628e-12 3.678714e-14)) ((2.729719e-16 9.694728e-16 -1.635883e-13) (-1.148749e-15 8.865788e-15 -3.137466e-09))
1.271167      	((-8.913979e-12 3.394179e-11 -7.962084e-14) (2.209987e-13 5.097776e-12 2.059308e-13)) ((2.128478e-16 9.801343e-16 -1.493574e-13) (-5.797811e-15 9.532720e-15 -2.854635e-09))
1.5374        	((-1.007800e-11 3.677366e-11 -2.771359e-13) (4.506883e-13 5.411425e-12 3.611886e-13)) ((2.435691e-16 1.417793e-15 -1.378468e-13) (-1.292799e-14 5.680630e-15 -2.599364e-09))
1.85688       	((-1.204938e-11 5.056215e-11 -1.447240e-12) (9.304363e-13 6.145637e-12 3.264953e-13)) ((2.921755e-16 1.528076e-15 -1.288973e-13) (-2.350494e-14 -6.727333e-15 -2.369076e-09))
2.240256      	((-9.504346e-12 3.485605e-11 -7.868927e-14) (1.539951e-12 5.599061e-12 2.714047e-13)) ((3.144439e-16 1.627845e-15 -1.255564e-13) (-3.989627e-14 -2.568945e-14 -2.162469e-09))
2.700307      	((-9.314822e-12 2.081614e-11 1.016851e-13) (2.429073e-12 3.850281e-12 3.755857e-13)) ((2.479809e-16 1.648758e-15 -1.216938e-13) (-6.287619e-14 -4.827539e-14 -1.978615e-09))
3.252369      	((-7.311535e-12 1.512468e-11 1.199194e-13) (3.495386e-12 2.303298e-12 5.877036e-13)) ((1.328365e-16 1.535968e-15 -1.156178e-13) (-8.680796e-14 -6.436265e-14 -1.816203e-09))
3.914842      	((-5.536943e-12 9.781763e-12 6.011747e-13) (4.627534e-12 9.046836e-13 5.511215e-13)) ((2.443696e-16 1.261064e-15 -1.066193e-13) (-1.025014e-13 -8.290444e-14 -1.673240e-09))
4.709811      	((-9.093163e-13 5.423297e-12 6.729183e-13) (5.600099e-12 -1.034249e-12 3.138672e-13)) ((1.044114e-16 9.284683e-16 -9.609580e-14) (-1.097043e-13 -9.615095e-14 -1.547232e-09))
5.663773      	((1.225452e-12 -2.186536e-12 -2.340534e-14) (6.221692e-12 -3.497862e-12 5.986492e-14)) ((-6.963574e-17 6.383070e-16 -8.666705e-14) (-1.115066e-13 -1.020591e-13 -1.435307e-09))
6.808528      	((1.834930e-12 -1.914218e-12 7.882911e-14) (6.327948e-12 -4.513303e-12 -2.701834e-14)) ((-8.622208e-17 3.415185e-16 -7.794541e-14) (-1.058816e-13 -9.706277e-14 -1.334670e-09))
8.182233      	((2.447367e-12 -5.077583e-12 -4.017554e-13) (5.813920e-12 -4.055257e-12 -3.477270e-15)) ((-1.306946e-16 2.109300e-16 -7.030556e-14) (-9.110736e-14 -8.084954e-14 -1.243223e-09))
9.83068       	((2.236786e-12 -1.920554e-12 8.895793e-14) (5.037741e-12 -2.945934e-12 -6.533267e-14)) ((-2.433435e-16 -8.222273e-17 -6.415461e-14) (-7.228213e-14 -6.556237e-14 -1.159497e-09))
11.808816     	((2.856857e-13 2.186512e-12 -1.668299e-13) (4.000730e-12 -1.420151e-12 2.800248e-14)) ((-2.612042e-16 -1.713030e-16 -5.885694e-14) (-5.463839e-14 -4.571324e-14 -1.082499e-09))
14.182579     	((-4.863464e-13 1.971022e-12 3.947713e-14) (2.956139e-12 -5.216184e-13 -4.331792e-14)) ((-2.617941e-16 -3.826157e-16 -5.468018e-14) (-3.878565e-14 -3.378546e-14 -1.011594e-09))
17.031095     	((-4.595479e-13 1.577400e-12 1.487540e-13) (2.095749e-12 -1.253363e-13 -1.320729e-13)) ((-2.384045e-16 -4.627775e-16 -5.146124e-14) (-2.711171e-14 -2.445705e-14 -9.464083e-10))
20.449314     	((-8.286858e-13 2.644056e-12 -2.354303e-16) (1.477802e-12 2.342299e-13 -4.167454e-14)) ((-1.947698e-16 -5.120427e-16 -4.888498e-14) (-2.017960e-14 -1.322494e-14 -8.866808e-10))
24.551176     	((-6.340797e-13 3.386206e-12 -1.299933e-15) (1.090402e-12 1.212657e-13 3.803132e-14)) ((-1.545796e-16 -4.758682e-16 -4.654151e-14) (-1.499779e-14 -7.809611e-15 -8.321053e-10))
29.473411     	((-6.587798e-13 3.065077e-12 6.933773e-14) (8.616255e-13 -2.113678e-13 7.004977e-14)) ((-1.323109e-16 -4.085012e-16 -4.466312e-14) (-1.280580e-14 -6.296025e-15 -7.823210e-10))
35.380094     	((-9.847887e-13 3.119357e-12 3.017580e-14) (7.547644e-13 -5.844965e-13 3.723128e-14)) ((-1.386299e-16 -3.964426e-16 -4.294645e-14) (-1.214460e-14 -8.303993e-15 -7.368818e-10))
42.468112     	((-8.025450e-13 2.863053e-12 -1.066913e-14) (7.455079e-13 -9.606552e-13 2.524702e-14)) ((-1.695992e-16 -3.559532e-16 -4.159424e-14) (-1.330552e-14 -1.067219e-14 -6.954027e-10))
50.973735     	((-5.550338e-13 2.968196e-12 1.945032e-14) (8.117489e-13 -1.391939e-12 5.702274e-14)) ((-1.656501e-16 -3.429095e-16 -4.030050e-14) (-1.516208e-14 -1.179616e-14 -6.575734e-10))
61.180482     	((-9.458571e-13 2.621880e-12 6.750248e-14) (8.859490e-13 -1.769014e-12 1.099480e-13)) ((-1.359435e-16 -3.183010e-16 -3.931907e-14) (-1.791513e-14 -1.250086e-14 -6.231244e-10))
73.428578     	((-2.427635e-13 2.309492e-12 4.981864e-14) (1.034109e-12 -2.102151e-12 1.052875e-13)) ((-1.246624e-16 -2.879152e-16 -3.869670e-14) (-2.055303e-14 -1.457179e-14 -5.918240e-10))
88.126294     	((-4.486326e-13 2.295419e-12 1.141604e-13) (1.139300e-12 -2.364602e-12 1.019901e-13)) ((-1.107123e-16 -2.420078e-16 -3.808840e-14) (-2.190150e-14 -1.687001e-14 -5.634398e-10))
105.763553    	((-2.944193e-13 2.174126e-12 3.507305e-14) (1.201797e-12 -2.487247e-12 7.996905e-14)) ((-9.390952e-17 -2.010554e-16 -3.741591e-14) (-2.267713e-14 -1.802057e-14 -5.377405e-10))
126.928263    	((-1.744869e-13 1.824702e-12 3.110215e-14) (1.160262e-12 -2.447887e-12 5.113167e-14)) ((-8.153383e-17 -1.745745e-16 -3.684727e-14) (-2.235139e-14 -1.824105e-14 -5.145043e-10))
152.325916    	((1.532752e-13 1.754249e-12 3.644581e-15) (1.077172e-12 -2.341079e-12 1.171744e-14)) ((-7.568924e-17 -1.541745e-16 -3.632332e-14) (-2.116596e-14 -1.777371e-14 -4.934917e-10))
182.803099    	((2.076448e-13 1.710073e-12 4.160933e-14) (1.004824e-12 -2.271567e-12 -9.433957e-15)) ((-6.505781e-17 -1.286212e-16 -3.584017e-14) (-2.015568e-14 -1.670717e-14 -4.744535e-10))
219.375719    	((3.046385e-13 1.977134e-12 -3.824075e-14) (9.521061e-13 -2.261385e-12 -2.755475e-14)) ((-5.989891e-17 -1.259547e-16 -3.543370e-14) (-1.951396e-14 -1.623141e-14 -4.571653e-10))
263.262863    	((2.144236e-13 2.137266e-12 -1.865567e-14) (9.904841e-13 -2.322284e-12 -4.144875e-14)) ((-5.939352e-17 -1.230678e-16 -3.503455e-14) (-1.889916e-14 -1.603072e-14 -4.414421e-10))
315.927436    	((2.488679e-13 2.328022e-12 -3.535232e-15) (1.011858e-12 -2.304597e-12 -4.563659e-14)) ((-6.794832e-17 -1.244576e-16 -3.464119e-14) (-1.871715e-14 -1.641409e-14 -4.271393e-10))
379.124923    	((1.743507e-13 2.465400e-12 1.328551e-14) (9.681196e-13 -2.235423e-12 -3.854771e-14)) ((-6.031600e-17 -1.210416e-16 -3.426911e-14) (-1.865825e-14 -1.630172e-14 -4.141400e-10))
454.961908    	((1.413823e-13 2.620709e-12 -2.978246e-14) (9.323785e-13 -2.140608e-12 -2.818206e-14)) ((-4.775960e-17 -1.120676e-16 -3.391357e-14) (-1.839456e-14 -1.577140e-14 -4.023538e-10))
545.966289    	((1.615121e-13 2.648403e-12 -8.633299e-15) (8.867208e-13 -2.116620e-12 -2.390998e-14)) ((-3.708011e-17 -9.418637e-17 -3.359002e-14) (-1.769994e-14 -1.554268e-14 -3.916994e-10))
655.171547    	((1.209241e-13 2.741548e-12 2.912876e-14) (7.992951e-13 -2.072039e-12 -3.022672e-14)) ((-3.401541e-17 -8.427202e-17 -3.329275e-14) (-1.661022e-14 -1.488972e-14 -3.821012e-10))
786.217856    	((-5.331606e-15 2.703469e-12 3.808781e-14) (7.235932e-13 -2.048962e-12 -4.061034e-14)) ((-3.412855e-17 -7.876367e-17 -3.301372e-14) (-1.528885e-14 -1.415542e-14 -3.734845e-10))
943.473427    	((3.317532e-14 2.632166e-12 -7.836210e-15) (7.335153e-13 -2.027199e-12 -4.462548e-14)) ((-3.317526e-17 -7.608066e-17 -3.273346e-14) (-1.411687e-14 -1.339924e-14 -3.657832e-10))
1132.180113   	((5.984374e-14 2.630471e-12 -5.813419e-14) (7.554755e-13 -1.989894e-12 -4.369915e-14)) ((-3.257613e-17 -7.572878e-17 -3.247275e-14) (-1.295096e-14 -1.250025e-14 -3.589370e-10))
1358.628135   	((2.708550e-14 2.674230e-12 -8.840595e-14) (7.551963e-13 -1.943093e-12 -3.847099e-14)) ((-3.086139e-17 -7.361143e-17 -3.222995e-14) (-1.181908e-14 -1.184564e-14 -3.528845e-10))
1630.365763   	((-1.416930e-16 2.750481e-12 -9.340156e-14) (7.707157e-13 -1.902290e-12 -3.942900e-14)) ((-3.359202e-17 -7.391141e-17 -3.200952e-14) (-1.105973e-14 -1.142647e-14 -3.475613e-10))
1956.450915   	((7.903667e-14 2.859654e-12 -6.938964e-14) (7.771473e-13 -1.865228e-12 -4.832117e-14)) ((-3.139691e-17 -7.841033e-17 -3.181072e-14) (-1.031961e-14 -1.110449e-14 -3.429065e-10))
2347.753098   	((1.046836e-13 2.879200e-12 -6.285217e-14) (7.603044e-13 -1.823650e-12 -5.631944e-14)) ((-2.994112e-17 -8.160676e-17 -3.163359e-14) (-9.659983e-15 -1.071242e-14 -3.388611e-10))
2817.315718   	((7.641208e-14 2.903275e-12 -5.949107e-14) (7.228695e-13 -1.773401e-12 -6.628697e-14)) ((-2.815528e-17 -8.388429e-17 -3.147926e-14) (-9.059452e-15 -1.032756e-14 -3.353682e-10))
3380.790861   	((4.037916e-14 2.923668e-12 -4.881511e-14) (6.820554e-13 -1.719521e-12 -7.152468e-14)) ((-2.696156e-17 -8.248428e-17 -3.134618e-14) (-8.545237e-15 -9.842700e-15 -3.323718e-10))
4056.961033   	((6.996172e-14 2.932929e-12 -2.932859e-14) (6.538458e-13 -1.670090e-12 -7.257812e-14)) ((-2.865634e-17 -8.185604e-17 -3.122720e-14) (-7.968297e-15 -9.442041e-15 -3.298186e-10))
4868.36524    	((9.382229e-14 2.950957e-12 1.200443e-14) (6.338582e-13 -1.625367e-12 -7.094345e-14)) ((-2.748767e-17 -7.872737e-17 -3.112682e-14) (-7.442945e-15 -9.173090e-15 -3.276580e-10))
5842.050288   	((1.047879e-13 2.978495e-12 5.235522e-14) (6.151303e-13 -1.593530e-12 -6.697619e-14)) ((-2.667337e-17 -7.514758e-17 -3.104023e-14) (-6.941097e-15 -8.967791e-15 -3.258428e-10))
7010.472346   	((1.268004e-13 2.995345e-12 7.100313e-14) (5.990735e-13 -1.567829e-12 -6.402382e-14)) ((-2.720321e-17 -7.243015e-17 -3.097147e-14) (-6.272541e-15 -8.759652e-15 -3.243290e-10))
8412.578815   	((1.221012e-13 2.994362e-12 8.512357e-14) (5.833390e-13 -1.550361e-12 -6.344998e-14)) ((-2.862389e-17 -7.166254e-17 -3.091803e-14) (-5.678417e-15 -8.465758e-15 -3.230756e-10))
10095.106578  	((1.770881e-13 2.979946e-12 8.961463e-14) (5.685300e-13 -1.535938e-12 -6.331934e-14)) ((-3.025955e-17 -6.965753e-17 -3.086930e-14) (-5.166205e-15 -8.122937e-15 -3.220450e-10))
12114.139893  	((2.765322e-13 2.952547e-12 8.221790e-14) (5.566471e-13 -1.525237e-12 -6.209258e-14)) ((-3.199850e-17 -6.836691e-17 -3.082798e-14) (-4.789647e-15 -7.765744e-15 -3.212028e-10))
14536.979872  	((3.942380e-13 2.950513e-12 6.263376e-14) (5.443482e-13 -1.514934e-12 -5.967119e-14)) ((-3.221678e-17 -6.764911e-17 -3.079424e-14) (-4.581616e-15 -7.496382e-15 -3.205186e-10))
17444.387847  	((4.957542e-13 2.958526e-12 4.581431e-14) (5.304748e-13 -1.505312e-12 -5.819193e-14)) ((-3.176577e-17 -6.700146e-17 -3.076592e-14) (-4.407352e-15 -7.376198e-15 -3.199657e-10))
20933.277416  	((5.690224e-13 2.967798e-12 2.555172e-14) (5.176032e-13 -1.496799e-12 -5.779520e-14)) ((-3.109618e-17 -6.655777e-17 -3.074282e-14) (-4.257905e-15 -7.342834e-15 -3.195209e-10))
25119.944899  	((6.187168e-13 2.968576e-12 1.144876e-15) (5.053009e-13 -1.489732e-12 -5.801323e-14)) ((-3.005819e-17 -6.653273e-17 -3.072402e-14) (-4.122232e-15 -7.365336e-15 -3.191645e-10))
30117.674883  	((6.534688e-13 2.956811e-12 -2.509239e-14) (4.946079e-13 -1.484395e-12 -5.867006e-14)) ((-2.862837e-17 -6.649306e-17 -3.070881e-14) (-4.013408e-15 -7.418579e-15 -3.188801e-10))
35926.476983  	((6.710617e-13 2.936545e-12 -4.999698e-14) (4.855940e-13 -1.480510e-12 -5.963449e-14)) ((-2.700416e-17 -6.654679e-17 -3.069584e-14) (-3.921856e-15 -7.463281e-15 -3.186537e-10))
42546.358759  	((6.764910e-13 2.928260e-12 -7.623720e-14) (4.781679e-13 -1.477507e-12 -6.041416e-14)) ((-2.609559e-17 -6.653737e-17 -3.068474e-14) (-3.856669e-15 -7.482270e-15 -3.184742e-10))
49977.326152  	((6.706780e-13 2.946351e-12 -8.393080e-14) (4.726850e-13 -1.477839e-12 -6.129491e-14)) ((-2.318190e-17 -6.273480e-17 -3.067243e-14) (-3.861665e-15 -7.498071e-15 -3.183321e-10))
58088.228786  	((6.705930e-13 2.997695e-12 -1.417311e-13) (4.646397e-13 -1.477499e-12 -6.059700e-14)) ((-3.194954e-17 -7.415812e-17 -3.066301e-14) (-3.566629e-15 -7.447542e-15 -3.182199e-10))
66199.167693  	((6.568555e-13 3.059134e-12 -1.450405e-13) (4.524112e-13 -1.480815e-12 -6.475039e-14)) ((-2.262214e-17 -6.198668e-17 -3.065355e-14) (-3.753255e-15 -7.509599e-15 -3.181314e-10))
74310.134828  	((6.098918e-13 3.116968e-12 -1.532056e-13) (4.376607e-13 -1.472924e-12 -6.802225e-14)) ((-3.298853e-17 -7.137602e-17 -3.064513e-14) (-3.660224e-15 -7.585468e-15 -3.180616e-10))
82421.124054  	((5.148768e-13 3.230731e-12 -1.696380e-13) (4.222049e-13 -1.474229e-12 -6.853264e-14)) ((-3.161184e-17 -7.407471e-17 -3.063704e-14) (-3.690521e-15 -7.321959e-15 -3.180070e-10))
90532.130572  	((1.361496e-13 3.271666e-12 -1.670809e-13) (4.167742e-13 -1.480909e-12 -7.124661e-14)) ((-3.145599e-17 -6.678457e-17 -3.060357e-14) (-3.687990e-15 -7.102334e-15 -3.179646e-10))
98643.150799  	((-2.227283e-14 3.533017e-12 -2.130991e-13) (4.200409e-13 -1.478498e-12 -7.005545e-14)) ((-3.336713e-17 -6.656998e-17 -3.058659e-14) (-3.707271e-15 -7.145365e-15 -3.179317e-10))
106754.181903 	((-1.797011e-13 3.757280e-12 -1.962609e-13) (4.257512e-13 -1.489227e-12 -7.416080e-14)) ((-3.617585e-17 -8.465132e-17 -3.055516e-14) (-3.902764e-15 -6.919798e-15 -3.179056e-10))
114865.221713 	((-2.868229e-13 3.873798e-12 -1.750276e-13) (4.216494e-13 -1.498678e-12 -7.220723e-14)) ((-2.898079e-17 -4.088534e-17 -3.051930e-14) (-4.178001e-15 -6.715836e-15 -3.178850e-10))
122976.26858  	((-4.082812e-13 4.107470e-12 -2.849034e-13) (4.093486e-13 -1.491703e-12 -7.438132e-14)) ((-3.802114e-17 -5.964612e-17 -3.049569e-14) (-4.188781e-15 -7.215597e-15 -3.178693e-10))
131087.321043 	((-4.096653e-13 4.301573e-12 -5.856911e-14) (4.007174e-13 -1.479411e-12 -8.138893e-14)) ((-3.048185e-17 -7.131679e-17 -3.046748e-14) (-4.240852e-15 -7.102580e-15 -3.178566e-10))
139198.377954 	((-3.615153e-13 4.621099e-12 5.949073e-14) (4.029932e-13 -1.458415e-12 -7.429519e-14)) ((-2.492938e-17 -7.129831e-17 -3.043899e-14) (-4.355800e-15 -6.818257e-15 -3.178467e-10))
147309.438494 	((-2.390852e-13 4.771353e-12 1.901861e-13) (3.992573e-13 -1.459778e-12 -6.285521e-14)) ((-3.834293e-17 -8.165839e-17 -3.040391e-14) (-4.173460e-15 -6.496554e-15 -3.178371e-10))
155420.502084 	((-6.924642e-14 4.989954e-12 2.983931e-13) (3.854554e-13 -1.456130e-12 -5.145047e-14)) ((-4.560601e-17 -7.308111e-17 -3.037867e-14) (-3.991959e-15 -6.250442e-15 -3.178283e-10))
163531.568512 	((1.683574e-13 5.136441e-12 4.389333e-13) (4.010375e-13 -1.442368e-12 -5.626325e-14)) ((-4.666833e-17 -7.892789e-17 -3.037458e-14) (-4.069088e-15 -6.484905e-15 -3.178195e-10))
171642.637791 	((3.668243e-13 5.187969e-12 5.341318e-13) (4.219559e-13 -1.427950e-12 -5.240240e-14)) ((-4.480678e-17 -8.697101e-17 -3.036552e-14) (-3.920563e-15 -6.406391e-15 -3.178108e-10))
179753.709517 	((5.425095e-13 5.137292e-12 5.251677e-13) (4.289112e-13 -1.416946e-12 -4.600984e-14)) ((-3.740514e-17 -7.474340e-17 -3.035156e-14) (-3.913467e-15 -6.288344e-15 -3.178021e-10))
187864.783421 	((7.590933e-13 4.960135e-12 5.067962e-13) (4.269538e-13 -1.410970e-12 -4.547973e-14)) ((-3.671345e-17 -7.246578e-17 -3.033540e-14) (-3.865682e-15 -6.221400e-15 -3.177936e-10))
