# Forces      
# CofR        : (0.000000e+00 0.000000e+00 0.000000e+00)
# Time        forces(pressure viscous)	moments(pressure viscous)
0             	((0.000000e+00 0.000000e+00 0.000000e+00) (-3.605205e-14 2.524879e-04 9.667110e-16)) ((0.000000e+00 0.000000e+00 0.000000e+00) (1.249706e-15 5.608815e-17 -9.234323e-11))
0.012         	((5.676959e-09 7.344481e-02 -6.134839e-09) (-1.354815e-10 2.895796e-04 -2.153902e-10)) ((2.860929e-11 5.049028e-13 -1.385885e-08) (1.524180e-12 5.495646e-14 -1.857392e-10))
0.0264        	((-5.863307e-07 -5.454944e-03 -1.182750e-07) (-5.896026e-10 2.950569e-04 -2.875299e-10)) ((-4.846267e-11 -9.929657e-12 8.705772e-10) (-1.024496e-12 -1.111282e-13 -2.427673e-10))
0.04368       	((1.227416e-06 -1.516808e-02 -3.441939e-07) (5.951011e-10 2.618360e-04 -3.925259e-10)) ((-3.944821e-11 1.259109e-11 3.766711e-09) (-9.328125e-12 -2.733614e-13 -2.007623e-10))
0.064416      	((-1.186330e-07 -1.431218e-04 3.222535e-07) (7.000043e-09 2.317689e-04 2.679585e-09)) ((2.623560e-11 2.385083e-12 -2.582728e-10) (1.792151e-11 -1.521128e-12 -2.350272e-10))
0.0892992     	((-1.119379e-07 1.628334e-04 1.281612e-07) (7.319034e-09 2.138776e-04 4.655974e-09)) ((1.581985e-12 -9.839059e-12 -2.109428e-10) (-3.559626e-12 1.314918e-12 -1.829338e-10))
0.119159      	((1.009137e-07 -2.413777e-04 3.166605e-07) (4.190291e-09 1.974601e-04 4.301951e-09)) ((1.834384e-11 2.666426e-13 1.303232e-10) (-6.050751e-11 1.340720e-12 -8.960048e-11))
0.154991      	((-4.832915e-08 -1.231499e-04 6.833527e-08) (4.517546e-09 1.801937e-04 4.048235e-09)) ((1.803153e-11 5.687523e-12 7.830658e-12) (-3.914964e-11 -7.232094e-13 -5.907389e-11))
0.197989      	((-1.897272e-08 -2.910721e-05 -7.887960e-09) (3.649443e-09 1.629541e-04 3.101925e-09)) ((1.444576e-11 4.646772e-12 -2.316489e-11) (1.199703e-11 2.866416e-12 -1.055603e-10))
0.249587      	((-4.373902e-08 4.474402e-06 1.781214e-08) (8.984060e-10 1.462779e-04 2.357048e-09)) ((9.725326e-12 1.932606e-12 7.414289e-13) (3.968687e-11 5.583052e-12 -1.197428e-10))
0.311504      	((-1.035098e-08 1.977844e-05 1.461601e-09) (-2.238800e-09 1.306504e-04 1.741078e-09)) ((5.917043e-12 8.268983e-13 -3.499146e-12) (5.337280e-11 6.130523e-12 -5.337594e-11))
0.385805      	((-1.777051e-08 2.835611e-05 -9.374200e-09) (-3.088472e-09 1.164674e-04 1.168714e-09)) ((3.326515e-12 3.190699e-13 -3.694645e-12) (5.993351e-11 5.777802e-12 2.434478e-11))
0.474966      	((-1.521388e-08 3.290880e-05 -1.231838e-08) (-1.966737e-09 1.039251e-04 1.001423e-09)) ((2.090429e-12 3.507912e-14 -2.406331e-12) (5.800487e-11 4.240287e-12 9.034158e-11))
0.581959      	((-7.558250e-09 3.478100e-05 -1.034112e-08) (-6.073559e-10 9.288700e-05 8.994028e-10)) ((1.137744e-12 6.437081e-14 -1.056672e-12) (4.409047e-11 2.708569e-12 9.667523e-11))
0.710351      	((-3.756130e-09 3.474716e-05 -8.485186e-09) (3.650196e-10 8.316859e-05 7.203509e-10)) ((5.256397e-13 -8.581521e-14 -2.410735e-12) (3.023366e-11 1.724808e-12 8.566224e-11))
0.864421      	((-2.803842e-09 3.351937e-05 -5.717522e-09) (7.338874e-10 7.463216e-05 5.123703e-10)) ((2.268863e-13 -9.647247e-14 -4.629552e-12) (2.163941e-11 1.222459e-12 9.722912e-11))
1.049306      	((-9.186214e-10 3.168131e-05 -4.647478e-09) (9.108349e-10 6.713171e-05 3.414646e-10)) ((2.053593e-14 -9.980551e-14 -4.517150e-12) (1.713877e-11 7.409350e-13 1.087521e-10))
1.271167      	((-2.078794e-09 2.953612e-05 -3.313588e-09) (1.066949e-09 6.053337e-05 2.249757e-10)) ((-4.382677e-14 -9.691138e-14 -3.689413e-12) (1.413988e-11 3.308824e-13 9.645457e-11))
1.5374        	((-2.075483e-09 2.728316e-05 -2.046253e-09) (1.206831e-09 5.470743e-05 1.316346e-10)) ((-9.649065e-14 -5.813257e-14 -3.091985e-12) (1.155945e-11 2.471985e-13 7.319310e-11))
1.85688       	((-2.419724e-10 2.509981e-05 -1.726893e-09) (1.396210e-09 4.954796e-05 3.548951e-11)) ((-1.143760e-13 -2.965090e-14 -2.853030e-12) (8.317263e-12 3.009361e-13 4.594016e-11))
2.240256      	((-9.681551e-10 2.309298e-05 -1.165016e-09) (1.413055e-09 4.497394e-05 -3.717040e-11)) ((-1.357597e-13 -3.303516e-14 -3.167015e-12) (3.185970e-12 2.543767e-13 2.748963e-11))
2.700307      	((-1.994759e-09 2.128008e-05 -1.796303e-09) (1.218923e-09 4.091549e-05 -9.372750e-11)) ((-9.207050e-14 -1.830203e-14 -3.688091e-12) (-4.810856e-12 2.462990e-13 3.056843e-11))
3.252369      	((-2.258228e-09 1.965075e-05 -3.298690e-09) (1.076458e-09 3.730386e-05 -1.276140e-10)) ((-6.327904e-14 -3.655168e-14 -3.946043e-12) (-1.256587e-11 3.748533e-13 5.007194e-11))
3.914842      	((-4.208555e-09 1.822752e-05 -5.186147e-09) (9.221606e-10 3.408415e-05 -1.829211e-10)) ((-1.667509e-14 -4.573519e-14 -3.779346e-12) (-2.016968e-11 1.910950e-13 6.934417e-11))
4.709811      	((-6.289426e-09 1.701351e-05 -6.619852e-09) (7.346111e-10 3.122118e-05 -2.817827e-10)) ((5.192442e-14 -4.490475e-14 -3.863665e-12) (-2.775781e-11 5.691078e-14 9.204927e-11))
5.663773      	((-5.669328e-09 1.601808e-05 -5.791684e-09) (7.273875e-10 2.868787e-05 -3.159437e-10)) ((5.875351e-14 -3.845748e-14 -4.323106e-12) (-3.155911e-11 1.542608e-13 1.189075e-10))
6.808528      	((-5.974559e-09 1.523383e-05 -6.637410e-09) (6.032247e-10 2.645563e-05 -3.063243e-10)) ((1.138996e-13 -4.804552e-14 -4.952023e-12) (-2.936588e-11 7.011380e-14 1.300470e-10))
8.182233      	((-6.443593e-09 1.467349e-05 -7.061071e-09) (3.514749e-10 2.449258e-05 -2.931974e-10)) ((1.221255e-13 -5.634022e-14 -5.925762e-12) (-2.166516e-11 3.626488e-14 1.235746e-10))
9.83068       	((-6.730825e-09 1.434190e-05 -7.877046e-09) (1.114710e-10 2.276738e-05 -3.227091e-10)) ((1.584069e-13 -7.615234e-14 -7.007451e-12) (-1.402756e-11 1.728851e-13 1.119205e-10))
11.808816     	((-7.444005e-09 1.424174e-05 -9.826158e-09) (-4.179343e-11 2.125618e-05 -4.810933e-10)) ((1.889664e-13 -6.125696e-14 -8.136521e-12) (-9.102285e-12 1.479219e-13 1.049235e-10))
14.182579     	((-6.374120e-09 1.436115e-05 -8.882314e-09) (-3.330336e-11 1.994132e-05 -6.562649e-10)) ((1.603147e-13 -5.192406e-14 -9.647304e-12) (-7.751129e-12 -1.153095e-14 1.194191e-10))
17.031095     	((-5.277599e-09 1.469244e-05 -7.155867e-09) (-1.187490e-10 1.880700e-05 -7.140451e-10)) ((1.325682e-13 -6.596120e-14 -1.163868e-11) (-8.412263e-12 -2.383017e-13 1.542961e-10))
20.449314     	((-3.380510e-09 1.520726e-05 -5.053502e-09) (-2.392995e-10 1.784377e-05 -6.781108e-10)) ((1.254045e-13 -6.234083e-14 -1.410999e-11) (-1.349822e-11 -3.934215e-13 1.853061e-10))
24.551176     	((-1.399165e-10 1.589144e-05 -1.740359e-09) (3.295850e-11 1.703843e-05 -5.468584e-10)) ((5.443540e-14 -7.207906e-14 -1.672734e-11) (-2.387937e-11 -4.895228e-13 2.209742e-10))
29.473411     	((4.279955e-09 1.669618e-05 2.361044e-09) (7.769189e-10 1.637977e-05 -2.219839e-10)) ((-5.192415e-14 -5.001690e-14 -1.963420e-11) (-3.330487e-11 -5.593624e-13 2.682294e-10))
35.30868      	((9.848488e-09 1.755285e-05 6.920400e-09) (1.667590e-09 1.585746e-05 2.300048e-10)) ((-9.418295e-14 -9.886139e-15 -2.263892e-11) (-4.110731e-11 -6.876656e-13 3.120137e-10))
42.050589     	((1.427251e-08 1.838977e-05 1.114998e-08) (2.254348e-09 1.545542e-05 8.208687e-10)) ((-1.332978e-13 7.104778e-15 -2.552489e-11) (-4.756845e-11 -8.857382e-13 3.456064e-10))
49.692216     	((1.827922e-08 1.911101e-05 1.461688e-08) (2.906651e-09 1.514151e-05 1.435749e-09)) ((-1.523157e-13 3.022908e-14 -2.775828e-11) (-5.614237e-11 -8.509792e-13 3.745581e-10))
58.229423     	((2.206813e-08 1.969260e-05 1.856296e-08) (3.377895e-09 1.488427e-05 2.004808e-09)) ((-1.718894e-13 6.487918e-14 -2.943706e-11) (-7.199746e-11 -1.041224e-12 3.942401e-10))
67.190884     	((2.822958e-08 2.016468e-05 2.445392e-08) (3.976138e-09 1.466870e-05 2.704438e-09)) ((-2.291923e-13 1.135023e-13 -3.088713e-11) (-8.947097e-11 -8.856947e-13 3.980665e-10))
76.185405     	((3.131641e-08 2.044236e-05 2.794371e-08) (4.674695e-09 1.448714e-05 3.452980e-09)) ((-2.452625e-13 1.516571e-13 -3.217515e-11) (-1.036859e-10 -8.702471e-13 3.915339e-10))
85.207539     	((3.309384e-08 2.055518e-05 3.021442e-08) (5.484688e-09 1.432922e-05 4.145731e-09)) ((-2.467118e-13 1.821476e-13 -3.322669e-11) (-1.183555e-10 -1.434143e-12 3.802829e-10))
94.242194     	((3.410159e-08 2.056251e-05 3.173793e-08) (6.129211e-09 1.418693e-05 4.683584e-09)) ((-2.506697e-13 2.154206e-13 -3.396510e-11) (-1.305164e-10 -1.507529e-12 3.743291e-10))
103.282807    	((3.593668e-08 2.053201e-05 3.401104e-08) (6.662473e-09 1.405887e-05 5.133204e-09)) ((-2.656257e-13 2.380084e-13 -3.444221e-11) (-1.407648e-10 -1.599787e-12 3.720951e-10))
112.330449    	((3.790158e-08 2.046549e-05 3.626811e-08) (7.130530e-09 1.394303e-05 5.557544e-09)) ((-2.888894e-13 2.643664e-13 -3.476517e-11) (-1.479773e-10 -1.493960e-12 3.628940e-10))
121.386389    	((4.019756e-08 2.038027e-05 3.839543e-08) (7.583340e-09 1.383767e-05 5.945089e-09)) ((-3.212477e-13 2.731736e-13 -3.499532e-11) (-1.526604e-10 -1.511986e-12 3.530383e-10))
130.449999    	((4.214927e-08 2.029327e-05 4.018054e-08) (7.954115e-09 1.374117e-05 6.259086e-09)) ((-3.415640e-13 2.732190e-13 -3.517418e-11) (-1.584714e-10 -1.474435e-12 3.475715e-10))
139.520246    	((4.457410e-08 2.023187e-05 4.206281e-08) (8.273869e-09 1.365424e-05 6.543724e-09)) ((-3.599843e-13 2.591955e-13 -3.533888e-11) (-1.648338e-10 -1.531450e-12 3.459005e-10))
148.59653     	((4.732422e-08 2.018082e-05 4.386494e-08) (8.630201e-09 1.357697e-05 6.823976e-09)) ((-3.928228e-13 2.579377e-13 -3.547268e-11) (-1.710724e-10 -1.561475e-12 3.468289e-10))
157.678391    	((5.013473e-08 2.013075e-05 4.567590e-08) (9.027342e-09 1.350788e-05 7.118946e-09)) ((-4.176811e-13 2.577088e-13 -3.560860e-11) (-1.768284e-10 -1.404582e-12 3.498363e-10))
166.765318    	((5.323639e-08 2.008822e-05 4.778344e-08) (9.438515e-09 1.344621e-05 7.418346e-09)) ((-4.437656e-13 2.549881e-13 -3.574411e-11) (-1.815611e-10 -1.158500e-12 3.547545e-10))
175.856845    	((5.603212e-08 2.004299e-05 4.954176e-08) (9.852825e-09 1.339086e-05 7.726530e-09)) ((-4.588830e-13 2.552929e-13 -3.586983e-11) (-1.857698e-10 -1.008106e-12 3.609496e-10))
184.952592    	((5.951146e-08 2.000207e-05 5.192636e-08) (1.031926e-08 1.334111e-05 8.078792e-09)) ((-4.866473e-13 2.516738e-13 -3.598382e-11) (-1.892293e-10 -1.059750e-12 3.679241e-10))
194.052196    	((6.310343e-08 1.996140e-05 5.429081e-08) (1.084327e-08 1.329627e-05 8.464355e-09)) ((-5.117897e-13 2.442478e-13 -3.608509e-11) (-1.911794e-10 -9.243214e-13 3.749502e-10))
203.155331    	((6.739514e-08 1.992181e-05 5.714109e-08) (1.144491e-08 1.325569e-05 8.900865e-09)) ((-5.386092e-13 2.409740e-13 -3.617650e-11) (-1.925713e-10 -7.697220e-13 3.821370e-10))
212.261722    	((7.155818e-08 1.988245e-05 6.008917e-08) (1.208937e-08 1.321882e-05 9.363321e-09)) ((-5.648348e-13 2.385579e-13 -3.625357e-11) (-1.939675e-10 -5.868780e-13 3.889801e-10))
221.371124    	((7.579060e-08 1.984565e-05 6.308425e-08) (1.278326e-08 1.318521e-05 9.862133e-09)) ((-5.894005e-13 2.383471e-13 -3.632497e-11) (-1.954103e-10 -4.625359e-13 3.948851e-10))
230.483318    	((8.013485e-08 1.981069e-05 6.616161e-08) (1.353814e-08 1.315448e-05 1.039981e-08)) ((-6.177386e-13 2.384155e-13 -3.639062e-11) (-1.964541e-10 -4.359538e-13 3.986578e-10))
239.598097    	((8.469476e-08 1.977820e-05 6.953891e-08) (1.435215e-08 1.312641e-05 1.098304e-08)) ((-6.453794e-13 2.359681e-13 -3.645115e-11) (-1.966276e-10 -3.723837e-13 4.001302e-10))
248.715281    	((8.889944e-08 1.974776e-05 7.262989e-08) (1.518247e-08 1.310076e-05 1.158216e-08)) ((-6.724087e-13 2.334616e-13 -3.650432e-11) (-1.966740e-10 -3.387197e-13 4.010433e-10))
257.834708    	((9.299345e-08 1.971873e-05 7.578264e-08) (1.599780e-08 1.307725e-05 1.217680e-08)) ((-6.963806e-13 2.290323e-13 -3.655370e-11) (-1.969463e-10 -2.584960e-13 4.025075e-10))
266.95623     	((9.713962e-08 1.969164e-05 7.881617e-08) (1.681147e-08 1.305569e-05 1.275346e-08)) ((-7.179772e-13 2.254991e-13 -3.659962e-11) (-1.980233e-10 -2.313753e-13 4.043534e-10))
276.079707    	((1.016031e-07 1.966701e-05 8.173267e-08) (1.764379e-08 1.303595e-05 1.331302e-08)) ((-7.389999e-13 2.183257e-13 -3.663937e-11) (-1.998711e-10 -2.453978e-13 4.065172e-10))
285.205004    	((1.066950e-07 1.964285e-05 8.490316e-08) (1.851965e-08 1.301779e-05 1.387628e-08)) ((-7.650086e-13 2.113290e-13 -3.667236e-11) (-2.018433e-10 -2.911836e-13 4.089328e-10))
294.331994    	((1.118104e-07 1.961992e-05 8.863735e-08) (1.943679e-08 1.300106e-05 1.448050e-08)) ((-7.959232e-13 2.058170e-13 -3.670268e-11) (-2.039664e-10 -3.275471e-13 4.109360e-10))
303.460557    	((1.172004e-07 1.959736e-05 9.218878e-08) (2.039568e-08 1.298556e-05 1.511591e-08)) ((-8.208256e-13 2.005074e-13 -3.672863e-11) (-2.060178e-10 -3.064582e-13 4.128593e-10))
312.590584    	((1.230993e-07 1.957599e-05 9.612378e-08) (2.140726e-08 1.297118e-05 1.579256e-08)) ((-8.505277e-13 1.929618e-13 -3.675128e-11) (-2.081647e-10 -3.152336e-13 4.154157e-10))
321.721979    	((1.292643e-07 1.955539e-05 1.001633e-07) (2.246351e-08 1.295780e-05 1.650399e-08)) ((-8.807766e-13 1.869270e-13 -3.677090e-11) (-2.106041e-10 -3.627699e-13 4.191155e-10))
330.854658    	((1.360516e-07 1.953659e-05 1.046121e-07) (2.358103e-08 1.294538e-05 1.725334e-08)) ((-9.128737e-13 1.823800e-13 -3.679094e-11) (-2.133520e-10 -4.182891e-13 4.241433e-10))
339.988546    	((1.433486e-07 1.951884e-05 1.094133e-07) (2.476868e-08 1.293386e-05 1.805166e-08)) ((-9.507261e-13 1.790221e-13 -3.680979e-11) (-2.165546e-10 -4.551568e-13 4.304583e-10))
349.12357     	((1.509404e-07 1.950208e-05 1.143113e-07) (2.601218e-08 1.292317e-05 1.888814e-08)) ((-9.862492e-13 1.765279e-13 -3.682800e-11) (-2.203949e-10 -5.111828e-13 4.380770e-10))
358.259664    	((1.588944e-07 1.948600e-05 1.193982e-07) (2.731143e-08 1.291322e-05 1.975551e-08)) ((-1.023212e-12 1.758681e-13 -3.684474e-11) (-2.249911e-10 -5.692980e-13 4.469481e-10))
367.396764    	((1.668100e-07 1.947084e-05 1.246678e-07) (2.864754e-08 1.290395e-05 2.065790e-08)) ((-1.062455e-12 1.761618e-13 -3.686130e-11) (-2.302778e-10 -6.001915e-13 4.570025e-10))
376.534815    	((1.750360e-07 1.945648e-05 1.298606e-07) (3.001839e-08 1.289530e-05 2.157390e-08)) ((-1.099501e-12 1.784947e-13 -3.687667e-11) (-2.362250e-10 -6.261609e-13 4.683502e-10))
385.673769    	((1.829721e-07 1.944300e-05 1.352079e-07) (3.139812e-08 1.288724e-05 2.250172e-08)) ((-1.136648e-12 1.815113e-13 -3.689172e-11) (-2.428913e-10 -6.020027e-13 4.807447e-10))
394.813576    	((1.908483e-07 1.943000e-05 1.406532e-07) (3.276597e-08 1.287969e-05 2.344990e-08)) ((-1.171995e-12 1.820512e-13 -3.690579e-11) (-2.501129e-10 -5.267401e-13 4.939584e-10))
403.954184    	((1.987994e-07 1.941771e-05 1.460299e-07) (3.412988e-08 1.287263e-05 2.440115e-08)) ((-1.206313e-12 1.796387e-13 -3.691759e-11) (-2.577991e-10 -4.654385e-13 5.079998e-10))
413.09554     	((2.067821e-07 1.940580e-05 1.513733e-07) (3.549639e-08 1.286598e-05 2.534774e-08)) ((-1.239445e-12 1.744555e-13 -3.692804e-11) (-2.658697e-10 -3.936897e-13 5.226176e-10))
422.237593    	((2.150881e-07 1.939467e-05 1.569876e-07) (3.688219e-08 1.285972e-05 2.630726e-08)) ((-1.276635e-12 1.691904e-13 -3.693700e-11) (-2.742520e-10 -2.852725e-13 5.376659e-10))
431.3803      	((2.238067e-07 1.938421e-05 1.628376e-07) (3.830798e-08 1.285384e-05 2.729327e-08)) ((-1.315178e-12 1.635099e-13 -3.694464e-11) (-2.829238e-10 -2.270317e-13 5.530111e-10))
440.523622    	((2.329166e-07 1.937447e-05 1.690077e-07) (3.978760e-08 1.284831e-05 2.831287e-08)) ((-1.357622e-12 1.585918e-13 -3.695139e-11) (-2.919896e-10 -1.874386e-13 5.686398e-10))
449.667523    	((2.423344e-07 1.936549e-05 1.754349e-07) (4.131960e-08 1.284313e-05 2.937103e-08)) ((-1.401536e-12 1.547331e-13 -3.695768e-11) (-3.015014e-10 -1.546626e-13 5.846595e-10))
458.811971    	((2.521388e-07 1.935722e-05 1.821271e-07) (4.290631e-08 1.283828e-05 3.046837e-08)) ((-1.447513e-12 1.519554e-13 -3.696340e-11) (-3.115904e-10 -1.278659e-13 6.013051e-10))
467.956937    	((2.623316e-07 1.934963e-05 1.891348e-07) (4.455073e-08 1.283376e-05 3.160930e-08)) ((-1.495359e-12 1.496231e-13 -3.696857e-11) (-3.222932e-10 -1.085782e-13 6.187202e-10))
477.102396    	((2.729468e-07 1.934245e-05 1.964478e-07) (4.625409e-08 1.282953e-05 3.279734e-08)) ((-1.544556e-12 1.476819e-13 -3.697339e-11) (-3.336229e-10 -1.021821e-13 6.370025e-10))
486.248321    	((2.840236e-07 1.933578e-05 2.040283e-07) (4.802000e-08 1.282559e-05 3.402905e-08)) ((-1.595554e-12 1.465530e-13 -3.697752e-11) (-3.456238e-10 -1.034407e-13 6.562175e-10))
495.39469     	((2.955439e-07 1.932949e-05 2.118937e-07) (4.985299e-08 1.282190e-05 3.530404e-08)) ((-1.648517e-12 1.457074e-13 -3.698130e-11) (-3.583615e-10 -1.213479e-13 6.763552e-10))
504.541482    	((3.076391e-07 1.932361e-05 2.200656e-07) (5.176163e-08 1.281845e-05 3.662204e-08)) ((-1.703993e-12 1.453096e-13 -3.698418e-11) (-3.719616e-10 -1.395352e-13 6.974805e-10))
513.688677    	((3.202203e-07 1.931813e-05 2.285814e-07) (5.374685e-08 1.281523e-05 3.798588e-08)) ((-1.761992e-12 1.449897e-13 -3.698659e-11) (-3.864746e-10 -1.647507e-13 7.197536e-10))
522.836259    	((3.333188e-07 1.931307e-05 2.374223e-07) (5.580952e-08 1.281221e-05 3.939848e-08)) ((-1.821748e-12 1.440528e-13 -3.698839e-11) (-4.018638e-10 -1.541152e-13 7.432778e-10))
531.984211    	((3.469658e-07 1.930841e-05 2.466043e-07) (5.795324e-08 1.280940e-05 4.086080e-08)) ((-1.883485e-12 1.425932e-13 -3.698977e-11) (-4.181495e-10 -1.180452e-13 7.680639e-10))
541.132519    	((3.610803e-07 1.930410e-05 2.561353e-07) (6.017613e-08 1.280678e-05 4.237451e-08)) ((-1.946987e-12 1.408670e-13 -3.699065e-11) (-4.353605e-10 -6.164858e-14 7.940552e-10))
550.281169    	((3.757371e-07 1.930010e-05 2.660505e-07) (6.248095e-08 1.280434e-05 4.394297e-08)) ((-2.012675e-12 1.380143e-13 -3.699090e-11) (-4.534297e-10 2.803270e-15 8.212490e-10))
559.430149    	((3.909209e-07 1.929641e-05 2.763467e-07) (6.487187e-08 1.280206e-05 4.557020e-08)) ((-2.080788e-12 1.346089e-13 -3.699062e-11) (-4.723341e-10 5.993830e-14 8.495988e-10))
568.579445    	((4.066297e-07 1.929300e-05 2.870358e-07) (6.735078e-08 1.279993e-05 4.725922e-08)) ((-2.151727e-12 1.301664e-13 -3.699011e-11) (-4.920150e-10 9.050999e-14 8.790495e-10))
