# Forces      
# CofR        : (0.000000e+00 0.000000e+00 0.000000e+00)
# Time        forces(pressure viscous)	moments(pressure viscous)
0             	((0.000000e+00 0.000000e+00 0.000000e+00) (4.000695e-02 -5.625043e-12 2.857540e-12)) ((0.000000e+00 0.000000e+00 0.000000e+00) (-7.911885e-14 -4.863661e-13 8.471626e-13))
0.0115188     	((1.228587e+01 9.233387e-04 8.196001e-04) (7.805247e-02 9.737325e-07 2.108512e-07)) ((-9.974838e-09 -9.715627e-09 6.714318e-10) (2.024929e-10 -6.863084e-08 6.038368e-08))
0.0253414     	((-5.232876e+00 -8.186142e-04 -9.773192e-04) (7.299227e-02 -9.390111e-08 -1.784083e-06)) ((-2.023842e-09 -9.354812e-08 -1.723065e-08) (6.474769e-10 -3.408756e-07 3.184763e-07))
0.0419285     	((7.503289e-01 2.347110e-04 3.231189e-04) (5.913087e-02 -1.714092e-06 -1.571732e-06)) ((9.169896e-09 8.922689e-08 2.311946e-08) (-1.532230e-09 -1.801157e-07 1.519189e-07))
0.0618331     	((-3.385851e-01 -5.626369e-04 -5.691743e-04) (5.395622e-02 -3.409912e-06 -2.539896e-06)) ((5.971538e-09 -3.389195e-08 -5.329961e-09) (-3.128402e-09 -5.176379e-08 3.529169e-08))
0.0857185     	((2.367716e-01 4.919135e-05 5.364261e-05) (5.050136e-02 -2.897057e-06 -1.712294e-06)) ((1.431291e-08 1.408058e-08 3.544051e-09) (-1.669140e-09 -9.470943e-08 6.672858e-08))
0.113795      	((-1.499935e-03 -5.809623e-05 -2.483698e-05) (4.879665e-02 -1.281042e-06 4.777105e-07)) ((1.131007e-08 -6.321082e-09 -5.524286e-09) (-1.527326e-09 -2.461100e-08 -5.086420e-10))
0.146039      	((1.080699e-01 5.492001e-05 9.879248e-05) (4.755544e-02 -5.521953e-07 1.532311e-06)) ((1.311499e-09 5.925846e-09 -4.184064e-09) (-1.243787e-09 -1.297089e-08 -2.473743e-09))
0.182409      	((6.942796e-02 -5.431076e-05 -3.353753e-05) (4.669481e-02 4.963474e-08 1.509712e-06)) ((1.513448e-09 1.343945e-09 -1.419052e-09) (1.876875e-09 9.374400e-09 -3.622913e-08))
0.222907      	((1.032699e-01 -3.414863e-05 -3.287765e-05) (4.611026e-02 -4.701608e-07 4.356793e-07)) ((3.515364e-09 3.558828e-10 -3.474950e-09) (1.003291e-09 5.077337e-08 -7.428497e-08))
0.264142      	((1.021710e-01 -1.275715e-04 -1.287816e-04) (4.575724e-02 -1.146275e-06 1.273674e-07)) ((8.722471e-10 -4.384227e-09 -2.928997e-09) (9.011452e-10 6.632233e-08 -8.710443e-08))
0.305358      	((1.197361e-01 -1.653207e-04 -1.535366e-04) (4.552811e-02 -1.524186e-06 -3.444644e-07)) ((1.847240e-10 -1.067479e-09 -1.834425e-09) (2.214718e-09 6.884225e-08 -9.828322e-08))
0.346375      	((1.271846e-01 -2.135353e-04 -2.416395e-04) (4.534623e-02 -2.006907e-06 -1.384090e-06)) ((1.443341e-09 -5.922567e-09 2.129074e-10) (2.554080e-09 6.579830e-08 -9.937312e-08))
0.387135      	((1.381492e-01 -2.328445e-04 -2.374219e-04) (4.512836e-02 -2.213654e-06 -1.156060e-06)) ((-2.261626e-11 -3.492660e-09 -1.918611e-10) (1.924892e-09 5.890752e-08 -8.849193e-08))
0.427694      	((1.443802e-01 -2.668936e-04 -2.750003e-04) (4.484947e-02 -2.152095e-06 -1.150247e-06)) ((-4.219509e-10 -2.653691e-09 -1.286156e-10) (2.761118e-09 3.714068e-08 -6.903621e-08))
0.468163      	((1.496769e-01 -2.958563e-04 -3.229307e-04) (4.452163e-02 -2.139956e-06 -1.520045e-06)) ((-1.002407e-09 -2.631038e-09 -2.125805e-09) (3.516941e-09 2.269103e-08 -5.335097e-08))
0.508691      	((1.515502e-01 -3.421360e-04 -3.752957e-04) (4.418500e-02 -2.299921e-06 -1.893279e-06)) ((1.638900e-09 -2.543194e-09 -4.986492e-09) (2.997087e-09 2.694067e-08 -5.619575e-08))
0.549351      	((1.527181e-01 -3.876729e-04 -4.352238e-04) (4.387853e-02 -2.994338e-06 -2.773679e-06)) ((2.323258e-09 -5.935463e-09 -3.479887e-09) (2.684401e-09 3.602456e-08 -5.866606e-08))
0.590133      	((1.523240e-01 -4.518016e-04 -5.188049e-04) (4.360698e-02 -3.145820e-06 -3.884495e-06)) ((9.252464e-10 -7.169382e-09 -2.621229e-09) (3.810868e-09 2.125221e-08 -4.813164e-08))
0.630988      	((1.508031e-01 -4.895355e-04 -5.596758e-04) (4.336131e-02 -3.018801e-06 -3.708794e-06)) ((1.125891e-09 -7.267156e-09 -3.127060e-09) (4.819059e-09 -4.645773e-09 -2.187389e-08))
0.671882      	((1.489221e-01 -5.545449e-04 -6.194364e-04) (4.313973e-02 -3.275025e-06 -3.312291e-06)) ((5.370310e-10 -7.173643e-09 -4.038777e-09) (5.282812e-09 -3.323042e-08 5.838860e-09))
0.712818      	((1.470639e-01 -6.586427e-04 -7.274742e-04) (4.293944e-02 -3.549019e-06 -3.535529e-06)) ((3.324536e-10 -7.110253e-09 -4.338288e-09) (5.304747e-09 -6.266359e-08 2.918257e-08))
0.753785      	((1.457277e-01 -7.760795e-04 -8.476236e-04) (4.275623e-02 -4.203025e-06 -4.229829e-06)) ((5.093228e-10 -8.005856e-09 -4.579962e-09) (5.303461e-09 -9.393894e-08 5.040916e-08))
0.794777      	((1.448148e-01 -9.170962e-04 -9.982556e-04) (4.258777e-02 -5.410578e-06 -5.104417e-06)) ((9.840807e-10 -1.020584e-08 -4.813272e-09) (4.805039e-09 -1.251846e-07 7.558787e-08))
0.835788      	((1.442286e-01 -1.042499e-03 -1.143716e-03) (4.243517e-02 -6.535594e-06 -5.809942e-06)) ((2.228086e-09 -1.263611e-08 -4.765401e-09) (4.266285e-09 -1.590960e-07 1.024353e-07))
0.876818      	((1.436058e-01 -1.182744e-03 -1.305852e-03) (4.229830e-02 -7.293996e-06 -6.643548e-06)) ((2.549030e-09 -1.454663e-08 -4.521953e-09) (3.576419e-09 -2.085337e-07 1.406413e-07))
0.917868      	((1.426425e-01 -1.367000e-03 -1.479610e-03) (4.217380e-02 -7.899683e-06 -7.402122e-06)) ((2.240235e-09 -1.710584e-08 -5.142829e-09) (3.144532e-09 -2.691715e-07 1.934665e-07))
0.958936      	((1.416071e-01 -1.526406e-03 -1.689225e-03) (4.205893e-02 -8.534199e-06 -8.448549e-06)) ((2.639168e-09 -2.041450e-08 -5.602218e-09) (3.767558e-09 -3.392692e-07 2.572901e-07))
1.00002       	((1.406946e-01 -1.723852e-03 -1.907132e-03) (4.195181e-02 -9.297351e-06 -9.637257e-06)) ((3.128626e-09 -2.461224e-08 -6.831681e-09) (3.751155e-09 -4.189316e-07 3.276977e-07))
1.04112       	((1.399328e-01 -1.948045e-03 -2.156339e-03) (4.185099e-02 -1.024370e-05 -1.089796e-05)) ((3.207541e-09 -2.759678e-08 -8.356313e-09) (2.669003e-09 -5.044371e-07 4.089571e-07))
1.082233      	((1.393960e-01 -2.206088e-03 -2.444275e-03) (4.175641e-02 -1.138897e-05 -1.232498e-05)) ((3.486391e-09 -3.037564e-08 -9.885253e-09) (1.758708e-09 -6.005315e-07 5.056462e-07))
1.123357      	((1.389904e-01 -2.507317e-03 -2.766543e-03) (4.166904e-02 -1.255924e-05 -1.356995e-05)) ((3.745536e-09 -3.467039e-08 -1.139427e-08) (2.315136e-09 -7.169173e-07 6.176092e-07))
1.164492      	((1.386418e-01 -2.848333e-03 -3.143638e-03) (4.158932e-02 -1.367719e-05 -1.473633e-05)) ((4.131344e-09 -3.945379e-08 -1.324352e-08) (3.002175e-09 -8.535747e-07 7.455551e-07))
1.205638      	((1.382867e-01 -3.247087e-03 -3.579735e-03) (4.151638e-02 -1.489438e-05 -1.590894e-05)) ((5.446527e-09 -4.400151e-08 -1.502478e-08) (4.142078e-09 -1.018489e-06 8.942841e-07))
1.246792      	((1.378961e-01 -3.717600e-03 -4.070419e-03) (4.144907e-02 -1.640247e-05 -1.742994e-05)) ((6.241455e-09 -4.824032e-08 -1.745927e-08) (5.493599e-09 -1.201973e-06 1.063280e-06))
1.287955      	((1.374913e-01 -4.276238e-03 -4.653151e-03) (4.138685e-02 -1.837374e-05 -1.936145e-05)) ((6.488745e-09 -5.378634e-08 -1.907103e-08) (6.574230e-09 -1.408489e-06 1.256249e-06))
1.329125      	((1.370920e-01 -4.905604e-03 -5.333447e-03) (4.132968e-02 -2.061457e-05 -2.163626e-05)) ((6.492500e-09 -5.942254e-08 -1.993195e-08) (7.272209e-09 -1.637954e-06 1.488660e-06))
1.370301      	((1.367048e-01 -5.632460e-03 -6.109947e-03) (4.127761e-02 -2.295180e-05 -2.450390e-05)) ((7.070851e-09 -6.651802e-08 -2.093881e-08) (9.114288e-09 -1.887376e-06 1.759911e-06))
1.411482      	((1.363091e-01 -6.459442e-03 -6.990338e-03) (4.123035e-02 -2.568793e-05 -2.798707e-05)) ((7.921560e-09 -7.506883e-08 -2.254137e-08) (1.000892e-08 -2.169286e-06 2.056114e-06))
1.452667      	((1.358538e-01 -7.391778e-03 -7.972955e-03) (4.118717e-02 -2.899998e-05 -3.201943e-05)) ((8.608670e-09 -8.488551e-08 -2.551091e-08) (7.332378e-09 -2.489132e-06 2.382825e-06))
1.493856      	((1.353573e-01 -8.455952e-03 -9.090241e-03) (4.114743e-02 -3.312047e-05 -3.669186e-05)) ((8.991025e-09 -9.580139e-08 -3.005559e-08) (3.312745e-09 -2.854595e-06 2.744732e-06))
1.535046      	((1.348263e-01 -9.660937e-03 -1.034005e-02) (4.111047e-02 -3.821686e-05 -4.208461e-05)) ((9.786152e-09 -1.084611e-07 -3.564868e-08) (1.661495e-09 -3.274504e-06 3.149069e-06))
1.576237      	((1.343633e-01 -1.101703e-02 -1.175870e-02) (4.107620e-02 -4.414054e-05 -4.819268e-05)) ((1.101358e-08 -1.239602e-07 -4.056642e-08) (3.061312e-09 -3.750465e-06 3.605898e-06))
1.617428      	((1.339452e-01 -1.256614e-02 -1.336402e-02) (4.104462e-02 -5.075801e-05 -5.512159e-05)) ((1.272823e-08 -1.414338e-07 -4.563230e-08) (4.771371e-09 -4.285319e-06 4.125994e-06))
1.658617      	((1.335844e-01 -1.431789e-02 -1.516211e-02) (4.101548e-02 -5.818065e-05 -6.297541e-05)) ((1.537969e-08 -1.614653e-07 -5.184499e-08) (2.336625e-09 -4.886247e-06 4.721196e-06))
1.699803      	((1.332639e-01 -1.629732e-02 -1.718447e-02) (4.098850e-02 -6.647520e-05 -7.178322e-05)) ((1.845570e-08 -1.846770e-07 -5.961995e-08) (-6.920529e-09 -5.564620e-06 5.403426e-06))
1.740986      	((1.330031e-01 -1.855656e-02 -1.944991e-02) (4.096349e-02 -7.570929e-05 -8.159788e-05)) ((2.158334e-08 -2.109996e-07 -6.844052e-08) (-2.275439e-08 -6.332839e-06 6.184665e-06))
1.782162      	((1.328158e-01 -2.114242e-02 -2.201460e-02) (4.094035e-02 -8.627625e-05 -9.244319e-05)) ((2.480340e-08 -2.411523e-07 -7.829371e-08) (-4.105354e-08 -7.205163e-06 7.076849e-06))
1.823332      	((1.327354e-01 -2.408080e-02 -2.491793e-02) (4.091897e-02 -9.848545e-05 -1.045742e-04)) ((2.833976e-08 -2.761616e-07 -8.918464e-08) (-5.866436e-08 -8.200741e-06 8.092343e-06))
1.864493      	((1.327607e-01 -2.743208e-02 -2.822409e-02) (4.089929e-02 -1.124184e-04 -1.184391e-04)) ((3.198742e-08 -3.151103e-07 -1.011413e-07) (-7.344233e-08 -9.326703e-06 9.251701e-06))
1.905643      	((1.328997e-01 -3.124491e-02 -3.199593e-02) (4.088148e-02 -1.283380e-04 -1.344734e-04)) ((3.647103e-08 -3.583582e-07 -1.147424e-07) (-8.500387e-08 -1.059395e-05 1.057123e-05))
1.94678       	((1.331785e-01 -3.553530e-02 -3.629053e-02) (4.086561e-02 -1.462532e-04 -1.526244e-04)) ((4.348869e-08 -4.070114e-07 -1.301493e-07) (-8.810076e-08 -1.204398e-05 1.206219e-05))
1.987903      	((1.336328e-01 -4.033901e-02 -4.114751e-02) (4.085196e-02 -1.664395e-04 -1.730767e-04)) ((5.183394e-08 -4.611823e-07 -1.461334e-07) (-8.042044e-08 -1.370338e-05 1.374027e-05))
2.029009      	((1.342717e-01 -4.574131e-02 -4.661519e-02) (4.084064e-02 -1.892157e-04 -1.961983e-04)) ((6.347651e-08 -5.224819e-07 -1.620739e-07) (-6.696543e-08 -1.558912e-05 1.562920e-05))
2.070095      	((1.351410e-01 -5.179939e-02 -5.278818e-02) (4.083221e-02 -2.151312e-04 -2.222060e-04)) ((7.671993e-08 -5.932535e-07 -1.777478e-07) (-4.823194e-08 -1.771837e-05 1.772421e-05))
2.111158      	((1.362053e-01 -5.859404e-02 -5.968383e-02) (4.082749e-02 -2.453493e-04 -2.516742e-04)) ((9.196523e-08 -6.711161e-07 -1.942226e-07) (-2.558457e-08 -2.009635e-05 2.001469e-05))
2.152196      	((1.375400e-01 -6.622907e-02 -6.737958e-02) (4.082713e-02 -2.813285e-04 -2.862065e-04)) ((1.105264e-07 -7.572709e-07 -2.111968e-07) (-8.236495e-09 -2.270412e-05 2.249630e-05))
2.193205      	((1.392252e-01 -7.468921e-02 -7.595013e-02) (4.083273e-02 -3.234030e-04 -3.267069e-04)) ((1.321024e-07 -8.536866e-07 -2.264125e-07) (1.271954e-08 -2.553155e-05 2.516373e-05))
2.234182      	((1.413655e-01 -8.404888e-02 -8.548083e-02) (4.084622e-02 -3.716990e-04 -3.731766e-04)) ((1.580825e-07 -9.625889e-07 -2.383024e-07) (3.764202e-08 -2.859258e-05 2.802612e-05))
2.275123      	((1.438537e-01 -9.432506e-02 -9.602910e-02) (4.086918e-02 -4.265491e-04 -4.265595e-04)) ((1.940681e-07 -1.079228e-06 -2.478869e-07) (6.160662e-08 -3.188560e-05 3.110074e-05))
2.316025      	((1.468104e-01 -1.055808e-01 -1.076142e-01) (4.090357e-02 -4.886744e-04 -4.879566e-04)) ((2.436865e-07 -1.205640e-06 -2.518995e-07) (8.659854e-08 -3.541612e-05 3.439407e-05))
2.356884      	((1.504966e-01 -1.178046e-01 -1.201722e-01) (4.095178e-02 -5.587806e-04 -5.579397e-04)) ((2.965232e-07 -1.334495e-06 -2.496192e-07) (1.046568e-07 -3.919789e-05 3.794176e-05))
2.397695      	((1.552694e-01 -1.307842e-01 -1.336331e-01) (4.101505e-02 -6.367494e-04 -6.364629e-04)) ((3.607826e-07 -1.467339e-06 -2.402098e-07) (1.214739e-07 -4.321418e-05 4.172148e-05))
2.438437      	((1.610067e-01 -1.445129e-01 -1.479580e-01) (4.109447e-02 -7.221378e-04 -7.237071e-04)) ((4.373034e-07 -1.603077e-06 -2.322293e-07) (1.580919e-07 -4.748917e-05 4.568168e-05))
2.479087      	((1.678971e-01 -1.585200e-01 -1.627047e-01) (4.119252e-02 -8.164921e-04 -8.203460e-04)) ((5.158847e-07 -1.731242e-06 -2.267051e-07) (2.210698e-07 -5.199814e-05 4.979263e-05))
2.519641      	((1.757900e-01 -1.727286e-01 -1.778253e-01) (4.130984e-02 -9.189570e-04 -9.249095e-04)) ((6.099949e-07 -1.850739e-06 -2.219472e-07) (2.808332e-07 -5.661543e-05 5.398560e-05))
2.560094      	((1.846830e-01 -1.865525e-01 -1.926720e-01) (4.144642e-02 -1.026364e-03 -1.035436e-03)) ((7.073824e-07 -1.949598e-06 -2.220748e-07) (3.453058e-07 -6.122078e-05 5.817681e-05))
2.600445      	((1.948324e-01 -1.993061e-01 -2.065148e-01) (4.160529e-02 -1.138386e-03 -1.152146e-03)) ((7.991199e-07 -2.020256e-06 -2.272192e-07) (4.545226e-07 -6.568078e-05 6.221352e-05))
2.640692      	((2.060728e-01 -2.100531e-01 -2.182007e-01) (4.178748e-02 -1.253046e-03 -1.273228e-03)) ((8.674232e-07 -2.052669e-06 -2.380706e-07) (6.001796e-07 -6.981755e-05 6.596161e-05))
2.680835      	((2.171853e-01 -2.180626e-01 -2.271658e-01) (4.198906e-02 -1.364796e-03 -1.392861e-03)) ((9.026049e-07 -2.039623e-06 -2.575852e-07) (7.483600e-07 -7.344382e-05 6.929150e-05))
2.720878      	((2.275356e-01 -2.227129e-01 -2.325871e-01) (4.220556e-02 -1.467692e-03 -1.505036e-03)) ((9.094635e-07 -1.974540e-06 -2.933529e-07) (8.969243e-07 -7.649714e-05 7.216193e-05))
2.760826      	((2.361807e-01 -2.231690e-01 -2.338884e-01) (4.242324e-02 -1.555110e-03 -1.602251e-03)) ((8.897990e-07 -1.859371e-06 -3.401902e-07) (1.050656e-06 -7.897903e-05 7.440519e-05))
2.800688      	((2.423476e-01 -2.189841e-01 -2.300939e-01) (4.262787e-02 -1.617642e-03 -1.671169e-03)) ((8.320487e-07 -1.726214e-06 -3.687051e-07) (1.180737e-06 -8.088474e-05 7.596785e-05))
2.840479      	((2.446381e-01 -2.104958e-01 -2.219029e-01) (4.281042e-02 -1.646338e-03 -1.701415e-03)) ((7.450089e-07 -1.616135e-06 -3.480269e-07) (1.264723e-06 -8.217386e-05 7.689507e-05))
2.880214      	((2.437545e-01 -1.980971e-01 -2.097161e-01) (4.296687e-02 -1.628806e-03 -1.685447e-03)) ((6.390895e-07 -1.496509e-06 -2.976277e-07) (1.330601e-06 -8.305484e-05 7.744981e-05))
2.919914      	((2.401027e-01 -1.827347e-01 -1.940148e-01) (4.309505e-02 -1.562126e-03 -1.619217e-03)) ((5.315512e-07 -1.335113e-06 -2.318366e-07) (1.418188e-06 -8.350363e-05 7.766788e-05))
2.959601      	((2.345419e-01 -1.658915e-01 -1.769894e-01) (4.319533e-02 -1.451996e-03 -1.508772e-03)) ((4.324417e-07 -1.158139e-06 -1.515025e-07) (1.512043e-06 -8.342494e-05 7.749559e-05))
2.999296      	((2.286265e-01 -1.497030e-01 -1.608982e-01) (4.327410e-02 -1.311907e-03 -1.371246e-03)) ((3.566223e-07 -1.000060e-06 -7.443718e-08) (1.570186e-06 -8.269009e-05 7.682845e-05))
3.03902       	((2.217472e-01 -1.369281e-01 -1.481576e-01) (4.333950e-02 -1.159525e-03 -1.219144e-03)) ((3.581352e-07 -8.943435e-07 -4.414306e-08) (1.630661e-06 -8.146943e-05 7.564862e-05))
3.078787      	((2.149143e-01 -1.285884e-01 -1.402469e-01) (4.340312e-02 -1.010290e-03 -1.072300e-03)) ((4.121431e-07 -8.507597e-07 -7.058809e-08) (1.678318e-06 -8.002293e-05 7.422665e-05))
3.118607      	((2.079110e-01 -1.246218e-01 -1.367314e-01) (4.347344e-02 -8.796587e-04 -9.447737e-04)) ((5.002754e-07 -8.728826e-07 -1.188053e-07) (1.730261e-06 -7.848477e-05 7.270890e-05))
3.158483      	((2.014941e-01 -1.242803e-01 -1.365110e-01) (4.355049e-02 -7.846439e-04 -8.520882e-04)) ((6.224071e-07 -9.227148e-07 -1.424344e-07) (1.800571e-06 -7.659936e-05 7.086519e-05))
3.198413      	((1.946751e-01 -1.258363e-01 -1.384841e-01) (4.363160e-02 -7.399208e-04 -8.150230e-04)) ((7.457577e-07 -9.873555e-07 -1.427728e-07) (1.831141e-06 -7.379532e-05 6.823729e-05))
3.23839       	((1.874466e-01 -1.278198e-01 -1.407550e-01) (4.370018e-02 -7.434250e-04 -8.279336e-04)) ((8.304752e-07 -1.049446e-06 -1.365480e-07) (1.811376e-06 -7.013271e-05 6.493113e-05))
3.278404      	((1.801738e-01 -1.292965e-01 -1.424308e-01) (4.373839e-02 -7.772632e-04 -8.690380e-04)) ((8.941013e-07 -1.095079e-06 -1.667226e-07) (1.820963e-06 -6.642486e-05 6.152022e-05))
3.318444      	((1.729409e-01 -1.289685e-01 -1.421795e-01) (4.374180e-02 -8.069206e-04 -8.998496e-04)) ((8.996949e-07 -1.208030e-06 -1.948808e-07) (1.896563e-06 -6.401310e-05 5.899721e-05))
3.358499      	((1.677990e-01 -1.264752e-01 -1.393367e-01) (4.372139e-02 -8.133922e-04 -8.972473e-04)) ((8.293183e-07 -1.335828e-06 -1.808939e-07) (1.947187e-06 -6.308362e-05 5.756720e-05))
3.398561      	((1.661539e-01 -1.208542e-01 -1.332837e-01) (4.369475e-02 -7.951930e-04 -8.718479e-04)) ((6.880393e-07 -1.362317e-06 -1.329619e-07) (1.833249e-06 -6.278736e-05 5.675691e-05))
3.438627      	((1.669071e-01 -1.123691e-01 -1.242166e-01) (4.367729e-02 -7.601594e-04 -8.327893e-04)) ((4.871989e-07 -1.227242e-06 -1.193392e-07) (1.577745e-06 -6.220787e-05 5.583763e-05))
3.478694      	((1.685216e-01 -1.010563e-01 -1.122576e-01) (4.366833e-02 -7.130661e-04 -7.831268e-04)) ((2.677443e-07 -9.352359e-07 -1.712104e-07) (1.270940e-06 -6.086996e-05 5.446057e-05))
3.518769      	((1.694275e-01 -8.781049e-02 -9.826841e-02) (4.366172e-02 -6.552506e-04 -7.311098e-04)) ((8.364855e-08 -6.462538e-07 -2.741538e-07) (9.007283e-07 -5.852582e-05 5.245572e-05))
3.558859      	((1.700939e-01 -7.300259e-02 -8.274516e-02) (4.365595e-02 -5.924128e-04 -6.680947e-04)) ((-9.886059e-08 -3.888219e-07 -3.667312e-07) (6.735323e-07 -5.533329e-05 4.955987e-05))
3.598974      	((1.707877e-01 -5.839394e-02 -6.685819e-02) (4.365147e-02 -5.233757e-04 -6.044114e-04)) ((-2.589193e-07 -1.566781e-07 -4.133680e-07) (4.481314e-07 -5.104669e-05 4.589833e-05))
