# Forces      
# CofR        : (0.000000e+00 0.000000e+00 0.000000e+00)
# Time        forces(pressure viscous)	moments(pressure viscous)
0             	((0.000000e+00 0.000000e+00 0.000000e+00) (0.000000e+00 0.000000e+00 0.000000e+00)) ((0.000000e+00 0.000000e+00 0.000000e+00) (0.000000e+00 0.000000e+00 0.000000e+00))
0.012         	((8.262255e-10 -8.994844e-10 1.781126e-09) (7.892934e-12 -1.763571e-12 -1.218915e-11)) ((-8.029546e-09 7.658405e-13 1.528902e-14) (-5.562738e-06 -6.412592e-13 2.678968e-13))
0.0264        	((-9.176593e-10 -1.461263e-09 3.261962e-09) (5.434247e-11 9.960881e-12 -9.524736e-12)) ((-4.011817e-09 6.001896e-13 -1.555447e-13) (-5.095462e-06 -1.056583e-12 3.418297e-13))
0.04368       	((3.525730e-09 2.277535e-09 3.588722e-09) (9.705526e-11 3.150577e-11 -2.519272e-12)) ((-2.279041e-09 4.948709e-13 -1.688521e-13) (-4.616291e-06 -7.030442e-13 -2.702390e-13))
0.064416      	((-5.773490e-10 -1.998690e-10 8.984593e-10) (1.166126e-10 4.829143e-11 3.388185e-12)) ((-1.343432e-09 3.604969e-13 5.413544e-14) (-4.136549e-06 9.428164e-14 -1.005289e-12))
0.0892992     	((1.037753e-09 9.895866e-10 7.020855e-10) (1.677824e-10 5.619172e-11 1.146065e-11)) ((-1.053828e-09 3.685805e-13 -5.598384e-14) (-3.671089e-06 6.261709e-13 -1.252388e-12))
0.119159      	((2.076240e-09 7.275137e-10 2.361342e-09) (1.749237e-10 5.168750e-11 2.071723e-11)) ((-7.966719e-10 2.662830e-13 -8.939932e-15) (-3.234844e-06 8.923730e-13 -1.107523e-12))
0.154991      	((2.640421e-09 -1.628936e-09 -1.305017e-09) (1.587212e-10 4.079089e-11 3.054567e-11)) ((-6.589574e-10 1.978278e-13 2.837755e-14) (-2.838232e-06 1.296907e-12 -8.767139e-13))
0.197989      	((8.390984e-10 -6.238849e-10 1.911789e-10) (9.921162e-11 3.203397e-11 3.558799e-11)) ((-5.382212e-10 1.140613e-13 -1.732252e-14) (-2.487674e-06 1.644000e-12 -7.457371e-13))
0.249587      	((3.748394e-09 -1.364424e-10 5.709803e-10) (-1.120070e-11 3.255559e-11 3.590225e-11)) ((-4.557624e-10 9.828859e-14 -2.103136e-14) (-2.185184e-06 1.764191e-12 -7.013548e-13))
0.311504      	((9.789198e-11 -4.703500e-10 8.022097e-10) (-1.059255e-10 2.899743e-11 3.402746e-11)) ((-3.931981e-10 1.102409e-13 -4.102896e-14) (-1.929037e-06 1.836742e-12 -7.080094e-13))
0.385805      	((-1.360293e-09 -7.019486e-10 8.562121e-10) (-1.638870e-10 1.410668e-11 3.879611e-11)) ((-3.491259e-10 1.035414e-13 -7.075321e-14) (-1.713538e-06 2.176049e-12 -8.283013e-13))
0.474966      	((4.425413e-10 -1.214421e-09 1.149518e-09) (-1.492911e-10 -1.287981e-11 4.259425e-11)) ((-3.173184e-10 1.218923e-13 -1.140291e-13) (-1.531061e-06 2.783899e-12 -1.034881e-12))
0.581959      	((8.610390e-10 -1.838199e-09 1.074538e-09) (3.196960e-12 -3.039213e-11 4.269620e-11)) ((-2.856988e-10 1.059159e-13 -1.222683e-13) (-1.374989e-06 3.424602e-12 -1.367832e-12))
0.710351      	((-4.501802e-09 -1.922164e-09 1.794935e-09) (1.121789e-11 -1.589138e-11 9.038708e-11)) ((-2.549347e-10 9.160802e-14 -1.251638e-13) (-1.239922e-06 4.052808e-12 -1.733429e-12))
0.864421      	((-1.634629e-09 -1.201636e-09 3.019975e-09) (-2.743751e-11 4.166209e-11 1.400888e-10)) ((-2.328484e-10 6.394557e-14 -1.071270e-13) (-1.121670e-06 4.319920e-12 -1.867153e-12))
1.049306      	((-1.649218e-09 -1.137630e-09 4.360026e-09) (9.999691e-12 8.273370e-11 1.194208e-10)) ((-2.173296e-10 1.789724e-14 -9.843296e-14) (-1.017026e-06 3.959252e-12 -2.506052e-12))
1.271167      	((-1.146311e-09 -1.837200e-09 4.630887e-09) (-2.736765e-11 9.622346e-11 8.716848e-11)) ((-2.034110e-10 1.236888e-14 -1.161370e-13) (-9.236132e-07 3.065932e-12 -3.768134e-12))
1.5374        	((9.376677e-10 -2.279450e-09 2.673987e-09) (5.371767e-11 1.040641e-10 4.352872e-11)) ((-1.864563e-10 -6.887951e-14 -5.634551e-14) (-8.398633e-07 2.088232e-12 -4.982204e-12))
1.85688       	((-1.339849e-09 -2.713411e-09 2.204463e-09) (1.997134e-10 1.984561e-10 -8.381400e-11)) ((-1.684240e-10 -1.525832e-13 -3.805888e-15) (-7.649139e-07 -2.679733e-13 -7.011456e-12))
2.240256      	((5.767369e-10 -1.281848e-09 3.153607e-09) (2.589644e-10 3.646536e-10 -2.235214e-10)) ((-1.534049e-10 -1.683897e-13 -1.863215e-15) (-6.983076e-07 -2.710433e-12 -1.023387e-11))
2.700307      	((-8.193905e-10 -1.637014e-09 3.056168e-09) (4.079924e-10 5.516393e-10 -2.314470e-10)) ((-1.414896e-10 -1.446566e-13 -7.251339e-15) (-6.395896e-07 -4.021742e-12 -1.281549e-11))
3.252369      	((8.577417e-11 -4.937741e-10 3.000003e-09) (5.196503e-10 6.568332e-10 -2.494009e-10)) ((-1.295555e-10 -1.189183e-13 -1.444057e-14) (-5.880831e-07 -5.460539e-12 -1.420243e-11))
3.914842      	((-2.846492e-10 5.978655e-10 3.418814e-09) (4.500104e-10 7.138852e-10 -2.273957e-10)) ((-1.179545e-10 -1.202715e-13 3.205851e-14) (-5.428638e-07 -6.794960e-12 -1.398838e-11))
4.709811      	((5.279591e-10 1.613467e-09 2.396778e-09) (4.126318e-10 6.629530e-10 -1.770239e-10)) ((-1.073693e-10 -1.121818e-13 4.862443e-14) (-5.028810e-07 -7.992280e-12 -1.172620e-11))
5.663773      	((4.346837e-10 1.807491e-09 1.510927e-09) (2.308191e-10 5.018498e-10 -1.563597e-11)) ((-9.699150e-11 -7.615660e-14 1.818374e-14) (-4.671288e-07 -8.411533e-12 -7.435091e-12))
6.808528      	((1.133095e-09 1.295874e-09 4.339825e-10) (-3.717865e-11 2.925528e-10 1.289345e-10)) ((-8.739275e-11 -6.590697e-14 2.803280e-14) (-4.347881e-07 -7.750919e-12 -4.254850e-12))
8.182233      	((1.490111e-10 1.274663e-09 -3.842594e-11) (-2.025857e-10 1.623480e-10 2.496080e-10)) ((-7.864259e-11 -5.368357e-14 5.012865e-14) (-4.053130e-07 -5.866275e-12 -3.523468e-12))
9.83068       	((-8.746338e-11 1.065653e-09 -6.698403e-11) (-3.226086e-10 8.905152e-11 3.171099e-10)) ((-7.061566e-11 -3.482911e-14 6.831647e-14) (-3.782995e-07 -3.751463e-12 -4.440228e-12))
11.808816     	((-6.979770e-10 4.190890e-10 6.471504e-11) (-4.926141e-10 1.146519e-10 3.172709e-10)) ((-6.353898e-11 -3.717659e-14 1.261244e-13) (-3.534117e-07 -1.966012e-12 -6.475389e-12))
14.182579     	((-6.881415e-10 3.007826e-11 1.310803e-10) (-4.756468e-10 1.482823e-10 3.172441e-10)) ((-5.721384e-11 -5.224152e-14 1.580472e-13) (-3.304471e-07 -3.579111e-14 -6.938462e-12))
17.031095     	((-6.592244e-10 7.533102e-10 -8.827640e-11) (-3.887288e-10 9.593443e-11 2.067430e-10)) ((-5.180958e-11 -7.625752e-14 1.820046e-13) (-3.093355e-07 2.008583e-12 -6.403607e-12))
20.449314     	((-6.861044e-10 -4.680599e-10 -6.090443e-10) (-3.964740e-10 2.844286e-11 1.552412e-10)) ((-4.732479e-11 -9.089428e-14 2.102981e-13) (-2.900861e-07 4.682326e-12 -6.745634e-12))
24.551176     	((-4.889590e-10 -1.385249e-10 -8.401842e-10) (-3.452738e-10 -2.805756e-11 1.516361e-10)) ((-4.357711e-11 -8.569374e-14 1.855940e-13) (-2.726748e-07 7.591891e-12 -8.274163e-12))
29.473411     	((-4.076468e-10 -1.104109e-10 -7.848924e-10) (-1.567391e-10 -7.333734e-11 2.239113e-10)) ((-4.050969e-11 -8.885488e-14 1.859851e-13) (-2.570026e-07 9.637065e-12 -1.013591e-11))
35.380094     	((-7.923763e-11 -1.364490e-10 -6.242693e-10) (-1.497621e-10 -7.329474e-11 2.929464e-10)) ((-3.756577e-11 -9.349094e-14 1.790030e-13) (-2.429423e-07 1.036401e-11 -1.213215e-11))
42.468112     	((-4.949124e-10 -3.928224e-10 -9.565194e-10) (-2.700625e-10 -1.668479e-10 3.118176e-10)) ((-3.491937e-11 -9.879543e-14 1.748927e-13) (-2.303126e-07 1.046165e-11 -1.324396e-11))
50.973735     	((-3.659954e-10 -3.108006e-10 -8.271976e-10) (-2.987077e-10 -2.566695e-10 4.055248e-10)) ((-3.269934e-11 -1.002581e-13 1.508799e-13) (-2.189247e-07 1.071163e-11 -1.297229e-11))
61.180482     	((-4.986503e-10 -6.618231e-10 -1.018194e-09) (-1.868947e-10 -3.637205e-10 4.358478e-10)) ((-3.077651e-11 -8.911883e-14 1.270529e-13) (-2.086501e-07 1.100586e-11 -1.200453e-11))
73.428578     	((-4.227680e-10 -2.286218e-11 -2.112522e-10) (-1.748734e-10 -3.889907e-10 4.901788e-10)) ((-2.896077e-11 -8.504295e-14 1.056347e-13) (-1.993964e-07 1.115258e-11 -1.014248e-11))
88.126294     	((-4.743306e-10 -5.761707e-10 -2.031873e-10) (-2.355275e-10 -4.487369e-10 4.562670e-10)) ((-2.729039e-11 -8.284029e-14 9.767153e-14) (-1.911255e-07 1.054621e-11 -6.945974e-12))
105.384295    	((-3.389111e-10 -9.813043e-10 -2.560275e-10) (-2.879471e-10 -4.917927e-10 4.225193e-10)) ((-2.581728e-11 -8.112313e-14 9.489425e-14) (-1.838902e-07 1.052207e-11 -4.177423e-12))
125.202121    	((-2.919745e-10 -1.347053e-09 -3.160832e-10) (-3.345219e-10 -5.026407e-10 4.320256e-10)) ((-2.454157e-11 -7.651348e-14 9.113604e-14) (-1.776734e-07 1.048747e-11 -1.502114e-12))
147.579255    	((-2.017733e-10 -1.427132e-09 -3.470230e-10) (-3.517764e-10 -4.949049e-10 4.629165e-10)) ((-2.352569e-11 -6.414729e-14 8.000878e-14) (-1.724240e-07 1.046659e-11 5.934439e-13))
172.515089    	((-2.475136e-10 -1.399617e-09 -3.160787e-10) (-2.666827e-10 -4.544099e-10 5.017148e-10)) ((-2.271439e-11 -5.297349e-14 6.558513e-14) (-1.680665e-07 1.067952e-11 1.540257e-12))
198.094343    	((2.544920e-11 -1.203106e-09 -1.767613e-10) (-2.021665e-10 -4.135823e-10 5.331819e-10)) ((-2.209508e-11 -4.751468e-14 5.651059e-14) (-1.646222e-07 1.113862e-11 1.611513e-12))
223.665235    	((-2.212280e-11 -8.972591e-10 -6.615509e-11) (-1.655500e-10 -3.552801e-10 6.031550e-10)) ((-2.162309e-11 -4.292237e-14 4.694371e-14) (-1.619865e-07 1.156557e-11 1.244362e-12))
249.227633    	((6.068911e-12 -6.071512e-10 1.328886e-10) (-1.244247e-10 -2.410569e-10 6.870789e-10)) ((-2.126233e-11 -4.210113e-14 4.185566e-14) (-1.600516e-07 1.165918e-11 7.233031e-13))
274.781135    	((1.166735e-10 -2.340020e-10 1.550126e-10) (-8.610569e-11 -1.552581e-10 7.390229e-10)) ((-2.096633e-11 -5.026804e-14 3.940034e-14) (-1.587089e-07 1.124973e-11 1.945892e-13))
300.32523     	((6.489028e-11 8.051544e-11 3.532206e-10) (-1.057220e-11 -1.117623e-10 7.654334e-10)) ((-2.075231e-11 -4.879549e-14 3.922104e-14) (-1.578694e-07 1.025559e-11 3.288415e-14))
325.859835    	((8.373023e-11 2.013906e-10 2.911182e-10) (4.264942e-11 -8.306311e-11 7.714987e-10)) ((-2.061433e-11 -4.705259e-14 3.821844e-14) (-1.574551e-07 8.988013e-12 1.905022e-13))
351.385159    	((-2.392715e-11 2.815510e-10 2.542860e-10) (2.050832e-11 -4.320724e-11 7.664489e-10)) ((-2.056884e-11 -4.904837e-14 4.099070e-14) (-1.574004e-07 7.797125e-12 4.158432e-13))
376.901229    	((-4.561798e-11 3.285575e-10 1.875457e-10) (-3.437884e-11 -6.379952e-12 7.407387e-10)) ((-2.055975e-11 -5.145283e-14 4.252536e-14) (-1.576465e-07 6.937381e-12 4.031671e-13))
402.40806     	((-7.954261e-11 3.040715e-10 1.696086e-10) (-5.297365e-11 1.442474e-11 7.081883e-10)) ((-2.056198e-11 -5.239934e-14 4.317327e-14) (-1.581452e-07 6.435523e-12 3.024227e-13))
427.905879    	((-5.493191e-11 2.582256e-10 1.513458e-10) (-4.788773e-11 2.019568e-12 6.554507e-10)) ((-2.060323e-11 -5.564963e-14 4.629995e-14) (-1.588534e-07 6.495065e-12 3.966027e-14))
453.395084    	((-9.007141e-11 2.441737e-10 1.418772e-10) (-4.889562e-11 -2.396925e-11 5.962484e-10)) ((-2.070043e-11 -5.851990e-14 4.928356e-14) (-1.597313e-07 6.807445e-12 -3.928146e-13))
478.875849    	((-6.914959e-11 2.433483e-10 1.885043e-10) (-5.579115e-11 -4.255717e-11 5.676865e-10)) ((-2.082616e-11 -6.089881e-14 5.296063e-14) (-1.607411e-07 7.311035e-12 -8.902268e-13))
504.348306    	((-4.238410e-11 2.773839e-10 2.539874e-10) (-5.256445e-11 -5.549139e-11 5.586724e-10)) ((-2.096638e-11 -6.328536e-14 5.583638e-14) (-1.618450e-07 7.779127e-12 -1.496004e-12))
529.812614    	((-6.648923e-12 3.162088e-10 2.961653e-10) (-5.423577e-11 -6.713172e-11 5.576794e-10)) ((-2.111691e-11 -6.653850e-14 5.895989e-14) (-1.630053e-07 8.080389e-12 -2.081107e-12))
555.268774    	((2.622785e-11 3.563186e-10 3.146892e-10) (-5.764460e-11 -7.457697e-11 5.669700e-10)) ((-2.127637e-11 -6.901003e-14 6.128416e-14) (-1.641870e-07 8.216081e-12 -2.473182e-12))
580.717121    	((3.758709e-11 4.029995e-10 3.259489e-10) (-6.127953e-11 -7.381375e-11 5.837339e-10)) ((-2.144419e-11 -7.047190e-14 6.311834e-14) (-1.653572e-07 8.294066e-12 -2.710466e-12))
606.158068    	((-3.813556e-11 4.209689e-10 2.887919e-10) (-7.050722e-11 -6.219103e-11 6.060082e-10)) ((-2.161749e-11 -7.126750e-14 6.459993e-14) (-1.664872e-07 8.368831e-12 -2.871399e-12))
