# Forces      
# CofR        : (0.000000e+00 0.000000e+00 0.000000e+00)
# Time        forces(pressure viscous)	moments(pressure viscous)
0             	((0.000000e+00 0.000000e+00 0.000000e+00) (-1.436252e-13 1.006862e-03 3.840357e-15)) ((0.000000e+00 0.000000e+00 0.000000e+00) (4.933080e-15 2.236413e-16 -3.679694e-10))
0.012         	((1.381023e-07 2.927631e-01 7.832069e-08) (1.342948e-10 1.152910e-03 -7.541635e-10)) ((8.929755e-11 2.347590e-12 -5.491686e-08) (8.430314e-12 3.089401e-13 -6.674672e-10))
0.0264        	((-3.555749e-06 -2.670082e-02 -1.348908e-06) (-1.470139e-09 1.169649e-03 -1.653099e-09)) ((-9.850223e-12 -8.706672e-13 2.945587e-09) (8.205175e-12 1.438776e-13 -7.130571e-10))
0.04368       	((5.839050e-06 -5.782360e-02 -4.462961e-07) (6.323799e-09 1.033071e-03 -1.437150e-09)) ((-2.204905e-10 2.250408e-11 1.613901e-08) (-2.614302e-11 -1.111009e-12 -3.762650e-10))
0.064416      	((1.773369e-07 -5.064909e-04 1.392903e-06) (6.531622e-09 9.117692e-04 6.086135e-09)) ((7.618922e-11 2.691046e-11 -1.877445e-09) (1.961251e-12 -9.170308e-12 -2.462229e-10))
0.0892992     	((-1.184833e-06 2.272179e-04 5.941930e-07) (5.699055e-09 8.398352e-04 6.568883e-09)) ((2.105249e-11 -2.038825e-11 -4.211507e-10) (-1.391967e-11 -1.969418e-11 3.886573e-10))
0.119159      	((1.458756e-06 -1.016046e-03 5.911102e-07) (1.478164e-08 7.757035e-04 5.605484e-09)) ((2.989961e-11 1.234252e-11 9.015299e-10) (-1.170692e-10 -3.056861e-11 1.142970e-09))
0.154991      	((-1.452012e-07 -3.809735e-04 1.840628e-07) (1.048833e-08 7.097985e-04 5.336712e-09)) ((4.389501e-11 1.265931e-12 2.830251e-10) (-8.686909e-11 -3.714766e-11 1.222406e-09))
0.197989      	((-5.716896e-08 -4.732671e-05 -1.278216e-07) (-8.643536e-09 6.460842e-04 2.359986e-09)) ((1.728322e-11 4.104049e-12 2.164149e-11) (-4.451087e-12 -3.324391e-11 1.360165e-09))
0.249587      	((-2.641877e-07 6.309718e-05 -1.273393e-07) (-3.202814e-08 5.866077e-04 3.117065e-09)) ((1.768484e-11 4.367356e-12 3.825144e-11) (-6.092060e-12 -2.560762e-11 1.612130e-09))
0.311504      	((-2.220667e-07 1.217251e-04 -1.105139e-07) (-4.569303e-08 5.328562e-04 3.404763e-09)) ((1.235974e-11 2.210968e-12 1.116388e-11) (-7.505500e-13 -1.655350e-11 1.558398e-09))
0.385805      	((-2.092268e-07 1.544383e-04 -1.142603e-07) (-5.288765e-08 4.853432e-04 2.893776e-09)) ((7.889194e-12 -1.216746e-12 -1.025115e-11) (4.119295e-11 -8.308605e-12 1.403687e-09))
0.474966      	((-1.751983e-07 1.694628e-04 -7.462140e-08) (-5.783266e-08 4.437139e-04 2.450649e-09)) ((3.693890e-12 -1.109250e-12 -2.059340e-11) (6.634540e-11 -3.152993e-12 1.344850e-09))
0.581959      	((-1.382561e-07 1.747775e-04 -4.987193e-08) (-5.157252e-08 4.066765e-04 1.335359e-09)) ((2.097803e-12 -1.155098e-12 -2.589685e-11) (8.190629e-11 -5.910929e-13 1.395431e-09))
0.710351      	((-7.476879e-08 1.738646e-04 -4.200945e-08) (-3.687444e-08 3.723399e-04 -2.595959e-10)) ((9.423814e-13 -6.606935e-13 -2.312303e-11) (9.087029e-11 -1.033762e-13 1.697667e-09))
0.864421      	((-4.739437e-09 1.688284e-04 -3.344187e-08) (-2.393279e-08 3.396226e-04 -1.867436e-09)) ((1.844044e-13 -6.366851e-13 -2.137911e-11) (9.635784e-11 -1.563325e-12 2.138074e-09))
1.049306      	((-1.117148e-08 1.615830e-04 -2.014145e-08) (-1.703359e-08 3.086363e-04 -2.743513e-09)) ((-8.874885e-13 -4.595384e-13 -2.148226e-11) (9.793266e-11 -2.034213e-12 2.469425e-09))
1.271167      	((4.405291e-09 1.537921e-04 -1.632911e-08) (-1.205360e-08 2.797842e-04 -2.944301e-09)) ((-1.771710e-12 -1.043777e-13 -2.579868e-11) (8.296533e-11 6.417229e-14 2.572234e-09))
1.5374        	((1.925210e-08 1.469425e-04 -1.119582e-08) (-8.830386e-09 2.534422e-04 -2.967650e-09)) ((-2.093975e-12 1.478612e-13 -3.805897e-11) (4.883624e-11 3.002422e-12 2.421737e-09))
1.85688       	((5.113832e-10 1.419793e-04 -9.441520e-09) (-8.148840e-09 2.298775e-04 -2.491077e-09)) ((-1.578424e-12 1.390685e-13 -5.477639e-11) (-1.794528e-11 7.131647e-12 2.196386e-09))
2.240256      	((-3.620729e-08 1.393271e-04 -2.145122e-08) (-7.037224e-09 2.091552e-04 -1.545479e-09)) ((-4.925806e-13 -1.606626e-13 -6.526128e-11) (-1.074311e-10 8.186226e-12 1.981744e-09))
2.700307      	((-6.677977e-08 1.394325e-04 -5.453386e-08) (-5.374412e-09 1.911880e-04 -1.230636e-09)) ((9.667485e-13 1.738167e-13 -7.880695e-11) (-2.014305e-10 7.634977e-12 1.870470e-09))
3.252369      	((-8.992054e-08 1.425119e-04 -6.882956e-08) (-6.055158e-09 1.758012e-04 -1.559620e-09)) ((1.872753e-12 3.552396e-13 -9.853211e-11) (-2.740367e-10 7.914951e-12 1.805695e-09))
3.914842      	((-7.840475e-08 1.489821e-04 -8.787733e-08) (-5.862376e-09 1.627745e-04 -2.564768e-09)) ((1.536551e-12 3.448628e-13 -1.278343e-10) (-2.828601e-10 8.490009e-12 1.669648e-09))
4.709811      	((-6.180813e-08 1.590581e-04 -8.758727e-08) (-1.942519e-09 1.518697e-04 -3.645988e-09)) ((1.972373e-12 2.313618e-13 -1.658570e-10) (-2.255345e-10 7.650911e-12 1.642828e-09))
5.663773      	((-2.871549e-08 1.727658e-04 -7.440610e-08) (1.714335e-09 1.428561e-04 -4.212047e-09)) ((1.428296e-12 1.293073e-13 -2.135015e-10) (-1.146423e-10 5.366929e-12 1.769868e-09))
6.788471      	((-1.913257e-09 1.899240e-04 -5.121177e-08) (3.505825e-09 1.355701e-04 -4.037987e-09)) ((8.335122e-13 -3.004919e-14 -2.714368e-10) (-5.721211e-12 3.376227e-12 2.182549e-09))
8.083966      	((4.050766e-08 2.098357e-04 -2.648168e-08) (7.621809e-09 1.297655e-04 -3.124827e-09)) ((-1.738948e-14 2.081582e-13 -3.358568e-10) (7.746992e-11 2.090170e-12 2.838903e-09))
9.549854      	((6.940757e-08 2.316370e-04 -3.891781e-09) (1.007991e-08 1.252462e-04 -9.178928e-10)) ((-1.552300e-12 5.677691e-13 -4.100201e-10) (1.702229e-10 -2.243615e-13 3.328396e-09))
11.185282     	((1.035934e-07 2.546435e-04 1.894268e-08) (1.318730e-08 1.217624e-04 1.777633e-09)) ((-3.099421e-12 9.748260e-13 -4.763113e-10) (2.770215e-10 -2.262352e-12 3.531105e-09))
12.868621     	((1.301272e-07 2.768734e-04 3.135782e-08) (1.672573e-08 1.192702e-04 3.770855e-09)) ((-4.172627e-12 1.455351e-12 -5.325465e-10) (3.042372e-10 -7.547266e-13 3.705787e-09))
14.538689     	((1.183833e-07 2.955941e-04 2.263109e-08) (1.939881e-08 1.173710e-04 3.257683e-09)) ((-4.293982e-12 2.012476e-12 -5.798060e-10) (2.594775e-10 2.462395e-12 3.467800e-09))
16.198867     	((1.438158e-07 3.110756e-04 4.866596e-08) (2.167377e-08 1.157294e-04 1.231999e-09)) ((-4.386093e-12 2.420008e-12 -6.219085e-10) (1.016493e-10 1.590826e-12 3.186797e-09))
17.856411     	((1.716657e-07 3.219779e-04 7.982156e-08) (2.045563e-08 1.142265e-04 -7.837713e-10)) ((-4.114704e-12 3.128917e-12 -6.626197e-10) (-1.582281e-10 -6.041146e-15 3.276400e-09))
19.518066     	((2.085866e-07 3.294024e-04 1.173924e-07) (1.650064e-08 1.128425e-04 -3.546601e-09)) ((-4.024457e-12 3.793822e-12 -6.985184e-10) (-5.104798e-10 -4.611800e-12 3.516477e-09))
21.186869     	((2.207911e-07 3.330502e-04 1.338410e-07) (1.105498e-08 1.115881e-04 -5.971145e-09)) ((-3.576314e-12 3.947863e-12 -7.223254e-10) (-8.639114e-10 -6.190096e-12 3.830235e-09))
22.862269     	((2.204084e-07 3.328870e-04 1.264861e-07) (4.995698e-09 1.104119e-04 -8.524397e-09)) ((-2.624463e-12 3.741971e-12 -7.354485e-10) (-1.224333e-09 -1.628796e-12 4.275417e-09))
24.542406     	((1.401120e-07 3.306634e-04 5.421495e-08) (-6.040479e-11 1.092621e-04 -1.247491e-08)) ((-7.562380e-13 4.301356e-12 -7.405229e-10) (-1.479915e-09 -1.620627e-12 4.459790e-09))
26.226421     	((9.284371e-08 3.280058e-04 2.376973e-08) (-3.247956e-09 1.081657e-04 -1.692664e-08)) ((-2.334284e-13 4.394087e-12 -7.410985e-10) (-1.640332e-09 -2.598327e-12 4.395838e-09))
27.914505     	((1.520148e-07 3.256779e-04 6.247720e-08) (-3.515544e-09 1.071793e-04 -1.919058e-08)) ((-8.520381e-13 4.149912e-12 -7.377397e-10) (-1.746929e-09 -1.958967e-12 4.241833e-09))
29.606196     	((1.841927e-07 3.230544e-04 6.056201e-08) (-3.934970e-10 1.062876e-04 -1.858160e-08)) ((-1.031758e-13 4.076026e-12 -7.325327e-10) (-1.767628e-09 -2.853966e-12 4.070577e-09))
31.301318     	((1.905668e-07 3.197292e-04 3.578439e-08) (3.355532e-09 1.054391e-04 -1.871361e-08)) ((4.651604e-13 4.135928e-12 -7.277557e-10) (-1.767040e-09 -6.887322e-12 3.935378e-09))
32.998262     	((2.171903e-07 3.170071e-04 2.581773e-08) (7.099075e-09 1.046444e-04 -1.958713e-08)) ((1.677206e-13 4.117269e-12 -7.254619e-10) (-1.749997e-09 -7.124646e-12 3.873220e-09))
34.696512     	((2.416297e-07 3.147532e-04 1.002262e-08) (1.087194e-08 1.039192e-04 -1.993564e-08)) ((-1.583279e-13 4.368485e-12 -7.245268e-10) (-1.675250e-09 -8.411856e-12 3.868478e-09))
36.396647     	((2.837104e-07 3.127649e-04 2.474817e-09) (1.453194e-08 1.032491e-04 -1.939929e-08)) ((-2.410770e-13 4.632783e-12 -7.236962e-10) (-1.550577e-09 -9.161331e-12 3.847970e-09))
38.098887     	((3.317911e-07 3.110343e-04 -6.995322e-09) (1.871155e-08 1.026250e-04 -1.746080e-08)) ((-2.186892e-13 4.780072e-12 -7.233727e-10) (-1.365950e-09 -8.860635e-12 3.808890e-09))
39.803353     	((3.530287e-07 3.093713e-04 -3.657778e-08) (2.276249e-08 1.020331e-04 -1.526759e-08)) ((1.397827e-13 4.913944e-12 -7.235187e-10) (-1.117953e-09 -9.324399e-12 3.736999e-09))
41.510187     	((3.915246e-07 3.078111e-04 -6.146634e-08) (2.762217e-08 1.014668e-04 -1.321762e-08)) ((2.754307e-13 4.936412e-12 -7.236774e-10) (-8.498707e-10 -8.221174e-12 3.617758e-09))
43.219549     	((4.273406e-07 3.065813e-04 -8.916060e-08) (3.362049e-08 1.009369e-04 -1.178903e-08)) ((1.157491e-13 5.254019e-12 -7.239195e-10) (-6.244789e-10 -5.974951e-12 3.514017e-09))
44.93151      	((4.793424e-07 3.053119e-04 -1.162971e-07) (3.951122e-08 1.004429e-04 -1.070465e-08)) ((-4.909333e-14 5.562744e-12 -7.238179e-10) (-4.173653e-10 -5.817102e-12 3.468554e-09))
46.646052     	((4.864510e-07 3.041551e-04 -1.763831e-07) (4.438387e-08 9.998130e-05 -1.158945e-08)) ((2.802549e-13 5.351130e-12 -7.238963e-10) (-2.655643e-10 -3.775459e-12 3.448651e-09))
48.363236     	((5.381291e-07 3.031766e-04 -2.023976e-07) (4.976589e-08 9.955571e-05 -1.372898e-08)) ((-5.810746e-14 5.199792e-12 -7.241678e-10) (-2.032651e-10 2.038637e-12 3.417102e-09))
50.083181     	((5.801552e-07 3.021729e-04 -2.533547e-07) (5.541491e-08 9.916169e-05 -1.661208e-08)) ((3.558072e-13 4.966360e-12 -7.243333e-10) (-1.769886e-10 9.219701e-12 3.389327e-09))
51.806187     	((6.603057e-07 3.011251e-04 -2.869513e-07) (6.156171e-08 9.878959e-05 -1.980536e-08)) ((5.335623e-13 4.682369e-12 -7.242226e-10) (-1.423859e-10 1.567445e-11 3.376856e-09))
53.532351     	((7.289208e-07 2.998490e-04 -3.081160e-07) (6.826560e-08 9.842520e-05 -2.264353e-08)) ((5.899313e-13 4.347434e-12 -7.239718e-10) (-9.449052e-11 2.035855e-11 3.372436e-09))
55.261553     	((7.964119e-07 2.988050e-04 -3.363127e-07) (7.490491e-08 9.807353e-05 -2.548979e-08)) ((8.148833e-13 4.065061e-12 -7.236981e-10) (-5.307812e-11 2.128106e-11 3.386107e-09))
56.993738     	((8.632817e-07 2.977047e-04 -3.837234e-07) (8.165096e-08 9.773292e-05 -2.923290e-08)) ((1.082797e-12 3.710958e-12 -7.232463e-10) (-1.915126e-11 1.847724e-11 3.402744e-09))
58.728878     	((9.470354e-07 2.967900e-04 -4.357481e-07) (8.874093e-08 9.740539e-05 -3.400406e-08)) ((1.355656e-12 3.436141e-12 -7.228483e-10) (1.474715e-11 1.074988e-11 3.432444e-09))
60.46694      	((1.024572e-06 2.960210e-04 -4.839411e-07) (9.615850e-08 9.709819e-05 -3.926673e-08)) ((1.660612e-12 3.295039e-12 -7.224973e-10) (4.394085e-11 3.582651e-12 3.474179e-09))
62.208011     	((1.095894e-06 2.951523e-04 -5.458184e-07) (1.031982e-07 9.680586e-05 -4.506565e-08)) ((2.138338e-12 3.213803e-12 -7.222072e-10) (7.180231e-11 -1.717286e-12 3.548535e-09))
63.952069     	((1.204270e-06 2.942912e-04 -6.140936e-07) (1.106196e-07 9.652290e-05 -5.162126e-08)) ((2.639884e-12 3.228606e-12 -7.220737e-10) (9.865902e-11 -6.698255e-12 3.652697e-09))
65.698984     	((1.311695e-06 2.934758e-04 -6.860477e-07) (1.187390e-07 9.624601e-05 -5.875021e-08)) ((3.061807e-12 3.197561e-12 -7.222518e-10) (1.312430e-10 -1.371928e-11 3.768335e-09))
67.448634     	((1.445840e-06 2.926906e-04 -7.703122e-07) (1.277773e-07 9.597354e-05 -6.659684e-08)) ((3.633436e-12 3.274432e-12 -7.225801e-10) (1.631464e-10 -2.170161e-11 3.880238e-09))
69.200936     	((1.631088e-06 2.918680e-04 -8.720349e-07) (1.391966e-07 9.570527e-05 -7.554639e-08)) ((4.361443e-12 3.356418e-12 -7.228262e-10) (1.904305e-10 -2.652145e-11 4.000176e-09))
70.955822     	((1.818581e-06 2.910265e-04 -9.816489e-07) (1.523892e-07 9.544390e-05 -8.540269e-08)) ((5.141609e-12 3.390896e-12 -7.229072e-10) (2.161219e-10 -2.807005e-11 4.151571e-09))
72.713234     	((2.035831e-06 2.902397e-04 -1.117854e-06) (1.674602e-07 9.519432e-05 -9.654756e-08)) ((6.100934e-12 3.437840e-12 -7.229228e-10) (2.531233e-10 -2.937504e-11 4.350615e-09))
74.473142     	((2.283569e-06 2.895073e-04 -1.277357e-06) (1.849121e-07 9.495697e-05 -1.092075e-07)) ((7.090935e-12 3.520429e-12 -7.230063e-10) (3.194068e-10 -3.374784e-11 4.594939e-09))
76.235513     	((2.563882e-06 2.888337e-04 -1.464900e-06) (2.047777e-07 9.473059e-05 -1.234424e-07)) ((8.287242e-12 3.533997e-12 -7.230247e-10) (4.291663e-10 -3.887722e-11 4.870680e-09))
78.000292     	((2.878424e-06 2.881890e-04 -1.672624e-06) (2.274641e-07 9.451413e-05 -1.394750e-07)) ((9.427800e-12 3.515516e-12 -7.229429e-10) (6.005670e-10 -4.490630e-11 5.177409e-09))
79.767423     	((3.196733e-06 2.876110e-04 -1.891684e-06) (2.523661e-07 9.430809e-05 -1.565090e-07)) ((1.068861e-11 3.353598e-12 -7.227693e-10) (8.345790e-10 -5.174150e-11 5.504499e-09))
81.53687      	((3.517198e-06 2.870309e-04 -2.123699e-06) (2.789933e-07 9.411125e-05 -1.744199e-07)) ((1.195974e-11 3.079879e-12 -7.224966e-10) (1.124184e-09 -5.806907e-11 5.840156e-09))
83.308598     	((3.832363e-06 2.863970e-04 -2.371945e-06) (3.066933e-07 9.392022e-05 -1.932716e-07)) ((1.345502e-11 2.731266e-12 -7.220800e-10) (1.469416e-09 -6.090453e-11 6.183733e-09))
85.082564     	((4.176918e-06 2.857618e-04 -2.651799e-06) (3.360220e-07 9.373370e-05 -2.136241e-07)) ((1.525241e-11 2.309936e-12 -7.216740e-10) (1.862286e-09 -5.996858e-11 6.539744e-09))
86.858713     	((4.535546e-06 2.851389e-04 -2.957707e-06) (3.674272e-07 9.355135e-05 -2.363851e-07)) ((1.705592e-11 1.860422e-12 -7.214289e-10) (2.288954e-09 -5.918339e-11 6.906881e-09))
88.636986     	((4.912558e-06 2.845467e-04 -3.300439e-06) (4.009669e-07 9.337328e-05 -2.619995e-07)) ((1.901331e-11 1.473907e-12 -7.212851e-10) (2.737096e-09 -5.914708e-11 7.281445e-09))
90.416964     	((5.322817e-06 2.840157e-04 -3.667014e-06) (4.372111e-07 9.320077e-05 -2.903524e-07)) ((2.098463e-11 1.078891e-12 -7.212794e-10) (3.210702e-09 -6.006168e-11 7.663872e-09))
92.198455     	((5.753611e-06 2.835204e-04 -4.055615e-06) (4.763175e-07 9.303411e-05 -3.213370e-07)) ((2.312254e-11 6.221027e-13 -7.212494e-10) (3.716396e-09 -6.253639e-11 8.038050e-09))
93.981368     	((6.205526e-06 2.830676e-04 -4.457566e-06) (5.183496e-07 9.287382e-05 -3.546364e-07)) ((2.540781e-11 2.609726e-13 -7.212315e-10) (4.237293e-09 -6.487437e-11 8.393471e-09))
95.765619     	((6.695155e-06 2.826512e-04 -4.884395e-06) (5.636624e-07 9.272064e-05 -3.903528e-07)) ((2.782852e-11 1.044482e-13 -7.212373e-10) (4.765059e-09 -6.812461e-11 8.735807e-09))
97.551131     	((7.234164e-06 2.822743e-04 -5.336036e-06) (6.126824e-07 9.257502e-05 -4.287827e-07)) ((3.039038e-11 1.007679e-13 -7.212980e-10) (5.295474e-09 -7.122358e-11 9.088727e-09))
99.337832     	((7.844441e-06 2.819061e-04 -5.824201e-06) (6.663617e-07 9.243647e-05 -4.704446e-07)) ((3.321048e-11 2.033474e-13 -7.213633e-10) (5.825362e-09 -7.187551e-11 9.481492e-09))
101.125646    	((8.523655e-06 2.815614e-04 -6.352114e-06) (7.252431e-07 9.230505e-05 -5.158787e-07)) ((3.620968e-11 4.351553e-13 -7.215021e-10) (6.358583e-09 -7.077057e-11 9.939697e-09))
102.914484    	((9.261761e-06 2.812504e-04 -6.908360e-06) (7.890469e-07 9.218156e-05 -5.648153e-07)) ((3.916051e-11 6.043666e-13 -7.217228e-10) (6.902475e-09 -6.786740e-11 1.048957e-08))
104.704251    	((1.010247e-05 2.809332e-04 -7.522440e-06) (8.587980e-07 9.206459e-05 -6.176736e-07)) ((4.261799e-11 1.039696e-12 -7.218583e-10) (7.480475e-09 -6.287504e-11 1.116099e-08))
106.49484     	((1.103862e-05 2.806361e-04 -8.189769e-06) (9.353314e-07 9.195356e-05 -6.749729e-07)) ((4.639150e-11 1.739872e-12 -7.219776e-10) (8.104195e-09 -5.361491e-11 1.197518e-08))
108.286151    	((1.209792e-05 2.803536e-04 -8.914481e-06) (1.020040e-06 9.184890e-05 -7.371712e-07)) ((5.053529e-11 2.540716e-12 -7.221034e-10) (8.757158e-09 -3.968713e-11 1.292656e-08))
110.078079    	((1.329667e-05 2.800914e-04 -9.734994e-06) (1.114957e-06 9.175082e-05 -8.062864e-07)) ((5.543171e-11 3.515107e-12 -7.221462e-10) (9.422263e-09 -2.418576e-11 1.401212e-08))
111.870517    	((1.464743e-05 2.798404e-04 -1.064923e-05) (1.221994e-06 9.165909e-05 -8.837295e-07)) ((6.089114e-11 4.347530e-12 -7.220692e-10) (1.010413e-08 -1.251560e-11 1.522866e-08))
113.663348    	((1.614566e-05 2.796102e-04 -1.168201e-05) (1.342250e-06 9.157381e-05 -9.708481e-07)) ((6.723810e-11 5.177173e-12 -7.218066e-10) (1.081596e-08 -4.662907e-12 1.658069e-08))
115.456444    	((1.780852e-05 2.793863e-04 -1.282879e-05) (1.476368e-06 9.149465e-05 -1.068593e-06)) ((7.432061e-11 5.942791e-12 -7.213268e-10) (1.157679e-08 -6.249996e-12 1.809240e-08))
117.249657    	((1.964290e-05 2.791656e-04 -1.410560e-05) (1.625588e-06 9.142069e-05 -1.177571e-06)) ((8.230633e-11 6.639675e-12 -7.206971e-10) (1.241397e-08 -1.772625e-11 1.975648e-08))
119.042828    	((2.167226e-05 2.789584e-04 -1.553201e-05) (1.792281e-06 9.135070e-05 -1.299342e-06)) ((9.113198e-11 7.266785e-12 -7.199405e-10) (1.333797e-08 -3.808027e-11 2.153401e-08))
120.835787    	((2.388895e-05 2.787549e-04 -1.711852e-05) (1.978386e-06 9.128287e-05 -1.435162e-06)) ((1.008561e-10 7.916071e-12 -7.190210e-10) (1.437041e-08 -6.788026e-11 2.338890e-08))
122.628353    	((2.629736e-05 2.786001e-04 -1.886756e-05) (2.185097e-06 9.121783e-05 -1.585886e-06)) ((1.113221e-10 8.703889e-12 -7.179469e-10) (1.553210e-08 -9.654447e-11 2.530343e-08))
124.420334    	((2.888868e-05 2.784987e-04 -2.078886e-05) (2.412035e-06 9.115803e-05 -1.752474e-06)) ((1.225220e-10 9.729362e-12 -7.166774e-10) (1.682698e-08 -1.196901e-10 2.731417e-08))
126.211536    	((3.167255e-05 2.784444e-04 -2.290990e-05) (2.658340e-06 9.110490e-05 -1.936072e-06)) ((1.349226e-10 1.115233e-11 -7.150974e-10) (1.828209e-08 -1.338158e-10 2.947760e-08))
128.001763    	((3.468153e-05 2.784487e-04 -2.522747e-05) (2.925583e-06 9.105975e-05 -2.137484e-06)) ((1.483357e-10 1.320774e-11 -7.132051e-10) (1.993037e-08 -1.417162e-10 3.179362e-08))
129.790808    	((3.792952e-05 2.785125e-04 -2.775293e-05) (3.216388e-06 9.102243e-05 -2.357763e-06)) ((1.627690e-10 1.594685e-11 -7.108927e-10) (2.178928e-08 -1.473322e-10 3.422376e-08))
131.578448    	((4.144713e-05 2.786368e-04 -3.051442e-05) (3.533594e-06 9.099204e-05 -2.598782e-06)) ((1.787071e-10 1.949511e-11 -7.083206e-10) (2.385779e-08 -1.460604e-10 3.673163e-08))
133.364457    	((4.525407e-05 2.788624e-04 -3.352650e-05) (3.879563e-06 9.096925e-05 -2.862406e-06)) ((1.962479e-10 2.410360e-11 -7.056083e-10) (2.613154e-08 -1.406934e-10 3.934010e-08))
135.148495    	((4.937946e-05 2.792294e-04 -3.679243e-05) (4.257127e-06 9.095775e-05 -3.150700e-06)) ((2.152568e-10 2.967347e-11 -7.028195e-10) (2.857154e-08 -1.326741e-10 4.204551e-08))
136.930287    	((5.384468e-05 2.797344e-04 -4.036271e-05) (4.668384e-06 9.096066e-05 -3.467120e-06)) ((2.361422e-10 3.648519e-11 -6.997871e-10) (3.116841e-08 -1.351837e-10 4.484844e-08))
138.709572    	((5.871554e-05 2.803944e-04 -4.422742e-05) (5.117200e-06 9.097979e-05 -3.812642e-06)) ((2.587166e-10 4.473458e-11 -6.964269e-10) (3.396244e-08 -1.348327e-10 4.775358e-08))
140.486079    	((6.401959e-05 2.812186e-04 -4.842480e-05) (5.605145e-06 9.101386e-05 -4.186699e-06)) ((2.828401e-10 5.451881e-11 -6.927620e-10) (3.709752e-08 -8.369763e-11 5.093972e-08))
142.259432    	((6.986908e-05 2.822495e-04 -5.299780e-05) (6.136778e-06 9.106360e-05 -4.593628e-06)) ((3.092536e-10 6.632207e-11 -6.887955e-10) (4.057308e-08 -1.805861e-11 5.453178e-08))
