# Forces      
# CofR        : (0.000000e+00 0.000000e+00 0.000000e+00)
# Time        forces(pressure viscous)	moments(pressure viscous)
0             	((0.000000e+00 0.000000e+00 0.000000e+00) (2.524268e-02 -3.549162e-12 1.802986e-12)) ((0.000000e+00 0.000000e+00 0.000000e+00) (-4.992062e-14 -3.068761e-13 5.345233e-13))
0.012         	((7.460957e+00 2.473635e-04 2.234766e-04) (4.123783e-02 -7.976930e-07 -8.582034e-07)) ((-2.838735e-09 -2.292204e-09 -1.463254e-09) (-1.522530e-10 -4.782509e-11 -6.798656e-10))
0.0264        	((-2.699264e+00 -3.970211e-04 -4.915331e-04) (3.990892e-02 -1.001752e-06 -1.179574e-06)) ((-3.198424e-09 -5.218840e-08 -1.319480e-08) (1.072528e-09 -8.504227e-08 7.839298e-08))
0.04368       	((9.317996e-03 1.657929e-04 2.452025e-04) (3.253892e-02 -3.359756e-07 9.873733e-08)) ((5.375340e-09 4.296671e-08 1.056069e-08) (4.343581e-10 -5.789366e-08 5.286442e-08))
0.064416      	((-1.006792e-01 -1.822360e-04 -1.483777e-04) (2.895545e-02 7.707591e-07 1.185098e-06)) ((9.047511e-10 -1.179607e-08 -3.571222e-09) (-9.565166e-10 -3.854175e-10 -1.703040e-09))
0.0892992     	((6.238159e-02 -1.152142e-05 -2.689321e-05) (2.666971e-02 7.290305e-07 4.035003e-07)) ((3.433885e-09 -1.434406e-09 -2.855337e-09) (-7.296328e-10 -2.566359e-08 1.600867e-08))
0.119159      	((1.354533e-02 3.303356e-06 -9.413231e-06) (2.521933e-02 3.844726e-07 -2.659225e-08)) ((1.406314e-09 -1.273797e-09 -3.410271e-11) (-7.461430e-10 -2.694447e-08 1.184669e-08))
0.154991      	((3.406457e-02 3.331839e-05 3.694289e-05) (2.419808e-02 2.226081e-07 4.488034e-07)) ((3.712649e-09 -3.144705e-11 -2.582070e-09) (-8.930935e-10 -1.292192e-08 7.654856e-09))
0.197393      	((2.946783e-02 1.320557e-05 8.311042e-06) (2.342118e-02 1.159488e-07 5.830974e-07)) ((1.742127e-09 -1.687098e-09 -1.059264e-09) (-2.640438e-10 9.750715e-10 5.773422e-10))
0.246349      	((3.665077e-02 1.076897e-06 1.095927e-06) (2.280508e-02 5.512579e-08 5.576637e-07)) ((-2.840092e-10 2.700159e-10 -1.151752e-09) (2.038648e-10 8.023073e-09 -1.564609e-08))
0.301854      	((4.003233e-02 -1.811175e-05 -1.961923e-05) (2.232407e-02 -2.540005e-07 2.904339e-07)) ((1.030726e-09 -1.682916e-10 -9.951833e-10) (8.153744e-10 1.813544e-08 -2.473843e-08))
0.363917      	((4.669108e-02 -2.189367e-05 -2.454641e-05) (2.196820e-02 -3.559730e-07 5.831908e-08)) ((-9.141764e-11 -3.028078e-10 -1.326152e-09) (7.105095e-10 3.228476e-08 -3.331975e-08))
0.429507      	((5.215097e-02 -4.942538e-05 -5.526572e-05) (2.171512e-02 -7.605139e-07 -3.046804e-07)) ((7.405823e-10 -1.572259e-09 -8.463345e-10) (5.605185e-10 3.827569e-08 -4.171094e-08))
0.494974      	((5.857716e-02 -6.612796e-05 -7.374341e-05) (2.152994e-02 -9.901007e-07 -7.539545e-07)) ((7.627269e-10 -1.264112e-09 -5.073926e-10) (8.134694e-10 3.929711e-08 -4.286664e-08))
0.560006      	((6.416583e-02 -7.419660e-05 -8.502640e-05) (2.136486e-02 -9.404885e-07 -8.072939e-07)) ((7.053805e-11 -1.505036e-09 3.016097e-10) (1.030590e-09 3.526884e-08 -3.693846e-08))
0.624697      	((6.934324e-02 -7.165912e-05 -8.350597e-05) (2.118429e-02 -8.191312e-07 -7.569986e-07)) ((-1.720747e-10 -1.076015e-09 6.473184e-11) (1.336896e-09 2.064255e-08 -2.330248e-08))
0.689271      	((7.343377e-02 -7.953879e-05 -9.112749e-05) (2.097875e-02 -6.403165e-07 -7.093652e-07)) ((-2.633225e-10 4.136445e-11 -6.100346e-10) (1.609936e-09 8.547760e-09 -1.144639e-08))
0.753824      	((7.626107e-02 -9.052277e-05 -1.053126e-04) (2.076640e-02 -7.595819e-07 -1.012933e-06)) ((-2.897426e-10 3.508326e-10 -1.598960e-09) (1.842808e-09 1.416558e-08 -1.451988e-08))
0.818565      	((7.803849e-02 -1.020646e-04 -1.204643e-04) (2.056650e-02 -1.234745e-06 -1.628515e-06)) ((6.074601e-11 -4.984407e-10 -1.763571e-09) (1.934485e-09 3.182694e-08 -3.173346e-08))
0.883574      	((7.894871e-02 -1.185360e-04 -1.317414e-04) (2.038600e-02 -1.799596e-06 -1.986007e-06)) ((3.720696e-10 -1.339790e-09 -1.808326e-09) (1.502836e-09 4.327932e-08 -4.827723e-08))
0.948658      	((7.900501e-02 -1.402006e-04 -1.484030e-04) (2.022147e-02 -2.141121e-06 -2.016326e-06)) ((9.601845e-10 -8.903408e-10 -1.808277e-09) (9.055950e-10 4.309035e-08 -5.223068e-08))
1.013783      	((7.820283e-02 -1.686355e-04 -1.715715e-04) (2.007055e-02 -2.295226e-06 -2.024923e-06)) ((5.207863e-10 -3.357980e-10 -1.775462e-09) (7.268932e-10 4.040756e-08 -4.816452e-08))
1.078962      	((7.734230e-02 -1.837580e-04 -1.845301e-04) (1.993246e-02 -2.379943e-06 -2.146659e-06)) ((-1.294516e-10 -9.717240e-10 -1.298663e-09) (6.201088e-10 3.734036e-08 -3.963060e-08))
1.144211      	((7.647511e-02 -2.023904e-04 -1.944397e-04) (1.980377e-02 -2.536220e-06 -2.291263e-06)) ((2.685841e-11 -1.359258e-09 -9.522117e-10) (5.802006e-10 3.599863e-08 -3.124233e-08))
1.209529      	((7.579017e-02 -2.290223e-04 -2.166365e-04) (1.968364e-02 -2.627818e-06 -2.520008e-06)) ((-4.317972e-11 -1.879990e-09 -9.346074e-10) (1.002560e-09 3.987211e-08 -2.810249e-08))
1.274905      	((7.533005e-02 -2.677162e-04 -2.489199e-04) (1.957337e-02 -2.819704e-06 -2.893488e-06)) ((-3.839387e-10 -2.572014e-09 -8.291082e-10) (1.581392e-09 4.046953e-08 -2.268923e-08))
1.340335      	((7.494607e-02 -3.064665e-04 -2.828697e-04) (1.947287e-02 -3.074485e-06 -3.229422e-06)) ((-5.903077e-10 -3.048885e-09 -8.942212e-10) (1.685039e-09 3.130876e-08 -8.722864e-09))
1.405817      	((7.447379e-02 -3.461009e-04 -3.178573e-04) (1.937999e-02 -3.227138e-06 -3.358044e-06)) ((-7.613946e-10 -3.034944e-09 -1.171290e-09) (1.545980e-09 1.405649e-08 1.121957e-08))
1.471349      	((7.402180e-02 -3.901980e-04 -3.494891e-04) (1.929375e-02 -3.344227e-06 -3.367636e-06)) ((-1.130674e-09 -3.325995e-09 -1.539793e-09) (1.866775e-09 -6.803429e-09 3.604845e-08))
1.536927      	((7.360057e-02 -4.416276e-04 -3.914302e-04) (1.921393e-02 -3.475253e-06 -3.378342e-06)) ((-1.558979e-09 -3.787520e-09 -2.116410e-09) (3.037812e-09 -3.234877e-08 6.400424e-08))
1.602549      	((7.321594e-02 -4.970526e-04 -4.391319e-04) (1.914036e-02 -3.577613e-06 -3.436996e-06)) ((-1.797732e-09 -4.317361e-09 -2.684503e-09) (3.998870e-09 -5.951611e-08 9.637776e-08))
1.668211      	((7.288307e-02 -5.694758e-04 -4.901429e-04) (1.907329e-02 -3.719929e-06 -3.619009e-06)) ((-1.893029e-09 -4.763864e-09 -3.288895e-09) (3.697982e-09 -8.577408e-08 1.329393e-07))
1.733911      	((7.263051e-02 -6.572363e-04 -5.618080e-04) (1.901277e-02 -3.940725e-06 -3.888939e-06)) ((-1.732086e-09 -5.619760e-09 -3.662166e-09) (3.427642e-09 -1.143140e-07 1.728348e-07))
1.799646      	((7.230424e-02 -7.559804e-04 -6.488408e-04) (1.895811e-02 -4.318340e-06 -4.236236e-06)) ((-1.725411e-09 -6.593374e-09 -4.237782e-09) (2.822721e-09 -1.474645e-07 2.150928e-07))
1.865413      	((7.196305e-02 -8.678054e-04 -7.336359e-04) (1.890868e-02 -4.956132e-06 -4.704531e-06)) ((-1.707705e-09 -7.628677e-09 -4.857958e-09) (2.131553e-09 -1.847376e-07 2.578244e-07))
1.931209      	((7.154981e-02 -9.892794e-04 -8.378213e-04) (1.886372e-02 -5.848472e-06 -5.257731e-06)) ((-1.769853e-09 -8.781639e-09 -5.475813e-09) (7.914365e-10 -2.255662e-07 3.017342e-07))
1.997033      	((7.114730e-02 -1.118704e-03 -9.425351e-04) (1.882239e-02 -6.776786e-06 -5.826378e-06)) ((-1.843924e-09 -9.936782e-09 -6.068318e-09) (-1.204481e-09 -2.693524e-07 3.520017e-07))
2.062882      	((7.076067e-02 -1.276582e-03 -1.069489e-03) (1.878402e-02 -7.758213e-06 -6.522858e-06)) ((-2.130411e-09 -1.112874e-08 -6.588262e-09) (-3.099742e-09 -3.148097e-07 4.072621e-07))
2.128753      	((7.039354e-02 -1.451525e-03 -1.222572e-03) (1.874812e-02 -8.879344e-06 -7.417610e-06)) ((-2.455424e-09 -1.282226e-08 -6.863025e-09) (-4.082497e-09 -3.660596e-07 4.684065e-07))
2.194644      	((7.007275e-02 -1.640600e-03 -1.393777e-03) (1.871432e-02 -1.007140e-05 -8.430991e-06)) ((-2.802425e-09 -1.471101e-08 -7.088793e-09) (-3.956612e-09 -4.276446e-07 5.380934e-07))
2.260553      	((6.982113e-02 -1.861523e-03 -1.585032e-03) (1.868246e-02 -1.135910e-05 -9.583152e-06)) ((-2.996497e-09 -1.691106e-08 -7.364162e-09) (-3.990953e-09 -4.999893e-07 6.158297e-07))
2.326478      	((6.961120e-02 -2.104647e-03 -1.803709e-03) (1.865230e-02 -1.281655e-05 -1.092477e-05)) ((-3.238844e-09 -1.954922e-08 -7.762554e-09) (-4.507997e-09 -5.822846e-07 7.055239e-07))
2.392417      	((6.942942e-02 -2.382405e-03 -2.048656e-03) (1.862370e-02 -1.454862e-05 -1.249078e-05)) ((-3.415872e-09 -2.230330e-08 -8.286693e-09) (-5.583466e-09 -6.748337e-07 8.057640e-07))
2.458368      	((6.927584e-02 -2.701837e-03 -2.330069e-03) (1.859673e-02 -1.658318e-05 -1.427998e-05)) ((-3.383993e-09 -2.535454e-08 -8.808884e-09) (-6.825341e-09 -7.792027e-07 9.155713e-07))
2.524328      	((6.914753e-02 -3.072524e-03 -2.649757e-03) (1.857156e-02 -1.894932e-05 -1.640464e-05)) ((-2.868416e-09 -2.876686e-08 -9.367606e-09) (-7.748025e-09 -8.923957e-07 1.038113e-06))
2.590298      	((6.902085e-02 -3.497982e-03 -3.019468e-03) (1.854821e-02 -2.174024e-05 -1.894507e-05)) ((-2.237871e-09 -3.241538e-08 -1.008471e-08) (-6.935268e-09 -1.016199e-06 1.175145e-06))
2.656273      	((6.888787e-02 -3.976191e-03 -3.438485e-03) (1.852656e-02 -2.499526e-05 -2.184606e-05)) ((-1.506337e-09 -3.661014e-08 -1.115690e-08) (-4.264876e-09 -1.157702e-06 1.328506e-06))
2.722252      	((6.875331e-02 -4.511310e-03 -3.906142e-03) (1.850663e-02 -2.872014e-05 -2.506848e-05)) ((-6.332550e-10 -4.091810e-08 -1.249419e-08) (-1.353665e-09 -1.319059e-06 1.501502e-06))
2.788234      	((6.862090e-02 -5.114958e-03 -4.431326e-03) (1.848832e-02 -3.292119e-05 -2.869493e-05)) ((1.606527e-10 -4.563680e-08 -1.412466e-08) (6.093437e-10 -1.499373e-06 1.698535e-06))
2.854215      	((6.848866e-02 -5.794569e-03 -5.025637e-03) (1.847160e-02 -3.760304e-05 -3.273938e-05)) ((1.025559e-09 -5.107015e-08 -1.631107e-08) (1.927192e-09 -1.700779e-06 1.925487e-06))
2.920193      	((6.834971e-02 -6.568828e-03 -5.707566e-03) (1.845636e-02 -4.278598e-05 -3.727834e-05)) ((1.900424e-09 -5.760334e-08 -1.887556e-08) (1.566267e-09 -1.925158e-06 2.189022e-06))
2.986167      	((6.821095e-02 -7.442350e-03 -6.489042e-03) (1.844244e-02 -4.853015e-05 -4.256799e-05)) ((2.724137e-09 -6.521006e-08 -2.190426e-08) (-1.312988e-09 -2.172305e-06 2.495538e-06))
3.052133      	((6.808895e-02 -8.429035e-03 -7.369513e-03) (1.842970e-02 -5.500111e-05 -4.884621e-05)) ((3.721589e-09 -7.350999e-08 -2.537407e-08) (-4.542635e-09 -2.442861e-06 2.844263e-06))
3.11809       	((6.797645e-02 -9.549220e-03 -8.366638e-03) (1.841801e-02 -6.242517e-05 -5.621165e-05)) ((5.068134e-09 -8.294495e-08 -2.924068e-08) (-7.963600e-09 -2.744452e-06 3.234528e-06))
3.184034      	((6.788214e-02 -1.082071e-02 -9.501440e-03) (1.840741e-02 -7.096383e-05 -6.483104e-05)) ((6.908358e-09 -9.363981e-08 -3.350537e-08) (-1.111387e-08 -3.081437e-06 3.670246e-06))
3.249962      	((6.780721e-02 -1.226830e-02 -1.078212e-02) (1.839799e-02 -8.078009e-05 -7.481447e-05)) ((9.175549e-09 -1.054950e-07 -3.823413e-08) (-1.356156e-08 -3.456475e-06 4.156765e-06))
3.315871      	((6.775848e-02 -1.390832e-02 -1.224609e-02) (1.838995e-02 -9.211411e-05 -8.623581e-05)) ((1.218339e-08 -1.188840e-07 -4.345403e-08) (-1.810831e-08 -3.877923e-06 4.700791e-06))
3.381756      	((6.775360e-02 -1.576645e-02 -1.390945e-02) (1.838331e-02 -1.052400e-04 -9.904115e-05)) ((1.560329e-08 -1.335473e-07 -4.951052e-08) (-2.372963e-08 -4.362275e-06 5.309594e-06))
3.447614      	((6.779287e-02 -1.787404e-02 -1.579709e-02) (1.837820e-02 -1.202771e-04 -1.132288e-04)) ((1.969581e-08 -1.489098e-07 -5.581190e-08) (-3.072379e-08 -4.928572e-06 5.997622e-06))
3.513438      	((6.787304e-02 -2.027423e-02 -1.794373e-02) (1.837506e-02 -1.375407e-04 -1.288377e-04)) ((2.498083e-08 -1.660076e-07 -6.251037e-08) (-3.677389e-08 -5.592253e-06 6.766997e-06))
3.579225      	((6.802224e-02 -2.298204e-02 -2.036820e-02) (1.837424e-02 -1.573721e-04 -1.462421e-04)) ((3.057186e-08 -1.850844e-07 -6.965561e-08) (-3.650034e-08 -6.353206e-06 7.617849e-06))
3.644967      	((6.824490e-02 -2.603555e-02 -2.310726e-02) (1.837585e-02 -1.802647e-04 -1.659403e-04)) ((3.770105e-08 -2.065778e-07 -7.739151e-08) (-2.481937e-08 -7.210078e-06 8.553694e-06))
3.710659      	((6.855775e-02 -2.943382e-02 -2.619675e-02) (1.838023e-02 -2.066295e-04 -1.883885e-04)) ((4.662882e-08 -2.297386e-07 -8.538376e-08) (-6.720433e-09 -8.168920e-06 9.580347e-06))
3.776293      	((6.899116e-02 -3.326352e-02 -2.967495e-02) (1.838785e-02 -2.365189e-04 -2.141722e-04)) ((5.762222e-08 -2.555114e-07 -9.328129e-08) (6.541644e-09 -9.248435e-06 1.072468e-05))
3.841862      	((6.963102e-02 -3.752572e-02 -3.355266e-02) (1.839952e-02 -2.701014e-04 -2.438227e-04)) ((6.997952e-08 -2.850972e-07 -1.004269e-07) (2.239010e-08 -1.045723e-05 1.201576e-05))
3.907357      	((7.056370e-02 -4.220809e-02 -3.780399e-02) (1.841632e-02 -3.078374e-04 -2.776197e-04)) ((8.426233e-08 -3.164223e-07 -1.068933e-07) (4.664089e-08 -1.179025e-05 1.345406e-05))
3.972771      	((7.174080e-02 -4.733834e-02 -4.244746e-02) (1.843927e-02 -3.505757e-04 -3.160406e-04)) ((1.012708e-07 -3.495536e-07 -1.127396e-07) (7.942036e-08 -1.322877e-05 1.501514e-05))
4.038096      	((7.319628e-02 -5.291651e-02 -4.753273e-02) (1.846981e-02 -3.990900e-04 -3.597750e-04)) ((1.224506e-07 -3.860028e-07 -1.179309e-07) (1.220331e-07 -1.475677e-05 1.666470e-05))
4.103322      	((7.509586e-02 -5.889313e-02 -5.303112e-02) (1.850950e-02 -4.541557e-04 -4.092264e-04)) ((1.482780e-07 -4.262520e-07 -1.241647e-07) (1.625851e-07 -1.636586e-05 1.838145e-05))
4.168444      	((7.739040e-02 -6.528721e-02 -5.896796e-02) (1.855936e-02 -5.163169e-04 -4.646421e-04)) ((1.791904e-07 -4.711367e-07 -1.294077e-07) (2.116189e-07 -1.804410e-05 2.013979e-05))
4.233452      	((8.023689e-02 -7.198757e-02 -6.522492e-02) (1.862051e-02 -5.852530e-04 -5.262766e-04)) ((2.133782e-07 -5.162941e-07 -1.344934e-07) (2.572134e-07 -1.980151e-05 2.194976e-05))
4.298339      	((8.366496e-02 -7.892494e-02 -7.168839e-02) (1.869456e-02 -6.607491e-04 -5.941824e-04)) ((2.490707e-07 -5.586395e-07 -1.364494e-07) (2.848256e-07 -2.164161e-05 2.382294e-05))
4.363099      	((8.769500e-02 -8.585383e-02 -7.821242e-02) (1.878197e-02 -7.414492e-04 -6.683454e-04)) ((2.891501e-07 -5.905742e-07 -1.347531e-07) (3.042669e-07 -2.350859e-05 2.572960e-05))
4.427724      	((9.229178e-02 -9.258411e-02 -8.454312e-02) (1.888314e-02 -8.262709e-04 -7.479333e-04)) ((3.332682e-07 -6.133245e-07 -1.302148e-07) (3.281199e-07 -2.532676e-05 2.760260e-05))
4.49221       	((9.740072e-02 -9.864389e-02 -9.034238e-02) (1.899848e-02 -9.144372e-04 -8.318301e-04)) ((3.761033e-07 -6.255632e-07 -1.276561e-07) (3.487562e-07 -2.700127e-05 2.934995e-05))
4.556554      	((1.028063e-01 -1.037392e-01 -9.521129e-02) (1.912676e-02 -1.002937e-03 -9.167908e-04)) ((4.166847e-07 -6.249525e-07 -1.284916e-07) (3.593668e-07 -2.849388e-05 3.092796e-05))
4.620745      	((1.083204e-01 -1.074363e-01 -9.876317e-02) (1.926515e-02 -1.087449e-03 -9.983383e-04)) ((4.444109e-07 -6.132034e-07 -1.345451e-07) (3.633212e-07 -2.976911e-05 3.231676e-05))
4.684718      	((1.132662e-01 -1.093413e-01 -1.006084e-01) (1.940917e-02 -1.164008e-03 -1.071287e-03)) ((4.523938e-07 -5.895753e-07 -1.436264e-07) (3.593398e-07 -3.082206e-05 3.347536e-05))
4.74849       	((1.172632e-01 -1.091576e-01 -1.005028e-01) (1.955147e-02 -1.228066e-03 -1.130651e-03)) ((4.407384e-07 -5.488689e-07 -1.551061e-07) (3.249572e-07 -3.162033e-05 3.432517e-05))
4.812083      	((1.196780e-01 -1.067053e-01 -9.824341e-02) (1.968327e-02 -1.272414e-03 -1.170888e-03)) ((4.081335e-07 -4.900503e-07 -1.609755e-07) (2.782503e-07 -3.217279e-05 3.488925e-05))
4.87553       	((1.202309e-01 -1.018218e-01 -9.380894e-02) (1.979781e-02 -1.290620e-03 -1.187716e-03)) ((3.570422e-07 -4.174652e-07 -1.528902e-07) (2.440175e-07 -3.241665e-05 3.517466e-05))
4.938866      	((1.189700e-01 -9.441384e-02 -8.701304e-02) (1.989197e-02 -1.276670e-03 -1.175779e-03)) ((2.825027e-07 -3.320707e-07 -1.382553e-07) (2.127690e-07 -3.234495e-05 3.517942e-05))
5.002135      	((1.162014e-01 -8.505461e-02 -7.854179e-02) (1.996371e-02 -1.227116e-03 -1.132690e-03)) ((1.992833e-07 -2.470586e-07 -1.165014e-07) (2.080501e-07 -3.200597e-05 3.495981e-05))
5.065385      	((1.124194e-01 -7.479849e-02 -6.910961e-02) (2.001518e-02 -1.144562e-03 -1.061063e-03)) ((1.245274e-07 -1.548860e-07 -8.664464e-08) (2.133603e-07 -3.140273e-05 3.451099e-05))
5.128666      	((1.081183e-01 -6.435519e-02 -5.968218e-02) (2.005043e-02 -1.034122e-03 -9.637508e-04)) ((6.773895e-08 -5.108375e-08 -6.189381e-08) (1.975375e-07 -3.067689e-05 3.391517e-05))
5.192028      	((1.039813e-01 -5.529906e-02 -5.137513e-02) (2.007930e-02 -9.074536e-04 -8.508062e-04)) ((3.725536e-08 2.625057e-08 -4.952661e-08) (1.909984e-07 -2.982966e-05 3.314899e-05))
5.255513      	((9.996862e-02 -4.860204e-02 -4.530309e-02) (2.010868e-02 -7.761911e-04 -7.340936e-04)) ((3.190711e-08 4.331940e-08 -4.905930e-08) (1.977210e-07 -2.894331e-05 3.234921e-05))
5.319148      	((9.606717e-02 -4.478907e-02 -4.163176e-02) (2.014061e-02 -6.502445e-04 -6.227157e-04)) ((5.016336e-08 7.232052e-09 -4.770311e-08) (2.248798e-07 -2.815870e-05 3.170389e-05))
5.382948      	((9.266513e-02 -4.334379e-02 -4.021854e-02) (2.017507e-02 -5.427474e-04 -5.271295e-04)) ((9.657322e-08 -6.950238e-08 -3.899115e-08) (2.709650e-07 -2.747972e-05 3.113636e-05))
5.446909      	((8.952507e-02 -4.367706e-02 -4.037246e-02) (2.021189e-02 -4.653380e-04 -4.571309e-04)) ((1.610419e-07 -1.465836e-07 -3.354493e-08) (3.401178e-07 -2.670669e-05 3.036170e-05))
5.511015      	((8.682422e-02 -4.495110e-02 -4.142063e-02) (2.024718e-02 -4.239437e-04 -4.188568e-04)) ((2.236983e-07 -1.916586e-07 -3.622503e-08) (3.982010e-07 -2.560077e-05 2.916291e-05))
5.575241      	((8.360459e-02 -4.663426e-02 -4.283188e-02) (2.027241e-02 -4.164592e-04 -4.112874e-04)) ((2.761411e-07 -2.191419e-07 -4.314435e-08) (4.113414e-07 -2.412481e-05 2.757052e-05))
5.639558      	((7.985296e-02 -4.830528e-02 -4.420059e-02) (2.027684e-02 -4.291410e-04 -4.209554e-04)) ((3.103061e-07 -2.521592e-07 -5.416210e-08) (3.961215e-07 -2.274143e-05 2.603905e-05))
5.703937      	((7.654664e-02 -4.948280e-02 -4.512313e-02) (2.026049e-02 -4.451093e-04 -4.325922e-04)) ((3.211522e-07 -3.004833e-07 -7.506815e-08) (3.669660e-07 -2.185449e-05 2.500238e-05))
