# Forces      
# CofR        : (0.000000e+00 0.000000e+00 0.000000e+00)
# Time        forces(pressure viscous)	moments(pressure viscous)
0             	((0.000000e+00 0.000000e+00 0.000000e+00) (1.004978e-05 -1.428012e-15 7.345377e-16)) ((0.000000e+00 0.000000e+00 0.000000e+00) (-1.987339e-17 -1.493168e-16 2.143763e-16))
0.012         	((2.922539e-03 -1.779614e-09 -1.386533e-09) (1.153443e-05 -1.049362e-11 -6.755290e-12)) ((-9.814905e-15 -1.245579e-12 -4.202354e-13) (1.330153e-15 9.655613e-14 1.655448e-13))
0.0264        	((-2.004525e-04 -1.658780e-08 -5.866928e-08) (1.177105e-05 -2.906624e-11 -5.242756e-11)) ((6.969205e-13 2.695486e-12 6.769664e-13) (-1.040691e-14 2.699264e-13 2.662228e-13))
0.04368       	((-6.123208e-04 -9.440832e-10 3.465385e-08) (1.046259e-05 -4.041734e-11 -4.822883e-11)) ((-4.539352e-13 1.263155e-12 2.143086e-12) (2.962253e-14 7.044138e-13 1.196303e-13))
0.064416      	((-5.820794e-06 1.517039e-09 -1.440937e-08) (9.267819e-06 1.685653e-10 1.794739e-10)) ((-3.121758e-14 -1.137864e-12 -7.983084e-13) (6.938040e-14 -4.588784e-13 1.442866e-12))
0.0892992     	((8.206514e-06 -4.740747e-09 1.192528e-08) (8.556839e-06 2.604468e-10 3.112151e-10)) ((5.438912e-13 -2.807767e-13 -4.451766e-13) (-8.247581e-15 -7.721030e-13 2.259990e-12))
0.119159      	((-9.112544e-06 6.875109e-09 2.821675e-09) (7.901676e-06 1.900152e-10 2.754061e-10)) ((-2.742467e-13 -6.150383e-13 -1.678071e-13) (3.749875e-14 1.391050e-12 5.920392e-13))
0.154991      	((-4.925354e-06 -1.541812e-09 -7.027124e-10) (7.206388e-06 1.474244e-10 2.264727e-10)) ((1.001413e-13 -2.778656e-13 1.127261e-13) (-1.234733e-13 2.573597e-12 -2.002800e-14))
0.197989      	((-1.197992e-06 9.093823e-11 -3.436507e-10) (6.503928e-06 6.827699e-11 1.356489e-10)) ((-7.280924e-15 -4.868254e-13 1.699234e-13) (-1.790444e-13 1.773663e-12 7.770300e-13))
0.249587      	((1.562739e-07 1.268553e-09 3.995524e-10) (5.814167e-06 8.908571e-12 6.394583e-11)) ((-5.038595e-14 -3.348050e-13 5.291172e-14) (3.450829e-14 8.026797e-13 1.440766e-12))
0.311504      	((7.764669e-07 6.220787e-10 3.444293e-10) (5.157745e-06 -2.442184e-11 2.769603e-11)) ((-3.779998e-15 -2.624142e-13 3.201558e-15) (8.133527e-14 1.451880e-13 1.800878e-12))
0.385805      	((1.072641e-06 2.640282e-11 -6.192723e-11) (4.551185e-06 -4.177632e-11 5.918455e-12)) ((-3.433471e-15 -1.688127e-13 8.821418e-15) (3.623039e-14 -6.246520e-13 2.049009e-12))
0.474966      	((1.211325e-06 -1.782814e-10 -1.538036e-10) (4.006902e-06 -4.831823e-11 -1.165104e-11)) ((-4.280264e-15 -1.057406e-13 3.253119e-15) (-9.867284e-15 -9.728357e-13 2.123462e-12))
0.581959      	((1.266791e-06 -1.601724e-10 -1.115826e-10) (3.530526e-06 -5.534241e-11 -2.492428e-11)) ((-4.063061e-16 -6.539628e-14 2.343966e-15) (1.023146e-14 -8.963408e-13 2.324355e-12))
0.710351      	((1.261878e-06 -1.513214e-10 -1.396836e-10) (3.122453e-06 -4.758253e-11 -2.581607e-11)) ((4.013294e-15 -3.624393e-14 -1.215990e-16) (5.983899e-14 -4.255936e-13 2.276919e-12))
0.864421      	((1.216222e-06 -1.287911e-10 -1.160632e-10) (2.777505e-06 -3.280929e-11 -2.805493e-11)) ((3.372770e-15 -1.797605e-14 -4.900056e-15) (7.381303e-14 -4.295679e-14 1.956292e-12))
1.049306      	((1.149201e-06 -8.618244e-11 -1.087543e-10) (2.486808e-06 -1.835693e-11 -2.649485e-11)) ((3.029507e-15 -9.706587e-15 -2.316455e-15) (6.721144e-14 1.961681e-13 1.519548e-12))
1.271167      	((1.074979e-06 -5.982854e-11 -8.147098e-11) (2.241140e-06 -1.088751e-11 -1.947235e-11)) ((2.736440e-15 -2.646308e-15 -1.989039e-15) (5.997525e-14 2.109693e-13 1.119759e-12))
1.5374        	((9.992346e-07 -4.611515e-11 -6.379234e-11) (2.030732e-06 -7.495601e-12 -1.468796e-11)) ((2.458648e-15 3.067594e-17 -1.108928e-15) (5.311875e-14 1.822375e-13 8.005221e-13))
1.85688       	((9.253679e-07 -4.157435e-11 -5.341666e-11) (1.846642e-06 -5.520079e-12 -1.326318e-11)) ((1.755302e-15 8.918685e-16 -9.019314e-16) (4.849153e-14 1.424578e-13 5.967139e-13))
2.240256      	((8.553145e-07 -4.176781e-11 -5.482311e-11) (1.682994e-06 -6.839500e-12 -1.384931e-11)) ((1.433705e-15 -1.309874e-15 -1.293912e-15) (4.802547e-14 1.005517e-13 4.044055e-13))
2.700307      	((7.898906e-07 -5.298564e-11 -5.301555e-11) (1.536175e-06 -8.453635e-12 -1.463963e-11)) ((1.464742e-15 -2.755038e-15 -9.802483e-16) (5.151492e-14 1.468928e-13 1.576829e-13))
3.252369      	((7.288618e-07 -5.233011e-11 -5.987334e-11) (1.403812e-06 -9.343232e-12 -1.422499e-11)) ((1.512857e-15 -3.733240e-15 -1.382014e-15) (6.010971e-14 2.702525e-13 -6.072888e-14))
3.914842      	((6.715296e-07 -4.722848e-11 -5.316865e-11) (1.284201e-06 -1.028955e-11 -1.348360e-11)) ((1.982189e-15 -4.311084e-15 -1.429577e-15) (6.919372e-14 3.898366e-13 -2.317354e-13))
4.709811      	((6.183325e-07 -4.096722e-11 -4.506383e-11) (1.176062e-06 -1.083722e-11 -1.286684e-11)) ((2.873632e-15 -4.844983e-15 -1.182466e-15) (7.575518e-14 4.609490e-13 -3.756080e-13))
5.663773      	((5.693136e-07 -3.425890e-11 -3.288183e-11) (1.078476e-06 -1.060857e-11 -1.198150e-11)) ((3.447756e-15 -5.422921e-15 -8.760221e-16) (8.443301e-14 4.752141e-13 -4.473146e-13))
6.808528      	((5.243562e-07 -2.993412e-11 -3.136787e-11) (9.906799e-07 -9.440976e-12 -1.075375e-11)) ((3.236383e-15 -5.800574e-15 -2.793735e-16) (9.152776e-14 5.104234e-13 -4.639876e-13))
8.182233      	((4.832397e-07 -3.130607e-11 -3.473245e-11) (9.118498e-07 -8.527656e-12 -9.562405e-12)) ((3.363862e-15 -5.782440e-15 9.704617e-17) (8.008672e-14 6.494363e-13 -5.242121e-13))
9.83068       	((4.458694e-07 -3.247284e-11 -3.536109e-11) (8.410399e-07 -8.701002e-12 -9.252692e-12)) ((3.455073e-15 -6.445820e-15 3.324316e-16) (5.855379e-14 9.245006e-13 -7.409242e-13))
11.808816     	((4.116444e-07 -4.669192e-11 -4.774296e-11) (7.772053e-07 -9.732032e-12 -9.772961e-12)) ((3.235009e-15 -6.608075e-15 3.975384e-16) (4.807422e-14 1.389954e-12 -1.210742e-12))
14.182579     	((3.803466e-07 -6.259983e-11 -6.094658e-11) (7.193894e-07 -1.068095e-11 -1.082966e-11)) ((3.266772e-15 -7.368755e-15 5.015820e-16) (3.860312e-14 2.033248e-12 -1.853404e-12))
17.031095     	((3.518164e-07 -5.658186e-11 -5.383930e-11) (6.668199e-07 -1.152174e-11 -1.212303e-11)) ((3.295550e-15 -7.355236e-15 4.394552e-16) (2.018111e-14 2.832058e-12 -2.686646e-12))
20.449314     	((3.258346e-07 -6.836517e-11 -6.943665e-11) (6.189058e-07 -1.228185e-11 -1.398613e-11)) ((3.155102e-15 -8.093194e-15 5.884173e-16) (6.508681e-15 3.686082e-12 -3.619611e-12))
24.551176     	((3.020058e-07 -6.125573e-11 -6.456953e-11) (5.751915e-07 -1.297458e-11 -1.483983e-11)) ((3.023612e-15 -8.223504e-15 2.565767e-16) (-1.326758e-14 4.503653e-12 -4.450004e-12))
29.473411     	((2.802434e-07 -4.582646e-11 -4.998305e-11) (5.353419e-07 -1.158775e-11 -1.280164e-11)) ((2.660954e-15 -7.242227e-15 -8.971116e-17) (-3.174126e-14 5.256412e-12 -5.198739e-12))
35.380094     	((2.603804e-07 -4.036577e-11 -4.285233e-11) (4.990902e-07 -9.712204e-12 -9.498487e-12)) ((2.188321e-15 -5.912110e-15 1.574439e-16) (-3.704916e-14 6.054489e-12 -6.021548e-12))
42.468112     	((2.424093e-07 -2.295953e-11 -2.399851e-11) (4.661664e-07 -7.220259e-12 -6.642254e-12)) ((1.960155e-15 -5.161460e-15 6.141207e-17) (-3.117246e-14 6.982370e-12 -6.960105e-12))
50.973735     	((2.261485e-07 2.562452e-12 6.496504e-14) (4.362965e-07 -3.394709e-12 -3.064785e-12)) ((1.955388e-15 -4.848199e-15 -2.873370e-16) (-2.113715e-14 8.020097e-12 -8.013340e-12))
61.180482     	((2.114849e-07 2.598573e-11 2.276298e-11) (4.092082e-07 -5.341021e-13 5.219387e-13)) ((1.689366e-15 -4.471836e-15 -3.953255e-16) (-8.814118e-15 9.230875e-12 -9.232268e-12))
73.428578     	((1.982883e-07 4.600540e-11 4.411981e-11) (3.846355e-07 1.922385e-12 3.473667e-12)) ((1.500545e-15 -3.916753e-15 -4.097680e-16) (5.339237e-15 1.061692e-11 -1.062392e-11))
88.126294     	((1.864197e-07 6.292389e-11 5.980199e-11) (3.623184e-07 3.640881e-12 5.401962e-12)) ((1.354414e-15 -3.278736e-15 -6.208865e-16) (1.207573e-14 1.214123e-11 -1.214534e-11))
105.763553    	((1.757948e-07 7.293140e-11 6.998442e-11) (3.420311e-07 3.545829e-12 5.145926e-12)) ((1.232175e-15 -2.600470e-15 -9.209048e-16) (1.007518e-14 1.373126e-11 -1.373423e-11))
126.928263    	((1.663972e-07 7.840254e-11 7.759314e-11) (3.235870e-07 3.314871e-12 4.198843e-12)) ((1.034883e-15 -1.842645e-15 -1.127233e-15) (1.188597e-14 1.528516e-11 -1.527110e-11))
152.325916    	((1.581215e-07 7.716615e-11 7.770749e-11) (3.068357e-07 4.831344e-13 2.170343e-12)) ((9.106535e-16 -1.271105e-15 -1.277581e-15) (6.652271e-15 1.672055e-11 -1.669876e-11))
182.803099    	((1.508389e-07 8.276269e-11 8.196292e-11) (2.916493e-07 -2.978200e-12 -3.314411e-13)) ((8.037682e-16 -6.121212e-16 -1.332478e-15) (4.971609e-15 1.796204e-11 -1.793086e-11))
219.375719    	((1.444411e-07 9.003242e-11 8.924329e-11) (2.779166e-07 -5.791112e-12 -2.487070e-12)) ((7.703829e-16 7.763270e-17 -1.219861e-15) (3.851680e-16 1.895588e-11 -1.892546e-11))
263.262863    	((1.388869e-07 9.538355e-11 9.680769e-11) (2.655348e-07 -6.364719e-12 -3.494514e-12)) ((6.901243e-16 5.939259e-16 -1.125418e-15) (-3.157181e-15 1.968392e-11 -1.966302e-11))
315.927436    	((1.341510e-07 9.665373e-11 9.845322e-11) (2.544174e-07 -6.602453e-12 -4.270324e-12)) ((5.878560e-16 9.282544e-16 -1.123681e-15) (-3.670664e-15 2.014474e-11 -2.013539e-11))
379.124923    	((1.302066e-07 9.913058e-11 9.885686e-11) (2.444900e-07 -6.901149e-12 -5.454662e-12)) ((6.351432e-16 9.689625e-16 -1.063008e-15) (-1.561182e-15 2.035028e-11 -2.035697e-11))
454.961908    	((1.270003e-07 1.022219e-10 9.847062e-11) (2.356875e-07 -6.551882e-12 -6.041237e-12)) ((6.823534e-16 1.013069e-15 -9.901949e-16) (5.223292e-16 2.030363e-11 -2.034201e-11))
545.966289    	((1.244417e-07 1.020009e-10 9.505130e-11) (2.279464e-07 -5.167156e-12 -5.781550e-12)) ((7.117962e-16 1.015424e-15 -9.658121e-16) (3.030296e-15 2.003829e-11 -2.011709e-11))
655.171547    	((1.224355e-07 9.963899e-11 9.230246e-11) (2.211992e-07 -3.180952e-12 -4.348102e-12)) ((6.195620e-16 9.437477e-16 -9.815210e-16) (1.052652e-14 1.959350e-11 -1.968687e-11))
786.217856    	((1.208955e-07 9.847972e-11 8.960312e-11) (2.153768e-07 -4.609461e-13 -2.159701e-12)) ((5.312070e-16 8.573224e-16 -1.049475e-15) (1.284022e-14 1.893969e-11 -1.905969e-11))
943.473427    	((1.197240e-07 9.826556e-11 8.924448e-11) (2.104029e-07 2.873762e-12 7.533836e-13)) ((4.742072e-16 6.816308e-16 -1.086568e-15) (1.294491e-14 1.811759e-11 -1.825402e-11))
1132.180113   	((1.188290e-07 9.653310e-11 8.839004e-11) (2.061946e-07 6.477058e-12 4.136189e-12)) ((4.099485e-16 5.660952e-16 -1.157373e-15) (6.167241e-15 1.714191e-11 -1.729819e-11))
1358.628135   	((1.181379e-07 9.405150e-11 8.736740e-11) (2.026663e-07 1.029234e-11 8.027764e-12)) ((2.914416e-16 3.904014e-16 -1.221440e-15) (-4.492372e-15 1.604083e-11 -1.621611e-11))
1624.736223   	((1.176046e-07 9.070491e-11 8.358491e-11) (1.997357e-07 1.425079e-11 1.212604e-11)) ((3.003579e-16 2.362246e-16 -1.233975e-15) (-1.491182e-14 1.485621e-11 -1.504862e-11))
1930.577672   	((1.171797e-07 8.670103e-11 8.062190e-11) (1.973171e-07 1.828950e-11 1.626391e-11)) ((3.075099e-16 9.015391e-17 -1.185936e-15) (-2.145743e-14 1.363754e-11 -1.383700e-11))
2276.214663   	((1.168383e-07 8.192556e-11 7.712644e-11) (1.953328e-07 2.225935e-11 2.020184e-11)) ((3.317829e-16 -3.383409e-17 -1.140164e-15) (-2.474005e-14 1.242420e-11 -1.262422e-11))
2661.700462   	((1.165601e-07 7.731141e-11 7.262416e-11) (1.937115e-07 2.591966e-11 2.379162e-11)) ((3.498661e-16 -1.965936e-16 -1.086780e-15) (-2.592449e-14 1.124867e-11 -1.144794e-11))
3060.643978   	((1.163430e-07 7.263926e-11 6.764095e-11) (1.923957e-07 2.909845e-11 2.686887e-11)) ((3.615635e-16 -3.428122e-16 -1.043894e-15) (-2.670111e-14 1.013822e-11 -1.033215e-11))
3459.971501   	((1.161661e-07 6.790982e-11 6.280135e-11) (1.913288e-07 3.166838e-11 2.936502e-11)) ((3.737215e-16 -4.816415e-16 -9.931941e-16) (-2.733862e-14 9.108003e-12 -9.296786e-12))
3859.621233   	((1.160227e-07 6.313603e-11 5.831237e-11) (1.904662e-07 3.363599e-11 3.139262e-11)) ((3.953987e-16 -6.015361e-16 -9.509748e-16) (-2.757889e-14 8.168886e-12 -8.353764e-12))
4259.539172   	((1.159043e-07 5.844228e-11 5.385838e-11) (1.897684e-07 3.500125e-11 3.295495e-11)) ((4.107894e-16 -7.212893e-16 -9.139443e-16) (-2.809538e-14 7.323176e-12 -7.506195e-12))
4659.679423   	((1.158073e-07 5.391927e-11 4.969560e-11) (1.892043e-07 3.584712e-11 3.401969e-11)) ((4.215550e-16 -8.241935e-16 -8.818680e-16) (-2.848696e-14 6.569893e-12 -6.753465e-12))
5060.003204   	((1.157273e-07 4.982915e-11 4.598769e-11) (1.887476e-07 3.626904e-11 3.467569e-11)) ((4.250345e-16 -9.208555e-16 -8.544115e-16) (-2.880377e-14 5.906072e-12 -6.089962e-12))
5460.478345   	((1.156615e-07 4.616695e-11 4.260677e-11) (1.883776e-07 3.636618e-11 3.489177e-11)) ((4.241160e-16 -9.998394e-16 -8.312235e-16) (-2.914235e-14 5.326206e-12 -5.509129e-12))
5861.077989   	((1.156072e-07 4.286146e-11 3.954767e-11) (1.880774e-07 3.621997e-11 3.481952e-11)) ((4.241764e-16 -1.069614e-15 -8.134786e-16) (-2.954444e-14 4.821846e-12 -5.003449e-12))
6261.779976   	((1.155624e-07 3.993698e-11 3.675415e-11) (1.878335e-07 3.589478e-11 3.456701e-11)) ((4.238459e-16 -1.131199e-15 -7.986342e-16) (-3.001505e-14 4.385192e-12 -4.565913e-12))
6662.566036   	((1.155254e-07 3.736250e-11 3.428361e-11) (1.876352e-07 3.543397e-11 3.414996e-11)) ((4.235000e-16 -1.185462e-15 -7.856693e-16) (-3.032378e-14 4.009897e-12 -4.189612e-12))
7063.421164   	((1.154951e-07 3.511598e-11 3.214235e-11) (1.874737e-07 3.489040e-11 3.363643e-11)) ((4.238136e-16 -1.231573e-15 -7.736539e-16) (-3.063553e-14 3.687912e-12 -3.866786e-12))
7464.333008   	((1.154700e-07 3.316502e-11 3.027915e-11) (1.873420e-07 3.429769e-11 3.306053e-11)) ((4.239541e-16 -1.272034e-15 -7.628440e-16) (-3.092070e-14 3.412879e-12 -3.590961e-12))
7865.291431   	((1.154492e-07 3.148312e-11 2.866538e-11) (1.872346e-07 3.368293e-11 3.245324e-11)) ((4.243034e-16 -1.305943e-15 -7.536453e-16) (-3.113157e-14 3.179066e-12 -3.356504e-12))
8266.288106   	((1.154322e-07 3.004513e-11 2.724661e-11) (1.871468e-07 3.307162e-11 3.185045e-11)) ((4.247360e-16 -1.335301e-15 -7.450836e-16) (-3.128144e-14 2.980734e-12 -3.157874e-12))
8667.316201   	((1.154179e-07 2.881926e-11 2.609108e-11) (1.870750e-07 3.248432e-11 3.127297e-11)) ((4.257509e-16 -1.360524e-15 -7.375662e-16) (-3.137365e-14 2.813025e-12 -2.990011e-12))
9068.370111   	((1.154062e-07 2.776106e-11 2.513581e-11) (1.870163e-07 3.193265e-11 3.072808e-11)) ((4.264194e-16 -1.381361e-15 -7.311613e-16) (-3.143596e-14 2.671722e-12 -2.848438e-12))
9469.44524    	((1.153966e-07 2.688435e-11 2.424208e-11) (1.869681e-07 3.142472e-11 3.022226e-11)) ((4.267403e-16 -1.398822e-15 -7.257014e-16) (-3.149031e-14 2.553041e-12 -2.729359e-12))
9870.537816   	((1.153885e-07 2.614662e-11 2.353709e-11) (1.869287e-07 3.096383e-11 2.976200e-11)) ((4.272075e-16 -1.413705e-15 -7.211087e-16) (-3.153288e-14 2.453603e-12 -2.629446e-12))
10271.644743  	((1.153820e-07 2.553058e-11 2.292687e-11) (1.868963e-07 3.055035e-11 2.934805e-11)) ((4.269947e-16 -1.425772e-15 -7.170411e-16) (-3.157185e-14 2.370495e-12 -2.545820e-12))
10672.763482  	((1.153766e-07 2.501260e-11 2.239213e-11) (1.868696e-07 3.018333e-11 2.898111e-11)) ((4.267621e-16 -1.435422e-15 -7.138198e-16) (-3.160511e-14 2.301143e-12 -2.475969e-12))
11073.891947  	((1.153721e-07 2.459041e-11 2.196454e-11) (1.868478e-07 2.986105e-11 2.865856e-11)) ((4.265898e-16 -1.443702e-15 -7.110005e-16) (-3.163454e-14 2.243389e-12 -2.417761e-12))
11475.028427  	((1.153684e-07 2.423900e-11 2.161957e-11) (1.868298e-07 2.958020e-11 2.837708e-11)) ((4.263157e-16 -1.450746e-15 -7.087642e-16) (-3.165551e-14 2.195394e-12 -2.369354e-12))
11876.171514  	((1.153653e-07 2.394399e-11 2.133323e-11) (1.868149e-07 2.933708e-11 2.813393e-11)) ((4.261623e-16 -1.456523e-15 -7.068530e-16) (-3.167424e-14 2.155561e-12 -2.329164e-12))
12277.320047  	((1.153625e-07 2.370970e-11 2.108754e-11) (1.868027e-07 2.912883e-11 2.792563e-11)) ((4.260136e-16 -1.461494e-15 -7.051392e-16) (-3.169155e-14 2.122558e-12 -2.295848e-12))
12678.473071  	((1.153603e-07 2.350943e-11 2.091344e-11) (1.867926e-07 2.895130e-11 2.774880e-11)) ((4.259527e-16 -1.465322e-15 -7.037973e-16) (-3.170584e-14 2.095252e-12 -2.268277e-12))
13079.629806  	((1.153586e-07 2.333957e-11 2.077525e-11) (1.867843e-07 2.880085e-11 2.759912e-11)) ((4.259127e-16 -1.468714e-15 -7.026393e-16) (-3.171822e-14 2.072695e-12 -2.245485e-12))
13480.789605  	((1.153571e-07 2.320221e-11 2.063972e-11) (1.867775e-07 2.867408e-11 2.747279e-11)) ((4.258497e-16 -1.471449e-15 -7.017499e-16) (-3.173063e-14 2.054082e-12 -2.226665e-12))
13881.951938  	((1.153559e-07 2.309322e-11 2.054077e-11) (1.867718e-07 2.856832e-11 2.736738e-11)) ((4.257952e-16 -1.473587e-15 -7.009927e-16) (-3.174136e-14 2.038731e-12 -2.211145e-12))
14283.116363  	((1.153550e-07 2.300617e-11 2.045459e-11) (1.867671e-07 2.848065e-11 2.727954e-11)) ((4.257291e-16 -1.475250e-15 -7.003658e-16) (-3.175060e-14 2.026092e-12 -2.198355e-12))
