# Forces      
# CofR        : (0.000000e+00 0.000000e+00 0.000000e+00)
# Time        forces(pressure viscous)	moments(pressure viscous)
0             	((0.000000e+00 0.000000e+00 0.000000e+00) (-2.516858e-13 -1.998586e-13 4.000474e-03)) ((0.000000e+00 0.000000e+00 0.000000e+00) (8.661932e-15 1.345118e-09 -7.251661e-15))
0.012         	((2.388192e-06 2.147071e-06 1.169808e+00) (-3.297284e-11 -4.168481e-09 4.671268e-03)) ((1.485373e-10 3.127427e-07 -3.121485e-12) (1.453317e-11 4.595723e-09 4.805910e-13))
0.0264        	((-9.659456e-06 -2.200734e-05 -1.748873e-01) (-1.906350e-08 -2.358568e-08 4.683964e-03)) ((2.806512e-09 -4.096639e-08 3.562653e-11) (-3.179036e-10 7.630174e-09 2.493218e-13))
0.04368       	((1.234531e-05 1.564630e-05 -1.917500e-01) (-3.673845e-09 -2.601087e-08 4.068770e-03)) ((-2.961650e-09 -3.713012e-08 -6.221383e-11) (-1.463507e-10 8.414321e-09 -1.057642e-11))
0.064416      	((-4.586240e-06 3.173064e-06 -4.205339e-04) (-6.549322e-08 -7.483606e-09 3.584796e-03)) ((3.269561e-10 4.607560e-09 4.176029e-11) (5.933010e-10 1.038467e-08 -5.238547e-11))
0.0892992     	((-1.918530e-06 -3.128315e-06 -1.445047e-03) (-1.522182e-07 -3.321595e-09 3.298089e-03)) ((3.579832e-10 4.252540e-09 -5.686431e-12) (1.179333e-09 1.135703e-08 -8.812418e-11))
0.119159      	((-4.385150e-06 -9.813963e-07 -1.956064e-03) (-4.213239e-08 -1.455043e-08 3.054281e-03)) ((5.350432e-11 4.184280e-09 -1.559684e-11) (1.166288e-09 1.061840e-08 -7.239278e-11))
0.154991      	((-2.410137e-06 -3.109024e-06 5.563955e-06) (1.427392e-07 -2.583137e-08 2.825779e-03)) ((-9.902947e-12 5.167253e-09 7.339901e-12) (1.025506e-09 1.212802e-08 -4.439392e-11))
0.197989      	((6.839058e-07 -1.916702e-06 6.046764e-04) (2.299287e-07 -2.949991e-08 2.621979e-03)) ((3.013415e-11 5.218021e-09 -1.127494e-12) (9.118450e-10 1.354291e-08 -5.369629e-11))
0.249587      	((-1.590461e-06 -1.021449e-06 8.986619e-04) (2.873324e-07 -2.789709e-08 2.446318e-03)) ((1.752266e-11 5.216189e-09 -1.307854e-13) (7.813861e-10 1.447071e-08 -6.587760e-11))
0.311504      	((3.105670e-07 -8.003743e-07 1.089680e-03) (3.141169e-07 -2.493557e-08 2.293980e-03)) ((3.644723e-11 5.035489e-09 -6.651713e-12) (7.210117e-10 1.614211e-08 -5.729889e-11))
0.385805      	((-8.927677e-07 -3.336468e-07 1.198463e-03) (2.376710e-07 -2.825990e-08 2.155971e-03)) ((3.288262e-11 4.399726e-09 -4.749607e-12) (6.437275e-10 1.856708e-08 -4.703904e-11))
0.474966      	((-7.010455e-07 -2.516756e-07 1.264654e-03) (1.228014e-07 -3.254349e-08 2.024006e-03)) ((3.616136e-11 4.070479e-09 -2.577948e-12) (5.255256e-10 2.115397e-08 -4.363817e-11))
0.581959      	((-9.198598e-07 -1.715771e-08 1.324577e-03) (9.023010e-08 -2.963231e-08 1.895086e-03)) ((3.698032e-11 3.801980e-09 -2.023067e-12) (5.749600e-10 2.197865e-08 -4.914432e-11))
0.710351      	((-5.397061e-07 -7.801375e-08 1.396896e-03) (1.351410e-07 -2.257518e-08 1.771274e-03)) ((3.236343e-11 3.545945e-09 -2.897264e-12) (9.899742e-10 2.083900e-08 -5.108140e-11))
0.864421      	((-6.447192e-07 -2.898502e-07 1.501319e-03) (1.902932e-07 -1.713703e-08 1.655392e-03)) ((2.873745e-11 3.256974e-09 -1.650702e-12) (1.744682e-09 1.902919e-08 -4.112016e-11))
1.049306      	((-6.516533e-07 -5.165073e-07 1.648872e-03) (2.142506e-07 -1.435306e-08 1.549131e-03)) ((2.020524e-11 2.986566e-09 1.009842e-13) (2.564615e-09 1.624724e-08 -3.217193e-11))
1.271167      	((-1.047535e-06 -8.638391e-07 1.848847e-03) (1.795727e-07 -1.850836e-08 1.453700e-03)) ((1.670035e-11 2.817143e-09 2.899500e-12) (3.134534e-09 1.293137e-08 -3.323483e-11))
1.5328        	((-1.102711e-06 -9.050765e-07 2.111154e-03) (1.587204e-07 -2.904324e-08 1.370877e-03)) ((1.465866e-11 2.636018e-09 2.475352e-12) (3.155753e-09 1.143497e-08 -3.485687e-11))
1.833879      	((-1.295076e-06 -9.953677e-07 2.435174e-03) (1.506539e-07 -3.731586e-08 1.301214e-03)) ((1.834557e-11 2.396313e-09 -1.250924e-13) (2.771391e-09 1.166528e-08 -2.113393e-11))
2.174093      	((-1.499149e-06 -8.729284e-07 2.820927e-03) (9.037406e-08 -3.955709e-08 1.243923e-03)) ((4.868481e-12 2.149689e-09 -3.613901e-12) (2.246195e-09 1.351868e-08 -9.098165e-12))
2.553052      	((-1.675785e-06 -6.943071e-07 3.259690e-03) (3.136030e-08 -3.780368e-08 1.197327e-03)) ((-1.466733e-11 1.986728e-09 -3.716661e-12) (1.777301e-09 1.828980e-08 -7.135148e-12))
2.935568      	((-1.928085e-06 -4.014558e-07 3.714479e-03) (-2.218505e-08 -3.237619e-08 1.161885e-03)) ((-1.431526e-11 1.988752e-09 -2.699249e-12) (1.275990e-09 2.537858e-08 6.258908e-12))
3.312915      	((-1.661674e-06 -8.907683e-08 4.145254e-03) (-7.046916e-08 -1.876193e-08 1.133478e-03)) ((-1.478825e-11 2.166002e-09 1.174926e-12) (4.560913e-10 3.491833e-08 2.578036e-12))
3.685585      	((-1.311715e-06 1.682238e-07 4.540926e-03) (-3.632788e-08 -1.131512e-08 1.110782e-03)) ((-2.530029e-11 2.438951e-09 4.439471e-12) (4.556639e-10 4.171640e-08 -2.755501e-11))
4.05511       	((-1.494182e-06 -3.891432e-07 4.854498e-03) (-5.202875e-09 -3.942730e-08 1.092815e-03)) ((5.217355e-12 2.700038e-09 6.424579e-12) (1.849137e-09 4.201219e-08 -3.083328e-11))
4.423332      	((-1.435206e-06 -1.390627e-07 5.069262e-03) (-8.020864e-08 -9.534867e-08 1.077634e-03)) ((3.409228e-11 2.893897e-09 3.959356e-12) (4.834377e-09 3.854223e-08 -3.406710e-11))
4.791407      	((-5.968559e-07 1.088634e-06 5.190721e-03) (-1.067557e-07 -1.257435e-07 1.063459e-03)) ((2.142979e-11 3.000901e-09 4.505043e-12) (7.723257e-09 3.386552e-08 -1.044276e-10))
5.159312      	((3.816650e-07 2.526477e-06 5.215511e-03) (-9.235960e-08 -1.020570e-07 1.050215e-03)) ((-2.199576e-11 3.093910e-09 1.819980e-12) (9.432728e-09 2.751660e-08 -1.516619e-10))
5.526285      	((-1.285704e-06 1.639633e-06 5.146221e-03) (-1.377406e-07 -7.981759e-08 1.037667e-03)) ((-2.182687e-11 3.109103e-09 7.395913e-12) (1.062588e-08 1.988020e-08 -1.450107e-10))
5.891692      	((-3.188903e-06 6.747285e-07 5.042802e-03) (-2.005883e-07 -9.707574e-08 1.025849e-03)) ((9.869400e-12 3.153324e-09 1.680874e-11) (1.203834e-08 1.421154e-08 -1.370601e-10))
6.2555        	((-4.610054e-06 7.996379e-08 4.948510e-03) (-2.460316e-07 -1.340003e-07 1.015130e-03)) ((4.735140e-11 3.186244e-09 2.053757e-11) (1.409906e-08 8.645586e-09 -1.361442e-10))
6.617977      	((-5.063926e-06 5.453782e-07 4.870476e-03) (-3.045626e-07 -1.626893e-07 1.006219e-03)) ((5.752446e-11 3.092626e-09 1.550404e-11) (1.593277e-08 2.951410e-09 -9.319678e-11))
6.979433      	((-5.965419e-06 5.061014e-08 4.834805e-03) (-3.541353e-07 -1.874465e-07 9.991734e-04)) ((4.437398e-11 2.945102e-09 2.047017e-11) (1.734204e-08 -1.252686e-09 -2.597751e-11))
7.339973      	((-6.837226e-06 -3.318390e-07 4.824896e-03) (-3.725680e-07 -1.896719e-07 9.930234e-04)) ((4.234569e-12 2.768711e-09 2.149935e-11) (1.716883e-08 -2.840671e-09 -2.315872e-12))
7.699591      	((-6.891096e-06 -3.835479e-07 4.816019e-03) (-3.753891e-07 -1.821477e-07 9.872028e-04)) ((-4.595520e-11 2.619322e-09 1.826531e-11) (1.626322e-08 -2.361280e-09 6.418730e-12))
8.058298      	((-6.643997e-06 -4.414035e-07 4.788586e-03) (-3.807895e-07 -1.661006e-07 9.812560e-04)) ((-7.477552e-11 2.511704e-09 1.855175e-11) (1.473129e-08 -1.003789e-09 5.649237e-12))
8.416153      	((-5.336410e-06 -2.212118e-08 4.750109e-03) (-3.747582e-07 -1.442602e-07 9.752103e-04)) ((-8.529828e-11 2.445984e-09 1.690334e-11) (1.340849e-08 -1.104004e-09 1.315242e-11))
8.773233      	((-4.882162e-06 -2.934505e-07 4.699402e-03) (-3.652050e-07 -1.239250e-07 9.693223e-04)) ((-7.289013e-11 2.381972e-09 1.574401e-11) (1.224339e-08 -2.489015e-09 5.697222e-11))
9.129609      	((-4.964008e-06 -9.256388e-07 4.644406e-03) (-3.702733e-07 -1.052706e-07 9.636828e-04)) ((-4.491708e-11 2.341785e-09 1.235368e-11) (1.072607e-08 -4.367526e-09 1.199709e-10))
9.485351      	((-3.881751e-06 -9.734855e-07 4.595519e-03) (-3.756143e-07 -9.538964e-08 9.583620e-04)) ((-4.553640e-11 2.328269e-09 1.154985e-11) (9.689464e-09 -7.093601e-09 1.525025e-10))
9.840513      	((-3.709177e-06 -1.519132e-06 4.555082e-03) (-3.660821e-07 -8.940068e-08 9.533873e-04)) ((-4.131012e-11 2.291602e-09 1.229673e-11) (8.478528e-09 -9.370443e-09 1.900371e-10))
10.195117     	((-4.191387e-06 -2.500760e-06 4.530767e-03) (-3.549032e-07 -9.163351e-08 9.488437e-04)) ((-4.903550e-11 2.254159e-09 8.560389e-12) (7.323572e-09 -1.082747e-08 1.755324e-10))
10.549178     	((-4.794850e-06 -3.558713e-06 4.516568e-03) (-3.550207e-07 -1.130195e-07 9.447687e-04)) ((-6.716547e-11 2.220728e-09 4.363982e-12) (6.971667e-09 -1.211886e-08 1.604243e-10))
10.902718     	((-5.343982e-06 -4.592037e-06 4.508383e-03) (-3.746900e-07 -1.541681e-07 9.410523e-04)) ((-7.797260e-11 2.179783e-09 5.352242e-12) (6.162706e-09 -1.225552e-08 1.291205e-10))
11.255757     	((-6.780265e-06 -5.983811e-06 4.498420e-03) (-3.862135e-07 -1.902011e-07 9.374868e-04)) ((-7.124991e-11 2.120134e-09 4.385675e-12) (3.700972e-09 -9.933993e-09 1.476218e-10))
11.608315     	((-7.317743e-06 -6.668040e-06 4.485946e-03) (-3.682949e-07 -2.096374e-07 9.339392e-04)) ((-7.634465e-11 2.089840e-09 7.599713e-12) (1.096897e-09 -6.314585e-09 1.171751e-10))
11.96042      	((-8.413452e-06 -7.620517e-06 4.467413e-03) (-3.464711e-07 -2.329934e-07 9.303723e-04)) ((-6.323861e-11 2.064636e-09 8.527480e-12) (-2.199042e-10 -2.897309e-09 4.482082e-11))
12.312097     	((-9.678785e-06 -8.873557e-06 4.444436e-03) (-3.444156e-07 -2.752758e-07 9.268327e-04)) ((-4.217186e-11 2.040534e-09 1.323074e-11) (-6.685922e-10 1.498659e-10 1.800893e-11))
12.66336      	((-1.089757e-05 -1.010139e-05 4.423298e-03) (-3.517014e-07 -3.275197e-07 9.234551e-04)) ((-2.797373e-11 2.030462e-09 1.763035e-11) (-7.320601e-10 2.947261e-09 1.346100e-11))
13.014233     	((-1.264790e-05 -1.179459e-05 4.402648e-03) (-3.764410e-07 -3.900486e-07 9.202857e-04)) ((-3.919219e-12 2.000296e-09 2.094342e-11) (-5.799835e-10 5.182883e-09 2.231995e-11))
13.36474      	((-1.425694e-05 -1.361205e-05 4.388603e-03) (-4.115237e-07 -4.627787e-07 9.173670e-04)) ((1.819275e-11 1.968850e-09 2.347823e-11) (-1.326912e-10 6.845764e-09 2.538604e-11))
13.714894     	((-1.593382e-05 -1.566029e-05 4.376480e-03) (-4.458862e-07 -5.421012e-07 9.147001e-04)) ((4.102223e-11 1.926864e-09 2.642855e-11) (8.999104e-11 8.595130e-09 1.992280e-11))
14.064707     	((-1.799173e-05 -1.771504e-05 4.365693e-03) (-4.966775e-07 -6.323128e-07 9.122600e-04)) ((6.050691e-11 1.878663e-09 3.021628e-11) (5.678336e-10 9.727723e-09 1.972182e-11))
14.414191     	((-1.988599e-05 -2.018532e-05 4.353935e-03) (-5.783214e-07 -7.415104e-07 9.100098e-04)) ((9.077531e-11 1.827236e-09 3.693065e-11) (1.504961e-09 9.656778e-09 3.084081e-12))
14.763371     	((-2.202798e-05 -2.296046e-05 4.337591e-03) (-6.902483e-07 -8.680787e-07 9.078843e-04)) ((1.269282e-10 1.771633e-09 4.145999e-11) (2.429292e-09 8.537582e-09 -4.715213e-11))
15.112267     	((-2.447973e-05 -2.647860e-05 4.321542e-03) (-8.216519e-07 -1.016150e-06 9.058491e-04)) ((1.539060e-10 1.718567e-09 4.885625e-11) (3.388669e-09 7.458860e-09 -1.021625e-10))
15.46083      	((-2.674863e-05 -2.904499e-05 4.305631e-03) (-9.523171e-07 -1.167924e-06 9.038351e-04)) ((1.560421e-10 1.682205e-09 5.027265e-11) (3.480265e-09 7.902983e-09 -9.083463e-11))
15.809103     	((-2.939737e-05 -3.268923e-05 4.288610e-03) (-1.080772e-06 -1.321440e-06 9.017634e-04)) ((1.709113e-10 1.640240e-09 5.342260e-11) (2.282578e-09 9.396311e-09 -7.312672e-11))
16.157132     	((-3.151476e-05 -3.600293e-05 4.270853e-03) (-1.208353e-06 -1.483325e-06 8.996312e-04)) ((1.839852e-10 1.598817e-09 5.856512e-11) (3.922960e-10 1.098054e-08 -9.426680e-11))
16.504925     	((-3.387464e-05 -3.969902e-05 4.251951e-03) (-1.337098e-06 -1.650449e-06 8.974583e-04)) ((2.042808e-10 1.550397e-09 6.326285e-11) (-1.715904e-09 1.223006e-08 -1.315832e-10))
16.852488     	((-3.652280e-05 -4.396447e-05 4.236332e-03) (-1.473600e-06 -1.825387e-06 8.953019e-04)) ((2.132625e-10 1.511593e-09 6.462189e-11) (-4.151349e-09 1.334287e-08 -1.401159e-10))
17.199827     	((-3.914418e-05 -4.844409e-05 4.225155e-03) (-1.617973e-06 -2.009876e-06 8.932458e-04)) ((2.243198e-10 1.478940e-09 6.500160e-11) (-6.806340e-09 1.419097e-08 -1.968456e-10))
17.546947     	((-4.194272e-05 -5.288571e-05 4.215901e-03) (-1.767843e-06 -2.201720e-06 8.913229e-04)) ((2.329475e-10 1.446509e-09 6.410309e-11) (-9.498971e-09 1.481675e-08 -2.824996e-10))
17.893859     	((-4.534238e-05 -5.832367e-05 4.206380e-03) (-1.926568e-06 -2.408802e-06 8.895153e-04)) ((2.485697e-10 1.403907e-09 6.179626e-11) (-1.238847e-08 1.545796e-08 -2.661274e-10))
18.240572     	((-4.894356e-05 -6.390038e-05 4.197625e-03) (-2.097963e-06 -2.635456e-06 8.878191e-04)) ((2.569703e-10 1.362204e-09 5.723849e-11) (-1.552492e-08 1.605187e-08 -1.975738e-10))
18.587106     	((-5.286437e-05 -7.009103e-05 4.185840e-03) (-2.277957e-06 -2.880709e-06 8.861830e-04)) ((2.823496e-10 1.311019e-09 5.445202e-11) (-1.905930e-08 1.704381e-08 -1.362187e-10))
18.933474     	((-5.713276e-05 -7.690628e-05 4.174070e-03) (-2.468724e-06 -3.150141e-06 8.845649e-04)) ((3.089656e-10 1.266656e-09 5.254837e-11) (-2.300195e-08 1.861804e-08 -6.605280e-11))
19.279686     	((-6.225299e-05 -8.451261e-05 4.161468e-03) (-2.679472e-06 -3.450318e-06 8.829324e-04)) ((3.403394e-10 1.219260e-09 5.093073e-11) (-2.718691e-08 2.061097e-08 4.221614e-11))
19.625751     	((-6.773596e-05 -9.283800e-05 4.149180e-03) (-2.911263e-06 -3.783491e-06 8.812707e-04)) ((3.777977e-10 1.172626e-09 5.055949e-11) (-3.163433e-08 2.293091e-08 1.175862e-10))
19.971684     	((-7.398665e-05 -1.019789e-04 4.137317e-03) (-3.160307e-06 -4.146175e-06 8.795973e-04)) ((4.180995e-10 1.124934e-09 5.296923e-11) (-3.666499e-08 2.590050e-08 1.373648e-10))
20.317517     	((-8.134521e-05 -1.122399e-04 4.125143e-03) (-3.431291e-06 -4.538807e-06 8.779324e-04)) ((4.661057e-10 1.071732e-09 5.518498e-11) (-4.264105e-08 2.989306e-08 1.574248e-10))
20.663245     	((-8.959920e-05 -1.236492e-04 4.112814e-03) (-3.731654e-06 -4.969798e-06 8.762882e-04)) ((5.216969e-10 1.022951e-09 5.678451e-11) (-4.954108e-08 3.485424e-08 1.649880e-10))
21.008868     	((-9.915878e-05 -1.363775e-04 4.100882e-03) (-4.069961e-06 -5.446778e-06 8.746732e-04)) ((5.783501e-10 9.703389e-10 5.742506e-11) (-5.713378e-08 4.061635e-08 1.467685e-10))
21.354395     	((-1.092496e-04 -1.501455e-04 4.091223e-03) (-4.448873e-06 -5.973635e-06 8.731145e-04)) ((6.377518e-10 9.239625e-10 5.621757e-11) (-6.520097e-08 4.689705e-08 1.091149e-10))
21.69983      	((-1.203693e-04 -1.648976e-04 4.083623e-03) (-4.868079e-06 -6.548373e-06 8.716456e-04)) ((6.977408e-10 8.781027e-10 5.378194e-11) (-7.373028e-08 5.354344e-08 6.936473e-11))
22.045176     	((-1.323450e-04 -1.810826e-04 4.076735e-03) (-5.329548e-06 -7.176908e-06 8.702667e-04)) ((7.705045e-10 8.235074e-10 5.135486e-11) (-8.275212e-08 6.056893e-08 5.422437e-11))
22.39044      	((-1.452201e-04 -1.983430e-04 4.070829e-03) (-5.835836e-06 -7.867167e-06 8.689697e-04)) ((8.478001e-10 7.679692e-10 4.859626e-11) (-9.217471e-08 6.799185e-08 7.751069e-11))
22.735627     	((-1.589045e-04 -2.168796e-04 4.064478e-03) (-6.388002e-06 -8.627854e-06 8.677354e-04)) ((9.291663e-10 7.164361e-10 4.641594e-11) (-1.017338e-07 7.580775e-08 1.235853e-10))
23.080746     	((-1.734984e-04 -2.363750e-04 4.057118e-03) (-6.990137e-06 -9.460058e-06 8.665290e-04)) ((1.007342e-09 6.696671e-10 4.479666e-11) (-1.114422e-07 8.397925e-08 1.318113e-10))
23.425803     	((-1.887976e-04 -2.570667e-04 4.049702e-03) (-7.643473e-06 -1.036351e-05 8.653401e-04)) ((1.094034e-09 6.237482e-10 4.466903e-11) (-1.212216e-07 9.241692e-08 1.147495e-10))
23.770803     	((-2.048255e-04 -2.789890e-04 4.041005e-03) (-8.349122e-06 -1.134340e-05 8.641574e-04)) ((1.183916e-09 5.792474e-10 4.474307e-11) (-1.309662e-07 1.008992e-07 1.357402e-10))
24.115748     	((-2.213314e-04 -3.022140e-04 4.033029e-03) (-9.106573e-06 -1.240294e-05 8.629840e-04)) ((1.279998e-09 5.367110e-10 4.383964e-11) (-1.407698e-07 1.092674e-07 2.004934e-10))
24.460636     	((-2.390404e-04 -3.273620e-04 4.024872e-03) (-9.918758e-06 -1.354762e-05 8.618217e-04)) ((1.390094e-09 4.858656e-10 4.201397e-11) (-1.508749e-07 1.177076e-07 2.680848e-10))
24.805471     	((-2.582734e-04 -3.546399e-04 4.018287e-03) (-1.079119e-05 -1.478144e-05 8.606802e-04)) ((1.516512e-09 4.217919e-10 3.943510e-11) (-1.615871e-07 1.266484e-07 3.740500e-10))
25.150256     	((-2.788253e-04 -3.841094e-04 4.013010e-03) (-1.173035e-05 -1.611210e-05 8.595753e-04)) ((1.658597e-09 3.491444e-10 3.776898e-11) (-1.730418e-07 1.361733e-07 5.620732e-10))
25.494968     	((-3.008583e-04 -4.156838e-04 4.009346e-03) (-1.273598e-05 -1.754159e-05 8.585192e-04)) ((1.815823e-09 2.644545e-10 3.430215e-11) (-1.854226e-07 1.463204e-07 8.337686e-10))
25.839531     	((-3.245555e-04 -4.500080e-04 4.007054e-03) (-1.381650e-05 -1.908355e-05 8.575255e-04)) ((1.985364e-09 1.715298e-10 3.312333e-11) (-1.985924e-07 1.570960e-07 1.162446e-09))
26.183937     	((-3.502675e-04 -4.873703e-04 4.005673e-03) (-1.497954e-05 -2.075253e-05 8.565991e-04)) ((2.168760e-09 5.947106e-11 3.397061e-11) (-2.126207e-07 1.685309e-07 1.543613e-09))
26.528213     	((-3.784382e-04 -5.285343e-04 4.004786e-03) (-1.624363e-05 -2.257427e-05 8.557368e-04)) ((2.372960e-09 -6.765677e-11 3.789644e-11) (-2.274661e-07 1.802749e-07 2.056666e-09))
26.872387     	((-4.092091e-04 -5.736637e-04 4.004672e-03) (-1.761936e-05 -2.456233e-05 8.549426e-04)) ((2.600792e-09 -2.088388e-10 4.169409e-11) (-2.434264e-07 1.922516e-07 2.775493e-09))
27.216468     	((-4.426795e-04 -6.225547e-04 4.005399e-03) (-1.910851e-05 -2.671540e-05 8.542105e-04)) ((2.842206e-09 -3.639906e-10 4.307870e-11) (-2.613375e-07 2.051492e-07 3.543682e-09))
27.560461     	((-4.790031e-04 -6.757846e-04 4.007085e-03) (-2.072800e-05 -2.905417e-05 8.535465e-04)) ((3.110350e-09 -5.370171e-10 4.366751e-11) (-2.808494e-07 2.185532e-07 4.058774e-09))
27.904374     	((-5.185414e-04 -7.339528e-04 4.010336e-03) (-2.250981e-05 -3.162199e-05 8.529970e-04)) ((3.429471e-09 -7.476457e-10 4.846934e-11) (-3.003663e-07 2.311484e-07 4.505815e-09))
28.248214     	((-5.617578e-04 -7.971397e-04 4.015196e-03) (-2.447941e-05 -3.444440e-05 8.525789e-04)) ((3.783650e-09 -9.840002e-10 5.308882e-11) (-3.201177e-07 2.427894e-07 5.061981e-09))
28.59199      	((-6.087546e-04 -8.654326e-04 4.022510e-03) (-2.664059e-05 -3.752579e-05 8.522835e-04)) ((4.171510e-09 -1.245285e-09 5.552229e-11) (-3.417949e-07 2.544531e-07 5.465667e-09))
28.935714     	((-6.603156e-04 -9.393423e-04 4.031560e-03) (-2.900439e-05 -4.088465e-05 8.520781e-04)) ((4.581925e-09 -1.534661e-09 5.715203e-11) (-3.664009e-07 2.675513e-07 5.575726e-09))
29.279395     	((-7.166010e-04 -1.020302e-03 4.042706e-03) (-3.158912e-05 -4.454991e-05 8.519403e-04)) ((5.021578e-09 -1.865660e-09 6.634432e-11) (-3.945533e-07 2.828538e-07 5.461680e-09))
29.623047     	((-7.773864e-04 -1.108777e-03 4.056831e-03) (-3.441073e-05 -4.854571e-05 8.518879e-04)) ((5.495635e-09 -2.217756e-09 7.402625e-11) (-4.266990e-07 3.006558e-07 5.053803e-09))
29.966682     	((-8.434791e-04 -1.204779e-03 4.075957e-03) (-3.747231e-05 -5.288823e-05 8.519660e-04)) ((5.994485e-09 -2.591728e-09 8.656066e-11) (-4.631359e-07 3.219463e-07 4.459696e-09))
30.310311     	((-9.165662e-04 -1.310299e-03 4.098325e-03) (-4.080757e-05 -5.763268e-05 8.522245e-04)) ((6.554312e-09 -3.007005e-09 9.832726e-11) (-5.036351e-07 3.469872e-07 4.081940e-09))
30.653925     	((-9.949744e-04 -1.424178e-03 4.125843e-03) (-4.442890e-05 -6.281522e-05 8.526980e-04)) ((7.130695e-09 -3.415794e-09 1.068450e-10) (-5.485365e-07 3.762211e-07 4.094841e-09))
30.997501     	((-1.079482e-03 -1.546935e-03 4.159221e-03) (-4.832734e-05 -6.844241e-05 8.534592e-04)) ((7.679933e-09 -3.806085e-09 1.155749e-10) (-5.971498e-07 4.096687e-07 4.183278e-09))
31.341063     	((-1.170870e-03 -1.678615e-03 4.198072e-03) (-5.252887e-05 -7.455975e-05 8.546269e-04)) ((8.159772e-09 -4.141437e-09 1.188649e-10) (-6.465421e-07 4.454923e-07 4.032260e-09))
31.684588     	((-1.269231e-03 -1.819983e-03 4.244312e-03) (-5.708752e-05 -8.123019e-05 8.562800e-04)) ((8.615634e-09 -4.443586e-09 1.242130e-10) (-6.955489e-07 4.819475e-07 3.638518e-09))
32.028017     	((-1.374233e-03 -1.969497e-03 4.299327e-03) (-6.203510e-05 -8.845392e-05 8.583860e-04)) ((9.044783e-09 -4.719691e-09 1.220516e-10) (-7.474016e-07 5.208285e-07 3.068676e-09))
32.37138      	((-1.484701e-03 -2.126091e-03 4.361505e-03) (-6.735387e-05 -9.618376e-05 8.608495e-04)) ((9.454326e-09 -4.947909e-09 1.133603e-10) (-8.057844e-07 5.651428e-07 2.303575e-09))
32.714703     	((-1.601167e-03 -2.290889e-03 4.432294e-03) (-7.300055e-05 -1.044138e-04 8.636737e-04)) ((9.818103e-09 -5.091617e-09 9.486992e-11) (-8.695592e-07 6.157559e-07 8.250454e-10))
33.057932     	((-1.723641e-03 -2.465222e-03 4.514360e-03) (-7.900339e-05 -1.131544e-04 8.669912e-04)) ((1.016177e-08 -5.175158e-09 7.609248e-11) (-9.376626e-07 6.703925e-07 -5.578456e-10))
33.401107     	((-1.851957e-03 -2.648772e-03 4.607868e-03) (-8.541929e-05 -1.224173e-04 8.708659e-04)) ((1.044677e-08 -5.213976e-09 5.224491e-11) (-1.009798e-06 7.266971e-07 -1.260486e-09))
33.744231     	((-1.986088e-03 -2.840231e-03 4.715464e-03) (-9.227697e-05 -1.322431e-04 8.753692e-04)) ((1.061774e-08 -5.195699e-09 2.938239e-11) (-1.083030e-06 7.835925e-07 -8.080883e-10))
34.087321     	((-2.126456e-03 -3.038385e-03 4.840287e-03) (-9.960462e-05 -1.427012e-04 8.806517e-04)) ((1.063203e-08 -5.092974e-09 1.485911e-12) (-1.151406e-06 8.375817e-07 5.710104e-10))
34.43042      	((-2.268961e-03 -3.238900e-03 4.980676e-03) (-1.073917e-04 -1.538219e-04 8.868373e-04)) ((1.044734e-08 -4.890280e-09 -6.675083e-11) (-1.210087e-06 8.849000e-07 1.644033e-09))
34.773568     	((-2.411751e-03 -3.438625e-03 5.137293e-03) (-1.155840e-04 -1.655039e-04 8.939508e-04)) ((1.005988e-08 -4.547953e-09 -1.665536e-10) (-1.261918e-06 9.261726e-07 1.878544e-09))
35.116752     	((-2.554974e-03 -3.639538e-03 5.312158e-03) (-1.240871e-04 -1.775840e-04 9.020378e-04)) ((9.509767e-09 -4.049289e-09 -2.523970e-10) (-1.312984e-06 9.658858e-07 2.213678e-09))
35.459999     	((-2.696906e-03 -3.838355e-03 5.503883e-03) (-1.328022e-04 -1.899481e-04 9.112808e-04)) ((8.778219e-09 -3.401254e-09 -3.287152e-10) (-1.362201e-06 1.005268e-06 4.183044e-09))
35.80333      	((-2.834077e-03 -4.030151e-03 5.712646e-03) (-1.416737e-04 -2.025351e-04 9.217734e-04)) ((7.849738e-09 -2.637084e-09 -4.379911e-10) (-1.406130e-06 1.042500e-06 7.472971e-09))
