# Forces      
# CofR        : (0.000000e+00 0.000000e+00 0.000000e+00)
# Time        forces(pressure viscous)	moments(pressure viscous)
0             	((0.000000e+00 0.000000e+00 0.000000e+00) (0.000000e+00 0.000000e+00 0.000000e+00)) ((0.000000e+00 0.000000e+00 0.000000e+00) (0.000000e+00 0.000000e+00 0.000000e+00))
0.012         	((-6.464006e-10 3.594030e-09 8.665159e-07) (5.889992e-11 3.153552e-11 1.871033e-08)) ((-7.831846e-13 3.439902e-08 2.848688e-13) (6.503778e-14 2.215036e-05 -9.408728e-13))
0.0264        	((-8.430295e-10 -3.285067e-09 -3.188483e-07) (-1.658270e-10 4.699323e-11 3.280662e-08)) ((-3.229942e-13 1.807370e-08 1.874383e-12) (2.144691e-13 2.029295e-05 -1.534150e-12))
0.04368       	((-2.873033e-09 2.171277e-08 2.873801e-07) (-3.670802e-10 1.489452e-11 3.685477e-08)) ((-1.619179e-13 1.102813e-08 9.660213e-13) (2.472802e-13 1.840067e-05 -1.402895e-12))
0.064416      	((3.834230e-08 -8.341260e-09 -2.297081e-08) (-4.887886e-10 -8.963093e-11 3.128068e-08)) ((-2.567198e-13 7.396412e-09 3.110246e-13) (-2.278293e-12 1.652825e-05 -1.372980e-12))
0.0892992     	((4.457727e-08 4.818640e-09 2.249598e-08) (-1.620647e-09 -2.189288e-10 2.555031e-08)) ((9.638606e-14 6.240939e-09 4.449038e-13) (-5.380350e-12 1.474235e-05 -1.451099e-12))
0.119159      	((-1.788878e-08 -1.891146e-10 3.403523e-08) (-2.502876e-09 -2.577750e-10 2.157626e-08)) ((-3.662167e-13 5.111918e-09 1.605954e-13) (-6.937563e-12 1.310359e-05 -2.108255e-12))
0.154991      	((-1.545533e-08 -4.362661e-09 -2.287419e-08) (-1.973469e-09 -2.335365e-10 1.639561e-08)) ((-1.772171e-13 4.361753e-09 4.586755e-13) (-9.488697e-12 1.165061e-05 -3.322900e-12))
0.197989      	((1.404601e-08 3.335600e-10 1.659907e-08) (6.819065e-10 -1.950504e-10 1.241018e-08)) ((2.765250e-13 3.747759e-09 4.841073e-13) (-1.170430e-11 1.038392e-05 -3.590754e-12))
0.249587      	((9.933105e-09 -8.220224e-10 1.228348e-08) (5.550173e-09 -1.347349e-10 1.140371e-08)) ((2.867510e-14 3.306778e-09 6.075273e-13) (-1.121613e-11 9.273325e-06 -2.588929e-12))
0.311504      	((4.127765e-08 -1.485149e-09 5.954258e-11) (9.541037e-09 -1.822451e-10 1.104051e-08)) ((-1.432840e-13 2.942268e-09 6.551854e-13) (-8.850088e-12 8.281050e-06 -1.744070e-12))
0.385805      	((3.173776e-08 -1.226443e-09 -5.874830e-09) (1.138886e-08 -2.801352e-10 7.551498e-09)) ((-2.717285e-13 2.652335e-09 7.460772e-13) (-6.017328e-12 7.392938e-06 -1.571167e-12))
0.474966      	((2.855752e-08 -1.215678e-09 1.363766e-08) (9.583888e-09 -2.130108e-10 3.180880e-09)) ((-3.539743e-13 2.395423e-09 5.959349e-13) (-4.359069e-12 6.604490e-06 -3.170107e-12))
0.581959      	((1.225868e-08 -8.943946e-10 2.331508e-09) (6.150045e-09 -9.667088e-11 1.839901e-10)) ((-4.459503e-13 2.153408e-09 4.600963e-13) (-7.515134e-12 5.911585e-06 -6.437472e-12))
0.710351      	((2.056222e-08 -5.937903e-11 2.076320e-09) (4.278106e-09 -4.985437e-11 6.174286e-10)) ((-5.328160e-13 1.909915e-09 6.129904e-13) (-9.283185e-12 5.306293e-06 -5.445226e-12))
0.864421      	((1.383046e-08 -4.622717e-09 1.359243e-08) (4.327134e-09 1.260166e-10 3.999383e-09)) ((-5.813155e-13 1.691912e-09 2.983067e-13) (-1.275652e-11 4.777231e-06 -5.322117e-12))
1.049306      	((-1.484906e-08 -1.632905e-09 1.356112e-08) (5.851477e-09 6.032886e-11 5.459965e-09)) ((-1.030255e-14 1.504465e-09 3.736861e-13) (-1.529373e-11 4.312409e-06 -1.381497e-12))
1.271167      	((-9.738626e-09 1.481226e-09 1.064445e-08) (2.722533e-09 -1.064532e-10 5.269631e-09)) ((-4.452188e-13 1.354544e-09 4.351105e-13) (-8.910363e-12 3.901797e-06 7.100844e-12))
1.5374        	((-3.704930e-08 7.899738e-09 3.764427e-08) (-2.050737e-09 -2.406828e-10 4.397515e-09)) ((-8.985103e-13 1.234219e-09 2.013150e-13) (1.118313e-11 3.538791e-06 1.390331e-11))
1.85688       	((-2.541148e-09 3.241068e-09 3.936198e-08) (-1.115156e-09 -4.303636e-10 1.807923e-09)) ((-1.843303e-12 1.124566e-09 -3.849504e-14) (2.512713e-11 3.219715e-06 1.525025e-11))
2.240256      	((7.523094e-09 3.940537e-09 4.162720e-08) (1.539064e-09 1.119680e-10 4.598805e-09)) ((-1.030243e-12 1.025746e-09 -1.289007e-13) (3.891418e-11 2.941632e-06 -6.602459e-12))
2.700307      	((1.529473e-08 3.478577e-09 4.232138e-08) (2.040701e-09 1.200836e-10 4.673544e-09)) ((-4.697769e-13 9.272712e-10 -1.268377e-13) (3.930944e-11 2.700564e-06 -3.680407e-11))
3.252369      	((4.430761e-09 5.528310e-09 1.320018e-08) (1.867243e-09 -2.700000e-10 3.587574e-09)) ((1.948306e-13 8.352013e-10 -3.980523e-13) (2.075797e-11 2.490962e-06 -6.541979e-11))
3.914842      	((1.411687e-08 8.768963e-09 5.880021e-09) (2.608234e-09 5.289839e-11 9.780833e-09)) ((4.279313e-13 7.509087e-10 -1.563286e-14) (-2.660565e-12 2.306969e-06 -1.097737e-10))
4.709811      	((2.219733e-08 4.923395e-09 1.350400e-08) (2.613751e-10 3.942678e-10 1.329747e-08)) ((1.026686e-12 6.734740e-10 -4.438530e-14) (-2.773606e-11 2.143657e-06 -1.510213e-10))
5.663773      	((1.524049e-08 5.345076e-09 1.645770e-08) (-2.766279e-09 7.892605e-11 1.427008e-08)) ((9.946300e-13 6.011395e-10 -1.701410e-13) (-4.862808e-11 1.997248e-06 -1.629459e-10))
6.808528      	((1.110857e-08 2.378035e-09 1.200941e-08) (-2.561671e-09 -8.934140e-10 1.642432e-08)) ((8.480630e-13 5.391648e-10 -4.860448e-13) (-6.011472e-11 1.864924e-06 -1.463635e-10))
8.182233      	((7.760946e-09 1.159496e-09 9.510699e-09) (-2.272338e-09 -1.228694e-09 1.334605e-08)) ((7.568319e-13 4.867551e-10 -4.371689e-13) (-6.135946e-11 1.744531e-06 -1.123956e-10))
9.83068       	((5.961376e-09 -2.972892e-09 7.643727e-09) (-4.648751e-09 -1.042194e-09 1.076101e-08)) ((1.082950e-12 4.383895e-10 -2.737508e-13) (-6.311781e-11 1.634491e-06 -8.386405e-11))
11.808816     	((5.834250e-09 -5.621610e-11 7.485284e-09) (-6.573513e-09 -5.354455e-10 9.787373e-09)) ((1.450802e-12 3.976393e-10 -3.181105e-14) (-8.667560e-11 1.533999e-06 -4.643445e-11))
14.182579     	((-1.303737e-09 -1.529148e-09 6.772844e-09) (-6.504466e-09 -9.167648e-10 9.625470e-09)) ((1.529059e-12 3.647651e-10 2.568153e-13) (-1.135366e-10 1.443006e-06 -8.472212e-12))
17.031095     	((-4.321837e-09 -1.089029e-09 2.970464e-09) (-6.412445e-09 -9.196006e-10 8.816553e-09)) ((1.465270e-12 3.379230e-10 3.260577e-13) (-1.264183e-10 1.361694e-06 2.432006e-11))
20.449314     	((-4.025476e-09 -1.027780e-09 -1.244180e-09) (-9.041381e-09 -1.720401e-09 8.465165e-09)) ((1.292819e-12 3.150310e-10 -7.179515e-14) (-1.377044e-10 1.290165e-06 6.111914e-11))
24.476561     	((-3.749963e-09 -4.777068e-10 -3.215686e-09) (-7.467086e-09 -1.928920e-09 8.313692e-09)) ((1.189034e-12 2.954547e-10 -3.107461e-13) (-1.367953e-10 1.228961e-06 1.057772e-10))
29.129821     	((-4.009614e-09 1.202536e-09 -6.631577e-10) (-5.839865e-09 -1.737888e-09 7.755546e-09)) ((9.154550e-13 2.791723e-10 -5.076579e-13) (-1.325743e-10 1.177908e-06 1.460572e-10))
34.426318     	((-1.071021e-08 7.681761e-10 -7.953617e-10) (-6.613527e-09 -1.232068e-09 7.511340e-09)) ((9.544636e-13 2.637734e-10 -4.311419e-13) (-1.302161e-10 1.136365e-06 1.665531e-10))
40.365992     	((-1.375533e-08 -9.355140e-11 -1.190045e-09) (-6.916288e-09 -8.344348e-10 6.413002e-09)) ((7.642624e-13 2.521243e-10 -2.983580e-13) (-1.181909e-10 1.103442e-06 1.721519e-10))
46.797041     	((-3.937464e-09 -3.300252e-09 8.164816e-09) (-6.504123e-09 -7.379584e-10 7.266420e-09)) ((6.580721e-13 2.438770e-10 -2.712493e-13) (-1.058954e-10 1.078744e-06 1.640225e-10))
53.227207     	((2.073145e-09 -4.189636e-09 1.317212e-08) (-4.516924e-09 -1.149077e-09 7.785733e-09)) ((4.794613e-13 2.364251e-10 -1.051676e-16) (-1.025003e-10 1.062153e-06 1.454035e-10))
59.656447     	((9.766464e-09 -5.506137e-09 2.040183e-08) (-1.758978e-09 -1.400902e-09 9.178807e-09)) ((2.095496e-13 2.314068e-10 6.462900e-14) (-1.046777e-10 1.052520e-06 1.392944e-10))
66.084596     	((1.330886e-08 -4.605751e-09 1.984256e-08) (5.464574e-10 -1.271447e-09 9.724616e-09)) ((1.491186e-14 2.270294e-10 1.974555e-13) (-1.061723e-10 1.049042e-06 1.474686e-10))
72.511541     	((1.427041e-08 -4.714893e-09 1.678650e-08) (1.248811e-09 -1.425332e-09 8.024295e-09)) ((-7.298348e-14 2.244941e-10 2.266378e-13) (-1.026781e-10 1.050989e-06 1.612846e-10))
78.937222     	((1.381458e-08 -4.350194e-09 1.353668e-08) (3.832440e-09 -1.398799e-09 7.486146e-09)) ((-1.141249e-13 2.235861e-10 2.665290e-13) (-9.160893e-11 1.057855e-06 1.808364e-10))
85.361597     	((1.496963e-08 -3.898834e-09 1.259800e-08) (5.354558e-09 -1.212123e-09 6.387228e-09)) ((-4.163731e-14 2.240217e-10 3.574424e-13) (-7.554791e-11 1.069171e-06 1.964697e-10))
91.784376     	((1.204104e-08 -3.530617e-09 1.102667e-08) (5.962534e-09 -1.177552e-09 4.923310e-09)) ((7.805899e-14 2.255450e-10 4.098314e-13) (-5.709815e-11 1.084450e-06 2.073407e-10))
98.205312     	((5.989593e-09 -3.444569e-09 8.952648e-09) (5.098028e-09 -1.067989e-09 3.269108e-09)) ((2.339772e-13 2.293474e-10 4.548783e-13) (-3.749345e-11 1.103075e-06 2.091717e-10))
104.504074    	((3.278228e-09 -3.279361e-09 7.964987e-09) (3.900816e-09 -9.020809e-10 1.724826e-09)) ((3.778046e-13 2.339234e-10 4.669277e-13) (-2.320148e-11 1.123893e-06 2.016743e-10))
110.682023    	((-7.409265e-09 -2.844848e-09 3.423444e-09) (2.660481e-09 -8.271054e-10 6.886070e-10)) ((5.268504e-13 2.393359e-10 3.771880e-13) (-1.790952e-11 1.145499e-06 1.848248e-10))
116.75389     	((-7.717004e-09 -4.073488e-09 7.807047e-09) (1.216990e-09 -7.810630e-10 3.457089e-10)) ((6.343634e-13 2.456229e-10 3.791170e-13) (-2.306553e-11 1.166326e-06 1.662535e-10))
122.734354    	((-3.945772e-09 -4.347974e-09 1.357838e-08) (2.279224e-10 -6.847616e-10 1.594318e-09)) ((7.549261e-13 2.513902e-10 4.419134e-13) (-3.499801e-11 1.185032e-06 1.507941e-10))
128.63918     	((-3.727201e-09 -6.755416e-09 1.572049e-08) (-4.252118e-10 -5.219074e-10 3.056412e-09)) ((1.054750e-12 2.576958e-10 4.622546e-13) (-5.287853e-11 1.200684e-06 1.458342e-10))
134.485604    	((-1.901879e-09 -7.917911e-09 1.253335e-08) (-8.196105e-10 -2.133130e-10 2.734208e-09)) ((1.222287e-12 2.625359e-10 4.143377e-13) (-8.122813e-11 1.212681e-06 1.538485e-10))
140.290032    	((-6.985195e-10 -8.947300e-09 1.032005e-08) (7.091086e-10 4.943839e-11 3.320953e-09)) ((1.262612e-12 2.666540e-10 3.082258e-13) (-1.067825e-10 1.220753e-06 1.707078e-10))
146.067309    	((4.967353e-09 -7.518807e-09 1.257163e-08) (1.775335e-09 4.563077e-10 4.278213e-09)) ((1.249129e-12 2.692737e-10 2.283895e-13) (-1.222795e-10 1.225065e-06 1.939235e-10))
151.803242    	((5.421170e-09 -6.171353e-09 6.907916e-09) (2.373748e-09 5.484171e-10 5.342300e-09)) ((1.185048e-12 2.710154e-10 1.366829e-13) (-1.244801e-10 1.226080e-06 2.169106e-10))
