# Forces      
# CofR        : (0.000000e+00 0.000000e+00 0.000000e+00)
# Time        forces(pressure viscous)	moments(pressure viscous)
0             	((0.000000e+00 0.000000e+00 0.000000e+00) (0.000000e+00 0.000000e+00 0.000000e+00)) ((0.000000e+00 0.000000e+00 0.000000e+00) (0.000000e+00 0.000000e+00 0.000000e+00))
0.012         	((5.639306e-11 -7.131252e-11 1.403627e-10) (-3.301276e-15 -1.353752e-13 -9.245018e-13)) ((-6.340405e-10 6.051720e-14 1.235804e-15) (-4.418510e-07 -4.864242e-14 2.026007e-14))
0.0264        	((-6.452295e-11 -1.240384e-10 2.536393e-10) (1.045173e-12 1.029397e-12 -8.002180e-13)) ((-3.131081e-10 4.748551e-14 -1.230629e-14) (-4.047103e-07 -8.395327e-14 2.049405e-14))
0.04368       	((2.792598e-10 1.861641e-10 2.947753e-10) (2.456316e-13 3.144028e-12 -1.967736e-13)) ((-1.732610e-10 3.946598e-14 -1.365849e-14) (-3.665475e-07 -4.800102e-14 -3.326349e-14))
0.064416      	((-9.489966e-11 6.418124e-12 6.672572e-11) (-3.051438e-12 4.726207e-12 6.219903e-13)) ((-9.741893e-11 2.666237e-14 5.167578e-15) (-3.281992e-07 4.277200e-14 -9.007287e-14))
0.0892992     	((4.839233e-11 5.503584e-11 2.454226e-11) (-7.000425e-12 5.352882e-12 1.697784e-12)) ((-7.344080e-11 2.627131e-14 -3.766347e-15) (-2.907884e-07 1.293686e-13 -1.208541e-13))
0.119159      	((6.661039e-11 8.331568e-11 2.231466e-10) (-9.603494e-12 4.965605e-12 2.710565e-12)) ((-5.273404e-11 1.831286e-14 9.651025e-16) (-2.554726e-07 1.796727e-13 -1.270018e-13))
0.154991      	((-2.483015e-11 -1.115594e-10 -6.714386e-11) (-1.093303e-11 4.323331e-12 3.062785e-12)) ((-4.196398e-11 1.399103e-14 1.934637e-15) (-2.230685e-07 1.995651e-13 -1.116361e-13))
0.197989      	((-3.925952e-11 -2.571555e-11 6.056723e-11) (-1.303333e-11 3.636055e-12 2.999574e-12)) ((-3.346497e-11 6.137905e-15 1.129668e-15) (-1.943463e-07 1.995490e-13 -9.433789e-14))
0.249587      	((1.094264e-11 -2.080188e-11 7.163531e-11) (-1.561830e-11 3.379778e-12 2.870605e-12)) ((-2.776753e-11 4.136223e-15 2.586671e-15) (-1.697132e-07 1.870099e-13 -8.461040e-14))
0.311504      	((-1.888809e-11 -6.055970e-11 7.290866e-11) (-1.578975e-11 3.404419e-12 2.406726e-12)) ((-2.325022e-11 5.607159e-15 3.839841e-16) (-1.491043e-07 1.626716e-13 -8.494134e-14))
0.385805      	((-2.254176e-11 -6.840822e-11 1.136155e-10) (-1.333043e-11 2.818426e-12 2.062631e-12)) ((-2.006985e-11 5.720514e-15 -1.818530e-15) (-1.320773e-07 1.625436e-13 -8.301193e-14))
0.474966      	((9.348990e-12 -1.192858e-10 9.646901e-11) (-1.062143e-11 1.475825e-12 3.264991e-12)) ((-1.795904e-11 4.081358e-15 -3.171565e-15) (-1.179670e-07 2.294741e-13 -9.386161e-14))
0.581959      	((-7.733323e-11 -1.590528e-10 2.302551e-11) (-1.293380e-12 -3.671392e-13 4.064943e-12)) ((-1.610148e-11 5.393745e-15 -5.491186e-15) (-1.060883e-07 2.942025e-13 -1.183597e-13))
0.710351      	((-1.236338e-10 -1.784173e-10 1.314142e-10) (8.426251e-12 -1.094878e-12 4.880006e-12)) ((-1.425632e-11 6.232554e-15 -5.963874e-15) (-9.587741e-08 3.184064e-13 -1.387469e-13))
0.864421      	((-1.487501e-10 -1.978113e-10 8.718514e-11) (1.280889e-11 1.570300e-12 4.711355e-12)) ((-1.299725e-11 9.107476e-15 -6.336689e-15) (-8.693320e-08 2.813056e-13 -1.708814e-13))
1.049306      	((-9.218144e-11 -1.920606e-10 1.557645e-10) (1.856257e-11 5.344904e-12 2.870644e-12)) ((-1.217919e-11 9.126468e-15 -5.257359e-15) (-7.898627e-08 1.580209e-13 -1.792442e-13))
1.271167      	((-4.375658e-11 -2.591245e-10 1.852692e-10) (1.703072e-11 7.751168e-12 -1.410722e-12)) ((-1.135918e-11 7.497875e-15 -3.663173e-15) (-7.185505e-08 4.901889e-14 -2.695933e-13))
1.5374        	((1.115909e-11 -2.610774e-10 2.221463e-10) (8.329243e-12 1.109565e-11 -5.786306e-12)) ((-1.042879e-11 2.476173e-15 -4.097792e-15) (-6.542088e-08 2.697341e-14 -4.956283e-13))
1.85688       	((-3.009253e-11 -2.637544e-10 1.888115e-10) (7.164498e-12 1.872174e-11 -1.232193e-11)) ((-9.566704e-12 1.058574e-15 -2.412608e-15) (-5.961929e-08 -1.115333e-13 -7.306668e-13))
2.240256      	((-2.772449e-12 -3.091652e-10 1.902154e-10) (1.121738e-11 3.058468e-11 -2.315631e-11)) ((-9.012030e-12 -2.414382e-15 6.667467e-16) (-5.441788e-08 -3.300153e-13 -1.066083e-12))
2.700307      	((1.221004e-11 -2.887969e-10 9.903381e-11) (6.518409e-12 4.992915e-11 -4.344748e-11)) ((-8.622305e-12 -5.382887e-15 3.837491e-15) (-4.979244e-08 -6.067501e-13 -1.649166e-12))
3.252369      	((-6.804652e-12 -2.219504e-10 9.770448e-11) (2.954801e-12 7.370998e-11 -6.704384e-11)) ((-8.223412e-12 -8.127233e-15 6.571700e-15) (-4.570981e-08 -1.054892e-12 -2.157994e-12))
3.914842      	((-2.647771e-11 -1.353851e-10 3.095606e-11) (-5.643128e-12 9.691882e-11 -9.048187e-11)) ((-7.774918e-12 -8.763185e-15 7.133741e-15) (-4.211964e-08 -1.460543e-12 -2.540662e-12))
4.709811      	((1.818364e-11 -4.563533e-11 2.665320e-12) (-1.269335e-11 1.230134e-10 -1.127635e-10)) ((-7.279818e-12 -8.890948e-15 6.003550e-15) (-3.895336e-08 -1.713476e-12 -2.828282e-12))
5.663773      	((-3.504360e-11 2.656818e-11 -2.345606e-11) (-5.918186e-12 1.387036e-10 -1.265455e-10)) ((-6.745449e-12 -8.906849e-15 3.812433e-15) (-3.613727e-08 -1.947014e-12 -2.858960e-12))
6.808528      	((-2.314810e-11 6.847459e-11 -2.624044e-11) (-1.103903e-12 1.417251e-10 -1.280231e-10)) ((-6.210553e-12 -7.385197e-15 3.937092e-15) (-3.360515e-08 -2.033687e-12 -2.672620e-12))
8.182233      	((-3.824888e-11 5.834467e-11 -6.050171e-11) (-4.526132e-12 1.298533e-10 -1.148198e-10)) ((-5.685566e-12 -6.130198e-15 4.197956e-15) (-3.130419e-08 -1.758207e-12 -2.307088e-12))
9.83068       	((-5.665589e-11 2.955149e-11 -6.092620e-11) (-1.542618e-11 1.055873e-10 -9.264836e-11)) ((-5.172903e-12 -4.379895e-15 5.304360e-15) (-2.919769e-08 -1.349022e-12 -1.857189e-12))
11.808816     	((-6.140710e-11 -3.489844e-12 -2.061571e-11) (-1.606123e-11 8.093834e-11 -7.138437e-11)) ((-4.699727e-12 -3.979657e-15 7.096622e-15) (-2.725938e-08 -1.068488e-12 -1.360687e-12))
14.182579     	((-3.117810e-11 -5.242640e-11 -2.807065e-11) (-1.007800e-11 5.888045e-11 -5.442877e-11)) ((-4.274360e-12 -1.651022e-15 7.591213e-15) (-2.547279e-08 -8.648749e-13 -8.911767e-13))
17.031095     	((-4.492669e-11 -3.271142e-11 -9.545633e-12) (-8.431132e-12 4.116907e-11 -4.044652e-11)) ((-3.903893e-12 -7.831517e-17 7.971675e-15) (-2.382898e-08 -6.399121e-13 -5.346111e-13))
20.449314     	((-1.084249e-11 -3.679485e-11 -1.034556e-11) (-8.707459e-12 2.790455e-11 -2.941176e-11)) ((-3.578687e-12 -9.909609e-18 9.020553e-15) (-2.232276e-08 -4.038192e-13 -3.137541e-13))
24.551176     	((-1.976417e-11 -1.735033e-11 5.932083e-12) (-1.073404e-11 1.836853e-11 -2.095811e-11)) ((-3.292653e-12 -3.054068e-16 9.823180e-15) (-2.094707e-08 -2.545028e-13 -1.703794e-13))
29.473411     	((-2.268048e-11 -1.683483e-11 1.662541e-11) (-1.375157e-11 1.355535e-11 -1.394900e-11)) ((-3.045493e-12 -2.894319e-16 8.995122e-15) (-1.969338e-08 -1.829294e-13 -1.037740e-13))
35.380094     	((-8.901315e-12 -2.350674e-11 1.247811e-11) (-1.585483e-11 1.124005e-11 -9.651669e-12)) ((-2.827407e-12 -6.089251e-16 8.184093e-15) (-1.855135e-08 -1.229400e-13 -1.276833e-13))
42.468112     	((-6.318346e-12 -1.710722e-11 1.782614e-11) (-1.767636e-11 1.013175e-11 -7.442793e-12)) ((-2.635169e-12 -5.853219e-16 7.308155e-15) (-1.751113e-08 -8.069147e-14 -1.691218e-13))
50.973735     	((-5.134891e-12 -2.040210e-11 1.218748e-11) (-1.839427e-11 1.062340e-11 -6.355165e-12)) ((-2.465078e-12 -5.894097e-16 6.686826e-15) (-1.656373e-08 -6.434281e-14 -2.104076e-13))
61.180482     	((-7.022144e-12 -4.467422e-12 2.290249e-11) (-1.541436e-11 1.249276e-11 -6.529096e-12)) ((-2.311340e-12 -8.950047e-16 6.542013e-15) (-1.570125e-08 -8.721358e-14 -2.510854e-13))
73.428578     	((-7.420016e-12 3.381586e-12 2.223539e-11) (-1.079702e-11 1.522183e-11 -8.335458e-12)) ((-2.175393e-12 -5.793413e-16 5.967881e-15) (-1.491694e-08 -1.605176e-13 -3.002641e-13))
88.126294     	((-4.655191e-12 9.819789e-12 1.953852e-11) (-6.177426e-12 1.797939e-11 -1.079435e-11)) ((-2.055427e-12 -3.769056e-16 5.417883e-15) (-1.420440e-08 -2.613905e-13 -3.387913e-13))
105.763553    	((-1.299925e-12 5.919750e-12 9.437519e-12) (-4.372398e-12 1.965298e-11 -1.227313e-11)) ((-1.946984e-12 -3.102619e-16 4.768141e-15) (-1.355817e-08 -2.983093e-13 -3.472592e-13))
126.928263    	((-2.285375e-12 2.427078e-13 -6.197765e-12) (-4.337693e-12 2.060081e-11 -1.284029e-11)) ((-1.851753e-12 -4.265749e-16 4.143956e-15) (-1.297304e-08 -2.844770e-13 -3.600373e-13))
152.325916    	((2.717497e-12 -6.245295e-12 -1.986690e-11) (-3.261629e-12 1.967353e-11 -1.395446e-11)) ((-1.766946e-12 -8.069802e-16 3.961647e-15) (-1.244333e-08 -2.497744e-13 -3.677890e-13))
182.803099    	((6.133635e-12 -7.303402e-12 -2.279803e-11) (-1.637812e-12 1.732640e-11 -1.447291e-11)) ((-1.687290e-12 -1.105718e-15 3.837231e-15) (-1.196347e-08 -2.348153e-13 -3.516984e-13))
219.375719    	((8.207128e-12 -8.268903e-12 -2.074855e-11) (-1.711552e-12 1.567161e-11 -1.459961e-11)) ((-1.614708e-12 -1.331298e-15 3.617426e-15) (-1.152828e-08 -2.411063e-13 -3.310709e-13))
263.262863    	((1.197229e-11 -4.422584e-12 -1.695002e-11) (-4.744620e-13 1.442508e-11 -1.501295e-11)) ((-1.549331e-12 -1.448243e-15 3.332931e-15) (-1.113318e-08 -2.729737e-13 -2.986261e-13))
315.927436    	((1.412975e-11 2.045119e-13 -9.311046e-12) (1.063243e-12 1.322589e-11 -1.582272e-11)) ((-1.491672e-12 -1.363354e-15 2.914515e-15) (-1.077449e-08 -3.177637e-13 -2.521209e-13))
379.124923    	((1.746731e-11 5.869426e-12 -7.136087e-13) (5.177103e-13 1.228640e-11 -1.604231e-11)) ((-1.440010e-12 -1.262783e-15 2.590773e-15) (-1.044935e-08 -3.320896e-13 -2.190023e-13))
454.961908    	((1.956076e-11 8.392962e-12 4.908959e-12) (-5.668760e-13 1.129712e-11 -1.551242e-11)) ((-1.392001e-12 -1.074053e-15 2.345126e-15) (-1.015536e-08 -3.271608e-13 -2.000637e-13))
545.966289    	((2.219756e-11 5.758027e-12 4.186379e-12) (-4.082572e-13 1.098750e-11 -1.432553e-11)) ((-1.349394e-12 -9.480353e-16 2.212534e-15) (-9.890403e-09 -3.270748e-13 -1.892854e-13))
655.171547    	((2.619650e-11 5.538445e-13 4.703149e-12) (3.203710e-13 1.046213e-11 -1.342025e-11)) ((-1.311390e-12 -9.514320e-16 2.111869e-15) (-9.652408e-09 -3.266059e-13 -1.810627e-13))
786.217856    	((2.617923e-11 -3.912713e-13 5.457127e-12) (1.453318e-12 9.375387e-12 -1.353545e-11)) ((-1.277352e-12 -9.613852e-16 2.007727e-15) (-9.439508e-09 -3.255823e-13 -1.712180e-13))
943.473427    	((2.793901e-11 1.022666e-12 8.584202e-12) (2.881199e-12 8.526966e-12 -1.403516e-11)) ((-1.246734e-12 -8.866909e-16 1.891750e-15) (-9.249974e-09 -3.297561e-13 -1.580482e-13))
1132.180113   	((2.520107e-11 3.344586e-12 1.056115e-11) (3.332878e-12 8.263734e-12 -1.381319e-11)) ((-1.220285e-12 -8.680867e-16 1.830576e-15) (-9.082161e-09 -3.367777e-13 -1.402353e-13))
1353.12912    	((2.380596e-11 3.698369e-12 1.174377e-11) (2.965476e-12 7.973181e-12 -1.301632e-11)) ((-1.197584e-12 -9.623276e-16 1.812167e-15) (-8.934880e-09 -3.426423e-13 -1.190629e-13))
1606.322661   	((2.446856e-11 4.927576e-12 1.340646e-11) (2.731769e-12 7.737702e-12 -1.224991e-11)) ((-1.177642e-12 -1.095150e-15 1.858301e-15) (-8.806678e-09 -3.434820e-13 -1.044690e-13))
1891.763469   	((2.229562e-11 7.060843e-12 1.533390e-11) (2.235834e-12 7.215127e-12 -1.161362e-11)) ((-1.160213e-12 -1.228393e-15 1.876550e-15) (-8.695848e-09 -3.349908e-13 -9.597839e-14))
2209.452701   	((1.829364e-11 9.256479e-12 1.736730e-11) (1.444955e-12 6.607600e-12 -1.047561e-11)) ((-1.145338e-12 -1.314653e-15 1.876616e-15) (-8.600488e-09 -3.192396e-13 -8.916848e-14))
2531.950497   	((1.663075e-11 9.803803e-12 1.842200e-11) (5.109252e-13 6.053507e-12 -9.131061e-12)) ((-1.132675e-12 -1.398740e-15 1.870411e-15) (-8.519312e-09 -3.015225e-13 -8.088046e-14))
2854.46324    	((1.533299e-11 1.014784e-11 1.894678e-11) (-1.527216e-13 5.770745e-12 -7.785819e-12)) ((-1.121825e-12 -1.437353e-15 1.854660e-15) (-8.450525e-09 -2.802061e-13 -7.650060e-14))
3176.991156   	((1.310326e-11 1.056244e-11 1.947536e-11) (-5.144821e-13 5.447158e-12 -6.574976e-12)) ((-1.112773e-12 -1.415199e-15 1.824881e-15) (-8.392408e-09 -2.554677e-13 -7.575134e-14))
3499.534229   	((1.161625e-11 1.110996e-11 1.954408e-11) (-7.369034e-13 5.214227e-12 -5.485586e-12)) ((-1.104955e-12 -1.372946e-15 1.798689e-15) (-8.343175e-09 -2.323414e-13 -7.472290e-14))
3822.092336   	((9.844723e-12 1.172168e-11 1.979454e-11) (-8.555654e-13 5.084773e-12 -4.595617e-12)) ((-1.098162e-12 -1.320434e-15 1.770160e-15) (-8.301402e-09 -2.123374e-13 -7.467141e-14))
4144.664785   	((7.394944e-12 1.186689e-11 1.960984e-11) (-9.061913e-13 5.047231e-12 -3.905952e-12)) ((-1.092306e-12 -1.271044e-15 1.741305e-15) (-8.265845e-09 -1.951649e-13 -7.510756e-14))
4467.250693   	((5.527716e-12 1.171961e-11 1.945988e-11) (-8.736458e-13 5.034329e-12 -3.329526e-12)) ((-1.087260e-12 -1.245268e-15 1.735602e-15) (-8.235516e-09 -1.807102e-13 -7.520879e-14))
4789.849249   	((4.319694e-12 1.166728e-11 1.920731e-11) (-7.342099e-13 5.012605e-12 -2.851203e-12)) ((-1.082938e-12 -1.243712e-15 1.729985e-15) (-8.209566e-09 -1.686502e-13 -7.524937e-14))
5112.459701   	((4.078571e-12 1.146278e-11 1.899987e-11) (-5.508427e-13 5.014349e-12 -2.434546e-12)) ((-1.079241e-12 -1.234500e-15 1.725773e-15) (-8.187297e-09 -1.591364e-13 -7.475228e-14))
5435.081069   	((4.373973e-12 1.137988e-11 1.888892e-11) (-3.394016e-13 5.004057e-12 -2.117618e-12)) ((-1.076040e-12 -1.212672e-15 1.707372e-15) (-8.168131e-09 -1.520625e-13 -7.459195e-14))
5757.712324   	((5.173032e-12 1.150592e-11 1.894033e-11) (-9.340266e-14 5.007402e-12 -1.848919e-12)) ((-1.073289e-12 -1.194491e-15 1.695252e-15) (-8.151601e-09 -1.466844e-13 -7.449656e-14))
6080.352458   	((5.720810e-12 1.155504e-11 1.887970e-11) (1.280202e-13 5.016082e-12 -1.610164e-12)) ((-1.070910e-12 -1.175852e-15 1.682524e-15) (-8.137316e-09 -1.415696e-13 -7.419133e-14))
6403.000522   	((5.825919e-12 1.161890e-11 1.891390e-11) (2.917734e-13 5.016342e-12 -1.407541e-12)) ((-1.068849e-12 -1.155309e-15 1.669808e-15) (-8.124952e-09 -1.369178e-13 -7.403733e-14))
6725.65582    	((5.635613e-12 1.173622e-11 1.885761e-11) (3.874068e-13 5.005161e-12 -1.236759e-12)) ((-1.067076e-12 -1.134613e-15 1.656794e-15) (-8.114234e-09 -1.329560e-13 -7.416676e-14))
7048.317659   	((5.420475e-12 1.179994e-11 1.884808e-11) (4.439324e-13 4.997048e-12 -1.080081e-12)) ((-1.065541e-12 -1.115346e-15 1.642306e-15) (-8.104930e-09 -1.297899e-13 -7.442647e-14))
7370.985352   	((5.330738e-12 1.187759e-11 1.888467e-11) (4.918338e-13 4.991205e-12 -9.514991e-13)) ((-1.064209e-12 -1.098468e-15 1.629351e-15) (-8.096842e-09 -1.270796e-13 -7.472816e-14))
7693.658279   	((5.255040e-12 1.191380e-11 1.896404e-11) (5.425958e-13 4.964870e-12 -8.435744e-13)) ((-1.063049e-12 -1.084891e-15 1.617154e-15) (-8.089805e-09 -1.244370e-13 -7.514309e-14))
