# Forces      
# CofR        : (0.000000e+00 0.000000e+00 0.000000e+00)
# Time        forces(pressure viscous)	moments(pressure viscous)
0             	((0.000000e+00 0.000000e+00 0.000000e+00) (0.000000e+00 0.000000e+00 0.000000e+00)) ((0.000000e+00 0.000000e+00 0.000000e+00) (0.000000e+00 0.000000e+00 0.000000e+00))
0.012         	((-6.663495e-11 1.796258e-08 3.713799e-11) (9.610093e-14 4.562431e-10 -1.507623e-12)) ((-4.760784e-15 3.356532e-15 -4.086440e-10) (1.946255e-15 -3.707556e-14 -5.561456e-07))
0.0264        	((-2.207053e-10 2.635244e-09 5.418841e-13) (-1.732155e-13 6.738531e-10 -2.725359e-12)) ((3.467356e-15 -3.584738e-14 -1.875340e-10) (8.515343e-17 -1.026418e-13 -5.094403e-07))
0.04368       	((-1.356699e-10 8.381243e-09 1.338417e-10) (-6.856512e-13 7.105686e-10 -3.904911e-12)) ((-6.916363e-15 -4.348559e-14 -1.023830e-10) (-1.729170e-15 -1.853476e-13 -4.614201e-07))
0.064416      	((-2.485193e-10 -1.164090e-09 -1.174475e-10) (-2.560653e-12 6.141933e-10 -6.426898e-12)) ((2.519409e-15 -2.328040e-14 -5.527063e-11) (-1.209475e-14 -2.904019e-13 -4.131558e-07))
0.0892992     	((1.956743e-10 3.705206e-09 1.027962e-10) (-3.526148e-12 5.112561e-10 -9.834735e-12)) ((-1.022924e-14 -6.002527e-14 -4.157112e-11) (-3.132919e-14 -4.225384e-13 -3.660700e-07))
0.119159      	((-9.863795e-11 -6.580660e-10 2.253970e-11) (-4.200763e-12 4.170892e-10 -1.166122e-11)) ((1.414014e-15 -4.381137e-14 -3.118025e-11) (-3.403566e-14 -4.920752e-13 -3.216284e-07))
0.154991      	((4.706580e-11 1.844658e-09 -3.122080e-11) (-5.974772e-12 3.787109e-10 -1.211751e-11)) ((-4.837468e-15 -3.384257e-14 -2.555211e-11) (-3.805504e-14 -5.165752e-13 -2.808612e-07))
0.197989      	((-4.907157e-11 6.093363e-10 1.185254e-12) (-6.018286e-12 3.313877e-10 -1.207751e-11)) ((-1.028733e-14 -2.882413e-14 -2.097209e-11) (-4.682818e-14 -5.256101e-13 -2.447256e-07))
0.249587      	((7.529702e-11 1.455871e-09 4.102946e-11) (-5.327136e-12 2.969154e-10 -1.229239e-11)) ((-6.606747e-15 -3.071663e-14 -1.728845e-11) (-6.176154e-14 -5.131057e-13 -2.137314e-07))
0.311504      	((-8.056852e-11 8.439256e-10 2.037669e-11) (-3.326266e-12 2.752297e-10 -1.356948e-11)) ((-4.731129e-15 -2.073271e-14 -1.408944e-11) (-6.687378e-14 -5.016341e-13 -1.877963e-07))
0.385805      	((-3.185761e-11 7.168346e-10 -7.029555e-12) (-1.129108e-12 2.620030e-10 -1.441019e-11)) ((-1.400578e-15 -8.466050e-15 -1.163291e-11) (-2.525101e-14 -4.758661e-13 -1.663617e-07))
0.474966      	((-1.991475e-10 6.888370e-10 1.353872e-11) (-2.225337e-12 2.540991e-10 -1.471696e-11)) ((3.415837e-16 -4.812168e-15 -9.966629e-12) (9.368263e-15 -4.403877e-13 -1.485891e-07))
0.581959      	((-1.654523e-10 5.136232e-10 2.505201e-11) (-3.882169e-12 2.292487e-10 -1.263404e-11)) ((3.204639e-15 5.801402e-15 -8.453102e-12) (-2.423956e-15 -3.090411e-13 -1.336199e-07))
0.710351      	((-2.718853e-10 4.085559e-10 -1.504692e-11) (-9.919901e-12 1.924234e-10 -7.270770e-12)) ((5.860850e-15 1.300680e-14 -6.988483e-12) (-2.283804e-14 -7.232373e-14 -1.207489e-07))
0.864421      	((-2.213338e-10 8.117294e-10 -3.432033e-11) (-1.686010e-11 1.898691e-10 -2.436200e-12)) ((1.132757e-14 2.404008e-14 -5.991449e-12) (3.486937e-14 1.987590e-13 -1.094750e-07))
1.049306      	((-1.376979e-10 1.128603e-09 -3.428685e-11) (-1.307063e-11 1.758579e-10 -4.631118e-13)) ((8.743125e-15 3.094706e-14 -5.376241e-12) (-4.502911e-15 2.691338e-13 -9.946130e-08))
1.271167      	((-2.332693e-10 1.097304e-09 9.052536e-12) (-8.056957e-12 1.479158e-10 2.814054e-12)) ((3.711280e-15 2.839256e-14 -4.907877e-12) (-2.693992e-13 2.397314e-13 -9.047710e-08))
1.5374        	((-1.379919e-10 1.243641e-09 -3.492472e-11) (1.890041e-12 1.566102e-10 6.761107e-12)) ((1.355301e-15 4.208909e-14 -4.515120e-12) (-5.602846e-13 1.325833e-13 -8.237363e-08))
1.85688       	((-2.689629e-10 1.553355e-09 -2.777302e-11) (1.850637e-11 1.770012e-10 8.111073e-12)) ((6.253646e-15 4.781322e-14 -4.196790e-12) (-9.182929e-13 -2.654617e-13 -7.506873e-08))
2.240256      	((-2.333848e-10 1.099623e-09 -7.799492e-12) (4.202433e-11 1.679470e-10 6.332001e-12)) ((4.819445e-15 5.049689e-14 -4.049714e-12) (-1.425007e-12 -8.940525e-13 -6.852160e-08))
2.700307      	((-2.326524e-10 7.247867e-10 5.135629e-12) (6.128694e-11 1.254312e-10 6.811406e-12)) ((3.918991e-15 5.155024e-14 -3.896807e-12) (-2.122573e-12 -1.626078e-12 -6.270183e-08))
3.252369      	((-1.526055e-10 5.196216e-10 1.142304e-11) (9.069880e-11 7.440333e-11 1.033176e-11)) ((4.313767e-15 5.107078e-14 -3.655279e-12) (-2.792182e-12 -2.248449e-12 -5.756593e-08))
3.914842      	((2.775791e-11 2.822662e-10 4.725318e-11) (1.388620e-10 3.732867e-11 1.167693e-11)) ((1.977003e-15 4.282309e-14 -3.326061e-12) (-3.161665e-12 -2.815820e-12 -5.304831e-08))
4.709811      	((-5.160176e-11 2.381685e-10 3.054760e-11) (1.725811e-10 -1.322496e-11 6.684479e-12)) ((-8.585474e-15 3.070078e-14 -2.982751e-12) (-3.270650e-12 -3.129921e-12 -4.906546e-08))
5.663773      	((1.032653e-10 2.801840e-11 3.143775e-11) (1.887348e-10 -5.665124e-11 8.105972e-13)) ((-1.897846e-14 1.795701e-14 -2.665976e-12) (-3.296960e-12 -3.296146e-12 -4.552350e-08))
6.808528      	((1.845611e-10 -1.312817e-10 -1.134571e-13) (1.970032e-10 -7.699459e-11 -4.769517e-12)) ((-2.082490e-14 6.639311e-15 -2.388649e-12) (-3.048131e-12 -3.112736e-12 -4.233653e-08))
8.182233      	((1.137106e-10 -1.092864e-10 5.448446e-12) (1.832963e-10 -6.451424e-11 -6.552229e-12)) ((-1.836103e-14 -8.723292e-16 -2.152098e-12) (-2.514089e-12 -2.538026e-12 -3.943990e-08))
9.83068       	((1.026831e-10 -9.981955e-11 -2.173706e-11) (1.413111e-10 -4.285717e-11 -6.132544e-12)) ((-2.057307e-14 -9.865501e-15 -1.957499e-12) (-1.926402e-12 -1.966471e-12 -3.678782e-08))
11.808816     	((3.658470e-11 1.394781e-11 -4.940987e-13) (9.834222e-11 -1.717991e-11 -6.556048e-12)) ((-1.944941e-14 -1.394651e-14 -1.804203e-12) (-1.366226e-12 -1.506624e-12 -3.434885e-08))
14.182579     	((-2.969285e-11 -2.003359e-11 -5.671954e-12) (6.301193e-11 -6.698929e-12 -8.523356e-12)) ((-1.648424e-14 -2.140582e-14 -1.680442e-12) (-1.005799e-12 -1.260090e-12 -3.210070e-08))
17.031095     	((-2.459162e-11 1.419121e-11 -1.135368e-11) (4.215896e-11 -3.094068e-12 -7.953202e-12)) ((-1.135518e-14 -2.307402e-14 -1.578774e-12) (-6.772731e-13 -8.518656e-13 -3.003163e-08))
20.449314     	((1.129676e-11 2.838625e-11 -9.870216e-13) (3.182764e-11 -4.087410e-12 -2.675928e-12)) ((-7.130140e-15 -2.207202e-14 -1.492359e-12) (-4.156197e-13 -4.847409e-13 -2.813513e-08))
24.551176     	((2.504827e-11 4.785460e-11 -2.500322e-14) (2.694653e-11 -8.092118e-12 1.366174e-12)) ((-5.870029e-15 -2.035524e-14 -1.415092e-12) (-3.059430e-13 -3.414308e-13 -2.640314e-08))
29.473411     	((2.449127e-11 5.658912e-11 -4.618989e-12) (2.558044e-11 -7.796165e-12 1.160527e-12)) ((-5.384308e-15 -1.850175e-14 -1.351154e-12) (-2.005556e-13 -3.052688e-13 -2.482543e-08))
35.380094     	((2.116424e-12 6.835635e-11 -1.181260e-12) (2.811536e-11 -8.893684e-12 -4.702695e-13)) ((-4.813789e-15 -1.867756e-14 -1.296539e-12) (-1.464489e-13 -3.717733e-13 -2.338872e-08))
42.468112     	((-6.180027e-12 8.574711e-11 -3.653018e-12) (3.620541e-11 -1.147148e-11 -1.907134e-12)) ((-4.392914e-15 -1.868693e-14 -1.253610e-12) (-1.478611e-13 -4.525309e-13 -2.207996e-08))
50.973735     	((-9.956831e-12 9.287763e-11 1.837920e-12) (4.097897e-11 -1.450916e-11 -2.729829e-12)) ((-4.076083e-15 -1.798425e-14 -1.216914e-12) (-1.445315e-13 -4.801916e-13 -2.088749e-08))
61.180482     	((-1.884206e-12 9.749344e-11 -5.845815e-12) (4.221453e-11 -2.276278e-11 -3.838239e-12)) ((-2.361952e-15 -1.669991e-14 -1.186077e-12) (-1.585547e-13 -4.971856e-13 -1.980169e-08))
73.428578     	((5.437669e-12 1.056771e-10 -4.427443e-12) (4.459970e-11 -3.097131e-11 -2.861340e-12)) ((-1.623909e-15 -1.409283e-14 -1.159398e-12) (-2.399934e-13 -5.214341e-13 -1.881398e-08))
88.126294     	((1.070409e-11 1.074001e-10 -3.087014e-12) (4.784767e-11 -3.539890e-11 -1.069504e-12)) ((-1.483515e-15 -1.204563e-14 -1.134947e-12) (-3.269020e-13 -5.307135e-13 -1.791630e-08))
105.763553    	((-4.802006e-12 9.123508e-11 -2.412901e-12) (5.323186e-11 -4.626086e-11 -4.972338e-15)) ((-1.145752e-15 -1.103842e-14 -1.114552e-12) (-3.803713e-13 -5.302468e-13 -1.710187e-08))
126.928263    	((-9.157593e-12 6.187004e-11 -1.724232e-12) (5.123529e-11 -5.667365e-11 3.027763e-13)) ((-2.993832e-16 -9.825461e-15 -1.096228e-12) (-4.427112e-13 -4.913072e-13 -1.636440e-08))
152.325916    	((-9.896184e-12 4.616626e-11 1.091491e-13) (4.633156e-11 -6.023887e-11 2.243822e-13)) ((2.684842e-16 -8.502639e-15 -1.077706e-12) (-4.393813e-13 -4.368814e-13 -1.569659e-08))
182.803099    	((-1.107121e-11 3.235597e-11 3.720277e-12) (4.078988e-11 -5.650758e-11 -2.213037e-13)) ((-3.546888e-16 -8.031862e-15 -1.058171e-12) (-4.286596e-13 -4.006336e-13 -1.509134e-08))
219.375719    	((1.111471e-11 2.202464e-11 3.126886e-12) (3.304788e-11 -5.357603e-11 -3.845294e-13)) ((-1.219827e-15 -8.549855e-15 -1.038996e-12) (-4.314779e-13 -3.789546e-13 -1.454236e-08))
263.262863    	((1.735542e-11 2.811238e-11 2.882928e-12) (2.317564e-11 -5.292246e-11 -1.931872e-13)) ((-2.671673e-15 -8.622967e-15 -1.018283e-12) (-4.260012e-13 -3.452155e-13 -1.404406e-08))
315.927436    	((1.563640e-11 3.570228e-11 2.162214e-12) (1.544573e-11 -5.346131e-11 1.426146e-13)) ((-3.723517e-15 -8.877201e-15 -1.000433e-12) (-4.020232e-13 -3.192953e-13 -1.359167e-08))
379.124923    	((2.118608e-11 4.567499e-11 -9.552879e-13) (1.422611e-11 -5.199824e-11 5.321594e-13)) ((-4.211394e-15 -8.769095e-15 -9.840212e-13) (-3.505820e-13 -2.957117e-13 -1.318185e-08))
454.961908    	((1.296293e-11 3.881497e-11 1.475521e-13) (1.797592e-11 -5.126886e-11 5.234700e-13)) ((-4.481726e-15 -9.097384e-15 -9.703524e-13) (-3.267463e-13 -2.644826e-13 -1.281207e-08))
545.966289    	((8.657314e-13 3.673331e-11 -2.346787e-13) (2.035523e-11 -5.059233e-11 5.919611e-13)) ((-4.626254e-15 -8.939209e-15 -9.578799e-13) (-3.438211e-13 -2.216219e-13 -1.247946e-08))
655.171547    	((-1.036544e-11 3.927124e-11 -6.294474e-13) (2.279487e-11 -5.045097e-11 1.293380e-12)) ((-4.644887e-15 -8.841729e-15 -9.458339e-13) (-3.731469e-13 -1.980441e-13 -1.218124e-08))
786.217856    	((-9.873400e-12 4.394121e-11 -3.737351e-12) (2.407654e-11 -4.979259e-11 1.814984e-12)) ((-4.427767e-15 -8.429574e-15 -9.352757e-13) (-3.856058e-13 -1.719743e-13 -1.191495e-08))
942.868741    	((-8.980723e-12 4.687593e-11 -3.818886e-12) (2.316023e-11 -4.796428e-11 1.929946e-12)) ((-4.312050e-15 -8.132818e-15 -9.263060e-13) (-3.755671e-13 -1.451056e-13 -1.167856e-08))
1125.12494    	((-4.101314e-12 5.355581e-11 -6.790816e-12) (2.221655e-11 -4.438619e-11 1.577734e-12)) ((-4.125223e-15 -8.142081e-15 -9.185857e-13) (-3.507153e-13 -1.127414e-13 -1.147081e-08))
1332.98777    	((-4.549761e-13 5.800309e-11 -4.636021e-12) (2.183294e-11 -3.933476e-11 1.693842e-12)) ((-4.147350e-15 -8.087469e-15 -9.118496e-13) (-3.322258e-13 -7.703197e-14 -1.128978e-08))
1566.45956    	((2.489244e-12 6.075724e-11 -2.797014e-12) (2.331427e-11 -3.313416e-11 2.110432e-12)) ((-4.021373e-15 -7.902310e-15 -9.066159e-13) (-3.196610e-13 -4.220991e-14 -1.113318e-08))
1822.565878   	((4.593369e-12 6.282435e-11 -4.867774e-12) (2.364899e-11 -2.952822e-11 2.311112e-12)) ((-3.586941e-15 -7.892696e-15 -9.017301e-13) (-2.981121e-13 -2.802270e-14 -1.099849e-08))
2078.694947   	((6.554189e-12 6.398820e-11 -7.216905e-12) (2.444911e-11 -2.723489e-11 2.209732e-12)) ((-3.308163e-15 -7.831514e-15 -8.973442e-13) (-2.675668e-13 -2.116729e-14 -1.088397e-08))
2334.839219   	((8.690821e-12 6.578151e-11 -6.490693e-12) (2.508589e-11 -2.563200e-11 1.853268e-12)) ((-3.016141e-15 -7.942192e-15 -8.936888e-13) (-2.359461e-13 -1.891798e-14 -1.078700e-08))
2590.991489   	((1.013362e-11 6.679727e-11 -6.164016e-12) (2.516783e-11 -2.449306e-11 1.543163e-12)) ((-2.858811e-15 -8.030043e-15 -8.905220e-13) (-2.029557e-13 -2.524365e-14 -1.070507e-08))
2847.15213    	((1.150777e-11 6.702723e-11 -5.826975e-12) (2.490093e-11 -2.357945e-11 1.295771e-12)) ((-2.736961e-15 -7.996048e-15 -8.877329e-13) (-1.690613e-13 -3.757501e-14 -1.063564e-08))
3103.321335   	((1.191570e-11 6.739014e-11 -5.502890e-12) (2.438684e-11 -2.284520e-11 1.066753e-12)) ((-2.652083e-15 -7.995701e-15 -8.852635e-13) (-1.388934e-13 -5.305733e-14 -1.057664e-08))
3359.499609   	((1.210724e-11 6.668918e-11 -5.048329e-12) (2.393769e-11 -2.224880e-11 8.581029e-13)) ((-2.607220e-15 -7.962974e-15 -8.830812e-13) (-1.145872e-13 -6.872504e-14 -1.052629e-08))
3615.686989   	((1.244030e-11 6.571773e-11 -5.049616e-12) (2.344059e-11 -2.170011e-11 6.504710e-13)) ((-2.539366e-15 -7.912361e-15 -8.812261e-13) (-9.560196e-14 -8.281342e-14 -1.048319e-08))
3871.883353   	((1.283182e-11 6.539985e-11 -5.238803e-12) (2.298128e-11 -2.116654e-11 4.773693e-13)) ((-2.483244e-15 -7.868322e-15 -8.795743e-13) (-8.050628e-14 -9.611015e-14 -1.044612e-08))
4128.088542   	((1.318304e-11 6.510651e-11 -5.165493e-12) (2.241064e-11 -2.065010e-11 2.614734e-13)) ((-2.429904e-15 -7.816968e-15 -8.781333e-13) (-6.840973e-14 -1.074564e-13 -1.041414e-08))
4384.302097   	((1.350649e-11 6.474406e-11 -5.118008e-12) (2.184001e-11 -2.023507e-11 1.772966e-14)) ((-2.373003e-15 -7.765936e-15 -8.768657e-13) (-5.882085e-14 -1.169379e-13 -1.038647e-08))
4640.52341    	((1.400428e-11 6.412660e-11 -5.040356e-12) (2.131008e-11 -1.990101e-11 -1.873595e-13)) ((-2.318482e-15 -7.716366e-15 -8.757431e-13) (-5.182301e-14 -1.245475e-13 -1.036247e-08))
4896.75192    	((1.443378e-11 6.353895e-11 -4.820449e-12) (2.091036e-11 -1.957561e-11 -3.559002e-13)) ((-2.285354e-15 -7.680415e-15 -8.747485e-13) (-4.763446e-14 -1.306658e-13 -1.034158e-08))
5152.987181   	((1.469386e-11 6.296199e-11 -4.624471e-12) (2.061092e-11 -1.924273e-11 -4.825163e-13)) ((-2.262085e-15 -7.628582e-15 -8.738700e-13) (-4.457170e-14 -1.345682e-13 -1.032338e-08))
5409.228625   	((1.480686e-11 6.256996e-11 -4.766993e-12) (2.029423e-11 -1.894078e-11 -6.106173e-13)) ((-2.234235e-15 -7.585665e-15 -8.731039e-13) (-4.136578e-14 -1.370552e-13 -1.030746e-08))
5665.47577    	((1.495366e-11 6.226062e-11 -4.872709e-12) (1.999371e-11 -1.869691e-11 -7.500044e-13)) ((-2.204767e-15 -7.544695e-15 -8.724386e-13) (-3.809049e-14 -1.389214e-13 -1.029352e-08))
5921.72814    	((1.515671e-11 6.203210e-11 -4.894676e-12) (1.976427e-11 -1.855466e-11 -8.799273e-13)) ((-2.172046e-15 -7.503654e-15 -8.718580e-13) (-3.497186e-14 -1.405491e-13 -1.028129e-08))
