# Forces      
# CofR        : (0.000000e+00 0.000000e+00 0.000000e+00)
# Time        forces(pressure viscous)	moments(pressure viscous)
0             	((0.000000e+00 0.000000e+00 0.000000e+00) (1.006859e-03 -1.423511e-13 7.020980e-14)) ((0.000000e+00 0.000000e+00 0.000000e+00) (-1.991335e-15 -1.518121e-14 2.130021e-14))
0.012         	((2.927529e-01 -4.968354e-08 3.395134e-08) (1.152913e-03 -8.244294e-10 -5.251189e-10)) ((5.928714e-13 -9.190906e-11 -3.718048e-11) (8.913446e-14 3.725118e-12 1.349085e-11))
0.0264        	((-2.670037e-02 -3.258519e-06 -7.141787e-06) (1.169661e-03 -3.792848e-09 -5.763896e-09)) ((4.968186e-11 1.468652e-11 -2.861371e-12) (1.486131e-13 1.847636e-11 3.271984e-11))
0.04368       	((-5.781734e-02 1.715063e-06 5.693462e-06) (1.033082e-03 -3.518629e-09 -3.425640e-09)) ((-4.313409e-11 1.887236e-10 2.372059e-10) (1.060356e-12 6.132777e-11 1.389256e-11))
0.064416      	((-5.089434e-04 7.127192e-07 -6.285241e-07) (9.118337e-04 5.649347e-09 5.700087e-09)) ((4.740561e-12 -7.883631e-11 -7.893104e-11) (4.658592e-12 3.045267e-11 4.250604e-11))
0.0892992     	((2.289308e-04 -6.506516e-07 2.041026e-07) (8.399320e-04 7.366196e-09 5.542477e-09)) ((2.644486e-11 -9.760037e-12 -4.671213e-11) (-3.804562e-12 3.491008e-11 1.180952e-10))
0.119159      	((-1.016119e-03 9.007173e-07 3.513423e-07) (7.757814e-04 4.227457e-09 4.552342e-09)) ((-1.618313e-11 -1.903153e-11 -3.456121e-11) (-1.054973e-11 1.105772e-10 7.365571e-11))
0.154991      	((-3.812351e-04 1.290569e-07 3.338113e-07) (7.098458e-04 2.166002e-09 3.875661e-09)) ((-4.881608e-13 -1.611449e-11 -4.313433e-12) (-2.334376e-12 7.848679e-11 8.129326e-11))
0.197989      	((-4.706429e-05 -5.809536e-08 -5.393815e-08) (6.460930e-04 -1.048926e-09 1.611125e-09)) ((2.635324e-12 -3.334467e-12 6.482167e-12) (1.492200e-12 1.509494e-11 1.503773e-10))
0.249587      	((6.305213e-05 -8.965192e-08 -9.783410e-08) (5.866016e-04 -1.494283e-09 1.863050e-09)) ((-3.347049e-12 -9.761260e-12 3.851532e-12) (1.664118e-12 3.603015e-11 1.044075e-10))
0.311504      	((1.216561e-04 -8.471246e-08 -9.713428e-08) (5.328542e-04 -1.539702e-09 2.154817e-09)) ((-1.105271e-14 -6.106317e-12 1.015030e-12) (2.012224e-12 6.300772e-11 5.690392e-11))
0.385805      	((1.544003e-04 -7.400213e-08 -8.289636e-08) (4.853557e-04 -2.554130e-09 1.679286e-09)) ((3.848692e-13 -4.329205e-12 1.734501e-13) (-1.257878e-12 4.045047e-11 5.678377e-11))
0.474966      	((1.694247e-04 -6.947427e-08 -5.924062e-08) (4.437500e-04 -2.734740e-09 1.467441e-09)) ((5.144744e-13 -2.684240e-12 -9.300986e-13) (-3.972801e-12 1.282417e-11 4.546015e-11))
0.581959      	((1.747368e-04 -3.908077e-08 -3.779930e-08) (4.067338e-04 -2.463914e-09 2.819546e-10)) ((6.557840e-13 -2.289605e-12 -1.154904e-12) (-4.201851e-12 -1.320385e-11 4.492202e-11))
0.710351      	((1.738232e-04 -3.577114e-08 -3.987244e-08) (3.724065e-04 -2.292604e-09 -1.359956e-09)) ((4.780218e-13 -2.325860e-12 -8.940040e-13) (-3.141316e-12 -3.202389e-11 4.421285e-11))
0.864421      	((1.687980e-04 -2.429154e-08 -3.550967e-08) (3.396897e-04 -2.618147e-09 -2.485707e-09)) ((2.186540e-13 -1.735282e-12 -6.423639e-13) (-2.122462e-12 -4.987159e-11 4.993381e-11))
1.049306      	((1.615656e-04 -2.022317e-08 -2.262466e-08) (3.086980e-04 -3.091561e-09 -3.323672e-09)) ((-2.050402e-13 -1.150793e-12 -4.116056e-13) (-1.427802e-12 -6.010224e-11 5.301936e-11))
1.271167      	((1.537923e-04 -1.150746e-08 -1.256478e-08) (2.798357e-04 -3.364755e-09 -3.449120e-09)) ((-2.429239e-13 -6.424592e-13 -2.757551e-13) (1.286972e-13 -5.585660e-11 4.267776e-11))
1.5374        	((1.469444e-04 -7.384174e-09 -9.575850e-09) (2.534882e-04 -3.265283e-09 -3.139403e-09)) ((-1.568706e-13 -4.107600e-13 -1.758495e-13) (1.942604e-12 -3.141465e-11 1.484488e-11))
1.85688       	((1.419705e-04 -9.111771e-09 -1.060893e-08) (2.299233e-04 -2.892368e-09 -2.569447e-09)) ((-3.736784e-14 -6.255900e-13 -3.738953e-13) (2.932830e-12 2.914305e-11 -3.690735e-11))
2.240256      	((1.393093e-04 -2.013553e-08 -1.959678e-08) (2.091978e-04 -2.291980e-09 -1.721936e-09)) ((3.315814e-13 -1.418504e-12 -3.915507e-13) (5.374573e-12 1.201777e-10 -1.148144e-10))
2.700307      	((1.394157e-04 -5.450652e-08 -5.600852e-08) (1.912233e-04 -2.001363e-09 -1.569008e-09)) ((8.287397e-14 -2.240664e-12 -4.070904e-13) (6.928140e-12 2.157857e-10 -2.023834e-10))
3.252369      	((1.424957e-04 -7.431600e-08 -7.341226e-08) (1.758268e-04 -2.492077e-09 -2.147318e-09)) ((-3.977110e-14 -2.717364e-12 -4.646064e-13) (6.818477e-12 2.839594e-10 -2.657977e-10))
3.914842      	((1.489665e-04 -9.231295e-08 -9.011625e-08) (1.627888e-04 -3.632344e-09 -3.048128e-09)) ((-1.391055e-13 -2.339657e-12 -6.465017e-13) (7.084798e-12 2.922694e-10 -2.751931e-10))
4.709811      	((1.590447e-04 -9.332294e-08 -8.543337e-08) (1.518741e-04 -4.810145e-09 -4.133743e-09)) ((-7.227359e-15 -2.802022e-12 -6.864586e-13) (8.034295e-12 2.365906e-10 -2.110727e-10))
5.663773      	((1.727516e-04 -7.575901e-08 -7.739830e-08) (1.428506e-04 -5.314007e-09 -4.975111e-09)) ((-4.766489e-14 -2.380592e-12 -7.180556e-13) (9.480353e-12 1.264231e-10 -9.578571e-11))
6.787963      	((1.899123e-04 -5.270036e-08 -4.821352e-08) (1.355473e-04 -5.142912e-09 -4.756829e-09)) ((5.269509e-14 -2.070990e-12 -6.770116e-13) (1.065871e-11 1.908813e-11 5.334635e-12))
8.08246       	((2.098234e-04 -2.720348e-08 -2.771930e-08) (1.297204e-04 -4.163317e-09 -3.696008e-09)) ((-1.003466e-13 -1.443958e-12 -9.881405e-13) (1.296376e-11 -6.243816e-11 9.035567e-11))
9.546862      	((2.316197e-04 -1.473806e-09 -2.487141e-10) (1.251823e-04 -1.983441e-09 -1.365475e-09)) ((-3.414193e-13 5.629168e-14 -1.177390e-12) (1.404429e-11 -1.538494e-10 1.732296e-10))
11.180341     	((2.546078e-04 2.131275e-08 1.954030e-08) (1.216858e-04 8.942030e-10 1.384411e-09)) ((-5.979077e-13 1.710125e-12 -1.726616e-12) (1.552964e-11 -2.627242e-10 2.766316e-10))
12.859105     	((2.768283e-04 3.361870e-08 3.409129e-08) (1.191919e-04 2.750943e-09 3.561940e-09)) ((-1.046219e-12 2.631289e-12 -2.120854e-12) (1.584612e-11 -3.039531e-10 2.948216e-10))
14.524771     	((2.955279e-04 2.482604e-08 2.558014e-08) (1.172982e-04 2.659475e-09 3.156287e-09)) ((-1.722565e-12 2.766593e-12 -2.731483e-12) (1.426285e-11 -2.617108e-10 2.676187e-10))
16.180544     	((3.110320e-04 5.480384e-08 5.227439e-08) (1.156698e-04 1.281522e-09 9.531523e-10)) ((-2.358801e-12 2.786223e-12 -2.552037e-12) (1.525400e-11 -8.496019e-11 1.479366e-10))
17.833547     	((3.219572e-04 7.872067e-08 8.542820e-08) (1.141872e-04 -6.611509e-10 -9.367618e-10)) ((-3.188191e-12 2.534184e-12 -2.208930e-12) (1.788979e-11 1.725673e-10 -1.114973e-10))
19.490725     	((3.294212e-04 1.171447e-07 1.245179e-07) (1.128225e-04 -3.241702e-09 -3.486084e-09)) ((-3.989296e-12 2.609912e-12 -1.940753e-12) (1.645468e-11 5.217494e-10 -4.551261e-10))
21.155178     	((3.330865e-04 1.237095e-07 1.408145e-07) (1.115857e-04 -6.316275e-09 -5.845161e-09)) ((-4.046872e-12 2.582589e-12 -2.025968e-12) (1.291909e-11 8.770047e-10 -8.217667e-10))
22.826287     	((3.329850e-04 1.183944e-07 1.346282e-07) (1.104253e-04 -8.819587e-09 -8.372411e-09)) ((-3.867927e-12 2.035726e-12 -2.115425e-12) (8.986099e-12 1.239352e-09 -1.165085e-09))
24.502327     	((3.307587e-04 4.134489e-08 5.970641e-08) (1.092920e-04 -1.303535e-08 -1.252583e-08)) ((-4.303509e-12 3.682289e-13 -1.913641e-12) (1.020685e-11 1.516770e-09 -1.432819e-09))
26.182452     	((3.280674e-04 -6.507667e-09 1.403630e-08) (1.082136e-04 -1.849176e-08 -1.768977e-08)) ((-4.058520e-12 -3.362144e-13 -1.848723e-12) (1.148970e-11 1.691710e-09 -1.613192e-09))
27.866625     	((3.257203e-04 2.256225e-08 4.431863e-08) (1.072435e-04 -2.228070e-08 -2.085803e-08)) ((-3.725481e-12 2.127786e-13 -1.576024e-12) (1.306143e-11 1.795967e-09 -1.738865e-09))
29.554619     	((3.231294e-04 3.401115e-08 5.001757e-08) (1.063649e-04 -2.146887e-08 -2.049371e-08)) ((-3.887691e-12 -3.705837e-13 -1.521235e-12) (1.386067e-11 1.819076e-09 -1.735789e-09))
31.246312     	((3.197841e-04 4.343874e-09 2.058455e-08) (1.055245e-04 -2.120732e-08 -2.066499e-08)) ((-4.018985e-12 -1.283228e-12 -1.336408e-12) (1.461510e-11 1.811969e-09 -1.708331e-09))
32.940158     	((3.169964e-04 -1.408325e-08 7.281015e-09) (1.047311e-04 -2.235460e-08 -2.179555e-08)) ((-4.097373e-12 -1.246076e-12 -1.394084e-12) (1.622450e-11 1.786512e-09 -1.674236e-09))
34.635244     	((3.147070e-04 -3.010905e-08 -1.229084e-08) (1.040039e-04 -2.277275e-08 -2.241380e-08)) ((-4.260953e-12 -9.194934e-13 -1.323255e-12) (2.139275e-11 1.709604e-09 -1.583216e-09))
36.332057     	((3.126949e-04 -5.015007e-08 -2.339988e-08) (1.033300e-04 -2.246294e-08 -2.229778e-08)) ((-4.497605e-12 -8.090529e-13 -1.305852e-12) (2.223644e-11 1.590540e-09 -1.442518e-09))
38.03095      	((3.109377e-04 -6.780991e-08 -3.698816e-08) (1.027013e-04 -2.134047e-08 -2.093595e-08)) ((-4.752476e-12 -9.661289e-13 -1.287647e-12) (1.625269e-11 1.413956e-09 -1.246532e-09))
39.732063     	((3.092655e-04 -1.205004e-07 -7.344012e-08) (1.021052e-04 -1.994276e-08 -1.908690e-08)) ((-5.102358e-12 -1.411549e-12 -1.317017e-12) (1.264867e-11 1.160876e-09 -9.821592e-10))
41.435487     	((3.076904e-04 -1.597801e-07 -1.039985e-07) (1.015340e-04 -1.937349e-08 -1.730693e-08)) ((-5.246785e-12 -1.636141e-12 -1.411928e-12) (1.490050e-11 8.822027e-10 -7.276824e-10))
43.141343     	((3.064474e-04 -1.980817e-07 -1.437154e-07) (1.009990e-04 -1.914597e-08 -1.657242e-08)) ((-5.462779e-12 -1.681080e-12 -1.471675e-12) (1.457626e-11 6.477914e-10 -4.965087e-10))
44.849758     	((3.051725e-04 -2.426683e-07 -1.804080e-07) (1.004999e-04 -2.022154e-08 -1.599743e-08)) ((-5.625579e-12 -1.671425e-12 -1.495221e-12) (1.097846e-11 4.204619e-10 -3.158484e-10))
46.560781     	((3.040020e-04 -3.110591e-07 -2.490549e-07) (1.000331e-04 -2.295651e-08 -1.724644e-08)) ((-5.365607e-12 -2.063122e-12 -1.604411e-12) (9.219190e-12 2.316551e-10 -1.989483e-10))
48.274425     	((3.030464e-04 -3.629039e-07 -2.844733e-07) (9.960293e-05 -2.613832e-08 -1.992621e-08)) ((-5.227112e-12 -1.640536e-12 -1.774391e-12) (5.770450e-12 1.317492e-10 -1.118856e-10))
49.99075      	((3.020522e-04 -4.291271e-07 -3.425895e-07) (9.920508e-05 -3.051505e-08 -2.327472e-08)) ((-4.972817e-12 -2.004977e-12 -1.864254e-12) (1.281339e-12 7.571031e-11 -3.581756e-11))
51.710049     	((3.010213e-04 -4.695135e-07 -3.923027e-07) (9.883043e-05 -3.494080e-08 -2.736235e-08)) ((-4.627149e-12 -2.367436e-12 -1.866432e-12) (-1.573038e-12 2.178804e-11 4.076493e-11))
53.432505     	((2.997489e-04 -5.174414e-07 -4.259003e-07) (9.846422e-05 -3.913334e-08 -3.141179e-08)) ((-4.361766e-12 -2.570545e-12 -1.958365e-12) (-4.516986e-12 -4.038969e-11 1.130743e-10))
55.158013     	((2.987105e-04 -5.851813e-07 -4.658779e-07) (9.811082e-05 -4.431825e-08 -3.542588e-08)) ((-4.103073e-12 -2.856793e-12 -2.047179e-12) (-4.000545e-12 -1.004216e-10 1.776508e-10))
56.886482     	((2.976195e-04 -6.597609e-07 -5.271963e-07) (9.776907e-05 -5.064134e-08 -4.039818e-08)) ((-3.767282e-12 -3.199456e-12 -2.039523e-12) (1.120129e-12 -1.488984e-10 2.499453e-10))
58.617902     	((2.967080e-04 -7.366910e-07 -5.908061e-07) (9.744113e-05 -5.761893e-08 -4.639088e-08)) ((-3.549535e-12 -3.376998e-12 -1.953366e-12) (6.736235e-12 -1.936106e-10 3.248192e-10))
60.352266     	((2.959403e-04 -8.240923e-07 -6.582854e-07) (9.713404e-05 -6.521053e-08 -5.317904e-08)) ((-3.351117e-12 -3.729770e-12 -1.781998e-12) (1.056643e-11 -2.321171e-10 3.927130e-10))
62.089634     	((2.950819e-04 -9.252179e-07 -7.355727e-07) (9.684229e-05 -7.356715e-08 -6.048614e-08)) ((-3.348514e-12 -4.228299e-12 -1.808282e-12) (1.378928e-11 -2.701720e-10 4.654517e-10))
63.830038     	((2.942187e-04 -1.041276e-06 -8.260527e-07) (9.656036e-05 -8.341738e-08 -6.859293e-08)) ((-3.420616e-12 -4.795929e-12 -1.934428e-12) (1.649257e-11 -3.146165e-10 5.289602e-10))
65.573392     	((2.933970e-04 -1.157428e-06 -9.244302e-07) (9.628479e-05 -9.450637e-08 -7.772737e-08)) ((-3.462703e-12 -5.400004e-12 -2.060741e-12) (1.838926e-11 -3.654230e-10 5.761494e-10))
67.319541     	((2.926173e-04 -1.292786e-06 -1.028551e-06) (9.601402e-05 -1.064908e-07 -8.782134e-08)) ((-3.515418e-12 -6.111480e-12 -2.150565e-12) (2.002742e-11 -4.187741e-10 6.244525e-10))
69.068374     	((2.917871e-04 -1.462747e-06 -1.162629e-06) (9.574731e-05 -1.205269e-07 -9.927534e-08)) ((-3.622949e-12 -7.074602e-12 -2.257292e-12) (2.054551e-11 -4.714034e-10 6.716040e-10))
70.819822     	((2.909475e-04 -1.640515e-06 -1.308184e-06) (9.548779e-05 -1.360428e-07 -1.118700e-07)) ((-3.747628e-12 -8.163864e-12 -2.310209e-12) (2.067545e-11 -5.282325e-10 7.382293e-10))
72.573628     	((2.901433e-04 -1.856334e-06 -1.483074e-06) (9.523947e-05 -1.534047e-07 -1.261530e-07)) ((-3.780271e-12 -9.418029e-12 -2.392724e-12) (2.124296e-11 -5.906483e-10 8.609948e-10))
74.329718     	((2.894088e-04 -2.099203e-06 -1.687954e-06) (9.500273e-05 -1.727612e-07 -1.422463e-07)) ((-3.754875e-12 -1.068719e-11 -2.495222e-12) (1.951554e-11 -6.899069e-10 1.055238e-09))
76.088014     	((2.887424e-04 -2.387717e-06 -1.924524e-06) (9.477690e-05 -1.942951e-07 -1.602383e-07)) ((-3.767899e-12 -1.217697e-11 -2.657896e-12) (1.677297e-11 -8.506376e-10 1.312725e-09))
77.848431     	((2.880893e-04 -2.705348e-06 -2.193722e-06) (9.456042e-05 -2.184965e-07 -1.804366e-07)) ((-3.576320e-12 -1.368480e-11 -2.860202e-12) (1.574505e-11 -1.086567e-09 1.639107e-09))
79.610887     	((2.875059e-04 -3.039516e-06 -2.473594e-06) (9.435376e-05 -2.447369e-07 -2.022328e-07)) ((-3.303708e-12 -1.520901e-11 -3.105968e-12) (1.627481e-11 -1.388048e-09 2.040936e-09))
81.375307     	((2.869119e-04 -3.395042e-06 -2.770993e-06) (9.415566e-05 -2.728933e-07 -2.255355e-07)) ((-3.003863e-12 -1.686421e-11 -3.405313e-12) (1.644201e-11 -1.749269e-09 2.498422e-09))
83.141619     	((2.862852e-04 -3.759573e-06 -3.078679e-06) (9.396367e-05 -3.025858e-07 -2.500039e-07)) ((-2.624153e-12 -1.870715e-11 -3.706970e-12) (1.732385e-11 -2.162455e-09 2.992621e-09))
84.909743     	((2.856714e-04 -4.168136e-06 -3.424766e-06) (9.377766e-05 -3.343057e-07 -2.761465e-07)) ((-2.248681e-12 -2.087016e-11 -4.003138e-12) (1.789178e-11 -2.629840e-09 3.529957e-09))
86.679585     	((2.850618e-04 -4.622160e-06 -3.812153e-06) (9.359677e-05 -3.691596e-07 -3.052580e-07)) ((-1.832755e-12 -2.324022e-11 -4.319197e-12) (1.941289e-11 -3.140231e-09 4.115562e-09))
88.45104      	((2.844778e-04 -5.122227e-06 -4.242904e-06) (9.342078e-05 -4.076739e-07 -3.378753e-07)) ((-1.353291e-12 -2.573586e-11 -4.644851e-12) (2.273250e-11 -3.685979e-09 4.748620e-09))
90.224004     	((2.839463e-04 -5.668318e-06 -4.701424e-06) (9.325049e-05 -4.503064e-07 -3.739340e-07)) ((-9.288079e-13 -2.828549e-11 -4.981683e-12) (2.641645e-11 -4.259097e-09 5.419699e-09))
91.998374     	((2.834434e-04 -6.245294e-06 -5.187791e-06) (9.308560e-05 -4.969670e-07 -4.132060e-07)) ((-5.780417e-13 -3.093215e-11 -5.321321e-12) (2.927698e-11 -4.855232e-09 6.121795e-09))
93.774049     	((2.829861e-04 -6.852565e-06 -5.701810e-06) (9.292659e-05 -5.473708e-07 -4.557285e-07)) ((-3.865514e-13 -3.379619e-11 -5.661150e-12) (3.163106e-11 -5.467578e-09 6.847189e-09))
95.550939     	((2.825745e-04 -7.502325e-06 -6.238415e-06) (9.277439e-05 -6.017698e-07 -5.013573e-07)) ((-2.079963e-13 -3.671163e-11 -6.030240e-12) (3.385862e-11 -6.093802e-09 7.593242e-09))
97.328945     	((2.822052e-04 -8.196235e-06 -6.820029e-06) (9.262985e-05 -6.606246e-07 -5.505615e-07)) ((-2.221865e-14 -4.001476e-11 -6.424807e-12) (3.523286e-11 -6.739686e-09 8.347720e-09))
99.107971     	((2.818454e-04 -8.966835e-06 -7.453822e-06) (9.249251e-05 -7.250986e-07 -6.041207e-07)) ((2.291895e-13 -4.372131e-11 -6.931891e-12) (3.866910e-11 -7.408907e-09 9.115095e-09))
100.887932    	((2.815247e-04 -9.791659e-06 -8.125290e-06) (9.236258e-05 -7.954796e-07 -6.619958e-07)) ((1.646561e-13 -4.748599e-11 -7.566605e-12) (4.217222e-11 -8.107660e-09 9.909877e-09))
102.66874     	((2.812200e-04 -1.068384e-05 -8.859622e-06) (9.223985e-05 -8.718525e-07 -7.247940e-07)) ((8.947081e-14 -5.159449e-11 -8.292285e-12) (4.423202e-11 -8.842059e-09 1.074944e-08))
104.450298    	((2.809166e-04 -1.166312e-05 -9.660234e-06) (9.212322e-05 -9.551017e-07 -7.933006e-07)) ((2.804904e-13 -5.614233e-11 -9.104905e-12) (4.683456e-11 -9.613562e-09 1.164765e-08))
106.232501    	((2.806303e-04 -1.273068e-05 -1.052900e-05) (9.201268e-05 -1.046115e-06 -8.678099e-07)) ((5.623557e-13 -6.106793e-11 -1.002954e-11) (5.121668e-11 -1.042190e-08 1.259747e-08))
108.015245    	((2.803600e-04 -1.390135e-05 -1.149203e-05) (9.190837e-05 -1.146036e-06 -9.497096e-07)) ((1.109998e-12 -6.670073e-11 -1.103364e-11) (5.508072e-11 -1.126233e-08 1.359089e-08))
109.79842     	((2.801134e-04 -1.521308e-05 -1.255451e-05) (9.181051e-05 -1.257002e-06 -1.040611e-06)) ((1.901790e-12 -7.299166e-11 -1.210360e-11) (5.956941e-11 -1.212255e-08 1.463087e-08))
111.581913    	((2.798810e-04 -1.666696e-05 -1.374773e-05) (9.171918e-05 -1.380724e-06 -1.142077e-06)) ((2.983067e-12 -8.034259e-11 -1.322700e-11) (6.693458e-11 -1.301716e-08 1.571943e-08))
113.365598    	((2.796734e-04 -1.825941e-05 -1.505619e-05) (9.163501e-05 -1.517801e-06 -1.254793e-06)) ((4.290146e-12 -8.841755e-11 -1.417401e-11) (7.452601e-11 -1.396271e-08 1.686254e-08))
115.149343    	((2.794727e-04 -2.001879e-05 -1.650748e-05) (9.155742e-05 -1.669247e-06 -1.379688e-06)) ((5.852782e-12 -9.738130e-11 -1.499906e-11) (8.245938e-11 -1.497370e-08 1.809058e-08))
116.933002    	((2.792832e-04 -2.197752e-05 -1.812824e-05) (9.148514e-05 -1.837253e-06 -1.518609e-06)) ((7.528706e-12 -1.073347e-10 -1.561946e-11) (8.975256e-11 -1.606741e-08 1.942426e-08))
118.716419    	((2.791083e-04 -2.414020e-05 -1.992445e-05) (9.141661e-05 -2.024125e-06 -1.672703e-06)) ((9.290944e-12 -1.181251e-10 -1.610580e-11) (9.301825e-11 -1.728139e-08 2.085152e-08))
120.499423    	((2.789775e-04 -2.651281e-05 -2.190042e-05) (9.135165e-05 -2.231238e-06 -1.842965e-06)) ((1.127977e-11 -1.296810e-10 -1.719943e-11) (8.846013e-11 -1.863957e-08 2.237513e-08))
122.281836    	((2.788858e-04 -2.912503e-05 -2.408286e-05) (9.129118e-05 -2.460140e-06 -2.031722e-06)) ((1.369714e-11 -1.422701e-10 -1.931487e-11) (8.560848e-11 -2.011093e-08 2.402951e-08))
124.063466    	((2.788597e-04 -3.196768e-05 -2.647877e-05) (9.123720e-05 -2.711608e-06 -2.240532e-06)) ((1.689492e-11 -1.560847e-10 -2.190116e-11) (8.725103e-11 -2.171239e-08 2.584331e-08))
125.844106    	((2.788986e-04 -3.506821e-05 -2.909647e-05) (9.119224e-05 -2.985934e-06 -2.469620e-06)) ((2.113325e-11 -1.712398e-10 -2.419339e-11) (9.752710e-11 -2.351330e-08 2.788876e-08))
127.623538    	((2.790142e-04 -3.846691e-05 -3.196428e-05) (9.115615e-05 -3.285361e-06 -2.720505e-06)) ((2.625680e-11 -1.879853e-10 -2.615614e-11) (1.258129e-10 -2.556347e-08 3.022172e-08))
129.401531    	((2.792249e-04 -4.218593e-05 -3.507676e-05) (9.112824e-05 -3.613330e-06 -2.994681e-06)) ((3.228717e-11 -2.062322e-10 -2.834556e-11) (1.603394e-10 -2.784385e-08 3.282437e-08))
131.17785     	((2.795708e-04 -4.625260e-05 -3.848159e-05) (9.111049e-05 -3.973098e-06 -3.294841e-06)) ((3.961484e-11 -2.266231e-10 -3.058740e-11) (1.768867e-10 -3.032393e-08 3.566524e-08))
132.952247    	((2.800700e-04 -5.068372e-05 -4.220335e-05) (9.110715e-05 -4.366287e-06 -3.623779e-06)) ((4.827135e-11 -2.490999e-10 -3.211874e-11) (1.665074e-10 -3.301835e-08 3.876332e-08))
134.724467    	((2.807520e-04 -5.547828e-05 -4.624490e-05) (9.112318e-05 -4.794498e-06 -3.982632e-06)) ((5.828152e-11 -2.732998e-10 -3.262189e-11) (1.488490e-10 -3.596901e-08 4.214251e-08))
136.494245    	((2.815767e-04 -6.072102e-05 -5.061922e-05) (9.115701e-05 -5.259825e-06 -4.371828e-06)) ((6.985446e-11 -2.986840e-10 -3.307889e-11) (1.549784e-10 -3.927477e-08 4.594221e-08))
138.261292    	((2.826030e-04 -6.645106e-05 -5.540169e-05) (9.120680e-05 -5.767442e-06 -4.795649e-06)) ((8.352915e-11 -3.262043e-10 -3.371786e-11) (1.586328e-10 -4.294108e-08 5.022481e-08))
140.025279    	((2.838670e-04 -7.273094e-05 -6.060131e-05) (9.127700e-05 -6.325052e-06 -5.259736e-06)) ((1.002026e-10 -3.559328e-10 -3.438363e-11) (1.462911e-10 -4.681728e-08 5.485727e-08))
141.785857    	((2.854722e-04 -7.953881e-05 -6.627147e-05) (9.137644e-05 -6.938606e-06 -5.769774e-06)) ((1.200605e-10 -3.890370e-10 -3.490067e-11) (1.665613e-10 -5.078324e-08 5.969714e-08))
143.542659    	((2.874543e-04 -8.692709e-05 -7.241145e-05) (9.151237e-05 -7.612418e-06 -6.330305e-06)) ((1.433048e-10 -4.245163e-10 -3.563318e-11) (2.249214e-10 -5.478738e-08 6.463806e-08))
