# Forces      
# CofR        : (0.000000e+00 0.000000e+00 0.000000e+00)
# Time        forces(pressure viscous)	moments(pressure viscous)
0             	((0.000000e+00 0.000000e+00 0.000000e+00) (0.000000e+00 0.000000e+00 0.000000e+00)) ((0.000000e+00 0.000000e+00 0.000000e+00) (0.000000e+00 0.000000e+00 0.000000e+00))
0.012         	((-5.381899e-11 1.426750e-08 2.945914e-11) (4.597493e-14 3.623537e-10 -1.197197e-12)) ((-3.776564e-15 2.669800e-15 -3.245557e-10) (1.546118e-15 -2.944888e-14 -4.417620e-07))
0.0264        	((-1.765984e-10 2.092218e-09 3.125625e-13) (-2.124854e-13 5.351760e-10 -2.165529e-12)) ((2.773316e-15 -2.844920e-14 -1.489028e-10) (1.375898e-16 -8.159470e-14 -4.046621e-07))
0.04368       	((-1.129022e-10 6.653851e-09 1.059890e-10) (-5.762801e-13 5.642156e-10 -3.101832e-12)) ((-5.524683e-15 -3.451544e-14 -8.123891e-11) (-1.079429e-15 -1.469421e-13 -3.665160e-07))
0.064416      	((-2.020501e-10 -9.286301e-10 -9.320699e-11) (-1.753893e-12 4.875343e-10 -5.099448e-12)) ((1.955031e-15 -1.843885e-14 -4.379738e-11) (-9.383458e-15 -2.300714e-13 -3.281729e-07))
0.0892992     	((1.473604e-10 2.943840e-09 8.155662e-11) (-2.358369e-12 4.056816e-10 -7.796875e-12)) ((-8.230464e-15 -4.757371e-14 -3.290296e-11) (-2.554322e-14 -3.343462e-13 -2.907613e-07))
0.119159      	((-7.676992e-11 -5.266422e-10 1.713792e-11) (-2.665520e-12 3.306290e-10 -9.244196e-12)) ((9.870367e-16 -3.469794e-14 -2.464584e-11) (-2.966162e-14 -3.895594e-13 -2.554450e-07))
0.154991      	((3.833638e-11 1.463148e-09 -2.538024e-11) (-3.657938e-12 2.997892e-10 -9.575164e-12)) ((-3.967637e-15 -2.668409e-14 -2.017432e-11) (-3.521187e-14 -4.087719e-13 -2.230416e-07))
0.197989      	((-3.530821e-11 4.753313e-10 -7.655496e-13) (-3.427770e-12 2.618458e-10 -9.501626e-12)) ((-8.069172e-15 -2.268806e-14 -1.654863e-11) (-4.414368e-14 -4.145464e-13 -1.943180e-07))
0.249587      	((5.649426e-11 1.155183e-09 3.355396e-11) (-2.955336e-12 2.338314e-10 -9.738729e-12)) ((-5.705207e-15 -2.445606e-14 -1.363887e-11) (-5.412762e-14 -4.034449e-13 -1.696847e-07))
0.311504      	((-5.451519e-11 6.730757e-10 1.682121e-11) (-1.720935e-12 2.160784e-10 -1.075569e-11)) ((-3.693870e-15 -1.630065e-14 -1.110847e-11) (-5.410978e-14 -3.916724e-13 -1.490779e-07))
0.385805      	((-3.413601e-11 5.612662e-10 -5.512211e-12) (-6.998772e-13 2.056868e-10 -1.152466e-11)) ((-1.175949e-15 -6.431378e-15 -9.162394e-12) (-2.171970e-14 -3.773700e-13 -1.320533e-07))
0.474966      	((-1.520399e-10 5.411213e-10 1.189117e-11) (-1.870909e-12 2.006906e-10 -1.176145e-11)) ((8.839299e-17 -3.619669e-15 -7.843162e-12) (2.417852e-15 -3.542094e-13 -1.179442e-07))
0.581959      	((-1.338578e-10 3.970456e-10 1.916450e-11) (-2.342713e-12 1.824329e-10 -9.737640e-12)) ((1.828525e-15 4.522909e-15 -6.653957e-12) (-9.846343e-15 -2.473411e-13 -1.060655e-07))
0.710351      	((-2.058741e-10 3.099615e-10 -1.160457e-11) (-5.000030e-12 1.534492e-10 -5.623797e-12)) ((4.388844e-15 9.917597e-15 -5.504018e-12) (-1.600321e-14 -5.666358e-14 -9.585367e-08))
0.864421      	((-1.810562e-10 6.039158e-10 -2.764672e-11) (-1.036912e-11 1.506016e-10 -1.947776e-12)) ((9.104830e-15 1.961510e-14 -4.716070e-12) (3.300721e-14 1.584717e-13 -8.690908e-08))
1.049306      	((-1.247599e-10 8.757537e-10 -2.576430e-11) (-7.162748e-12 1.409495e-10 -2.072595e-13)) ((6.687885e-15 2.457428e-14 -4.237094e-12) (-9.173577e-17 2.223111e-13 -7.896359e-08))
1.271167      	((-1.851400e-10 8.714856e-10 5.204905e-12) (-5.164269e-12 1.210483e-10 2.629937e-12)) ((3.656899e-15 2.306522e-14 -3.866784e-12) (-1.912676e-13 2.055593e-13 -7.183397e-08))
1.5374        	((-1.390157e-10 9.795360e-10 -2.466112e-11) (1.647775e-12 1.265167e-10 6.154317e-12)) ((1.484217e-15 3.400116e-14 -3.560624e-12) (-4.120086e-13 1.246789e-13 -6.540235e-08))
1.85688       	((-2.289254e-10 1.241986e-09 -2.778408e-11) (1.614524e-11 1.437078e-10 6.894938e-12)) ((5.037162e-15 3.811698e-14 -3.312791e-12) (-6.970932e-13 -1.967720e-13 -5.960360e-08))
2.240256      	((-1.858990e-10 8.810309e-10 -2.063587e-12) (3.340630e-11 1.368201e-10 5.212249e-12)) ((4.303941e-15 4.021543e-14 -3.204727e-12) (-1.087677e-12 -6.948184e-13 -5.440527e-08))
2.700307      	((-1.774779e-10 5.713701e-10 1.523685e-12) (5.054066e-11 1.004228e-10 6.142307e-12)) ((3.538971e-15 4.155678e-14 -3.089443e-12) (-1.640347e-12 -1.270175e-12 -4.978354e-08))
3.252369      	((-1.384638e-10 3.945026e-10 1.139024e-11) (7.572481e-11 5.904193e-11 9.166691e-12)) ((2.904550e-15 4.008489e-14 -2.906240e-12) (-2.195137e-12 -1.772645e-12 -4.570411e-08))
3.914842      	((-4.452879e-12 2.179845e-10 3.059118e-11) (1.124468e-10 3.164988e-11 1.001296e-11)) ((1.108179e-15 3.287374e-14 -2.652420e-12) (-2.534969e-12 -2.235270e-12 -4.211515e-08))
4.709811      	((-4.400812e-11 1.758385e-10 2.474728e-11) (1.395941e-10 -1.068921e-11 6.178251e-12)) ((-4.894019e-15 2.434219e-14 -2.381179e-12) (-2.626830e-12 -2.503863e-12 -3.895105e-08))
5.663773      	((7.442684e-11 1.105959e-11 1.388316e-11) (1.530071e-10 -5.302034e-11 4.883503e-13)) ((-1.277920e-14 1.520484e-14 -2.133858e-12) (-2.639769e-12 -2.676939e-12 -3.613782e-08))
6.808528      	((1.330454e-10 -8.235466e-11 7.738441e-13) (1.578956e-10 -7.040561e-11 -4.450702e-12)) ((-1.543523e-14 6.178497e-15 -1.914440e-12) (-2.452018e-12 -2.531359e-12 -3.360694e-08))
8.182233      	((7.308164e-11 -8.604360e-11 1.015581e-12) (1.482308e-10 -6.067600e-11 -5.525407e-12)) ((-1.284448e-14 9.599442e-16 -1.724386e-12) (-2.051524e-12 -2.022147e-12 -3.130679e-08))
9.83068       	((6.822915e-11 -6.664041e-11 -9.849963e-12) (1.159219e-10 -4.111831e-11 -4.652851e-12)) ((-1.406289e-14 -6.570877e-15 -1.570317e-12) (-1.585106e-12 -1.581868e-12 -2.920089e-08))
11.808816     	((2.669708e-11 3.053103e-11 -2.889927e-12) (8.206720e-11 -1.630778e-11 -4.416666e-12)) ((-1.290169e-14 -1.080489e-14 -1.443922e-12) (-1.140678e-12 -1.200165e-12 -2.726421e-08))
14.182579     	((-3.956314e-11 -1.458707e-12 -5.098077e-12) (5.206616e-11 -6.860211e-12 -6.207402e-12)) ((-1.073500e-14 -1.654744e-14 -1.345094e-12) (-7.881538e-13 -9.649868e-13 -2.547942e-08))
17.031095     	((-1.979040e-11 2.209607e-11 -9.198054e-12) (3.193103e-11 -6.599019e-13 -6.761559e-12)) ((-7.722543e-15 -1.900049e-14 -1.266579e-12) (-5.059459e-13 -6.595542e-13 -2.383718e-08))
20.449314     	((-7.960550e-12 3.472793e-11 -4.158385e-12) (2.241911e-11 1.286985e-12 -3.555508e-12)) ((-4.220771e-15 -1.854294e-14 -1.199209e-12) (-3.209473e-13 -3.851067e-13 -2.233211e-08))
24.551176     	((4.487691e-12 5.847279e-11 -4.494856e-12) (1.907800e-11 -1.222422e-12 -9.205424e-14)) ((-3.074863e-15 -1.794313e-14 -1.138170e-12) (-2.255474e-13 -2.674405e-13 -2.095744e-08))
29.473411     	((1.620745e-11 6.539999e-11 -9.900909e-12) (1.600329e-11 -4.229076e-12 3.601215e-13)) ((-2.720855e-15 -1.609994e-14 -1.086836e-12) (-1.714352e-13 -2.373909e-13 -1.970491e-08))
35.380094     	((-3.726566e-12 6.950186e-11 -2.524746e-12) (1.566267e-11 -6.776237e-12 -4.748271e-13)) ((-2.172308e-15 -1.628087e-14 -1.043285e-12) (-1.504283e-13 -2.985672e-13 -1.856381e-08))
42.468112     	((-1.578574e-11 6.874002e-11 -6.234044e-12) (2.018080e-11 -9.081790e-12 -9.683861e-13)) ((-2.559678e-15 -1.596664e-14 -1.009161e-12) (-1.567125e-13 -3.616373e-13 -1.752404e-08))
50.973735     	((-1.867208e-11 6.786097e-11 9.581290e-13) (2.571927e-11 -1.299207e-11 -1.682361e-12)) ((-2.614972e-15 -1.534860e-14 -9.787136e-13) (-1.526019e-13 -3.947605e-13 -1.657664e-08))
61.180482     	((-8.863510e-12 7.662760e-11 -7.971292e-12) (2.662953e-11 -1.802507e-11 -2.035139e-12)) ((-1.945247e-15 -1.461499e-14 -9.534872e-13) (-1.700924e-13 -4.001917e-13 -1.571363e-08))
73.428578     	((-2.500122e-12 7.972796e-11 -4.434809e-12) (2.948005e-11 -2.677415e-11 -2.256214e-12)) ((-1.390682e-15 -1.295429e-14 -9.336697e-13) (-2.184975e-13 -4.231416e-13 -1.492860e-08))
88.126294     	((4.581709e-12 7.604526e-11 -5.156762e-12) (3.195223e-11 -2.872831e-11 -2.198606e-12)) ((-1.253954e-15 -1.129201e-14 -9.140323e-13) (-2.765553e-13 -4.502524e-13 -1.421540e-08))
105.763553    	((-3.846634e-12 7.747005e-11 -1.877154e-12) (3.412267e-11 -3.201509e-11 -1.424569e-12)) ((-1.047871e-15 -1.025038e-14 -8.969974e-13) (-3.300252e-13 -4.675584e-13 -1.356853e-08))
126.928263    	((6.223169e-13 6.447056e-11 -1.904122e-12) (3.574711e-11 -3.897516e-11 -9.546962e-13)) ((-1.285614e-15 -8.786463e-15 -8.833086e-13) (-3.655378e-13 -4.683302e-13 -1.298285e-08))
152.325916    	((-9.576132e-12 4.590048e-11 -5.047371e-14) (3.344911e-11 -4.507989e-11 -9.244325e-13)) ((-9.281903e-16 -7.551434e-15 -8.713119e-13) (-3.628963e-13 -4.504368e-13 -1.245276e-08))
182.803099    	((-1.838902e-11 2.667892e-11 8.757927e-13) (2.983599e-11 -4.642629e-11 -1.433786e-12)) ((-5.379493e-16 -6.501304e-15 -8.582597e-13) (-3.420421e-13 -4.153995e-13 -1.197236e-08))
219.375719    	((-1.851324e-11 1.851268e-11 1.182545e-12) (2.692523e-11 -4.497510e-11 -1.293500e-12)) ((-5.974183e-16 -5.987546e-15 -8.447167e-13) (-3.478057e-13 -3.701385e-13 -1.153649e-08))
263.262863    	((-8.243565e-12 8.996423e-12 1.987787e-12) (2.214560e-11 -4.323057e-11 -7.099147e-13)) ((-1.172791e-15 -6.122560e-15 -8.312466e-13) (-3.708627e-13 -3.095709e-13 -1.114064e-08))
315.927436    	((1.522095e-12 6.824140e-12 1.784903e-12) (1.865372e-11 -4.365713e-11 -1.913919e-13)) ((-2.089355e-15 -6.253282e-15 -8.170508e-13) (-3.658187e-13 -2.571250e-13 -1.078120e-08))
379.124923    	((1.372531e-11 1.120203e-11 1.585107e-12) (1.529182e-11 -4.482068e-11 2.472622e-13)) ((-2.720714e-15 -6.093339e-15 -8.037381e-13) (-3.500950e-13 -2.207540e-13 -1.045520e-08))
454.961908    	((1.034523e-11 1.718295e-11 4.035144e-13) (1.223853e-11 -4.386870e-11 5.981305e-13)) ((-2.966292e-15 -5.923100e-15 -7.920001e-13) (-3.161569e-13 -2.030962e-13 -1.016032e-08))
545.966289    	((9.261241e-12 2.005759e-11 -8.370402e-15) (1.291766e-11 -4.023235e-11 4.860503e-13)) ((-3.036732e-15 -5.830245e-15 -7.815048e-13) (-2.752474e-13 -1.998731e-13 -9.894522e-09))
655.171547    	((1.106738e-12 2.056870e-11 4.037386e-13) (1.434044e-11 -3.680251e-11 7.724141e-13)) ((-2.949919e-15 -5.629811e-15 -7.720079e-13) (-2.504685e-13 -1.952955e-13 -9.655888e-09))
786.217856    	((-2.868871e-13 2.003342e-11 -1.637054e-12) (1.448758e-11 -3.674817e-11 7.976806e-13)) ((-2.827573e-15 -5.632769e-15 -7.635684e-13) (-2.346557e-13 -1.812030e-13 -9.442503e-09))
943.473427    	((8.083734e-13 2.134648e-11 -6.365511e-13) (1.556574e-11 -3.638198e-11 8.703120e-13)) ((-2.719670e-15 -5.544501e-15 -7.561150e-13) (-2.361947e-13 -1.559506e-13 -9.252601e-09))
1132.180113   	((4.674854e-12 2.461451e-11 -2.340651e-12) (1.796649e-11 -3.507269e-11 5.989455e-13)) ((-2.762504e-15 -5.388135e-15 -7.499452e-13) (-2.315187e-13 -1.394761e-13 -9.084469e-09))
1353.129171   	((5.874229e-12 2.667650e-11 -2.403412e-12) (1.982978e-11 -3.423831e-11 3.543868e-13)) ((-2.709170e-15 -5.333425e-15 -7.445017e-13) (-2.205093e-13 -1.274320e-13 -8.936931e-09))
1606.322807   	((8.048780e-12 3.026159e-11 3.630939e-13) (2.114683e-11 -3.304111e-11 2.045122e-13)) ((-2.852899e-15 -5.363469e-15 -7.395137e-13) (-2.057131e-13 -1.158427e-13 -8.808496e-09))
1891.763709   	((1.239692e-11 3.410849e-11 -9.314644e-13) (2.221702e-11 -3.166445e-11 1.576811e-13)) ((-2.948908e-15 -5.405322e-15 -7.352460e-13) (-1.923892e-13 -1.044240e-13 -8.697473e-09))
2209.453033   	((1.754866e-11 3.830967e-11 -3.371618e-12) (2.275808e-11 -3.024189e-11 -4.968574e-14)) ((-2.976298e-15 -5.465089e-15 -7.314509e-13) (-1.777262e-13 -9.612280e-14 -8.601945e-09))
2531.950791   	((2.039716e-11 4.157394e-11 -2.519900e-12) (2.289292e-11 -2.836725e-11 -3.415853e-13)) ((-3.003408e-15 -5.522887e-15 -7.280562e-13) (-1.568532e-13 -8.897304e-14 -8.520652e-09))
2854.463505   	((2.144471e-11 4.246508e-11 -2.007358e-12) (2.276465e-11 -2.629567e-11 -5.807608e-13)) ((-2.955172e-15 -5.580984e-15 -7.251044e-13) (-1.346525e-13 -8.268179e-14 -8.451789e-09))
3176.991385   	((2.087161e-11 4.273752e-11 -2.492847e-12) (2.222089e-11 -2.449463e-11 -7.630145e-13)) ((-2.769743e-15 -5.561164e-15 -7.226976e-13) (-1.107655e-13 -7.883796e-14 -8.393612e-09))
3499.534426   	((2.090386e-11 4.337405e-11 -2.429958e-12) (2.148519e-11 -2.308708e-11 -8.455676e-13)) ((-2.595676e-15 -5.560359e-15 -7.206492e-13) (-9.185593e-14 -7.801389e-14 -8.344334e-09))
3822.092504   	((2.100285e-11 4.451184e-11 -1.811075e-12) (2.085214e-11 -2.227807e-11 -9.304506e-13)) ((-2.480019e-15 -5.584786e-15 -7.189514e-13) (-7.669848e-14 -7.885547e-14 -8.302518e-09))
4144.664921   	((2.041338e-11 4.568730e-11 -2.179429e-12) (2.015494e-11 -2.182663e-11 -1.016817e-12)) ((-2.451732e-15 -5.668190e-15 -7.174892e-13) (-6.330620e-14 -7.983821e-14 -8.266914e-09))
4467.2508     	((1.979570e-11 4.649114e-11 -2.414103e-12) (1.941907e-11 -2.142864e-11 -1.096818e-12)) ((-2.434471e-15 -5.724882e-15 -7.162491e-13) (-5.296138e-14 -8.371139e-14 -8.236545e-09))
4789.849329   	((1.916805e-11 4.657337e-11 -2.431472e-12) (1.874867e-11 -2.117917e-11 -1.164486e-12)) ((-2.405565e-15 -5.764761e-15 -7.151997e-13) (-4.355540e-14 -8.893759e-14 -8.210549e-09))
5112.459753   	((1.840241e-11 4.630467e-11 -2.503332e-12) (1.816979e-11 -2.100104e-11 -1.205153e-12)) ((-2.360294e-15 -5.802243e-15 -7.142644e-13) (-3.505198e-14 -9.523886e-14 -8.188234e-09))
5435.081096   	((1.763737e-11 4.593667e-11 -2.632684e-12) (1.769310e-11 -2.089251e-11 -1.204767e-12)) ((-2.301587e-15 -5.826704e-15 -7.134676e-13) (-2.863680e-14 -1.015332e-13 -8.169022e-09))
5757.712319   	((1.704889e-11 4.575062e-11 -2.640047e-12) (1.736848e-11 -2.073801e-11 -1.163479e-12)) ((-2.245946e-15 -5.846888e-15 -7.127558e-13) (-2.378630e-14 -1.065772e-13 -8.152450e-09))
6080.352412   	((1.636851e-11 4.591529e-11 -2.570674e-12) (1.714365e-11 -2.058938e-11 -1.094332e-12)) ((-2.194949e-15 -5.862819e-15 -7.121320e-13) (-2.033196e-14 -1.107952e-13 -8.138130e-09))
6403.000427   	((1.599974e-11 4.608871e-11 -2.741611e-12) (1.697601e-11 -2.045625e-11 -1.026141e-12)) ((-2.152103e-15 -5.872786e-15 -7.116095e-13) (-1.772732e-14 -1.146534e-13 -8.125736e-09))
6725.655677   	((1.571268e-11 4.617454e-11 -2.790492e-12) (1.684366e-11 -2.037495e-11 -9.777454e-13)) ((-2.111989e-15 -5.879164e-15 -7.111603e-13) (-1.564799e-14 -1.180217e-13 -8.114991e-09))
7048.317468   	((1.558289e-11 4.612443e-11 -2.933844e-12) (1.673908e-11 -2.033098e-11 -9.464885e-13)) ((-2.079731e-15 -5.884716e-15 -7.107756e-13) (-1.359963e-14 -1.203277e-13 -8.105662e-09))
7370.985111   	((1.542922e-11 4.612416e-11 -2.902474e-12) (1.665147e-11 -2.029913e-11 -9.298346e-13)) ((-2.049251e-15 -5.885114e-15 -7.104467e-13) (-1.129224e-14 -1.213118e-13 -8.097553e-09))
7693.65798    	((1.533218e-11 4.608498e-11 -2.867090e-12) (1.657283e-11 -2.025833e-11 -9.262661e-13)) ((-2.022469e-15 -5.887531e-15 -7.101700e-13) (-9.024379e-15 -1.217806e-13 -8.090495e-09))
