# Forces      
# CofR        : (0.000000e+00 0.000000e+00 0.000000e+00)
# Time        forces(pressure viscous)	moments(pressure viscous)
0             	((0.000000e+00 0.000000e+00 0.000000e+00) (-1.730787e-14 -7.920098e-15 2.524734e-04)) ((0.000000e+00 0.000000e+00 0.000000e+00) (4.455911e-16 9.770369e-11 6.227675e-18))
0.012         	((-7.582898e-09 -3.827149e-08 7.339105e-02) (-1.956969e-10 -2.305779e-10 2.895578e-04)) ((2.965170e-11 1.945541e-08 2.595787e-13) (-1.682358e-12 2.834206e-10 2.057110e-14))
0.0264        	((-1.310976e-07 1.490468e-07 -5.453699e-03) (-4.756616e-10 -1.994514e-10 2.950408e-04)) ((-3.037843e-11 -1.283638e-09 2.755559e-12) (-2.059714e-12 3.760286e-10 1.115914e-13))
0.04368       	((3.195575e-07 -6.805770e-08 -1.515021e-02) (-5.116504e-10 4.320411e-11 2.618382e-04)) ((-1.646131e-10 -3.430161e-09 -5.115936e-12) (4.260041e-12 3.797483e-10 3.373441e-13))
0.064416      	((-1.992865e-07 2.183131e-07 -1.433443e-04) (3.184356e-09 3.447340e-09 2.318387e-04)) ((5.397876e-11 9.775430e-11 3.106730e-12) (-2.772437e-11 4.809983e-10 8.948490e-13))
0.0892992     	((2.221051e-07 3.511720e-09 1.627212e-04) (4.365782e-09 5.264481e-09 2.139689e-04)) ((2.199482e-11 -1.125564e-10 -3.918393e-12) (-2.041086e-11 5.675282e-10 2.724836e-13))
0.119159      	((9.672540e-08 1.763967e-07 -2.428740e-04) (2.330494e-09 4.416506e-09 1.975334e-04)) ((6.830779e-12 -1.447518e-10 1.993754e-12) (1.422150e-11 5.964560e-10 -5.480868e-13))
0.154991      	((-7.102837e-08 -2.554527e-08 -1.247776e-04) (9.479585e-10 3.615221e-09 1.802670e-04)) ((-8.133090e-13 -6.626476e-11 4.937845e-13) (-1.636759e-11 6.062097e-10 -2.585159e-12))
0.197989      	((-7.591160e-08 -1.787132e-08 -2.958392e-05) (3.203517e-10 2.562236e-09 1.630165e-04)) ((4.559989e-12 -1.431331e-11 2.635214e-13) (-4.941794e-11 5.411909e-10 -3.274086e-12))
0.249587      	((-2.198068e-08 -2.772902e-09 4.432270e-06) (1.639194e-10 1.802544e-09 1.463208e-04)) ((3.408580e-12 4.702786e-12 4.170482e-13) (-4.822223e-11 4.332628e-10 -9.161843e-13))
0.311504      	((-6.680776e-09 2.242952e-09 1.981357e-05) (-2.026883e-10 1.105551e-09 1.306701e-04)) ((6.648863e-13 2.313208e-11 5.339296e-14) (-5.277275e-11 3.700575e-10 -5.086280e-15))
0.385805      	((-9.912656e-09 -8.781967e-09 2.837254e-05) (-4.276507e-10 6.321530e-10 1.164628e-04)) ((-4.412689e-14 3.024513e-11 1.239094e-13) (-5.676741e-11 3.369412e-10 -7.631903e-13))
0.474966      	((-1.725632e-08 -8.258252e-09 3.291542e-05) (-8.840874e-10 4.591458e-10 1.039010e-04)) ((2.701144e-14 3.255475e-11 1.017331e-13) (-5.064593e-11 3.123602e-10 -1.247221e-12))
0.581959      	((-1.064723e-08 -9.766279e-09 3.478922e-05) (-1.718417e-09 3.812739e-10 9.285110e-05)) ((-3.246946e-14 3.367149e-11 1.040807e-13) (-3.747496e-11 2.797588e-10 -1.684065e-12))
0.710351      	((-1.171489e-08 -6.778243e-09 3.476826e-05) (-2.293259e-09 3.214615e-10 8.312562e-05)) ((-1.584184e-13 3.527079e-11 9.643724e-14) (-2.368466e-11 2.619013e-10 -2.176158e-12))
0.864421      	((-7.429968e-09 -5.371274e-09 3.353876e-05) (-2.256272e-09 3.027540e-10 7.458769e-05)) ((-1.185986e-13 3.503634e-11 8.101711e-14) (-1.306381e-11 2.493231e-10 -2.297246e-12))
1.049306      	((-4.040578e-09 -3.990842e-09 3.169852e-05) (-1.774670e-09 2.703872e-10 6.708941e-05)) ((-1.763032e-14 3.301836e-11 7.370340e-14) (-7.284726e-12 2.449449e-10 -2.258701e-12))
1.271167      	((-2.969690e-09 -3.192980e-09 2.955245e-05) (-9.171383e-10 2.233136e-10 6.049283e-05)) ((1.121145e-13 3.042371e-11 4.531598e-14) (-4.534312e-12 2.524747e-10 -1.927830e-12))
1.5374        	((-1.917863e-09 -2.115320e-09 2.729625e-05) (-3.345934e-10 1.431158e-10 5.466688e-05)) ((1.533468e-13 2.751777e-11 2.932674e-14) (-2.561789e-12 2.735929e-10 -1.263032e-12))
1.85688       	((-1.216320e-09 -1.222360e-09 2.511087e-05) (9.615539e-11 5.701077e-11 4.950735e-05)) ((1.870925e-13 2.518335e-11 3.035543e-14) (-9.786338e-13 2.997591e-10 -8.315980e-13))
2.240256      	((-2.750913e-09 -1.201607e-09 2.310360e-05) (2.130390e-10 -4.483262e-11 4.493310e-05)) ((1.898307e-13 2.339021e-11 1.493386e-14) (3.186074e-13 2.814498e-10 -3.949943e-13))
2.700307      	((-3.468105e-09 -2.517282e-09 2.128796e-05) (-1.098493e-10 -1.615080e-10 4.087315e-05)) ((2.129583e-13 2.199604e-11 1.175638e-14) (2.627116e-12 1.995876e-10 5.666303e-14))
3.252369      	((-4.035669e-09 -3.524694e-09 1.965838e-05) (-4.580755e-10 -2.602543e-10 3.726075e-05)) ((2.403882e-13 2.044978e-11 1.872933e-14) (6.480901e-12 9.292842e-11 4.121306e-13))
3.914842      	((-5.396382e-09 -5.131838e-09 1.823295e-05) (-7.312393e-10 -3.466033e-10 3.404131e-05)) ((2.361285e-13 1.902320e-11 3.684685e-14) (1.127639e-11 2.060758e-11 6.951606e-13))
4.709811      	((-6.803657e-09 -6.189246e-09 1.701656e-05) (-8.678869e-10 -4.040501e-10 3.117992e-05)) ((2.298681e-13 1.777993e-11 4.451614e-14) (1.676417e-11 1.496660e-11 6.774857e-13))
5.663773      	((-7.009515e-09 -5.779454e-09 1.601851e-05) (-8.450803e-10 -3.943982e-10 2.865003e-05)) ((2.005632e-13 1.651364e-11 5.102778e-14) (1.739024e-11 4.660202e-11 4.320797e-13))
6.808528      	((-6.699996e-09 -6.736406e-09 1.523166e-05) (-7.828266e-10 -3.734273e-10 2.642240e-05)) ((1.518590e-13 1.526789e-11 4.457755e-14) (1.100331e-11 6.422820e-11 1.066726e-13))
8.182233      	((-8.120153e-09 -6.714895e-09 1.466982e-05) (-8.487630e-10 -3.583811e-10 2.446440e-05)) ((1.286103e-13 1.415193e-11 5.413506e-14) (5.967756e-12 5.820840e-11 -8.497893e-14))
9.83068       	((-8.760901e-09 -8.449282e-09 1.433650e-05) (-9.758418e-10 -4.055363e-10 2.274550e-05)) ((1.210150e-13 1.314279e-11 6.345544e-14) (6.106642e-12 5.225953e-11 -2.796588e-13))
11.808816     	((-1.100367e-08 -9.538122e-09 1.423451e-05) (-1.193624e-09 -5.640245e-10 2.124176e-05)) ((1.306045e-13 1.232213e-11 6.554740e-14) (7.009039e-12 6.730632e-11 -4.354742e-13))
14.182579     	((-1.016989e-08 -9.224713e-09 1.435222e-05) (-1.381633e-09 -7.282040e-10 1.993388e-05)) ((1.426749e-13 1.167087e-11 5.855581e-14) (8.200655e-12 8.743882e-11 -4.872960e-13))
17.031095     	((-9.299907e-09 -7.345204e-09 1.468296e-05) (-1.575009e-09 -8.084421e-10 1.880501e-05)) ((1.559756e-13 1.107113e-11 5.880810e-14) (8.706749e-12 1.013553e-10 -6.875350e-13))
20.449314     	((-7.189135e-09 -5.559047e-09 1.519720e-05) (-1.543170e-09 -7.992268e-10 1.784439e-05)) ((1.679858e-13 1.056106e-11 5.705498e-14) (1.337934e-11 1.076689e-10 -6.388682e-13))
24.551176     	((-3.532422e-09 -2.134888e-09 1.588163e-05) (-1.309741e-09 -6.167822e-10 1.703868e-05)) ((1.668195e-13 1.003709e-11 5.062928e-14) (2.111581e-11 1.063435e-10 -7.876104e-13))
29.473411     	((8.839832e-10 2.449249e-09 1.668557e-05) (-8.349924e-10 -2.446077e-10 1.637875e-05)) ((1.274122e-13 9.653477e-12 4.576431e-14) (2.960292e-11 9.762162e-11 -1.016939e-12))
35.306935     	((5.586784e-09 6.971692e-09 1.754080e-05) (-2.009409e-10 2.307350e-10 1.585647e-05)) ((5.597468e-14 9.303895e-12 3.626232e-14) (4.014354e-11 7.445867e-11 -9.716958e-13))
42.045367     	((9.865806e-09 1.111560e-08 1.837584e-05) (3.690664e-10 7.889981e-10 1.545622e-05)) ((-1.840888e-14 9.034985e-12 3.108183e-14) (4.864337e-11 5.218977e-11 -5.047472e-13))
49.681798     	((1.303668e-08 1.426860e-08 1.909542e-05) (9.260478e-10 1.371016e-09 1.514437e-05)) ((-6.948244e-14 8.907815e-12 2.898832e-14) (5.516645e-11 3.424677e-11 -3.077843e-13))
58.212095     	((1.604712e-08 1.806658e-08 1.967545e-05) (1.437150e-09 1.928380e-09 1.488897e-05)) ((-1.021057e-13 8.874079e-12 2.473334e-14) (6.841548e-11 1.040119e-11 -4.127006e-13))
67.156481     	((2.177699e-08 2.401433e-08 2.014661e-05) (2.061839e-09 2.626227e-09 1.467501e-05)) ((-1.483270e-13 8.922018e-12 1.741815e-14) (8.515062e-11 -3.468983e-12 -3.689444e-13))
76.134105     	((2.441993e-08 2.749841e-08 2.042362e-05) (2.689198e-09 3.337822e-09 1.449457e-05)) ((-1.848441e-13 8.970289e-12 1.566507e-14) (9.983835e-11 -1.080005e-11 -2.437417e-13))
85.139573     	((2.550747e-08 2.950056e-08 2.053542e-05) (3.222333e-09 4.018570e-09 1.433752e-05)) ((-2.038597e-13 8.974017e-12 1.715451e-14) (1.112961e-10 -1.889013e-11 -4.660626e-14))
94.157765     	((2.600325e-08 3.095607e-08 2.054296e-05) (3.575928e-09 4.504991e-09 1.419607e-05)) ((-2.221271e-13 8.947124e-12 1.509717e-14) (1.210358e-10 -1.944910e-11 -6.516613e-14))
103.182048    	((2.793065e-08 3.314895e-08 2.051202e-05) (3.930219e-09 4.898940e-09 1.406934e-05)) ((-2.532512e-13 8.962153e-12 1.129622e-14) (1.305909e-10 -2.299223e-11 5.772382e-14))
112.21343     	((3.037908e-08 3.523698e-08 2.044538e-05) (4.372918e-09 5.272672e-09 1.395501e-05)) ((-2.794166e-13 8.982824e-12 8.867761e-15) (1.351391e-10 -2.549678e-11 3.055684e-13))
121.253145    	((3.258527e-08 3.703848e-08 2.035947e-05) (4.836934e-09 5.628653e-09 1.385036e-05)) ((-2.861906e-13 8.965515e-12 4.563601e-15) (1.382369e-10 -3.101497e-11 3.402308e-13))
130.300521    	((3.457182e-08 3.870153e-08 2.027142e-05) (5.133136e-09 5.909928e-09 1.375414e-05)) ((-3.100392e-13 8.959739e-12 8.252321e-15) (1.411016e-10 -3.745103e-11 2.272257e-13))
139.354499    	((3.702276e-08 4.032707e-08 2.020932e-05) (5.450563e-09 6.150066e-09 1.366726e-05)) ((-3.311436e-13 8.957530e-12 1.267681e-14) (1.433542e-10 -4.261184e-11 1.667253e-13))
148.414478    	((3.969485e-08 4.197954e-08 2.015732e-05) (5.779210e-09 6.390072e-09 1.358966e-05)) ((-3.403613e-13 8.946791e-12 1.324420e-14) (1.455858e-10 -4.895315e-11 2.008902e-13))
157.479987    	((4.232007e-08 4.369851e-08 2.010740e-05) (6.101465e-09 6.661706e-09 1.352015e-05)) ((-3.329421e-13 8.917725e-12 1.800060e-14) (1.491295e-10 -5.625279e-11 2.962017e-13))
166.55051     	((4.556327e-08 4.581346e-08 2.006465e-05) (6.454640e-09 6.946388e-09 1.345796e-05)) ((-3.483384e-13 8.910898e-12 1.854295e-14) (1.535535e-10 -6.338622e-11 3.859431e-13))
175.625583    	((4.834818e-08 4.746388e-08 2.001946e-05) (6.825880e-09 7.236503e-09 1.340194e-05)) ((-3.596126e-13 8.903040e-12 1.738792e-14) (1.570712e-10 -6.951708e-11 6.443856e-13))
184.704806    	((5.162321e-08 4.966961e-08 1.997842e-05) (7.260121e-09 7.572935e-09 1.335145e-05)) ((-3.934485e-13 8.909937e-12 1.357947e-14) (1.590864e-10 -7.548195e-11 5.675523e-13))
193.787825    	((5.518170e-08 5.182499e-08 1.993804e-05) (7.759716e-09 7.963854e-09 1.330591e-05)) ((-4.316064e-13 8.926797e-12 1.419456e-14) (1.599050e-10 -8.082335e-11 6.334003e-13))
202.874298    	((5.930736e-08 5.448636e-08 1.989860e-05) (8.363245e-09 8.382870e-09 1.326463e-05)) ((-4.742561e-13 8.944937e-12 1.307604e-14) (1.613557e-10 -8.526632e-11 7.222716e-13))
211.963932    	((6.322645e-08 5.709133e-08 1.985970e-05) (9.016032e-09 8.818178e-09 1.322706e-05)) ((-5.069689e-13 8.956237e-12 1.250514e-14) (1.625439e-10 -8.883884e-11 6.587315e-13))
221.056491    	((6.700641e-08 5.977492e-08 1.982341e-05) (9.684639e-09 9.276803e-09 1.319279e-05)) ((-5.391887e-13 8.966579e-12 1.221968e-14) (1.638135e-10 -9.229855e-11 5.916279e-13))
230.151781    	((7.088941e-08 6.246463e-08 1.978862e-05) (1.039929e-08 9.766888e-09 1.316144e-05)) ((-5.730495e-13 8.981969e-12 1.281608e-14) (1.649302e-10 -9.491208e-11 4.936303e-13))
239.249631    	((7.494167e-08 6.545456e-08 1.975646e-05) (1.117127e-08 1.030112e-08 1.313278e-05)) ((-6.032317e-13 8.993045e-12 1.342398e-14) (1.656331e-10 -9.645252e-11 3.523691e-13))
248.349863    	((7.866251e-08 6.812589e-08 1.972626e-05) (1.196046e-08 1.084083e-08 1.310654e-05)) ((-6.328496e-13 9.004629e-12 1.271510e-14) (1.664549e-10 -9.723758e-11 1.634336e-13))
257.452308    	((8.221979e-08 7.087672e-08 1.969759e-05) (1.273081e-08 1.137126e-08 1.308248e-05)) ((-6.587136e-13 9.013022e-12 1.238774e-14) (1.673295e-10 -9.726616e-11 7.826538e-14))
266.556806    	((8.579769e-08 7.343426e-08 1.967070e-05) (1.348161e-08 1.188104e-08 1.306039e-05)) ((-6.820531e-13 9.023787e-12 1.334371e-14) (1.685427e-10 -9.670077e-11 1.182672e-13))
275.663209    	((8.966840e-08 7.590792e-08 1.964623e-05) (1.424350e-08 1.237148e-08 1.304015e-05)) ((-7.073369e-13 9.041823e-12 1.380802e-14) (1.704082e-10 -9.621864e-11 1.470946e-13))
284.771368    	((9.398146e-08 7.874453e-08 1.962242e-05) (1.503944e-08 1.287117e-08 1.302156e-05)) ((-7.368158e-13 9.062997e-12 1.472776e-14) (1.724205e-10 -9.568676e-11 2.163638e-13))
293.881148    	((9.847251e-08 8.194034e-08 1.959970e-05) (1.586468e-08 1.340369e-08 1.300442e-05)) ((-7.726937e-13 9.088075e-12 1.398488e-14) (1.744366e-10 -9.515260e-11 2.577484e-13))
302.992435    	((1.031715e-07 8.511028e-08 1.957729e-05) (1.672466e-08 1.396594e-08 1.298856e-05)) ((-8.041917e-13 9.112506e-12 1.331748e-14) (1.762355e-10 -9.502601e-11 2.018778e-13))
312.105123    	((1.083292e-07 8.864894e-08 1.955595e-05) (1.762855e-08 1.456931e-08 1.297383e-05)) ((-8.374348e-13 9.139795e-12 1.301770e-14) (1.780575e-10 -9.596319e-11 2.089506e-13))
321.219122    	((1.137495e-07 9.227288e-08 1.953544e-05) (1.857175e-08 1.519957e-08 1.296012e-05)) ((-8.718207e-13 9.171216e-12 1.245560e-14) (1.802129e-10 -9.833774e-11 2.241377e-13))
330.334349    	((1.197557e-07 9.632584e-08 1.951664e-05) (1.956652e-08 1.587131e-08 1.294739e-05)) ((-9.081774e-13 9.207073e-12 1.154109e-14) (1.827749e-10 -1.021190e-10 2.609279e-13))
339.450736    	((1.261044e-07 1.005982e-07 1.949904e-05) (2.061422e-08 1.658601e-08 1.293559e-05)) ((-9.484189e-13 9.246632e-12 1.110578e-14) (1.858870e-10 -1.073504e-10 3.054388e-13))
348.56822     	((1.328756e-07 1.051150e-07 1.948225e-05) (2.171371e-08 1.733484e-08 1.292463e-05)) ((-9.906219e-13 9.291650e-12 9.304626e-15) (1.896995e-10 -1.140394e-10 3.417294e-13))
357.686737    	((1.400942e-07 1.098100e-07 1.946624e-05) (2.286958e-08 1.811611e-08 1.291442e-05)) ((-1.033766e-12 9.340994e-12 8.767694e-15) (1.942681e-10 -1.220260e-10 3.777826e-13))
366.806225    	((1.471511e-07 1.145928e-07 1.945106e-05) (2.405564e-08 1.892723e-08 1.290492e-05)) ((-1.076190e-12 9.383718e-12 8.209162e-15) (1.995183e-10 -1.311144e-10 3.467397e-13))
375.926633    	((1.546283e-07 1.193632e-07 1.943679e-05) (2.527537e-08 1.975304e-08 1.289605e-05)) ((-1.117367e-12 9.429138e-12 7.363413e-15) (2.055033e-10 -1.413264e-10 3.003022e-13))
385.047914    	((1.619755e-07 1.242795e-07 1.942331e-05) (2.651546e-08 2.058916e-08 1.288778e-05)) ((-1.159180e-12 9.473982e-12 6.505179e-15) (2.122065e-10 -1.525932e-10 2.931879e-13))
394.170023    	((1.691686e-07 1.292112e-07 1.941031e-05) (2.774818e-08 2.144004e-08 1.288004e-05)) ((-1.198862e-12 9.515339e-12 5.619776e-15) (2.196413e-10 -1.647015e-10 3.398708e-13))
403.292914    	((1.763816e-07 1.341526e-07 1.939804e-05) (2.897419e-08 2.229667e-08 1.287279e-05)) ((-1.238713e-12 9.557128e-12 4.474921e-15) (2.277376e-10 -1.776040e-10 4.214141e-13))
412.416541    	((1.837270e-07 1.390015e-07 1.938619e-05) (3.020542e-08 2.314795e-08 1.286597e-05)) ((-1.276263e-12 9.600006e-12 3.415021e-15) (2.362034e-10 -1.911691e-10 4.889012e-13))
421.540858    	((1.912473e-07 1.440584e-07 1.937497e-05) (3.145089e-08 2.400680e-08 1.285955e-05)) ((-1.315828e-12 9.644125e-12 2.261237e-15) (2.449365e-10 -2.051176e-10 5.286709e-13))
430.665824    	((1.991066e-07 1.493094e-07 1.936453e-05) (3.272691e-08 2.488442e-08 1.285351e-05)) ((-1.355666e-12 9.690608e-12 1.479600e-15) (2.539885e-10 -2.193838e-10 5.701411e-13))
439.7914      	((2.073851e-07 1.548101e-07 1.935473e-05) (3.405290e-08 2.578656e-08 1.284783e-05)) ((-1.396440e-12 9.740599e-12 6.708898e-16) (2.634508e-10 -2.340803e-10 6.063975e-13))
448.91755     	((2.158680e-07 1.606051e-07 1.934564e-05) (3.542570e-08 2.672380e-08 1.284250e-05)) ((-1.439771e-12 9.791660e-12 -5.397958e-16) (2.733459e-10 -2.492068e-10 6.324373e-13))
458.044244    	((2.247005e-07 1.666264e-07 1.933734e-05) (3.684532e-08 2.769999e-08 1.283752e-05)) ((-1.484153e-12 9.845878e-12 -2.204008e-15) (2.836327e-10 -2.648396e-10 6.711805e-13))
467.171451    	((2.338665e-07 1.729405e-07 1.932966e-05) (3.831603e-08 2.871689e-08 1.283286e-05)) ((-1.530869e-12 9.902940e-12 -3.910008e-15) (2.943192e-10 -2.810804e-10 7.298466e-13))
476.299146    	((2.434157e-07 1.794916e-07 1.932251e-05) (3.984361e-08 2.977449e-08 1.282851e-05)) ((-1.579498e-12 9.963805e-12 -5.857694e-15) (3.054245e-10 -2.980636e-10 8.233587e-13))
485.427302    	((2.533963e-07 1.863514e-07 1.931580e-05) (4.143046e-08 3.087551e-08 1.282444e-05)) ((-1.630744e-12 1.002898e-11 -7.624130e-15) (3.170698e-10 -3.159356e-10 9.523343e-13))
494.555897    	((2.637656e-07 1.934621e-07 1.930945e-05) (4.307568e-08 3.201750e-08 1.282063e-05)) ((-1.684298e-12 1.009730e-11 -9.603479e-15) (3.294091e-10 -3.348075e-10 1.093759e-12))
503.684909    	((2.746000e-07 2.008572e-07 1.930354e-05) (4.478585e-08 3.319927e-08 1.281706e-05)) ((-1.740055e-12 1.016869e-11 -1.144007e-14) (3.425021e-10 -3.547123e-10 1.222566e-12))
512.814317    	((2.858522e-07 2.085620e-07 1.929800e-05) (4.656260e-08 3.442583e-08 1.281371e-05)) ((-1.798245e-12 1.024261e-11 -1.364737e-14) (3.563237e-10 -3.756773e-10 1.309225e-12))
521.944104    	((2.975546e-07 2.165751e-07 1.929290e-05) (4.840548e-08 3.570015e-08 1.281059e-05)) ((-1.857830e-12 1.031871e-11 -1.610211e-14) (3.707503e-10 -3.977952e-10 1.346799e-12))
531.074253    	((3.097187e-07 2.248931e-07 1.928816e-05) (5.031637e-08 3.702110e-08 1.280767e-05)) ((-1.918851e-12 1.039728e-11 -1.894927e-14) (3.859290e-10 -4.211095e-10 1.360278e-12))
540.20475     	((3.223588e-07 2.335342e-07 1.928379e-05) (5.229877e-08 3.838875e-08 1.280494e-05)) ((-1.981279e-12 1.047800e-11 -2.164534e-14) (4.019319e-10 -4.455553e-10 1.345264e-12))
549.335579    	((3.354695e-07 2.424920e-07 1.927971e-05) (5.435509e-08 3.980490e-08 1.280239e-05)) ((-2.045028e-12 1.056120e-11 -2.427499e-14) (4.187816e-10 -4.711173e-10 1.362486e-12))
558.466727    	((3.490386e-07 2.517929e-07 1.927594e-05) (5.648620e-08 4.127213e-08 1.280002e-05)) ((-2.110385e-12 1.064676e-11 -2.699049e-14) (4.364629e-10 -4.978276e-10 1.379844e-12))
567.598181    	((3.631092e-07 2.614517e-07 1.927245e-05) (5.869563e-08 4.279263e-08 1.279780e-05)) ((-2.177712e-12 1.073496e-11 -2.968420e-14) (4.549692e-10 -5.256316e-10 1.388232e-12))
