# Forces      
# CofR        : (0.000000e+00 0.000000e+00 0.000000e+00)
# Time        forces(pressure viscous)	moments(pressure viscous)
0             	((0.000000e+00 0.000000e+00 0.000000e+00) (7.982436e-02 -1.122344e-11 5.701542e-12)) ((0.000000e+00 0.000000e+00 0.000000e+00) (-1.578629e-13 -9.704268e-13 1.690311e-12))
0.00761217    	((3.677520e+01 3.781896e-03 3.502663e-03) (2.243741e-01 -2.034029e-05 -1.673970e-05)) ((-4.590474e-08 -7.354545e-08 -1.419448e-08) (1.276688e-09 -5.035069e-07 5.152656e-07))
0.0167468     	((-1.747775e+01 -4.380148e-03 -4.806425e-03) (2.077750e-01 -2.189948e-05 -2.076446e-05)) ((2.982765e-08 -2.955516e-07 -3.249082e-08) (3.755028e-09 -1.334887e-06 1.325609e-06))
0.0277083     	((3.956193e+00 7.909467e-04 7.072478e-04) (1.704141e-01 -1.766018e-06 -8.852799e-06)) ((3.690981e-08 2.706885e-07 3.283461e-08) (5.069589e-09 -7.471769e-07 7.240134e-07))
0.0407741     	((-1.516955e+00 -1.882389e-03 -1.971658e-03) (1.587250e-01 -6.676142e-06 -1.231359e-05)) ((3.426436e-08 -1.244737e-07 -5.990241e-08) (1.065895e-08 -4.800065e-07 6.015221e-07))
0.0559531     	((1.081571e+00 8.063808e-04 8.053941e-04) (1.513188e-01 -9.259994e-06 -1.002809e-05)) ((4.753373e-08 6.313958e-08 -4.904896e-09) (1.029248e-08 -4.223370e-07 5.407571e-07))
0.073232      	((-9.427408e-02 -4.841161e-04 -4.471120e-04) (1.490079e-01 -7.682861e-06 -3.275661e-06)) ((4.960157e-08 -2.889965e-08 -2.180476e-08) (6.257720e-09 -9.147917e-08 8.805881e-08))
0.092593      	((4.750221e-01 1.343400e-05 1.693532e-04) (1.469230e-01 -3.975920e-06 7.750329e-07)) ((-1.558482e-08 4.765825e-08 -1.118265e-08) (5.960302e-09 1.081477e-08 -6.245824e-08))
0.113214      	((2.373207e-01 -3.615983e-04 -3.777912e-04) (1.458924e-01 -2.200687e-06 -5.767257e-08)) ((1.449628e-08 -7.236599e-09 -8.100074e-09) (2.373424e-09 1.680798e-07 -1.962230e-07))
0.133849      	((3.973459e-01 -2.655585e-04 -1.837833e-04) (1.454338e-01 -3.894126e-07 2.097217e-06)) ((1.945432e-08 -7.240510e-09 -1.002455e-08) (4.603897e-09 2.712754e-07 -3.173044e-07))
0.15444       	((3.598751e-01 -6.433737e-04 -6.015877e-04) (1.453314e-01 -2.412685e-06 8.760803e-09)) ((9.748609e-09 -2.154524e-08 -8.677613e-09) (1.375011e-08 2.577806e-07 -3.177330e-07))
0.174951      	((4.218093e-01 -9.121358e-04 -9.052425e-04) (1.452691e-01 -5.709209e-06 -3.925224e-06)) ((2.416878e-08 -1.143963e-08 -8.763524e-09) (9.555128e-09 2.071979e-07 -2.838486e-07))
0.195314      	((4.274353e-01 -1.134547e-03 -8.958050e-04) (1.450388e-01 -6.842088e-06 -1.051268e-06)) ((8.341408e-09 -2.859441e-08 2.342974e-09) (9.059628e-09 2.184534e-07 -2.384853e-07))
0.215559      	((4.515957e-01 -1.218173e-03 -1.224561e-03) (1.445494e-01 -5.245222e-06 -3.887407e-06)) ((5.225798e-09 -1.602521e-08 -2.754947e-09) (1.042125e-08 1.449453e-07 -2.234496e-07))
0.235743      	((4.579520e-01 -1.464348e-03 -1.425640e-03) (1.438953e-01 -4.797608e-06 -2.918089e-06)) ((1.937803e-08 -1.025843e-08 -5.725639e-09) (6.796786e-09 1.562980e-08 -1.302013e-07))
0.255943      	((4.644437e-01 -1.789876e-03 -1.380448e-03) (1.431441e-01 -6.316383e-06 2.469496e-06)) ((9.543080e-09 -4.428454e-08 -4.184879e-09) (1.319237e-08 3.876199e-09 7.241547e-09))
0.276197      	((4.650208e-01 -2.045967e-03 -2.041506e-03) (1.424161e-01 -6.089322e-06 -2.873300e-06)) ((1.655320e-08 -3.026045e-08 -1.350816e-08) (1.483927e-08 -9.819694e-08 3.691103e-08))
0.296499      	((4.664100e-01 -2.336182e-03 -2.249105e-03) (1.417908e-01 -7.470663e-06 -6.419258e-06)) ((8.697108e-09 -4.102487e-08 -6.935282e-09) (1.287923e-08 -2.046365e-07 7.229329e-08))
0.316823      	((4.644214e-01 -2.705003e-03 -2.470801e-03) (1.412131e-01 -9.340767e-06 -4.285554e-06)) ((7.627992e-09 -6.286574e-08 -1.015284e-08) (1.538287e-08 -2.116301e-07 1.724863e-07))
0.337152      	((4.626365e-01 -3.130750e-03 -3.082897e-03) (1.406771e-01 -1.010948e-05 -7.217167e-06)) ((1.179292e-08 -4.722962e-08 -1.688711e-08) (1.017987e-08 -3.311237e-07 3.145103e-07))
0.357489      	((4.607056e-01 -3.577673e-03 -3.521467e-03) (1.402003e-01 -9.801339e-06 -1.020657e-05)) ((9.501841e-09 -6.082282e-08 -1.507438e-08) (8.910156e-09 -5.313922e-07 4.653550e-07))
0.377842      	((4.585307e-01 -4.171491e-03 -4.009216e-03) (1.397588e-01 -1.035280e-05 -8.205496e-06)) ((9.354359e-09 -6.097507e-08 -2.214328e-08) (1.360285e-08 -6.118144e-07 6.067107e-07))
0.398214      	((4.572063e-01 -4.879986e-03 -4.734919e-03) (1.393413e-01 -1.286041e-05 -1.213212e-05)) ((1.948420e-08 -5.380841e-08 -2.822128e-08) (1.285692e-08 -7.399387e-07 7.762077e-07))
0.418601      	((4.561405e-01 -5.648367e-03 -5.606185e-03) (1.389635e-01 -1.398469e-05 -1.776227e-05)) ((2.338016e-08 -7.697758e-08 -2.365655e-08) (1.115409e-08 -9.732084e-07 9.519351e-07))
0.438999      	((4.553854e-01 -6.664805e-03 -6.322606e-03) (1.386225e-01 -1.592329e-05 -1.578195e-05)) ((1.406500e-08 -7.992126e-08 -2.244328e-08) (1.306193e-08 -1.133482e-06 1.179002e-06))
0.459409      	((4.544040e-01 -7.922881e-03 -7.497951e-03) (1.383011e-01 -1.960337e-05 -1.810686e-05)) ((2.759848e-08 -1.000187e-07 -2.590535e-08) (1.613635e-08 -1.321643e-06 1.509429e-06))
0.47983       	((4.538088e-01 -9.151932e-03 -8.812034e-03) (1.380136e-01 -2.142823e-05 -2.262780e-05)) ((2.305219e-08 -1.199305e-07 -2.413098e-08) (1.780119e-08 -1.670186e-06 1.890328e-06))
0.50026       	((4.532267e-01 -1.054777e-02 -1.009288e-02) (1.377604e-01 -2.408205e-05 -2.263675e-05)) ((2.719293e-08 -1.361806e-07 -2.344613e-08) (1.785537e-08 -2.047299e-06 2.298879e-06))
0.520698      	((4.523728e-01 -1.227287e-02 -1.180650e-02) (1.375234e-01 -2.803092e-05 -2.755992e-05)) ((3.601484e-08 -1.777849e-07 -3.157538e-08) (1.889827e-08 -2.487479e-06 2.794724e-06))
0.541144      	((4.512084e-01 -1.399662e-02 -1.362477e-02) (1.373080e-01 -3.012488e-05 -3.234437e-05)) ((2.974067e-08 -1.894936e-07 -3.716643e-08) (1.361526e-08 -3.020657e-06 3.330842e-06))
0.561596      	((4.498147e-01 -1.607571e-02 -1.564143e-02) (1.371106e-01 -3.432683e-05 -3.673552e-05)) ((4.189647e-08 -2.228252e-07 -4.583441e-08) (1.396519e-08 -3.599123e-06 3.904570e-06))
0.582055      	((4.482893e-01 -1.851765e-02 -1.801412e-02) (1.369176e-01 -4.135787e-05 -4.515774e-05)) ((4.406663e-08 -2.773928e-07 -6.018928e-08) (1.358499e-08 -4.263936e-06 4.569416e-06))
0.602519      	((4.469441e-01 -2.118373e-02 -2.059838e-02) (1.367395e-01 -4.727291e-05 -5.208805e-05)) ((4.227692e-08 -2.924105e-07 -7.258853e-08) (1.524468e-08 -5.000461e-06 5.308736e-06))
0.622988      	((4.456264e-01 -2.426430e-02 -2.371693e-02) (1.365721e-01 -5.456256e-05 -6.208189e-05)) ((6.103585e-08 -3.536943e-07 -8.861891e-08) (1.797391e-08 -5.844084e-06 6.160993e-06))
0.643461      	((4.445586e-01 -2.782169e-02 -2.700258e-02) (1.364106e-01 -6.351783e-05 -7.102174e-05)) ((5.984999e-08 -3.932037e-07 -1.053533e-07) (1.414947e-08 -6.864154e-06 7.157658e-06))
0.663937      	((4.435407e-01 -3.176997e-02 -3.080369e-02) (1.362654e-01 -7.195958e-05 -7.970447e-05)) ((6.756281e-08 -4.352764e-07 -1.187298e-07) (1.240951e-08 -7.928289e-06 8.276508e-06))
0.684417      	((4.425404e-01 -3.631867e-02 -3.528719e-02) (1.361266e-01 -8.265051e-05 -9.384236e-05)) ((8.031883e-08 -5.191996e-07 -1.342987e-07) (1.024607e-08 -9.149545e-06 9.538917e-06))
0.704898      	((4.417562e-01 -4.146999e-02 -4.007397e-02) (1.359985e-01 -9.458726e-05 -1.062536e-04)) ((7.630150e-08 -5.709980e-07 -1.479928e-07) (6.159948e-09 -1.056520e-05 1.096976e-05))
0.72538       	((4.409295e-01 -4.729495e-02 -4.575372e-02) (1.358848e-01 -1.075277e-04 -1.232864e-04)) ((8.754999e-08 -6.665565e-07 -1.642665e-07) (2.067091e-09 -1.207206e-05 1.256965e-05))
0.745863      	((4.402208e-01 -5.393900e-02 -5.203934e-02) (1.357758e-01 -1.243433e-04 -1.393933e-04)) ((8.747732e-08 -7.545170e-07 -1.818281e-07) (-4.633923e-09 -1.379812e-05 1.436088e-05))
0.766345      	((4.396281e-01 -6.139396e-02 -5.918105e-02) (1.356823e-01 -1.437075e-04 -1.609309e-04)) ((9.236098e-08 -8.637361e-07 -1.977535e-07) (-1.848884e-10 -1.573940e-05 1.634287e-05))
0.786825      	((4.389403e-01 -6.985710e-02 -6.735918e-02) (1.355983e-01 -1.659204e-04 -1.857984e-04)) ((1.038133e-07 -9.896415e-07 -2.185686e-07) (8.526039e-09 -1.790900e-05 1.853073e-05))
0.807303      	((4.384357e-01 -7.948373e-02 -7.651589e-02) (1.355211e-01 -1.922275e-04 -2.084828e-04)) ((1.089563e-07 -1.110822e-06 -2.391775e-07) (2.273099e-08 -2.036376e-05 2.100819e-05))
0.827777      	((4.380666e-01 -9.031601e-02 -8.711559e-02) (1.354587e-01 -2.206176e-04 -2.414924e-04)) ((1.445929e-07 -1.294662e-06 -2.644475e-07) (5.036798e-08 -2.318475e-05 2.382789e-05))
0.848245      	((4.377905e-01 -1.025708e-01 -9.866713e-02) (1.354014e-01 -2.524809e-04 -2.687055e-04)) ((1.598003e-07 -1.434136e-06 -2.944383e-07) (5.704171e-08 -2.632759e-05 2.703389e-05))
0.868708      	((4.378661e-01 -1.164376e-01 -1.121347e-01) (1.353555e-01 -2.881940e-04 -3.065146e-04)) ((1.906923e-07 -1.652296e-06 -3.168413e-07) (6.353368e-08 -2.989017e-05 3.071136e-05))
0.889163      	((4.383242e-01 -1.320669e-01 -1.271573e-01) (1.353214e-01 -3.267089e-04 -3.482429e-04)) ((2.353336e-07 -1.888407e-06 -3.453561e-07) (7.343163e-08 -3.397919e-05 3.491874e-05))
0.909608      	((4.392619e-01 -1.497416e-01 -1.437445e-01) (1.352928e-01 -3.697673e-04 -3.848963e-04)) ((2.698737e-07 -2.085953e-06 -3.681800e-07) (7.568886e-08 -3.849406e-05 3.973496e-05))
0.930043      	((4.408195e-01 -1.696827e-01 -1.631134e-01) (1.352811e-01 -4.164152e-04 -4.417969e-04)) ((3.475618e-07 -2.428538e-06 -3.912341e-07) (7.271287e-08 -4.371514e-05 4.524189e-05))
0.950465      	((4.427621e-01 -1.921823e-01 -1.842085e-01) (1.352791e-01 -4.692853e-04 -4.918026e-04)) ((3.737813e-07 -2.695355e-06 -4.171953e-07) (4.455466e-08 -4.962127e-05 5.152485e-05))
0.970873      	((4.457775e-01 -2.174672e-01 -2.080949e-01) (1.352904e-01 -5.300377e-04 -5.502958e-04)) ((4.558317e-07 -3.026851e-06 -4.296978e-07) (1.763234e-08 -5.621134e-05 5.865245e-05))
0.991263      	((4.496403e-01 -2.456242e-01 -2.350853e-01) (1.353239e-01 -6.004407e-04 -6.229068e-04)) ((5.355744e-07 -3.462099e-06 -4.455525e-07) (-2.982689e-08 -6.366402e-05 6.664087e-05))
1.011635      	((4.546748e-01 -2.767841e-01 -2.642719e-01) (1.353737e-01 -6.830985e-04 -6.914964e-04)) ((6.030332e-07 -3.798757e-06 -4.452339e-07) (-8.080125e-08 -7.192043e-05 7.550759e-05))
1.031985      	((4.611219e-01 -3.111131e-01 -2.972662e-01) (1.354473e-01 -7.774198e-04 -7.827937e-04)) ((7.525734e-07 -4.302380e-06 -4.402990e-07) (-1.373172e-07 -8.109533e-05 8.535374e-05))
1.052312      	((4.688821e-01 -3.485432e-01 -3.328787e-01) (1.355492e-01 -8.847833e-04 -8.814289e-04)) ((8.762143e-07 -4.790482e-06 -4.360265e-07) (-2.227463e-07 -9.125760e-05 9.611880e-05))
1.072612      	((4.782381e-01 -3.890862e-01 -3.709512e-01) (1.356801e-01 -1.006953e-03 -9.865230e-04)) ((1.058300e-06 -5.283302e-06 -3.967146e-07) (-3.564280e-07 -1.021152e-04 1.076733e-04))
1.092884      	((4.897728e-01 -4.323707e-01 -4.123818e-01) (1.358516e-01 -1.143493e-03 -1.116902e-03)) ((1.249303e-06 -5.880457e-06 -3.638043e-07) (-5.066021e-07 -1.136740e-04 1.198912e-04))
1.113125      	((5.040817e-01 -4.780733e-01 -4.553052e-01) (1.360649e-01 -1.299267e-03 -1.258859e-03)) ((1.423812e-06 -6.341244e-06 -3.436426e-07) (-6.774250e-07 -1.258171e-04 1.327235e-04))
1.133333      	((5.212600e-01 -5.251837e-01 -4.992878e-01) (1.363199e-01 -1.473620e-03 -1.421810e-03)) ((1.684421e-06 -6.841386e-06 -3.252918e-07) (-8.791329e-07 -1.381651e-04 1.460998e-04))
1.153507      	((5.420629e-01 -5.719589e-01 -5.428318e-01) (1.366201e-01 -1.662390e-03 -1.606897e-03)) ((1.940051e-06 -7.296960e-06 -3.050106e-07) (-1.065705e-06 -1.506499e-04 1.598967e-04))
1.173646      	((5.652721e-01 -6.172606e-01 -5.837817e-01) (1.369612e-01 -1.868271e-03 -1.802426e-03)) ((2.201542e-06 -7.573190e-06 -2.903799e-07) (-1.199768e-06 -1.630460e-04 1.739052e-04))
1.193747      	((5.913920e-01 -6.584386e-01 -6.206441e-01) (1.373378e-01 -2.086619e-03 -2.011507e-03)) ((2.443164e-06 -7.789422e-06 -3.204325e-07) (-1.314393e-06 -1.750194e-04 1.876319e-04))
1.213813      	((6.207156e-01 -6.923876e-01 -6.504031e-01) (1.377474e-01 -2.307994e-03 -2.218938e-03)) ((2.659265e-06 -7.813059e-06 -3.759236e-07) (-1.467105e-06 -1.862343e-04 2.004871e-04))
1.233843      	((6.492351e-01 -7.179655e-01 -6.712366e-01) (1.381941e-01 -2.527244e-03 -2.420900e-03)) ((2.807110e-06 -7.679380e-06 -4.537355e-07) (-1.645458e-06 -1.961935e-04 2.119926e-04))
1.253838      	((6.737258e-01 -7.322338e-01 -6.813981e-01) (1.386631e-01 -2.740764e-03 -2.614545e-03)) ((2.853395e-06 -7.488313e-06 -5.534232e-07) (-1.891214e-06 -2.040711e-04 2.213877e-04))
1.273803      	((6.950690e-01 -7.320015e-01 -6.778194e-01) (1.391336e-01 -2.931238e-03 -2.784326e-03)) ((2.797720e-06 -7.238216e-06 -5.959943e-07) (-2.124312e-06 -2.089418e-04 2.279747e-04))
1.29374       	((7.099521e-01 -7.177765e-01 -6.619823e-01) (1.395927e-01 -3.069959e-03 -2.907675e-03)) ((2.643451e-06 -6.907048e-06 -5.506577e-07) (-2.215233e-06 -2.114401e-04 2.319738e-04))
1.313656      	((7.177558e-01 -6.883851e-01 -6.339073e-01) (1.400135e-01 -3.118432e-03 -2.942276e-03)) ((2.377101e-06 -6.400202e-06 -4.215929e-07) (-2.190860e-06 -2.126096e-04 2.342522e-04))
1.333556      	((7.142634e-01 -6.477000e-01 -5.954372e-01) (1.403827e-01 -3.052160e-03 -2.868137e-03)) ((2.132728e-06 -5.725168e-06 -2.441565e-07) (-2.125241e-06 -2.129933e-04 2.353441e-04))
1.353447      	((7.045556e-01 -5.987445e-01 -5.510680e-01) (1.407032e-01 -2.866474e-03 -2.692771e-03)) ((1.914623e-06 -4.975653e-06 -8.723070e-08) (-2.115329e-06 -2.129142e-04 2.356120e-04))
1.373336      	((6.909903e-01 -5.491764e-01 -5.057690e-01) (1.409735e-01 -2.587754e-03 -2.434369e-03)) ((1.755754e-06 -4.256516e-06 -1.775193e-08) (-2.186731e-06 -2.119797e-04 2.347722e-04))
1.39323       	((6.765174e-01 -5.077267e-01 -4.673540e-01) (1.412083e-01 -2.273362e-03 -2.134777e-03)) ((1.732563e-06 -3.800851e-06 -1.615624e-08) (-2.233655e-06 -2.101912e-04 2.323658e-04))
1.413134      	((6.589129e-01 -4.787503e-01 -4.402032e-01) (1.414163e-01 -1.967705e-03 -1.834550e-03)) ((1.846769e-06 -3.636743e-06 -2.918112e-08) (-2.170291e-06 -2.077725e-04 2.287222e-04))
1.433054      	((6.406438e-01 -4.648579e-01 -4.256760e-01) (1.416006e-01 -1.701914e-03 -1.560790e-03)) ((2.124877e-06 -3.683519e-06 -5.858662e-08) (-1.972768e-06 -2.046227e-04 2.242555e-04))
1.452991      	((6.258247e-01 -4.641126e-01 -4.237547e-01) (1.417714e-01 -1.518952e-03 -1.356863e-03)) ((2.577498e-06 -3.787799e-06 -1.346367e-07) (-1.652293e-06 -2.011150e-04 2.192377e-04))
1.472944      	((6.116986e-01 -4.727181e-01 -4.307916e-01) (1.419320e-01 -1.436411e-03 -1.249266e-03)) ((3.059909e-06 -3.960047e-06 -1.292686e-07) (-1.298034e-06 -1.971647e-04 2.135285e-04))
1.492913      	((5.961934e-01 -4.852303e-01 -4.421085e-01) (1.420830e-01 -1.468381e-03 -1.241443e-03)) ((3.506139e-06 -4.256546e-06 -8.321649e-08) (-1.048926e-06 -1.917322e-04 2.061554e-04))
1.512893      	((5.801629e-01 -4.956241e-01 -4.505410e-01) (1.422024e-01 -1.591793e-03 -1.320958e-03)) ((3.911622e-06 -4.623977e-06 -8.319362e-08) (-9.904364e-07 -1.853857e-04 1.980185e-04))
1.532881      	((5.627956e-01 -4.989286e-01 -4.536064e-01) (1.422705e-01 -1.718963e-03 -1.420168e-03)) ((4.103046e-06 -4.985099e-06 -9.762759e-08) (-1.037015e-06 -1.800011e-04 1.912602e-04))
1.552874      	((5.522282e-01 -4.909500e-01 -4.461724e-01) (1.423057e-01 -1.792622e-03 -1.470875e-03)) ((3.894976e-06 -5.152526e-06 -7.836366e-08) (-1.050581e-06 -1.762347e-04 1.866608e-04))
1.572868      	((5.482204e-01 -4.725696e-01 -4.302709e-01) (1.423321e-01 -1.790188e-03 -1.466449e-03)) ((3.437791e-06 -4.941571e-06 -7.476805e-08) (-1.094571e-06 -1.736326e-04 1.837696e-04))
1.592863      	((5.490660e-01 -4.447147e-01 -4.074528e-01) (1.423559e-01 -1.724306e-03 -1.424803e-03)) ((2.718248e-06 -4.306486e-06 -6.699780e-08) (-1.151363e-06 -1.710943e-04 1.812477e-04))
1.612858      	((5.524596e-01 -4.069397e-01 -3.744123e-01) (1.423694e-01 -1.604401e-03 -1.340240e-03)) ((1.891634e-06 -3.398639e-06 -2.689228e-07) (-1.272191e-06 -1.680008e-04 1.785114e-04))
1.632855      	((5.520621e-01 -3.657976e-01 -3.386079e-01) (1.423694e-01 -1.450186e-03 -1.229476e-03)) ((1.195260e-06 -2.550536e-06 -6.324284e-07) (-1.398393e-06 -1.638274e-04 1.745756e-04))
1.652857      	((5.515345e-01 -3.248147e-01 -3.027291e-01) (1.423569e-01 -1.270454e-03 -1.099378e-03)) ((6.648866e-07 -1.879845e-06 -1.010569e-06) (-1.434898e-06 -1.586120e-04 1.694445e-04))
1.672867      	((5.538580e-01 -2.886138e-01 -2.712403e-01) (1.423204e-01 -1.063649e-03 -9.297977e-04)) ((1.716394e-07 -1.490130e-06 -1.112668e-06) (-1.289996e-06 -1.537136e-04 1.643152e-04))
1.692888      	((5.566576e-01 -2.611490e-01 -2.464063e-01) (1.422375e-01 -8.283769e-04 -7.301600e-04)) ((-1.146743e-07 -1.497476e-06 -9.953412e-07) (-1.079776e-06 -1.504891e-04 1.609677e-04))
1.712922      	((5.591808e-01 -2.479282e-01 -2.352803e-01) (1.421520e-01 -5.534364e-04 -4.933670e-04)) ((-1.727728e-07 -1.740405e-06 -7.117433e-07) (-8.821191e-07 -1.498610e-04 1.603936e-04))
1.732972      	((5.580762e-01 -2.473331e-01 -2.357674e-01) (1.420475e-01 -2.625722e-04 -2.297080e-04)) ((-1.084981e-07 -2.109438e-06 -3.970093e-07) (-5.941853e-07 -1.526484e-04 1.633325e-04))
1.753036      	((5.515425e-01 -2.565769e-01 -2.456828e-01) (1.419174e-01 4.706584e-06 1.216779e-05)) ((5.118135e-08 -2.515198e-06 -1.105016e-07) (-2.066836e-07 -1.580176e-04 1.687920e-04))
1.773114      	((5.407475e-01 -2.736374e-01 -2.638112e-01) (1.417985e-01 2.110549e-04 1.942360e-04)) ((3.713022e-07 -3.035370e-06 2.602855e-07) (2.507281e-07 -1.639282e-04 1.744378e-04))
1.793204      	((5.279996e-01 -2.981565e-01 -2.880719e-01) (1.416997e-01 2.882860e-04 2.593118e-04)) ((8.171844e-07 -3.586227e-06 5.978811e-07) (6.457363e-07 -1.672439e-04 1.773783e-04))
