# Forces      
# CofR        : (0.000000e+00 0.000000e+00 0.000000e+00)
# Time        forces(pressure viscous)	moments(pressure viscous)
0             	((0.000000e+00 0.000000e+00 0.000000e+00) (0.000000e+00 0.000000e+00 0.000000e+00)) ((0.000000e+00 0.000000e+00 0.000000e+00) (0.000000e+00 0.000000e+00 0.000000e+00))
0.012         	((-1.776230e-11 4.511208e-09 9.281699e-12) (-1.130159e-14 1.145418e-10 -3.782946e-13)) ((-1.190033e-15 8.470644e-16 -1.025987e-10) (4.903535e-16 -9.311976e-15 -1.396973e-07))
0.0264        	((-5.690453e-11 6.607374e-10 4.130646e-15) (-1.301785e-13 1.691646e-10 -6.855486e-13)) ((8.937772e-16 -8.976260e-15 -4.703640e-11) (1.125948e-16 -2.585366e-14 -1.279648e-07))
0.04368       	((-4.016449e-11 2.101184e-09 3.328560e-11) (-1.966934e-13 1.782343e-10 -9.819821e-13)) ((-1.778949e-15 -1.089184e-14 -2.561746e-11) (-1.167811e-16 -4.631323e-14 -1.159000e-07))
0.064416      	((-6.741279e-11 -2.969758e-10 -2.931819e-11) (-2.928572e-13 1.538986e-10 -1.610597e-12)) ((5.943507e-16 -5.774091e-15 -1.376170e-11) (-2.819261e-15 -7.243513e-14 -1.037703e-07))
0.0892992     	((3.955460e-11 9.321755e-10 2.581414e-11) (-3.238784e-13 1.279925e-10 -2.453536e-12)) ((-2.698966e-15 -1.494921e-14 -1.030606e-11) (-8.601656e-15 -1.052650e-13 -9.193148e-08))
0.119159      	((-2.336443e-11 -1.682482e-10 4.487968e-12) (-3.375225e-13 1.041369e-10 -2.904309e-12)) ((1.705684e-16 -1.089495e-14 -7.692316e-12) (-1.123389e-14 -1.229846e-13 -8.075077e-08))
0.154991      	((1.306792e-11 4.612915e-10 -8.028495e-12) (-4.057129e-13 9.414318e-11 -2.990897e-12)) ((-1.265709e-15 -8.253262e-15 -6.277521e-12) (-1.404000e-14 -1.282039e-13 -7.048645e-08))
0.197989      	((-5.614054e-12 1.438748e-10 -1.017877e-12) (-2.588052e-13 8.184625e-11 -2.945632e-12)) ((-2.338438e-15 -7.115628e-15 -5.140796e-12) (-1.808101e-14 -1.285413e-13 -6.138644e-08))
0.249587      	((1.467768e-11 3.672841e-10 1.056954e-11) (-1.051936e-13 7.248256e-11 -3.018458e-12)) ((-1.794699e-15 -7.920852e-15 -4.233321e-12) (-1.918391e-14 -1.234562e-13 -5.358531e-08))
0.311504      	((-7.799577e-12 2.143372e-10 4.978870e-12) (-9.591343e-15 6.607939e-11 -3.317973e-12)) ((-1.095224e-15 -4.969031e-15 -3.442169e-12) (-1.699250e-14 -1.187727e-13 -4.706395e-08))
0.385805      	((-2.059230e-11 1.685556e-10 -1.535302e-12) (3.581955e-15 6.290011e-11 -3.657074e-12)) ((-4.307806e-16 -1.916521e-15 -2.831970e-12) (-7.178532e-15 -1.193846e-13 -4.168156e-08))
0.474966      	((-4.525520e-11 1.683125e-10 4.931727e-12) (-2.290194e-13 6.267268e-11 -3.771923e-12)) ((5.426707e-18 -1.084014e-15 -2.418728e-12) (-1.873548e-15 -1.171410e-13 -3.722655e-08))
0.581959      	((-3.747321e-11 1.185638e-10 5.279544e-12) (1.633778e-13 5.756386e-11 -2.959723e-12)) ((-9.942355e-17 1.459414e-15 -2.052666e-12) (-4.128601e-15 -7.881789e-14 -3.348001e-08))
0.710351      	((-5.988181e-11 8.939539e-11 -3.502239e-12) (6.742546e-13 4.882595e-11 -1.646017e-12)) ((1.072446e-15 2.756518e-15 -1.700820e-12) (-3.092385e-15 -1.636071e-14 -3.026085e-08))
0.864421      	((-5.324743e-11 1.624375e-10 -8.224765e-12) (1.566774e-13 4.730098e-11 -6.852938e-13)) ((2.137393e-15 6.170004e-15 -1.456250e-12) (8.549257e-15 4.300854e-14 -2.744118e-08))
1.049306      	((-5.403306e-11 2.492264e-10 -5.969817e-12) (6.173772e-13 4.463051e-11 1.861669e-13)) ((2.305391e-15 7.720903e-15 -1.311076e-12) (-6.255249e-15 7.246958e-14 -2.493584e-08))
1.271167      	((-6.242573e-11 2.748650e-10 -4.493760e-13) (5.673574e-13 3.961980e-11 1.450802e-12)) ((1.445565e-15 7.794729e-15 -1.196955e-12) (-5.230719e-14 7.676240e-14 -2.268693e-08))
1.5374        	((-7.195067e-11 2.974789e-10 -4.064682e-12) (2.397410e-12 4.169189e-11 2.775202e-12)) ((1.546548e-15 1.118266e-14 -1.103949e-12) (-1.120644e-13 5.019952e-14 -2.065745e-08))
1.85688       	((-8.620939e-11 4.024442e-10 -1.112882e-11) (6.839115e-12 4.784259e-11 2.534900e-12)) ((1.951227e-15 1.197996e-14 -1.030709e-12) (-1.973875e-13 -5.071085e-14 -1.882690e-08))
2.240256      	((-6.762379e-11 2.780155e-10 -3.807357e-13) (1.154475e-11 4.409988e-11 1.946693e-12)) ((2.009104e-15 1.294519e-14 -1.002225e-12) (-3.220014e-13 -2.062913e-13 -1.718497e-08))
2.700307      	((-6.658190e-11 1.726695e-10 1.487838e-12) (1.816375e-11 3.052351e-11 2.796696e-12)) ((1.573421e-15 1.320205e-14 -9.703311e-13) (-5.021841e-13 -3.806044e-13 -1.572426e-08))
3.252369      	((-5.402681e-11 1.210946e-10 1.248532e-12) (2.679111e-11 1.793278e-11 4.383704e-12)) ((9.983153e-16 1.239657e-14 -9.190808e-13) (-6.867607e-13 -5.179058e-13 -1.443423e-08))
3.914842      	((-3.087883e-11 7.026049e-11 6.214829e-12) (3.644843e-11 8.277459e-12 4.315053e-12)) ((1.294863e-15 9.874765e-15 -8.457071e-13) (-8.060751e-13 -6.683058e-13 -1.329881e-08))
4.709811      	((-7.156896e-12 4.901359e-11 5.314327e-12) (4.454396e-11 -6.358158e-12 2.508093e-12)) ((4.346219e-16 7.267750e-15 -7.612156e-13) (-8.524061e-13 -7.703955e-13 -1.229795e-08))
5.663773      	((1.354208e-11 -1.129869e-11 9.209441e-13) (4.926492e-11 -2.494287e-11 7.865731e-14)) ((-1.642045e-15 5.148505e-15 -6.860200e-13) (-8.520389e-13 -8.263416e-13 -1.140874e-08))
6.808528      	((2.059302e-11 -1.165007e-11 -1.319805e-13) (5.026908e-11 -3.244179e-11 -7.594091e-13)) ((-2.183821e-15 2.296705e-15 -6.172751e-13) (-8.062887e-13 -7.849017e-13 -1.060906e-08))
8.182233      	((2.120228e-11 -3.676839e-11 -6.814887e-12) (4.649885e-11 -2.902609e-11 -9.876810e-13)) ((-1.687928e-15 1.046880e-15 -5.561502e-13) (-6.848909e-13 -6.403836e-13 -9.882320e-09))
9.83068       	((1.879158e-11 -1.537218e-11 -9.499966e-13) (3.896256e-11 -2.123582e-11 -1.357131e-12)) ((-2.363561e-15 -8.139737e-16 -5.072318e-13) (-5.351050e-13 -5.148668e-13 -9.217005e-09))
11.808816     	((2.083695e-12 1.383001e-11 -1.266260e-12) (3.005272e-11 -1.056955e-11 -3.165399e-13)) ((-2.416935e-15 -1.833274e-15 -4.657972e-13) (-4.082042e-13 -3.641531e-13 -8.605162e-09))
14.182579     	((-7.901753e-12 1.035386e-11 -1.926412e-13) (2.068622e-11 -3.869418e-12 -8.223985e-13)) ((-2.297284e-15 -3.479758e-15 -4.337406e-13) (-2.870109e-13 -2.813102e-13 -8.041596e-09))
17.031095     	((-2.660383e-12 3.596552e-12 1.797554e-12) (1.257838e-11 -3.424353e-13 -1.314185e-12)) ((-2.013169e-15 -4.054373e-15 -4.087575e-13) (-1.886802e-13 -1.969026e-13 -7.523345e-09))
20.449314     	((-6.318215e-12 1.045187e-11 -7.934424e-13) (7.379331e-12 1.792586e-12 -4.666806e-13)) ((-1.290324e-15 -4.308037e-15 -3.886805e-13) (-1.343718e-13 -1.073438e-13 -7.048475e-09))
24.551176     	((1.118406e-12 2.246086e-11 -3.366181e-13) (5.021231e-12 1.203922e-12 2.778103e-13)) ((-1.097068e-15 -3.983813e-15 -3.697590e-13) (-1.011128e-13 -6.320463e-14 -6.614601e-09))
29.473411     	((1.202993e-12 2.292499e-11 -4.191267e-13) (4.445788e-12 -1.756588e-12 4.080684e-13)) ((-9.427687e-16 -3.499503e-15 -3.550818e-13) (-8.615377e-14 -5.592300e-14 -6.218965e-09))
35.380094     	((-4.156124e-12 2.405125e-11 4.752040e-13) (4.219757e-12 -4.171915e-12 -9.650979e-14)) ((-7.865537e-16 -3.449862e-15 -3.410454e-13) (-7.566652e-14 -7.262039e-14 -5.858076e-09))
42.468112     	((-5.671855e-12 2.078258e-11 -1.668883e-12) (4.452746e-12 -6.444397e-12 -5.162213e-13)) ((-8.472699e-16 -3.211998e-15 -3.303215e-13) (-7.539736e-14 -8.895359e-14 -5.528759e-09))
50.973735     	((-7.049211e-12 2.377782e-11 1.069661e-12) (5.711539e-12 -9.030547e-12 -4.134005e-13)) ((-1.046404e-15 -3.257374e-15 -3.202849e-13) (-8.320130e-14 -9.475437e-14 -5.228503e-09))
61.180482     	((-1.280675e-11 2.087426e-11 -1.890002e-12) (6.864235e-12 -1.129673e-11 -4.202234e-14)) ((-8.117808e-16 -3.090174e-15 -3.121725e-13) (-9.371855e-14 -8.754071e-14 -4.955155e-09))
73.428578     	((-1.518872e-11 1.842451e-11 -1.687570e-14) (8.066971e-12 -1.183895e-11 1.436986e-13)) ((-7.894587e-16 -2.748052e-15 -3.063511e-13) (-1.152799e-13 -8.989358e-14 -4.706771e-09))
88.126294     	((-1.082834e-11 1.336816e-11 -5.174471e-13) (8.850909e-12 -1.299889e-11 1.756285e-13)) ((-6.989524e-16 -2.407545e-15 -3.011165e-13) (-1.390488e-13 -1.053895e-13 -4.481398e-09))
105.763553    	((-9.275955e-12 1.510894e-11 -6.727262e-13) (9.515558e-12 -1.507281e-11 -9.934490e-14)) ((-6.415809e-16 -2.093930e-15 -2.954733e-13) (-1.549987e-13 -1.218286e-13 -4.277263e-09))
126.928263    	((-1.068908e-11 1.609608e-11 -6.480813e-13) (9.577019e-12 -1.594540e-11 -4.595885e-13)) ((-7.720467e-16 -1.884273e-15 -2.906291e-13) (-1.606923e-13 -1.260216e-13 -4.092542e-09))
152.325916    	((-1.009427e-11 1.463002e-11 -3.025614e-13) (9.362398e-12 -1.623922e-11 -9.247303e-13)) ((-8.255399e-16 -1.776250e-15 -2.860074e-13) (-1.532526e-13 -1.243407e-13 -3.925382e-09))
182.803099    	((-8.498746e-12 1.320520e-11 -6.553797e-13) (8.767562e-12 -1.585445e-11 -1.348062e-12)) ((-7.659747e-16 -1.562193e-15 -2.822086e-13) (-1.416561e-13 -1.146634e-13 -3.773817e-09))
219.375719    	((-6.476090e-12 1.240770e-11 -7.894545e-13) (8.398323e-12 -1.498379e-11 -1.569969e-12)) ((-6.393747e-16 -1.490092e-15 -2.789883e-13) (-1.356411e-13 -1.074739e-13 -3.636176e-09))
263.262863    	((-6.208214e-12 1.220815e-11 -6.123324e-13) (7.836351e-12 -1.438865e-11 -1.596181e-12)) ((-5.679679e-16 -1.528476e-15 -2.754726e-13) (-1.326817e-13 -1.041942e-13 -3.511053e-09))
315.927436    	((-6.330345e-12 1.394610e-11 -8.717649e-13) (7.466661e-12 -1.391168e-11 -1.536364e-12)) ((-5.014590e-16 -1.528241e-15 -2.722321e-13) (-1.337356e-13 -1.062071e-13 -3.397370e-09))
379.124923    	((-6.041030e-12 1.540444e-11 -8.493648e-13) (7.234744e-12 -1.344796e-11 -1.308594e-12)) ((-4.525837e-16 -1.492081e-15 -2.695435e-13) (-1.332495e-13 -1.088094e-13 -3.294223e-09))
454.961908    	((-5.626187e-12 1.645617e-11 -6.653932e-13) (6.901010e-12 -1.300245e-11 -1.228998e-12)) ((-3.610487e-16 -1.466467e-15 -2.669740e-13) (-1.249460e-13 -1.076921e-13 -3.200842e-09))
545.966289    	((-4.885348e-12 1.762006e-11 -3.861359e-13) (6.457645e-12 -1.193734e-11 -1.272600e-12)) ((-2.402105e-16 -1.393443e-15 -2.643036e-13) (-1.091232e-13 -9.921015e-14 -3.116516e-09))
655.171547    	((-2.892381e-12 1.912806e-11 -2.520955e-13) (5.703439e-12 -1.093358e-11 -1.312715e-12)) ((-1.493733e-16 -1.285605e-15 -2.614955e-13) (-9.616835e-14 -8.935264e-14 -3.040619e-09))
786.217856    	((-5.647772e-13 2.110467e-11 -8.869259e-13) (4.928504e-12 -1.022909e-11 -1.437302e-12)) ((-1.011917e-16 -1.198466e-15 -2.585844e-13) (-8.556141e-14 -8.402725e-14 -2.972563e-09))
943.473427    	((5.254485e-13 2.184590e-11 -1.359949e-12) (4.500541e-12 -9.759027e-12 -1.539353e-12)) ((-3.972530e-17 -1.133482e-15 -2.558213e-13) (-7.763714e-14 -8.126224e-14 -2.911793e-09))
1132.180113   	((1.388748e-12 2.223045e-11 -1.133462e-12) (4.531049e-12 -9.416710e-12 -1.460960e-12)) ((-2.267037e-17 -1.021255e-15 -2.533811e-13) (-7.409484e-14 -7.501071e-14 -2.857789e-09))
1358.628135   	((1.940062e-12 2.265044e-11 -9.296591e-13) (4.881822e-12 -9.580761e-12 -1.407224e-12)) ((-9.239203e-17 -9.883571e-16 -2.508503e-13) (-7.122875e-14 -6.918291e-14 -2.810029e-09))
1630.365763   	((2.297472e-12 2.271065e-11 -6.595395e-13) (5.352729e-12 -9.582060e-12 -1.377675e-12)) ((-1.660891e-16 -9.469510e-16 -2.488941e-13) (-6.617881e-14 -6.449772e-14 -2.768005e-09))
1956.450915   	((2.895550e-12 2.231027e-11 -3.454078e-13) (5.682536e-12 -9.641826e-12 -1.304345e-12)) ((-2.548125e-16 -9.406641e-16 -2.472022e-13) (-6.119586e-14 -5.938739e-14 -2.731234e-09))
2347.753098   	((3.978617e-12 2.190977e-11 -1.182092e-13) (5.875504e-12 -9.739215e-12 -1.261980e-12)) ((-3.568890e-16 -9.708025e-16 -2.457103e-13) (-5.726734e-14 -5.505321e-14 -2.699242e-09))
2817.315718   	((3.926042e-12 2.213817e-11 -7.241589e-14) (5.873512e-12 -9.863152e-12 -1.244716e-12)) ((-4.220658e-16 -9.977787e-16 -2.444072e-13) (-5.549268e-14 -5.186706e-14 -2.671558e-09))
3380.790861   	((3.859600e-12 2.239416e-11 -3.670680e-13) (5.817475e-12 -9.979430e-12 -1.245755e-12)) ((-5.272362e-16 -1.072775e-15 -2.433167e-13) (-5.539694e-14 -4.828533e-14 -2.647739e-09))
4046.298965   	((3.981501e-12 2.307185e-11 -5.044142e-13) (5.670749e-12 -1.006530e-11 -1.257295e-12)) ((-5.503432e-16 -1.070170e-15 -2.423687e-13) (-5.397419e-14 -4.314649e-14 -2.627384e-09))
4813.848726   	((4.033982e-12 2.326352e-11 -6.642196e-13) (5.463734e-12 -1.019364e-11 -1.302582e-12)) ((-5.189036e-16 -1.043762e-15 -2.415772e-13) (-5.139461e-14 -3.906776e-14 -2.610110e-09))
5683.448024   	((4.023416e-12 2.315553e-11 -8.268333e-13) (5.305750e-12 -1.035068e-11 -1.320829e-12)) ((-4.739304e-16 -1.008496e-15 -2.408998e-13) (-4.922212e-14 -3.611822e-14 -2.595547e-09))
6655.10383    	((3.730167e-12 2.274232e-11 -9.904247e-13) (5.187538e-12 -1.050818e-11 -1.324430e-12)) ((-4.385038e-16 -9.731512e-16 -2.403291e-13) (-4.685863e-14 -3.422243e-14 -2.583339e-09))
7675.72948    	((3.306398e-12 2.204821e-11 -1.152634e-12) (5.079275e-12 -1.065995e-11 -1.330632e-12)) ((-4.079021e-16 -9.448060e-16 -2.398463e-13) (-4.455568e-14 -3.267538e-14 -2.573171e-09))
8696.406086   	((2.989040e-12 2.143618e-11 -1.168118e-12) (4.982132e-12 -1.079103e-11 -1.346094e-12)) ((-3.841403e-16 -9.207753e-16 -2.394411e-13) (-4.218707e-14 -3.118349e-14 -2.564752e-09))
9717.125117   	((2.780785e-12 2.091110e-11 -1.013224e-12) (4.894858e-12 -1.088648e-11 -1.361487e-12)) ((-3.661029e-16 -8.999988e-16 -2.391077e-13) (-3.996710e-14 -2.990842e-14 -2.557806e-09))
10737.879792  	((2.772084e-12 2.040419e-11 -8.241992e-13) (4.834905e-12 -1.094664e-11 -1.372628e-12)) ((-3.536785e-16 -8.836378e-16 -2.388305e-13) (-3.776172e-14 -2.898516e-14 -2.552088e-09))
11758.6643    	((2.886022e-12 1.990466e-11 -6.808956e-13) (4.789907e-12 -1.099069e-11 -1.381156e-12)) ((-3.408499e-16 -8.710763e-16 -2.386026e-13) (-3.575142e-14 -2.845864e-14 -2.547389e-09))
12779.473655  	((3.080476e-12 1.946260e-11 -5.047254e-13) (4.755960e-12 -1.102612e-11 -1.386721e-12)) ((-3.314022e-16 -8.629761e-16 -2.384152e-13) (-3.394723e-14 -2.817677e-14 -2.543529e-09))
13800.303616  	((3.259595e-12 1.905545e-11 -3.295069e-13) (4.729138e-12 -1.105444e-11 -1.389605e-12)) ((-3.237076e-16 -8.558720e-16 -2.382618e-13) (-3.241698e-14 -2.796884e-14 -2.540361e-09))
14821.15067   	((3.379414e-12 1.869188e-11 -2.158591e-13) (4.708573e-12 -1.107281e-11 -1.391107e-12)) ((-3.180907e-16 -8.490962e-16 -2.381351e-13) (-3.103890e-14 -2.788456e-14 -2.537760e-09))
15842.0119    	((3.431857e-12 1.838593e-11 -1.042615e-13) (4.689497e-12 -1.108438e-11 -1.392425e-12)) ((-3.137826e-16 -8.405952e-16 -2.380314e-13) (-2.983787e-14 -2.792002e-14 -2.535626e-09))
16862.884884  	((3.442867e-12 1.815691e-11 1.983775e-15) (4.669831e-12 -1.108902e-11 -1.394123e-12)) ((-3.107824e-16 -8.332609e-16 -2.379472e-13) (-2.879430e-14 -2.801824e-14 -2.533874e-09))
17883.767613  	((3.438869e-12 1.798560e-11 1.177824e-13) (4.653100e-12 -1.109018e-11 -1.394903e-12)) ((-3.085432e-16 -8.283573e-16 -2.378781e-13) (-2.795631e-14 -2.815717e-14 -2.532437e-09))
18904.6584    	((3.409554e-12 1.787148e-11 2.031366e-13) (4.638862e-12 -1.108878e-11 -1.395298e-12)) ((-3.070098e-16 -8.244267e-16 -2.378230e-13) (-2.727585e-14 -2.830564e-14 -2.531256e-09))
19925.555835  	((3.355991e-12 1.780755e-11 2.817860e-13) (4.625753e-12 -1.108569e-11 -1.395743e-12)) ((-3.062098e-16 -8.221483e-16 -2.377791e-13) (-2.674233e-14 -2.846244e-14 -2.530287e-09))
20946.458754  	((3.284789e-12 1.777959e-11 3.356950e-13) (4.614650e-12 -1.108191e-11 -1.396446e-12)) ((-3.057552e-16 -8.203339e-16 -2.377439e-13) (-2.631947e-14 -2.858919e-14 -2.529491e-09))
21967.366197  	((3.199293e-12 1.777963e-11 3.754296e-13) (4.604435e-12 -1.107819e-11 -1.396905e-12)) ((-3.055338e-16 -8.186660e-16 -2.377153e-13) (-2.597307e-14 -2.870162e-14 -2.528838e-09))
22988.277368  	((3.105524e-12 1.779714e-11 4.154397e-13) (4.594770e-12 -1.107451e-11 -1.397289e-12)) ((-3.053672e-16 -8.169819e-16 -2.376917e-13) (-2.568982e-14 -2.879353e-14 -2.528301e-09))
24009.191611  	((3.009706e-12 1.782317e-11 4.534105e-13) (4.586265e-12 -1.107112e-11 -1.397428e-12)) ((-3.053685e-16 -8.152062e-16 -2.376728e-13) (-2.545658e-14 -2.886869e-14 -2.527860e-09))
