# Forces      
# CofR        : (0.000000e+00 0.000000e+00 0.000000e+00)
# Time        forces(pressure viscous)	moments(pressure viscous)
0             	((0.000000e+00 0.000000e+00 0.000000e+00) (0.000000e+00 0.000000e+00 0.000000e+00)) ((0.000000e+00 0.000000e+00 0.000000e+00) (0.000000e+00 0.000000e+00 0.000000e+00))
0.012         	((-2.394501e-10 1.134770e-07 2.427874e-10) (6.783343e-12 2.892263e-09 -9.580908e-12)) ((-3.103435e-14 2.037642e-14 -2.586924e-09) (1.202370e-14 -2.346944e-13 -3.509093e-06))
0.0264        	((-1.128496e-09 1.683465e-08 2.750951e-11) (1.497146e-11 4.269217e-09 -1.750981e-11)) ((1.985114e-14 -2.302008e-13 -1.195727e-09) (1.125789e-15 -6.374435e-13 -3.214514e-06))
0.04368       	((8.942704e-11 5.355914e-08 9.016102e-10) (3.576798e-12 4.524202e-09 -2.541298e-11)) ((-3.380805e-14 -2.740691e-13 -6.637588e-10) (-1.293018e-14 -1.188057e-12 -2.911990e-06))
0.064416      	((-6.332232e-10 -6.625510e-09 -7.601084e-10) (-4.200338e-11 3.942530e-09 -4.172365e-11)) ((2.371338e-14 -1.623613e-13 -3.703380e-10) (-1.991492e-14 -1.848989e-12 -2.608567e-06))
0.0892992     	((2.941482e-09 2.373431e-08 5.674825e-10) (-9.417553e-11 3.331172e-09 -6.525866e-11)) ((-4.413824e-14 -4.005684e-13 -2.863164e-10) (1.344331e-14 -2.676378e-12 -2.313492e-06))
0.119159      	((-1.137838e-09 -2.666956e-09 1.407563e-10) (-1.248322e-10 2.802331e-09 -8.126035e-11)) ((2.140377e-14 -2.589652e-13 -2.215307e-10) (1.915530e-13 -3.307328e-12 -2.036151e-06))
0.154991      	((5.232583e-10 1.231317e-08 -8.799692e-11) (-1.333858e-10 2.657829e-09 -8.925225e-11)) ((-3.939191e-14 -2.263420e-13 -1.859824e-10) (3.708768e-13 -3.713133e-12 -1.783115e-06))
0.197989      	((-6.844381e-10 5.163170e-09 2.004576e-10) (-1.036100e-10 2.491742e-09 -9.192386e-11)) ((-5.599745e-14 -2.322332e-13 -1.537981e-10) (3.266730e-13 -3.777367e-12 -1.559175e-06))
0.249587      	((7.373799e-10 7.119387e-09 1.725042e-11) (-4.615138e-11 2.324488e-09 -9.455089e-11)) ((-7.209054e-14 -1.902058e-13 -1.275122e-10) (1.348537e-13 -3.608911e-12 -1.366398e-06))
0.311504      	((-3.120936e-10 6.424693e-09 7.105317e-11) (6.779288e-12 2.161524e-09 -9.169179e-11)) ((-2.299368e-14 -9.334630e-14 -1.054415e-10) (-1.068963e-13 -3.234495e-12 -1.203949e-06))
0.385805      	((1.008236e-09 6.470921e-09 -1.893040e-10) (-2.810440e-11 1.980087e-09 -8.178426e-11)) ((8.745272e-15 -3.571836e-14 -8.906121e-11) (-3.436041e-13 -2.828483e-12 -1.068311e-06))
0.474966      	((-2.440326e-09 7.556975e-09 1.338576e-10) (-5.284336e-11 1.798510e-09 -8.475402e-11)) ((3.769341e-14 -5.441354e-14 -7.721712e-11) (-2.231478e-13 -2.484923e-12 -9.544399e-07))
0.581959      	((-1.402940e-09 5.972099e-09 1.399008e-10) (-5.637118e-11 1.604941e-09 -7.782525e-11)) ((3.787951e-14 -2.622261e-14 -6.561199e-11) (2.501878e-13 -1.687454e-12 -8.575987e-07))
0.710351      	((-1.840086e-09 5.048459e-09 -3.091544e-11) (-2.199427e-10 1.372465e-09 -5.867048e-11)) ((8.447462e-14 5.525558e-14 -5.408888e-11) (1.006301e-12 -7.959792e-13 -7.739833e-07))
0.864421      	((3.377132e-10 7.451313e-09 -4.312359e-10) (-3.531441e-10 1.032474e-09 -5.732921e-11)) ((5.518158e-14 6.253294e-14 -4.611363e-11) (1.802495e-12 -3.768791e-13 -7.007651e-07))
1.049306      	((9.503280e-10 7.210513e-09 -1.758442e-10) (-3.882958e-10 7.152141e-10 -6.622900e-11)) ((4.552843e-14 1.088382e-13 -4.107399e-11) (1.663451e-12 -3.239570e-13 -6.358757e-07))
1.271167      	((1.506324e-09 7.578762e-09 -1.611088e-10) (-4.831579e-10 6.044096e-10 -7.336658e-11)) ((2.337172e-14 1.655058e-13 -3.735302e-11) (5.810167e-13 -1.517194e-12 -5.778259e-07))
1.5374        	((-2.606664e-10 7.919289e-09 -1.303764e-10) (-4.217306e-10 4.255020e-10 -8.524752e-11)) ((-3.385882e-14 2.415401e-13 -3.361673e-11) (-1.588857e-12 -3.559117e-12 -5.256596e-07))
1.85688       	((-8.668375e-10 8.990687e-09 1.267908e-10) (-1.042852e-10 2.429222e-10 -8.462214e-11)) ((-7.798913e-14 2.202880e-13 -2.999216e-11) (-4.990642e-12 -5.364556e-12 -4.788427e-07))
2.240256      	((-1.044856e-09 7.507367e-09 1.096906e-10) (1.777831e-10 2.180456e-10 -4.229347e-11)) ((-9.824180e-14 1.923496e-13 -2.737400e-11) (-9.036111e-12 -7.001100e-12 -4.370991e-07))
2.700307      	((1.477765e-10 6.500426e-09 1.969330e-10) (3.908186e-10 2.180950e-10 1.474377e-11)) ((-1.213079e-13 1.986324e-13 -2.487261e-11) (-1.215741e-11 -8.237353e-12 -4.001926e-07))
3.252369      	((1.011459e-09 3.918704e-09 8.735518e-11) (5.564207e-10 4.959425e-11 5.637484e-11)) ((-1.415731e-13 1.441095e-13 -2.227532e-11) (-1.438988e-11 -1.007305e-11 -3.677630e-07))
3.914842      	((8.717849e-10 1.890515e-09 2.725272e-10) (6.781538e-10 -2.363236e-10 6.017778e-11)) ((-1.906086e-13 6.663267e-14 -1.948882e-11) (-1.622833e-11 -1.205621e-11 -3.392986e-07))
4.709811      	((-3.732773e-11 9.434136e-10 2.824894e-10) (6.004315e-10 -4.516169e-10 4.718872e-11)) ((-2.124677e-13 -5.305525e-14 -1.693234e-11) (-1.650362e-11 -1.202290e-11 -3.141793e-07))
5.663773      	((1.258495e-09 8.002873e-11 2.661149e-10) (4.630154e-10 -7.239048e-10 -2.252932e-11)) ((-2.400925e-13 -9.942643e-14 -1.461215e-11) (-1.536110e-11 -1.113852e-11 -2.917654e-07))
6.808528      	((1.249586e-09 4.452669e-10 2.796642e-10) (1.893305e-10 -6.392966e-10 -8.436258e-11)) ((-1.895904e-13 -1.924942e-13 -1.288327e-11) (-1.419276e-11 -9.580488e-12 -2.715160e-07))
8.182233      	((1.557900e-09 3.999304e-10 2.547833e-10) (2.659996e-11 -5.536846e-10 -1.136953e-10)) ((-2.102781e-13 -2.130659e-13 -1.159977e-11) (-1.303269e-11 -7.146636e-12 -2.530635e-07))
9.83068       	((1.373220e-09 4.663931e-10 -1.016297e-10) (-1.005032e-10 -4.161691e-10 -1.518543e-10)) ((-2.295667e-13 -2.094852e-13 -1.057526e-11) (-9.932527e-12 -5.306230e-12 -2.361538e-07))
11.808816     	((1.234386e-09 2.914785e-10 2.674680e-11) (-2.157845e-10 -2.392791e-10 -1.388020e-10)) ((-1.877775e-13 -2.046629e-13 -9.715520e-12) (-6.239253e-12 -4.832570e-12 -2.205744e-07))
14.182579     	((9.668944e-10 6.193230e-10 -2.159621e-10) (-2.385435e-10 -1.989882e-10 -1.373994e-10)) ((-1.266557e-13 -2.123203e-13 -9.006689e-12) (-3.516653e-12 -4.284626e-12 -2.061806e-07))
17.031095     	((1.183794e-09 1.362898e-10 -8.648130e-11) (-2.075362e-10 3.109500e-11 -1.021657e-10)) ((-9.753630e-14 -1.809506e-13 -8.431231e-12) (-1.772222e-12 -4.111027e-12 -1.929156e-07))
20.449314     	((-1.288243e-10 -1.939604e-10 -4.058529e-11) (-3.084476e-10 6.333238e-11 -4.355411e-11)) ((-6.026965e-14 -1.666996e-13 -7.944860e-12) (-5.969139e-13 -4.369836e-12 -1.807748e-07))
24.551176     	((4.752571e-11 -4.741035e-10 1.891619e-11) (-2.823264e-10 6.880795e-11 -1.853901e-11)) ((-1.744267e-14 -1.464893e-13 -7.491566e-12) (9.951313e-13 -5.047396e-12 -1.697389e-07))
29.473411     	((-4.909168e-10 -3.514554e-10 -1.147174e-12) (-2.752689e-10 1.158982e-10 -8.821019e-12)) ((2.043407e-14 -1.123441e-13 -7.127321e-12) (2.151066e-12 -5.995548e-12 -1.597578e-07))
35.380094     	((-4.862104e-10 -3.728796e-10 -1.666731e-11) (-1.730754e-10 1.769755e-10 -2.657990e-11)) ((2.908685e-14 -9.168210e-14 -6.853141e-12) (2.672934e-12 -6.657736e-12 -1.507620e-07))
42.468112     	((-4.083989e-10 2.139744e-10 6.481546e-12) (-9.525070e-11 2.732728e-10 -2.194334e-11)) ((7.562126e-15 -9.151047e-14 -6.552020e-12) (2.664417e-12 -7.279623e-12 -1.426478e-07))
50.973735     	((-2.686946e-10 1.717232e-10 -7.071617e-11) (-1.336541e-10 1.910976e-10 -1.780047e-11)) ((-3.944831e-15 -9.046288e-14 -6.271337e-12) (2.417787e-12 -7.660270e-12 -1.353036e-07))
61.180482     	((4.323677e-11 4.832637e-10 -8.102771e-11) (-1.023307e-10 5.068580e-11 6.547834e-12)) ((8.051165e-16 -1.098880e-13 -6.030799e-12) (2.185696e-12 -6.766700e-12 -1.286361e-07))
73.428578     	((6.990240e-11 3.961255e-10 -5.360092e-11) (-1.425022e-10 -9.601892e-11 5.740897e-12)) ((4.606229e-15 -1.139054e-13 -5.771237e-12) (2.013096e-12 -5.595696e-12 -1.225775e-07))
88.126294     	((1.632334e-10 4.392295e-10 -6.326829e-11) (-2.225606e-10 -7.479535e-11 -3.822220e-12)) ((1.173254e-14 -1.139930e-13 -5.463003e-12) (1.805792e-12 -4.469369e-12 -1.170894e-07))
105.763553    	((-1.420276e-10 3.982598e-10 -4.651454e-11) (-3.244707e-10 1.464510e-11 9.902512e-12)) ((1.365550e-14 -1.154693e-13 -5.251726e-12) (1.353984e-12 -3.122926e-12 -1.121475e-07))
126.928263    	((-3.495185e-10 2.949672e-10 -2.928204e-11) (-4.330033e-10 -2.576373e-11 1.037786e-11)) ((1.247708e-14 -1.082537e-13 -5.099231e-12) (8.179644e-13 -1.507057e-12 -1.077261e-07))
152.150426    	((-5.483983e-10 1.055135e-10 -5.041259e-11) (-4.018382e-10 -6.716760e-11 2.654551e-12)) ((1.371631e-14 -1.078739e-13 -5.015452e-12) (3.653738e-13 1.765456e-13 -1.038061e-07))
181.429225    	((-7.697285e-10 -3.690111e-11 -8.027912e-11) (-4.202390e-10 -1.034137e-10 5.640097e-12)) ((1.144805e-14 -1.089369e-13 -4.945178e-12) (-3.188261e-13 1.654207e-12 -1.003849e-07))
214.763754    	((-9.394692e-10 -8.328604e-11 -5.623227e-11) (-5.206562e-10 -5.687318e-11 5.689650e-12)) ((5.552336e-15 -1.106781e-13 -4.871930e-12) (-6.664774e-13 2.947317e-12 -9.743643e-08))
252.152997    	((-9.001134e-10 -1.275815e-10 -6.750414e-11) (-5.171387e-10 -4.841639e-12 -1.743662e-12)) ((3.487180e-15 -1.117663e-13 -4.779434e-12) (-3.879453e-13 3.670387e-12 -9.492719e-08))
292.688268    	((-8.460813e-10 -2.673147e-11 -1.238106e-10) (-4.901560e-10 4.850812e-11 -3.738276e-12)) ((5.192628e-15 -1.050412e-13 -4.703903e-12) (2.967950e-13 3.465745e-12 -9.283490e-08))
333.210373    	((-7.531007e-10 -2.226338e-11 -1.006684e-10) (-4.982083e-10 3.486393e-11 -2.375917e-12)) ((1.038558e-15 -9.758443e-14 -4.635743e-12) (1.019338e-12 2.812735e-12 -9.115535e-08))
373.719455    	((-6.378874e-10 6.927321e-11 -6.439977e-11) (-4.982033e-10 -2.760464e-13 4.718917e-12)) ((-3.382427e-15 -9.674595e-14 -4.582869e-12) (1.760496e-12 2.265159e-12 -8.983127e-08))
414.215474    	((-5.585058e-10 1.075364e-10 -3.035157e-11) (-4.323744e-10 -5.105039e-11 1.864678e-11)) ((-9.126181e-15 -9.281223e-14 -4.535751e-12) (2.357452e-12 1.836550e-12 -8.881445e-08))
454.698407    	((-4.326318e-10 1.302760e-10 -4.788483e-11) (-3.811663e-10 -6.185356e-11 2.620160e-11)) ((-1.571919e-14 -8.756008e-14 -4.501267e-12) (2.690066e-12 1.523831e-12 -8.805184e-08))
495.168521    	((-3.680324e-10 1.606936e-10 -4.121752e-11) (-3.608619e-10 -8.650210e-12 2.618555e-11)) ((-1.784696e-14 -8.042035e-14 -4.468308e-12) (2.862686e-12 1.390821e-12 -8.750210e-08))
535.626737    	((-3.254303e-10 1.936094e-10 -4.103057e-11) (-3.353065e-10 5.018783e-11 2.134983e-11)) ((-1.872461e-14 -7.312298e-14 -4.444865e-12) (2.991105e-12 1.385512e-12 -8.712893e-08))
576.074002    	((-2.696492e-10 2.018663e-10 -1.943091e-11) (-3.192444e-10 7.129297e-11 1.607867e-11)) ((-2.273299e-14 -6.821512e-14 -4.418969e-12) (3.115268e-12 1.357735e-12 -8.690385e-08))
616.509431    	((-2.161619e-10 2.233133e-10 1.212792e-11) (-3.180142e-10 5.833922e-11 1.162857e-11)) ((-2.754149e-14 -6.401389e-14 -4.387608e-12) (3.165317e-12 1.268185e-12 -8.680241e-08))
656.933437    	((-1.611719e-10 2.259565e-10 1.594208e-11) (-3.297713e-10 4.637432e-11 1.036062e-11)) ((-3.109690e-14 -6.016092e-14 -4.359981e-12) (3.280495e-12 1.263844e-12 -8.680347e-08))
697.346852    	((-1.330118e-10 2.075302e-10 1.739976e-11) (-3.635303e-10 4.040366e-11 1.409733e-11)) ((-3.406550e-14 -5.728133e-14 -4.328344e-12) (3.392935e-12 1.379845e-12 -8.688943e-08))
737.750468    	((-1.022887e-10 2.091768e-10 2.367309e-11) (-3.994452e-10 3.508670e-11 1.843022e-11)) ((-3.752689e-14 -5.478912e-14 -4.298893e-12) (3.483166e-12 1.508112e-12 -8.704467e-08))
778.145031    	((-7.506098e-11 2.203186e-10 2.087057e-11) (-4.237348e-10 1.757601e-11 2.268383e-11)) ((-4.033187e-14 -5.294353e-14 -4.275188e-12) (3.487940e-12 1.554093e-12 -8.725478e-08))
818.531395    	((-5.195402e-11 2.415882e-10 2.649826e-11) (-4.412969e-10 1.060230e-11 2.762078e-11)) ((-4.300503e-14 -5.175637e-14 -4.254195e-12) (3.491362e-12 1.597506e-12 -8.750745e-08))
858.910537    	((-5.594930e-12 2.816721e-10 2.425593e-11) (-4.457022e-10 1.215034e-11 3.296610e-11)) ((-4.478143e-14 -5.025826e-14 -4.237783e-12) (3.429467e-12 1.675868e-12 -8.779151e-08))
899.283274    	((2.721223e-11 2.955489e-10 1.808423e-11) (-4.443789e-10 2.264177e-11 3.676637e-11)) ((-4.640416e-14 -4.982829e-14 -4.229364e-12) (3.323182e-12 1.785647e-12 -8.809741e-08))
939.650426    	((3.376634e-11 3.058079e-10 1.398621e-11) (-4.434040e-10 3.846023e-11 3.819462e-11)) ((-4.722222e-14 -5.040811e-14 -4.226233e-12) (3.214278e-12 1.865520e-12 -8.841678e-08))
