# Forces      
# CofR        : (0.000000e+00 0.000000e+00 0.000000e+00)
# Time        forces(pressure viscous)	moments(pressure viscous)
0             	((0.000000e+00 0.000000e+00 0.000000e+00) (0.000000e+00 0.000000e+00 0.000000e+00)) ((0.000000e+00 0.000000e+00 0.000000e+00) (0.000000e+00 0.000000e+00 0.000000e+00))
0.012         	((6.900008e-11 -1.136068e-10 -2.725647e-08) (2.810998e-13 -5.982734e-13 -5.728726e-10)) ((1.229536e-14 -1.060917e-09 5.534150e-16) (-2.183250e-15 -7.002906e-07 4.148087e-14))
0.0264        	((-1.170951e-10 1.195252e-10 1.024585e-08) (1.705693e-13 -1.696439e-12 -9.963167e-10)) ((2.642834e-15 -5.318620e-10 -5.160527e-14) (-2.011890e-14 -6.414170e-07 5.864985e-14))
0.04368       	((-4.394166e-10 -6.509234e-10 -9.496961e-09) (-1.406797e-12 -1.304019e-12 -1.081311e-09)) ((-9.584109e-15 -2.943613e-10 -3.361874e-14) (3.263056e-14 -5.809315e-07 8.579133e-14))
0.064416      	((1.422797e-10 1.729822e-10 -3.536848e-10) (-5.049145e-12 8.825876e-13 -8.918447e-10)) ((-9.430982e-16 -1.686497e-10 2.263122e-15) (1.128914e-13 -5.201680e-07 1.154327e-13))
0.0892992     	((-3.161679e-10 -1.978727e-10 -1.120813e-09) (-1.016533e-11 3.227468e-12 -7.351268e-10)) ((1.856643e-15 -1.259963e-10 2.713222e-16) (1.613616e-13 -4.609116e-07 1.220686e-13))
0.119159      	((2.476500e-10 5.645629e-11 -2.499756e-10) (-1.356034e-11 5.531273e-12 -6.240081e-10)) ((-2.466281e-15 -9.112649e-11 6.706608e-16) (2.291594e-13 -4.049954e-07 1.363972e-13))
0.154991      	((7.857455e-11 1.366705e-10 7.915886e-10) (-1.671272e-11 8.704409e-12 -5.060774e-10)) ((1.406681e-15 -7.253802e-11 -5.186446e-15) (3.033838e-13 -3.537146e-07 1.531741e-13))
0.197989      	((5.956641e-11 7.698896e-11 -5.403594e-11) (-1.942755e-11 1.125912e-11 -4.000124e-10)) ((1.450782e-15 -5.801002e-11 -5.506429e-15) (3.258430e-13 -3.082660e-07 1.671427e-13))
0.249587      	((-1.075814e-10 9.945178e-11 6.729730e-10) (-1.720912e-11 1.245414e-11 -3.211100e-10)) ((4.395485e-15 -4.802864e-11 2.824320e-15) (3.145943e-13 -2.692761e-07 1.651945e-13))
0.311504      	((-7.121385e-11 -3.380084e-11 1.271271e-10) (-1.161274e-11 1.345203e-11 -2.568063e-10)) ((1.365884e-15 -4.017167e-11 4.520255e-15) (3.138534e-13 -2.366386e-07 1.318786e-13))
0.385805      	((-7.103565e-11 -5.468713e-11 -2.766758e-11) (-4.297933e-12 1.382433e-11 -2.019448e-10)) ((5.421119e-16 -3.463625e-11 7.909362e-15) (3.092558e-13 -2.096531e-07 1.156331e-13))
0.474966      	((1.121814e-10 1.912577e-11 -2.473508e-10) (1.195073e-12 1.566197e-11 -1.485568e-10)) ((1.557519e-15 -3.096310e-11 6.635425e-15) (2.913736e-13 -1.872661e-07 9.967564e-14))
0.581959      	((2.040590e-11 8.848389e-11 1.284669e-10) (4.436029e-12 1.781156e-11 -1.055243e-10)) ((2.784812e-15 -2.775355e-11 4.794550e-15) (2.335216e-13 -1.684013e-07 4.121039e-14))
0.710351      	((1.658369e-10 1.046353e-10 -3.589821e-10) (6.204494e-12 1.352597e-11 -8.252645e-11)) ((2.918986e-15 -2.467662e-11 2.875058e-15) (7.600563e-14 -1.521770e-07 1.013280e-13))
0.864421      	((1.559179e-10 9.005988e-11 -1.421539e-10) (1.477144e-11 3.677565e-12 -6.189372e-11)) ((4.195590e-15 -2.259648e-11 -3.162654e-16) (-2.977966e-14 -1.379632e-07 2.717200e-13))
1.049306      	((5.986220e-10 8.025442e-11 -1.628523e-10) (6.683927e-12 -6.896845e-12 -1.915639e-11)) ((4.722587e-15 -2.129005e-11 -4.882321e-15) (5.863843e-15 -1.253371e-07 4.070875e-13))
1.271167      	((3.982674e-10 6.683661e-11 -2.727538e-10) (-1.383409e-11 -1.724855e-11 1.898204e-11)) ((3.252679e-15 -1.998492e-11 -3.166541e-15) (-1.235878e-13 -1.140098e-07 3.613812e-13))
1.5374        	((7.351656e-10 -3.350553e-11 -3.426682e-10) (-1.909026e-11 -2.376766e-11 4.546136e-11)) ((-5.269961e-15 -1.843481e-11 -7.102784e-15) (-4.362724e-13 -1.037940e-07 2.407474e-13))
1.85688       	((4.271963e-10 6.721945e-11 -3.201021e-10) (-2.814684e-11 -2.578007e-11 8.484618e-11)) ((-7.943406e-15 -1.698479e-11 -2.961876e-15) (-8.025588e-13 -9.458643e-08 -1.258044e-13))
2.240256      	((2.952074e-10 1.450171e-11 -4.289896e-10) (-4.961583e-11 -1.846603e-11 1.071696e-10)) ((-1.292302e-14 -1.595142e-11 -3.304118e-15) (-1.204000e-12 -8.633545e-08 -8.026764e-13))
2.700307      	((1.511811e-10 2.288182e-11 -3.998855e-10) (-9.487056e-11 -1.080677e-11 1.226451e-10)) ((-1.223687e-14 -1.520997e-11 -5.794476e-15) (-1.840849e-12 -7.900237e-08 -1.763485e-12))
3.252369      	((-1.413278e-12 2.089647e-11 -2.850634e-10) (-1.354130e-10 -5.100670e-12 1.655297e-10)) ((-1.154895e-14 -1.438476e-11 -7.476785e-15) (-2.395596e-12 -7.253325e-08 -2.911262e-12))
3.914842      	((-9.995615e-12 2.825375e-11 -9.720614e-11) (-1.630465e-10 2.267095e-12 2.293215e-10)) ((-4.784095e-15 -1.349435e-11 -1.200864e-14) (-3.002756e-12 -6.684535e-08 -3.605248e-12))
4.709811      	((-2.051766e-11 4.135789e-11 3.427711e-11) (-2.001140e-10 8.848954e-12 2.620248e-10)) ((-2.555101e-15 -1.256537e-11 -1.220414e-14) (-3.508760e-12 -6.182867e-08 -3.897420e-12))
5.663773      	((5.759877e-11 3.379887e-11 6.868818e-11) (-2.117128e-10 5.075115e-12 2.513894e-10)) ((-4.739305e-15 -1.161623e-11 -6.904026e-15) (-3.431657e-12 -5.736362e-08 -3.749681e-12))
6.808528      	((-6.378558e-12 2.159120e-11 4.388778e-11) (-1.951416e-10 -6.195281e-13 2.408014e-10)) ((-8.114596e-15 -1.062779e-11 -3.593778e-15) (-3.074020e-12 -5.334547e-08 -3.313396e-12))
8.182233      	((-5.575218e-11 1.139379e-11 -4.954945e-12) (-1.871489e-10 9.798348e-13 2.057321e-10)) ((-5.340300e-15 -9.681799e-12 -2.274253e-15) (-2.575494e-12 -4.969497e-08 -2.951597e-12))
9.83068       	((-6.571152e-11 2.471657e-11 2.960395e-12) (-1.567661e-10 -2.797244e-13 1.511499e-10)) ((-4.895345e-15 -8.765968e-12 -6.054689e-16) (-2.088042e-12 -4.635237e-08 -2.474568e-12))
11.808816     	((-1.635777e-11 -1.779441e-11 -4.759481e-11) (-1.232678e-10 -9.653994e-12 1.044743e-10)) ((-1.853383e-15 -7.943034e-12 6.069210e-15) (-1.850272e-12 -4.327577e-08 -1.785044e-12))
14.182579     	((1.306724e-11 1.750155e-11 -1.117921e-10) (-8.853097e-11 -1.615417e-11 7.324329e-11)) ((7.704866e-16 -7.199632e-12 9.093319e-15) (-1.480875e-12 -4.043952e-08 -1.164061e-12))
17.031095     	((-2.748824e-12 -1.662205e-11 -1.021180e-10) (-5.750417e-11 -1.839849e-11 5.030342e-11)) ((2.693654e-15 -6.546222e-12 8.054848e-15) (-1.053579e-12 -3.782863e-08 -6.324125e-13))
20.449314     	((3.191870e-11 1.934437e-11 -7.400366e-11) (-3.799075e-11 -1.526773e-11 4.247667e-11)) ((5.697576e-15 -5.963357e-12 8.292902e-15) (-6.730527e-13 -3.543596e-08 -3.433890e-13))
24.551176     	((3.202944e-11 3.787727e-12 -4.743002e-11) (-2.456779e-11 -1.168100e-11 5.189477e-11)) ((8.559701e-15 -5.462236e-12 8.181592e-15) (-4.376701e-13 -3.325211e-08 -1.631380e-13))
29.473411     	((5.691019e-11 8.152561e-12 -5.621556e-11) (-1.952461e-11 -1.146296e-11 6.007762e-11)) ((1.003108e-14 -5.032712e-12 7.616904e-15) (-3.700592e-13 -3.126319e-08 6.381027e-14))
35.380094     	((4.868419e-11 1.332373e-12 -4.362714e-11) (-1.403212e-11 -1.119760e-11 6.992588e-11)) ((1.088342e-14 -4.647072e-12 7.250175e-15) (-4.473676e-13 -2.945285e-08 1.847523e-13))
42.468112     	((4.659002e-11 3.532090e-12 -7.229319e-11) (-9.103001e-12 -1.159931e-11 7.838285e-11)) ((1.038616e-14 -4.308050e-12 6.273354e-15) (-6.311327e-13 -2.780566e-08 1.764884e-13))
50.973735     	((3.557133e-11 -1.357213e-12 -5.991787e-11) (-9.714075e-12 -1.192987e-11 8.032167e-11)) ((9.783860e-15 -4.002850e-12 5.607775e-15) (-7.812311e-13 -2.630673e-08 1.014586e-13))
61.180482     	((4.474709e-11 -3.778384e-12 -1.820814e-11) (-1.494049e-11 -1.175413e-11 8.722772e-11)) ((8.567677e-15 -3.739582e-12 4.902375e-15) (-8.700618e-13 -2.494206e-08 -4.393682e-14))
73.428578     	((5.233944e-11 -3.208312e-13 -6.970358e-12) (-2.157216e-11 -9.732441e-12 9.275083e-11)) ((8.116493e-15 -3.513961e-12 4.557057e-15) (-8.784967e-13 -2.370025e-08 -2.680638e-13))
88.126294     	((2.180241e-11 -3.247315e-12 -1.200569e-11) (-2.288736e-11 -6.398464e-12 9.698525e-11)) ((7.960130e-15 -3.316191e-12 3.283103e-15) (-8.121992e-13 -2.257153e-08 -4.534684e-13))
105.763553    	((-6.589963e-12 -9.062307e-12 -2.140530e-11) (-2.715211e-11 -4.094057e-12 1.003143e-10)) ((7.608046e-15 -3.140208e-12 2.118339e-15) (-6.584641e-13 -2.154772e-08 -5.887468e-13))
126.928263    	((1.051107e-11 -8.337374e-12 -2.370700e-11) (-2.720555e-11 -2.802082e-12 1.011200e-10)) ((6.919120e-15 -2.978488e-12 1.576794e-15) (-5.073196e-13 -2.062105e-08 -6.310731e-13))
152.325916    	((4.458715e-12 -3.159446e-12 -2.591198e-11) (-2.180851e-11 -2.188532e-12 9.421695e-11)) ((6.083828e-15 -2.832149e-12 1.936235e-15) (-4.146798e-13 -1.978212e-08 -6.265493e-13))
182.803099    	((1.298612e-11 -4.226168e-13 -2.674807e-11) (-2.092384e-11 -5.021553e-13 7.925319e-11)) ((4.865753e-15 -2.701774e-12 2.614653e-15) (-3.297497e-13 -1.902189e-08 -6.410802e-13))
219.375719    	((2.659923e-11 -4.292992e-13 -2.578465e-11) (-1.924625e-11 1.719348e-12 6.967151e-11)) ((3.799848e-15 -2.581607e-12 3.136970e-15) (-2.594620e-13 -1.833221e-08 -6.633373e-13))
263.262863    	((3.120799e-11 -1.243546e-12 -2.425303e-11) (-1.365837e-11 3.982793e-12 6.491313e-11)) ((2.806061e-15 -2.469313e-12 3.037160e-15) (-2.146295e-13 -1.770651e-08 -6.506447e-13))
315.927436    	((3.559976e-11 -5.550881e-12 -1.843189e-11) (-9.546671e-12 4.356811e-12 6.074387e-11)) ((1.918193e-15 -2.369594e-12 2.527005e-15) (-1.766345e-13 -1.713984e-08 -6.139679e-13))
379.124923    	((3.936187e-11 -3.392917e-12 -1.615803e-11) (-9.218263e-12 3.831865e-12 5.869184e-11)) ((1.008810e-15 -2.279742e-12 2.108785e-15) (-1.451209e-13 -1.662777e-08 -6.309753e-13))
454.961908    	((3.818840e-11 -7.807574e-12 -1.770746e-11) (-9.050277e-12 3.410179e-12 5.646996e-11)) ((5.406663e-16 -2.196958e-12 1.949960e-15) (-8.056278e-14 -1.616628e-08 -6.567903e-13))
545.966289    	((3.781237e-11 -5.501614e-12 -1.482755e-11) (-1.019473e-11 3.990092e-12 5.057153e-11)) ((2.273407e-16 -2.121933e-12 1.990137e-15) (-1.746030e-14 -1.575167e-08 -6.786158e-13))
655.171547    	((3.732427e-11 -7.490041e-12 -8.820462e-12) (-1.021649e-11 4.363955e-12 4.912636e-11)) ((-1.005443e-16 -2.056499e-12 1.775781e-15) (3.152973e-14 -1.538083e-08 -6.785863e-13))
784.711946    	((4.176350e-11 -7.258483e-12 -4.854733e-12) (-8.714377e-12 4.201851e-12 4.543699e-11)) ((-1.389753e-16 -1.999792e-12 1.847402e-15) (7.271250e-14 -1.505152e-08 -6.501200e-13))
934.586887    	((4.478102e-11 -8.699309e-12 4.181053e-13) (-7.593900e-12 3.604064e-12 4.201724e-11)) ((-9.467413e-17 -1.951300e-12 1.754089e-15) (1.113323e-13 -1.476196e-08 -6.004802e-13))
1104.796642   	((4.924028e-11 -8.101644e-12 4.495269e-12) (-6.171326e-12 3.720841e-12 3.944054e-11)) ((3.397744e-18 -1.909351e-12 1.692846e-15) (1.394560e-13 -1.450946e-08 -5.570102e-13))
1295.341948   	((5.216176e-11 -6.306948e-12 5.847783e-12) (-3.603176e-12 4.181247e-12 3.869451e-11)) ((6.292882e-17 -1.873283e-12 1.813456e-15) (1.513782e-13 -1.429083e-08 -5.144868e-13))
1498.705866   	((5.342107e-11 -2.480610e-12 7.881747e-12) (-1.055182e-12 4.684350e-12 3.798422e-11)) ((3.146985e-17 -1.842487e-12 1.884715e-15) (1.515213e-13 -1.410335e-08 -4.715048e-13))
1702.085049   	((5.569616e-11 -5.021490e-12 1.142774e-11) (1.843269e-12 4.912557e-12 3.811530e-11)) ((9.062343e-17 -1.816584e-12 1.802565e-15) (1.451550e-13 -1.394434e-08 -4.243498e-13))
1905.481985   	((5.750778e-11 -6.323447e-12 1.206668e-11) (4.343596e-12 4.390453e-12 4.032882e-11)) ((1.777335e-16 -1.794757e-12 1.770192e-15) (1.420060e-13 -1.381016e-08 -3.790891e-13))
2108.890573   	((5.983485e-11 -6.063706e-12 1.406235e-11) (7.545226e-12 3.619922e-12 4.092978e-11)) ((3.046062e-16 -1.775724e-12 1.736176e-15) (1.396807e-13 -1.369712e-08 -3.423225e-13))
2312.31368    	((6.255609e-11 -5.515589e-12 1.471135e-11) (1.037583e-11 2.789200e-12 3.967551e-11)) ((4.163394e-16 -1.759218e-12 1.779652e-15) (1.327607e-13 -1.360160e-08 -3.117093e-13))
2515.753433   	((6.339983e-11 -4.353499e-12 1.630937e-11) (1.261577e-11 2.294966e-12 3.820152e-11)) ((5.184511e-16 -1.744996e-12 1.774835e-15) (1.288223e-13 -1.352062e-08 -2.824374e-13))
2719.205776   	((6.364094e-11 -4.405497e-12 1.612737e-11) (1.410654e-11 1.951128e-12 3.727772e-11)) ((6.420040e-16 -1.732820e-12 1.778076e-15) (1.293460e-13 -1.345163e-08 -2.552923e-13))
2922.66324    	((6.347758e-11 -3.725030e-12 1.622584e-11) (1.527640e-11 1.877203e-12 3.650740e-11)) ((6.765847e-16 -1.722705e-12 1.744529e-15) (1.321695e-13 -1.339258e-08 -2.325202e-13))
3126.126082   	((6.257161e-11 -3.685419e-12 1.603668e-11) (1.595770e-11 1.983014e-12 3.562869e-11)) ((7.159110e-16 -1.713971e-12 1.704782e-15) (1.358783e-13 -1.334175e-08 -2.127343e-13))
3329.594313   	((6.167491e-11 -3.584405e-12 1.644776e-11) (1.635373e-11 2.169041e-12 3.468758e-11)) ((7.474316e-16 -1.706330e-12 1.641512e-15) (1.363379e-13 -1.329781e-08 -1.996238e-13))
3533.067816   	((6.075642e-11 -3.531475e-12 1.670040e-11) (1.697602e-11 2.374912e-12 3.410844e-11)) ((8.098658e-16 -1.699600e-12 1.613845e-15) (1.333135e-13 -1.325967e-08 -1.900375e-13))
3736.546502   	((5.954085e-11 -3.701354e-12 1.699813e-11) (1.765323e-11 2.518081e-12 3.383443e-11)) ((8.675726e-16 -1.693683e-12 1.576108e-15) (1.293539e-13 -1.322643e-08 -1.820206e-13))
3940.030244   	((5.835994e-11 -3.760711e-12 1.702982e-11) (1.831438e-11 2.589126e-12 3.361492e-11)) ((8.899044e-16 -1.688354e-12 1.539710e-15) (1.247027e-13 -1.319737e-08 -1.745781e-13))
4143.518737   	((5.757690e-11 -3.442442e-12 1.728778e-11) (1.878688e-11 2.604696e-12 3.324409e-11)) ((9.074953e-16 -1.683620e-12 1.515388e-15) (1.183721e-13 -1.317189e-08 -1.676287e-13))
4347.011858   	((5.682986e-11 -3.095539e-12 1.753828e-11) (1.911064e-11 2.655438e-12 3.295822e-11)) ((9.293560e-16 -1.679446e-12 1.482798e-15) (1.130961e-13 -1.314949e-08 -1.608386e-13))
4550.509646   	((5.596095e-11 -2.830215e-12 1.787210e-11) (1.932181e-11 2.758057e-12 3.282522e-11)) ((9.642902e-16 -1.675747e-12 1.454929e-15) (1.080585e-13 -1.312974e-08 -1.542353e-13))
4754.011751   	((5.505814e-11 -2.934993e-12 1.816423e-11) (1.948518e-11 2.879754e-12 3.275262e-11)) ((1.009293e-15 -1.672490e-12 1.432416e-15) (1.032312e-13 -1.311230e-08 -1.479793e-13))
