# Forces      
# CofR        : (0.000000e+00 0.000000e+00 0.000000e+00)
# Time        forces(pressure viscous)	moments(pressure viscous)
0             	((0.000000e+00 0.000000e+00 0.000000e+00) (0.000000e+00 0.000000e+00 0.000000e+00)) ((0.000000e+00 0.000000e+00 0.000000e+00) (0.000000e+00 0.000000e+00 0.000000e+00))
0.012         	((8.041206e-10 -1.152920e-09 -2.729802e-07) (1.361377e-11 -6.061840e-12 -5.784944e-09)) ((1.226491e-13 -1.068817e-08 4.642195e-15) (-5.256666e-14 -7.003192e-06 4.234005e-13))
0.0264        	((-1.522578e-09 1.134805e-09 1.022467e-07) (4.772173e-12 -1.647670e-11 -1.004819e-08)) ((2.594397e-14 -5.435602e-09 -5.163387e-13) (-2.213864e-13 -6.414908e-06 6.160384e-13))
0.04368       	((-6.996315e-09 -6.627778e-09 -9.517468e-08) (-9.703842e-12 -1.039888e-11 -1.103290e-08)) ((-1.055994e-13 -3.105196e-09 -3.286637e-13) (5.969740e-13 -5.812016e-06 9.814502e-13))
0.064416      	((5.040768e-09 1.280380e-09 -1.947793e-09) (-1.582186e-10 1.675636e-11 -9.064681e-09)) ((-4.393612e-14 -1.881754e-09 -1.713496e-14) (1.947716e-12 -5.209064e-06 1.296582e-12))
0.0892992     	((1.051081e-09 -1.827301e-09 -4.985896e-09) (-4.751145e-10 3.438269e-11 -7.214099e-09)) ((-2.819762e-15 -1.476548e-09 -4.101954e-14) (3.039074e-12 -4.624997e-06 1.609546e-12))
0.119159      	((5.058357e-09 8.670947e-10 -4.355445e-09) (-6.041410e-10 5.377356e-11 -6.019860e-09)) ((-5.131941e-15 -1.133331e-09 -1.885883e-14) (3.915530e-12 -4.078668e-06 1.624926e-12))
0.154991      	((-1.409225e-09 1.986224e-09 9.809488e-09) (-4.169267e-10 9.276887e-11 -4.936275e-09)) ((5.722297e-14 -9.424888e-10 -2.557634e-14) (4.431833e-12 -3.583210e-06 9.809260e-13))
0.197989      	((-8.707729e-10 6.040785e-10 -2.349974e-09) (-9.436279e-11 1.219491e-10 -4.176288e-09)) ((-3.848114e-14 -7.721270e-10 8.900534e-15) (4.517216e-12 -3.145702e-06 5.380390e-13))
0.249587      	((-2.529139e-09 9.851646e-10 3.734539e-09) (9.416318e-11 1.334122e-10 -3.491065e-09)) ((-3.474834e-14 -6.558907e-10 6.547537e-15) (4.459333e-12 -2.767604e-06 2.605896e-13))
0.311504      	((-3.095460e-09 -6.176754e-10 -1.827640e-09) (9.336335e-11 1.331409e-10 -2.845125e-09)) ((-1.093042e-14 -5.679531e-10 4.587172e-14) (4.291158e-12 -2.446290e-06 3.363725e-13))
0.385805      	((2.108969e-09 2.798233e-10 4.345630e-11) (7.192480e-11 1.275619e-10 -2.474222e-09)) ((1.921125e-14 -5.057809e-10 3.983823e-14) (4.315740e-12 -2.174468e-06 6.020833e-13))
0.474966      	((4.529269e-09 -3.117130e-11 8.821988e-11) (2.918154e-10 1.216713e-10 -2.053648e-09)) ((-1.173972e-14 -4.591273e-10 1.456762e-14) (4.443032e-12 -1.942970e-06 7.973264e-13))
0.581959      	((1.369097e-09 -1.427733e-11 1.189362e-09) (4.404696e-10 1.187848e-10 -1.149031e-09)) ((1.430218e-14 -4.151471e-10 -1.255500e-14) (4.428211e-12 -1.744293e-06 7.994405e-13))
0.710351      	((3.350066e-09 -3.175991e-10 3.463772e-09) (2.643454e-10 8.532588e-11 -3.923839e-10)) ((1.306035e-14 -3.725525e-10 -4.787595e-14) (3.801996e-12 -1.572110e-06 -1.920447e-13))
0.864421      	((6.037890e-09 -1.677228e-10 -3.618425e-09) (4.302095e-10 -2.452355e-11 7.114697e-11)) ((-4.389558e-14 -3.407205e-10 -8.737302e-14) (3.334706e-12 -1.421370e-06 -8.143964e-13))
1.049306      	((9.226008e-09 -3.140602e-10 -2.525326e-10) (4.219191e-10 -1.107879e-10 2.608661e-10)) ((-9.957025e-14 -3.174833e-10 -8.929722e-14) (3.151153e-12 -1.288090e-06 -5.556635e-13))
1.271167      	((7.047080e-09 -7.609065e-10 -3.630699e-09) (1.298590e-10 -1.276563e-10 5.051160e-10)) ((-2.104553e-14 -2.961464e-10 -3.226421e-14) (2.395801e-12 -1.169269e-06 -2.177837e-12))
1.5374        	((6.406406e-09 -5.463887e-12 -1.522999e-09) (-1.041617e-10 -1.032937e-10 9.712964e-10)) ((-1.315904e-13 -2.707035e-10 -6.028592e-14) (1.597109e-12 -1.062904e-06 -4.347196e-12))
1.85688       	((5.073337e-09 5.495593e-10 -3.737202e-09) (-2.934004e-10 -7.472280e-11 1.132159e-09)) ((-1.251104e-13 -2.444783e-10 -8.673698e-14) (-8.878426e-13 -9.679005e-07 -7.871253e-12))
2.240256      	((6.496463e-09 9.280951e-10 -3.404361e-10) (-6.009902e-10 -5.719854e-12 1.054060e-09)) ((-1.589093e-13 -2.228911e-10 -1.279680e-13) (-3.844788e-12 -8.836553e-07 -1.183222e-11))
2.700307      	((6.745034e-09 1.415837e-09 -3.502814e-09) (-1.014618e-09 1.322453e-11 5.566476e-10)) ((-1.598739e-13 -2.043270e-10 -6.399125e-14) (-6.768587e-12 -8.095421e-07 -1.410010e-11))
3.252369      	((6.408675e-09 8.295817e-10 2.039165e-09) (-9.122286e-10 6.176256e-11 4.899568e-10)) ((-2.147448e-13 -1.860522e-10 -7.731653e-15) (-7.621736e-12 -7.446163e-07 -1.435646e-11))
3.914842      	((6.171346e-09 9.879539e-10 2.295595e-09) (-5.753860e-10 -1.998448e-11 4.804756e-10)) ((-1.790371e-13 -1.682101e-10 -2.076033e-15) (-9.589082e-12 -6.876301e-07 -1.507926e-11))
4.709811      	((4.284194e-09 1.143234e-09 4.606336e-09) (-2.442205e-10 -1.589931e-10 7.774824e-11)) ((-1.499484e-13 -1.523085e-10 4.177174e-14) (-8.669751e-12 -6.372109e-07 -1.519134e-11))
5.663773      	((2.817816e-09 1.230703e-09 2.486989e-09) (1.847078e-10 -1.994747e-10 -1.816915e-10)) ((-6.528547e-14 -1.366938e-10 9.349370e-14) (-3.978503e-12 -5.920640e-07 -1.221965e-11))
6.808528      	((1.111668e-09 1.492540e-09 1.621642e-09) (7.700981e-10 -2.230650e-10 -4.445978e-10)) ((-4.606442e-14 -1.229200e-10 1.521757e-13) (1.433252e-12 -5.511968e-07 -9.539787e-12))
8.182233      	((-4.301879e-10 1.232887e-09 1.024254e-10) (8.090415e-10 -1.870271e-10 -7.321219e-10)) ((-9.813899e-14 -1.103746e-10 1.642963e-13) (6.721132e-12 -5.139370e-07 -6.745797e-12))
9.83068       	((-1.012484e-09 2.726552e-10 9.342102e-10) (8.407125e-10 -2.678337e-10 -6.301562e-10)) ((1.197027e-15 -9.929877e-11 1.694768e-13) (5.851219e-12 -4.797910e-07 -3.117877e-12))
11.808816     	((-3.539607e-10 9.798058e-11 -5.337183e-10) (2.303975e-10 -2.910663e-10 -5.351929e-10)) ((1.576044e-13 -8.935740e-11 1.302109e-13) (1.149388e-12 -4.483372e-07 -1.412717e-13))
14.182579     	((-5.484010e-10 -3.917931e-10 2.182530e-10) (-3.415027e-10 -2.787161e-10 -3.187950e-10)) ((2.494916e-13 -8.040956e-11 4.446362e-14) (-3.035857e-12 -4.193301e-07 3.104487e-12))
17.031095     	((-3.390543e-10 -5.502084e-11 4.469948e-10) (-1.710254e-11 -2.234906e-10 -3.001077e-10)) ((2.858271e-13 -7.293963e-11 -3.027816e-14) (-6.346003e-12 -3.927165e-07 5.839703e-12))
20.449314     	((-1.302982e-10 -1.976195e-10 -4.132532e-10) (1.822295e-10 -1.662281e-10 -2.825963e-11)) ((3.025728e-13 -6.685622e-11 -1.040636e-14) (-9.161699e-12 -3.685035e-07 9.247734e-12))
24.551176     	((-1.044478e-09 2.594534e-11 -5.960346e-10) (1.613300e-10 -1.042609e-10 1.504134e-10)) ((2.708280e-13 -6.166512e-11 1.651735e-15) (-1.203815e-11 -3.466588e-07 1.240286e-11))
29.473411     	((-1.305460e-09 1.700731e-11 -7.026102e-10) (2.973159e-10 -1.101177e-10 3.612973e-10)) ((2.205495e-13 -5.691712e-11 6.597050e-16) (-1.509258e-11 -3.270835e-07 1.444766e-11))
35.380094     	((-2.137939e-09 -1.842148e-10 -1.199015e-09) (5.209798e-10 -9.476765e-11 2.056993e-10)) ((1.801858e-13 -5.259935e-11 -1.245681e-14) (-1.864064e-11 -3.095814e-07 1.560287e-11))
42.468112     	((-1.928117e-09 -1.300778e-10 -1.795679e-09) (6.799195e-10 -4.172174e-11 9.183712e-12)) ((1.560981e-13 -4.919205e-11 -1.803070e-14) (-1.962093e-11 -2.938891e-07 1.576700e-11))
50.973735     	((-2.083034e-09 -4.204441e-10 -1.977795e-09) (5.571719e-10 -5.528053e-11 -2.059146e-10)) ((1.660906e-13 -4.625214e-11 -1.065789e-15) (-1.886676e-11 -2.798049e-07 1.654737e-11))
61.180482     	((-1.371599e-09 -2.676251e-10 -1.805637e-09) (6.774383e-10 -6.114135e-11 -5.466939e-10)) ((1.527510e-13 -4.362619e-11 -7.766485e-15) (-1.733520e-11 -2.671931e-07 1.559205e-11))
73.421278     	((-9.287157e-10 -4.538699e-10 -1.605845e-09) (6.603802e-10 -8.700107e-11 -6.630127e-10)) ((1.134325e-13 -4.097573e-11 1.951789e-14) (-1.358082e-11 -2.559590e-07 1.542122e-11))
87.695864     	((-1.923509e-10 -3.011775e-10 -1.741014e-09) (9.749660e-10 -6.479758e-11 -5.813360e-10)) ((6.612441e-14 -3.866053e-11 7.035287e-14) (-8.917631e-12 -2.461903e-07 1.579408e-11))
104.003903    	((-3.050038e-10 -3.087897e-10 -2.250449e-09) (1.228932e-09 -2.140010e-11 -4.114817e-10)) ((5.558109e-14 -3.663821e-11 1.020714e-13) (-4.047658e-12 -2.378717e-07 1.571438e-11))
122.34501     	((1.530787e-10 -2.028532e-10 -2.042060e-09) (1.336617e-09 -1.790032e-11 -5.506972e-10)) ((5.619217e-14 -3.493689e-11 1.046703e-13) (-5.109881e-13 -2.309303e-07 1.623974e-11))
142.67106     	((-4.434673e-11 -3.355436e-10 -1.724686e-09) (1.257357e-09 -1.291238e-11 -4.649462e-10)) ((4.978444e-14 -3.353209e-11 9.031861e-14) (6.325070e-13 -2.252618e-07 1.761514e-11))
162.991215    	((2.635364e-10 -2.120808e-10 -1.433158e-09) (1.221639e-09 -3.924329e-11 -3.117719e-10)) ((3.815206e-14 -3.249390e-11 7.363384e-14) (-5.535647e-13 -2.209372e-07 1.931013e-11))
183.305162    	((4.311531e-10 -8.114376e-11 -1.034113e-09) (1.332393e-09 -4.069097e-11 -3.595493e-11)) ((5.568017e-14 -3.162017e-11 6.051554e-14) (-2.600659e-12 -2.177400e-07 2.045602e-11))
203.612567    	((5.297920e-10 -7.461812e-11 -4.533641e-10) (1.308516e-09 -4.612111e-11 1.213110e-10)) ((5.756262e-14 -3.101732e-11 4.127716e-14) (-4.470221e-12 -2.155230e-07 2.038129e-11))
223.912931    	((4.689931e-10 -6.498497e-11 -1.723375e-10) (1.170191e-09 -3.528050e-11 3.590024e-12)) ((5.300928e-14 -3.061727e-11 2.542060e-14) (-5.431680e-12 -2.141321e-07 1.877460e-11))
244.205841    	((1.951218e-10 -4.645253e-11 -5.622177e-12) (1.090607e-09 -3.711064e-11 3.896411e-11)) ((3.534258e-14 -3.032764e-11 1.704680e-14) (-5.716898e-12 -2.134613e-07 1.626101e-11))
264.491066    	((1.766337e-10 -1.218948e-10 8.835346e-11) (9.339546e-10 -5.579268e-11 1.323470e-10)) ((3.593719e-14 -3.013563e-11 1.112045e-15) (-5.695103e-12 -2.134004e-07 1.368815e-11))
284.768486    	((-7.876288e-11 -7.021721e-11 -7.120895e-12) (8.579638e-10 -5.420637e-11 1.562233e-10)) ((5.378245e-14 -3.004793e-11 -9.926301e-15) (-5.496325e-12 -2.138567e-07 1.163055e-11))
305.03799     	((2.283967e-11 -8.312943e-11 2.850342e-11) (7.816556e-10 -3.807783e-11 6.350689e-11)) ((5.025624e-14 -3.007287e-11 -1.205565e-14) (-4.800136e-12 -2.147490e-07 1.036115e-11))
325.299513    	((5.084705e-11 5.377720e-11 6.426052e-11) (7.908544e-10 -2.015358e-11 -2.857617e-11)) ((5.690717e-14 -3.020283e-11 -2.177665e-14) (-3.628394e-12 -2.160072e-07 9.583826e-12))
345.553094    	((2.147226e-10 7.924228e-11 3.340777e-11) (8.362347e-10 4.953179e-12 -6.861177e-11)) ((5.770627e-14 -3.039202e-11 -2.933813e-14) (-2.258363e-12 -2.175620e-07 9.306912e-12))
365.79866     	((3.201735e-10 9.756970e-11 2.594430e-11) (8.935761e-10 2.941501e-11 -7.490875e-11)) ((6.323563e-14 -3.065441e-11 -3.429672e-14) (-1.870254e-12 -2.193434e-07 9.874611e-12))
386.036142    	((4.288073e-10 4.149913e-11 -7.950379e-11) (9.692467e-10 3.148559e-11 -6.279976e-11)) ((6.549583e-14 -3.093349e-11 -3.757037e-14) (-2.307726e-12 -2.212823e-07 1.117288e-11))
406.265597    	((3.622613e-10 -3.023400e-11 -9.690627e-11) (1.025981e-09 1.879439e-11 -5.162034e-11)) ((6.898092e-14 -3.122984e-11 -4.007937e-14) (-3.294951e-12 -2.233089e-07 1.265326e-11))
426.487077    	((4.050549e-10 -3.346904e-11 -8.961519e-11) (1.081721e-09 8.653650e-13 -2.814540e-11)) ((7.139393e-14 -3.155735e-11 -4.361381e-14) (-4.694096e-12 -2.253503e-07 1.389695e-11))
446.700614    	((3.542095e-10 -4.091444e-11 -7.293596e-11) (1.101393e-09 -1.776473e-11 1.370553e-11)) ((7.697461e-14 -3.191017e-11 -4.629634e-14) (-6.251182e-12 -2.273426e-07 1.468338e-11))
466.906343    	((2.708109e-10 -8.657627e-11 3.406940e-11) (1.096946e-09 -3.064768e-11 7.020430e-11)) ((8.177164e-14 -3.226558e-11 -4.654096e-14) (-7.609562e-12 -2.292301e-07 1.493214e-11))
