# Forces      
# CofR        : (0.000000e+00 0.000000e+00 0.000000e+00)
# Time        forces(pressure viscous)	moments(pressure viscous)
0             	((0.000000e+00 0.000000e+00 0.000000e+00) (4.514029e-15 7.983092e-05 -1.024276e-14)) ((0.000000e+00 0.000000e+00 0.000000e+00) (2.274464e-15 -2.094870e-17 -2.905608e-11))
0.012         	((-3.373938e-10 2.321823e-02 -3.414691e-09) (-5.346188e-11 9.160324e-05 -6.991273e-11)) ((9.157753e-12 -3.030078e-14 -4.385583e-09) (3.916749e-13 1.236275e-14 -5.988771e-11))
0.0264        	((-1.337075e-07 -1.630714e-03 4.473577e-09) (-1.876284e-10 9.343877e-05 -6.113922e-11)) ((-1.944393e-11 -2.166040e-12 2.894082e-10) (-5.621306e-13 -1.155132e-13 -8.037657e-11))
0.04368       	((3.341017e-07 -4.844889e-03 -1.592157e-07) (1.003562e-10 8.301354e-05 -1.148554e-10)) ((-1.093706e-11 2.947271e-12 1.168690e-09) (-3.187460e-12 -1.776332e-13 -6.883307e-11))
0.064416      	((-4.810650e-08 -4.588767e-05 7.913535e-08) (1.528070e-09 7.351755e-05 9.174525e-10)) ((8.053514e-12 1.128916e-12 -5.776169e-11) (5.994200e-12 -3.968078e-13 -8.755619e-11))
0.0892992     	((-6.114458e-08 6.107456e-05 6.305183e-08) (1.722634e-09 6.786654e-05 1.768297e-09)) ((8.845700e-13 -2.571198e-12 -6.604460e-11) (9.382631e-12 -5.936210e-13 -9.660485e-11))
0.119159      	((3.775093e-08 -7.359909e-05 9.180036e-08) (9.701844e-10 6.266562e-05 1.819096e-09)) ((6.640250e-12 6.619896e-13 2.257495e-11) (-8.936558e-12 -1.223767e-12 -8.429787e-11))
0.154991      	((-1.510876e-08 -3.922171e-05 1.243691e-08) (6.629616e-10 5.716177e-05 1.663973e-09)) ((4.520782e-12 1.344897e-12 2.758705e-12) (-2.356173e-11 -3.025753e-12 -5.185208e-11))
0.197989      	((1.275850e-08 -9.469170e-06 -5.386074e-09) (2.506868e-10 5.162185e-05 1.237031e-09)) ((4.879424e-12 8.301189e-13 -1.722684e-12) (-2.117968e-11 -5.735002e-12 -1.635831e-11))
0.249587      	((1.548302e-09 1.356292e-06 -2.232285e-09) (-1.115654e-10 4.620308e-05 8.843105e-10)) ((2.887258e-12 3.894554e-13 -4.408509e-12) (-1.476799e-11 -6.859185e-12 9.663540e-13))
0.311504      	((-4.024883e-09 6.279757e-06 -9.804276e-10) (-3.217652e-10 4.107151e-05 5.903377e-10)) ((2.270323e-12 1.788298e-13 -5.012104e-12) (-8.284789e-12 -5.316133e-12 2.659009e-11))
0.385805      	((-1.591013e-09 8.652699e-06 -6.696198e-10) (-4.313578e-10 3.636018e-05 4.258335e-10)) ((1.749854e-12 1.094689e-13 -3.418490e-12) (-1.689794e-12 -3.116827e-12 4.379538e-11))
0.474966      	((-1.035812e-09 9.843565e-06 -1.184775e-09) (-2.749302e-10 3.215049e-05 3.475839e-10)) ((1.153876e-12 1.275804e-14 -2.847803e-12) (3.045873e-12 -1.868390e-12 4.328025e-11))
0.581959      	((-2.388561e-10 1.034864e-05 -1.061450e-09) (1.770857e-10 2.845810e-05 2.676407e-10)) ((6.992779e-13 -2.757872e-15 -2.531994e-12) (5.504484e-12 -1.372983e-12 2.816089e-11))
0.710351      	((2.527589e-11 1.032186e-05 -1.193212e-09) (5.639013e-10 2.526783e-05 1.754068e-10)) ((4.361435e-13 -1.357614e-14 -2.132177e-12) (6.556628e-12 -1.264251e-12 1.276876e-11))
0.864421      	((4.442781e-10 9.954064e-06 -7.317922e-10) (7.433491e-10 2.253954e-05 9.946826e-11)) ((2.221287e-13 -2.883077e-14 -2.412383e-12) (5.917562e-12 -1.306576e-12 6.124985e-13))
1.049306      	((6.177281e-10 9.404948e-06 -5.994554e-10) (8.728250e-10 2.021107e-05 7.039024e-11)) ((8.582770e-14 -2.143933e-14 -2.433103e-12) (4.299975e-12 -1.268090e-12 -1.231359e-11))
1.271167      	((5.311120e-10 8.785676e-06 -3.761199e-10) (7.995905e-10 1.821697e-05 5.468060e-11)) ((7.443856e-15 -1.840567e-14 -2.108607e-12) (3.428600e-12 -1.192021e-12 -2.652461e-11))
1.5374        	((4.943212e-10 8.141143e-06 -2.292157e-10) (5.920484e-10 1.649035e-05 3.555391e-11)) ((-2.445670e-14 -1.461207e-14 -2.017008e-12) (2.938068e-12 -1.186874e-12 -3.787378e-11))
1.85688       	((4.711034e-10 7.507726e-06 -2.234036e-10) (4.856645e-10 1.497243e-05 1.715620e-11)) ((-2.820291e-14 -1.121564e-14 -1.945878e-12) (2.024553e-12 -1.077376e-12 -4.548475e-11))
2.240256      	((6.409833e-10 6.908099e-06 -2.100849e-10) (4.251448e-10 1.362363e-05 3.134615e-12)) ((-2.113578e-14 -1.143370e-14 -1.907524e-12) (4.133492e-13 -9.179614e-13 -5.204244e-11))
2.700307      	((6.319580e-10 6.350902e-06 -2.074153e-10) (3.148132e-10 1.241776e-05 -1.175241e-11)) ((-1.771473e-14 -6.491112e-15 -1.849059e-12) (-1.209432e-12 -8.691376e-13 -5.536848e-11))
3.252369      	((4.562609e-10 5.835358e-06 -3.021450e-10) (2.008144e-10 1.133550e-05 -2.834146e-11)) ((-7.364686e-15 -1.095734e-14 -1.772354e-12) (-2.498635e-12 -7.985087e-13 -5.259663e-11))
3.914842      	((2.407693e-10 5.357176e-06 -4.516569e-10) (1.132759e-10 1.036183e-05 -4.422384e-11)) ((-1.026930e-15 -1.150960e-14 -1.649837e-12) (-3.407773e-12 -7.425496e-13 -4.381006e-11))
4.709811      	((-3.088817e-11 4.917684e-06 -6.018070e-10) (4.223412e-11 9.485513e-06 -5.339964e-11)) ((9.321875e-15 -1.954249e-14 -1.460580e-12) (-3.648634e-12 -6.699291e-13 -3.820030e-11))
5.663773      	((-4.068127e-10 4.518509e-06 -7.856474e-10) (1.983292e-11 8.698512e-06 -5.636745e-11)) ((2.228202e-14 -2.573270e-14 -1.276252e-12) (-3.728762e-12 -5.220060e-13 -4.030257e-11))
6.808528      	((-3.150429e-10 4.159473e-06 -7.797017e-10) (3.610190e-11 7.993641e-06 -5.093894e-11)) ((2.839640e-14 -2.230830e-14 -1.094133e-12) (-3.851386e-12 -4.402680e-13 -4.366116e-11))
8.182233      	((-2.238703e-10 3.839100e-06 -7.792293e-10) (4.771045e-11 7.362795e-06 -3.658334e-11)) ((2.901119e-14 -2.064304e-14 -9.323248e-13) (-4.050290e-12 -2.991958e-13 -4.534404e-11))
9.83068       	((-9.858455e-11 3.555293e-06 -9.160951e-10) (3.869354e-11 6.797084e-06 -2.085832e-11)) ((3.002074e-14 -2.280341e-14 -8.407428e-13) (-4.644440e-12 -1.886680e-13 -4.347706e-11))
11.808816     	((-3.677968e-10 3.304766e-06 -1.049378e-09) (-1.719674e-11 6.288067e-06 -1.899076e-11)) ((3.141034e-14 -2.689679e-14 -8.092959e-13) (-6.569816e-12 -1.405911e-13 -3.706889e-11))
14.182579     	((-8.128986e-10 3.085174e-06 -1.266393e-09) (-8.775364e-11 5.829018e-06 -4.471993e-11)) ((3.625827e-14 -3.004163e-14 -7.951186e-13) (-1.074037e-11 -1.062311e-13 -2.860208e-11))
17.031095     	((-8.169590e-10 2.895981e-06 -1.240118e-09) (-1.355956e-10 5.414842e-06 -8.708627e-11)) ((3.836248e-14 -3.115249e-14 -8.006991e-13) (-1.673022e-11 -7.347117e-14 -1.787529e-11))
20.449314     	((-7.659846e-10 2.737385e-06 -1.157423e-09) (-1.667962e-10 5.041719e-06 -1.212054e-10)) ((4.131365e-14 -2.796296e-14 -8.323442e-13) (-2.259734e-11 -1.234958e-13 -5.966414e-12))
24.551176     	((-6.479846e-10 2.607406e-06 -1.136726e-09) (-1.815033e-10 4.706810e-06 -1.511796e-10)) ((4.057152e-14 -2.730060e-14 -8.919879e-13) (-2.681892e-11 -1.745993e-13 4.050869e-12))
29.473411     	((-4.573359e-10 2.505902e-06 -8.810375e-10) (-1.745486e-10 4.407942e-06 -1.663007e-10)) ((3.770169e-14 -2.787616e-14 -9.698775e-13) (-2.973709e-11 -2.210046e-13 1.156713e-11))
35.380094     	((-1.961669e-10 2.430751e-06 -6.199482e-10) (-1.679509e-10 4.143035e-06 -1.705698e-10)) ((3.574464e-14 -2.774686e-14 -1.061851e-12) (-3.305831e-11 -3.905289e-13 1.881218e-11))
42.468112     	((1.073532e-10 2.382049e-06 -2.771369e-10) (-1.557970e-10 3.910011e-06 -1.677047e-10)) ((3.004912e-14 -2.604888e-14 -1.177393e-12) (-3.779368e-11 -5.280862e-13 2.706412e-11))
50.973735     	((6.499694e-10 2.357398e-06 1.983488e-10) (-1.398181e-10 3.706946e-06 -1.565827e-10)) ((2.183162e-14 -2.335446e-14 -1.325289e-12) (-4.402384e-11 -5.506443e-13 3.663741e-11))
61.180482     	((1.026623e-09 2.355824e-06 7.083808e-10) (-1.218371e-10 3.532250e-06 -1.371181e-10)) ((1.748893e-14 -2.049378e-14 -1.493914e-12) (-5.186843e-11 -5.145828e-13 4.779636e-11))
73.428578     	((1.578687e-09 2.373534e-06 1.289311e-09) (-8.755150e-11 3.384249e-06 -1.043043e-10)) ((1.288038e-14 -1.917908e-14 -1.684374e-12) (-6.034258e-11 -5.220473e-13 6.019385e-11))
88.126294     	((2.073202e-09 2.406388e-06 1.863401e-09) (-5.167546e-11 3.261429e-06 -6.607825e-11)) ((7.970920e-15 -1.973786e-14 -1.894576e-12) (-6.814737e-11 -6.261345e-13 7.211879e-11))
105.763553    	((2.585061e-09 2.449647e-06 2.413754e-09) (-4.352142e-12 3.161882e-06 -1.036423e-11)) ((-6.446787e-16 -1.625006e-14 -2.091714e-12) (-7.376787e-11 -6.245365e-13 8.084350e-11))
126.47183     	((3.252459e-09 2.496098e-06 3.071452e-09) (6.798616e-11 3.083600e-06 6.189219e-11)) ((-1.351832e-14 -1.725938e-14 -2.265979e-12) (-7.770935e-11 -5.553055e-13 8.526223e-11))
150.231577    	((3.819803e-09 2.537323e-06 3.613077e-09) (1.788023e-10 3.022502e-06 1.680286e-10)) ((-2.001738e-14 -1.837918e-14 -2.391207e-12) (-7.832431e-11 -5.367076e-13 8.640937e-11))
177.030104    	((4.483657e-09 2.567294e-06 4.221578e-09) (3.191292e-10 2.973952e-06 3.003162e-10)) ((-2.908917e-14 -1.814018e-14 -2.472744e-12) (-7.681851e-11 -4.518288e-13 8.539908e-11))
206.866188    	((4.955015e-09 2.584995e-06 4.653607e-09) (4.974971e-10 2.933967e-06 4.605775e-10)) ((-3.405490e-14 -1.886988e-14 -2.536400e-12) (-7.367176e-11 -3.714829e-13 8.273452e-11))
237.305383    	((5.185711e-09 2.596158e-06 4.868534e-09) (6.746479e-10 2.901208e-06 6.129854e-10)) ((-3.660975e-14 -1.959920e-14 -2.592217e-12) (-7.007731e-11 -3.115181e-13 7.928081e-11))
267.811372    	((5.286174e-09 2.600971e-06 4.960379e-09) (8.438230e-10 2.873686e-06 7.661316e-10)) ((-3.913947e-14 -1.943713e-14 -2.642132e-12) (-6.569548e-11 -3.440665e-13 7.514894e-11))
298.35834     	((5.277915e-09 2.603139e-06 4.981009e-09) (9.877089e-10 2.850508e-06 9.005797e-10)) ((-4.111697e-14 -1.983249e-14 -2.678816e-12) (-6.098002e-11 -4.293707e-13 7.044288e-11))
328.929123    	((5.159191e-09 2.603954e-06 4.869681e-09) (1.100776e-09 2.830959e-06 1.005157e-09)) ((-4.006933e-14 -2.007474e-14 -2.707343e-12) (-5.599739e-11 -5.056864e-13 6.514686e-11))
359.519384    	((4.958199e-09 2.603887e-06 4.668736e-09) (1.177386e-09 2.814478e-06 1.077270e-09)) ((-3.886419e-14 -2.031901e-14 -2.729785e-12) (-5.084240e-11 -5.550894e-13 5.953885e-11))
390.12843     	((4.720805e-09 2.603156e-06 4.432680e-09) (1.224438e-09 2.800518e-06 1.121474e-09)) ((-3.743069e-14 -2.098166e-14 -2.748139e-12) (-4.581213e-11 -6.028193e-13 5.402708e-11))
420.754483    	((4.444030e-09 2.602153e-06 4.144342e-09) (1.248774e-09 2.788673e-06 1.141162e-09)) ((-3.500513e-14 -2.174621e-14 -2.764423e-12) (-4.094161e-11 -6.561214e-13 4.868884e-11))
451.395071    	((4.122860e-09 2.600982e-06 3.818911e-09) (1.251694e-09 2.778599e-06 1.139400e-09)) ((-3.250542e-14 -2.228558e-14 -2.777768e-12) (-3.625729e-11 -7.070926e-13 4.362727e-11))
482.048001    	((3.790512e-09 2.599804e-06 3.481940e-09) (1.236505e-09 2.770012e-06 1.119079e-09)) ((-3.020068e-14 -2.299234e-14 -2.788195e-12) (-3.181575e-11 -7.386306e-13 3.894731e-11))
512.711466    	((3.450147e-09 2.598640e-06 3.155319e-09) (1.208422e-09 2.762676e-06 1.085905e-09)) ((-2.825589e-14 -2.348657e-14 -2.797509e-12) (-2.763272e-11 -7.414538e-13 3.453006e-11))
543.383937    	((3.112126e-09 2.597535e-06 2.829862e-09) (1.169244e-09 2.756401e-06 1.043423e-09)) ((-2.648665e-14 -2.392571e-14 -2.805387e-12) (-2.371582e-11 -7.433211e-13 3.040821e-11))
574.064109    	((2.779838e-09 2.596479e-06 2.511956e-09) (1.121384e-09 2.751021e-06 9.936645e-10)) ((-2.476687e-14 -2.441218e-14 -2.811677e-12) (-2.008752e-11 -7.461064e-13 2.662743e-11))
604.750874    	((2.468976e-09 2.595511e-06 2.214130e-09) (1.067745e-09 2.746405e-06 9.394474e-10)) ((-2.337274e-14 -2.499518e-14 -2.817203e-12) (-1.674614e-11 -7.485753e-13 2.319494e-11))
635.443287    	((2.177216e-09 2.594611e-06 1.937424e-09) (1.010174e-09 2.742437e-06 8.821012e-10)) ((-2.225534e-14 -2.544208e-14 -2.821843e-12) (-1.370563e-11 -7.614192e-13 2.008485e-11))
666.140537    	((1.913371e-09 2.593780e-06 1.684480e-09) (9.510629e-10 2.739019e-06 8.234825e-10)) ((-2.122749e-14 -2.578671e-14 -2.825751e-12) (-1.097131e-11 -7.758422e-13 1.729858e-11))
696.841936    	((1.675807e-09 2.593028e-06 1.460163e-09) (8.928345e-10 2.736071e-06 7.662291e-10)) ((-2.032033e-14 -2.610559e-14 -2.829094e-12) (-8.530428e-12 -7.870508e-13 1.480858e-11))
727.546898    	((1.465446e-09 2.592344e-06 1.261857e-09) (8.368638e-10 2.733525e-06 7.114561e-10)) ((-1.961618e-14 -2.637469e-14 -2.832011e-12) (-6.368917e-12 -7.947862e-13 1.259465e-11))
758.254926    	((1.281561e-09 2.591731e-06 1.086910e-09) (7.843248e-10 2.731323e-06 6.601798e-10)) ((-1.908658e-14 -2.662669e-14 -2.834504e-12) (-4.458221e-12 -7.962422e-13 1.064416e-11))
788.965597    	((1.125323e-09 2.591176e-06 9.371073e-10) (7.361290e-10 2.729418e-06 6.131000e-10)) ((-1.872080e-14 -2.683980e-14 -2.836638e-12) (-2.782687e-12 -7.918107e-13 8.934496e-12))
819.678552    	((9.911312e-10 2.590680e-06 8.094390e-10) (6.927362e-10 2.727766e-06 5.707206e-10)) ((-1.845067e-14 -2.696399e-14 -2.838468e-12) (-1.325888e-12 -7.844965e-13 7.445667e-12))
850.393484    	((8.798739e-10 2.590236e-06 7.032993e-10) (6.543923e-10 2.726332e-06 5.334967e-10)) ((-1.824494e-14 -2.706536e-14 -2.840026e-12) (-5.182049e-14 -7.767824e-13 6.155184e-12))
881.110134    	((7.832086e-10 2.589843e-06 6.096174e-10) (6.209033e-10 2.725086e-06 5.006457e-10)) ((-1.798111e-14 -2.716852e-14 -2.841343e-12) (1.059309e-12 -7.732460e-13 5.038333e-12))
911.828278    	((7.067562e-10 2.589493e-06 5.336781e-10) (5.921964e-10 2.724003e-06 4.722510e-10)) ((-1.784276e-14 -2.725838e-14 -2.842479e-12) (2.021383e-12 -7.702521e-13 4.072838e-12))
942.547726    	((6.420564e-10 2.589179e-06 4.720922e-10) (5.678213e-10 2.723061e-06 4.481759e-10)) ((-1.776523e-14 -2.733667e-14 -2.843451e-12) (2.853790e-12 -7.677603e-13 3.240792e-12))
973.268311    	((5.895939e-10 2.588899e-06 4.197718e-10) (5.472789e-10 2.722241e-06 4.278789e-10)) ((-1.768188e-14 -2.742728e-14 -2.844296e-12) (3.573925e-12 -7.658606e-13 2.525192e-12))
1003.989893   	((5.466349e-10 2.588654e-06 3.774968e-10) (5.302348e-10 2.721526e-06 4.110139e-10)) ((-1.763758e-14 -2.750106e-14 -2.845033e-12) (4.199359e-12 -7.642396e-13 1.908418e-12))
1034.712348   	((5.111806e-10 2.588435e-06 3.425432e-10) (5.162013e-10 2.720903e-06 3.970839e-10)) ((-1.759010e-14 -2.756235e-14 -2.845676e-12) (4.740421e-12 -7.624671e-13 1.376575e-12))
1065.43557    	((4.814982e-10 2.588240e-06 3.128653e-10) (5.047102e-10 2.720360e-06 3.856036e-10)) ((-1.754116e-14 -2.761057e-14 -2.846239e-12) (5.208600e-12 -7.604711e-13 9.174475e-13))
1096.159464   	((4.567002e-10 2.588067e-06 2.875371e-10) (4.953110e-10 2.719886e-06 3.761396e-10)) ((-1.749899e-14 -2.765388e-14 -2.846727e-12) (5.613904e-12 -7.582188e-13 5.216774e-13))
1126.883949   	((4.354018e-10 2.587915e-06 2.656207e-10) (4.876130e-10 2.719472e-06 3.683370e-10)) ((-1.745677e-14 -2.769083e-14 -2.847153e-12) (5.964343e-12 -7.564565e-13 1.806776e-13))
1157.608953   	((4.169564e-10 2.587780e-06 2.467017e-10) (4.812899e-10 2.719111e-06 3.618441e-10)) ((-1.741087e-14 -2.771881e-14 -2.847528e-12) (6.268598e-12 -7.548816e-13 -1.139593e-13))
1188.334413   	((4.006519e-10 2.587664e-06 2.299541e-10) (4.760354e-10 2.718796e-06 3.563787e-10)) ((-1.736877e-14 -2.774181e-14 -2.847852e-12) (6.535191e-12 -7.534586e-13 -3.705594e-13))
1219.060273   	((3.856612e-10 2.587559e-06 2.143195e-10) (4.715869e-10 2.718520e-06 3.517019e-10)) ((-1.731085e-14 -2.776572e-14 -2.848139e-12) (6.769750e-12 -7.522052e-13 -5.951887e-13))
1249.786482   	((3.720742e-10 2.587466e-06 1.997975e-10) (4.677666e-10 2.718279e-06 3.476477e-10)) ((-1.726166e-14 -2.778173e-14 -2.848389e-12) (6.976113e-12 -7.511664e-13 -7.922142e-13))
1280.512997   	((3.593971e-10 2.587385e-06 1.866456e-10) (4.644055e-10 2.718068e-06 3.440566e-10)) ((-1.721517e-14 -2.779605e-14 -2.848605e-12) (7.158247e-12 -7.503899e-13 -9.658325e-13))
1311.239781   	((3.476202e-10 2.587313e-06 1.744197e-10) (4.613970e-10 2.717883e-06 3.408235e-10)) ((-1.716792e-14 -2.780998e-14 -2.848798e-12) (7.319352e-12 -7.497674e-13 -1.119281e-12))
1341.966797   	((3.367179e-10 2.587250e-06 1.629679e-10) (4.586549e-10 2.717722e-06 3.378789e-10)) ((-1.711643e-14 -2.782633e-14 -2.848966e-12) (7.462020e-12 -7.492571e-13 -1.255649e-12))
1372.694018   	((3.266288e-10 2.587195e-06 1.525341e-10) (4.561241e-10 2.717580e-06 3.351524e-10)) ((-1.707032e-14 -2.784087e-14 -2.849113e-12) (7.588520e-12 -7.488454e-13 -1.376457e-12))
1403.421416   	((3.174754e-10 2.587147e-06 1.430766e-10) (4.537672e-10 2.717457e-06 3.326149e-10)) ((-1.703613e-14 -2.785253e-14 -2.849245e-12) (7.700757e-12 -7.485290e-13 -1.483341e-12))
1434.14897    	((3.090273e-10 2.587104e-06 1.343396e-10) (4.515763e-10 2.717348e-06 3.302537e-10)) ((-1.699736e-14 -2.786397e-14 -2.849359e-12) (7.800241e-12 -7.482553e-13 -1.578175e-12))
1464.876658   	((3.014229e-10 2.587067e-06 1.265353e-10) (4.495348e-10 2.717254e-06 3.280653e-10)) ((-1.697316e-14 -2.787137e-14 -2.849460e-12) (7.888278e-12 -7.480251e-13 -1.662274e-12))
1495.604464   	((2.944622e-10 2.587034e-06 1.193725e-10) (4.476398e-10 2.717171e-06 3.260486e-10)) ((-1.694619e-14 -2.787924e-14 -2.849545e-12) (7.966327e-12 -7.478105e-13 -1.736865e-12))
1526.332372   	((2.883064e-10 2.587005e-06 1.127555e-10) (4.458928e-10 2.717098e-06 3.242009e-10)) ((-1.692307e-14 -2.788496e-14 -2.849621e-12) (8.035276e-12 -7.476128e-13 -1.802864e-12))
1557.060369   	((2.829109e-10 2.586979e-06 1.073988e-10) (4.442965e-10 2.717035e-06 3.225249e-10)) ((-1.690090e-14 -2.789095e-14 -2.849685e-12) (8.096059e-12 -7.474351e-13 -1.860933e-12))
1587.788444   	((2.782253e-10 2.586957e-06 1.027503e-10) (4.428478e-10 2.716979e-06 3.210044e-10)) ((-1.688773e-14 -2.789693e-14 -2.849743e-12) (8.149337e-12 -7.472515e-13 -1.911931e-12))
1618.516587   	((2.741593e-10 2.586937e-06 9.882487e-11) (4.415513e-10 2.716930e-06 3.196528e-10)) ((-1.687476e-14 -2.790104e-14 -2.849793e-12) (8.196014e-12 -7.470960e-13 -1.956678e-12))
1649.244789   	((2.707102e-10 2.586920e-06 9.542635e-11) (4.404020e-10 2.716887e-06 3.184602e-10)) ((-1.686504e-14 -2.790485e-14 -2.849837e-12) (8.236830e-12 -7.469639e-13 -1.995851e-12))
1679.973043   	((2.677437e-10 2.586905e-06 9.250651e-11) (4.393939e-10 2.716850e-06 3.174191e-10)) ((-1.685737e-14 -2.790864e-14 -2.849875e-12) (8.272438e-12 -7.468481e-13 -2.030081e-12))
1710.701342   	((2.652499e-10 2.586891e-06 9.007359e-11) (4.385182e-10 2.716817e-06 3.165124e-10)) ((-1.685105e-14 -2.791154e-14 -2.849908e-12) (8.303411e-12 -7.467436e-13 -2.059934e-12))
1741.429682   	((2.631753e-10 2.586880e-06 8.796896e-11) (4.377656e-10 2.716788e-06 3.157335e-10)) ((-1.684615e-14 -2.791234e-14 -2.849937e-12) (8.330152e-12 -7.466474e-13 -2.085780e-12))
1772.158056   	((2.613816e-10 2.586870e-06 8.611307e-11) (4.371234e-10 2.716763e-06 3.150688e-10)) ((-1.684273e-14 -2.791736e-14 -2.849964e-12) (8.353427e-12 -7.465607e-13 -2.108266e-12))
1802.886461   	((2.599265e-10 2.586861e-06 8.477739e-11) (4.365830e-10 2.716741e-06 3.145138e-10)) ((-1.683935e-14 -2.791910e-14 -2.849985e-12) (8.373561e-12 -7.464868e-13 -2.127781e-12))
