# Forces      
# CofR        : (0.000000e+00 0.000000e+00 0.000000e+00)
# Time        forces(pressure viscous)	moments(pressure viscous)
0             	((0.000000e+00 0.000000e+00 0.000000e+00) (4.585221e-14 7.993344e-04 -1.027034e-13)) ((0.000000e+00 0.000000e+00 0.000000e+00) (2.274424e-14 -2.096759e-16 -2.920964e-10))
0.012         	((8.221357e-08 2.324700e-01 5.843883e-08) (-1.408230e-11 9.155820e-04 -6.429506e-10)) ((7.221778e-11 -1.650512e-13 -4.366169e-08) (7.182454e-12 1.832763e-13 -5.454785e-10))
0.0264        	((-2.862065e-06 -2.014440e-02 -1.060818e-06) (-1.493502e-09 9.299144e-04 -1.261510e-09)) ((-4.986484e-11 -1.017927e-11 2.376108e-09) (2.263740e-12 -4.977681e-14 -6.257104e-10))
0.04368       	((4.762227e-06 -4.647841e-02 -3.022087e-07) (4.633272e-09 8.223569e-04 -9.560101e-10)) ((-1.568955e-10 3.084762e-11 1.266675e-08) (-2.684720e-11 -1.114673e-12 -3.864084e-10))
0.064416      	((1.162369e-07 -4.168809e-04 9.992447e-07) (1.990464e-08 7.264184e-04 8.162003e-09)) ((6.627573e-11 1.726209e-11 -1.389999e-09) (2.192071e-11 -4.078587e-12 -1.990130e-10))
0.0892992     	((-2.720953e-07 2.583681e-04 4.982476e-07) (2.966046e-08 6.694409e-04 1.063922e-08)) ((1.210100e-11 -2.425401e-11 -5.560647e-10) (2.684335e-11 -2.930315e-12 3.974585e-10))
0.119159      	((3.505685e-07 -8.117428e-04 5.662758e-07) (3.370620e-08 6.181301e-04 7.894872e-09)) ((2.820247e-11 9.543151e-12 7.450270e-10) (-5.188582e-11 -7.140432e-12 9.716703e-10))
0.154991      	((8.441202e-08 -3.372937e-04 1.313161e-07) (2.998800e-08 5.650916e-04 7.437289e-09)) ((3.976711e-11 3.697659e-12 3.400704e-10) (-3.705210e-11 -8.331578e-12 1.151060e-09))
0.197989      	((4.346952e-08 -5.602773e-05 -8.643955e-08) (1.752048e-08 5.134506e-04 5.799400e-09)) ((2.380708e-11 3.030748e-12 9.144806e-11) (1.923947e-11 -5.973053e-13 1.240889e-09))
0.249587      	((-1.142392e-07 3.914617e-05 -8.552068e-08) (-4.787254e-09 4.648419e-04 5.310670e-09)) ((1.375287e-11 3.725774e-12 4.468418e-11) (-6.134325e-12 3.886892e-12 1.418895e-09))
0.311504      	((-1.854937e-07 8.706241e-05 -7.608658e-08) (-2.449605e-08 4.205238e-04 4.988232e-09)) ((1.155353e-11 2.204174e-12 2.133662e-11) (-4.498970e-11 5.867391e-12 1.411624e-09))
0.385805      	((-1.524310e-07 1.137484e-04 -7.679385e-08) (-3.355449e-08 3.811560e-04 4.418271e-09)) ((7.101110e-12 -1.838843e-14 3.178661e-12) (-3.989781e-11 8.184037e-12 1.247027e-09))
0.474966      	((-1.285640e-07 1.264617e-04 -6.017948e-08) (-3.679557e-08 3.467195e-04 3.479004e-09)) ((3.390062e-12 -5.593783e-13 -7.954936e-12) (-2.137476e-11 1.171109e-11 1.064404e-09))
0.581959      	((-8.786178e-08 1.310588e-04 -4.090973e-08) (-3.483231e-08 3.163756e-04 2.353768e-09)) ((2.200862e-12 -4.814912e-13 -1.654055e-11) (-4.434219e-13 1.364832e-11 9.825445e-10))
0.710351      	((-5.740405e-08 1.305456e-04 -2.904861e-08) (-2.826950e-08 2.886421e-04 1.032749e-09)) ((1.309032e-12 -1.512296e-13 -1.781403e-11) (2.331196e-11 1.307490e-11 1.172137e-09))
0.864421      	((-1.663315e-08 1.265749e-04 -2.682340e-08) (-1.804876e-08 2.624476e-04 -3.892875e-10)) ((7.906707e-13 -2.565729e-13 -7.678402e-12) (3.810059e-11 1.264851e-11 1.424530e-09))
1.049306      	((4.727229e-09 1.204625e-04 -1.740277e-08) (-9.921591e-09 2.377436e-04 -1.422631e-09)) ((-1.049731e-14 4.073254e-14 -1.560655e-12) (4.787213e-11 1.303590e-11 1.649687e-09))
1.271167      	((-3.635754e-09 1.134421e-04 -1.070809e-08) (-7.159820e-09 2.148865e-04 -1.859844e-09)) ((-7.003301e-13 5.483580e-14 -6.404528e-12) (4.866093e-11 1.187332e-11 1.775335e-09))
1.5374        	((1.105651e-08 1.067592e-04 -1.002780e-08) (-6.461537e-09 1.941823e-04 -1.958719e-09)) ((-1.189304e-12 5.326339e-14 -1.710255e-11) (3.606143e-11 1.078346e-11 1.713477e-09))
1.85688       	((1.006069e-08 1.011395e-04 -8.299975e-09) (-4.678503e-09 1.757779e-04 -1.861055e-09)) ((-1.011453e-12 4.481426e-14 -2.588200e-11) (6.691010e-12 1.017511e-11 1.577071e-09))
2.240256      	((-2.921759e-09 9.697430e-05 -8.455848e-09) (-3.231671e-09 1.596130e-04 -1.528886e-09)) ((-5.606269e-13 -7.345730e-14 -3.252610e-11) (-4.090833e-11 1.001020e-11 1.432604e-09))
2.700307      	((-2.650217e-08 9.443532e-05 -2.126159e-08) (-3.599483e-09 1.455132e-04 -1.140536e-09)) ((9.453158e-14 1.389058e-14 -3.908807e-11) (-1.010428e-10 8.929314e-12 1.291713e-09))
3.252369      	((-4.870857e-08 9.381207e-05 -4.227020e-08) (-3.264688e-09 1.332921e-04 -1.099327e-09)) ((9.735134e-13 1.185046e-13 -5.115599e-11) (-1.600851e-10 7.557356e-12 1.257663e-09))
3.914842      	((-5.420029e-08 9.498026e-05 -4.711892e-08) (-3.646490e-09 1.227943e-04 -1.317819e-09)) ((1.275485e-12 2.436156e-13 -6.383806e-11) (-1.945769e-10 6.604494e-12 1.221811e-09))
4.709811      	((-5.753697e-08 9.832951e-05 -6.276603e-08) (-4.103058e-09 1.138784e-04 -1.894761e-09)) ((1.267874e-12 1.952392e-13 -7.956824e-11) (-1.806304e-10 6.046575e-12 1.157608e-09))
5.663773      	((-4.027655e-08 1.039027e-04 -5.577328e-08) (-2.157508e-09 1.063781e-04 -2.489811e-09)) ((1.055795e-12 2.660080e-13 -1.016713e-10) (-1.220915e-10 5.454500e-12 1.156792e-09))
6.808528      	((-2.435877e-08 1.116950e-04 -4.932118e-08) (1.687824e-09 1.001583e-04 -2.813590e-09)) ((7.346713e-13 1.516560e-13 -1.310027e-10) (-4.796844e-11 3.064876e-12 1.208220e-09))
8.177356      	((-2.493405e-10 1.215940e-04 -3.401926e-08) (4.077640e-09 9.507105e-05 -2.495366e-09)) ((4.155051e-13 1.003829e-13 -1.668336e-10) (3.656305e-11 1.630643e-12 1.473701e-09))
9.77072       	((2.690424e-08 1.332405e-04 -1.379661e-08) (5.918005e-09 9.100639e-05 -1.630775e-09)) ((-2.215087e-13 2.965275e-13 -2.047940e-10) (1.179518e-10 5.597817e-13 1.857158e-09))
11.588746     	((4.693861e-08 1.459288e-04 3.484073e-09) (7.348525e-09 8.783855e-05 2.053789e-10)) ((-1.281908e-12 5.036506e-13 -2.486606e-10) (2.121985e-10 -1.760722e-13 2.129693e-09))
13.630857     	((6.196437e-08 1.591946e-04 1.377858e-08) (9.854871e-09 8.540816e-05 2.431520e-09)) ((-2.088344e-12 6.757052e-13 -2.899343e-10) (3.148421e-10 -8.193604e-13 2.220920e-09))
15.860018     	((7.368598e-08 1.721201e-04 1.938127e-08) (1.245505e-08 8.355341e-05 3.931985e-09)) ((-2.777614e-12 1.093518e-12 -3.252646e-10) (3.683542e-10 -5.120260e-13 2.150162e-09))
18.074742     	((6.812377e-08 1.833604e-04 1.362276e-08) (1.295245e-08 8.219862e-05 4.073624e-09)) ((-2.808881e-12 1.555591e-12 -3.527995e-10) (3.586531e-10 -9.710117e-13 2.036114e-09))
20.277651     	((8.417458e-08 1.924383e-04 2.594246e-08) (1.252557e-08 8.103915e-05 2.721644e-09)) ((-3.195933e-12 1.799519e-12 -3.778366e-10) (2.442253e-10 -6.943963e-14 1.875144e-09))
22.477165     	((9.856757e-08 1.987446e-04 3.877320e-08) (1.335865e-08 7.995179e-05 1.169662e-09)) ((-2.813889e-12 2.437609e-12 -3.986515e-10) (8.656348e-11 -3.705336e-13 1.710340e-09))
24.682686     	((1.040815e-07 2.031837e-04 4.872468e-08) (1.281139e-08 7.895884e-05 -1.015669e-09)) ((-3.040973e-12 2.810675e-12 -4.177374e-10) (-1.380205e-10 -2.622842e-12 1.723952e-09))
26.899001     	((7.265032e-08 2.050813e-04 2.595581e-08) (8.031074e-09 7.806837e-05 -3.541795e-09)) ((-2.414348e-12 2.940243e-12 -4.316057e-10) (-3.772209e-10 -2.739686e-12 1.982117e-09))
29.125872     	((4.583842e-08 2.052581e-04 1.333483e-08) (1.811777e-09 7.722722e-05 -6.336229e-09)) ((-1.883850e-12 3.112473e-12 -4.401657e-10) (-5.480289e-10 -2.117014e-12 2.292310e-09))
31.361231     	((1.240922e-08 2.043940e-04 -9.983107e-09) (-1.650737e-09 7.639551e-05 -9.367793e-09)) ((-1.160276e-12 3.249815e-12 -4.448740e-10) (-7.147194e-10 -3.173646e-12 2.463295e-09))
33.603813     	((2.103077e-08 2.032352e-04 2.408176e-09) (-5.064855e-09 7.561417e-05 -1.268370e-08)) ((-1.201614e-12 3.283331e-12 -4.462585e-10) (-8.968389e-10 -4.550855e-12 2.559593e-09))
35.85125      	((5.366164e-08 2.020398e-04 2.144856e-08) (-5.053948e-09 7.491178e-05 -1.397295e-08)) ((-8.990058e-13 3.276449e-12 -4.454472e-10) (-1.019897e-09 -5.199761e-12 2.592557e-09))
38.101867     	((5.403282e-08 2.003234e-04 1.280272e-08) (-3.831940e-09 7.426687e-05 -1.368524e-08)) ((-2.252141e-13 3.291470e-12 -4.438431e-10) (-1.059857e-09 -4.569301e-12 2.583684e-09))
40.35659      	((5.689713e-08 1.987634e-04 5.715585e-10) (-3.720021e-09 7.366906e-05 -1.419300e-08)) ((-1.603743e-13 3.317152e-12 -4.430098e-10) (-1.058908e-09 -5.846883e-12 2.517581e-09))
42.615921     	((6.362044e-08 1.973316e-04 -1.031517e-08) (-2.971270e-09 7.311614e-05 -1.486354e-08)) ((-1.482849e-13 3.315449e-12 -4.426206e-10) (-1.031462e-09 -6.875313e-12 2.456029e-09))
44.879834     	((6.633072e-08 1.961274e-04 -2.752731e-08) (-2.204892e-09 7.260507e-05 -1.523054e-08)) ((2.765127e-14 3.426020e-12 -4.427549e-10) (-9.808622e-10 -5.059244e-12 2.440426e-09))
47.148373     	((9.291936e-08 1.951071e-04 -3.837485e-08) (-7.929349e-10 7.213353e-05 -1.537256e-08)) ((-1.096650e-14 3.515200e-12 -4.434363e-10) (-9.101831e-10 -5.776679e-12 2.428512e-09))
49.421522     	((1.334428e-07 1.941546e-04 -2.786256e-08) (2.169621e-09 7.169367e-05 -1.474976e-08)) ((-3.840031e-13 3.524241e-12 -4.439801e-10) (-8.221814e-10 -6.875417e-12 2.405132e-09))
51.699321     	((1.615092e-07 1.932404e-04 -3.490202e-08) (5.902841e-09 7.128119e-05 -1.335544e-08)) ((-3.882151e-13 3.606697e-12 -4.443894e-10) (-7.244647e-10 -7.258947e-12 2.367696e-09))
53.982089     	((1.832093e-07 1.924086e-04 -5.004660e-08) (9.734730e-09 7.089591e-05 -1.239887e-08)) ((-3.409828e-13 3.721110e-12 -4.446836e-10) (-6.272446e-10 -7.805317e-12 2.336678e-09))
56.270156     	((2.048303e-07 1.916599e-04 -6.012703e-08) (1.335561e-08 7.053978e-05 -1.189597e-08)) ((-3.902436e-13 3.794769e-12 -4.448734e-10) (-5.274799e-10 -8.868170e-12 2.310248e-09))
58.563431     	((2.306870e-07 1.908935e-04 -7.464578e-08) (1.743024e-08 7.020788e-05 -1.135184e-08)) ((-4.701576e-13 3.848779e-12 -4.450235e-10) (-4.202464e-10 -1.022436e-11 2.260469e-09))
60.861734     	((2.514809e-07 1.902028e-04 -9.170269e-08) (2.217722e-08 6.989827e-05 -1.062354e-08)) ((-3.661502e-13 3.755361e-12 -4.452967e-10) (-2.866351e-10 -1.018903e-11 2.164832e-09))
63.164916     	((2.725984e-07 1.895360e-04 -1.182085e-07) (2.666472e-08 6.960925e-05 -1.004407e-08)) ((-1.065742e-13 3.735460e-12 -4.454870e-10) (-1.294035e-10 -9.589717e-12 2.044418e-09))
65.472829     	((2.970339e-07 1.888656e-04 -1.420450e-07) (3.103258e-08 6.933653e-05 -1.024454e-08)) ((-9.256176e-14 3.643553e-12 -4.455284e-10) (2.041204e-12 -8.319392e-12 1.923457e-09))
67.785352     	((3.244458e-07 1.881034e-04 -1.643628e-07) (3.559898e-08 6.907381e-05 -1.068409e-08)) ((-4.050657e-14 3.403230e-12 -4.455678e-10) (1.278462e-10 -5.990204e-12 1.808812e-09))
70.102448     	((3.428687e-07 1.874193e-04 -1.866924e-07) (3.975691e-08 6.882138e-05 -1.148462e-08)) ((2.658678e-14 3.139566e-12 -4.455934e-10) (2.381853e-10 -4.793928e-12 1.703107e-09))
72.424092     	((3.729132e-07 1.867933e-04 -2.085470e-07) (4.366955e-08 6.858116e-05 -1.288510e-08)) ((1.415527e-15 2.919473e-12 -4.455230e-10) (3.150178e-10 -3.024174e-12 1.610760e-09))
74.750219     	((4.125689e-07 1.862731e-04 -2.289749e-07) (4.773961e-08 6.835513e-05 -1.480943e-08)) ((-1.112864e-13 2.766872e-12 -4.454929e-10) (3.597176e-10 -1.085414e-12 1.540799e-09))
77.080714     	((4.577671e-07 1.857608e-04 -2.520985e-07) (5.206465e-08 6.814284e-05 -1.723028e-08)) ((-9.722074e-14 2.612764e-12 -4.454104e-10) (3.819610e-10 -3.577962e-13 1.498848e-09))
79.415443     	((5.161754e-07 1.852145e-04 -2.737543e-07) (5.682860e-08 6.793983e-05 -2.001037e-08)) ((-5.629927e-14 2.442459e-12 -4.454032e-10) (3.806211e-10 5.633704e-13 1.497260e-09))
81.754251     	((5.670616e-07 1.847124e-04 -2.925691e-07) (6.153314e-08 6.774412e-05 -2.314893e-08)) ((2.041530e-15 2.283498e-12 -4.456125e-10) (3.506159e-10 1.680876e-12 1.536784e-09))
84.096977     	((6.358068e-07 1.841960e-04 -3.216136e-07) (6.642233e-08 6.755307e-05 -2.685962e-08)) ((1.823830e-13 2.233422e-12 -4.458189e-10) (3.017706e-10 2.341978e-12 1.614369e-09))
86.443488     	((7.061922e-07 1.836822e-04 -3.475369e-07) (7.161838e-08 6.736650e-05 -3.083710e-08)) ((3.836179e-13 2.239458e-12 -4.459497e-10) (2.484753e-10 3.140783e-12 1.734568e-09))
88.793628     	((7.933741e-07 1.831594e-04 -3.792896e-07) (7.755074e-08 6.718552e-05 -3.512505e-08)) ((7.274341e-13 2.250552e-12 -4.459666e-10) (1.957099e-10 2.953845e-12 1.888208e-09))
91.147254     	((8.996831e-07 1.826737e-04 -4.176526e-07) (8.468873e-08 6.701226e-05 -3.985750e-08)) ((1.148357e-12 2.244774e-12 -4.460421e-10) (1.457619e-10 1.396818e-12 2.059657e-09))
93.50424      	((1.019227e-06 1.821836e-04 -4.732591e-07) (9.305622e-08 6.684596e-05 -4.532655e-08)) ((1.676243e-12 2.235752e-12 -4.461834e-10) (1.052058e-10 8.217011e-13 2.247417e-09))
95.86447      	((1.152508e-06 1.817870e-04 -5.314067e-07) (1.025062e-07 6.668818e-05 -5.151167e-08)) ((2.122794e-12 2.270602e-12 -4.464120e-10) (7.855239e-11 1.373015e-12 2.456007e-09))
98.227861     	((1.305171e-06 1.814255e-04 -6.062321e-07) (1.135026e-07 6.654035e-05 -5.852502e-08)) ((2.718616e-12 2.342611e-12 -4.466045e-10) (7.122212e-11 2.206298e-12 2.686577e-09))
100.594333    	((1.474268e-06 1.810497e-04 -6.929430e-07) (1.265160e-07 6.639992e-05 -6.643805e-08)) ((3.444469e-12 2.329248e-12 -4.466890e-10) (9.313857e-11 1.923818e-12 2.929198e-09))
102.962597    	((1.649351e-06 1.806699e-04 -7.913055e-07) (1.410733e-07 6.626523e-05 -7.518610e-08)) ((4.233521e-12 2.247178e-12 -4.467354e-10) (1.462750e-10 4.947883e-14 3.178680e-09))
105.332504    	((1.824923e-06 1.802915e-04 -8.960937e-07) (1.566875e-07 6.613569e-05 -8.466657e-08)) ((5.071686e-12 2.154757e-12 -4.466840e-10) (2.323951e-10 -2.656354e-12 3.433265e-09))
107.704075    	((2.000272e-06 1.799197e-04 -1.009434e-06) (1.731064e-07 6.601087e-05 -9.472724e-08)) ((5.933244e-12 2.022846e-12 -4.465718e-10) (3.518649e-10 -6.557826e-12 3.687287e-09))
110.077322    	((2.184020e-06 1.795410e-04 -1.142684e-06) (1.904144e-07 6.589000e-05 -1.056558e-07)) ((6.982561e-12 1.827110e-12 -4.463940e-10) (5.033671e-10 -1.216659e-11 3.934172e-09))
112.452227    	((2.373152e-06 1.791640e-04 -1.295598e-06) (2.088826e-07 6.577239e-05 -1.178713e-07)) ((8.052426e-12 1.614037e-12 -4.462901e-10) (6.859124e-10 -1.740330e-11 4.157673e-09))
114.828766    	((2.570854e-06 1.788222e-04 -1.466697e-06) (2.287952e-07 6.565882e-05 -1.315877e-07)) ((9.195475e-12 1.442453e-12 -4.462782e-10) (8.969539e-10 -2.233300e-11 4.348508e-09))
117.206909    	((2.784876e-06 1.785080e-04 -1.654077e-06) (2.504145e-07 6.554978e-05 -1.468364e-07)) ((1.044694e-11 1.233476e-12 -4.463153e-10) (1.138668e-09 -2.826536e-11 4.513205e-09))
119.586614    	((3.004437e-06 1.782143e-04 -1.857784e-06) (2.736160e-07 6.544516e-05 -1.636296e-07)) ((1.176332e-11 1.010588e-12 -4.463942e-10) (1.410285e-09 -3.528977e-11 4.656838e-09))
121.967846    	((3.235157e-06 1.779367e-04 -2.075502e-06) (2.983914e-07 6.534496e-05 -1.819773e-07)) ((1.312670e-11 8.149756e-13 -4.464824e-10) (1.709494e-09 -4.195530e-11 4.778815e-09))
124.350572    	((3.484159e-06 1.776790e-04 -2.306656e-06) (3.248354e-07 6.524922e-05 -2.019398e-07)) ((1.455004e-11 6.530397e-13 -4.465820e-10) (2.032952e-09 -4.826574e-11 4.894260e-09))
126.734773    	((3.759614e-06 1.774388e-04 -2.550801e-06) (3.533566e-07 6.515803e-05 -2.234903e-07)) ((1.606123e-11 5.936050e-13 -4.466757e-10) (2.374956e-09 -5.354615e-11 5.017320e-09))
129.120526    	((4.068117e-06 1.772088e-04 -2.812757e-06) (3.844093e-07 6.507116e-05 -2.468120e-07)) ((1.769155e-11 6.117565e-13 -4.467224e-10) (2.729652e-09 -5.798876e-11 5.159484e-09))
131.507829    	((4.413855e-06 1.769913e-04 -3.091735e-06) (4.183929e-07 6.498846e-05 -2.721558e-07)) ((1.941959e-11 6.931266e-13 -4.467307e-10) (3.092766e-09 -6.113517e-11 5.336699e-09))
133.896616    	((4.804207e-06 1.767906e-04 -3.386355e-06) (4.556417e-07 6.491010e-05 -2.995735e-07)) ((2.117614e-11 8.576755e-13 -4.467130e-10) (3.458658e-09 -6.438381e-11 5.571478e-09))
136.286847    	((5.244597e-06 1.766031e-04 -3.699646e-06) (4.965030e-07 6.483630e-05 -3.292179e-07)) ((2.304015e-11 1.105618e-12 -4.466509e-10) (3.824651e-09 -6.811712e-11 5.885423e-09))
138.6785      	((5.749144e-06 1.764176e-04 -4.033590e-06) (5.417113e-07 6.476688e-05 -3.612654e-07)) ((2.503125e-11 1.426107e-12 -4.465309e-10) (4.189118e-09 -7.046727e-11 6.289602e-09))
141.071557    	((6.319604e-06 1.762379e-04 -4.389065e-06) (5.919738e-07 6.470163e-05 -3.958757e-07)) ((2.718530e-11 1.734017e-12 -4.463544e-10) (4.550620e-09 -7.155280e-11 6.795956e-09))
143.466015    	((6.969224e-06 1.760614e-04 -4.780469e-06) (6.481801e-07 6.463991e-05 -4.336622e-07)) ((2.963023e-11 2.045145e-12 -4.461253e-10) (4.911341e-09 -7.143060e-11 7.411448e-09))
145.861883    	((7.700601e-06 1.758898e-04 -5.206533e-06) (7.111933e-07 6.458083e-05 -4.751348e-07)) ((3.227045e-11 2.300882e-12 -4.458647e-10) (5.268595e-09 -7.155253e-11 8.136041e-09))
148.259197    	((8.530991e-06 1.757150e-04 -5.684616e-06) (7.826975e-07 6.452373e-05 -5.213245e-07)) ((3.532833e-11 2.587428e-12 -4.455611e-10) (5.616798e-09 -7.031207e-11 8.946004e-09))
150.658004    	((9.455383e-06 1.755512e-04 -6.211977e-06) (8.638499e-07 6.446849e-05 -5.729494e-07)) ((3.872502e-11 2.889453e-12 -4.452704e-10) (5.957914e-09 -6.690063e-11 9.823678e-09))
153.058364    	((1.048785e-05 1.753873e-04 -6.793682e-06) (9.552052e-07 6.441512e-05 -6.303247e-07)) ((4.251158e-11 3.088312e-12 -4.449365e-10) (6.308490e-09 -6.625328e-11 1.079405e-08))
155.459181    	((1.162160e-05 1.752393e-04 -7.435862e-06) (1.056815e-06 6.436434e-05 -6.936765e-07)) ((4.669844e-11 3.270007e-12 -4.445236e-10) (6.691167e-09 -7.353399e-11 1.188735e-08))
157.859642    	((1.286107e-05 1.751100e-04 -8.152712e-06) (1.168899e-06 6.431668e-05 -7.635887e-07)) ((5.144475e-11 3.519677e-12 -4.440325e-10) (7.130140e-09 -8.658702e-11 1.311738e-08))
160.259586    	((1.420361e-05 1.750089e-04 -8.939694e-06) (1.292034e-06 6.427234e-05 -8.402786e-07)) ((5.650768e-11 3.754654e-12 -4.434970e-10) (7.643338e-09 -1.021307e-10 1.446578e-08))
162.658845    	((1.565689e-05 1.749324e-04 -9.812991e-06) (1.427108e-06 6.423137e-05 -9.243012e-07)) ((6.209502e-11 4.031227e-12 -4.429586e-10) (8.248420e-09 -1.162144e-10 1.590717e-08))
165.057245    	((1.722217e-05 1.748834e-04 -1.078770e-05) (1.574631e-06 6.419383e-05 -1.016983e-06)) ((6.830253e-11 4.524072e-12 -4.424241e-10) (8.951002e-09 -1.164778e-10 1.744798e-08))
167.454608    	((1.891647e-05 1.748545e-04 -1.188333e-05) (1.735921e-06 6.416009e-05 -1.119911e-06)) ((7.522881e-11 5.269197e-12 -4.418555e-10) (9.753547e-09 -1.028799e-10 1.906153e-08))
169.850744    	((2.074761e-05 1.748655e-04 -1.310609e-05) (1.912281e-06 6.413129e-05 -1.234326e-06)) ((8.278923e-11 6.149406e-12 -4.411399e-10) (1.067016e-08 -8.991444e-11 2.072959e-08))
172.245446    	((2.273148e-05 1.749112e-04 -1.446767e-05) (2.105082e-06 6.410797e-05 -1.361195e-06)) ((9.111224e-11 7.337355e-12 -4.402280e-10) (1.173388e-08 -8.116910e-11 2.244205e-08))
174.638481    	((2.488609e-05 1.749938e-04 -1.597321e-05) (2.316590e-06 6.409085e-05 -1.501623e-06)) ((1.003171e-10 8.916160e-12 -4.391417e-10) (1.294581e-08 -7.374586e-11 2.416917e-08))
177.029518    	((2.723509e-05 1.751340e-04 -1.763628e-05) (2.548867e-06 6.408068e-05 -1.656635e-06)) ((1.104346e-10 1.104093e-11 -4.380269e-10) (1.433589e-08 -7.554853e-11 2.591306e-08))
179.418322    	((2.979480e-05 1.753480e-04 -1.947605e-05) (2.803488e-06 6.407859e-05 -1.827771e-06)) ((1.214454e-10 1.384044e-11 -4.368837e-10) (1.591541e-08 -7.664416e-11 2.771197e-08))
