# Forces      
# CofR        : (0.000000e+00 0.000000e+00 0.000000e+00)
# Time        forces(pressure viscous)	moments(pressure viscous)
0             	((0.000000e+00 0.000000e+00 0.000000e+00) (7.729311e-13 1.265135e-02 -1.729480e-12)) ((0.000000e+00 0.000000e+00 0.000000e+00) (2.510501e-13 -3.346567e-15 -3.982791e-09))
0.012         	((4.476166e-05 3.730467e+00 3.803443e-05) (-6.887210e-08 1.690796e-02 -1.164527e-07)) ((-5.551755e-10 3.748651e-10 -6.687370e-07) (-7.928326e-11 2.195649e-11 -2.163836e-10))
0.0264        	((-1.851816e-04 -9.832404e-01 -1.759090e-04) (-2.694244e-07 1.674823e-02 -2.794551e-07)) ((2.011401e-08 8.197185e-10 1.001598e-07) (1.523125e-08 -3.721688e-11 9.651155e-09))
0.04368       	((1.731746e-04 -3.059360e-01 1.221285e-04) (4.187649e-07 1.402892e-02 -7.220356e-08)) ((-1.455883e-08 -4.278326e-10 1.360956e-07) (1.198165e-08 3.142580e-12 5.089745e-08))
0.064416      	((-2.604198e-05 -7.085662e-03 -1.902498e-05) (-8.943307e-07 1.240277e-02 1.264980e-07)) ((4.478242e-10 -1.293513e-10 -1.229309e-08) (3.613723e-10 -6.883851e-11 7.048558e-08))
0.0892992     	((-9.453609e-05 1.599642e-03 -2.343480e-05) (-3.790166e-06 1.139754e-02 3.803203e-08)) ((2.236516e-09 -6.922039e-10 1.317811e-08) (1.340179e-09 -3.069356e-10 7.182761e-08))
0.119159      	((-1.157035e-04 4.270318e-03 -1.059589e-05) (-5.800400e-06 1.058513e-02 -2.422259e-08)) ((7.579262e-10 -8.382159e-10 2.997293e-09) (2.255876e-09 -3.664740e-11 9.204318e-08))
0.154991      	((-1.247909e-04 6.628153e-03 -8.023310e-06) (-7.394610e-06 9.955211e-03 -7.459702e-08)) ((2.041565e-10 -8.496183e-10 4.842865e-10) (2.349980e-09 7.021871e-10 1.214996e-07))
0.197989      	((-8.989479e-05 7.540310e-03 -1.751331e-06) (-7.678673e-06 9.467649e-03 -2.827551e-08)) ((-2.137044e-11 -1.525777e-10 -1.657367e-08) (1.942169e-09 5.443218e-10 1.479487e-07))
0.249587      	((-4.357926e-05 8.387344e-03 1.199053e-06) (-6.435499e-06 9.053214e-03 1.130946e-07)) ((-1.420775e-10 -2.009021e-10 -1.564211e-08) (6.583453e-10 5.526496e-10 1.796886e-07))
0.311504      	((-2.487186e-05 9.208707e-03 9.967699e-07) (-5.087552e-06 8.683136e-03 1.777213e-07)) ((-4.132644e-10 -1.530703e-10 -2.481610e-08) (-1.706097e-09 6.722019e-10 1.855390e-07))
0.385805      	((-2.267379e-05 1.037886e-02 -2.319104e-06) (-4.532696e-06 8.348925e-03 1.316683e-07)) ((-9.731432e-11 2.792815e-11 -3.078875e-08) (-5.379075e-09 7.336969e-10 1.770987e-07))
0.473245      	((-9.660883e-06 1.188436e-02 -5.861110e-06) (-3.751517e-06 8.054301e-03 2.953554e-08)) ((-1.328379e-11 5.228096e-11 -4.123626e-08) (-9.043724e-09 5.753764e-10 1.864834e-07))
0.573848      	((2.677746e-06 1.380933e-02 -6.405655e-06) (-2.639563e-06 7.805296e-03 -5.695756e-08)) ((-2.563750e-11 3.209339e-11 -5.130654e-08) (-1.106154e-08 3.132488e-10 2.072640e-07))
0.687627      	((1.651476e-05 1.610384e-02 -9.615660e-06) (-1.614593e-06 7.599764e-03 -1.468792e-07)) ((-1.102318e-11 -9.698773e-13 -6.418865e-08) (-1.151169e-08 8.065421e-11 2.286050e-07))
0.814565      	((2.827154e-05 1.851563e-02 -1.446346e-05) (-5.633645e-07 7.433610e-03 -2.578857e-07)) ((1.008143e-10 4.389343e-11 -7.904467e-08) (-1.179401e-08 -9.436894e-11 2.522576e-07))
0.945552      	((4.344113e-05 2.118041e-02 -1.792549e-05) (7.128626e-07 7.305483e-03 -3.594456e-07)) ((2.518698e-10 1.394465e-10 -9.421039e-08) (-1.108058e-08 -1.055915e-10 2.802209e-07))
1.075785      	((6.411361e-05 2.367881e-02 -1.739596e-05) (2.020495e-06 7.197307e-03 -3.579915e-07)) ((1.990164e-10 2.165483e-10 -1.072303e-07) (-7.074707e-09 -6.081259e-11 3.086811e-07))
1.205163      	((8.654039e-05 2.588536e-02 -1.573715e-05) (2.979235e-06 7.094091e-03 -3.036437e-07)) ((2.023887e-10 2.300930e-10 -1.177312e-07) (-1.149681e-09 8.143876e-11 3.417860e-07))
1.334127      	((1.073385e-04 2.770489e-02 -1.366262e-05) (3.252840e-06 6.991671e-03 -2.754160e-07)) ((3.276776e-10 2.391543e-10 -1.240530e-07) (-9.489112e-10 1.117523e-10 3.799688e-07))
1.463319      	((1.235660e-04 2.900874e-02 -1.107652e-05) (2.825814e-06 6.895733e-03 -3.667328e-07)) ((4.189412e-10 2.090472e-10 -1.295208e-07) (-1.203998e-08 2.350716e-10 4.201389e-07))
1.592876      	((1.405831e-04 2.976980e-02 -1.061448e-05) (2.483173e-06 6.808177e-03 -5.334687e-07)) ((4.835471e-10 2.309229e-10 -1.334804e-07) (-2.544032e-08 2.890236e-10 4.667875e-07))
1.722491      	((1.610496e-04 2.990001e-02 -1.095458e-05) (2.431542e-06 6.727506e-03 -5.950082e-07)) ((4.570521e-10 1.916428e-10 -1.355241e-07) (-3.111827e-08 2.436644e-10 5.156057e-07))
1.851808      	((1.942860e-04 2.960237e-02 -8.550834e-06) (2.530023e-06 6.653849e-03 -5.500885e-07)) ((3.576516e-10 1.313240e-10 -1.366531e-07) (-3.108946e-08 2.854187e-10 5.595630e-07))
1.980734      	((2.208615e-04 2.905399e-02 -6.845501e-06) (2.933808e-06 6.588088e-03 -4.969717e-07)) ((4.276493e-10 1.713903e-10 -1.371168e-07) (-3.246804e-08 2.802467e-10 5.922782e-07))
2.109396      	((2.525230e-04 2.849884e-02 -8.144443e-06) (3.368478e-06 6.530914e-03 -4.489581e-07)) ((4.840260e-10 2.321985e-10 -1.374548e-07) (-3.383022e-08 4.319774e-10 6.241880e-07))
2.237914      	((2.784903e-04 2.813036e-02 -1.184470e-05) (3.500711e-06 6.480368e-03 -4.233875e-07)) ((5.104605e-10 3.186983e-10 -1.370072e-07) (-3.343375e-08 6.635034e-10 6.540425e-07))
2.366307      	((3.066681e-04 2.793516e-02 -1.511228e-05) (3.518937e-06 6.434348e-03 -4.281199e-07)) ((3.868139e-10 3.132694e-10 -1.370931e-07) (-3.131375e-08 6.496307e-10 6.740963e-07))
2.494556      	((3.334751e-04 2.790233e-02 -1.879234e-05) (3.616568e-06 6.392210e-03 -4.368855e-07)) ((3.484840e-10 2.753379e-10 -1.382833e-07) (-2.861599e-08 8.375457e-10 6.867715e-07))
2.622656      	((3.774402e-04 2.784413e-02 -2.032028e-05) (3.920366e-06 6.352358e-03 -4.356548e-07)) ((1.804160e-10 1.579444e-10 -1.402179e-07) (-2.512633e-08 1.029057e-09 6.906434e-07))
2.750614      	((4.184762e-04 2.765766e-02 -2.241506e-05) (4.534247e-06 6.312884e-03 -4.257448e-07)) ((7.884979e-11 6.536052e-11 -1.413809e-07) (-2.106609e-08 1.156022e-09 6.862922e-07))
2.878439      	((4.596778e-04 2.740918e-02 -3.095199e-05) (5.351926e-06 6.274486e-03 -4.197587e-07)) ((2.218802e-10 4.472518e-11 -1.414819e-07) (-1.709476e-08 1.211162e-09 6.824322e-07))
3.006139      	((5.067222e-04 2.713089e-02 -3.923758e-05) (6.213129e-06 6.238572e-03 -4.572207e-07)) ((3.869725e-10 7.523194e-11 -1.412238e-07) (-1.277342e-08 1.077281e-09 6.843465e-07))
3.133718      	((5.663949e-04 2.689241e-02 -4.990322e-05) (6.982433e-06 6.206023e-03 -5.565089e-07)) ((6.249780e-10 1.701900e-10 -1.411909e-07) (-9.129292e-09 7.950235e-10 6.915700e-07))
3.261181      	((6.324169e-04 2.672684e-02 -5.874689e-05) (7.665731e-06 6.177328e-03 -7.018918e-07)) ((8.254068e-10 2.355103e-10 -1.416509e-07) (-6.623259e-09 5.849663e-10 7.051389e-07))
3.388535      	((7.123022e-04 2.666961e-02 -6.918183e-05) (8.446447e-06 6.152183e-03 -9.061220e-07)) ((9.076912e-10 2.602766e-10 -1.422505e-07) (-5.276730e-09 3.154044e-10 7.188186e-07))
3.515779      	((8.029932e-04 2.663230e-02 -8.020335e-05) (9.585162e-06 6.129872e-03 -1.128473e-06)) ((8.945463e-10 2.211320e-10 -1.430275e-07) (-2.954408e-09 -3.619095e-11 7.277167e-07))
3.642915      	((9.153823e-04 2.658525e-02 -9.302166e-05) (1.102673e-05 6.109714e-03 -1.383746e-06)) ((8.924472e-10 1.565822e-10 -1.438915e-07) (-1.855424e-09 -5.694416e-10 7.413931e-07))
3.769962      	((1.026238e-03 2.647903e-02 -1.067213e-04) (1.264899e-05 6.090913e-03 -1.688768e-06)) ((9.026124e-10 2.239098e-10 -1.446624e-07) (-3.149590e-09 -1.418517e-09 7.642412e-07))
3.89694       	((1.156691e-03 2.632842e-02 -1.207986e-04) (1.449238e-05 6.073010e-03 -2.011178e-06)) ((1.005162e-09 2.265613e-10 -1.450315e-07) (-3.294387e-09 -1.769597e-09 7.928949e-07))
4.023854      	((1.296553e-03 2.615754e-02 -1.354531e-04) (1.655676e-05 6.056041e-03 -2.343969e-06)) ((1.112153e-09 2.283940e-10 -1.450639e-07) (-2.563131e-09 -1.658711e-09 8.274392e-07))
4.150709      	((1.457317e-03 2.598403e-02 -1.523491e-04) (1.883307e-05 6.040249e-03 -2.694052e-06)) ((1.302190e-09 2.769388e-10 -1.450900e-07) (-2.260520e-09 -1.603299e-09 8.706206e-07))
4.277508      	((1.632162e-03 2.582736e-02 -1.677213e-04) (2.137052e-05 6.025748e-03 -3.062258e-06)) ((1.481838e-09 2.983317e-10 -1.453823e-07) (-2.144442e-09 -1.699929e-09 9.227273e-07))
4.404252      	((1.827589e-03 2.567902e-02 -1.844848e-04) (2.424017e-05 6.012533e-03 -3.442103e-06)) ((1.614525e-09 2.686565e-10 -1.459565e-07) (-1.810844e-09 -1.879101e-09 9.841312e-07))
4.530944      	((2.042808e-03 2.554470e-02 -2.031437e-04) (2.747338e-05 6.000527e-03 -3.855267e-06)) ((1.701926e-09 2.384860e-10 -1.466266e-07) (-1.564282e-09 -2.024703e-09 1.054405e-06))
4.657586      	((2.288541e-03 2.541100e-02 -2.266153e-04) (3.114123e-05 5.989508e-03 -4.294537e-06)) ((1.841196e-09 2.415473e-10 -1.472614e-07) (5.944606e-10 -2.211241e-09 1.133009e-06))
4.78418       	((2.562081e-03 2.526984e-02 -2.554378e-04) (3.530957e-05 5.979195e-03 -4.739549e-06)) ((2.019009e-09 2.803235e-10 -1.477413e-07) (6.388359e-09 -1.903864e-09 1.219870e-06))
4.910725      	((2.863485e-03 2.512907e-02 -2.857620e-04) (3.997714e-05 5.969403e-03 -5.215952e-06)) ((2.177980e-09 4.138121e-10 -1.480729e-07) (1.502761e-08 -5.099925e-10 1.316524e-06))
5.03722       	((3.196578e-03 2.500217e-02 -3.202980e-04) (4.524199e-05 5.960047e-03 -5.743722e-06)) ((2.258851e-09 5.125701e-10 -1.483049e-07) (2.519306e-08 1.245731e-09 1.422039e-06))
5.163665      	((3.574075e-03 2.489314e-02 -3.582962e-04) (5.119350e-05 5.951064e-03 -6.308313e-06)) ((2.409235e-09 5.707602e-10 -1.485820e-07) (3.740647e-08 2.755647e-09 1.537690e-06))
5.290061      	((3.998181e-03 2.480708e-02 -4.001731e-04) (5.792167e-05 5.942377e-03 -6.916133e-06)) ((2.674539e-09 6.391791e-10 -1.488943e-07) (5.325279e-08 3.851303e-09 1.663909e-06))
5.416408      	((4.473116e-03 2.473676e-02 -4.499505e-04) (6.548473e-05 5.934073e-03 -7.558542e-06)) ((3.032524e-09 7.191857e-10 -1.492185e-07) (7.322984e-08 3.999932e-09 1.805345e-06))
5.542706      	((4.993622e-03 2.468099e-02 -5.039903e-04) (7.390923e-05 5.926333e-03 -8.300227e-06)) ((3.378037e-09 7.524194e-10 -1.495467e-07) (9.458490e-08 3.546219e-09 1.963082e-06))
5.668954      	((5.566910e-03 2.462677e-02 -5.621620e-04) (8.333107e-05 5.919148e-03 -9.173845e-06)) ((3.759776e-09 7.451908e-10 -1.499249e-07) (1.154184e-07 2.706012e-09 2.132835e-06))
5.795153      	((6.201977e-03 2.457889e-02 -6.263699e-04) (9.390223e-05 5.912435e-03 -1.014401e-05)) ((4.064271e-09 6.911271e-10 -1.502715e-07) (1.390845e-07 2.212749e-09 2.311941e-06))
5.921302      	((6.900174e-03 2.453905e-02 -6.990208e-04) (1.057624e-04 5.906165e-03 -1.120006e-05)) ((4.504074e-09 6.863573e-10 -1.505399e-07) (1.683956e-07 1.877413e-09 2.498826e-06))
6.047401      	((7.663737e-03 2.452255e-02 -7.795221e-04) (1.190598e-04 5.900402e-03 -1.238063e-05)) ((4.913813e-09 8.089174e-10 -1.507037e-07) (2.019235e-07 9.814403e-10 2.692202e-06))
6.173453      	((8.505556e-03 2.453269e-02 -8.708410e-04) (1.338827e-04 5.895376e-03 -1.375340e-05)) ((5.268016e-09 9.953938e-10 -1.509234e-07) (2.359768e-07 -8.716767e-10 2.895197e-06))
6.299461      	((9.435445e-03 2.457273e-02 -9.696045e-04) (1.501757e-04 5.891417e-03 -1.528874e-05)) ((5.521857e-09 1.102893e-09 -1.512602e-07) (2.724377e-07 -2.384173e-09 3.115448e-06))
6.425425      	((1.045354e-02 2.464987e-02 -1.069408e-03) (1.680084e-04 5.888829e-03 -1.693730e-05)) ((5.705704e-09 1.178447e-09 -1.516554e-07) (3.118823e-07 -2.721834e-09 3.358324e-06))
6.551347      	((1.157702e-02 2.476213e-02 -1.185109e-03) (1.875806e-04 5.887648e-03 -1.875516e-05)) ((6.291421e-09 1.439623e-09 -1.520602e-07) (3.526181e-07 -7.723374e-10 3.630210e-06))
6.677227      	((1.281647e-02 2.489548e-02 -1.315271e-03) (2.091716e-04 5.887895e-03 -2.090576e-05)) ((7.137519e-09 2.029968e-09 -1.526343e-07) (3.892297e-07 2.211074e-09 3.936049e-06))
6.803065      	((1.419364e-02 2.508277e-02 -1.455809e-03) (2.331638e-04 5.889885e-03 -2.336863e-05)) ((8.212637e-09 2.728422e-09 -1.534221e-07) (4.242834e-07 3.899451e-09 4.276701e-06))
6.928857      	((1.571993e-02 2.532004e-02 -1.617697e-03) (2.598799e-04 5.893808e-03 -2.617675e-05)) ((9.472798e-09 3.563117e-09 -1.542693e-07) (4.638977e-07 1.400265e-09 4.654799e-06))
7.054604      	((1.742285e-02 2.561708e-02 -1.796701e-03) (2.897212e-04 5.899411e-03 -2.939382e-05)) ((1.062788e-08 4.394140e-09 -1.550811e-07) (5.108107e-07 -7.352152e-09 5.075825e-06))
7.180304      	((1.928092e-02 2.600270e-02 -1.998940e-03) (3.228936e-04 5.906956e-03 -3.290638e-05)) ((1.169882e-08 5.492998e-09 -1.560854e-07) (5.654682e-07 -1.690626e-08 5.546003e-06))
7.305956      	((2.131632e-02 2.646954e-02 -2.221325e-03) (3.594480e-04 5.917252e-03 -3.672966e-05)) ((1.278194e-08 6.987553e-09 -1.569229e-07) (6.227080e-07 -2.085972e-08 6.064395e-06))
7.431558      	((2.350722e-02 2.705040e-02 -2.446519e-03) (3.996170e-04 5.931291e-03 -4.091304e-05)) ((1.384315e-08 8.684364e-09 -1.578516e-07) (6.759739e-07 -1.580207e-08 6.607147e-06))
7.557107      	((2.580300e-02 2.779073e-02 -2.689435e-03) (4.433871e-04 5.949978e-03 -4.544643e-05)) ((1.467566e-08 1.031947e-08 -1.593241e-07) (7.264864e-07 -5.632767e-09 7.164895e-06))
7.682603      	((2.821065e-02 2.867782e-02 -2.950618e-03) (4.908150e-04 5.973557e-03 -5.047850e-05)) ((1.580592e-08 1.234500e-08 -1.615988e-07) (7.795054e-07 2.833103e-09 7.750201e-06))
7.808041      	((3.069034e-02 2.973308e-02 -3.227127e-03) (5.418487e-04 6.001933e-03 -5.613386e-05)) ((1.703069e-08 1.470722e-08 -1.649333e-07) (8.329196e-07 7.110647e-09 8.375529e-06))
7.933414      	((3.317101e-02 3.098080e-02 -3.500960e-03) (5.961028e-04 6.035507e-03 -6.239212e-05)) ((1.866429e-08 1.685607e-08 -1.692833e-07) (8.827098e-07 1.101814e-08 9.026563e-06))
8.058729      	((3.560760e-02 3.239834e-02 -3.776012e-03) (6.530948e-04 6.075267e-03 -6.914836e-05)) ((2.050238e-08 1.948580e-08 -1.742159e-07) (9.220844e-07 1.597256e-08 9.646135e-06))
8.184008      	((3.791902e-02 3.397447e-02 -4.022398e-03) (7.124317e-04 6.121242e-03 -7.637281e-05)) ((2.129399e-08 2.270724e-08 -1.794479e-07) (9.474420e-07 1.581567e-08 1.018589e-05))
8.309261      	((4.005170e-02 3.565486e-02 -4.255821e-03) (7.730983e-04 6.172622e-03 -8.365262e-05)) ((2.193829e-08 2.603006e-08 -1.844677e-07) (9.658025e-07 1.212724e-08 1.064680e-05))
8.434488      	((4.186110e-02 3.743387e-02 -4.445522e-03) (8.333707e-04 6.229536e-03 -9.043025e-05)) ((2.225308e-08 2.968368e-08 -1.888325e-07) (9.811971e-07 6.023304e-09 1.102847e-05))
8.559694      	((4.320819e-02 3.921089e-02 -4.566908e-03) (8.908050e-04 6.291872e-03 -9.652157e-05)) ((2.227302e-08 3.247979e-08 -1.926973e-07) (9.911946e-07 -6.594877e-09 1.132218e-05))
8.684883      	((4.397318e-02 4.083810e-02 -4.627741e-03) (9.425405e-04 6.357701e-03 -1.017748e-04)) ((2.245142e-08 3.465092e-08 -1.944450e-07) (9.977648e-07 -2.383353e-08 1.152630e-05))
8.810061      	((4.399377e-02 4.209855e-02 -4.601642e-03) (9.859858e-04 6.423208e-03 -1.056338e-04)) ((2.246705e-08 3.556194e-08 -1.926742e-07) (1.009830e-06 -4.533499e-08 1.164327e-05))
8.935235      	((4.313361e-02 4.296969e-02 -4.489251e-03) (1.018036e-03 6.484194e-03 -1.075903e-04)) ((2.202785e-08 3.444499e-08 -1.886673e-07) (1.036595e-06 -7.137898e-08 1.167104e-05))
9.060417      	((4.132984e-02 4.327422e-02 -4.252226e-03) (1.034953e-03 6.537655e-03 -1.070607e-04)) ((1.980010e-08 3.190778e-08 -1.847251e-07) (1.080049e-06 -1.063957e-07 1.160322e-05))
9.185618      	((3.849725e-02 4.293870e-02 -3.944884e-03) (1.032589e-03 6.581361e-03 -1.042083e-04)) ((1.664218e-08 2.747128e-08 -1.832577e-07) (1.126051e-06 -1.543583e-07 1.144475e-05))
9.310864      	((3.467453e-02 4.191207e-02 -3.519208e-03) (1.007622e-03 6.613732e-03 -9.905683e-05)) ((1.390401e-08 2.115945e-08 -1.830284e-07) (1.167324e-06 -2.231239e-07 1.120852e-05))
9.43619       	((3.002647e-02 4.039032e-02 -3.042425e-03) (9.575266e-04 6.633858e-03 -9.152482e-05)) ((1.168206e-08 1.443977e-08 -1.820699e-07) (1.210387e-06 -3.195607e-07 1.093820e-05))
9.561626      	((2.477187e-02 3.862722e-02 -2.522077e-03) (8.824971e-04 6.643810e-03 -8.142440e-05)) ((6.554473e-09 6.949909e-09 -1.783071e-07) (1.265300e-06 -4.251300e-07 1.062900e-05))
9.687197      	((1.939384e-02 3.690138e-02 -2.000038e-03) (7.862259e-04 6.646360e-03 -6.891506e-05)) ((5.952217e-12 1.660153e-10 -1.669440e-07) (1.340975e-06 -5.162693e-07 1.030699e-05))
9.81293       	((1.446674e-02 3.529202e-02 -1.537490e-03) (6.767664e-04 6.644239e-03 -5.505216e-05)) ((-6.386400e-09 -5.726614e-09 -1.466148e-07) (1.425876e-06 -5.907062e-07 9.937683e-06))
9.938847      	((1.040305e-02 3.384329e-02 -1.172549e-03) (5.636196e-04 6.639817e-03 -4.138064e-05)) ((-1.053499e-08 -8.632920e-09 -1.228718e-07) (1.495519e-06 -6.610282e-07 9.554798e-06))
10.06496      	((7.265716e-03 3.273221e-02 -9.660543e-04) (4.539655e-04 6.637381e-03 -2.927832e-05)) ((-1.031364e-08 -9.616374e-09 -1.073752e-07) (1.529755e-06 -7.253170e-07 9.154517e-06))
10.191272     	((5.291588e-03 3.183452e-02 -8.502684e-04) (3.531280e-04 6.636799e-03 -1.984319e-05)) ((-7.662545e-09 -8.694335e-09 -1.067506e-07) (1.516097e-06 -7.760358e-07 8.836685e-06))
10.317779     	((4.289167e-03 3.109395e-02 -8.747638e-04) (2.653252e-04 6.637195e-03 -1.262584e-05)) ((-3.722747e-09 -7.779672e-09 -1.150952e-07) (1.502105e-06 -7.972096e-07 8.680399e-06))
10.444475     	((4.058331e-03 3.052329e-02 -9.724837e-04) (1.926909e-04 6.639352e-03 -7.538380e-06)) ((-5.569707e-11 -6.173891e-09 -1.265679e-07) (1.496045e-06 -7.767345e-07 8.650616e-06))
10.571339     	((4.371681e-03 2.996338e-02 -1.066662e-03) (1.346419e-04 6.643174e-03 -4.703293e-06)) ((8.395483e-10 -3.396388e-09 -1.381358e-07) (1.472770e-06 -7.171783e-07 8.738225e-06))
10.698345     	((4.939835e-03 2.930705e-02 -1.181826e-03) (9.212793e-05 6.646049e-03 -3.682398e-06)) ((3.124785e-10 4.139312e-10 -1.475903e-07) (1.438648e-06 -6.261757e-07 8.829878e-06))
10.825472     	((5.541921e-03 2.838200e-02 -1.308893e-03) (6.581973e-05 6.644395e-03 -4.278107e-06)) ((-1.754581e-09 5.241466e-09 -1.516478e-07) (1.393780e-06 -5.263941e-07 8.775631e-06))
10.952702     	((6.127049e-03 2.715255e-02 -1.420053e-03) (5.539598e-05 6.634858e-03 -6.437539e-06)) ((-2.412851e-09 9.381518e-09 -1.466212e-07) (1.323831e-06 -4.469702e-07 8.461284e-06))
11.080016     	((6.690815e-03 2.581428e-02 -1.575763e-03) (5.958470e-05 6.615320e-03 -1.008735e-05)) ((3.710478e-09 1.279523e-08 -1.358241e-07) (1.231389e-06 -3.945601e-07 7.875882e-06))
11.207394     	((7.296770e-03 2.472606e-02 -1.788715e-03) (7.359586e-05 6.588741e-03 -1.566559e-05)) ((1.072905e-08 1.429583e-08 -1.281801e-07) (1.105279e-06 -3.614017e-07 7.162561e-06))
11.334814     	((8.028125e-03 2.408676e-02 -1.989739e-03) (9.017867e-05 6.560831e-03 -2.240261e-05)) ((1.688304e-08 1.342909e-08 -1.265847e-07) (9.629757e-07 -3.365901e-07 6.552707e-06))
