# Forces      
# CofR        : (0.000000e+00 0.000000e+00 0.000000e+00)
# Time        forces(pressure viscous)	moments(pressure viscous)
0             	((0.000000e+00 0.000000e+00 0.000000e+00) (0.000000e+00 0.000000e+00 0.000000e+00)) ((0.000000e+00 0.000000e+00 0.000000e+00) (0.000000e+00 0.000000e+00 0.000000e+00))
0.012         	((9.261091e-09 9.101605e-07 2.425484e-09) (4.358466e-10 2.359995e-08 -8.245221e-11)) ((-3.032560e-13 1.165967e-13 -2.110920e-08) (6.943331e-14 -1.850736e-12 -2.788280e-05))
0.0264        	((3.732226e-09 1.466948e-07 1.191462e-09) (1.135115e-09 3.424910e-08 -1.259434e-10)) ((1.380053e-14 -1.954095e-12 -1.031317e-08) (-6.439421e-13 -4.665917e-12 -2.554875e-05))
0.04368       	((5.087470e-08 4.706893e-07 1.157072e-08) (1.278894e-09 3.667408e-08 -2.235487e-10)) ((-2.589696e-13 -2.717030e-12 -6.410829e-09) (-1.381927e-12 -9.666324e-12 -2.317424e-05))
0.064416      	((1.218658e-08 1.018429e-08 -4.244823e-09) (9.571667e-10 3.305749e-08 -4.311885e-10)) ((-2.399557e-13 -2.609330e-12 -4.322035e-09) (-1.961620e-12 -1.637428e-11 -2.083299e-05))
0.0892992     	((1.048973e-07 2.421187e-07 4.474305e-09) (1.974392e-09 2.923474e-08 -6.276226e-10)) ((5.473841e-13 -3.882996e-12 -3.780665e-09) (-8.205299e-13 -2.380719e-11 -1.861222e-05))
0.119159      	((-5.132515e-08 1.664767e-08 2.004393e-10) (3.998971e-09 2.562036e-08 -7.806463e-10)) ((8.266865e-13 -2.792037e-12 -3.223404e-09) (2.231371e-12 -2.670525e-11 -1.658793e-05))
0.154991      	((-1.560390e-08 1.098248e-07 2.078495e-09) (6.283235e-09 2.062596e-08 -8.213305e-10)) ((5.803153e-13 -3.136892e-12 -2.789344e-09) (5.426091e-13 -2.594121e-11 -1.480460e-05))
0.197989      	((-3.813816e-08 4.508049e-08 -3.435574e-09) (7.002271e-09 1.383061e-08 -6.974393e-10)) ((7.015521e-13 -2.620357e-12 -2.423656e-09) (-5.508750e-12 -2.356623e-11 -1.325774e-05))
0.249587      	((-1.155975e-08 7.406614e-08 -2.616185e-09) (6.040796e-09 7.776253e-09 -5.275358e-10)) ((7.146059e-13 -2.491021e-12 -2.110741e-09) (-7.591844e-12 -2.005311e-11 -1.189398e-05))
0.311504      	((-3.503568e-08 2.857972e-08 -1.037888e-09) (8.121168e-09 6.368445e-09 -4.514844e-10)) ((-2.866125e-14 -1.928826e-12 -1.829189e-09) (-1.547820e-12 -1.513088e-11 -1.065226e-05))
0.385805      	((-5.404049e-08 5.203192e-08 -1.380871e-09) (1.216787e-08 7.673747e-09 -5.849851e-10)) ((-3.835375e-13 -1.836662e-12 -1.588980e-09) (3.009517e-12 -1.379673e-11 -9.519771e-06))
0.474966      	((-3.923056e-08 4.775639e-08 -4.692757e-09) (9.060945e-09 1.122198e-08 -7.782383e-10)) ((-6.539071e-13 -1.633964e-12 -1.367874e-09) (1.715701e-12 -1.062986e-11 -8.503510e-06))
0.581959      	((-4.816161e-08 1.054589e-07 -5.592908e-09) (8.412802e-10 1.336857e-08 -6.888049e-10)) ((-5.720933e-13 -1.635903e-12 -1.159565e-09) (2.296162e-12 -6.127595e-12 -7.605570e-06))
0.710351      	((-5.076011e-08 7.293451e-08 -5.649530e-09) (-8.125325e-09 1.400605e-08 -6.070990e-10)) ((-6.554480e-13 -2.145190e-12 -9.757272e-10) (6.884164e-12 -3.538770e-12 -6.819946e-06))
0.864421      	((-3.187351e-08 1.456622e-07 -4.244344e-09) (-1.169515e-08 1.024995e-08 -4.773920e-10)) ((-1.680851e-12 -3.128205e-12 -8.228163e-10) (2.248238e-11 -6.545950e-12 -6.133367e-06))
1.049306      	((-1.022075e-07 1.191976e-07 2.287632e-09) (-1.313395e-08 5.247233e-09 -3.477512e-10)) ((-3.313812e-12 -4.002588e-12 -6.935352e-10) (3.550097e-11 -2.801334e-12 -5.530688e-06))
1.271167      	((-6.613492e-08 1.073188e-07 7.319758e-09) (-1.166941e-08 -1.868652e-09 -1.180541e-10)) ((-6.697465e-12 -5.453954e-12 -5.982499e-10) (2.185088e-11 -3.172767e-12 -4.999617e-06))
1.5374        	((-1.222899e-08 1.254327e-07 7.535839e-09) (-7.073260e-09 -5.826962e-09 -4.659977e-10)) ((-8.410484e-12 -6.492665e-12 -5.166659e-10) (-9.074384e-13 -1.583312e-12 -4.532211e-06))
1.85688       	((9.975225e-10 1.557476e-07 2.681478e-09) (-7.316763e-09 -4.201213e-09 -1.016760e-09)) ((-7.775554e-12 -6.495642e-12 -4.427522e-10) (-9.745337e-12 5.806940e-12 -4.123599e-06))
2.240256      	((9.469699e-09 1.300103e-07 1.185302e-09) (-1.189913e-09 -3.336118e-09 -1.231946e-09)) ((-7.278957e-12 -4.098940e-12 -3.841773e-10) (-2.379127e-11 1.905588e-11 -3.769397e-06))
2.700307      	((-9.854339e-09 1.285282e-07 1.852257e-09) (-4.411378e-09 1.630435e-09 2.225157e-10)) ((-6.613251e-12 -1.740736e-12 -3.282340e-10) (-2.860826e-11 4.133637e-11 -3.463613e-06))
3.252369      	((-9.855436e-09 6.250567e-08 6.364422e-09) (-1.060835e-08 2.645919e-09 1.023372e-09)) ((-4.905951e-12 -1.957951e-12 -2.805929e-10) (-1.256475e-11 8.701347e-11 -3.198385e-06))
3.914842      	((-4.317778e-09 4.225975e-08 8.289982e-09) (-1.061438e-08 3.083396e-09 -2.113601e-10)) ((-3.915113e-12 -2.748679e-12 -2.403010e-10) (1.823576e-11 1.432927e-10 -2.965757e-06))
4.709811      	((1.823529e-08 2.678474e-08 4.956371e-09) (-1.088599e-08 6.374670e-09 -2.083636e-09)) ((-1.269589e-12 -3.285546e-12 -2.057983e-10) (6.055260e-11 1.855527e-10 -2.759276e-06))
5.663773      	((2.387432e-08 1.952189e-08 2.420111e-09) (-1.447404e-08 1.324624e-08 -3.197293e-09)) ((6.306641e-14 -3.367273e-12 -1.773635e-10) (8.337677e-11 2.070244e-10 -2.574136e-06))
6.808528      	((8.928920e-09 1.141341e-08 3.799715e-09) (-1.651431e-08 1.379740e-08 -3.320182e-09)) ((-9.716687e-13 -4.210028e-12 -1.579468e-10) (1.089368e-10 1.936309e-10 -2.406884e-06))
8.182233      	((1.082277e-08 1.313949e-08 -1.111654e-09) (-9.983052e-09 1.702648e-08 -3.536908e-09)) ((-1.780355e-12 -4.434726e-12 -1.459915e-10) (1.417804e-10 1.549198e-10 -2.254830e-06))
9.83068       	((1.285649e-08 1.998373e-08 -3.859494e-09) (-8.196553e-09 2.103532e-08 -3.053032e-09)) ((-1.431835e-12 -4.578087e-12 -1.392544e-10) (1.554522e-10 1.037916e-10 -2.116232e-06))
11.808816     	((1.568637e-09 1.426592e-08 -4.926905e-09) (-1.260922e-08 1.635628e-08 -1.931679e-09)) ((-1.487024e-12 -4.198772e-12 -1.317974e-10) (1.870626e-10 6.543717e-11 -1.990369e-06))
14.182579     	((-1.319263e-08 1.548555e-08 -5.624929e-09) (-1.712030e-08 1.499628e-08 -8.502476e-10)) ((-6.784445e-13 -3.719034e-12 -1.250555e-10) (2.148142e-10 1.573990e-11 -1.877486e-06))
17.015798     	((-1.992192e-08 5.778720e-09 -2.928076e-09) (-2.123354e-08 1.301000e-08 -1.108960e-09)) ((-5.043195e-13 -3.745679e-12 -1.213518e-10) (2.182584e-10 -4.734334e-11 -1.778396e-06))
20.320542     	((-1.794436e-08 1.955857e-09 -5.170345e-09) (-1.998583e-08 1.146629e-08 -7.504872e-10)) ((-5.653585e-13 -3.968847e-12 -1.172876e-10) (2.000280e-10 -1.073436e-10 -1.694208e-06))
24.11077      	((-1.514549e-08 2.901688e-09 -4.028434e-09) (-1.506462e-08 9.836142e-09 -3.051871e-10)) ((-1.589990e-12 -3.994449e-12 -1.139170e-10) (1.623632e-10 -1.561227e-10 -1.624751e-06))
28.400358     	((-1.898297e-08 8.488260e-10 -1.624719e-09) (-1.190520e-08 1.156754e-08 2.052506e-10)) ((-2.172241e-12 -4.622185e-12 -1.083205e-10) (1.259523e-10 -1.908496e-10 -1.568954e-06))
33.200858     	((-2.148541e-08 5.555727e-09 -2.505342e-09) (-1.270588e-08 1.046801e-08 1.279713e-11)) ((-1.970410e-12 -4.387839e-12 -1.036646e-10) (1.060819e-10 -2.106747e-10 -1.525573e-06))
38.30947      	((-1.745579e-08 7.394756e-09 -4.934763e-09) (-1.143517e-08 1.278623e-08 -5.153245e-10)) ((-1.320600e-12 -4.711852e-12 -1.003438e-10) (1.011016e-10 -1.954859e-10 -1.494429e-06))
43.417474     	((3.345939e-09 2.287175e-08 -5.149477e-09) (-6.103321e-09 8.977697e-09 -5.628756e-10)) ((-5.547552e-13 -5.102942e-12 -9.764290e-11) (1.093078e-10 -1.806687e-10 -1.474777e-06))
48.524845     	((1.103807e-08 2.470117e-08 -6.460901e-09) (-8.123417e-10 4.867965e-09 -2.927285e-10)) ((-5.326548e-13 -5.133981e-12 -9.519777e-11) (1.210996e-10 -1.666587e-10 -1.464906e-06))
53.631504     	((1.934148e-08 3.216374e-08 -6.120828e-09) (4.752608e-10 3.856665e-09 4.226439e-10)) ((-8.880496e-13 -4.985352e-12 -9.239487e-11) (1.323719e-10 -1.631180e-10 -1.463797e-06))
58.737321     	((1.558420e-08 2.545640e-08 -4.910064e-09) (-7.022837e-09 3.219933e-09 2.182134e-10)) ((-1.094441e-12 -4.589793e-12 -9.122332e-11) (1.394714e-10 -1.764722e-10 -1.470603e-06))
63.842266     	((1.731004e-08 2.405896e-08 -5.169551e-09) (-7.901693e-09 2.019874e-09 2.092607e-10)) ((-1.209393e-12 -4.173929e-12 -9.109099e-11) (1.247530e-10 -2.118741e-10 -1.484618e-06))
68.946304     	((1.189138e-08 1.599784e-08 -3.690247e-09) (-3.861791e-09 2.005018e-09 3.071536e-10)) ((-1.192902e-12 -3.797461e-12 -9.096930e-11) (9.635652e-11 -2.468124e-10 -1.505127e-06))
73.99458      	((9.118357e-09 1.649455e-08 -4.909015e-09) (-5.333636e-10 1.179459e-09 3.007439e-10)) ((-1.132211e-12 -3.539595e-12 -9.128438e-11) (7.395700e-11 -2.622205e-10 -1.531168e-06))
78.941416     	((-4.888714e-09 9.968867e-09 -2.847709e-09) (7.217075e-10 -6.780835e-10 7.040773e-10)) ((-1.086221e-12 -3.307801e-12 -9.223730e-11) (4.299238e-11 -2.564935e-10 -1.561413e-06))
83.793971     	((-7.740267e-09 1.186192e-08 -5.943085e-09) (2.378900e-10 -2.046341e-09 8.625169e-10)) ((-9.511618e-13 -3.229083e-12 -9.429626e-11) (1.511503e-11 -2.337881e-10 -1.593915e-06))
88.561274     	((-1.821851e-08 1.041662e-08 -4.923002e-09) (-7.549598e-10 -9.768351e-10 1.034400e-09)) ((-8.898312e-13 -3.129323e-12 -9.713053e-11) (-4.889765e-12 -2.013952e-10 -1.626296e-06))
93.253307     	((-2.465639e-08 1.459947e-08 -4.647971e-09) (-5.908338e-10 -9.082218e-11 1.369364e-09)) ((-6.187718e-13 -3.059963e-12 -1.005572e-10) (-1.409234e-11 -1.731879e-10 -1.656079e-06))
97.882323     	((-2.614234e-08 9.813375e-09 -7.707397e-09) (-4.536746e-10 -2.120704e-09 1.725181e-09)) ((-3.344253e-13 -3.378775e-12 -1.036990e-10) (4.671885e-12 -1.591279e-10 -1.681330e-06))
102.46203     	((-2.608783e-08 7.057496e-09 -7.075666e-09) (6.160782e-10 -2.039211e-09 2.453779e-09)) ((-1.470787e-14 -3.725939e-12 -1.056744e-10) (4.305990e-11 -1.646826e-10 -1.700933e-06))
107.005628    	((-1.372777e-08 7.174837e-09 -7.609666e-09) (3.594322e-09 1.953290e-10 2.810185e-09)) ((1.412462e-13 -4.168649e-12 -1.061795e-10) (8.436628e-11 -1.895957e-10 -1.714349e-06))
111.492072    	((-1.593042e-08 8.325337e-09 -2.665690e-09) (6.326444e-09 2.636001e-09 3.502159e-09)) ((-9.768726e-14 -4.438350e-12 -1.056081e-10) (1.058284e-10 -2.133226e-10 -1.721626e-06))
115.920205    	((-7.096338e-09 1.459561e-08 -4.089097e-09) (7.391489e-09 5.957152e-09 3.855662e-09)) ((-3.144924e-13 -4.854014e-12 -1.046847e-10) (1.020160e-10 -2.306237e-10 -1.723595e-06))
120.309806    	((1.160056e-09 1.614925e-08 7.288903e-10) (9.494626e-09 8.009055e-09 4.242083e-09)) ((-7.582843e-13 -4.820755e-12 -1.031577e-10) (9.107420e-11 -2.450845e-10 -1.721313e-06))
