# Forces      
# CofR        : (0.000000e+00 0.000000e+00 0.000000e+00)
# Time        forces(pressure viscous)	moments(pressure viscous)
0             	((0.000000e+00 0.000000e+00 0.000000e+00) (0.000000e+00 0.000000e+00 0.000000e+00)) ((0.000000e+00 0.000000e+00 0.000000e+00) (0.000000e+00 0.000000e+00 0.000000e+00))
0.012         	((-1.737215e-10 5.683137e-08 1.191537e-10) (1.571071e-12 1.445002e-09 -4.781398e-12)) ((-1.526418e-14 1.045446e-14 -1.293992e-09) (6.085632e-15 -1.175372e-13 -1.758695e-06))
0.0264        	((-6.434080e-10 8.376144e-09 6.726218e-12) (2.632800e-12 2.134271e-09 -8.636124e-12)) ((1.023485e-14 -1.143626e-13 -5.955791e-10) (-1.148859e-15 -3.214671e-13 -1.611023e-06))
0.04368       	((-2.265007e-10 2.664839e-08 4.372157e-10) (-5.463712e-13 2.255039e-09 -1.249243e-11)) ((-2.026513e-14 -1.374055e-13 -3.273933e-10) (-1.395266e-14 -5.948064e-13 -1.459265e-06))
0.064416      	((-5.995215e-10 -3.521405e-09 -3.769988e-10) (-1.521774e-11 1.955130e-09 -2.063813e-11)) ((9.689603e-15 -7.679705e-14 -1.791973e-10) (-3.610815e-14 -9.355192e-13 -1.306866e-06))
0.0892992     	((9.793480e-10 1.172441e-08 3.084060e-10) (-2.773190e-11 1.636316e-09 -3.197354e-11)) ((-2.575592e-14 -1.932877e-13 -1.363762e-10) (-5.444259e-14 -1.362003e-12 -1.158382e-06))
0.119159      	((-4.462686e-10 -1.864738e-09 7.124963e-11) (-3.515230e-11 1.349569e-09 -3.894012e-11)) ((7.388761e-15 -1.360242e-13 -1.036771e-10) (-1.767862e-15 -1.609315e-12 -1.018476e-06))
0.154991      	((2.001842e-10 5.904148e-09 -7.107288e-11) (-4.543161e-11 1.247421e-09 -4.188806e-11)) ((-1.900218e-14 -1.104680e-13 -8.589541e-11) (5.587264e-14 -1.730074e-12 -8.904239e-07))
0.197989      	((-3.041884e-10 2.318754e-09 5.344210e-11) (-4.978030e-11 1.130632e-09 -4.274892e-11)) ((-2.458494e-14 -1.073340e-13 -7.083377e-11) (5.528343e-14 -1.786753e-12 -7.769890e-07))
0.249587      	((3.792261e-10 4.221415e-09 9.192409e-11) (-3.934816e-11 1.040592e-09 -4.218404e-11)) ((-2.116994e-14 -9.873589e-14 -5.850355e-11) (-4.439197e-14 -1.700628e-12 -6.795468e-07))
0.311504      	((-4.535144e-10 2.785173e-09 6.549039e-11) (-1.002257e-11 9.762361e-10 -4.229655e-11)) ((-2.599784e-15 -6.893982e-14 -4.795016e-11) (-1.652382e-13 -1.579312e-12 -5.977774e-07))
0.385805      	((3.463527e-10 2.654871e-09 -6.402942e-11) (1.629587e-11 9.018031e-10 -4.287031e-11)) ((1.411844e-14 -2.893554e-14 -4.001618e-11) (-1.770080e-13 -1.477721e-12 -5.299247e-07))
0.474966      	((-5.847744e-10 2.306342e-09 3.548610e-11) (2.125610e-11 8.366283e-10 -4.827503e-11)) ((9.841762e-15 -9.456374e-15 -3.451140e-11) (-1.125948e-13 -1.426358e-12 -4.733777e-07))
0.581959      	((-3.419521e-10 2.199255e-09 1.116271e-10) (2.599176e-12 7.510987e-10 -4.596235e-11)) ((3.294382e-14 1.900643e-14 -2.927046e-11) (4.807014e-14 -1.015582e-12 -4.255507e-07))
0.710351      	((-1.250127e-09 2.279821e-09 -5.506732e-11) (-6.524650e-11 6.488267e-10 -3.414084e-11)) ((3.529058e-14 4.041032e-14 -2.414696e-11) (2.332951e-13 -3.009391e-13 -3.843519e-07))
0.864421      	((-9.008667e-10 3.784762e-09 -1.717271e-10) (-1.721959e-10 5.868814e-10 -2.589747e-11)) ((2.855931e-14 6.551979e-14 -2.068711e-11) (3.467370e-13 1.317251e-13 -3.482662e-07))
1.049306      	((2.732490e-10 3.592938e-09 -1.133857e-10) (-1.992979e-10 4.720033e-10 -2.583668e-11)) ((2.610565e-14 7.644659e-14 -1.849500e-11) (4.127688e-13 3.598999e-13 -3.162435e-07))
1.271167      	((3.741822e-11 3.780868e-09 -6.755495e-11) (-1.537860e-10 3.633600e-10 -1.755814e-11)) ((1.081059e-14 9.029907e-14 -1.683004e-11) (-2.950190e-13 3.328838e-13 -2.875486e-07))
1.5374        	((1.404889e-10 3.995263e-09 -5.031758e-11) (-8.546252e-11 3.420964e-10 -3.813823e-12)) ((6.954888e-15 1.166462e-13 -1.537280e-11) (-2.061399e-12 -3.847781e-13 -2.617084e-07))
1.85688       	((-3.585994e-10 4.656587e-09 -1.518301e-11) (2.914754e-11 3.216204e-10 1.310744e-12)) ((-6.372575e-15 1.271198e-13 -1.407921e-11) (-3.666148e-12 -1.778384e-12 -2.384603e-07))
2.240256      	((-8.858759e-10 3.672385e-09 6.068552e-11) (1.166253e-10 3.077569e-10 4.338912e-12)) ((-7.872610e-15 1.274301e-13 -1.324038e-11) (-4.978736e-12 -3.461788e-12 -2.176649e-07))
2.700307      	((-7.649750e-11 2.495926e-09 4.829197e-11) (1.898332e-10 2.498493e-10 5.713474e-12)) ((-1.318018e-14 1.292627e-13 -1.236450e-11) (-6.466543e-12 -5.166451e-12 -1.992156e-07))
3.252369      	((-1.352688e-10 1.723847e-09 1.531970e-10) (2.748835e-10 1.116736e-10 1.743157e-11)) ((-1.243895e-14 1.305543e-13 -1.129747e-11) (-8.143085e-12 -6.391264e-12 -1.829662e-07))
3.914842      	((3.843554e-10 1.019363e-09 1.694666e-10) (4.299629e-10 -1.153368e-11 2.496518e-11)) ((-4.013185e-14 1.031228e-13 -1.012993e-11) (-9.416822e-12 -7.320726e-12 -1.686978e-07))
4.709811      	((1.368469e-10 6.375245e-10 1.023648e-10) (5.263864e-10 -1.456880e-10 1.818192e-11)) ((-7.682546e-14 4.984632e-14 -8.988031e-12) (-9.454952e-12 -7.872299e-12 -1.561160e-07))
5.663773      	((4.642134e-10 -1.991867e-10 1.184163e-10) (4.982294e-10 -2.776191e-10 7.423761e-12)) ((-1.022249e-13 5.435053e-16 -7.875662e-12) (-9.232386e-12 -8.377061e-12 -1.449074e-07))
6.808528      	((7.519584e-10 -9.479192e-11 -5.360416e-11) (3.996433e-10 -3.096831e-10 -8.325752e-12)) ((-9.250868e-14 -2.294235e-14 -6.978961e-12) (-8.765046e-12 -8.114863e-12 -1.348062e-07))
8.182233      	((7.458427e-10 -4.134869e-10 -9.662053e-11) (2.456011e-10 -2.791791e-10 -3.079755e-11)) ((-9.049024e-14 -3.997032e-14 -6.273369e-12) (-7.630086e-12 -6.981241e-12 -1.256135e-07))
9.83068       	((6.382249e-10 1.487867e-10 -1.185793e-10) (1.530688e-10 -1.797907e-10 -4.744951e-11)) ((-9.547023e-14 -5.382591e-14 -5.698900e-12) (-6.185645e-12 -5.565618e-12 -1.171904e-07))
11.808816     	((3.580053e-10 1.990955e-10 -8.945765e-11) (9.735843e-11 -7.544895e-11 -4.720690e-11)) ((-8.021371e-14 -6.434808e-14 -5.252840e-12) (-5.253280e-12 -4.380635e-12 -1.094374e-07))
14.182579     	((2.695793e-11 2.828318e-10 -8.444713e-11) (4.611755e-11 -2.086827e-12 -4.646987e-11)) ((-5.741991e-14 -8.082366e-14 -4.914218e-12) (-3.984213e-12 -3.487612e-12 -1.022821e-07))
17.031095     	((2.032798e-10 1.820221e-10 -1.100154e-10) (3.467011e-11 2.805586e-11 -4.491751e-11)) ((-4.614516e-14 -7.534590e-14 -4.610853e-12) (-2.339372e-12 -2.796714e-12 -9.568742e-08))
20.449314     	((3.671538e-10 2.633545e-10 -6.365578e-11) (-4.455020e-12 4.327627e-11 -3.648268e-11)) ((-3.475121e-14 -7.822608e-14 -4.316466e-12) (-1.190586e-12 -2.362219e-12 -8.964316e-08))
24.551176     	((1.686588e-10 1.645527e-10 -2.329846e-11) (-2.253775e-11 7.528166e-11 -2.591767e-11)) ((-3.269856e-14 -7.429438e-14 -4.073577e-12) (-4.456339e-13 -2.152658e-12 -8.413243e-08))
29.473411     	((-6.157365e-11 1.878125e-10 4.376052e-12) (-5.125867e-11 1.066835e-10 -1.588572e-11)) ((-2.597313e-14 -7.172724e-14 -3.877054e-12) (6.888263e-14 -2.347157e-12 -7.912564e-08))
35.380094     	((-8.850381e-11 7.362088e-11 1.728823e-11) (-4.107257e-11 7.560745e-11 -9.691852e-12)) ((-1.815347e-14 -6.634942e-14 -3.717687e-12) (5.505782e-13 -2.583613e-12 -7.458199e-08))
42.468112     	((-1.407254e-10 1.682865e-10 1.190268e-11) (-1.818579e-11 3.280896e-11 -5.492347e-12)) ((-6.424126e-15 -5.347602e-14 -3.555562e-12) (7.294634e-13 -2.868693e-12 -7.045706e-08))
50.973735     	((-5.897436e-11 6.944310e-11 -5.166358e-12) (2.392281e-11 4.927714e-12 -9.224348e-14)) ((7.475904e-15 -4.012321e-14 -3.436205e-12) (6.565578e-13 -2.823146e-12 -6.671138e-08))
61.180482     	((6.482958e-11 1.267073e-10 -3.248638e-11) (3.482049e-11 -2.075455e-11 9.381195e-13)) ((1.091413e-14 -3.851006e-14 -3.316542e-12) (3.267098e-13 -2.594929e-12 -6.331029e-08))
73.428578     	((3.018306e-11 2.424499e-10 -2.593399e-13) (2.818622e-11 -2.939921e-11 5.727789e-12)) ((8.478679e-15 -4.312333e-14 -3.177856e-12) (-5.252256e-14 -2.361992e-12 -6.022022e-08))
88.126294     	((-1.896137e-11 2.074074e-10 -7.738268e-12) (3.836779e-12 -4.111215e-11 8.811891e-12)) ((4.054340e-15 -4.185375e-14 -3.056433e-12) (-3.187732e-13 -2.101044e-12 -5.741105e-08))
105.763553    	((7.318110e-11 2.262126e-10 -8.137813e-12) (3.334533e-12 -4.650557e-11 1.155631e-11)) ((-1.651372e-15 -4.223397e-14 -2.957875e-12) (-5.752122e-13 -1.908427e-12 -5.486078e-08))
126.928263    	((7.419180e-11 2.234245e-10 -1.918765e-11) (5.215383e-12 -4.468912e-11 1.746391e-11)) ((-5.964640e-15 -4.327930e-14 -2.871440e-12) (-7.941642e-13 -1.616975e-12 -5.254943e-08))
152.325916    	((8.246071e-11 2.332164e-10 -2.759666e-12) (2.684211e-11 -5.679402e-11 2.001842e-11)) ((-6.046739e-15 -4.224991e-14 -2.792600e-12) (-1.007405e-12 -1.298739e-12 -5.045910e-08))
182.803099    	((5.136220e-11 2.251633e-10 -1.231287e-11) (2.462598e-11 -5.625942e-11 1.971194e-11)) ((-5.782759e-15 -4.249482e-14 -2.692116e-12) (-1.163254e-12 -1.041856e-12 -4.857302e-08))
219.375719    	((-2.476994e-11 1.683720e-10 -1.854733e-12) (3.302166e-12 -7.906879e-11 2.042190e-11)) ((-4.848476e-15 -3.933674e-14 -2.617336e-12) (-1.254951e-12 -6.768509e-13 -4.687562e-08))
263.262863    	((-9.749033e-11 1.291511e-10 1.539673e-11) (-7.062396e-12 -8.527443e-11 1.892697e-11)) ((-6.216089e-15 -3.730027e-14 -2.569233e-12) (-1.404107e-12 -2.346487e-13 -4.535309e-08))
315.24357     	((-1.355914e-10 1.044490e-10 5.427944e-12) (-3.923016e-11 -7.200460e-11 1.841170e-11)) ((-4.247058e-15 -3.638418e-14 -2.533544e-12) (-1.393506e-12 1.462844e-13 -4.399941e-08))
375.316356    	((-1.343625e-10 9.339318e-11 -1.351021e-11) (-6.251674e-11 -6.282602e-11 1.672316e-11)) ((-2.383787e-15 -3.592665e-14 -2.507014e-12) (-1.287631e-12 5.095541e-13 -4.280935e-08))
443.479625    	((-1.625322e-10 7.607769e-11 -2.138982e-11) (-8.261394e-11 -5.188411e-11 1.394930e-11)) ((5.543360e-17 -3.473898e-14 -2.487380e-12) (-1.172149e-12 8.148069e-13 -4.177332e-08))
519.73184     	((-1.702039e-10 4.472933e-11 -6.953078e-12) (-9.296204e-11 -4.425083e-11 1.185979e-11)) ((2.350699e-15 -3.525173e-14 -2.467032e-12) (-9.885168e-13 1.008180e-12 -4.087957e-08))
600.606558    	((-1.864034e-10 5.017524e-11 -1.262203e-12) (-9.465295e-11 -3.281328e-11 1.272603e-11)) ((3.232698e-15 -3.319537e-14 -2.450095e-12) (-7.275277e-13 1.013024e-12 -4.012191e-08))
681.463065    	((-1.726032e-10 4.864565e-11 -7.450919e-12) (-1.005062e-10 -1.764846e-11 1.292482e-11)) ((4.319236e-15 -3.156922e-14 -2.436644e-12) (-4.718316e-13 8.724227e-13 -3.949252e-08))
762.303416    	((-1.552800e-10 4.200086e-11 -4.559062e-12) (-9.982082e-11 -1.040807e-11 1.299348e-11)) ((3.969186e-15 -3.010156e-14 -2.424061e-12) (-3.329516e-13 6.959225e-13 -3.897566e-08))
843.130037    	((-1.537758e-10 3.273204e-11 -3.368681e-12) (-1.008421e-10 -4.586826e-12 1.362497e-11)) ((2.441515e-15 -2.846631e-14 -2.413003e-12) (-2.508658e-13 5.501176e-13 -3.855483e-08))
923.945383    	((-1.540008e-10 2.490930e-11 2.307337e-13) (-1.040576e-10 3.998970e-13 1.300241e-11)) ((8.166987e-16 -2.703109e-14 -2.405382e-12) (-1.755186e-13 4.104877e-13 -3.821335e-08))
1004.74944    	((-1.515181e-10 2.025842e-11 3.828938e-12) (-1.048137e-10 5.301397e-12 1.312228e-11)) ((-5.653788e-16 -2.566764e-14 -2.398903e-12) (-1.125955e-13 2.808512e-13 -3.793720e-08))
1085.542207   	((-1.562053e-10 1.560849e-11 4.900925e-12) (-1.082784e-10 8.718573e-12 1.325911e-11)) ((-1.448849e-15 -2.450927e-14 -2.392560e-12) (-3.712328e-14 1.863893e-13 -3.771431e-08))
1166.326075   	((-1.540920e-10 1.706100e-11 2.302493e-12) (-1.074988e-10 1.064448e-11 1.320508e-11)) ((-8.992987e-16 -2.350757e-14 -2.384702e-12) (7.067788e-14 1.529506e-13 -3.753532e-08))
1247.103263   	((-1.547308e-10 1.249991e-11 4.482800e-12) (-1.072258e-10 1.053907e-11 1.208224e-11)) ((-7.871583e-16 -2.283577e-14 -2.375260e-12) (2.027470e-13 1.420567e-13 -3.739243e-08))
1327.875978   	((-1.489378e-10 1.582778e-11 9.489719e-12) (-1.048816e-10 1.037869e-11 1.073311e-11)) ((-1.179443e-15 -2.248019e-14 -2.366800e-12) (3.462262e-13 1.325259e-13 -3.727935e-08))
1408.64641    	((-1.444560e-10 1.623466e-11 1.085084e-11) (-1.001447e-10 8.313163e-12 9.653672e-12)) ((-1.881674e-15 -2.265909e-14 -2.359815e-12) (4.827312e-13 1.130693e-13 -3.719079e-08))
1489.416674   	((-1.414381e-10 1.859311e-11 1.372080e-11) (-9.505100e-11 7.412747e-12 9.431330e-12)) ((-2.258798e-15 -2.254368e-14 -2.353372e-12) (6.054618e-13 7.623381e-14 -3.712232e-08))
1570.188715   	((-1.362241e-10 2.185669e-11 1.566914e-11) (-9.087595e-11 6.620543e-12 9.450554e-12)) ((-2.652670e-15 -2.200537e-14 -2.347417e-12) (6.945954e-13 2.097414e-14 -3.707026e-08))
1650.962333   	((-1.335413e-10 1.909359e-11 1.620452e-11) (-8.857010e-11 6.554044e-12 9.770572e-12)) ((-3.290286e-15 -2.117176e-14 -2.341504e-12) (7.480191e-13 -3.949151e-14 -3.703168e-08))
1731.736994   	((-1.303961e-10 1.964207e-11 1.599045e-11) (-8.692003e-11 7.876730e-12 1.008626e-11)) ((-3.873503e-15 -2.059408e-14 -2.336414e-12) (7.806034e-13 -9.714164e-14 -3.700419e-08))
1812.514001   	((-1.276897e-10 1.813680e-11 1.511192e-11) (-8.499070e-11 8.268668e-12 1.065744e-11)) ((-4.417040e-15 -1.986033e-14 -2.332165e-12) (7.976479e-13 -1.466409e-13 -3.698573e-08))
1893.294528   	((-1.230547e-10 1.559196e-11 1.482246e-11) (-8.196516e-11 1.013871e-11 1.070500e-11)) ((-4.933023e-15 -1.927459e-14 -2.328712e-12) (8.062914e-13 -1.906045e-13 -3.697450e-08))
