# Forces      
# CofR        : (0.000000e+00 0.000000e+00 0.000000e+00)
# Time        forces(pressure viscous)	moments(pressure viscous)
0             	((0.000000e+00 0.000000e+00 0.000000e+00) (0.000000e+00 0.000000e+00 0.000000e+00)) ((0.000000e+00 0.000000e+00 0.000000e+00) (0.000000e+00 0.000000e+00 0.000000e+00))
0.012         	((5.566584e-12 -7.131645e-12 1.402615e-11) (-5.486272e-15 -1.338901e-14 -9.242654e-14)) ((-6.337477e-11 6.049292e-15 1.238398e-16) (-4.418506e-08 -4.846210e-15 2.032324e-15))
0.0264        	((-6.386802e-12 -1.246756e-11 2.533103e-11) (7.864289e-14 1.041352e-13 -8.032286e-14)) ((-3.126758e-11 4.746308e-15 -1.228219e-15) (-4.047080e-08 -8.362085e-15 2.013461e-15))
0.04368       	((2.782783e-11 1.866840e-11 2.955543e-11) (-2.828875e-14 3.190314e-13 -2.541114e-14)) ((-1.726548e-11 3.950997e-15 -1.373318e-15) (-3.665371e-08 -4.706808e-15 -3.436218e-15))
0.064416      	((-9.898801e-12 8.523008e-13 6.665758e-12) (-3.903237e-13 4.772836e-13 5.533870e-14)) ((-9.669086e-12 2.661409e-15 5.062652e-16) (-3.281699e-08 4.482785e-15 -9.066027e-15))
0.0892992     	((4.586673e-12 5.215481e-12 1.845073e-12) (-7.829658e-13 5.321521e-13 1.677459e-13)) ((-7.263018e-12 2.595032e-15 -3.632429e-16) (-2.907245e-08 1.352658e-14 -1.220674e-14))
0.119159      	((4.130728e-12 8.648230e-12 2.233882e-11) (-1.025141e-12 4.934186e-13 2.680659e-13)) ((-5.189598e-12 1.836924e-15 7.644657e-17) (-2.553559e-08 1.857513e-14 -1.303502e-14))
0.154991      	((-4.772027e-12 -1.094897e-11 -6.513204e-12) (-1.139668e-12 4.314240e-13 3.023610e-13)) ((-4.112888e-12 1.441483e-15 1.518403e-16) (-2.228790e-08 2.014511e-14 -1.146603e-14))
0.197989      	((-5.536859e-12 -1.592264e-12 6.602875e-12) (-1.256584e-12 3.583454e-13 2.988152e-13)) ((-3.267525e-12 6.484842e-16 1.216967e-16) (-1.940868e-08 1.976929e-14 -9.456045e-15))
0.249587      	((-1.853713e-12 -2.140347e-12 6.823449e-12) (-1.305613e-12 3.325856e-13 3.060304e-13)) ((-2.703661e-12 4.110663e-16 2.899153e-16) (-1.694061e-08 1.870841e-14 -8.618945e-15))
0.311504      	((-2.933893e-12 -5.665341e-12 8.157201e-12) (-1.216072e-12 3.484884e-13 2.558418e-13)) ((-2.257158e-12 5.518117e-16 7.169908e-17) (-1.487768e-08 1.679792e-14 -8.893363e-15))
0.385805      	((1.256695e-12 -7.303150e-12 1.120959e-11) (-1.092334e-12 3.183616e-13 2.081870e-13)) ((-1.941533e-12 5.751531e-16 -1.965945e-16) (-1.317550e-08 1.696896e-14 -8.893512e-15))
0.474966      	((1.670752e-12 -1.013270e-11 1.053324e-11) (-9.285077e-13 1.937033e-13 3.376228e-13)) ((-1.734086e-12 3.676045e-16 -3.202385e-16) (-1.176726e-08 2.243139e-14 -8.808181e-15))
0.581959      	((-6.962129e-12 -1.454132e-11 3.434875e-12) (-5.420822e-13 5.374229e-15 4.897888e-13)) ((-1.554398e-12 4.463692e-16 -4.858660e-16) (-1.058348e-08 2.790721e-14 -1.037053e-14))
0.710351      	((-8.535162e-12 -1.700772e-11 1.313606e-11) (-7.418321e-14 -1.982957e-14 5.052187e-13)) ((-1.373718e-12 5.697481e-16 -6.145318e-16) (-9.566614e-09 3.017576e-14 -1.447199e-14))
0.864421      	((-1.015009e-11 -2.089348e-11 8.292975e-12) (3.216614e-13 2.608978e-13 3.912655e-13)) ((-1.252286e-12 8.959579e-16 -6.713862e-16) (-8.675870e-09 2.808747e-14 -2.080539e-14))
1.049306      	((-6.524100e-12 -2.087409e-11 1.498230e-11) (6.227657e-13 5.610849e-13 1.935915e-13)) ((-1.171885e-12 9.612915e-16 -6.288697e-16) (-7.884171e-09 2.087232e-14 -2.482748e-14))
1.271167      	((-5.543326e-13 -2.695959e-11 1.822882e-11) (5.875983e-13 7.907478e-13 -1.047334e-13)) ((-1.091600e-12 8.263311e-16 -5.461099e-16) (-7.173416e-09 1.020721e-14 -3.104838e-14))
1.5374        	((2.730320e-12 -2.534826e-11 2.423119e-11) (2.695507e-13 1.188506e-12 -5.286060e-13)) ((-9.992212e-13 1.834710e-16 -3.984588e-16) (-6.531817e-09 3.770233e-15 -5.206230e-14))
1.85688       	((-3.040034e-12 -2.635476e-11 2.371839e-11) (3.159422e-13 2.013812e-12 -1.223719e-12)) ((-9.178131e-13 -1.213936e-18 -1.990120e-16) (-5.952971e-09 -1.464572e-14 -7.634870e-14))
2.240256      	((-4.389053e-13 -2.973913e-11 2.121860e-11) (3.799360e-13 3.275576e-12 -2.516248e-12)) ((-8.677090e-13 -3.605284e-16 1.238856e-16) (-5.433588e-09 -4.042722e-14 -1.114666e-13))
2.700307      	((-3.290666e-13 -2.704545e-11 1.637389e-11) (1.121388e-13 5.246217e-12 -4.593782e-12)) ((-8.331917e-13 -5.175142e-16 3.423032e-16) (-4.971333e-09 -7.413810e-14 -1.705944e-13))
3.252369      	((-6.597782e-13 -1.954160e-11 1.696365e-11) (3.685546e-13 7.990871e-12 -6.927594e-12)) ((-7.995471e-13 -7.926601e-16 5.869280e-16) (-4.563021e-09 -1.260610e-13 -2.268585e-13))
3.914842      	((-1.963034e-12 -8.793914e-12 1.101532e-11) (3.604611e-14 1.067364e-11 -9.229930e-12)) ((-7.607983e-13 -6.923111e-16 4.635000e-16) (-4.203859e-09 -1.667256e-13 -2.679197e-13))
4.709811      	((6.199882e-13 -3.110374e-12 3.134649e-12) (-5.936227e-13 1.321966e-11 -1.163435e-11)) ((-7.154104e-13 -7.314235e-16 2.952170e-16) (-3.887217e-09 -1.938073e-13 -2.951875e-13))
5.663773      	((-1.045649e-12 2.089215e-13 -2.731739e-12) (-2.315475e-13 1.500994e-11 -1.347707e-11)) ((-6.645885e-13 -7.215555e-16 1.985575e-16) (-3.605700e-09 -2.177856e-13 -2.999442e-13))
6.808528      	((-2.801976e-12 3.667150e-12 -4.640006e-12) (-2.970011e-14 1.526009e-11 -1.389814e-11)) ((-6.136081e-13 -7.289461e-16 3.137382e-16) (-3.352716e-09 -2.208290e-13 -2.897753e-13))
8.182233      	((-8.337416e-13 5.181178e-12 -8.048093e-12) (5.102693e-14 1.430389e-11 -1.301916e-11)) ((-5.640829e-13 -6.450113e-16 3.268942e-16) (-3.123021e-09 -1.959089e-13 -2.646616e-13))
9.83068       	((-3.902351e-12 5.830252e-12 -7.530725e-12) (9.336246e-14 1.218597e-11 -1.110180e-11)) ((-5.143353e-13 -5.039361e-16 5.282351e-16) (-2.912741e-09 -1.556992e-13 -2.167918e-13))
11.808816     	((-2.155260e-12 -7.657844e-13 -2.092595e-12) (5.506679e-13 9.227041e-12 -8.691707e-12)) ((-4.690988e-13 -5.659826e-16 6.591859e-16) (-2.719253e-09 -1.265302e-13 -1.529410e-13))
14.182579     	((-1.663210e-12 -2.374658e-12 3.744552e-13) (1.413745e-12 6.466735e-12 -6.446673e-12)) ((-4.262734e-13 -5.126552e-16 7.094047e-16) (-2.540946e-09 -1.062315e-13 -9.013766e-14))
17.031095     	((-2.130450e-12 -2.915351e-12 -1.486255e-13) (1.529988e-12 4.444592e-12 -4.609615e-12)) ((-3.906013e-13 -3.875657e-16 6.605714e-16) (-2.376986e-09 -7.960278e-14 -4.575312e-14))
20.449314     	((-1.670405e-12 -3.224199e-12 1.523411e-12) (1.098658e-12 2.954031e-12 -3.103704e-12)) ((-3.587766e-13 -3.155393e-16 6.393860e-16) (-2.226811e-09 -4.878602e-14 -2.533306e-14))
24.551176     	((-6.847342e-13 -2.386882e-12 3.029265e-12) (6.705570e-13 2.050978e-12 -2.114887e-12)) ((-3.308145e-13 -3.166239e-16 6.723406e-16) (-2.089541e-09 -2.755867e-14 -1.408238e-14))
29.473411     	((-9.208185e-13 -2.825939e-12 1.957718e-12) (4.078587e-13 1.513961e-12 -1.579563e-12)) ((-3.072900e-13 -2.394277e-16 6.104420e-16) (-1.964301e-09 -1.823168e-14 -1.020637e-14))
35.380094     	((-4.356758e-13 -3.636916e-12 1.871215e-12) (2.386790e-13 1.242478e-12 -1.299232e-12)) ((-2.863206e-13 -1.934832e-16 5.501995e-16) (-1.850066e-09 -9.178038e-15 -1.626773e-14))
42.468112     	((-8.262065e-13 -2.602935e-12 1.877448e-12) (2.906375e-14 1.251278e-12 -1.298827e-12)) ((-2.679371e-13 -1.662237e-16 5.051275e-16) (-1.745878e-09 -5.745960e-15 -2.377476e-14))
50.973735     	((-4.014270e-13 -1.833594e-12 1.776802e-12) (-1.424857e-13 1.397937e-12 -1.354186e-12)) ((-2.514090e-13 -8.580867e-17 4.598836e-16) (-1.650906e-09 -6.262534e-15 -2.755235e-14))
61.180482     	((-4.762654e-13 -2.308289e-12 1.525894e-12) (-1.734047e-13 1.564060e-12 -1.527585e-12)) ((-2.364408e-13 -2.084295e-17 4.283721e-16) (-1.564428e-09 -9.341899e-15 -3.021278e-14))
73.428578     	((-3.787674e-13 -8.079610e-13 1.314295e-12) (-1.159819e-13 1.826169e-12 -1.784486e-12)) ((-2.234468e-13 -1.579926e-18 3.784176e-16) (-1.485855e-09 -1.551271e-14 -3.364415e-14))
88.126294     	((-1.585685e-13 -1.210376e-12 5.027080e-13) (-6.139294e-15 2.050419e-12 -2.088663e-12)) ((-2.118511e-13 5.140209e-17 3.271089e-16) (-1.414599e-09 -2.374399e-14 -3.639973e-14))
105.763553    	((7.829206e-14 -2.627847e-13 5.082473e-13) (-8.382036e-14 2.237831e-12 -2.223827e-12)) ((-2.009859e-13 1.030122e-16 2.854624e-16) (-1.350113e-09 -2.962268e-14 -3.917288e-14))
126.928263    	((1.302566e-14 -1.785700e-13 -1.304094e-13) (-2.795858e-13 2.288622e-12 -2.180193e-12)) ((-1.912239e-13 1.369838e-16 2.626198e-16) (-1.291823e-09 -3.150418e-14 -3.971665e-14))
152.325916    	((-1.485184e-13 2.991302e-13 -2.666646e-13) (-4.393617e-13 2.179912e-12 -2.040634e-12)) ((-1.825838e-13 1.553339e-16 2.447049e-16) (-1.239122e-09 -3.260675e-14 -3.959681e-14))
182.803099    	((4.981805e-14 4.572356e-13 -4.125741e-13) (-4.241558e-13 2.019923e-12 -1.867936e-12)) ((-1.746178e-13 1.640623e-16 2.415685e-16) (-1.191383e-09 -3.498353e-14 -3.946948e-14))
219.375719    	((-1.417366e-13 4.928263e-13 -3.867023e-13) (-4.897112e-13 1.933016e-12 -1.775260e-12)) ((-1.673272e-13 1.580169e-16 2.236149e-16) (-1.148037e-09 -3.997916e-14 -3.962727e-14))
263.262863    	((-3.407708e-13 5.421948e-13 -4.235129e-13) (-6.008231e-13 1.901134e-12 -1.790095e-12)) ((-1.606923e-13 1.409515e-16 1.927364e-16) (-1.108624e-09 -4.470098e-14 -3.837666e-14))
315.927436    	((-2.918824e-13 8.445957e-13 -2.630870e-13) (-5.919687e-13 1.920453e-12 -1.811905e-12)) ((-1.547354e-13 1.109162e-16 1.759075e-16) (-1.072781e-09 -4.670487e-14 -3.892609e-14))
379.124923    	((-1.943290e-13 1.071324e-12 -1.126331e-13) (-4.609939e-13 1.915043e-12 -1.817986e-12)) ((-1.492967e-13 8.521864e-17 1.610736e-16) (-1.040195e-09 -4.653637e-14 -3.971872e-14))
454.961908    	((-1.464562e-13 1.243629e-12 2.054482e-14) (-4.498742e-13 1.888597e-12 -1.801830e-12)) ((-1.443350e-13 5.764043e-17 1.479801e-16) (-1.010638e-09 -4.675682e-14 -3.839916e-14))
545.966289    	((2.100353e-13 1.254301e-12 -1.740767e-15) (-3.509260e-13 1.843098e-12 -1.787810e-12)) ((-1.397483e-13 4.210644e-17 1.425790e-16) (-9.839144e-10 -4.607093e-14 -3.673307e-14))
655.171547    	((4.353344e-13 1.188449e-12 -5.856619e-14) (-2.615609e-13 1.804062e-12 -1.730155e-12)) ((-1.355637e-13 3.428377e-17 1.336207e-16) (-9.598377e-10 -4.472979e-14 -3.505652e-14))
786.217856    	((5.133272e-13 1.096246e-12 -7.153047e-14) (-2.116941e-13 1.754263e-12 -1.668621e-12)) ((-1.317851e-13 2.709230e-17 1.351917e-16) (-9.382282e-10 -4.321179e-14 -3.416005e-14))
943.473427    	((3.731325e-13 9.831074e-13 -1.421070e-13) (-1.697972e-13 1.681085e-12 -1.599531e-12)) ((-1.284137e-13 1.041140e-17 1.476676e-16) (-9.189289e-10 -4.072566e-14 -3.496801e-14))
1132.180113   	((2.499610e-13 9.987047e-13 -5.072530e-15) (-2.075428e-13 1.585661e-12 -1.502425e-12)) ((-1.254079e-13 1.165424e-18 1.464762e-16) (-9.017789e-10 -3.785033e-14 -3.508467e-14))
1358.628135   	((2.558862e-13 9.530324e-13 2.841131e-14) (-2.869252e-13 1.503179e-12 -1.406057e-12)) ((-1.227749e-13 2.055853e-18 1.437720e-16) (-8.866119e-10 -3.546206e-14 -3.451496e-14))
1630.365763   	((2.511645e-13 8.996678e-13 5.202245e-14) (-2.800591e-13 1.439075e-12 -1.332268e-12)) ((-1.204771e-13 -2.050377e-18 1.419026e-16) (-8.732710e-10 -3.382959e-14 -3.382548e-14))
1956.450915   	((2.072122e-13 9.811092e-13 1.253575e-13) (-2.584214e-13 1.387832e-12 -1.276938e-12)) ((-1.184482e-13 -1.149602e-18 1.396424e-16) (-8.616043e-10 -3.198550e-14 -3.316777e-14))
2347.753098   	((1.209867e-13 9.944593e-13 1.959775e-13) (-2.311402e-13 1.357852e-12 -1.244590e-12)) ((-1.167262e-13 -2.015022e-18 1.374377e-16) (-8.514630e-10 -3.045637e-14 -3.236728e-14))
2817.315718   	((-9.605191e-14 1.011598e-12 2.396988e-13) (-2.077453e-13 1.325776e-12 -1.207299e-12)) ((-1.152210e-13 -1.177068e-18 1.347166e-16) (-8.427055e-10 -2.923013e-14 -3.132043e-14))
3380.790861   	((-1.935724e-13 1.043544e-12 2.951148e-13) (-2.406539e-13 1.290546e-12 -1.166590e-12)) ((-1.140019e-13 1.181540e-18 1.304659e-16) (-8.351908e-10 -2.819991e-14 -3.002028e-14))
4056.961033   	((-1.804483e-13 1.164870e-12 4.018525e-13) (-2.456964e-13 1.257367e-12 -1.122341e-12)) ((-1.129392e-13 6.270941e-18 1.242947e-16) (-8.287826e-10 -2.712515e-14 -2.843550e-14))
4868.36524    	((-1.993795e-13 1.295331e-12 5.311446e-13) (-2.563215e-13 1.219503e-12 -1.080124e-12)) ((-1.120377e-13 1.289873e-17 1.165900e-16) (-8.233538e-10 -2.587468e-14 -2.684360e-14))
5842.050288   	((-1.917068e-13 1.455152e-12 6.634200e-13) (-2.743747e-13 1.185148e-12 -1.034306e-12)) ((-1.112516e-13 1.911034e-17 1.075340e-16) (-8.187869e-10 -2.469277e-14 -2.535501e-14))
7010.472346   	((-2.125752e-13 1.606371e-12 7.491033e-13) (-2.887921e-13 1.162116e-12 -9.914345e-13)) ((-1.106237e-13 1.772722e-17 1.065400e-16) (-8.149708e-10 -2.352878e-14 -2.469060e-14))
8412.578815   	((-1.811630e-13 1.685841e-12 7.019931e-13) (-2.968121e-13 1.144195e-12 -9.669749e-13)) ((-1.100817e-13 1.962343e-17 1.069768e-16) (-8.118030e-10 -2.225310e-14 -2.405455e-14))
10095.106578  	((-8.856926e-14 1.714770e-12 5.435355e-13) (-2.982150e-13 1.146092e-12 -9.487137e-13)) ((-1.096227e-13 1.743058e-17 1.167024e-16) (-8.091917e-10 -2.113629e-14 -2.337836e-14))
12100.470501  	((7.911694e-14 1.721998e-12 5.225920e-13) (-2.836151e-13 1.134010e-12 -9.252216e-13)) ((-1.092483e-13 2.399478e-17 1.032962e-16) (-8.070524e-10 -2.000009e-14 -2.275549e-14))
14428.682318  	((2.300806e-13 1.671478e-12 3.797216e-13) (-2.632552e-13 1.116612e-12 -9.108821e-13)) ((-1.089400e-13 3.105953e-17 8.715831e-17) (-8.053094e-10 -1.908424e-14 -2.197739e-14))
17079.751524  	((3.320452e-13 1.605091e-12 3.169694e-13) (-2.478955e-13 1.089057e-12 -8.940607e-13)) ((-1.087044e-13 2.677802e-17 1.085923e-16) (-8.038962e-10 -1.813907e-14 -2.190096e-14))
20053.68577   	((3.421237e-13 1.557490e-12 1.497467e-13) (-2.449098e-13 1.061744e-12 -8.765393e-13)) ((-1.085184e-13 3.683507e-17 9.951681e-17) (-8.027555e-10 -1.761114e-14 -2.209582e-14))
23282.397561  	((4.943757e-13 1.435137e-12 1.374937e-13) (-2.421234e-13 1.047486e-12 -8.559456e-13)) ((-1.083679e-13 3.292678e-17 1.006052e-16) (-8.018392e-10 -1.748178e-14 -2.194452e-14))
26511.158405  	((5.417608e-13 1.282655e-12 9.350192e-14) (-2.412775e-13 1.040778e-12 -8.352794e-13)) ((-1.082119e-13 3.169094e-17 9.341565e-17) (-8.011061e-10 -1.747333e-14 -2.159590e-14))
29739.958101  	((6.170036e-13 1.078357e-12 1.518164e-13) (-2.481174e-13 1.059443e-12 -8.170567e-13)) ((-1.081125e-13 2.450281e-17 8.612877e-17) (-8.005203e-10 -1.737092e-14 -2.038154e-14))
32968.788813  	((7.448792e-13 9.446659e-13 1.979655e-13) (-2.544125e-13 1.054888e-12 -8.037055e-13)) ((-1.080077e-13 2.061188e-17 9.982238e-17) (-8.000540e-10 -1.690439e-14 -1.995848e-14))
36197.644157  	((9.221268e-13 7.900710e-13 1.887576e-13) (-2.566091e-13 1.040326e-12 -7.942179e-13)) ((-1.079326e-13 2.253221e-17 9.831171e-17) (-7.996832e-10 -1.643407e-14 -1.999638e-14))
39426.519134  	((1.119218e-12 6.380940e-13 1.845110e-13) (-2.535242e-13 1.029672e-12 -7.851638e-13)) ((-1.078632e-13 2.255729e-17 9.783612e-17) (-7.993883e-10 -1.617950e-14 -1.995761e-14))
42655.409698  	((1.148098e-12 4.471773e-13 1.738953e-13) (-2.437657e-13 1.020620e-12 -7.760953e-13)) ((-1.078456e-13 2.894795e-17 9.823861e-17) (-7.991539e-10 -1.604334e-14 -1.994770e-14))
45884.312655  	((1.491869e-12 2.927672e-13 1.668797e-13) (-2.441834e-13 1.017721e-12 -7.650387e-13)) ((-1.078105e-13 2.597278e-17 9.574385e-17) (-7.989673e-10 -1.613033e-14 -1.973453e-14))
49113.225442  	((1.717704e-12 1.131485e-13 2.097093e-13) (-2.343566e-13 1.013882e-12 -7.565745e-13)) ((-1.077446e-13 2.545236e-17 9.462072e-17) (-7.988191e-10 -1.613583e-14 -1.955417e-14))
52342.146082  	((1.804427e-12 2.958100e-14 2.610754e-13) (-2.199478e-13 1.015081e-12 -7.502416e-13)) ((-1.076942e-13 1.516287e-17 9.957213e-17) (-7.987023e-10 -1.615561e-14 -1.915596e-14))
55571.072974  	((1.811134e-12 -1.588402e-13 4.043119e-13) (-2.082996e-13 9.972581e-13 -7.553412e-13)) ((-1.076482e-13 2.907840e-18 7.531782e-17) (-7.986106e-10 -1.592366e-14 -1.923731e-14))
58800.004847  	((2.050311e-12 -3.913862e-13 5.986720e-13) (-2.087816e-13 9.922623e-13 -7.685649e-13)) ((-1.075874e-13 6.850023e-18 8.415503e-17) (-7.985384e-10 -1.520491e-14 -1.958635e-14))
62028.940692  	((2.199116e-12 -5.805386e-13 6.752603e-13) (-1.972433e-13 1.001378e-12 -7.604398e-13)) ((-1.075339e-13 1.759099e-17 9.097337e-17) (-7.984820e-10 -1.508425e-14 -1.907834e-14))
65257.879705  	((2.340806e-12 -6.864616e-13 8.523742e-13) (-1.801735e-13 1.012886e-12 -7.419040e-13)) ((-1.074788e-13 7.036464e-18 7.966403e-17) (-7.984378e-10 -1.515801e-14 -1.875517e-14))
68486.821255  	((2.448021e-12 -8.497808e-13 1.004161e-12) (-1.605175e-13 1.004605e-12 -7.147903e-13)) ((-1.074455e-13 6.921844e-18 8.501260e-17) (-7.984025e-10 -1.461882e-14 -1.851792e-14))
71715.764836  	((2.489928e-12 -1.021562e-12 1.041239e-12) (-1.465384e-13 9.750115e-13 -7.065606e-13)) ((-1.074339e-13 2.479798e-17 1.231189e-16) (-7.983741e-10 -1.449014e-14 -1.892892e-14))
74944.710048  	((2.520478e-12 -1.143074e-12 1.212720e-12) (-1.385622e-13 9.616474e-13 -6.919056e-13)) ((-1.074393e-13 1.123261e-17 9.961965e-17) (-7.983504e-10 -1.440789e-14 -1.931435e-14))
