# Forces      
# CofR        : (0.000000e+00 0.000000e+00 0.000000e+00)
# Time        forces(pressure viscous)	moments(pressure viscous)
0             	((0.000000e+00 0.000000e+00 0.000000e+00) (-1.429268e-12 1.004933e-02 1.357126e-13)) ((0.000000e+00 0.000000e+00 0.000000e+00) (5.387880e-14 2.161495e-15 -3.164514e-09))
0.012         	((2.480861e-05 2.958472e+00 2.181638e-05) (-2.097148e-08 1.282869e-02 -6.367274e-08)) ((-3.745327e-10 2.258633e-10 -5.303673e-07) (4.194479e-10 9.372700e-12 -4.096422e-10))
0.0264        	((-1.480351e-04 -6.959466e-01 -1.257054e-04) (-1.311005e-07 1.274771e-02 -1.757094e-07)) ((1.382785e-08 4.765260e-10 6.126954e-08) (8.554566e-09 7.520243e-11 7.579373e-09))
0.04368       	((1.483637e-04 -3.078337e-01 8.727304e-05) (-1.639933e-07 1.077864e-02 -1.470454e-07)) ((-9.630101e-09 -5.524009e-10 1.251799e-07) (7.513851e-09 1.770214e-10 2.336352e-08))
0.064416      	((-3.359863e-05 -1.822487e-03 -1.258980e-05) (-1.037988e-06 9.518972e-03 -9.322975e-08)) ((1.593255e-10 -1.833376e-10 -1.242259e-08) (1.267971e-09 1.578788e-10 2.600243e-08))
0.0892992     	((-5.374872e-05 -1.275307e-03 -1.259630e-05) (-2.847286e-06 8.752635e-03 2.289792e-09)) ((1.607097e-09 -2.552924e-10 6.360501e-09) (2.619903e-09 7.319269e-11 2.876113e-08))
0.119159      	((-9.522864e-05 1.439004e-03 -9.635198e-06) (-4.178451e-06 8.121045e-03 5.608721e-08)) ((1.497525e-09 -2.109771e-10 6.638594e-09) (3.052349e-09 1.027417e-10 4.181731e-08))
0.154991      	((-7.041621e-05 3.782534e-03 -3.612644e-06) (-5.140462e-06 7.605003e-03 6.496693e-08)) ((6.681271e-10 -2.186479e-10 1.511606e-09) (2.764101e-09 2.542109e-10 6.455956e-08))
0.197989      	((-7.390849e-05 4.712467e-03 -1.958665e-06) (-5.321408e-06 7.196419e-03 1.409785e-07)) ((1.154935e-10 -1.946855e-10 -9.913130e-09) (2.910287e-09 3.907205e-10 8.086520e-08))
0.249587      	((-2.462785e-05 5.328276e-03 -2.922465e-07) (-4.242750e-06 6.853660e-03 1.627885e-07)) ((1.129056e-10 -6.778688e-12 -9.090718e-09) (1.860317e-09 4.721928e-10 1.013956e-07))
0.311504      	((-1.629911e-05 5.812798e-03 3.521657e-07) (-3.640686e-06 6.543361e-03 1.078783e-07)) ((-1.008896e-10 -1.521630e-11 -1.009545e-08) (6.594813e-10 4.640857e-10 1.148875e-07))
0.385805      	((-1.584617e-05 6.438961e-03 -1.122242e-06) (-3.475748e-06 6.256025e-03 4.664631e-08)) ((-1.115538e-10 -4.710933e-11 -1.518995e-08) (-1.508654e-09 4.745811e-10 1.142358e-07))
0.474966      	((-1.058703e-05 7.236994e-03 -2.677960e-06) (-2.872813e-06 5.990078e-03 5.852418e-09)) ((-3.664532e-11 5.271875e-11 -2.018747e-08) (-4.412450e-09 3.688416e-10 1.157752e-07))
0.580716      	((-2.259167e-06 8.316798e-03 -3.816271e-06) (-2.063519e-06 5.751459e-03 -2.512747e-08)) ((4.222998e-11 2.351500e-11 -2.598287e-08) (-6.595628e-09 2.028896e-10 1.247679e-07))
0.703076      	((4.937405e-06 9.669293e-03 -4.547357e-06) (-1.300574e-06 5.546380e-03 -6.301737e-08)) ((-1.936548e-11 -2.368100e-13 -3.271759e-08) (-7.280873e-09 9.821652e-11 1.375657e-07))
0.842057      	((1.301207e-05 1.130449e-02 -5.950385e-06) (-5.619055e-07 5.374219e-03 -1.084416e-07)) ((2.898517e-11 4.686451e-11 -4.088026e-08) (-7.363082e-09 9.386893e-12 1.547397e-07))
0.997577      	((2.032639e-05 1.310044e-02 -9.001988e-06) (2.674252e-07 5.234202e-03 -1.726677e-07)) ((1.031774e-10 4.440797e-11 -4.991116e-08) (-6.963477e-09 1.069564e-11 1.805757e-07))
1.161337      	((2.879405e-05 1.505700e-02 -9.841033e-06) (1.176694e-06 5.123718e-03 -2.254552e-07)) ((1.272412e-10 1.009239e-10 -5.932526e-08) (-5.268870e-09 1.762364e-11 2.090649e-07))
1.323366      	((4.283317e-05 1.688698e-02 -8.332680e-06) (1.985656e-06 5.032491e-03 -1.892155e-07)) ((1.097414e-10 1.377928e-10 -6.686033e-08) (-2.036493e-09 -4.812831e-11 2.361429e-07))
1.484013      	((4.918599e-05 1.858190e-02 -6.956741e-06) (2.116566e-06 4.948637e-03 -8.896231e-08)) ((1.529062e-10 1.286517e-10 -7.227067e-08) (1.043778e-09 -3.877288e-12 2.598022e-07))
1.643771      	((5.572171e-05 1.997319e-02 -6.014459e-06) (1.954237e-06 4.869601e-03 -5.850232e-08)) ((2.185211e-10 2.130278e-10 -7.691214e-08) (1.863805e-09 1.262777e-10 2.851555e-07))
1.803477      	((6.636302e-05 2.098364e-02 -5.653583e-06) (1.788376e-06 4.795129e-03 -1.545006e-07)) ((3.141043e-10 2.017099e-10 -8.144869e-08) (-3.781304e-09 2.078210e-10 3.199767e-07))
1.963518      	((7.421772e-05 2.163083e-02 -7.034882e-06) (1.614435e-06 4.727957e-03 -2.768205e-07)) ((4.143822e-10 1.739786e-10 -8.501629e-08) (-1.069577e-08 2.438035e-10 3.592407e-07))
2.123634      	((8.911732e-05 2.187296e-02 -2.175221e-06) (1.539495e-06 4.665465e-03 -3.349914e-07)) ((3.310817e-10 2.385780e-10 -8.725841e-08) (-1.584456e-08 2.866286e-10 3.886254e-07))
2.283362      	((1.047676e-04 2.182565e-02 1.874268e-06) (1.439029e-06 4.608958e-03 -3.152252e-07)) ((2.512003e-10 2.988267e-10 -8.810666e-08) (-1.948086e-08 3.313040e-10 4.015720e-07))
2.442541      	((1.126017e-04 2.151175e-02 3.465987e-06) (1.309500e-06 4.561640e-03 -2.781609e-07)) ((2.777820e-10 4.553938e-10 -8.859535e-08) (-2.222766e-08 2.690211e-10 4.068617e-07))
2.601296      	((1.211201e-04 2.107506e-02 7.503040e-07) (1.351525e-06 4.521622e-03 -2.347584e-07)) ((2.744949e-10 5.549594e-10 -8.945448e-08) (-2.322596e-08 3.216813e-10 4.086124e-07))
2.759774      	((1.383471e-04 2.065839e-02 1.301597e-06) (1.646307e-06 4.485436e-03 -2.267676e-07)) ((1.430815e-10 6.133335e-10 -9.026091e-08) (-2.531267e-08 4.797918e-10 4.066114e-07))
2.918027      	((1.520142e-04 2.030465e-02 1.345604e-07) (1.803350e-06 4.451828e-03 -2.458994e-07)) ((1.730592e-10 6.430157e-10 -9.024845e-08) (-2.794986e-08 7.167719e-10 4.057887e-07))
3.076032      	((1.684854e-04 2.016438e-02 1.933188e-06) (1.830029e-06 4.421116e-03 -2.404163e-07)) ((1.321714e-10 6.465240e-10 -9.066169e-08) (-2.943748e-08 1.015312e-09 4.029347e-07))
3.233766      	((1.867573e-04 2.010704e-02 2.067418e-06) (2.134828e-06 4.393025e-03 -2.317680e-07)) ((2.011847e-10 6.327431e-10 -9.143464e-08) (-3.069857e-08 1.298708e-09 3.908200e-07))
3.391249      	((2.014188e-04 2.001869e-02 -6.212139e-07) (2.620927e-06 4.366785e-03 -2.421752e-07)) ((2.171891e-10 6.439615e-10 -9.223701e-08) (-3.080399e-08 1.377143e-09 3.755415e-07))
3.548532      	((2.281261e-04 1.989164e-02 -2.448207e-06) (3.176503e-06 4.342299e-03 -2.431545e-07)) ((2.159329e-10 6.374412e-10 -9.293520e-08) (-2.873288e-08 1.248532e-09 3.598357e-07))
3.705653      	((2.529579e-04 1.965342e-02 -3.098321e-06) (3.797368e-06 4.318973e-03 -2.225429e-07)) ((2.362680e-10 6.468800e-10 -9.322576e-08) (-2.615485e-08 1.149177e-09 3.451366e-07))
3.862624      	((2.856199e-04 1.942326e-02 -2.389760e-06) (4.542787e-06 4.296569e-03 -2.282174e-07)) ((2.758277e-10 6.460888e-10 -9.327764e-08) (-2.574109e-08 8.014905e-10 3.334958e-07))
4.019457      	((3.238227e-04 1.922294e-02 -3.095983e-06) (5.362922e-06 4.275595e-03 -2.565469e-07)) ((3.211881e-10 6.445646e-10 -9.339417e-08) (-2.672697e-08 5.618140e-10 3.273214e-07))
4.176165      	((3.698530e-04 1.909523e-02 -4.903600e-06) (6.189284e-06 4.256741e-03 -3.022160e-07)) ((3.268873e-10 5.774756e-10 -9.372007e-08) (-2.804656e-08 2.979340e-10 3.319485e-07))
4.332755      	((4.139577e-04 1.901787e-02 -6.997671e-06) (7.006128e-06 4.240279e-03 -3.486617e-07)) ((3.660492e-10 4.666731e-10 -9.436682e-08) (-2.800742e-08 4.605332e-11 3.458523e-07))
4.489234      	((4.676691e-04 1.897251e-02 -9.911224e-06) (7.851543e-06 4.225942e-03 -3.978956e-07)) ((3.618354e-10 3.869706e-10 -9.521035e-08) (-2.730308e-08 -2.405613e-10 3.638109e-07))
4.645613      	((5.224970e-04 1.889541e-02 -1.169907e-05) (8.788778e-06 4.212943e-03 -4.522737e-07)) ((3.060028e-10 3.177783e-10 -9.602068e-08) (-2.697455e-08 -7.354812e-10 3.830038e-07))
4.801904      	((5.834360e-04 1.881034e-02 -1.619974e-05) (9.906849e-06 4.200723e-03 -5.080206e-07)) ((2.989045e-10 2.609249e-10 -9.671848e-08) (-2.592302e-08 -8.536340e-10 4.010392e-07))
4.958114      	((6.539816e-04 1.869618e-02 -1.874876e-05) (1.123230e-05 4.189125e-03 -5.644867e-07)) ((2.696048e-10 2.332721e-10 -9.714712e-08) (-2.445301e-08 -7.290330e-10 4.183733e-07))
5.114246      	((7.345146e-04 1.857018e-02 -2.181484e-05) (1.271038e-05 4.178098e-03 -6.197380e-07)) ((3.049745e-10 1.968199e-10 -9.734528e-08) (-2.297541e-08 -4.346419e-10 4.385238e-07))
5.270301      	((8.256055e-04 1.844307e-02 -2.536924e-05) (1.435616e-05 4.167531e-03 -6.987819e-07)) ((3.378995e-10 1.445137e-10 -9.744572e-08) (-2.197855e-08 7.993881e-12 4.623560e-07))
5.426282      	((9.210660e-04 1.833716e-02 -2.832528e-05) (1.618216e-05 4.157462e-03 -7.862350e-07)) ((3.331207e-10 1.009528e-10 -9.760084e-08) (-2.201355e-08 5.163653e-10 4.895417e-07))
5.58219       	((1.025425e-03 1.825450e-02 -3.080292e-05) (1.821132e-05 4.147958e-03 -8.910603e-07)) ((3.387933e-10 3.431626e-11 -9.784182e-08) (-2.303098e-08 8.540215e-10 5.198159e-07))
5.738026      	((1.141709e-03 1.817736e-02 -3.479068e-05) (2.050398e-05 4.138890e-03 -1.012653e-06)) ((3.678022e-10 -7.413605e-11 -9.813197e-08) (-2.396222e-08 7.820354e-10 5.520871e-07))
5.893785      	((1.267034e-03 1.810204e-02 -3.954406e-05) (2.305010e-05 4.130123e-03 -1.146971e-06)) ((4.167994e-10 -1.759403e-10 -9.841236e-08) (-2.460533e-08 9.042382e-11 5.856377e-07))
6.049458      	((1.401481e-03 1.802632e-02 -4.493425e-05) (2.581881e-05 4.121640e-03 -1.289946e-06)) ((4.450417e-10 -2.616815e-10 -9.868830e-08) (-2.514450e-08 -9.641244e-10 6.230083e-07))
6.205047      	((1.541960e-03 1.795414e-02 -4.986278e-05) (2.878447e-05 4.113488e-03 -1.433012e-06)) ((4.779198e-10 -2.893119e-10 -9.893678e-08) (-2.528268e-08 -1.649118e-09 6.659486e-07))
6.360555      	((1.692013e-03 1.788762e-02 -5.503312e-05) (3.190155e-05 4.105681e-03 -1.576991e-06)) ((5.146586e-10 -2.758680e-10 -9.913582e-08) (-2.491154e-08 -2.164030e-09 7.151921e-07))
6.515983      	((1.858313e-03 1.782138e-02 -6.199127e-05) (3.523255e-05 4.098201e-03 -1.738740e-06)) ((6.105443e-10 -2.556469e-10 -9.929248e-08) (-2.497658e-08 -2.608446e-09 7.691959e-07))
6.671331      	((2.039213e-03 1.776384e-02 -7.069541e-05) (3.890124e-05 4.091056e-03 -1.944216e-06)) ((7.138198e-10 -2.341752e-10 -9.946984e-08) (-2.515169e-08 -3.051391e-09 8.251667e-07))
6.826601      	((2.239371e-03 1.771180e-02 -7.962508e-05) (4.298291e-05 4.084271e-03 -2.177059e-06)) ((7.925140e-10 -2.410813e-10 -9.964342e-08) (-2.480893e-08 -4.054752e-09 8.828433e-07))
6.981795      	((2.461096e-03 1.766074e-02 -9.051541e-05) (4.751905e-05 4.077842e-03 -2.421291e-06)) ((8.892709e-10 -2.753151e-10 -9.980604e-08) (-2.389237e-08 -5.221930e-09 9.441678e-07))
7.136916      	((2.704500e-03 1.761712e-02 -1.019651e-04) (5.258110e-05 4.071816e-03 -2.679383e-06)) ((9.800875e-10 -2.986847e-10 -1.000013e-07) (-2.277323e-08 -6.216042e-09 1.008328e-06))
7.291967      	((2.970899e-03 1.758223e-02 -1.138188e-04) (5.820372e-05 4.066249e-03 -2.955198e-06)) ((1.053328e-09 -3.112766e-10 -1.002306e-07) (-2.256206e-08 -6.715806e-09 1.077744e-06))
7.446948      	((3.265888e-03 1.755134e-02 -1.276420e-04) (6.439764e-05 4.061093e-03 -3.262539e-06)) ((1.144319e-09 -3.548223e-10 -1.004933e-07) (-2.320808e-08 -6.385418e-09 1.156722e-06))
7.601863      	((3.590538e-03 1.752709e-02 -1.442530e-04) (7.119934e-05 4.056264e-03 -3.592338e-06)) ((1.234317e-09 -3.568291e-10 -1.008042e-07) (-2.190539e-08 -5.221598e-09 1.249049e-06))
7.756712      	((3.949810e-03 1.750829e-02 -1.615306e-04) (7.870084e-05 4.051735e-03 -3.953662e-06)) ((1.320432e-09 -3.100084e-10 -1.010626e-07) (-1.838000e-08 -3.711056e-09 1.353591e-06))
7.911499      	((4.344782e-03 1.750051e-02 -1.821852e-04) (8.704126e-05 4.047627e-03 -4.373878e-06)) ((1.419145e-09 -2.364519e-10 -1.012208e-07) (-1.340173e-08 -2.724414e-09 1.465017e-06))
8.066224      	((4.778010e-03 1.749829e-02 -2.069246e-04) (9.631513e-05 4.044019e-03 -4.842883e-06)) ((1.583907e-09 -1.475892e-10 -1.012612e-07) (-6.098726e-09 -1.807247e-09 1.584312e-06))
8.220891      	((5.251655e-03 1.750418e-02 -2.318670e-04) (1.064799e-04 4.040902e-03 -5.364991e-06)) ((1.760195e-09 -5.721632e-11 -1.012711e-07) (1.972399e-09 -4.251709e-10 1.719530e-06))
8.375501      	((5.789018e-03 1.751084e-02 -2.595554e-04) (1.175769e-04 4.038181e-03 -5.944544e-06)) ((1.895711e-09 4.032290e-11 -1.012759e-07) (1.079322e-08 1.946242e-09 1.878796e-06))
8.530056      	((6.387121e-03 1.753428e-02 -2.911168e-04) (1.297870e-04 4.035895e-03 -6.582682e-06)) ((1.979675e-09 1.757258e-10 -1.013000e-07) (1.984001e-08 5.432307e-09 2.065325e-06))
8.684559      	((7.043116e-03 1.758334e-02 -3.236201e-04) (1.431968e-04 4.034163e-03 -7.280691e-06)) ((2.060083e-09 2.951814e-10 -1.013767e-07) (2.977745e-08 8.846539e-09 2.280717e-06))
8.839011      	((7.767701e-03 1.765690e-02 -3.631110e-04) (1.579739e-04 4.033065e-03 -8.051645e-06)) ((2.223906e-09 4.390909e-10 -1.015022e-07) (4.251548e-08 1.184189e-08 2.524271e-06))
8.993411      	((8.579509e-03 1.774720e-02 -4.052706e-04) (1.744484e-04 4.032720e-03 -8.903104e-06)) ((2.503931e-09 6.449530e-10 -1.015644e-07) (5.656051e-08 1.466066e-08 2.787423e-06))
9.147763      	((9.473229e-03 1.786804e-02 -4.479517e-04) (1.928887e-04 4.033482e-03 -9.820507e-06)) ((2.724497e-09 8.368467e-10 -1.017396e-07) (6.945994e-08 1.688238e-08 3.058062e-06))
9.302068      	((1.045390e-02 1.801926e-02 -4.947232e-04) (2.136019e-04 4.035560e-03 -1.081132e-05)) ((2.883484e-09 9.601306e-10 -1.020732e-07) (8.058699e-08 1.939553e-08 3.334267e-06))
9.456329      	((1.151651e-02 1.822888e-02 -5.444517e-04) (2.368618e-04 4.039192e-03 -1.190438e-05)) ((3.071294e-09 1.070484e-09 -1.024806e-07) (8.982727e-08 2.205415e-08 3.618791e-06))
9.610549      	((1.266922e-02 1.848730e-02 -6.014244e-04) (2.623749e-04 4.044382e-03 -1.315338e-05)) ((3.495334e-09 1.347133e-09 -1.028958e-07) (1.001878e-07 2.305644e-08 3.925106e-06))
9.764728      	((1.391816e-02 1.881024e-02 -6.678473e-04) (2.903080e-04 4.051257e-03 -1.456688e-05)) ((4.014482e-09 1.965099e-09 -1.031829e-07) (1.157172e-07 2.351269e-08 4.254950e-06))
9.918863      	((1.526416e-02 1.919230e-02 -7.342261e-04) (3.210447e-04 4.060295e-03 -1.612128e-05)) ((4.373983e-09 2.548824e-09 -1.034431e-07) (1.321849e-07 2.412428e-08 4.596015e-06))
10.07295      	((1.669975e-02 1.964456e-02 -8.121682e-04) (3.547474e-04 4.071895e-03 -1.781917e-05)) ((4.770718e-09 3.044797e-09 -1.035683e-07) (1.492911e-07 2.606710e-08 4.945438e-06))
10.226984     	((1.822194e-02 2.020463e-02 -8.983619e-04) (3.914457e-04 4.086240e-03 -1.969223e-05)) ((5.150922e-09 3.533251e-09 -1.037645e-07) (1.715532e-07 2.957321e-08 5.314377e-06))
10.380944     	((1.978586e-02 2.089075e-02 -9.860939e-04) (4.307933e-04 4.103888e-03 -2.172526e-05)) ((5.503879e-09 4.270660e-09 -1.039330e-07) (1.970679e-07 3.533229e-08 5.712806e-06))
10.53481      	((2.139638e-02 2.170048e-02 -1.082411e-03) (4.725610e-04 4.125616e-03 -2.393826e-05)) ((5.930944e-09 5.194234e-09 -1.042046e-07) (2.206959e-07 4.252751e-08 6.128253e-06))
10.688594     	((2.303634e-02 2.263207e-02 -1.175755e-03) (5.165311e-04 4.151924e-03 -2.637975e-05)) ((6.539377e-09 6.395534e-09 -1.051033e-07) (2.407401e-07 4.936377e-08 6.550443e-06))
10.842331     	((2.468059e-02 2.365648e-02 -1.262922e-03) (5.626877e-04 4.182948e-03 -2.894553e-05)) ((7.166208e-09 7.718822e-09 -1.063446e-07) (2.613958e-07 5.252151e-08 6.959193e-06))
10.996033     	((2.624123e-02 2.478242e-02 -1.358281e-03) (6.107565e-04 4.218822e-03 -3.170209e-05)) ((7.780462e-09 8.907537e-09 -1.075705e-07) (2.760217e-07 5.126985e-08 7.317392e-06))
11.149689     	((2.764878e-02 2.602405e-02 -1.440386e-03) (6.597616e-04 4.259769e-03 -3.461249e-05)) ((7.797514e-09 1.001100e-08 -1.084961e-07) (2.850060e-07 5.015660e-08 7.607019e-06))
11.303298     	((2.885718e-02 2.729022e-02 -1.520820e-03) (7.084459e-04 4.305780e-03 -3.761390e-05)) ((7.769455e-09 1.110793e-08 -1.092407e-07) (2.889137e-07 4.748308e-08 7.827635e-06))
11.456866     	((2.977354e-02 2.851374e-02 -1.570034e-03) (7.553353e-04 4.355989e-03 -4.052741e-05)) ((7.725744e-09 1.189734e-08 -1.103302e-07) (2.872284e-07 4.400461e-08 7.972303e-06))
11.610393     	((3.031032e-02 2.959261e-02 -1.604456e-03) (7.984889e-04 4.408310e-03 -4.314678e-05)) ((7.822486e-09 1.250183e-08 -1.108071e-07) (2.841357e-07 4.378658e-08 8.050584e-06))
11.763898     	((3.036644e-02 3.050483e-02 -1.605545e-03) (8.356788e-04 4.459692e-03 -4.527813e-05)) ((8.075007e-09 1.255946e-08 -1.102903e-07) (2.852932e-07 4.724073e-08 8.076216e-06))
11.917394     	((2.983555e-02 3.115301e-02 -1.572136e-03) (8.643791e-04 4.507018e-03 -4.666325e-05)) ((8.395120e-09 1.176623e-08 -1.086244e-07) (2.909124e-07 5.122185e-08 8.039004e-06))
12.070913     	((2.864295e-02 3.142450e-02 -1.500995e-03) (8.814347e-04 4.548080e-03 -4.713472e-05)) ((8.461875e-09 1.057445e-08 -1.055306e-07) (3.001505e-07 5.337849e-08 7.936547e-06))
12.224501     	((2.669482e-02 3.124114e-02 -1.384687e-03) (8.833081e-04 4.581267e-03 -4.670404e-05)) ((8.220929e-09 8.820185e-09 -1.030567e-07) (3.044964e-07 5.110164e-08 7.759368e-06))
12.378197     	((2.404013e-02 3.057711e-02 -1.242199e-03) (8.665158e-04 4.604705e-03 -4.538022e-05)) ((7.628702e-09 6.348973e-09 -1.014493e-07) (3.001915e-07 4.019730e-08 7.516731e-06))
12.53204      	((2.063557e-02 2.950249e-02 -1.067207e-03) (8.278107e-04 4.617505e-03 -4.303694e-05)) ((7.068832e-09 3.507131e-09 -9.940008e-08) (2.935805e-07 1.226664e-08 7.230011e-06))
12.686078     	((1.661706e-02 2.816889e-02 -8.606220e-04) (7.658478e-04 4.620964e-03 -3.953663e-05)) ((6.133580e-09 6.649526e-10 -9.800980e-08) (2.928294e-07 -2.572988e-08 6.911655e-06))
12.840342     	((1.233781e-02 2.677541e-02 -6.512113e-04) (6.837905e-04 4.617583e-03 -3.485347e-05)) ((4.536917e-09 -2.149191e-09 -9.545784e-08) (3.014083e-07 -5.958972e-08 6.553417e-06))
12.994849     	((8.068323e-03 2.555215e-02 -4.220966e-04) (5.872133e-04 4.609754e-03 -2.887127e-05)) ((1.522146e-09 -4.678334e-09 -8.746399e-08) (3.254652e-07 -8.697737e-08 6.135172e-06))
13.149613     	((4.227643e-03 2.449648e-02 -2.330117e-04) (4.818450e-04 4.599613e-03 -2.188639e-05)) ((-1.090913e-09 -5.769239e-09 -7.362154e-08) (3.637170e-07 -1.077738e-07 5.694808e-06))
13.304637     	((9.638326e-04 2.378374e-02 -7.471736e-05) (3.760320e-04 4.591073e-03 -1.488703e-05)) ((-3.405287e-09 -5.834987e-09 -5.697851e-08) (4.033073e-07 -1.338758e-07 5.168291e-06))
13.459915     	((-1.578422e-03 2.329209e-02 2.678120e-05) (2.754928e-04 4.585385e-03 -8.489824e-06)) ((-4.509231e-09 -5.196217e-09 -4.868292e-08) (4.366857e-07 -1.643265e-07 4.577306e-06))
13.615456     	((-3.372304e-03 2.293136e-02 5.866087e-05) (1.848447e-04 4.581872e-03 -3.409404e-06)) ((-3.949948e-09 -4.003465e-09 -5.417207e-08) (4.517906e-07 -1.928408e-07 3.968944e-06))
13.771252     	((-4.500390e-03 2.269000e-02 7.700408e-05) (1.082491e-04 4.581038e-03 3.341233e-07)) ((-3.191645e-09 -3.765812e-09 -6.360499e-08) (4.531172e-07 -2.108588e-07 3.333804e-06))
13.927306     	((-5.131712e-03 2.248410e-02 7.215964e-05) (4.563953e-05 4.582273e-03 3.107265e-06)) ((-1.137395e-09 -3.472132e-09 -7.011084e-08) (4.481840e-07 -2.131945e-07 2.759961e-06))
14.083604     	((-5.393600e-03 2.227035e-02 5.108424e-05) (-5.800255e-06 4.583542e-03 4.733131e-06)) ((8.844866e-10 -3.681450e-09 -7.286978e-08) (4.260855e-07 -2.069753e-07 2.387987e-06))
14.240116     	((-5.414013e-03 2.200135e-02 2.818241e-05) (-5.081332e-05 4.584058e-03 5.250150e-06)) ((1.908828e-09 -4.128354e-09 -7.486059e-08) (3.840690e-07 -1.991283e-07 2.374013e-06))
