# Forces      
# CofR        : (0.000000e+00 0.000000e+00 0.000000e+00)
# Time        forces(pressure viscous)	moments(pressure viscous)
0             	((0.000000e+00 0.000000e+00 0.000000e+00) (6.340674e-02 -8.915092e-12 4.528895e-12)) ((0.000000e+00 0.000000e+00 0.000000e+00) (-1.253949e-13 -7.708378e-13 1.342662e-12))
0.00958315    	((2.320828e+01 2.385606e-03 2.211919e-03) (1.535226e-01 -1.400753e-05 -1.149414e-05)) ((-2.888615e-08 -4.624601e-08 -8.929388e-09) (8.176645e-10 -3.373770e-07 3.461458e-07))
0.0210829     	((-1.102333e+01 -2.745586e-03 -3.012367e-03) (1.412800e-01 -1.514392e-05 -1.421959e-05)) ((1.840289e-08 -1.858203e-07 -2.146759e-08) (2.022001e-09 -8.875536e-07 8.777645e-07))
0.0348827     	((2.499250e+00 4.943018e-04 4.586220e-04) (1.158389e-01 -1.601490e-06 -6.073600e-06)) ((2.337270e-08 1.686576e-07 2.049881e-08) (2.230081e-09 -5.043205e-07 4.829082e-07))
0.0513319     	((-9.533409e-01 -1.210912e-03 -1.230607e-03) (1.077981e-01 -4.647109e-06 -8.391713e-06)) ((2.221494e-08 -8.645105e-08 -4.002940e-08) (5.872780e-09 -3.190655e-07 3.978446e-07))
0.0704424     	((6.867933e-01 5.250091e-04 5.072244e-04) (1.026939e-01 -6.193125e-06 -7.049998e-06)) ((3.232765e-08 4.283598e-08 -9.147226e-09) (5.794359e-09 -2.817525e-07 3.545871e-07))
0.0921976     	((-5.338581e-02 -2.145645e-04 -3.062958e-04) (1.010041e-01 -3.244686e-06 -3.101416e-06)) ((2.757053e-08 -1.615321e-08 -1.872663e-08) (5.056252e-09 -7.353982e-08 5.532289e-08))
0.116575      	((3.078681e-01 5.113519e-05 9.120309e-05) (9.948349e-02 -9.124886e-07 2.362177e-07)) ((-1.045998e-08 2.696251e-08 -7.353206e-09) (5.905945e-09 5.613846e-09 -3.385186e-08))
0.142553      	((1.596091e-01 -2.806468e-04 -2.035039e-04) (9.868543e-02 -2.606326e-06 6.453431e-07)) ((1.222201e-08 -4.453507e-09 -7.862512e-09) (4.499670e-09 1.295614e-07 -9.115825e-08))
0.168547      	((2.631651e-01 -1.836015e-04 -1.993254e-04) (9.828687e-02 -1.749861e-06 2.721649e-07)) ((1.124152e-08 -1.966288e-09 -8.898262e-09) (2.901330e-09 1.719657e-07 -1.966439e-07))
0.19449       	((2.417984e-01 -4.132594e-04 -3.633900e-04) (9.812831e-02 -1.806318e-06 4.607473e-07)) ((2.210030e-09 -1.519933e-08 -4.401199e-09) (8.541324e-09 1.838610e-07 -2.195489e-07))
0.220335      	((2.831572e-01 -6.286789e-04 -5.581366e-04) (9.799066e-02 -4.469090e-06 -2.214992e-06)) ((1.233251e-08 -7.807784e-09 -3.200440e-09) (8.527954e-09 1.689701e-07 -1.680948e-07))
0.246001      	((2.888223e-01 -7.376533e-04 -6.521377e-04) (9.776399e-02 -4.676837e-06 -2.495455e-06)) ((6.734008e-09 -1.356453e-08 -6.058350e-10) (6.456461e-09 1.522542e-07 -1.478447e-07))
0.271522      	((3.051730e-01 -8.161245e-04 -7.345031e-04) (9.737291e-02 -4.904240e-06 -2.836527e-06)) ((7.779221e-10 -1.023314e-08 9.140058e-10) (7.266819e-09 1.106109e-07 -1.247065e-07))
0.296968      	((3.096151e-01 -9.510410e-04 -9.371665e-04) (9.686350e-02 -4.233039e-06 -3.636661e-06)) ((6.319830e-09 -7.647676e-09 -4.980884e-09) (8.394620e-09 2.389930e-08 -5.317618e-08))
0.32244       	((3.144363e-01 -1.096751e-03 -9.586145e-04) (9.630724e-02 -3.934758e-06 -1.353903e-06)) ((5.278760e-09 -1.663589e-08 -6.000423e-09) (9.060797e-09 -1.743337e-08 6.820784e-09))
0.347984      	((3.146036e-01 -1.306367e-03 -1.228712e-03) (9.578152e-02 -5.633050e-06 -3.360629e-06)) ((6.446732e-09 -2.256012e-08 -5.598644e-09) (6.084582e-09 -3.826801e-08 2.868245e-08))
0.373591      	((3.155378e-01 -1.495924e-03 -1.457721e-03) (9.532199e-02 -6.096079e-06 -5.851264e-06)) ((5.008152e-09 -2.303594e-08 -5.755719e-09) (3.498886e-09 -1.135988e-07 5.908295e-08))
0.39923       	((3.137171e-01 -1.711041e-03 -1.611929e-03) (9.490760e-02 -6.384932e-06 -4.679936e-06)) ((4.561585e-09 -3.143060e-08 -7.187058e-09) (7.783075e-09 -1.629753e-07 1.272479e-07))
0.424878      	((3.127340e-01 -1.999295e-03 -1.885435e-03) (9.452626e-02 -6.805216e-06 -4.995846e-06)) ((2.894879e-09 -3.060706e-08 -1.092767e-08) (7.714736e-09 -2.296785e-07 2.429451e-07))
0.450539      	((3.107078e-01 -2.306968e-03 -2.228669e-03) (9.416860e-02 -6.750492e-06 -5.349041e-06)) ((7.564619e-09 -2.408924e-08 -1.312705e-08) (4.419052e-09 -3.309345e-07 3.559123e-07))
0.476223      	((3.094362e-01 -2.717304e-03 -2.571313e-03) (9.383927e-02 -8.145853e-06 -5.783715e-06)) ((9.886364e-09 -2.947407e-08 -1.791372e-08) (2.488506e-09 -4.288047e-07 4.613093e-07))
0.501932      	((3.082944e-01 -3.225065e-03 -3.035748e-03) (9.353715e-02 -9.500693e-06 -7.276221e-06)) ((1.264781e-08 -3.844707e-08 -2.009744e-08) (1.791630e-09 -5.226722e-07 5.783286e-07))
0.527661      	((3.074595e-01 -3.730855e-03 -3.621249e-03) (9.324911e-02 -1.043439e-05 -1.067140e-05)) ((1.515349e-08 -4.171331e-08 -1.945982e-08) (3.274793e-09 -6.225367e-07 7.104923e-07))
0.553408      	((3.070297e-01 -4.338302e-03 -4.176767e-03) (9.299113e-02 -1.242277e-05 -1.453488e-05)) ((1.351549e-08 -5.604826e-08 -1.887411e-08) (6.572004e-09 -7.814955e-07 8.788831e-07))
0.579171      	((3.061710e-01 -5.012669e-03 -4.811392e-03) (9.276183e-02 -1.388857e-05 -1.587735e-05)) ((1.541727e-08 -6.398708e-08 -1.813692e-08) (6.358673e-09 -9.152203e-07 1.077435e-06))
0.604949      	((3.049712e-01 -5.771349e-03 -5.554799e-03) (9.255011e-02 -1.562463e-05 -1.925185e-05)) ((1.598232e-08 -7.351048e-08 -1.600540e-08) (7.445459e-09 -1.088630e-06 1.293043e-06))
0.630741      	((3.036465e-01 -6.648323e-03 -6.353160e-03) (9.236399e-02 -1.817868e-05 -2.333318e-05)) ((1.333942e-08 -9.123149e-08 -1.686034e-08) (6.635489e-09 -1.340954e-06 1.544631e-06))
0.656545      	((3.022480e-01 -7.609949e-03 -7.204202e-03) (9.219017e-02 -2.066330e-05 -2.511875e-05)) ((1.495996e-08 -9.715483e-08 -1.902515e-08) (5.271893e-09 -1.596027e-06 1.820355e-06))
0.68236       	((3.010483e-01 -8.706366e-03 -8.262438e-03) (9.202631e-02 -2.342149e-05 -2.754350e-05)) ((1.689486e-08 -1.179157e-07 -2.342776e-08) (6.778356e-09 -1.874302e-06 2.131586e-06))
0.708185      	((2.998792e-01 -1.000485e-02 -9.376895e-03) (9.187887e-02 -2.668730e-05 -3.115898e-05)) ((1.962979e-08 -1.345755e-07 -2.897900e-08) (6.841465e-09 -2.234415e-06 2.498083e-06))
0.73402       	((2.986744e-01 -1.155854e-02 -1.069443e-02) (9.173577e-02 -3.092858e-05 -3.505751e-05)) ((2.275706e-08 -1.460438e-07 -3.574069e-08) (4.153837e-09 -2.630971e-06 2.928081e-06))
0.759858      	((2.976425e-01 -1.337250e-02 -1.234375e-02) (9.160332e-02 -3.602256e-05 -3.983927e-05)) ((2.714678e-08 -1.793650e-07 -4.380404e-08) (4.015313e-09 -3.068104e-06 3.429377e-06))
0.785701      	((2.966562e-01 -1.536542e-02 -1.405200e-02) (9.148075e-02 -4.156153e-05 -4.358141e-05)) ((3.022324e-08 -1.977201e-07 -5.440458e-08) (6.517084e-09 -3.592810e-06 4.014031e-06))
0.811546      	((2.959033e-01 -1.761568e-02 -1.613292e-02) (9.136404e-02 -4.774444e-05 -5.095901e-05)) ((3.228180e-08 -2.230714e-07 -6.509685e-08) (8.334781e-09 -4.223277e-06 4.679960e-06))
0.837393      	((2.952323e-01 -2.013202e-02 -1.849430e-02) (9.125871e-02 -5.488135e-05 -5.829781e-05)) ((3.560349e-08 -2.708704e-07 -7.597909e-08) (7.320865e-09 -4.930737e-06 5.415835e-06))
0.863242      	((2.945521e-01 -2.294870e-02 -2.096380e-02) (9.116103e-02 -6.313291e-05 -6.343280e-05)) ((3.654814e-08 -2.940807e-07 -8.672108e-08) (4.856414e-09 -5.654308e-06 6.227199e-06))
0.889092      	((2.938645e-01 -2.616096e-02 -2.399317e-02) (9.107121e-02 -7.282425e-05 -7.423867e-05)) ((3.815326e-08 -3.379271e-07 -9.799436e-08) (2.627653e-09 -6.490590e-06 7.138245e-06))
0.914943      	((2.931380e-01 -2.980531e-02 -2.736438e-02) (9.099148e-02 -8.373620e-05 -8.524263e-05)) ((4.102805e-08 -3.936715e-07 -1.083534e-07) (-8.399742e-11 -7.436020e-06 8.173677e-06))
0.940793      	((2.923925e-01 -3.392005e-02 -3.105252e-02) (9.091852e-02 -9.576549e-05 -9.511763e-05)) ((4.474954e-08 -4.379788e-07 -1.184346e-07) (1.972735e-10 -8.455361e-06 9.350148e-06))
0.966643      	((2.916907e-01 -3.858963e-02 -3.540234e-02) (9.085260e-02 -1.095512e-04 -1.100505e-04)) ((4.806795e-08 -5.021435e-07 -1.280946e-07) (4.401297e-09 -9.653757e-06 1.068772e-05))
0.992491      	((2.910420e-01 -4.391479e-02 -4.023939e-02) (9.079460e-02 -1.255673e-04 -1.256416e-04)) ((5.406161e-08 -5.737316e-07 -1.379049e-07) (1.225615e-08 -1.101606e-05 1.221587e-05))
1.018337      	((2.904841e-01 -4.994707e-02 -4.564107e-02) (9.074216e-02 -1.440286e-04 -1.420678e-04)) ((6.050263e-08 -6.455033e-07 -1.502014e-07) (2.242847e-08 -1.250863e-05 1.395047e-05))
1.04418       	((2.900774e-01 -5.675461e-02 -5.188221e-02) (9.069610e-02 -1.650517e-04 -1.633778e-04)) ((7.157553e-08 -7.354208e-07 -1.637635e-07) (3.127397e-08 -1.420478e-05 1.590985e-05))
1.070018      	((2.898118e-01 -6.443513e-02 -5.890642e-02) (9.065749e-02 -1.890311e-04 -1.862212e-04)) ((8.490828e-08 -8.359860e-07 -1.795264e-07) (3.552031e-08 -1.611518e-05 1.811765e-05))
1.095852      	((2.897403e-01 -7.307664e-02 -6.682682e-02) (9.062448e-02 -2.162188e-04 -2.115615e-04)) ((1.001964e-07 -9.394378e-07 -1.973579e-07) (3.258339e-08 -1.828282e-05 2.060337e-05))
1.121679      	((2.898987e-01 -8.282250e-02 -7.585894e-02) (9.059788e-02 -2.467075e-04 -2.420536e-04)) ((1.243454e-07 -1.059795e-06 -2.166979e-07) (2.942433e-08 -2.079396e-05 2.341126e-05))
1.147499      	((2.903434e-01 -9.388606e-02 -8.601643e-02) (9.057854e-02 -2.808761e-04 -2.751298e-04)) ((1.533466e-07 -1.196308e-06 -2.377157e-07) (2.165038e-08 -2.363468e-05 2.659865e-05))
1.173311      	((2.911970e-01 -1.062832e-01 -9.745228e-02) (9.056653e-02 -3.188568e-04 -3.117698e-04)) ((1.854991e-07 -1.343426e-06 -2.596911e-07) (3.966548e-09 -2.685481e-05 3.020589e-05))
1.199107      	((2.925401e-01 -1.202228e-01 -1.104370e-01) (9.056273e-02 -3.608602e-04 -3.535737e-04)) ((2.282733e-07 -1.511092e-06 -2.813082e-07) (-1.657186e-08 -3.054596e-05 3.427903e-05))
1.224886      	((2.945344e-01 -1.358996e-01 -1.249331e-01) (9.056741e-02 -4.077716e-04 -3.989228e-04)) ((2.780998e-07 -1.688838e-06 -3.058063e-07) (-3.924805e-08 -3.476740e-05 3.888457e-05))
1.250643      	((2.971997e-01 -1.534902e-01 -1.411150e-01) (9.058279e-02 -4.603466e-04 -4.497361e-04)) ((3.407016e-07 -1.892508e-06 -3.291520e-07) (-7.104071e-08 -3.959680e-05 4.407488e-05))
1.276377      	((3.003667e-01 -1.730052e-01 -1.591741e-01) (9.061134e-02 -5.199607e-04 -5.066374e-04)) ((4.220533e-07 -2.118993e-06 -3.479006e-07) (-1.088575e-07 -4.508366e-05 4.985715e-05))
1.302085      	((3.045807e-01 -1.945644e-01 -1.791801e-01) (9.065410e-02 -5.880467e-04 -5.693216e-04)) ((5.071316e-07 -2.367979e-06 -3.603960e-07) (-1.525693e-07 -5.118675e-05 5.625938e-05))
1.327764      	((3.095868e-01 -2.181845e-01 -2.010224e-01) (9.071165e-02 -6.655437e-04 -6.397869e-04)) ((6.119982e-07 -2.645370e-06 -3.688987e-07) (-1.843713e-07 -5.782930e-05 6.331335e-05))
1.35341       	((3.154826e-01 -2.440383e-01 -2.248332e-01) (9.078760e-02 -7.542937e-04 -7.175336e-04)) ((7.294152e-07 -2.945929e-06 -3.715992e-07) (-2.058455e-07 -6.496614e-05 7.096376e-05))
1.37902       	((3.227258e-01 -2.720416e-01 -2.507377e-01) (9.088657e-02 -8.565456e-04 -8.061637e-04)) ((8.593854e-07 -3.271205e-06 -3.694727e-07) (-1.917932e-07 -7.253744e-05 7.913376e-05))
1.404591      	((3.315494e-01 -3.019399e-01 -2.782221e-01) (9.101141e-02 -9.738720e-04 -9.094255e-04)) ((1.015614e-06 -3.608339e-06 -3.656651e-07) (-1.285407e-07 -8.046527e-05 8.775745e-05))
1.430119      	((3.422230e-01 -3.335560e-01 -3.069714e-01) (9.116518e-02 -1.107169e-03 -1.027537e-03)) ((1.171977e-06 -3.925217e-06 -3.635027e-07) (-3.914569e-08 -8.879542e-05 9.689284e-05))
1.455602      	((3.554124e-01 -3.658823e-01 -3.362065e-01) (9.135054e-02 -1.255185e-03 -1.159099e-03)) ((1.321057e-06 -4.226271e-06 -3.524572e-07) (2.359783e-08 -9.746421e-05 1.064868e-04))
1.481038      	((3.701929e-01 -3.985453e-01 -3.654850e-01) (9.156605e-02 -1.413624e-03 -1.302803e-03)) ((1.480215e-06 -4.516031e-06 -3.434894e-07) (5.594297e-08 -1.063141e-04 1.163940e-04))
1.506423      	((3.874806e-01 -4.295903e-01 -3.933900e-01) (9.181027e-02 -1.579099e-03 -1.456959e-03)) ((1.629147e-06 -4.745117e-06 -3.531006e-07) (4.981092e-08 -1.151659e-04 1.263962e-04))
1.531757      	((4.073943e-01 -4.573607e-01 -4.183777e-01) (9.208314e-02 -1.750645e-03 -1.618563e-03)) ((1.762558e-06 -4.904867e-06 -3.792025e-07) (-4.786390e-09 -1.237028e-04 1.360794e-04))
1.557039      	((4.287734e-01 -4.808855e-01 -4.390194e-01) (9.238846e-02 -1.925869e-03 -1.781824e-03)) ((1.866031e-06 -4.952274e-06 -4.306889e-07) (-1.349758e-07 -1.316482e-04 1.451009e-04))
1.58227       	((4.502263e-01 -4.974101e-01 -4.539712e-01) (9.272602e-02 -2.097468e-03 -1.942560e-03)) ((1.965028e-06 -4.881647e-06 -5.041540e-07) (-3.027532e-07 -1.386500e-04 1.530927e-04))
1.607453      	((4.687141e-01 -5.059962e-01 -4.616599e-01) (9.308239e-02 -2.260234e-03 -2.095535e-03)) ((2.012969e-06 -4.716876e-06 -5.870404e-07) (-4.849651e-07 -1.442175e-04 1.595418e-04))
1.632592      	((4.847647e-01 -5.049246e-01 -4.601807e-01) (9.343620e-02 -2.402729e-03 -2.226310e-03)) ((1.975496e-06 -4.505439e-06 -6.331084e-07) (-6.249648e-07 -1.481567e-04 1.642039e-04))
1.657691      	((4.956110e-01 -4.938247e-01 -4.496498e-01) (9.377200e-02 -2.500046e-03 -2.314481e-03)) ((1.856086e-06 -4.309213e-06 -5.948374e-07) (-6.785702e-07 -1.506066e-04 1.673133e-04))
1.682759      	((5.000894e-01 -4.728660e-01 -4.304547e-01) (9.407747e-02 -2.522985e-03 -2.334332e-03)) ((1.685547e-06 -4.023130e-06 -4.540495e-07) (-6.777271e-07 -1.521690e-04 1.695164e-04))
1.707804      	((4.959137e-01 -4.447783e-01 -4.045538e-01) (9.434344e-02 -2.459161e-03 -2.272637e-03)) ((1.490473e-06 -3.633687e-06 -2.851828e-07) (-6.419499e-07 -1.531309e-04 1.710400e-04))
1.732836      	((4.875435e-01 -4.114917e-01 -3.742119e-01) (9.456718e-02 -2.308051e-03 -2.131954e-03)) ((1.298738e-06 -3.217288e-06 -1.427070e-07) (-6.393637e-07 -1.535679e-04 1.719261e-04))
1.757865      	((4.779801e-01 -3.765312e-01 -3.430219e-01) (9.475520e-02 -2.086462e-03 -1.932953e-03)) ((1.176546e-06 -2.752728e-06 -6.714247e-08) (-6.703420e-07 -1.532510e-04 1.718381e-04))
1.782902      	((4.667973e-01 -3.468965e-01 -3.160110e-01) (9.491730e-02 -1.836131e-03 -1.706887e-03)) ((1.154589e-06 -2.420873e-06 -4.025533e-08) (-6.821453e-07 -1.518850e-04 1.703508e-04))
1.807955      	((4.545645e-01 -3.265669e-01 -2.973537e-01) (9.506313e-02 -1.599455e-03 -1.483231e-03)) ((1.225356e-06 -2.317302e-06 -6.419556e-08) (-6.037472e-07 -1.494945e-04 1.674115e-04))
1.83303       	((4.421094e-01 -3.163377e-01 -2.871239e-01) (9.519761e-02 -1.395632e-03 -1.285426e-03)) ((1.404115e-06 -2.315720e-06 -1.293276e-07) (-4.158201e-07 -1.467247e-04 1.637961e-04))
1.858131      	((4.306871e-01 -3.151222e-01 -2.852860e-01) (9.532458e-02 -1.247093e-03 -1.133286e-03)) ((1.703917e-06 -2.368642e-06 -2.063589e-07) (-1.437134e-07 -1.438725e-04 1.599309e-04))
1.883257      	((4.196121e-01 -3.206985e-01 -2.896407e-01) (9.544555e-02 -1.176084e-03 -1.044748e-03)) ((1.975485e-06 -2.536521e-06 -1.924934e-07) (1.443735e-07 -1.405657e-04 1.555200e-04))
1.908405      	((4.084529e-01 -3.289545e-01 -2.965162e-01) (9.556097e-02 -1.192584e-03 -1.040357e-03)) ((2.258893e-06 -2.687388e-06 -1.199608e-07) (3.180372e-07 -1.363554e-04 1.498966e-04))
1.933569      	((3.964322e-01 -3.360298e-01 -3.022120e-01) (9.565326e-02 -1.280417e-03 -1.103021e-03)) ((2.547939e-06 -2.860067e-06 -1.085111e-07) (3.491768e-07 -1.311946e-04 1.433988e-04))
1.958745      	((3.833455e-01 -3.385379e-01 -3.036063e-01) (9.569871e-02 -1.377054e-03 -1.173325e-03)) ((2.666536e-06 -3.107586e-06 -1.759971e-07) (3.089443e-07 -1.266233e-04 1.380790e-04))
1.983927      	((3.757781e-01 -3.339482e-01 -2.991105e-01) (9.571808e-02 -1.426602e-03 -1.212010e-03)) ((2.605442e-06 -3.230067e-06 -1.929091e-07) (3.084313e-07 -1.239786e-04 1.347499e-04))
2.009113      	((3.709855e-01 -3.221048e-01 -2.885696e-01) (9.572774e-02 -1.421338e-03 -1.201996e-03)) ((2.338326e-06 -3.214026e-06 -1.568540e-07) (2.578967e-07 -1.223466e-04 1.326947e-04))
2.0343        	((3.707811e-01 -3.032162e-01 -2.721012e-01) (9.573463e-02 -1.374045e-03 -1.157903e-03)) ((1.854247e-06 -2.915171e-06 -1.050146e-07) (1.167733e-07 -1.207006e-04 1.309368e-04))
2.059487      	((3.723361e-01 -2.771108e-01 -2.500873e-01) (9.574482e-02 -1.285861e-03 -1.103648e-03)) ((1.320860e-06 -2.355839e-06 -1.377030e-07) (-1.451265e-07 -1.185227e-04 1.288268e-04))
2.084678      	((3.727251e-01 -2.475114e-01 -2.241988e-01) (9.574657e-02 -1.165653e-03 -1.013673e-03)) ((8.287919e-07 -1.760978e-06 -3.565434e-07) (-4.373759e-07 -1.152495e-04 1.258278e-04))
2.109875      	((3.729740e-01 -2.161129e-01 -1.963417e-01) (9.573799e-02 -1.022066e-03 -9.007563e-04)) ((3.466539e-07 -1.189259e-06 -6.288264e-07) (-6.762894e-07 -1.109636e-04 1.218810e-04))
2.135083      	((3.730941e-01 -1.873354e-01 -1.719122e-01) (9.573146e-02 -8.628755e-04 -7.862824e-04)) ((-1.201278e-09 -7.876145e-07 -7.692831e-07) (-7.712828e-07 -1.062594e-04 1.171208e-04))
2.160307      	((3.747436e-01 -1.641637e-01 -1.513656e-01) (9.568570e-02 -6.828711e-04 -6.357675e-04)) ((-2.215525e-07 -7.370530e-07 -7.297268e-07) (-7.687738e-07 -1.022185e-04 1.134629e-04))
2.185551      	((3.760525e-01 -1.502222e-01 -1.386697e-01) (9.560467e-02 -4.661051e-04 -4.504503e-04)) ((-3.601835e-07 -8.791474e-07 -5.491367e-07) (-6.815080e-07 -1.004944e-04 1.125372e-04))
2.210819      	((3.756192e-01 -1.460239e-01 -1.353394e-01) (9.552263e-02 -2.318660e-04 -2.597106e-04)) ((-3.253558e-07 -1.058050e-06 -3.830666e-07) (-3.823027e-07 -1.018284e-04 1.138828e-04))
2.23611       	((3.714073e-01 -1.493014e-01 -1.375199e-01) (9.542838e-02 -2.102876e-05 -5.760889e-05)) ((-2.628907e-07 -1.280063e-06 -2.353034e-07) (6.317243e-08 -1.045706e-04 1.166387e-04))
2.261424      	((3.651657e-01 -1.583805e-01 -1.455591e-01) (9.533426e-02 1.563013e-04 1.122936e-04)) ((-1.581457e-07 -1.573144e-06 -5.312525e-08) (5.354663e-07 -1.080382e-04 1.203958e-04))
