# Forces      
# CofR        : (0.000000e+00 0.000000e+00 0.000000e+00)
# Time        forces(pressure viscous)	moments(pressure viscous)
0             	((0.000000e+00 0.000000e+00 0.000000e+00) (0.000000e+00 0.000000e+00 0.000000e+00)) ((0.000000e+00 0.000000e+00 0.000000e+00) (0.000000e+00 0.000000e+00 0.000000e+00))
0.012         	((5.371601e-09 7.213778e-07 1.833306e-09) (2.605435e-10 1.864883e-08 -6.449124e-11)) ((-2.305996e-13 1.008807e-13 -1.666290e-08) (5.690382e-14 -1.497217e-12 -2.214586e-05))
0.0264        	((1.041180e-09 1.141316e-07 7.502817e-10) (7.197286e-10 2.717696e-08 -1.019105e-10)) ((7.389996e-14 -1.514659e-12 -8.039988e-09) (-4.038774e-13 -3.738560e-12 -2.029090e-05))
0.04368       	((3.097469e-08 3.650166e-07 8.181798e-09) (7.696077e-10 2.911108e-08 -1.789313e-10)) ((-1.462965e-13 -2.043650e-12 -4.882582e-09) (-1.369372e-12 -7.505161e-12 -1.839961e-05))
0.064416      	((9.635271e-09 -1.931339e-09 -3.994288e-09) (3.829416e-10 2.615990e-08 -3.266564e-10)) ((-1.029346e-13 -1.787684e-12 -3.179841e-09) (-2.312105e-12 -1.265163e-11 -1.652740e-05))
0.0892992     	((6.698644e-08 1.792957e-07 4.359751e-09) (7.133304e-10 2.300035e-08 -4.736207e-10)) ((2.481912e-13 -2.973255e-12 -2.730837e-09) (-1.242703e-12 -1.855586e-11 -1.474146e-05))
0.119159      	((-1.467272e-08 2.035221e-08 -3.852757e-10) (1.985725e-09 2.026409e-08 -6.053580e-10)) ((4.601057e-13 -1.895464e-12 -2.314381e-09) (1.572303e-12 -2.242157e-11 -1.310271e-05))
0.154991      	((-1.779817e-08 8.582725e-08 1.791924e-09) (3.736023e-09 1.737555e-08 -6.633630e-10)) ((4.117236e-13 -2.189475e-12 -1.998774e-09) (1.324621e-12 -2.140772e-11 -1.164982e-05))
0.197989      	((-2.631489e-08 2.160907e-08 -3.883642e-09) (4.044442e-09 1.261745e-08 -6.309435e-10)) ((1.977295e-13 -1.923732e-12 -1.715159e-09) (-2.736658e-12 -1.854355e-11 -1.038302e-05))
0.249587      	((-9.571540e-09 5.584741e-08 -1.437940e-09) (2.414093e-09 7.809100e-09 -4.874218e-10)) ((4.308341e-13 -1.712714e-12 -1.478413e-09) (-5.212636e-12 -1.659135e-11 -9.272116e-06))
0.311504      	((-2.570919e-08 1.778176e-08 -9.598460e-10) (2.946745e-09 6.113561e-09 -4.442775e-10)) ((2.901445e-14 -1.531204e-12 -1.275901e-09) (-2.783788e-12 -1.331766e-11 -8.279393e-06))
0.385805      	((-3.563925e-08 3.764316e-08 -1.022531e-09) (5.885100e-09 6.856871e-09 -5.656635e-10)) ((-1.236976e-13 -1.200716e-12 -1.109664e-09) (6.853336e-13 -1.137047e-11 -7.390879e-06))
0.474966      	((-4.051776e-08 2.652477e-08 -2.521551e-09) (4.217931e-09 8.685398e-09 -6.991763e-10)) ((-2.693832e-13 -1.064754e-12 -9.576304e-10) (-9.546014e-13 -8.279016e-12 -6.602126e-06))
0.581959      	((-4.028829e-08 7.299548e-08 -5.425947e-09) (-1.266608e-09 9.647004e-09 -6.716904e-10)) ((-5.249005e-13 -1.311870e-12 -8.113762e-10) (-1.546902e-12 -5.747861e-12 -5.908895e-06))
0.710351      	((-2.832959e-08 7.034382e-08 -4.019900e-09) (-6.928498e-09 8.170859e-09 -6.081496e-10)) ((-1.652158e-13 -1.248995e-12 -6.840381e-10) (2.052629e-12 -3.875521e-12 -5.303362e-06))
0.864421      	((-2.000096e-08 9.740189e-08 -5.596289e-09) (-8.961324e-09 3.606102e-09 -4.494816e-10)) ((-7.111318e-13 -1.812235e-12 -5.771225e-10) (1.205358e-11 -3.231972e-12 -4.774220e-06))
1.049306      	((-5.298065e-08 9.661552e-08 -6.103719e-10) (-9.753173e-09 -4.959292e-10 -2.616335e-10)) ((-1.196399e-12 -2.476906e-12 -4.881106e-10) (2.241247e-11 -5.711993e-13 -4.309311e-06))
1.271167      	((-6.367743e-08 7.997474e-08 2.327639e-09) (-9.896262e-09 -3.632121e-09 -9.198314e-11)) ((-3.355059e-12 -3.003948e-12 -4.204399e-10) (1.687396e-11 -5.781853e-12 -3.898774e-06))
1.5374        	((-2.719074e-08 9.087700e-08 4.019271e-09) (-7.638956e-09 -6.226465e-09 -1.509848e-10)) ((-5.280462e-12 -4.144996e-12 -3.615998e-10) (1.224255e-12 -7.765262e-12 -3.536026e-06))
1.85688       	((-1.250606e-08 1.166427e-07 5.601913e-09) (-7.139100e-09 -7.922333e-09 -7.232075e-10)) ((-5.443370e-12 -3.967625e-12 -3.090919e-10) (-1.270199e-11 -7.280228e-12 -3.217203e-06))
2.240256      	((1.122372e-08 9.173378e-08 -1.067240e-09) (-1.387404e-10 -6.748790e-09 -5.628678e-10)) ((-5.244566e-12 -3.363357e-12 -2.668911e-10) (-2.612724e-11 2.718386e-12 -2.939368e-06))
2.700307      	((4.259194e-09 9.359459e-08 8.124402e-10) (2.672030e-09 -2.652717e-09 -1.121732e-10)) ((-5.198046e-12 -2.041270e-12 -2.296658e-10) (-4.141577e-11 1.830720e-11 -2.698588e-06))
3.252369      	((-7.172831e-09 6.342327e-08 2.908743e-09) (-3.453901e-09 7.846567e-10 3.696959e-10)) ((-3.129129e-12 -1.254641e-12 -1.959224e-10) (-4.508037e-11 3.800150e-11 -2.489413e-06))
3.914842      	((-3.729702e-09 3.015951e-08 6.225470e-09) (-4.941809e-09 2.377648e-09 -3.724374e-10)) ((-2.802890e-12 -2.240035e-12 -1.669441e-10) (-2.358348e-11 7.919842e-11 -2.305890e-06))
4.709811      	((1.248384e-08 1.910176e-08 5.281071e-09) (-4.558651e-09 4.007776e-09 -1.184690e-09)) ((-1.696225e-12 -2.450654e-12 -1.425670e-10) (1.066836e-11 1.186003e-10 -2.142986e-06))
5.663773      	((1.573639e-08 6.475938e-09 2.686470e-09) (-5.747445e-09 6.219392e-09 -1.982678e-09)) ((-2.686920e-13 -2.612904e-12 -1.232646e-10) (2.985162e-11 1.372168e-10 -1.996859e-06))
6.808528      	((1.349543e-08 1.114784e-08 2.109890e-09) (-9.858645e-09 5.311717e-09 -2.024925e-09)) ((-4.587169e-13 -3.028800e-12 -1.088285e-10) (3.505085e-11 1.378363e-10 -1.864684e-06))
8.182233      	((-5.934902e-11 2.841596e-09 -1.700320e-10) (-9.625492e-09 8.453671e-09 -2.216533e-09)) ((-1.135451e-12 -3.041378e-12 -9.962182e-11) (4.902075e-11 1.123259e-10 -1.744290e-06))
9.83068       	((7.128348e-09 7.383840e-09 -2.237116e-09) (-7.148136e-09 1.120650e-08 -2.304167e-09)) ((-7.424507e-13 -3.198503e-12 -9.373748e-11) (6.292877e-11 7.162286e-11 -1.634138e-06))
11.808816     	((4.035646e-09 7.600374e-09 -2.724171e-09) (-7.120416e-09 9.518059e-09 -1.652013e-09)) ((-8.108958e-13 -2.985117e-12 -8.946221e-11) (8.060368e-11 4.286290e-11 -1.533491e-06))
14.182579     	((-2.971220e-09 8.459693e-09 -2.159166e-09) (-1.107046e-08 5.882208e-09 -1.180407e-09)) ((-4.416365e-13 -2.645767e-12 -8.505781e-11) (1.124468e-10 1.817768e-11 -1.442292e-06))
17.031095     	((-9.467928e-09 3.951400e-09 -1.672766e-09) (-1.236456e-08 8.974448e-09 -8.743760e-10)) ((-3.083961e-13 -2.623480e-12 -8.155075e-11) (1.303161e-10 -1.313443e-11 -1.360864e-06))
20.449314     	((-1.519855e-08 3.587135e-09 -2.758599e-09) (-1.513663e-08 8.971654e-09 -1.817837e-09)) ((-1.790493e-13 -2.444621e-12 -7.841764e-11) (1.347439e-10 -5.203473e-11 -1.289294e-06))
24.475975     	((-1.127889e-08 -2.055361e-09 -2.123348e-09) (-1.438311e-08 8.196387e-09 -8.481220e-10)) ((-4.833232e-13 -2.507644e-12 -7.518753e-11) (1.246553e-10 -8.476230e-11 -1.228073e-06))
29.128844     	((-1.212175e-08 1.538927e-09 -6.913070e-11) (-1.144123e-08 6.503667e-09 -4.514927e-10)) ((-9.252573e-13 -3.010167e-12 -7.167283e-11) (1.076261e-10 -1.133013e-10 -1.177035e-06))
34.424952     	((-1.426745e-08 -2.239072e-09 -1.486821e-09) (-9.006173e-09 5.130915e-09 -3.664037e-10)) ((-9.383813e-13 -3.101611e-12 -6.787515e-11) (9.943926e-11 -1.363658e-10 -1.135481e-06))
40.364239     	((-1.903155e-08 -7.114884e-11 -1.720830e-09) (-8.820041e-09 6.996130e-09 -3.426152e-10)) ((-7.823686e-13 -3.018354e-12 -6.583331e-11) (8.916144e-11 -1.415344e-10 -1.102541e-06))
46.795307     	((-1.203082e-08 7.912341e-09 -4.805209e-09) (-9.605248e-09 7.680372e-09 -4.985307e-10)) ((-2.769906e-13 -3.118114e-12 -6.460240e-11) (9.069850e-11 -1.359887e-10 -1.077812e-06))
53.225489     	((-3.567133e-09 1.314903e-08 -5.950607e-09) (-5.331009e-09 5.821839e-09 -9.644291e-10)) ((-1.036938e-13 -3.320461e-12 -6.309881e-11) (9.901051e-11 -1.227216e-10 -1.061192e-06))
59.654754     	((4.461340e-09 1.867479e-08 -7.176454e-09) (-6.497414e-10 3.676321e-09 -9.330552e-10)) ((-3.754346e-13 -3.415257e-12 -6.151122e-11) (1.043369e-10 -1.178840e-10 -1.051496e-06))
66.082942     	((7.412777e-09 1.684958e-08 -6.191168e-09) (2.355570e-10 2.935424e-09 -5.619371e-10)) ((-7.157142e-13 -3.265512e-12 -5.947038e-11) (1.081771e-10 -1.237363e-10 -1.047943e-06))
72.509933     	((6.413962e-09 1.305808e-08 -6.732547e-09) (-3.514403e-09 2.849043e-09 -6.819241e-10)) ((-8.456874e-13 -3.171401e-12 -5.745983e-11) (1.087420e-10 -1.386617e-10 -1.049822e-06))
78.93566      	((5.294716e-09 1.205104e-08 -6.209844e-09) (-5.093662e-09 1.461710e-09 -6.425059e-10)) ((-9.396619e-13 -2.809810e-12 -5.629237e-11) (9.697050e-11 -1.601463e-10 -1.056617e-06))
85.360068     	((7.735854e-09 1.099704e-08 -5.936260e-09) (-2.367643e-09 1.959631e-09 -7.294157e-10)) ((-7.814842e-13 -2.593911e-12 -5.531330e-11) (7.438661e-11 -1.806116e-10 -1.067856e-06))
91.782897     	((3.135227e-09 8.096939e-09 -5.342865e-09) (-5.995912e-10 2.076357e-09 -8.502894e-10)) ((-6.558224e-13 -2.454395e-12 -5.461906e-11) (5.411809e-11 -1.934127e-10 -1.083069e-06))
98.203905     	((-7.845220e-10 6.569388e-09 -5.212750e-09) (2.401165e-10 9.249265e-10 -7.989630e-10)) ((-5.493327e-13 -2.341866e-12 -5.458160e-11) (3.617425e-11 -1.939731e-10 -1.101648e-06))
104.503994    	((-4.173053e-09 4.377244e-09 -5.128913e-09) (-1.784739e-10 -7.283785e-11 -6.064669e-10)) ((-5.210800e-13 -2.310155e-12 -5.541174e-11) (2.136292e-11 -1.858591e-10 -1.122442e-06))
110.683286    	((-1.134865e-08 2.111790e-09 -3.593595e-09) (-5.175794e-10 -1.098681e-11 -3.025833e-10)) ((-5.254997e-13 -2.241027e-12 -5.679062e-11) (1.329201e-11 -1.712060e-10 -1.144051e-06))
116.755187    	((-1.199294e-08 3.427368e-09 -4.830814e-09) (-1.247001e-09 6.330692e-10 -7.688459e-11)) ((-5.126301e-13 -2.196025e-12 -5.876406e-11) (1.155637e-11 -1.543335e-10 -1.164891e-06))
122.734869    	((-8.889659e-09 8.799478e-09 -5.266830e-09) (-9.792815e-10 1.554153e-09 6.314321e-11)) ((-4.065389e-13 -2.162365e-12 -6.073835e-11) (1.626561e-11 -1.445635e-10 -1.183622e-06))
128.638605    	((-9.358493e-09 8.691016e-09 -7.080333e-09) (-2.195705e-10 7.303240e-10 2.565276e-10)) ((-2.754051e-13 -2.254558e-12 -6.205091e-11) (3.212342e-11 -1.402010e-10 -1.199309e-06))
134.483231    	((-7.371925e-09 3.310377e-09 -8.805639e-09) (1.268321e-10 3.934105e-10 4.279092e-10)) ((-1.697336e-13 -2.379165e-12 -6.297534e-11) (5.983513e-11 -1.429148e-10 -1.211331e-06))
140.284901    	((-5.125155e-09 1.444117e-09 -9.090246e-09) (1.698885e-09 1.461861e-09 5.853524e-10)) ((-1.120295e-13 -2.547131e-12 -6.320668e-11) (8.825130e-11 -1.539891e-10 -1.219424e-06))
146.059207    	((-4.399516e-10 2.452397e-09 -7.881213e-09) (3.059503e-09 2.761227e-09 6.712264e-10)) ((-1.796756e-13 -2.770454e-12 -6.294297e-11) (1.140979e-10 -1.694768e-10 -1.223762e-06))
151.79584     	((-1.762193e-09 2.331217e-09 -6.427156e-09) (4.284967e-09 4.041402e-09 9.442048e-10)) ((-2.923266e-13 -2.900759e-12 -6.218722e-11) (1.258673e-10 -1.851997e-10 -1.224814e-06))
