# Forces      
# CofR        : (0.000000e+00 0.000000e+00 0.000000e+00)
# Time        forces(pressure viscous)	moments(pressure viscous)
0             	((0.000000e+00 0.000000e+00 0.000000e+00) (1.412902e-15 2.524406e-05 -3.210106e-15)) ((0.000000e+00 0.000000e+00 0.000000e+00) (7.067466e-16 -6.669551e-18 -9.095681e-12))
0.012         	((-3.258570e-10 7.341538e-03 -1.383268e-09) (-1.803588e-11 2.897170e-05 -2.213885e-11)) ((2.944924e-12 -8.558028e-15 -1.387308e-09) (1.093501e-13 3.905335e-15 -1.895156e-11))
0.0264        	((-3.940085e-08 -5.061586e-04 7.174331e-09) (-5.947618e-11 2.956285e-05 -1.566264e-11)) ((-6.712925e-12 -4.896240e-13 9.162457e-11) (-2.018375e-13 -4.399017e-14 -2.573221e-11))
0.04368       	((1.021724e-07 -1.536941e-03 -5.654121e-08) (1.649830e-11 2.627399e-05 -3.407945e-11)) ((-3.137456e-12 7.077599e-13 3.697133e-10) (-1.043441e-12 -6.606706e-14 -2.224355e-11))
0.064416      	((-2.267716e-08 -1.455730e-05 2.539781e-08) (4.601493e-10 2.327224e-05 3.108292e-10)) ((2.440298e-12 5.647659e-13 -1.721319e-11) (2.155671e-12 -1.514143e-13 -2.794489e-11))
0.0892992     	((-8.482010e-09 2.033564e-05 1.929744e-08) (5.914165e-10 2.148594e-05 5.715907e-10)) ((6.076771e-13 -1.156820e-12 -1.977584e-11) (4.308526e-12 -4.279673e-13 -2.962877e-11))
0.119159      	((7.103462e-09 -2.297213e-05 2.396192e-08) (4.501678e-10 1.984043e-05 5.662550e-10)) ((2.228610e-12 2.601617e-13 5.209007e-12) (-1.097092e-12 -5.912035e-13 -2.511666e-11))
0.154991      	((5.154730e-10 -1.239545e-05 3.867518e-10) (3.396559e-10 1.809534e-05 5.386115e-10)) ((1.094401e-12 2.746178e-13 1.463690e-12) (-6.411236e-12 -7.799391e-13 -1.869558e-11))
0.197989      	((4.388067e-09 -3.005320e-06 -6.324091e-09) (1.753132e-10 1.633383e-05 3.678899e-10)) ((1.552660e-12 -4.864292e-14 2.425162e-13) (-7.278038e-12 -1.565140e-12 -5.216072e-12))
0.249587      	((3.401394e-09 4.031287e-07 -7.279878e-10) (7.795063e-11 1.460562e-05 2.031644e-10)) ((1.088514e-12 5.536551e-15 -1.423709e-12) (-6.568769e-12 -2.004718e-12 1.484005e-12))
0.311504      	((1.808758e-09 1.963834e-06 -2.972938e-10) (2.610491e-11 1.296251e-05 1.014103e-10)) ((7.091016e-13 -1.147848e-14 -1.931120e-12) (-5.392038e-12 -1.984740e-12 3.692145e-12))
0.385805      	((5.651077e-10 2.709011e-06 -5.038885e-10) (1.863840e-11 1.144620e-05 3.885962e-11)) ((4.887653e-13 -2.587431e-15 -1.558848e-12) (-3.281213e-12 -1.977425e-12 6.188606e-12))
0.474966      	((-1.983437e-10 3.062084e-06 -4.542032e-10) (2.995655e-11 1.008666e-05 4.150392e-13)) ((3.170582e-13 -3.100142e-15 -1.296658e-12) (-1.514578e-12 -1.747383e-12 2.143566e-12))
0.581959      	((-3.200857e-10 3.205291e-06 -3.575368e-10) (7.211419e-12 8.896176e-06 -3.013689e-11)) ((2.097276e-13 -7.557700e-15 -1.085668e-12) (-3.153608e-13 -1.283723e-12 -7.067238e-12))
0.710351      	((-2.998237e-10 3.193416e-06 -4.094202e-10) (2.531811e-11 7.874707e-06 -4.612352e-11)) ((1.246226e-13 -8.213689e-15 -8.904387e-13) (4.514699e-14 -8.566376e-13 -1.138831e-11))
0.864421      	((-2.869268e-10 3.078472e-06 -4.630763e-10) (7.573871e-11 7.009172e-06 -4.783382e-11)) ((6.291705e-14 -1.011972e-14 -9.196073e-13) (-8.178149e-14 -6.670182e-13 -9.090072e-12))
1.049306      	((-1.589057e-10 2.909189e-06 -3.783650e-10) (1.357924e-10 6.277762e-06 -3.538673e-11)) ((2.526570e-14 -9.092485e-15 -9.095389e-13) (-4.616849e-13 -5.850837e-13 -5.529968e-12))
1.271167      	((-4.433538e-11 2.721294e-06 -2.934951e-10) (1.925296e-10 5.657877e-06 -2.468110e-11)) ((3.540516e-15 -5.653745e-15 -8.257185e-13) (-5.997201e-13 -4.914185e-13 -3.440706e-12))
1.5374        	((4.444444e-11 2.528817e-06 -1.899042e-10) (2.055731e-10 5.125597e-06 -1.976482e-11)) ((-7.675458e-15 -4.599298e-15 -8.112882e-13) (-5.874535e-13 -4.041723e-13 -2.248719e-12))
1.85688       	((1.185046e-10 2.340377e-06 -1.150596e-10) (1.841452e-10 4.659228e-06 -1.749675e-11)) ((-6.401146e-15 -2.531741e-15 -8.151795e-13) (-5.700193e-13 -3.434074e-13 -2.136874e-12))
2.240256      	((9.207816e-11 2.161215e-06 -5.885487e-11) (1.433174e-10 4.244593e-06 -1.501168e-11)) ((-3.202709e-15 -1.787547e-15 -8.160193e-13) (-6.505973e-13 -2.954700e-13 -3.042642e-12))
2.700307      	((8.104234e-11 1.993794e-06 -2.195889e-11) (1.039848e-10 3.872894e-06 -1.363513e-11)) ((-7.866015e-16 -1.699932e-15 -8.169125e-13) (-8.721942e-13 -2.527625e-13 -5.562482e-12))
3.252369      	((1.528389e-10 1.837630e-06 -5.189451e-12) (9.457254e-11 3.538141e-06 -1.404709e-11)) ((7.342131e-16 -1.891569e-15 -7.638591e-13) (-1.198847e-12 -2.141605e-13 -9.113359e-12))
3.914842      	((1.221082e-10 1.690615e-06 -1.077348e-11) (6.882568e-11 3.235953e-06 -1.511367e-11)) ((2.151043e-15 -2.818465e-15 -6.947663e-13) (-1.489646e-12 -1.823430e-13 -1.194303e-11))
4.709811      	((7.988707e-11 1.553955e-06 -6.184945e-12) (3.994769e-11 2.963024e-06 -1.618184e-11)) ((4.548700e-15 -5.749060e-15 -6.245144e-13) (-1.669724e-12 -1.294044e-13 -1.237990e-11))
5.663773      	((2.292891e-11 1.428251e-06 -4.680658e-11) (2.057097e-11 2.716988e-06 -1.257264e-11)) ((6.878140e-15 -7.860722e-15 -5.629710e-13) (-1.620403e-12 -6.107594e-14 -1.172130e-11))
6.808528      	((-1.647967e-11 1.313381e-06 -7.509919e-11) (2.201499e-12 2.495846e-06 -1.144394e-11)) ((9.491296e-15 -6.497853e-15 -4.902589e-13) (-1.599321e-12 -1.432049e-14 -1.211732e-11))
8.182233      	((1.539254e-11 1.208590e-06 -7.634000e-11) (-1.916772e-11 2.297373e-06 -1.155296e-11)) ((1.157199e-14 -6.545835e-15 -4.222528e-13) (-1.810373e-12 2.189479e-14 -1.229668e-11))
9.83068       	((7.157654e-11 1.113406e-06 -3.890192e-11) (-3.756832e-11 2.119050e-06 -5.160831e-12)) ((1.331397e-14 -8.398835e-15 -3.624345e-13) (-2.362146e-12 1.865420e-14 -1.226127e-11))
11.808816     	((7.366193e-11 1.026395e-06 -2.600977e-11) (-3.701876e-11 1.958292e-06 -7.279244e-13)) ((1.279875e-14 -8.942172e-15 -3.081246e-13) (-3.364944e-12 2.863050e-14 -1.208093e-11))
14.182579     	((1.052284e-11 9.470876e-07 -6.933686e-11) (-2.549683e-11 1.812784e-06 1.605579e-12)) ((1.386073e-14 -8.895290e-15 -2.638367e-13) (-4.778108e-12 5.688208e-14 -1.119275e-11))
17.031095     	((5.031982e-11 8.751039e-07 -6.457379e-11) (-2.369836e-11 1.680602e-06 -6.765925e-14)) ((1.414730e-14 -9.014443e-15 -2.275759e-13) (-6.542256e-12 7.461537e-14 -9.816559e-12))
20.449314     	((-4.224055e-12 8.097257e-07 -1.372975e-10) (-2.610673e-11 1.560281e-06 -8.392055e-12)) ((1.574251e-14 -9.227113e-15 -2.022815e-13) (-8.325635e-12 7.030935e-14 -7.928174e-12))
24.551176     	((-5.662164e-11 7.506148e-07 -1.869380e-10) (-3.656487e-11 1.450804e-06 -1.787624e-11)) ((1.651546e-14 -9.576788e-15 -1.840794e-13) (-9.649259e-12 5.577576e-14 -6.258709e-12))
29.473411     	((4.531531e-12 6.975550e-07 -1.406497e-10) (-3.747256e-11 1.351362e-06 -2.335431e-11)) ((1.310126e-14 -1.005542e-14 -1.707588e-13) (-1.041164e-11 -1.205106e-14 -4.894652e-12))
35.380094     	((4.483738e-11 6.500195e-07 -1.114338e-10) (-3.302071e-11 1.261262e-06 -2.645923e-11)) ((9.016275e-15 -9.410278e-15 -1.609122e-13) (-1.102774e-11 -8.235497e-14 -3.613994e-12))
42.468112     	((7.787433e-11 6.078237e-07 -8.815181e-11) (-2.896000e-11 1.179800e-06 -3.087898e-11)) ((7.023769e-15 -9.865899e-15 -1.556315e-13) (-1.208886e-11 -1.412798e-13 -1.747001e-12))
50.973735     	((9.702744e-11 5.705908e-07 -5.258706e-11) (-2.312730e-11 1.106278e-06 -3.593970e-11)) ((5.216662e-15 -1.040900e-14 -1.523214e-13) (-1.386184e-11 -1.867461e-13 1.050455e-12))
61.180482     	((1.296165e-10 5.380616e-07 -1.815997e-11) (-2.182161e-11 1.040035e-06 -4.004840e-11)) ((4.015156e-15 -1.032217e-14 -1.504399e-13) (-1.631443e-11 -1.957216e-13 5.026552e-12))
73.428578     	((1.670553e-10 5.100058e-07 1.399287e-11) (-2.787273e-11 9.804276e-07 -4.544397e-11)) ((3.310646e-15 -9.710610e-15 -1.517258e-13) (-1.957104e-11 -1.863234e-13 9.891390e-12))
88.126294     	((1.921403e-10 4.860809e-07 3.356316e-11) (-3.662876e-11 9.268685e-07 -5.434150e-11)) ((2.792979e-15 -9.055167e-15 -1.547060e-13) (-2.354338e-11 -1.770872e-13 1.529353e-11))
105.763553    	((2.249677e-10 4.662169e-07 7.455522e-11) (-4.307490e-11 8.788579e-07 -6.489980e-11)) ((2.201569e-15 -8.180051e-15 -1.591339e-13) (-2.793441e-11 -1.782548e-13 2.108289e-11))
126.928263    	((2.408989e-10 4.501571e-07 8.442348e-11) (-4.685633e-11 8.359930e-07 -7.769154e-11)) ((1.416357e-15 -7.174815e-15 -1.642484e-13) (-3.223916e-11 -1.739174e-13 2.674152e-11))
152.325916    	((2.434829e-10 4.375514e-07 1.037863e-10) (-4.979831e-11 7.979633e-07 -9.159625e-11)) ((5.901303e-17 -6.841003e-15 -1.707249e-13) (-3.619126e-11 -1.849376e-13 3.189806e-11))
182.803099    	((2.726905e-10 4.284425e-07 1.463137e-10) (-5.102213e-11 7.645300e-07 -1.022223e-10)) ((-1.182150e-15 -6.224837e-15 -1.795629e-13) (-3.955918e-11 -1.849831e-13 3.635665e-11))
219.375719    	((3.088443e-10 4.222447e-07 1.931347e-10) (-4.926983e-11 7.354763e-07 -1.074070e-10)) ((-2.661574e-15 -5.787929e-15 -1.899750e-13) (-4.224001e-11 -1.818539e-13 3.999773e-11))
263.262863    	((3.570550e-10 4.186843e-07 2.483051e-10) (-4.461692e-11 7.106032e-07 -1.080734e-10)) ((-3.592839e-15 -5.244685e-15 -2.017467e-13) (-4.417657e-11 -1.831894e-13 4.260856e-11))
315.927436    	((3.979733e-10 4.172170e-07 3.044473e-10) (-3.581027e-11 6.896608e-07 -1.027267e-10)) ((-4.668513e-15 -5.225307e-15 -2.134720e-13) (-4.520780e-11 -1.668852e-13 4.416279e-11))
379.124923    	((4.356093e-10 4.172407e-07 3.573614e-10) (-2.209988e-11 6.723199e-07 -9.128175e-11)) ((-5.402802e-15 -4.957483e-15 -2.235235e-13) (-4.531417e-11 -1.628381e-13 4.460809e-11))
454.476541    	((4.756097e-10 4.179838e-07 3.988488e-10) (-3.858095e-12 6.581697e-07 -7.563393e-11)) ((-5.603125e-15 -4.930794e-15 -2.309036e-13) (-4.450683e-11 -1.567441e-13 4.398416e-11))
541.965807    	((5.057305e-10 4.188813e-07 4.347519e-10) (1.840570e-11 6.467491e-07 -5.529636e-11)) ((-5.883390e-15 -4.835250e-15 -2.350417e-13) (-4.286017e-11 -1.410273e-13 4.246477e-11))
641.587714    	((5.198085e-10 4.194173e-07 4.498936e-10) (4.333855e-11 6.375246e-07 -3.154220e-11)) ((-5.855512e-15 -4.753449e-15 -2.374846e-13) (-4.059510e-11 -1.259276e-13 4.033850e-11))
753.349182    	((5.113148e-10 4.195802e-07 4.486853e-10) (6.987439e-11 6.300492e-07 -6.296241e-12)) ((-5.655581e-15 -4.617926e-15 -2.390755e-13) (-3.796251e-11 -1.202412e-13 3.783234e-11))
874.87361     	((4.904447e-10 4.195537e-07 4.329452e-10) (9.509419e-11 6.239863e-07 1.819453e-11)) ((-5.460463e-15 -4.583175e-15 -2.402254e-13) (-3.522134e-11 -1.242480e-13 3.517342e-11))
996.531752    	((4.635579e-10 4.195496e-07 4.104316e-10) (1.176001e-10 6.191072e-07 4.067145e-11)) ((-5.368135e-15 -4.586469e-15 -2.411188e-13) (-3.251932e-11 -1.322633e-13 3.251532e-11))
1118.304338   	((4.311962e-10 4.194378e-07 3.803899e-10) (1.360767e-10 6.151504e-07 5.944759e-11)) ((-5.164586e-15 -4.620505e-15 -2.419888e-13) (-2.990905e-11 -1.384106e-13 2.991398e-11))
1240.171622   	((3.953860e-10 4.193402e-07 3.457058e-10) (1.496405e-10 6.119594e-07 7.332721e-11)) ((-4.892473e-15 -4.650630e-15 -2.427140e-13) (-2.747290e-11 -1.432900e-13 2.747737e-11))
1362.116928   	((3.576111e-10 4.192300e-07 3.087694e-10) (1.593691e-10 6.093746e-07 8.322484e-11)) ((-4.407409e-15 -4.651274e-15 -2.431950e-13) (-2.517446e-11 -1.472946e-13 2.516434e-11))
1484.127063   	((3.204533e-10 4.191332e-07 2.719862e-10) (1.651564e-10 6.072849e-07 8.898225e-11)) ((-4.325754e-15 -4.663626e-15 -2.438361e-13) (-2.307290e-11 -1.506842e-13 2.303808e-11))
1606.190662   	((2.840530e-10 4.190385e-07 2.357599e-10) (1.674930e-10 6.055909e-07 9.130400e-11)) ((-4.114341e-15 -4.658868e-15 -2.442388e-13) (-2.116092e-11 -1.536844e-13 2.110707e-11))
1728.298058   	((2.499919e-10 4.189582e-07 2.018134e-10) (1.674200e-10 6.042186e-07 9.124432e-11)) ((-3.833364e-15 -4.679289e-15 -2.446073e-13) (-1.942050e-11 -1.568399e-13 1.935009e-11))
1850.441035   	((2.183504e-10 4.188869e-07 1.706602e-10) (1.653762e-10 6.031052e-07 8.910846e-11)) ((-3.519580e-15 -4.685506e-15 -2.448781e-13) (-1.786342e-11 -1.594866e-13 1.777050e-11))
1972.612807   	((1.892202e-10 4.188258e-07 1.418733e-10) (1.616955e-10 6.022020e-07 8.535465e-11)) ((-3.319878e-15 -4.707220e-15 -2.451036e-13) (-1.648966e-11 -1.616491e-13 1.637813e-11))
2094.807802   	((1.629917e-10 4.187733e-07 1.158411e-10) (1.570293e-10 6.014684e-07 8.063598e-11)) ((-3.119340e-15 -4.723443e-15 -2.452453e-13) (-1.527885e-11 -1.629144e-13 1.515149e-11))
2217.021505   	((1.396765e-10 4.187292e-07 9.296030e-11) (1.518815e-10 6.008720e-07 7.544489e-11)) ((-2.954740e-15 -4.743355e-15 -2.453771e-13) (-1.421751e-11 -1.640274e-13 1.407607e-11))
2339.250251   	((1.193017e-10 4.186922e-07 7.254064e-11) (1.464888e-10 6.003864e-07 7.003573e-11)) ((-2.817606e-15 -4.761468e-15 -2.454964e-13) (-1.329158e-11 -1.651276e-13 1.313876e-11))
2461.491092   	((1.016385e-10 4.186612e-07 5.512660e-11) (1.410725e-10 5.999910e-07 6.462614e-11)) ((-2.699509e-15 -4.772065e-15 -2.456207e-13) (-1.249152e-11 -1.659489e-13 1.232958e-11))
2583.741652   	((8.656499e-11 4.186348e-07 4.043738e-11) (1.357791e-10 5.996688e-07 5.937519e-11)) ((-2.610711e-15 -4.777748e-15 -2.457483e-13) (-1.180439e-11 -1.665927e-13 1.163623e-11))
2706.000025   	((7.391844e-11 4.186126e-07 2.773493e-11) (1.307911e-10 5.994061e-07 5.441708e-11)) ((-2.540538e-15 -4.783929e-15 -2.458610e-13) (-1.121873e-11 -1.670932e-13 1.104435e-11))
2828.264687   	((6.317344e-11 4.185946e-07 1.703707e-11) (1.261891e-10 5.991919e-07 4.985406e-11)) ((-2.471737e-15 -4.790213e-15 -2.459417e-13) (-1.072151e-11 -1.675275e-13 1.054237e-11))
2950.534418   	((5.425381e-11 4.185798e-07 8.301762e-12) (1.220748e-10 5.990171e-07 4.576796e-11)) ((-2.416894e-15 -4.794359e-15 -2.460020e-13) (-1.030037e-11 -1.678840e-13 1.011634e-11))
3072.80824    	((4.681669e-11 4.185676e-07 9.521065e-13) (1.184363e-10 5.988744e-07 4.213792e-11)) ((-2.365956e-15 -4.797796e-15 -2.460534e-13) (-9.945809e-12 -1.681894e-13 9.757098e-12))
3195.085368   	((4.072365e-11 4.185569e-07 -5.094691e-12) (1.152521e-10 5.987578e-07 3.895846e-11)) ((-2.326373e-15 -4.799794e-15 -2.460951e-13) (-9.648659e-12 -1.684695e-13 9.456068e-12))
3317.365173   	((3.575847e-11 4.185484e-07 -9.993077e-12) (1.125044e-10 5.986626e-07 3.621121e-11)) ((-2.294373e-15 -4.802234e-15 -2.461316e-13) (-9.400448e-12 -1.687025e-13 9.204473e-12))
3439.647151   	((3.168607e-11 4.185415e-07 -1.400908e-11) (1.101664e-10 5.985848e-07 3.386203e-11)) ((-2.268210e-15 -4.803783e-15 -2.461616e-13) (-9.193725e-12 -1.689199e-13 8.994533e-12))
3561.930895   	((2.835260e-11 4.185355e-07 -1.730013e-11) (1.081937e-10 5.985211e-07 3.187754e-11)) ((-2.247433e-15 -4.804283e-15 -2.461855e-13) (-9.021893e-12 -1.691163e-13 8.820035e-12))
3684.216077   	((2.564396e-11 4.185307e-07 -2.002511e-11) (1.065394e-10 5.984691e-07 3.021420e-11)) ((-2.229859e-15 -4.805129e-15 -2.462051e-13) (-8.879462e-12 -1.692918e-13 8.675497e-12))
3806.502432   	((2.348834e-11 4.185269e-07 -2.213920e-11) (1.051649e-10 5.984266e-07 2.883087e-11)) ((-2.215387e-15 -4.805531e-15 -2.462233e-13) (-8.761775e-12 -1.694392e-13 8.555996e-12))
3928.789746   	((2.169832e-11 4.185236e-07 -2.389466e-11) (1.040315e-10 5.983917e-07 2.768779e-11)) ((-2.204462e-15 -4.806079e-15 -2.462400e-13) (-8.664552e-12 -1.695747e-13 8.457254e-12))
4051.077845   	((2.023033e-11 4.185207e-07 -2.535796e-11) (1.031010e-10 5.983633e-07 2.674872e-11)) ((-2.193649e-15 -4.806229e-15 -2.462534e-13) (-8.584427e-12 -1.696823e-13 8.375845e-12))
4173.366587   	((1.904516e-11 4.185186e-07 -2.650725e-11) (1.023411e-10 5.983400e-07 2.598044e-11)) ((-2.186005e-15 -4.806629e-15 -2.462639e-13) (-8.518403e-12 -1.697781e-13 8.308717e-12))
4295.655855   	((1.803065e-11 4.185164e-07 -2.756123e-11) (1.017224e-10 5.983209e-07 2.535458e-11)) ((-2.179195e-15 -4.806746e-15 -2.462728e-13) (-8.464105e-12 -1.698586e-13 8.253440e-12))
4417.945555   	((1.724976e-11 4.185152e-07 -2.835327e-11) (1.012204e-10 5.983053e-07 2.484666e-11)) ((-2.173120e-15 -4.806927e-15 -2.462798e-13) (-8.419430e-12 -1.699266e-13 8.207937e-12))
4540.23561    	((1.659086e-11 4.185141e-07 -2.896729e-11) (1.008122e-10 5.982926e-07 2.443457e-11)) ((-2.168155e-15 -4.806962e-15 -2.462854e-13) (-8.382713e-12 -1.699862e-13 8.170526e-12))
4662.525956   	((1.604365e-11 4.185133e-07 -2.949182e-11) (1.004813e-10 5.982822e-07 2.410020e-11)) ((-2.164101e-15 -4.806936e-15 -2.462899e-13) (-8.352444e-12 -1.700356e-13 8.139652e-12))
4784.816541   	((1.559142e-11 4.185127e-07 -2.990391e-11) (1.002123e-10 5.982736e-07 2.382826e-11)) ((-2.160860e-15 -4.806823e-15 -2.462936e-13) (-8.327473e-12 -1.700754e-13 8.114158e-12))
4907.107321   	((1.521424e-11 4.185121e-07 -3.027602e-11) (9.999348e-11 5.982666e-07 2.360625e-11)) ((-2.158066e-15 -4.806835e-15 -2.462966e-13) (-8.306868e-12 -1.701086e-13 8.093101e-12))
5029.398262   	((1.490220e-11 4.185116e-07 -3.057374e-11) (9.981516e-11 5.982609e-07 2.342612e-11)) ((-2.155734e-15 -4.806799e-15 -2.462991e-13) (-8.289861e-12 -1.701357e-13 8.075710e-12))
5151.689335   	((1.463997e-11 4.185112e-07 -3.081237e-11) (9.966861e-11 5.982562e-07 2.327829e-11)) ((-2.153879e-15 -4.806709e-15 -2.463012e-13) (-8.275805e-12 -1.701574e-13 8.061327e-12))
5273.980514   	((1.442317e-11 4.185108e-07 -3.102012e-11) (9.954781e-11 5.982523e-07 2.315669e-11)) ((-2.152380e-15 -4.806664e-15 -2.463028e-13) (-8.264180e-12 -1.701755e-13 8.049422e-12))
5396.27178    	((1.423797e-11 4.185106e-07 -3.118822e-11) (9.944773e-11 5.982492e-07 2.305576e-11)) ((-2.151025e-15 -4.806655e-15 -2.463042e-13) (-8.254562e-12 -1.701900e-13 8.039568e-12))
5518.563118   	((1.408588e-11 4.185105e-07 -3.129821e-11) (9.936543e-11 5.982466e-07 2.296792e-11)) ((-2.151033e-15 -4.806069e-15 -2.463051e-13) (-8.246657e-12 -1.702032e-13 8.031390e-12))
5640.854515   	((1.395680e-11 4.185103e-07 -3.139984e-11) (9.929423e-11 5.982445e-07 2.289581e-11)) ((-2.148654e-15 -4.806401e-15 -2.463068e-13) (-8.239986e-12 -1.702154e-13 8.024649e-12))
