# Forces      
# CofR        : (0.000000e+00 0.000000e+00 0.000000e+00)
# Time        forces(pressure viscous)	moments(pressure viscous)
0             	((0.000000e+00 0.000000e+00 0.000000e+00) (3.178861e-04 -4.498615e-14 2.223705e-14)) ((0.000000e+00 0.000000e+00 0.000000e+00) (-6.286666e-16 -4.796912e-15 6.734098e-15))
0.012         	((9.246887e-02 -4.372533e-08 -2.631041e-08) (3.645302e-04 -3.042993e-10 -1.849347e-10)) ((-1.185503e-13 -3.600126e-11 -1.277092e-11) (4.241247e-14 2.716908e-12 5.057445e-12))
0.0264        	((-7.008021e-03 -6.694124e-07 -2.146951e-06) (3.712771e-04 -9.768926e-10 -1.789373e-09)) ((1.971110e-11 6.152525e-11 1.351385e-11) (2.101914e-13 8.899553e-12 8.851929e-12))
0.04368       	((-1.902090e-02 1.217753e-07 1.570244e-06) (3.293336e-04 -1.116562e-09 -1.347823e-09)) ((-1.447158e-11 4.416344e-11 7.007273e-11) (7.566283e-13 2.144369e-11 4.576712e-12))
0.064416      	((-1.795095e-04 1.131827e-07 -4.156844e-07) (2.914464e-04 5.871277e-09 4.577360e-09)) ((1.411021e-12 -3.349117e-11 -2.564289e-11) (1.810324e-12 -1.509584e-12 3.563870e-11))
0.0892992     	((1.910808e-04 -9.490263e-08 2.925861e-07) (2.689097e-04 8.539754e-09 7.368657e-09)) ((1.067955e-11 -2.763694e-12 -1.261998e-11) (2.743196e-12 2.709154e-11 2.244843e-11))
0.119159      	((-3.072990e-04 4.329909e-07 2.269816e-07) (2.482652e-04 5.836234e-09 6.060527e-09)) ((-4.417894e-12 -1.439549e-11 -6.851897e-12) (1.315873e-12 1.057551e-10 -3.558430e-11))
0.154991      	((-1.539220e-04 -4.779483e-08 3.267446e-08) (2.265895e-04 4.752128e-09 4.423076e-09)) ((6.389545e-12 -9.593908e-12 -2.635621e-12) (1.169137e-12 7.753351e-11 -4.395538e-12))
0.197989      	((-3.606325e-05 -5.632726e-08 -4.797059e-08) (2.050227e-04 2.440042e-09 2.647629e-09)) ((1.301728e-12 -6.786412e-12 -8.504602e-14) (2.817099e-12 2.387128e-11 5.927827e-11))
0.249587      	((5.886154e-06 1.285311e-10 7.167841e-09) (1.842413e-04 2.010079e-10 1.315843e-09)) ((-4.946787e-13 -3.522066e-12 6.470617e-13) (3.628232e-12 3.421024e-12 7.771801e-11))
0.311504      	((2.563909e-05 -2.102362e-09 -6.863910e-09) (1.648337e-04 -9.549401e-10 2.835335e-10)) ((-7.861380e-14 -3.810520e-12 9.761937e-14) (2.757502e-12 -1.853383e-11 7.094643e-11))
0.385805      	((3.675767e-05 -1.136777e-08 -1.013508e-08) (1.472759e-04 -1.230828e-09 -2.294162e-10)) ((-1.405789e-14 -2.362106e-12 1.278313e-14) (1.568574e-12 -2.356161e-11 5.914983e-11))
0.474966      	((4.249398e-05 -1.094846e-08 -1.485536e-08) (1.318036e-04 -9.520219e-10 -3.398701e-10)) ((1.491117e-13 -1.016748e-12 -2.051956e-14) (1.753545e-12 -2.143554e-11 4.686805e-11))
0.581959      	((4.486126e-05 -9.982686e-09 -1.145206e-08) (1.181897e-04 -7.014811e-10 -2.965121e-10)) ((1.034465e-13 -6.190860e-13 -4.209078e-14) (2.882285e-12 -1.566842e-11 4.288026e-11))
0.710351      	((4.479582e-05 -8.736552e-09 -8.611185e-09) (1.061302e-04 -6.144676e-10 -3.479239e-10)) ((2.055130e-13 -2.799421e-13 -8.294379e-14) (3.630211e-12 -1.142864e-11 4.206427e-11))
0.864421      	((4.322246e-05 -6.421369e-09 -6.910355e-09) (9.543034e-05 -5.389035e-10 -4.337544e-10)) ((1.966893e-13 -1.355377e-13 -1.036689e-13) (3.832217e-12 -1.198756e-11 3.819993e-11))
1.049306      	((4.084897e-05 -5.047714e-09 -5.669952e-09) (8.592586e-05 -4.926979e-10 -5.011960e-10)) ((1.704342e-13 -6.781426e-14 -1.050847e-13) (3.906507e-12 -1.427532e-11 3.343044e-11))
1.271167      	((3.805678e-05 -3.976021e-09 -4.114643e-09) (7.749219e-05 -4.587841e-10 -5.476532e-10)) ((1.435866e-13 -5.572145e-14 -1.142056e-13) (3.815681e-12 -1.561008e-11 2.878773e-11))
1.5374        	((3.515043e-05 -3.140230e-09 -3.790242e-09) (7.000920e-05 -4.559872e-10 -5.804925e-10)) ((6.570380e-14 -2.104663e-14 -9.491016e-14) (3.564686e-12 -1.498723e-11 2.320918e-11))
1.85688       	((3.237090e-05 -2.282662e-09 -2.909029e-09) (6.337234e-05 -4.743561e-10 -5.817670e-10)) ((-1.118943e-14 -3.528704e-14 -7.216249e-14) (3.402227e-12 -1.098641e-11 1.691481e-11))
2.240256      	((2.984960e-05 -2.005951e-09 -2.391874e-09) (5.749420e-05 -5.130921e-10 -5.688429e-10)) ((-3.570627e-14 -5.618829e-14 -5.727133e-14) (3.452900e-12 -2.757864e-12 1.013151e-11))
2.700307      	((2.760553e-05 -3.446903e-09 -3.528127e-09) (5.228798e-05 -5.654698e-10 -5.801040e-10)) ((-3.216149e-14 -1.350972e-13 -5.636501e-14) (3.644237e-12 6.688186e-12 9.522623e-13))
3.252369      	((2.563676e-05 -5.653872e-09 -5.555210e-09) (4.766675e-05 -6.098359e-10 -5.916293e-10)) ((-2.623164e-15 -1.722907e-13 -5.217499e-14) (4.096041e-12 1.540860e-11 -8.978540e-12))
3.914842      	((2.396845e-05 -8.005616e-09 -7.934593e-09) (4.356222e-05 -6.721122e-10 -6.200139e-10)) ((3.686869e-14 -2.732975e-13 -3.693046e-14) (4.042596e-12 2.676167e-11 -1.994755e-11))
4.709811      	((2.262567e-05 -9.348874e-09 -9.191861e-09) (3.993156e-05 -7.157340e-10 -6.481034e-10)) ((3.324963e-14 -3.575136e-13 -3.939860e-14) (3.878212e-12 3.652917e-11 -3.078986e-11))
5.663773      	((2.159180e-05 -8.783723e-09 -9.452070e-09) (3.673992e-05 -6.812089e-10 -6.250653e-10)) ((2.227618e-14 -3.464888e-13 -8.214954e-14) (3.752258e-12 3.686903e-11 -3.641244e-11))
6.808528      	((2.089430e-05 -1.118418e-08 -1.119211e-08) (3.394740e-05 -6.479837e-10 -5.948144e-10)) ((4.416613e-14 -3.966848e-13 -8.946927e-14) (3.438295e-12 2.929290e-11 -3.423006e-11))
8.182233      	((2.055733e-05 -1.044791e-08 -1.083842e-08) (3.151049e-05 -6.071518e-10 -5.677711e-10)) ((4.950949e-14 -3.814925e-13 -1.054562e-13) (3.220631e-12 1.870123e-11 -2.405552e-11))
9.83068       	((2.057245e-05 -1.245378e-08 -1.246723e-08) (2.939029e-05 -6.665640e-10 -6.466517e-10)) ((8.150843e-14 -4.034966e-13 -1.018234e-13) (2.876293e-12 7.774820e-12 -1.217497e-11))
11.808816     	((2.093532e-05 -1.249881e-08 -1.190319e-08) (2.755714e-05 -8.352551e-10 -7.896192e-10)) ((9.382590e-14 -3.896979e-13 -1.052495e-13) (2.531720e-12 -6.978946e-13 -3.469310e-12))
14.182579     	((2.162621e-05 -1.019036e-08 -1.093039e-08) (2.598700e-05 -9.252331e-10 -8.835331e-10)) ((6.757626e-14 -3.109999e-13 -1.504171e-13) (1.699883e-12 -7.120825e-12 1.521093e-12))
17.031095     	((2.260189e-05 -6.622282e-09 -6.810851e-09) (2.466343e-05 -9.092263e-10 -9.070310e-10)) ((7.077705e-14 -2.650376e-13 -1.616284e-13) (1.013586e-12 -7.759810e-12 3.665498e-12))
20.449314     	((2.384620e-05 -3.247997e-09 -2.991349e-09) (2.356407e-05 -7.564032e-10 -7.163110e-10)) ((5.975264e-14 -2.323909e-13 -1.713408e-13) (1.223037e-12 -9.964768e-12 4.913109e-12))
24.551176     	((2.528077e-05 2.499873e-09 2.093010e-09) (2.266841e-05 -2.887147e-10 -2.545914e-10)) ((5.698609e-14 -1.253908e-13 -1.828553e-13) (1.198058e-12 -6.550389e-12 5.750799e-12))
29.371301     	((2.678700e-05 8.529014e-09 8.088396e-09) (2.196911e-05 3.710871e-10 3.546706e-10)) ((2.584057e-14 -8.875376e-18 -1.984469e-13) (1.011561e-12 -4.250925e-12 7.525916e-12))
34.903929     	((2.822556e-05 1.592354e-08 1.578166e-08) (2.143231e-05 1.265958e-09 1.247708e-09)) ((-2.152054e-14 1.058917e-13 -2.376206e-13) (1.513731e-12 -8.260736e-12 1.083665e-11))
41.144137     	((2.947604e-05 2.109578e-08 2.070557e-08) (2.100758e-05 2.063531e-09 2.068629e-09)) ((-7.616210e-14 1.902910e-13 -2.784899e-13) (1.638569e-12 -3.347553e-12 6.069993e-12))
48.090279     	((3.051315e-05 2.762263e-08 2.726464e-08) (2.065082e-05 2.978134e-09 2.977650e-09)) ((-1.604897e-13 2.188936e-13 -3.066129e-13) (2.018153e-12 7.104843e-12 -5.711164e-12))
55.164747     	((3.134130e-05 3.445291e-08 3.404466e-08) (2.035669e-05 3.770002e-09 3.722499e-09)) ((-2.612230e-13 2.738247e-13 -3.176058e-13) (1.321757e-12 3.282871e-11 -3.134648e-11))
62.261853     	((3.178064e-05 3.939831e-08 3.940619e-08) (2.010470e-05 4.660088e-09 4.589111e-09)) ((-3.444741e-13 2.803132e-13 -3.258917e-13) (1.147330e-12 6.343191e-11 -6.015923e-11))
69.373448     	((3.194443e-05 4.338955e-08 4.361247e-08) (1.988109e-05 5.347919e-09 5.314598e-09)) ((-4.268682e-13 2.873888e-13 -3.277291e-13) (1.580222e-12 9.025556e-11 -9.001641e-11))
76.492461     	((3.194875e-05 4.546917e-08 4.587232e-08) (1.967581e-05 5.866706e-09 5.874242e-09)) ((-4.690580e-13 2.648437e-13 -3.198328e-13) (1.943928e-12 1.154145e-10 -1.150819e-10))
83.617725     	((3.185092e-05 4.853724e-08 4.920681e-08) (1.948830e-05 6.196353e-09 6.282200e-09)) ((-4.926727e-13 2.616071e-13 -3.066106e-13) (2.043613e-12 1.415513e-10 -1.456017e-10))
90.750047     	((3.170685e-05 5.079804e-08 5.181520e-08) (1.931588e-05 6.480929e-09 6.594389e-09)) ((-5.139668e-13 2.931673e-13 -2.883997e-13) (2.036975e-12 1.683561e-10 -1.732752e-10))
97.889269     	((3.153479e-05 5.490904e-08 5.600169e-08) (1.915584e-05 6.789997e-09 6.909713e-09)) ((-5.272894e-13 3.375092e-13 -2.712173e-13) (2.116913e-12 1.929398e-10 -1.969381e-10))
105.034614    	((3.138917e-05 5.868095e-08 5.958289e-08) (1.900913e-05 7.090180e-09 7.162322e-09)) ((-5.345776e-13 3.860718e-13 -2.646336e-13) (1.933559e-12 2.145609e-10 -2.185981e-10))
112.185488    	((3.128465e-05 6.350153e-08 6.441833e-08) (1.887755e-05 7.470046e-09 7.495655e-09)) ((-5.340359e-13 4.382810e-13 -2.484411e-13) (1.875020e-12 2.362034e-10 -2.381572e-10))
119.341473    	((3.119776e-05 7.026961e-08 7.106309e-08) (1.876079e-05 7.999672e-09 7.991938e-09)) ((-5.253292e-13 5.269896e-13 -2.303726e-13) (1.919677e-12 2.558459e-10 -2.568319e-10))
126.50214     	((3.110449e-05 7.653608e-08 7.763486e-08) (1.865602e-05 8.630909e-09 8.623612e-09)) ((-5.228635e-13 6.009549e-13 -2.150881e-13) (1.503419e-12 2.746762e-10 -2.744314e-10))
133.667076    	((3.102499e-05 8.275924e-08 8.387555e-08) (1.856164e-05 9.332489e-09 9.278145e-09)) ((-5.160270e-13 6.427650e-13 -1.999597e-13) (1.157300e-12 2.956606e-10 -2.929629e-10))
140.835929    	((3.095366e-05 8.962594e-08 9.027355e-08) (1.847666e-05 1.012881e-08 1.004464e-08)) ((-5.089057e-13 7.051171e-13 -1.909032e-13) (1.211757e-12 3.125768e-10 -3.100316e-10))
148.008384    	((3.088333e-05 9.632185e-08 9.715902e-08) (1.840001e-05 1.100203e-08 1.091846e-08)) ((-5.081578e-13 7.554441e-13 -1.851235e-13) (1.109981e-12 3.257278e-10 -3.217249e-10))
155.184143    	((3.080498e-05 1.048214e-07 1.055402e-07) (1.833031e-05 1.206534e-08 1.195536e-08)) ((-5.055864e-13 8.189454e-13 -1.721329e-13) (1.014165e-12 3.354218e-10 -3.297825e-10))
162.362928    	((3.072771e-05 1.128420e-07 1.136815e-07) (1.826676e-05 1.325856e-08 1.315330e-08)) ((-4.946400e-13 8.656668e-13 -1.656935e-13) (9.616583e-13 3.415797e-10 -3.352964e-10))
169.544496    	((3.065311e-05 1.227917e-07 1.231392e-07) (1.820862e-05 1.462434e-08 1.452246e-08)) ((-4.899618e-13 9.318796e-13 -1.618598e-13) (8.708005e-13 3.472222e-10 -3.403715e-10))
176.728627    	((3.057941e-05 1.325370e-07 1.332321e-07) (1.815502e-05 1.612009e-08 1.602623e-08)) ((-4.841439e-13 1.004571e-12 -1.470571e-13) (8.370539e-13 3.533977e-10 -3.455839e-10))
183.915121    	((3.051013e-05 1.415946e-07 1.418258e-07) (1.810550e-05 1.769430e-08 1.755795e-08)) ((-4.810447e-13 1.066898e-12 -1.209576e-13) (8.299684e-13 3.580389e-10 -3.497780e-10))
191.103804    	((3.044244e-05 1.512578e-07 1.522146e-07) (1.805954e-05 1.935060e-08 1.922896e-08)) ((-4.733704e-13 1.149788e-12 -8.709228e-14) (7.682284e-13 3.599055e-10 -3.521002e-10))
198.294515    	((3.037816e-05 1.614153e-07 1.621042e-07) (1.801684e-05 2.106868e-08 2.096810e-08)) ((-4.667667e-13 1.227456e-12 -6.159536e-14) (7.772520e-13 3.614054e-10 -3.545754e-10))
205.487106    	((3.031879e-05 1.712276e-07 1.721034e-07) (1.797738e-05 2.277370e-08 2.269567e-08)) ((-4.525101e-13 1.314964e-12 -4.257658e-14) (6.321560e-13 3.635856e-10 -3.582109e-10))
212.681439    	((3.026228e-05 1.837277e-07 1.846683e-07) (1.794092e-05 2.461825e-08 2.456431e-08)) ((-4.375402e-13 1.423497e-12 -2.480936e-14) (3.404728e-13 3.675922e-10 -3.632097e-10))
219.877381    	((3.020913e-05 1.967562e-07 1.974835e-07) (1.790723e-05 2.660651e-08 2.655469e-08)) ((-4.330125e-13 1.527614e-12 -4.570056e-15) (2.053299e-13 3.733961e-10 -3.695347e-10))
227.074804    	((3.015874e-05 2.113002e-07 2.120356e-07) (1.787609e-05 2.873690e-08 2.868358e-08)) ((-4.219116e-13 1.643383e-12 1.749742e-14) (1.151706e-13 3.812493e-10 -3.780910e-10))
234.273588    	((3.011143e-05 2.264410e-07 2.273860e-07) (1.784731e-05 3.097933e-08 3.094158e-08)) ((-4.085286e-13 1.755031e-12 4.285794e-14) (6.488878e-14 3.921514e-10 -3.899627e-10))
241.473617    	((3.006611e-05 2.438512e-07 2.446390e-07) (1.782068e-05 3.339206e-08 3.336306e-08)) ((-3.913068e-13 1.881893e-12 7.133816e-14) (-1.781398e-14 4.070128e-10 -4.054985e-10))
248.674785    	((3.002121e-05 2.621953e-07 2.629672e-07) (1.779590e-05 3.597102e-08 3.594697e-08)) ((-3.728957e-13 2.013061e-12 9.965962e-14) (-1.526360e-13 4.259218e-10 -4.244637e-10))
255.876988    	((2.997879e-05 2.817776e-07 2.826249e-07) (1.777282e-05 3.872297e-08 3.871490e-08)) ((-3.602116e-13 2.149563e-12 1.297617e-13) (-2.803198e-13 4.486495e-10 -4.471325e-10))
263.080127    	((2.993760e-05 3.018338e-07 3.025188e-07) (1.775131e-05 4.158338e-08 4.158493e-08)) ((-3.492188e-13 2.286580e-12 1.602362e-13) (-3.940687e-13 4.754085e-10 -4.739346e-10))
270.284106    	((2.989768e-05 3.226977e-07 3.233291e-07) (1.773118e-05 4.453084e-08 4.454647e-08)) ((-3.354059e-13 2.427514e-12 1.899764e-13) (-6.339818e-13 5.059249e-10 -5.047699e-10))
277.488838    	((2.986047e-05 3.454160e-07 3.456610e-07) (1.771233e-05 4.763654e-08 4.765661e-08)) ((-3.113539e-13 2.578152e-12 2.224064e-13) (-8.813009e-13 5.402517e-10 -5.393325e-10))
284.694239    	((2.982595e-05 3.703476e-07 3.703952e-07) (1.769474e-05 5.097069e-08 5.099321e-08)) ((-2.840370e-13 2.745096e-12 2.592161e-13) (-1.114015e-12 5.778089e-10 -5.776176e-10))
291.900222    	((2.979410e-05 3.976723e-07 3.975524e-07) (1.767838e-05 5.458450e-08 5.460269e-08)) ((-2.649324e-13 2.931360e-12 2.977936e-13) (-1.313106e-12 6.185844e-10 -6.191873e-10))
299.106696    	((2.976353e-05 4.274395e-07 4.270184e-07) (1.766309e-05 5.852913e-08 5.851534e-08)) ((-2.519415e-13 3.132380e-12 3.359494e-13) (-1.553592e-12 6.627756e-10 -6.638412e-10))
306.313569    	((2.973595e-05 4.586585e-07 4.583096e-07) (1.764882e-05 6.277597e-08 6.274226e-08)) ((-2.436893e-13 3.337665e-12 3.695808e-13) (-1.931287e-12 7.102276e-10 -7.116199e-10))
313.52075     	((2.970974e-05 4.916161e-07 4.911164e-07) (1.763551e-05 6.729011e-08 6.724890e-08)) ((-2.346489e-13 3.548947e-12 3.980898e-13) (-2.340085e-12 7.608642e-10 -7.626293e-10))
320.728149    	((2.968467e-05 5.259314e-07 5.254950e-07) (1.762301e-05 7.205961e-08 7.202691e-08)) ((-2.221937e-13 3.772526e-12 4.263967e-13) (-2.818222e-12 8.143752e-10 -8.163817e-10))
327.935683    	((2.966075e-05 5.623513e-07 5.618801e-07) (1.761123e-05 7.712652e-08 7.710351e-08)) ((-2.012798e-13 4.013779e-12 4.595860e-13) (-3.316283e-12 8.700010e-10 -8.721770e-10))
335.143272    	((2.963811e-05 6.008611e-07 6.003626e-07) (1.760010e-05 8.252615e-08 8.251104e-08)) ((-1.705022e-13 4.271993e-12 5.002103e-13) (-3.733792e-12 9.273360e-10 -9.297085e-10))
342.350841    	((2.961666e-05 6.416410e-07 6.411075e-07) (1.758956e-05 8.826761e-08 8.826299e-08)) ((-1.311574e-13 4.548339e-12 5.488082e-13) (-4.021098e-12 9.869237e-10 -9.894815e-10))
349.558316    	((2.959673e-05 6.848661e-07 6.842802e-07) (1.757959e-05 9.435866e-08 9.436515e-08)) ((-8.653484e-14 4.840434e-12 6.030415e-13) (-4.302627e-12 1.049859e-09 -1.052282e-09))
356.765625    	((2.957865e-05 7.308741e-07 7.301411e-07) (1.757020e-05 1.008269e-07 1.008222e-07)) ((-3.405971e-14 5.154108e-12 6.610961e-13) (-4.585065e-12 1.117268e-09 -1.118424e-09))
363.972699    	((2.956254e-05 7.794601e-07 7.786318e-07) (1.756139e-05 1.076657e-07 1.076387e-07)) ((2.790764e-14 5.485734e-12 7.218185e-13) (-5.024426e-12 1.189327e-09 -1.188996e-09))
371.179463    	((2.954768e-05 8.312170e-07 8.301531e-07) (1.755315e-05 1.149110e-07 1.148601e-07)) ((9.604599e-14 5.839750e-12 7.845980e-13) (-5.510819e-12 1.266266e-09 -1.264515e-09))
378.385844    	((2.953448e-05 8.858530e-07 8.847151e-07) (1.754544e-05 1.225958e-07 1.225266e-07)) ((1.639811e-13 6.211233e-12 8.492696e-13) (-5.904642e-12 1.347363e-09 -1.344565e-09))
385.591765    	((2.952260e-05 9.435414e-07 9.422697e-07) (1.753829e-05 1.307471e-07 1.306466e-07)) ((2.330006e-13 6.598116e-12 9.174586e-13) (-6.253925e-12 1.432558e-09 -1.428182e-09))
392.797148    	((2.951191e-05 1.004574e-06 1.003232e-06) (1.753167e-05 1.393927e-07 1.392626e-07)) ((3.039268e-13 7.009969e-12 9.895971e-13) (-6.632475e-12 1.521560e-09 -1.515632e-09))
400.001914    	((2.950252e-05 1.069182e-06 1.067704e-06) (1.752553e-05 1.485638e-07 1.484124e-07)) ((3.756425e-13 7.448474e-12 1.067964e-12) (-7.112120e-12 1.613901e-09 -1.607355e-09))
407.205983    	((2.949432e-05 1.137659e-06 1.136033e-06) (1.751986e-05 1.583076e-07 1.581176e-07)) ((4.478476e-13 7.911632e-12 1.149759e-12) (-7.497833e-12 1.710797e-09 -1.703495e-09))
414.409272    	((2.948728e-05 1.210346e-06 1.208587e-06) (1.751465e-05 1.686405e-07 1.684239e-07)) ((5.260305e-13 8.403643e-12 1.235776e-12) (-7.738795e-12 1.812723e-09 -1.805215e-09))
421.611694    	((2.948198e-05 1.287171e-06 1.285303e-06) (1.750994e-05 1.795684e-07 1.793563e-07)) ((6.094256e-13 8.920578e-12 1.327764e-12) (-7.891964e-12 1.920167e-09 -1.913540e-09))
428.81316     	((2.947762e-05 1.368606e-06 1.366570e-06) (1.750569e-05 1.911550e-07 1.909395e-07)) ((7.020916e-13 9.469293e-12 1.426471e-12) (-7.870110e-12 2.034110e-09 -2.027897e-09))
436.01358     	((2.947441e-05 1.454848e-06 1.452610e-06) (1.750190e-05 2.034493e-07 2.032270e-07)) ((8.034496e-13 1.004787e-11 1.530048e-12) (-7.804794e-12 2.154333e-09 -2.148601e-09))
443.212856    	((2.947237e-05 1.545779e-06 1.543365e-06) (1.749858e-05 2.164604e-07 2.162473e-07)) ((9.166391e-13 1.064948e-11 1.640960e-12) (-7.665735e-12 2.280995e-09 -2.276517e-09))
450.410892    	((2.947171e-05 1.641794e-06 1.639300e-06) (1.749571e-05 2.302219e-07 2.300367e-07)) ((1.050523e-12 1.127920e-11 1.754573e-12) (-7.512676e-12 2.414838e-09 -2.411771e-09))
