# Forces      
# CofR        : (0.000000e+00 0.000000e+00 0.000000e+00)
# Time        forces(pressure viscous)	moments(pressure viscous)
0             	((0.000000e+00 0.000000e+00 0.000000e+00) (-1.385516e-13 -6.309270e-14 2.016752e-03)) ((0.000000e+00 0.000000e+00 0.000000e+00) (3.716411e-15 7.782234e-10 4.975419e-17))
0.012         	((5.353715e-07 2.842817e-07 5.846421e-01) (8.296301e-11 -1.409431e-09 2.307057e-03)) ((1.484546e-10 1.555750e-07 1.150119e-12) (-9.724961e-12 2.190148e-09 5.876265e-14))
0.0264        	((-4.114800e-06 -4.760502e-06 -6.561243e-02) (-2.174254e-09 -5.632034e-09 2.329539e-03)) ((5.930476e-10 -1.511613e-08 -5.601637e-12) (-5.892787e-11 3.091116e-09 -5.066708e-12))
0.04368       	((6.020002e-06 4.002335e-06 -1.087230e-01) (2.572736e-09 -4.770020e-09 2.045810e-03)) ((-1.341310e-09 -2.382602e-08 -8.075256e-12) (-5.602868e-12 3.111999e-09 -8.352944e-12))
0.064416      	((-1.880060e-06 2.940299e-06 -7.478082e-04) (-2.578424e-08 9.965635e-09 1.803165e-03)) ((3.319265e-10 1.735923e-09 1.921627e-11) (2.820905e-10 3.653795e-09 -3.851904e-11))
0.0892992     	((1.702327e-06 -8.215962e-07 -2.732461e-04) (-3.668640e-08 1.729637e-08 1.659708e-03)) ((2.838312e-10 7.366123e-10 -1.934340e-11) (6.721130e-10 4.014059e-09 -8.099808e-11))
0.119159      	((-1.014029e-07 6.512609e-07 -1.699006e-03) (-3.133076e-08 1.862599e-08 1.534472e-03)) ((8.037382e-11 9.089347e-10 1.680745e-12) (8.288099e-10 3.228005e-09 -9.321882e-11))
0.154991      	((-5.832765e-07 -4.558311e-07 -3.948754e-04) (-2.307112e-08 1.630403e-08 1.409601e-03)) ((-2.190392e-13 1.227137e-09 1.053789e-11) (8.070214e-10 2.410977e-09 -8.377641e-11))
0.197989      	((-3.760613e-07 -5.819862e-07 7.330262e-05) (-6.857725e-09 9.134300e-09 1.292633e-03)) ((5.018771e-12 1.349870e-09 1.341616e-12) (7.292718e-10 2.275506e-09 -7.332835e-11))
0.249587      	((-3.940531e-07 -3.264322e-07 2.438994e-04) (1.896814e-08 5.545210e-09 1.187336e-03)) ((3.070394e-12 1.391496e-09 9.597596e-12) (5.999760e-10 2.772407e-09 -6.422663e-11))
0.311504      	((-2.065627e-07 -2.444308e-07 3.487377e-04) (4.104074e-08 3.388111e-09 1.094785e-03)) ((6.326568e-12 1.379093e-09 3.298852e-12) (4.801923e-10 3.648289e-09 -5.547631e-11))
0.385805      	((-1.119617e-07 -1.601153e-07 4.058260e-04) (5.814915e-08 1.535775e-09 1.013424e-03)) ((5.797054e-12 1.361756e-09 4.358366e-12) (4.225222e-10 4.688861e-09 -4.650682e-11))
0.474966      	((-1.688032e-08 -1.280535e-07 4.350196e-04) (6.595345e-08 1.140436e-10 9.403438e-04)) ((6.032644e-12 1.201396e-09 3.376012e-12) (3.795166e-10 5.211835e-09 -3.860183e-11))
0.581959      	((-8.363448e-08 -8.999845e-08 4.461768e-04) (4.812491e-08 -2.335348e-09 8.714141e-04)) ((6.930789e-12 1.056238e-09 1.990066e-12) (3.289853e-10 4.830920e-09 -3.031299e-11))
0.710351      	((-1.849696e-07 -8.908542e-08 4.469396e-04) (2.123911e-08 -6.134178e-09 8.043498e-04)) ((7.113300e-12 9.492823e-10 4.958752e-13) (2.697271e-10 4.105968e-09 -2.241896e-11))
0.864421      	((-1.697919e-07 -8.623008e-08 4.443583e-04) (1.703361e-09 -8.528375e-09 7.398424e-04)) ((7.847642e-12 8.842075e-10 -4.828403e-13) (2.157904e-10 3.887368e-09 -1.682035e-11))
1.049306      	((-1.694541e-07 -3.079858e-08 4.439444e-04) (3.440915e-09 -7.958403e-09 6.792535e-04)) ((8.027904e-12 8.212701e-10 -8.337512e-13) (2.573198e-10 4.266627e-09 -1.373562e-11))
1.271167      	((-1.511389e-07 -7.990736e-08 4.506794e-04) (1.093314e-08 -6.060040e-09 6.234913e-04)) ((7.820917e-12 7.453188e-10 -8.482068e-13) (4.389306e-10 4.444757e-09 -1.280839e-11))
1.5374        	((-2.354747e-07 -1.113512e-07 4.666163e-04) (1.309613e-08 -4.963351e-09 5.731523e-04)) ((7.745476e-12 6.750203e-10 -7.404828e-13) (6.878497e-10 3.845874e-09 -8.181760e-12))
1.85688       	((-3.026430e-07 -2.228401e-07 4.933496e-04) (2.107262e-08 -5.853872e-09 5.285641e-04)) ((6.609839e-12 6.355698e-10 -6.720372e-15) (9.218914e-10 2.918011e-09 -3.857617e-12))
2.240256      	((-3.875102e-07 -3.315922e-07 5.336744e-04) (1.961608e-08 -8.957242e-09 4.898257e-04)) ((8.429239e-12 6.093274e-10 4.836875e-13) (1.038355e-09 2.221732e-09 2.310296e-12))
2.700307      	((-3.921866e-07 -3.364928e-07 5.894420e-04) (6.616890e-09 -1.311934e-08 4.567963e-04)) ((8.797094e-12 5.816707e-10 1.351106e-13) (9.244568e-10 1.851076e-09 7.445597e-12))
3.239277      	((-3.908668e-07 -2.927756e-07 6.611000e-04) (-2.238718e-09 -1.675921e-08 4.295742e-04)) ((6.946051e-12 5.361608e-10 7.158462e-15) (6.930698e-10 2.030951e-09 1.027247e-11))
3.856612      	((-3.529996e-07 -2.663390e-07 7.469813e-04) (-1.165127e-08 -1.837314e-08 4.075220e-04)) ((3.436293e-12 5.026566e-10 -1.045517e-13) (5.250201e-10 2.974188e-09 1.081062e-11))
4.551717      	((-2.212376e-07 -1.520555e-07 8.452181e-04) (-2.095506e-08 -1.725843e-08 3.898296e-04)) ((1.936622e-12 4.662074e-10 -4.309441e-13) (4.247537e-10 4.342036e-09 4.352985e-12))
5.321898      	((-2.508900e-07 -7.074528e-08 9.549542e-04) (-2.407763e-08 -1.380937e-08 3.757895e-04)) ((2.283277e-12 4.218745e-10 -4.088412e-13) (3.067638e-10 6.693214e-09 -6.209340e-13))
6.083334      	((-1.421167e-07 7.615700e-08 1.065640e-03) (-2.380750e-08 -8.577394e-09 3.657869e-04)) ((-3.531108e-13 4.211633e-10 -1.384276e-13) (1.705716e-10 1.050107e-08 1.542369e-12))
6.83573       	((-5.776052e-08 1.964243e-07 1.166841e-03) (-1.290911e-08 -3.233541e-09 3.583398e-04)) ((-3.066176e-12 4.402417e-10 6.515567e-13) (1.372416e-10 1.397566e-08 1.090456e-11))
7.580204      	((3.015695e-08 1.594182e-07 1.254913e-03) (-6.180269e-09 -6.186982e-09 3.525326e-04)) ((-2.964878e-12 4.471726e-10 1.267270e-12) (4.338999e-10 1.496878e-08 6.662361e-12))
8.31967       	((1.084106e-07 2.298718e-07 1.323864e-03) (-3.873274e-09 -1.707977e-08 3.475752e-04)) ((-4.935575e-12 4.533315e-10 1.892057e-12) (1.215741e-09 1.375545e-08 -4.195946e-12))
9.057675      	((2.720653e-07 4.681556e-07 1.373894e-03) (-1.199493e-08 -2.468847e-08 3.434245e-04)) ((-1.491995e-11 4.669588e-10 2.297883e-12) (2.095981e-09 1.147449e-08 -3.398534e-12))
9.796571      	((6.620182e-07 9.326964e-07 1.399137e-03) (-2.558310e-08 -1.911896e-08 3.396659e-04)) ((-2.932336e-11 4.890044e-10 1.916431e-12) (2.747929e-09 8.625255e-09 -5.883279e-12))
10.536641     	((7.930180e-07 1.186806e-06 1.401907e-03) (-2.517611e-08 -9.057799e-09 3.360045e-04)) ((-2.904536e-11 4.991348e-10 1.406224e-12) (3.589487e-09 5.722411e-09 -1.545828e-11))
11.277073     	((4.891484e-07 1.005009e-06 1.388885e-03) (-4.158568e-08 -1.012266e-08 3.324150e-04)) ((-1.672753e-11 4.830719e-10 2.625773e-12) (4.598666e-09 3.164299e-09 -1.530535e-11))
12.017087     	((1.976850e-07 8.918303e-07 1.368379e-03) (-6.134616e-08 -1.511790e-08 3.290361e-04)) ((-3.758944e-12 4.788331e-10 3.514191e-12) (5.585625e-09 1.416151e-09 -1.192750e-11))
12.756542     	((-8.067296e-08 8.521203e-07 1.341395e-03) (-7.329182e-08 -2.230971e-08 3.260175e-04)) ((4.858606e-12 4.847933e-10 4.250148e-12) (6.488939e-09 3.592187e-10 -6.483973e-12))
13.495649     	((-4.052837e-07 5.632202e-07 1.320552e-03) (-8.330136e-08 -3.212726e-08 3.231622e-04)) ((5.800251e-12 4.748536e-10 4.627079e-12) (7.027884e-09 -3.747151e-10 -1.374289e-12))
14.234578     	((-4.183510e-07 6.332848e-07 1.309096e-03) (-8.645929e-08 -3.775385e-08 3.205387e-04)) ((-1.651214e-12 4.644806e-10 3.746431e-12) (6.881185e-09 -4.670854e-10 1.752331e-12))
14.973264     	((-4.071055e-07 6.527287e-07 1.301701e-03) (-7.822062e-08 -3.047346e-08 3.182502e-04)) ((-7.842730e-12 4.535120e-10 2.361652e-12) (6.135938e-09 2.273722e-11 1.943219e-11))
15.711581     	((-5.692858e-07 4.331285e-07 1.294979e-03) (-7.042600e-08 -1.925814e-08 3.162081e-04)) ((-1.505204e-11 4.453242e-10 2.283606e-12) (5.159686e-09 4.778130e-10 2.498772e-11))
16.449658     	((-5.526142e-07 2.510922e-07 1.287485e-03) (-6.524511e-08 -1.263775e-08 3.142914e-04)) ((-2.374949e-11 4.352086e-10 1.934452e-12) (4.268687e-09 6.795470e-10 2.599736e-11))
17.187679     	((-5.159867e-07 1.466049e-07 1.279850e-03) (-6.341751e-08 -1.064827e-08 3.124227e-04)) ((-3.014113e-11 4.231165e-10 1.809070e-12) (3.807085e-09 4.655581e-10 3.288239e-11))
17.92571      	((-5.310833e-07 2.887460e-08 1.272133e-03) (-7.156254e-08 -1.814385e-08 3.106016e-04)) ((-2.692780e-11 4.055802e-10 1.936273e-12) (3.950787e-09 -4.620294e-10 2.935476e-11))
18.663794     	((-3.770745e-07 1.060136e-07 1.264502e-03) (-7.765394e-08 -2.594917e-08 3.088534e-04)) ((-2.134998e-11 3.861568e-10 2.671505e-12) (4.223193e-09 -1.504530e-09 1.946259e-11))
19.401849     	((-2.940197e-07 7.417468e-08 1.257703e-03) (-7.767762e-08 -2.780476e-08 3.071925e-04)) ((-1.373075e-11 3.679730e-10 3.318412e-12) (4.128756e-09 -2.014422e-09 1.794056e-11))
20.139901     	((-3.618809e-07 -3.873582e-08 1.250814e-03) (-7.682894e-08 -2.909591e-08 3.055886e-04)) ((-9.012204e-12 3.538819e-10 3.503931e-12) (3.852722e-09 -2.123305e-09 2.561992e-11))
20.878091     	((-2.858869e-07 -5.176002e-08 1.244421e-03) (-7.108951e-08 -2.907943e-08 3.040236e-04)) ((-8.539259e-12 3.456537e-10 3.547822e-12) (3.530198e-09 -1.956581e-09 3.097593e-11))
21.616469     	((-2.515229e-07 -2.775991e-08 1.238144e-03) (-6.319817e-08 -2.927351e-08 3.025074e-04)) ((-9.535946e-12 3.386762e-10 3.747171e-12) (3.337676e-09 -1.811832e-09 2.665701e-11))
22.355038     	((-2.417337e-07 -1.030672e-07 1.232939e-03) (-5.948020e-08 -3.408600e-08 3.010787e-04)) ((-9.919225e-12 3.322537e-10 3.863950e-12) (3.471889e-09 -2.041338e-09 1.445093e-11))
23.093863     	((-5.883094e-07 -3.670897e-07 1.227729e-03) (-5.811678e-08 -4.008172e-08 2.997475e-04)) ((-9.299388e-12 3.230949e-10 4.072678e-12) (3.471671e-09 -2.091085e-09 -2.010268e-14))
23.832993     	((-7.407333e-07 -7.014405e-07 1.223799e-03) (-5.721074e-08 -5.072134e-08 2.985213e-04)) ((-6.837913e-12 3.136121e-10 3.837361e-12) (3.419988e-09 -1.924598e-09 -2.086120e-12))
24.572471     	((-1.134551e-06 -1.079252e-06 1.219781e-03) (-6.151273e-08 -6.826031e-08 2.973874e-04)) ((-5.031083e-12 3.041378e-10 3.969371e-12) (3.497900e-09 -1.783322e-09 2.439657e-13))
25.312348     	((-1.452373e-06 -1.460850e-06 1.215294e-03) (-7.107820e-08 -8.958117e-08 2.963129e-04)) ((-4.148153e-12 2.953174e-10 4.252208e-12) (3.522045e-09 -1.591577e-09 3.278223e-12))
26.052719     	((-1.767494e-06 -1.823647e-06 1.211093e-03) (-8.229660e-08 -1.096379e-07 2.952944e-04)) ((-2.172622e-12 2.856553e-10 4.573265e-12) (3.267416e-09 -1.201405e-09 1.445888e-11))
26.793722     	((-2.138174e-06 -2.344139e-06 1.205618e-03) (-9.593530e-08 -1.317256e-07 2.942949e-04)) ((2.633039e-12 2.734282e-10 4.470877e-12) (2.795321e-09 -6.012544e-10 2.135807e-11))
27.53541      	((-2.525872e-06 -2.770497e-06 1.201697e-03) (-1.132705e-07 -1.564094e-07 2.933286e-04)) ((6.198468e-12 2.609955e-10 4.456607e-12) (2.378530e-09 -2.600223e-11 1.623358e-11))
28.277507     	((-2.710479e-06 -3.079329e-06 1.197098e-03) (-1.309680e-07 -1.810551e-07 2.923893e-04)) ((9.079410e-12 2.515197e-10 4.464931e-12) (2.148318e-09 3.307312e-10 1.463649e-11))
29.019724     	((-3.003665e-06 -3.477638e-06 1.192766e-03) (-1.488330e-07 -2.068285e-07 2.914596e-04)) ((1.285249e-11 2.407633e-10 4.619465e-12) (1.971617e-09 6.135470e-10 1.504921e-11))
29.76205      	((-3.340590e-06 -4.001250e-06 1.188246e-03) (-1.695050e-07 -2.356138e-07 2.905385e-04)) ((1.686216e-11 2.301626e-10 5.463758e-12) (1.662073e-09 9.297593e-10 1.331925e-11))
30.504519     	((-3.671832e-06 -4.446412e-06 1.185179e-03) (-1.911774e-07 -2.641141e-07 2.896576e-04)) ((2.007702e-11 2.207042e-10 6.472230e-12) (1.166045e-09 1.331870e-09 1.085834e-11))
31.247153     	((-4.017092e-06 -4.949154e-06 1.181966e-03) (-2.131275e-07 -2.934749e-07 2.888289e-04)) ((2.336506e-11 2.116146e-10 7.217267e-12) (5.792698e-10 1.744810e-09 9.947952e-12))
31.989974     	((-4.264978e-06 -5.459614e-06 1.179151e-03) (-2.331183e-07 -3.252251e-07 2.880516e-04)) ((2.586039e-11 2.056285e-10 7.977714e-12) (-6.034799e-11 2.169863e-09 1.679298e-11))
32.733019     	((-4.544874e-06 -6.012310e-06 1.175582e-03) (-2.524327e-07 -3.580693e-07 2.873117e-04)) ((2.896972e-11 1.997348e-10 8.359296e-12) (-7.049362e-10 2.562099e-09 2.602767e-11))
33.476272     	((-4.869131e-06 -6.675604e-06 1.171837e-03) (-2.751399e-07 -3.960247e-07 2.865921e-04)) ((3.302167e-11 1.937926e-10 8.520014e-12) (-1.225994e-09 2.815953e-09 2.638640e-11))
34.219786     	((-5.188465e-06 -7.418764e-06 1.168331e-03) (-3.014408e-07 -4.409221e-07 2.858863e-04)) ((3.815189e-11 1.877652e-10 8.627530e-12) (-1.610943e-09 2.890320e-09 2.080377e-11))
34.963599     	((-5.551956e-06 -8.201060e-06 1.164635e-03) (-3.308736e-07 -4.908371e-07 2.851807e-04)) ((4.284975e-11 1.815290e-10 8.702066e-12) (-1.971755e-09 2.865698e-09 1.433884e-11))
35.707722     	((-6.027157e-06 -9.142296e-06 1.160888e-03) (-3.643730e-07 -5.461709e-07 2.844751e-04)) ((4.969203e-11 1.723250e-10 8.866527e-12) (-2.385894e-09 2.810695e-09 1.274364e-11))
36.452168     	((-6.633096e-06 -1.025944e-05 1.157006e-03) (-4.039906e-07 -6.091743e-07 2.837798e-04)) ((5.905898e-11 1.604239e-10 9.019857e-12) (-2.849490e-09 2.760870e-09 1.106073e-11))
37.196946     	((-7.301665e-06 -1.152251e-05 1.152838e-03) (-4.502059e-07 -6.827118e-07 2.830987e-04)) ((6.883687e-11 1.482639e-10 9.095229e-12) (-3.304498e-09 2.737489e-09 5.534857e-12))
37.942055     	((-7.994531e-06 -1.282976e-05 1.149382e-03) (-5.010653e-07 -7.650999e-07 2.824467e-04)) ((7.694951e-11 1.373918e-10 8.989235e-12) (-3.778250e-09 2.745113e-09 1.377102e-12))
38.687488     	((-8.680340e-06 -1.413436e-05 1.146830e-03) (-5.545232e-07 -8.526614e-07 2.818402e-04)) ((8.459158e-11 1.282008e-10 8.640319e-12) (-4.363302e-09 2.836078e-09 -1.509199e-12))
39.433235     	((-9.386483e-06 -1.551811e-05 1.144678e-03) (-6.090617e-07 -9.446183e-07 2.812788e-04)) ((9.109837e-11 1.204335e-10 8.284315e-12) (-5.125269e-09 3.076790e-09 -4.888371e-12))
40.1793       	((-1.005139e-05 -1.674140e-05 1.142425e-03) (-6.623041e-07 -1.036595e-06 2.807493e-04)) ((9.649878e-11 1.140528e-10 8.300619e-12) (-6.024077e-09 3.456038e-09 -9.798974e-12))
40.9257       	((-1.082779e-05 -1.807562e-05 1.139749e-03) (-7.167122e-07 -1.129749e-06 2.802330e-04)) ((1.021861e-10 1.076936e-10 8.625195e-12) (-6.995951e-09 3.930468e-09 -1.019250e-11))
41.67244      	((-1.180645e-05 -1.968430e-05 1.136858e-03) (-7.766638e-07 -1.231599e-06 2.797174e-04)) ((1.096216e-10 1.008134e-10 8.665162e-12) (-8.078606e-09 4.509995e-09 3.868336e-12))
42.419517     	((-1.294012e-05 -2.149127e-05 1.134033e-03) (-8.438159e-07 -1.343808e-06 2.792018e-04)) ((1.169279e-10 9.370403e-11 8.914771e-12) (-9.307042e-09 5.236633e-09 2.397801e-11))
43.166923     	((-1.425201e-05 -2.347486e-05 1.131487e-03) (-9.197321e-07 -1.465917e-06 2.786931e-04)) ((1.247389e-10 8.560748e-11 9.054892e-12) (-1.071346e-08 6.104078e-09 4.211712e-11))
43.914644     	((-1.570218e-05 -2.563848e-05 1.129177e-03) (-1.004209e-06 -1.598831e-06 2.781982e-04)) ((1.337307e-10 7.698462e-11 9.055165e-12) (-1.228369e-08 7.110155e-09 5.174622e-11))
44.662661     	((-1.722070e-05 -2.788201e-05 1.127145e-03) (-1.095924e-06 -1.741453e-06 2.777218e-04)) ((1.429275e-10 6.933205e-11 8.918352e-12) (-1.399056e-08 8.243343e-09 5.101474e-11))
45.410961     	((-1.882105e-05 -3.024593e-05 1.125242e-03) (-1.194146e-06 -1.892773e-06 2.772644e-04)) ((1.527024e-10 6.133747e-11 9.011555e-12) (-1.584131e-08 9.487726e-09 4.371772e-11))
46.159532     	((-2.058861e-05 -3.274799e-05 1.123331e-03) (-1.299884e-06 -2.053036e-06 2.768226e-04)) ((1.630817e-10 5.300961e-11 8.871273e-12) (-1.784476e-08 1.085505e-08 3.616098e-11))
46.908344     	((-2.245322e-05 -3.537088e-05 1.121523e-03) (-1.413712e-06 -2.222186e-06 2.763953e-04)) ((1.733101e-10 4.562908e-11 8.508312e-12) (-2.000334e-08 1.236193e-08 2.907962e-11))
47.657369     	((-2.447695e-05 -3.818331e-05 1.119758e-03) (-1.535414e-06 -2.401445e-06 2.759821e-04)) ((1.850992e-10 3.832315e-11 8.350227e-12) (-2.230689e-08 1.405521e-08 1.661482e-11))
48.406593     	((-2.659530e-05 -4.127199e-05 1.117989e-03) (-1.664177e-06 -2.594261e-06 2.755800e-04)) ((1.986500e-10 3.186239e-11 8.189667e-12) (-2.475722e-08 1.598133e-08 -5.819251e-12))
49.15601      	((-2.891363e-05 -4.459120e-05 1.116242e-03) (-1.801977e-06 -2.802775e-06 2.751879e-04)) ((2.137791e-10 2.397911e-11 8.010243e-12) (-2.736516e-08 1.809152e-08 -3.875805e-11))
49.905605     	((-3.131941e-05 -4.813231e-05 1.114640e-03) (-1.949601e-06 -3.027122e-06 2.748080e-04)) ((2.300937e-10 1.604623e-11 8.120079e-12) (-3.013987e-08 2.031018e-08 -6.553838e-11))
50.655356     	((-3.385902e-05 -5.194983e-05 1.113064e-03) (-2.107895e-06 -3.268586e-06 2.744405e-04)) ((2.480633e-10 7.101464e-12 8.393347e-12) (-3.306618e-08 2.259089e-08 -7.915988e-11))
51.40524      	((-3.647686e-05 -5.608187e-05 1.111623e-03) (-2.277132e-06 -3.529779e-06 2.740865e-04)) ((2.681861e-10 -2.280228e-12 8.735518e-12) (-3.613309e-08 2.489950e-08 -8.973827e-11))
52.155231     	((-3.924734e-05 -6.062612e-05 1.110289e-03) (-2.458829e-06 -3.815481e-06 2.737480e-04)) ((2.914500e-10 -1.256862e-11 9.267840e-12) (-3.929809e-08 2.719164e-08 -1.110071e-10))
52.905308     	((-4.217081e-05 -6.557505e-05 1.109082e-03) (-2.654987e-06 -4.129437e-06 2.734277e-04)) ((3.176739e-10 -2.466367e-11 1.008096e-11) (-4.252937e-08 2.940032e-08 -1.288595e-10))
53.655444     	((-4.533262e-05 -7.095413e-05 1.107975e-03) (-2.867886e-06 -4.474067e-06 2.731264e-04)) ((3.471957e-10 -3.955248e-11 1.095055e-11) (-4.585018e-08 3.148949e-08 -1.288723e-10))
54.405616     	((-4.875957e-05 -7.682775e-05 1.106911e-03) (-3.100412e-06 -4.851941e-06 2.728428e-04)) ((3.800996e-10 -5.808200e-11 1.188391e-11) (-4.927572e-08 3.346474e-08 -1.113349e-10))
55.155799     	((-5.248808e-05 -8.316723e-05 1.105951e-03) (-3.354041e-06 -5.264009e-06 2.725762e-04)) ((4.143955e-10 -8.022883e-11 1.288452e-11) (-5.291329e-08 3.538425e-08 -7.794554e-11))
55.905968     	((-5.657033e-05 -9.011505e-05 1.105009e-03) (-3.630297e-06 -5.712565e-06 2.723246e-04)) ((4.515847e-10 -1.054425e-10 1.412258e-11) (-5.685261e-08 3.728544e-08 -3.337038e-11))
56.656092     	((-6.106226e-05 -9.769645e-05 1.104156e-03) (-3.932507e-06 -6.201383e-06 2.720858e-04)) ((4.925654e-10 -1.325781e-10 1.522671e-11) (-6.113817e-08 3.925271e-08 2.643804e-11))
57.40614      	((-6.597116e-05 -1.059324e-04 1.103408e-03) (-4.262792e-06 -6.733486e-06 2.718600e-04)) ((5.366973e-10 -1.616073e-10 1.671853e-11) (-6.574768e-08 4.138792e-08 1.062081e-10))
58.156076     	((-7.146613e-05 -1.149588e-04 1.102719e-03) (-4.625635e-06 -7.313642e-06 2.716483e-04)) ((5.852247e-10 -1.945049e-10 1.891511e-11) (-7.066727e-08 4.370525e-08 2.114688e-10))
58.905858     	((-7.739248e-05 -1.248079e-04 1.102204e-03) (-5.022556e-06 -7.947923e-06 2.714543e-04)) ((6.384383e-10 -2.291532e-10 2.126000e-11) (-7.586352e-08 4.617939e-08 3.382675e-10))
59.655446     	((-8.390145e-05 -1.354912e-04 1.101933e-03) (-5.455348e-06 -8.642235e-06 2.712855e-04)) ((6.956066e-10 -2.665603e-10 2.323626e-11) (-8.115799e-08 4.881022e-08 4.829487e-10))
60.404797     	((-9.105349e-05 -1.471273e-04 1.101844e-03) (-5.928875e-06 -9.401620e-06 2.711425e-04)) ((7.594302e-10 -3.077155e-10 2.636569e-11) (-8.662472e-08 5.164595e-08 6.487981e-10))
61.153859     	((-9.892268e-05 -1.598594e-04 1.101917e-03) (-6.445860e-06 -1.023439e-05 2.710258e-04)) ((8.324341e-10 -3.531486e-10 3.027910e-11) (-9.225150e-08 5.481070e-08 7.728381e-10))
61.902582     	((-1.075963e-04 -1.737915e-04 1.102273e-03) (-7.011769e-06 -1.114906e-05 2.709379e-04)) ((9.131137e-10 -4.029536e-10 3.432898e-11) (-9.814913e-08 5.837867e-08 9.137765e-10))
62.650906     	((-1.171298e-04 -1.889134e-04 1.102912e-03) (-7.632096e-06 -1.215258e-05 2.708776e-04)) ((9.997087e-10 -4.562627e-10 3.714024e-11) (-1.044165e-07 6.242972e-08 1.056994e-09))
63.398762     	((-1.276236e-04 -2.055237e-04 1.103846e-03) (-8.313383e-06 -1.325629e-05 2.708422e-04)) ((1.093399e-09 -5.125036e-10 3.878178e-11) (-1.110539e-07 6.698930e-08 1.181524e-09))
64.146079     	((-1.388511e-04 -2.235726e-04 1.105386e-03) (-9.058632e-06 -1.446877e-05 2.708340e-04)) ((1.193314e-09 -5.714817e-10 4.016891e-11) (-1.181370e-07 7.195680e-08 1.308785e-09))
64.892803     	((-1.511970e-04 -2.430635e-04 1.107580e-03) (-9.871732e-06 -1.579166e-05 2.708583e-04)) ((1.296732e-09 -6.356823e-10 4.097695e-11) (-1.258930e-07 7.736758e-08 1.308084e-09))
65.638873     	((-1.647624e-04 -2.643831e-04 1.110342e-03) (-1.076534e-05 -1.723399e-05 2.709180e-04)) ((1.406553e-09 -7.033882e-10 4.267997e-11) (-1.345448e-07 8.327132e-08 1.201610e-09))
66.38422      	((-1.795640e-04 -2.874994e-04 1.113814e-03) (-1.175017e-05 -1.880635e-05 2.710180e-04)) ((1.523816e-09 -7.727469e-10 4.227719e-11) (-1.441969e-07 8.970167e-08 1.078303e-09))
67.128786     	((-1.955415e-04 -3.123260e-04 1.118272e-03) (-1.282562e-05 -2.050975e-05 2.711639e-04)) ((1.645918e-09 -8.446753e-10 4.056499e-11) (-1.550197e-07 9.699441e-08 1.028992e-09))
67.872523     	((-2.129858e-04 -3.389893e-04 1.123723e-03) (-1.399328e-05 -2.234489e-05 2.713644e-04)) ((1.778467e-09 -9.225984e-10 3.987846e-11) (-1.672648e-07 1.054776e-07 1.003008e-09))
68.615376     	((-2.318623e-04 -3.679178e-04 1.130261e-03) (-1.525464e-05 -2.431998e-05 2.716292e-04)) ((1.921870e-09 -1.002635e-09 4.018289e-11) (-1.812137e-07 1.155077e-07 9.511748e-10))
69.357287     	((-2.520283e-04 -3.991183e-04 1.138010e-03) (-1.661741e-05 -2.645236e-05 2.719741e-04)) ((2.064531e-09 -1.078753e-09 4.066315e-11) (-1.966091e-07 1.269647e-07 1.012923e-09))
70.098206     	((-2.734238e-04 -4.324634e-04 1.147608e-03) (-1.809199e-05 -2.875705e-05 2.724298e-04)) ((2.198714e-09 -1.146041e-09 3.897366e-11) (-2.127903e-07 1.391130e-07 1.031828e-09))
70.838099     	((-2.962775e-04 -4.680324e-04 1.159198e-03) (-1.968826e-05 -3.125239e-05 2.730260e-04)) ((2.325075e-09 -1.210123e-09 3.665080e-11) (-2.291046e-07 1.512624e-07 8.344357e-10))
71.576961     	((-3.207674e-04 -5.061370e-04 1.172813e-03) (-2.141077e-05 -3.395039e-05 2.737617e-04)) ((2.459351e-09 -1.280631e-09 3.476637e-11) (-2.462586e-07 1.639467e-07 3.706894e-10))
