# Forces      
# CofR        : (0.000000e+00 0.000000e+00 0.000000e+00)
# Time        forces(pressure viscous)	moments(pressure viscous)
0             	((0.000000e+00 0.000000e+00 0.000000e+00) (-4.564156e-13 3.217245e-03 1.190602e-14)) ((0.000000e+00 0.000000e+00 0.000000e+00) (1.486282e-14 7.142436e-16 -1.171464e-09))
0.012         	((1.550915e-06 9.288683e-01 1.328415e-06) (3.368597e-09 3.682615e-03 -2.244218e-09)) ((1.071267e-10 1.464713e-11 -1.715538e-07) (8.199798e-12 8.213364e-13 -1.501928e-09))
0.0264        	((-2.141490e-05 -1.251635e-01 -1.623007e-05) (1.366503e-08 3.701658e-03 -1.318678e-08)) ((1.443460e-09 4.171326e-11 9.307080e-09) (2.386505e-10 -3.863690e-12 3.343113e-10))
0.04368       	((3.024172e-05 -1.606868e-01 7.864392e-06) (2.838081e-08 3.229411e-03 -1.377665e-08)) ((-1.169281e-09 1.874439e-11 5.263920e-08) (1.770197e-10 -1.240005e-11 2.770212e-09))
0.064416      	((-2.116615e-06 -5.912468e-04 1.011676e-06) (-8.925322e-10 2.843536e-03 -1.240548e-08)) ((3.584909e-11 3.943863e-11 -9.405375e-09) (-1.956261e-10 -1.624862e-11 2.513349e-09))
0.0892992     	((-5.060468e-06 -1.041310e-03 2.430343e-06) (-2.377501e-08 2.615933e-03 -1.421653e-08)) ((3.198905e-11 -1.136038e-10 1.331955e-10) (-2.839371e-10 4.741841e-12 2.296108e-09))
0.119159      	((-1.371419e-06 -2.015961e-03 -4.731141e-07) (-1.461099e-07 2.422196e-03 -1.247768e-08)) ((5.052626e-11 3.969846e-12 6.670938e-10) (6.374778e-11 2.233006e-11 2.480116e-09))
0.154991      	((-4.862298e-06 -2.122582e-04 -2.761791e-06) (-3.350791e-07 2.235696e-03 -1.062709e-08)) ((1.471577e-10 -3.203687e-11 3.535816e-11) (4.062736e-10 2.438976e-11 4.243823e-09))
0.197989      	((-2.962093e-06 3.411826e-04 -1.449433e-06) (-4.928033e-07 2.065848e-03 -1.087648e-08)) ((1.401121e-10 -2.860480e-11 -3.383932e-10) (5.273789e-10 4.120938e-11 5.374523e-09))
0.249587      	((-3.052088e-06 5.780260e-04 -8.710849e-07) (-6.187780e-07 1.917147e-03 -1.249052e-08)) ((9.731950e-11 -2.203906e-11 -5.144466e-11) (6.014496e-10 6.362558e-11 5.545954e-09))
0.311504      	((-2.261528e-06 7.345083e-04 -6.790170e-07) (-6.489945e-07 1.787961e-03 -1.367461e-08)) ((3.666187e-11 9.171965e-13 -2.202659e-10) (6.024699e-10 8.157629e-11 5.824154e-09))
0.385805      	((-1.788574e-06 8.233816e-04 -3.351337e-07) (-5.480450e-07 1.672947e-03 -1.749566e-08)) ((1.655560e-11 -2.148760e-12 -3.612421e-10) (5.056613e-10 8.200193e-11 7.276602e-09))
0.474966      	((-7.934877e-07 8.715900e-04 -2.134489e-07) (-4.160212e-07 1.565135e-03 -2.028508e-08)) ((-8.693216e-12 4.549109e-12 -5.480185e-10) (3.725964e-10 5.888309e-11 9.543919e-09))
0.581959      	((-7.149469e-07 9.003112e-04 -9.350717e-08) (-3.467553e-07 1.459873e-03 -2.024593e-08)) ((-2.869227e-11 1.219156e-13 -7.383305e-10) (2.644095e-10 3.922528e-11 1.101623e-08))
0.710351      	((-5.517362e-07 9.273962e-04 -5.517659e-08) (-3.207665e-07 1.357541e-03 -2.129191e-08)) ((-3.415172e-11 7.245369e-13 -9.058835e-10) (6.406031e-11 3.680071e-11 1.184061e-08))
0.864421      	((-4.655899e-07 9.655299e-04 -7.296783e-08) (-2.984020e-07 1.260596e-03 -2.064426e-08)) ((-3.052811e-11 3.048309e-13 -1.093973e-09) (-3.057117e-10 4.615710e-11 1.229399e-08))
1.049306      	((-2.647155e-07 1.026344e-03 -2.252355e-07) (-2.470528e-07 1.170930e-03 -1.519731e-08)) ((-2.225567e-11 -4.046461e-13 -1.459352e-09) (-8.223817e-10 5.800398e-11 1.291259e-08))
1.271167      	((-1.663221e-07 1.113472e-03 -3.377015e-07) (-1.654540e-07 1.089522e-03 -7.735341e-09)) ((-5.169212e-12 9.294474e-14 -1.770664e-09) (-1.411012e-09 5.128541e-11 1.405258e-08))
1.5374        	((-2.190480e-08 1.234389e-03 -5.265169e-07) (-6.339779e-08 1.017114e-03 -9.390470e-09)) ((6.136026e-12 4.010998e-13 -2.166698e-09) (-1.848699e-09 4.304725e-11 1.611082e-08))
1.85362       	((2.504054e-07 1.395427e-03 -6.175257e-07) (3.293824e-08 9.545451e-04 -1.848561e-08)) ((1.092017e-11 6.348688e-13 -2.667088e-09) (-1.841221e-09 3.584823e-11 1.892141e-08))
2.219404      	((4.423299e-07 1.596931e-03 -6.921395e-07) (1.031339e-07 9.022966e-04 -2.805226e-08)) ((8.508368e-12 1.152780e-12 -3.280830e-09) (-1.450626e-09 2.534735e-11 2.367388e-08))
2.63437       	((8.587240e-07 1.837163e-03 -4.649699e-07) (1.100626e-07 8.592413e-04 -2.964239e-08)) ((-2.631642e-14 2.303366e-12 -4.029989e-09) (-1.016016e-09 1.583411e-11 2.879002e-08))
3.098043      	((1.042760e-06 2.113244e-03 -3.040286e-07) (6.573430e-08 8.239089e-04 -2.462445e-08)) ((-6.743405e-12 2.134073e-12 -4.920138e-09) (-7.159286e-10 2.312370e-12 3.227038e-08))
3.579198      	((1.353353e-06 2.406348e-03 2.642688e-08) (7.853193e-08 7.964498e-04 -1.834430e-08)) ((-1.341354e-11 4.447418e-12 -5.748205e-09) (-6.379789e-10 -2.879477e-11 3.419380e-08))
4.053626      	((1.775646e-06 2.690209e-03 2.745619e-07) (1.095014e-07 7.753306e-04 -1.164339e-09)) ((-1.178346e-11 3.802179e-12 -6.354567e-09) (-5.480342e-11 -2.539488e-11 3.342469e-08))
4.521297      	((2.141430e-06 2.952149e-03 4.805978e-07) (7.946284e-08 7.589429e-04 5.653552e-09)) ((-7.644742e-12 4.862229e-12 -6.943298e-09) (-1.873037e-10 -3.910903e-13 3.143263e-08))
4.983602      	((2.119980e-06 3.168437e-03 3.464436e-07) (4.969955e-08 7.464080e-04 -1.312482e-08)) ((-1.498029e-11 2.754381e-12 -7.666177e-09) (-1.639522e-09 1.590928e-11 3.037309e-08))
5.443066      	((2.251940e-06 3.323738e-03 4.077418e-07) (-5.989675e-09 7.364925e-04 -5.035603e-08)) ((-1.681415e-11 -1.647021e-12 -8.403607e-09) (-4.067391e-09 3.380166e-11 3.096965e-08))
5.901776      	((2.883238e-06 3.419372e-03 6.833081e-07) (-4.433374e-08 7.276688e-04 -7.214092e-08)) ((-1.241298e-11 -1.258616e-11 -9.138937e-09) (-5.518012e-09 6.143087e-11 3.129370e-08))
6.360253      	((4.660856e-06 3.453915e-03 2.120437e-06) (-1.492132e-08 7.191447e-04 -6.414919e-08)) ((-1.367958e-11 -1.906727e-11 -9.715326e-09) (-6.746640e-09 3.484770e-11 3.168941e-08))
6.817809      	((5.585500e-06 3.424769e-03 2.319758e-06) (1.116675e-08 7.107886e-04 -4.619137e-08)) ((1.482859e-11 -1.410165e-11 -1.013494e-08) (-8.197914e-09 -1.056555e-11 3.495526e-08))
7.273633      	((5.521272e-06 3.366013e-03 1.829719e-06) (6.372816e-08 7.028194e-04 -4.489377e-08)) ((4.502849e-11 -1.866573e-11 -1.019418e-08) (-9.933123e-09 -1.163053e-11 3.708738e-08))
7.727447      	((4.888146e-06 3.304638e-03 1.136856e-06) (1.178733e-07 6.958380e-04 -5.551589e-08)) ((5.845181e-11 -2.450823e-11 -9.992654e-09) (-1.128578e-08 1.311148e-11 3.763292e-08))
8.179421      	((5.027547e-06 3.237172e-03 1.089062e-06) (1.299949e-07 6.898293e-04 -7.277146e-08)) ((1.530048e-11 -1.317712e-11 -9.651868e-09) (-1.254709e-08 3.699813e-11 3.789157e-08))
8.629931      	((5.361069e-06 3.199352e-03 1.266298e-06) (1.414242e-07 6.846850e-04 -8.782704e-08)) ((-2.611382e-11 4.516183e-12 -9.424637e-09) (-1.320507e-08 4.404562e-11 3.701487e-08))
9.079283      	((5.229353e-06 3.190154e-03 7.969891e-07) (1.903450e-07 6.803458e-04 -8.028096e-08)) ((-3.762662e-11 2.182293e-11 -9.346170e-09) (-1.201628e-08 1.194469e-10 3.380536e-08))
9.527617      	((5.283758e-06 3.187533e-03 5.740849e-07) (2.525830e-07 6.765232e-04 -5.384652e-08)) ((-4.725644e-11 3.025662e-11 -9.375992e-09) (-9.612928e-09 1.186311e-10 2.923670e-08))
9.975001      	((5.572863e-06 3.175333e-03 4.848292e-07) (2.814306e-07 6.728065e-04 -3.347537e-08)) ((-4.972413e-11 2.657544e-11 -9.446348e-09) (-8.468718e-09 1.095753e-10 2.689363e-08))
10.421496     	((6.174922e-06 3.155586e-03 5.827653e-07) (2.848765e-07 6.690878e-04 -2.996943e-08)) ((-3.680589e-11 2.457135e-11 -9.467785e-09) (-8.846843e-09 2.091538e-10 2.625971e-08))
10.867209     	((7.327353e-06 3.125499e-03 7.266892e-07) (3.009717e-07 6.653781e-04 -2.511822e-08)) ((-1.997060e-11 2.044420e-11 -9.414902e-09) (-9.144837e-09 2.686442e-10 2.613470e-08))
11.312248     	((8.136553e-06 3.093021e-03 5.318502e-07) (3.249236e-07 6.616808e-04 -1.928799e-08)) ((-9.393974e-12 1.927885e-11 -9.322082e-09) (-9.046716e-09 2.446692e-10 2.690775e-08))
11.756693     	((8.932894e-06 3.059682e-03 4.420704e-07) (3.455230e-07 6.580697e-04 -1.821019e-08)) ((-1.256887e-11 1.990447e-11 -9.211764e-09) (-9.047343e-09 1.834772e-10 2.812680e-08))
12.200593     	((9.836379e-06 3.033331e-03 4.122623e-07) (3.662723e-07 6.546740e-04 -2.084828e-08)) ((-2.338768e-11 2.420123e-11 -9.110080e-09) (-9.402311e-09 9.203465e-11 2.897010e-08))
12.643986     	((1.100916e-05 3.012446e-03 2.501940e-07) (3.980233e-07 6.515314e-04 -2.959723e-08)) ((-3.146601e-11 2.751181e-11 -9.031629e-09) (-9.656624e-09 1.845989e-11 2.911622e-08))
13.086918     	((1.197241e-05 2.998980e-03 -3.326558e-07) (4.397090e-07 6.486093e-04 -4.750914e-08)) ((-2.773921e-11 3.211567e-11 -8.980619e-09) (-9.253917e-09 -7.303163e-12 2.889308e-08))
13.529447     	((1.303586e-05 2.989397e-03 -6.086436e-07) (4.884654e-07 6.458354e-04 -6.191813e-08)) ((-2.085645e-11 3.581629e-11 -8.951685e-09) (-8.294017e-09 -2.108307e-11 2.881180e-08))
13.971612     	((1.380307e-05 2.980464e-03 -8.563425e-07) (5.356571e-07 6.431301e-04 -7.297175e-08)) ((-1.170811e-11 3.536261e-11 -8.935187e-09) (-7.682739e-09 -6.118807e-11 2.911289e-08))
14.413417     	((1.509491e-05 2.971256e-03 -9.520658e-07) (5.899099e-07 6.404954e-04 -8.715394e-08)) ((2.228447e-12 3.647291e-11 -8.919795e-09) (-7.666131e-09 -1.248722e-10 2.946474e-08))
14.854876     	((1.566954e-05 2.959822e-03 -1.428441e-06) (6.459565e-07 6.379578e-04 -1.090305e-07)) ((2.554195e-11 3.616062e-11 -8.903391e-09) (-8.021836e-09 -1.409284e-10 2.992285e-08))
15.295975     	((1.601109e-05 2.947439e-03 -2.154998e-06) (6.927251e-07 6.355371e-04 -1.347524e-07)) ((4.457252e-11 3.687990e-11 -8.876280e-09) (-8.450534e-09 -1.134048e-10 3.030723e-08))
15.736718     	((1.736986e-05 2.935337e-03 -2.864208e-06) (7.503324e-07 6.332653e-04 -1.609177e-07)) ((5.199961e-11 3.910382e-11 -8.842919e-09) (-8.689093e-09 -7.598579e-11 3.015323e-08))
16.177171     	((1.818112e-05 2.922763e-03 -3.679795e-06) (8.219241e-07 6.311620e-04 -1.889856e-07)) ((5.197660e-11 4.146622e-11 -8.807313e-09) (-8.655505e-09 -2.548401e-11 2.932040e-08))
16.617378     	((1.940478e-05 2.911494e-03 -4.475887e-06) (8.990455e-07 6.292311e-04 -2.198420e-07)) ((4.277807e-11 4.797244e-11 -8.776938e-09) (-8.316563e-09 3.593551e-11 2.852517e-08))
17.057352     	((2.078004e-05 2.900070e-03 -5.394306e-06) (9.734478e-07 6.274418e-04 -2.556817e-07)) ((3.126906e-11 5.294510e-11 -8.750116e-09) (-7.878331e-09 1.088290e-10 2.859386e-08))
17.4971       	((2.230704e-05 2.888541e-03 -6.608574e-06) (1.041026e-06 6.257314e-04 -3.012325e-07)) ((3.161458e-11 5.906895e-11 -8.727096e-09) (-7.525361e-09 1.670701e-10 2.942648e-08))
17.93663      	((2.425895e-05 2.876534e-03 -7.981231e-06) (1.117819e-06 6.240245e-04 -3.568283e-07)) ((3.721761e-11 6.889997e-11 -8.708873e-09) (-7.068541e-09 1.795033e-10 3.043568e-08))
18.375954     	((2.562605e-05 2.867599e-03 -9.435582e-06) (1.200898e-06 6.223377e-04 -4.209984e-07)) ((4.589493e-11 7.800214e-11 -8.698036e-09) (-6.354838e-09 2.469236e-10 3.118039e-08))
18.815121     	((2.719031e-05 2.857769e-03 -1.076440e-05) (1.285974e-06 6.206773e-04 -4.865055e-07)) ((5.635978e-11 8.540441e-11 -8.683064e-09) (-5.389652e-09 3.525606e-10 3.173413e-08))
19.254184     	((2.921214e-05 2.847122e-03 -1.229137e-05) (1.381512e-06 6.190111e-04 -5.564630e-07)) ((7.316664e-11 9.204012e-11 -8.667812e-09) (-4.433283e-09 4.063416e-10 3.208032e-08))
19.693129     	((3.147863e-05 2.835132e-03 -1.382172e-05) (1.496313e-06 6.173232e-04 -6.317179e-07)) ((8.702756e-11 9.749770e-11 -8.650566e-09) (-3.428579e-09 4.404121e-10 3.220693e-08))
20.131952     	((3.384144e-05 2.825055e-03 -1.548999e-05) (1.625718e-06 6.156535e-04 -7.091580e-07)) ((1.002587e-10 1.024956e-10 -8.637584e-09) (-2.201679e-09 5.339719e-10 3.241034e-08))
20.570666     	((3.638620e-05 2.816647e-03 -1.704082e-05) (1.762197e-06 6.140516e-04 -7.871550e-07)) ((1.094989e-10 1.030863e-10 -8.624762e-09) (-7.622305e-10 6.324570e-10 3.285762e-08))
21.009275     	((3.909105e-05 2.808707e-03 -1.868107e-05) (1.902887e-06 6.125322e-04 -8.672661e-07)) ((1.157141e-10 1.055313e-10 -8.610005e-09) (7.967744e-10 6.433248e-10 3.368820e-08))
21.447791     	((4.207907e-05 2.801522e-03 -2.062165e-05) (2.051623e-06 6.111027e-04 -9.552380e-07)) ((1.252711e-10 1.052154e-10 -8.592027e-09) (2.404319e-09 5.650143e-10 3.489545e-08))
21.886218     	((4.514305e-05 2.793616e-03 -2.245010e-05) (2.210224e-06 6.097491e-04 -1.049357e-06)) ((1.371561e-10 1.018677e-10 -8.571349e-09) (4.060728e-09 4.820237e-10 3.631782e-08))
22.324561     	((4.869738e-05 2.785020e-03 -2.471179e-05) (2.383841e-06 6.084385e-04 -1.154428e-06)) ((1.510723e-10 9.724033e-11 -8.552049e-09) (5.700860e-09 4.128826e-10 3.788428e-08))
22.76284      	((5.258394e-05 2.776600e-03 -2.704871e-05) (2.577554e-06 6.071444e-04 -1.270799e-06)) ((1.675069e-10 9.062307e-11 -8.536402e-09) (7.318343e-09 3.711463e-10 3.961849e-08))
23.201069     	((5.683279e-05 2.768147e-03 -2.957598e-05) (2.793174e-06 6.058457e-04 -1.397231e-06)) ((1.867806e-10 8.577999e-11 -8.521128e-09) (8.908170e-09 3.482832e-10 4.145234e-08))
23.639143     	((6.161252e-05 2.759999e-03 -3.244239e-05) (3.031336e-06 6.045433e-04 -1.535725e-06)) ((2.087235e-10 8.338286e-11 -8.506614e-09) (1.065943e-08 3.334396e-10 4.345237e-08))
24.077015     	((6.721901e-05 2.751553e-03 -3.568859e-05) (3.292907e-06 6.032496e-04 -1.686409e-06)) ((2.367930e-10 8.139211e-11 -8.489845e-09) (1.275171e-08 3.139483e-10 4.593651e-08))
24.514721     	((7.347649e-05 2.742982e-03 -3.946542e-05) (3.578759e-06 6.019749e-04 -1.853080e-06)) ((2.660490e-10 7.886611e-11 -8.471996e-09) (1.514218e-08 2.756551e-10 4.911283e-08))
24.952285     	((8.047572e-05 2.734774e-03 -4.339586e-05) (3.892112e-06 6.007295e-04 -2.035155e-06)) ((2.921948e-10 7.683800e-11 -8.454259e-09) (1.773241e-08 2.091410e-10 5.293491e-08))
25.389724     	((8.813812e-05 2.727935e-03 -4.778430e-05) (4.236013e-06 5.995299e-04 -2.234463e-06)) ((3.177930e-10 7.439401e-11 -8.436039e-09) (2.050016e-08 1.166872e-10 5.740594e-08))
25.827045     	((9.655494e-05 2.722482e-03 -5.275406e-05) (4.610917e-06 5.983930e-04 -2.458004e-06)) ((3.461495e-10 7.297660e-11 -8.415375e-09) (2.341210e-08 -1.883470e-11 6.258927e-08))
26.264265     	((1.058673e-04 2.717653e-03 -5.785731e-05) (5.026389e-06 5.973213e-04 -2.705340e-06)) ((3.717821e-10 7.275597e-11 -8.392748e-09) (2.650171e-08 -2.033638e-10 6.827807e-08))
26.701422     	((1.151944e-04 2.713118e-03 -6.322620e-05) (5.481605e-06 5.963069e-04 -2.972107e-06)) ((3.977334e-10 7.255612e-11 -8.369791e-09) (2.987738e-08 -4.058754e-10 7.420322e-08))
27.138526     	((1.250665e-04 2.708102e-03 -6.864795e-05) (5.974418e-06 5.953245e-04 -3.253541e-06)) ((4.200774e-10 7.440391e-11 -8.348006e-09) (3.356680e-08 -5.905638e-10 8.038119e-08))
27.575584     	((1.354888e-04 2.702949e-03 -7.454653e-05) (6.503492e-06 5.943504e-04 -3.549261e-06)) ((4.428505e-10 7.964462e-11 -8.329053e-09) (3.766785e-08 -7.677069e-10 8.708544e-08))
28.012604     	((1.464841e-04 2.697577e-03 -8.086567e-05) (7.069684e-06 5.933726e-04 -3.864733e-06)) ((4.655095e-10 8.883079e-11 -8.312211e-09) (4.216379e-08 -9.135490e-10 9.444018e-08))
28.449591     	((1.582689e-04 2.692388e-03 -8.759893e-05) (7.676449e-06 5.923939e-04 -4.203005e-06)) ((4.934613e-10 9.976493e-11 -8.296675e-09) (4.689057e-08 -9.811860e-10 1.023629e-07))
28.88655      	((1.707460e-04 2.687505e-03 -9.489969e-05) (8.326033e-06 5.914242e-04 -4.567826e-06)) ((5.286042e-10 1.105491e-10 -8.279934e-09) (5.171487e-08 -9.716599e-10 1.107108e-07))
29.323486     	((1.843021e-04 2.682862e-03 -1.026923e-04) (9.025652e-06 5.904685e-04 -4.961731e-06)) ((5.706711e-10 1.193973e-10 -8.260028e-09) (5.669583e-08 -9.350410e-10 1.194207e-07))
29.760407     	((1.990188e-04 2.678864e-03 -1.111356e-04) (9.782928e-06 5.895346e-04 -5.386360e-06)) ((6.184620e-10 1.264971e-10 -8.238619e-09) (6.186313e-08 -9.036147e-10 1.284322e-07))
30.197316     	((2.145005e-04 2.675584e-03 -1.201651e-04) (1.059862e-05 5.886364e-04 -5.843047e-06)) ((6.683292e-10 1.322090e-10 -8.216522e-09) (6.724141e-08 -8.608112e-10 1.376164e-07))
30.634223     	((2.313124e-04 2.672705e-03 -1.297496e-04) (1.147551e-05 5.877807e-04 -6.332714e-06)) ((7.169256e-10 1.389399e-10 -8.194186e-09) (7.284088e-08 -8.382147e-10 1.470402e-07))
31.071082     	((2.493898e-04 2.670117e-03 -1.399006e-04) (1.241644e-05 5.869605e-04 -6.855811e-06)) ((7.678382e-10 1.451551e-10 -8.171025e-09) (7.873199e-08 -8.312692e-10 1.569749e-07))
31.507865     	((2.688543e-04 2.668125e-03 -1.509143e-04) (1.342624e-05 5.861728e-04 -7.415368e-06)) ((8.233979e-10 1.542760e-10 -8.147734e-09) (8.505510e-08 -7.511748e-10 1.675531e-07))
31.944572     	((2.899255e-04 2.666130e-03 -1.628731e-04) (1.451155e-05 5.854196e-04 -8.018046e-06)) ((8.857017e-10 1.687428e-10 -8.122215e-09) (9.164830e-08 -6.066789e-10 1.788366e-07))
32.3812       	((3.129328e-04 2.664615e-03 -1.758546e-04) (1.568663e-05 5.847027e-04 -8.669524e-06)) ((9.546391e-10 1.866815e-10 -8.096099e-09) (9.842425e-08 -4.187868e-10 1.906876e-07))
32.817749     	((3.379790e-04 2.663549e-03 -1.898945e-04) (1.696226e-05 5.840316e-04 -9.378601e-06)) ((1.030556e-09 2.118975e-10 -8.068719e-09) (1.053848e-07 -2.986542e-10 2.031652e-07))
33.254215     	((3.653037e-04 2.662838e-03 -2.049763e-04) (1.834397e-05 5.834096e-04 -1.015206e-05)) ((1.111092e-09 2.424240e-10 -8.038381e-09) (1.126592e-07 -3.331914e-10 2.166807e-07))
33.690593     	((3.950652e-04 2.662769e-03 -2.212185e-04) (1.984112e-05 5.828379e-04 -1.099408e-05)) ((1.198774e-09 2.724269e-10 -8.005340e-09) (1.202740e-07 -5.165630e-10 2.314745e-07))
34.126881     	((4.274959e-04 2.663363e-03 -2.388556e-04) (2.147466e-05 5.823298e-04 -1.191016e-05)) ((1.296290e-09 3.044050e-10 -7.968850e-09) (1.281929e-07 -6.730788e-10 2.470528e-07))
34.563073     	((4.626145e-04 2.664775e-03 -2.579143e-04) (2.326018e-05 5.818892e-04 -1.290784e-05)) ((1.405585e-09 3.397626e-10 -7.929152e-09) (1.362992e-07 -8.314704e-10 2.632778e-07))
34.999163     	((5.006060e-04 2.667046e-03 -2.785182e-04) (2.521003e-05 5.815261e-04 -1.399738e-05)) ((1.531153e-09 3.794097e-10 -7.889090e-09) (1.443481e-07 -1.092992e-09 2.799758e-07))
35.435146     	((5.419761e-04 2.669994e-03 -3.009082e-04) (2.733575e-05 5.812298e-04 -1.518513e-05)) ((1.669299e-09 4.270916e-10 -7.849369e-09) (1.527384e-07 -1.335008e-09 2.976562e-07))
35.871017     	((5.868219e-04 2.673611e-03 -3.249292e-04) (2.965061e-05 5.809863e-04 -1.647633e-05)) ((1.814671e-09 4.824167e-10 -7.805166e-09) (1.615282e-07 -1.450212e-09 3.168992e-07))
36.30677      	((6.353299e-04 2.678223e-03 -3.509434e-04) (3.216926e-05 5.807997e-04 -1.787850e-05)) ((1.972118e-09 5.479936e-10 -7.758401e-09) (1.707122e-07 -1.454367e-09 3.382354e-07))
36.742415     	((6.876669e-04 2.684584e-03 -3.788616e-04) (3.489828e-05 5.806743e-04 -1.938978e-05)) ((2.137554e-09 6.277071e-10 -7.709582e-09) (1.808194e-07 -1.246615e-09 3.619854e-07))
37.177972     	((7.452360e-04 2.692795e-03 -4.096089e-04) (3.787216e-05 5.806215e-04 -2.102454e-05)) ((2.316981e-09 7.250739e-10 -7.658486e-09) (1.921929e-07 -7.717347e-10 3.878725e-07))
37.613449     	((8.074498e-04 2.703054e-03 -4.427437e-04) (4.111889e-05 5.806592e-04 -2.279464e-05)) ((2.504104e-09 8.415377e-10 -7.601744e-09) (2.052125e-07 -2.452687e-10 4.159380e-07))
38.048849     	((8.740894e-04 2.715629e-03 -4.782750e-04) (4.463552e-05 5.808124e-04 -2.469542e-05)) ((2.688211e-09 9.836380e-10 -7.539221e-09) (2.203273e-07 6.316380e-11 4.466905e-07))
38.484182     	((9.452938e-04 2.731139e-03 -5.171815e-04) (4.842803e-05 5.811158e-04 -2.674334e-05)) ((2.884814e-09 1.153502e-09 -7.463269e-09) (2.374748e-07 2.071187e-10 4.795860e-07))
38.919248     	((1.022235e-03 2.749628e-03 -5.589319e-04) (5.253408e-05 5.816161e-04 -2.896320e-05)) ((3.094374e-09 1.350896e-09 -7.359827e-09) (2.557417e-07 2.072381e-10 5.132907e-07))
39.353968     	((1.103911e-03 2.771501e-03 -6.033646e-04) (5.698676e-05 5.823799e-04 -3.137358e-05)) ((3.311284e-09 1.577519e-09 -7.233650e-09) (2.738551e-07 4.374670e-10 5.466517e-07))
39.788419     	((1.190913e-03 2.797105e-03 -6.508909e-04) (6.180312e-05 5.834115e-04 -3.397893e-05)) ((3.540315e-09 1.837225e-09 -7.095598e-09) (2.922619e-07 1.284945e-09 5.801393e-07))
40.222581     	((1.282948e-03 2.827254e-03 -7.009689e-04) (6.696538e-05 5.846733e-04 -3.676628e-05)) ((3.772268e-09 2.125695e-09 -6.942230e-09) (3.126851e-07 2.509859e-09 6.161887e-07))
40.656424     	((1.381687e-03 2.861877e-03 -7.551609e-04) (7.249732e-05 5.861618e-04 -3.976058e-05)) ((4.018831e-09 2.443903e-09 -6.770332e-09) (3.351507e-07 3.717700e-09 6.548197e-07))
41.089953     	((1.486097e-03 2.902330e-03 -8.129057e-04) (7.843406e-05 5.879162e-04 -4.299114e-05)) ((4.275704e-09 2.789315e-09 -6.580422e-09) (3.587666e-07 4.866278e-09 6.944264e-07))
41.523162     	((1.597453e-03 2.949897e-03 -8.737109e-04) (8.478546e-05 5.900034e-04 -4.644831e-05)) ((4.520251e-09 3.157948e-09 -6.392910e-09) (3.836257e-07 6.120711e-09 7.358834e-07))
41.956056     	((1.713997e-03 3.003338e-03 -9.377873e-04) (9.154826e-05 5.924668e-04 -5.013360e-05)) ((4.751064e-09 3.550849e-09 -6.198976e-09) (4.099699e-07 7.312204e-09 7.802595e-07))
42.388634     	((1.837100e-03 3.065782e-03 -1.005013e-03) (9.873623e-05 5.953782e-04 -5.406642e-05)) ((4.954987e-09 3.978130e-09 -6.003596e-09) (4.373795e-07 8.389640e-09 8.268282e-07))
42.820739     	((1.964377e-03 3.136425e-03 -1.075285e-03) (1.063818e-04 5.988057e-04 -5.827480e-05)) ((5.128780e-09 4.448415e-09 -5.803641e-09) (4.642710e-07 9.530711e-09 8.717138e-07))
43.252404     	((2.095140e-03 3.218060e-03 -1.147674e-03) (1.144974e-04 6.028116e-04 -6.275180e-05)) ((5.247028e-09 4.972945e-09 -5.609421e-09) (4.892476e-07 1.066293e-08 9.126983e-07))
43.683697     	((2.228114e-03 3.309851e-03 -1.221575e-03) (1.230406e-04 6.074266e-04 -6.748752e-05)) ((5.308045e-09 5.545946e-09 -5.427925e-09) (5.121519e-07 1.152545e-08 9.517174e-07))
44.114648     	((2.361121e-03 3.411752e-03 -1.296557e-03) (1.319197e-04 6.126897e-04 -7.244774e-05)) ((5.318737e-09 6.165157e-09 -5.276974e-09) (5.345793e-07 1.130350e-08 9.898793e-07))
44.545258     	((2.492605e-03 3.523992e-03 -1.370935e-03) (1.410015e-04 6.186902e-04 -7.753825e-05)) ((5.271941e-09 6.808677e-09 -5.131097e-09) (5.576993e-07 9.926991e-09 1.027363e-06))
44.975458     	((2.621584e-03 3.646377e-03 -1.443649e-03) (1.502274e-04 6.254889e-04 -8.269227e-05)) ((5.207479e-09 7.475600e-09 -4.993824e-09) (5.807172e-07 8.435686e-09 1.063400e-06))
45.405247     	((2.744267e-03 3.778056e-03 -1.512423e-03) (1.595723e-04 6.330780e-04 -8.788214e-05)) ((5.114677e-09 8.144714e-09 -4.864509e-09) (6.023679e-07 7.457063e-09 1.095811e-06))
