# Forces      
# CofR        : (0.000000e+00 0.000000e+00 0.000000e+00)
# Time        forces(pressure viscous)	moments(pressure viscous)
0             	((0.000000e+00 0.000000e+00 0.000000e+00) (-2.294310e-15 1.592789e-05 8.814386e-17)) ((0.000000e+00 0.000000e+00 0.000000e+00) (7.600178e-17 3.660568e-18 -5.737318e-12))
0.012         	((-2.252887e-10 4.632120e-03 -9.953795e-10) (-1.156220e-11 1.828041e-05 -1.383901e-11)) ((1.940349e-12 3.264738e-14 -8.757023e-10) (7.146807e-14 3.473101e-15 -1.196054e-11))
0.0264        	((-2.175718e-08 -3.183370e-04 4.844489e-09) (-3.531509e-11 1.865457e-05 -1.001896e-11)) ((-4.307267e-12 -3.110992e-13 5.835464e-11) (-1.212251e-13 -2.789063e-14 -1.624166e-11))
0.04368       	((5.966233e-08 -9.702656e-04 -3.580383e-08) (1.673442e-11 1.658028e-05 -2.181004e-11)) ((-1.969793e-12 4.066907e-13 2.325754e-10) (-6.592890e-13 -4.063996e-14 -1.403190e-11))
0.064416      	((-1.079610e-08 -9.190566e-06 1.610550e-08) (2.797293e-10 1.468644e-05 2.000176e-10)) ((1.528232e-12 3.631294e-13 -1.011543e-11) (1.361792e-12 -7.496567e-14 -1.766515e-11))
0.0892992     	((-8.371660e-09 1.294393e-05 1.165388e-08) (3.647673e-10 1.355943e-05 3.607199e-10)) ((3.964802e-13 -7.739671e-13 -1.283245e-11) (2.696790e-12 -1.351447e-13 -1.943040e-11))
0.119159      	((3.884814e-09 -1.446268e-05 1.467731e-08) (2.889849e-10 1.252109e-05 3.477040e-10)) ((1.360905e-12 1.471001e-13 3.263404e-12) (-6.557110e-13 -9.076514e-14 -1.721578e-11))
0.154991      	((-1.034962e-11 -7.818584e-06 -5.831962e-10) (2.203671e-10 1.141951e-05 3.278130e-10)) ((7.067456e-13 1.730688e-13 9.693449e-13) (-4.011040e-12 -1.828884e-13 -1.336698e-11))
0.197989      	((2.174196e-09 -1.896037e-06 -3.430849e-09) (1.019958e-10 1.030696e-05 2.176215e-10)) ((9.785657e-13 -2.858586e-14 1.474993e-13) (-4.713590e-12 -7.684843e-13 -4.389845e-12))
0.249587      	((1.581478e-09 2.512509e-07 -6.180619e-10) (2.090768e-11 9.214941e-06 1.110083e-10)) ((6.916622e-13 -9.188496e-15 -9.215957e-13) (-4.202837e-12 -1.092489e-12 1.119797e-13))
0.311504      	((1.458907e-09 1.234781e-06 -9.779363e-11) (-7.885924e-12 8.176052e-06 5.088837e-11)) ((4.465936e-13 -1.127260e-14 -1.247448e-12) (-3.428764e-12 -9.386493e-13 1.054256e-12))
0.385805      	((3.882515e-10 1.704259e-06 -2.582008e-10) (-9.538279e-12 7.216501e-06 1.535452e-11)) ((3.129006e-13 7.623383e-15 -1.020704e-12) (-2.173842e-12 -8.424576e-13 2.408875e-12))
0.474966      	((-1.404088e-10 1.925088e-06 -3.542337e-10) (-8.768074e-12 6.355675e-06 -8.490914e-12)) ((1.975721e-13 -7.933101e-15 -8.467712e-13) (-1.084140e-12 -8.068866e-13 1.176295e-12))
0.581959      	((-3.774619e-10 2.013966e-06 -2.681685e-10) (-1.940237e-11 5.602068e-06 -2.318839e-11)) ((1.232366e-13 -1.695521e-15 -7.193702e-13) (-5.484547e-13 -6.523048e-13 -3.657606e-12))
0.710351      	((-3.091092e-10 2.006228e-06 -2.961895e-10) (1.017503e-11 4.956119e-06 -3.126331e-11)) ((7.007890e-14 -2.672917e-15 -5.819181e-13) (-4.922111e-13 -4.619110e-13 -7.324399e-12))
0.864421      	((-2.057597e-10 1.933691e-06 -2.494486e-10) (6.577814e-11 4.409592e-06 -3.683615e-11)) ((3.676052e-14 -6.688874e-15 -5.909509e-13) (-3.503029e-13 -3.356479e-13 -7.130533e-12))
1.049306      	((-1.282746e-10 1.827028e-06 -2.059202e-10) (1.056374e-10 3.948546e-06 -2.674114e-11)) ((1.525361e-14 -4.485957e-15 -5.760053e-13) (-3.686060e-13 -2.295762e-13 -4.817377e-12))
1.271167      	((-6.697292e-11 1.708935e-06 -1.520534e-10) (1.087746e-10 3.558525e-06 -1.480939e-11)) ((2.455811e-15 -4.211052e-15 -5.281193e-13) (-3.311452e-13 -1.720841e-13 -2.065189e-12))
1.5374        	((-8.681554e-12 1.588289e-06 -1.129256e-10) (9.227532e-11 3.224135e-06 -1.041190e-11)) ((-4.685490e-15 -3.582195e-15 -5.199540e-13) (-2.325757e-13 -1.413002e-13 8.875248e-14))
1.85688       	((2.176781e-11 1.470564e-06 -7.355159e-11) (8.389815e-11 2.931409e-06 -1.071810e-11)) ((-4.016056e-15 -1.989764e-15 -5.260365e-13) (-1.847934e-13 -1.053322e-13 1.048586e-12))
2.240256      	((3.578989e-12 1.358898e-06 -5.893930e-11) (6.504305e-11 2.671192e-06 -1.306968e-11)) ((-1.134345e-15 -1.861722e-15 -5.284272e-13) (-2.528142e-13 -8.768224e-14 6.500557e-13))
2.700307      	((2.339527e-12 1.254774e-06 -6.156494e-11) (5.637496e-11 2.437817e-06 -1.447546e-11)) ((4.443762e-16 -1.543330e-15 -5.247958e-13) (-4.077511e-13 -8.176062e-14 -1.139606e-12))
3.252369      	((-6.739757e-12 1.157620e-06 -6.007777e-11) (5.535034e-11 2.227509e-06 -1.377886e-11)) ((1.636161e-15 -2.276421e-15 -4.879898e-13) (-6.249108e-13 -7.143418e-14 -4.118507e-12))
3.914842      	((1.463383e-11 1.066191e-06 -4.631842e-11) (4.760346e-11 2.037497e-06 -1.314949e-11)) ((2.225936e-15 -3.020177e-15 -4.437334e-13) (-8.216652e-13 -6.118896e-14 -7.126838e-12))
4.709811      	((6.511865e-11 9.812012e-07 -2.361742e-11) (3.357057e-11 1.865778e-06 -1.268726e-11)) ((3.092871e-15 -4.319145e-15 -3.966583e-13) (-9.117733e-13 -6.247560e-14 -8.749790e-12))
5.663773      	((1.023776e-10 9.027418e-07 -2.690345e-11) (2.228607e-11 1.710895e-06 -1.279736e-11)) ((4.774849e-15 -4.912878e-15 -3.560142e-13) (-9.584695e-13 -5.858597e-14 -8.962107e-12))
6.808528      	((1.017180e-10 8.307333e-07 -4.557405e-11) (2.625855e-11 1.571572e-06 -1.298058e-11)) ((5.756632e-15 -4.499361e-15 -3.127120e-13) (-9.519317e-13 -3.651198e-14 -8.751443e-12))
8.182233      	((7.939708e-11 7.649516e-07 -5.966377e-11) (2.717398e-11 1.446500e-06 -1.220042e-11)) ((6.033558e-15 -4.555177e-15 -2.711650e-13) (-1.050916e-12 -1.494303e-14 -8.532997e-12))
9.83068       	((7.120939e-11 7.052618e-07 -5.803167e-11) (2.181824e-11 1.334154e-06 -1.139312e-11)) ((7.477744e-15 -5.325692e-15 -2.341356e-13) (-1.410506e-12 9.766912e-15 -8.309193e-12))
11.808816     	((6.699646e-11 6.506389e-07 -6.645476e-11) (1.317337e-11 1.232890e-06 -1.166292e-11)) ((8.189393e-15 -5.670568e-15 -2.020545e-13) (-2.086874e-12 1.309520e-14 -7.380920e-12))
14.182579     	((4.680756e-11 6.007101e-07 -7.961328e-11) (7.961709e-12 1.141212e-06 -1.202199e-11)) ((9.663406e-15 -5.685432e-15 -1.749316e-13) (-3.028221e-12 2.013628e-14 -5.774257e-12))
17.031095     	((2.130657e-11 5.551859e-07 -7.989912e-11) (2.967652e-12 1.057889e-06 -1.402548e-11)) ((9.934743e-15 -5.622364e-15 -1.508409e-13) (-4.222310e-12 3.949587e-14 -4.154380e-12))
20.449314     	((-1.570139e-13 5.136650e-07 -9.108303e-11) (-2.549807e-12 9.819666e-07 -1.622386e-11)) ((1.040595e-14 -5.634035e-15 -1.321228e-13) (-5.458858e-12 5.953588e-14 -2.637049e-12))
24.551176     	((1.110039e-11 4.758497e-07 -7.712399e-11) (-5.175454e-12 9.127594e-07 -1.614876e-11)) ((1.040326e-14 -5.758634e-15 -1.176916e-13) (-6.507778e-12 7.053799e-14 -1.474816e-12))
29.473411     	((4.007804e-11 4.415283e-07 -3.698609e-11) (-6.004417e-12 8.497644e-07 -1.385751e-11)) ((8.781385e-15 -5.599943e-15 -1.058188e-13) (-7.327564e-12 5.126199e-14 -6.465254e-13))
35.380094     	((3.776761e-11 4.103914e-07 -2.963464e-11) (-5.293900e-12 7.925420e-07 -9.930608e-12)) ((7.199427e-15 -5.489745e-15 -9.678065e-14) (-8.115885e-12 2.709197e-14 2.047904e-13))
42.468112     	((3.352008e-11 3.823467e-07 -2.573776e-11) (1.075510e-13 7.406460e-07 -7.649342e-12)) ((6.751964e-15 -5.471442e-15 -9.018590e-14) (-9.156063e-12 1.763237e-14 1.445034e-12))
50.973735     	((4.594703e-11 3.572015e-07 -2.335326e-11) (6.291809e-12 6.936381e-07 -6.179901e-12)) ((7.341366e-15 -5.411138e-15 -8.490067e-14) (-1.054169e-11 1.037062e-14 3.284816e-12))
61.180482     	((7.589167e-11 3.347197e-07 3.451062e-12) (1.099900e-11 6.510920e-07 -4.908912e-12)) ((7.179996e-15 -5.124518e-15 -8.072710e-14) (-1.237664e-11 -6.160607e-15 5.646039e-12))
73.428578     	((1.148462e-10 3.146845e-07 3.983357e-11) (1.587350e-11 6.125744e-07 -4.521729e-12)) ((6.000112e-15 -4.696872e-15 -7.832914e-14) (-1.472998e-11 -2.140594e-14 8.595062e-12))
88.126294     	((1.506900e-10 2.969339e-07 7.213718e-11) (1.978659e-11 5.776926e-07 -4.025426e-12)) ((5.049831e-15 -4.418699e-15 -7.672209e-14) (-1.752512e-11 -3.267717e-14 1.189670e-11))
105.763553    	((1.844235e-10 2.813483e-07 1.068422e-10) (2.198406e-11 5.461033e-07 -4.992442e-12)) ((3.866343e-15 -4.204297e-15 -7.539705e-14) (-2.046972e-11 -4.222330e-14 1.528357e-11))
126.928263    	((2.108242e-10 2.678902e-07 1.321084e-10) (1.789242e-11 5.175333e-07 -8.080270e-12)) ((2.531091e-15 -4.075463e-15 -7.433919e-14) (-2.335785e-11 -4.443958e-14 1.868498e-11))
152.325916    	((2.277978e-10 2.563819e-07 1.444805e-10) (1.047798e-11 4.917714e-07 -1.247583e-11)) ((1.547815e-15 -3.735226e-15 -7.417394e-14) (-2.601660e-11 -4.087379e-14 2.181056e-11))
182.803099    	((2.435296e-10 2.466928e-07 1.552484e-10) (2.844511e-12 4.686335e-07 -1.829474e-11)) ((4.594318e-16 -3.172862e-15 -7.499439e-14) (-2.827061e-11 -2.878755e-14 2.451059e-11))
219.375719    	((2.603638e-10 2.386482e-07 1.776544e-10) (-2.730070e-12 4.479600e-07 -2.343495e-11)) ((-9.036721e-16 -2.805996e-15 -7.663515e-14) (-3.007991e-11 -2.069410e-14 2.668829e-11))
263.262863    	((2.741441e-10 2.321623e-07 1.951005e-10) (-5.168676e-12 4.296156e-07 -2.600728e-11)) ((-1.973020e-15 -2.539216e-15 -7.940827e-14) (-3.138393e-11 -1.947027e-14 2.837311e-11))
315.927436    	((2.756828e-10 2.271547e-07 2.033079e-10) (-4.714008e-12 4.134826e-07 -2.674327e-11)) ((-2.905663e-15 -2.381496e-15 -8.292128e-14) (-3.221858e-11 -1.314288e-14 2.955350e-11))
379.124923    	((2.778045e-10 2.234734e-07 2.120107e-10) (-3.346115e-12 3.994539e-07 -2.650815e-11)) ((-3.163838e-15 -2.043479e-15 -8.706809e-14) (-3.258210e-11 -1.823524e-14 3.017173e-11))
454.961908    	((2.765574e-10 2.209610e-07 2.166187e-10) (-9.923313e-13 3.874109e-07 -2.439933e-11)) ((-3.099786e-15 -1.821969e-15 -9.113344e-14) (-3.245359e-11 -1.991652e-14 3.023949e-11))
545.966289    	((2.829992e-10 2.193564e-07 2.285409e-10) (3.578765e-12 3.772117e-07 -1.963192e-11)) ((-3.246999e-15 -1.652347e-15 -9.449778e-14) (-3.187241e-11 -2.557686e-14 2.976255e-11))
655.171547    	((2.840709e-10 2.183871e-07 2.365770e-10) (9.996685e-12 3.686835e-07 -1.290466e-11)) ((-3.393591e-15 -1.570514e-15 -9.702023e-14) (-3.088993e-11 -3.420312e-14 2.881386e-11))
786.217856    	((2.799235e-10 2.177959e-07 2.369664e-10) (1.807856e-11 3.616262e-07 -4.793218e-12)) ((-3.252807e-15 -1.537697e-15 -9.881507e-14) (-2.956894e-11 -4.004738e-14 2.746833e-11))
939.164853    	((2.707881e-10 2.174153e-07 2.297746e-10) (2.843756e-11 3.558475e-07 4.684258e-12)) ((-3.032243e-15 -1.474675e-15 -9.986457e-14) (-2.795579e-11 -4.046823e-14 2.581769e-11))
1114.029396   	((2.600262e-10 2.170819e-07 2.209658e-10) (3.993144e-11 3.511313e-07 1.528780e-11)) ((-2.771618e-15 -1.440326e-15 -1.002399e-13) (-2.613529e-11 -4.206523e-14 2.399096e-11))
1310.83285    	((2.463142e-10 2.167812e-07 2.113685e-10) (5.154486e-11 3.472983e-07 2.635231e-11)) ((-2.625881e-15 -1.321247e-15 -1.001953e-13) (-2.420913e-11 -4.295886e-14 2.209835e-11))
1529.598232   	((2.303979e-10 2.165082e-07 1.989039e-10) (6.246562e-11 3.441879e-07 3.673341e-11)) ((-2.528793e-15 -1.302410e-15 -1.000856e-13) (-2.227353e-11 -4.170518e-14 2.016781e-11))
1749.435706   	((2.127603e-10 2.163249e-07 1.846851e-10) (7.175016e-11 3.416902e-07 4.590191e-11)) ((-2.413252e-15 -1.300283e-15 -9.994847e-14) (-2.039130e-11 -3.749077e-14 1.828825e-11))
1969.462391   	((1.945073e-10 2.161436e-07 1.684673e-10) (7.903134e-11 3.396723e-07 5.339109e-11)) ((-2.212593e-15 -1.285809e-15 -9.993235e-14) (-1.859389e-11 -3.431139e-14 1.652095e-11))
2189.648947   	((1.774751e-10 2.160002e-07 1.520771e-10) (8.431518e-11 3.380524e-07 5.884079e-11)) ((-1.993007e-15 -1.282888e-15 -9.995003e-14) (-1.693477e-11 -3.269147e-14 1.488649e-11))
2409.967465   	((1.612850e-10 2.158719e-07 1.369024e-10) (8.777972e-11 3.367469e-07 6.244829e-11)) ((-1.824486e-15 -1.279592e-15 -9.997715e-14) (-1.541917e-11 -3.383239e-14 1.338622e-11))
2630.3946     	((1.456527e-10 2.157676e-07 1.226006e-10) (8.968552e-11 3.356977e-07 6.445106e-11)) ((-1.674079e-15 -1.272497e-15 -1.000222e-13) (-1.405483e-11 -3.624077e-14 1.202760e-11))
2850.910305   	((1.311910e-10 2.156775e-07 1.090200e-10) (9.029163e-11 3.348521e-07 6.517310e-11)) ((-1.530812e-15 -1.276505e-15 -1.000724e-13) (-1.283607e-11 -3.827673e-14 1.081676e-11))
3071.498018   	((1.175921e-10 2.156038e-07 9.622386e-11) (8.989618e-11 3.341712e-07 6.489038e-11)) ((-1.399930e-15 -1.282918e-15 -1.001343e-13) (-1.175677e-11 -4.043804e-14 9.743063e-12))
3292.143938   	((1.054324e-10 2.155417e-07 8.464778e-11) (8.877407e-11 3.336217e-07 6.387507e-11)) ((-1.274518e-15 -1.283697e-15 -1.001917e-13) (-1.080817e-11 -4.248237e-14 8.798572e-12))
3512.836819   	((9.455248e-11 2.154906e-07 7.441868e-11) (8.717983e-11 3.331783e-07 6.234611e-11)) ((-1.160533e-15 -1.283278e-15 -1.002433e-13) (-9.979303e-12 -4.424259e-14 7.972262e-12))
3733.567451   	((8.502784e-11 2.154476e-07 6.520329e-11) (8.527672e-11 3.328198e-07 6.047514e-11)) ((-1.057667e-15 -1.281920e-15 -1.002896e-13) (-9.260518e-12 -4.577152e-14 7.254410e-12))
3954.328409   	((7.676196e-11 2.154124e-07 5.723205e-11) (8.319834e-11 3.325299e-07 5.842801e-11)) ((-9.680947e-16 -1.280678e-15 -1.003300e-13) (-8.640213e-12 -4.721720e-14 6.634746e-12))
4175.113688   	((6.963714e-11 2.153833e-07 5.045115e-11) (8.105424e-11 3.322952e-07 5.632447e-11)) ((-8.894045e-16 -1.279289e-15 -1.003654e-13) (-8.107426e-12 -4.849096e-14 6.103245e-12))
4395.918469   	((6.356867e-11 2.153591e-07 4.460249e-11) (7.892989e-11 3.321052e-07 5.424806e-11)) ((-8.218233e-16 -1.277954e-15 -1.003949e-13) (-7.652530e-12 -4.956945e-14 5.650255e-12))
4616.738887   	((5.843136e-11 2.153393e-07 3.964979e-11) (7.689523e-11 3.319511e-07 5.226063e-11)) ((-7.642812e-16 -1.278361e-15 -1.004215e-13) (-7.265709e-12 -5.045654e-14 5.265738e-12))
4837.571846   	((5.408374e-11 2.153231e-07 3.554517e-11) (7.499196e-11 3.318261e-07 5.039825e-11)) ((-7.194753e-16 -1.279082e-15 -1.004441e-13) (-6.938626e-12 -5.120161e-14 4.940706e-12))
5058.414871   	((5.048470e-11 2.153100e-07 3.209254e-11) (7.325163e-11 3.317247e-07 4.868711e-11)) ((-6.819053e-16 -1.279159e-15 -1.004639e-13) (-6.663178e-12 -5.181695e-14 4.666866e-12))
5279.265978   	((4.747091e-11 2.152989e-07 2.917584e-11) (7.168506e-11 3.316423e-07 4.714299e-11)) ((-6.509346e-16 -1.279207e-15 -1.004799e-13) (-6.431990e-12 -5.232344e-14 4.437007e-12))
5500.123584   	((4.498700e-11 2.152899e-07 2.676876e-11) (7.029780e-11 3.315754e-07 4.577107e-11)) ((-6.249047e-16 -1.279676e-15 -1.004942e-13) (-6.238571e-12 -5.275465e-14 4.244696e-12))
5720.986423   	((4.293491e-11 2.152826e-07 2.475657e-11) (6.908200e-11 3.315211e-07 4.456699e-11)) ((-6.035703e-16 -1.280407e-15 -1.005060e-13) (-6.077328e-12 -5.311878e-14 4.084432e-12))
5941.853484   	((4.125715e-11 2.152766e-07 2.309295e-11) (6.802894e-11 3.314768e-07 4.352264e-11)) ((-5.859603e-16 -1.280721e-15 -1.005159e-13) (-5.943181e-12 -5.342578e-14 3.951154e-12))
6162.723952   	((3.987719e-11 2.152714e-07 2.168323e-11) (6.712550e-11 3.314408e-07 4.262636e-11)) ((-5.714703e-16 -1.280860e-15 -1.005242e-13) (-5.831870e-12 -5.367790e-14 3.840646e-12))
6383.597172   	((3.876069e-11 2.152673e-07 2.057484e-11) (6.635737e-11 3.314115e-07 4.186495e-11)) ((-5.589624e-16 -1.281213e-15 -1.005313e-13) (-5.739736e-12 -5.388119e-14 3.749247e-12))
6604.472623   	((3.782864e-11 2.152638e-07 1.968465e-11) (6.571005e-11 3.313877e-07 4.122302e-11)) ((-5.495528e-16 -1.281196e-15 -1.005368e-13) (-5.663678e-12 -5.404863e-14 3.673857e-12))
6825.349884   	((3.708735e-11 2.152613e-07 1.900683e-11) (6.516911e-11 3.313683e-07 4.068540e-11)) ((-5.415067e-16 -1.281152e-15 -1.005414e-13) (-5.601030e-12 -5.418458e-14 3.611795e-12))
7046.22862    	((3.648423e-11 2.152590e-07 1.838019e-11) (6.471924e-11 3.313525e-07 4.023674e-11)) ((-5.344872e-16 -1.280949e-15 -1.005453e-13) (-5.549483e-12 -5.429604e-14 3.560747e-12))
7267.108553   	((3.600585e-11 2.152573e-07 1.792370e-11) (6.434708e-11 3.313396e-07 3.986598e-11)) ((-5.289669e-16 -1.280747e-15 -1.005482e-13) (-5.507147e-12 -5.438559e-14 3.518826e-12))
7487.98946    	((3.559487e-11 2.152556e-07 1.749126e-11) (6.404045e-11 3.313291e-07 3.955999e-11)) ((-5.242508e-16 -1.281186e-15 -1.005505e-13) (-5.472367e-12 -5.445908e-14 3.484460e-12))
7708.871166   	((3.527149e-11 2.152544e-07 1.717323e-11) (6.379056e-11 3.313205e-07 3.931010e-11)) ((-5.207230e-16 -1.281189e-15 -1.005526e-13) (-5.443857e-12 -5.451896e-14 3.456281e-12))
7929.753522   	((3.501017e-11 2.152535e-07 1.691015e-11) (6.358698e-11 3.313135e-07 3.910595e-11)) ((-5.178086e-16 -1.281239e-15 -1.005543e-13) (-5.420503e-12 -5.456881e-14 3.433211e-12))
8150.636408   	((3.481283e-11 2.152530e-07 1.674771e-11) (6.342227e-11 3.313078e-07 3.894119e-11)) ((-5.156643e-16 -1.281264e-15 -1.005557e-13) (-5.401390e-12 -5.460873e-14 3.414323e-12))
8371.519727   	((3.462801e-11 2.152521e-07 1.655982e-11) (6.328781e-11 3.313032e-07 3.880530e-11)) ((-5.136514e-16 -1.281246e-15 -1.005567e-13) (-5.385720e-12 -5.464218e-14 3.398866e-12))
8592.403403   	((3.448945e-11 2.152516e-07 1.641324e-11) (6.317987e-11 3.312994e-07 3.869689e-11)) ((-5.119383e-16 -1.281160e-15 -1.005576e-13) (-5.372908e-12 -5.466846e-14 3.386220e-12))
8813.287368   	((3.437594e-11 2.152512e-07 1.629341e-11) (6.309249e-11 3.312963e-07 3.860847e-11)) ((-5.105381e-16 -1.281138e-15 -1.005584e-13) (-5.362418e-12 -5.468890e-14 3.375868e-12))
9034.171572   	((3.428635e-11 2.152510e-07 1.620280e-11) (6.302210e-11 3.312937e-07 3.853761e-11)) ((-5.093900e-16 -1.281102e-15 -1.005590e-13) (-5.353827e-12 -5.470513e-14 3.367391e-12))
