# Forces      
# CofR        : (0.000000e+00 0.000000e+00 0.000000e+00)
# Time        forces(pressure viscous)	moments(pressure viscous)
0             	((0.000000e+00 0.000000e+00 0.000000e+00) (-6.080133e-01 2.307776e-01 -9.077952e+02)) ((0.000000e+00 0.000000e+00 0.000000e+00) (3.273023e-01 5.260800e+01 -5.207374e-01))
0.00291579    	((2.937022e+03 1.289091e+03 -5.715690e+06) (6.909400e-01 -1.927497e+00 -1.245414e+03)) ((5.029598e+02 5.590394e+05 2.340596e+03) (4.386792e-01 7.713794e+01 -2.800042e+00))
0.00641475    	((4.895748e+03 3.319251e+02 1.288867e+06) (2.955436e+00 -4.475856e+00 -1.281816e+03)) ((-2.481162e+02 -4.721440e+05 -2.555418e+02) (6.266640e-01 1.086654e+02 -2.315043e+00))
0.0106135     	((5.195924e+03 -2.879107e+02 3.935145e+05) (2.207977e+00 -2.934247e+00 -8.782391e+02)) ((5.658997e+02 1.326037e+05 -5.516268e+02) (3.058454e-01 9.844917e+01 -2.969124e+00))
0.015652      	((3.437975e+03 -1.892975e+02 -1.385902e+05) (-1.330428e+00 -2.127262e+00 -6.565653e+02)) ((-6.852687e+01 -5.750237e+04 -3.449047e+01) (1.284348e-01 5.283708e+01 -3.147936e+00))
0.0216982     	((3.481902e+03 -2.154679e+02 -1.206175e+05) (-7.242917e-01 -1.695035e+00 -5.452843e+02)) ((2.362200e+02 -5.257857e+04 2.085230e+02) (8.862034e-02 2.605555e+01 -3.169609e+00))
0.0289536     	((3.439357e+03 -2.856165e+02 -1.098249e+05) (9.853408e-01 -1.433765e+00 -4.498589e+02)) ((1.537275e+02 -4.192745e+04 -1.097889e+02) (9.331657e-02 1.244019e+01 -2.544443e+00))
0.0374369     	((3.394350e+03 -2.877855e+02 -1.138976e+05) (2.522906e+00 -8.016345e-01 -3.681935e+02)) ((1.215757e+02 -3.837434e+04 -1.416295e+02) (1.092720e-01 2.875106e+00 -2.155041e+00))
0.0471211     	((3.542423e+03 -2.825484e+02 -1.159557e+05) (3.270070e+00 -2.855855e-01 -2.985057e+02)) ((1.201459e+02 -3.527109e+04 -2.163451e+02) (1.207316e-01 -6.456244e+00 -2.095039e+00))
0.0580486     	((3.803757e+03 -2.451838e+02 -1.194963e+05) (3.676361e+00 1.224107e-01 -2.345328e+02)) ((1.029700e+02 -3.276537e+04 -2.059255e+02) (6.130858e-02 -1.443016e+01 -1.789641e+00))
0.0703156     	((4.150192e+03 -1.571329e+02 -1.205932e+05) (4.182942e+00 7.094644e-01 -1.775222e+02)) ((8.368587e+01 -3.020573e+04 -2.658189e+02) (-1.091987e-01 -2.058435e+01 -1.736796e+00))
0.0839526     	((4.430786e+03 -1.349257e+02 -1.201317e+05) (4.543908e+00 1.054598e+00 -1.329011e+02)) ((5.438276e+01 -2.830337e+04 -2.383231e+02) (-2.951794e-01 -2.692107e+01 -1.762980e+00))
0.0979427     	((4.594217e+03 -1.406807e+02 -1.192297e+05) (4.955279e+00 1.137389e+00 -1.024949e+02)) ((2.805667e+01 -2.722496e+04 -2.474780e+02) (-4.304129e-01 -3.279177e+01 -1.735821e+00))
0.112063      	((4.727729e+03 -1.382593e+02 -1.169567e+05) (5.384646e+00 1.173943e+00 -8.102078e+01)) ((1.218486e+01 -2.623001e+04 -2.858046e+02) (-5.327687e-01 -3.774861e+01 -1.803451e+00))
0.12631       	((4.867771e+03 -1.359914e+02 -1.144222e+05) (5.715319e+00 1.337123e+00 -6.502559e+01)) ((2.912091e+01 -2.514322e+04 -3.332328e+02) (-5.863554e-01 -4.141263e+01 -2.056107e+00))
0.140838      	((5.013701e+03 -1.061096e+02 -1.111598e+05) (5.799202e+00 1.429454e+00 -5.283662e+01)) ((4.212398e+01 -2.348599e+04 -4.379558e+02) (-6.146719e-01 -4.351527e+01 -2.335963e+00))
0.155446      	((5.133616e+03 -5.413032e+01 -1.094057e+05) (5.727927e+00 1.541875e+00 -4.269575e+01)) ((5.396956e+01 -2.173747e+04 -5.409377e+02) (-6.627660e-01 -4.404114e+01 -2.644413e+00))
0.170116      	((5.298472e+03 5.637180e+00 -1.082991e+05) (5.707792e+00 1.660987e+00 -3.408067e+01)) ((5.442285e+01 -1.971535e+04 -6.210291e+02) (-7.004138e-01 -4.330535e+01 -2.843819e+00))
0.184834      	((5.487927e+03 5.848883e+01 -1.074016e+05) (5.730874e+00 1.744174e+00 -2.692077e+01)) ((5.511300e+01 -1.730549e+04 -6.171084e+02) (-7.099134e-01 -4.200194e+01 -2.815250e+00))
0.199586      	((5.688254e+03 1.146061e+02 -1.067739e+05) (5.709658e+00 1.759179e+00 -2.078449e+01)) ((6.954798e+01 -1.467912e+04 -6.588171e+02) (-7.134680e-01 -4.086366e+01 -2.568608e+00))
0.214366      	((5.910540e+03 1.802834e+02 -1.072947e+05) (5.413643e+00 1.733958e+00 -1.556581e+01)) ((8.770283e+01 -1.204071e+04 -7.028702e+02) (-7.644274e-01 -3.989554e+01 -2.201504e+00))
0.229166      	((6.148918e+03 2.828488e+02 -1.083974e+05) (4.592202e+00 1.711245e+00 -1.137434e+01)) ((1.016718e+02 -9.314941e+03 -7.738581e+02) (-8.243458e-01 -3.874436e+01 -1.784902e+00))
0.243985      	((6.368968e+03 3.724516e+02 -1.101056e+05) (3.138980e+00 1.661539e+00 -8.943115e+00)) ((1.022670e+02 -6.955207e+03 -8.258731e+02) (-8.762193e-01 -3.748453e+01 -1.391904e+00))
0.258821      	((6.560753e+03 4.509985e+02 -1.122332e+05) (1.142282e+00 1.643825e+00 -8.653041e+00)) ((1.030248e+02 -5.128726e+03 -8.516963e+02) (-8.951064e-01 -3.641366e+01 -9.399540e-01))
0.273677      	((6.699465e+03 5.311727e+02 -1.148094e+05) (-1.241666e+00 1.662231e+00 -1.049201e+01)) ((1.167528e+02 -3.902087e+03 -8.672566e+02) (-8.485978e-01 -3.543274e+01 -3.461290e-01))
0.288556      	((6.783847e+03 6.181188e+02 -1.175299e+05) (-3.944996e+00 1.687228e+00 -1.447555e+01)) ((1.277976e+02 -3.052361e+03 -8.715834e+02) (-7.697717e-01 -3.478912e+01 2.011697e-01))
0.303457      	((6.817325e+03 7.032103e+02 -1.199048e+05) (-6.907346e+00 1.664672e+00 -2.011451e+01)) ((1.415997e+02 -2.474400e+03 -8.630751e+02) (-6.922134e-01 -3.460549e+01 6.864004e-01))
0.318381      	((6.817536e+03 7.798016e+02 -1.220242e+05) (-9.937891e+00 1.702771e+00 -2.695332e+01)) ((1.534136e+02 -2.247798e+03 -8.031397e+02) (-6.091845e-01 -3.460550e+01 1.113232e+00))
0.33333       	((6.775824e+03 8.426555e+02 -1.235262e+05) (-1.287920e+01 1.789123e+00 -3.406060e+01)) ((1.520896e+02 -2.454540e+03 -7.048523e+02) (-5.041691e-01 -3.446874e+01 1.568989e+00))
0.348302      	((6.713984e+03 8.654406e+02 -1.242840e+05) (-1.549029e+01 1.894194e+00 -4.042163e+01)) ((1.377049e+02 -2.876610e+03 -5.631462e+02) (-4.320432e-01 -3.395344e+01 2.158552e+00))
0.363293      	((6.650554e+03 8.528119e+02 -1.241835e+05) (-1.760721e+01 2.036369e+00 -4.522002e+01)) ((1.254196e+02 -3.369525e+03 -4.610563e+02) (-3.686016e-01 -3.338395e+01 2.834028e+00))
0.378305      	((6.578780e+03 8.626743e+02 -1.231671e+05) (-1.911437e+01 2.180562e+00 -4.823342e+01)) ((1.090178e+02 -3.900882e+03 -3.534879e+02) (-2.826514e-01 -3.292959e+01 3.545238e+00))
0.39334       	((6.499166e+03 8.789745e+02 -1.213266e+05) (-1.989281e+01 2.342206e+00 -4.972655e+01)) ((9.153145e+01 -4.374087e+03 -2.785288e+02) (-1.910767e-01 -3.266720e+01 4.205871e+00))
0.408404      	((6.416830e+03 8.433294e+02 -1.190495e+05) (-1.987966e+01 2.372196e+00 -5.041793e+01)) ((7.952948e+01 -4.757224e+03 -1.868092e+02) (-1.207623e-01 -3.242108e+01 4.776255e+00))
0.4235        	((6.345897e+03 7.844144e+02 -1.164500e+05) (-1.921575e+01 2.304590e+00 -5.041873e+01)) ((8.003618e+01 -5.043805e+03 -1.659420e+02) (-5.224633e-02 -3.212875e+01 5.148488e+00))
0.43863       	((6.287708e+03 7.301316e+02 -1.138959e+05) (-1.811689e+01 2.296344e+00 -4.980662e+01)) ((8.955886e+01 -5.315650e+03 -1.674745e+02) (1.317932e-02 -3.198752e+01 5.337481e+00))
0.453796      	((6.234228e+03 6.502819e+02 -1.116719e+05) (-1.681135e+01 2.355892e+00 -4.877306e+01)) ((1.048544e+02 -5.502134e+03 -1.899726e+02) (5.828710e-02 -3.210243e+01 5.464841e+00))
0.468997      	((6.167894e+03 5.865682e+02 -1.098121e+05) (-1.546804e+01 2.421998e+00 -4.745734e+01)) ((1.266660e+02 -5.666893e+03 -2.044247e+02) (7.164456e-02 -3.230493e+01 5.596207e+00))
0.484233      	((6.083717e+03 5.565230e+02 -1.083784e+05) (-1.420465e+01 2.418359e+00 -4.610298e+01)) ((1.457394e+02 -5.665094e+03 -1.694075e+02) (7.184939e-02 -3.259974e+01 5.704453e+00))
0.499503      	((5.976354e+03 5.238273e+02 -1.073939e+05) (-1.304914e+01 2.341784e+00 -4.485622e+01)) ((1.604000e+02 -5.616032e+03 -1.157598e+02) (5.980516e-02 -3.299923e+01 5.747879e+00))
0.514806      	((5.846355e+03 4.934720e+02 -1.068658e+05) (-1.197111e+01 2.204556e+00 -4.376181e+01)) ((1.552528e+02 -5.633074e+03 -5.946733e+01) (3.221161e-02 -3.355521e+01 5.743503e+00))
0.53014       	((5.703246e+03 4.852492e+02 -1.065088e+05) (-1.093129e+01 2.054833e+00 -4.282760e+01)) ((1.382444e+02 -5.602277e+03 -5.711504e+01) (-1.554538e-02 -3.431101e+01 5.680043e+00))
0.545506      	((5.557301e+03 4.591405e+02 -1.063139e+05) (-9.893048e+00 1.853994e+00 -4.213240e+01)) ((1.252820e+02 -5.502944e+03 -6.187046e+01) (-5.948908e-02 -3.523092e+01 5.536951e+00))
0.560908      	((5.401584e+03 4.716820e+02 -1.060537e+05) (-8.828333e+00 1.583702e+00 -4.173815e+01)) ((1.174194e+02 -5.521580e+03 -4.251011e+01) (-9.271060e-02 -3.619241e+01 5.278539e+00))
0.576352      	((5.248146e+03 4.784131e+02 -1.057629e+05) (-7.756510e+00 1.271204e+00 -4.167439e+01)) ((1.166881e+02 -5.617172e+03 -1.265194e+00) (-1.106070e-01 -3.718226e+01 4.898279e+00))
0.591837      	((5.106189e+03 5.071032e+02 -1.055564e+05) (-6.791301e+00 9.534235e-01 -4.187842e+01)) ((1.233762e+02 -5.662886e+03 8.934491e+01) (-1.217145e-01 -3.814996e+01 4.447487e+00))
0.607367      	((4.965326e+03 5.552305e+02 -1.053988e+05) (-6.027518e+00 6.775989e-01 -4.232450e+01)) ((1.310111e+02 -5.721843e+03 1.922666e+02) (-1.205412e-01 -3.906630e+01 4.060430e+00))
0.622944      	((4.829342e+03 6.125305e+02 -1.053582e+05) (-5.426813e+00 4.686370e-01 -4.303502e+01)) ((1.303931e+02 -5.879084e+03 2.790583e+02) (-1.267289e-01 -3.999680e+01 3.752383e+00))
0.638577      	((4.703382e+03 6.326154e+02 -1.053679e+05) (-4.915455e+00 3.347912e-01 -4.394226e+01)) ((1.185331e+02 -6.098702e+03 3.173092e+02) (-1.525824e-01 -4.093217e+01 3.495683e+00))
0.654272      	((4.590508e+03 6.317528e+02 -1.053302e+05) (-4.482339e+00 2.416352e-01 -4.489456e+01)) ((9.875959e+01 -6.478473e+03 3.284320e+02) (-1.888827e-01 -4.170408e+01 3.259576e+00))
0.670035      	((4.488185e+03 5.737941e+02 -1.052983e+05) (-4.164325e+00 1.786520e-01 -4.577316e+01)) ((8.650469e+01 -6.930593e+03 3.081782e+02) (-2.226376e-01 -4.224131e+01 2.932657e+00))
0.685877      	((4.399326e+03 5.442266e+02 -1.051564e+05) (-3.985495e+00 1.016696e-01 -4.659057e+01)) ((7.855053e+01 -7.396599e+03 3.233592e+02) (-2.399736e-01 -4.265293e+01 2.559438e+00))
0.701805      	((4.321500e+03 5.362177e+02 -1.049830e+05) (-3.941163e+00 -1.585408e-02 -4.738501e+01)) ((7.832644e+01 -7.808725e+03 3.767620e+02) (-2.447552e-01 -4.301967e+01 2.174039e+00))
0.71783       	((4.254272e+03 4.874657e+02 -1.046877e+05) (-3.989688e+00 -1.506779e-01 -4.810942e+01)) ((8.631151e+01 -8.130082e+03 4.097035e+02) (-2.560987e-01 -4.342400e+01 1.804347e+00))
0.733964      	((4.187585e+03 4.470186e+02 -1.043432e+05) (-4.069046e+00 -2.594685e-01 -4.871614e+01)) ((8.966004e+01 -8.414055e+03 4.484398e+02) (-2.918843e-01 -4.390053e+01 1.505871e+00))
0.750221      	((4.122740e+03 3.901503e+02 -1.039068e+05) (-4.183109e+00 -3.199209e-01 -4.915404e+01)) ((8.955826e+01 -8.709811e+03 4.681807e+02) (-3.566476e-01 -4.439587e+01 1.295645e+00))
0.766615      	((4.061594e+03 3.465915e+02 -1.035417e+05) (-4.341693e+00 -3.303523e-01 -4.941137e+01)) ((8.313310e+01 -8.929907e+03 4.978507e+02) (-4.333782e-01 -4.491139e+01 1.174761e+00))
0.783132      	((3.998408e+03 2.545284e+02 -1.032371e+05) (-4.514004e+00 -3.332765e-01 -4.952683e+01)) ((8.197079e+01 -9.069120e+03 5.103871e+02) (-4.856313e-01 -4.545739e+01 1.140321e+00))
0.799777      	((3.937272e+03 2.076565e+02 -1.029862e+05) (-4.685344e+00 -3.515915e-01 -4.952241e+01)) ((8.146240e+01 -9.120097e+03 5.494388e+02) (-5.012266e-01 -4.598483e+01 1.219073e+00))
0.816476      	((3.872158e+03 1.507522e+02 -1.028691e+05) (-4.885003e+00 -3.616933e-01 -4.943365e+01)) ((7.609316e+01 -9.137108e+03 6.289601e+02) (-4.857588e-01 -4.643937e+01 1.357334e+00))
0.833218      	((3.808363e+03 1.245988e+02 -1.028255e+05) (-5.214913e+00 -3.534524e-01 -4.929913e+01)) ((6.471685e+01 -9.174655e+03 7.225506e+02) (-4.563381e-01 -4.678872e+01 1.521848e+00))
0.849996      	((3.743252e+03 1.078012e+02 -1.027674e+05) (-5.709424e+00 -3.442905e-01 -4.919191e+01)) ((5.309076e+01 -9.210478e+03 7.963572e+02) (-4.105898e-01 -4.708163e+01 1.777460e+00))
0.866801      	((3.684980e+03 9.783488e+01 -1.027848e+05) (-6.341887e+00 -3.428894e-01 -4.915567e+01)) ((3.906709e+01 -9.243763e+03 8.516682e+02) (-3.427838e-01 -4.729808e+01 2.166600e+00))
0.883624      	((3.632907e+03 9.816181e+01 -1.027464e+05) (-7.073949e+00 -3.800850e-01 -4.918014e+01)) ((2.759308e+01 -9.200402e+03 9.294755e+02) (-2.742919e-01 -4.739981e+01 2.678862e+00))
0.900458      	((3.585394e+03 1.092813e+02 -1.027426e+05) (-7.881521e+00 -4.114417e-01 -4.924230e+01)) ((1.795923e+01 -9.202513e+03 9.971344e+02) (-2.387245e-01 -4.739319e+01 3.154471e+00))
0.9173        	((3.544406e+03 1.124609e+02 -1.026624e+05) (-8.748280e+00 -4.229562e-01 -4.939242e+01)) ((1.564242e+01 -9.283857e+03 1.065826e+03) (-2.309344e-01 -4.744864e+01 3.603268e+00))
0.93415       	((3.514531e+03 1.109493e+02 -1.026183e+05) (-9.614586e+00 -4.332160e-01 -4.964069e+01)) ((2.541052e+01 -9.335015e+03 1.165707e+03) (-2.342141e-01 -4.761416e+01 4.071651e+00))
0.951009      	((3.486581e+03 1.111251e+02 -1.026039e+05) (-1.033774e+01 -4.460724e-01 -4.993019e+01)) ((3.865448e+01 -9.439431e+03 1.285695e+03) (-2.379547e-01 -4.779477e+01 4.508184e+00))
0.967883      	((3.458083e+03 1.769348e+02 -1.025093e+05) (-1.078637e+01 -4.280675e-01 -5.022371e+01)) ((4.885584e+01 -9.617421e+03 1.370623e+03) (-2.414852e-01 -4.791832e+01 4.832848e+00))
0.984779      	((3.441108e+03 2.360826e+02 -1.023889e+05) (-1.085514e+01 -3.691108e-01 -5.055051e+01)) ((5.918535e+01 -9.836934e+03 1.416071e+03) (-2.354582e-01 -4.808985e+01 5.108297e+00))
1.001703      	((3.423702e+03 2.746460e+02 -1.022339e+05) (-1.054015e+01 -3.125107e-01 -5.088906e+01)) ((6.725057e+01 -1.014927e+04 1.430305e+03) (-2.110788e-01 -4.833342e+01 5.394399e+00))
1.018656      	((3.414271e+03 2.946439e+02 -1.020585e+05) (-9.893191e+00 -2.786950e-01 -5.115760e+01)) ((6.827725e+01 -1.045331e+04 1.438693e+03) (-1.882248e-01 -4.861089e+01 5.702814e+00))
1.035642      	((3.409565e+03 3.222486e+02 -1.017691e+05) (-8.961412e+00 -2.474168e-01 -5.129406e+01)) ((6.646677e+01 -1.074199e+04 1.438616e+03) (-1.893303e-01 -4.887955e+01 5.959546e+00))
1.052661      	((3.407137e+03 3.276918e+02 -1.013640e+05) (-7.786004e+00 -2.127970e-01 -5.129836e+01)) ((6.545440e+01 -1.102375e+04 1.389258e+03) (-2.200152e-01 -4.917102e+01 6.178951e+00))
1.069713      	((3.405711e+03 3.214759e+02 -1.009438e+05) (-6.484540e+00 -2.261309e-01 -5.115427e+01)) ((6.050249e+01 -1.122038e+04 1.353873e+03) (-2.530254e-01 -4.948309e+01 6.466188e+00))
1.086797      	((3.414645e+03 3.081279e+02 -1.005013e+05) (-5.246073e+00 -2.506604e-01 -5.088300e+01)) ((6.159973e+01 -1.131627e+04 1.335441e+03) (-2.764879e-01 -4.974727e+01 6.790371e+00))
1.103911      	((3.428881e+03 2.703023e+02 -1.000530e+05) (-4.159737e+00 -2.284347e-01 -5.052010e+01)) ((6.809757e+01 -1.131597e+04 1.320434e+03) (-2.866887e-01 -4.988519e+01 7.135595e+00))
1.121051      	((3.443201e+03 2.458505e+02 -9.966766e+04) (-3.220474e+00 -1.361535e-01 -5.012520e+01)) ((7.865659e+01 -1.128021e+04 1.307474e+03) (-2.730566e-01 -4.989678e+01 7.549959e+00))
1.138217      	((3.460539e+03 2.028762e+02 -9.945125e+04) (-2.399882e+00 4.408889e-03 -4.971325e+01)) ((9.304969e+01 -1.119770e+04 1.325945e+03) (-2.361626e-01 -4.966054e+01 7.974423e+00))
1.155408      	((3.478049e+03 1.495669e+02 -9.939132e+04) (-1.675212e+00 1.612133e-01 -4.930847e+01)) ((1.047676e+02 -1.114061e+04 1.347134e+03) (-1.923493e-01 -4.919113e+01 8.353970e+00))
1.172626      	((3.492478e+03 9.504079e+01 -9.938046e+04) (-1.000045e+00 2.970581e-01 -4.897912e+01)) ((1.200684e+02 -1.115716e+04 1.334828e+03) (-1.415388e-01 -4.862009e+01 8.715508e+00))
1.189872      	((3.503841e+03 6.429441e+01 -9.949982e+04) (-3.545276e-01 3.776845e-01 -4.883045e+01)) ((1.410852e+02 -1.125287e+04 1.332878e+03) (-8.873330e-02 -4.806708e+01 9.065209e+00))
1.20715       	((3.503069e+03 4.572788e+01 -9.965666e+04) (2.519327e-01 4.099835e-01 -4.884985e+01)) ((1.599704e+02 -1.147511e+04 1.330984e+03) (-2.311675e-02 -4.746675e+01 9.373304e+00))
1.224463      	((3.495608e+03 5.195968e+01 -9.985807e+04) (8.024932e-01 4.167514e-01 -4.901375e+01)) ((1.727493e+02 -1.178710e+04 1.303606e+03) (6.271844e-02 -4.689395e+01 9.561327e+00))
1.241815      	((3.478749e+03 6.260215e+01 -9.996401e+04) (1.322289e+00 4.038652e-01 -4.929394e+01)) ((1.863438e+02 -1.213310e+04 1.258740e+03) (1.452096e-01 -4.653106e+01 9.609978e+00))
1.259211      	((3.448760e+03 1.007654e+02 -9.999940e+04) (1.850419e+00 3.902817e-01 -4.963522e+01)) ((1.990024e+02 -1.249080e+04 1.203484e+03) (2.146239e-01 -4.644976e+01 9.519624e+00))
1.276652      	((3.416279e+03 1.739688e+02 -9.994530e+04) (2.409024e+00 3.939127e-01 -4.997052e+01)) ((2.121830e+02 -1.279221e+04 1.147356e+03) (2.714767e-01 -4.657517e+01 9.305861e+00))
1.294137      	((3.379626e+03 2.363111e+02 -9.975355e+04) (2.978364e+00 4.149770e-01 -5.028173e+01)) ((2.264305e+02 -1.302631e+04 1.108846e+03) (2.991615e-01 -4.687024e+01 8.999692e+00))
1.311671      	((3.343544e+03 2.782179e+02 -9.949736e+04) (3.578449e+00 4.135327e-01 -5.052027e+01)) ((2.387645e+02 -1.317588e+04 1.081584e+03) (3.041690e-01 -4.720531e+01 8.678366e+00))
1.329264      	((3.304744e+03 2.673456e+02 -9.914204e+04) (4.234347e+00 3.710181e-01 -5.067210e+01)) ((2.473678e+02 -1.332186e+04 1.116525e+03) (2.894790e-01 -4.753088e+01 8.412376e+00))
1.346919      	((3.268164e+03 2.281781e+02 -9.879548e+04) (4.922373e+00 3.176875e-01 -5.074481e+01)) ((2.526593e+02 -1.343300e+04 1.181341e+03) (2.605121e-01 -4.787394e+01 8.176499e+00))
1.36463       	((3.235577e+03 1.941460e+02 -9.841807e+04) (5.597969e+00 2.784088e-01 -5.072041e+01)) ((2.544814e+02 -1.355040e+04 1.216001e+03) (2.233373e-01 -4.820308e+01 7.913743e+00))
1.382385      	((3.200595e+03 1.568193e+02 -9.804905e+04) (6.258392e+00 2.558269e-01 -5.057432e+01)) ((2.543598e+02 -1.365992e+04 1.232724e+03) (1.675210e-01 -4.843076e+01 7.645347e+00))
1.400152      	((3.167686e+03 9.686445e+01 -9.768536e+04) (6.933149e+00 2.480428e-01 -5.030586e+01)) ((2.502062e+02 -1.372832e+04 1.235106e+03) (9.937417e-02 -4.851751e+01 7.413022e+00))
1.417934      	((3.134123e+03 2.900052e+01 -9.736807e+04) (7.632058e+00 2.487303e-01 -4.994336e+01)) ((2.425947e+02 -1.375354e+04 1.233926e+03) (4.956297e-02 -4.846422e+01 7.192275e+00))
1.435738      	((3.100803e+03 -1.866048e+01 -9.707531e+04) (8.298554e+00 2.158328e-01 -4.955568e+01)) ((2.325901e+02 -1.377783e+04 1.183756e+03) (3.233574e-02 -4.834328e+01 7.055147e+00))
1.453568      	((3.068823e+03 -4.769998e+01 -9.684686e+04) (8.888823e+00 1.420226e-01 -4.919404e+01)) ((2.227864e+02 -1.374642e+04 1.123635e+03) (4.078659e-02 -4.823814e+01 7.000602e+00))
1.471432      	((3.040478e+03 -5.749284e+01 -9.660399e+04) (9.408713e+00 7.508804e-02 -4.885294e+01)) ((2.210808e+02 -1.367528e+04 1.046439e+03) (5.140341e-02 -4.811708e+01 6.931116e+00))
1.489332      	((3.014779e+03 -8.041345e+01 -9.634072e+04) (9.882109e+00 2.281919e-02 -4.856288e+01)) ((2.286265e+02 -1.361524e+04 9.718277e+02) (6.169433e-02 -4.800652e+01 6.864656e+00))
1.507273      	((2.990510e+03 -1.000004e+02 -9.611393e+04) (1.037163e+01 -3.470557e-02 -4.832758e+01)) ((2.430428e+02 -1.358217e+04 9.146284e+02) (7.523837e-02 -4.790426e+01 6.851066e+00))
1.525254      	((2.970924e+03 -1.132872e+02 -9.591750e+04) (1.089022e+01 -1.128394e-01 -4.812834e+01)) ((2.558481e+02 -1.358662e+04 8.569538e+02) (1.012407e-01 -4.778351e+01 6.921401e+00))
1.543272      	((2.952572e+03 -1.275996e+02 -9.573350e+04) (1.139279e+01 -2.005916e-01 -4.793951e+01)) ((2.670757e+02 -1.366636e+04 8.221377e+02) (1.248378e-01 -4.761475e+01 7.043816e+00))
1.561323      	((2.934756e+03 -1.425891e+02 -9.558456e+04) (1.188571e+01 -2.756820e-01 -4.776819e+01)) ((2.746216e+02 -1.376655e+04 7.819661e+02) (1.453799e-01 -4.748171e+01 7.185279e+00))
1.579403      	((2.917039e+03 -1.501153e+02 -9.538958e+04) (1.233100e+01 -3.547706e-01 -4.760399e+01)) ((2.737227e+02 -1.385588e+04 7.530370e+02) (1.736425e-01 -4.742635e+01 7.354476e+00))
1.59751       	((2.899995e+03 -1.578853e+02 -9.516952e+04) (1.271000e+01 -4.533609e-01 -4.738630e+01)) ((2.652828e+02 -1.393705e+04 7.433394e+02) (2.125226e-01 -4.735017e+01 7.574901e+00))
1.615638      	((2.886423e+03 -1.659757e+02 -9.489897e+04) (1.303498e+01 -5.654753e-01 -4.709882e+01)) ((2.551629e+02 -1.395981e+04 7.252855e+02) (2.486465e-01 -4.720523e+01 7.849376e+00))
1.633788      	((2.873290e+03 -1.620841e+02 -9.460598e+04) (1.329709e+01 -6.516408e-01 -4.680903e+01)) ((2.451103e+02 -1.392537e+04 6.994642e+02) (2.520493e-01 -4.711352e+01 8.089844e+00))
1.651965      	((2.864781e+03 -1.604880e+02 -9.429742e+04) (1.350595e+01 -7.054543e-01 -4.650011e+01)) ((2.392972e+02 -1.381076e+04 6.779437e+02) (2.299828e-01 -4.703815e+01 8.277781e+00))
1.670179      	((2.856494e+03 -1.667273e+02 -9.401316e+04) (1.369058e+01 -7.706801e-01 -4.613988e+01)) ((2.377304e+02 -1.365703e+04 6.629782e+02) (2.096383e-01 -4.689233e+01 8.493013e+00))
1.688433      	((2.847051e+03 -1.613721e+02 -9.375381e+04) (1.386105e+01 -8.530213e-01 -4.577892e+01)) ((2.381555e+02 -1.348982e+04 6.506560e+02) (1.973746e-01 -4.672208e+01 8.740702e+00))
1.70673       	((2.835987e+03 -1.463455e+02 -9.354081e+04) (1.401671e+01 -9.276248e-01 -4.547758e+01)) ((2.412535e+02 -1.331849e+04 6.265052e+02) (1.925674e-01 -4.659096e+01 8.962153e+00))
1.72507       	((2.822025e+03 -1.258526e+02 -9.339164e+04) (1.417337e+01 -9.606062e-01 -4.524373e+01)) ((2.463430e+02 -1.316794e+04 5.908440e+02) (1.854515e-01 -4.649140e+01 9.095108e+00))
1.743454      	((2.804018e+03 -1.076600e+02 -9.330904e+04) (1.432570e+01 -9.449103e-01 -4.508276e+01)) ((2.504225e+02 -1.307653e+04 5.632277e+02) (1.653571e-01 -4.643378e+01 9.141019e+00))
1.761879      	((2.785903e+03 -9.334656e+01 -9.324898e+04) (1.444823e+01 -8.822194e-01 -4.497839e+01)) ((2.516346e+02 -1.301627e+04 5.407932e+02) (1.384748e-01 -4.640406e+01 9.110286e+00))
1.780342      	((2.766932e+03 -8.221913e+01 -9.319430e+04) (1.452681e+01 -8.043178e-01 -4.488957e+01)) ((2.477346e+02 -1.300071e+04 5.117743e+02) (1.235065e-01 -4.636340e+01 9.055664e+00))
1.798843      	((2.743921e+03 -6.510716e+01 -9.311360e+04) (1.456253e+01 -7.253909e-01 -4.478915e+01)) ((2.382944e+02 -1.298709e+04 4.930382e+02) (1.216238e-01 -4.631485e+01 8.995209e+00))
1.817381      	((2.722262e+03 -6.200293e+01 -9.295495e+04) (1.455099e+01 -6.480930e-01 -4.465691e+01)) ((2.283790e+02 -1.294777e+04 4.748326e+02) (1.240805e-01 -4.626237e+01 8.929142e+00))
1.835956      	((2.701663e+03 -5.277100e+01 -9.276882e+04) (1.449998e+01 -5.890685e-01 -4.446481e+01)) ((2.204114e+02 -1.286869e+04 4.485036e+02) (1.270274e-01 -4.617175e+01 8.880728e+00))
1.854569      	((2.681081e+03 -3.363858e+01 -9.255248e+04) (1.443336e+01 -5.303485e-01 -4.421136e+01)) ((2.168962e+02 -1.274856e+04 4.233537e+02) (1.194047e-01 -4.605970e+01 8.830748e+00))
1.873212      	((2.660462e+03 -2.205535e+01 -9.232995e+04) (1.436699e+01 -4.574372e-01 -4.391027e+01)) ((2.193894e+02 -1.258901e+04 4.028393e+02) (1.042242e-01 -4.593945e+01 8.765682e+00))
1.891871      	((2.640841e+03 -1.699872e+00 -9.212940e+04) (1.431601e+01 -3.736431e-01 -4.358647e+01)) ((2.247071e+02 -1.241495e+04 3.744750e+02) (9.248057e-02 -4.582756e+01 8.686609e+00))
1.910549      	((2.621906e+03 1.327586e+01 -9.195718e+04) (1.428286e+01 -3.220956e-01 -4.327427e+01)) ((2.304175e+02 -1.225492e+04 3.472022e+02) (8.839704e-02 -4.576228e+01 8.680285e+00))
1.929251      	((2.602874e+03 1.523489e+01 -9.178495e+04) (1.426549e+01 -2.908864e-01 -4.299669e+01)) ((2.330376e+02 -1.210750e+04 3.245381e+02) (8.547434e-02 -4.575221e+01 8.714776e+00))
1.947978      	((2.583690e+03 -1.653655e+00 -9.160846e+04) (1.426068e+01 -2.469916e-01 -4.276678e+01)) ((2.309497e+02 -1.198443e+04 3.094112e+02) (8.479947e-02 -4.581464e+01 8.711064e+00))
1.966733      	((2.565198e+03 -1.609220e+01 -9.144049e+04) (1.425177e+01 -2.059540e-01 -4.256879e+01)) ((2.230985e+02 -1.188672e+04 2.871795e+02) (9.353829e-02 -4.590123e+01 8.693931e+00))
1.985516      	((2.544531e+03 -2.841131e+01 -9.126552e+04) (1.421979e+01 -1.748116e-01 -4.238673e+01)) ((2.109934e+02 -1.180238e+04 2.675357e+02) (1.044305e-01 -4.596668e+01 8.665125e+00))
2.004323      	((2.524916e+03 -6.333174e+01 -9.106075e+04) (1.415571e+01 -1.494977e-01 -4.222442e+01)) ((1.987654e+02 -1.170099e+04 2.546750e+02) (1.051413e-01 -4.602918e+01 8.616252e+00))
2.023151      	((2.501954e+03 -1.082595e+02 -9.085778e+04) (1.406336e+01 -1.234232e-01 -4.207121e+01)) ((1.895636e+02 -1.159843e+04 2.347437e+02) (9.072782e-02 -4.609344e+01 8.547685e+00))
2.041997      	((2.481246e+03 -1.413256e+02 -9.063252e+04) (1.395142e+01 -8.560402e-02 -4.190960e+01)) ((1.860432e+02 -1.147354e+04 2.075697e+02) (5.772023e-02 -4.616487e+01 8.451454e+00))
2.060859      	((2.461850e+03 -1.642539e+02 -9.042380e+04) (1.382295e+01 -3.412080e-02 -4.171682e+01)) ((1.876766e+02 -1.134091e+04 1.754625e+02) (1.603849e-02 -4.622626e+01 8.345706e+00))
2.079731      	((2.441423e+03 -1.794979e+02 -9.025881e+04) (1.372274e+01 1.274940e-02 -4.148892e+01)) ((1.920756e+02 -1.122976e+04 1.480097e+02) (-1.209908e-02 -4.626179e+01 8.258293e+00))
2.098613      	((2.420898e+03 -1.932085e+02 -9.013978e+04) (1.369048e+01 3.623630e-02 -4.123672e+01)) ((1.954315e+02 -1.115800e+04 1.214696e+02) (-2.495506e-02 -4.628293e+01 8.200088e+00))
2.117501      	((2.398518e+03 -2.125236e+02 -9.004882e+04) (1.373891e+01 3.966999e-02 -4.098400e+01)) ((1.966505e+02 -1.109765e+04 9.747213e+01) (-2.851631e-02 -4.635372e+01 8.137014e+00))
2.136395      	((2.376652e+03 -2.291190e+02 -8.997949e+04) (1.384485e+01 2.303193e-02 -4.074462e+01)) ((1.927170e+02 -1.104294e+04 6.404091e+01) (-1.851648e-02 -4.648146e+01 8.069199e+00))
2.155296      	((2.353306e+03 -2.342099e+02 -8.992367e+04) (1.396540e+01 -3.365690e-02 -4.051876e+01)) ((1.838273e+02 -1.101302e+04 3.508161e+01) (1.147077e-03 -4.663241e+01 8.034856e+00))
2.174202      	((2.330920e+03 -2.265530e+02 -8.985542e+04) (1.405156e+01 -1.097853e-01 -4.030411e+01)) ((1.712088e+02 -1.096930e+04 -1.189564e+01) (2.255528e-02 -4.674906e+01 8.010704e+00))
2.193114      	((2.308281e+03 -2.159597e+02 -8.975961e+04) (1.408313e+01 -1.661395e-01 -4.010473e+01)) ((1.582728e+02 -1.093137e+04 -7.282990e+01) (3.168285e-02 -4.683909e+01 7.925030e+00))
2.21203       	((2.284849e+03 -2.126375e+02 -8.960858e+04) (1.404918e+01 -1.800214e-01 -3.992480e+01)) ((1.489635e+02 -1.091037e+04 -1.439494e+02) (2.543932e-02 -4.692653e+01 7.781814e+00))
2.230949      	((2.259960e+03 -2.381391e+02 -8.944070e+04) (1.395705e+01 -1.435937e-01 -3.975351e+01)) ((1.441626e+02 -1.088062e+04 -2.083493e+02) (6.521093e-03 -4.699577e+01 7.609969e+00))
2.249869      	((2.234698e+03 -2.820334e+02 -8.928516e+04) (1.382095e+01 -6.998000e-02 -3.957559e+01)) ((1.445487e+02 -1.087000e+04 -2.765142e+02) (-2.230633e-02 -4.701259e+01 7.414290e+00))
2.268784      	((2.207493e+03 -3.261161e+02 -8.913859e+04) (1.368739e+01 3.322189e-02 -3.936958e+01)) ((1.486207e+02 -1.088684e+04 -3.495401e+02) (-7.073816e-02 -4.695599e+01 7.160989e+00))
2.287691      	((2.178476e+03 -3.713434e+02 -8.902237e+04) (1.360221e+01 1.485458e-01 -3.911563e+01)) ((1.550663e+02 -1.091416e+04 -4.264864e+02) (-1.299491e-01 -4.684944e+01 6.830699e+00))
2.306587      	((2.147314e+03 -4.077225e+02 -8.893664e+04) (1.357393e+01 2.384641e-01 -3.886308e+01)) ((1.581184e+02 -1.094291e+04 -4.816444e+02) (-1.687218e-01 -4.681765e+01 6.484987e+00))
2.325469      	((2.116303e+03 -4.482638e+02 -8.889801e+04) (1.358494e+01 2.675067e-01 -3.863882e+01)) ((1.572202e+02 -1.094306e+04 -5.353413e+02) (-1.723760e-01 -4.691116e+01 6.177631e+00))
2.344336      	((2.087511e+03 -4.823947e+02 -8.888144e+04) (1.364337e+01 2.409244e-01 -3.843138e+01)) ((1.504540e+02 -1.090565e+04 -5.802075e+02) (-1.491027e-01 -4.709877e+01 5.882334e+00))
2.363186      	((2.061360e+03 -5.047610e+02 -8.888099e+04) (1.372000e+01 1.693891e-01 -3.824470e+01)) ((1.387682e+02 -1.083990e+04 -6.304584e+02) (-1.008251e-01 -4.731726e+01 5.603667e+00))
2.382022      	((2.035688e+03 -5.094171e+02 -8.890271e+04) (1.377947e+01 4.961030e-02 -3.809536e+01)) ((1.214569e+02 -1.075656e+04 -6.804408e+02) (-3.759186e-02 -4.751175e+01 5.360763e+00))
2.400844      	((2.009043e+03 -4.842014e+02 -8.890071e+04) (1.380633e+01 -1.051244e-01 -3.797759e+01)) ((1.018128e+02 -1.069057e+04 -7.260900e+02) (2.192793e-02 -4.766187e+01 5.149158e+00))
2.419656      	((1.984117e+03 -4.520813e+02 -8.888144e+04) (1.378156e+01 -2.360302e-01 -3.789241e+01)) ((8.543375e+01 -1.064781e+04 -7.651061e+02) (6.445078e-02 -4.778607e+01 4.964243e+00))
2.438459      	((1.959889e+03 -4.618884e+02 -8.879612e+04) (1.370337e+01 -3.069057e-01 -3.783457e+01)) ((7.918009e+01 -1.062816e+04 -8.115874e+02) (7.805998e-02 -4.792397e+01 4.799366e+00))
2.45726       	((1.933616e+03 -4.962074e+02 -8.868046e+04) (1.356256e+01 -3.350105e-01 -3.777457e+01)) ((7.873007e+01 -1.067543e+04 -8.472365e+02) (6.228218e-02 -4.806793e+01 4.636494e+00))
2.476065      	((1.906609e+03 -5.540611e+02 -8.857879e+04) (1.335300e+01 -3.411793e-01 -3.767827e+01)) ((8.655946e+01 -1.077558e+04 -8.988383e+02) (2.357521e-02 -4.817533e+01 4.481012e+00))
2.49488       	((1.880139e+03 -6.355701e+02 -8.850767e+04) (1.313482e+01 -3.283403e-01 -3.754971e+01)) ((9.864233e+01 -1.085228e+04 -9.441219e+02) (-2.933597e-02 -4.824174e+01 4.312672e+00))
2.513707      	((1.854935e+03 -7.265197e+02 -8.846910e+04) (1.292203e+01 -3.179556e-01 -3.741600e+01)) ((1.069601e+02 -1.093948e+04 -9.868257e+02) (-7.868237e-02 -4.826476e+01 4.098933e+00))
2.532549      	((1.828943e+03 -8.096302e+02 -8.844616e+04) (1.269847e+01 -3.385406e-01 -3.729829e+01)) ((1.085629e+02 -1.100016e+04 -1.025451e+03) (-1.073174e-01 -4.826299e+01 3.827719e+00))
2.551405      	((1.805323e+03 -8.918381e+02 -8.844294e+04) (1.248325e+01 -4.226104e-01 -3.718989e+01)) ((9.935194e+01 -1.097736e+04 -1.066664e+03) (-1.015550e-01 -4.824669e+01 3.528407e+00))
2.57027       	((1.784600e+03 -9.461938e+02 -8.843691e+04) (1.228962e+01 -5.789822e-01 -3.708165e+01)) ((8.143688e+01 -1.089144e+04 -1.098422e+03) (-6.910875e-02 -4.820600e+01 3.211699e+00))