# Forces      
# CofR        : (0.000000e+00 0.000000e+00 0.000000e+00)
# Time        forces(pressure viscous)	moments(pressure viscous)
0             	((0.000000e+00 0.000000e+00 0.000000e+00) (0.000000e+00 0.000000e+00 0.000000e+00)) ((0.000000e+00 0.000000e+00 0.000000e+00) (0.000000e+00 0.000000e+00 0.000000e+00))
0.012         	((1.773835e+03 7.227137e+04 -2.825253e+02) (5.310746e-02 2.899994e+00 7.500442e-02)) ((8.591815e+01 9.533660e+02 3.755838e+05) (1.708148e-01 -1.134686e-01 3.318975e+01))
0.0256636     	((2.482363e+03 -5.397155e+04 -4.023501e+02) (-3.372205e-01 3.390739e+00 1.345711e-01)) ((6.988220e+02 7.927790e+01 -2.137840e+05) (2.643985e-01 -2.109435e-01 5.158519e+01))
0.0410359     	((1.798719e+03 3.157694e+04 -3.606404e+02) (-1.244421e+00 -6.936042e-01 2.523015e-01)) ((1.250590e+02 6.584447e+02 1.697896e+05) (4.659115e-01 -3.723644e-02 8.203077e+01))
0.0575707     	((2.039858e+03 -2.398492e+04 -4.201620e+02) (-1.426299e+00 -7.502854e+00 2.828907e-01)) ((4.176549e+02 7.913723e+01 -8.597303e+04) (1.927589e+00 2.907989e-01 1.606429e+02))
0.0740527     	((1.882568e+03 1.261729e+04 -2.869105e+02) (1.345575e+00 -4.946869e+00 2.213843e-01)) ((1.213636e+02 5.252152e+02 8.146589e+04) (2.725154e+00 6.428430e-01 2.648918e+02))
0.0917132     	((1.905957e+03 -1.123972e+04 -4.007067e+02) (1.818926e+00 -4.458547e+00 5.104330e-01)) ((2.807279e+02 2.935661e+02 -2.917564e+04) (2.135333e+00 5.053300e-01 2.750017e+02))
0.109427      	((1.857406e+03 4.497996e+03 -2.486793e+02) (1.990855e+00 -5.719994e+00 6.177199e-01)) ((1.324038e+02 4.986154e+02 4.368756e+04) (1.978732e+00 5.912076e-01 2.636574e+02))
0.127571      	((1.867381e+03 -5.748074e+03 -3.564242e+02) (2.059034e+00 -6.883789e+00 6.290369e-01)) ((2.007250e+02 5.014414e+02 -4.458386e+03) (1.845733e+00 6.809264e-01 2.515781e+02))
0.145842      	((1.876003e+03 9.581038e+02 -2.730036e+02) (2.084179e+00 -6.361224e+00 6.620271e-01)) ((1.280115e+02 5.885845e+02 2.717992e+04) (1.685693e+00 7.862159e-01 2.398233e+02))
0.164406      	((1.898858e+03 -3.467744e+03 -3.806889e+02) (2.185506e+00 -5.413564e+00 7.183023e-01)) ((1.563577e+02 6.785616e+02 6.369231e+03) (1.526939e+00 9.555760e-01 2.279868e+02))
0.182955      	((1.922484e+03 -6.503512e+02 -4.051088e+02) (2.229762e+00 -4.486292e+00 6.736613e-01)) ((1.274989e+02 6.793822e+02 1.995909e+04) (1.418107e+00 1.087173e+00 2.172751e+02))
0.201671      	((1.962305e+03 -2.473434e+03 -5.006058e+02) (2.258764e+00 -3.563291e+00 5.983868e-01)) ((1.360225e+02 7.625623e+02 1.092332e+04) (1.322072e+00 1.173750e+00 2.078056e+02))
0.220432      	((1.986751e+03 -1.284186e+03 -5.791359e+02) (2.261225e+00 -2.614456e+00 5.359245e-01)) ((1.264328e+02 7.361783e+02 1.670097e+04) (1.223355e+00 1.297918e+00 1.996129e+02))
0.239134      	((2.002801e+03 -2.009546e+03 -6.710568e+02) (2.263474e+00 -1.741121e+00 4.998256e-01)) ((1.325500e+02 7.347991e+02 1.271010e+04) (1.120135e+00 1.413765e+00 1.925071e+02))
0.257902      	((2.020949e+03 -1.485863e+03 -7.820992e+02) (2.251057e+00 -9.503969e-01 4.814887e-01)) ((1.324490e+02 6.017279e+02 1.510682e+04) (1.014827e+00 1.526606e+00 1.863861e+02))
0.276573      	((2.010705e+03 -1.773184e+03 -8.626642e+02) (2.253302e+00 -2.806677e-01 4.813064e-01)) ((1.415704e+02 5.504586e+02 1.329947e+04) (9.225593e-01 1.651180e+00 1.812040e+02))
0.295264      	((2.018652e+03 -1.525825e+03 -9.469932e+02) (2.250241e+00 2.616713e-01 4.324869e-01)) ((1.454610e+02 4.259823e+02 1.433579e+04) (8.419009e-01 1.675288e+00 1.768347e+02))
0.31398       	((1.987940e+03 -1.622651e+03 -1.013594e+03) (2.243194e+00 6.453634e-01 3.139191e-01)) ((1.515109e+02 3.969399e+02 1.349282e+04) (7.926738e-01 1.538225e+00 1.732430e+02))
0.332628      	((1.992197e+03 -1.498900e+03 -1.054106e+03) (2.241704e+00 8.820754e-01 1.582899e-01)) ((1.560289e+02 3.375452e+02 1.391796e+04) (7.847460e-01 1.320374e+00 1.702682e+02))
0.351349      	((1.949571e+03 -1.538792e+03 -1.083670e+03) (2.240382e+00 1.009764e+00 -3.820421e-02)) ((1.593424e+02 3.642964e+02 1.349434e+04) (8.024705e-01 1.026007e+00 1.677609e+02))
0.370013      	((1.957173e+03 -1.469311e+03 -1.095383e+03) (2.230518e+00 1.061248e+00 -2.460761e-01)) ((1.584867e+02 3.874725e+02 1.364949e+04) (8.336486e-01 6.996462e-01 1.656619e+02))
0.388673      	((1.914542e+03 -1.465205e+03 -1.069491e+03) (2.210915e+00 1.065366e+00 -4.530212e-01)) ((1.556826e+02 4.881911e+02 1.341307e+04) (8.757876e-01 3.839713e-01 1.638744e+02))
0.407377      	((1.924564e+03 -1.412825e+03 -1.052266e+03) (2.183938e+00 1.046866e+00 -6.481184e-01)) ((1.502359e+02 5.672956e+02 1.346630e+04) (9.313168e-01 9.039254e-02 1.623338e+02))
0.425997      	((1.887069e+03 -1.398972e+03 -1.013297e+03) (2.178857e+00 1.010430e+00 -8.258788e-01)) ((1.427812e+02 7.045900e+02 1.334393e+04) (9.948965e-01 -1.768629e-01 1.609975e+02))
0.444682      	((1.901166e+03 -1.363712e+03 -9.866531e+02) (2.188704e+00 9.595736e-01 -9.810362e-01)) ((1.314939e+02 8.172019e+02 1.335142e+04) (1.052281e+00 -3.802102e-01 1.598392e+02))
0.463334      	((1.868982e+03 -1.350456e+03 -9.478853e+02) (2.197982e+00 9.229814e-01 -1.102569e+00)) ((1.186298e+02 9.652529e+02 1.329509e+04) (1.099863e+00 -5.158444e-01 1.588209e+02))
0.481966      	((1.884206e+03 -1.332264e+03 -9.184280e+02) (2.204220e+00 9.027779e-01 -1.201739e+00)) ((1.047026e+02 1.091878e+03 1.331667e+04) (1.135106e+00 -5.747550e-01 1.578846e+02))
0.500662      	((1.851369e+03 -1.328235e+03 -8.797094e+02) (2.211846e+00 8.917559e-01 -1.278524e+00)) ((9.179638e+01 1.238803e+03 1.331122e+04) (1.160456e+00 -5.782325e-01 1.570334e+02))
0.519282      	((1.868072e+03 -1.320341e+03 -8.517185e+02) (2.211103e+00 8.830417e-01 -1.347582e+00)) ((7.954415e+01 1.342248e+03 1.334808e+04) (1.179594e+00 -5.623828e-01 1.562372e+02))
0.537957      	((1.834918e+03 -1.311640e+03 -8.159850e+02) (2.211252e+00 8.728297e-01 -1.415838e+00)) ((6.649184e+01 1.471683e+03 1.335574e+04) (1.194054e+00 -5.255097e-01 1.554773e+02))
0.556623      	((1.849127e+03 -1.302414e+03 -7.755776e+02) (2.221449e+00 8.748126e-01 -1.483657e+00)) ((5.121644e+01 1.590330e+03 1.338495e+04) (1.203492e+00 -4.716025e-01 1.547644e+02))
0.575263      	((1.816799e+03 -1.288040e+03 -7.350792e+02) (2.249994e+00 8.787251e-01 -1.548084e+00)) ((3.865592e+01 1.706222e+03 1.339935e+04) (1.211089e+00 -4.044513e-01 1.540929e+02))
0.593974      	((1.830040e+03 -1.278018e+03 -6.894493e+02) (2.289873e+00 8.738422e-01 -1.614792e+00)) ((2.464933e+01 1.815948e+03 1.343585e+04) (1.217684e+00 -3.566326e-01 1.534713e+02))
0.612619      	((1.797486e+03 -1.272882e+03 -6.520293e+02) (2.333739e+00 8.627191e-01 -1.681534e+00)) ((1.494498e+01 1.901198e+03 1.346990e+04) (1.222120e+00 -3.268101e-01 1.528969e+02))
0.631315      	((1.814000e+03 -1.265456e+03 -6.210919e+02) (2.371995e+00 8.402703e-01 -1.750948e+00)) ((5.344506e+00 1.963564e+03 1.351890e+04) (1.224417e+00 -2.958515e-01 1.523689e+02))
0.650019      	((1.782273e+03 -1.257241e+03 -5.964162e+02) (2.403273e+00 7.985381e-01 -1.822240e+00)) ((2.483487e-01 2.004679e+03 1.356231e+04) (1.229804e+00 -2.886497e-01 1.519280e+02))
0.668692      	((1.800839e+03 -1.253118e+03 -5.873886e+02) (2.421998e+00 7.471473e-01 -1.900289e+00)) ((-3.185840e+00 2.017850e+03 1.362906e+04) (1.236523e+00 -2.883009e-01 1.515362e+02))
0.687444      	((1.765904e+03 -1.251794e+03 -5.866388e+02) (2.442295e+00 6.892482e-01 -1.976041e+00)) ((-9.719859e-01 2.003892e+03 1.368453e+04) (1.242536e+00 -2.960079e-01 1.511758e+02))
0.706128      	((1.784136e+03 -1.247870e+03 -5.888755e+02) (2.451558e+00 6.351346e-01 -2.049385e+00)) ((1.619855e+00 1.970194e+03 1.376399e+04) (1.248680e+00 -3.211660e-01 1.508382e+02))
0.724866      	((1.746390e+03 -1.245855e+03 -5.926551e+02) (2.452573e+00 5.852394e-01 -2.119688e+00)) ((8.725300e+00 1.926464e+03 1.383102e+04) (1.254603e+00 -3.471034e-01 1.505114e+02))
0.743623      	((1.761328e+03 -1.232914e+03 -6.071202e+02) (2.442316e+00 5.461370e-01 -2.188259e+00)) ((1.549677e+01 1.869848e+03 1.390384e+04) (1.256780e+00 -3.882789e-01 1.502032e+02))
0.762343      	((1.718248e+03 -1.231519e+03 -6.112434e+02) (2.429221e+00 5.208895e-01 -2.253156e+00)) ((2.333312e+01 1.835497e+03 1.395737e+04) (1.255644e+00 -4.256350e-01 1.498956e+02))
0.781145      	((1.734601e+03 -1.214788e+03 -6.236035e+02) (2.411158e+00 5.146763e-01 -2.323448e+00)) ((3.100757e+01 1.797152e+03 1.402107e+04) (1.253431e+00 -4.604443e-01 1.496132e+02))
0.799896      	((1.688553e+03 -1.203065e+03 -6.330100e+02) (2.392614e+00 5.251550e-01 -2.396466e+00)) ((4.046425e+01 1.778487e+03 1.405646e+04) (1.253119e+00 -5.141079e-01 1.493478e+02))
0.818693      	((1.707340e+03 -1.182225e+03 -6.404605e+02) (2.364014e+00 5.477153e-01 -2.477756e+00)) ((4.525579e+01 1.773661e+03 1.409818e+04) (1.251906e+00 -5.630043e-01 1.490990e+02))
0.837519      	((1.656002e+03 -1.171451e+03 -6.364883e+02) (2.328502e+00 5.782947e-01 -2.555257e+00)) ((4.925334e+01 1.797066e+03 1.411301e+04) (1.249135e+00 -5.997302e-01 1.488834e+02))
0.856306      	((1.678951e+03 -1.151484e+03 -6.304655e+02) (2.276562e+00 6.122704e-01 -2.627275e+00)) ((4.930410e+01 1.818829e+03 1.415454e+04) (1.246097e+00 -6.091138e-01 1.486860e+02))
0.875176      	((1.628940e+03 -1.136215e+03 -6.201770e+02) (2.234102e+00 6.564648e-01 -2.698699e+00)) ((4.857492e+01 1.867542e+03 1.417469e+04) (1.242830e+00 -6.183580e-01 1.485145e+02))
0.893991      	((1.661888e+03 -1.118782e+03 -6.050763e+02) (2.194482e+00 6.980160e-01 -2.752125e+00)) ((4.478777e+01 1.919878e+03 1.421987e+04) (1.240337e+00 -6.194441e-01 1.483515e+02))
0.912847      	((1.612703e+03 -1.104888e+03 -5.891011e+02) (2.168049e+00 7.372781e-01 -2.799802e+00)) ((4.147047e+01 1.982722e+03 1.425173e+04) (1.237185e+00 -6.050462e-01 1.482018e+02))
0.931733      	((1.654814e+03 -1.081656e+03 -5.850387e+02) (2.142322e+00 7.876457e-01 -2.833614e+00)) ((3.609544e+01 2.027006e+03 1.431434e+04) (1.235030e+00 -5.594233e-01 1.480866e+02))
0.950567      	((1.606263e+03 -1.068176e+03 -5.834963e+02) (2.138381e+00 8.443723e-01 -2.867281e+00)) ((3.302655e+01 2.064831e+03 1.436438e+04) (1.234372e+00 -5.161380e-01 1.479882e+02))
0.969469      	((1.656195e+03 -1.049745e+03 -5.862491e+02) (2.148264e+00 8.882826e-01 -2.902862e+00)) ((2.875369e+01 2.075861e+03 1.443700e+04) (1.234960e+00 -4.782819e-01 1.479058e+02))
0.988338      	((1.608676e+03 -1.044446e+03 -5.861690e+02) (2.170364e+00 9.295331e-01 -2.934655e+00)) ((2.846151e+01 2.081358e+03 1.450074e+04) (1.236836e+00 -4.525564e-01 1.478374e+02))
1.00722       	((1.662161e+03 -1.029071e+03 -5.945928e+02) (2.195658e+00 9.789124e-01 -2.977339e+00)) ((2.757694e+01 2.063087e+03 1.457888e+04) (1.237916e+00 -4.469594e-01 1.477545e+02))
1.02613       	((1.613791e+03 -1.020916e+03 -5.994939e+02) (2.229172e+00 1.034751e+00 -2.999814e+00)) ((3.128600e+01 2.035468e+03 1.462935e+04) (1.241275e+00 -4.279044e-01 1.476942e+02))
1.044994      	((1.665203e+03 -1.005854e+03 -6.082498e+02) (2.269554e+00 1.095605e+00 -3.031879e+00)) ((3.333109e+01 2.002736e+03 1.469985e+04) (1.244191e+00 -4.503339e-01 1.476247e+02))
1.063912      	((1.614712e+03 -9.996352e+02 -6.180561e+02) (2.325151e+00 1.149697e+00 -3.055831e+00)) ((3.833496e+01 1.966529e+03 1.474226e+04) (1.249653e+00 -4.741396e-01 1.475522e+02))
1.082795      	((1.664736e+03 -9.845825e+02 -6.293201e+02) (2.384503e+00 1.193900e+00 -3.075672e+00)) ((4.238717e+01 1.934492e+03 1.481430e+04) (1.257363e+00 -5.108555e-01 1.474817e+02))
1.101682      	((1.614228e+03 -9.739529e+02 -6.413973e+02) (2.455533e+00 1.234573e+00 -3.104437e+00)) ((4.860740e+01 1.899769e+03 1.485587e+04) (1.264282e+00 -5.697473e-01 1.473859e+02))
1.120599      	((1.662692e+03 -9.537273e+02 -6.616460e+02) (2.519433e+00 1.264539e+00 -3.109655e+00)) ((5.451780e+01 1.862488e+03 1.490786e+04) (1.277094e+00 -5.976699e-01 1.472980e+02))
1.139457      	((1.615625e+03 -9.400341e+02 -6.648104e+02) (2.593638e+00 1.286357e+00 -3.122646e+00)) ((6.199311e+01 1.852312e+03 1.495139e+04) (1.293001e+00 -6.580820e-01 1.471876e+02))
1.158372      	((1.662459e+03 -9.161968e+02 -6.649981e+02) (2.664851e+00 1.307285e+00 -3.135773e+00)) ((6.741927e+01 1.840523e+03 1.499570e+04) (1.312580e+00 -7.200365e-01 1.470872e+02))
1.177249      	((1.615125e+03 -9.014422e+02 -6.691531e+02) (2.742406e+00 1.319566e+00 -3.140021e+00)) ((7.459045e+01 1.859673e+03 1.502899e+04) (1.337400e+00 -7.828644e-01 1.469892e+02))
1.196123      	((1.657623e+03 -8.868789e+02 -6.603688e+02) (2.820802e+00 1.322604e+00 -3.154483e+00)) ((7.831398e+01 1.876460e+03 1.504777e+04) (1.361145e+00 -8.561341e-01 1.468711e+02))
1.215034      	((1.608344e+03 -8.812857e+02 -6.556726e+02) (2.890142e+00 1.320244e+00 -3.155263e+00)) ((8.327026e+01 1.910466e+03 1.505198e+04) (1.383331e+00 -8.937202e-01 1.467770e+02))
1.233879      	((1.647294e+03 -8.760753e+02 -6.378668e+02) (2.930424e+00 1.319592e+00 -3.159777e+00)) ((8.487116e+01 1.942245e+03 1.506064e+04) (1.400209e+00 -8.931768e-01 1.466940e+02))
1.252779      	((1.600845e+03 -8.763230e+02 -6.167201e+02) (2.950672e+00 1.317635e+00 -3.161850e+00)) ((8.686097e+01 1.976856e+03 1.505588e+04) (1.411380e+00 -8.529969e-01 1.466364e+02))
1.271665      	((1.638716e+03 -8.786772e+02 -5.905620e+02) (2.946484e+00 1.318592e+00 -3.150840e+00)) ((8.607511e+01 2.006003e+03 1.505882e+04) (1.421907e+00 -7.976060e-01 1.465803e+02))
1.290528      	((1.596481e+03 -8.886326e+02 -5.749598e+02) (2.932408e+00 1.319003e+00 -3.134654e+00)) ((8.619435e+01 2.032469e+03 1.505528e+04) (1.430995e+00 -7.457386e-01 1.464870e+02))
1.309449      	((1.635234e+03 -8.967696e+02 -5.557258e+02) (2.904839e+00 1.316367e+00 -3.107180e+00)) ((8.440204e+01 2.045432e+03 1.505857e+04) (1.440209e+00 -7.052475e-01 1.463798e+02))
1.328316      	((1.597601e+03 -9.191437e+02 -5.391882e+02) (2.881975e+00 1.324166e+00 -3.061609e+00)) ((8.370268e+01 2.048686e+03 1.504926e+04) (1.448914e+00 -6.676328e-01 1.462515e+02))
1.347238      	((1.637907e+03 -9.307031e+02 -5.241915e+02) (2.859487e+00 1.338601e+00 -3.017361e+00)) ((8.087433e+01 2.042838e+03 1.503564e+04) (1.457275e+00 -6.351391e-01 1.461014e+02))
1.366166      	((1.599311e+03 -9.545419e+02 -5.247738e+02) (2.865050e+00 1.342741e+00 -2.969211e+00)) ((8.252216e+01 2.031112e+03 1.500682e+04) (1.467162e+00 -6.233693e-01 1.459598e+02))
1.385073      	((1.636117e+03 -9.753512e+02 -5.155035e+02) (2.867337e+00 1.337006e+00 -2.923752e+00)) ((8.191275e+01 2.016553e+03 1.496713e+04) (1.478753e+00 -6.290753e-01 1.458063e+02))
1.404064      	((1.597084e+03 -9.951429e+02 -5.155186e+02) (2.882461e+00 1.330062e+00 -2.879304e+00)) ((8.658022e+01 1.984615e+03 1.492393e+04) (1.489766e+00 -6.324975e-01 1.456853e+02))
1.423002      	((1.630545e+03 -1.007265e+03 -4.991210e+02) (2.872707e+00 1.330362e+00 -2.840551e+00)) ((8.748335e+01 1.965957e+03 1.489029e+04) (1.495100e+00 -6.225819e-01 1.455972e+02))
1.442013      	((1.593251e+03 -1.024436e+03 -4.849121e+02) (2.857823e+00 1.336397e+00 -2.814075e+00)) ((9.139235e+01 1.937812e+03 1.482858e+04) (1.495233e+00 -5.996969e-01 1.455249e+02))
1.461051      	((1.621811e+03 -1.030338e+03 -4.612238e+02) (2.825937e+00 1.349814e+00 -2.790148e+00)) ((9.126426e+01 1.927072e+03 1.479499e+04) (1.494521e+00 -5.804469e-01 1.454631e+02))
1.480072      	((1.585610e+03 -1.038632e+03 -4.364709e+02) (2.787032e+00 1.360611e+00 -2.766417e+00)) ((9.328598e+01 1.909470e+03 1.475196e+04) (1.493533e+00 -5.768579e-01 1.454043e+02))
1.499192      	((1.612117e+03 -1.042985e+03 -4.039357e+02) (2.734528e+00 1.370619e+00 -2.738497e+00)) ((9.136487e+01 1.919451e+03 1.471420e+04) (1.491681e+00 -5.882511e-01 1.453435e+02))
1.518289      	((1.580351e+03 -1.051800e+03 -3.804199e+02) (2.687247e+00 1.385592e+00 -2.704468e+00)) ((9.248811e+01 1.910262e+03 1.467846e+04) (1.489584e+00 -6.077856e-01 1.452637e+02))
1.537456      	((1.606517e+03 -1.050780e+03 -3.446756e+02) (2.648118e+00 1.396815e+00 -2.664576e+00)) ((9.184616e+01 1.894530e+03 1.465268e+04) (1.487690e+00 -6.290856e-01 1.451540e+02))
1.556674      	((1.580563e+03 -1.059679e+03 -3.181379e+02) (2.626049e+00 1.411362e+00 -2.612910e+00)) ((9.241856e+01 1.875580e+03 1.461529e+04) (1.484739e+00 -6.555918e-01 1.450289e+02))
1.575891      	((1.608640e+03 -1.060881e+03 -2.823046e+02) (2.615836e+00 1.424888e+00 -2.557855e+00)) ((9.294597e+01 1.841533e+03 1.458666e+04) (1.482423e+00 -6.912334e-01 1.448984e+02))
1.595214      	((1.587635e+03 -1.070854e+03 -2.537805e+02) (2.614038e+00 1.431487e+00 -2.494888e+00)) ((9.464235e+01 1.808599e+03 1.454599e+04) (1.479540e+00 -7.248111e-01 1.447704e+02))
1.614525      	((1.613359e+03 -1.073322e+03 -2.230157e+02) (2.609341e+00 1.428270e+00 -2.425580e+00)) ((9.582506e+01 1.770719e+03 1.451499e+04) (1.475900e+00 -7.579901e-01 1.446306e+02))
1.633899      	((1.594027e+03 -1.081691e+03 -1.995591e+02) (2.608919e+00 1.418000e+00 -2.357264e+00)) ((9.786557e+01 1.729919e+03 1.446413e+04) (1.473289e+00 -7.944829e-01 1.444696e+02))
1.653349      	((1.616765e+03 -1.080854e+03 -1.734761e+02) (2.611412e+00 1.401198e+00 -2.284742e+00)) ((9.934782e+01 1.693168e+03 1.442006e+04) (1.468921e+00 -8.426476e-01 1.442861e+02))
1.672783      	((1.598685e+03 -1.085247e+03 -1.488596e+02) (2.623493e+00 1.387647e+00 -2.208244e+00)) ((1.013801e+02 1.664385e+03 1.436748e+04) (1.464914e+00 -8.882559e-01 1.440850e+02))
1.69233       	((1.616346e+03 -1.078485e+03 -1.211896e+02) (2.643337e+00 1.373187e+00 -2.130602e+00)) ((1.028254e+02 1.646100e+03 1.431670e+04) (1.461220e+00 -9.279120e-01 1.438720e+02))
1.711881      	((1.596989e+03 -1.079457e+03 -9.542589e+01) (2.676387e+00 1.354025e+00 -2.049303e+00)) ((1.046116e+02 1.636933e+03 1.427014e+04) (1.458970e+00 -9.643091e-01 1.436568e+02))
1.731481      	((1.612058e+03 -1.068970e+03 -6.650792e+01) (2.722426e+00 1.326660e+00 -1.969007e+00)) ((1.053926e+02 1.632526e+03 1.422111e+04) (1.457813e+00 -9.960465e-01 1.434238e+02))
1.751179      	((1.593901e+03 -1.065252e+03 -4.181212e+01) (2.785594e+00 1.309614e+00 -1.888933e+00)) ((1.063570e+02 1.636198e+03 1.417180e+04) (1.457274e+00 -1.027636e+00 1.431775e+02))
1.770855      	((1.608762e+03 -1.052466e+03 -1.113991e+01) (2.858519e+00 1.294170e+00 -1.804192e+00)) ((1.065541e+02 1.644767e+03 1.412911e+04) (1.457981e+00 -1.057825e+00 1.428978e+02))
1.790642      	((1.592966e+03 -1.046156e+03 1.651955e+01) (2.945925e+00 1.270058e+00 -1.715841e+00)) ((1.072770e+02 1.657809e+03 1.408392e+04) (1.458704e+00 -1.080457e+00 1.425942e+02))
1.810457      	((1.607577e+03 -1.032265e+03 4.550972e+01) (3.046285e+00 1.240474e+00 -1.623937e+00)) ((1.073854e+02 1.676346e+03 1.404723e+04) (1.459046e+00 -1.102097e+00 1.422756e+02))
1.830301      	((1.594889e+03 -1.022075e+03 7.020649e+01) (3.160442e+00 1.204925e+00 -1.532581e+00)) ((1.076400e+02 1.694022e+03 1.401233e+04) (1.460482e+00 -1.115054e+00 1.419299e+02))
1.850248      	((1.610742e+03 -1.005003e+03 9.349001e+01) (3.277279e+00 1.177417e+00 -1.440625e+00)) ((1.074286e+02 1.717184e+03 1.397903e+04) (1.463130e+00 -1.126905e+00 1.415721e+02))
1.870188      	((1.598393e+03 -9.970276e+02 1.129931e+02) (3.390242e+00 1.150633e+00 -1.346657e+00)) ((1.079424e+02 1.737157e+03 1.394826e+04) (1.465988e+00 -1.141796e+00 1.411974e+02))
1.890221      	((1.613931e+03 -9.786129e+02 1.263939e+02) (3.495146e+00 1.121536e+00 -1.256425e+00)) ((1.084766e+02 1.759705e+03 1.391707e+04) (1.467741e+00 -1.150324e+00 1.408149e+02))
1.910316      	((1.600614e+03 -9.662555e+02 1.323233e+02) (3.588692e+00 1.094804e+00 -1.173210e+00)) ((1.094927e+02 1.783772e+03 1.388783e+04) (1.469234e+00 -1.153793e+00 1.404371e+02))
1.930444      	((1.616570e+03 -9.441625e+02 1.378404e+02) (3.666423e+00 1.057797e+00 -1.096680e+00)) ((1.107388e+02 1.803612e+03 1.386168e+04) (1.472927e+00 -1.165041e+00 1.400512e+02))
1.950683      	((1.604122e+03 -9.288474e+02 1.379691e+02) (3.734215e+00 1.018972e+00 -1.026698e+00)) ((1.124447e+02 1.824002e+03 1.383443e+04) (1.477504e+00 -1.184362e+00 1.396801e+02))
1.970956      	((1.618681e+03 -9.095624e+02 1.409424e+02) (3.782339e+00 9.916235e-01 -9.638330e-01)) ((1.145673e+02 1.839198e+03 1.380807e+04) (1.480972e+00 -1.202213e+00 1.393278e+02))
1.991315      	((1.603794e+03 -8.950847e+02 1.422828e+02) (3.811432e+00 9.718393e-01 -9.138107e-01)) ((1.170126e+02 1.851003e+03 1.378301e+04) (1.482152e+00 -1.208734e+00 1.389954e+02))
2.011763      	((1.616675e+03 -8.771354e+02 1.459528e+02) (3.817834e+00 9.553247e-01 -8.731450e-01)) ((1.193534e+02 1.858635e+03 1.375601e+04) (1.481397e+00 -1.207368e+00 1.387032e+02))
2.032237      	((1.602147e+03 -8.665392e+02 1.518826e+02) (3.809569e+00 9.421770e-01 -8.373445e-01)) ((1.218943e+02 1.859944e+03 1.373167e+04) (1.480018e+00 -1.201698e+00 1.384193e+02))
2.052817      	((1.613758e+03 -8.519428e+02 1.577369e+02) (3.788911e+00 9.369177e-01 -8.115221e-01)) ((1.239153e+02 1.856134e+03 1.369786e+04) (1.476993e+00 -1.191557e+00 1.381563e+02))
2.073417      	((1.599440e+03 -8.450883e+02 1.643609e+02) (3.760255e+00 9.374570e-01 -7.913877e-01)) ((1.258866e+02 1.851401e+03 1.367464e+04) (1.472703e+00 -1.181805e+00 1.379283e+02))
2.094066      	((1.610346e+03 -8.313964e+02 1.744655e+02) (3.719109e+00 9.376965e-01 -7.735392e-01)) ((1.280042e+02 1.838058e+03 1.364577e+04) (1.467704e+00 -1.175401e+00 1.377222e+02))
2.114792      	((1.595840e+03 -8.255731e+02 1.850710e+02) (3.669781e+00 9.417553e-01 -7.554590e-01)) ((1.302042e+02 1.825608e+03 1.362089e+04) (1.463611e+00 -1.168702e+00 1.375602e+02))
2.13551       	((1.604577e+03 -8.168601e+02 2.025100e+02) (3.611425e+00 9.437371e-01 -7.403624e-01)) ((1.318053e+02 1.808609e+03 1.359236e+04) (1.460643e+00 -1.164189e+00 1.374315e+02))
2.156313      	((1.589886e+03 -8.163198e+02 2.186639e+02) (3.551195e+00 9.309151e-01 -7.303976e-01)) ((1.329646e+02 1.791335e+03 1.355991e+04) (1.457496e+00 -1.159140e+00 1.373439e+02))
2.177142      	((1.597025e+03 -8.119332e+02 2.375184e+02) (3.487562e+00 9.147340e-01 -7.182769e-01)) ((1.336368e+02 1.772611e+03 1.353461e+04) (1.453855e+00 -1.159796e+00 1.373068e+02))
2.197986      	((1.582925e+03 -8.141070e+02 2.563959e+02) (3.425595e+00 8.958325e-01 -7.015798e-01)) ((1.340134e+02 1.749895e+03 1.351128e+04) (1.450706e+00 -1.163327e+00 1.372995e+02))
2.218904      	((1.588379e+03 -8.090497e+02 2.784969e+02) (3.365783e+00 8.753143e-01 -6.825724e-01)) ((1.339910e+02 1.727661e+03 1.348923e+04) (1.448273e+00 -1.168045e+00 1.373534e+02))
2.239804      	((1.574277e+03 -8.113353e+02 2.996983e+02) (3.313564e+00 8.511635e-01 -6.622809e-01)) ((1.337289e+02 1.705034e+03 1.347536e+04) (1.447230e+00 -1.174520e+00 1.374705e+02))
2.260769      	((1.578716e+03 -8.059643e+02 3.253785e+02) (3.269696e+00 8.286590e-01 -6.402588e-01)) ((1.327997e+02 1.682765e+03 1.345739e+04) (1.447981e+00 -1.176343e+00 1.376390e+02))
2.281761      	((1.563844e+03 -8.094093e+02 3.501530e+02) (3.242423e+00 8.013606e-01 -6.118693e-01)) ((1.322164e+02 1.658394e+03 1.344960e+04) (1.450441e+00 -1.189983e+00 1.378547e+02))
2.302742      	((1.567060e+03 -8.072229e+02 3.797969e+02) (3.230986e+00 7.663915e-01 -5.754641e-01)) ((1.308736e+02 1.633766e+03 1.343659e+04) (1.453844e+00 -1.208174e+00 1.380900e+02))
2.323795      	((1.551139e+03 -8.090580e+02 4.040753e+02) (3.237986e+00 7.341782e-01 -5.354412e-01)) ((1.299450e+02 1.610704e+03 1.342693e+04) (1.459747e+00 -1.229224e+00 1.383616e+02))
2.344821      	((1.554785e+03 -8.052160e+02 4.353476e+02) (3.254114e+00 6.964305e-01 -4.849954e-01)) ((1.278638e+02 1.593531e+03 1.342577e+04) (1.465986e+00 -1.250850e+00 1.386721e+02))
2.365887      	((1.540733e+03 -8.076019e+02 4.629600e+02) (3.286407e+00 6.548661e-01 -4.243477e-01)) ((1.265767e+02 1.579009e+03 1.342144e+04) (1.473392e+00 -1.264366e+00 1.390065e+02))
2.386987      	((1.544781e+03 -8.025979e+02 4.947395e+02) (3.331318e+00 6.232349e-01 -3.521691e-01)) ((1.230520e+02 1.571784e+03 1.342077e+04) (1.479654e+00 -1.272146e+00 1.393670e+02))
2.408055      	((1.533109e+03 -8.071437e+02 5.242000e+02) (3.388944e+00 5.957528e-01 -2.719712e-01)) ((1.197999e+02 1.570251e+03 1.342278e+04) (1.486023e+00 -1.274618e+00 1.397381e+02))
2.429191      	((1.536123e+03 -8.041303e+02 5.555498e+02) (3.470593e+00 5.679539e-01 -1.919888e-01)) ((1.169900e+02 1.567376e+03 1.342074e+04) (1.491445e+00 -1.272424e+00 1.401193e+02))
2.4503        	((1.523856e+03 -8.092112e+02 5.891120e+02) (3.557960e+00 5.511584e-01 -1.051257e-01)) ((1.130930e+02 1.573887e+03 1.342945e+04) (1.494404e+00 -1.257212e+00 1.404941e+02))
2.471419      	((1.528506e+03 -8.049181e+02 6.202672e+02) (3.667482e+00 5.433026e-01 -1.702198e-02)) ((1.102867e+02 1.578335e+03 1.343711e+04) (1.496663e+00 -1.236388e+00 1.408679e+02))
2.492578      	((1.516973e+03 -8.096243e+02 6.468900e+02) (3.789380e+00 5.388268e-01 7.469778e-02)) ((1.065276e+02 1.596850e+03 1.345239e+04) (1.497040e+00 -1.213186e+00 1.412193e+02))
2.51369       	((1.523980e+03 -8.058141e+02 6.695677e+02) (3.930582e+00 5.463915e-01 1.626350e-01)) ((1.042447e+02 1.609316e+03 1.347073e+04) (1.498159e+00 -1.184849e+00 1.415632e+02))
2.534854      	((1.513992e+03 -8.065706e+02 6.898163e+02) (4.080623e+00 5.662329e-01 2.515506e-01)) ((1.005575e+02 1.634573e+03 1.349701e+04) (1.496802e+00 -1.144066e+00 1.418977e+02))
2.556         	((1.523650e+03 -7.990882e+02 7.068136e+02) (4.238898e+00 5.938673e-01 3.368852e-01)) ((9.888756e+01 1.651533e+03 1.352592e+04) (1.493128e+00 -1.102035e+00 1.422239e+02))
2.577134      	((1.514744e+03 -7.966733e+02 7.212089e+02) (4.388632e+00 6.281087e-01 4.196925e-01)) ((9.540118e+01 1.684879e+03 1.355656e+04) (1.487472e+00 -1.041625e+00 1.425215e+02))
2.598313      	((1.524094e+03 -7.847835e+02 7.311009e+02) (4.535263e+00 6.661936e-01 4.941728e-01)) ((9.453987e+01 1.711413e+03 1.358331e+04) (1.482711e+00 -9.785641e-01 1.427999e+02))
2.619441      	((1.516034e+03 -7.828777e+02 7.381553e+02) (4.660461e+00 7.080648e-01 5.651699e-01)) ((9.232163e+01 1.750826e+03 1.361755e+04) (1.476597e+00 -9.096434e-01 1.430369e+02))
2.6406        	((1.526291e+03 -7.712414e+02 7.384398e+02) (4.769381e+00 7.498860e-01 6.242618e-01)) ((9.299143e+01 1.775559e+03 1.364263e+04) (1.470523e+00 -8.405289e-01 1.432483e+02))
2.661748      	((1.516581e+03 -7.697367e+02 7.349450e+02) (4.863172e+00 7.933611e-01 6.716759e-01)) ((9.279858e+01 1.811950e+03 1.367636e+04) (1.464160e+00 -7.736640e-01 1.434561e+02))
2.682859      	((1.527753e+03 -7.599297e+02 7.286731e+02) (4.932449e+00 8.309396e-01 7.063685e-01)) ((9.394354e+01 1.838833e+03 1.370526e+04) (1.457615e+00 -7.014219e-01 1.436439e+02))
2.704003      	((1.519080e+03 -7.585751e+02 7.173387e+02) (4.988048e+00 8.603175e-01 7.332343e-01)) ((9.541354e+01 1.870461e+03 1.373367e+04) (1.450709e+00 -6.254915e-01 1.438201e+02))
2.72509       	((1.530635e+03 -7.492235e+02 7.082261e+02) (5.026016e+00 8.753146e-01 7.537340e-01)) ((9.727564e+01 1.894692e+03 1.376164e+04) (1.442800e+00 -5.485382e-01 1.439826e+02))
2.746176      	((1.521216e+03 -7.494626e+02 6.953507e+02) (5.053294e+00 8.819709e-01 7.647437e-01)) ((9.949341e+01 1.920752e+03 1.378494e+04) (1.435113e+00 -4.698060e-01 1.441383e+02))
2.767253      	((1.532570e+03 -7.395420e+02 6.837320e+02) (5.067734e+00 8.952490e-01 7.652130e-01)) ((1.019409e+02 1.940533e+03 1.380659e+04) (1.428024e+00 -3.974419e-01 1.442759e+02))
2.788271      	((1.520934e+03 -7.402397e+02 6.681500e+02) (5.071346e+00 9.061176e-01 7.550814e-01)) ((1.041798e+02 1.963751e+03 1.382688e+04) (1.421491e+00 -3.276743e-01 1.444133e+02))
2.809309      	((1.531463e+03 -7.324243e+02 6.566951e+02) (5.059577e+00 9.116518e-01 7.382254e-01)) ((1.057075e+02 1.987988e+03 1.384369e+04) (1.415305e+00 -2.613988e-01 1.445460e+02))
2.830288      	((1.519172e+03 -7.348315e+02 6.415300e+02) (5.038802e+00 9.211083e-01 7.137793e-01)) ((1.075505e+02 2.013752e+03 1.386159e+04) (1.409572e+00 -2.058364e-01 1.446642e+02))
2.851247      	((1.530591e+03 -7.257795e+02 6.285224e+02) (5.010940e+00 9.313310e-01 6.812527e-01)) ((1.089783e+02 2.034641e+03 1.387279e+04) (1.403524e+00 -1.513768e-01 1.447671e+02))
2.872202      	((1.517261e+03 -7.268863e+02 6.133841e+02) (4.977844e+00 9.490723e-01 6.439090e-01)) ((1.101428e+02 2.055582e+03 1.388191e+04) (1.397421e+00 -9.890274e-02 1.448561e+02))
2.893095      	((1.529312e+03 -7.209134e+02 6.008897e+02) (4.938600e+00 9.705913e-01 5.990539e-01)) ((1.109497e+02 2.071390e+03 1.388955e+04) (1.390952e+00 -5.338916e-02 1.449148e+02))
2.914004      	((1.516347e+03 -7.267068e+02 5.831664e+02) (4.898303e+00 9.869626e-01 5.477849e-01)) ((1.117388e+02 2.087270e+03 1.389018e+04) (1.384915e+00 -1.490984e-02 1.449595e+02))
2.93487       	((1.528852e+03 -7.235640e+02 5.692753e+02) (4.849372e+00 1.014800e+00 4.890647e-01)) ((1.117676e+02 2.101289e+03 1.388982e+04) (1.380637e+00 1.492899e-02 1.450090e+02))
2.955696      	((1.516669e+03 -7.298247e+02 5.518731e+02) (4.794867e+00 1.044997e+00 4.261545e-01)) ((1.123331e+02 2.109550e+03 1.388637e+04) (1.377884e+00 3.595990e-02 1.450417e+02))
2.976525      	((1.530023e+03 -7.274181e+02 5.379429e+02) (4.735066e+00 1.083221e+00 3.614826e-01)) ((1.123377e+02 2.114257e+03 1.387858e+04) (1.375224e+00 5.098363e-02 1.450525e+02))
2.99729       	((1.516826e+03 -7.320706e+02 5.206828e+02) (4.676049e+00 1.133530e+00 2.946022e-01)) ((1.117192e+02 2.121398e+03 1.386967e+04) (1.374035e+00 5.613029e-02 1.450557e+02))
3.018053      	((1.530353e+03 -7.279327e+02 5.110410e+02) (4.622051e+00 1.177133e+00 2.252127e-01)) ((1.106941e+02 2.126069e+03 1.385508e+04) (1.374718e+00 5.263528e-02 1.450444e+02))
3.038789      	((1.516549e+03 -7.343230e+02 4.966142e+02) (4.580502e+00 1.220377e+00 1.579267e-01)) ((1.096046e+02 2.131076e+03 1.384342e+04) (1.376048e+00 4.352117e-02 1.450232e+02))
3.059482      	((1.530954e+03 -7.305137e+02 4.888492e+02) (4.549696e+00 1.258606e+00 9.416507e-02)) ((1.081227e+02 2.132350e+03 1.382866e+04) (1.377129e+00 3.319178e-02 1.449943e+02))
3.080188      	((1.517339e+03 -7.348719e+02 4.759972e+02) (4.531569e+00 1.289079e+00 3.645022e-02)) ((1.068581e+02 2.134371e+03 1.381370e+04) (1.378349e+00 1.934679e-02 1.449620e+02))
3.100846      	((1.531933e+03 -7.303052e+02 4.685225e+02) (4.522690e+00 1.320746e+00 -1.849308e-02)) ((1.054016e+02 2.133322e+03 1.380078e+04) (1.379445e+00 9.008561e-04 1.449188e+02))