# Forces      
# CofR        : (0.000000e+00 0.000000e+00 0.000000e+00)
# Time        forces(pressure viscous)	moments(pressure viscous)
0             	((0.000000e+00 0.000000e+00 0.000000e+00) (0.000000e+00 0.000000e+00 0.000000e+00)) ((0.000000e+00 0.000000e+00 0.000000e+00) (0.000000e+00 0.000000e+00 0.000000e+00))
0.012         	((6.212630e+02 6.621885e+01 -1.407661e+04) (1.248675e-01 5.973767e-03 -4.374514e+00)) ((1.795761e+01 2.699979e+05 2.662775e+02) (9.782329e-02 2.422451e+01 -6.249377e-02))
0.0264        	((2.303759e+02 6.087826e+00 1.118280e+04) (6.753759e-02 1.325634e-01 -3.292164e+00)) ((-8.706017e+01 -1.682671e+05 -1.292084e+02) (1.473748e-01 4.003063e+01 -5.206870e-01))
0.04368       	((5.914411e+02 1.425668e+01 -4.506740e+03) (1.666991e-01 1.456804e-01 -2.909924e+00)) ((4.496881e+01 1.230939e+05 1.112111e+02) (2.706118e-01 4.740823e+01 -5.774146e-01))
0.064416      	((1.352967e+02 1.532333e+01 4.461099e+03) (2.934101e-01 7.777922e-02 -2.803724e+00)) ((-5.495229e+01 -6.925183e+04 -8.615898e+01) (2.194097e-01 4.494080e+01 -5.073524e-01))
0.0892992     	((4.894445e+02 1.185625e+01 -4.387597e+02) (1.246479e-01 1.694331e-02 -1.764031e+00)) ((5.263609e+00 5.424828e+04 4.597584e+01) (1.818047e-01 3.931919e+01 -4.663548e-01))
0.118644      	((1.977395e+02 1.112466e+01 2.235247e+03) (6.446674e-02 -2.007791e-02 -9.449577e-01)) ((-2.716650e+01 -2.644379e+04 -5.626530e+01) (1.500177e-01 3.576605e+01 -4.024761e-01))
0.153003      	((4.067542e+02 1.384165e+01 6.577096e+02) (4.917691e-02 -1.741850e-02 -6.041194e-01)) ((-1.643840e+00 2.631846e+04 -6.084139e+00) (1.276368e-01 3.233575e+01 -4.358931e-01))
0.192336      	((2.836335e+02 1.225585e+01 1.630332e+03) (1.163429e-01 -2.679687e-02 -3.486284e-01)) ((-1.853549e+01 -8.494419e+03 -5.182702e+01) (1.265211e-01 2.938869e+01 -3.957057e-01))
0.236867      	((3.951129e+02 1.248752e+01 8.941648e+02) (2.551096e-01 -3.035297e-02 -2.148451e-01)) ((-5.772902e+00 1.429669e+04 -3.327605e+01) (1.332721e-01 2.656818e+01 -3.657804e-01))
0.286702      	((3.463231e+02 1.398666e+01 1.318602e+03) (3.865399e-01 -2.339668e-02 -9.569637e-02)) ((-1.243090e+01 -8.294923e+02 -5.273260e+01) (1.397604e-01 2.423758e+01 -3.214513e-01))
0.341437      	((4.022165e+02 9.478084e+00 8.962895e+02) (4.876949e-01 -3.620980e-02 -8.775055e-03)) ((-8.262940e+00 9.189753e+03 -3.735284e+01) (1.384189e-01 2.218287e+01 -2.161791e-01))
0.396441      	((3.837380e+02 1.172893e+01 1.083664e+03) (5.601222e-01 -3.700957e-02 9.806962e-02)) ((-1.208518e+01 2.652995e+03 -5.011324e+01) (1.431316e-01 2.064971e+01 -1.852097e-01))
0.451901      	((4.007392e+02 1.121165e+01 8.818166e+02) (5.760745e-01 -2.327184e-02 1.923989e-01)) ((-8.193277e+00 7.002028e+03 -4.817187e+01) (1.504644e-01 1.930769e+01 -2.313805e-01))
0.507934      	((3.957742e+02 8.439038e+00 9.385241e+02) (5.467660e-01 -4.131583e-02 2.845778e-01)) ((-9.859912e+00 4.204350e+03 -4.839422e+01) (1.554962e-01 1.821388e+01 -2.372479e-01))
0.564951      	((3.891055e+02 6.518531e+00 8.768029e+02) (4.799179e-01 -4.681604e-02 3.668998e-01)) ((-8.069023e+00 6.058205e+03 -4.499594e+01) (1.604993e-01 1.723397e+01 -2.664246e-01))
0.623318      	((3.885869e+02 4.528515e+00 8.879689e+02) (4.091408e-01 -5.507929e-02 4.264939e-01)) ((-8.836096e+00 4.824939e+03 -4.873776e+01) (1.638173e-01 1.637823e+01 -2.742607e-01))
0.68206       	((3.825209e+02 5.206003e+00 8.603161e+02) (3.373382e-01 -3.595328e-02 4.763888e-01)) ((-7.269886e+00 5.609215e+03 -4.783475e+01) (1.715893e-01 1.563309e+01 -3.348551e-01))
0.741119      	((3.838818e+02 2.460928e+00 8.533774e+02) (2.655773e-01 -1.671242e-02 5.150305e-01)) ((-7.607657e+00 5.036768e+03 -4.995724e+01) (1.749950e-01 1.498467e+01 -3.994979e-01))
0.800429      	((3.774268e+02 4.895859e-01 8.542932e+02) (2.067984e-01 -3.054465e-03 5.352781e-01)) ((-7.053196e+00 5.369302e+03 -4.624647e+01) (1.757948e-01 1.439363e+01 -4.505936e-01))
0.860033      	((3.746655e+02 -3.519322e+00 8.526493e+02) (1.523024e-01 -4.449324e-03 5.559210e-01)) ((-6.310469e+00 5.089650e+03 -4.423025e+01) (1.780802e-01 1.389858e+01 -4.673774e-01))
0.919744      	((3.661469e+02 -5.185655e+00 8.632094e+02) (9.956843e-02 9.085416e-03 5.714491e-01)) ((-5.692982e+00 5.216281e+03 -4.322480e+01) (1.814488e-01 1.345968e+01 -5.190091e-01))
0.979439      	((3.628899e+02 -6.646004e+00 8.597229e+02) (5.061500e-02 1.269467e-02 5.879813e-01)) ((-5.117643e+00 5.065157e+03 -4.698928e+01) (1.803481e-01 1.308919e+01 -5.433246e-01))
1.039106      	((3.560724e+02 -6.906819e+00 8.659242e+02) (-2.030969e-03 1.047696e-02 6.011217e-01)) ((-5.368290e+00 5.143428e+03 -5.056869e+01) (1.796906e-01 1.277911e+01 -5.521915e-01))
1.098815      	((3.508368e+02 -8.962445e+00 8.685399e+02) (-6.256287e-02 9.461158e-03 6.095283e-01)) ((-6.731655e+00 5.079247e+03 -5.059301e+01) (1.777765e-01 1.250364e+01 -5.608199e-01))
1.158681      	((3.428587e+02 -6.024752e+00 8.756049e+02) (-1.270583e-01 4.139146e-03 6.247421e-01)) ((-6.730220e+00 5.136995e+03 -5.577795e+01) (1.711451e-01 1.227394e+01 -5.548869e-01))
1.218823      	((3.347466e+02 -5.925763e+00 8.774106e+02) (-1.944087e-01 6.011224e-03 6.430495e-01)) ((-7.403708e+00 5.123452e+03 -5.692620e+01) (1.646098e-01 1.207399e+01 -5.643539e-01))
1.279367      	((3.251968e+02 -5.601918e+00 8.887711e+02) (-2.618745e-01 9.421021e-03 6.622392e-01)) ((-7.806325e+00 5.179218e+03 -5.872755e+01) (1.606366e-01 1.190143e+01 -5.771122e-01))
1.340429      	((3.169820e+02 -6.079721e+00 8.961395e+02) (-3.342035e-01 1.782178e-02 6.747400e-01)) ((-7.951037e+00 5.195959e+03 -5.806010e+01) (1.576406e-01 1.174169e+01 -5.978570e-01))
1.402113      	((3.070744e+02 -5.185631e+00 9.091471e+02) (-4.128794e-01 2.189109e-02 6.849017e-01)) ((-8.008160e+00 5.255220e+03 -6.095598e+01) (1.568339e-01 1.159985e+01 -6.067107e-01))
1.464478      	((2.979296e+02 -5.190945e+00 9.163924e+02) (-4.975186e-01 2.525753e-02 6.874390e-01)) ((-8.402394e+00 5.288468e+03 -6.236246e+01) (1.582899e-01 1.146401e+01 -6.133792e-01))
1.527553      	((2.874420e+02 -4.145892e+00 9.303527e+02) (-5.863077e-01 2.438200e-02 6.841387e-01)) ((-8.950993e+00 5.352009e+03 -6.729920e+01) (1.586659e-01 1.134118e+01 -6.128438e-01))
1.591372      	((2.787708e+02 -3.143159e+00 9.370504e+02) (-6.775591e-01 2.225847e-02 6.751224e-01)) ((-9.459108e+00 5.397427e+03 -7.206526e+01) (1.583079e-01 1.122422e+01 -6.104377e-01))
1.655969      	((2.686874e+02 -9.002519e-01 9.528729e+02) (-7.665307e-01 2.993411e-02 6.570580e-01)) ((-1.035734e+01 5.465851e+03 -7.861843e+01) (1.594234e-01 1.109400e+01 -6.313389e-01))
1.721365      	((2.594436e+02 1.341218e+00 9.602900e+02) (-8.557564e-01 2.807833e-02 6.383552e-01)) ((-1.066972e+01 5.515998e+03 -8.289497e+01) (1.588263e-01 1.096404e+01 -6.278548e-01))
1.78758       	((2.488061e+02 3.975121e+00 9.740609e+02) (-9.362749e-01 2.590909e-02 6.239040e-01)) ((-1.150520e+01 5.585820e+03 -8.774197e+01) (1.591905e-01 1.084271e+01 -6.221363e-01))
1.854639      	((2.398503e+02 5.785753e+00 9.791446e+02) (-1.002004e+00 2.213976e-02 6.130290e-01)) ((-1.192372e+01 5.644641e+03 -9.176949e+01) (1.591278e-01 1.072675e+01 -6.130345e-01))
1.922571      	((2.298071e+02 7.293160e+00 9.894220e+02) (-1.053258e+00 2.061888e-02 5.989319e-01)) ((-1.246784e+01 5.714984e+03 -9.306788e+01) (1.598957e-01 1.059530e+01 -6.107987e-01))
1.991382      	((2.224654e+02 8.534606e+00 9.915557e+02) (-1.098532e+00 2.260701e-02 5.821893e-01)) ((-1.240169e+01 5.766576e+03 -9.605824e+01) (1.603555e-01 1.045419e+01 -6.146599e-01))
2.061067      	((2.149287e+02 9.362576e+00 9.958308e+02) (-1.141024e+00 2.234568e-02 5.635910e-01)) ((-1.280856e+01 5.824910e+03 -9.796906e+01) (1.614286e-01 1.031613e+01 -6.123720e-01))
2.131621      	((2.091399e+02 8.974907e+00 9.968670e+02) (-1.172794e+00 2.133558e-02 5.408633e-01)) ((-1.312736e+01 5.868564e+03 -9.816520e+01) (1.636901e-01 1.018535e+01 -6.048133e-01))
2.202986      	((2.040181e+02 8.584469e+00 9.966680e+02) (-1.182514e+00 1.717646e-02 5.120165e-01)) ((-1.388063e+01 5.913968e+03 -9.652024e+01) (1.658068e-01 1.006387e+01 -5.879000e-01))
2.275175      	((2.018027e+02 8.483244e+00 9.927405e+02) (-1.170809e+00 1.625549e-02 4.812889e-01)) ((-1.382020e+01 5.951998e+03 -9.594553e+01) (1.687791e-01 9.952588e+00 -5.785087e-01))
2.348174      	((2.002133e+02 7.565847e+00 9.912592e+02) (-1.130881e+00 1.901855e-02 4.527450e-01)) ((-1.448855e+01 5.999706e+03 -9.445757e+01) (1.702569e-01 9.864122e+00 -5.739035e-01))
2.421903      	((2.010139e+02 7.031730e+00 9.873548e+02) (-1.064044e+00 2.997379e-02 4.270293e-01)) ((-1.432732e+01 6.043430e+03 -9.589263e+01) (1.700525e-01 9.808743e+00 -5.827155e-01))
2.495935      	((2.021239e+02 6.155305e+00 9.800941e+02) (-9.687528e-01 4.304626e-02 4.032060e-01)) ((-1.405676e+01 6.084221e+03 -9.762415e+01) (1.715775e-01 9.777370e+00 -5.870717e-01))
2.569995      	((2.057792e+02 5.693905e+00 9.716647e+02) (-8.447311e-01 5.091710e-02 3.849690e-01)) ((-1.390288e+01 6.119363e+03 -9.920452e+01) (1.712625e-01 9.778499e+00 -5.729200e-01))
2.644075      	((2.085403e+02 4.543694e+00 9.630436e+02) (-6.988520e-01 6.714546e-02 3.587651e-01)) ((-1.458529e+01 6.153865e+03 -1.021649e+02) (1.697039e-01 9.786419e+00 -5.830124e-01))
2.718162      	((2.129138e+02 3.533186e+00 9.533309e+02) (-5.456102e-01 6.805383e-02 3.180166e-01)) ((-1.432299e+01 6.184457e+03 -1.070298e+02) (1.695664e-01 9.783896e+00 -5.580684e-01))
2.792224      	((2.161072e+02 1.773701e+00 9.417969e+02) (-3.884877e-01 8.780396e-02 2.702431e-01)) ((-1.427026e+01 6.209994e+03 -1.087594e+02) (1.676510e-01 9.771935e+00 -5.785689e-01))
2.866229      	((2.198512e+02 9.926744e-01 9.349715e+02) (-2.447120e-01 9.308053e-02 2.319150e-01)) ((-1.355627e+01 6.227825e+03 -1.149466e+02) (1.627655e-01 9.770530e+00 -5.667357e-01))
2.940144      	((2.214729e+02 -2.257889e-02 9.305688e+02) (-1.131068e-01 8.764730e-02 2.026381e-01)) ((-1.344529e+01 6.243819e+03 -1.180263e+02) (1.619401e-01 9.769922e+00 -5.399505e-01))
3.013943      	((2.229076e+02 -2.888683e-01 9.313683e+02) (3.281963e-03 9.102580e-02 1.790878e-01)) ((-1.259782e+01 6.254195e+03 -1.213642e+02) (1.617281e-01 9.760641e+00 -5.372040e-01))
3.087618      	((2.221064e+02 -8.210183e-01 9.354408e+02) (1.038114e-01 8.761946e-02 1.657525e-01)) ((-1.256535e+01 6.270687e+03 -1.208315e+02) (1.581369e-01 9.751662e+00 -5.253068e-01))
3.161174      	((2.220889e+02 -7.423494e-01 9.381626e+02) (1.882476e-01 6.995377e-02 1.581753e-01)) ((-1.230266e+01 6.283704e+03 -1.196061e+02) (1.572273e-01 9.735527e+00 -4.925246e-01))
3.234625      	((2.207909e+02 -1.561122e+00 9.379203e+02) (2.575110e-01 6.005188e-02 1.648569e-01)) ((-1.213774e+01 6.296862e+03 -1.159845e+02) (1.579403e-01 9.734043e+00 -4.871513e-01))
3.307998      	((2.209762e+02 -3.555560e+00 9.365175e+02) (3.132265e-01 6.038480e-02 1.855251e-01)) ((-1.150138e+01 6.306052e+03 -1.101636e+02) (1.576389e-01 9.752464e+00 -5.110322e-01))
3.381324      	((2.214467e+02 -6.520126e+00 9.297399e+02) (3.520782e-01 5.989417e-02 2.078406e-01)) ((-1.068984e+01 6.314566e+03 -1.018115e+02) (1.584286e-01 9.763542e+00 -5.262360e-01))
3.454619      	((2.232066e+02 -7.508218e+00 9.237410e+02) (3.787979e-01 6.037064e-02 2.258326e-01)) ((-9.205678e+00 6.326343e+03 -9.573450e+01) (1.583508e-01 9.759852e+00 -5.349182e-01))
3.527875      	((2.240115e+02 -7.327779e+00 9.141047e+02) (3.983850e-01 6.429860e-02 2.310826e-01)) ((-7.781698e+00 6.337178e+03 -9.190788e+01) (1.570246e-01 9.729704e+00 -5.438730e-01))
3.601058      	((2.265623e+02 -7.396274e+00 9.037298e+02) (4.168986e-01 6.614615e-02 2.336377e-01)) ((-6.613354e+00 6.350315e+03 -9.013042e+01) (1.556472e-01 9.695241e+00 -5.494139e-01))
3.674125      	((2.278062e+02 -7.839427e+00 8.905419e+02) (4.391913e-01 7.102763e-02 2.322134e-01)) ((-5.771553e+00 6.361203e+03 -8.832888e+01) (1.566504e-01 9.656487e+00 -5.605634e-01))
3.747043      	((2.306396e+02 -8.351596e+00 8.800060e+02) (4.680198e-01 7.761726e-02 2.285259e-01)) ((-5.222132e+00 6.368329e+03 -8.666568e+01) (1.562049e-01 9.621690e+00 -5.776943e-01))
3.819801      	((2.317593e+02 -8.480780e+00 8.691266e+02) (5.041758e-01 8.452190e-02 2.292874e-01)) ((-4.989105e+00 6.368225e+03 -8.496863e+01) (1.571327e-01 9.604012e+00 -5.922766e-01))
3.8924        	((2.337582e+02 -9.121424e+00 8.637269e+02) (5.427959e-01 9.453489e-02 2.323730e-01)) ((-4.560990e+00 6.367369e+03 -8.282005e+01) (1.582233e-01 9.595387e+00 -6.103865e-01))
3.964863      	((2.342226e+02 -1.115677e+01 8.603283e+02) (5.801003e-01 9.838485e-02 2.360268e-01)) ((-4.409643e+00 6.367722e+03 -7.806948e+01) (1.588868e-01 9.588396e+00 -6.140134e-01))
4.037218      	((2.362318e+02 -1.186571e+01 8.605677e+02) (6.098314e-01 9.792657e-02 2.414330e-01)) ((-4.217606e+00 6.369209e+03 -7.495287e+01) (1.598442e-01 9.585262e+00 -6.083162e-01))
4.109492      	((2.365338e+02 -1.229862e+01 8.617402e+02) (6.302859e-01 1.001525e-01 2.437155e-01)) ((-4.288308e+00 6.368085e+03 -7.330206e+01) (1.588193e-01 9.573636e+00 -6.114177e-01))
4.181709      	((2.384146e+02 -1.167382e+01 8.659266e+02) (6.416974e-01 9.909595e-02 2.458908e-01)) ((-4.610645e+00 6.365375e+03 -7.313550e+01) (1.577794e-01 9.558943e+00 -6.084186e-01))
4.253891      	((2.385910e+02 -1.078566e+01 8.681325e+02) (6.457505e-01 9.930080e-02 2.495916e-01)) ((-5.465631e+00 6.359448e+03 -7.357862e+01) (1.569385e-01 9.542527e+00 -6.105261e-01))
4.326058      	((2.398164e+02 -9.520322e+00 8.715516e+02) (6.420957e-01 9.696589e-02 2.546673e-01)) ((-5.925184e+00 6.352100e+03 -7.500234e+01) (1.557854e-01 9.525852e+00 -6.078393e-01))
4.398232      	((2.391998e+02 -8.121401e+00 8.729252e+02) (6.357048e-01 9.429541e-02 2.573571e-01)) ((-6.441317e+00 6.341121e+03 -7.680432e+01) (1.550294e-01 9.504539e+00 -6.060100e-01))
4.470438      	((2.393633e+02 -6.765705e+00 8.771652e+02) (6.252195e-01 9.552790e-02 2.615622e-01)) ((-6.800111e+00 6.329032e+03 -7.892789e+01) (1.530970e-01 9.485753e+00 -6.124463e-01))
4.542704      	((2.375014e+02 -6.246692e+00 8.813320e+02) (6.135468e-01 9.213052e-02 2.660129e-01)) ((-7.315164e+00 6.315384e+03 -7.958308e+01) (1.509945e-01 9.461892e+00 -6.091704e-01))
4.615064      	((2.368320e+02 -5.385993e+00 8.863175e+02) (5.968756e-01 8.781885e-02 2.648861e-01)) ((-7.348938e+00 6.301315e+03 -8.114285e+01) (1.513208e-01 9.422174e+00 -6.033228e-01))
4.687553      	((2.341648e+02 -4.666840e+00 8.892519e+02) (5.795582e-01 9.036417e-02 2.630935e-01)) ((-7.554619e+00 6.283867e+03 -8.202665e+01) (1.500685e-01 9.379565e+00 -6.110177e-01))
4.760213      	((2.328002e+02 -4.338548e+00 8.929775e+02) (5.608412e-01 8.724247e-02 2.634629e-01)) ((-7.638017e+00 6.267200e+03 -8.235754e+01) (1.478445e-01 9.341637e+00 -6.013878e-01))
4.833087      	((2.295727e+02 -3.779119e+00 8.944884e+02) (5.417306e-01 8.144302e-02 2.594631e-01)) ((-7.817550e+00 6.247201e+03 -8.306720e+01) (1.479248e-01 9.291260e+00 -5.835407e-01))
4.906213      	((2.279470e+02 -2.590897e+00 8.953823e+02) (5.219105e-01 8.855682e-02 2.567554e-01)) ((-7.452226e+00 6.226031e+03 -8.496980e+01) (1.470126e-01 9.242358e+00 -5.956938e-01))
4.979633      	((2.244774e+02 -1.592276e+00 8.958431e+02) (5.071465e-01 8.936612e-02 2.575799e-01)) ((-7.762456e+00 6.204048e+03 -8.570418e+01) (1.434255e-01 9.201607e+00 -5.916875e-01))
5.053386      	((2.225500e+02 -3.020943e-01 8.949273e+02) (4.941095e-01 8.706035e-02 2.543583e-01)) ((-7.894905e+00 6.181957e+03 -8.745115e+01) (1.405583e-01 9.152836e+00 -5.806985e-01))
5.127511      	((2.191492e+02 1.536805e+00 8.916338e+02) (4.877747e-01 8.993977e-02 2.471602e-01)) ((-7.874065e+00 6.155303e+03 -8.995714e+01) (1.386488e-01 9.095179e+00 -5.826677e-01))
5.202046      	((2.175476e+02 2.920602e+00 8.878596e+02) (4.852966e-01 8.756279e-02 2.407286e-01)) ((-8.127516e+00 6.130890e+03 -9.219174e+01) (1.358438e-01 9.043202e+00 -5.746359e-01))
5.277028      	((2.144201e+02 4.131259e+00 8.826141e+02) (4.859783e-01 7.581348e-02 2.284032e-01)) ((-8.425859e+00 6.104013e+03 -9.360048e+01) (1.353458e-01 8.984229e+00 -5.480418e-01))
5.352486      	((2.131306e+02 5.607230e+00 8.754304e+02) (4.894584e-01 8.233367e-02 2.160258e-01)) ((-8.152277e+00 6.076237e+03 -9.611281e+01) (1.341923e-01 8.932202e+00 -5.650689e-01))
5.42845       	((2.102574e+02 6.324342e+00 8.685931e+02) (5.004047e-01 8.547711e-02 2.070341e-01)) ((-8.194919e+00 6.047993e+03 -9.674780e+01) (1.313259e-01 8.892140e+00 -5.724567e-01))
5.504942      	((2.096743e+02 6.551649e+00 8.600084e+02) (5.146931e-01 8.213870e-02 1.920576e-01)) ((-8.007182e+00 6.019528e+03 -9.676024e+01) (1.303120e-01 8.844436e+00 -5.671502e-01))
5.581981      	((2.075408e+02 6.502358e+00 8.509965e+02) (5.350249e-01 7.738131e-02 1.692511e-01)) ((-8.066627e+00 5.989983e+03 -9.668880e+01) (1.301232e-01 8.791111e+00 -5.616575e-01))
5.659581      	((2.076434e+02 6.070888e+00 8.398634e+02) (5.598685e-01 7.438662e-02 1.427471e-01)) ((-8.068992e+00 5.961225e+03 -9.692883e+01) (1.297401e-01 8.744369e+00 -5.620701e-01))
5.737753      	((2.060983e+02 5.476242e+00 8.296804e+02) (5.892997e-01 6.958030e-02 1.177460e-01)) ((-8.390784e+00 5.934434e+03 -9.715133e+01) (1.285436e-01 8.713722e+00 -5.606647e-01))
5.816508      	((2.065966e+02 5.222007e+00 8.180998e+02) (6.209523e-01 6.545282e-02 9.126900e-02)) ((-8.139370e+00 5.909863e+03 -9.802974e+01) (1.290312e-01 8.691447e+00 -5.647673e-01))
5.89585       	((2.053748e+02 4.749716e+00 8.068210e+02) (6.552175e-01 6.436670e-02 6.245586e-02)) ((-8.025153e+00 5.885147e+03 -9.911374e+01) (1.307230e-01 8.680169e+00 -5.775639e-01))
5.975775      	((2.060976e+02 4.076339e+00 7.942408e+02) (6.901919e-01 5.892580e-02 3.619702e-02)) ((-7.881066e+00 5.863765e+03 -1.006017e+02) (1.324188e-01 8.691927e+00 -5.803604e-01))
6.056276      	((2.052844e+02 3.356723e+00 7.831441e+02) (7.281551e-01 5.271410e-02 1.026420e-02)) ((-7.665295e+00 5.841969e+03 -1.021964e+02) (1.364320e-01 8.717863e+00 -5.841129e-01))
6.137336      	((2.064819e+02 2.601171e+00 7.710019e+02) (7.643051e-01 4.982098e-02 -1.613567e-02)) ((-7.178420e+00 5.822505e+03 -1.039112e+02) (1.406657e-01 8.754983e+00 -6.011674e-01))
6.218929      	((2.059606e+02 1.951536e+00 7.609490e+02) (7.938672e-01 4.274095e-02 -4.165360e-02)) ((-6.812304e+00 5.806058e+03 -1.057641e+02) (1.430813e-01 8.808788e+00 -6.113661e-01))
6.301038      	((2.070469e+02 1.342707e+00 7.503491e+02) (8.112304e-01 3.663672e-02 -7.144885e-02)) ((-6.047278e+00 5.794134e+03 -1.079331e+02) (1.468694e-01 8.860234e+00 -6.228725e-01))
6.38364       	((2.063813e+02 3.789604e-01 7.419775e+02) (8.185945e-01 3.068361e-02 -9.619005e-02)) ((-5.659089e+00 5.783680e+03 -1.087702e+02) (1.476059e-01 8.926404e+00 -6.310561e-01))
6.466704      	((2.074939e+02 -4.766309e-01 7.337400e+02) (8.146013e-01 2.526053e-02 -1.233224e-01)) ((-5.026132e+00 5.775256e+03 -1.090359e+02) (1.482644e-01 8.995767e+00 -6.442219e-01))
6.550172      	((2.070288e+02 -1.766289e+00 7.280812e+02) (8.027270e-01 2.392830e-02 -1.534115e-01)) ((-4.850171e+00 5.769470e+03 -1.078682e+02) (1.482811e-01 9.067604e+00 -6.653986e-01))
6.633824      	((2.078151e+02 -3.230960e+00 7.237749e+02) (7.801342e-01 1.776544e-02 -1.775076e-01)) ((-4.729623e+00 5.768309e+03 -1.056117e+02) (1.468070e-01 9.149292e+00 -6.713286e-01))
6.716652      	((2.068385e+02 -4.354175e+00 7.227308e+02) (7.441009e-01 1.352129e-02 -1.997124e-01)) ((-4.703754e+00 5.769945e+03 -1.038325e+02) (1.474841e-01 9.222576e+00 -6.850173e-01))
6.798727      	((2.072853e+02 -4.971605e+00 7.226570e+02) (6.997040e-01 1.063906e-02 -2.116302e-01)) ((-4.780070e+00 5.775788e+03 -1.018686e+02) (1.461978e-01 9.308245e+00 -6.958974e-01))
6.880132      	((2.061453e+02 -5.569095e+00 7.246781e+02) (6.534390e-01 1.092555e-02 -2.176849e-01)) ((-4.729460e+00 5.784043e+03 -1.000030e+02) (1.453670e-01 9.400487e+00 -7.058339e-01))
6.96097       	((2.071245e+02 -5.757003e+00 7.283110e+02) (6.021001e-01 1.085246e-02 -2.182842e-01)) ((-4.748670e+00 5.796713e+03 -9.847302e+01) (1.453639e-01 9.493533e+00 -7.181548e-01))
7.041307      	((2.063255e+02 -6.052483e+00 7.339671e+02) (5.493433e-01 1.187716e-02 -2.133762e-01)) ((-4.855013e+00 5.812790e+03 -9.665726e+01) (1.455190e-01 9.587270e+00 -7.323363e-01))
7.121285      	((2.077140e+02 -6.010796e+00 7.400783e+02) (4.942630e-01 1.411935e-02 -2.042329e-01)) ((-4.968932e+00 5.833255e+03 -9.522287e+01) (1.473488e-01 9.684598e+00 -7.492857e-01))
7.200936      	((2.070741e+02 -5.854683e+00 7.484416e+02) (4.341035e-01 1.646965e-02 -1.932907e-01)) ((-5.026214e+00 5.856666e+03 -9.415717e+01) (1.486809e-01 9.778777e+00 -7.687402e-01))
7.280276      	((2.091507e+02 -6.060289e+00 7.565405e+02) (3.691028e-01 1.643073e-02 -1.751868e-01)) ((-5.151626e+00 5.882811e+03 -9.273978e+01) (1.502591e-01 9.879427e+00 -7.785670e-01))
7.359341      	((2.085157e+02 -5.502592e+00 7.665981e+02) (3.007155e-01 1.615179e-02 -1.549406e-01)) ((-5.176397e+00 5.911662e+03 -9.222670e+01) (1.516344e-01 9.979541e+00 -7.839125e-01))
7.438126      	((2.108383e+02 -4.913401e+00 7.760602e+02) (2.316243e-01 1.848172e-02 -1.336817e-01)) ((-5.323297e+00 5.940962e+03 -9.278084e+01) (1.527161e-01 1.008123e+01 -7.936114e-01))
7.516613      	((2.101465e+02 -3.848718e+00 7.867668e+02) (1.629925e-01 1.697833e-02 -1.077271e-01)) ((-5.559240e+00 5.970963e+03 -9.417209e+01) (1.555097e-01 1.019107e+01 -7.958466e-01))
7.594788      	((2.129035e+02 -3.173171e+00 7.973525e+02) (9.297598e-02 1.880815e-02 -8.334831e-02)) ((-5.801863e+00 6.001344e+03 -9.582761e+01) (1.568335e-01 1.028942e+01 -8.073707e-01))
7.672671      	((2.121436e+02 -2.874328e+00 8.097776e+02) (2.409968e-02 1.825394e-02 -5.799064e-02)) ((-5.965798e+00 6.033389e+03 -9.657018e+01) (1.574289e-01 1.038299e+01 -8.138002e-01))
7.750274      	((2.151644e+02 -2.982744e+00 8.216849e+02) (-4.400129e-02 1.650748e-02 -3.101530e-02)) ((-5.998452e+00 6.065762e+03 -9.687973e+01) (1.600601e-01 1.047651e+01 -8.149994e-01))
7.827629      	((2.145183e+02 -2.850214e+00 8.330473e+02) (-1.104155e-01 2.023952e-02 -9.212167e-03)) ((-6.255146e+00 6.096406e+03 -9.758839e+01) (1.594414e-01 1.055489e+01 -8.279122e-01))
7.904759      	((2.178769e+02 -2.445706e+00 8.438410e+02) (-1.771146e-01 2.430326e-02 8.433999e-03)) ((-6.299862e+00 6.127247e+03 -9.934137e+01) (1.594919e-01 1.061817e+01 -8.406524e-01))
7.981704      	((2.174741e+02 -1.820909e+00 8.544119e+02) (-2.394776e-01 2.736362e-02 2.790968e-02)) ((-6.363261e+00 6.156629e+03 -1.011641e+02) (1.619923e-01 1.067887e+01 -8.516806e-01))
8.058483      	((2.212724e+02 -1.319841e+00 8.641545e+02) (-2.972655e-01 2.866089e-02 4.087633e-02)) ((-6.548149e+00 6.184453e+03 -1.025493e+02) (1.605821e-01 1.072092e+01 -8.576502e-01))
8.13513       	((2.208882e+02 -7.672781e-01 8.732452e+02) (-3.503069e-01 3.220159e-02 4.866257e-02)) ((-6.738094e+00 6.210777e+03 -1.039574e+02) (1.599564e-01 1.074954e+01 -8.667617e-01))
8.211667      	((2.242369e+02 1.901228e-01 8.808860e+02) (-4.007459e-01 3.556506e-02 5.598431e-02)) ((-6.618258e+00 6.235069e+03 -1.063992e+02) (1.614971e-01 1.077270e+01 -8.737180e-01))
8.288125      	((2.232675e+02 5.906180e-01 8.878595e+02) (-4.444730e-01 4.070251e-02 6.147817e-02)) ((-6.945074e+00 6.257273e+03 -1.075556e+02) (1.607158e-01 1.078686e+01 -8.852751e-01))
8.364518      	((2.265536e+02 1.816906e+00 8.935856e+02) (-4.815247e-01 4.713690e-02 6.878133e-02)) ((-7.040084e+00 6.277295e+03 -1.102807e+02) (1.601430e-01 1.080577e+01 -8.990123e-01))
8.440864      	((2.260469e+02 2.799652e+00 8.990191e+02) (-5.141756e-01 4.892353e-02 7.961042e-02)) ((-7.184162e+00 6.295866e+03 -1.124661e+02) (1.622144e-01 1.083578e+01 -9.014511e-01))
8.517175      	((2.293757e+02 3.702251e+00 9.027478e+02) (-5.426314e-01 5.587667e-02 8.645573e-02)) ((-7.323650e+00 6.311343e+03 -1.146925e+02) (1.617765e-01 1.085282e+01 -9.191740e-01))
8.593476      	((2.287172e+02 4.435078e+00 9.069191e+02) (-5.647356e-01 6.177528e-02 9.400821e-02)) ((-7.309716e+00 6.326369e+03 -1.167502e+02) (1.626429e-01 1.086686e+01 -9.364207e-01))
8.66978       	((2.316750e+02 4.854545e+00 9.096656e+02) (-5.821897e-01 6.407396e-02 9.741215e-02)) ((-7.469186e+00 6.338427e+03 -1.180935e+02) (1.635546e-01 1.086927e+01 -9.432262e-01))
8.746111      	((2.303175e+02 6.114422e+00 9.134124e+02) (-5.947509e-01 6.668805e-02 9.822055e-02)) ((-7.471658e+00 6.351237e+03 -1.211625e+02) (1.655377e-01 1.086665e+01 -9.503883e-01))
8.822482      	((2.323421e+02 7.138010e+00 9.159123e+02) (-6.055827e-01 6.583517e-02 9.760605e-02)) ((-7.685282e+00 6.362213e+03 -1.247004e+02) (1.677697e-01 1.085891e+01 -9.495953e-01))
8.898919      	((2.304035e+02 8.307887e+00 9.189291e+02) (-6.129574e-01 6.626457e-02 9.447240e-02)) ((-8.009879e+00 6.371610e+03 -1.284113e+02) (1.687510e-01 1.084171e+01 -9.527341e-01))
8.975429      	((2.323477e+02 9.368147e+00 9.203181e+02) (-6.170464e-01 6.732628e-02 8.913646e-02)) ((-8.409715e+00 6.378118e+03 -1.319819e+02) (1.696622e-01 1.081824e+01 -9.573857e-01))
9.052031      	((2.306826e+02 1.018925e+01 9.218687e+02) (-6.162792e-01 6.904660e-02 8.341394e-02)) ((-8.639837e+00 6.382323e+03 -1.344417e+02) (1.711946e-01 1.079701e+01 -9.616354e-01))
9.128732      	((2.323206e+02 1.105495e+01 9.214979e+02) (-6.132007e-01 7.092252e-02 7.510773e-02)) ((-8.794790e+00 6.384133e+03 -1.377525e+02) (1.722638e-01 1.076970e+01 -9.664321e-01))
9.205551      	((2.306315e+02 1.138957e+01 9.221950e+02) (-6.111644e-01 7.240579e-02 7.002719e-02)) ((-8.869459e+00 6.384707e+03 -1.396367e+02) (1.744474e-01 1.074317e+01 -9.684850e-01))
9.282485      	((2.321477e+02 1.161950e+01 9.211763e+02) (-6.098181e-01 7.374350e-02 6.400976e-02)) ((-9.018520e+00 6.383324e+03 -1.416935e+02) (1.751569e-01 1.070848e+01 -9.675782e-01))
9.359544      	((2.303271e+02 1.151496e+01 9.218027e+02) (-6.057455e-01 7.428223e-02 5.766254e-02)) ((-9.031308e+00 6.382433e+03 -1.418066e+02) (1.748217e-01 1.067436e+01 -9.626712e-01))
9.436724      	((2.313475e+02 1.127995e+01 9.207483e+02) (-5.987490e-01 7.788672e-02 4.827420e-02)) ((-9.130680e+00 6.381223e+03 -1.425289e+02) (1.724338e-01 1.063687e+01 -9.640994e-01))
9.51403       	((2.290088e+02 1.112947e+01 9.221649e+02) (-5.913109e-01 7.973976e-02 4.133086e-02)) ((-9.111046e+00 6.381306e+03 -1.426731e+02) (1.705524e-01 1.060412e+01 -9.603639e-01))
9.591448      	((2.299017e+02 1.045556e+01 9.213515e+02) (-5.835918e-01 7.916459e-02 3.619248e-02)) ((-9.111539e+00 6.379896e+03 -1.421444e+02) (1.688815e-01 1.057266e+01 -9.504439e-01))
9.668971      	((2.278237e+02 1.055519e+01 9.225497e+02) (-5.763618e-01 8.240924e-02 3.323742e-02)) ((-9.178114e+00 6.378644e+03 -1.424453e+02) (1.677764e-01 1.054775e+01 -9.472777e-01))
9.746578      	((2.289306e+02 9.993730e+00 9.213495e+02) (-5.678497e-01 8.214657e-02 2.925198e-02)) ((-9.224053e+00 6.376945e+03 -1.416455e+02) (1.662575e-01 1.052594e+01 -9.349221e-01))
9.824264      	((2.269803e+02 9.972127e+00 9.227065e+02) (-5.595579e-01 8.343071e-02 2.611203e-02)) ((-9.281198e+00 6.375655e+03 -1.417174e+02) (1.650928e-01 1.050713e+01 -9.261598e-01))
9.902016      	((2.278808e+02 9.606059e+00 9.216157e+02) (-5.519232e-01 8.357645e-02 2.347783e-02)) ((-9.255523e+00 6.374084e+03 -1.413452e+02) (1.638520e-01 1.048857e+01 -9.136428e-01))
9.979819      	((2.259736e+02 9.574073e+00 9.232090e+02) (-5.416396e-01 8.390594e-02 2.214976e-02)) ((-9.120771e+00 6.373228e+03 -1.409120e+02) (1.628038e-01 1.047395e+01 -9.021528e-01))
10.057653     	((2.269208e+02 9.720472e+00 9.221197e+02) (-5.319006e-01 8.393094e-02 1.869501e-02)) ((-9.064270e+00 6.372546e+03 -1.409762e+02) (1.616980e-01 1.046115e+01 -8.888628e-01))
10.135509     	((2.248604e+02 9.538311e+00 9.238576e+02) (-5.221044e-01 8.285475e-02 1.625662e-02)) ((-9.055439e+00 6.372659e+03 -1.401273e+02) (1.615401e-01 1.045559e+01 -8.736178e-01))
10.21337      	((2.256943e+02 9.848817e+00 9.231169e+02) (-5.117671e-01 8.452485e-02 1.325255e-02)) ((-9.039659e+00 6.373324e+03 -1.408265e+02) (1.599548e-01 1.044917e+01 -8.652697e-01))
10.291228     	((2.236209e+02 9.704789e+00 9.257640e+02) (-5.036396e-01 8.391347e-02 1.258422e-02)) ((-9.108865e+00 6.375051e+03 -1.399626e+02) (1.601283e-01 1.044888e+01 -8.516208e-01))
10.36907      	((2.245040e+02 9.894102e+00 9.255690e+02) (-4.953918e-01 8.473900e-02 9.641854e-03)) ((-9.061196e+00 6.377328e+03 -1.398039e+02) (1.594798e-01 1.044826e+01 -8.416240e-01))
10.44689      	((2.226395e+02 9.739041e+00 9.282187e+02) (-4.877369e-01 8.522372e-02 5.871260e-03)) ((-9.053736e+00 6.380183e+03 -1.386157e+02) (1.590462e-01 1.044938e+01 -8.334181e-01))
10.52468      	((2.238212e+02 9.411571e+00 9.275307e+02) (-4.819645e-01 8.528564e-02 1.822544e-03)) ((-8.959733e+00 6.382149e+03 -1.375854e+02) (1.591815e-01 1.044852e+01 -8.253025e-01))
10.602435     	((2.224456e+02 9.146711e+00 9.300796e+02) (-4.772149e-01 8.529684e-02 -1.140961e-03)) ((-8.824573e+00 6.384601e+03 -1.364741e+02) (1.594176e-01 1.044747e+01 -8.183816e-01))
10.680145     	((2.237849e+02 8.526025e+00 9.293640e+02) (-4.743998e-01 8.263847e-02 -4.904913e-03)) ((-8.693101e+00 6.386633e+03 -1.347133e+02) (1.599915e-01 1.044702e+01 -8.052056e-01))
10.757802     	((2.224935e+02 8.338535e+00 9.313654e+02) (-4.723731e-01 8.454383e-02 -7.666234e-03)) ((-8.628842e+00 6.389082e+03 -1.338018e+02) (1.608947e-01 1.045309e+01 -8.029067e-01))
10.835394     	((2.238744e+02 7.510527e+00 9.305257e+02) (-4.697334e-01 8.208769e-02 -1.048129e-02)) ((-8.463334e+00 6.391732e+03 -1.322321e+02) (1.615621e-01 1.045773e+01 -7.928368e-01))
10.912918     	((2.229796e+02 7.003800e+00 9.322878e+02) (-4.662181e-01 8.059954e-02 -1.177859e-02)) ((-8.300273e+00 6.394637e+03 -1.315303e+02) (1.627417e-01 1.046357e+01 -7.871520e-01))
10.990362     	((2.243893e+02 6.497952e+00 9.310811e+02) (-4.646964e-01 8.228109e-02 -1.577315e-02)) ((-8.201203e+00 6.396879e+03 -1.308318e+02) (1.623974e-01 1.046429e+01 -7.882022e-01))
11.067721     	((2.237609e+02 5.820831e+00 9.325379e+02) (-4.615914e-01 7.936067e-02 -1.908518e-02)) ((-7.994234e+00 6.399734e+03 -1.296322e+02) (1.628482e-01 1.046978e+01 -7.795326e-01))
11.144988     	((2.253741e+02 5.241966e+00 9.309795e+02) (-4.592696e-01 7.770862e-02 -2.357189e-02)) ((-8.013611e+00 6.401845e+03 -1.293086e+02) (1.624366e-01 1.047159e+01 -7.749678e-01))