# Forces      
# CofR        : (0.000000e+00 0.000000e+00 0.000000e+00)
# Time        forces(pressure viscous)	moments(pressure viscous)
0             	((0.000000e+00 0.000000e+00 0.000000e+00) (-9.090928e-01 -2.366942e-04 2.506018e-04)) ((0.000000e+00 0.000000e+00 0.000000e+00) (-3.812614e-06 -6.143547e-04 -3.519047e-04))
0.00772992    	((-8.685452e+02 -3.096052e+00 8.948424e-01) (-2.215512e+00 -7.939427e-04 -4.859940e-03)) ((1.384616e-02 -1.338784e+00 1.346793e+00) (1.707326e-05 -2.996434e-03 5.548938e-05))
0.0170058     	((5.207859e+02 -1.755434e+00 -3.438167e+00) (-6.383605e+00 3.590625e-04 -2.809456e-02)) ((1.343783e-02 7.240550e-01 1.665187e-01) (-1.197089e-04 1.163222e-02 -2.244290e-03))
0.0277199     	((-3.229247e+02 -2.463819e+00 -1.391978e+00) (-6.216607e+00 -1.826056e-03 -1.844109e-02)) ((9.213906e-03 -4.525758e-01 3.382794e-01) (-2.764175e-04 5.304372e-03 -2.516893e-03))
0.0399228     	((8.414347e+01 -2.938207e+00 -2.185702e+00) (-5.970013e+00 -1.709641e-03 -9.780954e-03)) ((1.660016e-02 1.666826e-01 5.785487e-01) (-3.274770e-04 -1.201236e-04 -1.213744e-03))
0.0537148     	((-2.925835e+01 -2.241006e+00 -1.908260e+00) (-5.712428e+00 -2.259568e-03 -8.040945e-03)) ((2.402950e-02 -7.535947e-03 9.221286e-01) (-3.622092e-04 -1.594460e-03 -9.525977e-04))
0.0690916     	((-2.520556e+01 -2.993381e+00 -1.215574e+00) (-5.440816e+00 -1.842027e-03 -6.231019e-03)) ((2.537587e-02 -4.050409e-01 6.582154e-01) (-4.529911e-04 -2.073596e-03 -1.029957e-03))
0.0849231     	((-2.437439e+01 -2.830381e+00 -1.232782e+00) (-5.207357e+00 -4.331878e-04 -4.450945e-03)) ((2.513261e-02 -2.850025e-01 7.482058e-01) (-5.767673e-04 -2.492037e-03 -1.325953e-03))
0.100867      	((-2.256409e+01 -2.605567e+00 -1.208094e+00) (-5.009456e+00 1.521867e-03 -2.519731e-03)) ((2.310397e-02 -2.873481e-01 7.719581e-01) (-7.190797e-04 -3.334022e-03 -1.914881e-03))
0.116983      	((-2.260508e+01 -2.556658e+00 -1.034357e+00) (-4.836400e+00 3.386899e-03 -8.882572e-04)) ((1.995049e-02 -3.397624e-01 7.163285e-01) (-8.627472e-04 -3.711503e-03 -2.470535e-03))
0.133147      	((-2.277882e+01 -2.450127e+00 -9.563707e-01) (-4.681881e+00 4.934416e-03 4.621469e-04)) ((1.851231e-02 -3.218928e-01 7.003895e-01) (-9.984071e-04 -3.750302e-03 -2.914807e-03))
0.149342      	((-2.264269e+01 -2.419707e+00 -9.108467e-01) (-4.540901e+00 6.192198e-03 1.865638e-03)) ((1.847940e-02 -2.995336e-01 7.076563e-01) (-1.120372e-03 -3.695731e-03 -3.316831e-03))
0.165544      	((-2.254958e+01 -2.358779e+00 -8.887135e-01) (-4.410346e+00 7.162555e-03 3.367611e-03)) ((1.684573e-02 -3.060320e-01 6.719077e-01) (-1.229721e-03 -3.735975e-03 -3.663273e-03))
0.181749      	((-2.245608e+01 -2.270628e+00 -8.803935e-01) (-4.288068e+00 7.850211e-03 5.086232e-03)) ((1.220925e-02 -3.067453e-01 6.048921e-01) (-1.327686e-03 -3.909924e-03 -3.954735e-03))
0.197947      	((-2.235593e+01 -2.100232e+00 -8.596285e-01) (-4.172872e+00 8.514317e-03 6.954451e-03)) ((5.137697e-03 -2.905369e-01 4.938183e-01) (-1.414196e-03 -4.021408e-03 -4.161345e-03))
0.214134      	((-2.225292e+01 -1.915033e+00 -8.343929e-01) (-4.064117e+00 9.304329e-03 8.708733e-03)) ((-3.254600e-03 -2.737801e-01 3.551128e-01) (-1.487868e-03 -4.008401e-03 -4.365786e-03))
0.2303        	((-2.215260e+01 -1.783471e+00 -8.286018e-01) (-3.961987e+00 1.014059e-02 1.029767e-02)) ((-1.094148e-02 -2.792423e-01 2.488551e-01) (-1.549297e-03 -3.990454e-03 -4.616091e-03))
0.246439      	((-2.205777e+01 -1.740255e+00 -8.380475e-01) (-3.866426e+00 1.090430e-02 1.182603e-02)) ((-1.557244e-02 -2.802957e-01 2.180028e-01) (-1.602620e-03 -4.051887e-03 -4.867522e-03))
0.262548      	((-2.198577e+01 -1.751207e+00 -8.574663e-01) (-3.776829e+00 1.156055e-02 1.321073e-02)) ((-1.779147e-02 -2.706836e-01 2.234679e-01) (-1.641275e-03 -4.086489e-03 -5.086364e-03))
0.278629      	((-2.191918e+01 -1.793899e+00 -8.777680e-01) (-3.692558e+00 1.220728e-02 1.426018e-02)) ((-1.826287e-02 -2.499844e-01 2.496007e-01) (-1.665427e-03 -3.923943e-03 -5.234226e-03))
0.294686      	((-2.185787e+01 -1.823548e+00 -8.975688e-01) (-3.613136e+00 1.287329e-02 1.509365e-02)) ((-1.820177e-02 -2.173228e-01 2.786929e-01) (-1.679464e-03 -3.660721e-03 -5.285092e-03))
0.310733      	((-2.179619e+01 -1.823705e+00 -9.278682e-01) (-3.538138e+00 1.357002e-02 1.576937e-02)) ((-1.809749e-02 -1.820931e-01 2.977515e-01) (-1.685989e-03 -3.442261e-03 -5.275256e-03))
0.326778      	((-2.173083e+01 -1.801060e+00 -9.578873e-01) (-3.467367e+00 1.424246e-02 1.626958e-02)) ((-1.806902e-02 -1.402041e-01 3.033180e-01) (-1.688058e-03 -3.237430e-03 -5.264855e-03))
0.34282       	((-2.166013e+01 -1.762431e+00 -9.741422e-01) (-3.400730e+00 1.490984e-02 1.666585e-02)) ((-1.808765e-02 -1.018496e-01 3.004177e-01) (-1.684683e-03 -3.053388e-03 -5.294231e-03))
0.358859      	((-2.158996e+01 -1.723698e+00 -9.902974e-01) (-3.337945e+00 1.557266e-02 1.703741e-02)) ((-1.807569e-02 -6.383228e-02 2.961963e-01) (-1.674908e-03 -2.872473e-03 -5.363502e-03))
0.374891      	((-2.151359e+01 -1.694911e+00 -1.008248e+00) (-3.278700e+00 1.622859e-02 1.741025e-02)) ((-1.757476e-02 -3.328418e-02 2.925975e-01) (-1.660636e-03 -2.639759e-03 -5.429326e-03))
0.390917      	((-2.143237e+01 -1.679684e+00 -1.012042e+00) (-3.222721e+00 1.687819e-02 1.785767e-02)) ((-1.716436e-02 -1.565170e-02 2.887945e-01) (-1.644509e-03 -2.394665e-03 -5.441209e-03))
0.406939      	((-2.135160e+01 -1.677161e+00 -1.019072e+00) (-3.169654e+00 1.753582e-02 1.839023e-02)) ((-1.688554e-02 3.195831e-03 2.834209e-01) (-1.625217e-03 -2.150202e-03 -5.408676e-03))
0.422957      	((-2.126798e+01 -1.671875e+00 -1.015487e+00) (-3.119146e+00 1.820830e-02 1.897352e-02)) ((-1.649844e-02 1.638693e-02 2.730808e-01) (-1.603425e-03 -1.859301e-03 -5.316528e-03))
0.43897       	((-2.118396e+01 -1.674850e+00 -1.002493e+00) (-3.070866e+00 1.888125e-02 1.959389e-02)) ((-1.607970e-02 2.223489e-02 2.596650e-01) (-1.581074e-03 -1.525128e-03 -5.153660e-03))
0.454978      	((-2.109762e+01 -1.687452e+00 -9.792650e-01) (-3.024639e+00 1.954424e-02 2.025823e-02)) ((-1.524268e-02 1.818261e-02 2.429852e-01) (-1.559588e-03 -1.199428e-03 -4.937069e-03))
0.470981      	((-2.100910e+01 -1.714910e+00 -9.291893e-01) (-2.980321e+00 2.017158e-02 2.097010e-02)) ((-1.415023e-02 -7.715570e-03 2.190455e-01) (-1.540527e-03 -9.187286e-04 -4.714876e-03))
0.486977      	((-2.091860e+01 -1.734251e+00 -8.664506e-01) (-2.937779e+00 2.076130e-02 2.172259e-02)) ((-1.268207e-02 -4.375766e-02 1.963260e-01) (-1.523674e-03 -6.600168e-04 -4.539170e-03))
0.502967      	((-2.082808e+01 -1.765969e+00 -7.718717e-01) (-2.896863e+00 2.126046e-02 2.248707e-02)) ((-1.105655e-02 -9.469837e-02 1.608730e-01) (-1.514398e-03 -3.876728e-04 -4.438084e-03))
0.518951      	((-2.073850e+01 -1.789665e+00 -7.048325e-01) (-2.857492e+00 2.167855e-02 2.328893e-02)) ((-9.583969e-03 -1.266505e-01 1.313547e-01) (-1.515166e-03 -1.211418e-04 -4.376091e-03))
0.534931      	((-2.065222e+01 -1.811181e+00 -6.562612e-01) (-2.819700e+00 2.204764e-02 2.414314e-02)) ((-8.261569e-03 -1.473092e-01 1.048265e-01) (-1.523274e-03 9.340508e-05 -4.335707e-03))
0.550909      	((-2.057466e+01 -1.858837e+00 -6.248838e-01) (-2.783495e+00 2.235412e-02 2.506820e-02)) ((-7.029494e-03 -1.541846e-01 6.347744e-02) (-1.537174e-03 2.200432e-04 -4.314537e-03))
0.566889      	((-2.050929e+01 -1.900237e+00 -6.255368e-01) (-2.748862e+00 2.265247e-02 2.604505e-02)) ((-6.041419e-03 -1.371019e-01 3.317919e-02) (-1.556994e-03 2.818400e-04 -4.264254e-03))
0.582874      	((-2.045039e+01 -1.927921e+00 -6.229472e-01) (-2.715884e+00 2.300972e-02 2.704623e-02)) ((-5.413569e-03 -1.212883e-01 1.215498e-02) (-1.580215e-03 3.652042e-04 -4.151838e-03))
0.59887       	((-2.039644e+01 -1.968533e+00 -5.876160e-01) (-2.684749e+00 2.345548e-02 2.798143e-02)) ((-5.385630e-03 -1.266835e-01 -1.466082e-02) (-1.604797e-03 5.359545e-04 -3.938755e-03))
0.61488       	((-2.035714e+01 -2.019057e+00 -5.669422e-01) (-2.655526e+00 2.398396e-02 2.884832e-02)) ((-5.960786e-03 -1.217426e-01 -4.385531e-02) (-1.636386e-03 7.851439e-04 -3.622020e-03))
0.630915      	((-2.033071e+01 -2.040743e+00 -5.649745e-01) (-2.628248e+00 2.449444e-02 2.971070e-02)) ((-6.758032e-03 -9.954112e-02 -5.578883e-02) (-1.680687e-03 1.062065e-03 -3.266754e-03))
0.646983      	((-2.031785e+01 -2.053135e+00 -5.650208e-01) (-2.602727e+00 2.491905e-02 3.052833e-02)) ((-7.906398e-03 -6.837367e-02 -6.214888e-02) (-1.738479e-03 1.350561e-03 -2.900167e-03))
0.663091      	((-2.031550e+01 -2.052800e+00 -5.511964e-01) (-2.578675e+00 2.526199e-02 3.123283e-02)) ((-8.936896e-03 -4.389480e-02 -6.239426e-02) (-1.806797e-03 1.643411e-03 -2.494714e-03))
0.679243      	((-2.032107e+01 -2.039681e+00 -5.524564e-01) (-2.555866e+00 2.564323e-02 3.176390e-02)) ((-9.663945e-03 -8.922419e-03 -5.921895e-02) (-1.874758e-03 1.894642e-03 -1.983429e-03))
0.695438      	((-2.032583e+01 -2.019438e+00 -5.891349e-01) (-2.534209e+00 2.608838e-02 3.228507e-02)) ((-1.002939e-02 4.726464e-02 -5.344570e-02) (-1.934890e-03 2.131225e-03 -1.345982e-03))
0.711673      	((-2.032025e+01 -1.977632e+00 -5.949204e-01) (-2.513605e+00 2.655587e-02 3.275804e-02)) ((-1.029156e-02 8.212419e-02 -3.714927e-02) (-1.993659e-03 2.326576e-03 -6.225658e-04))
0.727941      	((-2.029979e+01 -1.929576e+00 -6.015516e-01) (-2.493937e+00 2.686479e-02 3.308261e-02)) ((-1.078204e-02 1.166789e-01 -1.770078e-02) (-2.061090e-03 2.520775e-03 1.039776e-04))
0.744234      	((-2.026714e+01 -1.898905e+00 -6.158244e-01) (-2.475071e+00 2.690980e-02 3.318309e-02)) ((-1.145224e-02 1.521439e-01 -5.506789e-03) (-2.143831e-03 2.752875e-03 7.590771e-04))
0.760544      	((-2.021867e+01 -1.845292e+00 -6.392355e-01) (-2.456836e+00 2.669385e-02 3.302662e-02)) ((-1.239443e-02 1.922311e-01 2.908819e-02) (-2.241936e-03 3.053758e-03 1.294332e-03))
0.776863      	((-2.015644e+01 -1.799829e+00 -6.364678e-01) (-2.439183e+00 2.629944e-02 3.265563e-02)) ((-1.375712e-02 2.146884e-01 6.225476e-02) (-2.355606e-03 3.454022e-03 1.719447e-03))
0.793183      	((-2.008575e+01 -1.785350e+00 -6.024884e-01) (-2.422028e+00 2.569933e-02 3.220676e-02)) ((-1.527065e-02 2.190325e-01 8.392262e-02) (-2.482710e-03 3.879226e-03 2.017449e-03))
0.809498      	((-2.001466e+01 -1.776026e+00 -5.671232e-01) (-2.405272e+00 2.491182e-02 3.169637e-02)) ((-1.714156e-02 2.224411e-01 1.012124e-01) (-2.616026e-03 4.303098e-03 2.201740e-03))
0.825806      	((-1.994133e+01 -1.789654e+00 -5.141227e-01) (-2.388833e+00 2.399148e-02 3.121620e-02)) ((-1.972194e-02 2.161454e-01 1.118609e-01) (-2.743123e-03 4.677349e-03 2.317658e-03))
0.842123      	((-1.986913e+01 -1.829203e+00 -4.561855e-01) (-2.372573e+00 2.308523e-02 3.080155e-02)) ((-2.326064e-02 2.038458e-01 1.164583e-01) (-2.852216e-03 4.987976e-03 2.436650e-03))
0.858463      	((-1.980177e+01 -1.906494e+00 -3.999048e-01) (-2.356314e+00 2.234504e-02 3.059221e-02)) ((-2.761459e-02 1.850808e-01 1.032919e-01) (-2.936138e-03 5.152066e-03 2.617699e-03))
0.87483       	((-1.974439e+01 -2.005267e+00 -3.502658e-01) (-2.340128e+00 2.173797e-02 3.061642e-02)) ((-3.132033e-02 1.661440e-01 8.252428e-02) (-2.994321e-03 5.093636e-03 2.820930e-03))
0.891233      	((-1.969366e+01 -2.079243e+00 -2.995347e-01) (-2.324289e+00 2.125177e-02 3.083777e-02)) ((-3.379578e-02 1.392271e-01 7.070631e-02) (-3.032665e-03 4.872052e-03 2.982962e-03))
0.907678      	((-1.964986e+01 -2.122221e+00 -2.637067e-01) (-2.309119e+00 2.086852e-02 3.109777e-02)) ((-3.476935e-02 1.246474e-01 6.561022e-02) (-3.052756e-03 4.631845e-03 3.071731e-03))
0.924177      	((-1.962130e+01 -2.146313e+00 -2.459223e-01) (-2.294824e+00 2.044463e-02 3.131732e-02)) ((-3.437375e-02 1.296869e-01 5.846465e-02) (-3.068256e-03 4.462712e-03 3.041691e-03))
0.940744      	((-1.960661e+01 -2.171492e+00 -2.241188e-01) (-2.281526e+00 1.988656e-02 3.139871e-02)) ((-3.346793e-02 1.384872e-01 4.571174e-02) (-3.096430e-03 4.430045e-03 2.896903e-03))
0.957392      	((-1.960276e+01 -2.192852e+00 -2.331361e-01) (-2.269062e+00 1.928450e-02 3.127252e-02)) ((-3.282567e-02 1.703627e-01 3.092525e-02) (-3.137061e-03 4.571154e-03 2.713308e-03))
0.974144      	((-1.960529e+01 -2.221715e+00 -3.009271e-01) (-2.257054e+00 1.872392e-02 3.092195e-02)) ((-3.189814e-02 2.388083e-01 9.643680e-03) (-3.179601e-03 4.854685e-03 2.568932e-03))
0.991036      	((-1.960725e+01 -2.251227e+00 -3.669395e-01) (-2.245063e+00 1.825099e-02 3.046735e-02)) ((-3.137192e-02 3.081143e-01 -1.648608e-02) (-3.210358e-03 5.180492e-03 2.488698e-03))
1.008092      	((-1.960049e+01 -2.215586e+00 -4.124562e-01) (-2.232870e+00 1.798016e-02 2.990047e-02)) ((-3.037565e-02 3.626054e-01 -3.525385e-03) (-3.220879e-03 5.504212e-03 2.496745e-03))
1.02525       	((-1.958532e+01 -2.114556e+00 -4.121879e-01) (-2.220538e+00 1.806527e-02 2.920270e-02)) ((-2.864818e-02 3.884344e-01 3.616257e-02) (-3.209407e-03 5.822161e-03 2.645000e-03))
1.042403      	((-1.955496e+01 -1.980362e+00 -3.854782e-01) (-2.208131e+00 1.858455e-02 2.833180e-02)) ((-2.637028e-02 3.978625e-01 9.021855e-02) (-3.177133e-03 6.150182e-03 2.959158e-03))
1.059557      	((-1.951009e+01 -1.797636e+00 -3.673377e-01) (-2.195895e+00 1.940494e-02 2.730137e-02)) ((-2.385415e-02 4.132105e-01 1.715210e-01) (-3.124030e-03 6.471173e-03 3.367609e-03))
1.076714      	((-1.946413e+01 -1.612583e+00 -3.463987e-01) (-2.184199e+00 2.033158e-02 2.608537e-02)) ((-2.177294e-02 4.264708e-01 2.628720e-01) (-3.059104e-03 6.811834e-03 3.804604e-03))
1.093881      	((-1.942163e+01 -1.497558e+00 -3.502353e-01) (-2.173274e+00 2.108793e-02 2.466019e-02)) ((-2.110456e-02 4.491798e-01 3.358925e-01) (-3.000025e-03 7.209731e-03 4.178609e-03))
1.111059      	((-1.938468e+01 -1.497200e+00 -3.968271e-01) (-2.162959e+00 2.156594e-02 2.311761e-02)) ((-2.396869e-02 5.032192e-01 3.784221e-01) (-2.948074e-03 7.614422e-03 4.444535e-03))
1.128253      	((-1.934096e+01 -1.617054e+00 -4.804964e-01) (-2.153100e+00 2.192984e-02 2.151168e-02)) ((-3.031142e-02 5.789319e-01 3.854417e-01) (-2.893759e-03 7.987510e-03 4.645733e-03))
1.145463      	((-1.927749e+01 -1.757297e+00 -5.485441e-01) (-2.143497e+00 2.240133e-02 1.988545e-02)) ((-3.762642e-02 6.473872e-01 3.827279e-01) (-2.823970e-03 8.261719e-03 4.821268e-03))
1.162692      	((-1.919765e+01 -1.779574e+00 -6.220512e-01) (-2.134153e+00 2.331693e-02 1.833839e-02)) ((-4.044100e-02 7.103075e-01 3.930825e-01) (-2.716446e-03 8.379831e-03 5.056826e-03))
1.179938      	((-1.913033e+01 -1.619657e+00 -7.152517e-01) (-2.125631e+00 2.477184e-02 1.716579e-02)) ((-3.655348e-02 7.677350e-01 4.403256e-01) (-2.555432e-03 8.316152e-03 5.393503e-03))
1.197199      	((-1.908571e+01 -1.353329e+00 -8.202268e-01) (-2.118287e+00 2.650415e-02 1.658871e-02)) ((-2.918349e-02 8.209545e-01 5.072134e-01) (-2.358766e-03 8.059782e-03 5.768156e-03))
1.214472      	((-1.905609e+01 -1.092402e+00 -9.175154e-01) (-2.112103e+00 2.816388e-02 1.664968e-02)) ((-2.373871e-02 8.592762e-01 5.775909e-01) (-2.161254e-03 7.653731e-03 6.091219e-03))
1.231753      	((-1.902031e+01 -9.034229e-01 -1.012689e+00) (-2.106669e+00 2.949038e-02 1.731670e-02)) ((-2.107237e-02 8.683686e-01 6.147187e-01) (-2.000423e-03 7.073030e-03 6.295223e-03))
1.249037      	((-1.896550e+01 -7.524122e-01 -1.048969e+00) (-2.101434e+00 3.046274e-02 1.858147e-02)) ((-1.992728e-02 8.326017e-01 6.320652e-01) (-1.886149e-03 6.260885e-03 6.347978e-03))
1.266321      	((-1.890206e+01 -6.055410e-01 -1.021877e+00) (-2.096077e+00 3.129910e-02 2.020311e-02)) ((-1.911633e-02 7.581289e-01 6.417146e-01) (-1.818097e-03 5.299898e-03 6.275395e-03))
1.283604      	((-1.885450e+01 -4.320543e-01 -9.704495e-01) (-2.090749e+00 3.198594e-02 2.192301e-02)) ((-1.581158e-02 6.789138e-01 6.455611e-01) (-1.790737e-03 4.301069e-03 6.068457e-03))
1.300886      	((-1.882391e+01 -2.276686e-01 -8.804289e-01) (-2.085656e+00 3.228896e-02 2.358439e-02)) ((-1.063807e-02 5.863209e-01 6.647306e-01) (-1.807958e-03 3.338211e-03 5.678191e-03))
1.318167      	((-1.880048e+01 -3.221879e-02 -7.409429e-01) (-2.080933e+00 3.193982e-02 2.512047e-02)) ((-6.415130e-03 4.671043e-01 6.842962e-01) (-1.877262e-03 2.406501e-03 5.035114e-03))
1.33545       	((-1.878374e+01 1.561301e-01 -5.875713e-01) (-2.076930e+00 3.065111e-02 2.673610e-02)) ((-3.160150e-03 3.343183e-01 7.123907e-01) (-1.990706e-03 1.501926e-03 4.073582e-03))
1.352735      	((-1.877579e+01 2.960898e-01 -4.588435e-01) (-2.073970e+00 2.832744e-02 2.832941e-02)) ((3.045151e-05 2.201823e-01 7.474636e-01) (-2.144494e-03 6.788663e-04 2.750609e-03))
1.370024      	((-1.878450e+01 3.290510e-01 -3.373955e-01) (-2.072169e+00 2.508577e-02 2.967804e-02)) ((1.958532e-03 1.167824e-01 7.717460e-01) (-2.340186e-03 3.747437e-05 1.152056e-03))
1.387317      	((-1.880907e+01 2.431855e-01 -2.246120e-01) (-2.071687e+00 2.111070e-02 3.068024e-02)) ((1.693881e-03 2.377639e-02 7.696471e-01) (-2.572836e-03 -3.666881e-04 -5.946907e-04))
1.404613      	((-1.884583e+01 7.584207e-02 -1.357739e-01) (-2.072560e+00 1.680389e-02 3.130038e-02)) ((-7.570191e-04 -5.844341e-02 7.533489e-01) (-2.834284e-03 -5.192709e-04 -2.267889e-03))
1.421911      	((-1.888523e+01 -1.421148e-01 -9.592736e-02) (-2.074322e+00 1.249678e-02 3.150551e-02)) ((-4.553606e-03 -1.067596e-01 7.261855e-01) (-3.111213e-03 -4.000005e-04 -3.666014e-03))
1.43921       	((-1.892470e+01 -3.649659e-01 -6.798241e-02) (-2.076403e+00 8.528038e-03 3.140067e-02)) ((-8.191110e-03 -1.443098e-01 7.038077e-01) (-3.386375e-03 -1.066674e-04 -4.709866e-03))
1.456509      	((-1.897663e+01 -5.106344e-01 -5.650258e-02) (-2.078554e+00 4.946174e-03 3.124632e-02)) ((-1.075567e-02 -1.664851e-01 7.030003e-01) (-3.635742e-03 1.985474e-04 -5.422085e-03))
1.473806      	((-1.904387e+01 -6.320451e-01 -1.420877e-02) (-2.080712e+00 1.787490e-03 3.125507e-02)) ((-1.141387e-02 -1.966016e-01 7.083973e-01) (-3.835387e-03 4.051882e-04 -5.865227e-03))
1.491101      	((-1.910543e+01 -7.737843e-01 3.467217e-02) (-2.082589e+00 -8.295079e-04 3.162785e-02)) ((-1.111987e-02 -2.115654e-01 7.077221e-01) (-3.969020e-03 4.746289e-04 -6.107680e-03))
1.508393      	((-1.913979e+01 -9.788425e-01 9.765502e-02) (-2.083564e+00 -2.658238e-03 3.234697e-02)) ((-1.086752e-02 -2.188859e-01 6.865786e-01) (-4.032152e-03 4.089845e-04 -6.171452e-03))
1.525683      	((-1.914574e+01 -1.237591e+00 2.155621e-01) (-2.083018e+00 -3.524000e-03 3.321942e-02)) ((-8.980165e-03 -2.211933e-01 6.180971e-01) (-4.029968e-03 3.022301e-04 -6.071302e-03))
1.542974      	((-1.915830e+01 -1.425469e+00 3.507641e-01) (-2.080447e+00 -3.490149e-03 3.379697e-02)) ((-6.331282e-03 -2.019464e-01 5.297570e-01) (-3.975809e-03 3.472364e-04 -5.844363e-03))
1.56027       	((-1.919352e+01 -1.574905e+00 4.609150e-01) (-2.075552e+00 -2.852196e-03 3.384418e-02)) ((-6.570134e-03 -1.680534e-01 4.134746e-01) (-3.887060e-03 6.005295e-04 -5.556263e-03))
1.57758       	((-1.922524e+01 -1.842368e+00 4.336671e-01) (-2.068536e+00 -1.884340e-03 3.329537e-02)) ((-1.245036e-02 -7.795319e-02 2.430293e-01) (-3.780145e-03 1.015158e-03 -5.207101e-03))
1.594914      	((-1.923371e+01 -2.199184e+00 2.972860e-01) (-2.059748e+00 -6.067509e-04 3.211777e-02)) ((-2.405654e-02 5.042239e-02 5.520325e-02) (-3.648003e-03 1.600955e-03 -4.691518e-03))
1.612281      	((-1.922115e+01 -2.420534e+00 1.008706e-01) (-2.049649e+00 1.071917e-03 3.049153e-02)) ((-3.263291e-02 1.901391e-01 -7.062937e-02) (-3.478398e-03 2.359158e-03 -3.834441e-03))
1.629691      	((-1.918290e+01 -2.360822e+00 -1.187162e-01) (-2.039068e+00 3.280011e-03 2.859308e-02)) ((-2.918284e-02 3.358635e-01 -9.046753e-02) (-3.283647e-03 3.434765e-03 -2.542580e-03))
1.647154      	((-1.913314e+01 -2.143187e+00 -3.003313e-01) (-2.029323e+00 6.138712e-03 2.642256e-02)) ((-1.744708e-02 4.737606e-01 -3.738369e-02) (-3.085027e-03 4.971935e-03 -8.155830e-04))
1.664679      	((-1.906477e+01 -1.921931e+00 -4.743899e-01) (-2.021564e+00 9.261240e-03 2.371830e-02)) ((-6.512637e-03 6.053795e-01 4.092112e-02) (-2.922127e-03 6.936952e-03 1.175161e-03))
1.682258      	((-1.898240e+01 -1.719000e+00 -6.186920e-01) (-2.015963e+00 1.221937e-02 2.061230e-02)) ((-3.188772e-03 6.892091e-01 1.326164e-01) (-2.821305e-03 9.136673e-03 3.305438e-03))
1.699854      	((-1.891095e+01 -1.516286e+00 -7.152600e-01) (-2.012309e+00 1.510095e-02 1.752316e-02)) ((-6.295271e-03 7.364799e-01 2.164640e-01) (-2.776334e-03 1.140852e-02 5.568112e-03))
1.717441      	((-1.885207e+01 -1.308441e+00 -7.734604e-01) (-2.010196e+00 1.799968e-02 1.468133e-02)) ((-1.104717e-02 7.459050e-01 3.077904e-01) (-2.765806e-03 1.362153e-02 7.957182e-03))
1.734994      	((-1.880406e+01 -1.073401e+00 -8.024725e-01) (-2.009345e+00 2.116325e-02 1.223230e-02)) ((-1.635448e-02 7.170131e-01 4.224237e-01) (-2.755723e-03 1.561414e-02 1.039930e-02))
1.752478      	((-1.877315e+01 -7.854574e-01 -7.926730e-01) (-2.009517e+00 2.455908e-02 1.000539e-02)) ((-2.143492e-02 6.453203e-01 5.601885e-01) (-2.726528e-03 1.730808e-02 1.276108e-02))
1.769869      	((-1.875204e+01 -4.261687e-01 -7.539452e-01) (-2.010571e+00 2.775358e-02 7.983912e-03)) ((-2.490684e-02 5.469410e-01 7.144500e-01) (-2.679704e-03 1.874481e-02 1.491649e-02))
1.787176      	((-1.872975e+01 -3.132109e-02 -7.260433e-01) (-2.012434e+00 3.034307e-02 6.016689e-03)) ((-2.524706e-02 4.804829e-01 9.070965e-01) (-2.629167e-03 1.994554e-02 1.670064e-02))
1.804423      	((-1.871684e+01 3.283026e-01 -7.000011e-01) (-2.014897e+00 3.215517e-02 4.027264e-03)) ((-2.057303e-02 4.501044e-01 1.080046e+00) (-2.581518e-03 2.100584e-02 1.805246e-02))
1.821619      	((-1.872533e+01 6.210612e-01 -6.377865e-01) (-2.017721e+00 3.292018e-02 2.078667e-03)) ((-1.008320e-02 4.482250e-01 1.231334e+00) (-2.549573e-03 2.203614e-02 1.898381e-02))
1.838797      	((-1.875071e+01 7.581619e-01 -5.707336e-01) (-2.020992e+00 3.276268e-02 2.219474e-04)) ((3.273749e-03 4.765150e-01 1.340215e+00) (-2.547742e-03 2.299305e-02 1.958096e-02))
1.855981      	((-1.877753e+01 7.733418e-01 -5.004089e-01) (-2.024187e+00 3.198897e-02 -1.389801e-03)) ((1.697707e-02 5.226270e-01 1.415357e+00) (-2.598357e-03 2.380708e-02 1.982735e-02))
1.873175      	((-1.880378e+01 7.314072e-01 -4.636033e-01) (-2.026434e+00 3.076786e-02 -2.835807e-03)) ((2.774972e-02 5.609007e-01 1.482135e+00) (-2.711033e-03 2.450583e-02 1.975026e-02))
1.890403      	((-1.883232e+01 6.672520e-01 -4.769931e-01) (-2.026853e+00 2.936034e-02 -4.087876e-03)) ((3.372722e-02 5.677464e-01 1.534362e+00) (-2.873572e-03 2.499723e-02 1.939606e-02))
1.907689      	((-1.887037e+01 6.514483e-01 -5.464447e-01) (-2.024960e+00 2.781650e-02 -5.036085e-03)) ((3.423257e-02 5.327594e-01 1.578137e+00) (-3.058523e-03 2.510094e-02 1.886011e-02))
1.925041      	((-1.890794e+01 6.992216e-01 -6.349431e-01) (-2.020593e+00 2.600115e-02 -5.555268e-03)) ((2.858295e-02 4.473125e-01 1.619659e+00) (-3.245939e-03 2.471801e-02 1.826622e-02))
1.942443      	((-1.892900e+01 7.920555e-01 -7.861059e-01) (-2.014602e+00 2.370470e-02 -5.584572e-03)) ((1.625334e-02 3.309441e-01 1.645313e+00) (-3.424602e-03 2.396177e-02 1.750047e-02))
1.959879      	((-1.893001e+01 9.279277e-01 -9.197900e-01) (-2.008430e+00 2.086060e-02 -4.980854e-03)) ((1.301445e-03 2.008242e-01 1.662649e+00) (-3.574747e-03 2.291210e-02 1.640543e-02))
1.977329      	((-1.892383e+01 9.993162e-01 -9.482035e-01) (-2.003515e+00 1.736028e-02 -3.548393e-03)) ((-1.180498e-02 8.238646e-02 1.665482e+00) (-3.675598e-03 2.158722e-02 1.501867e-02))
1.994746      	((-1.891818e+01 1.008136e+00 -8.356676e-01) (-2.000571e+00 1.332854e-02 -1.175755e-03)) ((-2.087437e-02 2.150302e-03 1.665711e+00) (-3.731769e-03 2.007178e-02 1.339202e-02))
2.012081      	((-1.890511e+01 9.124227e-01 -7.139376e-01) (-1.999603e+00 8.924795e-03 1.934770e-03)) ((-2.653833e-02 -1.600708e-02 1.685747e+00) (-3.761376e-03 1.852004e-02 1.157441e-02))
2.029044      	((-1.888502e+01 6.506076e-01 -5.741103e-01) (-2.000412e+00 4.220087e-03 5.288361e-03)) ((-2.979262e-02 4.547731e-03 1.712451e+00) (-3.771977e-03 1.703099e-02 9.681086e-03))
2.0458        	((-1.884771e+01 2.853273e-01 -4.551555e-01) (-2.002214e+00 -6.119169e-04 8.582906e-03)) ((-3.177321e-02 1.141919e-02 1.746592e+00) (-3.774730e-03 1.560548e-02 7.691501e-03))
2.06255       	((-1.879028e+01 -9.018521e-02 -3.485248e-01) (-2.004171e+00 -5.356286e-03 1.146539e-02)) ((-3.140907e-02 -1.515258e-03 1.787134e+00) (-3.793649e-03 1.425201e-02 5.587263e-03))
2.079509      	((-1.872857e+01 -4.515201e-01 -2.806374e-01) (-2.005909e+00 -9.789259e-03 1.369319e-02)) ((-2.508818e-02 -1.898506e-02 1.816211e+00) (-3.820721e-03 1.287012e-02 3.411121e-03))
2.09646       	((-1.867868e+01 -7.281514e-01 -2.666140e-01) (-2.007280e+00 -1.369342e-02 1.550611e-02)) ((-1.283926e-02 -3.599306e-02 1.827131e+00) (-3.835219e-03 1.143531e-02 1.323876e-03))
2.113436      	((-1.862201e+01 -9.192637e-01 -2.492536e-01) (-2.008088e+00 -1.699076e-02 1.716645e-02)) ((2.085103e-03 -5.540583e-02 1.770486e+00) (-3.832139e-03 9.983745e-03 -7.687081e-04))
2.130471      	((-1.859531e+01 -1.013691e+00 -2.538771e-01) (-2.008232e+00 -1.955803e-02 1.850691e-02)) ((1.701151e-02 -7.843772e-02 1.618963e+00) (-3.826456e-03 8.557350e-03 -2.848121e-03))
2.1476        	((-1.860185e+01 -1.069265e+00 -2.040060e-01) (-2.007605e+00 -2.164290e-02 1.936626e-02)) ((2.760594e-02 -1.387321e-01 1.387033e+00) (-3.833436e-03 7.156051e-03 -4.805576e-03))
2.164817      	((-1.863534e+01 -1.208321e+00 -1.162028e-01) (-2.006538e+00 -2.389938e-02 1.969816e-02)) ((3.062243e-02 -2.164593e-01 1.090040e+00) (-3.860240e-03 5.756490e-03 -6.646774e-03))
2.18209       	((-1.866568e+01 -1.503048e+00 -9.363947e-02) (-2.005582e+00 -2.669062e-02 1.938413e-02)) ((2.596978e-02 -2.673571e-01 7.759726e-01) (-3.920443e-03 4.470551e-03 -8.311908e-03))
2.199404      	((-1.868806e+01 -2.049910e+00 -9.244253e-02) (-2.004897e+00 -2.997440e-02 1.828374e-02)) ((1.559955e-02 -3.092199e-01 4.671715e-01) (-4.017448e-03 3.486193e-03 -9.632520e-03))
2.216737      	((-1.869645e+01 -2.818127e+00 -1.160141e-01) (-2.004427e+00 -3.340234e-02 1.628315e-02)) ((4.656213e-03 -2.798692e-01 1.987465e-01) (-4.126949e-03 3.114763e-03 -1.026142e-02))
2.234038      	((-1.868622e+01 -3.673424e+00 -1.086877e-01) (-2.004451e+00 -3.595716e-02 1.351727e-02)) ((-1.618448e-03 -2.039567e-01 -5.676282e-03) (-4.206380e-03 3.575277e-03 -9.821403e-03))
2.251276      	((-1.867859e+01 -4.390874e+00 -1.117952e-01) (-2.006002e+00 -3.692533e-02 1.013292e-02)) ((3.952749e-04 -8.835055e-02 -8.954175e-02) (-4.235995e-03 4.900157e-03 -8.230313e-03))
2.268448      	((-1.866993e+01 -4.914091e+00 -1.770042e-01) (-2.010499e+00 -3.597516e-02 6.132588e-03)) ((6.853916e-03 2.181653e-02 -9.022403e-02) (-4.223858e-03 7.025354e-03 -5.763188e-03))
2.285577      	((-1.864678e+01 -5.155759e+00 -3.160778e-01) (-2.018955e+00 -3.302427e-02 1.264675e-03)) ((1.183285e-02 6.701349e-02 -7.914868e-02) (-4.198201e-03 9.842218e-03 -2.823949e-03))
2.302682      	((-1.859632e+01 -5.062061e+00 -5.751981e-01) (-2.030522e+00 -2.870183e-02 -4.289872e-03)) ((8.195298e-03 2.714415e-02 -5.164217e-02) (-4.193607e-03 1.295575e-02 2.349782e-04))
2.319804      	((-1.852294e+01 -4.776422e+00 -9.197354e-01) (-2.043329e+00 -2.355608e-02 -1.022601e-02)) ((-4.116912e-03 -6.446992e-02 -1.695653e-02) (-4.221221e-03 1.596849e-02 3.193699e-03))
2.33697       	((-1.844356e+01 -4.355510e+00 -1.127342e+00) (-2.055058e+00 -1.798896e-02 -1.613150e-02)) ((-2.059275e-02 -1.601060e-01 -3.170872e-03) (-4.258951e-03 1.874852e-02 5.895236e-03))
2.354184      	((-1.836947e+01 -3.856467e+00 -1.178332e+00) (-2.063645e+00 -1.235004e-02 -2.139099e-02)) ((-3.051687e-02 -1.629779e-01 1.153175e-02) (-4.280433e-03 2.130155e-02 8.389437e-03))
2.370883      	((-1.834320e+01 -3.297596e+00 -1.065627e+00) (-2.068713e+00 -6.736880e-03 -2.574848e-02)) ((-3.102176e-02 -6.255836e-02 3.764166e-02) (-4.262722e-03 2.355818e-02 1.063197e-02))
2.387523      	((-1.832676e+01 -2.689481e+00 -9.071634e-01) (-2.071445e+00 -9.373725e-04 -2.960273e-02)) ((-2.759250e-02 2.816245e-02 5.841345e-02) (-4.211387e-03 2.551057e-02 1.274049e-02))
2.404521      	((-1.832068e+01 -2.060470e+00 -7.822060e-01) (-2.072835e+00 5.132098e-03 -3.307995e-02)) ((-2.220910e-02 1.063000e-01 7.971758e-02) (-4.131403e-03 2.716255e-02 1.489641e-02))
2.422081      	((-1.831799e+01 -1.459569e+00 -7.089749e-01) (-2.073717e+00 1.119851e-02 -3.609621e-02)) ((-1.589362e-02 1.679822e-01 1.011843e-01) (-4.026281e-03 2.843955e-02 1.719634e-02))
2.439758      	((-1.831071e+01 -9.624394e-01 -6.227910e-01) (-2.074633e+00 1.653103e-02 -3.839873e-02)) ((-7.206451e-03 1.917864e-01 1.441515e-01) (-3.914436e-03 2.915974e-02 1.954102e-02))
2.457572      	((-1.827292e+01 -6.177643e-01 -4.916425e-01) (-2.075996e+00 2.077513e-02 -3.961443e-02)) ((-2.905388e-04 1.629323e-01 2.111192e-01) (-3.814422e-03 2.923202e-02 2.187227e-02))
2.475543      	((-1.822935e+01 -4.911907e-01 -3.441224e-01) (-2.078197e+00 2.392930e-02 -3.990375e-02)) ((2.836353e-03 1.012637e-01 2.697412e-01) (-3.736363e-03 2.882656e-02 2.409425e-02))
2.493724      	((-1.819152e+01 -6.000165e-01 -1.800133e-01) (-2.080446e+00 2.613903e-02 -3.958816e-02)) ((1.833807e-03 -1.901783e-02 3.050987e-01) (-3.678919e-03 2.808050e-02 2.605135e-02))
2.512232      	((-1.814084e+01 -8.717197e-01 -4.037671e-02) (-2.081578e+00 2.763193e-02 -3.894212e-02)) ((-2.052072e-03 -1.610687e-01 3.300754e-01) (-3.634328e-03 2.706039e-02 2.773213e-02))
2.530964      	((-1.808162e+01 -1.199963e+00 1.153561e-01) (-2.080736e+00 2.880338e-02 -3.821878e-02)) ((-8.024774e-03 -3.307904e-01 3.607599e-01) (-3.584501e-03 2.585070e-02 2.908659e-02))
2.549458      	((-1.803428e+01 -1.470880e+00 2.294048e-01) (-2.077556e+00 3.013454e-02 -3.741416e-02)) ((-1.313795e-02 -4.958553e-01 3.840475e-01) (-3.514037e-03 2.462744e-02 3.007409e-02))
2.567783      	((-1.802915e+01 -1.517320e+00 2.387088e-01) (-2.072481e+00 3.178397e-02 -3.672149e-02)) ((-1.123551e-02 -6.450574e-01 4.094110e-01) (-3.410158e-03 2.341607e-02 3.067733e-02))
2.585943      	((-1.810015e+01 -1.272070e+00 1.372061e-01) (-2.065846e+00 3.372484e-02 -3.625436e-02)) ((-8.052137e-04 -7.440480e-01 4.716506e-01) (-3.266464e-03 2.217600e-02 3.094913e-02))