# Forces      
# CofR        : (0.000000e+00 0.000000e+00 0.000000e+00)
# Time        forces(pressure viscous)	moments(pressure viscous)
0             	((0.000000e+00 0.000000e+00 0.000000e+00) (2.398410e-04 1.569946e-04 -1.027192e+00)) ((0.000000e+00 0.000000e+00 0.000000e+00) (5.027499e-04 1.318762e-01 1.035954e-04))
0.0029919     	((2.760659e+00 -5.532218e-01 -1.145957e+04) (-1.069775e-02 1.466935e-03 -2.568202e+00)) ((6.622763e-02 1.335852e+03 2.385737e+00) (-4.391323e-04 1.328133e-01 -1.976577e-04))
0.00658217    	((-8.073557e+00 -2.127178e+00 3.315204e+03) (-3.501653e-02 -5.103660e-03 -5.925790e+00)) ((-1.003817e-01 -8.722802e+02 -9.894311e-01) (-5.396079e-04 3.760027e-01 -2.953214e-03))
0.0108905     	((-1.847397e+00 -3.927720e+00 -1.184837e+01) (-4.913078e-02 -1.795740e-02 -9.029720e+00)) ((-4.885133e-03 3.067716e+02 -3.079994e+00) (2.392813e-05 5.975141e-01 -5.357753e-03))
0.0158908     	((-6.235994e+00 2.673563e+00 -1.017244e+02) (-4.251627e-02 -1.653680e-02 -7.636084e+00)) ((-6.775334e-02 -1.781084e+02 1.459764e+00) (-1.060197e-04 4.657111e-01 -3.668869e-03))
0.0215428     	((-2.741330e+00 -2.095790e+00 -2.667860e+02) (-4.189323e-02 -1.738735e-02 -6.987039e+00)) ((-7.261818e-02 -3.878470e+01 -1.840335e+00) (1.965399e-04 4.404267e-01 -5.170653e-03))
0.0277453     	((-3.881517e+00 -1.670484e+00 -2.641938e+02) (-4.179319e-02 -2.046751e-02 -6.479438e+00)) ((-7.749718e-02 -4.012565e+01 -7.738712e-01) (-5.094692e-05 4.200078e-01 -6.872339e-03))
0.034129      	((-4.033387e+00 -1.938931e-01 -2.628795e+02) (-4.136567e-02 -1.918919e-02 -6.081062e+00)) ((-8.341814e-02 -4.945670e+01 -9.960546e-02) (-1.271340e-04 3.981765e-01 -8.617407e-03))
0.0408034     	((-3.777616e+00 -9.629026e-01 -2.710469e+02) (-4.103900e-02 -1.741177e-02 -5.757728e+00)) ((-9.871604e-02 -4.743380e+01 2.307580e-01) (-2.460364e-04 3.783745e-01 -9.441155e-03))
0.047876      	((-3.256095e+00 -8.776068e-01 -2.812382e+02) (-4.037078e-02 -1.755851e-02 -5.493189e+00)) ((-1.031785e-01 -4.372260e+01 4.987242e-01) (-4.782166e-04 3.617627e-01 -8.638209e-03))
0.0554464     	((-2.820625e+00 -1.079292e+00 -2.894755e+02) (-3.906885e-02 -1.866645e-02 -5.265027e+00)) ((-1.005546e-01 -4.039066e+01 8.464298e-01) (-6.897443e-04 3.491295e-01 -7.932752e-03))
0.0635568     	((-2.257058e+00 -1.329762e+00 -2.950259e+02) (-3.719599e-02 -1.727937e-02 -5.069109e+00)) ((-9.693802e-02 -3.728439e+01 1.268148e+00) (-7.517187e-04 3.389477e-01 -7.174415e-03))
0.0722262     	((-1.834441e+00 -1.356210e+00 -2.979391e+02) (-3.479181e-02 -1.663093e-02 -4.899488e+00)) ((-8.908605e-02 -3.458621e+01 1.452534e+00) (-7.773507e-04 3.292673e-01 -6.229956e-03))
0.0813857     	((-1.388245e+00 -9.074674e-01 -2.982579e+02) (-3.226065e-02 -1.835128e-02 -4.746006e+00)) ((-8.794967e-02 -3.222065e+01 1.592470e+00) (-8.178473e-04 3.168960e-01 -5.505848e-03))
0.090943      	((-9.487212e-01 -9.461646e-01 -2.976682e+02) (-3.044784e-02 -2.076639e-02 -4.609659e+00)) ((-8.908033e-02 -2.967190e+01 1.596331e+00) (-8.412609e-04 3.026329e-01 -5.248914e-03))
0.100814      	((-5.834065e-01 -8.606031e-01 -2.954851e+02) (-2.986783e-02 -2.267601e-02 -4.492618e+00)) ((-9.079352e-02 -2.741340e+01 1.658026e+00) (-8.259287e-04 2.895233e-01 -5.099705e-03))
0.110835      	((-1.634249e-01 -1.343529e+00 -2.916541e+02) (-3.094884e-02 -2.366413e-02 -4.393676e+00)) ((-9.969177e-02 -2.567120e+01 1.955621e+00) (-8.397657e-04 2.785980e-01 -4.518321e-03))
0.120876      	((2.563828e-01 -1.824603e+00 -2.879955e+02) (-3.296134e-02 -2.415932e-02 -4.304908e+00)) ((-1.040703e-01 -2.402279e+01 2.311281e+00) (-8.647669e-04 2.686924e-01 -3.607542e-03))
0.130939      	((7.117073e-01 -2.418635e+00 -2.849561e+02) (-3.518903e-02 -2.476942e-02 -4.221242e+00)) ((-1.093845e-01 -2.249010e+01 2.673120e+00) (-8.528844e-04 2.594769e-01 -2.676383e-03))
0.141106      	((1.176729e+00 -2.829032e+00 -2.818364e+02) (-3.700208e-02 -2.545902e-02 -4.142309e+00)) ((-1.108358e-01 -2.109714e+01 2.910118e+00) (-8.094958e-04 2.510367e-01 -1.822034e-03))
0.151422      	((1.626657e+00 -3.322268e+00 -2.796074e+02) (-3.833458e-02 -2.620733e-02 -4.068521e+00)) ((-1.073299e-01 -1.977439e+01 2.979843e+00) (-7.376888e-04 2.432148e-01 -1.113527e-03))
0.161836      	((2.075558e+00 -3.532397e+00 -2.784778e+02) (-3.937830e-02 -2.669978e-02 -3.999007e+00)) ((-9.749284e-02 -1.835652e+01 2.995811e+00) (-6.304324e-04 2.350231e-01 -6.030150e-04))
0.172261      	((2.460343e+00 -3.556467e+00 -2.781759e+02) (-4.045202e-02 -2.601162e-02 -3.932595e+00)) ((-8.017172e-02 -1.697099e+01 2.958482e+00) (-5.083277e-04 2.261377e-01 1.147294e-05))
0.182664      	((2.821775e+00 -3.684840e+00 -2.781645e+02) (-4.101929e-02 -2.419882e-02 -3.869163e+00)) ((-6.174557e-02 -1.554715e+01 2.991679e+00) (-4.061200e-04 2.171000e-01 8.074776e-04))
0.193076      	((3.143989e+00 -3.626360e+00 -2.782960e+02) (-4.116784e-02 -2.214484e-02 -3.810176e+00)) ((-4.556228e-02 -1.427956e+01 3.080265e+00) (-3.167794e-04 2.080443e-01 1.745875e-03))
0.203602      	((3.433298e+00 -3.931859e+00 -2.785144e+02) (-4.007777e-02 -2.060117e-02 -3.755537e+00)) ((-3.884777e-02 -1.309522e+01 3.324587e+00) (-2.166325e-04 1.992453e-01 2.695713e-03))
0.214468      	((3.734208e+00 -4.111968e+00 -2.791065e+02) (-3.807367e-02 -1.943576e-02 -3.704216e+00)) ((-3.313258e-02 -1.194763e+01 3.450153e+00) (-9.337170e-05 1.907842e-01 3.541140e-03))
0.225695      	((4.027508e+00 -4.607335e+00 -2.798616e+02) (-3.576266e-02 -1.883248e-02 -3.655570e+00)) ((-3.554796e-02 -1.084421e+01 3.625002e+00) (1.954171e-05 1.829325e-01 4.051836e-03))
0.237459      	((4.313250e+00 -4.877959e+00 -2.802283e+02) (-3.353013e-02 -1.828065e-02 -3.609615e+00)) ((-3.481957e-02 -9.778010e+00 3.705604e+00) (1.367964e-04 1.754904e-01 4.546636e-03))
0.24987       	((4.593519e+00 -5.100320e+00 -2.803303e+02) (-3.160473e-02 -1.739451e-02 -3.567019e+00)) ((-3.416001e-02 -8.818446e+00 3.824867e+00) (2.450546e-04 1.691104e-01 5.356179e-03))
0.262385      	((4.857501e+00 -5.375516e+00 -2.801486e+02) (-2.999801e-02 -1.698150e-02 -3.530167e+00)) ((-3.292951e-02 -7.999494e+00 3.844779e+00) (3.537414e-04 1.645246e-01 6.100789e-03))
0.274994      	((5.111547e+00 -5.563455e+00 -2.797951e+02) (-2.891277e-02 -1.741003e-02 -3.497977e+00)) ((-3.145473e-02 -7.300004e+00 3.817070e+00) (4.967041e-04 1.611695e-01 6.782389e-03))
0.28768       	((5.336297e+00 -5.742376e+00 -2.792184e+02) (-2.838572e-02 -1.853618e-02 -3.468880e+00)) ((-2.794129e-02 -6.831919e+00 3.766669e+00) (6.341985e-04 1.588817e-01 7.466706e-03))
0.300425      	((5.525145e+00 -5.750084e+00 -2.784426e+02) (-2.836218e-02 -2.007295e-02 -3.442931e+00)) ((-2.689675e-02 -6.578455e+00 3.702452e+00) (7.260468e-04 1.578258e-01 8.130117e-03))
0.313225      	((5.675487e+00 -5.565288e+00 -2.772618e+02) (-2.877474e-02 -2.136930e-02 -3.419049e+00)) ((-2.613010e-02 -6.529274e+00 3.660485e+00) (7.701443e-04 1.579208e-01 8.835666e-03))
0.326075      	((5.773241e+00 -5.047282e+00 -2.758920e+02) (-2.966835e-02 -2.189569e-02 -3.395879e+00)) ((-2.632979e-02 -6.524142e+00 3.658549e+00) (7.536638e-04 1.589220e-01 9.187137e-03))
0.338969      	((5.848528e+00 -4.419158e+00 -2.744133e+02) (-3.070928e-02 -2.195023e-02 -3.374055e+00)) ((-2.497491e-02 -6.545698e+00 3.644128e+00) (6.980923e-04 1.604097e-01 9.351424e-03))
0.351903      	((5.886688e+00 -3.786360e+00 -2.728930e+02) (-3.157485e-02 -2.149298e-02 -3.353918e+00)) ((-2.419511e-02 -6.622414e+00 3.666255e+00) (6.044518e-04 1.622926e-01 9.323394e-03))
0.364883      	((5.898869e+00 -2.963347e+00 -2.713598e+02) (-3.223415e-02 -2.064936e-02 -3.335538e+00)) ((-2.106447e-02 -6.691628e+00 3.742009e+00) (5.019556e-04 1.642876e-01 9.378402e-03))
0.377923      	((5.892807e+00 -2.098459e+00 -2.696952e+02) (-3.269424e-02 -1.941401e-02 -3.318515e+00)) ((-1.753242e-02 -6.763530e+00 3.869265e+00) (3.914497e-04 1.661102e-01 9.362326e-03))
0.391031      	((5.885081e+00 -1.177882e+00 -2.679530e+02) (-3.305150e-02 -1.761598e-02 -3.303057e+00)) ((-1.353469e-02 -6.787058e+00 4.070295e+00) (2.525660e-04 1.676978e-01 9.075063e-03))
0.404204      	((5.878993e+00 -3.532759e-01 -2.660507e+02) (-3.321772e-02 -1.606233e-02 -3.289504e+00)) ((-9.016877e-03 -6.783458e+00 4.312550e+00) (9.859642e-05 1.690161e-01 8.979550e-03))
0.417436      	((5.873573e+00 3.697856e-01 -2.641954e+02) (-3.302967e-02 -1.472071e-02 -3.277402e+00)) ((-6.318857e-03 -6.763388e+00 4.634311e+00) (-5.360521e-05 1.699891e-01 9.025298e-03))
0.430715      	((5.867533e+00 1.108641e+00 -2.622955e+02) (-3.269055e-02 -1.360109e-02 -3.266391e+00)) ((-2.075195e-03 -6.759381e+00 4.912656e+00) (-1.942441e-04 1.705463e-01 9.263977e-03))
0.44403       	((5.862678e+00 1.682533e+00 -2.603710e+02) (-3.191807e-02 -1.274500e-02 -3.256190e+00)) ((-2.305357e-03 -6.786242e+00 5.188754e+00) (-3.519348e-04 1.709902e-01 9.662998e-03))
0.457373      	((5.854603e+00 2.565133e+00 -2.585644e+02) (-3.091529e-02 -1.172530e-02 -3.246973e+00)) ((7.341117e-05 -6.800526e+00 5.376645e+00) (-5.021553e-04 1.714222e-01 1.000861e-02))
0.470738      	((5.861578e+00 3.242398e+00 -2.567962e+02) (-2.954967e-02 -1.030626e-02 -3.238330e+00)) ((-6.308237e-04 -6.778660e+00 5.591386e+00) (-6.524272e-04 1.719400e-01 1.035184e-02))
0.484125      	((5.882276e+00 3.904147e+00 -2.551108e+02) (-2.804271e-02 -8.966300e-03 -3.230258e+00)) ((1.474184e-03 -6.769092e+00 5.726832e+00) (-7.896591e-04 1.723673e-01 1.070677e-02))
0.49753       	((5.919161e+00 4.640972e+00 -2.534702e+02) (-2.658122e-02 -8.079631e-03 -3.222068e+00)) ((2.797729e-03 -6.752881e+00 5.843855e+00) (-9.176877e-04 1.728520e-01 1.094634e-02))
0.510944      	((5.964843e+00 5.248913e+00 -2.519284e+02) (-2.518014e-02 -6.999123e-03 -3.213258e+00)) ((4.651056e-03 -6.732618e+00 5.895489e+00) (-1.041069e-03 1.734490e-01 1.106030e-02))
0.524358      	((6.015315e+00 5.949569e+00 -2.504799e+02) (-2.411428e-02 -5.712170e-03 -3.204895e+00)) ((7.657708e-03 -6.730079e+00 5.921315e+00) (-1.162869e-03 1.740434e-01 1.113016e-02))
0.537757      	((6.060900e+00 6.681433e+00 -2.492389e+02) (-2.333554e-02 -4.247359e-03 -3.197000e+00)) ((9.502946e-03 -6.718140e+00 5.998622e+00) (-1.321341e-03 1.746747e-01 1.130133e-02))
0.551126      	((6.101098e+00 7.500655e+00 -2.481359e+02) (-2.309813e-02 -2.832472e-03 -3.189253e+00)) ((1.360714e-02 -6.712844e+00 6.081131e+00) (-1.483711e-03 1.751031e-01 1.131207e-02))
0.564463      	((6.143144e+00 8.166022e+00 -2.470916e+02) (-2.323582e-02 -1.853302e-03 -3.180851e+00)) ((1.538607e-02 -6.689415e+00 6.175372e+00) (-1.641811e-03 1.754818e-01 1.124740e-02))
0.577783      	((6.187982e+00 8.866268e+00 -2.461964e+02) (-2.379893e-02 -1.454251e-03 -3.171925e+00)) ((1.833849e-02 -6.632978e+00 6.253273e+00) (-1.791693e-03 1.759461e-01 1.165709e-02))
0.591083      	((6.224908e+00 9.435167e+00 -2.453949e+02) (-2.506136e-02 -6.539776e-04 -3.162909e+00)) ((2.093859e-02 -6.596771e+00 6.361141e+00) (-1.952658e-03 1.765053e-01 1.212753e-02))
0.604364      	((6.255392e+00 1.006128e+01 -2.446871e+02) (-2.677713e-02 6.521647e-04 -3.153711e+00)) ((2.268791e-02 -6.553146e+00 6.469231e+00) (-2.138358e-03 1.771231e-01 1.257835e-02))
0.617629      	((6.274713e+00 1.074925e+01 -2.441009e+02) (-2.889694e-02 2.199170e-03 -3.144446e+00)) ((2.505186e-02 -6.503871e+00 6.574414e+00) (-2.321253e-03 1.775791e-01 1.305636e-02))
0.63088       	((6.288853e+00 1.125353e+01 -2.435663e+02) (-3.136451e-02 3.648396e-03 -3.134658e+00)) ((2.558923e-02 -6.448432e+00 6.678634e+00) (-2.500442e-03 1.779175e-01 1.324170e-02))
0.64412       	((6.306157e+00 1.167774e+01 -2.431134e+02) (-3.411604e-02 4.489225e-03 -3.124651e+00)) ((2.729296e-02 -6.394748e+00 6.730011e+00) (-2.649880e-03 1.781940e-01 1.346240e-02))
0.657352      	((6.322199e+00 1.199101e+01 -2.427374e+02) (-3.708398e-02 5.316478e-03 -3.114455e+00)) ((2.820957e-02 -6.333253e+00 6.826747e+00) (-2.789881e-03 1.785312e-01 1.389902e-02))
0.670579      	((6.334716e+00 1.231561e+01 -2.423826e+02) (-4.009821e-02 6.756005e-03 -3.104173e+00)) ((2.778291e-02 -6.288130e+00 6.906365e+00) (-2.949908e-03 1.789289e-01 1.428734e-02))
0.683804      	((6.343494e+00 1.266453e+01 -2.421750e+02) (-4.318441e-02 8.253677e-03 -3.094644e+00)) ((2.762310e-02 -6.254948e+00 6.939431e+00) (-3.087752e-03 1.792346e-01 1.450593e-02))
0.697029      	((6.341557e+00 1.290770e+01 -2.419708e+02) (-4.615720e-02 9.545060e-03 -3.085387e+00)) ((2.521809e-02 -6.267076e+00 6.964633e+00) (-3.204321e-03 1.795631e-01 1.457410e-02))
0.710257      	((6.335606e+00 1.311970e+01 -2.418461e+02) (-4.907722e-02 1.043716e-02 -3.075981e+00)) ((2.459468e-02 -6.309414e+00 6.940751e+00) (-3.282829e-03 1.798166e-01 1.467168e-02))
0.723487      	((6.332055e+00 1.319943e+01 -2.416440e+02) (-5.181241e-02 1.120681e-02 -3.066295e+00)) ((2.296654e-02 -6.347991e+00 6.905423e+00) (-3.320779e-03 1.800553e-01 1.483061e-02))
0.73672       	((6.323730e+00 1.320435e+01 -2.415080e+02) (-5.403644e-02 1.235724e-02 -3.056808e+00)) ((2.107361e-02 -6.379332e+00 6.847506e+00) (-3.346453e-03 1.802995e-01 1.481396e-02))
0.749956      	((6.306022e+00 1.313734e+01 -2.413930e+02) (-5.586166e-02 1.362649e-02 -3.047979e+00)) ((1.898807e-02 -6.431741e+00 6.727126e+00) (-3.350398e-03 1.804137e-01 1.473089e-02))
0.763192      	((6.286988e+00 1.289678e+01 -2.412133e+02) (-5.718620e-02 1.423946e-02 -3.039271e+00)) ((1.607919e-02 -6.487095e+00 6.580859e+00) (-3.318471e-03 1.804482e-01 1.459436e-02))
0.776428      	((6.256576e+00 1.251703e+01 -2.411525e+02) (-5.806643e-02 1.449167e-02 -3.030888e+00)) ((1.515299e-02 -6.539266e+00 6.377045e+00) (-3.238703e-03 1.803769e-01 1.434438e-02))
0.789664      	((6.227704e+00 1.194465e+01 -2.410418e+02) (-5.853700e-02 1.465573e-02 -3.022656e+00)) ((1.356650e-02 -6.588999e+00 6.178134e+00) (-3.132670e-03 1.803064e-01 1.417062e-02))
0.802903      	((6.191241e+00 1.122410e+01 -2.409128e+02) (-5.859178e-02 1.475123e-02 -3.014734e+00)) ((1.285502e-02 -6.625574e+00 5.960423e+00) (-3.008264e-03 1.801402e-01 1.378053e-02))
0.81615       	((6.147651e+00 1.042651e+01 -2.407943e+02) (-5.845610e-02 1.492432e-02 -3.007108e+00)) ((1.155401e-02 -6.638611e+00 5.645232e+00) (-2.868036e-03 1.798649e-01 1.316116e-02))
0.829409      	((6.099010e+00 9.468177e+00 -2.405720e+02) (-5.814320e-02 1.458377e-02 -2.999919e+00)) ((1.017016e-02 -6.661523e+00 5.333012e+00) (-2.706479e-03 1.794845e-01 1.255315e-02))
0.842687      	((6.052385e+00 8.302507e+00 -2.403895e+02) (-5.767704e-02 1.329276e-02 -2.993656e+00)) ((9.089183e-03 -6.690083e+00 5.011957e+00) (-2.503113e-03 1.789024e-01 1.197121e-02))
0.855987      	((6.009404e+00 7.023539e+00 -2.401855e+02) (-5.712435e-02 1.179984e-02 -2.987860e+00)) ((7.962594e-03 -6.719669e+00 4.696828e+00) (-2.280430e-03 1.782734e-01 1.132048e-02))
0.869315      	((5.981132e+00 5.812433e+00 -2.399243e+02) (-5.655566e-02 9.989269e-03 -2.982038e+00)) ((6.275470e-03 -6.748843e+00 4.392677e+00) (-2.068545e-03 1.777932e-01 1.070243e-02))
0.882672      	((5.969148e+00 4.629051e+00 -2.396479e+02) (-5.610376e-02 7.603137e-03 -2.976558e+00)) ((4.163253e-03 -6.776542e+00 4.147124e+00) (-1.870829e-03 1.772727e-01 1.020811e-02))
0.896054      	((5.969953e+00 3.505206e+00 -2.394253e+02) (-5.587227e-02 5.710124e-03 -2.971214e+00)) ((1.759453e-03 -6.805361e+00 3.918193e+00) (-1.699221e-03 1.765872e-01 9.447116e-03))
0.909455      	((5.970531e+00 2.547443e+00 -2.391741e+02) (-5.593964e-02 3.531745e-03 -2.965968e+00)) ((-3.637349e-04 -6.833064e+00 3.694395e+00) (-1.546206e-03 1.758511e-01 8.695581e-03))
0.922867      	((5.967944e+00 1.785761e+00 -2.389568e+02) (-5.643506e-02 6.144392e-04 -2.961092e+00)) ((-1.768959e-03 -6.878797e+00 3.524117e+00) (-1.407437e-03 1.751765e-01 8.273241e-03))
0.936283      	((5.967798e+00 1.142188e+00 -2.387989e+02) (-5.744138e-02 -1.605806e-03 -2.956383e+00)) ((-2.214543e-03 -6.923261e+00 3.423121e+00) (-1.308899e-03 1.746747e-01 7.914457e-03))
0.949697      	((5.967063e+00 6.755293e-01 -2.386736e+02) (-5.892444e-02 -3.663785e-03 -2.951785e+00)) ((-1.871986e-03 -6.943591e+00 3.382217e+00) (-1.239774e-03 1.742448e-01 7.631148e-03))
0.963108      	((5.953242e+00 2.800030e-01 -2.385684e+02) (-6.076074e-02 -5.937834e-03 -2.947423e+00)) ((-5.987318e-04 -6.978038e+00 3.356765e+00) (-1.173828e-03 1.736686e-01 7.440481e-03))
0.976513      	((5.933303e+00 3.560632e-02 -2.385100e+02) (-6.281952e-02 -7.715735e-03 -2.943224e+00)) ((1.124612e-03 -7.015541e+00 3.316390e+00) (-1.125295e-03 1.730083e-01 7.119583e-03))
0.989913      	((5.907439e+00 -1.083149e-01 -2.384561e+02) (-6.503707e-02 -9.609631e-03 -2.939405e+00)) ((2.939913e-03 -7.046007e+00 3.285299e+00) (-1.083467e-03 1.724533e-01 6.916380e-03))
1.003308      	((5.880648e+00 -1.626146e-01 -2.384387e+02) (-6.726740e-02 -1.072069e-02 -2.936014e+00)) ((4.225016e-03 -7.073475e+00 3.276197e+00) (-1.052069e-03 1.720526e-01 6.898848e-03))
1.0167        	((5.849787e+00 -1.456801e-01 -2.384484e+02) (-6.938740e-02 -1.117368e-02 -2.932735e+00)) ((5.471486e-03 -7.100498e+00 3.297778e+00) (-1.033948e-03 1.717520e-01 7.051591e-03))
1.030092      	((5.820978e+00 -2.170040e-01 -2.384519e+02) (-7.137163e-02 -1.156910e-02 -2.929787e+00)) ((6.408202e-03 -7.123514e+00 3.347561e+00) (-1.001407e-03 1.713594e-01 7.255566e-03))
1.043489      	((5.794348e+00 -2.618410e-01 -2.384211e+02) (-7.308975e-02 -1.136928e-02 -2.926940e+00)) ((7.482405e-03 -7.145425e+00 3.345426e+00) (-9.549455e-04 1.709655e-01 7.157017e-03))
1.056893      	((5.763127e+00 -4.181600e-01 -2.383660e+02) (-7.454260e-02 -1.190609e-02 -2.924539e+00)) ((8.315510e-03 -7.169410e+00 3.300584e+00) (-8.820365e-04 1.706768e-01 7.055012e-03))
1.07031       	((5.737200e+00 -6.571537e-01 -2.382562e+02) (-7.581907e-02 -1.228385e-02 -2.922742e+00)) ((8.919342e-03 -7.171624e+00 3.256535e+00) (-8.012958e-04 1.704572e-01 7.183623e-03))
1.083743      	((5.715239e+00 -7.352099e-01 -2.381436e+02) (-7.686853e-02 -1.129881e-02 -2.921213e+00)) ((9.397250e-03 -7.153914e+00 3.211158e+00) (-7.407264e-04 1.702926e-01 7.340836e-03))
1.097195      	((5.694627e+00 -8.389306e-01 -2.379721e+02) (-7.764968e-02 -1.069152e-02 -2.919776e+00)) ((9.362067e-03 -7.138954e+00 3.111201e+00) (-6.841005e-04 1.700436e-01 7.451411e-03))
1.110668      	((5.678251e+00 -1.138016e+00 -2.378062e+02) (-7.809596e-02 -1.073208e-02 -2.918296e+00)) ((9.340007e-03 -7.134641e+00 2.950775e+00) (-6.098236e-04 1.697118e-01 7.255895e-03))
1.124162      	((5.670625e+00 -1.610964e+00 -2.375648e+02) (-7.819718e-02 -1.141895e-02 -2.917066e+00)) ((8.823666e-03 -7.129779e+00 2.756101e+00) (-5.174590e-04 1.694195e-01 6.750305e-03))
1.137679      	((5.663219e+00 -2.229653e+00 -2.373737e+02) (-7.794986e-02 -1.284555e-02 -2.916189e+00)) ((8.072675e-03 -7.122285e+00 2.566076e+00) (-4.098723e-04 1.692027e-01 6.402548e-03))
1.151216      	((5.662182e+00 -2.791159e+00 -2.372421e+02) (-7.737699e-02 -1.372335e-02 -2.915286e+00)) ((7.260334e-03 -7.098796e+00 2.357779e+00) (-3.103202e-04 1.690354e-01 6.099793e-03))
1.164774      	((5.666300e+00 -3.223445e+00 -2.371212e+02) (-7.650822e-02 -1.392220e-02 -2.914159e+00)) ((6.434526e-03 -7.063462e+00 2.149871e+00) (-2.353551e-04 1.688560e-01 5.608397e-03))
1.178348      	((5.677055e+00 -3.737238e+00 -2.370098e+02) (-7.536587e-02 -1.475566e-02 -2.912795e+00)) ((5.390531e-03 -7.013338e+00 1.923264e+00) (-1.693919e-04 1.686242e-01 5.063358e-03))
1.191935      	((5.687455e+00 -4.423201e+00 -2.369247e+02) (-7.395540e-02 -1.647965e-02 -2.911171e+00)) ((4.204403e-03 -6.986044e+00 1.653001e+00) (-8.772064e-05 1.684006e-01 4.372469e-03))
1.205531      	((5.697419e+00 -5.212798e+00 -2.368319e+02) (-7.233152e-02 -1.916007e-02 -2.909715e+00)) ((3.743941e-03 -6.949154e+00 1.354559e+00) (1.580488e-05 1.682661e-01 3.467956e-03))
1.219135      	((5.709404e+00 -6.033731e+00 -2.367938e+02) (-7.056683e-02 -2.239817e-02 -2.908805e+00)) ((3.490988e-03 -6.908350e+00 1.055105e+00) (1.324123e-04 1.682306e-01 2.567258e-03))
1.232743      	((5.720501e+00 -6.570380e+00 -2.367974e+02) (-6.877974e-02 -2.447562e-02 -2.908039e+00)) ((3.319406e-03 -6.866925e+00 7.713025e-01) (2.247399e-04 1.682733e-01 1.711714e-03))
1.246354      	((5.733745e+00 -6.825463e+00 -2.367796e+02) (-6.709903e-02 -2.544363e-02 -2.906932e+00)) ((3.462874e-03 -6.836657e+00 5.194905e-01) (2.720977e-04 1.683378e-01 9.138079e-04))
1.259968      	((5.744777e+00 -7.084901e+00 -2.367830e+02) (-6.552572e-02 -2.656450e-02 -2.905509e+00)) ((3.851708e-03 -6.804630e+00 2.998424e-01) (3.005449e-04 1.682924e-01 2.315386e-04))
1.273583      	((5.752680e+00 -7.449867e+00 -2.367276e+02) (-6.401644e-02 -2.837495e-02 -2.904087e+00)) ((4.413428e-03 -6.794022e+00 4.516720e-02) (3.397599e-04 1.682400e-01 -6.429674e-04))
1.2872        	((5.760840e+00 -7.853417e+00 -2.366695e+02) (-6.266267e-02 -3.119632e-02 -2.903191e+00)) ((5.022196e-03 -6.771117e+00 -2.249739e-01) (4.049060e-04 1.683385e-01 -1.641118e-03))
1.300818      	((5.770087e+00 -8.170445e+00 -2.366678e+02) (-6.155303e-02 -3.373380e-02 -2.902696e+00)) ((5.378183e-03 -6.729192e+00 -4.744379e-01) (4.681813e-04 1.684892e-01 -2.507712e-03))
1.314438      	((5.781903e+00 -8.169013e+00 -2.367154e+02) (-6.071471e-02 -3.472499e-02 -2.902083e+00)) ((5.708608e-03 -6.675331e+00 -6.689549e-01) (4.949076e-04 1.685448e-01 -3.169310e-03))
1.328061      	((5.796465e+00 -7.860006e+00 -2.367565e+02) (-6.017284e-02 -3.455453e-02 -2.901055e+00)) ((5.905128e-03 -6.622417e+00 -7.859983e-01) (4.754162e-04 1.684738e-01 -3.548626e-03))
1.341687      	((5.811979e+00 -7.569699e+00 -2.367714e+02) (-5.987416e-02 -3.451535e-02 -2.899847e+00)) ((6.154732e-03 -6.584458e+00 -8.656741e-01) (4.474719e-04 1.683874e-01 -3.754058e-03))
1.355317      	((5.824469e+00 -7.472445e+00 -2.368008e+02) (-5.975181e-02 -3.494605e-02 -2.899020e+00)) ((6.355948e-03 -6.539507e+00 -9.795212e-01) (4.404378e-04 1.684622e-01 -4.092290e-03))
1.368951      	((5.836730e+00 -7.472212e+00 -2.368904e+02) (-5.988001e-02 -3.573179e-02 -2.898716e+00)) ((6.531561e-03 -6.487425e+00 -1.103557e+00) (4.578916e-04 1.686506e-01 -4.441033e-03))
1.382589      	((5.847699e+00 -7.413331e+00 -2.370205e+02) (-6.029078e-02 -3.630043e-02 -2.898526e+00)) ((6.943919e-03 -6.432314e+00 -1.214056e+00) (4.818955e-04 1.688110e-01 -4.662600e-03))
1.396231      	((5.858815e+00 -7.210144e+00 -2.371320e+02) (-6.096048e-02 -3.590722e-02 -2.897866e+00)) ((7.198822e-03 -6.377013e+00 -1.298374e+00) (4.850374e-04 1.688579e-01 -4.700920e-03))
1.409877      	((5.872000e+00 -6.916023e+00 -2.372007e+02) (-6.175441e-02 -3.477522e-02 -2.897101e+00)) ((7.164420e-03 -6.322649e+00 -1.355320e+00) (4.648307e-04 1.688862e-01 -4.541806e-03))
1.423527      	((5.881291e+00 -6.762359e+00 -2.372548e+02) (-6.258885e-02 -3.411314e-02 -2.896687e+00)) ((6.919202e-03 -6.280271e+00 -1.443020e+00) (4.547986e-04 1.690753e-01 -4.401189e-03))
1.43718       	((5.890259e+00 -6.863859e+00 -2.372966e+02) (-6.351641e-02 -3.394629e-02 -2.896837e+00)) ((6.436677e-03 -6.229828e+00 -1.583199e+00) (4.717148e-04 1.694481e-01 -4.383969e-03))
1.450836      	((5.898883e+00 -7.035786e+00 -2.373451e+02) (-6.457999e-02 -3.371011e-02 -2.897487e+00)) ((5.485433e-03 -6.178499e+00 -1.759442e+00) (5.152239e-04 1.698725e-01 -4.434868e-03))
1.464495      	((5.908337e+00 -7.186198e+00 -2.373776e+02) (-6.571152e-02 -3.338028e-02 -2.897903e+00)) ((5.249664e-03 -6.123431e+00 -1.947223e+00) (5.739977e-04 1.701796e-01 -4.463083e-03))
1.478158      	((5.917996e+00 -7.355325e+00 -2.374007e+02) (-6.680608e-02 -3.294088e-02 -2.897831e+00)) ((5.046416e-03 -6.077931e+00 -2.136773e+00) (6.287181e-04 1.704124e-01 -4.410186e-03))
1.491823      	((5.924683e+00 -7.605357e+00 -2.373722e+02) (-6.776147e-02 -3.261475e-02 -2.897760e+00)) ((4.722810e-03 -6.048597e+00 -2.322537e+00) (6.841620e-04 1.707418e-01 -4.312321e-03))
1.505492      	((5.933499e+00 -7.928565e+00 -2.373524e+02) (-6.855070e-02 -3.251314e-02 -2.898101e+00)) ((4.290427e-03 -6.017834e+00 -2.555471e+00) (7.336738e-04 1.712867e-01 -4.361683e-03))
1.519162      	((5.941096e+00 -8.370184e+00 -2.373557e+02) (-6.924487e-02 -3.260269e-02 -2.898907e+00)) ((3.848649e-03 -5.993625e+00 -2.837592e+00) (7.883937e-04 1.719987e-01 -4.546794e-03))
1.532834      	((5.949444e+00 -8.791431e+00 -2.373924e+02) (-6.986435e-02 -3.269233e-02 -2.899760e+00)) ((3.162165e-03 -5.979379e+00 -3.131728e+00) (8.536961e-04 1.726141e-01 -4.789586e-03))
1.546506      	((5.958424e+00 -9.149395e+00 -2.374080e+02) (-7.039206e-02 -3.310490e-02 -2.900104e+00)) ((2.314025e-03 -5.985201e+00 -3.456080e+00) (9.302113e-04 1.730947e-01 -5.220963e-03))
1.560177      	((5.968905e+00 -9.571310e+00 -2.374070e+02) (-7.078634e-02 -3.382253e-02 -2.900020e+00)) ((1.529577e-03 -5.997178e+00 -3.794416e+00) (1.007229e-03 1.734810e-01 -5.750936e-03))
1.573846      	((5.976102e+00 -9.977292e+00 -2.374051e+02) (-7.106693e-02 -3.450556e-02 -2.900113e+00)) ((9.453259e-04 -6.018132e+00 -4.114036e+00) (1.075989e-03 1.738540e-01 -6.245536e-03))
1.587513      	((5.981709e+00 -1.029392e+01 -2.373679e+02) (-7.123692e-02 -3.514183e-02 -2.900538e+00)) ((1.077849e-03 -6.038563e+00 -4.413647e+00) (1.127023e-03 1.743059e-01 -6.709098e-03))
1.601175      	((5.985013e+00 -1.057991e+01 -2.373452e+02) (-7.127031e-02 -3.593770e-02 -2.901384e+00)) ((1.203579e-03 -6.049805e+00 -4.691333e+00) (1.174435e-03 1.748485e-01 -7.160602e-03))
1.614832      	((5.986998e+00 -1.081805e+01 -2.373514e+02) (-7.120777e-02 -3.661808e-02 -2.902137e+00)) ((1.405556e-03 -6.049393e+00 -4.964718e+00) (1.220523e-03 1.753841e-01 -7.687874e-03))
1.628483      	((5.990290e+00 -1.097889e+01 -2.373382e+02) (-7.107786e-02 -3.771680e-02 -2.902553e+00)) ((1.350214e-03 -6.031611e+00 -5.218117e+00) (1.272421e-03 1.757953e-01 -8.334615e-03))
1.642129      	((5.994369e+00 -1.105611e+01 -2.373088e+02) (-7.084244e-02 -3.866118e-02 -2.902774e+00)) ((1.772331e-03 -6.020527e+00 -5.426348e+00) (1.316044e-03 1.760315e-01 -8.947574e-03))
1.655769      	((5.997445e+00 -1.100119e+01 -2.372708e+02) (-7.048911e-02 -3.883539e-02 -2.903307e+00)) ((1.689707e-03 -6.020717e+00 -5.585207e+00) (1.333083e-03 1.762061e-01 -9.504734e-03))
1.669405      	((5.998938e+00 -1.077820e+01 -2.372447e+02) (-6.999711e-02 -3.867548e-02 -2.904238e+00)) ((2.198120e-03 -6.022222e+00 -5.688865e+00) (1.325583e-03 1.763969e-01 -9.966105e-03))
1.683038      	((6.000176e+00 -1.056114e+01 -2.372287e+02) (-6.940193e-02 -3.874020e-02 -2.905334e+00)) ((2.349566e-03 -6.014124e+00 -5.744927e+00) (1.317885e-03 1.765602e-01 -1.036792e-02))
1.696668      	((6.001440e+00 -1.035256e+01 -2.371738e+02) (-6.872492e-02 -3.894481e-02 -2.906118e+00)) ((2.892048e-03 -6.008166e+00 -5.792639e+00) (1.315271e-03 1.766342e-01 -1.085750e-02))
1.710297      	((6.002174e+00 -1.012140e+01 -2.370977e+02) (-6.791051e-02 -3.900014e-02 -2.906802e+00)) ((3.221305e-03 -5.993889e+00 -5.798846e+00) (1.305841e-03 1.766649e-01 -1.133083e-02))
1.723926      	((6.002706e+00 -9.746200e+00 -2.370169e+02) (-6.700795e-02 -3.824647e-02 -2.907694e+00)) ((3.660174e-03 -5.989400e+00 -5.755382e+00) (1.277667e-03 1.767342e-01 -1.167960e-02))
1.737554      	((6.003493e+00 -9.288259e+00 -2.369202e+02) (-6.607037e-02 -3.686469e-02 -2.908742e+00)) ((4.389206e-03 -5.996841e+00 -5.667233e+00) (1.235841e-03 1.768241e-01 -1.179747e-02))
1.751183      	((6.004123e+00 -8.779896e+00 -2.368604e+02) (-6.504144e-02 -3.519493e-02 -2.909823e+00)) ((5.618770e-03 -6.007308e+00 -5.527057e+00) (1.183624e-03 1.768285e-01 -1.167439e-02))
1.764813      	((6.004426e+00 -8.385668e+00 -2.368061e+02) (-6.390705e-02 -3.377842e-02 -2.910709e+00)) ((6.527848e-03 -6.014989e+00 -5.378332e+00) (1.138387e-03 1.767074e-01 -1.153410e-02))
1.778445      	((6.004246e+00 -8.172490e+00 -2.367466e+02) (-6.273055e-02 -3.309239e-02 -2.911251e+00)) ((7.047644e-03 -6.023432e+00 -5.261461e+00) (1.119951e-03 1.765067e-01 -1.151741e-02))
1.792079      	((6.003934e+00 -8.024890e+00 -2.366529e+02) (-6.154120e-02 -3.240790e-02 -2.911676e+00)) ((7.474596e-03 -6.027160e+00 -5.154817e+00) (1.118288e-03 1.762968e-01 -1.144278e-02))
1.805716      	((6.002635e+00 -7.815076e+00 -2.365657e+02) (-6.037944e-02 -3.096145e-02 -2.912266e+00)) ((8.485818e-03 -6.034441e+00 -5.022603e+00) (1.105564e-03 1.761155e-01 -1.115441e-02))
1.819355      	((6.001243e+00 -7.590118e+00 -2.364828e+02) (-5.923708e-02 -2.883899e-02 -2.912974e+00)) ((9.128540e-03 -6.032846e+00 -4.870535e+00) (1.073552e-03 1.759089e-01 -1.064740e-02))
1.832997      	((5.998646e+00 -7.437803e+00 -2.364443e+02) (-5.808540e-02 -2.730420e-02 -2.913642e+00)) ((1.014401e-02 -6.015306e+00 -4.722304e+00) (1.049483e-03 1.756874e-01 -1.014349e-02))
1.846641      	((5.996037e+00 -7.558875e+00 -2.364406e+02) (-5.694701e-02 -2.712171e-02 -2.914118e+00)) ((1.064064e-02 -5.997996e+00 -4.622965e+00) (1.062465e-03 1.754833e-01 -9.891213e-03))
1.860287      	((5.994807e+00 -7.810662e+00 -2.364404e+02) (-5.581622e-02 -2.722897e-02 -2.914352e+00)) ((1.181514e-02 -5.975186e+00 -4.570983e+00) (1.094959e-03 1.752589e-01 -9.743712e-03))
1.873933      	((5.995945e+00 -7.982170e+00 -2.364102e+02) (-5.467001e-02 -2.705284e-02 -2.914358e+00)) ((1.252138e-02 -5.952292e+00 -4.514025e+00) (1.126451e-03 1.749834e-01 -9.427932e-03))
1.88758       	((5.998030e+00 -8.082825e+00 -2.363959e+02) (-5.349960e-02 -2.642088e-02 -2.914208e+00)) ((1.363326e-02 -5.923385e+00 -4.430900e+00) (1.144967e-03 1.746531e-01 -8.945029e-03))
1.901226      	((6.002716e+00 -8.121628e+00 -2.363927e+02) (-5.235419e-02 -2.558656e-02 -2.914273e+00)) ((1.398774e-02 -5.893389e+00 -4.354934e+00) (1.155644e-03 1.743035e-01 -8.464873e-03))
1.914873      	((6.010213e+00 -8.193742e+00 -2.364293e+02) (-5.114661e-02 -2.540244e-02 -2.914685e+00)) ((1.379265e-02 -5.841774e+00 -4.322120e+00) (1.179462e-03 1.740114e-01 -8.104201e-03))
1.928518      	((6.020224e+00 -8.423842e+00 -2.364970e+02) (-4.987020e-02 -2.605523e-02 -2.914933e+00)) ((1.308786e-02 -5.770536e+00 -4.320763e+00) (1.225482e-03 1.737471e-01 -7.858560e-03))
1.942162      	((6.031204e+00 -8.589771e+00 -2.365206e+02) (-4.849555e-02 -2.634730e-02 -2.914896e+00)) ((1.410166e-02 -5.717184e+00 -4.314495e+00) (1.265234e-03 1.734432e-01 -7.674849e-03))