# Forces      
# CofR        : (0.000000e+00 0.000000e+00 0.000000e+00)
# Time        forces(pressure viscous)	moments(pressure viscous)
0             	((0.000000e+00 0.000000e+00 0.000000e+00) (1.002671e-05 -5.950248e-16 9.747627e-11)) ((0.000000e+00 0.000000e+00 0.000000e+00) (-2.277301e-17 -2.252880e-07 -1.462579e-16))
0.012         	((2.915745e-03 -5.026440e-09 7.428828e-04) (1.150679e-05 -1.835851e-11 -2.856739e-09)) ((-2.278532e-13 4.296907e-08 -4.775185e-13) (-9.096944e-14 -3.320457e-07 2.726762e-13))
0.0264        	((-2.009984e-04 3.832522e-10 -4.732979e-05) (1.174150e-05 -2.737160e-11 -4.041933e-09)) ((2.162919e-14 -2.986051e-09 6.109784e-13) (4.924108e-13 -3.717923e-07 4.615766e-13))
0.04368       	((-6.103820e-04 -6.364559e-09 -7.274276e-05) (1.043555e-05 -3.154682e-11 -3.226398e-09)) ((7.730220e-13 -9.530364e-09 5.383887e-13) (9.205396e-13 -3.312322e-07 2.291585e-13))
0.064416      	((-5.750405e-06 5.857541e-09 -2.350096e-05) (9.243828e-06 1.812485e-10 -1.592787e-09)) ((-4.134170e-13 -2.406404e-11 -1.867710e-14) (3.736967e-13 -2.973397e-07 7.480218e-13))
0.0892992     	((8.232544e-06 -1.166063e-08 -1.385386e-05) (8.534613e-06 2.828870e-10 -1.434821e-09)) ((2.852236e-13 3.442695e-10 1.827677e-14) (-8.479603e-13 -2.810706e-07 3.167300e-13))
0.119159      	((-9.117075e-06 4.298471e-09 -8.483003e-06) (7.880980e-06 2.199806e-10 -1.906784e-09)) ((-2.697577e-13 -2.238859e-10 1.682484e-13) (-1.004513e-12 -2.629875e-07 -1.834974e-12))
0.154991      	((-4.920524e-06 2.251130e-09 -5.284686e-06) (7.187698e-06 1.840875e-10 -1.947260e-09)) ((-3.820083e-14 -1.326448e-10 2.926015e-13) (-1.175179e-12 -2.428533e-07 -3.233865e-12))
0.197989      	((-1.195747e-06 2.592122e-09 -3.259769e-06) (6.487731e-06 1.291729e-10 -2.392339e-09)) ((-2.625608e-13 -4.585744e-11 1.680865e-13) (-1.380182e-12 -2.223586e-07 -3.371083e-12))
0.249587      	((1.568025e-07 2.240463e-09 -2.005525e-06) (5.800740e-06 8.302872e-11 -2.893444e-09)) ((-2.979569e-13 -1.346675e-11 -5.597650e-14) (-9.404625e-13 -2.018598e-07 -2.985690e-12))
0.311504      	((7.765023e-07 3.409027e-10 -1.208627e-06) (5.147355e-06 4.065621e-11 -3.388314e-09)) ((-1.103857e-13 -1.668455e-12 -1.405997e-14) (-7.037515e-13 -1.817529e-07 -2.070780e-12))
0.385805      	((1.074940e-06 2.392018e-10 -7.132884e-07) (4.544162e-06 1.443775e-11 -3.877209e-09)) ((-7.536263e-14 2.292647e-12 -1.217665e-14) (-5.164514e-13 -1.625306e-07 -1.108550e-12))
0.474966      	((1.214071e-06 -3.328570e-12 -4.002484e-07) (4.003250e-06 -5.509393e-12 -4.313470e-09)) ((-4.558799e-14 5.436284e-12 -9.556620e-15) (-4.050421e-13 -1.447271e-07 -7.336455e-13))
0.581959      	((1.269572e-06 -9.948031e-11 -2.107446e-07) (3.529714e-06 -2.132607e-11 -4.739055e-09)) ((-1.947967e-14 8.046062e-12 2.843624e-15) (-3.489468e-13 -1.286734e-07 -4.649847e-13))
0.710351      	((1.264595e-06 -1.209031e-10 -9.688109e-08) (3.123647e-06 -2.215482e-11 -5.163288e-09)) ((-6.544995e-15 9.657195e-12 7.012400e-15) (-3.055894e-13 -1.145551e-07 -1.559750e-13))
0.864421      	((1.219139e-06 -1.005476e-10 -3.310949e-08) (2.779855e-06 -1.631342e-11 -5.540241e-09)) ((-2.660534e-15 1.018033e-11 3.840305e-15) (-3.175407e-13 -1.023723e-07 -9.635528e-14))
1.049306      	((1.152329e-06 -8.984969e-11 2.063375e-09) (2.489594e-06 -1.112386e-11 -5.859581e-09)) ((-1.859870e-15 9.912643e-12 3.111234e-15) (-2.981404e-13 -9.194376e-08 -1.344938e-15))
1.271167      	((1.077901e-06 -3.830505e-11 1.820762e-08) (2.243832e-06 -4.171110e-12 -6.175959e-09)) ((-1.660983e-15 9.319725e-12 1.470498e-15) (-2.012477e-13 -8.299733e-08 1.168508e-13))
1.5374        	((1.001730e-06 -2.204274e-11 2.309815e-08) (2.032969e-06 2.347827e-12 -6.543012e-09)) ((-2.518829e-15 8.653286e-12 1.023943e-15) (-1.048673e-13 -7.523941e-08 7.725025e-14))
1.85688       	((9.273291e-07 -1.025242e-11 2.010021e-08) (1.848300e-06 4.953742e-12 -6.956909e-09)) ((-2.054399e-15 7.919429e-12 9.840173e-16) (-6.635560e-14 -6.841363e-08 -7.776042e-14))
2.240256      	((8.567131e-07 -8.960703e-12 1.271103e-08) (1.684144e-06 2.884291e-12 -7.420343e-09)) ((-1.724614e-15 7.246512e-12 8.531172e-16) (-5.631504e-14 -6.233551e-08 -2.197291e-13))
2.700307      	((7.908301e-07 -1.508530e-11 2.656434e-09) (1.536968e-06 1.136812e-12 -7.900668e-09)) ((-3.930372e-16 6.676574e-12 5.536732e-16) (-4.185889e-14 -5.688231e-08 -3.350251e-13))
3.252369      	((7.293586e-07 -6.138991e-12 -8.181194e-09) (1.404391e-06 2.921721e-13 -8.393022e-09)) ((7.448793e-16 6.114256e-12 2.683930e-16) (-6.762490e-14 -5.196908e-08 -4.740340e-13))
3.914842      	((6.715142e-07 1.112629e-11 -1.921566e-08) (1.284675e-06 -1.707487e-12 -8.949884e-09)) ((1.708260e-15 5.552138e-12 9.667035e-17) (-1.116781e-13 -4.753153e-08 -6.127205e-13))
4.709811      	((6.176914e-07 1.379409e-11 -2.997896e-08) (1.176530e-06 -2.247557e-12 -9.560464e-09)) ((3.105023e-15 5.021580e-12 -1.034910e-17) (-1.283228e-13 -4.352220e-08 -6.303751e-13))
5.663773      	((5.680470e-07 1.245490e-12 -3.999177e-08) (1.078983e-06 -2.224294e-12 -1.019859e-08)) ((4.430043e-15 4.554768e-12 -5.763099e-17) (-1.860356e-13 -3.990662e-08 -5.854112e-13))
6.808528      	((5.225335e-07 -1.055822e-11 -4.894604e-08) (9.912703e-07 -2.487790e-12 -1.085798e-08)) ((3.263745e-15 4.151652e-12 -1.639401e-16) (-2.520391e-13 -3.665623e-08 -5.574361e-13))
8.182233      	((4.809652e-07 -3.174925e-12 -5.697842e-08) (9.125733e-07 -2.904468e-12 -1.154664e-08)) ((2.139928e-15 3.798495e-12 4.200474e-17) (-2.735695e-13 -3.373999e-08 -5.873737e-13))
9.83068       	((4.432442e-07 1.592864e-11 -6.416542e-08) (8.418962e-07 -3.587635e-12 -1.228426e-08)) ((1.501485e-15 3.479955e-12 -1.103178e-16) (-2.821384e-13 -3.112148e-08 -7.044331e-13))
11.808816     	((4.087258e-07 1.665486e-11 -7.057887e-08) (7.782154e-07 -6.024384e-12 -1.308731e-08)) ((4.778220e-16 3.188247e-12 -1.157420e-16) (-2.497441e-13 -2.876216e-08 -9.704324e-13))
14.182579     	((3.771948e-07 -4.995688e-12 -7.626387e-08) (7.205833e-07 -7.741236e-12 -1.394905e-08)) ((-4.353024e-16 2.924929e-12 -1.571238e-16) (-2.491543e-13 -2.662692e-08 -1.391574e-12))
17.031095     	((3.485102e-07 9.460137e-12 -8.130928e-08) (6.682381e-07 -1.301266e-11 -1.488383e-08)) ((-1.170448e-15 2.691728e-12 -7.631482e-16) (-2.946147e-13 -2.468708e-08 -1.934827e-12))
20.449314     	((3.224351e-07 -3.818375e-12 -8.589828e-08) (6.205746e-07 -1.555045e-11 -1.588396e-08)) ((-3.391374e-17 2.484347e-12 -1.111126e-15) (-3.373646e-13 -2.292086e-08 -2.548169e-12))
24.551176     	((2.987747e-07 -1.942081e-11 -8.987223e-08) (5.771742e-07 -1.660124e-11 -1.695592e-08)) ((1.226283e-15 2.300056e-12 -1.488680e-15) (-4.298931e-13 -2.131224e-08 -3.127991e-12))
29.473411     	((2.773767e-07 -1.966111e-11 -9.326075e-08) (5.377271e-07 -1.878174e-11 -1.810154e-08)) ((3.339040e-15 2.138759e-12 -2.093538e-15) (-5.535708e-13 -1.984960e-08 -3.664924e-12))
35.380094     	((2.580503e-07 -3.183089e-11 -9.602394e-08) (5.019463e-07 -2.005933e-11 -1.930769e-08)) ((4.859137e-15 1.996292e-12 -2.006591e-15) (-7.311361e-13 -1.852282e-08 -4.218923e-12))
42.468112     	((2.407659e-07 -3.802477e-11 -9.833964e-08) (4.695459e-07 -2.154574e-11 -2.056316e-08)) ((5.470683e-15 1.873639e-12 -1.602362e-15) (-8.877391e-13 -1.732143e-08 -4.939325e-12))
50.973735     	((2.253978e-07 -3.521011e-11 -1.001619e-07) (4.402399e-07 -2.369389e-11 -2.185113e-08)) ((6.627889e-15 1.768875e-12 -1.470026e-15) (-9.899276e-13 -1.623502e-08 -5.968198e-12))
61.180482     	((2.117849e-07 -2.716213e-11 -1.015791e-07) (4.137627e-07 -2.689112e-11 -2.316579e-08)) ((7.096607e-15 1.680709e-12 -1.343918e-15) (-1.044886e-12 -1.525344e-08 -7.286704e-12))
73.428578     	((1.997704e-07 -1.413955e-11 -1.026002e-07) (3.898434e-07 -3.164211e-11 -2.450114e-08)) ((7.260221e-15 1.608574e-12 -1.054189e-15) (-1.011704e-12 -1.436671e-08 -8.865808e-12))
88.126294     	((1.893054e-07 6.911442e-12 -1.033195e-07) (3.682382e-07 -3.660535e-11 -2.585498e-08)) ((7.321951e-15 1.553633e-12 -7.750733e-16) (-8.620390e-13 -1.356604e-08 -1.071494e-11))
105.763553    	((1.802754e-07 2.439770e-11 -1.037957e-07) (3.487425e-07 -4.291864e-11 -2.722975e-08)) ((7.298347e-15 1.514328e-12 -8.115992e-16) (-6.628294e-13 -1.284385e-08 -1.273527e-11))
126.928263    	((1.726961e-07 4.056950e-11 -1.039807e-07) (3.311980e-07 -4.857744e-11 -2.862149e-08)) ((6.708681e-15 1.489807e-12 -1.054984e-15) (-3.966406e-13 -1.219441e-08 -1.474733e-11))
152.325916    	((1.664151e-07 5.136145e-11 -1.039379e-07) (3.154713e-07 -5.429447e-11 -3.003153e-08)) ((6.057165e-15 1.478993e-12 -1.372218e-15) (-1.117134e-13 -1.161315e-08 -1.665992e-11))
182.803099    	((1.613162e-07 7.370044e-11 -1.036748e-07) (3.014530e-07 -5.898779e-11 -3.145844e-08)) ((5.189864e-15 1.480463e-12 -1.597740e-15) (1.867357e-13 -1.109625e-08 -1.838439e-11))
219.375719    	((1.573585e-07 9.105169e-11 -1.032582e-07) (2.890535e-07 -6.221752e-11 -3.290070e-08)) ((4.275981e-15 1.494918e-12 -1.800453e-15) (4.963853e-13 -1.064073e-08 -1.984877e-11))
263.262863    	((1.543861e-07 1.141174e-10 -1.027002e-07) (2.781875e-07 -6.365366e-11 -3.435412e-08)) ((3.384434e-15 1.519933e-12 -1.799347e-15) (8.328124e-13 -1.024358e-08 -2.105999e-11))
315.927436    	((1.523519e-07 1.311426e-10 -1.020477e-07) (2.687757e-07 -6.315731e-11 -3.580713e-08)) ((2.562946e-15 1.552847e-12 -2.010637e-15) (1.192491e-12 -9.901690e-09 -2.199278e-11))
379.124923    	((1.511487e-07 1.463820e-10 -1.012902e-07) (2.607367e-07 -6.067653e-11 -3.723469e-08)) ((1.894793e-15 1.590073e-12 -2.110524e-15) (1.584328e-12 -9.611601e-09 -2.262777e-11))
454.961908    	((1.505353e-07 1.574029e-10 -1.004117e-07) (2.539671e-07 -5.669228e-11 -3.860115e-08)) ((1.593074e-15 1.626423e-12 -2.140857e-15) (1.998352e-12 -9.368716e-09 -2.295728e-11))
545.966289    	((1.503017e-07 1.687035e-10 -9.942649e-08) (2.483369e-07 -5.096236e-11 -3.986333e-08)) ((1.746005e-15 1.658827e-12 -2.013446e-15) (2.426413e-12 -9.167482e-09 -2.295935e-11))
653.253734    	((1.502600e-07 1.787629e-10 -9.834173e-08) (2.437061e-07 -4.386624e-11 -4.098062e-08)) ((1.950784e-15 1.685761e-12 -1.993590e-15) (2.844301e-12 -9.002264e-09 -2.266780e-11))
776.824157    	((1.502448e-07 1.848511e-10 -9.724292e-08) (2.399118e-07 -3.556216e-11 -4.193577e-08)) ((2.097660e-15 1.706421e-12 -1.987210e-15) (3.247958e-12 -8.867029e-09 -2.211738e-11))
916.6852      	((1.501998e-07 1.888402e-10 -9.617180e-08) (2.368033e-07 -2.627226e-11 -4.273397e-08)) ((2.094341e-15 1.721924e-12 -1.942876e-15) (3.628411e-12 -8.756474e-09 -2.136280e-11))
1072.850418   	((1.501155e-07 1.896095e-10 -9.520975e-08) (2.342490e-07 -1.679239e-11 -4.339528e-08)) ((2.270111e-15 1.732702e-12 -1.887207e-15) (3.962116e-12 -8.666030e-09 -2.046479e-11))
1236.049416   	((1.500469e-07 1.883331e-10 -9.439731e-08) (2.321581e-07 -7.568994e-12 -4.394169e-08)) ((2.423156e-15 1.739771e-12 -1.794465e-15) (4.227458e-12 -8.592497e-09 -1.948967e-11))
1399.40061    	((1.499730e-07 1.853913e-10 -9.371256e-08) (2.304420e-07 9.166724e-13 -4.439748e-08)) ((2.597535e-15 1.743627e-12 -1.714260e-15) (4.416105e-12 -8.532676e-09 -1.847579e-11))
1562.889278   	((1.498996e-07 1.801537e-10 -9.311714e-08) (2.290323e-07 8.526094e-12 -4.478036e-08)) ((2.785090e-15 1.745487e-12 -1.649578e-15) (4.529799e-12 -8.484030e-09 -1.744952e-11))
1726.499343   	((1.498306e-07 1.730029e-10 -9.254861e-08) (2.278721e-07 1.516751e-11 -4.510341e-08)) ((2.961399e-15 1.746582e-12 -1.603891e-15) (4.575566e-12 -8.444441e-09 -1.643782e-11))
1890.215501   	((1.497679e-07 1.640097e-10 -9.200361e-08) (2.269152e-07 2.058080e-11 -4.537713e-08)) ((3.190702e-15 1.747408e-12 -1.563187e-15) (4.554774e-12 -8.412180e-09 -1.545419e-11))
2054.023887   	((1.497120e-07 1.540177e-10 -9.147365e-08) (2.261242e-07 2.475993e-11 -4.560983e-08)) ((3.417159e-15 1.747932e-12 -1.517884e-15) (4.477809e-12 -8.385835e-09 -1.450658e-11))
2217.911968   	((1.496626e-07 1.432598e-10 -9.097366e-08) (2.254689e-07 2.779621e-11 -4.580809e-08)) ((3.678634e-15 1.748185e-12 -1.462934e-15) (4.349691e-12 -8.364274e-09 -1.360274e-11))
2381.868614   	((1.496195e-07 1.321634e-10 -9.048701e-08) (2.249248e-07 2.982425e-11 -4.597731e-08)) ((3.944836e-15 1.748503e-12 -1.413971e-15) (4.182992e-12 -8.346585e-09 -1.274911e-11))
2545.884029   	((1.495823e-07 1.210588e-10 -9.003894e-08) (2.244721e-07 3.096572e-11 -4.612181e-08)) ((4.212260e-15 1.748899e-12 -1.371174e-15) (3.986790e-12 -8.332044e-09 -1.195133e-11))
2709.949744   	((1.495505e-07 1.101168e-10 -8.961696e-08) (2.240948e-07 3.132035e-11 -4.624527e-08)) ((4.458162e-15 1.749336e-12 -1.331485e-15) (3.769123e-12 -8.320062e-09 -1.120801e-11))
2874.058493   	((1.495235e-07 9.960473e-11 -8.924008e-08) (2.237798e-07 3.106542e-11 -4.635069e-08)) ((4.687122e-15 1.749746e-12 -1.287274e-15) (3.538910e-12 -8.310167e-09 -1.052010e-11))
3038.204045   	((1.495005e-07 8.956857e-11 -8.889652e-08) (2.235165e-07 3.035911e-11 -4.644071e-08)) ((4.910697e-15 1.750172e-12 -1.244689e-15) (3.301776e-12 -8.301978e-09 -9.885416e-12))
3202.381054   	((1.494809e-07 8.014258e-11 -8.859027e-08) (2.232959e-07 2.930231e-11 -4.651761e-08)) ((5.114774e-15 1.750533e-12 -1.202782e-15) (3.063047e-12 -8.295182e-09 -9.302409e-12))
3366.58495    	((1.494640e-07 7.133492e-11 -8.831779e-08) (2.231110e-07 2.796002e-11 -4.658325e-08)) ((5.302883e-15 1.750846e-12 -1.176318e-15) (2.827403e-12 -8.289532e-09 -8.770129e-12))
3530.811823   	((1.494499e-07 6.320390e-11 -8.809013e-08) (2.229557e-07 2.640934e-11 -4.663920e-08)) ((5.472178e-15 1.751069e-12 -1.161517e-15) (2.598021e-12 -8.284827e-09 -8.286717e-12))
3695.058328   	((1.494380e-07 5.574405e-11 -8.787665e-08) (2.228252e-07 2.476469e-11 -4.668689e-08)) ((5.628117e-15 1.751338e-12 -1.133356e-15) (2.377996e-12 -8.280901e-09 -7.847845e-12))
3859.321604   	((1.494278e-07 4.895259e-11 -8.769574e-08) (2.227153e-07 2.307428e-11 -4.672750e-08)) ((5.766650e-15 1.751550e-12 -1.113079e-15) (2.169720e-12 -8.277620e-09 -7.451647e-12))
4023.599211   	((1.494195e-07 4.268492e-11 -8.753782e-08) (2.226228e-07 2.137189e-11 -4.676209e-08)) ((5.891576e-15 1.751740e-12 -1.084360e-15) (1.974257e-12 -8.274874e-09 -7.095638e-12))
4187.889069   	((1.494122e-07 3.708495e-11 -8.740457e-08) (2.225448e-07 1.969633e-11 -4.679153e-08)) ((6.001218e-15 1.751880e-12 -1.054804e-15) (1.792245e-12 -8.272572e-09 -6.776582e-12))
4352.189402   	((1.494058e-07 3.206166e-11 -8.728390e-08) (2.224790e-07 1.806903e-11 -4.681658e-08)) ((6.099365e-15 1.752036e-12 -1.032423e-15) (1.623979e-12 -8.270640e-09 -6.491438e-12))
4516.49869    	((1.494008e-07 2.747637e-11 -8.718308e-08) (2.224235e-07 1.650021e-11 -4.683786e-08)) ((6.188568e-15 1.752169e-12 -1.022224e-15) (1.469226e-12 -8.269017e-09 -6.237516e-12))
4680.815638   	((1.493964e-07 2.344287e-11 -8.709446e-08) (2.223766e-07 1.502214e-11 -4.685594e-08)) ((6.267601e-15 1.752288e-12 -1.016236e-15) (1.327661e-12 -8.267653e-09 -6.011340e-12))
4845.139136   	((1.493926e-07 1.984515e-11 -8.701959e-08) (2.223371e-07 1.363954e-11 -4.687129e-08)) ((6.338283e-15 1.752385e-12 -1.003322e-15) (1.198742e-12 -8.266506e-09 -5.810331e-12))
5009.468236   	((1.493894e-07 1.666320e-11 -8.695446e-08) (2.223036e-07 1.235549e-11 -4.688432e-08)) ((6.400707e-15 1.752471e-12 -9.911379e-16) (1.081998e-12 -8.265541e-09 -5.632372e-12))
5173.802129   	((1.493866e-07 1.383277e-11 -8.689883e-08) (2.222753e-07 1.117488e-11 -4.689539e-08)) ((6.456131e-15 1.752548e-12 -9.823468e-16) (9.766082e-13 -8.264727e-09 -5.474823e-12))
5338.140119   	((1.493844e-07 1.135056e-11 -8.685089e-08) (2.222514e-07 1.009737e-11 -4.690479e-08)) ((6.503405e-15 1.752620e-12 -9.752333e-16) (8.819195e-13 -8.264041e-09 -5.335692e-12))
5502.481613   	((1.493825e-07 9.149290e-12 -8.681098e-08) (2.222312e-07 9.119800e-12 -4.691276e-08)) ((6.545252e-15 1.752676e-12 -9.681667e-16) (7.971239e-13 -8.263462e-09 -5.212961e-12))
5666.826102   	((1.493809e-07 7.228090e-12 -8.677594e-08) (2.222141e-07 8.238514e-12 -4.691953e-08)) ((6.582038e-15 1.752729e-12 -9.616420e-16) (7.214416e-13 -8.262974e-09 -5.104830e-12))
5831.173152   	((1.493795e-07 5.551420e-12 -8.674632e-08) (2.221996e-07 7.446373e-12 -4.692528e-08)) ((6.614711e-15 1.752772e-12 -9.556954e-16) (6.540492e-13 -8.262562e-09 -5.009748e-12))
5995.522389   	((1.493783e-07 4.081968e-12 -8.672103e-08) (2.221874e-07 6.739534e-12 -4.693017e-08)) ((6.643966e-15 1.752809e-12 -9.501469e-16) (5.942333e-13 -8.262213e-09 -4.926240e-12))
6159.873495   	((1.493774e-07 2.797376e-12 -8.669938e-08) (2.221770e-07 6.108820e-12 -4.693431e-08)) ((6.669733e-15 1.752842e-12 -9.451966e-16) (5.412431e-13 -8.261919e-09 -4.853046e-12))
6324.226197   	((1.493766e-07 1.633800e-12 -8.668108e-08) (2.221682e-07 5.548139e-12 -4.693782e-08)) ((6.692606e-15 1.752870e-12 -9.407476e-16) (4.944448e-13 -8.261670e-09 -4.788947e-12))
6488.580262   	((1.493758e-07 6.133804e-13 -8.666556e-08) (2.221608e-07 5.051025e-12 -4.694081e-08)) ((6.713001e-15 1.752888e-12 -9.369084e-16) (4.532071e-13 -8.261459e-09 -4.732910e-12))
6652.935492   	((1.493752e-07 -2.322716e-13 -8.665230e-08) (2.221545e-07 4.613141e-12 -4.694334e-08)) ((6.730240e-15 1.752907e-12 -9.337276e-16) (4.169768e-13 -8.261281e-09 -4.683973e-12))
6817.291718   	((1.493748e-07 -9.558394e-13 -8.664116e-08) (2.221492e-07 4.228471e-12 -4.694548e-08)) ((6.745001e-15 1.752924e-12 -9.310467e-16) (3.851975e-13 -8.261131e-09 -4.641281e-12))
6981.648793   	((1.493743e-07 -1.613863e-12 -8.663155e-08) (2.221447e-07 3.889357e-12 -4.694731e-08)) ((6.758426e-15 1.752935e-12 -9.286791e-16) (3.573377e-13 -8.261003e-09 -4.604076e-12))
7146.006594   	((1.493739e-07 -2.191336e-12 -8.662256e-08) (2.221408e-07 3.591666e-12 -4.694885e-08)) ((6.770178e-15 1.752949e-12 -9.266157e-16) (3.329551e-13 -8.260895e-09 -4.571680e-12))
