# Forces      
# CofR        : (0.000000e+00 0.000000e+00 0.000000e+00)
# Time        forces(pressure viscous)	moments(pressure viscous)
0             	((0.000000e+00 0.000000e+00 0.000000e+00) (-1.944461e-12 3.170571e-03 1.894928e-13)) ((0.000000e+00 0.000000e+00 0.000000e+00) (7.123915e-05 -1.191486e-14 -1.367273e-09))
0.012         	((2.606238e-06 9.302955e-01 2.149137e-01) (3.371600e-10 3.809957e-03 -7.967306e-05)) ((-1.087514e-05 7.975602e-07 -1.685709e-07) (1.126272e-04 -2.239713e-10 -1.706291e-09))
0.0264        	((-4.285373e-05 -1.736306e-01 -6.174927e-02) (-3.072739e-08 3.801716e-03 -1.214381e-04)) ((1.906001e-06 -1.102988e-07 1.339132e-08) (1.245676e-04 3.383811e-10 1.031903e-09))
0.04368       	((5.140613e-05 -1.298533e-01 -4.203699e-02) (-1.110704e-08 3.264529e-03 -1.202226e-04)) ((1.910804e-06 -7.109212e-08 4.872520e-08) (1.094023e-04 -3.145158e-10 4.685806e-09))
0.064416      	((-4.039827e-06 9.736448e-05 -2.773227e-02) (-4.717095e-08 2.878236e-03 -1.339204e-04)) ((2.496647e-08 -1.992624e-08 -7.459353e-09) (9.944642e-05 -1.317330e-09 7.458891e-09))
0.0892992     	((-1.204809e-05 -1.005860e-03 -2.317185e-02) (-4.065637e-07 2.648035e-03 -1.584257e-04)) ((5.109542e-08 -6.908127e-09 8.946485e-10) (9.376925e-05 -9.673365e-11 9.303686e-09))
0.119159      	((-1.244306e-05 -6.467101e-04 -2.087425e-02) (-6.294315e-07 2.455546e-03 -1.777211e-04)) ((8.132239e-08 9.696254e-11 1.097152e-09) (8.805314e-05 1.907568e-09 1.138724e-08))
0.154991      	((-4.767107e-06 4.845693e-04 -1.954312e-02) (-5.891286e-07 2.285528e-03 -1.910783e-04)) ((5.691528e-08 3.766903e-09 1.262154e-09) (8.268998e-05 3.904479e-09 1.278355e-08))
0.197989      	((-6.395513e-06 8.763823e-04 -1.870523e-02) (-7.502959e-07 2.141324e-03 -2.031383e-04)) ((5.082956e-08 6.197379e-09 4.825299e-11) (7.789331e-05 4.671166e-09 1.372068e-08))
0.249587      	((-5.475023e-06 1.093482e-03 -1.820157e-02) (-8.731443e-07 2.020287e-03 -2.159910e-04)) ((4.394266e-08 7.691981e-09 -1.191553e-09) (7.362060e-05 4.377477e-09 1.544902e-08))
0.311504      	((-3.809451e-06 1.228945e-03 -1.789356e-02) (-7.974117e-07 1.913565e-03 -2.317974e-04)) ((3.465208e-08 7.842846e-09 -1.539059e-09) (6.970185e-05 3.605784e-09 1.896655e-08))
0.385805      	((-3.323609e-06 1.326667e-03 -1.767421e-02) (-7.782315e-07 1.813437e-03 -2.525899e-04)) ((2.398544e-08 8.077887e-09 -1.559161e-09) (6.594686e-05 3.249693e-09 2.150730e-08))
0.474966      	((-2.675978e-06 1.431873e-03 -1.750343e-02) (-7.533186e-07 1.716825e-03 -2.779279e-04)) ((1.411433e-08 8.083825e-09 -2.239384e-09) (6.227839e-05 2.992463e-09 2.188309e-08))
0.581959      	((-1.871661e-06 1.569303e-03 -1.734513e-02) (-6.184105e-07 1.624818e-03 -3.066993e-04)) ((3.656901e-09 7.698944e-09 -3.136817e-09) (5.874021e-05 2.255885e-09 2.259062e-08))
0.710351      	((-9.199697e-07 1.753843e-03 -1.718683e-02) (-4.655327e-07 1.539475e-03 -3.378833e-04)) ((-7.264676e-09 7.277250e-09 -4.024481e-09) (5.540628e-05 8.434525e-10 2.470925e-08))
0.864421      	((-2.780197e-07 2.001997e-03 -1.701647e-02) (-3.431018e-07 1.461960e-03 -3.699916e-04)) ((-1.929418e-08 6.666464e-09 -4.992841e-09) (5.233533e-05 -2.107672e-10 2.702475e-08))
1.044346      	((1.191638e-06 2.320242e-03 -1.684246e-02) (-1.364899e-07 1.394228e-03 -4.008876e-04)) ((-3.205419e-08 5.507551e-09 -6.322497e-09) (4.963193e-05 -6.564639e-10 3.079447e-08))
1.249921      	((2.499945e-06 2.705491e-03 -1.666041e-02) (4.084113e-08 1.336680e-03 -4.291503e-04)) ((-4.473929e-08 4.030686e-09 -7.844725e-09) (4.733570e-05 -1.196176e-09 3.676229e-08))
1.480909      	((3.601715e-06 3.162070e-03 -1.647408e-02) (1.794835e-07 1.288982e-03 -4.538451e-04)) ((-5.578933e-08 2.516314e-09 -9.460743e-09) (4.543224e-05 -2.031038e-09 4.460023e-08))
1.732376      	((4.881545e-06 3.653722e-03 -1.625396e-02) (2.626121e-07 1.250774e-03 -4.745351e-04)) ((-6.453576e-08 1.020067e-09 -1.109818e-08) (4.386478e-05 -3.606501e-09 5.406898e-08))
1.98089       	((5.853626e-06 4.142283e-03 -1.599454e-02) (2.402598e-07 1.220636e-03 -4.899236e-04)) ((-7.125520e-08 -4.886269e-10 -1.248696e-08) (4.258147e-05 -6.315887e-09 6.117207e-08))
2.226454      	((6.718367e-06 4.597440e-03 -1.570367e-02) (2.178388e-07 1.194669e-03 -4.997533e-04)) ((-7.724530e-08 -2.195278e-09 -1.360293e-08) (4.150235e-05 -9.339228e-09 6.951823e-08))
2.469596      	((8.094352e-06 4.983358e-03 -1.538086e-02) (1.983735e-07 1.172390e-03 -5.041924e-04)) ((-8.370897e-08 -3.785730e-09 -1.464802e-08) (4.063747e-05 -1.154568e-08 7.724372e-08))
2.711602      	((9.556147e-06 5.272497e-03 -1.504563e-02) (1.480220e-07 1.154029e-03 -5.045766e-04)) ((-9.002747e-08 -5.304289e-09 -1.601622e-08) (3.998257e-05 -1.228044e-08 8.233395e-08))
2.953582      	((9.903535e-06 5.471048e-03 -1.470933e-02) (5.724913e-08 1.138286e-03 -5.031493e-04)) ((-9.670618e-08 -6.682955e-09 -1.742926e-08) (3.945614e-05 -1.109355e-08 8.364314e-08))
3.195714      	((1.148789e-05 5.552580e-03 -1.438217e-02) (-1.863961e-08 1.123460e-03 -5.016651e-04)) ((-1.025692e-07 -7.498511e-09 -1.874720e-08) (3.897265e-05 -9.309599e-09 8.146530e-08))
3.43749       	((1.251023e-05 5.515266e-03 -1.405873e-02) (-2.582521e-08 1.109433e-03 -4.999869e-04)) ((-1.074909e-07 -7.719639e-09 -1.969877e-08) (3.853764e-05 -8.260473e-09 7.964116e-08))
3.678457      	((1.520819e-05 5.433502e-03 -1.375271e-02) (6.971071e-08 1.096430e-03 -4.978927e-04)) ((-1.109314e-07 -7.599258e-09 -2.008932e-08) (3.816122e-05 -8.556246e-09 7.823475e-08))
3.9186        	((1.640789e-05 5.347810e-03 -1.349196e-02) (1.687622e-07 1.084704e-03 -4.956434e-04)) ((-1.127038e-07 -7.241099e-09 -1.994478e-08) (3.784130e-05 -1.062921e-08 7.675244e-08))
4.158101      	((1.730136e-05 5.276920e-03 -1.326632e-02) (1.549716e-07 1.075032e-03 -4.930748e-04)) ((-1.129430e-07 -7.317256e-09 -1.982150e-08) (3.759441e-05 -1.333467e-08 7.745958e-08))
4.397085      	((1.707405e-05 5.221185e-03 -1.304474e-02) (1.489418e-07 1.067214e-03 -4.901600e-04)) ((-1.119575e-07 -7.502817e-09 -1.992004e-08) (3.740798e-05 -1.563294e-08 7.593662e-08))
4.635535      	((1.788596e-05 5.173627e-03 -1.283236e-02) (1.922337e-07 1.060092e-03 -4.874730e-04)) ((-1.103922e-07 -7.835541e-09 -2.037193e-08) (3.723429e-05 -1.716051e-08 7.059483e-08))
4.873395      	((2.217982e-05 5.139474e-03 -1.263004e-02) (2.478210e-07 1.053299e-03 -4.852860e-04)) ((-1.089031e-07 -8.041728e-09 -2.083859e-08) (3.705773e-05 -1.926182e-08 6.540618e-08))
5.11062       	((2.646141e-05 5.109531e-03 -1.247123e-02) (3.155222e-07 1.046997e-03 -4.833973e-04)) ((-1.083421e-07 -8.172167e-09 -2.113679e-08) (3.689093e-05 -2.242266e-08 6.189067e-08))
5.347247      	((3.163119e-05 5.047215e-03 -1.231654e-02) (4.358093e-07 1.040876e-03 -4.816977e-04)) ((-1.081950e-07 -8.017016e-09 -2.121813e-08) (3.673038e-05 -2.581601e-08 5.910213e-08))
5.583348      	((3.577796e-05 4.978312e-03 -1.217430e-02) (5.889863e-07 1.034816e-03 -4.802660e-04)) ((-1.081530e-07 -7.750468e-09 -2.114950e-08) (3.657329e-05 -2.910636e-08 5.771148e-08))
5.818963      	((4.037570e-05 4.916770e-03 -1.204486e-02) (7.376731e-07 1.029045e-03 -4.791438e-04)) ((-1.080248e-07 -7.420428e-09 -2.095347e-08) (3.642421e-05 -3.274476e-08 5.753571e-08))
6.054102      	((4.391453e-05 4.872695e-03 -1.193105e-02) (8.738066e-07 1.023593e-03 -4.783404e-04)) ((-1.077880e-07 -7.210600e-09 -2.079576e-08) (3.627997e-05 -3.712987e-08 5.804681e-08))
6.288796      	((4.957086e-05 4.837977e-03 -1.181972e-02) (1.026231e-06 1.018519e-03 -4.777950e-04)) ((-1.074522e-07 -7.035138e-09 -2.073083e-08) (3.614089e-05 -4.262481e-08 5.930742e-08))
6.523078      	((5.659230e-05 4.811881e-03 -1.170459e-02) (1.211807e-06 1.013938e-03 -4.773499e-04)) ((-1.071603e-07 -6.847182e-09 -2.077048e-08) (3.601332e-05 -4.950930e-08 6.160694e-08))
6.756985      	((6.142497e-05 4.792404e-03 -1.158721e-02) (1.397898e-06 1.009893e-03 -4.768059e-04)) ((-1.071664e-07 -6.723557e-09 -2.088766e-08) (3.590345e-05 -5.634398e-08 6.455275e-08))
6.990549      	((6.532321e-05 4.776726e-03 -1.147195e-02) (1.562886e-06 1.006271e-03 -4.760969e-04)) ((-1.074845e-07 -6.652882e-09 -2.104889e-08) (3.580966e-05 -6.227314e-08 6.736836e-08))
7.223785      	((7.095615e-05 4.762595e-03 -1.136550e-02) (1.741925e-06 1.002888e-03 -4.753568e-04)) ((-1.079061e-07 -6.558420e-09 -2.120710e-08) (3.572322e-05 -6.860123e-08 6.862997e-08))
7.456707      	((7.618095e-05 4.743657e-03 -1.126524e-02) (1.936817e-06 9.996334e-04 -4.747482e-04)) ((-1.082688e-07 -6.441123e-09 -2.133474e-08) (3.563662e-05 -7.615122e-08 6.932951e-08))
7.689342      	((8.267106e-05 4.720231e-03 -1.117060e-02) (2.144077e-06 9.964931e-04 -4.743051e-04)) ((-1.085759e-07 -6.240190e-09 -2.139634e-08) (3.554905e-05 -8.505308e-08 7.068066e-08))
7.921724      	((9.032665e-05 4.691739e-03 -1.107773e-02) (2.366373e-06 9.934427e-04 -4.739763e-04)) ((-1.086937e-07 -5.977712e-09 -2.141428e-08) (3.546137e-05 -9.550023e-08 7.368053e-08))
8.153895      	((9.931710e-05 4.661287e-03 -1.098556e-02) (2.598241e-06 9.904445e-04 -4.737308e-04)) ((-1.084849e-07 -5.663738e-09 -2.141377e-08) (3.537343e-05 -1.078468e-07 7.828314e-08))
8.385894      	((1.100785e-04 4.634588e-03 -1.089560e-02) (2.864095e-06 9.875023e-04 -4.735760e-04)) ((-1.080186e-07 -5.312210e-09 -2.140123e-08) (3.528523e-05 -1.223196e-07 8.316215e-08))
8.617737      	((1.213119e-04 4.613570e-03 -1.080619e-02) (3.166179e-06 9.846431e-04 -4.734890e-04)) ((-1.074433e-07 -4.954345e-09 -2.141484e-08) (3.519781e-05 -1.384306e-07 8.781254e-08))
8.849423      	((1.344820e-04 4.599109e-03 -1.071785e-02) (3.507803e-06 9.819182e-04 -4.733978e-04)) ((-1.069123e-07 -4.567814e-09 -2.144432e-08) (3.511436e-05 -1.562032e-07 9.225246e-08))
9.080942      	((1.475884e-04 4.588057e-03 -1.063113e-02) (3.894050e-06 9.793632e-04 -4.732414e-04)) ((-1.065612e-07 -4.181110e-09 -2.149203e-08) (3.503751e-05 -1.754084e-07 9.673969e-08))
9.31227       	((1.604716e-04 4.579270e-03 -1.054895e-02) (4.309795e-06 9.769796e-04 -4.729949e-04)) ((-1.064369e-07 -3.800790e-09 -2.154354e-08) (3.496833e-05 -1.955249e-07 1.018467e-07))
9.543405      	((1.753685e-04 4.569107e-03 -1.046878e-02) (4.753353e-06 9.747192e-04 -4.726848e-04)) ((-1.064350e-07 -3.385392e-09 -2.158825e-08) (3.490544e-05 -2.169279e-07 1.077772e-07))
9.774352      	((1.917133e-04 4.556441e-03 -1.038994e-02) (5.231486e-06 9.725301e-04 -4.723241e-04)) ((-1.065018e-07 -2.955344e-09 -2.161191e-08) (3.484741e-05 -2.401439e-07 1.144074e-07))
10.005116     	((2.104469e-04 4.539671e-03 -1.031172e-02) (5.764567e-06 9.703801e-04 -4.719370e-04)) ((-1.065058e-07 -2.486767e-09 -2.162264e-08) (3.479242e-05 -2.658696e-07 1.215423e-07))
10.235704     	((2.304355e-04 4.525002e-03 -1.023822e-02) (6.363183e-06 9.683082e-04 -4.715373e-04)) ((-1.064958e-07 -2.010849e-09 -2.165514e-08) (3.474065e-05 -2.941487e-07 1.284659e-07))
10.466125     	((2.516002e-04 4.508445e-03 -1.016655e-02) (7.022451e-06 9.663292e-04 -4.711390e-04)) ((-1.063462e-07 -1.459295e-09 -2.168883e-08) (3.469133e-05 -3.245429e-07 1.350383e-07))
10.696385     	((2.756529e-04 4.491324e-03 -1.009296e-02) (7.746345e-06 9.644143e-04 -4.707534e-04)) ((-1.061571e-07 -8.536159e-10 -2.172939e-08) (3.464314e-05 -3.572175e-07 1.419790e-07))
10.926492     	((3.030847e-04 4.477454e-03 -1.002283e-02) (8.553548e-06 9.625806e-04 -4.703597e-04)) ((-1.059939e-07 -2.474577e-10 -2.177384e-08) (3.459721e-05 -3.928628e-07 1.498270e-07))
11.156453     	((3.343460e-04 4.465160e-03 -9.953003e-03) (9.459439e-06 9.608355e-04 -4.699467e-04)) ((-1.058256e-07 4.055391e-10 -2.182428e-08) (3.455414e-05 -4.322065e-07 1.590334e-07))
11.386273     	((3.680798e-04 4.453363e-03 -9.885401e-03) (1.045549e-05 9.591514e-04 -4.695173e-04)) ((-1.056782e-07 1.051980e-09 -2.187772e-08) (3.451333e-05 -4.751616e-07 1.697000e-07))
11.615959     	((4.047756e-04 4.440448e-03 -9.818454e-03) (1.154388e-05 9.575150e-04 -4.690571e-04)) ((-1.055671e-07 1.716912e-09 -2.192568e-08) (3.447424e-05 -5.213325e-07 1.819990e-07))
11.84552      	((4.453088e-04 4.425727e-03 -9.751070e-03) (1.273202e-05 9.559017e-04 -4.685682e-04)) ((-1.054671e-07 2.442833e-09 -2.194564e-08) (3.443562e-05 -5.710595e-07 1.964631e-07))
12.074962     	((4.882811e-04 4.412195e-03 -9.687035e-03) (1.403420e-05 9.543159e-04 -4.680572e-04)) ((-1.054031e-07 3.208156e-09 -2.194609e-08) (3.439760e-05 -6.248855e-07 2.123233e-07))
12.304294     	((5.350487e-04 4.399196e-03 -9.625083e-03) (1.544447e-05 9.527629e-04 -4.675276e-04)) ((-1.053743e-07 4.025874e-09 -2.192873e-08) (3.436066e-05 -6.836512e-07 2.301917e-07))
12.533522     	((5.867146e-04 4.387809e-03 -9.565381e-03) (1.697586e-05 9.512660e-04 -4.669741e-04)) ((-1.053908e-07 4.935979e-09 -2.188235e-08) (3.432542e-05 -7.484194e-07 2.494984e-07))
12.762653     	((6.444386e-04 4.378057e-03 -9.507055e-03) (1.865063e-05 9.498286e-04 -4.664087e-04)) ((-1.054383e-07 5.975253e-09 -2.182485e-08) (3.429198e-05 -8.208369e-07 2.703059e-07))
12.991694     	((7.064692e-04 4.370672e-03 -9.451239e-03) (2.048427e-05 9.484495e-04 -4.658357e-04)) ((-1.055328e-07 7.068570e-09 -2.177077e-08) (3.426035e-05 -9.014046e-07 2.934446e-07))
13.220652     	((7.750785e-04 4.364579e-03 -9.396063e-03) (2.249296e-05 9.471117e-04 -4.652554e-04)) ((-1.056618e-07 8.235553e-09 -2.170000e-08) (3.423005e-05 -9.903394e-07 3.200357e-07))
13.449533     	((8.499970e-04 4.360649e-03 -9.342660e-03) (2.469562e-05 9.458120e-04 -4.646579e-04)) ((-1.058670e-07 9.437241e-09 -2.162275e-08) (3.420153e-05 -1.087997e-06 3.505738e-07))
13.678344     	((9.327267e-04 4.359683e-03 -9.291746e-03) (2.711721e-05 9.445834e-04 -4.640311e-04)) ((-1.061190e-07 1.071476e-08 -2.154917e-08) (3.417664e-05 -1.195205e-06 3.845239e-07))
13.907092     	((1.022826e-03 4.362049e-03 -9.243366e-03) (2.979241e-05 9.434581e-04 -4.633581e-04)) ((-1.064274e-07 1.207506e-08 -2.147205e-08) (3.415706e-05 -1.313081e-06 4.211942e-07))
14.135737     	((1.121806e-03 4.366888e-03 -9.197638e-03) (3.274429e-05 9.424424e-04 -4.626443e-04)) ((-1.067282e-07 1.357127e-08 -2.138991e-08) (3.414273e-05 -1.442879e-06 4.606263e-07))
14.364279     	((1.231201e-03 4.374990e-03 -9.154899e-03) (3.600611e-05 9.415451e-04 -4.619342e-04)) ((-1.069831e-07 1.522984e-08 -2.130619e-08) (3.413240e-05 -1.586061e-06 5.026066e-07))
14.592721     	((1.352191e-03 4.385360e-03 -9.113800e-03) (3.964654e-05 9.407738e-04 -4.612487e-04)) ((-1.071870e-07 1.708013e-08 -2.121353e-08) (3.412590e-05 -1.744592e-06 5.465283e-07))
14.821068     	((1.486771e-03 4.397705e-03 -9.076074e-03) (4.372468e-05 9.401352e-04 -4.606105e-04)) ((-1.073413e-07 1.917823e-08 -2.109254e-08) (3.412318e-05 -1.921065e-06 5.919081e-07))
15.049323     	((1.635020e-03 4.412896e-03 -9.039395e-03) (4.827589e-05 9.396541e-04 -4.600019e-04)) ((-1.075087e-07 2.155826e-08 -2.094352e-08) (3.412581e-05 -2.117656e-06 6.392850e-07))
15.277493     	((1.796390e-03 4.433583e-03 -9.008114e-03) (5.331472e-05 9.393642e-04 -4.593692e-04)) ((-1.076936e-07 2.415050e-08 -2.078320e-08) (3.413673e-05 -2.334965e-06 6.904094e-07))
15.505584     	((1.969749e-03 4.459842e-03 -8.983398e-03) (5.882966e-05 9.392673e-04 -4.586908e-04)) ((-1.078285e-07 2.695154e-08 -2.061401e-08) (3.415695e-05 -2.572168e-06 7.470737e-07))
15.733603     	((2.155668e-03 4.491851e-03 -8.964276e-03) (6.484068e-05 9.394104e-04 -4.579736e-04)) ((-1.079339e-07 2.994860e-08 -2.044156e-08) (3.418734e-05 -2.829959e-06 8.083177e-07))
15.961556     	((2.356557e-03 4.528993e-03 -8.949877e-03) (7.141483e-05 9.398426e-04 -4.572084e-04)) ((-1.079387e-07 3.314620e-08 -2.024384e-08) (3.422897e-05 -3.110204e-06 8.711649e-07))
16.18944      	((2.570681e-03 4.576309e-03 -8.941183e-03) (7.859039e-05 9.406312e-04 -4.563710e-04)) ((-1.079353e-07 3.649976e-08 -1.999960e-08) (3.428372e-05 -3.414202e-06 9.349873e-07))
16.417257     	((2.798148e-03 4.636102e-03 -8.941387e-03) (8.637863e-05 9.418546e-04 -4.554076e-04)) ((-1.080221e-07 3.992492e-08 -1.970701e-08) (3.435518e-05 -3.742363e-06 1.000177e-06))
16.645015     	((3.040381e-03 4.708013e-03 -8.951433e-03) (9.482116e-05 9.436571e-04 -4.542689e-04)) ((-1.081365e-07 4.350825e-08 -1.938587e-08) (3.444849e-05 -4.096023e-06 1.067005e-06))
16.872727     	((3.297108e-03 4.794331e-03 -8.975584e-03) (1.039516e-04 9.461821e-04 -4.529157e-04)) ((-1.083610e-07 4.723533e-08 -1.902552e-08) (3.457033e-05 -4.476267e-06 1.134840e-06))
17.100399     	((3.572104e-03 4.892406e-03 -9.005537e-03) (1.138035e-04 9.494039e-04 -4.513216e-04)) ((-1.087203e-07 5.109234e-08 -1.861007e-08) (3.472400e-05 -4.883550e-06 1.201823e-06))
17.327845     	((3.865948e-03 5.008961e-03 -9.040381e-03) (1.243925e-04 9.533072e-04 -4.494814e-04)) ((-1.093727e-07 5.498702e-08 -1.815878e-08) (3.491006e-05 -5.318532e-06 1.268826e-06))
17.554981     	((4.173368e-03 5.143402e-03 -9.085715e-03) (1.357058e-04 9.579502e-04 -4.474952e-04)) ((-1.102144e-07 5.889659e-08 -1.766915e-08) (3.512699e-05 -5.780099e-06 1.338851e-06))
17.781812     	((4.491248e-03 5.298456e-03 -9.147209e-03) (1.477536e-04 9.633618e-04 -4.454284e-04)) ((-1.113251e-07 6.276681e-08 -1.716560e-08) (3.537553e-05 -6.266528e-06 1.412180e-06))
18.008374     	((4.816418e-03 5.470682e-03 -9.219707e-03) (1.604928e-04 9.696063e-04 -4.433181e-04)) ((-1.127372e-07 6.647580e-08 -1.667407e-08) (3.565734e-05 -6.774906e-06 1.487880e-06))
18.234687     	((5.138587e-03 5.672024e-03 -9.313064e-03) (1.738587e-04 9.768474e-04 -4.411259e-04)) ((-1.147177e-07 6.985258e-08 -1.621923e-08) (3.597704e-05 -7.300441e-06 1.559770e-06))
18.460728     	((5.453420e-03 5.894626e-03 -9.425158e-03) (1.877132e-04 9.852046e-04 -4.387842e-04)) ((-1.172188e-07 7.298041e-08 -1.582713e-08) (3.634036e-05 -7.838277e-06 1.624637e-06))
18.686532     	((5.755257e-03 6.137010e-03 -9.556361e-03) (2.018719e-04 9.947592e-04 -4.362736e-04)) ((-1.201246e-07 7.587339e-08 -1.547737e-08) (3.675011e-05 -8.384214e-06 1.681938e-06))
18.912203     	((6.036362e-03 6.393707e-03 -9.699883e-03) (2.161948e-04 1.005605e-03 -4.335978e-04)) ((-1.234215e-07 7.838042e-08 -1.526204e-08) (3.720555e-05 -8.932636e-06 1.729147e-06))
19.137843     	((6.282465e-03 6.658650e-03 -9.851381e-03) (2.304719e-04 1.017695e-03 -4.308057e-04)) ((-1.268529e-07 8.026922e-08 -1.523759e-08) (3.770174e-05 -9.475179e-06 1.760519e-06))
19.363513     	((6.473045e-03 6.924124e-03 -1.002203e-02) (2.443836e-04 1.030803e-03 -4.279070e-04)) ((-1.303311e-07 8.118667e-08 -1.528795e-08) (3.823185e-05 -9.997161e-06 1.770111e-06))
19.589234     	((6.592600e-03 7.177146e-03 -1.020199e-02) (2.574146e-04 1.044594e-03 -4.248534e-04)) ((-1.337055e-07 8.089301e-08 -1.535536e-08) (3.878564e-05 -1.048137e-05 1.759081e-06))
19.815031     	((6.627970e-03 7.400155e-03 -1.038435e-02) (2.690636e-04 1.058387e-03 -4.216458e-04)) ((-1.366647e-07 7.908991e-08 -1.559046e-08) (3.934485e-05 -1.090749e-05 1.727615e-06))
20.041027     	((6.574105e-03 7.571010e-03 -1.055291e-02) (2.787618e-04 1.071441e-03 -4.184886e-04)) ((-1.389182e-07 7.612117e-08 -1.590810e-08) (3.988213e-05 -1.125732e-05 1.677005e-06))
20.267387     	((6.417126e-03 7.674841e-03 -1.070680e-02) (2.858732e-04 1.083293e-03 -4.155892e-04)) ((-1.402070e-07 7.201556e-08 -1.610921e-08) (4.037317e-05 -1.151231e-05 1.608647e-06))
20.494276     	((6.128494e-03 7.702648e-03 -1.083962e-02) (2.898065e-04 1.093597e-03 -4.130278e-04)) ((-1.404989e-07 6.606506e-08 -1.625290e-08) (4.079844e-05 -1.164279e-05 1.510093e-06))
20.721814     	((5.688608e-03 7.634624e-03 -1.094619e-02) (2.897252e-04 1.101802e-03 -4.107247e-04)) ((-1.397588e-07 5.800820e-08 -1.633843e-08) (4.114071e-05 -1.160913e-05 1.372544e-06))
20.950073     	((5.098061e-03 7.470430e-03 -1.101532e-02) (2.844113e-04 1.107344e-03 -4.086274e-04)) ((-1.380819e-07 4.828884e-08 -1.614097e-08) (4.138565e-05 -1.136885e-05 1.219395e-06))
21.179216     	((4.357042e-03 7.188694e-03 -1.103552e-02) (2.727994e-04 1.109540e-03 -4.070618e-04)) ((-1.350097e-07 3.762439e-08 -1.554087e-08) (4.150544e-05 -1.089591e-05 1.073108e-06))
21.409117     	((3.461263e-03 6.853660e-03 -1.105028e-02) (2.541958e-04 1.108429e-03 -4.064095e-04)) ((-1.313756e-07 2.533695e-08 -1.501933e-08) (4.148828e-05 -1.017807e-05 9.393110e-07))
21.639343     	((2.450701e-03 6.490726e-03 -1.103278e-02) (2.285718e-04 1.104745e-03 -4.073284e-04)) ((-1.265651e-07 1.217433e-08 -1.486109e-08) (4.133798e-05 -9.234802e-06 8.197833e-07))
21.869932     	((1.355997e-03 6.180699e-03 -1.102282e-02) (1.968891e-04 1.099777e-03 -4.101662e-04)) ((-1.221646e-07 -2.583531e-09 -1.476195e-08) (4.107775e-05 -8.103918e-06 6.924499e-07))
22.100998     	((2.566107e-04 5.979035e-03 -1.103983e-02) (1.607190e-04 1.094832e-03 -4.145950e-04)) ((-1.193600e-07 -1.773573e-08 -1.447156e-08) (4.075363e-05 -6.821755e-06 5.465729e-07))
22.33262      	((-7.653383e-04 5.887480e-03 -1.105742e-02) (1.221941e-04 1.091375e-03 -4.200138e-04)) ((-1.179475e-07 -3.127908e-08 -1.451464e-08) (4.042719e-05 -5.441461e-06 3.678439e-07))
22.564644     	((-1.647253e-03 5.887692e-03 -1.107927e-02) (8.357404e-05 1.090527e-03 -4.257282e-04)) ((-1.187904e-07 -4.317693e-08 -1.437703e-08) (4.015126e-05 -4.030232e-06 1.525786e-07))
