# Forces      
# CofR        : (0.000000e+00 0.000000e+00 0.000000e+00)
# Time        forces(pressure viscous)	moments(pressure viscous)
0             	((0.000000e+00 0.000000e+00 0.000000e+00) (1.002620e-02 -8.803355e-13 9.661044e-08)) ((0.000000e+00 0.000000e+00 0.000000e+00) (-2.283251e-14 -2.252759e-04 -1.106516e-13))
0.012         	((2.962915e+00 3.614646e-05 5.727311e-01) (1.517347e-02 -2.240132e-07 -9.755682e-04)) ((-1.696533e-09 4.284056e-05 -1.951250e-10) (-9.301698e-09 -4.693265e-04 -6.237251e-11))
0.0264        	((-9.690677e-01 -1.958658e-04 -4.559578e-01) (1.485305e-02 -4.210851e-07 -1.460252e-03)) ((-2.373495e-09 -1.444095e-05 -4.298279e-09) (-1.486537e-08 -5.112071e-04 1.490788e-08))
0.04368       	((-8.587917e-02 1.586385e-04 -2.450952e-01) (1.220521e-02 -1.626314e-07 -1.365590e-03)) ((3.440851e-09 -3.623680e-06 2.524749e-09) (-8.319638e-09 -4.302320e-04 8.314639e-09))
0.064416      	((-2.415932e-02 -4.570499e-05 -2.159848e-01) (1.081759e-02 1.920355e-08 -1.402037e-03)) ((2.429256e-09 -9.932047e-07 -2.942593e-09) (-6.709640e-09 -3.874387e-04 -6.025357e-09))
0.0892992     	((1.329126e-02 -4.146280e-05 -1.894008e-01) (9.939443e-03 8.241040e-09 -1.388196e-03)) ((5.011646e-09 -7.277232e-07 -4.153751e-09) (-1.561810e-08 -3.567572e-04 -1.768460e-09))
0.119159      	((5.981949e-03 -4.139772e-06 -1.886236e-01) (9.316819e-03 2.871386e-08 -1.363458e-03)) ((1.393757e-09 -6.975145e-07 -2.649876e-09) (-2.146196e-08 -3.352742e-04 2.852512e-09))
0.154991      	((9.645005e-03 -3.709902e-06 -1.810056e-01) (8.873498e-03 8.093970e-08 -1.389986e-03)) ((1.866183e-09 -5.265809e-07 -1.851371e-09) (-2.345324e-08 -3.194327e-04 5.164357e-09))
0.197989      	((9.415873e-03 1.408315e-05 -1.816384e-01) (8.528779e-03 1.427248e-07 -1.467094e-03)) ((5.640863e-10 -4.378114e-07 -1.475439e-10) (-2.233467e-08 -3.067044e-04 1.576152e-09))
0.249251      	((1.099008e-02 -2.224797e-06 -1.787063e-01) (8.245424e-03 1.797719e-07 -1.565908e-03)) ((-3.106460e-10 -2.898352e-07 -3.250288e-10) (-1.930115e-08 -2.957663e-04 -5.094552e-09))
0.308768      	((1.215722e-02 2.036152e-06 -1.784951e-01) (8.008641e-03 9.423223e-08 -1.677358e-03)) ((-6.425938e-10 -1.574208e-07 -3.774733e-10) (-1.745469e-08 -2.863093e-04 -1.028572e-08))
0.376547      	((1.413127e-02 -5.081149e-06 -1.768223e-01) (7.817136e-03 3.840243e-08 -1.792603e-03)) ((8.720550e-10 -2.359396e-08 -4.188662e-10) (-1.874740e-08 -2.784219e-04 -1.506284e-08))
0.452603      	((1.617978e-02 -5.427888e-06 -1.762094e-01) (7.668886e-03 -1.424086e-07 -1.902732e-03)) ((5.990365e-10 1.015187e-07 -5.420404e-10) (-2.022106e-08 -2.721306e-04 -1.898815e-08))
0.535427      	((1.840587e-02 -1.750494e-05 -1.747189e-01) (7.556519e-03 -3.791211e-07 -2.003271e-03)) ((4.997948e-10 2.179111e-07 -3.564600e-10) (-2.248472e-08 -2.671206e-04 -2.268690e-08))
0.61802       	((2.070176e-02 -2.152426e-05 -1.735654e-01) (7.473068e-03 -5.487298e-07 -2.082319e-03)) ((6.415748e-10 3.043245e-07 1.491989e-10) (-2.457670e-08 -2.631472e-04 -2.467925e-08))
0.700068      	((2.283141e-02 -2.686773e-05 -1.717837e-01) (7.399871e-03 -5.714014e-07 -2.141121e-03)) ((1.060854e-09 3.859086e-07 5.634568e-10) (-2.532256e-08 -2.595283e-04 -2.265941e-08))
0.781695      	((2.472689e-02 -2.471990e-05 -1.699563e-01) (7.324500e-03 -4.639882e-07 -2.183050e-03)) ((7.123071e-10 4.640517e-07 4.979140e-10) (-2.377187e-08 -2.559526e-04 -1.686820e-08))
0.863175      	((2.628983e-02 -2.663190e-05 -1.678625e-01) (7.243567e-03 -3.270739e-07 -2.211507e-03)) ((7.730774e-10 5.449573e-07 5.518571e-11) (-2.219432e-08 -2.524994e-04 -1.194214e-08))
0.94478       	((2.735948e-02 -2.952226e-05 -1.657896e-01) (7.161706e-03 -4.095607e-07 -2.230548e-03)) ((1.220846e-09 6.196140e-07 -4.946347e-10) (-2.469258e-08 -2.493507e-04 -1.526826e-08))
1.02664       	((2.791119e-02 -3.860037e-05 -1.636480e-01) (7.085331e-03 -7.877899e-07 -2.244671e-03)) ((2.402350e-09 6.769091e-07 -6.017810e-10) (-3.233800e-08 -2.465711e-04 -2.356655e-08))
1.108717      	((2.821981e-02 -4.313484e-05 -1.616925e-01) (7.014738e-03 -1.024190e-06 -2.256859e-03)) ((2.269791e-09 7.183488e-07 -6.998523e-10) (-3.922434e-08 -2.440555e-04 -2.878705e-08))
1.190913      	((2.821346e-02 -4.320352e-05 -1.598270e-01) (6.948713e-03 -1.003567e-06 -2.267704e-03)) ((1.748123e-09 7.514268e-07 -7.229775e-10) (-4.190949e-08 -2.417172e-04 -2.927917e-08))
1.273181      	((2.805426e-02 -4.835380e-05 -1.581182e-01) (6.887676e-03 -9.337418e-07 -2.275943e-03)) ((1.706330e-09 7.803403e-07 -4.960634e-10) (-4.271026e-08 -2.395926e-04 -2.629278e-08))
1.355533      	((2.778318e-02 -5.853630e-05 -1.565287e-01) (6.832460e-03 -9.007473e-07 -2.281991e-03)) ((1.878388e-09 7.983972e-07 -7.534889e-11) (-4.448179e-08 -2.377040e-04 -2.293657e-08))
1.437989      	((2.753699e-02 -6.756930e-05 -1.551270e-01) (6.782938e-03 -8.948172e-07 -2.287039e-03)) ((1.918366e-09 8.041696e-07 1.528866e-10) (-4.761949e-08 -2.360174e-04 -1.780037e-08))
1.520547      	((2.731743e-02 -7.512984e-05 -1.538550e-01) (6.738454e-03 -9.320980e-07 -2.291079e-03)) ((1.914347e-09 8.024898e-07 1.568665e-10) (-5.104628e-08 -2.345218e-04 -1.213950e-08))
1.603195      	((2.712580e-02 -8.634718e-05 -1.526734e-01) (6.698557e-03 -1.003628e-06 -2.294190e-03)) ((1.997551e-09 7.970997e-07 -3.193221e-11) (-5.401691e-08 -2.332113e-04 -7.772163e-09))
1.685925      	((2.693028e-02 -9.868544e-05 -1.515683e-01) (6.662233e-03 -1.043441e-06 -2.297133e-03)) ((1.845798e-09 7.897540e-07 -1.834567e-10) (-5.660422e-08 -2.320250e-04 -2.616434e-09))
1.768735      	((2.673040e-02 -1.135492e-04 -1.505647e-01) (6.628646e-03 -1.125186e-06 -2.300290e-03)) ((1.886478e-09 7.824365e-07 -3.464862e-10) (-6.042096e-08 -2.309166e-04 2.914038e-09))
1.85162       	((2.649895e-02 -1.310017e-04 -1.495881e-01) (6.597522e-03 -1.204325e-06 -2.303540e-03)) ((1.672273e-09 7.783729e-07 -4.507991e-10) (-6.515955e-08 -2.298807e-04 9.962343e-09))
1.934575      	((2.628240e-02 -1.511677e-04 -1.486866e-01) (6.568524e-03 -1.273651e-06 -2.306134e-03)) ((1.680498e-09 7.771350e-07 -5.467419e-10) (-7.139592e-08 -2.289352e-04 2.005022e-08))
2.017595      	((2.608951e-02 -1.741228e-04 -1.478342e-01) (6.541693e-03 -1.383632e-06 -2.307592e-03)) ((1.719804e-09 7.776074e-07 -6.952637e-10) (-8.053403e-08 -2.281006e-04 3.156001e-08))
2.100677      	((2.594291e-02 -1.920675e-04 -1.470687e-01) (6.517329e-03 -1.531838e-06 -2.308141e-03)) ((1.818973e-09 7.772520e-07 -8.575436e-10) (-9.107386e-08 -2.273753e-04 4.283061e-08))
2.183816      	((2.583079e-02 -2.164829e-04 -1.463962e-01) (6.495121e-03 -1.699244e-06 -2.308411e-03)) ((1.955913e-09 7.753794e-07 -1.002155e-09) (-1.018250e-07 -2.267200e-04 5.372817e-08))
2.267009      	((2.574688e-02 -2.541413e-04 -1.457718e-01) (6.474719e-03 -1.964503e-06 -2.309053e-03)) ((2.233496e-09 7.736044e-07 -1.305924e-09) (-1.151784e-07 -2.260987e-04 6.422894e-08))
2.350231      	((2.566576e-02 -2.944488e-04 -1.451811e-01) (6.455805e-03 -2.366183e-06 -2.310256e-03)) ((2.623130e-09 7.724735e-07 -1.525971e-09) (-1.320896e-07 -2.254994e-04 7.554511e-08))
2.433419      	((2.555135e-02 -3.359514e-04 -1.446047e-01) (6.438049e-03 -2.788073e-06 -2.311762e-03)) ((2.938278e-09 7.717133e-07 -1.694675e-09) (-1.505010e-07 -2.249239e-04 8.853796e-08))
2.516577      	((2.542331e-02 -3.784565e-04 -1.440482e-01) (6.421263e-03 -3.212531e-06 -2.313403e-03)) ((3.284529e-09 7.712642e-07 -1.859612e-09) (-1.686722e-07 -2.243736e-04 1.024666e-07))
2.599706      	((2.528234e-02 -4.258933e-04 -1.435261e-01) (6.405427e-03 -3.675473e-06 -2.315174e-03)) ((3.847465e-09 7.703096e-07 -2.082585e-09) (-1.879325e-07 -2.238496e-04 1.173381e-07))
2.68281       	((2.515448e-02 -4.800268e-04 -1.430451e-01) (6.390614e-03 -4.157844e-06 -2.316908e-03)) ((4.632712e-09 7.693154e-07 -2.247879e-09) (-2.101479e-07 -2.233624e-04 1.345643e-07))
2.765894      	((2.505853e-02 -5.416646e-04 -1.426075e-01) (6.376946e-03 -4.682592e-06 -2.318328e-03)) ((5.416558e-09 7.685737e-07 -2.347459e-09) (-2.357130e-07 -2.229253e-04 1.539625e-07))
2.848959      	((2.498684e-02 -6.133308e-04 -1.421924e-01) (6.364538e-03 -5.355616e-06 -2.319272e-03)) ((6.327135e-09 7.680937e-07 -2.415483e-09) (-2.663549e-07 -2.225447e-04 1.727604e-07))
2.932007      	((2.492377e-02 -6.955884e-04 -1.417910e-01) (6.353414e-03 -6.179462e-06 -2.319776e-03)) ((7.566944e-09 7.675097e-07 -2.517738e-09) (-3.029356e-07 -2.222178e-04 1.914280e-07))
3.015041      	((2.485105e-02 -7.914120e-04 -1.414035e-01) (6.343423e-03 -7.114248e-06 -2.319949e-03)) ((9.001181e-09 7.668981e-07 -2.624486e-09) (-3.449493e-07 -2.219350e-04 2.127861e-07))
3.098061      	((2.476037e-02 -8.948782e-04 -1.410356e-01) (6.334315e-03 -8.137833e-06 -2.319867e-03)) ((1.012250e-08 7.669537e-07 -2.858967e-09) (-3.920479e-07 -2.216867e-04 2.377746e-07))
3.18107       	((2.464395e-02 -1.013456e-03 -1.406792e-01) (6.325843e-03 -9.246701e-06 -2.319523e-03)) ((1.120400e-08 7.677329e-07 -3.189937e-09) (-4.440177e-07 -2.214667e-04 2.696114e-07))
3.264067      	((2.452336e-02 -1.151420e-03 -1.403426e-01) (6.317879e-03 -1.048957e-05 -2.318933e-03)) ((1.231955e-08 7.690097e-07 -3.614659e-09) (-5.030826e-07 -2.212701e-04 3.083769e-07))
3.347055      	((2.441114e-02 -1.311963e-03 -1.400185e-01) (6.310406e-03 -1.194135e-05 -2.318173e-03)) ((1.383490e-08 7.704005e-07 -4.068603e-09) (-5.728027e-07 -2.210913e-04 3.532495e-07))
3.430036      	((2.431490e-02 -1.493789e-03 -1.397068e-01) (6.303371e-03 -1.365271e-05 -2.317302e-03)) ((1.575254e-08 7.715278e-07 -4.549562e-09) (-6.552358e-07 -2.209247e-04 4.049235e-07))
3.513009      	((2.423909e-02 -1.702049e-03 -1.394061e-01) (6.296794e-03 -1.570262e-05 -2.316315e-03)) ((1.813003e-08 7.726681e-07 -5.015454e-09) (-7.510955e-07 -2.207680e-04 4.610797e-07))
3.595977      	((2.417053e-02 -1.940733e-03 -1.391092e-01) (6.290592e-03 -1.811288e-05 -2.315225e-03)) ((2.083025e-08 7.739231e-07 -5.592922e-09) (-8.609384e-07 -2.206188e-04 5.218871e-07))
3.678941      	((2.411033e-02 -2.208362e-03 -1.388258e-01) (6.284712e-03 -2.087406e-05 -2.314007e-03)) ((2.381783e-08 7.757793e-07 -6.259898e-09) (-9.846833e-07 -2.204783e-04 5.890499e-07))
3.761901      	((2.404692e-02 -2.507185e-03 -1.385533e-01) (6.279147e-03 -2.395304e-05 -2.312642e-03)) ((2.705424e-08 7.780049e-07 -7.046383e-09) (-1.122228e-06 -2.203488e-04 6.654641e-07))
3.844858      	((2.397894e-02 -2.841387e-03 -1.382899e-01) (6.273854e-03 -2.737291e-05 -2.311139e-03)) ((3.047077e-08 7.806796e-07 -7.929407e-09) (-1.274634e-06 -2.202316e-04 7.527952e-07))
3.927815      	((2.391660e-02 -3.208450e-03 -1.380434e-01) (6.268873e-03 -3.119677e-05 -2.309512e-03)) ((3.412699e-08 7.838168e-07 -8.785636e-09) (-1.444610e-06 -2.201282e-04 8.508635e-07))
4.010771      	((2.386175e-02 -3.616561e-03 -1.378071e-01) (6.264284e-03 -3.549424e-05 -2.307725e-03)) ((3.831143e-08 7.873252e-07 -9.805742e-09) (-1.634357e-06 -2.200423e-04 9.586624e-07))
4.093729      	((2.381784e-02 -4.082498e-03 -1.375773e-01) (6.260096e-03 -4.032435e-05 -2.305688e-03)) ((4.332262e-08 7.912682e-07 -1.111620e-08) (-1.847031e-06 -2.199770e-04 1.077257e-06))
4.176688      	((2.378401e-02 -4.608568e-03 -1.373529e-01) (6.256296e-03 -4.579356e-05 -2.303314e-03)) ((4.878046e-08 7.958364e-07 -1.272459e-08) (-2.087241e-06 -2.199347e-04 1.207793e-06))
4.25965       	((2.376209e-02 -5.200231e-03 -1.371424e-01) (6.252881e-03 -5.195369e-05 -2.300567e-03)) ((5.484263e-08 8.012420e-07 -1.468244e-08) (-2.358870e-06 -2.199162e-04 1.356258e-06))
4.342617      	((2.374398e-02 -5.874672e-03 -1.369345e-01) (6.249862e-03 -5.880440e-05 -2.297512e-03)) ((6.179433e-08 8.069362e-07 -1.700115e-08) (-2.666244e-06 -2.199188e-04 1.530231e-06))
4.425569      	((2.372520e-02 -6.640518e-03 -1.367307e-01) (6.247192e-03 -6.645192e-05 -2.294246e-03)) ((6.957697e-08 8.123554e-07 -2.004591e-08) (-3.015354e-06 -2.199373e-04 1.733176e-06))
4.508501      	((2.371847e-02 -7.504516e-03 -1.365415e-01) (6.244732e-03 -7.507126e-05 -2.290903e-03)) ((7.840996e-08 8.171559e-07 -2.356826e-08) (-3.411482e-06 -2.199648e-04 1.965792e-06))
4.59141       	((2.373187e-02 -8.481731e-03 -1.363692e-01) (6.242531e-03 -8.474998e-05 -2.287597e-03)) ((8.826194e-08 8.218096e-07 -2.739690e-08) (-3.858295e-06 -2.199979e-04 2.234017e-06))
4.674295      	((2.377323e-02 -9.589089e-03 -1.362178e-01) (6.240770e-03 -9.563247e-05 -2.284304e-03)) ((9.950347e-08 8.266575e-07 -3.128001e-08) (-4.361620e-06 -2.200421e-04 2.540920e-06))
4.757154      	((2.385792e-02 -1.083852e-02 -1.361094e-01) (6.239808e-03 -1.079369e-04 -2.280842e-03)) ((1.123434e-07 8.324073e-07 -3.486511e-08) (-4.931362e-06 -2.201148e-04 2.889211e-06))
4.839984      	((2.396786e-02 -1.223164e-02 -1.360346e-01) (6.239909e-03 -1.219060e-04 -2.277027e-03)) ((1.265630e-07 8.390693e-07 -3.836941e-08) (-5.573976e-06 -2.202306e-04 3.278168e-06))
4.922781      	((2.410407e-02 -1.378444e-02 -1.359751e-01) (6.241303e-03 -1.377985e-04 -2.272669e-03)) ((1.415427e-07 8.473543e-07 -4.244590e-08) (-6.296830e-06 -2.204041e-04 3.703116e-06))
5.005541      	((2.428960e-02 -1.549751e-02 -1.359689e-01) (6.244256e-03 -1.558201e-04 -2.267536e-03)) ((1.575221e-07 8.569099e-07 -4.692171e-08) (-7.109813e-06 -2.206537e-04 4.158581e-06))
5.088265      	((2.452474e-02 -1.739237e-02 -1.359987e-01) (6.249235e-03 -1.760915e-04 -2.261409e-03)) ((1.743981e-07 8.680980e-07 -5.168461e-08) (-8.022194e-06 -2.209988e-04 4.654700e-06))
5.170958      	((2.483286e-02 -1.950358e-02 -1.360876e-01) (6.256479e-03 -1.988423e-04 -2.254265e-03)) ((1.933639e-07 8.816286e-07 -5.662838e-08) (-9.042611e-06 -2.214491e-04 5.209452e-06))
5.253623      	((2.525050e-02 -2.181123e-02 -1.362594e-01) (6.266123e-03 -2.245175e-04 -2.246239e-03)) ((2.137887e-07 8.979210e-07 -6.145452e-08) (-1.018242e-05 -2.220107e-04 5.815777e-06))
5.336257      	((2.578847e-02 -2.429321e-02 -1.365289e-01) (6.278422e-03 -2.536188e-04 -2.237398e-03)) ((2.361539e-07 9.178457e-07 -6.550089e-08) (-1.144368e-05 -2.226934e-04 6.448884e-06))
5.418858      	((2.644554e-02 -2.695585e-02 -1.369014e-01) (6.294022e-03 -2.859698e-04 -2.227486e-03)) ((2.611218e-07 9.412491e-07 -6.849509e-08) (-1.282530e-05 -2.235287e-04 7.107051e-06))
5.501424      	((2.722668e-02 -2.979865e-02 -1.373360e-01) (6.313365e-03 -3.213009e-04 -2.216235e-03)) ((2.886316e-07 9.666161e-07 -7.022695e-08) (-1.432070e-05 -2.245444e-04 7.804798e-06))
5.583956      	((2.818992e-02 -3.276069e-02 -1.379050e-01) (6.337373e-03 -3.594000e-04 -2.203403e-03)) ((3.173353e-07 9.941195e-07 -7.121607e-08) (-1.592426e-05 -2.257668e-04 8.554956e-06))
5.666356      	((2.939731e-02 -3.584545e-02 -1.386534e-01) (6.366563e-03 -4.003586e-04 -2.189169e-03)) ((3.466935e-07 1.022307e-06 -7.378367e-08) (-1.764192e-05 -2.272104e-04 9.345781e-06))
5.748594      	((3.079049e-02 -3.887929e-02 -1.395362e-01) (6.400903e-03 -4.443624e-04 -2.173986e-03)) ((3.750010e-07 1.047757e-06 -7.772023e-08) (-1.946935e-05 -2.288640e-04 1.014194e-05))
5.830661      	((3.243428e-02 -4.170392e-02 -1.406442e-01) (6.440307e-03 -4.910079e-04 -2.157687e-03)) ((4.002232e-07 1.072245e-06 -8.278926e-08) (-2.136589e-05 -2.307246e-04 1.089926e-05))
5.912553      	((3.422858e-02 -4.420276e-02 -1.419660e-01) (6.484518e-03 -5.391476e-04 -2.140239e-03)) ((4.230912e-07 1.094567e-06 -8.732402e-08) (-2.327036e-05 -2.327831e-04 1.161474e-05))
5.994242      	((3.612639e-02 -4.622605e-02 -1.435105e-01) (6.534121e-03 -5.866344e-04 -2.122328e-03)) ((4.436323e-07 1.112496e-06 -9.170321e-08) (-2.513076e-05 -2.350035e-04 1.225593e-05))
6.075725      	((3.803281e-02 -4.764652e-02 -1.451764e-01) (6.588701e-03 -6.314600e-04 -2.104223e-03)) ((4.580854e-07 1.128123e-06 -9.629145e-08) (-2.688300e-05 -2.373409e-04 1.276748e-05))
6.157011      	((3.963832e-02 -4.829504e-02 -1.468083e-01) (6.645615e-03 -6.709424e-04 -2.085989e-03)) ((4.606238e-07 1.133255e-06 -1.010500e-07) (-2.842829e-05 -2.397266e-04 1.317022e-05))
6.238113      	((4.089718e-02 -4.812643e-02 -1.483621e-01) (6.701110e-03 -7.024772e-04 -2.068139e-03)) ((4.541391e-07 1.128051e-06 -1.032914e-07) (-2.967190e-05 -2.420608e-04 1.349500e-05))
6.319053      	((4.158377e-02 -4.702530e-02 -1.498182e-01) (6.751716e-03 -7.235151e-04 -2.051870e-03)) ((4.349382e-07 1.111869e-06 -1.023253e-07) (-3.052408e-05 -2.442118e-04 1.375592e-05))
6.39986       	((4.171005e-02 -4.492439e-02 -1.511180e-01) (6.794956e-03 -7.316799e-04 -2.037759e-03)) ((4.014520e-07 1.086254e-06 -9.957554e-08) (-3.086320e-05 -2.460678e-04 1.393165e-05))
6.480566      	((4.124959e-02 -4.177677e-02 -1.523167e-01) (6.830559e-03 -7.242053e-04 -2.025060e-03)) ((3.550958e-07 1.060468e-06 -9.661452e-08) (-3.056931e-05 -2.476149e-04 1.400575e-05))
6.561213      	((4.021523e-02 -3.764768e-02 -1.532717e-01) (6.858019e-03 -6.991315e-04 -2.013075e-03)) ((2.942803e-07 1.033199e-06 -8.732550e-08) (-2.956381e-05 -2.488606e-04 1.398186e-05))
6.641846      	((3.883888e-02 -3.306980e-02 -1.538905e-01) (6.878221e-03 -6.563357e-04 -2.001862e-03)) ((2.282367e-07 1.012810e-06 -6.861692e-08) (-2.786371e-05 -2.498310e-04 1.388432e-05))
6.722513      	((3.732699e-02 -2.836725e-02 -1.544492e-01) (6.892783e-03 -5.983698e-04 -1.991660e-03)) ((1.683462e-07 1.000017e-06 -4.294874e-08) (-2.561937e-05 -2.505918e-04 1.372897e-05))
6.803259      	((3.577727e-02 -2.404652e-02 -1.547616e-01) (6.903625e-03 -5.294237e-04 -1.983732e-03)) ((1.221765e-07 9.857578e-07 -1.760758e-08) (-2.304912e-05 -2.511890e-04 1.352335e-05))
6.884123      	((3.425952e-02 -2.064444e-02 -1.548976e-01) (6.913226e-03 -4.569271e-04 -1.978522e-03)) ((9.165137e-08 9.670567e-07 -3.705415e-09) (-2.040549e-05 -2.516848e-04 1.323930e-05))
6.965133      	((3.302408e-02 -1.822811e-02 -1.549306e-01) (6.922914e-03 -3.870746e-04 -1.974522e-03)) ((6.800659e-08 9.549227e-07 -5.098925e-09) (-1.787767e-05 -2.521789e-04 1.293221e-05))
7.046281      	((3.184873e-02 -1.699444e-02 -1.547269e-01) (6.933847e-03 -3.246834e-04 -1.970053e-03)) ((5.607379e-08 9.361044e-07 -1.989271e-08) (-1.560354e-05 -2.527579e-04 1.261910e-05))
7.127551      	((3.085580e-02 -1.659424e-02 -1.544916e-01) (6.945809e-03 -2.736925e-04 -1.966464e-03)) ((5.955270e-08 9.041460e-07 -3.343831e-08) (-1.370244e-05 -2.533669e-04 1.229187e-05))
