# Forces      
# CofR        : (0.000000e+00 0.000000e+00 0.000000e+00)
# Time        forces(pressure viscous)	moments(pressure viscous)
0             	((0.000000e+00 0.000000e+00 0.000000e+00) (4.423037e-09 1.085098e-11 4.785659e-04)) ((0.000000e+00 0.000000e+00 0.000000e+00) (-2.867403e-12 2.724533e-10 -6.641486e-15))
0.012         	((6.183198e-06 9.913239e-07 4.111047e-02) (-3.254024e-10 4.484859e-09 4.008060e-04)) ((5.559698e-11 4.098452e-08 -3.259945e-12) (1.338011e-10 -7.062470e-10 -3.894281e-12))
0.0264        	((8.753016e-07 -6.017561e-07 -4.272624e-03) (-4.772812e-09 1.156953e-08 3.058999e-04)) ((-1.612166e-11 -6.034782e-09 -2.066629e-11) (5.661834e-10 -5.824371e-10 1.259664e-12))
0.04368       	((-1.230282e-06 1.909153e-06 -9.375766e-03) (-1.089437e-08 2.093517e-08 2.126096e-04)) ((1.105547e-10 -1.577163e-08 1.472346e-11) (9.301167e-10 3.222939e-11 -3.711336e-11))
0.064416      	((4.265169e-07 -8.605441e-07 -1.985692e-04) (-1.579110e-08 1.435349e-08 1.550653e-04)) ((9.716543e-12 -4.071841e-10 -4.718131e-12) (7.465612e-10 -1.977184e-10 -1.132035e-10))
0.0892992     	((-5.293980e-07 -2.110339e-07 1.945615e-04) (-8.602467e-09 5.481645e-09 1.281785e-04)) ((-2.320471e-11 3.487480e-10 -3.048353e-12) (4.336546e-10 -6.578903e-10 -1.109740e-10))
0.119159      	((4.005548e-07 -2.484004e-07 -4.501657e-05) (1.046542e-10 7.361522e-09 1.093832e-04)) ((2.983132e-13 -3.329024e-10 -8.930384e-12) (4.455344e-10 -6.755444e-10 -1.169679e-10))
0.154991      	((-2.940474e-07 -2.448570e-07 -4.243208e-05) (9.232013e-10 1.035635e-08 9.397313e-05)) ((-9.169939e-12 -2.971450e-10 -4.129315e-12) (6.192109e-10 -4.994267e-10 -1.268536e-10))
0.197989      	((6.211971e-07 -1.233788e-07 -1.104102e-05) (4.933572e-09 1.323453e-08 8.205493e-05)) ((-6.313010e-12 -3.665464e-10 -3.527856e-12) (7.906894e-10 -6.983139e-10 -1.041302e-10))
0.249587      	((-1.946601e-07 -3.669512e-08 -9.580245e-07) (1.061402e-08 1.623401e-08 7.235875e-05)) ((-1.264180e-11 -3.542631e-10 -1.924030e-12) (1.003271e-09 -8.845072e-10 -1.028564e-10))
0.311504      	((6.545839e-07 -1.253455e-07 -1.492325e-06) (1.586341e-08 1.766203e-08 6.421010e-05)) ((-4.263171e-12 -3.142059e-10 -1.356375e-12) (1.102543e-09 -1.231890e-09 -9.103913e-11))
0.385805      	((-2.673691e-08 -4.926480e-08 2.060752e-06) (1.830013e-08 1.766168e-08 5.723661e-05)) ((-8.081373e-12 -3.076152e-10 -1.423183e-12) (1.127260e-09 -1.526223e-09 -7.560447e-11))
0.474966      	((3.351016e-07 -5.654026e-08 1.018768e-06) (2.080800e-08 1.690393e-08 5.121961e-05)) ((-3.535711e-12 -2.807925e-10 -4.880087e-13) (1.116980e-09 -1.787007e-09 -6.674139e-11))
0.581959      	((1.517569e-07 -2.236266e-08 2.093836e-06) (2.384476e-08 1.573948e-08 4.601485e-05)) ((-3.639135e-12 -2.595957e-10 -6.566661e-13) (1.049716e-09 -1.974682e-09 -5.820796e-11))
0.710351      	((2.244610e-07 -2.208573e-08 1.314377e-06) (2.465236e-08 1.523557e-08 4.155676e-05)) ((-2.555137e-12 -2.523036e-10 -1.167545e-13) (1.002275e-09 -1.938604e-09 -5.179150e-11))
0.864421      	((1.739172e-07 -9.634573e-09 1.653212e-06) (2.478111e-08 1.559275e-08 3.778990e-05)) ((-1.138996e-12 -2.377101e-10 5.852163e-14) (1.008585e-09 -1.844019e-09 -5.297772e-11))
1.049306      	((2.110378e-07 -1.413791e-08 1.049997e-06) (2.426070e-08 1.594913e-08 3.463950e-05)) ((-7.408827e-13 -2.267593e-10 3.182539e-13) (1.017904e-09 -1.739322e-09 -5.843309e-11))
1.271167      	((1.515167e-07 -5.602622e-09 8.832039e-07) (2.300658e-08 1.627605e-08 3.201099e-05)) ((-1.680644e-12 -2.114968e-10 2.652634e-14) (1.024063e-09 -1.640074e-09 -6.623906e-11))
1.5374        	((1.315751e-07 -7.884297e-09 2.098679e-07) (2.244680e-08 1.667571e-08 2.980459e-05)) ((-1.366248e-12 -2.043703e-10 -5.724204e-14) (1.034211e-09 -1.617519e-09 -6.911026e-11))
1.85688       	((1.164318e-07 -9.647424e-09 -2.347289e-08) (2.272815e-08 1.674215e-08 2.792785e-05)) ((-1.675820e-12 -1.940654e-10 -3.006963e-13) (1.047176e-09 -1.638958e-09 -6.789771e-11))
2.240256      	((9.830468e-08 -1.360664e-08 -5.038003e-07) (2.217979e-08 1.648015e-08 2.630191e-05)) ((-1.873887e-12 -1.891897e-10 -6.616128e-13) (1.058105e-09 -1.607704e-09 -6.727781e-11))
2.700307      	((9.619696e-08 -1.512317e-08 -9.947714e-07) (2.002628e-08 1.511677e-08 2.488447e-05)) ((-1.219290e-12 -1.838921e-10 -7.081799e-13) (9.921652e-10 -1.490256e-09 -6.171360e-11))
3.252369      	((7.797845e-08 -2.189439e-08 -1.483543e-06) (1.751078e-08 1.234255e-08 2.364046e-05)) ((-2.043987e-12 -1.819271e-10 -5.632366e-13) (8.477507e-10 -1.348035e-09 -5.638092e-11))
3.914842      	((6.489826e-08 -3.095480e-08 -1.869049e-06) (1.525104e-08 9.563707e-09 2.254071e-05)) ((-3.262940e-12 -1.793418e-10 -5.187708e-13) (7.234168e-10 -1.280008e-09 -6.011018e-11))
4.709811      	((5.968380e-08 -3.416635e-08 -2.170448e-06) (1.343464e-08 7.454118e-09 2.157098e-05)) ((-3.494518e-12 -1.808767e-10 -5.699889e-13) (6.512347e-10 -1.247923e-09 -4.946139e-11))
5.663773      	((4.996954e-08 -3.638496e-08 -2.409746e-06) (1.192010e-08 5.704641e-09 2.072642e-05)) ((-3.002694e-12 -1.841722e-10 -5.536589e-13) (6.039631e-10 -1.187416e-09 -3.794942e-11))
6.808528      	((4.889759e-08 -3.912323e-08 -2.623253e-06) (1.085541e-08 4.498622e-09 2.000260e-05)) ((-2.947829e-12 -1.870106e-10 -5.645313e-13) (5.732549e-10 -1.126685e-09 -2.798957e-11))
8.182233      	((4.799753e-08 -3.841963e-08 -2.768338e-06) (1.036811e-08 3.528330e-09 1.939163e-05)) ((-2.429866e-12 -1.895460e-10 -5.195954e-13) (5.514921e-10 -1.081748e-09 -1.691901e-11))
9.83068       	((5.099023e-08 -3.625771e-08 -2.855060e-06) (9.931279e-09 2.906082e-09 1.888340e-05)) ((-2.166744e-12 -1.896379e-10 -3.883796e-13) (5.446825e-10 -1.055219e-09 -5.930981e-12))
11.789802     	((4.888848e-08 -3.444587e-08 -2.888737e-06) (9.507726e-09 2.550859e-09 1.847227e-05)) ((-2.475764e-12 -1.906802e-10 -4.006728e-13) (5.518830e-10 -1.057298e-09 3.193479e-12))
14.064065     	((4.746718e-08 -3.672276e-08 -2.897981e-06) (9.068421e-09 2.249964e-09 1.815253e-05)) ((-2.611356e-12 -1.918412e-10 -5.320264e-13) (5.633345e-10 -1.070248e-09 1.056628e-11))
16.657556     	((4.260302e-08 -4.192469e-08 -2.888021e-06) (8.815437e-09 1.722119e-09 1.791919e-05)) ((-2.466372e-12 -1.936506e-10 -5.666311e-13) (5.645620e-10 -1.075551e-09 1.286934e-11))
19.570763     	((4.073929e-08 -4.517890e-08 -2.869883e-06) (8.459935e-09 9.668849e-10 1.776630e-05)) ((-2.177931e-12 -1.954344e-10 -6.406708e-13) (5.407573e-10 -1.071446e-09 1.494709e-11))
22.768764     	((4.211826e-08 -4.516829e-08 -2.841171e-06) (8.189420e-09 2.850607e-10 1.768505e-05)) ((-2.008820e-12 -1.971144e-10 -6.985251e-13) (4.978258e-10 -1.061225e-09 1.776474e-11))
25.962593     	((4.300790e-08 -4.369463e-08 -2.823520e-06) (8.138602e-09 -1.796202e-10 1.766434e-05)) ((-1.920488e-12 -1.989922e-10 -7.190913e-13) (4.574180e-10 -1.044547e-09 1.906026e-11))
29.146998     	((4.494468e-08 -4.217487e-08 -2.811071e-06) (8.216155e-09 -4.994906e-10 1.768934e-05)) ((-1.856322e-12 -2.010517e-10 -7.297949e-13) (4.209095e-10 -1.026283e-09 1.776366e-11))
32.317062     	((4.606601e-08 -4.130532e-08 -2.805335e-06) (8.304866e-09 -7.351314e-10 1.774746e-05)) ((-1.852300e-12 -2.031443e-10 -7.300925e-13) (3.879245e-10 -1.008127e-09 1.527486e-11))
35.468833     	((4.650110e-08 -4.139930e-08 -2.788335e-06) (8.433030e-09 -8.604554e-10 1.782388e-05)) ((-1.928119e-12 -2.048540e-10 -7.429513e-13) (3.634188e-10 -9.979013e-10 1.333913e-11))
38.6007       	((4.632786e-08 -4.251276e-08 -2.749658e-06) (8.626122e-09 -8.679636e-10 1.790350e-05)) ((-2.063050e-12 -2.058701e-10 -7.518540e-13) (3.521987e-10 -1.000832e-09 1.280451e-11))
41.714627     	((4.581156e-08 -4.306454e-08 -2.682951e-06) (8.849492e-09 -7.783925e-10 1.797304e-05)) ((-2.239181e-12 -2.060175e-10 -7.481377e-13) (3.561470e-10 -1.017949e-09 1.315624e-11))
44.816066     	((4.506358e-08 -4.322474e-08 -2.602967e-06) (9.060736e-09 -5.953461e-10 1.802421e-05)) ((-2.353509e-12 -2.054288e-10 -7.517506e-13) (3.753223e-10 -1.045732e-09 1.446935e-11))
47.912302     	((4.453458e-08 -4.379892e-08 -2.534706e-06) (9.211270e-09 -4.299644e-10 1.805498e-05)) ((-2.409880e-12 -2.044515e-10 -7.596166e-13) (3.998142e-10 -1.076413e-09 1.599352e-11))
51.00984      	((4.311708e-08 -4.456110e-08 -2.505717e-06) (9.226819e-09 -3.530959e-10 1.806921e-05)) ((-2.394889e-12 -2.035929e-10 -7.544738e-13) (4.203949e-10 -1.099869e-09 1.704628e-11))
54.111797     	((4.295618e-08 -4.477083e-08 -2.516663e-06) (9.198765e-09 -3.185929e-10 1.807348e-05)) ((-2.347975e-12 -2.031816e-10 -7.483236e-13) (4.362667e-10 -1.114311e-09 1.760311e-11))
57.217789     	((4.287034e-08 -4.467525e-08 -2.551296e-06) (9.180289e-09 -3.037752e-10 1.807377e-05)) ((-2.327061e-12 -2.032076e-10 -7.468029e-13) (4.467337e-10 -1.123297e-09 1.797627e-11))
60.325872     	((4.256401e-08 -4.496122e-08 -2.581182e-06) (9.174139e-09 -2.950474e-10 1.807337e-05)) ((-2.308334e-12 -2.033986e-10 -7.490133e-13) (4.530791e-10 -1.129176e-09 1.835362e-11))
63.434392     	((4.210276e-08 -4.530364e-08 -2.595836e-06) (9.166099e-09 -2.979255e-10 1.807323e-05)) ((-2.300023e-12 -2.035514e-10 -7.482036e-13) (4.565075e-10 -1.132500e-09 1.852417e-11))
66.54271      	((4.185839e-08 -4.548366e-08 -2.595945e-06) (9.147196e-09 -3.110766e-10 1.807320e-05)) ((-2.295954e-12 -2.035947e-10 -7.440144e-13) (4.579702e-10 -1.133535e-09 1.858381e-11))
69.650829     	((4.165415e-08 -4.565851e-08 -2.594064e-06) (9.126541e-09 -3.254785e-10 1.807330e-05)) ((-2.288158e-12 -2.035949e-10 -7.431055e-13) (4.584053e-10 -1.133279e-09 1.854263e-11))
72.758833     	((4.147462e-08 -4.581005e-08 -2.593220e-06) (9.107488e-09 -3.396211e-10 1.807363e-05)) ((-2.282550e-12 -2.035966e-10 -7.426929e-13) (4.581666e-10 -1.132349e-09 1.842786e-11))
75.866693     	((4.138437e-08 -4.591684e-08 -2.595446e-06) (9.091584e-09 -3.526933e-10 1.807427e-05)) ((-2.280733e-12 -2.036289e-10 -7.424350e-13) (4.576579e-10 -1.131302e-09 1.831805e-11))
78.974355     	((4.128704e-08 -4.600721e-08 -2.595355e-06) (9.077733e-09 -3.647598e-10 1.807508e-05)) ((-2.279256e-12 -2.036491e-10 -7.424113e-13) (4.570403e-10 -1.130332e-09 1.823643e-11))
82.081829     	((4.122323e-08 -4.606987e-08 -2.595416e-06) (9.064491e-09 -3.757753e-10 1.807590e-05)) ((-2.278382e-12 -2.036642e-10 -7.421878e-13) (4.564045e-10 -1.129441e-09 1.818202e-11))
85.189165     	((4.115393e-08 -4.612457e-08 -2.593897e-06) (9.052184e-09 -3.853326e-10 1.807659e-05)) ((-2.277610e-12 -2.036591e-10 -7.422056e-13) (4.558446e-10 -1.128649e-09 1.815529e-11))
88.29641      	((4.110715e-08 -4.617216e-08 -2.594228e-06) (9.041439e-09 -3.935250e-10 1.807718e-05)) ((-2.277182e-12 -2.036639e-10 -7.422048e-13) (4.553767e-10 -1.127982e-09 1.814430e-11))
91.403595     	((4.106430e-08 -4.621029e-08 -2.593384e-06) (9.032059e-09 -4.005955e-10 1.807762e-05)) ((-2.276951e-12 -2.036582e-10 -7.422406e-13) (4.549899e-10 -1.127416e-09 1.814625e-11))
94.510747     	((4.103580e-08 -4.624382e-08 -2.593972e-06) (9.024123e-09 -4.066868e-10 1.807794e-05)) ((-2.276598e-12 -2.036617e-10 -7.422354e-13) (4.546678e-10 -1.126956e-09 1.815241e-11))
97.617887     	((4.100340e-08 -4.627217e-08 -2.592979e-06) (9.017098e-09 -4.120503e-10 1.807813e-05)) ((-2.276381e-12 -2.036524e-10 -7.422299e-13) (4.543922e-10 -1.126557e-09 1.816336e-11))
100.72503     	((4.098633e-08 -4.629234e-08 -2.593644e-06) (9.011012e-09 -4.168567e-10 1.807825e-05)) ((-2.276394e-12 -2.036547e-10 -7.421958e-13) (4.541579e-10 -1.126223e-09 1.817359e-11))
103.832185    	((4.096499e-08 -4.630997e-08 -2.592865e-06) (9.005663e-09 -4.211240e-10 1.807830e-05)) ((-2.276312e-12 -2.036468e-10 -7.421890e-13) (4.539501e-10 -1.125925e-09 1.818458e-11))
106.93935     	((4.095276e-08 -4.632403e-08 -2.593716e-06) (9.001119e-09 -4.248654e-10 1.807834e-05)) ((-2.276292e-12 -2.036516e-10 -7.421564e-13) (4.537740e-10 -1.125681e-09 1.819157e-11))
110.046524    	((4.093692e-08 -4.633592e-08 -2.592984e-06) (8.997308e-09 -4.280735e-10 1.807833e-05)) ((-2.276182e-12 -2.036454e-10 -7.421629e-13) (4.536167e-10 -1.125466e-09 1.819826e-11))
113.153703    	((4.092429e-08 -4.634689e-08 -2.593851e-06) (8.994043e-09 -4.308663e-10 1.807835e-05)) ((-2.276141e-12 -2.036513e-10 -7.421158e-13) (4.534797e-10 -1.125284e-09 1.820110e-11))
116.260884    	((4.091664e-08 -4.635164e-08 -2.593128e-06) (8.991359e-09 -4.331561e-10 1.807834e-05)) ((-2.276019e-12 -2.036460e-10 -7.421287e-13) (4.533605e-10 -1.125124e-09 1.820374e-11))
119.368065    	((4.091168e-08 -4.635547e-08 -2.593966e-06) (8.989194e-09 -4.350052e-10 1.807836e-05)) ((-2.275993e-12 -2.036521e-10 -7.420879e-13) (4.532659e-10 -1.125001e-09 1.820401e-11))
122.475244    	((4.090716e-08 -4.635835e-08 -2.593178e-06) (8.987513e-09 -4.364464e-10 1.807835e-05)) ((-2.275884e-12 -2.036463e-10 -7.420857e-13) (4.531860e-10 -1.124894e-09 1.820509e-11))
125.582423    	((4.090752e-08 -4.635900e-08 -2.593984e-06) (8.986107e-09 -4.376032e-10 1.807837e-05)) ((-2.276050e-12 -2.036521e-10 -7.420558e-13) (4.531238e-10 -1.124812e-09 1.820416e-11))
128.6896      	((4.090334e-08 -4.636143e-08 -2.593164e-06) (8.984995e-09 -4.385077e-10 1.807836e-05)) ((-2.275948e-12 -2.036461e-10 -7.420636e-13) (4.530700e-10 -1.124737e-09 1.820491e-11))
131.796778    	((4.090287e-08 -4.636225e-08 -2.593979e-06) (8.984100e-09 -4.392102e-10 1.807837e-05)) ((-2.276080e-12 -2.036520e-10 -7.420352e-13) (4.530309e-10 -1.124685e-09 1.820398e-11))
134.903954    	((4.089921e-08 -4.636411e-08 -2.593149e-06) (8.983405e-09 -4.397490e-10 1.807836e-05)) ((-2.275969e-12 -2.036460e-10 -7.420488e-13) (4.529968e-10 -1.124635e-09 1.820484e-11))
138.01113     	((4.089879e-08 -4.636474e-08 -2.593972e-06) (8.982829e-09 -4.401745e-10 1.807838e-05)) ((-2.276077e-12 -2.036520e-10 -7.420241e-13) (4.529732e-10 -1.124602e-09 1.820402e-11))
141.118306    	((4.089605e-08 -4.636584e-08 -2.593134e-06) (8.982404e-09 -4.404884e-10 1.807837e-05)) ((-2.275975e-12 -2.036459e-10 -7.420376e-13) (4.529522e-10 -1.124569e-09 1.820498e-11))
144.225482    	((4.089597e-08 -4.636620e-08 -2.593967e-06) (8.982028e-09 -4.407430e-10 1.807838e-05)) ((-2.276071e-12 -2.036520e-10 -7.420162e-13) (4.529387e-10 -1.124550e-09 1.820423e-11))
147.332658    	((4.089382e-08 -4.636680e-08 -2.593124e-06) (8.981774e-09 -4.409213e-10 1.807837e-05)) ((-2.275975e-12 -2.036459e-10 -7.420297e-13) (4.529257e-10 -1.124528e-09 1.820519e-11))
150.439834    	((4.089415e-08 -4.636705e-08 -2.593964e-06) (8.981526e-09 -4.410710e-10 1.807839e-05)) ((-2.276065e-12 -2.036520e-10 -7.420094e-13) (4.529185e-10 -1.124517e-09 1.820443e-11))
153.54701     	((4.089252e-08 -4.636726e-08 -2.593120e-06) (8.981376e-09 -4.411669e-10 1.807837e-05)) ((-2.275967e-12 -2.036458e-10 -7.420244e-13) (4.529104e-10 -1.124501e-09 1.820537e-11))
156.654186    	((4.089344e-08 -4.636732e-08 -2.593968e-06) (8.981209e-09 -4.412538e-10 1.807839e-05)) ((-2.276058e-12 -2.036520e-10 -7.420048e-13) (4.529069e-10 -1.124496e-09 1.820458e-11))
159.761362    	((4.089219e-08 -4.636724e-08 -2.593121e-06) (8.981121e-09 -4.413015e-10 1.807837e-05)) ((-2.275964e-12 -2.036458e-10 -7.420210e-13) (4.529017e-10 -1.124485e-09 1.820550e-11))
162.868538    	((4.089337e-08 -4.636724e-08 -2.593973e-06) (8.981004e-09 -4.413536e-10 1.807839e-05)) ((-2.276062e-12 -2.036520e-10 -7.420021e-13) (4.529004e-10 -1.124482e-09 1.820468e-11))
165.975714    	((4.089216e-08 -4.636712e-08 -2.593122e-06) (8.980954e-09 -4.413753e-10 1.807837e-05)) ((-2.275970e-12 -2.036458e-10 -7.420189e-13) (4.528968e-10 -1.124473e-09 1.820558e-11))
169.08289     	((4.089329e-08 -4.636725e-08 -2.593977e-06) (8.980866e-09 -4.414094e-10 1.807839e-05)) ((-2.276068e-12 -2.036520e-10 -7.420003e-13) (4.528967e-10 -1.124472e-09 1.820474e-11))
172.190066    	((4.089197e-08 -4.636715e-08 -2.593121e-06) (8.980841e-09 -4.414170e-10 1.807837e-05)) ((-2.275975e-12 -2.036458e-10 -7.420173e-13) (4.528940e-10 -1.124465e-09 1.820563e-11))
175.297243    	((4.089303e-08 -4.636738e-08 -2.593980e-06) (8.980772e-09 -4.414415e-10 1.807839e-05)) ((-2.276070e-12 -2.036520e-10 -7.419989e-13) (4.528945e-10 -1.124466e-09 1.820477e-11))
178.404419    	((4.089171e-08 -4.636724e-08 -2.593120e-06) (8.980764e-09 -4.414413e-10 1.807837e-05)) ((-2.275974e-12 -2.036457e-10 -7.420162e-13) (4.528924e-10 -1.124460e-09 1.820566e-11))
181.511595    	((4.089278e-08 -4.636748e-08 -2.593982e-06) (8.980708e-09 -4.414605e-10 1.807839e-05)) ((-2.276068e-12 -2.036520e-10 -7.419979e-13) (4.528933e-10 -1.124462e-09 1.820479e-11))
184.618771    	((4.089152e-08 -4.636727e-08 -2.593119e-06) (8.980712e-09 -4.414557e-10 1.807838e-05)) ((-2.275972e-12 -2.036457e-10 -7.420154e-13) (4.528915e-10 -1.124457e-09 1.820568e-11))
187.725947    	((4.089262e-08 -4.636753e-08 -2.593985e-06) (8.980665e-09 -4.414722e-10 1.807839e-05)) ((-2.276067e-12 -2.036520e-10 -7.419971e-13) (4.528927e-10 -1.124459e-09 1.820481e-11))
190.833123    	((4.089143e-08 -4.636727e-08 -2.593118e-06) (8.980676e-09 -4.414646e-10 1.807838e-05)) ((-2.275971e-12 -2.036457e-10 -7.420148e-13) (4.528910e-10 -1.124454e-09 1.820569e-11))
193.940299    	((4.089254e-08 -4.636756e-08 -2.593987e-06) (8.980636e-09 -4.414798e-10 1.807839e-05)) ((-2.276067e-12 -2.036521e-10 -7.419966e-13) (4.528923e-10 -1.124457e-09 1.820482e-11))
197.047475    	((4.089138e-08 -4.636727e-08 -2.593117e-06) (8.980652e-09 -4.414705e-10 1.807838e-05)) ((-2.275971e-12 -2.036457e-10 -7.420144e-13) (4.528908e-10 -1.124453e-09 1.820571e-11))
200.154651    	((4.089247e-08 -4.636760e-08 -2.593989e-06) (8.980615e-09 -4.414850e-10 1.807839e-05)) ((-2.276066e-12 -2.036521e-10 -7.419962e-13) (4.528921e-10 -1.124456e-09 1.820482e-11))
203.261827    	((4.089134e-08 -4.636727e-08 -2.593116e-06) (8.980635e-09 -4.414746e-10 1.807838e-05)) ((-2.275971e-12 -2.036457e-10 -7.420142e-13) (4.528906e-10 -1.124452e-09 1.820571e-11))
206.369004    	((4.089242e-08 -4.636763e-08 -2.593991e-06) (8.980600e-09 -4.414889e-10 1.807839e-05)) ((-2.276066e-12 -2.036521e-10 -7.419959e-13) (4.528920e-10 -1.124455e-09 1.820483e-11))
209.47618     	((4.089130e-08 -4.636727e-08 -2.593116e-06) (8.980623e-09 -4.414778e-10 1.807838e-05)) ((-2.275970e-12 -2.036457e-10 -7.420140e-13) (4.528905e-10 -1.124451e-09 1.820572e-11))
212.583356    	((4.089238e-08 -4.636766e-08 -2.593993e-06) (8.980590e-09 -4.414921e-10 1.807839e-05)) ((-2.276066e-12 -2.036521e-10 -7.419957e-13) (4.528919e-10 -1.124454e-09 1.820483e-11))
215.690532    	((4.089128e-08 -4.636728e-08 -2.593115e-06) (8.980614e-09 -4.414807e-10 1.807838e-05)) ((-2.275970e-12 -2.036457e-10 -7.420139e-13) (4.528905e-10 -1.124450e-09 1.820573e-11))
218.797708    	((4.089234e-08 -4.636769e-08 -2.593994e-06) (8.980583e-09 -4.414950e-10 1.807839e-05)) ((-2.276066e-12 -2.036521e-10 -7.419955e-13) (4.528919e-10 -1.124454e-09 1.820484e-11))
221.904884    	((4.089127e-08 -4.636729e-08 -2.593115e-06) (8.980608e-09 -4.414832e-10 1.807838e-05)) ((-2.275970e-12 -2.036457e-10 -7.420138e-13) (4.528904e-10 -1.124450e-09 1.820573e-11))
225.01206     	((4.089232e-08 -4.636772e-08 -2.593996e-06) (8.980577e-09 -4.414978e-10 1.807839e-05)) ((-2.276065e-12 -2.036521e-10 -7.419954e-13) (4.528918e-10 -1.124453e-09 1.820484e-11))
228.119236    	((4.089126e-08 -4.636729e-08 -2.593114e-06) (8.980604e-09 -4.414857e-10 1.807838e-05)) ((-2.275969e-12 -2.036457e-10 -7.420137e-13) (4.528903e-10 -1.124450e-09 1.820573e-11))
231.226412    	((4.089230e-08 -4.636775e-08 -2.593997e-06) (8.980573e-09 -4.415003e-10 1.807839e-05)) ((-2.276065e-12 -2.036521e-10 -7.419953e-13) (4.528917e-10 -1.124453e-09 1.820484e-11))
234.333588    	((4.089125e-08 -4.636730e-08 -2.593114e-06) (8.980601e-09 -4.414879e-10 1.807838e-05)) ((-2.275969e-12 -2.036457e-10 -7.420137e-13) (4.528903e-10 -1.124450e-09 1.820574e-11))
237.440764    	((4.089228e-08 -4.636777e-08 -2.593998e-06) (8.980570e-09 -4.415028e-10 1.807839e-05)) ((-2.276065e-12 -2.036521e-10 -7.419952e-13) (4.528917e-10 -1.124453e-09 1.820484e-11))
240.54794     	((4.089125e-08 -4.636731e-08 -2.593113e-06) (8.980598e-09 -4.414901e-10 1.807838e-05)) ((-2.275969e-12 -2.036457e-10 -7.420136e-13) (4.528902e-10 -1.124449e-09 1.820574e-11))
243.655116    	((4.089227e-08 -4.636780e-08 -2.593999e-06) (8.980568e-09 -4.415051e-10 1.807839e-05)) ((-2.276065e-12 -2.036522e-10 -7.419952e-13) (4.528916e-10 -1.124453e-09 1.820484e-11))
246.762292    	((4.089124e-08 -4.636731e-08 -2.593113e-06) (8.980597e-09 -4.414923e-10 1.807838e-05)) ((-2.275969e-12 -2.036457e-10 -7.420136e-13) (4.528902e-10 -1.124449e-09 1.820574e-11))
249.869468    	((4.089225e-08 -4.636782e-08 -2.594000e-06) (8.980567e-09 -4.415073e-10 1.807839e-05)) ((-2.276065e-12 -2.036522e-10 -7.419951e-13) (4.528915e-10 -1.124453e-09 1.820484e-11))
252.976643    	((4.089124e-08 -4.636732e-08 -2.593113e-06) (8.980595e-09 -4.414943e-10 1.807838e-05)) ((-2.275969e-12 -2.036457e-10 -7.420136e-13) (4.528901e-10 -1.124449e-09 1.820574e-11))
256.08382     	((4.089224e-08 -4.636784e-08 -2.594001e-06) (8.980565e-09 -4.415094e-10 1.807839e-05)) ((-2.276065e-12 -2.036522e-10 -7.419951e-13) (4.528915e-10 -1.124453e-09 1.820484e-11))
259.190995    	((4.089124e-08 -4.636733e-08 -2.593113e-06) (8.980594e-09 -4.414962e-10 1.807838e-05)) ((-2.275969e-12 -2.036457e-10 -7.420136e-13) (4.528900e-10 -1.124449e-09 1.820574e-11))
262.298171    	((4.089223e-08 -4.636785e-08 -2.594001e-06) (8.980564e-09 -4.415114e-10 1.807839e-05)) ((-2.276065e-12 -2.036522e-10 -7.419950e-13) (4.528914e-10 -1.124453e-09 1.820484e-11))
265.405347    	((4.089124e-08 -4.636733e-08 -2.593112e-06) (8.980593e-09 -4.414980e-10 1.807838e-05)) ((-2.275969e-12 -2.036457e-10 -7.420136e-13) (4.528900e-10 -1.124449e-09 1.820574e-11))
268.512523    	((4.089223e-08 -4.636787e-08 -2.594002e-06) (8.980564e-09 -4.415132e-10 1.807839e-05)) ((-2.276065e-12 -2.036522e-10 -7.419950e-13) (4.528913e-10 -1.124453e-09 1.820484e-11))
271.619699    	((4.089124e-08 -4.636734e-08 -2.593112e-06) (8.980593e-09 -4.414996e-10 1.807838e-05)) ((-2.275969e-12 -2.036457e-10 -7.420135e-13) (4.528899e-10 -1.124449e-09 1.820574e-11))
274.726875    	((4.089222e-08 -4.636789e-08 -2.594002e-06) (8.980563e-09 -4.415149e-10 1.807839e-05)) ((-2.276065e-12 -2.036522e-10 -7.419950e-13) (4.528913e-10 -1.124453e-09 1.820484e-11))
277.834051    	((4.089124e-08 -4.636734e-08 -2.593112e-06) (8.980592e-09 -4.415012e-10 1.807838e-05)) ((-2.275969e-12 -2.036457e-10 -7.420135e-13) (4.528898e-10 -1.124449e-09 1.820574e-11))
280.941227    	((4.089221e-08 -4.636790e-08 -2.594003e-06) (8.980562e-09 -4.415165e-10 1.807839e-05)) ((-2.276065e-12 -2.036522e-10 -7.419949e-13) (4.528912e-10 -1.124453e-09 1.820484e-11))
284.048403    	((4.089124e-08 -4.636735e-08 -2.593112e-06) (8.980592e-09 -4.415026e-10 1.807838e-05)) ((-2.275969e-12 -2.036457e-10 -7.420135e-13) (4.528898e-10 -1.124449e-09 1.820574e-11))
287.155579    	((4.089221e-08 -4.636791e-08 -2.594003e-06) (8.980562e-09 -4.415180e-10 1.807839e-05)) ((-2.276065e-12 -2.036522e-10 -7.419949e-13) (4.528912e-10 -1.124453e-09 1.820484e-11))
290.262755    	((4.089124e-08 -4.636735e-08 -2.593112e-06) (8.980591e-09 -4.415040e-10 1.807838e-05)) ((-2.275969e-12 -2.036457e-10 -7.420135e-13) (4.528897e-10 -1.124449e-09 1.820574e-11))
293.369931    	((4.089220e-08 -4.636792e-08 -2.594004e-06) (8.980561e-09 -4.415193e-10 1.807839e-05)) ((-2.276065e-12 -2.036522e-10 -7.419949e-13) (4.528911e-10 -1.124453e-09 1.820484e-11))
296.477106    	((4.089124e-08 -4.636736e-08 -2.593112e-06) (8.980591e-09 -4.415052e-10 1.807838e-05)) ((-2.275969e-12 -2.036457e-10 -7.420135e-13) (4.528897e-10 -1.124449e-09 1.820575e-11))
299.584282    	((4.089220e-08 -4.636793e-08 -2.594004e-06) (8.980561e-09 -4.415205e-10 1.807839e-05)) ((-2.276065e-12 -2.036522e-10 -7.419949e-13) (4.528911e-10 -1.124453e-09 1.820484e-11))
302.691458    	((4.089124e-08 -4.636736e-08 -2.593111e-06) (8.980591e-09 -4.415063e-10 1.807838e-05)) ((-2.275969e-12 -2.036457e-10 -7.420135e-13) (4.528897e-10 -1.124449e-09 1.820575e-11))
305.798634    	((4.089219e-08 -4.636794e-08 -2.594005e-06) (8.980561e-09 -4.415217e-10 1.807839e-05)) ((-2.276065e-12 -2.036522e-10 -7.419949e-13) (4.528910e-10 -1.124453e-09 1.820484e-11))
308.90581     	((4.089124e-08 -4.636736e-08 -2.593111e-06) (8.980591e-09 -4.415073e-10 1.807838e-05)) ((-2.275969e-12 -2.036457e-10 -7.420135e-13) (4.528896e-10 -1.124449e-09 1.820575e-11))
312.012986    	((4.089219e-08 -4.636795e-08 -2.594005e-06) (8.980560e-09 -4.415227e-10 1.807839e-05)) ((-2.276065e-12 -2.036522e-10 -7.419949e-13) (4.528910e-10 -1.124453e-09 1.820484e-11))
315.120162    	((4.089124e-08 -4.636737e-08 -2.593111e-06) (8.980590e-09 -4.415082e-10 1.807838e-05)) ((-2.275969e-12 -2.036457e-10 -7.420135e-13) (4.528896e-10 -1.124449e-09 1.820575e-11))
318.227338    	((4.089219e-08 -4.636796e-08 -2.594005e-06) (8.980560e-09 -4.415236e-10 1.807839e-05)) ((-2.276065e-12 -2.036522e-10 -7.419948e-13) (4.528910e-10 -1.124453e-09 1.820484e-11))
321.334514    	((4.089124e-08 -4.636737e-08 -2.593111e-06) (8.980590e-09 -4.415091e-10 1.807838e-05)) ((-2.275969e-12 -2.036457e-10 -7.420135e-13) (4.528896e-10 -1.124449e-09 1.820575e-11))
324.44169     	((4.089218e-08 -4.636797e-08 -2.594005e-06) (8.980560e-09 -4.415245e-10 1.807839e-05)) ((-2.276065e-12 -2.036522e-10 -7.419948e-13) (4.528909e-10 -1.124453e-09 1.820484e-11))
327.548865    	((4.089124e-08 -4.636737e-08 -2.593111e-06) (8.980590e-09 -4.415098e-10 1.807838e-05)) ((-2.275969e-12 -2.036457e-10 -7.420135e-13) (4.528895e-10 -1.124449e-09 1.820575e-11))
330.656041    	((4.089218e-08 -4.636797e-08 -2.594006e-06) (8.980560e-09 -4.415252e-10 1.807839e-05)) ((-2.276065e-12 -2.036522e-10 -7.419948e-13) (4.528909e-10 -1.124453e-09 1.820484e-11))
333.763217    	((4.089124e-08 -4.636737e-08 -2.593111e-06) (8.980590e-09 -4.415105e-10 1.807838e-05)) ((-2.275969e-12 -2.036457e-10 -7.420135e-13) (4.528895e-10 -1.124449e-09 1.820575e-11))
336.870393    	((4.089218e-08 -4.636798e-08 -2.594006e-06) (8.980559e-09 -4.415259e-10 1.807839e-05)) ((-2.276065e-12 -2.036522e-10 -7.419948e-13) (4.528909e-10 -1.124453e-09 1.820484e-11))
339.977569    	((4.089124e-08 -4.636738e-08 -2.593111e-06) (8.980590e-09 -4.415111e-10 1.807838e-05)) ((-2.275969e-12 -2.036457e-10 -7.420135e-13) (4.528895e-10 -1.124449e-09 1.820575e-11))
343.084745    	((4.089218e-08 -4.636798e-08 -2.594006e-06) (8.980559e-09 -4.415266e-10 1.807839e-05)) ((-2.276065e-12 -2.036522e-10 -7.419948e-13) (4.528908e-10 -1.124453e-09 1.820484e-11))
346.191921    	((4.089124e-08 -4.636738e-08 -2.593111e-06) (8.980590e-09 -4.415117e-10 1.807838e-05)) ((-2.275969e-12 -2.036457e-10 -7.420135e-13) (4.528895e-10 -1.124449e-09 1.820575e-11))
349.299097    	((4.089217e-08 -4.636799e-08 -2.594006e-06) (8.980559e-09 -4.415271e-10 1.807839e-05)) ((-2.276065e-12 -2.036522e-10 -7.419948e-13) (4.528908e-10 -1.124453e-09 1.820484e-11))
352.406272    	((4.089124e-08 -4.636738e-08 -2.593111e-06) (8.980589e-09 -4.415122e-10 1.807838e-05)) ((-2.275969e-12 -2.036457e-10 -7.420135e-13) (4.528894e-10 -1.124449e-09 1.820575e-11))
355.513448    	((4.089217e-08 -4.636799e-08 -2.594006e-06) (8.980559e-09 -4.415277e-10 1.807839e-05)) ((-2.276065e-12 -2.036522e-10 -7.419948e-13) (4.528908e-10 -1.124453e-09 1.820484e-11))
358.620624    	((4.089124e-08 -4.636738e-08 -2.593111e-06) (8.980589e-09 -4.415127e-10 1.807838e-05)) ((-2.275969e-12 -2.036457e-10 -7.420135e-13) (4.528894e-10 -1.124449e-09 1.820575e-11))
361.7278      	((4.089217e-08 -4.636800e-08 -2.594007e-06) (8.980559e-09 -4.415281e-10 1.807839e-05)) ((-2.276065e-12 -2.036522e-10 -7.419948e-13) (4.528908e-10 -1.124453e-09 1.820484e-11))
364.834976    	((4.089124e-08 -4.636738e-08 -2.593111e-06) (8.980589e-09 -4.415131e-10 1.807838e-05)) ((-2.275969e-12 -2.036457e-10 -7.420135e-13) (4.528894e-10 -1.124449e-09 1.820575e-11))
367.942152    	((4.089217e-08 -4.636800e-08 -2.594007e-06) (8.980559e-09 -4.415285e-10 1.807839e-05)) ((-2.276065e-12 -2.036522e-10 -7.419948e-13) (4.528908e-10 -1.124453e-09 1.820484e-11))
371.049328    	((4.089124e-08 -4.636738e-08 -2.593111e-06) (8.980589e-09 -4.415135e-10 1.807838e-05)) ((-2.275969e-12 -2.036457e-10 -7.420135e-13) (4.528894e-10 -1.124449e-09 1.820575e-11))
374.156504    	((4.089217e-08 -4.636800e-08 -2.594007e-06) (8.980559e-09 -4.415289e-10 1.807839e-05)) ((-2.276065e-12 -2.036522e-10 -7.419948e-13) (4.528908e-10 -1.124453e-09 1.820484e-11))
377.263679    	((4.089124e-08 -4.636739e-08 -2.593111e-06) (8.980589e-09 -4.415138e-10 1.807838e-05)) ((-2.275969e-12 -2.036457e-10 -7.420135e-13) (4.528894e-10 -1.124449e-09 1.820575e-11))
380.370855    	((4.089217e-08 -4.636801e-08 -2.594007e-06) (8.980559e-09 -4.415293e-10 1.807839e-05)) ((-2.276065e-12 -2.036522e-10 -7.419948e-13) (4.528907e-10 -1.124453e-09 1.820484e-11))
383.478031    	((4.089124e-08 -4.636739e-08 -2.593111e-06) (8.980589e-09 -4.415142e-10 1.807838e-05)) ((-2.275969e-12 -2.036457e-10 -7.420135e-13) (4.528894e-10 -1.124449e-09 1.820575e-11))
386.585207    	((4.089217e-08 -4.636801e-08 -2.594007e-06) (8.980558e-09 -4.415296e-10 1.807839e-05)) ((-2.276065e-12 -2.036522e-10 -7.419948e-13) (4.528907e-10 -1.124453e-09 1.820484e-11))
389.692383    	((4.089124e-08 -4.636739e-08 -2.593111e-06) (8.980589e-09 -4.415144e-10 1.807838e-05)) ((-2.275969e-12 -2.036457e-10 -7.420135e-13) (4.528893e-10 -1.124449e-09 1.820575e-11))
392.799559    	((4.089216e-08 -4.636801e-08 -2.594007e-06) (8.980558e-09 -4.415299e-10 1.807839e-05)) ((-2.276065e-12 -2.036522e-10 -7.419948e-13) (4.528907e-10 -1.124453e-09 1.820484e-11))
395.906735    	((4.089124e-08 -4.636739e-08 -2.593111e-06) (8.980589e-09 -4.415147e-10 1.807838e-05)) ((-2.275969e-12 -2.036457e-10 -7.420135e-13) (4.528893e-10 -1.124449e-09 1.820575e-11))
399.013911    	((4.089216e-08 -4.636801e-08 -2.594007e-06) (8.980558e-09 -4.415301e-10 1.807839e-05)) ((-2.276065e-12 -2.036522e-10 -7.419948e-13) (4.528907e-10 -1.124453e-09 1.820484e-11))
402.121086    	((4.089124e-08 -4.636739e-08 -2.593110e-06) (8.980589e-09 -4.415149e-10 1.807838e-05)) ((-2.275969e-12 -2.036457e-10 -7.420135e-13) (4.528893e-10 -1.124449e-09 1.820575e-11))
405.228262    	((4.089216e-08 -4.636802e-08 -2.594007e-06) (8.980558e-09 -4.415304e-10 1.807839e-05)) ((-2.276065e-12 -2.036522e-10 -7.419948e-13) (4.528907e-10 -1.124453e-09 1.820484e-11))