# Forces      
# CofR        : (0.000000e+00 0.000000e+00 0.000000e+00)
# Time        forces(pressure viscous)	moments(pressure viscous)
0             	((0.000000e+00 0.000000e+00 0.000000e+00) (-1.216234e-12 3.991513e-03 3.724991e-13)) ((0.000000e+00 0.000000e+00 0.000000e+00) (8.968478e-05 -1.318728e-14 -1.721151e-09))
0.012         	((4.381767e-06 1.173066e+00 2.653875e-01) (1.814104e-09 4.920137e-03 -1.324262e-04)) ((-1.369354e-05 1.009024e-06 -2.111609e-07) (1.464185e-04 -1.431511e-10 -1.685913e-09))
0.0264        	((-6.799109e-05 -2.457095e-01 -9.165439e-02) (-3.716023e-08 4.899392e-03 -2.018607e-04)) ((2.704849e-06 -1.566846e-07 2.070748e-08) (1.618312e-04 1.031320e-09 2.348894e-09))
0.04368       	((6.730387e-05 -1.446001e-01 -5.819217e-02) (-6.846975e-09 4.176859e-03 -1.997790e-04)) ((2.227155e-06 -8.189743e-08 5.630885e-08) (1.413966e-04 -1.457928e-10 8.722465e-09))
0.064416      	((-6.738003e-06 -8.100513e-05 -4.112721e-02) (-8.865548e-08 3.685302e-03 -2.217725e-04)) ((5.623956e-08 -2.228332e-08 -8.350553e-09) (1.285469e-04 -2.455427e-09 1.194587e-08))
0.0892992     	((-1.981258e-05 -1.020967e-03 -3.492459e-02) (-7.869729e-07 3.389827e-03 -2.545851e-04)) ((9.134821e-08 -2.478455e-09 2.674738e-09) (1.208252e-04 -1.239402e-09 1.296472e-08))
0.119159      	((-2.072920e-05 -1.555299e-04 -3.203777e-02) (-1.130718e-06 3.144322e-03 -2.783911e-04)) ((1.086686e-07 5.645434e-09 2.461734e-09) (1.132896e-04 2.816137e-09 1.751093e-08))
0.154991      	((-1.715976e-05 1.016666e-03 -3.029423e-02) (-1.272726e-06 2.935247e-03 -2.943075e-04)) ((8.150644e-08 8.124791e-09 1.939205e-09) (1.064555e-04 6.808635e-09 2.124101e-08))
0.197989      	((-1.499474e-05 1.453458e-03 -2.928022e-02) (-1.505957e-06 2.763914e-03 -3.080143e-04)) ((7.351583e-08 1.088604e-08 -2.011520e-09) (1.005248e-04 7.163562e-09 2.300091e-08))
0.249587      	((-8.825278e-06 1.705339e-03 -2.863577e-02) (-1.383418e-06 2.620902e-03 -3.243688e-04)) ((6.003833e-08 1.298675e-08 -3.439827e-09) (9.531788e-05 5.885329e-09 2.859778e-08))
0.311504      	((-5.853843e-06 1.875209e-03 -2.825548e-02) (-1.243175e-06 2.492676e-03 -3.472671e-04)) ((4.362693e-08 1.379788e-08 -2.509787e-09) (9.052249e-05 5.131136e-09 3.440746e-08))
0.385805      	((-5.481191e-06 2.040682e-03 -2.795900e-02) (-1.207130e-06 2.372048e-03 -3.778043e-04)) ((2.679180e-08 1.365471e-08 -3.230166e-09) (8.593605e-05 4.511694e-09 3.519857e-08))
0.474966      	((-4.012491e-06 2.248561e-03 -2.770855e-02) (-1.061582e-06 2.257561e-03 -4.143070e-04)) ((9.602467e-09 1.318864e-08 -4.918527e-09) (8.151319e-05 3.449364e-09 3.487311e-08))
0.581959      	((-2.373092e-06 2.526885e-03 -2.745363e-02) (-8.255468e-07 2.150841e-03 -4.548831e-04)) ((-8.919352e-09 1.297957e-08 -6.561766e-09) (7.731374e-05 1.821158e-09 3.740521e-08))
0.709884      	((-5.305645e-07 2.895700e-03 -2.718955e-02) (-5.849114e-07 2.054361e-03 -4.972717e-04)) ((-2.862179e-08 1.275448e-08 -8.157968e-09) (7.344909e-05 -3.948378e-10 4.146525e-08))
0.858631      	((1.770211e-06 3.368938e-03 -2.691989e-02) (-3.312329e-07 1.970416e-03 -5.385628e-04)) ((-4.983144e-08 1.172905e-08 -1.021806e-08) (7.004770e-05 -1.650398e-09 4.622756e-08))
1.028054      	((4.182216e-06 3.934562e-03 -2.664785e-02) (-5.878386e-08 1.899154e-03 -5.770692e-04)) ((-7.054791e-08 1.009214e-08 -1.277205e-08) (6.714842e-05 -2.188480e-09 5.306886e-08))
1.217989      	((6.606793e-06 4.593328e-03 -2.635337e-02) (1.962151e-07 1.840607e-03 -6.108357e-04)) ((-8.913774e-08 8.354504e-09 -1.552065e-08) (6.475720e-05 -2.813811e-09 6.271010e-08))
1.421131      	((9.476596e-06 5.290962e-03 -2.601397e-02) (4.032869e-07 1.794587e-03 -6.382056e-04)) ((-1.039442e-07 6.571754e-09 -1.818448e-08) (6.281818e-05 -4.921965e-09 7.626750e-08))
1.62194       	((1.181179e-05 5.970854e-03 -2.560853e-02) (4.378060e-07 1.756798e-03 -6.580323e-04)) ((-1.154758e-07 4.854268e-09 -2.028534e-08) (6.119753e-05 -8.293670e-09 9.075296e-08))
1.820544      	((1.367796e-05 6.579822e-03 -2.514815e-02) (4.196103e-07 1.722885e-03 -6.710694e-04)) ((-1.257385e-07 2.693857e-09 -2.211420e-08) (5.978542e-05 -1.237339e-08 1.003161e-07))
2.017517      	((1.536928e-05 7.103042e-03 -2.466189e-02) (4.495434e-07 1.693089e-03 -6.776203e-04)) ((-1.368769e-07 4.219743e-10 -2.369825e-08) (5.862010e-05 -1.640967e-08 1.097588e-07))
2.214067      	((1.631026e-05 7.484056e-03 -2.415468e-02) (4.380687e-07 1.667074e-03 -6.794774e-04)) ((-1.473054e-07 -1.773116e-09 -2.545816e-08) (5.768752e-05 -1.847041e-08 1.206029e-07))
2.410939      	((1.775929e-05 7.739696e-03 -2.366828e-02) (3.599992e-07 1.643501e-03 -6.795523e-04)) ((-1.575155e-07 -3.839877e-09 -2.724924e-08) (5.689236e-05 -1.823188e-08 1.280542e-07))
2.608002      	((1.764126e-05 7.830023e-03 -2.317906e-02) (2.184503e-07 1.621863e-03 -6.793126e-04)) ((-1.657107e-07 -5.472223e-09 -2.864450e-08) (5.618271e-05 -1.601696e-08 1.323490e-07))
2.804705      	((1.857393e-05 7.812073e-03 -2.271548e-02) (9.688371e-08 1.602078e-03 -6.786086e-04)) ((-1.718351e-07 -6.594587e-09 -2.962722e-08) (5.556004e-05 -1.325295e-08 1.348485e-07))
3.000679      	((2.049042e-05 7.737145e-03 -2.228384e-02) (-2.599097e-09 1.584221e-03 -6.767736e-04)) ((-1.765178e-07 -7.011860e-09 -2.997167e-08) (5.504277e-05 -1.239592e-08 1.352343e-07))
3.195952      	((2.157598e-05 7.635405e-03 -2.189789e-02) (-8.101102e-08 1.568879e-03 -6.739856e-04)) ((-1.779240e-07 -7.201056e-09 -3.001665e-08) (5.463042e-05 -1.314189e-08 1.346880e-07))
3.390743      	((2.095337e-05 7.515978e-03 -2.151599e-02) (-8.080582e-08 1.555900e-03 -6.711688e-04)) ((-1.768862e-07 -7.572802e-09 -3.026656e-08) (5.428432e-05 -1.278559e-08 1.311361e-07))
3.585224      	((2.145970e-05 7.400013e-03 -2.115170e-02) (2.822415e-08 1.543925e-03 -6.689352e-04)) ((-1.741943e-07 -7.932456e-09 -3.078896e-08) (5.395219e-05 -1.298309e-08 1.232662e-07))
3.779427      	((2.635423e-05 7.312299e-03 -2.084230e-02) (2.486819e-07 1.532464e-03 -6.670263e-04)) ((-1.710838e-07 -8.148206e-09 -3.127659e-08) (5.362801e-05 -1.557979e-08 1.112391e-07))
3.973328      	((3.125471e-05 7.234431e-03 -2.056180e-02) (4.850432e-07 1.521888e-03 -6.652094e-04)) ((-1.680835e-07 -8.060019e-09 -3.167299e-08) (5.332696e-05 -1.930397e-08 9.938856e-08))
4.166959      	((3.397019e-05 7.169435e-03 -2.031605e-02) (6.195690e-07 1.512360e-03 -6.634891e-04)) ((-1.664049e-07 -7.952325e-09 -3.187623e-08) (5.305517e-05 -2.298526e-08 9.272892e-08))
4.360359      	((3.683612e-05 7.099141e-03 -2.008456e-02) (7.045671e-07 1.503687e-03 -6.618339e-04)) ((-1.656611e-07 -7.834360e-09 -3.187619e-08) (5.281152e-05 -2.614629e-08 8.874993e-08))
4.553484      	((4.026857e-05 7.034549e-03 -1.987172e-02) (7.981992e-07 1.495743e-03 -6.602121e-04)) ((-1.654616e-07 -7.692630e-09 -3.175907e-08) (5.259537e-05 -2.887642e-08 8.543408e-08))
4.74628       	((4.453222e-05 6.976146e-03 -1.966726e-02) (8.789279e-07 1.488431e-03 -6.587304e-04)) ((-1.652737e-07 -7.430883e-09 -3.163372e-08) (5.240040e-05 -3.166535e-08 8.283052e-08))
4.938763      	((4.905577e-05 6.919018e-03 -1.948690e-02) (9.670950e-07 1.481579e-03 -6.576103e-04)) ((-1.649463e-07 -7.203807e-09 -3.155881e-08) (5.221392e-05 -3.501212e-08 7.992315e-08))
5.130966      	((5.397340e-05 6.862785e-03 -1.931379e-02) (1.053906e-06 1.475159e-03 -6.568849e-04)) ((-1.645122e-07 -7.015387e-09 -3.160219e-08) (5.203176e-05 -3.890278e-08 7.756623e-08))
5.322916      	((6.149078e-05 6.813931e-03 -1.913890e-02) (1.130063e-06 1.469202e-03 -6.563346e-04)) ((-1.643012e-07 -6.793898e-09 -3.175051e-08) (5.185976e-05 -4.355525e-08 7.708947e-08))
5.514623      	((7.048517e-05 6.779647e-03 -1.897615e-02) (1.234270e-06 1.463682e-03 -6.557377e-04)) ((-1.645491e-07 -6.621085e-09 -3.196405e-08) (5.170431e-05 -4.929924e-08 7.837937e-08))
5.706101      	((7.930856e-05 6.749228e-03 -1.881713e-02) (1.370313e-06 1.458526e-03 -6.549824e-04)) ((-1.653216e-07 -6.503966e-09 -3.220765e-08) (5.156703e-05 -5.572588e-08 8.104403e-08))
5.897362      	((8.905121e-05 6.717588e-03 -1.866600e-02) (1.534687e-06 1.453694e-03 -6.541186e-04)) ((-1.662150e-07 -6.327386e-09 -3.243047e-08) (5.144549e-05 -6.333121e-08 8.494231e-08))
6.088415      	((9.805698e-05 6.679242e-03 -1.851618e-02) (1.721460e-06 1.449105e-03 -6.533122e-04)) ((-1.668832e-07 -6.097707e-09 -3.258146e-08) (5.133107e-05 -7.177594e-08 8.935800e-08))
6.279273      	((1.099598e-04 6.638601e-03 -1.837045e-02) (1.952003e-06 1.444675e-03 -6.526956e-04)) ((-1.671361e-07 -5.804581e-09 -3.264135e-08) (5.121616e-05 -8.141192e-08 9.392088e-08))
6.469944      	((1.213999e-04 6.602132e-03 -1.822983e-02) (2.218672e-06 1.440416e-03 -6.523028e-04)) ((-1.670911e-07 -5.445355e-09 -3.267515e-08) (5.109970e-05 -9.254975e-08 9.896404e-08))
6.660438      	((1.365620e-04 6.569034e-03 -1.809205e-02) (2.544169e-06 1.436297e-03 -6.521231e-04)) ((-1.666725e-07 -5.034494e-09 -3.273532e-08) (5.098083e-05 -1.061122e-07 1.032790e-07))
6.850759      	((1.490448e-04 6.543494e-03 -1.796100e-02) (2.926662e-06 1.432300e-03 -6.520767e-04)) ((-1.662360e-07 -4.760216e-09 -3.283016e-08) (5.086106e-05 -1.215060e-07 1.065589e-07))
7.040912      	((1.617335e-04 6.521034e-03 -1.783581e-02) (3.328373e-06 1.428451e-03 -6.520571e-04)) ((-1.658602e-07 -4.538403e-09 -3.294529e-08) (5.074439e-05 -1.371080e-07 1.099360e-07))
7.230901      	((1.774792e-04 6.500063e-03 -1.771602e-02) (3.750626e-06 1.424770e-03 -6.520057e-04)) ((-1.655600e-07 -4.316194e-09 -3.306293e-08) (5.063356e-05 -1.535148e-07 1.144605e-07))
7.42073       	((1.930156e-04 6.478683e-03 -1.759816e-02) (4.205718e-06 1.421257e-03 -6.518916e-04)) ((-1.653681e-07 -4.043507e-09 -3.318114e-08) (5.052926e-05 -1.715449e-07 1.192623e-07))
7.610405      	((2.098119e-04 6.459095e-03 -1.748559e-02) (4.698179e-06 1.417949e-03 -6.517032e-04)) ((-1.652939e-07 -3.756823e-09 -3.329063e-08) (5.043238e-05 -1.915196e-07 1.229420e-07))
7.799941      	((2.274737e-04 6.438063e-03 -1.737395e-02) (5.228426e-06 1.414866e-03 -6.514292e-04)) ((-1.652455e-07 -3.408699e-09 -3.339634e-08) (5.034348e-05 -2.135148e-07 1.257250e-07))
7.989347      	((2.473831e-04 6.416852e-03 -1.726537e-02) (5.779093e-06 1.411979e-03 -6.510603e-04)) ((-1.651691e-07 -2.990826e-09 -3.348760e-08) (5.026256e-05 -2.374175e-07 1.307026e-07))
8.178633      	((2.714000e-04 6.395465e-03 -1.716023e-02) (6.344441e-06 1.409251e-03 -6.506031e-04)) ((-1.650285e-07 -2.454016e-09 -3.358845e-08) (5.018873e-05 -2.638137e-07 1.398323e-07))
8.367805      	((2.990519e-04 6.375190e-03 -1.705683e-02) (6.947368e-06 1.406677e-03 -6.500723e-04)) ((-1.647838e-07 -1.852406e-09 -3.368503e-08) (5.012119e-05 -2.933217e-07 1.525042e-07))
8.556867      	((3.291505e-04 6.354321e-03 -1.695351e-02) (7.622329e-06 1.404220e-03 -6.495091e-04)) ((-1.644789e-07 -1.176303e-09 -3.376625e-08) (5.005785e-05 -3.265430e-07 1.666878e-07))
8.745826      	((3.621274e-04 6.335704e-03 -1.685582e-02) (8.386346e-06 1.401843e-03 -6.489431e-04)) ((-1.641746e-07 -4.770578e-10 -3.384225e-08) (4.999699e-05 -3.636877e-07 1.806693e-07))
8.934686      	((3.981672e-04 6.317291e-03 -1.676050e-02) (9.251630e-06 1.399543e-03 -6.483729e-04)) ((-1.638975e-07 2.749420e-10 -3.390963e-08) (4.993844e-05 -4.046676e-07 1.940058e-07))
9.123453      	((4.394151e-04 6.298358e-03 -1.666692e-02) (1.022517e-05 1.397311e-03 -6.478029e-04)) ((-1.636278e-07 1.122449e-09 -3.396335e-08) (4.988221e-05 -4.500553e-07 2.081348e-07))
9.312131      	((4.859492e-04 6.278634e-03 -1.657499e-02) (1.131382e-05 1.395136e-03 -6.472403e-04)) ((-1.634033e-07 2.022529e-09 -3.398369e-08) (4.982813e-05 -5.003737e-07 2.241297e-07))
9.500722      	((5.361747e-04 6.259134e-03 -1.648507e-02) (1.252085e-05 1.393027e-03 -6.466729e-04)) ((-1.632123e-07 2.939543e-09 -3.397600e-08) (4.977614e-05 -5.555179e-07 2.411043e-07))
9.689219      	((5.905013e-04 6.242355e-03 -1.639934e-02) (1.384631e-05 1.390989e-03 -6.460889e-04)) ((-1.630584e-07 3.913461e-09 -3.397267e-08) (4.972676e-05 -6.155521e-07 2.591906e-07))
9.87761       	((6.520327e-04 6.223983e-03 -1.631179e-02) (1.532166e-05 1.389016e-03 -6.454913e-04)) ((-1.628202e-07 5.071879e-09 -3.396268e-08) (4.967954e-05 -6.812981e-07 2.781448e-07))
10.065902     	((7.194171e-04 6.204431e-03 -1.622437e-02) (1.697828e-05 1.387085e-03 -6.448949e-04)) ((-1.625868e-07 6.340765e-09 -3.394599e-08) (4.963303e-05 -7.536728e-07 2.977531e-07))
10.254101     	((7.933656e-04 6.187758e-03 -1.613910e-02) (1.884555e-05 1.385206e-03 -6.442908e-04)) ((-1.624567e-07 7.751800e-09 -3.392208e-08) (4.958793e-05 -8.341675e-07 3.179943e-07))
10.442215     	((8.742826e-04 6.171285e-03 -1.605527e-02) (2.093313e-05 1.383393e-03 -6.436714e-04)) ((-1.623263e-07 9.319836e-09 -3.389255e-08) (4.954504e-05 -9.237154e-07 3.391231e-07))
10.630255     	((9.626171e-04 6.157938e-03 -1.597509e-02) (2.323004e-05 1.381638e-03 -6.430185e-04)) ((-1.622296e-07 1.103368e-08 -3.385239e-08) (4.950483e-05 -1.022899e-06 3.628013e-07))
10.81823      	((1.059404e-03 6.143430e-03 -1.589714e-02) (2.573826e-05 1.379931e-03 -6.423380e-04)) ((-1.620324e-07 1.295351e-08 -3.379730e-08) (4.946703e-05 -1.132846e-06 3.898773e-07))
11.006145     	((1.165597e-03 6.131775e-03 -1.582192e-02) (2.848397e-05 1.378295e-03 -6.416235e-04)) ((-1.618709e-07 1.500921e-08 -3.376406e-08) (4.943228e-05 -1.254236e-06 4.197170e-07))
11.193998     	((1.282457e-03 6.124295e-03 -1.575228e-02) (3.150505e-05 1.376771e-03 -6.408490e-04)) ((-1.617483e-07 1.719899e-08 -3.375050e-08) (4.940268e-05 -1.387485e-06 4.517909e-07))
11.381792     	((1.411487e-03 6.121522e-03 -1.568892e-02) (3.482736e-05 1.375392e-03 -6.400097e-04)) ((-1.617306e-07 1.949799e-08 -3.374382e-08) (4.937991e-05 -1.533811e-06 4.864481e-07))
11.569528     	((1.556692e-03 6.121767e-03 -1.562773e-02) (3.852261e-05 1.374157e-03 -6.391128e-04)) ((-1.617248e-07 2.196388e-08 -3.373563e-08) (4.936405e-05 -1.695546e-06 5.233641e-07))
11.757205     	((1.717827e-03 6.128568e-03 -1.557181e-02) (4.263418e-05 1.373065e-03 -6.381890e-04)) ((-1.617491e-07 2.458482e-08 -3.374856e-08) (4.935422e-05 -1.874677e-06 5.640735e-07))
11.944825     	((1.896359e-03 6.139802e-03 -1.552100e-02) (4.720373e-05 1.372147e-03 -6.372904e-04)) ((-1.616834e-07 2.741984e-08 -3.378414e-08) (4.934970e-05 -2.073540e-06 6.089300e-07))
12.132388     	((2.094874e-03 6.157015e-03 -1.547403e-02) (5.227053e-05 1.371424e-03 -6.364309e-04)) ((-1.615959e-07 3.047511e-08 -3.381978e-08) (4.935041e-05 -2.294851e-06 6.585926e-07))
12.319896     	((2.314253e-03 6.179986e-03 -1.543039e-02) (5.789436e-05 1.370923e-03 -6.356171e-04)) ((-1.615227e-07 3.382303e-08 -3.383853e-08) (4.935674e-05 -2.540327e-06 7.148514e-07))
12.507352     	((2.553007e-03 6.212723e-03 -1.539235e-02) (6.405285e-05 1.370651e-03 -6.348063e-04)) ((-1.616150e-07 3.735594e-08 -3.386018e-08) (4.937161e-05 -2.809423e-06 7.821187e-07))
12.694756     	((2.818738e-03 6.255286e-03 -1.536204e-02) (7.080123e-05 1.370635e-03 -6.339176e-04)) ((-1.618052e-07 4.121096e-08 -3.385000e-08) (4.939998e-05 -3.104719e-06 8.623587e-07))
12.882118     	((3.114853e-03 6.309126e-03 -1.534023e-02) (7.825592e-05 1.370983e-03 -6.329071e-04)) ((-1.620999e-07 4.551644e-08 -3.379999e-08) (4.944668e-05 -3.431517e-06 9.537868e-07))
13.069442     	((3.435658e-03 6.369727e-03 -1.532301e-02) (8.650479e-05 1.371751e-03 -6.317819e-04)) ((-1.622886e-07 5.025657e-08 -3.364124e-08) (4.951411e-05 -3.792439e-06 1.051937e-06))
13.256732     	((3.782160e-03 6.442811e-03 -1.531574e-02) (9.557188e-05 1.373021e-03 -6.305766e-04)) ((-1.623514e-07 5.539524e-08 -3.339667e-08) (4.960385e-05 -4.188434e-06 1.157713e-06))
13.443988     	((4.154684e-03 6.533232e-03 -1.532485e-02) (1.055240e-04 1.374939e-03 -6.293036e-04)) ((-1.624062e-07 6.081133e-08 -3.303703e-08) (4.971863e-05 -4.621256e-06 1.272158e-06))
13.631209     	((4.549195e-03 6.643275e-03 -1.535271e-02) (1.163928e-04 1.377633e-03 -6.279302e-04)) ((-1.626159e-07 6.638243e-08 -3.258820e-08) (4.986256e-05 -5.090430e-06 1.394774e-06))
13.818386     	((4.971737e-03 6.765934e-03 -1.539113e-02) (1.282292e-04 1.381132e-03 -6.264376e-04)) ((-1.626611e-07 7.242461e-08 -3.215380e-08) (5.003892e-05 -5.596149e-06 1.520755e-06))
14.005513     	((5.415840e-03 6.911812e-03 -1.545398e-02) (1.411536e-04 1.385503e-03 -6.247692e-04)) ((-1.627920e-07 7.886959e-08 -3.169534e-08) (5.025317e-05 -6.139267e-06 1.641497e-06))
14.192593     	((5.881144e-03 7.084895e-03 -1.553284e-02) (1.551585e-04 1.390824e-03 -6.228501e-04)) ((-1.632855e-07 8.553333e-08 -3.125764e-08) (5.051149e-05 -6.718143e-06 1.757687e-06))
14.379625     	((6.363357e-03 7.287323e-03 -1.563343e-02) (1.701560e-04 1.397310e-03 -6.205758e-04)) ((-1.645433e-07 9.213715e-08 -3.087662e-08) (5.082067e-05 -7.329970e-06 1.873345e-06))
14.566609     	((6.867518e-03 7.522372e-03 -1.574895e-02) (1.861497e-04 1.405132e-03 -6.180009e-04)) ((-1.660554e-07 9.876373e-08 -3.050232e-08) (5.118373e-05 -7.973495e-06 1.989724e-06))
14.753549     	((7.383654e-03 7.792961e-03 -1.589053e-02) (2.030922e-04 1.414355e-03 -6.152327e-04)) ((-1.679203e-07 1.053031e-07 -3.012034e-08) (5.160158e-05 -8.646616e-06 2.105493e-06))
14.940265     	((7.895790e-03 8.100562e-03 -1.605387e-02) (2.208233e-04 1.425074e-03 -6.123305e-04)) ((-1.704190e-07 1.114934e-07 -2.978558e-08) (5.207433e-05 -9.343941e-06 2.215357e-06))
15.1266       	((8.391974e-03 8.447029e-03 -1.624773e-02) (2.391410e-04 1.437257e-03 -6.092532e-04)) ((-1.739010e-07 1.171109e-07 -2.949199e-08) (5.260231e-05 -1.005545e-05 2.316183e-06))
15.312551     	((8.864150e-03 8.826403e-03 -1.646649e-02) (2.578642e-04 1.450992e-03 -6.059026e-04)) ((-1.781576e-07 1.218735e-07 -2.920295e-08) (5.318788e-05 -1.077298e-05 2.406362e-06))
15.49811      	((9.292797e-03 9.237487e-03 -1.672453e-02) (2.767156e-04 1.466481e-03 -6.023136e-04)) ((-1.831053e-07 1.257114e-07 -2.896772e-08) (5.383030e-05 -1.149073e-05 2.482820e-06))
15.683286     	((9.660545e-03 9.654221e-03 -1.698388e-02) (2.953878e-04 1.483649e-03 -5.984448e-04)) ((-1.885257e-07 1.284470e-07 -2.894833e-08) (5.452518e-05 -1.219808e-05 2.537954e-06))
15.868149     	((9.934571e-03 1.004900e-02 -1.726167e-02) (3.133996e-04 1.502111e-03 -5.942890e-04)) ((-1.935914e-07 1.292992e-07 -2.900196e-08) (5.526024e-05 -1.287396e-05 2.561997e-06))
16.052848     	((1.009935e-02 1.042005e-02 -1.754800e-02) (3.301291e-04 1.521162e-03 -5.898216e-04)) ((-1.985427e-07 1.281190e-07 -2.912713e-08) (5.601882e-05 -1.349572e-05 2.558929e-06))
16.237579     	((1.012086e-02 1.073616e-02 -1.782483e-02) (3.448405e-04 1.539874e-03 -5.851080e-04)) ((-2.028083e-07 1.245654e-07 -2.937214e-08) (5.677366e-05 -1.403441e-05 2.535092e-06))
16.422492     	((9.984915e-03 1.096574e-02 -1.808699e-02) (3.566262e-04 1.557314e-03 -5.802868e-04)) ((-2.059653e-07 1.189972e-07 -2.959496e-08) (5.749129e-05 -1.446162e-05 2.489661e-06))
16.607737     	((9.647659e-03 1.108190e-02 -1.832939e-02) (3.644983e-04 1.572724e-03 -5.755527e-04)) ((-2.077728e-07 1.105598e-07 -2.944048e-08) (5.813919e-05 -1.474028e-05 2.413891e-06))
16.793494     	((9.075601e-03 1.106247e-02 -1.851911e-02) (3.673255e-04 1.585499e-03 -5.710591e-04)) ((-2.080492e-07 9.852121e-08 -2.927340e-08) (5.868390e-05 -1.481305e-05 2.296121e-06))
16.979957     	((8.262404e-03 1.087524e-02 -1.866137e-02) (3.637312e-04 1.594943e-03 -5.668994e-04)) ((-2.066916e-07 8.400228e-08 -2.898520e-08) (5.909953e-05 -1.462479e-05 2.141165e-06))
17.167397     	((7.192415e-03 1.051778e-02 -1.874722e-02) (3.521396e-04 1.600170e-03 -5.634308e-04)) ((-2.034807e-07 6.699437e-08 -2.800121e-08) (5.935464e-05 -1.413319e-05 1.975492e-06))
17.355735     	((5.871758e-03 1.004115e-02 -1.878205e-02) (3.312385e-04 1.600825e-03 -5.611703e-04)) ((-1.990084e-07 4.729833e-08 -2.669648e-08) (5.942324e-05 -1.330916e-05 1.817698e-06))
17.544351     	((4.353158e-03 9.512305e-03 -1.877260e-02) (3.005589e-04 1.597761e-03 -5.608394e-04)) ((-1.929514e-07 2.544734e-08 -2.620266e-08) (5.930996e-05 -1.216835e-05 1.673126e-06))
17.733304     	((2.707597e-03 9.032736e-03 -1.879069e-02) (2.615369e-04 1.592522e-03 -5.632483e-04)) ((-1.862339e-07 2.596208e-09 -2.562925e-08) (5.903424e-05 -1.076772e-05 1.517423e-06))
17.922653     	((1.071774e-03 8.684603e-03 -1.878083e-02) (2.166791e-04 1.586674e-03 -5.683789e-04)) ((-1.812500e-07 -1.913809e-08 -2.431986e-08) (5.864687e-05 -9.179860e-06 1.328038e-06))
