# Forces      
# CofR        : (0.000000e+00 0.000000e+00 0.000000e+00)
# Time        forces(pressure viscous)	moments(pressure viscous)
0             	((0.000000e+00 0.000000e+00 0.000000e+00) (-1.954308e-14 3.170789e-05 1.571877e-15)) ((0.000000e+00 0.000000e+00 0.000000e+00) (7.124431e-07 -1.188851e-16 -1.527338e-11))
0.012         	((-1.021720e-08 9.221423e-03 2.301092e-03) (-6.265515e-11 3.638275e-05 -1.466801e-08)) ((-1.087488e-07 7.842348e-09 -1.738292e-09) (1.050035e-06 2.294955e-14 -3.164288e-11))
0.0264        	((-1.507335e-07 -6.451063e-04 -1.492078e-04) (-2.058608e-10 3.711395e-05 -2.137925e-08)) ((7.710906e-09 -4.945249e-10 1.115430e-10) (1.175483e-06 2.614849e-12 -4.169315e-11))
0.04368       	((2.226806e-07 -1.925617e-03 -2.118246e-04) (-1.205097e-10 3.297638e-05 -1.878741e-08)) ((2.507697e-08 -7.200434e-10 4.725082e-10) (1.047189e-06 -4.120531e-12 -3.543354e-11))
0.064416      	((-6.533760e-08 -1.809604e-05 -7.689261e-05) (7.456197e-10 2.920624e-05 -1.041679e-08)) ((-1.206238e-10 -2.519106e-10 -2.655026e-11) (9.401964e-07 -7.946085e-12 -4.153612e-11))
0.0892992     	((1.511852e-08 2.502686e-05 -4.648486e-05) (1.056506e-09 2.696261e-05 -9.370940e-09)) ((-1.007686e-09 -1.547216e-10 -2.530711e-11) (8.888041e-07 -2.059902e-12 -4.189454e-11))
0.119159      	((3.701137e-09 -2.912435e-05 -2.909431e-05) (7.925655e-10 2.489672e-05 -1.395054e-08)) ((5.424881e-10 -9.064739e-11 6.387906e-12) (8.317495e-07 2.847893e-13 -3.182813e-11))
0.154991      	((-1.393163e-08 -1.557444e-05 -1.870082e-05) (5.785168e-10 2.270919e-05 -1.575509e-08)) ((3.341821e-10 -5.543947e-11 -1.870670e-13) (7.683340e-07 -1.555980e-12 -2.095771e-11))
0.197989      	((1.201281e-08 -3.762302e-06 -1.201009e-05) (3.128625e-10 2.050566e-05 -1.856320e-08)) ((1.225522e-10 -3.233254e-11 -1.015460e-13) (7.038644e-07 -3.942050e-12 -6.977114e-12))
0.249587      	((6.144811e-09 5.288105e-07 -7.893447e-06) (1.502582e-10 1.834819e-05 -2.253086e-08)) ((3.746088e-11 -1.887307e-11 -2.173774e-12) (6.394849e-07 -6.810540e-12 4.379262e-12))
0.311504      	((-2.384298e-09 2.489552e-06 -5.281446e-06) (6.330545e-11 1.630260e-05 -2.727247e-08)) ((9.685537e-12 -1.004687e-11 -2.051951e-12) (5.765025e-07 -1.156962e-11 1.675206e-11))
0.385805      	((5.192022e-11 3.433409e-06 -3.668404e-06) (2.545276e-11 1.442170e-05 -3.220196e-08)) ((4.991367e-13 -4.572208e-12 -1.516643e-12) (5.164849e-07 -1.557753e-11 2.382243e-11))
0.474966      	((-9.111612e-11 3.896148e-06 -2.621098e-06) (7.327537e-11 1.273943e-05 -3.704096e-08)) ((-7.638435e-12 -1.138234e-12 -1.308674e-12) (4.610178e-07 -1.630638e-11 1.861917e-11))
0.581959      	((6.122917e-10 4.088549e-06 -1.985697e-06) (2.086630e-10 1.126471e-05 -4.190220e-08)) ((-1.404406e-11 7.183118e-13 -1.175024e-12) (4.109292e-07 -1.481359e-11 8.599702e-12))
0.710351      	((8.234974e-11 4.074359e-06 -1.593095e-06) (3.344881e-10 9.993211e-06 -4.644037e-08)) ((-1.820094e-11 1.890869e-12 -9.956361e-13) (3.666461e-07 -1.302029e-11 1.433351e-12))
0.864421      	((7.810787e-11 3.928692e-06 -1.373944e-06) (4.026574e-10 8.908819e-06 -5.031524e-08)) ((-1.997688e-11 2.518193e-12 -1.043269e-12) (3.281657e-07 -1.125444e-11 -3.277982e-12))
1.049306      	((1.547096e-10 3.712735e-06 -1.245056e-06) (3.930167e-10 7.986013e-06 -5.370215e-08)) ((-1.997161e-11 2.840088e-12 -1.013600e-12) (2.949597e-07 -9.110702e-12 -5.569229e-12))
1.271167      	((2.901655e-10 3.469732e-06 -1.182597e-06) (3.481327e-10 7.198068e-06 -5.692663e-08)) ((-1.907066e-11 2.969395e-12 -9.010254e-13) (2.662373e-07 -6.973593e-12 -7.276123e-12))
1.5374        	((2.593515e-10 3.217552e-06 -1.156005e-06) (2.918131e-10 6.517489e-06 -6.046870e-08)) ((-1.778262e-11 3.013888e-12 -8.834350e-13) (2.411858e-07 -5.381309e-12 -1.026331e-11))
1.85688       	((3.107835e-10 2.969891e-06 -1.156238e-06) (2.050175e-10 5.919769e-06 -6.464363e-08)) ((-1.626435e-11 2.913908e-12 -8.534023e-13) (2.190950e-07 -3.733516e-12 -1.323134e-11))
2.240256      	((2.211660e-10 2.734902e-06 -1.168397e-06) (1.069424e-10 5.388584e-06 -6.942506e-08)) ((-1.501376e-11 2.800385e-12 -8.424771e-13) (1.994381e-07 -2.379200e-12 -1.638804e-11))
2.700307      	((2.605987e-10 2.516028e-06 -1.189883e-06) (7.451183e-11 4.913361e-06 -7.462481e-08)) ((-1.395240e-11 2.669609e-12 -8.187956e-13) (1.818450e-07 -1.361786e-12 -1.869479e-11))
3.252369      	((1.691403e-10 2.313054e-06 -1.212990e-06) (7.632977e-11 4.486423e-06 -8.016091e-08)) ((-1.290429e-11 2.487860e-12 -7.783012e-13) (1.660372e-07 -6.576818e-13 -1.900155e-11))
3.914842      	((6.617429e-11 2.124009e-06 -1.238353e-06) (6.729073e-11 4.101875e-06 -8.612264e-08)) ((-1.186893e-11 2.300562e-12 -7.129973e-13) (1.517962e-07 -2.469203e-13 -1.797689e-11))
4.709811      	((-3.231567e-11 1.949488e-06 -1.262182e-06) (5.375585e-11 3.755453e-06 -9.256549e-08)) ((-1.092511e-11 2.126131e-12 -6.284882e-13) (1.389628e-07 3.187653e-13 -1.616873e-11))
5.663773      	((-6.246270e-11 1.789898e-06 -1.283507e-06) (2.912865e-11 3.444003e-06 -9.947624e-08)) ((-1.014305e-11 1.968949e-12 -5.582709e-13) (1.274214e-07 1.316262e-12 -1.568070e-11))
6.808528      	((4.334068e-11 1.645332e-06 -1.300770e-06) (9.254495e-12 3.164748e-06 -1.068166e-07)) ((-9.513265e-12 1.815345e-12 -4.828571e-13) (1.170713e-07 1.685651e-12 -1.603435e-11))
8.182233      	((3.816999e-11 1.515594e-06 -1.314152e-06) (-8.959108e-12 2.914609e-06 -1.145583e-07)) ((-9.000554e-12 1.666826e-12 -4.149629e-13) (1.078009e-07 1.175397e-12 -1.635326e-11))
9.83068       	((2.738865e-12 1.399610e-06 -1.323755e-06) (-2.649146e-11 2.690124e-06 -1.227304e-07)) ((-8.536726e-12 1.543418e-12 -3.682508e-13) (9.948365e-08 6.823194e-13 -1.643738e-11))
11.808816     	((8.028803e-11 1.295744e-06 -1.330581e-06) (-3.824019e-11 2.488068e-06 -1.314252e-07)) ((-8.127690e-12 1.437811e-12 -3.405980e-13) (9.199942e-08 2.874493e-13 -1.651012e-11))
14.182579     	((-6.456832e-11 1.203342e-06 -1.334490e-06) (-5.140732e-11 2.305706e-06 -1.407241e-07)) ((-7.800791e-12 1.340496e-12 -3.168662e-13) (8.524514e-08 6.520942e-13 -1.597470e-11))
17.031095     	((-7.314128e-11 1.121982e-06 -1.335946e-06) (-7.106743e-11 2.140805e-06 -1.506495e-07)) ((-7.577335e-12 1.247389e-12 -3.008895e-13) (7.913644e-08 1.497470e-12 -1.322945e-11))
20.449314     	((-1.366170e-10 1.051236e-06 -1.334778e-06) (-1.141020e-10 1.991715e-06 -1.611993e-07)) ((-7.463640e-12 1.154460e-12 -2.948976e-13) (7.361063e-08 2.386552e-12 -9.011198e-12))
24.551176     	((-1.849136e-10 9.909067e-07 -1.332179e-06) (-1.487235e-10 1.857263e-06 -1.722750e-07)) ((-7.468111e-12 1.057273e-12 -3.024320e-13) (6.862388e-08 2.967734e-12 -5.847142e-12))
29.473411     	((-1.631648e-10 9.407530e-07 -1.326863e-06) (-1.600888e-10 1.736541e-06 -1.837108e-07)) ((-7.579392e-12 9.680960e-13 -3.211578e-13) (6.414365e-08 2.975580e-12 -3.533946e-12))
35.380094     	((-4.562815e-11 9.001240e-07 -1.320037e-06) (-1.527270e-10 1.628744e-06 -1.953140e-07)) ((-7.783280e-12 8.922320e-13 -3.442229e-13) (6.014209e-08 2.217942e-12 -7.315170e-13))
42.468112     	((-2.604929e-11 8.686478e-07 -1.310299e-06) (-1.473358e-10 1.533044e-06 -2.068643e-07)) ((-8.069623e-12 8.173236e-13 -3.717350e-13) (5.659096e-08 1.389678e-12 2.930922e-12))
50.973735     	((8.892274e-11 8.456782e-07 -1.298758e-06) (-1.345489e-10 1.448612e-06 -2.182033e-07)) ((-8.452623e-12 7.480364e-13 -4.010794e-13) (5.346163e-08 7.339367e-13 7.359197e-12))
61.180482     	((2.183685e-10 8.308477e-07 -1.284912e-06) (-1.267628e-10 1.374653e-06 -2.292098e-07)) ((-8.937826e-12 6.864831e-13 -4.368610e-13) (5.072748e-08 -5.314131e-14 1.238008e-11))
73.428578     	((3.591626e-10 8.240083e-07 -1.269603e-06) (-1.189890e-10 1.310508e-06 -2.397668e-07)) ((-9.533126e-12 6.336783e-13 -4.806139e-13) (4.836835e-08 -1.105965e-12 1.772408e-11))
88.126294     	((5.518584e-10 8.240985e-07 -1.252971e-06) (-1.126216e-10 1.255629e-06 -2.497996e-07)) ((-1.020914e-11 5.947660e-13 -5.333870e-13) (4.636819e-08 -2.922270e-12 2.333703e-11))
105.763553    	((7.196573e-10 8.296251e-07 -1.235033e-06) (-1.010961e-10 1.209501e-06 -2.593253e-07)) ((-1.092431e-11 5.710619e-13 -5.908856e-13) (4.470786e-08 -5.110688e-12 2.875353e-11))
126.928263    	((9.384232e-10 8.393514e-07 -1.216122e-06) (-8.827313e-11 1.171551e-06 -2.682507e-07)) ((-1.163241e-11 5.658544e-13 -6.462564e-13) (4.336247e-08 -7.385621e-12 3.322929e-11))
152.087528    	((1.157041e-09 8.514989e-07 -1.196216e-06) (-6.225805e-11 1.141113e-06 -2.762162e-07)) ((-1.225822e-11 5.756539e-13 -6.969774e-13) (4.229805e-08 -1.024272e-11 3.611187e-11))
181.219881    	((1.353316e-09 8.635963e-07 -1.174567e-06) (-2.863837e-11 1.117154e-06 -2.828101e-07)) ((-1.273578e-11 5.938583e-13 -7.344323e-13) (4.146411e-08 -1.324228e-11 3.772754e-11))
214.307678    	((1.531373e-09 8.730534e-07 -1.151665e-06) (9.247804e-12 1.098160e-06 -2.877977e-07)) ((-1.309486e-11 6.124971e-13 -7.593641e-13) (4.080120e-08 -1.593079e-11 3.862914e-11))
251.344763    	((1.681229e-09 8.791296e-07 -1.127511e-06) (6.098468e-11 1.082739e-06 -2.912775e-07)) ((-1.336467e-11 6.321068e-13 -7.780359e-13) (4.026172e-08 -1.842697e-11 3.855529e-11))
290.878065    	((1.796152e-09 8.827202e-07 -1.103677e-06) (1.147097e-10 1.070057e-06 -2.936243e-07)) ((-1.356444e-11 6.542125e-13 -7.934796e-13) (3.981979e-08 -2.051579e-11 3.784199e-11))
330.484832    	((1.864632e-09 8.847773e-07 -1.081736e-06) (1.711087e-10 1.059544e-06 -2.952777e-07)) ((-1.370057e-11 6.836854e-13 -8.052939e-13) (3.945690e-08 -2.217184e-11 3.660639e-11))
370.149921    	((1.913437e-09 8.856911e-07 -1.061440e-06) (2.240545e-10 1.050686e-06 -2.965440e-07)) ((-1.378733e-11 7.195670e-13 -8.167382e-13) (3.915454e-08 -2.344070e-11 3.524225e-11))
409.854774    	((1.923279e-09 8.861776e-07 -1.042680e-06) (2.716389e-10 1.043236e-06 -2.975785e-07)) ((-1.384348e-11 7.575659e-13 -8.251407e-13) (3.890244e-08 -2.445209e-11 3.363546e-11))
449.590521    	((1.905175e-09 8.863997e-07 -1.025780e-06) (3.126920e-10 1.036954e-06 -2.984605e-07)) ((-1.387915e-11 7.941593e-13 -8.327196e-13) (3.869122e-08 -2.508753e-11 3.184421e-11))
489.353955    	((1.865360e-09 8.864620e-07 -1.010433e-06) (3.435871e-10 1.031654e-06 -2.992246e-07)) ((-1.390575e-11 8.286562e-13 -8.389763e-13) (3.851398e-08 -2.536531e-11 3.003706e-11))
529.142288    	((1.807588e-09 8.863580e-07 -9.967596e-07) (3.670527e-10 1.027166e-06 -2.998944e-07)) ((-1.392340e-11 8.602075e-13 -8.439954e-13) (3.836476e-08 -2.530313e-11 2.814749e-11))
568.952332    	((1.734038e-09 8.861801e-07 -9.845873e-07) (3.822814e-10 1.023360e-06 -3.004861e-07)) ((-1.393606e-11 8.889292e-13 -8.480537e-13) (3.823881e-08 -2.500125e-11 2.627311e-11))
608.78103     	((1.642456e-09 8.859624e-07 -9.737968e-07) (3.902462e-10 1.020125e-06 -3.010129e-07)) ((-1.394455e-11 9.147350e-13 -8.513468e-13) (3.813210e-08 -2.443813e-11 2.444666e-11))
648.625742    	((1.550849e-09 8.857357e-07 -9.641575e-07) (3.926027e-10 1.017368e-06 -3.014817e-07)) ((-1.395079e-11 9.381913e-13 -8.541053e-13) (3.804146e-08 -2.366111e-11 2.267301e-11))
688.484208    	((1.452064e-09 8.855157e-07 -9.555348e-07) (3.886711e-10 1.015012e-06 -3.018966e-07)) ((-1.395532e-11 9.593830e-13 -8.563935e-13) (3.796434e-08 -2.271387e-11 2.103938e-11))
728.354492    	((1.358608e-09 8.853002e-07 -9.477869e-07) (3.809987e-10 1.012997e-06 -3.022630e-07)) ((-1.395810e-11 9.788056e-13 -8.581968e-13) (3.789857e-08 -2.165772e-11 1.948297e-11))
768.234929    	((1.265680e-09 8.850976e-07 -9.408559e-07) (3.703075e-10 1.011270e-06 -3.025852e-07)) ((-1.396014e-11 9.962102e-13 -8.597483e-13) (3.784239e-08 -2.055062e-11 1.803238e-11))
808.124098    	((1.177421e-09 8.849075e-07 -9.346905e-07) (3.581759e-10 1.009786e-06 -3.028680e-07)) ((-1.396195e-11 1.011894e-12 -8.612844e-13) (3.779426e-08 -1.942161e-11 1.664607e-11))
848.020771    	((1.090327e-09 8.847292e-07 -9.292113e-07) (3.444019e-10 1.008509e-06 -3.031159e-07)) ((-1.396304e-11 1.025835e-12 -8.625839e-13) (3.775295e-08 -1.826273e-11 1.534835e-11))
887.923899    	((1.010700e-09 8.845660e-07 -9.243537e-07) (3.297008e-10 1.007409e-06 -3.033329e-07)) ((-1.396370e-11 1.038238e-12 -8.637145e-13) (3.771744e-08 -1.710572e-11 1.414207e-11))
927.832581    	((9.342442e-10 8.844148e-07 -9.200434e-07) (3.145605e-10 1.006461e-06 -3.035224e-07)) ((-1.396407e-11 1.049184e-12 -8.647051e-13) (3.768687e-08 -1.596936e-11 1.302408e-11))
967.746035    	((8.646086e-10 8.842777e-07 -9.162246e-07) (2.992558e-10 1.005642e-06 -3.036878e-07)) ((-1.396436e-11 1.058887e-12 -8.655178e-13) (3.766050e-08 -1.486673e-11 1.200175e-11))
1007.663603   	((8.016262e-10 8.841527e-07 -9.128450e-07) (2.841913e-10 1.004934e-06 -3.038319e-07)) ((-1.396456e-11 1.067524e-12 -8.662439e-13) (3.763774e-08 -1.381944e-11 1.107226e-11))
1047.584723   	((7.445103e-10 8.840396e-07 -9.098597e-07) (2.694803e-10 1.004321e-06 -3.039574e-07)) ((-1.396467e-11 1.075210e-12 -8.668647e-13) (3.761806e-08 -1.283643e-11 1.023725e-11))
1087.508911   	((6.934101e-10 8.839393e-07 -9.072232e-07) (2.553642e-10 1.003790e-06 -3.040665e-07)) ((-1.396475e-11 1.081980e-12 -8.673984e-13) (3.760102e-08 -1.192200e-11 9.491935e-12))
1127.435752   	((6.479569e-10 8.838496e-07 -9.048996e-07) (2.421026e-10 1.003330e-06 -3.041616e-07)) ((-1.396478e-11 1.087940e-12 -8.678740e-13) (3.758626e-08 -1.107973e-11 8.825973e-12))
1167.36489    	((6.073209e-10 8.837694e-07 -9.028515e-07) (2.297937e-10 1.002930e-06 -3.042442e-07)) ((-1.396484e-11 1.093151e-12 -8.682968e-13) (3.757346e-08 -1.031068e-11 8.229751e-12))
1207.296018   	((5.719423e-10 8.836988e-07 -9.010506e-07) (2.185703e-10 1.002583e-06 -3.043160e-07)) ((-1.396491e-11 1.097756e-12 -8.686623e-13) (3.756234e-08 -9.613248e-12 7.698605e-12))
1247.228872   	((5.408314e-10 8.836356e-07 -8.994658e-07) (2.083700e-10 1.002282e-06 -3.043784e-07)) ((-1.396500e-11 1.101823e-12 -8.689937e-13) (3.755270e-08 -8.985697e-12 7.228548e-12))
1287.163225   	((5.136893e-10 8.835802e-07 -8.980727e-07) (1.992319e-10 1.002020e-06 -3.044325e-07)) ((-1.396514e-11 1.105443e-12 -8.692898e-13) (3.754431e-08 -8.424600e-12 6.810199e-12))
1327.098879   	((4.897035e-10 8.835302e-07 -8.968484e-07) (1.910894e-10 1.001791e-06 -3.044796e-07)) ((-1.396523e-11 1.108615e-12 -8.695435e-13) (3.753702e-08 -7.924701e-12 6.437043e-12))
1367.035664   	((4.689225e-10 8.834864e-07 -8.957746e-07) (1.838912e-10 1.001593e-06 -3.045205e-07)) ((-1.396531e-11 1.111394e-12 -8.697569e-13) (3.753067e-08 -7.481065e-12 6.105973e-12))
1406.973435   	((4.507084e-10 8.834475e-07 -8.948321e-07) (1.775344e-10 1.001420e-06 -3.045560e-07)) ((-1.396538e-11 1.113837e-12 -8.699461e-13) (3.752515e-08 -7.088098e-12 5.813080e-12))
1446.912064   	((4.350836e-10 8.834134e-07 -8.940054e-07) (1.719542e-10 1.001270e-06 -3.045869e-07)) ((-1.396543e-11 1.115981e-12 -8.701082e-13) (3.752034e-08 -6.742169e-12 5.555342e-12))
1486.851439   	((4.212940e-10 8.833837e-07 -8.932808e-07) (1.670631e-10 1.001139e-06 -3.046138e-07)) ((-1.396548e-11 1.117862e-12 -8.702536e-13) (3.751615e-08 -6.437773e-12 5.328597e-12))
1526.791465   	((4.093117e-10 8.833573e-07 -8.926451e-07) (1.627963e-10 1.001024e-06 -3.046371e-07)) ((-1.396553e-11 1.119514e-12 -8.703776e-13) (3.751250e-08 -6.170879e-12 5.128848e-12))
1566.732059   	((3.987796e-10 8.833339e-07 -8.920887e-07) (1.590898e-10 1.000925e-06 -3.046573e-07)) ((-1.396557e-11 1.120963e-12 -8.704835e-13) (3.750932e-08 -5.937246e-12 4.952492e-12))
1606.673146   	((3.894873e-10 8.833132e-07 -8.916007e-07) (1.558455e-10 1.000838e-06 -3.046749e-07)) ((-1.396560e-11 1.122232e-12 -8.705789e-13) (3.750655e-08 -5.732281e-12 4.797202e-12))
1646.614665   	((3.812645e-10 8.832947e-07 -8.911739e-07) (1.530078e-10 1.000762e-06 -3.046902e-07)) ((-1.396564e-11 1.123347e-12 -8.706624e-13) (3.750413e-08 -5.552551e-12 4.660513e-12))
1686.556559   	((3.740144e-10 8.832789e-07 -8.908001e-07) (1.505086e-10 1.000697e-06 -3.047034e-07)) ((-1.396567e-11 1.124318e-12 -8.707350e-13) (3.750202e-08 -5.394622e-12 4.540159e-12))
1726.498781   	((3.676174e-10 8.832648e-07 -8.904722e-07) (1.483121e-10 1.000639e-06 -3.047149e-07)) ((-1.396570e-11 1.125172e-12 -8.707996e-13) (3.750018e-08 -5.255879e-12 4.434299e-12))
1766.441289   	((3.619090e-10 8.832524e-07 -8.901861e-07) (1.463780e-10 1.000589e-06 -3.047249e-07)) ((-1.396573e-11 1.125915e-12 -8.708577e-13) (3.749858e-08 -5.133698e-12 4.341191e-12))
1806.384045   	((3.569810e-10 8.832421e-07 -8.899363e-07) (1.446641e-10 1.000545e-06 -3.047336e-07)) ((-1.396576e-11 1.126564e-12 -8.709065e-13) (3.749718e-08 -5.025962e-12 4.259472e-12))
1846.327019   	((3.525246e-10 8.832326e-07 -8.897175e-07) (1.431483e-10 1.000507e-06 -3.047411e-07)) ((-1.396579e-11 1.127132e-12 -8.709487e-13) (3.749596e-08 -4.930913e-12 4.187574e-12))
1886.270182   	((3.485465e-10 8.832245e-07 -8.895253e-07) (1.418058e-10 1.000474e-06 -3.047477e-07)) ((-1.396581e-11 1.127628e-12 -8.709858e-13) (3.749489e-08 -4.846881e-12 4.124175e-12))
1926.21351    	((3.450572e-10 8.832173e-07 -8.893586e-07) (1.406142e-10 1.000444e-06 -3.047533e-07)) ((-1.396583e-11 1.128057e-12 -8.710198e-13) (3.749396e-08 -4.772549e-12 4.068327e-12))
1966.156982   	((3.419093e-10 8.832109e-07 -8.892119e-07) (1.395577e-10 1.000419e-06 -3.047583e-07)) ((-1.396585e-11 1.128434e-12 -8.710479e-13) (3.749315e-08 -4.706711e-12 4.019167e-12))
2006.100579   	((3.391427e-10 8.832054e-07 -8.890846e-07) (1.386195e-10 1.000397e-06 -3.047626e-07)) ((-1.396586e-11 1.128761e-12 -8.710721e-13) (3.749244e-08 -4.648399e-12 3.975838e-12))
2046.044286   	((3.366379e-10 8.832004e-07 -8.889727e-07) (1.377831e-10 1.000378e-06 -3.047663e-07)) ((-1.396588e-11 1.129047e-12 -8.710941e-13) (3.749182e-08 -4.596692e-12 3.937556e-12))
2085.988087   	((3.344565e-10 8.831961e-07 -8.888754e-07) (1.370398e-10 1.000361e-06 -3.047696e-07)) ((-1.396589e-11 1.129297e-12 -8.711124e-13) (3.749128e-08 -4.550895e-12 3.903951e-12))
2125.931971   	((3.325291e-10 8.831923e-07 -8.887898e-07) (1.363768e-10 1.000346e-06 -3.047724e-07)) ((-1.396590e-11 1.129515e-12 -8.711295e-13) (3.749081e-08 -4.510305e-12 3.874359e-12))
2165.875928   	((3.308216e-10 8.831891e-07 -8.887152e-07) (1.357874e-10 1.000333e-06 -3.047749e-07)) ((-1.396591e-11 1.129705e-12 -8.711439e-13) (3.749040e-08 -4.474313e-12 3.848299e-12))
2205.819947   	((3.293098e-10 8.831862e-07 -8.886498e-07) (1.352636e-10 1.000322e-06 -3.047770e-07)) ((-1.396592e-11 1.129872e-12 -8.711564e-13) (3.749004e-08 -4.442436e-12 3.825364e-12))
2245.764021   	((3.279774e-10 8.831838e-07 -8.885922e-07) (1.347995e-10 1.000312e-06 -3.047789e-07)) ((-1.396593e-11 1.130018e-12 -8.711674e-13) (3.748972e-08 -4.414240e-12 3.805157e-12))
2285.708143   	((3.267979e-10 8.831815e-07 -8.885422e-07) (1.343889e-10 1.000304e-06 -3.047805e-07)) ((-1.396594e-11 1.130145e-12 -8.711772e-13) (3.748945e-08 -4.389361e-12 3.787389e-12))
