# Forces      
# CofR        : (0.000000e+00 0.000000e+00 0.000000e+00)
# Time        forces(pressure viscous)	moments(pressure viscous)
0             	((0.000000e+00 0.000000e+00 0.000000e+00) (-3.055041e-12 1.002623e-02 9.356757e-13)) ((0.000000e+00 0.000000e+00 0.000000e+00) (2.252780e-04 -3.312496e-14 -4.323335e-09))
0.012         	((5.077938e-05 2.962965e+00 5.585152e-01) (1.554477e-08 1.517348e-02 -9.760072e-04)) ((-3.445535e-05 2.608940e-06 -5.368203e-07) (4.693117e-04 6.427420e-09 5.728550e-09))
0.0264        	((-1.632384e-04 -9.692221e-01 -4.507079e-01) (-5.295113e-07 1.485243e-02 -1.460880e-03)) ((1.125190e-05 -6.213407e-07 1.129359e-07) (5.111804e-04 9.271695e-09 2.608120e-08))
0.04368       	((9.359471e-05 -8.579481e-02 -2.408753e-01) (-2.387944e-06 1.220421e-02 -1.364446e-03)) ((2.820709e-06 -4.277384e-08 1.032098e-07) (4.301946e-04 4.055456e-09 6.472106e-08))
0.064416      	((-2.021672e-04 -2.420847e-02 -2.157307e-01) (-5.913386e-06 1.081746e-02 -1.398984e-03)) ((5.239069e-07 5.166851e-08 -4.015677e-08) (3.874237e-04 1.058753e-08 1.276872e-07))
0.0892992     	((-9.510621e-05 1.327529e-02 -1.886818e-01) (-4.083760e-06 9.938847e-03 -1.388829e-03)) ((3.978602e-07 7.015626e-08 3.283161e-08) (3.567374e-04 3.291550e-08 1.535771e-07))
0.119159      	((-5.436002e-05 5.985488e-03 -1.876872e-01) (-2.971618e-06 9.315293e-03 -1.363480e-03)) ((3.451787e-07 1.019567e-07 -4.852786e-08) (3.352256e-04 3.557512e-08 1.568818e-07))
0.154991      	((-5.328008e-05 9.636188e-03 -1.799009e-01) (-4.894292e-06 8.871797e-03 -1.386514e-03)) ((2.209463e-07 1.134232e-07 2.923288e-09) (3.193891e-04 2.878327e-08 1.849415e-07))
0.197989      	((-8.124329e-05 9.388984e-03 -1.805169e-01) (-6.217617e-06 8.526494e-03 -1.464585e-03)) ((1.359037e-07 1.037866e-07 -3.569942e-08) (3.066579e-04 2.952982e-08 2.026333e-07))
0.249254      	((-4.802002e-05 1.097470e-02 -1.776148e-01) (-6.149740e-06 8.242748e-03 -1.565181e-03)) ((3.066353e-09 1.040280e-07 -3.393384e-08) (2.957079e-04 3.056421e-08 2.040698e-07))
0.308776      	((-3.519836e-05 1.214028e-02 -1.773564e-01) (-4.925789e-06 8.007101e-03 -1.676647e-03)) ((-1.186074e-07 1.109566e-07 -5.005703e-08) (2.862491e-04 2.782099e-08 2.242170e-07))
0.376566      	((-8.062004e-06 1.411684e-02 -1.756485e-01) (-4.416872e-06 7.817022e-03 -1.791783e-03)) ((-2.490177e-07 1.148804e-07 -5.852283e-08) (2.783722e-04 1.715772e-08 2.289898e-07))
0.452635      	((7.306563e-06 1.616567e-02 -1.750036e-01) (-3.608312e-06 7.669575e-03 -1.901996e-03)) ((-3.768616e-07 1.247918e-07 -7.622284e-08) (2.721017e-04 3.163583e-09 2.374824e-07))
0.53536       	((3.609478e-05 1.839674e-02 -1.734597e-01) (-2.394034e-06 7.558156e-03 -2.002243e-03)) ((-4.929149e-07 1.351706e-07 -9.021361e-08) (2.671155e-04 -1.073112e-08 2.660893e-07))
0.617624      	((5.300553e-05 2.068512e-02 -1.722507e-01) (-1.474222e-06 7.475441e-03 -2.080926e-03)) ((-5.872162e-07 1.444679e-07 -1.086455e-07) (2.631676e-04 -2.165467e-08 2.921448e-07))
0.699349      	((7.113967e-05 2.280853e-02 -1.703966e-01) (-9.731514e-07 7.402684e-03 -2.139333e-03)) ((-6.777701e-07 1.469482e-07 -1.239781e-07) (2.595733e-04 -2.639311e-08 3.052036e-07))
0.780655      	((9.127989e-05 2.469466e-02 -1.685076e-01) (-5.647557e-07 7.328037e-03 -2.181324e-03)) ((-7.661250e-07 1.475545e-07 -1.391657e-07) (2.560261e-04 -3.254362e-08 3.156494e-07))
0.861813      	((1.160560e-04 2.625349e-02 -1.663463e-01) (-9.266117e-08 7.247778e-03 -2.210033e-03)) ((-8.519866e-07 1.440569e-07 -1.512333e-07) (2.525910e-04 -3.795905e-08 3.280561e-07))
0.943095      	((1.417568e-04 2.732071e-02 -1.641758e-01) (4.464543e-07 7.166344e-03 -2.229398e-03)) ((-9.272223e-07 1.403731e-07 -1.610010e-07) (2.494513e-04 -3.970439e-08 3.457227e-07))
1.024632      	((1.765593e-04 2.787737e-02 -1.619797e-01) (1.133853e-06 7.090586e-03 -2.244052e-03)) ((-9.826551e-07 1.375385e-07 -1.676249e-07) (2.466831e-04 -3.998081e-08 3.758955e-07))
1.106385      	((2.114814e-04 2.818656e-02 -1.599366e-01) (1.938847e-06 7.020870e-03 -2.256741e-03)) ((-1.021441e-06 1.355261e-07 -1.743237e-07) (2.441790e-04 -4.252620e-08 4.124126e-07))
1.18826       	((2.533081e-04 2.817716e-02 -1.580022e-01) (2.779169e-06 6.955815e-03 -2.268234e-03)) ((-1.047953e-06 1.348380e-07 -1.799020e-07) (2.418496e-04 -4.921414e-08 4.460567e-07))
1.270207      	((2.891445e-04 2.802340e-02 -1.561958e-01) (3.441708e-06 6.895493e-03 -2.277148e-03)) ((-1.065773e-06 1.343308e-07 -1.847822e-07) (2.397320e-04 -6.046597e-08 4.720940e-07))
1.352239      	((3.247604e-04 2.775420e-02 -1.545230e-01) (3.798472e-06 6.840668e-03 -2.283671e-03)) ((-1.068258e-06 1.349033e-07 -1.889491e-07) (2.378503e-04 -7.318268e-08 5.012797e-07))
1.434374      	((3.653883e-04 2.750230e-02 -1.530184e-01) (3.892704e-06 6.791289e-03 -2.288737e-03)) ((-1.056957e-06 1.355765e-07 -1.907699e-07) (2.361643e-04 -8.707412e-08 5.377588e-07))
1.516613      	((4.113364e-04 2.728254e-02 -1.516527e-01) (3.924666e-06 6.746528e-03 -2.292462e-03)) ((-1.037967e-06 1.372956e-07 -1.897067e-07) (2.346540e-04 -1.064789e-07 5.723738e-07))
1.598945      	((4.654543e-04 2.707986e-02 -1.503812e-01) (3.963209e-06 6.706362e-03 -2.295025e-03)) ((-1.017011e-06 1.393770e-07 -1.877736e-07) (2.333358e-04 -1.313715e-07 6.155655e-07))
1.681359      	((5.338123e-04 2.689097e-02 -1.491993e-01) (3.948733e-06 6.670050e-03 -2.297331e-03)) ((-9.994148e-07 1.407660e-07 -1.855895e-07) (2.321578e-04 -1.587243e-07 6.716658e-07))
1.763848      	((6.045304e-04 2.669826e-02 -1.481164e-01) (4.082449e-06 6.636510e-03 -2.299912e-03)) ((-9.860994e-07 1.420911e-07 -1.834711e-07) (2.310651e-04 -1.882876e-07 7.242557e-07))
1.84641       	((6.928207e-04 2.647177e-02 -1.470769e-01) (4.463545e-06 6.605414e-03 -2.302598e-03)) ((-9.782171e-07 1.430386e-07 -1.821193e-07) (2.300531e-04 -2.230461e-07 7.709219e-07))
1.929039      	((7.958800e-04 2.624559e-02 -1.461080e-01) (5.024019e-06 6.576407e-03 -2.304980e-03)) ((-9.734343e-07 1.433899e-07 -1.816074e-07) (2.291234e-04 -2.638341e-07 8.194713e-07))
2.011729      	((9.105368e-04 2.604634e-02 -1.451867e-01) (5.765321e-06 6.549523e-03 -2.306633e-03)) ((-9.704712e-07 1.434171e-07 -1.816828e-07) (2.282887e-04 -3.120590e-07 8.724675e-07))
2.094474      	((1.029669e-03 2.588736e-02 -1.443504e-01) (6.665803e-06 6.524996e-03 -2.307526e-03)) ((-9.670537e-07 1.429450e-07 -1.820584e-07) (2.275540e-04 -3.672803e-07 9.330825e-07))
2.177273      	((1.156665e-03 2.576991e-02 -1.435897e-01) (7.582463e-06 6.502640e-03 -2.308106e-03)) ((-9.634708e-07 1.426520e-07 -1.826065e-07) (2.268914e-04 -4.253578e-07 1.004330e-06))
2.260119      	((1.328568e-03 2.568842e-02 -1.428934e-01) (8.703404e-06 6.482142e-03 -2.308976e-03)) ((-9.599880e-07 1.434529e-07 -1.832857e-07) (2.262677e-04 -4.934356e-07 1.080178e-06))
2.34301       	((1.522155e-03 2.561669e-02 -1.422320e-01) (1.012172e-05 6.463277e-03 -2.310331e-03)) ((-9.571171e-07 1.446145e-07 -1.839290e-07) (2.256700e-04 -5.750648e-07 1.161596e-06))
2.425941      	((1.745077e-03 2.552988e-02 -1.415985e-01) (1.191840e-05 6.445732e-03 -2.312007e-03)) ((-9.548961e-07 1.458932e-07 -1.844970e-07) (2.250970e-04 -6.686656e-07 1.247403e-06))
2.508906      	((1.981745e-03 2.541120e-02 -1.409832e-01) (1.397209e-05 6.429195e-03 -2.313897e-03)) ((-9.531127e-07 1.470641e-07 -1.850080e-07) (2.245457e-04 -7.712431e-07 1.341354e-06))
2.591903      	((2.242087e-03 2.527304e-02 -1.403994e-01) (1.613223e-05 6.413559e-03 -2.315967e-03)) ((-9.513078e-07 1.486928e-07 -1.854064e-07) (2.240179e-04 -8.805178e-07 1.449155e-06))
2.674928      	((2.535256e-03 2.514017e-02 -1.398528e-01) (1.853380e-05 6.398893e-03 -2.317952e-03)) ((-9.498703e-07 1.511209e-07 -1.855900e-07) (2.235264e-04 -9.999102e-07 1.566501e-06))
2.757977      	((2.874950e-03 2.503626e-02 -1.393495e-01) (2.139288e-05 6.385419e-03 -2.319481e-03)) ((-9.484730e-07 1.548309e-07 -1.856637e-07) (2.230891e-04 -1.136078e-06 1.688045e-06))
2.841045      	((3.251464e-03 2.498056e-02 -1.389061e-01) (2.483768e-05 6.373385e-03 -2.320396e-03)) ((-9.475816e-07 1.592826e-07 -1.859532e-07) (2.227170e-04 -1.294262e-06 1.810275e-06))
2.924128      	((3.673860e-03 2.493720e-02 -1.384905e-01) (2.887742e-05 6.362793e-03 -2.320746e-03)) ((-9.464933e-07 1.642949e-07 -1.864264e-07) (2.224082e-04 -1.476116e-06 1.935355e-06))
3.007222      	((4.151461e-03 2.488972e-02 -1.380855e-01) (3.349177e-05 6.353380e-03 -2.320698e-03)) ((-9.456804e-07 1.696802e-07 -1.871143e-07) (2.221507e-04 -1.682666e-06 2.070253e-06))
3.090321      	((4.686307e-03 2.482845e-02 -1.376978e-01) (3.869063e-05 6.344929e-03 -2.320346e-03)) ((-9.447791e-07 1.756553e-07 -1.880424e-07) (2.219347e-04 -1.913988e-06 2.220091e-06))
3.173422      	((5.293737e-03 2.473967e-02 -1.373175e-01) (4.454163e-05 6.337283e-03 -2.319729e-03)) ((-9.434049e-07 1.827540e-07 -1.892426e-07) (2.217518e-04 -2.173117e-06 2.385832e-06))
3.25652       	((5.989345e-03 2.463894e-02 -1.369497e-01) (5.112482e-05 6.330260e-03 -2.318863e-03)) ((-9.421488e-07 1.915540e-07 -1.904220e-07) (2.215956e-04 -2.463904e-06 2.573137e-06))
3.339608      	((6.781777e-03 2.456228e-02 -1.366067e-01) (5.856381e-05 6.323902e-03 -2.317678e-03)) ((-9.416184e-07 2.016926e-07 -1.914882e-07) (2.214681e-04 -2.793344e-06 2.788399e-06))
3.422682      	((7.674146e-03 2.451708e-02 -1.362877e-01) (6.702502e-05 6.318351e-03 -2.316114e-03)) ((-9.417535e-07 2.132275e-07 -1.924232e-07) (2.213739e-04 -3.170065e-06 3.036219e-06))
3.505735      	((8.682198e-03 2.450816e-02 -1.360029e-01) (7.645629e-05 6.313587e-03 -2.314253e-03)) ((-9.424511e-07 2.262810e-07 -1.929049e-07) (2.213129e-04 -3.603367e-06 3.329226e-06))
3.58876       	((9.817376e-03 2.452241e-02 -1.357354e-01) (8.680507e-05 6.309526e-03 -2.312070e-03)) ((-9.435539e-07 2.410356e-07 -1.935475e-07) (2.212855e-04 -4.102255e-06 3.678746e-06))
3.67175       	((1.108813e-02 2.455851e-02 -1.354941e-01) (9.831566e-05 6.306180e-03 -2.309532e-03)) ((-9.445821e-07 2.582889e-07 -1.950346e-07) (2.212954e-04 -4.676183e-06 4.089431e-06))
3.754698      	((1.250939e-02 2.462658e-02 -1.352851e-01) (1.115440e-04 6.303850e-03 -2.306528e-03)) ((-9.456953e-07 2.780538e-07 -1.976291e-07) (2.213538e-04 -5.331607e-06 4.545982e-06))
3.837594      	((1.411004e-02 2.473727e-02 -1.351137e-01) (1.268835e-04 6.302953e-03 -2.302783e-03)) ((-9.473706e-07 3.004312e-07 -2.006178e-07) (2.214769e-04 -6.074273e-06 5.039817e-06))
3.920429      	((1.588880e-02 2.490892e-02 -1.350000e-01) (1.445578e-04 6.303848e-03 -2.298205e-03)) ((-9.489823e-07 3.257059e-07 -2.031261e-07) (2.216780e-04 -6.911733e-06 5.576286e-06))
4.003193      	((1.785653e-02 2.516588e-02 -1.349634e-01) (1.647130e-04 6.306770e-03 -2.292980e-03)) ((-9.503923e-07 3.534140e-07 -2.056215e-07) (2.219614e-04 -7.852219e-06 6.158788e-06))
4.085875      	((2.000580e-02 2.550743e-02 -1.350002e-01) (1.874722e-04 6.312014e-03 -2.287077e-03)) ((-9.523521e-07 3.835434e-07 -2.083080e-07) (2.223415e-04 -8.900665e-06 6.784725e-06))
4.168463      	((2.238048e-02 2.594203e-02 -1.350848e-01) (2.130717e-04 6.319816e-03 -2.280154e-03)) ((-9.562216e-07 4.179757e-07 -2.111490e-07) (2.228437e-04 -1.006750e-05 7.456438e-06))
4.250946      	((2.496831e-02 2.650421e-02 -1.352556e-01) (2.420049e-04 6.330466e-03 -2.271846e-03)) ((-9.628327e-07 4.570567e-07 -2.136965e-07) (2.234951e-04 -1.136487e-05 8.172013e-06))
4.333312      	((2.776390e-02 2.719713e-02 -1.355065e-01) (2.746528e-04 6.344417e-03 -2.261899e-03)) ((-9.705513e-07 5.012599e-07 -2.160427e-07) (2.243137e-04 -1.280340e-05 8.916883e-06))
4.415548      	((3.069514e-02 2.806190e-02 -1.358721e-01) (3.103171e-04 6.362237e-03 -2.250509e-03)) ((-9.783237e-07 5.468688e-07 -2.188598e-07) (2.253090e-04 -1.437217e-05 9.704015e-06))
4.497642      	((3.378763e-02 2.915772e-02 -1.363946e-01) (3.487507e-04 6.384815e-03 -2.237727e-03)) ((-9.862194e-07 5.938066e-07 -2.216456e-07) (2.265105e-04 -1.605936e-05 1.056154e-05))
4.579584      	((3.702544e-02 3.041979e-02 -1.370050e-01) (3.899912e-04 6.412342e-03 -2.223611e-03)) ((-9.921197e-07 6.418467e-07 -2.247237e-07) (2.279267e-04 -1.787387e-05 1.148740e-05))
4.661342      	((4.018467e-02 3.192332e-02 -1.377999e-01) (4.334462e-04 6.444676e-03 -2.207844e-03)) ((-9.999944e-07 6.835959e-07 -2.293943e-07) (2.295664e-04 -1.978532e-05 1.244903e-05))
4.742895      	((4.312838e-02 3.367249e-02 -1.388216e-01) (4.777923e-04 6.481995e-03 -2.190203e-03)) ((-1.010565e-06 7.187140e-07 -2.361967e-07) (2.314465e-04 -2.172752e-05 1.342656e-05))
4.824238      	((4.574008e-02 3.557483e-02 -1.400414e-01) (5.225185e-04 6.525049e-03 -2.171169e-03)) ((-1.021897e-06 7.461182e-07 -2.446377e-07) (2.335483e-04 -2.366090e-05 1.435633e-05))
4.90537       	((4.786993e-02 3.754808e-02 -1.414322e-01) (5.667443e-04 6.574061e-03 -2.151222e-03)) ((-1.034662e-06 7.605010e-07 -2.544269e-07) (2.358249e-04 -2.554147e-05 1.518091e-05))
4.986291      	((4.933673e-02 3.946762e-02 -1.429248e-01) (6.085120e-04 6.627674e-03 -2.130586e-03)) ((-1.049754e-06 7.632195e-07 -2.624731e-07) (2.382260e-04 -2.728881e-05 1.589728e-05))
5.067011      	((5.007084e-02 4.111132e-02 -1.443710e-01) (6.450322e-04 6.683446e-03 -2.109472e-03)) ((-1.063301e-06 7.574625e-07 -2.673387e-07) (2.406832e-04 -2.881200e-05 1.654086e-05))
5.147542      	((4.996019e-02 4.236881e-02 -1.457904e-01) (6.744609e-04 6.738489e-03 -2.088411e-03)) ((-1.070512e-06 7.388119e-07 -2.682802e-07) (2.430932e-04 -3.002945e-05 1.705313e-05))
5.227905      	((4.886428e-02 4.308244e-02 -1.470119e-01) (6.947969e-04 6.789934e-03 -2.068699e-03)) ((-1.074297e-06 7.025114e-07 -2.679102e-07) (2.453273e-04 -3.085346e-05 1.739764e-05))
5.308127      	((4.674674e-02 4.320833e-02 -1.480692e-01) (7.035113e-04 6.834886e-03 -2.050803e-03)) ((-1.078145e-06 6.490702e-07 -2.705164e-07) (2.472850e-04 -3.115967e-05 1.757028e-05))
5.388241      	((4.363672e-02 4.262799e-02 -1.488897e-01) (6.974616e-04 6.872184e-03 -2.034092e-03)) ((-1.078542e-06 5.798003e-07 -2.742774e-07) (2.489326e-04 -3.083865e-05 1.758496e-05))
5.468286      	((3.960857e-02 4.156304e-02 -1.495035e-01) (6.745982e-04 6.901201e-03 -2.018450e-03)) ((-1.077382e-06 4.966251e-07 -2.722433e-07) (2.502560e-04 -2.983247e-05 1.746920e-05))
5.548308      	((3.513139e-02 4.020388e-02 -1.498299e-01) (6.341152e-04 6.922800e-03 -2.004915e-03)) ((-1.077448e-06 4.106686e-07 -2.643234e-07) (2.512602e-04 -2.816737e-05 1.727220e-05))
5.628385      	((3.065473e-02 3.872987e-02 -1.500907e-01) (5.790958e-04 6.938831e-03 -1.993506e-03)) ((-1.080525e-06 3.323756e-07 -2.521993e-07) (2.520368e-04 -2.599183e-05 1.700352e-05))
5.708552      	((2.664546e-02 3.715857e-02 -1.500732e-01) (5.148020e-04 6.951029e-03 -1.984537e-03)) ((-1.084186e-06 2.726588e-07 -2.362196e-07) (2.526718e-04 -2.353218e-05 1.669750e-05))
5.788828      	((2.355994e-02 3.567190e-02 -1.500765e-01) (4.474954e-04 6.962771e-03 -1.977914e-03)) ((-1.083409e-06 2.392290e-07 -2.212606e-07) (2.532417e-04 -2.102715e-05 1.633334e-05))
5.86924       	((2.145722e-02 3.432292e-02 -1.499949e-01) (3.825770e-04 6.974088e-03 -1.972475e-03)) ((-1.074945e-06 2.234148e-07 -2.112291e-07) (2.538143e-04 -1.864188e-05 1.598847e-05))
5.9498        	((2.046036e-02 3.310980e-02 -1.500010e-01) (3.263242e-04 6.986237e-03 -1.968255e-03)) ((-1.046705e-06 2.334410e-07 -2.115879e-07) (2.544213e-04 -1.653115e-05 1.561486e-05))
6.030508      	((2.015041e-02 3.204493e-02 -1.502409e-01) (2.835711e-04 6.999079e-03 -1.968342e-03)) ((-1.004479e-06 2.612329e-07 -2.198209e-07) (2.549323e-04 -1.485264e-05 1.512985e-05))
6.111352      	((2.025090e-02 3.101355e-02 -1.507927e-01) (2.569589e-04 7.009695e-03 -1.977882e-03)) ((-9.578558e-07 2.955303e-07 -2.236322e-07) (2.550733e-04 -1.372572e-05 1.446665e-05))
6.192311      	((2.061588e-02 2.988332e-02 -1.515205e-01) (2.445079e-04 7.014105e-03 -1.999498e-03)) ((-9.133381e-07 3.357406e-07 -2.176648e-07) (2.546521e-04 -1.316339e-05 1.371671e-05))
6.273341      	((2.106216e-02 2.868103e-02 -1.524348e-01) (2.402100e-04 7.009323e-03 -2.028928e-03)) ((-8.716664e-07 3.806483e-07 -2.067573e-07) (2.537642e-04 -1.301089e-05 1.308595e-05))
6.354424      	((2.143173e-02 2.762586e-02 -1.533938e-01) (2.367175e-04 6.995256e-03 -2.056979e-03)) ((-8.384426e-07 4.230392e-07 -1.981255e-07) (2.527369e-04 -1.299214e-05 1.280008e-05))
6.435546      	((2.182982e-02 2.691758e-02 -1.540939e-01) (2.327409e-04 6.977468e-03 -2.076948e-03)) ((-8.131903e-07 4.546718e-07 -1.972654e-07) (2.518549e-04 -1.296029e-05 1.277793e-05))
6.516692      	((2.236774e-02 2.661521e-02 -1.542529e-01) (2.310775e-04 6.961029e-03 -2.088005e-03)) ((-8.051557e-07 4.643627e-07 -2.040456e-07) (2.511789e-04 -1.294920e-05 1.283602e-05))
6.59785       	((2.287910e-02 2.693379e-02 -1.542455e-01) (2.330558e-04 6.948879e-03 -2.091861e-03)) ((-8.245217e-07 4.469516e-07 -2.122647e-07) (2.506867e-04 -1.298863e-05 1.289100e-05))
6.679008      	((2.340359e-02 2.757696e-02 -1.541547e-01) (2.397487e-04 6.942211e-03 -2.090407e-03)) ((-8.505710e-07 4.232498e-07 -2.198832e-07) (2.503708e-04 -1.308264e-05 1.287074e-05))
6.760157      	((2.385520e-02 2.830223e-02 -1.540648e-01) (2.488057e-04 6.939439e-03 -2.086806e-03)) ((-8.733445e-07 4.020705e-07 -2.235545e-07) (2.501593e-04 -1.326820e-05 1.286340e-05))
6.841292      	((2.411291e-02 2.895722e-02 -1.538887e-01) (2.538081e-04 6.938468e-03 -2.083204e-03)) ((-8.981837e-07 3.717401e-07 -2.210833e-07) (2.499772e-04 -1.350863e-05 1.307363e-05))
6.922408      	((2.404851e-02 2.955854e-02 -1.537439e-01) (2.511784e-04 6.936457e-03 -2.077784e-03)) ((-9.286677e-07 3.310623e-07 -2.155167e-07) (2.498747e-04 -1.363983e-05 1.362766e-05))
7.003505      	((2.372724e-02 2.999379e-02 -1.536224e-01) (2.410054e-04 6.931761e-03 -2.070177e-03)) ((-9.551427e-07 2.972987e-07 -2.101734e-07) (2.498525e-04 -1.358317e-05 1.449893e-05))
7.084574      	((2.316954e-02 3.029310e-02 -1.534837e-01) (2.254626e-04 6.926523e-03 -2.061366e-03)) ((-9.860182e-07 2.666894e-07 -2.010306e-07) (2.499063e-04 -1.335469e-05 1.547728e-05))
7.165623      	((2.245777e-02 3.045525e-02 -1.533677e-01) (2.077374e-04 6.923975e-03 -2.051516e-03)) ((-1.018955e-06 2.408080e-07 -1.922004e-07) (2.500733e-04 -1.296495e-05 1.630316e-05))
