# Forces      
# CofR        : (0.000000e+00 0.000000e+00 0.000000e+00)
# Time        forces(pressure viscous)	moments(pressure viscous)
0             	((0.000000e+00 0.000000e+00 0.000000e+00) (-1.531147e-12 5.025017e-03 4.689487e-13)) ((0.000000e+00 0.000000e+00 0.000000e+00) (1.129064e-04 -1.660181e-14 -2.166800e-09))
0.012         	((8.511592e-06 1.479252e+00 3.254886e-01) (-7.629915e-09 6.414165e-03 -2.176714e-04)) ((-1.724602e-05 1.277147e-06 -2.643673e-07) (1.923475e-04 2.229387e-10 -1.559473e-09))
0.0264        	((-9.876377e-05 -3.477239e-01 -1.362184e-01) (-9.394664e-08 6.373908e-03 -3.322906e-04)) ((3.855034e-06 -2.207635e-07 3.025676e-08) (2.123960e-04 2.533127e-09 3.357243e-09))
0.04368       	((1.032912e-04 -1.539812e-01 -8.140423e-02) (-9.626894e-08 5.389818e-03 -3.279189e-04)) ((2.543563e-06 -8.890446e-08 6.299693e-08) (1.843593e-04 7.075786e-10 1.096423e-08))
0.064416      	((-1.789702e-05 -9.358095e-04 -6.139407e-02) (-5.186729e-07 4.760077e-03 -3.624243e-04)) ((1.080978e-07 -1.962060e-08 -6.246851e-09) (1.674691e-04 -1.688334e-09 1.094549e-08))
0.0892992     	((-2.723596e-05 -6.109266e-04 -5.305280e-02) (-1.413539e-06 4.377013e-03 -4.026143e-04)) ((1.411933e-07 7.315276e-09 3.184575e-09) (1.567198e-04 6.387748e-10 1.233744e-08))
0.119159      	((-4.870580e-05 7.296690e-04 -4.946412e-02) (-2.100581e-06 4.061241e-03 -4.262127e-04)) ((1.483552e-07 1.647287e-08 3.326344e-09) (1.466725e-04 6.059544e-09 2.098056e-08))
0.154991      	((-3.550846e-05 1.895036e-03 -4.715326e-02) (-2.581013e-06 3.803222e-03 -4.412598e-04)) ((1.170324e-07 1.610059e-08 7.927173e-10) (1.379330e-04 1.071126e-08 3.233135e-08))
0.197989      	((-3.834558e-05 2.358317e-03 -4.594010e-02) (-2.657206e-06 3.599017e-03 -4.564760e-04)) ((1.015244e-07 1.868806e-08 -5.030762e-09) (1.306232e-04 1.413830e-08 3.924286e-08))
0.249587      	((-1.452660e-05 2.666343e-03 -4.513207e-02) (-2.159512e-06 3.427779e-03 -4.802761e-04)) ((7.399579e-08 2.136194e-08 -4.617661e-09) (1.242682e-04 1.435105e-08 4.971880e-08))
0.311504      	((-9.393082e-06 2.908385e-03 -4.466467e-02) (-1.891380e-06 3.272801e-03 -5.158384e-04)) ((4.906383e-08 2.349643e-08 -5.119443e-09) (1.184123e-04 1.102791e-08 5.745570e-08))
0.385805      	((-8.694575e-06 3.221113e-03 -4.424533e-02) (-1.803524e-06 3.129324e-03 -5.607383e-04)) ((1.993417e-08 2.254991e-08 -7.764173e-09) (1.128798e-04 7.422120e-09 5.732227e-08))
0.474966      	((-6.392741e-06 3.620315e-03 -4.385948e-02) (-1.498886e-06 2.996517e-03 -6.121759e-04)) ((-1.002410e-08 2.304117e-08 -1.032262e-08) (1.076374e-04 4.478141e-09 5.772761e-08))
0.580717      	((-1.980586e-06 4.159604e-03 -4.345297e-02) (-1.088809e-06 2.877278e-03 -6.670344e-04)) ((-4.272729e-08 2.303082e-08 -1.323502e-08) (1.028274e-04 7.678736e-10 6.177026e-08))
0.703089      	((1.731760e-06 4.833796e-03 -4.305808e-02) (-7.164052e-07 2.774638e-03 -7.210806e-04)) ((-7.645411e-08 2.299876e-08 -1.658872e-08) (9.861666e-05 -2.379888e-09 6.821615e-08))
0.842092      	((5.814621e-06 5.649665e-03 -4.265793e-02) (-3.904995e-07 2.688317e-03 -7.721202e-04)) ((-1.106810e-07 2.186427e-08 -2.067979e-08) (9.504028e-05 -3.721847e-09 7.708629e-08))
0.997611      	((9.689836e-06 6.546446e-03 -4.220107e-02) (-2.448773e-08 2.617993e-03 -8.175917e-04)) ((-1.417123e-07 2.041427e-08 -2.519903e-08) (9.209306e-05 -4.186016e-09 9.026594e-08))
1.161215      	((1.336959e-05 7.520702e-03 -4.170559e-02) (3.946893e-07 2.562580e-03 -8.536787e-04)) ((-1.664369e-07 1.854431e-08 -2.991784e-08) (8.971027e-05 -5.397388e-09 1.048019e-07))
1.323134      	((1.904742e-05 8.434677e-03 -4.108023e-02) (7.925918e-07 2.516777e-03 -8.798481e-04)) ((-1.865459e-07 1.679034e-08 -3.365109e-08) (8.768704e-05 -9.191322e-09 1.188244e-07))
1.483658      	((2.295568e-05 9.282497e-03 -4.040167e-02) (8.926172e-07 2.474778e-03 -8.972716e-04)) ((-2.054576e-07 1.445153e-08 -3.624767e-08) (8.588161e-05 -1.435806e-08 1.315821e-07))
1.64343       	((2.533146e-05 9.979714e-03 -3.965544e-02) (8.207475e-07 2.435291e-03 -9.068332e-04)) ((-2.249777e-07 1.125264e-08 -3.849426e-08) (8.432418e-05 -1.864885e-08 1.441218e-07))
1.803149      	((2.988885e-05 1.048768e-02 -3.889236e-02) (7.245069e-07 2.397913e-03 -9.111542e-04)) ((-2.424431e-07 7.999258e-09 -4.078667e-08) (8.298875e-05 -2.160635e-08 1.590655e-07))
1.963202      	((3.247699e-05 1.081744e-02 -3.817146e-02) (6.839334e-07 2.364192e-03 -9.130991e-04)) ((-2.577659e-07 5.211723e-09 -4.266784e-08) (8.184709e-05 -2.247133e-08 1.765685e-07))
2.123326      	((3.595416e-05 1.094220e-02 -3.746173e-02) (7.028286e-07 2.332896e-03 -9.144930e-04)) ((-2.688365e-07 3.128839e-09 -4.389984e-08) (8.082036e-05 -2.234694e-08 1.909568e-07))
2.283061      	((4.044029e-05 1.092233e-02 -3.680743e-02) (6.289913e-07 2.304538e-03 -9.148218e-04)) ((-2.752499e-07 1.489714e-09 -4.450238e-08) (7.993341e-05 -2.404562e-08 1.986931e-07))
2.442245      	((3.943282e-05 1.076676e-02 -3.619647e-02) (4.891711e-07 2.280729e-03 -9.133330e-04)) ((-2.776478e-07 2.980523e-10 -4.490686e-08) (7.923417e-05 -2.578436e-08 2.024637e-07))
2.601005      	((3.907337e-05 1.054930e-02 -3.557353e-02) (4.051940e-07 2.260576e-03 -9.111948e-04)) ((-2.776159e-07 -6.839893e-10 -4.542141e-08) (7.865585e-05 -2.484349e-08 2.044268e-07))
2.759486      	((4.497916e-05 1.034572e-02 -3.499702e-02) (4.610187e-07 2.242360e-03 -9.093620e-04)) ((-2.752635e-07 -1.170875e-09 -4.581451e-08) (7.812691e-05 -2.520587e-08 2.015995e-07))
2.917738      	((4.773522e-05 1.016783e-02 -3.450204e-02) (4.975279e-07 2.225423e-03 -9.079148e-04)) ((-2.710868e-07 -1.617606e-09 -4.583285e-08) (7.762755e-05 -2.696310e-08 1.985549e-07))
3.075739      	((5.212212e-05 1.009452e-02 -3.407042e-02) (4.906793e-07 2.209960e-03 -9.065747e-04)) ((-2.678332e-07 -2.102398e-09 -4.595140e-08) (7.716919e-05 -2.871561e-08 1.936654e-07))
3.23347       	((5.665228e-05 1.006181e-02 -3.368033e-02) (5.787980e-07 2.195795e-03 -9.053675e-04)) ((-2.643540e-07 -2.404533e-09 -4.618018e-08) (7.674541e-05 -3.048625e-08 1.832465e-07))
3.39095       	((5.997909e-05 1.001821e-02 -3.332069e-02) (7.409352e-07 2.182493e-03 -9.046738e-04)) ((-2.608811e-07 -2.705970e-09 -4.654212e-08) (7.633510e-05 -3.223878e-08 1.712472e-07))
3.548234      	((6.818484e-05 9.953524e-03 -3.297647e-02) (9.405105e-07 2.170063e-03 -9.043453e-04)) ((-2.592073e-07 -2.779956e-09 -4.679748e-08) (7.594533e-05 -3.478087e-08 1.592660e-07))
3.705355      	((7.344937e-05 9.839824e-03 -3.262457e-02) (1.140548e-06 2.158374e-03 -9.040332e-04)) ((-2.580555e-07 -2.869695e-09 -4.691749e-08) (7.558326e-05 -3.627158e-08 1.500901e-07))
3.862326      	((8.235454e-05 9.727760e-03 -3.229879e-02) (1.363158e-06 2.147243e-03 -9.036155e-04)) ((-2.573891e-07 -2.895120e-09 -4.701429e-08) (7.524694e-05 -3.733277e-08 1.438316e-07))
4.019161      	((9.315829e-05 9.629323e-03 -3.201099e-02) (1.576678e-06 2.136802e-03 -9.031348e-04)) ((-2.570398e-07 -2.895165e-09 -4.715600e-08) (7.493819e-05 -3.975465e-08 1.406375e-07))
4.17587       	((1.054219e-04 9.566851e-03 -3.175801e-02) (1.794957e-06 2.127394e-03 -9.025631e-04)) ((-2.573615e-07 -3.033123e-09 -4.742997e-08) (7.466487e-05 -4.418499e-08 1.405035e-07))
4.332463      	((1.179485e-04 9.527160e-03 -3.152097e-02) (2.052228e-06 2.119182e-03 -9.018351e-04)) ((-2.578105e-07 -3.059403e-09 -4.776582e-08) (7.443058e-05 -5.128889e-08 1.416943e-07))
4.488947      	((1.339458e-04 9.504448e-03 -3.129697e-02) (2.302102e-06 2.112073e-03 -9.009770e-04)) ((-2.579461e-07 -2.924510e-09 -4.820304e-08) (7.423199e-05 -6.195459e-08 1.455899e-07))
4.645331      	((1.504264e-04 9.465277e-03 -3.105572e-02) (2.530019e-06 2.105642e-03 -9.001295e-04)) ((-2.576765e-07 -2.579288e-09 -4.859205e-08) (7.405325e-05 -7.621812e-08 1.522658e-07))
4.80163       	((1.663885e-04 9.419499e-03 -3.082863e-02) (2.770784e-06 2.099545e-03 -8.993761e-04)) ((-2.575466e-07 -2.208627e-09 -4.887829e-08) (7.388234e-05 -9.239509e-08 1.591332e-07))
4.957849      	((1.851280e-04 9.361894e-03 -3.060947e-02) (3.057899e-06 2.093713e-03 -8.986607e-04)) ((-2.575889e-07 -1.764366e-09 -4.905886e-08) (7.372021e-05 -1.092376e-07 1.662128e-07))
5.113991      	((2.080253e-04 9.298376e-03 -3.039860e-02) (3.402195e-06 2.088117e-03 -8.979596e-04)) ((-2.576759e-07 -1.246253e-09 -4.917639e-08) (7.356802e-05 -1.272389e-07 1.737786e-07))
5.270058      	((2.337445e-04 9.235097e-03 -3.019379e-02) (3.807613e-06 2.082749e-03 -8.972916e-04)) ((-2.577002e-07 -6.907694e-10 -4.926352e-08) (7.342507e-05 -1.471859e-07 1.824699e-07))
5.426022      	((2.611300e-04 9.181504e-03 -2.999643e-02) (4.277325e-06 2.077621e-03 -8.966343e-04)) ((-2.577377e-07 -1.236743e-10 -4.940570e-08) (7.329115e-05 -1.692379e-07 1.922858e-07))
5.581882      	((2.903269e-04 9.138776e-03 -2.980985e-02) (4.812418e-06 2.072740e-03 -8.960048e-04)) ((-2.574561e-07 4.078683e-10 -4.956374e-08) (7.316418e-05 -1.933202e-07 2.028429e-07))
5.737638      	((3.210489e-04 9.102041e-03 -2.962607e-02) (5.396738e-06 2.068053e-03 -8.954749e-04)) ((-2.569034e-07 9.933781e-10 -4.972893e-08) (7.303958e-05 -2.201392e-07 2.136788e-07))
5.893294      	((3.552811e-04 9.068147e-03 -2.944926e-02) (6.048605e-06 2.063527e-03 -8.950423e-04)) ((-2.562944e-07 1.586543e-09 -4.985037e-08) (7.291662e-05 -2.502641e-07 2.236357e-07))
6.048851      	((3.899639e-04 9.034021e-03 -2.927963e-02) (6.774084e-06 2.059173e-03 -8.946524e-04)) ((-2.556684e-07 2.211364e-09 -4.997035e-08) (7.279793e-05 -2.832682e-07 2.330375e-07))
6.204313      	((4.270052e-04 8.998940e-03 -2.911485e-02) (7.551694e-06 2.054989e-03 -8.942721e-04)) ((-2.551639e-07 2.905607e-09 -5.009002e-08) (7.268457e-05 -3.193315e-07 2.432078e-07))
6.359684      	((4.665095e-04 8.965440e-03 -2.896079e-02) (8.392080e-06 2.050965e-03 -8.939034e-04)) ((-2.546633e-07 3.665136e-09 -5.019911e-08) (7.257555e-05 -3.587277e-07 2.543305e-07))
6.514967      	((5.097927e-04 8.932091e-03 -2.881494e-02) (9.308301e-06 2.047093e-03 -8.935506e-04)) ((-2.541755e-07 4.490173e-09 -5.026657e-08) (7.247009e-05 -4.011777e-07 2.663983e-07))
6.670169      	((5.576671e-04 8.900596e-03 -2.867702e-02) (1.030963e-05 2.043406e-03 -8.932067e-04)) ((-2.537292e-07 5.358196e-09 -5.030599e-08) (7.236938e-05 -4.466591e-07 2.788227e-07))
6.825292      	((6.097054e-04 8.870267e-03 -2.854028e-02) (1.141982e-05 2.039931e-03 -8.928440e-04)) ((-2.534130e-07 6.230104e-09 -5.033353e-08) (7.227494e-05 -4.950983e-07 2.904051e-07))
6.980341      	((6.658871e-04 8.843114e-03 -2.840796e-02) (1.266041e-05 2.036677e-03 -8.924401e-04)) ((-2.531419e-07 7.163019e-09 -5.040110e-08) (7.218752e-05 -5.468044e-07 3.009591e-07))
7.135321      	((7.278706e-04 8.816283e-03 -2.827650e-02) (1.402428e-05 2.033609e-03 -8.919523e-04)) ((-2.528988e-07 8.148391e-09 -5.051052e-08) (7.210731e-05 -6.024586e-07 3.122317e-07))
7.290234      	((7.963225e-04 8.791452e-03 -2.814818e-02) (1.548768e-05 2.030674e-03 -8.913799e-04)) ((-2.526684e-07 9.258634e-09 -5.063854e-08) (7.203318e-05 -6.629976e-07 3.266238e-07))
7.445084      	((8.736568e-04 8.766164e-03 -2.802255e-02) (1.707741e-05 2.027842e-03 -8.907351e-04)) ((-2.524687e-07 1.053872e-08 -5.076218e-08) (7.196363e-05 -7.300582e-07 3.445988e-07))
7.599874      	((9.592007e-04 8.743527e-03 -2.790216e-02) (1.883201e-05 2.025108e-03 -8.900168e-04)) ((-2.523664e-07 1.195099e-08 -5.085970e-08) (7.189857e-05 -8.046658e-07 3.658676e-07))
7.754609      	((1.053417e-03 8.722939e-03 -2.778544e-02) (2.076715e-05 2.022501e-03 -8.892336e-04)) ((-2.523171e-07 1.351239e-08 -5.094077e-08) (7.183823e-05 -8.875206e-07 3.901420e-07))
7.90929       	((1.157162e-03 8.703738e-03 -2.767228e-02) (2.289131e-05 2.019998e-03 -8.884172e-04)) ((-2.522664e-07 1.531003e-08 -5.100063e-08) (7.178117e-05 -9.802417e-07 4.184141e-07))
8.063922      	((1.273155e-03 8.686521e-03 -2.756294e-02) (2.523255e-05 2.017577e-03 -8.876009e-04)) ((-2.521277e-07 1.739396e-08 -5.105424e-08) (7.172627e-05 -1.084925e-06 4.518475e-07))
8.218508      	((1.401119e-03 8.670237e-03 -2.745760e-02) (2.782526e-05 2.015255e-03 -8.867757e-04)) ((-2.518832e-07 1.977184e-08 -5.108189e-08) (7.167443e-05 -1.202435e-06 4.900879e-07))
8.373052      	((1.544385e-03 8.655596e-03 -2.735502e-02) (3.069507e-05 2.013039e-03 -8.859431e-04)) ((-2.515571e-07 2.244392e-08 -5.107995e-08) (7.162653e-05 -1.333561e-06 5.333434e-07))
8.527556      	((1.705666e-03 8.645040e-03 -2.725660e-02) (3.389235e-05 2.010961e-03 -8.851024e-04)) ((-2.512851e-07 2.532064e-08 -5.106727e-08) (7.158371e-05 -1.479919e-06 5.810396e-07))
8.682023      	((1.882763e-03 8.636703e-03 -2.716377e-02) (3.745841e-05 2.009049e-03 -8.842538e-04)) ((-2.509656e-07 2.833370e-08 -5.105004e-08) (7.154581e-05 -1.642891e-06 6.326931e-07))
8.836456      	((2.079360e-03 8.629887e-03 -2.707279e-02) (4.144513e-05 2.007268e-03 -8.834121e-04)) ((-2.506080e-07 3.162399e-08 -5.103190e-08) (7.151136e-05 -1.824125e-06 6.889016e-07))
8.990857      	((2.297720e-03 8.625604e-03 -2.698301e-02) (4.590515e-05 2.005605e-03 -8.825703e-04)) ((-2.502126e-07 3.526337e-08 -5.098738e-08) (7.148043e-05 -2.025553e-06 7.509461e-07))
9.14523       	((2.536849e-03 8.627556e-03 -2.689923e-02) (5.085329e-05 2.004099e-03 -8.817099e-04)) ((-2.498728e-07 3.926107e-08 -5.096810e-08) (7.145564e-05 -2.248376e-06 8.201080e-07))
9.299575      	((2.798651e-03 8.636610e-03 -2.682198e-02) (5.632405e-05 2.002802e-03 -8.808045e-04)) ((-2.496053e-07 4.364443e-08 -5.090713e-08) (7.144023e-05 -2.494355e-06 8.969622e-07))
9.453897      	((3.086207e-03 8.651582e-03 -2.675021e-02) (6.234915e-05 2.001737e-03 -8.798398e-04)) ((-2.493150e-07 4.837373e-08 -5.084914e-08) (7.143596e-05 -2.765656e-06 9.830730e-07))
9.608184      	((3.401173e-03 8.678088e-03 -2.668847e-02) (6.899004e-05 2.000908e-03 -8.787717e-04)) ((-2.491339e-07 5.343021e-08 -5.081591e-08) (7.144427e-05 -3.064127e-06 1.079753e-06))
9.762417      	((3.750856e-03 8.710829e-03 -2.663475e-02) (7.632615e-05 2.000404e-03 -8.775862e-04)) ((-2.487958e-07 5.905052e-08 -5.077325e-08) (7.146718e-05 -3.393938e-06 1.186731e-06))
9.916597      	((4.141574e-03 8.753731e-03 -2.659222e-02) (8.445634e-05 2.000272e-03 -8.763052e-04)) ((-2.482109e-07 6.551760e-08 -5.077522e-08) (7.150742e-05 -3.761388e-06 1.303489e-06))
10.070723     	((4.569375e-03 8.809790e-03 -2.656361e-02) (9.352622e-05 2.000539e-03 -8.750146e-04)) ((-2.475060e-07 7.249133e-08 -5.084055e-08) (7.156558e-05 -4.169896e-06 1.428526e-06))
10.224797     	((5.039056e-03 8.884701e-03 -2.655145e-02) (1.036264e-04 2.001338e-03 -8.737051e-04)) ((-2.467083e-07 8.026702e-08 -5.097067e-08) (7.164517e-05 -4.621435e-06 1.564139e-06))
10.378823     	((5.556761e-03 8.979838e-03 -2.655254e-02) (1.147598e-04 2.002817e-03 -8.723050e-04)) ((-2.458142e-07 8.850674e-08 -5.110600e-08) (7.175098e-05 -5.118041e-06 1.712412e-06))
10.532802     	((6.123003e-03 9.101359e-03 -2.657137e-02) (1.269677e-04 2.005196e-03 -8.706780e-04)) ((-2.451286e-07 9.695038e-08 -5.125251e-08) (7.189211e-05 -5.661744e-06 1.870364e-06))
10.686737     	((6.740467e-03 9.251916e-03 -2.660717e-02) (1.403756e-04 2.008664e-03 -8.686485e-04)) ((-2.446905e-07 1.057517e-07 -5.121433e-08) (7.207931e-05 -6.252778e-06 2.036789e-06))
10.840627     	((7.404127e-03 9.435110e-03 -2.666386e-02) (1.552276e-04 2.013130e-03 -8.661517e-04)) ((-2.446161e-07 1.150320e-07 -5.113993e-08) (7.231998e-05 -6.892867e-06 2.210913e-06))
10.994473     	((8.113558e-03 9.654994e-03 -2.674006e-02) (1.716400e-04 2.018620e-03 -8.632372e-04)) ((-2.449986e-07 1.249994e-07 -5.100315e-08) (7.261936e-05 -7.584034e-06 2.389328e-06))
11.148275     	((8.876398e-03 9.930777e-03 -2.685144e-02) (1.896569e-04 2.025537e-03 -8.599298e-04)) ((-2.465106e-07 1.353940e-07 -5.077837e-08) (7.298550e-05 -8.329781e-06 2.570311e-06))
11.30203      	((9.665058e-03 1.026418e-02 -2.701440e-02) (2.091938e-04 2.034237e-03 -8.562390e-04)) ((-2.491317e-07 1.453063e-07 -5.061254e-08) (7.342546e-05 -9.124659e-06 2.759825e-06))
11.455733     	((1.047666e-02 1.063891e-02 -2.721629e-02) (2.300056e-04 2.044883e-03 -8.522658e-04)) ((-2.517691e-07 1.554132e-07 -5.052416e-08) (7.394082e-05 -9.959519e-06 2.958268e-06))
11.609374     	((1.130628e-02 1.106356e-02 -2.746578e-02) (2.519469e-04 2.057628e-03 -8.480998e-04)) ((-2.544708e-07 1.660116e-07 -5.060283e-08) (7.453277e-05 -1.083153e-05 3.161760e-06))
11.762939     	((1.213921e-02 1.154661e-02 -2.775706e-02) (2.751161e-04 2.072634e-03 -8.437314e-04)) ((-2.575771e-07 1.763476e-07 -5.095583e-08) (7.520456e-05 -1.173979e-05 3.357135e-06))
11.916455     	((1.293105e-02 1.207845e-02 -2.808964e-02) (2.992965e-04 2.089990e-03 -8.392124e-04)) ((-2.618606e-07 1.856012e-07 -5.139821e-08) (7.595537e-05 -1.267270e-05 3.533219e-06))
12.069938     	((1.365365e-02 1.266295e-02 -2.846925e-02) (3.239270e-04 2.109638e-03 -8.344739e-04)) ((-2.676809e-07 1.933474e-07 -5.179811e-08) (7.678095e-05 -1.361168e-05 3.685188e-06))
12.223371     	((1.428466e-02 1.329097e-02 -2.889161e-02) (3.484215e-04 2.131629e-03 -8.292704e-04)) ((-2.751489e-07 1.989612e-07 -5.240328e-08) (7.768299e-05 -1.454086e-05 3.814171e-06))
12.376771     	((1.478268e-02 1.391378e-02 -2.933611e-02) (3.720880e-04 2.155763e-03 -8.235133e-04)) ((-2.830346e-07 2.019691e-07 -5.321855e-08) (7.865361e-05 -1.543590e-05 3.913402e-06))
12.530159     	((1.510633e-02 1.449861e-02 -2.980002e-02) (3.941098e-04 2.181532e-03 -8.172888e-04)) ((-2.904262e-07 2.018340e-07 -5.398994e-08) (7.966929e-05 -1.626316e-05 3.973500e-06))
12.683543     	((1.523832e-02 1.499375e-02 -3.021881e-02) (4.136622e-04 2.207582e-03 -8.107158e-04)) ((-2.969378e-07 1.988090e-07 -5.432386e-08) (8.069406e-05 -1.699503e-05 4.001055e-06))
12.83692      	((1.509005e-02 1.538923e-02 -3.064271e-02) (4.296244e-04 2.232131e-03 -8.038688e-04)) ((-3.026336e-07 1.905826e-07 -5.425970e-08) (8.168499e-05 -1.759369e-05 4.001824e-06))
12.990313     	((1.464202e-02 1.561945e-02 -3.104479e-02) (4.405796e-04 2.254029e-03 -7.967411e-04)) ((-3.066101e-07 1.773648e-07 -5.368326e-08) (8.260372e-05 -1.799774e-05 3.970870e-06))
13.143741     	((1.385202e-02 1.561606e-02 -3.136748e-02) (4.450441e-04 2.272559e-03 -7.895443e-04)) ((-3.083538e-07 1.592981e-07 -5.249890e-08) (8.340121e-05 -1.813922e-05 3.896653e-06))
13.29724      	((1.270138e-02 1.537875e-02 -3.158760e-02) (4.412101e-04 2.286683e-03 -7.823877e-04)) ((-3.086666e-07 1.369911e-07 -5.152175e-08) (8.404109e-05 -1.794841e-05 3.784848e-06))
13.450856     	((1.116265e-02 1.492304e-02 -3.175173e-02) (4.272973e-04 2.295680e-03 -7.756234e-04)) ((-3.072415e-07 1.110748e-07 -5.037619e-08) (8.449656e-05 -1.737011e-05 3.643297e-06))
13.604657     	((9.274230e-03 1.426453e-02 -3.183701e-02) (4.019772e-04 2.299518e-03 -7.704638e-04)) ((-3.018426e-07 8.138987e-08 -4.911287e-08) (8.473074e-05 -1.638113e-05 3.473553e-06))
13.758696     	((7.094006e-03 1.357617e-02 -3.188708e-02) (3.653407e-04 2.298998e-03 -7.681507e-04)) ((-2.943553e-07 4.844396e-08 -4.849708e-08) (8.472908e-05 -1.501332e-05 3.286570e-06))
13.912985     	((4.835522e-03 1.293147e-02 -3.190108e-02) (3.194751e-04 2.295825e-03 -7.695962e-04)) ((-2.861582e-07 1.740407e-08 -4.618031e-08) (8.451820e-05 -1.335870e-05 3.063914e-06))
14.067539     	((2.675917e-03 1.239415e-02 -3.188367e-02) (2.673702e-04 2.291063e-03 -7.747972e-04)) ((-2.791039e-07 -9.271035e-09 -4.075419e-08) (8.414005e-05 -1.152507e-05 2.813324e-06))
14.222368     	((7.769996e-04 1.200041e-02 -3.182118e-02) (2.129905e-04 2.286492e-03 -7.825213e-04)) ((-2.776982e-07 -3.505064e-08 -3.250247e-08) (8.367138e-05 -9.617950e-06 2.515459e-06))
