# Forces      
# CofR        : (0.000000e+00 0.000000e+00 0.000000e+00)
# Time        forces(pressure viscous)	moments(pressure viscous)
0             	((0.000000e+00 0.000000e+00 0.000000e+00) (-1.544541e-12 2.518474e-03 1.505195e-13)) ((0.000000e+00 0.000000e+00 0.000000e+00) (5.658727e-05 -9.464306e-15 -1.086064e-09))
0.012         	((1.444987e-06 7.378591e-01 1.732591e-01) (1.107983e-09 2.974054e-03 -4.792407e-05)) ((-8.638408e-06 6.310666e-07 -1.344755e-07) (8.744316e-05 -1.910684e-10 -1.507228e-09))
0.0264        	((-2.635298e-05 -1.229519e-01 -4.176121e-02) (-4.455820e-08 2.974505e-03 -7.323556e-05)) ((1.352110e-06 -7.743731e-08 9.555877e-09) (9.679238e-05 8.022837e-11 6.296769e-11))
0.04368       	((3.325286e-05 -1.128941e-01 -3.050074e-02) (-5.533895e-08 2.570207e-03 -7.265304e-05)) ((1.609018e-06 -5.922540e-08 4.127262e-08) (8.534359e-05 -2.710021e-10 2.339495e-09))
0.064416      	((-5.875703e-06 -3.218219e-05 -1.889121e-02) (2.917297e-08 2.264653e-03 -8.117856e-05)) ((9.639856e-09 -1.677887e-08 -7.086082e-09) (7.752311e-05 -7.274125e-10 3.829451e-09))
0.0892992     	((-4.006169e-06 -8.952567e-04 -1.550605e-02) (-6.923789e-08 2.083550e-03 -9.818521e-05)) ((2.512617e-08 -7.038290e-09 5.602093e-10) (7.324358e-05 1.160118e-10 5.848482e-09))
0.119159      	((-4.736069e-06 -8.833358e-04 -1.368769e-02) (-3.396740e-07 1.931349e-03 -1.126015e-04)) ((6.061542e-08 -1.101010e-09 1.353692e-10) (6.883371e-05 1.247918e-09 8.064089e-09))
0.154991      	((-6.955112e-06 1.778306e-04 -1.267923e-02) (-5.488913e-07 1.792385e-03 -1.230500e-04)) ((4.095130e-08 1.577728e-09 4.276872e-10) (6.457635e-05 2.299314e-09 9.688975e-09))
0.197989      	((-3.511373e-06 5.189476e-04 -1.200234e-02) (-7.146936e-07 1.671140e-03 -1.326293e-04)) ((3.450623e-08 3.408279e-09 4.001775e-10) (6.068074e-05 2.945880e-09 9.292312e-09))
0.249587      	((-5.072175e-06 7.006092e-04 -1.160128e-02) (-7.523295e-07 1.568122e-03 -1.425814e-04)) ((3.037454e-08 4.353029e-09 -4.445718e-12) (5.716143e-05 3.240330e-09 9.659987e-09))
0.311504      	((-2.062438e-06 8.151192e-04 -1.135146e-02) (-6.349206e-07 1.478404e-03 -1.537781e-04)) ((2.532915e-08 4.695864e-09 -8.468034e-10) (5.394600e-05 3.059154e-09 1.126962e-08))
0.385805      	((-2.185949e-06 8.832151e-04 -1.118215e-02) (-5.206661e-07 1.395496e-03 -1.677036e-04)) ((1.927283e-08 4.884772e-09 -9.416895e-10) (5.088923e-05 2.664254e-09 1.311322e-08))
0.474966      	((-1.413223e-06 9.387743e-04 -1.105951e-02) (-4.884524e-07 1.315310e-03 -1.848551e-04)) ((1.306079e-08 4.846330e-09 -1.145747e-09) (4.788878e-05 2.617996e-09 1.387678e-08))
0.581959      	((-1.348338e-06 1.003382e-03 -1.095727e-02) (-4.477715e-07 1.237669e-03 -2.046975e-04)) ((7.022083e-09 4.793345e-09 -1.461015e-09) (4.495647e-05 2.381221e-09 1.399262e-08))
0.710351      	((-7.951038e-07 1.089713e-03 -1.086198e-02) (-3.535780e-07 1.164238e-03 -2.266086e-04)) ((7.806255e-10 4.432914e-09 -1.940379e-09) (4.215176e-05 1.657919e-09 1.495802e-08))
0.864421      	((-3.600054e-07 1.208981e-03 -1.076380e-02) (-2.680328e-07 1.096426e-03 -2.499141e-04)) ((-5.743010e-09 4.026976e-09 -2.438022e-09) (3.952798e-05 7.352653e-10 1.614650e-08))
1.049306      	((-1.655576e-07 1.369313e-03 -1.065744e-02) (-1.776798e-07 1.035049e-03 -2.735327e-04)) ((-1.288701e-08 3.403189e-09 -3.074283e-09) (3.712931e-05 2.247435e-10 1.796575e-08))
1.266283      	((7.810499e-07 1.576456e-03 -1.054577e-02) (-4.043231e-08 9.814687e-04 -2.959631e-04)) ((-2.048835e-08 2.461194e-09 -3.835426e-09) (3.502661e-05 -2.377036e-10 2.146755e-08))
1.515073      	((1.450353e-06 1.830539e-03 -1.042995e-02) (7.627799e-08 9.360249e-04 -3.161323e-04)) ((-2.802476e-08 1.367622e-09 -4.721941e-09) (3.325050e-05 -9.812884e-10 2.588338e-08))
1.795402      	((1.784017e-06 2.130665e-03 -1.030968e-02) (1.552459e-07 8.982530e-04 -3.337759e-04)) ((-3.476160e-08 1.960257e-10 -5.693829e-09) (3.177461e-05 -1.863377e-09 3.156616e-08))
2.106952      	((2.470452e-06 2.468196e-03 -1.017171e-02) (1.379128e-07 8.676052e-04 -3.490651e-04)) ((-4.032422e-08 -1.007283e-09 -6.775507e-09) (3.054357e-05 -2.871696e-09 3.734482e-08))
2.41529       	((2.436712e-06 2.807656e-03 -1.001622e-02) (1.102184e-07 8.437826e-04 -3.606070e-04)) ((-4.439955e-08 -2.297627e-09 -7.728728e-09) (2.955106e-05 -4.427378e-09 4.076084e-08))
2.719614      	((2.922649e-06 3.130290e-03 -9.833146e-03) (1.293197e-07 8.244154e-04 -3.680571e-04)) ((-4.791328e-08 -3.423551e-09 -8.483736e-09) (2.873910e-05 -6.176555e-09 4.273310e-08))
3.020247      	((3.970927e-06 3.417196e-03 -9.632928e-03) (1.117338e-07 8.087331e-04 -3.712407e-04)) ((-5.174205e-08 -4.521207e-09 -9.159638e-09) (2.811387e-05 -7.354426e-09 4.539470e-08))
3.318684      	((4.698573e-06 3.635008e-03 -9.416689e-03) (3.166059e-08 7.957276e-04 -3.711623e-04)) ((-5.602327e-08 -5.543684e-09 -1.004268e-08) (2.764150e-05 -7.497368e-09 4.769140e-08))
3.616438      	((5.929430e-06 3.781384e-03 -9.195872e-03) (-3.892944e-08 7.847339e-04 -3.694639e-04)) ((-6.007492e-08 -6.310609e-09 -1.107773e-08) (2.727251e-05 -6.790453e-09 5.014877e-08))
3.914161      	((6.556560e-06 3.855336e-03 -8.970640e-03) (-7.485133e-08 7.747128e-04 -3.674291e-04)) ((-6.415527e-08 -6.840189e-09 -1.218115e-08) (2.694832e-05 -5.699608e-09 5.283692e-08))
4.211665      	((7.254364e-06 3.858141e-03 -8.756157e-03) (-8.243526e-08 7.653046e-04 -3.652976e-04)) ((-6.772356e-08 -7.044529e-09 -1.302014e-08) (2.666009e-05 -5.284676e-09 5.294115e-08))
4.50832       	((7.822064e-06 3.793940e-03 -8.546813e-03) (-3.882747e-08 7.564016e-04 -3.631197e-04)) ((-6.976678e-08 -6.769126e-09 -1.344056e-08) (2.640683e-05 -5.776895e-09 5.042560e-08))
4.803654      	((9.115370e-06 3.717556e-03 -8.368792e-03) (-9.708078e-09 7.479305e-04 -3.609656e-04)) ((-7.138556e-08 -6.380105e-09 -1.343547e-08) (2.618227e-05 -6.208512e-09 4.918782e-08))
5.097739      	((9.427023e-06 3.652107e-03 -8.228254e-03) (-7.241958e-09 7.403225e-04 -3.588614e-04)) ((-7.217705e-08 -6.149356e-09 -1.323640e-08) (2.599269e-05 -7.367237e-09 4.916167e-08))
5.390871      	((1.049034e-05 3.610437e-03 -8.097776e-03) (2.037005e-09 7.342367e-04 -3.566725e-04)) ((-7.211134e-08 -6.160536e-09 -1.305759e-08) (2.585087e-05 -8.659862e-09 4.908065e-08))
5.683196      	((1.131053e-05 3.590455e-03 -7.960115e-03) (9.129436e-08 7.293202e-04 -3.543355e-04)) ((-7.179352e-08 -6.352436e-09 -1.306862e-08) (2.574435e-05 -9.895761e-09 4.503267e-08))
5.974709      	((1.260455e-05 3.576698e-03 -7.832211e-03) (1.968323e-07 7.249837e-04 -3.521406e-04)) ((-7.098616e-08 -6.529947e-09 -1.329806e-08) (2.564851e-05 -1.111806e-08 4.118664e-08))
6.265376      	((1.472819e-05 3.559145e-03 -7.722224e-03) (3.110130e-07 7.208720e-04 -3.502937e-04)) ((-7.040653e-08 -6.601730e-09 -1.350146e-08) (2.554981e-05 -1.285303e-08 3.793094e-08))
6.555202      	((1.751666e-05 3.525983e-03 -7.619229e-03) (4.331178e-07 7.166180e-04 -3.488125e-04)) ((-7.006535e-08 -6.511682e-09 -1.361608e-08) (2.543956e-05 -1.556312e-08 3.502074e-08))
6.844245      	((1.859051e-05 3.479508e-03 -7.518039e-03) (5.231295e-07 7.122001e-04 -3.476704e-04)) ((-6.987850e-08 -6.290962e-09 -1.364936e-08) (2.532060e-05 -1.819636e-08 3.478531e-08))
7.132576      	((1.991522e-05 3.435976e-03 -7.427747e-03) (5.775731e-07 7.079531e-04 -3.467478e-04)) ((-6.992803e-08 -6.087421e-09 -1.361475e-08) (2.520686e-05 -2.035618e-08 3.548448e-08))
7.420254      	((2.192352e-05 3.395319e-03 -7.343417e-03) (6.213613e-07 7.040107e-04 -3.459697e-04)) ((-6.995109e-08 -5.887248e-09 -1.350663e-08) (2.510248e-05 -2.301719e-08 3.582542e-08))
7.707394      	((2.526514e-05 3.363015e-03 -7.268596e-03) (6.828991e-07 7.003127e-04 -3.453754e-04)) ((-6.981594e-08 -5.682253e-09 -1.335942e-08) (2.500297e-05 -2.649836e-08 3.581042e-08))
7.994117      	((2.775753e-05 3.340246e-03 -7.198094e-03) (7.657043e-07 6.968983e-04 -3.449092e-04)) ((-6.964093e-08 -5.510257e-09 -1.324162e-08) (2.490987e-05 -3.079185e-08 3.574256e-08))
8.280485      	((3.038445e-05 3.325551e-03 -7.125703e-03) (8.614070e-07 6.938681e-04 -3.444523e-04)) ((-6.958184e-08 -5.359903e-09 -1.319293e-08) (2.482797e-05 -3.610842e-08 3.577391e-08))
8.566512      	((3.372386e-05 3.314819e-03 -7.050964e-03) (9.661052e-07 6.912330e-04 -3.439568e-04)) ((-6.959258e-08 -5.194207e-09 -1.321157e-08) (2.475784e-05 -4.236503e-08 3.652986e-08))
8.852203      	((3.691986e-05 3.306119e-03 -6.978463e-03) (1.078905e-06 6.888896e-04 -3.434716e-04)) ((-6.967090e-08 -5.024503e-09 -1.326791e-08) (2.469480e-05 -4.886385e-08 3.867007e-08))
9.13756       	((4.053779e-05 3.295978e-03 -6.908784e-03) (1.187928e-06 6.866932e-04 -3.430466e-04)) ((-6.979603e-08 -4.867504e-09 -1.331270e-08) (2.463441e-05 -5.551694e-08 4.235097e-08))
9.422564      	((4.474606e-05 3.282353e-03 -6.840615e-03) (1.313484e-06 6.845183e-04 -3.426945e-04)) ((-6.996361e-08 -4.698732e-09 -1.332150e-08) (2.457431e-05 -6.296419e-08 4.581923e-08))
9.707234      	((4.821023e-05 3.265393e-03 -6.772856e-03) (1.460677e-06 6.822980e-04 -3.424074e-04)) ((-7.015319e-08 -4.535341e-09 -1.330516e-08) (2.451326e-05 -7.092375e-08 4.766960e-08))
9.991586      	((5.150449e-05 3.247145e-03 -6.707206e-03) (1.614956e-06 6.800422e-04 -3.421607e-04)) ((-7.023517e-08 -4.324190e-09 -1.327568e-08) (2.445170e-05 -7.896750e-08 4.863262e-08))
10.275633     	((5.592939e-05 3.231096e-03 -6.643716e-03) (1.783938e-06 6.778179e-04 -3.419355e-04)) ((-7.020665e-08 -4.095932e-09 -1.324637e-08) (2.439141e-05 -8.762248e-08 4.961918e-08))
10.559387     	((6.077558e-05 3.218023e-03 -6.581768e-03) (1.972876e-06 6.756914e-04 -3.417019e-04)) ((-7.013318e-08 -3.920454e-09 -1.322016e-08) (2.433432e-05 -9.684267e-08 5.095727e-08))
10.842853     	((6.586775e-05 3.208104e-03 -6.521533e-03) (2.170100e-06 6.736935e-04 -3.414327e-04)) ((-7.006728e-08 -3.802126e-09 -1.320601e-08) (2.428135e-05 -1.062738e-07 5.234850e-08))
11.126037     	((7.074492e-05 3.199418e-03 -6.462201e-03) (2.367077e-06 6.718157e-04 -3.411238e-04)) ((-7.000943e-08 -3.686498e-09 -1.322084e-08) (2.423188e-05 -1.155713e-07 5.333212e-08))
11.408945     	((7.654830e-05 3.191797e-03 -6.403533e-03) (2.566524e-06 6.700436e-04 -3.407734e-04)) ((-6.997425e-08 -3.512084e-09 -1.325719e-08) (2.418552e-05 -1.248462e-07 5.436175e-08))
11.691583     	((8.261642e-05 3.184996e-03 -6.348807e-03) (2.787542e-06 6.683668e-04 -3.404012e-04)) ((-6.994594e-08 -3.309669e-09 -1.330834e-08) (2.414216e-05 -1.344327e-07 5.589060e-08))
11.973956     	((9.048536e-05 3.175480e-03 -6.293872e-03) (3.035306e-06 6.667464e-04 -3.400282e-04)) ((-6.989402e-08 -3.073579e-09 -1.334431e-08) (2.410047e-05 -1.448517e-07 5.894511e-08))
12.256073     	((9.956208e-05 3.165442e-03 -6.240947e-03) (3.319500e-06 6.651752e-04 -3.396480e-04)) ((-6.983535e-08 -2.826934e-09 -1.337227e-08) (2.406031e-05 -1.566168e-07 6.336176e-08))
12.537944     	((1.093002e-04 3.154058e-03 -6.188456e-03) (3.640984e-06 6.636639e-04 -3.392585e-04)) ((-6.975376e-08 -2.579202e-09 -1.339539e-08) (2.402159e-05 -1.696321e-07 6.799718e-08))
12.819582     	((1.193583e-04 3.142585e-03 -6.137880e-03) (3.991470e-06 6.622036e-04 -3.388780e-04)) ((-6.963232e-08 -2.327726e-09 -1.341263e-08) (2.398353e-05 -1.836516e-07 7.249362e-08))
13.100999     	((1.307333e-04 3.131060e-03 -6.086536e-03) (4.382132e-06 6.607737e-04 -3.385023e-04)) ((-6.950796e-08 -2.073687e-09 -1.341176e-08) (2.394585e-05 -1.991192e-07 7.683361e-08))
13.382206     	((1.427589e-04 3.119183e-03 -6.034583e-03) (4.805896e-06 6.593481e-04 -3.381297e-04)) ((-6.936467e-08 -1.836178e-09 -1.339387e-08) (2.390787e-05 -2.159918e-07 8.166938e-08))
13.663211     	((1.558023e-04 3.109159e-03 -5.984739e-03) (5.253046e-06 6.579356e-04 -3.377594e-04)) ((-6.925578e-08 -1.594193e-09 -1.337668e-08) (2.386991e-05 -2.343243e-07 8.770432e-08))
13.944021     	((1.704861e-04 3.099793e-03 -5.936961e-03) (5.743426e-06 6.565569e-04 -3.374058e-04)) ((-6.914693e-08 -1.307234e-09 -1.335815e-08) (2.383231e-05 -2.548855e-07 9.431540e-08))
14.224644     	((1.875199e-04 3.090891e-03 -5.889519e-03) (6.300079e-06 6.552189e-04 -3.370826e-04)) ((-6.906577e-08 -9.690819e-10 -1.334444e-08) (2.379485e-05 -2.787372e-07 1.011331e-07))
14.505083     	((2.059346e-04 3.082891e-03 -5.843875e-03) (6.919845e-06 6.539254e-04 -3.367700e-04)) ((-6.906109e-08 -6.305408e-10 -1.332949e-08) (2.375817e-05 -3.060101e-07 1.087459e-07))
14.785346     	((2.259586e-04 3.075405e-03 -5.799573e-03) (7.598331e-06 6.526756e-04 -3.364441e-04)) ((-6.912397e-08 -3.014540e-10 -1.330846e-08) (2.372313e-05 -3.363697e-07 1.179531e-07))
15.065443     	((2.472570e-04 3.067778e-03 -5.755641e-03) (8.332843e-06 6.514700e-04 -3.360927e-04)) ((-6.923313e-08 4.115085e-11 -1.327524e-08) (2.369040e-05 -3.697689e-07 1.291011e-07))
15.345386     	((2.701073e-04 3.060551e-03 -5.712983e-03) (9.123420e-06 6.503103e-04 -3.356940e-04)) ((-6.940224e-08 4.142055e-10 -1.322996e-08) (2.366094e-05 -4.063081e-07 1.419968e-07))
15.625185     	((2.944823e-04 3.054144e-03 -5.671424e-03) (9.974856e-06 6.492068e-04 -3.352278e-04)) ((-6.961580e-08 8.220579e-10 -1.317914e-08) (2.363563e-05 -4.459171e-07 1.563394e-07))
15.904852     	((3.216716e-04 3.047518e-03 -5.630358e-03) (1.090567e-05 6.481497e-04 -3.347048e-04)) ((-6.980094e-08 1.295134e-09 -1.311747e-08) (2.361349e-05 -4.889432e-07 1.718890e-07))
16.184395     	((3.513981e-04 3.042715e-03 -5.590986e-03) (1.193782e-05 6.471337e-04 -3.341553e-04)) ((-6.996372e-08 1.801738e-09 -1.305575e-08) (2.359284e-05 -5.359839e-07 1.882230e-07))
16.463824     	((3.838679e-04 3.038243e-03 -5.552730e-03) (1.308631e-05 6.461521e-04 -3.336213e-04)) ((-7.007300e-08 2.358258e-09 -1.299619e-08) (2.357184e-05 -5.876097e-07 2.045025e-07))
16.743148     	((4.197029e-04 3.034267e-03 -5.515109e-03) (1.436344e-05 6.451978e-04 -3.331229e-04)) ((-7.017408e-08 2.965580e-09 -1.293859e-08) (2.354974e-05 -6.443963e-07 2.206182e-07))
17.022376     	((4.592485e-04 3.030229e-03 -5.478093e-03) (1.577286e-05 6.442678e-04 -3.326416e-04)) ((-7.029660e-08 3.612901e-09 -1.287403e-08) (2.352745e-05 -7.065793e-07 2.375890e-07))
17.301515     	((5.023076e-04 3.026240e-03 -5.441423e-03) (1.730992e-05 6.433609e-04 -3.321623e-04)) ((-7.041188e-08 4.315574e-09 -1.280967e-08) (2.350584e-05 -7.741857e-07 2.563292e-07))
17.580575     	((5.497495e-04 3.022726e-03 -5.405853e-03) (1.899059e-05 6.424773e-04 -3.316904e-04)) ((-7.047851e-08 5.098629e-09 -1.274498e-08) (2.348473e-05 -8.476250e-07 2.769118e-07))
17.859546     	((6.017169e-04 3.020235e-03 -5.371382e-03) (2.083351e-05 6.416166e-04 -3.312330e-04)) ((-7.049295e-08 5.968094e-09 -1.268361e-08) (2.346427e-05 -9.275770e-07 2.996091e-07))
18.138391     	((6.581495e-04 3.019881e-03 -5.339266e-03) (2.284978e-05 6.408045e-04 -3.307810e-04)) ((-7.049148e-08 6.913632e-09 -1.262434e-08) (2.344578e-05 -1.014508e-06 3.243818e-07))
18.417112     	((7.194277e-04 3.021060e-03 -5.308709e-03) (2.505676e-05 6.400537e-04 -3.303296e-04)) ((-7.046528e-08 7.931998e-09 -1.255299e-08) (2.342980e-05 -1.109231e-06 3.508889e-07))
18.695712     	((7.854875e-04 3.023986e-03 -5.280337e-03) (2.747555e-05 6.393674e-04 -3.298781e-04)) ((-7.044094e-08 9.006812e-09 -1.247865e-08) (2.341661e-05 -1.212547e-06 3.791539e-07))
18.974193     	((8.569655e-04 3.027782e-03 -5.254220e-03) (3.013049e-05 6.387522e-04 -3.294328e-04)) ((-7.039518e-08 1.018529e-08 -1.239339e-08) (2.340633e-05 -1.325385e-06 4.085793e-07))
19.252563     	((9.355248e-04 3.033538e-03 -5.228860e-03) (3.305623e-05 6.382196e-04 -3.289923e-04)) ((-7.035787e-08 1.148302e-08 -1.229830e-08) (2.339903e-05 -1.449193e-06 4.387492e-07))
19.530829     	((1.020311e-03 3.042395e-03 -5.206861e-03) (3.627287e-05 6.377990e-04 -3.285390e-04)) ((-7.034979e-08 1.283923e-08 -1.219629e-08) (2.339587e-05 -1.584843e-06 4.695515e-07))
19.808999     	((1.111568e-03 3.053164e-03 -5.186140e-03) (3.978390e-05 6.375021e-04 -3.280684e-04)) ((-7.033072e-08 1.427478e-08 -1.208915e-08) (2.339728e-05 -1.732717e-06 5.015145e-07))
20.087079     	((1.210429e-03 3.068040e-03 -5.166787e-03) (4.362125e-05 6.373444e-04 -3.275828e-04)) ((-7.033707e-08 1.579172e-08 -1.196472e-08) (2.340361e-05 -1.893425e-06 5.349576e-07))
20.365073     	((1.316242e-03 3.086808e-03 -5.151614e-03) (4.781595e-05 6.373610e-04 -3.270599e-04)) ((-7.037413e-08 1.739902e-08 -1.183034e-08) (2.341634e-05 -2.067786e-06 5.692465e-07))
20.642981     	((1.429870e-03 3.110023e-03 -5.140561e-03) (5.239365e-05 6.375904e-04 -3.264679e-04)) ((-7.043243e-08 1.910537e-08 -1.167195e-08) (2.343707e-05 -2.257034e-06 6.034301e-07))
20.920807     	((1.554965e-03 3.137771e-03 -5.131322e-03) (5.740599e-05 6.380630e-04 -3.258016e-04)) ((-7.049468e-08 2.100452e-08 -1.148239e-08) (2.346714e-05 -2.463761e-06 6.372081e-07))
21.198553     	((1.690189e-03 3.169829e-03 -5.123673e-03) (6.287428e-05 6.387892e-04 -3.250870e-04)) ((-7.055626e-08 2.302614e-08 -1.126410e-08) (2.350675e-05 -2.689362e-06 6.720337e-07))
21.476225     	((1.835121e-03 3.209709e-03 -5.122179e-03) (6.880084e-05 6.397924e-04 -3.243183e-04)) ((-7.065746e-08 2.515964e-08 -1.102830e-08) (2.355687e-05 -2.933895e-06 7.091523e-07))
21.753832     	((1.990767e-03 3.256471e-03 -5.123969e-03) (7.520871e-05 6.411594e-04 -3.234964e-04)) ((-7.074511e-08 2.743126e-08 -1.077276e-08) (2.361962e-05 -3.197713e-06 7.487526e-07))
22.031377     	((2.157860e-03 3.313017e-03 -5.131863e-03) (8.210785e-05 6.429383e-04 -3.226288e-04)) ((-7.084397e-08 2.987902e-08 -1.049228e-08) (2.369778e-05 -3.481974e-06 7.916624e-07))
22.308859     	((2.335134e-03 3.377489e-03 -5.143056e-03) (8.952183e-05 6.451419e-04 -3.217402e-04)) ((-7.101711e-08 3.241717e-08 -1.017164e-08) (2.379271e-05 -3.787546e-06 8.368260e-07))
22.586293     	((2.518967e-03 3.453052e-03 -5.161894e-03) (9.748859e-05 6.478085e-04 -3.207994e-04)) ((-7.141054e-08 3.491061e-08 -9.838658e-09) (2.390694e-05 -4.113655e-06 8.824185e-07))
22.863698     	((2.707583e-03 3.541222e-03 -5.191696e-03) (1.059658e-04 6.509849e-04 -3.197631e-04)) ((-7.205380e-08 3.729947e-08 -9.506777e-09) (2.404457e-05 -4.458239e-06 9.295946e-07))
23.141093     	((2.900419e-03 3.641716e-03 -5.233034e-03) (1.148765e-04 6.547120e-04 -3.186584e-04)) ((-7.283406e-08 3.961750e-08 -9.171376e-09) (2.420737e-05 -4.818586e-06 9.808791e-07))
23.418492     	((3.098069e-03 3.755721e-03 -5.282975e-03) (1.241894e-04 6.590227e-04 -3.175215e-04)) ((-7.386767e-08 4.194075e-08 -8.858549e-09) (2.439668e-05 -5.192802e-06 1.037018e-06))
23.695919     	((3.297510e-03 3.882741e-03 -5.343947e-03) (1.338824e-04 6.639837e-04 -3.163600e-04)) ((-7.510269e-08 4.428027e-08 -8.575407e-09) (2.461362e-05 -5.580098e-06 1.094174e-06))
23.973396     	((3.494978e-03 4.022342e-03 -5.414393e-03) (1.439453e-04 6.697433e-04 -3.151389e-04)) ((-7.662782e-08 4.668692e-08 -8.298771e-09) (2.486059e-05 -5.980132e-06 1.146082e-06))
24.250944     	((3.683037e-03 4.173666e-03 -5.493739e-03) (1.542603e-04 6.763712e-04 -3.138326e-04)) ((-7.847179e-08 4.876545e-08 -8.043316e-09) (2.513998e-05 -6.388764e-06 1.190734e-06))
24.52857      	((3.857479e-03 4.336843e-03 -5.583181e-03) (1.646446e-04 6.839034e-04 -3.123723e-04)) ((-8.069047e-08 5.051702e-08 -7.865096e-09) (2.545476e-05 -6.798714e-06 1.231094e-06))
24.80627      	((4.010527e-03 4.509430e-03 -5.687565e-03) (1.749272e-04 6.923278e-04 -3.107360e-04)) ((-8.313814e-08 5.181282e-08 -7.798711e-09) (2.580496e-05 -7.201820e-06 1.265364e-06))
25.084068     	((4.133836e-03 4.680563e-03 -5.799425e-03) (1.849285e-04 7.015461e-04 -3.089876e-04)) ((-8.559594e-08 5.254009e-08 -7.843145e-09) (2.618427e-05 -7.588475e-06 1.285516e-06))
25.361997     	((4.218544e-03 4.843073e-03 -5.912111e-03) (1.943501e-04 7.113152e-04 -3.071324e-04)) ((-8.802323e-08 5.255755e-08 -7.945858e-09) (2.658349e-05 -7.947669e-06 1.289117e-06))
25.640101     	((4.256834e-03 4.989277e-03 -6.025959e-03) (2.029213e-04 7.212344e-04 -3.051477e-04)) ((-9.025074e-08 5.170372e-08 -8.163101e-09) (2.699080e-05 -8.266589e-06 1.275270e-06))
25.918413     	((4.243474e-03 5.108593e-03 -6.141126e-03) (2.103146e-04 7.308447e-04 -3.031364e-04)) ((-9.198110e-08 5.011174e-08 -8.449822e-09) (2.738953e-05 -8.534351e-06 1.244937e-06))
26.196978     	((4.172437e-03 5.192688e-03 -6.242428e-03) (2.161380e-04 7.397704e-04 -3.012933e-04)) ((-9.314164e-08 4.793576e-08 -8.713212e-09) (2.776178e-05 -8.742741e-06 1.195405e-06))
26.475854     	((4.028769e-03 5.233873e-03 -6.333827e-03) (2.199742e-04 7.478486e-04 -2.995988e-04)) ((-9.395358e-08 4.466369e-08 -8.895542e-09) (2.809758e-05 -8.873507e-06 1.120628e-06))
26.755079     	((3.807855e-03 5.215739e-03 -6.402388e-03) (2.214217e-04 7.547104e-04 -2.980627e-04)) ((-9.383706e-08 4.058640e-08 -9.069323e-09) (2.838182e-05 -8.905139e-06 1.014608e-06))
27.034694     	((3.487544e-03 5.142940e-03 -6.456259e-03) (2.196440e-04 7.599632e-04 -2.966237e-04)) ((-9.319577e-08 3.514538e-08 -9.209306e-09) (2.860337e-05 -8.806421e-06 8.852199e-07))
27.314731     	((3.073080e-03 5.001315e-03 -6.485609e-03) (2.136347e-04 7.630977e-04 -2.952453e-04)) ((-9.172623e-08 2.862117e-08 -9.064769e-09) (2.874912e-05 -8.545420e-06 7.522226e-07))
27.595232     	((2.562547e-03 4.804852e-03 -6.495700e-03) (2.027280e-04 7.636550e-04 -2.944018e-04)) ((-8.949841e-08 2.142452e-08 -8.686671e-09) (2.879433e-05 -8.109758e-06 6.304519e-07))
27.876216     	((1.958077e-03 4.582234e-03 -6.493877e-03) (1.867250e-04 7.620297e-04 -2.944744e-04)) ((-8.690102e-08 1.342915e-08 -8.483109e-09) (2.873720e-05 -7.498733e-06 5.137070e-07))
28.157654     	((1.276765e-03 4.357511e-03 -6.483375e-03) (1.655912e-04 7.588334e-04 -2.958178e-04)) ((-8.387916e-08 4.618552e-09 -8.648953e-09) (2.858761e-05 -6.726262e-06 4.085345e-07))
28.439429     	((5.413458e-04 4.184864e-03 -6.490046e-03) (1.401504e-04 7.551501e-04 -2.985675e-04)) ((-8.113924e-08 -5.142986e-09 -8.777637e-09) (2.837054e-05 -5.812827e-06 2.970983e-07))
