# Forces      
# CofR        : (0.000000e+00 0.000000e+00 0.000000e+00)
# Time        forces(pressure viscous)	moments(pressure viscous)
0             	((0.000000e+00 0.000000e+00 0.000000e+00) (0.000000e+00 0.000000e+00 0.000000e+00)) ((0.000000e+00 0.000000e+00 0.000000e+00) (0.000000e+00 0.000000e+00 0.000000e+00))
0.012         	((-5.140124e-12 1.201858e-09 -1.564093e-11) (-1.535717e-13 1.347968e-11 -5.604038e-14)) ((-8.645301e-14 -3.098761e-16 -1.654495e-11) (2.574043e-13 7.052789e-15 -3.364411e-08))
0.0264        	((3.867952e-12 -4.358910e-10 3.600343e-11) (-1.733184e-13 1.438210e-11 -8.941503e-14)) ((-2.033921e-13 1.521709e-15 -4.961233e-12) (4.578932e-13 6.792188e-15 -2.944635e-08))
0.04368       	((-2.327728e-11 2.196298e-10 -2.256098e-11) (-2.192104e-13 9.429339e-12 -1.974072e-13)) ((9.351929e-14 -2.186651e-16 -2.597469e-12) (3.868892e-13 9.294049e-15 -2.546517e-08))
0.064416      	((-1.616892e-11 1.757508e-11 7.438011e-12) (-2.220394e-13 5.048048e-12 -1.577074e-13)) ((-2.613776e-14 -3.672158e-16 -1.741922e-12) (1.974779e-13 1.158896e-14 -2.180948e-08))
0.0892992     	((-2.335438e-11 1.057824e-10 -9.126242e-12) (-1.906081e-13 3.203446e-12 -2.670395e-15)) ((2.848101e-14 -1.992878e-15 -1.401919e-12) (9.474238e-14 1.153656e-14 -1.857599e-08))
0.119159      	((-9.060754e-12 9.177760e-12 -8.091059e-12) (-2.733953e-13 2.727423e-12 1.150843e-13)) ((1.744180e-14 -1.458503e-15 -1.112213e-12) (-3.736216e-14 1.404600e-14 -1.580977e-08))
0.154991      	((-1.738501e-11 8.855157e-11 -7.828058e-12) (-3.382342e-13 2.023918e-12 2.427335e-13)) ((1.671107e-14 -1.953209e-15 -8.882165e-13) (-1.337487e-13 1.570539e-14 -1.353076e-08))
0.197989      	((-1.665016e-11 6.894653e-11 -9.885273e-12) (-2.372943e-13 1.269642e-12 3.889715e-13)) ((1.321234e-14 -1.058160e-15 -6.942336e-13) (-1.834627e-13 8.520020e-15 -1.170040e-08))
0.249587      	((-2.209609e-11 7.998874e-11 -8.930549e-12) (-2.040630e-14 4.415729e-13 5.487461e-13)) ((1.344436e-14 -5.041842e-16 -5.727331e-13) (-1.689732e-13 -3.613595e-15 -1.024411e-08))
0.311504      	((-3.669973e-11 1.033133e-10 -1.407949e-11) (1.372810e-13 -2.744328e-13 8.131182e-13)) ((9.660662e-15 2.909337e-16 -5.063658e-13) (-1.413950e-13 -1.222340e-14 -9.073743e-09))
0.385805      	((-4.419447e-11 1.338020e-10 -1.448877e-11) (1.383556e-13 2.774900e-13 1.116526e-12)) ((7.259547e-15 -5.216811e-17 -4.414470e-13) (-1.070692e-13 -1.569579e-14 -8.109354e-09))
0.474966      	((-6.056505e-11 1.624269e-10 -2.007901e-11) (3.601730e-13 7.338425e-13 1.351299e-12)) ((-8.724206e-16 4.504856e-16 -3.851644e-13) (-3.365681e-14 -1.817411e-14 -7.291022e-09))
0.581959      	((-8.032897e-11 2.096865e-10 -2.387604e-11) (5.849865e-13 1.351633e-12 1.499633e-12)) ((-4.555612e-15 2.363210e-16 -3.572109e-13) (1.110020e-13 -2.231091e-14 -6.579399e-09))
0.710351      	((-9.787640e-11 2.085641e-10 -2.875349e-11) (1.474247e-12 3.309523e-12 1.554461e-12)) ((-9.128166e-15 1.166853e-16 -3.398569e-13) (2.322304e-13 -3.646618e-14 -5.950065e-09))
0.864421      	((-1.110586e-10 1.679673e-10 -2.837265e-11) (3.270282e-12 2.536300e-12 1.904175e-12)) ((-1.416055e-14 -6.986290e-16 -3.237434e-13) (2.081454e-13 -7.148292e-14 -5.387657e-09))
1.049306      	((-1.167843e-10 1.509586e-10 -2.732802e-11) (5.517876e-12 -2.054890e-12 2.051260e-12)) ((-1.784825e-14 -1.416879e-15 -3.064920e-13) (7.732396e-14 -1.076184e-13 -4.882693e-09))
1.271167      	((-1.034308e-10 1.307381e-10 -3.067086e-11) (9.770124e-12 -8.357398e-12 2.219186e-12)) ((-2.255146e-14 -2.339091e-15 -2.935262e-13) (-8.570061e-14 -1.907564e-13 -4.430377e-09))
1.5374        	((-7.839930e-11 1.284670e-10 -2.848470e-11) (1.635324e-11 -1.552025e-11 2.765191e-12)) ((-2.019883e-14 -2.839387e-15 -2.841433e-13) (-2.646133e-13 -3.644903e-13 -4.028394e-09))
1.85688       	((-5.485205e-11 9.828461e-11 -2.207697e-11) (2.443337e-11 -2.090135e-11 3.190351e-12)) ((-1.840358e-14 -3.443766e-15 -2.721522e-13) (-4.601108e-13 -5.683771e-13 -3.674535e-09))
2.240256      	((-2.957934e-11 6.413984e-11 -1.959282e-11) (3.433277e-11 -2.668722e-11 3.446166e-12)) ((-2.129081e-14 -4.049327e-15 -2.574139e-13) (-7.097792e-13 -8.414142e-13 -3.365279e-09))
2.700307      	((-1.951489e-11 3.893693e-11 -1.530997e-11) (4.479483e-11 -3.586510e-11 3.143075e-12)) ((-1.980390e-14 -4.332712e-15 -2.444994e-13) (-1.039850e-12 -1.163546e-12 -3.095416e-09))
3.252369      	((5.864697e-13 2.318693e-11 -2.107171e-11) (5.477429e-11 -4.662575e-11 2.933820e-12)) ((-1.647506e-14 -4.422269e-15 -2.278541e-13) (-1.335389e-12 -1.461927e-12 -2.858816e-09))
3.914842      	((1.169779e-12 -1.105049e-11 -2.017088e-11) (6.145857e-11 -5.569856e-11 3.579347e-12)) ((-1.240847e-14 -3.598133e-15 -2.126401e-13) (-1.505412e-12 -1.652747e-12 -2.649274e-09))
4.709811      	((1.575785e-11 -3.588012e-11 -1.924585e-11) (6.436338e-11 -6.131026e-11 4.485282e-12)) ((-8.340610e-15 -1.745910e-15 -1.995134e-13) (-1.613824e-12 -1.754180e-12 -2.461510e-09))
5.663773      	((1.783201e-11 -1.742654e-11 -2.264972e-11) (6.352229e-11 -6.199666e-11 6.022235e-12)) ((-8.618489e-15 -6.637480e-16 -1.860434e-13) (-1.590434e-12 -1.757856e-12 -2.291679e-09))
6.808528      	((2.197836e-11 -1.640812e-11 -2.643774e-11) (5.836893e-11 -5.735010e-11 7.446938e-12)) ((-7.920525e-15 2.929238e-17 -1.732951e-13) (-1.424218e-12 -1.642741e-12 -2.136751e-09))
8.182233      	((1.884573e-11 -1.035528e-11 -3.031108e-11) (5.043666e-11 -4.881064e-11 9.286444e-12)) ((-5.406040e-15 9.102557e-16 -1.610114e-13) (-1.226978e-12 -1.431592e-12 -1.994413e-09))
9.83068       	((1.594373e-11 5.370306e-12 -3.451575e-11) (4.039841e-11 -3.908632e-11 1.128032e-11)) ((-5.617330e-15 1.595114e-15 -1.495405e-13) (-9.843383e-13 -1.178737e-12 -1.863395e-09))
11.808816     	((2.762886e-12 2.820432e-11 -3.867614e-11) (3.030830e-11 -2.897386e-11 1.265019e-11)) ((-3.012286e-15 2.564108e-15 -1.388591e-13) (-6.769757e-13 -9.221273e-13 -1.743118e-09))
14.182579     	((-2.960578e-12 1.880565e-11 -4.318742e-11) (2.153297e-11 -2.066837e-11 1.435427e-11)) ((1.131946e-16 2.934876e-15 -1.285754e-13) (-4.127255e-13 -6.993863e-13 -1.632859e-09))
17.031095     	((-1.368256e-11 1.889998e-11 -5.064920e-11) (1.471952e-11 -1.440598e-11 1.630698e-11)) ((2.808811e-15 2.365190e-15 -1.196599e-13) (-2.772614e-13 -5.201749e-13 -1.531918e-09))
20.449314     	((-1.545195e-11 2.293264e-11 -5.697208e-11) (1.072176e-11 -1.052641e-11 1.857080e-11)) ((3.551645e-15 2.180351e-15 -1.113253e-13) (-2.132240e-13 -4.225774e-13 -1.439626e-09))
24.551176     	((-2.121819e-11 2.484362e-11 -6.120452e-11) (9.319369e-12 -9.251856e-12 2.116945e-11)) ((4.545811e-15 1.931398e-15 -1.039341e-13) (-2.205053e-13 -3.902740e-13 -1.355223e-09))
29.473411     	((-1.867004e-11 1.922781e-11 -6.691537e-11) (1.017134e-11 -1.070309e-11 2.367250e-11)) ((4.680517e-15 1.680876e-15 -9.746244e-14) (-2.686838e-13 -4.089059e-13 -1.277931e-09))
35.380094     	((-1.716753e-11 1.737573e-11 -7.567751e-11) (1.253954e-11 -1.415557e-11 2.662391e-11)) ((4.754065e-15 1.585067e-15 -9.175883e-14) (-3.723195e-13 -4.617113e-13 -1.207071e-09))
42.468112     	((-1.454488e-11 1.156433e-11 -8.295573e-11) (1.566253e-11 -1.832212e-11 2.964345e-11)) ((5.051179e-15 1.434539e-15 -8.659565e-14) (-4.928676e-13 -5.297473e-13 -1.142156e-09))
50.973735     	((-1.350072e-11 1.142145e-11 -8.997471e-11) (1.867296e-11 -2.186517e-11 3.297674e-11)) ((5.141531e-15 1.198164e-15 -8.168920e-14) (-5.982589e-13 -5.944695e-13 -1.082845e-09))
61.180482     	((-1.042489e-11 7.582516e-12 -9.767130e-11) (2.109758e-11 -2.477833e-11 3.683381e-11)) ((5.034111e-15 9.048314e-16 -7.712649e-14) (-6.831157e-13 -6.460356e-13 -1.028789e-09))
73.428578     	((-8.941347e-12 7.142847e-12 -1.046818e-10) (2.296518e-11 -2.685722e-11 4.103215e-11)) ((5.135849e-15 6.309530e-16 -7.302714e-14) (-7.432466e-13 -6.878099e-13 -9.796164e-10))
88.126294     	((-6.707792e-12 4.729462e-12 -1.105526e-10) (2.442247e-11 -2.810344e-11 4.531788e-11)) ((5.381249e-15 3.710904e-16 -6.935830e-14) (-7.756265e-13 -7.171181e-13 -9.349694e-10))
105.763553    	((-5.112038e-12 2.460587e-12 -1.176078e-10) (2.529950e-11 -2.899266e-11 4.972714e-11)) ((5.440493e-15 7.541929e-17 -6.614786e-14) (-8.030777e-13 -7.289322e-13 -8.944425e-10))
126.928263    	((-4.314315e-12 2.496575e-12 -1.252789e-10) (2.556391e-11 -2.952920e-11 5.421387e-11)) ((5.308980e-15 -1.737096e-16 -6.331928e-14) (-8.227858e-13 -7.246151e-13 -8.576182e-10))
152.325916    	((-3.136008e-12 2.396438e-12 -1.335750e-10) (2.548684e-11 -2.957545e-11 5.881650e-11)) ((5.041770e-15 -4.619702e-16 -6.073011e-14) (-8.262926e-13 -7.163498e-13 -8.241018e-10))
182.803099    	((-1.849984e-12 3.078777e-12 -1.415239e-10) (2.511452e-11 -2.933498e-11 6.350368e-11)) ((4.761483e-15 -6.388952e-16 -5.827062e-14) (-8.163062e-13 -7.017972e-13 -7.935548e-10))
219.375719    	((2.061408e-13 3.343454e-12 -1.493836e-10) (2.435908e-11 -2.880295e-11 6.841204e-11)) ((4.702103e-15 -7.069675e-16 -5.599466e-14) (-7.974248e-13 -6.703075e-13 -7.656835e-10))
263.262863    	((1.113467e-12 3.252653e-12 -1.584016e-10) (2.334144e-11 -2.797732e-11 7.330555e-11)) ((4.637264e-15 -8.755353e-16 -5.389824e-14) (-7.645142e-13 -6.313524e-13 -7.402375e-10))
315.927436    	((1.471990e-12 3.308107e-12 -1.672290e-10) (2.224221e-11 -2.701600e-11 7.837468e-11)) ((4.624948e-15 -1.045459e-15 -5.197699e-14) (-7.281529e-13 -5.924165e-13 -7.169972e-10))
379.124923    	((2.084898e-12 2.847870e-12 -1.758848e-10) (2.111732e-11 -2.597544e-11 8.378767e-11)) ((4.432941e-15 -1.211801e-15 -5.021927e-14) (-6.942139e-13 -5.539577e-13 -6.957906e-10))
454.961908    	((2.591908e-12 2.524993e-12 -1.837380e-10) (1.997267e-11 -2.480099e-11 8.929509e-11)) ((4.183128e-15 -1.295041e-15 -4.863879e-14) (-6.573200e-13 -5.181183e-13 -6.764754e-10))
545.966289    	((3.323744e-12 2.596136e-12 -1.909564e-10) (1.893772e-11 -2.351818e-11 9.485065e-11)) ((4.061163e-15 -1.430354e-15 -4.721739e-14) (-6.176087e-13 -4.839033e-13 -6.589210e-10))
655.171547    	((4.051824e-12 2.703635e-12 -1.980532e-10) (1.781530e-11 -2.216820e-11 1.004413e-10)) ((4.017430e-15 -1.515345e-15 -4.592235e-14) (-5.791377e-13 -4.484159e-13 -6.430080e-10))
786.217856    	((4.713042e-12 2.443505e-12 -2.050697e-10) (1.658492e-11 -2.081283e-11 1.059502e-10)) ((4.100224e-15 -1.594123e-15 -4.478457e-14) (-5.414606e-13 -4.108442e-13 -6.286199e-10))
943.473427    	((5.477561e-12 1.896552e-12 -2.116447e-10) (1.536108e-11 -1.949680e-11 1.112230e-10)) ((4.230322e-15 -1.616244e-15 -4.375723e-14) (-5.068142e-13 -3.746293e-13 -6.156378e-10))
1132.180113   	((6.468458e-12 1.281925e-12 -2.178349e-10) (1.422386e-11 -1.821572e-11 1.162655e-10)) ((4.306594e-15 -1.619856e-15 -4.278541e-14) (-4.731381e-13 -3.396094e-13 -6.039453e-10))
1358.628135   	((7.252883e-12 8.541797e-13 -2.232073e-10) (1.310439e-11 -1.691241e-11 1.210592e-10)) ((4.347578e-15 -1.605473e-15 -4.190477e-14) (-4.400204e-13 -3.063607e-13 -5.934296e-10))
1630.365763   	((8.016288e-12 7.987129e-13 -2.282248e-10) (1.202698e-11 -1.568985e-11 1.255844e-10)) ((4.428505e-15 -1.604689e-15 -4.111778e-14) (-4.107199e-13 -2.735020e-13 -5.839807e-10))
1956.450915   	((9.257115e-12 1.060263e-12 -2.331682e-10) (1.102325e-11 -1.456342e-11 1.297432e-10)) ((4.521063e-15 -1.620077e-15 -4.040638e-14) (-3.832015e-13 -2.420496e-13 -5.754914e-10))
2347.753098   	((1.072208e-11 1.589030e-12 -2.382460e-10) (1.016438e-11 -1.351765e-11 1.336213e-10)) ((4.561496e-15 -1.646539e-15 -3.976904e-14) (-3.569781e-13 -2.158990e-13 -5.678657e-10))
2817.315718   	((1.247677e-11 2.118433e-12 -2.434861e-10) (9.450839e-12 -1.253994e-11 1.372617e-10)) ((4.593401e-15 -1.705795e-15 -3.917764e-14) (-3.313728e-13 -1.945052e-13 -5.610149e-10))
3380.790861   	((1.482037e-11 2.564825e-12 -2.488685e-10) (8.881532e-12 -1.165733e-11 1.406762e-10)) ((4.578582e-15 -1.793629e-15 -3.863004e-14) (-3.064755e-13 -1.779957e-13 -5.548598e-10))
4056.961033   	((1.747975e-11 3.002946e-12 -2.543610e-10) (8.413818e-12 -1.091822e-11 1.439022e-10)) ((4.549846e-15 -1.905761e-15 -3.814282e-14) (-2.857519e-13 -1.642373e-13 -5.493259e-10))
4868.36524    	((2.038410e-11 3.681421e-12 -2.599272e-10) (8.001894e-12 -1.029462e-11 1.469792e-10)) ((4.555211e-15 -2.025894e-15 -3.771885e-14) (-2.685003e-13 -1.517038e-13 -5.443482e-10))
5842.050288   	((2.349688e-11 4.555768e-12 -2.655668e-10) (7.653932e-12 -9.717927e-12 1.498632e-10)) ((4.598867e-15 -2.127278e-15 -3.732946e-14) (-2.544286e-13 -1.409499e-13 -5.398673e-10))
7010.472346   	((2.674300e-11 5.611023e-12 -2.713494e-10) (7.359164e-12 -9.169106e-12 1.525403e-10)) ((4.660477e-15 -2.246599e-15 -3.697301e-14) (-2.418042e-13 -1.320504e-13 -5.358285e-10))
8412.578815   	((3.012929e-11 6.807310e-12 -2.774383e-10) (7.134361e-12 -8.640039e-12 1.550152e-10)) ((4.719352e-15 -2.356023e-15 -3.665484e-14) (-2.297818e-13 -1.246355e-13 -5.321836e-10))
10070.91415   	((3.375750e-11 8.380106e-12 -2.839081e-10) (6.957122e-12 -8.133085e-12 1.572864e-10)) ((4.792625e-15 -2.471529e-15 -3.636554e-14) (-2.186015e-13 -1.180230e-13 -5.288909e-10))
11985.484722  	((3.768444e-11 1.046200e-11 -2.907822e-10) (6.813821e-12 -7.649209e-12 1.593589e-10)) ((4.890256e-15 -2.592546e-15 -3.609382e-14) (-2.076765e-13 -1.113192e-13 -5.259138e-10))
14156.296413  	((4.193594e-11 1.301353e-11 -2.980691e-10) (6.702404e-12 -7.193895e-12 1.612312e-10)) ((4.987641e-15 -2.717544e-15 -3.584562e-14) (-1.979284e-13 -1.045995e-13 -5.232200e-10))
16583.354617  	((4.657142e-11 1.615638e-11 -3.057882e-10) (6.637871e-12 -6.762491e-12 1.629080e-10)) ((5.083609e-15 -2.853478e-15 -3.561272e-14) (-1.888352e-13 -9.805053e-14 -5.207799e-10))
19145.869002  	((5.140100e-11 2.002255e-11 -3.138319e-10) (6.613844e-12 -6.357234e-12 1.643901e-10)) ((5.182003e-15 -2.969414e-15 -3.539739e-14) (-1.810790e-13 -9.187484e-14 -5.185685e-10))
21708.428024  	((5.626181e-11 2.449021e-11 -3.220728e-10) (6.625433e-12 -5.947963e-12 1.657000e-10)) ((5.279262e-15 -3.051896e-15 -3.519650e-14) (-1.735340e-13 -8.651955e-14 -5.165635e-10))
24271.027421  	((6.101315e-11 2.948233e-11 -3.304337e-10) (6.654391e-12 -5.550495e-12 1.668573e-10)) ((5.363861e-15 -3.113150e-15 -3.501276e-14) (-1.664555e-13 -8.175959e-14 -5.147442e-10))
26833.663343  	((6.557466e-11 3.495378e-11 -3.388587e-10) (6.694319e-12 -5.164293e-12 1.678908e-10)) ((5.451727e-15 -3.164936e-15 -3.484362e-14) (-1.596326e-13 -7.789859e-14 -5.130923e-10))
29396.332228  	((6.978440e-11 4.063662e-11 -3.471403e-10) (6.722879e-12 -4.793447e-12 1.687993e-10)) ((5.546043e-15 -3.202651e-15 -3.468295e-14) (-1.532325e-13 -7.421008e-14 -5.115905e-10))
31959.030915  	((7.348413e-11 4.611642e-11 -3.550857e-10) (6.724261e-12 -4.436097e-12 1.696249e-10)) ((5.629585e-15 -3.233035e-15 -3.452932e-14) (-1.472413e-13 -7.049384e-14 -5.102242e-10))
34521.756516  	((7.649029e-11 5.137791e-11 -3.622849e-10) (6.705701e-12 -4.090335e-12 1.703798e-10)) ((5.711477e-15 -3.258096e-15 -3.438199e-14) (-1.416527e-13 -6.674645e-14 -5.089805e-10))
37084.506429  	((7.898219e-11 5.634305e-11 -3.693717e-10) (6.667713e-12 -3.770370e-12 1.710661e-10)) ((5.782660e-15 -3.279962e-15 -3.424827e-14) (-1.366532e-13 -6.286037e-14 -5.078479e-10))
39647.278307  	((8.113995e-11 6.082952e-11 -3.760175e-10) (6.610086e-12 -3.479843e-12 1.716982e-10)) ((5.846217e-15 -3.275341e-15 -3.412358e-14) (-1.325079e-13 -5.913411e-14 -5.068158e-10))
42210.070059  	((8.292308e-11 6.492355e-11 -3.823155e-10) (6.537018e-12 -3.232103e-12 1.722855e-10)) ((5.914816e-15 -3.253645e-15 -3.400294e-14) (-1.292560e-13 -5.547462e-14 -5.058744e-10))
44772.879735  	((8.430459e-11 6.874977e-11 -3.880120e-10) (6.444450e-12 -3.018097e-12 1.728238e-10)) ((5.980314e-15 -3.228712e-15 -3.388990e-14) (-1.270630e-13 -5.167913e-14 -5.050152e-10))
47335.705608  	((8.526078e-11 7.231088e-11 -3.933298e-10) (6.348463e-12 -2.832871e-12 1.733226e-10)) ((6.046442e-15 -3.200666e-15 -3.378887e-14) (-1.257919e-13 -4.821361e-14 -5.042312e-10))
49898.546099  	((8.574256e-11 7.557211e-11 -3.982255e-10) (6.260928e-12 -2.670481e-12 1.737886e-10)) ((6.107359e-15 -3.168731e-15 -3.369929e-14) (-1.251810e-13 -4.543530e-14 -5.035157e-10))
52461.399839  	((8.572522e-11 7.862148e-11 -4.025731e-10) (6.171630e-12 -2.529455e-12 1.742315e-10)) ((6.155635e-15 -3.142634e-15 -3.362137e-14) (-1.250049e-13 -4.289460e-14 -5.028623e-10))
55024.265623  	((8.526881e-11 8.155314e-11 -4.064708e-10) (6.075616e-12 -2.410212e-12 1.746519e-10)) ((6.196401e-15 -3.112027e-15 -3.354920e-14) (-1.251806e-13 -4.050403e-14 -5.022650e-10))
57587.14194   	((8.459338e-11 8.417339e-11 -4.100455e-10) (5.979406e-12 -2.304876e-12 1.750507e-10)) ((6.230485e-15 -3.082108e-15 -3.348394e-14) (-1.254944e-13 -3.827866e-14 -5.017189e-10))
60150.027536  	((8.384753e-11 8.633259e-11 -4.133641e-10) (5.887107e-12 -2.215131e-12 1.754272e-10)) ((6.271697e-15 -3.057654e-15 -3.342592e-14) (-1.258879e-13 -3.627525e-14 -5.012194e-10))
