# Forces      
# CofR        : (0.000000e+00 0.000000e+00 0.000000e+00)
# Time        forces(pressure viscous)	moments(pressure viscous)
0             	((0.000000e+00 0.000000e+00 0.000000e+00) (1.420909e-07 3.660415e-10 1.532889e-02)) ((0.000000e+00 0.000000e+00 0.000000e+00) (-9.606510e-11 8.834528e-09 -2.119947e-13))
0.012         	((5.333290e-04 2.079531e-04 1.285957e+00) (1.156323e-06 7.303091e-07 1.389648e-02)) ((9.374243e-09 8.837236e-07 3.814364e-10) (6.135753e-08 -1.112438e-07 7.799769e-11))
0.0264        	((3.463818e-04 1.524626e-04 -4.298170e-01) (1.882986e-06 9.887153e-07 1.128479e-02)) ((7.689459e-09 -7.754571e-07 3.396009e-10) (8.065551e-08 -1.155179e-07 -1.089722e-10))
0.04368       	((-1.720619e-04 -2.411968e-04 -8.784905e-02) (-4.188482e-07 1.344613e-07 8.690545e-03)) ((-9.389833e-09 -2.456333e-07 -3.202546e-10) (3.588808e-08 7.726300e-09 -1.355808e-09))
0.064416      	((2.283120e-04 1.794690e-06 -1.906384e-02) (-1.673119e-06 -9.611359e-07 7.828775e-03)) ((2.411228e-09 -1.983975e-07 -4.230994e-10) (-1.290677e-08 1.207376e-07 -3.268802e-09))
0.0892992     	((1.410917e-04 1.384581e-06 6.106174e-03) (-3.639954e-07 -1.203789e-06 7.155067e-03)) ((-1.977056e-09 -1.211714e-07 4.762616e-10) (-2.735018e-08 1.065411e-07 -4.239908e-09))
0.119159      	((1.060594e-04 -5.046782e-05 -1.177721e-02) (-1.677408e-07 -1.327330e-06 6.328168e-03)) ((-2.212144e-09 -1.838696e-07 9.677956e-11) (-4.661670e-08 9.498574e-08 -3.499063e-09))
0.154991      	((9.213360e-05 -2.895811e-05 -4.129054e-03) (9.549948e-07 -1.076381e-06 5.866415e-03)) ((-3.137762e-09 -1.628870e-07 3.377430e-10) (-3.223018e-08 2.359574e-08 -9.733791e-10))
0.197469      	((9.259779e-05 -3.846721e-05 -8.586178e-03) (2.525935e-06 -4.633598e-07 5.474106e-03)) ((-1.434603e-09 -1.933498e-07 1.580860e-10) (1.334688e-08 -7.768525e-08 -3.034958e-10))
0.246634      	((9.251933e-05 -2.998123e-05 -6.245710e-03) (2.860453e-06 3.454179e-08 5.142825e-03)) ((-1.813108e-09 -1.873513e-07 -2.140600e-11) (3.596923e-08 -1.127253e-07 -1.505088e-09))
0.302525      	((9.265337e-05 -3.017727e-05 -7.693803e-03) (3.570410e-06 4.107086e-07 4.914192e-03)) ((-3.189129e-10 -2.001377e-07 7.979885e-11) (5.870259e-08 -1.662713e-07 -1.941920e-09))
0.365215      	((1.007231e-04 -2.334919e-05 -6.909018e-03) (4.167792e-06 7.752401e-07 4.755798e-03)) ((-1.699125e-10 -1.986420e-07 1.383892e-10) (9.355214e-08 -2.428443e-07 -1.772972e-09))
0.433505      	((1.183629e-04 -1.666197e-05 -7.389514e-03) (4.659036e-06 1.210575e-06 4.652178e-03)) ((2.502085e-10 -2.026133e-07 1.349695e-10) (1.316381e-07 -3.059507e-07 -2.085369e-09))
0.502336      	((1.161588e-04 -1.593687e-05 -7.105393e-03) (5.081996e-06 1.533083e-06 4.589724e-03)) ((8.040923e-10 -2.024921e-07 2.518660e-10) (1.689881e-07 -3.636987e-07 -3.006256e-09))
0.571917      	((1.153131e-04 -1.795229e-05 -7.267537e-03) (5.442482e-06 1.775493e-06 4.550786e-03)) ((1.233593e-09 -2.058142e-07 2.955450e-10) (2.039640e-07 -4.088864e-07 -3.075823e-09))
0.642194      	((1.154486e-04 -1.782432e-05 -7.165554e-03) (5.689051e-06 1.947060e-06 4.530039e-03)) ((1.631347e-09 -2.059886e-07 2.768953e-10) (2.326351e-07 -4.387848e-07 -3.313261e-09))
0.713109      	((1.145807e-04 -1.836788e-05 -7.230700e-03) (5.900933e-06 2.066541e-06 4.521787e-03)) ((2.045088e-09 -2.079653e-07 2.933260e-10) (2.556750e-07 -4.632267e-07 -3.913264e-09))
0.784587      	((1.102594e-04 -1.894755e-05 -7.197811e-03) (6.022247e-06 2.146991e-06 4.523525e-03)) ((2.387952e-09 -2.097135e-07 2.624961e-10) (2.739262e-07 -4.800012e-07 -4.367697e-09))
0.856532      	((1.087813e-04 -1.900743e-05 -7.230893e-03) (6.123190e-06 2.209719e-06 4.533089e-03)) ((2.565227e-09 -2.116356e-07 2.227241e-10) (2.871604e-07 -4.913603e-07 -4.463574e-09))
0.928831      	((1.074336e-04 -1.769067e-05 -7.231902e-03) (6.190596e-06 2.247098e-06 4.548821e-03)) ((2.692967e-09 -2.132502e-07 2.324115e-10) (2.960244e-07 -4.981730e-07 -4.398738e-09))
1.001144      	((1.088591e-04 -1.604436e-05 -7.257618e-03) (6.255729e-06 2.279254e-06 4.569036e-03)) ((2.696055e-09 -2.149015e-07 2.266150e-10) (3.021157e-07 -5.031898e-07 -4.373314e-09))
1.073272      	((1.105604e-04 -1.444116e-05 -7.260501e-03) (6.309986e-06 2.320976e-06 4.591916e-03)) ((2.707077e-09 -2.163998e-07 2.194822e-10) (3.070762e-07 -5.083447e-07 -4.373716e-09))
1.145116      	((1.135882e-04 -1.331147e-05 -7.256980e-03) (6.366133e-06 2.363820e-06 4.615389e-03)) ((2.683782e-09 -2.175997e-07 2.225281e-10) (3.116354e-07 -5.137864e-07 -4.258316e-09))
1.216616      	((1.158839e-04 -1.248118e-05 -7.223906e-03) (6.414254e-06 2.406207e-06 4.637379e-03)) ((2.634265e-09 -2.183003e-07 2.320158e-10) (3.158762e-07 -5.201867e-07 -3.987317e-09))
1.287754      	((1.169512e-04 -1.200257e-05 -7.171841e-03) (6.466511e-06 2.442114e-06 4.655953e-03)) ((2.550307e-09 -2.184625e-07 2.318832e-10) (3.196985e-07 -5.270145e-07 -3.664926e-09))
1.358569      	((1.176328e-04 -1.186874e-05 -7.104771e-03) (6.524044e-06 2.470808e-06 4.669769e-03)) ((2.482034e-09 -2.180610e-07 2.363734e-10) (3.227482e-07 -5.340324e-07 -3.515088e-09))
1.429148      	((1.179283e-04 -1.182042e-05 -7.043125e-03) (6.584276e-06 2.487610e-06 4.678340e-03)) ((2.436043e-09 -2.172419e-07 2.375203e-10) (3.255073e-07 -5.404829e-07 -3.512582e-09))
1.499608      	((1.181633e-04 -1.142196e-05 -7.004613e-03) (6.636581e-06 2.493229e-06 4.682140e-03)) ((2.423218e-09 -2.162681e-07 2.328377e-10) (3.278570e-07 -5.457220e-07 -3.523956e-09))
1.570049      	((1.190602e-04 -1.097499e-05 -6.997981e-03) (6.684549e-06 2.497769e-06 4.682424e-03)) ((2.391264e-09 -2.153844e-07 2.460001e-10) (3.298266e-07 -5.504072e-07 -3.546895e-09))
1.640535      	((1.199690e-04 -1.043010e-05 -7.018272e-03) (6.729057e-06 2.511839e-06 4.680753e-03)) ((2.401673e-09 -2.149574e-07 2.634660e-10) (3.320367e-07 -5.542513e-07 -3.583527e-09))
1.711097      	((1.204562e-04 -1.048165e-05 -7.048430e-03) (6.772904e-06 2.534637e-06 4.678478e-03)) ((2.447813e-09 -2.148930e-07 2.661218e-10) (3.344477e-07 -5.568196e-07 -3.607812e-09))
1.781662      	((1.207639e-04 -1.057575e-05 -7.073170e-03) (6.805966e-06 2.556489e-06 4.676440e-03)) ((2.493529e-09 -2.150415e-07 2.652446e-10) (3.364697e-07 -5.587652e-07 -3.615917e-09))
1.852238      	((1.207120e-04 -1.054839e-05 -7.085002e-03) (6.827115e-06 2.570974e-06 4.674945e-03)) ((2.518606e-09 -2.152312e-07 2.646015e-10) (3.376636e-07 -5.601614e-07 -3.583307e-09))
1.922827      	((1.205600e-04 -1.044655e-05 -7.086238e-03) (6.844503e-06 2.582735e-06 4.673950e-03)) ((2.555904e-09 -2.153735e-07 2.595057e-10) (3.383134e-07 -5.613979e-07 -3.570785e-09))
1.993433      	((1.202927e-04 -1.031011e-05 -7.084621e-03) (6.858724e-06 2.590172e-06 4.673313e-03)) ((2.554982e-09 -2.154748e-07 2.517001e-10) (3.385401e-07 -5.624502e-07 -3.530093e-09))
2.064059      	((1.202958e-04 -1.009103e-05 -7.085135e-03) (6.867112e-06 2.597885e-06 4.672919e-03)) ((2.522595e-09 -2.155505e-07 2.546932e-10) (3.388722e-07 -5.632065e-07 -3.431772e-09))
2.134706      	((1.204193e-04 -9.814965e-06 -7.087492e-03) (6.878199e-06 2.614536e-06 4.672709e-03)) ((2.499212e-09 -2.156264e-07 2.578478e-10) (3.398093e-07 -5.640764e-07 -3.293066e-09))
2.205368      	((1.207045e-04 -9.551198e-06 -7.089363e-03) (6.891704e-06 2.635636e-06 4.672643e-03)) ((2.502943e-09 -2.156944e-07 2.592738e-10) (3.411389e-07 -5.651345e-07 -3.140111e-09))
2.27604       	((1.209874e-04 -9.307617e-06 -7.089126e-03) (6.905548e-06 2.655611e-06 4.672675e-03)) ((2.527206e-09 -2.157213e-07 2.582983e-10) (3.424838e-07 -5.662445e-07 -3.028034e-09))
2.346717      	((1.213167e-04 -9.091907e-06 -7.088060e-03) (6.917317e-06 2.673346e-06 4.672757e-03)) ((2.549046e-09 -2.157203e-07 2.599667e-10) (3.437802e-07 -5.673328e-07 -2.988671e-09))
2.417399      	((1.215800e-04 -8.904568e-06 -7.087346e-03) (6.926206e-06 2.689394e-06 4.672860e-03)) ((2.568089e-09 -2.157082e-07 2.605460e-10) (3.450323e-07 -5.682836e-07 -3.008686e-09))
2.488082      	((1.217978e-04 -8.746700e-06 -7.087260e-03) (6.931994e-06 2.703871e-06 4.672968e-03)) ((2.584034e-09 -2.157000e-07 2.616442e-10) (3.462391e-07 -5.691069e-07 -3.073750e-09))
2.558766      	((1.219464e-04 -8.589057e-06 -7.087179e-03) (6.935638e-06 2.716463e-06 4.673070e-03)) ((2.594913e-09 -2.156979e-07 2.629267e-10) (3.473466e-07 -5.697910e-07 -3.162575e-09))
2.629449      	((1.220622e-04 -8.458388e-06 -7.086758e-03) (6.937699e-06 2.726633e-06 4.673156e-03)) ((2.600923e-09 -2.156974e-07 2.648715e-10) (3.483278e-07 -5.703387e-07 -3.248307e-09))
2.700129      	((1.221472e-04 -8.300040e-06 -7.086288e-03) (6.939529e-06 2.734877e-06 4.673223e-03)) ((2.598060e-09 -2.156953e-07 2.657208e-10) (3.491799e-07 -5.707593e-07 -3.313679e-09))
2.770809      	((1.222084e-04 -8.196502e-06 -7.085920e-03) (6.940926e-06 2.741950e-06 4.673269e-03)) ((2.594052e-09 -2.156949e-07 2.658235e-10) (3.499444e-07 -5.710322e-07 -3.362646e-09))
2.841486      	((1.222840e-04 -8.087285e-06 -7.085694e-03) (6.941715e-06 2.748222e-06 4.673299e-03)) ((2.593874e-09 -2.156871e-07 2.644473e-10) (3.506065e-07 -5.711205e-07 -3.403458e-09))
2.912163      	((1.223524e-04 -8.034636e-06 -7.085576e-03) (6.941953e-06 2.753021e-06 4.673316e-03)) ((2.594810e-09 -2.156802e-07 2.652053e-10) (3.511305e-07 -5.710590e-07 -3.442073e-09))
2.982839      	((1.223364e-04 -7.961331e-06 -7.085440e-03) (6.941592e-06 2.756611e-06 4.673323e-03)) ((2.593373e-09 -2.156806e-07 2.661142e-10) (3.515166e-07 -5.708719e-07 -3.476778e-09))
3.053515      	((1.223247e-04 -7.902934e-06 -7.085371e-03) (6.939426e-06 2.759251e-06 4.673325e-03)) ((2.593810e-09 -2.156831e-07 2.667788e-10) (3.517985e-07 -5.705182e-07 -3.503015e-09))
3.12419       	((1.223045e-04 -7.851039e-06 -7.085377e-03) (6.936424e-06 2.761072e-06 4.673325e-03)) ((2.595791e-09 -2.156814e-07 2.663296e-10) (3.519789e-07 -5.700550e-07 -3.515920e-09))
3.194865      	((1.222905e-04 -7.821556e-06 -7.085419e-03) (6.933393e-06 2.761910e-06 4.673326e-03)) ((2.599650e-09 -2.156824e-07 2.654242e-10) (3.520679e-07 -5.695420e-07 -3.516493e-09))
3.26554       	((1.222576e-04 -7.786184e-06 -7.085450e-03) (6.929606e-06 2.761985e-06 4.673330e-03)) ((2.603259e-09 -2.156884e-07 2.640508e-10) (3.520742e-07 -5.689429e-07 -3.504264e-09))
3.336215      	((1.222274e-04 -7.758848e-06 -7.085479e-03) (6.924607e-06 2.761441e-06 4.673336e-03)) ((2.606445e-09 -2.156931e-07 2.636255e-10) (3.520268e-07 -5.682589e-07 -3.478523e-09))
3.406891      	((1.221692e-04 -7.732709e-06 -7.085499e-03) (6.919582e-06 2.760592e-06 4.673345e-03)) ((2.608755e-09 -2.156851e-07 2.639709e-10) (3.519396e-07 -5.675783e-07 -3.444182e-09))
3.477566      	((1.221179e-04 -7.713505e-06 -7.085512e-03) (6.915860e-06 2.759718e-06 4.673355e-03)) ((2.610409e-09 -2.156710e-07 2.651748e-10) (3.518390e-07 -5.669960e-07 -3.417562e-09))
3.548242      	((1.220925e-04 -7.701165e-06 -7.085494e-03) (6.914309e-06 2.759085e-06 4.673365e-03)) ((2.611232e-09 -2.156646e-07 2.653357e-10) (3.517337e-07 -5.665746e-07 -3.409268e-09))
3.618918      	((1.220625e-04 -7.693713e-06 -7.085495e-03) (6.914165e-06 2.758676e-06 4.673373e-03)) ((2.612229e-09 -2.156621e-07 2.651991e-10) (3.516343e-07 -5.662801e-07 -3.417066e-09))
3.689594      	((1.220394e-04 -7.688356e-06 -7.085492e-03) (6.914194e-06 2.758525e-06 4.673380e-03)) ((2.612736e-09 -2.156595e-07 2.649730e-10) (3.515398e-07 -5.660397e-07 -3.431261e-09))
3.76027       	((1.220257e-04 -7.686749e-06 -7.085498e-03) (6.913902e-06 2.758446e-06 4.673387e-03)) ((2.612942e-09 -2.156573e-07 2.651593e-10) (3.514543e-07 -5.658287e-07 -3.446485e-09))
3.830946      	((1.220115e-04 -7.683067e-06 -7.085495e-03) (6.913447e-06 2.758433e-06 4.673393e-03)) ((2.612943e-09 -2.156544e-07 2.651706e-10) (3.513727e-07 -5.656515e-07 -3.460252e-09))
3.901622      	((1.219851e-04 -7.680889e-06 -7.085500e-03) (6.912836e-06 2.758403e-06 4.673398e-03)) ((2.612821e-09 -2.156519e-07 2.653053e-10) (3.512995e-07 -5.655040e-07 -3.471334e-09))
3.972298      	((1.219470e-04 -7.676538e-06 -7.085499e-03) (6.912148e-06 2.758385e-06 4.673402e-03)) ((2.612229e-09 -2.156508e-07 2.652556e-10) (3.512311e-07 -5.653822e-07 -3.478148e-09))
4.042974      	((1.219140e-04 -7.675943e-06 -7.085502e-03) (6.911385e-06 2.758298e-06 4.673406e-03)) ((2.612385e-09 -2.156509e-07 2.654161e-10) (3.511706e-07 -5.652783e-07 -3.480927e-09))
4.11365       	((1.218904e-04 -7.674048e-06 -7.085499e-03) (6.910599e-06 2.758125e-06 4.673409e-03)) ((2.612412e-09 -2.156512e-07 2.653906e-10) (3.511109e-07 -5.651859e-07 -3.480092e-09))
4.184326      	((1.218731e-04 -7.675783e-06 -7.085499e-03) (6.909814e-06 2.757774e-06 4.673412e-03)) ((2.612477e-09 -2.156514e-07 2.654429e-10) (3.510521e-07 -5.651012e-07 -3.476983e-09))
4.255002      	((1.218598e-04 -7.675682e-06 -7.085495e-03) (6.909085e-06 2.757403e-06 4.673414e-03)) ((2.612432e-09 -2.156513e-07 2.653147e-10) (3.509970e-07 -5.650246e-07 -3.471753e-09))
4.325678      	((1.218507e-04 -7.678927e-06 -7.085494e-03) (6.908429e-06 2.757057e-06 4.673416e-03)) ((2.612437e-09 -2.156512e-07 2.652953e-10) (3.509521e-07 -5.649563e-07 -3.465169e-09))
4.396354      	((1.218432e-04 -7.680530e-06 -7.085490e-03) (6.907888e-06 2.756736e-06 4.673417e-03)) ((2.612243e-09 -2.156508e-07 2.651564e-10) (3.509111e-07 -5.648986e-07 -3.457565e-09))
4.46703       	((1.218375e-04 -7.684710e-06 -7.085490e-03) (6.907439e-06 2.756383e-06 4.673419e-03)) ((2.612317e-09 -2.156505e-07 2.651371e-10) (3.508738e-07 -5.648509e-07 -3.449880e-09))
4.537706      	((1.218312e-04 -7.686028e-06 -7.085487e-03) (6.907096e-06 2.756047e-06 4.673420e-03)) ((2.612295e-09 -2.156502e-07 2.650064e-10) (3.508373e-07 -5.648128e-07 -3.442589e-09))
4.608382      	((1.218268e-04 -7.689578e-06 -7.085487e-03) (6.906812e-06 2.755687e-06 4.673421e-03)) ((2.612457e-09 -2.156499e-07 2.649814e-10) (3.508031e-07 -5.647821e-07 -3.435984e-09))
4.679058      	((1.218216e-04 -7.690788e-06 -7.085485e-03) (6.906584e-06 2.755342e-06 4.673422e-03)) ((2.612505e-09 -2.156497e-07 2.648542e-10) (3.507688e-07 -5.647575e-07 -3.429914e-09))
4.749734      	((1.218179e-04 -7.693985e-06 -7.085486e-03) (6.906392e-06 2.754987e-06 4.673422e-03)) ((2.612665e-09 -2.156495e-07 2.648163e-10) (3.507363e-07 -5.647377e-07 -3.424660e-09))
4.82041       	((1.218143e-04 -7.695049e-06 -7.085484e-03) (6.906239e-06 2.754653e-06 4.673423e-03)) ((2.612738e-09 -2.156492e-07 2.646873e-10) (3.507038e-07 -5.647223e-07 -3.419693e-09))
4.891086      	((1.218112e-04 -7.697999e-06 -7.085484e-03) (6.906117e-06 2.754313e-06 4.673423e-03)) ((2.612901e-09 -2.156491e-07 2.646408e-10) (3.506733e-07 -5.647099e-07 -3.415256e-09))
4.961762      	((1.218086e-04 -7.698984e-06 -7.085483e-03) (6.906029e-06 2.754003e-06 4.673424e-03)) ((2.612930e-09 -2.156489e-07 2.645166e-10) (3.506436e-07 -5.647004e-07 -3.411102e-09))
5.032438      	((1.218070e-04 -7.701724e-06 -7.085483e-03) (6.905961e-06 2.753697e-06 4.673424e-03)) ((2.613073e-09 -2.156487e-07 2.644756e-10) (3.506164e-07 -5.646928e-07 -3.407081e-09))
5.103114      	((1.218049e-04 -7.702248e-06 -7.085481e-03) (6.905917e-06 2.753419e-06 4.673425e-03)) ((2.613066e-09 -2.156485e-07 2.643630e-10) (3.505900e-07 -5.646869e-07 -3.403244e-09))
5.17379       	((1.218040e-04 -7.704486e-06 -7.085481e-03) (6.905890e-06 2.753147e-06 4.673425e-03)) ((2.613083e-09 -2.156484e-07 2.643403e-10) (3.505662e-07 -5.646821e-07 -3.399481e-09))
5.244466      	((1.218031e-04 -7.704770e-06 -7.085479e-03) (6.905878e-06 2.752917e-06 4.673426e-03)) ((2.612755e-09 -2.156483e-07 2.642930e-10) (3.505442e-07 -5.646784e-07 -3.395752e-09))
5.315142      	((1.218024e-04 -7.706809e-06 -7.085479e-03) (6.905863e-06 2.752714e-06 4.673426e-03)) ((2.612436e-09 -2.156483e-07 2.643142e-10) (3.505257e-07 -5.646747e-07 -3.392979e-09))
5.385818      	((1.218020e-04 -7.707169e-06 -7.085478e-03) (6.905849e-06 2.752553e-06 4.673426e-03)) ((2.611998e-09 -2.156482e-07 2.642650e-10) (3.505092e-07 -5.646715e-07 -3.390704e-09))
5.456494      	((1.218015e-04 -7.709344e-06 -7.085477e-03) (6.905829e-06 2.752405e-06 4.673426e-03)) ((2.611722e-09 -2.156481e-07 2.642828e-10) (3.504950e-07 -5.646682e-07 -3.388920e-09))
5.52717       	((1.218012e-04 -7.709377e-06 -7.085476e-03) (6.905807e-06 2.752280e-06 4.673427e-03)) ((2.611451e-09 -2.156480e-07 2.642452e-10) (3.504813e-07 -5.646651e-07 -3.387644e-09))
5.597846      	((1.218008e-04 -7.710802e-06 -7.085475e-03) (6.905774e-06 2.752145e-06 4.673427e-03)) ((2.611212e-09 -2.156479e-07 2.642563e-10) (3.504686e-07 -5.646618e-07 -3.387059e-09))
5.668522      	((1.218003e-04 -7.711008e-06 -7.085474e-03) (6.905740e-06 2.752026e-06 4.673427e-03)) ((2.610944e-09 -2.156479e-07 2.642229e-10) (3.504557e-07 -5.646589e-07 -3.386967e-09))
5.739198      	((1.218001e-04 -7.712612e-06 -7.085474e-03) (6.905704e-06 2.751900e-06 4.673427e-03)) ((2.610740e-09 -2.156478e-07 2.642323e-10) (3.504437e-07 -5.646562e-07 -3.387262e-09))
5.809874      	((1.217998e-04 -7.712808e-06 -7.085473e-03) (6.905671e-06 2.751788e-06 4.673427e-03)) ((2.610498e-09 -2.156477e-07 2.642020e-10) (3.504316e-07 -5.646539e-07 -3.387759e-09))
5.88055       	((1.217999e-04 -7.713868e-06 -7.085473e-03) (6.905634e-06 2.751670e-06 4.673428e-03)) ((2.610269e-09 -2.156477e-07 2.642033e-10) (3.504204e-07 -5.646517e-07 -3.388536e-09))
5.951226      	((1.217995e-04 -7.714859e-06 -7.085472e-03) (6.905599e-06 2.751573e-06 4.673428e-03)) ((2.610046e-09 -2.156476e-07 2.641795e-10) (3.504092e-07 -5.646497e-07 -3.389436e-09))
6.021902      	((1.217994e-04 -7.716027e-06 -7.085471e-03) (6.905566e-06 2.751471e-06 4.673428e-03)) ((2.609876e-09 -2.156476e-07 2.641854e-10) (3.503989e-07 -5.646479e-07 -3.390423e-09))
6.092578      	((1.217993e-04 -7.716050e-06 -7.085471e-03) (6.905535e-06 2.751383e-06 4.673428e-03)) ((2.609637e-09 -2.156475e-07 2.641578e-10) (3.503886e-07 -5.646464e-07 -3.391438e-09))
6.163254      	((1.217993e-04 -7.716771e-06 -7.085470e-03) (6.905502e-06 2.751294e-06 4.673428e-03)) ((2.609426e-09 -2.156475e-07 2.641641e-10) (3.503792e-07 -5.646449e-07 -3.392554e-09))
6.23393       	((1.217991e-04 -7.716747e-06 -7.085469e-03) (6.905472e-06 2.751219e-06 4.673428e-03)) ((2.609179e-09 -2.156474e-07 2.641406e-10) (3.503702e-07 -5.646435e-07 -3.393681e-09))
6.304606      	((1.217992e-04 -7.717944e-06 -7.085469e-03) (6.905440e-06 2.751142e-06 4.673429e-03)) ((2.608977e-09 -2.156474e-07 2.641450e-10) (3.503619e-07 -5.646421e-07 -3.394904e-09))
6.375282      	((1.217990e-04 -7.718107e-06 -7.085468e-03) (6.905410e-06 2.751077e-06 4.673429e-03)) ((2.608790e-09 -2.156474e-07 2.641266e-10) (3.503537e-07 -5.646409e-07 -3.396070e-09))
6.445958      	((1.217990e-04 -7.719080e-06 -7.085468e-03) (6.905381e-06 2.751003e-06 4.673429e-03)) ((2.608690e-09 -2.156473e-07 2.641245e-10) (3.503460e-07 -5.646397e-07 -3.397198e-09))
6.516634      	((1.217987e-04 -7.719243e-06 -7.085468e-03) (6.905356e-06 2.750930e-06 4.673429e-03)) ((2.608730e-09 -2.156473e-07 2.640954e-10) (3.503379e-07 -5.646387e-07 -3.398199e-09))
6.58731       	((1.217987e-04 -7.720024e-06 -7.085468e-03) (6.905332e-06 2.750837e-06 4.673429e-03)) ((2.608666e-09 -2.156473e-07 2.641008e-10) (3.503294e-07 -5.646377e-07 -3.399055e-09))
6.657986      	((1.217985e-04 -7.720525e-06 -7.085468e-03) (6.905315e-06 2.750749e-06 4.673429e-03)) ((2.608572e-09 -2.156473e-07 2.640881e-10) (3.503209e-07 -5.646370e-07 -3.399649e-09))
6.728662      	((1.217985e-04 -7.721323e-06 -7.085468e-03) (6.905305e-06 2.750675e-06 4.673429e-03)) ((2.608517e-09 -2.156473e-07 2.640972e-10) (3.503139e-07 -5.646366e-07 -3.400039e-09))
6.799338      	((1.217984e-04 -7.721598e-06 -7.085467e-03) (6.905301e-06 2.750626e-06 4.673429e-03)) ((2.608447e-09 -2.156473e-07 2.640843e-10) (3.503082e-07 -5.646364e-07 -3.400276e-09))
6.870014      	((1.217984e-04 -7.722211e-06 -7.085467e-03) (6.905299e-06 2.750587e-06 4.673429e-03)) ((2.608423e-09 -2.156473e-07 2.640931e-10) (3.503038e-07 -5.646363e-07 -3.400452e-09))
6.94069       	((1.217984e-04 -7.722346e-06 -7.085467e-03) (6.905300e-06 2.750561e-06 4.673429e-03)) ((2.608388e-09 -2.156473e-07 2.640835e-10) (3.503000e-07 -5.646363e-07 -3.400523e-09))
7.011366      	((1.217985e-04 -7.722811e-06 -7.085467e-03) (6.905301e-06 2.750538e-06 4.673430e-03)) ((2.608379e-09 -2.156473e-07 2.640926e-10) (3.502969e-07 -5.646363e-07 -3.400549e-09))
7.082042      	((1.217984e-04 -7.722957e-06 -7.085467e-03) (6.905303e-06 2.750519e-06 4.673430e-03)) ((2.608359e-09 -2.156473e-07 2.640842e-10) (3.502941e-07 -5.646363e-07 -3.400508e-09))
7.152718      	((1.217985e-04 -7.723412e-06 -7.085467e-03) (6.905305e-06 2.750499e-06 4.673430e-03)) ((2.608358e-09 -2.156473e-07 2.640920e-10) (3.502917e-07 -5.646363e-07 -3.400463e-09))
7.223394      	((1.217984e-04 -7.723574e-06 -7.085467e-03) (6.905307e-06 2.750484e-06 4.673430e-03)) ((2.608346e-09 -2.156473e-07 2.640837e-10) (3.502896e-07 -5.646363e-07 -3.400397e-09))
7.29407       	((1.217984e-04 -7.723996e-06 -7.085467e-03) (6.905308e-06 2.750466e-06 4.673430e-03)) ((2.608358e-09 -2.156473e-07 2.640903e-10) (3.502878e-07 -5.646362e-07 -3.400360e-09))
7.364746      	((1.217984e-04 -7.724071e-06 -7.085467e-03) (6.905309e-06 2.750453e-06 4.673430e-03)) ((2.608350e-09 -2.156472e-07 2.640825e-10) (3.502862e-07 -5.646363e-07 -3.400324e-09))
7.435422      	((1.217984e-04 -7.724398e-06 -7.085467e-03) (6.905309e-06 2.750438e-06 4.673430e-03)) ((2.608359e-09 -2.156472e-07 2.640887e-10) (3.502850e-07 -5.646362e-07 -3.400317e-09))
7.506098      	((1.217984e-04 -7.724427e-06 -7.085467e-03) (6.905310e-06 2.750428e-06 4.673430e-03)) ((2.608350e-09 -2.156472e-07 2.640821e-10) (3.502838e-07 -5.646363e-07 -3.400305e-09))
7.576774      	((1.217984e-04 -7.724693e-06 -7.085467e-03) (6.905310e-06 2.750417e-06 4.673430e-03)) ((2.608354e-09 -2.156472e-07 2.640881e-10) (3.502830e-07 -5.646362e-07 -3.400311e-09))
7.64745       	((1.217984e-04 -7.724637e-06 -7.085467e-03) (6.905310e-06 2.750411e-06 4.673430e-03)) ((2.608342e-09 -2.156472e-07 2.640824e-10) (3.502822e-07 -5.646363e-07 -3.400305e-09))
7.718126      	((1.217984e-04 -7.724875e-06 -7.085467e-03) (6.905310e-06 2.750404e-06 4.673430e-03)) ((2.608346e-09 -2.156472e-07 2.640882e-10) (3.502818e-07 -5.646362e-07 -3.400309e-09))
7.788802      	((1.217984e-04 -7.724785e-06 -7.085467e-03) (6.905310e-06 2.750400e-06 4.673430e-03)) ((2.608335e-09 -2.156472e-07 2.640834e-10) (3.502814e-07 -5.646362e-07 -3.400299e-09))
7.859478      	((1.217984e-04 -7.724976e-06 -7.085467e-03) (6.905310e-06 2.750396e-06 4.673430e-03)) ((2.608336e-09 -2.156472e-07 2.640887e-10) (3.502812e-07 -5.646362e-07 -3.400300e-09))
7.930154      	((1.217983e-04 -7.724912e-06 -7.085467e-03) (6.905310e-06 2.750394e-06 4.673430e-03)) ((2.608327e-09 -2.156472e-07 2.640843e-10) (3.502809e-07 -5.646362e-07 -3.400288e-09))
8.00083       	((1.217984e-04 -7.725069e-06 -7.085467e-03) (6.905310e-06 2.750391e-06 4.673430e-03)) ((2.608331e-09 -2.156472e-07 2.640891e-10) (3.502808e-07 -5.646362e-07 -3.400288e-09))
8.071506      	((1.217983e-04 -7.724994e-06 -7.085467e-03) (6.905310e-06 2.750389e-06 4.673430e-03)) ((2.608323e-09 -2.156472e-07 2.640850e-10) (3.502807e-07 -5.646362e-07 -3.400279e-09))
8.142182      	((1.217984e-04 -7.725132e-06 -7.085467e-03) (6.905310e-06 2.750386e-06 4.673430e-03)) ((2.608327e-09 -2.156472e-07 2.640892e-10) (3.502806e-07 -5.646362e-07 -3.400280e-09))
8.212858      	((1.217983e-04 -7.725069e-06 -7.085467e-03) (6.905310e-06 2.750385e-06 4.673430e-03)) ((2.608322e-09 -2.156472e-07 2.640854e-10) (3.502805e-07 -5.646362e-07 -3.400274e-09))
8.283534      	((1.217984e-04 -7.725184e-06 -7.085467e-03) (6.905310e-06 2.750383e-06 4.673430e-03)) ((2.608327e-09 -2.156472e-07 2.640891e-10) (3.502805e-07 -5.646362e-07 -3.400277e-09))
8.35421       	((1.217983e-04 -7.725118e-06 -7.085467e-03) (6.905310e-06 2.750382e-06 4.673430e-03)) ((2.608323e-09 -2.156472e-07 2.640855e-10) (3.502804e-07 -5.646362e-07 -3.400273e-09))
8.424886      	((1.217984e-04 -7.725218e-06 -7.085467e-03) (6.905310e-06 2.750380e-06 4.673430e-03)) ((2.608328e-09 -2.156472e-07 2.640888e-10) (3.502803e-07 -5.646362e-07 -3.400278e-09))
8.495562      	((1.217984e-04 -7.725192e-06 -7.085467e-03) (6.905310e-06 2.750379e-06 4.673430e-03)) ((2.608323e-09 -2.156472e-07 2.640853e-10) (3.502801e-07 -5.646362e-07 -3.400274e-09))
8.566238      	((1.217983e-04 -7.725218e-06 -7.085467e-03) (6.905309e-06 2.750377e-06 4.673430e-03)) ((2.608327e-09 -2.156472e-07 2.640881e-10) (3.502801e-07 -5.646362e-07 -3.400277e-09))
8.636914      	((1.217983e-04 -7.725182e-06 -7.085467e-03) (6.905310e-06 2.750377e-06 4.673430e-03)) ((2.608325e-09 -2.156472e-07 2.640855e-10) (3.502800e-07 -5.646362e-07 -3.400275e-09))
8.70759       	((1.217983e-04 -7.725209e-06 -7.085467e-03) (6.905310e-06 2.750376e-06 4.673430e-03)) ((2.608328e-09 -2.156473e-07 2.640895e-10) (3.502800e-07 -5.646362e-07 -3.400280e-09))
8.778267      	((1.217983e-04 -7.725127e-06 -7.085467e-03) (6.905310e-06 2.750376e-06 4.673430e-03)) ((2.608317e-09 -2.156472e-07 2.640849e-10) (3.502800e-07 -5.646362e-07 -3.400273e-09))
8.848943      	((1.217984e-04 -7.725307e-06 -7.085467e-03) (6.905309e-06 2.750376e-06 4.673430e-03)) ((2.608331e-09 -2.156472e-07 2.640883e-10) (3.502800e-07 -5.646361e-07 -3.400286e-09))
8.919619      	((1.217983e-04 -7.725221e-06 -7.085467e-03) (6.905309e-06 2.750376e-06 4.673430e-03)) ((2.608325e-09 -2.156472e-07 2.640862e-10) (3.502799e-07 -5.646361e-07 -3.400283e-09))
8.990295      	((1.217983e-04 -7.725254e-06 -7.085467e-03) (6.905309e-06 2.750375e-06 4.673430e-03)) ((2.608328e-09 -2.156472e-07 2.640879e-10) (3.502799e-07 -5.646361e-07 -3.400282e-09))
9.060971      	((1.217983e-04 -7.725187e-06 -7.085467e-03) (6.905309e-06 2.750375e-06 4.673430e-03)) ((2.608323e-09 -2.156472e-07 2.640860e-10) (3.502799e-07 -5.646362e-07 -3.400279e-09))
9.131647      	((1.217983e-04 -7.725251e-06 -7.085467e-03) (6.905309e-06 2.750374e-06 4.673430e-03)) ((2.608326e-09 -2.156472e-07 2.640881e-10) (3.502799e-07 -5.646361e-07 -3.400282e-09))
9.202323      	((1.217983e-04 -7.725208e-06 -7.085467e-03) (6.905309e-06 2.750375e-06 4.673430e-03)) ((2.608323e-09 -2.156472e-07 2.640861e-10) (3.502799e-07 -5.646362e-07 -3.400278e-09))
9.272999      	((1.217984e-04 -7.725249e-06 -7.085467e-03) (6.905309e-06 2.750374e-06 4.673430e-03)) ((2.608326e-09 -2.156472e-07 2.640881e-10) (3.502799e-07 -5.646362e-07 -3.400280e-09))
9.343675      	((1.217983e-04 -7.725209e-06 -7.085467e-03) (6.905309e-06 2.750375e-06 4.673430e-03)) ((2.608323e-09 -2.156472e-07 2.640862e-10) (3.502799e-07 -5.646362e-07 -3.400278e-09))
9.414351      	((1.217984e-04 -7.725247e-06 -7.085467e-03) (6.905309e-06 2.750374e-06 4.673430e-03)) ((2.608326e-09 -2.156472e-07 2.640880e-10) (3.502799e-07 -5.646362e-07 -3.400280e-09))
9.485027      	((1.217983e-04 -7.725211e-06 -7.085467e-03) (6.905309e-06 2.750374e-06 4.673430e-03)) ((2.608323e-09 -2.156472e-07 2.640862e-10) (3.502799e-07 -5.646362e-07 -3.400278e-09))
9.555703      	((1.217983e-04 -7.725248e-06 -7.085467e-03) (6.905309e-06 2.750374e-06 4.673430e-03)) ((2.608326e-09 -2.156472e-07 2.640879e-10) (3.502799e-07 -5.646362e-07 -3.400280e-09))
9.626379      	((1.217983e-04 -7.725215e-06 -7.085467e-03) (6.905309e-06 2.750374e-06 4.673430e-03)) ((2.608324e-09 -2.156472e-07 2.640863e-10) (3.502799e-07 -5.646362e-07 -3.400278e-09))
9.697055      	((1.217983e-04 -7.725249e-06 -7.085467e-03) (6.905309e-06 2.750374e-06 4.673430e-03)) ((2.608326e-09 -2.156472e-07 2.640878e-10) (3.502799e-07 -5.646362e-07 -3.400280e-09))
9.767731      	((1.217983e-04 -7.725216e-06 -7.085467e-03) (6.905309e-06 2.750374e-06 4.673430e-03)) ((2.608324e-09 -2.156472e-07 2.640863e-10) (3.502799e-07 -5.646362e-07 -3.400279e-09))
9.838407      	((1.217983e-04 -7.725246e-06 -7.085467e-03) (6.905309e-06 2.750374e-06 4.673430e-03)) ((2.608326e-09 -2.156472e-07 2.640877e-10) (3.502799e-07 -5.646362e-07 -3.400281e-09))
9.909083      	((1.217983e-04 -7.725217e-06 -7.085467e-03) (6.905309e-06 2.750374e-06 4.673430e-03)) ((2.608324e-09 -2.156472e-07 2.640864e-10) (3.502798e-07 -5.646362e-07 -3.400279e-09))
9.979759      	((1.217983e-04 -7.725245e-06 -7.085467e-03) (6.905309e-06 2.750374e-06 4.673430e-03)) ((2.608326e-09 -2.156472e-07 2.640877e-10) (3.502799e-07 -5.646362e-07 -3.400281e-09))
10.050435     	((1.217983e-04 -7.725219e-06 -7.085467e-03) (6.905309e-06 2.750374e-06 4.673430e-03)) ((2.608324e-09 -2.156472e-07 2.640865e-10) (3.502798e-07 -5.646362e-07 -3.400279e-09))
10.121111     	((1.217983e-04 -7.725244e-06 -7.085467e-03) (6.905309e-06 2.750374e-06 4.673430e-03)) ((2.608325e-09 -2.156472e-07 2.640876e-10) (3.502799e-07 -5.646362e-07 -3.400280e-09))
10.191787     	((1.217983e-04 -7.725220e-06 -7.085467e-03) (6.905309e-06 2.750374e-06 4.673430e-03)) ((2.608324e-09 -2.156472e-07 2.640865e-10) (3.502798e-07 -5.646362e-07 -3.400279e-09))
10.262463     	((1.217983e-04 -7.725244e-06 -7.085467e-03) (6.905309e-06 2.750374e-06 4.673430e-03)) ((2.608325e-09 -2.156472e-07 2.640876e-10) (3.502799e-07 -5.646362e-07 -3.400280e-09))
10.333139     	((1.217983e-04 -7.725222e-06 -7.085467e-03) (6.905309e-06 2.750374e-06 4.673430e-03)) ((2.608324e-09 -2.156472e-07 2.640866e-10) (3.502799e-07 -5.646362e-07 -3.400279e-09))
10.403815     	((1.217983e-04 -7.725243e-06 -7.085467e-03) (6.905309e-06 2.750374e-06 4.673430e-03)) ((2.608325e-09 -2.156472e-07 2.640875e-10) (3.502799e-07 -5.646362e-07 -3.400280e-09))
10.474491     	((1.217983e-04 -7.725223e-06 -7.085467e-03) (6.905309e-06 2.750374e-06 4.673430e-03)) ((2.608324e-09 -2.156472e-07 2.640866e-10) (3.502799e-07 -5.646362e-07 -3.400279e-09))
10.545167     	((1.217983e-04 -7.725242e-06 -7.085467e-03) (6.905309e-06 2.750374e-06 4.673430e-03)) ((2.608325e-09 -2.156472e-07 2.640875e-10) (3.502799e-07 -5.646362e-07 -3.400280e-09))
10.615843     	((1.217983e-04 -7.725224e-06 -7.085467e-03) (6.905309e-06 2.750374e-06 4.673430e-03)) ((2.608324e-09 -2.156472e-07 2.640867e-10) (3.502799e-07 -5.646362e-07 -3.400279e-09))
10.686519     	((1.217983e-04 -7.725241e-06 -7.085467e-03) (6.905309e-06 2.750374e-06 4.673430e-03)) ((2.608325e-09 -2.156472e-07 2.640875e-10) (3.502799e-07 -5.646362e-07 -3.400280e-09))