# Forces      
# CofR        : (0.000000e+00 0.000000e+00 0.000000e+00)
# Time        forces(pressure viscous)	moments(pressure viscous)
0             	((0.000000e+00 0.000000e+00 0.000000e+00) (3.519149e-07 6.748143e-10 3.800926e-02)) ((0.000000e+00 0.000000e+00 0.000000e+00) (-1.981933e-10 2.041455e-08 -5.163933e-13))
0.0113136     	((3.585409e-03 2.290895e-03 3.317696e+00) (4.302811e-06 5.341111e-06 3.663907e-02)) ((9.885840e-08 1.214354e-06 7.785985e-09) (4.534540e-07 -5.471761e-07 3.966483e-09))
0.02489       	((1.172115e-03 -1.540178e-04 -1.656427e+00) (9.481874e-06 1.108653e-05 3.157753e-02)) ((4.139627e-08 -2.789948e-06 -7.047030e-09) (5.488339e-07 -5.966201e-07 5.642907e-09))
0.0410522     	((2.337058e-04 -2.895558e-04 1.986588e-01) (3.030126e-06 4.511801e-06 2.612221e-02)) ((-5.728029e-08 -2.438101e-07 -2.321795e-09) (2.597639e-07 -1.169405e-07 8.155539e-11))
0.0597886     	((1.349912e-03 -1.688710e-04 -1.715144e-01) (1.597184e-06 -2.905765e-06 2.448690e-02)) ((1.753647e-09 -1.168958e-06 -3.019679e-09) (-1.215780e-07 2.296299e-07 -5.436110e-09))
0.0810808     	((6.706023e-04 -2.977061e-04 2.220726e-02) (2.309862e-06 -7.870208e-06 2.268894e-02)) ((-1.218991e-08 -8.052010e-07 1.825331e-09) (-4.462091e-07 4.697293e-07 -4.100160e-09))
0.104938      	((8.456789e-04 -2.763687e-04 -8.240268e-02) (6.129795e-06 -7.308594e-06 2.123604e-02)) ((-2.932424e-08 -1.133570e-06 -3.887266e-10) (-4.606422e-07 2.199386e-07 -1.156020e-08))
0.130736      	((8.965934e-04 -1.639066e-04 -2.781011e-02) (1.190854e-05 -5.525423e-06 2.068304e-02)) ((-1.820112e-08 -9.793911e-07 1.694056e-09) (-3.873305e-07 -1.200904e-07 -1.324880e-08))
0.156393      	((9.174263e-04 -1.568917e-04 -5.670452e-02) (1.515045e-05 -4.079362e-06 2.005632e-02)) ((-8.119092e-09 -1.119179e-06 1.178561e-09) (-2.995333e-07 -3.430822e-07 -1.669029e-08))
0.182031      	((9.377114e-04 -1.251540e-04 -4.098360e-02) (1.766046e-05 -2.175920e-06 1.973146e-02)) ((-1.887279e-09 -1.077399e-06 3.220513e-09) (-1.624210e-07 -6.234949e-07 -2.003801e-08))
0.207613      	((9.295984e-04 -1.364630e-04 -4.956590e-02) (2.046098e-05 -1.276021e-06 1.945400e-02)) ((1.195049e-09 -1.126532e-06 2.434530e-09) (-7.164251e-08 -8.585136e-07 -1.612836e-08))
0.233193      	((9.745663e-04 -1.490090e-04 -4.477255e-02) (2.157967e-05 -3.977495e-07 1.926923e-02)) ((8.259817e-09 -1.109037e-06 3.177903e-09) (3.310426e-09 -1.015184e-06 -1.233462e-08))
0.258783      	((9.733026e-04 -1.451544e-04 -4.743473e-02) (2.327902e-05 4.624311e-08 1.914894e-02)) ((8.174125e-09 -1.134145e-06 3.052713e-09) (6.786056e-08 -1.206415e-06 -1.164817e-08))
0.284426      	((1.030166e-03 -1.316342e-04 -4.601796e-02) (2.452793e-05 3.864838e-07 1.907956e-02)) ((7.422352e-09 -1.134045e-06 2.816988e-09) (1.191898e-07 -1.355212e-06 -1.445029e-08))
0.310128      	((1.022280e-03 -1.345709e-04 -4.700536e-02) (2.563277e-05 7.947230e-07 1.905055e-02)) ((8.066244e-09 -1.152990e-06 2.895213e-09) (1.767011e-07 -1.490096e-06 -1.658689e-08))
0.33588       	((1.041124e-03 -1.424916e-04 -4.661598e-02) (2.661659e-05 1.199439e-06 1.906073e-02)) ((9.205056e-09 -1.160507e-06 2.780837e-09) (2.404448e-07 -1.611236e-06 -1.689041e-08))
0.361634      	((1.051037e-03 -1.403386e-04 -4.707981e-02) (2.769727e-05 1.566938e-06 1.909984e-02)) ((9.812657e-09 -1.174213e-06 2.950710e-09) (2.994960e-07 -1.709531e-06 -1.683471e-08))
0.387371      	((1.074587e-03 -1.386066e-04 -4.704579e-02) (2.867793e-05 1.934174e-06 1.916329e-02)) ((1.077873e-08 -1.184693e-06 2.866294e-09) (3.535813e-07 -1.794343e-06 -1.708185e-08))
0.413062      	((1.090403e-03 -1.403651e-04 -4.727109e-02) (2.956103e-05 2.249420e-06 1.924232e-02)) ((1.309095e-08 -1.194531e-06 2.831600e-09) (3.987670e-07 -1.863534e-06 -1.834199e-08))
0.43868       	((1.102449e-03 -1.368713e-04 -4.724409e-02) (3.035571e-05 2.523642e-06 1.932946e-02)) ((1.506388e-08 -1.202480e-06 2.775078e-09) (4.341584e-07 -1.923874e-06 -2.072344e-08))
0.464199      	((1.118301e-03 -1.318716e-04 -4.722958e-02) (3.102611e-05 2.690610e-06 1.941714e-02)) ((1.707648e-08 -1.207129e-06 2.815402e-09) (4.596114e-07 -1.974941e-06 -2.335952e-08))
0.489602      	((1.123899e-03 -1.272089e-04 -4.702403e-02) (3.149992e-05 2.796478e-06 1.949820e-02)) ((1.719196e-08 -1.210861e-06 2.822049e-09) (4.778108e-07 -2.014248e-06 -2.575523e-08))
0.51488       	((1.132062e-03 -1.243849e-04 -4.674267e-02) (3.172528e-05 2.917174e-06 1.956641e-02)) ((1.726089e-08 -1.210968e-06 2.781666e-09) (4.954957e-07 -2.035348e-06 -2.720208e-08))
0.540044      	((1.132082e-03 -1.200113e-04 -4.637555e-02) (3.175551e-05 3.055952e-06 1.961737e-02)) ((1.776583e-08 -1.207435e-06 2.730316e-09) (5.122416e-07 -2.045276e-06 -2.759686e-08))
0.56512       	((1.138706e-03 -1.154532e-04 -4.604812e-02) (3.174030e-05 3.178201e-06 1.964911e-02)) ((1.805276e-08 -1.201271e-06 2.666372e-09) (5.267561e-07 -2.050008e-06 -2.708909e-08))
0.590146      	((1.143715e-03 -1.108396e-04 -4.582239e-02) (3.175273e-05 3.291307e-06 1.966287e-02)) ((1.811594e-08 -1.194799e-06 2.607037e-09) (5.383140e-07 -2.054677e-06 -2.569649e-08))
0.615162      	((1.150863e-03 -1.101328e-04 -4.576669e-02) (3.184632e-05 3.379050e-06 1.966244e-02)) ((1.810160e-08 -1.189630e-06 2.600164e-09) (5.467826e-07 -2.060373e-06 -2.378632e-08))
0.640195      	((1.154779e-03 -1.103323e-04 -4.585165e-02) (3.193644e-05 3.450301e-06 1.965326e-02)) ((1.798793e-08 -1.187028e-06 2.619624e-09) (5.525298e-07 -2.066284e-06 -2.198402e-08))
0.665255      	((1.161397e-03 -1.125275e-04 -4.601451e-02) (3.202229e-05 3.502389e-06 1.964073e-02)) ((1.800317e-08 -1.186621e-06 2.647323e-09) (5.558438e-07 -2.071646e-06 -2.050416e-08))
0.690341      	((1.163854e-03 -1.137343e-04 -4.616332e-02) (3.209521e-05 3.541513e-06 1.962884e-02)) ((1.807131e-08 -1.187688e-06 2.714830e-09) (5.578035e-07 -2.076883e-06 -1.943570e-08))
0.715443      	((1.164696e-03 -1.140984e-04 -4.624713e-02) (3.215930e-05 3.562799e-06 1.961954e-02)) ((1.810330e-08 -1.188968e-06 2.761865e-09) (5.594632e-07 -2.081927e-06 -1.863493e-08))
0.740552      	((1.163181e-03 -1.131789e-04 -4.625852e-02) (3.221237e-05 3.583358e-06 1.961309e-02)) ((1.815700e-08 -1.189866e-06 2.808010e-09) (5.610833e-07 -2.086399e-06 -1.811576e-08))
0.765665      	((1.164010e-03 -1.125483e-04 -4.623547e-02) (3.226619e-05 3.599225e-06 1.960889e-02)) ((1.824598e-08 -1.189998e-06 2.843384e-09) (5.628076e-07 -2.090205e-06 -1.780184e-08))
0.790782      	((1.163922e-03 -1.117366e-04 -4.621627e-02) (3.231582e-05 3.612570e-06 1.960619e-02)) ((1.830722e-08 -1.190033e-06 2.878931e-09) (5.643857e-07 -2.093490e-06 -1.764109e-08))
0.815902      	((1.165131e-03 -1.115606e-04 -4.621916e-02) (3.236392e-05 3.618120e-06 1.960454e-02)) ((1.840327e-08 -1.190064e-06 2.885363e-09) (5.657609e-07 -2.096283e-06 -1.752155e-08))
0.841025      	((1.165350e-03 -1.111148e-04 -4.623335e-02) (3.240021e-05 3.622170e-06 1.960369e-02)) ((1.844233e-08 -1.190392e-06 2.896526e-09) (5.669241e-07 -2.098698e-06 -1.740119e-08))
0.866149      	((1.166068e-03 -1.111135e-04 -4.624158e-02) (3.242992e-05 3.623014e-06 1.960346e-02)) ((1.851828e-08 -1.190676e-06 2.894484e-09) (5.679716e-07 -2.100693e-06 -1.725613e-08))
0.891272      	((1.165816e-03 -1.108113e-04 -4.623953e-02) (3.245071e-05 3.625023e-06 1.960368e-02)) ((1.855129e-08 -1.190917e-06 2.904871e-09) (5.688866e-07 -2.102258e-06 -1.712887e-08))
0.916394      	((1.166363e-03 -1.108678e-04 -4.623319e-02) (3.246854e-05 3.625681e-06 1.960414e-02)) ((1.861329e-08 -1.190957e-06 2.904326e-09) (5.696295e-07 -2.103424e-06 -1.701916e-08))
0.941516      	((1.166442e-03 -1.106445e-04 -4.623017e-02) (3.248230e-05 3.627580e-06 1.960471e-02)) ((1.863095e-08 -1.191000e-06 2.906951e-09) (5.701928e-07 -2.104329e-06 -1.694190e-08))
0.966637      	((1.167088e-03 -1.106670e-04 -4.623123e-02) (3.249574e-05 3.628597e-06 1.960529e-02)) ((1.866628e-08 -1.191012e-06 2.901779e-09) (5.706196e-07 -2.105124e-06 -1.687364e-08))
0.991757      	((1.167180e-03 -1.104888e-04 -4.623264e-02) (3.250680e-05 3.630481e-06 1.960584e-02)) ((1.867201e-08 -1.191076e-06 2.899941e-09) (5.709292e-07 -2.105844e-06 -1.681843e-08))
1.016876      	((1.167577e-03 -1.105245e-04 -4.623160e-02) (3.251728e-05 3.631383e-06 1.960632e-02)) ((1.869018e-08 -1.191083e-06 2.894211e-09) (5.711553e-07 -2.106460e-06 -1.676124e-08))
1.041995      	((1.167632e-03 -1.103944e-04 -4.622968e-02) (3.252578e-05 3.632593e-06 1.960672e-02)) ((1.868747e-08 -1.191098e-06 2.892305e-09) (5.713051e-07 -2.106968e-06 -1.671082e-08))
1.067113      	((1.167957e-03 -1.104544e-04 -4.622812e-02) (3.253370e-05 3.632841e-06 1.960702e-02)) ((1.869596e-08 -1.191074e-06 2.887015e-09) (5.714022e-07 -2.107366e-06 -1.665967e-08))
1.092231      	((1.168050e-03 -1.103738e-04 -4.622775e-02) (3.253998e-05 3.633271e-06 1.960723e-02)) ((1.869139e-08 -1.191076e-06 2.884290e-09) (5.714533e-07 -2.107699e-06 -1.661654e-08))
1.117348      	((1.168288e-03 -1.104389e-04 -4.622736e-02) (3.254572e-05 3.633040e-06 1.960736e-02)) ((1.869580e-08 -1.191059e-06 2.878855e-09) (5.714803e-07 -2.107977e-06 -1.657498e-08))
1.142465      	((1.168314e-03 -1.103859e-04 -4.622676e-02) (3.255009e-05 3.633028e-06 1.960742e-02)) ((1.869071e-08 -1.191057e-06 2.875215e-09) (5.714847e-07 -2.108221e-06 -1.654089e-08))
1.167583      	((1.168467e-03 -1.104316e-04 -4.622620e-02) (3.255407e-05 3.632644e-06 1.960744e-02)) ((1.869329e-08 -1.191038e-06 2.869315e-09) (5.714806e-07 -2.108427e-06 -1.650988e-08))
1.1927        	((1.168495e-03 -1.103836e-04 -4.622608e-02) (3.255704e-05 3.632550e-06 1.960743e-02)) ((1.868902e-08 -1.191035e-06 2.864654e-09) (5.714669e-07 -2.108607e-06 -1.648647e-08))
1.217817      	((1.168619e-03 -1.104141e-04 -4.622629e-02) (3.255975e-05 3.632303e-06 1.960739e-02)) ((1.869062e-08 -1.191027e-06 2.857707e-09) (5.714531e-07 -2.108756e-06 -1.646624e-08))
1.242935      	((1.168640e-03 -1.103708e-04 -4.622656e-02) (3.256174e-05 3.632369e-06 1.960735e-02)) ((1.868641e-08 -1.191032e-06 2.851199e-09) (5.714384e-07 -2.108882e-06 -1.645108e-08))
1.268052      	((1.168754e-03 -1.103840e-04 -4.622679e-02) (3.256366e-05 3.632376e-06 1.960730e-02)) ((1.868672e-08 -1.191031e-06 2.842048e-09) (5.714296e-07 -2.108979e-06 -1.643730e-08))
1.29317       	((1.168819e-03 -1.103442e-04 -4.622701e-02) (3.256527e-05 3.632662e-06 1.960726e-02)) ((1.868213e-08 -1.191038e-06 2.831493e-09) (5.714256e-07 -2.109057e-06 -1.642576e-08))
1.318287      	((1.168938e-03 -1.103501e-04 -4.622725e-02) (3.256685e-05 3.632937e-06 1.960723e-02)) ((1.868222e-08 -1.191036e-06 2.819293e-09) (5.714289e-07 -2.109140e-06 -1.641269e-08))
1.343405      	((1.168975e-03 -1.103148e-04 -4.622738e-02) (3.256815e-05 3.633373e-06 1.960721e-02)) ((1.867992e-08 -1.191039e-06 2.816211e-09) (5.714350e-07 -2.109247e-06 -1.640242e-08))
1.368522      	((1.169006e-03 -1.103217e-04 -4.622741e-02) (3.256914e-05 3.633674e-06 1.960720e-02)) ((1.868180e-08 -1.191040e-06 2.818632e-09) (5.714449e-07 -2.109350e-06 -1.639612e-08))
1.39364       	((1.169001e-03 -1.103020e-04 -4.622741e-02) (3.256973e-05 3.634006e-06 1.960719e-02)) ((1.868055e-08 -1.191045e-06 2.819902e-09) (5.714564e-07 -2.109431e-06 -1.639361e-08))
1.418758      	((1.169025e-03 -1.103094e-04 -4.622740e-02) (3.257039e-05 3.634196e-06 1.960719e-02)) ((1.868187e-08 -1.191046e-06 2.819687e-09) (5.714698e-07 -2.109487e-06 -1.639271e-08))
1.443876      	((1.169022e-03 -1.102971e-04 -4.622741e-02) (3.257086e-05 3.634417e-06 1.960719e-02)) ((1.868120e-08 -1.191048e-06 2.819849e-09) (5.714824e-07 -2.109529e-06 -1.639290e-08))
1.468993      	((1.169043e-03 -1.103029e-04 -4.622741e-02) (3.257132e-05 3.634558e-06 1.960719e-02)) ((1.868234e-08 -1.191048e-06 2.819688e-09) (5.714947e-07 -2.109564e-06 -1.639240e-08))
1.494111      	((1.169041e-03 -1.102937e-04 -4.622740e-02) (3.257167e-05 3.634724e-06 1.960719e-02)) ((1.868190e-08 -1.191050e-06 2.819932e-09) (5.715049e-07 -2.109591e-06 -1.639230e-08))
1.519229      	((1.169055e-03 -1.102981e-04 -4.622740e-02) (3.257203e-05 3.634820e-06 1.960719e-02)) ((1.868271e-08 -1.191050e-06 2.819799e-09) (5.715140e-07 -2.109612e-06 -1.639199e-08))
1.544346      	((1.169053e-03 -1.102910e-04 -4.622739e-02) (3.257229e-05 3.634934e-06 1.960720e-02)) ((1.868239e-08 -1.191051e-06 2.819938e-09) (5.715213e-07 -2.109630e-06 -1.639192e-08))
1.569464      	((1.169064e-03 -1.102943e-04 -4.622738e-02) (3.257254e-05 3.634998e-06 1.960720e-02)) ((1.868297e-08 -1.191050e-06 2.819859e-09) (5.715276e-07 -2.109645e-06 -1.639164e-08))
1.594582      	((1.169061e-03 -1.102888e-04 -4.622738e-02) (3.257273e-05 3.635076e-06 1.960720e-02)) ((1.868272e-08 -1.191051e-06 2.819952e-09) (5.715325e-07 -2.109657e-06 -1.639160e-08))
1.619699      	((1.169070e-03 -1.102915e-04 -4.622737e-02) (3.257291e-05 3.635120e-06 1.960720e-02)) ((1.868315e-08 -1.191051e-06 2.819882e-09) (5.715367e-07 -2.109667e-06 -1.639136e-08))
1.644817      	((1.169067e-03 -1.102873e-04 -4.622737e-02) (3.257303e-05 3.635177e-06 1.960720e-02)) ((1.868294e-08 -1.191051e-06 2.819957e-09) (5.715398e-07 -2.109676e-06 -1.639128e-08))
1.669935      	((1.169073e-03 -1.102892e-04 -4.622737e-02) (3.257316e-05 3.635210e-06 1.960720e-02)) ((1.868326e-08 -1.191051e-06 2.819901e-09) (5.715426e-07 -2.109683e-06 -1.639107e-08))
1.695052      	((1.169070e-03 -1.102859e-04 -4.622736e-02) (3.257324e-05 3.635253e-06 1.960720e-02)) ((1.868308e-08 -1.191051e-06 2.819957e-09) (5.715446e-07 -2.109688e-06 -1.639099e-08))
1.72017       	((1.169075e-03 -1.102874e-04 -4.622736e-02) (3.257332e-05 3.635280e-06 1.960720e-02)) ((1.868332e-08 -1.191051e-06 2.819913e-09) (5.715466e-07 -2.109693e-06 -1.639081e-08))
1.745288      	((1.169073e-03 -1.102847e-04 -4.622736e-02) (3.257337e-05 3.635316e-06 1.960720e-02)) ((1.868318e-08 -1.191051e-06 2.819952e-09) (5.715481e-07 -2.109696e-06 -1.639073e-08))
1.770405      	((1.169076e-03 -1.102859e-04 -4.622736e-02) (3.257343e-05 3.635339e-06 1.960720e-02)) ((1.868334e-08 -1.191051e-06 2.819918e-09) (5.715497e-07 -2.109700e-06 -1.639058e-08))
1.795523      	((1.169074e-03 -1.102839e-04 -4.622736e-02) (3.257346e-05 3.635368e-06 1.960720e-02)) ((1.868323e-08 -1.191051e-06 2.819948e-09) (5.715509e-07 -2.109702e-06 -1.639050e-08))
1.820641      	((1.169076e-03 -1.102848e-04 -4.622736e-02) (3.257350e-05 3.635386e-06 1.960720e-02)) ((1.868335e-08 -1.191051e-06 2.819919e-09) (5.715521e-07 -2.109704e-06 -1.639039e-08))
1.845758      	((1.169075e-03 -1.102833e-04 -4.622736e-02) (3.257352e-05 3.635408e-06 1.960720e-02)) ((1.868327e-08 -1.191051e-06 2.819940e-09) (5.715530e-07 -2.109706e-06 -1.639035e-08))
1.870876      	((1.169077e-03 -1.102841e-04 -4.622736e-02) (3.257355e-05 3.635420e-06 1.960720e-02)) ((1.868337e-08 -1.191051e-06 2.819918e-09) (5.715540e-07 -2.109707e-06 -1.639028e-08))
1.895994      	((1.169076e-03 -1.102831e-04 -4.622736e-02) (3.257357e-05 3.635435e-06 1.960720e-02)) ((1.868330e-08 -1.191051e-06 2.819935e-09) (5.715547e-07 -2.109708e-06 -1.639026e-08))
1.921111      	((1.169078e-03 -1.102837e-04 -4.622736e-02) (3.257358e-05 3.635444e-06 1.960720e-02)) ((1.868338e-08 -1.191051e-06 2.819918e-09) (5.715554e-07 -2.109709e-06 -1.639022e-08))
1.946229      	((1.169077e-03 -1.102830e-04 -4.622736e-02) (3.257359e-05 3.635454e-06 1.960720e-02)) ((1.868333e-08 -1.191051e-06 2.819931e-09) (5.715559e-07 -2.109710e-06 -1.639021e-08))
1.971347      	((1.169078e-03 -1.102835e-04 -4.622736e-02) (3.257361e-05 3.635458e-06 1.960720e-02)) ((1.868339e-08 -1.191051e-06 2.819918e-09) (5.715563e-07 -2.109711e-06 -1.639018e-08))
1.996464      	((1.169077e-03 -1.102829e-04 -4.622736e-02) (3.257362e-05 3.635465e-06 1.960720e-02)) ((1.868335e-08 -1.191051e-06 2.819928e-09) (5.715567e-07 -2.109711e-06 -1.639019e-08))
2.021582      	((1.169078e-03 -1.102833e-04 -4.622736e-02) (3.257362e-05 3.635467e-06 1.960720e-02)) ((1.868339e-08 -1.191051e-06 2.819918e-09) (5.715570e-07 -2.109712e-06 -1.639017e-08))
2.0467        	((1.169078e-03 -1.102829e-04 -4.622736e-02) (3.257363e-05 3.635472e-06 1.960720e-02)) ((1.868337e-08 -1.191051e-06 2.819925e-09) (5.715573e-07 -2.109712e-06 -1.639018e-08))
2.071817      	((1.169078e-03 -1.102832e-04 -4.622736e-02) (3.257364e-05 3.635473e-06 1.960720e-02)) ((1.868340e-08 -1.191051e-06 2.819918e-09) (5.715575e-07 -2.109712e-06 -1.639016e-08))
2.096935      	((1.169078e-03 -1.102829e-04 -4.622736e-02) (3.257364e-05 3.635476e-06 1.960720e-02)) ((1.868338e-08 -1.191051e-06 2.819924e-09) (5.715576e-07 -2.109712e-06 -1.639017e-08))
2.122053      	((1.169078e-03 -1.102831e-04 -4.622736e-02) (3.257364e-05 3.635477e-06 1.960720e-02)) ((1.868340e-08 -1.191051e-06 2.819918e-09) (5.715578e-07 -2.109713e-06 -1.639015e-08))
2.14717       	((1.169077e-03 -1.102829e-04 -4.622736e-02) (3.257364e-05 3.635479e-06 1.960720e-02)) ((1.868340e-08 -1.191051e-06 2.819910e-09) (5.715579e-07 -2.109713e-06 -1.639018e-08))
2.172288      	((1.169078e-03 -1.102831e-04 -4.622736e-02) (3.257365e-05 3.635480e-06 1.960720e-02)) ((1.868341e-08 -1.191051e-06 2.819913e-09) (5.715580e-07 -2.109713e-06 -1.639019e-08))
2.197406      	((1.169078e-03 -1.102828e-04 -4.622736e-02) (3.257365e-05 3.635482e-06 1.960720e-02)) ((1.868339e-08 -1.191051e-06 2.819926e-09) (5.715581e-07 -2.109713e-06 -1.639019e-08))
2.222523      	((1.169078e-03 -1.102829e-04 -4.622736e-02) (3.257365e-05 3.635482e-06 1.960720e-02)) ((1.868340e-08 -1.191051e-06 2.819919e-09) (5.715581e-07 -2.109713e-06 -1.639018e-08))
2.247641      	((1.169078e-03 -1.102829e-04 -4.622736e-02) (3.257365e-05 3.635483e-06 1.960720e-02)) ((1.868339e-08 -1.191051e-06 2.819921e-09) (5.715582e-07 -2.109713e-06 -1.639016e-08))
2.272759      	((1.169078e-03 -1.102829e-04 -4.622736e-02) (3.257365e-05 3.635484e-06 1.960720e-02)) ((1.868340e-08 -1.191051e-06 2.819919e-09) (5.715582e-07 -2.109713e-06 -1.639014e-08))
2.297876      	((1.169078e-03 -1.102829e-04 -4.622736e-02) (3.257365e-05 3.635484e-06 1.960720e-02)) ((1.868340e-08 -1.191051e-06 2.819921e-09) (5.715582e-07 -2.109713e-06 -1.639013e-08))
2.322994      	((1.169078e-03 -1.102829e-04 -4.622736e-02) (3.257365e-05 3.635485e-06 1.960720e-02)) ((1.868340e-08 -1.191051e-06 2.819919e-09) (5.715583e-07 -2.109713e-06 -1.639013e-08))
2.348112      	((1.169078e-03 -1.102829e-04 -4.622736e-02) (3.257365e-05 3.635485e-06 1.960720e-02)) ((1.868340e-08 -1.191051e-06 2.819921e-09) (5.715583e-07 -2.109713e-06 -1.639013e-08))
2.373229      	((1.169078e-03 -1.102829e-04 -4.622736e-02) (3.257365e-05 3.635485e-06 1.960720e-02)) ((1.868340e-08 -1.191051e-06 2.819919e-09) (5.715583e-07 -2.109713e-06 -1.639012e-08))
2.398347      	((1.169078e-03 -1.102829e-04 -4.622736e-02) (3.257365e-05 3.635485e-06 1.960720e-02)) ((1.868340e-08 -1.191051e-06 2.819921e-09) (5.715583e-07 -2.109713e-06 -1.639012e-08))
2.423465      	((1.169078e-03 -1.102829e-04 -4.622736e-02) (3.257365e-05 3.635486e-06 1.960720e-02)) ((1.868340e-08 -1.191051e-06 2.819919e-09) (5.715584e-07 -2.109713e-06 -1.639012e-08))
2.448582      	((1.169078e-03 -1.102829e-04 -4.622736e-02) (3.257365e-05 3.635486e-06 1.960720e-02)) ((1.868340e-08 -1.191051e-06 2.819920e-09) (5.715584e-07 -2.109713e-06 -1.639012e-08))
2.4737        	((1.169078e-03 -1.102829e-04 -4.622736e-02) (3.257365e-05 3.635486e-06 1.960720e-02)) ((1.868340e-08 -1.191051e-06 2.819919e-09) (5.715584e-07 -2.109713e-06 -1.639012e-08))
2.498818      	((1.169078e-03 -1.102829e-04 -4.622736e-02) (3.257365e-05 3.635486e-06 1.960720e-02)) ((1.868340e-08 -1.191051e-06 2.819920e-09) (5.715584e-07 -2.109713e-06 -1.639012e-08))
2.523935      	((1.169078e-03 -1.102829e-04 -4.622736e-02) (3.257365e-05 3.635486e-06 1.960720e-02)) ((1.868340e-08 -1.191051e-06 2.819919e-09) (5.715584e-07 -2.109713e-06 -1.639012e-08))
2.549053      	((1.169078e-03 -1.102828e-04 -4.622736e-02) (3.257365e-05 3.635486e-06 1.960720e-02)) ((1.868340e-08 -1.191051e-06 2.819920e-09) (5.715584e-07 -2.109713e-06 -1.639012e-08))
2.574171      	((1.169078e-03 -1.102829e-04 -4.622736e-02) (3.257365e-05 3.635486e-06 1.960720e-02)) ((1.868340e-08 -1.191051e-06 2.819919e-09) (5.715584e-07 -2.109713e-06 -1.639012e-08))
2.599288      	((1.169078e-03 -1.102828e-04 -4.622736e-02) (3.257365e-05 3.635486e-06 1.960720e-02)) ((1.868340e-08 -1.191051e-06 2.819920e-09) (5.715584e-07 -2.109714e-06 -1.639012e-08))
2.624406      	((1.169078e-03 -1.102829e-04 -4.622736e-02) (3.257366e-05 3.635486e-06 1.960720e-02)) ((1.868340e-08 -1.191051e-06 2.819919e-09) (5.715584e-07 -2.109714e-06 -1.639012e-08))
2.649524      	((1.169078e-03 -1.102828e-04 -4.622736e-02) (3.257366e-05 3.635486e-06 1.960720e-02)) ((1.868340e-08 -1.191051e-06 2.819920e-09) (5.715584e-07 -2.109714e-06 -1.639012e-08))
2.674641      	((1.169078e-03 -1.102829e-04 -4.622736e-02) (3.257366e-05 3.635486e-06 1.960720e-02)) ((1.868340e-08 -1.191051e-06 2.819919e-09) (5.715584e-07 -2.109714e-06 -1.639012e-08))
2.699759      	((1.169078e-03 -1.102828e-04 -4.622736e-02) (3.257366e-05 3.635486e-06 1.960720e-02)) ((1.868340e-08 -1.191051e-06 2.819920e-09) (5.715584e-07 -2.109714e-06 -1.639012e-08))
2.724877      	((1.169078e-03 -1.102829e-04 -4.622736e-02) (3.257366e-05 3.635486e-06 1.960720e-02)) ((1.868340e-08 -1.191051e-06 2.819919e-09) (5.715584e-07 -2.109714e-06 -1.639011e-08))
2.749994      	((1.169078e-03 -1.102828e-04 -4.622736e-02) (3.257366e-05 3.635486e-06 1.960720e-02)) ((1.868340e-08 -1.191051e-06 2.819920e-09) (5.715584e-07 -2.109714e-06 -1.639011e-08))
2.775112      	((1.169078e-03 -1.102829e-04 -4.622736e-02) (3.257366e-05 3.635486e-06 1.960720e-02)) ((1.868340e-08 -1.191051e-06 2.819919e-09) (5.715584e-07 -2.109714e-06 -1.639011e-08))
2.80023       	((1.169078e-03 -1.102828e-04 -4.622736e-02) (3.257366e-05 3.635486e-06 1.960720e-02)) ((1.868340e-08 -1.191051e-06 2.819920e-09) (5.715584e-07 -2.109714e-06 -1.639011e-08))
2.825347      	((1.169078e-03 -1.102828e-04 -4.622736e-02) (3.257366e-05 3.635486e-06 1.960720e-02)) ((1.868340e-08 -1.191051e-06 2.819919e-09) (5.715584e-07 -2.109714e-06 -1.639011e-08))
2.850465      	((1.169078e-03 -1.102828e-04 -4.622736e-02) (3.257366e-05 3.635486e-06 1.960720e-02)) ((1.868340e-08 -1.191051e-06 2.819920e-09) (5.715584e-07 -2.109714e-06 -1.639011e-08))
2.875583      	((1.169078e-03 -1.102828e-04 -4.622736e-02) (3.257366e-05 3.635486e-06 1.960720e-02)) ((1.868340e-08 -1.191051e-06 2.819919e-09) (5.715585e-07 -2.109714e-06 -1.639011e-08))
2.9007        	((1.169078e-03 -1.102828e-04 -4.622736e-02) (3.257365e-05 3.635486e-06 1.960720e-02)) ((1.868340e-08 -1.191051e-06 2.819920e-09) (5.715585e-07 -2.109714e-06 -1.639011e-08))
2.925818      	((1.169078e-03 -1.102828e-04 -4.622736e-02) (3.257365e-05 3.635486e-06 1.960720e-02)) ((1.868340e-08 -1.191051e-06 2.819919e-09) (5.715585e-07 -2.109714e-06 -1.639011e-08))
2.950936      	((1.169078e-03 -1.102828e-04 -4.622736e-02) (3.257365e-05 3.635486e-06 1.960720e-02)) ((1.868340e-08 -1.191051e-06 2.819919e-09) (5.715585e-07 -2.109714e-06 -1.639011e-08))
2.976053      	((1.169078e-03 -1.102828e-04 -4.622736e-02) (3.257365e-05 3.635486e-06 1.960720e-02)) ((1.868340e-08 -1.191051e-06 2.819919e-09) (5.715585e-07 -2.109714e-06 -1.639011e-08))
3.001171      	((1.169078e-03 -1.102828e-04 -4.622736e-02) (3.257365e-05 3.635487e-06 1.960720e-02)) ((1.868340e-08 -1.191051e-06 2.819919e-09) (5.715585e-07 -2.109714e-06 -1.639011e-08))
3.026289      	((1.169078e-03 -1.102828e-04 -4.622736e-02) (3.257365e-05 3.635487e-06 1.960720e-02)) ((1.868340e-08 -1.191051e-06 2.819919e-09) (5.715585e-07 -2.109714e-06 -1.639011e-08))
3.051406      	((1.169078e-03 -1.102828e-04 -4.622736e-02) (3.257365e-05 3.635487e-06 1.960720e-02)) ((1.868340e-08 -1.191051e-06 2.819919e-09) (5.715585e-07 -2.109714e-06 -1.639011e-08))
3.076524      	((1.169078e-03 -1.102828e-04 -4.622736e-02) (3.257365e-05 3.635487e-06 1.960720e-02)) ((1.868340e-08 -1.191051e-06 2.819919e-09) (5.715585e-07 -2.109714e-06 -1.639011e-08))
3.101642      	((1.169078e-03 -1.102828e-04 -4.622736e-02) (3.257365e-05 3.635487e-06 1.960720e-02)) ((1.868340e-08 -1.191051e-06 2.819919e-09) (5.715585e-07 -2.109714e-06 -1.639011e-08))
3.126759      	((1.169078e-03 -1.102828e-04 -4.622736e-02) (3.257365e-05 3.635487e-06 1.960720e-02)) ((1.868340e-08 -1.191051e-06 2.819919e-09) (5.715585e-07 -2.109714e-06 -1.639011e-08))
3.151877      	((1.169078e-03 -1.102828e-04 -4.622736e-02) (3.257365e-05 3.635487e-06 1.960720e-02)) ((1.868340e-08 -1.191051e-06 2.819919e-09) (5.715585e-07 -2.109714e-06 -1.639011e-08))
3.176995      	((1.169078e-03 -1.102828e-04 -4.622736e-02) (3.257365e-05 3.635487e-06 1.960720e-02)) ((1.868340e-08 -1.191051e-06 2.819919e-09) (5.715585e-07 -2.109714e-06 -1.639011e-08))
3.202112      	((1.169078e-03 -1.102828e-04 -4.622736e-02) (3.257365e-05 3.635487e-06 1.960720e-02)) ((1.868340e-08 -1.191051e-06 2.819919e-09) (5.715585e-07 -2.109714e-06 -1.639011e-08))
3.22723       	((1.169078e-03 -1.102828e-04 -4.622736e-02) (3.257365e-05 3.635487e-06 1.960720e-02)) ((1.868340e-08 -1.191051e-06 2.819919e-09) (5.715585e-07 -2.109714e-06 -1.639011e-08))
3.252348      	((1.169078e-03 -1.102828e-04 -4.622736e-02) (3.257365e-05 3.635487e-06 1.960720e-02)) ((1.868340e-08 -1.191051e-06 2.819919e-09) (5.715585e-07 -2.109714e-06 -1.639011e-08))
3.277465      	((1.169078e-03 -1.102828e-04 -4.622736e-02) (3.257365e-05 3.635487e-06 1.960720e-02)) ((1.868340e-08 -1.191051e-06 2.819919e-09) (5.715585e-07 -2.109714e-06 -1.639011e-08))
3.302583      	((1.169078e-03 -1.102828e-04 -4.622736e-02) (3.257365e-05 3.635487e-06 1.960720e-02)) ((1.868340e-08 -1.191051e-06 2.819919e-09) (5.715585e-07 -2.109714e-06 -1.639011e-08))
3.327701      	((1.169078e-03 -1.102828e-04 -4.622736e-02) (3.257365e-05 3.635487e-06 1.960720e-02)) ((1.868340e-08 -1.191051e-06 2.819919e-09) (5.715585e-07 -2.109714e-06 -1.639011e-08))
3.352818      	((1.169078e-03 -1.102828e-04 -4.622736e-02) (3.257365e-05 3.635487e-06 1.960720e-02)) ((1.868340e-08 -1.191051e-06 2.819919e-09) (5.715585e-07 -2.109714e-06 -1.639011e-08))
3.377936      	((1.169078e-03 -1.102828e-04 -4.622736e-02) (3.257365e-05 3.635487e-06 1.960720e-02)) ((1.868340e-08 -1.191051e-06 2.819919e-09) (5.715585e-07 -2.109714e-06 -1.639011e-08))
3.403054      	((1.169078e-03 -1.102828e-04 -4.622736e-02) (3.257365e-05 3.635487e-06 1.960720e-02)) ((1.868340e-08 -1.191051e-06 2.819919e-09) (5.715585e-07 -2.109714e-06 -1.639011e-08))
3.428171      	((1.169078e-03 -1.102828e-04 -4.622736e-02) (3.257365e-05 3.635487e-06 1.960720e-02)) ((1.868340e-08 -1.191051e-06 2.819919e-09) (5.715585e-07 -2.109714e-06 -1.639011e-08))
3.453289      	((1.169078e-03 -1.102828e-04 -4.622736e-02) (3.257365e-05 3.635487e-06 1.960720e-02)) ((1.868340e-08 -1.191051e-06 2.819919e-09) (5.715585e-07 -2.109714e-06 -1.639011e-08))
3.478407      	((1.169078e-03 -1.102828e-04 -4.622736e-02) (3.257365e-05 3.635487e-06 1.960720e-02)) ((1.868340e-08 -1.191051e-06 2.819919e-09) (5.715585e-07 -2.109714e-06 -1.639011e-08))
3.503524      	((1.169078e-03 -1.102828e-04 -4.622736e-02) (3.257365e-05 3.635487e-06 1.960720e-02)) ((1.868340e-08 -1.191051e-06 2.819919e-09) (5.715585e-07 -2.109714e-06 -1.639011e-08))
3.528642      	((1.169078e-03 -1.102828e-04 -4.622736e-02) (3.257365e-05 3.635487e-06 1.960720e-02)) ((1.868340e-08 -1.191051e-06 2.819919e-09) (5.715585e-07 -2.109714e-06 -1.639011e-08))
3.55376       	((1.169078e-03 -1.102828e-04 -4.622736e-02) (3.257365e-05 3.635487e-06 1.960720e-02)) ((1.868340e-08 -1.191051e-06 2.819919e-09) (5.715585e-07 -2.109714e-06 -1.639011e-08))
3.578877      	((1.169078e-03 -1.102828e-04 -4.622736e-02) (3.257365e-05 3.635487e-06 1.960720e-02)) ((1.868340e-08 -1.191051e-06 2.819919e-09) (5.715585e-07 -2.109714e-06 -1.639011e-08))
3.603995      	((1.169078e-03 -1.102828e-04 -4.622736e-02) (3.257365e-05 3.635487e-06 1.960720e-02)) ((1.868340e-08 -1.191051e-06 2.819919e-09) (5.715585e-07 -2.109714e-06 -1.639011e-08))
3.629113      	((1.169078e-03 -1.102828e-04 -4.622736e-02) (3.257365e-05 3.635487e-06 1.960720e-02)) ((1.868340e-08 -1.191051e-06 2.819919e-09) (5.715585e-07 -2.109714e-06 -1.639011e-08))
3.65423       	((1.169078e-03 -1.102828e-04 -4.622736e-02) (3.257365e-05 3.635487e-06 1.960720e-02)) ((1.868340e-08 -1.191051e-06 2.819919e-09) (5.715585e-07 -2.109714e-06 -1.639011e-08))
3.679348      	((1.169078e-03 -1.102828e-04 -4.622736e-02) (3.257365e-05 3.635487e-06 1.960720e-02)) ((1.868340e-08 -1.191051e-06 2.819919e-09) (5.715585e-07 -2.109714e-06 -1.639011e-08))
3.704466      	((1.169078e-03 -1.102828e-04 -4.622736e-02) (3.257365e-05 3.635487e-06 1.960720e-02)) ((1.868340e-08 -1.191051e-06 2.819919e-09) (5.715585e-07 -2.109714e-06 -1.639011e-08))
3.729583      	((1.169078e-03 -1.102828e-04 -4.622736e-02) (3.257365e-05 3.635487e-06 1.960720e-02)) ((1.868340e-08 -1.191051e-06 2.819919e-09) (5.715585e-07 -2.109714e-06 -1.639011e-08))
3.754701      	((1.169078e-03 -1.102828e-04 -4.622736e-02) (3.257365e-05 3.635487e-06 1.960720e-02)) ((1.868340e-08 -1.191051e-06 2.819919e-09) (5.715585e-07 -2.109714e-06 -1.639011e-08))
3.779819      	((1.169078e-03 -1.102828e-04 -4.622736e-02) (3.257365e-05 3.635487e-06 1.960720e-02)) ((1.868340e-08 -1.191051e-06 2.819919e-09) (5.715585e-07 -2.109714e-06 -1.639011e-08))
3.804936      	((1.169078e-03 -1.102828e-04 -4.622736e-02) (3.257365e-05 3.635487e-06 1.960720e-02)) ((1.868340e-08 -1.191051e-06 2.819919e-09) (5.715585e-07 -2.109714e-06 -1.639011e-08))
3.830054      	((1.169078e-03 -1.102828e-04 -4.622736e-02) (3.257365e-05 3.635487e-06 1.960720e-02)) ((1.868340e-08 -1.191051e-06 2.819919e-09) (5.715585e-07 -2.109714e-06 -1.639011e-08))
3.855172      	((1.169078e-03 -1.102828e-04 -4.622736e-02) (3.257365e-05 3.635487e-06 1.960720e-02)) ((1.868340e-08 -1.191051e-06 2.819919e-09) (5.715585e-07 -2.109714e-06 -1.639011e-08))
3.880289      	((1.169078e-03 -1.102828e-04 -4.622736e-02) (3.257365e-05 3.635487e-06 1.960720e-02)) ((1.868340e-08 -1.191051e-06 2.819919e-09) (5.715585e-07 -2.109714e-06 -1.639011e-08))
3.905407      	((1.169078e-03 -1.102828e-04 -4.622736e-02) (3.257365e-05 3.635487e-06 1.960720e-02)) ((1.868340e-08 -1.191051e-06 2.819919e-09) (5.715585e-07 -2.109714e-06 -1.639011e-08))