# Forces      
# CofR        : (0.000000e+00 0.000000e+00 0.000000e+00)
# Time        forces(pressure viscous)	moments(pressure viscous)
0             	((0.000000e+00 0.000000e+00 0.000000e+00) (0.000000e+00 0.000000e+00 0.000000e+00)) ((0.000000e+00 0.000000e+00 0.000000e+00) (0.000000e+00 0.000000e+00 0.000000e+00))
0.012         	((6.824132e-09 4.570393e-05 7.373794e-06) (-5.628182e-11 1.050353e-04 -5.536020e-09)) ((6.795104e-09 2.254342e-11 -6.264654e-11) (6.989705e-06 -4.501959e-13 1.150486e-11))
0.0264        	((-1.479247e-08 6.141941e-05 1.558094e-05) (-1.344950e-10 9.622697e-05 -1.774921e-08)) ((-2.867892e-09 4.761363e-11 -3.009998e-11) (6.410656e-06 -5.629445e-13 9.851046e-12))
0.04368       	((2.950222e-08 4.152080e-05 8.356080e-06) (-2.773331e-10 8.718316e-05 -4.176128e-08)) ((-2.006414e-09 1.685191e-11 -3.444365e-11) (5.818265e-06 2.359511e-12 2.218553e-11))
0.064416      	((-1.660911e-08 4.696361e-05 1.076601e-05) (-3.660747e-10 7.814223e-05 -7.884643e-08)) ((-4.157607e-09 2.019934e-11 -2.388643e-11) (5.228630e-06 -1.143312e-11 2.700265e-11))
0.0892992     	((2.546863e-08 3.470886e-05 7.025815e-06) (-3.583835e-10 6.940014e-05 -1.282413e-07)) ((-2.861797e-09 3.159080e-12 -1.523490e-11) (4.661265e-06 -2.062289e-11 8.550933e-12))
0.119159      	((5.584427e-09 3.558322e-05 7.542378e-06) (-5.115660e-10 6.125982e-05 -1.867885e-07)) ((-3.543947e-09 5.680568e-12 -8.393352e-12) (4.136192e-06 -3.272582e-11 -5.209455e-12))
0.154991      	((2.097933e-08 2.723962e-05 5.226396e-06) (-8.070195e-10 5.396576e-05 -2.562371e-07)) ((-2.447693e-09 -8.236371e-12 -4.467185e-12) (3.665385e-06 -5.107949e-11 -9.258444e-12))
0.197989      	((1.214186e-08 2.693873e-05 5.120418e-06) (-1.125276e-09 4.758456e-05 -3.402546e-07)) ((-2.867063e-09 -3.894795e-12 -8.528819e-12) (3.252448e-06 -8.214221e-11 -1.465571e-11))
0.249587      	((1.740387e-08 2.158294e-05 3.801698e-06) (-1.667663e-09 4.207098e-05 -4.320951e-07)) ((-2.157345e-09 -1.766355e-11 -1.124361e-11) (2.892463e-06 -9.835677e-11 -1.503841e-11))
0.311504      	((1.795699e-08 2.078461e-05 3.417461e-06) (-1.733270e-09 3.731119e-05 -5.119109e-07)) ((-2.430667e-09 -1.010552e-11 -1.669006e-11) (2.579518e-06 -1.403786e-10 -2.759201e-11))
0.385805      	((1.402323e-08 1.731703e-05 2.607250e-06) (-1.674746e-09 3.318307e-05 -5.940099e-07)) ((-1.991302e-09 -1.744623e-11 -1.569357e-11) (2.307043e-06 -1.767825e-10 -3.580633e-11))
0.474966      	((1.345766e-08 1.631604e-05 2.118884e-06) (-1.812739e-09 2.959303e-05 -6.590919e-07)) ((-2.089243e-09 -1.786900e-11 -1.602425e-11) (2.069376e-06 -1.829885e-10 -3.468617e-11))
0.581959      	((1.516646e-08 1.398758e-05 1.515353e-06) (-1.559416e-09 2.647076e-05 -7.262325e-07)) ((-1.829002e-09 -1.622298e-11 -1.407323e-11) (1.862582e-06 -1.911285e-10 -2.578071e-11))
0.710351      	((1.020782e-08 1.308906e-05 1.070239e-06) (-9.799894e-10 2.375190e-05 -7.853016e-07)) ((-1.842417e-09 -3.000055e-11 -1.210635e-11) (1.682893e-06 -2.072879e-10 -1.254140e-11))
0.864421      	((1.630666e-08 1.142873e-05 5.516427e-07) (-7.750822e-10 2.137105e-05 -8.434904e-07)) ((-1.684048e-09 -2.196495e-11 -8.909068e-12) (1.526043e-06 -2.333711e-10 -2.761481e-12))
1.049306      	((8.806170e-09 1.066191e-05 1.034266e-07) (-6.918690e-10 1.927015e-05 -8.927168e-07)) ((-1.681944e-09 -3.606284e-11 -5.766578e-12) (1.388326e-06 -2.377327e-10 1.322786e-12))
1.271167      	((1.357368e-08 9.417466e-06 -3.712416e-07) (-1.199399e-09 1.740134e-05 -9.390339e-07)) ((-1.575489e-09 -2.994001e-11 -3.584794e-12) (1.266359e-06 -2.458508e-10 1.981973e-11))
1.5374        	((6.329852e-09 8.743719e-06 -8.096051e-07) (-1.363502e-09 1.573683e-05 -9.784508e-07)) ((-1.562604e-09 -4.294461e-11 -1.954379e-12) (1.158271e-06 -2.791972e-10 5.856912e-11))
1.85688       	((1.354866e-08 7.804271e-06 -1.243364e-06) (-1.311382e-09 1.426088e-05 -1.016502e-06)) ((-1.488546e-09 -3.808415e-11 -1.569226e-12) (1.062822e-06 -3.069888e-10 9.951416e-11))
2.240256      	((6.828206e-09 7.268335e-06 -1.666577e-06) (-1.275617e-09 1.296434e-05 -1.050237e-06)) ((-1.477671e-09 -4.564504e-11 -2.796720e-12) (9.794606e-07 -3.162495e-10 1.228721e-10))
2.700307      	((8.330081e-09 6.577262e-06 -2.069228e-06) (-8.468048e-10 1.183381e-05 -1.086173e-06)) ((-1.432996e-09 -4.360307e-11 -3.932387e-12) (9.071460e-07 -3.256689e-10 1.347099e-10))
3.252369      	((4.900923e-09 6.183324e-06 -2.487204e-06) (-6.074598e-10 1.085278e-05 -1.125931e-06)) ((-1.426554e-09 -5.001320e-11 -4.125811e-12) (8.446545e-07 -3.083693e-10 1.385926e-10))
3.914842      	((5.763136e-09 5.707701e-06 -2.902244e-06) (-5.092275e-10 9.996219e-06 -1.170998e-06)) ((-1.403270e-09 -5.131802e-11 -4.523556e-12) (7.902915e-07 -2.857797e-10 1.435861e-10))
4.709811      	((6.025457e-09 5.435419e-06 -3.373139e-06) (-7.809711e-10 9.240287e-06 -1.220040e-06)) ((-1.403404e-09 -5.726810e-11 -4.550935e-12) (7.425746e-07 -2.691380e-10 1.295417e-10))
5.663773      	((6.366507e-09 5.144949e-06 -3.838377e-06) (-7.424122e-10 8.567025e-06 -1.276288e-06)) ((-1.395401e-09 -6.032446e-11 -4.507415e-12) (7.003294e-07 -2.658982e-10 1.094439e-10))
6.808528      	((6.120429e-09 4.962769e-06 -4.332235e-06) (-1.898554e-10 7.962253e-06 -1.340873e-06)) ((-1.400662e-09 -6.535056e-11 -4.632561e-12) (6.627986e-07 -2.731913e-10 9.181377e-11))
8.182233      	((5.773242e-09 4.774105e-06 -4.799398e-06) (1.893612e-10 7.417292e-06 -1.413471e-06)) ((-1.400545e-09 -6.837338e-11 -4.792763e-12) (6.294042e-07 -2.893758e-10 6.836975e-11))
9.83068       	((5.538814e-09 4.663709e-06 -5.283676e-06) (7.532479e-10 6.926478e-06 -1.491507e-06)) ((-1.408719e-09 -7.187325e-11 -5.130223e-12) (5.996420e-07 -3.049201e-10 5.113097e-11))
11.808816     	((5.126194e-09 4.587772e-06 -5.774981e-06) (2.306420e-10 6.484522e-06 -1.579985e-06)) ((-1.416547e-09 -7.414375e-11 -5.244976e-12) (5.731381e-07 -3.039306e-10 3.671841e-11))
14.182579     	((6.230810e-09 4.586231e-06 -6.265278e-06) (8.860449e-11 6.090426e-06 -1.679718e-06)) ((-1.428885e-09 -7.690263e-11 -5.348860e-12) (5.497154e-07 -3.034726e-10 2.482796e-11))
17.031095     	((7.710929e-09 4.607227e-06 -6.755665e-06) (-2.170273e-10 5.746139e-06 -1.787564e-06)) ((-1.440594e-09 -7.900211e-11 -5.338575e-12) (5.292560e-07 -2.987428e-10 1.404846e-11))
20.449314     	((9.192239e-09 4.691301e-06 -7.229881e-06) (-4.017117e-10 5.454012e-06 -1.902337e-06)) ((-1.455818e-09 -8.124434e-11 -5.547279e-12) (5.117547e-07 -2.893398e-10 2.011628e-12))
24.438046     	((1.177419e-08 4.795485e-06 -7.688595e-06) (-5.146772e-10 5.218805e-06 -2.021456e-06)) ((-1.470793e-09 -8.318600e-11 -5.710706e-12) (4.973102e-07 -2.753472e-10 -8.189706e-12))
28.99617      	((1.416938e-08 4.937430e-06 -8.089525e-06) (-7.082819e-10 5.040187e-06 -2.138442e-06)) ((-1.484088e-09 -8.510208e-11 -5.823249e-12) (4.856659e-07 -2.626936e-10 -1.464256e-11))
34.122966     	((1.557017e-08 5.092767e-06 -8.473692e-06) (-6.511484e-10 4.914717e-06 -2.246397e-06)) ((-1.493846e-09 -8.685031e-11 -5.913680e-12) (4.765219e-07 -2.561348e-10 -1.988106e-11))
39.805977     	((1.563822e-08 5.282292e-06 -8.822750e-06) (-7.471960e-10 4.835358e-06 -2.338031e-06)) ((-1.502439e-09 -8.882561e-11 -6.056434e-12) (4.695976e-07 -2.519938e-10 -2.538984e-11))
45.487641     	((1.553278e-08 5.457176e-06 -9.110666e-06) (-9.427748e-10 4.794402e-06 -2.404138e-06)) ((-1.511485e-09 -9.047099e-11 -6.195104e-12) (4.648134e-07 -2.483430e-10 -2.634073e-11))
51.17172      	((1.512692e-08 5.617555e-06 -9.301630e-06) (-1.064706e-09 4.777441e-06 -2.445921e-06)) ((-1.520275e-09 -9.165478e-11 -6.326615e-12) (4.616974e-07 -2.394042e-10 -2.141348e-11))
56.861738     	((1.523113e-08 5.740841e-06 -9.436248e-06) (-1.287907e-09 4.773666e-06 -2.469116e-06)) ((-1.527897e-09 -9.231470e-11 -6.481323e-12) (4.598087e-07 -2.298569e-10 -1.005027e-11))
62.560292     	((1.527474e-08 5.837008e-06 -9.523178e-06) (-1.556622e-09 4.775425e-06 -2.480429e-06)) ((-1.534395e-09 -9.264019e-11 -6.580628e-12) (4.586960e-07 -2.223518e-10 6.847445e-12))
68.268842     	((1.565344e-08 5.904809e-06 -9.592416e-06) (-1.764922e-09 4.778707e-06 -2.484841e-06)) ((-1.539131e-09 -9.273668e-11 -6.686184e-12) (4.580685e-07 -2.180262e-10 2.556172e-11))
73.988286     	((1.564222e-08 5.948292e-06 -9.643488e-06) (-1.913699e-09 4.781330e-06 -2.486082e-06)) ((-1.542467e-09 -9.279400e-11 -6.811441e-12) (4.577120e-07 -2.174522e-10 4.320940e-11))
79.718467     	((1.597280e-08 5.975474e-06 -9.683544e-06) (-2.007001e-09 4.782907e-06 -2.486259e-06)) ((-1.544494e-09 -9.284482e-11 -6.924384e-12) (4.575012e-07 -2.201880e-10 5.834727e-11))
85.45771      	((1.636954e-08 5.993378e-06 -9.717449e-06) (-2.032662e-09 4.783831e-06 -2.486507e-06)) ((-1.545759e-09 -9.290663e-11 -7.030352e-12) (4.573674e-07 -2.257685e-10 7.082988e-11))
91.174223     	((1.655454e-08 6.008249e-06 -9.750263e-06) (-1.990540e-09 4.784627e-06 -2.486697e-06)) ((-1.547404e-09 -9.301775e-11 -7.139663e-12) (4.573049e-07 -2.322221e-10 7.940875e-11))
96.872629     	((1.675067e-08 6.018041e-06 -9.780393e-06) (-1.914160e-09 4.785694e-06 -2.486465e-06)) ((-1.548761e-09 -9.315416e-11 -7.167984e-12) (4.573099e-07 -2.389764e-10 8.421235e-11))
102.558907    	((1.654296e-08 6.022932e-06 -9.807924e-06) (-1.844311e-09 4.786986e-06 -2.486379e-06)) ((-1.549345e-09 -9.330255e-11 -7.153851e-12) (4.573325e-07 -2.451807e-10 8.638001e-11))
108.237374    	((1.621859e-08 6.024697e-06 -9.831789e-06) (-1.791140e-09 4.788356e-06 -2.486444e-06)) ((-1.549509e-09 -9.344939e-11 -7.155739e-12) (4.573571e-07 -2.500147e-10 8.634639e-11))
113.910559    	((1.604386e-08 6.024282e-06 -9.853311e-06) (-1.740932e-09 4.789716e-06 -2.486613e-06)) ((-1.549405e-09 -9.360673e-11 -7.170177e-12) (4.573789e-07 -2.533849e-10 8.521713e-11))
119.579841    	((1.571623e-08 6.022733e-06 -9.872081e-06) (-1.706377e-09 4.790966e-06 -2.486931e-06)) ((-1.549193e-09 -9.375910e-11 -7.195143e-12) (4.573951e-07 -2.545081e-10 8.406991e-11))
125.245956    	((1.569074e-08 6.021573e-06 -9.889340e-06) (-1.686098e-09 4.792162e-06 -2.487352e-06)) ((-1.548928e-09 -9.389121e-11 -7.226613e-12) (4.574100e-07 -2.539940e-10 8.362988e-11))
130.909203    	((1.572777e-08 6.019223e-06 -9.904524e-06) (-1.678320e-09 4.793303e-06 -2.487877e-06)) ((-1.548633e-09 -9.400873e-11 -7.255983e-12) (4.574225e-07 -2.527075e-10 8.447896e-11))
136.569711    	((1.566452e-08 6.016629e-06 -9.919296e-06) (-1.695505e-09 4.794403e-06 -2.488425e-06)) ((-1.548341e-09 -9.412116e-11 -7.280888e-12) (4.574322e-07 -2.513146e-10 8.660469e-11))
142.227622    	((1.558989e-08 6.012548e-06 -9.934430e-06) (-1.718430e-09 4.795435e-06 -2.488909e-06)) ((-1.548042e-09 -9.422916e-11 -7.301691e-12) (4.574372e-07 -2.500861e-10 8.952643e-11))
147.883127    	((1.601035e-08 6.006586e-06 -9.949959e-06) (-1.729976e-09 4.796326e-06 -2.489250e-06)) ((-1.547716e-09 -9.431412e-11 -7.318227e-12) (4.574334e-07 -2.495258e-10 9.255918e-11))
153.536464    	((1.670377e-08 5.998022e-06 -9.966064e-06) (-1.713213e-09 4.796975e-06 -2.489398e-06)) ((-1.547356e-09 -9.438632e-11 -7.326653e-12) (4.574159e-07 -2.503734e-10 9.499575e-11))
159.187876    	((1.729239e-08 5.986760e-06 -9.982250e-06) (-1.679791e-09 4.797280e-06 -2.489306e-06)) ((-1.546958e-09 -9.444179e-11 -7.333642e-12) (4.573799e-07 -2.526850e-10 9.644989e-11))
164.837591    	((1.823712e-08 5.973309e-06 -9.999290e-06) (-1.608276e-09 4.797199e-06 -2.488935e-06)) ((-1.546531e-09 -9.448729e-11 -7.340691e-12) (4.573219e-07 -2.571254e-10 9.670409e-11))
170.485807    	((1.868509e-08 5.958557e-06 -1.001520e-05) (-1.541216e-09 4.796665e-06 -2.488320e-06)) ((-1.546124e-09 -9.454708e-11 -7.351807e-12) (4.572416e-07 -2.618092e-10 9.582824e-11))
176.132679    	((1.937465e-08 5.943003e-06 -1.003223e-05) (-1.480885e-09 4.795696e-06 -2.487568e-06)) ((-1.545762e-09 -9.460774e-11 -7.365918e-12) (4.571435e-07 -2.662621e-10 9.409786e-11))
181.77831     	((2.005239e-08 5.926263e-06 -1.005008e-05) (-1.422280e-09 4.794322e-06 -2.486745e-06)) ((-1.545359e-09 -9.468197e-11 -7.373777e-12) (4.570285e-07 -2.703078e-10 9.188368e-11))
187.422757    	((2.107303e-08 5.909867e-06 -1.006847e-05) (-1.351987e-09 4.792634e-06 -2.485850e-06)) ((-1.544973e-09 -9.476568e-11 -7.379639e-12) (4.568989e-07 -2.745433e-10 8.914996e-11))
193.066031    	((2.165128e-08 5.893946e-06 -1.008706e-05) (-1.277560e-09 4.790721e-06 -2.484985e-06)) ((-1.544602e-09 -9.488032e-11 -7.385615e-12) (4.567595e-07 -2.787384e-10 8.606267e-11))
198.7081      	((2.120434e-08 5.880586e-06 -1.010601e-05) (-1.248569e-09 4.788723e-06 -2.484285e-06)) ((-1.544188e-09 -9.503979e-11 -7.390204e-12) (4.566192e-07 -2.802952e-10 8.355955e-11))
204.348904    	((2.092759e-08 5.871220e-06 -1.012447e-05) (-1.255500e-09 4.786862e-06 -2.483874e-06)) ((-1.543867e-09 -9.520069e-11 -7.396279e-12) (4.564885e-07 -2.783427e-10 8.264457e-11))
209.988367    	((2.084833e-08 5.866503e-06 -1.014289e-05) (-1.264810e-09 4.785437e-06 -2.483904e-06)) ((-1.543733e-09 -9.533003e-11 -7.406430e-12) (4.563813e-07 -2.743322e-10 8.394941e-11))
215.626415    	((2.051057e-08 5.865017e-06 -1.016237e-05) (-1.279649e-09 4.784657e-06 -2.484430e-06)) ((-1.543681e-09 -9.541855e-11 -7.419308e-12) (4.563065e-07 -2.699742e-10 8.762993e-11))
221.262982    	((2.040854e-08 5.866448e-06 -1.018145e-05) (-1.284668e-09 4.784646e-06 -2.485330e-06)) ((-1.543706e-09 -9.547612e-11 -7.429574e-12) (4.562676e-07 -2.675966e-10 9.283461e-11))
226.897985    	((1.998969e-08 5.869495e-06 -1.020005e-05) (-1.281531e-09 4.785420e-06 -2.486400e-06)) ((-1.543783e-09 -9.552965e-11 -7.447213e-12) (4.562630e-07 -2.673281e-10 9.834458e-11))
232.531316    	((1.966090e-08 5.873065e-06 -1.021857e-05) (-1.270319e-09 4.786865e-06 -2.487451e-06)) ((-1.543883e-09 -9.556939e-11 -7.469557e-12) (4.562865e-07 -2.690834e-10 1.029888e-10))
238.162876    	((1.936098e-08 5.876789e-06 -1.023575e-05) (-1.250002e-09 4.788800e-06 -2.488382e-06)) ((-1.543989e-09 -9.560455e-11 -7.489890e-12) (4.563320e-07 -2.724575e-10 1.059561e-10))
