# Forces      
# CofR        : (0.000000e+00 0.000000e+00 0.000000e+00)
# Time        forces(pressure viscous)	moments(pressure viscous)
0             	((0.000000e+00 0.000000e+00 0.000000e+00) (7.060201e-08 1.812223e-10 7.616820e-03)) ((0.000000e+00 0.000000e+00 0.000000e+00) (-4.762316e-11 4.386379e-09 -1.053106e-13))
0.012         	((1.401706e-04 2.865988e-05 6.486946e-01) (1.417268e-07 1.166266e-07 6.752744e-03)) ((1.245081e-09 5.416365e-07 -1.591267e-11) (1.080844e-08 -2.354704e-08 -3.145201e-11))
0.0264        	((1.146100e-04 8.641288e-05 -1.540746e-01) (1.751969e-07 2.734174e-07 5.372407e-03)) ((6.033475e-09 -2.727352e-07 2.162319e-10) (1.293202e-08 -2.383011e-08 -1.082883e-09))
0.04368       	((-5.614331e-05 -8.582968e-05 -8.983846e-02) (1.291149e-07 8.400536e-08 4.002529e-03)) ((-3.767692e-09 -1.750253e-07 7.082258e-10) (4.585636e-09 -9.186505e-09 -1.981604e-09))
0.064416      	((2.994688e-05 -2.614823e-05 -6.242506e-03) (1.539980e-07 -1.731127e-07 3.428303e-03)) ((-2.351471e-09 -3.083809e-08 -6.758778e-10) (-4.407091e-09 -2.258134e-09 -1.334754e-09))
0.0892992     	((4.258414e-05 2.831780e-06 2.587810e-03) (3.915772e-07 -6.112843e-08 3.101545e-03)) ((-1.155941e-09 -3.734220e-08 2.803500e-10) (8.436697e-10 3.414097e-09 -4.635330e-10))
0.119159      	((3.178486e-05 -7.069362e-06 -2.507812e-03) (4.105420e-07 -6.706794e-08 2.705022e-03)) ((-2.279799e-10 -4.168672e-08 -2.142970e-10) (3.733054e-09 2.974373e-09 2.844678e-10))
0.154991      	((3.338306e-05 -5.702265e-06 -8.833689e-04) (2.654148e-07 -1.807381e-07 2.417920e-03)) ((-9.688066e-10 -3.954508e-08 -1.229693e-10) (-1.825498e-09 -6.509469e-09 -4.106711e-10))
0.197989      	((2.270038e-05 -1.001791e-05 -1.810811e-03) (4.444029e-07 -1.711404e-07 2.193286e-03)) ((-2.255803e-10 -4.741745e-08 -2.790820e-11) (-2.456352e-09 -1.994703e-08 -5.883374e-10))
0.249587      	((2.120519e-05 -9.390375e-06 -1.553472e-03) (5.824745e-07 -1.290876e-07 1.993563e-03)) ((-4.824904e-10 -4.795295e-08 -2.794581e-11) (2.507712e-09 -3.637351e-08 -4.740923e-10))
0.311504      	((2.330390e-05 -8.084740e-06 -1.825088e-03) (7.892627e-07 -2.387402e-08 1.831546e-03)) ((-3.819714e-10 -5.144688e-08 -1.682418e-11) (1.105472e-08 -5.396316e-08 -6.067456e-10))
0.385805      	((1.947949e-05 -6.672673e-06 -1.761421e-03) (1.032797e-06 1.487860e-07 1.707468e-03)) ((-1.774694e-10 -5.134551e-08 -2.395478e-11) (2.138725e-08 -7.728671e-08 -8.517707e-10))
0.474147      	((2.107078e-05 -5.759487e-06 -1.850051e-03) (1.256633e-06 3.213714e-07 1.615656e-03)) ((-9.352998e-12 -5.250886e-08 3.308029e-11) (3.394923e-08 -9.838315e-08 -6.489811e-10))
0.576775      	((1.886096e-05 -4.552629e-06 -1.829738e-03) (1.441042e-06 4.872928e-07 1.551462e-03)) ((5.450476e-11 -5.290814e-08 8.137970e-11) (4.728123e-08 -1.166714e-07 -7.631284e-11))
0.693994      	((2.089955e-05 -3.547656e-06 -1.857563e-03) (1.616181e-06 6.365313e-07 1.507740e-03)) ((6.537195e-11 -5.316496e-08 9.619277e-11) (6.100049e-08 -1.305932e-07 1.299846e-10))
0.826148      	((2.035108e-05 -2.642821e-06 -1.839397e-03) (1.768317e-06 7.860258e-07 1.478192e-03)) ((1.433801e-10 -5.304943e-08 1.059922e-10) (7.579610e-08 -1.419655e-07 4.423610e-10))
0.97362       	((2.037835e-05 -2.477658e-06 -1.841687e-03) (1.862706e-06 9.124961e-07 1.458646e-03)) ((2.074036e-10 -5.334215e-08 1.161621e-10) (8.895862e-08 -1.547430e-07 7.082653e-10))
1.130287      	((2.060075e-05 -2.437801e-06 -1.829857e-03) (1.935646e-06 9.939811e-07 1.446693e-03)) ((2.054762e-10 -5.359123e-08 9.833694e-11) (9.951922e-08 -1.662807e-07 9.780517e-10))
1.288047      	((2.246390e-05 -2.158866e-06 -1.831147e-03) (2.023015e-06 1.052876e-06 1.440425e-03)) ((1.936276e-10 -5.394250e-08 9.348906e-11) (1.084897e-07 -1.769612e-07 1.106610e-09))
1.44611       	((2.361650e-05 -2.021065e-06 -1.827423e-03) (2.118866e-06 1.096962e-06 1.438340e-03)) ((2.330959e-10 -5.427149e-08 9.122234e-11) (1.159487e-07 -1.870873e-07 1.117780e-09))
1.604085      	((2.496129e-05 -2.118354e-06 -1.830641e-03) (2.196207e-06 1.131242e-06 1.439568e-03)) ((2.650978e-10 -5.458515e-08 9.457784e-11) (1.222233e-07 -1.967498e-07 1.091369e-09))
1.761793      	((2.704075e-05 -2.103373e-06 -1.833127e-03) (2.276182e-06 1.161285e-06 1.443426e-03)) ((2.864796e-10 -5.486935e-08 9.128997e-11) (1.273562e-07 -2.058084e-07 1.038953e-09))
1.919028      	((2.859300e-05 -2.005715e-06 -1.839726e-03) (2.351793e-06 1.185103e-06 1.449352e-03)) ((2.772580e-10 -5.529548e-08 9.183055e-11) (1.317811e-07 -2.139041e-07 9.863604e-10))
2.075582      	((2.985289e-05 -1.818095e-06 -1.844095e-03) (2.425067e-06 1.204935e-06 1.456720e-03)) ((2.923105e-10 -5.572056e-08 9.422796e-11) (1.353054e-07 -2.206511e-07 1.003440e-09))
2.231293      	((3.092426e-05 -1.541382e-06 -1.846303e-03) (2.480402e-06 1.223016e-06 1.464766e-03)) ((3.186373e-10 -5.614404e-08 9.412903e-11) (1.378563e-07 -2.263836e-07 1.106732e-09))
2.386115      	((3.187764e-05 -1.118852e-06 -1.841840e-03) (2.524271e-06 1.238092e-06 1.472640e-03)) ((3.450832e-10 -5.644435e-08 9.470575e-11) (1.397693e-07 -2.308545e-07 1.250317e-09))
2.540164      	((3.246343e-05 -7.397771e-07 -1.830876e-03) (2.554365e-06 1.245761e-06 1.479520e-03)) ((3.807489e-10 -5.661328e-08 9.465413e-11) (1.408222e-07 -2.340779e-07 1.422950e-09))
2.693713      	((3.269878e-05 -3.560613e-07 -1.814234e-03) (2.567526e-06 1.244587e-06 1.484761e-03)) ((4.111197e-10 -5.663748e-08 8.806039e-11) (1.409274e-07 -2.355918e-07 1.670061e-09))
2.847114      	((3.247688e-05 -1.182716e-07 -1.797011e-03) (2.561585e-06 1.236438e-06 1.488045e-03)) ((4.264450e-10 -5.653540e-08 8.553209e-11) (1.404257e-07 -2.350766e-07 1.888399e-09))
3.000686      	((3.215553e-05 -4.123796e-08 -1.784670e-03) (2.536692e-06 1.222130e-06 1.489487e-03)) ((4.226319e-10 -5.634511e-08 8.151764e-11) (1.396803e-07 -2.330277e-07 2.026874e-09))
3.154597      	((3.207396e-05 -7.733536e-08 -1.780737e-03) (2.509649e-06 1.207776e-06 1.489559e-03)) ((4.186928e-10 -5.617124e-08 7.928266e-11) (1.385500e-07 -2.301728e-07 2.033141e-09))
3.308829      	((3.195544e-05 -1.192208e-07 -1.784431e-03) (2.486831e-06 1.193181e-06 1.488903e-03)) ((4.094585e-10 -5.607457e-08 8.330783e-11) (1.372058e-07 -2.274015e-07 1.925542e-09))
3.463241      	((3.193541e-05 7.589508e-08 -1.791606e-03) (2.466918e-06 1.181454e-06 1.488077e-03)) ((3.767959e-10 -5.605343e-08 8.507039e-11) (1.362001e-07 -2.254570e-07 1.804799e-09))
3.617691      	((3.211057e-05 2.371872e-07 -1.797588e-03) (2.460786e-06 1.176651e-06 1.487396e-03)) ((3.417397e-10 -5.605416e-08 8.624336e-11) (1.357302e-07 -2.246842e-07 1.707223e-09))
3.77211       	((3.216927e-05 3.002573e-07 -1.800094e-03) (2.461404e-06 1.172777e-06 1.486940e-03)) ((3.259829e-10 -5.606792e-08 8.784553e-11) (1.357251e-07 -2.247299e-07 1.618833e-09))
3.926499      	((3.234834e-05 4.122059e-07 -1.799945e-03) (2.461597e-06 1.170379e-06 1.486662e-03)) ((3.164917e-10 -5.605497e-08 8.889807e-11) (1.358967e-07 -2.251113e-07 1.551536e-09))
4.080883      	((3.250205e-05 4.512241e-07 -1.799279e-03) (2.464938e-06 1.171319e-06 1.486497e-03)) ((3.118874e-10 -5.603216e-08 8.879860e-11) (1.360603e-07 -2.254997e-07 1.511413e-09))
4.235274      	((3.256740e-05 3.315062e-07 -1.799337e-03) (2.467545e-06 1.170166e-06 1.486413e-03)) ((3.183928e-10 -5.602171e-08 8.968747e-11) (1.361293e-07 -2.258146e-07 1.478438e-09))
4.389661      	((3.270714e-05 2.950954e-07 -1.799988e-03) (2.472243e-06 1.170268e-06 1.486395e-03)) ((3.153534e-10 -5.601559e-08 9.106669e-11) (1.360806e-07 -2.260851e-07 1.469504e-09))
4.544037      	((3.275329e-05 1.733175e-07 -1.800364e-03) (2.474666e-06 1.168309e-06 1.486423e-03)) ((3.208583e-10 -5.602319e-08 9.130884e-11) (1.360035e-07 -2.264016e-07 1.456901e-09))
4.698401      	((3.285400e-05 1.570271e-07 -1.800263e-03) (2.478660e-06 1.167456e-06 1.486474e-03)) ((3.153848e-10 -5.602123e-08 9.181070e-11) (1.358702e-07 -2.266606e-07 1.449482e-09))
4.852756      	((3.286185e-05 1.528162e-07 -1.799989e-03) (2.481354e-06 1.167244e-06 1.486532e-03)) ((3.106177e-10 -5.602162e-08 9.110790e-11) (1.358155e-07 -2.268886e-07 1.449880e-09))
5.007106      	((3.288620e-05 1.209244e-07 -1.799882e-03) (2.483057e-06 1.166358e-06 1.486589e-03)) ((3.103638e-10 -5.602162e-08 9.161461e-11) (1.357566e-07 -2.270387e-07 1.444385e-09))
5.161452      	((3.290651e-05 1.558662e-07 -1.799933e-03) (2.485494e-06 1.166966e-06 1.486642e-03)) ((3.008066e-10 -5.601855e-08 9.115216e-11) (1.357328e-07 -2.271329e-07 1.451271e-09))
5.315794      	((3.289501e-05 1.073561e-07 -1.799900e-03) (2.485858e-06 1.166085e-06 1.486688e-03)) ((3.038194e-10 -5.602282e-08 9.149670e-11) (1.357407e-07 -2.272447e-07 1.446578e-09))
5.470133      	((3.292175e-05 1.302840e-07 -1.799827e-03) (2.488584e-06 1.167206e-06 1.486722e-03)) ((2.968524e-10 -5.601755e-08 9.179902e-11) (1.356912e-07 -2.272786e-07 1.453490e-09))
5.624471      	((3.284347e-05 5.643891e-08 -1.799689e-03) (2.487904e-06 1.165476e-06 1.486747e-03)) ((3.037987e-10 -5.602330e-08 9.153656e-11) (1.356947e-07 -2.273425e-07 1.444984e-09))
5.778808      	((3.288611e-05 6.058955e-08 -1.799642e-03) (2.489548e-06 1.165447e-06 1.486763e-03)) ((2.996199e-10 -5.601632e-08 9.212282e-11) (1.356332e-07 -2.273497e-07 1.442267e-09))
5.933146      	((3.286613e-05 8.869492e-08 -1.799648e-03) (2.490819e-06 1.166022e-06 1.486773e-03)) ((2.980567e-10 -5.601579e-08 9.125173e-11) (1.356669e-07 -2.274134e-07 1.445362e-09))
6.087483      	((3.286253e-05 3.000214e-08 -1.799609e-03) (2.491191e-06 1.165043e-06 1.486778e-03)) ((3.017368e-10 -5.601475e-08 9.166989e-11) (1.356623e-07 -2.274701e-07 1.434894e-09))
6.241821      	((3.291205e-05 1.153740e-07 -1.799659e-03) (2.493779e-06 1.166402e-06 1.486781e-03)) ((2.928531e-10 -5.600639e-08 9.112595e-11) (1.356800e-07 -2.275203e-07 1.442331e-09))
6.396159      	((3.284487e-05 1.337060e-08 -1.799622e-03) (2.493476e-06 1.164990e-06 1.486782e-03)) ((3.042978e-10 -5.601251e-08 9.121255e-11) (1.357158e-07 -2.276163e-07 1.429297e-09))
6.550497      	((3.289468e-05 5.202291e-08 -1.799679e-03) (2.496075e-06 1.165890e-06 1.486781e-03)) ((2.970194e-10 -5.600352e-08 9.166538e-11) (1.356574e-07 -2.276255e-07 1.436429e-09))
6.704834      	((3.282953e-05 1.533827e-08 -1.799693e-03) (2.496422e-06 1.165345e-06 1.486781e-03)) ((3.048018e-10 -5.600885e-08 9.100101e-11) (1.356913e-07 -2.276937e-07 1.430584e-09))
6.859172      	((3.282295e-05 -4.392403e-08 -1.799659e-03) (2.495952e-06 1.163402e-06 1.486781e-03)) ((3.049260e-10 -5.600447e-08 9.111283e-11) (1.356429e-07 -2.277066e-07 1.421071e-09))
7.01351       	((3.289552e-05 8.613682e-08 -1.799742e-03) (2.498060e-06 1.165753e-06 1.486781e-03)) ((2.954868e-10 -5.599766e-08 9.037088e-11) (1.356741e-07 -2.277362e-07 1.440803e-09))
7.167847      	((3.279199e-05 -6.626325e-08 -1.799666e-03) (2.496841e-06 1.164003e-06 1.486782e-03)) ((3.105401e-10 -5.600785e-08 9.057410e-11) (1.356761e-07 -2.277606e-07 1.423735e-09))
7.322184      	((3.287094e-05 2.500182e-08 -1.799709e-03) (2.498194e-06 1.164551e-06 1.486781e-03)) ((2.983169e-10 -5.599725e-08 9.100087e-11) (1.356372e-07 -2.277392e-07 1.433732e-09))
7.476521      	((3.283754e-05 6.793285e-09 -1.799730e-03) (2.498486e-06 1.165104e-06 1.486782e-03)) ((3.078426e-10 -5.600517e-08 9.071731e-11) (1.357173e-07 -2.278276e-07 1.434178e-09))
7.630858      	((3.280072e-05 -7.764442e-08 -1.799659e-03) (2.497936e-06 1.163056e-06 1.486782e-03)) ((3.086147e-10 -5.600363e-08 9.075945e-11) (1.356731e-07 -2.278373e-07 1.421738e-09))
7.785195      	((3.290292e-05 8.901950e-08 -1.799765e-03) (2.500085e-06 1.165857e-06 1.486783e-03)) ((2.964937e-10 -5.599549e-08 9.025769e-11) (1.357350e-07 -2.278922e-07 1.442234e-09))
7.939532      	((3.279330e-05 -6.923982e-08 -1.799685e-03) (2.499466e-06 1.164613e-06 1.486783e-03)) ((3.144141e-10 -5.600862e-08 9.091147e-11) (1.357734e-07 -2.279512e-07 1.427012e-09))
8.093869      	((3.285274e-05 2.271859e-08 -1.799716e-03) (2.500513e-06 1.165045e-06 1.486782e-03)) ((3.021016e-10 -5.599928e-08 9.106144e-11) (1.357560e-07 -2.279427e-07 1.434002e-09))
8.248206      	((3.285632e-05 2.931570e-08 -1.799751e-03) (2.501332e-06 1.166706e-06 1.486783e-03)) ((3.083293e-10 -5.600419e-08 9.067293e-11) (1.358624e-07 -2.280398e-07 1.440711e-09))
8.402542      	((3.279462e-05 -6.701256e-08 -1.799673e-03) (2.500956e-06 1.165093e-06 1.486782e-03)) ((3.116633e-10 -5.600549e-08 9.074320e-11) (1.358371e-07 -2.280447e-07 1.427964e-09))
8.556879      	((3.291073e-05 9.670691e-08 -1.799773e-03) (2.502797e-06 1.167824e-06 1.486782e-03)) ((2.985139e-10 -5.599587e-08 9.032227e-11) (1.358917e-07 -2.280809e-07 1.446038e-09))
8.711215      	((3.279562e-05 -6.407197e-08 -1.799701e-03) (2.502193e-06 1.166677e-06 1.486782e-03)) ((3.177415e-10 -5.601036e-08 9.109701e-11) (1.359346e-07 -2.281325e-07 1.431182e-09))
8.865552      	((3.284396e-05 1.829629e-08 -1.799716e-03) (2.502693e-06 1.166823e-06 1.486780e-03)) ((3.059744e-10 -5.600178e-08 9.108361e-11) (1.359130e-07 -2.281123e-07 1.433338e-09))
9.019888      	((3.287607e-05 5.189569e-08 -1.799776e-03) (2.503881e-06 1.169066e-06 1.486780e-03)) ((3.092942e-10 -5.600422e-08 9.062700e-11) (1.360164e-07 -2.281994e-07 1.444023e-09))
9.174225      	((3.279492e-05 -5.655804e-08 -1.799683e-03) (2.503376e-06 1.167365e-06 1.486779e-03)) ((3.148099e-10 -5.600781e-08 9.076678e-11) (1.359877e-07 -2.281930e-07 1.430100e-09))
9.328561      	((3.291887e-05 1.024773e-07 -1.799786e-03) (2.504881e-06 1.169773e-06 1.486778e-03)) ((3.010516e-10 -5.599713e-08 9.041385e-11) (1.360202e-07 -2.282105e-07 1.445947e-09))
9.482898      	((3.280254e-05 -5.597506e-08 -1.799716e-03) (2.504246e-06 1.168452e-06 1.486777e-03)) ((3.208018e-10 -5.601228e-08 9.128451e-11) (1.360569e-07 -2.282576e-07 1.432192e-09))
9.637234      	((3.284023e-05 1.573377e-08 -1.799724e-03) (2.504280e-06 1.168090e-06 1.486775e-03)) ((3.099223e-10 -5.600467e-08 9.113672e-11) (1.360224e-07 -2.282302e-07 1.429803e-09))
9.791571      	((3.289870e-05 7.391113e-08 -1.799795e-03) (2.505897e-06 1.170796e-06 1.486775e-03)) ((3.102615e-10 -5.600440e-08 9.067706e-11) (1.361162e-07 -2.283098e-07 1.444385e-09))
9.945907      	((3.280608e-05 -3.801493e-08 -1.799702e-03) (2.505304e-06 1.169020e-06 1.486773e-03)) ((3.177114e-10 -5.600986e-08 9.087139e-11) (1.360920e-07 -2.283073e-07 1.429416e-09))
10.100244     	((3.292232e-05 9.951916e-08 -1.799792e-03) (2.506717e-06 1.171248e-06 1.486772e-03)) ((3.044597e-10 -5.599894e-08 9.072855e-11) (1.360939e-07 -2.283060e-07 1.444243e-09))
10.25458      	((3.280678e-05 -4.990755e-08 -1.799732e-03) (2.506092e-06 1.169594e-06 1.486771e-03)) ((3.242954e-10 -5.601453e-08 9.155815e-11) (1.361229e-07 -2.283515e-07 1.429808e-09))
10.408917     	((3.283493e-05 1.011689e-08 -1.799727e-03) (2.505334e-06 1.168367e-06 1.486769e-03)) ((3.139443e-10 -5.600737e-08 9.124506e-11) (1.360907e-07 -2.283387e-07 1.423253e-09))
10.563253     	((3.293238e-05 1.053894e-07 -1.799822e-03) (2.508052e-06 1.172108e-06 1.486769e-03)) ((3.111143e-10 -5.600418e-08 9.094634e-11) (1.361769e-07 -2.284181e-07 1.442601e-09))
10.71759      	((3.280805e-05 -2.780537e-08 -1.799715e-03) (2.507420e-06 1.170278e-06 1.486768e-03)) ((3.216170e-10 -5.601295e-08 9.102454e-11) (1.361616e-07 -2.284231e-07 1.424306e-09))
10.871927     	((3.291185e-05 7.978998e-08 -1.799789e-03) (2.508640e-06 1.172278e-06 1.486765e-03)) ((3.085540e-10 -5.600156e-08 9.119683e-11) (1.361304e-07 -2.283957e-07 1.438666e-09))
11.026263     	((3.282145e-05 -2.995918e-08 -1.799752e-03) (2.508461e-06 1.171123e-06 1.486765e-03)) ((3.263307e-10 -5.601602e-08 9.184084e-11) (1.361644e-07 -2.284386e-07 1.428471e-09))
11.1806       	((3.281183e-05 -1.714208e-08 -1.799719e-03) (2.507291e-06 1.169533e-06 1.486763e-03)) ((3.191617e-10 -5.601132e-08 9.140024e-11) (1.361178e-07 -2.284112e-07 1.417130e-09))
11.334937     	((3.292676e-05 9.548152e-08 -1.799820e-03) (2.509803e-06 1.173032e-06 1.486763e-03)) ((3.125757e-10 -5.600495e-08 9.118329e-11) (1.361750e-07 -2.284602e-07 1.439098e-09))
11.489274     	((3.278517e-05 -4.329376e-08 -1.799718e-03) (2.509002e-06 1.171179e-06 1.486761e-03)) ((3.264763e-10 -5.601723e-08 9.146942e-11) (1.361653e-07 -2.284606e-07 1.419194e-09))
11.643611     	((3.287984e-05 4.195275e-08 -1.799772e-03) (2.509619e-06 1.172399e-06 1.486759e-03)) ((3.141776e-10 -5.600618e-08 9.178175e-11) (1.361125e-07 -2.284184e-07 1.429077e-09))
11.797948     	((3.284653e-05 1.088380e-08 -1.799784e-03) (2.510246e-06 1.172460e-06 1.486759e-03)) ((3.251601e-10 -5.601520e-08 9.189840e-11) (1.361753e-07 -2.284811e-07 1.429106e-09))
11.952285     	((3.278444e-05 -4.772334e-08 -1.799706e-03) (2.508939e-06 1.170768e-06 1.486757e-03)) ((3.236661e-10 -5.601488e-08 9.148049e-11) (1.361180e-07 -2.284461e-07 1.413674e-09))
12.106622     	((3.292066e-05 8.785806e-08 -1.799818e-03) (2.511000e-06 1.173504e-06 1.486757e-03)) ((3.129052e-10 -5.600493e-08 9.138438e-11) (1.361472e-07 -2.284730e-07 1.434226e-09))
12.260959     	((3.277564e-05 -4.513956e-08 -1.799728e-03) (2.510211e-06 1.171829e-06 1.486756e-03)) ((3.300349e-10 -5.602053e-08 9.196799e-11) (1.361628e-07 -2.284933e-07 1.415624e-09))
12.415297     	((3.285810e-05 1.560108e-08 -1.799761e-03) (2.510298e-06 1.172206e-06 1.486754e-03)) ((3.189258e-10 -5.601003e-08 9.212371e-11) (1.361070e-07 -2.284586e-07 1.419242e-09))
12.569634     	((3.286973e-05 4.440764e-08 -1.799804e-03) (2.511748e-06 1.173321e-06 1.486755e-03)) ((3.239156e-10 -5.601418e-08 9.192755e-11) (1.361844e-07 -2.285366e-07 1.427885e-09))
12.723972     	((3.277680e-05 -5.684910e-08 -1.799709e-03) (2.510501e-06 1.171733e-06 1.486753e-03)) ((3.275493e-10 -5.601751e-08 9.164835e-11) (1.361237e-07 -2.285074e-07 1.411770e-09))
12.878309     	((3.292968e-05 9.219038e-08 -1.799819e-03) (2.512254e-06 1.173693e-06 1.486753e-03)) ((3.146594e-10 -5.600550e-08 9.164070e-11) (1.361308e-07 -2.285277e-07 1.430240e-09))
13.032647     	((3.277604e-05 -3.782715e-08 -1.799741e-03) (2.511476e-06 1.172123e-06 1.486753e-03)) ((3.332886e-10 -5.602260e-08 9.228959e-11) (1.361545e-07 -2.285598e-07 1.414799e-09))
13.186985     	((3.284674e-05 -2.775557e-09 -1.799751e-03) (2.511275e-06 1.171884e-06 1.486751e-03)) ((3.235359e-10 -5.601276e-08 9.223107e-11) (1.360908e-07 -2.285282e-07 1.414601e-09))
13.341322     	((3.288462e-05 6.713260e-08 -1.799817e-03) (2.513226e-06 1.173644e-06 1.486752e-03)) ((3.244650e-10 -5.601372e-08 9.191136e-11) (1.361701e-07 -2.286077e-07 1.429457e-09))
13.49566      	((3.278690e-05 -4.891603e-08 -1.799718e-03) (2.511960e-06 1.172185e-06 1.486751e-03)) ((3.312485e-10 -5.601913e-08 9.176322e-11) (1.361224e-07 -2.285922e-07 1.414231e-09))
13.649998     	((3.292804e-05 8.477980e-08 -1.799817e-03) (2.513666e-06 1.173905e-06 1.486751e-03)) ((3.182504e-10 -5.600693e-08 9.187380e-11) (1.361120e-07 -2.285988e-07 1.432488e-09))
13.804336     	((3.277784e-05 -3.278935e-08 -1.799747e-03) (2.512749e-06 1.172356e-06 1.486751e-03)) ((3.365538e-10 -5.602419e-08 9.242253e-11) (1.361444e-07 -2.286329e-07 1.418815e-09))
13.958674     	((3.284393e-05 -9.228611e-09 -1.799749e-03) (2.511892e-06 1.171366e-06 1.486750e-03)) ((3.277891e-10 -5.601510e-08 9.224924e-11) (1.360944e-07 -2.286142e-07 1.415070e-09))
14.113012     	((3.291407e-05 1.008245e-07 -1.799834e-03) (2.514685e-06 1.174280e-06 1.486751e-03)) ((3.249635e-10 -5.601330e-08 9.196782e-11) (1.361776e-07 -2.286875e-07 1.435373e-09))
14.26735      	((3.280053e-05 -3.597922e-08 -1.799731e-03) (2.513291e-06 1.172924e-06 1.486750e-03)) ((3.350693e-10 -5.602147e-08 9.176005e-11) (1.361470e-07 -2.286799e-07 1.418490e-09))
14.421689     	((3.292044e-05 6.601025e-08 -1.799806e-03) (2.514869e-06 1.174401e-06 1.486749e-03)) ((3.220522e-10 -5.600930e-08 9.210855e-11) (1.361055e-07 -2.286540e-07 1.436469e-09))
14.576027     	((3.278600e-05 -1.850589e-08 -1.799761e-03) (2.513892e-06 1.173217e-06 1.486749e-03)) ((3.390482e-10 -5.602664e-08 9.247519e-11) (1.361408e-07 -2.286767e-07 1.425073e-09))
14.730365     	((3.282349e-05 -3.772324e-08 -1.799734e-03) (2.512478e-06 1.171552e-06 1.486748e-03)) ((3.327429e-10 -5.601939e-08 9.224518e-11) (1.360834e-07 -2.286464e-07 1.416774e-09))
14.884703     	((3.291405e-05 1.064794e-07 -1.799836e-03) (2.515317e-06 1.174775e-06 1.486749e-03)) ((3.255096e-10 -5.601454e-08 9.191925e-11) (1.361521e-07 -2.286916e-07 1.440418e-09))
15.039042     	((3.278724e-05 -5.708762e-08 -1.799728e-03) (2.513763e-06 1.173357e-06 1.486748e-03)) ((3.401388e-10 -5.602612e-08 9.198189e-11) (1.361293e-07 -2.286829e-07 1.421067e-09))
15.19338      	((3.288818e-05 3.072696e-08 -1.799789e-03) (2.514834e-06 1.173991e-06 1.486746e-03)) ((3.274275e-10 -5.601461e-08 9.251271e-11) (1.360682e-07 -2.286374e-07 1.434261e-09))
15.347719     	((3.282086e-05 1.634450e-08 -1.799785e-03) (2.514723e-06 1.174245e-06 1.486747e-03)) ((3.377399e-10 -5.602617e-08 9.228309e-11) (1.361359e-07 -2.286836e-07 1.432926e-09))
15.502057     	((3.279435e-05 -6.803860e-08 -1.799722e-03) (2.513239e-06 1.172418e-06 1.486746e-03)) ((3.373038e-10 -5.602402e-08 9.212301e-11) (1.360696e-07 -2.286442e-07 1.419761e-09))
15.656396     	((3.290084e-05 9.205345e-08 -1.799820e-03) (2.515381e-06 1.174830e-06 1.486746e-03)) ((3.256189e-10 -5.601566e-08 9.187982e-11) (1.361082e-07 -2.286593e-07 1.441334e-09))
15.810735     	((3.277833e-05 -6.169287e-08 -1.799741e-03) (2.513981e-06 1.173610e-06 1.486746e-03)) ((3.436911e-10 -5.603021e-08 9.234044e-11) (1.361175e-07 -2.286756e-07 1.423449e-09))
15.965074     	((3.285962e-05 3.029389e-10 -1.799765e-03) (2.514552e-06 1.173376e-06 1.486744e-03)) ((3.320155e-10 -5.601944e-08 9.266130e-11) (1.360602e-07 -2.286384e-07 1.429668e-09))
16.119412     	((3.285147e-05 4.968667e-08 -1.799813e-03) (2.515247e-06 1.174826e-06 1.486746e-03)) ((3.359404e-10 -5.602534e-08 9.206644e-11) (1.361496e-07 -2.287050e-07 1.437009e-09))
16.273751     	((3.278622e-05 -7.741875e-08 -1.799716e-03) (2.513985e-06 1.173126e-06 1.486745e-03)) ((3.402466e-10 -5.602708e-08 9.209226e-11) (1.360885e-07 -2.286750e-07 1.423132e-09))
16.42809      	((3.290994e-05 1.049603e-07 -1.799828e-03) (2.515724e-06 1.175017e-06 1.486744e-03)) ((3.256366e-10 -5.601650e-08 9.182307e-11) (1.361178e-07 -2.286860e-07 1.441426e-09))
16.582429     	((3.278445e-05 -5.639967e-08 -1.799747e-03) (2.514439e-06 1.173935e-06 1.486745e-03)) ((3.450761e-10 -5.603226e-08 9.245251e-11) (1.361448e-07 -2.287183e-07 1.426440e-09))
16.736767     	((3.284943e-05 -5.588799e-09 -1.799763e-03) (2.514729e-06 1.173187e-06 1.486743e-03)) ((3.346650e-10 -5.602259e-08 9.259582e-11) (1.360917e-07 -2.286874e-07 1.427380e-09))
16.891106     	((3.287332e-05 7.065775e-08 -1.799822e-03) (2.516038e-06 1.175541e-06 1.486745e-03)) ((3.344303e-10 -5.602473e-08 9.185901e-11) (1.361857e-07 -2.287610e-07 1.441095e-09))
17.045445     	((3.279304e-05 -6.981223e-08 -1.799727e-03) (2.514890e-06 1.173906e-06 1.486744e-03)) ((3.420431e-10 -5.602913e-08 9.203736e-11) (1.361338e-07 -2.287433e-07 1.427050e-09))
17.199784     	((3.290520e-05 9.541148e-08 -1.799817e-03) (2.516431e-06 1.175554e-06 1.486743e-03)) ((3.267767e-10 -5.601838e-08 9.185200e-11) (1.361373e-07 -2.287366e-07 1.443999e-09))
17.354123     	((3.278657e-05 -5.068736e-08 -1.799759e-03) (2.515123e-06 1.174327e-06 1.486744e-03)) ((3.462297e-10 -5.603426e-08 9.247456e-11) (1.361709e-07 -2.287738e-07 1.430136e-09))
17.508461     	((3.284009e-05 -1.211325e-08 -1.799753e-03) (2.514715e-06 1.172722e-06 1.486743e-03)) ((3.364982e-10 -5.602533e-08 9.243283e-11) (1.361308e-07 -2.287590e-07 1.426772e-09))
17.6628       	((3.290881e-05 1.063093e-07 -1.799845e-03) (2.517026e-06 1.176365e-06 1.486744e-03)) ((3.324613e-10 -5.602372e-08 9.174955e-11) (1.362257e-07 -2.288360e-07 1.446724e-09))
17.817139     	((3.280819e-05 -5.587714e-08 -1.799735e-03) (2.515988e-06 1.174637e-06 1.486744e-03)) ((3.434626e-10 -5.603111e-08 9.189641e-11) (1.361910e-07 -2.288384e-07 1.430645e-09))
17.971478     	((3.289605e-05 8.299227e-08 -1.799813e-03) (2.517393e-06 1.176148e-06 1.486742e-03)) ((3.280093e-10 -5.602041e-08 9.193612e-11) (1.361621e-07 -2.288069e-07 1.447306e-09))
18.125817     	((3.280058e-05 -3.688295e-08 -1.799766e-03) (2.516485e-06 1.175390e-06 1.486743e-03)) ((3.459694e-10 -5.603536e-08 9.238485e-11) (1.361974e-07 -2.288443e-07 1.438327e-09))
18.280155     	((3.280870e-05 -4.201982e-08 -1.799739e-03) (2.515605e-06 1.173130e-06 1.486742e-03)) ((3.396657e-10 -5.602946e-08 9.226708e-11) (1.361370e-07 -2.288147e-07 1.429495e-09))
18.434494     	((3.290550e-05 9.699112e-08 -1.799833e-03) (2.517748e-06 1.176610e-06 1.486742e-03)) ((3.311227e-10 -5.602365e-08 9.163051e-11) (1.361977e-07 -2.288608e-07 1.451909e-09))
18.588833     	((3.279525e-05 -6.563967e-08 -1.799745e-03) (2.516779e-06 1.174790e-06 1.486742e-03)) ((3.462188e-10 -5.603484e-08 9.210276e-11) (1.361762e-07 -2.288713e-07 1.433876e-09))
18.743172     	((3.286399e-05 4.559042e-08 -1.799784e-03) (2.517554e-06 1.175511e-06 1.486740e-03)) ((3.316207e-10 -5.602479e-08 9.226301e-11) (1.361260e-07 -2.288281e-07 1.444964e-09))
18.897511     	((3.284137e-05 1.201452e-08 -1.799809e-03) (2.517633e-06 1.176165e-06 1.486741e-03)) ((3.421397e-10 -5.603345e-08 9.211752e-11) (1.361924e-07 -2.288915e-07 1.446656e-09))
19.05185      	((3.277800e-05 -7.108882e-08 -1.799717e-03) (2.516664e-06 1.173727e-06 1.486740e-03)) ((3.417729e-10 -5.603275e-08 9.202809e-11) (1.361207e-07 -2.288515e-07 1.432746e-09))
19.206189     	((3.290389e-05 9.157102e-08 -1.799837e-03) (2.518194e-06 1.176428e-06 1.486740e-03)) ((3.293587e-10 -5.602327e-08 9.156660e-11) (1.361527e-07 -2.288733e-07 1.452231e-09))
19.360528     	((3.279303e-05 -6.845844e-08 -1.799746e-03) (2.517388e-06 1.174728e-06 1.486740e-03)) ((3.472798e-10 -5.603700e-08 9.233488e-11) (1.361602e-07 -2.289077e-07 1.436318e-09))
19.514867     	((3.284483e-05 2.772604e-08 -1.799782e-03) (2.517564e-06 1.174722e-06 1.486739e-03)) ((3.339402e-10 -5.602803e-08 9.226453e-11) (1.361126e-07 -2.288726e-07 1.439499e-09))
19.669206     	((3.287265e-05 4.411816e-08 -1.799820e-03) (2.518509e-06 1.176499e-06 1.486740e-03)) ((3.379010e-10 -5.603105e-08 9.184749e-11) (1.361962e-07 -2.289514e-07 1.449264e-09))
19.823544     	((3.277994e-05 -6.414191e-08 -1.799731e-03) (2.517739e-06 1.174404e-06 1.486739e-03)) ((3.423503e-10 -5.603456e-08 9.190336e-11) (1.361407e-07 -2.289247e-07 1.434734e-09))
19.977883     	((3.291644e-05 9.444190e-08 -1.799828e-03) (2.518918e-06 1.176571e-06 1.486739e-03)) ((3.278606e-10 -5.602287e-08 9.151073e-11) (1.361529e-07 -2.289338e-07 1.451438e-09))
20.132222     	((3.279546e-05 -6.281102e-08 -1.799764e-03) (2.518160e-06 1.174895e-06 1.486739e-03)) ((3.471748e-10 -5.603824e-08 9.240184e-11) (1.361719e-07 -2.289734e-07 1.437631e-09))
20.286561     	((3.283401e-05 7.127631e-09 -1.799761e-03) (2.517858e-06 1.174293e-06 1.486738e-03)) ((3.352151e-10 -5.603013e-08 9.213324e-11) (1.361240e-07 -2.289414e-07 1.435176e-09))
20.4409       	((3.289725e-05 7.202745e-08 -1.799842e-03) (2.519484e-06 1.176978e-06 1.486740e-03)) ((3.345925e-10 -5.602946e-08 9.162716e-11) (1.362107e-07 -2.290212e-07 1.451562e-09))
20.595239     	((3.278823e-05 -5.434631e-08 -1.799730e-03) (2.518656e-06 1.174938e-06 1.486739e-03)) ((3.420519e-10 -5.603561e-08 9.175523e-11) (1.361650e-07 -2.290023e-07 1.436285e-09))
20.749578     	((3.291365e-05 8.630998e-08 -1.799830e-03) (2.519689e-06 1.176905e-06 1.486738e-03)) ((3.274325e-10 -5.602352e-08 9.154336e-11) (1.361509e-07 -2.289888e-07 1.452305e-09))
20.903917     	((3.279838e-05 -6.091163e-08 -1.799762e-03) (2.518835e-06 1.174988e-06 1.486738e-03)) ((3.468725e-10 -5.603929e-08 9.240385e-11) (1.361749e-07 -2.290279e-07 1.438891e-09))
21.058256     	((3.282721e-05 -3.636188e-10 -1.799761e-03) (2.517628e-06 1.173445e-06 1.486738e-03)) ((3.358648e-10 -5.603180e-08 9.193172e-11) (1.361384e-07 -2.290117e-07 1.432714e-09))
21.212595     	((3.293454e-05 1.049756e-07 -1.799855e-03) (2.520404e-06 1.177420e-06 1.486739e-03)) ((3.310765e-10 -5.602733e-08 9.162139e-11) (1.362190e-07 -2.290854e-07 1.455766e-09))
21.366934     	((3.279582e-05 -3.997941e-08 -1.799748e-03) (2.519506e-06 1.175370e-06 1.486738e-03)) ((3.427797e-10 -5.603764e-08 9.169163e-11) (1.361939e-07 -2.290796e-07 1.436871e-09))
21.521273     	((3.289407e-05 5.557781e-08 -1.799807e-03) (2.520239e-06 1.176854e-06 1.486737e-03)) ((3.291010e-10 -5.602585e-08 9.189750e-11) (1.361380e-07 -2.290325e-07 1.451432e-09))
21.675612     	((3.283168e-05 -1.596281e-08 -1.799798e-03) (2.520255e-06 1.176170e-06 1.486738e-03)) ((3.435392e-10 -5.603789e-08 9.224364e-11) (1.361767e-07 -2.290782e-07 1.447846e-09))
21.829951     	((3.278611e-05 -4.979468e-08 -1.799729e-03) (2.518665e-06 1.174144e-06 1.486736e-03)) ((3.387042e-10 -5.603523e-08 9.173402e-11) (1.361056e-07 -2.290309e-07 1.434361e-09))
21.98429      	((3.291500e-05 7.942787e-08 -1.799844e-03) (2.520619e-06 1.177009e-06 1.486737e-03)) ((3.290750e-10 -5.602657e-08 9.151524e-11) (1.361383e-07 -2.290581e-07 1.457017e-09))
22.138629     	((3.277388e-05 -5.671342e-08 -1.799742e-03) (2.519669e-06 1.175065e-06 1.486736e-03)) ((3.442133e-10 -5.604025e-08 9.193902e-11) (1.361321e-07 -2.290603e-07 1.438594e-09))
22.292968     	((3.286615e-05 2.334612e-08 -1.799794e-03) (2.519777e-06 1.175651e-06 1.486735e-03)) ((3.315526e-10 -5.602911e-08 9.210753e-11) (1.360729e-07 -2.290164e-07 1.445542e-09))
22.447307     	((3.285996e-05 2.359099e-08 -1.799816e-03) (2.520701e-06 1.176235e-06 1.486736e-03)) ((3.380998e-10 -5.603454e-08 9.190711e-11) (1.361439e-07 -2.290856e-07 1.451757e-09))
22.601646     	((3.276876e-05 -6.915565e-08 -1.799730e-03) (2.519258e-06 1.174446e-06 1.486735e-03)) ((3.396713e-10 -5.603701e-08 9.159447e-11) (1.360736e-07 -2.290383e-07 1.435861e-09))
22.755985     	((3.291654e-05 7.650929e-08 -1.799831e-03) (2.520742e-06 1.176515e-06 1.486735e-03)) ((3.263945e-10 -5.602513e-08 9.144686e-11) (1.360869e-07 -2.290507e-07 1.455301e-09))
22.910324     	((3.277293e-05 -4.941218e-08 -1.799762e-03) (2.519875e-06 1.174881e-06 1.486735e-03)) ((3.439201e-10 -5.604126e-08 9.209772e-11) (1.361104e-07 -2.290731e-07 1.439388e-09))