# Forces      
# CofR        : (0.000000e+00 0.000000e+00 0.000000e+00)
# Time        forces(pressure viscous)	moments(pressure viscous)
0             	((0.000000e+00 0.000000e+00 0.000000e+00) (7.964489e-06 -4.761950e-16 7.743038e-11)) ((0.000000e+00 0.000000e+00 0.000000e+00) (-1.809178e-17 -1.789525e-07 -1.160997e-16))
0.012         	((2.316042e-03 -3.998976e-09 5.901182e-04) (9.140283e-06 -1.459767e-11 -2.166070e-09)) ((-1.809939e-13 3.413157e-08 -3.793489e-13) (-7.306615e-14 -2.637527e-07 2.166603e-13))
0.0264        	((-1.594316e-04 4.469822e-10 -3.751293e-05) (9.326980e-06 -2.164920e-11 -3.045159e-09)) ((2.155622e-14 -2.369121e-09 4.840347e-13) (3.927600e-13 -2.953300e-07 3.645923e-13))
0.04368       	((-4.849592e-04 -5.210670e-09 -5.773721e-05) (8.289807e-06 -2.491811e-11 -2.393262e-09)) ((6.075539e-13 -7.571608e-09 4.327516e-13) (7.324612e-13 -2.631123e-07 1.783252e-13))
0.064416      	((-4.568773e-06 4.600572e-09 -1.862820e-05) (7.343218e-06 1.449475e-10 -1.186690e-09)) ((-3.205369e-13 -1.891776e-11 -2.003813e-14) (2.915935e-13 -2.361857e-07 6.091069e-13))
0.0892992     	((6.564203e-06 -9.071474e-09 -1.097170e-05) (6.779887e-06 2.264416e-10 -1.078349e-09)) ((2.345560e-13 2.741509e-10 1.096233e-14) (-6.871181e-13 -2.232614e-07 3.243748e-13))
0.119159      	((-7.234797e-06 3.216882e-09 -6.703096e-06) (6.260669e-06 1.760663e-10 -1.378152e-09)) ((-2.210139e-13 -1.778074e-10 1.405990e-13) (-8.273961e-13 -2.088946e-07 -1.346181e-12))
0.154991      	((-3.907999e-06 1.975314e-09 -4.162794e-06) (5.709861e-06 1.474789e-10 -1.364254e-09)) ((-4.994244e-15 -1.052262e-10 2.198313e-13) (-9.584383e-13 -1.928955e-07 -2.444711e-12))
0.197989      	((-9.502591e-07 2.074884e-09 -2.557185e-06) (5.153615e-06 1.055884e-10 -1.666885e-09)) ((-2.125765e-13 -3.629624e-11 1.371741e-13) (-1.107611e-12 -1.766075e-07 -2.421092e-12))
0.249587      	((1.238739e-07 1.906035e-09 -1.561865e-06) (4.607569e-06 7.001744e-11 -2.000286e-09)) ((-2.349157e-13 -1.051564e-11 -5.050973e-14) (-7.059704e-13 -1.603141e-07 -2.029570e-12))
0.311504      	((6.158356e-07 3.130441e-10 -9.291151e-07) (4.088093e-06 3.556683e-11 -2.316631e-09)) ((-8.573099e-14 -1.148367e-12 -1.198199e-14) (-4.869609e-13 -1.443286e-07 -1.349196e-12))
0.385805      	((8.526918e-07 1.428730e-10 -5.355510e-07) (3.608340e-06 1.399241e-11 -2.623357e-09)) ((-6.136069e-14 1.956843e-12 -1.250138e-14) (-3.514206e-13 -1.290419e-07 -6.517411e-13))
0.474966      	((9.628065e-07 4.639662e-12 -2.872667e-07) (3.178011e-06 -2.338575e-12 -2.886583e-09)) ((-3.689731e-14 4.440272e-12 -7.969055e-15) (-2.742970e-13 -1.148807e-07 -4.143415e-13))
0.581959      	((1.006567e-06 -7.717371e-11 -1.373088e-07) (2.801322e-06 -1.491817e-11 -3.135130e-09)) ((-1.430967e-14 6.502648e-12 2.303860e-15) (-2.437479e-13 -1.021129e-07 -1.435345e-13))
0.710351      	((1.002529e-06 -8.817363e-11 -4.715282e-08) (2.478447e-06 -1.530590e-11 -3.388089e-09)) ((-4.435481e-15 7.789265e-12 5.238931e-15) (-2.098372e-13 -9.088899e-08 1.326761e-13))
0.864421      	((9.664068e-07 -7.406443e-11 3.436752e-09) (2.205271e-06 -9.559813e-12 -3.616884e-09)) ((-2.015252e-15 8.212048e-12 2.700546e-15) (-2.145463e-13 -8.121009e-08 1.265688e-13))
1.049306      	((9.134023e-07 -5.617215e-11 3.129143e-08) (1.974795e-06 -3.948299e-12 -3.804094e-09)) ((-2.322712e-15 7.993943e-12 2.239402e-15) (-2.042952e-13 -7.293148e-08 1.433013e-13))
1.271167      	((8.544102e-07 -2.430674e-11 4.395834e-08) (1.779807e-06 -1.612017e-12 -3.997220e-09)) ((-1.512164e-15 7.514686e-12 1.600001e-15) (-1.461150e-13 -6.583503e-08 1.830757e-13))
1.5374        	((7.940911e-07 -1.984483e-11 4.772137e-08) (1.612644e-06 -1.947611e-13 -4.232596e-09)) ((-1.591710e-15 6.982923e-12 1.115474e-15) (-9.206817e-14 -5.968523e-08 1.239744e-13))
1.85688       	((7.352260e-07 -1.272980e-11 4.525031e-08) (1.466304e-06 1.607871e-12 -4.493365e-09)) ((-5.650035e-16 6.405337e-12 1.156250e-15) (-8.041160e-14 -5.427639e-08 -8.594769e-15))
2.240256      	((6.794067e-07 -1.480620e-11 3.932614e-08) (1.336212e-06 4.355288e-13 -4.761397e-09)) ((-3.322958e-16 5.871088e-12 9.928833e-16) (-9.271527e-14 -4.946033e-08 -1.060331e-13))
2.700307      	((6.273761e-07 -2.459884e-11 3.122879e-08) (1.219555e-06 -1.830413e-12 -5.045650e-09)) ((1.376614e-15 5.413057e-12 7.298973e-16) (-1.191746e-13 -4.513785e-08 -1.932318e-13))
3.252369      	((5.788252e-07 -1.453191e-11 2.244385e-08) (1.114443e-06 -2.448224e-12 -5.350183e-09)) ((2.172879e-15 4.962170e-12 3.346651e-16) (-1.527287e-13 -4.124180e-08 -3.044042e-13))
3.914842      	((5.331674e-07 3.199488e-12 1.349148e-08) (1.019484e-06 -1.630582e-12 -5.693178e-09)) ((2.486255e-15 4.509174e-12 7.436004e-17) (-1.735481e-13 -3.772206e-08 -4.313639e-13))
4.709811      	((4.907349e-07 1.804664e-11 4.790321e-09) (9.336917e-07 -1.156258e-12 -6.082835e-09)) ((2.074833e-15 4.086403e-12 2.565295e-16) (-1.637645e-13 -3.454098e-08 -5.165532e-13))
5.663773      	((4.515245e-07 2.083560e-11 -3.384167e-09) (8.563189e-07 -6.539775e-13 -6.497689e-09)) ((2.186767e-15 3.712408e-12 4.478183e-16) (-1.480637e-13 -3.167164e-08 -5.170341e-13))
6.808528      	((4.155082e-07 -5.787634e-13 -1.078743e-08) (7.867094e-07 -4.439972e-13 -6.923036e-09)) ((1.906388e-15 3.387176e-12 5.016630e-16) (-1.549437e-13 -2.909136e-08 -4.943443e-13))
8.182233      	((3.825808e-07 -1.192503e-12 -1.748708e-08) (7.242361e-07 -8.085977e-13 -7.362513e-09)) ((1.388587e-15 3.102527e-12 6.352359e-16) (-1.875125e-13 -2.677627e-08 -4.844121e-13))
9.83068       	((3.527061e-07 3.426210e-12 -2.352727e-08) (6.681425e-07 -2.559090e-12 -7.824131e-09)) ((9.435860e-16 2.849486e-12 3.593574e-16) (-1.993363e-13 -2.469801e-08 -5.766339e-13))
11.808816     	((3.253751e-07 3.618669e-12 -2.899775e-08) (6.175901e-07 -4.956059e-12 -8.317774e-09)) ((6.047643e-17 2.616117e-12 3.392254e-16) (-1.616357e-13 -2.282553e-08 -8.124258e-13))
14.182579     	((3.004015e-07 -9.460118e-12 -3.390039e-08) (5.718309e-07 -7.510697e-12 -8.855134e-09)) ((-7.481899e-16 2.402949e-12 1.736651e-16) (-1.585240e-13 -2.113044e-08 -1.172123e-12))
17.031095     	((2.776559e-07 -1.950464e-12 -3.832430e-08) (5.302517e-07 -9.535122e-12 -9.443891e-09)) ((-1.845139e-15 2.212182e-12 -4.855434e-16) (-1.414177e-13 -1.958981e-08 -1.640917e-12))
20.449314     	((2.569234e-07 -1.967353e-12 -4.231158e-08) (4.923939e-07 -1.215671e-11 -1.008485e-08)) ((-9.451481e-16 2.041715e-12 -7.756410e-16) (-1.569432e-13 -1.818641e-08 -2.169386e-12))
24.551176     	((2.380524e-07 -3.105362e-12 -4.581007e-08) (4.579097e-07 -1.330187e-11 -1.076718e-08)) ((1.070943e-15 1.888341e-12 -1.328964e-15) (-2.560503e-13 -1.690755e-08 -2.630326e-12))
29.473411     	((2.209222e-07 6.541555e-12 -4.885839e-08) (4.265305e-07 -1.121477e-11 -1.148178e-08)) ((2.625998e-15 1.753419e-12 -1.606983e-15) (-3.467601e-13 -1.574363e-08 -3.016276e-12))
35.380094     	((2.053960e-07 -9.943856e-12 -5.144555e-08) (3.980345e-07 -1.077970e-11 -1.222918e-08)) ((4.051685e-15 1.633195e-12 -1.509742e-15) (-4.427387e-13 -1.468662e-08 -3.439123e-12))
42.468112     	((1.914286e-07 -1.486853e-11 -5.365865e-08) (3.721913e-07 -1.241200e-11 -1.300199e-08)) ((4.874519e-15 1.526802e-12 -1.355397e-15) (-5.464410e-13 -1.372841e-08 -4.074806e-12))
50.973735     	((1.789169e-07 -1.954057e-11 -5.549619e-08) (3.487893e-07 -1.368842e-11 -1.379782e-08)) ((6.016194e-15 1.434034e-12 -1.340917e-15) (-6.281755e-13 -1.286079e-08 -4.982368e-12))
61.180482     	((1.677173e-07 -1.204004e-11 -5.700660e-08) (3.276051e-07 -1.499374e-11 -1.461065e-08)) ((6.425370e-15 1.353660e-12 -1.242884e-15) (-6.493994e-13 -1.207546e-08 -6.135108e-12))
73.428578     	((1.577206e-07 -2.090822e-12 -5.819315e-08) (3.084232e-07 -1.640698e-11 -1.544238e-08)) ((6.304799e-15 1.284708e-12 -9.268795e-16) (-5.907725e-13 -1.136436e-08 -7.561969e-12))
88.126294     	((1.488875e-07 1.248530e-11 -5.914604e-08) (2.910452e-07 -1.808798e-11 -1.629199e-08)) ((5.791562e-15 1.227075e-12 -8.475037e-16) (-4.612331e-13 -1.072025e-08 -9.207454e-12))
105.763553    	((1.411222e-07 2.634087e-11 -5.989226e-08) (2.753021e-07 -2.086391e-11 -1.716227e-08)) ((5.012525e-15 1.179749e-12 -8.160033e-16) (-2.806826e-13 -1.013694e-08 -1.091461e-11))
126.928263    	((1.344052e-07 4.276738e-11 -6.039936e-08) (2.610611e-07 -2.314957e-11 -1.805313e-08)) ((4.332498e-15 1.142124e-12 -8.117071e-16) (-4.528854e-14 -9.609438e-09 -1.259014e-11))
152.325916    	((1.286634e-07 5.278161e-11 -6.071481e-08) (2.482144e-07 -2.607834e-11 -1.896336e-08)) ((3.638747e-15 1.114487e-12 -8.073845e-16) (1.837558e-13 -9.133940e-09 -1.414596e-11))
182.803099    	((1.238247e-07 6.289170e-11 -6.088327e-08) (2.366701e-07 -2.970930e-11 -1.989091e-08)) ((3.018257e-15 1.096291e-12 -8.146905e-16) (3.972359e-13 -8.707231e-09 -1.553613e-11))
219.375719    	((1.197903e-07 7.770120e-11 -6.090490e-08) (2.263472e-07 -3.279402e-11 -2.083500e-08)) ((2.477213e-15 1.087669e-12 -8.307094e-16) (6.197856e-13 -8.326525e-09 -1.669743e-11))
263.262863    	((1.165127e-07 8.700647e-11 -6.081448e-08) (2.171748e-07 -3.483668e-11 -2.179454e-08)) ((1.844235e-15 1.087506e-12 -9.221102e-16) (8.577468e-13 -7.989379e-09 -1.763388e-11))
315.927436    	((1.139681e-07 9.454296e-11 -6.061426e-08) (2.090894e-07 -3.577741e-11 -2.276801e-08)) ((1.326903e-15 1.095158e-12 -9.188779e-16) (1.103601e-12 -7.693565e-09 -1.834672e-11))
379.124923    	((1.120893e-07 1.059610e-10 -6.033355e-08) (2.020354e-07 -3.497357e-11 -2.374819e-08)) ((8.700083e-16 1.108604e-12 -1.007100e-15) (1.349862e-12 -7.436917e-09 -1.881990e-11))
454.961908    	((1.107923e-07 1.167242e-10 -5.998741e-08) (1.959532e-07 -3.303148e-11 -2.472225e-08)) ((5.226077e-16 1.125322e-12 -1.125387e-15) (1.604577e-12 -7.216944e-09 -1.907126e-11))
545.966289    	((1.099489e-07 1.271401e-10 -5.955382e-08) (1.907743e-07 -3.024620e-11 -2.566740e-08)) ((3.108159e-16 1.142875e-12 -1.200124e-15) (1.865138e-12 -7.030631e-09 -1.910037e-11))
655.171547    	((1.094274e-07 1.344282e-10 -5.905172e-08) (1.864158e-07 -2.625920e-11 -2.655694e-08)) ((1.731088e-16 1.159266e-12 -1.266065e-15) (2.141429e-12 -6.874443e-09 -1.892382e-11))
786.217856    	((1.091064e-07 1.411618e-10 -5.847610e-08) (1.827811e-07 -2.115507e-11 -2.736738e-08)) ((1.446515e-16 1.173329e-12 -1.289826e-15) (2.424453e-12 -6.744497e-09 -1.856319e-11))
939.156362    	((1.089024e-07 1.437067e-10 -5.787337e-08) (1.797776e-07 -1.530293e-11 -2.808094e-08)) ((2.889170e-16 1.184683e-12 -1.307499e-15) (2.694153e-12 -6.637291e-09 -1.805007e-11))
1114.012383   	((1.087292e-07 1.429064e-10 -5.728420e-08) (1.773007e-07 -9.201583e-12 -2.869516e-08)) ((5.694517e-16 1.192888e-12 -1.300315e-15) (2.917023e-12 -6.549060e-09 -1.740775e-11))
1310.8089     	((1.085751e-07 1.404332e-10 -5.675963e-08) (1.752616e-07 -3.008798e-12 -2.921552e-08)) ((8.235903e-16 1.198208e-12 -1.246777e-15) (3.093077e-12 -6.476698e-09 -1.667030e-11))
1529.568652   	((1.084317e-07 1.369045e-10 -5.630885e-08) (1.735812e-07 3.103075e-12 -2.965380e-08)) ((1.024663e-15 1.201214e-12 -1.206318e-15) (3.231699e-12 -6.417422e-09 -1.587099e-11))
1749.420588   	((1.083319e-07 1.315571e-10 -5.600961e-08) (1.722068e-07 8.692244e-12 -3.002033e-08)) ((1.232103e-15 1.202660e-12 -1.154508e-15) (3.325180e-12 -6.369353e-09 -1.503981e-11))
1969.470733   	((1.082323e-07 1.258657e-10 -5.575124e-08) (1.710745e-07 1.360806e-11 -3.032933e-08)) ((1.411844e-15 1.202762e-12 -1.129521e-15) (3.369211e-12 -6.330164e-09 -1.419328e-11))
2189.696615   	((1.081525e-07 1.196925e-10 -5.552564e-08) (1.701451e-07 1.772515e-11 -3.058940e-08)) ((1.557305e-15 1.202466e-12 -1.074957e-15) (3.366553e-12 -6.298388e-09 -1.335704e-11))
2410.075738   	((1.080791e-07 1.130191e-10 -5.530478e-08) (1.693779e-07 2.115727e-11 -3.080984e-08)) ((1.707779e-15 1.201948e-12 -1.011735e-15) (3.321603e-12 -6.272499e-09 -1.254072e-11))
2630.588372   	((1.080188e-07 1.061204e-10 -5.508972e-08) (1.687447e-07 2.380238e-11 -3.099682e-08)) ((1.878507e-15 1.201238e-12 -9.589125e-16) (3.241208e-12 -6.251431e-09 -1.175912e-11))
2851.216497   	((1.079659e-07 9.900526e-11 -5.487862e-08) (1.682198e-07 2.578767e-11 -3.115625e-08)) ((2.060199e-15 1.200510e-12 -9.128317e-16) (3.134208e-12 -6.234204e-09 -1.101268e-11))
3071.944371   	((1.079218e-07 9.184846e-11 -5.466501e-08) (1.677847e-07 2.717137e-11 -3.129220e-08)) ((2.247142e-15 1.199905e-12 -8.774067e-16) (3.004127e-12 -6.220113e-09 -1.030590e-11))
3292.758025   	((1.078836e-07 8.472252e-11 -5.445567e-08) (1.674226e-07 2.803584e-11 -3.140839e-08)) ((2.437474e-15 1.199333e-12 -8.407891e-16) (2.856325e-12 -6.208540e-09 -9.642897e-12))
3513.645326   	((1.078516e-07 7.790997e-11 -5.425469e-08) (1.671209e-07 2.845461e-11 -3.150771e-08)) ((2.606498e-15 1.198871e-12 -8.086506e-16) (2.697070e-12 -6.199022e-09 -9.024958e-12))
3734.595733   	((1.078243e-07 7.136898e-11 -5.406698e-08) (1.668688e-07 2.847461e-11 -3.159269e-08)) ((2.760728e-15 1.198549e-12 -7.747467e-16) (2.531997e-12 -6.191168e-09 -8.454357e-12))
3955.600192   	((1.078014e-07 6.508099e-11 -5.388918e-08) (1.666580e-07 2.817337e-11 -3.166543e-08)) ((2.917398e-15 1.198316e-12 -7.439459e-16) (2.363699e-12 -6.184672e-09 -7.929897e-12))
4176.650916   	((1.077818e-07 5.902757e-11 -5.372962e-08) (1.664814e-07 2.761391e-11 -3.172770e-08)) ((3.064452e-15 1.198124e-12 -7.181591e-16) (2.195039e-12 -6.179285e-09 -7.449730e-12))
4397.741232   	((1.077652e-07 5.342079e-11 -5.358408e-08) (1.663333e-07 2.687641e-11 -3.178101e-08)) ((3.186995e-15 1.197975e-12 -6.943868e-16) (2.029964e-12 -6.174809e-09 -7.012134e-12))
4618.86543    	((1.077512e-07 4.821925e-11 -5.345197e-08) (1.662088e-07 2.599965e-11 -3.182660e-08)) ((3.299588e-15 1.197869e-12 -6.691896e-16) (1.870422e-12 -6.171082e-09 -6.614921e-12))
4840.018634   	((1.077393e-07 4.341246e-11 -5.333593e-08) (1.661041e-07 2.500524e-11 -3.186556e-08)) ((3.399085e-15 1.197776e-12 -6.469024e-16) (1.717541e-12 -6.167973e-09 -6.256363e-12))
5061.196671   	((1.077291e-07 3.900313e-11 -5.323200e-08) (1.660160e-07 2.395364e-11 -3.189885e-08)) ((3.491276e-15 1.197691e-12 -6.280123e-16) (1.572320e-12 -6.165373e-09 -5.932763e-12))
5282.395974   	((1.077206e-07 3.492845e-11 -5.314692e-08) (1.659417e-07 2.288023e-11 -3.192728e-08)) ((3.577893e-15 1.197601e-12 -6.108471e-16) (1.435111e-12 -6.163197e-09 -5.641078e-12))
5503.613492   	((1.077132e-07 3.124493e-11 -5.306529e-08) (1.658790e-07 2.181052e-11 -3.195154e-08)) ((3.656334e-15 1.197551e-12 -5.953708e-16) (1.306393e-12 -6.161372e-09 -5.378869e-12))
5724.846616   	((1.077070e-07 2.791003e-11 -5.299555e-08) (1.658261e-07 2.076343e-11 -3.197224e-08)) ((3.727097e-15 1.197515e-12 -5.815260e-16) (1.186459e-12 -6.159839e-09 -5.143715e-12))
5946.093109   	((1.077018e-07 2.487843e-11 -5.293502e-08) (1.657813e-07 1.975520e-11 -3.198988e-08)) ((3.792135e-15 1.197494e-12 -5.687284e-16) (1.075395e-12 -6.158551e-09 -4.933322e-12))
6167.351058   	((1.076975e-07 2.217857e-11 -5.288422e-08) (1.657436e-07 1.879310e-11 -3.200490e-08)) ((3.848945e-15 1.197481e-12 -5.578731e-16) (9.732706e-13 -6.157466e-09 -4.745733e-12))
6388.61882    	((1.076938e-07 1.977928e-11 -5.283935e-08) (1.657116e-07 1.788575e-11 -3.201770e-08)) ((3.898740e-15 1.197475e-12 -5.480846e-16) (8.799003e-13 -6.156553e-09 -4.578728e-12))
6609.894994   	((1.076906e-07 1.761973e-11 -5.279929e-08) (1.656845e-07 1.703718e-11 -3.202859e-08)) ((3.942917e-15 1.197478e-12 -5.395867e-16) (7.949963e-13 -6.155783e-09 -4.430412e-12))
6831.178375   	((1.076878e-07 1.570635e-11 -5.276556e-08) (1.656616e-07 1.624870e-11 -3.203785e-08)) ((3.981704e-15 1.197478e-12 -5.321000e-16) (7.181137e-13 -6.155133e-09 -4.298963e-12))
7052.467931   	((1.076856e-07 1.402621e-11 -5.273627e-08) (1.656422e-07 1.551987e-11 -3.204573e-08)) ((4.015233e-15 1.197480e-12 -5.253550e-16) (6.487229e-13 -6.154584e-09 -4.182770e-12))
7273.762778   	((1.076836e-07 1.253081e-11 -5.271133e-08) (1.656258e-07 1.485059e-11 -3.205243e-08)) ((4.045527e-15 1.197480e-12 -5.192600e-16) (5.862791e-13 -6.154120e-09 -4.080217e-12))
7495.062156   	((1.076819e-07 1.121044e-11 -5.268993e-08) (1.656119e-07 1.423908e-11 -3.205813e-08)) ((4.072272e-15 1.197483e-12 -5.136716e-16) (5.302512e-13 -6.153728e-09 -3.989835e-12))
7716.365417   	((1.076805e-07 1.003296e-11 -5.267187e-08) (1.656001e-07 1.368342e-11 -3.206297e-08)) ((4.096225e-15 1.197482e-12 -5.088629e-16) (4.801265e-13 -6.153396e-09 -3.910288e-12))
7937.672001   	((1.076793e-07 9.013571e-12 -5.265558e-08) (1.655901e-07 1.318093e-11 -3.206709e-08)) ((4.117098e-15 1.197485e-12 -5.046302e-16) (4.354337e-13 -6.153116e-09 -3.840380e-12))
8158.981433   	((1.076783e-07 8.125989e-12 -5.264187e-08) (1.655816e-07 1.273020e-11 -3.207058e-08)) ((4.135484e-15 1.197490e-12 -5.008477e-16) (3.956985e-13 -6.152878e-09 -3.778992e-12))
8380.293302   	((1.076774e-07 7.341534e-12 -5.262994e-08) (1.655744e-07 1.232543e-11 -3.207355e-08)) ((4.151664e-15 1.197493e-12 -4.976432e-16) (3.604342e-13 -6.152677e-09 -3.725162e-12))
8601.607259   	((1.076767e-07 6.635609e-12 -5.261948e-08) (1.655683e-07 1.196374e-11 -3.207607e-08)) ((4.166069e-15 1.197496e-12 -4.948145e-16) (3.291945e-13 -6.152507e-09 -3.677994e-12))
8822.923002   	((1.076761e-07 6.039099e-12 -5.261092e-08) (1.655631e-07 1.164239e-11 -3.207821e-08)) ((4.178526e-15 1.197499e-12 -4.922316e-16) (3.016167e-13 -6.152362e-09 -3.636708e-12))
9044.240273   	((1.076756e-07 5.518455e-12 -5.260363e-08) (1.655587e-07 1.135689e-11 -3.208003e-08)) ((4.189297e-15 1.197502e-12 -4.900641e-16) (2.773061e-13 -6.152240e-09 -3.600629e-12))
