# Forces      
# CofR        : (0.000000e+00 0.000000e+00 0.000000e+00)
# Time        forces(pressure viscous)	moments(pressure viscous)
0             	((0.000000e+00 0.000000e+00 0.000000e+00) (-7.796999e-15 1.262292e-05 6.189221e-16)) ((0.000000e+00 0.000000e+00 0.000000e+00) (2.836238e-07 -4.734804e-17 -6.052321e-12))
0.012         	((-4.148562e-09 3.670866e-03 9.164303e-04) (-2.530939e-11 1.448575e-05 -4.323417e-09)) ((-4.329377e-08 3.121817e-09 -6.921922e-10) (4.180141e-07 1.823296e-14 -1.257168e-11))
0.0264        	((-5.563785e-08 -2.534983e-04 -5.818258e-05) (-7.882647e-11 1.478060e-05 -6.085562e-09)) ((3.038486e-09 -1.958003e-10 4.509812e-11) (4.680339e-07 9.203832e-13 -1.662573e-11))
0.04368       	((8.170540e-08 -7.682972e-04 -8.368324e-05) (-4.239657e-11 1.313614e-05 -4.995510e-09)) ((1.000112e-08 -2.860073e-10 1.871924e-10) (4.169661e-07 -1.653126e-12 -1.416891e-11))
0.064416      	((-2.594351e-08 -7.220671e-06 -3.002938e-05) (3.009958e-10 1.163565e-05 -2.925879e-09)) ((-4.919421e-11 -1.005100e-10 -9.470828e-12) (3.743017e-07 -2.989025e-12 -1.651744e-11))
0.0892992     	((9.322531e-09 1.032356e-05 -1.803136e-05) (4.393389e-10 1.074270e-05 -2.730536e-09)) ((-4.093651e-10 -6.140464e-11 -1.030783e-11) (3.538227e-07 -1.048530e-12 -1.673262e-11))
0.119159      	((1.085381e-09 -1.148898e-05 -1.105393e-05) (3.503924e-10 9.919966e-06 -3.463799e-09)) ((2.162758e-10 -3.588759e-11 2.057457e-12) (3.310675e-07 -6.047998e-13 -1.359288e-11))
0.154991      	((-4.351369e-09 -6.197661e-06 -6.952177e-06) (2.516293e-10 9.047465e-06 -3.489827e-09)) ((1.321144e-10 -2.244834e-11 7.243100e-14) (3.057374e-07 -6.448273e-13 -1.122574e-11))
0.197989      	((4.443967e-09 -1.505650e-06 -4.303187e-06) (1.371882e-10 8.166827e-06 -3.862164e-09)) ((4.701879e-11 -1.337058e-11 1.725855e-13) (2.799565e-07 -9.879507e-13 -5.655109e-12))
0.249587      	((2.210184e-09 1.999746e-07 -2.696085e-06) (8.855313e-11 7.302806e-06 -4.476116e-09)) ((1.291246e-11 -8.034017e-12 -8.219283e-13) (2.541726e-07 -2.172465e-12 -1.887379e-12))
0.311504      	((7.214723e-10 9.811343e-07 -1.647943e-06) (6.824670e-11 6.481301e-06 -5.215346e-09)) ((2.310918e-12 -4.510194e-12 -9.045772e-13) (2.288885e-07 -3.210932e-12 7.032146e-13))
0.385805      	((4.011469e-10 1.355639e-06 -1.015661e-06) (6.170108e-11 5.723183e-06 -5.961386e-09)) ((-9.467704e-13 -2.227735e-12 -7.525437e-13) (2.047254e-07 -4.012801e-12 3.018230e-12))
0.474966      	((-1.653580e-11 1.531965e-06 -5.991332e-07) (4.671846e-11 5.043478e-06 -6.681324e-09)) ((-3.974361e-12 -7.898045e-13 -6.413338e-13) (1.823515e-07 -4.410834e-12 1.646591e-12))
0.581959      	((-2.186280e-11 1.602548e-06 -3.549220e-07) (1.799913e-11 4.448308e-06 -7.424338e-09)) ((-6.567677e-12 -1.102150e-14 -5.514377e-13) (1.621725e-07 -3.904279e-12 -2.526774e-12))
0.710351      	((-1.600442e-10 1.596254e-06 -1.998015e-07) (2.153989e-11 3.937644e-06 -8.160324e-09)) ((-8.296833e-12 4.967293e-13 -4.563265e-13) (1.444155e-07 -2.928536e-12 -4.904508e-12))
0.864421      	((-1.403114e-10 1.538834e-06 -1.174906e-07) (4.643221e-11 3.504943e-06 -8.788223e-09)) ((-8.992705e-12 7.550642e-13 -4.589682e-13) (1.290816e-07 -1.951805e-12 -4.241592e-12))
1.049306      	((-1.059228e-10 1.454636e-06 -6.745226e-08) (6.774587e-11 3.139287e-06 -9.288662e-09)) ((-8.882498e-12 9.018868e-13 -4.519532e-13) (1.159436e-07 -1.336512e-12 -2.761903e-12))
1.271167      	((3.647031e-12 1.360735e-06 -4.587280e-08) (8.828474e-11 2.829366e-06 -9.744558e-09)) ((-8.395677e-12 9.689703e-13 -4.119394e-13) (1.046607e-07 -1.037609e-12 -1.888383e-12))
1.5374        	((3.446623e-11 1.264456e-06 -3.660016e-08) (9.796464e-11 2.563247e-06 -1.027824e-08)) ((-7.808745e-12 1.005900e-12 -4.071476e-13) (9.486906e-08 -7.829950e-13 -1.317579e-12))
1.85688       	((6.370487e-11 1.170228e-06 -3.944828e-08) (9.380273e-11 2.330106e-06 -1.093217e-08)) ((-7.148360e-12 9.867798e-13 -4.098012e-13) (8.625082e-08 -5.240510e-13 -1.065117e-12))
2.240256      	((3.643566e-11 1.080683e-06 -4.682121e-08) (7.194359e-11 2.122837e-06 -1.167991e-08)) ((-6.565332e-12 9.486423e-13 -4.098723e-13) (7.857676e-08 -2.571165e-13 -1.302119e-12))
2.700307      	((2.717894e-11 9.970233e-07 -5.881765e-08) (4.672082e-11 1.937038e-06 -1.246408e-08)) ((-6.089964e-12 8.919503e-13 -4.098943e-13) (7.169406e-08 1.008696e-13 -2.543809e-12))
3.252369      	((6.283184e-11 9.190046e-07 -7.103627e-08) (4.366719e-11 1.769719e-06 -1.327290e-08)) ((-5.625566e-12 8.356082e-13 -3.833126e-13) (6.549497e-08 2.996092e-13 -4.353105e-12))
3.914842      	((6.708947e-11 8.455504e-07 -8.425508e-08) (3.706988e-11 1.618697e-06 -1.415902e-08)) ((-5.145544e-12 7.703014e-13 -3.491972e-13) (5.989812e-08 3.051197e-13 -5.834517e-12))
4.709811      	((6.661009e-11 7.772635e-07 -9.658711e-08) (2.076097e-11 1.482326e-06 -1.511437e-08)) ((-4.693260e-12 7.090443e-13 -3.146356e-13) (5.484357e-08 1.051431e-13 -6.115251e-12))
5.663773      	((6.127235e-11 7.144272e-07 -1.085131e-07) (8.276950e-12 1.359411e-06 -1.611882e-08)) ((-4.301907e-12 6.494927e-13 -2.850544e-13) (5.028783e-08 -7.778341e-14 -5.825655e-12))
6.808528      	((4.354951e-11 6.569499e-07 -1.188439e-07) (-2.196286e-12 1.248947e-06 -1.717770e-08)) ((-3.963375e-12 6.011208e-13 -2.489774e-13) (4.619314e-08 -2.338461e-14 -5.962201e-12))
8.182233      	((6.863437e-11 6.044726e-07 -1.280999e-07) (-1.111248e-11 1.149830e-06 -1.828211e-08)) ((-3.659189e-12 5.522259e-13 -2.149271e-13) (4.251919e-08 8.263011e-14 -5.936162e-12))
9.83068       	((1.166049e-10 5.568223e-07 -1.359818e-07) (-2.063104e-11 1.060794e-06 -1.944059e-08)) ((-3.388871e-12 5.035092e-13 -1.858031e-13) (3.922006e-08 1.493766e-13 -5.832358e-12))
11.808816     	((1.299058e-10 5.132595e-07 -1.430478e-07) (-2.683667e-11 9.805511e-07 -2.068784e-08)) ((-3.149198e-12 4.587214e-13 -1.599829e-13) (3.624749e-08 1.457772e-13 -5.842610e-12))
14.182579     	((8.934240e-11 4.735894e-07 -1.492367e-07) (-2.520015e-11 9.079482e-07 -2.204342e-08)) ((-2.932681e-12 4.151104e-13 -1.381673e-13) (3.355771e-08 1.546626e-13 -5.693683e-12))
17.031095     	((1.089064e-10 4.376076e-07 -1.547592e-07) (-2.286091e-11 8.420210e-07 -2.352100e-08)) ((-2.739210e-12 3.787080e-13 -1.197351e-13) (3.111482e-08 7.556527e-14 -5.267697e-12))
20.449314     	((9.447675e-11 4.049565e-07 -1.596009e-07) (-2.786158e-11 7.820349e-07 -2.513288e-08)) ((-2.564768e-12 3.459835e-13 -1.066566e-13) (2.889165e-08 4.163742e-14 -4.613285e-12))
24.551176     	((5.342851e-11 3.754462e-07 -1.637040e-07) (-3.455007e-11 7.274860e-07 -2.687545e-08)) ((-2.411548e-12 3.175255e-13 -9.810148e-14) (2.686905e-08 8.765466e-14 -3.963909e-12))
29.473411     	((6.715737e-11 3.489399e-07 -1.670419e-07) (-3.608490e-11 6.779672e-07 -2.872916e-08)) ((-2.280085e-12 2.930368e-13 -9.205436e-14) (2.503238e-08 8.349759e-14 -3.326295e-12))
35.380094     	((5.824355e-11 3.251992e-07 -1.696401e-07) (-3.702485e-11 6.331186e-07 -3.066853e-08)) ((-2.167506e-12 2.732610e-13 -8.704129e-14) (2.336865e-08 1.816000e-13 -2.690574e-12))
42.468112     	((6.878516e-11 3.041434e-07 -1.717043e-07) (-3.649090e-11 5.925810e-07 -3.267308e-08)) ((-2.075266e-12 2.525626e-13 -8.428903e-14) (2.186483e-08 3.128488e-13 -1.764549e-12))
50.973735     	((8.208994e-11 2.855907e-07 -1.730850e-07) (-3.557254e-11 5.560017e-07 -3.472052e-08)) ((-2.004146e-12 2.319197e-13 -8.210292e-14) (2.050810e-08 4.608971e-13 -3.222158e-13))
61.180482     	((8.806403e-11 2.693971e-07 -1.740150e-07) (-3.826677e-11 5.230403e-07 -3.679315e-08)) ((-1.951659e-12 2.136890e-13 -8.086863e-14) (1.928589e-08 6.277069e-13 1.793131e-12))
73.428578     	((1.019635e-10 2.553830e-07 -1.744023e-07) (-4.410956e-11 4.933718e-07 -3.888589e-08)) ((-1.915613e-12 1.986621e-13 -8.113398e-14) (1.818610e-08 6.621750e-13 4.437250e-12))
88.126294     	((1.191515e-10 2.434575e-07 -1.744195e-07) (-5.010924e-11 4.666985e-07 -4.099632e-08)) ((-1.897184e-12 1.858990e-13 -8.227615e-14) (1.719794e-08 4.973871e-13 7.558285e-12))
105.763553    	((1.360833e-10 2.335025e-07 -1.740778e-07) (-5.443956e-11 4.427730e-07 -4.312284e-08)) ((-1.896873e-12 1.765736e-13 -8.390481e-14) (1.631242e-08 1.625849e-13 1.095750e-11))
126.928263    	((1.521736e-10 2.254796e-07 -1.734099e-07) (-5.876863e-11 4.213993e-07 -4.526275e-08)) ((-1.912822e-12 1.694538e-13 -8.606290e-14) (1.552253e-08 -2.859324e-13 1.430901e-11))
152.325916    	((1.597373e-10 2.192234e-07 -1.723819e-07) (-6.071200e-11 4.024209e-07 -4.741107e-08)) ((-1.944434e-12 1.633481e-13 -8.863508e-14) (1.482291e-08 -7.953679e-13 1.732280e-11))
182.803099    	((1.763030e-10 2.145591e-07 -1.710999e-07) (-6.178218e-11 3.857091e-07 -4.956656e-08)) ((-1.989097e-12 1.590680e-13 -9.220869e-14) (1.420919e-08 -1.314575e-12 1.999796e-11))
219.375719    	((1.986260e-10 2.114360e-07 -1.695693e-07) (-6.058279e-11 3.711571e-07 -5.172056e-08)) ((-2.048708e-12 1.564345e-13 -9.677042e-14) (1.367777e-08 -1.895436e-12 2.226288e-11))
263.262863    	((2.148668e-10 2.095710e-07 -1.678149e-07) (-5.801643e-11 3.586580e-07 -5.385714e-08)) ((-2.114213e-12 1.559538e-13 -1.018495e-13) (1.322452e-08 -2.484461e-12 2.407418e-11))
315.927436    	((2.408307e-10 2.087643e-07 -1.658539e-07) (-5.339331e-11 3.480870e-07 -5.593142e-08)) ((-2.180559e-12 1.573848e-13 -1.072347e-13) (1.284410e-08 -3.066121e-12 2.541444e-11))
379.124923    	((2.650600e-10 2.087083e-07 -1.636258e-07) (-4.522301e-11 3.392842e-07 -5.788115e-08)) ((-2.239918e-12 1.610658e-13 -1.118027e-13) (1.252928e-08 -3.700792e-12 2.623513e-11))
454.480865    	((2.909049e-10 2.090514e-07 -1.611495e-07) (-3.471123e-11 3.320542e-07 -5.963614e-08)) ((-2.289168e-12 1.663474e-13 -1.151522e-13) (1.227157e-08 -4.372272e-12 2.655837e-11))
541.978849    	((3.136895e-10 2.095007e-07 -1.583978e-07) (-2.156251e-11 3.261761e-07 -6.114083e-08)) ((-2.326912e-12 1.718148e-13 -1.170514e-13) (1.206222e-08 -5.049558e-12 2.639830e-11))
641.613549    	((3.306730e-10 2.097954e-07 -1.555992e-07) (-7.100934e-12 3.213921e-07 -6.238660e-08)) ((-2.353289e-12 1.773821e-13 -1.181378e-13) (1.189187e-08 -5.666462e-12 2.586959e-11))
753.39114     	((3.389455e-10 2.099131e-07 -1.527450e-07) (8.109882e-12 3.174844e-07 -6.339765e-08)) ((-2.370684e-12 1.834799e-13 -1.188187e-13) (1.175302e-08 -6.187769e-12 2.507774e-11))
874.939336    	((3.418643e-10 2.099296e-07 -1.500503e-07) (2.370038e-11 3.142819e-07 -6.421701e-08)) ((-2.381176e-12 1.900566e-13 -1.192835e-13) (1.163980e-08 -6.637962e-12 2.408765e-11))
996.612357    	((3.381455e-10 2.099454e-07 -1.476133e-07) (3.822918e-11 3.116683e-07 -6.488334e-08)) ((-2.386688e-12 1.964363e-13 -1.196582e-13) (1.154814e-08 -6.990443e-12 2.298849e-11))
1118.392947   	((3.314934e-10 2.098980e-07 -1.453963e-07) (5.129740e-11 3.095151e-07 -6.543714e-08)) ((-2.388335e-12 2.027273e-13 -1.200013e-13) (1.147331e-08 -7.249140e-12 2.184247e-11))
1240.263373   	((3.204468e-10 2.098567e-07 -1.433708e-07) (6.228858e-11 3.077465e-07 -6.590014e-08)) ((-2.388107e-12 2.086683e-13 -1.202847e-13) (1.141248e-08 -7.398711e-12 2.068871e-11))
1362.208585   	((3.071336e-10 2.098036e-07 -1.415573e-07) (7.128044e-11 3.062857e-07 -6.629125e-08)) ((-2.386956e-12 2.140594e-13 -1.205518e-13) (1.136276e-08 -7.441317e-12 1.954712e-11))
1484.216633   	((2.923552e-10 2.097551e-07 -1.399579e-07) (7.825674e-11 3.050793e-07 -6.662260e-08)) ((-2.385260e-12 2.189115e-13 -1.207029e-13) (1.132215e-08 -7.389227e-12 1.843524e-11))
1606.277118   	((2.762695e-10 2.097059e-07 -1.385614e-07) (8.337968e-11 3.040793e-07 -6.690471e-08)) ((-2.383637e-12 2.231718e-13 -1.207484e-13) (1.128885e-08 -7.255985e-12 1.736387e-11))
1728.381142   	((2.595455e-10 2.096621e-07 -1.373511e-07) (8.693893e-11 3.032490e-07 -6.714524e-08)) ((-2.381997e-12 2.267530e-13 -1.209492e-13) (1.126151e-08 -7.059514e-12 1.633466e-11))
1850.52106    	((2.424701e-10 2.096215e-07 -1.363082e-07) (8.913477e-11 3.025582e-07 -6.735106e-08)) ((-2.380363e-12 2.297824e-13 -1.211818e-13) (1.123898e-08 -6.813573e-12 1.535582e-11))
1972.690484   	((2.253153e-10 2.095867e-07 -1.354082e-07) (9.016466e-11 3.019825e-07 -6.752706e-08)) ((-2.378908e-12 2.323989e-13 -1.212722e-13) (1.122039e-08 -6.532009e-12 1.442946e-11))
2094.884119   	((2.083933e-10 2.095560e-07 -1.346391e-07) (9.014751e-11 3.015016e-07 -6.767746e-08)) ((-2.377608e-12 2.345885e-13 -1.213399e-13) (1.120501e-08 -6.223499e-12 1.356581e-11))
2217.097615   	((1.921962e-10 2.095289e-07 -1.339753e-07) (8.933020e-11 3.010994e-07 -6.780635e-08)) ((-2.376410e-12 2.364512e-13 -1.214147e-13) (1.119225e-08 -5.901035e-12 1.275833e-11))
2339.327398   	((1.766669e-10 2.095054e-07 -1.334067e-07) (8.791484e-11 3.007626e-07 -6.791668e-08)) ((-2.375281e-12 2.380704e-13 -1.214601e-13) (1.118165e-08 -5.569211e-12 1.201402e-11))
2461.570544   	((1.618694e-10 2.094855e-07 -1.329195e-07) (8.595365e-11 3.004801e-07 -6.801096e-08)) ((-2.374226e-12 2.394463e-13 -1.214587e-13) (1.117282e-08 -5.236076e-12 1.133185e-11))
2583.824656   	((1.479953e-10 2.094678e-07 -1.325011e-07) (8.371613e-11 3.002428e-07 -6.809162e-08)) ((-2.373187e-12 2.406250e-13 -1.214838e-13) (1.116544e-08 -4.906972e-12 1.070441e-11))
2706.087772   	((1.350334e-10 2.094526e-07 -1.321421e-07) (8.130263e-11 3.000432e-07 -6.816053e-08)) ((-2.372278e-12 2.416054e-13 -1.215121e-13) (1.115928e-08 -4.588536e-12 1.013026e-11))
2828.358279   	((1.230762e-10 2.094395e-07 -1.318349e-07) (7.869882e-11 2.998754e-07 -6.821934e-08)) ((-2.371592e-12 2.424390e-13 -1.215444e-13) (1.115413e-08 -4.282468e-12 9.612339e-12))
2950.634853   	((1.121999e-10 2.094286e-07 -1.315723e-07) (7.600968e-11 2.997340e-07 -6.826936e-08)) ((-2.371005e-12 2.431462e-13 -1.215836e-13) (1.114981e-08 -3.991529e-12 9.144508e-12))
3072.916414   	((1.022542e-10 2.094191e-07 -1.313481e-07) (7.334003e-11 2.996149e-07 -6.831193e-08)) ((-2.370498e-12 2.437267e-13 -1.216237e-13) (1.114620e-08 -3.717240e-12 8.721450e-12))
3195.202074   	((9.330351e-11 2.094109e-07 -1.311565e-07) (7.072828e-11 2.995144e-07 -6.834815e-08)) ((-2.370104e-12 2.442130e-13 -1.216639e-13) (1.114316e-08 -3.461144e-12 8.341507e-12))
3317.491108   	((8.524867e-11 2.094040e-07 -1.309934e-07) (6.819373e-11 2.994296e-07 -6.837895e-08)) ((-2.369746e-12 2.446167e-13 -1.217004e-13) (1.114060e-08 -3.223889e-12 8.002614e-12))
3439.782921   	((7.807356e-11 2.093982e-07 -1.308542e-07) (6.579415e-11 2.993579e-07 -6.840513e-08)) ((-2.369437e-12 2.449511e-13 -1.217332e-13) (1.113846e-08 -3.005933e-12 7.699454e-12))
3562.077022   	((7.173030e-11 2.093934e-07 -1.307360e-07) (6.355452e-11 2.992973e-07 -6.842739e-08)) ((-2.369190e-12 2.452291e-13 -1.217570e-13) (1.113665e-08 -2.806959e-12 7.429354e-12))
3684.373011   	((6.612037e-11 2.093892e-07 -1.306351e-07) (6.148524e-11 2.992461e-07 -6.844632e-08)) ((-2.368972e-12 2.454653e-13 -1.217774e-13) (1.113513e-08 -2.626754e-12 7.189311e-12))
3806.670558   	((6.117164e-11 2.093856e-07 -1.305493e-07) (5.957671e-11 2.992027e-07 -6.846241e-08)) ((-2.368775e-12 2.456648e-13 -1.217993e-13) (1.113384e-08 -2.464304e-12 6.977242e-12))
3928.969391   	((5.680608e-11 2.093824e-07 -1.304758e-07) (5.783578e-11 2.991660e-07 -6.847609e-08)) ((-2.368607e-12 2.458347e-13 -1.218183e-13) (1.113275e-08 -2.318462e-12 6.789808e-12))
4051.269287   	((5.298655e-11 2.093799e-07 -1.304141e-07) (5.625908e-11 2.991350e-07 -6.848771e-08)) ((-2.368461e-12 2.459746e-13 -1.218333e-13) (1.113184e-08 -2.188077e-12 6.624379e-12))
4173.570061   	((4.964188e-11 2.093778e-07 -1.303615e-07) (5.483924e-11 2.991087e-07 -6.849759e-08)) ((-2.368334e-12 2.460929e-13 -1.218466e-13) (1.113107e-08 -2.071824e-12 6.478713e-12))
4295.871562   	((4.673705e-11 2.093760e-07 -1.303172e-07) (5.356478e-11 2.990865e-07 -6.850598e-08)) ((-2.368228e-12 2.461905e-13 -1.218582e-13) (1.113041e-08 -1.968536e-12 6.350858e-12))
4418.173664   	((4.417329e-11 2.093743e-07 -1.302797e-07) (5.242487e-11 2.990676e-07 -6.851311e-08)) ((-2.368137e-12 2.462707e-13 -1.218685e-13) (1.112986e-08 -1.877039e-12 6.238867e-12))
4540.476266   	((4.194420e-11 2.093730e-07 -1.302474e-07) (5.141307e-11 2.990517e-07 -6.851917e-08)) ((-2.368060e-12 2.463390e-13 -1.218773e-13) (1.112939e-08 -1.796187e-12 6.140786e-12))
4662.779281   	((4.003586e-11 2.093720e-07 -1.302203e-07) (5.052088e-11 2.990382e-07 -6.852431e-08)) ((-2.367999e-12 2.463954e-13 -1.218846e-13) (1.112900e-08 -1.725061e-12 6.054885e-12))
4785.082639   	((3.836314e-11 2.093711e-07 -1.301971e-07) (4.973446e-11 2.990267e-07 -6.852869e-08)) ((-2.367946e-12 2.464440e-13 -1.218905e-13) (1.112866e-08 -1.662528e-12 5.979903e-12))
4907.386281   	((3.688340e-11 2.093702e-07 -1.301772e-07) (4.904378e-11 2.990170e-07 -6.853241e-08)) ((-2.367899e-12 2.464835e-13 -1.218968e-13) (1.112838e-08 -1.607621e-12 5.914467e-12))
5029.690161   	((3.562526e-11 2.093696e-07 -1.301606e-07) (4.844011e-11 2.990088e-07 -6.853556e-08)) ((-2.367861e-12 2.465160e-13 -1.219020e-13) (1.112814e-08 -1.559602e-12 5.857375e-12))
5151.994238   	((3.454188e-11 2.093690e-07 -1.301466e-07) (4.791205e-11 2.990018e-07 -6.853824e-08)) ((-2.367828e-12 2.465427e-13 -1.219062e-13) (1.112794e-08 -1.517687e-12 5.807679e-12))
5274.298479   	((3.357612e-11 2.093685e-07 -1.301347e-07) (4.745165e-11 2.989959e-07 -6.854052e-08)) ((-2.367799e-12 2.465645e-13 -1.219101e-13) (1.112776e-08 -1.481111e-12 5.764416e-12))
5396.602857   	((3.275780e-11 2.093682e-07 -1.301245e-07) (4.705034e-11 2.989909e-07 -6.854246e-08)) ((-2.367776e-12 2.465831e-13 -1.219131e-13) (1.112762e-08 -1.449268e-12 5.726792e-12))
5518.907348   	((3.204384e-11 2.093678e-07 -1.301160e-07) (4.670210e-11 2.989866e-07 -6.854410e-08)) ((-2.367756e-12 2.465980e-13 -1.219157e-13) (1.112749e-08 -1.421570e-12 5.694081e-12))
5641.211934   	((3.142327e-11 2.093676e-07 -1.301086e-07) (4.639947e-11 2.989830e-07 -6.854550e-08)) ((-2.367738e-12 2.466108e-13 -1.219178e-13) (1.112739e-08 -1.397473e-12 5.665641e-12))
