# Forces      
# CofR        : (0.000000e+00 0.000000e+00 0.000000e+00)
# Time        forces(pressure viscous)	moments(pressure viscous)
0             	((0.000000e+00 0.000000e+00 0.000000e+00) (0.000000e+00 0.000000e+00 0.000000e+00)) ((0.000000e+00 0.000000e+00 0.000000e+00) (0.000000e+00 0.000000e+00 0.000000e+00))
0.012         	((2.132666e-07 -8.068622e-12 6.725035e-08) (5.263414e-07 -2.226667e-15 4.756673e-11)) ((3.469506e-15 -3.420146e-11 2.763609e-15) (3.934019e-16 -3.502652e-08 1.526137e-16))
0.0264        	((3.167569e-07 -1.796909e-10 1.062045e-07) (4.821352e-07 -4.587812e-14 2.839788e-11)) ((1.946301e-15 1.762845e-11 6.814280e-16) (1.477598e-15 -3.211921e-08 -9.479019e-16))
0.04368       	((2.011529e-07 1.074305e-10 6.426207e-08) (4.365165e-07 5.461933e-14 -1.412502e-12)) ((4.135295e-15 1.253637e-11 2.004706e-15) (4.258645e-15 -2.912819e-08 -4.617139e-15))
0.064416      	((2.388056e-07 -1.302717e-10 7.910174e-08) (3.904897e-07 9.017286e-14 -2.250745e-11)) ((2.433175e-15 2.438897e-11 -2.945226e-16) (8.352824e-15 -2.612075e-08 -6.242016e-15))
0.0892992     	((1.705061e-07 5.690718e-11 5.547120e-08) (3.453636e-07 8.874985e-14 -2.706886e-11)) ((1.200008e-15 1.731035e-11 1.486281e-15) (1.422519e-14 -2.318279e-08 -3.152271e-15))
0.119159      	((1.794515e-07 -6.347061e-11 5.800735e-08) (3.025824e-07 1.055855e-14 -2.329319e-11)) ((1.680293e-15 2.111167e-11 4.332666e-17) (1.258291e-14 -2.041046e-08 1.123228e-15))
0.154991      	((1.328078e-07 3.266332e-11 4.405676e-08) (2.634891e-07 -2.684583e-14 -2.400085e-11)) ((-5.237143e-16 1.470800e-11 1.290092e-16) (1.282445e-14 -1.786227e-08 7.987970e-15))
0.197989      	((1.329677e-07 -2.421603e-11 4.234650e-08) (2.288920e-07 -3.934201e-14 -2.396553e-11)) ((-7.567501e-16 1.659324e-11 -1.728703e-16) (1.263929e-14 -1.560500e-08 1.427808e-14))
0.249587      	((1.021274e-07 1.307848e-11 3.402917e-08) (1.994023e-07 -6.952285e-14 -2.254419e-11)) ((-5.351628e-16 1.184612e-11 7.531494e-17) (1.055745e-14 -1.366647e-08 1.746588e-14))
0.311504      	((1.000214e-07 -3.852649e-12 3.155527e-08) (1.748863e-07 -7.672440e-14 -2.214542e-11)) ((-1.361653e-15 1.307815e-11 1.205585e-16) (1.232197e-14 -1.204788e-08 1.733021e-14))
0.385805      	((8.008523e-08 2.297447e-12 2.668053e-08) (1.546312e-07 -5.907763e-14 -2.310318e-11)) ((-3.562432e-16 9.725190e-12 1.782186e-16) (1.149046e-14 -1.070914e-08 1.759320e-14))
0.474966      	((7.803989e-08 -2.820954e-12 2.455927e-08) (1.378772e-07 -6.577636e-14 -2.209558e-11)) ((-1.366699e-15 1.057189e-11 9.132187e-17) (1.039980e-14 -9.603601e-09 2.399069e-14))
0.581959      	((6.476323e-08 -5.561607e-13 2.151960e-08) (1.237745e-07 -1.109845e-13 -2.179224e-11)) ((-2.457881e-16 8.149494e-12 -1.401601e-16) (-8.032459e-16 -8.672258e-09 1.882557e-14))
0.710351      	((6.292876e-08 2.015611e-12 1.974897e-08) (1.116613e-07 -6.211012e-14 -2.393140e-11)) ((-1.897116e-15 8.778538e-12 -2.218810e-16) (-6.106773e-15 -7.875057e-09 4.858290e-16))
0.864421      	((5.349860e-08 -3.155913e-12 1.770995e-08) (1.010115e-07 -2.228186e-14 -2.242194e-11)) ((-9.712795e-16 7.074716e-12 -2.857417e-16) (-6.971370e-15 -7.174760e-09 -1.500790e-15))
1.049306      	((5.153560e-08 -6.302017e-13 1.614813e-08) (9.152747e-08 4.153346e-14 -2.203348e-11)) ((-2.355409e-15 7.559637e-12 -2.454849e-16) (1.728604e-14 -6.554159e-09 1.081279e-14))
1.271167      	((4.427806e-08 -3.379570e-12 1.456101e-08) (8.296729e-08 -4.284260e-14 -2.123102e-11)) ((-1.600944e-15 6.378613e-12 -9.894902e-16) (4.120123e-14 -5.994653e-09 2.660674e-14))
1.5374        	((4.211674e-08 -3.823003e-12 1.321418e-08) (7.524170e-08 -1.405132e-13 -1.707834e-11)) ((-2.891301e-15 6.637793e-12 -1.407534e-15) (6.285468e-14 -5.490245e-09 3.814828e-14))
1.85688       	((3.646777e-08 -4.012407e-12 1.193665e-08) (6.825970e-08 -2.886136e-13 -1.388794e-11)) ((-2.785473e-15 5.758062e-12 -1.348790e-15) (8.718926e-14 -5.035211e-09 3.836630e-14))
2.240256      	((3.421159e-08 -2.875281e-12 1.080886e-08) (6.199095e-08 -3.490432e-13 -1.131019e-11)) ((-3.748679e-15 5.842662e-12 -1.207251e-15) (1.251571e-13 -4.626372e-09 2.926362e-14))
2.700307      	((2.998441e-08 -2.603010e-12 9.826369e-09) (5.644070e-08 -2.081806e-13 -1.238490e-11)) ((-3.199313e-15 5.218360e-12 -1.341394e-15) (1.946620e-13 -4.264850e-09 -3.455406e-15))
3.252369      	((2.792886e-08 -5.948145e-12 8.925991e-09) (5.153841e-08 -1.549087e-13 -1.637172e-11)) ((-3.677486e-15 5.234744e-12 -1.310026e-15) (2.663808e-13 -3.945072e-09 -8.110206e-14))
3.914842      	((2.489536e-08 -2.710669e-13 8.159908e-09) (4.723260e-08 1.191389e-13 -1.846321e-11)) ((-2.940875e-15 4.877233e-12 -1.523412e-15) (3.280715e-13 -3.665056e-09 -1.869603e-13))
4.709811      	((2.304861e-08 3.220118e-13 7.444617e-09) (4.344391e-08 2.030521e-13 -1.797878e-11)) ((-2.489502e-15 4.838601e-12 -2.072129e-15) (3.609551e-13 -3.419160e-09 -2.716684e-13))
5.663773      	((2.083968e-08 1.158603e-13 6.844158e-09) (4.008023e-08 -4.550820e-14 -1.512969e-11)) ((-1.532799e-15 4.606407e-12 -2.358528e-15) (3.506717e-13 -3.201358e-09 -3.237554e-13))
6.808528      	((1.922237e-08 -5.365428e-12 6.265254e-09) (3.706193e-08 -5.258618e-13 -1.316204e-11)) ((-2.526224e-15 4.508647e-12 -2.503690e-15) (3.279716e-13 -3.006425e-09 -3.326723e-13))
8.182233      	((1.751652e-08 -5.880680e-12 5.766782e-09) (3.432449e-08 -8.985289e-13 -1.067159e-11)) ((-1.969689e-15 4.356102e-12 -2.312432e-15) (3.196709e-13 -2.830705e-09 -3.217295e-13))
9.83068       	((1.606498e-08 -6.153222e-12 5.291519e-09) (3.181981e-08 -1.140596e-12 -8.462618e-12)) ((-2.458304e-15 4.248301e-12 -2.118507e-15) (3.113676e-13 -2.670842e-09 -3.068249e-13))
11.808816     	((1.469252e-08 -4.188959e-12 4.877094e-09) (2.952200e-08 -1.181372e-12 -1.150804e-11)) ((-1.520668e-15 4.136905e-12 -1.838958e-15) (2.806843e-13 -2.525124e-09 -2.794425e-13))
14.182579     	((1.349349e-08 -3.852439e-12 4.485816e-09) (2.741176e-08 -1.455663e-12 -1.777576e-11)) ((-1.471201e-15 4.030174e-12 -1.586869e-15) (2.321171e-13 -2.392028e-09 -2.397920e-13))
17.031095     	((1.236807e-08 -3.932748e-12 4.122812e-09) (2.547196e-08 -1.832382e-12 -2.362802e-11)) ((-1.108864e-15 3.945167e-12 -1.388577e-15) (1.860051e-13 -2.270731e-09 -1.838449e-13))
20.449314     	((1.136177e-08 -4.705744e-12 3.779591e-09) (2.369264e-08 -2.117200e-12 -2.741141e-11)) ((-1.218560e-15 3.860548e-12 -1.120714e-15) (1.444116e-13 -2.160318e-09 -1.198935e-13))
24.551176     	((1.041990e-08 -3.094370e-12 3.462548e-09) (2.206244e-08 -2.384898e-12 -2.885998e-11)) ((-1.030201e-15 3.798623e-12 -8.705568e-16) (1.062988e-13 -2.059943e-09 -6.506538e-14))
29.473411     	((9.570220e-09 -2.661102e-12 3.174343e-09) (2.057312e-08 -2.422653e-12 -2.995912e-11)) ((-1.088454e-15 3.739049e-12 -7.142795e-16) (8.174349e-14 -1.968824e-09 -2.313126e-14))
35.380094     	((8.784832e-09 -2.852073e-12 2.915375e-09) (1.921340e-08 -2.514995e-12 -2.905918e-11)) ((-1.019772e-15 3.691751e-12 -5.936330e-16) (6.967301e-14 -1.886093e-09 3.462814e-15))
42.468112     	((8.078751e-09 -2.955090e-12 2.682581e-09) (1.797097e-08 -2.505417e-12 -2.804519e-11)) ((-1.079017e-15 3.647304e-12 -4.490560e-16) (6.138631e-14 -1.810840e-09 1.166006e-14))
50.973735     	((7.424604e-09 -3.045695e-12 2.472134e-09) (1.683553e-08 -2.526995e-12 -2.733737e-11)) ((-1.009334e-15 3.610328e-12 -2.995069e-16) (5.923442e-14 -1.742376e-09 1.123941e-14))
61.180482     	((6.831820e-09 -2.677234e-12 2.274208e-09) (1.579847e-08 -2.427690e-12 -2.682459e-11)) ((-9.018829e-16 3.575896e-12 -1.819419e-16) (6.328617e-14 -1.680256e-09 8.513437e-15))
73.428578     	((6.293611e-09 -1.549764e-12 2.099432e-09) (1.485375e-08 -2.073872e-12 -2.748101e-11)) ((-8.975415e-16 3.547993e-12 -1.882316e-16) (7.234431e-14 -1.624064e-09 1.483689e-15))
88.126294     	((5.806314e-09 -1.043678e-12 1.941310e-09) (1.399453e-08 -1.838666e-12 -2.807123e-11)) ((-7.666011e-16 3.523455e-12 -2.223089e-16) (7.813560e-14 -1.573336e-09 -5.782953e-15))
105.763553    	((5.377441e-09 -1.027265e-13 1.801976e-09) (1.321511e-08 -1.625391e-12 -2.829025e-11)) ((-7.213674e-16 3.503370e-12 -2.667983e-16) (8.613531e-14 -1.527680e-09 -5.863841e-15))
126.928263    	((4.989505e-09 2.161047e-13 1.670674e-09) (1.250983e-08 -1.392758e-12 -2.857862e-11)) ((-6.905810e-16 3.485929e-12 -3.162126e-16) (9.228248e-14 -1.486730e-09 -1.013440e-14))
152.325916    	((4.644747e-09 4.228532e-13 1.537050e-09) (1.187283e-08 -1.220310e-12 -2.912445e-11)) ((-6.503795e-16 3.471914e-12 -3.392897e-16) (1.003960e-13 -1.450054e-09 -1.711397e-14))
182.803099    	((4.339252e-09 3.902232e-13 1.417816e-09) (1.129812e-08 -1.051467e-12 -2.998195e-11)) ((-6.252009e-16 3.459703e-12 -3.571783e-16) (1.059462e-13 -1.417275e-09 -2.722893e-14))
219.375719    	((4.069799e-09 7.146784e-13 1.320627e-09) (1.077995e-08 -8.965357e-13 -3.159589e-11)) ((-5.989289e-16 3.449535e-12 -3.648093e-16) (1.082879e-13 -1.387985e-09 -3.708437e-14))
263.262863    	((3.830556e-09 1.103878e-12 1.233502e-09) (1.031331e-08 -8.210166e-13 -3.425889e-11)) ((-5.719660e-16 3.441708e-12 -3.929862e-16) (1.048995e-13 -1.361850e-09 -4.015086e-14))
315.927436    	((3.621371e-09 1.279476e-12 1.154962e-09) (9.894099e-09 -7.674540e-13 -3.773012e-11)) ((-5.342230e-16 3.435329e-12 -3.733983e-16) (1.003403e-13 -1.338582e-09 -3.513539e-14))
379.124923    	((3.439652e-09 1.287503e-12 1.087859e-09) (9.518664e-09 -7.083829e-13 -4.235664e-11)) ((-5.108498e-16 3.429810e-12 -3.510324e-16) (9.493764e-14 -1.317933e-09 -2.369378e-14))
454.961908    	((3.284365e-09 9.201076e-13 1.029828e-09) (9.184247e-09 -6.838729e-13 -4.806577e-11)) ((-4.426000e-16 3.425783e-12 -3.377063e-16) (9.265387e-14 -1.299712e-09 -1.166075e-14))
545.966289    	((3.153585e-09 8.861529e-13 9.797968e-10) (8.888704e-09 -6.595587e-13 -5.448211e-11)) ((-4.448524e-16 3.422527e-12 -3.149070e-16) (9.256051e-14 -1.283761e-09 -1.126224e-15))
655.171547    	((3.044181e-09 9.866697e-13 9.381891e-10) (8.630027e-09 -6.311056e-13 -6.107478e-11)) ((-4.480277e-16 3.419816e-12 -3.254591e-16) (9.147252e-14 -1.269929e-09 6.909668e-15))
786.217856    	((2.954114e-09 9.756415e-13 9.048524e-10) (8.406293e-09 -5.795235e-13 -6.753045e-11)) ((-4.495273e-16 3.417637e-12 -3.250815e-16) (9.016506e-14 -1.258060e-09 1.290278e-14))
943.473427    	((2.880575e-09 9.916073e-13 8.777754e-10) (8.215457e-09 -5.177973e-13 -7.393095e-11)) ((-4.424683e-16 3.415969e-12 -3.290768e-16) (8.887796e-14 -1.247994e-09 1.881828e-14))
1132.180113   	((2.821139e-09 9.244548e-13 8.567156e-10) (8.055201e-09 -4.639861e-13 -8.042057e-11)) ((-4.294939e-16 3.414715e-12 -3.350199e-16) (8.724658e-14 -1.239569e-09 2.546117e-14))
1358.628135   	((2.773509e-09 9.043977e-13 8.399159e-10) (7.922674e-09 -4.114091e-13 -8.693698e-11)) ((-4.255709e-16 3.413697e-12 -3.313637e-16) (8.650872e-14 -1.232611e-09 3.117047e-14))
1630.365763   	((2.736053e-09 9.499374e-13 8.267943e-10) (7.814931e-09 -3.670117e-13 -9.328264e-11)) ((-4.229709e-16 3.412813e-12 -3.264382e-16) (8.624666e-14 -1.226947e-09 3.558932e-14))
1956.450915   	((2.706799e-09 1.000518e-12 8.162125e-10) (7.728823e-09 -3.223691e-13 -9.922358e-11)) ((-4.198554e-16 3.412150e-12 -3.242642e-16) (8.629729e-14 -1.222403e-09 3.855163e-14))
2347.753098   	((2.684105e-09 1.064858e-12 8.079350e-10) (7.661120e-09 -2.856131e-13 -1.045895e-10)) ((-4.189322e-16 3.411636e-12 -3.234094e-16) (8.582297e-14 -1.218806e-09 4.119685e-14))
2817.315718   	((2.666782e-09 1.134079e-12 8.014554e-10) (7.608712e-09 -2.639111e-13 -1.092903e-10)) ((-4.156825e-16 3.411228e-12 -3.223062e-16) (8.512689e-14 -1.215993e-09 4.340814e-14))
3380.790861   	((2.653605e-09 1.204612e-12 7.965859e-10) (7.568708e-09 -2.477987e-13 -1.132805e-10)) ((-4.152078e-16 3.410902e-12 -3.198243e-16) (8.431929e-14 -1.213817e-09 4.481660e-14))
4053.616933   	((2.643589e-09 1.275742e-12 7.929271e-10) (7.538567e-09 -2.335766e-13 -1.165897e-10)) ((-4.158066e-16 3.410641e-12 -3.191650e-16) (8.360656e-14 -1.212149e-09 4.562956e-14))
4835.791736   	((2.636005e-09 1.322375e-12 7.902622e-10) (7.516124e-09 -2.237600e-13 -1.192548e-10)) ((-4.175562e-16 3.410434e-12 -3.189644e-16) (8.300985e-14 -1.210883e-09 4.621488e-14))
5727.313366   	((2.630239e-09 1.349533e-12 7.883450e-10) (7.499575e-09 -2.185417e-13 -1.213495e-10)) ((-4.180735e-16 3.410276e-12 -3.185927e-16) (8.254641e-14 -1.209927e-09 4.673456e-14))
6728.180302   	((2.625870e-09 1.366313e-12 7.869181e-10) (7.487476e-09 -2.150419e-13 -1.229639e-10)) ((-4.193491e-16 3.410155e-12 -3.181370e-16) (8.217583e-14 -1.209211e-09 4.706676e-14))
7821.622572   	((2.622558e-09 1.371696e-12 7.858981e-10) (7.478691e-09 -2.129639e-13 -1.241858e-10)) ((-4.202651e-16 3.410072e-12 -3.175420e-16) (8.191848e-14 -1.208675e-09 4.731377e-14))
8915.057466   	((2.620067e-09 1.374337e-12 7.851754e-10) (7.472359e-09 -2.117625e-13 -1.250883e-10)) ((-4.202380e-16 3.410059e-12 -3.171765e-16) (8.170694e-14 -1.208277e-09 4.747995e-14))
10008.487832  	((2.618203e-09 1.376469e-12 7.846400e-10) (7.467809e-09 -2.116047e-13 -1.257476e-10)) ((-4.205938e-16 3.410055e-12 -3.166509e-16) (8.153593e-14 -1.207981e-09 4.756639e-14))
11101.915662  	((2.616789e-09 1.378101e-12 7.842625e-10) (7.464547e-09 -2.117340e-13 -1.262254e-10)) ((-4.208008e-16 3.410055e-12 -3.163547e-16) (8.139616e-14 -1.207760e-09 4.763773e-14))
12195.342084  	((2.615707e-09 1.380817e-12 7.839847e-10) (7.462208e-09 -2.120179e-13 -1.265691e-10)) ((-4.211048e-16 3.410056e-12 -3.160835e-16) (8.127408e-14 -1.207595e-09 4.768078e-14))
13288.767765  	((2.614880e-09 1.381203e-12 7.837974e-10) (7.460534e-09 -2.124109e-13 -1.268123e-10)) ((-4.212612e-16 3.410058e-12 -3.160463e-16) (8.117917e-14 -1.207472e-09 4.769857e-14))
14382.193114  	((2.614245e-09 1.375540e-12 7.836730e-10) (7.459333e-09 -2.126828e-13 -1.269842e-10)) ((-4.214002e-16 3.410060e-12 -3.158810e-16) (8.110969e-14 -1.207379e-09 4.771003e-14))
15475.618398  	((2.613754e-09 1.386771e-12 7.835677e-10) (7.458474e-09 -2.129538e-13 -1.271057e-10)) ((-4.212122e-16 3.410061e-12 -3.158499e-16) (8.105250e-14 -1.207309e-09 4.771822e-14))
16569.043764  	((2.613374e-09 1.395383e-12 7.835020e-10) (7.457857e-09 -2.129990e-13 -1.271913e-10)) ((-4.211766e-16 3.410063e-12 -3.158320e-16) (8.100756e-14 -1.207255e-09 4.773169e-14))
17662.46928   	((2.613080e-09 1.419999e-12 7.834725e-10) (7.457415e-09 -2.124807e-13 -1.272516e-10)) ((-4.215434e-16 3.410065e-12 -3.156949e-16) (8.097494e-14 -1.207215e-09 4.774313e-14))
18755.894974  	((2.612851e-09 1.437033e-12 7.834562e-10) (7.457097e-09 -2.119849e-13 -1.272941e-10)) ((-4.215969e-16 3.410066e-12 -3.156654e-16) (8.094349e-14 -1.207184e-09 4.775698e-14))
19849.320847  	((2.612674e-09 1.445064e-12 7.834842e-10) (7.456868e-09 -2.115100e-13 -1.273239e-10)) ((-4.215107e-16 3.410067e-12 -3.155898e-16) (8.092336e-14 -1.207160e-09 4.777112e-14))
20942.746889  	((2.612533e-09 1.460295e-12 7.834545e-10) (7.456704e-09 -2.111346e-13 -1.273450e-10)) ((-4.213628e-16 3.410068e-12 -3.156193e-16) (8.090237e-14 -1.207141e-09 4.777755e-14))
22036.173085  	((2.612424e-09 1.461925e-12 7.834908e-10) (7.456585e-09 -2.108455e-13 -1.273599e-10)) ((-4.213864e-16 3.410069e-12 -3.155761e-16) (8.089032e-14 -1.207127e-09 4.778230e-14))
23129.599414  	((2.612338e-09 1.462150e-12 7.834933e-10) (7.456500e-09 -2.106607e-13 -1.273705e-10)) ((-4.213730e-16 3.410070e-12 -3.155869e-16) (8.087945e-14 -1.207116e-09 4.778581e-14))
24223.025858  	((2.612271e-09 1.462360e-12 7.834980e-10) (7.456439e-09 -2.105918e-13 -1.273780e-10)) ((-4.213672e-16 3.410070e-12 -3.155883e-16) (8.087044e-14 -1.207108e-09 4.778893e-14))
25316.4524    	((2.612219e-09 1.447813e-12 7.834959e-10) (7.456395e-09 -2.108257e-13 -1.273836e-10)) ((-4.214576e-16 3.410071e-12 -3.157570e-16) (8.086986e-14 -1.207101e-09 4.779735e-14))
26409.879023  	((2.612179e-09 1.435974e-12 7.834951e-10) (7.456363e-09 -2.111668e-13 -1.273876e-10)) ((-4.214683e-16 3.410071e-12 -3.157702e-16) (8.086746e-14 -1.207096e-09 4.780234e-14))
27503.305713  	((2.612144e-09 1.426739e-12 7.834978e-10) (7.456341e-09 -2.114558e-13 -1.273903e-10)) ((-4.215078e-16 3.410071e-12 -3.157716e-16) (8.086915e-14 -1.207092e-09 4.780485e-14))
28596.732459  	((2.612117e-09 1.420389e-12 7.835011e-10) (7.456325e-09 -2.116872e-13 -1.273923e-10)) ((-4.215647e-16 3.410071e-12 -3.157726e-16) (8.086959e-14 -1.207089e-09 4.780623e-14))
29690.159251  	((2.612096e-09 1.416023e-12 7.835040e-10) (7.456313e-09 -2.118470e-13 -1.273937e-10)) ((-4.216179e-16 3.410072e-12 -3.157764e-16) (8.086945e-14 -1.207086e-09 4.780748e-14))
30783.58608   	((2.612080e-09 1.412731e-12 7.835077e-10) (7.456305e-09 -2.119610e-13 -1.273947e-10)) ((-4.216648e-16 3.410072e-12 -3.157806e-16) (8.086913e-14 -1.207084e-09 4.780876e-14))
31877.012939  	((2.612067e-09 1.410530e-12 7.835104e-10) (7.456299e-09 -2.120402e-13 -1.273955e-10)) ((-4.217060e-16 3.410072e-12 -3.157847e-16) (8.086884e-14 -1.207083e-09 4.781004e-14))
32970.439822  	((2.612057e-09 1.408892e-12 7.835132e-10) (7.456294e-09 -2.120984e-13 -1.273961e-10)) ((-4.217393e-16 3.410072e-12 -3.157882e-16) (8.086834e-14 -1.207081e-09 4.781126e-14))
34063.866724  	((2.612049e-09 1.407696e-12 7.835155e-10) (7.456291e-09 -2.121409e-13 -1.273965e-10)) ((-4.217658e-16 3.410072e-12 -3.157910e-16) (8.086775e-14 -1.207080e-09 4.781241e-14))
35157.293642  	((2.612043e-09 1.406881e-12 7.835175e-10) (7.456289e-09 -2.121566e-13 -1.273968e-10)) ((-4.217887e-16 3.410072e-12 -3.157936e-16) (8.086796e-14 -1.207080e-09 4.781369e-14))
36250.720573  	((2.612039e-09 1.405954e-12 7.835193e-10) (7.456287e-09 -2.121881e-13 -1.273971e-10)) ((-4.218125e-16 3.410072e-12 -3.157891e-16) (8.086677e-14 -1.207079e-09 4.781493e-14))
37344.147513  	((2.612036e-09 1.404940e-12 7.835205e-10) (7.456286e-09 -2.122883e-13 -1.273973e-10)) ((-4.218477e-16 3.410072e-12 -3.157899e-16) (8.086088e-14 -1.207079e-09 4.781593e-14))
38437.574461  	((2.612033e-09 1.403890e-12 7.835216e-10) (7.456285e-09 -2.123652e-13 -1.273974e-10)) ((-4.218682e-16 3.410072e-12 -3.157934e-16) (8.085852e-14 -1.207078e-09 4.781577e-14))
39531.001415  	((2.612031e-09 1.403200e-12 7.835223e-10) (7.456285e-09 -2.124025e-13 -1.273976e-10)) ((-4.218863e-16 3.410072e-12 -3.157962e-16) (8.085761e-14 -1.207078e-09 4.781594e-14))
40624.428374  	((2.612029e-09 1.403142e-12 7.835230e-10) (7.456285e-09 -2.124129e-13 -1.273977e-10)) ((-4.218948e-16 3.410072e-12 -3.157945e-16) (8.085825e-14 -1.207078e-09 4.781609e-14))
41717.855338  	((2.612028e-09 1.403156e-12 7.835236e-10) (7.456284e-09 -2.124192e-13 -1.273978e-10)) ((-4.219023e-16 3.410072e-12 -3.157936e-16) (8.085746e-14 -1.207077e-09 4.781630e-14))
42811.282304  	((2.612026e-09 1.403372e-12 7.835241e-10) (7.456284e-09 -2.124407e-13 -1.273978e-10)) ((-4.219122e-16 3.410072e-12 -3.157889e-16) (8.085653e-14 -1.207077e-09 4.781653e-14))
43904.709273  	((2.612025e-09 1.403538e-12 7.835244e-10) (7.456284e-09 -2.124152e-13 -1.273978e-10)) ((-4.219133e-16 3.410072e-12 -3.157981e-16) (8.085711e-14 -1.207077e-09 4.781728e-14))
44998.136244  	((2.612024e-09 1.403915e-12 7.835251e-10) (7.456284e-09 -2.123836e-13 -1.273978e-10)) ((-4.218804e-16 3.410072e-12 -3.158024e-16) (8.085824e-14 -1.207077e-09 4.781814e-14))
46091.563216  	((2.612024e-09 1.403790e-12 7.835253e-10) (7.456284e-09 -2.122932e-13 -1.273978e-10)) ((-4.218600e-16 3.410072e-12 -3.158190e-16) (8.086069e-14 -1.207077e-09 4.781955e-14))
47184.990191  	((2.612024e-09 1.403670e-12 7.835257e-10) (7.456284e-09 -2.122753e-13 -1.273978e-10)) ((-4.218452e-16 3.410072e-12 -3.158155e-16) (8.086046e-14 -1.207077e-09 4.782065e-14))
