# Forces      
# CofR        : (0.000000e+00 0.000000e+00 0.000000e+00)
# Time        forces(pressure viscous)	moments(pressure viscous)
0             	((0.000000e+00 0.000000e+00 0.000000e+00) (0.000000e+00 0.000000e+00 0.000000e+00)) ((0.000000e+00 0.000000e+00 0.000000e+00) (0.000000e+00 0.000000e+00 0.000000e+00))
0.012         	((-4.479591e-05 1.828775e-09 -1.525256e-05) (-1.050331e-04 3.430397e-13 -1.508600e-08)) ((-6.931263e-13 6.902969e-09 -5.570982e-13) (-1.150249e-13 6.989661e-06 -5.593877e-14))
0.0264        	((-6.176544e-05 3.557591e-08 -1.999407e-05) (-9.622562e-05 -1.897148e-13 -2.346789e-08)) ((-4.138525e-13 -3.329707e-09 -1.653408e-13) (-4.525284e-13 6.410606e-06 5.389015e-13))
0.04368       	((-4.111471e-05 -2.129630e-08 -1.376679e-05) (-8.718334e-05 -2.564526e-11 -4.209441e-08)) ((-8.570432e-13 -2.283641e-09 -4.682436e-13) (-1.214211e-12 5.818323e-06 1.418297e-12))
0.064416      	((-4.707719e-05 2.597891e-08 -1.545385e-05) (-7.814392e-05 -3.854970e-11 -7.444156e-08)) ((-4.166108e-13 -4.577702e-09 4.642689e-14) (-2.154807e-12 5.228784e-06 2.014926e-12))
0.0892992     	((-3.451007e-05 -1.200335e-08 -1.175133e-05) (-6.940190e-05 -4.731822e-11 -1.216316e-07)) ((-4.776974e-13 -3.173352e-09 -2.754417e-13) (-4.176620e-12 4.661530e-06 1.591244e-12))
0.119159      	((-3.562081e-05 1.304786e-08 -1.185956e-05) (-6.126076e-05 -4.120286e-11 -1.793140e-07)) ((-4.014975e-13 -3.893988e-09 2.249751e-13) (-5.424959e-12 4.136572e-06 1.220196e-12))
0.154991      	((-2.714384e-05 -5.970878e-09 -9.599019e-06) (-5.396754e-05 -3.852706e-11 -2.476414e-07)) ((-2.240768e-13 -2.698061e-09 6.718596e-14) (-6.321200e-12 3.665770e-06 7.316245e-13))
0.197989      	((-2.694200e-05 4.684056e-09 -9.253548e-06) (-4.758691e-05 -3.676720e-11 -3.310158e-07)) ((-8.401804e-14 -3.153353e-09 -5.165764e-14) (-6.501075e-12 3.252840e-06 3.693771e-13))
0.249587      	((-2.151314e-05 -2.895075e-09 -7.886717e-06) (-4.207325e-05 -3.933987e-11 -4.230934e-07)) ((-1.207726e-13 -2.369681e-09 -1.116504e-13) (-6.334090e-12 2.892797e-06 5.778155e-13))
0.311504      	((-2.077999e-05 1.711339e-09 -7.511048e-06) (-3.731361e-05 -4.094925e-11 -5.041298e-07)) ((6.690359e-14 -2.674622e-09 -4.606263e-14) (-5.883987e-12 2.579828e-06 1.041725e-12))
0.385805      	((-1.727749e-05 -1.667511e-10 -6.659650e-06) (-3.318568e-05 -1.057408e-11 -5.884678e-07)) ((-1.420216e-14 -2.184401e-09 -6.623078e-14) (-5.002155e-12 2.307363e-06 2.158928e-13))
0.474966      	((-1.632202e-05 1.811302e-09 -6.336223e-06) (-2.959699e-05 4.753876e-11 -6.543496e-07)) ((1.192072e-13 -2.300994e-09 1.230959e-14) (-3.394839e-12 2.069782e-06 -1.528702e-12))
0.581959      	((-1.395960e-05 9.124403e-10 -5.797452e-06) (-2.647589e-05 7.374963e-11 -7.212566e-07)) ((1.901295e-13 -2.001492e-09 4.774683e-15) (8.962663e-13 1.863033e-06 -1.997195e-12))
0.710351      	((-1.309138e-05 2.108728e-09 -5.519593e-06) (-2.375696e-05 1.177064e-10 -7.795655e-07)) ((3.275198e-13 -2.034428e-09 5.318405e-14) (4.356114e-12 1.683363e-06 -3.738539e-12))
0.864421      	((-1.141915e-05 1.576156e-09 -5.224439e-06) (-2.137519e-05 1.316292e-10 -8.395924e-07)) ((3.907346e-13 -1.848757e-09 2.558853e-14) (4.587259e-12 1.526488e-06 -5.531946e-12))
1.049306      	((-1.066054e-05 9.775339e-10 -5.064646e-06) (-1.927453e-05 1.328854e-10 -8.908347e-07)) ((4.100695e-13 -1.860849e-09 2.397124e-13) (5.093803e-12 1.388721e-06 -4.426143e-12))
1.271167      	((-9.400068e-06 1.179459e-09 -4.891250e-06) (-1.740459e-05 1.371763e-10 -9.378822e-07)) ((5.448932e-13 -1.737296e-09 3.315452e-13) (3.296643e-12 1.266649e-06 -2.960162e-12))
1.5374        	((-8.734153e-06 1.013654e-09 -4.794653e-06) (-1.573860e-05 1.744432e-10 -9.756099e-07)) ((6.297173e-13 -1.730385e-09 4.184120e-13) (2.649292e-12 1.158463e-06 -2.222565e-12))
1.85688       	((-7.787839e-06 1.736018e-09 -4.704717e-06) (-1.426302e-05 2.950731e-10 -1.011664e-06)) ((7.084157e-13 -1.639190e-09 4.679061e-13) (3.184171e-14 1.062993e-06 -6.892326e-13))
2.240256      	((-7.246731e-06 8.162195e-10 -4.714085e-06) (-1.296590e-05 3.393960e-10 -1.044017e-06)) ((7.150501e-13 -1.627594e-09 3.815074e-13) (-4.833030e-12 9.796685e-07 2.713765e-12))
2.700307      	((-6.554921e-06 6.312413e-10 -4.735363e-06) (-1.183487e-05 3.260313e-10 -1.082531e-06)) ((7.449971e-13 -1.574729e-09 3.106097e-13) (-6.480487e-12 9.073498e-07 9.904303e-12))
3.252369      	((-6.157889e-06 7.966312e-10 -4.810028e-06) (-1.085436e-05 4.152038e-10 -1.123498e-06)) ((7.953811e-13 -1.571410e-09 1.375661e-13) (1.835862e-12 8.448745e-07 1.996989e-11))
3.914842      	((-5.690425e-06 -5.462771e-10 -4.901160e-06) (-9.996758e-06 5.307699e-10 -1.168127e-06)) ((8.106079e-13 -1.546914e-09 1.585174e-13) (8.714053e-12 7.905298e-07 2.654791e-11))
4.709811      	((-5.422609e-06 -3.881060e-10 -5.070547e-06) (-9.241512e-06 5.490182e-10 -1.215052e-06)) ((7.015742e-13 -1.551176e-09 2.486562e-13) (1.514776e-11 7.428106e-07 2.944197e-11))
5.663773      	((-5.136866e-06 -1.088206e-09 -5.245477e-06) (-8.567644e-06 6.195709e-10 -1.270612e-06)) ((5.150795e-13 -1.544480e-09 3.503580e-13) (1.884329e-11 7.005216e-07 2.847842e-11))
6.808528      	((-4.951609e-06 -2.596087e-10 -5.482608e-06) (-7.961769e-06 6.337509e-10 -1.334656e-06)) ((1.632727e-13 -1.553115e-09 4.250165e-13) (1.681661e-11 6.629419e-07 2.621671e-11))
8.182233      	((-4.763801e-06 3.514100e-10 -5.693592e-06) (-7.416419e-06 7.483824e-10 -1.405677e-06)) ((2.947662e-14 -1.553642e-09 5.107613e-13) (9.193950e-12 6.295204e-07 2.643151e-11))
9.83068       	((-4.651225e-06 9.817480e-10 -5.951780e-06) (-6.924508e-06 6.297261e-10 -1.484877e-06)) ((-5.695450e-14 -1.563822e-09 5.477998e-13) (2.611892e-13 5.997335e-07 2.689324e-11))
11.808816     	((-4.575516e-06 1.435235e-09 -6.232092e-06) (-6.482412e-06 4.699918e-10 -1.573881e-06)) ((-9.559224e-14 -1.572851e-09 5.682010e-13) (-1.022634e-11 5.732147e-07 2.765367e-11))
14.182579     	((-4.576036e-06 2.262320e-09 -6.542436e-06) (-6.088303e-06 3.997540e-10 -1.673582e-06)) ((-1.273996e-13 -1.587297e-09 4.677895e-13) (-2.019102e-11 5.497471e-07 3.107512e-11))
17.031095     	((-4.599321e-06 8.985319e-10 -6.864921e-06) (-5.743590e-06 3.381870e-10 -1.782626e-06)) ((-7.205524e-14 -1.600569e-09 3.465692e-13) (-3.167476e-11 5.292351e-07 3.179118e-11))
20.449314     	((-4.683833e-06 4.336004e-10 -7.220022e-06) (-5.451228e-06 4.387198e-10 -1.898741e-06)) ((-6.869683e-14 -1.618264e-09 2.676740e-13) (-3.586668e-11 5.117053e-07 2.935964e-11))
24.440834     	((-4.787725e-06 -4.658081e-10 -7.585091e-06) (-5.215856e-06 3.890221e-10 -2.018507e-06)) ((-1.352018e-13 -1.635719e-09 1.802914e-13) (-3.776833e-11 4.972239e-07 2.726588e-11))
29.004388     	((-4.927660e-06 -7.450836e-10 -7.941246e-06) (-5.037296e-06 2.302725e-10 -2.135807e-06)) ((-1.951102e-13 -1.651566e-09 1.491030e-13) (-4.176850e-11 4.855622e-07 2.296551e-11))
34.139208     	((-5.080880e-06 -1.123910e-09 -8.263113e-06) (-4.911527e-06 1.622889e-11 -2.243396e-06)) ((-2.146954e-13 -1.663718e-09 1.458793e-13) (-4.764489e-11 4.764194e-07 2.262840e-11))
39.844992     	((-5.268332e-06 -1.074191e-09 -8.544789e-06) (-4.831818e-06 -2.141662e-10 -2.334591e-06)) ((-1.902714e-13 -1.674768e-09 1.390038e-13) (-5.482576e-11 4.694921e-07 2.607864e-11))
45.553101     	((-5.440181e-06 -1.269036e-09 -8.764858e-06) (-4.790529e-06 -3.597988e-10 -2.400443e-06)) ((-1.571828e-13 -1.686191e-09 1.450314e-13) (-6.144865e-11 4.647053e-07 3.130604e-11))
51.263437     	((-5.599178e-06 -1.406483e-09 -8.924776e-06) (-4.773241e-06 -4.906607e-10 -2.442001e-06)) ((-1.227796e-13 -1.696699e-09 1.535516e-13) (-6.605319e-11 4.615890e-07 3.639074e-11))
56.979476     	((-5.721527e-06 -1.394838e-09 -9.042242e-06) (-4.769174e-06 -5.661477e-10 -2.465059e-06)) ((-7.894309e-14 -1.705220e-09 1.618642e-13) (-6.837134e-11 4.596950e-07 3.873418e-11))
62.703909     	((-5.817253e-06 -1.515559e-09 -9.131401e-06) (-4.770673e-06 -5.954055e-10 -2.476397e-06)) ((-6.544839e-14 -1.712298e-09 1.745683e-13) (-6.929560e-11 4.585710e-07 3.906040e-11))
68.438445     	((-5.884625e-06 -1.537325e-09 -9.194153e-06) (-4.773751e-06 -6.041449e-10 -2.480685e-06)) ((9.990952e-15 -1.717229e-09 1.799644e-13) (-6.864560e-11 4.579363e-07 3.824291e-11))
74.184154     	((-5.928822e-06 -1.432643e-09 -9.236382e-06) (-4.776333e-06 -5.783562e-10 -2.481819e-06)) ((1.040724e-13 -1.720597e-09 1.711169e-13) (-6.596475e-11 4.575756e-07 3.659156e-11))
79.940904     	((-5.956566e-06 -1.380623e-09 -9.267670e-06) (-4.777991e-06 -5.356079e-10 -2.481967e-06)) ((1.606133e-13 -1.722552e-09 1.622560e-13) (-6.388946e-11 4.573629e-07 3.426322e-11))
85.687029     	((-5.975517e-06 -1.189574e-09 -9.293740e-06) (-4.779030e-06 -4.926943e-10 -2.482246e-06)) ((2.018663e-13 -1.724043e-09 1.554618e-13) (-6.226014e-11 4.572254e-07 3.221016e-11))
91.40842      	((-5.990920e-06 -1.146359e-09 -9.316157e-06) (-4.779974e-06 -4.621973e-10 -2.482513e-06)) ((2.093475e-13 -1.726223e-09 1.538029e-13) (-6.163652e-11 4.571558e-07 3.031634e-11))
97.112304     	((-6.000590e-06 -8.669110e-10 -9.333767e-06) (-4.781146e-06 -4.214761e-10 -2.482345e-06)) ((1.667655e-13 -1.728107e-09 1.545819e-13) (-6.242008e-11 4.571530e-07 2.819191e-11))
102.804526    	((-6.005463e-06 -8.951210e-10 -9.339136e-06) (-4.782522e-06 -3.925026e-10 -2.482244e-06)) ((1.274578e-13 -1.729131e-09 1.596583e-13) (-6.426115e-11 4.571703e-07 2.651505e-11))
108.489261    	((-6.007163e-06 -8.004945e-10 -9.340731e-06) (-4.783938e-06 -3.762845e-10 -2.482223e-06)) ((1.002055e-13 -1.729632e-09 1.634404e-13) (-6.584753e-11 4.571907e-07 2.589384e-11))
114.169106    	((-6.006565e-06 -6.757151e-10 -9.341090e-06) (-4.785290e-06 -3.591597e-10 -2.482305e-06)) ((8.468788e-14 -1.729745e-09 1.624335e-13) (-6.601826e-11 4.572083e-07 2.625330e-11))
119.84541     	((-6.004869e-06 -6.840104e-10 -9.339044e-06) (-4.786517e-06 -3.512853e-10 -2.482544e-06)) ((8.013425e-14 -1.729644e-09 1.623412e-13) (-6.576098e-11 4.572209e-07 2.717363e-11))
125.518785    	((-6.003044e-06 -3.990307e-10 -9.337985e-06) (-4.787658e-06 -3.233905e-10 -2.482931e-06)) ((6.957578e-14 -1.729410e-09 1.620281e-13) (-6.462720e-11 4.572308e-07 2.805486e-11))
131.189447    	((-6.001092e-06 -6.236646e-10 -9.337445e-06) (-4.788780e-06 -3.029291e-10 -2.483446e-06)) ((6.896533e-14 -1.729128e-09 1.619237e-13) (-6.402016e-11 4.572397e-07 2.850525e-11))
136.857465    	((-5.997677e-06 -3.928521e-10 -9.336918e-06) (-4.789879e-06 -2.751611e-10 -2.484015e-06)) ((5.403180e-14 -1.728812e-09 1.630319e-13) (-6.353836e-11 4.572455e-07 2.853362e-11))
142.52294     	((-5.992563e-06 -4.891586e-10 -9.338840e-06) (-4.790899e-06 -2.506522e-10 -2.484532e-06)) ((4.226640e-14 -1.728487e-09 1.653881e-13) (-6.340675e-11 4.572447e-07 2.830425e-11))
148.186059    	((-5.985173e-06 -3.566694e-10 -9.346228e-06) (-4.791760e-06 -2.297298e-10 -2.484886e-06)) ((2.835449e-14 -1.728144e-09 1.681810e-13) (-6.358307e-11 4.572330e-07 2.801933e-11))
153.847069    	((-5.974771e-06 -2.261548e-10 -9.353334e-06) (-4.792337e-06 -2.100947e-10 -2.485002e-06)) ((1.568793e-14 -1.727739e-09 1.723949e-13) (-6.379434e-11 4.572050e-07 2.775164e-11))
159.506263    	((-5.961969e-06 -9.073677e-11 -9.359879e-06) (-4.792527e-06 -1.903120e-10 -2.484792e-06)) ((1.742992e-15 -1.727307e-09 1.768539e-13) (-6.384206e-11 4.571567e-07 2.750080e-11))
165.16392     	((-5.947854e-06 -1.413270e-10 -9.365466e-06) (-4.792263e-06 -1.805357e-10 -2.484265e-06)) ((-4.334985e-15 -1.726895e-09 1.811897e-13) (-6.424257e-11 4.570868e-07 2.728548e-11))
170.82026     	((-5.932691e-06 -1.137604e-10 -9.371186e-06) (-4.791553e-06 -1.725430e-10 -2.483517e-06)) ((-9.340130e-15 -1.726487e-09 1.830616e-13) (-6.473716e-11 4.569990e-07 2.731383e-11))
176.475421    	((-5.915635e-06 -3.585729e-11 -9.378684e-06) (-4.790400e-06 -1.445225e-10 -2.482633e-06)) ((-9.106068e-15 -1.725969e-09 1.831206e-13) (-6.506795e-11 4.568928e-07 2.775533e-11))
182.129452    	((-5.898310e-06 -6.073664e-10 -9.385640e-06) (-4.788836e-06 -1.524979e-10 -2.481661e-06)) ((9.170136e-15 -1.725457e-09 1.792478e-13) (-6.642957e-11 4.567685e-07 2.838840e-11))
187.782346    	((-5.881965e-06 -2.603401e-10 -9.389820e-06) (-4.786943e-06 -1.534532e-10 -2.480706e-06)) ((1.309640e-14 -1.725010e-09 1.762215e-13) (-6.719842e-11 4.566325e-07 2.925386e-11))
193.434064    	((-5.866868e-06 -2.564691e-10 -9.391184e-06) (-4.784866e-06 -1.510680e-10 -2.479854e-06)) ((2.619345e-14 -1.724531e-09 1.722279e-13) (-6.725362e-11 4.564903e-07 3.023890e-11))
199.084537    	((-5.855936e-06 -6.453779e-10 -9.395414e-06) (-4.782855e-06 -1.712211e-10 -2.479272e-06)) ((5.016140e-14 -1.724195e-09 1.678955e-13) (-6.800144e-11 4.563527e-07 3.126402e-11))
204.733691    	((-5.848955e-06 -8.559865e-10 -9.401535e-06) (-4.781141e-06 -1.971609e-10 -2.479141e-06)) ((7.274057e-14 -1.724052e-09 1.630590e-13) (-6.883711e-11 4.562338e-07 3.234431e-11))
210.381466    	((-5.845848e-06 -9.737609e-10 -9.404905e-06) (-4.779978e-06 -2.224716e-10 -2.479525e-06)) ((9.370206e-14 -1.723997e-09 1.593183e-13) (-6.937059e-11 4.561442e-07 3.348624e-11))
216.027831    	((-5.846662e-06 -8.937981e-10 -9.407485e-06) (-4.779569e-06 -2.355476e-10 -2.480373e-06)) ((1.141229e-13 -1.724011e-09 1.548130e-13) (-6.926525e-11 4.560894e-07 3.462077e-11))
221.672769    	((-5.849943e-06 -8.780090e-10 -9.410686e-06) (-4.779988e-06 -2.382331e-10 -2.481493e-06)) ((1.370220e-13 -1.724097e-09 1.514229e-13) (-6.865928e-11 4.560702e-07 3.556638e-11))
227.316245    	((-5.854458e-06 -9.606691e-10 -9.415482e-06) (-4.781190e-06 -2.381312e-10 -2.482675e-06)) ((1.553413e-13 -1.724236e-09 1.498150e-13) (-6.797990e-11 4.560836e-07 3.618996e-11))
232.958181    	((-5.859151e-06 -9.897979e-10 -9.421826e-06) (-4.783023e-06 -2.362577e-10 -2.483764e-06)) ((1.679539e-13 -1.724396e-09 1.481867e-13) (-6.739566e-11 4.561236e-07 3.648086e-11))
238.598497    	((-5.863375e-06 -9.624339e-10 -9.427356e-06) (-4.785272e-06 -2.313755e-10 -2.484691e-06)) ((1.738709e-13 -1.724524e-09 1.475193e-13) (-6.693773e-11 4.561827e-07 3.655308e-11))
