# Forces      
# CofR        : (0.000000e+00 0.000000e+00 0.000000e+00)
# Time        forces(pressure viscous)	moments(pressure viscous)
0             	((0.000000e+00 0.000000e+00 0.000000e+00) (0.000000e+00 0.000000e+00 0.000000e+00)) ((0.000000e+00 0.000000e+00 0.000000e+00) (0.000000e+00 0.000000e+00 0.000000e+00))
0.012         	((5.365269e-05 -2.207979e-09 1.687465e-05) (1.322319e-04 -6.967788e-13 3.137419e-09)) ((8.913387e-13 -8.798584e-09 6.943913e-13) (8.119405e-14 -8.799789e-06 1.498494e-13))
0.0264        	((7.966029e-05 -4.470176e-08 2.659114e-05) (1.211484e-04 -1.023678e-11 -2.014675e-08)) ((5.434821e-13 4.167574e-09 1.854666e-13) (4.133193e-13 -8.071138e-06 -3.932576e-13))
0.04368       	((5.061206e-05 2.627571e-08 1.596468e-05) (1.097836e-04 2.075693e-11 -6.439978e-08)) ((1.021526e-12 2.749064e-09 5.346545e-13) (1.206934e-12 -7.326935e-06 -1.822058e-12))
0.064416      	((6.009201e-05 -3.314025e-08 1.962248e-05) (9.844862e-05 3.836278e-11 -1.265145e-07)) ((6.594575e-13 5.658236e-09 -8.074061e-14) (3.483258e-13 -6.588125e-06 -3.544582e-12))
0.0892992     	((4.298404e-05 1.569347e-08 1.357751e-05) (8.752549e-05 7.678214e-11 -2.037300e-07)) ((2.356605e-13 3.839754e-09 3.863922e-13) (-8.316295e-14 -5.879967e-06 -4.160804e-12))
0.119159      	((4.524633e-05 -1.643640e-08 1.413855e-05) (7.739863e-05 9.922630e-11 -2.919281e-07)) ((4.693253e-13 4.750208e-09 1.019442e-13) (4.966977e-13 -5.227655e-06 -4.794336e-12))
0.154991      	((3.416686e-05 7.121924e-09 1.065615e-05) (6.836582e-05 1.050499e-10 -3.965035e-07)) ((-2.712024e-13 3.271964e-09 3.639816e-13) (2.234083e-12 -4.645878e-06 -5.098947e-12))
0.197989      	((3.427695e-05 -6.481974e-09 1.013640e-05) (6.049144e-05 9.628465e-11 -5.239132e-07)) ((2.853702e-13 3.875600e-09 2.440225e-14) (1.166169e-12 -4.137218e-06 -4.115326e-12))
0.249587      	((2.741294e-05 2.055286e-09 8.048226e-06) (5.367083e-05 6.561345e-11 -6.654096e-07)) ((7.202054e-14 2.949173e-09 5.418334e-14) (-1.872230e-12 -3.692288e-06 -2.658375e-12))
0.311504      	((2.654717e-05 -1.813661e-09 7.188527e-06) (4.771241e-05 5.348966e-11 -7.910398e-07)) ((3.197055e-14 3.307666e-09 8.647744e-14) (-3.943075e-12 -3.300374e-06 -2.411509e-12))
0.385805      	((2.214772e-05 -1.721336e-09 5.821145e-06) (4.247284e-05 5.765627e-11 -9.242032e-07)) ((3.064617e-14 2.769362e-09 6.876112e-15) (-4.725910e-12 -2.954502e-06 -2.585909e-12))
0.474966      	((2.091205e-05 -8.708992e-10 4.936662e-06) (3.787089e-05 4.411082e-11 -1.035797e-06)) ((-2.522606e-13 2.854328e-09 -5.640574e-14) (-3.151779e-12 -2.650180e-06 -1.425683e-12))
0.581959      	((1.796573e-05 -2.417635e-09 3.948461e-06) (3.384936e-05 -1.572309e-11 -1.142281e-06)) ((-2.663995e-13 2.546929e-09 -2.415983e-13) (-3.817574e-12 -2.384058e-06 -2.011338e-12))
0.710351      	((1.681363e-05 -3.539873e-11 3.173733e-06) (3.034520e-05 -3.725325e-11 -1.234238e-06)) ((-6.115139e-13 2.539887e-09 -2.566168e-14) (-4.316995e-12 -2.152459e-06 -3.340532e-12))
0.864421      	((1.471010e-05 -1.018841e-09 2.335198e-06) (2.727818e-05 -5.072838e-11 -1.319350e-06)) ((-4.787840e-13 2.356917e-09 -3.125183e-13) (-5.637911e-12 -1.950443e-06 -5.574135e-12))
1.049306      	((1.371733e-05 3.934566e-10 1.594407e-06) (2.457340e-05 -2.659384e-10 -1.390322e-06)) ((-7.077868e-13 2.336631e-09 -3.863683e-13) (-9.469737e-12 -1.773372e-06 -6.582309e-12))
1.271167      	((1.212901e-05 1.409863e-09 8.685257e-07) (2.217119e-05 -1.814020e-10 -1.458197e-06)) ((-3.102524e-13 2.208719e-09 -6.740064e-13) (-8.102670e-12 -1.617165e-06 -6.826773e-12))
1.5374        	((1.125156e-05 3.504602e-09 2.021115e-07) (2.003764e-05 -1.584466e-11 -1.521078e-06)) ((-1.069104e-13 2.167304e-09 -6.746589e-13) (-3.834192e-12 -1.479389e-06 -1.180476e-11))
1.85688       	((1.008581e-05 1.338110e-09 -4.638717e-07) (1.815503e-05 1.336865e-11 -1.581316e-06)) ((-2.426235e-13 2.078879e-09 -4.588809e-13) (2.068547e-12 -1.358341e-06 -1.890541e-11))
2.240256      	((9.436627e-06 -1.268051e-09 -1.087563e-06) (1.650986e-05 -1.545049e-10 -1.639694e-06)) ((-1.752433e-13 2.059026e-09 -4.657317e-13) (1.036101e-11 -1.253184e-06 -2.902024e-11))
2.700307      	((8.614957e-06 -4.500067e-09 -1.689818e-06) (1.507973e-05 -3.704201e-10 -1.703721e-06)) ((-1.488897e-13 2.009159e-09 -4.970546e-13) (1.847213e-11 -1.162437e-06 -4.196533e-11))
3.252369      	((8.157464e-06 -7.682997e-09 -2.266180e-06) (1.384262e-05 -5.840944e-10 -1.774404e-06)) ((-2.282444e-13 2.000544e-09 -3.740164e-13) (1.822523e-11 -1.084178e-06 -5.116803e-11))
3.914842      	((7.631787e-06 -4.691277e-09 -2.834876e-06) (1.276513e-05 -4.811192e-10 -1.854465e-06)) ((-1.698852e-13 1.980393e-09 -2.188099e-13) (1.097690e-11 -1.016238e-06 -5.515680e-11))
4.709811      	((7.375737e-06 -5.861042e-09 -3.437678e-06) (1.181655e-05 -2.378386e-10 -1.945612e-06)) ((-1.947475e-13 1.987313e-09 3.223647e-14) (2.779689e-12 -9.567726e-07 -5.003955e-11))
5.663773      	((7.054452e-06 -6.540298e-09 -4.049212e-06) (1.097357e-05 -6.377740e-11 -2.049166e-06)) ((-4.670992e-14 1.987041e-09 -6.206519e-14) (-2.466425e-12 -9.042903e-07 -4.336252e-11))
6.808528      	((6.909754e-06 -8.242095e-09 -4.661943e-06) (1.022072e-05 -2.785000e-10 -2.164125e-06)) ((1.826924e-13 1.998853e-09 -1.897128e-13) (-3.964131e-12 -8.578967e-07 -3.200226e-11))
8.182233      	((6.725289e-06 -8.342790e-09 -5.253714e-06) (9.546729e-06 -5.600190e-10 -2.289562e-06)) ((2.542293e-13 2.004027e-09 -2.361873e-13) (1.722542e-12 -8.168389e-07 -1.292714e-11))
9.83068       	((6.694978e-06 -9.612862e-09 -5.855812e-06) (8.945020e-06 -5.443468e-10 -2.424838e-06)) ((2.380321e-13 2.017606e-09 -3.085361e-13) (1.233485e-11 -7.805627e-07 5.501347e-12))
11.808816     	((6.694918e-06 -7.258585e-09 -6.469242e-06) (8.411190e-06 -5.857442e-10 -2.575041e-06)) ((2.054728e-13 2.030604e-09 -1.406907e-13) (1.884759e-11 -7.486225e-07 1.518767e-11))
14.182579     	((6.803054e-06 -7.206235e-09 -7.084094e-06) (7.944582e-06 -5.950028e-10 -2.737974e-06)) ((1.322117e-13 2.052261e-09 -4.549770e-14) (1.096804e-11 -7.207703e-07 1.591543e-11))
17.0145       	((6.942367e-06 -5.877364e-09 -7.687393e-06) (7.550304e-06 -1.075232e-09 -2.910814e-06)) ((7.053803e-14 2.075910e-09 4.800971e-15) (-1.198102e-12 -6.969094e-07 1.245767e-11))
20.303225     	((7.159656e-06 -5.095966e-09 -8.229477e-06) (7.236664e-06 -1.458513e-09 -3.087260e-06)) ((-7.222218e-16 2.103869e-09 1.043687e-14) (-1.158984e-11 -6.771323e-07 8.836722e-12))
24.047753     	((7.407215e-06 -4.342504e-09 -8.697146e-06) (7.000516e-06 -1.636767e-09 -3.259592e-06)) ((2.113307e-14 2.129014e-09 -6.042476e-14) (-2.870008e-11 -6.611914e-07 6.710570e-12))
28.247494     	((7.693594e-06 -3.971569e-09 -9.119661e-06) (6.838118e-06 -1.834766e-09 -3.416804e-06)) ((-3.031134e-14 2.150448e-09 -7.072581e-14) (-4.977513e-11 -6.487589e-07 3.417468e-12))
32.797187     	((7.980954e-06 -4.108559e-09 -9.496353e-06) (6.741331e-06 -2.076456e-09 -3.548326e-06)) ((-3.456066e-14 2.168733e-09 -7.755295e-14) (-7.092626e-11 -6.395099e-07 -1.700891e-12))
37.347134     	((8.243854e-06 -4.276405e-09 -9.812555e-06) (6.694186e-06 -2.274171e-09 -3.642636e-06)) ((-4.830958e-14 2.187032e-09 -9.464955e-14) (-8.751281e-11 -6.331188e-07 -9.239724e-12))
41.89857      	((8.464364e-06 -3.798558e-09 -1.005329e-05) (6.676502e-06 -2.513609e-09 -3.701441e-06)) ((-1.729031e-14 2.204085e-09 -8.746067e-14) (-1.004252e-10 -6.289003e-07 -1.898492e-11))
46.452781     	((8.652229e-06 -3.553811e-09 -1.023842e-05) (6.674599e-06 -2.713627e-09 -3.731809e-06)) ((9.701383e-15 2.221430e-09 -8.560798e-14) (-1.086167e-10 -6.263292e-07 -2.998511e-11))
51.012077     	((8.794704e-06 -3.001399e-09 -1.037462e-05) (6.678788e-06 -2.798184e-09 -3.744206e-06)) ((8.407889e-15 2.237293e-09 -9.227655e-14) (-1.100217e-10 -6.248751e-07 -4.231361e-11))
55.577772     	((8.888598e-06 -3.181204e-09 -1.047969e-05) (6.683245e-06 -2.889308e-09 -3.747502e-06)) ((7.454723e-15 2.249793e-09 -8.683147e-14) (-1.082062e-10 -6.240661e-07 -5.492870e-11))
60.150174     	((8.950070e-06 -3.421327e-09 -1.055922e-05) (6.686061e-06 -2.975252e-09 -3.747301e-06)) ((9.011656e-15 2.259119e-09 -8.401209e-14) (-1.031565e-10 -6.236091e-07 -6.701336e-11))
64.698116     	((8.984171e-06 -4.062590e-09 -1.062145e-05) (6.687143e-06 -3.054841e-09 -3.746026e-06)) ((9.118247e-15 2.265166e-09 -8.897157e-14) (-9.776956e-11 -6.233666e-07 -7.612048e-11))
69.218073     	((9.007354e-06 -4.276646e-09 -1.066972e-05) (6.687351e-06 -3.087958e-09 -3.744642e-06)) ((-1.497255e-15 2.268495e-09 -8.437130e-14) (-9.290116e-11 -6.232593e-07 -8.175136e-11))
73.71699      	((9.023884e-06 -4.579909e-09 -1.070895e-05) (6.687681e-06 -3.084175e-09 -3.743151e-06)) ((1.115659e-14 2.271392e-09 -8.681936e-14) (-8.901488e-11 -6.232464e-07 -8.531743e-11))
78.201688     	((9.036903e-06 -4.457667e-09 -1.074488e-05) (6.688760e-06 -3.078416e-09 -3.741251e-06)) ((1.366532e-14 2.273455e-09 -8.725596e-14) (-8.582619e-11 -6.233145e-07 -8.727452e-11))
82.677674     	((9.043666e-06 -4.585671e-09 -1.077436e-05) (6.690527e-06 -3.084815e-09 -3.739153e-06)) ((2.275698e-14 2.274448e-09 -8.887058e-14) (-8.417651e-11 -6.234240e-07 -8.801367e-11))
87.148702     	((9.043088e-06 -4.548249e-09 -1.079978e-05) (6.692574e-06 -3.120729e-09 -3.737273e-06)) ((2.491367e-14 2.274841e-09 -9.362044e-14) (-8.301612e-11 -6.235212e-07 -8.837934e-11))
91.616995     	((9.034308e-06 -4.564300e-09 -1.082377e-05) (6.694419e-06 -3.177468e-09 -3.735606e-06)) ((3.099437e-14 2.274650e-09 -1.003490e-13) (-8.214731e-11 -6.235728e-07 -8.887766e-11))
96.083477     	((9.021582e-06 -4.564009e-09 -1.084397e-05) (6.695756e-06 -3.224094e-09 -3.733832e-06)) ((4.577093e-14 2.274008e-09 -1.130330e-13) (-8.139069e-11 -6.235811e-07 -8.954483e-11))
100.548239    	((9.006660e-06 -4.825387e-09 -1.086438e-05) (6.696471e-06 -3.260809e-09 -3.731834e-06)) ((6.000483e-14 2.273180e-09 -1.231369e-13) (-8.087753e-11 -6.235541e-07 -9.010018e-11))
105.011015    	((8.990420e-06 -5.221095e-09 -1.088560e-05) (6.696564e-06 -3.305824e-09 -3.729562e-06)) ((7.522838e-14 2.272309e-09 -1.304815e-13) (-8.123110e-11 -6.234957e-07 -9.052779e-11))
109.47153     	((8.971642e-06 -4.778642e-09 -1.090794e-05) (6.695976e-06 -3.321976e-09 -3.727133e-06)) ((7.555504e-14 2.271402e-09 -1.348582e-13) (-8.084222e-11 -6.234062e-07 -9.105220e-11))
113.929642    	((8.951480e-06 -4.837579e-09 -1.093017e-05) (6.694717e-06 -3.331571e-09 -3.724727e-06)) ((9.123978e-14 2.270460e-09 -1.428642e-13) (-8.054897e-11 -6.232907e-07 -9.162513e-11))
118.385369    	((8.930813e-06 -4.513010e-09 -1.095223e-05) (6.692908e-06 -3.327280e-09 -3.722422e-06)) ((1.010673e-13 2.269528e-09 -1.509632e-13) (-7.996034e-11 -6.231550e-07 -9.224486e-11))
122.838826    	((8.912572e-06 -5.278724e-09 -1.097019e-05) (6.690776e-06 -3.357045e-09 -3.720365e-06)) ((1.181495e-13 2.268628e-09 -1.592205e-13) (-8.066884e-11 -6.230053e-07 -9.312996e-11))
127.290199    	((8.902003e-06 -5.155094e-09 -1.098610e-05) (6.688785e-06 -3.390802e-09 -3.718815e-06)) ((1.149582e-13 2.268033e-09 -1.643841e-13) (-8.117725e-11 -6.228632e-07 -9.429798e-11))
131.739694    	((8.894797e-06 -4.380270e-09 -1.100205e-05) (6.687241e-06 -3.373620e-09 -3.717887e-06)) ((1.058988e-13 2.267665e-09 -1.687575e-13) (-7.931901e-11 -6.227472e-07 -9.540688e-11))
136.187458    	((8.887454e-06 -4.306995e-09 -1.101730e-05) (6.686165e-06 -3.347455e-09 -3.717519e-06)) ((1.065203e-13 2.267248e-09 -1.721448e-13) (-7.704190e-11 -6.226567e-07 -9.621465e-11))
140.633602    	((8.883107e-06 -4.287564e-09 -1.103212e-05) (6.685643e-06 -3.330961e-09 -3.717470e-06)) ((1.038993e-13 2.266823e-09 -1.737091e-13) (-7.535442e-11 -6.225895e-07 -9.640473e-11))
145.078219    	((8.880135e-06 -4.214319e-09 -1.104635e-05) (6.685727e-06 -3.305736e-09 -3.717635e-06)) ((9.998216e-14 2.266541e-09 -1.759164e-13) (-7.381937e-11 -6.225489e-07 -9.588019e-11))
149.521391    	((8.877409e-06 -4.384876e-09 -1.106010e-05) (6.686339e-06 -3.286114e-09 -3.717971e-06)) ((1.065420e-13 2.266321e-09 -1.816099e-13) (-7.343075e-11 -6.225325e-07 -9.491105e-11))
153.963187    	((8.874796e-06 -4.437743e-09 -1.107432e-05) (6.687413e-06 -3.267154e-09 -3.718406e-06)) ((1.087037e-13 2.266151e-09 -1.860219e-13) (-7.408826e-11 -6.225374e-07 -9.403981e-11))
158.403631    	((8.872398e-06 -4.469259e-09 -1.108825e-05) (6.688862e-06 -3.254360e-09 -3.718907e-06)) ((1.085827e-13 2.266009e-09 -1.880823e-13) (-7.531604e-11 -6.225599e-07 -9.370814e-11))
162.842677    	((8.870524e-06 -4.712174e-09 -1.110027e-05) (6.690646e-06 -3.260608e-09 -3.719438e-06)) ((1.125428e-13 2.265888e-09 -1.899852e-13) (-7.716500e-11 -6.225965e-07 -9.406220e-11))
167.28024     	((8.869435e-06 -4.769670e-09 -1.111044e-05) (6.692711e-06 -3.279312e-09 -3.719984e-06)) ((1.077692e-13 2.265797e-09 -1.877297e-13) (-7.877304e-11 -6.226439e-07 -9.502417e-11))
171.716244    	((8.870033e-06 -4.863091e-09 -1.111846e-05) (6.695048e-06 -3.304584e-09 -3.720548e-06)) ((1.058247e-13 2.265742e-09 -1.855517e-13) (-7.981365e-11 -6.227026e-07 -9.630769e-11))
176.150678    	((8.871341e-06 -5.004251e-09 -1.112489e-05) (6.697611e-06 -3.325136e-09 -3.721120e-06)) ((1.082279e-13 2.265699e-09 -1.854977e-13) (-8.052857e-11 -6.227728e-07 -9.755207e-11))
180.583625    	((8.873329e-06 -5.171933e-09 -1.112954e-05) (6.700345e-06 -3.342124e-09 -3.721684e-06)) ((1.131379e-13 2.265647e-09 -1.868847e-13) (-8.103058e-11 -6.228538e-07 -9.855815e-11))
185.015227    	((8.875474e-06 -5.329867e-09 -1.113335e-05) (6.703181e-06 -3.358338e-09 -3.722204e-06)) ((1.195538e-13 2.265584e-09 -1.875129e-13) (-8.141711e-11 -6.229428e-07 -9.933970e-11))
189.445622    	((8.876804e-06 -5.333312e-09 -1.113797e-05) (6.706017e-06 -3.367416e-09 -3.722645e-06)) ((1.251105e-13 2.265497e-09 -1.896021e-13) (-8.143895e-11 -6.230356e-07 -9.995639e-11))
