# Forces      
# CofR        : (0.000000e+00 0.000000e+00 0.000000e+00)
# Time        forces(pressure viscous)	moments(pressure viscous)
0             	((0.000000e+00 0.000000e+00 0.000000e+00) (-1.899386e-15 5.025260e-06 4.206512e-16)) ((0.000000e+00 0.000000e+00 0.000000e+00) (1.129123e-07 -1.653455e-17 -2.404518e-12))
0.012         	((-1.670206e-09 1.461359e-03 3.648959e-04) (-1.015906e-11 5.767150e-06 -1.481165e-09)) ((-1.723558e-08 1.242785e-09 -2.755042e-10) (1.664132e-07 8.702835e-15 -5.007424e-12))
0.0264        	((-2.016488e-08 -1.003915e-04 -2.297346e-05) (-2.999876e-11 5.885128e-06 -2.039137e-09)) ((1.204853e-09 -7.780820e-11 1.822628e-11) (1.863391e-07 3.151211e-13 -6.617913e-12))
0.04368       	((2.934062e-08 -3.061331e-04 -3.320385e-05) (-1.298454e-11 5.230889e-06 -1.596326e-09)) ((3.984076e-09 -1.137062e-10 7.409402e-11) (1.660095e-07 -6.555866e-13 -5.640318e-12))
0.064416      	((-8.600204e-09 -2.877536e-06 -1.186982e-05) (1.125148e-10 4.633596e-06 -9.662506e-10)) ((-1.955298e-11 -4.009606e-11 -3.365913e-12) (1.490131e-07 -1.130146e-12 -6.578338e-12))
0.0892992     	((2.616020e-09 4.168176e-06 -7.097153e-06) (1.652302e-10 4.278147e-06 -9.277019e-10)) ((-1.644453e-10 -2.437778e-11 -4.296422e-12) (1.408569e-07 -4.600114e-13 -6.996602e-12))
0.119159      	((5.905085e-10 -4.557437e-06 -4.323385e-06) (1.344232e-10 3.950566e-06 -1.052726e-09)) ((8.613091e-11 -1.427158e-11 7.923672e-13) (1.317912e-07 -3.922670e-13 -6.111241e-12))
0.154991      	((-1.576696e-09 -2.466489e-06 -2.683887e-06) (9.671489e-11 3.602957e-06 -9.471104e-10)) ((5.241350e-11 -8.998847e-12 6.159818e-14) (1.216935e-07 -3.317603e-13 -5.299739e-12))
0.197989      	((1.182244e-09 -5.995028e-07 -1.640070e-06) (4.848888e-11 3.251799e-06 -9.764484e-10)) ((1.832850e-11 -5.418085e-12 7.645378e-14) (1.114107e-07 -3.074616e-13 -2.829438e-12))
0.249587      	((8.000904e-10 7.827613e-08 -9.993722e-07) (2.211422e-11 2.907003e-06 -1.071314e-09)) ((4.755037e-12 -3.228909e-12 -3.166544e-13) (1.011213e-07 -5.213575e-13 -1.025152e-12))
0.311504      	((4.156960e-10 3.883590e-07 -5.853215e-07) (1.313664e-11 2.578837e-06 -1.185448e-09)) ((5.946928e-13 -1.830663e-12 -3.697032e-13) (9.102251e-08 -7.352931e-13 -1.053402e-13))
0.385805      	((2.899056e-10 5.369955e-07 -3.316969e-07) (1.053061e-11 2.275577e-06 -1.289894e-09)) ((-5.949744e-13 -9.302830e-13 -3.210963e-13) (8.136090e-08 -8.752952e-13 8.003233e-13))
0.474966      	((5.583161e-11 6.062394e-07 -1.679850e-07) (1.783778e-12 2.003440e-06 -1.389039e-09)) ((-1.748802e-12 -3.733946e-13 -2.730499e-13) (7.240845e-08 -8.750543e-13 9.869469e-13))
0.581959      	((-2.953581e-11 6.336320e-07 -7.132998e-08) (-7.569048e-12 1.765240e-06 -1.495002e-09)) ((-2.771335e-12 -5.018202e-14 -2.391309e-13) (6.433809e-08 -7.126942e-13 -2.434018e-14))
0.710351      	((-7.412311e-11 6.308544e-07 -1.081185e-08) (1.164197e-12 1.561199e-06 -1.592352e-09)) ((-3.454409e-12 1.547370e-13 -1.944477e-13) (5.724782e-08 -5.308945e-13 -1.420636e-12))
0.864421      	((-6.417901e-11 6.080335e-07 2.215972e-08) (1.561001e-11 1.388724e-06 -1.669067e-09)) ((-3.736447e-12 2.636033e-13 -1.913721e-13) (5.113970e-08 -3.512346e-13 -1.800483e-12))
1.049306      	((-5.630929e-11 5.746219e-07 4.151346e-08) (2.345066e-11 1.243374e-06 -1.729687e-09)) ((-3.683682e-12 3.232082e-13 -1.848040e-13) (4.592179e-08 -2.124569e-13 -1.054313e-12))
1.271167      	((-1.570458e-11 5.375299e-07 4.997038e-08) (2.344290e-11 1.120549e-06 -1.784324e-09)) ((-3.471767e-12 3.498222e-13 -1.705211e-13) (4.145388e-08 -1.017181e-13 -6.632338e-15))
1.5374        	((-7.873891e-13 4.996552e-07 5.332075e-08) (1.724406e-11 1.015361e-06 -1.850166e-09)) ((-3.232086e-12 3.626583e-13 -1.695932e-13) (3.758516e-08 -4.416120e-15 7.595446e-13))
1.85688       	((5.228162e-12 4.627228e-07 5.200476e-08) (8.914519e-12 9.233346e-07 -1.935246e-09)) ((-2.962014e-12 3.563981e-13 -1.711146e-13) (3.418417e-08 5.432957e-14 1.200022e-12))
2.240256      	((7.895715e-12 4.277077e-07 4.883583e-08) (5.376022e-12 8.415325e-07 -2.035575e-09)) ((-2.720219e-12 3.428004e-13 -1.704906e-13) (3.115567e-08 1.286134e-13 1.248483e-12))
2.700307      	((3.344680e-12 3.950271e-07 4.386914e-08) (8.639357e-12 7.681459e-07 -2.145625e-09)) ((-2.519280e-12 3.228417e-13 -1.684720e-13) (2.843632e-08 2.188562e-13 5.149596e-13))
3.252369      	((2.263623e-12 3.645515e-07 3.867360e-08) (1.028134e-11 7.019862e-07 -2.264327e-09)) ((-2.318351e-12 3.016221e-13 -1.558904e-13) (2.598378e-08 2.926262e-13 -6.597962e-13))
3.914842      	((1.034114e-11 3.359108e-07 3.305887e-08) (7.714117e-12 6.421985e-07 -2.392214e-09)) ((-2.119953e-12 2.790861e-13 -1.418370e-13) (2.376742e-08 3.356053e-13 -1.746693e-12))
4.709811      	((3.874041e-11 3.093349e-07 2.773816e-08) (7.147799e-12 5.881605e-07 -2.535121e-09)) ((-1.938268e-12 2.597044e-13 -1.279591e-13) (2.176392e-08 3.002772e-13 -2.681954e-12))
5.663773      	((6.707472e-11 2.848349e-07 2.254299e-08) (6.492168e-12 5.394134e-07 -2.696012e-09)) ((-1.777745e-12 2.405632e-13 -1.161923e-13) (1.995612e-08 1.392984e-13 -3.272270e-12))
6.808528      	((7.020941e-11 2.623321e-07 1.779558e-08) (6.452532e-12 4.955659e-07 -2.862994e-09)) ((-1.637937e-12 2.216990e-13 -1.026274e-13) (1.833009e-08 -7.364170e-14 -3.481451e-12))
8.182233      	((6.462727e-11 2.417290e-07 1.335963e-08) (5.430126e-12 4.562068e-07 -3.033706e-09)) ((-1.516515e-12 2.021047e-13 -8.884475e-14) (1.687095e-08 -2.485611e-13 -3.368363e-12))
9.83068       	((6.229957e-11 2.230260e-07 9.342205e-09) (2.500068e-12 4.208589e-07 -3.216795e-09)) ((-1.405373e-12 1.860190e-13 -7.708449e-14) (1.556095e-08 -3.352864e-13 -3.105939e-12))
11.808816     	((5.455958e-11 2.059039e-07 5.663902e-09) (7.434809e-13 3.890024e-07 -3.412387e-09)) ((-1.301568e-12 1.729864e-13 -6.728154e-14) (1.438060e-08 -3.833397e-13 -2.723761e-12))
14.182579     	((3.866462e-11 1.902520e-07 2.347316e-09) (-1.124991e-12 3.601624e-07 -3.621831e-09)) ((-1.205919e-12 1.595386e-13 -5.848083e-14) (1.331193e-08 -4.262978e-13 -2.237612e-12))
17.031095     	((3.597703e-11 1.759918e-07 -6.718503e-10) (-3.486458e-12 3.339522e-07 -3.848895e-09)) ((-1.119755e-12 1.469274e-13 -5.100189e-14) (1.234039e-08 -4.666913e-13 -1.791780e-12))
20.449314     	((1.954348e-11 1.630141e-07 -3.482761e-09) (-6.034836e-12 3.100733e-07 -4.095672e-09)) ((-1.042175e-12 1.339709e-13 -4.498209e-14) (1.145495e-08 -4.569993e-13 -1.370520e-12))
24.551176     	((1.318812e-11 1.511240e-07 -5.956728e-09) (-6.041979e-12 2.883018e-07 -4.361082e-09)) ((-9.716992e-13 1.220720e-13 -4.027739e-14) (1.064732e-08 -3.755305e-13 -9.888836e-13))
29.473411     	((7.431597e-12 1.402593e-07 -8.155831e-09) (-5.380269e-12 2.684671e-07 -4.643139e-09)) ((-9.085065e-13 1.106625e-13 -3.616435e-14) (9.911308e-09 -2.730908e-13 -5.735040e-13))
35.380094     	((1.305375e-12 1.303518e-07 -1.008723e-08) (-4.290197e-12 2.504297e-07 -4.939440e-09)) ((-8.519895e-13 1.017424e-13 -3.250843e-14) (9.241941e-09 -2.225317e-13 -9.664949e-14))
42.468112     	((2.292208e-12 1.213956e-07 -1.174396e-08) (-3.521959e-12 2.340533e-07 -5.247047e-09)) ((-8.008436e-13 9.319923e-14 -2.963942e-14) (8.634240e-09 -2.004999e-13 5.341250e-13))
50.973735     	((1.205635e-11 1.133078e-07 -1.318769e-08) (-2.966827e-12 2.191988e-07 -5.559662e-09)) ((-7.544925e-13 8.518324e-14 -2.748022e-14) (8.083114e-09 -1.912621e-13 1.366466e-12))
61.180482     	((2.178128e-11 1.060147e-07 -1.441681e-08) (-2.022864e-12 2.057284e-07 -5.876101e-09)) ((-7.130927e-13 7.894847e-14 -2.564170e-14) (7.583455e-09 -2.198447e-13 2.347951e-12))
73.428578     	((3.232418e-11 9.943376e-08 -1.546411e-08) (-1.485077e-12 1.935066e-07 -6.200338e-09)) ((-6.756950e-13 7.365696e-14 -2.424471e-14) (7.130104e-09 -2.917114e-13 3.421423e-12))
88.126294     	((4.369443e-11 9.354126e-08 -1.634923e-08) (-1.456085e-12 1.824052e-07 -6.532890e-09)) ((-6.434243e-13 6.918715e-14 -2.305293e-14) (6.718298e-09 -3.928919e-13 4.563812e-12))
105.763553    	((4.988962e-11 8.825518e-08 -1.710571e-08) (-2.241090e-12 1.723123e-07 -6.874269e-09)) ((-6.144690e-13 6.525740e-14 -2.210859e-14) (6.343944e-09 -5.103465e-13 5.720859e-12))
126.928263    	((5.429349e-11 8.357686e-08 -1.772050e-08) (-2.947373e-12 1.631388e-07 -7.226883e-09)) ((-5.895933e-13 6.177383e-14 -2.123697e-14) (6.003673e-09 -6.330820e-13 6.808535e-12))
152.325916    	((5.761145e-11 7.946094e-08 -1.822434e-08) (-3.785050e-12 1.548072e-07 -7.590379e-09)) ((-5.688558e-13 5.887511e-14 -2.043213e-14) (5.694763e-09 -7.551456e-13 7.801953e-12))
182.803099    	((6.200421e-11 7.583471e-08 -1.861791e-08) (-4.879267e-12 1.472527e-07 -7.965624e-09)) ((-5.516681e-13 5.629734e-14 -1.981666e-14) (5.414889e-09 -8.674343e-13 8.645498e-12))
219.375719    	((6.805347e-11 7.264865e-08 -1.892010e-08) (-5.727143e-12 1.404175e-07 -8.352898e-09)) ((-5.380151e-13 5.427059e-14 -1.943515e-14) (5.162026e-09 -9.699124e-13 9.340674e-12))
263.262863    	((7.111817e-11 6.987538e-08 -1.913996e-08) (-5.766943e-12 1.342502e-07 -8.752479e-09)) ((-5.273323e-13 5.275595e-14 -1.926232e-14) (4.934315e-09 -1.078700e-12 9.894979e-12))
315.927436    	((7.186483e-11 6.750858e-08 -1.927625e-08) (-5.426896e-12 1.287082e-07 -9.163522e-09)) ((-5.197105e-13 5.133290e-14 -1.924188e-14) (4.730143e-09 -1.192272e-12 1.032810e-11))
379.124923    	((7.356927e-11 6.553088e-08 -1.934301e-08) (-4.918506e-12 1.237516e-07 -9.584954e-09)) ((-5.146782e-13 5.021978e-14 -1.937034e-14) (4.548099e-09 -1.311265e-12 1.064709e-11))
454.961908    	((7.567449e-11 6.391108e-08 -1.935175e-08) (-4.124391e-12 1.193457e-07 -1.001620e-08)) ((-5.119292e-13 4.977955e-14 -1.954809e-14) (4.386863e-09 -1.427276e-12 1.085682e-11))
545.966289    	((7.674137e-11 6.261326e-08 -1.930641e-08) (-3.050646e-12 1.154591e-07 -1.045418e-08)) ((-5.110549e-13 4.993636e-14 -1.978596e-14) (4.245182e-09 -1.540691e-12 1.096655e-11))
655.171547    	((7.743816e-11 6.159269e-08 -1.921316e-08) (-1.597116e-12 1.120583e-07 -1.089407e-08)) ((-5.113910e-13 5.037387e-14 -2.008280e-14) (4.121733e-09 -1.650746e-12 1.097211e-11))
786.217856    	((7.770261e-11 6.080309e-08 -1.907552e-08) (1.883143e-13 1.091085e-07 -1.132894e-08)) ((-5.125071e-13 5.126644e-14 -2.036541e-14) (4.015104e-09 -1.755909e-12 1.087703e-11))
943.473427    	((7.827492e-11 6.019677e-08 -1.890181e-08) (2.286971e-12 1.065721e-07 -1.174965e-08)) ((-5.138560e-13 5.227800e-14 -2.059624e-14) (3.923777e-09 -1.852751e-12 1.068324e-11))
1132.180113   	((7.986821e-11 5.973083e-08 -1.871760e-08) (4.812802e-12 1.044095e-07 -1.214696e-08)) ((-5.149131e-13 5.333289e-14 -2.077114e-14) (3.846167e-09 -1.941043e-12 1.040022e-11))
1358.628135   	((7.910020e-11 5.936747e-08 -1.853332e-08) (7.329014e-12 1.025787e-07 -1.251356e-08)) ((-5.155409e-13 5.432874e-14 -2.084651e-14) (3.780662e-09 -2.011169e-12 1.002666e-11))
1624.5042     	((7.735932e-11 5.908542e-08 -1.837833e-08) (9.750234e-12 1.010409e-07 -1.284450e-08)) ((-5.155569e-13 5.515068e-14 -2.082758e-14) (3.725795e-09 -2.057934e-12 9.581541e-12))
1929.913227   	((7.535363e-11 5.885699e-08 -1.825081e-08) (1.212489e-11 9.975430e-08 -1.313778e-08)) ((-5.149207e-13 5.585629e-14 -2.074799e-14) (3.680064e-09 -2.083575e-12 9.087293e-12))
2274.943705   	((7.256867e-11 5.867023e-08 -1.814157e-08) (1.437023e-11 9.868194e-08 -1.339395e-08)) ((-5.138037e-13 5.655479e-14 -2.067789e-14) (3.642138e-09 -2.092838e-12 8.563203e-12))
2659.671487   	((6.977910e-11 5.851460e-08 -1.803896e-08) (1.646937e-11 9.778947e-08 -1.361555e-08)) ((-5.123398e-13 5.719363e-14 -2.063817e-14) (3.610787e-09 -2.087448e-12 8.026442e-12))
3057.299709   	((6.731143e-11 5.839070e-08 -1.795238e-08) (1.833815e-11 9.704996e-08 -1.380551e-08)) ((-5.107393e-13 5.781864e-14 -2.059561e-14) (3.585032e-09 -2.071460e-12 7.494939e-12))
3455.491822   	((6.444049e-11 5.828748e-08 -1.786186e-08) (1.995421e-11 9.643647e-08 -1.396794e-08)) ((-5.090514e-13 5.841208e-14 -2.054677e-14) (3.563883e-09 -2.044406e-12 6.977833e-12))
3854.171484   	((6.119533e-11 5.820197e-08 -1.777376e-08) (2.130466e-11 9.592776e-08 -1.410652e-08)) ((-5.073680e-13 5.889104e-14 -2.049887e-14) (3.546552e-09 -2.003302e-12 6.479684e-12))
4253.271974   	((5.798347e-11 5.813016e-08 -1.768323e-08) (2.240227e-11 9.550495e-08 -1.422479e-08)) ((-5.057606e-13 5.934824e-14 -2.045774e-14) (3.532331e-09 -1.952052e-12 6.006079e-12))
4652.736255   	((5.500003e-11 5.807036e-08 -1.759380e-08) (2.326513e-11 9.515321e-08 -1.432574e-08)) ((-5.042593e-13 5.977900e-14 -2.042411e-14) (3.520659e-09 -1.893025e-12 5.560463e-12))
5052.514758   	((5.226602e-11 5.802020e-08 -1.750716e-08) (2.390611e-11 9.485987e-08 -1.441205e-08)) ((-5.028869e-13 6.019687e-14 -2.039179e-14) (3.511057e-09 -1.828183e-12 5.143411e-12))
5452.564933   	((4.955600e-11 5.797833e-08 -1.742634e-08) (2.436860e-11 9.461489e-08 -1.448593e-08)) ((-5.016672e-13 6.056845e-14 -2.036638e-14) (3.503146e-09 -1.759093e-12 4.753299e-12))
5852.849904   	((4.693867e-11 5.794301e-08 -1.735127e-08) (2.467322e-11 9.440979e-08 -1.454930e-08)) ((-5.005917e-13 6.090099e-14 -2.034682e-14) (3.496610e-09 -1.686992e-12 4.389816e-12))
6253.337859   	((4.449004e-11 5.791341e-08 -1.728113e-08) (2.486897e-11 9.423781e-08 -1.460373e-08)) ((-4.996569e-13 6.120581e-14 -2.033343e-14) (3.491198e-09 -1.613129e-12 4.052241e-12))
6654.001182   	((4.220058e-11 5.788847e-08 -1.721732e-08) (2.495952e-11 9.409328e-08 -1.465054e-08)) ((-4.988451e-13 6.147473e-14 -2.032210e-14) (3.486705e-09 -1.538690e-12 3.740367e-12))
7054.815947   	((4.001013e-11 5.786749e-08 -1.716028e-08) (2.495442e-11 9.397164e-08 -1.469081e-08)) ((-4.981348e-13 6.170564e-14 -2.031047e-14) (3.482966e-09 -1.464774e-12 3.453097e-12))
7455.761553   	((3.798541e-11 5.784976e-08 -1.710961e-08) (2.487809e-11 9.386907e-08 -1.472551e-08)) ((-4.975169e-13 6.190543e-14 -2.030116e-14) (3.479847e-09 -1.392521e-12 3.190017e-12))
7856.820247   	((3.610083e-11 5.783476e-08 -1.706477e-08) (2.474116e-11 9.378247e-08 -1.475541e-08)) ((-4.969819e-13 6.207919e-14 -2.029375e-14) (3.477238e-09 -1.322682e-12 2.949912e-12))
8257.976696   	((3.433489e-11 5.782195e-08 -1.702401e-08) (2.455644e-11 9.370926e-08 -1.478118e-08)) ((-4.965190e-13 6.223399e-14 -2.028844e-14) (3.475053e-09 -1.255675e-12 2.731358e-12))
8659.21765    	((3.271089e-11 5.781121e-08 -1.698899e-08) (2.433366e-11 9.364729e-08 -1.480340e-08)) ((-4.961214e-13 6.236215e-14 -2.028539e-14) (3.473217e-09 -1.191778e-12 2.533091e-12))
9060.516789   	((3.118399e-11 5.780198e-08 -1.695819e-08) (2.407984e-11 9.359476e-08 -1.482254e-08)) ((-4.957791e-13 6.246933e-14 -2.028372e-14) (3.471674e-09 -1.131096e-12 2.353817e-12))
9461.832757   	((2.979985e-11 5.779418e-08 -1.693104e-08) (2.380337e-11 9.355020e-08 -1.483904e-08)) ((-4.954837e-13 6.256375e-14 -2.028340e-14) (3.470372e-09 -1.073944e-12 2.192260e-12))
9863.162532   	((2.853538e-11 5.778752e-08 -1.690712e-08) (2.351261e-11 9.351234e-08 -1.485327e-08)) ((-4.952289e-13 6.264676e-14 -2.028321e-14) (3.469273e-09 -1.020389e-12 2.046937e-12))
10264.503647  	((2.738383e-11 5.778179e-08 -1.688616e-08) (2.321233e-11 9.348016e-08 -1.486553e-08)) ((-4.950085e-13 6.271788e-14 -2.028364e-14) (3.468343e-09 -9.703257e-13 1.916520e-12))
10665.854084  	((2.632970e-11 5.777694e-08 -1.686771e-08) (2.290856e-11 9.345277e-08 -1.487609e-08)) ((-4.948196e-13 6.277960e-14 -2.028430e-14) (3.467555e-09 -9.237043e-13 1.799600e-12))
11067.212194  	((2.537374e-11 5.777282e-08 -1.685160e-08) (2.260685e-11 9.342945e-08 -1.488519e-08)) ((-4.946568e-13 6.283271e-14 -2.028506e-14) (3.466886e-09 -8.804731e-13 1.694990e-12))
11468.576626  	((2.450661e-11 5.776930e-08 -1.683759e-08) (2.231072e-11 9.340957e-08 -1.489302e-08)) ((-4.945173e-13 6.287782e-14 -2.028612e-14) (3.466318e-09 -8.405681e-13 1.601576e-12))
11869.94627   	((2.371924e-11 5.776626e-08 -1.682530e-08) (2.202328e-11 9.339262e-08 -1.489977e-08)) ((-4.943963e-13 6.291623e-14 -2.028684e-14) (3.465835e-09 -8.038614e-13 1.518269e-12))
12271.320213  	((2.301587e-11 5.776368e-08 -1.681460e-08) (2.174818e-11 9.337816e-08 -1.490557e-08)) ((-4.942930e-13 6.294919e-14 -2.028793e-14) (3.465424e-09 -7.702227e-13 1.444061e-12))
12672.697705  	((2.238473e-11 5.776145e-08 -1.680534e-08) (2.148622e-11 9.336581e-08 -1.491056e-08)) ((-4.942041e-13 6.297735e-14 -2.028946e-14) (3.465073e-09 -7.395219e-13 1.378032e-12))
13074.078128  	((2.181615e-11 5.775955e-08 -1.679720e-08) (2.123957e-11 9.335527e-08 -1.491485e-08)) ((-4.941281e-13 6.300132e-14 -2.029052e-14) (3.464774e-09 -7.115580e-13 1.319352e-12))
13475.460973  	((2.130939e-11 5.775791e-08 -1.679013e-08) (2.100866e-11 9.334626e-08 -1.491854e-08)) ((-4.940624e-13 6.302205e-14 -2.029088e-14) (3.464519e-09 -6.861620e-13 1.267285e-12))
13876.84582   	((2.083350e-11 5.775645e-08 -1.678423e-08) (2.079344e-11 9.333855e-08 -1.492171e-08)) ((-4.940054e-13 6.303733e-14 -2.029328e-14) (3.464301e-09 -6.631347e-13 1.221168e-12))
14278.232323  	((2.043507e-11 5.775529e-08 -1.677883e-08) (2.059311e-11 9.333196e-08 -1.492443e-08)) ((-4.939579e-13 6.305324e-14 -2.029343e-14) (3.464114e-09 -6.423749e-13 1.180368e-12))
