# Forces      
# CofR        : (0.000000e+00 0.000000e+00 0.000000e+00)
# Time        forces(pressure viscous)	moments(pressure viscous)
0             	((0.000000e+00 0.000000e+00 0.000000e+00) (0.000000e+00 0.000000e+00 0.000000e+00)) ((0.000000e+00 0.000000e+00 0.000000e+00) (0.000000e+00 0.000000e+00 0.000000e+00))
0.012         	((1.351023e-04 -5.912223e-09 4.230567e-05) (3.323144e-04 -6.831111e-12 -2.309127e-08)) ((2.310515e-12 -2.288983e-08 1.746806e-12) (2.525081e-13 -2.211570e-05 4.922699e-13))
0.0264        	((2.005984e-04 -1.114761e-07 6.649066e-05) (3.045307e-04 -4.988388e-11 -1.488251e-07)) ((1.647505e-12 9.513231e-09 3.510385e-13) (-7.985910e-14 -2.029023e-05 2.753272e-13))
0.04368       	((1.275895e-04 6.394661e-08 3.945283e-05) (2.763148e-04 -4.809290e-11 -3.922241e-07)) ((2.606824e-12 5.445462e-09 1.236949e-12) (-1.019426e-12 -1.844625e-05 -2.503353e-12))
0.064416      	((1.515807e-04 -8.570402e-08 4.833564e-05) (2.486528e-04 2.549616e-12 -7.423903e-07)) ((1.478365e-12 1.254000e-08 -8.052585e-13) (-4.320793e-12 -1.665002e-05 -3.908894e-12))
0.0892992     	((1.089449e-04 4.328808e-08 3.276385e-05) (2.226331e-04 1.911641e-10 -1.177666e-06)) ((6.657607e-13 7.959563e-09 5.954359e-13) (-4.513310e-12 -1.497366e-05 -2.711702e-12))
0.119159      	((1.150383e-04 -4.668128e-08 3.416290e-05) (1.991962e-04 2.629682e-10 -1.655636e-06)) ((1.497237e-12 1.050561e-08 -1.864439e-13) (-7.117256e-12 -1.347495e-05 -4.538389e-12))
0.154991      	((8.925641e-05 2.402408e-08 2.499172e-05) (1.787954e-04 2.819590e-10 -2.208437e-06)) ((-5.484818e-13 7.589362e-09 -3.762952e-15) (-9.025736e-12 -1.217218e-05 -6.319463e-12))
0.197989      	((8.942457e-05 -1.913033e-08 2.348510e-05) (1.612281e-04 3.652969e-10 -2.858202e-06)) ((1.221525e-12 9.054438e-09 -6.780475e-13) (-1.474859e-11 -1.104707e-05 -9.449913e-12))
0.249587      	((7.424962e-05 1.088516e-08 1.767106e-05) (1.457325e-04 3.444039e-10 -3.674936e-06)) ((1.075192e-12 7.400705e-09 -2.078772e-13) (-2.251963e-11 -1.004052e-05 -1.326126e-11))
0.311504      	((7.201503e-05 -8.844373e-09 1.500262e-05) (1.312873e-04 1.464548e-10 -4.582909e-06)) ((1.019637e-12 8.067258e-09 -3.184744e-13) (-2.457451e-11 -9.090934e-06 -1.108186e-11))
0.385805      	((6.165346e-05 2.054814e-10 1.021954e-05) (1.176158e-04 -8.136516e-11 -5.497572e-06)) ((1.634308e-14 7.225753e-09 -2.017737e-13) (-2.596701e-11 -8.188474e-06 -8.321357e-12))
0.474966      	((5.825131e-05 -4.565919e-09 7.165020e-06) (1.050077e-04 -1.727529e-10 -6.301935e-06)) ((-8.120360e-13 7.294028e-09 -5.267684e-13) (-2.509208e-11 -7.357553e-06 -1.204779e-11))
0.581959      	((5.141644e-05 -2.400581e-09 3.441459e-06) (9.371117e-05 -1.938699e-10 -6.968391e-06)) ((-9.884416e-13 6.834924e-09 -7.111977e-13) (-2.891083e-11 -6.618221e-06 -1.305710e-11))
0.710351      	((4.796901e-05 -5.238784e-10 3.445362e-07) (8.376753e-05 5.480809e-11 -7.536856e-06)) ((-1.055671e-12 6.806754e-09 -9.317851e-13) (-2.656687e-11 -5.973626e-06 -8.312214e-12))
0.864421      	((4.332385e-05 -9.599834e-09 -2.939605e-06) (7.505629e-05 -4.822499e-10 -8.070263e-06)) ((-1.303487e-12 6.589227e-09 1.988611e-13) (-2.169305e-11 -5.414420e-06 -4.523459e-12))
1.049306      	((4.035314e-05 -7.413531e-09 -5.975785e-06) (6.740139e-05 -1.672606e-09 -8.609695e-06)) ((-1.166563e-12 6.494531e-09 6.218157e-13) (-2.972774e-11 -4.927681e-06 -1.491024e-12))
1.271167      	((3.700937e-05 -6.873968e-09 -9.034447e-06) (6.068004e-05 -1.864555e-09 -9.161406e-06)) ((3.278819e-13 6.304377e-09 -1.603158e-12) (-4.279537e-11 -4.504730e-06 7.675000e-12))
1.5374        	((3.468221e-05 -1.299304e-08 -1.197239e-05) (5.481573e-05 -1.882532e-09 -9.725894e-06)) ((-8.116855e-13 6.240920e-09 -1.079844e-12) (-5.032284e-11 -4.140027e-06 -2.223783e-12))
1.85688       	((3.256573e-05 -7.909018e-09 -1.487151e-05) (4.978986e-05 -1.270038e-09 -1.029994e-05)) ((-1.473004e-12 6.214435e-09 -7.053185e-13) (-4.161784e-11 -3.828908e-06 -4.600657e-11))
2.240256      	((3.145245e-05 -5.335767e-09 -1.749783e-05) (4.553214e-05 -1.744947e-09 -1.090731e-05)) ((-4.164840e-13 6.300745e-09 -8.302658e-13) (-6.202933e-11 -3.566269e-06 -8.081883e-11))
2.700307      	((3.081457e-05 -1.410641e-08 -2.016410e-05) (4.193267e-05 -3.429845e-09 -1.154281e-05)) ((1.052229e-13 6.406100e-09 1.506295e-14) (-1.220328e-10 -3.345350e-06 -1.000698e-10))
3.252369      	((3.073956e-05 -2.169286e-08 -2.293287e-05) (3.888700e-05 -2.383168e-09 -1.225129e-05)) ((-6.808248e-13 6.577887e-09 9.898580e-13) (-1.769707e-10 -3.158676e-06 -1.063955e-10))
3.914842      	((3.101957e-05 -2.831919e-08 -2.570644e-05) (3.630314e-05 -1.909404e-09 -1.301887e-05)) ((-1.109677e-12 6.751572e-09 7.773031e-13) (-2.146304e-10 -2.999633e-06 -9.312484e-11))
4.709811      	((3.181975e-05 -3.035745e-08 -2.844628e-05) (3.410521e-05 -2.930673e-09 -1.381184e-05)) ((-1.707440e-12 6.938623e-09 3.925913e-13) (-2.420398e-10 -2.863891e-06 -8.556086e-11))
5.663773      	((3.289727e-05 -2.732758e-08 -3.116694e-05) (3.224687e-05 -2.168021e-09 -1.465604e-05)) ((-1.728979e-12 7.119220e-09 -8.735926e-13) (-2.437427e-10 -2.748433e-06 -6.923549e-11))
6.808528      	((3.420851e-05 -2.900022e-08 -3.380924e-05) (3.071717e-05 -8.271002e-10 -1.551291e-05)) ((-8.297414e-13 7.300131e-09 -9.360675e-13) (-2.226836e-10 -2.650919e-06 -3.941197e-11))
8.145153      	((3.569232e-05 -2.900044e-08 -3.628524e-05) (2.951112e-05 -7.795111e-10 -1.634081e-05)) ((5.714246e-13 7.474610e-09 -1.320413e-12) (-2.085236e-10 -2.570637e-06 -2.135220e-11))
9.672484      	((3.737586e-05 -2.969279e-08 -3.853642e-05) (2.860962e-05 -2.344394e-09 -1.711916e-05)) ((1.226262e-12 7.642059e-09 -1.559197e-12) (-2.291861e-10 -2.505770e-06 -3.975550e-11))
11.389638     	((3.919522e-05 -2.532292e-08 -4.051838e-05) (2.799307e-05 -3.584509e-09 -1.783052e-05)) ((1.407478e-12 7.804292e-09 -1.542140e-12) (-2.716426e-10 -2.454307e-06 -9.624272e-11))
13.282516     	((4.105594e-05 -2.513698e-08 -4.218036e-05) (2.761993e-05 -5.118158e-09 -1.844534e-05)) ((1.613273e-12 7.972211e-09 -1.539450e-12) (-3.266910e-10 -2.414766e-06 -1.687973e-10))
15.17192      	((4.271167e-05 -2.750784e-08 -4.357742e-05) (2.743989e-05 -6.443880e-09 -1.890061e-05)) ((1.634862e-12 8.141859e-09 -1.307416e-12) (-3.893060e-10 -2.386672e-06 -2.306547e-10))
17.059522     	((4.421021e-05 -2.820479e-08 -4.475201e-05) (2.737822e-05 -7.249031e-09 -1.921229e-05)) ((2.054363e-12 8.304089e-09 -1.422839e-12) (-4.350758e-10 -2.367238e-06 -2.786592e-10))
18.947437     	((4.543580e-05 -2.438430e-08 -4.568391e-05) (2.738130e-05 -7.682384e-09 -1.940904e-05)) ((2.471101e-12 8.452893e-09 -1.345461e-12) (-4.414333e-10 -2.354378e-06 -3.231572e-10))
20.836656     	((4.643979e-05 -2.233521e-08 -4.639621e-05) (2.741315e-05 -7.884553e-09 -1.952652e-05)) ((2.681960e-12 8.585172e-09 -1.355301e-12) (-4.227477e-10 -2.346243e-06 -3.651782e-10))
22.706075     	((4.726351e-05 -2.076361e-08 -4.693095e-05) (2.745075e-05 -8.032755e-09 -1.958527e-05)) ((2.782080e-12 8.703767e-09 -1.551736e-12) (-3.900468e-10 -2.341599e-06 -4.046199e-10))
24.553329     	((4.788185e-05 -2.139087e-08 -4.734325e-05) (2.748420e-05 -8.305380e-09 -1.960486e-05)) ((2.878826e-12 8.801620e-09 -1.717633e-12) (-3.665263e-10 -2.339374e-06 -4.341731e-10))
26.380061     	((4.826249e-05 -2.344460e-08 -4.762232e-05) (2.750966e-05 -8.566344e-09 -1.960056e-05)) ((3.056616e-12 8.874669e-09 -1.709365e-12) (-3.519135e-10 -2.338723e-06 -4.501832e-10))
28.190741     	((4.851623e-05 -2.518252e-08 -4.785097e-05) (2.752833e-05 -8.701777e-09 -1.958388e-05)) ((3.168744e-12 8.926104e-09 -1.731723e-12) (-3.417483e-10 -2.338957e-06 -4.546365e-10))
29.990483     	((4.866057e-05 -2.772367e-08 -4.805273e-05) (2.754256e-05 -8.591438e-09 -1.956337e-05)) ((3.138319e-12 8.954725e-09 -1.708207e-12) (-3.368706e-10 -2.339555e-06 -4.510936e-10))
31.783803     	((4.872708e-05 -2.792136e-08 -4.824918e-05) (2.755388e-05 -8.434711e-09 -1.953892e-05)) ((3.019908e-12 8.963541e-09 -1.669771e-12) (-3.343946e-10 -2.340408e-06 -4.446549e-10))
33.573535     	((4.872729e-05 -3.071056e-08 -4.843887e-05) (2.756224e-05 -8.431567e-09 -1.950873e-05)) ((2.955443e-12 8.955358e-09 -1.637094e-12) (-3.364474e-10 -2.341518e-06 -4.424784e-10))
35.361616     	((4.868870e-05 -3.081188e-08 -4.862771e-05) (2.756833e-05 -8.237512e-09 -1.947426e-05)) ((2.900099e-12 8.936358e-09 -1.631739e-12) (-3.348038e-10 -2.342728e-06 -4.484198e-10))
37.149341     	((4.864412e-05 -3.246831e-08 -4.881227e-05) (2.757220e-05 -7.937295e-09 -1.943514e-05)) ((2.937636e-12 8.917904e-09 -1.654205e-12) (-3.266429e-10 -2.343995e-06 -4.585555e-10))
38.937171     	((4.859884e-05 -3.876509e-08 -4.898888e-05) (2.757372e-05 -7.601646e-09 -1.939326e-05)) ((3.074044e-12 8.905819e-09 -1.803440e-12) (-3.223343e-10 -2.345236e-06 -4.663559e-10))
40.724998     	((4.854250e-05 -3.796217e-08 -4.915694e-05) (2.757280e-05 -7.146249e-09 -1.935369e-05)) ((3.106008e-12 8.899796e-09 -1.989530e-12) (-3.078476e-10 -2.346275e-06 -4.721861e-10))
42.51255      	((4.847562e-05 -4.099739e-08 -4.931632e-05) (2.757016e-05 -6.866584e-09 -1.932613e-05)) ((3.217037e-12 8.902218e-09 -2.283951e-12) (-2.920050e-10 -2.346665e-06 -4.774550e-10))
44.299601     	((4.841501e-05 -4.104091e-08 -4.944921e-05) (2.756555e-05 -6.718310e-09 -1.931012e-05)) ((3.165910e-12 8.911616e-09 -2.413296e-12) (-2.809435e-10 -2.346453e-06 -4.748620e-10))
46.086087     	((4.836407e-05 -3.608027e-08 -4.954680e-05) (2.756015e-05 -6.531941e-09 -1.930054e-05)) ((2.906930e-12 8.917842e-09 -2.398498e-12) (-2.624826e-10 -2.346009e-06 -4.693400e-10))
47.872118     	((4.832358e-05 -3.501637e-08 -4.961754e-05) (2.755589e-05 -6.381760e-09 -1.929442e-05)) ((2.924261e-12 8.919471e-09 -2.468746e-12) (-2.478471e-10 -2.345571e-06 -4.630265e-10))
49.657874     	((4.827401e-05 -3.368305e-08 -4.968014e-05) (2.755278e-05 -6.345972e-09 -1.928951e-05)) ((2.944981e-12 8.915295e-09 -2.511169e-12) (-2.380291e-10 -2.345202e-06 -4.594196e-10))
51.443524     	((4.822588e-05 -3.526609e-08 -4.972408e-05) (2.755115e-05 -6.307578e-09 -1.928351e-05)) ((3.046187e-12 8.908461e-09 -2.553478e-12) (-2.323684e-10 -2.344938e-06 -4.608150e-10))
53.229191     	((4.818702e-05 -3.449386e-08 -4.975523e-05) (2.755105e-05 -6.283500e-09 -1.927734e-05)) ((2.992577e-12 8.901761e-09 -2.563195e-12) (-2.260678e-10 -2.344761e-06 -4.661348e-10))
55.014976     	((4.816382e-05 -3.908515e-08 -4.977374e-05) (2.755243e-05 -6.368207e-09 -1.927256e-05)) ((2.968164e-12 8.896541e-09 -2.582271e-12) (-2.275401e-10 -2.344676e-06 -4.724216e-10))
56.800964     	((4.814862e-05 -3.849666e-08 -4.979766e-05) (2.755522e-05 -6.413498e-09 -1.926895e-05)) ((2.775513e-12 8.892068e-09 -2.614948e-12) (-2.271764e-10 -2.344675e-06 -4.775918e-10))
58.587209     	((4.813038e-05 -4.026509e-08 -4.981616e-05) (2.755903e-05 -6.466240e-09 -1.926541e-05)) ((2.606198e-12 8.888379e-09 -2.629035e-12) (-2.281201e-10 -2.344736e-06 -4.810412e-10))
60.373738     	((4.811040e-05 -3.826014e-08 -4.982656e-05) (2.756319e-05 -6.420490e-09 -1.926105e-05)) ((2.352359e-12 8.885421e-09 -2.591118e-12) (-2.262794e-10 -2.344836e-06 -4.820619e-10))
62.160512     	((4.808740e-05 -3.655206e-08 -4.982725e-05) (2.756734e-05 -6.318782e-09 -1.925604e-05)) ((2.150705e-12 8.883465e-09 -2.541995e-12) (-2.235737e-10 -2.344960e-06 -4.820538e-10))
63.947406     	((4.804896e-05 -3.353944e-08 -4.982402e-05) (2.757080e-05 -6.133481e-09 -1.925045e-05)) ((2.016500e-12 8.881698e-09 -2.549718e-12) (-2.202174e-10 -2.345072e-06 -4.822646e-10))
65.734222     	((4.801212e-05 -3.583509e-08 -4.980582e-05) (2.757322e-05 -6.091494e-09 -1.924448e-05)) ((1.899195e-12 8.880736e-09 -2.502106e-12) (-2.229766e-10 -2.345169e-06 -4.838662e-10))
67.520746     	((4.797827e-05 -2.747967e-08 -4.980790e-05) (2.757465e-05 -5.849518e-09 -1.923817e-05)) ((1.710183e-12 8.880384e-09 -2.429138e-12) (-2.056925e-10 -2.345278e-06 -4.865445e-10))
69.306814     	((4.795855e-05 -2.883071e-08 -4.983225e-05) (2.757588e-05 -5.673310e-09 -1.923112e-05)) ((1.810799e-12 8.880161e-09 -2.407784e-12) (-1.931892e-10 -2.345439e-06 -4.856017e-10))
71.092376     	((4.794565e-05 -2.390324e-08 -4.987979e-05) (2.757752e-05 -5.458096e-09 -1.922363e-05)) ((1.748954e-12 8.879225e-09 -2.372186e-12) (-1.775840e-10 -2.345653e-06 -4.824875e-10))
72.877505     	((4.793395e-05 -2.397883e-08 -4.995297e-05) (2.757953e-05 -5.211095e-09 -1.921641e-05)) ((1.777812e-12 8.877425e-09 -2.303916e-12) (-1.663144e-10 -2.345896e-06 -4.785026e-10))
74.66236      	((4.790738e-05 -1.857531e-08 -5.005499e-05) (2.758171e-05 -4.856574e-09 -1.920957e-05)) ((1.632756e-12 8.874779e-09 -2.236904e-12) (-1.525505e-10 -2.346125e-06 -4.747046e-10))
