# Forces      
# CofR        : (0.000000e+00 0.000000e+00 0.000000e+00)
# Time        forces(pressure viscous)	moments(pressure viscous)
0             	((0.000000e+00 0.000000e+00 0.000000e+00) (5.025474e-05 -3.025033e-15 4.886576e-10)) ((0.000000e+00 0.000000e+00 0.000000e+00) (-1.141687e-16 -1.129164e-06 -7.612745e-16))
0.012         	((1.461543e-02 -2.444971e-08 3.720082e-03) (5.765839e-05 -9.017980e-11 -2.705064e-08)) ((-1.142660e-12 2.153528e-07 -2.388486e-12) (-3.592978e-13 -1.664291e-06 1.357175e-12))
0.0264        	((-1.035223e-03 -8.329633e-09 -2.473501e-04) (5.880352e-05 -1.419675e-10 -4.064875e-08)) ((3.374397e-13 -1.530889e-08 2.709625e-12) (2.209144e-12 -1.862847e-06 2.417686e-12))
0.04368       	((-3.044941e-03 -2.719073e-08 -3.700194e-04) (5.223516e-05 -1.592244e-10 -3.708692e-08)) ((3.435608e-12 -4.759473e-08 2.684275e-12) (4.294862e-12 -1.659501e-06 1.342087e-12))
0.064416      	((-2.867918e-05 3.212727e-08 -1.225679e-04) (4.625832e-05 9.882153e-10 -1.839480e-08)) ((-2.302918e-12 -1.449278e-10 2.164421e-13) (1.496743e-12 -1.490213e-06 3.595768e-12))
0.0892992     	((3.826308e-05 -5.444705e-08 -7.348672e-05) (4.270140e-05 1.621041e-09 -1.611032e-08)) ((1.043121e-12 1.644210e-09 1.863463e-13) (-3.832888e-12 -1.408833e-06 4.017234e-13))
0.119159      	((-4.657303e-05 2.829087e-08 -4.682403e-05) (3.942786e-05 1.305947e-09 -2.792877e-08)) ((-1.161437e-12 -1.126828e-09 2.744821e-13) (-3.627662e-12 -1.318547e-06 -1.076650e-11))
0.154991      	((-2.469000e-05 8.590539e-09 -3.075268e-05) (3.596651e-05 1.070207e-09 -3.378433e-08)) ((7.284739e-13 -6.753536e-10 4.874995e-13) (-4.171944e-12 -1.218317e-06 -1.515922e-11))
0.197989      	((-5.927838e-06 7.908660e-09 -2.026535e-05) (3.248581e-05 8.096070e-10 -4.201696e-08)) ((4.938301e-13 -2.453418e-10 -1.975826e-13) (-4.774287e-12 -1.116527e-06 -1.039825e-11))
0.249587      	((8.671364e-07 5.767871e-09 -1.387463e-05) (2.908578e-05 5.335482e-10 -5.255623e-08)) ((-1.590158e-13 -8.937258e-11 -7.145689e-13) (-3.231931e-12 -1.015080e-06 -7.118811e-12))
0.311504      	((3.942005e-06 -7.565759e-11 -9.838944e-06) (2.587149e-05 2.017495e-10 -6.435663e-08)) ((9.208840e-14 -2.850227e-11 -2.159173e-13) (-4.104809e-12 -9.160793e-07 -5.604485e-12))
0.385805      	((5.455817e-06 4.018839e-10 -7.330254e-06) (2.292573e-05 1.314581e-11 -7.667381e-08)) ((1.524139e-13 -5.012795e-12 -7.257103e-14) (-4.121112e-12 -8.219965e-07 -3.794963e-12))
0.474966      	((6.231171e-06 -4.097832e-10 -5.706643e-06) (2.029687e-05 -6.790262e-11 -8.909831e-08)) ((1.373900e-13 1.224908e-11 -6.025514e-14) (-3.420001e-12 -7.351889e-07 -2.846716e-12))
0.581959      	((6.556810e-06 -6.398843e-10 -4.725680e-06) (1.798957e-05 -5.752999e-11 -1.017033e-07)) ((1.279506e-13 2.475921e-11 -3.667118e-16) (-3.318542e-12 -6.566826e-07 -3.985033e-12))
0.710351      	((6.541140e-06 -8.786041e-10 -4.116149e-06) (1.599108e-05 -2.330776e-11 -1.131004e-07)) ((1.171233e-13 3.212638e-11 9.622029e-15) (-3.601002e-12 -5.869667e-07 -4.278282e-12))
0.864421      	((6.308889e-06 -5.026483e-10 -3.778645e-06) (1.427632e-05 -3.763774e-11 -1.224680e-07)) ((6.481276e-14 3.495254e-11 1.490195e-14) (-3.691549e-12 -5.260306e-07 -2.193456e-12))
1.049306      	((5.963164e-06 -3.831520e-10 -3.577620e-06) (1.280767e-05 -5.166240e-11 -1.305780e-07)) ((4.172802e-14 3.473999e-11 1.124962e-14) (-3.518880e-12 -4.730900e-07 -2.315781e-13))
1.271167      	((5.569356e-06 -3.217599e-10 -3.480547e-06) (1.154518e-05 -3.543074e-11 -1.388508e-07)) ((4.303812e-14 3.294480e-11 1.264830e-14) (-3.291440e-12 -4.269939e-07 -8.018053e-14))
1.5374        	((5.157616e-06 -1.841624e-10 -3.436685e-06) (1.044869e-05 -2.518924e-11 -1.484810e-07)) ((2.740641e-14 3.018448e-11 8.115112e-15) (-2.921257e-12 -3.866077e-07 -2.532197e-13))
1.85688       	((4.753007e-06 -2.626726e-10 -3.435649e-06) (9.483681e-06 -2.517959e-11 -1.598792e-07)) ((2.125255e-14 2.693871e-11 4.191531e-15) (-2.727448e-12 -3.509376e-07 -3.029030e-13))
2.240256      	((4.370941e-06 -2.805616e-10 -3.451120e-06) (8.626547e-06 -3.320171e-11 -1.727043e-07)) ((1.468415e-14 2.422426e-11 4.534243e-15) (-2.733152e-12 -3.192218e-07 -6.863429e-13))
2.700307      	((4.016575e-06 -2.316126e-10 -3.480986e-06) (7.860941e-06 -4.038896e-11 -1.865213e-07)) ((1.141687e-14 2.180282e-11 1.717777e-15) (-2.802147e-12 -2.908865e-07 -1.177273e-12))
3.252369      	((3.689810e-06 -3.121218e-10 -3.510019e-06) (7.174512e-06 -4.818459e-11 -2.012914e-07)) ((1.690625e-14 1.954090e-11 1.440994e-15) (-2.957517e-12 -2.654781e-07 -1.497872e-12))
3.914842      	((3.388377e-06 -3.539312e-10 -3.541332e-06) (6.557756e-06 -5.593501e-11 -2.172222e-07)) ((2.435083e-14 1.735001e-11 3.288907e-15) (-3.191907e-12 -2.426416e-07 -1.888254e-12))
4.709811      	((3.113165e-06 -3.843019e-10 -3.567919e-06) (6.003709e-06 -4.658183e-11 -2.342575e-07)) ((3.903411e-14 1.546265e-11 7.521867e-15) (-3.598768e-12 -2.221206e-07 -2.163014e-12))
5.663773      	((2.864998e-06 -4.843550e-10 -3.590936e-06) (5.507049e-06 -5.050989e-11 -2.522450e-07)) ((4.460138e-14 1.399359e-11 1.076123e-14) (-4.509775e-12 -2.037217e-07 -2.199124e-12))
6.808528      	((2.643186e-06 -5.925819e-10 -3.606159e-06) (5.062837e-06 -5.782878e-11 -2.712544e-07)) ((3.971211e-14 1.290871e-11 8.745713e-15) (-5.349306e-12 -1.872631e-07 -2.065386e-12))
8.182233      	((2.446449e-06 -7.791339e-10 -3.614103e-06) (4.665761e-06 -6.924140e-11 -2.913392e-07)) ((4.602432e-14 1.212621e-11 6.028933e-15) (-6.193205e-12 -1.725493e-07 -1.703435e-12))
9.83068       	((2.274262e-06 -8.615596e-10 -3.614487e-06) (4.310375e-06 -9.171886e-11 -3.126063e-07)) ((5.691934e-14 1.160606e-11 3.314699e-15) (-7.333463e-12 -1.593776e-07 -1.547099e-12))
11.808816     	((2.125758e-06 -8.162601e-10 -3.609058e-06) (3.991489e-06 -1.131721e-10 -3.350978e-07)) ((5.932180e-14 1.130973e-11 4.934477e-15) (-8.263442e-12 -1.475544e-07 -2.165604e-12))
14.182579     	((2.000472e-06 -1.003017e-09 -3.598582e-06) (3.704962e-06 -1.468158e-10 -3.586875e-07)) ((6.405639e-14 1.126375e-11 4.843960e-15) (-9.647860e-12 -1.369275e-07 -3.724507e-12))
17.031095     	((1.896373e-06 -9.827821e-10 -3.582773e-06) (3.447626e-06 -1.794202e-10 -3.832370e-07)) ((6.719455e-14 1.145233e-11 2.803648e-15) (-1.120765e-11 -1.273801e-07 -6.037645e-12))
20.449314     	((1.813651e-06 -8.943736e-10 -3.561916e-06) (3.217135e-06 -2.014423e-10 -4.085422e-07)) ((6.677908e-14 1.196298e-11 -2.201320e-15) (-1.242049e-11 -1.188248e-07 -8.646899e-12))
24.551176     	((1.751633e-06 -7.167813e-10 -3.536923e-06) (3.011783e-06 -2.052443e-10 -4.342752e-07)) ((6.167434e-14 1.279600e-11 -5.434772e-15) (-1.309389e-11 -1.111991e-07 -1.065105e-11))
29.473411     	((1.709650e-06 -4.520467e-10 -3.506163e-06) (2.830065e-06 -1.972610e-10 -4.599715e-07)) ((6.029444e-14 1.395361e-11 -8.917434e-15) (-1.306744e-11 -1.044527e-07 -1.192365e-11))
35.380094     	((1.686567e-06 -2.895628e-10 -3.471216e-06) (2.670628e-06 -1.886799e-10 -4.851248e-07)) ((5.882990e-14 1.539604e-11 -1.030080e-14) (-1.236620e-11 -9.854184e-08 -1.345504e-11))
42.468112     	((1.681398e-06 6.054154e-11 -3.431576e-06) (2.532145e-06 -1.722459e-10 -5.092737e-07)) ((4.527751e-14 1.713153e-11 -1.101655e-14) (-1.030629e-11 -9.342550e-08 -1.514276e-11))
50.973735     	((1.692926e-06 5.088367e-10 -3.388859e-06) (2.413412e-06 -1.417127e-10 -5.319766e-07)) ((2.671025e-14 1.921526e-11 -1.246777e-14) (-6.641854e-12 -8.907446e-08 -1.845059e-11))
61.180482     	((1.718338e-06 1.005351e-09 -3.344196e-06) (2.313412e-06 -1.013791e-10 -5.529924e-07)) ((1.385907e-14 2.155832e-11 -1.214145e-14) (-2.427901e-12 -8.545923e-08 -2.225599e-11))
73.428578     	((1.753553e-06 1.488637e-09 -3.297027e-06) (2.230941e-06 -4.232189e-11 -5.723780e-07)) ((-7.582682e-16 2.398514e-11 -1.062179e-14) (2.393516e-12 -8.253182e-08 -2.638526e-11))
88.075514     	((1.794521e-06 2.006611e-09 -3.248289e-06) (2.164708e-06 2.292251e-11 -5.897797e-07)) ((-7.769627e-15 2.632722e-11 -9.942467e-15) (8.077036e-12 -8.022784e-08 -3.089099e-11))
105.105388    	((1.836374e-06 2.544318e-09 -3.198097e-06) (2.113242e-06 1.090177e-10 -6.041585e-07)) ((-1.350322e-14 2.828349e-11 -8.061950e-15) (1.418723e-11 -7.846066e-08 -3.494863e-11))
124.502219    	((1.871693e-06 3.040154e-09 -3.146312e-06) (2.073082e-06 1.974725e-10 -6.146659e-07)) ((-1.950161e-14 2.980687e-11 -9.964640e-15) (1.986813e-11 -7.708504e-08 -3.762744e-11))
146.25629     	((1.896878e-06 3.504628e-09 -3.092737e-06) (2.040820e-06 2.903236e-10 -6.214754e-07)) ((-2.035096e-14 3.093477e-11 -1.117155e-14) (2.517958e-11 -7.596834e-08 -3.906015e-11))
169.826505    	((1.912602e-06 3.907490e-09 -3.040775e-06) (2.014062e-06 4.016298e-10 -6.252354e-07)) ((-2.520942e-14 3.183063e-11 -1.182468e-14) (3.039556e-11 -7.504473e-08 -3.949845e-11))
193.456844    	((1.922538e-06 4.265301e-09 -2.993738e-06) (1.991861e-06 5.207771e-10 -6.271936e-07)) ((-3.091179e-14 3.252761e-11 -1.283274e-14) (3.561007e-11 -7.428705e-08 -3.894544e-11))
217.144212    	((1.927170e-06 4.504121e-09 -2.952231e-06) (1.972830e-06 6.410846e-10 -6.283248e-07)) ((-3.275475e-14 3.302918e-11 -1.316026e-14) (4.033736e-11 -7.364786e-08 -3.781469e-11))
240.863258    	((1.929548e-06 4.614594e-09 -2.914466e-06) (1.956549e-06 7.495859e-10 -6.291028e-07)) ((-3.270655e-14 3.339892e-11 -1.264999e-14) (4.418187e-11 -7.310781e-08 -3.641529e-11))
264.599233    	((1.930605e-06 4.658764e-09 -2.880003e-06) (1.942578e-06 8.420166e-10 -6.297558e-07)) ((-3.110642e-14 3.367614e-11 -1.227720e-14) (4.709185e-11 -7.264685e-08 -3.473983e-11))
288.350141    	((1.930837e-06 4.583878e-09 -2.847649e-06) (1.930570e-06 9.124719e-10 -6.303431e-07)) ((-2.698794e-14 3.390076e-11 -1.225021e-14) (4.884251e-11 -7.225225e-08 -3.283390e-11))
312.116546    	((1.930354e-06 4.437641e-09 -2.817360e-06) (1.920219e-06 9.595762e-10 -6.309042e-07)) ((-2.330053e-14 3.408011e-11 -1.190831e-14) (4.949738e-11 -7.191330e-08 -3.075361e-11))
335.897253    	((1.929574e-06 4.265606e-09 -2.789063e-06) (1.911286e-06 9.861527e-10 -6.314440e-07)) ((-2.062243e-14 3.422906e-11 -1.179677e-14) (4.938839e-11 -7.162181e-08 -2.849989e-11))
359.690325    	((1.928429e-06 4.069125e-09 -2.762361e-06) (1.903547e-06 1.000053e-09 -6.319763e-07)) ((-1.798487e-14 3.435075e-11 -1.147174e-14) (4.866504e-11 -7.136961e-08 -2.612954e-11))
383.494149    	((1.927255e-06 3.869335e-09 -2.737704e-06) (1.896830e-06 1.002660e-09 -6.324927e-07)) ((-1.483770e-14 3.445627e-11 -1.106325e-14) (4.750677e-11 -7.115094e-08 -2.385481e-11))
407.307461    	((1.926057e-06 3.666487e-09 -2.714726e-06) (1.890988e-06 9.970424e-10 -6.329860e-07)) ((-1.138779e-14 3.454738e-11 -1.056659e-14) (4.610710e-11 -7.096096e-08 -2.159873e-11))
431.129151    	((1.924910e-06 3.441134e-09 -2.693685e-06) (1.885899e-06 9.827678e-10 -6.334473e-07)) ((-7.553619e-15 3.462842e-11 -1.023230e-14) (4.443675e-11 -7.079570e-08 -1.938464e-11))
454.958237    	((1.923801e-06 3.218843e-09 -2.674154e-06) (1.881457e-06 9.598091e-10 -6.338667e-07)) ((-3.911291e-15 3.470179e-11 -9.961180e-15) (4.251188e-11 -7.065188e-08 -1.732049e-11))
478.793874    	((1.922730e-06 3.006765e-09 -2.656003e-06) (1.877569e-06 9.321184e-10 -6.342503e-07)) ((-6.364971e-16 3.476783e-11 -9.882439e-15) (4.046375e-11 -7.052624e-08 -1.540068e-11))
502.635319    	((1.921712e-06 2.780748e-09 -2.639035e-06) (1.874156e-06 9.000482e-10 -6.346001e-07)) ((2.745648e-15 3.482787e-11 -9.923484e-15) (3.827990e-11 -7.041619e-08 -1.356564e-11))
526.481915    	((1.920781e-06 2.565179e-09 -2.623124e-06) (1.871161e-06 8.650751e-10 -6.349172e-07)) ((5.968368e-15 3.488356e-11 -9.892752e-15) (3.601299e-11 -7.031970e-08 -1.180806e-11))
550.333074    	((1.919890e-06 2.364148e-09 -2.608353e-06) (1.868527e-06 8.281869e-10 -6.352037e-07)) ((8.759490e-15 3.493407e-11 -9.892189e-15) (3.372783e-11 -7.023488e-08 -1.015138e-11))
574.188286    	((1.919061e-06 2.168111e-09 -2.594575e-06) (1.866204e-06 7.902546e-10 -6.354609e-07)) ((1.134168e-14 3.498081e-11 -9.917880e-15) (3.146600e-11 -7.016016e-08 -8.600598e-12))
598.047105    	((1.918310e-06 1.980957e-09 -2.581872e-06) (1.864154e-06 7.520467e-10 -6.356906e-07)) ((1.399264e-14 3.502368e-11 -9.950821e-15) (2.922763e-11 -7.009430e-08 -7.158826e-12))
621.909138    	((1.917618e-06 1.810024e-09 -2.570108e-06) (1.862342e-06 7.147022e-10 -6.358941e-07)) ((1.648564e-14 3.506340e-11 -1.006858e-14) (2.705590e-11 -7.003618e-08 -5.803862e-12))
645.774039    	((1.916978e-06 1.651904e-09 -2.559256e-06) (1.860737e-06 6.782624e-10 -6.360747e-07)) ((1.872224e-14 3.509986e-11 -1.010417e-14) (2.496549e-11 -6.998479e-08 -4.556776e-12))
669.641503    	((1.916397e-06 1.508139e-09 -2.549244e-06) (1.859316e-06 6.432124e-10 -6.362346e-07)) ((2.083160e-14 3.513372e-11 -1.014919e-14) (2.298486e-11 -6.993932e-08 -3.402181e-12))
693.511253    	((1.915869e-06 1.373219e-09 -2.540049e-06) (1.858055e-06 6.095406e-10 -6.363755e-07)) ((2.293982e-14 3.516480e-11 -1.016285e-14) (2.110894e-11 -6.989905e-08 -2.347577e-12))
717.383043    	((1.915385e-06 1.253611e-09 -2.531596e-06) (1.856936e-06 5.779983e-10 -6.364992e-07)) ((2.476058e-14 3.519346e-11 -1.017498e-14) (1.936962e-11 -6.986334e-08 -1.396073e-12))
741.256656    	((1.914946e-06 1.144779e-09 -2.523851e-06) (1.855941e-06 5.489867e-10 -6.366080e-07)) ((2.657505e-14 3.521970e-11 -1.016781e-14) (1.776986e-11 -6.983165e-08 -5.199397e-13))
765.131897    	((1.914547e-06 1.045072e-09 -2.516755e-06) (1.855057e-06 5.221576e-10 -6.367034e-07)) ((2.832560e-14 3.524377e-11 -1.014203e-14) (1.628783e-11 -6.980349e-08 2.900256e-13))
789.008591    	((1.914185e-06 9.568664e-10 -2.510265e-06) (1.854270e-06 4.975912e-10 -6.367869e-07)) ((2.983915e-14 3.526586e-11 -1.012998e-14) (1.492924e-11 -6.977844e-08 1.031317e-12))
812.886585    	((1.913857e-06 8.747568e-10 -2.504322e-06) (1.853568e-06 4.749793e-10 -6.368596e-07)) ((3.124952e-14 3.528615e-11 -1.012701e-14) (1.368319e-11 -6.975615e-08 1.707567e-12))
836.76574     	((1.913562e-06 8.011277e-10 -2.498926e-06) (1.852943e-06 4.542050e-10 -6.369229e-07)) ((3.254399e-14 3.530465e-11 -1.015088e-14) (1.254546e-11 -6.973631e-08 2.318483e-12))
860.645934    	((1.913297e-06 7.339214e-10 -2.494000e-06) (1.852386e-06 4.351061e-10 -6.369780e-07)) ((3.371761e-14 3.532162e-11 -1.016799e-14) (1.150980e-11 -6.971864e-08 2.867240e-12))
884.527057    	((1.913057e-06 6.730624e-10 -2.489523e-06) (1.851889e-06 4.176483e-10 -6.370257e-07)) ((3.476725e-14 3.533706e-11 -1.017345e-14) (1.056922e-11 -6.970290e-08 3.362345e-12))
908.409012    	((1.912839e-06 6.168535e-10 -2.485449e-06) (1.851445e-06 4.017608e-10 -6.370671e-07)) ((3.572909e-14 3.535112e-11 -1.018331e-14) (9.711489e-12 -6.968886e-08 3.810642e-12))
932.291711    	((1.912642e-06 5.658999e-10 -2.481750e-06) (1.851049e-06 3.873547e-10 -6.371032e-07)) ((3.660320e-14 3.536394e-11 -1.018915e-14) (8.930309e-12 -6.967633e-08 4.217233e-12))
956.175076    	((1.912464e-06 5.188667e-10 -2.478410e-06) (1.850694e-06 3.741507e-10 -6.371346e-07)) ((3.740011e-14 3.537557e-11 -1.018461e-14) (8.217469e-12 -6.966514e-08 4.586401e-12))
980.058893    	((1.912304e-06 4.764572e-10 -2.475364e-06) (1.850378e-06 3.621353e-10 -6.371621e-07)) ((3.810927e-14 3.538620e-11 -1.019020e-14) (7.567443e-12 -6.965515e-08 4.924176e-12))
1003.943085   	((1.912160e-06 4.373937e-10 -2.472609e-06) (1.850095e-06 3.511673e-10 -6.371860e-07)) ((3.874920e-14 3.539586e-11 -1.019726e-14) (6.973425e-12 -6.964623e-08 5.231552e-12))
1027.827612   	((1.912030e-06 4.018740e-10 -2.470111e-06) (1.849841e-06 3.411384e-10 -6.372070e-07)) ((3.932811e-14 3.540463e-11 -1.020693e-14) (6.430671e-12 -6.963824e-08 5.509164e-12))
1051.712438   	((1.911914e-06 3.695664e-10 -2.467857e-06) (1.849615e-06 3.319002e-10 -6.372252e-07)) ((3.985132e-14 3.541258e-11 -1.021598e-14) (5.934066e-12 -6.963110e-08 5.760369e-12))
1075.597533   	((1.911809e-06 3.397747e-10 -2.465816e-06) (1.849412e-06 3.234158e-10 -6.372411e-07)) ((4.032781e-14 3.541978e-11 -1.022417e-14) (5.479898e-12 -6.962471e-08 5.986263e-12))
1099.482867   	((1.911714e-06 3.125707e-10 -2.463973e-06) (1.849230e-06 3.156207e-10 -6.372550e-07)) ((4.077868e-14 3.542631e-11 -1.023446e-14) (5.064398e-12 -6.961900e-08 6.189661e-12))
1123.368416   	((1.911628e-06 2.876725e-10 -2.462307e-06) (1.849068e-06 3.084778e-10 -6.372670e-07)) ((4.117762e-14 3.543221e-11 -1.024179e-14) (4.684632e-12 -6.961388e-08 6.373950e-12))
1147.254158   	((1.911551e-06 2.649466e-10 -2.460796e-06) (1.848922e-06 3.019468e-10 -6.372776e-07)) ((4.154048e-14 3.543757e-11 -1.024442e-14) (4.338376e-12 -6.960931e-08 6.540925e-12))
1171.14007    	((1.911481e-06 2.444092e-10 -2.459443e-06) (1.848792e-06 2.959797e-10 -6.372867e-07)) ((4.186556e-14 3.544238e-11 -1.024871e-14) (4.022681e-12 -6.960521e-08 6.692099e-12))
1195.026137   	((1.911419e-06 2.257698e-10 -2.458220e-06) (1.848675e-06 2.905335e-10 -6.372947e-07)) ((4.216224e-14 3.544674e-11 -1.025327e-14) (3.735047e-12 -6.960154e-08 6.828851e-12))
1218.912341   	((1.911363e-06 2.090700e-10 -2.457120e-06) (1.848570e-06 2.855769e-10 -6.373016e-07)) ((4.242582e-14 3.545066e-11 -1.025812e-14) (3.473770e-12 -6.959825e-08 6.952604e-12))
1242.798668   	((1.911314e-06 1.941063e-10 -2.456132e-06) (1.848477e-06 2.810723e-10 -6.373077e-07)) ((4.265618e-14 3.545423e-11 -1.026319e-14) (3.236855e-12 -6.959531e-08 7.064452e-12))
1266.685107   	((1.911268e-06 1.805318e-10 -2.455239e-06) (1.848393e-06 2.769808e-10 -6.373130e-07)) ((4.287456e-14 3.545741e-11 -1.026738e-14) (3.021878e-12 -6.959267e-08 7.165352e-12))
1290.571644   	((1.911228e-06 1.683305e-10 -2.454434e-06) (1.848317e-06 2.732789e-10 -6.373176e-07)) ((4.307166e-14 3.546030e-11 -1.027243e-14) (2.827327e-12 -6.959031e-08 7.256255e-12))
1314.458269   	((1.911190e-06 1.572098e-10 -2.453710e-06) (1.848250e-06 2.699218e-10 -6.373216e-07)) ((4.325163e-14 3.546288e-11 -1.027674e-14) (2.651008e-12 -6.958819e-08 7.337932e-12))
1338.344974   	((1.911158e-06 1.471528e-10 -2.453066e-06) (1.848189e-06 2.668889e-10 -6.373251e-07)) ((4.341559e-14 3.546520e-11 -1.028061e-14) (2.491836e-12 -6.958629e-08 7.411388e-12))
1362.231751   	((1.911128e-06 1.383353e-10 -2.452475e-06) (1.848135e-06 2.641628e-10 -6.373282e-07)) ((4.356020e-14 3.546731e-11 -1.028316e-14) (2.348606e-12 -6.958458e-08 7.477463e-12))
1386.118591   	((1.911101e-06 1.303977e-10 -2.451949e-06) (1.848086e-06 2.617058e-10 -6.373309e-07)) ((4.368730e-14 3.546922e-11 -1.028716e-14) (2.219649e-12 -6.958306e-08 7.536938e-12))
1410.005489   	((1.911077e-06 1.232947e-10 -2.451471e-06) (1.848043e-06 2.595011e-10 -6.373333e-07)) ((4.380403e-14 3.547093e-11 -1.029048e-14) (2.103573e-12 -6.958169e-08 7.590511e-12))
1433.892438   	((1.911055e-06 1.168906e-10 -2.451044e-06) (1.848003e-06 2.575211e-10 -6.373354e-07)) ((4.390921e-14 3.547248e-11 -1.029399e-14) (1.999135e-12 -6.958046e-08 7.638840e-12))
