# Forces      
# CofR        : (0.000000e+00 0.000000e+00 0.000000e+00)
# Time        forces(pressure viscous)	moments(pressure viscous)
0             	((0.000000e+00 0.000000e+00 0.000000e+00) (0.000000e+00 0.000000e+00 0.000000e+00)) ((0.000000e+00 0.000000e+00 0.000000e+00) (0.000000e+00 0.000000e+00 0.000000e+00))
0.012         	((4.255546e-06 -1.616930e-10 1.341715e-06) (1.050193e-05 -4.439443e-14 8.921289e-10)) ((6.932124e-14 -6.836640e-10 5.514584e-14) (7.775946e-15 -6.988737e-07 3.096812e-15))
0.0264        	((6.320241e-06 -3.582907e-09 2.118549e-06) (9.620045e-06 -9.347715e-13 3.911427e-10)) ((3.929248e-14 3.500097e-10 1.338569e-14) (2.924809e-14 -6.408760e-07 -2.115505e-14))
0.04368       	((4.013692e-06 2.141451e-09 1.281109e-06) (8.710422e-06 1.111154e-12 -4.370152e-10)) ((8.325971e-14 2.476467e-10 3.970008e-14) (7.789131e-14 -5.812410e-07 -9.899430e-14))
0.064416      	((4.764724e-06 -2.607979e-09 1.576756e-06) (7.793467e-06 2.278657e-12 -1.213114e-09)) ((5.114636e-14 4.835732e-10 -5.998207e-15) (1.207569e-13 -5.213363e-07 -1.821676e-13))
0.0892992     	((3.402444e-06 1.140697e-09 1.104552e-06) (6.895650e-06 2.412496e-12 -1.793700e-09)) ((2.043251e-14 3.419988e-10 3.498253e-14) (2.249923e-13 -4.629010e-07 -1.452125e-13))
0.119159      	((3.580686e-06 -1.271025e-09 1.154804e-06) (6.045947e-06 8.813393e-13 -2.300737e-09)) ((3.799455e-14 4.173684e-10 4.607163e-16) (1.870019e-13 -4.078692e-07 -5.629580e-14))
0.154991      	((2.653639e-06 6.469795e-10 8.766350e-07) (5.271235e-06 -2.467946e-13 -3.016147e-09)) ((-1.014204e-14 2.897322e-10 3.696755e-15) (1.785428e-13 -3.574192e-07 7.545782e-14))
0.197989      	((2.658926e-06 -4.740526e-10 8.417825e-07) (4.586209e-06 -1.364056e-12 -3.860932e-09)) ((-1.258150e-14 3.286179e-10 -4.962682e-15) (1.538092e-13 -3.127643e-07 1.566900e-13))
0.249587      	((2.046449e-06 2.717311e-10 6.761677e-07) (4.001079e-06 -2.316985e-12 -4.797296e-09)) ((-9.509687e-15 2.348609e-10 -4.239542e-16) (1.353016e-13 -2.743506e-07 1.861272e-13))
0.311504      	((2.005233e-06 -7.527433e-11 6.252885e-07) (3.513498e-06 -2.550111e-12 -5.719273e-09)) ((-2.751471e-14 2.606866e-10 8.299335e-16) (2.231406e-13 -2.421723e-07 2.214970e-13))
0.385805      	((1.608672e-06 2.422768e-11 5.277229e-07) (3.108988e-06 -2.589894e-12 -6.658743e-09)) ((-8.373509e-15 1.945898e-10 3.105634e-15) (2.193929e-13 -2.154384e-07 2.708322e-13))
0.474966      	((1.565301e-06 -4.350628e-11 4.826062e-07) (2.772545e-06 -2.604393e-12 -7.234640e-09)) ((-2.979522e-14 2.124649e-10 -1.699974e-16) (2.257987e-13 -1.932226e-07 4.385830e-13))
0.581959      	((1.300825e-06 -3.836508e-11 4.212849e-07) (2.487983e-06 -2.560231e-12 -7.890948e-09)) ((-2.308271e-15 1.651257e-10 -7.973041e-15) (1.142740e-13 -1.744182e-07 3.788826e-13))
0.710351      	((1.258782e-06 1.167950e-11 3.827713e-07) (2.242971e-06 -6.762062e-13 -8.116360e-09)) ((-3.760552e-14 1.780698e-10 -3.324607e-15) (3.211303e-14 -1.582678e-07 5.350370e-14))
0.864421      	((1.074035e-06 -3.308941e-11 3.412488e-07) (2.027608e-06 7.863507e-13 -8.520612e-09)) ((-1.925498e-14 1.460697e-10 3.053967e-15) (3.469777e-14 -1.440930e-07 -2.314713e-14))
1.049306      	((1.026722e-06 -4.419793e-11 3.059950e-07) (1.835931e-06 1.949914e-12 -8.330470e-09)) ((-4.532122e-14 1.548589e-10 -1.746633e-14) (3.519522e-13 -1.315190e-07 1.511039e-13))
1.271167      	((8.870120e-07 -6.612146e-11 2.737619e-07) (1.663499e-06 -2.123610e-12 -8.871382e-09)) ((-2.965478e-14 1.332975e-10 -2.721962e-14) (7.075098e-13 -1.202286e-07 4.389711e-13))
1.5374        	((8.344481e-07 -7.894426e-11 2.415614e-07) (1.507874e-06 -9.742502e-12 -8.856579e-09)) ((-5.643619e-14 1.365932e-10 -3.438861e-14) (1.086117e-12 -1.100521e-07 6.539159e-13))
1.85688       	((7.286992e-07 -1.304900e-10 2.150923e-07) (1.367606e-06 -1.831730e-11 -9.344961e-09)) ((-5.797222e-14 1.219521e-10 -3.383274e-14) (1.557169e-12 -1.009098e-07 6.333952e-13))
2.240256      	((6.753100e-07 -5.481725e-11 1.885371e-07) (1.242140e-06 -1.870854e-11 -9.769531e-09)) ((-7.451904e-14 1.207558e-10 -3.189191e-14) (2.379478e-12 -9.273297e-08 3.411076e-13))
2.700307      	((5.972516e-07 -1.043176e-10 1.676626e-07) (1.131162e-06 -1.912468e-11 -9.852550e-09)) ((-6.345605e-14 1.113522e-10 -3.652263e-14) (3.599462e-12 -8.549969e-08 -4.016013e-13))
3.252369      	((5.521631e-07 -1.290149e-10 1.476626e-07) (1.033434e-06 -1.491279e-11 -1.020959e-08)) ((-6.326491e-14 1.085958e-10 -3.973608e-14) (4.997238e-12 -7.912713e-08 -1.646321e-12))
3.914842      	((4.960328e-07 -1.628020e-10 1.313092e-07) (9.477519e-07 -1.027916e-11 -1.056073e-08)) ((-4.977106e-14 1.028381e-10 -4.031389e-14) (6.017122e-12 -7.356445e-08 -3.432074e-12))
4.709811      	((4.591210e-07 -8.724655e-11 1.147401e-07) (8.722646e-07 -1.424976e-11 -1.109467e-08)) ((-4.967863e-14 9.979968e-11 -4.995847e-14) (6.252684e-12 -6.868951e-08 -4.857008e-12))
5.663773      	((4.160300e-07 -1.463016e-10 9.981311e-08) (8.051410e-07 -1.973574e-11 -1.194238e-08)) ((-5.001012e-14 9.589674e-11 -4.687000e-14) (5.772659e-12 -6.437229e-08 -5.320704e-12))
6.808528      	((3.847143e-07 -1.984763e-10 8.540388e-08) (7.448585e-07 -2.595107e-11 -1.289352e-08)) ((-4.415349e-14 9.339125e-11 -5.215748e-14) (5.135497e-12 -6.050397e-08 -5.304893e-12))
8.182233      	((3.512195e-07 -1.443007e-10 7.174501e-08) (6.901463e-07 -3.115583e-11 -1.381133e-08)) ((-4.390766e-14 9.073126e-11 -4.326318e-14) (4.750884e-12 -5.700705e-08 -5.253465e-12))
9.83068       	((3.243587e-07 -1.042224e-10 5.876093e-08) (6.401590e-07 -3.852856e-11 -1.462779e-08)) ((-4.355505e-14 8.886884e-11 -3.694232e-14) (4.501511e-12 -5.382937e-08 -4.884329e-12))
11.808816     	((2.971906e-07 -6.570488e-11 4.647002e-08) (5.942945e-07 -3.707078e-11 -1.528025e-08)) ((-3.869245e-14 8.689920e-11 -2.990233e-14) (4.093633e-12 -5.092995e-08 -3.985503e-12))
14.182579     	((2.740371e-07 -4.583772e-11 3.431340e-08) (5.520479e-07 -3.668043e-11 -1.574750e-08)) ((-3.394864e-14 8.529963e-11 -2.605747e-14) (3.609210e-12 -4.827535e-08 -3.046536e-12))
17.031095     	((2.516637e-07 -4.479132e-11 2.303037e-08) (5.130621e-07 -4.094851e-11 -1.609191e-08)) ((-2.776826e-14 8.386777e-11 -2.405487e-14) (3.021709e-12 -4.584392e-08 -2.024838e-12))
20.449314     	((2.319708e-07 -5.511192e-11 1.134466e-08) (4.772161e-07 -4.717977e-11 -1.637356e-08)) ((-2.422414e-14 8.262933e-11 -1.991941e-14) (2.188799e-12 -4.362451e-08 -1.251773e-12))
24.551176     	((2.135938e-07 -9.285622e-11 5.566038e-10) (4.444013e-07 -5.558051e-11 -1.663708e-08)) ((-2.052763e-14 8.159392e-11 -1.622662e-14) (1.447247e-12 -4.161054e-08 -6.960665e-13))
29.473411     	((1.975543e-07 -1.292575e-10 -9.704705e-09) (4.145138e-07 -5.736829e-11 -1.691231e-08)) ((-1.719477e-14 8.074415e-11 -1.480002e-14) (9.824734e-13 -3.979274e-08 -4.052956e-13))
35.380094     	((1.828883e-07 -1.353078e-10 -1.986571e-08) (3.873560e-07 -5.687235e-11 -1.728492e-08)) ((-1.462786e-14 8.008982e-11 -1.329266e-14) (7.405996e-13 -3.815524e-08 -3.302487e-13))
42.468112     	((1.702980e-07 -1.398275e-10 -2.935311e-08) (3.627324e-07 -5.570276e-11 -1.777612e-08)) ((-1.127261e-14 7.954453e-11 -1.156458e-14) (5.543196e-13 -3.668379e-08 -3.678765e-13))
50.973735     	((1.593246e-07 -1.258017e-10 -3.839340e-08) (3.404430e-07 -5.890575e-11 -1.843427e-08)) ((-8.148629e-15 7.912234e-11 -1.010181e-14) (3.537475e-13 -3.536682e-08 -5.037208e-13))
61.180482     	((1.499021e-07 -1.073995e-10 -4.716355e-08) (3.203083e-07 -5.786034e-11 -1.929000e-08)) ((-6.868574e-15 7.876826e-11 -7.914056e-15) (2.883699e-13 -3.419380e-08 -7.246466e-13))
73.428578     	((1.419205e-07 -9.790120e-11 -5.519636e-08) (3.021733e-07 -5.376264e-11 -2.035718e-08)) ((-5.679076e-15 7.850158e-11 -6.745155e-15) (3.299100e-13 -3.315263e-08 -9.837721e-13))
88.126294     	((1.352809e-07 -8.357569e-11 -6.291710e-08) (2.858863e-07 -5.065885e-11 -2.165824e-08)) ((-5.020409e-15 7.830470e-11 -7.357972e-15) (2.930531e-13 -3.223091e-08 -1.200140e-12))
105.763553    	((1.299963e-07 -8.378223e-11 -7.010328e-08) (2.713483e-07 -4.866567e-11 -2.322936e-08)) ((-4.935975e-15 7.816684e-11 -7.482774e-15) (2.420851e-13 -3.142021e-08 -1.345904e-12))
126.928263    	((1.260321e-07 -8.143273e-11 -7.691957e-08) (2.585334e-07 -4.408919e-11 -2.505037e-08)) ((-3.893808e-15 7.808730e-11 -8.080207e-15) (3.027442e-13 -3.071380e-08 -1.420828e-12))
152.325916    	((1.234002e-07 -7.970897e-11 -8.325384e-08) (2.474033e-07 -3.892373e-11 -2.715824e-08)) ((-2.856778e-15 7.805643e-11 -7.753957e-15) (4.036636e-13 -3.010583e-08 -1.405693e-12))
182.803099    	((1.218774e-07 -8.567997e-11 -8.890337e-08) (2.379137e-07 -3.581158e-11 -2.952566e-08)) ((-2.894617e-15 7.804323e-11 -7.431091e-15) (5.065513e-13 -2.958976e-08 -1.412897e-12))
218.756516    	((1.214595e-07 -8.203454e-11 -9.381153e-08) (2.300489e-07 -3.210612e-11 -3.209047e-08)) ((-2.815756e-15 7.804940e-11 -6.863224e-15) (6.056472e-13 -2.915985e-08 -1.389594e-12))
260.18707     	((1.220097e-07 -7.676849e-11 -9.778400e-08) (2.237774e-07 -2.980334e-11 -3.476403e-08)) ((-2.178348e-15 7.806312e-11 -6.821501e-15) (6.592500e-13 -2.880932e-08 -1.287808e-12))
307.095673    	((1.233840e-07 -7.208050e-11 -1.007646e-07) (2.190363e-07 -2.841202e-11 -3.739347e-08)) ((-1.930795e-15 7.808938e-11 -6.600236e-15) (6.297425e-13 -2.853118e-08 -1.088843e-12))
359.483463    	((1.252904e-07 -6.693365e-11 -1.028775e-07) (2.157049e-07 -2.784765e-11 -3.979525e-08)) ((-2.133531e-15 7.812670e-11 -6.255590e-15) (5.190432e-13 -2.831877e-08 -8.002696e-13))
414.28923     	((1.272132e-07 -6.268959e-11 -1.043502e-07) (2.136115e-07 -2.827003e-11 -4.178078e-08)) ((-2.404199e-15 7.817647e-11 -6.048591e-15) (4.005842e-13 -2.816666e-08 -5.443951e-13))
469.109264    	((1.286784e-07 -5.991193e-11 -1.054800e-07) (2.124456e-07 -2.959112e-11 -4.327235e-08)) ((-2.753858e-15 7.822003e-11 -5.766776e-15) (2.692697e-13 -2.806387e-08 -3.539897e-13))
523.943098    	((1.296070e-07 -5.800471e-11 -1.063783e-07) (2.118736e-07 -3.065554e-11 -4.431969e-08)) ((-2.922118e-15 7.825322e-11 -5.494145e-15) (1.200102e-13 -2.799715e-08 -2.114262e-13))
578.789542    	((1.300372e-07 -5.665528e-11 -1.070814e-07) (2.116148e-07 -3.157417e-11 -4.502754e-08)) ((-3.052402e-15 7.827395e-11 -5.316146e-15) (8.832483e-15 -2.795434e-08 -1.016791e-13))
633.647146    	((1.301732e-07 -5.584324e-11 -1.076336e-07) (2.114888e-07 -3.266949e-11 -4.550600e-08)) ((-3.108561e-15 7.828407e-11 -5.097227e-15) (-6.500828e-14 -2.792622e-08 -4.154186e-14))
688.514351    	((1.301908e-07 -5.582985e-11 -1.080712e-07) (2.114062e-07 -3.402868e-11 -4.584474e-08)) ((-3.121911e-15 7.828880e-11 -5.031631e-15) (-1.322614e-13 -2.790684e-08 -1.624542e-14))
743.389308    	((1.301755e-07 -5.650786e-11 -1.084303e-07) (2.113354e-07 -3.530623e-11 -4.610212e-08)) ((-3.121159e-15 7.829165e-11 -4.978412e-15) (-1.769448e-13 -2.789287e-08 -1.143052e-14))
798.270387    	((1.301429e-07 -5.696516e-11 -1.087319e-07) (2.112685e-07 -3.666661e-11 -4.630983e-08)) ((-3.093874e-15 7.829332e-11 -4.924067e-15) (-2.113570e-13 -2.788245e-08 -1.979269e-14))
853.156297    	((1.300960e-07 -5.753907e-11 -1.089876e-07) (2.112056e-07 -3.784917e-11 -4.648594e-08)) ((-3.157498e-15 7.829398e-11 -4.820603e-15) (-2.401499e-13 -2.787447e-08 -3.290705e-14))
908.046024    	((1.300416e-07 -5.838612e-11 -1.092086e-07) (2.111482e-07 -3.884425e-11 -4.664110e-08)) ((-3.247502e-15 7.829398e-11 -4.711288e-15) (-2.646153e-13 -2.786820e-08 -4.609246e-14))
962.938781    	((1.299871e-07 -5.932329e-11 -1.094037e-07) (2.110978e-07 -3.968442e-11 -4.678178e-08)) ((-3.321791e-15 7.829380e-11 -4.557585e-15) (-2.773516e-13 -2.786322e-08 -5.571253e-14))
1017.833988   	((1.299366e-07 -6.013235e-11 -1.095764e-07) (2.110556e-07 -4.035124e-11 -4.691099e-08)) ((-3.362429e-15 7.829372e-11 -4.490841e-15) (-2.837729e-13 -2.785922e-08 -6.130518e-14))
1072.731226   	((1.298899e-07 -6.088257e-11 -1.097306e-07) (2.110219e-07 -4.088585e-11 -4.703027e-08)) ((-3.386760e-15 7.829368e-11 -4.449910e-15) (-2.897038e-13 -2.785602e-08 -6.527458e-14))
1127.630187   	((1.298474e-07 -6.182873e-11 -1.098694e-07) (2.109959e-07 -4.126866e-11 -4.714102e-08)) ((-3.403647e-15 7.829364e-11 -4.399101e-15) (-2.952701e-13 -2.785344e-08 -7.048892e-14))
1182.530645   	((1.298084e-07 -6.242225e-11 -1.099956e-07) (2.109768e-07 -4.159576e-11 -4.724378e-08)) ((-3.409024e-15 7.829360e-11 -4.369091e-15) (-2.994735e-13 -2.785138e-08 -7.741777e-14))
1237.432432   	((1.297727e-07 -6.295188e-11 -1.101110e-07) (2.109636e-07 -4.191089e-11 -4.733909e-08)) ((-3.386738e-15 7.829357e-11 -4.350422e-15) (-3.045543e-13 -2.784974e-08 -8.424936e-14))
1292.335412   	((1.297405e-07 -6.355921e-11 -1.102163e-07) (2.109551e-07 -4.221363e-11 -4.742758e-08)) ((-3.293824e-15 7.829356e-11 -4.334082e-15) (-3.091257e-13 -2.784843e-08 -8.879460e-14))
1347.239479   	((1.297109e-07 -6.411327e-11 -1.103122e-07) (2.109506e-07 -4.243729e-11 -4.750975e-08)) ((-3.172888e-15 7.829350e-11 -4.340593e-15) (-3.124616e-13 -2.784740e-08 -9.193036e-14))
1402.144542   	((1.296840e-07 -6.447904e-11 -1.103997e-07) (2.109491e-07 -4.264303e-11 -4.758603e-08)) ((-3.095320e-15 7.829350e-11 -4.337956e-15) (-3.161656e-13 -2.784660e-08 -9.295282e-14))
1457.050521   	((1.296597e-07 -6.493624e-11 -1.104793e-07) (2.109500e-07 -4.283130e-11 -4.765682e-08)) ((-3.034683e-15 7.829354e-11 -4.324009e-15) (-3.196104e-13 -2.784596e-08 -9.375967e-14))
1511.957349   	((1.296388e-07 -6.521575e-11 -1.105518e-07) (2.109528e-07 -4.301526e-11 -4.772264e-08)) ((-2.968703e-15 7.829363e-11 -4.322342e-15) (-3.233480e-13 -2.784546e-08 -9.415567e-14))
1566.864961   	((1.296200e-07 -6.530894e-11 -1.106183e-07) (2.109573e-07 -4.317228e-11 -4.778397e-08)) ((-2.912734e-15 7.829372e-11 -4.323819e-15) (-3.267523e-13 -2.784509e-08 -9.578065e-14))
1621.773282   	((1.296028e-07 -6.531390e-11 -1.106797e-07) (2.109630e-07 -4.330502e-11 -4.784114e-08)) ((-2.869306e-15 7.829381e-11 -4.332725e-15) (-3.306328e-13 -2.784482e-08 -9.911232e-14))
1676.682254   	((1.295869e-07 -6.537439e-11 -1.107364e-07) (2.109697e-07 -4.343559e-11 -4.789444e-08)) ((-2.856373e-15 7.829388e-11 -4.327079e-15) (-3.350249e-13 -2.784463e-08 -1.026749e-13))
1731.591828   	((1.295722e-07 -6.536340e-11 -1.107886e-07) (2.109770e-07 -4.354472e-11 -4.794413e-08)) ((-2.852894e-15 7.829395e-11 -4.321637e-15) (-3.399176e-13 -2.784451e-08 -1.064389e-13))
1786.501962   	((1.295584e-07 -6.540292e-11 -1.108370e-07) (2.109847e-07 -4.367571e-11 -4.799048e-08)) ((-2.855639e-15 7.829401e-11 -4.308030e-15) (-3.451093e-13 -2.784443e-08 -1.101394e-13))
1841.412621   	((1.295455e-07 -6.543819e-11 -1.108817e-07) (2.109925e-07 -4.380028e-11 -4.803371e-08)) ((-2.849231e-15 7.829406e-11 -4.297296e-15) (-3.494056e-13 -2.784438e-08 -1.144084e-13))
1896.323767   	((1.295333e-07 -6.548227e-11 -1.109234e-07) (2.110004e-07 -4.390800e-11 -4.807406e-08)) ((-2.851799e-15 7.829410e-11 -4.285579e-15) (-3.540636e-13 -2.784437e-08 -1.188274e-13))
1951.235368   	((1.295218e-07 -6.558001e-11 -1.109621e-07) (2.110083e-07 -4.401028e-11 -4.811181e-08)) ((-2.861832e-15 7.829413e-11 -4.271643e-15) (-3.581725e-13 -2.784437e-08 -1.225098e-13))
2006.147396   	((1.295109e-07 -6.567207e-11 -1.109981e-07) (2.110159e-07 -4.410883e-11 -4.814714e-08)) ((-2.872675e-15 7.829417e-11 -4.258607e-15) (-3.620321e-13 -2.784439e-08 -1.255605e-13))
2061.059822   	((1.295006e-07 -6.579672e-11 -1.110318e-07) (2.110233e-07 -4.420360e-11 -4.818021e-08)) ((-2.884151e-15 7.829420e-11 -4.247341e-15) (-3.651351e-13 -2.784442e-08 -1.279809e-13))
2115.972621   	((1.294908e-07 -6.586028e-11 -1.110634e-07) (2.110304e-07 -4.429334e-11 -4.821124e-08)) ((-2.886394e-15 7.829423e-11 -4.240335e-15) (-3.676833e-13 -2.784446e-08 -1.301511e-13))
2170.885771   	((1.294816e-07 -6.595823e-11 -1.110931e-07) (2.110373e-07 -4.437633e-11 -4.824036e-08)) ((-2.885595e-15 7.829426e-11 -4.231992e-15) (-3.695428e-13 -2.784449e-08 -1.324593e-13))
2225.799251   	((1.294729e-07 -6.597558e-11 -1.111210e-07) (2.110438e-07 -4.444542e-11 -4.826775e-08)) ((-2.879645e-15 7.829428e-11 -4.225444e-15) (-3.714511e-13 -2.784454e-08 -1.344804e-13))
2280.71304    	((1.294645e-07 -6.599775e-11 -1.111475e-07) (2.110501e-07 -4.451745e-11 -4.829352e-08)) ((-2.870423e-15 7.829431e-11 -4.217482e-15) (-3.735360e-13 -2.784458e-08 -1.359026e-13))
2335.627122   	((1.294567e-07 -6.601067e-11 -1.111725e-07) (2.110561e-07 -4.459011e-11 -4.831778e-08)) ((-2.863339e-15 7.829433e-11 -4.206852e-15) (-3.755578e-13 -2.784463e-08 -1.368937e-13))
2390.54148    	((1.294492e-07 -6.597175e-11 -1.111960e-07) (2.110619e-07 -4.466468e-11 -4.834065e-08)) ((-2.859831e-15 7.829436e-11 -4.202044e-15) (-3.773955e-13 -2.784467e-08 -1.379075e-13))
