# Forces      
# CofR        : (0.000000e+00 0.000000e+00 0.000000e+00)
# Time        forces(pressure viscous)	moments(pressure viscous)
0             	((0.000000e+00 0.000000e+00 0.000000e+00) (0.000000e+00 0.000000e+00 0.000000e+00)) ((0.000000e+00 0.000000e+00 0.000000e+00) (0.000000e+00 0.000000e+00 0.000000e+00))
0.012         	((-3.035900e-11 1.443805e-06 2.338749e-07) (-4.319763e-13 3.321140e-06 -5.931846e-12)) ((2.110093e-10 7.640853e-13 -1.933456e-12) (2.210071e-07 1.914622e-14 3.585627e-13))
0.0264        	((-8.287939e-10 1.940579e-06 4.952722e-07) (-1.931501e-12 3.042194e-06 -1.897514e-11)) ((-9.563109e-11 1.655166e-12 -8.563004e-13) (2.026642e-07 4.549586e-14 3.686591e-13))
0.04368       	((6.592340e-10 1.312189e-06 2.685730e-07) (-2.621086e-12 2.754359e-06 -4.393667e-11)) ((-7.092213e-11 8.616008e-13 -9.644177e-13) (1.837922e-07 1.171510e-14 6.922979e-13))
0.064416      	((-7.406295e-10 1.483513e-06 3.474198e-07) (-3.526420e-12 2.464026e-06 -8.377450e-11)) ((-1.402057e-10 1.138665e-12 -6.084514e-13) (1.648214e-07 -5.754236e-14 2.802672e-13))
0.0892992     	((3.888007e-10 1.095156e-06 2.315391e-07) (-3.658687e-12 2.179518e-06 -1.364428e-10)) ((-9.996968e-11 7.425191e-13 -4.028022e-13) (1.462948e-07 -1.124756e-13 -7.901511e-13))
0.119159      	((-2.600583e-10 1.123015e-06 2.511812e-07) (-3.047055e-12 1.909948e-06 -1.982619e-10)) ((-1.224183e-10 8.110557e-13 -2.117128e-13) (1.288215e-07 -9.645607e-14 -1.234156e-12))
0.154991      	((1.998579e-10 8.460970e-07 1.791647e-07) (-2.888973e-12 1.663725e-06 -2.744494e-10)) ((-8.548389e-11 5.733478e-13 -9.450065e-14) (1.127754e-07 -8.563811e-14 -1.407177e-12))
0.197989      	((-5.195675e-11 8.353163e-07 1.802615e-07) (-2.424260e-12 1.445872e-06 -3.663614e-10)) ((-9.654521e-11 5.843446e-13 -1.426933e-13) (9.856586e-08 -7.841936e-14 -1.513931e-12))
0.249587      	((8.361305e-11 6.492676e-07 1.396406e-07) (-2.702341e-12 1.260117e-06 -4.685026e-10)) ((-6.919848e-11 4.336878e-13 -1.179987e-13) (8.635948e-08 -5.509319e-14 -1.435761e-12))
0.311504      	((3.021382e-11 6.303157e-07 1.350000e-07) (-1.610248e-12 1.105586e-06 -5.648871e-10)) ((-7.631867e-11 4.341972e-13 -2.101118e-13) (7.615926e-08 -4.900438e-14 -1.168928e-12))
0.385805      	((1.981117e-11 5.082984e-07 1.119012e-07) (-1.298590e-12 9.777654e-07 -6.607030e-10)) ((-5.694026e-11 3.449019e-13 -1.360102e-13) (6.771249e-08 -5.646110e-14 -6.853955e-13))
0.474966      	((2.342187e-11 4.925136e-07 1.052349e-07) (-1.789532e-12 8.718570e-07 -7.214350e-10)) ((-6.192178e-11 3.328069e-13 -1.820744e-13) (6.072479e-08 -5.461587e-14 -2.606765e-13))
0.581959      	((-4.402349e-12 4.104408e-07 9.041750e-08) (-2.755188e-12 7.825752e-07 -7.886558e-10)) ((-4.784819e-11 2.731733e-13 -1.239764e-13) (5.482947e-08 -2.378082e-15 -2.349003e-13))
0.710351      	((1.781909e-11 3.973196e-07 8.322864e-08) (-3.580082e-12 7.058191e-07 -8.147434e-10)) ((-5.158999e-11 2.596392e-13 -1.840410e-13) (4.977846e-08 -6.492814e-14 -1.497214e-13))
0.864421      	((-3.377281e-11 3.385003e-07 7.345696e-08) (-3.349751e-12 6.383389e-07 -8.643293e-10)) ((-4.166667e-11 2.196954e-13 -1.270921e-13) (4.534197e-08 -1.224612e-13 -3.223227e-13))
1.049306      	((1.837155e-11 3.251788e-07 6.714144e-08) (-6.622342e-12 5.782879e-07 -8.672182e-10)) ((-4.456694e-11 2.071015e-13 -1.053362e-13) (4.141043e-08 -2.640676e-13 -6.762772e-13))
1.271167      	((-1.064534e-11 2.797591e-07 5.977224e-08) (-6.238241e-12 5.241548e-07 -9.298247e-10)) ((-3.775670e-11 1.845999e-13 1.006665e-15) (3.787036e-08 -3.273307e-13 -7.962491e-13))
1.5374        	((-3.045968e-12 2.654051e-07 5.394517e-08) (-3.701334e-12 4.752615e-07 -8.666267e-10)) ((-3.929518e-11 1.754498e-13 1.584998e-14) (3.467606e-08 -3.989707e-13 -7.543379e-13))
1.85688       	((-7.326138e-12 2.302633e-07 4.840380e-08) (-8.037972e-12 4.311245e-07 -9.189389e-10)) ((-3.438518e-11 1.621594e-13 6.698711e-14) (3.180040e-08 -5.884512e-13 -7.806019e-13))
2.240256      	((-9.726254e-12 2.153481e-07 4.391156e-08) (-7.031223e-12 3.915064e-07 -9.585547e-10)) ((-3.475836e-11 1.482544e-13 5.382489e-14) (2.921796e-08 -7.396100e-13 -1.051879e-12))
2.700307      	((-1.783234e-12 1.892398e-07 4.008599e-08) (-8.292687e-12 3.564792e-07 -9.419145e-10)) ((-3.134338e-11 1.454228e-13 8.397573e-14) (2.693594e-08 -1.191706e-12 -1.428222e-12))
3.252369      	((-2.075514e-11 1.756607e-07 3.683635e-08) (-9.066297e-12 3.255848e-07 -9.429519e-10)) ((-3.129426e-11 1.181737e-13 6.771575e-14) (2.492101e-08 -1.686916e-12 -1.509166e-12))
3.914842      	((-1.018738e-11 1.571043e-07 3.399226e-08) (-1.636623e-12 2.984196e-07 -9.179629e-10)) ((-2.936267e-11 1.288177e-13 6.832074e-14) (2.315431e-08 -2.169247e-12 -1.136547e-12))
4.709811      	((4.999422e-12 1.452778e-07 3.116789e-08) (2.011961e-12 2.744998e-07 -9.377975e-10)) ((-2.893927e-11 7.890234e-14 6.125010e-14) (2.160289e-08 -2.310143e-12 -5.370132e-13))
5.663773      	((1.080249e-11 1.313987e-07 2.833078e-08) (-1.931196e-12 2.532658e-07 -1.002803e-09)) ((-2.769214e-11 7.861539e-14 6.383744e-14) (2.023119e-08 -1.945289e-12 -1.119543e-13))
6.808528      	((-1.589229e-11 1.212864e-07 2.553588e-08) (-2.326631e-12 2.342321e-07 -1.081838e-09)) ((-2.692064e-11 4.228996e-14 7.066565e-14) (1.900484e-08 -1.466216e-12 2.074774e-13))
8.182233      	((9.136271e-12 1.104731e-07 2.250987e-08) (-3.498355e-12 2.169605e-07 -1.195549e-09)) ((-2.607619e-11 3.542510e-14 7.502137e-14) (1.789819e-08 -1.317534e-12 1.414195e-13))
9.83068       	((1.157724e-11 1.015450e-07 1.976538e-08) (-4.491009e-12 2.011606e-07 -1.332459e-09)) ((-2.538222e-11 -6.029841e-15 7.764386e-14) (1.689321e-08 -1.481993e-12 2.303334e-15))
11.808816     	((3.453983e-11 9.277014e-08 1.706672e-08) (-6.430850e-12 1.866516e-07 -1.471668e-09)) ((-2.475937e-11 -3.140827e-15 7.839972e-14) (1.597625e-08 -1.181037e-12 7.052564e-14))
14.182579     	((1.762584e-11 8.532161e-08 1.484500e-08) (-1.030428e-11 1.733160e-07 -1.596251e-09)) ((-2.420598e-11 -2.543439e-14 7.932903e-14) (1.513722e-08 -6.463857e-13 7.826995e-14))
17.031095     	((1.583694e-11 7.817824e-08 1.293354e-08) (-1.042041e-11 1.610455e-07 -1.690832e-09)) ((-2.373298e-11 -3.234193e-14 7.768739e-14) (1.437047e-08 -3.537038e-13 3.908687e-14))
20.449314     	((-3.900773e-12 7.184111e-08 1.137909e-08) (-8.693771e-12 1.497807e-07 -1.752792e-09)) ((-2.329580e-11 -4.324184e-14 7.970363e-14) (1.367094e-08 -1.485682e-13 -1.918563e-14))
24.551176     	((6.681721e-13 6.580267e-08 1.003624e-08) (-7.280639e-12 1.394660e-07 -1.760888e-09)) ((-2.294142e-11 -4.435406e-14 8.283317e-14) (1.303468e-08 2.250765e-13 1.659172e-14))
29.473411     	((-1.095224e-11 6.042916e-08 8.643473e-09) (-5.894959e-12 1.300454e-07 -1.743574e-09)) ((-2.263020e-11 -4.991160e-14 8.566563e-14) (1.245738e-08 5.333590e-13 1.010012e-13))
35.380094     	((-3.786504e-12 5.547867e-08 7.255519e-09) (-4.154095e-12 1.214527e-07 -1.717522e-09)) ((-2.237381e-11 -5.576268e-14 8.700656e-14) (1.193434e-08 5.960152e-13 2.259020e-13))
42.468112     	((-2.315935e-12 5.103418e-08 5.817433e-09) (-2.848512e-12 1.136155e-07 -1.702755e-09)) ((-2.214078e-11 -6.231417e-14 8.664429e-14) (1.146023e-08 5.194375e-13 3.537738e-13))
50.973735     	((1.497800e-12 4.695036e-08 4.397818e-09) (-2.285367e-12 1.064645e-07 -1.703594e-09)) ((-2.194629e-11 -6.998047e-14 8.677565e-14) (1.103046e-08 3.281247e-13 5.581138e-13))
61.180482     	((6.437944e-12 4.330219e-08 3.054958e-09) (3.087709e-13 9.994958e-08 -1.719050e-09)) ((-2.177317e-11 -7.735955e-14 8.692622e-14) (1.064140e-08 4.573300e-14 7.157592e-13))
73.428578     	((1.239119e-11 4.002788e-08 1.730515e-09) (2.888757e-12 9.402286e-08 -1.746470e-09)) ((-2.162937e-11 -8.344909e-14 8.756070e-14) (1.029036e-08 -2.080603e-13 7.953672e-13))
88.126294     	((1.598077e-11 3.711986e-08 4.120963e-10) (3.674821e-12 8.863609e-08 -1.786075e-09)) ((-2.150539e-11 -9.017241e-14 8.759992e-14) (9.974300e-09 -3.514284e-13 8.989551e-13))
105.763553    	((1.935375e-11 3.455362e-08 -7.858769e-10) (3.964524e-12 8.375140e-08 -1.843468e-09)) ((-2.140820e-11 -9.534067e-14 8.785704e-14) (9.690577e-09 -4.298298e-13 9.878808e-13))
126.928263    	((2.393775e-11 3.229557e-08 -1.864834e-09) (4.046531e-12 7.933577e-08 -1.920164e-09)) ((-2.133054e-11 -1.003238e-13 8.723507e-14) (9.436978e-09 -4.595770e-13 1.037771e-12))
152.325916    	((2.401198e-11 3.033852e-08 -2.886541e-09) (4.466785e-12 7.535801e-08 -2.020489e-09)) ((-2.127070e-11 -1.059037e-13 8.647128e-14) (9.211227e-09 -4.905590e-13 1.055364e-12))
182.803099    	((2.285429e-11 2.866011e-08 -3.871035e-09) (3.920424e-12 7.178863e-08 -2.148636e-09)) ((-2.122282e-11 -1.121696e-13 8.591856e-14) (9.011039e-09 -4.636977e-13 1.067467e-12))
219.375719    	((2.391198e-11 2.722953e-08 -4.830978e-09) (4.063348e-12 6.859776e-08 -2.304581e-09)) ((-2.118545e-11 -1.167972e-13 8.563861e-14) (8.834291e-09 -4.178334e-13 1.089745e-12))
263.262863    	((2.628879e-11 2.602939e-08 -5.753706e-09) (4.499246e-12 6.575600e-08 -2.490887e-09)) ((-2.115533e-11 -1.209717e-13 8.592824e-14) (8.678932e-09 -3.900805e-13 1.093317e-12))
315.927436    	((2.829938e-11 2.504391e-08 -6.689582e-09) (4.500318e-12 6.324068e-08 -2.712940e-09)) ((-2.113395e-11 -1.249662e-13 8.576159e-14) (8.543240e-09 -3.777039e-13 1.086718e-12))
379.124923    	((2.860717e-11 2.426433e-08 -7.582455e-09) (4.639285e-12 6.103595e-08 -2.970773e-09)) ((-2.111893e-11 -1.281379e-13 8.557750e-14) (8.425786e-09 -3.805228e-13 1.045644e-12))
454.961908    	((2.988020e-11 2.368098e-08 -8.412125e-09) (4.665272e-12 5.912910e-08 -3.262736e-09)) ((-2.110826e-11 -1.299677e-13 8.518154e-14) (8.325419e-09 -3.700347e-13 9.614154e-13))
545.966289    	((3.093236e-11 2.325272e-08 -9.122425e-09) (5.014638e-12 5.750744e-08 -3.583943e-09)) ((-2.110181e-11 -1.311290e-13 8.496314e-14) (8.240760e-09 -3.618715e-13 8.627912e-13))
654.302457    	((3.414489e-11 2.296119e-08 -9.827449e-09) (5.828769e-12 5.615926e-08 -3.926831e-09)) ((-2.109921e-11 -1.323936e-13 8.492234e-14) (8.170521e-09 -3.707690e-13 7.625103e-13))
779.969782    	((3.486083e-11 2.279140e-08 -1.041744e-08) (6.633673e-12 5.507317e-08 -4.278225e-09)) ((-2.109824e-11 -1.334677e-13 8.479467e-14) (8.113534e-09 -3.815640e-13 6.689504e-13))
922.967737    	((3.574089e-11 2.271137e-08 -1.092358e-08) (7.307896e-12 5.422973e-08 -4.620196e-09)) ((-2.109749e-11 -1.341128e-13 8.473102e-14) (8.068421e-09 -3.779687e-13 5.895312e-13))
1083.296178   	((3.605838e-11 2.268842e-08 -1.135713e-08) (7.413783e-12 5.360051e-08 -4.935572e-09)) ((-2.109652e-11 -1.347054e-13 8.466790e-14) (8.033641e-09 -3.587571e-13 5.332624e-13))
1256.601595   	((3.621665e-11 2.270278e-08 -1.171976e-08) (7.217891e-12 5.315244e-08 -5.209028e-09)) ((-2.109645e-11 -1.353255e-13 8.464895e-14) (8.007675e-09 -3.294919e-13 5.010625e-13))
1429.908276   	((3.629552e-11 2.272595e-08 -1.200346e-08) (7.103792e-12 5.284920e-08 -5.430313e-09)) ((-2.109820e-11 -1.358220e-13 8.463100e-14) (7.989049e-09 -3.055348e-13 4.802729e-13))
1603.216682   	((3.635213e-11 2.274299e-08 -1.223948e-08) (7.063288e-12 5.265040e-08 -5.600369e-09)) ((-2.109934e-11 -1.362496e-13 8.454708e-14) (7.976011e-09 -2.907247e-13 4.698274e-13))
1776.527527   	((3.640653e-11 2.275033e-08 -1.242499e-08) (7.022089e-12 5.252266e-08 -5.726163e-09)) ((-2.110005e-11 -1.365870e-13 8.443886e-14) (7.967042e-09 -2.777935e-13 4.642153e-13))
1949.842004   	((3.650220e-11 2.274749e-08 -1.257384e-08) (6.987734e-12 5.243991e-08 -5.817709e-09)) ((-2.110040e-11 -1.368480e-13 8.434161e-14) (7.960871e-09 -2.682161e-13 4.636454e-13))
2123.160373   	((3.667119e-11 2.273846e-08 -1.269201e-08) (7.030542e-12 5.238468e-08 -5.884161e-09)) ((-2.110042e-11 -1.370146e-13 8.427584e-14) (7.956586e-09 -2.617787e-13 4.653071e-13))
2296.482361   	((3.699614e-11 2.272676e-08 -1.278744e-08) (7.112336e-12 5.234563e-08 -5.933222e-09)) ((-2.110041e-11 -1.371431e-13 8.424777e-14) (7.953535e-09 -2.577376e-13 4.683654e-13))
2469.807388   	((3.732069e-11 2.271485e-08 -1.286567e-08) (7.174817e-12 5.231631e-08 -5.970295e-09)) ((-2.110037e-11 -1.372473e-13 8.423214e-14) (7.951307e-09 -2.535513e-13 4.730688e-13))
2643.13488    	((3.753845e-11 2.270379e-08 -1.293111e-08) (7.204240e-12 5.229301e-08 -5.999281e-09)) ((-2.110035e-11 -1.373398e-13 8.421739e-14) (7.949629e-09 -2.502274e-13 4.782058e-13))
2816.464372   	((3.768241e-11 2.269411e-08 -1.298640e-08) (7.224434e-12 5.227383e-08 -6.022663e-09)) ((-2.110036e-11 -1.374271e-13 8.419641e-14) (7.948333e-09 -2.503777e-13 4.836890e-13))
2989.795506   	((3.780450e-11 2.268573e-08 -1.303347e-08) (7.237986e-12 5.225769e-08 -6.042111e-09)) ((-2.110039e-11 -1.375094e-13 8.418427e-14) (7.947310e-09 -2.512917e-13 4.887915e-13))
3163.127991   	((3.792326e-11 2.267854e-08 -1.307408e-08) (7.243528e-12 5.224400e-08 -6.058610e-09)) ((-2.110044e-11 -1.375844e-13 8.417507e-14) (7.946491e-09 -2.523435e-13 4.927276e-13))
3336.461583   	((3.801037e-11 2.267229e-08 -1.310918e-08) (7.253910e-12 5.223233e-08 -6.072833e-09)) ((-2.110049e-11 -1.376507e-13 8.417013e-14) (7.945827e-09 -2.539707e-13 4.959718e-13))
3509.796083   	((3.808781e-11 2.266689e-08 -1.313961e-08) (7.268284e-12 5.222239e-08 -6.085217e-09)) ((-2.110053e-11 -1.377103e-13 8.416258e-14) (7.945284e-09 -2.552518e-13 4.989770e-13))
3683.131328   	((3.815151e-11 2.266219e-08 -1.316603e-08) (7.290400e-12 5.221388e-08 -6.096070e-09)) ((-2.110057e-11 -1.377606e-13 8.415703e-14) (7.944837e-09 -2.567877e-13 5.021314e-13))
3856.467189   	((3.816707e-11 2.265805e-08 -1.318914e-08) (7.309555e-12 5.220661e-08 -6.105627e-09)) ((-2.110060e-11 -1.378038e-13 8.414891e-14) (7.944467e-09 -2.585938e-13 5.050932e-13))
4029.803565   	((3.820564e-11 2.265446e-08 -1.320929e-08) (7.332135e-12 5.220039e-08 -6.114069e-09)) ((-2.110064e-11 -1.378397e-13 8.414588e-14) (7.944158e-09 -2.604900e-13 5.078305e-13))
4203.140372   	((3.823964e-11 2.265131e-08 -1.322696e-08) (7.355873e-12 5.219504e-08 -6.121546e-09)) ((-2.110067e-11 -1.378695e-13 8.414094e-14) (7.943901e-09 -2.623098e-13 5.103363e-13))
4376.477545   	((3.826965e-11 2.264855e-08 -1.324245e-08) (7.375668e-12 5.219045e-08 -6.128180e-09)) ((-2.110069e-11 -1.378925e-13 8.413608e-14) (7.943684e-09 -2.638562e-13 5.124595e-13))
4549.81503    	((3.829248e-11 2.264611e-08 -1.325604e-08) (7.394496e-12 5.218649e-08 -6.134070e-09)) ((-2.110072e-11 -1.379100e-13 8.413160e-14) (7.943501e-09 -2.650383e-13 5.142516e-13))
4723.152782   	((3.834115e-11 2.264398e-08 -1.326804e-08) (7.415855e-12 5.218307e-08 -6.139308e-09)) ((-2.110074e-11 -1.379246e-13 8.412680e-14) (7.943345e-09 -2.661507e-13 5.159020e-13))
4896.490765   	((3.837203e-11 2.264208e-08 -1.327866e-08) (7.435541e-12 5.218010e-08 -6.143977e-09)) ((-2.110076e-11 -1.379386e-13 8.412245e-14) (7.943213e-09 -2.671723e-13 5.174774e-13))
5069.828948   	((3.838703e-11 2.264040e-08 -1.328807e-08) (7.454709e-12 5.217752e-08 -6.148144e-09)) ((-2.110078e-11 -1.379508e-13 8.411914e-14) (7.943100e-09 -2.681555e-13 5.190326e-13))
5243.167306   	((3.840364e-11 2.263890e-08 -1.329641e-08) (7.473809e-12 5.217527e-08 -6.151866e-09)) ((-2.110079e-11 -1.379618e-13 8.411587e-14) (7.943003e-09 -2.691018e-13 5.205417e-13))
5416.505817   	((3.841635e-11 2.263757e-08 -1.330381e-08) (7.493096e-12 5.217331e-08 -6.155192e-09)) ((-2.110081e-11 -1.379715e-13 8.411308e-14) (7.942919e-09 -2.700401e-13 5.219694e-13))
5589.844461   	((3.844049e-11 2.263638e-08 -1.331038e-08) (7.511557e-12 5.217158e-08 -6.158167e-09)) ((-2.110082e-11 -1.379802e-13 8.411082e-14) (7.942847e-09 -2.709441e-13 5.232793e-13))
5763.183223   	((3.845036e-11 2.263533e-08 -1.331624e-08) (7.528942e-12 5.217007e-08 -6.160830e-09)) ((-2.110083e-11 -1.379876e-13 8.410856e-14) (7.942784e-09 -2.717774e-13 5.244353e-13))
5936.52209    	((3.829652e-11 2.263434e-08 -1.332166e-08) (7.535237e-12 5.216874e-08 -6.163223e-09)) ((-2.110083e-11 -1.380035e-13 8.410169e-14) (7.942730e-09 -2.723124e-13 5.253644e-13))
6109.861048   	((3.823156e-11 2.263349e-08 -1.332641e-08) (7.551203e-12 5.216756e-08 -6.165372e-09)) ((-2.110084e-11 -1.380140e-13 8.410637e-14) (7.942682e-09 -2.731480e-13 5.263426e-13))
6283.200088   	((3.820256e-11 2.263273e-08 -1.333062e-08) (7.564490e-12 5.216653e-08 -6.167300e-09)) ((-2.110085e-11 -1.380210e-13 8.410676e-14) (7.942640e-09 -2.737863e-13 5.272086e-13))
6456.5392     	((3.826440e-11 2.263209e-08 -1.333427e-08) (7.580191e-12 5.216561e-08 -6.169029e-09)) ((-2.110086e-11 -1.380223e-13 8.410250e-14) (7.942604e-09 -2.743367e-13 5.279242e-13))
6629.878377   	((3.829548e-11 2.263150e-08 -1.333756e-08) (7.591662e-12 5.216480e-08 -6.170587e-09)) ((-2.110086e-11 -1.380258e-13 8.410126e-14) (7.942572e-09 -2.747522e-13 5.285743e-13))
6803.217611   	((3.822046e-11 2.263094e-08 -1.334061e-08) (7.596961e-12 5.216407e-08 -6.171993e-09)) ((-2.110087e-11 -1.380348e-13 8.410342e-14) (7.942543e-09 -2.750818e-13 5.291408e-13))
6976.556897   	((3.825196e-11 2.263047e-08 -1.334323e-08) (7.607953e-12 5.216342e-08 -6.173252e-09)) ((-2.110088e-11 -1.380361e-13 8.410151e-14) (7.942518e-09 -2.754039e-13 5.295652e-13))
7149.896228   	((3.822440e-11 2.263002e-08 -1.334551e-08) (7.613898e-12 5.216285e-08 -6.174388e-09)) ((-2.110088e-11 -1.380373e-13 8.409713e-14) (7.942496e-09 -2.756775e-13 5.299259e-13))
7323.2356     	((3.818609e-11 2.262963e-08 -1.334766e-08) (7.619483e-12 5.216233e-08 -6.175413e-09)) ((-2.110089e-11 -1.380404e-13 8.409598e-14) (7.942476e-09 -2.759404e-13 5.302415e-13))
7496.575009   	((3.815225e-11 2.262928e-08 -1.334960e-08) (7.624292e-12 5.216187e-08 -6.176337e-09)) ((-2.110089e-11 -1.380435e-13 8.409538e-14) (7.942459e-09 -2.761589e-13 5.305130e-13))
