# Forces      
# CofR        : (0.000000e+00 0.000000e+00 0.000000e+00)
# Time        forces(pressure viscous)	moments(pressure viscous)
0             	((0.000000e+00 0.000000e+00 0.000000e+00) (0.000000e+00 0.000000e+00 0.000000e+00)) ((0.000000e+00 0.000000e+00 0.000000e+00) (0.000000e+00 0.000000e+00 0.000000e+00))
0.012         	((6.757331e-05 -2.760159e-09 2.123546e-05) (1.664812e-04 -1.222223e-12 1.204300e-09)) ((1.127575e-12 -1.114457e-08 8.741101e-13) (1.015648e-13 -1.107907e-05 1.869284e-13))
0.0264        	((1.003254e-04 -5.624562e-08 3.344988e-05) (1.525335e-04 -1.200226e-11 -3.392343e-08)) ((7.038154e-13 5.163742e-09 2.238302e-13) (3.933313e-13 -1.016222e-05 -5.848967e-13))
0.04368       	((6.375216e-05 3.305114e-08 2.003706e-05) (1.382555e-04 2.957379e-11 -1.011549e-07)) ((1.275622e-12 3.333210e-09 6.515895e-13) (1.381654e-12 -9.227569e-06 -2.390952e-12))
0.064416      	((7.569781e-05 -4.173213e-08 2.462540e-05) (1.240572e-04 5.561208e-11 -1.968941e-07)) ((8.666943e-13 6.975186e-09 -1.623936e-13) (5.422519e-13 -8.302738e-06 -3.974567e-12))
0.0892992     	((5.418523e-05 2.003078e-08 1.697965e-05) (1.104340e-04 1.144730e-10 -3.165990e-07)) ((3.466796e-13 4.678808e-09 3.992105e-13) (1.071173e-13 -7.420501e-06 -4.579687e-12))
0.119159      	((5.705217e-05 -2.107055e-08 1.766975e-05) (9.787178e-05 1.425192e-10 -4.523822e-07)) ((6.410475e-13 5.829216e-09 3.071886e-14) (5.640752e-13 -6.612430e-06 -5.439218e-12))
0.154991      	((4.329193e-05 9.677028e-09 1.327742e-05) (8.672776e-05 1.545645e-10 -6.108752e-07)) ((-4.689730e-13 4.043752e-09 3.372339e-13) (2.010484e-12 -5.896214e-06 -5.829526e-12))
0.197989      	((4.346929e-05 -8.088692e-09 1.260455e-05) (7.705037e-05 1.487003e-10 -8.017632e-07)) ((5.825972e-13 4.836657e-09 2.350325e-14) (-5.450868e-13 -5.272665e-06 -4.871541e-12))
0.249587      	((3.505783e-05 3.275990e-09 9.938398e-06) (6.864836e-05 1.052052e-10 -1.022375e-06)) ((1.493275e-13 3.724858e-09 -1.475960e-14) (-4.000772e-12 -4.725100e-06 -2.457309e-12))
0.311504      	((3.395410e-05 -2.867422e-09 8.811338e-06) (6.119064e-05 8.537650e-11 -1.229024e-06)) ((3.158715e-13 4.180270e-09 -6.161315e-14) (-5.871700e-12 -4.234588e-06 -1.151774e-12))
0.385805      	((2.848276e-05 -1.204451e-09 6.984841e-06) (5.452942e-05 4.182741e-11 -1.443072e-06)) ((-3.952280e-15 3.571127e-09 -5.307620e-14) (-6.395954e-12 -3.794481e-06 -9.842087e-13))
0.474966      	((2.685212e-05 -1.866670e-09 5.797805e-06) (4.861983e-05 -6.058067e-12 -1.627979e-06)) ((-1.941983e-13 3.659622e-09 -2.101928e-13) (-4.656843e-12 -3.403601e-06 -3.692216e-13))
0.581959      	((2.317587e-05 -2.715185e-09 4.420298e-06) (4.342444e-05 -4.004976e-11 -1.795696e-06)) ((-3.534990e-13 3.311471e-09 -2.579134e-13) (-5.011038e-12 -3.060354e-06 -6.992011e-13))
0.710351      	((2.164156e-05 -4.754172e-10 3.363954e-06) (3.888625e-05 -3.909262e-11 -1.938709e-06)) ((-5.508305e-13 3.287981e-09 -2.343635e-13) (-7.889798e-12 -2.761237e-06 -2.599643e-12))
0.864421      	((1.903076e-05 -1.220073e-09 2.185112e-06) (3.491368e-05 -1.667873e-10 -2.063618e-06)) ((-4.390596e-13 3.094797e-09 -5.125066e-13) (-1.081258e-11 -2.500440e-06 -5.445299e-12))
1.049306      	((1.771873e-05 1.848161e-09 1.170582e-06) (3.141523e-05 -4.524137e-10 -2.172654e-06)) ((-6.717633e-13 3.072540e-09 -4.323267e-13) (-1.527915e-11 -2.272534e-06 -5.092260e-12))
1.271167      	((1.573223e-05 1.395257e-09 1.438912e-07) (2.831580e-05 -3.816800e-10 -2.277214e-06)) ((-2.809471e-13 2.913711e-09 -6.850120e-13) (-1.716635e-11 -2.072262e-06 -6.224456e-12))
1.5374        	((1.459735e-05 5.548559e-09 -7.782893e-07) (2.557488e-05 -1.743812e-10 -2.376099e-06)) ((-5.461384e-14 2.869109e-09 -8.479074e-13) (-1.176716e-11 -1.896371e-06 -1.315798e-11))
1.85688       	((1.318359e-05 7.252416e-10 -1.728962e-06) (2.317060e-05 1.416280e-10 -2.477930e-06)) ((-2.479946e-13 2.766718e-09 -5.275233e-13) (-3.696516e-12 -1.742709e-06 -2.336185e-11))
2.240256      	((1.235696e-05 -2.543578e-09 -2.633634e-06) (2.107995e-05 -9.499563e-11 -2.578714e-06)) ((-2.385306e-13 2.744736e-09 -5.911754e-13) (9.928732e-12 -1.609988e-06 -4.180146e-11))
2.700307      	((1.142711e-05 -1.183888e-08 -3.487022e-06) (1.927500e-05 -5.576552e-10 -2.692671e-06)) ((-1.176566e-13 2.693734e-09 -5.112736e-13) (1.391335e-11 -1.496070e-06 -5.959063e-11))
3.252369      	((1.092672e-05 -6.386447e-09 -4.303617e-06) (1.771762e-05 -6.392202e-10 -2.820854e-06)) ((-4.004134e-13 2.694658e-09 -2.535433e-13) (9.569498e-12 -1.398294e-06 -7.120918e-11))
3.914842      	((1.043513e-05 -1.027670e-08 -5.152595e-06) (1.636525e-05 -3.188654e-10 -2.964827e-06)) ((-3.686730e-13 2.691708e-09 2.212025e-13) (-8.584340e-13 -1.313814e-06 -7.230002e-11))
4.709811      	((1.018474e-05 -7.842514e-09 -6.042774e-06) (1.517954e-05 5.955465e-11 -3.128929e-06)) ((-3.942691e-13 2.714137e-09 3.855762e-13) (-7.654087e-12 -1.240128e-06 -6.566481e-11))
5.663773      	((9.931070e-06 -1.179781e-08 -6.943707e-06) (1.413033e-05 -5.494791e-11 -3.313065e-06)) ((-2.027882e-14 2.731369e-09 2.843078e-14) (-1.225259e-11 -1.175405e-06 -5.687196e-11))
6.808528      	((9.835466e-06 -1.101383e-08 -7.829262e-06) (1.319853e-05 -5.196113e-10 -3.513225e-06)) ((1.324510e-17 2.760870e-09 4.389232e-15) (-1.728777e-11 -1.118518e-06 -3.769446e-11))
8.182233      	((9.779278e-06 -1.406719e-08 -8.695554e-06) (1.237372e-05 -5.495852e-10 -3.728018e-06)) ((1.457384e-13 2.784662e-09 -2.229126e-13) (-1.015135e-11 -1.068561e-06 -1.003236e-11))
9.83068       	((9.900811e-06 -1.185710e-08 -9.587719e-06) (1.165115e-05 -6.840509e-10 -3.956972e-06)) ((1.421337e-13 2.816629e-09 -7.884211e-15) (8.702613e-12 -1.024908e-06 8.013252e-12))
11.808816     	((1.007613e-05 -1.130378e-08 -1.046678e-05) (1.102394e-05 -8.473272e-10 -4.201865e-06)) ((4.374814e-13 2.847014e-09 -1.386497e-13) (1.962313e-11 -9.870502e-07 1.473114e-11))
14.155        	((1.038005e-05 -1.016490e-08 -1.134229e-05) (1.049894e-05 -1.175956e-09 -4.454393e-06)) ((4.297888e-13 2.885786e-09 -8.640174e-14) (1.353324e-11 -9.548412e-07 1.222708e-11))
16.867996     	((1.072727e-05 -8.841853e-09 -1.213900e-05) (1.008497e-05 -1.795872e-09 -4.712833e-06)) ((3.436291e-13 2.925554e-09 -1.026480e-13) (-3.514490e-12 -9.281526e-07 6.451313e-12))
19.94688      	((1.116526e-05 -7.789947e-09 -1.282512e-05) (9.777797e-06 -2.341459e-09 -4.964277e-06)) ((2.368397e-13 2.966156e-09 -9.294571e-14) (-2.720196e-11 -9.066226e-07 6.682820e-12))
23.391056     	((1.164503e-05 -7.995947e-09 -1.341808e-05) (9.570508e-06 -2.893905e-09 -5.189450e-06)) ((2.229606e-13 3.005286e-09 -1.989469e-13) (-5.773372e-11 -8.898299e-07 7.858726e-12))
27.041709     	((1.211597e-05 -7.741819e-09 -1.395249e-05) (9.453239e-06 -3.408236e-09 -5.377295e-06)) ((1.754429e-13 3.041510e-09 -2.441740e-13) (-8.711665e-11 -8.774847e-07 9.708618e-13))
30.692357     	((1.252241e-05 -7.004238e-09 -1.440476e-05) (9.400809e-06 -3.800119e-09 -5.514779e-06)) ((1.895344e-13 3.073819e-09 -2.756826e-13) (-1.101340e-10 -8.689262e-07 -1.083496e-11))
34.344574     	((1.287456e-05 -6.162465e-09 -1.475675e-05) (9.386430e-06 -4.064176e-09 -5.600371e-06)) ((2.109728e-13 3.105401e-09 -2.401954e-13) (-1.257499e-10 -8.633116e-07 -2.497939e-11))
37.999968     	((1.315925e-05 -5.214291e-09 -1.503096e-05) (9.390928e-06 -4.232047e-09 -5.643504e-06)) ((2.286901e-13 3.135638e-09 -2.269072e-13) (-1.321580e-10 -8.598848e-07 -4.196687e-11))
41.657785     	((1.336289e-05 -5.400958e-09 -1.523837e-05) (9.400762e-06 -4.387209e-09 -5.657381e-06)) ((2.434857e-13 3.161823e-09 -1.863641e-13) (-1.346212e-10 -8.579393e-07 -5.999491e-11))
45.316394     	((1.348983e-05 -5.360107e-09 -1.539692e-05) (9.408106e-06 -4.567420e-09 -5.655299e-06)) ((2.316181e-13 3.182447e-09 -1.445727e-13) (-1.323353e-10 -8.568844e-07 -7.668472e-11))
48.942017     	((1.356590e-05 -6.044690e-09 -1.551495e-05) (9.410721e-06 -4.704494e-09 -5.648213e-06)) ((2.587770e-13 3.198476e-09 -1.070483e-13) (-1.270584e-10 -8.562802e-07 -9.024881e-11))
52.538898     	((1.361075e-05 -5.676364e-09 -1.561081e-05) (9.409842e-06 -4.828797e-09 -5.640773e-06)) ((2.747706e-13 3.209243e-09 -6.503419e-14) (-1.198276e-10 -8.559529e-07 -1.015640e-10))
56.11209      	((1.363323e-05 -6.134978e-09 -1.568871e-05) (9.407624e-06 -4.900217e-09 -5.633803e-06)) ((2.898280e-13 3.214511e-09 -1.825769e-14) (-1.163793e-10 -8.558481e-07 -1.102349e-10))
59.66765      	((1.364649e-05 -6.319105e-09 -1.575203e-05) (9.405618e-06 -4.940911e-09 -5.627511e-06)) ((2.699486e-13 3.217104e-09 2.325577e-14) (-1.168723e-10 -8.558879e-07 -1.164016e-10))
63.211778     	((1.365019e-05 -5.964046e-09 -1.580821e-05) (9.404488e-06 -4.959197e-09 -5.621340e-06)) ((2.358213e-13 3.218318e-09 4.465375e-14) (-1.196315e-10 -8.560227e-07 -1.203225e-10))
66.749723     	((1.364918e-05 -5.950687e-09 -1.585873e-05) (9.404298e-06 -4.980477e-09 -5.616679e-06)) ((2.194927e-13 3.218294e-09 5.961000e-14) (-1.230518e-10 -8.561406e-07 -1.230198e-10))
70.284553     	((1.364649e-05 -5.006717e-09 -1.590971e-05) (9.404858e-06 -4.969770e-09 -5.613108e-06)) ((2.012840e-13 3.218069e-09 7.841521e-14) (-1.233450e-10 -8.562285e-07 -1.259882e-10))
73.817878     	((1.363766e-05 -5.678885e-09 -1.595516e-05) (9.406110e-06 -4.978021e-09 -5.609916e-06)) ((2.258568e-13 3.217170e-09 7.610980e-14) (-1.243058e-10 -8.562849e-07 -1.292610e-10))
77.350453     	((1.362339e-05 -5.986408e-09 -1.599072e-05) (9.407587e-06 -5.004935e-09 -5.606898e-06)) ((2.267460e-13 3.216101e-09 7.554319e-14) (-1.263262e-10 -8.562954e-07 -1.327379e-10))
80.882471     	((1.360558e-05 -5.459251e-09 -1.602490e-05) (9.408813e-06 -4.975445e-09 -5.603683e-06)) ((2.006961e-13 3.214999e-09 7.672920e-14) (-1.245987e-10 -8.562807e-07 -1.361430e-10))
84.413856     	((1.358393e-05 -5.840813e-09 -1.605961e-05) (9.409473e-06 -4.977802e-09 -5.600208e-06)) ((2.008775e-13 3.213978e-09 7.405673e-14) (-1.233383e-10 -8.562382e-07 -1.386779e-10))
87.944376     	((1.355721e-05 -5.047645e-09 -1.609483e-05) (9.409301e-06 -4.950112e-09 -5.596376e-06)) ((2.011440e-13 3.212767e-09 6.724309e-14) (-1.202844e-10 -8.561630e-07 -1.405082e-10))
91.473691     	((1.353124e-05 -5.404488e-09 -1.612701e-05) (9.408370e-06 -4.922410e-09 -5.592316e-06)) ((2.343767e-13 3.211485e-09 6.005341e-14) (-1.182052e-10 -8.560643e-07 -1.414820e-10))
95.001453     	((1.350447e-05 -5.416447e-09 -1.615836e-05) (9.406892e-06 -4.888546e-09 -5.588302e-06)) ((2.433556e-13 3.210259e-09 5.935519e-14) (-1.165806e-10 -8.559512e-07 -1.415331e-10))
98.527448     	((1.348124e-05 -6.077270e-09 -1.618724e-05) (9.405143e-06 -4.880866e-09 -5.584423e-06)) ((2.535230e-13 3.209084e-09 4.828675e-14) (-1.167040e-10 -8.558361e-07 -1.408503e-10))
102.051682    	((1.345906e-05 -5.756241e-09 -1.621465e-05) (9.403320e-06 -4.864548e-09 -5.580857e-06)) ((2.489488e-13 3.207833e-09 2.713482e-14) (-1.165567e-10 -8.557279e-07 -1.398938e-10))
105.574345    	((1.344742e-05 -5.642691e-09 -1.623206e-05) (9.401828e-06 -4.842790e-09 -5.577885e-06)) ((2.480177e-13 3.206785e-09 1.816977e-14) (-1.156438e-10 -8.556478e-07 -1.390970e-10))
109.09572     	((1.344449e-05 -5.698679e-09 -1.624709e-05) (9.401157e-06 -4.831035e-09 -5.575711e-06)) ((2.427262e-13 3.205969e-09 9.892165e-15) (-1.142163e-10 -8.556166e-07 -1.387108e-10))
112.616094    	((1.344404e-05 -7.199516e-09 -1.625828e-05) (9.401381e-06 -4.864305e-09 -5.574429e-06)) ((2.516057e-13 3.205230e-09 7.717620e-15) (-1.148926e-10 -8.556288e-07 -1.386276e-10))
116.135684    	((1.344678e-05 -6.072841e-09 -1.627362e-05) (9.402524e-06 -4.862638e-09 -5.573782e-06)) ((2.333210e-13 3.204581e-09 6.109913e-15) (-1.141694e-10 -8.556784e-07 -1.387887e-10))
119.654611    	((1.344957e-05 -5.795887e-09 -1.628758e-05) (9.404495e-06 -4.828443e-09 -5.573375e-06)) ((2.264716e-13 3.203763e-09 1.038552e-14) (-1.125268e-10 -8.557571e-07 -1.389617e-10))
123.172893    	((1.345292e-05 -5.648607e-09 -1.629922e-05) (9.407168e-06 -4.798843e-09 -5.572983e-06)) ((2.251654e-13 3.203007e-09 9.692638e-15) (-1.111479e-10 -8.558646e-07 -1.395036e-10))
126.690499    	((1.345611e-05 -5.437170e-09 -1.630969e-05) (9.410397e-06 -4.767052e-09 -5.572455e-06)) ((2.255992e-13 3.202278e-09 8.355526e-15) (-1.100826e-10 -8.559985e-07 -1.404129e-10))
130.20738     	((1.345690e-05 -5.091782e-09 -1.631985e-05) (9.413915e-06 -4.724826e-09 -5.571707e-06)) ((2.244190e-13 3.201504e-09 3.241273e-15) (-1.090652e-10 -8.561479e-07 -1.417411e-10))
133.723474    	((1.345662e-05 -5.346077e-09 -1.632949e-05) (9.417526e-06 -4.699669e-09 -5.570776e-06)) ((2.293023e-13 3.200729e-09 -5.594654e-15) (-1.086897e-10 -8.563052e-07 -1.433387e-10))
137.238696    	((1.345462e-05 -5.647209e-09 -1.633845e-05) (9.421084e-06 -4.686458e-09 -5.569800e-06)) ((2.330081e-13 3.199977e-09 -1.502862e-14) (-1.086492e-10 -8.564616e-07 -1.449697e-10))
140.752929    	((1.345272e-05 -5.915475e-09 -1.634578e-05) (9.424562e-06 -4.680926e-09 -5.568906e-06)) ((2.291931e-13 3.199304e-09 -2.624739e-14) (-1.086663e-10 -8.566135e-07 -1.464589e-10))
144.266058    	((1.344962e-05 -5.907493e-09 -1.635127e-05) (9.427948e-06 -4.667261e-09 -5.568132e-06)) ((2.280449e-13 3.198605e-09 -3.096693e-14) (-1.081654e-10 -8.567574e-07 -1.477761e-10))
147.778024    	((1.344595e-05 -6.009451e-09 -1.635578e-05) (9.431183e-06 -4.661002e-09 -5.567432e-06)) ((2.217488e-13 3.197889e-09 -3.161034e-14) (-1.075132e-10 -8.568888e-07 -1.491869e-10))
151.288859    	((1.344195e-05 -5.778234e-09 -1.636465e-05) (9.434247e-06 -4.651384e-09 -5.566696e-06)) ((2.040213e-13 3.197007e-09 -4.086200e-14) (-1.061748e-10 -8.570098e-07 -1.506968e-10))
