# Forces      
# CofR        : (0.000000e+00 0.000000e+00 0.000000e+00)
# Time        forces(pressure viscous)	moments(pressure viscous)
0             	((0.000000e+00 0.000000e+00 0.000000e+00) (0.000000e+00 0.000000e+00 0.000000e+00)) ((0.000000e+00 0.000000e+00 0.000000e+00) (0.000000e+00 0.000000e+00 0.000000e+00))
0.012         	((-8.156931e-13 1.904795e-10 -2.478136e-12) (-2.436334e-14 2.136456e-12 -8.972191e-15)) ((-1.370052e-14 -5.006771e-17 -2.622034e-12) (4.079849e-14 1.116538e-15 -5.332231e-09))
0.0264        	((6.186468e-13 -6.908738e-11 5.731081e-12) (-2.759238e-14 2.279326e-12 -1.400421e-14)) ((-3.223326e-14 2.380644e-16 -7.860540e-13) (7.257686e-14 1.073261e-15 -4.666925e-09))
0.04368       	((-3.678298e-12 3.480225e-11 -3.470216e-12) (-3.475139e-14 1.494624e-12 -3.064848e-14)) ((1.482448e-14 -3.797236e-17 -4.113665e-13) (6.134415e-14 1.465613e-15 -4.035927e-09))
0.064416      	((-2.567871e-12 2.767432e-12 1.360426e-12) (-3.476684e-14 8.005104e-13 -2.478664e-14)) ((-4.136725e-15 -6.302494e-17 -2.757275e-13) (3.135315e-14 1.817021e-15 -3.456491e-09))
0.0892992     	((-3.710947e-12 1.677070e-11 -1.169546e-12) (-2.962146e-14 5.080330e-13 -1.391193e-15)) ((4.517271e-15 -3.220654e-16 -2.218361e-13) (1.504862e-14 1.786856e-15 -2.943941e-09))
0.119159      	((-1.471377e-12 1.436999e-12 -9.000538e-13) (-4.253046e-14 4.313564e-13 1.302487e-14)) ((2.767450e-15 -2.444264e-16 -1.759327e-13) (-5.959891e-15 2.174538e-15 -2.505437e-09))
0.154991      	((-2.779630e-12 1.401660e-11 -7.558101e-13) (-5.147281e-14 3.196961e-13 2.423141e-14)) ((2.645868e-15 -3.203640e-16 -1.404758e-13) (-2.122491e-14 2.392992e-15 -2.144172e-09))
0.197989      	((-2.615157e-12 1.090612e-11 -9.972972e-13) (-3.179798e-14 2.009549e-13 2.858381e-14)) ((2.092447e-15 -1.834610e-16 -1.097580e-13) (-2.901808e-14 1.181724e-15 -1.854053e-09))
0.249587      	((-3.550693e-12 1.264989e-11 -7.564802e-13) (3.701605e-15 6.954117e-14 2.551958e-14)) ((2.127354e-15 -1.090042e-16 -9.050842e-14) (-2.671905e-14 -7.940894e-16 -1.623252e-09))
0.311504      	((-5.780649e-12 1.643854e-11 -1.516821e-12) (2.762471e-14 -4.193468e-14 3.321221e-14)) ((1.525365e-15 2.656290e-17 -7.999613e-14) (-2.236600e-14 -2.073760e-15 -1.437794e-09))
0.385805      	((-6.972305e-12 2.121543e-11 -1.454416e-12) (2.508534e-14 4.430483e-14 4.311244e-14)) ((1.149162e-15 -2.226547e-17 -6.972402e-14) (-1.698213e-14 -2.566079e-15 -1.284995e-09))
0.474966      	((-9.533109e-12 2.571059e-11 -2.311476e-12) (6.193133e-14 1.180386e-13 3.960685e-14)) ((-1.278257e-16 5.983902e-17 -6.081705e-14) (-5.372702e-15 -3.012530e-15 -1.155344e-09))
0.581959      	((-1.259885e-11 3.327918e-11 -2.803152e-12) (1.026454e-13 2.223866e-13 1.694716e-14)) ((-7.133335e-16 1.893533e-17 -5.640546e-14) (1.757464e-14 -3.750903e-15 -1.042598e-09))
0.710351      	((-1.547554e-11 3.321365e-11 -3.470295e-12) (2.430455e-13 5.289177e-13 -3.063795e-14)) ((-1.458361e-15 -3.398646e-18 -5.367363e-14) (3.700021e-14 -6.195746e-15 -9.428862e-10))
0.864421      	((-1.741714e-11 2.674148e-11 -3.289966e-12) (5.236013e-13 4.095833e-13 -3.082787e-14)) ((-2.235258e-15 -1.232691e-16 -5.113530e-14) (3.343829e-14 -1.189253e-14 -8.537745e-10))
1.049306      	((-1.840297e-11 2.402602e-11 -2.932905e-12) (8.791269e-13 -3.153179e-13 -7.409828e-14)) ((-2.823207e-15 -2.264837e-16 -4.841329e-14) (1.276105e-14 -1.781299e-14 -7.737608e-10))
1.271167      	((-1.625856e-11 2.094902e-11 -3.300999e-12) (1.556914e-12 -1.317242e-12 -1.317284e-13)) ((-3.569888e-15 -3.799350e-16 -4.636809e-14) (-1.296744e-14 -3.129732e-14 -7.020849e-10))
1.5374        	((-1.242258e-11 2.046956e-11 -2.722571e-12) (2.611850e-12 -2.457113e-12 -1.294164e-13)) ((-3.194930e-15 -4.528961e-16 -4.489725e-14) (-4.140643e-14 -5.896672e-14 -6.383795e-10))
1.85688       	((-8.777917e-12 1.577195e-11 -1.525509e-12) (3.903617e-12 -3.313278e-12 -1.456932e-13)) ((-2.913938e-15 -5.687925e-16 -4.301815e-14) (-7.241272e-14 -9.105104e-14 -5.822947e-10))
2.240256      	((-4.687509e-12 1.046904e-11 -7.751881e-13) (5.475569e-12 -4.233238e-12 -2.096793e-13)) ((-3.381129e-15 -6.488620e-16 -4.069599e-14) (-1.120196e-13 -1.340639e-13 -5.332744e-10))
2.700307      	((-2.913300e-12 6.361186e-12 2.290774e-13) (7.140303e-12 -5.695435e-12 -3.772186e-13)) ((-3.132212e-15 -6.641362e-16 -3.866128e-14) (-1.644617e-13 -1.856446e-13 -4.904944e-10))
3.252369      	((1.517973e-13 3.559772e-12 -5.538662e-13) (8.733535e-12 -7.417450e-12 -5.272091e-13)) ((-2.589235e-15 -6.613509e-16 -3.602940e-14) (-2.124536e-13 -2.330827e-13 -4.529861e-10))
3.914842      	((3.231312e-13 -1.812560e-12 -2.214913e-13) (9.803933e-12 -8.871029e-12 -5.494326e-13)) ((-1.975254e-15 -5.247094e-16 -3.363562e-14) (-2.400882e-13 -2.640646e-13 -4.197685e-10))
4.709811      	((2.601944e-12 -5.887339e-12 2.186397e-13) (1.028037e-11 -9.770265e-12 -5.628063e-13)) ((-1.316688e-15 -2.632671e-16 -3.157337e-14) (-2.573953e-13 -2.803149e-13 -3.900065e-10))
5.663773      	((3.034566e-12 -2.637411e-12 1.978361e-13) (1.015098e-11 -9.882857e-12 -5.129677e-13)) ((-1.363962e-15 -6.816726e-17 -2.945181e-14) (-2.534614e-13 -2.814955e-13 -3.630905e-10))
6.808528      	((3.571342e-12 -2.619227e-12 -2.562582e-14) (9.337747e-12 -9.135060e-12 -4.593057e-13)) ((-1.253922e-15 2.070272e-17 -2.743889e-14) (-2.268420e-13 -2.632304e-13 -3.385405e-10))
8.182233      	((2.812811e-12 -1.805391e-12 -2.869354e-13) (8.068641e-12 -7.787198e-12 -3.872216e-13)) ((-8.597631e-16 1.728346e-16 -2.548794e-14) (-1.951131e-13 -2.293282e-13 -3.159874e-10))
9.83068       	((2.763232e-12 8.698617e-13 -3.609726e-13) (6.478946e-12 -6.226514e-12 -2.967815e-13)) ((-8.934458e-16 2.965199e-16 -2.367747e-14) (-1.559492e-13 -1.894991e-13 -2.952290e-10))
11.808816     	((2.359859e-13 4.552316e-12 -6.598376e-13) (4.861235e-12 -4.596005e-12 -3.085480e-13)) ((-4.769812e-16 4.505817e-16 -2.198437e-14) (-1.071185e-13 -1.478016e-13 -2.761742e-10))
14.182579     	((-3.353152e-13 2.900559e-12 -7.820091e-13) (3.449941e-12 -3.261889e-12 -2.908790e-13)) ((9.877288e-18 5.082297e-16 -2.036021e-14) (-6.502505e-14 -1.119908e-13 -2.587096e-10))
17.031095     	((-2.120886e-12 2.974652e-12 -1.366390e-12) (2.359820e-12 -2.252902e-12 -2.285051e-13)) ((4.379533e-16 4.157464e-16 -1.895090e-14) (-4.294101e-14 -8.382192e-14 -2.427223e-10))
20.449314     	((-2.523665e-12 3.466557e-12 -1.784971e-12) (1.712271e-12 -1.638173e-12 -1.341376e-13)) ((5.582051e-16 3.950090e-16 -1.762600e-14) (-3.245761e-14 -6.848117e-14 -2.281041e-10))
24.551176     	((-3.447471e-12 3.832034e-12 -1.956641e-12) (1.481899e-12 -1.442010e-12 9.878164e-15)) ((7.193123e-16 3.530598e-16 -1.645185e-14) (-3.358395e-14 -6.312851e-14 -2.147327e-10))
29.473411     	((-2.953464e-12 2.963390e-12 -2.147812e-12) (1.611141e-12 -1.677063e-12 1.127871e-13)) ((7.398291e-16 3.187034e-16 -1.543154e-14) (-4.167172e-14 -6.578002e-14 -2.024845e-10))
35.380094     	((-2.693512e-12 2.752250e-12 -2.306484e-12) (1.992127e-12 -2.238633e-12 2.665610e-13)) ((7.510282e-16 3.016863e-16 -1.453104e-14) (-5.882430e-14 -7.366488e-14 -1.912530e-10))
42.468112     	((-2.126767e-12 1.895614e-12 -2.443168e-12) (2.491940e-12 -2.909403e-12 4.103991e-13)) ((7.934955e-16 2.798039e-16 -1.371731e-14) (-7.818307e-14 -8.380287e-14 -1.809610e-10))
50.973735     	((-2.032532e-12 1.929491e-12 -2.618704e-12) (2.960667e-12 -3.468485e-12 5.332470e-13)) ((8.037680e-16 2.484148e-16 -1.294241e-14) (-9.461757e-14 -9.367490e-14 -1.715563e-10))
61.180482     	((-1.561199e-12 1.240687e-12 -2.742838e-12) (3.335665e-12 -3.929596e-12 6.542539e-13)) ((7.935776e-16 2.069686e-16 -1.221776e-14) (-1.085577e-13 -1.013863e-13 -1.629849e-10))
73.428578     	((-1.265090e-12 1.352995e-12 -2.860923e-12) (3.638769e-12 -4.256518e-12 7.723735e-13)) ((8.100080e-16 1.741682e-16 -1.156569e-14) (-1.177947e-13 -1.082378e-13 -1.551891e-10))
88.126294     	((-9.834117e-13 8.910924e-13 -2.957816e-12) (3.861320e-12 -4.445599e-12 8.845587e-13)) ((8.500809e-16 1.434184e-16 -1.098430e-14) (-1.224362e-13 -1.127316e-13 -1.481120e-10))
105.763553    	((-6.328406e-13 5.060233e-13 -3.063679e-12) (3.997382e-12 -4.584949e-12 1.009701e-12)) ((8.682181e-16 1.173796e-16 -1.047649e-14) (-1.267291e-13 -1.143924e-13 -1.416896e-10))
126.928263    	((-4.170135e-13 3.990224e-13 -3.284018e-12) (4.049230e-12 -4.663068e-12 1.146508e-12)) ((8.536550e-16 8.982585e-17 -1.002974e-14) (-1.292761e-13 -1.138289e-13 -1.358549e-10))
152.325916    	((-3.172622e-13 3.728350e-13 -3.477572e-12) (4.056154e-12 -4.659044e-12 1.287455e-12)) ((8.150282e-16 6.275121e-17 -9.622504e-15) (-1.294793e-13 -1.130255e-13 -1.305456e-10))
182.803099    	((-1.743138e-13 3.531212e-13 -3.659163e-12) (4.007991e-12 -4.614275e-12 1.413391e-12)) ((7.666346e-16 3.680735e-17 -9.234780e-15) (-1.281564e-13 -1.110654e-13 -1.257073e-10))
219.375719    	((2.315569e-14 2.172774e-13 -3.788295e-12) (3.900485e-12 -4.532632e-12 1.554708e-12)) ((7.493502e-16 2.510281e-17 -8.870565e-15) (-1.249808e-13 -1.070565e-13 -1.212924e-10))
263.262863    	((1.746058e-13 1.397193e-13 -3.996555e-12) (3.746084e-12 -4.396419e-12 1.691349e-12)) ((7.428011e-16 -1.589507e-18 -8.538108e-15) (-1.196994e-13 -1.018748e-13 -1.172611e-10))
315.927436    	((2.874488e-13 8.663176e-14 -4.213832e-12) (3.578200e-12 -4.239545e-12 1.816150e-12)) ((7.165446e-16 -2.559028e-17 -8.234334e-15) (-1.134052e-13 -9.651843e-14 -1.135785e-10))
379.124923    	((3.145810e-13 8.849611e-14 -4.479265e-12) (3.406868e-12 -4.059247e-12 1.952253e-12)) ((6.774161e-16 -5.455832e-17 -7.954416e-15) (-1.074536e-13 -9.143785e-14 -1.102167e-10))
454.961908    	((3.336837e-13 9.710583e-14 -4.624700e-12) (3.236986e-12 -3.858308e-12 2.088106e-12)) ((6.380271e-16 -6.753714e-17 -7.705022e-15) (-1.009445e-13 -8.685893e-14 -1.071532e-10))
545.966289    	((3.499813e-13 5.417376e-14 -4.749382e-12) (3.061305e-12 -3.640512e-12 2.222989e-12)) ((6.152683e-16 -7.133836e-17 -7.482955e-15) (-9.399928e-14 -8.180707e-14 -1.043674e-10))
655.171547    	((3.953315e-13 -5.695650e-14 -4.924322e-12) (2.882104e-12 -3.428488e-12 2.358199e-12)) ((6.019080e-16 -6.165582e-17 -7.282462e-15) (-8.758284e-14 -7.654783e-14 -1.018406e-10))
786.217856    	((4.413983e-13 -1.631215e-13 -5.112307e-12) (2.697526e-12 -3.220345e-12 2.497511e-12)) ((6.057093e-16 -6.102415e-17 -7.103000e-15) (-8.166610e-14 -7.110536e-14 -9.955528e-11))
943.473427    	((5.286329e-13 -2.160675e-13 -5.291742e-12) (2.515027e-12 -3.004833e-12 2.633547e-12)) ((6.183960e-16 -5.573481e-17 -6.946047e-15) (-7.560832e-14 -6.549399e-14 -9.749265e-11))
1132.180113   	((5.918649e-13 -3.045957e-13 -5.444240e-12) (2.331423e-12 -2.791769e-12 2.762118e-12)) ((6.331759e-16 -5.041845e-17 -6.793893e-15) (-6.951957e-14 -5.963119e-14 -9.563517e-11))
1358.628135   	((6.497626e-13 -4.010266e-13 -5.595110e-12) (2.156384e-12 -2.597806e-12 2.880779e-12)) ((6.433337e-16 -4.890492e-17 -6.652066e-15) (-6.412290e-14 -5.409218e-14 -9.396542e-11))
1630.365763   	((7.406271e-13 -4.862429e-13 -5.733015e-12) (1.990694e-12 -2.415277e-12 3.001199e-12)) ((6.537010e-16 -4.705967e-17 -6.523456e-15) (-5.914612e-14 -4.861695e-14 -9.246579e-11))
1956.450915   	((8.448580e-13 -5.304947e-13 -5.863815e-12) (1.831397e-12 -2.238435e-12 3.127753e-12)) ((6.584659e-16 -4.925579e-17 -6.409653e-15) (-5.441203e-14 -4.312073e-14 -9.111938e-11))
2347.753098   	((9.653625e-13 -5.797976e-13 -5.993579e-12) (1.692386e-12 -2.071141e-12 3.248048e-12)) ((6.610601e-16 -5.318388e-17 -6.307349e-15) (-4.975417e-14 -3.839195e-14 -8.991127e-11))
2817.315718   	((1.105557e-12 -6.230004e-13 -6.141340e-12) (1.567515e-12 -1.915955e-12 3.359526e-12)) ((6.599485e-16 -5.798821e-17 -6.215258e-15) (-4.553557e-14 -3.419541e-14 -8.882723e-11))
3380.790861   	((1.260144e-12 -6.558471e-13 -6.299613e-12) (1.454049e-12 -1.779470e-12 3.461294e-12)) ((6.540782e-16 -6.320625e-17 -6.129903e-15) (-4.174752e-14 -3.040265e-14 -8.785392e-11))
4056.961033   	((1.442166e-12 -6.835555e-13 -6.479323e-12) (1.352543e-12 -1.662853e-12 3.557023e-12)) ((6.506840e-16 -6.807319e-17 -6.053769e-15) (-3.850704e-14 -2.715426e-14 -8.697917e-11))
4868.36524    	((1.643787e-12 -6.806946e-13 -6.690857e-12) (1.266418e-12 -1.564455e-12 3.646451e-12)) ((6.491581e-16 -7.561218e-17 -5.987155e-15) (-3.572135e-14 -2.450385e-14 -8.619239e-11))
5842.050288   	((1.892936e-12 -6.781767e-13 -6.937509e-12) (1.193682e-12 -1.480094e-12 3.728744e-12)) ((6.494129e-16 -8.227739e-17 -5.926598e-15) (-3.341343e-14 -2.241048e-14 -8.548402e-11))
7010.472346   	((2.191722e-12 -6.603757e-13 -7.221407e-12) (1.132231e-12 -1.404354e-12 3.799599e-12)) ((6.507876e-16 -8.918236e-17 -5.869847e-15) (-3.143380e-14 -2.073531e-14 -8.484550e-11))
8412.578815   	((2.548123e-12 -6.178830e-13 -7.557772e-12) (1.080757e-12 -1.335687e-12 3.859104e-12)) ((6.529738e-16 -1.004020e-16 -5.817369e-15) (-2.977945e-14 -1.932132e-14 -8.426937e-11))
10095.106578  	((2.971478e-12 -5.448478e-13 -7.949644e-12) (1.038263e-12 -1.271005e-12 3.908443e-12)) ((6.534486e-16 -1.155712e-16 -5.769207e-15) (-2.832200e-14 -1.802957e-14 -8.374885e-11))
12114.139893  	((3.481069e-12 -4.523289e-13 -8.421445e-12) (1.003886e-12 -1.207406e-12 3.948860e-12)) ((6.548888e-16 -1.336039e-16 -5.725615e-15) (-2.685146e-14 -1.684875e-14 -8.327799e-11))
14536.979872  	((4.077517e-12 -3.488527e-13 -8.969261e-12) (9.769059e-13 -1.144709e-12 3.984454e-12)) ((6.565738e-16 -1.566114e-16 -5.686287e-15) (-2.532795e-14 -1.587873e-14 -8.285176e-11))
17444.387847  	((4.762642e-12 -2.185785e-13 -9.591995e-12) (9.562212e-13 -1.083754e-12 4.014526e-12)) ((6.586857e-16 -1.854540e-16 -5.651404e-15) (-2.382589e-14 -1.498278e-14 -8.246570e-11))
20933.277416  	((5.566784e-12 -7.470292e-14 -1.029612e-11) (9.428639e-13 -1.023734e-12 4.038386e-12)) ((6.605922e-16 -2.172372e-16 -5.620607e-15) (-2.242382e-14 -1.410957e-14 -8.211568e-11))
25119.944899  	((6.496784e-12 8.679341e-14 -1.109439e-11) (9.348351e-13 -9.671291e-13 4.053157e-12)) ((6.623886e-16 -2.509870e-16 -5.592456e-15) (-2.123034e-14 -1.319776e-14 -8.179818e-11))
30143.945879  	((7.566893e-12 2.713185e-13 -1.199577e-11) (9.323246e-13 -9.130988e-13 4.058923e-12)) ((6.669420e-16 -2.878167e-16 -5.565483e-15) (-2.011724e-14 -1.224824e-14 -8.150988e-11))
36172.747055  	((8.755610e-12 4.719384e-13 -1.296863e-11) (9.344477e-13 -8.617798e-13 4.057671e-12)) ((6.756800e-16 -3.261791e-16 -5.540252e-15) (-1.908187e-14 -1.127721e-14 -8.124790e-11))
43407.308466  	((1.004230e-11 6.819398e-13 -1.399398e-11) (9.409029e-13 -8.142860e-13 4.050778e-12)) ((6.843859e-16 -3.646241e-16 -5.516829e-15) (-1.826154e-14 -1.024693e-14 -8.100965e-11))
52088.782159  	((1.138451e-11 9.028736e-13 -1.504445e-11) (9.523146e-13 -7.707870e-13 4.041021e-12)) ((6.942093e-16 -4.016080e-16 -5.494885e-15) (-1.761494e-14 -9.268461e-15 -8.079281e-11))
62387.287017  	((1.278910e-11 1.127934e-12 -1.610867e-11) (9.682046e-13 -7.299070e-13 4.029657e-12)) ((7.055123e-16 -4.387974e-16 -5.473862e-15) (-1.709642e-14 -8.386535e-15 -8.059532e-11))
74302.838538  	((1.418406e-11 1.339680e-12 -1.711008e-11) (9.864988e-13 -6.911560e-13 4.017443e-12)) ((7.144200e-16 -4.706139e-16 -5.452929e-15) (-1.670655e-14 -7.579257e-15 -8.041530e-11))
87835.450546  	((1.555178e-11 1.533497e-12 -1.802656e-11) (1.004851e-12 -6.543512e-13 4.006807e-12)) ((7.207495e-16 -4.993106e-16 -5.433299e-15) (-1.642370e-14 -6.811058e-15 -8.025113e-11))
102985.135402 	((1.693863e-11 1.716442e-12 -1.887874e-11) (1.020775e-12 -6.205551e-13 3.998404e-12)) ((7.290694e-16 -5.270502e-16 -5.413528e-15) (-1.622154e-14 -6.013395e-15 -8.010143e-11))
119155.974912 	((1.831436e-11 1.901085e-12 -1.961270e-11) (1.034905e-12 -5.897905e-13 3.990561e-12)) ((7.351831e-16 -5.529530e-16 -5.394635e-15) (-1.605983e-14 -5.094182e-15 -7.996488e-11))
135326.915427 	((1.963854e-11 2.118665e-12 -2.024826e-11) (1.047415e-12 -5.620538e-13 3.984109e-12)) ((7.412413e-16 -5.772228e-16 -5.375924e-15) (-1.596388e-14 -4.123371e-15 -7.984021e-11))
151497.948878 	((2.088117e-11 2.351882e-12 -2.076105e-11) (1.056025e-12 -5.366230e-13 3.977788e-12)) ((7.469381e-16 -5.972639e-16 -5.359124e-15) (-1.590928e-14 -3.022569e-15 -7.972630e-11))
167669.068693 	((2.199486e-11 2.607668e-12 -2.115429e-11) (1.061418e-12 -5.136261e-13 3.972151e-12)) ((7.543928e-16 -6.145723e-16 -5.343022e-15) (-1.592971e-14 -1.903046e-15 -7.962219e-11))
183840.268577 	((2.298813e-11 2.902285e-12 -2.145484e-11) (1.064097e-12 -4.917078e-13 3.967790e-12)) ((7.625931e-16 -6.281641e-16 -5.328610e-15) (-1.599925e-14 -8.377581e-16 -7.952698e-11))
200011.542393 	((2.388433e-11 3.204680e-12 -2.167455e-11) (1.064866e-12 -4.710395e-13 3.965441e-12)) ((7.690212e-16 -6.419870e-16 -5.316096e-15) (-1.607056e-14 1.543958e-16 -7.943993e-11))
216182.884177 	((2.470150e-11 3.495644e-12 -2.182086e-11) (1.064625e-12 -4.538175e-13 3.965372e-12)) ((7.741346e-16 -6.557386e-16 -5.305299e-15) (-1.616533e-14 1.083474e-15 -7.936035e-11))
232354.28822  	((2.544377e-11 3.757899e-12 -2.190480e-11) (1.065113e-12 -4.389584e-13 3.966478e-12)) ((7.778412e-16 -6.684227e-16 -5.295913e-15) (-1.627807e-14 1.962161e-15 -7.928765e-11))
248525.74927  	((2.610801e-11 4.017671e-12 -2.194953e-11) (1.066817e-12 -4.259980e-13 3.969241e-12)) ((7.817277e-16 -6.797866e-16 -5.287784e-15) (-1.636760e-14 2.742341e-15 -7.922122e-11))
264697.262303 	((2.668630e-11 4.277875e-12 -2.196225e-11) (1.069289e-12 -4.144189e-13 3.973012e-12)) ((7.852594e-16 -6.905188e-16 -5.280599e-15) (-1.644168e-14 3.403018e-15 -7.916049e-11))
280868.822768 	((2.718316e-11 4.551845e-12 -2.196309e-11) (1.072593e-12 -4.045420e-13 3.978052e-12)) ((7.888646e-16 -7.002343e-16 -5.274002e-15) (-1.649862e-14 3.952169e-15 -7.910495e-11))
297040.426535 	((2.761170e-11 4.837959e-12 -2.195667e-11) (1.076476e-12 -3.957093e-13 3.983450e-12)) ((7.931838e-16 -7.087288e-16 -5.267798e-15) (-1.657594e-14 4.393729e-15 -7.905416e-11))
313212.069821 	((2.797761e-11 5.135394e-12 -2.194960e-11) (1.080488e-12 -3.882222e-13 3.988849e-12)) ((7.974566e-16 -7.165082e-16 -5.262452e-15) (-1.669118e-14 4.749607e-15 -7.900769e-11))
329383.749135 	((2.829087e-11 5.439649e-12 -2.194226e-11) (1.084681e-12 -3.814599e-13 3.994460e-12)) ((8.018461e-16 -7.237933e-16 -5.257805e-15) (-1.681799e-14 5.026098e-15 -7.896518e-11))
345555.46122  	((2.856758e-11 5.755930e-12 -2.193480e-11) (1.088974e-12 -3.746478e-13 4.000367e-12)) ((8.071555e-16 -7.305764e-16 -5.253701e-15) (-1.693103e-14 5.249021e-15 -7.892629e-11))
361727.203112 	((2.881887e-11 6.082328e-12 -2.192031e-11) (1.093998e-12 -3.676210e-13 4.006453e-12)) ((8.128819e-16 -7.369085e-16 -5.250018e-15) (-1.703569e-14 5.413768e-15 -7.889073e-11))
377898.972194 	((2.905149e-11 6.402484e-12 -2.189341e-11) (1.099993e-12 -3.600254e-13 4.012569e-12)) ((8.190893e-16 -7.433398e-16 -5.246586e-15) (-1.711011e-14 5.511481e-15 -7.885821e-11))
