# Forces      
# CofR        : (0.000000e+00 0.000000e+00 0.000000e+00)
# Time        forces(pressure viscous)	moments(pressure viscous)
0             	((0.000000e+00 0.000000e+00 0.000000e+00) (2.790632e-09 6.765488e-12 3.019468e-04)) ((0.000000e+00 0.000000e+00 0.000000e+00) (-1.789253e-12 1.717896e-10 -4.191414e-15))
0.012         	((3.888258e-06 6.411294e-07 2.594123e-02) (-3.466484e-11 2.896382e-09 2.525319e-04)) ((3.530983e-11 2.597550e-08 -1.970388e-12) (8.481242e-11 -4.473081e-10 -2.418328e-12))
0.0264        	((2.152019e-07 -5.223786e-07 -2.579178e-03) (-1.206464e-09 7.547879e-09 1.925875e-04)) ((2.549561e-11 -3.386106e-09 -8.208424e-12) (3.158166e-10 -4.076663e-10 -1.406294e-11))
0.04368       	((-1.612724e-07 1.225859e-06 -6.013264e-03) (-1.263153e-08 7.433670e-09 1.333958e-04)) ((2.242160e-10 -1.054620e-08 2.633814e-13) (1.795053e-10 6.467644e-10 -1.871108e-11))
0.064416      	((2.793028e-07 -3.927990e-07 -1.029015e-04) (-1.905672e-08 3.008491e-09 9.614982e-05)) ((2.870552e-11 -1.851948e-10 5.572562e-12) (3.080646e-11 8.721616e-10 -3.865484e-11))
0.0892992     	((3.706459e-08 -2.004988e-07 1.324032e-04) (-9.381712e-09 5.076272e-10 7.871812e-05)) ((-6.519439e-11 4.308341e-10 -7.062711e-12) (1.458055e-10 5.019151e-10 -5.058071e-11))
0.119159      	((1.312110e-07 -1.706495e-07 -2.264126e-05) (5.202240e-11 3.024956e-09 6.699205e-05)) ((2.389421e-12 -1.113831e-10 7.795769e-13) (2.452153e-10 3.160336e-10 -3.914571e-11))
0.154991      	((1.596719e-07 -1.661205e-07 -2.405153e-05) (5.104254e-09 5.728878e-09 5.753387e-05)) ((8.611795e-13 -7.177513e-11 -2.810140e-12) (3.329807e-10 -8.359850e-11 -3.384583e-11))
0.197989      	((2.468073e-07 -8.313656e-08 -4.152326e-06) (8.218584e-09 6.899025e-09 5.031632e-05)) ((-6.260189e-12 -1.669881e-10 -1.816604e-12) (4.056340e-10 -3.965971e-10 -3.601611e-11))
0.249587      	((1.755252e-07 -8.338623e-08 1.548727e-06) (1.123444e-08 8.285605e-09 4.444816e-05)) ((-2.279766e-12 -1.522907e-10 -9.249812e-13) (4.698503e-10 -6.447060e-10 -3.982968e-11))
0.311504      	((2.137857e-07 -3.217218e-08 8.458365e-07) (1.452300e-08 9.402822e-09 3.948970e-05)) ((-3.680067e-12 -1.750205e-10 -6.671653e-13) (5.521183e-10 -9.191557e-10 -4.004853e-11))
0.385805      	((1.585794e-07 -4.687558e-08 3.041908e-06) (1.632009e-08 1.021813e-08 3.522560e-05)) ((-1.699914e-12 -1.478788e-10 -5.743165e-13) (6.216044e-10 -1.103139e-09 -3.500005e-11))
0.474966      	((4.063036e-08 -1.427804e-08 2.386667e-06) (1.630261e-08 1.049324e-08 3.152418e-05)) ((-2.197507e-12 -1.618950e-10 -4.699109e-13) (6.661147e-10 -1.138092e-09 -2.497052e-11))
0.581959      	((1.406168e-07 -2.538294e-08 2.939007e-06) (1.607355e-08 1.018246e-08 2.830521e-05)) ((3.299478e-14 -1.331969e-10 -3.041701e-13) (6.601464e-10 -1.149541e-09 -1.158672e-11))
0.710351      	((5.671265e-08 -3.666389e-09 2.454830e-06) (1.585351e-08 9.959021e-09 2.553182e-05)) ((6.161079e-13 -1.354211e-10 -2.865001e-13) (6.488159e-10 -1.134064e-09 -8.554523e-12))
0.864421      	((1.416551e-07 -1.493638e-08 2.556161e-06) (1.700610e-08 9.963077e-09 2.317026e-05)) ((2.358752e-12 -1.150161e-10 -2.750192e-13) (6.524444e-10 -1.200481e-09 -1.691824e-11))
1.049306      	((3.747453e-08 5.445208e-09 2.273652e-06) (1.730111e-08 9.994253e-09 2.117608e-05)) ((1.982224e-12 -1.142731e-10 -1.499558e-13) (6.593331e-10 -1.197144e-09 -2.510406e-11))
1.271167      	((9.941708e-08 -8.403985e-09 2.288402e-06) (1.677575e-08 1.006848e-08 1.949589e-05)) ((2.357616e-12 -9.725474e-11 -1.837074e-15) (6.600204e-10 -1.179040e-09 -3.246651e-11))
1.5374        	((4.341293e-08 -4.636915e-09 2.050795e-06) (1.627271e-08 1.018630e-08 1.806815e-05)) ((3.597248e-13 -9.401581e-11 -1.054577e-13) (6.639770e-10 -1.186421e-09 -3.734900e-11))
1.85688       	((4.998953e-08 -1.099344e-08 1.867716e-06) (1.575616e-08 1.021651e-08 1.683992e-05)) ((-1.064315e-13 -8.516958e-11 -4.352715e-13) (6.677768e-10 -1.157174e-09 -4.473709e-11))
2.240256      	((2.735236e-08 -9.528636e-09 1.530726e-06) (1.460945e-08 9.668057e-09 1.576647e-05)) ((-6.452161e-13 -8.214093e-11 -4.742643e-13) (6.418686e-10 -1.085124e-09 -4.613421e-11))
2.700307      	((2.942698e-08 -1.075249e-08 1.288568e-06) (1.333514e-08 8.691098e-09 1.481826e-05)) ((-1.057953e-12 -7.680799e-11 -4.621791e-13) (5.948010e-10 -9.919740e-10 -3.863604e-11))
3.252369      	((2.640841e-08 -1.319209e-08 1.037962e-06) (1.170156e-08 7.379649e-09 1.397204e-05)) ((-1.481219e-12 -7.399517e-11 -4.078574e-13) (5.362788e-10 -9.037384e-10 -3.567017e-11))
3.914842      	((2.499451e-08 -1.693295e-08 7.563825e-07) (1.008221e-08 5.921222e-09 1.320912e-05)) ((-1.979244e-12 -7.134741e-11 -3.273458e-13) (4.783244e-10 -8.336358e-10 -3.047730e-11))
4.709811      	((1.971040e-08 -1.835099e-08 4.718106e-07) (8.445135e-09 4.102723e-09 1.251926e-05)) ((-1.904168e-12 -7.148248e-11 -2.283749e-13) (3.916039e-10 -7.502222e-10 -1.989109e-11))
5.663773      	((2.177055e-08 -1.947869e-08 2.347101e-07) (6.447894e-09 2.261389e-09 1.189711e-05)) ((-1.586855e-12 -7.202776e-11 -2.092496e-13) (2.927719e-10 -6.406521e-10 -1.421507e-11))
6.808528      	((1.461286e-08 -1.936250e-08 2.149936e-08) (4.990273e-09 1.037992e-09 1.134053e-05)) ((-1.344408e-12 -7.334030e-11 -1.157733e-13) (2.265960e-10 -5.477368e-10 -1.199307e-11))
8.182233      	((1.184462e-08 -2.000509e-08 -1.517389e-07) (4.145245e-09 2.624172e-10 1.084691e-05)) ((-1.088350e-12 -7.386182e-11 -1.283537e-13) (1.882687e-10 -4.948908e-10 -1.110887e-11))
9.83068       	((1.056118e-08 -1.950003e-08 -2.913344e-07) (3.623516e-09 -9.787102e-11 1.041474e-05)) ((-9.604530e-13 -7.460475e-11 -2.144494e-13) (1.730378e-10 -4.743844e-10 -9.583288e-12))
11.808816     	((1.194695e-08 -1.868054e-08 -4.004468e-07) (3.256280e-09 -3.260797e-10 1.004243e-05)) ((-7.662119e-13 -7.526706e-11 -2.037372e-13) (1.656577e-10 -4.676710e-10 -1.031359e-11))
14.182579     	((1.162262e-08 -1.926707e-08 -4.746082e-07) (2.984272e-09 -6.227708e-10 9.725932e-06)) ((-5.903546e-13 -7.526099e-11 -1.501846e-13) (1.508532e-10 -4.611362e-10 -1.265853e-11))
17.031095     	((9.595356e-09 -2.032969e-08 -5.289222e-07) (2.604069e-09 -1.166838e-09 9.461871e-06)) ((-2.847361e-13 -7.541519e-11 -1.844138e-13) (1.120516e-10 -4.372078e-10 -1.075752e-11))
20.408793     	((8.447783e-09 -2.081933e-08 -5.599027e-07) (2.239035e-09 -1.799458e-09 9.248957e-06)) ((-5.160621e-14 -7.573356e-11 -3.026556e-13) (5.505349e-11 -4.012890e-10 -9.233684e-12))
24.321041     	((6.855552e-09 -2.103403e-08 -5.801016e-07) (2.009893e-09 -2.320275e-09 9.086972e-06)) ((1.188997e-13 -7.627250e-11 -3.119591e-13) (-5.422080e-12 -3.601575e-10 -8.691430e-12))
28.772245     	((6.860254e-09 -1.996096e-08 -5.932788e-07) (1.846082e-09 -2.699346e-09 8.973959e-06)) ((1.968052e-13 -7.717148e-11 -3.294786e-13) (-6.214808e-11 -3.106613e-10 -8.710270e-12))
33.765594     	((7.097993e-09 -1.995494e-08 -5.964393e-07) (1.738335e-09 -2.958437e-09 8.906184e-06)) ((2.683818e-13 -7.817778e-11 -3.420219e-13) (-1.120628e-10 -2.653267e-10 -9.212521e-12))
39.206241     	((7.415704e-09 -1.962985e-08 -5.909475e-07) (1.663238e-09 -3.202764e-09 8.877496e-06)) ((2.748178e-13 -7.906007e-11 -3.563560e-13) (-1.555796e-10 -2.296710e-10 -9.526658e-12))
44.654762     	((7.456665e-09 -1.963498e-08 -5.885541e-07) (1.571756e-09 -3.450556e-09 8.880009e-06)) ((2.897759e-13 -8.000210e-11 -3.698160e-13) (-1.911904e-10 -2.022277e-10 -9.685204e-12))
50.100324     	((7.582118e-09 -1.978768e-08 -5.894810e-07) (1.452357e-09 -3.686835e-09 8.904885e-06)) ((3.083885e-13 -8.094871e-11 -3.796116e-13) (-2.213492e-10 -1.775543e-10 -9.885728e-12))
55.52253      	((8.357245e-09 -1.981711e-08 -5.876975e-07) (1.352441e-09 -3.875968e-09 8.943224e-06)) ((2.780323e-13 -8.169780e-11 -3.874594e-13) (-2.454642e-10 -1.573718e-10 -9.916708e-12))
60.906746     	((9.204085e-09 -1.973699e-08 -5.776327e-07) (1.312355e-09 -3.993710e-09 8.985695e-06)) ((2.192707e-13 -8.216899e-11 -3.851243e-13) (-2.625279e-10 -1.430965e-10 -9.816790e-12))
66.260474     	((9.586188e-09 -1.958995e-08 -5.543041e-07) (1.317979e-09 -4.034813e-09 9.024051e-06)) ((1.725269e-13 -8.229272e-11 -3.784498e-13) (-2.724611e-10 -1.343108e-10 -9.685970e-12))
71.596701     	((9.912851e-09 -1.926241e-08 -5.230319e-07) (1.353164e-09 -4.016061e-09 9.052683e-06)) ((1.173214e-13 -8.207121e-11 -3.643569e-13) (-2.756992e-10 -1.312032e-10 -9.391409e-12))
76.922695     	((9.892458e-09 -1.914155e-08 -4.942352e-07) (1.402752e-09 -3.954398e-09 9.069627e-06)) ((8.329119e-14 -8.170163e-11 -3.467439e-13) (-2.737144e-10 -1.328360e-10 -8.948175e-12))
82.237437     	((1.013751e-08 -1.821820e-08 -4.803564e-07) (1.463934e-09 -3.865791e-09 9.076590e-06)) ((2.141304e-14 -8.133621e-11 -3.368057e-13) (-2.673055e-10 -1.386089e-10 -8.608200e-12))
87.550999     	((9.840802e-09 -1.833709e-08 -4.811126e-07) (1.512092e-09 -3.769050e-09 9.077290e-06)) ((1.165889e-14 -8.112243e-11 -3.336002e-13) (-2.583867e-10 -1.460301e-10 -8.445747e-12))
92.868839     	((9.365000e-09 -1.880322e-08 -4.915083e-07) (1.534450e-09 -3.713995e-09 9.075542e-06)) ((5.752351e-15 -8.108417e-11 -3.340735e-13) (-2.506784e-10 -1.531081e-10 -8.365532e-12))
98.191541     	((8.976750e-09 -1.904042e-08 -5.009538e-07) (1.539685e-09 -3.693047e-09 9.073616e-06)) ((2.844944e-15 -8.113057e-11 -3.349456e-13) (-2.447224e-10 -1.590872e-10 -8.305465e-12))
103.517147    	((8.806650e-09 -1.911982e-08 -5.059411e-07) (1.534417e-09 -3.684906e-09 9.072288e-06)) ((6.711232e-15 -8.118029e-11 -3.348319e-13) (-2.401368e-10 -1.635241e-10 -8.294180e-12))
108.843697    	((8.787843e-09 -1.912392e-08 -5.058660e-07) (1.528985e-09 -3.681316e-09 9.071479e-06)) ((1.272605e-14 -8.119825e-11 -3.346498e-13) (-2.368733e-10 -1.665997e-10 -8.299870e-12))
114.170303    	((8.830637e-09 -1.908563e-08 -5.055377e-07) (1.527568e-09 -3.676421e-09 9.071039e-06)) ((1.887548e-14 -8.120864e-11 -3.348528e-13) (-2.346029e-10 -1.686763e-10 -8.312007e-12))
119.496844    	((8.886292e-09 -1.903744e-08 -5.051024e-07) (1.529806e-09 -3.670119e-09 9.070852e-06)) ((2.374411e-14 -8.121424e-11 -3.351438e-13) (-2.330824e-10 -1.700519e-10 -8.326390e-12))
124.823342    	((8.920001e-09 -1.900974e-08 -5.059239e-07) (1.533942e-09 -3.663013e-09 9.070901e-06)) ((2.636516e-14 -8.122883e-11 -3.352831e-13) (-2.320306e-10 -1.709962e-10 -8.340134e-12))
130.149727    	((8.938198e-09 -1.898394e-08 -5.056706e-07) (1.538638e-09 -3.655770e-09 9.071071e-06)) ((2.798313e-14 -8.123495e-11 -3.352797e-13) (-2.312643e-10 -1.716575e-10 -8.350600e-12))
135.475921    	((8.954854e-09 -1.896518e-08 -5.059021e-07) (1.542574e-09 -3.649199e-09 9.071301e-06)) ((2.873757e-14 -8.124147e-11 -3.352457e-13) (-2.306924e-10 -1.721186e-10 -8.356047e-12))
140.80191     	((8.958474e-09 -1.894978e-08 -5.052806e-07) (1.545658e-09 -3.643520e-09 9.071498e-06)) ((2.908774e-14 -8.123943e-11 -3.352090e-13) (-2.302545e-10 -1.724454e-10 -8.357860e-12))
146.127737    	((8.963682e-09 -1.894311e-08 -5.055464e-07) (1.547778e-09 -3.638831e-09 9.071672e-06)) ((2.926550e-14 -8.124211e-11 -3.351973e-13) (-2.299101e-10 -1.726887e-10 -8.357380e-12))
151.453449    	((8.960168e-09 -1.893630e-08 -5.050689e-07) (1.549245e-09 -3.635078e-09 9.071783e-06)) ((2.932366e-14 -8.123889e-11 -3.351637e-13) (-2.296425e-10 -1.728676e-10 -8.355591e-12))
156.779087    	((8.967762e-09 -1.892963e-08 -5.053985e-07) (1.550367e-09 -3.632072e-09 9.071865e-06)) ((2.943378e-14 -8.124081e-11 -3.351503e-13) (-2.294301e-10 -1.730127e-10 -8.353667e-12))
162.104684    	((8.963437e-09 -1.892639e-08 -5.049286e-07) (1.551323e-09 -3.629660e-09 9.071894e-06)) ((2.952992e-14 -8.123699e-11 -3.351301e-13) (-2.292672e-10 -1.731229e-10 -8.351561e-12))
167.43027     	((8.971104e-09 -1.892289e-08 -5.052738e-07) (1.552352e-09 -3.627590e-09 9.071914e-06)) ((2.971720e-14 -8.123902e-11 -3.351375e-13) (-2.291338e-10 -1.732234e-10 -8.350235e-12))
172.755859    	((8.970816e-09 -1.891904e-08 -5.048974e-07) (1.553443e-09 -3.625797e-09 9.071903e-06)) ((2.984211e-14 -8.123596e-11 -3.351338e-13) (-2.290265e-10 -1.733074e-10 -8.348804e-12))
178.081461    	((8.978285e-09 -1.891741e-08 -5.052880e-07) (1.554582e-09 -3.624220e-09 9.071903e-06)) ((2.997085e-14 -8.123861e-11 -3.351446e-13) (-2.289398e-10 -1.733827e-10 -8.348142e-12))
183.407076    	((8.978442e-09 -1.891361e-08 -5.049362e-07) (1.555724e-09 -3.622851e-09 9.071887e-06)) ((3.001158e-14 -8.123601e-11 -3.351453e-13) (-2.288685e-10 -1.734462e-10 -8.347373e-12))
188.7327      	((8.984645e-09 -1.891225e-08 -5.053223e-07) (1.556775e-09 -3.621693e-09 9.071889e-06)) ((3.005553e-14 -8.123879e-11 -3.351569e-13) (-2.288081e-10 -1.735050e-10 -8.347236e-12))
194.058327    	((8.983758e-09 -1.890934e-08 -5.049670e-07) (1.557692e-09 -3.620781e-09 9.071877e-06)) ((3.005707e-14 -8.123627e-11 -3.351526e-13) (-2.287627e-10 -1.735489e-10 -8.346959e-12))
199.383958    	((8.987633e-09 -1.890950e-08 -5.053388e-07) (1.558402e-09 -3.620081e-09 9.071883e-06)) ((3.008488e-14 -8.123898e-11 -3.351614e-13) (-2.287263e-10 -1.735868e-10 -8.347034e-12))
204.709587    	((8.985524e-09 -1.890776e-08 -5.049719e-07) (1.558974e-09 -3.619574e-09 9.071874e-06)) ((3.008588e-14 -8.123640e-11 -3.351554e-13) (-2.287010e-10 -1.736124e-10 -8.346866e-12))
210.035216    	((8.988193e-09 -1.890875e-08 -5.053404e-07) (1.559356e-09 -3.619212e-09 9.071883e-06)) ((3.011404e-14 -8.123908e-11 -3.351631e-13) (-2.286811e-10 -1.736343e-10 -8.347003e-12))
215.360844    	((8.985817e-09 -1.890734e-08 -5.049719e-07) (1.559661e-09 -3.618967e-09 9.071875e-06)) ((3.010791e-14 -8.123646e-11 -3.351568e-13) (-2.286686e-10 -1.736473e-10 -8.346854e-12))
220.686472    	((8.987958e-09 -1.890871e-08 -5.053398e-07) (1.559833e-09 -3.618800e-09 9.071884e-06)) ((3.013158e-14 -8.123913e-11 -3.351635e-13) (-2.286583e-10 -1.736592e-10 -8.346999e-12))
226.012098    	((8.985629e-09 -1.890739e-08 -5.049712e-07) (1.559987e-09 -3.618695e-09 9.071877e-06)) ((3.012055e-14 -8.123650e-11 -3.351568e-13) (-2.286528e-10 -1.736649e-10 -8.346843e-12))
231.337725    	((8.987582e-09 -1.890891e-08 -5.053382e-07) (1.560049e-09 -3.618626e-09 9.071885e-06)) ((3.014220e-14 -8.123914e-11 -3.351634e-13) (-2.286476e-10 -1.736715e-10 -8.346985e-12))
236.663351    	((8.985378e-09 -1.890759e-08 -5.049698e-07) (1.560126e-09 -3.618586e-09 9.071878e-06)) ((3.012869e-14 -8.123650e-11 -3.351565e-13) (-2.286456e-10 -1.736733e-10 -8.346838e-12))
241.988977    	((8.987269e-09 -1.890911e-08 -5.053372e-07) (1.560134e-09 -3.618562e-09 9.071886e-06)) ((3.014891e-14 -8.123914e-11 -3.351632e-13) (-2.286429e-10 -1.736770e-10 -8.346983e-12))
247.314602    	((8.985214e-09 -1.890772e-08 -5.049689e-07) (1.560176e-09 -3.618550e-09 9.071878e-06)) ((3.013345e-14 -8.123650e-11 -3.351565e-13) (-2.286426e-10 -1.736770e-10 -8.346837e-12))
252.640228    	((8.987041e-09 -1.890927e-08 -5.053372e-07) (1.560159e-09 -3.618544e-09 9.071886e-06)) ((3.015294e-14 -8.123914e-11 -3.351632e-13) (-2.286411e-10 -1.736792e-10 -8.346982e-12))
257.965853    	((8.985108e-09 -1.890780e-08 -5.049685e-07) (1.560186e-09 -3.618543e-09 9.071878e-06)) ((3.013641e-14 -8.123650e-11 -3.351566e-13) (-2.286416e-10 -1.736783e-10 -8.346839e-12))
263.291479    	((8.986885e-09 -1.890934e-08 -5.053370e-07) (1.560157e-09 -3.618542e-09 9.071886e-06)) ((3.015517e-14 -8.123914e-11 -3.351632e-13) (-2.286405e-10 -1.736798e-10 -8.346984e-12))
268.617104    	((8.985028e-09 -1.890785e-08 -5.049685e-07) (1.560178e-09 -3.618543e-09 9.071878e-06)) ((3.013793e-14 -8.123650e-11 -3.351566e-13) (-2.286413e-10 -1.736784e-10 -8.346842e-12))
273.94273     	((8.986768e-09 -1.890938e-08 -5.053369e-07) (1.560146e-09 -3.618544e-09 9.071886e-06)) ((3.015616e-14 -8.123914e-11 -3.351633e-13) (-2.286404e-10 -1.736797e-10 -8.346988e-12))
279.268356    	((8.984967e-09 -1.890787e-08 -5.049685e-07) (1.560166e-09 -3.618546e-09 9.071878e-06)) ((3.013851e-14 -8.123650e-11 -3.351567e-13) (-2.286412e-10 -1.736781e-10 -8.346846e-12))
284.593982    	((8.986677e-09 -1.890940e-08 -5.053369e-07) (1.560133e-09 -3.618547e-09 9.071886e-06)) ((3.015654e-14 -8.123914e-11 -3.351633e-13) (-2.286404e-10 -1.736793e-10 -8.346991e-12))
289.919607    	((8.984921e-09 -1.890788e-08 -5.049686e-07) (1.560153e-09 -3.618548e-09 9.071878e-06)) ((3.013872e-14 -8.123650e-11 -3.351567e-13) (-2.286412e-10 -1.736777e-10 -8.346848e-12))
295.245233    	((8.986607e-09 -1.890942e-08 -5.053371e-07) (1.560120e-09 -3.618549e-09 9.071886e-06)) ((3.015667e-14 -8.123914e-11 -3.351633e-13) (-2.286405e-10 -1.736789e-10 -8.346993e-12))
300.570858    	((8.984890e-09 -1.890788e-08 -5.049684e-07) (1.560142e-09 -3.618550e-09 9.071878e-06)) ((3.013877e-14 -8.123650e-11 -3.351567e-13) (-2.286413e-10 -1.736773e-10 -8.346849e-12))
305.896485    	((8.986555e-09 -1.890942e-08 -5.053371e-07) (1.560110e-09 -3.618550e-09 9.071886e-06)) ((3.015669e-14 -8.123914e-11 -3.351633e-13) (-2.286405e-10 -1.736785e-10 -8.346994e-12))
311.22211     	((8.984868e-09 -1.890788e-08 -5.049683e-07) (1.560133e-09 -3.618551e-09 9.071878e-06)) ((3.013877e-14 -8.123650e-11 -3.351567e-13) (-2.286413e-10 -1.736770e-10 -8.346850e-12))
316.547736    	((8.986514e-09 -1.890943e-08 -5.053371e-07) (1.560101e-09 -3.618551e-09 9.071886e-06)) ((3.015670e-14 -8.123914e-11 -3.351633e-13) (-2.286405e-10 -1.736781e-10 -8.346994e-12))
321.873361    	((8.984851e-09 -1.890789e-08 -5.049683e-07) (1.560126e-09 -3.618552e-09 9.071878e-06)) ((3.013877e-14 -8.123650e-11 -3.351567e-13) (-2.286413e-10 -1.736767e-10 -8.346850e-12))
327.198987    	((8.986481e-09 -1.890943e-08 -5.053370e-07) (1.560095e-09 -3.618552e-09 9.071886e-06)) ((3.015670e-14 -8.123914e-11 -3.351633e-13) (-2.286406e-10 -1.736779e-10 -8.346994e-12))
332.524613    	((8.984837e-09 -1.890789e-08 -5.049683e-07) (1.560120e-09 -3.618553e-09 9.071878e-06)) ((3.013876e-14 -8.123650e-11 -3.351567e-13) (-2.286414e-10 -1.736764e-10 -8.346850e-12))
337.850239    	((8.986453e-09 -1.890944e-08 -5.053370e-07) (1.560089e-09 -3.618553e-09 9.071886e-06)) ((3.015669e-14 -8.123914e-11 -3.351633e-13) (-2.286406e-10 -1.736776e-10 -8.346994e-12))
343.175864    	((8.984826e-09 -1.890789e-08 -5.049683e-07) (1.560115e-09 -3.618553e-09 9.071878e-06)) ((3.013875e-14 -8.123650e-11 -3.351567e-13) (-2.286414e-10 -1.736762e-10 -8.346850e-12))
348.50149     	((8.986430e-09 -1.890944e-08 -5.053369e-07) (1.560084e-09 -3.618553e-09 9.071886e-06)) ((3.015668e-14 -8.123914e-11 -3.351633e-13) (-2.286406e-10 -1.736774e-10 -8.346994e-12))
353.827115    	((8.984816e-09 -1.890789e-08 -5.049683e-07) (1.560111e-09 -3.618554e-09 9.071878e-06)) ((3.013873e-14 -8.123650e-11 -3.351567e-13) (-2.286414e-10 -1.736761e-10 -8.346850e-12))
359.152742    	((8.986411e-09 -1.890944e-08 -5.053369e-07) (1.560081e-09 -3.618554e-09 9.071886e-06)) ((3.015667e-14 -8.123914e-11 -3.351633e-13) (-2.286406e-10 -1.736773e-10 -8.346994e-12))
364.478367    	((8.984808e-09 -1.890789e-08 -5.049683e-07) (1.560107e-09 -3.618554e-09 9.071878e-06)) ((3.013872e-14 -8.123650e-11 -3.351567e-13) (-2.286414e-10 -1.736759e-10 -8.346850e-12))
369.803993    	((8.986394e-09 -1.890945e-08 -5.053369e-07) (1.560077e-09 -3.618554e-09 9.071886e-06)) ((3.015666e-14 -8.123914e-11 -3.351633e-13) (-2.286407e-10 -1.736771e-10 -8.346994e-12))
375.129618    	((8.984801e-09 -1.890789e-08 -5.049684e-07) (1.560104e-09 -3.618555e-09 9.071878e-06)) ((3.013871e-14 -8.123650e-11 -3.351567e-13) (-2.286415e-10 -1.736758e-10 -8.346850e-12))
380.455245    	((8.986380e-09 -1.890945e-08 -5.053369e-07) (1.560074e-09 -3.618555e-09 9.071886e-06)) ((3.015665e-14 -8.123914e-11 -3.351634e-13) (-2.286407e-10 -1.736770e-10 -8.346994e-12))
385.78087     	((8.984795e-09 -1.890789e-08 -5.049684e-07) (1.560102e-09 -3.618555e-09 9.071878e-06)) ((3.013870e-14 -8.123650e-11 -3.351567e-13) (-2.286415e-10 -1.736757e-10 -8.346850e-12))
391.106496    	((8.986368e-09 -1.890945e-08 -5.053368e-07) (1.560072e-09 -3.618555e-09 9.071886e-06)) ((3.015664e-14 -8.123914e-11 -3.351634e-13) (-2.286407e-10 -1.736769e-10 -8.346994e-12))
396.432121    	((8.984790e-09 -1.890789e-08 -5.049684e-07) (1.560100e-09 -3.618555e-09 9.071878e-06)) ((3.013870e-14 -8.123650e-11 -3.351567e-13) (-2.286415e-10 -1.736756e-10 -8.346850e-12))
401.757747    	((8.986358e-09 -1.890945e-08 -5.053368e-07) (1.560070e-09 -3.618555e-09 9.071886e-06)) ((3.015664e-14 -8.123914e-11 -3.351634e-13) (-2.286407e-10 -1.736769e-10 -8.346994e-12))
407.083373    	((8.984786e-09 -1.890789e-08 -5.049684e-07) (1.560098e-09 -3.618556e-09 9.071878e-06)) ((3.013869e-14 -8.123650e-11 -3.351567e-13) (-2.286415e-10 -1.736755e-10 -8.346850e-12))
412.408999    	((8.986350e-09 -1.890945e-08 -5.053368e-07) (1.560068e-09 -3.618556e-09 9.071886e-06)) ((3.015663e-14 -8.123914e-11 -3.351634e-13) (-2.286407e-10 -1.736768e-10 -8.346994e-12))
417.734624    	((8.984783e-09 -1.890790e-08 -5.049684e-07) (1.560097e-09 -3.618556e-09 9.071878e-06)) ((3.013868e-14 -8.123650e-11 -3.351567e-13) (-2.286415e-10 -1.736755e-10 -8.346850e-12))
423.06025     	((8.986343e-09 -1.890945e-08 -5.053368e-07) (1.560067e-09 -3.618556e-09 9.071886e-06)) ((3.015663e-14 -8.123914e-11 -3.351634e-13) (-2.286407e-10 -1.736767e-10 -8.346994e-12))
428.385876    	((8.984780e-09 -1.890790e-08 -5.049684e-07) (1.560095e-09 -3.618556e-09 9.071878e-06)) ((3.013868e-14 -8.123650e-11 -3.351567e-13) (-2.286415e-10 -1.736754e-10 -8.346850e-12))
433.711502    	((8.986337e-09 -1.890945e-08 -5.053368e-07) (1.560066e-09 -3.618556e-09 9.071886e-06)) ((3.015662e-14 -8.123914e-11 -3.351634e-13) (-2.286407e-10 -1.736767e-10 -8.346994e-12))
439.037127    	((8.984777e-09 -1.890790e-08 -5.049684e-07) (1.560094e-09 -3.618556e-09 9.071878e-06)) ((3.013867e-14 -8.123650e-11 -3.351567e-13) (-2.286415e-10 -1.736754e-10 -8.346850e-12))
444.362753    	((8.986332e-09 -1.890946e-08 -5.053368e-07) (1.560065e-09 -3.618556e-09 9.071886e-06)) ((3.015662e-14 -8.123914e-11 -3.351634e-13) (-2.286407e-10 -1.736766e-10 -8.346994e-12))
449.688379    	((8.984775e-09 -1.890790e-08 -5.049684e-07) (1.560093e-09 -3.618556e-09 9.071878e-06)) ((3.013867e-14 -8.123650e-11 -3.351567e-13) (-2.286415e-10 -1.736753e-10 -8.346850e-12))
455.014005    	((8.986328e-09 -1.890946e-08 -5.053368e-07) (1.560064e-09 -3.618556e-09 9.071886e-06)) ((3.015662e-14 -8.123914e-11 -3.351634e-13) (-2.286407e-10 -1.736766e-10 -8.346994e-12))
460.33963     	((8.984773e-09 -1.890790e-08 -5.049684e-07) (1.560093e-09 -3.618556e-09 9.071878e-06)) ((3.013867e-14 -8.123650e-11 -3.351567e-13) (-2.286415e-10 -1.736753e-10 -8.346850e-12))
465.665256    	((8.986325e-09 -1.890946e-08 -5.053368e-07) (1.560063e-09 -3.618557e-09 9.071886e-06)) ((3.015662e-14 -8.123914e-11 -3.351634e-13) (-2.286407e-10 -1.736766e-10 -8.346994e-12))
470.990881    	((8.984772e-09 -1.890790e-08 -5.049684e-07) (1.560092e-09 -3.618557e-09 9.071878e-06)) ((3.013867e-14 -8.123650e-11 -3.351567e-13) (-2.286415e-10 -1.736753e-10 -8.346850e-12))
476.316508    	((8.986322e-09 -1.890946e-08 -5.053368e-07) (1.560063e-09 -3.618557e-09 9.071886e-06)) ((3.015661e-14 -8.123914e-11 -3.351634e-13) (-2.286407e-10 -1.736766e-10 -8.346994e-12))
481.642133    	((8.984771e-09 -1.890790e-08 -5.049684e-07) (1.560091e-09 -3.618557e-09 9.071878e-06)) ((3.013866e-14 -8.123650e-11 -3.351567e-13) (-2.286415e-10 -1.736753e-10 -8.346850e-12))
486.967759    	((8.986319e-09 -1.890946e-08 -5.053368e-07) (1.560062e-09 -3.618557e-09 9.071886e-06)) ((3.015661e-14 -8.123914e-11 -3.351634e-13) (-2.286407e-10 -1.736765e-10 -8.346994e-12))
492.293384    	((8.984770e-09 -1.890790e-08 -5.049684e-07) (1.560091e-09 -3.618557e-09 9.071878e-06)) ((3.013866e-14 -8.123650e-11 -3.351567e-13) (-2.286415e-10 -1.736753e-10 -8.346850e-12))
497.619011    	((8.986317e-09 -1.890946e-08 -5.053367e-07) (1.560062e-09 -3.618557e-09 9.071886e-06)) ((3.015661e-14 -8.123914e-11 -3.351634e-13) (-2.286407e-10 -1.736765e-10 -8.346994e-12))
502.944636    	((8.984769e-09 -1.890790e-08 -5.049684e-07) (1.560091e-09 -3.618557e-09 9.071878e-06)) ((3.013866e-14 -8.123650e-11 -3.351567e-13) (-2.286415e-10 -1.736752e-10 -8.346850e-12))
508.270262    	((8.986315e-09 -1.890946e-08 -5.053367e-07) (1.560061e-09 -3.618557e-09 9.071886e-06)) ((3.015661e-14 -8.123914e-11 -3.351634e-13) (-2.286407e-10 -1.736765e-10 -8.346994e-12))
513.595887    	((8.984768e-09 -1.890790e-08 -5.049684e-07) (1.560090e-09 -3.618557e-09 9.071878e-06)) ((3.013866e-14 -8.123650e-11 -3.351567e-13) (-2.286415e-10 -1.736752e-10 -8.346850e-12))
518.921514    	((8.986314e-09 -1.890946e-08 -5.053367e-07) (1.560061e-09 -3.618557e-09 9.071886e-06)) ((3.015661e-14 -8.123914e-11 -3.351634e-13) (-2.286408e-10 -1.736765e-10 -8.346994e-12))
524.247139    	((8.984767e-09 -1.890790e-08 -5.049684e-07) (1.560090e-09 -3.618557e-09 9.071878e-06)) ((3.013866e-14 -8.123650e-11 -3.351567e-13) (-2.286415e-10 -1.736752e-10 -8.346850e-12))
529.572765    	((8.986312e-09 -1.890946e-08 -5.053367e-07) (1.560061e-09 -3.618557e-09 9.071886e-06)) ((3.015661e-14 -8.123914e-11 -3.351634e-13) (-2.286408e-10 -1.736765e-10 -8.346994e-12))
534.89839     	((8.984767e-09 -1.890790e-08 -5.049684e-07) (1.560090e-09 -3.618557e-09 9.071878e-06)) ((3.013866e-14 -8.123650e-11 -3.351567e-13) (-2.286415e-10 -1.736752e-10 -8.346850e-12))
540.224017    	((8.986311e-09 -1.890946e-08 -5.053367e-07) (1.560061e-09 -3.618557e-09 9.071886e-06)) ((3.015661e-14 -8.123914e-11 -3.351634e-13) (-2.286408e-10 -1.736765e-10 -8.346994e-12))
545.549642    	((8.984766e-09 -1.890790e-08 -5.049684e-07) (1.560090e-09 -3.618557e-09 9.071878e-06)) ((3.013866e-14 -8.123650e-11 -3.351567e-13) (-2.286415e-10 -1.736752e-10 -8.346850e-12))
550.875268    	((8.986310e-09 -1.890946e-08 -5.053367e-07) (1.560060e-09 -3.618557e-09 9.071886e-06)) ((3.015661e-14 -8.123914e-11 -3.351634e-13) (-2.286408e-10 -1.736765e-10 -8.346994e-12))
556.200893    	((8.984766e-09 -1.890790e-08 -5.049684e-07) (1.560089e-09 -3.618557e-09 9.071878e-06)) ((3.013866e-14 -8.123650e-11 -3.351567e-13) (-2.286415e-10 -1.736752e-10 -8.346850e-12))
561.52652     	((8.986310e-09 -1.890946e-08 -5.053367e-07) (1.560060e-09 -3.618557e-09 9.071886e-06)) ((3.015661e-14 -8.123914e-11 -3.351634e-13) (-2.286408e-10 -1.736765e-10 -8.346994e-12))
566.852145    	((8.984766e-09 -1.890790e-08 -5.049684e-07) (1.560089e-09 -3.618557e-09 9.071878e-06)) ((3.013865e-14 -8.123650e-11 -3.351567e-13) (-2.286415e-10 -1.736752e-10 -8.346850e-12))
572.177771    	((8.986309e-09 -1.890946e-08 -5.053367e-07) (1.560060e-09 -3.618557e-09 9.071886e-06)) ((3.015661e-14 -8.123914e-11 -3.351634e-13) (-2.286408e-10 -1.736764e-10 -8.346994e-12))
577.503396    	((8.984765e-09 -1.890790e-08 -5.049684e-07) (1.560089e-09 -3.618557e-09 9.071878e-06)) ((3.013865e-14 -8.123650e-11 -3.351567e-13) (-2.286415e-10 -1.736752e-10 -8.346850e-12))
582.829022    	((8.986309e-09 -1.890946e-08 -5.053367e-07) (1.560060e-09 -3.618557e-09 9.071886e-06)) ((3.015661e-14 -8.123914e-11 -3.351634e-13) (-2.286408e-10 -1.736764e-10 -8.346994e-12))
588.154648    	((8.984765e-09 -1.890790e-08 -5.049684e-07) (1.560089e-09 -3.618557e-09 9.071878e-06)) ((3.013865e-14 -8.123650e-11 -3.351567e-13) (-2.286415e-10 -1.736752e-10 -8.346850e-12))
593.480274    	((8.986308e-09 -1.890946e-08 -5.053367e-07) (1.560060e-09 -3.618557e-09 9.071886e-06)) ((3.015660e-14 -8.123914e-11 -3.351634e-13) (-2.286408e-10 -1.736764e-10 -8.346994e-12))
598.805899    	((8.984765e-09 -1.890790e-08 -5.049684e-07) (1.560089e-09 -3.618557e-09 9.071878e-06)) ((3.013865e-14 -8.123650e-11 -3.351567e-13) (-2.286416e-10 -1.736752e-10 -8.346850e-12))
604.131525    	((8.986308e-09 -1.890946e-08 -5.053367e-07) (1.560060e-09 -3.618557e-09 9.071886e-06)) ((3.015660e-14 -8.123914e-11 -3.351634e-13) (-2.286408e-10 -1.736764e-10 -8.346994e-12))
609.457151    	((8.984765e-09 -1.890790e-08 -5.049684e-07) (1.560089e-09 -3.618557e-09 9.071878e-06)) ((3.013865e-14 -8.123650e-11 -3.351567e-13) (-2.286416e-10 -1.736752e-10 -8.346850e-12))
614.782777    	((8.986307e-09 -1.890946e-08 -5.053367e-07) (1.560060e-09 -3.618557e-09 9.071886e-06)) ((3.015660e-14 -8.123914e-11 -3.351634e-13) (-2.286408e-10 -1.736764e-10 -8.346994e-12))
620.108402    	((8.984765e-09 -1.890790e-08 -5.049684e-07) (1.560089e-09 -3.618557e-09 9.071878e-06)) ((3.013865e-14 -8.123650e-11 -3.351567e-13) (-2.286416e-10 -1.736752e-10 -8.346850e-12))
625.434028    	((8.986307e-09 -1.890946e-08 -5.053367e-07) (1.560060e-09 -3.618557e-09 9.071886e-06)) ((3.015660e-14 -8.123914e-11 -3.351634e-13) (-2.286408e-10 -1.736764e-10 -8.346994e-12))
630.759654    	((8.984765e-09 -1.890790e-08 -5.049684e-07) (1.560089e-09 -3.618557e-09 9.071878e-06)) ((3.013865e-14 -8.123650e-11 -3.351567e-13) (-2.286416e-10 -1.736752e-10 -8.346850e-12))
636.08528     	((8.986307e-09 -1.890946e-08 -5.053367e-07) (1.560060e-09 -3.618557e-09 9.071886e-06)) ((3.015660e-14 -8.123914e-11 -3.351634e-13) (-2.286408e-10 -1.736764e-10 -8.346994e-12))
641.410905    	((8.984765e-09 -1.890790e-08 -5.049684e-07) (1.560089e-09 -3.618557e-09 9.071878e-06)) ((3.013865e-14 -8.123650e-11 -3.351567e-13) (-2.286416e-10 -1.736752e-10 -8.346850e-12))
646.736531    	((8.986307e-09 -1.890946e-08 -5.053367e-07) (1.560060e-09 -3.618557e-09 9.071886e-06)) ((3.015660e-14 -8.123914e-11 -3.351634e-13) (-2.286408e-10 -1.736764e-10 -8.346994e-12))
652.062157    	((8.984764e-09 -1.890790e-08 -5.049684e-07) (1.560089e-09 -3.618557e-09 9.071878e-06)) ((3.013865e-14 -8.123650e-11 -3.351567e-13) (-2.286416e-10 -1.736752e-10 -8.346850e-12))
657.387783    	((8.986307e-09 -1.890946e-08 -5.053367e-07) (1.560060e-09 -3.618557e-09 9.071886e-06)) ((3.015660e-14 -8.123914e-11 -3.351634e-13) (-2.286408e-10 -1.736764e-10 -8.346994e-12))
662.713408    	((8.984764e-09 -1.890790e-08 -5.049684e-07) (1.560089e-09 -3.618557e-09 9.071878e-06)) ((3.013865e-14 -8.123650e-11 -3.351567e-13) (-2.286416e-10 -1.736752e-10 -8.346850e-12))
668.039034    	((8.986306e-09 -1.890946e-08 -5.053367e-07) (1.560060e-09 -3.618557e-09 9.071886e-06)) ((3.015660e-14 -8.123914e-11 -3.351634e-13) (-2.286408e-10 -1.736764e-10 -8.346994e-12))
673.36466     	((8.984764e-09 -1.890790e-08 -5.049684e-07) (1.560089e-09 -3.618557e-09 9.071878e-06)) ((3.013865e-14 -8.123650e-11 -3.351567e-13) (-2.286416e-10 -1.736752e-10 -8.346850e-12))