# Forces      
# CofR        : (0.000000e+00 0.000000e+00 0.000000e+00)
# Time        forces(pressure viscous)	moments(pressure viscous)
0             	((0.000000e+00 0.000000e+00 0.000000e+00) (2.518467e-02 -2.211303e-12 2.426745e-07)) ((0.000000e+00 0.000000e+00 0.000000e+00) (-5.735266e-14 -5.658674e-04 -2.779441e-13))
0.0112113     	((7.904110e+00 4.674547e-04 7.394906e-01) (5.381880e-02 -2.272992e-06 -7.683186e-03)) ((-2.160773e-08 1.140052e-04 -2.924709e-09) (-9.693809e-08 -1.774214e-03 1.304748e-07))
0.0246648     	((-3.644403e+00 -6.673035e-04 -2.283435e+00) (4.962260e-02 -3.576834e-06 -9.833378e-03)) ((3.293191e-09 -5.671830e-05 -2.088432e-08) (-9.408181e-08 -1.810800e-03 2.843845e-07))
0.0408091     	((7.491897e-01 3.050347e-04 -1.168665e+00) (4.050242e-02 -9.636397e-07 -7.026591e-03)) ((3.288603e-08 2.748044e-06 -1.237704e-08) (-7.522617e-08 -1.450196e-03 1.727206e-07))
0.0601822     	((-2.927905e-01 -4.810441e-04 -1.210157e+00) (3.743114e-02 -1.691003e-06 -6.588774e-03)) ((2.438017e-08 -6.048584e-06 -2.887250e-08) (-1.284709e-07 -1.335514e-03 1.200982e-07))
0.0829057     	((2.110752e-01 2.123834e-04 -1.111907e+00) (3.547413e-02 -1.047717e-06 -6.590750e-03)) ((-1.064032e-08 -8.417063e-07 -1.392975e-08) (-1.370847e-07 -1.267110e-03 1.382264e-07))
0.10896       	((-1.236029e-02 -5.448765e-05 -1.156316e+00) (3.471853e-02 6.718739e-07 -6.758232e-03)) ((2.517060e-09 -1.594208e-06 -6.383322e-09) (-1.193331e-07 -1.242815e-03 6.017358e-08))
0.138321      	((9.551753e-02 6.695206e-05 -1.122489e+00) (3.407635e-02 2.546461e-06 -7.072548e-03)) ((2.792252e-09 -4.634710e-07 -1.473597e-09) (-1.124834e-07 -1.215411e-03 1.014266e-08))
0.170955      	((5.327194e-02 -3.793680e-05 -1.142177e+00) (3.368426e-02 2.191728e-06 -7.395530e-03)) ((-1.479977e-09 9.886348e-08 -3.012567e-09) (-1.025978e-07 -1.199420e-03 -3.760268e-08))
0.20373       	((8.520105e-02 -5.078084e-05 -1.128843e+00) (3.346469e-02 1.042298e-06 -7.669768e-03)) ((4.576834e-09 6.680590e-07 -3.310562e-09) (-1.060017e-07 -1.189447e-03 -6.492061e-08))
0.236457      	((8.021103e-02 -7.806608e-05 -1.135617e+00) (3.334016e-02 1.629170e-06 -7.931542e-03)) ((2.289389e-09 1.080559e-06 -8.973582e-10) (-9.928707e-08 -1.182889e-03 -8.498815e-08))
0.26909       	((9.393360e-02 -1.577758e-04 -1.126366e+00) (3.324829e-02 2.883113e-07 -8.128844e-03)) ((1.097753e-09 1.534897e-06 -1.098037e-10) (-9.159394e-08 -1.176668e-03 -9.924951e-08))
0.301498      	((9.723620e-02 -2.324880e-04 -1.124284e+00) (3.314854e-02 -2.306724e-07 -8.263152e-03)) ((-1.615101e-09 1.908390e-06 1.926979e-09) (-9.273473e-08 -1.169948e-03 -9.144590e-08))
0.333726      	((1.035802e-01 -2.222101e-04 -1.114072e+00) (3.299467e-02 8.230840e-08 -8.347063e-03)) ((-1.448544e-09 2.326153e-06 3.955341e-09) (-8.893216e-08 -1.161950e-03 -9.275250e-08))
0.365836      	((1.059533e-01 -2.853982e-04 -1.108032e+00) (3.280171e-02 -6.313885e-07 -8.426015e-03)) ((7.421450e-09 2.698181e-06 3.589775e-10) (-9.700963e-08 -1.153395e-03 -8.340558e-08))
0.397958      	((1.079860e-01 -3.242528e-04 -1.098904e+00) (3.259063e-02 -6.914813e-07 -8.487034e-03)) ((-3.614534e-09 3.006505e-06 -1.138637e-09) (-1.060853e-07 -1.145001e-03 -6.885756e-08))
0.43017       	((1.082021e-01 -3.802767e-04 -1.091991e+00) (3.238640e-02 -1.187491e-06 -8.545032e-03)) ((6.356934e-09 3.299891e-06 -1.413824e-09) (-1.288102e-07 -1.137424e-03 -6.826914e-08))
0.462475      	((1.087121e-01 -4.386395e-04 -1.085259e+00) (3.220813e-02 -2.250869e-06 -8.599435e-03)) ((5.789337e-09 3.482217e-06 -2.565750e-09) (-1.593669e-07 -1.130863e-03 -7.285240e-08))
0.494837      	((1.080139e-01 -5.005642e-04 -1.079177e+00) (3.204611e-02 -2.542811e-06 -8.635491e-03)) ((1.043106e-08 3.651484e-06 -3.546327e-09) (-1.809851e-07 -1.124986e-03 -6.423714e-08))
0.527221      	((1.074658e-01 -5.594594e-04 -1.073648e+00) (3.189554e-02 -2.506543e-06 -8.670992e-03)) ((1.556899e-08 3.762404e-06 -4.016196e-09) (-2.032503e-07 -1.119543e-03 -3.658088e-08))
0.559621      	((1.065337e-01 -6.458213e-04 -1.068646e+00) (3.175869e-02 -2.828339e-06 -8.704581e-03)) ((9.113614e-09 3.827988e-06 -5.368612e-09) (-2.232434e-07 -1.114591e-03 -5.943266e-09))
0.592052      	((1.057033e-01 -7.672450e-04 -1.063509e+00) (3.162881e-02 -3.597333e-06 -8.731535e-03)) ((1.984781e-08 3.901076e-06 -4.966032e-09) (-2.493154e-07 -1.109837e-03 2.131682e-08))
0.624518      	((1.052435e-01 -8.640619e-04 -1.059258e+00) (3.150924e-02 -3.956963e-06 -8.761586e-03)) ((1.833585e-08 3.941377e-06 -4.194652e-09) (-2.732848e-07 -1.105349e-03 4.288875e-08))
0.657015      	((1.048988e-01 -9.819743e-04 -1.055246e+00) (3.140115e-02 -4.462616e-06 -8.786134e-03)) ((1.982017e-08 4.005552e-06 -2.512481e-09) (-2.976447e-07 -1.101332e-03 7.020288e-08))
0.689539      	((1.045345e-01 -1.115422e-03 -1.051753e+00) (3.130429e-02 -4.825849e-06 -8.806371e-03)) ((2.160150e-08 4.067938e-06 -1.676943e-09) (-3.271331e-07 -1.097835e-03 1.022024e-07))
0.722075      	((1.040534e-01 -1.270135e-03 -1.048361e+00) (3.121902e-02 -5.274900e-06 -8.821794e-03)) ((2.071281e-08 4.113052e-06 -6.104713e-10) (-3.558465e-07 -1.094879e-03 1.420694e-07))
0.754624      	((1.035304e-01 -1.434697e-03 -1.045033e+00) (3.114246e-02 -6.007434e-06 -8.832417e-03)) ((2.405335e-08 4.159980e-06 -6.191630e-10) (-3.923139e-07 -1.092304e-03 1.904925e-07))
0.787182      	((1.029848e-01 -1.616933e-03 -1.041969e+00) (3.107276e-02 -6.409191e-06 -8.842453e-03)) ((2.337685e-08 4.194441e-06 -9.597517e-10) (-4.328513e-07 -1.089960e-03 2.508966e-07))
0.819751      	((1.025080e-01 -1.810451e-03 -1.039299e+00) (3.100906e-02 -7.027276e-06 -8.852746e-03)) ((2.563020e-08 4.227971e-06 -1.661356e-09) (-4.779113e-07 -1.087792e-03 3.204047e-07))
0.852328      	((1.018968e-01 -2.044077e-03 -1.036684e+00) (3.094921e-02 -7.814391e-06 -8.863882e-03)) ((2.595027e-08 4.248455e-06 -3.366060e-09) (-5.289454e-07 -1.085705e-03 3.986057e-07))
0.884913      	((1.013564e-01 -2.319597e-03 -1.034326e+00) (3.089220e-02 -8.838024e-06 -8.875776e-03)) ((2.509301e-08 4.269218e-06 -4.742628e-09) (-5.849064e-07 -1.083678e-03 4.876307e-07))
0.917507      	((1.008752e-01 -2.641085e-03 -1.032158e+00) (3.083881e-02 -1.024446e-05 -8.887884e-03)) ((2.561900e-08 4.286716e-06 -6.367241e-09) (-6.488776e-07 -1.081776e-03 5.849034e-07))
0.950108      	((1.004295e-01 -2.987457e-03 -1.030142e+00) (3.078883e-02 -1.191607e-05 -8.898914e-03)) ((2.588168e-08 4.301408e-06 -8.593216e-09) (-7.183816e-07 -1.080015e-03 7.036965e-07))
0.982715      	((1.000462e-01 -3.394862e-03 -1.028315e+00) (3.074233e-02 -1.397962e-05 -8.909136e-03)) ((3.274852e-08 4.313138e-06 -1.064454e-08) (-8.010465e-07 -1.078407e-03 8.430001e-07))
1.015329      	((9.970136e-02 -3.841949e-03 -1.026634e+00) (3.069988e-02 -1.622370e-05 -8.918815e-03)) ((4.013749e-08 4.321576e-06 -1.280870e-08) (-9.006781e-07 -1.076954e-03 9.880139e-07))
1.047948      	((9.938272e-02 -4.339468e-03 -1.025067e+00) (3.066108e-02 -1.835846e-05 -8.927554e-03)) ((4.686644e-08 4.324627e-06 -1.532866e-08) (-1.011899e-06 -1.075627e-03 1.133536e-06))
1.080572      	((9.907517e-02 -4.900926e-03 -1.023620e+00) (3.062553e-02 -2.074131e-05 -8.935925e-03)) ((5.555054e-08 4.323923e-06 -1.733521e-08) (-1.137556e-06 -1.074411e-03 1.288960e-06))
1.1132        	((9.877848e-02 -5.548663e-03 -1.022261e+00) (3.059312e-02 -2.325262e-05 -8.943511e-03)) ((6.146950e-08 4.320223e-06 -1.870426e-08) (-1.276770e-06 -1.073308e-03 1.464507e-06))
1.145832      	((9.848893e-02 -6.291258e-03 -1.020993e+00) (3.056390e-02 -2.609412e-05 -8.949900e-03)) ((6.872101e-08 4.313963e-06 -2.041502e-08) (-1.428965e-06 -1.072321e-03 1.662955e-06))
1.178468      	((9.820695e-02 -7.141347e-03 -1.019818e+00) (3.053759e-02 -2.945597e-05 -8.955434e-03)) ((7.856948e-08 4.305624e-06 -2.244342e-08) (-1.602345e-06 -1.071448e-03 1.906713e-06))
1.211106      	((9.792324e-02 -8.099589e-03 -1.018722e+00) (3.051410e-02 -3.301176e-05 -8.959925e-03)) ((8.521245e-08 4.295611e-06 -2.439505e-08) (-1.793604e-06 -1.070681e-03 2.185183e-06))
1.243747      	((9.764906e-02 -9.194015e-03 -1.017722e+00) (3.049313e-02 -3.717911e-05 -8.963296e-03)) ((9.494220e-08 4.286229e-06 -2.677476e-08) (-2.006752e-06 -1.070012e-03 2.485817e-06))
1.276389      	((9.738305e-02 -1.042739e-02 -1.016813e+00) (3.047420e-02 -4.200434e-05 -8.965835e-03)) ((1.050787e-07 4.277861e-06 -2.940164e-08) (-2.249605e-06 -1.069427e-03 2.821431e-06))
1.309031      	((9.714536e-02 -1.180934e-02 -1.016012e+00) (3.045720e-02 -4.734359e-05 -8.967775e-03)) ((1.150233e-07 4.271593e-06 -3.189086e-08) (-2.524566e-06 -1.068917e-03 3.205218e-06))
1.341675      	((9.691051e-02 -1.337473e-02 -1.015296e+00) (3.044208e-02 -5.334208e-05 -8.969204e-03)) ((1.299581e-07 4.267095e-06 -3.449661e-08) (-2.838824e-06 -1.068481e-03 3.643694e-06))
1.374318      	((9.668710e-02 -1.513485e-02 -1.014655e+00) (3.042859e-02 -5.999824e-05 -8.970247e-03)) ((1.455266e-07 4.263831e-06 -3.733722e-08) (-3.198905e-06 -1.068111e-03 4.146521e-06))
1.406959      	((9.650065e-02 -1.710493e-02 -1.014089e+00) (3.041651e-02 -6.755663e-05 -8.970973e-03)) ((1.625619e-07 4.263148e-06 -4.042114e-08) (-3.608772e-06 -1.067796e-03 4.714487e-06))
1.439599      	((9.635724e-02 -1.929771e-02 -1.013610e+00) (3.040585e-02 -7.630377e-05 -8.971461e-03)) ((1.842386e-07 4.262176e-06 -4.462422e-08) (-4.075188e-06 -1.067529e-03 5.345535e-06))
1.472236      	((9.625500e-02 -2.175767e-02 -1.013192e+00) (3.039647e-02 -8.616959e-05 -8.971822e-03)) ((2.079219e-07 4.259586e-06 -4.991445e-08) (-4.603673e-06 -1.067303e-03 6.055417e-06))
1.50487       	((9.620249e-02 -2.453473e-02 -1.012822e+00) (3.038829e-02 -9.708330e-05 -8.972105e-03)) ((2.347304e-07 4.257093e-06 -5.545158e-08) (-5.200554e-06 -1.067115e-03 6.865467e-06))
1.537499      	((9.621982e-02 -2.768159e-02 -1.012499e+00) (3.038129e-02 -1.090998e-04 -8.972082e-03)) ((2.656713e-07 4.256641e-06 -6.096506e-08) (-5.873245e-06 -1.066971e-03 7.800463e-06))
1.570123      	((9.630420e-02 -3.124568e-02 -1.012200e+00) (3.037546e-02 -1.224298e-04 -8.971549e-03)) ((2.986596e-07 4.257945e-06 -6.660006e-08) (-6.628045e-06 -1.066878e-03 8.883467e-06))
1.602741      	((9.646678e-02 -3.525542e-02 -1.011955e+00) (3.037094e-02 -1.375720e-04 -8.970199e-03)) ((3.347501e-07 4.258480e-06 -7.309704e-08) (-7.473924e-06 -1.066849e-03 1.012327e-05))
1.63535       	((9.669063e-02 -3.972517e-02 -1.011754e+00) (3.036786e-02 -1.546415e-04 -8.967745e-03)) ((3.729607e-07 4.258840e-06 -8.004907e-08) (-8.419944e-06 -1.066892e-03 1.152428e-05))
1.667951      	((9.699243e-02 -4.474845e-02 -1.011606e+00) (3.036611e-02 -1.735123e-04 -8.964271e-03)) ((4.115541e-07 4.261268e-06 -8.775176e-08) (-9.479498e-06 -1.067010e-03 1.309499e-05))
1.700541      	((9.738936e-02 -5.037716e-02 -1.011516e+00) (3.036596e-02 -1.947682e-04 -8.959572e-03)) ((4.545992e-07 4.267891e-06 -9.659799e-08) (-1.066924e-05 -1.067225e-03 1.484648e-05))
1.73312       	((9.790847e-02 -5.669022e-02 -1.011487e+00) (3.036805e-02 -2.195117e-04 -8.953458e-03)) ((5.051479e-07 4.275623e-06 -1.053594e-07) (-1.201451e-05 -1.067555e-03 1.678700e-05))
1.765685      	((9.866096e-02 -6.370275e-02 -1.011604e+00) (3.037255e-02 -2.480436e-04 -8.945641e-03)) ((5.616300e-07 4.283798e-06 -1.149800e-07) (-1.352579e-05 -1.068009e-03 1.890779e-05))
1.798235      	((9.956956e-02 -7.152074e-02 -1.011798e+00) (3.037958e-02 -2.805534e-04 -8.935845e-03)) ((6.313595e-07 4.293051e-06 -1.243048e-07) (-1.522708e-05 -1.068605e-03 2.121956e-05))
1.830768      	((1.008053e-01 -8.017123e-02 -1.012216e+00) (3.039021e-02 -3.173933e-04 -8.923744e-03)) ((7.110981e-07 4.307213e-06 -1.333451e-07) (-1.713984e-05 -1.069394e-03 2.375669e-05))
1.863282      	((1.022969e-01 -8.971967e-02 -1.012745e+00) (3.040522e-02 -3.589427e-04 -8.908679e-03)) ((7.988774e-07 4.327620e-06 -1.424735e-07) (-1.927624e-05 -1.070425e-03 2.654716e-05))
1.895774      	((1.042419e-01 -1.002215e-01 -1.013593e+00) (3.042541e-02 -4.052078e-04 -8.889714e-03)) ((8.986123e-07 4.360042e-06 -1.538316e-07) (-2.164443e-05 -1.071773e-03 2.961574e-05))
1.928243      	((1.065295e-01 -1.117189e-01 -1.014655e+00) (3.045238e-02 -4.566558e-04 -8.866149e-03)) ((1.006458e-06 4.403077e-06 -1.656673e-07) (-2.425335e-05 -1.073528e-03 3.297589e-05))
1.96068       	((1.091897e-01 -1.241749e-01 -1.015927e+00) (3.048756e-02 -5.131830e-04 -8.837340e-03)) ((1.129240e-06 4.457032e-06 -1.770528e-07) (-2.712799e-05 -1.075748e-03 3.662210e-05))
1.993067      	((1.125022e-01 -1.374231e-01 -1.017580e+00) (3.053161e-02 -5.743595e-04 -8.802575e-03)) ((1.266748e-06 4.524498e-06 -1.864918e-07) (-3.029300e-05 -1.078480e-03 4.057784e-05))
2.025402      	((1.165417e-01 -1.513634e-01 -1.019683e+00) (3.058644e-02 -6.411493e-04 -8.762047e-03)) ((1.413519e-06 4.597863e-06 -1.954736e-07) (-3.375323e-05 -1.081773e-03 4.486529e-05))
2.05768       	((1.214834e-01 -1.657476e-01 -1.022401e+00) (3.065466e-02 -7.135883e-04 -8.717559e-03)) ((1.570993e-06 4.677669e-06 -2.030515e-07) (-3.750147e-05 -1.085628e-03 4.941805e-05))
2.089898      	((1.271665e-01 -1.800571e-01 -1.025675e+00) (3.073482e-02 -7.900117e-04 -8.669685e-03)) ((1.718345e-06 4.762225e-06 -2.106578e-07) (-4.149545e-05 -1.090009e-03 5.420486e-05))
2.122054      	((1.336110e-01 -1.936987e-01 -1.029797e+00) (3.082627e-02 -8.679024e-04 -8.618883e-03)) ((1.852723e-06 4.833610e-06 -2.195647e-07) (-4.564643e-05 -1.094898e-03 5.922997e-05))
2.154146      	((1.404492e-01 -2.061511e-01 -1.034452e+00) (3.092897e-02 -9.448407e-04 -8.566141e-03)) ((1.989501e-06 4.888972e-06 -2.247112e-07) (-4.985570e-05 -1.100233e-03 6.442928e-05))
2.186172      	((1.476288e-01 -2.166386e-01 -1.039595e+00) (3.104147e-02 -1.017021e-03 -8.511180e-03)) ((2.101210e-06 4.916476e-06 -2.297146e-07) (-5.396028e-05 -1.105960e-03 6.968567e-05))
2.218134      	((1.549693e-01 -2.242256e-01 -1.045542e+00) (3.116277e-02 -1.079942e-03 -8.455116e-03)) ((2.155408e-06 4.909926e-06 -2.351996e-07) (-5.778140e-05 -1.111999e-03 7.480025e-05))
2.250034      	((1.615416e-01 -2.288678e-01 -1.051741e+00) (3.129226e-02 -1.131461e-03 -8.397914e-03)) ((2.181503e-06 4.867532e-06 -2.357418e-07) (-6.120579e-05 -1.118242e-03 7.963726e-05))
2.281875      	((1.667098e-01 -2.299804e-01 -1.057726e+00) (3.142409e-02 -1.169342e-03 -8.341313e-03)) ((2.164919e-06 4.803938e-06 -2.238198e-07) (-6.407495e-05 -1.124370e-03 8.395561e-05))
2.313664      	((1.706006e-01 -2.271801e-01 -1.063480e+00) (3.155038e-02 -1.186656e-03 -8.288348e-03)) ((2.057014e-06 4.721015e-06 -1.952470e-07) (-6.608697e-05 -1.130117e-03 8.759055e-05))
2.345409      	((1.730315e-01 -2.209025e-01 -1.069022e+00) (3.166949e-02 -1.177817e-03 -8.239618e-03)) ((1.898472e-06 4.612464e-06 -1.669587e-07) (-6.697250e-05 -1.135406e-03 9.061584e-05))
2.377119      	((1.733683e-01 -2.122413e-01 -1.073563e+00) (3.177901e-02 -1.142452e-03 -8.193195e-03)) ((1.731814e-06 4.485361e-06 -1.239582e-07) (-6.666842e-05 -1.140221e-03 9.303190e-05))
2.408803      	((1.723218e-01 -2.022841e-01 -1.077526e+00) (3.187609e-02 -1.081653e-03 -8.147911e-03)) ((1.544720e-06 4.327299e-06 -8.135422e-08) (-6.518518e-05 -1.144649e-03 9.464538e-05))
2.440472      	((1.708215e-01 -1.921072e-01 -1.081383e+00) (3.196155e-02 -1.001512e-03 -8.104965e-03)) ((1.365781e-06 4.162037e-06 -6.716324e-08) (-6.271982e-05 -1.148814e-03 9.549975e-05))
2.472135      	((1.680398e-01 -1.832685e-01 -1.084487e+00) (3.203930e-02 -9.152724e-04 -8.064361e-03)) ((1.265073e-06 3.995147e-06 -6.118150e-08) (-5.965901e-05 -1.152856e-03 9.562328e-05))
2.503801      	((1.649902e-01 -1.763513e-01 -1.087612e+00) (3.211248e-02 -8.367784e-04 -8.029172e-03)) ((1.245374e-06 3.825938e-06 -4.467012e-08) (-5.645540e-05 -1.156724e-03 9.489920e-05))
2.535473      	((1.611462e-01 -1.716778e-01 -1.090352e+00) (3.218014e-02 -7.731806e-04 -8.010028e-03)) ((1.275918e-06 3.613914e-06 -9.662492e-09) (-5.355397e-05 -1.160066e-03 9.334930e-05))
2.567156      	((1.577842e-01 -1.684640e-01 -1.093562e+00) (3.224163e-02 -7.312240e-04 -8.017311e-03)) ((1.322516e-06 3.394570e-06 3.174041e-08) (-5.136202e-05 -1.162433e-03 9.108704e-05))
2.59885       	((1.536809e-01 -1.660282e-01 -1.096485e+00) (3.229458e-02 -7.151643e-04 -8.052594e-03)) ((1.417822e-06 3.157660e-06 3.413445e-08) (-5.007546e-05 -1.163574e-03 8.829842e-05))
2.630554      	((1.493661e-01 -1.637434e-01 -1.098688e+00) (3.232904e-02 -7.113158e-04 -8.107990e-03)) ((1.538099e-06 2.908340e-06 -3.815442e-10) (-4.948666e-05 -1.163588e-03 8.568465e-05))
2.662266      	((1.458723e-01 -1.602035e-01 -1.100527e+00) (3.234235e-02 -7.005191e-04 -8.168839e-03)) ((1.563066e-06 2.738956e-06 -3.058520e-08) (-4.902881e-05 -1.162864e-03 8.371039e-05))
2.693987      	((1.431438e-01 -1.561103e-01 -1.100755e+00) (3.234159e-02 -6.781337e-04 -8.221342e-03)) ((1.506219e-06 2.699313e-06 -2.000424e-08) (-4.829912e-05 -1.161820e-03 8.241049e-05))
2.725714      	((1.416837e-01 -1.515383e-01 -1.099787e+00) (3.233363e-02 -6.449677e-04 -8.258635e-03)) ((1.378671e-06 2.794442e-06 4.942219e-08) (-4.722120e-05 -1.160687e-03 8.170546e-05))
2.757449      	((1.407968e-01 -1.465437e-01 -1.097930e+00) (3.232108e-02 -6.023747e-04 -8.275640e-03)) ((1.117068e-06 2.957001e-06 1.431059e-07) (-4.563043e-05 -1.159723e-03 8.120066e-05))
2.789192      	((1.409614e-01 -1.412206e-01 -1.096612e+00) (3.230974e-02 -5.566261e-04 -8.279660e-03)) ((8.339209e-07 3.101301e-06 2.177089e-07) (-4.367448e-05 -1.158884e-03 8.055491e-05))
2.820944      	((1.413938e-01 -1.366511e-01 -1.095471e+00) (3.230186e-02 -5.078372e-04 -8.278917e-03)) ((6.431427e-07 3.172472e-06 2.670620e-07) (-4.170203e-05 -1.158013e-03 8.005863e-05))
2.852706      	((1.421132e-01 -1.334791e-01 -1.094712e+00) (3.229226e-02 -4.532168e-04 -8.270946e-03)) ((4.704285e-07 3.169761e-06 2.833132e-07) (-3.955375e-05 -1.157319e-03 7.980841e-05))
