# Forces      
# CofR        : (0.000000e+00 0.000000e+00 0.000000e+00)
# Time        forces(pressure viscous)	moments(pressure viscous)
0             	((0.000000e+00 0.000000e+00 0.000000e+00) (0.000000e+00 0.000000e+00 0.000000e+00)) ((0.000000e+00 0.000000e+00 0.000000e+00) (0.000000e+00 0.000000e+00 0.000000e+00))
0.012         	((-3.245012e-12 7.583172e-10 -9.867391e-12) (-9.693815e-14 8.505225e-12 -3.551689e-14)) ((-5.454579e-14 -1.971870e-16 -1.043887e-11) (1.624158e-13 4.447815e-15 -2.122800e-08))
0.0264        	((2.450181e-12 -2.750344e-10 2.276011e-11) (-1.095706e-13 9.074347e-12 -5.612423e-14)) ((-1.283279e-13 9.547121e-16 -3.129893e-12) (2.889210e-13 4.279944e-15 -1.857938e-08))
0.04368       	((-1.466857e-11 1.385645e-10 -1.405094e-11) (-1.383473e-13 5.949825e-12 -1.234358e-13)) ((5.901141e-14 -1.438851e-16 -1.638360e-12) (2.441565e-13 5.851230e-15 -1.606738e-08))
0.064416      	((-1.021036e-11 1.105906e-11 5.010091e-12) (-1.393737e-13 3.185892e-12 -9.914966e-14)) ((-1.648211e-14 -2.398598e-16 -1.098470e-12) (1.246964e-13 7.277474e-15 -1.376071e-08))
0.0892992     	((-1.475438e-11 6.675151e-11 -5.274382e-12) (-1.192933e-13 2.021709e-12 -3.358636e-15)) ((1.797640e-14 -1.268598e-15 -8.839349e-13) (5.983187e-14 7.207966e-15 -1.172039e-08))
0.119159      	((-5.776564e-12 5.760883e-12 -4.437667e-12) (-1.712208e-13 1.719203e-12 6.355482e-14)) ((1.101030e-14 -9.432561e-16 -7.011632e-13) (-2.364785e-14 8.775998e-15 -9.974867e-09))
0.154991      	((-1.101069e-11 5.584232e-11 -4.083875e-12) (-2.098495e-13 1.275185e-12 1.283163e-13)) ((1.053914e-14 -1.250820e-15 -5.599082e-13) (-8.444567e-14 9.743517e-15 -8.536793e-09))
0.197989      	((-1.046485e-11 4.346344e-11 -5.241531e-12) (-1.396143e-13 8.007263e-13 1.875502e-13)) ((8.333238e-15 -6.949070e-16 -4.375593e-13) (-1.156584e-13 5.081351e-15 -7.381868e-09))
0.249587      	((-1.402664e-11 5.042020e-11 -4.487309e-12) (-7.424396e-16 2.777337e-13 2.388479e-13)) ((8.477340e-15 -3.689855e-16 -3.609097e-13) (-1.065074e-13 -2.674963e-15 -6.463021e-09))
0.311504      	((-2.309690e-11 6.530313e-11 -7.637799e-12) (9.748994e-14 -1.711171e-13 3.459178e-13)) ((6.085714e-15 1.505739e-16 -3.190461e-13) (-8.915690e-14 -7.972819e-15 -5.724625e-09))
0.385805      	((-2.782385e-11 8.443754e-11 -7.671559e-12) (9.360435e-14 1.763593e-13 4.713503e-13)) ((4.578546e-15 -5.854454e-17 -2.781138e-13) (-6.758797e-14 -1.006959e-14 -5.116218e-09))
0.474966      	((-3.809765e-11 1.024339e-10 -1.114255e-11) (2.361514e-13 4.671733e-13 5.482402e-13)) ((-5.324688e-16 2.630085e-16 -2.426253e-13) (-2.130659e-14 -1.169645e-14 -4.599966e-09))
0.581959      	((-5.045864e-11 1.323847e-10 -1.336315e-11) (3.867335e-13 8.665219e-13 5.604049e-13)) ((-2.860593e-15 1.171228e-16 -2.250202e-13) (6.998823e-14 -1.444224e-14 -4.151030e-09))
0.710351      	((-6.169749e-11 1.318762e-10 -1.624286e-11) (9.466105e-13 2.096150e-12 4.970199e-13)) ((-5.779814e-15 3.322260e-17 -2.141035e-13) (1.468469e-13 -2.372628e-14 -3.754001e-09))
0.864421      	((-6.976042e-11 1.061842e-10 -1.579415e-11) (2.072275e-12 1.613573e-12 6.210858e-13)) ((-8.917851e-15 -4.632951e-16 -2.039639e-13) (1.320970e-13 -4.606562e-14 -3.399187e-09))
1.049306      	((-7.350512e-11 9.543557e-11 -1.479951e-11) (3.489021e-12 -1.278331e-12 5.970444e-13)) ((-1.125178e-14 -8.978602e-16 -1.931000e-13) (4.968326e-14 -6.920754e-14 -3.080607e-09))
1.271167      	((-6.503015e-11 8.288711e-11 -1.662596e-11) (6.179007e-12 -5.259229e-12 5.560559e-13)) ((-1.422225e-14 -1.491064e-15 -1.849369e-13) (-5.295471e-14 -1.221682e-13 -2.795235e-09))
1.5374        	((-4.944965e-11 8.126321e-11 -1.485331e-11) (1.035191e-11 -9.788376e-12 7.512888e-13)) ((-1.273670e-14 -1.797097e-15 -1.790456e-13) (-1.659808e-13 -2.320545e-13 -2.541609e-09))
1.85688       	((-3.474177e-11 6.233621e-11 -1.047250e-11) (1.546865e-11 -1.318943e-11 8.743036e-13)) ((-1.160531e-14 -2.211136e-15 -1.715164e-13) (-2.894026e-13 -3.602998e-13 -2.318336e-09))
2.240256      	((-1.874904e-11 4.103353e-11 -8.253531e-12) (2.172147e-11 -1.684515e-11 8.508244e-13)) ((-1.344646e-14 -2.571598e-15 -1.622416e-13) (-4.470135e-13 -5.320444e-13 -2.123197e-09))
2.700307      	((-1.206223e-11 2.492927e-11 -5.001228e-12) (2.833314e-11 -2.264841e-11 4.484231e-13)) ((-1.248390e-14 -2.696705e-15 -1.541140e-13) (-6.554940e-13 -7.362069e-13 -1.952908e-09))
3.252369      	((6.488498e-13 1.432502e-11 -8.419432e-12) (3.464988e-11 -2.947085e-11 1.144213e-13)) ((-1.035616e-14 -2.717285e-15 -1.436232e-13) (-8.441089e-13 -9.246207e-13 -1.803606e-09))
3.914842      	((8.824476e-13 -7.012527e-12 -7.535774e-12) (3.888590e-11 -3.522113e-11 3.089563e-13)) ((-7.848319e-15 -2.203809e-15 -1.340549e-13) (-9.524718e-13 -1.046272e-12 -1.671381e-09))
4.709811      	((1.019630e-11 -2.303900e-11 -6.414747e-12) (4.074982e-11 -3.877775e-11 6.052354e-13)) ((-5.255532e-15 -1.073485e-15 -1.258039e-13) (-1.021011e-12 -1.110715e-12 -1.552905e-09))
5.663773      	((1.152821e-11 -1.072783e-11 -7.695837e-12) (4.022069e-11 -3.922017e-11 1.238975e-12)) ((-5.431042e-15 -3.538554e-16 -1.173310e-13) (-1.006048e-12 -1.113834e-12 -1.445749e-09))
6.808528      	((1.407281e-11 -1.040276e-11 -9.427794e-12) (3.697844e-11 -3.626758e-11 1.839385e-12)) ((-4.996499e-15 4.563691e-17 -1.092965e-13) (-9.007177e-13 -1.041445e-12 -1.348004e-09))
8.182233      	((1.158129e-11 -6.772606e-12 -1.123055e-11) (3.194944e-11 -3.088210e-11 2.610697e-12)) ((-3.418653e-15 6.238464e-16 -1.015375e-13) (-7.753535e-13 -9.073229e-13 -1.258205e-09))
9.83068       	((1.039321e-11 3.379113e-12 -1.290666e-11) (2.561446e-11 -2.471850e-11 3.476125e-12)) ((-3.542460e-15 1.076121e-15 -9.431528e-14) (-6.212741e-13 -7.482052e-13 -1.175550e-09))
11.808816     	((1.367205e-12 1.802064e-11 -1.489062e-11) (1.922134e-11 -1.828908e-11 3.946258e-12)) ((-1.902221e-15 1.690488e-15 -8.757490e-14) (-4.269791e-13 -5.844458e-13 -1.099674e-09))
14.182579     	((-1.652745e-12 1.168357e-11 -1.666302e-11) (1.365092e-11 -1.301803e-11 4.578450e-12)) ((5.907338e-17 1.929015e-15 -8.109684e-14) (-2.598536e-13 -4.431686e-13 -1.030123e-09))
17.031095     	((-8.535907e-12 1.189960e-11 -2.032124e-11) (9.337410e-12 -9.038786e-12 5.380880e-12)) ((1.762737e-15 1.564525e-15 -7.547769e-14) (-1.731077e-13 -3.303876e-13 -9.664523e-10))
20.449314     	((-9.856543e-12 1.414242e-11 -2.331064e-11) (6.788082e-12 -6.587159e-12 6.342795e-12)) ((2.234129e-15 1.463664e-15 -7.021159e-14) (-1.321577e-13 -2.691441e-13 -9.082357e-10))
24.551176     	((-1.353192e-11 1.550142e-11 -2.511527e-11) (5.891123e-12 -5.795426e-12 7.514965e-12)) ((2.862388e-15 1.301156e-15 -6.554337e-14) (-1.368220e-13 -2.484677e-13 -8.549910e-10))
29.473411     	((-1.174942e-11 1.197472e-11 -2.743423e-11) (6.425105e-12 -6.717223e-12 8.579667e-12)) ((2.949041e-15 1.151413e-15 -6.147309e-14) (-1.678296e-13 -2.596193e-13 -8.062258e-10))
35.380094     	((-1.078346e-11 1.094801e-11 -3.085993e-11) (7.926632e-12 -8.925939e-12 9.898476e-12)) ((2.984287e-15 1.089961e-15 -5.787941e-14) (-2.345621e-13 -2.925945e-13 -7.615149e-10))
42.468112     	((-8.895298e-12 7.394146e-12 -3.371123e-11) (9.903341e-12 -1.157525e-11 1.121551e-11)) ((3.170501e-15 9.964858e-16 -5.463187e-14) (-3.110599e-13 -3.344575e-13 -7.205502e-10))
50.973735     	((-8.338441e-12 7.378139e-12 -3.650247e-11) (1.178881e-11 -1.380627e-11 1.260829e-11)) ((3.218276e-15 8.584654e-16 -5.153782e-14) (-3.770453e-13 -3.745337e-13 -6.831197e-10))
61.180482     	((-6.395378e-12 4.790564e-12 -3.943133e-11) (1.331110e-11 -1.564146e-11 1.418283e-11)) ((3.161181e-15 6.825152e-16 -4.865722e-14) (-4.314735e-13 -4.062194e-13 -6.490058e-10))
73.428578     	((-5.361664e-12 4.871222e-12 -4.215459e-11) (1.450394e-11 -1.694673e-11 1.587716e-11)) ((3.235335e-15 5.345428e-16 -4.606695e-14) (-4.688529e-13 -4.329927e-13 -6.179754e-10))
88.126294     	((-4.100340e-12 3.190009e-12 -4.432100e-11) (1.540476e-11 -1.771256e-11 1.760437e-11)) ((3.406088e-15 3.737871e-16 -4.374681e-14) (-4.882810e-13 -4.510594e-13 -5.898033e-10))
105.763553    	((-2.867927e-12 1.659782e-12 -4.703793e-11) (1.596478e-11 -1.826584e-11 1.937386e-11)) ((3.460266e-15 2.235191e-16 -4.172734e-14) (-5.054024e-13 -4.582564e-13 -5.642338e-10))
126.928263    	((-2.306519e-12 1.445795e-12 -5.016312e-11) (1.614880e-11 -1.860168e-11 2.120774e-11)) ((3.380889e-15 1.087006e-16 -3.994625e-14) (-5.170589e-13 -4.557895e-13 -5.410014e-10))
152.325916    	((-1.666237e-12 1.501942e-12 -5.351034e-11) (1.613798e-11 -1.859781e-11 2.309035e-11)) ((3.222473e-15 -4.658048e-17 -3.831878e-14) (-5.183372e-13 -4.522150e-13 -5.198587e-10))
182.803099    	((-8.511618e-13 1.612206e-12 -5.664012e-11) (1.592178e-11 -1.843871e-11 2.497652e-11)) ((3.026536e-15 -1.698776e-16 -3.677316e-14) (-5.131422e-13 -4.438620e-13 -5.005901e-10))
219.375719    	((2.347241e-13 1.423767e-12 -5.958402e-11) (1.547410e-11 -1.811199e-11 2.698413e-11)) ((2.992315e-15 -2.079510e-16 -3.532253e-14) (-5.013463e-13 -4.256147e-13 -4.830088e-10))
263.262863    	((8.893383e-13 1.072924e-12 -6.323148e-11) (1.482110e-11 -1.758275e-11 2.892367e-11)) ((2.958216e-15 -3.076498e-16 -3.399311e-14) (-4.806086e-13 -4.019367e-13 -4.669564e-10))
315.927436    	((1.371978e-12 1.087466e-12 -6.672983e-11) (1.411765e-11 -1.693899e-11 3.091979e-11)) ((2.905981e-15 -4.169487e-16 -3.278429e-14) (-4.561048e-13 -3.762969e-13 -4.522949e-10))
379.124923    	((1.434177e-12 1.268520e-12 -7.023971e-11) (1.338851e-11 -1.624986e-11 3.307126e-11)) ((2.778108e-15 -5.138612e-16 -3.167392e-14) (-4.328995e-13 -3.524520e-13 -4.389133e-10))
454.961908    	((1.616099e-12 8.577554e-13 -7.307778e-11) (1.267976e-11 -1.548947e-11 3.524666e-11)) ((2.625990e-15 -5.904596e-16 -3.068133e-14) (-4.070996e-13 -3.322887e-13 -4.267210e-10))
545.966289    	((1.741450e-12 8.737909e-13 -7.579772e-11) (1.199612e-11 -1.465916e-11 3.742005e-11)) ((2.516236e-15 -6.384384e-16 -2.978865e-14) (-3.810464e-13 -3.110284e-13 -4.156376e-10))
655.171547    	((2.013614e-12 7.870804e-13 -7.853313e-11) (1.127273e-11 -1.381619e-11 3.957957e-11)) ((2.455936e-15 -6.429708e-16 -2.897552e-14) (-3.566452e-13 -2.882791e-13 -4.055877e-10))
786.217856    	((2.389074e-12 4.837671e-13 -8.126505e-11) (1.050868e-11 -1.297765e-11 4.169137e-11)) ((2.477796e-15 -6.577704e-16 -2.826232e-14) (-3.335239e-13 -2.648534e-13 -3.964995e-10))
943.473427    	((3.018549e-12 1.964560e-13 -8.389524e-11) (9.770335e-12 -1.214842e-11 4.368038e-11)) ((2.567654e-15 -6.635066e-16 -2.762314e-14) (-3.112378e-13 -2.426232e-13 -3.882973e-10))
1132.180113   	((3.662409e-12 2.762314e-14 -8.623875e-11) (9.068557e-12 -1.133109e-11 4.553794e-11)) ((2.631920e-15 -6.574994e-16 -2.701704e-14) (-2.885351e-13 -2.219869e-13 -3.809096e-10))
1358.628135   	((4.178547e-12 -1.670796e-13 -8.844162e-11) (8.380456e-12 -1.052738e-11 4.728365e-11)) ((2.681206e-15 -6.618470e-16 -2.645960e-14) (-2.668043e-13 -2.025812e-13 -3.742659e-10))
1630.365763   	((4.644448e-12 -1.958270e-13 -9.065953e-11) (7.716972e-12 -9.754650e-12 4.896327e-11)) ((2.741271e-15 -6.700284e-16 -2.595968e-14) (-2.462916e-13 -1.832791e-13 -3.682983e-10))
1956.450915   	((5.201732e-12 1.043709e-14 -9.287711e-11) (7.112462e-12 -9.027224e-12 5.062183e-11)) ((2.786050e-15 -6.833935e-16 -2.550806e-14) (-2.266349e-13 -1.646779e-13 -3.629392e-10))
2347.753098   	((5.852848e-12 2.729878e-13 -9.511928e-11) (6.574797e-12 -8.340871e-12 5.225928e-11)) ((2.817794e-15 -6.986398e-16 -2.510155e-14) (-2.076570e-13 -1.477478e-13 -3.581270e-10))
2817.315718   	((6.768820e-12 5.989289e-13 -9.736560e-11) (6.107864e-12 -7.706813e-12 5.385275e-11)) ((2.827591e-15 -7.260178e-16 -2.473872e-14) (-1.906620e-13 -1.318487e-13 -3.538064e-10))
3380.790861   	((8.083406e-12 1.036437e-12 -9.968862e-11) (5.708688e-12 -7.140827e-12 5.537585e-11)) ((2.825816e-15 -7.696546e-16 -2.440498e-14) (-1.744181e-13 -1.180177e-13 -3.499259e-10))
4056.961033   	((9.629556e-12 1.610988e-12 -1.023379e-10) (5.370722e-12 -6.647520e-12 5.680517e-11)) ((2.815923e-15 -8.190716e-16 -2.410695e-14) (-1.601965e-13 -1.074150e-13 -3.464382e-10))
4868.36524    	((1.134049e-11 2.233779e-12 -1.050055e-10) (5.082471e-12 -6.227393e-12 5.814581e-11)) ((2.810145e-15 -8.773430e-16 -2.384384e-14) (-1.484206e-13 -9.857519e-14 -3.433013e-10))
5842.050288   	((1.333347e-11 2.770469e-12 -1.078902e-10) (4.848204e-12 -5.848515e-12 5.937535e-11)) ((2.815727e-15 -9.443577e-16 -2.360045e-14) (-1.387612e-13 -9.109042e-14 -3.404772e-10))
7010.472346   	((1.562257e-11 3.257387e-12 -1.110108e-10) (4.655106e-12 -5.512293e-12 6.049749e-11)) ((2.829914e-15 -1.006402e-15 -2.337368e-14) (-1.307342e-13 -8.486717e-14 -3.379322e-10))
8412.578815   	((1.814570e-11 3.732784e-12 -1.142053e-10) (4.496170e-12 -5.204904e-12 6.152659e-11)) ((2.857449e-15 -1.073570e-15 -2.316650e-14) (-1.235644e-13 -7.989231e-14 -3.356361e-10))
10095.106578  	((2.098355e-11 4.361968e-12 -1.179198e-10) (4.378322e-12 -4.916026e-12 6.245498e-11)) ((2.896334e-15 -1.160586e-15 -2.297572e-14) (-1.171994e-13 -7.591740e-14 -3.335618e-10))
12114.139893  	((2.410150e-11 5.296250e-12 -1.220422e-10) (4.295613e-12 -4.641357e-12 6.326364e-11)) ((2.935908e-15 -1.259049e-15 -2.280186e-14) (-1.114195e-13 -7.237521e-14 -3.316857e-10))
14536.979872  	((2.754388e-11 6.640210e-12 -1.266555e-10) (4.231804e-12 -4.366484e-12 6.397206e-11)) ((2.985763e-15 -1.358910e-15 -2.264728e-14) (-1.061545e-13 -6.851016e-14 -3.299868e-10))
17365.949298  	((3.130635e-11 8.485452e-12 -1.317118e-10) (4.192798e-12 -4.097838e-12 6.458518e-11)) ((3.046844e-15 -1.462868e-15 -2.251101e-14) (-1.011870e-13 -6.447026e-14 -3.284475e-10))
20601.056136  	((3.521983e-11 1.078545e-11 -1.370837e-10) (4.172878e-12 -3.838729e-12 6.510931e-11)) ((3.110411e-15 -1.562449e-15 -2.238720e-14) (-9.699039e-14 -6.030616e-14 -3.270520e-10))
24242.307684  	((3.921378e-11 1.344053e-11 -1.427171e-10) (4.181132e-12 -3.593274e-12 6.555650e-11)) ((3.183907e-15 -1.662200e-15 -2.226779e-14) (-9.359549e-14 -5.647053e-14 -3.257863e-10))
28289.710642  	((4.312717e-11 1.633890e-11 -1.484938e-10) (4.211576e-12 -3.358080e-12 6.593760e-11)) ((3.250125e-15 -1.750865e-15 -2.215207e-14) (-9.056363e-14 -5.306294e-14 -3.246374e-10))
32351.286177  	((4.673387e-11 1.933651e-11 -1.541492e-10) (4.249031e-12 -3.127371e-12 6.626506e-11)) ((3.310170e-15 -1.820981e-15 -2.204816e-14) (-8.775900e-14 -4.990682e-14 -3.235938e-10))
36412.916984  	((4.989952e-11 2.221762e-11 -1.594699e-10) (4.267432e-12 -2.897203e-12 6.654554e-11)) ((3.356693e-15 -1.876853e-15 -2.195181e-14) (-8.530700e-14 -4.671947e-14 -3.226449e-10))
40474.59732   	((5.250046e-11 2.509661e-11 -1.643701e-10) (4.266213e-12 -2.672914e-12 6.679741e-11)) ((3.409537e-15 -1.928319e-15 -2.185816e-14) (-8.290485e-14 -4.371718e-14 -3.217817e-10))
44536.322348  	((5.466286e-11 2.791477e-11 -1.692080e-10) (4.251910e-12 -2.467993e-12 6.702645e-11)) ((3.463711e-15 -1.963032e-15 -2.176339e-14) (-8.109205e-14 -4.096648e-14 -3.209963e-10))
48598.087043  	((5.649803e-11 3.074179e-11 -1.735423e-10) (4.225693e-12 -2.291255e-12 6.723745e-11)) ((3.519386e-15 -1.988772e-15 -2.166915e-14) (-8.009330e-14 -3.859255e-14 -3.202812e-10))
52659.887349  	((5.801983e-11 3.362886e-11 -1.777277e-10) (4.186650e-12 -2.140233e-12 6.742981e-11)) ((3.589060e-15 -1.996298e-15 -2.157984e-14) (-7.980255e-14 -3.596508e-14 -3.196301e-10))
56721.719866  	((5.921773e-11 3.643364e-11 -1.814847e-10) (4.126182e-12 -2.001945e-12 6.760236e-11)) ((3.653366e-15 -1.996476e-15 -2.150142e-14) (-7.986505e-14 -3.261376e-14 -3.190366e-10))
60783.581366  	((6.011596e-11 3.912705e-11 -1.851514e-10) (4.048244e-12 -1.875802e-12 6.776271e-11)) ((3.714260e-15 -1.987014e-15 -2.142895e-14) (-8.014180e-14 -2.883132e-14 -3.184953e-10))
64845.469264  	((6.064418e-11 4.170641e-11 -1.883232e-10) (3.958527e-12 -1.761637e-12 6.790990e-11)) ((3.777782e-15 -1.972655e-15 -2.136764e-14) (-8.059830e-14 -2.505259e-14 -3.180013e-10))
68907.381883  	((6.092349e-11 4.423875e-11 -1.912807e-10) (3.862765e-12 -1.649094e-12 6.805941e-11)) ((3.834299e-15 -1.961792e-15 -2.131672e-14) (-8.053885e-14 -2.131658e-14 -3.175503e-10))
72969.317021  	((6.108584e-11 4.670425e-11 -1.940140e-10) (3.770490e-12 -1.536572e-12 6.821010e-11)) ((3.893986e-15 -1.951148e-15 -2.127141e-14) (-8.019723e-14 -1.798826e-14 -3.171383e-10))
77031.271415  	((6.110555e-11 4.909502e-11 -1.962746e-10) (3.683313e-12 -1.423233e-12 6.835791e-11)) ((3.951719e-15 -1.948061e-15 -2.123134e-14) (-7.957871e-14 -1.511345e-14 -3.167616e-10))
81093.243236  	((6.097818e-11 5.143605e-11 -1.984237e-10) (3.606206e-12 -1.304566e-12 6.850585e-11)) ((3.996356e-15 -1.947391e-15 -2.119543e-14) (-7.845060e-14 -1.264061e-14 -3.164173e-10))
85155.230843  	((6.069203e-11 5.371089e-11 -2.003855e-10) (3.537326e-12 -1.183672e-12 6.864956e-11)) ((4.037542e-15 -1.947322e-15 -2.116152e-14) (-7.703864e-14 -1.050795e-14 -3.161025e-10))
89217.232853  	((6.029584e-11 5.592422e-11 -2.021875e-10) (3.473943e-12 -1.061514e-12 6.878728e-11)) ((4.072980e-15 -1.948158e-15 -2.113037e-14) (-7.541632e-14 -8.685894e-15 -3.158144e-10))
93279.247814  	((5.981261e-11 5.805373e-11 -2.038010e-10) (3.415119e-12 -9.426793e-13 6.891942e-11)) ((4.104764e-15 -1.951423e-15 -2.110244e-14) (-7.368733e-14 -7.029347e-15 -3.155507e-10))
