# Forces      
# CofR        : (0.000000e+00 0.000000e+00 0.000000e+00)
# Time        forces(pressure viscous)	moments(pressure viscous)
0             	((0.000000e+00 0.000000e+00 0.000000e+00) (-1.233335e-14 2.000608e-05 9.926681e-16)) ((0.000000e+00 0.000000e+00 0.000000e+00) (4.495158e-07 -7.502168e-17 -9.613833e-12))
0.012         	((-6.508675e-09 5.818083e-03 1.452217e-03) (-3.986913e-11 2.295740e-05 -7.780860e-09)) ((-6.861593e-08 4.947871e-09 -1.096949e-09) (6.625141e-07 2.260711e-14 -1.994291e-11))
0.0264        	((-9.585240e-08 -4.038068e-04 -9.294350e-05) (-1.305371e-10 2.342239e-05 -1.112833e-08)) ((4.834111e-09 -3.108621e-10 7.026957e-11) (7.417419e-07 1.626428e-12 -2.637753e-11))
0.04368       	((1.417716e-07 -1.216631e-03 -1.330387e-04) (-8.368839e-11 2.081443e-05 -9.429497e-09)) ((1.584098e-08 -4.538595e-10 2.984538e-10) (6.608010e-07 -2.597362e-12 -2.253052e-11))
0.064416      	((-4.490048e-08 -1.143328e-05 -4.794207e-05) (4.872698e-10 1.843604e-05 -5.398047e-09)) ((-7.793524e-11 -1.589468e-10 -1.642860e-11) (5.932258e-07 -4.918226e-12 -2.622256e-11))
0.0892992     	((1.388869e-08 1.613900e-05 -2.887452e-05) (7.038020e-10 1.702065e-05 -4.955286e-09)) ((-6.435173e-10 -9.760136e-11 -1.596548e-11) (5.607808e-07 -1.272190e-12 -2.629240e-11))
0.119159      	((2.582186e-09 -1.827354e-05 -1.785096e-05) (5.397577e-10 1.571687e-05 -6.767641e-09)) ((3.426610e-10 -5.711946e-11 3.636371e-12) (5.247416e-07 -2.730477e-13 -2.093842e-11))
0.154991      	((-7.770179e-09 -9.824585e-06 -1.131446e-05) (3.680262e-10 1.433506e-05 -7.235219e-09)) ((2.099931e-10 -3.525287e-11 -1.577981e-14) (4.846479e-07 -4.762784e-13 -1.641957e-11))
0.197989      	((8.539944e-09 -2.381688e-06 -7.122050e-06) (1.681670e-10 1.294150e-05 -8.271489e-09)) ((7.582469e-11 -2.075040e-11 3.030774e-13) (4.438600e-07 -6.293390e-13 -8.217953e-12))
0.249587      	((3.776407e-09 3.237437e-07 -4.543638e-06) (8.981054e-11 1.157526e-05 -9.823315e-09)) ((2.173676e-11 -1.238393e-11 -1.266297e-12) (4.030898e-07 -2.812433e-12 -2.413742e-12))
0.311504      	((-2.902771e-11 1.562412e-06 -2.893760e-06) (6.466512e-11 1.027762e-05 -1.170461e-08)) ((4.695335e-12 -6.878244e-12 -1.353287e-12) (3.631460e-07 -6.223510e-12 3.300741e-12))
0.385805      	((2.387783e-10 2.156501e-06 -1.882049e-06) (6.597405e-11 9.081807e-06 -1.363829e-08)) ((-7.492067e-13 -3.252687e-12 -1.082638e-12) (3.250156e-07 -8.609771e-12 8.282349e-12))
0.474966      	((1.528786e-10 2.440813e-06 -1.224169e-06) (5.700053e-11 8.010657e-06 -1.550696e-08)) ((-5.705227e-12 -9.670525e-13 -9.310356e-13) (2.897345e-07 -8.979159e-12 4.981240e-12))
0.581959      	((3.980545e-10 2.556125e-06 -8.290405e-07) (3.999056e-11 7.072345e-06 -1.742949e-08)) ((-9.809123e-12 2.033380e-13 -7.984588e-13) (2.579005e-07 -7.748284e-12 -2.211705e-12))
0.710351      	((-3.466290e-11 2.546707e-06 -5.844913e-07) (5.733313e-11 6.265790e-06 -1.927492e-08)) ((-1.250533e-11 9.629553e-13 -6.800586e-13) (2.298378e-07 -6.021561e-12 -4.375704e-12))
0.864421      	((-1.252099e-10 2.455576e-06 -4.497106e-07) (8.511013e-11 5.580671e-06 -2.081968e-08)) ((-1.360556e-11 1.366549e-12 -7.016795e-13) (2.055440e-07 -4.365680e-12 -3.503819e-12))
1.049306      	((-1.268935e-10 2.321040e-06 -3.707450e-07) (1.110925e-10 5.000152e-06 -2.214142e-08)) ((-1.347967e-11 1.580848e-12 -7.010455e-13) (1.846709e-07 -3.082814e-12 -2.337272e-12))
1.271167      	((-3.990989e-11 2.170511e-06 -3.341384e-07) (1.387730e-10 4.506711e-06 -2.345283e-08)) ((-1.276914e-11 1.675713e-12 -6.395010e-13) (1.666953e-07 -2.188620e-12 -1.800264e-12))
1.5374        	((3.892295e-13 2.015544e-06 -3.193049e-07) (1.390106e-10 4.081980e-06 -2.488252e-08)) ((-1.188745e-11 1.706176e-12 -6.263046e-13) (1.510637e-07 -1.516901e-12 -2.198867e-12))
1.85688       	((1.411394e-10 1.863673e-06 -3.222418e-07) (1.267542e-10 3.709428e-06 -2.649633e-08)) ((-1.088188e-11 1.657133e-12 -6.189800e-13) (1.372935e-07 -9.729562e-13 -2.840714e-12))
2.240256      	((1.039906e-10 1.719051e-06 -3.328480e-07) (8.974057e-11 3.378284e-06 -2.832982e-08)) ((-1.002530e-11 1.591124e-12 -6.067598e-13) (1.250364e-07 -2.424670e-13 -4.604988e-12))
2.700307      	((6.064930e-11 1.583853e-06 -3.493944e-07) (3.919140e-11 3.081717e-06 -3.033656e-08)) ((-9.305927e-12 1.512319e-12 -5.963414e-13) (1.140543e-07 8.914385e-14 -6.892860e-12))
3.252369      	((6.760930e-11 1.457837e-06 -3.669764e-07) (2.250756e-11 2.814920e-06 -3.247121e-08)) ((-8.585246e-12 1.412853e-12 -5.673436e-13) (1.041733e-07 -6.935192e-15 -8.711920e-12))
3.914842      	((9.611228e-11 1.339770e-06 -3.854618e-07) (3.516804e-11 2.574341e-06 -3.475411e-08)) ((-7.859846e-12 1.300980e-12 -5.227736e-13) (9.526023e-08 -1.119395e-13 -9.669558e-12))
4.709811      	((1.138200e-10 1.230443e-06 -4.034029e-07) (4.020162e-11 2.357295e-06 -3.716198e-08)) ((-7.199862e-12 1.200079e-12 -4.648706e-13) (8.721787e-08 8.296741e-14 -9.599867e-12))
5.663773      	((9.922082e-11 1.129968e-06 -4.201407e-07) (3.487977e-11 2.161788e-06 -3.970984e-08)) ((-6.631394e-12 1.112712e-12 -4.182665e-13) (7.997385e-08 3.429949e-13 -8.614626e-12))
6.808528      	((2.216908e-11 1.038180e-06 -4.343447e-07) (4.427086e-11 1.986132e-06 -4.241363e-08)) ((-6.149053e-12 1.032971e-12 -3.622768e-13) (7.346488e-08 4.825758e-13 -8.491772e-12))
8.182233      	((5.760001e-11 9.547625e-07 -4.461244e-07) (3.299072e-11 1.828512e-06 -4.528523e-08)) ((-5.720236e-12 9.577083e-13 -3.093689e-13) (6.762459e-08 6.094814e-13 -8.849351e-12))
9.83068       	((8.434841e-11 8.793552e-07 -4.559492e-07) (4.055117e-12 1.686946e-06 -4.837707e-08)) ((-5.320647e-12 8.836627e-13 -2.677649e-13) (6.237968e-08 9.025571e-13 -9.200116e-12))
11.808816     	((4.721288e-11 8.110068e-07 -4.641340e-07) (-1.015390e-11 1.559461e-06 -5.171640e-08)) ((-4.969351e-12 8.129916e-13 -2.345888e-13) (5.765636e-08 1.100932e-12 -9.578500e-12))
14.182579     	((-8.188790e-12 7.491831e-07 -4.710738e-07) (-2.668405e-11 1.444263e-06 -5.534028e-08)) ((-4.669045e-12 7.469698e-13 -2.065460e-13) (5.338761e-08 1.201188e-12 -9.183664e-12))
17.031095     	((4.803615e-11 6.936022e-07 -4.765884e-07) (-3.588421e-11 1.339850e-06 -5.925363e-08)) ((-4.415387e-12 6.883129e-13 -1.821327e-13) (4.951808e-08 1.076921e-12 -7.654269e-12))
20.449314     	((1.020491e-10 6.439310e-07 -4.810421e-07) (-4.184632e-11 1.245123e-06 -6.345651e-08)) ((-4.204446e-12 6.302303e-13 -1.661308e-13) (4.600668e-08 8.081511e-13 -4.935274e-12))
24.551176     	((1.066759e-10 5.997381e-07 -4.846332e-07) (-5.001310e-11 1.159265e-06 -6.791509e-08)) ((-4.033380e-12 5.795849e-13 -1.574673e-13) (4.282310e-08 5.369179e-13 -2.346350e-12))
29.473411     	((1.673358e-10 5.609584e-07 -4.867344e-07) (-4.580322e-11 1.081618e-06 -7.257995e-08)) ((-3.901903e-12 5.383799e-13 -1.530515e-13) (3.994337e-08 1.032089e-13 -7.710650e-13))
35.380094     	((1.777403e-10 5.270500e-07 -4.876650e-07) (-3.365346e-11 1.011579e-06 -7.741702e-08)) ((-3.811145e-12 4.989181e-13 -1.507839e-13) (3.734585e-08 -3.039664e-13 4.899483e-13))
42.468112     	((1.063819e-10 4.981217e-07 -4.876614e-07) (-3.269017e-11 9.486006e-07 -8.237294e-08)) ((-3.760976e-12 4.611478e-13 -1.509143e-13) (3.501069e-08 -2.842389e-13 1.935894e-12))
50.973735     	((1.012100e-10 4.737176e-07 -4.866360e-07) (-4.010190e-11 8.921630e-07 -8.738649e-08)) ((-3.754177e-12 4.271596e-13 -1.547329e-13) (3.291871e-08 -1.219369e-13 3.861872e-12))
61.180482     	((1.125467e-10 4.535295e-07 -4.843979e-07) (-4.892579e-11 8.417487e-07 -9.240971e-08)) ((-3.790849e-12 3.960974e-13 -1.628761e-13) (3.105067e-08 3.269467e-14 6.355460e-12))
73.428578     	((1.562129e-10 4.374478e-07 -4.812271e-07) (-5.745531e-11 7.968959e-07 -9.739424e-08)) ((-3.874028e-12 3.691225e-13 -1.734963e-13) (2.939016e-08 3.653381e-14 9.415333e-12))
88.126294     	((1.939183e-10 4.253009e-07 -4.773708e-07) (-6.551785e-11 7.572129e-07 -1.023043e-07)) ((-4.001152e-12 3.437159e-13 -1.873370e-13) (2.792386e-08 -2.417086e-13 1.295055e-11))
105.763553    	((2.348501e-10 4.167809e-07 -4.728886e-07) (-7.568660e-11 7.223594e-07 -1.071188e-07)) ((-4.170043e-12 3.209041e-13 -2.024893e-13) (2.664067e-08 -7.738702e-13 1.660864e-11))
126.928263    	((2.718172e-10 4.116077e-07 -4.677921e-07) (-8.290977e-11 6.920567e-07 -1.118268e-07)) ((-4.369806e-12 3.042519e-13 -2.181136e-13) (2.553141e-08 -1.562651e-12 1.996766e-11))
152.325916    	((3.035769e-10 4.094732e-07 -4.621630e-07) (-8.757003e-11 6.660682e-07 -1.164292e-07)) ((-4.594183e-12 2.924740e-13 -2.349483e-13) (2.458766e-08 -2.435778e-12 2.304335e-11))
182.803099    	((3.785146e-10 4.099039e-07 -4.560508e-07) (-9.007511e-11 6.441739e-07 -1.208824e-07)) ((-4.826830e-12 2.881961e-13 -2.523205e-13) (2.380040e-08 -3.420973e-12 2.570803e-11))
219.375719    	((4.672465e-10 4.121278e-07 -4.494783e-07) (-8.990828e-11 6.260970e-07 -1.250727e-07)) ((-5.043748e-12 2.919373e-13 -2.688821e-13) (2.315685e-08 -4.667764e-12 2.808596e-11))
262.839622    	((5.473243e-10 4.152398e-07 -4.423257e-07) (-7.978525e-11 6.114670e-07 -1.288245e-07)) ((-5.224082e-12 3.010635e-13 -2.822133e-13) (2.263939e-08 -6.099500e-12 2.986813e-11))
313.169067    	((6.200403e-10 4.182872e-07 -4.344424e-07) (-6.113908e-11 5.997684e-07 -1.319641e-07)) ((-5.361792e-12 3.127566e-13 -2.908364e-13) (2.222627e-08 -7.558110e-12 3.088908e-11))
370.350278    	((6.934638e-10 4.205256e-07 -4.261641e-07) (-3.546027e-11 5.903694e-07 -1.344428e-07)) ((-5.463818e-12 3.240490e-13 -2.968191e-13) (2.189378e-08 -9.006933e-12 3.126572e-11))
434.383734    	((7.526147e-10 4.218173e-07 -4.175580e-07) (-6.695790e-12 5.827174e-07 -1.363339e-07)) ((-5.534295e-12 3.372008e-13 -3.006611e-13) (2.162303e-08 -1.034282e-11 3.111873e-11))
502.98863     	((7.875544e-10 4.225337e-07 -4.092396e-07) (2.320762e-11 5.764450e-07 -1.377688e-07)) ((-5.584437e-12 3.524934e-13 -3.040007e-13) (2.140218e-08 -1.152331e-11 3.055517e-11))
571.682883    	((8.065013e-10 4.229918e-07 -4.016036e-07) (5.135472e-11 5.713018e-07 -1.388890e-07)) ((-5.616622e-12 3.686577e-13 -3.064035e-13) (2.122243e-08 -1.249104e-11 2.971827e-11))
640.446345    	((8.107974e-10 4.231774e-07 -3.946521e-07) (7.795045e-11 5.670361e-07 -1.397993e-07)) ((-5.635728e-12 3.850930e-13 -3.085211e-13) (2.107468e-08 -1.324975e-11 2.868905e-11))
709.263003    	((8.059898e-10 4.232858e-07 -3.882875e-07) (1.007464e-10 5.635046e-07 -1.405536e-07)) ((-5.646576e-12 4.014288e-13 -3.104839e-13) (2.095345e-08 -1.382235e-11 2.758322e-11))
778.123517    	((7.898459e-10 4.233137e-07 -3.825811e-07) (1.203355e-10 5.605694e-07 -1.411919e-07)) ((-5.652921e-12 4.163246e-13 -3.123337e-13) (2.085345e-08 -1.419407e-11 2.637525e-11))
847.021751    	((7.631175e-10 4.233037e-07 -3.775030e-07) (1.366103e-10 5.581263e-07 -1.417358e-07)) ((-5.656301e-12 4.298664e-13 -3.137296e-13) (2.077090e-08 -1.434724e-11 2.513386e-11))
915.952141    	((7.295375e-10 4.232624e-07 -3.730554e-07) (1.485079e-10 5.560847e-07 -1.422052e-07)) ((-5.657541e-12 4.422582e-13 -3.146131e-13) (2.070238e-08 -1.430001e-11 2.384224e-11))
984.909541    	((6.937113e-10 4.232133e-07 -3.691787e-07) (1.556765e-10 5.543775e-07 -1.426109e-07)) ((-5.657557e-12 4.530998e-13 -3.153742e-13) (2.064545e-08 -1.407715e-11 2.259492e-11))
1053.889419   	((6.552683e-10 4.231581e-07 -3.658104e-07) (1.599081e-10 5.529453e-07 -1.429623e-07)) ((-5.656984e-12 4.626001e-13 -3.160056e-13) (2.059801e-08 -1.374164e-11 2.138830e-11))
1122.887976   	((6.152592e-10 4.231046e-07 -3.628836e-07) (1.615508e-10 5.517407e-07 -1.432664e-07)) ((-5.656073e-12 4.707359e-13 -3.166150e-13) (2.055840e-08 -1.330044e-11 2.020338e-11))
1191.902067   	((5.755128e-10 4.230536e-07 -3.603303e-07) (1.609290e-10 5.507264e-07 -1.435293e-07)) ((-5.655302e-12 4.778171e-13 -3.171884e-13) (2.052526e-08 -1.279525e-11 1.905861e-11))
1260.929093   	((5.370600e-10 4.230052e-07 -3.581014e-07) (1.586628e-10 5.498721e-07 -1.437570e-07)) ((-5.654485e-12 4.839539e-13 -3.176768e-13) (2.049747e-08 -1.224008e-11 1.796538e-11))
1329.966897   	((4.995196e-10 4.229612e-07 -3.561577e-07) (1.545402e-10 5.491511e-07 -1.439535e-07)) ((-5.653629e-12 4.891576e-13 -3.181774e-13) (2.047412e-08 -1.165012e-11 1.697418e-11))
1399.013689   	((4.638088e-10 4.229213e-07 -3.544616e-07) (1.495467e-10 5.485416e-07 -1.441229e-07)) ((-5.652946e-12 4.936321e-13 -3.185944e-13) (2.045448e-08 -1.105143e-11 1.605214e-11))
1468.067983   	((4.301349e-10 4.228855e-07 -3.529946e-07) (1.439610e-10 5.480253e-07 -1.442691e-07)) ((-5.652241e-12 4.974628e-13 -3.190152e-13) (2.043790e-08 -1.045217e-11 1.519649e-11))
1537.128542   	((3.985290e-10 4.228530e-07 -3.517217e-07) (1.379318e-10 5.475875e-07 -1.443950e-07)) ((-5.651587e-12 5.007557e-13 -3.193188e-13) (2.042390e-08 -9.854889e-12 1.440942e-11))
1606.194338   	((3.696678e-10 4.228237e-07 -3.506198e-07) (1.318401e-10 5.472158e-07 -1.445027e-07)) ((-5.650886e-12 5.036413e-13 -3.195302e-13) (2.041208e-08 -9.273104e-12 1.367873e-11))
1675.264517   	((3.432445e-10 4.227983e-07 -3.496671e-07) (1.259362e-10 5.469001e-07 -1.445949e-07)) ((-5.650202e-12 5.061405e-13 -3.197330e-13) (2.040208e-08 -8.721567e-12 1.299586e-11))
1744.338367   	((3.195037e-10 4.227751e-07 -3.488435e-07) (1.200257e-10 5.466318e-07 -1.446741e-07)) ((-5.649577e-12 5.083063e-13 -3.199215e-13) (2.039361e-08 -8.206667e-12 1.237922e-11))
1813.415294   	((2.978660e-10 4.227551e-07 -3.481324e-07) (1.142350e-10 5.464036e-07 -1.447421e-07)) ((-5.649037e-12 5.101461e-13 -3.200859e-13) (2.038641e-08 -7.725622e-12 1.182393e-11))
1882.494806   	((2.785541e-10 4.227381e-07 -3.475200e-07) (1.086449e-10 5.462093e-07 -1.448004e-07)) ((-5.648521e-12 5.117120e-13 -3.202201e-13) (2.038029e-08 -7.277308e-12 1.133020e-11))
1951.576489   	((2.612573e-10 4.227225e-07 -3.469912e-07) (1.033370e-10 5.460436e-07 -1.448503e-07)) ((-5.648051e-12 5.130336e-13 -3.203093e-13) (2.037509e-08 -6.865279e-12 1.088891e-11))
2020.659997   	((2.458430e-10 4.227091e-07 -3.465365e-07) (9.840357e-11 5.459023e-07 -1.448931e-07)) ((-5.647654e-12 5.141687e-13 -3.203774e-13) (2.037067e-08 -6.488965e-12 1.049334e-11))
2089.745043   	((2.321447e-10 4.226976e-07 -3.461448e-07) (9.384149e-11 5.457818e-07 -1.449298e-07)) ((-5.647328e-12 5.151427e-13 -3.204404e-13) (2.036690e-08 -6.147321e-12 1.014004e-11))
2158.831386   	((2.199712e-10 4.226876e-07 -3.458083e-07) (8.966776e-11 5.456789e-07 -1.449612e-07)) ((-5.647076e-12 5.159588e-13 -3.205101e-13) (2.036369e-08 -5.837895e-12 9.824535e-12))
2227.918823   	((2.092846e-10 4.226792e-07 -3.455191e-07) (8.589013e-11 5.455911e-07 -1.449882e-07)) ((-5.646857e-12 5.166537e-13 -3.205679e-13) (2.036095e-08 -5.559653e-12 9.543362e-12))
2297.007184   	((1.998411e-10 4.226717e-07 -3.452705e-07) (8.252363e-11 5.455162e-07 -1.450113e-07)) ((-5.646679e-12 5.172459e-13 -3.206173e-13) (2.035861e-08 -5.310352e-12 9.292124e-12))
2366.096326   	((1.915231e-10 4.226649e-07 -3.450570e-07) (7.953123e-11 5.454521e-07 -1.450312e-07)) ((-5.646527e-12 5.177520e-13 -3.206655e-13) (2.035662e-08 -5.087295e-12 9.068405e-12))
2435.186128   	((1.842362e-10 4.226592e-07 -3.448735e-07) (7.685761e-11 5.453974e-07 -1.450481e-07)) ((-5.646398e-12 5.181868e-13 -3.207072e-13) (2.035491e-08 -4.888385e-12 8.870931e-12))
2504.27649    	((1.778857e-10 4.226544e-07 -3.447164e-07) (7.447987e-11 5.453507e-07 -1.450627e-07)) ((-5.646293e-12 5.185577e-13 -3.207461e-13) (2.035346e-08 -4.712167e-12 8.696784e-12))
2573.367325   	((1.723009e-10 4.226502e-07 -3.445814e-07) (7.236551e-11 5.453108e-07 -1.450752e-07)) ((-5.646203e-12 5.188711e-13 -3.207787e-13) (2.035222e-08 -4.556475e-12 8.543738e-12))
2642.458564   	((1.674839e-10 4.226467e-07 -3.444661e-07) (7.049617e-11 5.452766e-07 -1.450858e-07)) ((-5.646127e-12 5.191368e-13 -3.208056e-13) (2.035115e-08 -4.419205e-12 8.409226e-12))
2711.550143   	((1.632511e-10 4.226437e-07 -3.443669e-07) (6.885615e-11 5.452475e-07 -1.450950e-07)) ((-5.646061e-12 5.193640e-13 -3.208269e-13) (2.035024e-08 -4.298512e-12 8.290890e-12))
2780.642012   	((1.595602e-10 4.226411e-07 -3.442820e-07) (6.741587e-11 5.452225e-07 -1.451028e-07)) ((-5.646005e-12 5.195573e-13 -3.208448e-13) (2.034947e-08 -4.192591e-12 8.187238e-12))
2849.734127   	((1.563462e-10 4.226388e-07 -3.442092e-07) (6.615043e-11 5.452012e-07 -1.451095e-07)) ((-5.645957e-12 5.197241e-13 -3.208605e-13) (2.034881e-08 -4.099741e-12 8.096459e-12))
2918.826452   	((1.535181e-10 4.226368e-07 -3.441467e-07) (6.504820e-11 5.451829e-07 -1.451152e-07)) ((-5.645917e-12 5.198650e-13 -3.208731e-13) (2.034824e-08 -4.018335e-12 8.016750e-12))
2987.918954   	((1.510527e-10 4.226352e-07 -3.440936e-07) (6.408860e-11 5.451673e-07 -1.451201e-07)) ((-5.645882e-12 5.199841e-13 -3.208836e-13) (2.034775e-08 -3.947155e-12 7.946788e-12))
3057.011607   	((1.489031e-10 4.226337e-07 -3.440479e-07) (6.324994e-11 5.451540e-07 -1.451243e-07)) ((-5.645851e-12 5.200867e-13 -3.208927e-13) (2.034734e-08 -3.884892e-12 7.885555e-12))
3126.104388   	((1.470384e-10 4.226325e-07 -3.440087e-07) (6.251755e-11 5.451426e-07 -1.451279e-07)) ((-5.645827e-12 5.201738e-13 -3.209005e-13) (2.034698e-08 -3.830485e-12 7.832014e-12))
3195.197279   	((1.453573e-10 4.226314e-07 -3.439748e-07) (6.187713e-11 5.451328e-07 -1.451310e-07)) ((-5.645803e-12 5.202485e-13 -3.209071e-13) (2.034668e-08 -3.782890e-12 7.785233e-12))
3264.290262   	((1.439219e-10 4.226305e-07 -3.439461e-07) (6.131727e-11 5.451245e-07 -1.451336e-07)) ((-5.645785e-12 5.203106e-13 -3.209130e-13) (2.034642e-08 -3.741306e-12 7.744347e-12))
3333.383325   	((1.426571e-10 4.226298e-07 -3.439216e-07) (6.082789e-11 5.451173e-07 -1.451359e-07)) ((-5.645768e-12 5.203634e-13 -3.209180e-13) (2.034620e-08 -3.704941e-12 7.708639e-12))
3402.476454   	((1.415293e-10 4.226291e-07 -3.439002e-07) (6.039994e-11 5.451112e-07 -1.451378e-07)) ((-5.645754e-12 5.204091e-13 -3.209225e-13) (2.034600e-08 -3.673115e-12 7.677452e-12))
3471.569641   	((1.405604e-10 4.226286e-07 -3.438822e-07) (6.002370e-11 5.451059e-07 -1.451395e-07)) ((-5.645742e-12 5.204469e-13 -3.209263e-13) (2.034584e-08 -3.645310e-12 7.650341e-12))
3540.662876   	((1.397119e-10 4.226280e-07 -3.438670e-07) (5.969369e-11 5.451015e-07 -1.451409e-07)) ((-5.645730e-12 5.204780e-13 -3.209295e-13) (2.034570e-08 -3.620998e-12 7.626743e-12))
3609.756153   	((1.389709e-10 4.226276e-07 -3.438538e-07) (5.940440e-11 5.450976e-07 -1.451421e-07)) ((-5.645721e-12 5.205051e-13 -3.209321e-13) (2.034558e-08 -3.599732e-12 7.606163e-12))
