# Forces      
# CofR        : (0.000000e+00 0.000000e+00 0.000000e+00)
# Time        forces(pressure viscous)	moments(pressure viscous)
0             	((0.000000e+00 0.000000e+00 0.000000e+00) (0.000000e+00 0.000000e+00 0.000000e+00)) ((0.000000e+00 0.000000e+00 0.000000e+00) (0.000000e+00 0.000000e+00 0.000000e+00))
0.012         	((2.133848e-05 -8.551967e-10 6.723354e-06) (5.263624e-05 -3.096019e-13 3.319137e-09)) ((3.500749e-13 -3.452873e-09 2.765544e-13) (3.685228e-14 -3.502806e-06 1.922081e-14))
0.0264        	((3.168685e-05 -1.785627e-08 1.060624e-05) (4.821913e-05 -5.306139e-12 -1.587050e-09)) ((2.013396e-13 1.720546e-09 7.398228e-14) (1.507849e-13 -3.212348e-06 -1.326300e-13))
0.04368       	((2.012487e-05 1.065545e-08 6.398174e-06) (4.367248e-05 2.349046e-12 -1.051546e-08)) ((4.124628e-13 1.189822e-09 2.028073e-13) (4.343345e-13 -2.914384e-06 -3.908766e-13))
0.064416      	((2.389102e-05 -1.318424e-08 7.870045e-06) (3.910608e-05 5.736050e-12 -2.175137e-08)) ((2.909373e-13 2.363029e-09 -2.363787e-14) (2.753142e-13 -2.616295e-06 -9.295868e-13))
0.0892992     	((1.706853e-05 5.957826e-09 5.489660e-06) (3.465992e-05 1.213815e-11 -3.462063e-08)) ((6.372110e-14 1.647226e-09 1.866686e-13) (5.063337e-13 -2.327296e-06 -8.592366e-13))
0.119159      	((1.795882e-05 -6.353960e-09 5.732042e-06) (3.048266e-05 8.910444e-12 -4.900474e-08)) ((1.837947e-13 2.016528e-09 4.407716e-14) (6.226754e-13 -2.057309e-06 -6.422465e-13))
0.154991      	((1.340131e-05 3.126704e-09 4.339746e-06) (2.670610e-05 2.749514e-12 -6.667504e-08)) ((-5.790954e-14 1.387136e-09 9.287724e-14) (8.935698e-13 -1.812374e-06 -6.840014e-13))
0.197989      	((1.343366e-05 -2.501253e-09 4.153532e-06) (2.338089e-05 2.121725e-12 -8.822676e-08)) ((5.488575e-15 1.599231e-09 2.306684e-14) (7.516726e-13 -1.596371e-06 -6.108201e-13))
0.249587      	((1.045760e-05 1.389326e-09 3.330182e-06) (2.052161e-05 3.117787e-12 -1.125920e-07)) ((-9.308792e-14 1.152721e-09 1.905006e-14) (4.569180e-13 -1.409364e-06 -5.197030e-13))
0.311504      	((1.023036e-05 -6.546554e-10 3.037318e-06) (1.810716e-05 -1.674284e-12 -1.348220e-07)) ((-1.041551e-13 1.302899e-09 2.603423e-14) (4.189572e-13 -1.250448e-06 -4.761733e-13))
0.385805      	((8.322417e-06 -1.848166e-10 2.543385e-06) (1.606852e-05 -7.613817e-12 -1.571930e-07)) ((-2.166374e-14 1.009131e-09 2.857054e-14) (2.173195e-14 -1.115645e-06 -5.444544e-13))
0.474966      	((7.981741e-06 -3.348891e-10 2.256435e-06) (1.433199e-05 -1.181926e-11 -1.699064e-07)) ((-1.745287e-13 1.093811e-09 6.670583e-16) (3.014980e-13 -1.000622e-06 -7.828823e-13))
0.581959      	((6.734852e-06 -7.625083e-10 1.940583e-06) (1.284005e-05 -3.676466e-12 -1.854518e-07)) ((-1.134149e-14 9.124233e-10 -1.971873e-14) (-7.785451e-13 -9.017847e-07 -9.057250e-13))
0.710351      	((6.369137e-06 -2.276778e-11 1.695281e-06) (1.154714e-05 4.073593e-11 -1.961656e-07)) ((-2.730511e-13 9.355011e-10 1.680252e-14) (-5.470523e-13 -8.162510e-07 -1.071780e-12))
0.864421      	((5.524711e-06 -4.140416e-10 1.453087e-06) (1.041368e-05 3.658507e-11 -2.108186e-07)) ((-1.218565e-13 8.377841e-10 -2.931547e-14) (3.974271e-14 -7.414403e-07 -8.912717e-13))
1.049306      	((5.163544e-06 2.128050e-10 1.227209e-06) (9.409810e-06 -6.117277e-12 -2.232527e-07)) ((-2.276389e-13 8.253506e-10 -1.617973e-13) (6.408409e-13 -6.754671e-07 -3.197108e-13))
1.271167      	((4.542722e-06 9.180172e-11 1.008608e-06) (8.511907e-06 -9.071017e-12 -2.376378e-07)) ((-1.778112e-13 7.613650e-10 -1.824105e-13) (2.303463e-12 -6.167203e-07 7.843631e-13))
1.5374        	((4.222198e-06 1.861776e-10 8.157172e-07) (7.707235e-06 2.378746e-12 -2.503019e-07)) ((-2.670618e-13 7.416338e-10 -2.337694e-13) (4.605358e-12 -5.643130e-07 1.142009e-12))
1.85688       	((3.754436e-06 -4.250264e-10 6.365580e-07) (6.988270e-06 -3.275511e-11 -2.621700e-07)) ((-2.083867e-13 6.956134e-10 -2.589741e-13) (5.964224e-12 -5.175927e-07 -6.396698e-13))
2.240256      	((3.463503e-06 -3.234902e-10 4.716608e-07) (6.351223e-06 -6.124968e-11 -2.714602e-07)) ((-2.319181e-13 6.795020e-10 -2.141865e-13) (7.801412e-12 -4.762559e-07 -3.233636e-12))
2.700307      	((3.109146e-06 -9.607290e-10 3.214649e-07) (5.791080e-06 -9.873621e-11 -2.792151e-07)) ((-1.594309e-13 6.471681e-10 -2.393306e-13) (1.017071e-11 -4.399541e-07 -8.008422e-12))
3.252369      	((2.876374e-06 -7.830103e-10 1.748467e-07) (5.300857e-06 -1.755009e-10 -2.876203e-07)) ((-1.676186e-13 6.347523e-10 -2.302152e-13) (1.300550e-11 -4.082730e-07 -1.498506e-11))
3.914842      	((2.617251e-06 -1.229095e-09 3.890640e-08) (4.871329e-06 -2.269552e-10 -2.978582e-07)) ((-1.793257e-13 6.140701e-10 -2.002365e-13) (1.323337e-11 -3.806288e-07 -2.025946e-11))
4.709811      	((2.433205e-06 -1.414709e-09 -1.031019e-07) (4.492047e-06 -1.906033e-10 -3.088060e-07)) ((-1.687181e-13 6.057983e-10 -1.649041e-13) (1.143994e-11 -3.563266e-07 -2.225219e-11))
5.663773      	((2.241949e-06 -1.527346e-09 -2.457393e-07) (4.153637e-06 -1.173974e-10 -3.196691e-07)) ((-1.216475e-13 5.936749e-10 -9.800780e-14) (1.069447e-11 -3.347685e-07 -2.274184e-11))
6.808528      	((2.103082e-06 -1.472054e-09 -3.806483e-07) (3.848676e-06 -5.948101e-11 -3.320211e-07)) ((-2.512880e-14 5.888241e-10 -1.610295e-13) (1.055796e-11 -3.154457e-07 -2.147894e-11))
8.182233      	((1.968200e-06 -1.502383e-09 -5.171545e-07) (3.572122e-06 -2.337641e-11 -3.448407e-07)) ((2.920259e-14 5.822033e-10 -1.497823e-13) (1.163968e-11 -2.980727e-07 -1.748379e-11))
9.83068       	((1.861415e-06 -1.647426e-09 -6.500022e-07) (3.319932e-06 -6.065279e-11 -3.583696e-07)) ((7.818240e-14 5.798116e-10 -1.856674e-13) (1.584274e-11 -2.823695e-07 -1.171176e-11))
11.808816     	((1.760011e-06 -1.531068e-09 -7.830958e-07) (3.088910e-06 -4.816158e-11 -3.740482e-07)) ((5.028965e-14 5.767274e-10 -1.606123e-13) (1.981151e-11 -2.681516e-07 -6.565575e-12))
14.182579     	((1.679494e-06 -1.852496e-09 -9.185544e-07) (2.877029e-06 -9.840663e-11 -3.924727e-07)) ((7.495699e-15 5.756018e-10 -1.355736e-13) (1.874533e-11 -2.552818e-07 -1.955561e-12))
17.031095     	((1.606473e-06 -1.522108e-09 -1.053832e-06) (2.683874e-06 -1.663597e-10 -4.131919e-07)) ((-1.607180e-14 5.741306e-10 -7.059330e-14) (1.320076e-11 -2.437114e-07 1.570036e-12))
20.449314     	((1.555199e-06 -1.407718e-09 -1.184616e-06) (2.509986e-06 -2.928491e-10 -4.362979e-07)) ((-2.181223e-14 5.739642e-10 -5.394626e-14) (8.303426e-12 -2.334281e-07 4.702739e-12))
24.551176     	((1.518883e-06 -1.444869e-09 -1.315168e-06) (2.355507e-06 -3.574362e-10 -4.626034e-07)) ((-3.303181e-14 5.745820e-10 -3.539216e-14) (3.374226e-12 -2.244126e-07 6.210946e-12))
29.473411     	((1.501002e-06 -1.091982e-09 -1.434893e-06) (2.220777e-06 -4.109944e-10 -4.920344e-07)) ((-3.806419e-14 5.764543e-10 -2.050632e-14) (-1.638831e-12 -2.166208e-07 6.006860e-12))
35.380094     	((1.491757e-06 -1.124805e-09 -1.545230e-06) (2.105256e-06 -4.317991e-10 -5.240550e-07)) ((-6.022463e-14 5.782869e-10 -1.948341e-14) (-5.666571e-12 -2.099718e-07 3.845712e-12))
42.395549     	((1.497719e-06 -1.048192e-09 -1.646731e-06) (2.008936e-06 -4.574678e-10 -5.582794e-07)) ((-4.858368e-14 5.800306e-10 -3.977937e-14) (-9.493438e-12 -2.043820e-07 2.307534e-12))
50.518621     	((1.518405e-06 -1.120125e-09 -1.739521e-06) (1.932156e-06 -4.914744e-10 -5.932261e-07)) ((-4.450299e-14 5.814802e-10 -5.116055e-14) (-1.262550e-11 -1.997941e-07 1.303975e-12))
59.74892      	((1.556756e-06 -1.075875e-09 -1.824172e-06) (1.874272e-06 -5.019629e-10 -6.271401e-07)) ((-3.837184e-14 5.829145e-10 -6.007322e-14) (-1.451007e-11 -1.961241e-07 8.518751e-14))
70.086632     	((1.609236e-06 -1.138376e-09 -1.897529e-06) (1.834023e-06 -5.178879e-10 -6.579686e-07)) ((-3.997662e-14 5.845757e-10 -6.053930e-14) (-1.628787e-11 -1.933064e-07 -1.010732e-12))
81.168939     	((1.666292e-06 -1.054944e-09 -1.959707e-06) (1.809620e-06 -5.207060e-10 -6.831681e-07)) ((-4.021287e-14 5.866107e-10 -6.145556e-14) (-1.793556e-11 -1.912789e-07 -1.674758e-12))
92.265858     	((1.716592e-06 -9.790791e-10 -2.009080e-06) (1.797332e-06 -5.087444e-10 -7.014512e-07)) ((-4.465815e-14 5.888778e-10 -6.092644e-14) (-1.914361e-11 -1.899359e-07 -2.197385e-12))
103.382786    	((1.753733e-06 -8.308257e-10 -2.048115e-06) (1.792287e-06 -4.949874e-10 -7.135594e-07)) ((-4.868973e-14 5.907302e-10 -6.378258e-14) (-2.006595e-11 -1.890819e-07 -2.955854e-12))
114.523176    	((1.779859e-06 -8.022328e-10 -2.078270e-06) (1.790923e-06 -4.958136e-10 -7.211301e-07)) ((-5.134801e-14 5.921778e-10 -6.484636e-14) (-2.093413e-11 -1.885485e-07 -4.296102e-12))
125.686047    	((1.798113e-06 -7.815805e-10 -2.100310e-06) (1.791124e-06 -5.045909e-10 -7.257904e-07)) ((-5.228781e-14 5.932961e-10 -6.636932e-14) (-2.181397e-11 -1.882150e-07 -5.896599e-12))
136.8695      	((1.811336e-06 -8.185288e-10 -2.116361e-06) (1.791831e-06 -5.196948e-10 -7.287022e-07)) ((-5.104349e-14 5.941189e-10 -6.841683e-14) (-2.279501e-11 -1.880072e-07 -7.316261e-12))
148.069946    	((1.820371e-06 -8.319088e-10 -2.128804e-06) (1.792577e-06 -5.390498e-10 -7.305518e-07)) ((-4.816821e-14 5.946546e-10 -6.974197e-14) (-2.374062e-11 -1.878825e-07 -8.618806e-12))
159.284308    	((1.825770e-06 -8.401408e-10 -2.138430e-06) (1.793184e-06 -5.516613e-10 -7.318636e-07)) ((-4.559025e-14 5.950399e-10 -7.009471e-14) (-2.449182e-11 -1.878073e-07 -9.598680e-12))
170.50984     	((1.828893e-06 -8.655959e-10 -2.145839e-06) (1.793601e-06 -5.660899e-10 -7.328811e-07)) ((-3.766530e-14 5.953378e-10 -7.345230e-14) (-2.469312e-11 -1.877626e-07 -1.061767e-11))
181.74386     	((1.830934e-06 -8.719329e-10 -2.151391e-06) (1.793932e-06 -5.718148e-10 -7.337493e-07)) ((-3.666645e-14 5.955777e-10 -7.537613e-14) (-2.492786e-11 -1.877375e-07 -1.132550e-11))
192.984401    	((1.832426e-06 -8.883653e-10 -2.155252e-06) (1.794269e-06 -5.747710e-10 -7.345933e-07)) ((-3.708782e-14 5.957714e-10 -7.651828e-14) (-2.517293e-11 -1.877239e-07 -1.180267e-11))
204.22977     	((1.833253e-06 -9.014550e-10 -2.157938e-06) (1.794659e-06 -5.770144e-10 -7.354317e-07)) ((-3.641844e-14 5.958811e-10 -7.716785e-14) (-2.526821e-11 -1.877180e-07 -1.214331e-11))
215.478838    	((1.833710e-06 -9.301858e-10 -2.160055e-06) (1.795116e-06 -5.790336e-10 -7.362638e-07)) ((-3.531962e-14 5.959332e-10 -7.733147e-14) (-2.524696e-11 -1.877176e-07 -1.239125e-11))
226.730873    	((1.833883e-06 -9.682372e-10 -2.161911e-06) (1.795645e-06 -5.815889e-10 -7.370767e-07)) ((-3.409595e-14 5.959485e-10 -7.747546e-14) (-2.521616e-11 -1.877218e-07 -1.254966e-11))
237.985336    	((1.833913e-06 -9.707297e-10 -2.163535e-06) (1.796236e-06 -5.839906e-10 -7.378631e-07)) ((-3.324322e-14 5.959497e-10 -7.774584e-14) (-2.519282e-11 -1.877294e-07 -1.261054e-11))
249.241801    	((1.833735e-06 -9.063087e-10 -2.165226e-06) (1.796864e-06 -5.822764e-10 -7.386201e-07)) ((-3.330136e-14 5.959403e-10 -7.818233e-14) (-2.503331e-11 -1.877390e-07 -1.259230e-11))
260.499976    	((1.833524e-06 -9.493472e-10 -2.166688e-06) (1.797514e-06 -5.809243e-10 -7.393424e-07)) ((-3.265525e-14 5.959291e-10 -7.844702e-14) (-2.495161e-11 -1.877500e-07 -1.251297e-11))
271.759637    	((1.833282e-06 -9.424313e-10 -2.168035e-06) (1.798177e-06 -5.803848e-10 -7.400181e-07)) ((-3.247718e-14 5.959178e-10 -7.859014e-14) (-2.493180e-11 -1.877621e-07 -1.240495e-11))
283.020612    	((1.833020e-06 -9.500873e-10 -2.169237e-06) (1.798843e-06 -5.809302e-10 -7.406438e-07)) ((-3.193850e-14 5.959077e-10 -7.862835e-14) (-2.495288e-11 -1.877749e-07 -1.229563e-11))
294.282761    	((1.832734e-06 -9.429132e-10 -2.170258e-06) (1.799502e-06 -5.810909e-10 -7.412180e-07)) ((-3.184741e-14 5.958972e-10 -7.853995e-14) (-2.497269e-11 -1.877882e-07 -1.220405e-11))
305.545974    	((1.832393e-06 -9.428205e-10 -2.171107e-06) (1.800143e-06 -5.814105e-10 -7.417394e-07)) ((-3.330136e-14 5.958878e-10 -7.887572e-14) (-2.505536e-11 -1.878015e-07 -1.215841e-11))
316.810168    	((1.832048e-06 -9.372909e-10 -2.171849e-06) (1.800760e-06 -5.818829e-10 -7.422115e-07)) ((-3.393459e-14 5.958787e-10 -7.882991e-14) (-2.516534e-11 -1.878146e-07 -1.216063e-11))
328.075281    	((1.831677e-06 -9.385825e-10 -2.172578e-06) (1.801349e-06 -5.830198e-10 -7.426388e-07)) ((-3.175224e-14 5.958698e-10 -7.852354e-14) (-2.525548e-11 -1.878272e-07 -1.218869e-11))
339.341261    	((1.831304e-06 -9.390181e-10 -2.173256e-06) (1.801908e-06 -5.840881e-10 -7.430262e-07)) ((-2.933732e-14 5.958614e-10 -7.821814e-14) (-2.530483e-11 -1.878392e-07 -1.221775e-11))
350.608064    	((1.830964e-06 -9.392784e-10 -2.173886e-06) (1.802437e-06 -5.845791e-10 -7.433771e-07)) ((-2.775849e-14 5.958536e-10 -7.808513e-14) (-2.533747e-11 -1.878508e-07 -1.225161e-11))
361.875691    	((1.830586e-06 -9.398353e-10 -2.174508e-06) (1.802936e-06 -5.846170e-10 -7.436959e-07)) ((-2.726582e-14 5.958454e-10 -7.827235e-14) (-2.535293e-11 -1.878618e-07 -1.230387e-11))
373.144167    	((1.830228e-06 -9.391358e-10 -2.175090e-06) (1.803403e-06 -5.846647e-10 -7.439853e-07)) ((-2.714580e-14 5.958377e-10 -7.838692e-14) (-2.535049e-11 -1.878722e-07 -1.237296e-11))
384.413477    	((1.829835e-06 -9.478303e-10 -2.175658e-06) (1.803835e-06 -5.851406e-10 -7.442503e-07)) ((-2.700971e-14 5.958292e-10 -7.849099e-14) (-2.535129e-11 -1.878819e-07 -1.244315e-11))
395.683578    	((1.829480e-06 -9.571447e-10 -2.176177e-06) (1.804238e-06 -5.860233e-10 -7.444938e-07)) ((-2.716285e-14 5.958205e-10 -7.832684e-14) (-2.535986e-11 -1.878908e-07 -1.250628e-11))
406.954424    	((1.829121e-06 -9.543664e-10 -2.176677e-06) (1.804612e-06 -5.863918e-10 -7.447168e-07)) ((-2.798302e-14 5.958104e-10 -7.846076e-14) (-2.534027e-11 -1.878991e-07 -1.256543e-11))
418.225974    	((1.828728e-06 -9.516407e-10 -2.177192e-06) (1.804959e-06 -5.863050e-10 -7.449202e-07)) ((-2.869945e-14 5.957976e-10 -7.832962e-14) (-2.529704e-11 -1.879067e-07 -1.260442e-11))
429.498185    	((1.828269e-06 -9.520866e-10 -2.177700e-06) (1.805277e-06 -5.864373e-10 -7.451056e-07)) ((-2.871872e-14 5.957818e-10 -7.807473e-14) (-2.524309e-11 -1.879134e-07 -1.260985e-11))
440.771018    	((1.827775e-06 -9.540156e-10 -2.178207e-06) (1.805565e-06 -5.864389e-10 -7.452770e-07)) ((-2.881130e-14 5.957644e-10 -7.780923e-14) (-2.520578e-11 -1.879190e-07 -1.259303e-11))
452.044431    	((1.827292e-06 -9.652853e-10 -2.178708e-06) (1.805828e-06 -5.867228e-10 -7.454343e-07)) ((-2.860968e-14 5.957470e-10 -7.761639e-14) (-2.519984e-11 -1.879237e-07 -1.257222e-11))
463.318391    	((1.826771e-06 -9.749402e-10 -2.179231e-06) (1.806068e-06 -5.876692e-10 -7.455777e-07)) ((-2.844790e-14 5.957284e-10 -7.744289e-14) (-2.522969e-11 -1.879275e-07 -1.256471e-11))
474.59287     	((1.826220e-06 -1.002768e-09 -2.179749e-06) (1.806285e-06 -5.905033e-10 -7.457078e-07)) ((-2.813100e-14 5.957088e-10 -7.717226e-14) (-2.533373e-11 -1.879305e-07 -1.256935e-11))
