# Forces      
# CofR        : (0.000000e+00 0.000000e+00 0.000000e+00)
# Time        forces(pressure viscous)	moments(pressure viscous)
0             	((0.000000e+00 0.000000e+00 0.000000e+00) (8.906190e-08 2.274976e-10 9.608388e-03)) ((0.000000e+00 0.000000e+00 0.000000e+00) (-5.983321e-11 5.528574e-09 -1.328167e-13))
0.012         	((2.361527e-04 5.580188e-05 8.154133e-01) (3.422555e-07 2.180826e-07 8.593478e-03)) ((2.783923e-09 6.487728e-07 4.997087e-11) (1.937707e-08 -3.980170e-08 -8.353332e-12))
0.0264        	((1.976678e-04 1.209163e-04 -2.168363e-01) (7.075239e-07 4.772989e-07 6.881658e-03)) ((1.077824e-08 -3.960822e-07 4.619420e-10) (1.812969e-08 -2.604007e-08 -7.680112e-11))
0.04368       	((-1.290135e-04 -1.376173e-04 -9.724164e-02) (-2.734601e-07 1.101355e-07 5.170092e-03)) ((-1.311097e-08 -1.834051e-07 -2.764341e-10) (1.593026e-09 3.918994e-09 9.778108e-10))
0.064416      	((5.423565e-05 -1.928853e-05 -8.130071e-03) (-8.722370e-07 -4.608258e-07 4.503716e-03)) ((-1.285718e-09 -6.697793e-08 -2.333029e-10) (-8.263732e-09 1.223973e-08 1.027977e-10))
0.0892992     	((4.654803e-05 4.735626e-06 3.395743e-03) (-5.460882e-07 -2.866888e-07 4.095019e-03)) ((-3.630864e-10 -5.211241e-08 3.023036e-10) (-9.250028e-10 3.618985e-08 -3.033062e-09))
0.119159      	((4.256550e-05 -1.876658e-05 -4.198543e-03) (-8.575248e-07 -2.078212e-07 3.579723e-03)) ((-2.790220e-09 -6.776704e-08 -3.394060e-10) (-7.442352e-10 4.837446e-08 -6.408318e-09))
0.154991      	((4.538301e-05 -9.283746e-06 -1.453693e-03) (-5.163310e-07 -3.004998e-07 3.233920e-03)) ((-6.777519e-10 -6.419081e-08 -6.430761e-11) (-4.692992e-09 2.017997e-08 -6.966970e-09))
0.197989      	((3.755438e-05 -1.785744e-05 -3.140155e-03) (3.921613e-08 -1.871307e-07 2.960446e-03)) ((-1.209337e-09 -7.542177e-08 -3.263621e-11) (9.702932e-10 -1.075806e-08 -6.389439e-09))
0.249587      	((3.621404e-05 -1.409806e-05 -2.504171e-03) (4.725472e-07 -1.561643e-07 2.715158e-03)) ((-7.384758e-10 -7.552981e-08 -8.175424e-11) (3.260045e-09 -3.717398e-08 -6.266762e-09))
0.311504      	((3.358856e-05 -1.304315e-05 -2.975708e-03) (1.099354e-06 -9.140612e-09 2.523230e-03)) ((-3.928535e-10 -8.075153e-08 -3.309695e-11) (1.259909e-08 -6.983512e-08 -5.426434e-09))
0.38437       	((2.989740e-05 -1.042985e-05 -2.798365e-03) (1.518189e-06 2.146320e-07 2.383032e-03)) ((6.028267e-11 -8.049665e-08 -5.148303e-12) (2.795282e-08 -1.079079e-07 -5.087251e-09))
0.468316      	((3.484988e-05 -8.723484e-06 -2.954477e-03) (1.873185e-06 4.590366e-07 2.284701e-03)) ((2.668533e-11 -8.295823e-08 1.082970e-10) (4.593368e-08 -1.384501e-07 -4.710384e-09))
0.563492      	((3.352063e-05 -5.638957e-06 -2.888217e-03) (2.193238e-06 7.093496e-07 2.218777e-03)) ((1.774637e-10 -8.308515e-08 1.046325e-10) (6.780864e-08 -1.650657e-07 -3.430188e-09))
0.670079      	((3.470825e-05 -4.509530e-06 -2.932788e-03) (2.486819e-06 9.435605e-07 2.174902e-03)) ((2.207504e-10 -8.407919e-08 9.645955e-11) (9.042868e-08 -1.874860e-07 -1.822875e-09))
0.786616      	((3.368735e-05 -4.100546e-06 -2.895853e-03) (2.688738e-06 1.137678e-06 2.146538e-03)) ((4.514016e-10 -8.420184e-08 1.152225e-10) (1.113861e-07 -2.059586e-07 -3.180970e-10))
0.905485      	((3.386201e-05 -4.171192e-06 -2.909101e-03) (2.827940e-06 1.294300e-06 2.129742e-03)) ((5.073676e-10 -8.461402e-08 1.221413e-10) (1.300992e-07 -2.236667e-07 6.325620e-10))
1.026379      	((3.466640e-05 -3.508275e-06 -2.893308e-03) (2.918818e-06 1.413688e-06 2.120755e-03)) ((6.208256e-10 -8.501371e-08 1.188017e-10) (1.462104e-07 -2.397534e-07 1.614735e-09))
1.147737      	((3.715319e-05 -3.481460e-06 -2.901136e-03) (2.993216e-06 1.493782e-06 2.117663e-03)) ((6.538368e-10 -8.559596e-08 8.627665e-11) (1.570158e-07 -2.528589e-07 2.275271e-09))
1.269259      	((3.907554e-05 -3.763081e-06 -2.898091e-03) (3.068336e-06 1.539958e-06 2.119186e-03)) ((7.233667e-10 -8.621021e-08 8.014754e-11) (1.638083e-07 -2.633629e-07 2.417400e-09))
1.390825      	((4.185441e-05 -3.872995e-06 -2.907225e-03) (3.159150e-06 1.558338e-06 2.124456e-03)) ((7.587489e-10 -8.680225e-08 8.476718e-11) (1.686142e-07 -2.732246e-07 2.279556e-09))
1.512306      	((4.491137e-05 -3.575968e-06 -2.912851e-03) (3.265024e-06 1.573577e-06 2.132662e-03)) ((8.060970e-10 -8.735325e-08 8.021145e-11) (1.720206e-07 -2.833075e-07 2.027317e-09))
1.633557      	((4.757984e-05 -3.095284e-06 -2.921815e-03) (3.374163e-06 1.593871e-06 2.142977e-03)) ((8.064788e-10 -8.797988e-08 8.436356e-11) (1.748806e-07 -2.933585e-07 1.707770e-09))
1.754433      	((4.967583e-05 -2.614049e-06 -2.923399e-03) (3.470757e-06 1.616758e-06 2.154404e-03)) ((8.142482e-10 -8.858128e-08 7.878756e-11) (1.773162e-07 -3.024196e-07 1.439210e-09))
1.874792      	((5.154035e-05 -2.423079e-06 -2.918064e-03) (3.546648e-06 1.632372e-06 2.165789e-03)) ((8.414156e-10 -8.901935e-08 7.666191e-11) (1.791929e-07 -3.101859e-07 1.273792e-09))
1.994538      	((5.269569e-05 -2.200800e-06 -2.901232e-03) (3.594079e-06 1.637904e-06 2.175980e-03)) ((8.442448e-10 -8.926168e-08 7.538500e-11) (1.808186e-07 -3.164058e-07 1.195762e-09))
2.113656      	((5.390687e-05 -1.899345e-06 -2.876722e-03) (3.616134e-06 1.643741e-06 2.184021e-03)) ((8.256021e-10 -8.921946e-08 7.265868e-11) (1.822632e-07 -3.211780e-07 1.411001e-09))
2.23223       	((5.517785e-05 -1.960759e-06 -2.849460e-03) (3.633935e-06 1.642875e-06 2.189380e-03)) ((8.441859e-10 -8.899179e-08 6.941803e-11) (1.831486e-07 -3.244466e-07 1.809526e-09))
2.350426      	((5.572256e-05 -1.727664e-06 -2.828478e-03) (3.644809e-06 1.638785e-06 2.192065e-03)) ((8.174771e-10 -8.866863e-08 6.883852e-11) (1.835071e-07 -3.262959e-07 2.036536e-09))
2.468449      	((5.659374e-05 -1.563851e-06 -2.819995e-03) (3.654713e-06 1.640488e-06 2.192624e-03)) ((7.846081e-10 -8.832152e-08 6.735453e-11) (1.839882e-07 -3.275399e-07 2.203338e-09))
2.586467      	((5.726037e-05 -1.690200e-06 -2.824249e-03) (3.672460e-06 1.641280e-06 2.191916e-03)) ((7.832154e-10 -8.810929e-08 7.338202e-11) (1.843003e-07 -3.287424e-07 2.351943e-09))
2.704573      	((5.745065e-05 -1.664717e-06 -2.835065e-03) (3.699225e-06 1.645415e-06 2.190758e-03)) ((7.711564e-10 -8.803866e-08 7.108273e-11) (1.842727e-07 -3.297583e-07 2.508481e-09))
2.822778      	((5.722389e-05 -1.878946e-06 -2.845204e-03) (3.723538e-06 1.649028e-06 2.189691e-03)) ((7.796078e-10 -8.807636e-08 7.300444e-11) (1.842803e-07 -3.305834e-07 2.656178e-09))
2.941055      	((5.695397e-05 -2.005418e-06 -2.850387e-03) (3.740291e-06 1.648540e-06 2.188919e-03)) ((7.871728e-10 -8.814162e-08 7.529949e-11) (1.842528e-07 -3.310126e-07 2.706147e-09))
3.059375      	((5.673958e-05 -2.000948e-06 -2.850725e-03) (3.750347e-06 1.648584e-06 2.188420e-03)) ((7.844836e-10 -8.818168e-08 7.317009e-11) (1.840696e-07 -3.308881e-07 2.715292e-09))
3.17772       	((5.668495e-05 -1.989239e-06 -2.849300e-03) (3.753326e-06 1.647472e-06 2.188104e-03)) ((7.736119e-10 -8.817615e-08 7.197938e-11) (1.838248e-07 -3.304229e-07 2.707242e-09))
3.296085      	((5.682858e-05 -1.928370e-06 -2.848841e-03) (3.753104e-06 1.644927e-06 2.187912e-03)) ((7.527769e-10 -8.815315e-08 6.974697e-11) (1.834232e-07 -3.297773e-07 2.707434e-09))
3.414467      	((5.705459e-05 -1.821142e-06 -2.849643e-03) (3.752418e-06 1.640475e-06 2.187822e-03)) ((7.391890e-10 -8.813949e-08 6.554615e-11) (1.828162e-07 -3.291392e-07 2.735670e-09))
3.532857      	((5.720178e-05 -1.723625e-06 -2.850528e-03) (3.754569e-06 1.634992e-06 2.187820e-03)) ((7.289487e-10 -8.813989e-08 6.530857e-11) (1.821242e-07 -3.287660e-07 2.768033e-09))
3.65125       	((5.725016e-05 -1.693131e-06 -2.850659e-03) (3.760267e-06 1.630503e-06 2.187873e-03)) ((7.260088e-10 -8.814129e-08 6.775387e-11) (1.814691e-07 -3.286968e-07 2.776159e-09))
3.769641      	((5.726546e-05 -1.714633e-06 -2.850187e-03) (3.768158e-06 1.626985e-06 2.187954e-03)) ((7.256932e-10 -8.814000e-08 6.996948e-11) (1.808998e-07 -3.288276e-07 2.766557e-09))
3.888029      	((5.729274e-05 -1.754483e-06 -2.849846e-03) (3.777081e-06 1.624303e-06 2.188044e-03)) ((7.268282e-10 -8.813459e-08 7.096977e-11) (1.803990e-07 -3.290566e-07 2.755277e-09))
4.006413      	((5.732898e-05 -1.803671e-06 -2.849782e-03) (3.785571e-06 1.622485e-06 2.188134e-03)) ((7.275312e-10 -8.813156e-08 7.116891e-11) (1.799545e-07 -3.292888e-07 2.737110e-09))
4.124794      	((5.735846e-05 -1.863706e-06 -2.849789e-03) (3.792681e-06 1.621346e-06 2.188219e-03)) ((7.293746e-10 -8.813235e-08 7.070602e-11) (1.795536e-07 -3.294784e-07 2.716704e-09))
4.24317       	((5.737370e-05 -1.930704e-06 -2.849667e-03) (3.798465e-06 1.620570e-06 2.188293e-03)) ((7.333011e-10 -8.813263e-08 7.022203e-11) (1.791860e-07 -3.296289e-07 2.707510e-09))
4.361542      	((5.738109e-05 -1.983814e-06 -2.849492e-03) (3.802986e-06 1.619750e-06 2.188354e-03)) ((7.385523e-10 -8.813131e-08 6.981941e-11) (1.788398e-07 -3.297523e-07 2.707387e-09))
4.479912      	((5.738649e-05 -2.021874e-06 -2.849387e-03) (3.806360e-06 1.618678e-06 2.188400e-03)) ((7.431602e-10 -8.812945e-08 6.924516e-11) (1.785255e-07 -3.298562e-07 2.708477e-09))
4.59828       	((5.739208e-05 -2.049177e-06 -2.849351e-03) (3.808870e-06 1.617763e-06 2.188435e-03)) ((7.464607e-10 -8.812842e-08 6.872845e-11) (1.782892e-07 -3.299497e-07 2.705269e-09))
4.716646      	((5.738637e-05 -2.056090e-06 -2.849300e-03) (3.810714e-06 1.617512e-06 2.188459e-03)) ((7.448533e-10 -8.812788e-08 6.811606e-11) (1.781838e-07 -3.300340e-07 2.696199e-09))
4.835012      	((5.737992e-05 -2.062737e-06 -2.849257e-03) (3.812170e-06 1.617877e-06 2.188477e-03)) ((7.458358e-10 -8.812711e-08 6.790599e-11) (1.782044e-07 -3.301136e-07 2.682003e-09))
4.953377      	((5.737430e-05 -2.052894e-06 -2.849243e-03) (3.813489e-06 1.619390e-06 2.188490e-03)) ((7.464233e-10 -8.812576e-08 6.810816e-11) (1.783701e-07 -3.301951e-07 2.665586e-09))
5.071742      	((5.737406e-05 -2.039859e-06 -2.849265e-03) (3.814743e-06 1.622242e-06 2.188502e-03)) ((7.470106e-10 -8.812470e-08 6.835114e-11) (1.786725e-07 -3.302782e-07 2.650592e-09))
5.190107      	((5.737773e-05 -2.020914e-06 -2.849284e-03) (3.815913e-06 1.625681e-06 2.188514e-03)) ((7.475686e-10 -8.812376e-08 6.856773e-11) (1.790522e-07 -3.303589e-07 2.639190e-09))
5.308472      	((5.738277e-05 -2.007698e-06 -2.849293e-03) (3.816973e-06 1.629174e-06 2.188525e-03)) ((7.478685e-10 -8.812301e-08 6.876436e-11) (1.794680e-07 -3.304350e-07 2.631616e-09))
5.426838      	((5.738854e-05 -1.998527e-06 -2.849292e-03) (3.817930e-06 1.632556e-06 2.188536e-03)) ((7.478433e-10 -8.812240e-08 6.888435e-11) (1.798985e-07 -3.305062e-07 2.627121e-09))
5.545203      	((5.739401e-05 -1.993641e-06 -2.849294e-03) (3.818787e-06 1.635683e-06 2.188547e-03)) ((7.479095e-10 -8.812208e-08 6.894827e-11) (1.803262e-07 -3.305718e-07 2.624790e-09))
5.663568      	((5.739882e-05 -1.989693e-06 -2.849293e-03) (3.819555e-06 1.638510e-06 2.188557e-03)) ((7.481528e-10 -8.812181e-08 6.896561e-11) (1.807299e-07 -3.306323e-07 2.623712e-09))
5.781934      	((5.740364e-05 -1.989064e-06 -2.849292e-03) (3.820271e-06 1.640932e-06 2.188567e-03)) ((7.488589e-10 -8.812157e-08 6.896183e-11) (1.810881e-07 -3.306893e-07 2.622784e-09))
5.900299      	((5.740828e-05 -1.986998e-06 -2.849291e-03) (3.820953e-06 1.642927e-06 2.188575e-03)) ((7.495759e-10 -8.812131e-08 6.895305e-11) (1.813906e-07 -3.307426e-07 2.621384e-09))
6.018664      	((5.741289e-05 -1.981070e-06 -2.849293e-03) (3.821598e-06 1.644565e-06 2.188582e-03)) ((7.501919e-10 -8.812108e-08 6.892931e-11) (1.816376e-07 -3.307924e-07 2.619405e-09))
6.137029      	((5.741728e-05 -1.974672e-06 -2.849295e-03) (3.822210e-06 1.645895e-06 2.188588e-03)) ((7.507252e-10 -8.812087e-08 6.889363e-11) (1.818337e-07 -3.308392e-07 2.617149e-09))
6.255394      	((5.742169e-05 -1.966159e-06 -2.849298e-03) (3.822785e-06 1.646982e-06 2.188593e-03)) ((7.510956e-10 -8.812066e-08 6.885824e-11) (1.819876e-07 -3.308833e-07 2.614774e-09))
6.373759      	((5.742603e-05 -1.958279e-06 -2.849299e-03) (3.823327e-06 1.647870e-06 2.188597e-03)) ((7.513850e-10 -8.812040e-08 6.882158e-11) (1.821078e-07 -3.309253e-07 2.612546e-09))
6.492123      	((5.742991e-05 -1.950982e-06 -2.849300e-03) (3.823834e-06 1.648592e-06 2.188601e-03)) ((7.516002e-10 -8.812015e-08 6.878748e-11) (1.822011e-07 -3.309656e-07 2.610696e-09))
6.610488      	((5.743325e-05 -1.944866e-06 -2.849300e-03) (3.824311e-06 1.649185e-06 2.188604e-03)) ((7.517815e-10 -8.811993e-08 6.875932e-11) (1.822736e-07 -3.310043e-07 2.609176e-09))
6.728852      	((5.743586e-05 -1.939692e-06 -2.849300e-03) (3.824747e-06 1.649672e-06 2.188606e-03)) ((7.519481e-10 -8.811970e-08 6.873276e-11) (1.823299e-07 -3.310408e-07 2.608040e-09))
6.847216      	((5.743863e-05 -1.935337e-06 -2.849301e-03) (3.825150e-06 1.650084e-06 2.188608e-03)) ((7.520016e-10 -8.811953e-08 6.870702e-11) (1.823743e-07 -3.310755e-07 2.607303e-09))
6.965581      	((5.744089e-05 -1.931712e-06 -2.849301e-03) (3.825525e-06 1.650438e-06 2.188610e-03)) ((7.520881e-10 -8.811936e-08 6.869449e-11) (1.824101e-07 -3.311083e-07 2.606743e-09))
7.083945      	((5.744316e-05 -1.929209e-06 -2.849300e-03) (3.825876e-06 1.650729e-06 2.188611e-03)) ((7.521487e-10 -8.811921e-08 6.867649e-11) (1.824382e-07 -3.311393e-07 2.606332e-09))
7.202309      	((5.744550e-05 -1.926843e-06 -2.849301e-03) (3.826206e-06 1.650976e-06 2.188612e-03)) ((7.521871e-10 -8.811907e-08 6.866213e-11) (1.824607e-07 -3.311689e-07 2.605962e-09))
7.320673      	((5.744769e-05 -1.925416e-06 -2.849300e-03) (3.826520e-06 1.651179e-06 2.188614e-03)) ((7.522389e-10 -8.811894e-08 6.865517e-11) (1.824786e-07 -3.311971e-07 2.605573e-09))
7.439037      	((5.744888e-05 -1.923937e-06 -2.849300e-03) (3.826798e-06 1.651337e-06 2.188615e-03)) ((7.522497e-10 -8.811881e-08 6.864682e-11) (1.824922e-07 -3.312226e-07 2.605217e-09))
7.557401      	((5.745060e-05 -1.923022e-06 -2.849300e-03) (3.827055e-06 1.651464e-06 2.188615e-03)) ((7.522782e-10 -8.811873e-08 6.864492e-11) (1.825028e-07 -3.312462e-07 2.604805e-09))
7.675765      	((5.745275e-05 -1.922254e-06 -2.849300e-03) (3.827298e-06 1.651571e-06 2.188616e-03)) ((7.522927e-10 -8.811869e-08 6.864661e-11) (1.825115e-07 -3.312688e-07 2.604371e-09))
7.794129      	((5.745226e-05 -1.921492e-06 -2.849297e-03) (3.827475e-06 1.651651e-06 2.188617e-03)) ((7.522914e-10 -8.811856e-08 6.864736e-11) (1.825176e-07 -3.312872e-07 2.604016e-09))
7.912493      	((5.745302e-05 -1.920638e-06 -2.849298e-03) (3.827641e-06 1.651718e-06 2.188617e-03)) ((7.522843e-10 -8.811853e-08 6.865984e-11) (1.825226e-07 -3.313028e-07 2.603675e-09))
8.030857      	((5.745321e-05 -1.920532e-06 -2.849296e-03) (3.827797e-06 1.651778e-06 2.188618e-03)) ((7.523155e-10 -8.811857e-08 6.866046e-11) (1.825269e-07 -3.313173e-07 2.603291e-09))
8.14922       	((5.745525e-05 -1.919835e-06 -2.849297e-03) (3.827939e-06 1.651822e-06 2.188618e-03)) ((7.523142e-10 -8.811844e-08 6.864834e-11) (1.825300e-07 -3.313322e-07 2.602965e-09))
8.267584      	((5.745693e-05 -1.921080e-06 -2.849297e-03) (3.828085e-06 1.651857e-06 2.188619e-03)) ((7.523684e-10 -8.811835e-08 6.865506e-11) (1.825321e-07 -3.313469e-07 2.602544e-09))
8.385948      	((5.745749e-05 -1.919914e-06 -2.849296e-03) (3.828206e-06 1.651884e-06 2.188619e-03)) ((7.522920e-10 -8.811830e-08 6.866099e-11) (1.825337e-07 -3.313601e-07 2.602173e-09))
8.504312      	((5.745789e-05 -1.919743e-06 -2.849296e-03) (3.828312e-06 1.651909e-06 2.188620e-03)) ((7.522934e-10 -8.811826e-08 6.866438e-11) (1.825352e-07 -3.313715e-07 2.601786e-09))
8.622675      	((5.745909e-05 -1.919659e-06 -2.849295e-03) (3.828418e-06 1.651923e-06 2.188620e-03)) ((7.523123e-10 -8.811816e-08 6.865768e-11) (1.825362e-07 -3.313822e-07 2.601363e-09))
8.741039      	((5.745937e-05 -1.919235e-06 -2.849295e-03) (3.828514e-06 1.651928e-06 2.188621e-03)) ((7.522652e-10 -8.811812e-08 6.866002e-11) (1.825367e-07 -3.313923e-07 2.600958e-09))
8.859403      	((5.745971e-05 -1.919470e-06 -2.849295e-03) (3.828597e-06 1.651931e-06 2.188621e-03)) ((7.522502e-10 -8.811806e-08 6.866037e-11) (1.825369e-07 -3.314014e-07 2.600543e-09))
8.977766      	((5.746050e-05 -1.919542e-06 -2.849295e-03) (3.828678e-06 1.651927e-06 2.188621e-03)) ((7.522435e-10 -8.811799e-08 6.866076e-11) (1.825368e-07 -3.314097e-07 2.600089e-09))
9.09613       	((5.746221e-05 -1.919648e-06 -2.849295e-03) (3.828764e-06 1.651918e-06 2.188621e-03)) ((7.522328e-10 -8.811787e-08 6.865225e-11) (1.825365e-07 -3.314184e-07 2.599666e-09))
9.214493      	((5.746207e-05 -1.919554e-06 -2.849294e-03) (3.828834e-06 1.651906e-06 2.188622e-03)) ((7.521965e-10 -8.811785e-08 6.865725e-11) (1.825360e-07 -3.314259e-07 2.599170e-09))
9.332857      	((5.746204e-05 -1.919589e-06 -2.849293e-03) (3.828889e-06 1.651893e-06 2.188622e-03)) ((7.521800e-10 -8.811775e-08 6.865065e-11) (1.825354e-07 -3.314322e-07 2.598707e-09))
9.451221      	((5.746210e-05 -1.919577e-06 -2.849293e-03) (3.828944e-06 1.651878e-06 2.188622e-03)) ((7.521563e-10 -8.811768e-08 6.864769e-11) (1.825346e-07 -3.314380e-07 2.598263e-09))
9.569584      	((5.746256e-05 -1.919610e-06 -2.849293e-03) (3.829001e-06 1.651858e-06 2.188622e-03)) ((7.521305e-10 -8.811762e-08 6.864751e-11) (1.825337e-07 -3.314438e-07 2.597762e-09))
9.687948      	((5.746322e-05 -1.919733e-06 -2.849293e-03) (3.829054e-06 1.651838e-06 2.188623e-03)) ((7.521016e-10 -8.811755e-08 6.863818e-11) (1.825328e-07 -3.314496e-07 2.597279e-09))
9.806311      	((5.746354e-05 -1.919790e-06 -2.849293e-03) (3.829103e-06 1.651816e-06 2.188623e-03)) ((7.520769e-10 -8.811745e-08 6.863862e-11) (1.825317e-07 -3.314548e-07 2.596745e-09))
9.924675      	((5.746329e-05 -1.919798e-06 -2.849292e-03) (3.829137e-06 1.651794e-06 2.188623e-03)) ((7.520483e-10 -8.811737e-08 6.862962e-11) (1.825307e-07 -3.314591e-07 2.596249e-09))
10.043038     	((5.746374e-05 -1.919839e-06 -2.849292e-03) (3.829178e-06 1.651770e-06 2.188623e-03)) ((7.520172e-10 -8.811729e-08 6.862559e-11) (1.825295e-07 -3.314637e-07 2.595759e-09))
10.161402     	((5.746421e-05 -1.919987e-06 -2.849292e-03) (3.829226e-06 1.651743e-06 2.188623e-03)) ((7.519810e-10 -8.811721e-08 6.861964e-11) (1.825283e-07 -3.314685e-07 2.595198e-09))
10.279765     	((5.746270e-05 -1.919895e-06 -2.849290e-03) (3.829240e-06 1.651720e-06 2.188624e-03)) ((7.519582e-10 -8.811708e-08 6.861430e-11) (1.825270e-07 -3.314720e-07 2.594722e-09))
10.398129     	((5.746331e-05 -1.919930e-06 -2.849290e-03) (3.829274e-06 1.651696e-06 2.188624e-03)) ((7.519250e-10 -8.811702e-08 6.860941e-11) (1.825259e-07 -3.314751e-07 2.594246e-09))
10.516492     	((5.746393e-05 -1.920003e-06 -2.849291e-03) (3.829318e-06 1.651666e-06 2.188624e-03)) ((7.518873e-10 -8.811695e-08 6.860044e-11) (1.825245e-07 -3.314793e-07 2.593740e-09))
10.634856     	((5.746437e-05 -1.920082e-06 -2.849291e-03) (3.829351e-06 1.651637e-06 2.188624e-03)) ((7.518552e-10 -8.811683e-08 6.859347e-11) (1.825230e-07 -3.314835e-07 2.593205e-09))
10.753219     	((5.746454e-05 -1.920158e-06 -2.849290e-03) (3.829383e-06 1.651610e-06 2.188624e-03)) ((7.518221e-10 -8.811671e-08 6.858469e-11) (1.825217e-07 -3.314873e-07 2.592667e-09))
10.871583     	((5.746519e-05 -1.920197e-06 -2.849290e-03) (3.829423e-06 1.651580e-06 2.188625e-03)) ((7.517876e-10 -8.811660e-08 6.857358e-11) (1.825203e-07 -3.314915e-07 2.592142e-09))
10.989946     	((5.746573e-05 -1.920238e-06 -2.849290e-03) (3.829464e-06 1.651549e-06 2.188625e-03)) ((7.517474e-10 -8.811646e-08 6.856110e-11) (1.825187e-07 -3.314959e-07 2.591593e-09))
11.10831      	((5.746654e-05 -1.920344e-06 -2.849290e-03) (3.829505e-06 1.651518e-06 2.188625e-03)) ((7.517156e-10 -8.811635e-08 6.854858e-11) (1.825172e-07 -3.315004e-07 2.591090e-09))
11.226673     	((5.746647e-05 -1.920425e-06 -2.849289e-03) (3.829535e-06 1.651486e-06 2.188625e-03)) ((7.516808e-10 -8.811620e-08 6.853416e-11) (1.825156e-07 -3.315044e-07 2.590563e-09))
11.345037     	((5.746644e-05 -1.920452e-06 -2.849289e-03) (3.829558e-06 1.651454e-06 2.188625e-03)) ((7.516361e-10 -8.811607e-08 6.851979e-11) (1.825140e-07 -3.315077e-07 2.590025e-09))
11.4634       	((5.746653e-05 -1.920606e-06 -2.849289e-03) (3.829587e-06 1.651420e-06 2.188625e-03)) ((7.515922e-10 -8.811595e-08 6.850917e-11) (1.825123e-07 -3.315114e-07 2.589405e-09))
11.581764     	((5.746688e-05 -1.920773e-06 -2.849289e-03) (3.829618e-06 1.651385e-06 2.188626e-03)) ((7.515623e-10 -8.811582e-08 6.849717e-11) (1.825106e-07 -3.315154e-07 2.588775e-09))
11.700127     	((5.746829e-05 -1.921002e-06 -2.849289e-03) (3.829663e-06 1.651347e-06 2.188626e-03)) ((7.515297e-10 -8.811567e-08 6.847872e-11) (1.825088e-07 -3.315199e-07 2.588187e-09))
11.818491     	((5.746826e-05 -1.920936e-06 -2.849288e-03) (3.829697e-06 1.651311e-06 2.188626e-03)) ((7.515120e-10 -8.811546e-08 6.846401e-11) (1.825069e-07 -3.315243e-07 2.587669e-09))
11.936854     	((5.746794e-05 -1.920819e-06 -2.849288e-03) (3.829724e-06 1.651275e-06 2.188626e-03)) ((7.514784e-10 -8.811529e-08 6.845094e-11) (1.825050e-07 -3.315279e-07 2.587117e-09))
12.055218     	((5.746767e-05 -1.920930e-06 -2.849288e-03) (3.829749e-06 1.651236e-06 2.188626e-03)) ((7.514359e-10 -8.811515e-08 6.843706e-11) (1.825030e-07 -3.315313e-07 2.586462e-09))
12.173581     	((5.746816e-05 -1.921104e-06 -2.849288e-03) (3.829783e-06 1.651193e-06 2.188626e-03)) ((7.514092e-10 -8.811501e-08 6.842588e-11) (1.825009e-07 -3.315348e-07 2.585790e-09))
12.291945     	((5.746837e-05 -1.921247e-06 -2.849287e-03) (3.829811e-06 1.651153e-06 2.188627e-03)) ((7.513772e-10 -8.811485e-08 6.841023e-11) (1.824989e-07 -3.315384e-07 2.585156e-09))
12.410308     	((5.746871e-05 -1.921256e-06 -2.849287e-03) (3.829842e-06 1.651112e-06 2.188627e-03)) ((7.513360e-10 -8.811464e-08 6.838823e-11) (1.824968e-07 -3.315422e-07 2.584517e-09))
12.528672     	((5.746886e-05 -1.921266e-06 -2.849286e-03) (3.829878e-06 1.651069e-06 2.188627e-03)) ((7.513014e-10 -8.811444e-08 6.837123e-11) (1.824946e-07 -3.315465e-07 2.583890e-09))
12.647035     	((5.746884e-05 -1.921324e-06 -2.849286e-03) (3.829919e-06 1.651024e-06 2.188627e-03)) ((7.512592e-10 -8.811425e-08 6.835674e-11) (1.824923e-07 -3.315511e-07 2.583251e-09))
12.765399     	((5.746915e-05 -1.921380e-06 -2.849286e-03) (3.829958e-06 1.650979e-06 2.188627e-03)) ((7.512192e-10 -8.811408e-08 6.833976e-11) (1.824900e-07 -3.315552e-07 2.582575e-09))
12.883762     	((5.746972e-05 -1.921450e-06 -2.849286e-03) (3.829996e-06 1.650932e-06 2.188627e-03)) ((7.511736e-10 -8.811387e-08 6.831528e-11) (1.824875e-07 -3.315597e-07 2.581865e-09))
13.002126     	((5.747028e-05 -1.921562e-06 -2.849286e-03) (3.830035e-06 1.650882e-06 2.188628e-03)) ((7.511318e-10 -8.811368e-08 6.829907e-11) (1.824849e-07 -3.315644e-07 2.581129e-09))
13.120489     	((5.747066e-05 -1.921660e-06 -2.849285e-03) (3.830077e-06 1.650833e-06 2.188628e-03)) ((7.510857e-10 -8.811344e-08 6.828088e-11) (1.824824e-07 -3.315693e-07 2.580379e-09))
13.238852     	((5.747060e-05 -1.921846e-06 -2.849285e-03) (3.830110e-06 1.650783e-06 2.188628e-03)) ((7.510337e-10 -8.811322e-08 6.825636e-11) (1.824798e-07 -3.315737e-07 2.579606e-09))
13.357216     	((5.747066e-05 -1.921968e-06 -2.849285e-03) (3.830144e-06 1.650732e-06 2.188628e-03)) ((7.509909e-10 -8.811300e-08 6.823602e-11) (1.824772e-07 -3.315780e-07 2.578843e-09))
13.475579     	((5.747116e-05 -1.922013e-06 -2.849285e-03) (3.830187e-06 1.650679e-06 2.188628e-03)) ((7.509439e-10 -8.811279e-08 6.821570e-11) (1.824744e-07 -3.315831e-07 2.578093e-09))
13.593943     	((5.747135e-05 -1.922015e-06 -2.849284e-03) (3.830228e-06 1.650625e-06 2.188629e-03)) ((7.508944e-10 -8.811252e-08 6.819432e-11) (1.824716e-07 -3.315883e-07 2.577347e-09))
13.712306     	((5.747093e-05 -1.922089e-06 -2.849284e-03) (3.830268e-06 1.650570e-06 2.188629e-03)) ((7.508454e-10 -8.811229e-08 6.817735e-11) (1.824686e-07 -3.315937e-07 2.576609e-09))
13.83067      	((5.746734e-05 -1.922058e-06 -2.849282e-03) (3.830276e-06 1.650517e-06 2.188629e-03)) ((7.507907e-10 -8.811201e-08 6.815517e-11) (1.824653e-07 -3.315989e-07 2.575926e-09))
13.949033     	((5.746924e-05 -1.922426e-06 -2.849283e-03) (3.830334e-06 1.650455e-06 2.188629e-03)) ((7.507234e-10 -8.811191e-08 6.813526e-11) (1.824622e-07 -3.316037e-07 2.575119e-09))
14.067397     	((5.747113e-05 -1.922500e-06 -2.849283e-03) (3.830393e-06 1.650393e-06 2.188629e-03)) ((7.506630e-10 -8.811167e-08 6.811133e-11) (1.824592e-07 -3.316089e-07 2.574285e-09))
14.18576      	((5.747306e-05 -1.922578e-06 -2.849283e-03) (3.830436e-06 1.650330e-06 2.188630e-03)) ((7.505963e-10 -8.811133e-08 6.807297e-11) (1.824560e-07 -3.316144e-07 2.573456e-09))
14.304124     	((5.747356e-05 -1.922698e-06 -2.849282e-03) (3.830475e-06 1.650265e-06 2.188630e-03)) ((7.505333e-10 -8.811098e-08 6.804436e-11) (1.824527e-07 -3.316194e-07 2.572510e-09))
14.422487     	((5.747355e-05 -1.922891e-06 -2.849282e-03) (3.830508e-06 1.650199e-06 2.188630e-03)) ((7.504705e-10 -8.811066e-08 6.801744e-11) (1.824493e-07 -3.316245e-07 2.571554e-09))
14.540851     	((5.747393e-05 -1.923097e-06 -2.849282e-03) (3.830555e-06 1.650130e-06 2.188630e-03)) ((7.504159e-10 -8.811039e-08 6.799528e-11) (1.824457e-07 -3.316304e-07 2.570614e-09))
14.659214     	((5.747449e-05 -1.923141e-06 -2.849282e-03) (3.830597e-06 1.650060e-06 2.188630e-03)) ((7.503641e-10 -8.811009e-08 6.797651e-11) (1.824420e-07 -3.316359e-07 2.569644e-09))
14.777578     	((5.747473e-05 -1.923383e-06 -2.849281e-03) (3.830623e-06 1.649988e-06 2.188631e-03)) ((7.502841e-10 -8.810979e-08 6.794568e-11) (1.824384e-07 -3.316404e-07 2.568602e-09))
14.895941     	((5.747536e-05 -1.923322e-06 -2.849281e-03) (3.830660e-06 1.649912e-06 2.188631e-03)) ((7.501992e-10 -8.810940e-08 6.790717e-11) (1.824345e-07 -3.316460e-07 2.567520e-09))
15.014304     	((5.747571e-05 -1.923574e-06 -2.849280e-03) (3.830710e-06 1.649832e-06 2.188631e-03)) ((7.501303e-10 -8.810906e-08 6.788267e-11) (1.824302e-07 -3.316528e-07 2.566481e-09))
15.132668     	((5.747582e-05 -1.923722e-06 -2.849280e-03) (3.830761e-06 1.649750e-06 2.188631e-03)) ((7.500575e-10 -8.810869e-08 6.785423e-11) (1.824258e-07 -3.316598e-07 2.565483e-09))
15.251031     	((5.747737e-05 -1.924020e-06 -2.849280e-03) (3.830828e-06 1.649663e-06 2.188632e-03)) ((7.499712e-10 -8.810834e-08 6.782066e-11) (1.824212e-07 -3.316677e-07 2.564403e-09))
15.369395     	((5.747762e-05 -1.924028e-06 -2.849279e-03) (3.830882e-06 1.649574e-06 2.188632e-03)) ((7.498899e-10 -8.810792e-08 6.778922e-11) (1.824163e-07 -3.316756e-07 2.563272e-09))
15.487758     	((5.747819e-05 -1.924221e-06 -2.849279e-03) (3.830952e-06 1.649483e-06 2.188632e-03)) ((7.498068e-10 -8.810749e-08 6.775430e-11) (1.824114e-07 -3.316840e-07 2.562163e-09))
15.606122     	((5.747930e-05 -1.924434e-06 -2.849279e-03) (3.831085e-06 1.649405e-06 2.188633e-03)) ((7.497515e-10 -8.810718e-08 6.773517e-11) (1.824070e-07 -3.316960e-07 2.561365e-09))
15.724485     	((5.747994e-05 -1.924766e-06 -2.849278e-03) (3.831270e-06 1.649351e-06 2.188633e-03)) ((7.496978e-10 -8.810696e-08 6.771881e-11) (1.824037e-07 -3.317112e-07 2.560921e-09))
15.842849     	((5.748031e-05 -1.924940e-06 -2.849277e-03) (3.831484e-06 1.649312e-06 2.188633e-03)) ((7.496509e-10 -8.810675e-08 6.770189e-11) (1.824012e-07 -3.317277e-07 2.560532e-09))
15.961212     	((5.748006e-05 -1.925113e-06 -2.849276e-03) (3.831700e-06 1.649278e-06 2.188634e-03)) ((7.496125e-10 -8.810657e-08 6.769150e-11) (1.823991e-07 -3.317441e-07 2.559914e-09))
16.079576     	((5.747984e-05 -1.925357e-06 -2.849276e-03) (3.831914e-06 1.649237e-06 2.188634e-03)) ((7.495745e-10 -8.810647e-08 6.767165e-11) (1.823969e-07 -3.317600e-07 2.558941e-09))
16.197939     	((5.748088e-05 -1.925652e-06 -2.849276e-03) (3.832123e-06 1.649194e-06 2.188634e-03)) ((7.495566e-10 -8.810631e-08 6.764577e-11) (1.823947e-07 -3.317756e-07 2.557769e-09))
16.316302     	((5.748323e-05 -1.925844e-06 -2.849276e-03) (3.832325e-06 1.649148e-06 2.188635e-03)) ((7.495512e-10 -8.810609e-08 6.761539e-11) (1.823926e-07 -3.317908e-07 2.556387e-09))
16.434666     	((5.748359e-05 -1.925982e-06 -2.849275e-03) (3.832482e-06 1.649102e-06 2.188635e-03)) ((7.495479e-10 -8.810581e-08 6.758044e-11) (1.823904e-07 -3.318037e-07 2.554869e-09))
16.553029     	((5.748317e-05 -1.926171e-06 -2.849275e-03) (3.832610e-06 1.649056e-06 2.188635e-03)) ((7.495430e-10 -8.810562e-08 6.754682e-11) (1.823884e-07 -3.318146e-07 2.553220e-09))
16.671393     	((5.748301e-05 -1.926333e-06 -2.849274e-03) (3.832721e-06 1.649010e-06 2.188635e-03)) ((7.495489e-10 -8.810546e-08 6.752111e-11) (1.823864e-07 -3.318241e-07 2.551477e-09))
16.789756     	((5.748332e-05 -1.926546e-06 -2.849274e-03) (3.832814e-06 1.648964e-06 2.188636e-03)) ((7.495562e-10 -8.810531e-08 6.749962e-11) (1.823844e-07 -3.318325e-07 2.549699e-09))
16.90812      	((5.748362e-05 -1.926678e-06 -2.849274e-03) (3.832887e-06 1.648919e-06 2.188636e-03)) ((7.495586e-10 -8.810516e-08 6.747715e-11) (1.823826e-07 -3.318395e-07 2.547905e-09))
17.026483     	((5.748383e-05 -1.926761e-06 -2.849274e-03) (3.832939e-06 1.648874e-06 2.188636e-03)) ((7.495807e-10 -8.810501e-08 6.745876e-11) (1.823807e-07 -3.318450e-07 2.546124e-09))
17.144847     	((5.748387e-05 -1.926857e-06 -2.849274e-03) (3.832974e-06 1.648829e-06 2.188636e-03)) ((7.496108e-10 -8.810489e-08 6.744107e-11) (1.823788e-07 -3.318492e-07 2.544371e-09))
17.26321      	((5.748392e-05 -1.926955e-06 -2.849274e-03) (3.832994e-06 1.648783e-06 2.188636e-03)) ((7.496413e-10 -8.810478e-08 6.742627e-11) (1.823766e-07 -3.318523e-07 2.542646e-09))
17.381573     	((5.748403e-05 -1.927133e-06 -2.849274e-03) (3.833002e-06 1.648733e-06 2.188636e-03)) ((7.496862e-10 -8.810469e-08 6.741543e-11) (1.823742e-07 -3.318544e-07 2.540939e-09))
17.499937     	((5.748402e-05 -1.927337e-06 -2.849274e-03) (3.832998e-06 1.648680e-06 2.188637e-03)) ((7.497502e-10 -8.810461e-08 6.740973e-11) (1.823713e-07 -3.318557e-07 2.539219e-09))
17.6183       	((5.748413e-05 -1.927356e-06 -2.849274e-03) (3.832985e-06 1.648619e-06 2.188637e-03)) ((7.498326e-10 -8.810454e-08 6.740652e-11) (1.823679e-07 -3.318562e-07 2.537461e-09))
17.736664     	((5.748417e-05 -1.927531e-06 -2.849274e-03) (3.832964e-06 1.648550e-06 2.188637e-03)) ((7.499323e-10 -8.810448e-08 6.740860e-11) (1.823637e-07 -3.318562e-07 2.535621e-09))