# Forces      
# CofR        : (0.000000e+00 0.000000e+00 0.000000e+00)
# Time        forces(pressure viscous)	moments(pressure viscous)
0             	((0.000000e+00 0.000000e+00 0.000000e+00) (-1.579364e-13 2.520204e-04 1.264877e-14)) ((0.000000e+00 0.000000e+00 0.000000e+00) (5.662636e-06 -9.428368e-16 -1.225860e-10))
0.012         	((-5.555395e-08 7.330451e-02 1.819249e-02) (-3.857845e-10 2.888259e-04 -4.717290e-07)) ((-8.638078e-07 6.234253e-08 -1.376973e-08) (8.348658e-06 -2.436401e-12 -2.416036e-10))
0.0264        	((-1.298397e-06 -5.873997e-03 -1.460578e-03) (-1.477664e-09 2.938272e-04 -7.331611e-07)) ((6.856365e-08 -4.216126e-09 7.925386e-10) (9.329084e-06 4.339742e-12 -2.999967e-10))
0.04368       	((1.670713e-06 -1.491001e-02 -1.827666e-03) (4.359909e-11 2.603190e-04 -7.246849e-07)) ((1.949428e-07 -5.804092e-09 3.896100e-09) (8.306874e-06 -2.712123e-11 -2.351952e-10))
0.064416      	((-2.832822e-07 -1.368690e-04 -7.399595e-04) (8.741058e-09 2.302283e-04 -4.950798e-07)) ((-7.077036e-10 -2.021770e-09 -3.666899e-10) (7.471054e-06 -4.158345e-11 -1.808751e-10))
0.0892992     	((2.785262e-07 1.255836e-04 -4.792824e-04) (1.311442e-08 2.123340e-04 -5.234413e-07)) ((-6.584656e-09 -1.110783e-09 -2.271408e-10) (7.066171e-06 -5.420621e-11 6.479520e-11))
0.119159      	((-1.714066e-07 -2.511206e-04 -3.451283e-04) (1.204250e-08 1.960246e-04 -7.885254e-07)) ((4.393257e-09 -7.570013e-10 1.842881e-10) (6.620816e-06 -4.833223e-11 2.561712e-10))
0.154991      	((-1.141758e-07 -1.187985e-04 -2.592279e-04) (1.142424e-08 1.790068e-04 -9.734731e-07)) ((2.501195e-09 -4.655253e-10 8.602072e-11) (6.132856e-06 3.447175e-11 2.233029e-10))
0.197989      	((5.900418e-08 -2.570952e-05 -1.992321e-04) (7.795264e-09 1.622322e-04 -1.180561e-06)) ((1.184690e-09 -2.208984e-10 1.520592e-11) (5.643319e-06 7.587899e-11 1.832280e-10))
0.249587      	((1.565047e-08 7.021575e-06 -1.636973e-04) (1.665454e-09 1.462334e-04 -1.428714e-06)) ((6.733505e-10 -9.712334e-11 1.093467e-11) (5.163646e-06 5.338827e-11 2.528593e-10))
0.311504      	((-3.661791e-08 2.302377e-05 -1.416530e-04) (-4.633436e-09 1.314357e-04 -1.705728e-06)) ((4.410116e-10 -3.634079e-11 4.342442e-12) (4.703443e-06 3.484010e-11 3.385306e-10))
0.385805      	((-3.648683e-08 3.177165e-05 -1.276715e-04) (-7.595210e-09 1.181508e-04 -1.998195e-06)) ((3.238868e-10 2.287295e-12 1.356825e-12) (4.273846e-06 3.306104e-11 3.243108e-10))
0.474966      	((-2.643284e-08 3.608638e-05 -1.186218e-04) (-6.957079e-09 1.065039e-04 -2.279957e-06)) ((2.403485e-10 2.902536e-11 1.428442e-12) (3.882948e-06 3.788346e-11 2.544179e-10))
0.581959      	((-1.788226e-08 3.786534e-05 -1.129139e-04) (-5.710937e-09 9.628010e-05 -2.571952e-06)) ((1.672008e-10 4.615847e-11 -2.107284e-13) (3.529415e-06 5.556343e-11 2.076879e-10))
0.710351      	((-6.077955e-09 3.781366e-05 -1.093280e-04) (-4.569409e-09 8.708083e-05 -2.841873e-06)) ((1.019321e-10 5.682062e-11 -2.190293e-12) (3.203696e-06 6.948803e-11 2.103491e-10))
0.864421      	((1.393071e-10 3.652563e-05 -1.071562e-04) (-3.018998e-09 7.867338e-05 -3.085854e-06)) ((5.803002e-11 6.149678e-11 -3.005272e-12) (2.900477e-06 6.856503e-11 2.365555e-10))
1.049306      	((-1.221612e-09 3.454456e-05 -1.057644e-04) (-1.669034e-09 7.100648e-05 -3.336088e-06)) ((2.669541e-11 6.427174e-11 -1.946051e-12) (2.620360e-06 6.273563e-11 2.749175e-10))
1.271167      	((-3.815884e-09 3.222484e-05 -1.049446e-04) (-6.572160e-10 6.407476e-05 -3.613463e-06)) ((8.380166e-12 6.440170e-11 -1.348192e-12) (2.365253e-06 5.198608e-11 3.151076e-10))
1.5374        	((-4.836201e-09 2.987072e-05 -1.044330e-04) (1.676467e-10 5.786264e-05 -3.921100e-06)) ((-8.119471e-12 6.205685e-11 -2.310276e-12) (2.135962e-06 2.650555e-11 3.335366e-10))
1.85688       	((-4.069972e-09 2.771468e-05 -1.040122e-04) (6.883872e-10 5.233994e-05 -4.255291e-06)) ((-2.855258e-11 5.908669e-11 -3.627845e-12) (1.931964e-06 5.408029e-12 3.243264e-10))
2.240256      	((-5.157775e-10 2.583895e-05 -1.036261e-04) (7.464513e-10 4.746188e-05 -4.612590e-06)) ((-4.959112e-11 5.653299e-11 -4.729639e-12) (1.751710e-06 -1.017056e-12 3.038618e-10))
2.700307      	((-4.790660e-09 2.428953e-05 -1.032225e-04) (3.944128e-10 4.316692e-05 -4.990794e-06)) ((-7.250728e-11 5.376254e-11 -5.354588e-12) (1.592907e-06 -6.321872e-13 2.916890e-10))
3.252369      	((-9.620013e-09 2.306777e-05 -1.027547e-04) (-3.428018e-11 3.938815e-05 -5.385942e-06)) ((-1.019592e-10 4.995243e-11 -6.483699e-12) (1.453144e-06 7.387310e-13 2.816633e-10))
3.914842      	((-1.298858e-08 2.221716e-05 -1.022115e-04) (-3.502400e-10 3.607324e-05 -5.791077e-06)) ((-1.363986e-10 4.639612e-11 -8.528827e-12) (1.330544e-06 3.154318e-12 2.593200e-10))
4.709811      	((-1.712974e-08 2.174035e-05 -1.015317e-04) (-7.006289e-10 3.318688e-05 -6.199303e-06)) ((-1.755632e-10 4.383472e-11 -1.097152e-11) (1.223783e-06 1.061316e-11 2.293116e-10))
5.663773      	((-1.667281e-08 2.166432e-05 -1.007200e-04) (-9.527588e-10 3.069693e-05 -6.603948e-06)) ((-2.200778e-10 4.090530e-11 -1.333112e-11) (1.131656e-06 2.124163e-11 1.860029e-10))
6.808528      	((-1.373068e-08 2.203230e-05 -9.977473e-05) (-8.642412e-10 2.856718e-05 -6.997256e-06)) ((-2.698324e-10 3.759480e-11 -1.625241e-11) (1.052816e-06 2.596512e-11 1.523752e-10))
8.182233      	((-1.121473e-08 2.283598e-05 -9.870035e-05) (-5.439282e-10 2.675595e-05 -7.371100e-06)) ((-3.258116e-10 3.302497e-11 -2.074576e-11) (9.858495e-07 3.249220e-11 1.467776e-10))
9.83068       	((-9.865260e-09 2.405495e-05 -9.750895e-05) (-2.133689e-10 2.522905e-05 -7.718225e-06)) ((-3.889318e-10 2.777571e-11 -2.571528e-11) (9.294991e-07 4.574827e-11 1.576897e-10))
11.808816     	((-2.868582e-09 2.564687e-05 -9.618027e-05) (4.448671e-10 2.395738e-05 -8.038828e-06)) ((-4.581761e-10 2.236676e-11 -3.172450e-11) (8.826596e-07 4.676049e-11 2.021838e-10))
14.182579     	((1.795128e-09 2.756485e-05 -9.476596e-05) (1.097997e-09 2.290829e-05 -8.330140e-06)) ((-5.304862e-10 1.627173e-11 -3.839351e-11) (8.445405e-07 2.743915e-11 3.036707e-10))
16.955873     	((6.232443e-09 2.971446e-05 -9.329128e-05) (1.480977e-09 2.208002e-05 -8.582530e-06)) ((-6.009976e-10 9.881567e-12 -4.593643e-11) (8.149886e-07 1.164445e-11 3.663646e-10))
20.129732     	((1.063127e-08 3.192400e-05 -9.173761e-05) (2.341192e-09 2.144216e-05 -8.786673e-06)) ((-6.617092e-10 3.972867e-12 -5.336287e-11) (7.924892e-07 -1.408956e-11 4.136312e-10))
23.703873     	((1.435702e-08 3.406246e-05 -9.004020e-05) (3.048821e-09 2.094885e-05 -8.926211e-06)) ((-7.099826e-10 -1.981172e-12 -5.978747e-11) (7.748885e-07 -5.687645e-11 4.338649e-10))
27.676824     	((1.790943e-08 3.598113e-05 -8.812138e-05) (3.322299e-09 2.055166e-05 -8.989447e-06)) ((-7.489873e-10 -8.099765e-12 -6.489074e-11) (7.603904e-07 -1.017292e-10 3.995626e-10))
31.64734      	((1.721173e-08 3.757129e-05 -8.610244e-05) (3.640464e-09 2.023702e-05 -8.987235e-06)) ((-7.817265e-10 -1.403227e-11 -6.906981e-11) (7.488639e-07 -1.523789e-10 3.437938e-10))
35.607933     	((1.373971e-08 3.872591e-05 -8.407613e-05) (3.768081e-09 1.996718e-05 -8.950885e-06)) ((-8.086877e-10 -1.868359e-11 -7.288189e-11) (7.391776e-07 -1.994969e-10 2.842520e-10))
39.572372     	((1.000473e-08 3.937749e-05 -8.201292e-05) (3.321926e-09 1.971675e-05 -8.907272e-06)) ((-8.297169e-10 -2.091611e-11 -7.622858e-11) (7.304710e-07 -2.346828e-10 2.626235e-10))
43.554009     	((4.918726e-09 3.970075e-05 -8.009861e-05) (2.650750e-09 1.948666e-05 -8.866088e-06)) ((-8.435652e-10 -2.163638e-11 -7.866086e-11) (7.226242e-07 -2.498252e-10 2.667936e-10))
47.555142     	((-2.168333e-09 3.976978e-05 -7.830339e-05) (1.585402e-09 1.927268e-05 -8.832224e-06)) ((-8.514550e-10 -2.105375e-11 -8.052563e-11) (7.153759e-07 -2.514694e-10 2.852340e-10))
51.572702     	((-6.407681e-09 3.969662e-05 -7.666399e-05) (6.508110e-10 1.907214e-05 -8.804689e-06)) ((-8.553638e-10 -2.007121e-11 -8.167289e-11) (7.086563e-07 -2.468237e-10 3.018304e-10))
55.607843     	((-9.824746e-09 3.949469e-05 -7.515736e-05) (-4.877083e-11 1.888501e-05 -8.782211e-06)) ((-8.548474e-10 -1.879105e-11 -8.220438e-11) (7.024457e-07 -2.369505e-10 3.320950e-10))
59.661261     	((-1.141972e-08 3.925461e-05 -7.374269e-05) (-5.886397e-10 1.871011e-05 -8.764905e-06)) ((-8.529321e-10 -1.737848e-11 -8.249002e-11) (6.966793e-07 -2.254892e-10 3.738530e-10))
63.732529     	((-1.141810e-08 3.901538e-05 -7.241741e-05) (-1.062429e-09 1.854879e-05 -8.751244e-06)) ((-8.504590e-10 -1.602220e-11 -8.273367e-11) (6.913845e-07 -2.147002e-10 4.219640e-10))
67.820611     	((-1.021603e-08 3.879633e-05 -7.115447e-05) (-1.596260e-09 1.840078e-05 -8.740099e-06)) ((-8.480392e-10 -1.459207e-11 -8.295315e-11) (6.865215e-07 -2.015602e-10 4.703192e-10))
71.92155      	((-8.910918e-09 3.862139e-05 -6.995869e-05) (-2.184917e-09 1.826583e-05 -8.730211e-06)) ((-8.461395e-10 -1.311300e-11 -8.317847e-11) (6.820652e-07 -1.900608e-10 5.169247e-10))
76.031359     	((-6.321892e-09 3.847442e-05 -6.881117e-05) (-2.677412e-09 1.814300e-05 -8.721724e-06)) ((-8.442284e-10 -1.157833e-11 -8.343534e-11) (6.779665e-07 -1.857579e-10 5.558843e-10))
80.149362     	((-2.614872e-09 3.834531e-05 -6.771797e-05) (-2.796092e-09 1.803156e-05 -8.713411e-06)) ((-8.430038e-10 -1.015280e-11 -8.368838e-11) (6.742442e-07 -1.875419e-10 5.796982e-10))
84.275069     	((-5.204966e-10 3.821471e-05 -6.666336e-05) (-2.701544e-09 1.792964e-05 -8.704258e-06)) ((-8.420967e-10 -8.676752e-12 -8.389800e-11) (6.708773e-07 -1.875984e-10 5.911287e-10))
88.408089     	((3.236388e-09 3.808753e-05 -6.565199e-05) (-2.443681e-09 1.783613e-05 -8.694041e-06)) ((-8.415646e-10 -7.111769e-12 -8.408924e-11) (6.678446e-07 -1.869662e-10 5.948839e-10))
92.548029     	((4.426369e-09 3.794910e-05 -6.466295e-05) (-2.166141e-09 1.774969e-05 -8.682975e-06)) ((-8.410549e-10 -5.495647e-12 -8.425017e-11) (6.650987e-07 -1.812359e-10 5.919954e-10))
96.694527     	((7.343022e-09 3.782154e-05 -6.373182e-05) (-1.670088e-09 1.766986e-05 -8.671259e-06)) ((-8.406526e-10 -3.906880e-12 -8.440931e-11) (6.626139e-07 -1.812921e-10 5.758368e-10))
100.847066    	((7.887592e-09 3.769780e-05 -6.284711e-05) (-1.003909e-09 1.759615e-05 -8.659898e-06)) ((-8.398750e-10 -2.348805e-12 -8.455999e-11) (6.603443e-07 -1.853980e-10 5.468754e-10))
105.005339    	((3.768880e-09 3.757924e-05 -6.201137e-05) (-5.185030e-10 1.752789e-05 -8.649425e-06)) ((-8.390923e-10 -9.190453e-13 -8.470825e-11) (6.582506e-07 -1.797507e-10 5.107558e-10))
109.169566    	((4.589656e-10 3.746453e-05 -6.121284e-05) (-4.806819e-11 1.746472e-05 -8.639830e-06)) ((-8.381915e-10 5.660041e-13 -8.482816e-11) (6.563217e-07 -1.695977e-10 4.688162e-10))
113.340611    	((-5.376241e-09 3.734909e-05 -6.044780e-05) (3.767597e-10 1.740591e-05 -8.631063e-06)) ((-8.372360e-10 1.995929e-12 -8.492102e-11) (6.545395e-07 -1.558123e-10 4.230374e-10))
117.518428    	((-1.007792e-08 3.723946e-05 -5.972748e-05) (7.630319e-10 1.735110e-05 -8.623643e-06)) ((-8.359450e-10 3.432879e-12 -8.501553e-11) (6.528774e-07 -1.440393e-10 3.739865e-10))
121.702633    	((-1.442063e-08 3.712394e-05 -5.903042e-05) (1.131088e-09 1.729933e-05 -8.618722e-06)) ((-8.339572e-10 4.847909e-12 -8.509445e-11) (6.512605e-07 -1.370808e-10 3.224912e-10))
125.892954    	((-1.726235e-08 3.701780e-05 -5.836333e-05) (1.540818e-09 1.725015e-05 -8.616111e-06)) ((-8.321080e-10 6.157528e-12 -8.517065e-11) (6.496710e-07 -1.340739e-10 2.732296e-10))
130.089103    	((-1.975949e-08 3.691395e-05 -5.771453e-05) (1.900130e-09 1.720339e-05 -8.614964e-06)) ((-8.304020e-10 7.430491e-12 -8.524181e-11) (6.481312e-07 -1.306474e-10 2.296399e-10))
134.290842    	((-2.358614e-08 3.680617e-05 -5.708211e-05) (2.045029e-09 1.715866e-05 -8.614525e-06)) ((-8.289278e-10 8.653241e-12 -8.529923e-11) (6.466615e-07 -1.208915e-10 1.939762e-10))
138.497993    	((-2.650154e-08 3.670429e-05 -5.646518e-05) (2.051023e-09 1.711613e-05 -8.613718e-06)) ((-8.278583e-10 9.862920e-12 -8.535369e-11) (6.452957e-07 -1.086441e-10 1.671618e-10))
142.71027     	((-2.911662e-08 3.660853e-05 -5.586639e-05) (1.976624e-09 1.707596e-05 -8.612387e-06)) ((-8.269036e-10 1.109250e-11 -8.541595e-11) (6.440349e-07 -9.783543e-11 1.473993e-10))
146.927471    	((-2.865224e-08 3.651841e-05 -5.528191e-05) (1.922298e-09 1.703802e-05 -8.610950e-06)) ((-8.259749e-10 1.238282e-11 -8.548105e-11) (6.428553e-07 -9.386065e-11 1.331533e-10))
151.149433    	((-2.691480e-08 3.643437e-05 -5.471871e-05) (1.889821e-09 1.700223e-05 -8.609533e-06)) ((-8.251088e-10 1.364180e-11 -8.554949e-11) (6.417490e-07 -9.591463e-11 1.250089e-10))
155.376037    	((-2.420459e-08 3.635460e-05 -5.417488e-05) (1.852840e-09 1.696846e-05 -8.608020e-06)) ((-8.242849e-10 1.488644e-11 -8.560789e-11) (6.407136e-07 -1.016772e-10 1.238389e-10))
159.607136    	((-1.950028e-08 3.627778e-05 -5.364516e-05) (1.852607e-09 1.693646e-05 -8.606361e-06)) ((-8.235202e-10 1.616421e-11 -8.566175e-11) (6.397420e-07 -1.133294e-10 1.307648e-10))
163.842574    	((-1.535046e-08 3.620810e-05 -5.313820e-05) (1.811935e-09 1.690639e-05 -8.604371e-06)) ((-8.228851e-10 1.736918e-11 -8.570968e-11) (6.388430e-07 -1.282265e-10 1.449465e-10))
168.082195    	((-9.178756e-09 3.614577e-05 -5.266048e-05) (1.786210e-09 1.687834e-05 -8.602013e-06)) ((-8.223235e-10 1.852586e-11 -8.573947e-11) (6.380183e-07 -1.480235e-10 1.659033e-10))
172.32586     	((-2.423509e-09 3.608371e-05 -5.220451e-05) (1.828770e-09 1.685203e-05 -8.599575e-06)) ((-8.216756e-10 1.960865e-11 -8.574994e-11) (6.372479e-07 -1.710691e-10 1.919535e-10))
176.572263    	((5.010681e-09 3.601907e-05 -5.176927e-05) (1.956958e-09 1.682710e-05 -8.597242e-06)) ((-8.209744e-10 2.062870e-11 -8.574561e-11) (6.365132e-07 -1.963473e-10 2.217691e-10))
180.82105     	((1.234796e-08 3.595054e-05 -5.134771e-05) (2.115864e-09 1.680303e-05 -8.595125e-06)) ((-8.202383e-10 2.162085e-11 -8.573290e-11) (6.357948e-07 -2.223002e-10 2.549448e-10))
185.072121    	((1.883028e-08 3.588680e-05 -5.094499e-05) (2.267777e-09 1.677984e-05 -8.593266e-06)) ((-8.195196e-10 2.255228e-11 -8.571935e-11) (6.350926e-07 -2.462165e-10 2.892687e-10))
189.325359    	((2.462535e-08 3.582440e-05 -5.055215e-05) (2.418859e-09 1.675752e-05 -8.591721e-06)) ((-8.187819e-10 2.350204e-11 -8.570081e-11) (6.344042e-07 -2.676598e-10 3.220746e-10))
193.58065     	((2.881496e-08 3.576744e-05 -5.017086e-05) (2.566743e-09 1.673609e-05 -8.590446e-06)) ((-8.181045e-10 2.442304e-11 -8.568954e-11) (6.337318e-07 -2.854879e-10 3.500433e-10))
197.837876    	((3.183694e-08 3.571508e-05 -4.980166e-05) (2.728432e-09 1.671558e-05 -8.589250e-06)) ((-8.175229e-10 2.530162e-11 -8.568447e-11) (6.330831e-07 -2.993526e-10 3.711450e-10))
202.096916    	((3.299846e-08 3.566801e-05 -4.944140e-05) (2.895086e-09 1.669604e-05 -8.587909e-06)) ((-8.170761e-10 2.614034e-11 -8.568532e-11) (6.324680e-07 -3.081159e-10 3.834372e-10))
206.357654    	((3.158791e-08 3.562534e-05 -4.909346e-05) (2.993022e-09 1.667756e-05 -8.586275e-06)) ((-8.167355e-10 2.691674e-11 -8.568452e-11) (6.318963e-07 -3.091059e-10 3.869440e-10))
210.620019    	((2.758863e-08 3.558511e-05 -4.875763e-05) (2.951801e-09 1.666012e-05 -8.584402e-06)) ((-8.164201e-10 2.763726e-11 -8.567930e-11) (6.313665e-07 -3.009312e-10 3.824378e-10))
214.883954    	((2.095854e-08 3.554709e-05 -4.843225e-05) (2.760240e-09 1.664364e-05 -8.582452e-06)) ((-8.161086e-10 2.830843e-11 -8.568089e-11) (6.308720e-07 -2.828076e-10 3.681168e-10))
219.149408    	((1.244109e-08 3.550949e-05 -4.811770e-05) (2.452521e-09 1.662795e-05 -8.580704e-06)) ((-8.157090e-10 2.894549e-11 -8.568825e-11) (6.303992e-07 -2.557301e-10 3.429879e-10))
223.416333    	((2.070351e-09 3.547367e-05 -4.781608e-05) (2.045026e-09 1.661295e-05 -8.579290e-06)) ((-8.152990e-10 2.953118e-11 -8.570236e-11) (6.299415e-07 -2.210236e-10 3.072428e-10))
227.684686    	((-9.639724e-09 3.543907e-05 -4.752230e-05) (1.551498e-09 1.659856e-05 -8.578091e-06)) ((-8.149410e-10 3.008989e-11 -8.572006e-11) (6.295011e-07 -1.801954e-10 2.613266e-10))
231.954428    	((-2.212589e-08 3.540518e-05 -4.723817e-05) (9.802990e-10 1.658476e-05 -8.576885e-06)) ((-8.146744e-10 3.062649e-11 -8.573994e-11) (6.290847e-07 -1.350382e-10 2.077091e-10))
236.22552     	((-3.489078e-08 3.537286e-05 -4.696260e-05) (3.492954e-10 1.657160e-05 -8.575392e-06)) ((-8.145372e-10 3.114792e-11 -8.576046e-11) (6.287012e-07 -8.767563e-11 1.488684e-10))
240.497922    	((-4.836280e-08 3.534158e-05 -4.669390e-05) (-3.738932e-10 1.655909e-05 -8.573475e-06)) ((-8.145000e-10 3.164924e-11 -8.578227e-11) (6.283526e-07 -3.806987e-11 8.783366e-11))
244.771599    	((-6.204647e-08 3.531170e-05 -4.643401e-05) (-1.217284e-09 1.654720e-05 -8.571127e-06)) ((-8.145374e-10 3.212289e-11 -8.580358e-11) (6.280361e-07 1.387056e-11 2.762763e-11))
249.046516    	((-7.442795e-08 3.528322e-05 -4.618265e-05) (-2.126406e-09 1.653594e-05 -8.568393e-06)) ((-8.146178e-10 3.259629e-11 -8.582460e-11) (6.277470e-07 6.504449e-11 -2.954501e-11))
253.32263     	((-8.550625e-08 3.525523e-05 -4.593776e-05) (-3.071229e-09 1.652524e-05 -8.565323e-06)) ((-8.147297e-10 3.306613e-11 -8.584517e-11) (6.274796e-07 1.134454e-10 -8.121094e-11))
257.599897    	((-9.421947e-08 3.522842e-05 -4.569973e-05) (-4.018483e-09 1.651507e-05 -8.561943e-06)) ((-8.148786e-10 3.354247e-11 -8.586527e-11) (6.272308e-07 1.568982e-10 -1.243417e-10))
261.878265    	((-1.008252e-07 3.520151e-05 -4.546909e-05) (-4.951667e-09 1.650536e-05 -8.558313e-06)) ((-8.150284e-10 3.401788e-11 -8.588085e-11) (6.269961e-07 1.942345e-10 -1.566067e-10))
266.157679    	((-1.048668e-07 3.517516e-05 -4.524523e-05) (-5.848823e-09 1.649607e-05 -8.554486e-06)) ((-8.151896e-10 3.449486e-11 -8.589211e-11) (6.267723e-07 2.244098e-10 -1.759331e-10))
270.438082    	((-1.067158e-07 3.514878e-05 -4.502582e-05) (-6.720485e-09 1.648714e-05 -8.550487e-06)) ((-8.153608e-10 3.497731e-11 -8.589874e-11) (6.265570e-07 2.479265e-10 -1.808946e-10))
274.719411    	((-1.058177e-07 3.512306e-05 -4.481085e-05) (-7.540414e-09 1.647854e-05 -8.546325e-06)) ((-8.155467e-10 3.546988e-11 -8.590174e-11) (6.263495e-07 2.641782e-10 -1.710169e-10))
279.001604    	((-1.022176e-07 3.509770e-05 -4.460009e-05) (-8.270881e-09 1.647023e-05 -8.542003e-06)) ((-8.157443e-10 3.597316e-11 -8.590133e-11) (6.261493e-07 2.724640e-10 -1.464966e-10))
283.284599    	((-9.681199e-08 3.507291e-05 -4.439354e-05) (-8.910734e-09 1.646220e-05 -8.537549e-06)) ((-8.159481e-10 3.647838e-11 -8.589929e-11) (6.259565e-07 2.738310e-10 -1.085454e-10))
