# Forces      
# CofR        : (0.000000e+00 0.000000e+00 0.000000e+00)
# Time        forces(pressure viscous)	moments(pressure viscous)
0             	((0.000000e+00 0.000000e+00 0.000000e+00) (0.000000e+00 0.000000e+00 0.000000e+00)) ((0.000000e+00 0.000000e+00 0.000000e+00) (0.000000e+00 0.000000e+00 0.000000e+00))
0.012         	((-1.548596e-10 3.802263e-08 -4.990868e-10) (-4.690675e-12 4.260775e-10 -1.107185e-12)) ((-2.743776e-12 -2.871758e-15 -5.243802e-10) (8.125773e-12 2.324183e-13 -1.063925e-06))
0.0264        	((8.122718e-11 -1.376213e-08 9.575104e-10) (-4.385147e-12 4.553232e-10 -3.784552e-12)) ((-6.448083e-12 7.037431e-14 -1.586917e-10) (1.444147e-11 2.265517e-13 -9.312250e-07))
0.04368       	((-8.074028e-10 6.964674e-09 -1.478305e-09) (-5.865197e-12 2.972391e-10 -1.018477e-11)) ((2.929391e-12 2.090209e-14 -8.436060e-11) (1.207785e-11 3.086341e-13 -8.054966e-07))
0.064416      	((-4.813247e-10 6.997426e-10 -1.089853e-09) (-9.669348e-12 1.562046e-10 -5.697924e-12)) ((-8.741609e-13 1.489616e-14 -5.760882e-11) (5.889113e-12 5.274052e-13 -6.902437e-07))
0.0892992     	((-6.256566e-10 3.344699e-09 -2.302293e-09) (-9.310039e-12 9.536976e-11 7.217598e-12)) ((8.741971e-13 -1.566600e-15 -4.688322e-11) (2.752430e-12 6.634458e-13 -5.885460e-07))
0.119159      	((-4.179911e-11 4.861571e-10 -3.070759e-09) (-1.178702e-11 8.450645e-11 3.793610e-11)) ((5.344503e-13 5.647940e-14 -3.762417e-11) (-9.937699e-13 6.039603e-13 -5.017094e-07))
0.154991      	((-3.849806e-10 2.915081e-09 -3.838886e-09) (-2.195167e-11 6.746734e-11 1.101683e-10)) ((5.231375e-13 3.793566e-14 -3.018065e-11) (-3.891031e-12 5.562882e-13 -4.301156e-07))
0.197989      	((-6.278089e-10 2.286350e-09 -4.436389e-09) (-3.131900e-11 3.840541e-11 2.626971e-10)) ((4.225169e-13 5.874614e-14 -2.392294e-11) (-5.796703e-12 4.587073e-13 -3.724288e-07))
0.249587      	((-5.264507e-10 2.699952e-09 -5.068086e-09) (-2.883522e-11 1.346191e-11 4.809675e-10)) ((4.157854e-13 1.617501e-13 -2.002189e-11) (-5.026491e-12 4.152366e-13 -3.263306e-07))
0.311504      	((-1.386841e-09 3.030835e-09 -5.570565e-09) (-2.199944e-11 -6.098705e-13 7.341691e-10)) ((3.461337e-13 1.647557e-13 -1.785945e-11) (-3.698390e-12 3.045990e-13 -2.890789e-07))
0.385805      	((-1.585711e-09 4.239336e-09 -6.444586e-09) (-2.412618e-11 4.962107e-12 1.014640e-09)) ((2.199006e-13 1.407764e-13 -1.568896e-11) (-2.350693e-12 8.494978e-14 -2.582452e-07))
0.474966      	((-2.535857e-09 5.215583e-09 -6.995977e-09) (-2.212956e-11 5.481982e-12 1.313321e-09)) ((-5.557967e-14 7.027236e-14 -1.382935e-11) (1.837394e-13 1.954062e-13 -2.320372e-07))
0.581959      	((-3.242094e-09 5.950583e-09 -7.824915e-09) (-2.207905e-11 3.169555e-11 1.654304e-09)) ((-1.372520e-13 8.787621e-14 -1.280307e-11) (3.915716e-12 1.057265e-12 -2.092562e-07))
0.710351      	((-3.686676e-09 5.903959e-09 -8.857186e-09) (1.619023e-11 6.214078e-11 2.067429e-09)) ((-3.107198e-13 1.345618e-13 -1.214957e-11) (6.197238e-12 1.536568e-12 -1.891336e-07))
0.864421      	((-4.122665e-09 4.897132e-09 -1.016979e-08) (9.789022e-11 -1.288219e-11 2.538851e-09)) ((-5.096943e-13 4.539687e-14 -1.147541e-11) (3.756871e-12 3.085441e-13 -1.711761e-07))
1.049306      	((-3.963563e-09 4.060763e-09 -1.135117e-08) (1.873683e-10 -1.487858e-10 3.099260e-09)) ((-6.693070e-13 -1.322466e-14 -1.083897e-11) (-1.245906e-12 -1.050096e-12 -1.550803e-07))
1.271167      	((-4.252006e-09 3.471203e-09 -1.276034e-08) (2.974293e-10 -2.837661e-10 3.754980e-09)) ((-7.695509e-13 -8.432970e-14 -1.032105e-11) (-5.783906e-12 -3.130646e-12 -1.406926e-07))
1.5374        	((-3.925094e-09 3.401092e-09 -1.385903e-08) (4.275141e-10 -4.402125e-10 4.458638e-09)) ((-6.653124e-13 -1.688670e-13 -9.835713e-12) (-1.047816e-11 -6.454695e-12 -1.279435e-07))
1.85688       	((-2.936796e-09 2.830319e-09 -1.495329e-08) (5.840766e-10 -6.068629e-10 5.157741e-09)) ((-5.739472e-13 -1.731368e-13 -9.295203e-12) (-1.622085e-11 -1.125646e-11 -1.167615e-07))
2.240256      	((-2.268944e-09 1.714715e-09 -1.640605e-08) (8.285652e-10 -7.862250e-10 5.911782e-09)) ((-6.417003e-13 -1.916034e-13 -8.714892e-12) (-2.306953e-11 -1.860995e-11 -1.070237e-07))
2.700307      	((-1.515943e-09 1.256908e-09 -1.771937e-08) (1.092008e-09 -1.027946e-09 6.730760e-09)) ((-6.132617e-13 -2.561126e-13 -8.169119e-12) (-3.153711e-11 -2.691730e-11 -9.854951e-08))
3.252369      	((-7.333372e-10 9.723366e-10 -1.959122e-08) (1.332022e-09 -1.275871e-09 7.597798e-09)) ((-5.224132e-13 -2.871523e-13 -7.585655e-12) (-3.815635e-11 -3.453779e-11 -9.112563e-08))
3.914842      	((-6.016009e-10 2.647133e-10 -2.173378e-08) (1.505889e-09 -1.492153e-09 8.582975e-09)) ((-4.392374e-13 -2.779295e-13 -7.016868e-12) (-4.100773e-11 -3.878663e-11 -8.454410e-08))
4.709811      	((-4.323723e-10 -2.206411e-10 -2.422970e-08) (1.537112e-09 -1.596734e-09 9.740679e-09)) ((-3.544798e-13 -2.608696e-13 -6.498114e-12) (-4.157496e-11 -3.896166e-11 -7.862835e-08))
5.663773      	((-1.799427e-10 -1.304761e-10 -2.734600e-08) (1.475458e-09 -1.543508e-09 1.110148e-08)) ((-2.868077e-13 -2.593622e-13 -6.007115e-12) (-3.980641e-11 -3.745386e-11 -7.324950e-08))
6.808528      	((1.757965e-10 -1.287043e-10 -3.066943e-08) (1.350029e-09 -1.389041e-09 1.256729e-08)) ((-1.971999e-13 -2.661250e-13 -5.553125e-12) (-3.700871e-11 -3.533434e-11 -6.831980e-08))
8.182233      	((3.134523e-10 7.779849e-11 -3.344948e-08) (1.163272e-09 -1.192102e-09 1.414434e-08)) ((-1.533243e-13 -2.476442e-13 -5.127188e-12) (-3.387095e-11 -3.193415e-11 -6.378158e-08))
9.83068       	((1.884387e-10 2.325777e-10 -3.681816e-08) (9.528148e-10 -1.025505e-09 1.582575e-08)) ((-1.102406e-13 -3.103145e-13 -4.725023e-12) (-2.859849e-11 -2.648406e-11 -5.959688e-08))
11.808816     	((-7.137417e-11 6.030663e-10 -4.035396e-08) (7.372304e-10 -8.558868e-10 1.757034e-08)) ((4.907839e-15 -3.096857e-13 -4.360582e-12) (-2.103559e-11 -2.123866e-11 -5.573597e-08))
14.182579     	((-1.351176e-11 6.031296e-10 -4.409787e-08) (5.853752e-10 -6.859674e-10 1.949711e-08)) ((1.285972e-13 -3.080836e-13 -4.024946e-12) (-1.468090e-11 -1.712043e-11 -5.218046e-08))
17.031095     	((-3.767725e-10 2.916865e-10 -4.812971e-08) (4.378542e-10 -5.420126e-10 2.152300e-08)) ((1.975217e-13 -2.910198e-13 -3.715181e-12) (-1.099703e-11 -1.313208e-11 -4.892170e-08))
20.449314     	((-4.516033e-10 5.677092e-10 -5.243473e-08) (3.533296e-10 -4.421147e-10 2.358135e-08)) ((2.316727e-13 -3.177563e-13 -3.443580e-12) (-9.586422e-12 -1.069712e-11 -4.595172e-08))
24.551176     	((-7.486222e-10 3.288205e-10 -5.743617e-08) (3.328757e-10 -4.360108e-10 2.576046e-08)) ((2.607713e-13 -3.493826e-13 -3.209284e-12) (-1.023320e-11 -9.953999e-12 -4.325033e-08))
29.473411     	((-7.761259e-10 3.577343e-10 -6.235095e-08) (3.580927e-10 -4.727834e-10 2.810711e-08)) ((2.669931e-13 -3.752858e-13 -3.001751e-12) (-1.144838e-11 -1.012795e-11 -4.079376e-08))
35.380094     	((-8.857844e-10 1.989223e-10 -6.760349e-08) (4.140866e-10 -5.449859e-10 3.067352e-08)) ((2.708185e-13 -4.083439e-13 -2.812129e-12) (-1.361852e-11 -1.106682e-11 -3.855992e-08))
42.468112     	((-8.443300e-10 1.765071e-10 -7.308095e-08) (4.660292e-10 -6.451491e-10 3.350017e-08)) ((2.542140e-13 -4.433077e-13 -2.637552e-12) (-1.595882e-11 -1.204464e-11 -3.652690e-08))
50.973735     	((-7.975238e-10 3.918730e-11 -7.825360e-08) (5.039039e-10 -7.433017e-10 3.662574e-08)) ((2.333013e-13 -4.712630e-13 -2.481978e-12) (-1.882714e-11 -1.241724e-11 -3.467355e-08))
61.180482     	((-7.010531e-10 -9.603377e-11 -8.335989e-08) (5.374809e-10 -8.270590e-10 4.007180e-08)) ((2.118727e-13 -5.081197e-13 -2.343422e-12) (-2.164083e-11 -1.239813e-11 -3.298157e-08))
73.428578     	((-7.378421e-10 -2.806727e-10 -8.823977e-08) (5.487935e-10 -9.145684e-10 4.372695e-08)) ((2.017310e-13 -5.232119e-13 -2.212595e-12) (-2.505507e-11 -1.176303e-11 -3.143746e-08))
88.126294     	((-6.670234e-10 -3.791549e-10 -9.289088e-08) (5.390739e-10 -9.872556e-10 4.745789e-08)) ((1.874227e-13 -5.161322e-13 -2.097522e-12) (-2.770225e-11 -1.115416e-11 -3.003054e-08))
105.763553    	((-7.157241e-10 -5.012315e-10 -9.759724e-08) (5.004081e-10 -1.041113e-09 5.120043e-08)) ((1.761898e-13 -5.088495e-13 -1.993639e-12) (-2.942215e-11 -1.036699e-11 -2.875164e-08))
126.928263    	((-7.468233e-10 -5.662939e-10 -1.024711e-07) (4.582528e-10 -1.068796e-09 5.496111e-08)) ((1.716337e-13 -5.156946e-13 -1.894841e-12) (-3.077840e-11 -8.674716e-12 -2.759101e-08))
152.325916    	((-8.018190e-10 -6.005388e-10 -1.073349e-07) (4.056917e-10 -1.079025e-09 5.876360e-08)) ((1.676867e-13 -5.248380e-13 -1.805048e-12) (-3.150464e-11 -6.343458e-12 -2.653778e-08))
182.803099    	((-8.024545e-10 -6.041465e-10 -1.122335e-07) (3.474078e-10 -1.071121e-09 6.263036e-08)) ((1.595679e-13 -5.402596e-13 -1.725975e-12) (-3.142309e-11 -3.875648e-12 -2.558178e-08))
219.375719    	((-8.417520e-10 -6.113576e-10 -1.171042e-07) (2.853832e-10 -1.051783e-09 6.657647e-08)) ((1.568442e-13 -5.647722e-13 -1.650732e-12) (-3.056892e-11 -1.255088e-12 -2.471426e-08))
263.262863    	((-8.214045e-10 -5.138423e-10 -1.218891e-07) (2.235301e-10 -1.009783e-09 7.059723e-08)) ((1.553042e-13 -5.924261e-13 -1.576598e-12) (-2.907933e-11 1.422754e-12 -2.392861e-08))
315.237942    	((-8.239676e-10 -4.646014e-10 -1.264854e-07) (1.571647e-10 -9.542667e-10 7.468980e-08)) ((1.493257e-13 -6.184802e-13 -1.515522e-12) (-2.688826e-11 4.206706e-12 -2.322094e-08))
375.299191    	((-8.383768e-10 -4.371356e-10 -1.307731e-07) (1.069450e-10 -8.892335e-10 7.882744e-08)) ((1.453868e-13 -6.401779e-13 -1.461385e-12) (-2.408704e-11 6.565749e-12 -2.258758e-08))
443.44495     	((-8.166318e-10 -4.252454e-10 -1.347413e-07) (6.118264e-11 -8.111173e-10 8.299781e-08)) ((1.411181e-13 -6.634600e-13 -1.409117e-12) (-2.064799e-11 8.192744e-12 -2.202419e-08))
519.673519    	((-8.017519e-10 -4.232961e-10 -1.383684e-07) (2.385978e-11 -7.253996e-10 8.715954e-08)) ((1.377869e-13 -6.867805e-13 -1.361530e-12) (-1.747994e-11 9.389615e-12 -2.152591e-08))
600.482837    	((-7.971363e-10 -4.294570e-10 -1.416974e-07) (-2.397112e-12 -6.462530e-10 9.121159e-08)) ((1.360896e-13 -7.047823e-13 -1.320817e-12) (-1.430018e-11 9.969290e-12 -2.109001e-08))
681.273237    	((-7.738960e-10 -4.348950e-10 -1.446865e-07) (-1.543753e-11 -5.685784e-10 9.508785e-08)) ((1.328332e-13 -7.203561e-13 -1.284157e-12) (-1.139240e-11 1.010825e-11 -2.071246e-08))
762.043922    	((-7.454653e-10 -4.350738e-10 -1.472239e-07) (-2.027774e-11 -4.995539e-10 9.875517e-08)) ((1.313489e-13 -7.358937e-13 -1.252533e-12) (-8.866392e-12 9.795503e-12 -2.038649e-08))
842.797677    	((-7.102755e-10 -4.429853e-10 -1.494225e-07) (-1.513950e-11 -4.403517e-10 1.022063e-07)) ((1.302207e-13 -7.505299e-13 -1.224710e-12) (-6.892117e-12 9.157361e-12 -2.010580e-08))
923.534156    	((-6.741234e-10 -4.429206e-10 -1.513196e-07) (-3.430835e-12 -3.933231e-10 1.054470e-07)) ((1.295870e-13 -7.665557e-13 -1.200564e-12) (-5.440666e-12 8.237808e-12 -1.986381e-08))
1004.255718   	((-6.400836e-10 -4.496723e-10 -1.529743e-07) (1.416514e-11 -3.550846e-10 1.084951e-07)) ((1.292576e-13 -7.822001e-13 -1.179131e-12) (-4.349343e-12 7.239338e-12 -1.965469e-08))
1084.963457   	((-6.236979e-10 -4.640506e-10 -1.544190e-07) (2.932640e-11 -3.269405e-10 1.113739e-07)) ((1.282873e-13 -7.977270e-13 -1.160190e-12) (-3.540660e-12 6.319513e-12 -1.947356e-08))
1165.658079   	((-6.121357e-10 -4.796410e-10 -1.556869e-07) (4.354334e-11 -3.079321e-10 1.140993e-07)) ((1.274496e-13 -8.124440e-13 -1.143968e-12) (-2.993769e-12 5.560670e-12 -1.931645e-08))
1246.342201   	((-6.029003e-10 -4.889358e-10 -1.567926e-07) (5.394959e-11 -2.945676e-10 1.166800e-07)) ((1.256458e-13 -8.246254e-13 -1.129529e-12) (-2.614398e-12 4.971989e-12 -1.918014e-08))
1327.017938   	((-5.959664e-10 -4.987937e-10 -1.577524e-07) (6.105704e-11 -2.844647e-10 1.191240e-07)) ((1.261565e-13 -8.357849e-13 -1.116475e-12) (-2.401717e-12 4.492198e-12 -1.906172e-08))
1407.685982   	((-5.922133e-10 -5.003019e-10 -1.586031e-07) (6.557199e-11 -2.754154e-10 1.214379e-07)) ((1.256767e-13 -8.463861e-13 -1.104529e-12) (-2.260175e-12 4.050531e-12 -1.895862e-08))
1488.347148   	((-5.929343e-10 -5.073081e-10 -1.593557e-07) (7.174363e-11 -2.662921e-10 1.236258e-07)) ((1.254027e-13 -8.579467e-13 -1.093304e-12) (-2.138300e-12 3.615699e-12 -1.886875e-08))
1569.003573   	((-5.881030e-10 -5.094023e-10 -1.600135e-07) (7.814106e-11 -2.589795e-10 1.256929e-07)) ((1.251058e-13 -8.696652e-13 -1.083140e-12) (-2.008509e-12 3.242988e-12 -1.879041e-08))
1649.657306   	((-5.799097e-10 -5.076500e-10 -1.605935e-07) (8.379568e-11 -2.543968e-10 1.276462e-07)) ((1.244587e-13 -8.799128e-13 -1.073591e-12) (-1.892049e-12 2.893449e-12 -1.872214e-08))
1730.310207   	((-5.727152e-10 -5.095949e-10 -1.610892e-07) (9.061726e-11 -2.506678e-10 1.294963e-07)) ((1.246569e-13 -8.904435e-13 -1.065075e-12) (-1.808323e-12 2.537022e-12 -1.866267e-08))
1810.963208   	((-5.647044e-10 -5.072051e-10 -1.615141e-07) (9.915459e-11 -2.477074e-10 1.312514e-07)) ((1.243314e-13 -9.009938e-13 -1.057720e-12) (-1.721681e-12 2.140675e-12 -1.861091e-08))
1891.616306   	((-5.567348e-10 -5.112680e-10 -1.618788e-07) (1.078854e-10 -2.444016e-10 1.329164e-07)) ((1.241665e-13 -9.112328e-13 -1.051098e-12) (-1.608319e-12 1.746325e-12 -1.856591e-08))
