# Forces      
# CofR        : (0.000000e+00 0.000000e+00 0.000000e+00)
# Time        forces(pressure viscous)	moments(pressure viscous)
0             	((0.000000e+00 0.000000e+00 0.000000e+00) (1.112853e-06 2.133950e-09 1.201958e-01)) ((0.000000e+00 0.000000e+00 0.000000e+00) (-6.267422e-10 6.455646e-08 -1.632979e-12))
0.00415403    	((4.240329e-02 3.043424e-02 2.802068e+01) (3.842683e-05 3.622872e-05 1.820502e-01)) ((1.750973e-06 7.575347e-06 3.142091e-08) (3.473842e-06 -3.729892e-06 3.475411e-08))
0.00900794    	((1.206787e-02 -3.100417e-03 -1.507892e+01) (9.174629e-05 5.700774e-05 1.732673e-01)) ((8.976801e-07 -2.465128e-05 -1.044301e-07) (4.050880e-06 -5.185966e-06 4.999346e-08))
0.014603      	((5.966101e-03 -1.921319e-03 2.121728e+00) (7.183866e-05 2.742879e-05 1.383850e-01)) ((-1.277934e-06 -2.501704e-06 6.026505e-11) (2.563388e-06 -1.646485e-06 2.017006e-08))
0.021         	((1.456115e-02 -1.041374e-03 -1.766886e+00) (4.599055e-05 5.219631e-06 1.248070e-01)) ((-5.244667e-07 -1.218439e-05 -3.233189e-08) (1.420451e-06 -9.718142e-07 6.804453e-08))
0.028191      	((6.381783e-03 -3.547019e-03 1.625409e-01) (7.140620e-05 -1.537516e-05 1.189536e-01)) ((6.304701e-08 -7.407452e-06 7.907192e-08) (-2.722615e-07 -1.376261e-06 7.565076e-08))
0.0360769     	((9.847820e-03 -2.110177e-03 -8.389277e-01) (1.032057e-04 -1.739902e-05 1.139713e-01)) ((-4.149312e-08 -1.091199e-05 3.543251e-08) (-4.522589e-07 -1.128124e-06 -4.265021e-08))
0.0441044     	((8.193029e-03 -1.645242e-03 -3.166123e-01) (1.209834e-04 -5.914305e-06 1.106286e-01)) ((-5.711578e-08 -8.711899e-06 -2.315129e-10) (1.901763e-07 -3.508980e-06 -1.124279e-07))
0.0520592     	((1.023129e-02 -1.502972e-03 -5.909357e-01) (1.372502e-04 7.729232e-07 1.083961e-01)) ((-1.547959e-08 -1.012082e-05 1.795676e-09) (4.141357e-07 -5.742276e-06 -1.613651e-07))
0.0600332     	((1.050507e-02 -1.315895e-03 -4.426985e-01) (1.533645e-04 4.372824e-06 1.071485e-01)) ((2.973503e-08 -9.537984e-06 2.214907e-08) (7.491773e-07 -6.859786e-06 -2.064062e-07))
0.0679887     	((1.038177e-02 -1.491679e-03 -5.241611e-01) (1.608873e-04 8.081114e-06 1.060963e-01)) ((8.504042e-08 -1.021887e-05 2.099610e-08) (1.031446e-06 -7.833600e-06 -2.371733e-07))
0.0759502     	((1.028130e-02 -1.593267e-03 -4.806776e-01) (1.663067e-04 1.162503e-05 1.054863e-01)) ((7.984188e-08 -9.774320e-06 3.083169e-08) (1.109942e-06 -8.448572e-06 -2.538682e-07))
0.083935      	((1.069139e-02 -1.344623e-03 -5.068775e-01) (1.705894e-04 1.270956e-05 1.050932e-01)) ((1.275084e-07 -1.014940e-05 2.919626e-08) (1.102218e-06 -8.840410e-06 -2.591711e-07))
0.0919284     	((1.084956e-02 -1.240770e-03 -4.942819e-01) (1.764604e-04 1.197610e-05 1.049561e-01)) ((1.613670e-07 -1.007280e-05 2.771357e-08) (1.100851e-06 -9.358013e-06 -2.497423e-07))
0.0999249     	((1.097772e-02 -1.228798e-03 -5.051164e-01) (1.837559e-04 1.270831e-05 1.050491e-01)) ((1.677958e-07 -1.031003e-05 2.380146e-08) (1.235756e-06 -9.842598e-06 -2.248226e-07))
0.107919      	((1.126159e-02 -1.237510e-03 -5.020530e-01) (1.912755e-04 1.538512e-05 1.053508e-01)) ((1.760076e-07 -1.036870e-05 2.532665e-08) (1.519467e-06 -1.034797e-05 -1.885611e-07))
0.115898      	((1.137098e-02 -1.187328e-03 -5.072375e-01) (1.987886e-04 1.875415e-05 1.058055e-01)) ((1.671743e-07 -1.053327e-05 2.557938e-08) (1.826633e-06 -1.087250e-05 -1.485832e-07))
0.123853      	((1.158023e-02 -1.142785e-03 -5.072664e-01) (2.046135e-04 2.192223e-05 1.063638e-01)) ((1.547246e-07 -1.060411e-05 2.520248e-08) (2.104683e-06 -1.132345e-05 -1.110121e-07))
0.131779      	((1.170123e-02 -1.105274e-03 -5.099811e-01) (2.088875e-04 2.439352e-05 1.069688e-01)) ((1.313931e-07 -1.071830e-05 2.500971e-08) (2.327279e-06 -1.168145e-05 -7.634251e-08))
0.139669      	((1.182356e-02 -1.085986e-03 -5.100033e-01) (2.116915e-04 2.660586e-05 1.075760e-01)) ((1.165968e-07 -1.078030e-05 2.516032e-08) (2.514478e-06 -1.192772e-05 -3.957551e-08))
0.147519      	((1.196089e-02 -1.052421e-03 -5.102189e-01) (2.132904e-04 2.886981e-05 1.081422e-01)) ((9.175020e-08 -1.084516e-05 2.503683e-08) (2.692582e-06 -1.208947e-05 2.339060e-09))
0.15533       	((1.205265e-02 -1.018762e-03 -5.083922e-01) (2.141548e-04 3.108045e-05 1.086262e-01)) ((7.577647e-08 -1.086744e-05 2.398555e-08) (2.856529e-06 -1.216573e-05 4.893673e-08))
0.163103      	((1.211399e-02 -9.963890e-04 -5.058985e-01) (2.142371e-04 3.274243e-05 1.089927e-01)) ((6.598893e-08 -1.086627e-05 2.348478e-08) (2.992982e-06 -1.215981e-05 9.649220e-08))
0.170846      	((1.213544e-02 -9.835275e-04 -5.024339e-01) (2.137699e-04 3.367248e-05 1.092219e-01)) ((6.870499e-08 -1.082027e-05 2.386293e-08) (3.086526e-06 -1.208267e-05 1.386262e-07))
0.178567      	((1.212928e-02 -9.948439e-04 -4.992590e-01) (2.130702e-04 3.386482e-05 1.093136e-01)) ((7.283726e-08 -1.075619e-05 2.330357e-08) (3.124915e-06 -1.196913e-05 1.686998e-07))
0.186282      	((1.205079e-02 -1.013422e-03 -4.969013e-01) (2.121724e-04 3.344877e-05 1.092898e-01)) ((7.491438e-08 -1.069403e-05 2.294821e-08) (3.108943e-06 -1.183446e-05 1.852814e-07))
0.193999      	((1.205971e-02 -1.026072e-03 -4.959880e-01) (2.111533e-04 3.255589e-05 1.091892e-01)) ((7.807503e-08 -1.065193e-05 2.242346e-08) (3.041200e-06 -1.169645e-05 1.936382e-07))
0.201727      	((1.206703e-02 -1.043726e-03 -4.964098e-01) (2.102676e-04 3.117599e-05 1.090573e-01)) ((7.350392e-08 -1.063623e-05 2.315862e-08) (2.925956e-06 -1.157325e-05 2.001170e-07))
0.209468      	((1.208414e-02 -1.069215e-03 -4.976460e-01) (2.096166e-04 2.956246e-05 1.089334e-01)) ((7.702197e-08 -1.063431e-05 2.404251e-08) (2.782157e-06 -1.147299e-05 2.065054e-07))
0.217219      	((1.210333e-02 -1.083843e-03 -4.988877e-01) (2.092502e-04 2.802120e-05 1.088404e-01)) ((7.504002e-08 -1.064536e-05 2.395455e-08) (2.635350e-06 -1.141072e-05 2.128192e-07))
0.224977      	((1.212277e-02 -1.093117e-03 -4.996103e-01) (2.092207e-04 2.673301e-05 1.087832e-01)) ((6.934213e-08 -1.065912e-05 2.339167e-08) (2.508696e-06 -1.138672e-05 2.188991e-07))
0.232737      	((1.213157e-02 -1.091928e-03 -4.997173e-01) (2.095226e-04 2.583070e-05 1.087539e-01)) ((6.223500e-08 -1.066902e-05 2.261527e-08) (2.415261e-06 -1.139767e-05 2.246306e-07))
0.240498      	((1.212852e-02 -1.086702e-03 -4.994967e-01) (2.100497e-04 2.532014e-05 1.087406e-01)) ((6.028458e-08 -1.067115e-05 2.202491e-08) (2.356378e-06 -1.143660e-05 2.304897e-07))
0.248258      	((1.212193e-02 -1.080185e-03 -4.993271e-01) (2.107466e-04 2.507960e-05 1.087344e-01)) ((6.316364e-08 -1.067005e-05 2.189021e-08) (2.324400e-06 -1.149693e-05 2.360606e-07))
0.256018      	((1.211697e-02 -1.069271e-03 -4.993771e-01) (2.115847e-04 2.491991e-05 1.087310e-01)) ((6.992115e-08 -1.066917e-05 2.222394e-08) (2.307021e-06 -1.157267e-05 2.400207e-07))
0.263779      	((1.211445e-02 -1.056673e-03 -4.995547e-01) (2.125495e-04 2.471913e-05 1.087300e-01)) ((7.923589e-08 -1.066918e-05 2.241100e-08) (2.294515e-06 -1.165937e-05 2.416550e-07))
0.27154       	((1.211704e-02 -1.045380e-03 -4.996947e-01) (2.136319e-04 2.441966e-05 1.087314e-01)) ((9.021101e-08 -1.066857e-05 2.252153e-08) (2.278349e-06 -1.175500e-05 2.407921e-07))
0.279301      	((1.212222e-02 -1.039663e-03 -4.997202e-01) (2.148243e-04 2.397275e-05 1.087345e-01)) ((9.963032e-08 -1.066744e-05 2.273159e-08) (2.251035e-06 -1.185732e-05 2.375788e-07))
0.287062      	((1.213062e-02 -1.040897e-03 -4.996758e-01) (2.160612e-04 2.337963e-05 1.087382e-01)) ((1.049548e-07 -1.066751e-05 2.305658e-08) (2.208921e-06 -1.196187e-05 2.329649e-07))
0.294822      	((1.213839e-02 -1.044823e-03 -4.996536e-01) (2.172705e-04 2.266803e-05 1.087418e-01)) ((1.101799e-07 -1.066645e-05 2.335778e-08) (2.151704e-06 -1.206418e-05 2.282668e-07))
0.302582      	((1.214434e-02 -1.049136e-03 -4.996694e-01) (2.184077e-04 2.187769e-05 1.087448e-01)) ((1.138177e-07 -1.066580e-05 2.357381e-08) (2.081705e-06 -1.216158e-05 2.243900e-07))
0.310342      	((1.214867e-02 -1.053996e-03 -4.996933e-01) (2.194253e-04 2.106823e-05 1.087472e-01)) ((1.150613e-07 -1.066633e-05 2.372952e-08) (2.003930e-06 -1.225097e-05 2.217757e-07))
0.318101      	((1.215284e-02 -1.058719e-03 -4.996943e-01) (2.202802e-04 2.029507e-05 1.087490e-01)) ((1.138066e-07 -1.066849e-05 2.377735e-08) (1.923913e-06 -1.232962e-05 2.207199e-07))
0.325861      	((1.215627e-02 -1.063113e-03 -4.996761e-01) (2.209664e-04 1.956994e-05 1.087501e-01)) ((1.105862e-07 -1.067161e-05 2.378340e-08) (1.844388e-06 -1.239785e-05 2.216034e-07))
0.33362       	((1.215940e-02 -1.066377e-03 -4.996608e-01) (2.215162e-04 1.887108e-05 1.087505e-01)) ((1.068412e-07 -1.067476e-05 2.370809e-08) (1.765818e-06 -1.245804e-05 2.247044e-07))
0.341379      	((1.216361e-02 -1.069943e-03 -4.996548e-01) (2.219471e-04 1.818140e-05 1.087504e-01)) ((1.015362e-07 -1.067918e-05 2.355480e-08) (1.690076e-06 -1.251092e-05 2.306123e-07))
0.349138      	((1.216980e-02 -1.075412e-03 -4.996508e-01) (2.222509e-04 1.752940e-05 1.087498e-01)) ((9.448605e-08 -1.068432e-05 2.351058e-08) (1.620347e-06 -1.255605e-05 2.395953e-07))
0.356897      	((1.217592e-02 -1.080586e-03 -4.996434e-01) (2.224246e-04 1.697211e-05 1.087490e-01)) ((8.936069e-08 -1.068820e-05 2.335832e-08) (1.561079e-06 -1.259242e-05 2.507644e-07))
0.364656      	((1.218055e-02 -1.084521e-03 -4.996347e-01) (2.224843e-04 1.652886e-05 1.087482e-01)) ((8.703601e-08 -1.069062e-05 2.320311e-08) (1.514328e-06 -1.261968e-05 2.629784e-07))
0.372415      	((1.218375e-02 -1.086953e-03 -4.996291e-01) (2.224633e-04 1.618185e-05 1.087475e-01)) ((8.702234e-08 -1.069182e-05 2.309968e-08) (1.478403e-06 -1.263905e-05 2.752134e-07))
0.380174      	((1.218583e-02 -1.088074e-03 -4.996278e-01) (2.224078e-04 1.589204e-05 1.087469e-01)) ((8.844581e-08 -1.069219e-05 2.298905e-08) (1.449538e-06 -1.265242e-05 2.862750e-07))
0.387933      	((1.218701e-02 -1.088515e-03 -4.996285e-01) (2.223578e-04 1.563420e-05 1.087464e-01)) ((9.001631e-08 -1.069212e-05 2.285439e-08) (1.425238e-06 -1.266123e-05 2.950600e-07))
0.395692      	((1.218758e-02 -1.088719e-03 -4.996293e-01) (2.223381e-04 1.540434e-05 1.087460e-01)) ((9.147311e-08 -1.069173e-05 2.272417e-08) (1.404542e-06 -1.266656e-05 3.009811e-07))
0.403452      	((1.218802e-02 -1.089027e-03 -4.996300e-01) (2.223578e-04 1.520293e-05 1.087457e-01)) ((9.258296e-08 -1.069118e-05 2.261346e-08) (1.386992e-06 -1.266940e-05 3.041931e-07))
0.411211      	((1.218849e-02 -1.089708e-03 -4.996308e-01) (2.224086e-04 1.503330e-05 1.087455e-01)) ((9.327346e-08 -1.069059e-05 2.254026e-08) (1.372447e-06 -1.267068e-05 3.055411e-07))
0.41897       	((1.218931e-02 -1.090420e-03 -4.996316e-01) (2.224760e-04 1.489605e-05 1.087454e-01)) ((9.329753e-08 -1.069004e-05 2.249619e-08) (1.360539e-06 -1.267128e-05 3.061038e-07))
0.426729      	((1.218973e-02 -1.091515e-03 -4.996317e-01) (2.225472e-04 1.479519e-05 1.087454e-01)) ((9.263167e-08 -1.068965e-05 2.247430e-08) (1.351335e-06 -1.267185e-05 3.066676e-07))
0.434488      	((1.219011e-02 -1.092512e-03 -4.996316e-01) (2.226140e-04 1.473560e-05 1.087454e-01)) ((9.150559e-08 -1.068952e-05 2.245872e-08) (1.345196e-06 -1.267258e-05 3.075090e-07))
0.442247      	((1.219034e-02 -1.093374e-03 -4.996314e-01) (2.226708e-04 1.471654e-05 1.087453e-01)) ((9.017713e-08 -1.068957e-05 2.246752e-08) (1.342206e-06 -1.267326e-05 3.085679e-07))
0.450006      	((1.219052e-02 -1.094063e-03 -4.996314e-01) (2.227147e-04 1.473480e-05 1.087454e-01)) ((8.888509e-08 -1.068964e-05 2.248654e-08) (1.342291e-06 -1.267366e-05 3.097172e-07))
0.457766      	((1.219060e-02 -1.094596e-03 -4.996313e-01) (2.227469e-04 1.478273e-05 1.087454e-01)) ((8.788726e-08 -1.068958e-05 2.251253e-08) (1.345006e-06 -1.267393e-05 3.108593e-07))
0.465525      	((1.219073e-02 -1.094939e-03 -4.996310e-01) (2.227737e-04 1.484610e-05 1.087454e-01)) ((8.718836e-08 -1.068941e-05 2.253587e-08) (1.349375e-06 -1.267442e-05 3.119271e-07))
0.473284      	((1.219086e-02 -1.095192e-03 -4.996307e-01) (2.228006e-04 1.491361e-05 1.087454e-01)) ((8.666009e-08 -1.068920e-05 2.255288e-08) (1.354667e-06 -1.267546e-05 3.128680e-07))
0.481043      	((1.219098e-02 -1.095440e-03 -4.996304e-01) (2.228302e-04 1.497778e-05 1.087454e-01)) ((8.636377e-08 -1.068892e-05 2.256890e-08) (1.360351e-06 -1.267719e-05 3.136638e-07))
0.488802      	((1.219111e-02 -1.095731e-03 -4.996301e-01) (2.228630e-04 1.503343e-05 1.087454e-01)) ((8.627840e-08 -1.068860e-05 2.258421e-08) (1.366012e-06 -1.267961e-05 3.143291e-07))
0.496561      	((1.219132e-02 -1.095944e-03 -4.996297e-01) (2.228986e-04 1.507706e-05 1.087453e-01)) ((8.634534e-08 -1.068826e-05 2.259570e-08) (1.371306e-06 -1.268251e-05 3.149376e-07))
0.50432       	((1.219152e-02 -1.096167e-03 -4.996293e-01) (2.229356e-04 1.510918e-05 1.087452e-01)) ((8.644289e-08 -1.068795e-05 2.260338e-08) (1.376238e-06 -1.268589e-05 3.155115e-07))
0.51208       	((1.219172e-02 -1.096217e-03 -4.996290e-01) (2.229747e-04 1.513542e-05 1.087451e-01)) ((8.649328e-08 -1.068766e-05 2.260242e-08) (1.381062e-06 -1.268974e-05 3.160019e-07))
0.519839      	((1.219189e-02 -1.096075e-03 -4.996287e-01) (2.230163e-04 1.516152e-05 1.087449e-01)) ((8.646208e-08 -1.068745e-05 2.259673e-08) (1.386043e-06 -1.269394e-05 3.163595e-07))
0.527598      	((1.219174e-02 -1.096150e-03 -4.996287e-01) (2.230616e-04 1.519469e-05 1.087448e-01)) ((8.629791e-08 -1.068732e-05 2.258917e-08) (1.391648e-06 -1.269853e-05 3.165191e-07))
0.535357      	((1.219210e-02 -1.095562e-03 -4.996285e-01) (2.231091e-04 1.523846e-05 1.087446e-01)) ((8.605812e-08 -1.068725e-05 2.258853e-08) (1.398000e-06 -1.270329e-05 3.164664e-07))
0.543116      	((1.219197e-02 -1.095321e-03 -4.996285e-01) (2.231571e-04 1.529295e-05 1.087444e-01)) ((8.573722e-08 -1.068723e-05 2.259288e-08) (1.405085e-06 -1.270806e-05 3.162482e-07))
0.550875      	((1.219212e-02 -1.094767e-03 -4.996285e-01) (2.232042e-04 1.535861e-05 1.087442e-01)) ((8.539434e-08 -1.068724e-05 2.260640e-08) (1.412922e-06 -1.271278e-05 3.159180e-07))
0.558634      	((1.219229e-02 -1.094269e-03 -4.996286e-01) (2.232480e-04 1.543289e-05 1.087441e-01)) ((8.507884e-08 -1.068724e-05 2.262474e-08) (1.421337e-06 -1.271733e-05 3.155421e-07))
0.566394      	((1.219252e-02 -1.093691e-03 -4.996286e-01) (2.232868e-04 1.551212e-05 1.087439e-01)) ((8.485238e-08 -1.068724e-05 2.264894e-08) (1.430143e-06 -1.272168e-05 3.151885e-07))
0.574153      	((1.219269e-02 -1.093244e-03 -4.996286e-01) (2.233212e-04 1.559417e-05 1.087437e-01)) ((8.478146e-08 -1.068725e-05 2.267193e-08) (1.439263e-06 -1.272594e-05 3.149033e-07))
0.581912      	((1.219289e-02 -1.092830e-03 -4.996286e-01) (2.233539e-04 1.567968e-05 1.087435e-01)) ((8.491377e-08 -1.068731e-05 2.269611e-08) (1.448787e-06 -1.273034e-05 3.146942e-07))
0.589671      	((1.219309e-02 -1.092479e-03 -4.996286e-01) (2.233887e-04 1.577037e-05 1.087434e-01)) ((8.523583e-08 -1.068743e-05 2.271466e-08) (1.458824e-06 -1.273514e-05 3.145412e-07))
0.59743       	((1.219329e-02 -1.092154e-03 -4.996286e-01) (2.234284e-04 1.586699e-05 1.087432e-01)) ((8.570133e-08 -1.068759e-05 2.272814e-08) (1.469419e-06 -1.274050e-05 3.144078e-07))
0.605189      	((1.219349e-02 -1.091846e-03 -4.996285e-01) (2.234749e-04 1.596995e-05 1.087429e-01)) ((8.625697e-08 -1.068782e-05 2.273708e-08) (1.480583e-06 -1.274652e-05 3.142499e-07))
0.612948      	((1.219368e-02 -1.091522e-03 -4.996286e-01) (2.235296e-04 1.607978e-05 1.087427e-01)) ((8.684601e-08 -1.068809e-05 2.274407e-08) (1.492327e-06 -1.275324e-05 3.140281e-07))
0.620707      	((1.219387e-02 -1.091177e-03 -4.996286e-01) (2.235926e-04 1.619699e-05 1.087425e-01)) ((8.742956e-08 -1.068841e-05 2.275060e-08) (1.504661e-06 -1.276061e-05 3.137204e-07))
0.628467      	((1.219407e-02 -1.090799e-03 -4.996288e-01) (2.236634e-04 1.632189e-05 1.087422e-01)) ((8.798191e-08 -1.068878e-05 2.275953e-08) (1.517585e-06 -1.276852e-05 3.133248e-07))
0.636226      	((1.219426e-02 -1.090396e-03 -4.996289e-01) (2.237406e-04 1.645438e-05 1.087419e-01)) ((8.849624e-08 -1.068919e-05 2.277197e-08) (1.531076e-06 -1.277685e-05 3.128531e-07))
0.643985      	((1.219449e-02 -1.089965e-03 -4.996292e-01) (2.238221e-04 1.659396e-05 1.087416e-01)) ((8.898126e-08 -1.068965e-05 2.279069e-08) (1.545071e-06 -1.278543e-05 3.123214e-07))
0.651744      	((1.219471e-02 -1.089509e-03 -4.996294e-01) (2.239059e-04 1.673952e-05 1.087413e-01)) ((8.942899e-08 -1.069011e-05 2.281427e-08) (1.559471e-06 -1.279412e-05 3.117480e-07))
0.659503      	((1.219498e-02 -1.089019e-03 -4.996296e-01) (2.239898e-04 1.688945e-05 1.087410e-01)) ((8.986253e-08 -1.069058e-05 2.284626e-08) (1.574145e-06 -1.280281e-05 3.111549e-07))
0.667262      	((1.219527e-02 -1.088502e-03 -4.996298e-01) (2.240718e-04 1.704147e-05 1.087408e-01)) ((9.031488e-08 -1.069105e-05 2.288424e-08) (1.588916e-06 -1.281138e-05 3.105624e-07))
0.675021      	((1.219557e-02 -1.087978e-03 -4.996301e-01) (2.241501e-04 1.719264e-05 1.087405e-01)) ((9.080779e-08 -1.069151e-05 2.292450e-08) (1.603562e-06 -1.281972e-05 3.099855e-07))
0.682781      	((1.219587e-02 -1.087475e-03 -4.996303e-01) (2.242233e-04 1.733972e-05 1.087402e-01)) ((9.134232e-08 -1.069195e-05 2.296317e-08) (1.617829e-06 -1.282773e-05 3.094324e-07))
0.69054       	((1.219616e-02 -1.087001e-03 -4.996305e-01) (2.242906e-04 1.747997e-05 1.087399e-01)) ((9.192168e-08 -1.069236e-05 2.299836e-08) (1.631490e-06 -1.283535e-05 3.088948e-07))
0.698299      	((1.219645e-02 -1.086552e-03 -4.996307e-01) (2.243515e-04 1.761112e-05 1.087397e-01)) ((9.253706e-08 -1.069276e-05 2.302832e-08) (1.644356e-06 -1.284254e-05 3.083549e-07))
0.706058      	((1.219674e-02 -1.086123e-03 -4.996309e-01) (2.244070e-04 1.773333e-05 1.087395e-01)) ((9.316399e-08 -1.069313e-05 2.305339e-08) (1.656363e-06 -1.284931e-05 3.077879e-07))
0.713817      	((1.219701e-02 -1.085714e-03 -4.996311e-01) (2.244564e-04 1.784469e-05 1.087393e-01)) ((9.377105e-08 -1.069348e-05 2.307344e-08) (1.667266e-06 -1.285554e-05 3.071712e-07))
0.721576      	((1.219727e-02 -1.085337e-03 -4.996313e-01) (2.244980e-04 1.794199e-05 1.087391e-01)) ((9.433486e-08 -1.069379e-05 2.308934e-08) (1.676808e-06 -1.286109e-05 3.064916e-07))
0.729335      	((1.219752e-02 -1.084961e-03 -4.996315e-01) (2.245317e-04 1.802441e-05 1.087389e-01)) ((9.483810e-08 -1.069408e-05 2.310064e-08) (1.684929e-06 -1.286589e-05 3.057508e-07))
0.737095      	((1.219773e-02 -1.084670e-03 -4.996317e-01) (2.245569e-04 1.809134e-05 1.087388e-01)) ((9.525537e-08 -1.069433e-05 2.310942e-08) (1.691508e-06 -1.286985e-05 3.049575e-07))
0.744854      	((1.219791e-02 -1.084424e-03 -4.996319e-01) (2.245727e-04 1.814358e-05 1.087387e-01)) ((9.557981e-08 -1.069454e-05 2.311670e-08) (1.696598e-06 -1.287292e-05 3.040949e-07))
0.752613      	((1.219804e-02 -1.084242e-03 -4.996322e-01) (2.245789e-04 1.818297e-05 1.087386e-01)) ((9.580409e-08 -1.069470e-05 2.312154e-08) (1.700258e-06 -1.287510e-05 3.031421e-07))
0.760372      	((1.219815e-02 -1.084085e-03 -4.996324e-01) (2.245746e-04 1.820846e-05 1.087386e-01)) ((9.594744e-08 -1.069481e-05 2.312375e-08) (1.702337e-06 -1.287623e-05 3.021279e-07))
0.768131      	((1.219823e-02 -1.083959e-03 -4.996326e-01) (2.245591e-04 1.821795e-05 1.087385e-01)) ((9.602570e-08 -1.069488e-05 2.312364e-08) (1.702724e-06 -1.287627e-05 3.010999e-07))
0.77589       	((1.219828e-02 -1.083875e-03 -4.996328e-01) (2.245321e-04 1.821007e-05 1.087386e-01)) ((9.604964e-08 -1.069489e-05 2.311992e-08) (1.701344e-06 -1.287519e-05 3.000969e-07))
0.783649      	((1.219831e-02 -1.083839e-03 -4.996329e-01) (2.244935e-04 1.818372e-05 1.087386e-01)) ((9.602124e-08 -1.069485e-05 2.311285e-08) (1.698141e-06 -1.287298e-05 2.991523e-07))
0.791409      	((1.219829e-02 -1.083856e-03 -4.996331e-01) (2.244438e-04 1.813816e-05 1.087388e-01)) ((9.594264e-08 -1.069475e-05 2.310177e-08) (1.693093e-06 -1.286966e-05 2.982920e-07))
0.799168      	((1.219825e-02 -1.083930e-03 -4.996332e-01) (2.243837e-04 1.807311e-05 1.087389e-01)) ((9.580844e-08 -1.069459e-05 2.308594e-08) (1.686211e-06 -1.286527e-05 2.975373e-07))
0.806927      	((1.219817e-02 -1.084060e-03 -4.996332e-01) (2.243145e-04 1.798874e-05 1.087391e-01)) ((9.561322e-08 -1.069436e-05 2.306580e-08) (1.677539e-06 -1.285987e-05 2.969061e-07))
0.814686      	((1.219807e-02 -1.084244e-03 -4.996332e-01) (2.242376e-04 1.788577e-05 1.087393e-01)) ((9.535425e-08 -1.069408e-05 2.304148e-08) (1.667157e-06 -1.285355e-05 2.964113e-07))
0.822445      	((1.219820e-02 -1.084181e-03 -4.996331e-01) (2.241540e-04 1.776520e-05 1.087395e-01)) ((9.503196e-08 -1.069375e-05 2.301326e-08) (1.655165e-06 -1.284635e-05 2.960605e-07))
0.830204      	((1.219779e-02 -1.084721e-03 -4.996332e-01) (2.240656e-04 1.762929e-05 1.087398e-01)) ((9.463147e-08 -1.069338e-05 2.298202e-08) (1.641751e-06 -1.283840e-05 2.958558e-07))
0.837963      	((1.219786e-02 -1.084780e-03 -4.996330e-01) (2.239736e-04 1.748018e-05 1.087401e-01)) ((9.417667e-08 -1.069297e-05 2.294793e-08) (1.627105e-06 -1.282980e-05 2.957963e-07))
0.845722      	((1.219738e-02 -1.085423e-03 -4.996330e-01) (2.238794e-04 1.732030e-05 1.087404e-01)) ((9.365207e-08 -1.069254e-05 2.291341e-08) (1.611450e-06 -1.282066e-05 2.958839e-07))
0.853482      	((1.219740e-02 -1.085519e-03 -4.996327e-01) (2.237842e-04 1.715216e-05 1.087407e-01)) ((9.308947e-08 -1.069210e-05 2.287704e-08) (1.595018e-06 -1.281111e-05 2.961266e-07))
0.861241      	((1.219746e-02 -1.085534e-03 -4.996319e-01) (2.236901e-04 1.697898e-05 1.087410e-01)) ((9.245717e-08 -1.069161e-05 2.284195e-08) (1.578107e-06 -1.280131e-05 2.965379e-07))
0.869         	((1.219665e-02 -1.086613e-03 -4.996325e-01) (2.235987e-04 1.680339e-05 1.087413e-01)) ((9.176727e-08 -1.069111e-05 2.281194e-08) (1.560979e-06 -1.279142e-05 2.971185e-07))
0.876759      	((1.219681e-02 -1.086519e-03 -4.996318e-01) (2.235103e-04 1.662750e-05 1.087417e-01)) ((9.108517e-08 -1.069061e-05 2.278274e-08) (1.543855e-06 -1.278153e-05 2.978668e-07))
0.884518      	((1.219674e-02 -1.086778e-03 -4.996312e-01) (2.234266e-04 1.645406e-05 1.087420e-01)) ((9.044433e-08 -1.069014e-05 2.275462e-08) (1.527016e-06 -1.277182e-05 2.987668e-07))
0.892277      	((1.219593e-02 -1.087972e-03 -4.996318e-01) (2.233510e-04 1.628874e-05 1.087423e-01)) ((8.995753e-08 -1.068980e-05 2.273433e-08) (1.511044e-06 -1.276270e-05 2.997867e-07))
0.900036      	((1.219598e-02 -1.088210e-03 -4.996311e-01) (2.232874e-04 1.613955e-05 1.087426e-01)) ((8.954360e-08 -1.068953e-05 2.271788e-08) (1.496476e-06 -1.275447e-05 3.008933e-07))
0.907796      	((1.219592e-02 -1.088529e-03 -4.996303e-01) (2.232374e-04 1.601069e-05 1.087429e-01)) ((8.914579e-08 -1.068929e-05 2.269961e-08) (1.483555e-06 -1.274727e-05 3.020373e-07))
0.915555      	((1.219512e-02 -1.089647e-03 -4.996307e-01) (2.231999e-04 1.590238e-05 1.087431e-01)) ((8.871839e-08 -1.068905e-05 2.268247e-08) (1.472434e-06 -1.274117e-05 3.031767e-07))
0.923314      	((1.219524e-02 -1.089617e-03 -4.996300e-01) (2.231739e-04 1.581420e-05 1.087433e-01)) ((8.830705e-08 -1.068881e-05 2.266710e-08) (1.463178e-06 -1.273615e-05 3.043030e-07))
0.931073      	((1.219526e-02 -1.089665e-03 -4.996293e-01) (2.231594e-04 1.574544e-05 1.087434e-01)) ((8.792265e-08 -1.068859e-05 2.265579e-08) (1.455790e-06 -1.273224e-05 3.054177e-07))
0.938832      	((1.219454e-02 -1.090547e-03 -4.996298e-01) (2.231556e-04 1.569418e-05 1.087435e-01)) ((8.756693e-08 -1.068840e-05 2.265039e-08) (1.450219e-06 -1.272941e-05 3.065223e-07))
0.946591      	((1.219476e-02 -1.090286e-03 -4.996292e-01) (2.231602e-04 1.565798e-05 1.087436e-01)) ((8.726213e-08 -1.068823e-05 2.264765e-08) (1.446371e-06 -1.272754e-05 3.076128e-07))
0.95435       	((1.219426e-02 -1.090928e-03 -4.996294e-01) (2.231721e-04 1.563701e-05 1.087437e-01)) ((8.695638e-08 -1.068806e-05 2.264881e-08) (1.444241e-06 -1.272662e-05 3.086440e-07))
0.96211       	((1.219450e-02 -1.090653e-03 -4.996290e-01) (2.231897e-04 1.562974e-05 1.087437e-01)) ((8.668370e-08 -1.068790e-05 2.264940e-08) (1.443633e-06 -1.272648e-05 3.095863e-07))
0.969869      	((1.219411e-02 -1.091069e-03 -4.996291e-01) (2.232114e-04 1.563401e-05 1.087436e-01)) ((8.642336e-08 -1.068775e-05 2.265377e-08) (1.444357e-06 -1.272701e-05 3.104296e-07))
0.977628      	((1.219435e-02 -1.090758e-03 -4.996288e-01) (2.232360e-04 1.564836e-05 1.087436e-01)) ((8.619948e-08 -1.068760e-05 2.265702e-08) (1.446258e-06 -1.272814e-05 3.111639e-07))
0.985387      	((1.219401e-02 -1.091108e-03 -4.996289e-01) (2.232635e-04 1.567317e-05 1.087435e-01)) ((8.600884e-08 -1.068748e-05 2.266033e-08) (1.449307e-06 -1.272984e-05 3.117739e-07))
0.993146      	((1.219402e-02 -1.091067e-03 -4.996288e-01) (2.232941e-04 1.570923e-05 1.087435e-01)) ((8.593100e-08 -1.068742e-05 2.266515e-08) (1.453506e-06 -1.273216e-05 3.122448e-07))
1.000905      	((1.219397e-02 -1.091091e-03 -4.996288e-01) (2.233280e-04 1.575653e-05 1.087434e-01)) ((8.596139e-08 -1.068745e-05 2.267309e-08) (1.458830e-06 -1.273508e-05 3.125735e-07))
1.008664      	((1.219403e-02 -1.090992e-03 -4.996287e-01) (2.233660e-04 1.581564e-05 1.087432e-01)) ((8.609392e-08 -1.068754e-05 2.268168e-08) (1.465277e-06 -1.273865e-05 3.127639e-07))
1.016424      	((1.219403e-02 -1.090962e-03 -4.996287e-01) (2.234087e-04 1.588674e-05 1.087431e-01)) ((8.629484e-08 -1.068771e-05 2.268946e-08) (1.472832e-06 -1.274289e-05 3.128223e-07))
1.024183      	((1.219411e-02 -1.090808e-03 -4.996287e-01) (2.234563e-04 1.596983e-05 1.087429e-01)) ((8.656487e-08 -1.068793e-05 2.270281e-08) (1.481455e-06 -1.274778e-05 3.127641e-07))
1.031942      	((1.219418e-02 -1.090633e-03 -4.996288e-01) (2.235089e-04 1.606409e-05 1.087427e-01)) ((8.688535e-08 -1.068818e-05 2.271706e-08) (1.491064e-06 -1.275328e-05 3.126147e-07))
1.039701      	((1.219429e-02 -1.090399e-03 -4.996288e-01) (2.235666e-04 1.616837e-05 1.087425e-01)) ((8.725016e-08 -1.068847e-05 2.273306e-08) (1.501580e-06 -1.275937e-05 3.124012e-07))
1.04746       	((1.219441e-02 -1.090140e-03 -4.996289e-01) (2.236292e-04 1.628142e-05 1.087423e-01)) ((8.764735e-08 -1.068879e-05 2.275136e-08) (1.512889e-06 -1.276595e-05 3.121475e-07))
1.055219      	((1.219457e-02 -1.089844e-03 -4.996291e-01) (2.236959e-04 1.640171e-05 1.087420e-01)) ((8.807959e-08 -1.068914e-05 2.277143e-08) (1.524863e-06 -1.277295e-05 3.118706e-07))
1.062978      	((1.219473e-02 -1.089536e-03 -4.996292e-01) (2.237659e-04 1.652771e-05 1.087418e-01)) ((8.854301e-08 -1.068951e-05 2.279340e-08) (1.537374e-06 -1.278028e-05 3.115767e-07))
1.070738      	((1.219490e-02 -1.089205e-03 -4.996294e-01) (2.238378e-04 1.665779e-05 1.087415e-01)) ((8.903214e-08 -1.068991e-05 2.281677e-08) (1.550276e-06 -1.278784e-05 3.112635e-07))
1.078497      	((1.219508e-02 -1.088860e-03 -4.996296e-01) (2.239106e-04 1.679035e-05 1.087413e-01)) ((8.952325e-08 -1.069030e-05 2.284152e-08) (1.563417e-06 -1.279553e-05 3.109282e-07))
1.086256      	((1.219530e-02 -1.088485e-03 -4.996297e-01) (2.239835e-04 1.692389e-05 1.087410e-01)) ((9.001792e-08 -1.069068e-05 2.286959e-08) (1.576653e-06 -1.280326e-05 3.105697e-07))
1.094015      	((1.219554e-02 -1.088091e-03 -4.996299e-01) (2.240554e-04 1.705682e-05 1.087408e-01)) ((9.052324e-08 -1.069108e-05 2.289906e-08) (1.589827e-06 -1.281095e-05 3.101852e-07))
1.101774      	((1.219579e-02 -1.087683e-03 -4.996301e-01) (2.241250e-04 1.718735e-05 1.087405e-01)) ((9.103797e-08 -1.069147e-05 2.292884e-08) (1.602764e-06 -1.281849e-05 3.097699e-07))
1.109533      	((1.219603e-02 -1.087294e-03 -4.996303e-01) (2.241913e-04 1.731378e-05 1.087403e-01)) ((9.155115e-08 -1.069185e-05 2.295658e-08) (1.615294e-06 -1.282579e-05 3.093181e-07))
1.117292      	((1.219628e-02 -1.086908e-03 -4.996305e-01) (2.242532e-04 1.743476e-05 1.087400e-01)) ((9.206893e-08 -1.069223e-05 2.298210e-08) (1.627273e-06 -1.283275e-05 3.088189e-07))
1.125051      	((1.219652e-02 -1.086529e-03 -4.996307e-01) (2.243100e-04 1.754968e-05 1.087398e-01)) ((9.257869e-08 -1.069260e-05 2.300565e-08) (1.638608e-06 -1.283932e-05 3.082612e-07))
1.132811      	((1.219676e-02 -1.086157e-03 -4.996309e-01) (2.243617e-04 1.765849e-05 1.087396e-01)) ((9.307689e-08 -1.069295e-05 2.302688e-08) (1.649228e-06 -1.284547e-05 3.076378e-07))
1.14057       	((1.219699e-02 -1.085793e-03 -4.996311e-01) (2.244068e-04 1.775816e-05 1.087394e-01)) ((9.355920e-08 -1.069328e-05 2.304643e-08) (1.658893e-06 -1.285105e-05 3.069589e-07))
1.148329      	((1.219723e-02 -1.085421e-03 -4.996313e-01) (2.244438e-04 1.784600e-05 1.087392e-01)) ((9.400610e-08 -1.069358e-05 2.306348e-08) (1.667399e-06 -1.285594e-05 3.062412e-07))
1.156088      	((1.219743e-02 -1.085122e-03 -4.996315e-01) (2.244725e-04 1.792082e-05 1.087391e-01)) ((9.440249e-08 -1.069384e-05 2.307786e-08) (1.674620e-06 -1.286008e-05 3.054975e-07))
1.163847      	((1.219762e-02 -1.084846e-03 -4.996317e-01) (2.244923e-04 1.798140e-05 1.087390e-01)) ((9.474862e-08 -1.069407e-05 2.308994e-08) (1.680431e-06 -1.286340e-05 3.047424e-07))
1.171606      	((1.219777e-02 -1.084628e-03 -4.996319e-01) (2.245029e-04 1.802810e-05 1.087389e-01)) ((9.504096e-08 -1.069425e-05 2.309913e-08) (1.684889e-06 -1.286590e-05 3.039607e-07))
1.179365      	((1.219788e-02 -1.084471e-03 -4.996321e-01) (2.245045e-04 1.806204e-05 1.087388e-01)) ((9.525947e-08 -1.069437e-05 2.310440e-08) (1.687991e-06 -1.286758e-05 3.031329e-07))
1.187125      	((1.219798e-02 -1.084340e-03 -4.996323e-01) (2.244969e-04 1.808204e-05 1.087388e-01)) ((9.542468e-08 -1.069445e-05 2.310623e-08) (1.689591e-06 -1.286834e-05 3.022761e-07))
1.194884      	((1.219805e-02 -1.084244e-03 -4.996324e-01) (2.244796e-04 1.808643e-05 1.087388e-01)) ((9.553417e-08 -1.069449e-05 2.310366e-08) (1.689601e-06 -1.286815e-05 3.014173e-07))
1.202643      	((1.219809e-02 -1.084189e-03 -4.996326e-01) (2.244526e-04 1.807416e-05 1.087389e-01)) ((9.558302e-08 -1.069448e-05 2.309705e-08) (1.687956e-06 -1.286698e-05 3.005773e-07))
1.210402      	((1.219810e-02 -1.084177e-03 -4.996327e-01) (2.244159e-04 1.804458e-05 1.087389e-01)) ((9.556887e-08 -1.069442e-05 2.308681e-08) (1.684621e-06 -1.286482e-05 2.997762e-07))
1.218161      	((1.219808e-02 -1.084214e-03 -4.996328e-01) (2.243697e-04 1.799770e-05 1.087390e-01)) ((9.548844e-08 -1.069431e-05 2.307309e-08) (1.679617e-06 -1.286169e-05 2.990322e-07))