# Forces      
# CofR        : (0.000000e+00 0.000000e+00 0.000000e+00)
# Time        forces(pressure viscous)	moments(pressure viscous)
0             	((0.000000e+00 0.000000e+00 0.000000e+00) (0.000000e+00 0.000000e+00 0.000000e+00)) ((0.000000e+00 0.000000e+00 0.000000e+00) (0.000000e+00 0.000000e+00 0.000000e+00))
0.012         	((6.744067e-08 -2.550978e-12 2.126649e-08) (1.664438e-07 -7.041033e-16 1.507429e-11)) ((1.097090e-15 -1.081473e-11 8.739285e-16) (1.244075e-16 -1.107636e-08 4.818377e-17))
0.0264        	((1.001673e-07 -5.682499e-11 3.358510e-08) (1.524645e-07 -1.451433e-14 9.080812e-12)) ((6.152272e-16 5.575593e-12 2.156041e-16) (4.675783e-16 -1.015698e-08 -2.993533e-16))
0.04368       	((6.361006e-08 3.397359e-11 2.032207e-08) (1.380382e-07 1.726956e-14 -2.113068e-13)) ((1.307182e-15 3.965771e-12 6.342809e-16) (1.349242e-15 -9.211111e-09 -1.459170e-15))
0.064416      	((7.551705e-08 -4.119412e-11 2.501508e-08) (1.234825e-07 2.834344e-14 -6.678991e-12)) ((7.683444e-16 7.714220e-12 -9.323337e-17) (2.661938e-15 -8.260017e-09 -1.956700e-15))
0.0892992     	((5.391858e-08 1.799941e-11 1.754284e-08) (1.092108e-07 2.753148e-14 -7.839364e-12)) ((3.818923e-16 5.475960e-12 4.666606e-16) (4.528957e-15 -7.330844e-09 -9.611307e-16))
0.119159      	((5.674748e-08 -2.006669e-11 1.834498e-08) (9.567999e-08 2.626858e-15 -6.309660e-12)) ((5.301484e-16 6.678332e-12 1.208970e-17) (4.020793e-15 -6.453994e-09 3.942374e-16))
0.154991      	((4.199535e-08 1.032780e-11 1.393333e-08) (8.331454e-08 -9.081801e-15 -6.122108e-12)) ((-1.652774e-16 4.653215e-12 4.030539e-17) (4.102368e-15 -5.647957e-09 2.557145e-15))
0.197989      	((4.204486e-08 -7.669870e-12 1.339296e-08) (7.237094e-08 -1.346843e-14 -5.617618e-12)) ((-2.384041e-16 5.248725e-12 -5.248174e-17) (4.021973e-15 -4.933926e-09 4.538469e-15))
0.249587      	((3.229035e-08 4.136460e-12 1.076258e-08) (6.304361e-08 -2.284937e-14 -4.610232e-12)) ((-1.731504e-16 3.746878e-12 2.270572e-17) (3.359412e-15 -4.320757e-09 5.568758e-15))
0.311504      	((3.162401e-08 -1.231214e-12 9.981279e-09) (5.529005e-08 -2.384084e-14 -3.952866e-12)) ((-4.287946e-16 4.135782e-12 3.767099e-17) (3.944700e-15 -3.808846e-09 5.548683e-15))
0.385805      	((2.531870e-08 7.461825e-13 8.439606e-09) (4.888502e-08 -1.747663e-14 -3.742567e-12)) ((-1.113585e-16 3.075043e-12 5.533359e-17) (3.700605e-15 -3.385509e-09 5.632093e-15))
0.474966      	((2.467335e-08 -8.962787e-13 7.770561e-09) (4.358816e-08 -2.001513e-14 -3.080938e-12)) ((-4.353766e-16 3.342192e-12 3.106695e-17) (3.304611e-15 -3.035996e-09 7.630642e-15))
0.581959      	((2.047479e-08 -1.655754e-13 6.809398e-09) (3.913033e-08 -3.349734e-14 -2.590650e-12)) ((-7.319799e-17 2.575699e-12 -4.541797e-17) (-2.771828e-16 -2.741608e-09 5.967342e-15))
0.710351      	((1.989722e-08 6.441756e-13 6.251736e-09) (3.530171e-08 -1.822086e-14 -3.129918e-12)) ((-5.956553e-16 2.774269e-12 -7.113655e-17) (-1.927016e-15 -2.489650e-09 1.828061e-16))
0.864421      	((1.691420e-08 -1.011216e-12 5.607043e-09) (3.193562e-08 -5.580921e-15 -2.428931e-12)) ((-3.052158e-16 2.234770e-12 -8.976305e-17) (-2.145340e-15 -2.268314e-09 -4.762654e-16))
1.049306      	((1.629668e-08 -1.958488e-13 5.115982e-09) (2.893792e-08 9.405830e-15 -2.307493e-12)) ((-7.365561e-16 2.388186e-12 -7.965082e-17) (5.646881e-15 -2.072170e-09 3.473384e-15))
1.271167      	((1.400031e-08 -1.046055e-12 4.614228e-09) (2.623195e-08 -1.605359e-14 -1.715412e-12)) ((-5.115898e-16 2.013937e-12 -3.144073e-16) (1.324747e-14 -1.895314e-09 8.591026e-15))
1.5374        	((1.332013e-08 -1.262825e-12 4.191748e-09) (2.378987e-08 -4.125562e-14 -6.943390e-13)) ((-9.115559e-16 2.096249e-12 -4.564452e-16) (2.013306e-14 -1.735882e-09 1.212196e-14))
1.85688       	((1.153253e-08 -1.204723e-12 3.787713e-09) (2.158261e-08 -8.767544e-14 6.031653e-13)) ((-8.895841e-16 1.817335e-12 -4.268190e-16) (2.779331e-14 -1.592028e-09 1.210780e-14))
2.240256      	((1.082176e-08 -9.939087e-13 3.434461e-09) (1.960077e-08 -1.040506e-13 1.172022e-12)) ((-1.187883e-15 1.844520e-12 -3.751121e-16) (3.980547e-14 -1.462782e-09 9.556167e-15))
2.700307      	((9.483168e-09 -7.777455e-13 3.123510e-09) (1.784572e-08 -6.358234e-14 9.035016e-13)) ((-1.012145e-15 1.646237e-12 -4.182957e-16) (6.154825e-14 -1.348464e-09 -8.175953e-16))
3.252369      	((8.834888e-09 -1.906618e-12 2.841662e-09) (1.629521e-08 -3.730359e-14 7.371295e-14)) ((-1.166857e-15 1.652020e-12 -4.032433e-16) (8.454818e-14 -1.247322e-09 -2.611872e-14))
3.914842      	((7.872962e-09 1.574304e-13 2.598474e-09) (1.493353e-08 5.424874e-14 -7.253685e-13)) ((-9.500225e-16 1.537934e-12 -4.738679e-16) (1.046391e-13 -1.158776e-09 -5.989268e-14))
4.709811      	((7.289693e-09 3.607410e-14 2.375380e-09) (1.373549e-08 6.450938e-14 -6.747761e-13)) ((-7.835780e-16 1.526501e-12 -6.558369e-16) (1.146231e-13 -1.081019e-09 -8.684828e-14))
5.663773      	((6.590760e-09 1.207315e-13 2.185249e-09) (1.267178e-08 -8.104849e-15 4.062688e-13)) ((-4.893142e-16 1.452489e-12 -7.480281e-16) (1.114315e-13 -1.012144e-09 -1.030757e-13))
6.808528      	((6.079307e-09 -1.683459e-12 2.004835e-09) (1.171730e-08 -1.528873e-13 1.499635e-12)) ((-7.938879e-16 1.422314e-12 -7.982431e-16) (1.039347e-13 -9.505011e-10 -1.060557e-13))
8.182233      	((5.540324e-09 -1.784441e-12 1.848892e-09) (1.085170e-08 -2.799748e-13 2.907164e-12)) ((-6.263209e-16 1.374027e-12 -7.433178e-16) (1.011320e-13 -8.949246e-10 -1.027226e-13))
9.83068       	((5.079322e-09 -1.925142e-12 1.700757e-09) (1.005970e-08 -3.563863e-13 4.062297e-12)) ((-7.763767e-16 1.340651e-12 -6.814632e-16) (9.945660e-14 -8.443596e-10 -9.824877e-14))
11.808816     	((4.646128e-09 -1.311745e-12 1.571790e-09) (9.333155e-09 -3.645437e-13 3.853364e-12)) ((-4.683676e-16 1.305516e-12 -5.958357e-16) (9.016169e-14 -7.982711e-10 -8.860723e-14))
14.182579     	((4.265782e-09 -1.228987e-12 1.450527e-09) (8.665956e-09 -4.534692e-13 2.770812e-12)) ((-4.694854e-16 1.272031e-12 -5.117288e-16) (7.452004e-14 -7.561707e-10 -7.562270e-14))
17.031095     	((3.910623e-09 -1.290504e-12 1.338440e-09) (8.052584e-09 -5.715405e-13 1.536291e-12)) ((-3.340025e-16 1.245079e-12 -4.516702e-16) (5.984119e-14 -7.178103e-10 -5.887332e-14))
20.449314     	((3.592692e-09 -1.484079e-12 1.232847e-09) (7.490143e-09 -6.598729e-13 9.648921e-13)) ((-3.737621e-16 1.217980e-12 -3.614686e-16) (4.581240e-14 -6.829091e-10 -3.841511e-14))
24.551176     	((3.295538e-09 -1.016411e-12 1.135584e-09) (6.975004e-09 -7.295174e-13 6.440976e-13)) ((-3.152500e-16 1.198511e-12 -2.803944e-16) (3.382598e-14 -6.511821e-10 -2.127405e-14))
29.473411     	((3.027354e-09 -8.372966e-13 1.047167e-09) (6.504256e-09 -7.433078e-13 3.405726e-13)) ((-3.363126e-16 1.179538e-12 -2.256717e-16) (2.572342e-14 -6.223796e-10 -7.602398e-15))
35.380094     	((2.779163e-09 -8.176373e-13 9.684242e-10) (6.074480e-09 -7.671854e-13 3.592065e-13)) ((-3.173482e-16 1.164644e-12 -1.914562e-16) (2.183376e-14 -5.962299e-10 1.512912e-15))
42.468112     	((2.555986e-09 -8.468822e-13 8.983064e-10) (5.681637e-09 -7.660127e-13 5.487102e-13)) ((-3.342376e-16 1.150457e-12 -1.480212e-16) (2.101448e-14 -5.724385e-10 4.031615e-15))
50.973735     	((2.349181e-09 -9.374234e-13 8.354609e-10) (5.322515e-09 -7.673853e-13 8.678384e-13)) ((-3.078271e-16 1.138654e-12 -9.972738e-17) (2.017782e-14 -5.507856e-10 4.778570e-15))
61.180482     	((2.161425e-09 -8.166943e-13 7.763094e-10) (4.994563e-09 -7.435427e-13 1.252618e-12)) ((-2.881345e-16 1.127779e-12 -6.112404e-17) (2.100857e-14 -5.311240e-10 3.123742e-15))
73.428578     	((1.990424e-09 -3.571182e-13 7.251563e-10) (4.695609e-09 -6.442917e-13 1.021400e-12)) ((-3.108862e-16 1.118827e-12 -6.421547e-17) (2.251661e-14 -5.133324e-10 2.170624e-15))
88.126294     	((1.834907e-09 -3.189374e-13 6.782726e-10) (4.423689e-09 -5.757940e-13 6.310190e-13)) ((-2.640210e-16 1.110971e-12 -7.132246e-17) (2.553021e-14 -4.972747e-10 3.795889e-16))
105.763553    	((1.699397e-09 -6.805846e-14 6.375384e-10) (4.177199e-09 -4.765035e-13 3.057808e-13)) ((-2.433093e-16 1.104602e-12 -8.868629e-17) (2.849242e-14 -4.828277e-10 1.444433e-15))
126.928263    	((1.576190e-09 9.448000e-14 5.994343e-10) (3.954210e-09 -4.021976e-13 5.886383e-14)) ((-2.401354e-16 1.099099e-12 -1.037945e-16) (3.132589e-14 -4.698731e-10 4.876383e-16))
152.325916    	((1.467239e-09 1.952402e-13 5.606667e-10) (3.752685e-09 -3.543884e-13 3.062907e-14)) ((-2.240003e-16 1.094604e-12 -1.163300e-16) (3.336613e-14 -4.582687e-10 -1.795204e-15))
182.803099    	((1.370380e-09 1.990282e-13 5.260659e-10) (3.570890e-09 -3.243854e-13 -8.484362e-14)) ((-2.176575e-16 1.090725e-12 -1.204124e-16) (3.568952e-14 -4.478861e-10 -4.241687e-15))
219.375719    	((1.284634e-09 2.114739e-13 4.988426e-10) (3.406964e-09 -2.869978e-13 -2.598134e-13)) ((-2.087664e-16 1.087511e-12 -1.214108e-16) (3.651641e-14 -4.386056e-10 -6.362561e-15))
263.262863    	((1.208368e-09 2.596374e-13 4.747781e-10) (3.259275e-09 -2.427070e-13 -5.335494e-13)) ((-1.971302e-16 1.084944e-12 -1.288070e-16) (3.632330e-14 -4.303166e-10 -7.323244e-15))
315.927436    	((1.141730e-09 2.796069e-13 4.533618e-10) (3.126453e-09 -2.310680e-13 -9.820229e-13)) ((-1.888726e-16 1.082854e-12 -1.236996e-16) (3.446222e-14 -4.229289e-10 -6.633489e-15))
379.124923    	((1.083459e-09 3.145405e-13 4.350003e-10) (3.007382e-09 -2.058665e-13 -1.595979e-12)) ((-1.952936e-16 1.081139e-12 -1.128455e-16) (3.258079e-14 -4.163712e-10 -5.270770e-15))
454.961908    	((1.033587e-09 3.475320e-13 4.197256e-10) (2.901272e-09 -1.790500e-13 -2.280594e-12)) ((-1.959815e-16 1.079827e-12 -1.089889e-16) (3.156592e-14 -4.105837e-10 -3.391506e-15))
545.966289    	((9.911759e-10 3.472155e-13 4.068132e-10) (2.807415e-09 -1.599266e-13 -2.941723e-12)) ((-1.942670e-16 1.078830e-12 -1.082850e-16) (3.106556e-14 -4.055150e-10 -1.663887e-15))
655.171547    	((9.558599e-10 3.880033e-13 3.966018e-10) (2.725204e-09 -1.470726e-13 -3.541016e-12)) ((-1.931630e-16 1.078021e-12 -1.042429e-16) (3.052450e-14 -4.011139e-10 1.074475e-16))
786.217856    	((9.266041e-10 4.166670e-13 3.886022e-10) (2.654049e-09 -1.358764e-13 -4.081657e-12)) ((-1.839679e-16 1.077329e-12 -1.050972e-16) (2.995230e-14 -3.973328e-10 1.869493e-15))
943.473427    	((9.027346e-10 4.271241e-13 3.823355e-10) (2.593278e-09 -1.229285e-13 -4.617493e-12)) ((-1.828568e-16 1.076701e-12 -1.053123e-16) (2.944884e-14 -3.941206e-10 3.574846e-15))
1132.180113   	((8.833819e-10 4.147463e-13 3.774989e-10) (2.542165e-09 -1.133488e-13 -5.222533e-12)) ((-1.819782e-16 1.076187e-12 -1.052941e-16) (2.892471e-14 -3.914257e-10 5.348559e-15))
1358.628135   	((8.678244e-10 3.982478e-13 3.738362e-10) (2.499867e-09 -1.040061e-13 -5.851245e-12)) ((-1.822125e-16 1.075788e-12 -1.052426e-16) (2.869329e-14 -3.891968e-10 7.128737e-15))
1630.365763   	((8.554776e-10 3.852941e-13 3.710185e-10) (2.465423e-09 -9.736916e-14 -6.463990e-12)) ((-1.807394e-16 1.075475e-12 -1.042969e-16) (2.850132e-14 -3.873784e-10 8.757454e-15))
1956.450915   	((8.457476e-10 3.823931e-13 3.689096e-10) (2.437823e-09 -9.201852e-14 -7.037138e-12)) ((-1.790003e-16 1.075223e-12 -1.036762e-16) (2.834079e-14 -3.859146e-10 1.014410e-14))
2347.753098   	((8.381703e-10 3.820016e-13 3.672962e-10) (2.416048e-09 -8.597236e-14 -7.560540e-12)) ((-1.780256e-16 1.075024e-12 -1.034588e-16) (2.820991e-14 -3.847511e-10 1.131776e-14))
2817.315718   	((8.323026e-10 3.794725e-13 3.660588e-10) (2.399122e-09 -8.084170e-14 -8.018679e-12)) ((-1.770710e-16 1.074868e-12 -1.033588e-16) (2.805544e-14 -3.838371e-10 1.230143e-14))
3380.790861   	((8.277896e-10 3.782254e-13 3.650787e-10) (2.386144e-09 -7.681570e-14 -8.403222e-12)) ((-1.761400e-16 1.074747e-12 -1.032419e-16) (2.789389e-14 -3.831267e-10 1.309345e-14))
4056.961033   	((8.243450e-10 3.802564e-13 3.643066e-10) (2.376312e-09 -7.372759e-14 -8.718142e-12)) ((-1.754276e-16 1.074651e-12 -1.037157e-16) (2.775418e-14 -3.825791e-10 1.368011e-14))
4868.36524    	((8.217346e-10 3.831443e-13 3.637235e-10) (2.368945e-09 -7.116736e-14 -8.971358e-12)) ((-1.745924e-16 1.074573e-12 -1.039829e-16) (2.763857e-14 -3.821603e-10 1.410790e-14))
5842.050288   	((8.197587e-10 3.847539e-13 3.632832e-10) (2.363478e-09 -6.911465e-14 -9.170712e-12)) ((-1.738860e-16 1.074510e-12 -1.039244e-16) (2.753391e-14 -3.818419e-10 1.441501e-14))
7010.472346   	((8.182637e-10 3.870299e-13 3.629435e-10) (2.359458e-09 -6.762248e-14 -9.324861e-12)) ((-1.734030e-16 1.074458e-12 -1.037908e-16) (2.744604e-14 -3.816011e-10 1.464257e-14))
8412.578815   	((8.171363e-10 3.892624e-13 3.626835e-10) (2.356524e-09 -6.660597e-14 -9.441297e-12)) ((-1.731936e-16 1.074416e-12 -1.036734e-16) (2.737334e-14 -3.814196e-10 1.481263e-14))
10095.106578  	((8.162809e-10 3.922349e-13 3.624696e-10) (2.354399e-09 -6.578514e-14 -9.527572e-12)) ((-1.730324e-16 1.074381e-12 -1.036593e-16) (2.731893e-14 -3.812832e-10 1.494912e-14))
12114.139893  	((8.156350e-10 3.973415e-13 3.623226e-10) (2.352869e-09 -6.512148e-14 -9.590550e-12)) ((-1.726854e-16 1.074352e-12 -1.035701e-16) (2.727451e-14 -3.811809e-10 1.504829e-14))
14478.983387  	((8.151479e-10 3.995928e-13 3.622109e-10) (2.351775e-09 -6.458077e-14 -9.636210e-12)) ((-1.724534e-16 1.074330e-12 -1.034974e-16) (2.724442e-14 -3.811042e-10 1.513664e-14))
17189.635846  	((8.147796e-10 4.033907e-13 3.621267e-10) (2.350997e-09 -6.421581e-14 -9.668715e-12)) ((-1.722712e-16 1.074313e-12 -1.034497e-16) (2.722006e-14 -3.810469e-10 1.520502e-14))
20246.096413  	((8.144990e-10 4.056899e-13 3.620673e-10) (2.350446e-09 -6.392298e-14 -9.691523e-12)) ((-1.720903e-16 1.074301e-12 -1.034263e-16) (2.719955e-14 -3.810040e-10 1.525798e-14))
23648.36449   	((8.142854e-10 4.072159e-13 3.620249e-10) (2.350059e-09 -6.370731e-14 -9.707299e-12)) ((-1.719656e-16 1.074291e-12 -1.034040e-16) (2.718325e-14 -3.809719e-10 1.529909e-14))
27106.435392  	((8.141232e-10 4.072990e-13 3.620025e-10) (2.349789e-09 -6.356384e-14 -9.718033e-12)) ((-1.718959e-16 1.074289e-12 -1.033938e-16) (2.716919e-14 -3.809480e-10 1.533063e-14))
30564.503716  	((8.140011e-10 4.065050e-13 3.620013e-10) (2.349600e-09 -6.347893e-14 -9.725147e-12)) ((-1.718526e-16 1.074289e-12 -1.033760e-16) (2.715696e-14 -3.809300e-10 1.535424e-14))
34022.570673  	((8.139070e-10 4.059173e-13 3.620013e-10) (2.349470e-09 -6.341517e-14 -9.729818e-12)) ((-1.718268e-16 1.074289e-12 -1.033570e-16) (2.714700e-14 -3.809166e-10 1.537247e-14))
37480.636923  	((8.138338e-10 4.056076e-13 3.620027e-10) (2.349380e-09 -6.338222e-14 -9.732847e-12)) ((-1.718118e-16 1.074289e-12 -1.033424e-16) (2.713962e-14 -3.809064e-10 1.538443e-14))
40938.702814  	((8.137765e-10 4.056253e-13 3.620125e-10) (2.349319e-09 -6.336266e-14 -9.734633e-12)) ((-1.718270e-16 1.074290e-12 -1.033026e-16) (2.713354e-14 -3.808987e-10 1.539197e-14))
44396.768543  	((8.137317e-10 4.056227e-13 3.620238e-10) (2.349277e-09 -6.334343e-14 -9.735631e-12)) ((-1.718028e-16 1.074290e-12 -1.033029e-16) (2.712932e-14 -3.808929e-10 1.539903e-14))
47854.834221  	((8.136967e-10 4.058362e-13 3.620306e-10) (2.349249e-09 -6.332793e-14 -9.736313e-12)) ((-1.718128e-16 1.074290e-12 -1.032918e-16) (2.712621e-14 -3.808884e-10 1.540370e-14))
51312.899914  	((8.136693e-10 4.052758e-13 3.620386e-10) (2.349231e-09 -6.332986e-14 -9.736695e-12)) ((-1.718194e-16 1.074290e-12 -1.032847e-16) (2.712378e-14 -3.808850e-10 1.540754e-14))
54770.965655  	((8.136478e-10 4.049178e-13 3.620460e-10) (2.349219e-09 -6.333959e-14 -9.736886e-12)) ((-1.718272e-16 1.074291e-12 -1.032771e-16) (2.712184e-14 -3.808824e-10 1.541029e-14))
58229.031461  	((8.136306e-10 4.045762e-13 3.620545e-10) (2.349211e-09 -6.335148e-14 -9.736935e-12)) ((-1.718318e-16 1.074291e-12 -1.032700e-16) (2.712031e-14 -3.808804e-10 1.541220e-14))
61687.097337  	((8.136169e-10 4.041221e-13 3.620637e-10) (2.349207e-09 -6.335815e-14 -9.736830e-12)) ((-1.718365e-16 1.074291e-12 -1.032629e-16) (2.711970e-14 -3.808789e-10 1.541395e-14))
65145.163282  	((8.136059e-10 4.037018e-13 3.620729e-10) (2.349204e-09 -6.336530e-14 -9.736677e-12)) ((-1.718402e-16 1.074291e-12 -1.032548e-16) (2.711913e-14 -3.808777e-10 1.541525e-14))
68603.229291  	((8.135970e-10 4.033350e-13 3.620817e-10) (2.349203e-09 -6.337323e-14 -9.736505e-12)) ((-1.718408e-16 1.074291e-12 -1.032463e-16) (2.711862e-14 -3.808768e-10 1.541614e-14))
72061.295357  	((8.135899e-10 4.030118e-13 3.620903e-10) (2.349202e-09 -6.338085e-14 -9.736313e-12)) ((-1.718406e-16 1.074291e-12 -1.032385e-16) (2.711821e-14 -3.808761e-10 1.541663e-14))
75519.361473  	((8.135840e-10 4.027360e-13 3.620985e-10) (2.349202e-09 -6.338571e-14 -9.736113e-12)) ((-1.718389e-16 1.074291e-12 -1.032312e-16) (2.711794e-14 -3.808756e-10 1.541689e-14))
78977.427631  	((8.135791e-10 4.024783e-13 3.621062e-10) (2.349202e-09 -6.339407e-14 -9.735925e-12)) ((-1.718365e-16 1.074291e-12 -1.032240e-16) (2.711756e-14 -3.808751e-10 1.541704e-14))
82435.493825  	((8.135752e-10 4.022882e-13 3.621132e-10) (2.349202e-09 -6.340545e-14 -9.735819e-12)) ((-1.718370e-16 1.074291e-12 -1.032176e-16) (2.711676e-14 -3.808748e-10 1.541733e-14))
85893.560048  	((8.135718e-10 4.021100e-13 3.621202e-10) (2.349202e-09 -6.341562e-14 -9.735611e-12)) ((-1.718339e-16 1.074291e-12 -1.032119e-16) (2.711675e-14 -3.808745e-10 1.541716e-14))
89351.626296  	((8.135690e-10 4.019845e-13 3.621268e-10) (2.349203e-09 -6.342036e-14 -9.735434e-12)) ((-1.718304e-16 1.074291e-12 -1.032062e-16) (2.711673e-14 -3.808743e-10 1.541709e-14))
92809.692564  	((8.135666e-10 4.018830e-13 3.621329e-10) (2.349203e-09 -6.342197e-14 -9.735289e-12)) ((-1.718266e-16 1.074291e-12 -1.032007e-16) (2.711668e-14 -3.808742e-10 1.541707e-14))
96267.758849  	((8.135646e-10 4.018140e-13 3.621386e-10) (2.349203e-09 -6.342321e-14 -9.735149e-12)) ((-1.718233e-16 1.074291e-12 -1.031964e-16) (2.711660e-14 -3.808741e-10 1.541696e-14))
99725.825148  	((8.135629e-10 4.017769e-13 3.621439e-10) (2.349203e-09 -6.342729e-14 -9.735020e-12)) ((-1.718200e-16 1.074292e-12 -1.031923e-16) (2.711640e-14 -3.808740e-10 1.541680e-14))
103183.891457 	((8.135615e-10 4.017647e-13 3.621487e-10) (2.349204e-09 -6.342934e-14 -9.734899e-12)) ((-1.718164e-16 1.074292e-12 -1.031888e-16) (2.711628e-14 -3.808739e-10 1.541667e-14))
106641.957776 	((8.135603e-10 4.017690e-13 3.621531e-10) (2.349204e-09 -6.343032e-14 -9.734788e-12)) ((-1.718127e-16 1.074292e-12 -1.031856e-16) (2.711621e-14 -3.808738e-10 1.541655e-14))
110100.024101 	((8.135592e-10 4.017860e-13 3.621571e-10) (2.349204e-09 -6.343053e-14 -9.734687e-12)) ((-1.718089e-16 1.074292e-12 -1.031827e-16) (2.711616e-14 -3.808738e-10 1.541643e-14))
113558.090432 	((8.135583e-10 4.018062e-13 3.621607e-10) (2.349204e-09 -6.343046e-14 -9.734594e-12)) ((-1.718054e-16 1.074292e-12 -1.031801e-16) (2.711612e-14 -3.808737e-10 1.541631e-14))
117016.156768 	((8.135575e-10 4.018329e-13 3.621641e-10) (2.349204e-09 -6.343044e-14 -9.734509e-12)) ((-1.718018e-16 1.074292e-12 -1.031777e-16) (2.711608e-14 -3.808737e-10 1.541619e-14))
120474.223108 	((8.135568e-10 4.018655e-13 3.621671e-10) (2.349204e-09 -6.343197e-14 -9.734432e-12)) ((-1.717982e-16 1.074292e-12 -1.031755e-16) (2.711596e-14 -3.808737e-10 1.541607e-14))
123932.28945  	((8.135564e-10 4.023473e-13 3.621621e-10) (2.349204e-09 -6.344370e-14 -9.734526e-12)) ((-1.717735e-16 1.074292e-12 -1.031921e-16) (2.711613e-14 -3.808737e-10 1.541629e-14))
127390.355795 	((8.135559e-10 4.019476e-13 3.621668e-10) (2.349204e-09 -6.343891e-14 -9.734511e-12)) ((-1.718200e-16 1.074292e-12 -1.031636e-16) (2.711612e-14 -3.808737e-10 1.541480e-14))
130848.422142 	((8.135555e-10 4.019221e-13 3.621698e-10) (2.349205e-09 -6.344100e-14 -9.734435e-12)) ((-1.717980e-16 1.074292e-12 -1.031831e-16) (2.711595e-14 -3.808736e-10 1.541621e-14))
134306.48849  	((8.135552e-10 4.019349e-13 3.621724e-10) (2.349205e-09 -6.342790e-14 -9.734349e-12)) ((-1.717955e-16 1.074292e-12 -1.031787e-16) (2.711619e-14 -3.808736e-10 1.541676e-14))
137764.55484  	((8.135548e-10 4.019773e-13 3.621748e-10) (2.349205e-09 -6.342246e-14 -9.734275e-12)) ((-1.717922e-16 1.074292e-12 -1.031753e-16) (2.711629e-14 -3.808736e-10 1.541670e-14))
141222.62119  	((8.135547e-10 4.024623e-13 3.621689e-10) (2.349205e-09 -6.342675e-14 -9.734375e-12)) ((-1.717678e-16 1.074292e-12 -1.031908e-16) (2.711675e-14 -3.808736e-10 1.541683e-14))
144680.687541 	((8.135545e-10 4.020782e-13 3.621733e-10) (2.349205e-09 -6.342700e-14 -9.734367e-12)) ((-1.718139e-16 1.074292e-12 -1.031627e-16) (2.711662e-14 -3.808736e-10 1.541523e-14))
148138.753893 	((8.135543e-10 4.020559e-13 3.621756e-10) (2.349205e-09 -6.342739e-14 -9.734303e-12)) ((-1.717933e-16 1.074292e-12 -1.031810e-16) (2.711645e-14 -3.808736e-10 1.541651e-14))
151596.820246 	((8.135541e-10 4.020785e-13 3.621777e-10) (2.349205e-09 -6.341930e-14 -9.734225e-12)) ((-1.717900e-16 1.074292e-12 -1.031763e-16) (2.711640e-14 -3.808736e-10 1.541688e-14))
