# Forces      
# CofR        : (0.000000e+00 0.000000e+00 0.000000e+00)
# Time        forces(pressure viscous)	moments(pressure viscous)
0             	((0.000000e+00 0.000000e+00 0.000000e+00) (-1.901885e-14 5.025486e-05 4.198499e-15)) ((0.000000e+00 0.000000e+00 0.000000e+00) (1.129174e-06 -1.652307e-16 -2.438723e-11))
0.012         	((-1.565958e-08 1.461593e-02 3.645445e-03) (-9.761145e-11 5.765757e-05 -2.912686e-08)) ((-1.723548e-07 1.242973e-08 -2.753479e-09) (1.664260e-06 -1.282891e-14 -5.006369e-11))
0.0264        	((-2.198230e-07 -1.035242e-03 -2.410366e-04) (-3.118780e-10 5.880213e-05 -4.330765e-08)) ((1.234839e-08 -7.881217e-10 1.797926e-10) (1.862787e-06 3.906526e-12 -6.544447e-11))
0.04368       	((3.201879e-07 -3.045334e-03 -3.381851e-04) (-1.167879e-10 5.223381e-05 -3.948748e-08)) ((3.966544e-08 -1.142579e-09 7.434652e-10) (1.659422e-06 -6.528754e-12 -5.535366e-11))
0.064416      	((-6.962667e-08 -2.861835e-05 -1.241310e-04) (1.005591e-09 4.625698e-05 -2.122739e-08)) ((-1.800171e-10 -3.995476e-10 -4.002433e-11) (1.490113e-06 -1.222946e-11 -6.408739e-11))
0.0892992     	((-7.709878e-09 3.831194e-05 -7.548699e-05) (1.262032e-09 4.270012e-05 -1.875297e-08)) ((-1.570727e-09 -2.445991e-10 -4.344909e-11) (1.408736e-06 -9.849769e-13 -6.835992e-11))
0.119159      	((1.356519e-08 -4.656197e-05 -4.810662e-05) (8.165888e-10 3.942709e-05 -3.039066e-08)) ((8.601743e-10 -1.445081e-10 1.312227e-11) (1.318473e-06 6.440250e-12 -5.527804e-11))
0.154991      	((-2.210424e-08 -2.467438e-05 -3.157434e-05) (6.331941e-10 3.596626e-05 -3.589172e-08)) ((5.325826e-10 -8.743700e-11 -1.030019e-12) (1.218270e-06 2.245814e-12 -3.497125e-11))
0.197989      	((2.437811e-09 -5.928917e-06 -2.083440e-05) (4.040976e-10 3.248615e-05 -4.325329e-08)) ((1.981589e-10 -4.915260e-11 -1.958291e-12) (1.116502e-06 -9.171267e-12 -2.055995e-11))
0.249587      	((-1.657922e-09 8.784209e-07 -1.427014e-05) (2.225276e-10 2.908656e-05 -5.340215e-08)) ((6.654844e-11 -2.722522e-11 -3.078509e-12) (1.015062e-06 -1.837073e-11 -8.855318e-12))
0.311504      	((-3.626089e-09 3.950247e-06 -1.011183e-05) (5.209781e-11 2.587215e-05 -6.522241e-08)) ((2.105714e-11 -1.411079e-11 -2.513491e-12) (9.160609e-07 -2.157496e-11 1.228087e-11))
0.385805      	((-7.558990e-10 5.459493e-06 -7.515342e-06) (-7.098594e-11 2.292617e-05 -7.762214e-08)) ((4.542246e-12 -5.738664e-12 -1.877857e-12) (8.219708e-07 -2.178000e-11 2.392610e-11))
0.474966      	((-1.023127e-09 6.233386e-06 -5.835822e-06) (-1.772142e-11 2.029713e-05 -8.987431e-08)) ((-8.577072e-12 -1.012647e-12 -1.656196e-12) (7.351589e-07 -1.972902e-11 2.926607e-11))
0.581959      	((-2.993665e-10 6.558160e-06 -4.812282e-06) (1.536851e-10 1.798971e-05 -1.021690e-07)) ((-1.853251e-11 1.777159e-12 -1.559078e-12) (6.566532e-07 -1.408727e-11 2.734726e-11))
0.710351      	((-4.447605e-10 6.542392e-06 -4.178754e-06) (2.993902e-10 1.599087e-05 -1.134841e-07)) ((-2.489288e-11 3.658433e-12 -1.298705e-12) (5.869331e-07 -9.398721e-12 1.988007e-11))
0.864421      	((-9.001425e-11 6.309620e-06 -3.818912e-06) (4.076894e-10 1.427558e-05 -1.228729e-07)) ((-2.789336e-11 4.740606e-12 -1.422513e-12) (5.259934e-07 -7.703527e-12 1.004428e-11))
1.049306      	((-8.803767e-11 5.963674e-06 -3.606458e-06) (4.491420e-10 1.280655e-05 -1.310117e-07)) ((-2.844160e-11 5.265750e-12 -1.438402e-12) (4.730517e-07 -6.736306e-12 -2.027401e-13))
1.271167      	((3.830153e-11 5.569759e-06 -3.496698e-06) (4.585801e-10 1.154386e-05 -1.393188e-07)) ((-2.751752e-11 5.454353e-12 -1.254182e-12) (4.269534e-07 -4.811648e-12 -9.601652e-12))
1.5374        	((1.118386e-10 5.157923e-06 -3.447665e-06) (4.343047e-10 1.044724e-05 -1.489225e-07)) ((-2.572299e-11 5.438376e-12 -1.151249e-12) (3.865626e-07 -1.893772e-12 -1.738660e-11))
1.85688       	((1.733221e-10 4.753296e-06 -3.439021e-06) (3.599306e-10 9.482119e-06 -1.602754e-07)) ((-2.352508e-11 5.267110e-12 -1.093988e-12) (3.508885e-07 5.365886e-13 -2.240001e-11))
2.240256      	((1.787603e-10 4.371172e-06 -3.451163e-06) (2.342161e-10 8.624855e-06 -1.730267e-07)) ((-2.183415e-11 5.087083e-12 -1.073408e-12) (3.191679e-07 2.331961e-12 -2.523542e-11))
2.700307      	((1.580071e-10 4.016879e-06 -3.476253e-06) (1.053271e-10 7.859194e-06 -1.867422e-07)) ((-2.035507e-11 4.841057e-12 -1.080570e-12) (2.908285e-07 3.079477e-12 -2.590485e-11))
3.252369      	((3.235903e-11 3.690120e-06 -3.503054e-06) (5.037268e-11 7.172782e-06 -2.014595e-07)) ((-1.896858e-11 4.518644e-12 -1.074827e-12) (2.654187e-07 2.829818e-12 -2.475642e-11))
3.914842      	((-8.989129e-11 3.388671e-06 -3.531614e-06) (1.579977e-11 6.556085e-06 -2.174374e-07)) ((-1.759383e-11 4.185258e-12 -9.911188e-13) (2.425840e-07 3.335644e-12 -2.331623e-11))
4.709811      	((-9.324536e-11 3.113302e-06 -3.556393e-06) (2.856705e-11 6.002175e-06 -2.345640e-07)) ((-1.643338e-11 3.913447e-12 -8.659586e-13) (2.220676e-07 3.811612e-12 -2.383141e-11))
5.663773      	((-1.782201e-10 2.864998e-06 -3.577546e-06) (5.808179e-11 5.505754e-06 -2.526292e-07)) ((-1.559882e-11 3.629080e-12 -7.581543e-13) (2.036756e-07 3.154944e-12 -2.475968e-11))
6.808528      	((-2.817150e-10 2.643136e-06 -3.591509e-06) (2.289958e-11 5.061772e-06 -2.716282e-07)) ((-1.505876e-11 3.367182e-12 -6.691420e-13) (1.872235e-07 2.657971e-12 -2.522934e-11))
8.182233      	((-3.943190e-10 2.446349e-06 -3.597793e-06) (-7.814367e-13 4.664900e-06 -2.916773e-07)) ((-1.472282e-11 3.139219e-12 -6.039760e-13) (1.725164e-07 2.836789e-12 -2.423624e-11))
9.83068       	((-5.950931e-10 2.274158e-06 -3.596862e-06) (-4.607470e-11 4.309681e-06 -3.129157e-07)) ((-1.456768e-11 2.930115e-12 -5.786002e-13) (1.593521e-07 3.265217e-12 -2.094351e-11))
11.808816     	((-6.131264e-10 2.125676e-06 -3.590345e-06) (-1.041004e-10 3.990927e-06 -3.353487e-07)) ((-1.458203e-11 2.727911e-12 -5.827864e-13) (1.475367e-07 3.836915e-12 -1.703134e-11))
14.182579     	((-6.605866e-10 2.000444e-06 -3.578608e-06) (-1.339412e-10 3.704453e-06 -3.588705e-07)) ((-1.478846e-11 2.532266e-12 -5.991394e-13) (1.369151e-07 4.933919e-12 -1.223767e-11))
17.031095     	((-5.804651e-10 1.896351e-06 -3.561668e-06) (-1.462585e-10 3.447166e-06 -3.833756e-07)) ((-1.516761e-11 2.335183e-12 -6.313199e-13) (1.273708e-07 6.184796e-12 -5.825290e-12))
20.449314     	((-5.243735e-10 1.813691e-06 -3.539879e-06) (-1.551209e-10 3.216755e-06 -4.086683e-07)) ((-1.578435e-11 2.135738e-12 -6.755652e-13) (1.188180e-07 7.812555e-12 3.425289e-13))
24.551176     	((-3.779585e-10 1.751731e-06 -3.513561e-06) (-1.670989e-10 3.011414e-06 -4.343800e-07)) ((-1.664762e-11 1.943156e-12 -7.404145e-13) (1.111924e-07 9.111505e-12 5.848959e-12))
29.473411     	((-1.785488e-10 1.709755e-06 -3.481391e-06) (-1.684398e-10 2.829690e-06 -4.600411e-07)) ((-1.774932e-11 1.780628e-12 -8.292490e-13) (1.044451e-07 9.217100e-12 1.063540e-11))
35.380094     	((8.714107e-12 1.686689e-06 -3.444857e-06) (-1.569350e-10 2.670249e-06 -4.851693e-07)) ((-1.907119e-11 1.622007e-12 -9.380465e-13) (9.853332e-08 8.364257e-12 1.392351e-11))
42.468112     	((3.304675e-10 1.681503e-06 -3.403718e-06) (-1.472683e-10 2.531812e-06 -5.092990e-07)) ((-2.064104e-11 1.478696e-12 -1.059131e-12) (9.341762e-08 5.884444e-12 1.745785e-11))
50.973735     	((7.440582e-10 1.693031e-06 -3.358590e-06) (-1.187426e-10 2.413176e-06 -5.320061e-07)) ((-2.250695e-11 1.341403e-12 -1.198911e-12) (8.906826e-08 1.623622e-12 2.320565e-11))
61.180482     	((1.225115e-09 1.718458e-06 -3.311097e-06) (-7.696900e-11 2.313301e-06 -5.530321e-07)) ((-2.459453e-11 1.207084e-12 -1.362383e-12) (8.545501e-08 -2.787861e-12 3.097142e-11))
73.428578     	((1.662594e-09 1.753668e-06 -3.259973e-06) (-2.381811e-11 2.231006e-06 -5.724256e-07)) ((-2.672584e-11 1.125337e-12 -1.534907e-12) (8.253042e-08 -7.829533e-12 3.889984e-11))
88.074887     	((2.175025e-09 1.794643e-06 -3.205905e-06) (5.395301e-11 2.164893e-06 -5.898172e-07)) ((-2.877174e-11 1.099609e-12 -1.692942e-12) (8.022820e-08 -1.370113e-11 4.585986e-11))
105.10322     	((2.695330e-09 1.836536e-06 -3.148353e-06) (1.475558e-10 2.113462e-06 -6.041740e-07)) ((-3.042802e-11 1.103463e-12 -1.847010e-12) (7.846099e-08 -1.990605e-11 5.071625e-11))
124.497634    	((3.202349e-09 1.871879e-06 -3.086772e-06) (2.496259e-10 2.073294e-06 -6.146658e-07)) ((-3.169090e-11 1.128004e-12 -1.942302e-12) (7.708451e-08 -2.577277e-11 5.373377e-11))
146.248615    	((3.687221e-09 1.897071e-06 -3.020514e-06) (3.427908e-10 2.041025e-06 -6.214556e-07)) ((-3.259710e-11 1.141116e-12 -2.011243e-12) (7.596714e-08 -3.115797e-11 5.504979e-11))
169.812023    	((4.110273e-09 1.912802e-06 -2.953149e-06) (4.548992e-10 2.014272e-06 -6.252004e-07)) ((-3.331501e-11 1.164640e-12 -2.062643e-12) (7.504341e-08 -3.621159e-11 5.504233e-11))
193.435492    	((4.500170e-09 1.922752e-06 -2.889933e-06) (5.779777e-10 1.992075e-06 -6.271516e-07)) ((-3.385149e-11 1.209875e-12 -2.114043e-12) (7.428577e-08 -4.123870e-11 5.443719e-11))
217.115992    	((4.727672e-09 1.927394e-06 -2.831722e-06) (7.046450e-10 1.973043e-06 -6.282889e-07)) ((-3.421529e-11 1.274768e-12 -2.160727e-12) (7.364662e-08 -4.578262e-11 5.337012e-11))
240.828201    	((4.852025e-09 1.929758e-06 -2.778073e-06) (8.219490e-10 1.956759e-06 -6.290790e-07)) ((-3.445870e-11 1.356865e-12 -2.197865e-12) (7.310673e-08 -4.958780e-11 5.226320e-11))
264.557383    	((4.896897e-09 1.930813e-06 -2.729278e-06) (9.238017e-10 1.942792e-06 -6.297496e-07)) ((-3.462256e-11 1.439916e-12 -2.225017e-12) (7.264629e-08 -5.244509e-11 5.069998e-11))
288.301559    	((4.839747e-09 1.931040e-06 -2.684501e-06) (9.999260e-10 1.930795e-06 -6.303519e-07)) ((-3.473989e-11 1.520910e-12 -2.246491e-12) (7.225226e-08 -5.416805e-11 4.899406e-11))
312.061253    	((4.708382e-09 1.930562e-06 -2.643881e-06) (1.053160e-09 1.920456e-06 -6.309196e-07)) ((-3.482001e-11 1.599505e-12 -2.264313e-12) (7.191384e-08 -5.491238e-11 4.708101e-11))
335.835243    	((4.545139e-09 1.929778e-06 -2.607076e-06) (1.086842e-09 1.911538e-06 -6.314593e-07)) ((-3.487553e-11 1.675742e-12 -2.280350e-12) (7.162283e-08 -5.494506e-11 4.487174e-11))
359.621567    	((4.355556e-09 1.928634e-06 -2.573648e-06) (1.108239e-09 1.903817e-06 -6.319910e-07)) ((-3.491105e-11 1.747193e-12 -2.294248e-12) (7.137107e-08 -5.438335e-11 4.243112e-11))
383.41862     	((4.155186e-09 1.927476e-06 -2.543103e-06) (1.115788e-09 1.897119e-06 -6.325093e-07)) ((-3.493546e-11 1.814387e-12 -2.306127e-12) (7.115282e-08 -5.336637e-11 3.994952e-11))
407.225145    	((3.949500e-09 1.926273e-06 -2.515113e-06) (1.112109e-09 1.891293e-06 -6.330034e-07)) ((-3.495179e-11 1.877244e-12 -2.315816e-12) (7.096313e-08 -5.209621e-11 3.744775e-11))
431.040032    	((3.723783e-09 1.925131e-06 -2.489337e-06) (1.100497e-09 1.886218e-06 -6.334645e-07)) ((-3.496430e-11 1.934737e-12 -2.324673e-12) (7.079814e-08 -5.054694e-11 3.495916e-11))
454.862304    	((3.503586e-09 1.924025e-06 -2.465657e-06) (1.080723e-09 1.881792e-06 -6.338837e-07)) ((-3.497415e-11 1.988923e-12 -2.332570e-12) (7.065461e-08 -4.875601e-11 3.263744e-11))
478.691117    	((3.296816e-09 1.922951e-06 -2.443962e-06) (1.056610e-09 1.877917e-06 -6.342666e-07)) ((-3.498080e-11 2.039625e-12 -2.339363e-12) (7.052926e-08 -4.683788e-11 3.045889e-11))
502.52573     	((3.067083e-09 1.921934e-06 -2.424189e-06) (1.026526e-09 1.874517e-06 -6.346160e-07)) ((-3.498567e-11 2.086713e-12 -2.345186e-12) (7.041946e-08 -4.472554e-11 2.843335e-11))
526.365487    	((2.851568e-09 1.921001e-06 -2.406193e-06) (9.924818e-10 1.871530e-06 -6.349318e-07)) ((-3.498926e-11 2.129833e-12 -2.350535e-12) (7.032314e-08 -4.252298e-11 2.651005e-11))
550.209802    	((2.640972e-09 1.920109e-06 -2.389773e-06) (9.572111e-10 1.868903e-06 -6.352178e-07)) ((-3.499135e-11 2.169364e-12 -2.355086e-12) (7.023843e-08 -4.029299e-11 2.469534e-11))
574.058165    	((2.444262e-09 1.919281e-06 -2.374810e-06) (9.204915e-10 1.866585e-06 -6.354741e-07)) ((-3.499288e-11 2.205618e-12 -2.359090e-12) (7.016379e-08 -3.807538e-11 2.299530e-11))
597.910131    	((2.255874e-09 1.918529e-06 -2.361207e-06) (8.830655e-10 1.864540e-06 -6.357029e-07)) ((-3.499388e-11 2.238767e-12 -2.362534e-12) (7.009799e-08 -3.588018e-11 2.141744e-11))
621.76531     	((2.081929e-09 1.917835e-06 -2.348851e-06) (8.461372e-10 1.862731e-06 -6.359055e-07)) ((-3.499468e-11 2.268985e-12 -2.365496e-12) (7.003993e-08 -3.373757e-11 1.996869e-11))
645.623354    	((1.919622e-09 1.917193e-06 -2.337635e-06) (8.096275e-10 1.861131e-06 -6.360855e-07)) ((-3.499498e-11 2.296700e-12 -2.368129e-12) (6.998860e-08 -3.166630e-11 1.864097e-11))
669.483959    	((1.769802e-09 1.916606e-06 -2.327458e-06) (7.742071e-10 1.859712e-06 -6.362449e-07)) ((-3.499536e-11 2.321963e-12 -2.370447e-12) (6.994315e-08 -2.969117e-11 1.741735e-11))
693.34685     	((1.631547e-09 1.916076e-06 -2.318243e-06) (7.403335e-10 1.858453e-06 -6.363851e-07)) ((-3.499578e-11 2.344947e-12 -2.372493e-12) (6.990292e-08 -2.782879e-11 1.629901e-11))
717.211782    	((1.507087e-09 1.915592e-06 -2.309893e-06) (7.086317e-10 1.857335e-06 -6.365084e-07)) ((-3.499609e-11 2.366007e-12 -2.374222e-12) (6.986724e-08 -2.609128e-11 1.528097e-11))
741.078537    	((1.392877e-09 1.915153e-06 -2.302334e-06) (6.789892e-10 1.856342e-06 -6.366168e-07)) ((-3.499634e-11 2.385239e-12 -2.375672e-12) (6.983556e-08 -2.447170e-11 1.435142e-11))
764.946924    	((1.287087e-09 1.914755e-06 -2.295498e-06) (6.507972e-10 1.855459e-06 -6.367119e-07)) ((-3.499667e-11 2.402674e-12 -2.376966e-12) (6.980741e-08 -2.295535e-11 1.350416e-11))
788.816768    	((1.192203e-09 1.914392e-06 -2.289316e-06) (6.247968e-10 1.854674e-06 -6.367951e-07)) ((-3.499698e-11 2.418492e-12 -2.378137e-12) (6.978238e-08 -2.154898e-11 1.273568e-11))
812.687917    	((1.107232e-09 1.914064e-06 -2.283728e-06) (6.009756e-10 1.853973e-06 -6.368673e-07)) ((-3.499741e-11 2.432847e-12 -2.379185e-12) (6.976012e-08 -2.026698e-11 1.204435e-11))
836.560131    	((1.028040e-09 1.913769e-06 -2.278689e-06) (5.790374e-10 1.853349e-06 -6.369302e-07)) ((-3.499782e-11 2.445742e-12 -2.380133e-12) (6.974029e-08 -1.908911e-11 1.141981e-11))
860.433157    	((9.581830e-10 1.913503e-06 -2.274138e-06) (5.590218e-10 1.852793e-06 -6.369850e-07)) ((-3.499829e-11 2.457437e-12 -2.380998e-12) (6.972263e-08 -1.801729e-11 1.085731e-11))
884.306906    	((8.929248e-10 1.913261e-06 -2.270027e-06) (5.406756e-10 1.852296e-06 -6.370327e-07)) ((-3.499873e-11 2.467974e-12 -2.381749e-12) (6.970689e-08 -1.703754e-11 1.035104e-11))
908.181301    	((8.353850e-10 1.913042e-06 -2.266326e-06) (5.239797e-10 1.851852e-06 -6.370741e-07)) ((-3.499913e-11 2.477467e-12 -2.382421e-12) (6.969285e-08 -1.614568e-11 9.894910e-12))
932.056271    	((7.823879e-10 1.912846e-06 -2.262987e-06) (5.088157e-10 1.851457e-06 -6.371102e-07)) ((-3.499955e-11 2.486004e-12 -2.383022e-12) (6.968032e-08 -1.533509e-11 9.482732e-12))
955.931757    	((7.344066e-10 1.912669e-06 -2.259981e-06) (4.950112e-10 1.851103e-06 -6.371416e-07)) ((-3.499993e-11 2.493681e-12 -2.383551e-12) (6.966914e-08 -1.459792e-11 9.108657e-12))
979.807702    	((6.909104e-10 1.912508e-06 -2.257274e-06) (4.824910e-10 1.850787e-06 -6.371689e-07)) ((-3.500033e-11 2.500605e-12 -2.384021e-12) (6.965915e-08 -1.392826e-11 8.768055e-12))
1003.684058   	((6.512622e-10 1.912363e-06 -2.254837e-06) (4.710612e-10 1.850504e-06 -6.371928e-07)) ((-3.500070e-11 2.506827e-12 -2.384445e-12) (6.965022e-08 -1.331871e-11 8.459072e-12))
1027.560782   	((6.153379e-10 1.912232e-06 -2.252643e-06) (4.606220e-10 1.850251e-06 -6.372136e-07)) ((-3.500108e-11 2.512419e-12 -2.384820e-12) (6.964224e-08 -1.276506e-11 8.180589e-12))
1051.437833   	((5.830447e-10 1.912117e-06 -2.250673e-06) (4.510716e-10 1.850024e-06 -6.372318e-07)) ((-3.500146e-11 2.517434e-12 -2.385158e-12) (6.963510e-08 -1.226365e-11 7.929782e-12))
1075.315178   	((5.533447e-10 1.912011e-06 -2.248896e-06) (4.423744e-10 1.849822e-06 -6.372476e-07)) ((-3.500182e-11 2.521946e-12 -2.385461e-12) (6.962872e-08 -1.180744e-11 7.703051e-12))
1099.192786   	((5.265922e-10 1.911915e-06 -2.247299e-06) (4.344898e-10 1.849641e-06 -6.372614e-07)) ((-3.500213e-11 2.526006e-12 -2.385734e-12) (6.962301e-08 -1.139315e-11 7.497664e-12))
1123.070628   	((5.019910e-10 1.911829e-06 -2.245861e-06) (4.273134e-10 1.849478e-06 -6.372734e-07)) ((-3.500245e-11 2.529649e-12 -2.385973e-12) (6.961790e-08 -1.101610e-11 7.311721e-12))
1146.94868    	((4.798245e-10 1.911752e-06 -2.244568e-06) (4.207890e-10 1.849333e-06 -6.372838e-07)) ((-3.500274e-11 2.532926e-12 -2.386192e-12) (6.961332e-08 -1.067370e-11 7.143869e-12))
1170.826919   	((4.596545e-10 1.911682e-06 -2.243406e-06) (4.148520e-10 1.849203e-06 -6.372929e-07)) ((-3.500301e-11 2.535861e-12 -2.386390e-12) (6.960923e-08 -1.036302e-11 6.992369e-12))
1194.705327   	((4.413980e-10 1.911620e-06 -2.242357e-06) (4.094606e-10 1.849086e-06 -6.373008e-07)) ((-3.500327e-11 2.538518e-12 -2.386566e-12) (6.960556e-08 -1.008107e-11 6.855550e-12))
1218.583884   	((4.248931e-10 1.911564e-06 -2.241419e-06) (4.045673e-10 1.848982e-06 -6.373078e-07)) ((-3.500351e-11 2.540885e-12 -2.386724e-12) (6.960227e-08 -9.825369e-12 6.731469e-12))
1242.462576   	((4.098973e-10 1.911513e-06 -2.240574e-06) (4.001242e-10 1.848888e-06 -6.373138e-07)) ((-3.500373e-11 2.543018e-12 -2.386866e-12) (6.959933e-08 -9.593475e-12 6.619105e-12))
1266.341389   	((3.966769e-10 1.911468e-06 -2.239817e-06) (3.961039e-10 1.848804e-06 -6.373191e-07)) ((-3.500395e-11 2.544930e-12 -2.386995e-12) (6.959669e-08 -9.383242e-12 6.517191e-12))
1290.220309   	((3.844871e-10 1.911427e-06 -2.239136e-06) (3.924689e-10 1.848729e-06 -6.373237e-07)) ((-3.500415e-11 2.546651e-12 -2.387113e-12) (6.959432e-08 -9.193132e-12 6.424970e-12))
1314.099326   	((3.733962e-10 1.911390e-06 -2.238525e-06) (3.891727e-10 1.848661e-06 -6.373277e-07)) ((-3.500433e-11 2.548189e-12 -2.387218e-12) (6.959221e-08 -9.021092e-12 6.342015e-12))
1337.978429   	((3.634591e-10 1.911357e-06 -2.237975e-06) (3.861854e-10 1.848601e-06 -6.373312e-07)) ((-3.500449e-11 2.549575e-12 -2.387314e-12) (6.959031e-08 -8.865544e-12 6.267456e-12))
1361.857609   	((3.545352e-10 1.911327e-06 -2.237481e-06) (3.834892e-10 1.848547e-06 -6.373342e-07)) ((-3.500465e-11 2.550815e-12 -2.387401e-12) (6.958860e-08 -8.725062e-12 6.199958e-12))
1385.73686    	((3.463633e-10 1.911300e-06 -2.237036e-06) (3.810560e-10 1.848498e-06 -6.373369e-07)) ((-3.500479e-11 2.551932e-12 -2.387478e-12) (6.958708e-08 -8.597950e-12 6.138760e-12))
1409.616172   	((3.390856e-10 1.911276e-06 -2.236639e-06) (3.788655e-10 1.848455e-06 -6.373393e-07)) ((-3.500491e-11 2.552930e-12 -2.387548e-12) (6.958571e-08 -8.483334e-12 6.083293e-12))
1433.49554    	((3.325240e-10 1.911254e-06 -2.236281e-06) (3.768861e-10 1.848416e-06 -6.373413e-07)) ((-3.500504e-11 2.553827e-12 -2.387611e-12) (6.958448e-08 -8.379942e-12 6.033026e-12))
