# Forces      
# CofR        : (0.000000e+00 0.000000e+00 0.000000e+00)
# Time        forces(pressure viscous)	moments(pressure viscous)
0             	((0.000000e+00 0.000000e+00 0.000000e+00) (0.000000e+00 0.000000e+00 0.000000e+00)) ((0.000000e+00 0.000000e+00 0.000000e+00) (0.000000e+00 0.000000e+00 0.000000e+00))
0.012         	((-9.331819e-10 6.063116e-07 -9.092327e-09) (-3.581401e-11 6.670329e-09 1.050389e-10)) ((-4.593703e-11 1.530321e-12 -8.597952e-09) (1.248814e-10 4.197982e-12 -1.686609e-05))
0.0264        	((-9.508268e-09 -2.152968e-07 -2.706389e-08) (-7.426009e-11 7.312374e-09 -6.763541e-10)) ((-1.057331e-10 5.803577e-12 -2.951096e-09) (2.051234e-10 5.515245e-12 -1.477270e-05))
0.04368       	((-1.580541e-08 9.573838e-08 -2.023359e-07) (-1.039279e-10 4.557528e-09 -2.300455e-09)) ((3.725859e-11 7.934835e-12 -1.875785e-09) (1.403405e-10 1.002740e-11 -1.281909e-05))
0.064416      	((-2.157016e-08 3.937804e-08 -3.275049e-07) (-6.835906e-10 1.524876e-09 -1.204717e-09)) ((-2.486743e-11 6.328959e-12 -1.506797e-09) (2.098077e-11 3.170930e-11 -1.107300e-05))
0.0892992     	((-2.757200e-08 4.685357e-08 -5.390013e-07) (-1.497369e-09 -2.373512e-10 7.734272e-09)) ((7.698020e-12 1.333720e-11 -1.309902e-09) (-4.596412e-11 6.258015e-11 -9.582175e-06))
0.119159      	((-7.909183e-09 3.675249e-08 -7.145565e-07) (-2.374616e-09 -1.579687e-09 1.815869e-08)) ((3.997723e-12 1.345003e-11 -1.086791e-09) (-1.016539e-10 8.975357e-11 -8.346275e-06))
0.154991      	((-1.527560e-08 4.080461e-08 -9.296335e-07) (-3.570639e-09 -2.860920e-09 3.777778e-08)) ((1.092740e-11 1.198311e-11 -9.314781e-10) (-1.234276e-10 1.016903e-10 -7.318042e-06))
0.197989      	((-4.557319e-09 3.066074e-08 -1.120040e-06) (-4.096242e-09 -3.541261e-09 7.543998e-08)) ((9.162995e-12 1.230998e-11 -8.187615e-10) (-1.337615e-10 9.198100e-11 -6.442081e-06))
0.249587      	((-1.611693e-08 6.690489e-08 -1.310545e-06) (-4.298604e-09 -2.931677e-09 1.305484e-07)) ((7.866815e-12 1.528057e-11 -7.345123e-10) (-1.137917e-10 8.844675e-11 -5.687423e-06))
0.311504      	((-1.476684e-08 8.094596e-08 -1.511647e-06) (-4.523357e-09 -2.407778e-09 2.033740e-07)) ((6.664745e-12 1.964442e-11 -6.602425e-10) (-1.071601e-10 1.071444e-10 -5.035393e-06))
0.385805      	((-1.955752e-08 7.036365e-08 -1.684616e-06) (-4.821806e-09 -2.339082e-09 2.920740e-07)) ((2.401457e-12 2.148692e-11 -5.929641e-10) (-1.185437e-10 1.581633e-10 -4.474819e-06))
0.474966      	((-1.781723e-08 9.927062e-08 -1.851247e-06) (-4.765581e-09 -1.691463e-09 3.926689e-07)) ((9.571447e-13 2.554565e-11 -5.331729e-10) (-1.251034e-10 1.994004e-10 -3.992998e-06))
0.581959      	((-3.164385e-08 1.086814e-07 -2.064803e-06) (-4.880886e-09 4.837482e-11 5.063774e-07)) ((2.397518e-12 2.495310e-11 -4.792435e-10) (-1.324929e-10 1.824876e-10 -3.576247e-06))
0.710351      	((-4.837348e-08 1.118202e-07 -2.299176e-06) (-3.662015e-09 -5.943737e-10 6.365397e-07)) ((-2.603322e-13 1.420177e-11 -4.309334e-10) (-1.313577e-10 1.748831e-10 -3.212313e-06))
0.864421      	((-5.512757e-08 7.872397e-08 -2.549956e-06) (-1.488990e-09 -3.452241e-09 7.825271e-07)) ((-2.876446e-12 -6.703442e-13 -3.883713e-10) (-1.673876e-10 1.867602e-10 -2.892465e-06))
1.049306      	((-3.960734e-08 4.442428e-08 -2.841898e-06) (-1.369985e-09 -5.785653e-09 9.480607e-07)) ((-3.270432e-12 -3.974341e-12 -3.543533e-10) (-2.232025e-10 1.471748e-10 -2.611629e-06))
1.271167      	((-5.190495e-08 4.412464e-08 -3.122818e-06) (-3.494433e-09 -7.236724e-09 1.133468e-06)) ((-1.036145e-12 -9.193179e-12 -3.258250e-10) (-2.325898e-10 1.736470e-10 -2.367099e-06))
1.5374        	((-3.727053e-08 3.765114e-08 -3.423932e-06) (-2.606379e-09 -7.781098e-09 1.331918e-06)) ((1.277186e-12 -1.120549e-11 -2.975246e-10) (-1.740725e-10 2.492330e-10 -2.156823e-06))
1.85688       	((-4.420991e-08 8.147595e-08 -3.746890e-06) (-1.003847e-09 -3.151910e-09 1.540862e-06)) ((-1.846348e-12 -1.041927e-11 -2.706614e-10) (-4.758004e-11 2.822397e-10 -1.977671e-06))
2.240256      	((-5.221366e-08 8.957796e-08 -4.054754e-06) (-2.870587e-09 4.506848e-09 1.756431e-06)) ((-4.189696e-12 -1.267842e-11 -2.470480e-10) (1.485542e-10 3.289894e-10 -1.824828e-06))
2.700307      	((-6.734938e-08 6.630424e-08 -4.419195e-06) (-5.926653e-09 1.203825e-08 1.977030e-06)) ((-3.368635e-12 -1.747222e-11 -2.247438e-10) (3.598717e-10 4.226658e-10 -1.692595e-06))
3.252369      	((-7.025945e-08 4.564240e-08 -4.865509e-06) (-9.883836e-09 1.802049e-08 2.202851e-06)) ((-1.448574e-12 -2.173468e-11 -2.029352e-10) (5.096767e-10 5.226755e-10 -1.575673e-06))
3.914842      	((-7.012265e-08 1.714685e-08 -5.377055e-06) (-1.236769e-08 2.208515e-08 2.438964e-06)) ((8.114919e-13 -2.223306e-11 -1.838300e-10) (5.609784e-10 5.762234e-10 -1.470178e-06))
4.709811      	((-7.591235e-08 -4.397718e-09 -5.908020e-06) (-1.387447e-08 2.496037e-08 2.686114e-06)) ((4.190775e-12 -2.299194e-11 -1.663605e-10) (5.252878e-10 5.992372e-10 -1.373815e-06))
5.663773      	((-6.922835e-08 -1.794624e-08 -6.470352e-06) (-1.154002e-08 2.031747e-08 2.950111e-06)) ((5.501498e-12 -2.470668e-11 -1.516773e-10) (3.830201e-10 5.059218e-10 -1.285145e-06))
6.808528      	((-7.557266e-08 -2.608197e-08 -7.065858e-06) (-4.557122e-09 1.276941e-08 3.239494e-06)) ((6.854764e-12 -2.477495e-11 -1.385037e-10) (1.680736e-10 3.494820e-10 -1.203131e-06))
8.182233      	((-7.309540e-08 -1.720035e-08 -7.675026e-06) (-4.843691e-10 6.571395e-09 3.555086e-06)) ((7.206378e-12 -2.639822e-11 -1.275768e-10) (-3.738651e-11 2.156415e-10 -1.127374e-06))
9.83068       	((-7.267372e-08 -2.203381e-08 -8.277202e-06) (1.804900e-09 -2.303523e-09 3.903573e-06)) ((6.380779e-12 -2.771699e-11 -1.179089e-10) (-2.088424e-10 1.403406e-10 -1.057664e-06))
11.808816     	((-7.305209e-08 -3.288241e-08 -8.866018e-06) (2.239178e-09 -5.885164e-09 4.276290e-06)) ((6.383719e-12 -3.021771e-11 -1.081491e-10) (-2.439228e-10 9.037293e-11 -9.942137e-07))
14.182579     	((-7.673531e-08 -4.218198e-08 -9.474782e-06) (1.247367e-09 -3.719281e-09 4.668345e-06)) ((6.644145e-12 -3.456802e-11 -9.968136e-11) (-1.215622e-10 7.168992e-11 -9.375491e-07))
17.031095     	((-7.575492e-08 -4.087982e-08 -1.005411e-05) (1.874204e-09 -1.309123e-09 5.077458e-06)) ((8.870418e-12 -3.838747e-11 -9.256888e-11) (8.287496e-11 -1.186214e-11 -8.881496e-07))
20.375399     	((-7.922670e-08 -3.598360e-08 -1.062719e-05) (3.823276e-09 2.483972e-10 5.487546e-06)) ((1.039154e-11 -4.495837e-11 -8.633707e-11) (2.396415e-10 -1.823740e-10 -8.464884e-07))
24.230458     	((-8.839440e-08 -3.245640e-08 -1.118384e-05) (5.312262e-09 1.914814e-09 5.896362e-06)) ((1.061638e-11 -5.205811e-11 -8.104809e-11) (3.590651e-10 -3.182651e-10 -8.119815e-07))
28.596208     	((-8.164832e-08 -2.113455e-08 -1.173034e-05) (5.599709e-09 2.541734e-09 6.301403e-06)) ((9.490181e-12 -5.850331e-11 -7.581982e-11) (5.035990e-10 -4.643082e-10 -7.837518e-07))
33.472569     	((-6.951651e-08 -1.993058e-09 -1.222522e-05) (6.078133e-09 3.399955e-09 6.700802e-06)) ((8.544100e-12 -6.615874e-11 -7.165459e-11) (6.647184e-10 -6.047090e-10 -7.607565e-07))
38.577726     	((-5.244911e-08 1.032841e-08 -1.269233e-05) (8.103923e-09 4.174904e-09 7.087348e-06)) ((7.496037e-12 -7.242775e-11 -6.781447e-11) (7.735578e-10 -7.698103e-10 -7.427783e-07))
43.681821     	((-4.230202e-08 2.756537e-08 -1.308713e-05) (1.127977e-08 4.204188e-09 7.460256e-06)) ((6.360047e-12 -7.803692e-11 -6.480391e-11) (8.840596e-10 -9.442662e-10 -7.294404e-07))
48.784756     	((-3.273193e-08 3.577266e-08 -1.339567e-05) (1.425970e-08 4.312361e-09 7.823203e-06)) ((5.061659e-12 -8.399287e-11 -6.265957e-11) (9.973128e-10 -1.131867e-09 -7.202485e-07))
53.886394     	((-2.400866e-08 3.587628e-08 -1.360606e-05) (1.670471e-08 3.067606e-09 8.176158e-06)) ((4.696940e-12 -9.145841e-11 -6.087453e-11) (1.040259e-09 -1.291940e-09 -7.148661e-07))
58.986598     	((-2.073011e-08 2.367989e-08 -1.372183e-05) (1.725088e-08 1.263929e-09 8.515967e-06)) ((5.073012e-12 -9.805479e-11 -5.927245e-11) (1.022734e-09 -1.408129e-09 -7.130466e-07))
64.085288     	((-1.884513e-08 9.898927e-09 -1.377262e-05) (1.966030e-08 -1.106355e-09 8.840002e-06)) ((5.756358e-12 -1.048730e-10 -5.839900e-11) (9.581530e-10 -1.494809e-09 -7.144996e-07))
69.182288     	((-2.095827e-08 1.111257e-09 -1.377406e-05) (1.995693e-08 -4.579739e-09 9.150659e-06)) ((6.327767e-12 -1.120368e-10 -5.829438e-11) (8.539664e-10 -1.520142e-09 -7.188741e-07))
74.233171     	((-2.822448e-08 -7.770573e-09 -1.373027e-05) (2.021953e-08 -8.138143e-09 9.447926e-06)) ((6.881544e-12 -1.191693e-10 -5.908510e-11) (7.617381e-10 -1.499522e-09 -7.258320e-07))
79.188268     	((-4.081759e-08 -1.428645e-08 -1.364021e-05) (1.851811e-08 -8.399133e-09 9.726102e-06)) ((6.944361e-12 -1.258512e-10 -6.019069e-11) (6.922920e-10 -1.428000e-09 -7.350094e-07))
84.044065     	((-4.646433e-08 -8.649529e-09 -1.350673e-05) (1.574665e-08 -7.856418e-09 9.975110e-06)) ((7.293305e-12 -1.314891e-10 -6.176515e-11) (6.520759e-10 -1.343366e-09 -7.460226e-07))
88.779435     	((-5.094122e-08 -1.551536e-09 -1.334610e-05) (1.384709e-08 -6.819553e-09 1.018158e-05)) ((8.359560e-12 -1.355026e-10 -6.354580e-11) (6.327149e-10 -1.243338e-09 -7.583729e-07))
93.412622     	((-4.830514e-08 4.909989e-09 -1.317566e-05) (1.232824e-08 -5.104647e-09 1.033011e-05)) ((8.939789e-12 -1.375991e-10 -6.537638e-11) (6.293705e-10 -1.140268e-09 -7.714882e-07))
97.958964     	((-4.497925e-08 1.344006e-08 -1.299445e-05) (1.106389e-08 -2.746477e-09 1.041474e-05)) ((9.099499e-12 -1.368239e-10 -6.745519e-11) (6.209753e-10 -1.061571e-09 -7.846496e-07))
102.419013    	((-4.379393e-08 1.811933e-08 -1.279521e-05) (1.072709e-08 -9.150055e-10 1.043400e-05)) ((9.133044e-12 -1.331514e-10 -6.966999e-11) (5.922862e-10 -1.022010e-09 -7.970842e-07))
106.809025    	((-4.461576e-08 3.134374e-08 -1.254866e-05) (1.038499e-08 6.593794e-10 1.038387e-05)) ((8.659973e-12 -1.263282e-10 -7.164024e-11) (5.842536e-10 -1.007518e-09 -8.080993e-07))
111.145475    	((-3.375060e-08 3.223416e-08 -1.226096e-05) (9.443929e-09 2.665627e-09 1.026988e-05)) ((8.779545e-12 -1.181309e-10 -7.346379e-11) (5.541991e-10 -1.029868e-09 -8.170989e-07))
115.445478    	((-2.960054e-08 2.466043e-08 -1.195154e-05) (8.236654e-09 2.575600e-09 1.010808e-05)) ((9.154816e-12 -1.096747e-10 -7.507662e-11) (4.973570e-10 -1.050948e-09 -8.237374e-07))
119.726591    	((-2.451173e-08 1.857744e-08 -1.164129e-05) (7.421369e-09 3.337774e-09 9.922407e-06)) ((9.817819e-12 -1.026665e-10 -7.633507e-11) (4.514745e-10 -1.083278e-09 -8.278898e-07))
