# Forces      
# CofR        : (0.000000e+00 0.000000e+00 0.000000e+00)
# Time        forces(pressure viscous)	moments(pressure viscous)
0             	((0.000000e+00 0.000000e+00 0.000000e+00) (0.000000e+00 0.000000e+00 0.000000e+00)) ((0.000000e+00 0.000000e+00 0.000000e+00) (0.000000e+00 0.000000e+00 0.000000e+00))
0.012         	((3.979564e-09 -2.882510e-05 -4.676085e-06) (-8.832905e-12 -6.626910e-05 -2.236905e-09)) ((-4.258037e-09 -1.591824e-11 3.914356e-11) (-4.409939e-06 -8.741176e-13 -7.130353e-12))
0.0264        	((2.153162e-08 -3.873752e-05 -9.916824e-06) (1.735138e-11 -6.070859e-05 -7.142281e-09)) ((1.846182e-09 -3.496341e-11 1.825724e-11) (-4.044353e-06 -2.227298e-12 -6.689775e-12))
0.04368       	((-9.220158e-09 -2.618965e-05 -5.420714e-06) (-9.364405e-12 -5.498858e-05 -1.672666e-08)) ((1.322048e-09 -2.170715e-11 2.073657e-11) (-3.669535e-06 -3.804352e-13 -1.390930e-11))
0.064416      	((1.743271e-08 -2.961483e-05 -7.040846e-06) (-2.275430e-11 -4.925088e-05 -3.167139e-08)) ((2.687936e-09 -2.967071e-11 1.389057e-11) (-3.295054e-06 -3.502843e-12 -1.208696e-11))
0.0892992     	((-6.253373e-10 -2.187802e-05 -4.775984e-06) (-3.558684e-11 -4.367494e-05 -5.188390e-08)) ((1.874570e-09 -2.350657e-11 8.808944e-12) (-2.932707e-06 -5.168860e-12 2.834609e-12))
0.119159      	((1.056291e-08 -2.242264e-05 -5.239578e-06) (-1.467471e-10 -3.844894e-05 -7.611802e-08)) ((2.307576e-09 -2.455754e-11 4.838975e-12) (-2.595028e-06 -8.661140e-12 1.361566e-11))
0.154991      	((2.418760e-09 -1.707191e-05 -3.854781e-06) (-3.659824e-10 -3.373507e-05 -1.052942e-07)) ((1.597312e-09 -2.307721e-11 2.395392e-12) (-2.289665e-06 -1.425171e-11 2.037340e-11))
0.197989      	((5.709513e-09 -1.686855e-05 -3.975239e-06) (-5.832496e-10 -2.959098e-05 -1.405753e-07)) ((1.844113e-09 -2.161671e-11 3.844410e-12) (-2.020743e-06 -2.142020e-11 2.419865e-11))
0.249587      	((5.997208e-09 -1.333478e-05 -3.207799e-06) (-1.091184e-09 -2.602335e-05 -1.789912e-07)) ((1.346793e-09 -2.127424e-11 4.622345e-12) (-1.787513e-06 -2.740078e-11 2.371446e-11))
0.311504      	((6.508210e-09 -1.291292e-05 -3.237008e-06) (-1.060144e-09 -2.299260e-05 -2.128903e-07)) ((1.522318e-09 -1.945853e-11 7.397944e-12) (-1.588247e-06 -4.134271e-11 2.448185e-11))
0.385805      	((7.526146e-09 -1.062656e-05 -2.803299e-06) (-1.117613e-09 -2.041869e-05 -2.475657e-07)) ((1.200195e-09 -1.832569e-11 6.754257e-12) (-1.418097e-06 -5.163063e-11 2.343982e-11))
0.474966      	((6.815961e-09 -1.008662e-05 -2.791864e-06) (-1.090170e-09 -1.821198e-05 -2.696468e-07)) ((1.288235e-09 -1.854736e-11 7.261576e-12) (-1.271935e-06 -5.700777e-11 2.164408e-11))
0.581959      	((7.057608e-09 -8.573518e-06 -2.518681e-06) (-9.543970e-10 -1.630867e-05 -2.946484e-07)) ((1.095088e-09 -1.648383e-11 5.570054e-12) (-1.145838e-06 -6.909787e-11 1.620281e-11))
0.710351      	((7.446164e-09 -8.066116e-06 -2.468564e-06) (-7.928873e-10 -1.465655e-05 -3.146370e-07)) ((1.113517e-09 -2.091963e-11 4.977319e-12) (-1.036570e-06 -9.247991e-11 1.466901e-11))
0.864421      	((9.647264e-09 -7.022192e-06 -2.332711e-06) (-7.117697e-10 -1.320887e-05 -3.384742e-07)) ((1.000828e-09 -1.580289e-11 3.415585e-12) (-9.410798e-07 -1.191421e-10 1.221355e-11))
1.049306      	((3.389541e-09 -6.543864e-06 -2.307458e-06) (-6.228641e-10 -1.192839e-05 -3.599327e-07)) ((9.956890e-10 -2.287047e-11 2.366833e-12) (-8.570071e-07 -1.194572e-10 1.837423e-14))
1.271167      	((5.821875e-09 -5.785724e-06 -2.255869e-06) (-7.347618e-10 -1.078545e-05 -3.830992e-07)) ((9.197797e-10 -1.776315e-11 8.825105e-13) (-7.823102e-07 -1.089912e-10 -1.211437e-11))
1.5374        	((4.329643e-09 -5.359278e-06 -2.254220e-06) (-7.659151e-10 -9.762858e-06 -4.029299e-07)) ((9.063968e-10 -2.474069e-11 -2.537647e-14) (-7.157415e-07 -1.186834e-10 -2.115181e-11))
1.85688       	((4.796118e-09 -4.771020e-06 -2.240629e-06) (-5.171788e-10 -8.850344e-06 -4.194931e-07)) ((8.527633e-10 -2.117405e-11 -4.028098e-13) (-6.564847e-07 -1.281703e-10 -2.562774e-11))
2.240256      	((2.475724e-09 -4.407189e-06 -2.278192e-06) (-2.971130e-10 -8.043412e-06 -4.320289e-07)) ((8.399726e-10 -2.586349e-11 -2.339570e-13) (-6.042339e-07 -1.385162e-10 -3.392986e-11))
2.700307      	((3.478555e-09 -3.963201e-06 -2.311315e-06) (-8.962113e-11 -7.335803e-06 -4.441438e-07)) ((8.032327e-10 -2.380752e-11 -8.103121e-14) (-5.585383e-07 -1.295831e-10 -4.424671e-11))
3.252369      	((4.016155e-09 -3.677950e-06 -2.385658e-06) (9.557603e-11 -6.718133e-06 -4.578892e-07)) ((7.942968e-10 -2.626207e-11 3.286936e-14) (-5.187873e-07 -1.215602e-10 -5.918837e-11))
3.914842      	((4.281202e-09 -3.354092e-06 -2.451639e-06) (-1.701449e-11 -6.177573e-06 -4.727818e-07)) ((7.733951e-10 -2.553280e-11 1.191793e-13) (-4.841102e-07 -1.170106e-10 -7.390772e-11))
4.709811      	((3.948395e-09 -3.137503e-06 -2.550847e-06) (3.262087e-12 -5.700263e-06 -4.895786e-07)) ((7.690420e-10 -2.755060e-11 4.896953e-13) (-4.536245e-07 -1.034281e-10 -8.113260e-11))
5.663773      	((4.091393e-09 -2.906359e-06 -2.650975e-06) (1.795878e-10 -5.273907e-06 -5.073658e-07)) ((7.574689e-10 -2.791533e-11 5.733696e-13) (-4.265681e-07 -9.741518e-11 -7.718399e-11))
6.808528      	((3.325411e-09 -2.749769e-06 -2.760832e-06) (6.357632e-11 -4.890009e-06 -5.268046e-07)) ((7.548242e-10 -2.959874e-11 6.704086e-13) (-4.023637e-07 -1.027461e-10 -6.988988e-11))
8.182233      	((4.199557e-09 -2.591477e-06 -2.873815e-06) (1.185315e-10 -4.542026e-06 -5.480158e-07)) ((7.492297e-10 -3.023055e-11 6.443648e-13) (-3.806493e-07 -1.047593e-10 -6.034002e-11))
9.83068       	((4.460788e-09 -2.473323e-06 -2.987162e-06) (2.943763e-10 -4.225090e-06 -5.725953e-07)) ((7.489596e-10 -3.177731e-11 6.279859e-13) (-3.611130e-07 -1.022766e-10 -5.079857e-11))
11.808816     	((4.382122e-09 -2.360295e-06 -3.120026e-06) (3.641543e-10 -3.935844e-06 -6.011747e-07)) ((7.481967e-10 -3.287811e-11 6.653262e-13) (-3.434785e-07 -1.002773e-10 -4.514824e-11))
14.182579     	((4.978576e-09 -2.281451e-06 -3.265463e-06) (3.341910e-10 -3.672102e-06 -6.334681e-07)) ((7.503145e-10 -3.425649e-11 7.695771e-13) (-3.275973e-07 -9.820832e-11 -4.292504e-11))
17.031095     	((5.047586e-09 -2.214993e-06 -3.415245e-06) (2.713839e-10 -3.433494e-06 -6.708814e-07)) ((7.516542e-10 -3.516039e-11 9.424427e-13) (-3.134083e-07 -9.939438e-11 -4.612138e-11))
20.449314     	((5.011345e-09 -2.182484e-06 -3.576656e-06) (2.347788e-10 -3.220873e-06 -7.125701e-07)) ((7.546187e-10 -3.625187e-11 1.059476e-12) (-3.009300e-07 -1.000668e-10 -4.279440e-11))
24.551176     	((4.701054e-09 -2.166234e-06 -3.733898e-06) (3.043800e-10 -3.035552e-06 -7.582255e-07)) ((7.583751e-10 -3.710131e-11 1.204749e-12) (-2.901257e-07 -1.054624e-10 -3.652453e-11))
29.473411     	((4.492282e-09 -2.174703e-06 -3.888616e-06) (3.919089e-10 -2.877639e-06 -8.072876e-07)) ((7.627903e-10 -3.797721e-11 1.269004e-12) (-2.809327e-07 -1.116125e-10 -2.965217e-11))
35.284438     	((4.726416e-09 -2.192442e-06 -4.053438e-06) (4.747249e-10 -2.747797e-06 -8.589652e-07)) ((7.663026e-10 -3.874733e-11 1.268385e-12) (-2.732781e-07 -1.162380e-10 -2.531892e-11))
41.982926     	((4.824016e-09 -2.231574e-06 -4.206192e-06) (4.322556e-10 -2.645859e-06 -9.111848e-07)) ((7.692712e-10 -3.950505e-11 1.216368e-12) (-2.670449e-07 -1.186483e-10 -2.165789e-11))
49.568297     	((5.198082e-09 -2.289449e-06 -4.337766e-06) (3.644224e-10 -2.570454e-06 -9.606826e-07)) ((7.716542e-10 -4.029519e-11 1.191598e-12) (-2.620761e-07 -1.194766e-10 -1.743881e-11))
58.040547     	((4.902004e-09 -2.370768e-06 -4.455643e-06) (1.880916e-10 -2.519590e-06 -1.003788e-06)) ((7.743523e-10 -4.114428e-11 1.209990e-12) (-2.582790e-07 -1.176804e-10 -1.445561e-11))
66.914604     	((4.933054e-09 -2.453577e-06 -4.567448e-06) (8.089786e-11 -2.490196e-06 -1.037213e-06)) ((7.775523e-10 -4.187475e-11 1.283248e-12) (-2.556083e-07 -1.135270e-10 -1.225441e-11))
75.798322     	((5.256514e-09 -2.526008e-06 -4.653110e-06) (3.947906e-11 -2.475939e-06 -1.060619e-06)) ((7.809962e-10 -4.239555e-11 1.406657e-12) (-2.538539e-07 -1.097497e-10 -1.112884e-11))
84.696291     	((5.356970e-09 -2.582134e-06 -4.714598e-06) (-1.765886e-11 -2.470632e-06 -1.075621e-06)) ((7.839549e-10 -4.271905e-11 1.555312e-12) (-2.527524e-07 -1.061376e-10 -1.187725e-11))
93.611855     	((5.641924e-09 -2.623605e-06 -4.760485e-06) (-6.407885e-11 -2.469795e-06 -1.084549e-06)) ((7.862480e-10 -4.287663e-11 1.703609e-12) (-2.520871e-07 -1.038902e-10 -1.378847e-11))
102.546157    	((5.948644e-09 -2.652509e-06 -4.796535e-06) (-7.527553e-11 -2.470688e-06 -1.089701e-06)) ((7.878817e-10 -4.294767e-11 1.853589e-12) (-2.516858e-07 -1.040770e-10 -1.514414e-11))
111.497352    	((6.244712e-09 -2.672554e-06 -4.825192e-06) (-3.592013e-11 -2.472041e-06 -1.092789e-06)) ((7.890054e-10 -4.299330e-11 1.982230e-12) (-2.514390e-07 -1.065531e-10 -1.551365e-11))
120.46312     	((6.244199e-09 -2.684217e-06 -4.846786e-06) (2.086678e-11 -2.473170e-06 -1.094776e-06)) ((7.895802e-10 -4.304660e-11 2.062683e-12) (-2.512820e-07 -1.084534e-10 -1.476398e-11))
129.441095    	((6.265238e-09 -2.691618e-06 -4.863658e-06) (6.817738e-11 -2.473961e-06 -1.096132e-06)) ((7.899408e-10 -4.309209e-11 2.112717e-12) (-2.511812e-07 -1.095754e-10 -1.354419e-11))
138.4288      	((6.338918e-09 -2.697060e-06 -4.877433e-06) (1.191187e-10 -2.474571e-06 -1.097059e-06)) ((7.903325e-10 -4.313063e-11 2.146646e-12) (-2.511230e-07 -1.101191e-10 -1.230055e-11))
147.423784    	((6.226478e-09 -2.701070e-06 -4.889588e-06) (1.606453e-10 -2.475125e-06 -1.097893e-06)) ((7.907096e-10 -4.317769e-11 2.164698e-12) (-2.510912e-07 -1.097327e-10 -1.114083e-11))
156.423954    	((6.323881e-09 -2.703507e-06 -4.900561e-06) (2.026252e-10 -2.475693e-06 -1.098837e-06)) ((7.908733e-10 -4.322034e-11 2.169342e-12) (-2.510741e-07 -1.093956e-10 -1.045735e-11))
165.427974    	((6.337413e-09 -2.705026e-06 -4.910413e-06) (2.333000e-10 -2.476314e-06 -1.099927e-06)) ((7.908924e-10 -4.325859e-11 2.174666e-12) (-2.510674e-07 -1.090769e-10 -1.025027e-11))
174.435045    	((6.442581e-09 -2.706050e-06 -4.919219e-06) (2.621593e-10 -2.477029e-06 -1.101110e-06)) ((7.908621e-10 -4.328994e-11 2.181401e-12) (-2.510682e-07 -1.092455e-10 -1.052600e-11))
183.444598    	((6.407343e-09 -2.707225e-06 -4.927026e-06) (2.853170e-10 -2.477880e-06 -1.102300e-06)) ((7.908221e-10 -4.331764e-11 2.188655e-12) (-2.510762e-07 -1.096530e-10 -1.105586e-11))
192.45622     	((6.448048e-09 -2.708195e-06 -4.934189e-06) (3.058441e-10 -2.478865e-06 -1.103428e-06)) ((7.907804e-10 -4.333753e-11 2.196276e-12) (-2.510906e-07 -1.102382e-10 -1.155124e-11))
201.469611    	((6.514648e-09 -2.709082e-06 -4.940856e-06) (3.272050e-10 -2.479939e-06 -1.104472e-06)) ((7.907456e-10 -4.335204e-11 2.204150e-12) (-2.511099e-07 -1.110917e-10 -1.191082e-11))
210.484553    	((6.596675e-09 -2.709908e-06 -4.947156e-06) (3.479645e-10 -2.481076e-06 -1.105425e-06)) ((7.907092e-10 -4.336255e-11 2.212086e-12) (-2.511331e-07 -1.120891e-10 -1.204222e-11))
219.500894    	((6.664439e-09 -2.710363e-06 -4.952825e-06) (3.690505e-10 -2.482231e-06 -1.106277e-06)) ((7.906738e-10 -4.336821e-11 2.219146e-12) (-2.511587e-07 -1.131223e-10 -1.189455e-11))
228.5185      	((6.708545e-09 -2.710556e-06 -4.958006e-06) (3.891138e-10 -2.483370e-06 -1.107016e-06)) ((7.906389e-10 -4.337253e-11 2.225383e-12) (-2.511858e-07 -1.141827e-10 -1.148018e-11))
237.53725     	((6.758307e-09 -2.710452e-06 -4.962778e-06) (4.090829e-10 -2.484461e-06 -1.107653e-06)) ((7.905978e-10 -4.337560e-11 2.231395e-12) (-2.512129e-07 -1.151733e-10 -1.083156e-11))
246.557022    	((6.857343e-09 -2.710154e-06 -4.967310e-06) (4.296681e-10 -2.485489e-06 -1.108198e-06)) ((7.905509e-10 -4.337836e-11 2.236991e-12) (-2.512390e-07 -1.160298e-10 -1.002303e-11))
255.57771     	((7.036333e-09 -2.709653e-06 -4.971628e-06) (4.525342e-10 -2.486436e-06 -1.108668e-06)) ((7.904977e-10 -4.338012e-11 2.241289e-12) (-2.512632e-07 -1.168563e-10 -9.164479e-12))
264.599224    	((7.302723e-09 -2.708951e-06 -4.975779e-06) (4.820583e-10 -2.487293e-06 -1.109088e-06)) ((7.904392e-10 -4.337839e-11 2.244639e-12) (-2.512846e-07 -1.179556e-10 -8.343598e-12))
273.621485    	((7.420594e-09 -2.708275e-06 -4.979712e-06) (5.092234e-10 -2.488059e-06 -1.109470e-06)) ((7.903829e-10 -4.337935e-11 2.247543e-12) (-2.513034e-07 -1.189769e-10 -7.544480e-12))
282.644424    	((7.525287e-09 -2.707634e-06 -4.983815e-06) (5.334704e-10 -2.488749e-06 -1.109820e-06)) ((7.903312e-10 -4.338405e-11 2.250066e-12) (-2.513198e-07 -1.198241e-10 -6.778283e-12))
291.667988    	((7.477320e-09 -2.706963e-06 -4.987876e-06) (5.481995e-10 -2.489368e-06 -1.110148e-06)) ((7.902799e-10 -4.339488e-11 2.252055e-12) (-2.513340e-07 -1.201570e-10 -6.102918e-12))
300.692137    	((7.608615e-09 -2.706336e-06 -4.992302e-06) (5.621926e-10 -2.489930e-06 -1.110459e-06)) ((7.902301e-10 -4.340639e-11 2.252960e-12) (-2.513461e-07 -1.202705e-10 -5.638876e-12))
309.716827    	((7.522491e-09 -2.705800e-06 -4.996616e-06) (5.690666e-10 -2.490447e-06 -1.110758e-06)) ((7.901862e-10 -4.342127e-11 2.253912e-12) (-2.513566e-07 -1.199456e-10 -5.476780e-12))
318.742013    	((7.383957e-09 -2.705257e-06 -5.000837e-06) (5.685362e-10 -2.490929e-06 -1.111049e-06)) ((7.901461e-10 -4.343673e-11 2.254848e-12) (-2.513656e-07 -1.192816e-10 -5.672870e-12))
327.767656    	((7.190699e-09 -2.704710e-06 -5.005072e-06) (5.572991e-10 -2.491386e-06 -1.111343e-06)) ((7.901091e-10 -4.345245e-11 2.256017e-12) (-2.513736e-07 -1.182984e-10 -6.250955e-12))
336.793717    	((7.134901e-09 -2.704241e-06 -5.009397e-06) (5.479988e-10 -2.491825e-06 -1.111633e-06)) ((7.900791e-10 -4.346704e-11 2.256480e-12) (-2.513808e-07 -1.176234e-10 -7.157406e-12))
345.820163    	((7.012927e-09 -2.703913e-06 -5.013650e-06) (5.400910e-10 -2.492257e-06 -1.111912e-06)) ((7.900555e-10 -4.348317e-11 2.256635e-12) (-2.513880e-07 -1.173171e-10 -8.218865e-12))
354.846966    	((6.944963e-09 -2.703554e-06 -5.017864e-06) (5.354284e-10 -2.492685e-06 -1.112176e-06)) ((7.900342e-10 -4.349854e-11 2.256487e-12) (-2.513952e-07 -1.174551e-10 -9.211136e-12))
363.874098    	((6.857159e-09 -2.703216e-06 -5.021999e-06) (5.349810e-10 -2.493104e-06 -1.112425e-06)) ((7.900144e-10 -4.351434e-11 2.256174e-12) (-2.514022e-07 -1.179749e-10 -9.888771e-12))
372.901539    	((6.806763e-09 -2.702859e-06 -5.026040e-06) (5.393982e-10 -2.493514e-06 -1.112659e-06)) ((7.899946e-10 -4.352936e-11 2.255532e-12) (-2.514092e-07 -1.187097e-10 -1.006092e-11))
381.929268    	((6.764750e-09 -2.702521e-06 -5.029974e-06) (5.477292e-10 -2.493910e-06 -1.112881e-06)) ((7.899754e-10 -4.354323e-11 2.254868e-12) (-2.514159e-07 -1.194695e-10 -9.688329e-12))
