# Forces      
# CofR        : (0.000000e+00 0.000000e+00 0.000000e+00)
# Time        forces(pressure viscous)	moments(pressure viscous)
0             	((0.000000e+00 0.000000e+00 0.000000e+00) (0.000000e+00 0.000000e+00 0.000000e+00)) ((0.000000e+00 0.000000e+00 0.000000e+00) (0.000000e+00 0.000000e+00 0.000000e+00))
0.012         	((6.744943e-06 -2.573457e-10 2.126370e-06) (1.664450e-05 -7.517047e-14 1.358212e-09)) ((1.099698e-13 -1.084756e-09 8.739949e-14) (1.211071e-14 -1.107644e-06 5.143281e-15))
0.0264        	((1.001713e-05 -5.674941e-09 3.357174e-06) (1.524694e-05 -1.516251e-12 4.491308e-10)) ((6.266173e-14 5.530555e-10 2.101198e-14) (4.621204e-14 -1.015734e-06 -3.604952e-14))
0.04368       	((6.361459e-06 3.390236e-09 2.029358e-06) (1.380585e-05 1.682538e-12 -1.090229e-09)) ((1.323771e-13 3.900725e-10 6.297288e-14) (1.189912e-13 -9.212615e-07 -1.610962e-13))
0.064416      	((7.551675e-06 -4.148408e-09 2.497486e-06) (1.235393e-05 3.596599e-12 -2.662901e-09)) ((8.314666e-14 7.634562e-10 -8.774847e-15) (1.661469e-13 -8.264176e-07 -3.135391e-13))
0.0892992     	((5.392831e-06 1.817853e-09 1.748489e-06) (1.093348e-05 4.257783e-12 -4.052588e-09)) ((2.911757e-14 5.387444e-10 5.703512e-14) (3.205829e-13 -7.339836e-07 -2.838893e-13))
0.119159      	((5.675246e-06 -2.014618e-09 1.827628e-06) (9.590564e-06 2.122181e-12 -5.413565e-09)) ((5.918120e-14 6.577908e-10 6.809197e-15) (2.713693e-13 -6.470379e-07 -1.955327e-13))
0.154991      	((4.209323e-06 1.018736e-09 1.386944e-06) (8.367829e-06 -5.726933e-13 -7.218266e-09)) ((-1.665187e-14 4.556197e-10 1.096444e-14) (2.572690e-13 -5.674574e-07 -4.082441e-14))
0.197989      	((4.219698e-06 -7.308347e-10 1.330984e-06) (7.287230e-06 -2.872482e-12 -9.362782e-09)) ((-1.451963e-14 5.185162e-10 -5.993818e-15) (2.110196e-13 -4.970536e-07 7.988400e-14))
0.249587      	((3.251766e-06 4.299048e-10 1.068936e-06) (6.363057e-06 -4.151206e-12 -1.178523e-08)) ((-1.661611e-14 3.707115e-10 -1.156720e-15) (2.019011e-13 -4.364279e-07 1.637349e-13))
0.311504      	((3.186959e-06 -1.265521e-10 9.868318e-07) (5.591801e-06 -4.456352e-12 -1.416264e-08)) ((-4.167313e-14 4.128422e-10 -7.470671e-16) (3.352269e-13 -3.855411e-07 2.379039e-13))
0.385805      	((2.560098e-06 2.406011e-11 8.318368e-07) (4.950278e-06 -4.434987e-12 -1.655200e-08)) ((-9.176349e-15 3.089775e-10 2.175413e-15) (3.222488e-13 -3.431449e-07 2.956585e-13))
0.474966      	((2.488001e-06 -6.849439e-11 7.575005e-07) (4.414888e-06 -3.875616e-12 -1.801740e-08)) ((-5.038777e-14 3.381041e-10 -1.068617e-15) (3.786591e-13 -3.077764e-07 5.247627e-13))
0.581959      	((2.069816e-06 -1.152566e-10 6.600706e-07) (3.960841e-06 -3.376352e-12 -1.966112e-08)) ((7.362975e-16 2.643665e-10 -1.370235e-14) (2.187224e-13 -2.777570e-07 4.465324e-13))
0.710351      	((1.997491e-06 1.855975e-11 5.956411e-07) (3.569287e-06 -3.533247e-13 -2.010614e-08)) ((-5.878626e-14 2.848053e-10 -1.878691e-15) (8.965079e-14 -2.519196e-07 5.054153e-14))
0.864421      	((1.708747e-06 -8.482705e-11 5.292623e-07) (3.225218e-06 1.416895e-12 -2.123015e-08)) ((-2.342511e-14 2.370410e-10 4.579996e-16) (1.215214e-13 -2.292586e-07 4.388678e-14))
1.049306      	((1.623899e-06 -2.850346e-11 4.691844e-07) (2.919197e-06 2.083579e-12 -2.111298e-08)) ((-6.732565e-14 2.486766e-10 -3.253047e-14) (5.197830e-13 -2.091608e-07 2.873126e-13))
1.271167      	((1.410056e-06 -1.429017e-10 4.170688e-07) (2.644416e-06 -3.358234e-12 -2.252327e-08)) ((-5.456095e-14 2.177299e-10 -3.892955e-14) (8.315907e-13 -1.911551e-07 5.970939e-13))
1.5374        	((1.316598e-06 -7.969262e-11 3.629308e-07) (2.396695e-06 -1.640190e-11 -2.327286e-08)) ((-9.445697e-14 2.192718e-10 -5.203981e-14) (1.358145e-12 -1.749548e-07 8.567001e-13))
1.85688       	((1.156073e-06 -1.437432e-10 3.187125e-07) (2.173600e-06 -2.669598e-11 -2.446489e-08)) ((-1.052211e-13 1.999213e-10 -5.579120e-14) (2.381303e-12 -1.604049e-07 1.036888e-12))
2.240256      	((1.067639e-06 -9.470429e-11 2.760625e-07) (1.974367e-06 -3.222377e-11 -2.548961e-08)) ((-1.200928e-13 1.938146e-10 -6.416589e-14) (3.754256e-12 -1.474283e-07 6.539602e-13))
2.700307      	((9.483240e-07 -1.392589e-10 2.401378e-07) (1.798233e-06 -3.303758e-11 -2.614352e-08)) ((-9.595478e-14 1.799558e-10 -6.930359e-14) (5.530361e-12 -1.359810e-07 -8.513678e-13))
3.252369      	((8.776342e-07 -2.084813e-10 2.079460e-07) (1.643460e-06 -3.019864e-11 -2.753924e-08)) ((-9.351721e-14 1.742289e-10 -6.769891e-14) (7.383229e-12 -1.259165e-07 -2.953227e-12))
3.914842      	((7.906488e-07 -2.908667e-10 1.797646e-07) (1.507957e-06 -3.567477e-11 -2.878131e-08)) ((-7.477903e-14 1.654047e-10 -7.303409e-14) (8.261091e-12 -1.171473e-07 -5.289977e-12))
4.709811      	((7.320215e-07 -2.786961e-10 1.503522e-07) (1.388470e-06 -4.512564e-11 -3.021300e-08)) ((-6.647998e-14 1.616368e-10 -8.276915e-14) (8.159067e-12 -1.094491e-07 -6.968953e-12))
5.663773      	((6.643185e-07 -2.123722e-10 1.236313e-07) (1.282060e-06 -4.921485e-11 -3.186238e-08)) ((-7.532712e-14 1.560227e-10 -7.118458e-14) (7.421884e-12 -1.026162e-07 -7.226650e-12))
6.808528      	((6.151814e-07 -3.062185e-10 9.719046e-08) (1.186380e-06 -5.054845e-11 -3.341191e-08)) ((-6.989946e-14 1.525798e-10 -7.569596e-14) (6.700246e-12 -9.648545e-08 -7.073882e-12))
8.182233      	((5.622603e-07 -1.889032e-10 7.235493e-08) (1.099470e-06 -3.795969e-11 -3.510814e-08)) ((-7.150238e-14 1.487188e-10 -6.344595e-14) (6.125115e-12 -9.093317e-08 -7.040825e-12))
9.83068       	((5.207079e-07 -1.053981e-10 4.834075e-08) (1.020124e-06 -3.779406e-11 -3.668807e-08)) ((-6.502678e-14 1.461678e-10 -5.646887e-14) (5.261769e-12 -8.588681e-08 -6.531175e-12))
11.808816     	((4.782255e-07 -3.695814e-11 2.513838e-08) (9.473198e-07 -3.203196e-11 -3.785322e-08)) ((-4.717826e-14 1.433293e-10 -4.802275e-14) (5.223648e-12 -8.128313e-08 -5.388621e-12))
14.182579     	((4.437922e-07 -4.225555e-11 2.582750e-09) (8.801864e-07 -3.473730e-11 -3.875995e-08)) ((-4.013314e-14 1.412216e-10 -4.694161e-14) (5.054413e-12 -7.707311e-08 -4.017609e-12))
17.031095     	((4.091281e-07 -7.162401e-11 -1.936070e-08) (8.182098e-07 -5.197787e-11 -3.952440e-08)) ((-3.556659e-14 1.392258e-10 -4.115490e-14) (4.094937e-12 -7.322492e-08 -2.595966e-12))
20.449314     	((3.795138e-07 -2.082720e-10 -4.204395e-08) (7.612497e-07 -8.128342e-11 -4.034489e-08)) ((-3.130084e-14 1.377060e-10 -3.301344e-14) (3.066988e-12 -6.972658e-08 -1.506645e-12))
24.551176     	((3.521091e-07 -2.880977e-10 -6.321720e-08) (7.092480e-07 -1.023809e-10 -4.135263e-08)) ((-2.897553e-14 1.364358e-10 -2.803600e-14) (1.792771e-12 -6.656889e-08 -6.689959e-13))
29.473411     	((3.291818e-07 -2.912310e-10 -8.365418e-08) (6.621150e-07 -1.104524e-10 -4.260351e-08)) ((-2.087267e-14 1.355432e-10 -2.546694e-14) (1.036947e-12 -6.373914e-08 -2.023246e-13))
35.380094     	((3.084431e-07 -2.687183e-10 -1.034211e-07) (6.195269e-07 -1.131840e-10 -4.431295e-08)) ((-1.666789e-14 1.348326e-10 -2.131021e-14) (7.001433e-13 -6.121362e-08 -2.360152e-14))
42.468112     	((2.916650e-07 -2.432965e-10 -1.213179e-07) (5.812322e-07 -1.134945e-10 -4.634501e-08)) ((-1.502696e-14 1.342548e-10 -1.567626e-14) (4.105989e-13 -5.896664e-08 -1.231960e-13))
50.973735     	((2.772049e-07 -2.151276e-10 -1.393074e-07) (5.467990e-07 -1.121205e-10 -4.883450e-08)) ((-1.075059e-14 1.337960e-10 -1.123133e-14) (2.156383e-13 -5.697581e-08 -4.590558e-13))
61.180482     	((2.657141e-07 -2.195153e-10 -1.561357e-07) (5.160244e-07 -1.084816e-10 -5.179990e-08)) ((-7.723448e-15 1.334772e-10 -1.305772e-14) (1.858952e-13 -5.522052e-08 -6.909978e-13))
73.428578     	((2.565825e-07 -1.985011e-10 -1.722984e-07) (4.886668e-07 -9.986298e-11 -5.536394e-08)) ((-9.134894e-15 1.332776e-10 -1.351476e-14) (4.305694e-13 -5.368422e-08 -8.665628e-13))
88.126294     	((2.507942e-07 -1.871680e-10 -1.878476e-07) (4.646376e-07 -9.011127e-11 -5.946680e-08)) ((-8.925422e-15 1.332034e-10 -1.444433e-14) (7.234782e-13 -5.235151e-08 -9.698316e-13))
105.763553    	((2.475369e-07 -1.835325e-10 -2.019116e-07) (4.438517e-07 -7.873797e-11 -6.411916e-08)) ((-7.690022e-15 1.332409e-10 -1.366703e-14) (8.977770e-13 -5.120608e-08 -1.022416e-12))
126.860521    	((2.466305e-07 -1.872902e-10 -2.149218e-07) (4.262453e-07 -7.520340e-11 -6.927165e-08)) ((-6.648865e-15 1.333246e-10 -1.231761e-14) (8.204818e-13 -5.023483e-08 -1.078859e-12))
151.418024    	((2.478619e-07 -1.974208e-10 -2.258876e-07) (4.119433e-07 -7.139686e-11 -7.470783e-08)) ((-4.933882e-15 1.334454e-10 -1.180400e-14) (7.141838e-13 -4.943191e-08 -9.304595e-13))
179.437647    	((2.510782e-07 -1.981057e-10 -2.345842e-07) (4.008913e-07 -6.629928e-11 -8.020407e-08)) ((-3.561267e-15 1.335599e-10 -1.201794e-14) (6.986444e-13 -4.878532e-08 -5.683469e-13))
210.921166    	((2.557587e-07 -1.927754e-10 -2.412781e-07) (3.928932e-07 -6.044307e-11 -8.543233e-08)) ((-3.051673e-15 1.336613e-10 -1.269092e-14) (7.100911e-13 -4.828127e-08 2.593330e-14))
245.575525    	((2.612520e-07 -1.920925e-10 -2.462153e-07) (3.876359e-07 -5.993621e-11 -8.999543e-08)) ((-3.271258e-15 1.337772e-10 -1.256441e-14) (5.670477e-13 -4.790606e-08 5.479609e-13))
280.248813    	((2.657784e-07 -1.846035e-10 -2.500527e-07) (3.846456e-07 -5.868906e-11 -9.350672e-08)) ((-3.676885e-15 1.339226e-10 -1.260309e-14) (3.337152e-13 -4.764772e-08 9.603295e-13))
314.940882    	((2.686265e-07 -1.780394e-10 -2.531654e-07) (3.831218e-07 -5.777576e-11 -9.597197e-08)) ((-3.726402e-15 1.340201e-10 -1.262485e-14) (3.618263e-14 -4.747481e-08 1.250828e-12))
349.646908    	((2.697653e-07 -1.730710e-10 -2.556759e-07) (3.823928e-07 -5.816354e-11 -9.754718e-08)) ((-3.990520e-15 1.340715e-10 -1.249035e-14) (-2.680189e-13 -4.735955e-08 1.407787e-12))
384.365021    	((2.699676e-07 -1.667804e-10 -2.576167e-07) (3.819748e-07 -5.923009e-11 -9.851145e-08)) ((-4.059981e-15 1.340944e-10 -1.226657e-14) (-5.088413e-13 -4.727860e-08 1.435688e-12))
419.093289    	((2.697782e-07 -1.611848e-10 -2.591711e-07) (3.816310e-07 -6.049904e-11 -9.911868e-08)) ((-4.430490e-15 1.341065e-10 -1.190593e-14) (-6.739606e-13 -4.721929e-08 1.383018e-12))
453.829986    	((2.695155e-07 -1.566781e-10 -2.604763e-07) (3.812863e-07 -6.266666e-11 -9.954491e-08)) ((-4.984019e-15 1.341124e-10 -1.141035e-14) (-7.767312e-13 -4.717393e-08 1.319253e-12))
488.573513    	((2.693426e-07 -1.533119e-10 -2.615738e-07) (3.809512e-07 -6.473929e-11 -9.989640e-08)) ((-5.355995e-15 1.341199e-10 -1.088104e-14) (-8.461803e-13 -4.713896e-08 1.240241e-12))
523.322692    	((2.691313e-07 -1.500602e-10 -2.625537e-07) (3.806438e-07 -6.603349e-11 -1.002334e-07)) ((-5.690674e-15 1.341238e-10 -1.042325e-14) (-8.887672e-13 -4.711178e-08 1.149916e-12))
558.07677     	((2.689844e-07 -1.477443e-10 -2.634045e-07) (3.803825e-07 -6.700707e-11 -1.005769e-07)) ((-5.591615e-15 1.341275e-10 -1.005523e-14) (-9.295509e-13 -4.709054e-08 1.066796e-12))
592.8352      	((2.689201e-07 -1.456685e-10 -2.641467e-07) (3.801807e-07 -6.789234e-11 -1.009251e-07)) ((-5.304559e-15 1.341312e-10 -9.841814e-15) (-9.781295e-13 -4.707409e-08 1.003822e-12))
627.597463    	((2.689264e-07 -1.438690e-10 -2.647849e-07) (3.800467e-07 -6.869181e-11 -1.012669e-07)) ((-5.107290e-15 1.341367e-10 -9.759365e-15) (-1.022512e-12 -4.706185e-08 9.544192e-13))
662.363122    	((2.689481e-07 -1.428075e-10 -2.653426e-07) (3.799762e-07 -6.937303e-11 -1.015922e-07)) ((-4.930510e-15 1.341428e-10 -9.729756e-15) (-1.059194e-12 -4.705322e-08 9.148143e-13))
697.131886    	((2.689729e-07 -1.423032e-10 -2.658242e-07) (3.799576e-07 -6.976156e-11 -1.018920e-07)) ((-4.896178e-15 1.341495e-10 -9.736319e-15) (-1.088485e-12 -4.704755e-08 8.896369e-13))
731.903501    	((2.689917e-07 -1.412199e-10 -2.662410e-07) (3.799772e-07 -6.986376e-11 -1.021622e-07)) ((-5.273343e-15 1.341568e-10 -9.693607e-15) (-1.109055e-12 -4.704421e-08 8.743480e-13))
766.67778     	((2.690158e-07 -1.404892e-10 -2.666048e-07) (3.800227e-07 -6.984387e-11 -1.024017e-07)) ((-5.605310e-15 1.341640e-10 -9.595580e-15) (-1.123254e-12 -4.704268e-08 8.617690e-13))
801.454555    	((2.690211e-07 -1.397746e-10 -2.669344e-07) (3.800839e-07 -6.980032e-11 -1.026141e-07)) ((-5.892630e-15 1.341700e-10 -9.498530e-15) (-1.128580e-12 -4.704241e-08 8.526303e-13))
836.233636    	((2.690030e-07 -1.389399e-10 -2.672388e-07) (3.801508e-07 -6.976044e-11 -1.028069e-07)) ((-5.955887e-15 1.341746e-10 -9.387487e-15) (-1.128428e-12 -4.704282e-08 8.465445e-13))
871.014777    	((2.689429e-07 -1.385931e-10 -2.675209e-07) (3.802180e-07 -6.969273e-11 -1.029862e-07)) ((-5.963795e-15 1.341778e-10 -9.277964e-15) (-1.119130e-12 -4.704352e-08 8.414069e-13))
905.797711    	((2.688926e-07 -1.377284e-10 -2.677736e-07) (3.802827e-07 -6.959172e-11 -1.031532e-07)) ((-6.136383e-15 1.341813e-10 -9.159775e-15) (-1.112090e-12 -4.704438e-08 8.377349e-13))
940.582232    	((2.688487e-07 -1.368956e-10 -2.680072e-07) (3.803451e-07 -6.945306e-11 -1.033088e-07)) ((-6.218965e-15 1.341848e-10 -9.070421e-15) (-1.107860e-12 -4.704539e-08 8.380564e-13))
975.368193    	((2.688067e-07 -1.363081e-10 -2.682209e-07) (3.804056e-07 -6.932258e-11 -1.034534e-07)) ((-6.204708e-15 1.341881e-10 -9.039127e-15) (-1.101707e-12 -4.704650e-08 8.375457e-13))
1010.155474   	((2.687665e-07 -1.357904e-10 -2.684210e-07) (3.804644e-07 -6.924086e-11 -1.035884e-07)) ((-6.224345e-15 1.341912e-10 -9.023267e-15) (-1.095999e-12 -4.704767e-08 8.363380e-13))
1044.943966   	((2.687234e-07 -1.356245e-10 -2.686102e-07) (3.805212e-07 -6.915407e-11 -1.037151e-07)) ((-6.219355e-15 1.341940e-10 -9.006032e-15) (-1.089608e-12 -4.704886e-08 8.358266e-13))
1079.733574   	((2.686891e-07 -1.353161e-10 -2.687866e-07) (3.805763e-07 -6.907954e-11 -1.038343e-07)) ((-6.203872e-15 1.341969e-10 -9.013329e-15) (-1.082093e-12 -4.705006e-08 8.342324e-13))
1114.524222   	((2.686531e-07 -1.351509e-10 -2.689505e-07) (3.806297e-07 -6.898736e-11 -1.039461e-07)) ((-6.219186e-15 1.341995e-10 -9.029463e-15) (-1.074655e-12 -4.705125e-08 8.323990e-13))
1149.315843   	((2.686203e-07 -1.350801e-10 -2.691043e-07) (3.806812e-07 -6.884476e-11 -1.040513e-07)) ((-6.172388e-15 1.342020e-10 -9.041471e-15) (-1.066534e-12 -4.705243e-08 8.295290e-13))
1184.108381   	((2.685933e-07 -1.350686e-10 -2.692476e-07) (3.807312e-07 -6.871671e-11 -1.041502e-07)) ((-6.194105e-15 1.342043e-10 -9.041779e-15) (-1.058232e-12 -4.705360e-08 8.263058e-13))
1218.901783   	((2.685664e-07 -1.351492e-10 -2.693827e-07) (3.807795e-07 -6.865585e-11 -1.042438e-07)) ((-6.193504e-15 1.342066e-10 -9.033386e-15) (-1.053419e-12 -4.705477e-08 8.254705e-13))
1253.696005   	((2.685450e-07 -1.352084e-10 -2.695107e-07) (3.808265e-07 -6.864978e-11 -1.043324e-07)) ((-6.184864e-15 1.342089e-10 -9.001050e-15) (-1.050909e-12 -4.705593e-08 8.253890e-13))
1288.491002   	((2.685256e-07 -1.354421e-10 -2.696291e-07) (3.808723e-07 -6.866789e-11 -1.044161e-07)) ((-6.181801e-15 1.342111e-10 -8.976801e-15) (-1.048702e-12 -4.705709e-08 8.244796e-13))
1323.286735   	((2.685079e-07 -1.356066e-10 -2.697371e-07) (3.809168e-07 -6.873514e-11 -1.044946e-07)) ((-6.166012e-15 1.342133e-10 -8.962371e-15) (-1.047791e-12 -4.705825e-08 8.210592e-13))
1358.083164   	((2.684899e-07 -1.356953e-10 -2.698392e-07) (3.809597e-07 -6.878644e-11 -1.045683e-07)) ((-6.148824e-15 1.342152e-10 -8.950912e-15) (-1.046358e-12 -4.705939e-08 8.169855e-13))
1392.880247   	((2.684738e-07 -1.357794e-10 -2.699326e-07) (3.810009e-07 -6.883509e-11 -1.046375e-07)) ((-6.137118e-15 1.342170e-10 -8.940198e-15) (-1.045027e-12 -4.706051e-08 8.139406e-13))
1427.677947   	((2.684567e-07 -1.359065e-10 -2.700207e-07) (3.810404e-07 -6.889145e-11 -1.047024e-07)) ((-6.133864e-15 1.342187e-10 -8.914754e-15) (-1.044040e-12 -4.706158e-08 8.116789e-13))
1462.476225   	((2.684368e-07 -1.359322e-10 -2.701055e-07) (3.810778e-07 -6.893514e-11 -1.047638e-07)) ((-6.145374e-15 1.342202e-10 -8.894795e-15) (-1.041659e-12 -4.706260e-08 8.090398e-13))
1497.275047   	((2.684160e-07 -1.359561e-10 -2.701873e-07) (3.811129e-07 -6.898364e-11 -1.048221e-07)) ((-6.152699e-15 1.342216e-10 -8.868635e-15) (-1.038525e-12 -4.706356e-08 8.065594e-13))
