# Forces      
# CofR        : (0.000000e+00 0.000000e+00 0.000000e+00)
# Time        forces(pressure viscous)	moments(pressure viscous)
0             	((0.000000e+00 0.000000e+00 0.000000e+00) (1.763752e-07 3.382083e-10 1.904976e-02)) ((0.000000e+00 0.000000e+00 0.000000e+00) (-9.933194e-11 1.023151e-08 -2.588097e-13))
0.012         	((9.110627e-04 3.854028e-04 1.612527e+00) (1.968658e-06 1.307192e-06 1.770776e-02)) ((1.615236e-08 1.010478e-06 1.097040e-09) (1.088904e-07 -1.895166e-07 3.086566e-10))
0.0264        	((4.675268e-04 1.509926e-04 -6.019261e-01) (1.870738e-06 1.720498e-06 1.450666e-02)) ((4.455046e-10 -1.062649e-06 9.728319e-10) (1.474979e-07 -2.266360e-07 1.380161e-09))
0.04368       	((-1.826096e-04 -2.746116e-04 -6.146321e-02) (-3.245857e-08 5.297034e-07 1.135112e-02)) ((-1.498711e-08 -2.236760e-07 2.516970e-11) (8.363529e-08 -7.424323e-08 3.278493e-09))
0.064416      	((2.806146e-04 1.221407e-05 -3.226751e-02) (-5.204075e-07 -7.774978e-07 1.040231e-02)) ((1.055223e-08 -2.964589e-07 -9.909985e-10) (3.126229e-09 1.162100e-07 3.241487e-09))
0.0892992     	((2.240999e-04 -3.543916e-05 7.939446e-03) (9.696085e-07 -8.138289e-07 9.521127e-03)) ((-5.816542e-09 -1.759827e-07 -5.154564e-10) (-1.310501e-08 1.156185e-07 -5.961281e-09))
0.119159      	((1.756610e-04 -8.344118e-05 -1.949503e-02) (1.655525e-06 -2.481876e-07 8.496897e-03)) ((-1.598500e-08 -2.815186e-07 4.874568e-10) (6.665832e-09 3.989590e-08 -1.586873e-08))
0.154199      	((1.707171e-04 -4.690972e-05 -6.710959e-03) (2.561158e-06 -4.685339e-07 7.993148e-03)) ((-8.571907e-10 -2.541213e-07 2.695771e-10) (1.607574e-08 -3.384681e-08 -1.923051e-08))
0.194454      	((1.659968e-04 -6.422747e-05 -1.379502e-02) (4.384408e-06 -1.849529e-07 7.543327e-03)) ((-1.999591e-09 -2.963563e-07 9.633201e-11) (3.999926e-08 -1.586124e-07 -2.141225e-08))
0.239959      	((1.845554e-04 -4.010303e-05 -9.877090e-03) (5.022628e-06 2.653771e-07 7.179588e-03)) ((2.429999e-09 -2.924519e-07 2.059717e-10) (6.134398e-08 -2.297235e-07 -2.363406e-08))
0.29076       	((1.760867e-04 -4.404118e-05 -1.221703e-02) (6.101740e-06 5.650503e-07 6.932105e-03)) ((-1.265357e-09 -3.114647e-07 3.193092e-10) (8.304396e-08 -3.039994e-07 -1.967360e-08))
0.34384       	((1.869377e-04 -2.860028e-05 -1.088994e-02) (6.879677e-06 1.156137e-06 6.767904e-03)) ((-1.223376e-09 -3.089741e-07 1.035002e-10) (1.363293e-07 -3.809990e-07 -1.426714e-08))
0.3971        	((1.992186e-04 -3.117267e-05 -1.167600e-02) (7.750970e-06 1.761039e-06 6.663874e-03)) ((-1.624721e-09 -3.149429e-07 2.199413e-10) (1.974240e-07 -4.630602e-07 -1.151273e-08))
0.450721      	((2.024763e-04 -3.251005e-05 -1.121269e-02) (8.418682e-06 2.233759e-06 6.599887e-03)) ((-2.165819e-10 -3.142462e-07 2.102973e-10) (2.538565e-07 -5.470035e-07 -9.155578e-09))
0.504757      	((2.034381e-04 -3.429540e-05 -1.147648e-02) (8.890122e-06 2.566928e-06 6.560744e-03)) ((2.811017e-10 -3.186126e-07 2.469379e-10) (2.989010e-07 -6.171443e-07 -7.517937e-09))
0.559176      	((2.011585e-04 -3.344400e-05 -1.132825e-02) (9.216353e-06 2.753682e-06 6.543241e-03)) ((9.832838e-10 -3.202408e-07 3.013279e-10) (3.327483e-07 -6.709852e-07 -6.481402e-09))
0.613937      	((2.005942e-04 -3.515201e-05 -1.143549e-02) (9.505076e-06 2.905383e-06 6.540720e-03)) ((1.407886e-09 -3.239371e-07 3.780686e-10) (3.611248e-07 -7.113961e-07 -5.702677e-09))
0.669003      	((2.041346e-04 -3.570071e-05 -1.139667e-02) (9.779963e-06 3.024057e-06 6.550450e-03)) ((1.984515e-09 -3.261858e-07 3.739618e-10) (3.838399e-07 -7.439453e-07 -5.222629e-09))
0.724256      	((2.072611e-04 -3.577994e-05 -1.145595e-02) (1.002906e-05 3.099574e-06 6.569549e-03)) ((2.415130e-09 -3.288640e-07 4.314211e-10) (4.017101e-07 -7.714865e-07 -5.251262e-09))
0.779594      	((2.101861e-04 -3.463412e-05 -1.146019e-02) (1.027678e-05 3.149844e-06 6.595653e-03)) ((2.881943e-09 -3.312366e-07 4.236363e-10) (4.145973e-07 -7.947954e-07 -5.538262e-09))
0.834913      	((2.113396e-04 -3.294371e-05 -1.149144e-02) (1.049007e-05 3.171174e-06 6.626213e-03)) ((3.091732e-09 -3.339733e-07 3.976630e-10) (4.229416e-07 -8.132340e-07 -5.909438e-09))
0.890131      	((2.135959e-04 -3.078220e-05 -1.148123e-02) (1.065981e-05 3.197919e-06 6.658650e-03)) ((3.038360e-09 -3.360324e-07 3.682601e-10) (4.293896e-07 -8.275690e-07 -6.193385e-09))
0.945168      	((2.150606e-04 -2.858307e-05 -1.145206e-02) (1.080715e-05 3.237093e-06 6.690167e-03)) ((2.865909e-09 -3.377685e-07 3.832445e-10) (4.349067e-07 -8.399796e-07 -6.341867e-09))
0.999961      	((2.176797e-04 -2.608691e-05 -1.138008e-02) (1.093727e-05 3.298218e-06 6.718152e-03)) ((2.654006e-09 -3.385978e-07 4.087265e-10) (4.405682e-07 -8.515778e-07 -6.562250e-09))
1.054485      	((2.200873e-04 -2.323443e-05 -1.128635e-02) (1.104681e-05 3.373310e-06 6.740421e-03)) ((2.553222e-09 -3.385439e-07 4.128208e-10) (4.470447e-07 -8.613255e-07 -7.056746e-09))
1.108749      	((2.212433e-04 -2.194965e-05 -1.118616e-02) (1.112770e-05 3.454377e-06 6.755787e-03)) ((2.500139e-09 -3.375902e-07 3.663024e-10) (4.537368e-07 -8.685408e-07 -7.776594e-09))
1.1628        	((2.209155e-04 -2.200231e-05 -1.111167e-02) (1.117279e-05 3.527737e-06 6.764248e-03)) ((2.464136e-09 -3.362341e-07 2.980133e-10) (4.599003e-07 -8.726463e-07 -8.123505e-09))
1.216708      	((2.208019e-04 -2.239038e-05 -1.108073e-02) (1.120322e-05 3.586264e-06 6.766920e-03)) ((2.488731e-09 -3.347463e-07 2.405846e-10) (4.648680e-07 -8.745471e-07 -8.155897e-09))
1.270536      	((2.206714e-04 -2.426403e-05 -1.109379e-02) (1.124448e-05 3.630313e-06 6.765680e-03)) ((2.555481e-09 -3.336667e-07 2.271866e-10) (4.685440e-07 -8.764946e-07 -8.150293e-09))
1.324332      	((2.208437e-04 -2.609788e-05 -1.113410e-02) (1.128637e-05 3.666478e-06 6.762555e-03)) ((2.698344e-09 -3.332474e-07 2.490332e-10) (4.713221e-07 -8.795455e-07 -8.342187e-09))
1.378117      	((2.210813e-04 -2.667528e-05 -1.117742e-02) (1.131742e-05 3.685397e-06 6.759137e-03)) ((2.826412e-09 -3.334058e-07 2.719885e-10) (4.730554e-07 -8.828066e-07 -8.731282e-09))
1.431899      	((2.216195e-04 -2.640371e-05 -1.120553e-02) (1.133176e-05 3.699742e-06 6.756302e-03)) ((2.869052e-09 -3.337744e-07 2.857580e-10) (4.743546e-07 -8.854787e-07 -9.135970e-09))
1.48568       	((2.218243e-04 -2.581717e-05 -1.121393e-02) (1.134091e-05 3.721218e-06 6.754284e-03)) ((2.844100e-09 -3.340382e-07 2.861969e-10) (4.761806e-07 -8.877922e-07 -9.435646e-09))
1.539465      	((2.222075e-04 -2.524041e-05 -1.121139e-02) (1.135557e-05 3.750826e-06 6.752952e-03)) ((2.814891e-09 -3.341005e-07 2.771740e-10) (4.786752e-07 -8.902943e-07 -9.609824e-09))
1.593264      	((2.225393e-04 -2.502904e-05 -1.120862e-02) (1.138063e-05 3.777663e-06 6.752103e-03)) ((2.794810e-09 -3.340766e-07 2.631099e-10) (4.811198e-07 -8.931292e-07 -9.695383e-09))
1.647078      	((2.227744e-04 -2.489788e-05 -1.121055e-02) (1.140610e-05 3.803601e-06 6.751600e-03)) ((2.786643e-09 -3.340910e-07 2.628136e-10) (4.835181e-07 -8.958072e-07 -9.739419e-09))
1.700908      	((2.230220e-04 -2.464270e-05 -1.121423e-02) (1.142441e-05 3.823318e-06 6.751356e-03)) ((2.839369e-09 -3.341732e-07 2.690279e-10) (4.853477e-07 -8.977710e-07 -9.784340e-09))
1.754747      	((2.233326e-04 -2.443511e-05 -1.121614e-02) (1.143250e-05 3.830290e-06 6.751296e-03)) ((2.889909e-09 -3.342852e-07 2.749437e-10) (4.861114e-07 -8.987925e-07 -9.834619e-09))
1.808592      	((2.234877e-04 -2.443674e-05 -1.121495e-02) (1.143279e-05 3.831348e-06 6.751364e-03)) ((2.896773e-09 -3.343467e-07 2.771347e-10) (4.863750e-07 -8.989975e-07 -9.862078e-09))
1.862441      	((2.235254e-04 -2.450767e-05 -1.121337e-02) (1.143368e-05 3.837237e-06 6.751517e-03)) ((2.864947e-09 -3.343384e-07 2.743078e-10) (4.868976e-07 -8.990599e-07 -9.850779e-09))
1.916291      	((2.235162e-04 -2.462308e-05 -1.121255e-02) (1.144472e-05 3.846906e-06 6.751717e-03)) ((2.852459e-09 -3.343019e-07 2.672550e-10) (4.875604e-07 -8.996694e-07 -9.812467e-09))
1.970142      	((2.235729e-04 -2.471449e-05 -1.121267e-02) (1.146403e-05 3.856762e-06 6.751930e-03)) ((2.831265e-09 -3.342805e-07 2.609304e-10) (4.881393e-07 -9.008135e-07 -9.759310e-09))
2.023993      	((2.236101e-04 -2.470838e-05 -1.121254e-02) (1.148320e-05 3.867327e-06 6.752128e-03)) ((2.837951e-09 -3.342902e-07 2.655126e-10) (4.886652e-07 -9.019274e-07 -9.705741e-09))
2.077842      	((2.237270e-04 -2.453907e-05 -1.121213e-02) (1.149558e-05 3.872317e-06 6.752279e-03)) ((2.876605e-09 -3.343189e-07 2.721320e-10) (4.887042e-07 -9.025465e-07 -9.672589e-09))
2.131691      	((2.238460e-04 -2.446396e-05 -1.121152e-02) (1.149935e-05 3.869180e-06 6.752375e-03)) ((2.899407e-09 -3.343478e-07 2.762131e-10) (4.882081e-07 -9.025106e-07 -9.658030e-09))
2.18554       	((2.239075e-04 -2.454027e-05 -1.121124e-02) (1.149832e-05 3.867703e-06 6.752435e-03)) ((2.878916e-09 -3.343414e-07 2.762421e-10) (4.879213e-07 -9.021730e-07 -9.649872e-09))
2.239389      	((2.238839e-04 -2.463658e-05 -1.121105e-02) (1.150149e-05 3.873650e-06 6.752480e-03)) ((2.847887e-09 -3.342970e-07 2.705111e-10) (4.882758e-07 -9.021761e-07 -9.642344e-09))
2.293238      	((2.238742e-04 -2.472649e-05 -1.121087e-02) (1.151299e-05 3.882424e-06 6.752514e-03)) ((2.830654e-09 -3.342546e-07 2.627921e-10) (4.888693e-07 -9.028491e-07 -9.649608e-09))
2.347087      	((2.238807e-04 -2.482308e-05 -1.121066e-02) (1.152737e-05 3.891803e-06 6.752535e-03)) ((2.806571e-09 -3.342441e-07 2.605633e-10) (4.895388e-07 -9.038128e-07 -9.658730e-09))
2.400935      	((2.239003e-04 -2.473676e-05 -1.121068e-02) (1.153585e-05 3.900890e-06 6.752537e-03)) ((2.824784e-09 -3.342631e-07 2.686965e-10) (4.901566e-07 -9.044499e-07 -9.664019e-09))
2.454784      	((2.239692e-04 -2.457490e-05 -1.121079e-02) (1.153536e-05 3.900389e-06 6.752510e-03)) ((2.868353e-09 -3.343037e-07 2.762063e-10) (4.900816e-07 -9.044652e-07 -9.686783e-09))
2.508633      	((2.240471e-04 -2.450101e-05 -1.121100e-02) (1.152624e-05 3.892818e-06 6.752466e-03)) ((2.884751e-09 -3.343360e-07 2.813626e-10) (4.895793e-07 -9.038773e-07 -9.720042e-09))
2.562483      	((2.240315e-04 -2.456254e-05 -1.121109e-02) (1.151529e-05 3.888818e-06 6.752429e-03)) ((2.858640e-09 -3.343303e-07 2.809862e-10) (4.894147e-07 -9.031820e-07 -9.755412e-09))
2.616333      	((2.239628e-04 -2.463408e-05 -1.121115e-02) (1.151097e-05 3.891865e-06 6.752413e-03)) ((2.832644e-09 -3.342965e-07 2.761833e-10) (4.898158e-07 -9.029703e-07 -9.785488e-09))
2.670184      	((2.239111e-04 -2.472431e-05 -1.121118e-02) (1.151607e-05 3.896244e-06 6.752414e-03)) ((2.827988e-09 -3.342653e-07 2.676986e-10) (4.903123e-07 -9.034326e-07 -9.815530e-09))
2.724035      	((2.239463e-04 -2.472841e-05 -1.121120e-02) (1.152435e-05 3.900443e-06 6.752423e-03)) ((2.826501e-09 -3.342644e-07 2.672659e-10) (4.907896e-07 -9.041395e-07 -9.839711e-09))
2.777885      	((2.240084e-04 -2.458369e-05 -1.121126e-02) (1.152813e-05 3.901466e-06 6.752423e-03)) ((2.861163e-09 -3.342862e-07 2.737603e-10) (4.909702e-07 -9.045213e-07 -9.864450e-09))
2.831735      	((2.240859e-04 -2.447712e-05 -1.121131e-02) (1.152423e-05 3.893960e-06 6.752403e-03)) ((2.902712e-09 -3.343215e-07 2.802114e-10) (4.904969e-07 -9.043186e-07 -9.895980e-09))
2.885586      	((2.240767e-04 -2.450573e-05 -1.121130e-02) (1.151457e-05 3.884349e-06 6.752375e-03)) ((2.911051e-09 -3.343398e-07 2.837188e-10) (4.898828e-07 -9.036831e-07 -9.924772e-09))
2.939437      	((2.240219e-04 -2.457868e-05 -1.121128e-02) (1.150656e-05 3.881706e-06 6.752361e-03)) ((2.878574e-09 -3.343240e-07 2.815696e-10) (4.898029e-07 -9.031648e-07 -9.947560e-09))
2.993289      	((2.239614e-04 -2.464079e-05 -1.121124e-02) (1.150693e-05 3.886043e-06 6.752366e-03)) ((2.859751e-09 -3.342862e-07 2.754566e-10) (4.902259e-07 -9.032338e-07 -9.962033e-09))
3.04714       	((2.239612e-04 -2.469782e-05 -1.121122e-02) (1.151539e-05 3.891053e-06 6.752382e-03)) ((2.852505e-09 -3.342577e-07 2.672538e-10) (4.907028e-07 -9.038810e-07 -9.971029e-09))
3.100991      	((2.239926e-04 -2.466922e-05 -1.121121e-02) (1.152446e-05 3.895378e-06 6.752398e-03)) ((2.860123e-09 -3.342635e-07 2.692458e-10) (4.910873e-07 -9.045766e-07 -9.975851e-09))
3.154842      	((2.240489e-04 -2.450117e-05 -1.121125e-02) (1.152722e-05 3.894569e-06 6.752398e-03)) ((2.895333e-09 -3.342918e-07 2.762150e-10) (4.910297e-07 -9.048154e-07 -9.983029e-09))
3.208692      	((2.241081e-04 -2.443914e-05 -1.121129e-02) (1.152195e-05 3.886286e-06 6.752379e-03)) ((2.924453e-09 -3.343269e-07 2.819547e-10) (4.904275e-07 -9.044530e-07 -9.995538e-09))
3.262543      	((2.240878e-04 -2.451647e-05 -1.121127e-02) (1.151246e-05 3.879139e-06 6.752356e-03)) ((2.915857e-09 -3.343355e-07 2.837211e-10) (4.899264e-07 -9.037885e-07 -1.000521e-08))
3.316394      	((2.240258e-04 -2.456547e-05 -1.121125e-02) (1.150683e-05 3.880162e-06 6.752350e-03)) ((2.879680e-09 -3.343115e-07 2.801110e-10) (4.900416e-07 -9.033965e-07 -1.000880e-08))
3.370246      	((2.239759e-04 -2.461746e-05 -1.121122e-02) (1.151010e-05 3.886380e-06 6.752361e-03)) ((2.861793e-09 -3.342744e-07 2.726115e-10) (4.905314e-07 -9.036361e-07 -1.000824e-08))
3.424097      	((2.239912e-04 -2.466849e-05 -1.121119e-02) (1.151933e-05 3.892719e-06 6.752381e-03)) ((2.852913e-09 -3.342583e-07 2.663919e-10) (4.910405e-07 -9.043084e-07 -1.000245e-08))
3.477948      	((2.240336e-04 -2.458952e-05 -1.121121e-02) (1.152666e-05 3.896977e-06 6.752395e-03)) ((2.871709e-09 -3.342713e-07 2.704034e-10) (4.913553e-07 -9.048558e-07 -9.996267e-09))
3.531799      	((2.240902e-04 -2.443174e-05 -1.121126e-02) (1.152692e-05 3.893640e-06 6.752389e-03)) ((2.909458e-09 -3.343037e-07 2.771557e-10) (4.910666e-07 -9.048849e-07 -9.998477e-09))
3.585649      	((2.241154e-04 -2.441460e-05 -1.121127e-02) (1.151962e-05 3.884686e-06 6.752367e-03)) ((2.927168e-09 -3.343331e-07 2.823881e-10) (4.903959e-07 -9.043583e-07 -1.000437e-08))
3.6395        	((2.240746e-04 -2.451517e-05 -1.121125e-02) (1.151046e-05 3.879772e-06 6.752349e-03)) ((2.906812e-09 -3.343308e-07 2.829332e-10) (4.900423e-07 -9.037050e-07 -1.000984e-08))
3.693352      	((2.240132e-04 -2.456714e-05 -1.121123e-02) (1.150715e-05 3.883013e-06 6.752349e-03)) ((2.873931e-09 -3.342996e-07 2.786027e-10) (4.903071e-07 -9.034634e-07 -1.000982e-08))
3.747204      	((2.239789e-04 -2.460290e-05 -1.121121e-02) (1.151278e-05 3.889462e-06 6.752364e-03)) ((2.859303e-09 -3.342646e-07 2.702032e-10) (4.908020e-07 -9.038615e-07 -1.000875e-08))
3.801055      	((2.240061e-04 -2.463707e-05 -1.121119e-02) (1.152240e-05 3.895459e-06 6.752384e-03)) ((2.855679e-09 -3.342584e-07 2.672132e-10) (4.912661e-07 -9.045539e-07 -1.000386e-08))
3.854907      	((2.240593e-04 -2.452952e-05 -1.121122e-02) (1.152808e-05 3.897448e-06 6.752393e-03)) ((2.884346e-09 -3.342779e-07 2.726720e-10) (4.913964e-07 -9.049748e-07 -9.999914e-09))
3.908757      	((2.241199e-04 -2.441180e-05 -1.121127e-02) (1.152595e-05 3.891174e-06 6.752381e-03)) ((2.920426e-09 -3.343132e-07 2.788044e-10) (4.908968e-07 -9.048231e-07 -1.000378e-08))
3.962608      	((2.241157e-04 -2.443255e-05 -1.121127e-02) (1.151724e-05 3.882431e-06 6.752358e-03)) ((2.925291e-09 -3.343352e-07 2.828657e-10) (4.902420e-07 -9.041931e-07 -1.000852e-08))
4.01646       	((2.240565e-04 -2.452210e-05 -1.121124e-02) (1.150902e-05 3.880124e-06 6.752345e-03)) ((2.893884e-09 -3.343238e-07 2.820200e-10) (4.900813e-07 -9.036058e-07 -1.001311e-08))
4.070311      	((2.239955e-04 -2.458194e-05 -1.121122e-02) (1.150818e-05 3.885144e-06 6.752351e-03)) ((2.867797e-09 -3.342905e-07 2.764403e-10) (4.904675e-07 -9.035353e-07 -1.001388e-08))
4.124163      	((2.239887e-04 -2.461613e-05 -1.121121e-02) (1.151544e-05 3.891810e-06 6.752368e-03)) ((2.857934e-09 -3.342597e-07 2.682913e-10) (4.909793e-07 -9.040459e-07 -1.001040e-08))
4.178015      	((2.240237e-04 -2.459739e-05 -1.121120e-02) (1.152454e-05 3.897069e-06 6.752387e-03)) ((2.863597e-09 -3.342601e-07 2.684585e-10) (4.913716e-07 -9.047049e-07 -1.000333e-08))
4.231866      	((2.240685e-04 -2.447126e-05 -1.121123e-02) (1.152847e-05 3.896349e-06 6.752390e-03)) ((2.895460e-09 -3.342846e-07 2.749961e-10) (4.912838e-07 -9.050005e-07 -9.999687e-09))
4.285716      	((2.241176e-04 -2.442072e-05 -1.121127e-02) (1.152444e-05 3.888110e-06 6.752374e-03)) ((2.925064e-09 -3.343203e-07 2.805078e-10) (4.906565e-07 -9.047116e-07 -1.000395e-08))
4.339568      	((2.241030e-04 -2.448696e-05 -1.121126e-02) (1.151519e-05 3.880749e-06 6.752353e-03)) ((2.918754e-09 -3.343346e-07 2.831849e-10) (4.901127e-07 -9.040453e-07 -1.000996e-08))
4.393419      	((2.240424e-04 -2.453209e-05 -1.121124e-02) (1.150842e-05 3.881355e-06 6.752345e-03)) ((2.881334e-09 -3.343160e-07 2.809032e-10) (4.901668e-07 -9.035572e-07 -1.001627e-08))
4.447271      	((2.239867e-04 -2.458464e-05 -1.121121e-02) (1.150992e-05 3.887806e-06 6.752355e-03)) ((2.860390e-09 -3.342802e-07 2.742129e-10) (4.906606e-07 -9.036527e-07 -1.001906e-08))
4.501123      	((2.239928e-04 -2.464076e-05 -1.121120e-02) (1.151832e-05 3.894423e-06 6.752375e-03)) ((2.856149e-09 -3.342574e-07 2.673850e-10) (4.911755e-07 -9.042480e-07 -1.001411e-08))
4.554974      	((2.240309e-04 -2.456763e-05 -1.121121e-02) (1.152645e-05 3.897865e-06 6.752389e-03)) ((2.875917e-09 -3.342652e-07 2.701617e-10) (4.914200e-07 -9.048401e-07 -1.000554e-08))
4.608825      	((2.240805e-04 -2.441507e-05 -1.121126e-02) (1.152824e-05 3.893880e-06 6.752386e-03)) ((2.909001e-09 -3.342950e-07 2.762851e-10) (4.910824e-07 -9.049784e-07 -1.000232e-08))
4.662676      	((2.241189e-04 -2.441589e-05 -1.121127e-02) (1.152209e-05 3.884853e-06 6.752366e-03)) ((2.924886e-09 -3.343278e-07 2.814031e-10) (4.904030e-07 -9.045373e-07 -1.000471e-08))
4.716527      	((2.240855e-04 -2.451772e-05 -1.121125e-02) (1.151264e-05 3.879960e-06 6.752348e-03)) ((2.906942e-09 -3.343318e-07 2.828873e-10) (4.900457e-07 -9.038634e-07 -1.001003e-08))
4.770379      	((2.240243e-04 -2.455879e-05 -1.121123e-02) (1.150787e-05 3.883116e-06 6.752347e-03)) ((2.873771e-09 -3.343061e-07 2.796050e-10) (4.902968e-07 -9.035147e-07 -1.001553e-08))
4.824231      	((2.239838e-04 -2.459081e-05 -1.121122e-02) (1.151180e-05 3.889878e-06 6.752360e-03)) ((2.858127e-09 -3.342710e-07 2.718608e-10) (4.908150e-07 -9.037820e-07 -1.001850e-08))
4.878082      	((2.240034e-04 -2.462526e-05 -1.121120e-02) (1.152092e-05 3.895856e-06 6.752379e-03)) ((2.859085e-09 -3.342561e-07 2.680637e-10) (4.912730e-07 -9.044312e-07 -1.001329e-08))
4.931934      	((2.240475e-04 -2.452142e-05 -1.121123e-02) (1.152786e-05 3.897054e-06 6.752390e-03)) ((2.886599e-09 -3.342696e-07 2.726138e-10) (4.913425e-07 -9.049409e-07 -1.000545e-08))
4.985785      	((2.241012e-04 -2.440956e-05 -1.121127e-02) (1.152764e-05 3.890370e-06 6.752380e-03)) ((2.918816e-09 -3.343037e-07 2.778690e-10) (4.908154e-07 -9.049324e-07 -1.000465e-08))
5.039636      	((2.241180e-04 -2.444421e-05 -1.121126e-02) (1.151993e-05 3.881830e-06 6.752359e-03)) ((2.922147e-09 -3.343321e-07 2.820181e-10) (4.901783e-07 -9.043756e-07 -1.000859e-08))
5.093487      	((2.240675e-04 -2.452690e-05 -1.121124e-02) (1.151092e-05 3.879781e-06 6.752346e-03)) ((2.893603e-09 -3.343273e-07 2.822015e-10) (4.900359e-07 -9.037345e-07 -1.001597e-08))
5.147339      	((2.240080e-04 -2.457343e-05 -1.121123e-02) (1.150823e-05 3.884943e-06 6.752349e-03)) ((2.866861e-09 -3.342979e-07 2.773637e-10) (4.904365e-07 -9.035301e-07 -1.002240e-08))
5.201191      	((2.239921e-04 -2.460387e-05 -1.121122e-02) (1.151393e-05 3.891881e-06 6.752365e-03)) ((2.858277e-09 -3.342644e-07 2.699252e-10) (4.909669e-07 -9.039222e-07 -1.002214e-08))
5.255042      	((2.240205e-04 -2.458490e-05 -1.121121e-02) (1.152314e-05 3.896491e-06 6.752383e-03)) ((2.868738e-09 -3.342554e-07 2.693198e-10) (4.913066e-07 -9.045857e-07 -1.001425e-08))
5.308894      	((2.240578e-04 -2.446739e-05 -1.121123e-02) (1.152874e-05 3.894517e-06 6.752387e-03)) ((2.898536e-09 -3.342746e-07 2.748750e-10) (4.911262e-07 -9.050049e-07 -1.000643e-08))
5.362745      	((2.241088e-04 -2.443105e-05 -1.121127e-02) (1.152652e-05 3.886033e-06 6.752372e-03)) ((2.923280e-09 -3.343120e-07 2.794174e-10) (4.904817e-07 -9.048498e-07 -1.000603e-08))
5.416596      	((2.241103e-04 -2.450080e-05 -1.121125e-02) (1.151766e-05 3.879449e-06 6.752353e-03)) ((2.914868e-09 -3.343339e-07 2.824531e-10) (4.899944e-07 -9.042122e-07 -1.001134e-08))
5.470447      	((2.240519e-04 -2.453531e-05 -1.121124e-02) (1.150964e-05 3.880772e-06 6.752345e-03)) ((2.880234e-09 -3.343216e-07 2.813003e-10) (4.901008e-07 -9.036362e-07 -1.002233e-08))
5.524299      	((2.239991e-04 -2.458923e-05 -1.121122e-02) (1.150919e-05 3.887508e-06 6.752353e-03)) ((2.859279e-09 -3.342893e-07 2.755199e-10) (4.906183e-07 -9.035849e-07 -1.003152e-08))
5.578151      	((2.239943e-04 -2.463403e-05 -1.121120e-02) (1.151636e-05 3.893991e-06 6.752371e-03)) ((2.860235e-09 -3.342586e-07 2.692349e-10) (4.911210e-07 -9.040882e-07 -1.002842e-08))
5.632003      	((2.240239e-04 -2.455062e-05 -1.121122e-02) (1.152532e-05 3.896190e-06 6.752385e-03)) ((2.881690e-09 -3.342568e-07 2.711926e-10) (4.912718e-07 -9.047388e-07 -1.001589e-08))
5.685854      	((2.240651e-04 -2.441308e-05 -1.121126e-02) (1.152936e-05 3.890998e-06 6.752382e-03)) ((2.911234e-09 -3.342826e-07 2.759602e-10) (4.908453e-07 -9.050450e-07 -1.000670e-08))
5.739705      	((2.241154e-04 -2.443096e-05 -1.121126e-02) (1.152501e-05 3.882262e-06 6.752365e-03)) ((2.921289e-09 -3.343203e-07 2.801831e-10) (4.901865e-07 -9.047386e-07 -1.000567e-08))
5.793556      	((2.240967e-04 -2.452715e-05 -1.121124e-02) (1.151538e-05 3.878618e-06 6.752349e-03)) ((2.901434e-09 -3.343335e-07 2.824874e-10) (4.899228e-07 -9.040516e-07 -1.001273e-08))
5.847408      	((2.240376e-04 -2.457082e-05 -1.121123e-02) (1.150880e-05 3.882672e-06 6.752346e-03)) ((2.871411e-09 -3.343143e-07 2.801695e-10) (4.902391e-07 -9.035724e-07 -1.002582e-08))
5.90126       	((2.239911e-04 -2.459344e-05 -1.121122e-02) (1.151056e-05 3.889802e-06 6.752358e-03)) ((2.858899e-09 -3.342801e-07 2.734331e-10) (4.907901e-07 -9.036775e-07 -1.003391e-08))
5.955112      	((2.239954e-04 -2.460709e-05 -1.121120e-02) (1.151885e-05 3.895054e-06 6.752375e-03)) ((2.866373e-09 -3.342544e-07 2.698877e-10) (4.911884e-07 -9.042635e-07 -1.002833e-08))
6.008963      	((2.240280e-04 -2.450441e-05 -1.121123e-02) (1.152716e-05 3.894469e-06 6.752384e-03)) ((2.892484e-09 -3.342595e-07 2.734325e-10) (4.911173e-07 -9.048732e-07 -1.001417e-08))
6.062815      	((2.240791e-04 -2.442060e-05 -1.121126e-02) (1.152934e-05 3.887012e-06 6.752376e-03)) ((2.918735e-09 -3.342916e-07 2.771130e-10) (4.905353e-07 -9.050434e-07 -1.000568e-08))
6.116666      	((2.241215e-04 -2.447408e-05 -1.121126e-02) (1.152306e-05 3.879483e-06 6.752359e-03)) ((2.916522e-09 -3.343265e-07 2.808255e-10) (4.899711e-07 -9.045948e-07 -1.000705e-08))
6.170518      	((2.240796e-04 -2.453620e-05 -1.121124e-02) (1.151337e-05 3.878942e-06 6.752346e-03)) ((2.888825e-09 -3.343308e-07 2.820978e-10) (4.899387e-07 -9.039039e-07 -1.001859e-08))
6.22437       	((2.240219e-04 -2.457631e-05 -1.121123e-02) (1.150863e-05 3.884884e-06 6.752349e-03)) ((2.863781e-09 -3.343073e-07 2.784356e-10) (4.904052e-07 -9.035491e-07 -1.003478e-08))
6.278222      	((2.239931e-04 -2.459729e-05 -1.121121e-02) (1.151230e-05 3.891912e-06 6.752362e-03)) ((2.860676e-09 -3.342724e-07 2.719431e-10) (4.909478e-07 -9.037896e-07 -1.004005e-08))
6.332073      	((2.240079e-04 -2.456125e-05 -1.121121e-02) (1.152122e-05 3.895158e-06 6.752377e-03)) ((2.876393e-09 -3.342521e-07 2.710229e-10) (4.911816e-07 -9.044279e-07 -1.003011e-08))
6.385925      	((2.240375e-04 -2.445820e-05 -1.121124e-02) (1.152857e-05 3.891351e-06 6.752381e-03)) ((2.903864e-09 -3.342641e-07 2.749284e-10) (4.908626e-07 -9.049768e-07 -1.001509e-08))
6.439776      	((2.240957e-04 -2.444285e-05 -1.121126e-02) (1.152860e-05 3.882873e-06 6.752370e-03)) ((2.920583e-09 -3.343015e-07 2.779906e-10) (4.902170e-07 -9.049920e-07 -1.000705e-08))
6.493627      	((2.241202e-04 -2.451613e-05 -1.121125e-02) (1.152064e-05 3.877863e-06 6.752353e-03)) ((2.907308e-09 -3.343313e-07 2.813130e-10) (4.898445e-07 -9.044186e-07 -1.001126e-08))
6.547479      	((2.240655e-04 -2.455098e-05 -1.121124e-02) (1.151152e-05 3.880435e-06 6.752346e-03)) ((2.876897e-09 -3.343267e-07 2.815747e-10) (4.900470e-07 -9.037626e-07 -1.002820e-08))
6.601331      	((2.240112e-04 -2.458859e-05 -1.121122e-02) (1.150885e-05 3.887506e-06 6.752352e-03)) ((2.859109e-09 -3.342998e-07 2.768071e-10) (4.905989e-07 -9.035495e-07 -1.004615e-08))
6.655183      	((2.239946e-04 -2.461146e-05 -1.121121e-02) (1.151425e-05 3.893505e-06 6.752366e-03)) ((2.865713e-09 -3.342637e-07 2.717415e-10) (4.910623e-07 -9.039198e-07 -1.004683e-08))
6.709035      	((2.240142e-04 -2.452775e-05 -1.121122e-02) (1.152354e-05 3.893976e-06 6.752378e-03)) ((2.888468e-09 -3.342497e-07 2.729064e-10) (4.910801e-07 -9.045929e-07 -1.003006e-08))
6.762886      	((2.240489e-04 -2.442352e-05 -1.121126e-02) (1.152981e-05 3.887461e-06 6.752377e-03)) ((2.914273e-09 -3.342697e-07 2.758679e-10) (4.905569e-07 -9.050663e-07 -1.001295e-08))
6.816738      	((2.241082e-04 -2.445810e-05 -1.121126e-02) (1.152773e-05 3.879342e-06 6.752364e-03)) ((2.916871e-09 -3.343106e-07 2.787393e-10) (4.899412e-07 -9.049272e-07 -1.000690e-08))
6.870589      	((2.241092e-04 -2.453703e-05 -1.121124e-02) (1.151851e-05 3.877313e-06 6.752350e-03)) ((2.894305e-09 -3.343334e-07 2.814667e-10) (4.897959e-07 -9.042661e-07 -1.001592e-08))
6.924442      	((2.240528e-04 -2.457556e-05 -1.121123e-02) (1.151034e-05 3.882343e-06 6.752347e-03)) ((2.868050e-09 -3.343219e-07 2.805202e-10) (4.901875e-07 -9.036708e-07 -1.003821e-08))
6.978294      	((2.240038e-04 -2.459698e-05 -1.121122e-02) (1.150961e-05 3.889704e-06 6.752355e-03)) ((2.859970e-09 -3.342917e-07 2.753240e-10) (4.907656e-07 -9.035918e-07 -1.005415e-08))
7.032146      	((2.239934e-04 -2.459031e-05 -1.121121e-02) (1.151638e-05 3.894012e-06 6.752369e-03)) ((2.874502e-09 -3.342571e-07 2.726975e-10) (4.910881e-07 -9.040647e-07 -1.005003e-08))
7.085997      	((2.240106e-04 -2.448817e-05 -1.121123e-02) (1.152555e-05 3.891494e-06 6.752377e-03)) ((2.899536e-09 -3.342511e-07 2.748669e-10) (4.908641e-07 -9.047381e-07 -1.003007e-08))
7.139849      	((2.240593e-04 -2.443260e-05 -1.121126e-02) (1.153016e-05 3.883350e-06 6.752371e-03)) ((2.918744e-09 -3.342789e-07 2.764889e-10) (4.902344e-07 -9.050888e-07 -1.001298e-08))
7.1937        	((2.241180e-04 -2.450347e-05 -1.121125e-02) (1.152582e-05 3.877089e-06 6.752358e-03)) ((2.909193e-09 -3.343191e-07 2.793931e-10) (4.897634e-07 -9.047838e-07 -1.001049e-08))
7.247552      	((2.240918e-04 -2.455112e-05 -1.121124e-02) (1.151602e-05 3.878206e-06 6.752347e-03)) ((2.882524e-09 -3.343331e-07 2.817884e-10) (4.898542e-07 -9.040805e-07 -1.002517e-08))
7.301404      	((2.240384e-04 -2.458076e-05 -1.121123e-02) (1.150949e-05 3.884678e-06 6.752348e-03)) ((2.863474e-09 -3.343157e-07 2.795663e-10) (4.903608e-07 -9.035939e-07 -1.004981e-08))
7.355257      	((2.239991e-04 -2.459546e-05 -1.121122e-02) (1.151099e-05 3.891013e-06 6.752358e-03)) ((2.866031e-09 -3.342816e-07 2.748666e-10) (4.908556e-07 -9.036734e-07 -1.006069e-08))
7.409108      	((2.239961e-04 -2.454046e-05 -1.121122e-02) (1.151900e-05 3.892545e-06 6.752370e-03)) ((2.885063e-09 -3.342512e-07 2.739145e-10) (4.909623e-07 -9.042448e-07 -1.004801e-08))
7.46296       	((2.240187e-04 -2.444877e-05 -1.121125e-02) (1.152764e-05 3.887378e-06 6.752373e-03)) ((2.909133e-09 -3.342550e-07 2.755635e-10) (4.905364e-07 -9.048888e-07 -1.002498e-08))
7.516812      	((2.240801e-04 -2.445972e-05 -1.121125e-02) (1.153000e-05 3.879406e-06 6.752365e-03)) ((2.916341e-09 -3.342900e-07 2.771210e-10) (4.899219e-07 -9.050775e-07 -1.001013e-08))
7.570663      	((2.241223e-04 -2.453340e-05 -1.121125e-02) (1.152352e-05 3.876166e-06 6.752353e-03)) ((2.898207e-09 -3.343257e-07 2.800642e-10) (4.896794e-07 -9.046147e-07 -1.001389e-08))
7.624516      	((2.240791e-04 -2.456369e-05 -1.121124e-02) (1.151389e-05 3.879936e-06 6.752346e-03)) ((2.873503e-09 -3.343304e-07 2.816831e-10) (4.899731e-07 -9.039178e-07 -1.003636e-08))
7.678368      	((2.240272e-04 -2.459116e-05 -1.121123e-02) (1.150927e-05 3.886646e-06 6.752350e-03)) ((2.863337e-09 -3.343082e-07 2.787233e-10) (4.905056e-07 -9.035618e-07 -1.006148e-08))
7.73222       	((2.239976e-04 -2.459097e-05 -1.121122e-02) (1.151270e-05 3.891220e-06 6.752360e-03)) ((2.874606e-09 -3.342714e-07 2.753486e-10) (4.908604e-07 -9.037853e-07 -1.006608e-08))
7.786072      	((2.239964e-04 -2.450464e-05 -1.121123e-02) (1.152154e-05 3.889958e-06 6.752369e-03)) ((2.895725e-09 -3.342478e-07 2.754228e-10) (4.907414e-07 -9.044272e-07 -1.004706e-08))
7.839924      	((2.240301e-04 -2.444511e-05 -1.121126e-02) (1.152919e-05 3.883042e-06 6.752369e-03)) ((2.914685e-09 -3.342611e-07 2.761215e-10) (4.901922e-07 -9.050042e-07 -1.002410e-08))
7.893775      	((2.240973e-04 -2.449397e-05 -1.121125e-02) (1.152913e-05 3.876514e-06 6.752360e-03)) ((2.909950e-09 -3.343016e-07 2.776200e-10) (4.896913e-07 -9.050125e-07 -1.001389e-08))
7.947627      	((2.241183e-04 -2.454744e-05 -1.121124e-02) (1.152098e-05 3.876384e-06 6.752350e-03)) ((2.886634e-09 -3.343308e-07 2.806407e-10) (4.896859e-07 -9.044229e-07 -1.002418e-08))
8.00148       	((2.240669e-04 -2.457270e-05 -1.121124e-02) (1.151211e-05 3.881860e-06 6.752346e-03)) ((2.867637e-09 -3.343266e-07 2.811303e-10) (4.901171e-07 -9.037743e-07 -1.005188e-08))
8.055332      	((2.240174e-04 -2.459560e-05 -1.121122e-02) (1.150954e-05 3.887978e-06 6.752352e-03)) ((2.867593e-09 -3.342995e-07 2.780103e-10) (4.906040e-07 -9.035639e-07 -1.007340e-08))
8.109184      	((2.239958e-04 -2.456234e-05 -1.121122e-02) (1.151476e-05 3.890235e-06 6.752361e-03)) ((2.884429e-09 -3.342615e-07 2.762753e-10) (4.907726e-07 -9.039244e-07 -1.006904e-08))
8.163036      	((2.239975e-04 -2.447247e-05 -1.121124e-02) (1.152397e-05 3.886445e-06 6.752367e-03)) ((2.905644e-09 -3.342473e-07 2.763060e-10) (4.904524e-07 -9.046044e-07 -1.004423e-08))
8.216888      	((2.240471e-04 -2.445378e-05 -1.121125e-02) (1.152999e-05 3.879221e-06 6.752364e-03)) ((2.914289e-09 -3.342707e-07 2.761383e-10) (4.898899e-07 -9.050607e-07 -1.002136e-08))