# Forces      
# CofR        : (0.000000e+00 0.000000e+00 0.000000e+00)
# Time        forces(pressure viscous)	moments(pressure viscous)
0             	((0.000000e+00 0.000000e+00 0.000000e+00) (0.000000e+00 0.000000e+00 0.000000e+00)) ((0.000000e+00 0.000000e+00 0.000000e+00) (0.000000e+00 0.000000e+00 0.000000e+00))
0.012         	((2.686809e-05 -1.084515e-09 8.463174e-06) (6.626618e-05 -3.134915e-13 3.725004e-09)) ((4.417479e-13 -4.357678e-09 3.481671e-13) (4.910172e-14 -4.409850e-06 2.338755e-14))
0.0264        	((3.989677e-05 -2.245847e-08 1.334799e-05) (6.070644e-05 -6.627815e-12 -3.403320e-09)) ((2.575193e-13 2.152742e-09 9.098588e-14) (1.942515e-13 -4.044271e-06 -1.562643e-13))
0.04368       	((2.534040e-05 1.336659e-08 8.045715e-06) (5.498744e-05 4.885371e-12 -1.654639e-08)) ((5.190999e-13 1.477173e-09 2.590007e-13) (5.631808e-13 -3.669528e-06 -5.537077e-13))
0.064416      	((3.008357e-05 -1.659305e-08 9.894801e-06) (4.925046e-05 1.119595e-11 -3.366507e-08)) ((3.593780e-13 2.950870e-09 -1.862632e-14) (3.123305e-13 -3.295122e-06 -1.333387e-12))
0.0892992     	((2.149570e-05 7.561786e-09 6.892532e-06) (4.367454e-05 2.064469e-11 -5.386309e-08)) ((8.630303e-14 2.047370e-09 2.368564e-13) (5.419960e-13 -2.932849e-06 -1.329608e-12))
0.119159      	((2.261806e-05 -7.973983e-09 7.193210e-06) (3.844819e-05 1.583566e-11 -7.671921e-08)) ((2.139544e-13 2.509162e-09 7.098661e-14) (4.623183e-13 -2.595254e-06 -1.220694e-12))
0.154991      	((1.691738e-05 3.853521e-09 5.441651e-06) (3.373485e-05 7.957743e-12 -1.045160e-07)) ((-8.721570e-14 1.724647e-09 1.516818e-13) (7.951541e-13 -2.289953e-06 -1.416330e-12))
0.197989      	((1.695312e-05 -3.434942e-09 5.202111e-06) (2.959132e-05 5.915879e-12 -1.385158e-07)) ((5.537110e-14 1.995680e-09 5.694995e-14) (5.863287e-13 -2.021073e-06 -1.464452e-12))
0.249587      	((1.326505e-05 1.751799e-09 4.167849e-06) (2.602321e-05 4.984216e-12 -1.764057e-07)) ((-1.316064e-13 1.453848e-09 5.601015e-14) (8.116393e-14 -1.787841e-06 -1.497228e-12))
0.311504      	((1.294762e-05 -1.029359e-09 3.782839e-06) (2.299277e-05 4.148191e-12 -2.101500e-07)) ((-9.662353e-14 1.643100e-09 4.349548e-14) (-4.433182e-15 -1.588566e-06 -1.260760e-12))
0.385805      	((1.059934e-05 -4.116147e-10 3.161364e-06) (2.041887e-05 2.369068e-12 -2.443859e-07)) ((-5.276955e-14 1.294587e-09 5.732646e-14) (-3.059941e-13 -1.418347e-06 -1.460157e-12))
0.474966      	((1.010401e-05 -4.264089e-10 2.775293e-06) (1.821170e-05 4.421721e-12 -2.663061e-07)) ((-2.334298e-13 1.386437e-09 2.722315e-14) (1.203154e-13 -1.272124e-06 -1.789628e-12))
0.581959      	((8.563503e-06 -1.286157e-09 2.367107e-06) (1.630840e-05 1.000221e-11 -2.918756e-07)) ((-4.541048e-14 1.179172e-09 -9.241230e-15) (-1.101827e-12 -1.146020e-06 -1.564469e-12))
0.710351      	((8.072497e-06 -7.950943e-11 2.047598e-06) (1.465730e-05 2.567979e-11 -3.124061e-07)) ((-3.174769e-13 1.192472e-09 5.519710e-15) (-1.814893e-12 -1.036780e-06 -1.623219e-12))
0.864421      	((7.018722e-06 -7.528190e-10 1.721259e-06) (1.321019e-05 1.998394e-11 -3.366660e-07)) ((-1.931714e-13 1.076804e-09 -8.464423e-14) (-1.286365e-12 -9.412939e-07 -1.060198e-12))
1.049306      	((6.547083e-06 5.569869e-10 1.420392e-06) (1.192978e-05 1.238837e-11 -3.571402e-07)) ((-2.958801e-13 1.062120e-09 -1.781037e-13) (4.519624e-13 -8.571808e-07 2.463294e-13))
1.271167      	((5.786208e-06 3.635357e-10 1.132051e-06) (1.078647e-05 2.287089e-11 -3.790936e-07)) ((-2.522675e-13 9.860541e-10 -2.911105e-13) (3.238853e-12 -7.824358e-07 1.076394e-12))
1.5374        	((5.363625e-06 1.968012e-10 8.667894e-07) (9.763816e-06 1.102707e-11 -3.979189e-07)) ((-2.569835e-13 9.631256e-10 -3.186169e-13) (5.630832e-12 -7.158426e-07 3.630226e-13))
1.85688       	((4.775873e-06 3.134156e-10 6.278286e-07) (8.851772e-06 -3.834240e-11 -4.145011e-07)) ((-2.411549e-13 9.087740e-10 -2.752722e-13) (7.282399e-12 -6.565638e-07 -2.549923e-12))
2.240256      	((4.411751e-06 -2.520706e-10 4.011188e-07) (8.044948e-06 -7.576546e-11 -4.271595e-07)) ((-1.849058e-13 8.888109e-10 -2.675369e-13) (9.149352e-12 -6.043023e-07 -7.166455e-12))
2.700307      	((3.972062e-06 -9.573803e-10 1.959163e-07) (7.337662e-06 -1.948419e-10 -4.390659e-07)) ((-1.664358e-13 8.509433e-10 -2.775952e-13) (1.086581e-11 -5.586145e-07 -1.339024e-11))
3.252369      	((3.685990e-06 -1.587113e-09 -1.283547e-08) (6.720295e-06 -3.163526e-10 -4.525454e-07)) ((-1.723379e-13 8.374681e-10 -2.889967e-13) (1.186910e-11 -5.188620e-07 -2.031439e-11))
3.914842      	((3.363175e-06 -1.590372e-09 -2.022548e-07) (6.179656e-06 -3.064965e-10 -4.679475e-07)) ((-1.834730e-13 8.145503e-10 -2.085902e-13) (1.261783e-11 -4.841812e-07 -2.611143e-11))
4.709811      	((3.144498e-06 -2.267438e-09 -4.051878e-07) (5.702138e-06 -1.730114e-10 -4.851230e-07)) ((-1.457941e-13 8.074335e-10 -1.509273e-13) (1.175678e-11 -4.537004e-07 -2.734946e-11))
5.663773      	((2.913489e-06 -2.140069e-09 -6.054720e-07) (5.275548e-06 -1.263345e-10 -5.037175e-07)) ((-4.714257e-14 7.947727e-10 -1.206331e-13) (1.134072e-11 -4.266438e-07 -2.576072e-11))
6.808528      	((2.755069e-06 -2.491891e-09 -8.025058e-07) (4.891400e-06 -9.496808e-11 -5.243107e-07)) ((6.698135e-14 7.896451e-10 -1.922294e-13) (1.169864e-11 -4.024347e-07 -2.110638e-11))
8.182233      	((2.597337e-06 -2.058368e-09 -9.968862e-07) (4.543718e-06 -5.758348e-11 -5.456070e-07)) ((1.343259e-13 7.825783e-10 -1.950175e-13) (1.483536e-11 -3.807021e-07 -1.285887e-11))
9.83068       	((2.479259e-06 -2.734570e-09 -1.188064e-06) (4.227052e-06 -1.413661e-10 -5.703136e-07)) ((1.480157e-13 7.806851e-10 -1.986562e-13) (2.183021e-11 -3.611497e-07 -6.193212e-12))
11.808816     	((2.366419e-06 -2.600314e-09 -1.384695e-06) (3.937502e-06 -1.732875e-10 -5.996376e-07)) ((7.459222e-14 7.786866e-10 -1.675551e-13) (2.448697e-11 -3.435113e-07 -6.214958e-13))
14.182579     	((2.288007e-06 -2.734855e-09 -1.582219e-06) (3.673661e-06 -2.233605e-10 -6.321871e-07)) ((3.731325e-14 7.795821e-10 -1.298683e-13) (2.071305e-11 -3.276331e-07 5.058742e-12))
17.031095     	((2.220483e-06 -2.317908e-09 -1.776796e-06) (3.435131e-06 -2.743845e-10 -6.693089e-07)) ((2.685345e-14 7.799584e-10 -9.095683e-14) (1.397584e-11 -3.134526e-07 9.640951e-12))
20.449314     	((2.186983e-06 -1.989290e-09 -1.969836e-06) (3.222517e-06 -4.907073e-10 -7.106577e-07)) ((-1.015482e-14 7.819322e-10 -3.277213e-14) (7.736277e-12 -3.009776e-07 1.213843e-11))
24.551176     	((2.169724e-06 -1.539680e-09 -2.160598e-06) (3.036697e-06 -5.270299e-10 -7.564966e-07)) ((-2.889378e-14 7.848651e-10 -2.246370e-14) (9.207580e-13 -2.901874e-07 1.130851e-11))
29.473411     	((2.177031e-06 -1.374964e-09 -2.332211e-06) (2.878591e-06 -6.086441e-10 -8.053860e-07)) ((-5.394801e-14 7.885780e-10 -1.387373e-14) (-7.568937e-12 -2.810102e-07 9.163738e-12))
35.282565     	((2.194237e-06 -1.131491e-09 -2.486246e-06) (2.748561e-06 -6.521555e-10 -8.573417e-07)) ((-9.073330e-14 7.918181e-10 -3.040864e-14) (-1.357090e-11 -2.733544e-07 5.359074e-12))
41.977391     	((2.234277e-06 -1.087839e-09 -2.619152e-06) (2.646610e-06 -7.039732e-10 -9.100073e-07)) ((-7.512849e-14 7.946046e-10 -6.569316e-14) (-1.761474e-11 -2.671102e-07 1.636228e-12))
49.557325     	((2.292787e-06 -1.028728e-09 -2.737766e-06) (2.571109e-06 -7.541559e-10 -9.597207e-07)) ((-9.388457e-14 7.969092e-10 -7.242545e-14) (-1.979430e-11 -2.621348e-07 -1.021417e-12))
58.02237      	((2.374883e-06 -1.185192e-09 -2.849917e-06) (2.520170e-06 -7.646837e-10 -1.002900e-06)) ((-8.060011e-14 7.995924e-10 -8.014139e-14) (-2.183322e-11 -2.583419e-07 -2.169199e-12))
66.878991     	((2.458040e-06 -1.301178e-09 -2.946860e-06) (2.490762e-06 -7.865413e-10 -1.036720e-06)) ((-6.823958e-14 8.029495e-10 -7.518818e-14) (-2.488956e-11 -2.556834e-07 -2.841157e-12))
75.746009     	((2.530833e-06 -1.203729e-09 -3.023682e-06) (2.476611e-06 -7.955471e-10 -1.060195e-06)) ((-5.696487e-14 8.066962e-10 -7.429449e-14) (-2.777177e-11 -2.539425e-07 -3.770957e-12))
84.628609     	((2.587385e-06 -1.079424e-09 -3.082070e-06) (2.471398e-06 -8.043663e-10 -1.075237e-06)) ((-5.493495e-14 8.100712e-10 -7.026952e-14) (-3.030817e-11 -2.528544e-07 -5.575466e-12))
93.530458     	((2.629145e-06 -8.959915e-10 -3.125265e-06) (2.470662e-06 -7.938493e-10 -1.084213e-06)) ((-5.473390e-14 8.129042e-10 -7.348717e-14) (-3.199267e-11 -2.522020e-07 -8.315726e-12))
102.452463    	((2.658201e-06 -9.028478e-10 -3.157691e-06) (2.471681e-06 -7.981789e-10 -1.089473e-06)) ((-5.514877e-14 8.152657e-10 -7.544460e-14) (-3.338457e-11 -2.518101e-07 -1.153095e-11))
111.392       	((2.678214e-06 -9.285234e-10 -3.182562e-06) (2.473127e-06 -8.176306e-10 -1.092600e-06)) ((-5.415766e-14 8.170938e-10 -7.750776e-14) (-3.409748e-11 -2.515722e-07 -1.496999e-11))
120.346734    	((2.690069e-06 -9.966669e-10 -3.201269e-06) (2.474333e-06 -8.443315e-10 -1.094608e-06)) ((-5.228997e-14 8.183075e-10 -7.833012e-14) (-3.429569e-11 -2.514206e-07 -1.814373e-11))
129.313936    	((2.697730e-06 -1.060995e-09 -3.215052e-06) (2.475187e-06 -8.627781e-10 -1.095949e-06)) ((-4.641754e-14 8.192054e-10 -7.958233e-14) (-3.437350e-11 -2.513245e-07 -2.064304e-11))
138.290887    	((2.703361e-06 -1.123428e-09 -3.225316e-06) (2.475850e-06 -8.768354e-10 -1.096869e-06)) ((-4.200294e-14 8.200068e-10 -8.008774e-14) (-3.458166e-11 -2.512696e-07 -2.233563e-11))
147.274943    	((2.707469e-06 -1.103833e-09 -3.233175e-06) (2.476448e-06 -8.819477e-10 -1.097711e-06)) ((-3.986033e-14 8.206684e-10 -8.067295e-14) (-3.463311e-11 -2.512399e-07 -2.350214e-11))
156.264016    	((2.709707e-06 -1.091565e-09 -3.239876e-06) (2.477045e-06 -8.807928e-10 -1.098682e-06)) ((-3.797415e-14 8.209928e-10 -8.135779e-14) (-3.451480e-11 -2.512236e-07 -2.433711e-11))
165.256962    	((2.711348e-06 -1.118131e-09 -3.245558e-06) (2.477697e-06 -8.774766e-10 -1.099769e-06)) ((-3.618745e-14 8.211261e-10 -8.251875e-14) (-3.427004e-11 -2.512180e-07 -2.501808e-11))
174.253005    	((2.712509e-06 -1.154175e-09 -3.250593e-06) (2.478451e-06 -8.755072e-10 -1.100929e-06)) ((-3.478522e-14 8.211867e-10 -8.341137e-14) (-3.393628e-11 -2.512203e-07 -2.566522e-11))
183.251588    	((2.713827e-06 -1.150624e-09 -3.254744e-06) (2.479345e-06 -8.738838e-10 -1.102088e-06)) ((-3.487646e-14 8.212289e-10 -8.404748e-14) (-3.358754e-11 -2.512301e-07 -2.619733e-11))
192.252283    	((2.714968e-06 -1.115690e-09 -3.258065e-06) (2.480376e-06 -8.705472e-10 -1.103188e-06)) ((-3.595394e-14 8.212647e-10 -8.448810e-14) (-3.323699e-11 -2.512465e-07 -2.653739e-11))
201.254799    	((2.716010e-06 -1.098344e-09 -3.260704e-06) (2.481502e-06 -8.666791e-10 -1.104202e-06)) ((-3.627761e-14 8.213032e-10 -8.510890e-14) (-3.296696e-11 -2.512681e-07 -2.668230e-11))
210.25892     	((2.716823e-06 -1.061002e-09 -3.262473e-06) (2.482684e-06 -8.618746e-10 -1.105118e-06)) ((-3.693578e-14 8.213350e-10 -8.556718e-14) (-3.273810e-11 -2.512936e-07 -2.672163e-11))
219.264477    	((2.717364e-06 -1.059382e-09 -3.263737e-06) (2.483877e-06 -8.580736e-10 -1.105937e-06)) ((-3.721405e-14 8.213635e-10 -8.526799e-14) (-3.261566e-11 -2.513216e-07 -2.672350e-11))
228.271309    	((2.717603e-06 -1.032316e-09 -3.264979e-06) (2.485047e-06 -8.554624e-10 -1.106655e-06)) ((-3.735484e-14 8.213825e-10 -8.466555e-14) (-3.251678e-11 -2.513508e-07 -2.674369e-11))
237.279265    	((2.717563e-06 -1.045920e-09 -3.266300e-06) (2.486168e-06 -8.545647e-10 -1.107273e-06)) ((-3.747273e-14 8.213880e-10 -8.408781e-14) (-3.252382e-11 -2.513800e-07 -2.679167e-11))
246.288218    	((2.717225e-06 -1.055778e-09 -3.267841e-06) (2.487216e-06 -8.556689e-10 -1.107807e-06)) ((-3.769564e-14 8.213773e-10 -8.327169e-14) (-3.264579e-11 -2.514078e-07 -2.688822e-11))
255.298062    	((2.716727e-06 -1.052603e-09 -3.269386e-06) (2.488177e-06 -8.565609e-10 -1.108273e-06)) ((-3.817358e-14 8.213553e-10 -8.198820e-14) (-3.278362e-11 -2.514333e-07 -2.705902e-11))
264.308713    	((2.716140e-06 -9.955888e-10 -3.270851e-06) (2.489049e-06 -8.578147e-10 -1.108683e-06)) ((-3.960474e-14 8.213266e-10 -8.102093e-14) (-3.278261e-11 -2.514563e-07 -2.732799e-11))
273.3201      	((2.715477e-06 -9.836670e-10 -3.272181e-06) (2.489835e-06 -8.575789e-10 -1.109056e-06)) ((-3.988617e-14 8.212936e-10 -8.067165e-14) (-3.259180e-11 -2.514767e-07 -2.760986e-11))
282.332164    	((2.714703e-06 -1.077604e-09 -3.273329e-06) (2.490535e-06 -8.612376e-10 -1.109404e-06)) ((-3.793656e-14 8.212589e-10 -8.060234e-14) (-3.254864e-11 -2.514943e-07 -2.785491e-11))
291.344849    	((2.713989e-06 -1.019557e-09 -3.274495e-06) (2.491159e-06 -8.656619e-10 -1.109730e-06)) ((-3.780743e-14 8.212265e-10 -8.062428e-14) (-3.257889e-11 -2.515093e-07 -2.807561e-11))
300.358114    	((2.713313e-06 -9.526833e-10 -3.275708e-06) (2.491722e-06 -8.633190e-10 -1.110030e-06)) ((-3.817022e-14 8.211950e-10 -8.081575e-14) (-3.237182e-11 -2.515223e-07 -2.824728e-11))
309.371924    	((2.712482e-06 -1.102353e-09 -3.276677e-06) (2.492226e-06 -8.663339e-10 -1.110315e-06)) ((-3.409478e-14 8.211602e-10 -8.130403e-14) (-3.245680e-11 -2.515330e-07 -2.831842e-11))
318.386242    	((2.711779e-06 -1.167297e-09 -3.277757e-06) (2.492678e-06 -8.745318e-10 -1.110592e-06)) ((-3.140598e-14 8.211274e-10 -8.162899e-14) (-3.288285e-11 -2.515417e-07 -2.837686e-11))
327.401026    	((2.711149e-06 -1.196659e-09 -3.278744e-06) (2.493096e-06 -8.819827e-10 -1.110863e-06)) ((-3.048658e-14 8.210974e-10 -8.174150e-14) (-3.333671e-11 -2.515489e-07 -2.849769e-11))
336.416239    	((2.710655e-06 -1.250036e-09 -3.279644e-06) (2.493491e-06 -8.905522e-10 -1.111129e-06)) ((-2.909515e-14 8.210703e-10 -8.172243e-14) (-3.384060e-11 -2.515552e-07 -2.871155e-11))
345.431843    	((2.710229e-06 -1.277523e-09 -3.280732e-06) (2.493875e-06 -8.990774e-10 -1.111390e-06)) ((-2.791384e-14 8.210437e-10 -8.170780e-14) (-3.432642e-11 -2.515610e-07 -2.905105e-11))
354.447804    	((2.709881e-06 -1.324299e-09 -3.281866e-06) (2.494254e-06 -9.071576e-10 -1.111646e-06)) ((-2.600201e-14 8.210199e-10 -8.129571e-14) (-3.473988e-11 -2.515665e-07 -2.948624e-11))
363.464092    	((2.709574e-06 -1.376117e-09 -3.282906e-06) (2.494633e-06 -9.155019e-10 -1.111894e-06)) ((-2.410277e-14 8.209997e-10 -8.082966e-14) (-3.507985e-11 -2.515721e-07 -2.996424e-11))
372.480683    	((2.709264e-06 -1.423202e-09 -3.283803e-06) (2.495011e-06 -9.226543e-10 -1.112136e-06)) ((-2.242852e-14 8.209824e-10 -8.055052e-14) (-3.530166e-11 -2.515777e-07 -3.043816e-11))
381.497552    	((2.708984e-06 -1.477471e-09 -3.284474e-06) (2.495390e-06 -9.291709e-10 -1.112367e-06)) ((-2.121597e-14 8.209684e-10 -8.023394e-14) (-3.543594e-11 -2.515835e-07 -3.085968e-11))
