# Forces      
# CofR        : (0.000000e+00 0.000000e+00 0.000000e+00)
# Time        forces(pressure viscous)	moments(pressure viscous)
0             	((0.000000e+00 0.000000e+00 0.000000e+00) (-6.269710e-13 1.608734e-03 1.358197e-13)) ((0.000000e+00 0.000000e+00 0.000000e+00) (3.614661e-05 -5.266227e-15 -7.770939e-10))
0.012         	((3.709933e-07 4.644423e-01 1.115788e-01) (-2.797441e-11 1.841259e-03 -1.799441e-05)) ((-5.450452e-06 3.960231e-07 -8.551594e-08) (5.374260e-05 -1.007628e-10 -1.138915e-09))
0.0264        	((-1.566139e-05 -6.257797e-02 -1.952879e-02) (-3.485303e-09 1.850722e-03 -2.775548e-05)) ((6.924621e-07 -3.932074e-08 4.507674e-09) (5.962025e-05 4.609357e-11 -3.064409e-10))
0.04368       	((1.969443e-05 -8.033105e-02 -1.640872e-02) (6.625191e-09 1.614636e-03 -2.765003e-05)) ((1.097583e-06 -3.693045e-08 2.654605e-08) (5.282682e-05 -2.079771e-10 9.394546e-10))
0.064416      	((-1.231981e-06 -2.912167e-04 -9.050985e-03) (-3.530121e-09 1.421711e-03 -3.087633e-05)) ((-4.163054e-12 -1.202440e-08 -4.797431e-09) (4.787428e-05 -3.953261e-10 8.272455e-10))
0.0892992     	((-2.993235e-06 -5.056462e-04 -7.115500e-03) (-1.499186e-08 1.307935e-03 -3.805883e-05)) ((-3.024727e-09 -6.040112e-09 8.650327e-11) (4.531108e-05 3.653349e-10 8.098258e-10))
0.119159      	((-5.484694e-07 -1.007873e-03 -6.022808e-03) (-7.237932e-08 1.211106e-03 -4.483331e-05)) ((3.523707e-08 -2.054726e-09 2.829683e-10) (4.258770e-05 8.817935e-10 1.116407e-09))
0.154991      	((-1.914127e-06 -1.072177e-04 -5.427536e-03) (-1.660881e-07 1.117880e-03 -5.039554e-05)) ((2.116904e-08 -6.140316e-10 3.331543e-12) (3.984301e-05 1.065729e-09 2.269301e-09))
0.197989      	((-1.252022e-06 1.702363e-04 -5.012963e-03) (-2.448349e-07 1.032990e-03 -5.541765e-05)) ((1.650948e-08 5.144459e-10 -1.829507e-10) (3.724563e-05 1.139076e-09 2.973980e-09))
0.249587      	((-1.475700e-06 2.892729e-04 -4.756449e-03) (-3.064197e-07 9.586804e-04 -6.062658e-05)) ((1.431900e-08 1.385806e-09 -4.254430e-11) (3.483952e-05 1.246666e-09 3.113041e-09))
0.311504      	((-1.120783e-06 3.677043e-04 -4.598459e-03) (-3.201743e-07 8.941187e-04 -6.627249e-05)) ((1.219777e-08 1.735231e-09 -1.178463e-10) (3.263375e-05 1.338888e-09 3.240189e-09))
0.385805      	((-9.058404e-07 4.120967e-04 -4.494226e-03) (-2.690614e-07 8.366327e-04 -7.259572e-05)) ((1.001320e-08 1.924340e-09 -1.819046e-10) (3.058980e-05 1.434370e-09 3.982861e-09))
0.474966      	((-4.373913e-07 4.360708e-04 -4.425123e-03) (-2.008560e-07 7.827477e-04 -8.006239e-05)) ((7.845931e-09 1.931306e-09 -2.732540e-10) (2.862486e-05 1.552132e-09 5.084218e-09))
0.581959      	((-4.126842e-07 4.504078e-04 -4.374393e-03) (-1.659303e-07 7.301436e-04 -8.877773e-05)) ((5.701489e-09 1.887859e-09 -3.694852e-10) (2.668366e-05 1.577786e-09 5.749869e-09))
0.710351      	((-3.527512e-07 4.639272e-04 -4.334676e-03) (-1.554194e-07 6.790096e-04 -9.853602e-05)) ((3.512371e-09 1.833252e-09 -4.576110e-10) (2.478545e-05 1.547780e-09 6.091506e-09))
0.864421      	((-2.881837e-07 4.829872e-04 -4.300196e-03) (-1.457458e-07 6.305707e-04 -1.092706e-04)) ((1.303943e-09 1.707143e-09 -5.554700e-10) (2.297516e-05 1.350565e-09 6.207080e-09))
1.049306      	((-2.140557e-07 5.134156e-04 -4.266412e-03) (-1.227294e-07 5.857680e-04 -1.208406e-04)) ((-9.473458e-10 1.479165e-09 -7.423286e-10) (2.128646e-05 9.722453e-10 6.370411e-09))
1.271167      	((-1.948650e-07 5.570627e-04 -4.230836e-03) (-8.694021e-08 5.450914e-04 -1.328220e-04)) ((-3.315526e-09 1.251693e-09 -8.986263e-10) (1.974297e-05 5.933190e-10 6.762470e-09))
1.5374        	((-1.142966e-07 6.173696e-04 -4.189847e-03) (-4.129122e-08 5.088999e-04 -1.445284e-04)) ((-5.847705e-09 9.482582e-10 -1.093534e-09) (1.836747e-05 3.812600e-10 7.596653e-09))
1.853624      	((-1.004780e-08 6.976551e-04 -4.146157e-03) (3.409703e-09 4.776123e-04 -1.553072e-04)) ((-8.616984e-09 5.381449e-10 -1.346359e-09) (1.718192e-05 1.351950e-10 8.926090e-09))
2.219411      	((1.130552e-07 7.981024e-04 -4.100008e-03) (3.645978e-08 4.514647e-04 -1.647891e-04)) ((-1.148153e-08 6.510727e-11 -1.657351e-09) (1.619574e-05 -2.876820e-10 1.118651e-08))
2.634381      	((3.408954e-07 9.176920e-04 -4.052037e-03) (4.015838e-08 4.298938e-04 -1.731885e-04)) ((-1.418152e-08 -4.703004e-10 -2.034389e-09) (1.537921e-05 -8.442491e-10 1.363477e-08))
3.098042      	((4.742547e-07 1.055053e-03 -4.000690e-03) (1.889176e-08 4.121844e-04 -1.807325e-04)) ((-1.651048e-08 -1.028577e-09 -2.471969e-09) (1.469402e-05 -1.429312e-09 1.538232e-08))
3.579202      	((5.894390e-07 1.200947e-03 -3.943066e-03) (1.992056e-08 3.984067e-04 -1.867464e-04)) ((-1.828436e-08 -1.582271e-09 -2.883038e-09) (1.414163e-05 -2.294034e-09 1.654540e-08))
4.053689      	((8.578047e-07 1.342438e-03 -3.874694e-03) (3.449681e-08 3.878225e-04 -1.906010e-04)) ((-1.970698e-08 -2.038327e-09 -3.190218e-09) (1.370825e-05 -2.957614e-09 1.641392e-08))
4.521395      	((1.111542e-06 1.473376e-03 -3.799132e-03) (2.598442e-08 3.796071e-04 -1.923836e-04)) ((-2.106577e-08 -2.464290e-09 -3.475817e-09) (1.337301e-05 -3.230478e-09 1.550673e-08))
4.983731      	((1.419616e-06 1.581871e-03 -3.718311e-03) (2.028797e-08 3.733233e-04 -1.924269e-04)) ((-2.261415e-08 -2.897110e-09 -3.820590e-09) (1.312565e-05 -3.370221e-09 1.509680e-08))
5.443233      	((1.518273e-06 1.660176e-03 -3.630772e-03) (4.443345e-09 3.683396e-04 -1.914090e-04)) ((-2.430601e-08 -3.258892e-09 -4.175315e-09) (1.294129e-05 -3.626042e-09 1.535437e-08))
5.901973      	((1.946873e-06 1.708315e-03 -3.540262e-03) (-1.315667e-08 3.638979e-04 -1.899474e-04)) ((-2.604214e-08 -3.518031e-09 -4.535819e-09) (1.279088e-05 -3.641744e-09 1.565146e-08))
6.360472      	((2.738433e-06 1.727171e-03 -3.443727e-03) (-5.537646e-09 3.596158e-04 -1.883425e-04)) ((-2.780634e-08 -3.533662e-09 -4.834365e-09) (1.265840e-05 -3.710206e-09 1.642095e-08))
6.818081      	((2.828722e-06 1.713614e-03 -3.349571e-03) (5.511492e-09 3.554549e-04 -1.867284e-04)) ((-2.881733e-08 -3.387982e-09 -5.065034e-09) (1.253871e-05 -4.075653e-09 1.782406e-08))
7.273989      	((2.856684e-06 1.684999e-03 -3.272685e-03) (2.785926e-08 3.514693e-04 -1.851822e-04)) ((-2.948283e-08 -3.186762e-09 -5.114690e-09) (1.243187e-05 -4.213926e-09 1.892169e-08))
7.727891      	((3.207652e-06 1.654737e-03 -3.215797e-03) (5.914728e-08 3.479403e-04 -1.835996e-04)) ((-2.999365e-08 -3.049232e-09 -5.037417e-09) (1.234979e-05 -4.476978e-09 1.946650e-08))
8.179955      	((3.174163e-06 1.620788e-03 -3.162430e-03) (6.958619e-08 3.448914e-04 -1.819722e-04)) ((-3.018483e-08 -2.939261e-09 -4.860296e-09) (1.228986e-05 -5.101113e-09 2.023297e-08))
8.630575      	((3.414125e-06 1.600014e-03 -3.107639e-03) (6.653513e-08 3.422757e-04 -1.804101e-04)) ((-3.015469e-08 -2.863400e-09 -4.740379e-09) (1.224225e-05 -5.912696e-09 2.055001e-08))
9.080071      	((3.435729e-06 1.593721e-03 -3.053388e-03) (9.378962e-08 3.400560e-04 -1.789320e-04)) ((-3.013317e-08 -2.895788e-09 -4.693714e-09) (1.220274e-05 -6.907996e-09 1.858654e-08))
9.528592      	((3.759407e-06 1.591162e-03 -3.008099e-03) (1.413608e-07 3.380960e-04 -1.776519e-04)) ((-2.997010e-08 -2.945899e-09 -4.696819e-09) (1.216387e-05 -8.113663e-09 1.531378e-08))
9.976189      	((3.811507e-06 1.585736e-03 -2.966713e-03) (1.652543e-07 3.362150e-04 -1.766469e-04)) ((-2.981340e-08 -2.984607e-09 -4.727775e-09) (1.211934e-05 -9.147204e-09 1.353259e-08))
10.422916     	((3.898355e-06 1.576765e-03 -2.928586e-03) (1.714129e-07 3.343727e-04 -1.758591e-04)) ((-2.972647e-08 -2.970235e-09 -4.740902e-09) (1.207109e-05 -9.827488e-09 1.331825e-08))
10.868881     	((4.529930e-06 1.561975e-03 -2.891563e-03) (1.822487e-07 3.325443e-04 -1.752472e-04)) ((-2.960996e-08 -2.890812e-09 -4.720254e-09) (1.202107e-05 -1.059832e-08 1.355941e-08))
11.314188     	((5.055102e-06 1.545983e-03 -2.855545e-03) (1.974680e-07 3.307209e-04 -1.747840e-04)) ((-2.950791e-08 -2.798259e-09 -4.678699e-09) (1.197019e-05 -1.144657e-08 1.411062e-08))
11.758916     	((5.961369e-06 1.529977e-03 -2.821208e-03) (2.167685e-07 3.289449e-04 -1.744276e-04)) ((-2.938012e-08 -2.698079e-09 -4.626063e-09) (1.192037e-05 -1.259120e-08 1.495781e-08))
12.203115     	((6.598770e-06 1.516801e-03 -2.787588e-03) (2.371550e-07 3.272676e-04 -1.741308e-04)) ((-2.927356e-08 -2.605702e-09 -4.575158e-09) (1.187340e-05 -1.382339e-08 1.574344e-08))
12.646829     	((7.303029e-06 1.506269e-03 -2.753350e-03) (2.575996e-07 3.257114e-04 -1.738669e-04)) ((-2.918923e-08 -2.519012e-09 -4.535108e-09) (1.182981e-05 -1.512777e-08 1.641080e-08))
13.09012      	((7.826225e-06 1.499024e-03 -2.719463e-03) (2.801762e-07 3.242542e-04 -1.736343e-04)) ((-2.914547e-08 -2.444715e-09 -4.513188e-09) (1.178854e-05 -1.662866e-08 1.689241e-08))
13.533042     	((8.138553e-06 1.494332e-03 -2.686797e-03) (3.031012e-07 3.228629e-04 -1.734196e-04)) ((-2.916951e-08 -2.388315e-09 -4.502716e-09) (1.174867e-05 -1.811116e-08 1.714849e-08))
13.975619     	((8.601078e-06 1.489519e-03 -2.653792e-03) (3.261532e-07 3.215040e-04 -1.732049e-04)) ((-2.925650e-08 -2.333088e-09 -4.495101e-09) (1.170987e-05 -1.959042e-08 1.740445e-08))
14.417852     	((9.221660e-06 1.485059e-03 -2.622521e-03) (3.541177e-07 3.201837e-04 -1.729752e-04)) ((-2.940214e-08 -2.282418e-09 -4.490053e-09) (1.167299e-05 -2.114045e-08 1.779760e-08))
14.859758     	((9.620103e-06 1.479497e-03 -2.591866e-03) (3.837016e-07 3.189173e-04 -1.727254e-04)) ((-2.955242e-08 -2.226093e-09 -4.487507e-09) (1.163873e-05 -2.269973e-08 1.824881e-08))
15.301367     	((1.000679e-05 1.473769e-03 -2.562552e-03) (4.183508e-07 3.177179e-04 -1.724631e-04)) ((-2.968174e-08 -2.162666e-09 -4.477996e-09) (1.160720e-05 -2.418243e-08 1.821272e-08))
15.742622     	((1.094690e-05 1.467927e-03 -2.533815e-03) (4.616180e-07 3.166008e-04 -1.721941e-04)) ((-2.977611e-08 -2.088622e-09 -4.462791e-09) (1.157869e-05 -2.590780e-08 1.794229e-08))
16.183581     	((1.147308e-05 1.462004e-03 -2.505347e-03) (5.022348e-07 3.155583e-04 -1.719190e-04)) ((-2.983553e-08 -2.017864e-09 -4.443636e-09) (1.155289e-05 -2.779232e-08 1.807006e-08))
16.624299     	((1.225989e-05 1.456059e-03 -2.477866e-03) (5.408977e-07 3.145755e-04 -1.716365e-04)) ((-2.986298e-08 -1.949096e-09 -4.422513e-09) (1.152930e-05 -2.968146e-08 1.839753e-08))
17.064788     	((1.326282e-05 1.450525e-03 -2.450749e-03) (5.831091e-07 3.136428e-04 -1.713510e-04)) ((-2.987213e-08 -1.881974e-09 -4.406910e-09) (1.150748e-05 -3.166354e-08 1.879462e-08))
17.505061     	((1.413956e-05 1.445160e-03 -2.424325e-03) (6.250764e-07 3.127512e-04 -1.710642e-04)) ((-2.986884e-08 -1.818767e-09 -4.392582e-09) (1.148684e-05 -3.365613e-08 1.946684e-08))
17.945121     	((1.513540e-05 1.440277e-03 -2.397792e-03) (6.678689e-07 3.118869e-04 -1.707816e-04)) ((-2.986274e-08 -1.757870e-09 -4.380620e-09) (1.146646e-05 -3.569158e-08 2.028037e-08))
18.384978     	((1.602177e-05 1.435381e-03 -2.370865e-03) (7.149796e-07 3.110368e-04 -1.705022e-04)) ((-2.985875e-08 -1.701701e-09 -4.372373e-09) (1.144564e-05 -3.795913e-08 2.073518e-08))
18.824646     	((1.732989e-05 1.430583e-03 -2.345714e-03) (7.738291e-07 3.102003e-04 -1.702270e-04)) ((-2.983481e-08 -1.635637e-09 -4.368315e-09) (1.142430e-05 -4.080498e-08 2.089991e-08))
19.264144     	((1.880552e-05 1.425121e-03 -2.320962e-03) (8.477987e-07 3.093643e-04 -1.699774e-04)) ((-2.977705e-08 -1.548829e-09 -4.365543e-09) (1.140177e-05 -4.443679e-08 2.097642e-08))
19.70353      	((2.059385e-05 1.419286e-03 -2.296865e-03) (9.361195e-07 3.085190e-04 -1.697551e-04)) ((-2.971611e-08 -1.458209e-09 -4.359766e-09) (1.137801e-05 -4.868008e-08 2.100564e-08))
20.142824     	((2.248506e-05 1.413499e-03 -2.272910e-03) (1.034421e-06 3.076710e-04 -1.695426e-04)) ((-2.967420e-08 -1.375930e-09 -4.350836e-09) (1.135392e-05 -5.311257e-08 2.117051e-08))
20.582016     	((2.439575e-05 1.408720e-03 -2.250630e-03) (1.137790e-06 3.068425e-04 -1.693259e-04)) ((-2.965730e-08 -1.299330e-09 -4.342094e-09) (1.133077e-05 -5.752381e-08 2.163620e-08))
21.021103     	((2.622351e-05 1.404258e-03 -2.229484e-03) (1.242168e-06 3.060493e-04 -1.690966e-04)) ((-2.965593e-08 -1.228177e-09 -4.331876e-09) (1.130929e-05 -6.187366e-08 2.244451e-08))
21.460101     	((2.821028e-05 1.400407e-03 -2.209624e-03) (1.347644e-06 3.053009e-04 -1.688458e-04)) ((-2.967776e-08 -1.161083e-09 -4.320586e-09) (1.128998e-05 -6.625877e-08 2.352266e-08))
21.899016     	((3.033979e-05 1.396380e-03 -2.189676e-03) (1.456558e-06 3.045936e-04 -1.685766e-04)) ((-2.970124e-08 -1.097517e-09 -4.310308e-09) (1.127255e-05 -7.079536e-08 2.479424e-08))
22.337852     	((3.293179e-05 1.392152e-03 -2.169843e-03) (1.576477e-06 3.039127e-04 -1.683128e-04)) ((-2.969860e-08 -1.030090e-09 -4.301032e-09) (1.125570e-05 -7.576572e-08 2.625999e-08))
22.776613     	((3.573023e-05 1.388401e-03 -2.150556e-03) (1.711767e-06 3.032530e-04 -1.680797e-04)) ((-2.968286e-08 -9.637135e-10 -4.293317e-09) (1.123833e-05 -8.135346e-08 2.778342e-08))
23.215297     	((3.885595e-05 1.384646e-03 -2.131492e-03) (1.863450e-06 3.026038e-04 -1.678889e-04)) ((-2.966200e-08 -8.919630e-10 -4.285073e-09) (1.121968e-05 -8.765388e-08 2.936025e-08))
23.653908     	((4.230066e-05 1.380980e-03 -2.112834e-03) (2.031696e-06 3.019593e-04 -1.677250e-04)) ((-2.966402e-08 -8.192577e-10 -4.274782e-09) (1.120020e-05 -9.467657e-08 3.110076e-08))
24.09246      	((4.610793e-05 1.377046e-03 -2.093992e-03) (2.216002e-06 3.013178e-04 -1.675585e-04)) ((-2.968789e-08 -7.347054e-10 -4.262056e-09) (1.118096e-05 -1.023990e-07 3.307378e-08))
24.530969     	((5.049680e-05 1.372805e-03 -2.074543e-03) (2.418736e-06 3.006804e-04 -1.673670e-04)) ((-2.972440e-08 -6.377952e-10 -4.249221e-09) (1.116262e-05 -1.109701e-07 3.535059e-08))
24.9694       	((5.494825e-05 1.368923e-03 -2.055505e-03) (2.638570e-06 3.000576e-04 -1.671481e-04)) ((-2.975781e-08 -5.375735e-10 -4.238925e-09) (1.114530e-05 -1.203685e-07 3.798878e-08))
25.407664     	((5.980346e-05 1.365821e-03 -2.037323e-03) (2.875500e-06 2.994647e-04 -1.669043e-04)) ((-2.979274e-08 -4.353924e-10 -4.230167e-09) (1.112916e-05 -1.305705e-07 4.097095e-08))
25.845767     	((6.496998e-05 1.363092e-03 -2.019619e-03) (3.128378e-06 2.989047e-04 -1.666413e-04)) ((-2.981725e-08 -3.311431e-10 -4.220843e-09) (1.111409e-05 -1.415678e-07 4.443060e-08))
26.283732     	((7.061125e-05 1.360816e-03 -2.002445e-03) (3.398490e-06 2.983765e-04 -1.663638e-04)) ((-2.984077e-08 -2.259223e-10 -4.211923e-09) (1.110004e-05 -1.534270e-07 4.837142e-08))
26.721562     	((7.665355e-05 1.358768e-03 -1.986156e-03) (3.689967e-06 2.978804e-04 -1.660776e-04)) ((-2.985837e-08 -1.183395e-10 -4.202259e-09) (1.108692e-05 -1.662494e-07 5.262604e-08))
27.159267     	((8.304159e-05 1.356523e-03 -1.970079e-03) (4.005352e-06 2.974090e-04 -1.657926e-04)) ((-2.986758e-08 -5.917541e-12 -4.191972e-09) (1.107434e-05 -1.800556e-07 5.706003e-08))
27.596854     	((8.989875e-05 1.354015e-03 -1.954278e-03) (4.348414e-06 2.969529e-04 -1.655130e-04)) ((-2.986781e-08 1.134725e-10 -4.179916e-09) (1.106194e-05 -1.948748e-07 6.151276e-08))
28.034336     	((9.719741e-05 1.351305e-03 -1.938896e-03) (4.719834e-06 2.965015e-04 -1.652459e-04)) ((-2.985401e-08 2.394271e-10 -4.166041e-09) (1.104926e-05 -2.107039e-07 6.602827e-08))
28.471749     	((1.051430e-04 1.348581e-03 -1.923991e-03) (5.120740e-06 2.960499e-04 -1.649999e-04)) ((-2.982579e-08 3.758289e-10 -4.152326e-09) (1.103601e-05 -2.276576e-07 7.074609e-08))
28.909103     	((1.135493e-04 1.346061e-03 -1.909490e-03) (5.552220e-06 2.955987e-04 -1.647776e-04)) ((-2.978954e-08 5.209936e-10 -4.139021e-09) (1.102221e-05 -2.458401e-07 7.567997e-08))
29.3464       	((1.227427e-04 1.343721e-03 -1.895289e-03) (6.016737e-06 2.951493e-04 -1.645778e-04)) ((-2.974675e-08 6.787682e-10 -4.125960e-09) (1.100799e-05 -2.653901e-07 8.087889e-08))
29.783643     	((1.326498e-04 1.341572e-03 -1.881434e-03) (6.519671e-06 2.947026e-04 -1.643936e-04)) ((-2.970314e-08 8.464426e-10 -4.112895e-09) (1.099356e-05 -2.864059e-07 8.636478e-08))
30.220835     	((1.433082e-04 1.340058e-03 -1.868275e-03) (7.064290e-06 2.942685e-04 -1.642179e-04)) ((-2.966647e-08 1.022872e-09 -4.098654e-09) (1.097948e-05 -3.089914e-07 9.208587e-08))
30.657978     	((1.549045e-04 1.338799e-03 -1.855533e-03) (7.653309e-06 2.938545e-04 -1.640493e-04)) ((-2.963135e-08 1.210898e-09 -4.081239e-09) (1.096603e-05 -3.333682e-07 9.798015e-08))
31.095072     	((1.674299e-04 1.338010e-03 -1.843357e-03) (8.293113e-06 2.934632e-04 -1.638851e-04)) ((-2.960413e-08 1.411545e-09 -4.062852e-09) (1.095339e-05 -3.597407e-07 1.039962e-07))
31.532117     	((1.810290e-04 1.337508e-03 -1.831767e-03) (8.989068e-06 2.930963e-04 -1.637265e-04)) ((-2.958116e-08 1.628838e-09 -4.042501e-09) (1.094160e-05 -3.883478e-07 1.102781e-07))
31.969114     	((1.959542e-04 1.337232e-03 -1.820329e-03) (9.748019e-06 2.927407e-04 -1.635726e-04)) ((-2.956196e-08 1.870287e-09 -4.021152e-09) (1.093047e-05 -4.195217e-07 1.171358e-07))
32.406063     	((2.122633e-04 1.337032e-03 -1.809169e-03) (1.057614e-05 2.924001e-04 -1.634262e-04)) ((-2.954051e-08 2.135114e-09 -3.999797e-09) (1.092002e-05 -4.536313e-07 1.245954e-07))
32.842964     	((2.299658e-04 1.337061e-03 -1.798423e-03) (1.147632e-05 2.920798e-04 -1.632875e-04)) ((-2.951720e-08 2.417882e-09 -3.977008e-09) (1.091032e-05 -4.908543e-07 1.326773e-07))
33.279815     	((2.493511e-04 1.337332e-03 -1.787949e-03) (1.245288e-05 2.917785e-04 -1.631540e-04)) ((-2.949121e-08 2.726283e-09 -3.953160e-09) (1.090142e-05 -5.314951e-07 1.416146e-07))
33.716617     	((2.703733e-04 1.338156e-03 -1.777910e-03) (1.351582e-05 2.915014e-04 -1.630213e-04)) ((-2.946218e-08 3.062461e-09 -3.930697e-09) (1.089354e-05 -5.759095e-07 1.514914e-07))
34.153365     	((2.933486e-04 1.339335e-03 -1.768188e-03) (1.467375e-05 2.912496e-04 -1.628896e-04)) ((-2.942036e-08 3.434025e-09 -3.907857e-09) (1.088662e-05 -6.243812e-07 1.623730e-07))
34.590054     	((3.182747e-04 1.341135e-03 -1.758857e-03) (1.593639e-05 2.910304e-04 -1.627595e-04)) ((-2.937905e-08 3.834383e-09 -3.885340e-09) (1.088090e-05 -6.773252e-07 1.741204e-07))
35.02668      	((3.452474e-04 1.343575e-03 -1.750071e-03) (1.732424e-05 2.908667e-04 -1.626308e-04)) ((-2.933986e-08 4.260141e-09 -3.860086e-09) (1.087703e-05 -7.353907e-07 1.857397e-07))
35.46324      	((3.744108e-04 1.346522e-03 -1.741758e-03) (1.884779e-05 2.907710e-04 -1.625013e-04)) ((-2.930108e-08 4.715725e-09 -3.829515e-09) (1.087546e-05 -7.989443e-07 1.970697e-07))
35.899729     	((4.061142e-04 1.349858e-03 -1.733872e-03) (2.051174e-05 2.907273e-04 -1.623702e-04)) ((-2.926379e-08 5.208966e-09 -3.794820e-09) (1.087597e-05 -8.682368e-07 2.087121e-07))
36.336144     	((4.401440e-04 1.354065e-03 -1.726742e-03) (2.231959e-05 2.907271e-04 -1.622374e-04)) ((-2.923602e-08 5.730607e-09 -3.756176e-09) (1.087852e-05 -9.434056e-07 2.212672e-07))
36.772482     	((4.763437e-04 1.359671e-03 -1.720821e-03) (2.427303e-05 2.907846e-04 -1.621019e-04)) ((-2.922272e-08 6.281764e-09 -3.712356e-09) (1.088374e-05 -1.024528e-06 2.348979e-07))
37.208612     	((5.160984e-04 1.366540e-03 -1.715400e-03) (2.639037e-05 2.909178e-04 -1.619595e-04)) ((-2.921289e-08 6.890990e-09 -3.663372e-09) (1.089240e-05 -1.112502e-06 2.496983e-07))
37.644441     	((5.597150e-04 1.374467e-03 -1.709924e-03) (2.869539e-05 2.911345e-04 -1.618160e-04)) ((-2.920687e-08 7.554684e-09 -3.610602e-09) (1.090451e-05 -1.208545e-06 2.656825e-07))
38.079942     	((6.063023e-04 1.384306e-03 -1.706331e-03) (3.119627e-05 2.914451e-04 -1.616787e-04)) ((-2.920959e-08 8.260688e-09 -3.553291e-09) (1.092016e-05 -1.313060e-06 2.829419e-07))
38.515147     	((6.560511e-04 1.396039e-03 -1.703600e-03) (3.389726e-05 2.918569e-04 -1.615545e-04)) ((-2.920354e-08 9.023185e-09 -3.490780e-09) (1.093955e-05 -1.426172e-06 3.013756e-07))
38.950083     	((7.090264e-04 1.410386e-03 -1.703359e-03) (3.681516e-05 2.923879e-04 -1.614442e-04)) ((-2.921628e-08 9.841009e-09 -3.415385e-09) (1.096359e-05 -1.548290e-06 3.208495e-07))
39.384729     	((7.646186e-04 1.427537e-03 -1.705892e-03) (3.993997e-05 2.930658e-04 -1.613405e-04)) ((-2.926359e-08 1.069158e-08 -3.319906e-09) (1.099333e-05 -1.678981e-06 3.420062e-07))
39.819063     	((8.239193e-04 1.447030e-03 -1.709977e-03) (4.328298e-05 2.938921e-04 -1.612300e-04)) ((-2.933344e-08 1.157157e-08 -3.217368e-09) (1.102936e-05 -1.818015e-06 3.644093e-07))
40.253099     	((8.863529e-04 1.469058e-03 -1.716129e-03) (4.685720e-05 2.948613e-04 -1.611300e-04)) ((-2.942268e-08 1.249419e-08 -3.110067e-09) (1.107112e-05 -1.966259e-06 3.877355e-07))
40.68684      	((9.526029e-04 1.495043e-03 -1.725133e-03) (5.067766e-05 2.960005e-04 -1.610404e-04)) ((-2.957113e-08 1.344423e-08 -3.007060e-09) (1.111982e-05 -2.124671e-06 4.120381e-07))
41.120298     	((1.021943e-03 1.525436e-03 -1.736061e-03) (5.473837e-05 2.973460e-04 -1.609379e-04)) ((-2.979339e-08 1.440978e-08 -2.909933e-09) (1.117728e-05 -2.292558e-06 4.373497e-07))
41.55335      	((1.093321e-03 1.559997e-03 -1.749293e-03) (5.902353e-05 2.989153e-04 -1.608149e-04)) ((-3.009245e-08 1.538450e-08 -2.820771e-09) (1.124440e-05 -2.468664e-06 4.630870e-07))
41.985986     	((1.166567e-03 1.599007e-03 -1.765536e-03) (6.352656e-05 3.007381e-04 -1.606663e-04)) ((-3.045523e-08 1.636538e-08 -2.731376e-09) (1.132255e-05 -2.652137e-06 4.896001e-07))
42.418267     	((1.240953e-03 1.642292e-03 -1.784339e-03) (6.824751e-05 3.028458e-04 -1.604866e-04)) ((-3.088686e-08 1.733104e-08 -2.640178e-09) (1.141286e-05 -2.842066e-06 5.162012e-07))
42.850231     	((1.315342e-03 1.690711e-03 -1.809646e-03) (7.314771e-05 3.052815e-04 -1.602706e-04)) ((-3.139536e-08 1.825459e-08 -2.554962e-09) (1.151640e-05 -3.037561e-06 5.425209e-07))
43.281884     	((1.390337e-03 1.743967e-03 -1.837391e-03) (7.819408e-05 3.081039e-04 -1.600219e-04)) ((-3.199439e-08 1.917606e-08 -2.490042e-09) (1.163355e-05 -3.238010e-06 5.679317e-07))
43.713205     	((1.464002e-03 1.801951e-03 -1.868433e-03) (8.335923e-05 3.113262e-04 -1.597227e-04)) ((-3.266345e-08 2.007139e-08 -2.447363e-09) (1.176475e-05 -3.442355e-06 5.914713e-07))
44.144167     	((1.533659e-03 1.864598e-03 -1.902786e-03) (8.857229e-05 3.149299e-04 -1.593401e-04)) ((-3.342260e-08 2.084937e-08 -2.438448e-09) (1.191048e-05 -3.647788e-06 6.141813e-07))
44.574764     	((1.596850e-03 1.930177e-03 -1.940650e-03) (9.374416e-05 3.189089e-04 -1.588528e-04)) ((-3.425089e-08 2.146380e-08 -2.482070e-09) (1.207059e-05 -3.850439e-06 6.353002e-07))
45.005045     	((1.651371e-03 1.997548e-03 -1.980977e-03) (9.879888e-05 3.232411e-04 -1.582575e-04)) ((-3.513800e-08 2.189480e-08 -2.557344e-09) (1.224419e-05 -4.046402e-06 6.522280e-07))
