# Forces      
# CofR        : (0.000000e+00 0.000000e+00 0.000000e+00)
# Time        forces(pressure viscous)	moments(pressure viscous)
0             	((0.000000e+00 0.000000e+00 0.000000e+00) (0.000000e+00 0.000000e+00 0.000000e+00)) ((0.000000e+00 0.000000e+00 0.000000e+00) (0.000000e+00 0.000000e+00 0.000000e+00))
0.012         	((5.357002e-08 -2.026272e-12 1.689258e-08) (1.322110e-07 -5.592868e-16 1.197638e-11)) ((8.714451e-16 -8.590394e-12 6.941860e-16) (9.882085e-17 -8.798262e-09 3.826850e-17))
0.0264        	((7.956573e-08 -4.513782e-11 2.667762e-08) (1.211068e-07 -1.152963e-14 7.220746e-12)) ((4.886738e-16 4.428926e-12 1.712692e-16) (3.714351e-16 -8.067975e-09 -2.377536e-16))
0.04368       	((5.052726e-08 2.698621e-11 1.614244e-08) (1.096476e-07 1.371748e-14 -1.500639e-13)) ((1.038294e-15 3.150232e-12 5.038529e-16) (1.071932e-15 -7.316643e-09 -1.158995e-15))
0.064416      	((5.998533e-08 -3.272157e-11 1.987025e-08) (9.808551e-08 2.249377e-14 -5.272166e-12)) ((6.102386e-16 6.127755e-12 -7.407634e-17) (2.115815e-15 -6.561158e-09 -1.552882e-15))
0.0892992     	((4.282904e-08 1.429769e-11 1.393488e-08) (8.674904e-08 2.182540e-14 -6.172548e-12)) ((3.035226e-16 4.349857e-12 3.704519e-16) (3.599945e-15 -5.823082e-09 -7.605478e-16))
0.119159      	((4.507612e-08 -1.593916e-11 1.457204e-08) (7.600095e-08 2.034969e-15 -4.932085e-12)) ((4.210585e-16 5.304957e-12 9.505874e-18) (3.197394e-15 -5.126562e-09 3.162879e-16))
0.154991      	((3.335793e-08 8.203581e-12 1.106774e-08) (6.617848e-08 -7.257416e-15 -4.752026e-12)) ((-1.312935e-16 3.696341e-12 3.198563e-17) (3.262478e-15 -4.486287e-09 2.033791e-15))
0.197989      	((3.339718e-08 -6.093116e-12 1.063854e-08) (5.748545e-08 -1.076921e-14 -4.313961e-12)) ((-1.893418e-16 4.169322e-12 -4.155433e-17) (3.196855e-15 -3.919095e-09 3.606568e-15))
0.249587      	((2.564875e-08 3.285229e-12 8.549142e-09) (5.007634e-08 -1.823522e-14 -3.471808e-12)) ((-1.378384e-16 2.976312e-12 1.801605e-17) (2.668899e-15 -3.432027e-09 4.425846e-15))
0.311504      	((2.511943e-08 -9.785080e-13 7.928611e-09) (4.391740e-08 -1.894943e-14 -2.909593e-12)) ((-3.404817e-16 3.285176e-12 2.990279e-17) (3.134926e-15 -3.025396e-09 4.409981e-15))
0.385805      	((2.011086e-08 5.942211e-13 6.704004e-09) (3.882972e-08 -1.382926e-14 -2.703549e-12)) ((-8.833653e-17 2.442567e-12 4.386950e-17) (2.942325e-15 -2.689128e-09 4.475248e-15))
0.474966      	((1.959836e-08 -7.127140e-13 6.172697e-09) (3.462236e-08 -1.588995e-14 -2.152195e-12)) ((-3.460656e-16 2.654727e-12 2.514062e-17) (2.624824e-15 -2.411507e-09 6.059245e-15))
0.581959      	((1.626332e-08 -1.311267e-13 5.409221e-09) (3.108152e-08 -2.651873e-14 -1.732940e-12)) ((-5.778106e-17 2.045844e-12 -3.593996e-17) (-2.216642e-16 -2.177676e-09 4.734909e-15))
0.710351      	((1.580473e-08 5.118862e-13 4.966425e-09) (2.804049e-08 -1.431011e-14 -2.150871e-12)) ((-4.726952e-16 2.203548e-12 -5.673930e-17) (-1.526431e-15 -1.977549e-09 1.447840e-16))
0.864421      	((1.343515e-08 -8.034043e-13 4.454339e-09) (2.536683e-08 -4.295297e-15 -1.577059e-12)) ((-2.428619e-16 1.774956e-12 -7.144611e-17) (-1.695546e-15 -1.801745e-09 -3.787219e-16))
1.049306      	((1.294489e-08 -1.559637e-13 4.064482e-09) (2.298579e-08 7.056182e-15 -1.480684e-12)) ((-5.843445e-16 1.896824e-12 -6.365458e-17) (4.483655e-15 -1.645950e-09 2.764717e-15))
1.271167      	((1.112071e-08 -8.296523e-13 3.665941e-09) (2.083643e-08 -1.328198e-14 -9.845655e-13)) ((-4.067482e-16 1.599488e-12 -2.498129e-16) (1.052833e-14 -1.505474e-09 6.838977e-15))
1.5374        	((1.058068e-08 -1.007047e-12 3.330610e-09) (1.889669e-08 -3.268664e-14 -1.961035e-13)) ((-7.234948e-16 1.664900e-12 -3.636877e-16) (1.601520e-14 -1.378839e-09 9.635796e-15))
1.85688       	((9.160645e-09 -9.512147e-13 3.009672e-09) (1.714345e-08 -6.944153e-14 8.559489e-13)) ((-7.074017e-16 1.443295e-12 -3.391182e-16) (2.208954e-14 -1.264574e-09 9.614799e-15))
2.240256      	((8.596260e-09 -7.947194e-13 2.729322e-09) (1.556926e-08 -8.237293e-14 1.288905e-12)) ((-9.440001e-16 1.464922e-12 -2.973884e-16) (3.163488e-14 -1.161914e-09 7.602505e-15))
2.700307      	((7.532838e-09 -6.145858e-13 2.482321e-09) (1.417518e-08 -5.030158e-14 1.082014e-12)) ((-8.040965e-16 1.307351e-12 -3.316982e-16) (4.889048e-14 -1.071108e-09 -6.408801e-16))
3.252369      	((7.018042e-09 -1.514221e-12 2.258662e-09) (1.294355e-08 -2.918115e-14 4.513620e-13)) ((-9.276028e-16 1.311990e-12 -3.193617e-16) (6.714695e-14 -9.907664e-10 -2.080410e-14))
3.914842      	((6.253740e-09 1.342378e-13 2.065407e-09) (1.186192e-08 4.434365e-14 -1.937753e-13)) ((-7.545299e-16 1.221293e-12 -3.757582e-16) (8.315635e-14 -9.204327e-10 -4.763695e-14))
4.709811      	((5.790528e-09 2.915445e-14 1.888431e-09) (1.091029e-08 5.130833e-14 -1.645780e-13)) ((-6.232453e-16 1.212271e-12 -5.208852e-16) (9.110072e-14 -8.586684e-10 -6.903564e-14))
5.663773      	((5.235265e-09 9.752949e-14 1.737383e-09) (1.006535e-08 -6.506670e-15 7.073199e-13)) ((-3.884326e-16 1.153437e-12 -5.942663e-16) (8.852022e-14 -8.039587e-10 -8.191276e-14))
6.808528      	((4.829019e-09 -1.331103e-12 1.594281e-09) (9.307180e-09 -1.206988e-13 1.611745e-12)) ((-6.303578e-16 1.129518e-12 -6.341644e-16) (8.256982e-14 -7.549940e-10 -8.429140e-14))
8.182233      	((4.400884e-09 -1.417962e-12 1.470552e-09) (8.619614e-09 -2.227600e-13 2.775459e-12)) ((-4.970434e-16 1.091165e-12 -5.907926e-16) (8.035092e-14 -7.108472e-10 -8.164352e-14))
9.83068       	((4.034645e-09 -1.522378e-12 1.353039e-09) (7.990504e-09 -2.834037e-13 3.727756e-12)) ((-6.163253e-16 1.064693e-12 -5.423984e-16) (7.906659e-14 -6.706814e-10 -7.811867e-14))
11.808816     	((3.690527e-09 -1.038517e-12 1.250752e-09) (7.413404e-09 -2.900586e-13 3.619591e-12)) ((-3.717983e-16 1.036795e-12 -4.747425e-16) (7.169975e-14 -6.340715e-10 -7.037415e-14))
14.182579     	((3.388339e-09 -9.716119e-13 1.154613e-09) (6.883434e-09 -3.606772e-13 2.831042e-12)) ((-3.744557e-16 1.010226e-12 -4.072923e-16) (5.927846e-14 -6.006289e-10 -6.000828e-14))
17.031095     	((3.106312e-09 -1.029947e-12 1.065778e-09) (6.396219e-09 -4.536385e-13 1.896965e-12)) ((-2.641528e-16 9.888140e-13 -3.596772e-16) (4.760986e-14 -5.701580e-10 -4.680656e-14))
20.449314     	((2.853704e-09 -1.173307e-12 9.821287e-10) (5.949476e-09 -5.240851e-13 1.495082e-12)) ((-2.962976e-16 9.672615e-13 -2.878246e-16) (3.641244e-14 -5.424357e-10 -3.053137e-14))
24.551176     	((2.617757e-09 -8.067628e-13 9.050902e-10) (5.540314e-09 -5.775208e-13 1.246276e-12)) ((-2.500307e-16 9.518071e-13 -2.233593e-16) (2.688936e-14 -5.172351e-10 -1.689166e-14))
29.473411     	((2.404772e-09 -6.609948e-13 8.350721e-10) (5.166400e-09 -5.881351e-13 1.012714e-12)) ((-2.674575e-16 9.367251e-13 -1.793963e-16) (2.047827e-14 -4.943573e-10 -6.040152e-15))
35.380094     	((2.207618e-09 -6.407261e-13 7.727450e-10) (4.825027e-09 -6.058007e-13 1.013951e-12)) ((-2.519213e-16 9.248943e-13 -1.524770e-16) (1.740065e-14 -4.735866e-10 1.168252e-15))
42.468112     	((2.030345e-09 -6.602131e-13 7.173131e-10) (4.512986e-09 -6.056920e-13 1.164547e-12)) ((-2.657430e-16 9.136207e-13 -1.178662e-16) (1.681733e-14 -4.546884e-10 3.218246e-15))
50.973735     	((1.866118e-09 -7.408155e-13 6.677001e-10) (4.227720e-09 -6.067556e-13 1.415652e-12)) ((-2.434318e-16 9.042384e-13 -7.983006e-17) (1.619869e-14 -4.374890e-10 3.869808e-15))
61.180482     	((1.716882e-09 -6.477285e-13 6.210042e-10) (3.967214e-09 -5.876298e-13 1.722042e-12)) ((-2.293884e-16 8.955993e-13 -4.902147e-17) (1.681063e-14 -4.218697e-10 2.529250e-15))
73.428578     	((1.581037e-09 -2.819820e-13 5.806572e-10) (3.729732e-09 -5.094967e-13 1.541703e-12)) ((-2.483286e-16 8.884847e-13 -5.151915e-17) (1.796484e-14 -4.077354e-10 1.965913e-15))
88.126294     	((1.457411e-09 -2.492133e-13 5.436595e-10) (3.513723e-09 -4.550006e-13 1.217659e-12)) ((-2.118717e-16 8.822330e-13 -5.695001e-17) (2.038516e-14 -3.949787e-10 5.144314e-16))
105.763553    	((1.349836e-09 -5.267111e-14 5.115308e-10) (3.317927e-09 -3.726501e-13 9.426840e-13)) ((-1.944273e-16 8.771745e-13 -7.119958e-17) (2.282913e-14 -3.835030e-10 1.383573e-15))
126.928263    	((1.251929e-09 7.071945e-14 4.815198e-10) (3.140810e-09 -3.161972e-13 7.374944e-13)) ((-1.911946e-16 8.728034e-13 -8.336732e-17) (2.501614e-14 -3.732133e-10 5.879160e-16))
152.325916    	((1.165393e-09 1.627709e-13 4.509954e-10) (2.980729e-09 -2.794765e-13 7.012715e-13)) ((-1.777322e-16 8.692311e-13 -9.332947e-17) (2.665112e-14 -3.639952e-10 -1.234840e-15))
182.803099    	((1.088384e-09 1.656012e-13 4.237652e-10) (2.836315e-09 -2.545108e-13 6.042653e-13)) ((-1.740414e-16 8.661443e-13 -9.691681e-17) (2.851462e-14 -3.557467e-10 -3.163737e-15))
219.375719    	((1.020344e-09 1.664718e-13 4.023642e-10) (2.706107e-09 -2.259523e-13 4.831004e-13)) ((-1.672612e-16 8.635999e-13 -9.651147e-17) (2.918555e-14 -3.483741e-10 -4.669598e-15))
263.262863    	((9.597026e-10 1.976159e-13 3.835154e-10) (2.588782e-09 -1.906941e-13 2.975456e-13)) ((-1.590352e-16 8.615605e-13 -1.018645e-16) (2.898012e-14 -3.417886e-10 -5.340367e-15))
315.927436    	((9.067312e-10 2.218352e-13 3.667232e-10) (2.483260e-09 -1.782957e-13 -3.401453e-16)) ((-1.526403e-16 8.598934e-13 -9.781073e-17) (2.757794e-14 -3.359191e-10 -4.847944e-15))
379.124923    	((8.603741e-10 2.426935e-13 3.524148e-10) (2.388663e-09 -1.631280e-13 -4.088752e-13)) ((-1.579277e-16 8.585271e-13 -8.995724e-17) (2.601335e-14 -3.307085e-10 -3.838990e-15))
454.961908    	((8.207565e-10 2.687516e-13 3.405471e-10) (2.304359e-09 -1.420000e-13 -8.568405e-13)) ((-1.575538e-16 8.574861e-13 -8.804956e-17) (2.519534e-14 -3.261102e-10 -2.483816e-15))
545.966289    	((7.870610e-10 2.691881e-13 3.305594e-10) (2.229787e-09 -1.266754e-13 -1.285720e-12)) ((-1.559720e-16 8.566979e-13 -8.676910e-17) (2.474225e-14 -3.220832e-10 -1.371115e-15))
655.171547    	((7.590228e-10 2.993081e-13 3.226589e-10) (2.164472e-09 -1.164090e-13 -1.664815e-12)) ((-1.520249e-16 8.560579e-13 -8.573842e-17) (2.431444e-14 -3.185864e-10 -2.223567e-16))
786.217856    	((7.357646e-10 3.234961e-13 3.165393e-10) (2.107940e-09 -1.070387e-13 -1.988022e-12)) ((-1.463013e-16 8.555046e-13 -8.466866e-17) (2.388587e-14 -3.155825e-10 1.038470e-15))
943.473427    	((7.167916e-10 3.376111e-13 3.117535e-10) (2.059652e-09 -9.764598e-14 -2.321786e-12)) ((-1.474603e-16 8.549946e-13 -8.440458e-17) (2.343774e-14 -3.130297e-10 2.411432e-15))
1132.180113   	((7.014107e-10 3.290772e-13 3.080953e-10) (2.019040e-09 -8.953575e-14 -2.696352e-12)) ((-1.440866e-16 8.545807e-13 -8.613740e-17) (2.306710e-14 -3.108879e-10 3.776968e-15))
1358.628135   	((6.890237e-10 3.123937e-13 3.053089e-10) (1.985431e-09 -8.313048e-14 -3.089102e-12)) ((-1.440764e-16 8.542619e-13 -8.567357e-17) (2.290236e-14 -3.091164e-10 5.238519e-15))
1630.365763   	((6.791900e-10 2.984166e-13 3.031213e-10) (1.958060e-09 -7.911452e-14 -3.477304e-12)) ((-1.435379e-16 8.540131e-13 -8.454904e-17) (2.274828e-14 -3.076709e-10 6.582123e-15))
1956.450915   	((6.714849e-10 2.892400e-13 3.014791e-10) (1.936130e-09 -7.495504e-14 -3.846483e-12)) ((-1.426717e-16 8.538124e-13 -8.400979e-17) (2.261246e-14 -3.065074e-10 7.730685e-15))
2347.753098   	((6.654705e-10 2.879783e-13 3.002516e-10) (1.918831e-09 -7.084367e-14 -4.180022e-12)) ((-1.420848e-16 8.536524e-13 -8.339994e-17) (2.246822e-14 -3.055826e-10 8.721626e-15))
2817.315718   	((6.608088e-10 2.886650e-13 2.993302e-10) (1.905384e-09 -6.637839e-14 -4.468347e-12)) ((-1.411504e-16 8.535278e-13 -8.307085e-17) (2.237476e-14 -3.048561e-10 9.525148e-15))
3380.790861   	((6.572337e-10 2.900545e-13 2.986071e-10) (1.895073e-09 -6.235420e-14 -4.710010e-12)) ((-1.404817e-16 8.534290e-13 -8.275969e-17) (2.229378e-14 -3.042914e-10 1.016373e-14))
4056.961033   	((6.544969e-10 2.923909e-13 2.980391e-10) (1.887261e-09 -5.932949e-14 -4.908386e-12)) ((-1.398032e-16 8.533520e-13 -8.280398e-17) (2.221907e-14 -3.038562e-10 1.065163e-14))
4868.36524    	((6.524165e-10 2.947979e-13 2.976078e-10) (1.881407e-09 -5.709459e-14 -5.068151e-12)) ((-1.394404e-16 8.532908e-13 -8.273472e-17) (2.214203e-14 -3.035233e-10 1.102322e-14))
5842.050288   	((6.508424e-10 2.957899e-13 2.972788e-10) (1.877064e-09 -5.534010e-14 -5.194667e-12)) ((-1.389860e-16 8.532409e-13 -8.268937e-17) (2.208080e-14 -3.032702e-10 1.130212e-14))
7010.472346   	((6.496524e-10 2.965488e-13 2.970288e-10) (1.873870e-09 -5.401726e-14 -5.292775e-12)) ((-1.386067e-16 8.531998e-13 -8.272300e-17) (2.202923e-14 -3.030788e-10 1.151339e-14))
8412.578815   	((6.487534e-10 2.978441e-13 2.968390e-10) (1.871540e-09 -5.301102e-14 -5.367603e-12)) ((-1.383481e-16 8.531661e-13 -8.265303e-17) (2.199038e-14 -3.029345e-10 1.166525e-14))
10095.106578  	((6.480728e-10 2.987103e-13 2.966829e-10) (1.869852e-09 -5.221073e-14 -5.423632e-12)) ((-1.381930e-16 8.531381e-13 -8.265236e-17) (2.196330e-14 -3.028261e-10 1.177486e-14))
12114.139893  	((6.475557e-10 2.994340e-13 2.965769e-10) (1.868638e-09 -5.144868e-14 -5.464869e-12)) ((-1.380317e-16 8.531149e-13 -8.288570e-17) (2.194669e-14 -3.027449e-10 1.185498e-14))
14536.979872  	((6.471616e-10 3.014595e-13 2.964981e-10) (1.867770e-09 -5.082003e-14 -5.494842e-12)) ((-1.378003e-16 8.530954e-13 -8.297323e-17) (2.193233e-14 -3.026839e-10 1.190876e-14))
17395.173702  	((6.468626e-10 3.034187e-13 2.964400e-10) (1.867152e-09 -5.033135e-14 -5.516323e-12)) ((-1.376874e-16 8.530804e-13 -8.299622e-17) (2.192294e-14 -3.026383e-10 1.195855e-14))
20688.720196  	((6.466339e-10 3.042046e-13 2.964009e-10) (1.866715e-09 -4.999306e-14 -5.531420e-12)) ((-1.376029e-16 8.530693e-13 -8.305037e-17) (2.191316e-14 -3.026042e-10 1.199536e-14))
24417.618506  	((6.464582e-10 3.045805e-13 2.963723e-10) (1.866408e-09 -4.976671e-14 -5.541834e-12)) ((-1.375431e-16 8.530610e-13 -8.308633e-17) (2.190221e-14 -3.025787e-10 1.202311e-14))
28581.868031  	((6.463221e-10 3.045351e-13 2.963521e-10) (1.866193e-09 -4.961684e-14 -5.548896e-12)) ((-1.375077e-16 8.530547e-13 -8.306834e-17) (2.189070e-14 -3.025595e-10 1.204549e-14))
32935.37593   	((6.462165e-10 3.045322e-13 2.963480e-10) (1.866044e-09 -4.947790e-14 -5.553644e-12)) ((-1.374682e-16 8.530522e-13 -8.304449e-17) (2.188194e-14 -3.025452e-10 1.206266e-14))
37288.881078  	((6.461352e-10 3.044040e-13 2.963412e-10) (1.865942e-09 -4.934683e-14 -5.556753e-12)) ((-1.374498e-16 8.530522e-13 -8.303251e-17) (2.187587e-14 -3.025345e-10 1.207667e-14))
41642.384712  	((6.460721e-10 3.045732e-13 2.963360e-10) (1.865871e-09 -4.926022e-14 -5.558771e-12)) ((-1.374367e-16 8.530525e-13 -8.302138e-17) (2.187032e-14 -3.025265e-10 1.208716e-14))
45995.88758   	((6.460224e-10 3.049984e-13 2.963375e-10) (1.865823e-09 -4.919982e-14 -5.559947e-12)) ((-1.374448e-16 8.530529e-13 -8.298123e-17) (2.186545e-14 -3.025204e-10 1.209438e-14))
50349.39006   	((6.459832e-10 3.055665e-13 2.963403e-10) (1.865790e-09 -4.913583e-14 -5.560584e-12)) ((-1.374259e-16 8.530533e-13 -8.298951e-17) (2.186211e-14 -3.025158e-10 1.210127e-14))
54702.892354  	((6.459522e-10 3.062063e-13 2.963400e-10) (1.865768e-09 -4.909172e-14 -5.561034e-12)) ((-1.374221e-16 8.530537e-13 -8.298089e-17) (2.185910e-14 -3.025122e-10 1.210616e-14))
59056.394579  	((6.459277e-10 3.065522e-13 2.963400e-10) (1.865754e-09 -4.906436e-14 -5.561305e-12)) ((-1.374217e-16 8.530540e-13 -8.297780e-17) (2.185690e-14 -3.025096e-10 1.210986e-14))
63409.8968    	((6.459077e-10 3.066909e-13 2.963413e-10) (1.865745e-09 -4.904581e-14 -5.561406e-12)) ((-1.374206e-16 8.530543e-13 -8.297408e-17) (2.185543e-14 -3.025075e-10 1.211245e-14))
67763.399054  	((6.458918e-10 3.067617e-13 2.963432e-10) (1.865739e-09 -4.903526e-14 -5.561437e-12)) ((-1.374192e-16 8.530545e-13 -8.297169e-17) (2.185418e-14 -3.025060e-10 1.211431e-14))
72116.90136   	((6.458792e-10 3.067772e-13 2.963457e-10) (1.865735e-09 -4.902725e-14 -5.561430e-12)) ((-1.374166e-16 8.530547e-13 -8.296902e-17) (2.185313e-14 -3.025048e-10 1.211614e-14))
76470.403722  	((6.458691e-10 3.067838e-13 2.963480e-10) (1.865733e-09 -4.902077e-14 -5.561394e-12)) ((-1.374126e-16 8.530549e-13 -8.296572e-17) (2.185225e-14 -3.025038e-10 1.211730e-14))
80823.906142  	((6.458610e-10 3.068016e-13 2.963508e-10) (1.865732e-09 -4.901578e-14 -5.561334e-12)) ((-1.374078e-16 8.530550e-13 -8.296251e-17) (2.185155e-14 -3.025031e-10 1.211820e-14))
85177.408616  	((6.458556e-10 3.078241e-13 2.963524e-10) (1.865732e-09 -4.904535e-14 -5.561231e-12)) ((-1.374488e-16 8.530552e-13 -8.296102e-17) (2.184948e-14 -3.025026e-10 1.211894e-14))
89530.911138  	((6.458497e-10 3.072809e-13 2.963552e-10) (1.865732e-09 -4.901635e-14 -5.561176e-12)) ((-1.374145e-16 8.530553e-13 -8.295572e-17) (2.184999e-14 -3.025021e-10 1.211965e-14))
93884.413703  	((6.458447e-10 3.072476e-13 2.963585e-10) (1.865732e-09 -4.899972e-14 -5.561092e-12)) ((-1.373943e-16 8.530554e-13 -8.295364e-17) (2.185015e-14 -3.025018e-10 1.212002e-14))
98237.916304  	((6.458408e-10 3.072659e-13 2.963614e-10) (1.865732e-09 -4.899245e-14 -5.561004e-12)) ((-1.373869e-16 8.530555e-13 -8.295137e-17) (2.185005e-14 -3.025015e-10 1.212026e-14))
102591.418938 	((6.458376e-10 3.072987e-13 2.963642e-10) (1.865732e-09 -4.898997e-14 -5.560922e-12)) ((-1.373836e-16 8.530555e-13 -8.294931e-17) (2.184982e-14 -3.025013e-10 1.212042e-14))
106944.921598 	((6.458349e-10 3.073086e-13 2.963668e-10) (1.865732e-09 -4.899620e-14 -5.560860e-12)) ((-1.373814e-16 8.530556e-13 -8.294721e-17) (2.184949e-14 -3.025012e-10 1.212064e-14))
111298.42428  	((6.458328e-10 3.073375e-13 2.963693e-10) (1.865733e-09 -4.899870e-14 -5.560793e-12)) ((-1.373794e-16 8.530556e-13 -8.294569e-17) (2.184923e-14 -3.025011e-10 1.212073e-14))
115651.926979 	((6.458310e-10 3.073991e-13 2.963715e-10) (1.865733e-09 -4.899987e-14 -5.560731e-12)) ((-1.373775e-16 8.530557e-13 -8.294440e-17) (2.184898e-14 -3.025010e-10 1.212076e-14))
120005.429694 	((6.458296e-10 3.074614e-13 2.963735e-10) (1.865733e-09 -4.900065e-14 -5.560673e-12)) ((-1.373754e-16 8.530557e-13 -8.294327e-17) (2.184875e-14 -3.025009e-10 1.212078e-14))
124358.93242  	((6.458284e-10 3.075270e-13 2.963753e-10) (1.865733e-09 -4.899797e-14 -5.560622e-12)) ((-1.373734e-16 8.530558e-13 -8.294232e-17) (2.184869e-14 -3.025008e-10 1.212080e-14))
128712.435157 	((6.458274e-10 3.075974e-13 2.963770e-10) (1.865734e-09 -4.899575e-14 -5.560574e-12)) ((-1.373714e-16 8.530558e-13 -8.294146e-17) (2.184862e-14 -3.025008e-10 1.212082e-14))
133065.937901 	((6.458265e-10 3.077410e-13 2.963784e-10) (1.865734e-09 -4.899224e-14 -5.560531e-12)) ((-1.373707e-16 8.530558e-13 -8.294099e-17) (2.184861e-14 -3.025008e-10 1.212083e-14))
137419.440652 	((6.458258e-10 3.077901e-13 2.963800e-10) (1.865734e-09 -4.898967e-14 -5.560492e-12)) ((-1.373682e-16 8.530558e-13 -8.294020e-17) (2.184859e-14 -3.025007e-10 1.212080e-14))
141772.943408 	((6.458253e-10 3.078831e-13 2.963813e-10) (1.865734e-09 -4.898566e-14 -5.560458e-12)) ((-1.373656e-16 8.530558e-13 -8.293936e-17) (2.184851e-14 -3.025007e-10 1.212081e-14))
146126.446168 	((6.458248e-10 3.080152e-13 2.963824e-10) (1.865734e-09 -4.898046e-14 -5.560431e-12)) ((-1.373629e-16 8.530559e-13 -8.293880e-17) (2.184837e-14 -3.025007e-10 1.212080e-14))
150479.948932 	((6.458244e-10 3.079970e-13 2.963836e-10) (1.865734e-09 -4.898129e-14 -5.560396e-12)) ((-1.373616e-16 8.530559e-13 -8.293848e-17) (2.184833e-14 -3.025007e-10 1.212091e-14))
154833.451698 	((6.458239e-10 3.079999e-13 2.963847e-10) (1.865734e-09 -4.898287e-14 -5.560362e-12)) ((-1.373598e-16 8.530559e-13 -8.293839e-17) (2.184830e-14 -3.025007e-10 1.212101e-14))
159186.954466 	((6.458235e-10 3.078057e-13 2.963859e-10) (1.865734e-09 -4.899179e-14 -5.560325e-12)) ((-1.373595e-16 8.530559e-13 -8.293876e-17) (2.184860e-14 -3.025007e-10 1.212107e-14))
163540.457236 	((6.458231e-10 3.077408e-13 2.963870e-10) (1.865734e-09 -4.899216e-14 -5.560294e-12)) ((-1.373587e-16 8.530559e-13 -8.293848e-17) (2.184882e-14 -3.025007e-10 1.212111e-14))
167893.960007 	((6.458228e-10 3.077503e-13 2.963879e-10) (1.865734e-09 -4.899247e-14 -5.560269e-12)) ((-1.373566e-16 8.530559e-13 -8.293872e-17) (2.184886e-14 -3.025006e-10 1.212115e-14))
172247.462779 	((6.458226e-10 3.077791e-13 2.963888e-10) (1.865734e-09 -4.898980e-14 -5.560244e-12)) ((-1.373557e-16 8.530559e-13 -8.293935e-17) (2.184887e-14 -3.025006e-10 1.212122e-14))
176600.965553 	((6.458224e-10 3.078104e-13 2.963896e-10) (1.865734e-09 -4.898566e-14 -5.560221e-12)) ((-1.373544e-16 8.530559e-13 -8.293880e-17) (2.184885e-14 -3.025006e-10 1.212130e-14))
180954.468327 	((6.458223e-10 3.078571e-13 2.963903e-10) (1.865734e-09 -4.898400e-14 -5.560194e-12)) ((-1.373518e-16 8.530559e-13 -8.293844e-17) (2.184875e-14 -3.025006e-10 1.212136e-14))
185307.971101 	((6.458221e-10 3.079146e-13 2.963909e-10) (1.865734e-09 -4.898516e-14 -5.560217e-12)) ((-1.373527e-16 8.530559e-13 -8.294063e-17) (2.184844e-14 -3.025006e-10 1.212137e-14))
189661.473876 	((6.458220e-10 3.077527e-13 2.963915e-10) (1.865734e-09 -4.898973e-14 -5.560207e-12)) ((-1.373550e-16 8.530559e-13 -8.294008e-17) (2.184783e-14 -3.025006e-10 1.212143e-14))
