# Forces      
# CofR        : (0.000000e+00 0.000000e+00 0.000000e+00)
# Time        forces(pressure viscous)	moments(pressure viscous)
0             	((0.000000e+00 0.000000e+00 0.000000e+00) (1.262526e-04 -7.433602e-15 1.227896e-09)) ((0.000000e+00 0.000000e+00 0.000000e+00) (-2.867164e-16 -2.836744e-06 -1.941666e-15))
0.012         	((3.672207e-02 -5.775128e-08 9.329655e-03) (1.447904e-04 -2.184777e-10 -1.288917e-07)) ((-2.859766e-12 5.409302e-07 -5.970176e-12) (-4.583052e-13 -4.181569e-06 3.338507e-12))
0.0264        	((-2.731207e-03 -8.512107e-08 -6.696446e-04) (1.475238e-04 -4.039092e-10 -1.991515e-07)) ((3.510079e-12 -4.009028e-08 5.656812e-12) (3.200971e-12 -4.677417e-06 6.516622e-12))
0.04368       	((-7.581386e-03 -5.071607e-08 -9.545145e-04) (1.309137e-04 -4.333079e-10 -1.927656e-07)) ((5.616947e-12 -1.187233e-07 7.033585e-12) (7.316226e-12 -4.166185e-06 3.620029e-12))
0.064416      	((-7.113029e-05 1.098136e-07 -3.304418e-04) (1.158811e-04 2.134004e-09 -1.052883e-07)) ((-6.236887e-12 -4.830519e-10 3.133167e-13) (3.219909e-12 -3.743497e-06 1.058950e-11))
0.0892992     	((8.280553e-05 -1.438143e-07 -2.035920e-04) (1.069370e-04 3.396109e-09 -9.776950e-08)) ((3.404868e-12 3.773570e-09 -3.173451e-13) (-1.464054e-11 -3.539735e-06 2.774083e-12))
0.119159      	((-1.206635e-04 9.591312e-08 -1.379228e-04) (9.872894e-05 2.497164e-09 -1.695512e-07)) ((-1.646107e-12 -2.854200e-09 8.315625e-13) (-1.723547e-11 -3.314475e-06 -2.045872e-11))
0.154991      	((-6.159688e-05 2.405804e-08 -9.671824e-05) (9.009501e-05 2.076729e-09 -2.124387e-07)) ((5.967657e-12 -1.694816e-09 -1.153606e-12) (-1.205970e-11 -3.065672e-06 -6.241023e-12))
0.197989      	((-1.459089e-05 9.321257e-09 -6.931224e-05) (8.147614e-05 1.240781e-09 -2.629233e-07)) ((1.951498e-12 -6.615140e-10 -2.905999e-12) (-1.141203e-11 -2.814010e-06 2.224978e-11))
0.249587      	((2.171145e-06 1.156253e-08 -5.259996e-05) (7.313940e-05 4.116785e-10 -3.278473e-07)) ((-5.246615e-13 -3.059805e-10 -1.927610e-12) (-7.875534e-12 -2.565022e-06 3.094577e-11))
0.311504      	((9.883951e-06 1.332906e-09 -4.214265e-05) (6.532654e-05 -2.356882e-11 -4.032464e-07)) ((5.683300e-13 -1.641780e-10 -1.396969e-12) (-7.180270e-12 -2.323875e-06 3.153942e-11))
0.385805      	((1.418066e-05 -1.792539e-09 -3.566264e-05) (5.823505e-05 -2.104068e-10 -4.848735e-07)) ((4.673758e-13 -9.949281e-11 -5.861951e-13) (-7.541324e-12 -2.096621e-06 3.197614e-11))
0.474966      	((1.645334e-05 -3.545594e-09 -3.142176e-05) (5.196403e-05 -2.775739e-10 -5.646577e-07)) ((2.572977e-13 -5.227517e-11 -2.983420e-13) (-8.370507e-12 -1.888275e-06 3.490646e-11))
0.581959      	((1.738515e-05 -3.308069e-09 -2.883851e-05) (4.644652e-05 -2.985673e-10 -6.434180e-07)) ((3.568712e-13 -1.902339e-11 -2.095762e-13) (-9.668151e-12 -1.699122e-06 3.722551e-11))
0.710351      	((1.736937e-05 -3.342219e-09 -2.722158e-05) (4.158921e-05 -3.061721e-10 -7.123948e-07)) ((3.273989e-13 2.638234e-12 -8.125323e-14) (-1.113163e-11 -1.528506e-06 3.429421e-11))
0.864421      	((1.675536e-05 -2.766532e-09 -2.629817e-05) (3.732289e-05 -2.570097e-10 -7.700742e-07)) ((2.678671e-13 1.373907e-11 -5.752842e-14) (-1.240894e-11 -1.375931e-06 2.862585e-11))
1.049306      	((1.583783e-05 -2.130090e-09 -2.573261e-05) (3.357432e-05 -2.024260e-10 -8.246652e-07)) ((2.286901e-13 1.776117e-11 -3.352462e-14) (-1.337704e-11 -1.239906e-06 2.203085e-11))
1.271167      	((1.476620e-05 -2.139645e-09 -2.543265e-05) (3.027635e-05 -1.443694e-10 -8.850640e-07)) ((1.578207e-13 1.704842e-11 -2.887082e-14) (-1.413964e-11 -1.118915e-06 1.562416e-11))
1.5374        	((1.364056e-05 -1.858854e-09 -2.527773e-05) (2.736427e-05 -1.026019e-10 -9.550313e-07)) ((1.135552e-13 1.278509e-11 -2.202248e-14) (-1.491661e-11 -1.011493e-06 1.013868e-11))
1.85688       	((1.255009e-05 -1.401277e-09 -2.521152e-05) (2.478527e-05 -1.111091e-10 -1.033990e-06)) ((5.825154e-14 8.959201e-12 -8.035392e-15) (-1.533043e-11 -9.161793e-07 5.633943e-12))
2.240256      	((1.154741e-05 -1.635061e-09 -2.517164e-05) (2.249879e-05 -1.366996e-10 -1.120421e-06)) ((5.906203e-14 6.510719e-12 -5.670695e-15) (-1.564657e-11 -8.316345e-07 2.234775e-12))
2.700307      	((1.064237e-05 -1.769839e-09 -2.514572e-05) (2.046977e-05 -1.563110e-10 -1.213132e-06)) ((6.586908e-14 5.334828e-12 -4.977309e-15) (-1.647892e-11 -7.565907e-07 -2.659659e-13))
3.252369      	((9.828915e-06 -2.549917e-09 -2.511128e-05) (1.866398e-05 -1.859291e-10 -1.311967e-06)) ((1.032704e-13 5.631200e-12 4.582267e-15) (-1.836217e-11 -6.897904e-07 -2.820959e-12))
3.914842      	((9.116800e-06 -3.471388e-09 -2.506532e-05) (1.705402e-05 -2.436769e-10 -1.416681e-06)) ((1.623429e-13 7.167780e-12 8.079920e-15) (-2.181088e-11 -6.302285e-07 -5.188962e-12))
4.709811      	((8.509695e-06 -3.897785e-09 -2.500120e-05) (1.562253e-05 -2.920954e-10 -1.526496e-06)) ((1.939369e-13 9.860646e-12 1.791299e-14) (-2.624194e-11 -5.772568e-07 -7.261478e-12))
5.663773      	((8.011298e-06 -4.110219e-09 -2.491129e-05) (1.435603e-05 -3.163889e-10 -1.640475e-06)) ((1.830893e-13 1.381227e-11 7.732953e-15) (-3.021244e-11 -5.303652e-07 -7.816904e-12))
6.808528      	((7.617969e-06 -4.243855e-09 -2.478966e-05) (1.324031e-05 -3.120911e-10 -1.757977e-06)) ((1.929260e-13 1.942633e-11 2.456019e-15) (-3.378101e-11 -4.890268e-07 -5.192545e-12))
8.182233      	((7.335795e-06 -5.220354e-09 -2.463430e-05) (1.225970e-05 -3.241792e-10 -1.878316e-06)) ((2.497391e-13 2.666871e-11 -6.966110e-15) (-3.886144e-11 -4.526666e-07 -1.434277e-12))
9.83068       	((7.168971e-06 -4.892465e-09 -2.444443e-05) (1.139828e-05 -3.836419e-10 -2.000496e-06)) ((2.506747e-13 3.559189e-11 -8.075733e-15) (-4.321281e-11 -4.207081e-07 1.429665e-12))
11.808816     	((7.116163e-06 -4.946408e-09 -2.422505e-05) (1.064370e-05 -4.090242e-10 -2.122821e-06)) ((2.588581e-13 4.637567e-11 -1.377907e-14) (-4.822311e-11 -3.927003e-07 5.926969e-12))
14.182579     	((7.173334e-06 -4.685450e-09 -2.397327e-05) (9.987113e-06 -4.757186e-10 -2.242929e-06)) ((2.314561e-13 5.895207e-11 -3.383826e-14) (-5.282621e-11 -3.683316e-07 9.360085e-12))
17.031095     	((7.335348e-06 -3.902487e-09 -2.369097e-05) (9.421011e-06 -5.082627e-10 -2.357756e-06)) ((1.848848e-13 7.323498e-11 -5.601487e-14) (-5.433275e-11 -3.473782e-07 1.108176e-11))
20.449314     	((7.588799e-06 -2.425504e-09 -2.338502e-05) (8.940183e-06 -4.673215e-10 -2.465364e-06)) ((1.394114e-13 8.921247e-11 -6.509663e-14) (-5.180379e-11 -3.296357e-07 1.086988e-11))
24.551176     	((7.925133e-06 -5.918110e-10 -2.305812e-05) (8.537658e-06 -3.798824e-10 -2.564419e-06)) ((9.871057e-14 1.072964e-10 -6.769096e-14) (-4.527784e-11 -3.149321e-07 7.077584e-12))
29.473411     	((8.321816e-06 1.399165e-09 -2.272204e-05) (8.207773e-06 -2.037503e-10 -2.653543e-06)) ((3.997466e-14 1.257412e-10 -7.662567e-14) (-3.566273e-11 -3.031149e-07 4.593227e-12))
35.309554     	((8.745706e-06 4.030308e-09 -2.237341e-05) (7.945623e-06 1.077095e-10 -2.730427e-06)) ((-4.238504e-14 1.435586e-10 -8.428711e-14) (-2.126795e-11 -2.939641e-07 -1.746685e-13))
42.053197     	((9.160248e-06 6.641931e-09 -2.201012e-05) (7.743801e-06 4.774736e-10 -2.790005e-06)) ((-9.133856e-14 1.584954e-10 -1.055690e-13) (-2.110243e-12 -2.870389e-07 -2.202142e-12))
49.697394     	((9.519898e-06 8.306006e-09 -2.161675e-05) (7.586345e-06 8.481619e-10 -2.828182e-06)) ((-1.347507e-13 1.701007e-10 -1.264264e-13) (1.749740e-11 -2.816140e-07 -8.636259e-13))
58.237988     	((9.811077e-06 9.973982e-09 -2.119404e-05) (7.457475e-06 1.215043e-09 -2.845326e-06)) ((-1.918909e-13 1.791028e-10 -1.445468e-13) (3.888115e-11 -2.771116e-07 -1.599718e-12))
67.207368     	((1.004523e-05 1.161329e-08 -2.078065e-05) (7.349724e-06 1.541258e-09 -2.846560e-06)) ((-2.702672e-13 1.864355e-10 -1.465987e-13) (5.981879e-11 -2.733586e-07 -3.278077e-12))
76.209519     	((1.019686e-05 1.315794e-08 -2.038587e-05) (7.258724e-06 1.911873e-09 -2.839938e-06)) ((-3.683581e-13 1.926037e-10 -1.498906e-13) (8.174383e-11 -2.702630e-07 -4.640001e-12))
85.239018     	((1.026362e-05 1.398946e-08 -2.000926e-05) (7.179315e-06 2.296942e-09 -2.831081e-06)) ((-4.071110e-13 1.969342e-10 -1.475746e-13) (1.047602e-10 -2.676308e-07 -5.550831e-12))
94.2809       	((1.027984e-05 1.386749e-08 -1.966319e-05) (7.108245e-06 2.577136e-09 -2.822506e-06)) ((-4.267458e-13 1.996506e-10 -1.436423e-13) (1.216077e-10 -2.653162e-07 -6.321512e-12))
103.328708    	((1.026637e-05 1.398939e-08 -1.934435e-05) (7.043769e-06 2.741904e-09 -2.815385e-06)) ((-4.349247e-13 2.011948e-10 -1.387326e-13) (1.324018e-10 -2.632200e-07 -8.283986e-12))
112.383563    	((1.023806e-05 1.415733e-08 -1.905514e-05) (6.985415e-06 2.865147e-09 -2.809801e-06)) ((-4.461361e-13 2.020062e-10 -1.300051e-13) (1.413705e-10 -2.613178e-07 -9.739684e-12))
121.446715    	((1.019910e-05 1.446618e-08 -1.878142e-05) (6.932395e-06 2.953305e-09 -2.805779e-06)) ((-4.540518e-13 2.024187e-10 -1.222951e-13) (1.488811e-10 -2.595805e-07 -1.108476e-11))
130.517502    	((1.015997e-05 1.463679e-08 -1.852683e-05) (6.884045e-06 3.017737e-09 -2.803074e-06)) ((-4.500566e-13 2.026433e-10 -1.165553e-13) (1.543824e-10 -2.579881e-07 -1.375736e-11))
139.594897    	((1.012602e-05 1.511533e-08 -1.829587e-05) (6.840292e-06 3.080504e-09 -2.801399e-06)) ((-4.494078e-13 2.027672e-10 -1.121917e-13) (1.587909e-10 -2.565382e-07 -1.778835e-11))
148.678311    	((1.009739e-05 1.536531e-08 -1.808637e-05) (6.801005e-06 3.100720e-09 -2.800488e-06)) ((-4.461315e-13 2.028919e-10 -1.074820e-13) (1.614455e-10 -2.552282e-07 -2.195786e-11))
157.767295    	((1.007084e-05 1.560871e-08 -1.789302e-05) (6.765713e-06 3.101121e-09 -2.799929e-06)) ((-4.427838e-13 2.030687e-10 -1.028090e-13) (1.631239e-10 -2.540505e-07 -2.557142e-11))
166.861346    	((1.004731e-05 1.586428e-08 -1.771657e-05) (6.734037e-06 3.110096e-09 -2.799535e-06)) ((-4.343580e-13 2.032501e-10 -9.715440e-14) (1.645808e-10 -2.529963e-07 -2.888591e-11))
175.959999    	((1.002570e-05 1.615605e-08 -1.755226e-05) (6.705611e-06 3.113076e-09 -2.799147e-06)) ((-4.259191e-13 2.034811e-10 -9.098838e-14) (1.657965e-10 -2.520563e-07 -3.202095e-11))
185.062873    	((1.000550e-05 1.668853e-08 -1.739706e-05) (6.680050e-06 3.128195e-09 -2.798657e-06)) ((-4.113304e-13 2.037627e-10 -8.374881e-14) (1.668555e-10 -2.512207e-07 -3.486742e-11))
194.16962     	((9.985507e-06 1.706959e-08 -1.724875e-05) (6.657009e-06 3.140520e-09 -2.797930e-06)) ((-3.940185e-13 2.040994e-10 -7.825077e-14) (1.676705e-10 -2.504803e-07 -3.759024e-11))
203.279907    	((9.966681e-06 1.748877e-08 -1.710796e-05) (6.636251e-06 3.161812e-09 -2.796980e-06)) ((-3.774794e-13 2.044507e-10 -8.044515e-14) (1.683045e-10 -2.498242e-07 -3.972333e-11))
212.393457    	((9.947283e-06 1.821716e-08 -1.697264e-05) (6.617394e-06 3.211964e-09 -2.795994e-06)) ((-3.641871e-13 2.047616e-10 -8.603552e-14) (1.693761e-10 -2.492335e-07 -4.131016e-11))
221.510028    	((9.928455e-06 1.867264e-08 -1.684302e-05) (6.600142e-06 3.274782e-09 -2.795072e-06)) ((-3.505600e-13 2.050612e-10 -8.912798e-14) (1.704899e-10 -2.486950e-07 -4.220422e-11))
230.62939     	((9.910874e-06 1.959644e-08 -1.672047e-05) (6.584364e-06 3.375962e-09 -2.794206e-06)) ((-3.492161e-13 2.053425e-10 -8.806173e-14) (1.725803e-10 -2.482032e-07 -4.206321e-11))
239.751348    	((9.893849e-06 2.052337e-08 -1.660398e-05) (6.569874e-06 3.519827e-09 -2.793407e-06)) ((-3.482037e-13 2.055941e-10 -8.368410e-14) (1.765068e-10 -2.477515e-07 -4.111154e-11))
248.875718    	((9.878375e-06 2.177083e-08 -1.649325e-05) (6.556590e-06 3.719797e-09 -2.792668e-06)) ((-3.515533e-13 2.058409e-10 -8.078458e-14) (1.824889e-10 -2.473380e-07 -3.937814e-11))
258.002326    	((9.863512e-06 2.253383e-08 -1.638774e-05) (6.544393e-06 3.924768e-09 -2.791988e-06)) ((-3.517633e-13 2.060657e-10 -8.036148e-14) (1.885576e-10 -2.469588e-07 -3.712242e-11))
267.131012    	((9.849532e-06 2.345753e-08 -1.628777e-05) (6.533176e-06 4.124805e-09 -2.791414e-06)) ((-3.536026e-13 2.062662e-10 -8.033093e-14) (1.948879e-10 -2.466097e-07 -3.479599e-11))
276.261626    	((9.836195e-06 2.402188e-08 -1.619274e-05) (6.522854e-06 4.310832e-09 -2.790955e-06)) ((-3.505834e-13 2.064482e-10 -7.997464e-14) (2.003917e-10 -2.462879e-07 -3.261401e-11))
285.394028    	((9.823707e-06 2.465976e-08 -1.610278e-05) (6.513348e-06 4.485824e-09 -2.790577e-06)) ((-3.502389e-13 2.066258e-10 -7.925441e-14) (2.053656e-10 -2.459916e-07 -3.055854e-11))
294.528088    	((9.811901e-06 2.534899e-08 -1.601705e-05) (6.504572e-06 4.656058e-09 -2.790270e-06)) ((-3.525710e-13 2.068014e-10 -7.686530e-14) (2.103560e-10 -2.457189e-07 -2.855425e-11))
303.66368     	((9.800868e-06 2.598947e-08 -1.593530e-05) (6.496468e-06 4.824003e-09 -2.790016e-06)) ((-3.537627e-13 2.069794e-10 -7.389784e-14) (2.153256e-10 -2.454684e-07 -2.643001e-11))
312.800694    	((9.790018e-06 2.662637e-08 -1.585711e-05) (6.488951e-06 4.992112e-09 -2.789796e-06)) ((-3.569927e-13 2.071501e-10 -7.090547e-14) (2.204179e-10 -2.452376e-07 -2.417133e-11))
321.939035    	((9.779612e-06 2.724019e-08 -1.578242e-05) (6.481965e-06 5.154439e-09 -2.789595e-06)) ((-3.608653e-13 2.073203e-10 -6.766418e-14) (2.253960e-10 -2.450248e-07 -2.191733e-11))
331.078619    	((9.769630e-06 2.792239e-08 -1.571083e-05) (6.475461e-06 5.316386e-09 -2.789391e-06)) ((-3.658524e-13 2.074966e-10 -6.380189e-14) (2.306487e-10 -2.448285e-07 -1.979591e-11))
340.219366    	((9.760247e-06 2.879857e-08 -1.564210e-05) (6.469398e-06 5.489371e-09 -2.789160e-06)) ((-3.728146e-13 2.076827e-10 -5.965906e-14) (2.366640e-10 -2.446477e-07 -1.786969e-11))
349.361203    	((9.751719e-06 2.960690e-08 -1.557686e-05) (6.463778e-06 5.661855e-09 -2.788875e-06)) ((-3.783453e-13 2.078802e-10 -5.510773e-14) (2.428555e-10 -2.444829e-07 -1.637083e-11))
358.504062    	((9.743559e-06 3.041084e-08 -1.551466e-05) (6.458565e-06 5.830310e-09 -2.788540e-06)) ((-3.845369e-13 2.080739e-10 -5.024338e-14) (2.491491e-10 -2.443327e-07 -1.536555e-11))
367.647881    	((9.735426e-06 3.133389e-08 -1.545488e-05) (6.453684e-06 6.001241e-09 -2.788173e-06)) ((-3.917649e-13 2.082582e-10 -4.547705e-14) (2.558205e-10 -2.441941e-07 -1.482474e-11))
376.792601    	((9.727986e-06 3.219281e-08 -1.539834e-05) (6.449126e-06 6.169856e-09 -2.787771e-06)) ((-3.971220e-13 2.084412e-10 -4.167053e-14) (2.625365e-10 -2.440663e-07 -1.463233e-11))
385.938167    	((9.720892e-06 3.290039e-08 -1.534446e-05) (6.444874e-06 6.327487e-09 -2.787348e-06)) ((-4.020090e-13 2.086162e-10 -3.821244e-14) (2.690237e-10 -2.439484e-07 -1.484068e-11))
395.084529    	((9.714374e-06 3.366976e-08 -1.529380e-05) (6.440912e-06 6.473254e-09 -2.786921e-06)) ((-4.093360e-13 2.087780e-10 -3.504870e-14) (2.754835e-10 -2.438390e-07 -1.549424e-11))
404.231639    	((9.708151e-06 3.439374e-08 -1.524595e-05) (6.437215e-06 6.609720e-09 -2.786519e-06)) ((-4.159530e-13 2.089209e-10 -3.244790e-14) (2.817937e-10 -2.437364e-07 -1.642475e-11))
413.37945     	((9.702002e-06 3.526804e-08 -1.520032e-05) (6.433736e-06 6.747779e-09 -2.786162e-06)) ((-4.224610e-13 2.090476e-10 -3.013660e-14) (2.882176e-10 -2.436388e-07 -1.764448e-11))
422.527918    	((9.696326e-06 3.621700e-08 -1.515721e-05) (6.430464e-06 6.892878e-09 -2.785840e-06)) ((-4.294367e-13 2.091645e-10 -2.776940e-14) (2.949599e-10 -2.435460e-07 -1.913503e-11))
431.676995    	((9.690922e-06 3.723511e-08 -1.511617e-05) (6.427389e-06 7.044384e-09 -2.785551e-06)) ((-4.375213e-13 2.092709e-10 -2.587487e-14) (3.020037e-10 -2.434579e-07 -2.086355e-11))
440.826638    	((9.685747e-06 3.826252e-08 -1.507699e-05) (6.424488e-06 7.199272e-09 -2.785300e-06)) ((-4.465529e-13 2.093683e-10 -2.456296e-14) (3.092983e-10 -2.433738e-07 -2.280275e-11))
449.976807    	((9.681058e-06 3.945082e-08 -1.503991e-05) (6.421762e-06 7.366689e-09 -2.785076e-06)) ((-4.577146e-13 2.094615e-10 -2.352097e-14) (3.171616e-10 -2.432941e-07 -2.487740e-11))
459.127463    	((9.676635e-06 4.069972e-08 -1.500454e-05) (6.419203e-06 7.548345e-09 -2.784873e-06)) ((-4.701960e-13 2.095498e-10 -2.263088e-14) (3.256099e-10 -2.432188e-07 -2.699310e-11))
468.278571    	((9.672557e-06 4.205062e-08 -1.497098e-05) (6.416802e-06 7.745357e-09 -2.784686e-06)) ((-4.839382e-13 2.096343e-10 -2.144363e-14) (3.346560e-10 -2.431479e-07 -2.917155e-11))
477.430099    	((9.668697e-06 4.348644e-08 -1.493888e-05) (6.414548e-06 7.958248e-09 -2.784514e-06)) ((-4.987736e-13 2.097149e-10 -1.990548e-14) (3.443720e-10 -2.430813e-07 -3.144739e-11))
486.582013    	((9.665085e-06 4.498226e-08 -1.490826e-05) (6.412434e-06 8.184931e-09 -2.784351e-06)) ((-5.139414e-13 2.097936e-10 -1.820379e-14) (3.546757e-10 -2.430187e-07 -3.383636e-11))
495.734285    	((9.661726e-06 4.655559e-08 -1.487917e-05) (6.410452e-06 8.424448e-09 -2.784193e-06)) ((-5.298277e-13 2.098705e-10 -1.653915e-14) (3.655235e-10 -2.429603e-07 -3.636509e-11))
504.886887    	((9.658511e-06 4.825649e-08 -1.485116e-05) (6.408591e-06 8.679825e-09 -2.784039e-06)) ((-5.469807e-13 2.099459e-10 -1.486874e-14) (3.770533e-10 -2.429056e-07 -3.907159e-11))
514.039793    	((9.655504e-06 5.002808e-08 -1.482446e-05) (6.406843e-06 8.950246e-09 -2.783884e-06)) ((-5.653601e-13 2.100201e-10 -1.320356e-14) (3.892520e-10 -2.428546e-07 -4.193034e-11))
523.192978    	((9.652695e-06 5.184876e-08 -1.479911e-05) (6.405203e-06 9.233572e-09 -2.783724e-06)) ((-5.846612e-13 2.100932e-10 -1.144745e-14) (4.020445e-10 -2.428071e-07 -4.494004e-11))
532.346419    	((9.650090e-06 5.371738e-08 -1.477500e-05) (6.403668e-06 9.528783e-09 -2.783558e-06)) ((-6.049410e-13 2.101652e-10 -9.703469e-15) (4.153737e-10 -2.427632e-07 -4.807122e-11))
541.500095    	((9.647636e-06 5.562023e-08 -1.475202e-05) (6.402230e-06 9.835354e-09 -2.783384e-06)) ((-6.256695e-13 2.102363e-10 -7.898149e-15) (4.291554e-10 -2.427225e-07 -5.125343e-11))
550.653986    	((9.645342e-06 5.754962e-08 -1.473021e-05) (6.400884e-06 1.015180e-08 -2.783204e-06)) ((-6.469735e-13 2.103060e-10 -5.836433e-15) (4.433279e-10 -2.426849e-07 -5.446384e-11))
559.808073    	((9.643184e-06 5.950208e-08 -1.470965e-05) (6.399623e-06 1.047681e-08 -2.783019e-06)) ((-6.687400e-13 2.103731e-10 -3.692770e-15) (4.578365e-10 -2.426502e-07 -5.769219e-11))
568.962338    	((9.641166e-06 6.146454e-08 -1.468993e-05) (6.398443e-06 1.080834e-08 -2.782830e-06)) ((-6.905758e-13 2.104391e-10 -1.468051e-15) (4.725886e-10 -2.426180e-07 -6.093607e-11))
