# Forces      
# CofR        : (0.000000e+00 0.000000e+00 0.000000e+00)
# Time        forces(pressure viscous)	moments(pressure viscous)
0             	((0.000000e+00 0.000000e+00 0.000000e+00) (-9.745392e-12 1.589050e-02 9.497140e-13)) ((0.000000e+00 0.000000e+00 0.000000e+00) (3.570415e-04 -5.971574e-14 -6.852598e-09))
0.0119295     	((1.819894e-04 4.719671e+00 7.020266e-01) (-5.137465e-07 2.821908e-02 -2.752709e-03)) ((-5.502622e-05 4.247921e-06 -9.113959e-07) (8.988822e-04 2.284829e-08 -4.810507e-09))
0.0262449     	((-3.337179e-04 -1.865763e+00 -9.968659e-01) (-5.261255e-07 2.683745e-02 -4.001136e-03)) ((2.256291e-05 -1.149477e-06 2.933281e-07) (9.538632e-04 1.834882e-08 1.300604e-08))
0.0434234     	((7.881663e-05 1.501485e-01 -5.236029e-01) (-2.335562e-06 2.176667e-02 -3.306898e-03)) ((1.026511e-06 1.459258e-07 7.806497e-08) (7.794468e-04 -1.302844e-08 9.958982e-08))
0.0640375     	((-5.693176e-04 -9.486025e-02 -5.025957e-01) (-1.644553e-05 1.958226e-02 -3.085358e-03)) ((1.438197e-06 2.636034e-07 -4.497777e-08) (7.009633e-04 -6.846147e-09 2.370003e-07))
0.0887745     	((-4.055990e-04 6.364385e-02 -4.522255e-01) (-1.813277e-05 1.816193e-02 -2.986672e-03)) ((4.091251e-07 3.321802e-07 -5.248286e-08) (6.493445e-04 4.438516e-08 4.077525e-07))
0.118459      	((-1.860997e-04 4.836110e-03 -4.611329e-01) (-1.418984e-05 1.736498e-02 -2.963728e-03)) ((3.701005e-07 2.821920e-07 -7.186652e-08) (6.230734e-04 7.009257e-08 4.720390e-07))
0.153385      	((-1.324829e-04 3.062235e-02 -4.468243e-01) (-1.287235e-05 1.680474e-02 -3.103755e-03)) ((6.087394e-08 2.640721e-07 -7.543501e-08) (6.023163e-04 5.875908e-08 5.071559e-07))
0.193521      	((-1.473057e-04 2.268871e-02 -4.518313e-01) (-1.142817e-05 1.638906e-02 -3.301127e-03)) ((-2.173769e-07 3.030238e-07 -1.174508e-07) (5.860459e-04 5.240834e-08 5.312639e-07))
0.23886       	((-4.611868e-05 3.099039e-02 -4.454310e-01) (-1.087014e-05 1.607801e-02 -3.487351e-03)) ((-5.080857e-07 3.023265e-07 -1.275252e-07) (5.732139e-04 5.217892e-08 5.589896e-07))
0.289401      	((-5.839319e-05 3.242872e-02 -4.467011e-01) (-1.105027e-05 1.585754e-02 -3.677117e-03)) ((-8.151346e-07 3.138385e-07 -1.642341e-07) (5.638669e-04 4.737916e-08 6.255676e-07))
0.341474      	((3.334018e-05 3.780674e-02 -4.430515e-01) (-9.842707e-06 1.571163e-02 -3.845014e-03)) ((-1.038209e-06 3.623888e-07 -1.895905e-07) (5.571330e-04 2.170263e-08 6.719423e-07))
0.393261      	((7.860516e-05 4.111570e-02 -4.418227e-01) (-8.505589e-06 1.560948e-02 -3.979073e-03)) ((-1.263718e-06 3.910721e-07 -2.188728e-07) (5.517856e-04 -7.518843e-09 7.078493e-07))
0.444686      	((1.510585e-04 4.545249e-02 -4.379152e-01) (-7.398858e-06 1.551919e-02 -4.079094e-03)) ((-1.455652e-06 4.142882e-07 -2.474443e-07) (5.466686e-04 -3.450457e-08 7.376762e-07))
0.495821      	((2.120364e-04 4.860845e-02 -4.347254e-01) (-6.811749e-06 1.541751e-02 -4.153182e-03)) ((-1.647930e-06 4.348096e-07 -2.759839e-07) (5.412588e-04 -6.241741e-08 7.611873e-07))
0.546848      	((2.945118e-04 5.145900e-02 -4.301912e-01) (-6.884079e-06 1.529518e-02 -4.205731e-03)) ((-1.845375e-06 4.353674e-07 -3.034484e-07) (5.356058e-04 -8.084039e-08 8.009486e-07))
0.597937      	((4.055654e-04 5.312967e-02 -4.259422e-01) (-6.727246e-06 1.516159e-02 -4.246709e-03)) ((-2.015766e-06 4.404188e-07 -3.314830e-07) (5.301810e-04 -9.578044e-08 8.713393e-07))
0.649164      	((5.118003e-04 5.423592e-02 -4.213036e-01) (-6.577622e-06 1.503204e-02 -4.277348e-03)) ((-2.154473e-06 4.489500e-07 -3.576365e-07) (5.253842e-04 -1.122256e-07 9.665084e-07))
0.700504      	((6.194546e-04 5.473149e-02 -4.173197e-01) (-6.332497e-06 1.491597e-02 -4.299587e-03)) ((-2.258467e-06 4.538562e-07 -3.791982e-07) (5.213081e-04 -1.233660e-07 1.068407e-06))
0.751894      	((7.531250e-04 5.456602e-02 -4.134335e-01) (-6.035076e-06 1.481261e-02 -4.315964e-03)) ((-2.317618e-06 4.589875e-07 -3.943569e-07) (5.177728e-04 -1.319525e-07 1.184248e-06))
0.803306      	((9.289285e-04 5.394622e-02 -4.100703e-01) (-5.657836e-06 1.471805e-02 -4.329350e-03)) ((-2.349387e-06 4.607365e-07 -4.063040e-07) (5.145750e-04 -1.498761e-07 1.304684e-06))
0.854748      	((1.155317e-03 5.311179e-02 -4.069780e-01) (-5.033768e-06 1.463096e-02 -4.342044e-03)) ((-2.353208e-06 4.625710e-07 -4.144207e-07) (5.116097e-04 -1.799726e-07 1.434835e-06))
0.906236      	((1.428733e-03 5.233850e-02 -4.043364e-01) (-3.921057e-06 1.455230e-02 -4.355057e-03)) ((-2.348830e-06 4.623229e-07 -4.221102e-07) (5.088603e-04 -2.210774e-07 1.573324e-06))
0.95777       	((1.701659e-03 5.182938e-02 -4.020045e-01) (-2.419546e-06 1.448168e-02 -4.367753e-03)) ((-2.342411e-06 4.666952e-07 -4.274946e-07) (5.063378e-04 -2.754925e-07 1.712047e-06))
1.009342      	((2.004166e-03 5.146806e-02 -3.998303e-01) (-7.551994e-07 1.441797e-02 -4.379142e-03)) ((-2.344171e-06 4.740219e-07 -4.318895e-07) (5.040686e-04 -3.468446e-07 1.849451e-06))
1.060947      	((2.312822e-03 5.124348e-02 -3.977732e-01) (1.093990e-06 1.436041e-02 -4.388248e-03)) ((-2.349348e-06 4.804312e-07 -4.364016e-07) (5.020697e-04 -4.310529e-07 1.982197e-06))
1.112578      	((2.680738e-03 5.093833e-02 -3.957379e-01) (3.105016e-06 1.430794e-02 -4.395595e-03)) ((-2.350010e-06 4.870889e-07 -4.403273e-07) (5.002929e-04 -5.259255e-07 2.123019e-06))
1.164235      	((3.087369e-03 5.062106e-02 -3.938488e-01) (5.232927e-06 1.425951e-02 -4.402441e-03)) ((-2.345188e-06 4.937058e-07 -4.439913e-07) (4.986551e-04 -6.354199e-07 2.281669e-06))
1.215914      	((3.528674e-03 5.028413e-02 -3.920849e-01) (7.514714e-06 1.421455e-02 -4.409437e-03)) ((-2.337099e-06 4.989921e-07 -4.478575e-07) (4.971123e-04 -7.593783e-07 2.456638e-06))
1.267612      	((4.042511e-03 4.997585e-02 -3.904545e-01) (1.012272e-05 1.417284e-02 -4.416489e-03)) ((-2.328345e-06 5.043959e-07 -4.520329e-07) (4.956655e-04 -8.999839e-07 2.652306e-06))
1.319329      	((4.623920e-03 4.968035e-02 -3.889429e-01) (1.309038e-05 1.413434e-02 -4.423275e-03)) ((-2.320499e-06 5.108264e-07 -4.554877e-07) (4.943247e-04 -1.062443e-06 2.874339e-06))
1.371062      	((5.265496e-03 4.938469e-02 -3.875372e-01) (1.636515e-05 1.409904e-02 -4.429458e-03)) ((-2.314738e-06 5.182015e-07 -4.584035e-07) (4.931022e-04 -1.249102e-06 3.124594e-06))
1.422809      	((5.980989e-03 4.909894e-02 -3.862267e-01) (1.987149e-05 1.406657e-02 -4.434627e-03)) ((-2.310208e-06 5.287128e-07 -4.608441e-07) (4.920004e-04 -1.460616e-06 3.401473e-06))
1.474568      	((6.782699e-03 4.885244e-02 -3.850437e-01) (2.363956e-05 1.403671e-02 -4.438526e-03)) ((-2.306529e-06 5.411924e-07 -4.637531e-07) (4.910232e-04 -1.698468e-06 3.709392e-06))
1.526337      	((7.683946e-03 4.866745e-02 -3.839890e-01) (2.790502e-05 1.400951e-02 -4.441352e-03)) ((-2.302749e-06 5.561425e-07 -4.672175e-07) (4.901711e-04 -1.968869e-06 4.055566e-06))
1.578114      	((8.696498e-03 4.853613e-02 -3.830416e-01) (3.291844e-05 1.398497e-02 -4.443379e-03)) ((-2.299027e-06 5.727332e-07 -4.707647e-07) (4.894348e-04 -2.277015e-06 4.440754e-06))
1.629895      	((9.840009e-03 4.843173e-02 -3.821561e-01) (3.845812e-05 1.396278e-02 -4.444992e-03)) ((-2.294060e-06 5.898317e-07 -4.747930e-07) (4.887896e-04 -2.621871e-06 4.880528e-06))
1.68168       	((1.114336e-02 4.831844e-02 -3.813222e-01) (4.451988e-05 1.394255e-02 -4.446685e-03)) ((-2.286678e-06 6.088066e-07 -4.790480e-07) (4.882034e-04 -3.009569e-06 5.384162e-06))
1.733464      	((1.261084e-02 4.823484e-02 -3.805550e-01) (5.132200e-05 1.392404e-02 -4.448734e-03)) ((-2.279120e-06 6.293584e-07 -4.833665e-07) (4.876577e-04 -3.447066e-06 5.951862e-06))
1.785246      	((1.429227e-02 4.816353e-02 -3.798458e-01) (5.911764e-05 1.390695e-02 -4.451135e-03)) ((-2.270618e-06 6.532640e-07 -4.876749e-07) (4.871472e-04 -3.942907e-06 6.587333e-06))
1.837023      	((1.618594e-02 4.813891e-02 -3.791910e-01) (6.822447e-05 1.389099e-02 -4.453387e-03)) ((-2.262079e-06 6.800496e-07 -4.926171e-07) (4.866832e-04 -4.503563e-06 7.297343e-06))
1.888791      	((1.832236e-02 4.816279e-02 -3.785967e-01) (7.905643e-05 1.387629e-02 -4.454917e-03)) ((-2.254118e-06 7.096477e-07 -4.977719e-07) (4.862844e-04 -5.132268e-06 8.077293e-06))
1.940548      	((2.073074e-02 4.821955e-02 -3.780467e-01) (9.179281e-05 1.386317e-02 -4.455452e-03)) ((-2.245656e-06 7.437957e-07 -5.024042e-07) (4.859622e-04 -5.831791e-06 8.921742e-06))
1.99229       	((2.343851e-02 4.832611e-02 -3.775510e-01) (1.065632e-04 1.385173e-02 -4.455355e-03)) ((-2.235944e-06 7.837953e-07 -5.076743e-07) (4.857057e-04 -6.619015e-06 9.835232e-06))
2.044014      	((2.649292e-02 4.848852e-02 -3.770774e-01) (1.238439e-04 1.384212e-02 -4.454622e-03)) ((-2.224549e-06 8.298275e-07 -5.124981e-07) (4.855197e-04 -7.516249e-06 1.081505e-05))
2.095715      	((2.987653e-02 4.876103e-02 -3.766990e-01) (1.440159e-04 1.383441e-02 -4.453054e-03)) ((-2.215200e-06 8.792168e-07 -5.167354e-07) (4.854106e-04 -8.538374e-06 1.186945e-05))
2.14739       	((3.362404e-02 4.919245e-02 -3.764068e-01) (1.673070e-04 1.382881e-02 -4.450226e-03)) ((-2.211399e-06 9.320150e-07 -5.199531e-07) (4.854008e-04 -9.695759e-06 1.301022e-05))
2.199033      	((3.776757e-02 4.975506e-02 -3.762223e-01) (1.938280e-04 1.382597e-02 -4.445746e-03)) ((-2.210781e-06 9.907263e-07 -5.224240e-07) (4.855322e-04 -1.099923e-05 1.423884e-05))
2.250641      	((4.235468e-02 5.050026e-02 -3.761708e-01) (2.234482e-04 1.382670e-02 -4.439180e-03)) ((-2.213680e-06 1.056397e-06 -5.248363e-07) (4.858526e-04 -1.245601e-05 1.558110e-05))
2.302208      	((4.738618e-02 5.147559e-02 -3.763058e-01) (2.561851e-04 1.383195e-02 -4.429932e-03)) ((-2.216844e-06 1.132500e-06 -5.266656e-07) (4.864114e-04 -1.408213e-05 1.707076e-05))
2.35373       	((5.292890e-02 5.270703e-02 -3.766289e-01) (2.919011e-04 1.384213e-02 -4.417734e-03)) ((-2.218834e-06 1.218488e-06 -5.276574e-07) (4.872406e-04 -1.588837e-05 1.874418e-05))
2.4052        	((5.897985e-02 5.415204e-02 -3.770772e-01) (3.308999e-04 1.385742e-02 -4.403087e-03)) ((-2.216757e-06 1.313706e-06 -5.312546e-07) (4.883507e-04 -1.788361e-05 2.061707e-05))
2.456613      	((6.549552e-02 5.601076e-02 -3.778001e-01) (3.742388e-04 1.387878e-02 -4.385989e-03)) ((-2.214140e-06 1.413342e-06 -5.378225e-07) (4.897753e-04 -2.007449e-05 2.265066e-05))
2.507963      	((7.231423e-02 5.837473e-02 -3.789299e-01) (4.219913e-04 1.390834e-02 -4.365587e-03)) ((-2.213986e-06 1.515416e-06 -5.453137e-07) (4.915799e-04 -2.245674e-05 2.480711e-05))
2.559241      	((7.933881e-02 6.102711e-02 -3.802917e-01) (4.737779e-04 1.394701e-02 -4.341874e-03)) ((-2.213240e-06 1.613715e-06 -5.507536e-07) (4.937861e-04 -2.501283e-05 2.708050e-05))
2.610428      	((8.650235e-02 6.399560e-02 -3.818000e-01) (5.292034e-04 1.399411e-02 -4.315781e-03)) ((-2.214601e-06 1.714157e-06 -5.534037e-07) (4.963614e-04 -2.773636e-05 2.947140e-05))
2.66152       	((9.338234e-02 6.751163e-02 -3.837549e-01) (5.874142e-04 1.404999e-02 -4.287592e-03)) ((-2.226616e-06 1.803016e-06 -5.558189e-07) (4.992968e-04 -3.057611e-05 3.196669e-05))
2.712513      	((9.970854e-02 7.133259e-02 -3.860264e-01) (6.470757e-04 1.411452e-02 -4.257919e-03)) ((-2.238703e-06 1.872079e-06 -5.591285e-07) (5.025489e-04 -3.345861e-05 3.451846e-05))
2.763406      	((1.049438e-01 7.540152e-02 -3.887267e-01) (7.055931e-04 1.418788e-02 -4.226571e-03)) ((-2.252389e-06 1.912534e-06 -5.646588e-07) (5.060917e-04 -3.627259e-05 3.703038e-05))
2.814197      	((1.088720e-01 7.940654e-02 -3.915709e-01) (7.593436e-04 1.426899e-02 -4.193527e-03)) ((-2.263510e-06 1.923274e-06 -5.749159e-07) (5.098674e-04 -3.890594e-05 3.942720e-05))
2.864892      	((1.111842e-01 8.313712e-02 -3.945468e-01) (8.047923e-04 1.435650e-02 -4.158569e-03)) ((-2.278763e-06 1.900085e-06 -5.841214e-07) (5.138160e-04 -4.125780e-05 4.168231e-05))
2.915495      	((1.116062e-01 8.604515e-02 -3.973929e-01) (8.391545e-04 1.444631e-02 -4.121883e-03)) ((-2.284195e-06 1.841226e-06 -5.890710e-07) (5.178148e-04 -4.318898e-05 4.371643e-05))
2.966014      	((1.100223e-01 8.792790e-02 -3.999849e-01) (8.601086e-04 1.453187e-02 -4.085512e-03)) ((-2.281878e-06 1.744172e-06 -5.964448e-07) (5.216178e-04 -4.453362e-05 4.544269e-05))
3.016463      	((1.062955e-01 8.873594e-02 -4.023241e-01) (8.633987e-04 1.460895e-02 -4.051265e-03)) ((-2.276463e-06 1.611993e-06 -6.083407e-07) (5.250280e-04 -4.513505e-05 4.687239e-05))
3.066857      	((1.006933e-01 8.836328e-02 -4.042224e-01) (8.448156e-04 1.467505e-02 -4.019765e-03)) ((-2.271803e-06 1.447299e-06 -6.124247e-07) (5.279439e-04 -4.487614e-05 4.800813e-05))
3.1172        	((9.370242e-02 8.703947e-02 -4.055272e-01) (8.040320e-04 1.472995e-02 -3.991621e-03)) ((-2.269141e-06 1.259957e-06 -6.016080e-07) (5.303443e-04 -4.373615e-05 4.875425e-05))
3.167513      	((8.618952e-02 8.498475e-02 -4.063526e-01) (7.446511e-04 1.477448e-02 -3.967312e-03)) ((-2.276323e-06 1.074744e-06 -5.812376e-07) (5.322753e-04 -4.181236e-05 4.904715e-05))
3.21782       	((7.908282e-02 8.274169e-02 -4.068496e-01) (6.726386e-04 1.480975e-02 -3.946341e-03)) ((-2.285350e-06 9.364284e-07 -5.584047e-07) (5.338927e-04 -3.928966e-05 4.894478e-05))
3.268144      	((7.300915e-02 8.035903e-02 -4.071845e-01) (5.943974e-04 1.483687e-02 -3.928716e-03)) ((-2.301406e-06 8.363047e-07 -5.346275e-07) (5.353274e-04 -3.643036e-05 4.858683e-05))
3.318501      	((6.853041e-02 7.789774e-02 -4.074764e-01) (5.154583e-04 1.485910e-02 -3.914842e-03)) ((-2.286806e-06 7.944528e-07 -5.179826e-07) (5.366573e-04 -3.347848e-05 4.806653e-05))
3.368903      	((6.594145e-02 7.552817e-02 -4.078185e-01) (4.461437e-04 1.487987e-02 -3.905004e-03)) ((-2.239348e-06 7.999109e-07 -5.147189e-07) (5.379180e-04 -3.067893e-05 4.729505e-05))
3.419355      	((6.506973e-02 7.356568e-02 -4.085198e-01) (3.917340e-04 1.489947e-02 -3.901451e-03)) ((-2.157245e-06 8.585567e-07 -5.256463e-07) (5.390407e-04 -2.828532e-05 4.639430e-05))
3.469857      	((6.526909e-02 7.181839e-02 -4.097027e-01) (3.560825e-04 1.491841e-02 -3.907834e-03)) ((-2.038082e-06 9.734555e-07 -5.402148e-07) (5.398946e-04 -2.652582e-05 4.532539e-05))
3.520403      	((6.608518e-02 7.013627e-02 -4.113705e-01) (3.435831e-04 1.493594e-02 -3.929360e-03)) ((-1.913879e-06 1.109918e-06 -5.439942e-07) (5.402307e-04 -2.560604e-05 4.392312e-05))
3.570983      	((6.711193e-02 6.851532e-02 -4.133065e-01) (3.504079e-04 1.494788e-02 -3.967447e-03)) ((-1.805341e-06 1.242072e-06 -5.260267e-07) (5.398703e-04 -2.550501e-05 4.234069e-05))
3.62159       	((6.783589e-02 6.684951e-02 -4.151967e-01) (3.651962e-04 1.495055e-02 -4.014076e-03)) ((-1.703018e-06 1.351076e-06 -5.057131e-07) (5.389632e-04 -2.586673e-05 4.098063e-05))
3.672213      	((6.793833e-02 6.579352e-02 -4.168790e-01) (3.757906e-04 1.494341e-02 -4.056713e-03)) ((-1.621115e-06 1.429001e-06 -4.882108e-07) (5.378714e-04 -2.624405e-05 4.018774e-05))
3.722847      	((6.753539e-02 6.531248e-02 -4.178631e-01) (3.790238e-04 1.493246e-02 -4.086833e-03)) ((-1.592266e-06 1.440075e-06 -4.817335e-07) (5.369272e-04 -2.640657e-05 3.985034e-05))
3.773485      	((6.684442e-02 6.507339e-02 -4.180812e-01) (3.767611e-04 1.492240e-02 -4.104072e-03)) ((-1.610131e-06 1.394593e-06 -4.843359e-07) (5.361597e-04 -2.631621e-05 3.973226e-05))
3.824124      	((6.583692e-02 6.522993e-02 -4.179129e-01) (3.688315e-04 1.491262e-02 -4.111023e-03)) ((-1.643071e-06 1.310861e-06 -4.904885e-07) (5.355011e-04 -2.599677e-05 3.982393e-05))
3.874762      	((6.433584e-02 6.565988e-02 -4.177278e-01) (3.528376e-04 1.490435e-02 -4.109905e-03)) ((-1.690314e-06 1.187487e-06 -4.927602e-07) (5.349813e-04 -2.543097e-05 4.011611e-05))
3.925399      	((6.266141e-02 6.609364e-02 -4.174898e-01) (3.290190e-04 1.489681e-02 -4.102166e-03)) ((-1.742674e-06 1.061500e-06 -4.875992e-07) (5.346257e-04 -2.459238e-05 4.059055e-05))
3.976038      	((6.087910e-02 6.664075e-02 -4.171589e-01) (2.990265e-04 1.489110e-02 -4.088043e-03)) ((-1.825659e-06 9.216148e-07 -4.722092e-07) (5.345065e-04 -2.345937e-05 4.116380e-05))
4.026682      	((5.915359e-02 6.719536e-02 -4.170063e-01) (2.616592e-04 1.488779e-02 -4.070498e-03)) ((-1.914681e-06 8.085130e-07 -4.470540e-07) (5.346479e-04 -2.213721e-05 4.191013e-05))
4.077334      	((5.772378e-02 6.705961e-02 -4.169167e-01) (2.198671e-04 1.488351e-02 -4.055057e-03)) ((-1.969540e-06 7.643870e-07 -4.213944e-07) (5.349014e-04 -2.081403e-05 4.281215e-05))
4.127999      	((5.699932e-02 6.638487e-02 -4.169089e-01) (1.856249e-04 1.488047e-02 -4.045090e-03)) ((-1.991731e-06 7.887622e-07 -4.115728e-07) (5.351865e-04 -1.969775e-05 4.335178e-05))
4.178681      	((5.677112e-02 6.535989e-02 -4.171868e-01) (1.671436e-04 1.488126e-02 -4.043789e-03)) ((-1.959915e-06 8.835076e-07 -4.251547e-07) (5.354027e-04 -1.897965e-05 4.318593e-05))
4.229385      	((5.698875e-02 6.392544e-02 -4.175207e-01) (1.632181e-04 1.488297e-02 -4.054659e-03)) ((-1.858383e-06 1.042219e-06 -4.520466e-07) (5.353515e-04 -1.876270e-05 4.246222e-05))
4.28011       	((5.746442e-02 6.282463e-02 -4.178796e-01) (1.699138e-04 1.488347e-02 -4.078506e-03)) ((-1.727409e-06 1.215174e-06 -4.675512e-07) (5.349069e-04 -1.902223e-05 4.143600e-05))
4.330856      	((5.775388e-02 6.201065e-02 -4.184100e-01) (1.820761e-04 1.488055e-02 -4.111588e-03)) ((-1.604562e-06 1.351398e-06 -4.722121e-07) (5.340702e-04 -1.959100e-05 4.038706e-05))
4.381621      	((5.813905e-02 6.181089e-02 -4.187702e-01) (1.938311e-04 1.487281e-02 -4.145619e-03)) ((-1.528096e-06 1.433071e-06 -4.745044e-07) (5.330492e-04 -2.020729e-05 3.960777e-05))
4.432401      	((5.861723e-02 6.213215e-02 -4.189035e-01) (2.019340e-04 1.486033e-02 -4.171066e-03)) ((-1.523077e-06 1.451697e-06 -4.781312e-07) (5.321617e-04 -2.064830e-05 3.926162e-05))
4.483193      	((5.943972e-02 6.288558e-02 -4.187309e-01) (2.061035e-04 1.484538e-02 -4.183047e-03)) ((-1.574002e-06 1.420920e-06 -4.854473e-07) (5.316104e-04 -2.083402e-05 3.933629e-05))
4.533992      	((6.068639e-02 6.385223e-02 -4.183361e-01) (2.078060e-04 1.483081e-02 -4.182537e-03)) ((-1.646221e-06 1.368026e-06 -4.951980e-07) (5.314506e-04 -2.083811e-05 3.976622e-05))
