# Forces      
# CofR        : (0.000000e+00 0.000000e+00 0.000000e+00)
# Time        forces(pressure viscous)	moments(pressure viscous)
0             	((0.000000e+00 0.000000e+00 0.000000e+00) (-1.944461e-11 3.170571e-02 1.894928e-12)) ((0.000000e+00 0.000000e+00 0.000000e+00) (7.123915e-04 -1.191486e-13 -1.367273e-08))
0.00967038    	((8.887549e-04 1.149491e+01 8.358710e-01) (-5.558979e-06 7.658934e-02 -1.185964e-02)) ((-1.357282e-04 1.051884e-05 -2.517116e-06) (2.546823e-03 1.355525e-07 -2.048143e-07))
0.0212748     	((-1.041851e-03 -5.475816e+00 -3.510252e+00) (1.832849e-05 7.042561e-02 -1.476768e-02)) ((6.567857e-05 -3.460794e-06 1.030957e-06) (2.579307e-03 2.888612e-08 -7.321868e-08))
0.0352002     	((3.517164e-04 1.253743e+00 -1.801364e+00) (1.437743e-05 5.779218e-02 -1.025344e-02)) ((-7.381404e-06 1.401755e-06 -2.916879e-07) (2.061594e-03 -1.783067e-08 1.175322e-07))
0.0517667     	((-1.228503e-03 -4.758392e-01 -1.897565e+00) (-1.418236e-05 5.380416e-02 -9.696226e-03)) ((5.282833e-06 1.195827e-06 -4.716916e-07) (1.917093e-03 -4.528242e-08 7.570155e-07))
0.070986      	((-2.517123e-04 3.435945e-01 -1.749365e+00) (-2.982113e-05 5.127683e-02 -9.751137e-03)) ((-1.325768e-06 1.352875e-06 -3.454447e-07) (1.831448e-03 -1.880907e-08 1.290863e-06))
0.0928398     	((-1.320103e-03 -2.679674e-02 -1.822335e+00) (-4.064229e-05 5.046035e-02 -1.002222e-02)) ((-5.085072e-07 1.379993e-06 -4.227945e-07) (1.805001e-03 1.174860e-07 1.373693e-06))
0.11731       	((-4.475453e-04 1.543839e-01 -1.770112e+00) (-4.128566e-05 4.971227e-02 -1.043366e-02)) ((-1.895400e-06 1.336094e-06 -4.980084e-07) (1.771442e-03 2.416559e-07 1.615805e-06))
0.143305      	((-7.879514e-04 7.977722e-02 -1.803130e+00) (-4.023551e-05 4.931631e-02 -1.085042e-02)) ((-2.746450e-06 1.335470e-06 -5.903819e-07) (1.755180e-03 2.731536e-07 2.031413e-06))
0.169323      	((-3.724745e-04 1.317459e-01 -1.782892e+00) (-3.926032e-05 4.912002e-02 -1.121155e-02)) ((-3.462282e-06 1.442073e-06 -6.432568e-07) (1.745287e-03 2.702095e-07 2.209014e-06))
0.19526       	((-4.217556e-04 1.208104e-01 -1.793924e+00) (-3.684239e-05 4.904009e-02 -1.153731e-02)) ((-4.106271e-06 1.539343e-06 -7.284322e-07) (1.739364e-03 2.868118e-07 2.381606e-06))
0.22102       	((3.630133e-05 1.414028e-01 -1.779239e+00) (-3.591662e-05 4.896893e-02 -1.176982e-02)) ((-4.644634e-06 1.649789e-06 -7.375024e-07) (1.732713e-03 1.990600e-07 2.648023e-06))
0.246607      	((-2.105857e-05 1.441634e-01 -1.776532e+00) (-3.938105e-05 4.886309e-02 -1.192937e-02)) ((-5.211005e-06 1.764086e-06 -7.977818e-07) (1.724807e-03 1.420916e-07 2.856832e-06))
0.272111      	((4.991025e-04 1.521209e-01 -1.760874e+00) (-3.972163e-05 4.866945e-02 -1.201575e-02)) ((-5.737930e-06 1.838641e-06 -8.086073e-07) (1.714737e-03 1.387159e-07 3.058816e-06))
0.297575      	((8.782511e-04 1.541625e-01 -1.752121e+00) (-4.034234e-05 4.841628e-02 -1.211760e-02)) ((-6.216839e-06 1.862840e-06 -8.590117e-07) (1.703608e-03 6.418083e-08 3.251449e-06))
0.323069      	((1.289981e-03 1.564026e-01 -1.739007e+00) (-4.164140e-05 4.814797e-02 -1.220801e-02)) ((-6.624882e-06 1.964087e-06 -9.007443e-07) (1.692708e-03 -2.430185e-08 3.378440e-06))
0.348637      	((1.927446e-03 1.563250e-01 -1.729069e+00) (-3.666587e-05 4.788941e-02 -1.228322e-02)) ((-6.913870e-06 2.020467e-06 -9.483682e-07) (1.682731e-03 -1.009466e-07 3.567288e-06))
0.374267      	((2.658808e-03 1.567128e-01 -1.719388e+00) (-3.211951e-05 4.766280e-02 -1.235937e-02)) ((-7.133519e-06 2.042749e-06 -9.862373e-07) (1.674101e-03 -2.276196e-07 3.835039e-06))
0.399908      	((3.258652e-03 1.556317e-01 -1.710602e+00) (-3.094560e-05 4.746115e-02 -1.241288e-02)) ((-7.396430e-06 2.113739e-06 -1.008063e-06) (1.666557e-03 -3.327523e-07 3.997697e-06))
0.425552      	((4.107884e-03 1.550801e-01 -1.702488e+00) (-2.604147e-05 4.727229e-02 -1.245936e-02)) ((-7.487628e-06 2.153694e-06 -1.044191e-06) (1.659635e-03 -4.607522e-07 4.174856e-06))
0.451208      	((5.004595e-03 1.541128e-01 -1.695377e+00) (-2.178208e-05 4.709587e-02 -1.250249e-02)) ((-7.627834e-06 2.156447e-06 -1.072030e-06) (1.653236e-03 -6.003349e-07 4.448985e-06))
0.476879      	((5.877377e-03 1.534541e-01 -1.688432e+00) (-1.888121e-05 4.693287e-02 -1.254290e-02)) ((-7.728795e-06 2.218404e-06 -1.093806e-06) (1.647224e-03 -7.472313e-07 4.698136e-06))
0.502563      	((6.939371e-03 1.528833e-01 -1.682283e+00) (-1.521002e-05 4.678344e-02 -1.258856e-02)) ((-7.744765e-06 2.249630e-06 -1.124675e-06) (1.641549e-03 -9.286610e-07 4.981814e-06))
0.528255      	((8.136157e-03 1.524995e-01 -1.676146e+00) (-1.117591e-05 4.664222e-02 -1.262363e-02)) ((-7.868079e-06 2.284388e-06 -1.144611e-06) (1.636231e-03 -1.120194e-06 5.331216e-06))
0.553957      	((9.450372e-03 1.522363e-01 -1.671203e+00) (-6.736019e-06 4.651311e-02 -1.265778e-02)) ((-7.935503e-06 2.338112e-06 -1.164675e-06) (1.631462e-03 -1.345947e-06 5.691186e-06))
0.579669      	((1.091831e-02 1.517977e-01 -1.666321e+00) (-1.583242e-06 4.639960e-02 -1.268152e-02)) ((-7.995858e-06 2.360950e-06 -1.184971e-06) (1.627470e-03 -1.603582e-06 6.088178e-06))
0.60539       	((1.252928e-02 1.512243e-01 -1.661672e+00) (3.734614e-06 4.629538e-02 -1.269382e-02)) ((-8.085864e-06 2.407307e-06 -1.200423e-06) (1.623969e-03 -1.895998e-06 6.540827e-06))
0.631121      	((1.437453e-02 1.505821e-01 -1.657602e+00) (9.623675e-06 4.620387e-02 -1.271154e-02)) ((-8.087297e-06 2.437844e-06 -1.218263e-06) (1.620900e-03 -2.227584e-06 7.033378e-06))
0.656855      	((1.646709e-02 1.498758e-01 -1.653290e+00) (1.677771e-05 4.612041e-02 -1.271972e-02)) ((-8.133758e-06 2.472075e-06 -1.236071e-06) (1.618139e-03 -2.600918e-06 7.583464e-06))
0.682594      	((1.876423e-02 1.493191e-01 -1.649614e+00) (2.425486e-05 4.604148e-02 -1.273263e-02)) ((-8.152832e-06 2.514427e-06 -1.254621e-06) (1.615454e-03 -3.021995e-06 8.203188e-06))
0.708336      	((2.142105e-02 1.487022e-01 -1.646416e+00) (3.249273e-05 4.597078e-02 -1.275028e-02)) ((-8.117976e-06 2.549681e-06 -1.275431e-06) (1.612980e-03 -3.499631e-06 8.908123e-06))
0.73408       	((2.442533e-02 1.481699e-01 -1.643010e+00) (4.161678e-05 4.590200e-02 -1.275977e-02)) ((-8.131299e-06 2.604789e-06 -1.293554e-06) (1.610557e-03 -4.046396e-06 9.719774e-06))
0.759827      	((2.785427e-02 1.477624e-01 -1.640321e+00) (5.159065e-05 4.583796e-02 -1.277817e-02)) ((-8.101141e-06 2.651746e-06 -1.313155e-06) (1.608233e-03 -4.665822e-06 1.065720e-05))
0.785574      	((3.180031e-02 1.473820e-01 -1.637683e+00) (6.317275e-05 4.578000e-02 -1.279547e-02)) ((-8.063680e-06 2.708581e-06 -1.330708e-06) (1.606131e-03 -5.372796e-06 1.173948e-05))
0.811321      	((3.620388e-02 1.471693e-01 -1.635088e+00) (7.595888e-05 4.572417e-02 -1.280685e-02)) ((-8.044082e-06 2.784387e-06 -1.348432e-06) (1.604147e-03 -6.171943e-06 1.296482e-05))
0.837068      	((4.116830e-02 1.470921e-01 -1.633038e+00) (9.033168e-05 4.567424e-02 -1.282257e-02)) ((-7.988730e-06 2.856625e-06 -1.366931e-06) (1.602395e-03 -7.070759e-06 1.434104e-05))
0.862814      	((4.677030e-02 1.471034e-01 -1.631098e+00) (1.068389e-04 4.562962e-02 -1.283421e-02)) ((-7.937706e-06 2.948371e-06 -1.383960e-06) (1.600884e-03 -8.091530e-06 1.589088e-05))
0.888558      	((5.308798e-02 1.471930e-01 -1.629352e+00) (1.258783e-04 4.558861e-02 -1.284287e-02)) ((-7.878689e-06 3.047495e-06 -1.399115e-06) (1.599535e-03 -9.256851e-06 1.763220e-05))
0.914298      	((6.017177e-02 1.473821e-01 -1.628034e+00) (1.476716e-04 4.555398e-02 -1.285329e-02)) ((-7.804334e-06 3.151116e-06 -1.411542e-06) (1.598434e-03 -1.057294e-05 1.958354e-05))
0.940034      	((6.808441e-02 1.476393e-01 -1.626791e+00) (1.723153e-04 4.552479e-02 -1.285980e-02)) ((-7.735792e-06 3.278180e-06 -1.421851e-06) (1.597577e-03 -1.205186e-05 2.177342e-05))
0.965764      	((7.700852e-02 1.481526e-01 -1.625834e+00) (2.000534e-04 4.550042e-02 -1.286362e-02)) ((-7.663473e-06 3.408908e-06 -1.431935e-06) (1.596950e-03 -1.371146e-05 2.425436e-05))
0.991488      	((8.707507e-02 1.488586e-01 -1.625157e+00) (2.309455e-04 4.548283e-02 -1.286614e-02)) ((-7.588451e-06 3.552142e-06 -1.441334e-06) (1.596629e-03 -1.556898e-05 2.706316e-05))
1.017204      	((9.837240e-02 1.500025e-01 -1.624757e+00) (2.658958e-04 4.547217e-02 -1.286332e-02)) ((-7.512433e-06 3.713247e-06 -1.452572e-06) (1.596631e-03 -1.765142e-05 3.020644e-05))
1.04291       	((1.108851e-01 1.515154e-01 -1.624622e+00) (3.051098e-04 4.546835e-02 -1.285673e-02)) ((-7.422718e-06 3.889509e-06 -1.466168e-06) (1.596971e-03 -1.997823e-05 3.374172e-05))
1.068605      	((1.248050e-01 1.533527e-01 -1.624899e+00) (3.487788e-04 4.547246e-02 -1.284709e-02)) ((-7.316212e-06 4.095555e-06 -1.479733e-06) (1.597729e-03 -2.257724e-05 3.771782e-05))
1.094286      	((1.400437e-01 1.556050e-01 -1.625472e+00) (3.976191e-04 4.548452e-02 -1.283054e-02)) ((-7.200128e-06 4.321549e-06 -1.493573e-06) (1.598951e-03 -2.548043e-05 4.211774e-05))
1.119952      	((1.567558e-01 1.584042e-01 -1.626558e+00) (4.525900e-04 4.550649e-02 -1.280738e-02)) ((-7.083985e-06 4.560675e-06 -1.509736e-06) (1.600751e-03 -2.870329e-05 4.693232e-05))
1.145602      	((1.748387e-01 1.618974e-01 -1.627977e+00) (5.148293e-04 4.554028e-02 -1.277636e-02)) ((-6.980314e-06 4.832963e-06 -1.524856e-06) (1.603237e-03 -3.225861e-05 5.217361e-05))
1.171232      	((1.941636e-01 1.661351e-01 -1.629896e+00) (5.841659e-04 4.558665e-02 -1.273470e-02)) ((-6.887254e-06 5.128127e-06 -1.536879e-06) (1.606430e-03 -3.617151e-05 5.786805e-05))
1.196842      	((2.145398e-01 1.714255e-01 -1.632570e+00) (6.592517e-04 4.564707e-02 -1.268636e-02)) ((-6.804676e-06 5.442055e-06 -1.541370e-06) (1.610330e-03 -4.045467e-05 6.405229e-05))
1.222428      	((2.357162e-01 1.779411e-01 -1.635956e+00) (7.388249e-04 4.572177e-02 -1.263167e-02)) ((-6.737668e-06 5.764301e-06 -1.551492e-06) (1.614978e-03 -4.510466e-05 7.078936e-05))
1.24798       	((2.569375e-01 1.858140e-01 -1.640030e+00) (8.204079e-04 4.580981e-02 -1.256971e-02)) ((-6.698411e-06 6.074400e-06 -1.579814e-06) (1.620326e-03 -5.007880e-05 7.817711e-05))
1.273493      	((2.772718e-01 1.946468e-01 -1.644990e+00) (9.037394e-04 4.591403e-02 -1.250403e-02)) ((-6.680477e-06 6.356591e-06 -1.617715e-06) (1.626336e-03 -5.528185e-05 8.598499e-05))
1.298964      	((2.963301e-01 2.041256e-01 -1.650576e+00) (9.884538e-04 4.603792e-02 -1.243450e-02)) ((-6.686794e-06 6.595238e-06 -1.661586e-06) (1.633022e-03 -6.060026e-05 9.393460e-05))
1.324393      	((3.127299e-01 2.141082e-01 -1.657079e+00) (1.070512e-03 4.617762e-02 -1.235848e-02)) ((-6.710465e-06 6.753487e-06 -1.709404e-06) (1.640340e-03 -6.586307e-05 1.018970e-04))
1.349785      	((3.254364e-01 2.244299e-01 -1.664428e+00) (1.145083e-03 4.632875e-02 -1.227703e-02)) ((-6.730918e-06 6.806566e-06 -1.763454e-06) (1.648179e-03 -7.086513e-05 1.096780e-04))
1.375142      	((3.336233e-01 2.336687e-01 -1.672196e+00) (1.205547e-03 4.649042e-02 -1.219252e-02)) ((-6.732501e-06 6.756830e-06 -1.819247e-06) (1.656350e-03 -7.538110e-05 1.171016e-04))
1.400469      	((3.371011e-01 2.417642e-01 -1.680073e+00) (1.246271e-03 4.665673e-02 -1.210707e-02)) ((-6.735268e-06 6.598909e-06 -1.868281e-06) (1.664559e-03 -7.912358e-05 1.239239e-04))
1.425765      	((3.355644e-01 2.476446e-01 -1.687316e+00) (1.263282e-03 4.682181e-02 -1.202377e-02)) ((-6.747107e-06 6.353969e-06 -1.911433e-06) (1.672537e-03 -8.181204e-05 1.299013e-04))
1.451032      	((3.290939e-01 2.516901e-01 -1.694319e+00) (1.252174e-03 4.698144e-02 -1.194490e-02)) ((-6.772274e-06 6.027607e-06 -1.924406e-06) (1.680055e-03 -8.321565e-05 1.348805e-04))
1.476273      	((3.189390e-01 2.530930e-01 -1.700338e+00) (1.208528e-03 4.712969e-02 -1.187349e-02)) ((-6.753623e-06 5.671279e-06 -1.904300e-06) (1.686881e-03 -8.325068e-05 1.388803e-04))
1.501493      	((3.073152e-01 2.527997e-01 -1.705466e+00) (1.133694e-03 4.726346e-02 -1.181065e-02)) ((-6.718032e-06 5.335299e-06 -1.844892e-06) (1.693049e-03 -8.199871e-05 1.420059e-04))
1.526701      	((2.953797e-01 2.518535e-01 -1.710714e+00) (1.036567e-03 4.738334e-02 -1.175538e-02)) ((-6.648373e-06 5.065321e-06 -1.774258e-06) (1.698731e-03 -7.965827e-05 1.443432e-04))
1.551902      	((2.850728e-01 2.492672e-01 -1.715239e+00) (9.291554e-04 4.749259e-02 -1.170661e-02)) ((-6.510988e-06 4.907086e-06 -1.724167e-06) (1.704107e-03 -7.658523e-05 1.458211e-04))
1.577101      	((2.772479e-01 2.460301e-01 -1.719763e+00) (8.253670e-04 4.759310e-02 -1.166687e-02)) ((-6.297410e-06 4.896745e-06 -1.705339e-06) (1.709243e-03 -7.328258e-05 1.464014e-04))
1.602301      	((2.723791e-01 2.421721e-01 -1.724612e+00) (7.422993e-04 4.768492e-02 -1.164342e-02)) ((-5.992614e-06 5.038553e-06 -1.708168e-06) (1.713900e-03 -7.033588e-05 1.459538e-04))
1.627504      	((2.691501e-01 2.385693e-01 -1.730211e+00) (6.953605e-04 4.776800e-02 -1.164486e-02)) ((-5.682283e-06 5.215433e-06 -1.726748e-06) (1.717652e-03 -6.822058e-05 1.442198e-04))
1.652712      	((2.663246e-01 2.342306e-01 -1.735946e+00) (6.835025e-04 4.783581e-02 -1.167851e-02)) ((-5.337978e-06 5.424069e-06 -1.721083e-06) (1.720042e-03 -6.709801e-05 1.414753e-04))
1.677924      	((2.635149e-01 2.298811e-01 -1.741631e+00) (6.923502e-04 4.788341e-02 -1.173652e-02)) ((-4.985820e-06 5.634785e-06 -1.712224e-06) (1.721015e-03 -6.673829e-05 1.384005e-04))
1.70314       	((2.593564e-01 2.262883e-01 -1.746487e+00) (7.023429e-04 4.791233e-02 -1.180127e-02)) ((-4.680818e-06 5.771724e-06 -1.721816e-06) (1.721024e-03 -6.652852e-05 1.356248e-04))
1.728359      	((2.544640e-01 2.243407e-01 -1.750038e+00) (6.959321e-04 4.792576e-02 -1.185887e-02)) ((-4.526239e-06 5.784551e-06 -1.729242e-06) (1.720657e-03 -6.593367e-05 1.337052e-04))
1.753581      	((2.492232e-01 2.242022e-01 -1.752027e+00) (6.682226e-04 4.792682e-02 -1.189488e-02)) ((-4.602912e-06 5.601165e-06 -1.719667e-06) (1.720378e-03 -6.472098e-05 1.328277e-04))
1.778807      	((2.445584e-01 2.248445e-01 -1.752913e+00) (6.223227e-04 4.792123e-02 -1.190616e-02)) ((-4.770094e-06 5.306107e-06 -1.695449e-06) (1.720247e-03 -6.293438e-05 1.327205e-04))
1.804036      	((2.404130e-01 2.261704e-01 -1.753799e+00) (5.654373e-04 4.791667e-02 -1.190555e-02)) ((-4.963334e-06 4.947343e-06 -1.662818e-06) (1.720291e-03 -6.073033e-05 1.330277e-04))
1.82927       	((2.375609e-01 2.274281e-01 -1.754999e+00) (5.073035e-04 4.791499e-02 -1.189802e-02)) ((-5.072852e-06 4.643369e-06 -1.631536e-06) (1.720499e-03 -5.835737e-05 1.334688e-04))
1.854507      	((2.366456e-01 2.295264e-01 -1.756136e+00) (4.515021e-04 4.791247e-02 -1.188575e-02)) ((-5.104402e-06 4.473492e-06 -1.606516e-06) (1.720670e-03 -5.617037e-05 1.340569e-04))
1.879749      	((2.376427e-01 2.309500e-01 -1.757965e+00) (3.987518e-04 4.790896e-02 -1.188558e-02)) ((-5.014883e-06 4.474278e-06 -1.631770e-06) (1.720846e-03 -5.442944e-05 1.350308e-04))
1.904994      	((2.404309e-01 2.318556e-01 -1.760423e+00) (3.588836e-04 4.790708e-02 -1.190141e-02)) ((-4.783337e-06 4.721108e-06 -1.714418e-06) (1.721068e-03 -5.340573e-05 1.361247e-04))
1.930243      	((2.443837e-01 2.317002e-01 -1.762801e+00) (3.450839e-04 4.790075e-02 -1.192893e-02)) ((-4.384267e-06 5.168998e-06 -1.798696e-06) (1.720860e-03 -5.340693e-05 1.367900e-04))
1.955494      	((2.482562e-01 2.312530e-01 -1.766078e+00) (3.616826e-04 4.789382e-02 -1.198830e-02)) ((-3.931405e-06 5.659585e-06 -1.847361e-06) (1.720004e-03 -5.451657e-05 1.367024e-04))
1.980748      	((2.504864e-01 2.313389e-01 -1.769151e+00) (3.973114e-04 4.788889e-02 -1.207245e-02)) ((-3.547570e-06 6.055132e-06 -1.869996e-06) (1.718565e-03 -5.640882e-05 1.361096e-04))
2.006002      	((2.505121e-01 2.324086e-01 -1.770536e+00) (4.349204e-04 4.787329e-02 -1.214928e-02)) ((-3.235238e-06 6.263723e-06 -1.880971e-06) (1.716454e-03 -5.851108e-05 1.355346e-04))
2.031256      	((2.488016e-01 2.357093e-01 -1.772085e+00) (4.572959e-04 4.785087e-02 -1.222488e-02)) ((-3.137014e-06 6.231355e-06 -1.896153e-06) (1.714229e-03 -6.015469e-05 1.355467e-04))
2.05651       	((2.467824e-01 2.395316e-01 -1.772942e+00) (4.531378e-04 4.782517e-02 -1.228376e-02)) ((-3.196245e-06 6.039894e-06 -1.923196e-06) (1.712531e-03 -6.077518e-05 1.365974e-04))
2.081764      	((2.461394e-01 2.440812e-01 -1.772107e+00) (4.231670e-04 4.778193e-02 -1.229724e-02)) ((-3.361574e-06 5.676844e-06 -1.950667e-06) (1.711150e-03 -6.033276e-05 1.388622e-04))
2.107018      	((2.464491e-01 2.478591e-01 -1.771916e+00) (3.760033e-04 4.773146e-02 -1.229726e-02)) ((-3.573471e-06 5.325182e-06 -1.970484e-06) (1.710227e-03 -5.909009e-05 1.419763e-04))
2.132272      	((2.459583e-01 2.515555e-01 -1.773111e+00) (3.231126e-04 4.768822e-02 -1.229639e-02)) ((-3.773083e-06 5.040759e-06 -1.983188e-06) (1.709896e-03 -5.744808e-05 1.452539e-04))
2.157526      	((2.450741e-01 2.541945e-01 -1.773377e+00) (2.761369e-04 4.764038e-02 -1.228110e-02)) ((-3.874526e-06 4.847422e-06 -1.976417e-06) (1.709443e-03 -5.588917e-05 1.481521e-04))
2.182781      	((2.440176e-01 2.560062e-01 -1.774174e+00) (2.417136e-04 4.759857e-02 -1.228428e-02)) ((-3.914549e-06 4.907914e-06 -1.944855e-06) (1.708885e-03 -5.464764e-05 1.501096e-04))
2.208039      	((2.426624e-01 2.571373e-01 -1.775778e+00) (2.235043e-04 4.757330e-02 -1.231159e-02)) ((-3.757925e-06 5.173422e-06 -1.937454e-06) (1.708443e-03 -5.385967e-05 1.508690e-04))
2.2333        	((2.420150e-01 2.567176e-01 -1.775828e+00) (2.237895e-04 4.754318e-02 -1.234054e-02)) ((-3.442855e-06 5.479185e-06 -1.974218e-06) (1.707438e-03 -5.369061e-05 1.506306e-04))
2.258566      	((2.409945e-01 2.556830e-01 -1.776061e+00) (2.398613e-04 4.750831e-02 -1.239314e-02)) ((-3.136382e-06 5.806980e-06 -2.005955e-06) (1.705889e-03 -5.409043e-05 1.496150e-04))
