# Forces      
# CofR        : (0.000000e+00 0.000000e+00 0.000000e+00)
# Time        forces(pressure viscous)	moments(pressure viscous)
0             	((0.000000e+00 0.000000e+00 0.000000e+00) (0.000000e+00 0.000000e+00 0.000000e+00)) ((0.000000e+00 0.000000e+00 0.000000e+00) (0.000000e+00 0.000000e+00 0.000000e+00))
0.012         	((4.255217e-08 -1.609499e-12 1.341825e-08) (1.050189e-07 -4.442559e-16 9.514720e-12)) ((6.922104e-16 -6.823558e-12 5.514115e-16) (7.849646e-17 -6.988708e-09 3.039445e-17))
0.0264        	((6.320130e-08 -3.585433e-11 2.119080e-08) (9.619856e-08 -9.158619e-15 5.740438e-12)) ((3.881557e-16 3.518068e-12 1.360494e-16) (2.950568e-16 -6.408620e-09 -1.888347e-16))
0.04368       	((4.013523e-08 2.143592e-11 1.282243e-08) (8.709616e-08 1.089610e-14 -1.079802e-13)) ((8.247223e-16 2.502386e-12 4.002404e-16) (8.515919e-16 -5.811815e-09 -9.205799e-16))
0.064416      	((4.764805e-08 -2.599161e-11 1.578355e-08) (7.791203e-08 1.785479e-14 -4.166917e-12)) ((4.846800e-16 4.867532e-12 -5.885306e-17) (1.681520e-15 -5.211708e-09 -1.232625e-15))
0.0892992     	((3.402030e-08 1.135721e-11 1.106893e-08) (6.890709e-08 1.730913e-14 -4.868654e-12)) ((2.412070e-16 3.455307e-12 2.941162e-16) (2.861100e-15 -4.625429e-09 -6.022894e-16))
0.119159      	((3.580523e-08 -1.266065e-11 1.157505e-08) (6.036946e-08 1.584007e-15 -3.867306e-12)) ((3.344142e-16 4.213984e-12 7.489433e-18) (2.542048e-15 -4.072156e-09 2.532202e-16))
0.154991      	((2.649704e-08 6.516149e-12 8.791482e-09) (5.256706e-08 -5.792205e-15 -3.704669e-12)) ((-1.042992e-16 2.936210e-12 2.538488e-17) (2.593957e-15 -3.563557e-09 1.617057e-15))
0.197989      	((2.652817e-08 -4.840234e-12 8.450579e-09) (4.566179e-08 -8.596310e-15 -3.333138e-12)) ((-1.503785e-16 3.311881e-12 -3.292662e-17) (2.540642e-15 -3.113009e-09 2.865747e-15))
0.249587      	((2.037328e-08 2.609223e-12 6.790901e-09) (3.977644e-08 -1.453457e-14 -2.637706e-12)) ((-1.096942e-16 2.364207e-12 1.429679e-17) (2.120393e-15 -2.726110e-09 3.517067e-15))
0.311504      	((1.995281e-08 -7.776420e-13 6.298046e-09) (3.488417e-08 -1.505545e-14 -2.165854e-12)) ((-2.703729e-16 2.609513e-12 2.373331e-17) (2.491067e-15 -2.403109e-09 3.504658e-15))
0.385805      	((1.597431e-08 4.730196e-13 5.325297e-09) (3.084289e-08 -1.094743e-14 -1.977569e-12)) ((-7.009629e-17 1.940184e-12 3.479655e-17) (2.339056e-15 -2.136002e-09 3.556256e-15))
0.474966      	((1.556729e-08 -5.668465e-13 4.903350e-09) (2.750093e-08 -1.261275e-14 -1.523349e-12)) ((-2.750057e-16 2.108681e-12 2.030475e-17) (2.085158e-15 -1.915484e-09 4.811973e-15))
0.581959      	((1.291816e-08 -1.039041e-13 4.296902e-09) (2.468843e-08 -2.100832e-14 -1.171525e-12)) ((-4.566351e-17 1.625004e-12 -2.842614e-17) (-1.769466e-16 -1.729751e-09 3.757499e-15))
0.710351      	((1.255401e-08 4.065847e-13 3.945283e-09) (2.227294e-08 -1.125721e-14 -1.496877e-12)) ((-3.751649e-16 1.750257e-12 -4.521882e-17) (-1.209919e-15 -1.570791e-09 1.147017e-16))
0.864421      	((1.067175e-08 -6.387586e-13 3.538527e-09) (2.014926e-08 -3.301748e-15 -1.030315e-12)) ((-1.929087e-16 1.409781e-12 -5.663252e-17) (-1.340425e-15 -1.431151e-09 -3.001909e-16))
1.049306      	((1.028247e-08 -1.233403e-13 3.228982e-09) (1.825799e-08 5.335709e-15 -9.537668e-13)) ((-4.638561e-16 1.506587e-12 -5.076744e-17) (3.562842e-15 -1.307403e-09 2.201054e-15))
1.271167      	((8.833415e-09 -6.591532e-13 2.912421e-09) (1.655074e-08 -1.088881e-14 -5.434470e-13)) ((-3.231411e-16 1.270368e-12 -1.986285e-16) (8.367668e-15 -1.195823e-09 5.441647e-15))
1.5374        	((8.404604e-09 -8.018266e-13 2.646219e-09) (1.501001e-08 -2.585479e-14 6.875253e-14)) ((-5.744109e-16 1.322344e-12 -2.895206e-16) (1.273985e-14 -1.095237e-09 7.656125e-15))
1.85688       	((7.276577e-09 -7.526711e-13 2.391290e-09) (1.361738e-08 -5.497339e-14 9.178057e-13)) ((-5.623285e-16 1.146283e-12 -2.694942e-16) (1.755493e-14 -1.004475e-09 7.633995e-15))
2.240256      	((6.828394e-09 -6.342817e-13 2.168755e-09) (1.236698e-08 -6.523650e-14 1.249941e-12)) ((-7.499013e-16 1.163482e-12 -2.359088e-16) (2.513862e-14 -9.229312e-10 6.042178e-15))
2.700307      	((5.983601e-09 -4.861183e-13 1.972554e-09) (1.125963e-08 -3.987191e-14 1.089547e-12)) ((-6.388503e-16 1.038277e-12 -2.632183e-16) (3.883369e-14 -8.508015e-10 -5.111811e-16))
3.252369      	((5.574782e-09 -1.202983e-12 1.795030e-09) (1.028130e-08 -2.292922e-14 6.065349e-13)) ((-7.370318e-16 1.041989e-12 -2.529276e-16) (5.332235e-14 -7.869833e-10 -1.656857e-14))
3.914842      	((4.967536e-09 1.123794e-13 1.641474e-09) (9.422126e-09 3.589236e-14 8.669575e-14)) ((-5.995456e-16 9.698991e-13 -2.980315e-16) (6.607581e-14 -7.311155e-10 -3.787558e-14))
4.709811      	((4.599670e-09 2.270198e-14 1.501046e-09) (8.666226e-09 4.084259e-14 1.010496e-13)) ((-4.957232e-16 9.627702e-13 -4.136464e-16) (7.239477e-14 -6.820546e-10 -5.487080e-14))
5.663773      	((4.158531e-09 7.885346e-14 1.381044e-09) (7.995065e-09 -5.302593e-15 8.031399e-13)) ((-3.083699e-16 9.160075e-13 -4.721043e-16) (7.031504e-14 -6.385972e-10 -6.508841e-14))
6.808528      	((3.835867e-09 -1.056392e-12 1.267511e-09) (7.392829e-09 -9.573766e-14 1.544888e-12)) ((-5.001865e-16 8.970389e-13 -5.039900e-16) (6.558109e-14 -5.997031e-10 -6.697904e-14))
8.182233      	((3.495771e-09 -1.124876e-12 1.169315e-09) (6.846678e-09 -1.772391e-13 2.497910e-12)) ((-3.948213e-16 8.665762e-13 -4.696487e-16) (6.383640e-14 -5.646355e-10 -6.487694e-14))
9.83068       	((3.204841e-09 -1.207084e-12 1.076072e-09) (6.346960e-09 -2.251770e-13 3.276742e-12)) ((-4.893938e-16 8.455745e-13 -4.312539e-16) (6.284968e-14 -5.327303e-10 -6.210135e-14))
11.808816     	((2.931478e-09 -8.185016e-13 9.949156e-10) (5.888560e-09 -2.309817e-13 3.226532e-12)) ((-2.954268e-16 8.234208e-13 -3.779495e-16) (5.701044e-14 -5.036497e-10 -5.589808e-14))
14.182579     	((2.691395e-09 -7.706060e-13 9.186681e-10) (5.467593e-09 -2.870490e-13 2.645221e-12)) ((-2.982956e-16 8.023322e-13 -3.240666e-16) (4.715212e-14 -4.770846e-10 -4.761916e-14))
17.031095     	((2.467431e-09 -8.184370e-13 8.482304e-10) (5.080587e-09 -3.601402e-13 1.932835e-12)) ((-2.092488e-16 7.853249e-13 -2.862450e-16) (3.786526e-14 -4.528807e-10 -3.719245e-14))
20.449314     	((2.266730e-09 -9.286800e-13 7.819251e-10) (4.725740e-09 -4.160782e-13 1.646313e-12)) ((-2.352363e-16 7.681879e-13 -2.290747e-16) (2.894107e-14 -4.308606e-10 -2.427291e-14))
24.551176     	((2.079365e-09 -6.379182e-13 7.208736e-10) (4.400748e-09 -4.576999e-13 1.452272e-12)) ((-1.983329e-16 7.559191e-13 -1.777558e-16) (2.138439e-14 -4.108437e-10 -1.341373e-14))
29.473411     	((1.910208e-09 -5.227583e-13 6.653907e-10) (4.103746e-09 -4.656883e-13 1.270982e-12)) ((-2.124618e-16 7.439311e-13 -1.426046e-16) (1.631222e-14 -3.926716e-10 -4.805021e-15))
35.380094     	((1.753592e-09 -5.048951e-13 6.160146e-10) (3.832590e-09 -4.789404e-13 1.264540e-12)) ((-2.001286e-16 7.345332e-13 -1.213612e-16) (1.385776e-14 -3.761733e-10 8.966080e-16))
42.468112     	((1.612775e-09 -5.184847e-13 5.721541e-10) (3.584730e-09 -4.796490e-13 1.385717e-12)) ((-2.112021e-16 7.255754e-13 -9.371245e-17) (1.342021e-14 -3.611618e-10 2.584742e-15))
50.973735     	((1.482368e-09 -5.853017e-13 5.329424e-10) (3.358132e-09 -4.801817e-13 1.584605e-12)) ((-1.927791e-16 7.181196e-13 -6.402774e-17) (1.295979e-14 -3.474999e-10 3.128191e-15))
61.180482     	((1.363778e-09 -5.105280e-13 4.960358e-10) (3.151202e-09 -4.651671e-13 1.824258e-12)) ((-1.824828e-16 7.112569e-13 -3.935940e-17) (1.344132e-14 -3.350921e-10 2.059358e-15))
73.428578     	((1.255857e-09 -2.247946e-13 4.641659e-10) (2.962555e-09 -4.032988e-13 1.687346e-12)) ((-1.979518e-16 7.056033e-13 -4.134779e-17) (1.433901e-14 -3.238638e-10 1.724344e-15))
88.126294     	((1.157596e-09 -1.898289e-13 4.349349e-10) (2.790963e-09 -3.591978e-13 1.420849e-12)) ((-1.699584e-16 7.006299e-13 -4.569583e-17) (1.624228e-14 -3.137297e-10 5.317014e-16))
105.763553    	((1.072193e-09 -4.224605e-14 4.095518e-10) (2.635434e-09 -2.920084e-13 1.191863e-12)) ((-1.550153e-16 6.966134e-13 -5.712537e-17) (1.825690e-14 -3.046142e-10 1.246036e-15))
126.928263    	((9.943764e-10 5.475114e-14 3.858773e-10) (2.494752e-09 -2.489796e-13 1.022662e-12)) ((-1.522992e-16 6.931387e-13 -6.672668e-17) (1.995050e-14 -2.964411e-10 5.769347e-16))
152.325916    	((9.256649e-10 1.341307e-13 3.617941e-10) (2.367593e-09 -2.202393e-13 9.806628e-13)) ((-1.410252e-16 6.903017e-13 -7.478383e-17) (2.127424e-14 -2.891187e-10 -8.801407e-16))
182.803099    	((8.644464e-10 1.396594e-13 3.403328e-10) (2.252874e-09 -2.014356e-13 9.019388e-13)) ((-1.385110e-16 6.878452e-13 -7.741486e-17) (2.273523e-14 -2.825658e-10 -2.365691e-15))
219.375719    	((8.104594e-10 1.281020e-13 3.234734e-10) (2.149446e-09 -1.786632e-13 8.135968e-13)) ((-1.339316e-16 6.858288e-13 -7.684196e-17) (2.328457e-14 -2.767090e-10 -3.441385e-15))
263.262863    	((7.622306e-10 1.540135e-13 3.086554e-10) (2.056246e-09 -1.508509e-13 6.906109e-13)) ((-1.275166e-16 6.842134e-13 -8.053916e-17) (2.307035e-14 -2.714774e-10 -3.946870e-15))
315.927436    	((7.201352e-10 1.718528e-13 2.954684e-10) (1.972417e-09 -1.389748e-13 4.878891e-13)) ((-1.234271e-16 6.828826e-13 -7.774189e-17) (2.203284e-14 -2.668144e-10 -3.591280e-15))
379.124923    	((6.832788e-10 1.860284e-13 2.842821e-10) (1.897264e-09 -1.294246e-13 2.135185e-13)) ((-1.265025e-16 6.817927e-13 -7.200041e-17) (2.075470e-14 -2.626744e-10 -2.867268e-15))
454.961908    	((6.518191e-10 2.130263e-13 2.750236e-10) (1.830290e-09 -1.124277e-13 -7.957878e-14)) ((-1.261878e-16 6.809690e-13 -7.081081e-17) (2.008468e-14 -2.590213e-10 -1.845630e-15))
545.966289    	((6.250441e-10 2.141370e-13 2.672514e-10) (1.771048e-09 -1.012620e-13 -3.570513e-13)) ((-1.245536e-16 6.803469e-13 -6.985855e-17) (1.971659e-14 -2.558221e-10 -1.099324e-15))
655.171547    	((6.027734e-10 2.309148e-13 2.610992e-10) (1.719158e-09 -9.257517e-14 -5.990576e-13)) ((-1.207883e-16 6.798385e-13 -6.944734e-17) (1.935726e-14 -2.530439e-10 -3.493654e-16))
786.217856    	((5.842786e-10 2.481152e-13 2.563918e-10) (1.674246e-09 -8.487150e-14 -7.905031e-13)) ((-1.164784e-16 6.793979e-13 -6.811133e-17) (1.899994e-14 -2.506574e-10 5.282633e-16))
943.473427    	((5.692050e-10 2.655021e-13 2.527261e-10) (1.635884e-09 -7.776877e-14 -1.002955e-12)) ((-1.167337e-16 6.789883e-13 -6.808759e-17) (1.862726e-14 -2.486291e-10 1.592953e-15))
1132.180113   	((5.569659e-10 2.621401e-13 2.499910e-10) (1.603617e-09 -7.208350e-14 -1.236634e-12)) ((-1.149758e-16 6.786549e-13 -6.942762e-17) (1.830983e-14 -2.469273e-10 2.705498e-15))
1358.628135   	((5.471312e-10 2.497372e-13 2.477924e-10) (1.576911e-09 -6.591959e-14 -1.482444e-12)) ((-1.146302e-16 6.783996e-13 -6.874246e-17) (1.815836e-14 -2.455194e-10 3.910783e-15))
1630.365763   	((5.393261e-10 2.370534e-13 2.461113e-10) (1.555167e-09 -6.210644e-14 -1.728201e-12)) ((-1.141282e-16 6.782007e-13 -6.800192e-17) (1.805323e-14 -2.443708e-10 5.001289e-15))
1956.450915   	((5.332056e-10 2.264964e-13 2.448481e-10) (1.537747e-09 -5.894838e-14 -1.963224e-12)) ((-1.136086e-16 6.780428e-13 -6.717621e-17) (1.798555e-14 -2.434464e-10 5.941260e-15))
2347.753098   	((5.284309e-10 2.230279e-13 2.439245e-10) (1.524005e-09 -5.599949e-14 -2.177159e-12)) ((-1.132568e-16 6.779168e-13 -6.714730e-17) (1.788095e-14 -2.427117e-10 6.781844e-15))
2817.315718   	((5.247466e-10 2.230378e-13 2.432324e-10) (1.513324e-09 -5.261349e-14 -2.360657e-12)) ((-1.128139e-16 6.778165e-13 -6.707137e-17) (1.778855e-14 -2.421345e-10 7.449318e-15))
3380.790861   	((5.219105e-10 2.232264e-13 2.427169e-10) (1.505134e-09 -4.962408e-14 -2.515561e-12)) ((-1.119029e-16 6.777379e-13 -6.715588e-17) (1.770221e-14 -2.416857e-10 7.963513e-15))
4056.961033   	((5.197426e-10 2.259301e-13 2.423048e-10) (1.498931e-09 -4.759892e-14 -2.641720e-12)) ((-1.112420e-16 6.776758e-13 -6.715265e-17) (1.761328e-14 -2.413400e-10 8.360701e-15))
4868.36524    	((5.180889e-10 2.271406e-13 2.419972e-10) (1.494284e-09 -4.632242e-14 -2.742195e-12)) ((-1.107592e-16 6.776257e-13 -6.708851e-17) (1.753682e-14 -2.410757e-10 8.654478e-15))
5842.050288   	((5.168366e-10 2.272999e-13 2.417633e-10) (1.490837e-09 -4.532748e-14 -2.821232e-12)) ((-1.102750e-16 6.775853e-13 -6.704444e-17) (1.748114e-14 -2.408748e-10 8.878251e-15))
7010.472346   	((5.158913e-10 2.269442e-13 2.415897e-10) (1.488303e-09 -4.445241e-14 -2.882135e-12)) ((-1.099237e-16 6.775520e-13 -6.704665e-17) (1.744828e-14 -2.407228e-10 9.047613e-15))
8412.578815   	((5.151736e-10 2.282314e-13 2.414544e-10) (1.486454e-09 -4.354315e-14 -2.928384e-12)) ((-1.096676e-16 6.775248e-13 -6.707100e-17) (1.743252e-14 -2.406084e-10 9.178358e-15))
10095.106578  	((5.146286e-10 2.298946e-13 2.413401e-10) (1.485115e-09 -4.273743e-14 -2.963014e-12)) ((-1.095420e-16 6.775027e-13 -6.705256e-17) (1.742358e-14 -2.405224e-10 9.273658e-15))
12114.139893  	((5.142123e-10 2.304875e-13 2.412549e-10) (1.484151e-09 -4.211224e-14 -2.988704e-12)) ((-1.095416e-16 6.774848e-13 -6.719442e-17) (1.741693e-14 -2.404579e-10 9.344636e-15))
14536.979872  	((5.138937e-10 2.329342e-13 2.411845e-10) (1.483462e-09 -4.161045e-14 -3.007633e-12)) ((-1.094240e-16 6.774702e-13 -6.724460e-17) (1.740738e-14 -2.404095e-10 9.391474e-15))
17444.387847  	((5.136482e-10 2.350646e-13 2.411241e-10) (1.482972e-09 -4.118877e-14 -3.021605e-12)) ((-1.093589e-16 6.774583e-13 -6.723520e-17) (1.739976e-14 -2.403733e-10 9.432439e-15))
20899.878907  	((5.134593e-10 2.363330e-13 2.410751e-10) (1.482626e-09 -4.084729e-14 -3.031911e-12)) ((-1.093115e-16 6.774488e-13 -6.722313e-17) (1.739471e-14 -2.403462e-10 9.462647e-15))
24903.451903  	((5.133140e-10 2.369526e-13 2.410366e-10) (1.482382e-09 -4.057994e-14 -3.039403e-12)) ((-1.092677e-16 6.774419e-13 -6.721016e-17) (1.739074e-14 -2.403259e-10 9.485446e-15))
29455.106001  	((5.132019e-10 2.371945e-13 2.410062e-10) (1.482212e-09 -4.038807e-14 -3.044779e-12)) ((-1.092246e-16 6.774368e-13 -6.719308e-17) (1.738690e-14 -2.403107e-10 9.503132e-15))
34554.840611  	((5.131148e-10 2.365967e-13 2.409902e-10) (1.482094e-09 -4.024139e-14 -3.048573e-12)) ((-1.091879e-16 6.774329e-13 -6.718592e-17) (1.738392e-14 -2.402993e-10 9.517024e-15))
40035.641525  	((5.130490e-10 2.370143e-13 2.409756e-10) (1.482012e-09 -4.014356e-14 -3.051185e-12)) ((-1.091727e-16 6.774307e-13 -6.718344e-17) (1.738118e-14 -2.402907e-10 9.528268e-15))
45516.439586  	((5.129983e-10 2.371699e-13 2.409672e-10) (1.481956e-09 -4.008247e-14 -3.052880e-12)) ((-1.091772e-16 6.774306e-13 -6.716167e-17) (1.737821e-14 -2.402843e-10 9.537124e-15))
50997.23605   	((5.129581e-10 2.375212e-13 2.409607e-10) (1.481918e-09 -4.004254e-14 -3.053922e-12)) ((-1.091561e-16 6.774309e-13 -6.717516e-17) (1.737529e-14 -2.402795e-10 9.545183e-15))
56478.031736  	((5.129270e-10 2.378392e-13 2.409559e-10) (1.481893e-09 -4.002068e-14 -3.054596e-12)) ((-1.091484e-16 6.774312e-13 -6.716782e-17) (1.737241e-14 -2.402759e-10 9.550717e-15))
61958.827035  	((5.129020e-10 2.380659e-13 2.409525e-10) (1.481876e-09 -4.001427e-14 -3.055044e-12)) ((-1.091423e-16 6.774316e-13 -6.716226e-17) (1.736992e-14 -2.402731e-10 9.554736e-15))
67439.622147  	((5.128821e-10 2.385582e-13 2.409467e-10) (1.481864e-09 -4.001197e-14 -3.055410e-12)) ((-1.091298e-16 6.774319e-13 -6.717420e-17) (1.736742e-14 -2.402710e-10 9.559656e-15))
72920.417183  	((5.128664e-10 2.387395e-13 2.409416e-10) (1.481857e-09 -4.001570e-14 -3.055677e-12)) ((-1.091304e-16 6.774322e-13 -6.717495e-17) (1.736546e-14 -2.402694e-10 9.563511e-15))
78401.212207  	((5.128540e-10 2.388166e-13 2.409373e-10) (1.481853e-09 -4.002060e-14 -3.055880e-12)) ((-1.091279e-16 6.774324e-13 -6.717614e-17) (1.736389e-14 -2.402681e-10 9.566696e-15))
83882.007255  	((5.128441e-10 2.388669e-13 2.409337e-10) (1.481850e-09 -4.003066e-14 -3.056021e-12)) ((-1.091241e-16 6.774326e-13 -6.717706e-17) (1.736236e-14 -2.402672e-10 9.569266e-15))
89362.802345  	((5.128360e-10 2.388636e-13 2.409308e-10) (1.481848e-09 -4.003522e-14 -3.056120e-12)) ((-1.091215e-16 6.774327e-13 -6.717781e-17) (1.736139e-14 -2.402665e-10 9.571529e-15))
94843.597485  	((5.128295e-10 2.388470e-13 2.409284e-10) (1.481848e-09 -4.003786e-14 -3.056199e-12)) ((-1.091183e-16 6.774329e-13 -6.717864e-17) (1.736074e-14 -2.402659e-10 9.573339e-15))
100324.392675 	((5.128243e-10 2.388193e-13 2.409260e-10) (1.481847e-09 -4.004097e-14 -3.056267e-12)) ((-1.091157e-16 6.774330e-13 -6.717902e-17) (1.736013e-14 -2.402655e-10 9.574822e-15))
105805.187912 	((5.128201e-10 2.388015e-13 2.409242e-10) (1.481847e-09 -4.004378e-14 -3.056320e-12)) ((-1.091127e-16 6.774331e-13 -6.717861e-17) (1.735971e-14 -2.402651e-10 9.576019e-15))
111285.983193 	((5.128169e-10 2.388343e-13 2.409226e-10) (1.481847e-09 -4.004953e-14 -3.056358e-12)) ((-1.091103e-16 6.774332e-13 -6.717820e-17) (1.735917e-14 -2.402649e-10 9.577034e-15))
116766.778511 	((5.128141e-10 2.388266e-13 2.409211e-10) (1.481848e-09 -4.005035e-14 -3.056387e-12)) ((-1.091075e-16 6.774333e-13 -6.717675e-17) (1.735897e-14 -2.402647e-10 9.577925e-15))
122247.573864 	((5.128120e-10 2.387936e-13 2.409199e-10) (1.481848e-09 -4.005182e-14 -3.056414e-12)) ((-1.091062e-16 6.774333e-13 -6.717520e-17) (1.735866e-14 -2.402645e-10 9.578660e-15))
127728.369244 	((5.128102e-10 2.387692e-13 2.409186e-10) (1.481848e-09 -4.004721e-14 -3.056438e-12)) ((-1.091035e-16 6.774334e-13 -6.717410e-17) (1.735899e-14 -2.402644e-10 9.579281e-15))
133209.164648 	((5.128088e-10 2.387513e-13 2.409176e-10) (1.481848e-09 -4.004376e-14 -3.056465e-12)) ((-1.091030e-16 6.774334e-13 -6.717190e-17) (1.735902e-14 -2.402643e-10 9.579907e-15))
138689.960072 	((5.128077e-10 2.387253e-13 2.409165e-10) (1.481849e-09 -4.004271e-14 -3.056490e-12)) ((-1.091028e-16 6.774335e-13 -6.716986e-17) (1.735906e-14 -2.402642e-10 9.580315e-15))
144170.755512 	((5.128068e-10 2.387011e-13 2.409156e-10) (1.481849e-09 -4.004354e-14 -3.056513e-12)) ((-1.091023e-16 6.774335e-13 -6.716796e-17) (1.735903e-14 -2.402642e-10 9.580607e-15))
149651.550965 	((5.128060e-10 2.386753e-13 2.409147e-10) (1.481849e-09 -4.004505e-14 -3.056533e-12)) ((-1.091020e-16 6.774336e-13 -6.716616e-17) (1.735896e-14 -2.402641e-10 9.580836e-15))
155132.346429 	((5.128055e-10 2.386472e-13 2.409139e-10) (1.481849e-09 -4.004680e-14 -3.056552e-12)) ((-1.091019e-16 6.774336e-13 -6.716442e-17) (1.735889e-14 -2.402641e-10 9.581023e-15))
160613.141902 	((5.128050e-10 2.386170e-13 2.409131e-10) (1.481849e-09 -4.004928e-14 -3.056569e-12)) ((-1.091019e-16 6.774336e-13 -6.716296e-17) (1.735879e-14 -2.402641e-10 9.581176e-15))
166093.937382 	((5.128046e-10 2.385937e-13 2.409124e-10) (1.481849e-09 -4.004678e-14 -3.056587e-12)) ((-1.091019e-16 6.774336e-13 -6.716046e-17) (1.735888e-14 -2.402640e-10 9.581318e-15))
171574.732867 	((5.128043e-10 2.385695e-13 2.409117e-10) (1.481849e-09 -4.004549e-14 -3.056603e-12)) ((-1.091020e-16 6.774336e-13 -6.715851e-17) (1.735892e-14 -2.402640e-10 9.581429e-15))
177055.528357 	((5.128041e-10 2.385455e-13 2.409111e-10) (1.481849e-09 -4.004596e-14 -3.056616e-12)) ((-1.091020e-16 6.774337e-13 -6.715660e-17) (1.735891e-14 -2.402640e-10 9.581565e-15))
182536.323851 	((5.128039e-10 2.385155e-13 2.409105e-10) (1.481849e-09 -4.005494e-14 -3.056640e-12)) ((-1.091034e-16 6.774337e-13 -6.715538e-17) (1.735844e-14 -2.402640e-10 9.581635e-15))
188017.119348 	((5.128037e-10 2.384897e-13 2.409099e-10) (1.481850e-09 -4.005902e-14 -3.056655e-12)) ((-1.091037e-16 6.774337e-13 -6.715394e-17) (1.735824e-14 -2.402640e-10 9.581711e-15))
193497.914847 	((5.128036e-10 2.384663e-13 2.409094e-10) (1.481850e-09 -4.006185e-14 -3.056668e-12)) ((-1.091040e-16 6.774337e-13 -6.715253e-17) (1.735812e-14 -2.402640e-10 9.581776e-15))
198978.710348 	((5.128035e-10 2.384288e-13 2.409089e-10) (1.481850e-09 -4.006154e-14 -3.056680e-12)) ((-1.091044e-16 6.774337e-13 -6.715108e-17) (1.735814e-14 -2.402640e-10 9.581849e-15))
204459.50585  	((5.128034e-10 2.383995e-13 2.409084e-10) (1.481850e-09 -4.005941e-14 -3.056691e-12)) ((-1.091049e-16 6.774337e-13 -6.714917e-17) (1.735822e-14 -2.402640e-10 9.581918e-15))
209940.301354 	((5.128033e-10 2.383712e-13 2.409080e-10) (1.481850e-09 -4.005781e-14 -3.056705e-12)) ((-1.091047e-16 6.774337e-13 -6.714775e-17) (1.735843e-14 -2.402640e-10 9.581951e-15))
215421.096858 	((5.128033e-10 2.383472e-13 2.409076e-10) (1.481850e-09 -4.005730e-14 -3.056715e-12)) ((-1.091051e-16 6.774337e-13 -6.714621e-17) (1.735848e-14 -2.402640e-10 9.581993e-15))
220901.892364 	((5.128033e-10 2.383224e-13 2.409072e-10) (1.481850e-09 -4.005583e-14 -3.056727e-12)) ((-1.091053e-16 6.774337e-13 -6.714462e-17) (1.735871e-14 -2.402640e-10 9.582024e-15))
226382.68787  	((5.128032e-10 2.383012e-13 2.409069e-10) (1.481850e-09 -4.005551e-14 -3.056735e-12)) ((-1.091058e-16 6.774337e-13 -6.714349e-17) (1.735876e-14 -2.402640e-10 9.582053e-15))
231863.483376 	((5.128032e-10 2.382734e-13 2.409066e-10) (1.481850e-09 -4.005661e-14 -3.056743e-12)) ((-1.091063e-16 6.774337e-13 -6.714300e-17) (1.735889e-14 -2.402640e-10 9.582084e-15))
237344.278883 	((5.128032e-10 2.382574e-13 2.409063e-10) (1.481850e-09 -4.005975e-14 -3.056748e-12)) ((-1.091074e-16 6.774338e-13 -6.714200e-17) (1.735876e-14 -2.402640e-10 9.582117e-15))
