# Forces      
# CofR        : (0.000000e+00 0.000000e+00 0.000000e+00)
# Time        forces(pressure viscous)	moments(pressure viscous)
0             	((0.000000e+00 0.000000e+00 0.000000e+00) (8.849928e-09 2.233346e-11 9.549557e-04)) ((0.000000e+00 0.000000e+00 0.000000e+00) (-5.996009e-12 5.501397e-10 -1.261528e-14))
0.012         	((3.120988e-06 2.329295e-06 9.383526e-02) (-2.738486e-08 9.207672e-09 8.742482e-04)) ((1.052990e-10 3.602718e-08 -1.039287e-11) (3.010579e-10 1.478980e-09 -8.035470e-12))
0.0264        	((1.795876e-06 -6.832557e-07 -1.089886e-02) (-5.826770e-08 1.578207e-08 6.979796e-04)) ((1.171426e-10 -4.460729e-09 -2.250646e-11) (1.024219e-09 2.627996e-09 -4.988896e-11))
0.04368       	((-5.920291e-07 3.976313e-06 -1.669530e-02) (-6.297753e-08 3.938404e-08 4.737689e-04)) ((-2.895154e-10 -6.244091e-09 3.063424e-11) (2.087701e-09 1.657764e-09 -1.384817e-10))
0.064416      	((1.129507e-06 -2.637364e-06 -1.112936e-03) (-4.100043e-08 4.074117e-08 3.467984e-04)) ((6.848937e-11 -6.688817e-10 3.775483e-11) (2.176599e-09 2.181640e-09 -8.285400e-11))
0.0892992     	((-6.919164e-07 -8.243237e-07 -3.879873e-05) (-1.751390e-08 2.097331e-08 2.935298e-04)) ((-2.378580e-10 6.107561e-10 -1.542674e-11) (1.559235e-09 2.352479e-09 6.339227e-12))
0.119159      	((-2.346864e-07 -6.257761e-07 -2.252217e-04) (-5.370740e-09 1.670771e-08 2.510168e-04)) ((-1.684593e-11 1.198650e-10 -8.441280e-12) (1.279002e-09 9.145643e-10 -7.278100e-11))
0.154991      	((-1.973338e-07 -4.454469e-07 -9.947878e-05) (5.527480e-09 2.161758e-08 2.143973e-04)) ((-7.812212e-11 1.665367e-10 -8.651268e-12) (1.541205e-09 -1.691587e-10 -2.098679e-10))
0.197989      	((-1.738905e-07 -2.715700e-07 1.821469e-05) (1.455419e-08 2.551745e-08 1.851273e-04)) ((-2.603919e-11 1.725638e-10 -6.700147e-12) (1.804620e-09 -1.143309e-09 -2.052954e-10))
0.249587      	((-8.320514e-08 -2.141718e-07 6.287304e-05) (1.471966e-08 2.441863e-08 1.612874e-04)) ((-5.187990e-11 1.439965e-10 -4.003431e-12) (1.771856e-09 -1.501601e-09 -1.374228e-10))
0.311504      	((-5.906808e-08 -1.382829e-07 8.440480e-05) (1.730626e-08 2.533219e-08 1.414070e-04)) ((-3.992205e-11 1.381426e-10 -2.573451e-12) (1.857129e-09 -2.002218e-09 -1.148941e-10))
0.385805      	((-3.675923e-08 -8.648911e-08 9.370777e-05) (2.408662e-08 2.725946e-08 1.245823e-04)) ((-3.310552e-11 1.192977e-10 -6.107449e-13) (1.956868e-09 -2.459381e-09 -9.793652e-11))
0.474966      	((-7.364999e-09 -6.193752e-08 9.595087e-05) (2.972953e-08 2.656087e-08 1.102441e-04)) ((-2.438775e-11 8.894946e-11 9.483976e-14) (1.873585e-09 -2.385811e-09 -7.970573e-11))
0.581959      	((1.823963e-08 -4.865034e-08 9.516824e-05) (3.114477e-08 2.537265e-08 9.808728e-05)) ((-1.773238e-11 6.197974e-11 9.459115e-13) (1.745185e-09 -1.913403e-09 -6.243533e-11))
0.710351      	((6.139394e-09 -4.138271e-08 9.283107e-05) (3.125055e-08 2.695404e-08 8.791822e-05)) ((-1.054253e-11 6.781728e-11 1.020211e-14) (1.779002e-09 -1.433516e-09 -7.651403e-11))
0.864421      	((4.070483e-08 -2.184513e-08 8.985195e-05) (3.358784e-08 3.118393e-08 7.947969e-05)) ((-6.065348e-12 6.708781e-11 -6.495307e-13) (1.982600e-09 -1.230838e-09 -1.040962e-10))
1.049306      	((2.941480e-08 -7.410340e-09 8.670793e-05) (3.372629e-08 3.404604e-08 7.249623e-05)) ((-4.964410e-12 5.525299e-11 1.395460e-13) (2.152708e-09 -1.050476e-09 -8.424506e-11))
1.271167      	((-7.453620e-10 -2.040228e-08 8.385082e-05) (3.133527e-08 3.367062e-08 6.668000e-05)) ((-3.163823e-12 4.798074e-11 9.056991e-13) (2.198060e-09 -9.307338e-10 -7.830837e-12))
1.5374        	((-1.202785e-08 -3.893606e-08 8.142529e-05) (3.014494e-08 3.221536e-08 6.176303e-05)) ((-4.343268e-12 5.883771e-11 1.550559e-12) (2.081404e-09 -1.180924e-09 4.339080e-11))
1.85688       	((-2.991743e-08 -4.199944e-08 7.949140e-05) (2.858215e-08 2.955428e-08 5.753772e-05)) ((-7.134499e-12 7.656062e-11 2.220265e-12) (1.920823e-09 -1.306109e-09 3.131348e-11))
2.240256      	((-3.611040e-08 -3.793403e-08 7.805783e-05) (2.641037e-08 2.812198e-08 5.385064e-05)) ((-4.352621e-12 8.667434e-11 2.113999e-12) (1.832695e-09 -1.194882e-09 1.767120e-11))
2.700307      	((-4.186118e-08 -2.799520e-08 7.715985e-05) (2.503865e-08 2.832777e-08 5.061533e-05)) ((-1.584455e-12 8.785171e-11 2.472385e-12) (1.819099e-09 -1.076410e-09 -7.011285e-12))
3.252369      	((-5.548918e-08 -2.473533e-08 7.678085e-05) (2.373412e-08 2.868225e-08 4.779439e-05)) ((9.144008e-14 8.679610e-11 1.981385e-12) (1.854303e-09 -9.990101e-10 -2.636754e-11))
3.914842      	((-6.391497e-08 -2.221242e-08 7.685332e-05) (2.300888e-08 2.919761e-08 4.534385e-05)) ((-5.977413e-14 8.410409e-11 1.405474e-12) (1.912771e-09 -1.105210e-09 -4.749612e-11))
4.709811      	((-7.362891e-08 -2.561525e-08 7.740803e-05) (2.275269e-08 2.962494e-08 4.322403e-05)) ((-3.013865e-13 7.899734e-11 5.694680e-13) (2.002514e-09 -1.260296e-09 -5.295037e-11))
5.660673      	((-8.051391e-08 -2.381870e-08 7.843446e-05) (2.307142e-08 2.988971e-08 4.141535e-05)) ((-5.716578e-13 7.396555e-11 1.208861e-13) (2.136050e-09 -1.389775e-09 -4.464382e-11))
6.770192      	((-1.028710e-07 -2.685884e-08 7.983361e-05) (2.165876e-08 2.953519e-08 3.991503e-05)) ((-8.825675e-13 6.980777e-11 -3.176873e-13) (2.245329e-09 -1.414467e-09 -4.038854e-11))
8.040866      	((-1.175678e-07 -2.982568e-08 8.146433e-05) (1.874968e-08 2.881572e-08 3.869474e-05)) ((-3.918478e-13 6.451907e-11 -6.239300e-13) (2.302374e-09 -1.349717e-09 -4.809661e-11))
9.474094      	((-1.252060e-07 -3.862814e-08 8.325068e-05) (1.579952e-08 2.753879e-08 3.772343e-05)) ((-9.113230e-13 6.242489e-11 -6.434671e-13) (2.330246e-09 -1.280451e-09 -4.905330e-11))
11.07107      	((-1.155019e-07 -4.129803e-08 8.512753e-05) (1.341966e-08 2.628379e-08 3.697522e-05)) ((-1.931639e-12 6.288218e-11 -6.994757e-13) (2.348998e-09 -1.235012e-09 -4.029549e-11))
12.717667     	((-9.968800e-08 -3.452976e-08 8.700270e-05) (1.187533e-08 2.538257e-08 3.644213e-05)) ((-2.257201e-12 6.309436e-11 -6.851368e-13) (2.356825e-09 -1.207100e-09 -2.833896e-11))
14.369298     	((-8.847493e-08 -2.524343e-08 8.872310e-05) (1.117326e-08 2.459704e-08 3.607588e-05)) ((-1.826489e-12 6.345458e-11 -9.424750e-13) (2.360970e-09 -1.203337e-09 -2.088425e-11))
16.021871     	((-7.174843e-08 -1.216398e-08 9.026304e-05) (1.147982e-08 2.434190e-08 3.583478e-05)) ((-1.560394e-12 6.346513e-11 -1.236438e-12) (2.371208e-09 -1.214459e-09 -1.562569e-11))
17.671953     	((-5.786458e-08 1.761731e-09 9.156289e-05) (1.249476e-08 2.480651e-08 3.568007e-05)) ((-1.130780e-12 6.356632e-11 -1.344447e-12) (2.405830e-09 -1.265463e-09 -1.090059e-11))
19.317422     	((-4.495069e-08 1.356010e-08 9.255799e-05) (1.383004e-08 2.592152e-08 3.557603e-05)) ((-7.572124e-13 6.372998e-11 -1.301705e-12) (2.480106e-09 -1.344777e-09 -7.258649e-12))
20.958145     	((-3.390330e-08 2.053491e-08 9.321512e-05) (1.549748e-08 2.744912e-08 3.549539e-05)) ((-7.103891e-13 6.371671e-11 -1.330481e-12) (2.594764e-09 -1.457313e-09 2.800962e-13))
22.595967     	((-2.508245e-08 2.632069e-08 9.356004e-05) (1.724799e-08 2.903123e-08 3.542314e-05)) ((-5.632491e-13 6.362494e-11 -1.373387e-12) (2.714595e-09 -1.579328e-09 6.733297e-12))
24.233828     	((-1.681566e-08 3.208499e-08 9.367307e-05) (1.887081e-08 3.039261e-08 3.535541e-05)) ((-2.341131e-13 6.343196e-11 -1.393556e-12) (2.810418e-09 -1.680511e-09 1.032183e-11))
25.874261     	((-9.721473e-09 3.749020e-08 9.368728e-05) (2.010999e-08 3.139000e-08 3.529405e-05)) ((1.077927e-13 6.322842e-11 -1.402590e-12) (2.872726e-09 -1.749137e-09 1.115380e-11))
27.518247     	((-5.343023e-09 4.138740e-08 9.370026e-05) (2.093189e-08 3.204106e-08 3.524111e-05)) ((2.733602e-13 6.306925e-11 -1.399223e-12) (2.907540e-09 -1.791657e-09 1.087346e-11))
29.165213     	((-2.908142e-09 4.308732e-08 9.375443e-05) (2.144885e-08 3.243651e-08 3.519694e-05)) ((3.145005e-13 6.301671e-11 -1.396677e-12) (2.929713e-09 -1.823437e-09 9.661854e-12))
30.813975     	((-7.243963e-10 4.396650e-08 9.383312e-05) (2.182889e-08 3.270207e-08 3.516041e-05)) ((3.129441e-13 6.297649e-11 -1.397877e-12) (2.949978e-09 -1.852809e-09 9.012148e-12))
32.463623     	((8.400855e-10 4.460047e-08 9.390807e-05) (2.216485e-08 3.292012e-08 3.513013e-05)) ((3.055225e-13 6.292986e-11 -1.396219e-12) (2.972394e-09 -1.883031e-09 9.270487e-12))
34.113779     	((1.975987e-09 4.538385e-08 9.396833e-05) (2.247569e-08 3.311217e-08 3.510510e-05)) ((3.320273e-13 6.288337e-11 -1.400051e-12) (2.995985e-09 -1.912538e-09 9.803465e-12))
35.76436      	((3.217749e-09 4.675832e-08 9.402054e-05) (2.275052e-08 3.330133e-08 3.508463e-05)) ((3.806397e-13 6.282122e-11 -1.402677e-12) (3.018329e-09 -1.938552e-09 1.047943e-11))
37.415298     	((4.729319e-09 4.872355e-08 9.407027e-05) (2.301454e-08 3.348808e-08 3.506813e-05)) ((4.469598e-13 6.276172e-11 -1.406487e-12) (3.038004e-09 -1.961072e-09 1.095782e-11))
39.06649      	((6.516866e-09 5.085008e-08 9.411681e-05) (2.326436e-08 3.368605e-08 3.505487e-05)) ((5.155877e-13 6.270503e-11 -1.412555e-12) (3.055516e-09 -1.980496e-09 1.146617e-11))
40.717874     	((8.421478e-09 5.282354e-08 9.415416e-05) (2.349969e-08 3.389159e-08 3.504411e-05)) ((5.853493e-13 6.264475e-11 -1.418588e-12) (3.071544e-09 -1.997660e-09 1.199709e-11))
42.369437     	((1.030534e-08 5.451709e-08 9.418281e-05) (2.373045e-08 3.408612e-08 3.503525e-05)) ((6.489051e-13 6.258589e-11 -1.424325e-12) (3.086054e-09 -2.012724e-09 1.242689e-11))
44.021177     	((1.209272e-08 5.585859e-08 9.420433e-05) (2.394353e-08 3.426277e-08 3.502787e-05)) ((6.998176e-13 6.253207e-11 -1.430199e-12) (3.098602e-09 -2.026551e-09 1.280843e-11))
45.673079     	((1.371201e-08 5.691517e-08 9.422220e-05) (2.414035e-08 3.441622e-08 3.502170e-05)) ((7.406411e-13 6.248175e-11 -1.434935e-12) (3.109417e-09 -2.038990e-09 1.313689e-11))
47.325122     	((1.514271e-08 5.774998e-08 9.423633e-05) (2.431992e-08 3.454675e-08 3.501654e-05)) ((7.744796e-13 6.243571e-11 -1.439437e-12) (3.118650e-09 -2.050166e-09 1.340914e-11))
48.977287     	((1.635015e-08 5.843180e-08 9.424834e-05) (2.448062e-08 3.465627e-08 3.501224e-05)) ((8.033152e-13 6.239617e-11 -1.443161e-12) (3.126456e-09 -2.060210e-09 1.362396e-11))
50.629555     	((1.735382e-08 5.896545e-08 9.425712e-05) (2.462192e-08 3.474697e-08 3.500864e-05)) ((8.260411e-13 6.236201e-11 -1.446121e-12) (3.132996e-09 -2.069178e-09 1.379769e-11))
52.281907     	((1.817984e-08 5.941485e-08 9.426489e-05) (2.474482e-08 3.482270e-08 3.500564e-05)) ((8.449353e-13 6.233339e-11 -1.448790e-12) (3.138469e-09 -2.077141e-09 1.393888e-11))
53.934325     	((1.887699e-08 5.981283e-08 9.427225e-05) (2.485096e-08 3.488656e-08 3.500315e-05)) ((8.610605e-13 6.230971e-11 -1.451227e-12) (3.143064e-09 -2.084163e-09 1.405431e-11))
55.586797     	((1.945280e-08 6.014298e-08 9.427747e-05) (2.494272e-08 3.494086e-08 3.500108e-05)) ((8.750004e-13 6.228881e-11 -1.453366e-12) (3.146949e-09 -2.090327e-09 1.415451e-11))
57.239313     	((1.995106e-08 6.041158e-08 9.428203e-05) (2.502253e-08 3.498750e-08 3.499936e-05)) ((8.862771e-13 6.227080e-11 -1.455155e-12) (3.150249e-09 -2.095730e-09 1.424414e-11))
58.891864     	((2.036967e-08 6.063688e-08 9.428558e-05) (2.509162e-08 3.502745e-08 3.499793e-05)) ((8.956566e-13 6.225525e-11 -1.456576e-12) (3.153059e-09 -2.100425e-09 1.432219e-11))
60.544443     	((2.072357e-08 6.082226e-08 9.428871e-05) (2.515134e-08 3.506144e-08 3.499675e-05)) ((9.034638e-13 6.224211e-11 -1.457679e-12) (3.155448e-09 -2.104483e-09 1.438812e-11))
62.197047     	((2.101983e-08 6.098187e-08 9.429126e-05) (2.520282e-08 3.509033e-08 3.499577e-05)) ((9.101936e-13 6.223094e-11 -1.458639e-12) (3.157478e-09 -2.107976e-09 1.444146e-11))
63.849669     	((2.127020e-08 6.111414e-08 9.429338e-05) (2.524705e-08 3.511488e-08 3.499496e-05)) ((9.158490e-13 6.222154e-11 -1.459506e-12) (3.159201e-09 -2.110967e-09 1.448532e-11))
65.502309     	((2.148015e-08 6.122690e-08 9.429505e-05) (2.528489e-08 3.513566e-08 3.499429e-05)) ((9.206319e-13 6.221358e-11 -1.460278e-12) (3.160661e-09 -2.113518e-09 1.452230e-11))
67.154961     	((2.165830e-08 6.132198e-08 9.429650e-05) (2.531720e-08 3.515328e-08 3.499373e-05)) ((9.246384e-13 6.220687e-11 -1.460929e-12) (3.161901e-09 -2.115690e-09 1.455346e-11))
68.807625     	((2.180700e-08 6.140344e-08 9.429765e-05) (2.534471e-08 3.516820e-08 3.499327e-05)) ((9.280598e-13 6.220118e-11 -1.461472e-12) (3.162953e-09 -2.117536e-09 1.457939e-11))
70.460298     	((2.193195e-08 6.147202e-08 9.429862e-05) (2.536803e-08 3.518080e-08 3.499288e-05)) ((9.309607e-13 6.219634e-11 -1.461892e-12) (3.163844e-09 -2.119101e-09 1.460068e-11))
72.112979     	((2.203606e-08 6.153092e-08 9.429941e-05) (2.538769e-08 3.519137e-08 3.499256e-05)) ((9.334485e-13 6.219225e-11 -1.462262e-12) (3.164596e-09 -2.120425e-09 1.461881e-11))
73.765667     	((2.212424e-08 6.157938e-08 9.430007e-05) (2.540420e-08 3.520029e-08 3.499230e-05)) ((9.354962e-13 6.218885e-11 -1.462544e-12) (3.165233e-09 -2.121539e-09 1.463379e-11))
75.41836      	((2.219893e-08 6.162102e-08 9.430062e-05) (2.541814e-08 3.520786e-08 3.499208e-05)) ((9.372417e-13 6.218598e-11 -1.462771e-12) (3.165775e-09 -2.122481e-09 1.464606e-11))
77.071057     	((2.226211e-08 6.165632e-08 9.430107e-05) (2.542994e-08 3.521429e-08 3.499190e-05)) ((9.387210e-13 6.218355e-11 -1.462961e-12) (3.166235e-09 -2.123277e-09 1.465621e-11))
78.723757     	((2.231543e-08 6.168647e-08 9.430145e-05) (2.543992e-08 3.521977e-08 3.499175e-05)) ((9.399791e-13 6.218149e-11 -1.463119e-12) (3.166628e-09 -2.123950e-09 1.466394e-11))
80.376461     	((2.236082e-08 6.171196e-08 9.430177e-05) (2.544840e-08 3.522442e-08 3.499162e-05)) ((9.410539e-13 6.217975e-11 -1.463250e-12) (3.166961e-09 -2.124520e-09 1.467084e-11))
82.029167     	((2.239916e-08 6.173389e-08 9.430203e-05) (2.545557e-08 3.522837e-08 3.499152e-05)) ((9.419732e-13 6.217828e-11 -1.463363e-12) (3.167244e-09 -2.125001e-09 1.467654e-11))
83.681875     	((2.243154e-08 6.175247e-08 9.430225e-05) (2.546161e-08 3.523172e-08 3.499143e-05)) ((9.427512e-13 6.217704e-11 -1.463461e-12) (3.167485e-09 -2.125407e-09 1.468108e-11))
85.334585     	((2.245864e-08 6.176833e-08 9.430242e-05) (2.546670e-08 3.523456e-08 3.499136e-05)) ((9.434117e-13 6.217599e-11 -1.463540e-12) (3.167689e-09 -2.125749e-09 1.468512e-11))
86.987296     	((2.248140e-08 6.178177e-08 9.430257e-05) (2.547098e-08 3.523697e-08 3.499130e-05)) ((9.439719e-13 6.217511e-11 -1.463605e-12) (3.167862e-09 -2.126036e-09 1.468876e-11))
88.640008     	((2.250048e-08 6.179322e-08 9.430270e-05) (2.547458e-08 3.523901e-08 3.499125e-05)) ((9.444476e-13 6.217437e-11 -1.463659e-12) (3.168009e-09 -2.126278e-09 1.469198e-11))
90.292722     	((2.251647e-08 6.180294e-08 9.430280e-05) (2.547761e-08 3.524074e-08 3.499121e-05)) ((9.448510e-13 6.217375e-11 -1.463702e-12) (3.168133e-09 -2.126480e-09 1.469473e-11))
91.945436     	((2.252985e-08 6.181120e-08 9.430288e-05) (2.548015e-08 3.524221e-08 3.499118e-05)) ((9.451933e-13 6.217323e-11 -1.463737e-12) (3.168239e-09 -2.126651e-09 1.469705e-11))
93.59815      	((2.254106e-08 6.181820e-08 9.430295e-05) (2.548229e-08 3.524346e-08 3.499115e-05)) ((9.454833e-13 6.217279e-11 -1.463766e-12) (3.168329e-09 -2.126794e-09 1.469898e-11))
95.250866     	((2.255046e-08 6.182415e-08 9.430301e-05) (2.548409e-08 3.524452e-08 3.499113e-05)) ((9.457292e-13 6.217243e-11 -1.463790e-12) (3.168405e-09 -2.126914e-09 1.470057e-11))
96.903581     	((2.255833e-08 6.182918e-08 9.430306e-05) (2.548560e-08 3.524542e-08 3.499111e-05)) ((9.459373e-13 6.217212e-11 -1.463810e-12) (3.168469e-09 -2.127014e-09 1.470187e-11))
98.556297     	((2.256491e-08 6.183345e-08 9.430310e-05) (2.548686e-08 3.524618e-08 3.499109e-05)) ((9.461135e-13 6.217186e-11 -1.463825e-12) (3.168524e-09 -2.127099e-09 1.470293e-11))
100.209014    	((2.257042e-08 6.183706e-08 9.430313e-05) (2.548793e-08 3.524683e-08 3.499108e-05)) ((9.462626e-13 6.217165e-11 -1.463838e-12) (3.168570e-09 -2.127169e-09 1.470380e-11))
101.86173     	((2.257503e-08 6.184012e-08 9.430316e-05) (2.548882e-08 3.524738e-08 3.499107e-05)) ((9.463888e-13 6.217147e-11 -1.463849e-12) (3.168609e-09 -2.127229e-09 1.470452e-11))
103.514447    	((2.257888e-08 6.184270e-08 9.430318e-05) (2.548957e-08 3.524785e-08 3.499106e-05)) ((9.464954e-13 6.217132e-11 -1.463858e-12) (3.168642e-09 -2.127278e-09 1.470511e-11))
105.167164    	((2.258210e-08 6.184489e-08 9.430320e-05) (2.549019e-08 3.524825e-08 3.499105e-05)) ((9.465856e-13 6.217119e-11 -1.463865e-12) (3.168671e-09 -2.127320e-09 1.470560e-11))
106.819881    	((2.258479e-08 6.184674e-08 9.430322e-05) (2.549072e-08 3.524858e-08 3.499105e-05)) ((9.466618e-13 6.217109e-11 -1.463871e-12) (3.168694e-09 -2.127355e-09 1.470600e-11))
108.472599    	((2.258704e-08 6.184830e-08 9.430323e-05) (2.549116e-08 3.524887e-08 3.499104e-05)) ((9.467262e-13 6.217100e-11 -1.463877e-12) (3.168714e-09 -2.127384e-09 1.470633e-11))
110.125316    	((2.258892e-08 6.184962e-08 9.430324e-05) (2.549152e-08 3.524911e-08 3.499104e-05)) ((9.467806e-13 6.217093e-11 -1.463881e-12) (3.168731e-09 -2.127408e-09 1.470661e-11))
111.778034    	((2.259050e-08 6.185074e-08 9.430325e-05) (2.549183e-08 3.524931e-08 3.499103e-05)) ((9.468265e-13 6.217087e-11 -1.463884e-12) (3.168746e-09 -2.127428e-09 1.470683e-11))
113.430751    	((2.259181e-08 6.185168e-08 9.430326e-05) (2.549209e-08 3.524948e-08 3.499103e-05)) ((9.468652e-13 6.217081e-11 -1.463887e-12) (3.168758e-09 -2.127445e-09 1.470702e-11))
115.083469    	((2.259291e-08 6.185247e-08 9.430326e-05) (2.549231e-08 3.524963e-08 3.499103e-05)) ((9.468980e-13 6.217077e-11 -1.463890e-12) (3.168768e-09 -2.127460e-09 1.470718e-11))
116.736186    	((2.259383e-08 6.185314e-08 9.430327e-05) (2.549249e-08 3.524975e-08 3.499103e-05)) ((9.469256e-13 6.217074e-11 -1.463892e-12) (3.168777e-09 -2.127472e-09 1.470730e-11))
118.388904    	((2.259460e-08 6.185371e-08 9.430327e-05) (2.549264e-08 3.524986e-08 3.499103e-05)) ((9.469488e-13 6.217071e-11 -1.463893e-12) (3.168784e-09 -2.127482e-09 1.470741e-11))
120.041622    	((2.259524e-08 6.185419e-08 9.430328e-05) (2.549276e-08 3.524995e-08 3.499102e-05)) ((9.469685e-13 6.217068e-11 -1.463895e-12) (3.168790e-09 -2.127490e-09 1.470749e-11))
121.694339    	((2.259577e-08 6.185459e-08 9.430328e-05) (2.549287e-08 3.525002e-08 3.499102e-05)) ((9.469850e-13 6.217066e-11 -1.463896e-12) (3.168795e-09 -2.127497e-09 1.470757e-11))
123.347057    	((2.259622e-08 6.185493e-08 9.430328e-05) (2.549296e-08 3.525008e-08 3.499102e-05)) ((9.469990e-13 6.217064e-11 -1.463897e-12) (3.168800e-09 -2.127503e-09 1.470763e-11))
124.999775    	((2.259660e-08 6.185522e-08 9.430328e-05) (2.549303e-08 3.525014e-08 3.499102e-05)) ((9.470107e-13 6.217063e-11 -1.463897e-12) (3.168803e-09 -2.127508e-09 1.470767e-11))
126.652492    	((2.259691e-08 6.185546e-08 9.430328e-05) (2.549309e-08 3.525018e-08 3.499102e-05)) ((9.470207e-13 6.217061e-11 -1.463898e-12) (3.168806e-09 -2.127512e-09 1.470771e-11))
128.30521     	((2.259717e-08 6.185566e-08 9.430329e-05) (2.549314e-08 3.525022e-08 3.499102e-05)) ((9.470290e-13 6.217060e-11 -1.463899e-12) (3.168809e-09 -2.127515e-09 1.470775e-11))
129.957928    	((2.259739e-08 6.185583e-08 9.430329e-05) (2.549319e-08 3.525025e-08 3.499102e-05)) ((9.470360e-13 6.217060e-11 -1.463899e-12) (3.168811e-09 -2.127518e-09 1.470778e-11))
131.610646    	((2.259757e-08 6.185598e-08 9.430329e-05) (2.549322e-08 3.525028e-08 3.499102e-05)) ((9.470420e-13 6.217059e-11 -1.463899e-12) (3.168813e-09 -2.127520e-09 1.470780e-11))
133.263364    	((2.259773e-08 6.185610e-08 9.430329e-05) (2.549325e-08 3.525030e-08 3.499102e-05)) ((9.470469e-13 6.217058e-11 -1.463900e-12) (3.168815e-09 -2.127522e-09 1.470782e-11))
134.916081    	((2.259785e-08 6.185620e-08 9.430329e-05) (2.549328e-08 3.525032e-08 3.499102e-05)) ((9.470511e-13 6.217058e-11 -1.463900e-12) (3.168816e-09 -2.127524e-09 1.470783e-11))
136.568799    	((2.259796e-08 6.185629e-08 9.430329e-05) (2.549330e-08 3.525034e-08 3.499102e-05)) ((9.470547e-13 6.217057e-11 -1.463900e-12) (3.168817e-09 -2.127525e-09 1.470785e-11))
138.221517    	((2.259805e-08 6.185636e-08 9.430329e-05) (2.549332e-08 3.525035e-08 3.499102e-05)) ((9.470576e-13 6.217057e-11 -1.463900e-12) (3.168818e-09 -2.127526e-09 1.470786e-11))
139.874235    	((2.259812e-08 6.185642e-08 9.430329e-05) (2.549333e-08 3.525036e-08 3.499102e-05)) ((9.470601e-13 6.217057e-11 -1.463901e-12) (3.168819e-09 -2.127527e-09 1.470787e-11))
141.526953    	((2.259818e-08 6.185647e-08 9.430329e-05) (2.549334e-08 3.525037e-08 3.499102e-05)) ((9.470622e-13 6.217056e-11 -1.463901e-12) (3.168819e-09 -2.127528e-09 1.470787e-11))
143.17967     	((2.259823e-08 6.185652e-08 9.430329e-05) (2.549335e-08 3.525038e-08 3.499102e-05)) ((9.470640e-13 6.217056e-11 -1.463901e-12) (3.168820e-09 -2.127529e-09 1.470788e-11))
144.832388    	((2.259828e-08 6.185655e-08 9.430329e-05) (2.549336e-08 3.525039e-08 3.499102e-05)) ((9.470655e-13 6.217056e-11 -1.463901e-12) (3.168821e-09 -2.127529e-09 1.470788e-11))
146.485106    	((2.259831e-08 6.185658e-08 9.430329e-05) (2.549337e-08 3.525039e-08 3.499102e-05)) ((9.470667e-13 6.217056e-11 -1.463901e-12) (3.168821e-09 -2.127530e-09 1.470789e-11))
148.137824    	((2.259834e-08 6.185661e-08 9.430329e-05) (2.549337e-08 3.525040e-08 3.499102e-05)) ((9.470678e-13 6.217056e-11 -1.463901e-12) (3.168821e-09 -2.127530e-09 1.470789e-11))
149.790542    	((2.259837e-08 6.185663e-08 9.430329e-05) (2.549338e-08 3.525040e-08 3.499102e-05)) ((9.470687e-13 6.217056e-11 -1.463901e-12) (3.168822e-09 -2.127531e-09 1.470789e-11))
151.44326     	((2.259839e-08 6.185665e-08 9.430329e-05) (2.549338e-08 3.525040e-08 3.499102e-05)) ((9.470694e-13 6.217056e-11 -1.463901e-12) (3.168822e-09 -2.127531e-09 1.470790e-11))
153.095977    	((2.259841e-08 6.185666e-08 9.430329e-05) (2.549339e-08 3.525041e-08 3.499102e-05)) ((9.470700e-13 6.217056e-11 -1.463901e-12) (3.168822e-09 -2.127531e-09 1.470790e-11))
154.748695    	((2.259842e-08 6.185668e-08 9.430329e-05) (2.549339e-08 3.525041e-08 3.499102e-05)) ((9.470706e-13 6.217056e-11 -1.463901e-12) (3.168822e-09 -2.127531e-09 1.470790e-11))
156.401413    	((2.259843e-08 6.185669e-08 9.430329e-05) (2.549339e-08 3.525041e-08 3.499102e-05)) ((9.470710e-13 6.217055e-11 -1.463901e-12) (3.168822e-09 -2.127531e-09 1.470790e-11))
158.054131    	((2.259845e-08 6.185670e-08 9.430329e-05) (2.549339e-08 3.525041e-08 3.499102e-05)) ((9.470714e-13 6.217055e-11 -1.463901e-12) (3.168822e-09 -2.127532e-09 1.470790e-11))
159.706849    	((2.259845e-08 6.185670e-08 9.430329e-05) (2.549340e-08 3.525041e-08 3.499102e-05)) ((9.470717e-13 6.217055e-11 -1.463901e-12) (3.168822e-09 -2.127532e-09 1.470790e-11))
161.359566    	((2.259846e-08 6.185671e-08 9.430329e-05) (2.549340e-08 3.525042e-08 3.499102e-05)) ((9.470720e-13 6.217055e-11 -1.463901e-12) (3.168823e-09 -2.127532e-09 1.470790e-11))
163.012284    	((2.259847e-08 6.185672e-08 9.430329e-05) (2.549340e-08 3.525042e-08 3.499102e-05)) ((9.470722e-13 6.217055e-11 -1.463901e-12) (3.168823e-09 -2.127532e-09 1.470790e-11))
164.665002    	((2.259847e-08 6.185672e-08 9.430329e-05) (2.549340e-08 3.525042e-08 3.499102e-05)) ((9.470724e-13 6.217055e-11 -1.463901e-12) (3.168823e-09 -2.127532e-09 1.470790e-11))
166.31772     	((2.259848e-08 6.185673e-08 9.430329e-05) (2.549340e-08 3.525042e-08 3.499102e-05)) ((9.470726e-13 6.217055e-11 -1.463901e-12) (3.168823e-09 -2.127532e-09 1.470791e-11))
167.970438    	((2.259848e-08 6.185673e-08 9.430329e-05) (2.549340e-08 3.525042e-08 3.499102e-05)) ((9.470727e-13 6.217055e-11 -1.463901e-12) (3.168823e-09 -2.127532e-09 1.470791e-11))
169.623156    	((2.259848e-08 6.185673e-08 9.430329e-05) (2.549340e-08 3.525042e-08 3.499102e-05)) ((9.470728e-13 6.217055e-11 -1.463901e-12) (3.168823e-09 -2.127532e-09 1.470791e-11))
171.275873    	((2.259849e-08 6.185673e-08 9.430329e-05) (2.549340e-08 3.525042e-08 3.499102e-05)) ((9.470729e-13 6.217055e-11 -1.463901e-12) (3.168823e-09 -2.127532e-09 1.470791e-11))
172.928591    	((2.259849e-08 6.185673e-08 9.430329e-05) (2.549340e-08 3.525042e-08 3.499102e-05)) ((9.470730e-13 6.217055e-11 -1.463901e-12) (3.168823e-09 -2.127532e-09 1.470791e-11))
174.581309    	((2.259849e-08 6.185674e-08 9.430329e-05) (2.549340e-08 3.525042e-08 3.499102e-05)) ((9.470730e-13 6.217055e-11 -1.463901e-12) (3.168823e-09 -2.127532e-09 1.470791e-11))
176.234027    	((2.259849e-08 6.185674e-08 9.430329e-05) (2.549340e-08 3.525042e-08 3.499102e-05)) ((9.470731e-13 6.217055e-11 -1.463901e-12) (3.168823e-09 -2.127532e-09 1.470791e-11))
177.886745    	((2.259849e-08 6.185674e-08 9.430329e-05) (2.549340e-08 3.525042e-08 3.499102e-05)) ((9.470731e-13 6.217055e-11 -1.463901e-12) (3.168823e-09 -2.127532e-09 1.470791e-11))
179.539463    	((2.259849e-08 6.185674e-08 9.430329e-05) (2.549340e-08 3.525042e-08 3.499102e-05)) ((9.470731e-13 6.217055e-11 -1.463901e-12) (3.168823e-09 -2.127532e-09 1.470791e-11))
181.19218     	((2.259849e-08 6.185674e-08 9.430329e-05) (2.549340e-08 3.525042e-08 3.499102e-05)) ((9.470732e-13 6.217055e-11 -1.463901e-12) (3.168823e-09 -2.127532e-09 1.470791e-11))
182.844898    	((2.259849e-08 6.185674e-08 9.430329e-05) (2.549340e-08 3.525042e-08 3.499102e-05)) ((9.470732e-13 6.217055e-11 -1.463901e-12) (3.168823e-09 -2.127532e-09 1.470791e-11))
184.497616    	((2.259849e-08 6.185674e-08 9.430329e-05) (2.549340e-08 3.525042e-08 3.499102e-05)) ((9.470732e-13 6.217055e-11 -1.463901e-12) (3.168823e-09 -2.127532e-09 1.470791e-11))
186.150334    	((2.259849e-08 6.185674e-08 9.430329e-05) (2.549340e-08 3.525042e-08 3.499102e-05)) ((9.470732e-13 6.217055e-11 -1.463901e-12) (3.168823e-09 -2.127532e-09 1.470791e-11))
187.803052    	((2.259849e-08 6.185674e-08 9.430329e-05) (2.549340e-08 3.525042e-08 3.499102e-05)) ((9.470732e-13 6.217055e-11 -1.463901e-12) (3.168823e-09 -2.127532e-09 1.470791e-11))
189.45577     	((2.259849e-08 6.185674e-08 9.430329e-05) (2.549340e-08 3.525042e-08 3.499102e-05)) ((9.470733e-13 6.217055e-11 -1.463901e-12) (3.168823e-09 -2.127532e-09 1.470791e-11))
191.108487    	((2.259850e-08 6.185674e-08 9.430329e-05) (2.549340e-08 3.525042e-08 3.499102e-05)) ((9.470733e-13 6.217055e-11 -1.463901e-12) (3.168823e-09 -2.127532e-09 1.470791e-11))
192.761205    	((2.259850e-08 6.185674e-08 9.430329e-05) (2.549340e-08 3.525042e-08 3.499102e-05)) ((9.470733e-13 6.217055e-11 -1.463901e-12) (3.168823e-09 -2.127532e-09 1.470791e-11))
194.413923    	((2.259850e-08 6.185674e-08 9.430329e-05) (2.549340e-08 3.525042e-08 3.499102e-05)) ((9.470733e-13 6.217055e-11 -1.463901e-12) (3.168823e-09 -2.127532e-09 1.470791e-11))
196.066641    	((2.259850e-08 6.185674e-08 9.430329e-05) (2.549340e-08 3.525042e-08 3.499102e-05)) ((9.470733e-13 6.217055e-11 -1.463901e-12) (3.168823e-09 -2.127532e-09 1.470791e-11))
197.719359    	((2.259850e-08 6.185674e-08 9.430329e-05) (2.549340e-08 3.525042e-08 3.499102e-05)) ((9.470733e-13 6.217055e-11 -1.463901e-12) (3.168823e-09 -2.127532e-09 1.470791e-11))
199.372076    	((2.259850e-08 6.185674e-08 9.430329e-05) (2.549340e-08 3.525042e-08 3.499102e-05)) ((9.470733e-13 6.217055e-11 -1.463901e-12) (3.168823e-09 -2.127532e-09 1.470791e-11))
201.024794    	((2.259850e-08 6.185674e-08 9.430329e-05) (2.549340e-08 3.525042e-08 3.499102e-05)) ((9.470733e-13 6.217055e-11 -1.463901e-12) (3.168823e-09 -2.127532e-09 1.470791e-11))
202.677512    	((2.259850e-08 6.185674e-08 9.430329e-05) (2.549340e-08 3.525042e-08 3.499102e-05)) ((9.470733e-13 6.217055e-11 -1.463901e-12) (3.168823e-09 -2.127532e-09 1.470791e-11))
204.33023     	((2.259850e-08 6.185674e-08 9.430329e-05) (2.549340e-08 3.525042e-08 3.499102e-05)) ((9.470733e-13 6.217055e-11 -1.463901e-12) (3.168823e-09 -2.127532e-09 1.470791e-11))
205.982948    	((2.259850e-08 6.185674e-08 9.430329e-05) (2.549340e-08 3.525042e-08 3.499102e-05)) ((9.470733e-13 6.217055e-11 -1.463901e-12) (3.168823e-09 -2.127532e-09 1.470791e-11))
207.635666    	((2.259850e-08 6.185674e-08 9.430329e-05) (2.549340e-08 3.525042e-08 3.499102e-05)) ((9.470733e-13 6.217055e-11 -1.463901e-12) (3.168823e-09 -2.127532e-09 1.470791e-11))
209.288383    	((2.259850e-08 6.185674e-08 9.430329e-05) (2.549340e-08 3.525042e-08 3.499102e-05)) ((9.470733e-13 6.217055e-11 -1.463901e-12) (3.168823e-09 -2.127532e-09 1.470791e-11))
210.941101    	((2.259850e-08 6.185674e-08 9.430329e-05) (2.549340e-08 3.525042e-08 3.499102e-05)) ((9.470733e-13 6.217055e-11 -1.463901e-12) (3.168823e-09 -2.127532e-09 1.470791e-11))
212.593819    	((2.259850e-08 6.185674e-08 9.430329e-05) (2.549340e-08 3.525042e-08 3.499102e-05)) ((9.470733e-13 6.217055e-11 -1.463901e-12) (3.168823e-09 -2.127532e-09 1.470791e-11))
214.246537    	((2.259850e-08 6.185674e-08 9.430329e-05) (2.549340e-08 3.525042e-08 3.499102e-05)) ((9.470733e-13 6.217055e-11 -1.463901e-12) (3.168823e-09 -2.127532e-09 1.470791e-11))
215.899255    	((2.259850e-08 6.185674e-08 9.430329e-05) (2.549340e-08 3.525042e-08 3.499102e-05)) ((9.470733e-13 6.217055e-11 -1.463901e-12) (3.168823e-09 -2.127532e-09 1.470791e-11))
217.551973    	((2.259850e-08 6.185674e-08 9.430329e-05) (2.549340e-08 3.525042e-08 3.499102e-05)) ((9.470733e-13 6.217055e-11 -1.463901e-12) (3.168823e-09 -2.127532e-09 1.470791e-11))
219.20469     	((2.259850e-08 6.185674e-08 9.430329e-05) (2.549340e-08 3.525042e-08 3.499102e-05)) ((9.470733e-13 6.217055e-11 -1.463901e-12) (3.168823e-09 -2.127532e-09 1.470791e-11))
220.857408    	((2.259850e-08 6.185674e-08 9.430329e-05) (2.549340e-08 3.525042e-08 3.499102e-05)) ((9.470733e-13 6.217055e-11 -1.463901e-12) (3.168823e-09 -2.127532e-09 1.470791e-11))
222.510126    	((2.259850e-08 6.185674e-08 9.430329e-05) (2.549340e-08 3.525042e-08 3.499102e-05)) ((9.470733e-13 6.217055e-11 -1.463901e-12) (3.168823e-09 -2.127532e-09 1.470791e-11))
224.162844    	((2.259850e-08 6.185674e-08 9.430329e-05) (2.549340e-08 3.525042e-08 3.499102e-05)) ((9.470733e-13 6.217055e-11 -1.463901e-12) (3.168823e-09 -2.127532e-09 1.470791e-11))
225.815562    	((2.259850e-08 6.185674e-08 9.430329e-05) (2.549340e-08 3.525042e-08 3.499102e-05)) ((9.470733e-13 6.217055e-11 -1.463901e-12) (3.168823e-09 -2.127532e-09 1.470791e-11))
