# Forces      
# CofR        : (0.000000e+00 0.000000e+00 0.000000e+00)
# Time        forces(pressure viscous)	moments(pressure viscous)
0             	((0.000000e+00 0.000000e+00 0.000000e+00) (0.000000e+00 0.000000e+00 0.000000e+00)) ((0.000000e+00 0.000000e+00 0.000000e+00) (0.000000e+00 0.000000e+00 0.000000e+00))
0.012         	((9.375104e-13 -3.626612e-08 -5.874082e-09) (9.879883e-15 -8.342320e-08 -2.324213e-15)) ((-5.297138e-12 -1.917620e-14 4.851979e-14) (-5.551444e-09 -5.148993e-16 -8.966908e-15))
0.0264        	((2.118033e-11 -4.874521e-08 -1.244239e-08) (4.767695e-14 -7.641603e-08 -1.103608e-15)) ((2.406397e-12 -4.167867e-14 2.142841e-14) (-5.090661e-09 -1.284843e-15 -9.251575e-15))
0.04368       	((-1.630898e-11 -3.296083e-08 -6.750402e-09) (6.123006e-14 -6.918440e-08 -8.808357e-15)) ((1.787563e-12 -2.194878e-14 2.413364e-14) (-4.616507e-09 -3.917846e-16 -1.728543e-14))
0.064416      	((1.861606e-11 -3.726472e-08 -8.732560e-09) (8.320457e-14 -6.188793e-08 -7.258173e-15)) ((3.529275e-12 -2.906021e-14 1.517431e-14) (-4.139718e-09 1.107382e-15 -6.614856e-15))
0.0892992     	((-9.179093e-12 -2.750833e-08 -5.824004e-09) (8.440348e-14 -5.473473e-08 -5.224567e-14)) ((2.519365e-12 -1.915278e-14 1.008383e-14) (-3.673868e-09 2.487745e-15 2.041729e-14))
0.119159      	((6.796375e-12 -2.821014e-08 -6.320591e-09) (5.187346e-14 -4.795341e-08 -1.497689e-13)) ((3.084891e-12 -2.084763e-14 5.285054e-15) (-3.234226e-09 2.456318e-15 3.115142e-14))
0.154991      	((-4.596630e-12 -2.124369e-08 -4.512195e-09) (2.338583e-14 -4.175474e-08 -2.332374e-13)) ((2.156163e-12 -1.508621e-14 2.363645e-15) (-2.830149e-09 2.456722e-15 3.509018e-14))
0.197989      	((1.560770e-12 -2.096739e-08 -4.544426e-09) (9.524016e-15 -3.626889e-08 -2.987623e-13)) ((2.431028e-12 -1.521899e-14 3.537877e-15) (-2.472231e-09 2.255958e-15 3.705972e-14))
0.249587      	((-1.478862e-12 -1.628594e-08 -3.523966e-09) (9.079052e-16 -3.159453e-08 -3.504334e-13)) ((1.741482e-12 -1.160634e-14 2.812513e-15) (-2.164938e-09 8.756633e-16 3.459003e-14))
0.311504      	((-5.672532e-13 -1.580862e-08 -3.414021e-09) (-1.145608e-14 -2.770879e-08 -3.812680e-13)) ((1.917450e-12 -1.153773e-14 5.092249e-15) (-1.908420e-09 1.206276e-17 2.729201e-14))
0.385805      	((2.661475e-14 -1.273987e-08 -2.835289e-09) (-2.000655e-14 -2.449895e-08 -4.295695e-13)) ((1.428594e-12 -9.349261e-15 3.154424e-15) (-1.696296e-09 -7.693344e-16 1.538801e-14))
0.474966      	((-3.550285e-13 -1.234964e-08 -2.676194e-09) (-1.524634e-14 -2.184406e-08 -4.553249e-13)) ((1.551513e-12 -9.163334e-15 4.429460e-15) (-1.521171e-09 -4.316556e-16 5.221330e-15))
0.581959      	((5.862811e-13 -1.028739e-08 -2.305097e-09) (1.093296e-14 -1.960961e-08 -4.659867e-13)) ((1.195621e-12 -7.493587e-15 2.987059e-15) (-1.373668e-09 -5.879962e-16 5.898558e-15))
0.710351      	((-1.190669e-13 -9.969413e-09 -2.135978e-09) (3.118314e-14 -1.769036e-08 -4.037882e-13)) ((1.288236e-12 -7.358186e-15 4.627106e-15) (-1.247427e-09 5.829858e-16 5.770511e-15))
0.864421      	((1.155317e-12 -8.487679e-09 -1.890019e-09) (4.307078e-14 -1.600286e-08 -4.045512e-13)) ((1.035934e-12 -6.220318e-15 3.264257e-15) (-1.136510e-09 1.085826e-15 1.189588e-14))
1.049306      	((6.191711e-14 -8.168056e-09 -1.745054e-09) (5.010886e-14 -1.450068e-08 -4.162555e-13)) ((1.108846e-12 -6.044890e-15 2.744037e-15) (-1.038228e-09 2.735663e-15 1.935946e-14))
1.271167      	((8.300969e-13 -7.020388e-09 -1.561469e-09) (5.872619e-14 -1.314518e-08 -4.621391e-13)) ((9.345552e-13 -5.299634e-15 1.763015e-17) (-9.496357e-10 4.387364e-15 2.171094e-14))
1.5374        	((7.318018e-13 -6.677153e-09 -1.432053e-09) (6.802849e-14 -1.192158e-08 -4.364636e-13)) ((9.749163e-13 -5.082976e-15 -3.251156e-16) (-8.697694e-10 8.154801e-15 1.778777e-14))
1.85688       	((6.370722e-13 -5.783210e-09 -1.294230e-09) (9.478410e-14 -1.081554e-08 -5.110009e-13)) ((8.471220e-13 -4.626493e-15 -1.753810e-15) (-7.977255e-10 1.414223e-14 1.897313e-14))
2.240256      	((6.586944e-13 -5.425285e-09 -1.198816e-09) (1.440557e-13 -9.821891e-09 -6.434121e-13)) ((8.594998e-13 -4.387332e-15 -1.418946e-15) (-7.329416e-10 2.083371e-14 2.826151e-14))
2.700307      	((1.840900e-13 -4.755791e-09 -1.104243e-09) (1.978943e-13 -8.942798e-09 -8.922738e-13)) ((7.691204e-13 -4.084610e-15 -2.196876e-15) (-6.756745e-10 2.779353e-14 3.701296e-14))
3.252369      	((1.062061e-12 -4.428206e-09 -1.036763e-09) (2.187958e-13 -8.166195e-09 -1.295565e-12)) ((7.712386e-13 -3.930794e-15 -1.650261e-15) (-6.250353e-10 3.525408e-14 3.845588e-14))
3.914842      	((-1.630196e-13 -3.947576e-09 -9.656748e-10) (1.422250e-13 -7.483279e-09 -1.581336e-12)) ((7.188226e-13 -3.569623e-15 -1.725156e-15) (-5.806350e-10 4.456356e-14 3.076547e-14))
4.709811      	((2.815621e-13 -3.653101e-09 -9.094179e-10) (5.676417e-14 -6.882155e-09 -1.840180e-12)) ((7.126821e-13 -3.292713e-15 -1.529536e-15) (-5.416295e-10 5.087184e-14 1.940729e-14))
5.663773      	((-2.605825e-14 -3.303666e-09 -8.439896e-10) (5.493595e-14 -6.348945e-09 -2.159196e-12)) ((6.783992e-13 -2.919953e-15 -1.620796e-15) (-5.071285e-10 5.161718e-14 9.878675e-15))
6.808528      	((8.059967e-13 -3.046959e-09 -7.841961e-10) (1.110481e-13 -5.870897e-09 -2.471628e-12)) ((6.640215e-13 -2.933916e-15 -1.643870e-15) (-4.762857e-10 4.947917e-14 9.543422e-16))
8.182233      	((8.969074e-13 -2.776425e-09 -7.192755e-10) (1.858771e-13 -5.437220e-09 -2.664362e-12)) ((6.420230e-13 -2.608121e-15 -1.893541e-15) (-4.484501e-10 4.641648e-14 -3.064722e-15))
9.83068       	((7.645775e-13 -2.545914e-09 -6.609510e-10) (2.529728e-13 -5.040308e-09 -2.679460e-12)) ((6.263539e-13 -2.514912e-15 -1.873698e-15) (-4.231142e-10 4.254872e-14 -3.606254e-15))
11.808816     	((3.919175e-13 -2.328343e-09 -6.065492e-10) (2.988251e-13 -4.676162e-09 -2.502206e-12)) ((6.102194e-13 -2.198639e-15 -1.941707e-15) (-4.000238e-10 3.703584e-14 -5.078056e-15))
14.182579     	((5.690667e-13 -2.137807e-09 -5.646156e-10) (3.161728e-13 -4.341737e-09 -2.307533e-12)) ((5.946120e-13 -2.088354e-15 -1.931449e-15) (-3.789313e-10 3.137343e-14 -1.512929e-15))
17.031095     	((6.065571e-13 -1.959918e-09 -5.298316e-10) (3.269871e-13 -4.034394e-09 -2.193383e-12)) ((5.822580e-13 -1.903926e-15 -1.986325e-15) (-3.597184e-10 2.674148e-14 6.476890e-16))
20.449314     	((7.525257e-13 -1.801226e-09 -5.064417e-10) (3.211817e-13 -3.752602e-09 -2.104513e-12)) ((5.700207e-13 -1.853880e-15 -2.036981e-15) (-3.422377e-10 2.081048e-14 -1.436744e-15))
24.551176     	((5.250610e-13 -1.652206e-09 -4.870213e-10) (3.163561e-13 -3.494675e-09 -1.983529e-12)) ((5.612589e-13 -1.775173e-15 -2.082794e-15) (-3.263562e-10 1.517205e-14 -2.882322e-15))
29.473411     	((4.374312e-13 -1.518125e-09 -4.668268e-10) (3.071687e-13 -3.259098e-09 -1.860653e-12)) ((5.527060e-13 -1.722567e-15 -2.127383e-15) (-3.119419e-10 1.239829e-14 -1.433917e-15))
35.380094     	((3.652068e-13 -1.393271e-09 -4.474238e-10) (3.202550e-13 -3.043993e-09 -1.789939e-12)) ((5.460426e-13 -1.656484e-15 -2.166914e-15) (-2.988480e-10 1.061849e-14 -4.176999e-15))
42.468112     	((3.056624e-13 -1.281258e-09 -4.279062e-10) (3.371447e-13 -2.847332e-09 -1.735774e-12)) ((5.397600e-13 -1.622540e-15 -2.186604e-15) (-2.869213e-10 1.015873e-14 -8.472391e-15))
50.973735     	((3.079365e-13 -1.177469e-09 -4.087617e-10) (3.455781e-13 -2.667425e-09 -1.737669e-12)) ((5.344500e-13 -1.564394e-15 -2.194010e-15) (-2.760579e-10 9.691378e-15 -1.206497e-14))
61.180482     	((3.368929e-13 -1.083256e-09 -3.917660e-10) (3.334683e-13 -2.503043e-09 -1.780530e-12)) ((5.295498e-13 -1.502545e-15 -2.192334e-15) (-2.661923e-10 1.042347e-14 -1.490050e-14))
73.428578     	((2.037459e-13 -9.976175e-10 -3.757753e-10) (2.934077e-13 -2.353239e-09 -1.801395e-12)) ((5.254898e-13 -1.436385e-15 -2.164076e-15) (-2.572643e-10 1.141136e-14 -1.784735e-14))
88.126294     	((1.501685e-13 -9.196946e-10 -3.602062e-10) (2.562552e-13 -2.216948e-09 -1.777914e-12)) ((5.219818e-13 -1.358955e-15 -2.167483e-15) (-2.492086e-10 1.277672e-14 -1.909688e-14))
105.763553    	((1.185105e-14 -8.517133e-10 -3.464370e-10) (2.068867e-13 -2.093284e-09 -1.725609e-12)) ((5.191607e-13 -1.305350e-15 -2.167960e-15) (-2.419640e-10 1.486305e-14 -2.174477e-14))
126.928263    	((-7.966344e-14 -7.898357e-10 -3.351322e-10) (1.570619e-13 -1.981419e-09 -1.670446e-12)) ((5.167498e-13 -1.257592e-15 -2.148840e-15) (-2.354702e-10 1.606487e-14 -2.419492e-14))
152.325916    	((-1.552103e-13 -7.351470e-10 -3.259394e-10) (1.299051e-13 -1.880342e-09 -1.610342e-12)) ((5.147409e-13 -1.220633e-15 -2.146473e-15) (-2.296520e-10 1.737511e-14 -2.570209e-14))
182.803099    	((-1.851330e-13 -6.865082e-10 -3.168110e-10) (1.009006e-13 -1.789116e-09 -1.584709e-12)) ((5.130279e-13 -1.193723e-15 -2.127358e-15) (-2.244423e-10 1.852999e-14 -2.663102e-14))
219.375719    	((-1.940993e-13 -6.435868e-10 -3.084078e-10) (8.234683e-14 -1.706838e-09 -1.574622e-12)) ((5.116410e-13 -1.165561e-15 -2.102045e-15) (-2.197820e-10 1.884831e-14 -2.708545e-14))
263.262863    	((-1.492346e-13 -6.053051e-10 -3.013418e-10) (6.978401e-14 -1.632730e-09 -1.623303e-12)) ((5.105427e-13 -1.139543e-15 -2.075371e-15) (-2.156217e-10 1.873348e-14 -2.782890e-14))
315.927436    	((-1.375483e-13 -5.718581e-10 -2.945235e-10) (5.551887e-14 -1.566089e-09 -1.695906e-12)) ((5.096512e-13 -1.111493e-15 -2.057072e-15) (-2.119155e-10 1.825786e-14 -2.808778e-14))
379.124923    	((-1.651584e-13 -5.425866e-10 -2.876044e-10) (3.894214e-14 -1.506373e-09 -1.795126e-12)) ((5.089216e-13 -1.091992e-15 -2.064684e-15) (-2.086265e-10 1.767326e-14 -2.796387e-14))
454.961908    	((-1.691507e-13 -5.175844e-10 -2.823060e-10) (3.442238e-14 -1.453172e-09 -1.926248e-12)) ((5.083787e-13 -1.065710e-15 -2.066944e-15) (-2.057252e-10 1.670802e-14 -2.803426e-14))
545.966289    	((-1.658446e-13 -4.963738e-10 -2.786418e-10) (3.576138e-14 -1.406129e-09 -2.075441e-12)) ((5.079522e-13 -1.051357e-15 -2.067337e-15) (-2.031847e-10 1.572406e-14 -2.838794e-14))
655.171547    	((-1.793083e-13 -4.787078e-10 -2.755471e-10) (3.594733e-14 -1.364911e-09 -2.217818e-12)) ((5.076084e-13 -1.036653e-15 -2.068767e-15) (-2.009789e-10 1.525492e-14 -2.871817e-14))
786.217856    	((-1.626879e-13 -4.640026e-10 -2.731528e-10) (3.159747e-14 -1.329233e-09 -2.352450e-12)) ((5.073073e-13 -1.024476e-15 -2.071240e-15) (-1.990835e-10 1.508164e-14 -2.869984e-14))
943.473427    	((-1.454833e-13 -4.520005e-10 -2.714182e-10) (2.643822e-14 -1.298763e-09 -2.495374e-12)) ((5.070340e-13 -1.023640e-15 -2.073337e-15) (-1.974725e-10 1.469402e-14 -2.828303e-14))
1132.180113   	((-1.192779e-13 -4.422796e-10 -2.700973e-10) (1.958268e-14 -1.273141e-09 -2.650416e-12)) ((5.068073e-13 -1.020394e-15 -2.074786e-15) (-1.961209e-10 1.444440e-14 -2.753694e-14))
1358.628135   	((-1.023096e-13 -4.344899e-10 -2.690783e-10) (1.112962e-14 -1.251932e-09 -2.804867e-12)) ((5.066270e-13 -1.018915e-15 -2.076220e-15) (-1.950023e-10 1.436652e-14 -2.667847e-14))
1630.365763   	((-1.069044e-13 -4.283136e-10 -2.683575e-10) (4.729722e-15 -1.234658e-09 -2.953966e-12)) ((5.064865e-13 -1.017740e-15 -2.078653e-15) (-1.940893e-10 1.440743e-14 -2.590641e-14))
1956.450915   	((-1.138686e-13 -4.234516e-10 -2.677568e-10) (-1.667301e-15 -1.220818e-09 -3.089580e-12)) ((5.063771e-13 -1.016033e-15 -2.081138e-15) (-1.933543e-10 1.454846e-14 -2.512016e-14))
2347.753098   	((-1.116410e-13 -4.196698e-10 -2.673175e-10) (-6.229939e-15 -1.209903e-09 -3.209669e-12)) ((5.062905e-13 -1.015727e-15 -2.082935e-15) (-1.927702e-10 1.466029e-14 -2.441353e-14))
2817.315718   	((-1.066217e-13 -4.167471e-10 -2.669176e-10) (-9.899327e-15 -1.201420e-09 -3.310566e-12)) ((5.062220e-13 -1.015665e-15 -2.084812e-15) (-1.923114e-10 1.479525e-14 -2.382569e-14))
3380.790861   	((-1.052080e-13 -4.145026e-10 -2.666207e-10) (-1.357202e-14 -1.194917e-09 -3.394770e-12)) ((5.061681e-13 -1.014711e-15 -2.087052e-15) (-1.919548e-10 1.492583e-14 -2.337707e-14))
4056.961033   	((-1.038107e-13 -4.127880e-10 -2.663908e-10) (-1.699190e-14 -1.189992e-09 -3.461395e-12)) ((5.061242e-13 -1.013635e-15 -2.089047e-15) (-1.916802e-10 1.506463e-14 -2.303747e-14))
4868.36524    	((-1.039721e-13 -4.114823e-10 -2.662169e-10) (-1.934981e-14 -1.186303e-09 -3.513765e-12)) ((5.060883e-13 -1.012732e-15 -2.090715e-15) (-1.914702e-10 1.515535e-14 -2.277731e-14))
5842.050288   	((-1.055440e-13 -4.104916e-10 -2.660975e-10) (-2.070825e-14 -1.183566e-09 -3.555095e-12)) ((5.060591e-13 -1.012075e-15 -2.092150e-15) (-1.913105e-10 1.520394e-14 -2.258224e-14))
7010.472346   	((-1.073333e-13 -4.097381e-10 -2.660081e-10) (-2.160322e-14 -1.181555e-09 -3.587382e-12)) ((5.060351e-13 -1.011562e-15 -2.093347e-15) (-1.911899e-10 1.523792e-14 -2.243259e-14))
8412.578815   	((-1.077711e-13 -4.091654e-10 -2.659427e-10) (-2.209880e-14 -1.180088e-09 -3.612340e-12)) ((5.060156e-13 -1.011123e-15 -2.094356e-15) (-1.910989e-10 1.525141e-14 -2.231713e-14))
10095.106578  	((-1.087937e-13 -4.087326e-10 -2.658969e-10) (-2.233332e-14 -1.179026e-09 -3.631370e-12)) ((5.059995e-13 -1.010831e-15 -2.095176e-15) (-1.910306e-10 1.525042e-14 -2.222537e-14))
12114.139893  	((-1.105948e-13 -4.084033e-10 -2.658612e-10) (-2.244523e-14 -1.178262e-09 -3.645758e-12)) ((5.059862e-13 -1.010616e-15 -2.095820e-15) (-1.909795e-10 1.524125e-14 -2.215766e-14))
14536.979872  	((-1.120026e-13 -4.081519e-10 -2.658231e-10) (-2.251631e-14 -1.177716e-09 -3.656482e-12)) ((5.059752e-13 -1.010451e-15 -2.096305e-15) (-1.909411e-10 1.523133e-14 -2.210966e-14))
17444.387847  	((-1.128985e-13 -4.079595e-10 -2.658052e-10) (-2.257664e-14 -1.177328e-09 -3.664377e-12)) ((5.059662e-13 -1.010336e-15 -2.096660e-15) (-1.909124e-10 1.522565e-14 -2.207608e-14))
20933.277416  	((-1.134444e-13 -4.078120e-10 -2.657934e-10) (-2.262409e-14 -1.177054e-09 -3.670092e-12)) ((5.059587e-13 -1.010259e-15 -2.096916e-15) (-1.908909e-10 1.522210e-14 -2.205333e-14))
25112.450053  	((-1.141043e-13 -4.076970e-10 -2.657862e-10) (-2.265653e-14 -1.176861e-09 -3.674165e-12)) ((5.059526e-13 -1.010186e-15 -2.097122e-15) (-1.908748e-10 1.522049e-14 -2.203808e-14))
29981.904468  	((-1.139711e-13 -4.076090e-10 -2.657835e-10) (-2.266644e-14 -1.176726e-09 -3.676982e-12)) ((5.059483e-13 -1.010146e-15 -2.097264e-15) (-1.908627e-10 1.521938e-14 -2.202915e-14))
35541.639711  	((-1.135901e-13 -4.075405e-10 -2.657811e-10) (-2.265577e-14 -1.176632e-09 -3.678932e-12)) ((5.059451e-13 -1.010120e-15 -2.097389e-15) (-1.908536e-10 1.521665e-14 -2.202205e-14))
41791.655099  	((-1.130259e-13 -4.074874e-10 -2.657836e-10) (-2.262872e-14 -1.176568e-09 -3.680270e-12)) ((5.059426e-13 -1.010118e-15 -2.097505e-15) (-1.908468e-10 1.521291e-14 -2.201755e-14))
48694.451614  	((-1.127307e-13 -4.074460e-10 -2.657841e-10) (-2.259585e-14 -1.176524e-09 -3.681182e-12)) ((5.059408e-13 -1.010116e-15 -2.097593e-15) (-1.908417e-10 1.520946e-14 -2.201457e-14))
55597.244576  	((-1.138359e-13 -4.074139e-10 -2.657743e-10) (-2.261951e-14 -1.176494e-09 -3.681806e-12)) ((5.059408e-13 -1.010114e-15 -2.097687e-15) (-1.908378e-10 1.520754e-14 -2.201217e-14))
62500.035458  	((-1.149363e-13 -4.073895e-10 -2.657724e-10) (-2.261041e-14 -1.176474e-09 -3.682235e-12)) ((5.059410e-13 -1.010119e-15 -2.097710e-15) (-1.908349e-10 1.520555e-14 -2.201337e-14))
69402.825279  	((-1.158335e-13 -4.073701e-10 -2.657785e-10) (-2.260541e-14 -1.176461e-09 -3.682537e-12)) ((5.059412e-13 -1.010143e-15 -2.097732e-15) (-1.908328e-10 1.520386e-14 -2.201347e-14))
76305.614511  	((-1.165656e-13 -4.073545e-10 -2.657785e-10) (-2.260120e-14 -1.176452e-09 -3.682742e-12)) ((5.059414e-13 -1.010147e-15 -2.097755e-15) (-1.908311e-10 1.520266e-14 -2.201335e-14))
83208.403402  	((-1.172300e-13 -4.073419e-10 -2.657786e-10) (-2.259556e-14 -1.176446e-09 -3.682881e-12)) ((5.059416e-13 -1.010154e-15 -2.097776e-15) (-1.908298e-10 1.520168e-14 -2.201317e-14))
90111.192091  	((-1.156409e-13 -4.073323e-10 -2.657807e-10) (-2.263654e-14 -1.176443e-09 -3.682967e-12)) ((5.059418e-13 -1.010165e-15 -2.097774e-15) (-1.908289e-10 1.520223e-14 -2.201261e-14))
97013.980669  	((-1.169671e-13 -4.073240e-10 -2.657795e-10) (-2.260730e-14 -1.176441e-09 -3.683040e-12)) ((5.059419e-13 -1.010176e-15 -2.097807e-15) (-1.908281e-10 1.520141e-14 -2.201304e-14))
103916.769186 	((-1.160006e-13 -4.073176e-10 -2.657809e-10) (-2.262426e-14 -1.176439e-09 -3.683078e-12)) ((5.059420e-13 -1.010183e-15 -2.097804e-15) (-1.908275e-10 1.520176e-14 -2.201259e-14))
110819.557678 	((-1.173083e-13 -4.073121e-10 -2.657797e-10) (-2.259395e-14 -1.176439e-09 -3.683119e-12)) ((5.059421e-13 -1.010188e-15 -2.097822e-15) (-1.908271e-10 1.520094e-14 -2.201277e-14))
117722.346164 	((-1.163184e-13 -4.073078e-10 -2.657810e-10) (-2.261475e-14 -1.176438e-09 -3.683130e-12)) ((5.059422e-13 -1.010191e-15 -2.097816e-15) (-1.908268e-10 1.520127e-14 -2.201251e-14))
124625.134656 	((-1.171108e-13 -4.073042e-10 -2.657796e-10) (-2.258373e-14 -1.176438e-09 -3.683144e-12)) ((5.059424e-13 -1.010227e-15 -2.097827e-15) (-1.908265e-10 1.520020e-14 -2.201234e-14))
131527.923159 	((-1.160349e-13 -4.073015e-10 -2.657807e-10) (-2.259442e-14 -1.176439e-09 -3.683130e-12)) ((5.059424e-13 -1.010210e-15 -2.097812e-15) (-1.908263e-10 1.520072e-14 -2.201148e-14))
138430.711678 	((-1.168730e-13 -4.072991e-10 -2.657794e-10) (-2.256099e-14 -1.176439e-09 -3.683134e-12)) ((5.059425e-13 -1.010240e-15 -2.097825e-15) (-1.908261e-10 1.519968e-14 -2.201224e-14))
145333.500212 	((-1.153447e-13 -4.072975e-10 -2.657801e-10) (-2.257369e-14 -1.176439e-09 -3.683114e-12)) ((5.059425e-13 -1.010252e-15 -2.097807e-15) (-1.908260e-10 1.519998e-14 -2.201173e-14))
152236.288761 	((-1.161511e-13 -4.072960e-10 -2.657808e-10) (-2.253484e-14 -1.176439e-09 -3.683106e-12)) ((5.059426e-13 -1.010269e-15 -2.097821e-15) (-1.908259e-10 1.519912e-14 -2.201231e-14))
159139.077324 	((-1.147505e-13 -4.072949e-10 -2.657796e-10) (-2.254833e-14 -1.176439e-09 -3.683086e-12)) ((5.059426e-13 -1.010269e-15 -2.097807e-15) (-1.908259e-10 1.519955e-14 -2.201219e-14))
166041.8659   	((-1.156852e-13 -4.072939e-10 -2.657805e-10) (-2.251373e-14 -1.176439e-09 -3.683082e-12)) ((5.059426e-13 -1.010283e-15 -2.097822e-15) (-1.908258e-10 1.519878e-14 -2.201275e-14))
172944.654485 	((-1.143866e-13 -4.072932e-10 -2.657792e-10) (-2.253138e-14 -1.176440e-09 -3.683066e-12)) ((5.059427e-13 -1.010280e-15 -2.097808e-15) (-1.908257e-10 1.519926e-14 -2.201250e-14))
179847.443081 	((-1.154009e-13 -4.072925e-10 -2.657803e-10) (-2.250045e-14 -1.176440e-09 -3.683066e-12)) ((5.059427e-13 -1.010293e-15 -2.097823e-15) (-1.908257e-10 1.519855e-14 -2.201295e-14))
186750.231683 	((-1.141639e-13 -4.072920e-10 -2.657790e-10) (-2.252093e-14 -1.176440e-09 -3.683052e-12)) ((5.059427e-13 -1.010289e-15 -2.097810e-15) (-1.908257e-10 1.519908e-14 -2.201261e-14))
193653.020293 	((-1.151526e-13 -4.072915e-10 -2.657802e-10) (-2.249470e-14 -1.176440e-09 -3.683055e-12)) ((5.059427e-13 -1.010300e-15 -2.097825e-15) (-1.908257e-10 1.519848e-14 -2.201299e-14))
200555.808907 	((-1.148372e-13 -4.072907e-10 -2.657782e-10) (-2.247133e-14 -1.176440e-09 -3.683059e-12)) ((5.059427e-13 -1.010241e-15 -2.097841e-15) (-1.908256e-10 1.519778e-14 -2.201323e-14))
207458.597526 	((-1.156904e-13 -4.072903e-10 -2.657791e-10) (-2.247477e-14 -1.176440e-09 -3.683080e-12)) ((5.059427e-13 -1.010269e-15 -2.097839e-15) (-1.908256e-10 1.519722e-14 -2.201253e-14))
214361.386149 	((-1.154163e-13 -4.072897e-10 -2.657789e-10) (-2.246880e-14 -1.176440e-09 -3.683086e-12)) ((5.059427e-13 -1.010227e-15 -2.097850e-15) (-1.908256e-10 1.519685e-14 -2.201262e-14))
221264.174774 	((-1.162054e-13 -4.072893e-10 -2.657797e-10) (-2.247936e-14 -1.176440e-09 -3.683101e-12)) ((5.059428e-13 -1.010259e-15 -2.097845e-15) (-1.908256e-10 1.519659e-14 -2.201199e-14))
228166.963402 	((-1.158401e-13 -4.072889e-10 -2.657794e-10) (-2.247508e-14 -1.176440e-09 -3.683103e-12)) ((5.059427e-13 -1.010219e-15 -2.097853e-15) (-1.908256e-10 1.519642e-14 -2.201211e-14))
235069.752031 	((-1.165468e-13 -4.072887e-10 -2.657802e-10) (-2.248617e-14 -1.176440e-09 -3.683115e-12)) ((5.059428e-13 -1.010253e-15 -2.097848e-15) (-1.908256e-10 1.519632e-14 -2.201159e-14))
241972.540663 	((-1.161024e-13 -4.072884e-10 -2.657798e-10) (-2.248117e-14 -1.176440e-09 -3.683115e-12)) ((5.059428e-13 -1.010214e-15 -2.097856e-15) (-1.908256e-10 1.519621e-14 -2.201177e-14))
248875.329295 	((-1.167735e-13 -4.072883e-10 -2.657804e-10) (-2.249113e-14 -1.176440e-09 -3.683126e-12)) ((5.059428e-13 -1.010248e-15 -2.097849e-15) (-1.908256e-10 1.519611e-14 -2.201134e-14))
255778.117929 	((-1.162813e-13 -4.072880e-10 -2.657802e-10) (-2.248540e-14 -1.176440e-09 -3.683124e-12)) ((5.059428e-13 -1.010210e-15 -2.097857e-15) (-1.908256e-10 1.519607e-14 -2.201155e-14))
262680.906563 	((-1.168947e-13 -4.072880e-10 -2.657827e-10) (-2.249420e-14 -1.176440e-09 -3.683134e-12)) ((5.059428e-13 -1.010251e-15 -2.097851e-15) (-1.908256e-10 1.519598e-14 -2.201116e-14))
269583.695198 	((-1.163921e-13 -4.072878e-10 -2.657804e-10) (-2.248781e-14 -1.176440e-09 -3.683132e-12)) ((5.059428e-13 -1.010207e-15 -2.097858e-15) (-1.908256e-10 1.519596e-14 -2.201140e-14))
276486.483833 	((-1.170154e-13 -4.072878e-10 -2.657810e-10) (-2.249692e-14 -1.176440e-09 -3.683141e-12)) ((5.059428e-13 -1.010243e-15 -2.097851e-15) (-1.908256e-10 1.519593e-14 -2.201102e-14))
283389.272469 	((-1.164805e-13 -4.072876e-10 -2.657807e-10) (-2.249022e-14 -1.176440e-09 -3.683138e-12)) ((5.059428e-13 -1.010206e-15 -2.097859e-15) (-1.908256e-10 1.519593e-14 -2.201129e-14))
290292.061104 	((-1.170938e-13 -4.072876e-10 -2.657812e-10) (-2.249798e-14 -1.176440e-09 -3.683147e-12)) ((5.059428e-13 -1.010242e-15 -2.097852e-15) (-1.908256e-10 1.519588e-14 -2.201093e-14))
297194.849741 	((-1.165519e-13 -4.072875e-10 -2.657810e-10) (-2.249103e-14 -1.176440e-09 -3.683144e-12)) ((5.059428e-13 -1.010205e-15 -2.097859e-15) (-1.908256e-10 1.519589e-14 -2.201120e-14))
304097.638377 	((-1.171402e-13 -4.072875e-10 -2.657814e-10) (-2.249971e-14 -1.176440e-09 -3.683152e-12)) ((5.059428e-13 -1.010240e-15 -2.097852e-15) (-1.908256e-10 1.519588e-14 -2.201084e-14))
