# Forces      
# CofR        : (0.000000e+00 0.000000e+00 0.000000e+00)
# Time        forces(pressure viscous)	moments(pressure viscous)
0             	((0.000000e+00 0.000000e+00 0.000000e+00) (-3.116106e-14 7.913142e-05 6.694741e-15)) ((0.000000e+00 0.000000e+00 0.000000e+00) (1.778000e-06 -2.593785e-16 -3.850569e-11))
0.012         	((-2.388811e-08 2.301550e-02 5.736506e-03) (-1.487937e-10 9.077223e-05 -6.033070e-08)) ((-2.713764e-07 1.957350e-08 -4.333855e-09) (2.620633e-06 -1.144859e-13 -7.845789e-11))
0.0264        	((-3.586992e-07 -1.661314e-03 -3.910725e-04) (-4.955398e-10 9.253981e-05 -9.128885e-08)) ((1.974597e-08 -1.253930e-09 2.774732e-10) (2.932512e-06 5.544614e-12 -1.020037e-10))
0.04368       	((5.151238e-07 -4.778907e-03 -5.384408e-04) (-1.639534e-10 8.217137e-05 -8.585513e-08)) ((6.227535e-08 -1.801237e-09 1.178245e-09) (2.612215e-06 -1.028705e-11 -8.573980e-11))
0.064416      	((-1.054847e-07 -4.487136e-05 -2.009780e-04) (1.680363e-09 7.275693e-05 -4.569239e-08)) ((-2.678436e-10 -6.306681e-10 -7.092853e-11) (2.346256e-06 -1.809049e-11 -9.830010e-11))
0.0892992     	((-9.668448e-09 5.708911e-05 -1.232682e-04) (1.959315e-09 6.715432e-05 -4.038437e-08)) ((-2.405636e-09 -3.832914e-10 -6.829749e-11) (2.218295e-06 -1.695331e-12 -9.889867e-11))
0.119159      	((2.961748e-08 -7.424213e-05 -8.062902e-05) (1.091298e-09 6.200383e-05 -6.946375e-08)) ((1.351802e-09 -2.294495e-10 2.739484e-11) (2.076557e-06 7.252290e-12 -7.544899e-11))
0.154991      	((-1.731286e-08 -3.877829e-05 -5.432690e-05) (9.410468e-10 5.656944e-05 -8.522704e-08)) ((8.344205e-10 -1.369998e-10 -2.362012e-12) (1.919506e-06 4.512064e-12 -5.768241e-11))
0.197989      	((2.866782e-08 -9.252733e-06 -3.723865e-05) (6.757254e-10 5.111934e-05 -1.041526e-07)) ((3.180818e-10 -7.532292e-11 -4.648054e-12) (1.760231e-06 -7.468690e-12 -5.038482e-11))
0.249587      	((1.040016e-08 1.406042e-06 -2.670449e-05) (7.758088e-11 4.581534e-05 -1.296991e-07)) ((1.186191e-10 -4.126549e-11 -2.675935e-12) (1.601931e-06 -1.548587e-11 -3.134905e-11))
0.311504      	((-8.906434e-09 6.171523e-06 -2.011277e-05) (-4.859383e-10 4.081897e-05 -1.592519e-07)) ((4.579442e-11 -2.031366e-11 -2.450977e-12) (1.447946e-06 -1.676280e-11 -1.644075e-12))
0.385805      	((-4.484022e-09 8.649373e-06 -1.593567e-05) (-6.361317e-10 3.625917e-05 -1.902435e-07)) ((1.842833e-11 -7.572543e-12 -2.293245e-12) (1.302130e-06 -1.822249e-11 2.253114e-11))
0.474966      	((-3.325185e-09 9.976565e-06 -1.326660e-05) (-3.080982e-10 3.220360e-05 -2.211746e-07)) ((-2.443693e-12 -2.073125e-13 -1.910655e-12) (1.167917e-06 -1.597551e-11 3.819711e-11))
0.581959      	((-8.364407e-10 1.053157e-05 -1.160753e-05) (1.658017e-10 2.863913e-05 -2.521815e-07)) ((-1.874430e-11 4.591244e-12 -1.512856e-12) (1.046320e-06 -9.682850e-12 4.295857e-11))
0.710351      	((-1.051168e-09 1.051780e-05 -1.059844e-05) (4.360544e-10 2.553134e-05 -2.794096e-07)) ((-2.957329e-11 7.554893e-12 -1.449831e-12) (9.376438e-07 -1.085329e-12 4.241037e-11))
0.864421      	((-4.316835e-10 1.014287e-05 -1.000144e-05) (5.260981e-10 2.283960e-05 -3.017047e-07)) ((-3.518281e-11 9.285104e-12 -1.810446e-12) (8.417955e-07 7.302525e-12 2.888547e-11))
1.049306      	((-8.100694e-10 9.587074e-06 -9.654296e-06) (5.181688e-10 2.051177e-05 -3.220524e-07)) ((-3.686327e-11 1.006355e-11 -1.855477e-12) (7.576751e-07 1.264905e-11 1.384029e-11))
1.271167      	((-5.872453e-10 8.948721e-06 -9.463953e-06) (4.747605e-10 1.849235e-05 -3.442094e-07)) ((-3.639154e-11 1.042546e-11 -1.552401e-12) (6.837736e-07 1.302203e-11 6.573151e-12))
1.5374        	((-5.915525e-10 8.278375e-06 -9.377443e-06) (4.591577e-10 1.672568e-05 -3.699941e-07)) ((-3.402222e-11 1.032391e-11 -1.408865e-12) (6.186457e-07 1.026953e-11 1.446241e-12))
1.85688       	((-7.971328e-11 7.621043e-06 -9.348879e-06) (4.240872e-10 1.516620e-05 -3.995939e-07)) ((-3.135812e-11 1.003632e-11 -1.348281e-12) (5.610026e-07 7.414672e-12 -5.221019e-12))
2.240256      	((-3.711554e-11 7.004569e-06 -9.350328e-06) (3.573011e-10 1.378157e-05 -4.325800e-07)) ((-2.943797e-11 9.624332e-12 -1.398751e-12) (5.097857e-07 5.020689e-12 -1.219471e-11))
2.700307      	((-7.821154e-11 6.437286e-06 -9.365382e-06) (2.548342e-10 1.254814e-05 -4.682055e-07)) ((-2.784708e-11 9.163384e-12 -1.494285e-12) (4.641506e-07 2.898403e-12 -1.668023e-11))
3.252369      	((-3.234848e-10 5.916746e-06 -9.379674e-06) (1.435006e-10 1.144622e-05 -5.063196e-07)) ((-2.664472e-11 8.533330e-12 -1.544363e-12) (4.233705e-07 3.406152e-12 -1.807279e-11))
3.914842      	((-6.545981e-10 5.443415e-06 -9.393342e-06) (1.109762e-10 1.045971e-05 -5.471481e-07)) ((-2.568171e-11 7.959363e-12 -1.440038e-12) (3.868496e-07 5.616846e-12 -1.798130e-11))
4.709811      	((-9.543288e-10 5.020451e-06 -9.400398e-06) (9.503613e-11 9.576861e-06 -5.904308e-07)) ((-2.522269e-11 7.383991e-12 -1.239862e-12) (3.541551e-07 7.515331e-12 -1.219464e-11))
5.663773      	((-1.562832e-09 4.649910e-06 -9.400933e-06) (6.520109e-11 8.789047e-06 -6.359762e-07)) ((-2.534937e-11 6.914748e-12 -1.134123e-12) (3.249671e-07 9.219498e-12 -3.298003e-12))
6.808528      	((-1.608481e-09 4.328538e-06 -9.387374e-06) (6.767227e-11 8.088086e-06 -6.836494e-07)) ((-2.597344e-11 6.467480e-12 -1.108614e-12) (2.989861e-07 9.474093e-12 5.430836e-12))
8.182233      	((-2.084194e-09 4.055233e-06 -9.359112e-06) (6.009941e-11 7.465211e-06 -7.333314e-07)) ((-2.701619e-11 5.987415e-12 -1.156093e-12) (2.758917e-07 1.029174e-11 1.453809e-11))
9.83068       	((-2.017829e-09 3.832307e-06 -9.316410e-06) (-1.166759e-11 6.911562e-06 -7.851092e-07)) ((-2.846577e-11 5.515138e-12 -1.245672e-12) (2.553558e-07 1.254671e-11 2.081316e-11))
11.808816     	((-2.224429e-09 3.658253e-06 -9.261820e-06) (-9.154332e-11 6.419092e-06 -8.388445e-07)) ((-3.039565e-11 5.054972e-12 -1.369640e-12) (2.370814e-07 1.619420e-11 2.302121e-11))
14.182579     	((-1.847957e-09 3.531414e-06 -9.193307e-06) (-1.190540e-10 5.981174e-06 -8.940527e-07)) ((-3.284616e-11 4.721293e-12 -1.523824e-12) (2.208240e-07 1.798123e-11 2.511782e-11))
17.031095     	((-1.238283e-09 3.453119e-06 -9.112952e-06) (-1.429130e-10 5.592958e-06 -9.499584e-07)) ((-3.593223e-11 4.430469e-12 -1.713137e-12) (2.064077e-07 1.656707e-11 2.772681e-11))
20.449314     	((-1.038603e-09 3.420530e-06 -9.019833e-06) (-1.834775e-10 5.250924e-06 -1.005426e-06)) ((-3.959959e-11 4.057851e-12 -1.961482e-12) (1.937118e-07 1.617738e-11 3.151752e-11))
24.551176     	((-9.072841e-10 3.430727e-06 -8.915440e-06) (-1.914241e-10 4.952533e-06 -1.059149e-06)) ((-4.383124e-11 3.625113e-12 -2.276879e-12) (1.826534e-07 1.490741e-11 3.797611e-11))
29.473411     	((4.557790e-11 3.479361e-06 -8.800789e-06) (-1.497255e-10 4.694943e-06 -1.109944e-06)) ((-4.865102e-11 3.157523e-12 -2.646754e-12) (1.731547e-07 1.167606e-11 4.486694e-11))
35.380094     	((1.100854e-09 3.562548e-06 -8.676054e-06) (-6.723442e-11 4.476503e-06 -1.157199e-06)) ((-5.413425e-11 2.684363e-12 -3.078054e-12) (1.651615e-07 6.020406e-12 5.106794e-11))
42.468112     	((2.041369e-09 3.674615e-06 -8.545621e-06) (4.864971e-11 4.294932e-06 -1.200445e-06)) ((-6.004151e-11 2.250686e-12 -3.562805e-12) (1.586254e-07 -1.576429e-12 5.631176e-11))
50.973735     	((3.045999e-09 3.803138e-06 -8.408089e-06) (2.129360e-10 4.147791e-06 -1.239353e-06)) ((-6.594100e-11 1.947568e-12 -4.075636e-12) (1.534470e-07 -1.011138e-11 6.343990e-11))
60.957146     	((4.386726e-09 3.937702e-06 -8.262734e-06) (4.094649e-10 4.032833e-06 -1.272040e-06)) ((-7.122324e-11 1.800846e-12 -4.523357e-12) (1.494947e-07 -2.016244e-11 6.975836e-11))
72.406591     	((5.730788e-09 4.061072e-06 -8.105592e-06) (6.730666e-10 3.944445e-06 -1.296414e-06)) ((-7.537601e-11 1.716394e-12 -4.919146e-12) (1.464860e-07 -3.150387e-11 7.357102e-11))
85.312673     	((6.926933e-09 4.159828e-06 -7.935398e-06) (9.203046e-10 3.874705e-06 -1.311348e-06)) ((-7.850266e-11 1.678413e-12 -5.204709e-12) (1.441000e-07 -4.305788e-11 7.432166e-11))
99.672613     	((7.880044e-09 4.228738e-06 -7.752769e-06) (1.168200e-09 3.817032e-06 -1.318347e-06)) ((-8.092566e-11 1.631317e-12 -5.418999e-12) (1.421088e-07 -5.486174e-11 7.338210e-11))
114.251199    	((8.616317e-09 4.279138e-06 -7.578219e-06) (1.391325e-09 3.769304e-06 -1.319930e-06)) ((-8.282451e-11 1.569323e-12 -5.620497e-12) (1.404827e-07 -6.560114e-11 7.364636e-11))
128.881187    	((9.189707e-09 4.307162e-06 -7.414302e-06) (1.628433e-09 3.728259e-06 -1.319380e-06)) ((-8.422858e-11 1.602871e-12 -5.800972e-12) (1.391105e-07 -7.489459e-11 7.280996e-11))
143.537576    	((9.469389e-09 4.321219e-06 -7.263319e-06) (1.835722e-09 3.692831e-06 -1.318152e-06)) ((-8.520238e-11 1.730144e-12 -5.943929e-12) (1.379447e-07 -8.305775e-11 7.145856e-11))
158.200556    	((9.736178e-09 4.325728e-06 -7.123379e-06) (2.026726e-09 3.661990e-06 -1.316849e-06)) ((-8.582275e-11 1.919633e-12 -6.047376e-12) (1.369402e-07 -9.117693e-11 6.998020e-11))
172.867418    	((9.706907e-09 4.325361e-06 -6.994541e-06) (2.175604e-09 3.635029e-06 -1.315672e-06)) ((-8.621516e-11 2.118458e-12 -6.131078e-12) (1.360669e-07 -9.741929e-11 6.855252e-11))
187.541485    	((9.575514e-09 4.320272e-06 -6.874511e-06) (2.284734e-09 3.611288e-06 -1.314703e-06)) ((-8.644008e-11 2.314906e-12 -6.203595e-12) (1.353005e-07 -1.016632e-10 6.669948e-11))
202.223621    	((9.389080e-09 4.312660e-06 -6.764021e-06) (2.370795e-09 3.590262e-06 -1.314028e-06)) ((-8.652893e-11 2.504730e-12 -6.263602e-12) (1.346226e-07 -1.042548e-10 6.477511e-11))
216.912641    	((9.221835e-09 4.303828e-06 -6.661488e-06) (2.438951e-09 3.571531e-06 -1.313710e-06)) ((-8.653421e-11 2.694922e-12 -6.313980e-12) (1.340164e-07 -1.060050e-10 6.268574e-11))
231.607522    	((9.002106e-09 4.295614e-06 -6.566822e-06) (2.489533e-09 3.554837e-06 -1.313673e-06)) ((-8.651740e-11 2.878049e-12 -6.356365e-12) (1.334736e-07 -1.070450e-10 5.970131e-11))
246.307733    	((8.728980e-09 4.288095e-06 -6.478696e-06) (2.512660e-09 3.540009e-06 -1.313797e-06)) ((-8.649273e-11 3.052074e-12 -6.391087e-12) (1.329905e-07 -1.069858e-10 5.632225e-11))
261.012796    	((8.458856e-09 4.280991e-06 -6.396010e-06) (2.521995e-09 3.526815e-06 -1.314007e-06)) ((-8.646926e-11 3.220176e-12 -6.418118e-12) (1.325608e-07 -1.062600e-10 5.300806e-11))
275.722215    	((8.103493e-09 4.274659e-06 -6.318942e-06) (2.519190e-09 3.515060e-06 -1.314238e-06)) ((-8.645160e-11 3.374911e-12 -6.441335e-12) (1.321794e-07 -1.046610e-10 4.995258e-11))
290.435584    	((7.787489e-09 4.268759e-06 -6.247254e-06) (2.498179e-09 3.504587e-06 -1.314476e-06)) ((-8.643047e-11 3.523620e-12 -6.462062e-12) (1.318409e-07 -1.023888e-10 4.740226e-11))
305.152553    	((7.469919e-09 4.263210e-06 -6.180495e-06) (2.468045e-09 3.495232e-06 -1.314704e-06)) ((-8.640893e-11 3.666252e-12 -6.480045e-12) (1.315398e-07 -9.970097e-11 4.502020e-11))
319.87279     	((7.247547e-09 4.258232e-06 -6.118590e-06) (2.436208e-09 3.486870e-06 -1.314921e-06)) ((-8.638945e-11 3.804753e-12 -6.495370e-12) (1.312716e-07 -9.715889e-11 4.265145e-11))
334.595993    	((6.931038e-09 4.253576e-06 -6.060844e-06) (2.398766e-09 3.479388e-06 -1.315135e-06)) ((-8.637013e-11 3.933566e-12 -6.508347e-12) (1.310322e-07 -9.449625e-11 4.030650e-11))
349.321895    	((6.650169e-09 4.249151e-06 -6.006840e-06) (2.357074e-09 3.472670e-06 -1.315344e-06)) ((-8.635159e-11 4.056071e-12 -6.520409e-12) (1.308176e-07 -9.160803e-11 3.814595e-11))
364.050253    	((6.383399e-09 4.245064e-06 -5.956632e-06) (2.312913e-09 3.466631e-06 -1.315541e-06)) ((-8.633443e-11 4.172668e-12 -6.531098e-12) (1.306251e-07 -8.866819e-11 3.635796e-11))
378.780839    	((6.105613e-09 4.241247e-06 -5.909855e-06) (2.263826e-09 3.461197e-06 -1.315728e-06)) ((-8.631921e-11 4.282345e-12 -6.540623e-12) (1.304521e-07 -8.564539e-11 3.483727e-11))
393.513447    	((5.862180e-09 4.237667e-06 -5.866283e-06) (2.213737e-09 3.456296e-06 -1.315903e-06)) ((-8.630539e-11 4.385522e-12 -6.549229e-12) (1.302964e-07 -8.269712e-11 3.345150e-11))
408.2479      	((5.614342e-09 4.234330e-06 -5.825714e-06) (2.164631e-09 3.451867e-06 -1.316057e-06)) ((-8.629311e-11 4.482147e-12 -6.556855e-12) (1.301562e-07 -7.984429e-11 3.213560e-11))
422.984037    	((5.377191e-09 4.231259e-06 -5.787923e-06) (2.115987e-09 3.447861e-06 -1.316192e-06)) ((-8.628197e-11 4.574092e-12 -6.563710e-12) (1.300299e-07 -7.715020e-11 3.095675e-11))
437.721715    	((5.109810e-09 4.228413e-06 -5.752767e-06) (2.064715e-09 3.444232e-06 -1.316310e-06)) ((-8.627285e-11 4.659069e-12 -6.570058e-12) (1.299158e-07 -7.441427e-11 2.988204e-11))
452.460805    	((4.870051e-09 4.225847e-06 -5.720227e-06) (2.014127e-09 3.440947e-06 -1.316410e-06)) ((-8.626597e-11 4.738483e-12 -6.576111e-12) (1.298130e-07 -7.173081e-11 2.885313e-11))
467.201191    	((4.598620e-09 4.223468e-06 -5.689986e-06) (1.963376e-09 3.437968e-06 -1.316495e-06)) ((-8.626016e-11 4.811746e-12 -6.581710e-12) (1.297201e-07 -6.900825e-11 2.777923e-11))
481.942766    	((4.351840e-09 4.221228e-06 -5.661843e-06) (1.913461e-09 3.435261e-06 -1.316568e-06)) ((-8.625391e-11 4.880351e-12 -6.586736e-12) (1.296360e-07 -6.633343e-11 2.667485e-11))
496.68543     	((4.067163e-09 4.219123e-06 -5.635674e-06) (1.862017e-09 3.432796e-06 -1.316632e-06)) ((-8.624829e-11 4.943185e-12 -6.591297e-12) (1.295596e-07 -6.359225e-11 2.559892e-11))
511.429094    	((3.783863e-09 4.217201e-06 -5.611432e-06) (1.808003e-09 3.430552e-06 -1.316686e-06)) ((-8.624347e-11 5.001229e-12 -6.595612e-12) (1.294902e-07 -6.073886e-11 2.455751e-11))
526.173673    	((3.519299e-09 4.215428e-06 -5.588910e-06) (1.754597e-09 3.428509e-06 -1.316731e-06)) ((-8.623898e-11 5.055700e-12 -6.599536e-12) (1.294272e-07 -5.795760e-11 2.349139e-11))
540.919095    	((3.255252e-09 4.213786e-06 -5.568019e-06) (1.701896e-09 3.426648e-06 -1.316768e-06)) ((-8.623497e-11 5.106150e-12 -6.603070e-12) (1.293699e-07 -5.525203e-11 2.240274e-11))
555.665291    	((3.011126e-09 4.212265e-06 -5.548610e-06) (1.650935e-09 3.424951e-06 -1.316795e-06)) ((-8.623154e-11 5.153400e-12 -6.606362e-12) (1.293177e-07 -5.266326e-11 2.131529e-11))
570.4122      	((2.761529e-09 4.210866e-06 -5.530622e-06) (1.601142e-09 3.423401e-06 -1.316814e-06)) ((-8.622913e-11 5.197079e-12 -6.609355e-12) (1.292702e-07 -5.015439e-11 2.022439e-11))
585.159767    	((2.531339e-09 4.209574e-06 -5.513926e-06) (1.553293e-09 3.421987e-06 -1.316823e-06)) ((-8.622758e-11 5.237790e-12 -6.612065e-12) (1.292270e-07 -4.774328e-11 1.914164e-11))
599.907937    	((2.290421e-09 4.208355e-06 -5.498419e-06) (1.506068e-09 3.420693e-06 -1.316822e-06)) ((-8.622659e-11 5.275321e-12 -6.614481e-12) (1.291878e-07 -4.536868e-11 1.808569e-11))
614.656665    	((2.061270e-09 4.207225e-06 -5.484035e-06) (1.459486e-09 3.419507e-06 -1.316813e-06)) ((-8.622631e-11 5.310080e-12 -6.616667e-12) (1.291520e-07 -4.303171e-11 1.707106e-11))
629.405907    	((1.834831e-09 4.206182e-06 -5.470690e-06) (1.413731e-09 3.418421e-06 -1.316797e-06)) ((-8.622657e-11 5.342232e-12 -6.618708e-12) (1.291194e-07 -4.074177e-11 1.610671e-11))
644.155624    	((1.612727e-09 4.205222e-06 -5.458325e-06) (1.368488e-09 3.417426e-06 -1.316775e-06)) ((-8.622735e-11 5.371873e-12 -6.620593e-12) (1.290897e-07 -3.848541e-11 1.518655e-11))
658.90578     	((1.397728e-09 4.204340e-06 -5.446889e-06) (1.324037e-09 3.416514e-06 -1.316749e-06)) ((-8.622860e-11 5.399236e-12 -6.622306e-12) (1.290627e-07 -3.627639e-11 1.430502e-11))
673.656341    	((1.188487e-09 4.203529e-06 -5.436280e-06) (1.280546e-09 3.415679e-06 -1.316718e-06)) ((-8.623008e-11 5.424484e-12 -6.623863e-12) (1.290380e-07 -3.412309e-11 1.345804e-11))
688.407279    	((9.865537e-10 4.202778e-06 -5.426458e-06) (1.238273e-09 3.414913e-06 -1.316685e-06)) ((-8.623188e-11 5.447784e-12 -6.625256e-12) (1.290155e-07 -3.203580e-11 1.263789e-11))
703.158563    	((7.866508e-10 4.202084e-06 -5.417358e-06) (1.196998e-09 3.414210e-06 -1.316651e-06)) ((-8.623373e-11 5.469224e-12 -6.626533e-12) (1.289949e-07 -2.999862e-11 1.183996e-11))
717.910166    	((5.967900e-10 4.201440e-06 -5.408933e-06) (1.156874e-09 3.413565e-06 -1.316615e-06)) ((-8.623580e-11 5.489058e-12 -6.627698e-12) (1.289760e-07 -2.802598e-11 1.107207e-11))
732.662063    	((4.094397e-10 4.200849e-06 -5.401136e-06) (1.117839e-09 3.412972e-06 -1.316579e-06)) ((-8.623804e-11 5.507263e-12 -6.628801e-12) (1.289588e-07 -2.611091e-11 1.033208e-11))
747.41423     	((2.258813e-10 4.200300e-06 -5.393925e-06) (1.079561e-09 3.412427e-06 -1.316542e-06)) ((-8.624028e-11 5.523923e-12 -6.629835e-12) (1.289431e-07 -2.424188e-11 9.618402e-12))
762.166648    	((4.303967e-11 4.199794e-06 -5.387247e-06) (1.041832e-09 3.411927e-06 -1.316506e-06)) ((-8.624257e-11 5.539190e-12 -6.630821e-12) (1.289287e-07 -2.240426e-11 8.933347e-12))
776.9193      	((-1.399599e-10 4.199323e-06 -5.381060e-06) (1.004364e-09 3.411466e-06 -1.316470e-06)) ((-8.624479e-11 5.553144e-12 -6.631733e-12) (1.289154e-07 -2.058378e-11 8.276253e-12))
791.672168    	((-3.211885e-10 4.198890e-06 -5.375314e-06) (9.671575e-10 3.411043e-06 -1.316435e-06)) ((-8.624698e-11 5.565910e-12 -6.632567e-12) (1.289033e-07 -1.877804e-11 7.645524e-12))
806.425238    	((-5.030208e-10 4.198490e-06 -5.370025e-06) (9.300867e-10 3.410654e-06 -1.316402e-06)) ((-8.624912e-11 5.577430e-12 -6.633332e-12) (1.288922e-07 -1.698196e-11 7.035767e-12))
821.178495    	((-6.837399e-10 4.198118e-06 -5.365118e-06) (8.931776e-10 3.410295e-06 -1.316369e-06)) ((-8.625114e-11 5.587942e-12 -6.634052e-12) (1.288819e-07 -1.519655e-11 6.442301e-12))
835.931926    	((-8.650629e-10 4.197773e-06 -5.360587e-06) (8.564336e-10 3.409965e-06 -1.316339e-06)) ((-8.625307e-11 5.597441e-12 -6.634720e-12) (1.288725e-07 -1.342091e-11 5.858619e-12))
850.685521    	((-1.048848e-09 4.197453e-06 -5.356386e-06) (8.196967e-10 3.409661e-06 -1.316310e-06)) ((-8.625493e-11 5.606018e-12 -6.635342e-12) (1.288639e-07 -1.164602e-11 5.278906e-12))
865.439267    	((-1.232704e-09 4.197160e-06 -5.352505e-06) (7.829976e-10 3.409381e-06 -1.316283e-06)) ((-8.625678e-11 5.613739e-12 -6.635915e-12) (1.288559e-07 -9.871973e-12 4.699433e-12))
880.193156    	((-1.418259e-09 4.196887e-06 -5.348914e-06) (7.462880e-10 3.409123e-06 -1.316258e-06)) ((-8.625850e-11 5.620644e-12 -6.636460e-12) (1.288486e-07 -8.097147e-12 4.117820e-12))
894.947179    	((-1.603863e-09 4.196635e-06 -5.345592e-06) (7.096153e-10 3.408886e-06 -1.316234e-06)) ((-8.626015e-11 5.626831e-12 -6.636967e-12) (1.288419e-07 -6.322594e-12 3.531804e-12))
909.701327    	((-1.790728e-09 4.196402e-06 -5.342529e-06) (6.728903e-10 3.408666e-06 -1.316211e-06)) ((-8.626170e-11 5.632322e-12 -6.637440e-12) (1.288356e-07 -4.547954e-12 2.942835e-12))
