# Forces      
# CofR        : (0.000000e+00 0.000000e+00 0.000000e+00)
# Time        forces(pressure viscous)	moments(pressure viscous)
0             	((0.000000e+00 0.000000e+00 0.000000e+00) (0.000000e+00 0.000000e+00 0.000000e+00)) ((0.000000e+00 0.000000e+00 0.000000e+00) (0.000000e+00 0.000000e+00 0.000000e+00))
0.012         	((5.507167e-08 -1.149996e-04 -1.873298e-05) (-1.647779e-10 -2.639267e-04 -3.352694e-08)) ((-1.754631e-08 -7.094872e-11 1.634381e-10) (-1.756380e-05 -7.479947e-12 -2.809283e-11))
0.0264        	((1.404212e-07 -1.545568e-04 -3.988074e-05) (-2.715148e-10 -2.418402e-04 -1.091939e-07)) ((6.610377e-09 -1.629833e-10 8.761413e-11) (-1.611252e-05 -1.411900e-11 -1.798357e-11))
0.04368       	((5.614911e-09 -1.044721e-04 -2.225561e-05) (-7.023640e-10 -2.193377e-04 -2.586600e-07)) ((4.145379e-09 -1.345533e-10 1.006481e-10) (-1.464081e-05 2.156934e-11 -6.363095e-11))
0.064416      	((1.206772e-07 -1.182894e-04 -2.919780e-05) (-1.465819e-09 -1.971496e-04 -4.827770e-07)) ((9.431582e-09 -1.911660e-10 7.804667e-11) (-1.319803e-05 -1.361588e-12 -1.110339e-10))
0.0892992     	((5.184077e-08 -8.764051e-05 -2.079926e-05) (-1.768710e-09 -1.761091e-04 -7.683182e-07)) ((6.162139e-09 -1.908907e-10 5.229687e-11) (-1.183953e-05 -4.253490e-11 -1.068563e-10))
0.119159      	((1.037870e-07 -9.010574e-05 -2.328275e-05) (-2.706253e-09 -1.569826e-04 -1.088145e-06)) ((7.965149e-09 -2.071723e-10 3.675197e-11) (-1.061365e-05 -1.460704e-10 -1.149124e-10))
0.154991      	((8.362696e-08 -7.051054e-05 -1.845044e-05) (-3.168245e-09 -1.402237e-04 -1.450644e-06)) ((5.691370e-09 -2.251928e-10 3.182041e-11) (-9.541221e-06 -2.559808e-10 -1.603009e-10))
0.197989      	((9.016593e-08 -6.970161e-05 -1.991961e-05) (-3.412562e-09 -1.257703e-04 -1.874705e-06)) ((6.847316e-09 -2.291442e-10 6.023476e-11) (-8.614556e-06 -3.839190e-10 -1.820171e-10))
0.249587      	((8.901568e-08 -5.786238e-05 -1.770506e-05) (-4.570889e-09 -1.131246e-04 -2.397880e-06)) ((5.509792e-09 -2.538128e-10 6.695742e-11) (-7.793430e-06 -5.432726e-10 -1.828684e-10))
0.311504      	((8.769619e-08 -5.560252e-05 -1.876008e-05) (-5.155181e-09 -1.015141e-04 -2.960380e-06)) ((6.043184e-09 -2.389691e-10 6.482509e-11) (-7.030567e-06 -7.082351e-10 -1.592221e-10))
0.385805      	((8.751214e-08 -4.751172e-05 -1.803719e-05) (-6.979956e-09 -9.072941e-05 -3.529768e-06)) ((5.361900e-09 -2.408494e-10 6.122740e-11) (-6.317923e-06 -7.465354e-10 -9.246607e-11))
0.474966      	((8.280862e-08 -4.443918e-05 -1.870411e-05) (-7.659283e-09 -8.093324e-05 -4.026878e-06)) ((5.475394e-09 -2.501025e-10 5.866455e-11) (-5.670813e-06 -7.664991e-10 -2.887662e-11))
0.581959      	((8.394392e-08 -3.898628e-05 -1.846780e-05) (-5.732020e-09 -7.221587e-05 -4.446491e-06)) ((5.086302e-09 -2.443246e-10 5.218563e-11) (-5.097813e-06 -8.534857e-10 -3.587857e-11))
0.710351      	((7.712009e-08 -3.618377e-05 -1.916735e-05) (-3.338751e-09 -6.456519e-05 -4.797998e-06)) ((5.105760e-09 -2.666145e-10 5.234450e-11) (-4.597793e-06 -9.692731e-10 -6.591174e-11))
0.864421      	((9.025174e-08 -3.238274e-05 -1.949950e-05) (-1.101431e-09 -5.786444e-05 -5.110573e-06)) ((4.934514e-09 -2.551234e-10 4.979876e-11) (-4.163128e-06 -1.087238e-09 -1.076014e-10))
1.049306      	((7.898476e-08 -3.000526e-05 -2.030130e-05) (1.585459e-10 -5.197714e-05 -5.408712e-06)) ((4.899110e-09 -2.780916e-10 4.531737e-11) (-3.784638e-06 -1.222485e-09 -1.832402e-10))
1.271167      	((8.296568e-08 -2.722300e-05 -2.095613e-05) (1.264047e-09 -4.679817e-05 -5.720120e-06)) ((4.720529e-09 -2.797480e-10 3.606057e-11) (-3.454839e-06 -1.357333e-09 -2.476855e-10))
1.5374        	((6.885220e-08 -2.541211e-05 -2.207552e-05) (6.381140e-10 -4.226822e-05 -6.044667e-06)) ((4.669500e-09 -3.038998e-10 3.611854e-11) (-3.169016e-06 -1.466240e-09 -2.872846e-10))
1.85688       	((8.456160e-08 -2.348399e-05 -2.328958e-05) (1.009232e-09 -3.833573e-05 -6.378577e-06)) ((4.581648e-09 -3.145606e-10 3.739846e-11) (-2.923244e-06 -1.582761e-09 -2.787899e-10))
2.240256      	((7.968485e-08 -2.229421e-05 -2.473162e-05) (3.046561e-09 -3.496032e-05 -6.722845e-06)) ((4.609446e-09 -3.354330e-10 3.895709e-11) (-2.714154e-06 -1.684260e-09 -2.094673e-10))
2.700307      	((8.424296e-08 -2.145987e-05 -2.616211e-05) (4.300336e-09 -3.208762e-05 -7.096823e-06)) ((4.633943e-09 -3.441647e-10 3.841489e-11) (-2.536958e-06 -1.779534e-09 -1.577039e-10))
3.252369      	((7.553298e-08 -2.110064e-05 -2.782184e-05) (5.362404e-09 -2.964090e-05 -7.507553e-06)) ((4.728812e-09 -3.594036e-10 3.859105e-11) (-2.386029e-06 -1.953247e-09 -1.323987e-10))
3.914842      	((7.179125e-08 -2.088748e-05 -2.956111e-05) (3.810274e-09 -2.753489e-05 -7.965817e-06)) ((4.823219e-09 -3.766854e-10 3.797242e-11) (-2.256486e-06 -2.142351e-09 -1.059558e-10))
4.709811      	((7.509364e-08 -2.104279e-05 -3.143667e-05) (4.256806e-09 -2.571370e-05 -8.450020e-06)) ((4.941567e-09 -3.949581e-10 3.842439e-11) (-2.144715e-06 -2.242906e-09 -4.492392e-11))
5.663773      	((7.777569e-08 -2.134686e-05 -3.335720e-05) (4.567039e-09 -2.413521e-05 -8.967815e-06)) ((5.046009e-09 -4.099201e-10 4.008236e-11) (-2.048377e-06 -2.288559e-09 3.682244e-11))
6.808528      	((8.748232e-08 -2.186671e-05 -3.533048e-05) (6.194127e-09 -2.278458e-05 -9.509633e-06)) ((5.153361e-09 -4.268982e-10 4.049338e-11) (-1.965669e-06 -2.277491e-09 1.071857e-10))
8.182233      	((9.441936e-08 -2.254422e-05 -3.729760e-05) (5.158056e-09 -2.165420e-05 -1.006897e-05)) ((5.255034e-09 -4.403276e-10 3.974557e-11) (-1.895016e-06 -2.219371e-09 1.527483e-10))
9.79498       	((9.718252e-08 -2.343456e-05 -3.926255e-05) (4.837318e-09 -2.074234e-05 -1.062482e-05)) ((5.360475e-09 -4.528144e-10 3.980898e-11) (-1.835955e-06 -2.190216e-09 1.874424e-10))
11.645473     	((9.659057e-08 -2.448947e-05 -4.113618e-05) (5.086020e-09 -2.004245e-05 -1.116524e-05)) ((5.456555e-09 -4.647595e-10 4.041132e-11) (-1.787674e-06 -2.170691e-09 2.134951e-10))
13.732908     	((9.951039e-08 -2.561803e-05 -4.281849e-05) (4.735629e-09 -1.954629e-05 -1.167847e-05)) ((5.552776e-09 -4.751976e-10 4.028182e-11) (-1.749073e-06 -2.147989e-09 2.463973e-10))
16.056771     	((1.035379e-07 -2.685878e-05 -4.423373e-05) (4.675727e-09 -1.923558e-05 -1.213331e-05)) ((5.649879e-09 -4.833284e-10 4.086380e-11) (-1.719207e-06 -2.114210e-09 2.921755e-10))
18.417971     	((1.106360e-07 -2.801040e-05 -4.537979e-05) (4.468464e-09 -1.907971e-05 -1.247852e-05)) ((5.745630e-09 -4.892947e-10 4.175978e-11) (-1.697934e-06 -2.085465e-09 3.081384e-10))
20.777811     	((1.154730e-07 -2.901605e-05 -4.615970e-05) (4.404282e-09 -1.902183e-05 -1.272551e-05)) ((5.829254e-09 -4.926312e-10 4.254982e-11) (-1.683238e-06 -2.059841e-09 3.000347e-10))
23.138309     	((1.233787e-07 -2.986631e-05 -4.675215e-05) (4.791597e-09 -1.902039e-05 -1.289074e-05)) ((5.899079e-09 -4.939342e-10 4.323497e-11) (-1.673601e-06 -2.062683e-09 2.894924e-10))
25.500425     	((1.294694e-07 -3.059460e-05 -4.722493e-05) (4.901759e-09 -1.904696e-05 -1.298728e-05)) ((5.959050e-09 -4.937798e-10 4.406577e-11) (-1.667708e-06 -2.077575e-09 2.676362e-10))
27.840764     	((1.372263e-07 -3.115890e-05 -4.759019e-05) (4.937422e-09 -1.908138e-05 -1.303020e-05)) ((6.010459e-09 -4.925409e-10 4.461128e-11) (-1.664609e-06 -2.101350e-09 2.392103e-10))
30.154163     	((1.455364e-07 -3.153251e-05 -4.782264e-05) (5.018404e-09 -1.911158e-05 -1.303862e-05)) ((6.048653e-09 -4.904869e-10 4.510527e-11) (-1.663294e-06 -2.139945e-09 2.149613e-10))
32.442898     	((1.610264e-07 -3.176090e-05 -4.799136e-05) (5.416797e-09 -1.913319e-05 -1.303032e-05)) ((6.074377e-09 -4.882773e-10 4.567153e-11) (-1.662967e-06 -2.195957e-09 2.113129e-10))
34.71238      	((1.793235e-07 -3.187370e-05 -4.811710e-05) (6.074793e-09 -1.914640e-05 -1.301558e-05)) ((6.089972e-09 -4.864544e-10 4.633869e-11) (-1.663053e-06 -2.276692e-09 2.351361e-10))
36.968347     	((2.012038e-07 -3.192411e-05 -4.823555e-05) (6.760707e-09 -1.915354e-05 -1.299669e-05)) ((6.096037e-09 -4.852241e-10 4.683946e-11) (-1.663388e-06 -2.374346e-09 2.880643e-10))
39.215688     	((2.223443e-07 -3.192837e-05 -4.833826e-05) (7.472191e-09 -1.915676e-05 -1.297480e-05)) ((6.095045e-09 -4.845169e-10 4.724012e-11) (-1.663881e-06 -2.468203e-09 3.719184e-10))
41.458206     	((2.377351e-07 -3.191767e-05 -4.842482e-05) (8.069410e-09 -1.915792e-05 -1.295083e-05)) ((6.091802e-09 -4.842489e-10 4.763610e-11) (-1.664470e-06 -2.538580e-09 4.726062e-10))
43.698433     	((2.462704e-07 -3.188508e-05 -4.848518e-05) (8.276973e-09 -1.915735e-05 -1.292506e-05)) ((6.088300e-09 -4.842732e-10 4.839500e-11) (-1.665148e-06 -2.557896e-09 5.719347e-10))
45.937875     	((2.584579e-07 -3.185131e-05 -4.853443e-05) (8.247175e-09 -1.915549e-05 -1.289996e-05)) ((6.086472e-09 -4.844170e-10 4.930240e-11) (-1.665766e-06 -2.542013e-09 6.524091e-10))
48.177017     	((2.649342e-07 -3.181836e-05 -4.856278e-05) (8.008730e-09 -1.915304e-05 -1.287687e-05)) ((6.085174e-09 -4.847887e-10 5.010390e-11) (-1.666283e-06 -2.495760e-09 7.023251e-10))
50.416057     	((2.708318e-07 -3.177897e-05 -4.858128e-05) (7.485917e-09 -1.915050e-05 -1.285694e-05)) ((6.079450e-09 -4.850340e-10 5.021155e-11) (-1.666658e-06 -2.428637e-09 7.018967e-10))
52.654801     	((2.779728e-07 -3.174046e-05 -4.859930e-05) (7.210988e-09 -1.914819e-05 -1.284311e-05)) ((6.075578e-09 -4.849731e-10 4.957397e-11) (-1.666772e-06 -2.367968e-09 6.601141e-10))
54.893049     	((2.790631e-07 -3.169906e-05 -4.859740e-05) (6.786079e-09 -1.914562e-05 -1.283403e-05)) ((6.074666e-09 -4.851815e-10 4.941998e-11) (-1.666675e-06 -2.327871e-09 5.801464e-10))
57.13077      	((2.774579e-07 -3.165068e-05 -4.858423e-05) (5.950981e-09 -1.914277e-05 -1.282766e-05)) ((6.072923e-09 -4.855751e-10 4.930343e-11) (-1.666451e-06 -2.295130e-09 4.853036e-10))
59.368073     	((2.744432e-07 -3.160664e-05 -4.855572e-05) (5.081075e-09 -1.913987e-05 -1.282202e-05)) ((6.070686e-09 -4.860530e-10 4.910557e-11) (-1.666206e-06 -2.272054e-09 3.910192e-10))
61.605144     	((2.731500e-07 -3.156389e-05 -4.852093e-05) (4.415891e-09 -1.913732e-05 -1.281556e-05)) ((6.067026e-09 -4.866645e-10 4.886036e-11) (-1.665994e-06 -2.251820e-09 3.056753e-10))
63.842176     	((2.840905e-07 -3.151809e-05 -4.848956e-05) (4.373081e-09 -1.913500e-05 -1.280873e-05)) ((6.063181e-09 -4.869691e-10 4.859883e-11) (-1.665799e-06 -2.250902e-09 2.353540e-10))
66.079324     	((2.946998e-07 -3.147421e-05 -4.847028e-05) (4.686622e-09 -1.913291e-05 -1.280192e-05)) ((6.059708e-09 -4.873388e-10 4.831153e-11) (-1.665611e-06 -2.268571e-09 1.816569e-10))
68.316647     	((3.047728e-07 -3.144142e-05 -4.846213e-05) (5.387654e-09 -1.913088e-05 -1.279552e-05)) ((6.057017e-09 -4.876639e-10 4.812360e-11) (-1.665441e-06 -2.308305e-09 1.432053e-10))
70.55409      	((3.064235e-07 -3.141393e-05 -4.847139e-05) (6.248489e-09 -1.912889e-05 -1.278980e-05)) ((6.054463e-09 -4.882625e-10 4.807638e-11) (-1.665293e-06 -2.354651e-09 1.170868e-10))
72.791492     	((2.995416e-07 -3.138918e-05 -4.848691e-05) (7.019160e-09 -1.912733e-05 -1.278440e-05)) ((6.052355e-09 -4.889578e-10 4.811620e-11) (-1.665164e-06 -2.387282e-09 9.928316e-11))
75.028651     	((2.867454e-07 -3.136859e-05 -4.851698e-05) (7.436170e-09 -1.912638e-05 -1.277926e-05)) ((6.050782e-09 -4.896993e-10 4.822953e-11) (-1.665069e-06 -2.397656e-09 8.449785e-11))
77.265383     	((2.697594e-07 -3.134363e-05 -4.853848e-05) (7.396719e-09 -1.912559e-05 -1.277454e-05)) ((6.049360e-09 -4.905263e-10 4.834995e-11) (-1.665005e-06 -2.381270e-09 6.643343e-11))
79.501592     	((2.497750e-07 -3.132153e-05 -4.856187e-05) (7.038032e-09 -1.912501e-05 -1.277003e-05)) ((6.048113e-09 -4.914692e-10 4.845682e-11) (-1.664966e-06 -2.342059e-09 3.737681e-11))
81.737313     	((2.319776e-07 -3.130639e-05 -4.859540e-05) (6.534300e-09 -1.912507e-05 -1.276574e-05)) ((6.047211e-09 -4.923611e-10 4.857072e-11) (-1.664952e-06 -2.290607e-09 -7.198295e-12))
83.972653     	((2.140068e-07 -3.129778e-05 -4.863123e-05) (5.999884e-09 -1.912602e-05 -1.276170e-05)) ((6.046549e-09 -4.932104e-10 4.868043e-11) (-1.664963e-06 -2.235599e-09 -6.560890e-11))
86.207735     	((1.916391e-07 -3.129110e-05 -4.866289e-05) (5.273828e-09 -1.912778e-05 -1.275796e-05)) ((6.046051e-09 -4.941712e-10 4.876573e-11) (-1.664996e-06 -2.174564e-09 -1.311963e-10))
88.442662     	((1.748279e-07 -3.128398e-05 -4.870818e-05) (4.417745e-09 -1.913007e-05 -1.275448e-05)) ((6.045555e-09 -4.951088e-10 4.885255e-11) (-1.665042e-06 -2.116135e-09 -1.958759e-10))
90.677479     	((1.615485e-07 -3.127789e-05 -4.875760e-05) (3.537713e-09 -1.913274e-05 -1.275111e-05)) ((6.045030e-09 -4.959552e-10 4.895568e-11) (-1.665094e-06 -2.069101e-09 -2.521287e-10))
92.912202     	((1.529470e-07 -3.127544e-05 -4.881023e-05) (2.759297e-09 -1.913577e-05 -1.274763e-05)) ((6.044569e-09 -4.966213e-10 4.906214e-11) (-1.665157e-06 -2.041230e-09 -2.947049e-10))
95.146829     	((1.456260e-07 -3.126897e-05 -4.886402e-05) (2.131722e-09 -1.913876e-05 -1.274449e-05)) ((6.044067e-09 -4.971003e-10 4.914370e-11) (-1.665214e-06 -2.033644e-09 -3.207494e-10))
