# Forces      
# CofR        : (0.000000e+00 0.000000e+00 0.000000e+00)
# Time        forces(pressure viscous)	moments(pressure viscous)
0             	((0.000000e+00 0.000000e+00 0.000000e+00) (7.996138e-04 -4.688985e-14 7.775678e-09)) ((0.000000e+00 0.000000e+00 0.000000e+00) (-1.817144e-15 -1.796637e-05 -1.234828e-14))
0.012         	((2.322161e-01 -1.641019e-07 5.805263e-02) (9.148792e-04 -1.023336e-09 -4.373024e-06)) ((-1.852352e-11 3.412553e-06 -3.642478e-11) (1.570915e-11 -2.654773e-05 1.601865e-11))
0.0264        	((-2.409717e-02 -4.206843e-06 -6.883257e-03) (9.254427e-04 -4.362610e-09 -6.796844e-06)) ((-1.225117e-11 -3.412313e-07 -2.866571e-11) (-4.335594e-11 -2.955821e-05 1.461456e-11))
0.04368       	((-4.427870e-02 3.061271e-06 -7.334948e-03) (8.145736e-04 -3.300355e-09 -6.785040e-06)) ((2.253324e-11 -7.086518e-07 8.110123e-11) (-1.135475e-11 -2.627677e-05 -2.334962e-11))
0.064416      	((-3.417411e-04 1.406972e-06 -3.241575e-03) (7.179230e-04 6.502420e-10 -7.497293e-06)) ((-5.237546e-11 -5.686609e-09 -2.579705e-12) (1.274937e-10 -2.372259e-05 -3.168854e-11))
0.0892992     	((1.861033e-06 -1.586091e-06 -2.352290e-03) (6.608080e-04 -1.979577e-09 -9.212368e-06)) ((1.752377e-11 8.314168e-09 7.386028e-12) (7.544922e-11 -2.245398e-05 -8.104478e-11))
0.119159      	((-7.366603e-04 6.113741e-07 -1.872274e-03) (6.108774e-04 -2.113006e-09 -1.088415e-05)) ((-9.006731e-12 -2.241612e-08 1.747728e-11) (9.192305e-12 -2.107803e-05 -1.524403e-10))
0.154991      	((-2.092378e-04 3.018708e-07 -1.593047e-03) (5.603753e-04 1.479409e-09 -1.245895e-05)) ((-9.233084e-12 -1.275332e-08 3.011035e-11) (4.021773e-11 -1.962802e-05 -7.379656e-11))
0.197989      	((4.227263e-06 -1.359800e-07 -1.405105e-03) (5.124493e-04 3.332120e-09 -1.412519e-05)) ((2.818528e-12 -8.591079e-09 5.170062e-11) (3.208668e-11 -1.821246e-05 1.023154e-11))
0.249587      	((7.798988e-05 -1.131900e-07 -1.285243e-03) (4.687094e-04 4.011892e-09 -1.593269e-05)) ((9.562034e-12 -7.230813e-09 5.629157e-11) (-8.145825e-12 -1.686262e-05 9.017143e-11))
0.311504      	((1.217227e-04 -1.012887e-07 -1.211856e-03) (4.299308e-04 3.781634e-09 -1.778748e-05)) ((1.123891e-11 -6.114429e-09 4.458076e-11) (-6.155451e-11 -1.560520e-05 1.325215e-10))
0.385805      	((1.453024e-04 -7.615814e-08 -1.163402e-03) (3.958665e-04 3.378456e-09 -1.972797e-05)) ((8.652874e-12 -5.325215e-09 2.939340e-11) (-1.181866e-10 -1.445082e-05 1.270458e-10))
0.474966      	((1.567819e-04 -6.413307e-08 -1.132234e-03) (3.656448e-04 3.212310e-09 -2.180038e-05)) ((5.297230e-12 -4.663794e-09 1.403341e-11) (-1.673757e-10 -1.339046e-05 8.092370e-11))
0.581959      	((1.611173e-04 -4.905956e-08 -1.111381e-03) (3.377520e-04 1.861428e-09 -2.408603e-05)) ((3.659513e-12 -4.070764e-09 6.342539e-12) (-2.104227e-10 -1.238802e-05 1.752978e-11))
0.710351      	((1.605321e-04 -4.643779e-08 -1.097595e-03) (3.109408e-04 7.337506e-10 -2.662420e-05)) ((3.357656e-12 -3.537584e-09 2.006447e-12) (-2.558119e-10 -1.141133e-05 -9.384255e-12))
0.864421      	((1.576052e-04 -4.051243e-08 -1.087320e-03) (2.850993e-04 -7.918074e-11 -2.942795e-05)) ((2.415869e-12 -3.050087e-09 4.192045e-13) (-3.065319e-10 -1.046328e-05 -2.210967e-11))
1.049306      	((1.542384e-04 -3.869450e-08 -1.079782e-03) (2.607053e-04 -1.306882e-09 -3.253274e-05)) ((1.663034e-12 -2.601486e-09 5.576399e-13) (-3.551354e-10 -9.564553e-06 -5.205605e-11))
1.271167      	((1.522634e-04 -5.077213e-08 -1.073445e-03) (2.381630e-04 -2.174058e-09 -3.591707e-05)) ((1.599802e-12 -2.162012e-09 8.397179e-13) (-3.950070e-10 -8.731740e-06 -8.690866e-11))
1.5374        	((1.527166e-04 -5.303059e-08 -1.067356e-03) (2.176933e-04 -2.416377e-09 -3.949338e-05)) ((1.109596e-12 -1.702957e-09 7.344558e-13) (-4.182932e-10 -7.973777e-06 -1.284464e-10))
1.85688       	((1.561794e-04 -8.330104e-08 -1.060556e-03) (1.994239e-04 -3.037829e-09 -4.314764e-05)) ((1.758967e-12 -1.191770e-09 6.038378e-13) (-4.397850e-10 -7.295889e-06 -1.648064e-10))
2.240256      	((1.630737e-04 -1.100793e-07 -1.052555e-03) (1.834025e-04 -4.699094e-09 -4.671668e-05)) ((1.410281e-12 -6.068280e-10 2.524812e-13) (-4.694073e-10 -6.701777e-06 -1.896548e-10))
2.700307      	((1.742839e-04 -1.418827e-07 -1.043352e-03) (1.696304e-04 -7.209101e-09 -5.004479e-05)) ((1.393814e-12 7.095410e-11 -5.552581e-13) (-5.058444e-10 -6.193247e-06 -1.887251e-10))
3.252369      	((1.901124e-04 -1.389988e-07 -1.032848e-03) (1.580120e-04 -8.913591e-09 -5.303080e-05)) ((-3.605730e-14 8.053823e-10 -1.098648e-12) (-5.144590e-10 -5.767291e-06 -1.117088e-10))
3.905046      	((2.107952e-04 -1.425188e-07 -1.021186e-03) (1.484667e-04 -1.010025e-08 -5.567535e-05)) ((3.984930e-13 1.572598e-09 -1.404399e-12) (-5.262394e-10 -5.417928e-06 6.119378e-13))
4.657978      	((2.358972e-04 -8.761084e-08 -1.008797e-03) (1.407772e-04 -1.025079e-08 -5.806026e-05)) ((3.910324e-13 2.315108e-09 -1.313583e-12) (-5.199170e-10 -5.134899e-06 7.254636e-11))
5.510679      	((2.646742e-04 -7.501014e-08 -9.960391e-04) (1.346156e-04 -9.197593e-09 -6.020690e-05)) ((6.516130e-13 2.973478e-09 -1.124280e-12) (-4.719103e-10 -4.906200e-06 1.140182e-10))
6.46238       	((2.965296e-04 -2.618383e-08 -9.827068e-04) (1.297255e-04 -7.004570e-09 -6.199729e-05)) ((1.295832e-13 3.481934e-09 -1.190474e-12) (-3.946050e-10 -4.722446e-06 1.621949e-10))
7.442918      	((3.299484e-04 2.550713e-08 -9.685865e-04) (1.261305e-04 -5.415895e-09 -6.320467e-05)) ((-1.354802e-12 3.826222e-09 -2.932621e-12) (-2.748990e-10 -4.582968e-06 1.324676e-10))
8.413185      	((3.606074e-04 6.837393e-08 -9.525688e-04) (1.235324e-04 -3.332541e-09 -6.379302e-05)) ((-2.468389e-12 4.093099e-09 -4.265276e-12) (-1.287630e-10 -4.478252e-06 9.499285e-11))
9.374015      	((3.871891e-04 8.309943e-08 -9.339808e-04) (1.215263e-04 -3.433874e-09 -6.384469e-05)) ((-3.645312e-12 4.375629e-09 -5.076843e-12) (8.384867e-12 -4.397320e-06 -7.069154e-11))
10.328322     	((4.085963e-04 1.082048e-07 -9.142378e-04) (1.198368e-04 -4.616462e-09 -6.356810e-05)) ((-3.485918e-12 4.669489e-09 -6.452201e-12) (1.143432e-10 -4.331214e-06 -2.920116e-10))
11.280553     	((4.252694e-04 1.026305e-07 -8.948838e-04) (1.184053e-04 -7.587427e-09 -6.312252e-05)) ((-3.883719e-12 4.994393e-09 -5.333119e-12) (2.149660e-10 -4.277140e-06 -6.209298e-10))
12.234054     	((4.348550e-04 1.934264e-07 -8.745402e-04) (1.171728e-04 -1.020504e-08 -6.258077e-05)) ((-2.046609e-12 5.321337e-09 -3.657723e-12) (3.274726e-10 -4.233347e-06 -1.031214e-09))
13.189639     	((4.382529e-04 2.655918e-07 -8.546279e-04) (1.160173e-04 -1.016974e-08 -6.200785e-05)) ((-3.317265e-13 5.598440e-09 -2.869470e-12) (3.871201e-10 -4.195915e-06 -1.409619e-09))
14.146423     	((4.369187e-04 2.182917e-07 -8.365077e-04) (1.148865e-04 -1.227387e-08 -6.143454e-05)) ((2.221312e-14 5.857777e-09 -2.848106e-12) (3.762084e-10 -4.162997e-06 -1.883494e-09))
15.103578     	((4.319924e-04 1.801680e-07 -8.217021e-04) (1.138148e-04 -1.603767e-08 -6.088787e-05)) ((2.687071e-13 6.048313e-09 -3.802858e-12) (3.057663e-10 -4.134899e-06 -2.284328e-09))
16.061069     	((4.253345e-04 1.479694e-07 -8.090858e-04) (1.128011e-04 -1.947696e-08 -6.040987e-05)) ((9.754890e-13 6.168653e-09 -4.964268e-12) (2.005079e-10 -4.109584e-06 -2.541227e-09))
17.019554     	((4.190652e-04 7.490052e-08 -7.956918e-04) (1.118216e-04 -2.403063e-08 -6.000014e-05)) ((4.800889e-13 6.272775e-09 -6.896028e-12) (8.089920e-11 -4.085428e-06 -2.735988e-09))
17.979505     	((4.147715e-04 1.359572e-07 -7.834424e-04) (1.109137e-04 -2.702551e-08 -5.961818e-05)) ((-3.752751e-12 6.360944e-09 -8.284058e-12) (1.424396e-10 -4.063518e-06 -2.879788e-09))
18.940936     	((4.107794e-04 1.183064e-07 -7.737828e-04) (1.100882e-04 -2.506088e-08 -5.927602e-05)) ((-4.975075e-12 6.390341e-09 -9.126722e-12) (3.002135e-10 -4.043023e-06 -2.779213e-09))
19.903838     	((4.072706e-04 2.301033e-08 -7.653787e-04) (1.093251e-04 -2.422566e-08 -5.899250e-05)) ((-3.673364e-12 6.403319e-09 -8.155735e-12) (3.314250e-10 -4.023107e-06 -2.562449e-09))
20.868431     	((4.039090e-04 -3.501479e-08 -7.563307e-04) (1.086062e-04 -2.443542e-08 -5.875839e-05)) ((-4.340777e-12 6.400508e-09 -6.772669e-12) (3.101752e-10 -4.003461e-06 -2.320711e-09))
21.834657     	((4.012739e-04 -7.453975e-08 -7.471739e-04) (1.079230e-04 -2.436373e-08 -5.855899e-05)) ((-4.603956e-12 6.398699e-09 -4.792322e-12) (3.044278e-10 -3.984029e-06 -2.102431e-09))
22.802473     	((3.993458e-04 -1.258121e-07 -7.384589e-04) (1.072807e-04 -2.443007e-08 -5.838778e-05)) ((-4.632962e-12 6.397595e-09 -3.329975e-12) (2.840821e-10 -3.965107e-06 -1.923676e-09))
23.771785     	((3.976289e-04 -2.069148e-07 -7.301204e-04) (1.066790e-04 -2.596329e-08 -5.823955e-05)) ((-2.887087e-12 6.397894e-09 -2.922633e-12) (1.296198e-10 -3.946852e-06 -1.767751e-09))
24.742588     	((3.957940e-04 -2.383909e-07 -7.219897e-04) (1.061044e-04 -2.855534e-08 -5.811678e-05)) ((-2.782475e-12 6.403214e-09 -2.666242e-12) (-6.771883e-11 -3.928874e-06 -1.665424e-09))
25.71494      	((3.937329e-04 -2.901151e-07 -7.138633e-04) (1.055413e-04 -3.099313e-08 -5.802136e-05)) ((-2.108932e-12 6.412146e-09 -3.068658e-12) (-2.865443e-10 -3.910796e-06 -1.552105e-09))
26.688431     	((3.919589e-04 -3.678104e-07 -7.061478e-04) (1.049981e-04 -3.533260e-08 -5.793711e-05)) ((-6.954946e-13 6.436306e-09 -3.921265e-12) (-5.094540e-10 -3.893482e-06 -1.539683e-09))
27.662138     	((3.902567e-04 -4.722839e-07 -6.987464e-04) (1.044851e-04 -4.194009e-08 -5.784776e-05)) ((-8.807986e-14 6.472595e-09 -4.768017e-12) (-7.475468e-10 -3.877746e-06 -1.590946e-09))
28.636095     	((3.886864e-04 -5.709799e-07 -6.917648e-04) (1.040073e-04 -4.852462e-08 -5.775009e-05)) ((-7.634099e-13 6.517380e-09 -5.554771e-12) (-9.943219e-10 -3.863897e-06 -1.565390e-09))
29.610493     	((3.871718e-04 -6.482809e-07 -6.848480e-04) (1.035613e-04 -5.322279e-08 -5.764366e-05)) ((-1.501632e-12 6.567516e-09 -6.219926e-12) (-1.198480e-09 -3.851764e-06 -1.384772e-09))
30.58541      	((3.858334e-04 -7.497175e-07 -6.782577e-04) (1.031444e-04 -5.863492e-08 -5.753428e-05)) ((-1.226197e-12 6.616913e-09 -6.622418e-12) (-1.401656e-09 -3.840928e-06 -1.266480e-09))
31.560888     	((3.843794e-04 -9.085571e-07 -6.721027e-04) (1.027509e-04 -6.680403e-08 -5.743236e-05)) ((2.905190e-13 6.651007e-09 -6.952654e-12) (-1.682169e-09 -3.830776e-06 -1.227072e-09))
32.536942     	((3.829156e-04 -1.094155e-06 -6.659423e-04) (1.023743e-04 -7.768683e-08 -5.734454e-05)) ((1.927113e-12 6.675025e-09 -6.996372e-12) (-2.057047e-09 -3.820882e-06 -1.155502e-09))
33.51361      	((3.813342e-04 -1.255870e-06 -6.597270e-04) (1.020069e-04 -8.822126e-08 -5.727264e-05)) ((3.365949e-12 6.688749e-09 -7.206317e-12) (-2.478600e-09 -3.810931e-06 -9.370688e-10))
34.490901     	((3.799028e-04 -1.428695e-06 -6.537563e-04) (1.016500e-04 -9.774202e-08 -5.720539e-05)) ((4.644604e-12 6.701864e-09 -7.468432e-12) (-2.912190e-09 -3.801115e-06 -6.250465e-10))
35.468831     	((3.784614e-04 -1.619950e-06 -6.480735e-04) (1.013024e-04 -1.080840e-07 -5.714304e-05)) ((5.242861e-12 6.707508e-09 -7.689002e-12) (-3.332060e-09 -3.791379e-06 -3.000058e-10))
36.447422     	((3.769847e-04 -1.824643e-06 -6.424717e-04) (1.009595e-04 -1.205406e-07 -5.708570e-05)) ((6.525727e-12 6.712986e-09 -7.762045e-12) (-3.785224e-09 -3.781611e-06 -1.242279e-11))
37.426692     	((3.757606e-04 -2.044289e-06 -6.372021e-04) (1.006268e-04 -1.342609e-07 -5.702528e-05)) ((8.265755e-12 6.724656e-09 -7.846965e-12) (-4.294053e-09 -3.772194e-06 2.480862e-10))
38.406665     	((3.748558e-04 -2.300461e-06 -6.323221e-04) (1.003136e-04 -1.495978e-07 -5.695435e-05)) ((1.082163e-11 6.745557e-09 -7.818519e-12) (-4.906511e-09 -3.763666e-06 5.005782e-10))
39.387357     	((3.739577e-04 -2.524003e-06 -6.276408e-04) (1.000212e-04 -1.657647e-07 -5.687217e-05)) ((1.364523e-11 6.766092e-09 -7.588792e-12) (-5.589079e-09 -3.756078e-06 7.546673e-10))
40.368789     	((3.729286e-04 -2.830397e-06 -6.230967e-04) (9.974274e-05 -1.831875e-07 -5.678996e-05)) ((1.843759e-11 6.773441e-09 -7.399415e-12) (-6.363322e-09 -3.748860e-06 1.059021e-09))
41.351007     	((3.717798e-04 -3.158470e-06 -6.184302e-04) (9.947023e-05 -2.027121e-07 -5.672053e-05)) ((2.336082e-11 6.767411e-09 -6.968017e-12) (-7.259720e-09 -3.741304e-06 1.410938e-09))
42.334005     	((3.707222e-04 -3.517705e-06 -6.139978e-04) (9.920116e-05 -2.250165e-07 -5.666817e-05)) ((2.847076e-11 6.755225e-09 -6.685032e-12) (-8.275463e-09 -3.733137e-06 1.743295e-09))
43.317767     	((3.696940e-04 -3.921391e-06 -6.096587e-04) (9.893410e-05 -2.504332e-07 -5.663169e-05)) ((3.407325e-11 6.741233e-09 -6.527357e-12) (-9.410993e-09 -3.724419e-06 2.044346e-09))
44.302291     	((3.687080e-04 -4.409681e-06 -6.053980e-04) (9.867062e-05 -2.798778e-07 -5.660068e-05)) ((4.009221e-11 6.737977e-09 -6.353402e-12) (-1.073310e-08 -3.715680e-06 2.371598e-09))
45.28762      	((3.676339e-04 -4.916027e-06 -6.011934e-04) (9.841249e-05 -3.127673e-07 -5.656667e-05)) ((4.684544e-11 6.740784e-09 -6.126241e-12) (-1.223601e-08 -3.707347e-06 2.756165e-09))
46.273849     	((3.664639e-04 -5.429157e-06 -5.969218e-04) (9.815961e-05 -3.479546e-07 -5.652902e-05)) ((5.400765e-11 6.745673e-09 -6.072216e-12) (-1.385191e-08 -3.699431e-06 3.182941e-09))
47.260981     	((3.654517e-04 -5.973858e-06 -5.926865e-04) (9.791598e-05 -3.858787e-07 -5.648562e-05)) ((6.127947e-11 6.755202e-09 -6.213195e-12) (-1.554142e-08 -3.692031e-06 3.622313e-09))
48.24899      	((3.645930e-04 -6.572603e-06 -5.886136e-04) (9.768403e-05 -4.268407e-07 -5.643603e-05)) ((6.935475e-11 6.765616e-09 -6.569965e-12) (-1.734291e-08 -3.685172e-06 4.100257e-09))
49.237868     	((3.638900e-04 -7.220500e-06 -5.847395e-04) (9.746505e-05 -4.712869e-07 -5.638106e-05)) ((7.770027e-11 6.777419e-09 -6.964824e-12) (-1.930529e-08 -3.678820e-06 4.628439e-09))
50.227607     	((3.632510e-04 -7.869543e-06 -5.810346e-04) (9.725895e-05 -5.187971e-07 -5.632048e-05)) ((8.535053e-11 6.789560e-09 -7.185994e-12) (-2.138556e-08 -3.672938e-06 5.163247e-09))
51.218195     	((3.625005e-04 -8.560396e-06 -5.774735e-04) (9.706079e-05 -5.696099e-07 -5.625601e-05)) ((9.297628e-11 6.799520e-09 -7.506180e-12) (-2.357427e-08 -3.667327e-06 5.659094e-09))
52.209614     	((3.616763e-04 -9.316844e-06 -5.740400e-04) (9.686704e-05 -6.250398e-07 -5.619003e-05)) ((1.015454e-10 6.806915e-09 -8.008735e-12) (-2.592961e-08 -3.661820e-06 6.108222e-09))
53.201848     	((3.608679e-04 -1.014227e-05 -5.708546e-04) (9.667777e-05 -6.858102e-07 -5.612317e-05)) ((1.112487e-10 6.814091e-09 -8.559150e-12) (-2.849030e-08 -3.656412e-06 6.542616e-09))
54.19488      	((3.600787e-04 -1.102770e-05 -5.676893e-04) (9.649277e-05 -7.515106e-07 -5.605511e-05)) ((1.215578e-10 6.821877e-09 -9.151995e-12) (-3.126306e-08 -3.651083e-06 7.024930e-09))
55.188692     	((3.593609e-04 -1.198651e-05 -5.645812e-04) (9.631340e-05 -8.216991e-07 -5.598389e-05)) ((1.326498e-10 6.831859e-09 -9.646378e-12) (-3.426323e-08 -3.645899e-06 7.600615e-09))
56.183276     	((3.586829e-04 -1.299935e-05 -5.614943e-04) (9.614050e-05 -8.965288e-07 -5.590794e-05)) ((1.444820e-10 6.843985e-09 -1.005314e-11) (-3.748629e-08 -3.640910e-06 8.261367e-09))
57.178639     	((3.580812e-04 -1.408399e-05 -5.584775e-04) (9.597539e-05 -9.763779e-07 -5.582666e-05)) ((1.573229e-10 6.858544e-09 -1.057223e-11) (-4.094316e-08 -3.636174e-06 9.005788e-09))
58.1748       	((3.574638e-04 -1.530038e-05 -5.554668e-04) (9.581689e-05 -1.063064e-06 -5.574165e-05)) ((1.718720e-10 6.873566e-09 -1.101103e-11) (-4.471772e-08 -3.631622e-06 9.812601e-09))
59.171789     	((3.569047e-04 -1.661602e-05 -5.525929e-04) (9.566524e-05 -1.157546e-06 -5.565402e-05)) ((1.880342e-10 6.888625e-09 -1.143140e-11) (-4.884194e-08 -3.627252e-06 1.068017e-08))
60.169588     	((3.563824e-04 -1.804238e-05 -5.498546e-04) (9.552122e-05 -1.259923e-06 -5.556521e-05)) ((2.058072e-10 6.902745e-09 -1.185719e-11) (-5.333140e-08 -3.623063e-06 1.164727e-08))
61.168136     	((3.558291e-04 -1.962507e-05 -5.471404e-04) (9.538244e-05 -1.371304e-06 -5.547748e-05)) ((2.251996e-10 6.915454e-09 -1.227795e-11) (-5.823183e-08 -3.618956e-06 1.273041e-08))
62.167401     	((3.553017e-04 -2.136183e-05 -5.444887e-04) (9.524847e-05 -1.492768e-06 -5.539144e-05)) ((2.460695e-10 6.927826e-09 -1.286793e-11) (-6.356680e-08 -3.614935e-06 1.393592e-08))
63.167352     	((3.548312e-04 -2.326189e-05 -5.419645e-04) (9.512111e-05 -1.625576e-06 -5.530725e-05)) ((2.689340e-10 6.940042e-09 -1.374668e-11) (-6.937887e-08 -3.611081e-06 1.525402e-08))
64.167951     	((3.543754e-04 -2.535200e-05 -5.394701e-04) (9.500036e-05 -1.771498e-06 -5.522576e-05)) ((2.937892e-10 6.951586e-09 -1.476242e-11) (-7.574422e-08 -3.607433e-06 1.667604e-08))
65.169164     	((3.539562e-04 -2.762363e-05 -5.371414e-04) (9.488617e-05 -1.930932e-06 -5.514808e-05)) ((3.207475e-10 6.962392e-09 -1.581740e-11) (-8.269963e-08 -3.603978e-06 1.825328e-08))
66.170955     	((3.535181e-04 -3.010410e-05 -5.348053e-04) (9.477688e-05 -2.104514e-06 -5.507599e-05)) ((3.500959e-10 6.972248e-09 -1.685841e-11) (-9.028736e-08 -3.600642e-06 2.002090e-08))
67.173283     	((3.531495e-04 -3.279064e-05 -5.326164e-04) (9.467235e-05 -2.293814e-06 -5.500877e-05)) ((3.811346e-10 6.982123e-09 -1.810357e-11) (-9.854207e-08 -3.597469e-06 2.194453e-08))
68.176102     	((3.528003e-04 -3.572451e-05 -5.304281e-04) (9.457295e-05 -2.501241e-06 -5.494614e-05)) ((4.148534e-10 6.991729e-09 -1.939397e-11) (-1.075328e-07 -3.594493e-06 2.397947e-08))
69.179356     	((3.525162e-04 -3.894331e-05 -5.282633e-04) (9.448019e-05 -2.729181e-06 -5.488661e-05)) ((4.514773e-10 7.002537e-09 -2.065247e-11) (-1.173453e-07 -3.591820e-06 2.613158e-08))
70.182994     	((3.523107e-04 -4.244433e-05 -5.261916e-04) (9.439585e-05 -2.979093e-06 -5.482826e-05)) ((4.914659e-10 7.015060e-09 -2.185480e-11) (-1.280482e-07 -3.589562e-06 2.845024e-08))
71.18696      	((3.521831e-04 -4.626884e-05 -5.242734e-04) (9.432115e-05 -3.253271e-06 -5.477057e-05)) ((5.356926e-10 7.028947e-09 -2.325215e-11) (-1.397367e-07 -3.587766e-06 3.093094e-08))
72.191193     	((3.520911e-04 -5.046177e-05 -5.223670e-04) (9.425525e-05 -3.555133e-06 -5.471322e-05)) ((5.849395e-10 7.044485e-09 -2.477280e-11) (-1.525312e-07 -3.586416e-06 3.353215e-08))
73.19563      	((3.520025e-04 -5.504736e-05 -5.205175e-04) (9.419550e-05 -3.888377e-06 -5.465727e-05)) ((6.389367e-10 7.059633e-09 -2.629842e-11) (-1.665560e-07 -3.585411e-06 3.621449e-08))
74.200207     	((3.519549e-04 -6.002224e-05 -5.186781e-04) (9.414107e-05 -4.254962e-06 -5.460423e-05)) ((6.973182e-10 7.075332e-09 -2.702846e-11) (-1.819018e-07 -3.584656e-06 3.894623e-08))
75.204857     	((3.520029e-04 -6.538893e-05 -5.169310e-04) (9.409263e-05 -4.655283e-06 -5.455283e-05)) ((7.602251e-10 7.092973e-09 -2.692256e-11) (-1.985960e-07 -3.584161e-06 4.179075e-08))
76.209513     	((3.521672e-04 -7.121884e-05 -5.153141e-04) (9.405047e-05 -5.091151e-06 -5.450251e-05)) ((8.283465e-10 7.112528e-09 -2.666715e-11) (-2.167389e-07 -3.583959e-06 4.483845e-08))
77.214107     	((3.524000e-04 -7.757683e-05 -5.136096e-04) (9.401573e-05 -5.568055e-06 -5.445227e-05)) ((9.024923e-10 7.136411e-09 -2.653465e-11) (-2.364889e-07 -3.584094e-06 4.803467e-08))
78.218571     	((3.528594e-04 -8.441439e-05 -5.120693e-04) (9.399381e-05 -6.088495e-06 -5.439989e-05)) ((9.819031e-10 7.166303e-09 -2.638177e-11) (-2.578964e-07 -3.584753e-06 5.131747e-08))
79.222842     	((3.535010e-04 -9.181059e-05 -5.106102e-04) (9.398617e-05 -6.654972e-06 -5.434471e-05)) ((1.067901e-09 7.200615e-09 -2.661484e-11) (-2.811295e-07 -3.586029e-06 5.475923e-08))
80.226027     	((3.544197e-04 -9.978792e-05 -5.094579e-04) (9.399304e-05 -7.269680e-06 -5.428837e-05)) ((1.161409e-09 7.239151e-09 -2.705370e-11) (-3.063565e-07 -3.587969e-06 5.846235e-08))
81.227824     	((3.555642e-04 -1.084185e-04 -5.085014e-04) (9.401539e-05 -7.935211e-06 -5.423318e-05)) ((1.261185e-09 7.281813e-09 -2.732241e-11) (-3.337101e-07 -3.590546e-06 6.247892e-08))
82.228093     	((3.570821e-04 -1.177677e-04 -5.081147e-04) (9.405693e-05 -8.655062e-06 -5.417597e-05)) ((1.367714e-09 7.331047e-09 -2.675040e-11) (-3.633368e-07 -3.593980e-06 6.688708e-08))
83.226668     	((3.588069e-04 -1.278341e-04 -5.081035e-04) (9.412028e-05 -9.430075e-06 -5.411809e-05)) ((1.482472e-09 7.383331e-09 -2.434698e-11) (-3.953518e-07 -3.598269e-06 7.180582e-08))
84.223372     	((3.609028e-04 -1.387231e-04 -5.083069e-04) (9.420820e-05 -1.026611e-05 -5.406543e-05)) ((1.606619e-09 7.441366e-09 -2.126419e-11) (-4.299409e-07 -3.603327e-06 7.723347e-08))
85.218024     	((3.634232e-04 -1.505481e-04 -5.087669e-04) (9.433119e-05 -1.117275e-05 -5.402168e-05)) ((1.742394e-09 7.507376e-09 -1.863514e-11) (-4.673961e-07 -3.609335e-06 8.294668e-08))
86.210461     	((3.665331e-04 -1.634615e-04 -5.094796e-04) (9.449716e-05 -1.215979e-05 -5.398619e-05)) ((1.890650e-09 7.582077e-09 -1.639280e-11) (-5.081717e-07 -3.616687e-06 8.885668e-08))
87.200595     	((3.703849e-04 -1.774045e-04 -5.106907e-04) (9.470943e-05 -1.323029e-05 -5.395297e-05)) ((2.049141e-09 7.668422e-09 -1.348052e-11) (-5.524697e-07 -3.625896e-06 9.535897e-08))
88.188425     	((3.749709e-04 -1.923409e-04 -5.124165e-04) (9.497271e-05 -1.438747e-05 -5.391842e-05)) ((2.214068e-09 7.771511e-09 -8.634176e-12) (-6.002871e-07 -3.637335e-06 1.026190e-07))
89.173965     	((3.803682e-04 -2.082162e-04 -5.147188e-04) (9.529720e-05 -1.563090e-05 -5.388242e-05)) ((2.385434e-09 7.897126e-09 -1.522700e-12) (-6.515384e-07 -3.651351e-06 1.106136e-07))
90.157189     	((3.867096e-04 -2.250411e-04 -5.175679e-04) (9.569217e-05 -1.696154e-05 -5.384352e-05)) ((2.563119e-09 8.044705e-09 6.417538e-12) (-7.062137e-07 -3.668281e-06 1.192729e-07))
