# Forces      
# CofR        : (0.000000e+00 0.000000e+00 0.000000e+00)
# Time        forces(pressure viscous)	moments(pressure viscous)
0             	((0.000000e+00 0.000000e+00 0.000000e+00) (0.000000e+00 0.000000e+00 0.000000e+00)) ((0.000000e+00 0.000000e+00 0.000000e+00) (0.000000e+00 0.000000e+00 0.000000e+00))
0.012         	((1.072253e-04 -4.550667e-09 3.362537e-05) (2.639155e-04 -5.585809e-12 -1.013629e-08)) ((1.814786e-12 -1.796820e-08 1.385307e-12) (1.821756e-13 -1.756348e-05 3.461738e-13))
0.0264        	((1.591966e-04 -8.895186e-08 5.289632e-05) (2.418325e-04 -1.778464e-11 -9.191633e-08)) ((1.193162e-12 7.813681e-09 3.378864e-13) (3.844745e-13 -1.611228e-05 -9.755368e-13))
0.04368       	((1.012144e-04 5.105611e-08 3.151074e-05) (2.193323e-04 2.930117e-11 -2.496746e-07)) ((1.997425e-12 4.715336e-09 1.012639e-12) (2.970022e-13 -1.464084e-05 -3.807865e-12))
0.064416      	((1.202052e-04 -6.646652e-08 3.865660e-05) (1.971453e-04 7.702692e-11 -4.770224e-07)) ((1.235431e-12 1.040278e-08 -4.877976e-13) (-1.878114e-12 -1.319829e-05 -5.032607e-12))
0.0892992     	((8.625537e-05 3.299257e-08 2.639388e-05) (1.761079e-04 2.096468e-10 -7.612038e-07)) ((6.091077e-13 6.749518e-09 5.207345e-13) (-2.221965e-12 -1.184008e-05 -4.800925e-12))
0.119159      	((9.092695e-05 -3.457382e-08 2.749409e-05) (1.569850e-04 2.564551e-10 -1.077586e-06)) ((1.081992e-12 8.670070e-09 8.560836e-14) (-3.574387e-12 -1.061441e-05 -6.533884e-12))
0.154991      	((6.998641e-05 1.736959e-08 2.035879e-05) (1.402311e-04 2.502175e-10 -1.441014e-06)) ((-1.437562e-13 6.197837e-09 -1.252546e-13) (-4.965748e-12 -9.542093e-06 -7.907689e-12))
0.197989      	((7.012368e-05 -1.405589e-08 1.921895e-05) (1.257807e-04 2.600530e-10 -1.869450e-06)) ((7.107016e-13 7.400302e-09 -2.318845e-13) (-9.641101e-12 -8.615484e-06 -8.208474e-12))
0.249587      	((5.766083e-05 6.374222e-09 1.479311e-05) (1.131348e-04 2.525344e-10 -2.404536e-06)) ((6.550328e-13 5.915392e-09 -2.093616e-13) (-1.650679e-11 -7.794198e-06 -8.163796e-12))
0.311504      	((5.588047e-05 -5.425033e-09 1.281636e-05) (1.015272e-04 3.062614e-10 -2.976911e-06)) ((1.042129e-12 6.489002e-09 -3.557538e-13) (-2.185922e-11 -7.031215e-06 -8.350388e-12))
0.385805      	((4.748252e-05 -2.028645e-10 9.398182e-06) (9.073874e-05 2.590564e-10 -3.554395e-06)) ((-3.619430e-13 5.722964e-09 -2.970721e-13) (-2.189090e-11 -6.318601e-06 -7.569073e-12))
0.474966      	((4.463948e-05 -3.952360e-09 7.172410e-06) (8.094029e-05 -1.335808e-10 -4.057511e-06)) ((-5.754623e-13 5.810368e-09 -4.242925e-13) (-1.824076e-11 -5.671593e-06 -7.498437e-12))
0.581959      	((3.909537e-05 -3.962780e-09 4.516939e-06) (7.222357e-05 -4.987035e-10 -4.477999e-06)) ((-6.524746e-13 5.384520e-09 -4.493342e-13) (-1.905357e-11 -5.098511e-06 -8.449289e-12))
0.710351      	((3.634121e-05 5.410419e-10 2.374537e-06) (6.457090e-05 -2.501576e-10 -4.826189e-06)) ((-1.002169e-12 5.367685e-09 -5.328671e-13) (-2.191994e-11 -4.598534e-06 -7.378097e-12))
0.864421      	((3.249818e-05 -8.669493e-10 3.254016e-08) (5.787115e-05 2.940861e-10 -5.133306e-06)) ((-7.817744e-13 5.179607e-09 -5.475923e-13) (-2.429742e-11 -4.164250e-06 -2.281739e-12))
1.049306      	((3.016622e-05 -2.720577e-09 -2.000059e-06) (5.198939e-05 -2.063054e-10 -5.429939e-06)) ((-1.317070e-12 5.097861e-09 -2.985281e-14) (-2.568025e-11 -3.786068e-06 4.490391e-13))
1.271167      	((2.739017e-05 1.750749e-09 -4.078278e-06) (4.681495e-05 -8.637633e-10 -5.734596e-06)) ((2.522216e-13 4.900300e-09 -7.989107e-13) (-3.008056e-11 -3.456400e-06 -2.977428e-12))
1.5374        	((2.555445e-05 -7.735367e-09 -6.015671e-06) (4.228172e-05 -9.506856e-10 -6.051673e-06)) ((-1.912936e-13 4.818898e-09 -1.553878e-12) (-3.264532e-11 -3.170564e-06 -1.181568e-11))
1.85688       	((2.362789e-05 -1.176266e-08 -8.008737e-06) (3.834697e-05 -2.849218e-10 -6.387976e-06)) ((-4.223226e-13 4.726580e-09 -6.261142e-13) (-2.701804e-11 -2.924772e-06 -3.270364e-11))
2.240256      	((2.244229e-05 -8.305647e-09 -9.871430e-06) (3.497338e-05 -4.533842e-10 -6.738917e-06)) ((-6.239534e-13 4.736893e-09 -8.914690e-13) (-1.900374e-11 -2.715612e-06 -6.242467e-11))
2.700307      	((2.158732e-05 -1.219432e-08 -1.162853e-05) (3.210157e-05 -1.390267e-09 -7.114347e-06)) ((-4.046725e-13 4.749602e-09 -1.446031e-13) (-3.689344e-11 -2.538426e-06 -8.961419e-11))
3.252369      	((2.124557e-05 -1.643632e-08 -1.347257e-05) (2.965231e-05 -1.574558e-09 -7.519857e-06)) ((-3.690912e-13 4.831499e-09 5.043887e-13) (-6.949461e-11 -2.387526e-06 -1.001313e-10))
3.914842      	((2.102395e-05 -1.810713e-08 -1.537004e-05) (2.754459e-05 -1.206269e-09 -7.981339e-06)) ((-7.271437e-13 4.920373e-09 1.392320e-12) (-9.195781e-11 -2.258076e-06 -9.531454e-11))
4.709811      	((2.119233e-05 -1.880661e-08 -1.725723e-05) (2.572896e-05 -1.425670e-09 -8.465887e-06)) ((-9.015542e-13 5.028519e-09 8.725932e-13) (-1.066534e-10 -2.146426e-06 -8.212048e-11))
5.663773      	((2.149900e-05 -2.072634e-08 -1.914158e-05) (2.415707e-05 -1.711792e-09 -8.984634e-06)) ((-7.381080e-13 5.131403e-09 3.259982e-13) (-1.116488e-10 -2.050092e-06 -5.200131e-11))
6.808528      	((2.202243e-05 -1.751578e-08 -2.099801e-05) (2.281037e-05 -1.356641e-09 -9.536169e-06)) ((-8.204691e-13 5.239739e-09 2.459217e-13) (-1.069498e-10 -1.967230e-06 -2.388939e-11))
8.182233      	((2.269216e-05 -2.042163e-08 -2.283409e-05) (2.167994e-05 -4.373555e-10 -1.010205e-05)) ((-3.007018e-13 5.344002e-09 1.129673e-13) (-7.625271e-11 -1.896453e-06 -1.557499e-11))
9.794136      	((2.357511e-05 -2.109287e-08 -2.459114e-05) (2.076733e-05 -1.063954e-11 -1.065756e-05)) ((3.880894e-13 5.453295e-09 -3.309078e-13) (-5.085864e-11 -1.837418e-06 -1.334154e-11))
11.642978     	((2.463553e-05 -1.992574e-08 -2.619144e-05) (2.006590e-05 -7.054486e-10 -1.119813e-05)) ((6.949796e-13 5.557221e-09 -2.998891e-13) (-6.192296e-11 -1.789134e-06 -3.250130e-11))
13.727972     	((2.576651e-05 -1.854563e-08 -2.760019e-05) (1.956966e-05 -1.723105e-09 -1.170976e-05)) ((1.134595e-12 5.658734e-09 -3.897351e-13) (-9.633015e-11 -1.750521e-06 -7.937066e-11))
16.048608     	((2.699995e-05 -1.896662e-08 -2.880098e-05) (1.925831e-05 -2.635927e-09 -1.215795e-05)) ((1.385799e-12 5.759356e-09 -5.098952e-13) (-1.358250e-10 -1.720790e-06 -1.311840e-10))
18.40215      	((2.814249e-05 -1.756694e-08 -2.981769e-05) (1.910082e-05 -2.869128e-09 -1.249990e-05)) ((1.510352e-12 5.861151e-09 -6.495893e-13) (-1.646554e-10 -1.699661e-06 -1.646104e-10))
20.754612     	((2.913022e-05 -1.839814e-08 -3.062741e-05) (1.904158e-05 -3.294020e-09 -1.274620e-05)) ((1.692518e-12 5.957340e-09 -7.197206e-13) (-1.843707e-10 -1.684982e-06 -1.850453e-10))
23.107981     	((2.997637e-05 -1.525088e-08 -3.126197e-05) (1.903999e-05 -3.695947e-09 -1.291154e-05)) ((1.750328e-12 6.045615e-09 -8.030247e-13) (-1.838625e-10 -1.675295e-06 -2.064696e-10))
25.463093     	((3.069881e-05 -1.487971e-08 -3.174706e-05) (1.906596e-05 -4.032423e-09 -1.300740e-05)) ((1.837138e-12 6.128276e-09 -7.973877e-13) (-1.768692e-10 -1.669366e-06 -2.318482e-10))
27.799656     	((3.126559e-05 -1.443506e-08 -3.211788e-05) (1.909904e-05 -4.335299e-09 -1.304895e-05)) ((1.773872e-12 6.204693e-09 -7.901365e-13) (-1.698431e-10 -1.666250e-06 -2.558450e-10))
30.108936     	((3.163623e-05 -1.597117e-08 -3.241069e-05) (1.912803e-05 -4.577414e-09 -1.305588e-05)) ((1.744212e-12 6.266341e-09 -7.496298e-13) (-1.581448e-10 -1.664914e-06 -2.769935e-10))
32.392985     	((3.184863e-05 -1.634293e-08 -3.263372e-05) (1.914834e-05 -4.770177e-09 -1.304554e-05)) ((1.694200e-12 6.311452e-09 -7.241124e-13) (-1.421334e-10 -1.664522e-06 -2.931634e-10))
34.657098     	((3.195065e-05 -1.665528e-08 -3.279044e-05) (1.916031e-05 -4.840279e-09 -1.302922e-05)) ((1.623229e-12 6.339495e-09 -6.513988e-13) (-1.282803e-10 -1.664474e-06 -3.016596e-10))
36.907528     	((3.198478e-05 -1.635897e-08 -3.292701e-05) (1.916585e-05 -4.788683e-09 -1.300842e-05)) ((1.545526e-12 6.352017e-09 -5.693792e-13) (-1.195980e-10 -1.664635e-06 -3.028617e-10))
39.149245     	((3.196722e-05 -1.725905e-08 -3.304694e-05) (1.916661e-05 -4.687366e-09 -1.298484e-05)) ((1.530782e-12 6.352763e-09 -5.204679e-13) (-1.188032e-10 -1.664900e-06 -3.001390e-10))
41.38601      	((3.194968e-05 -1.791190e-08 -3.315421e-05) (1.916455e-05 -4.545614e-09 -1.296020e-05)) ((1.502362e-12 6.349203e-09 -5.148834e-13) (-1.228827e-10 -1.665253e-06 -2.977045e-10))
43.62044      	((3.191092e-05 -1.954555e-08 -3.326934e-05) (1.916055e-05 -4.424942e-09 -1.293535e-05)) ((1.510544e-12 6.344057e-09 -5.724374e-13) (-1.290904e-10 -1.665730e-06 -2.962409e-10))
45.854035     	((3.186737e-05 -1.996523e-08 -3.339706e-05) (1.915549e-05 -4.464356e-09 -1.291233e-05)) ((1.497043e-12 6.340627e-09 -6.052198e-13) (-1.378063e-10 -1.666205e-06 -2.963246e-10))
48.087492     	((3.182646e-05 -2.126357e-08 -3.352474e-05) (1.915051e-05 -4.715144e-09 -1.289225e-05)) ((1.450915e-12 6.338611e-09 -6.071816e-13) (-1.473422e-10 -1.666608e-06 -2.987870e-10))
50.320715     	((3.178748e-05 -2.005578e-08 -3.365418e-05) (1.914637e-05 -4.990225e-09 -1.287491e-05)) ((1.366068e-12 6.335567e-09 -6.105993e-13) (-1.521953e-10 -1.666915e-06 -3.045391e-10))
52.553551     	((3.174853e-05 -1.814519e-08 -3.376693e-05) (1.914358e-05 -4.930223e-09 -1.286097e-05)) ((1.269293e-12 6.327574e-09 -5.826023e-13) (-1.484034e-10 -1.667119e-06 -3.080004e-10))
54.785873     	((3.171721e-05 -1.795121e-08 -3.387060e-05) (1.914243e-05 -4.824440e-09 -1.285177e-05)) ((1.304472e-12 6.323307e-09 -6.258492e-13) (-1.418018e-10 -1.667138e-06 -3.103117e-10))
57.017632     	((3.168982e-05 -1.648897e-08 -3.395809e-05) (1.914227e-05 -4.736564e-09 -1.284554e-05)) ((1.304953e-12 6.321146e-09 -6.889101e-13) (-1.332562e-10 -1.667011e-06 -3.130688e-10))
59.248926     	((3.166416e-05 -1.387666e-08 -3.403261e-05) (1.914293e-05 -4.615625e-09 -1.283995e-05)) ((1.306952e-12 6.318025e-09 -7.508634e-13) (-1.206505e-10 -1.666855e-06 -3.143633e-10))
61.479937     	((3.163996e-05 -1.897127e-08 -3.408913e-05) (1.914400e-05 -4.517394e-09 -1.283435e-05)) ((1.359417e-12 6.314966e-09 -8.053780e-13) (-1.211935e-10 -1.666717e-06 -3.120761e-10))
63.710854     	((3.161125e-05 -1.809556e-08 -3.414785e-05) (1.914495e-05 -4.284312e-09 -1.282876e-05)) ((1.278817e-12 6.311189e-09 -8.216494e-13) (-1.208947e-10 -1.666612e-06 -3.105005e-10))
65.941802     	((3.157844e-05 -1.781115e-08 -3.420165e-05) (1.914540e-05 -4.084985e-09 -1.282347e-05)) ((1.255648e-12 6.307987e-09 -8.554828e-13) (-1.187811e-10 -1.666518e-06 -3.105377e-10))
68.172766     	((3.154069e-05 -1.623446e-08 -3.425947e-05) (1.914515e-05 -3.971503e-09 -1.281821e-05)) ((1.213807e-12 6.305217e-09 -8.596684e-13) (-1.122240e-10 -1.666422e-06 -3.123807e-10))
70.403658     	((3.150232e-05 -1.682101e-08 -3.431974e-05) (1.914421e-05 -4.013224e-09 -1.281257e-05)) ((1.259211e-12 6.303155e-09 -8.595501e-13) (-1.058362e-10 -1.666320e-06 -3.152225e-10))
72.634362     	((3.147706e-05 -1.479383e-08 -3.438389e-05) (1.914300e-05 -3.999325e-09 -1.280686e-05)) ((1.230590e-12 6.302048e-09 -8.582368e-13) (-9.695295e-11 -1.666234e-06 -3.176864e-10))
74.864714     	((3.145941e-05 -1.411881e-08 -3.444193e-05) (1.914209e-05 -3.917499e-09 -1.280139e-05)) ((1.207906e-12 6.301625e-09 -8.628334e-13) (-8.722603e-11 -1.666186e-06 -3.182317e-10))
77.094553     	((3.144891e-05 -1.232814e-08 -3.449794e-05) (1.914192e-05 -3.801801e-09 -1.279602e-05)) ((1.151017e-12 6.301454e-09 -8.605062e-13) (-7.782244e-11 -1.666187e-06 -3.161800e-10))
79.323831     	((3.144237e-05 -1.137997e-08 -3.453280e-05) (1.914265e-05 -3.668545e-09 -1.279077e-05)) ((1.099664e-12 6.301034e-09 -8.693690e-13) (-7.115545e-11 -1.666225e-06 -3.122639e-10))
81.552612     	((3.143345e-05 -9.262541e-09 -3.455766e-05) (1.914410e-05 -3.477322e-09 -1.278575e-05)) ((1.028197e-12 6.300091e-09 -8.986619e-13) (-6.707951e-11 -1.666278e-06 -3.069501e-10))
83.780993     	((3.141841e-05 -8.009633e-09 -3.458950e-05) (1.914588e-05 -3.323411e-09 -1.278111e-05)) ((9.620245e-13 6.298875e-09 -9.076714e-13) (-6.508838e-11 -1.666325e-06 -3.006983e-10))
86.009121     	((3.139786e-05 -6.961228e-09 -3.462693e-05) (1.914761e-05 -3.263302e-09 -1.277665e-05)) ((8.909783e-13 6.297241e-09 -9.174636e-13) (-6.380796e-11 -1.666346e-06 -2.948719e-10))
88.237109     	((3.138361e-05 -5.830232e-09 -3.465922e-05) (1.914940e-05 -3.251842e-09 -1.277234e-05)) ((8.273570e-13 6.295696e-09 -9.508641e-13) (-6.282634e-11 -1.666348e-06 -2.908652e-10))
90.465011     	((3.137355e-05 -3.982209e-09 -3.469028e-05) (1.915141e-05 -3.250567e-09 -1.276826e-05)) ((7.362059e-13 6.294467e-09 -9.664918e-13) (-6.071711e-11 -1.666352e-06 -2.889542e-10))
92.692806     	((3.135907e-05 -4.080286e-09 -3.471781e-05) (1.915327e-05 -3.300842e-09 -1.276475e-05)) ((7.400432e-13 6.293428e-09 -9.689247e-13) (-6.107308e-11 -1.666350e-06 -2.877638e-10))
94.920418     	((3.134900e-05 -4.805545e-09 -3.473170e-05) (1.915504e-05 -3.407345e-09 -1.276210e-05)) ((7.438331e-13 6.292891e-09 -9.570865e-13) (-6.511850e-11 -1.666355e-06 -2.870877e-10))
