# Forces      
# CofR        : (0.000000e+00 0.000000e+00 0.000000e+00)
# Time        forces(pressure viscous)	moments(pressure viscous)
0             	((0.000000e+00 0.000000e+00 0.000000e+00) (0.000000e+00 0.000000e+00 0.000000e+00)) ((0.000000e+00 0.000000e+00 0.000000e+00) (0.000000e+00 0.000000e+00 0.000000e+00))
0.012         	((3.204599e-11 -7.583715e-09 9.642278e-11) (9.424987e-13 -8.505879e-11 3.980179e-13)) ((5.459247e-13 2.702015e-15 1.044326e-10) (-1.623164e-12 -4.442854e-14 2.122801e-07))
0.0264        	((-2.459504e-11 2.749602e-09 -2.310063e-10) (1.090569e-12 -9.075916e-11 5.135476e-13)) ((1.284078e-12 -8.161643e-15 3.136574e-11) (-2.886127e-12 -4.205278e-14 1.857956e-07))
0.04368       	((1.432485e-10 -1.388001e-09 1.019069e-10) (1.340247e-12 -5.941121e-11 1.054278e-12)) ((-5.889926e-13 2.771097e-15 1.646523e-11) (-2.431782e-12 -5.619947e-14 1.606819e-07))
0.064416      	((1.072630e-10 -1.162930e-10 -1.079883e-10) (1.198440e-12 -3.169114e-11 9.883979e-13)) ((1.666107e-13 3.444010e-15 1.107810e-11) (-1.230487e-12 -6.460177e-14 1.376282e-07))
0.0892992     	((1.481676e-10 -6.716481e-10 -4.107071e-11) (9.163624e-13 -2.003053e-11 4.628673e-13)) ((-1.789434e-13 1.520401e-14 8.933982e-12) (-5.873358e-13 -5.835932e-14 1.172455e-07))
0.119159      	((7.200477e-11 -6.027016e-11 -8.135219e-11) (1.410069e-12 -1.720852e-11 1.130731e-12)) ((-1.089902e-13 1.393861e-14 7.103582e-12) (2.279203e-13 -7.910091e-14 9.981406e-08))
0.154991      	((1.174618e-10 -5.659159e-10 -1.198211e-10) (1.467687e-12 -1.283867e-11 3.532386e-12)) ((-1.057574e-13 1.630610e-14 5.678466e-12) (8.305822e-13 -8.449009e-14 8.545095e-08))
0.197989      	((9.311915e-11 -4.400754e-10 -1.373739e-10) (-1.974250e-13 -7.814551e-12 9.200040e-12)) ((-8.424015e-14 1.202115e-14 4.448478e-12) (1.153953e-12 -2.685982e-14 7.390891e-08))
0.249587      	((1.539946e-10 -5.151132e-10 -1.695151e-10) (-2.119537e-12 -2.878122e-12 1.770573e-11)) ((-8.572849e-14 1.252805e-14 3.680161e-12) (1.046894e-12 7.518433e-14 6.471886e-08))
0.311504      	((2.217091e-10 -6.442644e-10 -1.587594e-10) (-2.997932e-12 1.560733e-12 2.787219e-11)) ((-6.097785e-14 4.373645e-15 3.259856e-12) (8.499997e-13 1.269269e-13 5.732608e-08))
0.385805      	((2.779831e-10 -8.339340e-10 -1.968175e-10) (-2.369829e-12 -8.894130e-13 3.957300e-11)) ((-4.586792e-14 7.660640e-15 2.845524e-12) (6.365997e-13 1.226620e-13 5.122948e-08))
0.474966      	((3.510078e-10 -1.019973e-09 -1.796012e-10) (-3.808117e-12 -3.147107e-12 5.216830e-11)) ((7.734226e-15 -2.920566e-15 2.487409e-12) (1.919342e-13 1.720355e-13 4.605463e-08))
0.581959      	((4.718095e-10 -1.299759e-09 -1.839080e-10) (-6.652778e-12 -7.545464e-12 6.742591e-11)) ((3.260257e-14 5.178478e-15 2.306841e-12) (-7.218441e-13 2.388739e-13 4.155488e-08))
0.710351      	((6.012046e-10 -1.277769e-09 -1.928336e-10) (-1.168243e-11 -1.999288e-11 8.715654e-11)) ((5.667594e-14 5.056240e-15 2.192822e-12) (-1.436149e-12 3.955451e-13 3.757634e-08))
0.864421      	((6.460417e-10 -1.031106e-09 -2.445368e-10) (-2.168877e-11 -1.367004e-11 1.042032e-10)) ((9.138212e-14 7.978731e-15 2.086410e-12) (-1.272124e-12 6.582701e-13 3.402177e-08))
1.049306      	((7.011063e-10 -9.278780e-10 -3.158352e-10) (-3.583457e-11 1.630144e-11 1.259293e-10)) ((1.150238e-13 5.974279e-15 1.973774e-12) (-4.492077e-13 9.366994e-13 3.083118e-08))
1.271167      	((6.279055e-10 -8.052326e-10 -3.683193e-10) (-6.236803e-11 5.354860e-11 1.545504e-10)) ((1.453254e-13 1.611329e-14 1.889459e-12) (5.185635e-13 1.531059e-12 2.797433e-08))
1.5374        	((4.669546e-10 -8.078724e-10 -4.390309e-10) (-1.060892e-10 9.638635e-11 1.815190e-10)) ((1.322517e-13 1.413710e-14 1.826032e-12) (1.548721e-12 2.586918e-12 2.543678e-08))
1.85688       	((3.174772e-10 -6.414079e-10 -5.234149e-10) (-1.588154e-10 1.296608e-10 2.086804e-10)) ((1.219493e-13 2.292384e-14 1.745414e-12) (2.756990e-12 3.847642e-12 2.320450e-08))
2.240256      	((1.746676e-10 -4.795913e-10 -6.341711e-10) (-2.172112e-10 1.633598e-10 2.401103e-10)) ((1.407642e-13 2.670508e-14 1.648012e-12) (4.205405e-12 5.380348e-12 2.125479e-08))
2.700307      	((7.834015e-11 -3.566134e-10 -7.668844e-10) (-2.780892e-10 2.157509e-10 2.790259e-10)) ((1.330874e-13 1.828339e-14 1.561276e-12) (6.016918e-12 7.227158e-12 1.955443e-08))
3.252369      	((-3.787301e-11 -2.321210e-10 -8.184689e-10) (-3.345034e-10 2.778173e-10 3.221843e-10)) ((1.103199e-13 9.480586e-15 1.453951e-12) (7.742649e-12 8.997402e-12 1.806407e-08))
3.914842      	((-3.765362e-11 2.409197e-11 -9.186552e-10) (-3.712423e-10 3.340017e-10 3.635416e-10)) ((8.028570e-14 4.516180e-15 1.356960e-12) (8.908992e-12 1.018835e-11 1.674386e-08))
4.709811      	((-9.835480e-11 1.217681e-10 -1.028679e-09) (-3.848993e-10 3.680200e-10 4.164582e-10)) ((6.244979e-14 2.545380e-16 1.269025e-12) (9.398064e-12 1.070597e-11 1.556002e-08))
5.663773      	((-1.569086e-10 9.972915e-11 -1.141779e-09) (-3.765935e-10 3.697541e-10 4.727181e-10)) ((6.187310e-14 -5.534567e-15 1.179399e-12) (9.059758e-12 1.071422e-11 1.448828e-08))
6.808528      	((-1.329070e-10 6.794016e-11 -1.278372e-09) (-3.466670e-10 3.385032e-10 5.231179e-10)) ((4.975916e-14 -1.091074e-14 1.098778e-12) (7.989427e-12 1.009584e-11 1.350978e-08))
8.182233      	((-8.924386e-11 9.576140e-11 -1.374393e-09) (-2.992379e-10 2.892586e-10 5.858905e-10)) ((3.376547e-14 -1.841655e-14 1.019793e-12) (7.001309e-12 8.937815e-12 1.261021e-08))
9.83068       	((-9.556679e-11 -4.854157e-11 -1.537815e-09) (-2.423648e-10 2.311424e-10 6.503501e-10)) ((3.667084e-14 -2.448679e-14 9.466728e-13) (5.680422e-12 7.567091e-12 1.178192e-08))
11.808816     	((1.261186e-11 -1.542753e-10 -1.636202e-09) (-1.840406e-10 1.734422e-10 7.189934e-10)) ((2.045598e-14 -3.168058e-14 8.789757e-13) (3.859325e-12 5.955312e-12 1.102094e-08))
14.182579     	((1.351705e-11 -1.336140e-10 -1.807478e-09) (-1.345221e-10 1.263645e-10 7.953195e-10)) ((-8.380673e-16 -3.230103e-14 8.125469e-13) (2.270013e-12 4.593008e-12 1.032250e-08))
17.031095     	((8.974395e-11 -1.044884e-10 -1.971984e-09) (-9.565305e-11 9.055533e-11 8.689541e-10)) ((-1.679551e-14 -3.028162e-14 7.547644e-13) (1.474857e-12 3.580244e-12 9.682948e-09))
20.449314     	((1.134846e-10 -1.391410e-10 -2.143908e-09) (-7.173019e-11 6.967712e-11 9.459853e-10)) ((-2.229878e-14 -2.931175e-14 7.017938e-13) (1.206610e-12 2.980586e-12 9.098459e-09))
24.551176     	((1.183824e-10 -1.203234e-10 -2.301196e-09) (-6.361240e-11 6.511113e-11 1.025696e-09)) ((-3.128515e-14 -2.892369e-14 6.541867e-13) (1.396710e-12 2.761694e-12 8.564542e-09))
29.473411     	((1.068547e-10 -1.106071e-10 -2.519587e-09) (-6.804958e-11 7.570070e-11 1.109618e-09)) ((-3.297241e-14 -2.819650e-14 6.126065e-13) (1.903896e-12 2.821226e-12 8.076334e-09))
35.380094     	((8.557674e-11 -9.380965e-11 -2.841434e-09) (-8.279816e-11 9.532209e-11 1.200614e-09)) ((-3.531127e-14 -2.941914e-14 5.762436e-13) (2.613056e-12 3.064294e-12 7.629461e-09))
42.468112     	((5.313954e-11 -7.385908e-11 -3.120476e-09) (-1.000980e-10 1.178998e-10 1.300733e-09)) ((-3.636181e-14 -3.033698e-14 5.434455e-13) (3.322869e-12 3.397556e-12 7.220770e-09))
50.973735     	((3.990149e-11 -6.128082e-11 -3.412695e-09) (-1.158203e-10 1.388946e-10 1.420099e-09)) ((-3.730397e-14 -3.271953e-14 5.129128e-13) (3.965544e-12 3.709059e-12 6.847632e-09))
61.180482     	((7.576745e-12 -5.224165e-11 -3.708942e-09) (-1.299701e-10 1.560602e-10 1.563546e-09)) ((-3.583004e-14 -3.388770e-14 4.845340e-13) (4.430072e-12 4.069564e-12 6.507475e-09))
73.428578     	((-4.133181e-12 -5.400582e-11 -3.967862e-09) (-1.426910e-10 1.675858e-10 1.717744e-09)) ((-3.379493e-14 -3.466856e-14 4.583886e-13) (4.709022e-12 4.436059e-12 6.197752e-09))
88.126294     	((-1.455288e-11 -3.731939e-11 -4.248154e-09) (-1.532114e-10 1.751384e-10 1.876270e-09)) ((-3.307665e-14 -3.527649e-14 4.348975e-13) (4.837144e-12 4.702054e-12 5.916050e-09))
105.763553    	((-2.851710e-11 -4.270670e-11 -4.527604e-09) (-1.600245e-10 1.786846e-10 2.037092e-09)) ((-3.128964e-14 -3.517855e-14 4.136528e-13) (4.784827e-12 4.855255e-12 5.659895e-09))
126.928263    	((-3.588822e-11 -3.538966e-11 -4.820962e-09) (-1.646238e-10 1.782342e-10 2.201311e-09)) ((-2.982719e-14 -3.609541e-14 3.943272e-13) (4.626106e-12 4.972343e-12 5.426808e-09))
152.325916    	((-3.327098e-11 -3.118183e-11 -5.122829e-09) (-1.672947e-10 1.756645e-10 2.371227e-09)) ((-2.959177e-14 -3.557149e-14 3.765380e-13) (4.430264e-12 5.047307e-12 5.214659e-09))
182.803099    	((-3.013801e-11 -2.664719e-11 -5.425380e-09) (-1.682619e-10 1.716863e-10 2.548518e-09)) ((-2.916998e-14 -3.612196e-14 3.598675e-13) (4.216602e-12 5.064551e-12 5.021403e-09))
219.375719    	((-2.450292e-11 -1.898102e-11 -5.730973e-09) (-1.678092e-10 1.658108e-10 2.732026e-09)) ((-2.847782e-14 -3.721971e-14 3.450376e-13) (3.950663e-12 5.079907e-12 4.845325e-09))
263.262863    	((-1.697517e-11 -8.215184e-12 -6.025244e-09) (-1.662567e-10 1.580755e-10 2.923588e-09)) ((-2.843006e-14 -3.804419e-14 3.321190e-13) (3.638569e-12 5.065258e-12 4.684901e-09))
315.927436    	((-1.190429e-11 1.287785e-12 -6.303096e-09) (-1.639823e-10 1.492603e-10 3.122139e-09)) ((-2.913173e-14 -3.862310e-14 3.202383e-13) (3.351511e-12 4.986897e-12 4.538792e-09))
379.124923    	((-7.284518e-12 1.406748e-11 -6.558143e-09) (-1.602350e-10 1.400807e-10 3.323512e-09)) ((-2.998654e-14 -4.044756e-14 3.087879e-13) (3.077385e-12 4.875716e-12 4.405795e-09))
454.961908    	((-4.155923e-12 2.183691e-11 -6.795795e-09) (-1.555623e-10 1.309810e-10 3.526118e-09)) ((-3.052169e-14 -4.201984e-14 2.982244e-13) (2.814189e-12 4.716032e-12 4.284792e-09))
545.966289    	((-2.919687e-12 2.341921e-11 -7.014573e-09) (-1.505235e-10 1.223728e-10 3.727931e-09)) ((-3.092695e-14 -4.367521e-14 2.884814e-13) (2.565785e-12 4.555844e-12 4.174913e-09))
655.171547    	((-2.619534e-12 2.074733e-11 -7.212420e-09) (-1.453664e-10 1.142053e-10 3.928832e-09)) ((-3.141145e-14 -4.427497e-14 2.795820e-13) (2.318245e-12 4.389835e-12 4.075380e-09))
786.217856    	((-3.486759e-12 1.795817e-11 -7.386861e-09) (-1.395798e-10 1.064655e-10 4.127188e-09)) ((-3.184980e-14 -4.440439e-14 2.715314e-13) (2.087230e-12 4.162238e-12 3.985392e-09))
943.473427    	((-4.386957e-12 1.440747e-11 -7.541276e-09) (-1.336932e-10 9.910182e-11 4.322015e-09)) ((-3.257080e-14 -4.430382e-14 2.641501e-13) (1.895279e-12 3.938240e-12 3.904163e-09))
1132.180113   	((-4.911787e-12 1.389252e-11 -7.677161e-09) (-1.276571e-10 9.210052e-11 4.511668e-09)) ((-3.365813e-14 -4.391142e-14 2.574131e-13) (1.723005e-12 3.710663e-12 3.830989e-09))
1358.628135   	((-5.208103e-12 1.435619e-11 -7.797188e-09) (-1.217037e-10 8.541410e-11 4.694841e-09)) ((-3.419561e-14 -4.374283e-14 2.513855e-13) (1.576045e-12 3.485280e-12 3.765184e-09))
1625.664731   	((-1.005573e-11 1.570371e-11 -7.905274e-09) (-1.158340e-10 7.961129e-11 4.870645e-09)) ((-3.403926e-14 -4.429586e-14 2.459767e-13) (1.460418e-12 3.288150e-12 3.706119e-09))
1933.292869   	((-1.529962e-11 1.330638e-11 -8.004609e-09) (-1.098996e-10 7.432534e-11 5.040949e-09)) ((-3.324026e-14 -4.488481e-14 2.411685e-13) (1.353765e-12 3.141276e-12 3.653161e-09))
2281.515391   	((-8.173670e-12 1.365926e-11 -8.089698e-09) (-1.037137e-10 6.903374e-11 5.204482e-09)) ((-3.269238e-14 -4.399902e-14 2.367806e-13) (1.239417e-12 2.937137e-12 3.605744e-09))
2670.334386   	((-6.446718e-12 1.351490e-11 -8.165313e-09) (-9.746410e-11 6.444974e-11 5.355606e-09)) ((-3.220534e-14 -4.354188e-14 2.329196e-13) (1.145001e-12 2.683593e-12 3.563355e-09))
3076.306587   	((-6.043674e-12 1.181651e-11 -8.232666e-09) (-9.146399e-11 6.025284e-11 5.493780e-09)) ((-3.201092e-14 -4.316592e-14 2.295150e-13) (1.061882e-12 2.447702e-12 3.525521e-09))
3482.285021   	((-7.710124e-12 8.327571e-12 -8.292415e-09) (-8.575772e-11 5.642144e-11 5.620372e-09)) ((-3.182059e-14 -4.290316e-14 2.265078e-13) (9.933611e-13 2.243568e-12 3.491739e-09))
3888.270032   	((-8.446202e-12 4.773678e-12 -8.345509e-09) (-8.030193e-11 5.304414e-11 5.736610e-09)) ((-3.150677e-14 -4.305012e-14 2.237892e-13) (9.504303e-13 2.068172e-12 3.461542e-09))
4294.261847   	((-7.925118e-12 1.832228e-12 -8.393812e-09) (-7.531743e-11 5.041369e-11 5.843203e-09)) ((-3.127352e-14 -4.334767e-14 2.213284e-13) (9.272393e-13 1.920479e-12 3.434496e-09))
4700.260611   	((-7.534948e-12 -4.726873e-13 -8.438914e-09) (-7.096242e-11 4.833476e-11 5.940900e-09)) ((-3.129295e-14 -4.365656e-14 2.191160e-13) (9.175882e-13 1.796173e-12 3.410217e-09))
5106.266247   	((-7.405032e-12 -1.920056e-12 -8.480542e-09) (-6.707414e-11 4.660624e-11 6.030730e-09)) ((-3.144345e-14 -4.398520e-14 2.171105e-13) (9.190744e-13 1.686137e-12 3.388355e-09))
5512.278681   	((-6.851368e-12 -2.720922e-12 -8.519174e-09) (-6.355730e-11 4.514146e-11 6.113670e-09)) ((-3.174471e-14 -4.423671e-14 2.152908e-13) (9.321479e-13 1.579411e-12 3.368617e-09))
5918.297701   	((-6.311723e-12 -3.412668e-12 -8.555048e-09) (-6.044262e-11 4.390723e-11 6.190480e-09)) ((-3.197808e-14 -4.445620e-14 2.136039e-13) (9.512591e-13 1.482663e-12 3.350746e-09))
6324.323037   	((-5.930850e-12 -4.153637e-12 -8.588399e-09) (-5.778004e-11 4.294313e-11 6.261744e-09)) ((-3.219575e-14 -4.459340e-14 2.120428e-13) (9.719372e-13 1.400469e-12 3.334523e-09))
6730.35434    	((-5.437993e-12 -4.731149e-12 -8.619192e-09) (-5.544175e-11 4.211856e-11 6.328010e-09)) ((-3.239612e-14 -4.471541e-14 2.106296e-13) (9.934166e-13 1.330462e-12 3.319767e-09))
7136.391282   	((-5.227230e-12 -5.218282e-12 -8.647749e-09) (-5.336245e-11 4.136394e-11 6.389704e-09)) ((-3.254794e-14 -4.484530e-14 2.093539e-13) (1.015446e-12 1.269737e-12 3.306320e-09))
7542.433643   	((-5.544307e-12 -5.586548e-12 -8.674093e-09) (-5.155376e-11 4.069094e-11 6.447192e-09)) ((-3.265875e-14 -4.501219e-14 2.081949e-13) (1.037266e-12 1.216814e-12 3.294047e-09))
7948.48105    	((-6.041681e-12 -5.796311e-12 -8.698251e-09) (-5.000139e-11 4.007762e-11 6.500789e-09)) ((-3.275403e-14 -4.515033e-14 2.071346e-13) (1.059422e-12 1.172724e-12 3.282828e-09))
8354.533143   	((-6.403164e-12 -5.861245e-12 -8.720450e-09) (-4.865245e-11 3.954190e-11 6.550853e-09)) ((-3.283477e-14 -4.529607e-14 2.061606e-13) (1.081850e-12 1.135905e-12 3.272558e-09))
8760.589535   	((-6.843635e-12 -6.059764e-12 -8.738736e-09) (-4.745874e-11 3.909787e-11 6.597660e-09)) ((-3.289196e-14 -4.542467e-14 2.052722e-13) (1.103972e-12 1.103079e-12 3.263146e-09))
9166.649977   	((-7.259567e-12 -6.370559e-12 -8.757559e-09) (-4.637328e-11 3.875272e-11 6.641460e-09)) ((-3.293898e-14 -4.550535e-14 2.044477e-13) (1.123404e-12 1.072631e-12 3.254506e-09))
9572.714195   	((-7.597815e-12 -6.670966e-12 -8.774742e-09) (-4.536265e-11 3.843397e-11 6.682480e-09)) ((-3.298813e-14 -4.560817e-14 2.036916e-13) (1.137667e-12 1.044727e-12 3.246566e-09))
