# Forces      
# CofR        : (0.000000e+00 0.000000e+00 0.000000e+00)
# Time        forces(pressure viscous)	moments(pressure viscous)
0             	((0.000000e+00 0.000000e+00 0.000000e+00) (7.965233e-05 -4.690507e-15 7.746775e-10)) ((0.000000e+00 0.000000e+00 0.000000e+00) (-1.808857e-16 -1.789692e-06 -1.224840e-15))
0.012         	((2.316629e-02 -3.794616e-08 5.892326e-03) (9.137099e-05 -1.409654e-10 -5.769651e-08)) ((-1.804234e-12 3.413083e-07 -3.780275e-12) (-4.623573e-13 -2.637942e-06 2.132266e-12))
0.0264        	((-1.672777e-03 -2.658059e-08 -4.038251e-04) (9.315052e-05 -2.338780e-10 -8.808270e-08)) ((1.498206e-12 -2.466261e-08 3.700878e-12) (2.751308e-12 -2.951908e-06 3.862711e-12))
0.04368       	((-4.809475e-03 -4.229129e-08 -5.925692e-04) (8.271330e-05 -2.577617e-10 -8.308662e-08)) ((4.264613e-12 -7.523062e-08 4.689205e-12) (5.851257e-12 -2.629528e-06 2.072608e-12))
0.064416      	((-4.525888e-05 5.779718e-08 -1.998328e-04) (7.323629e-05 1.529444e-09 -4.231745e-08)) ((-3.848535e-12 -2.601130e-10 2.579490e-13) (1.950903e-12 -2.361863e-06 6.600161e-12))
0.0892992     	((5.732920e-05 -8.156632e-08 -1.210743e-04) (6.759674e-05 2.422783e-09 -3.750952e-08)) ((1.781197e-12 2.518151e-09 8.271806e-14) (-9.518026e-12 -2.233060e-06 6.586678e-13))
0.119159      	((-7.475159e-05 5.021610e-08 -7.920901e-05) (6.241203e-05 1.807252e-09 -6.695797e-08)) ((-1.829855e-12 -1.792355e-09 4.449985e-13) (-1.315791e-11 -2.090369e-06 -1.688024e-11))
0.154991      	((-3.906292e-05 1.174727e-08 -5.350769e-05) (5.694139e-05 1.463908e-09 -8.296452e-08)) ((2.656367e-12 -1.076820e-09 -1.051666e-13) (-1.039320e-11 -1.932267e-06 -1.385200e-11))
0.197989      	((-9.338915e-06 -5.579207e-09 -3.666444e-05) (5.145501e-05 1.032584e-09 -1.032349e-07)) ((1.711617e-12 -4.105353e-10 -1.175285e-12) (-9.702448e-12 -1.771922e-06 1.341812e-14))
0.249587      	((1.389296e-06 9.545422e-09 -2.637325e-05) (4.611647e-05 6.081489e-10 -1.296953e-07)) ((7.321324e-14 -1.676806e-10 -7.932803e-13) (-6.983467e-12 -1.612583e-06 4.005766e-12))
0.311504      	((6.197035e-06 6.084204e-10 -1.990385e-05) (4.108859e-05 2.544287e-10 -1.597319e-07)) ((3.696553e-13 -6.870220e-11 -2.755590e-13) (-3.896046e-12 -1.457623e-06 4.688982e-12))
0.385805      	((8.703140e-06 -2.809251e-10 -1.585178e-05) (3.650005e-05 3.636359e-11 -1.916063e-07)) ((3.745378e-13 -3.033517e-11 -1.534154e-13) (-1.987718e-12 -1.310895e-06 5.814614e-12))
0.474966      	((1.004401e-05 -1.699600e-09 -1.324850e-05) (3.241893e-05 -2.820387e-11 -2.235388e-07)) ((2.826786e-13 -1.915496e-12 -1.220708e-13) (-1.259406e-12 -1.175836e-06 6.936814e-12))
0.581959      	((1.060345e-05 -1.870585e-09 -1.164612e-05) (2.883207e-05 -3.552592e-11 -2.550662e-07)) ((2.574838e-13 1.893731e-11 -1.917843e-14) (-2.147654e-12 -1.053457e-06 7.253744e-12))
0.710351      	((1.059027e-05 -1.571524e-09 -1.066775e-05) (2.570491e-05 -8.239453e-11 -2.824413e-07)) ((2.582360e-13 3.192456e-11 2.229336e-14) (-3.603721e-12 -9.440769e-07 8.929393e-12))
0.864421      	((1.021285e-05 -1.231519e-09 -1.010028e-05) (2.299635e-05 -1.041876e-10 -3.049426e-07)) ((1.765438e-13 3.735874e-11 1.989980e-14) (-4.711714e-12 -8.475991e-07 9.325313e-12))
1.049306      	((9.653001e-06 -9.831240e-10 -9.770080e-06) (2.065385e-05 -8.743360e-11 -3.256887e-07)) ((1.296659e-13 3.807340e-11 2.428900e-14) (-5.305529e-12 -7.629270e-07 6.999003e-12))
1.271167      	((9.009839e-06 -8.841343e-10 -9.596235e-06) (1.862168e-05 -5.622690e-11 -3.482566e-07)) ((9.545351e-14 3.628511e-11 5.760105e-15) (-5.664901e-12 -6.885469e-07 4.056788e-12))
1.5374        	((8.334798e-06 -1.003662e-09 -9.519379e-06) (1.684349e-05 -3.824792e-11 -3.744076e-07)) ((6.416610e-14 3.235249e-11 3.409398e-15) (-5.974290e-12 -6.229893e-07 1.649649e-12))
1.85688       	((7.673205e-06 -8.307079e-10 -9.501585e-06) (1.527336e-05 -3.967537e-11 -4.045168e-07)) ((4.359958e-14 2.802457e-11 -1.852833e-15) (-6.257198e-12 -5.649503e-07 1.020956e-13))
2.240256      	((7.052640e-06 -5.923186e-10 -9.509855e-06) (1.387907e-05 -6.500718e-11 -4.380274e-07)) ((4.191942e-14 2.457918e-11 -7.118213e-16) (-6.497886e-12 -5.133771e-07 -8.587413e-13))
2.700307      	((6.481490e-06 -6.172269e-10 -9.529722e-06) (1.263691e-05 -8.704391e-11 -4.741175e-07)) ((1.866976e-14 2.160478e-11 -7.841231e-15) (-6.761568e-12 -4.674195e-07 -1.583034e-12))
3.252369      	((5.957633e-06 -7.779202e-10 -9.548280e-06) (1.152706e-05 -1.006406e-10 -5.127084e-07)) ((4.449590e-14 1.921072e-11 -4.963873e-15) (-7.424701e-12 -4.263457e-07 -2.340693e-12))
3.914842      	((5.481589e-06 -1.095183e-09 -9.565022e-06) (1.053333e-05 -1.165975e-10 -5.540241e-07)) ((7.390386e-14 1.718831e-11 -3.042437e-15) (-8.785513e-12 -3.895600e-07 -3.304898e-12))
4.709811      	((5.056190e-06 -1.359648e-09 -9.575047e-06) (9.643985e-06 -1.355912e-10 -5.979078e-07)) ((9.063336e-14 1.577586e-11 4.702196e-15) (-1.051342e-11 -3.566280e-07 -4.036853e-12))
5.663773      	((4.683685e-06 -1.724990e-09 -9.577564e-06) (8.850422e-06 -1.605784e-10 -6.440931e-07)) ((9.085452e-14 1.510208e-11 2.278991e-15) (-1.245834e-11 -3.272302e-07 -3.857918e-12))
6.808528      	((4.360904e-06 -1.610064e-09 -9.566398e-06) (8.144374e-06 -1.763770e-10 -6.924151e-07)) ((8.033411e-14 1.506471e-11 1.869743e-15) (-1.387274e-11 -3.010615e-07 -3.266972e-12))
8.182233      	((4.086559e-06 -1.963385e-09 -9.539628e-06) (7.517100e-06 -2.012591e-10 -7.428547e-07)) ((1.088798e-13 1.560559e-11 -2.217544e-15) (-1.587366e-11 -2.778034e-07 -1.792395e-12))
9.83068       	((3.863173e-06 -2.095012e-09 -9.498404e-06) (6.959560e-06 -2.338563e-10 -7.953362e-07)) ((1.162268e-13 1.676992e-11 -1.700729e-15) (-1.822197e-11 -2.571265e-07 2.439535e-13))
11.808816     	((3.689165e-06 -2.537723e-09 -9.444661e-06) (6.463811e-06 -2.761567e-10 -8.497325e-07)) ((1.426239e-13 1.861003e-11 6.355994e-15) (-2.153118e-11 -2.387339e-07 1.238274e-12))
14.182579     	((3.562878e-06 -2.509702e-09 -9.377298e-06) (6.023226e-06 -3.172938e-10 -9.056175e-07)) ((1.364692e-13 2.118204e-11 2.601946e-15) (-2.516967e-11 -2.223791e-07 1.991841e-13))
17.031095     	((3.485872e-06 -1.963898e-09 -9.297613e-06) (5.632784e-06 -3.438422e-10 -9.621815e-07)) ((1.118392e-13 2.451401e-11 -7.917817e-15) (-2.675849e-11 -2.078823e-07 -1.861517e-12))
20.449314     	((3.455008e-06 -1.503895e-09 -9.205472e-06) (5.288908e-06 -3.503290e-10 -1.018229e-06)) ((1.048249e-13 2.855372e-11 -1.764858e-14) (-2.719580e-11 -1.951208e-07 -4.113854e-12))
24.551176     	((3.467348e-06 -1.343167e-09 -9.103272e-06) (4.988975e-06 -3.449473e-10 -1.072475e-06)) ((9.193924e-14 3.327316e-11 -2.874425e-14) (-2.687530e-11 -1.840094e-07 -6.372928e-12))
29.473411     	((3.518591e-06 -5.368692e-10 -8.990460e-06) (4.730104e-06 -3.017782e-10 -1.123805e-06)) ((6.454952e-14 3.871980e-11 -3.356601e-14) (-2.462242e-11 -1.744680e-07 -8.687619e-12))
35.380094     	((3.604538e-06 6.126795e-10 -8.869545e-06) (4.510779e-06 -2.006880e-10 -1.171513e-06)) ((3.654898e-14 4.497506e-11 -3.157410e-14) (-1.931321e-11 -1.664472e-07 -1.186058e-11))
42.468112     	((3.719402e-06 1.621815e-09 -8.744304e-06) (4.328629e-06 -7.976209e-11 -1.215085e-06)) ((8.488763e-15 5.173728e-11 -3.354126e-14) (-1.213596e-11 -1.598972e-07 -1.536165e-11))
50.973735     	((3.850337e-06 2.653342e-09 -8.614769e-06) (4.181189e-06 4.330846e-11 -1.254256e-06)) ((-5.441174e-15 5.849057e-11 -3.680382e-14) (-3.866672e-12 -1.547127e-07 -1.863216e-11))
60.94639      	((3.987049e-06 3.963119e-09 -8.480938e-06) (4.066194e-06 2.016857e-10 -1.286997e-06)) ((-2.050425e-14 6.459815e-11 -3.511998e-14) (6.411884e-12 -1.507620e-07 -2.082392e-11))
72.374514     	((4.111793e-06 5.240122e-09 -8.340066e-06) (3.977763e-06 4.151403e-10 -1.311238e-06)) ((-2.252152e-14 6.947981e-11 -3.898418e-14) (1.738825e-11 -1.477505e-07 -2.223111e-11))
85.249621     	((4.211190e-06 6.409646e-09 -8.191105e-06) (3.907877e-06 6.305831e-10 -1.326011e-06)) ((-3.872957e-14 7.322420e-11 -4.227774e-14) (2.907227e-11 -1.453575e-07 -2.316494e-11))
99.569281     	((4.280407e-06 7.395017e-09 -8.037808e-06) (3.849924e-06 8.583880e-10 -1.332816e-06)) ((-6.328613e-14 7.614446e-11 -4.273719e-14) (4.139719e-11 -1.433556e-07 -2.304659e-11))
114.056337    	((4.331205e-06 8.183469e-09 -7.896056e-06) (3.801931e-06 1.092015e-09 -1.334231e-06)) ((-8.650666e-14 7.844265e-11 -4.369716e-14) (5.303411e-11 -1.417213e-07 -2.304966e-11))
128.593914    	((4.358910e-06 8.842296e-09 -7.767177e-06) (3.760556e-06 1.327581e-09 -1.333568e-06)) ((-1.021343e-13 8.017892e-11 -4.253930e-14) (6.384065e-11 -1.403388e-07 -2.281806e-11))
143.156687    	((4.372920e-06 9.203662e-09 -7.651216e-06) (3.724857e-06 1.540204e-09 -1.332257e-06)) ((-1.112794e-13 8.144887e-11 -4.419685e-14) (7.318019e-11 -1.391648e-07 -2.115532e-11))
157.72568     	((4.377408e-06 9.464703e-09 -7.544492e-06) (3.693794e-06 1.733718e-09 -1.330868e-06)) ((-1.134537e-13 8.234774e-11 -4.435011e-14) (8.092885e-11 -1.381536e-07 -1.878689e-11))
172.298692    	((4.376651e-06 9.400903e-09 -7.446214e-06) (3.666611e-06 1.890424e-09 -1.329634e-06)) ((-1.084092e-13 8.299283e-11 -4.244246e-14) (8.658544e-11 -1.372738e-07 -1.586149e-11))
186.879044    	((4.371228e-06 9.347800e-09 -7.353192e-06) (3.642654e-06 2.016591e-09 -1.328637e-06)) ((-1.049243e-13 8.344935e-11 -4.015265e-14) (9.046045e-11 -1.365015e-07 -1.245904e-11))
201.467417    	((4.363238e-06 9.153850e-09 -7.266317e-06) (3.621422e-06 2.101269e-09 -1.327937e-06)) ((-9.730890e-14 8.376592e-11 -3.715787e-14) (9.239558e-11 -1.358181e-07 -8.844968e-12))
216.062543    	((4.354200e-06 8.941550e-09 -7.184446e-06) (3.602493e-06 2.152254e-09 -1.327600e-06)) ((-9.272671e-14 8.398657e-11 -3.458818e-14) (9.335874e-11 -1.352063e-07 -5.268932e-12))
230.663472    	((4.345909e-06 8.758780e-09 -7.108555e-06) (3.585631e-06 2.189601e-09 -1.327540e-06)) ((-8.822657e-14 8.417320e-11 -3.150474e-14) (9.383074e-11 -1.346589e-07 -1.682575e-12))
245.269709    	((4.338238e-06 8.457023e-09 -7.038277e-06) (3.570650e-06 2.202348e-09 -1.327655e-06)) ((-8.043889e-14 8.433762e-11 -2.863776e-14) (9.329087e-11 -1.341713e-07 1.706197e-12))
259.880778    	((4.331006e-06 8.183740e-09 -6.973156e-06) (3.557300e-06 2.202418e-09 -1.327862e-06)) ((-7.301734e-14 8.449354e-11 -2.568589e-14) (9.236340e-11 -1.337372e-07 5.206170e-12))
274.496182    	((4.324571e-06 7.770688e-09 -6.913002e-06) (3.545408e-06 2.181339e-09 -1.328101e-06)) ((-5.997034e-14 8.463968e-11 -2.385998e-14) (9.072833e-11 -1.333519e-07 8.572021e-12))
289.115497    	((4.318535e-06 7.357307e-09 -6.857238e-06) (3.534811e-06 2.138949e-09 -1.328343e-06)) ((-4.725538e-14 8.477614e-11 -2.214939e-14) (8.820297e-11 -1.330101e-07 1.161850e-11))
303.73837     	((4.312920e-06 6.932623e-09 -6.804481e-06) (3.525351e-06 2.089415e-09 -1.328578e-06)) ((-3.685944e-14 8.490763e-11 -2.052799e-14) (8.499255e-11 -1.327059e-07 1.437237e-11))
318.364472    	((4.307905e-06 6.551648e-09 -6.755044e-06) (3.516905e-06 2.034418e-09 -1.328801e-06)) ((-3.031948e-14 8.503796e-11 -2.046325e-14) (8.161427e-11 -1.324354e-07 1.692916e-11))
332.993493    	((4.303123e-06 6.103262e-09 -6.708230e-06) (3.509341e-06 1.973392e-09 -1.329023e-06)) ((-2.274986e-14 8.515918e-11 -2.044477e-14) (7.799774e-11 -1.321935e-07 1.924499e-11))
347.625174    	((4.298621e-06 5.647654e-09 -6.663843e-06) (3.502544e-06 1.903368e-09 -1.329241e-06)) ((-1.443605e-14 8.527646e-11 -2.009215e-14) (7.398117e-11 -1.319766e-07 2.144872e-11))
362.259293    	((4.294453e-06 5.207771e-09 -6.622421e-06) (3.496432e-06 1.826998e-09 -1.329447e-06)) ((-6.310515e-15 8.538848e-11 -2.020657e-14) (6.974971e-11 -1.317818e-07 2.345383e-11))
376.895636    	((4.290524e-06 4.801460e-09 -6.583350e-06) (3.490930e-06 1.750407e-09 -1.329645e-06)) ((2.031341e-15 8.549358e-11 -2.033333e-14) (6.552115e-11 -1.316068e-07 2.525281e-11))
391.533999    	((4.286874e-06 4.396805e-09 -6.546602e-06) (3.485967e-06 1.676761e-09 -1.329826e-06)) ((1.006174e-14 8.559505e-11 -2.049777e-14) (6.144839e-11 -1.314493e-07 2.700563e-11))
406.174204    	((4.283472e-06 3.972929e-09 -6.511937e-06) (3.481482e-06 1.602161e-09 -1.329986e-06)) ((1.787251e-14 8.569224e-11 -2.079567e-14) (5.733195e-11 -1.313075e-07 2.865111e-11))
420.816094    	((4.280333e-06 3.577818e-09 -6.479287e-06) (3.477422e-06 1.527738e-09 -1.330127e-06)) ((2.444384e-14 8.578530e-11 -2.120092e-14) (5.325796e-11 -1.311795e-07 3.018455e-11))
435.459526    	((4.277493e-06 3.167319e-09 -6.448762e-06) (3.473750e-06 1.452051e-09 -1.330246e-06)) ((3.112859e-14 8.587566e-11 -2.136803e-14) (4.918857e-11 -1.310643e-07 3.159403e-11))
450.104371    	((4.274879e-06 2.786868e-09 -6.420035e-06) (3.470423e-06 1.377392e-09 -1.330345e-06)) ((3.697539e-14 8.596219e-11 -2.170683e-14) (4.518709e-11 -1.309604e-07 3.295740e-11))
464.750512    	((4.272431e-06 2.399271e-09 -6.393055e-06) (3.467403e-06 1.302755e-09 -1.330427e-06)) ((4.301214e-14 8.604395e-11 -2.207859e-14) (4.122439e-11 -1.308665e-07 3.428428e-11))
479.397843    	((4.270158e-06 2.031249e-09 -6.367695e-06) (3.464659e-06 1.229491e-09 -1.330498e-06)) ((4.890883e-14 8.612131e-11 -2.259736e-14) (3.732959e-11 -1.307815e-07 3.557011e-11))
494.04627     	((4.268044e-06 1.650624e-09 -6.343935e-06) (3.462163e-06 1.155048e-09 -1.330559e-06)) ((5.543627e-14 8.619436e-11 -2.302151e-14) (3.344053e-11 -1.307043e-07 3.680557e-11))
508.695704    	((4.266112e-06 1.302978e-09 -6.321656e-06) (3.459891e-06 1.081227e-09 -1.330610e-06)) ((6.102999e-14 8.626339e-11 -2.325758e-14) (2.969314e-11 -1.306343e-07 3.797902e-11))
523.346062    	((4.264292e-06 9.724943e-10 -6.300726e-06) (3.457821e-06 1.010159e-09 -1.330653e-06)) ((6.639691e-14 8.632797e-11 -2.338593e-14) (2.612680e-11 -1.305706e-07 3.910815e-11))
537.99727     	((4.262610e-06 6.457836e-10 -6.281178e-06) (3.455933e-06 9.411534e-10 -1.330687e-06)) ((7.165588e-14 8.638905e-11 -2.347930e-14) (2.266600e-11 -1.305126e-07 4.022673e-11))
552.649259    	((4.261047e-06 3.311709e-10 -6.262832e-06) (3.454209e-06 8.744997e-10 -1.330710e-06)) ((7.654237e-14 8.644686e-11 -2.363888e-14) (1.931390e-11 -1.304598e-07 4.133676e-11))
567.301967    	((4.259595e-06 2.761235e-11 -6.245618e-06) (3.452633e-06 8.099605e-10 -1.330723e-06)) ((8.113881e-14 8.650202e-11 -2.384269e-14) (1.607491e-11 -1.304118e-07 4.241321e-11))
581.955337    	((4.258229e-06 -2.685215e-10 -6.229509e-06) (3.451191e-06 7.474996e-10 -1.330726e-06)) ((8.553404e-14 8.655392e-11 -2.415114e-14) (1.293962e-11 -1.303680e-07 4.345890e-11))
596.609318    	((4.256980e-06 -5.644661e-10 -6.214454e-06) (3.449870e-06 6.867722e-10 -1.330720e-06)) ((8.966879e-14 8.660335e-11 -2.448683e-14) (9.887870e-12 -1.303281e-07 4.449125e-11))
611.263863    	((4.255832e-06 -8.517444e-10 -6.200391e-06) (3.448661e-06 6.272925e-10 -1.330706e-06)) ((9.369865e-14 8.665021e-11 -2.486162e-14) (6.917426e-12 -1.302918e-07 4.550086e-11))
625.91893     	((4.254773e-06 -1.132722e-09 -6.187254e-06) (3.447554e-06 5.692245e-10 -1.330686e-06)) ((9.754674e-14 8.669455e-11 -2.526424e-14) (4.028993e-12 -1.302587e-07 4.648067e-11))
640.574478    	((4.253800e-06 -1.402908e-09 -6.175006e-06) (3.446540e-06 5.127480e-10 -1.330661e-06)) ((1.012520e-13 8.673648e-11 -2.567633e-14) (1.230432e-12 -1.302286e-07 4.742993e-11))
655.230472    	((4.252899e-06 -1.666730e-09 -6.163577e-06) (3.445612e-06 4.577719e-10 -1.330632e-06)) ((1.048912e-13 8.677592e-11 -2.606469e-14) (-1.478550e-12 -1.302011e-07 4.836722e-11))
669.886879    	((4.252065e-06 -1.921816e-09 -6.152923e-06) (3.444760e-06 4.045512e-10 -1.330600e-06)) ((1.082844e-13 8.681316e-11 -2.642829e-14) (-4.102968e-12 -1.301760e-07 4.929153e-11))
684.543667    	((4.251289e-06 -2.175526e-09 -6.142989e-06) (3.443978e-06 3.525677e-10 -1.330566e-06)) ((1.116153e-13 8.684801e-11 -2.678924e-14) (-6.667674e-12 -1.301530e-07 5.019474e-11))
699.200809    	((4.250567e-06 -2.417064e-09 -6.133790e-06) (3.443260e-06 3.021880e-10 -1.330532e-06)) ((1.147725e-13 8.688061e-11 -2.710107e-14) (-9.154028e-12 -1.301320e-07 5.107217e-11))
713.858277    	((4.249897e-06 -2.651984e-09 -6.125149e-06) (3.442599e-06 2.534315e-10 -1.330496e-06)) ((1.177962e-13 8.691142e-11 -2.740386e-14) (-1.155915e-11 -1.301127e-07 5.192472e-11))
728.516048    	((4.249283e-06 -2.882372e-09 -6.117143e-06) (3.441993e-06 2.059835e-10 -1.330460e-06)) ((1.207384e-13 8.694038e-11 -2.770375e-14) (-1.389734e-11 -1.300951e-07 5.275282e-11))
743.174099    	((4.248715e-06 -3.105936e-09 -6.109674e-06) (3.441435e-06 1.597314e-10 -1.330423e-06)) ((1.235846e-13 8.696765e-11 -2.799995e-14) (-1.617043e-11 -1.300789e-07 5.355346e-11))
757.832412    	((4.248197e-06 -3.321684e-09 -6.102757e-06) (3.440922e-06 1.147786e-10 -1.330386e-06)) ((1.263301e-13 8.699319e-11 -2.828637e-14) (-1.837505e-11 -1.300641e-07 5.432988e-11))
772.490966    	((4.247716e-06 -3.530467e-09 -6.096312e-06) (3.440451e-06 7.112574e-11 -1.330349e-06)) ((1.289660e-13 8.701723e-11 -2.857291e-14) (-2.051005e-11 -1.300506e-07 5.508029e-11))
787.149744    	((4.247271e-06 -3.735173e-09 -6.090329e-06) (3.440018e-06 2.860437e-11 -1.330312e-06)) ((1.315693e-13 8.703976e-11 -2.885854e-14) (-2.258418e-11 -1.300382e-07 5.580474e-11))
801.808732    	((4.246860e-06 -3.937914e-09 -6.084771e-06) (3.439620e-06 -1.312555e-11 -1.330276e-06)) ((1.341370e-13 8.706086e-11 -2.914598e-14) (-2.461451e-11 -1.300269e-07 5.650204e-11))
816.467913    	((4.246480e-06 -4.136397e-09 -6.079616e-06) (3.439254e-06 -5.413405e-11 -1.330241e-06)) ((1.366616e-13 8.708051e-11 -2.942110e-14) (-2.660730e-11 -1.300165e-07 5.717297e-11))
831.127275    	((4.246127e-06 -4.330827e-09 -6.074825e-06) (3.438917e-06 -9.446198e-11 -1.330207e-06)) ((1.391212e-13 8.709886e-11 -2.968972e-14) (-2.856364e-11 -1.300069e-07 5.781789e-11))
845.786805    	((4.245801e-06 -4.520420e-09 -6.070378e-06) (3.438606e-06 -1.340366e-10 -1.330175e-06)) ((1.415085e-13 8.711593e-11 -2.994632e-14) (-3.048066e-11 -1.299981e-07 5.844018e-11))
860.446491    	((4.245497e-06 -4.706028e-09 -6.066219e-06) (3.438321e-06 -1.728098e-10 -1.330145e-06)) ((1.438369e-13 8.713186e-11 -3.020668e-14) (-3.235651e-11 -1.299900e-07 5.904291e-11))
875.106323    	((4.245218e-06 -4.887109e-09 -6.062400e-06) (3.438057e-06 -2.107373e-10 -1.330117e-06)) ((1.461107e-13 8.714656e-11 -3.045997e-14) (-3.419144e-11 -1.299826e-07 5.962956e-11))
889.766292    	((4.244960e-06 -5.064018e-09 -6.058843e-06) (3.437815e-06 -2.478010e-10 -1.330091e-06)) ((1.483298e-13 8.716028e-11 -3.070763e-14) (-3.598536e-11 -1.299757e-07 6.020192e-11))
904.426388    	((4.244721e-06 -5.236879e-09 -6.055557e-06) (3.437591e-06 -2.840094e-10 -1.330067e-06)) ((1.504930e-13 8.717298e-11 -3.095323e-14) (-3.773789e-11 -1.299694e-07 6.076060e-11))
