# Forces      
# CofR        : (0.000000e+00 0.000000e+00 0.000000e+00)
# Time        forces(pressure viscous)	moments(pressure viscous)
0             	((0.000000e+00 0.000000e+00 0.000000e+00) (-1.544541e-11 2.518474e-02 1.505195e-12)) ((0.000000e+00 0.000000e+00 0.000000e+00) (5.658727e-04 -9.464306e-14 -1.086064e-08))
0.0112174     	((6.616516e-04 7.899102e+00 7.028725e-01) (8.956262e-07 5.381498e-02 -7.686105e-03)) ((-9.293725e-05 7.207795e-06 -1.681413e-06) (1.773980e-03 6.513500e-08 -6.378268e-08))
0.0246783     	((-5.219532e-04 -3.643397e+00 -2.259174e+00) (1.195880e-05 4.961939e-02 -9.833763e-03)) ((4.369069e-05 -2.292996e-06 7.196626e-07) (1.810387e-03 1.103997e-08 -7.691025e-08))
0.0408314     	((3.102839e-04 7.500799e-01 -1.160368e+00) (7.002359e-06 4.050401e-02 -7.032444e-03)) ((-3.629864e-06 7.800428e-07 -8.673627e-08) (1.450017e-03 4.985577e-09 4.214489e-08))
0.0602152     	((-8.891661e-04 -2.929557e-01 -1.204161e+00) (-1.262825e-05 3.742049e-02 -6.597112e-03)) ((3.413785e-06 7.098282e-07 -2.678546e-07) (1.335316e-03 3.359593e-08 4.862229e-07))
0.0829369     	((-1.910291e-04 2.109670e-01 -1.105490e+00) (-2.270615e-05 3.545417e-02 -6.590638e-03)) ((-5.521599e-07 8.248925e-07 -1.996948e-07) (1.266802e-03 5.867094e-08 8.129425e-07))
0.108976      	((-8.256816e-04 -1.260475e-02 -1.148852e+00) (-2.948223e-05 3.470109e-02 -6.752821e-03)) ((-1.697713e-07 8.251788e-07 -2.546562e-07) (1.242548e-03 1.138544e-07 9.394657e-07))
0.138313      	((-2.310768e-04 9.547354e-02 -1.115147e+00) (-2.775513e-05 3.406151e-02 -7.067368e-03)) ((-1.031647e-06 8.246138e-07 -3.012442e-07) (1.215124e-03 1.436849e-07 1.084212e-06))
0.170925      	((-4.541440e-04 5.303183e-02 -1.134366e+00) (-2.619117e-05 3.366971e-02 -7.395541e-03)) ((-1.642243e-06 8.250206e-07 -3.709968e-07) (1.199086e-03 1.560378e-07 1.313521e-06))
0.203709      	((-1.573452e-04 8.501954e-02 -1.120940e+00) (-2.474140e-05 3.345258e-02 -7.675450e-03)) ((-2.159128e-06 8.860526e-07 -4.030759e-07) (1.189064e-03 1.523033e-07 1.442335e-06))
0.236432      	((-1.548055e-04 7.999560e-02 -1.127208e+00) (-2.265339e-05 3.333442e-02 -7.933746e-03)) ((-2.609827e-06 9.693612e-07 -4.659778e-07) (1.182560e-03 1.324879e-07 1.584466e-06))
0.268943      	((7.513959e-05 9.367491e-02 -1.117453e+00) (-2.267077e-05 3.324684e-02 -8.125212e-03)) ((-3.014182e-06 1.040187e-06 -4.882017e-07) (1.176422e-03 8.544762e-08 1.722027e-06))
0.301225      	((1.063221e-04 9.690039e-02 -1.115065e+00) (-2.312479e-05 3.314988e-02 -8.263914e-03)) ((-3.397430e-06 1.118220e-06 -5.353937e-07) (1.169775e-03 3.800873e-08 1.834980e-06))
0.333371      	((4.081066e-04 1.032264e-01 -1.104615e+00) (-2.367604e-05 3.300090e-02 -8.344805e-03)) ((-3.784152e-06 1.181374e-06 -5.610797e-07) (1.161864e-03 -4.612386e-09 2.025466e-06))
0.36549       	((5.969842e-04 1.054616e-01 -1.098009e+00) (-2.530449e-05 3.280886e-02 -8.420109e-03)) ((-4.142231e-06 1.186988e-06 -6.012976e-07) (1.153346e-03 -4.572032e-08 2.182321e-06))
0.397622      	((8.749286e-04 1.074392e-01 -1.088693e+00) (-2.518514e-05 3.260040e-02 -8.483470e-03)) ((-4.425935e-06 1.229194e-06 -6.397980e-07) (1.145003e-03 -9.667576e-08 2.276327e-06))
0.429846      	((1.244708e-03 1.075778e-01 -1.081309e+00) (-2.281054e-05 3.240097e-02 -8.536862e-03)) ((-4.673191e-06 1.249957e-06 -6.786818e-07) (1.137494e-03 -1.505484e-07 2.373681e-06))
0.462162      	((1.719970e-03 1.080216e-01 -1.074307e+00) (-1.914237e-05 3.222441e-02 -8.588727e-03)) ((-4.827268e-06 1.265258e-06 -7.068949e-07) (1.130999e-03 -2.080562e-07 2.514265e-06))
0.494484      	((2.170514e-03 1.073327e-01 -1.068020e+00) (-1.546836e-05 3.206525e-02 -8.624911e-03)) ((-4.978289e-06 1.294678e-06 -7.319812e-07) (1.125211e-03 -2.755818e-07 2.634615e-06))
0.526809      	((2.634047e-03 1.067615e-01 -1.062178e+00) (-1.218657e-05 3.191767e-02 -8.656651e-03)) ((-5.067514e-06 1.308218e-06 -7.531978e-07) (1.119851e-03 -3.461109e-07 2.732820e-06))
0.559149      	((3.132942e-03 1.057933e-01 -1.056964e+00) (-9.059971e-06 3.178318e-02 -8.689264e-03)) ((-5.111826e-06 1.337366e-06 -7.720330e-07) (1.114984e-03 -4.275128e-07 2.834204e-06))
0.591511      	((3.720592e-03 1.049660e-01 -1.051687e+00) (-5.314212e-06 3.165592e-02 -8.715876e-03)) ((-5.164169e-06 1.359439e-06 -7.908891e-07) (1.110334e-03 -5.282469e-07 2.919372e-06))
0.623892      	((4.380578e-03 1.044863e-01 -1.047183e+00) (-1.032135e-06 3.153760e-02 -8.744850e-03)) ((-5.188179e-06 1.379066e-06 -8.112853e-07) (1.105900e-03 -6.475456e-07 3.005390e-06))
0.656286      	((5.060609e-03 1.041294e-01 -1.043039e+00) (3.031610e-06 3.143026e-02 -8.769961e-03)) ((-5.234353e-06 1.403873e-06 -8.286956e-07) (1.101900e-03 -7.807462e-07 3.128704e-06))
0.688694      	((5.838890e-03 1.037938e-01 -1.039440e+00) (7.075187e-06 3.133369e-02 -8.791017e-03)) ((-5.285278e-06 1.423620e-06 -8.444610e-07) (1.098408e-03 -9.330162e-07 3.302322e-06))
0.721116      	((6.708840e-03 1.033533e-01 -1.035982e+00) (1.109657e-05 3.124831e-02 -8.807415e-03)) ((-5.315711e-06 1.442215e-06 -8.578487e-07) (1.095445e-03 -1.107051e-06 3.519353e-06))
0.753552      	((7.703645e-03 1.028414e-01 -1.032595e+00) (1.523212e-05 3.117198e-02 -8.819037e-03)) ((-5.344800e-06 1.461229e-06 -8.708071e-07) (1.092877e-03 -1.304037e-06 3.778107e-06))
0.785998      	((8.818751e-03 1.023693e-01 -1.029451e+00) (1.946660e-05 3.110273e-02 -8.829820e-03)) ((-5.362332e-06 1.477810e-06 -8.827738e-07) (1.090549e-03 -1.527641e-06 4.101845e-06))
0.818452      	((1.010624e-02 1.018561e-01 -1.026520e+00) (2.387160e-05 3.103930e-02 -8.840601e-03)) ((-5.371266e-06 1.495336e-06 -8.948035e-07) (1.088388e-03 -1.782614e-06 4.494866e-06))
0.850911      	((1.156879e-02 1.013800e-01 -1.023857e+00) (2.869393e-05 3.098045e-02 -8.851617e-03)) ((-5.374254e-06 1.512437e-06 -9.073161e-07) (1.086346e-03 -2.075813e-06 4.950763e-06))
0.883377      	((1.322219e-02 1.008314e-01 -1.021319e+00) (3.402094e-05 3.092522e-02 -8.863080e-03)) ((-5.370571e-06 1.535314e-06 -9.188523e-07) (1.084401e-03 -2.415467e-06 5.476385e-06))
0.915847      	((1.507133e-02 1.003728e-01 -1.019030e+00) (3.978657e-05 3.087358e-02 -8.874956e-03)) ((-5.364598e-06 1.562529e-06 -9.313444e-07) (1.082570e-03 -2.805530e-06 6.079357e-06))
0.94832       	((1.716439e-02 9.996135e-02 -1.016910e+00) (4.629304e-05 3.082534e-02 -8.886045e-03)) ((-5.353238e-06 1.595455e-06 -9.440109e-07) (1.080874e-03 -3.252226e-06 6.752161e-06))
0.980796      	((1.952233e-02 9.964870e-02 -1.015021e+00) (5.399791e-05 3.078072e-02 -8.896236e-03)) ((-5.336758e-06 1.634343e-06 -9.571736e-07) (1.079327e-03 -3.762610e-06 7.491295e-06))
1.013273      	((2.216992e-02 9.941669e-02 -1.013315e+00) (6.320126e-05 3.074010e-02 -8.905725e-03)) ((-5.315951e-06 1.677381e-06 -9.705065e-07) (1.077941e-03 -4.343273e-06 8.300951e-06))
1.045751      	((2.513590e-02 9.928006e-02 -1.011767e+00) (7.384160e-05 3.070316e-02 -8.914150e-03)) ((-5.290171e-06 1.724757e-06 -9.823580e-07) (1.076698e-03 -4.996997e-06 9.194522e-06))
1.078228      	((2.845134e-02 9.918809e-02 -1.010366e+00) (8.597582e-05 3.066964e-02 -8.921902e-03)) ((-5.263117e-06 1.776175e-06 -9.925432e-07) (1.075581e-03 -5.724848e-06 1.019328e-05))
1.110704      	((3.220064e-02 9.915301e-02 -1.009070e+00) (9.958830e-05 3.063947e-02 -8.928592e-03)) ((-5.234892e-06 1.830631e-06 -1.001395e-06) (1.074602e-03 -6.532266e-06 1.132005e-05))
1.143176      	((3.640459e-02 9.923235e-02 -1.007930e+00) (1.147877e-04 3.061274e-02 -8.933555e-03)) ((-5.209148e-06 1.885863e-06 -1.008538e-06) (1.073779e-03 -7.428005e-06 1.258987e-05))
1.175643      	((4.112677e-02 9.937434e-02 -1.006902e+00) (1.317943e-04 3.058966e-02 -8.936579e-03)) ((-5.180082e-06 1.947038e-06 -1.014970e-06) (1.073126e-03 -8.421818e-06 1.402033e-05))
1.208104      	((4.645299e-02 9.965737e-02 -1.006041e+00) (1.507488e-04 3.057004e-02 -8.937717e-03)) ((-5.148908e-06 2.014160e-06 -1.021311e-06) (1.072643e-03 -9.528438e-06 1.563988e-05))
1.240558      	((5.242811e-02 1.000783e-01 -1.005368e+00) (1.717375e-04 3.055411e-02 -8.937102e-03)) ((-5.111082e-06 2.090425e-06 -1.029844e-06) (1.072328e-03 -1.077061e-05 1.747278e-05))
1.273002      	((5.914171e-02 1.006140e-01 -1.004856e+00) (1.953678e-04 3.054240e-02 -8.934677e-03)) ((-5.064336e-06 2.178023e-06 -1.041308e-06) (1.072196e-03 -1.217230e-05 1.952017e-05))
1.305434      	((6.663160e-02 1.012777e-01 -1.004487e+00) (2.224467e-04 3.053462e-02 -8.930650e-03)) ((-5.009758e-06 2.277543e-06 -1.053130e-06) (1.072239e-03 -1.375963e-05 2.179739e-05))
1.337852      	((7.501724e-02 1.021690e-01 -1.004277e+00) (2.533549e-04 3.053113e-02 -8.924623e-03)) ((-4.955526e-06 2.391797e-06 -1.066442e-06) (1.072482e-03 -1.555049e-05 2.433096e-05))
1.370254      	((8.432509e-02 1.034099e-01 -1.004308e+00) (2.887285e-04 3.053293e-02 -8.915721e-03)) ((-4.905384e-06 2.521223e-06 -1.077642e-06) (1.072993e-03 -1.756456e-05 2.713577e-05))
1.402638      	((9.448164e-02 1.051137e-01 -1.004580e+00) (3.286110e-04 3.054099e-02 -8.903127e-03)) ((-4.863588e-06 2.662505e-06 -1.085691e-06) (1.073838e-03 -1.981886e-05 3.021459e-05))
1.435001      	((1.057173e-01 1.071815e-01 -1.005020e+00) (3.734133e-04 3.055606e-02 -8.886026e-03)) ((-4.819928e-06 2.825013e-06 -1.092407e-06) (1.075076e-03 -2.233876e-05 3.358268e-05))
1.46734       	((1.178488e-01 1.098283e-01 -1.005901e+00) (4.230690e-04 3.057927e-02 -8.863576e-03)) ((-4.780586e-06 3.009364e-06 -1.098988e-06) (1.076777e-03 -2.513834e-05 3.727433e-05))
1.499652      	((1.310422e-01 1.128779e-01 -1.007030e+00) (4.781223e-04 3.061129e-02 -8.835167e-03)) ((-4.740042e-06 3.218317e-06 -1.106993e-06) (1.079000e-03 -2.822980e-05 4.131383e-05))
1.531936      	((1.450541e-01 1.166484e-01 -1.008567e+00) (5.388522e-04 3.065288e-02 -8.800545e-03)) ((-4.715723e-06 3.438645e-06 -1.116713e-06) (1.081797e-03 -3.162086e-05 4.574536e-05))
1.564187      	((1.596286e-01 1.211767e-01 -1.010640e+00) (6.049132e-04 3.070621e-02 -8.760117e-03)) ((-4.695971e-06 3.661185e-06 -1.124389e-06) (1.085196e-03 -3.530723e-05 5.050102e-05))
1.596402      	((1.743089e-01 1.267095e-01 -1.013477e+00) (6.753759e-04 3.077354e-02 -8.714570e-03)) ((-4.687804e-06 3.871441e-06 -1.129581e-06) (1.089189e-03 -3.926017e-05 5.549004e-05))
1.628572      	((1.886096e-01 1.327496e-01 -1.016737e+00) (7.492925e-04 3.085362e-02 -8.664990e-03)) ((-4.679888e-06 4.068276e-06 -1.141408e-06) (1.093721e-03 -4.340705e-05 6.073747e-05))
1.660696      	((2.018943e-01 1.395654e-01 -1.020890e+00) (8.244236e-04 3.094515e-02 -8.612611e-03)) ((-4.678650e-06 4.245725e-06 -1.166169e-06) (1.098758e-03 -4.765571e-05 6.620837e-05))
1.692765      	((2.135141e-01 1.468014e-01 -1.025430e+00) (8.964653e-04 3.104731e-02 -8.557760e-03)) ((-4.678406e-06 4.383015e-06 -1.201359e-06) (1.104232e-03 -5.185414e-05 7.181149e-05))
1.724774      	((2.225958e-01 1.544174e-01 -1.030710e+00) (9.615601e-04 3.115925e-02 -8.500048e-03)) ((-4.684405e-06 4.456227e-06 -1.229336e-06) (1.110089e-03 -5.582769e-05 7.736372e-05))
1.756723      	((2.286633e-01 1.614514e-01 -1.036258e+00) (1.015556e-03 3.128110e-02 -8.440345e-03)) ((-4.684858e-06 4.448659e-06 -1.256310e-06) (1.116255e-03 -5.944015e-05 8.271215e-05))
1.788617      	((2.314828e-01 1.674402e-01 -1.041782e+00) (1.055829e-03 3.140889e-02 -8.379370e-03)) ((-4.674148e-06 4.379608e-06 -1.275241e-06) (1.122481e-03 -6.253785e-05 8.762678e-05))
1.820462      	((2.305519e-01 1.718753e-01 -1.047065e+00) (1.080173e-03 3.153490e-02 -8.320079e-03)) ((-4.667514e-06 4.237047e-06 -1.296646e-06) (1.128465e-03 -6.490678e-05 9.185351e-05))
1.852269      	((2.258448e-01 1.749432e-01 -1.052087e+00) (1.082065e-03 3.165590e-02 -8.265136e-03)) ((-4.673293e-06 4.015304e-06 -1.314134e-06) (1.134053e-03 -6.627772e-05 9.537565e-05))
1.884049      	((2.184463e-01 1.761333e-01 -1.056389e+00) (1.056566e-03 3.176894e-02 -8.214867e-03)) ((-4.677712e-06 3.756201e-06 -1.307082e-06) (1.139147e-03 -6.647350e-05 9.824297e-05))
1.915805      	((2.093691e-01 1.756771e-01 -1.060034e+00) (1.005077e-03 3.187089e-02 -8.167526e-03)) ((-4.680649e-06 3.490438e-06 -1.269296e-06) (1.143797e-03 -6.548768e-05 1.003968e-04))
1.947543      	((1.999468e-01 1.746125e-01 -1.063407e+00) (9.341891e-04 3.196360e-02 -8.122644e-03)) ((-4.670971e-06 3.252488e-06 -1.225023e-06) (1.148166e-03 -6.348464e-05 1.017671e-04))
1.979271      	((1.913445e-01 1.724271e-01 -1.066329e+00) (8.526543e-04 3.204812e-02 -8.081162e-03)) ((-4.625907e-06 3.089478e-06 -1.186768e-06) (1.152352e-03 -6.079804e-05 1.023817e-04))
2.010998      	((1.843329e-01 1.696627e-01 -1.069278e+00) (7.721850e-04 3.212678e-02 -8.044835e-03)) ((-4.527250e-06 3.023981e-06 -1.168068e-06) (1.156399e-03 -5.782424e-05 1.021977e-04))
2.042729      	((1.792414e-01 1.660920e-01 -1.072182e+00) (7.052619e-04 3.220026e-02 -8.021403e-03)) ((-4.341496e-06 3.062476e-06 -1.170104e-06) (1.160059e-03 -5.501946e-05 1.011670e-04))
2.074468      	((1.756108e-01 1.627058e-01 -1.075635e+00) (6.625264e-04 3.226728e-02 -8.020598e-03)) ((-4.085441e-06 3.176655e-06 -1.182175e-06) (1.162871e-03 -5.284996e-05 9.922800e-05))
2.106217      	((1.730065e-01 1.586024e-01 -1.079139e+00) (6.467343e-04 3.232390e-02 -8.047974e-03)) ((-3.787632e-06 3.337551e-06 -1.179311e-06) (1.164442e-03 -5.154120e-05 9.651727e-05))
2.137975      	((1.703769e-01 1.542232e-01 -1.082625e+00) (6.434809e-04 3.236136e-02 -8.098601e-03)) ((-3.502988e-06 3.497027e-06 -1.156866e-06) (1.164766e-03 -5.091756e-05 9.381759e-05))
2.169742      	((1.667404e-01 1.504722e-01 -1.085931e+00) (6.371325e-04 3.237862e-02 -8.156684e-03)) ((-3.281760e-06 3.595345e-06 -1.136321e-06) (1.164271e-03 -5.048232e-05 9.165630e-05))
2.201518      	((1.625003e-01 1.475722e-01 -1.088243e+00) (6.183312e-04 3.238186e-02 -8.208369e-03)) ((-3.144214e-06 3.597699e-06 -1.142870e-06) (1.163397e-03 -4.979477e-05 9.017484e-05))
2.233301      	((1.577068e-01 1.458917e-01 -1.089212e+00) (5.851124e-04 3.237635e-02 -8.245718e-03)) ((-3.145862e-06 3.472858e-06 -1.149028e-06) (1.162415e-03 -4.868290e-05 8.930178e-05))
2.265092      	((1.527791e-01 1.448877e-01 -1.089081e+00) (5.407009e-04 3.236618e-02 -8.264302e-03)) ((-3.284611e-06 3.212569e-06 -1.144238e-06) (1.161572e-03 -4.709691e-05 8.882076e-05))
2.296891      	((1.477939e-01 1.447388e-01 -1.089066e+00) (4.946318e-04 3.235799e-02 -8.265338e-03)) ((-3.453619e-06 2.908280e-06 -1.117825e-06) (1.160969e-03 -4.508231e-05 8.822732e-05))
2.3287        	((1.433841e-01 1.445208e-01 -1.088573e+00) (4.473302e-04 3.235326e-02 -8.262531e-03)) ((-3.576885e-06 2.628445e-06 -1.060887e-06) (1.160251e-03 -4.302443e-05 8.751105e-05))
2.36052       	((1.402610e-01 1.453648e-01 -1.088252e+00) (3.954907e-04 3.234749e-02 -8.258464e-03)) ((-3.693862e-06 2.383974e-06 -1.028608e-06) (1.159511e-03 -4.100290e-05 8.709632e-05))
2.39235       	((1.390629e-01 1.460692e-01 -1.088063e+00) (3.442022e-04 3.233921e-02 -8.247501e-03)) ((-3.760473e-06 2.242374e-06 -1.007236e-06) (1.159121e-03 -3.892007e-05 8.708288e-05))
2.42419       	((1.394855e-01 1.467916e-01 -1.088120e+00) (2.945921e-04 3.232941e-02 -8.235463e-03)) ((-3.782889e-06 2.237614e-06 -1.007990e-06) (1.159081e-03 -3.702783e-05 8.754974e-05))
2.45604       	((1.411788e-01 1.467897e-01 -1.088847e+00) (2.503309e-04 3.231813e-02 -8.231692e-03)) ((-3.707719e-06 2.382208e-06 -1.042949e-06) (1.159179e-03 -3.561776e-05 8.838547e-05))
2.487899      	((1.443468e-01 1.464387e-01 -1.090453e+00) (2.203426e-04 3.230352e-02 -8.240652e-03)) ((-3.556639e-06 2.647932e-06 -1.102940e-06) (1.159240e-03 -3.491131e-05 8.930052e-05))
2.519766      	((1.484457e-01 1.452723e-01 -1.092360e+00) (2.204499e-04 3.229128e-02 -8.265310e-03)) ((-3.270879e-06 3.049836e-06 -1.168851e-06) (1.159111e-03 -3.508779e-05 8.946793e-05))
2.551639      	((1.521891e-01 1.443780e-01 -1.094193e+00) (2.493789e-04 3.228334e-02 -8.309490e-03)) ((-2.942819e-06 3.442649e-06 -1.204403e-06) (1.158483e-03 -3.616061e-05 8.879997e-05))
2.583516      	((1.547243e-01 1.443928e-01 -1.095853e+00) (2.890301e-04 3.227501e-02 -8.366497e-03)) ((-2.686542e-06 3.714308e-06 -1.219020e-06) (1.157316e-03 -3.779660e-05 8.799758e-05))
2.615393      	((1.554609e-01 1.456147e-01 -1.097249e+00) (3.248085e-04 3.226524e-02 -8.424377e-03)) ((-2.568810e-06 3.819179e-06 -1.220584e-06) (1.155959e-03 -3.945615e-05 8.749770e-05))
2.647271      	((1.553412e-01 1.473124e-01 -1.097887e+00) (3.480695e-04 3.225277e-02 -8.469654e-03)) ((-2.576960e-06 3.774019e-06 -1.219489e-06) (1.154761e-03 -4.064352e-05 8.754723e-05))
2.679146      	((1.545904e-01 1.494861e-01 -1.098506e+00) (3.537319e-04 3.223612e-02 -8.492235e-03)) ((-2.701560e-06 3.586233e-06 -1.223620e-06) (1.153939e-03 -4.109887e-05 8.827275e-05))
2.71102       	((1.541634e-01 1.515385e-01 -1.098580e+00) (3.419424e-04 3.221687e-02 -8.496076e-03)) ((-2.842207e-06 3.356523e-06 -1.232303e-06) (1.153577e-03 -4.085730e-05 8.962692e-05))
2.74289       	((1.537286e-01 1.535511e-01 -1.098748e+00) (3.194296e-04 3.219772e-02 -8.484840e-03)) ((-2.996571e-06 3.088978e-06 -1.240548e-06) (1.153635e-03 -4.006925e-05 9.131894e-05))
2.774758      	((1.525096e-01 1.552243e-01 -1.098610e+00) (2.903380e-04 3.217840e-02 -8.463071e-03)) ((-3.130100e-06 2.846883e-06 -1.238232e-06) (1.153919e-03 -3.890557e-05 9.311490e-05))
2.806623      	((1.503820e-01 1.567252e-01 -1.098756e+00) (2.586090e-04 3.216236e-02 -8.443459e-03)) ((-3.238104e-06 2.681144e-06 -1.216810e-06) (1.154291e-03 -3.758266e-05 9.465954e-05))
2.838488      	((1.482193e-01 1.571943e-01 -1.098778e+00) (2.299926e-04 3.215280e-02 -8.431763e-03)) ((-3.261924e-06 2.661482e-06 -1.185046e-06) (1.154657e-03 -3.632214e-05 9.557950e-05))
