# Forces      
# CofR        : (0.000000e+00 0.000000e+00 0.000000e+00)
# Time        forces(pressure viscous)	moments(pressure viscous)
0             	((0.000000e+00 0.000000e+00 0.000000e+00) (0.000000e+00 0.000000e+00 0.000000e+00)) ((0.000000e+00 0.000000e+00 0.000000e+00) (0.000000e+00 0.000000e+00 0.000000e+00))
0.012         	((8.491731e-06 -3.249243e-10 2.676848e-06) (2.095424e-05 -9.578477e-14 1.660729e-09)) ((1.385417e-13 -1.366699e-09 1.100288e-13) (1.520210e-14 -1.394446e-06 6.643695e-15))
0.0264        	((1.261109e-05 -7.142436e-09 4.225991e-06) (1.919493e-05 -1.923330e-12 4.153045e-10)) ((7.901370e-14 6.948153e-10 2.690638e-14) (5.950651e-14 -1.278747e-06 -4.608329e-14))
0.04368       	((8.008822e-06 4.266698e-09 2.553874e-06) (1.738122e-05 2.091926e-12 -1.722477e-09)) ((1.664416e-13 4.889603e-10 7.876830e-14) (1.504077e-13 -1.159850e-06 -2.025604e-13))
0.064416      	((9.507187e-06 -5.234511e-09 3.142816e-06) (1.555455e-05 4.405406e-12 -4.004918e-09)) ((1.072630e-13 9.585825e-10 -1.062826e-14) (1.955453e-13 -1.040536e-06 -4.015218e-13))
0.0892992     	((6.789688e-06 2.297630e-09 2.199308e-06) (1.376850e-05 6.146955e-12 -6.165731e-09)) ((3.338660e-14 6.754455e-10 7.274874e-14) (3.900043e-13 -9.243262e-07 -3.558515e-13))
0.119159      	((7.144893e-06 -2.538427e-09 2.298593e-06) (1.208120e-05 3.824859e-12 -8.370100e-09)) ((7.363672e-14 8.249032e-10 1.184150e-14) (3.460676e-13 -8.151083e-07 -2.942476e-13))
0.154991      	((5.302640e-06 1.279519e-09 1.743939e-06) (1.054632e-05 6.035498e-14 -1.122916e-08)) ((-2.257211e-14 5.705590e-10 1.896664e-14) (3.595818e-13 -7.152523e-07 -1.580473e-13))
0.197989      	((5.317123e-06 -9.228168e-10 1.672857e-06) (9.190390e-06 -3.309853e-12 -1.464081e-08)) ((-1.665322e-14 6.507944e-10 -5.643924e-15) (3.193676e-13 -6.269423e-07 -1.518837e-14))
0.249587      	((4.101248e-06 5.487886e-10 1.343346e-06) (8.029770e-06 -4.705452e-12 -1.852012e-08)) ((-2.319678e-14 4.653770e-10 3.157069e-17) (3.175429e-13 -5.508445e-07 9.547016e-14))
0.311504      	((4.019888e-06 -1.640815e-10 1.238490e-06) (7.060145e-06 -4.429840e-12 -2.230174e-08)) ((-5.119154e-14 5.194889e-10 -1.917763e-15) (5.114878e-13 -4.868816e-07 2.420346e-13))
0.385805      	((3.232345e-06 2.018694e-11 1.043087e-06) (6.252133e-06 -4.407620e-12 -2.609520e-08)) ((-1.195865e-14 3.895738e-10 8.026349e-16) (5.438333e-13 -4.334828e-07 3.642788e-13))
0.474966      	((3.138611e-06 -1.116121e-10 9.471850e-07) (5.576143e-06 -4.678872e-12 -2.841161e-08)) ((-6.157496e-14 4.269670e-10 -2.908617e-15) (6.144006e-13 -3.888126e-07 5.354928e-13))
0.581959      	((2.613407e-06 -1.637466e-10 8.241693e-07) (5.001830e-06 -4.401080e-12 -3.099144e-08)) ((1.775905e-15 3.355046e-10 -1.847804e-14) (2.923025e-13 -3.508295e-07 4.018278e-13))
0.710351      	((2.516740e-06 3.319003e-11 7.402400e-07) (4.506062e-06 4.449326e-13 -3.152259e-08)) ((-7.389693e-14 3.609348e-10 -6.761302e-16) (8.833731e-14 -3.180885e-07 -1.390403e-14))
0.864421      	((2.156830e-06 -1.253348e-10 6.559365e-07) (4.070516e-06 1.893827e-12 -3.335153e-08)) ((-2.571315e-14 3.035209e-10 -5.659435e-16) (8.134533e-14 -2.893908e-07 -1.240435e-14))
1.049306      	((2.041537e-06 -5.431660e-12 5.772867e-07) (3.683505e-06 2.246222e-12 -3.380247e-08)) ((-8.190749e-14 3.154123e-10 -4.322578e-14) (6.579037e-13 -2.639656e-07 2.265770e-13))
1.271167      	((1.778827e-06 -1.780585e-10 5.100900e-07) (3.336271e-06 -5.116884e-12 -3.607332e-08)) ((-6.511886e-14 2.796908e-10 -4.927804e-14) (9.918815e-13 -2.412006e-07 5.717653e-13))
1.5374        	((1.655511e-06 -1.965900e-11 4.401948e-07) (3.023493e-06 -2.676686e-11 -3.752285e-08)) ((-1.184577e-13 2.780438e-10 -6.511910e-14) (1.427510e-12 -2.207416e-07 9.149886e-13))
1.85688       	((1.457171e-06 -1.554989e-10 3.825269e-07) (2.741856e-06 -3.099911e-11 -3.944988e-08)) ((-1.252878e-13 2.553348e-10 -6.978165e-14) (2.663348e-12 -2.023794e-07 1.203447e-12))
2.240256      	((1.346165e-06 -7.519624e-11 3.284348e-07) (2.490610e-06 -3.410620e-11 -4.122594e-08)) ((-1.455483e-13 2.459819e-10 -8.501075e-14) (4.495208e-12 -1.860371e-07 4.723041e-13))
2.700307      	((1.198080e-06 -1.246008e-10 2.811085e-07) (2.268854e-06 -3.867944e-11 -4.265910e-08)) ((-1.131554e-13 2.289058e-10 -9.405216e-14) (6.527799e-12 -1.716484e-07 -1.580882e-12))
3.252369      	((1.108807e-06 -2.936079e-10 2.387716e-07) (2.074100e-06 -4.253898e-11 -4.515182e-08)) ((-1.047480e-13 2.228011e-10 -8.390657e-14) (8.245939e-12 -1.590030e-07 -4.171274e-12))
3.914842      	((9.994612e-07 -3.935561e-10 2.013530e-07) (1.903582e-06 -5.898195e-11 -4.697077e-08)) ((-8.440903e-14 2.121259e-10 -9.257125e-14) (9.019637e-12 -1.479803e-07 -6.582237e-12))
4.709811      	((9.259295e-07 -2.801666e-10 1.615243e-07) (1.753092e-06 -6.063603e-11 -4.892166e-08)) ((-7.559073e-14 2.077591e-10 -1.004944e-13) (8.782565e-12 -1.382949e-07 -8.011062e-12))
5.663773      	((8.416342e-07 -3.780069e-10 1.251901e-07) (1.619133e-06 -6.875213e-11 -5.102254e-08)) ((-9.140167e-14 2.008653e-10 -8.354745e-14) (8.246453e-12 -1.296903e-07 -8.530019e-12))
6.808528      	((7.803226e-07 -3.454364e-10 8.876619e-08) (1.498602e-06 -6.132015e-11 -5.304210e-08)) ((-8.974889e-14 1.969056e-10 -8.124921e-14) (7.175217e-12 -1.219743e-07 -8.769892e-12))
8.182233      	((7.143834e-07 -2.409509e-10 5.455111e-08) (1.389050e-06 -4.354561e-11 -5.528194e-08)) ((-7.348521e-14 1.922080e-10 -8.022148e-14) (5.918487e-12 -1.149913e-07 -8.781862e-12))
9.83068       	((6.631482e-07 -1.396831e-10 2.142773e-08) (1.289106e-06 -3.989321e-11 -5.719742e-08)) ((-6.107363e-14 1.891867e-10 -7.546308e-14) (5.601171e-12 -1.086451e-07 -8.097888e-12))
11.808816     	((6.114487e-07 -6.535352e-11 -1.054273e-08) (1.197319e-06 -2.487766e-11 -5.901033e-08)) ((-4.459020e-14 1.860989e-10 -6.410681e-14) (5.904888e-12 -1.028510e-07 -6.711537e-12))
14.182579     	((5.690807e-07 -5.203209e-11 -4.211112e-08) (1.112571e-06 -3.088986e-11 -6.075463e-08)) ((-4.310767e-14 1.839312e-10 -5.713784e-14) (5.982548e-12 -9.755153e-08 -4.781670e-12))
17.031095     	((5.262745e-07 -2.051160e-10 -7.348186e-08) (1.034351e-06 -6.696297e-11 -6.245765e-08)) ((-3.359321e-14 1.817140e-10 -4.995223e-14) (5.095380e-12 -9.271694e-08 -2.993904e-12))
20.449314     	((4.908446e-07 -3.780945e-10 -1.053883e-07) (9.626004e-07 -1.067985e-10 -6.428954e-08)) ((-3.358416e-14 1.801351e-10 -4.034777e-14) (3.813031e-12 -8.833923e-08 -1.734996e-12))
24.551176     	((4.586050e-07 -3.877049e-10 -1.349997e-07) (8.973209e-07 -1.339181e-10 -6.650648e-08)) ((-2.866650e-14 1.788161e-10 -3.211413e-14) (2.546219e-12 -8.440576e-08 -5.868388e-13))
29.473411     	((4.320247e-07 -3.469621e-10 -1.641197e-07) (8.383445e-07 -1.455171e-10 -6.924735e-08)) ((-2.186693e-14 1.779235e-10 -2.798405e-14) (1.393807e-12 -8.089715e-08 3.469543e-14))
35.380094     	((4.089611e-07 -3.457297e-10 -1.912321e-07) (7.854259e-07 -1.452864e-10 -7.256563e-08)) ((-2.114787e-14 1.772110e-10 -2.084182e-14) (6.778947e-13 -7.778380e-08 9.036885e-14))
42.468112     	((3.902500e-07 -3.560416e-10 -2.163505e-07) (7.380146e-07 -1.425395e-10 -7.648099e-08)) ((-1.959561e-14 1.766861e-10 -1.489577e-14) (3.120966e-13 -7.502948e-08 -2.694658e-13))
50.973735     	((3.750224e-07 -3.274155e-10 -2.408912e-07) (6.956802e-07 -1.358445e-10 -8.104479e-08)) ((-1.194264e-14 1.763029e-10 -1.680543e-14) (2.257040e-13 -7.260906e-08 -4.655169e-13))
61.180482     	((3.637390e-07 -2.912100e-10 -2.646806e-07) (6.582323e-07 -1.307626e-10 -8.632028e-08)) ((-1.243339e-14 1.761108e-10 -1.588194e-14) (2.985225e-13 -7.049915e-08 -4.976074e-13))
73.428578     	((3.562668e-07 -2.830168e-10 -2.881169e-07) (6.254323e-07 -1.192699e-10 -9.247369e-08)) ((-1.356326e-14 1.760397e-10 -1.690297e-14) (3.639913e-13 -6.867343e-08 -5.857239e-13))
88.126294     	((3.531179e-07 -2.744105e-10 -3.103967e-07) (5.971836e-07 -1.067372e-10 -9.943420e-08)) ((-1.188137e-14 1.760323e-10 -1.619060e-14) (4.518139e-13 -6.710667e-08 -5.402583e-13))
105.574903    	((3.535933e-07 -2.779450e-10 -3.296645e-07) (5.735143e-07 -9.878594e-11 -1.070307e-07)) ((-7.790063e-15 1.761978e-10 -1.654290e-14) (4.931340e-13 -6.578482e-08 -4.072271e-13))
125.77503     	((3.571666e-07 -3.024155e-10 -3.461807e-07) (5.544907e-07 -9.517859e-11 -1.149201e-07)) ((-6.546096e-15 1.764487e-10 -1.719091e-14) (3.884470e-13 -6.469817e-08 -1.463249e-13))
148.727711    	((3.635679e-07 -2.975421e-10 -3.593101e-07) (5.400185e-07 -9.482003e-11 -1.227373e-07)) ((-6.142402e-15 1.767195e-10 -1.725301e-14) (2.237038e-13 -6.382900e-08 4.039746e-13))
174.434675    	((3.721133e-07 -2.881000e-10 -3.690705e-07) (5.298359e-07 -9.430422e-11 -1.300601e-07)) ((-5.758548e-15 1.769764e-10 -1.732788e-14) (1.073479e-14 -6.315793e-08 9.779096e-13))
201.997042    	((3.808609e-07 -2.712338e-10 -3.765191e-07) (5.234755e-07 -9.057887e-11 -1.362407e-07)) ((-5.494754e-15 1.772043e-10 -1.828713e-14) (-2.633344e-13 -6.266938e-08 1.436554e-12))
229.578746    	((3.878552e-07 -2.508452e-10 -3.825176e-07) (5.200645e-07 -8.666717e-11 -1.409017e-07)) ((-5.185819e-15 1.774384e-10 -1.911794e-14) (-5.080818e-13 -6.233647e-08 1.777774e-12))
257.178122    	((3.923199e-07 -2.362601e-10 -3.871560e-07) (5.184752e-07 -8.395503e-11 -1.440763e-07)) ((-4.747139e-15 1.776263e-10 -1.927395e-14) (-8.624543e-13 -6.211663e-08 2.014852e-12))
284.793109    	((3.942641e-07 -2.253336e-10 -3.908917e-07) (5.177970e-07 -8.250144e-11 -1.460334e-07)) ((-5.123614e-15 1.777453e-10 -1.909121e-14) (-1.192450e-12 -6.197232e-08 2.088302e-12))
312.421691    	((3.946907e-07 -2.170362e-10 -3.938487e-07) (5.174170e-07 -8.256113e-11 -1.471556e-07)) ((-5.329244e-15 1.778096e-10 -1.884588e-14) (-1.391973e-12 -6.187205e-08 2.017372e-12))
340.060692    	((3.946405e-07 -2.144982e-10 -3.961865e-07) (5.170610e-07 -8.409068e-11 -1.477849e-07)) ((-5.833910e-15 1.778493e-10 -1.813380e-14) (-1.526037e-12 -6.179843e-08 1.888466e-12))
367.708763    	((3.942750e-07 -2.125044e-10 -3.981903e-07) (5.166541e-07 -8.634719e-11 -1.481972e-07)) ((-6.313114e-15 1.778723e-10 -1.730278e-14) (-1.621960e-12 -6.174164e-08 1.727263e-12))
395.364919    	((3.937909e-07 -2.108928e-10 -3.999199e-07) (5.162026e-07 -8.833002e-11 -1.485418e-07)) ((-6.981969e-15 1.778869e-10 -1.650200e-14) (-1.694025e-12 -6.169618e-08 1.564868e-12))
423.028003    	((3.934544e-07 -2.086786e-10 -4.013696e-07) (5.157584e-07 -8.964815e-11 -1.488969e-07)) ((-7.086452e-15 1.778989e-10 -1.597055e-14) (-1.753382e-12 -6.165954e-08 1.420793e-12))
450.696667    	((3.931499e-07 -2.073672e-10 -4.026666e-07) (5.153675e-07 -9.097212e-11 -1.492931e-07)) ((-7.149367e-15 1.779072e-10 -1.559341e-14) (-1.796540e-12 -6.163008e-08 1.312861e-12))
478.369735    	((3.929519e-07 -2.076933e-10 -4.038123e-07) (5.150585e-07 -9.269577e-11 -1.497243e-07)) ((-7.103671e-15 1.779144e-10 -1.519955e-14) (-1.857383e-12 -6.160679e-08 1.224451e-12))
506.046411    	((3.929227e-07 -2.071663e-10 -4.048578e-07) (5.148489e-07 -9.414446e-11 -1.501634e-07)) ((-7.133737e-15 1.779232e-10 -1.481511e-14) (-1.923312e-12 -6.158916e-08 1.153129e-12))
533.726183    	((3.930205e-07 -2.064680e-10 -4.057553e-07) (5.147433e-07 -9.551564e-11 -1.505844e-07)) ((-7.069434e-15 1.779349e-10 -1.441463e-14) (-1.995717e-12 -6.157683e-08 1.102441e-12))
561.408811    	((3.931295e-07 -2.050057e-10 -4.065512e-07) (5.147274e-07 -9.667464e-11 -1.509742e-07)) ((-6.839650e-15 1.779484e-10 -1.410821e-14) (-2.082326e-12 -6.156911e-08 1.066984e-12))
589.094208    	((3.932087e-07 -2.042973e-10 -4.072508e-07) (5.147770e-07 -9.759315e-11 -1.513247e-07)) ((-6.652333e-15 1.779615e-10 -1.385449e-14) (-2.163687e-12 -6.156499e-08 1.037723e-12))
616.782366    	((3.932335e-07 -2.012723e-10 -4.078830e-07) (5.148674e-07 -9.850079e-11 -1.516381e-07)) ((-6.681087e-15 1.779727e-10 -1.356727e-14) (-2.229009e-12 -6.156342e-08 1.008392e-12))
644.4732      	((3.932131e-07 -1.981247e-10 -4.084430e-07) (5.149786e-07 -9.939367e-11 -1.519195e-07)) ((-6.951053e-15 1.779828e-10 -1.330475e-14) (-2.273541e-12 -6.156351e-08 9.843625e-13))
672.166555    	((3.931591e-07 -1.957766e-10 -4.089483e-07) (5.150962e-07 -9.998124e-11 -1.521755e-07)) ((-7.119818e-15 1.779917e-10 -1.310661e-14) (-2.301385e-12 -6.156462e-08 9.588202e-13))
699.862256    	((3.930899e-07 -1.929623e-10 -4.094136e-07) (5.152136e-07 -1.004457e-10 -1.524103e-07)) ((-7.348886e-15 1.779996e-10 -1.289795e-14) (-2.320030e-12 -6.156633e-08 9.366757e-13))
727.560126    	((3.930146e-07 -1.900197e-10 -4.098412e-07) (5.153283e-07 -1.009233e-10 -1.526265e-07)) ((-7.836201e-15 1.780068e-10 -1.274921e-14) (-2.339255e-12 -6.156837e-08 9.179789e-13))
755.259972    	((3.929548e-07 -1.889957e-10 -4.102301e-07) (5.154404e-07 -1.013293e-10 -1.528262e-07)) ((-8.286776e-15 1.780137e-10 -1.266402e-14) (-2.364072e-12 -6.157061e-08 8.943506e-13))
782.961612    	((3.928998e-07 -1.875236e-10 -4.105802e-07) (5.155504e-07 -1.017637e-10 -1.530106e-07)) ((-8.597418e-15 1.780199e-10 -1.259437e-14) (-2.393288e-12 -6.157302e-08 8.645013e-13))
810.664884    	((3.928389e-07 -1.869515e-10 -4.109149e-07) (5.156574e-07 -1.021625e-10 -1.531813e-07)) ((-8.895474e-15 1.780255e-10 -1.253476e-14) (-2.421729e-12 -6.157548e-08 8.342775e-13))
838.369643    	((3.927765e-07 -1.862751e-10 -4.112337e-07) (5.157608e-07 -1.025417e-10 -1.533396e-07)) ((-9.114991e-15 1.780306e-10 -1.244366e-14) (-2.445742e-12 -6.157793e-08 8.119451e-13))
866.075766    	((3.927228e-07 -1.857413e-10 -4.115256e-07) (5.158605e-07 -1.027130e-10 -1.534863e-07)) ((-9.240831e-15 1.780355e-10 -1.231278e-14) (-2.466765e-12 -6.158037e-08 7.919379e-13))
893.783149    	((3.926663e-07 -1.849958e-10 -4.118039e-07) (5.159562e-07 -1.028433e-10 -1.536230e-07)) ((-9.162526e-15 1.780399e-10 -1.218900e-14) (-2.484182e-12 -6.158274e-08 7.759824e-13))
921.491705    	((3.926026e-07 -1.845601e-10 -4.120697e-07) (5.160469e-07 -1.030035e-10 -1.537516e-07)) ((-9.114833e-15 1.780438e-10 -1.208565e-14) (-2.496494e-12 -6.158500e-08 7.632756e-13))
949.201357    	((3.925550e-07 -1.838455e-10 -4.123240e-07) (5.161335e-07 -1.031150e-10 -1.538726e-07)) ((-9.062533e-15 1.780476e-10 -1.198697e-14) (-2.503925e-12 -6.158718e-08 7.485154e-13))
976.91204     	((3.925151e-07 -1.834859e-10 -4.125597e-07) (5.162171e-07 -1.031607e-10 -1.539864e-07)) ((-8.985770e-15 1.780512e-10 -1.190871e-14) (-2.504389e-12 -6.158932e-08 7.324432e-13))
1004.623697   	((3.924683e-07 -1.834980e-10 -4.127704e-07) (5.162970e-07 -1.031434e-10 -1.540932e-07)) ((-8.907498e-15 1.780546e-10 -1.186021e-14) (-2.499627e-12 -6.159138e-08 7.179717e-13))
1032.336281   	((3.924262e-07 -1.835400e-10 -4.129706e-07) (5.163730e-07 -1.031259e-10 -1.541941e-07)) ((-8.835596e-15 1.780579e-10 -1.184208e-14) (-2.493227e-12 -6.159334e-08 7.069028e-13))
1060.049749   	((3.923969e-07 -1.836082e-10 -4.131554e-07) (5.164463e-07 -1.031568e-10 -1.542897e-07)) ((-8.792204e-15 1.780614e-10 -1.181675e-14) (-2.489229e-12 -6.159525e-08 7.004899e-13))
1087.764057   	((3.923717e-07 -1.839967e-10 -4.133297e-07) (5.165174e-07 -1.032395e-10 -1.543807e-07)) ((-8.769301e-15 1.780649e-10 -1.177832e-14) (-2.488170e-12 -6.159714e-08 6.973252e-13))
1115.479162   	((3.923434e-07 -1.838281e-10 -4.134971e-07) (5.165864e-07 -1.033436e-10 -1.544680e-07)) ((-8.736115e-15 1.780682e-10 -1.176591e-14) (-2.488609e-12 -6.159901e-08 6.952347e-13))
1143.195025   	((3.923113e-07 -1.838265e-10 -4.136648e-07) (5.166525e-07 -1.034100e-10 -1.545524e-07)) ((-8.715714e-15 1.780714e-10 -1.174400e-14) (-2.487956e-12 -6.160082e-08 6.951132e-13))
1170.911609   	((3.923015e-07 -1.835624e-10 -4.138142e-07) (5.167174e-07 -1.034903e-10 -1.546330e-07)) ((-8.690663e-15 1.780749e-10 -1.171842e-14) (-2.487732e-12 -6.160265e-08 6.941469e-13))
1198.628881   	((3.922893e-07 -1.838764e-10 -4.139475e-07) (5.167811e-07 -1.036107e-10 -1.547098e-07)) ((-8.630724e-15 1.780782e-10 -1.169320e-14) (-2.488829e-12 -6.160450e-08 6.940781e-13))
