# Forces      
# CofR        : (0.000000e+00 0.000000e+00 0.000000e+00)
# Time        forces(pressure viscous)	moments(pressure viscous)
0             	((0.000000e+00 0.000000e+00 0.000000e+00) (2.000489e-02 -1.756500e-12 1.927632e-07)) ((0.000000e+00 0.000000e+00 0.000000e+00) (-4.555684e-14 -4.494845e-04 -2.207789e-13))
0.0115249     	((6.139920e+00 2.751168e-04 7.819374e-01) (3.902249e-02 1.598274e-07 -4.604520e-03)) ((-8.934951e-09 8.843968e-05 2.626153e-09) (-4.827531e-08 -1.260641e-03 4.366451e-08))
0.0253548     	((-2.613477e+00 -4.014379e-04 -1.516817e+00) (3.649861e-02 -7.057686e-07 -6.350203e-03)) ((-2.061559e-09 -4.128637e-05 -1.271150e-08) (-5.128805e-08 -1.315686e-03 1.511945e-07))
0.0419507     	((3.738633e-01 2.310912e-04 -7.868644e-01) (2.957157e-02 -1.129659e-06 -4.862293e-03)) ((2.590119e-08 -9.149105e-08 -4.800205e-09) (-3.637428e-08 -1.062490e-03 7.425724e-08))
0.0618658     	((-1.686436e-01 -3.317147e-04 -7.788513e-01) (2.698288e-02 -1.780322e-06 -4.463341e-03)) ((2.077884e-08 -4.054462e-06 -2.140547e-08) (-7.332754e-08 -9.632173e-04 1.579781e-08))
0.0857639     	((1.182480e-01 5.729273e-05 -7.094973e-01) (2.525830e-02 -3.413310e-07 -4.390609e-03)) ((7.694795e-09 -1.115844e-06 -1.036032e-08) (-9.044282e-08 -9.014370e-04 2.570668e-08))
0.113854      	((-6.415597e-04 2.175010e-06 -7.322105e-01) (2.440845e-02 9.210858e-07 -4.451247e-03)) ((2.179173e-09 -1.447170e-06 -3.148106e-09) (-7.593002e-08 -8.747392e-04 -9.050511e-10))
0.146112      	((5.401568e-02 4.676441e-05 -7.104244e-01) (2.378963e-02 9.469201e-07 -4.675130e-03)) ((-2.165256e-09 -7.335880e-07 -1.277504e-09) (-6.807135e-08 -8.505425e-04 -5.911587e-10))
0.182497      	((3.477070e-02 -1.147049e-06 -7.207120e-01) (2.335876e-02 1.401409e-06 -4.929910e-03)) ((2.781081e-09 -3.225443e-07 -7.328415e-10) (-6.360506e-08 -8.332364e-04 -2.335964e-08))
0.223012      	((5.166816e-02 -6.040068e-06 -7.114946e-01) (2.306396e-02 5.550889e-07 -5.167191e-03)) ((-3.459386e-09 1.470386e-07 -3.332195e-09) (-5.890837e-08 -8.208622e-04 -3.783317e-08))
0.264274      	((5.111556e-02 -4.634801e-05 -7.150055e-01) (2.288281e-02 2.194057e-07 -5.396077e-03)) ((2.895366e-09 4.755841e-07 -2.571799e-09) (-6.274089e-08 -8.127821e-04 -5.242717e-08))
0.305515      	((5.984667e-02 -5.242145e-05 -7.093883e-01) (2.276392e-02 3.240380e-07 -5.583485e-03)) ((1.556945e-09 8.106102e-07 -9.606577e-10) (-6.532733e-08 -8.064759e-04 -7.509952e-08))
0.346549      	((6.357720e-02 -1.019227e-04 -7.080809e-01) (2.267132e-02 -4.317019e-07 -5.727696e-03)) ((-4.837786e-09 1.094553e-06 1.372823e-09) (-6.216576e-08 -8.007401e-04 -7.818928e-08))
0.387321      	((6.905732e-02 -1.348466e-04 -7.017460e-01) (2.256108e-02 -7.721224e-07 -5.824734e-03)) ((2.353977e-09 1.365346e-06 1.026572e-09) (-6.640033e-08 -7.944417e-04 -7.601123e-08))
0.427901      	((7.220980e-02 -1.310865e-04 -6.972324e-01) (2.242112e-02 -4.775269e-07 -5.896171e-03)) ((-2.906983e-12 1.668564e-06 1.870846e-09) (-6.481153e-08 -7.875987e-04 -8.333807e-08))
0.46839       	((7.489758e-02 -1.493786e-04 -6.908697e-01) (2.225823e-02 -9.206024e-07 -5.951186e-03)) ((-3.505389e-10 1.910096e-06 3.158982e-10) (-6.367469e-08 -7.807260e-04 -8.363049e-08))
0.508936      	((7.586881e-02 -1.961194e-04 -6.852550e-01) (2.208966e-02 -1.527940e-06 -5.994428e-03)) ((5.707198e-09 2.153558e-06 -2.260667e-09) (-7.962015e-08 -7.744029e-04 -8.464351e-08))
0.549614      	((7.645840e-02 -2.168076e-04 -6.795336e-01) (2.193557e-02 -2.035275e-06 -6.029424e-03)) ((8.221319e-09 2.334048e-06 -9.528251e-10) (-9.979468e-08 -7.689180e-04 -9.339856e-08))
0.590416      	((7.625464e-02 -2.524363e-04 -6.747256e-01) (2.179881e-02 -2.513111e-06 -6.055610e-03)) ((1.006866e-08 2.473248e-06 -9.901030e-10) (-1.178075e-07 -7.641574e-04 -9.809894e-08))
0.63129       	((7.552630e-02 -2.658480e-04 -6.701077e-01) (2.167511e-02 -2.534576e-06 -6.075530e-03)) ((7.966844e-09 2.580575e-06 -1.629553e-09) (-1.292691e-07 -7.598830e-04 -9.117527e-08))
0.672201      	((7.457553e-02 -2.884444e-04 -6.663847e-01) (2.156314e-02 -2.484761e-06 -6.094141e-03)) ((8.083855e-09 2.640918e-06 -2.268820e-09) (-1.377598e-07 -7.560125e-04 -7.714120e-08))
0.713148      	((7.366133e-02 -3.395158e-04 -6.628406e-01) (2.146218e-02 -2.560246e-06 -6.113818e-03)) ((7.193984e-09 2.678630e-06 -2.651059e-09) (-1.476680e-07 -7.524643e-04 -6.389732e-08))
0.754124      	((7.294392e-02 -4.028861e-04 -6.597324e-01) (2.137050e-02 -2.819790e-06 -6.134116e-03)) ((7.067254e-09 2.694038e-06 -2.663679e-09) (-1.595834e-07 -7.491322e-04 -5.286289e-08))
0.795124      	((7.248203e-02 -4.564439e-04 -6.568122e-01) (2.128637e-02 -3.160786e-06 -6.152760e-03)) ((8.600246e-09 2.707992e-06 -2.428443e-09) (-1.741239e-07 -7.460195e-04 -3.609546e-08))
0.836143      	((7.214531e-02 -5.155442e-04 -6.540981e-01) (2.120989e-02 -3.464977e-06 -6.169130e-03)) ((8.127019e-09 2.730432e-06 -1.618934e-09) (-1.884996e-07 -7.432367e-04 -1.488974e-08))
0.87718       	((7.186014e-02 -5.809687e-04 -6.515098e-01) (2.114145e-02 -3.969333e-06 -6.181532e-03)) ((7.755818e-09 2.758374e-06 -1.243171e-09) (-2.039074e-07 -7.408373e-04 9.838721e-09))
0.918235      	((7.139780e-02 -6.743743e-04 -6.490102e-01) (2.107926e-02 -4.835889e-06 -6.191012e-03)) ((1.437456e-08 2.779997e-06 -1.137747e-09) (-2.299437e-07 -7.387289e-04 4.434080e-08))
0.959308      	((7.084511e-02 -7.693512e-04 -6.466595e-01) (2.102160e-02 -5.573375e-06 -6.199637e-03)) ((1.924480e-08 2.795563e-06 -1.338982e-09) (-2.624197e-07 -7.367874e-04 8.415073e-08))
1.000396      	((7.039499e-02 -8.552374e-04 -6.446026e-01) (2.096805e-02 -5.955167e-06 -6.208052e-03)) ((1.875424e-08 2.809115e-06 -1.645131e-09) (-2.901571e-07 -7.349595e-04 1.144494e-07))
1.041499      	((6.999504e-02 -9.604137e-04 -6.427137e-01) (2.091804e-02 -6.164097e-06 -6.216954e-03)) ((1.791108e-08 2.818309e-06 -2.090139e-09) (-3.155064e-07 -7.332210e-04 1.428079e-07))
1.082615      	((6.965376e-02 -1.072056e-03 -6.409682e-01) (2.087140e-02 -6.499572e-06 -6.225705e-03)) ((1.811710e-08 2.827834e-06 -2.640424e-09) (-3.434140e-07 -7.315848e-04 1.802515e-07))
1.123745      	((6.942699e-02 -1.222073e-03 -6.393714e-01) (2.082850e-02 -7.015848e-06 -6.233502e-03)) ((1.963019e-08 2.838737e-06 -3.631366e-09) (-3.764076e-07 -7.300915e-04 2.291569e-07))
1.164885      	((6.922473e-02 -1.392884e-03 -6.378703e-01) (2.078941e-02 -7.695440e-06 -6.240210e-03)) ((2.022380e-08 2.849041e-06 -4.508680e-09) (-4.129719e-07 -7.287493e-04 2.846496e-07))
1.206037      	((6.903130e-02 -1.593716e-03 -6.364700e-01) (2.075370e-02 -8.422588e-06 -6.246003e-03)) ((2.182940e-08 2.858408e-06 -5.757167e-09) (-4.533472e-07 -7.275362e-04 3.525045e-07))
1.247199      	((6.881148e-02 -1.820260e-03 -6.351649e-01) (2.072086e-02 -9.202906e-06 -6.251265e-03)) ((2.227473e-08 2.863939e-06 -6.459858e-09) (-4.982435e-07 -7.264309e-04 4.330558e-07))
1.288371      	((6.857542e-02 -2.081491e-03 -6.339340e-01) (2.069056e-02 -1.013322e-05 -6.255871e-03)) ((2.332112e-08 2.865958e-06 -7.602497e-09) (-5.489845e-07 -7.254240e-04 5.238830e-07))
1.329551      	((6.834049e-02 -2.375000e-03 -6.327750e-01) (2.066260e-02 -1.126363e-05 -6.259690e-03)) ((2.466090e-08 2.865882e-06 -8.221529e-09) (-6.094652e-07 -7.245114e-04 6.248602e-07))
1.370738      	((6.811759e-02 -2.697824e-03 -6.317116e-01) (2.063702e-02 -1.259456e-05 -6.262754e-03)) ((2.644881e-08 2.864036e-06 -8.406175e-09) (-6.809608e-07 -7.236939e-04 7.373420e-07))
1.411933      	((6.792722e-02 -3.062950e-03 -6.307365e-01) (2.061375e-02 -1.411875e-05 -6.265082e-03)) ((2.913979e-08 2.862337e-06 -8.911212e-09) (-7.650774e-07 -7.229659e-04 8.593462e-07))
1.453134      	((6.773435e-02 -3.471550e-03 -6.298208e-01) (2.059257e-02 -1.586418e-05 -6.266849e-03)) ((3.324752e-08 2.860153e-06 -1.006147e-08) (-8.638954e-07 -7.223163e-04 9.912173e-07))
1.49434       	((6.753396e-02 -3.940435e-03 -6.289513e-01) (2.057322e-02 -1.794434e-05 -6.268340e-03)) ((3.796842e-08 2.857996e-06 -1.093706e-08) (-9.792731e-07 -7.217302e-04 1.137906e-06))
1.535552      	((6.730689e-02 -4.479512e-03 -6.281149e-01) (2.055533e-02 -2.043141e-05 -6.269798e-03)) ((4.210612e-08 2.853618e-06 -1.203751e-08) (-1.113041e-06 -7.211892e-04 1.303873e-06))
1.576767      	((6.708026e-02 -5.081629e-03 -6.273381e-01) (2.053865e-02 -2.333227e-05 -6.271545e-03)) ((4.655880e-08 2.848285e-06 -1.351596e-08) (-1.264826e-06 -7.206743e-04 1.491783e-06))
1.617985      	((6.684944e-02 -5.759576e-03 -6.266208e-01) (2.052295e-02 -2.661369e-05 -6.273849e-03)) ((5.149300e-08 2.843090e-06 -1.555261e-08) (-1.435197e-06 -7.201696e-04 1.705758e-06))
1.659206      	((6.664355e-02 -6.524765e-03 -6.259641e-01) (2.050822e-02 -3.016434e-05 -6.276471e-03)) ((5.779271e-08 2.839926e-06 -1.753506e-08) (-1.626297e-06 -7.196827e-04 1.953932e-06))
1.700428      	((6.647695e-02 -7.390399e-03 -6.253634e-01) (2.049454e-02 -3.400568e-05 -6.278932e-03)) ((6.540395e-08 2.837820e-06 -1.962378e-08) (-1.841104e-06 -7.192336e-04 2.242969e-06))
1.741651      	((6.633933e-02 -8.382019e-03 -6.248000e-01) (2.048180e-02 -3.820999e-05 -6.281068e-03)) ((7.425184e-08 2.836278e-06 -2.192396e-08) (-2.084072e-06 -7.188257e-04 2.581146e-06))
1.782873      	((6.622470e-02 -9.519193e-03 -6.242618e-01) (2.046982e-02 -4.285916e-05 -6.282962e-03)) ((8.472582e-08 2.834979e-06 -2.470977e-08) (-2.359872e-06 -7.184500e-04 2.976413e-06))
1.824094      	((6.613090e-02 -1.080645e-02 -6.237538e-01) (2.045845e-02 -4.802216e-05 -6.284740e-03)) ((9.658433e-08 2.834462e-06 -2.837862e-08) (-2.674278e-06 -7.180967e-04 3.435573e-06))
1.865313      	((6.605984e-02 -1.227022e-02 -6.232750e-01) (2.044758e-02 -5.387404e-05 -6.286407e-03)) ((1.103414e-07 2.835269e-06 -3.269258e-08) (-3.034383e-06 -7.177623e-04 3.961682e-06))
1.906529      	((6.602721e-02 -1.392604e-02 -6.228306e-01) (2.043746e-02 -6.052356e-05 -6.287831e-03)) ((1.260379e-07 2.837523e-06 -3.751357e-08) (-3.445740e-06 -7.174538e-04 4.550667e-06))
1.94774       	((6.602705e-02 -1.579751e-02 -6.224203e-01) (2.042833e-02 -6.800612e-05 -6.288860e-03)) ((1.436950e-07 2.840264e-06 -4.242770e-08) (-3.910378e-06 -7.171787e-04 5.208857e-06))
1.988945      	((6.607657e-02 -1.791226e-02 -6.220369e-01) (2.042023e-02 -7.641848e-05 -6.289410e-03)) ((1.637636e-07 2.843454e-06 -4.731071e-08) (-4.430942e-06 -7.169440e-04 5.951514e-06))
2.030144      	((6.617541e-02 -2.030181e-02 -6.216931e-01) (2.041292e-02 -8.589491e-05 -6.289382e-03)) ((1.866422e-07 2.846847e-06 -5.270236e-08) (-5.015159e-06 -7.167511e-04 6.795375e-06))
2.071333      	((6.631869e-02 -2.302632e-02 -6.213687e-01) (2.040636e-02 -9.692542e-05 -6.288697e-03)) ((2.137759e-07 2.850120e-06 -5.845868e-08) (-5.673757e-06 -7.166006e-04 7.744257e-06))
2.112512      	((6.651077e-02 -2.610630e-02 -6.210596e-01) (2.040052e-02 -1.098397e-04 -6.287399e-03)) ((2.449099e-07 2.854832e-06 -6.444041e-08) (-6.420559e-06 -7.164917e-04 8.805197e-06))
2.153679      	((6.676843e-02 -2.955696e-02 -6.208006e-01) (2.039569e-02 -1.249999e-04 -6.285421e-03)) ((2.794628e-07 2.860234e-06 -7.121171e-08) (-7.266487e-06 -7.164337e-04 9.979335e-06))
2.194831      	((6.709160e-02 -3.344333e-02 -6.205956e-01) (2.039219e-02 -1.428699e-04 -6.282636e-03)) ((3.184448e-07 2.868351e-06 -7.945239e-08) (-8.222938e-06 -7.164430e-04 1.125920e-05))
2.235967      	((6.749126e-02 -3.780143e-02 -6.204580e-01) (2.039044e-02 -1.636094e-04 -6.278604e-03)) ((3.620332e-07 2.880683e-06 -8.888049e-08) (-9.302248e-06 -7.165491e-04 1.264985e-05))
2.277083      	((6.798661e-02 -4.264557e-02 -6.203984e-01) (2.039110e-02 -1.873372e-04 -6.272790e-03)) ((4.109987e-07 2.896796e-06 -9.910499e-08) (-1.051056e-05 -7.167799e-04 1.415871e-05))
2.318179      	((6.860616e-02 -4.804043e-02 -6.204495e-01) (2.039443e-02 -2.148205e-04 -6.264662e-03)) ((4.664248e-07 2.916784e-06 -1.096386e-07) (-1.186613e-05 -7.171613e-04 1.579282e-05))
2.359249      	((6.929823e-02 -5.406553e-02 -6.205450e-01) (2.040043e-02 -2.466300e-04 -6.254100e-03)) ((5.278349e-07 2.938235e-06 -1.205552e-07) (-1.339949e-05 -7.177125e-04 1.754456e-05))
2.400293      	((7.021797e-02 -6.071797e-02 -6.207916e-01) (2.040960e-02 -2.825426e-04 -6.240936e-03)) ((5.919297e-07 2.963364e-06 -1.326312e-07) (-1.512212e-05 -7.184703e-04 1.943497e-05))
2.441305      	((7.141761e-02 -6.802405e-02 -6.212184e-01) (2.042325e-02 -3.229143e-04 -6.224843e-03)) ((6.626835e-07 2.993123e-06 -1.443109e-07) (-1.703948e-05 -7.194876e-04 2.150635e-05))
2.482284      	((7.298002e-02 -7.603517e-02 -6.218671e-01) (2.044300e-02 -3.683264e-04 -6.205682e-03)) ((7.435991e-07 3.035533e-06 -1.548290e-07) (-1.916966e-05 -7.208047e-04 2.378241e-05))
2.523226      	((7.495999e-02 -8.468672e-02 -6.227537e-01) (2.046964e-02 -4.182826e-04 -6.183272e-03)) ((8.243114e-07 3.086359e-06 -1.650784e-07) (-2.152589e-05 -7.224694e-04 2.626561e-05))
2.564126      	((7.746978e-02 -9.388441e-02 -6.240004e-01) (2.050401e-02 -4.721997e-04 -6.156914e-03)) ((9.112449e-07 3.145721e-06 -1.749179e-07) (-2.411214e-05 -7.245401e-04 2.894083e-05))
2.604981      	((8.042367e-02 -1.035938e-01 -6.255657e-01) (2.054715e-02 -5.295342e-04 -6.126143e-03)) ((1.006164e-06 3.209269e-06 -1.818382e-07) (-2.692204e-05 -7.270620e-04 3.182399e-05))
2.645788      	((8.403698e-02 -1.136970e-01 -6.275075e-01) (2.059946e-02 -5.901435e-04 -6.091802e-03)) ((1.102661e-06 3.276545e-06 -1.880866e-07) (-2.994756e-05 -7.300360e-04 3.497596e-05))
2.686514      	((8.830188e-02 -1.238373e-01 -6.300262e-01) (2.066159e-02 -6.547245e-04 -6.054508e-03)) ((1.205699e-06 3.344160e-06 -1.945069e-07) (-3.315845e-05 -7.334611e-04 3.833532e-05))
2.727146      	((9.293786e-02 -1.337370e-01 -6.329826e-01) (2.073388e-02 -7.228020e-04 -6.015568e-03)) ((1.311205e-06 3.399743e-06 -1.981683e-07) (-3.653815e-05 -7.373059e-04 4.180390e-05))
2.767681      	((9.780304e-02 -1.429165e-01 -6.361295e-01) (2.081626e-02 -7.933149e-04 -5.976588e-03)) ((1.407146e-06 3.445910e-06 -1.976137e-07) (-4.003803e-05 -7.414969e-04 4.528141e-05))
2.808118      	((1.033319e-01 -1.505520e-01 -6.401485e-01) (2.090809e-02 -8.635601e-04 -5.937265e-03)) ((1.480870e-06 3.489945e-06 -1.979134e-07) (-4.351758e-05 -7.460062e-04 4.871869e-05))
2.84846       	((1.089575e-01 -1.562172e-01 -6.447488e-01) (2.100906e-02 -9.289730e-04 -5.896342e-03)) ((1.529945e-06 3.510466e-06 -2.002375e-07) (-4.683734e-05 -7.508101e-04 5.205054e-05))
2.88871       	((1.139031e-01 -1.598041e-01 -6.492998e-01) (2.111704e-02 -9.853281e-04 -5.854085e-03)) ((1.556995e-06 3.492233e-06 -2.034686e-07) (-4.987650e-05 -7.557911e-04 5.517335e-05))
2.928872      	((1.180278e-01 -1.607765e-01 -6.538261e-01) (2.122692e-02 -1.031055e-03 -5.812702e-03)) ((1.545830e-06 3.451522e-06 -2.035749e-07) (-5.246331e-05 -7.607336e-04 5.788774e-05))
2.968956      	((1.211339e-01 -1.587581e-01 -6.582747e-01) (2.133331e-02 -1.062690e-03 -5.773806e-03)) ((1.488862e-06 3.384248e-06 -1.999814e-07) (-5.436442e-05 -7.654291e-04 6.006548e-05))
3.008971      	((1.226893e-01 -1.540994e-01 -6.623311e-01) (2.143233e-02 -1.072536e-03 -5.737668e-03)) ((1.391568e-06 3.295201e-06 -1.959167e-07) (-5.534864e-05 -7.697103e-04 6.181785e-05))
3.048933      	((1.227405e-01 -1.470243e-01 -6.659012e-01) (2.152078e-02 -1.055347e-03 -5.702739e-03)) ((1.237291e-06 3.199927e-06 -1.790174e-07) (-5.523844e-05 -7.735390e-04 6.317051e-05))
3.088856      	((1.214355e-01 -1.383434e-01 -6.687076e-01) (2.159631e-02 -1.009835e-03 -5.669665e-03)) ((1.047373e-06 3.091584e-06 -1.489658e-07) (-5.398846e-05 -7.769111e-04 6.412768e-05))
3.128758      	((1.192092e-01 -1.291752e-01 -6.707755e-01) (2.166053e-02 -9.430394e-04 -5.638368e-03)) ((8.794478e-07 2.983538e-06 -1.240057e-07) (-5.178437e-05 -7.798811e-04 6.460663e-05))
3.168655      	((1.167879e-01 -1.204129e-01 -6.728672e-01) (2.171560e-02 -8.633486e-04 -5.608624e-03)) ((7.475956e-07 2.894843e-06 -1.107896e-07) (-4.891566e-05 -7.826003e-04 6.455174e-05))
3.208559      	((1.137791e-01 -1.127911e-01 -6.745543e-01) (2.176366e-02 -7.780473e-04 -5.581861e-03)) ((6.482825e-07 2.786203e-06 -9.567564e-08) (-4.564620e-05 -7.851814e-04 6.393502e-05))
3.24848       	((1.106019e-01 -1.074438e-01 -6.758424e-01) (2.180779e-02 -6.993124e-04 -5.561499e-03)) ((6.292708e-07 2.663577e-06 -7.337320e-08) (-4.239677e-05 -7.875487e-04 6.283500e-05))
3.288425      	((1.073337e-01 -1.041735e-01 -6.769842e-01) (2.184896e-02 -6.361032e-04 -5.552352e-03)) ((6.746901e-07 2.513340e-06 -5.214080e-08) (-3.958692e-05 -7.894850e-04 6.132268e-05))
3.328397      	((1.047718e-01 -1.023915e-01 -6.784955e-01) (2.188530e-02 -5.896166e-04 -5.561797e-03)) ((7.123713e-07 2.371017e-06 -3.637561e-08) (-3.745272e-05 -7.907553e-04 5.950716e-05))
3.368394      	((1.020904e-01 -1.016840e-01 -6.798341e-01) (2.191554e-02 -5.652549e-04 -5.590959e-03)) ((7.916567e-07 2.243765e-06 -2.506232e-08) (-3.616285e-05 -7.912098e-04 5.749229e-05))
3.408413      	((9.950271e-02 -1.014063e-01 -6.810406e-01) (2.193391e-02 -5.556177e-04 -5.635507e-03)) ((8.829437e-07 2.126111e-06 -3.546558e-08) (-3.560629e-05 -7.908308e-04 5.568832e-05))
3.448451      	((9.706481e-02 -1.007509e-01 -6.818273e-01) (2.193625e-02 -5.453334e-04 -5.686995e-03)) ((9.325343e-07 2.006509e-06 -5.881266e-08) (-3.530898e-05 -7.898774e-04 5.445256e-05))
3.488503      	((9.525222e-02 -9.969429e-02 -6.819380e-01) (2.192904e-02 -5.309556e-04 -5.733234e-03)) ((9.726548e-07 1.946191e-06 -7.298661e-08) (-3.491533e-05 -7.887390e-04 5.384064e-05))
3.528567      	((9.415502e-02 -9.821299e-02 -6.814181e-01) (2.191641e-02 -5.104889e-04 -5.767048e-03)) ((9.462344e-07 1.967563e-06 -5.750577e-08) (-3.435086e-05 -7.876133e-04 5.377151e-05))
3.568639      	((9.334770e-02 -9.620916e-02 -6.802853e-01) (2.190017e-02 -4.831717e-04 -5.788414e-03)) ((8.127615e-07 2.035751e-06 -1.518787e-08) (-3.353281e-05 -7.865493e-04 5.390364e-05))
3.608718      	((9.328442e-02 -9.392548e-02 -6.794096e-01) (2.188474e-02 -4.556586e-04 -5.795977e-03)) ((6.685943e-07 2.129375e-06 3.353757e-08) (-3.243634e-05 -7.856934e-04 5.406576e-05))
