# Forces      
# CofR        : (0.000000e+00 0.000000e+00 0.000000e+00)
# Time        forces(pressure viscous)	moments(pressure viscous)
0             	((0.000000e+00 0.000000e+00 0.000000e+00) (-6.055735e-13 1.987410e-03 1.854706e-13)) ((0.000000e+00 0.000000e+00 0.000000e+00) (4.465485e-05 -6.566065e-15 -8.569762e-10))
0.012         	((7.066594e-07 5.814906e-01 1.383440e-01) (2.667790e-10 2.319861e-03 -2.880966e-05)) ((-6.816789e-06 4.964304e-07 -1.065590e-07) (6.791977e-05 -1.416456e-10 -1.315545e-09))
0.0264        	((-1.993941e-05 -8.660845e-02 -2.813906e-02) (-2.221404e-08 2.326250e-03 -4.416514e-05)) ((9.549510e-07 -5.438344e-08 6.448918e-09) (7.526520e-05 1.409529e-10 -3.851188e-10))
0.04368       	((2.405289e-05 -9.553709e-02 -2.209222e-02) (-6.081980e-09 2.020862e-03 -4.395777e-05)) ((1.328506e-06 -4.623556e-08 3.278543e-08) (6.655697e-05 -1.265576e-10 1.290990e-09))
0.064416      	((-1.241661e-06 -1.861717e-04 -1.286371e-02) (4.933557e-08 1.779762e-03 -4.916208e-05)) ((2.201505e-09 -1.423868e-08 -6.227859e-09) (6.039040e-05 -4.929941e-10 1.815116e-09))
0.0892992     	((-3.025100e-06 -7.117448e-04 -1.035257e-02) (9.224375e-09 1.637347e-03 -6.032189e-05)) ((6.746923e-09 -6.738134e-09 6.103847e-10) (5.712240e-05 2.658446e-10 2.778667e-09))
0.119159      	((-1.270882e-06 -9.827654e-04 -8.937145e-03) (-1.571927e-07 1.516988e-03 -7.038641e-05)) ((4.554413e-08 -1.872714e-09 2.367231e-10) (5.369619e-05 8.618607e-10 3.752822e-09))
0.154991      	((-4.059629e-06 -2.257752e-06 -8.172158e-03) (-2.937493e-07 1.403800e-03 -7.801265e-05)) ((2.914802e-08 4.325712e-11 4.475098e-11) (5.030895e-05 1.358871e-09 4.534398e-09))
0.197989      	((-1.048843e-06 2.966492e-04 -7.642260e-03) (-3.897418e-07 1.302570e-03 -8.494915e-05)) ((2.355278e-08 1.521159e-09 -1.135513e-10) (4.714721e-05 1.585219e-09 5.199441e-09))
0.249587      	((-3.094332e-06 4.435815e-04 -7.323353e-03) (-4.840123e-07 1.215267e-03 -9.228569e-05)) ((2.063053e-08 2.497299e-09 5.970375e-11) (4.425313e-05 1.948768e-09 5.276373e-09))
0.311504      	((-1.586587e-06 5.389565e-04 -7.124426e-03) (-4.741647e-07 1.139567e-03 -1.002397e-04)) ((1.747675e-08 2.933787e-09 -2.686499e-10) (4.160835e-05 2.278332e-09 5.886949e-09))
0.385805      	((-1.422918e-06 5.927822e-04 -6.993408e-03) (-3.821284e-07 1.071040e-03 -1.094747e-04)) ((1.412106e-08 2.996303e-09 -4.467888e-10) (3.912798e-05 2.210207e-09 7.052296e-09))
0.474966      	((-8.011824e-07 6.256803e-04 -6.902157e-03) (-3.173824e-07 1.005549e-03 -1.206775e-04)) ((1.051240e-08 2.962670e-09 -6.090188e-10) (3.670975e-05 2.122189e-09 8.190434e-09))
0.581959      	((-8.467683e-07 6.550032e-04 -6.832448e-03) (-2.912206e-07 9.415474e-04 -1.337642e-04)) ((6.945939e-09 2.936781e-09 -7.293845e-10) (3.432516e-05 2.099215e-09 8.792022e-09))
0.710351      	((-6.050692e-07 6.904548e-04 -6.773588e-03) (-2.548517e-07 8.800174e-04 -1.484037e-04)) ((3.303618e-09 2.781890e-09 -9.114445e-10) (3.201565e-05 1.935583e-09 9.052395e-09))
0.864421      	((-4.123398e-07 7.414409e-04 -6.716684e-03) (-2.028590e-07 8.223828e-04 -1.643382e-04)) ((-3.467343e-10 2.508322e-09 -1.174134e-09) (2.983094e-05 1.400740e-09 9.402267e-09))
1.049306      	((-2.512719e-07 8.136384e-04 -6.658916e-03) (-1.570735e-07 7.695340e-04 -1.811154e-04)) ((-4.226335e-09 2.177485e-09 -1.485335e-09) (2.780716e-05 8.100246e-10 9.998209e-09))
1.271167      	((-1.478303e-07 9.113880e-04 -6.593222e-03) (-8.820620e-08 7.220538e-04 -1.978569e-04)) ((-8.401625e-09 1.725209e-09 -1.829388e-09) (2.597837e-05 5.577770e-10 1.146135e-08))
1.533271      	((2.743957e-07 1.039671e-03 -6.524313e-03) (-8.581318e-09 6.807333e-04 -2.134771e-04)) ((-1.285468e-08 1.093652e-09 -2.249116e-09) (2.438775e-05 2.047067e-10 1.389137e-08))
1.835239      	((4.750273e-07 1.198677e-03 -6.451544e-03) (5.993507e-08 6.458781e-04 -2.273746e-04)) ((-1.739209e-08 3.389050e-10 -2.759533e-09) (2.305178e-05 -4.186492e-10 1.684540e-08))
2.176732      	((8.132076e-07 1.388036e-03 -6.377344e-03) (8.470159e-08 6.169921e-04 -2.396047e-04)) ((-2.159157e-08 -5.059835e-10 -3.367358e-09) (2.194310e-05 -1.146414e-09 2.066683e-08))
2.557357      	((9.878795e-07 1.603824e-03 -6.295540e-03) (5.142327e-08 5.932880e-04 -2.504620e-04)) ((-2.506632e-08 -1.350741e-09 -4.076026e-09) (2.101195e-05 -1.846309e-09 2.390142e-08))
2.943908      	((1.087825e-06 1.828906e-03 -6.202997e-03) (3.627487e-08 5.751053e-04 -2.589866e-04)) ((-2.775777e-08 -2.222501e-09 -4.711521e-09) (2.026495e-05 -2.772488e-09 2.581678e-08))
3.325042      	((1.409791e-06 2.042404e-03 -6.090057e-03) (6.081657e-08 5.606685e-04 -2.644454e-04)) ((-2.987557e-08 -2.907799e-09 -5.173759e-09) (1.966708e-05 -3.817911e-09 2.605685e-08))
3.700831      	((2.011937e-06 2.239562e-03 -5.971313e-03) (6.134509e-08 5.492348e-04 -2.668961e-04)) ((-3.215995e-08 -3.576889e-09 -5.597247e-09) (1.920471e-05 -4.602173e-09 2.538888e-08))
4.072866      	((2.303222e-06 2.397014e-03 -5.839615e-03) (4.185073e-08 5.402789e-04 -2.670296e-04)) ((-3.474504e-08 -4.223553e-09 -6.164346e-09) (1.886027e-05 -4.939847e-09 2.514469e-08))
4.443179      	((2.665854e-06 2.507394e-03 -5.701622e-03) (4.542507e-09 5.327722e-04 -2.657075e-04)) ((-3.741435e-08 -4.787455e-09 -6.784440e-09) (1.859518e-05 -4.963304e-09 2.632330e-08))
4.813244      	((3.573634e-06 2.569445e-03 -5.556870e-03) (-2.795316e-08 5.257540e-04 -2.639207e-04)) ((-4.000627e-08 -5.187345e-09 -7.445377e-09) (1.836550e-05 -4.540139e-09 2.761367e-08))
5.183213      	((4.814107e-06 2.586763e-03 -5.408778e-03) (-3.566157e-08 5.192746e-04 -2.619753e-04)) ((-4.252665e-08 -5.206635e-09 -8.062784e-09) (1.816725e-05 -4.591405e-09 2.851591e-08))
5.552272      	((4.600666e-06 2.556552e-03 -5.270683e-03) (-1.964298e-08 5.132765e-04 -2.600314e-04)) ((-4.390794e-08 -4.974731e-09 -8.383765e-09) (1.799473e-05 -4.909500e-09 2.935813e-08))
5.919781      	((4.158600e-06 2.505664e-03 -5.153340e-03) (6.080976e-09 5.076827e-04 -2.581344e-04)) ((-4.484853e-08 -4.667332e-09 -8.425601e-09) (1.784531e-05 -4.906824e-09 2.922958e-08))
6.28563       	((4.915040e-06 2.459290e-03 -5.065318e-03) (3.158177e-08 5.026092e-04 -2.561307e-04)) ((-4.571179e-08 -4.498986e-09 -8.275151e-09) (1.772766e-05 -5.240964e-09 2.946392e-08))
6.650086      	((5.211578e-06 2.415649e-03 -4.984349e-03) (6.392187e-08 4.982864e-04 -2.540896e-04)) ((-4.597077e-08 -4.376821e-09 -8.094238e-09) (1.763940e-05 -6.294956e-09 2.972859e-08))
7.013414      	((5.505058e-06 2.393921e-03 -4.901660e-03) (1.046687e-07 4.947383e-04 -2.520938e-04)) ((-4.595716e-08 -4.373078e-09 -7.975532e-09) (1.757210e-05 -7.253421e-09 2.913616e-08))
7.375731      	((6.168445e-06 2.386787e-03 -4.818960e-03) (1.552604e-07 4.916870e-04 -2.502093e-04)) ((-4.582373e-08 -4.472361e-09 -7.979543e-09) (1.751439e-05 -8.189751e-09 2.668012e-08))
7.737065      	((6.577445e-06 2.380423e-03 -4.747054e-03) (1.919358e-07 4.888426e-04 -2.486060e-04)) ((-4.550523e-08 -4.589862e-09 -8.080210e-09) (1.745345e-05 -9.240611e-09 2.365990e-08))
8.097501      	((6.639925e-06 2.367456e-03 -4.678280e-03) (2.295980e-07 4.860263e-04 -2.473651e-04)) ((-4.522383e-08 -4.598584e-09 -8.148526e-09) (1.738315e-05 -1.045003e-08 2.044246e-08))
8.457169      	((7.315524e-06 2.349024e-03 -4.618497e-03) (2.645813e-07 4.832575e-04 -2.464144e-04)) ((-4.501698e-08 -4.489459e-09 -8.151384e-09) (1.730806e-05 -1.190903e-08 1.839715e-08))
8.816155      	((7.745204e-06 2.325034e-03 -4.564223e-03) (2.899352e-07 4.805839e-04 -2.456521e-04)) ((-4.487607e-08 -4.348778e-09 -8.110999e-09) (1.723448e-05 -1.340739e-08 1.765924e-08))
9.174512      	((8.955248e-06 2.297145e-03 -4.511017e-03) (3.160392e-07 4.779820e-04 -2.450391e-04)) ((-4.480819e-08 -4.194875e-09 -8.034958e-09) (1.716342e-05 -1.499857e-08 1.769242e-08))
9.532294      	((1.012711e-05 2.271406e-03 -4.458095e-03) (3.477584e-07 4.754765e-04 -2.445317e-04)) ((-4.476938e-08 -4.037877e-09 -7.936005e-09) (1.709619e-05 -1.683327e-08 1.832060e-08))
9.889543      	((1.123461e-05 2.249975e-03 -4.407665e-03) (3.799139e-07 4.731088e-04 -2.441224e-04)) ((-4.462654e-08 -3.881449e-09 -7.839210e-09) (1.703270e-05 -1.904170e-08 1.894124e-08))
10.246297     	((1.206505e-05 2.236377e-03 -4.358981e-03) (4.126779e-07 4.709329e-04 -2.437747e-04)) ((-4.449562e-08 -3.768570e-09 -7.771551e-09) (1.697364e-05 -2.168092e-08 1.966650e-08))
10.602577     	((1.300114e-05 2.227570e-03 -4.309198e-03) (4.578361e-07 4.689683e-04 -2.434497e-04)) ((-4.439730e-08 -3.696734e-09 -7.740136e-09) (1.691933e-05 -2.436385e-08 2.012489e-08))
10.958387     	((1.414081e-05 2.222296e-03 -4.259667e-03) (5.079060e-07 4.671792e-04 -2.431505e-04)) ((-4.435513e-08 -3.637643e-09 -7.731865e-09) (1.686872e-05 -2.707082e-08 2.033155e-08))
11.313739     	((1.519007e-05 2.216841e-03 -4.211046e-03) (5.678661e-07 4.654596e-04 -2.428761e-04)) ((-4.438797e-08 -3.567349e-09 -7.734370e-09) (1.681987e-05 -2.989183e-08 2.029604e-08))
11.668643     	((1.570885e-05 2.210485e-03 -4.164969e-03) (6.334176e-07 4.637216e-04 -2.426199e-04)) ((-4.454662e-08 -3.507999e-09 -7.734861e-09) (1.677106e-05 -3.258943e-08 2.018311e-08))
12.023112     	((1.670048e-05 2.202837e-03 -4.120785e-03) (6.923003e-07 4.619765e-04 -2.423610e-04)) ((-4.479301e-08 -3.441403e-09 -7.718589e-09) (1.672337e-05 -3.516248e-08 2.057767e-08))
12.37717      	((1.815121e-05 2.192259e-03 -4.076202e-03) (7.497775e-07 4.602511e-04 -2.420924e-04)) ((-4.502502e-08 -3.333965e-09 -7.691783e-09) (1.667766e-05 -3.808615e-08 2.142343e-08))
12.730846     	((1.909677e-05 2.182005e-03 -4.033981e-03) (8.077469e-07 4.586075e-04 -2.418103e-04)) ((-4.521098e-08 -3.225197e-09 -7.662780e-09) (1.663492e-05 -4.115560e-08 2.206157e-08))
13.084161     	((2.064936e-05 2.173089e-03 -3.993676e-03) (8.690037e-07 4.570882e-04 -2.415239e-04)) ((-4.529279e-08 -3.090619e-09 -7.632678e-09) (1.659551e-05 -4.434418e-08 2.265591e-08))
13.437122     	((2.252260e-05 2.165509e-03 -3.952879e-03) (9.409512e-07 4.556857e-04 -2.412254e-04)) ((-4.533180e-08 -2.968727e-09 -7.600209e-09) (1.655950e-05 -4.778831e-08 2.359528e-08))
13.78967      	((2.450019e-05 2.158997e-03 -3.913135e-03) (1.013868e-06 4.543792e-04 -2.408985e-04)) ((-4.535226e-08 -2.855610e-09 -7.581038e-09) (1.652689e-05 -5.137397e-08 2.520372e-08))
14.141899     	((2.693111e-05 2.152953e-03 -3.874257e-03) (1.090093e-06 4.531438e-04 -2.405518e-04)) ((-4.534253e-08 -2.748734e-09 -7.571522e-09) (1.649674e-05 -5.516776e-08 2.733242e-08))
14.493831     	((2.920382e-05 2.147213e-03 -3.835431e-03) (1.171910e-06 4.519650e-04 -2.401998e-04)) ((-4.533540e-08 -2.653337e-09 -7.568432e-09) (1.646809e-05 -5.901816e-08 2.906373e-08))
14.845443     	((3.199108e-05 2.140973e-03 -3.797634e-03) (1.264932e-06 4.508433e-04 -2.398531e-04)) ((-4.531906e-08 -2.557774e-09 -7.562956e-09) (1.644023e-05 -6.303906e-08 3.014542e-08))
15.196738     	((3.434595e-05 2.134517e-03 -3.760014e-03) (1.364877e-06 4.497614e-04 -2.395087e-04)) ((-4.531720e-08 -2.483916e-09 -7.551843e-09) (1.641297e-05 -6.705268e-08 3.123783e-08))
15.547736     	((3.741789e-05 2.126644e-03 -3.722050e-03) (1.474434e-06 4.486925e-04 -2.391669e-04)) ((-4.527550e-08 -2.384098e-09 -7.535792e-09) (1.638591e-05 -7.149919e-08 3.293766e-08))
15.898461     	((4.058550e-05 2.118021e-03 -3.685238e-03) (1.596894e-06 4.476264e-04 -2.388350e-04)) ((-4.519703e-08 -2.253567e-09 -7.518356e-09) (1.635831e-05 -7.691491e-08 3.495965e-08))
16.248937     	((4.447698e-05 2.109476e-03 -3.650587e-03) (1.738152e-06 4.465639e-04 -2.385309e-04)) ((-4.507749e-08 -2.093185e-09 -7.497752e-09) (1.632960e-05 -8.373285e-08 3.692756e-08))
16.59918      	((4.857181e-05 2.100116e-03 -3.615336e-03) (1.903796e-06 4.454863e-04 -2.382557e-04)) ((-4.496619e-08 -1.938549e-09 -7.476601e-09) (1.629939e-05 -9.193223e-08 3.867379e-08))
16.949201     	((5.301492e-05 2.091621e-03 -3.580845e-03) (2.094693e-06 4.443999e-04 -2.379876e-04)) ((-4.488926e-08 -1.790832e-09 -7.453624e-09) (1.626854e-05 -1.011720e-07 4.016146e-08))
17.29901      	((5.726653e-05 2.085081e-03 -3.548552e-03) (2.299937e-06 4.433450e-04 -2.377025e-04)) ((-4.487961e-08 -1.658790e-09 -7.431340e-09) (1.623902e-05 -1.109277e-07 4.181855e-08))
17.64862      	((6.183816e-05 2.079294e-03 -3.517514e-03) (2.511012e-06 4.423362e-04 -2.373856e-04)) ((-4.491363e-08 -1.526155e-09 -7.407203e-09) (1.621175e-05 -1.209082e-07 4.411332e-08))
17.998045     	((6.672595e-05 2.073665e-03 -3.487410e-03) (2.730011e-06 4.413695e-04 -2.370327e-04)) ((-4.498278e-08 -1.399760e-09 -7.383872e-09) (1.618683e-05 -1.310774e-07 4.701978e-08))
18.347294     	((7.180212e-05 2.068577e-03 -3.458439e-03) (2.958823e-06 4.404455e-04 -2.366428e-04)) ((-4.508677e-08 -1.277076e-09 -7.359399e-09) (1.616446e-05 -1.414605e-07 5.038432e-08))
18.696375     	((7.777781e-05 2.063077e-03 -3.429436e-03) (3.205800e-06 4.395567e-04 -2.362420e-04)) ((-4.515856e-08 -1.137328e-09 -7.334212e-09) (1.614369e-05 -1.524536e-07 5.412703e-08))
19.045298     	((8.455489e-05 2.057677e-03 -3.401160e-03) (3.479753e-06 4.386930e-04 -2.358664e-04)) ((-4.519642e-08 -9.824920e-10 -7.309584e-09) (1.612281e-05 -1.645562e-07 5.808621e-08))
19.394069     	((9.223989e-05 2.052548e-03 -3.373636e-03) (3.789966e-06 4.378442e-04 -2.355436e-04)) ((-4.519692e-08 -8.097768e-10 -7.287616e-09) (1.610035e-05 -1.781246e-07 6.207743e-08))
19.742697     	((1.007669e-04 2.047538e-03 -3.346852e-03) (4.140099e-06 4.369997e-04 -2.352703e-04)) ((-4.520920e-08 -6.296769e-10 -7.262743e-09) (1.607628e-05 -1.932627e-07 6.621845e-08))
20.091187     	((1.100103e-04 2.042215e-03 -3.320420e-03) (4.528273e-06 4.361577e-04 -2.350120e-04)) ((-4.524461e-08 -4.498683e-10 -7.235355e-09) (1.605192e-05 -2.098623e-07 7.071830e-08))
20.439547     	((1.203630e-04 2.036600e-03 -3.293588e-03) (4.956157e-06 4.353305e-04 -2.347344e-04)) ((-4.529495e-08 -2.538339e-10 -7.204878e-09) (1.602871e-05 -2.280021e-07 7.569782e-08))
20.787772     	((1.315706e-04 2.030989e-03 -3.266625e-03) (5.422918e-06 4.345289e-04 -2.344268e-04)) ((-4.533813e-08 -4.101720e-11 -7.175503e-09) (1.600706e-05 -2.478017e-07 8.125424e-08))
21.135855     	((1.437448e-04 2.026211e-03 -3.240612e-03) (5.927539e-06 4.337590e-04 -2.340981e-04)) ((-4.537430e-08 1.880411e-10 -7.150381e-09) (1.598668e-05 -2.694135e-07 8.754769e-08))
21.4838       	((1.567223e-04 2.022680e-03 -3.215474e-03) (6.469293e-06 4.330356e-04 -2.337495e-04)) ((-4.541865e-08 4.247204e-10 -7.129287e-09) (1.596780e-05 -2.928713e-07 9.465727e-08))
21.831613     	((1.710245e-04 2.019431e-03 -3.191469e-03) (7.054489e-06 4.323582e-04 -2.333851e-04)) ((-4.544989e-08 6.801443e-10 -7.107338e-09) (1.595037e-05 -3.183928e-07 1.025340e-07))
22.179308     	((1.865761e-04 2.016525e-03 -3.167968e-03) (7.693838e-06 4.317187e-04 -2.330080e-04)) ((-4.548149e-08 9.485382e-10 -7.083986e-09) (1.593423e-05 -3.462715e-07 1.111097e-07))
22.526897     	((2.035182e-04 2.013767e-03 -3.145103e-03) (8.396116e-06 4.311105e-04 -2.326252e-04)) ((-4.550064e-08 1.231613e-09 -7.059442e-09) (1.591910e-05 -3.767567e-07 1.202086e-07))
22.874387     	((2.217417e-04 2.011235e-03 -3.123169e-03) (9.164172e-06 4.305289e-04 -2.322470e-04)) ((-4.551022e-08 1.528926e-09 -7.031963e-09) (1.590463e-05 -4.100335e-07 1.298131e-07))
23.22178      	((2.416485e-04 2.008410e-03 -3.101050e-03) (1.000658e-05 4.299647e-04 -2.318764e-04)) ((-4.550385e-08 1.850007e-09 -7.001937e-09) (1.589051e-05 -4.463660e-07 1.397653e-07))
23.569079     	((2.633400e-04 2.005665e-03 -3.079699e-03) (1.093549e-05 4.294101e-04 -2.315096e-04)) ((-4.548794e-08 2.196325e-09 -6.969118e-09) (1.587657e-05 -4.860320e-07 1.500920e-07))
23.916283     	((2.866044e-04 2.003403e-03 -3.059080e-03) (1.195516e-05 4.288653e-04 -2.311458e-04)) ((-4.547055e-08 2.560926e-09 -6.936625e-09) (1.586281e-05 -5.290667e-07 1.608508e-07))
24.263395     	((3.118912e-04 2.001504e-03 -3.039096e-03) (1.306944e-05 4.283347e-04 -2.307888e-04)) ((-4.544027e-08 2.953127e-09 -6.900518e-09) (1.584934e-05 -5.755270e-07 1.720195e-07))
24.610416     	((3.390672e-04 2.000679e-03 -3.019948e-03) (1.428254e-05 4.278265e-04 -2.304399e-04)) ((-4.541275e-08 3.368464e-09 -6.864535e-09) (1.583631e-05 -6.256729e-07 1.836836e-07))
24.957345     	((3.684665e-04 2.000650e-03 -3.001695e-03) (1.559647e-05 4.273479e-04 -2.301001e-04)) ((-4.537601e-08 3.818184e-09 -6.826585e-09) (1.582391e-05 -6.799521e-07 1.959961e-07))
25.304187     	((4.003457e-04 2.001568e-03 -2.984378e-03) (1.702355e-05 4.268976e-04 -2.297688e-04)) ((-4.534081e-08 4.306554e-09 -6.785277e-09) (1.581234e-05 -7.387700e-07 2.089415e-07))
25.650944     	((4.347428e-04 2.003155e-03 -2.968163e-03) (1.857200e-05 4.264768e-04 -2.294464e-04)) ((-4.530523e-08 4.827913e-09 -6.743312e-09) (1.580169e-05 -8.023588e-07 2.227579e-07))
25.997619     	((4.721194e-04 2.005139e-03 -2.952179e-03) (2.025063e-05 4.260905e-04 -2.291434e-04)) ((-4.525758e-08 5.403597e-09 -6.697385e-09) (1.579176e-05 -8.713474e-07 2.376327e-07))
26.344214     	((5.129286e-04 2.008030e-03 -2.937183e-03) (2.207397e-05 4.257297e-04 -2.288681e-04)) ((-4.521030e-08 6.033734e-09 -6.644083e-09) (1.578220e-05 -9.465620e-07 2.538480e-07))
26.690728     	((5.571961e-04 2.011708e-03 -2.922404e-03) (2.405816e-05 4.253976e-04 -2.286181e-04)) ((-4.517421e-08 6.703966e-09 -6.586631e-09) (1.577312e-05 -1.028519e-06 2.716176e-07))
27.037165     	((6.053563e-04 2.016411e-03 -2.908222e-03) (2.622075e-05 4.251008e-04 -2.283856e-04)) ((-4.514119e-08 7.427709e-09 -6.526190e-09) (1.576511e-05 -1.117663e-06 2.907522e-07))
27.383527     	((6.577884e-04 2.022326e-03 -2.895431e-03) (2.858117e-05 4.248541e-04 -2.281652e-04)) ((-4.509404e-08 8.217274e-09 -6.463657e-09) (1.575891e-05 -1.214767e-06 3.109504e-07))
27.729819     	((7.152713e-04 2.030479e-03 -2.884348e-03) (3.118288e-05 4.247108e-04 -2.279421e-04)) ((-4.505295e-08 9.070217e-09 -6.397469e-09) (1.575643e-05 -1.321351e-06 3.310063e-07))
28.076045     	((7.777502e-04 2.040437e-03 -2.875296e-03) (3.405012e-05 4.246964e-04 -2.277124e-04)) ((-4.500883e-08 9.986632e-09 -6.329195e-09) (1.575900e-05 -1.438575e-06 3.508015e-07))
28.422207     	((8.456574e-04 2.052765e-03 -2.867721e-03) (3.719662e-05 4.248115e-04 -2.274764e-04)) ((-4.495898e-08 1.098457e-08 -6.257500e-09) (1.576670e-05 -1.567177e-06 3.712122e-07))
28.768306     	((9.183373e-04 2.068049e-03 -2.862605e-03) (4.063609e-05 4.250637e-04 -2.272261e-04)) ((-4.492967e-08 1.204590e-08 -6.177518e-09) (1.578007e-05 -1.707810e-06 3.922171e-07))
29.114329     	((9.969961e-04 2.086706e-03 -2.859040e-03) (4.435487e-05 4.254693e-04 -2.269679e-04)) ((-4.491936e-08 1.317961e-08 -6.084954e-09) (1.579954e-05 -1.860890e-06 4.146751e-07))
29.460264     	((1.082371e-03 2.109240e-03 -2.856934e-03) (4.837953e-05 4.260806e-04 -2.266969e-04)) ((-4.494897e-08 1.441221e-08 -5.976579e-09) (1.582636e-05 -2.027289e-06 4.389388e-07))
29.806102     	((1.173484e-03 2.135138e-03 -2.856439e-03) (5.274305e-05 4.269225e-04 -2.264107e-04)) ((-4.499359e-08 1.574868e-08 -5.854492e-09) (1.586150e-05 -2.207457e-06 4.649686e-07))
30.151837     	((1.270652e-03 2.165851e-03 -2.859067e-03) (5.743785e-05 4.279761e-04 -2.261259e-04)) ((-4.506663e-08 1.719962e-08 -5.712431e-09) (1.590526e-05 -2.402029e-06 4.939035e-07))
30.497469     	((1.371999e-03 2.202510e-03 -2.867318e-03) (6.248092e-05 4.292719e-04 -2.258174e-04)) ((-4.520193e-08 1.869553e-08 -5.547023e-09) (1.596038e-05 -2.610772e-06 5.245981e-07))
30.843001     	((1.478246e-03 2.244651e-03 -2.880040e-03) (6.788736e-05 4.308596e-04 -2.254758e-04)) ((-4.540454e-08 2.022799e-08 -5.367543e-09) (1.602842e-05 -2.833291e-06 5.558204e-07))
31.188422     	((1.587906e-03 2.292238e-03 -2.895723e-03) (7.362106e-05 4.327371e-04 -2.251178e-04)) ((-4.571148e-08 2.176345e-08 -5.192232e-09) (1.610952e-05 -3.068708e-06 5.887939e-07))
31.533734     	((1.701922e-03 2.346935e-03 -2.917072e-03) (7.964626e-05 4.349300e-04 -2.247472e-04)) ((-4.611937e-08 2.332526e-08 -5.027847e-09) (1.620524e-05 -3.316375e-06 6.249022e-07))
31.878949     	((1.819167e-03 2.408645e-03 -2.943914e-03) (8.595242e-05 4.375006e-04 -2.243622e-04)) ((-4.660261e-08 2.489389e-08 -4.873523e-09) (1.631736e-05 -3.575537e-06 6.636183e-07))
32.224142     	((1.937569e-03 2.478108e-03 -2.976360e-03) (9.254758e-05 4.405255e-04 -2.239496e-04)) ((-4.720723e-08 2.643892e-08 -4.725947e-09) (1.644774e-05 -3.844144e-06 7.021645e-07))
32.569405     	((2.058382e-03 2.555694e-03 -3.013761e-03) (9.940401e-05 4.440504e-04 -2.235075e-04)) ((-4.796912e-08 2.799656e-08 -4.565814e-09) (1.659778e-05 -4.121690e-06 7.404126e-07))
32.914595     	((2.176060e-03 2.640529e-03 -3.060113e-03) (1.064915e-04 4.481031e-04 -2.230148e-04)) ((-4.893866e-08 2.942562e-08 -4.405169e-09) (1.676848e-05 -4.406425e-06 7.773386e-07))
33.259681     	((2.290345e-03 2.731724e-03 -3.110975e-03) (1.137115e-04 4.526796e-04 -2.224649e-04)) ((-5.003626e-08 3.075383e-08 -4.274414e-09) (1.695963e-05 -4.694916e-06 8.136435e-07))
33.604726     	((2.398782e-03 2.828553e-03 -3.167484e-03) (1.209597e-04 4.578027e-04 -2.218508e-04)) ((-5.126045e-08 3.197581e-08 -4.213119e-09) (1.717105e-05 -4.984453e-06 8.482508e-07))
33.949749     	((2.496570e-03 2.930067e-03 -3.228556e-03) (1.281613e-04 4.634984e-04 -2.211497e-04)) ((-5.257136e-08 3.296633e-08 -4.226275e-09) (1.740279e-05 -5.270849e-06 8.780780e-07))
34.294796     	((2.578187e-03 3.034341e-03 -3.294210e-03) (1.351959e-04 4.696882e-04 -2.203266e-04)) ((-5.398551e-08 3.362739e-08 -4.294241e-09) (1.765325e-05 -5.547304e-06 9.010940e-07))
34.639955     	((2.640355e-03 3.137725e-03 -3.363083e-03) (1.418718e-04 4.762875e-04 -2.193514e-04)) ((-5.551428e-08 3.391351e-08 -4.397638e-09) (1.791988e-05 -5.806647e-06 9.158441e-07))
34.985305     	((2.680019e-03 3.235919e-03 -3.435295e-03) (1.480552e-04 4.831460e-04 -2.182276e-04)) ((-5.701276e-08 3.379266e-08 -4.531544e-09) (1.819790e-05 -6.042804e-06 9.185336e-07))
35.330898     	((2.691184e-03 3.321458e-03 -3.505074e-03) (1.535786e-04 4.899854e-04 -2.169809e-04)) ((-5.837397e-08 3.318341e-08 -4.699520e-09) (1.847862e-05 -6.248468e-06 9.078075e-07))
35.676775     	((2.668481e-03 3.391216e-03 -3.571402e-03) (1.582029e-04 4.965074e-04 -2.157232e-04)) ((-5.954459e-08 3.209397e-08 -4.881417e-09) (1.875004e-05 -6.416253e-06 8.816597e-07))
36.022984     	((2.607925e-03 3.440848e-03 -3.631939e-03) (1.616235e-04 5.026676e-04 -2.144561e-04)) ((-6.059883e-08 3.043921e-08 -5.025382e-09) (1.900700e-05 -6.535459e-06 8.378702e-07))
