# Forces      
# CofR        : (0.000000e+00 0.000000e+00 0.000000e+00)
# Time        forces(pressure viscous)	moments(pressure viscous)
0             	((0.000000e+00 0.000000e+00 0.000000e+00) (0.000000e+00 0.000000e+00 0.000000e+00)) ((0.000000e+00 0.000000e+00 0.000000e+00) (0.000000e+00 0.000000e+00 0.000000e+00))
0.012         	((4.486458e-11 -1.443804e-06 -2.338748e-07) (3.619480e-13 -3.321140e-06 -5.813655e-12)) ((-2.110082e-10 -7.652673e-13 1.932951e-12) (-2.210071e-07 -2.159676e-14 -3.568078e-13))
0.0264        	((8.552348e-10 -1.940578e-06 -4.954195e-07) (1.900946e-12 -3.042194e-06 -1.827234e-11)) ((9.562815e-11 -1.663325e-12 8.559252e-13) (-2.026641e-07 -5.634478e-14 -3.665493e-13))
0.04368       	((-6.401595e-10 -1.312191e-06 -2.688822e-07) (2.327775e-12 -2.754359e-06 -4.268165e-11)) ((7.091840e-11 -8.842473e-13 9.643792e-13) (-1.837922e-07 -1.878007e-14 -6.897180e-13))
0.064416      	((7.459850e-10 -1.483508e-06 -3.479083e-07) (3.137587e-12 -2.464027e-06 -8.050600e-11)) ((1.402021e-10 -1.173183e-12 6.085331e-13) (-1.648214e-07 3.184436e-14 -2.780169e-13))
0.0892992     	((-3.464281e-10 -1.095161e-06 -2.322302e-07) (3.055852e-12 -2.179518e-06 -1.340695e-10)) ((9.996591e-11 -7.808683e-13 4.030613e-13) (-1.462947e-07 8.341590e-14 7.914755e-13))
0.119159      	((2.803953e-10 -1.123014e-06 -2.521723e-07) (1.091947e-12 -1.909949e-06 -2.004998e-10)) ((1.224156e-10 -8.477671e-13 2.117038e-13) (-1.288215e-07 9.169980e-14 1.237224e-12))
0.154991      	((-1.656475e-10 -8.460996e-07 -1.802886e-07) (-1.064882e-12 -1.663725e-06 -2.794278e-10)) ((8.548134e-11 -6.259148e-13 9.462036e-14) (-1.127754e-07 1.019346e-13 1.414611e-12))
0.197989      	((7.121959e-11 -8.353168e-07 -1.818383e-07) (-1.906199e-12 -1.445872e-06 -3.720393e-10)) ((9.654269e-11 -6.273703e-13 1.428432e-13) (-9.856585e-08 9.845416e-14 1.521004e-12))
0.249587      	((-3.572175e-11 -6.492676e-07 -1.412916e-07) (-3.007909e-12 -1.260117e-06 -4.730612e-10)) ((6.919556e-11 -4.901193e-13 1.179687e-13) (-8.635946e-08 2.467449e-14 1.429556e-12))
0.311504      	((-1.255904e-11 -6.303198e-07 -1.372016e-07) (-2.891178e-12 -1.105585e-06 -5.670400e-10)) ((7.631667e-11 -4.840112e-13 2.097902e-13) (-7.615923e-08 -3.537410e-14 1.145120e-12))
0.385805      	((2.325032e-11 -5.082978e-07 -1.142319e-07) (-2.883205e-12 -9.777646e-07 -6.621813e-10)) ((5.693854e-11 -3.992468e-13 1.353261e-13) (-6.771245e-08 -1.163451e-13 6.458746e-13))
0.474966      	((-1.402363e-12 -4.925206e-07 -1.081952e-07) (-2.955240e-12 -8.718555e-07 -7.224354e-10)) ((6.192049e-11 -3.960309e-13 1.817079e-13) (-6.072471e-08 -7.908295e-14 2.047065e-13))
0.581959      	((4.551034e-11 -4.104352e-07 -9.341481e-08) (-2.031581e-12 -7.825729e-07 -7.866218e-10)) ((4.784659e-11 -3.238575e-13 1.233641e-13) (-5.482935e-08 -3.414097e-14 1.708075e-13))
0.710351      	((1.338232e-11 -3.973287e-07 -8.706358e-08) (-1.353715e-12 -7.058169e-07 -8.064515e-10)) ((5.158915e-11 -3.253956e-13 1.842443e-13) (-4.977837e-08 -3.086342e-14 8.135586e-14))
0.864421      	((5.687288e-11 -3.385027e-07 -7.721135e-08) (-4.762094e-13 -6.383372e-07 -8.541430e-10)) ((4.166487e-11 -2.756648e-13 1.262687e-13) (-4.534186e-08 -3.234989e-14 2.724071e-13))
1.049306      	((2.742411e-11 -3.251804e-07 -7.189169e-08) (-3.674229e-12 -5.782862e-07 -8.576475e-10)) ((4.456556e-11 -2.717322e-13 1.056366e-13) (-4.141029e-08 -8.354050e-15 6.488357e-13))
1.271167      	((5.279848e-11 -2.797448e-07 -6.462408e-08) (-3.104002e-12 -5.241528e-07 -9.208493e-10)) ((3.775500e-11 -2.344090e-13 -1.670060e-16) (-3.787020e-08 9.970768e-14 8.026427e-13))
1.5374        	((5.789856e-11 -2.653899e-07 -6.011403e-08) (3.122495e-13 -4.752587e-07 -8.582817e-10)) ((3.929255e-11 -2.283288e-13 -1.410698e-14) (-3.467582e-08 3.241524e-13 7.945601e-13))
1.85688       	((5.345465e-11 -2.302602e-07 -5.468072e-08) (-1.658636e-12 -4.311211e-07 -9.140327e-10)) ((3.438645e-11 -2.044038e-13 -6.630507e-14) (-3.180008e-08 5.677945e-13 8.942633e-13))
2.240256      	((3.035521e-11 -2.153256e-07 -5.151817e-08) (3.380029e-12 -3.915011e-07 -9.635300e-10)) ((3.475551e-11 -1.986198e-13 -5.343651e-14) (-2.921746e-08 9.116432e-13 1.192112e-12))
2.700307      	((2.288176e-11 -1.892341e-07 -4.784867e-08) (5.873504e-12 -3.564741e-07 -9.657046e-10)) ((3.134142e-11 -1.784595e-13 -8.322547e-14) (-2.693542e-08 1.067234e-12 1.459379e-12))
3.252369      	((5.469081e-11 -1.756577e-07 -4.566563e-08) (5.644008e-12 -3.255818e-07 -9.945233e-10)) ((3.129067e-11 -1.907189e-13 -6.526377e-14) (-2.492054e-08 1.219003e-12 1.451780e-12))
3.914842      	((1.345352e-11 -1.571196e-07 -4.288676e-08) (8.231640e-12 -2.984168e-07 -9.949894e-10)) ((2.936374e-11 -1.515320e-13 -6.652886e-14) (-2.315377e-08 1.442568e-12 9.636703e-13))
4.709811      	((3.834931e-12 -1.452808e-07 -4.113853e-08) (7.647357e-12 -2.744985e-07 -1.035226e-09)) ((2.893465e-11 -1.842799e-13 -6.102101e-14) (-2.160248e-08 1.705519e-12 2.104219e-13))
5.663773      	((2.321015e-11 -1.314399e-07 -3.875717e-08) (4.910625e-12 -2.532669e-07 -1.119568e-09)) ((2.768967e-11 -1.539140e-13 -6.355667e-14) (-2.023097e-08 1.950284e-12 -2.345855e-13))
6.808528      	((5.342551e-11 -1.212742e-07 -3.670602e-08) (7.337646e-12 -2.342353e-07 -1.216332e-09)) ((2.691762e-11 -1.860585e-13 -6.958417e-14) (-1.900474e-08 2.079638e-12 -4.484338e-13))
8.182233      	((9.399490e-11 -1.104934e-07 -3.450935e-08) (1.119165e-11 -2.169647e-07 -1.338869e-09)) ((2.607307e-11 -1.703854e-13 -7.378835e-14) (-1.789830e-08 1.973258e-12 -3.563571e-13))
9.83068       	((7.003181e-11 -1.015409e-07 -3.256245e-08) (1.605495e-11 -2.011643e-07 -1.468007e-09)) ((2.537789e-11 -1.988916e-13 -7.677272e-14) (-1.689341e-08 1.598402e-12 -1.842235e-13))
11.808816     	((7.142794e-11 -9.277627e-08 -3.091693e-08) (1.842773e-11 -1.866567e-07 -1.588681e-09)) ((2.475413e-11 -1.752745e-13 -7.822150e-14) (-1.597649e-08 1.607765e-12 -6.334906e-14))
14.182579     	((6.064850e-11 -8.532162e-08 -2.977988e-08) (1.515267e-11 -1.733218e-07 -1.694812e-09)) ((2.420181e-11 -1.852506e-13 -7.977723e-14) (-1.513741e-08 1.809147e-12 7.528677e-14))
17.031095     	((6.527581e-11 -7.818325e-08 -2.889608e-08) (1.555525e-11 -1.610509e-07 -1.776179e-09)) ((2.372834e-11 -1.809295e-13 -7.897986e-14) (-1.437062e-08 1.632923e-12 2.014359e-13))
20.449314     	((5.345932e-11 -7.184919e-08 -2.852165e-08) (1.826376e-11 -1.497839e-07 -1.828127e-09)) ((2.329213e-11 -1.859180e-13 -8.098987e-14) (-1.367118e-08 1.344426e-12 2.527331e-13))
24.551176     	((4.527992e-11 -6.581653e-08 -2.825515e-08) (2.000512e-11 -1.394692e-07 -1.826463e-09)) ((2.293606e-11 -1.807140e-13 -8.355151e-14) (-1.303496e-08 1.338346e-12 1.931929e-13))
29.473411     	((3.226791e-11 -6.044842e-08 -2.800554e-08) (1.976784e-11 -1.300482e-07 -1.802816e-09)) ((2.262486e-11 -1.813879e-13 -8.539254e-14) (-1.245766e-08 1.455808e-12 1.055537e-13))
35.380094     	((3.092602e-11 -5.550130e-08 -2.778322e-08) (1.981605e-11 -1.214567e-07 -1.771498e-09)) ((2.236902e-11 -1.821265e-13 -8.659088e-14) (-1.193458e-08 1.479712e-12 2.206361e-14))
42.468112     	((3.727644e-11 -5.105628e-08 -2.768330e-08) (1.946049e-11 -1.136184e-07 -1.754516e-09)) ((2.213593e-11 -1.832705e-13 -8.627949e-14) (-1.146046e-08 1.455035e-12 -3.085107e-14))
50.973735     	((3.511556e-11 -4.696468e-08 -2.755224e-08) (1.748645e-11 -1.064660e-07 -1.754842e-09)) ((2.194229e-11 -1.848530e-13 -8.687372e-14) (-1.103075e-08 1.282782e-12 -1.035329e-13))
61.180482     	((3.467262e-11 -4.331191e-08 -2.751249e-08) (1.722384e-11 -9.994996e-08 -1.769739e-09)) ((2.177027e-11 -1.868189e-13 -8.730493e-14) (-1.064168e-08 1.068122e-12 -1.044222e-13))
73.428578     	((3.748439e-11 -4.003478e-08 -2.748347e-08) (1.695731e-11 -9.402095e-08 -1.797007e-09)) ((2.162737e-11 -1.879232e-13 -8.787879e-14) (-1.029057e-08 8.338019e-13 -1.927409e-13))
88.126294     	((3.430318e-11 -3.712132e-08 -2.747974e-08) (1.593097e-11 -8.863238e-08 -1.834752e-09)) ((2.150451e-11 -1.898079e-13 -8.794751e-14) (-9.974479e-09 6.863280e-13 -3.952222e-13))
105.763553    	((3.257185e-11 -3.455783e-08 -2.753584e-08) (1.438742e-11 -8.374661e-08 -1.890879e-09)) ((2.140699e-11 -1.906565e-13 -8.832638e-14) (-9.690689e-09 6.094975e-13 -6.279159e-13))
126.928263    	((3.070691e-11 -3.229863e-08 -2.772723e-08) (1.410688e-11 -7.933009e-08 -1.967082e-09)) ((2.132900e-11 -1.921328e-13 -8.810345e-14) (-9.437040e-09 5.459490e-13 -8.411417e-13))
152.325916    	((2.596175e-11 -3.034515e-08 -2.797032e-08) (1.428036e-11 -7.535219e-08 -2.066113e-09)) ((2.126912e-11 -1.947579e-13 -8.789599e-14) (-9.211279e-09 4.877860e-13 -9.407434e-13))
182.803099    	((2.215799e-11 -2.866827e-08 -2.825148e-08) (1.375048e-11 -7.178489e-08 -2.191533e-09)) ((2.122070e-11 -1.983149e-13 -8.745955e-14) (-9.011142e-09 4.661364e-13 -9.890610e-13))
219.375719    	((1.974922e-11 -2.723714e-08 -2.851620e-08) (1.387463e-11 -6.859570e-08 -2.344706e-09)) ((2.118293e-11 -2.006134e-13 -8.733898e-14) (-8.834470e-09 4.602934e-13 -1.017753e-12))
263.262863    	((1.940635e-11 -2.603604e-08 -2.886961e-08) (1.390004e-11 -6.575618e-08 -2.527583e-09)) ((2.115290e-11 -2.030206e-13 -8.767960e-14) (-8.679188e-09 4.134298e-13 -9.849056e-13))
315.927436    	((1.768776e-11 -2.505025e-08 -2.927282e-08) (1.367065e-11 -6.324220e-08 -2.746202e-09)) ((2.113167e-11 -2.054062e-13 -8.757597e-14) (-8.543549e-09 3.606895e-13 -9.346551e-13))
379.124923    	((1.563854e-11 -2.427162e-08 -2.968206e-08) (1.341283e-11 -6.103829e-08 -3.000875e-09)) ((2.111649e-11 -2.069489e-13 -8.738538e-14) (-8.426129e-09 2.985911e-13 -8.613455e-13))
454.961908    	((1.473566e-11 -2.368909e-08 -3.014912e-08) (1.334195e-11 -5.913183e-08 -3.289435e-09)) ((2.110565e-11 -2.074396e-13 -8.708132e-14) (-8.325767e-09 2.518035e-13 -7.674713e-13))
545.966289    	((1.284158e-11 -2.326023e-08 -3.066893e-08) (1.353971e-11 -5.751065e-08 -3.607631e-09)) ((2.109916e-11 -2.078441e-13 -8.688473e-14) (-8.241112e-09 2.123567e-13 -6.648213e-13))
654.30615     	((1.321213e-11 -2.296793e-08 -3.119362e-08) (1.401254e-11 -5.616297e-08 -3.948200e-09)) ((2.109642e-11 -2.084557e-13 -8.681579e-14) (-8.170888e-09 1.673449e-13 -5.548225e-13))
779.980857    	((1.328757e-11 -2.279733e-08 -3.168679e-08) (1.433544e-11 -5.507746e-08 -4.297409e-09)) ((2.109540e-11 -2.091351e-13 -8.661274e-14) (-8.113919e-09 1.380147e-13 -4.575012e-13))
922.989881    	((1.353144e-11 -2.271702e-08 -3.214046e-08) (1.452661e-11 -5.423433e-08 -4.637478e-09)) ((2.109470e-11 -2.095869e-13 -8.653849e-14) (-8.068818e-09 1.403794e-13 -3.777860e-13))
1083.333081   	((1.297210e-11 -2.269357e-08 -3.253642e-08) (1.425909e-11 -5.360538e-08 -4.951296e-09)) ((2.109370e-11 -2.101111e-13 -8.644564e-14) (-8.034045e-09 1.588344e-13 -3.132909e-13))
1256.675334   	((1.204754e-11 -2.270824e-08 -3.287655e-08) (1.388130e-11 -5.315756e-08 -5.223649e-09)) ((2.109359e-11 -2.107033e-13 -8.640013e-14) (-8.008086e-09 1.823434e-13 -2.688009e-13))
1430.01876    	((1.137624e-11 -2.273142e-08 -3.314694e-08) (1.364126e-11 -5.285437e-08 -5.444216e-09)) ((2.109532e-11 -2.112344e-13 -8.633433e-14) (-7.989461e-09 1.983377e-13 -2.404575e-13))
1603.363864   	((1.098259e-11 -2.274811e-08 -3.336597e-08) (1.347111e-11 -5.265556e-08 -5.613696e-09)) ((2.109646e-11 -2.116064e-13 -8.622531e-14) (-7.976429e-09 2.060376e-13 -2.256314e-13))
1776.711422   	((1.073847e-11 -2.275510e-08 -3.353912e-08) (1.335289e-11 -5.252778e-08 -5.739030e-09)) ((2.109718e-11 -2.118943e-13 -8.611559e-14) (-7.967466e-09 2.121057e-13 -2.149338e-13))
1950.062717   	((1.057662e-11 -2.275194e-08 -3.367680e-08) (1.327193e-11 -5.244498e-08 -5.830214e-09)) ((2.109758e-11 -2.121093e-13 -8.602746e-14) (-7.961300e-09 2.161881e-13 -2.057508e-13))
2123.417897   	((1.048874e-11 -2.274270e-08 -3.378713e-08) (1.327511e-11 -5.238970e-08 -5.896427e-09)) ((2.109767e-11 -2.122305e-13 -8.596908e-14) (-7.957019e-09 2.170345e-13 -1.973512e-13))
2296.776696   	((1.053702e-11 -2.273086e-08 -3.387831e-08) (1.332242e-11 -5.235060e-08 -5.945382e-09)) ((2.109771e-11 -2.123201e-13 -8.593823e-14) (-7.953973e-09 2.175905e-13 -1.910411e-13))
2470.138532   	((1.063138e-11 -2.271882e-08 -3.395427e-08) (1.334725e-11 -5.232122e-08 -5.982405e-09)) ((2.109773e-11 -2.124102e-13 -8.592876e-14) (-7.951749e-09 2.192941e-13 -1.868704e-13))
2643.502832   	((1.077844e-11 -2.270767e-08 -3.401883e-08) (1.336579e-11 -5.229784e-08 -6.011359e-09)) ((2.109775e-11 -2.124968e-13 -8.591794e-14) (-7.950074e-09 2.212948e-13 -1.860016e-13))
2816.86913    	((1.083254e-11 -2.269790e-08 -3.407452e-08) (1.339656e-11 -5.227860e-08 -6.034715e-09)) ((2.109778e-11 -2.125917e-13 -8.591270e-14) (-7.948779e-09 2.220052e-13 -1.865144e-13))
2990.237073   	((1.081957e-11 -2.268943e-08 -3.412285e-08) (1.340360e-11 -5.226244e-08 -6.054128e-09)) ((2.109783e-11 -2.126764e-13 -8.591201e-14) (-7.947757e-09 2.224895e-13 -1.872110e-13))
3163.606367   	((1.080338e-11 -2.268217e-08 -3.416487e-08) (1.340232e-11 -5.224874e-08 -6.070595e-09)) ((2.109789e-11 -2.127497e-13 -8.591089e-14) (-7.946939e-09 2.225144e-13 -1.879674e-13))
3336.97677    	((1.080445e-11 -2.267586e-08 -3.420155e-08) (1.340593e-11 -5.223708e-08 -6.084785e-09)) ((2.109795e-11 -2.128163e-13 -8.591270e-14) (-7.946276e-09 2.223389e-13 -1.890316e-13))
3510.348081   	((1.078503e-11 -2.267043e-08 -3.423364e-08) (1.340822e-11 -5.222713e-08 -6.097136e-09)) ((2.109799e-11 -2.128783e-13 -8.591453e-14) (-7.945734e-09 2.224214e-13 -1.905090e-13))
3683.720139   	((1.076436e-11 -2.266570e-08 -3.426178e-08) (1.340988e-11 -5.221864e-08 -6.107967e-09)) ((2.109804e-11 -2.129324e-13 -8.591712e-14) (-7.945288e-09 2.223763e-13 -1.923885e-13))
3857.092814   	((1.074608e-11 -2.266156e-08 -3.428661e-08) (1.341304e-11 -5.221138e-08 -6.117502e-09)) ((2.109809e-11 -2.129786e-13 -8.591967e-14) (-7.944919e-09 2.218537e-13 -1.944067e-13))
4030.466004   	((1.073568e-11 -2.265796e-08 -3.430840e-08) (1.341878e-11 -5.220516e-08 -6.125927e-09)) ((2.109813e-11 -2.130199e-13 -8.592193e-14) (-7.944611e-09 2.212697e-13 -1.964478e-13))
4203.839627   	((1.071500e-11 -2.265479e-08 -3.432767e-08) (1.342468e-11 -5.219982e-08 -6.133389e-09)) ((2.109816e-11 -2.130585e-13 -8.592389e-14) (-7.944354e-09 2.208050e-13 -1.985193e-13))
4377.213616   	((1.069194e-11 -2.265202e-08 -3.434471e-08) (1.343198e-11 -5.219522e-08 -6.140010e-09)) ((2.109819e-11 -2.130918e-13 -8.592600e-14) (-7.944138e-09 2.205045e-13 -2.004539e-13))
4550.587917   	((1.067523e-11 -2.264958e-08 -3.435976e-08) (1.343640e-11 -5.219125e-08 -6.145892e-09)) ((2.109822e-11 -2.131181e-13 -8.592772e-14) (-7.943955e-09 2.202973e-13 -2.020806e-13))
4723.962486   	((1.066474e-11 -2.264742e-08 -3.437313e-08) (1.344048e-11 -5.218782e-08 -6.151121e-09)) ((2.109825e-11 -2.131396e-13 -8.592899e-14) (-7.943800e-09 2.201906e-13 -2.035683e-13))
4897.337286   	((1.064711e-11 -2.264550e-08 -3.438503e-08) (1.344459e-11 -5.218484e-08 -6.155778e-09)) ((2.109827e-11 -2.131585e-13 -8.592975e-14) (-7.943668e-09 2.202442e-13 -2.049572e-13))
5070.712287   	((1.063162e-11 -2.264382e-08 -3.439561e-08) (1.345095e-11 -5.218225e-08 -6.159932e-09)) ((2.109829e-11 -2.131741e-13 -8.593030e-14) (-7.943554e-09 2.202124e-13 -2.062791e-13))
5244.087462   	((1.061151e-11 -2.264233e-08 -3.440504e-08) (1.345856e-11 -5.218000e-08 -6.163643e-09)) ((2.109831e-11 -2.131877e-13 -8.593126e-14) (-7.943457e-09 2.200501e-13 -2.075309e-13))
5417.46279    	((1.059457e-11 -2.264099e-08 -3.441346e-08) (1.346733e-11 -5.217803e-08 -6.166962e-09)) ((2.109833e-11 -2.131998e-13 -8.593154e-14) (-7.943373e-09 2.198053e-13 -2.086842e-13))
5590.838251   	((1.058785e-11 -2.263979e-08 -3.442093e-08) (1.347653e-11 -5.217630e-08 -6.169932e-09)) ((2.109834e-11 -2.132112e-13 -8.593173e-14) (-7.943301e-09 2.195102e-13 -2.096985e-13))
5764.21383    	((1.057971e-11 -2.263873e-08 -3.442770e-08) (1.348539e-11 -5.217478e-08 -6.172592e-09)) ((2.109836e-11 -2.132215e-13 -8.593153e-14) (-7.943238e-09 2.192264e-13 -2.105774e-13))
5937.589514   	((1.056826e-11 -2.263779e-08 -3.443374e-08) (1.349364e-11 -5.217345e-08 -6.174978e-09)) ((2.109837e-11 -2.132305e-13 -8.593169e-14) (-7.943183e-09 2.189565e-13 -2.113098e-13))
6110.965289   	((1.056582e-11 -2.263694e-08 -3.443918e-08) (1.350064e-11 -5.217226e-08 -6.177118e-09)) ((2.109838e-11 -2.132385e-13 -8.593185e-14) (-7.943136e-09 2.187438e-13 -2.119224e-13))
6284.341146   	((1.055260e-11 -2.263618e-08 -3.444404e-08) (1.350674e-11 -5.217122e-08 -6.179041e-09)) ((2.109839e-11 -2.132462e-13 -8.593303e-14) (-7.943094e-09 2.185961e-13 -2.124516e-13))
6457.717075   	((1.053827e-11 -2.263551e-08 -3.444841e-08) (1.351154e-11 -5.217029e-08 -6.180768e-09)) ((2.109840e-11 -2.132527e-13 -8.593335e-14) (-7.943057e-09 2.184991e-13 -2.128845e-13))
6631.093069   	((1.053405e-11 -2.263491e-08 -3.445233e-08) (1.351511e-11 -5.216947e-08 -6.182322e-09)) ((2.109841e-11 -2.132585e-13 -8.593367e-14) (-7.943025e-09 2.184389e-13 -2.132316e-13))
6804.469121   	((1.053502e-11 -2.263437e-08 -3.445588e-08) (1.351776e-11 -5.216875e-08 -6.183721e-09)) ((2.109841e-11 -2.132638e-13 -8.593392e-14) (-7.942996e-09 2.184064e-13 -2.135071e-13))
6977.845224   	((1.053527e-11 -2.263388e-08 -3.445908e-08) (1.352010e-11 -5.216810e-08 -6.184980e-09)) ((2.109842e-11 -2.132687e-13 -8.593411e-14) (-7.942971e-09 2.183793e-13 -2.137278e-13))
7151.221372   	((1.053528e-11 -2.263344e-08 -3.446196e-08) (1.352174e-11 -5.216752e-08 -6.186115e-09)) ((2.109843e-11 -2.132732e-13 -8.593430e-14) (-7.942949e-09 2.183750e-13 -2.139055e-13))
7324.597562   	((1.053538e-11 -2.263305e-08 -3.446455e-08) (1.352288e-11 -5.216700e-08 -6.187137e-09)) ((2.109843e-11 -2.132775e-13 -8.593439e-14) (-7.942929e-09 2.183869e-13 -2.140497e-13))
7497.973788   	((1.055286e-11 -2.263267e-08 -3.446682e-08) (1.352394e-11 -5.216654e-08 -6.188059e-09)) ((2.109844e-11 -2.132809e-13 -8.593447e-14) (-7.942912e-09 2.183970e-13 -2.141666e-13))
