# Forces      
# CofR        : (0.000000e+00 0.000000e+00 0.000000e+00)
# Time        forces(pressure viscous)	moments(pressure viscous)
0             	((0.000000e+00 0.000000e+00 0.000000e+00) (0.000000e+00 0.000000e+00 0.000000e+00)) ((0.000000e+00 0.000000e+00 0.000000e+00) (0.000000e+00 0.000000e+00 0.000000e+00))
0.012         	((2.684984e-06 -1.018552e-10 8.465908e-07) (6.626258e-06 -2.766472e-14 5.768931e-10)) ((4.371585e-14 -4.310556e-10 3.479350e-14) (4.939328e-15 -4.409586e-07 1.917444e-15))
0.0264        	((3.987761e-06 -2.261178e-09 1.336834e-06) (6.069791e-06 -5.829394e-13 2.897040e-10)) ((2.467901e-14 2.212627e-10 8.505950e-15) (1.832358e-14 -4.043620e-07 -1.260013e-14))
0.04368       	((2.532424e-06 1.351632e-09 8.085934e-07) (5.495714e-06 6.610626e-13 -1.757956e-10)) ((5.237345e-14 1.568638e-10 2.506311e-14) (5.109179e-14 -3.667242e-07 -5.890670e-14))
0.064416      	((3.006339e-06 -1.642634e-09 9.952249e-07) (4.916812e-06 1.227095e-12 -5.784282e-10)) ((3.170208e-14 3.058600e-10 -3.925337e-15) (8.429550e-14 -3.289020e-07 -9.900593e-14))
0.0892992     	((2.146695e-06 7.187383e-10 6.974737e-07) (4.349700e-06 1.205568e-12 -8.257048e-10)) ((1.328475e-14 2.166137e-10 2.141518e-14) (1.481500e-13 -2.919866e-07 -7.283826e-14))
0.119159      	((2.259203e-06 -8.030544e-10 7.292780e-07) (3.812622e-06 1.952596e-13 -1.004233e-09)) ((2.292484e-14 2.642764e-10 8.222418e-16) (1.210503e-13 -2.571947e-07 -2.057939e-14))
0.154991      	((1.673425e-06 4.104837e-10 5.537173e-07) (3.322520e-06 -3.159243e-13 -1.286143e-09)) ((-6.809047e-15 1.837173e-10 2.331527e-15) (1.192105e-13 -2.252671e-07 6.824530e-14))
0.197989      	((1.676229e-06 -3.040257e-10 5.319139e-07) (2.889010e-06 -6.724266e-13 -1.614204e-09)) ((-9.459035e-15 2.079308e-10 -3.376579e-15) (1.136636e-13 -1.969982e-07 1.345433e-13))
0.249587      	((1.289097e-06 1.717061e-10 4.273201e-07) (2.519018e-06 -1.268295e-12 -1.968038e-09)) ((-5.882358e-15 1.485641e-10 -4.522943e-16) (8.664933e-14 -1.726961e-07 1.625678e-13))
0.311504      	((1.262912e-06 -4.895229e-11 3.955698e-07) (2.210990e-06 -1.439082e-12 -2.320771e-09)) ((-1.716032e-14 1.645497e-10 1.054353e-15) (1.313981e-13 -1.523646e-07 1.752480e-13))
0.385805      	((1.012396e-06 1.982484e-11 3.341249e-07) (1.955859e-06 -1.374455e-12 -2.686752e-09)) ((-5.467770e-15 1.226369e-10 2.150698e-15) (1.349306e-13 -1.355025e-07 1.884640e-13))
0.474966      	((9.857380e-07 -3.386198e-11 3.063447e-07) (1.744112e-06 -1.439201e-12 -2.907589e-09)) ((-1.828915e-14 1.337047e-10 5.088712e-16) (1.267329e-13 -1.215244e-07 2.806608e-13))
0.581959      	((8.186753e-07 -1.575074e-11 2.678088e-07) (1.565339e-06 -1.435083e-12 -3.161225e-09)) ((-2.527063e-15 1.035619e-10 -4.100577e-15) (4.440279e-14 -1.097138e-07 2.229279e-13))
0.710351      	((7.936184e-07 1.922242e-11 2.442451e-07) (1.411558e-06 -5.127022e-13 -3.268349e-09)) ((-2.469061e-14 1.116667e-10 -2.077312e-15) (4.684953e-16 -9.958366e-08 1.785287e-14))
0.864421      	((6.759038e-07 -3.602651e-11 2.182840e-07) (1.276369e-06 4.333264e-13 -3.414238e-09)) ((-1.154516e-14 9.082332e-11 2.509162e-17) (-2.423946e-14 -9.068925e-08 -3.328711e-14))
1.049306      	((6.484940e-07 -1.270277e-11 1.970571e-07) (1.156033e-06 1.029660e-12 -3.354037e-09)) ((-2.996762e-14 9.677259e-11 -9.487909e-15) (2.137141e-13 -8.280318e-08 8.397708e-14))
1.271167      	((5.586899e-07 -4.210673e-11 1.768209e-07) (1.047633e-06 -1.811145e-12 -3.567794e-09)) ((-1.890147e-14 8.252584e-11 -1.550140e-14) (4.964208e-13 -7.570908e-08 2.828464e-13))
1.5374        	((5.282876e-07 -5.330586e-11 1.576707e-07) (9.497325e-07 -5.780929e-12 -3.382497e-09)) ((-3.360836e-14 8.534095e-11 -1.999376e-14) (7.240270e-13 -6.930793e-08 4.342417e-13))
1.85688       	((4.594158e-07 -7.461834e-11 1.413824e-07) (8.614392e-07 -1.045316e-11 -3.540337e-09)) ((-3.462710e-14 7.512515e-11 -2.011199e-14) (9.658158e-13 -6.355468e-08 4.609550e-13))
2.240256      	((4.279461e-07 -1.601443e-11 1.253578e-07) (7.823707e-07 -1.015928e-11 -3.742689e-09)) ((-4.539512e-14 7.534077e-11 -1.841929e-14) (1.490263e-12 -5.840211e-08 2.710118e-13))
2.700307      	((3.772809e-07 -6.494119e-11 1.127037e-07) (7.123988e-07 -7.272697e-12 -3.720710e-09)) ((-4.109702e-14 6.863632e-11 -2.105747e-14) (2.397707e-12 -5.384136e-08 -1.526943e-13))
3.252369      	((3.491755e-07 -9.177642e-11 1.002524e-07) (6.507291e-07 -6.064897e-12 -3.827095e-09)) ((-4.161029e-14 6.782045e-11 -2.357952e-14) (3.279084e-12 -4.981601e-08 -1.036748e-12))
3.914842      	((3.132710e-07 -8.895427e-11 9.035542e-08) (5.966214e-07 -3.977159e-12 -3.902012e-09)) ((-2.966894e-14 6.415992e-11 -2.065402e-14) (3.871296e-12 -4.629746e-08 -2.316425e-12))
4.709811      	((2.895570e-07 -1.643891e-11 8.040696e-08) (5.489733e-07 -3.661727e-12 -4.019009e-09)) ((-2.952427e-14 6.252072e-11 -2.768200e-14) (4.156563e-12 -4.321067e-08 -3.204439e-12))
5.663773      	((2.622481e-07 -4.513471e-11 7.190164e-08) (5.065990e-07 -6.947350e-12 -4.300463e-09)) ((-2.689509e-14 6.000618e-11 -3.049396e-14) (3.989547e-12 -4.047901e-08 -3.499376e-12))
6.808528      	((2.419128e-07 -1.071825e-10 6.336315e-08) (4.685765e-07 -1.360930e-11 -4.706676e-09)) ((-3.010209e-14 5.809163e-11 -3.118621e-14) (3.603570e-12 -3.803412e-08 -3.624248e-12))
8.182233      	((2.207409e-07 -8.556201e-11 5.572685e-08) (4.340856e-07 -2.096480e-11 -5.133958e-09)) ((-2.846842e-14 5.641635e-11 -2.507372e-14) (3.330512e-12 -3.582790e-08 -3.627059e-12))
9.83068       	((2.032403e-07 -5.354271e-11 4.830643e-08) (4.025482e-07 -2.485882e-11 -5.523965e-09)) ((-2.919936e-14 5.501026e-11 -2.212142e-14) (3.091683e-12 -3.382344e-08 -3.376675e-12))
11.808816     	((1.860786e-07 -5.667759e-11 4.158838e-08) (3.735964e-07 -2.668692e-11 -5.899660e-09)) ((-2.365397e-14 5.369812e-11 -1.942752e-14) (2.820121e-12 -3.199441e-08 -2.905924e-12))
14.182579     	((1.712622e-07 -4.786159e-11 3.490316e-08) (3.469739e-07 -2.753106e-11 -6.195632e-09)) ((-2.091810e-14 5.257350e-11 -1.719724e-14) (2.490316e-12 -3.031993e-08 -2.337669e-12))
17.031095     	((1.570299e-07 -4.789276e-11 2.879932e-08) (3.224340e-07 -2.853981e-11 -6.401952e-09)) ((-1.857080e-14 5.159540e-11 -1.529274e-14) (2.049347e-12 -2.878562e-08 -1.609386e-12))
20.449314     	((1.443399e-07 -4.075416e-11 2.256842e-08) (2.998655e-07 -3.014145e-11 -6.546017e-09)) ((-1.607893e-14 5.070279e-11 -1.303729e-14) (1.574708e-12 -2.738387e-08 -9.550338e-13))
24.551176     	((1.323359e-07 -5.230865e-11 1.675729e-08) (2.792011e-07 -3.164135e-11 -6.640572e-09)) ((-1.364068e-14 4.995335e-11 -1.072027e-14) (1.163555e-12 -2.611004e-08 -5.149966e-13))
29.473411     	((1.217767e-07 -5.045237e-11 1.129295e-08) (2.603465e-07 -3.148298e-11 -6.708009e-09)) ((-1.204125e-14 4.931875e-11 -8.979347e-15) (8.447259e-13 -2.495675e-08 -1.741744e-13))
35.380094     	((1.120586e-07 -5.674985e-11 6.071041e-09) (2.431793e-07 -2.847159e-11 -6.773590e-09)) ((-1.088663e-14 4.879523e-11 -7.587122e-15) (6.560469e-13 -2.391487e-08 -8.490373e-14))
42.468112     	((1.034790e-07 -7.372415e-11 1.149670e-09) (2.275541e-07 -2.878520e-11 -6.864762e-09)) ((-9.516350e-15 4.834279e-11 -6.680805e-15) (5.950875e-13 -2.297413e-08 -1.394366e-13))
50.973735     	((9.584287e-08 -6.433346e-11 -3.468243e-09) (2.133535e-07 -2.877497e-11 -7.001043e-09)) ((-8.210806e-15 4.798150e-11 -5.744858e-15) (5.023324e-13 -2.212576e-08 -1.912820e-13))
61.180482     	((8.915209e-08 -6.211493e-11 -7.970481e-09) (2.004585e-07 -2.976774e-11 -7.208549e-09)) ((-6.888067e-15 4.766807e-11 -4.589016e-15) (3.331809e-13 -2.136289e-08 -2.632550e-13))
73.428578     	((8.315095e-08 -5.055519e-11 -1.223481e-08) (1.887574e-07 -2.987353e-11 -7.503030e-09)) ((-6.148123e-15 4.741887e-11 -4.092799e-15) (2.115161e-13 -2.067933e-08 -4.403971e-13))
88.126294     	((7.796937e-08 -4.478587e-11 -1.617133e-08) (1.781687e-07 -2.742103e-11 -7.877357e-09)) ((-4.265607e-15 4.720732e-11 -3.900179e-15) (2.532175e-13 -2.006866e-08 -6.437523e-13))
105.763553    	((7.361128e-08 -3.290914e-11 -1.972911e-08) (1.686268e-07 -2.492827e-11 -8.336547e-09)) ((-3.073876e-15 4.704999e-11 -3.554418e-15) (3.263564e-13 -1.952518e-08 -7.846061e-13))
126.928263    	((6.987281e-08 -3.035824e-11 -2.328552e-08) (1.600668e-07 -2.304986e-11 -8.889261e-09)) ((-3.044605e-15 4.693456e-11 -3.243449e-15) (3.702133e-13 -1.904390e-08 -8.849389e-13))
152.325916    	((6.681742e-08 -2.720696e-11 -2.666270e-08) (1.524337e-07 -2.146271e-11 -9.556395e-09)) ((-2.950865e-15 4.685374e-11 -3.322420e-15) (3.854620e-13 -1.862073e-08 -9.260219e-13))
182.803099    	((6.443445e-08 -2.904880e-11 -2.971255e-08) (1.456886e-07 -1.846228e-11 -1.035430e-08)) ((-3.147779e-15 4.680045e-11 -3.142677e-15) (4.366944e-13 -1.825186e-08 -8.995435e-13))
219.375719    	((6.267065e-08 -2.489242e-11 -3.246810e-08) (1.398046e-07 -1.626772e-11 -1.127926e-08)) ((-2.460998e-15 4.676059e-11 -3.415875e-15) (4.662025e-13 -1.793389e-08 -8.900508e-13))
263.262863    	((6.147147e-08 -2.313323e-11 -3.497295e-08) (1.347510e-07 -1.505583e-11 -1.233203e-08)) ((-2.455002e-15 4.673111e-11 -3.539643e-15) (4.798180e-13 -1.766291e-08 -8.558299e-13))
315.827003    	((6.077611e-08 -1.720473e-11 -3.716422e-08) (1.304886e-07 -1.427076e-11 -1.349957e-08)) ((-2.015596e-15 4.671381e-11 -3.864698e-15) (4.679926e-13 -1.743486e-08 -7.913427e-13))
377.067226    	((6.053765e-08 -1.374370e-11 -3.892029e-08) (1.270115e-07 -1.371634e-11 -1.473401e-08)) ((-1.987382e-15 4.670691e-11 -3.832730e-15) (4.361245e-13 -1.724718e-08 -6.868880e-13))
446.983686    	((6.068967e-08 -9.069380e-12 -4.026009e-08) (1.242857e-07 -1.327349e-11 -1.597503e-08)) ((-2.019906e-15 4.670731e-11 -3.565380e-15) (4.137451e-13 -1.709621e-08 -5.536905e-13))
525.577244    	((6.112857e-08 -5.174629e-12 -4.121255e-08) (1.222608e-07 -1.314882e-11 -1.714738e-08)) ((-1.711814e-15 4.671273e-11 -3.411648e-15) (3.708705e-13 -1.697845e-08 -3.934321e-13))
612.358318    	((6.169791e-08 -3.529697e-12 -4.187404e-08) (1.208558e-07 -1.322116e-11 -1.817768e-08)) ((-1.544585e-15 4.672263e-11 -3.284727e-15) (3.092256e-13 -1.689007e-08 -2.203026e-13))
699.150466    	((6.220121e-08 -1.789850e-12 -4.234723e-08) (1.199711e-07 -1.366810e-11 -1.900239e-08)) ((-1.576792e-15 4.673824e-11 -3.111317e-15) (2.325728e-13 -1.682773e-08 -7.929974e-14))
785.95416     	((6.254474e-08 -3.130504e-13 -4.272272e-08) (1.194510e-07 -1.433843e-11 -1.962266e-08)) ((-1.512038e-15 4.674944e-11 -3.047684e-15) (1.473655e-13 -1.678525e-08 2.622718e-14))
872.768201    	((6.272543e-08 5.167098e-13 -4.301901e-08) (1.191633e-07 -1.506080e-11 -2.006420e-08)) ((-1.543047e-15 4.675608e-11 -2.965385e-15) (7.111217e-14 -1.675718e-08 9.249707e-14))
959.591174    	((6.277943e-08 7.732841e-13 -4.326381e-08) (1.190023e-07 -1.603540e-11 -2.037342e-08)) ((-1.621780e-15 4.675919e-11 -2.907471e-15) (-1.023872e-15 -1.673851e-08 1.156576e-13))
1046.42171    	((6.277104e-08 4.339771e-13 -4.346028e-08) (1.189034e-07 -1.695440e-11 -2.059200e-08)) ((-1.674223e-15 4.676052e-11 -2.876052e-15) (-5.863697e-14 -1.672579e-08 1.220543e-13))
1133.258247   	((6.274062e-08 -2.654992e-13 -4.362139e-08) (1.188312e-07 -1.784058e-11 -2.075345e-08)) ((-1.677306e-15 4.676093e-11 -2.892434e-15) (-1.034006e-13 -1.671672e-08 1.153624e-13))
1220.099689   	((6.270931e-08 -7.096610e-13 -4.375407e-08) (1.187723e-07 -1.865981e-11 -2.087878e-08)) ((-1.696856e-15 4.676120e-11 -2.886740e-15) (-1.408169e-13 -1.671003e-08 9.821954e-14))
1306.945146   	((6.267937e-08 -1.225655e-12 -4.386624e-08) (1.187213e-07 -1.938494e-11 -2.098201e-08)) ((-1.719932e-15 4.676145e-11 -2.865351e-15) (-1.699898e-13 -1.670496e-08 7.764326e-14))
1393.793891   	((6.265188e-08 -1.658965e-12 -4.396115e-08) (1.186771e-07 -2.003042e-11 -2.107057e-08)) ((-1.726799e-15 4.676171e-11 -2.850531e-15) (-1.927289e-13 -1.670104e-08 5.629138e-14))
1480.645326   	((6.262595e-08 -2.023919e-12 -4.404313e-08) (1.186390e-07 -2.061057e-11 -2.114866e-08)) ((-1.719991e-15 4.676194e-11 -2.840461e-15) (-2.113192e-13 -1.669797e-08 3.603678e-14))
1567.498959   	((6.260168e-08 -2.307761e-12 -4.411463e-08) (1.186069e-07 -2.113384e-11 -2.121877e-08)) ((-1.702670e-15 4.676207e-11 -2.841923e-15) (-2.280975e-13 -1.669554e-08 1.885225e-14))
1654.354372   	((6.257942e-08 -2.581473e-12 -4.417777e-08) (1.185801e-07 -2.159000e-11 -2.128238e-08)) ((-1.634699e-15 4.676221e-11 -2.842197e-15) (-2.428579e-13 -1.669360e-08 4.094156e-15))
1741.211209   	((6.255989e-08 -2.762119e-12 -4.423348e-08) (1.185581e-07 -2.199215e-11 -2.134016e-08)) ((-1.586208e-15 4.676238e-11 -2.847195e-15) (-2.552787e-13 -1.669204e-08 -7.907847e-15))
1828.069226   	((6.254256e-08 -3.102666e-12 -4.428332e-08) (1.185402e-07 -2.233727e-11 -2.139276e-08)) ((-1.548900e-15 4.676255e-11 -2.836150e-15) (-2.659945e-13 -1.669078e-08 -1.854892e-14))
1914.928252   	((6.252724e-08 -3.410124e-12 -4.432797e-08) (1.185256e-07 -2.264219e-11 -2.144059e-08)) ((-1.513209e-15 4.676274e-11 -2.814868e-15) (-2.750472e-13 -1.668975e-08 -2.808292e-14))
2001.78816    	((6.251357e-08 -3.619536e-12 -4.436807e-08) (1.185139e-07 -2.289771e-11 -2.148420e-08)) ((-1.488267e-15 4.676294e-11 -2.803451e-15) (-2.835878e-13 -1.668892e-08 -3.742256e-14))
2088.64885    	((6.250136e-08 -3.777058e-12 -4.440430e-08) (1.185044e-07 -2.315150e-11 -2.152412e-08)) ((-1.473218e-15 4.676314e-11 -2.792574e-15) (-2.915399e-13 -1.668825e-08 -4.518519e-14))
2175.510245   	((6.249038e-08 -3.975142e-12 -4.443701e-08) (1.184969e-07 -2.337975e-11 -2.156075e-08)) ((-1.466011e-15 4.676332e-11 -2.777256e-15) (-2.989136e-13 -1.668769e-08 -5.142417e-14))
2262.372278   	((6.248037e-08 -4.126831e-12 -4.446677e-08) (1.184908e-07 -2.358482e-11 -2.159441e-08)) ((-1.440946e-15 4.676350e-11 -2.764595e-15) (-3.062717e-13 -1.668724e-08 -5.678989e-14))
2349.234893   	((6.247143e-08 -4.232619e-12 -4.449363e-08) (1.184861e-07 -2.375742e-11 -2.162531e-08)) ((-1.405015e-15 4.676367e-11 -2.764145e-15) (-3.140280e-13 -1.668686e-08 -6.212658e-14))
2436.09804    	((6.246332e-08 -4.287144e-12 -4.451821e-08) (1.184823e-07 -2.387443e-11 -2.165371e-08)) ((-1.382531e-15 4.676384e-11 -2.763139e-15) (-3.215705e-13 -1.668655e-08 -6.819065e-14))
2522.961678   	((6.245594e-08 -4.344270e-12 -4.454068e-08) (1.184792e-07 -2.398120e-11 -2.167981e-08)) ((-1.364466e-15 4.676400e-11 -2.755769e-15) (-3.279367e-13 -1.668629e-08 -7.416645e-14))
2609.825778   	((6.244907e-08 -4.392656e-12 -4.456130e-08) (1.184768e-07 -2.407332e-11 -2.170385e-08)) ((-1.350519e-15 4.676415e-11 -2.749304e-15) (-3.334847e-13 -1.668606e-08 -7.959446e-14))
2696.690314   	((6.244269e-08 -4.450469e-12 -4.458027e-08) (1.184748e-07 -2.413905e-11 -2.172602e-08)) ((-1.338177e-15 4.676428e-11 -2.742789e-15) (-3.378330e-13 -1.668587e-08 -8.504209e-14))
2783.555256   	((6.243682e-08 -4.483122e-12 -4.459776e-08) (1.184733e-07 -2.418167e-11 -2.174649e-08)) ((-1.322862e-15 4.676440e-11 -2.737627e-15) (-3.410976e-13 -1.668571e-08 -9.082190e-14))
2870.420575   	((6.243136e-08 -4.498338e-12 -4.461385e-08) (1.184720e-07 -2.421685e-11 -2.176542e-08)) ((-1.308523e-15 4.676451e-11 -2.733922e-15) (-3.434587e-13 -1.668557e-08 -9.630868e-14))
2957.286242   	((6.242626e-08 -4.517083e-12 -4.462880e-08) (1.184710e-07 -2.425015e-11 -2.178295e-08)) ((-1.295825e-15 4.676461e-11 -2.729042e-15) (-3.454687e-13 -1.668544e-08 -1.010804e-13))
3044.152232   	((6.242154e-08 -4.532792e-12 -4.464264e-08) (1.184702e-07 -2.427476e-11 -2.179918e-08)) ((-1.285655e-15 4.676470e-11 -2.725584e-15) (-3.469724e-13 -1.668533e-08 -1.052777e-13))
3131.018522   	((6.241715e-08 -4.527301e-12 -4.465545e-08) (1.184695e-07 -2.429540e-11 -2.181426e-08)) ((-1.278442e-15 4.676478e-11 -2.722226e-15) (-3.480868e-13 -1.668523e-08 -1.089764e-13))
3217.88509    	((6.241305e-08 -4.533199e-12 -4.466736e-08) (1.184690e-07 -2.431353e-11 -2.182826e-08)) ((-1.273527e-15 4.676486e-11 -2.717994e-15) (-3.493661e-13 -1.668515e-08 -1.124137e-13))
3304.751918   	((6.240922e-08 -4.541428e-12 -4.467846e-08) (1.184686e-07 -2.433008e-11 -2.184127e-08)) ((-1.268941e-15 4.676494e-11 -2.713477e-15) (-3.506685e-13 -1.668507e-08 -1.156472e-13))
3391.618987   	((6.240551e-08 -4.544991e-12 -4.468894e-08) (1.184682e-07 -2.434142e-11 -2.185338e-08)) ((-1.264769e-15 4.676501e-11 -2.709634e-15) (-3.519124e-13 -1.668500e-08 -1.186892e-13))
3478.486281   	((6.240212e-08 -4.589989e-12 -4.469861e-08) (1.184679e-07 -2.434984e-11 -2.186467e-08)) ((-1.259859e-15 4.676507e-11 -2.704946e-15) (-3.527076e-13 -1.668493e-08 -1.215105e-13))
3565.353785   	((6.239898e-08 -4.604197e-12 -4.470761e-08) (1.184677e-07 -2.435956e-11 -2.187520e-08)) ((-1.254202e-15 4.676513e-11 -2.700986e-15) (-3.532718e-13 -1.668488e-08 -1.240592e-13))
3652.221486   	((6.239608e-08 -4.619786e-12 -4.471601e-08) (1.184675e-07 -2.436647e-11 -2.188504e-08)) ((-1.248254e-15 4.676519e-11 -2.697366e-15) (-3.536214e-13 -1.668482e-08 -1.263942e-13))
3739.089371   	((6.239327e-08 -4.662827e-12 -4.472389e-08) (1.184674e-07 -2.437292e-11 -2.189422e-08)) ((-1.241767e-15 4.676523e-11 -2.694212e-15) (-3.539637e-13 -1.668477e-08 -1.284872e-13))
3825.957427   	((6.239070e-08 -4.665967e-12 -4.473119e-08) (1.184673e-07 -2.438146e-11 -2.190280e-08)) ((-1.235506e-15 4.676528e-11 -2.691722e-15) (-3.543169e-13 -1.668473e-08 -1.303317e-13))
