# Forces      
# CofR        : (0.000000e+00 0.000000e+00 0.000000e+00)
# Time        forces(pressure viscous)	moments(pressure viscous)
0             	((0.000000e+00 0.000000e+00 0.000000e+00) (-7.572024e-15 2.000609e-05 1.676479e-15)) ((0.000000e+00 0.000000e+00 0.000000e+00) (4.495158e-07 -6.581725e-17 -9.613362e-12))
0.012         	((-6.497154e-09 5.818083e-03 1.452210e-03) (-3.992870e-11 2.295740e-05 -7.779924e-09)) ((-6.861594e-08 4.947850e-09 -1.096596e-09) (6.625141e-07 2.047659e-14 -1.994114e-11))
0.0264        	((-9.561557e-08 -4.038065e-04 -9.293665e-05) (-1.305826e-10 2.342239e-05 -1.112758e-08)) ((4.834115e-09 -3.108393e-10 7.025028e-11) (7.417419e-07 1.618300e-12 -2.637403e-11))
0.04368       	((1.414732e-07 -1.216631e-03 -1.330201e-04) (-8.357842e-11 2.081443e-05 -9.427716e-09)) ((1.584098e-08 -4.537686e-10 2.983654e-10) (6.608010e-07 -2.599580e-12 -2.252705e-11))
0.064416      	((-4.477355e-08 -1.143351e-05 -4.795912e-05) (4.870937e-10 1.843604e-05 -5.395010e-09)) ((-7.793453e-11 -1.590232e-10 -1.641945e-11) (5.932258e-07 -4.913213e-12 -2.621751e-11))
0.0892992     	((1.398048e-08 1.613928e-05 -2.886196e-05) (7.034955e-10 1.702065e-05 -4.952634e-09)) ((-6.435181e-10 -9.754072e-11 -1.596454e-11) (5.607808e-07 -1.299264e-12 -2.629353e-11))
0.119159      	((2.128013e-09 -1.827387e-05 -1.784901e-05) (5.389008e-10 1.571687e-05 -6.764681e-09)) ((3.426643e-10 -5.710292e-11 3.608614e-12) (5.247416e-07 -2.436490e-13 -2.094408e-11))
0.154991      	((-7.505015e-09 -9.824591e-06 -1.131924e-05) (3.652483e-10 1.433506e-05 -7.234598e-09)) ((2.099790e-10 -3.529620e-11 1.072368e-14) (4.846479e-07 -4.738562e-13 -1.640106e-11))
0.197989      	((8.396444e-09 -2.381717e-06 -7.118907e-06) (1.641825e-10 1.294150e-05 -8.272232e-09)) ((7.582726e-11 -2.073881e-11 2.881727e-13) (4.438600e-07 -6.643417e-13 -8.258102e-12))
0.249587      	((3.664871e-09 3.237284e-07 -4.545848e-06) (8.722911e-11 1.157526e-05 -9.821834e-09)) ((2.174282e-11 -1.239094e-11 -1.275999e-12) (4.030898e-07 -2.763717e-12 -2.492772e-12))
0.311504      	((3.347397e-11 1.562434e-06 -2.892804e-06) (6.318331e-11 1.027762e-05 -1.170275e-08)) ((4.694123e-12 -6.878126e-12 -1.349466e-12) (3.631460e-07 -6.155029e-12 3.269713e-12))
0.385805      	((2.243318e-10 2.156515e-06 -1.882711e-06) (6.463416e-11 9.081806e-06 -1.363725e-08)) ((-7.478827e-13 -3.261385e-12 -1.082091e-12) (3.250156e-07 -8.558674e-12 8.246997e-12))
0.474966      	((1.531629e-10 2.440818e-06 -1.223399e-06) (5.604129e-11 8.010656e-06 -1.550605e-08)) ((-5.705693e-12 -9.659824e-13 -9.319331e-13) (2.897345e-07 -8.926131e-12 4.929091e-12))
0.581959      	((3.999735e-10 2.556128e-06 -8.295252e-07) (3.936598e-11 7.072345e-06 -1.742868e-08)) ((-9.808715e-12 1.988399e-13 -7.974588e-13) (2.579005e-07 -7.700270e-12 -2.292673e-12))
0.710351      	((-3.010573e-11 2.546708e-06 -5.841545e-07) (5.688821e-11 6.265790e-06 -1.927425e-08)) ((-1.250476e-11 9.639659e-13 -6.804317e-13) (2.298378e-07 -5.985507e-12 -4.451461e-12))
0.864421      	((-1.301761e-10 2.455577e-06 -4.498611e-07) (8.474709e-11 5.580670e-06 -2.081914e-08)) ((-1.360521e-11 1.364848e-12 -7.016017e-13) (2.055440e-07 -4.338667e-12 -3.548708e-12))
1.049306      	((-1.243381e-10 2.321039e-06 -3.706509e-07) (1.107463e-10 5.000151e-06 -2.214113e-08)) ((-1.347962e-11 1.580850e-12 -7.011002e-13) (1.846709e-07 -3.060673e-12 -2.366231e-12))
1.271167      	((-4.240001e-11 2.170510e-06 -3.342562e-07) (1.384805e-10 4.506711e-06 -2.345273e-08)) ((-1.276908e-11 1.674789e-12 -6.393672e-13) (1.666953e-07 -2.171125e-12 -1.821660e-12))
1.5374        	((1.407237e-12 2.015544e-06 -3.191778e-07) (1.387941e-10 4.081979e-06 -2.488246e-08)) ((-1.188763e-11 1.706304e-12 -6.262603e-13) (1.510637e-07 -1.504924e-12 -2.214752e-12))
1.85688       	((1.398082e-10 1.863672e-06 -3.223248e-07) (1.265795e-10 3.709427e-06 -2.649628e-08)) ((-1.088190e-11 1.656784e-12 -6.188734e-13) (1.372935e-07 -9.645462e-13 -2.851397e-12))
2.240256      	((1.043857e-10 1.719052e-06 -3.327804e-07) (8.958940e-11 3.378283e-06 -2.832982e-08)) ((-1.002527e-11 1.591244e-12 -6.067100e-13) (1.250364e-07 -2.367396e-13 -4.611851e-12))
2.700307      	((6.016288e-11 1.583852e-06 -3.494364e-07) (3.915065e-11 3.081717e-06 -3.033657e-08)) ((-9.305935e-12 1.512221e-12 -5.962425e-13) (1.140543e-07 9.234779e-14 -6.895234e-12))
3.252369      	((6.789761e-11 1.457837e-06 -3.669455e-07) (2.248664e-11 2.814920e-06 -3.247122e-08)) ((-8.585297e-12 1.412929e-12 -5.672544e-13) (1.041733e-07 -5.081052e-15 -8.711161e-12))
3.914842      	((9.573852e-11 1.339769e-06 -3.854928e-07) (3.512409e-11 2.574341e-06 -3.475413e-08)) ((-7.859867e-12 1.300875e-12 -5.226678e-13) (9.526024e-08 -1.106016e-13 -9.668298e-12))
4.709811      	((1.139440e-10 1.230443e-06 -4.033849e-07) (4.017938e-11 2.357295e-06 -3.716201e-08)) ((-7.199900e-12 1.200133e-12 -4.647859e-13) (8.721788e-08 8.386033e-14 -9.597193e-12))
5.663773      	((9.903141e-11 1.129966e-06 -4.201609e-07) (3.486323e-11 2.161788e-06 -3.970984e-08)) ((-6.631425e-12 1.112707e-12 -4.181666e-13) (7.997386e-08 3.425296e-13 -8.610773e-12))
6.808528      	((2.208735e-11 1.038179e-06 -4.343249e-07) (4.426224e-11 1.986132e-06 -4.241363e-08)) ((-6.149088e-12 1.033073e-12 -3.621909e-13) (7.346488e-08 4.806934e-13 -8.486675e-12))
8.182233      	((5.758558e-11 9.547622e-07 -4.461353e-07) (3.299782e-11 1.828512e-06 -4.528523e-08)) ((-5.720265e-12 9.576334e-13 -3.092852e-13) (6.762460e-08 6.078206e-13 -8.842644e-12))
9.83068       	((8.424875e-11 8.793551e-07 -4.559584e-07) (4.070992e-12 1.686946e-06 -4.837706e-08)) ((-5.320678e-12 8.836509e-13 -2.676900e-13) (6.237969e-08 9.013748e-13 -9.192235e-12))
11.808816     	((4.718419e-11 8.110068e-07 -4.641277e-07) (-1.013350e-11 1.559461e-06 -5.171639e-08)) ((-4.969381e-12 8.130396e-13 -2.345147e-13) (5.765636e-08 1.099448e-12 -9.569659e-12))
14.182579     	((-8.222440e-12 7.491831e-07 -4.711235e-07) (-2.666627e-11 1.444263e-06 -5.534025e-08)) ((-4.669079e-12 7.468039e-13 -2.064748e-13) (5.338762e-08 1.199764e-12 -9.173155e-12))
17.031095     	((4.788496e-11 6.936024e-07 -4.765391e-07) (-3.587378e-11 1.339850e-06 -5.925358e-08)) ((-4.415418e-12 6.884780e-13 -1.820661e-13) (4.951809e-08 1.075973e-12 -7.642329e-12))
20.449314     	((1.020404e-10 6.439308e-07 -4.811089e-07) (-4.183606e-11 1.245123e-06 -6.345647e-08)) ((-4.204476e-12 6.300010e-13 -1.660635e-13) (4.600668e-08 8.072652e-13 -4.922676e-12))
24.551176     	((1.059839e-10 5.997388e-07 -4.845166e-07) (-5.001502e-11 1.159265e-06 -6.791503e-08)) ((-4.033420e-12 5.799793e-13 -1.574030e-13) (4.282310e-08 5.363736e-13 -2.333249e-12))
29.473411     	((1.678323e-10 5.609580e-07 -4.868195e-07) (-4.576922e-11 1.081618e-06 -7.257989e-08)) ((-3.901928e-12 5.381195e-13 -1.529883e-13) (3.994337e-08 1.011862e-13 -7.579162e-13))
35.380094     	((1.772831e-10 5.270505e-07 -4.876045e-07) (-3.363179e-11 1.011579e-06 -7.741696e-08)) ((-3.811178e-12 4.991435e-13 -1.507224e-13) (3.734585e-08 -3.059353e-13 5.028161e-13))
42.468112     	((1.070813e-10 4.981211e-07 -4.877766e-07) (-3.265574e-11 9.486005e-07 -8.237287e-08)) ((-3.760993e-12 4.607911e-13 -1.508534e-13) (3.501069e-08 -2.870447e-13 1.948965e-12))
50.973735     	((1.005947e-10 4.737181e-07 -4.865623e-07) (-4.009877e-11 8.921630e-07 -8.738643e-08)) ((-3.754208e-12 4.274259e-13 -1.546757e-13) (3.291871e-08 -1.239630e-13 3.875515e-12))
61.180482     	((1.129280e-10 4.535290e-07 -4.844520e-07) (-4.890193e-11 8.417486e-07 -9.240965e-08)) ((-3.790866e-12 3.959436e-13 -1.628202e-13) (3.105067e-08 2.998700e-14 6.369174e-12))
73.428578     	((1.558851e-10 4.374480e-07 -4.811905e-07) (-5.743939e-11 7.968959e-07 -9.739418e-08)) ((-3.874053e-12 3.692632e-13 -1.734413e-13) (2.939016e-08 3.401382e-14 9.429316e-12))
88.126294     	((1.940792e-10 4.253006e-07 -4.773973e-07) (-6.549699e-11 7.572128e-07 -1.023042e-07)) ((-4.001171e-12 3.436462e-13 -1.872839e-13) (2.792386e-08 -2.444290e-13 1.296464e-11))
105.763553    	((2.349097e-10 4.167809e-07 -4.728700e-07) (-7.567029e-11 7.223594e-07 -1.071188e-07)) ((-4.170063e-12 3.209874e-13 -2.024380e-13) (2.664067e-08 -7.765809e-13 1.662238e-11))
126.928263    	((2.719727e-10 4.116075e-07 -4.678047e-07) (-8.289628e-11 6.920566e-07 -1.118268e-07)) ((-4.369824e-12 3.042277e-13 -2.180638e-13) (2.553141e-08 -1.565304e-12 1.998119e-11))
152.325916    	((3.036668e-10 4.094734e-07 -4.621538e-07) (-8.755570e-11 6.660681e-07 -1.164291e-07)) ((-4.594204e-12 2.925225e-13 -2.349002e-13) (2.458766e-08 -2.438579e-12 2.305686e-11))
182.803099    	((3.784803e-10 4.099039e-07 -4.560573e-07) (-9.006440e-11 6.441738e-07 -1.208823e-07)) ((-4.826846e-12 2.881901e-13 -2.522730e-13) (2.380040e-08 -3.423838e-12 2.572138e-11))
219.375719    	((4.670587e-10 4.121277e-07 -4.494495e-07) (-8.990036e-11 6.260968e-07 -1.250727e-07)) ((-5.043768e-12 2.920491e-13 -2.688359e-13) (2.315685e-08 -4.670712e-12 2.809915e-11))
262.839622    	((5.478457e-10 4.152392e-07 -4.423340e-07) (-7.976331e-11 6.114669e-07 -1.288244e-07)) ((-5.224089e-12 3.010608e-13 -2.821686e-13) (2.263938e-08 -6.103117e-12 2.988092e-11))
313.169067    	((6.199518e-10 4.182872e-07 -4.344146e-07) (-6.113630e-11 5.997683e-07 -1.319641e-07)) ((-5.361806e-12 3.128682e-13 -2.907925e-13) (2.222627e-08 -7.561207e-12 3.090154e-11))
370.350278    	((6.935729e-10 4.205254e-07 -4.261439e-07) (-3.544832e-11 5.903694e-07 -1.344427e-07)) ((-5.463827e-12 3.241380e-13 -2.967752e-13) (2.189378e-08 -9.010375e-12 3.127763e-11))
434.383734    	((7.526517e-10 4.218173e-07 -4.175565e-07) (-6.686888e-12 5.827174e-07 -1.363338e-07)) ((-5.534301e-12 3.372245e-13 -3.006177e-13) (2.162303e-08 -1.034607e-11 3.112998e-11))
502.988629    	((7.876875e-10 4.225335e-07 -4.092616e-07) (2.322172e-11 5.764450e-07 -1.377687e-07)) ((-5.584444e-12 3.524383e-13 -3.039576e-13) (2.140218e-08 -1.152652e-11 3.056589e-11))
571.682881    	((8.065744e-10 4.229920e-07 -4.016053e-07) (5.137114e-11 5.713018e-07 -1.388889e-07)) ((-5.616634e-12 3.686708e-13 -3.063603e-13) (2.122243e-08 -1.249410e-11 2.972829e-11))
640.446342    	((8.108917e-10 4.231775e-07 -3.946302e-07) (7.797106e-11 5.670361e-07 -1.397992e-07)) ((-5.635737e-12 3.851854e-13 -3.084790e-13) (2.107468e-08 -1.325278e-11 2.869842e-11))
709.262997    	((8.060917e-10 4.232859e-07 -3.882888e-07) (1.007719e-10 5.635046e-07 -1.405536e-07)) ((-5.646586e-12 4.014403e-13 -3.104418e-13) (2.095345e-08 -1.382528e-11 2.759206e-11))
778.123511    	((7.899610e-10 4.233137e-07 -3.825775e-07) (1.203650e-10 5.605694e-07 -1.411919e-07)) ((-5.652931e-12 4.163531e-13 -3.122920e-13) (2.085345e-08 -1.419694e-11 2.638359e-11))
847.021743    	((7.632216e-10 4.233038e-07 -3.775025e-07) (1.366439e-10 5.581263e-07 -1.417358e-07)) ((-5.656311e-12 4.298830e-13 -3.136879e-13) (2.077090e-08 -1.435009e-11 2.514186e-11))
915.952133    	((7.296299e-10 4.232625e-07 -3.730519e-07) (1.485447e-10 5.560846e-07 -1.422051e-07)) ((-5.657552e-12 4.422838e-13 -3.145716e-13) (2.070238e-08 -1.430287e-11 2.384988e-11))
984.909533    	((6.937966e-10 4.232134e-07 -3.691787e-07) (1.557151e-10 5.543775e-07 -1.426109e-07)) ((-5.657568e-12 4.531131e-13 -3.153331e-13) (2.064545e-08 -1.407999e-11 2.260222e-11))
1053.88941    	((6.553775e-10 4.231581e-07 -3.658138e-07) (1.599487e-10 5.529453e-07 -1.429623e-07)) ((-5.656994e-12 4.626022e-13 -3.159646e-13) (2.059801e-08 -1.374441e-11 2.139523e-11))
1122.887968   	((6.153611e-10 4.231046e-07 -3.628854e-07) (1.615930e-10 5.517406e-07 -1.432663e-07)) ((-5.656084e-12 4.707430e-13 -3.165739e-13) (2.055840e-08 -1.330315e-11 2.020989e-11))
1191.902059   	((5.755946e-10 4.230535e-07 -3.603313e-07) (1.609720e-10 5.507264e-07 -1.435293e-07)) ((-5.655308e-12 4.778266e-13 -3.171470e-13) (2.052526e-08 -1.279790e-11 1.906480e-11))
1260.929083   	((5.371351e-10 4.230052e-07 -3.581010e-07) (1.587058e-10 5.498721e-07 -1.437570e-07)) ((-5.654495e-12 4.839678e-13 -3.176358e-13) (2.049747e-08 -1.224264e-11 1.797129e-11))
1329.966886   	((4.995964e-10 4.229612e-07 -3.561526e-07) (1.545832e-10 5.491511e-07 -1.439534e-07)) ((-5.653643e-12 4.891877e-13 -3.181360e-13) (2.047412e-08 -1.165260e-11 1.697983e-11))
1399.013677   	((4.638452e-10 4.229216e-07 -3.544625e-07) (1.495897e-10 5.485416e-07 -1.441229e-07)) ((-5.652957e-12 4.936409e-13 -3.185529e-13) (2.045448e-08 -1.105376e-11 1.605751e-11))
1468.06797    	((4.302313e-10 4.228854e-07 -3.529941e-07) (1.440019e-10 5.480253e-07 -1.442691e-07)) ((-5.652250e-12 4.974764e-13 -3.189734e-13) (2.043790e-08 -1.045441e-11 1.520163e-11))
1537.128528   	((3.985910e-10 4.228531e-07 -3.517220e-07) (1.379732e-10 5.475874e-07 -1.443949e-07)) ((-5.651597e-12 5.007667e-13 -3.192779e-13) (2.042390e-08 -9.856964e-12 1.441444e-11))
1606.194323   	((3.697244e-10 4.228236e-07 -3.506197e-07) (1.318814e-10 5.472158e-07 -1.445027e-07)) ((-5.650894e-12 5.036539e-13 -3.194897e-13) (2.041208e-08 -9.275069e-12 1.368355e-11))
1675.2645     	((3.432968e-10 4.227984e-07 -3.496675e-07) (1.259762e-10 5.469001e-07 -1.445949e-07)) ((-5.650213e-12 5.061512e-13 -3.196920e-13) (2.040208e-08 -8.723434e-12 1.300049e-11))
1744.338349   	((3.195586e-10 4.227751e-07 -3.488436e-07) (1.200653e-10 5.466318e-07 -1.446741e-07)) ((-5.649587e-12 5.083178e-13 -3.198806e-13) (2.039361e-08 -8.208436e-12 1.238370e-11))
1813.415276   	((2.979649e-10 4.227554e-07 -3.481329e-07) (1.142739e-10 5.464036e-07 -1.447421e-07)) ((-5.649050e-12 5.101554e-13 -3.200453e-13) (2.038641e-08 -7.727304e-12 1.182830e-11))
1882.494786   	((2.786227e-10 4.227381e-07 -3.475196e-07) (1.086825e-10 5.462093e-07 -1.448004e-07)) ((-5.648534e-12 5.117250e-13 -3.201799e-13) (2.038029e-08 -7.278887e-12 1.133446e-11))
1951.576467   	((2.613037e-10 4.227226e-07 -3.469911e-07) (1.033740e-10 5.460435e-07 -1.448503e-07)) ((-5.648062e-12 5.130458e-13 -3.202685e-13) (2.037509e-08 -6.866777e-12 1.089304e-11))
2020.659974   	((2.458897e-10 4.227092e-07 -3.465362e-07) (9.844014e-11 5.459023e-07 -1.448931e-07)) ((-5.647665e-12 5.141814e-13 -3.203366e-13) (2.037067e-08 -6.490395e-12 1.049737e-11))
2089.745019   	((2.321878e-10 4.226976e-07 -3.461448e-07) (9.387740e-11 5.457818e-07 -1.449298e-07)) ((-5.647339e-12 5.151543e-13 -3.203996e-13) (2.036690e-08 -6.148676e-12 1.014398e-11))
2158.83136    	((2.200118e-10 4.226876e-07 -3.458081e-07) (8.970295e-11 5.456789e-07 -1.449612e-07)) ((-5.647087e-12 5.159707e-13 -3.204693e-13) (2.036369e-08 -5.839184e-12 9.828390e-12))
2227.918795   	((2.093410e-10 4.226792e-07 -3.455190e-07) (8.592460e-11 5.455911e-07 -1.449882e-07)) ((-5.646868e-12 5.166654e-13 -3.205272e-13) (2.036095e-08 -5.560877e-12 9.547141e-12))
2297.007154   	((1.998951e-10 4.226717e-07 -3.452704e-07) (8.255759e-11 5.455161e-07 -1.450113e-07)) ((-5.646690e-12 5.172577e-13 -3.205765e-13) (2.035861e-08 -5.311527e-12 9.295836e-12))
2366.096294   	((1.915968e-10 4.226652e-07 -3.450567e-07) (7.956556e-11 5.454521e-07 -1.450311e-07)) ((-5.646539e-12 5.177643e-13 -3.206246e-13) (2.035662e-08 -5.088425e-12 9.072067e-12))
2435.186095   	((1.842882e-10 4.226593e-07 -3.448737e-07) (7.689045e-11 5.453974e-07 -1.450481e-07)) ((-5.646409e-12 5.181978e-13 -3.206666e-13) (2.035491e-08 -4.889449e-12 8.874524e-12))
2504.276454   	((1.779263e-10 4.226544e-07 -3.447164e-07) (7.451161e-11 5.453507e-07 -1.450627e-07)) ((-5.646303e-12 5.185687e-13 -3.207054e-13) (2.035346e-08 -4.713192e-12 8.700327e-12))
2573.367288   	((1.723547e-10 4.226503e-07 -3.445815e-07) (7.239777e-11 5.453108e-07 -1.450752e-07)) ((-5.646216e-12 5.188819e-13 -3.207383e-13) (2.035222e-08 -4.557470e-12 8.547211e-12))
2642.458524   	((1.675504e-10 4.226469e-07 -3.444662e-07) (7.052778e-11 5.452766e-07 -1.450858e-07)) ((-5.646141e-12 5.191479e-13 -3.207649e-13) (2.035115e-08 -4.420196e-12 8.412646e-12))
2711.550101   	((1.633005e-10 4.226437e-07 -3.443669e-07) (6.888681e-11 5.452474e-07 -1.450950e-07)) ((-5.646072e-12 5.193750e-13 -3.207863e-13) (2.035025e-08 -4.299466e-12 8.294271e-12))
2780.641968   	((1.596054e-10 4.226411e-07 -3.442821e-07) (6.744603e-11 5.452225e-07 -1.451028e-07)) ((-5.646015e-12 5.195683e-13 -3.208041e-13) (2.034947e-08 -4.193519e-12 8.190590e-12))
2849.73408    	((1.563941e-10 4.226389e-07 -3.442094e-07) (6.618090e-11 5.452012e-07 -1.451095e-07)) ((-5.645968e-12 5.197348e-13 -3.208197e-13) (2.034881e-08 -4.100663e-12 8.099786e-12))
2918.826402   	((1.535567e-10 4.226369e-07 -3.441467e-07) (6.507778e-11 5.451829e-07 -1.451152e-07)) ((-5.645927e-12 5.198763e-13 -3.208324e-13) (2.034824e-08 -4.019219e-12 8.020057e-12))
2987.918902   	((1.510851e-10 4.226352e-07 -3.440932e-07) (6.411672e-11 5.451673e-07 -1.451201e-07)) ((-5.645892e-12 5.199967e-13 -3.208431e-13) (2.034775e-08 -3.947995e-12 7.950084e-12))
3057.011553   	((1.489390e-10 4.226337e-07 -3.440478e-07) (6.327826e-11 5.451540e-07 -1.451243e-07)) ((-5.645862e-12 5.200982e-13 -3.208520e-13) (2.034734e-08 -3.885732e-12 7.888840e-12))
3126.104333   	((1.470719e-10 4.226325e-07 -3.440087e-07) (6.254571e-11 5.451426e-07 -1.451279e-07)) ((-5.645837e-12 5.201851e-13 -3.208599e-13) (2.034698e-08 -3.831309e-12 7.835285e-12))
3195.197221   	((1.453899e-10 4.226315e-07 -3.439748e-07) (6.190510e-11 5.451328e-07 -1.451310e-07)) ((-5.645814e-12 5.202597e-13 -3.208665e-13) (2.034668e-08 -3.783696e-12 7.788492e-12))
3264.290203   	((1.439520e-10 4.226306e-07 -3.439461e-07) (6.134505e-11 5.451244e-07 -1.451336e-07)) ((-5.645796e-12 5.203218e-13 -3.208723e-13) (2.034642e-08 -3.742098e-12 7.747597e-12))
3333.383263   	((1.426863e-10 4.226298e-07 -3.439215e-07) (6.085544e-11 5.451173e-07 -1.451359e-07)) ((-5.645779e-12 5.203748e-13 -3.208773e-13) (2.034620e-08 -3.705720e-12 7.711879e-12))
3402.476391   	((1.415569e-10 4.226292e-07 -3.439002e-07) (6.042735e-11 5.451112e-07 -1.451378e-07)) ((-5.645764e-12 5.204202e-13 -3.208818e-13) (2.034600e-08 -3.673885e-12 7.680686e-12))
3471.569576   	((1.405861e-10 4.226286e-07 -3.438822e-07) (6.005102e-11 5.451059e-07 -1.451394e-07)) ((-5.645753e-12 5.204580e-13 -3.208857e-13) (2.034584e-08 -3.646072e-12 7.653568e-12))
3540.662809   	((1.397402e-10 4.226281e-07 -3.438670e-07) (5.972081e-11 5.451014e-07 -1.451409e-07)) ((-5.645741e-12 5.204893e-13 -3.208888e-13) (2.034570e-08 -3.621751e-12 7.629964e-12))
3609.756084   	((1.389972e-10 4.226277e-07 -3.438537e-07) (5.943134e-11 5.450976e-07 -1.451421e-07)) ((-5.645732e-12 5.205167e-13 -3.208915e-13) (2.034558e-08 -3.600476e-12 7.609379e-12))
