# Forces      
# CofR        : (0.000000e+00 0.000000e+00 0.000000e+00)
# Time        forces(pressure viscous)	moments(pressure viscous)
0             	((0.000000e+00 0.000000e+00 0.000000e+00) (1.262289e-05 -7.441732e-16 1.227005e-10)) ((0.000000e+00 0.000000e+00 0.000000e+00) (-2.866990e-17 -2.836212e-07 -1.836641e-16))
0.012         	((3.670740e-03 -6.315318e-09 9.351832e-04) (1.448597e-05 -2.308253e-11 -3.802251e-09)) ((-2.868393e-13 5.409481e-08 -6.010633e-13) (-1.129177e-13 -4.180219e-07 3.431343e-13))
0.0264        	((-2.534949e-04 2.073444e-10 -5.974929e-05) (1.478094e-05 -3.464191e-11 -5.418727e-09)) ((1.981433e-14 -3.764773e-09 7.717936e-13) (6.168873e-13 -4.680492e-07 5.849108e-13))
0.04368       	((-7.681948e-04 -7.718288e-09 -9.166621e-05) (1.313647e-05 -3.997999e-11 -4.400052e-09)) ((9.855437e-13 -1.199528e-08 6.667794e-13) (1.156655e-12 -4.169862e-07 2.956886e-13))
0.064416      	((-7.237190e-06 7.458064e-09 -2.966426e-05) (1.163613e-05 2.266846e-10 -2.162606e-09)) ((-5.357146e-13 -3.068528e-11 -1.317166e-14) (4.787216e-13 -3.743277e-07 9.145518e-13))
0.0892992     	((1.031464e-05 -1.500784e-08 -1.750649e-05) (1.074324e-05 3.543567e-10 -1.930310e-09)) ((3.377966e-13 4.320396e-10 3.126096e-14) (-1.058431e-12 -3.538488e-07 2.633600e-13))
0.119159      	((-1.149199e-05 5.595204e-09 -1.074950e-05) (9.920399e-06 2.764372e-10 -2.674852e-09)) ((-3.476197e-13 -2.819242e-10 2.109350e-13) (-1.230605e-12 -3.310892e-07 -2.490563e-12))
0.154991      	((-6.195799e-06 2.912471e-09 -6.722645e-06) (9.047832e-06 2.324328e-10 -2.817147e-09)) ((-2.126866e-14 -1.672082e-10 3.626461e-13) (-1.391650e-12 -3.057534e-07 -4.239194e-12))
0.197989      	((-1.504577e-06 3.004288e-09 -4.168065e-06) (8.167103e-06 1.557205e-10 -3.478411e-09)) ((-3.360479e-13 -5.790880e-11 2.221182e-13) (-1.745243e-12 -2.799684e-07 -4.631233e-12))
0.249587      	((1.988271e-07 2.389006e-09 -2.587031e-06) (7.302929e-06 9.288400e-11 -4.242451e-09)) ((-4.079522e-13 -1.726600e-11 -6.753694e-14) (-1.251116e-12 -2.541832e-07 -4.323944e-12))
0.311504      	((9.794896e-07 4.959279e-10 -1.583213e-06) (6.481319e-06 4.254986e-11 -5.018339e-09)) ((-1.265693e-13 -2.423422e-12 -1.507192e-14) (-9.159273e-13 -2.288984e-07 -3.150622e-12))
0.385805      	((1.355440e-06 3.675795e-10 -9.598022e-07) (5.723197e-06 1.241253e-11 -5.791531e-09)) ((-8.770458e-14 2.632748e-12 -1.126081e-14) (-6.732921e-13 -2.047349e-07 -1.881046e-12))
0.474966      	((1.531497e-06 1.001700e-11 -5.649160e-07) (5.043572e-06 -8.374563e-12 -6.508845e-09)) ((-5.504544e-14 6.613033e-12 -8.157976e-15) (-4.966883e-13 -1.823606e-07 -1.388003e-12))
0.581959      	((1.602031e-06 -8.331869e-11 -3.252576e-07) (4.448518e-06 -2.683730e-11 -7.218413e-09)) ((-2.575503e-14 9.904426e-12 3.889364e-15) (-3.682762e-13 -1.621824e-07 -1.081916e-12))
0.710351      	((1.595792e-06 -1.680565e-10 -1.813803e-07) (3.937946e-06 -2.796247e-11 -7.913778e-09)) ((-7.386005e-15 1.191328e-11 8.874925e-15) (-2.940930e-13 -1.444270e-07 -6.715832e-13))
0.864421      	((1.538627e-06 -1.787336e-10 -1.008497e-07) (3.505311e-06 -2.167504e-11 -8.533430e-09)) ((-2.889631e-15 1.255339e-11 4.949311e-15) (-3.592060e-13 -1.290926e-07 -5.157296e-13))
1.049306      	((1.454462e-06 -1.429443e-10 -5.644931e-08) (3.139706e-06 -1.796047e-11 -9.075777e-09)) ((-1.663509e-15 1.222998e-11 3.004967e-15) (-3.983819e-13 -1.159534e-07 -3.168072e-13))
1.271167      	((1.360555e-06 -7.423303e-11 -3.588772e-08) (2.829845e-06 -1.036064e-11 -9.607440e-09)) ((-1.100187e-15 1.149673e-11 1.410796e-15) (-3.093190e-13 -1.046702e-07 -1.294254e-13))
1.5374        	((1.264221e-06 -4.935808e-11 -2.949960e-08) (2.563740e-06 -2.144594e-12 -1.018330e-08)) ((-6.813969e-16 1.066258e-11 2.186578e-15) (-1.961272e-13 -9.487827e-08 -1.808078e-13))
1.85688       	((1.170017e-06 -3.555022e-11 -3.304373e-08) (2.330582e-06 2.836750e-12 -1.083670e-08)) ((-1.140007e-15 9.740218e-12 2.055422e-15) (-1.384113e-13 -8.625923e-08 -3.343276e-13))
2.240256      	((1.080502e-06 -3.306332e-11 -4.203926e-08) (2.123343e-06 4.624659e-12 -1.158884e-08)) ((-2.041656e-15 8.897846e-12 9.683936e-16) (-1.024001e-13 -7.858477e-08 -4.563412e-13))
2.700307      	((9.968434e-07 -2.975070e-11 -5.445045e-08) (1.937548e-06 4.037700e-12 -1.236366e-08)) ((-1.221840e-15 8.182246e-12 1.726100e-16) (-8.413376e-14 -7.170209e-08 -5.425709e-13))
3.252369      	((9.188288e-07 -1.144006e-11 -6.775984e-08) (1.770234e-06 1.650122e-12 -1.318183e-08)) ((2.902795e-16 7.484988e-12 2.923723e-16) (-1.176542e-13 -6.550321e-08 -5.910854e-13))
3.914842      	((8.454158e-07 -8.311774e-13 -8.131613e-08) (1.619189e-06 -1.351719e-12 -1.408494e-08)) ((1.117863e-15 6.786597e-12 1.062405e-16) (-1.540988e-13 -5.990593e-08 -6.474454e-13))
4.709811      	((7.771581e-07 1.037583e-11 -9.433438e-08) (1.482778e-06 -3.798578e-12 -1.505282e-08)) ((3.565480e-15 6.131617e-12 -4.841763e-16) (-1.881079e-13 -5.485030e-08 -6.994512e-13))
5.663773      	((7.143499e-07 5.012174e-12 -1.065216e-07) (1.359854e-06 -3.248649e-12 -1.606563e-08)) ((5.206816e-15 5.557394e-12 -5.584282e-16) (-2.528842e-13 -5.029417e-08 -6.673696e-13))
6.808528      	((6.569268e-07 -1.495626e-11 -1.172828e-07) (1.249386e-06 -2.779869e-12 -1.710723e-08)) ((3.339776e-15 5.060126e-12 -3.806676e-16) (-2.889969e-13 -4.619986e-08 -6.630140e-13))
8.182233      	((6.044646e-07 -1.179654e-11 -1.267631e-07) (1.150239e-06 -2.597901e-12 -1.818780e-08)) ((2.233458e-15 4.618215e-12 4.379258e-16) (-3.309459e-13 -4.252653e-08 -7.546724e-13))
9.83068       	((5.568040e-07 1.777927e-11 -1.349963e-07) (1.061166e-06 -1.639894e-12 -1.934309e-08)) ((1.610217e-15 4.224642e-12 9.422100e-17) (-3.323987e-13 -3.922764e-08 -9.311612e-13))
11.808816     	((5.132380e-07 3.374099e-11 -1.423004e-07) (9.808994e-07 -4.256767e-12 -2.059814e-08)) ((1.927347e-15 3.871848e-12 1.360019e-16) (-2.904597e-13 -3.625488e-08 -1.254957e-12))
14.182579     	((4.735639e-07 -3.041262e-12 -1.487644e-07) (9.082725e-07 -8.487291e-12 -2.195415e-08)) ((2.818163e-15 3.558092e-12 2.782093e-16) (-3.232103e-13 -3.356498e-08 -1.779690e-12))
17.031095     	((4.375766e-07 2.835316e-12 -1.544398e-07) (8.423279e-07 -1.371178e-11 -2.343829e-08)) ((2.615976e-15 3.277865e-12 -8.493152e-16) (-4.075673e-13 -3.112209e-08 -2.571201e-12))
20.449314     	((4.049385e-07 -1.364265e-11 -1.595217e-07) (7.823405e-07 -1.996339e-11 -2.505967e-08)) ((2.807855e-15 3.027349e-12 -1.607902e-15) (-5.519632e-13 -2.889914e-08 -3.360832e-12))
24.551176     	((3.754332e-07 -4.574343e-11 -1.638010e-07) (7.277797e-07 -2.548863e-11 -2.680660e-08)) ((3.027966e-15 2.808764e-12 -1.903389e-15) (-7.110727e-13 -2.687659e-08 -3.979258e-12))
29.473411     	((3.489244e-07 -3.043118e-11 -1.673077e-07) (6.782376e-07 -2.769994e-11 -2.866608e-08)) ((3.979338e-15 2.621422e-12 -2.325193e-15) (-7.998358e-13 -2.503960e-08 -4.498159e-12))
35.380094     	((3.251890e-07 -5.016386e-11 -1.700940e-07) (6.333670e-07 -3.116790e-11 -3.061685e-08)) ((4.416406e-15 2.457906e-12 -2.046113e-15) (-9.683497e-13 -2.337538e-08 -4.985606e-12))
42.468112     	((3.041406e-07 -3.505542e-11 -1.722516e-07) (5.928054e-07 -3.576199e-11 -3.263189e-08)) ((5.860480e-15 2.320969e-12 -1.315585e-15) (-1.169186e-12 -2.187093e-08 -5.683885e-12))
50.973735     	((2.855873e-07 -1.999703e-11 -1.738077e-07) (5.562016e-07 -4.067417e-11 -3.468492e-08)) ((7.687797e-15 2.212465e-12 -1.396166e-15) (-1.368031e-12 -2.051364e-08 -6.703709e-12))
61.180482     	((2.693948e-07 -2.085521e-11 -1.748531e-07) (5.232220e-07 -4.648851e-11 -3.676021e-08)) ((9.659335e-15 2.128367e-12 -1.370467e-15) (-1.575470e-12 -1.929100e-08 -8.136376e-12))
73.428578     	((2.553722e-07 -6.237287e-12 -1.753874e-07) (4.935319e-07 -5.268446e-11 -3.885612e-08)) ((9.955746e-15 2.065631e-12 -1.384354e-15) (-1.622450e-12 -1.819068e-08 -1.000706e-11))
88.126294     	((2.434460e-07 8.381183e-12 -1.755335e-07) (4.668388e-07 -5.951602e-11 -4.096919e-08)) ((1.035011e-14 2.025637e-12 -1.531775e-15) (-1.535401e-12 -1.720209e-08 -1.222369e-11))
105.763553    	((2.334924e-07 2.807201e-11 -1.753599e-07) (4.428963e-07 -6.760791e-11 -4.309872e-08)) ((9.761787e-15 2.008552e-12 -1.903304e-15) (-1.312828e-12 -1.631623e-08 -1.465585e-11))
126.928263    	((2.254726e-07 4.583582e-11 -1.748431e-07) (4.215043e-07 -7.527917e-11 -4.524122e-08)) ((8.540442e-15 2.013885e-12 -2.609216e-15) (-9.251115e-13 -1.552607e-08 -1.713055e-11))
152.325916    	((2.192183e-07 6.195153e-11 -1.740034e-07) (4.025081e-07 -8.176700e-11 -4.739182e-08)) ((8.013423e-15 2.039296e-12 -3.068974e-15) (-4.418414e-13 -1.482622e-08 -1.947219e-11))
182.803099    	((2.145516e-07 8.156638e-11 -1.729173e-07) (3.857809e-07 -8.653041e-11 -4.955067e-08)) ((7.409578e-15 2.081909e-12 -3.033907e-15) (7.100920e-14 -1.421236e-08 -2.153808e-11))
219.375719    	((2.114313e-07 1.095499e-10 -1.716435e-07) (3.712166e-07 -8.835133e-11 -5.170753e-08)) ((6.527387e-15 2.143732e-12 -3.311919e-15) (6.338511e-13 -1.368090e-08 -2.330128e-11))
263.262863    	((2.095640e-07 1.318499e-10 -1.701984e-07) (3.587033e-07 -8.759262e-11 -5.384736e-08)) ((5.935866e-15 2.215812e-12 -3.544637e-15) (1.201403e-12 -1.322746e-08 -2.470696e-11))
315.927436    	((2.087580e-07 1.647667e-10 -1.686443e-07) (3.481221e-07 -8.346100e-11 -5.592486e-08)) ((5.435527e-15 2.291612e-12 -3.529034e-15) (1.804177e-12 -1.284683e-08 -2.575214e-11))
379.124923    	((2.086987e-07 1.916907e-10 -1.669437e-07) (3.393123e-07 -7.589992e-11 -5.787719e-08)) ((5.193526e-15 2.361118e-12 -3.490592e-15) (2.451939e-12 -1.253182e-08 -2.639590e-11))
454.482647    	((2.090394e-07 2.231437e-10 -1.651135e-07) (3.320776e-07 -6.522290e-11 -5.963440e-08)) ((4.905077e-15 2.420946e-12 -3.367179e-15) (3.145632e-12 -1.227396e-08 -2.661079e-11))
541.985367    	((2.094856e-07 2.523312e-10 -1.631575e-07) (3.261971e-07 -5.294196e-11 -6.114127e-08)) ((4.411315e-15 2.469584e-12 -3.250740e-15) (3.839041e-12 -1.206450e-08 -2.641719e-11))
641.627788    	((2.097808e-07 2.746898e-10 -1.612232e-07) (3.214112e-07 -3.944585e-11 -6.238872e-08)) ((4.048129e-15 2.506486e-12 -3.174392e-15) (4.483544e-12 -1.189407e-08 -2.588620e-11))
753.415014    	((2.098968e-07 2.874323e-10 -1.593364e-07) (3.175024e-07 -2.542067e-11 -6.340149e-08)) ((4.035680e-15 2.533445e-12 -3.070583e-15) (5.045325e-12 -1.175517e-08 -2.510443e-11))
874.970974    	((2.099125e-07 2.935500e-10 -1.576432e-07) (3.142995e-07 -1.095846e-11 -6.422259e-08)) ((4.087636e-15 2.552466e-12 -2.946016e-15) (5.531149e-12 -1.164190e-08 -2.414167e-11))
996.646939    	((2.099290e-07 2.943982e-10 -1.562216e-07) (3.116865e-07 3.267090e-12 -6.489076e-08)) ((4.037770e-15 2.565142e-12 -2.863793e-15) (5.935806e-12 -1.155022e-08 -2.307259e-11))
1118.433043   	((2.098811e-07 2.904224e-10 -1.549208e-07) (3.095340e-07 1.611663e-11 -6.544618e-08)) ((4.128664e-15 2.573029e-12 -2.759996e-15) (6.229252e-12 -1.147539e-08 -2.196322e-11))
1240.316328   	((2.098382e-07 2.810400e-10 -1.536945e-07) (3.077659e-07 2.704235e-11 -6.591041e-08)) ((4.366452e-15 2.578653e-12 -2.675702e-15) (6.406619e-12 -1.141456e-08 -2.084841e-11))
1362.283914   	((2.097840e-07 2.689453e-10 -1.525177e-07) (3.063056e-07 3.587414e-11 -6.630245e-08)) ((4.695976e-15 2.583035e-12 -2.615742e-15) (6.472782e-12 -1.136485e-08 -1.974594e-11))
1484.324997   	((2.097340e-07 2.552968e-10 -1.514050e-07) (3.050994e-07 4.271240e-11 -6.663456e-08)) ((5.036544e-15 2.586581e-12 -2.581416e-15) (6.437092e-12 -1.132424e-08 -1.867015e-11))
1606.42973    	((2.096842e-07 2.400094e-10 -1.503574e-07) (3.040994e-07 4.757407e-11 -6.691737e-08)) ((5.389808e-15 2.589631e-12 -2.486674e-15) (6.317384e-12 -1.129094e-08 -1.762831e-11))
1728.589352   	((2.096403e-07 2.239122e-10 -1.493406e-07) (3.032690e-07 5.101449e-11 -6.715851e-08)) ((5.752814e-15 2.592376e-12 -2.477294e-15) (6.131668e-12 -1.126360e-08 -1.662327e-11))
1850.796075   	((2.095996e-07 2.072435e-10 -1.484163e-07) (3.025783e-07 5.300715e-11 -6.736478e-08)) ((6.172655e-15 2.594747e-12 -2.409614e-15) (5.890540e-12 -1.124107e-08 -1.566880e-11))
1973.043139   	((2.095644e-07 1.904487e-10 -1.475622e-07) (3.020026e-07 5.383738e-11 -6.754119e-08)) ((6.544518e-15 2.596899e-12 -2.363493e-15) (5.610200e-12 -1.122248e-08 -1.476544e-11))
2095.324693   	((2.095339e-07 1.741689e-10 -1.467906e-07) (3.015220e-07 5.364951e-11 -6.769196e-08)) ((6.913461e-15 2.598717e-12 -2.339017e-15) (5.302868e-12 -1.120711e-08 -1.392604e-11))
2217.63573    	((2.095070e-07 1.583886e-10 -1.460984e-07) (3.011200e-07 5.266396e-11 -6.782117e-08)) ((7.282987e-15 2.600337e-12 -2.300973e-15) (4.981554e-12 -1.119436e-08 -1.314300e-11))
2339.971965   	((2.094834e-07 1.434372e-10 -1.454858e-07) (3.007833e-07 5.115718e-11 -6.793177e-08)) ((7.584547e-15 2.601744e-12 -2.273721e-15) (4.653097e-12 -1.118376e-08 -1.241721e-11))
2462.32973    	((2.094633e-07 1.291786e-10 -1.449559e-07) (3.005009e-07 4.908705e-11 -6.802625e-08)) ((7.848932e-15 2.602889e-12 -2.261168e-15) (4.325248e-12 -1.117494e-08 -1.175398e-11))
2584.70591    	((2.094457e-07 1.159123e-10 -1.444801e-07) (3.002637e-07 4.672847e-11 -6.810706e-08)) ((8.090338e-15 2.603803e-12 -2.220524e-15) (4.002566e-12 -1.116758e-08 -1.114558e-11))
2707.097857   	((2.094307e-07 1.033768e-10 -1.440698e-07) (3.000643e-07 4.417563e-11 -6.817609e-08)) ((8.341253e-15 2.604520e-12 -2.196330e-15) (3.689426e-12 -1.116142e-08 -1.058845e-11))
2829.503298   	((2.094178e-07 9.184998e-11 -1.437153e-07) (2.998967e-07 4.145403e-11 -6.823500e-08)) ((8.580146e-15 2.605245e-12 -2.167665e-15) (3.388206e-12 -1.115627e-08 -1.008617e-11))
2951.920278   	((2.094068e-07 8.128306e-11 -1.434027e-07) (2.997555e-07 3.870325e-11 -6.828511e-08)) ((8.782462e-15 2.605938e-12 -2.129219e-15) (3.102151e-12 -1.115196e-08 -9.630968e-12))
3074.347125   	((2.093974e-07 7.163346e-11 -1.431291e-07) (2.996365e-07 3.601137e-11 -6.832777e-08)) ((8.973630e-15 2.606574e-12 -2.103997e-15) (2.833088e-12 -1.114835e-08 -9.218469e-12))
3196.782408   	((2.093892e-07 6.291770e-11 -1.428955e-07) (2.995361e-07 3.339714e-11 -6.836406e-08)) ((9.137593e-15 2.607164e-12 -2.079208e-15) (2.581550e-12 -1.114532e-08 -8.847168e-12))
3319.224906   	((2.093823e-07 5.510447e-11 -1.426926e-07) (2.994514e-07 3.086554e-11 -6.839491e-08)) ((9.279184e-15 2.607656e-12 -2.054068e-15) (2.348626e-12 -1.114277e-08 -8.515658e-12))
3441.673569   	((2.093767e-07 4.815938e-11 -1.425192e-07) (2.993798e-07 2.848158e-11 -6.842114e-08)) ((9.411190e-15 2.608062e-12 -2.033135e-15) (2.134930e-12 -1.114062e-08 -8.218966e-12))
3564.127504   	((2.093717e-07 4.193821e-11 -1.423693e-07) (2.993192e-07 2.624204e-11 -6.844342e-08)) ((9.527468e-15 2.608414e-12 -2.015233e-15) (1.939765e-12 -1.113882e-08 -7.955098e-12))
3686.585945   	((2.093676e-07 3.644647e-11 -1.422408e-07) (2.992681e-07 2.417927e-11 -6.846236e-08)) ((9.630837e-15 2.608710e-12 -2.003620e-15) (1.762611e-12 -1.113730e-08 -7.720110e-12))
3809.048239   	((2.093640e-07 3.159888e-11 -1.421321e-07) (2.992248e-07 2.227832e-11 -6.847846e-08)) ((9.721190e-15 2.608951e-12 -1.991520e-15) (1.602660e-12 -1.113602e-08 -7.512145e-12))
3931.513828   	((2.093608e-07 2.731668e-11 -1.420376e-07) (2.991882e-07 2.054413e-11 -6.849213e-08)) ((9.801944e-15 2.609158e-12 -1.982019e-15) (1.458978e-12 -1.113493e-08 -7.328393e-12))
4053.982233   	((2.093583e-07 2.357744e-11 -1.419571e-07) (2.991572e-07 1.897167e-11 -6.850376e-08)) ((9.870819e-15 2.609340e-12 -1.973237e-15) (1.330416e-12 -1.113402e-08 -7.166157e-12))
4176.453046   	((2.093561e-07 2.031335e-11 -1.418882e-07) (2.991309e-07 1.755569e-11 -6.851363e-08)) ((9.933173e-15 2.609487e-12 -1.965128e-15) (1.215786e-12 -1.113325e-08 -7.023211e-12))
4298.925915   	((2.093544e-07 1.751256e-11 -1.418301e-07) (2.991087e-07 1.628685e-11 -6.852203e-08)) ((9.986988e-15 2.609617e-12 -1.957910e-15) (1.113903e-12 -1.113260e-08 -6.897611e-12))
4421.400541   	((2.093529e-07 1.500162e-11 -1.417804e-07) (2.990899e-07 1.515353e-11 -6.852916e-08)) ((1.003546e-14 2.609729e-12 -1.951868e-15) (1.023662e-12 -1.113204e-08 -6.787456e-12))
4543.876668   	((2.093516e-07 1.283144e-11 -1.417379e-07) (2.990740e-07 1.415040e-11 -6.853522e-08)) ((1.007837e-14 2.609824e-12 -1.946628e-15) (9.439884e-13 -1.113158e-08 -6.691020e-12))
4666.354076   	((2.093504e-07 1.094802e-11 -1.417017e-07) (2.990604e-07 1.326430e-11 -6.854037e-08)) ((1.011566e-14 2.609905e-12 -1.942193e-15) (8.738496e-13 -1.113118e-08 -6.606571e-12))
4788.832578   	((2.093493e-07 9.219062e-12 -1.416720e-07) (2.990490e-07 1.248253e-11 -6.854473e-08)) ((1.014916e-14 2.609967e-12 -1.938194e-15) (8.121987e-13 -1.113085e-08 -6.532703e-12))
4911.312013   	((2.093486e-07 7.806527e-12 -1.416459e-07) (2.990393e-07 1.179826e-11 -6.854844e-08)) ((1.017691e-14 2.610031e-12 -1.934605e-15) (7.582520e-13 -1.113057e-08 -6.468273e-12))
5033.792246   	((2.093478e-07 6.543116e-12 -1.416240e-07) (2.990311e-07 1.119722e-11 -6.855159e-08)) ((1.020146e-14 2.610079e-12 -1.931335e-15) (7.110067e-13 -1.113033e-08 -6.412135e-12))
5156.273159   	((2.093472e-07 5.479635e-12 -1.416050e-07) (2.990241e-07 1.067421e-11 -6.855427e-08)) ((1.022264e-14 2.610124e-12 -1.928290e-15) (6.697261e-13 -1.113012e-08 -6.363182e-12))
5278.754653   	((2.093467e-07 4.526642e-12 -1.415875e-07) (2.990182e-07 1.021764e-11 -6.855654e-08)) ((1.024140e-14 2.610165e-12 -1.925815e-15) (6.337117e-13 -1.112995e-08 -6.320534e-12))
5401.236642   	((2.093463e-07 3.733229e-12 -1.415742e-07) (2.990132e-07 9.820261e-12 -6.855848e-08)) ((1.025711e-14 2.610197e-12 -1.923713e-15) (6.024256e-13 -1.112981e-08 -6.283461e-12))
5523.719053   	((2.093460e-07 3.097430e-12 -1.415627e-07) (2.990090e-07 9.474073e-12 -6.856012e-08)) ((1.027030e-14 2.610223e-12 -1.921969e-15) (5.751931e-13 -1.112968e-08 -6.251256e-12))
5646.201825   	((2.093458e-07 2.445161e-12 -1.415529e-07) (2.990054e-07 9.172629e-12 -6.856152e-08)) ((1.028265e-14 2.610246e-12 -1.920606e-15) (5.515171e-13 -1.112958e-08 -6.223312e-12))
