# Forces      
# CofR        : (0.000000e+00 0.000000e+00 0.000000e+00)
# Time        forces(pressure viscous)	moments(pressure viscous)
0             	((0.000000e+00 0.000000e+00 0.000000e+00) (7.021552e-07 1.337059e-09 7.583845e-02)) ((0.000000e+00 0.000000e+00 0.000000e+00) (-4.025237e-10 4.073278e-08 -9.873245e-13))
0.00658369    	((1.147847e-02 1.113496e-02 1.337165e+01) (1.019896e-05 1.480815e-05 9.499875e-02)) ((7.362940e-07 4.707808e-06 2.054630e-08) (1.444323e-06 -1.156174e-06 1.391213e-08))
0.0142662     	((-6.567434e-04 -1.327472e-03 -6.138279e+00) (2.251029e-05 2.411357e-05 8.575532e-02)) ((2.516374e-07 -1.132904e-06 -3.789477e-08) (1.627032e-06 -1.391153e-06 1.936936e-08))
0.023169      	((8.947969e-04 -7.545045e-04 1.433145e+00) (1.308164e-05 1.100943e-05 6.744489e-02)) ((-5.489378e-07 1.499431e-06 1.065538e-08) (1.034401e-06 5.252754e-07 -2.311664e-08))
0.0333679     	((1.105597e-04 -2.308762e-04 -1.735199e-01) (2.027648e-06 2.801736e-06 6.076572e-02)) ((-2.429666e-07 1.199003e-06 3.469856e-09) (4.364124e-07 1.329289e-06 -2.560518e-08))
0.0448745     	((-1.470749e-03 -1.396313e-03 5.820513e-01) (1.614357e-05 -3.076542e-06 5.662467e-02)) ((-1.031939e-07 1.028723e-06 1.750764e-08) (-5.266526e-08 1.383753e-06 -2.926307e-09))
0.0577116     	((-1.507816e-04 -4.981394e-04 1.996973e-01) (2.766777e-05 1.968316e-06 5.275062e-02)) ((6.879930e-09 8.370381e-07 3.758894e-09) (3.318324e-07 1.484805e-06 -2.734075e-08))
0.0712575     	((-5.056420e-04 -6.196592e-04 3.940108e-01) (2.784517e-05 7.111652e-06 5.034512e-02)) ((-2.804790e-08 9.145906e-07 8.098507e-09) (5.429379e-07 7.619746e-07 -3.328981e-08))
0.0849264     	((-6.525829e-04 -6.079165e-04 2.982883e-01) (3.126316e-05 1.034806e-05 4.840250e-02)) ((5.225767e-09 8.481609e-07 7.083249e-09) (6.030604e-07 3.743396e-07 -1.635355e-08))
0.0986942     	((-6.401691e-04 -5.599007e-04 3.532511e-01) (3.321935e-05 1.026821e-05 4.706166e-02)) ((1.159754e-08 9.025796e-07 5.224859e-09) (6.789200e-07 2.741271e-07 -9.553497e-09))
0.112547      	((-5.327134e-04 -4.766196e-04 3.287721e-01) (3.415522e-05 6.820528e-06 4.594612e-02)) ((3.239124e-08 8.140086e-07 2.304037e-09) (5.216504e-07 2.715830e-08 -2.583042e-08))
0.126533      	((-6.639829e-04 -4.688299e-04 3.470596e-01) (3.442996e-05 3.674123e-06 4.511899e-02)) ((2.884104e-08 8.501885e-07 5.758648e-09) (3.499392e-07 -5.272665e-08 -6.051601e-08))
0.140645      	((-6.611353e-04 -3.927366e-04 3.427315e-01) (3.294871e-05 1.577763e-06 4.448211e-02)) ((3.209392e-08 8.317841e-07 6.337309e-09) (2.738161e-07 2.328143e-08 -8.857755e-08))
0.154885      	((-7.577356e-04 -3.748371e-04 3.510327e-01) (3.088071e-05 4.804218e-07 4.401984e-02)) ((2.989328e-08 8.454642e-07 1.007924e-08) (2.313604e-07 4.492137e-08 -1.079973e-07))
0.169211      	((-8.634710e-04 -3.738050e-04 3.524310e-01) (2.857277e-05 -3.102424e-07 4.369882e-02)) ((3.733546e-08 8.193531e-07 1.140698e-08) (2.453556e-07 9.574587e-08 -1.191432e-07))
0.18359       	((-9.562359e-04 -3.645367e-04 3.576259e-01) (2.677681e-05 -5.067266e-07 4.350116e-02)) ((3.490317e-08 8.242069e-07 1.256736e-08) (3.078710e-07 1.259730e-07 -1.240455e-07))
0.197985      	((-1.030278e-03 -3.568900e-04 3.602910e-01) (2.558742e-05 -5.429599e-07 4.340187e-02)) ((3.284490e-08 8.232100e-07 1.508153e-08) (3.817792e-07 1.243280e-07 -1.292672e-07))
0.212376      	((-1.097363e-03 -3.400073e-04 3.638150e-01) (2.437382e-05 -6.337348e-07 4.337777e-02)) ((2.916272e-08 8.336327e-07 1.598807e-08) (4.606099e-07 1.339915e-07 -1.339100e-07))
0.226745      	((-1.138718e-03 -3.127505e-04 3.659535e-01) (2.363201e-05 -6.932554e-07 4.340110e-02)) ((2.658421e-08 8.410838e-07 1.580031e-08) (5.361886e-07 1.367265e-07 -1.400549e-07))
0.241076      	((-1.177334e-03 -2.746155e-04 3.678346e-01) (2.334883e-05 -5.647760e-07 4.345026e-02)) ((2.674901e-08 8.461367e-07 1.515396e-08) (6.076467e-07 1.455108e-07 -1.491195e-07))
0.255356      	((-1.201613e-03 -2.271691e-04 3.686752e-01) (2.328368e-05 -1.865044e-07 4.350737e-02)) ((2.489833e-08 8.524813e-07 1.410491e-08) (6.786501e-07 1.597575e-07 -1.581065e-07))
0.26958       	((-1.216999e-03 -1.799215e-04 3.690054e-01) (2.342957e-05 4.877547e-07 4.356000e-02)) ((2.388913e-08 8.575844e-07 1.314524e-08) (7.521792e-07 1.840786e-07 -1.639431e-07))
0.283753      	((-1.237103e-03 -1.515048e-04 3.686644e-01) (2.356820e-05 1.330824e-06 4.360086e-02)) ((1.965597e-08 8.642173e-07 1.213295e-08) (8.227862e-07 2.173496e-07 -1.643836e-07))
0.297887      	((-1.266229e-03 -1.344059e-04 3.680995e-01) (2.370232e-05 2.188167e-06 4.362784e-02)) ((1.598400e-08 8.707570e-07 1.160139e-08) (8.835562e-07 2.536759e-07 -1.605208e-07))
0.312005      	((-1.293046e-03 -1.286995e-04 3.674262e-01) (2.377339e-05 2.953245e-06 4.364171e-02)) ((1.177974e-08 8.785012e-07 1.158236e-08) (9.326218e-07 2.828270e-07 -1.549459e-07))
0.326123      	((-1.316919e-03 -1.301033e-04 3.669093e-01) (2.386513e-05 3.608927e-06 4.364553e-02)) ((9.830423e-09 8.844156e-07 1.150063e-08) (9.723776e-07 2.969359e-07 -1.501865e-07))
0.340255      	((-1.328371e-03 -1.316694e-04 3.665601e-01) (2.392917e-05 4.176345e-06 4.364274e-02)) ((7.923263e-09 8.887825e-07 1.125533e-08) (1.005134e-06 3.030295e-07 -1.482124e-07))
0.354403      	((-1.332408e-03 -1.295707e-04 3.663820e-01) (2.394094e-05 4.588237e-06 4.363659e-02)) ((6.140344e-09 8.902143e-07 1.085470e-08) (1.027869e-06 3.066383e-07 -1.480459e-07))
0.368565      	((-1.331464e-03 -1.252535e-04 3.662756e-01) (2.391360e-05 4.782493e-06 4.362951e-02)) ((4.724306e-09 8.898798e-07 1.061047e-08) (1.038391e-06 3.097329e-07 -1.482507e-07))
0.382732      	((-1.333240e-03 -1.198257e-04 3.662290e-01) (2.381842e-05 4.837702e-06 4.362314e-02)) ((3.681281e-09 8.890237e-07 1.035239e-08) (1.041545e-06 3.162329e-07 -1.492877e-07))
0.396901      	((-1.337869e-03 -1.145923e-04 3.662170e-01) (2.368591e-05 4.845247e-06 4.361827e-02)) ((3.235258e-09 8.885209e-07 1.018900e-08) (1.042023e-06 3.247093e-07 -1.514425e-07))
0.411067      	((-1.345201e-03 -1.095695e-04 3.662458e-01) (2.354626e-05 4.846888e-06 4.361505e-02)) ((2.991938e-09 8.885194e-07 1.009568e-08) (1.041511e-06 3.337897e-07 -1.542628e-07))
0.425233      	((-1.351843e-03 -1.044801e-04 3.663005e-01) (2.338147e-05 4.857033e-06 4.361329e-02)) ((3.228820e-09 8.889001e-07 1.000406e-08) (1.040803e-06 3.449692e-07 -1.572146e-07))
0.439398      	((-1.357655e-03 -9.926384e-05 3.663608e-01) (2.318747e-05 4.885920e-06 4.361263e-02)) ((3.406239e-09 8.895556e-07 9.958772e-09) (1.040872e-06 3.582055e-07 -1.599474e-07))
0.453561      	((-1.361891e-03 -9.444889e-05 3.664061e-01) (2.299016e-05 4.938362e-06 4.361266e-02)) ((3.616368e-09 8.900394e-07 9.937960e-09) (1.042404e-06 3.723533e-07 -1.621717e-07))
0.467724      	((-1.365639e-03 -9.036878e-05 3.664326e-01) (2.281219e-05 5.011260e-06 4.361306e-02)) ((3.809130e-09 8.901533e-07 9.955238e-09) (1.045575e-06 3.859252e-07 -1.636909e-07))
0.481885      	((-1.368794e-03 -8.722382e-05 3.664484e-01) (2.265233e-05 5.094694e-06 4.361364e-02)) ((4.116640e-09 8.901662e-07 9.988611e-09) (1.050136e-06 3.991687e-07 -1.644156e-07))
0.496045      	((-1.371318e-03 -8.476180e-05 3.664587e-01) (2.249894e-05 5.174398e-06 4.361428e-02)) ((4.482918e-09 8.901152e-07 1.002266e-08) (1.055440e-06 4.124933e-07 -1.643189e-07))
0.510203      	((-1.373271e-03 -8.285071e-05 3.664645e-01) (2.235176e-05 5.245381e-06 4.361489e-02)) ((4.839723e-09 8.900299e-07 1.005849e-08) (1.061036e-06 4.253591e-07 -1.636295e-07))
0.524361      	((-1.374698e-03 -8.185256e-05 3.664668e-01) (2.220831e-05 5.309383e-06 4.361541e-02)) ((5.214205e-09 8.899095e-07 1.009067e-08) (1.066712e-06 4.377609e-07 -1.627261e-07))
0.538519      	((-1.376480e-03 -8.138625e-05 3.664641e-01) (2.206796e-05 5.367217e-06 4.361583e-02)) ((5.572653e-09 8.898333e-07 1.011297e-08) (1.072213e-06 4.497188e-07 -1.618583e-07))
0.552677      	((-1.378341e-03 -8.120069e-05 3.664591e-01) (2.193288e-05 5.417245e-06 4.361613e-02)) ((5.916171e-09 8.898581e-07 1.013132e-08) (1.077287e-06 4.609551e-07 -1.611046e-07))
0.566834      	((-1.380114e-03 -8.102102e-05 3.664539e-01) (2.180922e-05 5.459594e-06 4.361634e-02)) ((6.233546e-09 8.899379e-07 1.014514e-08) (1.081944e-06 4.709170e-07 -1.604247e-07))
0.580992      	((-1.381626e-03 -8.080425e-05 3.664498e-01) (2.170362e-05 5.494984e-06 4.361647e-02)) ((6.518173e-09 8.900652e-07 1.015342e-08) (1.086246e-06 4.793518e-07 -1.597703e-07))
0.595151      	((-1.382880e-03 -8.052167e-05 3.664467e-01) (2.162023e-05 5.524541e-06 4.361654e-02)) ((6.768315e-09 8.902162e-07 1.016607e-08) (1.090178e-06 4.861778e-07 -1.591411e-07))
0.60931       	((-1.383885e-03 -8.017998e-05 3.664445e-01) (2.156131e-05 5.550197e-06 4.361657e-02)) ((6.980144e-09 8.903816e-07 1.017341e-08) (1.093816e-06 4.913427e-07 -1.585529e-07))
0.623469      	((-1.384700e-03 -7.973535e-05 3.664432e-01) (2.152556e-05 5.573457e-06 4.361658e-02)) ((7.161193e-09 8.905471e-07 1.018202e-08) (1.097166e-06 4.949488e-07 -1.580259e-07))
0.637628      	((-1.385399e-03 -7.922752e-05 3.664427e-01) (2.151004e-05 5.594613e-06 4.361657e-02)) ((7.310520e-09 8.906912e-07 1.018419e-08) (1.100201e-06 4.971658e-07 -1.575769e-07))
0.651787      	((-1.386032e-03 -7.868605e-05 3.664427e-01) (2.151014e-05 5.613998e-06 4.361655e-02)) ((7.436284e-09 8.907973e-07 1.018523e-08) (1.102898e-06 4.982390e-07 -1.572081e-07))
0.665947      	((-1.386631e-03 -7.812039e-05 3.664429e-01) (2.152046e-05 5.631518e-06 4.361654e-02)) ((7.546398e-09 8.908595e-07 1.018560e-08) (1.105241e-06 4.984301e-07 -1.569162e-07))
0.680106      	((-1.387203e-03 -7.756000e-05 3.664431e-01) (2.153588e-05 5.646567e-06 4.361652e-02)) ((7.638314e-09 8.908786e-07 1.018487e-08) (1.107196e-06 4.980468e-07 -1.566841e-07))
0.694266      	((-1.387746e-03 -7.703569e-05 3.664433e-01) (2.155202e-05 5.658436e-06 4.361650e-02)) ((7.711532e-09 8.908653e-07 1.018077e-08) (1.108757e-06 4.973431e-07 -1.564886e-07))
0.708426      	((-1.388222e-03 -7.655820e-05 3.664435e-01) (2.156612e-05 5.667279e-06 4.361649e-02)) ((7.773058e-09 8.908260e-07 1.017318e-08) (1.109978e-06 4.964745e-07 -1.563159e-07))
0.722585      	((-1.388686e-03 -7.613284e-05 3.664437e-01) (2.157594e-05 5.673639e-06 4.361648e-02)) ((7.818508e-09 8.907781e-07 1.016965e-08) (1.110903e-06 4.956727e-07 -1.561539e-07))
0.736745      	((-1.389065e-03 -7.577729e-05 3.664438e-01) (2.158091e-05 5.677414e-06 4.361647e-02)) ((7.856190e-09 8.907322e-07 1.016809e-08) (1.111576e-06 4.949614e-07 -1.560028e-07))
0.750905      	((-1.389334e-03 -7.544255e-05 3.664438e-01) (2.158214e-05 5.679484e-06 4.361647e-02)) ((7.894508e-09 8.906850e-07 1.016967e-08) (1.112064e-06 4.944032e-07 -1.558629e-07))
0.765064      	((-1.389467e-03 -7.515563e-05 3.664438e-01) (2.158000e-05 5.680560e-06 4.361646e-02)) ((7.920463e-09 8.906485e-07 1.017172e-08) (1.112423e-06 4.940663e-07 -1.557323e-07))
0.779224      	((-1.389483e-03 -7.491338e-05 3.664438e-01) (2.157556e-05 5.681142e-06 4.361646e-02)) ((7.945718e-09 8.906242e-07 1.017189e-08) (1.112703e-06 4.939008e-07 -1.556187e-07))
0.793384      	((-1.389411e-03 -7.471161e-05 3.664437e-01) (2.157032e-05 5.681672e-06 4.361646e-02)) ((7.966528e-09 8.906145e-07 1.016945e-08) (1.112937e-06 4.938662e-07 -1.555285e-07))
0.807543      	((-1.389295e-03 -7.453745e-05 3.664437e-01) (2.156528e-05 5.682637e-06 4.361647e-02)) ((7.983240e-09 8.906154e-07 1.016620e-08) (1.113149e-06 4.939203e-07 -1.554632e-07))
0.821703      	((-1.389159e-03 -7.439259e-05 3.664437e-01) (2.156110e-05 5.684161e-06 4.361647e-02)) ((7.998064e-09 8.906253e-07 1.016300e-08) (1.113351e-06 4.940178e-07 -1.554229e-07))
0.835863      	((-1.389031e-03 -7.427423e-05 3.664437e-01) (2.155821e-05 5.686128e-06 4.361647e-02)) ((8.010313e-09 8.906401e-07 1.015958e-08) (1.113553e-06 4.941218e-07 -1.554036e-07))
0.850022      	((-1.388918e-03 -7.417038e-05 3.664437e-01) (2.155675e-05 5.688446e-06 4.361648e-02)) ((8.025408e-09 8.906558e-07 1.015732e-08) (1.113744e-06 4.942063e-07 -1.554031e-07))
0.864182      	((-1.388832e-03 -7.408619e-05 3.664437e-01) (2.155651e-05 5.690768e-06 4.361648e-02)) ((8.041601e-09 8.906706e-07 1.015517e-08) (1.113913e-06 4.942581e-07 -1.554159e-07))
0.878342      	((-1.388780e-03 -7.402190e-05 3.664437e-01) (2.155719e-05 5.692997e-06 4.361648e-02)) ((8.055161e-09 8.906831e-07 1.015345e-08) (1.114073e-06 4.942759e-07 -1.554331e-07))
0.892501      	((-1.388758e-03 -7.396289e-05 3.664437e-01) (2.155840e-05 5.695069e-06 4.361649e-02)) ((8.064696e-09 8.906917e-07 1.015230e-08) (1.114218e-06 4.942647e-07 -1.554499e-07))
0.906661      	((-1.388758e-03 -7.391380e-05 3.664437e-01) (2.155977e-05 5.696867e-06 4.361649e-02)) ((8.075296e-09 8.906971e-07 1.015140e-08) (1.114344e-06 4.942306e-07 -1.554640e-07))
0.920821      	((-1.388772e-03 -7.387434e-05 3.664437e-01) (2.156106e-05 5.698396e-06 4.361649e-02)) ((8.085128e-09 8.907008e-07 1.015111e-08) (1.114459e-06 4.941848e-07 -1.554731e-07))
0.93498       	((-1.388793e-03 -7.383783e-05 3.664436e-01) (2.156209e-05 5.699645e-06 4.361649e-02)) ((8.094237e-09 8.907026e-07 1.015112e-08) (1.114563e-06 4.941389e-07 -1.554765e-07))
0.94914       	((-1.388817e-03 -7.380826e-05 3.664436e-01) (2.156273e-05 5.700629e-06 4.361649e-02)) ((8.104634e-09 8.907035e-07 1.015165e-08) (1.114649e-06 4.941001e-07 -1.554766e-07))
0.9633        	((-1.388834e-03 -7.378640e-05 3.664436e-01) (2.156302e-05 5.701299e-06 4.361649e-02)) ((8.110632e-09 8.907040e-07 1.015185e-08) (1.114722e-06 4.940714e-07 -1.554738e-07))
0.977459      	((-1.388844e-03 -7.376457e-05 3.664436e-01) (2.156303e-05 5.701866e-06 4.361650e-02)) ((8.117393e-09 8.907045e-07 1.015200e-08) (1.114791e-06 4.940544e-07 -1.554688e-07))
0.991619      	((-1.388846e-03 -7.374059e-05 3.664436e-01) (2.156284e-05 5.702419e-06 4.361650e-02)) ((8.123460e-09 8.907057e-07 1.015235e-08) (1.114860e-06 4.940507e-07 -1.554635e-07))
1.005779      	((-1.388843e-03 -7.371662e-05 3.664436e-01) (2.156256e-05 5.702960e-06 4.361650e-02)) ((8.128906e-09 8.907075e-07 1.015265e-08) (1.114927e-06 4.940574e-07 -1.554591e-07))
1.019938      	((-1.388835e-03 -7.369414e-05 3.664436e-01) (2.156229e-05 5.703527e-06 4.361650e-02)) ((8.134388e-09 8.907101e-07 1.015292e-08) (1.114994e-06 4.940705e-07 -1.554563e-07))
1.034098      	((-1.388825e-03 -7.367380e-05 3.664436e-01) (2.156207e-05 5.704107e-06 4.361650e-02)) ((8.138990e-09 8.907129e-07 1.015316e-08) (1.115058e-06 4.940876e-07 -1.554555e-07))
1.048258      	((-1.388815e-03 -7.365607e-05 3.664436e-01) (2.156193e-05 5.704703e-06 4.361650e-02)) ((8.143754e-09 8.907158e-07 1.015340e-08) (1.115121e-06 4.941065e-07 -1.554565e-07))
1.062417      	((-1.388808e-03 -7.364060e-05 3.664437e-01) (2.156185e-05 5.705294e-06 4.361650e-02)) ((8.147765e-09 8.907186e-07 1.015370e-08) (1.115181e-06 4.941252e-07 -1.554588e-07))
1.076577      	((-1.388803e-03 -7.362624e-05 3.664437e-01) (2.156182e-05 5.705867e-06 4.361650e-02)) ((8.151727e-09 8.907211e-07 1.015399e-08) (1.115239e-06 4.941431e-07 -1.554621e-07))
1.090737      	((-1.388800e-03 -7.361297e-05 3.664437e-01) (2.156182e-05 5.706413e-06 4.361650e-02)) ((8.155452e-09 8.907233e-07 1.015432e-08) (1.115295e-06 4.941600e-07 -1.554659e-07))
1.104897      	((-1.388801e-03 -7.360065e-05 3.664437e-01) (2.156181e-05 5.706921e-06 4.361650e-02)) ((8.158960e-09 8.907252e-07 1.015465e-08) (1.115349e-06 4.941760e-07 -1.554695e-07))
1.119056      	((-1.388803e-03 -7.358926e-05 3.664437e-01) (2.156179e-05 5.707387e-06 4.361650e-02)) ((8.162334e-09 8.907268e-07 1.015501e-08) (1.115400e-06 4.941916e-07 -1.554729e-07))
1.133216      	((-1.388806e-03 -7.357857e-05 3.664437e-01) (2.156173e-05 5.707811e-06 4.361650e-02)) ((8.165461e-09 8.907281e-07 1.015535e-08) (1.115449e-06 4.942073e-07 -1.554758e-07))
1.147376      	((-1.388810e-03 -7.356850e-05 3.664437e-01) (2.156163e-05 5.708197e-06 4.361650e-02)) ((8.168468e-09 8.907293e-07 1.015570e-08) (1.115496e-06 4.942234e-07 -1.554783e-07))
1.161535      	((-1.388813e-03 -7.355880e-05 3.664437e-01) (2.156150e-05 5.708553e-06 4.361650e-02)) ((8.171268e-09 8.907305e-07 1.015602e-08) (1.115541e-06 4.942400e-07 -1.554804e-07))
1.175695      	((-1.388816e-03 -7.354938e-05 3.664437e-01) (2.156135e-05 5.708882e-06 4.361650e-02)) ((8.173912e-09 8.907316e-07 1.015632e-08) (1.115584e-06 4.942572e-07 -1.554823e-07))
1.189855      	((-1.388818e-03 -7.354020e-05 3.664437e-01) (2.156118e-05 5.709193e-06 4.361650e-02)) ((8.176384e-09 8.907328e-07 1.015659e-08) (1.115625e-06 4.942748e-07 -1.554842e-07))
1.204014      	((-1.388819e-03 -7.353125e-05 3.664437e-01) (2.156101e-05 5.709488e-06 4.361650e-02)) ((8.178693e-09 8.907339e-07 1.015683e-08) (1.115664e-06 4.942925e-07 -1.554860e-07))
1.218174      	((-1.388820e-03 -7.352260e-05 3.664437e-01) (2.156085e-05 5.709770e-06 4.361650e-02)) ((8.180849e-09 8.907351e-07 1.015705e-08) (1.115701e-06 4.943099e-07 -1.554880e-07))
1.232334      	((-1.388821e-03 -7.351429e-05 3.664437e-01) (2.156069e-05 5.710042e-06 4.361650e-02)) ((8.182862e-09 8.907362e-07 1.015724e-08) (1.115736e-06 4.943270e-07 -1.554900e-07))
1.246493      	((-1.388822e-03 -7.350639e-05 3.664437e-01) (2.156054e-05 5.710303e-06 4.361650e-02)) ((8.184740e-09 8.907372e-07 1.015741e-08) (1.115770e-06 4.943434e-07 -1.554922e-07))
1.260653      	((-1.388823e-03 -7.349892e-05 3.664437e-01) (2.156041e-05 5.710554e-06 4.361650e-02)) ((8.186499e-09 8.907382e-07 1.015756e-08) (1.115802e-06 4.943589e-07 -1.554945e-07))
1.274813      	((-1.388823e-03 -7.349190e-05 3.664437e-01) (2.156029e-05 5.710793e-06 4.361650e-02)) ((8.188149e-09 8.907391e-07 1.015770e-08) (1.115833e-06 4.943736e-07 -1.554967e-07))
1.288972      	((-1.388824e-03 -7.348528e-05 3.664437e-01) (2.156018e-05 5.711020e-06 4.361650e-02)) ((8.189697e-09 8.907399e-07 1.015784e-08) (1.115862e-06 4.943874e-07 -1.554990e-07))
1.303132      	((-1.388826e-03 -7.347906e-05 3.664437e-01) (2.156007e-05 5.711236e-06 4.361650e-02)) ((8.191157e-09 8.907406e-07 1.015797e-08) (1.115889e-06 4.944004e-07 -1.555012e-07))
1.317292      	((-1.388827e-03 -7.347318e-05 3.664437e-01) (2.155998e-05 5.711439e-06 4.361650e-02)) ((8.192525e-09 8.907413e-07 1.015809e-08) (1.115915e-06 4.944126e-07 -1.555033e-07))
1.331451      	((-1.388828e-03 -7.346761e-05 3.664437e-01) (2.155988e-05 5.711629e-06 4.361650e-02)) ((8.193812e-09 8.907418e-07 1.015820e-08) (1.115940e-06 4.944241e-07 -1.555053e-07))
1.345611      	((-1.388829e-03 -7.346231e-05 3.664437e-01) (2.155979e-05 5.711809e-06 4.361650e-02)) ((8.195018e-09 8.907424e-07 1.015831e-08) (1.115964e-06 4.944349e-07 -1.555072e-07))
1.359771      	((-1.388830e-03 -7.345724e-05 3.664437e-01) (2.155970e-05 5.711977e-06 4.361650e-02)) ((8.196146e-09 8.907428e-07 1.015841e-08) (1.115986e-06 4.944452e-07 -1.555090e-07))
1.37393       	((-1.388831e-03 -7.345238e-05 3.664437e-01) (2.155961e-05 5.712135e-06 4.361650e-02)) ((8.197200e-09 8.907432e-07 1.015850e-08) (1.116007e-06 4.944549e-07 -1.555107e-07))
1.38809       	((-1.388832e-03 -7.344774e-05 3.664437e-01) (2.155953e-05 5.712284e-06 4.361650e-02)) ((8.198182e-09 8.907436e-07 1.015859e-08) (1.116027e-06 4.944641e-07 -1.555124e-07))
1.40225       	((-1.388833e-03 -7.344330e-05 3.664437e-01) (2.155945e-05 5.712425e-06 4.361650e-02)) ((8.199097e-09 8.907439e-07 1.015867e-08) (1.116046e-06 4.944729e-07 -1.555140e-07))
1.416409      	((-1.388834e-03 -7.343907e-05 3.664437e-01) (2.155938e-05 5.712557e-06 4.361650e-02)) ((8.199946e-09 8.907442e-07 1.015875e-08) (1.116064e-06 4.944811e-07 -1.555155e-07))
1.430569      	((-1.388835e-03 -7.343504e-05 3.664437e-01) (2.155930e-05 5.712682e-06 4.361650e-02)) ((8.200735e-09 8.907445e-07 1.015881e-08) (1.116081e-06 4.944890e-07 -1.555171e-07))
1.444729      	((-1.388835e-03 -7.343122e-05 3.664437e-01) (2.155924e-05 5.712800e-06 4.361650e-02)) ((8.201467e-09 8.907447e-07 1.015888e-08) (1.116096e-06 4.944964e-07 -1.555185e-07))
1.458888      	((-1.388836e-03 -7.342759e-05 3.664437e-01) (2.155917e-05 5.712911e-06 4.361650e-02)) ((8.202147e-09 8.907449e-07 1.015894e-08) (1.116111e-06 4.945034e-07 -1.555200e-07))
1.473048      	((-1.388836e-03 -7.342415e-05 3.664437e-01) (2.155911e-05 5.713015e-06 4.361650e-02)) ((8.202779e-09 8.907450e-07 1.015899e-08) (1.116125e-06 4.945100e-07 -1.555213e-07))
1.487208      	((-1.388837e-03 -7.342088e-05 3.664437e-01) (2.155905e-05 5.713114e-06 4.361650e-02)) ((8.203365e-09 8.907452e-07 1.015904e-08) (1.116138e-06 4.945162e-07 -1.555227e-07))
1.501367      	((-1.388838e-03 -7.341777e-05 3.664437e-01) (2.155900e-05 5.713206e-06 4.361650e-02)) ((8.203909e-09 8.907453e-07 1.015909e-08) (1.116150e-06 4.945221e-07 -1.555239e-07))
1.515527      	((-1.388838e-03 -7.341481e-05 3.664437e-01) (2.155895e-05 5.713292e-06 4.361650e-02)) ((8.204413e-09 8.907453e-07 1.015914e-08) (1.116162e-06 4.945276e-07 -1.555251e-07))
1.529687      	((-1.388839e-03 -7.341200e-05 3.664437e-01) (2.155890e-05 5.713372e-06 4.361650e-02)) ((8.204878e-09 8.907454e-07 1.015918e-08) (1.116173e-06 4.945328e-07 -1.555263e-07))
1.543846      	((-1.388839e-03 -7.340931e-05 3.664437e-01) (2.155885e-05 5.713447e-06 4.361650e-02)) ((8.205308e-09 8.907454e-07 1.015922e-08) (1.116183e-06 4.945377e-07 -1.555274e-07))
1.558006      	((-1.388840e-03 -7.340676e-05 3.664437e-01) (2.155880e-05 5.713517e-06 4.361650e-02)) ((8.205704e-09 8.907454e-07 1.015926e-08) (1.116193e-06 4.945424e-07 -1.555285e-07))
1.572166      	((-1.388840e-03 -7.340432e-05 3.664437e-01) (2.155876e-05 5.713582e-06 4.361650e-02)) ((8.206068e-09 8.907454e-07 1.015929e-08) (1.116201e-06 4.945468e-07 -1.555295e-07))
1.586326      	((-1.388840e-03 -7.340199e-05 3.664437e-01) (2.155872e-05 5.713643e-06 4.361650e-02)) ((8.206402e-09 8.907454e-07 1.015932e-08) (1.116210e-06 4.945510e-07 -1.555305e-07))
1.600485      	((-1.388841e-03 -7.339978e-05 3.664437e-01) (2.155868e-05 5.713699e-06 4.361650e-02)) ((8.206708e-09 8.907454e-07 1.015935e-08) (1.116217e-06 4.945550e-07 -1.555315e-07))
1.614645      	((-1.388841e-03 -7.339767e-05 3.664437e-01) (2.155864e-05 5.713751e-06 4.361650e-02)) ((8.206987e-09 8.907453e-07 1.015938e-08) (1.116225e-06 4.945587e-07 -1.555324e-07))
1.628805      	((-1.388841e-03 -7.339566e-05 3.664437e-01) (2.155860e-05 5.713799e-06 4.361650e-02)) ((8.207242e-09 8.907452e-07 1.015940e-08) (1.116231e-06 4.945623e-07 -1.555333e-07))
1.642964      	((-1.388842e-03 -7.339374e-05 3.664437e-01) (2.155857e-05 5.713843e-06 4.361650e-02)) ((8.207474e-09 8.907451e-07 1.015942e-08) (1.116237e-06 4.945656e-07 -1.555342e-07))
1.657124      	((-1.388842e-03 -7.339191e-05 3.664437e-01) (2.155853e-05 5.713884e-06 4.361650e-02)) ((8.207685e-09 8.907451e-07 1.015944e-08) (1.116243e-06 4.945688e-07 -1.555350e-07))
1.671284      	((-1.388842e-03 -7.339017e-05 3.664437e-01) (2.155850e-05 5.713921e-06 4.361650e-02)) ((8.207876e-09 8.907450e-07 1.015946e-08) (1.116248e-06 4.945718e-07 -1.555358e-07))
1.685443      	((-1.388843e-03 -7.338851e-05 3.664437e-01) (2.155847e-05 5.713956e-06 4.361650e-02)) ((8.208049e-09 8.907448e-07 1.015947e-08) (1.116253e-06 4.945747e-07 -1.555366e-07))
1.699603      	((-1.388843e-03 -7.338693e-05 3.664437e-01) (2.155844e-05 5.713987e-06 4.361650e-02)) ((8.208204e-09 8.907447e-07 1.015949e-08) (1.116258e-06 4.945774e-07 -1.555373e-07))
1.713763      	((-1.388843e-03 -7.338541e-05 3.664437e-01) (2.155841e-05 5.714015e-06 4.361650e-02)) ((8.208343e-09 8.907446e-07 1.015950e-08) (1.116262e-06 4.945800e-07 -1.555380e-07))
1.727922      	((-1.388844e-03 -7.338397e-05 3.664437e-01) (2.155838e-05 5.714041e-06 4.361650e-02)) ((8.208467e-09 8.907444e-07 1.015951e-08) (1.116266e-06 4.945824e-07 -1.555387e-07))
1.742082      	((-1.388844e-03 -7.338258e-05 3.664437e-01) (2.155835e-05 5.714064e-06 4.361650e-02)) ((8.208578e-09 8.907443e-07 1.015953e-08) (1.116269e-06 4.945847e-07 -1.555394e-07))
1.756242      	((-1.388844e-03 -7.338127e-05 3.664437e-01) (2.155833e-05 5.714085e-06 4.361650e-02)) ((8.208675e-09 8.907441e-07 1.015954e-08) (1.116272e-06 4.945869e-07 -1.555400e-07))
1.770401      	((-1.388844e-03 -7.338000e-05 3.664437e-01) (2.155830e-05 5.714103e-06 4.361650e-02)) ((8.208759e-09 8.907440e-07 1.015954e-08) (1.116275e-06 4.945890e-07 -1.555406e-07))
1.784561      	((-1.388844e-03 -7.337880e-05 3.664437e-01) (2.155828e-05 5.714119e-06 4.361650e-02)) ((8.208833e-09 8.907438e-07 1.015955e-08) (1.116278e-06 4.945909e-07 -1.555412e-07))
1.798721      	((-1.388845e-03 -7.337765e-05 3.664437e-01) (2.155825e-05 5.714134e-06 4.361650e-02)) ((8.208896e-09 8.907436e-07 1.015956e-08) (1.116280e-06 4.945928e-07 -1.555418e-07))
1.81288       	((-1.388845e-03 -7.337654e-05 3.664437e-01) (2.155823e-05 5.714146e-06 4.361650e-02)) ((8.208950e-09 8.907434e-07 1.015956e-08) (1.116282e-06 4.945946e-07 -1.555423e-07))
1.82704       	((-1.388845e-03 -7.337549e-05 3.664437e-01) (2.155821e-05 5.714156e-06 4.361650e-02)) ((8.208994e-09 8.907433e-07 1.015957e-08) (1.116284e-06 4.945963e-07 -1.555429e-07))
1.8412        	((-1.388845e-03 -7.337448e-05 3.664437e-01) (2.155819e-05 5.714165e-06 4.361650e-02)) ((8.209031e-09 8.907431e-07 1.015957e-08) (1.116286e-06 4.945979e-07 -1.555434e-07))
1.855359      	((-1.388845e-03 -7.337352e-05 3.664437e-01) (2.155817e-05 5.714172e-06 4.361650e-02)) ((8.209059e-09 8.907429e-07 1.015958e-08) (1.116287e-06 4.945995e-07 -1.555439e-07))
1.869519      	((-1.388845e-03 -7.337259e-05 3.664437e-01) (2.155815e-05 5.714178e-06 4.361650e-02)) ((8.209081e-09 8.907427e-07 1.015958e-08) (1.116288e-06 4.946009e-07 -1.555444e-07))
1.883679      	((-1.388846e-03 -7.337171e-05 3.664437e-01) (2.155812e-05 5.714182e-06 4.361650e-02)) ((8.209096e-09 8.907425e-07 1.015958e-08) (1.116290e-06 4.946023e-07 -1.555448e-07))
1.897838      	((-1.388846e-03 -7.337086e-05 3.664437e-01) (2.155811e-05 5.714185e-06 4.361650e-02)) ((8.209106e-09 8.907423e-07 1.015958e-08) (1.116290e-06 4.946036e-07 -1.555453e-07))
1.911998      	((-1.388846e-03 -7.337005e-05 3.664437e-01) (2.155809e-05 5.714187e-06 4.361650e-02)) ((8.209110e-09 8.907421e-07 1.015958e-08) (1.116291e-06 4.946049e-07 -1.555457e-07))
1.926158      	((-1.388846e-03 -7.336927e-05 3.664437e-01) (2.155807e-05 5.714187e-06 4.361650e-02)) ((8.209109e-09 8.907419e-07 1.015959e-08) (1.116292e-06 4.946061e-07 -1.555461e-07))
1.940317      	((-1.388846e-03 -7.336853e-05 3.664437e-01) (2.155805e-05 5.714187e-06 4.361650e-02)) ((8.209104e-09 8.907417e-07 1.015959e-08) (1.116292e-06 4.946072e-07 -1.555465e-07))
1.954477      	((-1.388846e-03 -7.336781e-05 3.664437e-01) (2.155803e-05 5.714185e-06 4.361650e-02)) ((8.209095e-09 8.907415e-07 1.015959e-08) (1.116293e-06 4.946083e-07 -1.555469e-07))
1.968637      	((-1.388846e-03 -7.336713e-05 3.664437e-01) (2.155801e-05 5.714183e-06 4.361650e-02)) ((8.209082e-09 8.907413e-07 1.015958e-08) (1.116293e-06 4.946094e-07 -1.555473e-07))
1.982796      	((-1.388847e-03 -7.336647e-05 3.664437e-01) (2.155800e-05 5.714179e-06 4.361650e-02)) ((8.209066e-09 8.907411e-07 1.015958e-08) (1.116293e-06 4.946104e-07 -1.555477e-07))
1.996956      	((-1.388847e-03 -7.336584e-05 3.664437e-01) (2.155798e-05 5.714175e-06 4.361650e-02)) ((8.209046e-09 8.907408e-07 1.015958e-08) (1.116293e-06 4.946114e-07 -1.555481e-07))
2.011116      	((-1.388847e-03 -7.336523e-05 3.664437e-01) (2.155796e-05 5.714170e-06 4.361650e-02)) ((8.209024e-09 8.907406e-07 1.015958e-08) (1.116293e-06 4.946123e-07 -1.555484e-07))
2.025275      	((-1.388847e-03 -7.336465e-05 3.664437e-01) (2.155795e-05 5.714165e-06 4.361650e-02)) ((8.209000e-09 8.907404e-07 1.015958e-08) (1.116293e-06 4.946132e-07 -1.555488e-07))
2.039435      	((-1.388847e-03 -7.336409e-05 3.664437e-01) (2.155793e-05 5.714158e-06 4.361650e-02)) ((8.208974e-09 8.907402e-07 1.015958e-08) (1.116293e-06 4.946140e-07 -1.555491e-07))
2.053595      	((-1.388847e-03 -7.336356e-05 3.664437e-01) (2.155792e-05 5.714151e-06 4.361650e-02)) ((8.208945e-09 8.907400e-07 1.015958e-08) (1.116292e-06 4.946148e-07 -1.555494e-07))
2.067755      	((-1.388847e-03 -7.336304e-05 3.664437e-01) (2.155790e-05 5.714144e-06 4.361650e-02)) ((8.208916e-09 8.907398e-07 1.015957e-08) (1.116292e-06 4.946156e-07 -1.555497e-07))
2.081914      	((-1.388847e-03 -7.336255e-05 3.664437e-01) (2.155789e-05 5.714136e-06 4.361650e-02)) ((8.208884e-09 8.907396e-07 1.015957e-08) (1.116291e-06 4.946163e-07 -1.555500e-07))
2.096074      	((-1.388847e-03 -7.336207e-05 3.664437e-01) (2.155787e-05 5.714128e-06 4.361650e-02)) ((8.208852e-09 8.907394e-07 1.015957e-08) (1.116291e-06 4.946170e-07 -1.555503e-07))
2.110234      	((-1.388847e-03 -7.336162e-05 3.664437e-01) (2.155786e-05 5.714119e-06 4.361650e-02)) ((8.208819e-09 8.907391e-07 1.015956e-08) (1.116290e-06 4.946177e-07 -1.555506e-07))
2.124393      	((-1.388847e-03 -7.336118e-05 3.664437e-01) (2.155784e-05 5.714110e-06 4.361650e-02)) ((8.208785e-09 8.907389e-07 1.015956e-08) (1.116290e-06 4.946184e-07 -1.555509e-07))
2.138553      	((-1.388847e-03 -7.336075e-05 3.664437e-01) (2.155783e-05 5.714100e-06 4.361650e-02)) ((8.208750e-09 8.907387e-07 1.015956e-08) (1.116289e-06 4.946190e-07 -1.555512e-07))
2.152713      	((-1.388847e-03 -7.336034e-05 3.664437e-01) (2.155782e-05 5.714090e-06 4.361650e-02)) ((8.208715e-09 8.907385e-07 1.015956e-08) (1.116289e-06 4.946196e-07 -1.555515e-07))
2.166872      	((-1.388847e-03 -7.335995e-05 3.664437e-01) (2.155780e-05 5.714080e-06 4.361650e-02)) ((8.208679e-09 8.907383e-07 1.015955e-08) (1.116288e-06 4.946202e-07 -1.555517e-07))
2.181032      	((-1.388848e-03 -7.335958e-05 3.664437e-01) (2.155779e-05 5.714070e-06 4.361650e-02)) ((8.208643e-09 8.907381e-07 1.015955e-08) (1.116287e-06 4.946208e-07 -1.555520e-07))
2.195192      	((-1.388848e-03 -7.335921e-05 3.664437e-01) (2.155778e-05 5.714059e-06 4.361650e-02)) ((8.208607e-09 8.907379e-07 1.015954e-08) (1.116286e-06 4.946214e-07 -1.555522e-07))
2.209351      	((-1.388848e-03 -7.335886e-05 3.664437e-01) (2.155776e-05 5.714049e-06 4.361650e-02)) ((8.208571e-09 8.907377e-07 1.015954e-08) (1.116285e-06 4.946219e-07 -1.555525e-07))
2.223511      	((-1.388848e-03 -7.335852e-05 3.664437e-01) (2.155775e-05 5.714038e-06 4.361650e-02)) ((8.208535e-09 8.907374e-07 1.015954e-08) (1.116285e-06 4.946224e-07 -1.555527e-07))