# Forces      
# CofR        : (0.000000e+00 0.000000e+00 0.000000e+00)
# Time        forces(pressure viscous)	moments(pressure viscous)
0             	((0.000000e+00 0.000000e+00 0.000000e+00) (0.000000e+00 0.000000e+00 0.000000e+00)) ((0.000000e+00 0.000000e+00 0.000000e+00) (0.000000e+00 0.000000e+00 0.000000e+00))
0.012         	((3.822257e-10 -7.236809e-06 -1.172652e-06) (1.199333e-12 -1.664524e-05 -1.470156e-10)) ((-1.060123e-09 -3.873881e-12 9.715506e-12) (-1.107667e-06 -1.326672e-13 -1.774894e-12))
0.0264        	((4.533158e-09 -9.726180e-06 -2.484663e-06) (9.572311e-12 -1.524749e-05 -4.666234e-10)) ((4.757448e-10 -8.421636e-12 4.348779e-12) (-1.015756e-06 -3.799638e-13 -1.793600e-12))
0.04368       	((-3.027921e-09 -6.576559e-06 -1.350577e-06) (9.525208e-12 -1.380615e-05 -1.084915e-09)) ((3.503739e-10 -4.650410e-12 4.907235e-12) (-9.212644e-07 -1.629178e-13 -3.472014e-12))
0.064416      	((3.832423e-09 -7.434956e-06 -1.749013e-06) (1.168489e-11 -1.235400e-05 -2.054582e-09)) ((6.965147e-10 -6.215207e-12 3.137035e-12) (-8.264004e-07 -6.233990e-14 -1.746437e-12))
0.0892992     	((-1.353361e-09 -5.489598e-06 -1.171542e-06) (1.075011e-11 -1.093352e-05 -3.384228e-09)) ((4.942406e-10 -4.308778e-12 2.051859e-12) (-7.339401e-07 4.512316e-14 3.404045e-12))
0.119159      	((1.614492e-09 -5.627525e-06 -1.275067e-06) (-1.445955e-11 -9.590676e-06 -4.988930e-09)) ((6.054263e-10 -4.619924e-12 1.086454e-12) (-6.469632e-07 1.038095e-13 6.095570e-12))
0.154991      	((-4.384302e-10 -4.249463e-06 -9.171956e-07) (-4.614310e-11 -8.367792e-06 -6.935177e-09)) ((4.216074e-10 -3.664014e-12 4.629675e-13) (-5.673641e-07 3.068300e-13 7.462800e-12))
0.197989      	((5.959975e-10 -4.198206e-06 -9.303232e-07) (-7.663180e-11 -7.287017e-06 -9.256555e-09)) ((4.790536e-10 -3.608743e-12 7.445576e-13) (-4.969493e-07 7.823185e-13 8.264780e-12))
0.249587      	((2.910893e-10 -3.272563e-06 -7.289149e-07) (-1.317571e-10 -6.362940e-06 -1.178543e-08)) ((3.439867e-10 -3.032771e-12 6.817089e-13) (-4.363277e-07 4.975525e-13 7.967689e-12))
0.311504      	((3.184994e-10 -3.178244e-06 -7.143448e-07) (-9.153865e-11 -5.591739e-06 -1.413405e-08)) ((3.819187e-10 -2.944793e-12 1.186238e-12) (-3.854493e-07 -8.048192e-13 6.814240e-12))
0.385805      	((5.317694e-10 -2.569725e-06 -6.004758e-07) (-9.532143e-11 -4.950294e-06 -1.648762e-08)) ((2.867023e-10 -2.573519e-12 8.231580e-13) (-3.430632e-07 -2.118690e-12 4.351167e-12))
0.474966      	((4.280029e-10 -2.484625e-06 -5.765176e-07) (-8.598461e-11 -4.414854e-06 -1.794780e-08)) ((3.133678e-10 -2.586368e-12 1.034192e-12) (-3.077012e-07 -2.828085e-12 2.128156e-12))
0.581959      	((5.094079e-10 -2.074217e-06 -5.023052e-07) (-6.360346e-11 -3.960645e-06 -1.956541e-08)) ((2.451030e-10 -2.176777e-12 7.016618e-13) (-2.776807e-07 -2.411254e-12 1.293706e-12))
0.710351      	((8.324401e-10 -1.996953e-06 -4.780572e-07) (-4.294008e-11 -3.568894e-06 -1.996296e-08)) ((2.643311e-10 -2.213445e-12 9.303021e-13) (-2.518450e-07 -2.945755e-12 -7.404982e-13))
0.864421      	((5.790991e-10 -1.710451e-06 -4.283214e-07) (-3.128762e-11 -3.224732e-06 -2.122947e-08)) ((2.197374e-10 -2.007129e-12 5.920453e-13) (-2.291893e-07 -3.072914e-12 -1.045774e-12))
1.049306      	((7.399551e-10 -1.623653e-06 -4.104412e-07) (-6.803040e-11 -2.918710e-06 -2.123241e-08)) ((2.310613e-10 -1.959350e-12 4.998082e-13) (-2.090940e-07 -5.225588e-12 5.245771e-13))
1.271167      	((5.503769e-10 -1.409999e-06 -3.757290e-07) (-5.499020e-11 -2.643971e-06 -2.277221e-08)) ((2.020554e-10 -1.766130e-12 -6.652467e-14) (-1.910936e-07 -6.745713e-12 2.431402e-12))
1.5374        	((7.701956e-10 -1.316366e-06 -3.622665e-07) (2.522557e-12 -2.396314e-06 -2.376106e-08)) ((2.043164e-10 -1.942458e-12 -1.596275e-13) (-1.749030e-07 -5.313461e-12 3.553010e-12))
1.85688       	((8.443249e-10 -1.156646e-06 -3.398549e-07) (1.235371e-11 -2.173289e-06 -2.503961e-08)) ((1.861076e-10 -1.240309e-12 -2.632246e-13) (-1.603568e-07 -3.493022e-12 4.249931e-12))
2.240256      	((4.444320e-10 -1.068093e-06 -3.296143e-07) (2.334592e-11 -1.973961e-06 -2.633116e-08)) ((1.814849e-10 -2.042062e-12 -2.650135e-13) (-1.473717e-07 1.232353e-12 4.423864e-12))
2.700307      	((5.117766e-10 -9.486702e-07 -3.169752e-07) (4.102293e-11 -1.797777e-06 -2.710442e-08)) ((1.680431e-10 -1.441127e-12 -3.264625e-13) (-1.359256e-07 5.575323e-12 3.169030e-12))
3.252369      	((1.819998e-10 -8.770230e-07 -3.105141e-07) (3.240814e-11 -1.643026e-06 -2.843520e-08)) ((1.634869e-10 -2.164074e-12 -2.890106e-13) (-1.258800e-07 8.308029e-12 8.162748e-13))
3.914842      	((4.340665e-10 -7.902463e-07 -3.021207e-07) (1.847242e-11 -1.507582e-06 -2.983434e-08)) ((1.551638e-10 -1.960512e-12 -2.745218e-13) (-1.171205e-07 8.051274e-12 -2.614844e-12))
4.709811      	((2.447451e-10 -7.316886e-07 -3.000719e-07) (3.538487e-13 -1.388123e-06 -3.160040e-08)) ((1.521514e-10 -2.429991e-12 -2.659170e-13) (-1.094238e-07 8.306966e-12 -5.341082e-12))
5.663773      	((3.937382e-10 -6.638993e-07 -2.957214e-07) (4.451523e-12 -1.281702e-06 -3.335590e-08)) ((1.468732e-10 -2.272109e-12 -3.226334e-13) (-1.025889e-07 8.003680e-12 -7.316066e-12))
6.808528      	((4.933077e-10 -6.146762e-07 -2.942623e-07) (5.769322e-11 -1.186059e-06 -3.496691e-08)) ((1.439654e-10 -2.480202e-12 -3.701371e-13) (-9.645607e-08 7.521068e-12 -8.653230e-12))
8.182233      	((6.040980e-10 -5.618794e-07 -2.912236e-07) (9.935933e-11 -1.099183e-06 -3.665185e-08)) ((1.402765e-10 -2.370003e-12 -3.635282e-13) (-9.090836e-08 7.830968e-12 -8.796684e-12))
9.83068       	((4.625069e-10 -5.206517e-07 -2.904948e-07) (1.147039e-10 -1.019902e-06 -3.812295e-08)) ((1.381124e-10 -2.513891e-12 -3.745785e-13) (-8.586512e-08 1.011609e-11 -7.523989e-12))
11.808816     	((5.498185e-10 -4.782777e-07 -2.914977e-07) (1.318293e-10 -9.471229e-07 -3.923985e-08)) ((1.354891e-10 -2.517984e-12 -3.519599e-13) (-8.126263e-08 9.728804e-12 -5.506514e-12))
14.182579     	((5.643671e-10 -4.439117e-07 -2.957141e-07) (1.654437e-10 -8.800188e-07 -4.010189e-08)) ((1.336933e-10 -2.634294e-12 -3.409041e-13) (-7.705211e-08 7.741320e-12 -3.616077e-12))
17.031095     	((6.486007e-10 -4.092238e-07 -3.011149e-07) (1.903915e-10 -8.180548e-07 -4.084615e-08)) ((1.319368e-10 -2.644845e-12 -3.484892e-13) (-7.320109e-08 6.162504e-12 -2.328089e-12))
20.449314     	((6.664402e-10 -3.795700e-07 -3.095181e-07) (2.028327e-10 -7.610916e-07 -4.155096e-08)) ((1.306521e-10 -2.739837e-12 -3.619962e-13) (-6.970332e-08 5.896311e-12 -1.042285e-12))
24.551176     	((6.671545e-10 -3.519880e-07 -3.175454e-07) (1.975306e-10 -7.090938e-07 -4.238922e-08)) ((1.295960e-10 -2.798698e-12 -3.771814e-13) (-6.654767e-08 5.602553e-12 2.500165e-14))
29.473411     	((6.279191e-10 -3.290015e-07 -3.257172e-07) (1.881574e-10 -6.619356e-07 -4.350319e-08)) ((1.288902e-10 -2.890027e-12 -3.915653e-13) (-6.371774e-08 5.039755e-12 7.830109e-13))
35.380094     	((5.830523e-10 -3.083563e-07 -3.340197e-07) (1.799178e-10 -6.193880e-07 -4.507115e-08)) ((1.283260e-10 -2.954722e-12 -3.989704e-13) (-6.119220e-08 4.477083e-12 1.122044e-12))
42.468112     	((5.517163e-10 -2.916123e-07 -3.428022e-07) (1.807535e-10 -5.810891e-07 -4.705720e-08)) ((1.278878e-10 -3.036440e-12 -4.040930e-13) (-5.894540e-08 3.850465e-12 1.002197e-12))
50.973735     	((5.218733e-10 -2.771570e-07 -3.523502e-07) (1.766726e-10 -5.466484e-07 -4.953129e-08)) ((1.275484e-10 -3.102857e-12 -4.069907e-13) (-5.695501e-08 2.641738e-12 2.313774e-13))
61.180482     	((4.673085e-10 -2.656584e-07 -3.615108e-07) (1.743891e-10 -5.158518e-07 -5.247245e-08)) ((1.273282e-10 -3.169723e-12 -4.160404e-13) (-5.520007e-08 1.256539e-12 -8.141832e-13))
73.428578     	((4.476092e-10 -2.564721e-07 -3.712914e-07) (1.743300e-10 -4.884830e-07 -5.601442e-08)) ((1.272152e-10 -3.211256e-12 -4.200897e-13) (-5.366401e-08 -1.235548e-13 -1.863635e-12))
88.126294     	((3.818015e-10 -2.506987e-07 -3.814847e-07) (1.663610e-10 -4.644465e-07 -6.007480e-08)) ((1.272027e-10 -3.247460e-12 -4.220868e-13) (-5.233118e-08 -1.200313e-12 -2.411273e-12))
105.763553    	((3.342347e-10 -2.474170e-07 -3.923550e-07) (1.566865e-10 -4.436601e-07 -6.467822e-08)) ((1.272721e-10 -3.287580e-12 -4.229450e-13) (-5.118590e-08 -2.170372e-12 -2.705301e-12))
126.863219    	((2.921604e-10 -2.465278e-07 -4.037961e-07) (1.531220e-10 -4.260702e-07 -6.978738e-08)) ((1.273702e-10 -3.331261e-12 -4.181856e-13) (-5.021513e-08 -3.078791e-12 -3.166689e-12))
151.426032    	((2.733485e-10 -2.477585e-07 -4.150904e-07) (1.340502e-10 -4.117763e-07 -7.518891e-08)) ((1.275033e-10 -3.383074e-12 -4.087343e-13) (-4.941268e-08 -3.890839e-12 -3.273459e-12))
179.453596    	((2.395159e-10 -2.509723e-07 -4.260965e-07) (1.094953e-10 -4.007179e-07 -8.064847e-08)) ((1.276213e-10 -3.435503e-12 -4.038915e-13) (-4.876612e-08 -4.331427e-12 -3.228999e-12))
210.947691    	((2.423406e-10 -2.556367e-07 -4.363624e-07) (8.543172e-11 -3.927066e-07 -8.585266e-08)) ((1.277271e-10 -3.486882e-12 -3.998852e-13) (-4.826178e-08 -4.397255e-12 -3.243147e-12))
245.628338    	((2.618008e-10 -2.611341e-07 -4.455699e-07) (6.636881e-11 -3.874423e-07 -9.038655e-08)) ((1.278315e-10 -3.532901e-12 -3.956329e-13) (-4.788630e-08 -4.403421e-12 -3.383931e-12))
280.328049    	((2.806813e-10 -2.656298e-07 -4.529516e-07) (5.579350e-11 -3.844463e-07 -9.386882e-08)) ((1.279641e-10 -3.570064e-12 -3.909739e-13) (-4.762780e-08 -4.664347e-12 -3.548467e-12))
315.047096    	((2.941060e-10 -2.684026e-07 -4.589809e-07) (4.754475e-11 -3.829130e-07 -9.632320e-08)) ((1.280579e-10 -3.603479e-12 -3.860813e-13) (-4.745412e-08 -5.161617e-12 -3.688150e-12))
349.780059    	((2.976593e-10 -2.695108e-07 -4.637768e-07) (4.009726e-11 -3.821685e-07 -9.789109e-08)) ((1.281049e-10 -3.626537e-12 -3.812123e-13) (-4.733777e-08 -5.678312e-12 -3.856949e-12))
384.524962    	((3.006346e-10 -2.697222e-07 -4.674669e-07) (3.489099e-11 -3.817305e-07 -9.885422e-08)) ((1.281220e-10 -3.641328e-12 -3.781598e-13) (-4.725602e-08 -5.996656e-12 -3.995438e-12))
419.279963    	((3.031339e-10 -2.695182e-07 -4.705392e-07) (3.173202e-11 -3.813715e-07 -9.946338e-08)) ((1.281279e-10 -3.651461e-12 -3.768407e-13) (-4.719596e-08 -6.198296e-12 -4.074317e-12))
454.04327     	((3.045688e-10 -2.693125e-07 -4.731632e-07) (3.046587e-11 -3.810197e-07 -9.989460e-08)) ((1.281298e-10 -3.659320e-12 -3.760902e-13) (-4.715022e-08 -6.333973e-12 -4.086624e-12))
488.813292    	((3.079234e-10 -2.691548e-07 -4.754736e-07) (3.066322e-11 -3.806851e-07 -1.002539e-07)) ((1.281334e-10 -3.666491e-12 -3.757331e-13) (-4.711524e-08 -6.508434e-12 -4.063522e-12))
523.588933    	((3.120383e-10 -2.689576e-07 -4.775602e-07) (3.147783e-11 -3.803819e-07 -1.006013e-07)) ((1.281347e-10 -3.672828e-12 -3.760143e-13) (-4.708820e-08 -6.706364e-12 -4.007379e-12))
558.369357    	((3.162188e-10 -2.688222e-07 -4.794722e-07) (3.240514e-11 -3.801262e-07 -1.009541e-07)) ((1.281352e-10 -3.678764e-12 -3.767157e-13) (-4.706714e-08 -6.894207e-12 -3.957164e-12))
593.153837    	((3.192896e-10 -2.687728e-07 -4.812271e-07) (3.378372e-11 -3.799318e-07 -1.013095e-07)) ((1.281364e-10 -3.684570e-12 -3.771181e-13) (-4.705089e-08 -7.076969e-12 -3.937363e-12))
627.941988    	((3.213369e-10 -2.687877e-07 -4.828396e-07) (3.539661e-11 -3.798060e-07 -1.016565e-07)) ((1.281390e-10 -3.689881e-12 -3.773209e-13) (-4.703889e-08 -7.236577e-12 -3.943601e-12))
662.733527    	((3.213963e-10 -2.688170e-07 -4.843138e-07) (3.667181e-11 -3.797439e-07 -1.019833e-07)) ((1.281422e-10 -3.694658e-12 -3.774761e-13) (-4.703053e-08 -7.355668e-12 -3.957916e-12))
697.528207    	((3.228142e-10 -2.688444e-07 -4.856459e-07) (3.772727e-11 -3.797324e-07 -1.022836e-07)) ((1.281458e-10 -3.698792e-12 -3.776384e-13) (-4.702509e-08 -7.445144e-12 -3.982463e-12))
732.325787    	((3.235368e-10 -2.688584e-07 -4.868421e-07) (3.874659e-11 -3.797572e-07 -1.025538e-07)) ((1.281494e-10 -3.702242e-12 -3.778694e-13) (-4.702191e-08 -7.522976e-12 -4.014076e-12))
767.126053    	((3.240162e-10 -2.688788e-07 -4.879342e-07) (3.993431e-11 -3.798058e-07 -1.027929e-07)) ((1.281529e-10 -3.705288e-12 -3.781354e-13) (-4.702046e-08 -7.601713e-12 -4.048236e-12))
801.928809    	((3.249771e-10 -2.688818e-07 -4.889414e-07) (4.141377e-11 -3.798685e-07 -1.030045e-07)) ((1.281554e-10 -3.707900e-12 -3.783704e-13) (-4.702022e-08 -7.678647e-12 -4.084929e-12))
836.733862    	((3.247432e-10 -2.688643e-07 -4.898626e-07) (4.309125e-11 -3.799362e-07 -1.031964e-07)) ((1.281567e-10 -3.710031e-12 -3.785419e-13) (-4.702064e-08 -7.743195e-12 -4.120420e-12))
871.540956    	((3.257637e-10 -2.688039e-07 -4.907035e-07) (4.488134e-11 -3.800038e-07 -1.033754e-07)) ((1.281568e-10 -3.711763e-12 -3.787298e-13) (-4.702133e-08 -7.807514e-12 -4.149787e-12))
906.349821    	((3.267085e-10 -2.687536e-07 -4.914787e-07) (4.666770e-11 -3.800687e-07 -1.035427e-07)) ((1.281575e-10 -3.713352e-12 -3.789408e-13) (-4.702217e-08 -7.872632e-12 -4.178285e-12))
941.160251    	((3.276280e-10 -2.687104e-07 -4.921950e-07) (4.846405e-11 -3.801313e-07 -1.036987e-07)) ((1.281583e-10 -3.714857e-12 -3.791394e-13) (-4.702314e-08 -7.940092e-12 -4.209924e-12))
975.972104    	((3.277098e-10 -2.686685e-07 -4.928558e-07) (5.019110e-11 -3.801917e-07 -1.038438e-07)) ((1.281593e-10 -3.716235e-12 -3.793223e-13) (-4.702420e-08 -8.005736e-12 -4.241452e-12))
1010.785266   	((3.284033e-10 -2.686289e-07 -4.934768e-07) (5.180058e-11 -3.802502e-07 -1.039791e-07)) ((1.281602e-10 -3.717530e-12 -3.794862e-13) (-4.702531e-08 -8.063483e-12 -4.272561e-12))
1045.599637   	((3.293081e-10 -2.685858e-07 -4.940567e-07) (5.328568e-11 -3.803065e-07 -1.041060e-07)) ((1.281610e-10 -3.718748e-12 -3.796204e-13) (-4.702644e-08 -8.117064e-12 -4.305260e-12))
1080.415128   	((3.301021e-10 -2.685497e-07 -4.946039e-07) (5.472988e-11 -3.803609e-07 -1.042252e-07)) ((1.281618e-10 -3.719844e-12 -3.797312e-13) (-4.702756e-08 -8.171126e-12 -4.339375e-12))
1115.231664   	((3.303403e-10 -2.685123e-07 -4.951129e-07) (5.606781e-11 -3.804136e-07 -1.043369e-07)) ((1.281624e-10 -3.720796e-12 -3.798130e-13) (-4.702868e-08 -8.224012e-12 -4.370492e-12))
1150.049181   	((3.308501e-10 -2.684775e-07 -4.955916e-07) (5.728806e-11 -3.804642e-07 -1.044417e-07)) ((1.281630e-10 -3.721673e-12 -3.798897e-13) (-4.702977e-08 -8.275814e-12 -4.396581e-12))
1184.867619   	((3.311437e-10 -2.684489e-07 -4.960424e-07) (5.838407e-11 -3.805131e-07 -1.045403e-07)) ((1.281638e-10 -3.722483e-12 -3.799699e-13) (-4.703084e-08 -8.327084e-12 -4.417112e-12))
1219.686927   	((3.317009e-10 -2.684200e-07 -4.964637e-07) (5.935425e-11 -3.805603e-07 -1.046334e-07)) ((1.281645e-10 -3.723266e-12 -3.800756e-13) (-4.703190e-08 -8.375906e-12 -4.434836e-12))
1254.507056   	((3.318812e-10 -2.683962e-07 -4.968607e-07) (6.031100e-11 -3.806060e-07 -1.047215e-07)) ((1.281653e-10 -3.724041e-12 -3.801714e-13) (-4.703296e-08 -8.424894e-12 -4.453030e-12))
1289.327962   	((3.320685e-10 -2.683736e-07 -4.972295e-07) (6.122610e-11 -3.806503e-07 -1.048046e-07)) ((1.281663e-10 -3.724786e-12 -3.802632e-13) (-4.703402e-08 -8.472805e-12 -4.471883e-12))
1324.149605   	((3.322783e-10 -2.683546e-07 -4.975766e-07) (6.214322e-11 -3.806932e-07 -1.048826e-07)) ((1.281672e-10 -3.725485e-12 -3.803514e-13) (-4.703507e-08 -8.518712e-12 -4.490066e-12))
1358.971944   	((3.325439e-10 -2.683348e-07 -4.979052e-07) (6.301266e-11 -3.807346e-07 -1.049559e-07)) ((1.281680e-10 -3.726170e-12 -3.804151e-13) (-4.703610e-08 -8.560657e-12 -4.503972e-12))
1393.794941   	((3.329638e-10 -2.683176e-07 -4.982159e-07) (6.380806e-11 -3.807745e-07 -1.050249e-07)) ((1.281687e-10 -3.726854e-12 -3.804820e-13) (-4.703712e-08 -8.599513e-12 -4.512850e-12))
1428.618556   	((3.332386e-10 -2.683002e-07 -4.985099e-07) (6.454358e-11 -3.808128e-07 -1.050899e-07)) ((1.281695e-10 -3.727491e-12 -3.805508e-13) (-4.703812e-08 -8.635970e-12 -4.517320e-12))
1463.442754   	((3.336152e-10 -2.682801e-07 -4.987871e-07) (6.522930e-11 -3.808493e-07 -1.051515e-07)) ((1.281700e-10 -3.728076e-12 -3.805988e-13) (-4.703907e-08 -8.671672e-12 -4.518419e-12))
1498.267499   	((3.340356e-10 -2.682591e-07 -4.990504e-07) (6.587187e-11 -3.808838e-07 -1.052100e-07)) ((1.281706e-10 -3.728619e-12 -3.806480e-13) (-4.703997e-08 -8.705932e-12 -4.517486e-12))
