# Forces      
# CofR        : (0.000000e+00 0.000000e+00 0.000000e+00)
# Time        forces(pressure viscous)	moments(pressure viscous)
0             	((0.000000e+00 0.000000e+00 0.000000e+00) (1.008502e-03 -5.901671e-14 9.806087e-09)) ((0.000000e+00 0.000000e+00 0.000000e+00) (-2.292758e-15 -2.265985e-05 -1.560876e-14))
0.012         	((2.925302e-01 -1.684677e-07 7.277103e-02) (1.153594e-03 -1.232432e-09 -6.958394e-06)) ((-2.311940e-11 4.295985e-06 -4.548412e-11) (2.331643e-11 -3.352479e-05 1.677394e-11))
0.0264        	((-3.282164e-02 -6.066688e-06 -9.679048e-03) (1.164761e-03 -6.110176e-09 -1.079851e-05)) ((-1.512624e-11 -4.623109e-07 -5.141084e-11) (-8.173376e-11 -3.728562e-05 2.338444e-11))
0.04368       	((-5.441320e-02 4.410031e-06 -9.703093e-03) (1.022803e-03 -5.166482e-09 -1.079416e-05)) ((5.610950e-13 -8.780749e-07 1.007604e-10) (-3.442561e-11 -3.312186e-05 -1.945401e-11))
0.064416      	((-3.666458e-04 2.281067e-06 -4.500393e-03) (9.011283e-04 1.577903e-09 -1.203498e-05)) ((-8.679101e-11 -8.349600e-09 -7.849445e-12) (2.006008e-10 -2.993815e-05 -5.836957e-11))
0.0892992     	((-1.253826e-04 -2.158712e-06 -3.353697e-03) (8.292555e-04 -5.363059e-10 -1.481099e-05)) ((4.053658e-11 5.199605e-09 -7.925534e-12) (1.512449e-10 -2.834090e-05 -9.016735e-11))
0.119159      	((-8.519784e-04 7.508852e-07 -2.732968e-03) (7.668894e-04 -1.512526e-09 -1.751215e-05)) ((-2.413501e-12 -2.944157e-08 2.665464e-11) (4.781374e-11 -2.661691e-05 -7.123339e-11))
0.154991      	((-1.999232e-04 2.296465e-07 -2.378118e-03) (7.046755e-04 3.635838e-09 -2.001146e-05)) ((-1.130136e-11 -1.722131e-08 6.144382e-11) (7.517457e-11 -2.482221e-05 6.719578e-11))
0.197989      	((3.572279e-05 -1.396854e-07 -2.135225e-03) (6.463493e-04 5.552782e-09 -2.249052e-05)) ((1.651889e-12 -1.248294e-08 8.107420e-11) (6.954587e-11 -2.308566e-05 2.308321e-10))
0.249587      	((1.213377e-04 -1.782679e-07 -1.981760e-03) (5.938250e-04 5.884185e-09 -2.508403e-05)) ((1.821491e-11 -1.074347e-08 8.715907e-11) (1.175017e-11 -2.144447e-05 3.035104e-10))
0.311504      	((1.739393e-04 -1.325655e-07 -1.887447e-03) (5.476430e-04 5.520962e-09 -2.777618e-05)) ((1.578658e-11 -9.297552e-09 6.711642e-11) (-7.273625e-11 -1.992516e-05 2.821014e-10))
0.385805      	((2.027276e-04 -9.646142e-08 -1.825125e-03) (5.070385e-04 3.959135e-09 -3.065222e-05)) ((1.402583e-11 -8.175777e-09 3.950507e-11) (-1.629099e-10 -1.852940e-05 2.120910e-10))
0.474966      	((2.174211e-04 -9.784234e-08 -1.784662e-03) (4.705459e-04 1.720645e-09 -3.381519e-05)) ((1.090704e-11 -7.175159e-09 1.966372e-11) (-2.551192e-10 -1.723317e-05 1.250448e-10))
0.581959      	((2.230574e-04 -6.888761e-08 -1.757495e-03) (4.361086e-04 9.961736e-12 -3.741249e-05)) ((7.449213e-12 -6.241707e-09 9.527399e-12) (-3.399460e-10 -1.598422e-05 1.853887e-11))
0.710351      	((2.234706e-04 -6.407293e-08 -1.738230e-03) (4.025837e-04 -4.492080e-10 -4.142985e-05)) ((5.897719e-12 -5.377562e-09 2.824613e-12) (-4.200445e-10 -1.475618e-05 -5.151675e-11))
0.864421      	((2.222066e-04 -5.651617e-08 -1.723674e-03) (3.703208e-04 -6.572555e-10 -4.586866e-05)) ((3.880763e-12 -4.561699e-09 1.392730e-12) (-4.920424e-10 -1.356800e-05 -8.804206e-11))
1.049306      	((2.220987e-04 -6.951842e-08 -1.711991e-03) (3.400115e-04 -1.023845e-09 -5.078087e-05)) ((2.271098e-12 -3.778274e-09 1.341374e-12) (-5.478299e-10 -1.244691e-05 -1.098924e-10))
1.271167      	((2.254602e-04 -7.046672e-08 -1.701056e-03) (3.121322e-04 -2.060382e-09 -5.607814e-05)) ((1.359541e-12 -3.004988e-09 1.326671e-12) (-5.928242e-10 -1.141153e-05 -1.510614e-10))
1.5374        	((2.334274e-04 -1.224957e-07 -1.689773e-03) (2.869603e-04 -4.058202e-09 -6.159176e-05)) ((1.554318e-12 -2.197134e-09 1.114099e-12) (-6.386371e-10 -1.047303e-05 -2.133616e-10))
1.85688       	((2.468641e-04 -1.524574e-07 -1.676658e-03) (2.646328e-04 -6.655723e-09 -6.708405e-05)) ((2.588842e-12 -1.251691e-09 2.700476e-13) (-6.796720e-10 -9.639918e-06 -2.565529e-10))
2.240256      	((2.670417e-04 -2.153880e-07 -1.661810e-03) (2.452141e-04 -1.048854e-08 -7.225524e-05)) ((2.940428e-12 -1.968540e-10 -8.089631e-13) (-7.242844e-10 -8.918006e-06 -2.462917e-10))
2.700307      	((2.949059e-04 -2.171408e-07 -1.645108e-03) (2.286337e-04 -1.297151e-08 -7.688988e-05)) ((1.185225e-12 9.637465e-10 -1.841305e-12) (-7.554091e-10 -8.306358e-06 -1.600097e-10))
3.239299      	((3.306347e-04 -1.956000e-07 -1.627049e-03) (2.149552e-04 -1.404135e-08 -8.097091e-05)) ((-3.241752e-13 2.161326e-09 -1.893985e-12) (-7.388676e-10 -7.803114e-06 -4.279111e-11))
3.856681      	((3.734608e-04 -1.575832e-07 -1.607748e-03) (2.038536e-04 -1.493784e-08 -8.464447e-05)) ((8.169744e-13 3.302411e-09 -1.702606e-12) (-7.195085e-10 -7.392342e-06 2.276136e-11))
4.551851      	((4.224921e-04 -9.482992e-08 -1.587897e-03) (1.948682e-04 -1.370320e-08 -8.795492e-05)) ((3.440212e-13 4.281776e-09 -1.079950e-12) (-6.471189e-10 -7.055210e-06 6.368881e-11))
5.321644      	((4.773134e-04 -5.089768e-08 -1.567120e-03) (1.876647e-04 -1.140256e-08 -9.072078e-05)) ((8.047916e-13 4.970069e-09 -1.167980e-12) (-5.400123e-10 -6.779013e-06 8.790970e-11))
6.081831      	((5.326389e-04 7.512845e-08 -1.543896e-03) (1.824882e-04 -9.110017e-09 -9.250074e-05)) ((-1.152546e-12 5.413826e-09 -2.650538e-12) (-3.553775e-10 -6.573588e-06 1.336854e-11))
6.832282      	((5.832557e-04 1.618708e-07 -1.517413e-03) (1.786491e-04 -5.491549e-09 -9.335741e-05)) ((-4.483938e-12 5.788138e-09 -6.225025e-12) (-1.011933e-10 -6.417106e-06 -8.804963e-11))
7.574219      	((6.275025e-04 2.282149e-07 -1.487658e-03) (1.757519e-04 -4.625569e-09 -9.337768e-05)) ((-5.475813e-12 6.197622e-09 -7.788085e-12) (9.034497e-11 -6.300552e-06 -3.266765e-10))
8.31085       	((6.622437e-04 2.646668e-07 -1.456279e-03) (1.733897e-04 -8.178888e-09 -9.293911e-05)) ((-4.956889e-12 6.682664e-09 -1.111266e-11) (1.978960e-10 -6.208053e-06 -8.179206e-10))
9.04601       	((6.876203e-04 3.248721e-07 -1.424363e-03) (1.714513e-04 -1.149639e-08 -9.224280e-05)) ((-4.548104e-12 7.240958e-09 -1.002613e-11) (3.284424e-10 -6.135331e-06 -1.356124e-09))
9.781948      	((7.014606e-04 5.194216e-07 -1.390790e-03) (1.696732e-04 -1.007622e-08 -9.141557e-05)) ((-2.542316e-12 7.849466e-09 -5.802595e-12) (4.911315e-10 -6.074616e-06 -1.714412e-09))
10.518773     	((7.038403e-04 5.625705e-07 -1.357761e-03) (1.679406e-04 -6.875948e-09 -9.056172e-05)) ((-2.356869e-12 8.361815e-09 -2.130921e-12) (6.835763e-10 -6.020624e-06 -2.120210e-09))
11.255496     	((6.977970e-04 5.145020e-07 -1.327133e-03) (1.662535e-04 -9.734965e-09 -8.970880e-05)) ((-1.775216e-12 8.826134e-09 -4.280372e-12) (7.364169e-10 -5.973386e-06 -2.694095e-09))
11.991343     	((6.881902e-04 6.046412e-07 -1.304846e-03) (1.646677e-04 -1.209159e-08 -8.886200e-05)) ((-2.257743e-12 9.192951e-09 -7.619170e-12) (7.776296e-10 -5.934826e-06 -3.353687e-09))
12.726292     	((6.745476e-04 6.187616e-07 -1.285059e-03) (1.632344e-04 -1.248239e-08 -8.806335e-05)) ((-1.889652e-12 9.417111e-09 -1.000185e-11) (8.084212e-10 -5.903893e-06 -3.858176e-09))
13.460827     	((6.630429e-04 5.127504e-07 -1.264754e-03) (1.618733e-04 -1.401036e-08 -8.736413e-05)) ((-5.118046e-12 9.578773e-09 -1.457094e-11) (8.674742e-10 -5.875174e-06 -4.109172e-09))
14.19522      	((6.561430e-04 5.116497e-07 -1.244823e-03) (1.606068e-04 -1.547091e-08 -8.673308e-05)) ((-1.343500e-11 9.712288e-09 -1.779818e-11) (1.108948e-09 -5.848057e-06 -4.099281e-09))
14.92946      	((6.517029e-04 5.026469e-07 -1.229459e-03) (1.594960e-04 -1.312917e-08 -8.616160e-05)) ((-1.689720e-11 9.743592e-09 -1.795757e-11) (1.471536e-09 -5.823253e-06 -3.861272e-09))
15.663449     	((6.481576e-04 3.437228e-07 -1.217197e-03) (1.585174e-04 -8.724092e-09 -8.568435e-05)) ((-1.486006e-11 9.741224e-09 -1.512357e-11) (1.691281e-09 -5.799611e-06 -3.415472e-09))
16.397243     	((6.441315e-04 1.769986e-07 -1.203683e-03) (1.575952e-04 -6.431726e-09 -8.529763e-05)) ((-1.304281e-11 9.752845e-09 -1.052461e-11) (1.703830e-09 -5.775589e-06 -2.896973e-09))
17.13096      	((6.402602e-04 1.429949e-07 -1.189832e-03) (1.566947e-04 -4.957631e-09 -8.497964e-05)) ((-1.185694e-11 9.763719e-09 -6.984487e-12) (1.674141e-09 -5.750666e-06 -2.513050e-09))
17.8647       	((6.364882e-04 1.143948e-07 -1.175792e-03) (1.558186e-04 -4.731560e-09 -8.471322e-05)) ((-1.015861e-11 9.772539e-09 -5.309594e-12) (1.603101e-09 -5.725486e-06 -2.371831e-09))
18.598242     	((6.330468e-04 1.650409e-07 -1.162890e-03) (1.549756e-04 -7.758792e-09 -8.449514e-05)) ((-8.956963e-12 9.776125e-09 -3.613278e-12) (1.456659e-09 -5.700462e-06 -2.530488e-09))
19.331662     	((6.295163e-04 2.306343e-07 -1.150409e-03) (1.541624e-04 -8.189657e-09 -8.432517e-05)) ((-8.671365e-12 9.782398e-09 -1.890614e-12) (1.351149e-09 -5.675549e-06 -2.678602e-09))
20.065139     	((6.260471e-04 2.185009e-07 -1.138238e-03) (1.533745e-04 -8.904865e-09 -8.419408e-05)) ((-6.137398e-12 9.798033e-09 -1.960769e-12) (1.313889e-09 -5.650884e-06 -2.840684e-09))
20.798751     	((6.225361e-04 2.604910e-07 -1.126112e-03) (1.526113e-04 -1.103622e-08 -8.408857e-05)) ((-8.049962e-12 9.822506e-09 -3.237035e-12) (1.345374e-09 -5.626796e-06 -3.039146e-09))
21.532562     	((6.193036e-04 2.879650e-07 -1.114514e-03) (1.518782e-04 -1.170943e-08 -8.398099e-05)) ((-1.087127e-11 9.877671e-09 -5.852536e-12) (1.426163e-09 -5.604376e-06 -3.125151e-09))
22.266609     	((6.163260e-04 2.364764e-07 -1.103347e-03) (1.511819e-04 -1.175743e-08 -8.385722e-05)) ((-1.288093e-11 9.951208e-09 -7.583222e-12) (1.452153e-09 -5.584256e-06 -3.139632e-09))
23.000895     	((6.136869e-04 2.226008e-07 -1.092741e-03) (1.505281e-04 -1.294927e-08 -8.372358e-05)) ((-1.456498e-11 1.003231e-08 -8.884563e-12) (1.442832e-09 -5.566310e-06 -3.256389e-09))
23.735442     	((6.116766e-04 9.744453e-08 -1.082524e-03) (1.499259e-04 -1.809603e-08 -8.357692e-05)) ((-1.352364e-11 1.011738e-08 -9.418222e-12) (1.325766e-09 -5.550602e-06 -3.448627e-09))
24.470279     	((6.095336e-04 -8.223563e-08 -1.072539e-03) (1.493653e-04 -2.542101e-08 -8.342254e-05)) ((-1.324803e-11 1.018669e-08 -9.423188e-12) (1.092312e-09 -5.536530e-06 -3.521580e-09))
25.205435     	((6.073631e-04 -2.522738e-07 -1.062891e-03) (1.488332e-04 -3.191425e-08 -8.326897e-05)) ((-1.257339e-11 1.024170e-08 -9.676215e-12) (7.997730e-10 -5.523398e-06 -3.358104e-09))
25.940923     	((6.049984e-04 -4.153576e-07 -1.053295e-03) (1.483226e-04 -3.828308e-08 -8.312696e-05)) ((-1.075665e-11 1.027776e-08 -1.061373e-11) (5.380451e-10 -5.510675e-06 -3.128137e-09))
26.676473     	((6.025529e-04 -5.881956e-07 -1.043772e-03) (1.478220e-04 -4.555530e-08 -8.299923e-05)) ((-1.125619e-11 1.030287e-08 -1.137619e-11) (3.268781e-10 -5.497893e-06 -2.887660e-09))
27.411981     	((6.004625e-04 -7.764625e-07 -1.034666e-03) (1.473379e-04 -5.305036e-08 -8.287360e-05)) ((-1.431264e-11 1.032771e-08 -1.193371e-11) (1.256438e-10 -5.485404e-06 -2.602194e-09))
28.147572     	((5.982287e-04 -9.975375e-07 -1.025722e-03) (1.468684e-04 -6.143066e-08 -8.275118e-05)) ((-1.545630e-11 1.034303e-08 -1.260847e-11) (-1.721133e-10 -5.473009e-06 -2.267839e-09))
28.883358     	((5.959869e-04 -1.195241e-06 -1.017018e-03) (1.464070e-04 -7.143691e-08 -8.263625e-05)) ((-1.502494e-11 1.035188e-08 -1.283143e-11) (-5.911186e-10 -5.460405e-06 -1.974647e-09))
29.619488     	((5.937569e-04 -1.375486e-06 -1.008567e-03) (1.459526e-04 -8.215349e-08 -8.252903e-05)) ((-1.473582e-11 1.035890e-08 -1.263575e-11) (-1.008526e-09 -5.447660e-06 -1.700671e-09))
30.355954     	((5.919775e-04 -1.607340e-06 -1.000685e-03) (1.455114e-04 -9.321901e-08 -8.241981e-05)) ((-1.176931e-11 1.037803e-08 -1.221118e-11) (-1.459086e-09 -5.435371e-06 -1.362235e-09))
31.092658     	((5.904348e-04 -1.827197e-06 -9.933709e-04) (1.450921e-04 -1.044617e-07 -8.230262e-05)) ((-7.409360e-12 1.040375e-08 -1.181011e-11) (-1.985635e-09 -5.424002e-06 -9.649869e-10))
31.829587     	((5.889108e-04 -2.101928e-06 -9.865029e-04) (1.446962e-04 -1.167753e-07 -8.217768e-05)) ((-2.814607e-12 1.043221e-08 -1.118307e-11) (-2.610358e-09 -5.413591e-06 -5.240082e-10))
32.566754     	((5.872701e-04 -2.365323e-06 -9.796307e-04) (1.443196e-04 -1.299396e-07 -8.205137e-05)) ((2.205512e-12 1.045303e-08 -1.035095e-11) (-3.334876e-09 -5.403816e-06 -6.022587e-11))
33.304177     	((5.853607e-04 -2.675393e-06 -9.726015e-04) (1.439516e-04 -1.452576e-07 -8.193954e-05)) ((6.681803e-12 1.045064e-08 -9.039950e-12) (-4.147822e-09 -5.393807e-06 3.655474e-10))
34.041857     	((5.836130e-04 -2.959926e-06 -9.658352e-04) (1.435894e-04 -1.630557e-07 -8.185143e-05)) ((1.069213e-11 1.043862e-08 -7.587898e-12) (-5.005008e-09 -5.383098e-06 7.096356e-10))
34.779818     	((5.819242e-04 -3.291434e-06 -9.592970e-04) (1.432310e-04 -1.833936e-07 -8.178757e-05)) ((1.468989e-11 1.042109e-08 -6.363622e-12) (-5.890324e-09 -5.371625e-06 9.485743e-10))
35.518084     	((5.803037e-04 -3.671050e-06 -9.530183e-04) (1.428753e-04 -2.066171e-07 -8.173626e-05)) ((1.883639e-11 1.041880e-08 -5.534824e-12) (-6.829402e-09 -5.359931e-06 1.120232e-09))
36.256672     	((5.784614e-04 -4.075596e-06 -9.465199e-04) (1.425216e-04 -2.323362e-07 -8.168496e-05)) ((2.326983e-11 1.042747e-08 -4.940720e-12) (-7.834269e-09 -5.348549e-06 1.275831e-09))
36.995591     	((5.765336e-04 -4.481022e-06 -9.399349e-04) (1.421727e-04 -2.598069e-07 -8.162651e-05)) ((2.802243e-11 1.044243e-08 -4.248784e-12) (-8.886654e-09 -5.337706e-06 1.422454e-09))
37.734869     	((5.748252e-04 -4.909683e-06 -9.333802e-04) (1.418362e-04 -2.884655e-07 -8.155600e-05)) ((3.296024e-11 1.046406e-08 -3.761470e-12) (-9.993685e-09 -5.327590e-06 1.586348e-09))
38.474529     	((5.735091e-04 -5.390149e-06 -9.271347e-04) (1.415200e-04 -3.189396e-07 -8.147103e-05)) ((3.837717e-11 1.048925e-08 -3.510325e-12) (-1.119402e-08 -5.318362e-06 1.762741e-09))
39.214581     	((5.724463e-04 -5.918105e-06 -9.211082e-04) (1.412251e-04 -3.529796e-07 -8.137268e-05)) ((4.489785e-11 1.051625e-08 -3.455399e-12) (-1.254392e-08 -5.309967e-06 1.907576e-09))
39.955053     	((5.713728e-04 -6.408415e-06 -9.153294e-04) (1.409466e-04 -3.894846e-07 -8.126363e-05)) ((5.135751e-11 1.054109e-08 -3.578257e-12) (-1.399143e-08 -5.302159e-06 2.021571e-09))
40.69595      	((5.701345e-04 -6.898722e-06 -9.098962e-04) (1.406777e-04 -4.269835e-07 -8.114774e-05)) ((5.763943e-11 1.055991e-08 -4.159049e-12) (-1.547931e-08 -5.294623e-06 2.180391e-09))
41.437267     	((5.687832e-04 -7.470404e-06 -9.045643e-04) (1.404122e-04 -4.665487e-07 -8.102952e-05)) ((6.531127e-11 1.057441e-08 -5.146721e-12) (-1.708856e-08 -5.287071e-06 2.418794e-09))
42.179001     	((5.673811e-04 -8.097224e-06 -8.995061e-04) (1.401488e-04 -5.092044e-07 -8.091257e-05)) ((7.380479e-11 1.058552e-08 -6.085808e-12) (-1.888308e-08 -5.279401e-06 2.713848e-09))
42.921155     	((5.661009e-04 -8.803516e-06 -8.945682e-04) (1.398898e-04 -5.553471e-07 -8.079550e-05)) ((8.318767e-11 1.059794e-08 -6.799350e-12) (-2.087749e-08 -5.271708e-06 3.077651e-09))
43.663741     	((5.648364e-04 -9.571404e-06 -8.895955e-04) (1.396348e-04 -6.052879e-07 -8.067742e-05)) ((9.300022e-11 1.060981e-08 -7.364430e-12) (-2.306531e-08 -5.264000e-06 3.536198e-09))
44.406778     	((5.637464e-04 -1.041627e-05 -8.845915e-04) (1.393867e-04 -6.592903e-07 -8.055674e-05)) ((1.034079e-10 1.062568e-08 -7.775634e-12) (-2.545030e-08 -5.256430e-06 4.076748e-09))
45.150285     	((5.627233e-04 -1.133146e-05 -8.797987e-04) (1.391475e-04 -7.180099e-07 -8.043276e-05)) ((1.149047e-10 1.064157e-08 -7.753785e-12) (-2.804502e-08 -5.249107e-06 4.684702e-09))
45.894273     	((5.617388e-04 -1.227123e-05 -8.752485e-04) (1.389160e-04 -7.807622e-07 -8.030723e-05)) ((1.267613e-10 1.065692e-08 -7.963054e-12) (-3.082138e-08 -5.242015e-06 5.350261e-09))
46.638743     	((5.607866e-04 -1.333571e-05 -8.708914e-04) (1.386923e-04 -8.484175e-07 -8.018298e-05)) ((1.398290e-10 1.067153e-08 -8.120641e-12) (-3.381969e-08 -5.235134e-06 6.071583e-09))
47.383702     	((5.598732e-04 -1.446237e-05 -8.668589e-04) (1.384762e-04 -9.216129e-07 -8.006256e-05)) ((1.538502e-10 1.068359e-08 -8.181936e-12) (-3.706615e-08 -5.228450e-06 6.863918e-09))
48.129177     	((5.589491e-04 -1.572397e-05 -8.628914e-04) (1.382662e-04 -1.001406e-06 -7.994762e-05)) ((1.692583e-10 1.069436e-08 -8.073505e-12) (-4.060106e-08 -5.221908e-06 7.749058e-09))
48.875139     	((5.580611e-04 -1.708249e-05 -8.590851e-04) (1.380617e-04 -1.087970e-06 -7.983921e-05)) ((1.859769e-10 1.070434e-08 -8.148322e-12) (-4.444700e-08 -5.215482e-06 8.759392e-09))
49.621561     	((5.572383e-04 -1.858322e-05 -8.553921e-04) (1.378647e-04 -1.181204e-06 -7.973784e-05)) ((2.041680e-10 1.071341e-08 -8.324517e-12) (-4.862999e-08 -5.209234e-06 9.927583e-09))
50.368435     	((5.564384e-04 -2.020017e-05 -8.517685e-04) (1.376752e-04 -1.282040e-06 -7.964315e-05)) ((2.233939e-10 1.072268e-08 -8.675900e-12) (-5.318281e-08 -5.203189e-06 1.124624e-08))
51.115749     	((5.556306e-04 -2.190870e-05 -8.481494e-04) (1.374924e-04 -1.390661e-06 -7.955465e-05)) ((2.437923e-10 1.073150e-08 -9.061597e-12) (-5.809024e-08 -5.197352e-06 1.269711e-08))
51.86348      	((5.548895e-04 -2.375326e-05 -8.446908e-04) (1.373161e-04 -1.508232e-06 -7.947226e-05)) ((2.653325e-10 1.074068e-08 -9.649770e-12) (-6.337357e-08 -5.191744e-06 1.424541e-08))
52.611603     	((5.541961e-04 -2.575240e-05 -8.412689e-04) (1.371464e-04 -1.636164e-06 -7.939469e-05)) ((2.883698e-10 1.075118e-08 -1.033234e-11) (-6.906809e-08 -5.186403e-06 1.588218e-08))
53.360095     	((5.535481e-04 -2.795457e-05 -8.379046e-04) (1.369833e-04 -1.775511e-06 -7.932060e-05)) ((3.136088e-10 1.076282e-08 -1.129169e-11) (-7.522006e-08 -5.181364e-06 1.760122e-08))
54.108931     	((5.529468e-04 -3.034881e-05 -8.345855e-04) (1.368267e-04 -1.927890e-06 -7.924898e-05)) ((3.415994e-10 1.077537e-08 -1.226508e-11) (-8.188536e-08 -5.176638e-06 1.937416e-08))
54.858096     	((5.523614e-04 -3.295135e-05 -8.313073e-04) (1.366763e-04 -2.094806e-06 -7.917830e-05)) ((3.726236e-10 1.078899e-08 -1.327717e-11) (-8.911537e-08 -5.172246e-06 2.119160e-08))
55.607578     	((5.517953e-04 -3.574947e-05 -8.280717e-04) (1.365322e-04 -2.276626e-06 -7.910763e-05)) ((4.064179e-10 1.080351e-08 -1.408330e-11) (-9.694420e-08 -5.168176e-06 2.308032e-08))
56.357357     	((5.512562e-04 -3.877162e-05 -8.249088e-04) (1.363953e-04 -2.474081e-06 -7.903608e-05)) ((4.428493e-10 1.081837e-08 -1.500161e-11) (-1.054191e-07 -5.164442e-06 2.505743e-08))
57.107411     	((5.507861e-04 -4.196834e-05 -8.219060e-04) (1.362666e-04 -2.687136e-06 -7.896247e-05)) ((4.805689e-10 1.083430e-08 -1.587620e-11) (-1.145263e-07 -5.161066e-06 2.712782e-08))
57.857718     	((5.503140e-04 -4.546289e-05 -8.188815e-04) (1.361438e-04 -2.917869e-06 -7.888797e-05)) ((5.208627e-10 1.084993e-08 -1.702171e-11) (-1.243417e-07 -5.157916e-06 2.928230e-08))
58.60825      	((5.498139e-04 -4.927004e-05 -8.157982e-04) (1.360245e-04 -3.168633e-06 -7.881395e-05)) ((5.644535e-10 1.086514e-08 -1.833628e-11) (-1.349717e-07 -5.154855e-06 3.154043e-08))
59.358985     	((5.493796e-04 -5.336101e-05 -8.128055e-04) (1.359091e-04 -3.440229e-06 -7.874058e-05)) ((6.105141e-10 1.088013e-08 -2.002072e-11) (-1.464259e-07 -5.151870e-06 3.390212e-08))
60.109907     	((5.489682e-04 -5.783840e-05 -8.097545e-04) (1.357979e-04 -3.735316e-06 -7.866784e-05)) ((6.605730e-10 1.089617e-08 -2.194084e-11) (-1.587871e-07 -5.148976e-06 3.636859e-08))
60.861        	((5.486622e-04 -6.271021e-05 -8.067341e-04) (1.356925e-04 -4.056333e-06 -7.859472e-05)) ((7.142864e-10 1.091476e-08 -2.419431e-11) (-1.721661e-07 -5.146265e-06 3.899193e-08))
61.612249     	((5.484295e-04 -6.802511e-05 -8.038292e-04) (1.355934e-04 -4.405688e-06 -7.852249e-05)) ((7.725235e-10 1.093334e-08 -2.650615e-11) (-1.866721e-07 -5.143756e-06 4.179844e-08))
62.363635     	((5.482499e-04 -7.383810e-05 -8.009867e-04) (1.355000e-04 -4.786388e-06 -7.845487e-05)) ((8.372251e-10 1.095015e-08 -2.801707e-11) (-2.024618e-07 -5.141352e-06 4.479580e-08))
63.115137     	((5.481284e-04 -8.016072e-05 -7.982260e-04) (1.354126e-04 -5.201512e-06 -7.839444e-05)) ((9.090476e-10 1.096551e-08 -2.768882e-11) (-2.196816e-07 -5.139024e-06 4.800963e-08))
63.866731     	((5.481486e-04 -8.702727e-05 -7.958123e-04) (1.353334e-04 -5.654784e-06 -7.834337e-05)) ((9.890609e-10 1.098011e-08 -2.482194e-11) (-2.384696e-07 -5.136859e-06 5.137761e-08))
64.618387     	((5.482757e-04 -9.453917e-05 -7.935476e-04) (1.352642e-04 -6.151831e-06 -7.830323e-05)) ((1.077338e-09 1.099544e-08 -2.175312e-11) (-2.590205e-07 -5.134964e-06 5.485183e-08))
65.370069     	((5.484377e-04 -1.028322e-04 -7.912376e-04) (1.352042e-04 -6.701913e-06 -7.827411e-05)) ((1.177170e-09 1.101166e-08 -2.195459e-11) (-2.816532e-07 -5.133405e-06 5.834602e-08))
66.121731     	((5.488603e-04 -1.119179e-04 -7.892986e-04) (1.351565e-04 -7.312325e-06 -7.825411e-05)) ((1.288550e-09 1.103040e-08 -2.563239e-11) (-3.066929e-07 -5.132405e-06 6.187642e-08))
66.873323     	((5.495667e-04 -1.217437e-04 -7.876368e-04) (1.351250e-04 -7.984321e-06 -7.824300e-05)) ((1.409550e-09 1.105283e-08 -2.952967e-11) (-3.342736e-07 -5.132120e-06 6.558242e-08))
67.624787     	((5.506140e-04 -1.325288e-04 -7.863137e-04) (1.351173e-04 -8.720548e-06 -7.824095e-05)) ((1.540741e-09 1.108330e-08 -3.102556e-11) (-3.645228e-07 -5.132694e-06 6.956299e-08))
68.376065     	((5.519665e-04 -1.442359e-04 -7.854909e-04) (1.351358e-04 -9.522425e-06 -7.824495e-05)) ((1.681389e-09 1.112035e-08 -2.872760e-11) (-3.976027e-07 -5.134316e-06 7.403997e-08))
69.12697      	((5.535792e-04 -1.569920e-04 -7.849281e-04) (1.351775e-04 -1.039471e-05 -7.825442e-05)) ((1.834982e-09 1.116460e-08 -2.448794e-11) (-4.337460e-07 -5.136929e-06 7.908186e-08))
69.877102     	((5.555517e-04 -1.708471e-04 -7.848310e-04) (1.352420e-04 -1.134295e-05 -7.826687e-05)) ((2.002212e-09 1.121940e-08 -1.989083e-11) (-4.731486e-07 -5.140588e-06 8.475181e-08))
70.626395     	((5.578992e-04 -1.857690e-04 -7.852031e-04) (1.353313e-04 -1.236998e-05 -7.827962e-05)) ((2.182055e-09 1.128222e-08 -1.480772e-11) (-5.158733e-07 -5.145457e-06 9.108986e-08))
71.374766     	((5.607643e-04 -2.018720e-04 -7.857599e-04) (1.354507e-04 -1.347829e-05 -7.829745e-05)) ((2.376822e-09 1.135607e-08 -8.904323e-12) (-5.621009e-07 -5.151606e-06 9.814778e-08))
