# Forces      
# CofR        : (0.000000e+00 0.000000e+00 0.000000e+00)
# Time        forces(pressure viscous)	moments(pressure viscous)
0             	((0.000000e+00 0.000000e+00 0.000000e+00) (2.792396e-10 6.657306e-13 3.019405e-05)) ((0.000000e+00 0.000000e+00 0.000000e+00) (-1.763175e-13 1.709834e-11 -4.188069e-16))
0.012         	((3.874649e-07 6.660192e-08 2.594443e-03) (1.484712e-11 3.057090e-10 2.520269e-05)) ((3.562105e-12 2.615419e-09 -1.832501e-13) (8.598570e-12 -4.444412e-11 -2.395323e-13))
0.0264        	((1.692090e-08 -7.761137e-08 -2.397583e-04) (1.997726e-10 1.257340e-10 1.921028e-05)) ((-5.561711e-12 -2.970416e-10 -1.207261e-12) (1.814417e-11 -5.043457e-11 -1.872360e-12))
0.04368       	((-1.027718e-07 1.104333e-07 -6.149409e-04) (5.706796e-10 1.714850e-10 1.324561e-05)) ((2.610647e-11 -1.070751e-09 2.626143e-13) (2.407655e-11 -5.091621e-11 -4.745397e-12))
0.064416      	((7.236765e-08 -2.253221e-08 -8.264611e-06) (7.652002e-10 9.094368e-10 9.373089e-06)) ((1.643755e-12 -1.496586e-11 -7.958214e-13) (4.007624e-11 -5.912200e-11 -5.443498e-12))
0.0892992     	((3.719909e-08 3.092415e-09 1.514358e-05) (1.054341e-09 1.314128e-09 7.551877e-06)) ((-7.492336e-12 6.487019e-11 5.187671e-13) (6.135246e-11 -4.975516e-11 -5.146052e-12))
0.119159      	((2.278545e-09 -1.697743e-08 -1.305889e-06) (1.068692e-09 1.149977e-09 6.390473e-06)) ((-6.627994e-13 8.742995e-12 -6.196082e-13) (5.593392e-11 -5.239938e-11 -6.551883e-12))
0.154991      	((-2.478820e-09 -1.067972e-08 -1.837716e-06) (1.097287e-09 9.584119e-10 5.482283e-06)) ((-7.270576e-13 1.885310e-12 3.665071e-14) (4.800311e-11 -6.157090e-11 -8.559887e-12))
0.197989      	((1.748425e-08 -1.036692e-08 2.523796e-07) (1.303423e-09 8.754276e-10 4.808728e-06)) ((-7.496117e-13 -3.898528e-12 -9.192845e-14) (4.973867e-11 -6.737748e-11 -8.364624e-12))
0.249587      	((2.008032e-09 -5.559083e-09 6.955704e-07) (1.376622e-09 8.676187e-10 4.262337e-06)) ((-5.395975e-13 -4.088747e-12 -5.077905e-14) (4.946192e-11 -7.177843e-11 -6.778463e-12))
0.311504      	((2.125929e-08 9.907979e-10 5.453009e-07) (1.478261e-09 9.912116e-10 3.795685e-06)) ((-6.125695e-13 -8.828143e-12 -4.039149e-14) (5.584856e-11 -8.664953e-11 -6.142472e-12))
0.385805      	((5.213208e-09 -5.563494e-09 7.066315e-07) (1.503305e-09 1.110085e-09 3.390230e-06)) ((7.605106e-14 -7.781919e-12 -4.212468e-14) (6.284384e-11 -9.611890e-11 -6.277734e-12))
0.474966      	((1.465951e-08 -5.937810e-10 5.929627e-07) (1.498706e-09 1.165570e-09 3.036380e-06)) ((-2.962688e-14 -9.688323e-12 -3.941325e-14) (6.845182e-11 -1.052372e-10 -5.940922e-12))
0.581959      	((2.780295e-09 -2.559685e-09 6.262409e-07) (1.418164e-09 1.169450e-09 2.725720e-06)) ((4.302146e-13 -8.289290e-12 -3.088359e-15) (7.172000e-11 -1.050034e-10 -5.012733e-12))
0.710351      	((6.804331e-09 -4.841536e-09 5.370312e-07) (1.340690e-09 1.144835e-09 2.455224e-06)) ((6.138426e-13 -9.398496e-12 -1.403155e-14) (7.212212e-11 -9.870952e-11 -4.107749e-12))
0.864421      	((7.407035e-09 6.336448e-10 5.261646e-07) (1.363508e-09 1.155517e-09 2.222896e-06)) ((3.597927e-13 -7.577164e-12 -1.664795e-14) (7.569727e-11 -1.015330e-10 -3.506302e-12))
1.049306      	((4.292632e-09 -4.891969e-09 4.845483e-07) (1.392841e-09 1.092280e-09 2.024807e-06)) ((8.835980e-13 -7.600613e-12 1.690352e-14) (7.117417e-11 -1.016288e-10 -2.880779e-12))
1.271167      	((5.490530e-09 2.782763e-09 4.721030e-07) (1.387121e-09 1.087503e-09 1.856492e-06)) ((2.848493e-13 -6.278888e-12 3.151129e-15) (7.323479e-11 -1.014263e-10 -2.399637e-12))
1.5374        	((1.817168e-09 2.412771e-10 4.451708e-07) (1.331499e-09 1.124328e-09 1.712273e-06)) ((6.463169e-13 -5.931816e-12 1.334989e-14) (7.684967e-11 -1.002959e-10 -1.969806e-12))
1.85688       	((1.236903e-09 -1.215431e-09 4.395276e-07) (1.237375e-09 1.102985e-09 1.586805e-06)) ((5.378561e-13 -4.836421e-12 -1.214749e-14) (7.460046e-11 -9.378238e-11 -1.893362e-12))
2.240256      	((1.303627e-09 5.493289e-10 4.165763e-07) (1.119202e-09 1.035482e-09 1.475834e-06)) ((3.550264e-13 -4.130680e-12 -2.955839e-14) (7.146560e-11 -8.549892e-11 -1.775318e-12))
2.700307      	((1.836458e-10 -8.795049e-10 4.086557e-07) (9.897165e-10 9.065641e-10 1.375375e-06)) ((2.868715e-13 -3.329624e-12 -4.683573e-14) (6.419393e-11 -7.446378e-11 -1.818212e-12))
3.252369      	((1.109640e-09 2.275902e-10 3.856914e-07) (8.165729e-10 7.225248e-10 1.283192e-06)) ((2.205011e-13 -2.627104e-12 -4.376274e-14) (5.263548e-11 -6.325799e-11 -1.805595e-12))
3.914842      	((1.018704e-09 -7.906845e-10 3.707045e-07) (5.929716e-10 5.123737e-10 1.197404e-06)) ((1.645473e-13 -2.171955e-12 -4.177420e-14) (3.939221e-11 -4.962946e-11 -1.536585e-12))
4.709811      	((-2.563795e-10 1.839768e-11 3.483241e-07) (2.931436e-10 2.818749e-10 1.117309e-06)) ((7.301101e-14 -1.813756e-12 -2.809076e-14) (2.532188e-11 -3.173196e-11 -1.087711e-12))
5.663773      	((1.521708e-09 -7.190629e-10 3.305083e-07) (6.902721e-11 2.588395e-11 1.042322e-06)) ((1.028563e-13 -1.387622e-12 -2.708751e-14) (9.323306e-12 -1.854453e-11 -4.155131e-13))
6.808528      	((-7.220968e-10 -1.716956e-10 3.062400e-07) (-1.067397e-10 -1.979478e-10 9.724459e-07)) ((7.095410e-14 -1.321726e-12 -1.912479e-14) (-5.431010e-12 -5.011310e-12 -9.117554e-14))
8.182233      	((4.778639e-10 -1.000653e-09 2.861862e-07) (-2.602660e-10 -4.035185e-10 9.075168e-07)) ((7.468896e-14 -1.024129e-12 -2.263945e-14) (-1.859061e-11 4.701138e-12 -3.718454e-14))
9.83068       	((-1.269810e-09 -6.365873e-10 2.633444e-07) (-3.698762e-10 -5.563097e-10 8.477198e-07)) ((3.430088e-14 -1.058069e-12 -1.748910e-14) (-2.796822e-11 1.196648e-11 -8.393785e-14))
11.808816     	((-1.115684e-10 -9.446858e-10 2.429831e-07) (-4.459314e-10 -6.487842e-10 7.927171e-07)) ((3.711642e-14 -8.664302e-13 -1.520864e-14) (-3.375236e-11 1.708299e-11 -1.085466e-13))
14.182579     	((-9.740810e-10 -6.228248e-10 2.219090e-07) (-4.905685e-10 -6.886164e-10 7.423550e-07)) ((2.708673e-14 -9.256914e-13 -1.376217e-14) (-3.616095e-11 2.048174e-11 -2.118545e-13))
17.031095     	((-2.166193e-10 -7.999630e-10 2.033504e-07) (-5.122306e-10 -7.024784e-10 6.965023e-07)) ((3.718589e-14 -8.417548e-13 -1.270787e-14) (-3.655781e-11 2.143976e-11 -8.311089e-14))
20.449314     	((-6.195394e-10 -6.349848e-10 1.854341e-07) (-5.284015e-10 -7.067374e-10 6.549099e-07)) ((4.396415e-14 -8.992160e-13 -1.153464e-14) (-3.648033e-11 2.287212e-11 -3.975909e-14))
24.551176     	((-2.496135e-10 -6.539860e-10 1.692388e-07) (-5.502739e-10 -7.015157e-10 6.172101e-07)) ((4.990445e-14 -8.785563e-13 -1.111342e-14) (-3.598499e-11 2.442452e-11 -9.409828e-14))
29.473411     	((-3.407671e-10 -5.551605e-10 1.550523e-07) (-5.579499e-10 -6.853056e-10 5.830447e-07)) ((5.039427e-14 -9.018595e-13 -1.043119e-14) (-3.495755e-11 2.506337e-11 -1.711034e-13))
35.380094     	((-2.199873e-10 -5.621318e-10 1.430684e-07) (-5.569576e-10 -6.615940e-10 5.521632e-07)) ((5.167338e-14 -8.804442e-13 -9.495152e-15) (-3.331839e-11 2.471121e-11 -2.523955e-13))
42.468112     	((-2.465657e-10 -5.191694e-10 1.331395e-07) (-5.407557e-10 -6.317412e-10 5.242059e-07)) ((5.010154e-14 -8.814234e-13 -8.872638e-15) (-3.126473e-11 2.361813e-11 -3.486213e-13))
50.973735     	((-2.334764e-10 -4.869016e-10 1.240733e-07) (-5.161457e-10 -5.957395e-10 4.990040e-07)) ((5.146331e-14 -8.713102e-13 -8.301115e-15) (-2.896365e-11 2.219742e-11 -4.376858e-13))
61.180482     	((-2.179177e-10 -4.453909e-10 1.162101e-07) (-4.883624e-10 -5.635990e-10 4.764175e-07)) ((5.311670e-14 -8.686639e-13 -7.606502e-15) (-2.697874e-11 2.067260e-11 -5.001976e-13))
73.428578     	((-1.910115e-10 -4.084139e-10 1.092887e-07) (-4.620650e-10 -5.351401e-10 4.563115e-07)) ((5.208223e-14 -8.604228e-13 -7.544423e-15) (-2.532690e-11 1.926404e-11 -5.772677e-13))
88.126294     	((-1.971605e-10 -3.863630e-10 1.031730e-07) (-4.435300e-10 -5.117892e-10 4.385074e-07)) ((4.942528e-14 -8.595471e-13 -7.082428e-15) (-2.407484e-11 1.841912e-11 -6.570492e-13))
105.763553    	((-1.938342e-10 -3.805974e-10 9.776483e-08) (-4.315732e-10 -4.941115e-10 4.228098e-07)) ((4.599554e-14 -8.518871e-13 -6.823315e-15) (-2.323938e-11 1.818779e-11 -7.326257e-13))
126.928263    	((-1.697846e-10 -3.596691e-10 9.307224e-08) (-4.241696e-10 -4.815140e-10 4.090613e-07)) ((4.282671e-14 -8.453463e-13 -6.668088e-15) (-2.278542e-11 1.833882e-11 -8.060674e-13))
152.325916    	((-1.703607e-10 -3.602094e-10 8.901241e-08) (-4.220338e-10 -4.746482e-10 3.971314e-07)) ((4.120932e-14 -8.467664e-13 -6.727404e-15) (-2.269927e-11 1.884362e-11 -8.565955e-13))
182.803099    	((-1.495355e-10 -3.453279e-10 8.553615e-08) (-4.235309e-10 -4.727056e-10 3.869359e-07)) ((3.896759e-14 -8.523590e-13 -6.625159e-15) (-2.290920e-11 1.957258e-11 -8.840295e-13))
219.375719    	((-1.436271e-10 -3.436583e-10 8.258014e-08) (-4.281089e-10 -4.750530e-10 3.783830e-07)) ((3.715381e-14 -8.602227e-13 -6.559580e-15) (-2.339483e-11 2.052541e-11 -9.048504e-13))
263.262863    	((-1.352349e-10 -3.433490e-10 8.007864e-08) (-4.349775e-10 -4.810065e-10 3.713683e-07)) ((3.642059e-14 -8.689958e-13 -6.662957e-15) (-2.413807e-11 2.163270e-11 -9.197338e-13))
315.927436    	((-1.403118e-10 -3.584472e-10 7.801650e-08) (-4.449454e-10 -4.907121e-10 3.658024e-07)) ((3.553769e-14 -8.809560e-13 -6.785104e-15) (-2.512693e-11 2.293175e-11 -9.223884e-13))
378.522094    	((-1.331024e-10 -3.629553e-10 7.634259e-08) (-4.570597e-10 -5.034168e-10 3.615817e-07)) ((3.420470e-14 -8.926911e-13 -7.004691e-15) (-2.628953e-11 2.426443e-11 -9.314639e-13))
451.18326     	((-1.297369e-10 -3.759919e-10 7.505734e-08) (-4.695859e-10 -5.176204e-10 3.585769e-07)) ((3.324654e-14 -9.048312e-13 -7.150245e-15) (-2.753102e-11 2.553596e-11 -9.480949e-13))
534.015211    	((-1.235662e-10 -3.843598e-10 7.404028e-08) (-4.819877e-10 -5.323172e-10 3.566299e-07)) ((3.327903e-14 -9.183637e-13 -7.366257e-15) (-2.877699e-11 2.677773e-11 -9.673559e-13))
627.091431    	((-1.077370e-10 -3.968484e-10 7.333427e-08) (-4.932875e-10 -5.458000e-10 3.555540e-07)) ((3.384233e-14 -9.315034e-13 -7.406194e-15) (-2.989872e-11 2.792635e-11 -9.820614e-13))
729.986897    	((-9.596276e-11 -4.044125e-10 7.290802e-08) (-5.026528e-10 -5.573694e-10 3.551378e-07)) ((3.435671e-14 -9.429622e-13 -7.374731e-15) (-3.084725e-11 2.892553e-11 -9.825225e-13))
833.09816     	((-8.687708e-11 -4.116215e-10 7.267850e-08) (-5.095501e-10 -5.667690e-10 3.551634e-07)) ((3.555458e-14 -9.504028e-13 -7.181968e-15) (-3.159596e-11 2.972198e-11 -9.713459e-13))
936.253425    	((-7.741123e-11 -4.122581e-10 7.260270e-08) (-5.148090e-10 -5.733501e-10 3.554363e-07)) ((3.627710e-14 -9.536786e-13 -6.957940e-15) (-3.211981e-11 3.033435e-11 -9.612055e-13))
1039.350034   	((-6.870760e-11 -4.084120e-10 7.262372e-08) (-5.182474e-10 -5.776413e-10 3.558102e-07)) ((3.651278e-14 -9.547670e-13 -6.742061e-15) (-3.246029e-11 3.075779e-11 -9.538305e-13))
1142.338605   	((-7.021433e-11 -4.042630e-10 7.268411e-08) (-5.202905e-10 -5.801221e-10 3.561877e-07)) ((3.656624e-14 -9.546420e-13 -6.489422e-15) (-3.265988e-11 3.103396e-11 -9.551362e-13))
1245.208481   	((-7.868078e-11 -4.027631e-10 7.274985e-08) (-5.216891e-10 -5.815127e-10 3.565144e-07)) ((3.679851e-14 -9.537822e-13 -6.234498e-15) (-3.276754e-11 3.121597e-11 -9.565418e-13))
1347.971523   	((-9.277907e-11 -4.026728e-10 7.279777e-08) (-5.229105e-10 -5.821575e-10 3.567680e-07)) ((3.684731e-14 -9.528941e-13 -5.963226e-15) (-3.281230e-11 3.133043e-11 -9.553342e-13))
1450.650084   	((-1.080794e-10 -4.032681e-10 7.281922e-08) (-5.240206e-10 -5.824008e-10 3.569478e-07)) ((3.686119e-14 -9.518450e-13 -5.853636e-15) (-3.281770e-11 3.138913e-11 -9.562813e-13))
1553.268284   	((-1.205935e-10 -4.049352e-10 7.282586e-08) (-5.250316e-10 -5.824457e-10 3.570639e-07)) ((3.683377e-14 -9.509987e-13 -5.799067e-15) (-3.280222e-11 3.141898e-11 -9.589448e-13))
1655.847344   	((-1.292680e-10 -4.081306e-10 7.281558e-08) (-5.259274e-10 -5.824140e-10 3.571307e-07)) ((3.679445e-14 -9.504626e-13 -5.778012e-15) (-3.277608e-11 3.143624e-11 -9.614846e-13))
1758.403821   	((-1.346563e-10 -4.123039e-10 7.279454e-08) (-5.265800e-10 -5.824045e-10 3.571630e-07)) ((3.674659e-14 -9.501144e-13 -5.773270e-15) (-3.274639e-11 3.144397e-11 -9.655311e-13))
1860.949424   	((-1.377616e-10 -4.164601e-10 7.276879e-08) (-5.270132e-10 -5.824621e-10 3.571732e-07)) ((3.666643e-14 -9.499500e-13 -5.789045e-15) (-3.272027e-11 3.144784e-11 -9.704789e-13))
1963.491624   	((-1.389258e-10 -4.205167e-10 7.274104e-08) (-5.272867e-10 -5.825987e-10 3.571707e-07)) ((3.657170e-14 -9.499561e-13 -5.805844e-15) (-3.269855e-11 3.145163e-11 -9.752881e-13))
2066.034661   	((-1.390008e-10 -4.243016e-10 7.271366e-08) (-5.274615e-10 -5.827688e-10 3.571621e-07)) ((3.651096e-14 -9.499570e-13 -5.824392e-15) (-3.268000e-11 3.145765e-11 -9.793282e-13))
2168.580512   	((-1.386912e-10 -4.275823e-10 7.268816e-08) (-5.275823e-10 -5.829131e-10 3.571518e-07)) ((3.646211e-14 -9.499518e-13 -5.840468e-15) (-3.266156e-11 3.146627e-11 -9.822687e-13))
2271.129736   	((-1.384381e-10 -4.304295e-10 7.266511e-08) (-5.276476e-10 -5.830607e-10 3.571420e-07)) ((3.642402e-14 -9.499623e-13 -5.846514e-15) (-3.264574e-11 3.147471e-11 -9.842001e-13))
2373.682085   	((-1.383191e-10 -4.329177e-10 7.264468e-08) (-5.276822e-10 -5.832106e-10 3.571340e-07)) ((3.639716e-14 -9.499604e-13 -5.852243e-15) (-3.263226e-11 3.148332e-11 -9.849537e-13))
2476.236941   	((-1.383030e-10 -4.352363e-10 7.262664e-08) (-5.277157e-10 -5.833548e-10 3.571281e-07)) ((3.637998e-14 -9.499670e-13 -5.858979e-15) (-3.262052e-11 3.149317e-11 -9.848328e-13))
2578.793584   	((-1.384621e-10 -4.374169e-10 7.261088e-08) (-5.277266e-10 -5.835141e-10 3.571241e-07)) ((3.633168e-14 -9.500162e-13 -5.861394e-15) (-3.261053e-11 3.150376e-11 -9.836682e-13))
2681.351352   	((-1.388318e-10 -4.396113e-10 7.259642e-08) (-5.277550e-10 -5.836693e-10 3.571216e-07)) ((3.628991e-14 -9.500832e-13 -5.851614e-15) (-3.260153e-11 3.151726e-11 -9.821510e-13))
2783.909709   	((-1.393471e-10 -4.418756e-10 7.258304e-08) (-5.278316e-10 -5.838104e-10 3.571202e-07)) ((3.622062e-14 -9.501950e-13 -5.837074e-15) (-3.259271e-11 3.153472e-11 -9.807040e-13))
2886.468271   	((-1.398194e-10 -4.442474e-10 7.257047e-08) (-5.279448e-10 -5.839259e-10 3.571196e-07)) ((3.611446e-14 -9.503471e-13 -5.822381e-15) (-3.258277e-11 3.155507e-11 -9.790822e-13))
2989.026785   	((-1.401857e-10 -4.469156e-10 7.255844e-08) (-5.280647e-10 -5.840267e-10 3.571193e-07)) ((3.597523e-14 -9.505145e-13 -5.801731e-15) (-3.257202e-11 3.157551e-11 -9.770025e-13))
3091.585117   	((-1.403921e-10 -4.499114e-10 7.254669e-08) (-5.281646e-10 -5.841437e-10 3.571191e-07)) ((3.582466e-14 -9.507233e-13 -5.779426e-15) (-3.256295e-11 3.159373e-11 -9.748500e-13))
3194.143208   	((-1.404373e-10 -4.532675e-10 7.253518e-08) (-5.282210e-10 -5.842862e-10 3.571190e-07)) ((3.572126e-14 -9.508827e-13 -5.746269e-15) (-3.255533e-11 3.160886e-11 -9.728221e-13))
3296.701055   	((-1.401879e-10 -4.570296e-10 7.252368e-08) (-5.283255e-10 -5.844411e-10 3.571188e-07)) ((3.568317e-14 -9.510010e-13 -5.703753e-15) (-3.254788e-11 3.162557e-11 -9.719927e-13))
3399.258686   	((-1.397259e-10 -4.611685e-10 7.251208e-08) (-5.284425e-10 -5.846514e-10 3.571186e-07)) ((3.567528e-14 -9.510871e-13 -5.652534e-15) (-3.254364e-11 3.164112e-11 -9.720746e-13))
3501.816144   	((-1.390254e-10 -4.657355e-10 7.250073e-08) (-5.285457e-10 -5.849231e-10 3.571182e-07)) ((3.564198e-14 -9.511850e-13 -5.602299e-15) (-3.254246e-11 3.165533e-11 -9.726658e-13))
3604.373473   	((-1.380498e-10 -4.708301e-10 7.248887e-08) (-5.286535e-10 -5.852284e-10 3.571177e-07)) ((3.554754e-14 -9.512972e-13 -5.548134e-15) (-3.254181e-11 3.167064e-11 -9.737590e-13))
3706.930715   	((-1.372464e-10 -4.758204e-10 7.247697e-08) (-5.288249e-10 -5.854980e-10 3.571171e-07)) ((3.540982e-14 -9.514115e-13 -5.511270e-15) (-3.253808e-11 3.168946e-11 -9.753420e-13))
3809.487903   	((-1.369918e-10 -4.802293e-10 7.246508e-08) (-5.290848e-10 -5.856769e-10 3.571164e-07)) ((3.527975e-14 -9.514993e-13 -5.514984e-15) (-3.253066e-11 3.171225e-11 -9.777797e-13))
3912.045061   	((-1.369894e-10 -4.843494e-10 7.245342e-08) (-5.293164e-10 -5.858310e-10 3.571157e-07)) ((3.510761e-14 -9.516739e-13 -5.546921e-15) (-3.252413e-11 3.173210e-11 -9.802508e-13))
4014.602207   	((-1.370395e-10 -4.882926e-10 7.244214e-08) (-5.294256e-10 -5.859958e-10 3.571150e-07)) ((3.495187e-14 -9.517622e-13 -5.639554e-15) (-3.251975e-11 3.174547e-11 -9.807446e-13))
4117.159351   	((-1.373220e-10 -4.919081e-10 7.243132e-08) (-5.294889e-10 -5.861459e-10 3.571143e-07)) ((3.479449e-14 -9.518251e-13 -5.777192e-15) (-3.251758e-11 3.175328e-11 -9.797557e-13))
4219.7165     	((-1.378224e-10 -4.953435e-10 7.242086e-08) (-5.295521e-10 -5.862958e-10 3.571137e-07)) ((3.462435e-14 -9.518929e-13 -5.939962e-15) (-3.251647e-11 3.175986e-11 -9.786535e-13))
4322.273654   	((-1.385210e-10 -4.985394e-10 7.241072e-08) (-5.296258e-10 -5.864121e-10 3.571131e-07)) ((3.441828e-14 -9.519898e-13 -6.116830e-15) (-3.251544e-11 3.176540e-11 -9.774451e-13))
4424.830815   	((-1.392652e-10 -5.013728e-10 7.240083e-08) (-5.297239e-10 -5.864979e-10 3.571125e-07)) ((3.418240e-14 -9.521857e-13 -6.303966e-15) (-3.251450e-11 3.177032e-11 -9.768243e-13))
4527.38798    	((-1.400110e-10 -5.039673e-10 7.239119e-08) (-5.298261e-10 -5.865828e-10 3.571119e-07)) ((3.393428e-14 -9.524335e-13 -6.489240e-15) (-3.251616e-11 3.177372e-11 -9.766284e-13))
4629.945149   	((-1.406303e-10 -5.065673e-10 7.238178e-08) (-5.298999e-10 -5.866942e-10 3.571114e-07)) ((3.369788e-14 -9.526928e-13 -6.676968e-15) (-3.252121e-11 3.177406e-11 -9.767499e-13))
4732.50232    	((-1.413108e-10 -5.087598e-10 7.237263e-08) (-5.299394e-10 -5.867913e-10 3.571108e-07)) ((3.346159e-14 -9.529919e-13 -6.868491e-15) (-3.252787e-11 3.177112e-11 -9.771670e-13))
4835.059491   	((-1.420879e-10 -5.104188e-10 7.236371e-08) (-5.299935e-10 -5.868289e-10 3.571103e-07)) ((3.327392e-14 -9.532569e-13 -7.069915e-15) (-3.253288e-11 3.176831e-11 -9.778297e-13))
4937.616661   	((-1.430053e-10 -5.116104e-10 7.235498e-08) (-5.300601e-10 -5.868383e-10 3.571099e-07)) ((3.318687e-14 -9.534347e-13 -7.282519e-15) (-3.253695e-11 3.176588e-11 -9.784003e-13))
5040.17383    	((-1.441102e-10 -5.123306e-10 7.234632e-08) (-5.301542e-10 -5.868198e-10 3.571095e-07)) ((3.316409e-14 -9.535622e-13 -7.522740e-15) (-3.254098e-11 3.176344e-11 -9.782317e-13))
5142.730996   	((-1.455438e-10 -5.124944e-10 7.233754e-08) (-5.303118e-10 -5.867527e-10 3.571091e-07)) ((3.324184e-14 -9.536166e-13 -7.781190e-15) (-3.254327e-11 3.176331e-11 -9.773097e-13))
5245.28816    	((-1.463013e-10 -5.130847e-10 7.232884e-08) (-5.304818e-10 -5.867299e-10 3.571086e-07)) ((3.335572e-14 -9.535777e-13 -7.971284e-15) (-3.254752e-11 3.176232e-11 -9.742780e-13))
5347.845321   	((-1.465190e-10 -5.140100e-10 7.232002e-08) (-5.306483e-10 -5.867739e-10 3.571082e-07)) ((3.344538e-14 -9.535013e-13 -8.075861e-15) (-3.255333e-11 3.176131e-11 -9.694608e-13))
5450.40248    	((-1.470306e-10 -5.144643e-10 7.231061e-08) (-5.307502e-10 -5.868793e-10 3.571076e-07)) ((3.341424e-14 -9.535529e-13 -8.147635e-15) (-3.256223e-11 3.175726e-11 -9.641985e-13))
5552.959636   	((-1.467453e-10 -5.156552e-10 7.230174e-08) (-5.307855e-10 -5.870165e-10 3.571072e-07)) ((3.332488e-14 -9.536210e-13 -8.171721e-15) (-3.256887e-11 3.175546e-11 -9.597288e-13))
5655.516789   	((-1.459608e-10 -5.173167e-10 7.229323e-08) (-5.307522e-10 -5.871876e-10 3.571069e-07)) ((3.317143e-14 -9.537525e-13 -8.184993e-15) (-3.257502e-11 3.175377e-11 -9.567750e-13))
5758.073939   	((-1.450059e-10 -5.191621e-10 7.228487e-08) (-5.306933e-10 -5.873813e-10 3.571066e-07)) ((3.305730e-14 -9.538421e-13 -8.186208e-15) (-3.258229e-11 3.175151e-11 -9.547908e-13))
5860.631086   	((-1.440440e-10 -5.210548e-10 7.227661e-08) (-5.306199e-10 -5.875864e-10 3.571062e-07)) ((3.294127e-14 -9.539340e-13 -8.178750e-15) (-3.258992e-11 3.174938e-11 -9.532296e-13))
5963.18823    	((-1.430971e-10 -5.230631e-10 7.226874e-08) (-5.305503e-10 -5.877962e-10 3.571059e-07)) ((3.285735e-14 -9.539982e-13 -8.164563e-15) (-3.259758e-11 3.174782e-11 -9.519993e-13))
6065.745369   	((-1.422573e-10 -5.248531e-10 7.226072e-08) (-5.304923e-10 -5.880107e-10 3.571055e-07)) ((3.277075e-14 -9.540705e-13 -8.145701e-15) (-3.260532e-11 3.174692e-11 -9.514465e-13))
6168.302506   	((-1.415498e-10 -5.265773e-10 7.225311e-08) (-5.304413e-10 -5.882316e-10 3.571052e-07)) ((3.267312e-14 -9.541540e-13 -8.111331e-15) (-3.261314e-11 3.174640e-11 -9.511400e-13))
6270.859638   	((-1.409585e-10 -5.280803e-10 7.224516e-08) (-5.303966e-10 -5.884455e-10 3.571048e-07)) ((3.259896e-14 -9.542060e-13 -8.074224e-15) (-3.262017e-11 3.174625e-11 -9.509589e-13))
6373.416767   	((-1.403088e-10 -5.296990e-10 7.223826e-08) (-5.303408e-10 -5.886357e-10 3.571045e-07)) ((3.254173e-14 -9.542289e-13 -8.040649e-15) (-3.262591e-11 3.174542e-11 -9.508286e-13))
6475.973892   	((-1.395463e-10 -5.313814e-10 7.223104e-08) (-5.302813e-10 -5.888129e-10 3.571042e-07)) ((3.247736e-14 -9.542538e-13 -8.016411e-15) (-3.263004e-11 3.174455e-11 -9.510903e-13))
6578.531012   	((-1.386905e-10 -5.330003e-10 7.222361e-08) (-5.302378e-10 -5.889734e-10 3.571040e-07)) ((3.240502e-14 -9.542936e-13 -7.996467e-15) (-3.263239e-11 3.174472e-11 -9.518481e-13))
6681.088127   	((-1.377226e-10 -5.348188e-10 7.221726e-08) (-5.302079e-10 -5.891128e-10 3.571037e-07)) ((3.233411e-14 -9.543362e-13 -7.977112e-15) (-3.263307e-11 3.174581e-11 -9.528443e-13))
6783.645237   	((-1.366111e-10 -5.366422e-10 7.221075e-08) (-5.301848e-10 -5.892490e-10 3.571035e-07)) ((3.225298e-14 -9.543954e-13 -7.963441e-15) (-3.263371e-11 3.174692e-11 -9.541106e-13))
6886.202344   	((-1.353208e-10 -5.385241e-10 7.220436e-08) (-5.301574e-10 -5.893916e-10 3.571032e-07)) ((3.217201e-14 -9.544653e-13 -7.949959e-15) (-3.263485e-11 3.174778e-11 -9.555083e-13))
6988.759447   	((-1.338908e-10 -5.403900e-10 7.219810e-08) (-5.301341e-10 -5.895364e-10 3.571030e-07)) ((3.209425e-14 -9.545371e-13 -7.935572e-15) (-3.263586e-11 3.174906e-11 -9.572019e-13))
7091.316546   	((-1.324122e-10 -5.421644e-10 7.219179e-08) (-5.301136e-10 -5.896636e-10 3.571028e-07)) ((3.202921e-14 -9.546033e-13 -7.920340e-15) (-3.263650e-11 3.175050e-11 -9.588239e-13))
7193.873643   	((-1.308912e-10 -5.438420e-10 7.218577e-08) (-5.300942e-10 -5.897782e-10 3.571026e-07)) ((3.198245e-14 -9.546599e-13 -7.907714e-15) (-3.263671e-11 3.175225e-11 -9.604051e-13))
