# Forces      
# CofR        : (0.000000e+00 0.000000e+00 0.000000e+00)
# Time        forces(pressure viscous)	moments(pressure viscous)
0             	((0.000000e+00 0.000000e+00 0.000000e+00) (-4.841913e-12 1.589050e-02 1.482946e-12)) ((0.000000e+00 0.000000e+00 0.000000e+00) (3.570415e-04 -5.249952e-14 -6.852024e-09))
0.0119295     	((1.783383e-04 4.719651e+00 7.020041e-01) (-5.151486e-07 2.821909e-02 -2.752710e-03)) ((-5.502594e-05 4.247717e-06 -9.111110e-07) (8.988826e-04 2.288001e-08 -4.778684e-09))
0.0262449     	((-3.323430e-04 -1.865756e+00 -9.968757e-01) (-5.282062e-07 2.683746e-02 -4.001135e-03)) ((2.256288e-05 -1.149455e-06 2.932651e-07) (9.538637e-04 1.840380e-08 1.306785e-08))
0.0434234     	((7.846574e-05 1.501504e-01 -5.236355e-01) (-2.337908e-06 2.176668e-02 -3.306897e-03)) ((1.026446e-06 1.458204e-07 7.809859e-08) (7.794471e-04 -1.297563e-08 9.963448e-08))
0.0640375     	((-5.692117e-04 -9.485686e-02 -5.026237e-01) (-1.644651e-05 1.958227e-02 -3.085357e-03)) ((1.438170e-06 2.635349e-07 -4.495888e-08) (7.009636e-04 -6.805657e-09 2.370256e-07))
0.0887745     	((-4.055795e-04 6.364407e-02 -4.522077e-01) (-1.813465e-05 1.816194e-02 -2.986669e-03)) ((4.090987e-07 3.322271e-07 -5.244586e-08) (6.493446e-04 4.443500e-08 4.077805e-07))
0.118459      	((-1.860763e-04 4.836081e-03 -4.611442e-01) (-1.419328e-05 1.736499e-02 -2.963725e-03)) ((3.700918e-07 2.821493e-07 -7.183937e-08) (6.230735e-04 7.015817e-08 4.720554e-07))
0.153385      	((-1.324783e-04 3.062262e-02 -4.468165e-01) (-1.287448e-05 1.680474e-02 -3.103753e-03)) ((6.085797e-08 2.640869e-07 -7.541139e-08) (6.023164e-04 5.883576e-08 5.071719e-07))
0.193521      	((-1.473185e-04 2.268859e-02 -4.518285e-01) (-1.143050e-05 1.638906e-02 -3.301125e-03)) ((-2.173944e-07 3.030377e-07 -1.174223e-07) (5.860460e-04 5.248267e-08 5.313020e-07))
0.23886       	((-4.610625e-05 3.099055e-02 -4.454330e-01) (-1.087211e-05 1.607801e-02 -3.487349e-03)) ((-5.081018e-07 3.023207e-07 -1.274960e-07) (5.732140e-04 5.223980e-08 5.590385e-07))
0.289401      	((-5.854906e-05 3.242860e-02 -4.466657e-01) (-1.105158e-05 1.585754e-02 -3.677116e-03)) ((-8.151543e-07 3.139535e-07 -1.642059e-07) (5.638670e-04 4.742659e-08 6.256155e-07))
0.341474      	((3.338759e-05 3.780685e-02 -4.430623e-01) (-9.844055e-06 1.571164e-02 -3.845013e-03)) ((-1.038230e-06 3.623492e-07 -1.895592e-07) (5.571330e-04 2.174405e-08 6.720013e-07))
0.393261      	((7.857886e-05 4.111564e-02 -4.418138e-01) (-8.506977e-06 1.560949e-02 -3.979071e-03)) ((-1.263742e-06 3.910943e-07 -2.188427e-07) (5.517856e-04 -7.482526e-09 7.079360e-07))
0.444685      	((1.511235e-04 4.545266e-02 -4.379311e-01) (-7.400011e-06 1.551919e-02 -4.079093e-03)) ((-1.455681e-06 4.142150e-07 -2.474097e-07) (5.466685e-04 -3.446681e-08 7.377797e-07))
0.495821      	((2.120541e-04 4.860847e-02 -4.347160e-01) (-6.812780e-06 1.541751e-02 -4.153182e-03)) ((-1.647962e-06 4.348322e-07 -2.759480e-07) (5.412587e-04 -6.238592e-08 7.612950e-07))
0.546848      	((2.945672e-04 5.145899e-02 -4.301871e-01) (-6.885651e-06 1.529518e-02 -4.205732e-03)) ((-1.845408e-06 4.353637e-07 -3.034070e-07) (5.356058e-04 -8.081291e-08 8.010666e-07))
0.597937      	((4.056766e-04 5.312978e-02 -4.259415e-01) (-6.729017e-06 1.516159e-02 -4.246709e-03)) ((-2.015803e-06 4.404039e-07 -3.314385e-07) (5.301808e-04 -9.574504e-08 8.714557e-07))
0.649164      	((5.118840e-04 5.423574e-02 -4.213099e-01) (-6.578967e-06 1.503204e-02 -4.277349e-03)) ((-2.154505e-06 4.489174e-07 -3.575897e-07) (5.253841e-04 -1.121961e-07 9.666497e-07))
0.700504      	((6.195629e-04 5.473179e-02 -4.173093e-01) (-6.333568e-06 1.491597e-02 -4.299587e-03)) ((-2.258505e-06 4.538836e-07 -3.791502e-07) (5.213080e-04 -1.233415e-07 1.068561e-06))
0.751894      	((7.532715e-04 5.456613e-02 -4.134391e-01) (-6.035853e-06 1.481261e-02 -4.315964e-03)) ((-2.317652e-06 4.589607e-07 -3.943104e-07) (5.177728e-04 -1.319280e-07 1.184408e-06))
0.803306      	((9.290838e-04 5.394604e-02 -4.100681e-01) (-5.658518e-06 1.471805e-02 -4.329350e-03)) ((-2.349414e-06 4.607410e-07 -4.062568e-07) (5.145750e-04 -1.498554e-07 1.304862e-06))
0.854748      	((1.155559e-03 5.311233e-02 -4.069774e-01) (-5.034599e-06 1.463096e-02 -4.342043e-03)) ((-2.353241e-06 4.625679e-07 -4.143743e-07) (5.116096e-04 -1.799529e-07 1.435036e-06))
0.906236      	((1.428989e-03 5.233866e-02 -4.043354e-01) (-3.921559e-06 1.455230e-02 -4.355057e-03)) ((-2.348858e-06 4.623229e-07 -4.220648e-07) (5.088603e-04 -2.210589e-07 1.573541e-06))
0.95777       	((1.701944e-03 5.182949e-02 -4.020038e-01) (-2.420036e-06 1.448168e-02 -4.367752e-03)) ((-2.342440e-06 4.666963e-07 -4.274505e-07) (5.063378e-04 -2.754806e-07 1.712286e-06))
1.009342      	((2.004506e-03 5.146815e-02 -3.998303e-01) (-7.557749e-07 1.441797e-02 -4.379141e-03)) ((-2.344201e-06 4.740207e-07 -4.318469e-07) (5.040685e-04 -3.468408e-07 1.849709e-06))
1.060947      	((2.313209e-03 5.124349e-02 -3.977728e-01) (1.093502e-06 1.436041e-02 -4.388246e-03)) ((-2.349377e-06 4.804306e-07 -4.363600e-07) (5.020697e-04 -4.310595e-07 1.982486e-06))
1.112578      	((2.681182e-03 5.093836e-02 -3.957379e-01) (3.104625e-06 1.430795e-02 -4.395593e-03)) ((-2.350042e-06 4.870857e-07 -4.402864e-07) (5.002929e-04 -5.259450e-07 2.123342e-06))
1.164234      	((3.087896e-03 5.062108e-02 -3.938485e-01) (5.232784e-06 1.425951e-02 -4.402439e-03)) ((-2.345222e-06 4.937062e-07 -4.439523e-07) (4.986551e-04 -6.354561e-07 2.282016e-06))
1.215914      	((3.529289e-03 5.028421e-02 -3.920848e-01) (7.514755e-06 1.421456e-02 -4.409434e-03)) ((-2.337137e-06 4.989916e-07 -4.478193e-07) (4.971123e-04 -7.594341e-07 2.457023e-06))
1.267612      	((4.043224e-03 4.997594e-02 -3.904541e-01) (1.012294e-05 1.417284e-02 -4.416486e-03)) ((-2.328381e-06 5.043959e-07 -4.519963e-07) (4.956655e-04 -9.000619e-07 2.652723e-06))
1.319329      	((4.624749e-03 4.968027e-02 -3.889429e-01) (1.309126e-05 1.413435e-02 -4.423273e-03)) ((-2.320534e-06 5.108277e-07 -4.554518e-07) (4.943247e-04 -1.062547e-06 2.874791e-06))
1.371062      	((5.266457e-03 4.938474e-02 -3.875365e-01) (1.636657e-05 1.409904e-02 -4.429456e-03)) ((-2.314773e-06 5.182068e-07 -4.583677e-07) (4.931022e-04 -1.249239e-06 3.125099e-06))
1.422809      	((5.982095e-03 4.909905e-02 -3.862263e-01) (1.987343e-05 1.406657e-02 -4.434624e-03)) ((-2.310244e-06 5.287185e-07 -4.608105e-07) (4.920004e-04 -1.460792e-06 3.402036e-06))
1.474568      	((6.783966e-03 4.885256e-02 -3.850429e-01) (2.364248e-05 1.403671e-02 -4.438524e-03)) ((-2.306568e-06 5.412012e-07 -4.637215e-07) (4.910232e-04 -1.698688e-06 3.710004e-06))
1.526337      	((7.685399e-03 4.866750e-02 -3.839881e-01) (2.790925e-05 1.400951e-02 -4.441349e-03)) ((-2.302787e-06 5.561555e-07 -4.671876e-07) (4.901711e-04 -1.969142e-06 4.056240e-06))
1.578114      	((8.698167e-03 4.853621e-02 -3.830413e-01) (3.292349e-05 1.398497e-02 -4.443376e-03)) ((-2.299065e-06 5.727466e-07 -4.707353e-07) (4.894348e-04 -2.277347e-06 4.441509e-06))
1.629895      	((9.841969e-03 4.843186e-02 -3.821597e-01) (3.846407e-05 1.396278e-02 -4.444989e-03)) ((-2.294099e-06 5.898372e-07 -4.747650e-07) (4.887896e-04 -2.622268e-06 4.881378e-06))
1.68168       	((1.114552e-02 4.831860e-02 -3.813183e-01) (4.452701e-05 1.394256e-02 -4.446681e-03)) ((-2.286718e-06 6.088382e-07 -4.790213e-07) (4.882034e-04 -3.010045e-06 5.385099e-06))
1.733464      	((1.261326e-02 4.823503e-02 -3.805550e-01) (5.133057e-05 1.392404e-02 -4.448729e-03)) ((-2.279162e-06 6.293797e-07 -4.833429e-07) (4.876577e-04 -3.447636e-06 5.952881e-06))
1.785246      	((1.429511e-02 4.816380e-02 -3.798411e-01) (5.912836e-05 1.390696e-02 -4.451131e-03)) ((-2.270659e-06 6.533042e-07 -4.876524e-07) (4.871473e-04 -3.943586e-06 6.588452e-06))
1.837023      	((1.618916e-02 4.813915e-02 -3.791892e-01) (6.823769e-05 1.389100e-02 -4.453381e-03)) ((-2.262118e-06 6.800855e-07 -4.925977e-07) (4.866833e-04 -4.504366e-06 7.298580e-06))
1.888791      	((1.832602e-02 4.816313e-02 -3.785959e-01) (7.907219e-05 1.387629e-02 -4.454910e-03)) ((-2.254160e-06 7.096835e-07 -4.977530e-07) (4.862846e-04 -5.133185e-06 8.078637e-06))
1.940548      	((2.073487e-02 4.821991e-02 -3.780453e-01) (9.181102e-05 1.386317e-02 -4.455444e-03)) ((-2.245701e-06 7.438405e-07 -5.023873e-07) (4.859624e-04 -5.832832e-06 8.923218e-06))
1.99229       	((2.344312e-02 4.832660e-02 -3.775500e-01) (1.065847e-04 1.385174e-02 -4.455347e-03)) ((-2.235991e-06 7.838471e-07 -5.076592e-07) (4.857060e-04 -6.620210e-06 9.836845e-06))
2.044013      	((2.649810e-02 4.848905e-02 -3.770789e-01) (1.238697e-04 1.384213e-02 -4.454613e-03)) ((-2.224594e-06 8.298794e-07 -5.124833e-07) (4.855200e-04 -7.517639e-06 1.081679e-05))
2.095715      	((2.988232e-02 4.876184e-02 -3.766997e-01) (1.440464e-04 1.383442e-02 -4.453043e-03)) ((-2.215254e-06 8.792782e-07 -5.167229e-07) (4.854110e-04 -8.539994e-06 1.187136e-05))
2.147389      	((3.363048e-02 4.919344e-02 -3.764083e-01) (1.673428e-04 1.382883e-02 -4.450213e-03)) ((-2.211456e-06 9.320747e-07 -5.199404e-07) (4.854014e-04 -9.697633e-06 1.301230e-05))
2.199032      	((3.777473e-02 4.975621e-02 -3.762234e-01) (1.938684e-04 1.382598e-02 -4.445730e-03)) ((-2.210838e-06 9.907970e-07 -5.224127e-07) (4.855330e-04 -1.100137e-05 1.424112e-05))
2.25064       	((4.236266e-02 5.050181e-02 -3.761759e-01) (2.234935e-04 1.382672e-02 -4.439161e-03)) ((-2.213745e-06 1.056470e-06 -5.248282e-07) (4.858537e-04 -1.245841e-05 1.558362e-05))
2.302207      	((4.739486e-02 5.147736e-02 -3.763094e-01) (2.562352e-04 1.383198e-02 -4.429909e-03)) ((-2.216904e-06 1.132594e-06 -5.266579e-07) (4.864129e-04 -1.408483e-05 1.707355e-05))
2.353729      	((5.293849e-02 5.270929e-02 -3.766345e-01) (2.919558e-04 1.384217e-02 -4.417706e-03)) ((-2.218893e-06 1.218582e-06 -5.276529e-07) (4.872425e-04 -1.589137e-05 1.874728e-05))
2.405199      	((5.899022e-02 5.415458e-02 -3.770783e-01) (3.309610e-04 1.385746e-02 -4.403056e-03)) ((-2.216806e-06 1.313833e-06 -5.312612e-07) (4.883531e-04 -1.788693e-05 2.062048e-05))
2.456612      	((6.550651e-02 5.601426e-02 -3.778066e-01) (3.743079e-04 1.387883e-02 -4.385955e-03)) ((-2.214191e-06 1.413462e-06 -5.378384e-07) (4.897782e-04 -2.007814e-05 2.265430e-05))
2.507962      	((7.232582e-02 5.837893e-02 -3.789274e-01) (4.220682e-04 1.390841e-02 -4.365547e-03)) ((-2.214036e-06 1.515568e-06 -5.453327e-07) (4.915834e-04 -2.246071e-05 2.481097e-05))
2.55924       	((7.935049e-02 6.103201e-02 -3.803014e-01) (4.738616e-04 1.394709e-02 -4.341830e-03)) ((-2.213293e-06 1.613822e-06 -5.507735e-07) (4.937902e-04 -2.501711e-05 2.708454e-05))
2.610427      	((8.651422e-02 6.400088e-02 -3.817964e-01) (5.292929e-04 1.399421e-02 -4.315734e-03)) ((-2.214651e-06 1.714317e-06 -5.534223e-07) (4.963661e-04 -2.774089e-05 2.947563e-05))
2.661519      	((9.339361e-02 6.751770e-02 -3.837492e-01) (5.875081e-04 1.405010e-02 -4.287543e-03)) ((-2.226673e-06 1.803164e-06 -5.558435e-07) (4.993019e-04 -3.058080e-05 3.197110e-05))
2.712512      	((9.971856e-02 7.133914e-02 -3.860238e-01) (6.471711e-04 1.411464e-02 -4.257869e-03)) ((-2.238748e-06 1.872196e-06 -5.591573e-07) (5.025546e-04 -3.346333e-05 3.452285e-05))
2.763404      	((1.049517e-01 7.540805e-02 -3.887344e-01) (7.056844e-04 1.418802e-02 -4.226518e-03)) ((-2.252439e-06 1.912560e-06 -5.646980e-07) (5.060978e-04 -3.627713e-05 3.703460e-05))
2.814195      	((1.088777e-01 7.941286e-02 -3.915663e-01) (7.594240e-04 1.426914e-02 -4.193471e-03)) ((-2.263557e-06 1.923298e-06 -5.749616e-07) (5.098739e-04 -3.891011e-05 3.943127e-05))
2.86489       	((1.111866e-01 8.314307e-02 -3.945438e-01) (8.048556e-04 1.435665e-02 -4.158508e-03)) ((-2.278818e-06 1.900034e-06 -5.841618e-07) (5.138228e-04 -4.126137e-05 4.168616e-05))
2.915492      	((1.116054e-01 8.604932e-02 -3.973864e-01) (8.391963e-04 1.444646e-02 -4.121820e-03)) ((-2.284229e-06 1.841116e-06 -5.891070e-07) (5.178215e-04 -4.319166e-05 4.371990e-05))
2.966012      	((1.100182e-01 8.793054e-02 -4.000038e-01) (8.601253e-04 1.453201e-02 -4.085450e-03)) ((-2.281892e-06 1.743919e-06 -5.964882e-07) (5.216241e-04 -4.453518e-05 4.544562e-05))
3.016461      	((1.062882e-01 8.873705e-02 -4.023159e-01) (8.633819e-04 1.460908e-02 -4.051207e-03)) ((-2.276489e-06 1.611769e-06 -6.083833e-07) (5.250335e-04 -4.513525e-05 4.687487e-05))
3.066854      	((1.006825e-01 8.836220e-02 -4.042369e-01) (8.447616e-04 1.467515e-02 -4.019710e-03)) ((-2.271823e-06 1.446930e-06 -6.124390e-07) (5.279486e-04 -4.487479e-05 4.801007e-05))
3.117197      	((9.369060e-02 8.703714e-02 -4.055267e-01) (8.039471e-04 1.473004e-02 -3.991569e-03)) ((-2.269179e-06 1.259620e-06 -6.015969e-07) (5.303482e-04 -4.373331e-05 4.875524e-05))
3.16751       	((8.617745e-02 8.498131e-02 -4.063589e-01) (7.445399e-04 1.477456e-02 -3.967266e-03)) ((-2.276347e-06 1.074436e-06 -5.812117e-07) (5.322785e-04 -4.180836e-05 4.904735e-05))
3.217817      	((7.907183e-02 8.273844e-02 -4.068537e-01) (6.725143e-04 1.480981e-02 -3.946301e-03)) ((-2.285381e-06 9.362236e-07 -5.583649e-07) (5.338957e-04 -3.928489e-05 4.894427e-05))
3.268141      	((7.299987e-02 8.035487e-02 -4.071821e-01) (5.942613e-04 1.483692e-02 -3.928684e-03)) ((-2.301413e-06 8.361832e-07 -5.345905e-07) (5.353300e-04 -3.642526e-05 4.858610e-05))
3.318498      	((6.852481e-02 7.789414e-02 -4.074669e-01) (5.153281e-04 1.485915e-02 -3.914818e-03)) ((-2.286756e-06 7.944598e-07 -5.179509e-07) (5.366597e-04 -3.347350e-05 4.806542e-05))
3.3689        	((6.593886e-02 7.552443e-02 -4.078277e-01) (4.460352e-04 1.487991e-02 -3.904989e-03)) ((-2.239237e-06 7.999231e-07 -5.147055e-07) (5.379200e-04 -3.067443e-05 4.729355e-05))
3.419353      	((6.506899e-02 7.356446e-02 -4.085007e-01) (3.916516e-04 1.489951e-02 -3.901450e-03)) ((-2.157095e-06 8.587626e-07 -5.256502e-07) (5.390424e-04 -2.828163e-05 4.639260e-05))
3.469855      	((6.526942e-02 7.181508e-02 -4.096827e-01) (3.560337e-04 1.491844e-02 -3.907853e-03)) ((-2.037863e-06 9.737055e-07 -5.402253e-07) (5.398956e-04 -2.652330e-05 4.532330e-05))
3.5204        	((6.608586e-02 7.013285e-02 -4.113854e-01) (3.435720e-04 1.493597e-02 -3.929407e-03)) ((-1.913697e-06 1.110047e-06 -5.439946e-07) (5.402306e-04 -2.560494e-05 4.392039e-05))
3.570981      	((6.711283e-02 6.851093e-02 -4.133155e-01) (3.504225e-04 1.494790e-02 -3.967516e-03)) ((-1.805144e-06 1.242199e-06 -5.260252e-07) (5.398691e-04 -2.550501e-05 4.233773e-05))
3.621587      	((6.783396e-02 6.684761e-02 -4.152027e-01) (3.652107e-04 1.495055e-02 -4.014149e-03)) ((-1.702863e-06 1.351139e-06 -5.057167e-07) (5.389613e-04 -2.586706e-05 4.097842e-05))
3.672211      	((6.793795e-02 6.579188e-02 -4.168821e-01) (3.757952e-04 1.494340e-02 -4.056773e-03)) ((-1.621022e-06 1.429031e-06 -4.882210e-07) (5.378695e-04 -2.624426e-05 4.018642e-05))
3.722844      	((6.753479e-02 6.531150e-02 -4.178665e-01) (3.790223e-04 1.493245e-02 -4.086872e-03)) ((-1.592219e-06 1.440024e-06 -4.817542e-07) (5.369256e-04 -2.640649e-05 3.984942e-05))
3.773482      	((6.684277e-02 6.507329e-02 -4.180824e-01) (3.767537e-04 1.492239e-02 -4.104093e-03)) ((-1.610154e-06 1.394447e-06 -4.843664e-07) (5.361583e-04 -2.631577e-05 3.973170e-05))
3.824121      	((6.583489e-02 6.523027e-02 -4.179122e-01) (3.688167e-04 1.491261e-02 -4.111033e-03)) ((-1.643121e-06 1.310631e-06 -4.905234e-07) (5.354997e-04 -2.599612e-05 3.982361e-05))
3.874759      	((6.433266e-02 6.566063e-02 -4.177296e-01) (3.528118e-04 1.490434e-02 -4.109905e-03)) ((-1.690425e-06 1.187176e-06 -4.927806e-07) (5.349800e-04 -2.542997e-05 4.011598e-05))
3.925397      	((6.265837e-02 6.609409e-02 -4.174873e-01) (3.289863e-04 1.489680e-02 -4.102154e-03)) ((-1.742770e-06 1.061227e-06 -4.876239e-07) (5.346247e-04 -2.459079e-05 4.059038e-05))
3.976036      	((6.087552e-02 6.664110e-02 -4.171556e-01) (2.989818e-04 1.489109e-02 -4.088026e-03)) ((-1.825785e-06 9.213628e-07 -4.722103e-07) (5.345057e-04 -2.345741e-05 4.116381e-05))
4.02668       	((5.915034e-02 6.719520e-02 -4.170061e-01) (2.616065e-04 1.488778e-02 -4.070484e-03)) ((-1.914767e-06 8.083335e-07 -4.470484e-07) (5.346471e-04 -2.213515e-05 4.191022e-05))
4.077331      	((5.771949e-02 6.706070e-02 -4.169180e-01) (2.198103e-04 1.488351e-02 -4.055047e-03)) ((-1.969630e-06 7.642692e-07 -4.213909e-07) (5.349007e-04 -2.081191e-05 4.281217e-05))
4.127996      	((5.699665e-02 6.638287e-02 -4.169102e-01) (1.855731e-04 1.488047e-02 -4.045087e-03)) ((-1.991763e-06 7.887151e-07 -4.115896e-07) (5.351856e-04 -1.969579e-05 4.335132e-05))
4.178679      	((5.677002e-02 6.535745e-02 -4.171884e-01) (1.671063e-04 1.488125e-02 -4.043799e-03)) ((-1.959880e-06 8.835540e-07 -4.251950e-07) (5.354016e-04 -1.897811e-05 4.318484e-05))
4.229382      	((5.698633e-02 6.392345e-02 -4.175132e-01) (1.631943e-04 1.488296e-02 -4.054682e-03)) ((-1.858287e-06 1.042344e-06 -4.520794e-07) (5.353500e-04 -1.876161e-05 4.246059e-05))
4.280108      	((5.746286e-02 6.282364e-02 -4.178800e-01) (1.698983e-04 1.488345e-02 -4.078539e-03)) ((-1.727328e-06 1.215235e-06 -4.675665e-07) (5.349050e-04 -1.902147e-05 4.143417e-05))
4.330854      	((5.775253e-02 6.200885e-02 -4.184097e-01) (1.820630e-04 1.488053e-02 -4.111626e-03)) ((-1.604462e-06 1.351441e-06 -4.722244e-07) (5.340680e-04 -1.959044e-05 4.038540e-05))
4.381619      	((5.813932e-02 6.180994e-02 -4.187646e-01) (1.938165e-04 1.487278e-02 -4.145652e-03)) ((-1.528075e-06 1.433071e-06 -4.745249e-07) (5.330470e-04 -2.020665e-05 3.960656e-05))
4.432399      	((5.861692e-02 6.213082e-02 -4.188969e-01) (2.019209e-04 1.486030e-02 -4.171085e-03)) ((-1.523110e-06 1.451642e-06 -4.781563e-07) (5.321599e-04 -2.064748e-05 3.926070e-05))
4.483191      	((5.943972e-02 6.288595e-02 -4.187044e-01) (2.060935e-04 1.484535e-02 -4.183050e-03)) ((-1.574088e-06 1.420901e-06 -4.854780e-07) (5.316092e-04 -2.083310e-05 3.933560e-05))
4.53399       	((6.068709e-02 6.385172e-02 -4.183458e-01) (2.078000e-04 1.483078e-02 -4.182529e-03)) ((-1.646310e-06 1.367858e-06 -4.952224e-07) (5.314497e-04 -2.083722e-05 3.976575e-05))
