# Forces      
# CofR        : (0.000000e+00 0.000000e+00 0.000000e+00)
# Time        forces(pressure viscous)	moments(pressure viscous)
0             	((0.000000e+00 0.000000e+00 0.000000e+00) (3.991501e-03 -3.504679e-13 3.846131e-08)) ((0.000000e+00 0.000000e+00 0.000000e+00) (-9.089785e-15 -8.968395e-05 -4.405120e-14))
0.012         	((1.173026e+00 2.874750e-06 2.711888e-01) (4.920142e-03 -1.422583e-08 -1.322374e-04)) ((-1.718193e-10 1.709051e-05 -1.685720e-10) (-2.396123e-10 -1.464225e-04 9.853850e-12))
0.0264        	((-2.456798e-01 -6.131082e-05 -9.284626e-02) (4.899495e-03 -5.967294e-08 -2.014826e-04)) ((-5.068181e-10 -3.454104e-06 -9.957512e-10) (-1.721752e-09 -1.618375e-04 1.134854e-09))
0.04368       	((-1.446035e-01 5.316579e-05 -6.035595e-02) (4.176999e-03 -3.999720e-08 -1.993455e-04)) ((3.623724e-10 -2.734404e-06 5.786055e-10) (-1.145579e-09 -1.414023e-04 4.593443e-10))
0.064416      	((-8.158941e-05 2.477404e-06 -4.093557e-02) (3.685360e-03 3.440100e-09 -2.213847e-04)) ((-1.090398e-10 -1.453396e-07 3.516551e-10) (5.338860e-10 -1.285545e-04 -6.237296e-10))
0.0892992     	((-1.024307e-03 -1.253779e-05 -3.489912e-02) (3.389897e-03 1.523826e-08 -2.545413e-04)) ((3.151764e-10 -1.668377e-07 5.059553e-10) (-2.235987e-10 -1.208355e-04 4.798668e-10))
0.119159      	((-1.565854e-04 -1.962987e-06 -3.209926e-02) (3.144478e-03 2.392579e-08 -2.781953e-04)) ((6.974905e-11 -1.765316e-07 1.106439e-09) (-1.307828e-09 -1.133004e-04 1.951286e-09))
0.154991      	((1.017269e-03 -2.162713e-06 -3.040606e-02) (2.935608e-03 1.102496e-08 -2.943825e-04)) ((2.295019e-10 -1.413263e-07 1.112554e-09) (-1.810059e-09 -1.064658e-04 1.551782e-09))
0.197989      	((1.458131e-03 -2.008906e-06 -2.942583e-02) (2.764516e-03 1.411916e-08 -3.087836e-04)) ((2.416161e-10 -1.303776e-07 6.458793e-10) (-2.582413e-09 -1.005366e-04 5.085628e-10))
0.249587      	((1.707125e-03 -1.178183e-06 -2.879401e-02) (2.621435e-03 2.383518e-08 -3.249476e-04)) ((1.866777e-10 -1.141819e-07 2.547890e-10) (-3.570313e-09 -9.532957e-05 -2.128975e-10))
0.311504      	((1.875949e-03 -8.844737e-07 -2.841473e-02) (2.492968e-03 1.691071e-08 -3.475539e-04)) ((7.645577e-11 -9.517959e-08 1.708885e-11) (-4.280016e-09 -9.053359e-05 -5.106664e-10))
0.385805      	((2.040716e-03 -2.837985e-07 -2.812320e-02) (2.372266e-03 1.660836e-08 -3.779879e-04)) ((2.597684e-11 -7.681580e-08 -2.381976e-11) (-4.495029e-09 -8.594879e-05 -6.557461e-10))
0.474966      	((2.248697e-03 -4.487274e-07 -2.787406e-02) (2.257775e-03 2.455520e-08 -4.144371e-04)) ((-9.001448e-12 -5.842048e-08 -7.184275e-12) (-4.366936e-09 -8.152644e-05 -1.225213e-09))
0.581959      	((2.526645e-03 -1.021982e-06 -2.762202e-02) (2.150905e-03 2.397641e-08 -4.550398e-04)) ((1.172478e-11 -3.911525e-08 -4.210935e-12) (-4.248250e-09 -7.732342e-05 -1.401080e-09))
0.709915      	((2.895281e-03 -1.292472e-06 -2.736320e-02) (2.054272e-03 6.781669e-09 -4.975695e-04)) ((2.791444e-11 -1.899825e-08 -2.549374e-11) (-4.173501e-09 -7.345463e-05 -1.344723e-09))
0.858703      	((3.368638e-03 -1.859527e-06 -2.709880e-02) (1.970192e-03 -3.385118e-08 -5.389566e-04)) ((3.459977e-11 2.001269e-09 -3.282255e-11) (-4.270970e-09 -7.004943e-05 -1.267951e-09))
1.028185      	((3.934185e-03 -2.183186e-06 -2.683253e-02) (1.898648e-03 -7.340774e-08 -5.773132e-04)) ((6.496032e-11 2.186279e-08 -3.120856e-11) (-4.672772e-09 -6.714365e-05 -1.234914e-09))
1.218196      	((4.593158e-03 -2.223291e-06 -2.654504e-02) (1.839673e-03 -9.985406e-08 -6.107142e-04)) ((9.289500e-11 3.858158e-08 -3.333756e-11) (-5.227648e-09 -6.474361e-05 -1.527264e-09))
1.421328      	((5.291381e-03 -2.368874e-06 -2.622054e-02) (1.793307e-03 -1.207635e-07 -6.379155e-04)) ((1.009778e-10 5.049910e-08 -2.695429e-12) (-5.550721e-09 -6.279711e-05 -1.878231e-09))
1.621903      	((5.971577e-03 -1.844736e-06 -2.582816e-02) (1.755399e-03 -1.186587e-07 -6.579316e-04)) ((9.010168e-11 5.781718e-08 2.343609e-11) (-5.216809e-09 -6.117576e-05 -1.130219e-09))
1.820078      	((6.581075e-03 -1.292363e-06 -2.538956e-02) (1.721482e-03 -8.628581e-08 -6.711293e-04)) ((8.523099e-11 6.427490e-08 3.622959e-11) (-4.194647e-09 -5.976473e-05 -6.575701e-10))
2.016656      	((7.106206e-03 -1.796379e-06 -2.491871e-02) (1.691751e-03 -7.596411e-08 -6.776531e-04)) ((9.440858e-11 7.266287e-08 2.460728e-11) (-3.385789e-09 -5.859972e-05 -1.317213e-09))
2.212805      	((7.489251e-03 -2.834225e-06 -2.443841e-02) (1.665856e-03 -1.103719e-07 -6.793752e-04)) ((1.171305e-10 8.187293e-08 2.805377e-12) (-3.521890e-09 -5.767124e-05 -2.820291e-09))
2.409221      	((7.746761e-03 -3.582056e-06 -2.397299e-02) (1.642520e-03 -1.601007e-07 -6.791754e-04)) ((1.657637e-10 9.192016e-08 -3.537109e-11) (-4.611313e-09 -5.688774e-05 -4.969905e-09))
2.60578       	((7.837850e-03 -5.989597e-06 -2.350979e-02) (1.621190e-03 -1.987780e-07 -6.787010e-04)) ((2.454838e-10 1.012970e-07 2.403287e-11) (-6.210022e-09 -5.619154e-05 -6.589892e-09))
2.801955      	((7.818532e-03 -8.235963e-06 -2.307553e-02) (1.601748e-03 -2.360658e-07 -6.779172e-04)) ((2.027404e-10 1.093314e-07 8.112538e-11) (-7.599155e-09 -5.557979e-05 -7.507040e-09))
2.997413      	((7.740852e-03 -9.458220e-06 -2.267097e-02) (1.584226e-03 -2.925836e-07 -6.760782e-04)) ((1.510964e-10 1.166298e-07 9.897599e-11) (-8.435834e-09 -5.507248e-05 -8.961898e-09))
3.192211      	((7.636014e-03 -1.163874e-05 -2.231278e-02) (1.569065e-03 -3.632114e-07 -6.732972e-04)) ((7.794341e-11 1.214820e-07 1.203643e-12) (-9.453843e-09 -5.466762e-05 -1.113582e-08))
3.386574      	((7.512136e-03 -1.403651e-05 -2.195467e-02) (1.556169e-03 -4.108437e-07 -6.705911e-04)) ((1.775362e-11 1.240961e-07 -1.522081e-10) (-1.101837e-08 -5.432309e-05 -1.130883e-08))
3.580646      	((7.393439e-03 -1.581686e-05 -2.161541e-02) (1.544322e-03 -4.355878e-07 -6.686342e-04)) ((-1.774502e-11 1.246794e-07 -1.846780e-10) (-1.219959e-08 -5.398766e-05 -9.697302e-09))
3.774437      	((7.306275e-03 -1.754122e-05 -2.133572e-02) (1.533034e-03 -4.667536e-07 -6.669776e-04)) ((5.857398e-11 1.237648e-07 -1.997390e-10) (-1.344743e-08 -5.366280e-05 -7.987016e-09))
3.967948      	((7.231840e-03 -1.914141e-05 -2.108628e-02) (1.522596e-03 -5.143844e-07 -6.652564e-04)) ((1.166326e-10 1.224527e-07 -2.138312e-10) (-1.593828e-08 -5.336445e-05 -7.299458e-09))
4.161191      	((7.169017e-03 -2.150682e-05 -2.087141e-02) (1.513275e-03 -5.668974e-07 -6.635865e-04)) ((1.494895e-10 1.220256e-07 -1.997966e-10) (-1.925370e-08 -5.309727e-05 -6.559401e-09))
4.35416       	((7.097501e-03 -2.293144e-05 -2.066594e-02) (1.504824e-03 -6.098248e-07 -6.619799e-04)) ((1.895019e-10 1.222930e-07 -1.868350e-10) (-2.232185e-08 -5.285778e-05 -4.788535e-09))
4.546839      	((7.034206e-03 -2.587294e-05 -2.048033e-02) (1.496970e-03 -6.622995e-07 -6.603963e-04)) ((3.209932e-10 1.229691e-07 -1.762225e-10) (-2.598150e-08 -5.264265e-05 -2.975448e-09))
4.739237      	((6.975153e-03 -2.896031e-05 -2.030265e-02) (1.489702e-03 -7.512891e-07 -6.589254e-04)) ((3.977127e-10 1.236854e-07 -1.692844e-10) (-3.042103e-08 -5.244747e-05 -2.411350e-09))
4.931362      	((6.915709e-03 -3.233074e-05 -2.014920e-02) (1.482941e-03 -8.522629e-07 -6.577693e-04)) ((4.421188e-10 1.240487e-07 -1.730999e-10) (-3.512390e-08 -5.226193e-05 -2.442555e-09))
5.12324       	((6.858967e-03 -3.767401e-05 -2.000909e-02) (1.476624e-03 -9.775493e-07 -6.570112e-04)) ((4.882153e-10 1.240653e-07 -1.613143e-10) (-4.052312e-08 -5.208114e-05 -2.279131e-09))
5.314885      	((6.806326e-03 -4.162464e-05 -1.985974e-02) (1.470763e-03 -1.121047e-06 -6.564488e-04)) ((5.461923e-10 1.241544e-07 -1.253376e-10) (-4.677155e-08 -5.191042e-05 -1.832431e-09))
5.506301      	((6.769436e-03 -4.591100e-05 -1.972416e-02) (1.465330e-03 -1.248032e-06 -6.558466e-04)) ((5.956914e-10 1.247182e-07 -8.265344e-11) (-5.291147e-08 -5.175577e-05 -2.372180e-10))
5.697498      	((6.737107e-03 -4.970041e-05 -1.959113e-02) (1.460202e-03 -1.359979e-06 -6.550932e-04)) ((6.525323e-10 1.257750e-07 -7.193338e-11) (-5.854391e-08 -5.161698e-05 1.732593e-09))
5.888485      	((6.704451e-03 -5.566582e-05 -1.946570e-02) (1.455378e-03 -1.473409e-06 -6.542448e-04)) ((7.382908e-10 1.268506e-07 -7.952433e-11) (-6.435621e-08 -5.149254e-05 4.250659e-09))
6.079271      	((6.665112e-03 -6.192516e-05 -1.934166e-02) (1.450835e-03 -1.597787e-06 -6.534542e-04)) ((8.119514e-10 1.276429e-07 -9.723251e-11) (-7.057242e-08 -5.137691e-05 7.587221e-09))
6.269865      	((6.623227e-03 -6.975362e-05 -1.921931e-02) (1.446449e-03 -1.754548e-06 -6.528604e-04)) ((8.738343e-10 1.281050e-07 -1.216623e-10) (-7.774266e-08 -5.126142e-05 1.059163e-08))
6.460276      	((6.586519e-03 -7.575671e-05 -1.910225e-02) (1.442200e-03 -1.933881e-06 -6.525039e-04)) ((8.952283e-10 1.283123e-07 -1.388200e-10) (-8.539585e-08 -5.114358e-05 1.282120e-08))
6.65051       	((6.552457e-03 -8.416685e-05 -1.898501e-02) (1.438087e-03 -2.141038e-06 -6.523371e-04)) ((9.567750e-10 1.281577e-07 -1.537578e-10) (-9.365354e-08 -5.102332e-05 1.459527e-08))
6.840573      	((6.526824e-03 -9.187619e-05 -1.887476e-02) (1.434109e-03 -2.367729e-06 -6.522976e-04)) ((1.014428e-09 1.279819e-07 -1.572186e-10) (-1.024703e-07 -5.090212e-05 1.643181e-08))
7.030466      	((6.505160e-03 -1.001298e-04 -1.876965e-02) (1.430284e-03 -2.614935e-06 -6.522959e-04)) ((1.064067e-09 1.278861e-07 -1.816409e-10) (-1.119273e-07 -5.078417e-05 1.851578e-08))
7.220195      	((6.483600e-03 -1.096222e-04 -1.866707e-02) (1.426587e-03 -2.879085e-06 -6.522566e-04)) ((1.151911e-09 1.278652e-07 -2.106431e-10) (-1.224802e-07 -5.067167e-05 2.094988e-08))
7.409763      	((6.463378e-03 -1.211625e-04 -1.856792e-02) (1.423014e-03 -3.168864e-06 -6.521547e-04)) ((1.305327e-09 1.279726e-07 -2.328322e-10) (-1.347884e-07 -5.056485e-05 2.306351e-08))
7.599176      	((6.443691e-03 -1.318549e-04 -1.847183e-02) (1.419623e-03 -3.484044e-06 -6.519759e-04)) ((1.476321e-09 1.282012e-07 -2.600419e-10) (-1.483388e-07 -5.046485e-05 2.409024e-08))
7.788438      	((6.424475e-03 -1.422053e-04 -1.837952e-02) (1.416473e-03 -3.812136e-06 -6.517192e-04)) ((1.636056e-09 1.284380e-07 -2.950250e-10) (-1.623571e-07 -5.037286e-05 2.437677e-08))
7.977554      	((6.403232e-03 -1.547156e-04 -1.828785e-02) (1.413550e-03 -4.147927e-06 -6.513888e-04)) ((1.818531e-09 1.286064e-07 -3.380848e-10) (-1.769842e-07 -5.028860e-05 2.551298e-08))
8.166532      	((6.383066e-03 -1.709419e-04 -1.819986e-02) (1.410791e-03 -4.490814e-06 -6.509746e-04)) ((2.057097e-09 1.287579e-07 -3.726560e-10) (-1.930126e-07 -5.021154e-05 3.013814e-08))
8.355377      	((6.363310e-03 -1.894548e-04 -1.811194e-02) (1.408155e-03 -4.856989e-06 -6.504790e-04)) ((2.288479e-09 1.288705e-07 -4.006144e-10) (-2.107685e-07 -5.014084e-05 3.769848e-08))
8.544096      	((6.343233e-03 -2.095507e-04 -1.802417e-02) (1.405619e-03 -5.285731e-06 -6.499228e-04)) ((2.553796e-09 1.289349e-07 -4.317194e-10) (-2.307215e-07 -5.007468e-05 4.559930e-08))
8.732695      	((6.324184e-03 -2.330729e-04 -1.793994e-02) (1.403183e-03 -5.798147e-06 -6.493240e-04)) ((2.889463e-09 1.289805e-07 -4.706343e-10) (-2.537290e-07 -5.001239e-05 5.314169e-08))
8.921198      	((6.306443e-03 -2.585594e-04 -1.785797e-02) (1.400843e-03 -6.392163e-06 -6.486945e-04)) ((3.271418e-09 1.290635e-07 -4.965309e-10) (-2.800084e-07 -4.995374e-05 6.116807e-08))
9.109616      	((6.289248e-03 -2.872257e-04 -1.777818e-02) (1.398578e-03 -7.066827e-06 -6.480648e-04)) ((3.686849e-09 1.291662e-07 -5.122346e-10) (-3.098768e-07 -4.989740e-05 7.057081e-08))
9.297952      	((6.271775e-03 -3.209236e-04 -1.769988e-02) (1.396369e-03 -7.832282e-06 -6.474638e-04)) ((4.142523e-09 1.292848e-07 -5.232168e-10) (-3.441962e-07 -4.984201e-05 8.149360e-08))
9.486208      	((6.252535e-03 -3.579494e-04 -1.762185e-02) (1.394188e-03 -8.690569e-06 -6.468773e-04)) ((4.578025e-09 1.294255e-07 -5.189481e-10) (-3.830145e-07 -4.978715e-05 9.419135e-08))
9.674384      	((6.233431e-03 -3.975425e-04 -1.754625e-02) (1.392048e-03 -9.640379e-06 -6.462808e-04)) ((5.011679e-09 1.295597e-07 -5.069883e-10) (-4.256054e-07 -4.973355e-05 1.080614e-07))
9.862485      	((6.214312e-03 -4.410966e-04 -1.747225e-02) (1.389972e-03 -1.069321e-05 -6.456718e-04)) ((5.516149e-09 1.296690e-07 -4.997299e-10) (-4.721171e-07 -4.968161e-05 1.224952e-07))
10.050512     	((6.193564e-03 -4.885478e-04 -1.739676e-02) (1.387949e-03 -1.186109e-05 -6.450503e-04)) ((6.110397e-09 1.297575e-07 -4.949626e-10) (-5.232861e-07 -4.963113e-05 1.379302e-07))
10.238469     	((6.173665e-03 -5.415951e-04 -1.732141e-02) (1.385969e-03 -1.315791e-05 -6.443856e-04)) ((6.791945e-09 1.299086e-07 -4.988572e-10) (-5.797886e-07 -4.958253e-05 1.545715e-07))
10.426352     	((6.155599e-03 -5.982527e-04 -1.724943e-02) (1.384063e-03 -1.459291e-05 -6.436601e-04)) ((7.539001e-09 1.301120e-07 -5.212250e-10) (-6.418092e-07 -4.953662e-05 1.718255e-07))
10.614165     	((6.138402e-03 -6.606846e-04 -1.717826e-02) (1.382211e-03 -1.617067e-05 -6.429158e-04)) ((8.348782e-09 1.303697e-07 -5.607225e-10) (-7.102884e-07 -4.949245e-05 1.906515e-07))
10.801913     	((6.122725e-03 -7.292393e-04 -1.711020e-02) (1.380405e-03 -1.790189e-05 -6.421726e-04)) ((9.198274e-09 1.306438e-07 -6.232272e-10) (-7.858996e-07 -4.944964e-05 2.111676e-07))
10.989597     	((6.109730e-03 -8.029903e-04 -1.704599e-02) (1.378685e-03 -1.981291e-05 -6.414085e-04)) ((1.012384e-08 1.309685e-07 -7.094752e-10) (-8.686507e-07 -4.940934e-05 2.317990e-07))
11.17722      	((6.097129e-03 -8.830189e-04 -1.698605e-02) (1.377060e-03 -2.191277e-05 -6.406365e-04)) ((1.113059e-08 1.312537e-07 -8.088515e-10) (-9.592376e-07 -4.937185e-05 2.529952e-07))
11.364783     	((6.087621e-03 -9.703561e-04 -1.693415e-02) (1.375549e-03 -2.421717e-05 -6.398855e-04)) ((1.227413e-08 1.315257e-07 -9.285491e-10) (-1.059010e-06 -4.933752e-05 2.750311e-07))
11.552284     	((6.079482e-03 -1.067973e-03 -1.688630e-02) (1.374169e-03 -2.678471e-05 -6.391592e-04)) ((1.354647e-08 1.318599e-07 -1.072209e-09) (-1.169626e-06 -4.930699e-05 2.971084e-07))
11.739721     	((6.072040e-03 -1.177382e-03 -1.683877e-02) (1.372871e-03 -2.964884e-05 -6.384581e-04)) ((1.491609e-08 1.322818e-07 -1.230584e-09) (-1.292362e-06 -4.927949e-05 3.214461e-07))
11.927098     	((6.066989e-03 -1.299287e-03 -1.679265e-02) (1.371640e-03 -3.281693e-05 -6.377710e-04)) ((1.641659e-08 1.327715e-07 -1.396729e-09) (-1.428215e-06 -4.925533e-05 3.496149e-07))
12.114418     	((6.067270e-03 -1.435234e-03 -1.675231e-02) (1.370518e-03 -3.633026e-05 -6.370855e-04)) ((1.804696e-08 1.333002e-07 -1.577443e-09) (-1.578475e-06 -4.923590e-05 3.813665e-07))
12.301684     	((6.074113e-03 -1.587059e-03 -1.671675e-02) (1.369529e-03 -4.022264e-05 -6.363952e-04)) ((1.985248e-08 1.338920e-07 -1.781001e-09) (-1.745068e-06 -4.922249e-05 4.176823e-07))
12.488897     	((6.084783e-03 -1.753853e-03 -1.668269e-02) (1.368662e-03 -4.449570e-05 -6.357061e-04)) ((2.181515e-08 1.345601e-07 -2.010165e-09) (-1.929249e-06 -4.921465e-05 4.603283e-07))
12.676061     	((6.101995e-03 -1.939370e-03 -1.665185e-02) (1.367946e-03 -4.918009e-05 -6.350125e-04)) ((2.397073e-08 1.353807e-07 -2.260794e-09) (-2.132616e-06 -4.921291e-05 5.104061e-07))
12.863178     	((6.124216e-03 -2.146054e-03 -1.662196e-02) (1.367437e-03 -5.434628e-05 -6.343075e-04)) ((2.635467e-08 1.364232e-07 -2.516427e-09) (-2.358458e-06 -4.921889e-05 5.675807e-07))
13.05025      	((6.154993e-03 -2.372992e-03 -1.659916e-02) (1.367215e-03 -6.009209e-05 -6.335466e-04)) ((2.888447e-08 1.377678e-07 -2.777347e-09) (-2.608748e-06 -4.923573e-05 6.300883e-07))
13.23728      	((6.192036e-03 -2.622020e-03 -1.658096e-02) (1.367366e-03 -6.650519e-05 -6.326854e-04)) ((3.165875e-08 1.393078e-07 -3.046528e-09) (-2.884788e-06 -4.926685e-05 6.978068e-07))
13.424218     	((6.231971e-03 -2.897459e-03 -1.656598e-02) (1.367847e-03 -7.362389e-05 -6.317729e-04)) ((3.480177e-08 1.408523e-07 -3.349434e-09) (-3.189457e-06 -4.931130e-05 7.728021e-07))
13.610999     	((6.283071e-03 -3.199565e-03 -1.655725e-02) (1.368622e-03 -8.149147e-05 -6.308163e-04)) ((3.835767e-08 1.427030e-07 -3.664193e-09) (-3.526830e-06 -4.936957e-05 8.568540e-07))
13.79761      	((6.345093e-03 -3.523429e-03 -1.656045e-02) (1.369679e-03 -9.015720e-05 -6.297872e-04)) ((4.218405e-08 1.447283e-07 -3.953621e-09) (-3.898498e-06 -4.944422e-05 9.507308e-07))
13.984032     	((6.420753e-03 -3.870205e-03 -1.657939e-02) (1.371136e-03 -9.963335e-05 -6.287006e-04)) ((4.619124e-08 1.468472e-07 -4.163521e-09) (-4.304504e-06 -4.953855e-05 1.053611e-06))
14.170251     	((6.511221e-03 -4.241836e-03 -1.661162e-02) (1.373140e-03 -1.098823e-04 -6.276153e-04)) ((5.033999e-08 1.489943e-07 -4.263523e-09) (-4.745251e-06 -4.965336e-05 1.167404e-06))
14.356259     	((6.618117e-03 -4.639103e-03 -1.665872e-02) (1.375829e-03 -1.209901e-04 -6.264834e-04)) ((5.469821e-08 1.512992e-07 -4.162127e-09) (-5.222088e-06 -4.979234e-05 1.288201e-06))
14.542049     	((6.746691e-03 -5.059177e-03 -1.672633e-02) (1.379335e-03 -1.330252e-04 -6.251970e-04)) ((5.925670e-08 1.539580e-07 -3.851958e-09) (-5.734266e-06 -4.996455e-05 1.411794e-06))
14.727602     	((6.901543e-03 -5.505216e-03 -1.680893e-02) (1.383846e-03 -1.460816e-04 -6.236869e-04)) ((6.412886e-08 1.571417e-07 -3.447024e-09) (-6.283321e-06 -5.017941e-05 1.533526e-06))
14.912918     	((7.080833e-03 -5.974241e-03 -1.691134e-02) (1.389430e-03 -1.602195e-04 -6.219051e-04)) ((6.922693e-08 1.609852e-07 -3.061919e-09) (-6.870539e-06 -5.044153e-05 1.653458e-06))
15.098018     	((7.289472e-03 -6.457483e-03 -1.703328e-02) (1.396118e-03 -1.753071e-04 -6.197833e-04)) ((7.417245e-08 1.654289e-07 -2.733061e-09) (-7.491347e-06 -5.075461e-05 1.774163e-06))
15.282872     	((7.531284e-03 -6.960321e-03 -1.717522e-02) (1.404012e-03 -1.912893e-04 -6.174290e-04)) ((7.911406e-08 1.702763e-07 -2.449616e-09) (-8.143139e-06 -5.111950e-05 1.897059e-06))
15.467439     	((7.805935e-03 -7.467243e-03 -1.734251e-02) (1.413225e-03 -2.081032e-04 -6.149072e-04)) ((8.406966e-08 1.755802e-07 -2.212285e-09) (-8.821792e-06 -5.153727e-05 2.019794e-06))
15.651696     	((8.119023e-03 -7.971033e-03 -1.753985e-02) (1.423886e-03 -2.257103e-04 -6.122306e-04)) ((8.886377e-08 1.814359e-07 -2.111891e-09) (-9.521905e-06 -5.201040e-05 2.132840e-06))
15.835626     	((8.471697e-03 -8.459427e-03 -1.776874e-02) (1.435995e-03 -2.439133e-04 -6.093501e-04)) ((9.326117e-08 1.879061e-07 -1.912292e-09) (-1.023461e-05 -5.254099e-05 2.235959e-06))
16.019206     	((8.857663e-03 -8.920464e-03 -1.803334e-02) (1.449675e-03 -2.624393e-04 -6.061457e-04)) ((9.711320e-08 1.946226e-07 -1.532564e-09) (-1.094910e-05 -5.313213e-05 2.327954e-06))
16.202431     	((9.271075e-03 -9.336368e-03 -1.832453e-02) (1.465150e-03 -2.810304e-04 -6.025902e-04)) ((1.003785e-07 2.014454e-07 -1.048087e-09) (-1.165649e-05 -5.378466e-05 2.401438e-06))
16.385329     	((9.689309e-03 -9.686363e-03 -1.863434e-02) (1.482381e-03 -2.993050e-04 -5.986391e-04)) ((1.027368e-07 2.081563e-07 -4.919321e-10) (-1.234536e-05 -5.449376e-05 2.447873e-06))
16.567964     	((1.008631e-02 -9.943914e-03 -1.895844e-02) (1.500968e-03 -3.167945e-04 -5.942907e-04)) ((1.035743e-07 2.137925e-07 7.140593e-11) (-1.299662e-05 -5.524649e-05 2.460734e-06))
16.750427     	((1.045532e-02 -1.009374e-02 -1.929334e-02) (1.520185e-03 -3.329829e-04 -5.894984e-04)) ((1.027788e-07 2.185653e-07 6.469268e-10) (-1.358949e-05 -5.602669e-05 2.443778e-06))
16.932903     	((1.076277e-02 -1.010863e-02 -1.962522e-02) (1.539072e-03 -3.472151e-04 -5.844894e-04)) ((1.002891e-07 2.215476e-07 1.142559e-09) (-1.410119e-05 -5.680299e-05 2.402737e-06))
17.115539     	((1.097447e-02 -9.969562e-03 -1.994174e-02) (1.556647e-03 -3.586230e-04 -5.796234e-04)) ((9.610995e-08 2.227261e-07 1.646125e-09) (-1.450809e-05 -5.753530e-05 2.341671e-06))
17.29847      	((1.108167e-02 -9.638151e-03 -2.025290e-02) (1.572205e-03 -3.662387e-04 -5.750853e-04)) ((8.969156e-08 2.215435e-07 2.302053e-09) (-1.477566e-05 -5.819124e-05 2.254099e-06))
17.481846     	((1.105406e-02 -9.090000e-03 -2.051778e-02) (1.585142e-03 -3.691791e-04 -5.709725e-04)) ((8.112195e-08 2.178489e-07 3.008414e-09) (-1.485590e-05 -5.874200e-05 2.123851e-06))
17.66584      	((1.087010e-02 -8.316700e-03 -2.074274e-02) (1.594900e-03 -3.662641e-04 -5.672541e-04)) ((7.084293e-08 2.120421e-07 3.540881e-09) (-1.469605e-05 -5.916733e-05 1.951659e-06))
17.850668     	((1.051447e-02 -7.302472e-03 -2.091089e-02) (1.600625e-03 -3.558455e-04 -5.640894e-04)) ((5.844410e-08 2.043806e-07 4.603708e-09) (-1.424326e-05 -5.943893e-05 1.766044e-06))
18.0366       	((1.005565e-02 -6.050119e-03 -2.104079e-02) (1.601862e-03 -3.363465e-04 -5.618129e-04)) ((4.385445e-08 1.968444e-07 7.170813e-09) (-1.345906e-05 -5.953811e-05 1.596134e-06))
