# Forces      
# CofR        : (0.000000e+00 0.000000e+00 0.000000e+00)
# Time        forces(pressure viscous)	moments(pressure viscous)
0             	((0.000000e+00 0.000000e+00 0.000000e+00) (8.839702e-07 1.695057e-09 9.547494e-02)) ((0.000000e+00 0.000000e+00 0.000000e+00) (-4.978390e-10 5.127902e-08 -1.297121e-12))
0.00522961    	((2.687080e-02 1.930542e-02 1.769021e+01) (2.579811e-05 2.406260e-05 1.280524e-01)) ((1.102811e-06 4.759123e-06 2.090450e-08) (2.343863e-06 -2.566065e-06 2.351791e-08))
0.0113521     	((7.620601e-03 -2.040981e-03 -9.506797e+00) (6.308218e-05 3.857338e-05 1.203433e-01)) ((5.286648e-07 -1.553945e-05 -6.340179e-08) (2.727962e-06 -3.552635e-06 2.652639e-08))
0.0184297     	((3.793330e-03 -1.203504e-03 1.357992e+00) (5.148997e-05 1.945329e-05 9.686971e-02)) ((-8.394981e-07 -1.535245e-06 8.149801e-09) (1.786190e-06 -1.249081e-06 -1.925468e-09))
0.02652       	((9.108647e-03 -8.526145e-04 -1.115499e+00) (3.270075e-05 5.245481e-06 8.794630e-02)) ((-3.429838e-07 -7.564558e-06 -3.555655e-08) (9.987776e-07 -7.010668e-07 3.563271e-08))
0.0356139     	((4.248958e-03 -2.352149e-03 1.080908e-01) (4.897661e-05 -7.299155e-06 8.382339e-02)) ((-2.358962e-08 -4.662278e-06 4.196620e-08) (-7.762624e-08 -7.930435e-07 3.340617e-08))
0.0456313     	((5.999576e-03 -1.244147e-03 -5.275558e-01) (7.097874e-05 -1.900757e-06 8.002357e-02)) ((-9.644256e-08 -6.980875e-06 1.889882e-08) (3.730316e-07 -8.091216e-07 -3.488896e-08))
0.055753      	((5.397915e-03 -1.008745e-03 -1.969216e-01) (8.427951e-05 9.072624e-06 7.781969e-02)) ((-4.680516e-08 -5.628365e-06 4.909634e-09) (9.822559e-07 -2.535255e-06 -5.694188e-08))
0.0657961     	((6.522228e-03 -8.607950e-04 -3.700243e-01) (9.345937e-05 1.397842e-05 7.623132e-02)) ((-1.289403e-08 -6.510527e-06 9.058442e-09) (1.100978e-06 -3.732021e-06 -6.300647e-08))
0.0758642     	((6.581723e-03 -7.953473e-04 -2.768842e-01) (1.012283e-04 1.579367e-05 7.536559e-02)) ((1.537342e-08 -6.150682e-06 2.050767e-08) (1.328742e-06 -4.203411e-06 -6.697650e-08))
0.0859047     	((6.469635e-03 -8.955862e-04 -3.278295e-01) (1.059532e-04 1.491480e-05 7.466346e-02)) ((7.545144e-08 -6.587129e-06 1.382912e-08) (1.327969e-06 -4.842120e-06 -7.898458e-08))
0.0959599     	((6.394245e-03 -1.016551e-03 -3.005652e-01) (1.094051e-04 1.297732e-05 7.425595e-02)) ((8.222581e-08 -6.353623e-06 1.978421e-08) (1.114872e-06 -5.165911e-06 -9.502086e-08))
0.106043      	((6.512452e-03 -8.745551e-04 -3.169122e-01) (1.103620e-04 1.072378e-05 7.399876e-02)) ((1.106575e-07 -6.596144e-06 1.746752e-08) (9.197433e-07 -5.250239e-06 -1.083649e-07))
0.116135      	((6.656993e-03 -7.725350e-04 -3.091462e-01) (1.113010e-04 9.283512e-06 7.391642e-02)) ((1.070009e-07 -6.543884e-06 1.633402e-08) (8.409316e-07 -5.409603e-06 -1.133294e-07))
0.126233      	((6.706713e-03 -7.636223e-04 -3.157628e-01) (1.143312e-04 9.502154e-06 7.398216e-02)) ((9.295588e-08 -6.651162e-06 1.536746e-08) (8.792109e-07 -5.604218e-06 -1.072829e-07))
0.136325      	((6.823382e-03 -7.842360e-04 -3.138754e-01) (1.181105e-04 1.101574e-05 7.418003e-02)) ((9.412330e-08 -6.659397e-06 1.507688e-08) (1.010361e-06 -5.853164e-06 -8.375204e-08))
0.146387      	((6.921452e-03 -7.675651e-04 -3.169995e-01) (1.229087e-04 1.274471e-05 7.447518e-02)) ((8.284798e-08 -6.735763e-06 1.380757e-08) (1.165372e-06 -6.164221e-06 -4.924416e-08))
0.15641       	((7.077492e-03 -7.496072e-04 -3.169938e-01) (1.273492e-04 1.401714e-05 7.483947e-02)) ((8.033721e-08 -6.762512e-06 1.337900e-08) (1.310975e-06 -6.474622e-06 -1.786841e-08))
0.166394      	((7.168490e-03 -7.279538e-04 -3.186080e-01) (1.311151e-04 1.486557e-05 7.523807e-02)) ((7.511846e-08 -6.827405e-06 1.274204e-08) (1.422357e-06 -6.785378e-06 4.405580e-09))
0.176331      	((7.265011e-03 -7.009539e-04 -3.185979e-01) (1.341872e-04 1.540824e-05 7.564088e-02)) ((7.623043e-08 -6.868094e-06 1.312185e-08) (1.509402e-06 -7.040876e-06 1.825609e-08))
0.18622       	((7.360842e-03 -6.676366e-04 -3.186643e-01) (1.364512e-04 1.577351e-05 7.601819e-02)) ((6.968673e-08 -6.907842e-06 1.359741e-08) (1.582813e-06 -7.248418e-06 2.679802e-08))
0.196056      	((7.411626e-03 -6.412544e-04 -3.174863e-01) (1.384097e-04 1.608357e-05 7.634229e-02)) ((6.586914e-08 -6.918690e-06 1.387989e-08) (1.643703e-06 -7.425392e-06 3.166999e-08))
0.205847      	((7.451689e-03 -6.470082e-04 -3.158882e-01) (1.399456e-04 1.620401e-05 7.658974e-02)) ((6.142960e-08 -6.910793e-06 1.389913e-08) (1.692838e-06 -7.569868e-06 3.283408e-08))
0.2156        	((7.465070e-03 -6.616540e-04 -3.137289e-01) (1.411307e-04 1.625124e-05 7.674744e-02)) ((5.705289e-08 -6.878462e-06 1.390110e-08) (1.728627e-06 -7.678806e-06 3.114696e-08))
0.225332      	((7.471438e-03 -6.628639e-04 -3.117688e-01) (1.419115e-04 1.631571e-05 7.681491e-02)) ((5.264574e-08 -6.833686e-06 1.462672e-08) (1.758761e-06 -7.751902e-06 2.710331e-08))
0.23506       	((7.421049e-03 -6.536324e-04 -3.103534e-01) (1.423335e-04 1.650610e-05 7.680611e-02)) ((4.871599e-08 -6.793184e-06 1.517072e-08) (1.788834e-06 -7.794349e-06 2.045067e-08))
0.244797      	((7.382875e-03 -6.622989e-04 -3.098498e-01) (1.424706e-04 1.682687e-05 7.674584e-02)) ((4.795691e-08 -6.761936e-06 1.527064e-08) (1.819082e-06 -7.808511e-06 1.204259e-08))
0.254553      	((7.352937e-03 -6.782000e-04 -3.101782e-01) (1.424314e-04 1.715315e-05 7.666362e-02)) ((4.706559e-08 -6.748977e-06 1.566632e-08) (1.845710e-06 -7.806160e-06 3.927981e-09))
0.264328      	((7.339908e-03 -6.881351e-04 -3.109808e-01) (1.423351e-04 1.742321e-05 7.658509e-02)) ((4.797148e-08 -6.751682e-06 1.569840e-08) (1.866402e-06 -7.794420e-06 -1.902365e-09))
0.274116      	((7.329180e-03 -6.851543e-04 -3.117678e-01) (1.421999e-04 1.763837e-05 7.652540e-02)) ((4.924243e-08 -6.764212e-06 1.528932e-08) (1.881464e-06 -7.780749e-06 -4.941271e-09))
0.283911      	((7.330035e-03 -6.788601e-04 -3.122012e-01) (1.420461e-04 1.778297e-05 7.648799e-02)) ((5.179443e-08 -6.775987e-06 1.501148e-08) (1.890531e-06 -7.765626e-06 -5.936132e-09))
0.293707      	((7.334432e-03 -6.750676e-04 -3.122414e-01) (1.418558e-04 1.782618e-05 7.646819e-02)) ((5.432837e-08 -6.783304e-06 1.482774e-08) (1.894179e-06 -7.747616e-06 -5.926028e-09))
0.303501      	((7.336687e-03 -6.711717e-04 -3.120905e-01) (1.416139e-04 1.777446e-05 7.645887e-02)) ((5.552577e-08 -6.785912e-06 1.464472e-08) (1.892810e-06 -7.724998e-06 -5.722823e-09))
0.313295      	((7.337487e-03 -6.695095e-04 -3.119794e-01) (1.413319e-04 1.763648e-05 7.645459e-02)) ((5.644148e-08 -6.786260e-06 1.450466e-08) (1.886511e-06 -7.699389e-06 -5.805678e-09))
0.323089      	((7.335803e-03 -6.700289e-04 -3.120069e-01) (1.410360e-04 1.743609e-05 7.645284e-02)) ((5.686692e-08 -6.787635e-06 1.442665e-08) (1.876265e-06 -7.673253e-06 -6.493746e-09))
0.332883      	((7.334302e-03 -6.700330e-04 -3.121119e-01) (1.407487e-04 1.722121e-05 7.645299e-02)) ((5.682223e-08 -6.789358e-06 1.437437e-08) (1.864744e-06 -7.647879e-06 -7.875399e-09))
0.342677      	((7.332593e-03 -6.695810e-04 -3.121889e-01) (1.405045e-04 1.704390e-05 7.645485e-02)) ((5.602515e-08 -6.790783e-06 1.430557e-08) (1.855671e-06 -7.625813e-06 -9.772480e-09))
0.352471      	((7.331802e-03 -6.684593e-04 -3.121958e-01) (1.403305e-04 1.694569e-05 7.645791e-02)) ((5.489300e-08 -6.790600e-06 1.426767e-08) (1.851803e-06 -7.608730e-06 -1.197538e-08))
0.362265      	((7.331266e-03 -6.675691e-04 -3.121673e-01) (1.402420e-04 1.694097e-05 7.646140e-02)) ((5.375449e-08 -6.789349e-06 1.423330e-08) (1.854016e-06 -7.597559e-06 -1.432186e-08))
0.372057      	((7.331223e-03 -6.665228e-04 -3.121526e-01) (1.402366e-04 1.702430e-05 7.646479e-02)) ((5.290085e-08 -6.787908e-06 1.424189e-08) (1.861975e-06 -7.592513e-06 -1.666441e-08))
0.38185       	((7.330785e-03 -6.654769e-04 -3.121630e-01) (1.402998e-04 1.717081e-05 7.646783e-02)) ((5.258402e-08 -6.787062e-06 1.427231e-08) (1.874093e-06 -7.592799e-06 -1.885565e-08))
0.391642      	((7.330392e-03 -6.640873e-04 -3.121769e-01) (1.404005e-04 1.734167e-05 7.647048e-02)) ((5.281881e-08 -6.787052e-06 1.430817e-08) (1.887915e-06 -7.596606e-06 -2.073848e-08))
0.401434      	((7.329809e-03 -6.630094e-04 -3.121768e-01) (1.405029e-04 1.749870e-05 7.647270e-02)) ((5.349406e-08 -6.787279e-06 1.432821e-08) (1.900990e-06 -7.601690e-06 -2.216183e-08))
0.411226      	((7.329234e-03 -6.622841e-04 -3.121657e-01) (1.405790e-04 1.761595e-05 7.647447e-02)) ((5.435542e-08 -6.787567e-06 1.431496e-08) (1.911398e-06 -7.606134e-06 -2.302952e-08))
0.421018      	((7.328404e-03 -6.619638e-04 -3.121563e-01) (1.406131e-04 1.768125e-05 7.647575e-02)) ((5.536374e-08 -6.788065e-06 1.427950e-08) (1.917964e-06 -7.608647e-06 -2.334038e-08))
0.430809      	((7.327254e-03 -6.620913e-04 -3.121526e-01) (1.405985e-04 1.769265e-05 7.647660e-02)) ((5.633130e-08 -6.788693e-06 1.424649e-08) (1.920206e-06 -7.608473e-06 -2.318879e-08))
0.440601      	((7.326043e-03 -6.623976e-04 -3.121498e-01) (1.405402e-04 1.765647e-05 7.647708e-02)) ((5.713718e-08 -6.789226e-06 1.422221e-08) (1.918327e-06 -7.605604e-06 -2.276196e-08))
0.450392      	((7.324859e-03 -6.629155e-04 -3.121449e-01) (1.404510e-04 1.758461e-05 7.647728e-02)) ((5.762154e-08 -6.789429e-06 1.420697e-08) (1.913171e-06 -7.600623e-06 -2.232467e-08))
0.460184      	((7.323938e-03 -6.634911e-04 -3.121390e-01) (1.403458e-04 1.749415e-05 7.647727e-02)) ((5.773060e-08 -6.789197e-06 1.418341e-08) (1.906046e-06 -7.594343e-06 -2.218779e-08))
0.469975      	((7.323480e-03 -6.640585e-04 -3.121355e-01) (1.402374e-04 1.740116e-05 7.647713e-02)) ((5.750036e-08 -6.788543e-06 1.414584e-08) (1.898295e-06 -7.587479e-06 -2.263000e-08))
0.479767      	((7.323419e-03 -6.644041e-04 -3.121347e-01) (1.401357e-04 1.731963e-05 7.647695e-02)) ((5.695892e-08 -6.787463e-06 1.409761e-08) (1.891055e-06 -7.580700e-06 -2.383486e-08))
0.489558      	((7.323734e-03 -6.646228e-04 -3.121347e-01) (1.400391e-04 1.725680e-05 7.647677e-02)) ((5.625369e-08 -6.786003e-06 1.403220e-08) (1.884871e-06 -7.573967e-06 -2.591595e-08))
0.49935       	((7.324163e-03 -6.646046e-04 -3.121347e-01) (1.399324e-04 1.721167e-05 7.647667e-02)) ((5.556522e-08 -6.784563e-06 1.394573e-08) (1.879694e-06 -7.566464e-06 -2.890753e-08))
0.509141      	((7.324034e-03 -6.645478e-04 -3.121349e-01) (1.398179e-04 1.718829e-05 7.647665e-02)) ((5.503091e-08 -6.783421e-06 1.388005e-08) (1.875736e-06 -7.558602e-06 -3.264465e-08))
0.518933      	((7.323712e-03 -6.643174e-04 -3.121353e-01) (1.397114e-04 1.719048e-05 7.647670e-02)) ((5.482618e-08 -6.782623e-06 1.380940e-08) (1.873127e-06 -7.551346e-06 -3.676209e-08))
0.528724      	((7.323370e-03 -6.639763e-04 -3.121357e-01) (1.396223e-04 1.721351e-05 7.647682e-02)) ((5.489314e-08 -6.781961e-06 1.371690e-08) (1.871542e-06 -7.545115e-06 -4.081097e-08))
0.538516      	((7.322989e-03 -6.635748e-04 -3.121357e-01) (1.395521e-04 1.724710e-05 7.647697e-02)) ((5.515858e-08 -6.781543e-06 1.361553e-08) (1.870399e-06 -7.539894e-06 -4.437739e-08))
0.548307      	((7.322635e-03 -6.633324e-04 -3.121355e-01) (1.394875e-04 1.727681e-05 7.647714e-02)) ((5.564803e-08 -6.781676e-06 1.350533e-08) (1.868979e-06 -7.534804e-06 -4.715617e-08))
0.558099      	((7.322239e-03 -6.633101e-04 -3.121352e-01) (1.394156e-04 1.728858e-05 7.647731e-02)) ((5.627731e-08 -6.782084e-06 1.338504e-08) (1.866758e-06 -7.529221e-06 -4.892812e-08))
0.56789       	((7.321757e-03 -6.635426e-04 -3.121349e-01) (1.393369e-04 1.727591e-05 7.647745e-02)) ((5.688200e-08 -6.782430e-06 1.326006e-08) (1.863665e-06 -7.523323e-06 -4.962260e-08))
0.577681      	((7.321178e-03 -6.639715e-04 -3.121347e-01) (1.392568e-04 1.724155e-05 7.647757e-02)) ((5.741569e-08 -6.782704e-06 1.312751e-08) (1.859980e-06 -7.517387e-06 -4.941736e-08))
0.587473      	((7.320630e-03 -6.644791e-04 -3.121344e-01) (1.391802e-04 1.719471e-05 7.647765e-02)) ((5.784802e-08 -6.782884e-06 1.299410e-08) (1.856225e-06 -7.511777e-06 -4.868460e-08))
0.597264      	((7.320140e-03 -6.649607e-04 -3.121341e-01) (1.391130e-04 1.714842e-05 7.647769e-02)) ((5.815314e-08 -6.782944e-06 1.286967e-08) (1.853040e-06 -7.506991e-06 -4.786364e-08))
0.607055      	((7.319788e-03 -6.652991e-04 -3.121338e-01) (1.390634e-04 1.711475e-05 7.647770e-02)) ((5.834242e-08 -6.782897e-06 1.275633e-08) (1.850961e-06 -7.503602e-06 -4.730402e-08))
0.616846      	((7.319481e-03 -6.655089e-04 -3.121336e-01) (1.390370e-04 1.710323e-05 7.647767e-02)) ((5.844024e-08 -6.782771e-06 1.265660e-08) (1.850495e-06 -7.502232e-06 -4.723326e-08))
0.626638      	((7.319243e-03 -6.656109e-04 -3.121334e-01) (1.390373e-04 1.711872e-05 7.647761e-02)) ((5.849154e-08 -6.782602e-06 1.257385e-08) (1.851931e-06 -7.503206e-06 -4.768356e-08))
0.636429      	((7.319108e-03 -6.656144e-04 -3.121334e-01) (1.390655e-04 1.715965e-05 7.647752e-02)) ((5.853715e-08 -6.782433e-06 1.250815e-08) (1.855234e-06 -7.506527e-06 -4.848544e-08))
0.64622       	((7.319102e-03 -6.655014e-04 -3.121334e-01) (1.391199e-04 1.722063e-05 7.647741e-02)) ((5.862473e-08 -6.782308e-06 1.245854e-08) (1.860210e-06 -7.512108e-06 -4.940108e-08))
0.656011      	((7.319194e-03 -6.653202e-04 -3.121335e-01) (1.391966e-04 1.729517e-05 7.647727e-02)) ((5.876852e-08 -6.782247e-06 1.242252e-08) (1.866546e-06 -7.519722e-06 -5.023664e-08))
0.665802      	((7.319365e-03 -6.650814e-04 -3.121336e-01) (1.392904e-04 1.737725e-05 7.647711e-02)) ((5.898078e-08 -6.782268e-06 1.239998e-08) (1.873830e-06 -7.529012e-06 -5.088069e-08))
0.675594      	((7.319541e-03 -6.648342e-04 -3.121338e-01) (1.393956e-04 1.746142e-05 7.647693e-02)) ((5.925905e-08 -6.782381e-06 1.239028e-08) (1.881627e-06 -7.539593e-06 -5.128677e-08))
0.685385      	((7.319687e-03 -6.646315e-04 -3.121339e-01) (1.395068e-04 1.754273e-05 7.647673e-02)) ((5.959363e-08 -6.782594e-06 1.239121e-08) (1.889513e-06 -7.551034e-06 -5.144897e-08))
0.695176      	((7.319864e-03 -6.644464e-04 -3.121341e-01) (1.396190e-04 1.761762e-05 7.647651e-02)) ((5.995784e-08 -6.782880e-06 1.239900e-08) (1.897122e-06 -7.562874e-06 -5.139497e-08))
0.704967      	((7.320060e-03 -6.642883e-04 -3.121342e-01) (1.397293e-04 1.768421e-05 7.647628e-02)) ((6.031889e-08 -6.783208e-06 1.241031e-08) (1.904253e-06 -7.574799e-06 -5.117243e-08))
0.714758      	((7.320245e-03 -6.641696e-04 -3.121343e-01) (1.398362e-04 1.774243e-05 7.647604e-02)) ((6.065223e-08 -6.783556e-06 1.242147e-08) (1.910855e-06 -7.586616e-06 -5.083813e-08))
0.72455       	((7.320432e-03 -6.640722e-04 -3.121345e-01) (1.399393e-04 1.779346e-05 7.647580e-02)) ((6.094706e-08 -6.783919e-06 1.242805e-08) (1.916959e-06 -7.598172e-06 -5.044920e-08))
0.734341      	((7.320648e-03 -6.639765e-04 -3.121346e-01) (1.400389e-04 1.783902e-05 7.647555e-02)) ((6.119982e-08 -6.784293e-06 1.243041e-08) (1.922675e-06 -7.609407e-06 -5.004712e-08))
0.744132      	((7.320949e-03 -6.638615e-04 -3.121347e-01) (1.401367e-04 1.788054e-05 7.647531e-02)) ((6.141143e-08 -6.784665e-06 1.243584e-08) (1.928185e-06 -7.620433e-06 -4.961725e-08))
0.753923      	((7.321462e-03 -6.636824e-04 -3.121349e-01) (1.402336e-04 1.791945e-05 7.647507e-02)) ((6.160199e-08 -6.785067e-06 1.245715e-08) (1.933566e-06 -7.631205e-06 -4.914185e-08))
0.763714      	((7.322303e-03 -6.633395e-04 -3.121351e-01) (1.403294e-04 1.795768e-05 7.647485e-02)) ((6.171609e-08 -6.785321e-06 1.245834e-08) (1.938879e-06 -7.641652e-06 -4.865700e-08))
0.773506      	((7.322917e-03 -6.630050e-04 -3.121353e-01) (1.404284e-04 1.799939e-05 7.647465e-02)) ((6.178632e-08 -6.785493e-06 1.250438e-08) (1.944189e-06 -7.651813e-06 -4.824805e-08))
0.783297      	((7.322988e-03 -6.628938e-04 -3.121356e-01) (1.405260e-04 1.804261e-05 7.647446e-02)) ((6.186666e-08 -6.785670e-06 1.255351e-08) (1.949395e-06 -7.661511e-06 -4.788937e-08))
0.793088      	((7.323093e-03 -6.627626e-04 -3.121358e-01) (1.406171e-04 1.808371e-05 7.647430e-02)) ((6.194896e-08 -6.785827e-06 1.258932e-08) (1.954377e-06 -7.670570e-06 -4.751202e-08))
0.802879      	((7.323394e-03 -6.625523e-04 -3.121360e-01) (1.407013e-04 1.812197e-05 7.647415e-02)) ((6.205286e-08 -6.786005e-06 1.262331e-08) (1.959041e-06 -7.678927e-06 -4.710996e-08))
0.812671      	((7.323580e-03 -6.624004e-04 -3.121361e-01) (1.407778e-04 1.815635e-05 7.647401e-02)) ((6.216497e-08 -6.786177e-06 1.265469e-08) (1.963287e-06 -7.686517e-06 -4.668221e-08))
0.822462      	((7.323782e-03 -6.622736e-04 -3.121363e-01) (1.408459e-04 1.818597e-05 7.647389e-02)) ((6.228029e-08 -6.786352e-06 1.268375e-08) (1.967050e-06 -7.693320e-06 -4.623233e-08))
0.832253      	((7.323979e-03 -6.621316e-04 -3.121364e-01) (1.409059e-04 1.821080e-05 7.647378e-02)) ((6.239774e-08 -6.786522e-06 1.271171e-08) (1.970303e-06 -7.699356e-06 -4.577801e-08))
0.842044      	((7.324118e-03 -6.620281e-04 -3.121365e-01) (1.409581e-04 1.823076e-05 7.647368e-02)) ((6.250455e-08 -6.786681e-06 1.273710e-08) (1.973040e-06 -7.704654e-06 -4.533586e-08))
0.851835      	((7.324242e-03 -6.619381e-04 -3.121366e-01) (1.410027e-04 1.824626e-05 7.647359e-02)) ((6.259082e-08 -6.786811e-06 1.276070e-08) (1.975296e-06 -7.709260e-06 -4.492278e-08))
0.861627      	((7.324362e-03 -6.618858e-04 -3.121367e-01) (1.410413e-04 1.825814e-05 7.647351e-02)) ((6.265496e-08 -6.786937e-06 1.278152e-08) (1.977139e-06 -7.713231e-06 -4.455173e-08))
0.871418      	((7.324441e-03 -6.618419e-04 -3.121367e-01) (1.410744e-04 1.826747e-05 7.647343e-02)) ((6.269310e-08 -6.787024e-06 1.280138e-08) (1.978657e-06 -7.716663e-06 -4.423336e-08))
0.881209      	((7.324516e-03 -6.618120e-04 -3.121368e-01) (1.411032e-04 1.827522e-05 7.647337e-02)) ((6.271020e-08 -6.787097e-06 1.281846e-08) (1.979934e-06 -7.719613e-06 -4.397270e-08))
0.891         	((7.324587e-03 -6.617809e-04 -3.121369e-01) (1.411284e-04 1.828217e-05 7.647331e-02)) ((6.271033e-08 -6.787149e-06 1.283424e-08) (1.981042e-06 -7.722142e-06 -4.376752e-08))
0.900791      	((7.324652e-03 -6.617480e-04 -3.121369e-01) (1.411507e-04 1.828889e-05 7.647327e-02)) ((6.270014e-08 -6.787190e-06 1.284863e-08) (1.982036e-06 -7.724328e-06 -4.361174e-08))
0.910583      	((7.324714e-03 -6.617096e-04 -3.121370e-01) (1.411703e-04 1.829555e-05 7.647323e-02)) ((6.268606e-08 -6.787221e-06 1.286117e-08) (1.982943e-06 -7.726197e-06 -4.349535e-08))
0.920374      	((7.324772e-03 -6.616664e-04 -3.121370e-01) (1.411873e-04 1.830210e-05 7.647320e-02)) ((6.267363e-08 -6.787245e-06 1.287264e-08) (1.983770e-06 -7.727781e-06 -4.340670e-08))
0.930165      	((7.324827e-03 -6.616206e-04 -3.121371e-01) (1.412017e-04 1.830824e-05 7.647318e-02)) ((6.266654e-08 -6.787268e-06 1.288231e-08) (1.984505e-06 -7.729099e-06 -4.333468e-08))
0.939956      	((7.324879e-03 -6.615752e-04 -3.121371e-01) (1.412134e-04 1.831358e-05 7.647317e-02)) ((6.266611e-08 -6.787290e-06 1.289092e-08) (1.985126e-06 -7.730160e-06 -4.327062e-08))
0.949747      	((7.324924e-03 -6.615332e-04 -3.121371e-01) (1.412223e-04 1.831776e-05 7.647316e-02)) ((6.267169e-08 -6.787313e-06 1.289804e-08) (1.985613e-06 -7.730975e-06 -4.320922e-08))
0.959538      	((7.324962e-03 -6.614993e-04 -3.121371e-01) (1.412286e-04 1.832052e-05 7.647315e-02)) ((6.268064e-08 -6.787334e-06 1.290396e-08) (1.985949e-06 -7.731554e-06 -4.314869e-08))
0.96933       	((7.324989e-03 -6.614767e-04 -3.121371e-01) (1.412322e-04 1.832177e-05 7.647315e-02)) ((6.268954e-08 -6.787352e-06 1.290888e-08) (1.986132e-06 -7.731913e-06 -4.309001e-08))
0.979121      	((7.325007e-03 -6.614656e-04 -3.121371e-01) (1.412337e-04 1.832158e-05 7.647315e-02)) ((6.269544e-08 -6.787366e-06 1.291267e-08) (1.986170e-06 -7.732076e-06 -4.303615e-08))
0.988912      	((7.325015e-03 -6.614647e-04 -3.121371e-01) (1.412332e-04 1.832022e-05 7.647315e-02)) ((6.269595e-08 -6.787374e-06 1.291573e-08) (1.986085e-06 -7.732071e-06 -4.299115e-08))
0.998703      	((7.325017e-03 -6.614713e-04 -3.121371e-01) (1.412313e-04 1.831804e-05 7.647315e-02)) ((6.268968e-08 -6.787376e-06 1.291789e-08) (1.985908e-06 -7.731929e-06 -4.295874e-08))
1.008494      	((7.325013e-03 -6.614825e-04 -3.121371e-01) (1.412285e-04 1.831543e-05 7.647315e-02)) ((6.267659e-08 -6.787371e-06 1.291942e-08) (1.985673e-06 -7.731683e-06 -4.294143e-08))
1.018286      	((7.325008e-03 -6.614950e-04 -3.121371e-01) (1.412251e-04 1.831276e-05 7.647315e-02)) ((6.265778e-08 -6.787360e-06 1.292032e-08) (1.985411e-06 -7.731365e-06 -4.293994e-08))
1.028077      	((7.325002e-03 -6.615061e-04 -3.121371e-01) (1.412213e-04 1.831030e-05 7.647316e-02)) ((6.263534e-08 -6.787344e-06 1.292073e-08) (1.985150e-06 -7.731000e-06 -4.295302e-08))
1.037868      	((7.324996e-03 -6.615139e-04 -3.121371e-01) (1.412175e-04 1.830822e-05 7.647317e-02)) ((6.261170e-08 -6.787327e-06 1.292072e-08) (1.984906e-06 -7.730609e-06 -4.297776e-08))
1.047659      	((7.324992e-03 -6.615178e-04 -3.121371e-01) (1.412137e-04 1.830655e-05 7.647317e-02)) ((6.258926e-08 -6.787308e-06 1.292034e-08) (1.984686e-06 -7.730205e-06 -4.301021e-08))
1.05745       	((7.324989e-03 -6.615180e-04 -3.121371e-01) (1.412099e-04 1.830523e-05 7.647318e-02)) ((6.256986e-08 -6.787291e-06 1.291969e-08) (1.984490e-06 -7.729795e-06 -4.304613e-08))
1.067241      	((7.324987e-03 -6.615156e-04 -3.121371e-01) (1.412061e-04 1.830411e-05 7.647319e-02)) ((6.255460e-08 -6.787275e-06 1.291879e-08) (1.984309e-06 -7.729383e-06 -4.308174e-08))
1.077033      	((7.324985e-03 -6.615119e-04 -3.121371e-01) (1.412022e-04 1.830304e-05 7.647320e-02)) ((6.254367e-08 -6.787261e-06 1.291770e-08) (1.984134e-06 -7.728968e-06 -4.311420e-08))
1.086824      	((7.324983e-03 -6.615088e-04 -3.121371e-01) (1.411982e-04 1.830185e-05 7.647321e-02)) ((6.253650e-08 -6.787250e-06 1.291646e-08) (1.983954e-06 -7.728550e-06 -4.314196e-08))
1.096615      	((7.324979e-03 -6.615076e-04 -3.121371e-01) (1.411941e-04 1.830045e-05 7.647322e-02)) ((6.253200e-08 -6.787240e-06 1.291511e-08) (1.983761e-06 -7.728130e-06 -4.316475e-08))
1.106406      	((7.324974e-03 -6.615091e-04 -3.121371e-01) (1.411898e-04 1.829879e-05 7.647323e-02)) ((6.252877e-08 -6.787232e-06 1.291368e-08) (1.983551e-06 -7.727709e-06 -4.318338e-08))
1.116197      	((7.324967e-03 -6.615137e-04 -3.121371e-01) (1.411854e-04 1.829691e-05 7.647324e-02)) ((6.252552e-08 -6.787223e-06 1.291221e-08) (1.983327e-06 -7.727289e-06 -4.319936e-08))
1.125989      	((7.324959e-03 -6.615208e-04 -3.121371e-01) (1.411811e-04 1.829489e-05 7.647325e-02)) ((6.252123e-08 -6.787214e-06 1.291072e-08) (1.983095e-06 -7.726878e-06 -4.321446e-08))
1.13578       	((7.324950e-03 -6.615297e-04 -3.121371e-01) (1.411769e-04 1.829283e-05 7.647325e-02)) ((6.251536e-08 -6.787205e-06 1.290924e-08) (1.982862e-06 -7.726482e-06 -4.323028e-08))
1.145571      	((7.324941e-03 -6.615392e-04 -3.121371e-01) (1.411730e-04 1.829088e-05 7.647326e-02)) ((6.250788e-08 -6.787195e-06 1.290778e-08) (1.982639e-06 -7.726106e-06 -4.324789e-08))
1.155362      	((7.324932e-03 -6.615482e-04 -3.121370e-01) (1.411693e-04 1.828913e-05 7.647327e-02)) ((6.249921e-08 -6.787184e-06 1.290637e-08) (1.982435e-06 -7.725756e-06 -4.326770e-08))
1.165153      	((7.324924e-03 -6.615559e-04 -3.121370e-01) (1.411661e-04 1.828766e-05 7.647327e-02)) ((6.249006e-08 -6.787173e-06 1.290501e-08) (1.982255e-06 -7.725438e-06 -4.328945e-08))
1.174944      	((7.324917e-03 -6.615616e-04 -3.121370e-01) (1.411633e-04 1.828650e-05 7.647328e-02)) ((6.248126e-08 -6.787163e-06 1.290372e-08) (1.982104e-06 -7.725151e-06 -4.331228e-08))
1.184736      	((7.324912e-03 -6.615652e-04 -3.121370e-01) (1.411608e-04 1.828563e-05 7.647328e-02)) ((6.247359e-08 -6.787153e-06 1.290249e-08) (1.981979e-06 -7.724897e-06 -4.333505e-08))
1.194527      	((7.324908e-03 -6.615669e-04 -3.121370e-01) (1.411587e-04 1.828499e-05 7.647329e-02)) ((6.246760e-08 -6.787145e-06 1.290134e-08) (1.981879e-06 -7.724673e-06 -4.335651e-08))
1.204318      	((7.324905e-03 -6.615673e-04 -3.121370e-01) (1.411568e-04 1.828451e-05 7.647329e-02)) ((6.246354e-08 -6.787138e-06 1.290027e-08) (1.981797e-06 -7.724475e-06 -4.337562e-08))
1.214109      	((7.324902e-03 -6.615670e-04 -3.121370e-01) (1.411551e-04 1.828412e-05 7.647330e-02)) ((6.246135e-08 -6.787133e-06 1.289928e-08) (1.981727e-06 -7.724301e-06 -4.339169e-08))
1.2239        	((7.324900e-03 -6.615666e-04 -3.121370e-01) (1.411536e-04 1.828375e-05 7.647330e-02)) ((6.246070e-08 -6.787129e-06 1.289836e-08) (1.981665e-06 -7.724146e-06 -4.340447e-08))
1.233692      	((7.324898e-03 -6.615668e-04 -3.121370e-01) (1.411522e-04 1.828335e-05 7.647330e-02)) ((6.246108e-08 -6.787126e-06 1.289753e-08) (1.981606e-06 -7.724007e-06 -4.341415e-08))
1.243483      	((7.324896e-03 -6.615678e-04 -3.121370e-01) (1.411509e-04 1.828291e-05 7.647331e-02)) ((6.246191e-08 -6.787124e-06 1.289677e-08) (1.981547e-06 -7.723881e-06 -4.342129e-08))
1.253274      	((7.324893e-03 -6.615697e-04 -3.121370e-01) (1.411497e-04 1.828242e-05 7.647331e-02)) ((6.246269e-08 -6.787122e-06 1.289610e-08) (1.981489e-06 -7.723769e-06 -4.342663e-08))
1.263065      	((7.324890e-03 -6.615724e-04 -3.121370e-01) (1.411486e-04 1.828192e-05 7.647331e-02)) ((6.246302e-08 -6.787121e-06 1.289549e-08) (1.981432e-06 -7.723669e-06 -4.343095e-08))
1.272856      	((7.324887e-03 -6.615755e-04 -3.121370e-01) (1.411477e-04 1.828145e-05 7.647331e-02)) ((6.246273e-08 -6.787119e-06 1.289496e-08) (1.981380e-06 -7.723582e-06 -4.343493e-08))
1.282647      	((7.324885e-03 -6.615787e-04 -3.121370e-01) (1.411469e-04 1.828103e-05 7.647331e-02)) ((6.246180e-08 -6.787117e-06 1.289450e-08) (1.981333e-06 -7.723509e-06 -4.343906e-08))
1.292439      	((7.324882e-03 -6.615814e-04 -3.121370e-01) (1.411463e-04 1.828071e-05 7.647331e-02)) ((6.246042e-08 -6.787115e-06 1.289410e-08) (1.981296e-06 -7.723448e-06 -4.344353e-08))
1.30223       	((7.324880e-03 -6.615835e-04 -3.121370e-01) (1.411458e-04 1.828050e-05 7.647331e-02)) ((6.245885e-08 -6.787113e-06 1.289375e-08) (1.981269e-06 -7.723402e-06 -4.344831e-08))
1.312021      	((7.324879e-03 -6.615848e-04 -3.121370e-01) (1.411455e-04 1.828040e-05 7.647331e-02)) ((6.245740e-08 -6.787111e-06 1.289345e-08) (1.981253e-06 -7.723368e-06 -4.345316e-08))
1.321812      	((7.324878e-03 -6.615852e-04 -3.121370e-01) (1.411453e-04 1.828040e-05 7.647331e-02)) ((6.245632e-08 -6.787110e-06 1.289320e-08) (1.981245e-06 -7.723345e-06 -4.345774e-08))
1.331603      	((7.324878e-03 -6.615849e-04 -3.121370e-01) (1.411452e-04 1.828047e-05 7.647331e-02)) ((6.245580e-08 -6.787109e-06 1.289299e-08) (1.981246e-06 -7.723332e-06 -4.346167e-08))
1.341394      	((7.324878e-03 -6.615842e-04 -3.121370e-01) (1.411452e-04 1.828058e-05 7.647331e-02)) ((6.245590e-08 -6.787108e-06 1.289282e-08) (1.981252e-06 -7.723326e-06 -4.346468e-08))
1.351186      	((7.324878e-03 -6.615832e-04 -3.121370e-01) (1.411452e-04 1.828070e-05 7.647331e-02)) ((6.245657e-08 -6.787108e-06 1.289268e-08) (1.981260e-06 -7.723327e-06 -4.346659e-08))
1.360977      	((7.324878e-03 -6.615824e-04 -3.121370e-01) (1.411453e-04 1.828081e-05 7.647331e-02)) ((6.245767e-08 -6.787109e-06 1.289257e-08) (1.981269e-06 -7.723331e-06 -4.346740e-08))
1.370768      	((7.324878e-03 -6.615818e-04 -3.121370e-01) (1.411453e-04 1.828089e-05 7.647331e-02)) ((6.245899e-08 -6.787109e-06 1.289249e-08) (1.981276e-06 -7.723337e-06 -4.346725e-08))
1.380559      	((7.324879e-03 -6.615815e-04 -3.121370e-01) (1.411454e-04 1.828093e-05 7.647331e-02)) ((6.246034e-08 -6.787110e-06 1.289244e-08) (1.981282e-06 -7.723345e-06 -4.346637e-08))
1.39035       	((7.324878e-03 -6.615816e-04 -3.121370e-01) (1.411455e-04 1.828095e-05 7.647331e-02)) ((6.246151e-08 -6.787111e-06 1.289240e-08) (1.981286e-06 -7.723355e-06 -4.346506e-08))
1.400142      	((7.324878e-03 -6.615821e-04 -3.121370e-01) (1.411455e-04 1.828094e-05 7.647331e-02)) ((6.246240e-08 -6.787111e-06 1.289239e-08) (1.981289e-06 -7.723365e-06 -4.346362e-08))
1.409933      	((7.324878e-03 -6.615827e-04 -3.121370e-01) (1.411456e-04 1.828094e-05 7.647331e-02)) ((6.246295e-08 -6.787112e-06 1.289240e-08) (1.981291e-06 -7.723376e-06 -4.346229e-08))
1.419724      	((7.324878e-03 -6.615833e-04 -3.121370e-01) (1.411457e-04 1.828094e-05 7.647331e-02)) ((6.246319e-08 -6.787112e-06 1.289242e-08) (1.981294e-06 -7.723388e-06 -4.346123e-08))
1.429515      	((7.324878e-03 -6.615838e-04 -3.121370e-01) (1.411459e-04 1.828096e-05 7.647331e-02)) ((6.246319e-08 -6.787113e-06 1.289245e-08) (1.981299e-06 -7.723402e-06 -4.346050e-08))
1.439306      	((7.324878e-03 -6.615840e-04 -3.121370e-01) (1.411460e-04 1.828102e-05 7.647331e-02)) ((6.246307e-08 -6.787113e-06 1.289249e-08) (1.981306e-06 -7.723417e-06 -4.346006e-08))
1.449097      	((7.324878e-03 -6.615840e-04 -3.121370e-01) (1.411462e-04 1.828109e-05 7.647331e-02)) ((6.246294e-08 -6.787113e-06 1.289253e-08) (1.981314e-06 -7.723434e-06 -4.345981e-08))
1.458889      	((7.324878e-03 -6.615837e-04 -3.121370e-01) (1.411464e-04 1.828119e-05 7.647331e-02)) ((6.246291e-08 -6.787113e-06 1.289258e-08) (1.981325e-06 -7.723451e-06 -4.345962e-08))
1.46868       	((7.324879e-03 -6.615832e-04 -3.121370e-01) (1.411466e-04 1.828131e-05 7.647331e-02)) ((6.246305e-08 -6.787113e-06 1.289262e-08) (1.981336e-06 -7.723469e-06 -4.345937e-08))
1.478471      	((7.324879e-03 -6.615825e-04 -3.121370e-01) (1.411468e-04 1.828142e-05 7.647331e-02)) ((6.246336e-08 -6.787114e-06 1.289267e-08) (1.981348e-06 -7.723486e-06 -4.345894e-08))
1.488262      	((7.324880e-03 -6.615819e-04 -3.121370e-01) (1.411469e-04 1.828152e-05 7.647331e-02)) ((6.246383e-08 -6.787114e-06 1.289272e-08) (1.981359e-06 -7.723503e-06 -4.345828e-08))
1.498053      	((7.324880e-03 -6.615813e-04 -3.121370e-01) (1.411471e-04 1.828161e-05 7.647331e-02)) ((6.246441e-08 -6.787115e-06 1.289278e-08) (1.981369e-06 -7.723518e-06 -4.345739e-08))
1.507845      	((7.324880e-03 -6.615809e-04 -3.121370e-01) (1.411472e-04 1.828168e-05 7.647331e-02)) ((6.246501e-08 -6.787116e-06 1.289283e-08) (1.981378e-06 -7.723532e-06 -4.345631e-08))
1.517636      	((7.324881e-03 -6.615807e-04 -3.121370e-01) (1.411474e-04 1.828172e-05 7.647331e-02)) ((6.246557e-08 -6.787116e-06 1.289288e-08) (1.981384e-06 -7.723545e-06 -4.345513e-08))
1.527427      	((7.324881e-03 -6.615806e-04 -3.121370e-01) (1.411475e-04 1.828175e-05 7.647331e-02)) ((6.246603e-08 -6.787117e-06 1.289293e-08) (1.981389e-06 -7.723556e-06 -4.345395e-08))