# Forces      
# CofR        : (0.000000e+00 0.000000e+00 0.000000e+00)
# Time        forces(pressure viscous)	moments(pressure viscous)
0             	((0.000000e+00 0.000000e+00 0.000000e+00) (0.000000e+00 0.000000e+00 0.000000e+00)) ((0.000000e+00 0.000000e+00 0.000000e+00) (0.000000e+00 0.000000e+00 0.000000e+00))
0.012         	((-2.578111e-12 6.023517e-10 -7.837565e-12) (-7.701222e-14 6.755974e-12 -2.825615e-14)) ((-4.332660e-14 -1.570973e-16 -8.291811e-12) (1.290127e-13 3.532413e-15 -1.686200e-08))
0.0264        	((1.948974e-12 -2.184692e-10 1.809116e-11) (-8.709535e-14 7.207968e-12 -4.449985e-14)) ((-1.019334e-13 7.568367e-16 -2.486041e-12) (2.295008e-13 3.398106e-15 -1.475812e-08))
0.04368       	((-1.164597e-11 1.100625e-10 -1.110970e-11) (-1.098933e-13 4.726199e-12 -9.773418e-14)) ((4.687574e-14 -1.158276e-16 -1.301247e-12) (1.939532e-13 4.644112e-15 -1.276276e-08))
0.064416      	((-8.113032e-12 8.775763e-12 4.068196e-12) (-1.104949e-13 2.530858e-12 -7.864882e-14)) ((-1.308941e-14 -1.928692e-16 -8.723758e-13) (9.907633e-14 5.771037e-15 -1.093048e-08))
0.0892992     	((-1.172448e-11 5.302510e-11 -4.054519e-12) (-9.446471e-14 1.606065e-12 -3.149104e-15)) ((1.428074e-14 -1.010669e-15 -7.019622e-13) (4.754235e-14 5.705698e-15 -9.309760e-09))
0.119159      	((-4.605942e-12 4.567757e-12 -3.338549e-12) (-1.356165e-13 1.365168e-12 4.790945e-14)) ((8.747394e-15 -7.556255e-16 -5.567873e-13) (-1.880258e-14 6.946623e-15 -7.923200e-09))
0.154991      	((-8.757884e-12 4.434837e-11 -3.006082e-12) (-1.656494e-13 1.012388e-12 9.494070e-14)) ((8.370227e-15 -9.987691e-16 -4.446060e-13) (-6.708988e-14 7.692045e-15 -6.780865e-09))
0.197989      	((-8.300908e-12 3.451412e-11 -3.884964e-12) (-1.080859e-13 6.359071e-13 1.328105e-13)) ((6.618399e-15 -5.596721e-16 -3.474337e-13) (-9.183958e-14 3.952486e-15 -5.863462e-09))
0.249587      	((-1.116600e-11 4.003760e-11 -3.243447e-12) (2.790458e-15 2.204096e-13 1.597171e-13)) ((6.732139e-15 -3.073078e-16 -2.865521e-13) (-8.456882e-14 -2.233034e-15 -5.133599e-09))
0.311504      	((-1.832914e-11 5.190278e-11 -5.719371e-12) (8.022540e-14 -1.350358e-13 2.280854e-13)) ((4.831445e-15 1.100204e-16 -2.533018e-13) (-7.079498e-14 -6.395476e-15 -4.547086e-09))
0.385805      	((-2.208493e-11 6.707493e-11 -5.683108e-12) (7.578454e-14 1.406354e-13 3.090239e-13)) ((3.636006e-15 -5.307883e-17 -2.207963e-13) (-5.368845e-14 -8.033503e-15 -4.063834e-09))
0.474966      	((-3.023141e-11 8.135115e-11 -8.423580e-12) (1.899250e-13 3.722535e-13 3.503637e-13)) ((-4.178311e-16 2.030515e-16 -1.926131e-13) (-1.694379e-14 -9.356491e-15 -3.653783e-09))
0.581959      	((-4.001316e-11 1.051789e-10 -1.013598e-11) (3.119706e-13 6.926049e-13 3.374967e-13)) ((-2.268098e-15 8.420990e-17 -1.786382e-13) (5.558678e-14 -1.157867e-14 -3.297199e-09))
0.710351      	((-4.899108e-11 1.048302e-10 -1.237274e-11) (7.563350e-13 1.667204e-12 2.596761e-13)) ((-4.596652e-15 1.564762e-17 -1.699755e-13) (1.167348e-13 -1.905034e-14 -2.981843e-09))
0.864421      	((-5.532182e-11 8.440381e-11 -1.195837e-11) (1.648623e-12 1.285398e-12 3.314154e-13)) ((-7.079167e-15 -3.740814e-16 -1.619290e-13) (1.051462e-13 -3.687156e-14 -2.700016e-09))
1.049306      	((-5.833430e-11 7.585588e-11 -1.107308e-11) (2.773842e-12 -1.010270e-12 2.799054e-13)) ((-8.934882e-15 -7.141188e-16 -1.533056e-13) (3.971119e-14 -5.535304e-14 -2.446968e-09))
1.271167      	((-5.158880e-11 6.595164e-11 -1.244680e-11) (4.912440e-12 -4.174053e-12 2.059624e-13)) ((-1.129517e-14 -1.188658e-15 -1.468260e-13) (-4.176820e-14 -9.756801e-14 -2.220294e-09))
1.5374        	((-3.927421e-11 6.460499e-11 -1.092418e-11) (8.232854e-12 -7.773739e-12 3.202306e-13)) ((-1.011407e-14 -1.429040e-15 -1.421544e-13) (-1.315857e-13 -1.849227e-13 -2.018834e-09))
1.85688       	((-2.764414e-11 4.960689e-11 -7.357153e-12) (1.230245e-11 -1.047704e-11 3.771617e-13)) ((-9.216917e-15 -1.767958e-15 -1.361841e-13) (-2.296309e-13 -2.866681e-13 -1.841480e-09))
2.240256      	((-1.488997e-11 3.273372e-11 -5.419545e-12) (1.727102e-11 -1.338245e-11 3.072330e-13)) ((-1.068383e-14 -2.045665e-15 -1.288237e-13) (-3.548567e-13 -4.229773e-13 -1.686473e-09))
2.700307      	((-9.462178e-12 1.989370e-11 -2.694264e-12) (2.252630e-11 -1.799593e-11 -6.945346e-14)) ((-9.913512e-15 -2.129536e-15 -1.223737e-13) (-5.205314e-13 -5.854471e-13 -1.551203e-09))
3.252369      	((5.248396e-13 1.134098e-11 -5.325311e-12) (2.754975e-11 -2.342344e-11 -3.922388e-13)) ((-8.215339e-15 -2.139760e-15 -1.140438e-13) (-6.709162e-13 -7.351810e-13 -1.432604e-09))
3.914842      	((7.643911e-13 -5.598823e-12 -4.539305e-12) (3.091990e-11 -2.799829e-11 -2.981559e-13)) ((-6.237450e-15 -1.727445e-15 -1.064515e-13) (-7.573191e-13 -8.321761e-13 -1.327570e-09))
4.709811      	((8.150664e-12 -1.840164e-11 -3.503037e-12) (3.240784e-11 -3.082804e-11 -1.382630e-13)) ((-4.171728e-15 -8.443261e-16 -9.990676e-14) (-8.118475e-13 -8.834259e-13 -1.233459e-09))
5.663773      	((9.245611e-12 -8.461591e-12 -4.263582e-12) (3.198925e-11 -3.118097e-11 2.693150e-13)) ((-4.312031e-15 -2.658724e-16 -9.318183e-14) (-7.998645e-13 -8.861495e-13 -1.148343e-09))
6.808528      	((1.121626e-11 -8.272814e-12 -5.468341e-12) (2.941510e-11 -2.883054e-11 6.619042e-13)) ((-3.968458e-15 4.441457e-17 -8.680461e-14) (-7.160654e-13 -8.286156e-13 -1.070703e-09))
8.182233      	((9.118072e-12 -5.463773e-12 -6.714148e-12) (2.541459e-11 -2.455627e-11 1.168193e-12)) ((-2.717938e-15 5.096651e-16 -8.063920e-14) (-6.162287e-13 -7.219304e-13 -9.993764e-10))
9.83068       	((8.380885e-12 2.701423e-12 -7.757077e-12) (2.038359e-11 -1.964956e-11 1.745337e-12)) ((-2.815604e-15 8.771375e-16 -7.490609e-14) (-4.934236e-13 -5.956613e-13 -9.337242e-10))
11.808816     	((9.756271e-13 1.436557e-11 -9.160659e-12) (1.529594e-11 -1.452958e-11 2.007465e-12)) ((-1.512951e-15 1.363345e-15 -6.955136e-14) (-3.390277e-13 -4.650611e-13 -8.734574e-10))
14.182579     	((-1.246336e-12 9.226362e-12 -1.026922e-11) (1.086078e-11 -1.033423e-11 2.385415e-12)) ((4.285221e-17 1.553589e-15 -6.440863e-14) (-2.062042e-13 -3.525828e-13 -8.182163e-10))
17.031095     	((-6.753003e-12 9.447691e-12 -1.290341e-11) (7.430080e-12 -7.164774e-12 2.901235e-12)) ((1.395879e-15 1.261085e-15 -5.994744e-14) (-1.369624e-13 -2.630972e-13 -7.676461e-10))
20.449314     	((-7.864673e-12 1.115312e-11 -1.497836e-11) (5.398405e-12 -5.216439e-12 3.537595e-12)) ((1.771205e-15 1.187506e-15 -5.576238e-14) (-1.042677e-13 -2.145701e-13 -7.214074e-10))
24.551176     	((-1.079270e-11 1.225748e-11 -1.616471e-11) (4.681623e-12 -4.592478e-12 4.337810e-12)) ((2.274012e-15 1.056736e-15 -5.205326e-14) (-1.080225e-13 -1.980158e-13 -6.791163e-10))
29.473411     	((-9.331299e-12 9.469133e-12 -1.766975e-11) (5.101646e-12 -5.326477e-12 5.040234e-12)) ((2.342903e-15 9.403161e-16 -4.882250e-14) (-1.328312e-13 -2.067191e-13 -6.403817e-10))
35.380094     	((-8.559771e-12 8.691769e-12 -1.977528e-11) (6.298376e-12 -7.087899e-12 5.933303e-12)) ((2.369340e-15 8.903717e-16 -4.596926e-14) (-1.861936e-13 -2.326953e-13 -6.048660e-10))
42.468112     	((-6.980242e-12 5.907489e-12 -2.155536e-11) (7.869469e-12 -9.196288e-12 6.817647e-12)) ((2.515629e-15 8.173070e-16 -4.339217e-14) (-2.470707e-13 -2.655553e-13 -5.723249e-10))
50.973735     	((-6.564641e-12 5.906621e-12 -2.331219e-11) (9.365621e-12 -1.096891e-11 7.726848e-12)) ((2.551236e-15 7.100644e-16 -4.093601e-14) (-2.993708e-13 -2.971954e-13 -5.425905e-10))
61.180482     	((-5.052200e-12 3.815847e-12 -2.510748e-11) (1.056847e-11 -1.242577e-11 8.737067e-12)) ((2.509915e-15 5.722917e-16 -3.864674e-14) (-3.428841e-13 -3.220856e-13 -5.154908e-10))
73.428578     	((-4.183377e-12 3.977616e-12 -2.678739e-11) (1.151658e-11 -1.345895e-11 9.815174e-12)) ((2.568010e-15 4.594753e-16 -3.658754e-14) (-3.724236e-13 -3.434714e-13 -4.908415e-10))
88.126294     	((-3.237437e-12 2.616459e-12 -2.811599e-11) (1.222755e-11 -1.406489e-11 1.091064e-11)) ((2.702091e-15 3.364395e-16 -3.474540e-14) (-3.876642e-13 -3.576502e-13 -4.684631e-10))
105.763553    	((-2.208699e-12 1.390678e-12 -2.976839e-11) (1.267534e-11 -1.450482e-11 1.203707e-11)) ((2.749424e-15 2.257421e-16 -3.314148e-14) (-4.012532e-13 -3.633636e-13 -4.481528e-10))
126.928263    	((-1.694462e-12 1.163190e-12 -3.175884e-11) (1.282691e-11 -1.476438e-11 1.321474e-11)) ((2.689374e-15 1.395708e-16 -3.172824e-14) (-4.100897e-13 -3.616425e-13 -4.296994e-10))
152.325916    	((-1.239126e-12 1.175433e-12 -3.387218e-11) (1.282901e-11 -1.476376e-11 1.441593e-11)) ((2.568657e-15 3.090804e-17 -3.043694e-14) (-4.112666e-13 -3.591404e-13 -4.129062e-10))
182.803099    	((-5.805427e-13 1.266894e-12 -3.583872e-11) (1.266376e-11 -1.463360e-11 1.561293e-11)) ((2.413669e-15 -6.402467e-17 -2.920912e-14) (-4.071636e-13 -3.525954e-13 -3.976022e-10))
219.375719    	((1.469730e-13 1.017639e-12 -3.765933e-11) (1.230948e-11 -1.437275e-11 1.689806e-11)) ((2.379101e-15 -1.006183e-16 -2.805679e-14) (-3.973667e-13 -3.383155e-13 -3.836379e-10))
263.262863    	((6.909707e-13 6.889121e-13 -3.992322e-11) (1.179671e-11 -1.394644e-11 1.813672e-11)) ((2.357460e-15 -1.825059e-16 -2.700259e-14) (-3.808449e-13 -3.201711e-13 -3.708879e-10))
315.927436    	((1.094783e-12 6.286511e-13 -4.213540e-11) (1.124835e-11 -1.343675e-11 1.938638e-11)) ((2.296495e-15 -2.646836e-16 -2.604228e-14) (-3.614060e-13 -3.006242e-13 -3.592423e-10))
379.124923    	((1.086184e-12 8.350919e-13 -4.440911e-11) (1.067277e-11 -1.288420e-11 2.072515e-11)) ((2.185520e-15 -3.415932e-16 -2.515938e-14) (-3.425969e-13 -2.820788e-13 -3.486125e-10))
454.961908    	((1.117950e-12 5.515994e-13 -4.609721e-11) (1.010456e-11 -1.227963e-11 2.208799e-11)) ((2.068687e-15 -3.957016e-16 -2.436794e-14) (-3.223063e-13 -2.662317e-13 -3.389266e-10))
545.966289    	((1.182318e-12 5.025503e-13 -4.777457e-11) (9.545563e-12 -1.161469e-11 2.343452e-11)) ((1.981037e-15 -4.273353e-16 -2.365961e-14) (-3.014896e-13 -2.489644e-13 -3.301207e-10))
655.171547    	((1.471382e-12 3.260728e-13 -4.948276e-11) (8.966821e-12 -1.095006e-11 2.476451e-11)) ((1.929393e-15 -4.201762e-16 -2.301974e-14) (-2.819436e-13 -2.309786e-13 -3.221353e-10))
786.217856    	((1.749727e-12 1.618480e-13 -5.117388e-11) (8.369631e-12 -1.028859e-11 2.607194e-11)) ((1.945532e-15 -4.269103e-16 -2.245325e-14) (-2.635300e-13 -2.129044e-13 -3.149134e-10))
943.473427    	((2.258382e-12 -1.683949e-14 -5.291165e-11) (7.802276e-12 -9.620389e-12 2.730191e-11)) ((2.008743e-15 -4.213020e-16 -2.194564e-14) (-2.448971e-13 -1.961756e-13 -3.083952e-10))
1132.180113   	((2.650374e-12 -2.376259e-13 -5.443709e-11) (7.248770e-12 -8.959671e-12 2.846479e-11)) ((2.056497e-15 -4.128219e-16 -2.146197e-14) (-2.262118e-13 -1.801932e-13 -3.025245e-10))
1358.628135   	((3.031238e-12 -4.022810e-13 -5.582574e-11) (6.703671e-12 -8.330098e-12 2.958505e-11)) ((2.102388e-15 -4.084814e-16 -2.101962e-14) (-2.090976e-13 -1.646037e-13 -2.972459e-10))
1630.365763   	((3.400652e-12 -4.773688e-13 -5.721791e-11) (6.186435e-12 -7.723159e-12 3.067468e-11)) ((2.147813e-15 -4.166346e-16 -2.061979e-14) (-1.931623e-13 -1.490231e-13 -2.925054e-10))
1956.450915   	((3.857039e-12 -3.358499e-13 -5.864324e-11) (5.705539e-12 -7.146859e-12 3.176033e-11)) ((2.182319e-15 -4.420091e-16 -2.026090e-14) (-1.775011e-13 -1.335414e-13 -2.882486e-10))
2347.753098   	((4.378879e-12 -8.257295e-14 -6.010771e-11) (5.279273e-12 -6.597835e-12 3.281992e-11)) ((2.207623e-15 -4.642710e-16 -1.993969e-14) (-1.622948e-13 -1.195672e-13 -2.844268e-10))
2817.315718   	((5.060693e-12 2.057440e-13 -6.160700e-11) (4.898577e-12 -6.088371e-12 3.385479e-11)) ((2.219900e-15 -4.857641e-16 -1.965262e-14) (-1.484018e-13 -1.065487e-13 -2.809963e-10))
3380.790861   	((5.932060e-12 5.537969e-13 -6.311678e-11) (4.562561e-12 -5.636510e-12 3.484586e-11)) ((2.219301e-15 -5.157453e-16 -1.938835e-14) (-1.354477e-13 -9.489015e-14 -2.779156e-10))
4056.961033   	((6.912226e-12 1.030938e-12 -6.470179e-11) (4.271429e-12 -5.236833e-12 3.577644e-11)) ((2.220719e-15 -5.483934e-16 -1.915090e-14) (-1.239599e-13 -8.533395e-14 -2.751469e-10))
4868.36524    	((7.979230e-12 1.531501e-12 -6.638968e-11) (4.026584e-12 -4.896513e-12 3.664549e-11)) ((2.223540e-15 -5.829706e-16 -1.894064e-14) (-1.143807e-13 -7.761167e-14 -2.726567e-10))
5842.050288   	((9.279628e-12 1.989088e-12 -6.821677e-11) (3.822190e-12 -4.601180e-12 3.743728e-11)) ((2.234929e-15 -6.204749e-16 -1.874824e-14) (-1.066630e-13 -7.128262e-14 -2.704148e-10))
7010.472346   	((1.086576e-11 2.440955e-12 -7.032738e-11) (3.653192e-12 -4.336918e-12 3.814858e-11)) ((2.251515e-15 -6.621514e-16 -1.856825e-14) (-1.002552e-13 -6.626934e-14 -2.683939e-10))
8412.578815   	((1.277233e-11 2.948644e-12 -7.266197e-11) (3.515239e-12 -4.098216e-12 3.879301e-11)) ((2.277925e-15 -7.119575e-16 -1.840325e-14) (-9.477104e-14 -6.197994e-14 -2.665704e-10))
10095.106578  	((1.500287e-11 3.565370e-12 -7.526765e-11) (3.407822e-12 -3.875640e-12 3.936871e-11)) ((2.304377e-15 -7.753670e-16 -1.825086e-14) (-8.991523e-14 -5.835960e-14 -2.649230e-10))
12114.139893  	((1.759258e-11 4.287558e-12 -7.819774e-11) (3.333972e-12 -3.658395e-12 3.986905e-11)) ((2.331795e-15 -8.583725e-16 -1.811256e-14) (-8.545523e-14 -5.522556e-14 -2.634329e-10))
14536.979872  	((2.051977e-11 5.167371e-12 -8.144025e-11) (3.280967e-12 -3.446276e-12 4.030459e-11)) ((2.357429e-15 -9.482236e-16 -1.798929e-14) (-8.137042e-14 -5.208527e-14 -2.620836e-10))
17444.387847  	((2.375541e-11 6.293193e-12 -8.503676e-11) (3.247181e-12 -3.235457e-12 4.067886e-11)) ((2.392096e-15 -1.047538e-15 -1.787782e-14) (-7.716552e-14 -4.870664e-14 -2.608611e-10))
20863.095735  	((2.720740e-11 7.709053e-12 -8.893518e-11) (3.235105e-12 -3.029166e-12 4.098732e-11)) ((2.437559e-15 -1.146939e-15 -1.777625e-14) (-7.343207e-14 -4.524655e-14 -2.597526e-10))
24793.113043  	((3.075609e-11 9.502295e-12 -9.309469e-11) (3.243078e-12 -2.830237e-12 4.124358e-11)) ((2.490524e-15 -1.239371e-15 -1.768233e-14) (-7.025729e-14 -4.193389e-14 -2.587468e-10))
29234.448365  	((3.425898e-11 1.152678e-11 -9.736235e-11) (3.267846e-12 -2.636559e-12 4.146181e-11)) ((2.548445e-15 -1.329007e-15 -1.759351e-14) (-6.738531e-14 -3.909998e-14 -2.578339e-10))
34187.109461  	((3.766957e-11 1.360560e-11 -1.016358e-10) (3.304953e-12 -2.447691e-12 4.164523e-11)) ((2.600659e-15 -1.407400e-15 -1.751065e-14) (-6.488132e-14 -3.655315e-14 -2.570047e-10))
39300.436089  	((4.093088e-11 1.570499e-11 -1.057775e-10) (3.340396e-12 -2.268704e-12 4.180095e-11)) ((2.636937e-15 -1.464886e-15 -1.743660e-14) (-6.275144e-14 -3.421569e-14 -2.562509e-10))
44413.823549  	((4.386014e-11 1.784724e-11 -1.095453e-10) (3.363169e-12 -2.100111e-12 4.193346e-11)) ((2.666892e-15 -1.515269e-15 -1.736536e-14) (-6.114320e-14 -3.201773e-14 -2.555649e-10))
49527.26614   	((4.642912e-11 2.002539e-11 -1.130565e-10) (3.373065e-12 -1.937037e-12 4.205583e-11)) ((2.700074e-15 -1.570050e-15 -1.729612e-14) (-5.985003e-14 -2.991080e-14 -2.549407e-10))
54640.758655  	((4.869487e-11 2.230572e-11 -1.162354e-10) (3.363645e-12 -1.775535e-12 4.217243e-11)) ((2.740923e-15 -1.618023e-15 -1.722659e-14) (-5.853050e-14 -2.742688e-14 -2.543724e-10))
59754.296455  	((5.073521e-11 2.460477e-11 -1.193747e-10) (3.342578e-12 -1.633695e-12 4.228560e-11)) ((2.789659e-15 -1.652503e-15 -1.715617e-14) (-5.764031e-14 -2.481177e-14 -2.538551e-10))
64867.875199  	((5.254932e-11 2.686704e-11 -1.219730e-10) (3.312698e-12 -1.510458e-12 4.238534e-11)) ((2.843996e-15 -1.674338e-15 -1.708892e-14) (-5.731861e-14 -2.184793e-14 -2.533838e-10))
69981.491032  	((5.417157e-11 2.903191e-11 -1.245579e-10) (3.270091e-12 -1.398444e-12 4.247184e-11)) ((2.896417e-15 -1.686594e-15 -1.702607e-14) (-5.745813e-14 -1.852372e-14 -2.529542e-10))
75095.139941  	((5.551325e-11 3.107562e-11 -1.268870e-10) (3.216107e-12 -1.295889e-12 4.255516e-11)) ((2.951735e-15 -1.693296e-15 -1.697191e-14) (-5.783156e-14 -1.498140e-14 -2.525622e-10))
80208.817906  	((5.656219e-11 3.290519e-11 -1.288717e-10) (3.151564e-12 -1.199616e-12 4.264413e-11)) ((3.010833e-15 -1.696075e-15 -1.692698e-14) (-5.820319e-14 -1.130006e-14 -2.522044e-10))
85322.521079  	((5.728045e-11 3.467907e-11 -1.309623e-10) (3.075715e-12 -1.110996e-12 4.273100e-11)) ((3.068725e-15 -1.697693e-15 -1.688879e-14) (-5.881605e-14 -7.627085e-15 -2.518773e-10))
90436.24606   	((5.768534e-11 3.643890e-11 -1.325808e-10) (2.995460e-12 -1.025816e-12 4.281840e-11)) ((3.123440e-15 -1.700606e-15 -1.685416e-14) (-5.936347e-14 -3.965175e-15 -2.515781e-10))
95549.990269  	((5.780234e-11 3.829562e-11 -1.342148e-10) (2.916287e-12 -9.416249e-13 4.290861e-11)) ((3.172765e-15 -1.704674e-15 -1.682313e-14) (-5.962876e-14 -3.627523e-16 -2.513045e-10))
100663.752103 	((5.766933e-11 4.028313e-11 -1.357310e-10) (2.838800e-12 -8.535220e-13 4.299579e-11)) ((3.220433e-15 -1.707757e-15 -1.679588e-14) (-5.949296e-14 3.025986e-15 -2.510541e-10))
105777.530523 	((5.734656e-11 4.233068e-11 -1.371279e-10) (2.761764e-12 -7.612726e-13 4.307942e-11)) ((3.267509e-15 -1.713889e-15 -1.677325e-14) (-5.895378e-14 6.232063e-15 -2.508247e-10))
110891.324533 	((5.689479e-11 4.444890e-11 -1.384186e-10) (2.687368e-12 -6.673527e-13 4.315562e-11)) ((3.310045e-15 -1.720840e-15 -1.675326e-14) (-5.816724e-14 9.067564e-15 -2.506145e-10))
116005.13316  	((5.642683e-11 4.659392e-11 -1.395775e-10) (2.618760e-12 -5.680657e-13 4.322647e-11)) ((3.345498e-15 -1.726516e-15 -1.673478e-14) (-5.692224e-14 1.155615e-14 -2.504217e-10))
121118.955653 	((5.598767e-11 4.875492e-11 -1.406270e-10) (2.560045e-12 -4.640806e-13 4.329334e-11)) ((3.376770e-15 -1.730362e-15 -1.671708e-14) (-5.521476e-14 1.367359e-14 -2.502449e-10))
