# Forces      
# CofR        : (0.000000e+00 0.000000e+00 0.000000e+00)
# Time        forces(pressure viscous)	moments(pressure viscous)
0             	((0.000000e+00 0.000000e+00 0.000000e+00) (-2.468400e-15 3.991704e-06 1.951233e-16)) ((0.000000e+00 0.000000e+00 0.000000e+00) (8.968941e-08 -1.497247e-17 -1.909427e-12))
0.012         	((-1.329345e-09 1.160794e-03 2.898537e-04) (-8.061615e-12 4.581040e-06 -1.150824e-09)) ((-1.369071e-08 9.871758e-10 -2.189139e-10) (1.321866e-07 7.427155e-15 -3.978594e-12))
0.0264        	((-1.586416e-08 -7.968674e-05 -1.822828e-05) (-2.367611e-11 4.674819e-06 -1.578469e-09)) ((9.565290e-10 -6.179207e-11 1.451030e-11) (1.480157e-07 2.465440e-13 -5.258185e-12))
0.04368       	((2.302765e-08 -2.431992e-04 -2.636757e-05) (-9.929351e-12 4.155185e-06 -1.225998e-09)) ((3.164941e-09 -9.032569e-11 5.882918e-11) (1.318674e-07 -5.186292e-13 -4.481994e-12))
0.064416      	((-6.706765e-09 -2.285960e-06 -9.415015e-06) (8.851428e-11 3.680744e-06 -7.472683e-10)) ((-1.553216e-11 -3.184312e-11 -2.635178e-12) (1.183655e-07 -8.881236e-13 -5.227021e-12))
0.0892992     	((1.959986e-09 3.317151e-06 -5.631886e-06) (1.297249e-10 3.398406e-06 -7.216037e-10)) ((-1.307801e-10 -1.936477e-11 -3.431982e-12) (1.118864e-07 -3.554293e-13 -5.568833e-12))
0.119159      	((5.629230e-10 -3.618305e-06 -3.429225e-06) (1.057299e-10 3.138195e-06 -8.031717e-10)) ((6.841610e-11 -1.134439e-11 6.296662e-13) (1.046846e-07 -3.152216e-13 -4.886089e-12))
0.154991      	((-1.259872e-09 -1.959128e-06 -2.118773e-06) (7.630685e-11 2.862051e-06 -7.060395e-10)) ((4.160834e-11 -7.132260e-12 5.302942e-14) (9.666220e-08 -2.750668e-13 -4.257584e-12))
0.197989      	((8.712350e-10 -4.762352e-07 -1.297625e-06) (3.757375e-11 2.583053e-06 -7.156120e-10)) ((1.452144e-11 -4.318279e-12 6.679748e-14) (8.849211e-08 -2.338176e-13 -2.266617e-12))
0.249587      	((6.473725e-10 6.201952e-08 -7.840109e-07) (1.628797e-11 2.309081e-06 -7.737560e-10)) ((3.734063e-12 -2.554041e-12 -2.505337e-13) (8.031623e-08 -3.770544e-13 -7.942725e-13))
0.311504      	((3.228423e-10 3.082168e-07 -4.585520e-07) (9.028051e-12 2.048289e-06 -8.438556e-10)) ((4.337574e-13 -1.459618e-12 -2.939765e-13) (7.229090e-08 -5.121180e-13 -7.559362e-14))
0.385805      	((2.369213e-10 4.262003e-07 -2.547253e-07) (6.688770e-12 1.807247e-06 -9.060767e-10)) ((-4.983590e-13 -7.389330e-13 -2.586241e-13) (6.461196e-08 -5.849973e-13 6.245165e-13))
0.474966      	((4.760843e-11 4.811197e-07 -1.265075e-07) (5.544678e-14 1.590917e-06 -9.648488e-10)) ((-1.409366e-12 -3.043815e-13 -2.189493e-13) (5.749596e-08 -5.666569e-13 7.957187e-13))
0.581959      	((-1.748297e-11 5.028164e-07 -4.861483e-08) (-6.484327e-12 1.401575e-06 -1.028472e-09)) ((-2.221933e-12 -4.309059e-14 -1.922724e-13) (5.108167e-08 -4.494498e-13 7.938036e-14))
0.710351      	((-5.673360e-11 5.005757e-07 -1.529055e-09) (3.863208e-14 1.239422e-06 -1.085473e-09)) ((-2.762314e-12 1.158003e-13 -1.565660e-13) (4.544755e-08 -3.340891e-13 -1.010344e-12))
0.864421      	((-5.189893e-11 4.824575e-07 2.527826e-08) (9.673619e-12 1.102397e-06 -1.128674e-09)) ((-2.985653e-12 2.047812e-13 -1.544843e-13) (4.059530e-08 -2.180898e-13 -1.312980e-12))
1.049306      	((-4.262328e-11 4.559377e-07 4.020337e-08) (1.540966e-11 9.869639e-07 -1.161452e-09)) ((-2.941994e-12 2.515920e-13 -1.489424e-13) (3.645178e-08 -1.203910e-13 -6.544432e-13))
1.271167      	((-1.143562e-11 4.265179e-07 4.720005e-08) (1.544799e-11 8.894590e-07 -1.191290e-09)) ((-2.771902e-12 2.743969e-13 -1.375640e-13) (3.290519e-08 -3.705356e-14 2.623212e-13))
1.5374        	((-6.167250e-12 3.964920e-07 4.959424e-08) (9.342838e-12 8.059846e-07 -1.228673e-09)) ((-2.580816e-12 2.833093e-13 -1.366972e-13) (2.983514e-08 2.524996e-14 9.495180e-13))
1.85688       	((-6.685530e-13 3.672224e-07 4.872346e-08) (2.931498e-12 7.329711e-07 -1.279776e-09)) ((-2.364393e-12 2.796383e-13 -1.375926e-13) (2.713674e-08 5.667219e-14 1.300600e-12))
2.240256      	((4.711719e-12 3.394674e-07 4.606447e-08) (2.820544e-12 6.680698e-07 -1.341295e-09)) ((-2.170856e-12 2.680713e-13 -1.368989e-13) (2.473392e-08 1.051661e-13 1.288332e-12))
2.700307      	((7.922129e-13 3.135459e-07 4.222735e-08) (5.481179e-12 6.098369e-07 -1.407083e-09)) ((-2.009830e-12 2.531436e-13 -1.352596e-13) (2.257609e-08 1.757499e-13 7.063494e-13))
3.252369      	((3.723484e-12 2.893600e-07 3.800148e-08) (6.189274e-12 5.573276e-07 -1.476998e-09)) ((-1.847669e-12 2.374378e-13 -1.246314e-13) (2.062962e-08 2.139728e-13 -2.565856e-13))
3.914842      	((8.897121e-12 2.666266e-07 3.357720e-08) (4.733402e-12 5.098704e-07 -1.553859e-09)) ((-1.688211e-12 2.209292e-13 -1.131402e-13) (1.887033e-08 2.247307e-13 -1.191115e-12))
4.709811      	((2.568366e-11 2.455499e-07 2.928984e-08) (4.758983e-12 4.669731e-07 -1.640978e-09)) ((-1.543642e-12 2.051701e-13 -1.020978e-13) (1.727990e-08 2.093031e-13 -2.001397e-12))
5.663773      	((4.724092e-11 2.261489e-07 2.516666e-08) (5.971444e-12 4.282717e-07 -1.739055e-09)) ((-1.417098e-12 1.901364e-13 -9.295610e-14) (1.584480e-08 1.121852e-13 -2.588166e-12))
6.808528      	((5.517957e-11 2.083393e-07 2.133407e-08) (6.892067e-12 3.934616e-07 -1.843986e-09)) ((-1.306012e-12 1.755185e-13 -8.229454e-14) (1.455382e-08 -5.557112e-14 -2.910768e-12))
8.182233      	((5.065022e-11 1.920113e-07 1.774959e-08) (7.619370e-12 3.622122e-07 -1.952104e-09)) ((-1.208858e-12 1.603748e-13 -7.141957e-14) (1.339521e-08 -1.786418e-13 -2.981559e-12))
9.83068       	((4.255926e-11 1.771918e-07 1.446662e-08) (4.752524e-12 3.341441e-07 -2.065888e-09)) ((-1.120054e-12 1.470964e-13 -6.188334e-14) (1.235501e-08 -2.142033e-13 -2.788687e-12))
11.808816     	((3.091656e-11 1.636266e-07 1.147363e-08) (1.325434e-13 3.088480e-07 -2.187451e-09)) ((-1.037528e-12 1.365973e-13 -5.378409e-14) (1.141770e-08 -2.336556e-13 -2.459254e-12))
14.182579     	((1.253223e-11 1.512400e-07 8.752555e-09) (-3.941822e-12 2.859458e-07 -2.319245e-09)) ((-9.616373e-13 1.259145e-13 -4.655205e-14) (1.056896e-08 -2.544456e-13 -2.043458e-12))
17.031095     	((1.189507e-11 1.399448e-07 6.280079e-09) (-6.393183e-12 2.651287e-07 -2.461932e-09)) ((-8.928286e-13 1.165159e-13 -4.021912e-14) (9.797287e-09 -2.835722e-13 -1.645792e-12))
20.449314     	((8.567383e-12 1.296595e-07 3.963865e-09) (-7.837860e-12 2.461592e-07 -2.617118e-09)) ((-8.308862e-13 1.071057e-13 -3.526135e-14) (9.093834e-09 -3.139515e-13 -1.310484e-12))
24.551176     	((7.034929e-12 1.202469e-07 1.903240e-09) (-9.422172e-12 2.288572e-07 -2.783190e-09)) ((-7.749479e-13 9.786035e-14 -3.140493e-14) (8.452032e-09 -2.964678e-13 -9.311464e-13))
29.473411     	((4.792508e-12 1.116450e-07 6.979710e-11) (-9.384869e-12 2.130908e-07 -2.957861e-09)) ((-7.251222e-13 8.927991e-14 -2.801168e-14) (7.867075e-09 -2.426664e-13 -5.227586e-13))
35.380094     	((-4.700666e-13 1.037912e-07 -1.570092e-09) (-8.385378e-12 1.987496e-07 -3.141341e-09)) ((-6.804127e-13 8.235759e-14 -2.510417e-14) (7.334949e-09 -2.002331e-13 -6.410070e-14))
42.468112     	((6.672171e-13 9.666184e-08 -2.980478e-09) (-6.845686e-12 1.857250e-07 -3.331832e-09)) ((-6.392525e-13 7.568071e-14 -2.285175e-14) (6.851685e-09 -1.792765e-13 4.866037e-13))
50.973735     	((9.933070e-12 9.019824e-08 -4.211880e-09) (-4.727792e-12 1.739075e-07 -3.527105e-09)) ((-6.020933e-13 6.970319e-14 -2.107763e-14) (6.413216e-09 -1.813928e-13 1.146239e-12))
61.180482     	((1.501631e-11 8.435710e-08 -5.276357e-09) (-3.044179e-12 1.631870e-07 -3.726067e-09)) ((-5.685223e-13 6.489756e-14 -1.951939e-14) (6.015487e-09 -2.036191e-13 1.910671e-12))
73.428578     	((2.204933e-11 7.907883e-08 -6.211443e-09) (-1.932194e-12 1.534545e-07 -3.929842e-09)) ((-5.375158e-13 6.056022e-14 -1.824131e-14) (5.654431e-09 -2.569093e-13 2.732605e-12))
88.126294     	((2.876405e-11 7.434248e-08 -7.023776e-09) (-1.375470e-12 1.446092e-07 -4.139201e-09)) ((-5.102213e-13 5.669188e-14 -1.711570e-14) (5.326259e-09 -3.289768e-13 3.596525e-12))
105.763553    	((3.228431e-11 7.007885e-08 -7.732613e-09) (-1.832645e-12 1.365617e-07 -4.355024e-09)) ((-4.855192e-13 5.322856e-14 -1.619130e-14) (5.027664e-09 -4.169407e-13 4.469877e-12))
126.928263    	((3.591544e-11 6.628752e-08 -8.330494e-09) (-2.519495e-12 1.292380e-07 -4.578572e-09)) ((-4.638483e-13 5.020287e-14 -1.537693e-14) (4.755921e-09 -5.080730e-13 5.309145e-12))
152.325916    	((3.966832e-11 6.292821e-08 -8.834183e-09) (-3.193012e-12 1.225770e-07 -4.810250e-09)) ((-4.453316e-13 4.756312e-14 -1.464714e-14) (4.508829e-09 -5.917744e-13 6.090765e-12))
182.803099    	((4.304148e-11 5.992829e-08 -9.238102e-09) (-3.419342e-12 1.165238e-07 -5.050333e-09)) ((-4.293689e-13 4.531188e-14 -1.406279e-14) (4.284415e-09 -6.708643e-13 6.779231e-12))
219.375719    	((4.615604e-11 5.725856e-08 -9.567383e-09) (-3.753535e-12 1.110306e-07 -5.299053e-09)) ((-4.159340e-13 4.345269e-14 -1.367717e-14) (4.080971e-09 -7.485373e-13 7.373585e-12))
263.262863    	((4.787716e-11 5.490468e-08 -9.835564e-09) (-3.863605e-12 1.060544e-07 -5.556133e-09)) ((-4.046800e-13 4.192747e-14 -1.338974e-14) (3.896956e-09 -8.186245e-13 7.860540e-12))
315.927436    	((4.788125e-11 5.286325e-08 -1.003420e-08) (-3.867617e-12 1.015590e-07 -5.821382e-09)) ((-3.954979e-13 4.074305e-14 -1.316566e-14) (3.731024e-09 -8.772900e-13 8.235059e-12))
379.124923    	((4.846501e-11 5.111932e-08 -1.017486e-08) (-3.791047e-12 9.751190e-08 -6.094307e-09)) ((-3.883729e-13 3.985644e-14 -1.307194e-14) (3.582008e-09 -9.336854e-13 8.503698e-12))
454.961908    	((4.998293e-11 4.964027e-08 -1.026462e-08) (-3.636407e-12 9.388490e-08 -6.375079e-09)) ((-3.831386e-13 3.929188e-14 -1.303814e-14) (3.448842e-09 -9.844610e-13 8.676299e-12))
545.966289    	((5.022813e-11 4.839983e-08 -1.030716e-08) (-2.941153e-12 9.065074e-08 -6.662108e-09)) ((-3.793232e-13 3.889132e-14 -1.308313e-14) (3.330506e-09 -1.040264e-12 8.758617e-12))
655.171547    	((5.004266e-11 4.737545e-08 -1.031544e-08) (-2.329428e-12 8.778423e-08 -6.954418e-09)) ((-3.767287e-13 3.871906e-14 -1.315519e-14) (3.226026e-09 -1.098953e-12 8.762228e-12))
786.217856    	((4.912948e-11 4.653914e-08 -1.029170e-08) (-1.520551e-12 8.526175e-08 -7.248939e-09)) ((-3.749440e-13 3.885358e-14 -1.323736e-14) (3.134434e-09 -1.162230e-12 8.687947e-12))
943.473427    	((4.855986e-11 4.586432e-08 -1.024478e-08) (-4.299923e-13 8.305900e-08 -7.541435e-09)) ((-3.736607e-13 3.916424e-14 -1.333710e-14) (3.054742e-09 -1.218948e-12 8.545563e-12))
1132.180113   	((4.808531e-11 4.532466e-08 -1.018294e-08) (8.749811e-13 8.115045e-08 -7.826906e-09)) ((-3.725995e-13 3.973762e-14 -1.338661e-14) (2.985928e-09 -1.265118e-12 8.339631e-12))
1358.628135   	((4.825665e-11 4.489257e-08 -1.012092e-08) (2.508510e-12 7.950909e-08 -8.099525e-09)) ((-3.715891e-13 4.042819e-14 -1.344343e-14) (2.926942e-09 -1.311088e-12 8.071435e-12))
1630.365763   	((4.860958e-11 4.454525e-08 -1.006639e-08) (4.460039e-12 7.810720e-08 -8.354564e-09)) ((-3.705142e-13 4.112504e-14 -1.351821e-14) (2.876721e-09 -1.354513e-12 7.745433e-12))
1954.78852    	((4.820156e-11 4.426440e-08 -1.002593e-08) (6.513503e-12 7.691707e-08 -8.588477e-09)) ((-3.693021e-13 4.172691e-14 -1.353118e-14) (2.834233e-09 -1.392238e-12 7.379745e-12))
2332.08739    	((4.745077e-11 4.403769e-08 -1.000255e-08) (8.372329e-12 7.591254e-08 -8.799148e-09)) ((-3.679312e-13 4.224716e-14 -1.349380e-14) (2.798522e-09 -1.416280e-12 6.991363e-12))
2762.420777   	((4.651051e-11 4.385156e-08 -9.993501e-09) (1.012400e-11 7.506776e-08 -8.986221e-09)) ((-3.663815e-13 4.263517e-14 -1.345053e-14) (2.768643e-09 -1.426909e-12 6.589162e-12))
3245.921612   	((4.538834e-11 4.369862e-08 -9.981489e-09) (1.178051e-11 7.435950e-08 -9.150441e-09)) ((-3.647289e-13 4.297839e-14 -1.340425e-14) (2.743752e-09 -1.425299e-12 6.179962e-12))
3778.720942   	((4.405983e-11 4.357223e-08 -9.973690e-09) (1.328930e-11 7.376663e-08 -9.293305e-09)) ((-3.630933e-13 4.324373e-14 -1.336289e-14) (2.723077e-09 -1.415722e-12 5.767525e-12))
4312.477531   	((4.263913e-11 4.347083e-08 -9.970489e-09) (1.454590e-11 7.327226e-08 -9.416535e-09)) ((-3.615359e-13 4.345838e-14 -1.332867e-14) (2.706000e-09 -1.398085e-12 5.361590e-12))
4847.046547   	((4.120404e-11 4.338523e-08 -9.958062e-09) (1.554591e-11 7.285906e-08 -9.522723e-09)) ((-3.600078e-13 4.368831e-14 -1.330076e-14) (2.691876e-09 -1.372785e-12 4.966820e-12))
5382.312088   	((3.964302e-11 4.331454e-08 -9.940138e-09) (1.634818e-11 7.251421e-08 -9.613856e-09)) ((-3.585968e-13 4.391827e-14 -1.327987e-14) (2.680223e-09 -1.342180e-12 4.589670e-12))
5918.173302   	((3.807639e-11 4.325466e-08 -9.916532e-09) (1.703566e-11 7.222550e-08 -9.692164e-09)) ((-3.572918e-13 4.416365e-14 -1.326034e-14) (2.670585e-09 -1.308099e-12 4.230878e-12))
6454.546786   	((3.641940e-11 4.320476e-08 -9.890143e-09) (1.759946e-11 7.198373e-08 -9.759397e-09)) ((-3.561236e-13 4.438827e-14 -1.324207e-14) (2.662614e-09 -1.270663e-12 3.892876e-12))
6991.360311   	((3.483572e-11 4.316245e-08 -9.861849e-09) (1.805514e-11 7.178064e-08 -9.817254e-09)) ((-3.550762e-13 4.460080e-14 -1.322713e-14) (2.656001e-09 -1.230193e-12 3.575752e-12))
7528.553015   	((3.323670e-11 4.312711e-08 -9.833069e-09) (1.841410e-11 7.160987e-08 -9.867076e-09)) ((-3.541501e-13 4.478198e-14 -1.321333e-14) (2.650509e-09 -1.187279e-12 3.279608e-12))
8066.072224   	((3.166373e-11 4.309700e-08 -9.806274e-09) (1.869017e-11 7.146590e-08 -9.910049e-09)) ((-3.533295e-13 4.493382e-14 -1.319751e-14) (2.645933e-09 -1.142375e-12 3.004802e-12))
8603.873105   	((3.011959e-11 4.307165e-08 -9.778312e-09) (1.888858e-11 7.134436e-08 -9.947144e-09)) ((-3.526139e-13 4.507715e-14 -1.318334e-14) (2.642115e-09 -1.096201e-12 2.751524e-12))
9141.916953   	((2.864068e-11 4.305008e-08 -9.751867e-09) (1.900000e-11 7.124152e-08 -9.979219e-09)) ((-3.519850e-13 4.520406e-14 -1.317177e-14) (2.638919e-09 -1.049219e-12 2.519028e-12))
9680.170694   	((2.724704e-11 4.303178e-08 -9.727384e-09) (1.903169e-11 7.115436e-08 -1.000699e-08)) ((-3.514347e-13 4.531865e-14 -1.316267e-14) (2.636238e-09 -1.001920e-12 2.306608e-12))
10218.605755  	((2.594610e-11 4.301609e-08 -9.705173e-09) (1.900273e-11 7.108037e-08 -1.003106e-08)) ((-3.509543e-13 4.541848e-14 -1.315546e-14) (2.633983e-09 -9.552232e-13 2.112888e-12))
10757.197588  	((2.472502e-11 4.300283e-08 -9.684818e-09) (1.892609e-11 7.101748e-08 -1.005195e-08)) ((-3.505392e-13 4.550597e-14 -1.314998e-14) (2.632082e-09 -9.098517e-13 1.936788e-12))
11295.924966  	((2.360193e-11 4.299153e-08 -9.666441e-09) (1.881327e-11 7.096395e-08 -1.007009e-08)) ((-3.501787e-13 4.558326e-14 -1.314521e-14) (2.630476e-09 -8.662394e-13 1.777028e-12))
11834.769622  	((2.254905e-11 4.298186e-08 -9.649331e-09) (1.867044e-11 7.091833e-08 -1.008583e-08)) ((-3.498658e-13 4.565359e-14 -1.314139e-14) (2.629117e-09 -8.245885e-13 1.632507e-12))
12373.715825  	((2.160262e-11 4.297363e-08 -9.634133e-09) (1.850481e-11 7.087940e-08 -1.009950e-08)) ((-3.495951e-13 4.571502e-14 -1.313865e-14) (2.627964e-09 -7.850322e-13 1.502078e-12))
12912.74997   	((2.073148e-11 4.296656e-08 -9.620747e-09) (1.832358e-11 7.084616e-08 -1.011137e-08)) ((-3.493601e-13 4.576840e-14 -1.313663e-14) (2.626985e-09 -7.476861e-13 1.384546e-12))
13451.860306  	((1.993820e-11 4.296050e-08 -9.608754e-09) (1.813347e-11 7.081773e-08 -1.012168e-08)) ((-3.491566e-13 4.581516e-14 -1.313502e-14) (2.626152e-09 -7.126143e-13 1.278826e-12))
13991.036678  	((1.921528e-11 4.295529e-08 -9.598069e-09) (1.793814e-11 7.079340e-08 -1.013063e-08)) ((-3.489811e-13 4.585580e-14 -1.313366e-14) (2.625441e-09 -6.798088e-13 1.183859e-12))
14530.270301  	((1.854471e-11 4.295073e-08 -9.588538e-09) (1.774040e-11 7.077256e-08 -1.013840e-08)) ((-3.488284e-13 4.589134e-14 -1.313278e-14) (2.624835e-09 -6.492356e-13 1.098720e-12))
15069.55357   	((1.793760e-11 4.294686e-08 -9.579992e-09) (1.754297e-11 7.075470e-08 -1.014515e-08)) ((-3.486964e-13 4.592236e-14 -1.313212e-14) (2.624317e-09 -6.208373e-13 1.022549e-12))
15608.879905  	((1.739769e-11 4.294356e-08 -9.572364e-09) (1.734922e-11 7.073937e-08 -1.015100e-08)) ((-3.485819e-13 4.594962e-14 -1.313183e-14) (2.623873e-09 -5.945956e-13 9.544425e-13))
16148.243606  	((1.691297e-11 4.294072e-08 -9.565567e-09) (1.716141e-11 7.072622e-08 -1.015608e-08)) ((-3.484832e-13 4.597389e-14 -1.313147e-14) (2.623493e-09 -5.704431e-13 8.936894e-13))
16687.639727  	((1.647498e-11 4.293823e-08 -9.559562e-09) (1.698014e-11 7.071492e-08 -1.016049e-08)) ((-3.483974e-13 4.599497e-14 -1.313143e-14) (2.623167e-09 -5.482657e-13 8.396065e-13))
17227.06398   	((1.608049e-11 4.293612e-08 -9.554226e-09) (1.680691e-11 7.070522e-08 -1.016431e-08)) ((-3.483235e-13 4.601328e-14 -1.313151e-14) (2.622887e-09 -5.279699e-13 7.914868e-13))
17766.512651  	((1.572480e-11 4.293430e-08 -9.549494e-09) (1.664201e-11 7.069688e-08 -1.016762e-08)) ((-3.482593e-13 4.602919e-14 -1.313167e-14) (2.622646e-09 -5.094441e-13 7.487193e-13))
