# Forces      
# CofR        : (0.000000e+00 0.000000e+00 0.000000e+00)
# Time        forces(pressure viscous)	moments(pressure viscous)
0             	((0.000000e+00 0.000000e+00 0.000000e+00) (0.000000e+00 0.000000e+00 0.000000e+00)) ((0.000000e+00 0.000000e+00 0.000000e+00) (0.000000e+00 0.000000e+00 0.000000e+00))
0.012         	((1.425472e-09 -2.405667e-07 2.791546e-09) (3.626830e-11 -2.681964e-09 3.601109e-11)) ((1.765809e-11 3.550879e-13 3.349522e-09) (-5.085263e-11 -1.174384e-12 6.713306e-06))
0.0264        	((-1.895417e-09 8.660220e-08 -1.432363e-08) (4.268377e-11 -2.905414e-09 -3.710022e-11)) ((4.118829e-11 5.968245e-13 1.063539e-09) (-8.867434e-11 -5.521632e-13 5.877483e-06))
0.04368       	((1.882254e-09 -4.297247e-08 -2.701241e-08) (2.567674e-11 -1.907377e-09 -2.188003e-10)) ((-1.707757e-11 1.221839e-12 6.086969e-10) (-7.006701e-11 -4.210399e-13 5.089874e-06))
0.064416      	((5.056115e-09 -9.036021e-09 -5.437805e-08) (-9.643912e-11 -9.724475e-10 -1.099370e-10)) ((7.283389e-12 1.218136e-12 4.495477e-10) (-2.800858e-11 3.972557e-12 4.374519e-06))
0.0892992     	((6.940501e-09 -2.210383e-08 -8.293006e-08) (-3.188857e-10 -5.063035e-10 2.868370e-10)) ((-4.024940e-12 3.020617e-12 3.816546e-10) (-7.000534e-12 1.310136e-11 3.751259e-06))
0.119159      	((7.738926e-09 -7.922908e-09 -1.181831e-07) (-5.525281e-10 -4.655681e-10 1.684110e-09)) ((-2.483983e-12 3.753302e-12 3.131976e-10) (8.345215e-12 1.833026e-11 3.224697e-06))
0.154991      	((4.367218e-09 -2.105297e-08 -1.470947e-07) (-7.537289e-10 -3.422024e-10 5.019189e-09)) ((-3.717011e-12 2.733171e-12 2.570826e-10) (1.222604e-11 2.555845e-11 2.788929e-06))
0.197989      	((7.586692e-09 -1.808497e-08 -1.711872e-07) (-8.856158e-10 -1.834414e-10 1.119456e-08)) ((-3.522634e-12 2.744289e-12 2.161438e-10) (1.443255e-11 3.462047e-11 2.431414e-06))
0.249587      	((8.743410e-09 -1.705873e-08 -1.992637e-07) (-1.196463e-09 4.655765e-11 2.002766e-08)) ((-3.409090e-12 3.550611e-12 1.895541e-10) (1.456081e-11 4.034585e-11 2.138073e-06))
0.311504      	((3.934907e-09 -1.962619e-08 -2.238849e-07) (-1.456674e-09 2.536564e-10 3.058945e-08)) ((-2.725106e-12 4.403282e-12 1.706959e-10) (1.333988e-11 4.852608e-11 1.893997e-06))
0.385805      	((8.198086e-09 -2.162074e-08 -2.511220e-07) (-1.668566e-09 4.890512e-10 4.273574e-08)) ((-7.877390e-13 5.141887e-12 1.531026e-10) (1.022085e-11 5.758490e-11 1.688193e-06))
0.474966      	((9.209464e-09 -1.885716e-08 -2.749748e-07) (-1.623744e-09 8.582751e-10 5.650058e-08)) ((4.525212e-13 5.181591e-12 1.378793e-10) (9.510628e-12 6.995066e-11 1.512202e-06))
0.581959      	((1.575614e-08 -1.902504e-08 -3.039669e-07) (-1.131890e-09 1.196061e-09 7.215100e-08)) ((1.408606e-12 4.681702e-12 1.266889e-10) (1.157284e-11 7.784453e-11 1.359593e-06))
0.710351      	((1.918639e-08 -1.794491e-08 -3.426375e-07) (-6.766195e-10 1.065877e-09 9.044204e-08)) ((2.319882e-12 4.261198e-12 1.171006e-10) (1.436152e-11 6.603344e-11 1.225541e-06))
0.864421      	((1.972262e-08 -1.874804e-08 -3.840106e-07) (-7.309802e-10 8.081074e-10 1.121341e-07)) ((3.238478e-12 1.658771e-12 1.076008e-10) (1.549689e-11 5.101358e-11 1.106674e-06))
1.049306      	((2.034027e-08 -1.480033e-08 -4.363187e-07) (-1.422070e-09 1.313028e-09 1.379033e-07)) ((4.388641e-12 -8.152054e-13 9.876290e-11) (2.006761e-11 4.562047e-11 1.001005e-06))
1.271167      	((1.520642e-08 -7.732771e-09 -4.819342e-07) (-2.292387e-09 2.083278e-09 1.669262e-07)) ((4.849613e-12 -2.137058e-12 9.104653e-11) (2.952431e-11 4.843587e-11 9.075835e-07))
1.5374        	((6.862551e-09 -6.785766e-09 -5.247985e-07) (-3.300875e-09 2.610960e-09 1.989171e-07)) ((4.674262e-12 -3.676357e-12 8.411898e-11) (3.741579e-11 7.206201e-11 8.258750e-07))
1.85688       	((3.254116e-09 -2.880108e-09 -5.702452e-07) (-4.050484e-09 2.737541e-09 2.327935e-07)) ((4.335100e-12 -3.070234e-12 7.790931e-11) (3.680211e-11 9.307409e-11 7.552147e-07))
2.240256      	((4.138510e-09 -2.084648e-09 -6.238907e-07) (-3.998698e-09 2.701841e-09 2.678598e-07)) ((3.755350e-12 -2.580745e-12 7.189281e-11) (3.203980e-11 1.040616e-10 6.943996e-07))
2.700307      	((6.297316e-10 -7.064992e-09 -6.855082e-07) (-2.920825e-09 2.165895e-09 3.043389e-07)) ((3.018694e-12 -2.624550e-12 6.617068e-11) (1.940286e-11 1.070223e-10 6.417515e-07))
3.252369      	((-3.252958e-09 -1.022721e-08 -7.543966e-07) (-1.559692e-09 1.658257e-09 3.426891e-07)) ((2.641271e-12 -4.437464e-12 6.065097e-11) (-8.745696e-13 1.086261e-10 5.955103e-07))
3.914842      	((-2.063364e-09 -1.410699e-08 -8.396879e-07) (-2.223061e-10 8.886724e-10 3.830464e-07)) ((1.801352e-12 -5.733280e-12 5.536361e-11) (-2.635465e-11 1.070087e-10 5.541463e-07))
4.709811      	((-9.172969e-09 -1.523064e-08 -9.391507e-07) (2.330380e-10 7.168608e-10 4.252277e-07)) ((9.705893e-13 -6.234072e-12 5.049488e-11) (-4.433062e-11 9.997518e-11 5.165914e-07))
5.663773      	((-1.264729e-08 -1.428042e-08 -1.048127e-06) (1.368213e-10 9.330846e-10 4.700112e-07)) ((4.667330e-13 -6.407319e-12 4.603641e-11) (-4.505205e-11 9.318879e-11 4.821672e-07))
6.808528      	((-1.539344e-08 -1.482401e-08 -1.162023e-06) (5.482604e-11 1.242652e-09 5.181706e-07)) ((8.296214e-14 -6.921211e-12 4.201583e-11) (-3.991747e-11 9.734151e-11 4.503967e-07))
8.182233      	((-1.644242e-08 -1.122357e-08 -1.274786e-06) (-6.274042e-10 1.743973e-09 5.719282e-07)) ((-3.844370e-13 -7.344493e-12 3.860964e-11) (-2.128486e-11 1.239237e-10 4.209170e-07))
9.83068       	((-1.236059e-08 -1.095369e-08 -1.382398e-06) (-1.468480e-09 2.328658e-09 6.312201e-07)) ((-6.251648e-13 -7.647794e-12 3.551572e-11) (1.123870e-11 1.449342e-10 3.935110e-07))
11.808816     	((-7.874220e-09 -1.256747e-08 -1.497987e-06) (-2.517869e-09 2.685618e-09 6.972308e-07)) ((-5.299141e-13 -8.244455e-12 3.258773e-11) (2.810521e-11 1.617841e-10 3.681388e-07))
14.182579     	((-8.535764e-09 -9.808213e-09 -1.611348e-06) (-3.371257e-09 2.746319e-09 7.677690e-07)) ((-7.963998e-13 -8.859597e-12 2.986404e-11) (4.169932e-11 1.553083e-10 3.448660e-07))
17.031095     	((-9.475518e-09 -1.105296e-08 -1.726803e-06) (-3.199961e-09 2.747301e-09 8.420728e-07)) ((-6.772133e-13 -9.542712e-12 2.735552e-11) (4.075754e-11 1.202681e-10 3.237911e-07))
20.449314     	((-8.058889e-09 -9.965998e-09 -1.848998e-06) (-2.564213e-09 2.767826e-09 9.219210e-07)) ((-7.690398e-13 -1.009427e-11 2.516895e-11) (4.948635e-11 7.146977e-11 3.049216e-07))
24.551176     	((-8.437543e-09 -1.004244e-08 -1.966883e-06) (-1.893415e-09 2.724193e-09 1.005837e-06)) ((-1.304539e-12 -1.063892e-11 2.323779e-11) (7.517470e-11 2.815196e-11 2.881534e-07))
29.473411     	((-9.402581e-09 -1.147808e-08 -2.093090e-06) (-1.420290e-09 2.527695e-09 1.093071e-06)) ((-1.568114e-12 -1.113512e-11 2.165576e-11) (9.024086e-11 2.199363e-12 2.732982e-07))
35.380094     	((-8.353062e-09 -1.167893e-08 -2.224808e-06) (-1.072778e-09 2.446278e-09 1.183208e-06)) ((-1.825507e-12 -1.194733e-11 2.037369e-11) (9.226542e-11 -6.299619e-12 2.601098e-07))
42.468112     	((-7.449700e-09 -1.328668e-08 -2.360602e-06) (-1.184859e-09 2.006242e-09 1.276174e-06)) ((-1.883824e-12 -1.285481e-11 1.924264e-11) (7.657595e-11 -1.424986e-11 2.483666e-07))
50.838911     	((-6.668321e-09 -1.363561e-08 -2.488132e-06) (-1.245816e-09 1.470549e-09 1.372471e-06)) ((-1.760589e-12 -1.379232e-11 1.823243e-11) (5.386501e-11 -3.468618e-11 2.379918e-07))
60.492252     	((-6.096137e-09 -1.593531e-08 -2.609449e-06) (-1.356494e-09 8.896172e-10 1.470361e-06)) ((-1.508060e-12 -1.467985e-11 1.733846e-11) (2.778216e-11 -5.882407e-11 2.289352e-07))
71.427867     	((-4.804047e-09 -1.665622e-08 -2.725944e-06) (-1.137621e-09 3.921088e-10 1.568668e-06)) ((-1.324242e-12 -1.550615e-11 1.664349e-11) (1.050293e-12 -8.762039e-11 2.211283e-07))
83.645431     	((-3.236800e-09 -1.651989e-08 -2.838140e-06) (-5.729864e-10 1.383263e-10 1.666384e-06)) ((-1.139647e-12 -1.635991e-11 1.600288e-11) (-1.878132e-11 -1.224980e-10 2.145344e-07))
96.460839     	((-1.352010e-09 -1.507428e-08 -2.937645e-06) (5.406570e-11 1.336020e-10 1.761464e-06)) ((-9.950552e-13 -1.736181e-11 1.540868e-11) (-2.669157e-11 -1.622652e-10 2.092010e-07))
109.27165     	((6.250396e-11 -1.335956e-08 -3.022589e-06) (9.696882e-10 1.053931e-10 1.852596e-06)) ((-9.452694e-13 -1.829296e-11 1.486647e-11) (-2.061079e-11 -2.039607e-10 2.050428e-07))
122.077637    	((2.213813e-09 -1.034458e-08 -3.092872e-06) (1.904734e-09 3.879503e-10 1.940701e-06)) ((-9.232338e-13 -1.908631e-11 1.437085e-11) (1.255392e-11 -2.428252e-10 2.019050e-07))
134.878345    	((3.024769e-09 -8.076953e-09 -3.149294e-06) (2.492736e-09 1.279504e-09 2.025961e-06)) ((-9.594661e-13 -1.989594e-11 1.393734e-11) (6.244462e-11 -2.695382e-10 1.996516e-07))
147.673174    	((2.393548e-09 -6.058744e-09 -3.188850e-06) (2.959501e-09 2.242488e-09 2.107962e-06)) ((-1.038129e-12 -2.066679e-11 1.355344e-11) (1.148412e-10 -2.829281e-10 1.981692e-07))
160.461827    	((6.095329e-10 -5.180995e-09 -3.216754e-06) (3.073425e-09 3.169569e-09 2.186613e-06)) ((-1.055912e-12 -2.156568e-11 1.326215e-11) (1.589769e-10 -2.795052e-10 1.973666e-07))
173.244177    	((-1.734651e-09 -5.088515e-09 -3.232561e-06) (2.756374e-09 3.723673e-09 2.261927e-06)) ((-1.087938e-12 -2.258123e-11 1.307858e-11) (1.939097e-10 -2.644850e-10 1.971613e-07))
186.01991     	((-3.604582e-09 -5.051177e-09 -3.238084e-06) (2.312533e-09 3.901716e-09 2.334156e-06)) ((-1.066661e-12 -2.354398e-11 1.294537e-11) (2.179643e-10 -2.446864e-10 1.974845e-07))
198.788519    	((-5.005768e-09 -4.711179e-09 -3.235341e-06) (1.879633e-09 3.978382e-09 2.403474e-06)) ((-1.088118e-12 -2.459589e-11 1.285695e-11) (2.359687e-10 -2.242713e-10 1.982745e-07))
211.549884    	((-5.066730e-09 -5.436021e-09 -3.223886e-06) (1.951638e-09 3.871322e-09 2.468764e-06)) ((-1.119747e-12 -2.552673e-11 1.285065e-11) (2.491353e-10 -2.087462e-10 1.994704e-07))
224.304041    	((-5.434253e-09 -6.126736e-09 -3.204640e-06) (2.007949e-09 3.535057e-09 2.528769e-06)) ((-1.151808e-12 -2.630424e-11 1.291830e-11) (2.591857e-10 -1.975773e-10 2.010117e-07))
237.050801    	((-5.171424e-09 -6.282980e-09 -3.179880e-06) (2.070228e-09 3.308172e-09 2.582530e-06)) ((-1.161516e-12 -2.701523e-11 1.306201e-11) (2.679322e-10 -1.885906e-10 2.028324e-07))
249.789922    	((-5.080860e-09 -6.171423e-09 -3.149307e-06) (2.227519e-09 3.153154e-09 2.628957e-06)) ((-1.179536e-12 -2.765359e-11 1.321830e-11) (2.750936e-10 -1.785487e-10 2.048613e-07))
262.493872    	((-4.668967e-09 -5.871048e-09 -3.115487e-06) (2.339166e-09 3.035101e-09 2.667146e-06)) ((-1.197349e-12 -2.812259e-11 1.340810e-11) (2.821965e-10 -1.675287e-10 2.070151e-07))
275.041507    	((-5.285479e-09 -6.350302e-09 -3.079892e-06) (2.210572e-09 2.952234e-09 2.696485e-06)) ((-1.211522e-12 -2.840591e-11 1.359787e-11) (2.890924e-10 -1.526035e-10 2.092047e-07))
287.463327    	((-5.437817e-09 -6.600386e-09 -3.043494e-06) (2.021830e-09 2.907767e-09 2.716899e-06)) ((-1.202397e-12 -2.853209e-11 1.379790e-11) (2.911365e-10 -1.343197e-10 2.113611e-07))
299.785838    	((-5.751411e-09 -7.139316e-09 -3.006514e-06) (1.783556e-09 2.730660e-09 2.728827e-06)) ((-1.196634e-12 -2.850412e-11 1.400129e-11) (2.865854e-10 -1.181827e-10 2.134218e-07))
