# Forces      
# CofR        : (0.000000e+00 0.000000e+00 0.000000e+00)
# Time        forces(pressure viscous)	moments(pressure viscous)
0             	((0.000000e+00 0.000000e+00 0.000000e+00) (0.000000e+00 0.000000e+00 0.000000e+00)) ((0.000000e+00 0.000000e+00 0.000000e+00) (0.000000e+00 0.000000e+00 0.000000e+00))
0.012         	((2.684870e-07 -1.015861e-11 8.466308e-08) (6.626246e-07 -2.803257e-15 5.983415e-11)) ((4.367946e-15 -4.305818e-11 3.479179e-15) (4.952555e-16 -4.409577e-08 1.922344e-16))
0.0264        	((3.987733e-07 -2.262149e-10 1.337030e-07) (6.069725e-07 -5.774752e-14 3.559913e-11)) ((2.450622e-15 2.219141e-11 8.576836e-16) (1.859699e-15 -4.043570e-08 -1.193893e-15))
0.04368       	((2.532366e-07 1.352449e-10 8.090022e-08) (5.495423e-07 6.877256e-14 -2.133043e-12)) ((5.206834e-15 1.578021e-11 2.523323e-15) (5.357595e-15 -3.667027e-08 -5.814391e-15))
0.064416      	((3.006383e-07 -1.640079e-10 9.958181e-08) (4.915993e-07 1.136279e-13 -2.899593e-11)) ((3.064960e-15 3.070126e-11 -3.706295e-16) (1.048065e-14 -3.288421e-08 -7.882185e-15))
0.0892992     	((2.146547e-07 7.163359e-11 6.983213e-08) (4.347910e-07 1.123250e-13 -3.516318e-11)) ((1.506908e-15 2.178951e-11 1.876040e-15) (1.785830e-14 -2.918570e-08 -4.018073e-15))
0.119159      	((2.259162e-07 -7.990700e-11 7.302474e-08) (3.809361e-07 1.423293e-14 -3.091573e-11)) ((2.117206e-15 2.657465e-11 5.642682e-17) (1.577579e-14 -2.569579e-08 1.358450e-15))
0.154991      	((1.671984e-07 4.111945e-11 5.546215e-08) (3.317251e-07 -3.315891e-14 -3.242656e-11)) ((-6.598868e-16 1.851305e-11 1.635274e-16) (1.606388e-14 -2.248815e-08 1.001369e-14))
0.197989      	((1.674012e-07 -3.046743e-11 5.330834e-08) (2.881746e-07 -4.829277e-14 -3.312463e-11)) ((-9.550561e-16 2.088742e-11 -2.203126e-16) (1.586697e-14 -1.964675e-08 1.794429e-14))
0.249587      	((1.285785e-07 1.646316e-11 4.283775e-08) (2.510521e-07 -8.663617e-14 -3.217604e-11)) ((-6.667512e-16 1.491217e-11 9.616142e-17) (1.321700e-14 -1.720652e-08 2.192125e-14))
0.311504      	((1.259278e-07 -4.830873e-12 3.972181e-08) (2.201896e-07 -9.789817e-14 -3.247502e-11)) ((-1.716982e-15 1.646423e-11 1.523583e-16) (1.537797e-14 -1.516893e-08 2.170312e-14))
0.385805      	((1.008310e-07 2.867710e-12 3.358501e-08) (1.946897e-07 -7.641246e-14 -3.445491e-11)) ((-4.501299e-16 1.224377e-11 2.256956e-16) (1.433499e-14 -1.348354e-08 2.200985e-14))
0.474966      	((9.825406e-08 -3.543235e-12 3.091187e-08) (1.735959e-07 -8.428586e-14 -3.370570e-11)) ((-1.717714e-15 1.331064e-11 1.120722e-16) (1.307523e-14 -1.209162e-08 3.010309e-14))
0.581959      	((8.153973e-08 -7.213495e-13 2.708506e-08) (1.558388e-07 -1.413366e-13 -3.391490e-11)) ((-3.101542e-16 1.026170e-11 -1.769748e-16) (-9.131143e-16 -1.091893e-08 2.365981e-14))
0.710351      	((7.922654e-08 2.531611e-12 2.485256e-08) (1.405864e-07 -7.829484e-14 -3.681741e-11)) ((-2.392155e-15 1.105416e-11 -2.816253e-16) (-7.591984e-15 -9.915106e-09 5.550482e-16))
0.864421      	((6.735601e-08 -3.961975e-12 2.228548e-08) (1.271765e-07 -2.823248e-14 -3.525535e-11)) ((-1.224102e-15 8.910238e-12 -3.597863e-16) (-8.770638e-15 -9.033308e-09 -2.019436e-15))
1.049306      	((6.487990e-08 -7.968533e-13 2.031500e-08) (1.152347e-07 6.292692e-14 -3.475997e-11)) ((-2.977896e-15 9.520651e-12 -3.081979e-16) (2.170556e-14 -8.251856e-09 1.326465e-14))
1.271167      	((5.574532e-08 -4.291673e-12 1.831660e-08) (1.044566e-07 -5.159914e-14 -3.426493e-11)) ((-2.006950e-15 8.034993e-12 -1.237801e-15) (5.163501e-14 -7.547367e-09 3.314883e-14))
1.5374        	((5.301917e-08 -4.733398e-12 1.661601e-08) (9.472920e-08 -1.826667e-13 -2.859018e-11)) ((-3.650307e-15 8.360734e-12 -1.764924e-15) (7.900394e-14 -6.912240e-09 4.808981e-14))
1.85688       	((4.591004e-08 -5.114593e-12 1.500776e-08) (8.593841e-08 -3.691230e-13 -2.502093e-11)) ((-3.488339e-15 7.254390e-12 -1.694150e-15) (1.095807e-13 -6.339325e-09 4.832246e-14))
2.240256      	((4.306491e-08 -3.532920e-12 1.358273e-08) (7.804577e-08 -4.455009e-13 -2.142977e-11)) ((-4.717036e-15 7.360071e-12 -1.536512e-15) (1.572873e-13 -5.824568e-09 3.618221e-14))
2.700307      	((3.774613e-08 -3.329801e-12 1.234639e-08) (7.105826e-08 -2.618214e-13 -2.291676e-11)) ((-4.005482e-15 6.575547e-12 -1.693482e-15) (2.451609e-13 -5.369431e-09 -4.753724e-15))
3.252369      	((3.515592e-08 -7.451532e-12 1.120842e-08) (6.488708e-08 -2.113454e-13 -2.864368e-11)) ((-4.628307e-15 6.595094e-12 -1.668050e-15) (3.351583e-13 -4.966887e-09 -1.016938e-13))
3.914842      	((3.134070e-08 -7.367190e-13 1.024564e-08) (5.946646e-08 1.203877e-13 -3.100218e-11)) ((-3.642614e-15 6.146567e-12 -1.921218e-15) (4.116410e-13 -4.614357e-09 -2.342415e-13))
4.709811      	((2.901581e-08 5.470956e-13 9.340377e-09) (5.469679e-08 2.498564e-13 -3.026924e-11)) ((-3.165767e-15 6.096864e-12 -2.611134e-15) (4.537882e-13 -4.304791e-09 -3.404729e-13))
5.663773      	((2.623410e-08 5.576773e-14 8.584552e-09) (5.046218e-08 -7.799059e-14 -2.716899e-11)) ((-1.910828e-15 5.805334e-12 -2.960853e-15) (4.406533e-13 -4.030609e-09 -4.065072e-13))
6.808528      	((2.419830e-08 -6.833340e-12 7.851942e-09) (4.666229e-08 -6.851608e-13 -2.532243e-11)) ((-3.213605e-15 5.681311e-12 -3.126794e-15) (4.115661e-13 -3.785200e-09 -4.174875e-13))
8.182233      	((2.204992e-08 -7.570159e-12 7.222026e-09) (4.321596e-08 -1.128920e-12 -2.301903e-11)) ((-2.464115e-15 5.489169e-12 -2.895304e-15) (4.014882e-13 -3.563985e-09 -4.041333e-13))
9.83068       	((2.022696e-08 -7.826880e-12 6.620722e-09) (4.006291e-08 -1.445004e-12 -2.098614e-11)) ((-3.095789e-15 5.352260e-12 -2.643180e-15) (3.897448e-13 -3.362756e-09 -3.855816e-13))
11.808816     	((1.849699e-08 -5.310060e-12 6.095433e-09) (3.716989e-08 -1.500368e-12 -2.591591e-11)) ((-1.938573e-15 5.211900e-12 -2.293173e-15) (3.511030e-13 -3.179321e-09 -3.518904e-13))
14.182579     	((1.698919e-08 -4.807789e-12 5.599283e-09) (3.451310e-08 -1.841372e-12 -3.524547e-11)) ((-1.853049e-15 5.077074e-12 -1.987677e-15) (2.910600e-13 -3.011785e-09 -3.017072e-13))
17.031095     	((1.557176e-08 -4.930690e-12 5.137809e-09) (3.207081e-08 -2.325239e-12 -4.347942e-11)) ((-1.417321e-15 4.970691e-12 -1.731384e-15) (2.331077e-13 -2.859082e-09 -2.299008e-13))
20.449314     	((1.430339e-08 -5.969136e-12 4.701658e-09) (2.983043e-08 -2.691138e-12 -4.889533e-11)) ((-1.541017e-15 4.864434e-12 -1.404162e-15) (1.807642e-13 -2.720046e-09 -1.493324e-13))
24.551176     	((1.311771e-08 -3.912292e-12 4.298280e-09) (2.777763e-08 -3.033321e-12 -5.109637e-11)) ((-1.309589e-15 4.786318e-12 -1.087729e-15) (1.325398e-13 -2.593665e-09 -8.040407e-14))
29.473411     	((1.204646e-08 -3.461755e-12 3.930606e-09) (2.590238e-08 -3.094160e-12 -5.235753e-11)) ((-1.373296e-15 4.711520e-12 -8.956746e-16) (1.031821e-13 -2.478929e-09 -2.819620e-14))
35.380094     	((1.105814e-08 -3.778771e-12 3.600079e-09) (2.419020e-08 -3.207566e-12 -5.086372e-11)) ((-1.288247e-15 4.651989e-12 -7.266477e-16) (8.674329e-14 -2.374757e-09 3.911304e-15))
42.468112     	((1.016936e-08 -3.919597e-12 3.301449e-09) (2.262616e-08 -3.198410e-12 -4.926825e-11)) ((-1.356668e-15 4.596215e-12 -5.551619e-16) (7.559549e-14 -2.280016e-09 1.401225e-14))
50.973735     	((9.343559e-09 -3.872224e-12 3.031685e-09) (2.119668e-08 -3.236450e-12 -4.869166e-11)) ((-1.260550e-15 4.549658e-12 -3.674712e-16) (7.293040e-14 -2.193832e-09 1.328524e-14))
61.180482     	((8.599049e-09 -3.202430e-12 2.777141e-09) (1.989109e-08 -3.040382e-12 -4.846241e-11)) ((-1.177173e-15 4.506526e-12 -2.311270e-16) (7.853828e-14 -2.115645e-09 8.851977e-15))
73.428578     	((7.922093e-09 -2.209663e-12 2.551831e-09) (1.870209e-08 -2.637904e-12 -4.925064e-11)) ((-1.066530e-15 4.471449e-12 -2.313360e-16) (9.014400e-14 -2.044931e-09 3.212857e-16))
88.126294     	((7.312044e-09 -1.322169e-12 2.346823e-09) (1.762071e-08 -2.300587e-12 -4.994209e-11)) ((-9.337020e-16 4.440767e-12 -2.814931e-16) (9.988335e-14 -1.981094e-09 -8.426430e-15))
105.763553    	((6.771338e-09 -3.840656e-13 2.166769e-09) (1.663954e-08 -2.078548e-12 -4.983319e-11)) ((-8.643870e-16 4.415486e-12 -3.356434e-16) (1.063418e-13 -1.923642e-09 -1.076755e-14))
126.928263    	((6.284180e-09 1.752339e-14 1.996472e-09) (1.575177e-08 -1.829993e-12 -4.986965e-11)) ((-8.184495e-16 4.393603e-12 -3.896902e-16) (1.139799e-13 -1.872106e-09 -1.670974e-14))
152.325916    	((5.850110e-09 2.986202e-13 1.823381e-09) (1.494985e-08 -1.587488e-12 -5.085475e-11)) ((-7.987812e-16 4.376007e-12 -4.248846e-16) (1.229169e-13 -1.825958e-09 -2.816231e-14))
182.803099    	((5.466811e-09 4.284953e-13 1.668723e-09) (1.422655e-08 -1.356814e-12 -5.250207e-11)) ((-7.671866e-16 4.360657e-12 -4.352967e-16) (1.296395e-13 -1.784715e-09 -4.235107e-14))
219.375719    	((5.128917e-09 9.316047e-13 1.540871e-09) (1.357448e-08 -1.136515e-12 -5.525125e-11)) ((-7.322241e-16 4.348094e-12 -4.473789e-16) (1.331635e-13 -1.747880e-09 -5.221386e-14))
263.262863    	((4.828427e-09 1.417291e-12 1.425701e-09) (1.298742e-08 -1.040405e-12 -5.956259e-11)) ((-7.060476e-16 4.338329e-12 -4.875197e-16) (1.293003e-13 -1.715027e-09 -5.486730e-14))
315.927436    	((4.567413e-09 1.678907e-12 1.321904e-09) (1.246005e-08 -1.003258e-12 -6.505206e-11)) ((-6.686377e-16 4.330264e-12 -4.624682e-16) (1.230226e-13 -1.685786e-09 -4.686306e-14))
379.124923    	((4.341499e-09 1.664407e-12 1.233296e-09) (1.198793e-08 -9.588720e-13 -7.213925e-11)) ((-5.977787e-16 4.323471e-12 -4.468499e-16) (1.167737e-13 -1.659856e-09 -3.204488e-14))
454.961908    	((4.148096e-09 1.462230e-12 1.155787e-09) (1.156777e-08 -9.118699e-13 -8.109520e-11)) ((-5.468062e-16 4.318301e-12 -4.041675e-16) (1.152684e-13 -1.636981e-09 -1.870964e-14))
545.966289    	((3.984635e-09 1.498400e-12 1.088783e-09) (1.119661e-08 -8.821097e-13 -9.126641e-11)) ((-5.560216e-16 4.314283e-12 -4.111127e-16) (1.137383e-13 -1.616966e-09 -7.057570e-15))
655.171547    	((3.848569e-09 1.661518e-12 1.033669e-09) (1.087185e-08 -8.245042e-13 -1.017883e-10)) ((-5.648895e-16 4.310924e-12 -4.101202e-16) (1.125004e-13 -1.599617e-09 3.929311e-15))
786.217856    	((3.736575e-09 1.662714e-12 9.881375e-10) (1.059119e-08 -7.276786e-13 -1.122898e-10)) ((-5.634477e-16 4.308180e-12 -3.997578e-16) (1.116659e-13 -1.584742e-09 1.338680e-14))
943.473427    	((3.645607e-09 1.626867e-12 9.510106e-10) (1.035209e-08 -6.277903e-13 -1.228111e-10)) ((-5.580353e-16 4.306112e-12 -4.002080e-16) (1.108594e-13 -1.572148e-09 2.171252e-14))
1132.180113   	((3.572177e-09 1.617613e-12 9.210951e-10) (1.015162e-08 -5.436076e-13 -1.334640e-10)) ((-5.528342e-16 4.304527e-12 -3.972623e-16) (1.107473e-13 -1.561629e-09 2.884387e-14))
1358.628135   	((3.513693e-09 1.640484e-12 8.971784e-10) (9.986211e-09 -4.662885e-13 -1.440611e-10)) ((-5.221290e-16 4.303340e-12 -3.965868e-16) (1.099562e-13 -1.552963e-09 3.386658e-14))
1630.365763   	((3.468027e-09 1.661166e-12 8.785787e-10) (9.852086e-09 -4.139278e-13 -1.542717e-10)) ((-5.096378e-16 4.302486e-12 -3.868761e-16) (1.089838e-13 -1.545926e-09 3.853773e-14))
1956.450915   	((3.432765e-09 1.687085e-12 8.639626e-10) (9.745167e-09 -3.714614e-13 -1.638004e-10)) ((-5.142663e-16 4.301805e-12 -3.847960e-16) (1.078403e-13 -1.540294e-09 4.212093e-14))
2347.753098   	((3.405666e-09 1.737892e-12 8.526132e-10) (9.661383e-09 -3.269717e-13 -1.724024e-10)) ((-5.109142e-16 4.301208e-12 -3.886074e-16) (1.069882e-13 -1.535851e-09 4.421977e-14))
2817.315718   	((3.384900e-09 1.784183e-12 8.438300e-10) (9.596727e-09 -2.964493e-13 -1.799322e-10)) ((-5.041056e-16 4.300707e-12 -3.886663e-16) (1.060746e-13 -1.532388e-09 4.612022e-14))
3373.73715    	((3.369156e-09 1.811582e-12 8.372077e-10) (9.547580e-09 -2.801029e-13 -1.863214e-10)) ((-5.024435e-16 4.300309e-12 -3.914357e-16) (1.051870e-13 -1.529719e-09 4.780245e-14))
4017.014803   	((3.357310e-09 1.843121e-12 8.323421e-10) (9.510734e-09 -2.722442e-13 -1.915819e-10)) ((-5.017646e-16 4.300017e-12 -3.931305e-16) (1.043175e-13 -1.527686e-09 4.928288e-14))
4747.146737   	((3.348437e-09 1.881862e-12 8.287650e-10) (9.483416e-09 -2.672366e-13 -1.958082e-10)) ((-4.997018e-16 4.299795e-12 -3.942192e-16) (1.033606e-13 -1.526149e-09 5.058243e-14))
5564.131589   	((3.341767e-09 1.911971e-12 8.261071e-10) (9.463357e-09 -2.636055e-13 -1.991166e-10)) ((-4.974807e-16 4.299625e-12 -3.946418e-16) (1.026728e-13 -1.524996e-09 5.156848e-14))
6432.651445   	((3.336744e-09 1.939971e-12 8.242100e-10) (9.448756e-09 -2.601140e-13 -2.016483e-10)) ((-4.958004e-16 4.299535e-12 -3.941797e-16) (1.020939e-13 -1.524135e-09 5.221690e-14))
7301.165167   	((3.332965e-09 1.961314e-12 8.228487e-10) (9.438201e-09 -2.559678e-13 -2.035416e-10)) ((-4.945268e-16 4.299525e-12 -3.934575e-16) (1.017184e-13 -1.523497e-09 5.259368e-14))
8169.675264   	((3.330125e-09 1.982587e-12 8.218483e-10) (9.430588e-09 -2.525533e-13 -2.049370e-10)) ((-4.930299e-16 4.299524e-12 -3.940021e-16) (1.014531e-13 -1.523023e-09 5.284252e-14))
9038.183373   	((3.327973e-09 2.001933e-12 8.211141e-10) (9.425106e-09 -2.502214e-13 -2.059572e-10)) ((-4.920024e-16 4.299526e-12 -3.930775e-16) (1.011932e-13 -1.522670e-09 5.294540e-14))
9906.690428   	((3.326342e-09 2.011470e-12 8.205446e-10) (9.421159e-09 -2.487115e-13 -2.066984e-10)) ((-4.913982e-16 4.299528e-12 -3.927106e-16) (1.009824e-13 -1.522407e-09 5.302527e-14))
10775.197008  	((3.325094e-09 2.016912e-12 8.201690e-10) (9.418315e-09 -2.476382e-13 -2.072338e-10)) ((-4.911287e-16 4.299529e-12 -3.921726e-16) (1.008112e-13 -1.522210e-09 5.304197e-14))
11643.703454  	((3.324134e-09 2.022804e-12 8.198720e-10) (9.416263e-09 -2.469243e-13 -2.076189e-10)) ((-4.911391e-16 4.299530e-12 -3.917784e-16) (1.006787e-13 -1.522062e-09 5.302982e-14))
12512.209957  	((3.323391e-09 2.029969e-12 8.196277e-10) (9.414778e-09 -2.462586e-13 -2.078950e-10)) ((-4.911635e-16 4.299531e-12 -3.915388e-16) (1.005866e-13 -1.521950e-09 5.300345e-14))
13380.716619  	((3.322820e-09 2.042684e-12 8.194649e-10) (9.413702e-09 -2.458168e-13 -2.080929e-10)) ((-4.910300e-16 4.299532e-12 -3.914212e-16) (1.005150e-13 -1.521865e-09 5.298064e-14))
14249.223489  	((3.322378e-09 2.051464e-12 8.193535e-10) (9.412919e-09 -2.452277e-13 -2.082348e-10)) ((-4.908965e-16 4.299533e-12 -3.912379e-16) (1.004622e-13 -1.521801e-09 5.295971e-14))
15117.730578  	((3.322034e-09 2.056592e-12 8.192729e-10) (9.412347e-09 -2.446331e-13 -2.083369e-10)) ((-4.907455e-16 4.299534e-12 -3.910987e-16) (1.004255e-13 -1.521751e-09 5.294529e-14))
15986.23788   	((3.321767e-09 2.085955e-12 8.192256e-10) (9.411929e-09 -2.435904e-13 -2.084103e-10)) ((-4.910930e-16 4.299534e-12 -3.909187e-16) (1.003993e-13 -1.521714e-09 5.293653e-14))
16854.745377  	((3.321557e-09 2.107296e-12 8.191916e-10) (9.411622e-09 -2.426029e-13 -2.084635e-10)) ((-4.911110e-16 4.299535e-12 -3.908150e-16) (1.003716e-13 -1.521684e-09 5.293562e-14))
17723.253047  	((3.321393e-09 2.122861e-12 8.191678e-10) (9.411396e-09 -2.417719e-13 -2.085022e-10)) ((-4.910642e-16 4.299535e-12 -3.907306e-16) (1.003533e-13 -1.521662e-09 5.293319e-14))
18591.760865  	((3.321266e-09 2.126405e-12 8.191872e-10) (9.411228e-09 -2.412022e-13 -2.085307e-10)) ((-4.909482e-16 4.299536e-12 -3.905700e-16) (1.003445e-13 -1.521644e-09 5.293540e-14))
19460.26881   	((3.321162e-09 2.141506e-12 8.191494e-10) (9.411105e-09 -2.407291e-13 -2.085518e-10)) ((-4.907354e-16 4.299536e-12 -3.905650e-16) (1.003347e-13 -1.521630e-09 5.293397e-14))
20328.776861  	((3.321080e-09 2.139279e-12 8.191646e-10) (9.411013e-09 -2.403914e-13 -2.085672e-10)) ((-4.907447e-16 4.299536e-12 -3.904863e-16) (1.003315e-13 -1.521620e-09 5.293560e-14))
21197.285     	((3.321016e-09 2.147941e-12 8.191440e-10) (9.410945e-09 -2.400147e-13 -2.085790e-10)) ((-4.905978e-16 4.299537e-12 -3.905189e-16) (1.003297e-13 -1.521611e-09 5.293840e-14))
22065.793211  	((3.320969e-09 2.143779e-12 8.191531e-10) (9.410894e-09 -2.398648e-13 -2.085879e-10)) ((-4.906764e-16 4.299537e-12 -3.904482e-16) (1.003267e-13 -1.521605e-09 5.294229e-14))
22934.301481  	((3.320930e-09 2.139801e-12 8.191472e-10) (9.410857e-09 -2.397762e-13 -2.085949e-10)) ((-4.906880e-16 4.299537e-12 -3.904560e-16) (1.003238e-13 -1.521600e-09 5.294389e-14))
23802.809798  	((3.320900e-09 2.137144e-12 8.191444e-10) (9.410828e-09 -2.398354e-13 -2.086002e-10)) ((-4.907112e-16 4.299537e-12 -3.904510e-16) (1.003182e-13 -1.521596e-09 5.294546e-14))
24671.318153  	((3.320877e-09 2.135557e-12 8.191415e-10) (9.410807e-09 -2.398361e-13 -2.086043e-10)) ((-4.907294e-16 4.299537e-12 -3.904448e-16) (1.003146e-13 -1.521592e-09 5.294702e-14))
25539.82654   	((3.320861e-09 2.112939e-12 8.191185e-10) (9.410790e-09 -2.407138e-13 -2.086078e-10)) ((-4.911656e-16 4.299537e-12 -3.909246e-16) (1.002929e-13 -1.521590e-09 5.294664e-14))
26408.334951  	((3.320848e-09 2.115510e-12 8.191176e-10) (9.410778e-09 -2.406666e-13 -2.086104e-10)) ((-4.910070e-16 4.299537e-12 -3.905187e-16) (1.003044e-13 -1.521588e-09 5.294810e-14))
27276.843382  	((3.320837e-09 2.119429e-12 8.191200e-10) (9.410769e-09 -2.405853e-13 -2.086122e-10)) ((-4.909740e-16 4.299537e-12 -3.904503e-16) (1.003008e-13 -1.521586e-09 5.294906e-14))
28145.351829  	((3.320829e-09 2.104043e-12 8.191102e-10) (9.410761e-09 -2.409193e-13 -2.086139e-10)) ((-4.909362e-16 4.299537e-12 -3.907404e-16) (1.003004e-13 -1.521585e-09 5.295072e-14))
29013.860288  	((3.320823e-09 2.091892e-12 8.191013e-10) (9.410755e-09 -2.412812e-13 -2.086153e-10)) ((-4.909141e-16 4.299537e-12 -3.907707e-16) (1.003013e-13 -1.521584e-09 5.295186e-14))
29882.368759  	((3.320818e-09 2.083584e-12 8.190943e-10) (9.410751e-09 -2.415666e-13 -2.086165e-10)) ((-4.909302e-16 4.299537e-12 -3.907796e-16) (1.003036e-13 -1.521583e-09 5.295195e-14))
30750.877237  	((3.320815e-09 2.075305e-12 8.190805e-10) (9.410748e-09 -2.421115e-13 -2.086174e-10)) ((-4.914240e-16 4.299537e-12 -3.909424e-16) (1.002878e-13 -1.521582e-09 5.294880e-14))
31619.385722  	((3.320813e-09 2.088789e-12 8.190880e-10) (9.410746e-09 -2.417081e-13 -2.086180e-10)) ((-4.912846e-16 4.299537e-12 -3.905046e-16) (1.002996e-13 -1.521582e-09 5.295037e-14))
32487.894212  	((3.320810e-09 2.082274e-12 8.190864e-10) (9.410744e-09 -2.417258e-13 -2.086185e-10)) ((-4.912181e-16 4.299537e-12 -3.907406e-16) (1.003029e-13 -1.521581e-09 5.295192e-14))
33356.402706  	((3.320808e-09 2.077330e-12 8.190833e-10) (9.410743e-09 -2.418917e-13 -2.086190e-10)) ((-4.911997e-16 4.299537e-12 -3.907456e-16) (1.003016e-13 -1.521581e-09 5.295259e-14))
34224.911203  	((3.320807e-09 2.072773e-12 8.190810e-10) (9.410742e-09 -2.420078e-13 -2.086194e-10)) ((-4.911481e-16 4.299537e-12 -3.907570e-16) (1.003029e-13 -1.521581e-09 5.295231e-14))
35093.419703  	((3.320805e-09 2.070259e-12 8.190789e-10) (9.410741e-09 -2.420750e-13 -2.086197e-10)) ((-4.911301e-16 4.299537e-12 -3.907699e-16) (1.003058e-13 -1.521580e-09 5.295208e-14))
35961.928205  	((3.320806e-09 2.066201e-12 8.190689e-10) (9.410740e-09 -2.424699e-13 -2.086199e-10)) ((-4.915919e-16 4.299537e-12 -3.909300e-16) (1.002882e-13 -1.521580e-09 5.294912e-14))
36830.436709  	((3.320805e-09 2.082298e-12 8.190790e-10) (9.410740e-09 -2.419651e-13 -2.086199e-10)) ((-4.914197e-16 4.299537e-12 -3.905054e-16) (1.002986e-13 -1.521580e-09 5.295034e-14))
37698.945214  	((3.320803e-09 2.078475e-12 8.190799e-10) (9.410740e-09 -2.418602e-13 -2.086200e-10)) ((-4.912864e-16 4.299537e-12 -3.907412e-16) (1.003069e-13 -1.521580e-09 5.295260e-14))
