# Forces      
# CofR        : (0.000000e+00 0.000000e+00 0.000000e+00)
# Time        forces(pressure viscous)	moments(pressure viscous)
0             	((0.000000e+00 0.000000e+00 0.000000e+00) (0.000000e+00 0.000000e+00 0.000000e+00)) ((0.000000e+00 0.000000e+00 0.000000e+00) (0.000000e+00 0.000000e+00 0.000000e+00))
0.012         	((8.511508e-05 -3.532483e-09 2.672294e-05) (2.096072e-04 -1.570545e-12 -2.758810e-09)) ((1.428829e-12 -1.413758e-08 1.100532e-12) (1.286318e-13 -1.394914e-05 2.541336e-13))
0.0264        	((1.263675e-04 -7.077290e-08 4.206935e-05) (1.920565e-04 -1.152057e-11 -5.614613e-08)) ((9.229189e-13 6.370065e-09 2.901808e-13) (4.506287e-13 -1.279559e-05 -8.995698e-13))
0.04368       	((8.032014e-05 4.146747e-08 2.513574e-05) (1.741273e-04 4.632889e-11 -1.587900e-07)) ((1.582261e-12 3.995533e-09 8.003135e-13) (1.439966e-12 -1.162245e-05 -3.384644e-12))
0.064416      	((9.537667e-05 -5.283414e-08 3.087177e-05) (1.563648e-04 8.425382e-11 -3.062228e-07)) ((1.028776e-12 8.549288e-09 -3.205825e-13) (2.440004e-13 -1.046640e-05 -4.572866e-12))
0.0892992     	((6.834294e-05 2.592916e-08 2.119482e-05) (1.394123e-04 1.675172e-10 -4.911892e-07)) ((5.142413e-13 5.650632e-09 3.847983e-13) (-1.822336e-13 -9.370060e-06 -4.599263e-12))
0.119159      	((7.198756e-05 -2.699866e-08 2.206437e-05) (1.238821e-04 2.005631e-10 -6.994637e-07)) ((9.224272e-13 7.123408e-09 -3.478296e-14) (-4.777793e-13 -8.372711e-06 -6.002027e-12))
0.154991      	((5.498549e-05 1.254355e-08 1.648514e-05) (1.101877e-04 2.024431e-10 -9.392161e-07)) ((-4.155771e-13 5.009171e-09 1.385460e-13) (-1.582876e-13 -7.494427e-06 -7.094148e-12))
0.197989      	((5.515822e-05 -1.009860e-08 1.560746e-05) (9.833718e-05 2.038009e-10 -1.222901e-06)) ((7.729531e-13 6.001337e-09 -7.198198e-14) (-4.264266e-12 -6.732982e-06 -6.612165e-12))
0.249587      	((4.494800e-05 3.892158e-09 1.218972e-05) (8.801685e-05 1.545906e-10 -1.567853e-06)) ((3.307843e-13 4.711351e-09 -8.682115e-14) (-8.309099e-12 -6.061226e-06 -4.132835e-12))
0.311504      	((4.349291e-05 -3.570543e-09 1.069559e-05) (7.869925e-05 1.506824e-10 -1.912926e-06)) ((8.664837e-13 5.238803e-09 -2.488104e-13) (-1.183787e-11 -5.448683e-06 -2.459813e-12))
0.385805      	((3.672175e-05 -1.172040e-09 8.230597e-06) (7.022130e-05 1.134588e-10 -2.265299e-06)) ((-8.674562e-14 4.555425e-09 -1.768124e-13) (-1.167635e-11 -4.888650e-06 -2.527589e-12))
0.474966      	((3.453349e-05 -2.815679e-09 6.595668e-06) (6.261706e-05 -1.226334e-11 -2.572109e-06)) ((-2.752063e-13 4.641846e-09 -7.848951e-14) (-9.220375e-12 -4.385947e-06 -2.311095e-12))
0.581959      	((2.997739e-05 -2.774380e-09 4.696027e-06) (5.589411e-05 -7.712741e-11 -2.837118e-06)) ((-6.849253e-13 4.241200e-09 -2.425477e-13) (-1.030878e-11 -3.942542e-06 -2.769819e-12))
0.710351      	((2.794115e-05 -7.029465e-10 3.210344e-06) (5.000430e-05 -2.862671e-11 -3.059315e-06)) ((-5.459274e-13 4.216512e-09 -3.977600e-13) (-1.556315e-11 -3.555782e-06 -3.615466e-12))
0.864421      	((2.473981e-05 -9.878829e-10 1.552494e-06) (4.484583e-05 -3.628356e-10 -3.251186e-06)) ((-5.195494e-13 4.021714e-09 -5.552447e-13) (-2.162964e-11 -3.219091e-06 -2.183922e-12))
1.049306      	((2.296549e-05 1.380932e-10 1.157094e-07) (4.031256e-05 -3.628648e-10 -3.416276e-06)) ((-5.029505e-13 3.992271e-09 -3.667464e-13) (-2.534659e-11 -2.925219e-06 -1.288838e-12))
1.271167      	((2.053217e-05 3.126213e-09 -1.325342e-06) (3.631098e-05 -4.262095e-10 -3.581529e-06)) ((-3.907394e-13 3.812638e-09 -6.450786e-13) (-3.083928e-11 -2.667874e-06 -4.439011e-12))
1.5374        	((1.913271e-05 4.269460e-09 -2.654795e-06) (3.278790e-05 -4.360637e-10 -3.752002e-06)) ((2.911644e-13 3.744889e-09 -1.153426e-12) (-2.705206e-11 -2.443319e-06 -1.000357e-11))
1.85688       	((1.743471e-05 -5.697294e-09 -4.019460e-06) (2.971225e-05 6.490890e-11 -3.935956e-06)) ((-4.206448e-13 3.625378e-09 -5.153446e-13) (-1.658933e-11 -2.248671e-06 -2.162854e-11))
2.240256      	((1.644499e-05 -1.026962e-08 -5.312249e-06) (2.705601e-05 -3.368998e-10 -4.125713e-06)) ((-2.379212e-13 3.602786e-09 -6.917844e-13) (-4.181912e-12 -2.081877e-06 -4.787990e-11))
2.700307      	((1.543950e-05 -1.055622e-08 -6.526722e-06) (2.478024e-05 -8.442484e-10 -4.336460e-06)) ((-3.280471e-13 3.561426e-09 -5.083421e-13) (2.431071e-13 -1.939742e-06 -7.495317e-11))
3.252369      	((1.500906e-05 -1.164289e-08 -7.738385e-06) (2.282423e-05 -1.140553e-09 -4.573605e-06)) ((-6.147725e-13 3.590930e-09 2.792873e-13) (-1.641684e-11 -1.818417e-06 -8.808609e-11))
3.914842      	((1.457774e-05 -1.356044e-08 -9.011587e-06) (2.112977e-05 -7.312159e-10 -4.839601e-06)) ((-9.007105e-13 3.620112e-09 1.103925e-12) (-3.276027e-11 -1.713852e-06 -9.245515e-11))
4.709811      	((1.446170e-05 -1.465965e-08 -1.032979e-05) (1.965450e-05 -5.668136e-10 -5.130245e-06)) ((-6.561077e-13 3.677451e-09 8.900403e-13) (-4.180867e-11 -1.622977e-06 -8.682696e-11))
5.663773      	((1.434706e-05 -1.669251e-08 -1.163162e-05) (1.835904e-05 -1.094595e-09 -5.445070e-06)) ((-1.930986e-13 3.725907e-09 1.119188e-13) (-5.555150e-11 -1.543675e-06 -6.534653e-11))
6.808528      	((1.446096e-05 -1.471516e-08 -1.292127e-05) (1.722274e-05 -8.558201e-10 -5.786107e-06)) ((-3.213876e-13 3.786474e-09 1.063211e-13) (-5.429424e-11 -1.474644e-06 -3.298604e-11))
8.182233      	((1.466125e-05 -1.786789e-08 -1.418921e-05) (1.623898e-05 -5.053425e-10 -6.147377e-06)) ((-2.094373e-13 3.843738e-09 4.040008e-14) (-3.788704e-11 -1.414685e-06 -9.476969e-12))
9.83068       	((1.507913e-05 -1.641587e-08 -1.547178e-05) (1.540222e-05 -5.111827e-10 -6.517307e-06)) ((2.006001e-13 3.906430e-09 -2.136680e-14) (-1.050736e-11 -1.363067e-06 -4.013579e-12))
11.77506      	((1.557322e-05 -1.739121e-08 -1.670149e-05) (1.470768e-05 -7.074316e-10 -6.895766e-06)) ((5.247954e-13 3.968008e-09 -1.481578e-13) (1.054386e-12 -1.319567e-06 -1.529037e-11))
14.014202     	((1.622187e-05 -1.392064e-08 -1.784973e-05) (1.416691e-05 -1.039835e-09 -7.272025e-06)) ((6.579695e-13 4.033643e-09 -7.390912e-14) (-8.964643e-12 -1.283773e-06 -3.984205e-11))
16.547279     	((1.691959e-05 -1.376850e-08 -1.883773e-05) (1.377591e-05 -1.843696e-09 -7.632701e-06)) ((7.338772e-13 4.094923e-09 -1.221634e-13) (-3.547986e-11 -1.255038e-06 -6.008140e-11))
19.373707     	((1.771925e-05 -1.291627e-08 -1.968597e-05) (1.351955e-05 -2.467649e-09 -7.953645e-06)) ((8.195897e-13 4.156999e-09 -2.705427e-13) (-7.079713e-11 -1.232767e-06 -6.459336e-11))
22.304227     	((1.845661e-05 -1.273020e-08 -2.040984e-05) (1.338045e-05 -2.849320e-09 -8.209008e-06)) ((8.301716e-13 4.216676e-09 -4.239877e-13) (-1.000459e-10 -1.216586e-06 -6.332299e-11))
25.234363     	((1.910698e-05 -1.172735e-08 -2.100510e-05) (1.332441e-05 -3.191455e-09 -8.395166e-06)) ((8.727963e-13 4.272335e-09 -5.346906e-13) (-1.187302e-10 -1.205378e-06 -6.912677e-11))
28.165726     	((1.965515e-05 -1.260099e-08 -2.147400e-05) (1.331743e-05 -3.679687e-09 -8.518097e-06)) ((9.108084e-13 4.324731e-09 -6.306974e-13) (-1.344331e-10 -1.198034e-06 -8.246754e-11))
31.099211     	((2.011956e-05 -1.064022e-08 -2.183900e-05) (1.333371e-05 -4.102308e-09 -8.583878e-06)) ((8.305749e-13 4.376189e-09 -6.331158e-13) (-1.407169e-10 -1.193654e-06 -9.800519e-11))
34.033249     	((2.047127e-05 -1.013472e-08 -2.212190e-05) (1.335724e-05 -4.481384e-09 -8.607359e-06)) ((8.372640e-13 4.423173e-09 -6.170528e-13) (-1.377825e-10 -1.191352e-06 -1.149355e-10))
36.935406     	((2.068445e-05 -9.040391e-09 -2.233733e-05) (1.337682e-05 -4.847235e-09 -8.606275e-06)) ((8.374611e-13 4.461702e-09 -5.773262e-13) (-1.288001e-10 -1.190219e-06 -1.330343e-10))
39.807829     	((2.078624e-05 -1.130727e-08 -2.249855e-05) (1.338745e-05 -5.165760e-09 -8.593761e-06)) ((9.611950e-13 4.487559e-09 -5.358915e-13) (-1.231822e-10 -1.189605e-06 -1.481211e-10))
42.655504     	((2.083051e-05 -1.192052e-08 -2.262878e-05) (1.338994e-05 -5.464724e-09 -8.577043e-06)) ((1.042204e-12 4.503110e-09 -5.018961e-13) (-1.198143e-10 -1.189238e-06 -1.604680e-10))
45.484391     	((2.082570e-05 -1.060249e-08 -2.273813e-05) (1.338685e-05 -5.592651e-09 -8.559650e-06)) ((1.054456e-12 4.509720e-09 -4.563143e-13) (-1.128624e-10 -1.189013e-06 -1.694853e-10))
48.30026      	((2.080609e-05 -1.082358e-08 -2.283175e-05) (1.338077e-05 -5.565386e-09 -8.542720e-06)) ((1.119268e-12 4.511690e-09 -4.030306e-13) (-1.075962e-10 -1.188935e-06 -1.752991e-10))
51.108054     	((2.078873e-05 -9.817907e-09 -2.291435e-05) (1.337419e-05 -5.399161e-09 -8.526573e-06)) ((1.101419e-12 4.511047e-09 -3.588206e-13) (-9.871517e-11 -1.189005e-06 -1.803951e-10))
53.911438     	((2.076653e-05 -9.432351e-09 -2.299252e-05) (1.336823e-05 -5.229152e-09 -8.512129e-06)) ((1.085022e-12 4.509824e-09 -3.252899e-13) (-8.683450e-11 -1.189130e-06 -1.851228e-10))
56.712853     	((2.075071e-05 -9.265583e-09 -2.306499e-05) (1.336404e-05 -5.076251e-09 -8.499353e-06)) ((1.045704e-12 4.508436e-09 -3.037624e-13) (-7.757244e-11 -1.189302e-06 -1.887063e-10))
59.513548     	((2.072400e-05 -9.104849e-09 -2.313682e-05) (1.336156e-05 -4.942078e-09 -8.489353e-06)) ((1.044401e-12 4.505049e-09 -2.975657e-13) (-7.157135e-11 -1.189417e-06 -1.903122e-10))
62.31398      	((2.070815e-05 -8.143487e-09 -2.320396e-05) (1.336044e-05 -4.860145e-09 -8.481761e-06)) ((1.032960e-12 4.501977e-09 -3.118380e-13) (-6.714294e-11 -1.189475e-06 -1.898063e-10))
65.114252     	((2.069310e-05 -7.243379e-09 -2.326527e-05) (1.336045e-05 -4.717866e-09 -8.475435e-06)) ((1.037611e-12 4.498403e-09 -3.278503e-13) (-6.436399e-11 -1.189518e-06 -1.873456e-10))
67.914331     	((2.067467e-05 -8.071826e-09 -2.332281e-05) (1.336109e-05 -4.590552e-09 -8.469172e-06)) ((1.064547e-12 4.494090e-09 -3.394224e-13) (-6.610739e-11 -1.189583e-06 -1.836147e-10))
70.714119     	((2.065318e-05 -8.130913e-09 -2.337702e-05) (1.336201e-05 -4.478685e-09 -8.462564e-06)) ((1.082402e-12 4.488985e-09 -3.412100e-13) (-7.051128e-11 -1.189661e-06 -1.815360e-10))
73.513538     	((2.063050e-05 -7.841063e-09 -2.342668e-05) (1.336285e-05 -4.369513e-09 -8.455596e-06)) ((1.068222e-12 4.484792e-09 -3.202062e-13) (-7.393245e-11 -1.189746e-06 -1.825384e-10))
76.312546     	((2.060422e-05 -7.339227e-09 -2.347311e-05) (1.336321e-05 -4.333667e-09 -8.449342e-06)) ((1.041848e-12 4.482482e-09 -3.043787e-13) (-7.437247e-11 -1.189776e-06 -1.863585e-10))
79.111083     	((2.058600e-05 -6.195910e-09 -2.351089e-05) (1.336300e-05 -4.344651e-09 -8.444070e-06)) ((1.055015e-12 4.482592e-09 -2.900169e-13) (-7.132950e-11 -1.189732e-06 -1.900596e-10))
81.909035     	((2.057529e-05 -6.180340e-09 -2.353934e-05) (1.336249e-05 -4.385582e-09 -8.439186e-06)) ((1.089853e-12 4.482701e-09 -2.531322e-13) (-6.818871e-11 -1.189687e-06 -1.922906e-10))
84.706266     	((2.056628e-05 -5.364294e-09 -2.356546e-05) (1.336219e-05 -4.455323e-09 -8.434371e-06)) ((1.070777e-12 4.482160e-09 -2.222928e-13) (-6.620772e-11 -1.189675e-06 -1.920178e-10))
87.502694     	((2.055985e-05 -4.132121e-09 -2.358919e-05) (1.336229e-05 -4.519446e-09 -8.429741e-06)) ((9.988164e-13 4.481212e-09 -1.839283e-13) (-6.428283e-11 -1.189683e-06 -1.900861e-10))
90.298316     	((2.055344e-05 -4.533355e-09 -2.361155e-05) (1.336293e-05 -4.601196e-09 -8.425355e-06)) ((9.114398e-13 4.479769e-09 -1.418853e-13) (-6.307342e-11 -1.189696e-06 -1.888152e-10))
93.093191     	((2.054681e-05 -4.202459e-09 -2.364083e-05) (1.336409e-05 -4.712972e-09 -8.421219e-06)) ((7.849927e-13 4.478278e-09 -1.106286e-13) (-6.288229e-11 -1.189711e-06 -1.887801e-10))
95.887443     	((2.053960e-05 -2.916522e-09 -2.368124e-05) (1.336560e-05 -4.735915e-09 -8.417513e-06)) ((6.582211e-13 4.476898e-09 -1.023244e-13) (-5.947713e-11 -1.189727e-06 -1.891643e-10))
98.681225     	((2.053782e-05 -5.799713e-09 -2.371889e-05) (1.336756e-05 -4.832810e-09 -8.414567e-06)) ((6.313190e-13 4.476322e-09 -1.053908e-13) (-6.249275e-11 -1.189761e-06 -1.878692e-10))
101.474684    	((2.053726e-05 -6.653753e-09 -2.375176e-05) (1.336989e-05 -4.944095e-09 -8.412531e-06)) ((6.780618e-13 4.476146e-09 -8.160663e-14) (-7.193788e-11 -1.189816e-06 -1.845922e-10))
104.267898    	((2.053696e-05 -8.297281e-09 -2.377726e-05) (1.337261e-05 -5.053175e-09 -8.411100e-06)) ((7.678033e-13 4.476019e-09 -5.232305e-14) (-8.562089e-11 -1.189894e-06 -1.823443e-10))
107.060836    	((2.053242e-05 -8.202347e-09 -2.380092e-05) (1.337558e-05 -5.154498e-09 -8.409804e-06)) ((8.243346e-13 4.475651e-09 -3.721658e-14) (-9.763891e-11 -1.189986e-06 -1.844605e-10))
109.853358    	((2.052658e-05 -7.667520e-09 -2.382444e-05) (1.337859e-05 -5.238390e-09 -8.408468e-06)) ((8.564326e-13 4.475254e-09 -3.642868e-14) (-1.037954e-10 -1.190085e-06 -1.904226e-10))
112.645203    	((2.052036e-05 -7.486333e-09 -2.384337e-05) (1.338147e-05 -5.301344e-09 -8.407106e-06)) ((8.635415e-13 4.474954e-09 -3.566833e-14) (-1.058087e-10 -1.190190e-06 -1.970087e-10))
115.436261    	((2.051530e-05 -8.053952e-09 -2.385799e-05) (1.338421e-05 -5.359447e-09 -8.405789e-06)) ((8.801265e-13 4.474721e-09 -3.054247e-14) (-1.069135e-10 -1.190300e-06 -2.022799e-10))
118.226507    	((2.050933e-05 -8.469268e-09 -2.387165e-05) (1.338682e-05 -5.408925e-09 -8.404667e-06)) ((8.853829e-13 4.474439e-09 -1.988550e-14) (-1.074984e-10 -1.190410e-06 -2.066145e-10))
121.015913    	((2.050412e-05 -9.336735e-09 -2.388294e-05) (1.338938e-05 -5.450927e-09 -8.403773e-06)) ((8.979308e-13 4.474174e-09 -6.229141e-15) (-1.078842e-10 -1.190518e-06 -2.106906e-10))
