# Forces      
# CofR        : (0.000000e+00 0.000000e+00 0.000000e+00)
# Time        forces(pressure viscous)	moments(pressure viscous)
0             	((0.000000e+00 0.000000e+00 0.000000e+00) (0.000000e+00 0.000000e+00 0.000000e+00)) ((0.000000e+00 0.000000e+00 0.000000e+00) (0.000000e+00 0.000000e+00 0.000000e+00))
0.012         	((6.744133e-07 -2.553246e-11 2.126623e-07) (1.664438e-06 -7.044563e-15 1.493950e-10)) ((1.097356e-14 -1.081773e-10 8.739339e-15) (1.243614e-15 -1.107636e-07 4.846905e-16))
0.0264        	((1.001674e-06 -5.681797e-10 3.358384e-07) (1.524649e-06 -1.448935e-13 8.662008e-11)) ((6.162616e-15 5.571477e-11 2.151544e-15) (4.661466e-15 -1.015701e-07 -3.009862e-15))
0.04368       	((6.361036e-07 3.396780e-10 2.031949e-07) (1.380400e-06 1.728814e-13 -1.189803e-11)) ((1.309301e-14 3.959847e-11 6.330401e-15) (1.337042e-14 -9.211246e-08 -1.463122e-14))
0.064416      	((7.551669e-07 -4.119612e-10 2.501127e-07) (1.234876e-06 2.885720e-13 -8.501307e-11)) ((7.732317e-15 7.706936e-11 -9.349516e-16) (2.560674e-14 -8.260393e-08 -2.036886e-14))
0.0892992     	((5.391935e-07 1.798120e-10 1.753742e-07) (1.092221e-06 2.910297e-13 -1.083365e-10)) ((3.714242e-15 5.467866e-11 4.821178e-15) (4.390154e-14 -7.331662e-08 -1.119750e-14))
0.119159      	((5.674776e-07 -2.008271e-10 1.833894e-07) (9.570059e-07 4.633688e-14 -1.069885e-10)) ((5.355319e-15 6.669036e-11 1.681820e-16) (3.845512e-14 -6.455491e-08 2.252483e-15))
0.154991      	((4.200442e-07 1.033036e-10 1.392771e-07) (8.334789e-07 -8.054903e-14 -1.221694e-10)) ((-1.681004e-15 4.644322e-11 4.377780e-16) (3.859509e-14 -5.650399e-08 2.439217e-14))
0.197989      	((4.205817e-07 -7.628594e-11 1.338544e-07) (7.241695e-07 -1.216055e-13 -1.376603e-10)) ((-2.474989e-15 5.242549e-11 -6.325445e-16) (3.796626e-14 -4.937287e-08 4.482054e-14))
0.249587      	((3.231185e-07 4.153843e-11 1.075585e-07) (6.309741e-07 -2.289490e-13 -1.508140e-10)) ((-1.604885e-15 3.743544e-11 1.999889e-16) (3.058657e-14 -4.324752e-08 5.455236e-14))
0.311504      	((3.164698e-07 -1.214926e-11 9.970421e-08) (5.534762e-07 -2.825558e-13 -1.663440e-10)) ((-4.363105e-15 4.135270e-11 4.258531e-16) (3.547173e-14 -3.813123e-08 5.318627e-14))
0.385805      	((2.534555e-07 6.943799e-12 8.429155e-08) (4.894181e-07 -2.400292e-13 -1.857778e-10)) ((-1.187904e-15 3.076422e-11 6.093598e-16) (3.386365e-14 -3.389739e-08 5.328074e-14))
0.474966      	((2.469416e-07 -8.693546e-12 7.752924e-08) (4.363989e-07 -2.430111e-13 -1.934985e-10)) ((-4.341618e-15 3.346095e-11 2.672070e-16) (3.256712e-14 -3.039858e-08 7.462826e-14))
0.581959      	((2.049607e-07 -1.985815e-12 6.791157e-08) (3.917439e-07 -3.653126e-13 -2.047748e-10)) ((-6.885221e-16 2.581611e-11 -5.824851e-16) (-7.091895e-17 -2.744938e-08 5.932462e-14))
0.710351      	((1.990757e-07 6.316523e-12 6.224359e-08) (3.533783e-07 -2.379682e-13 -2.157163e-10)) ((-6.122469e-15 2.781449e-11 -6.679889e-16) (-1.633463e-14 -2.492400e-08 2.183071e-15))
0.864421      	((1.692891e-07 -1.016723e-11 5.578620e-08) (3.196483e-07 4.907592e-15 -2.184258e-10)) ((-2.944871e-15 2.244939e-11 -9.800819e-16) (-1.994999e-14 -2.270579e-08 -7.619751e-15))
1.049306      	((1.629703e-07 -1.973036e-12 5.076620e-08) (2.896127e-07 3.728656e-13 -2.166696e-10)) ((-7.555421e-15 2.398101e-11 -9.434586e-16) (5.691032e-14 -2.073989e-08 2.953888e-14))
1.271167      	((1.400817e-07 -1.125396e-11 4.574586e-08) (2.625126e-07 -1.726423e-13 -2.243177e-10)) ((-4.876255e-15 2.027418e-11 -3.093385e-15) (1.275667e-13 -1.896816e-08 8.184251e-14))
1.5374        	((1.331096e-07 -1.043768e-11 4.137045e-08) (2.380505e-07 -6.613399e-13 -2.015029e-10)) ((-9.321711e-15 2.107837e-11 -4.276628e-15) (1.942342e-13 -1.737060e-08 1.217450e-13))
1.85688       	((1.153308e-07 -1.476640e-11 3.733697e-08) (2.159520e-07 -1.133390e-12 -2.007522e-10)) ((-8.563884e-15 1.832677e-11 -4.288631e-15) (2.673840e-13 -1.593044e-08 1.208821e-13))
2.240256      	((1.080645e-07 -8.250442e-12 3.366568e-08) (1.961155e-07 -1.341841e-12 -1.925578e-10)) ((-1.153887e-14 1.856829e-11 -4.151400e-15) (3.844317e-13 -1.463669e-08 8.377097e-14))
2.700307      	((9.479321e-08 -9.136388e-12 3.056076e-08) (1.785598e-07 -7.133198e-13 -1.988034e-10)) ((-1.028470e-14 1.663175e-11 -4.452361e-15) (6.109679e-13 -1.349325e-08 -1.339535e-14))
3.252369      	((8.821075e-08 -1.886869e-11 2.763366e-08) (1.630647e-07 -8.171644e-13 -2.204661e-10)) ((-1.153515e-14 1.665478e-11 -4.558334e-15) (8.383354e-13 -1.248245e-08 -2.433099e-13))
3.914842      	((7.872453e-08 -6.891701e-12 2.522934e-08) (1.494503e-07 -2.254892e-13 -2.218634e-10)) ((-8.284765e-15 1.556208e-11 -4.942334e-15) (1.018848e-12 -1.159681e-08 -5.698554e-13))
4.709811      	((7.286203e-08 3.453941e-12 2.288573e-08) (1.374702e-07 3.230641e-13 -2.191281e-10)) ((-7.943000e-15 1.540769e-11 -6.440864e-15) (1.117829e-12 -1.081931e-08 -8.328379e-13))
5.663773      	((6.587914e-08 -3.046522e-12 2.097229e-08) (1.268328e-07 -8.793105e-13 -2.189837e-10)) ((-4.639955e-15 1.469785e-11 -7.330236e-15) (1.074938e-12 -1.013090e-08 -9.952987e-13))
6.808528      	((6.078639e-08 -1.762099e-11 1.908019e-08) (1.172876e-07 -2.189607e-12 -2.259793e-10)) ((-8.309750e-15 1.435847e-11 -7.720341e-15) (1.003961e-12 -9.514487e-09 -1.023094e-12))
8.182233      	((5.534580e-08 -2.142042e-11 1.743896e-08) (1.086304e-07 -3.292547e-12 -2.372101e-10)) ((-6.008496e-15 1.387781e-11 -6.992203e-15) (9.822692e-13 -8.958843e-09 -9.979796e-13))
9.83068       	((5.085224e-08 -1.991842e-11 1.588751e-08) (1.007126e-07 -4.120341e-12 -2.524624e-10)) ((-7.585477e-15 1.350342e-11 -6.146106e-15) (9.390307e-13 -8.454057e-09 -9.457826e-13))
11.808816     	((4.645714e-08 -1.331769e-11 1.448810e-08) (9.344225e-08 -4.158042e-12 -2.879056e-10)) ((-5.330636e-15 1.315329e-11 -5.431389e-15) (8.464036e-13 -7.993701e-09 -8.728748e-13))
14.182579     	((4.271901e-08 -1.217551e-11 1.317293e-08) (8.676524e-08 -4.608158e-12 -3.315063e-10)) ((-4.928567e-15 1.282254e-11 -4.752383e-15) (7.193098e-13 -7.573096e-09 -7.491451e-13))
17.031095     	((3.911867e-08 -1.241297e-11 1.193630e-08) (8.062422e-08 -6.130774e-12 -3.634963e-10)) ((-3.967182e-15 1.256001e-11 -3.994291e-15) (5.754013e-13 -7.189326e-09 -5.560615e-13))
20.449314     	((3.594544e-08 -1.375583e-11 1.076636e-08) (7.498859e-08 -7.055904e-12 -3.888291e-10)) ((-4.000546e-15 1.230105e-11 -3.308049e-15) (4.338578e-13 -6.839589e-09 -3.586423e-13))
24.551176     	((3.293357e-08 -1.055600e-11 9.668992e-09) (6.982530e-08 -7.826742e-12 -4.002785e-10)) ((-3.506159e-15 1.210237e-11 -2.645297e-15) (3.249708e-13 -6.521587e-09 -2.029785e-13))
29.473411     	((3.024190e-08 -1.177686e-11 8.664779e-09) (6.510650e-08 -8.245543e-12 -3.987023e-10)) ((-3.578842e-15 1.191910e-11 -2.215810e-15) (2.533175e-13 -6.232835e-09 -8.263110e-14))
35.380094     	((2.776266e-08 -1.280424e-11 7.748654e-09) (6.080283e-08 -8.422960e-12 -3.903361e-10)) ((-3.346493e-15 1.177105e-11 -1.761526e-15) (1.867614e-13 -5.970803e-09 -9.256237e-15))
42.468112     	((2.554088e-08 -1.314557e-11 6.904414e-09) (5.687283e-08 -8.462411e-12 -3.841168e-10)) ((-3.066009e-15 1.163275e-11 -1.285091e-15) (1.746625e-13 -5.732908e-09 2.141879e-14))
50.973735     	((2.345947e-08 -9.011534e-12 6.131236e-09) (5.328268e-08 -7.977922e-12 -3.847318e-10)) ((-3.145416e-15 1.151851e-11 -7.689555e-16) (1.830297e-13 -5.516784e-09 1.734672e-14))
61.180482     	((2.159370e-08 -8.034903e-12 5.401505e-09) (5.000666e-08 -7.396244e-12 -3.903141e-10)) ((-2.732600e-15 1.141276e-11 -5.801045e-16) (1.842246e-13 -5.320769e-09 9.620395e-15))
73.428578     	((1.989877e-08 -6.931036e-12 4.737781e-09) (4.702435e-08 -6.471926e-12 -3.957352e-10)) ((-2.228474e-15 1.132609e-11 -7.094819e-16) (2.064022e-13 -5.143598e-09 -2.248299e-14))
88.126294     	((1.839551e-08 -4.983400e-12 4.136824e-09) (4.431274e-08 -5.734242e-12 -3.990073e-10)) ((-2.116192e-15 1.125048e-11 -8.528338e-16) (2.311936e-13 -4.983749e-09 -5.837104e-14))
105.763553    	((1.705153e-08 -4.919242e-12 3.586213e-09) (4.185242e-08 -5.238564e-12 -4.012680e-10)) ((-1.863998e-15 1.118882e-11 -9.415215e-16) (2.551301e-13 -4.839922e-09 -8.472623e-14))
126.928263    	((1.584412e-08 -3.867285e-12 3.058621e-09) (3.962566e-08 -4.867176e-12 -4.067387e-10)) ((-1.758018e-15 1.113610e-11 -1.036465e-15) (2.630143e-13 -4.710993e-09 -1.183045e-13))
152.325916    	((1.478114e-08 -2.097330e-12 2.536448e-09) (3.761442e-08 -4.459913e-12 -4.179781e-10)) ((-1.628209e-15 1.109403e-11 -9.873160e-16) (2.644540e-13 -4.595755e-09 -1.469200e-13))
182.803099    	((1.385531e-08 -7.029991e-14 2.067133e-09) (3.580258e-08 -3.889111e-12 -4.372803e-10)) ((-1.596992e-15 1.105876e-11 -9.744205e-16) (2.761615e-13 -4.493047e-09 -1.723510e-13))
219.375719    	((1.304742e-08 1.314668e-12 1.660112e-09) (3.417336e-08 -3.647901e-12 -4.656016e-10)) ((-1.580752e-15 1.103102e-11 -9.597535e-16) (2.904777e-13 -4.401625e-09 -1.785682e-13))
263.262863    	((1.234750e-08 1.983570e-12 1.287421e-09) (3.271055e-08 -3.459086e-12 -5.015946e-10)) ((-1.614303e-15 1.100864e-11 -9.991077e-16) (2.970099e-13 -4.320422e-09 -1.689793e-13))
315.927436    	((1.174549e-08 2.185314e-12 9.482680e-10) (3.140173e-08 -3.190529e-12 -5.430629e-10)) ((-1.536659e-15 1.099063e-11 -1.002637e-15) (2.954992e-13 -4.248539e-09 -1.492328e-13))
379.124923    	((1.123332e-08 1.888625e-12 6.497049e-10) (3.023553e-08 -2.923441e-12 -5.927222e-10)) ((-1.377790e-15 1.097697e-11 -1.047567e-15) (2.935572e-13 -4.185171e-09 -1.383166e-13))
454.961908    	((1.080032e-08 1.897896e-12 3.841840e-10) (2.920381e-08 -2.701396e-12 -6.514303e-10)) ((-1.364195e-15 1.096606e-11 -1.059076e-15) (2.893077e-13 -4.129668e-09 -1.222707e-13))
545.966289    	((1.044135e-08 2.234770e-12 1.539479e-10) (2.829959e-08 -2.437271e-12 -7.175573e-10)) ((-1.408281e-15 1.095733e-11 -9.888601e-16) (2.835662e-13 -4.081505e-09 -1.003316e-13))
655.171547    	((1.015434e-08 3.065174e-12 -3.960610e-11) (2.751707e-08 -2.233681e-12 -7.892215e-10)) ((-1.363892e-15 1.095027e-11 -8.983930e-16) (2.747015e-13 -4.040225e-09 -7.663067e-14))
786.217856    	((9.929533e-09 3.737638e-12 -2.012987e-10) (2.685064e-08 -1.967295e-12 -8.655674e-10)) ((-1.350622e-15 1.094469e-11 -8.345100e-16) (2.637899e-13 -4.005333e-09 -5.205108e-14))
943.473427    	((9.756383e-09 3.668840e-12 -3.338397e-10) (2.629319e-08 -1.706925e-12 -9.447815e-10)) ((-1.350321e-15 1.094094e-11 -8.399107e-16) (2.534515e-13 -3.976298e-09 -2.759763e-14))
1132.180113   	((9.625880e-09 3.753220e-12 -4.409695e-10) (2.583583e-08 -1.520432e-12 -1.024584e-09)) ((-1.338103e-15 1.093805e-11 -8.683548e-16) (2.456168e-13 -3.952535e-09 -8.662535e-15))
1355.463059   	((9.529638e-09 3.922425e-12 -5.272635e-10) (2.546894e-08 -1.384727e-12 -1.102084e-09)) ((-1.335977e-15 1.093591e-11 -8.211694e-16) (2.409263e-13 -3.933455e-09 6.532057e-15))
1613.320033   	((9.461224e-09 4.428388e-12 -5.933937e-10) (2.518184e-08 -1.305708e-12 -1.174431e-09)) ((-1.328067e-15 1.093452e-11 -7.900002e-16) (2.378049e-13 -3.918436e-09 1.924641e-14))
1905.749525   	((9.412731e-09 4.901225e-12 -6.435831e-10) (2.496270e-08 -1.296130e-12 -1.239363e-09)) ((-1.295492e-15 1.093359e-11 -7.728796e-16) (2.336261e-13 -3.906841e-09 3.019442e-14))
2232.750575   	((9.378764e-09 5.244237e-12 -6.802641e-10) (2.479923e-08 -1.290814e-12 -1.295476e-09)) ((-1.267371e-15 1.093285e-11 -7.693422e-16) (2.303060e-13 -3.898050e-09 3.925167e-14))
2578.460247   	((9.355168e-09 5.609704e-12 -7.065791e-10) (2.468007e-08 -1.282543e-12 -1.341914e-09)) ((-1.251922e-15 1.093254e-11 -7.605345e-16) (2.275278e-13 -3.891514e-09 4.532063e-14))
2924.166633   	((9.338482e-09 5.916615e-12 -7.261353e-10) (2.459471e-08 -1.292362e-12 -1.378857e-09)) ((-1.244289e-15 1.093261e-11 -7.478847e-16) (2.240237e-13 -3.886733e-09 4.990804e-14))
3269.871815   	((9.326195e-09 6.129646e-12 -7.410285e-10) (2.453417e-08 -1.320832e-12 -1.407450e-09)) ((-1.244626e-15 1.093268e-11 -7.315448e-16) (2.204506e-13 -3.883265e-09 5.382484e-14))
3615.577202   	((9.316980e-09 6.317100e-12 -7.526762e-10) (2.449136e-08 -1.352769e-12 -1.429097e-09)) ((-1.241739e-15 1.093274e-11 -7.201824e-16) (2.168409e-13 -3.880758e-09 5.661398e-14))
3961.283508   	((9.309781e-09 6.479439e-12 -7.618418e-10) (2.446098e-08 -1.381073e-12 -1.445295e-09)) ((-1.235867e-15 1.093278e-11 -7.122029e-16) (2.139576e-13 -3.878942e-09 5.846799e-14))
4306.99101    	((9.304042e-09 6.609901e-12 -7.691164e-10) (2.443923e-08 -1.402039e-12 -1.457341e-09)) ((-1.231311e-15 1.093281e-11 -7.060800e-16) (2.116518e-13 -3.877622e-09 5.940234e-14))
4652.699802   	((9.299369e-09 6.758619e-12 -7.749260e-10) (2.442343e-08 -1.415360e-12 -1.466299e-09)) ((-1.230679e-15 1.093283e-11 -7.025608e-16) (2.099925e-13 -3.876654e-09 5.991187e-14))
4998.409852   	((9.295512e-09 6.898022e-12 -7.796124e-10) (2.441177e-08 -1.423736e-12 -1.472998e-09)) ((-1.229042e-15 1.093284e-11 -6.997915e-16) (2.088362e-13 -3.875936e-09 6.020579e-14))
5344.121057   	((9.292330e-09 7.002340e-12 -7.833802e-10) (2.440300e-08 -1.429024e-12 -1.478059e-09)) ((-1.228400e-15 1.093285e-11 -6.980975e-16) (2.080117e-13 -3.875398e-09 6.041576e-14))
5689.833268   	((9.289720e-09 7.052775e-12 -7.864272e-10) (2.439628e-08 -1.431969e-12 -1.481940e-09)) ((-1.228156e-15 1.093286e-11 -6.964227e-16) (2.073734e-13 -3.874989e-09 6.042212e-14))
6035.546338   	((9.287576e-09 7.090207e-12 -7.889059e-10) (2.439105e-08 -1.433008e-12 -1.484960e-09)) ((-1.228722e-15 1.093287e-11 -6.953267e-16) (2.068799e-13 -3.874675e-09 6.034292e-14))
6381.260129   	((9.285823e-09 7.119057e-12 -7.909175e-10) (2.438693e-08 -1.432386e-12 -1.487349e-09)) ((-1.229559e-15 1.093288e-11 -6.948173e-16) (2.065740e-13 -3.874431e-09 6.025031e-14))
6726.974521   	((9.284378e-09 7.153307e-12 -7.925846e-10) (2.438364e-08 -1.431235e-12 -1.489265e-09)) ((-1.230459e-15 1.093289e-11 -6.943316e-16) (2.063719e-13 -3.874239e-09 6.016115e-14))
7072.689408   	((9.283187e-09 7.251446e-12 -7.939123e-10) (2.438099e-08 -1.427067e-12 -1.490819e-09)) ((-1.232407e-15 1.093290e-11 -6.946757e-16) (2.063392e-13 -3.874087e-09 6.005140e-14))
7418.404699   	((9.282196e-09 7.357993e-12 -7.950530e-10) (2.437885e-08 -1.421596e-12 -1.492096e-09)) ((-1.232583e-15 1.093291e-11 -6.940356e-16) (2.063346e-13 -3.873966e-09 5.997379e-14))
7764.12032    	((9.281384e-09 7.435779e-12 -7.959669e-10) (2.437711e-08 -1.417002e-12 -1.493154e-09)) ((-1.232823e-15 1.093292e-11 -6.935464e-16) (2.063084e-13 -3.873868e-09 5.993031e-14))
8109.836206   	((9.280714e-09 7.483864e-12 -7.967327e-10) (2.437568e-08 -1.413308e-12 -1.494036e-09)) ((-1.232736e-15 1.093293e-11 -6.933842e-16) (2.062998e-13 -3.873790e-09 5.992136e-14))
8455.552307   	((9.280166e-09 7.523130e-12 -7.973513e-10) (2.437451e-08 -1.410354e-12 -1.494773e-09)) ((-1.232113e-15 1.093294e-11 -6.931284e-16) (2.063064e-13 -3.873727e-09 5.995939e-14))
8801.268583   	((9.279710e-09 7.541144e-12 -7.978737e-10) (2.437355e-08 -1.407732e-12 -1.495392e-09)) ((-1.232206e-15 1.093295e-11 -6.929296e-16) (2.063153e-13 -3.873675e-09 6.000309e-14))
9146.984999   	((9.279332e-09 7.553246e-12 -7.983103e-10) (2.437276e-08 -1.405949e-12 -1.495914e-09)) ((-1.232215e-15 1.093295e-11 -6.928949e-16) (2.063327e-13 -3.873634e-09 6.005272e-14))
9492.70153    	((9.279017e-09 7.514211e-12 -7.986956e-10) (2.437211e-08 -1.406547e-12 -1.496354e-09)) ((-1.231879e-15 1.093296e-11 -6.937996e-16) (2.063570e-13 -3.873600e-09 6.012287e-14))
9838.418154   	((9.278758e-09 7.490531e-12 -7.990155e-10) (2.437157e-08 -1.406242e-12 -1.496725e-09)) ((-1.231959e-15 1.093296e-11 -6.939000e-16) (2.063785e-13 -3.873572e-09 6.017873e-14))
10184.134853  	((9.278544e-09 7.477936e-12 -7.992794e-10) (2.437113e-08 -1.405710e-12 -1.497039e-09)) ((-1.232213e-15 1.093297e-11 -6.938149e-16) (2.063937e-13 -3.873549e-09 6.021734e-14))
10529.851615  	((9.278367e-09 7.483028e-12 -7.995160e-10) (2.437076e-08 -1.405922e-12 -1.497304e-09)) ((-1.233261e-15 1.093297e-11 -6.940324e-16) (2.063661e-13 -3.873531e-09 6.023932e-14))
10875.568427  	((9.278222e-09 7.468621e-12 -7.996800e-10) (2.437045e-08 -1.404859e-12 -1.497528e-09)) ((-1.232953e-15 1.093297e-11 -6.937374e-16) (2.063910e-13 -3.873515e-09 6.028286e-14))
11221.285282  	((9.278094e-09 7.478421e-12 -7.998503e-10) (2.437020e-08 -1.404747e-12 -1.497718e-09)) ((-1.233816e-15 1.093297e-11 -6.939582e-16) (2.063766e-13 -3.873503e-09 6.030393e-14))
11567.00217   	((9.277993e-09 7.466575e-12 -7.999557e-10) (2.436999e-08 -1.403564e-12 -1.497878e-09)) ((-1.233455e-15 1.093298e-11 -6.936914e-16) (2.064092e-13 -3.873493e-09 6.034117e-14))
11912.719087  	((9.277905e-09 7.490333e-12 -8.000850e-10) (2.436981e-08 -1.403324e-12 -1.498013e-09)) ((-1.233842e-15 1.093298e-11 -6.936641e-16) (2.064045e-13 -3.873484e-09 6.036961e-14))
12258.436027  	((9.277835e-09 7.473353e-12 -8.001456e-10) (2.436967e-08 -1.402199e-12 -1.498127e-09)) ((-1.233752e-15 1.093298e-11 -6.936539e-16) (2.064337e-13 -3.873477e-09 6.039521e-14))
12604.152987  	((9.277774e-09 7.494267e-12 -8.002437e-10) (2.436954e-08 -1.402131e-12 -1.498224e-09)) ((-1.234297e-15 1.093298e-11 -6.937444e-16) (2.064224e-13 -3.873471e-09 6.041704e-14))
12949.869962  	((9.277722e-09 7.491446e-12 -8.003092e-10) (2.436944e-08 -1.402176e-12 -1.498306e-09)) ((-1.235143e-15 1.093298e-11 -6.941388e-16) (2.064043e-13 -3.873467e-09 6.042357e-14))
13295.586951  	((9.277679e-09 7.488892e-12 -8.003644e-10) (2.436935e-08 -1.402047e-12 -1.498376e-09)) ((-1.235683e-15 1.093298e-11 -6.943482e-16) (2.063975e-13 -3.873463e-09 6.043599e-14))
13641.30395   	((9.277643e-09 7.487342e-12 -8.004074e-10) (2.436928e-08 -1.401814e-12 -1.498435e-09)) ((-1.236196e-15 1.093299e-11 -6.945235e-16) (2.063955e-13 -3.873459e-09 6.044288e-14))
13987.020959  	((9.277614e-09 7.486373e-12 -8.004451e-10) (2.436922e-08 -1.401595e-12 -1.498484e-09)) ((-1.236639e-15 1.093299e-11 -6.947176e-16) (2.063897e-13 -3.873457e-09 6.045106e-14))
14332.737976  	((9.277591e-09 7.485148e-12 -8.004720e-10) (2.436917e-08 -1.401230e-12 -1.498527e-09)) ((-1.237121e-15 1.093299e-11 -6.949054e-16) (2.063838e-13 -3.873454e-09 6.044995e-14))
14678.454999  	((9.277571e-09 7.484657e-12 -8.004966e-10) (2.436913e-08 -1.400840e-12 -1.498563e-09)) ((-1.237631e-15 1.093299e-11 -6.951731e-16) (2.063784e-13 -3.873453e-09 6.044779e-14))
15024.172027  	((9.277552e-09 7.483489e-12 -8.005194e-10) (2.436910e-08 -1.400634e-12 -1.498593e-09)) ((-1.238223e-15 1.093299e-11 -6.954709e-16) (2.063739e-13 -3.873451e-09 6.045068e-14))
