# Forces      
# CofR        : (0.000000e+00 0.000000e+00 0.000000e+00)
# Time        forces(pressure viscous)	moments(pressure viscous)
0             	((0.000000e+00 0.000000e+00 0.000000e+00) (5.577475e-07 1.069509e-09 6.024062e-02)) ((0.000000e+00 0.000000e+00 0.000000e+00) (-3.141152e-10 3.235487e-08 -8.184282e-13))
0.00828838    	((1.078487e-02 7.767431e-03 7.053389e+00) (1.235974e-05 1.083747e-05 6.550910e-02)) ((4.302566e-07 1.878657e-06 1.339195e-08) (1.094432e-06 -1.262336e-06 1.353157e-08))
0.0180445     	((2.940794e-03 -7.937042e-04 -3.776651e+00) (2.815984e-05 1.854954e-05 5.963438e-02)) ((1.783647e-07 -6.164460e-06 -2.520855e-08) (1.225236e-06 -1.564892e-06 1.436916e-08))
0.029417      	((1.586226e-03 -3.361763e-04 5.620272e-01) (2.232421e-05 9.783627e-06 4.888046e-02)) ((-3.676047e-07 -5.664272e-07 9.005056e-09) (7.309655e-07 -5.031571e-07 5.514676e-09))
0.0424067     	((3.336465e-03 -3.271213e-04 -4.448168e-01) (1.603951e-05 2.798385e-06 4.517252e-02)) ((-1.353873e-07 -3.096577e-06 -7.766663e-09) (3.727339e-07 -2.999298e-07 1.635674e-08))
0.0570101     	((1.674180e-03 -8.684722e-04 4.864085e-02) (2.632229e-05 4.761859e-07 4.286374e-02)) ((-6.799507e-08 -1.902904e-06 1.056318e-08) (4.168993e-08 -5.802901e-07 3.547711e-08))
0.0731822     	((2.487686e-03 -5.084505e-04 -2.081879e-01) (3.810916e-05 4.969863e-06 4.050708e-02)) ((-1.594663e-08 -2.956154e-06 2.105032e-09) (4.865978e-07 -8.295628e-07 1.931633e-08))
0.0893168     	((2.400874e-03 -3.758522e-04 -7.504384e-02) (4.304870e-05 7.764380e-06 3.959626e-02)) ((1.438872e-08 -2.428285e-06 5.800661e-09) (7.165361e-07 -1.497054e-06 1.232483e-08))
0.10536       	((2.583613e-03 -3.284074e-04 -1.444760e-01) (4.733377e-05 7.777008e-06 3.871615e-02)) ((1.305039e-08 -2.751789e-06 4.905382e-09) (6.645236e-07 -1.911298e-06 1.990721e-08))
0.12143       	((2.448798e-03 -3.166525e-04 -1.074794e-01) (4.785291e-05 8.065383e-06 3.826784e-02)) ((1.420835e-08 -2.596328e-06 4.097526e-09) (7.639312e-07 -2.063855e-06 1.735707e-08))
0.137429      	((2.453461e-03 -3.669263e-04 -1.275819e-01) (5.070845e-05 6.773183e-06 3.791679e-02)) ((2.854980e-08 -2.746803e-06 5.431981e-09) (7.416661e-07 -2.372044e-06 -8.038484e-10))
0.153446      	((2.536192e-03 -4.177789e-04 -1.167980e-01) (5.116994e-05 5.098401e-06 3.769218e-02)) ((3.597108e-08 -2.662958e-06 5.402905e-09) (6.621432e-07 -2.469081e-06 -2.497718e-08))
0.169483      	((2.553668e-03 -3.566774e-04 -1.230812e-01) (5.169347e-05 4.260012e-06 3.755225e-02)) ((3.650130e-08 -2.744730e-06 4.754708e-09) (6.265775e-07 -2.562705e-06 -3.981906e-08))
0.185537      	((2.684441e-03 -3.147150e-04 -1.200271e-01) (5.250253e-05 4.296595e-06 3.749660e-02)) ((3.048216e-08 -2.721560e-06 4.791882e-09) (6.431162e-07 -2.716370e-06 -4.100577e-08))
0.201586      	((2.697851e-03 -3.021506e-04 -1.224783e-01) (5.367498e-05 4.861155e-06 3.750653e-02)) ((2.993803e-08 -2.772448e-06 5.652261e-09) (6.913696e-07 -2.878599e-06 -3.789035e-08))
0.217618      	((2.782484e-03 -3.059319e-04 -1.216644e-01) (5.526456e-05 5.581838e-06 3.758034e-02)) ((3.117991e-08 -2.787487e-06 6.302185e-09) (7.657183e-07 -3.045980e-06 -3.219574e-08))
0.233605      	((2.828531e-03 -2.994467e-04 -1.228151e-01) (5.680772e-05 6.066529e-06 3.770168e-02)) ((3.296489e-08 -2.821466e-06 6.384234e-09) (8.281171e-07 -3.196846e-06 -2.359027e-08))
0.249534      	((2.921721e-03 -2.927568e-04 -1.227650e-01) (5.827203e-05 6.193156e-06 3.785985e-02)) ((3.528677e-08 -2.841273e-06 6.501425e-09) (8.689488e-07 -3.323868e-06 -1.452718e-08))
0.265404      	((2.962383e-03 -2.904849e-04 -1.233083e-01) (5.936223e-05 6.100490e-06 3.803801e-02)) ((3.767880e-08 -2.867882e-06 6.519304e-09) (8.963285e-07 -3.423014e-06 -5.202304e-09))
0.281199      	((3.019297e-03 -2.815000e-04 -1.232470e-01) (6.001318e-05 5.898615e-06 3.822169e-02)) ((3.937777e-08 -2.887209e-06 6.709925e-09) (9.083878e-07 -3.488231e-06 2.264075e-09))
0.296918      	((3.049114e-03 -2.653329e-04 -1.231799e-01) (6.036416e-05 5.764133e-06 3.839655e-02)) ((3.992317e-08 -2.905336e-06 6.592796e-09) (9.136346e-07 -3.520932e-06 6.718667e-09))
0.312555      	((3.085481e-03 -2.510985e-04 -1.226577e-01) (6.053303e-05 5.751180e-06 3.854949e-02)) ((4.116503e-08 -2.914106e-06 6.158140e-09) (9.169850e-07 -3.527893e-06 6.667807e-09))
0.328119      	((3.097614e-03 -2.484038e-04 -1.219720e-01) (6.063303e-05 5.775363e-06 3.866956e-02)) ((4.269534e-08 -2.916117e-06 5.370203e-09) (9.150913e-07 -3.516373e-06 2.320072e-09))
0.343626      	((3.106794e-03 -2.470209e-04 -1.211256e-01) (6.069857e-05 5.794357e-06 3.875037e-02)) ((4.436199e-08 -2.908951e-06 4.416154e-09) (9.070530e-07 -3.494737e-06 -4.843684e-09))
0.3591        	((3.100686e-03 -2.489042e-04 -1.204020e-01) (6.071403e-05 5.875333e-06 3.879098e-02)) ((4.435027e-08 -2.895541e-06 3.603439e-09) (9.007321e-07 -3.466090e-06 -1.349089e-08))
0.374566      	((3.095520e-03 -2.559839e-04 -1.199444e-01) (6.065710e-05 5.995299e-06 3.879670e-02)) ((4.400242e-08 -2.880443e-06 3.211665e-09) (8.980007e-07 -3.434235e-06 -2.255171e-08))
0.390048      	((3.079124e-03 -2.594257e-04 -1.198543e-01) (6.053515e-05 6.109620e-06 3.877764e-02)) ((4.294309e-08 -2.868894e-06 3.060106e-09) (8.947551e-07 -3.401186e-06 -3.108315e-08))
0.405556      	((3.063885e-03 -2.591743e-04 -1.200716e-01) (6.038036e-05 6.262603e-06 3.874622e-02)) ((4.185209e-08 -2.862405e-06 2.930063e-09) (8.939692e-07 -3.371009e-06 -3.873710e-08))
0.421092      	((3.052730e-03 -2.608131e-04 -1.204341e-01) (6.026438e-05 6.449471e-06 3.871341e-02)) ((4.119627e-08 -2.861626e-06 2.861458e-09) (8.978141e-07 -3.348976e-06 -4.557457e-08))
0.436647      	((3.056779e-03 -2.599651e-04 -1.207483e-01) (6.021989e-05 6.611638e-06 3.868634e-02)) ((4.053419e-08 -2.863468e-06 2.746568e-09) (9.025383e-07 -3.336392e-06 -5.165706e-08))
0.452211      	((3.063996e-03 -2.571073e-04 -1.208995e-01) (6.022337e-05 6.732933e-06 3.866743e-02)) ((4.043614e-08 -2.865692e-06 2.802417e-09) (9.070191e-07 -3.331614e-06 -5.659801e-08))
0.467776      	((3.075348e-03 -2.546804e-04 -1.208911e-01) (6.027206e-05 6.815711e-06 3.865571e-02)) ((4.058111e-08 -2.866464e-06 2.799087e-09) (9.120544e-07 -3.331763e-06 -5.986944e-08))
0.48334       	((3.081879e-03 -2.537548e-04 -1.208184e-01) (6.033496e-05 6.861286e-06 3.864888e-02)) ((4.090642e-08 -2.866453e-06 2.840030e-09) (9.161475e-07 -3.334164e-06 -6.107912e-08))
0.498904      	((3.087386e-03 -2.533983e-04 -1.207718e-01) (6.039535e-05 6.874048e-06 3.864496e-02)) ((4.106345e-08 -2.865883e-06 2.838177e-09) (9.183393e-07 -3.337509e-06 -6.030544e-08))
0.514469      	((3.089691e-03 -2.533104e-04 -1.207859e-01) (6.044510e-05 6.864195e-06 3.864286e-02)) ((4.131118e-08 -2.866081e-06 2.850757e-09) (9.190638e-07 -3.341205e-06 -5.821667e-08))
0.530036      	((3.092208e-03 -2.529176e-04 -1.208257e-01) (6.049321e-05 6.839511e-06 3.864209e-02)) ((4.147616e-08 -2.866699e-06 2.838740e-09) (9.186375e-07 -3.345060e-06 -5.584158e-08))
0.545603      	((3.093025e-03 -2.523995e-04 -1.208512e-01) (6.054292e-05 6.809610e-06 3.864237e-02)) ((4.158423e-08 -2.867573e-06 2.829235e-09) (9.175382e-07 -3.348737e-06 -5.394502e-08))
0.561169      	((3.094489e-03 -2.517678e-04 -1.208481e-01) (6.059106e-05 6.784356e-06 3.864334e-02)) ((4.160725e-08 -2.868010e-06 2.798942e-09) (9.161357e-07 -3.351760e-06 -5.274489e-08))
0.576735      	((3.094890e-03 -2.514881e-04 -1.208349e-01) (6.063062e-05 6.767150e-06 3.864464e-02)) ((4.159968e-08 -2.868211e-06 2.785593e-09) (9.146504e-07 -3.353980e-06 -5.201957e-08))
0.592301      	((3.095641e-03 -2.512145e-04 -1.208296e-01) (6.065878e-05 6.756815e-06 3.864598e-02)) ((4.157617e-08 -2.868198e-06 2.766777e-09) (9.131902e-07 -3.355443e-06 -5.151194e-08))
0.607866      	((3.095509e-03 -2.512082e-04 -1.208337e-01) (6.067468e-05 6.748122e-06 3.864724e-02)) ((4.156393e-08 -2.868276e-06 2.758420e-09) (9.117887e-07 -3.356352e-06 -5.107888e-08))
0.623431      	((3.095658e-03 -2.512033e-04 -1.208387e-01) (6.068271e-05 6.739405e-06 3.864834e-02)) ((4.155002e-08 -2.868327e-06 2.746514e-09) (9.105151e-07 -3.356945e-06 -5.073957e-08))
0.638996      	((3.095334e-03 -2.513642e-04 -1.208372e-01) (6.068595e-05 6.730002e-06 3.864927e-02)) ((4.156337e-08 -2.868366e-06 2.741827e-09) (9.093482e-07 -3.357306e-06 -5.053448e-08))
0.65456       	((3.095447e-03 -2.514668e-04 -1.208325e-01) (6.068768e-05 6.721629e-06 3.864999e-02)) ((4.156528e-08 -2.868263e-06 2.731103e-09) (9.083125e-07 -3.357469e-06 -5.047556e-08))
0.670125      	((3.095320e-03 -2.518051e-04 -1.208288e-01) (6.068858e-05 6.714694e-06 3.865051e-02)) ((4.160856e-08 -2.868181e-06 2.727716e-09) (9.073895e-07 -3.357515e-06 -5.054114e-08))
0.685689      	((3.095323e-03 -2.518915e-04 -1.208276e-01) (6.069026e-05 6.709240e-06 3.865084e-02)) ((4.163207e-08 -2.868057e-06 2.719832e-09) (9.065512e-07 -3.357514e-06 -5.069776e-08))
0.701253      	((3.095134e-03 -2.520870e-04 -1.208267e-01) (6.069304e-05 6.704749e-06 3.865102e-02)) ((4.168787e-08 -2.867992e-06 2.717049e-09) (9.057779e-07 -3.357538e-06 -5.091467e-08))
0.716817      	((3.095139e-03 -2.521106e-04 -1.208252e-01) (6.069789e-05 6.701144e-06 3.865109e-02)) ((4.172027e-08 -2.867875e-06 2.712482e-09) (9.050456e-07 -3.357623e-06 -5.117480e-08))
0.732381      	((3.095092e-03 -2.522228e-04 -1.208236e-01) (6.070472e-05 6.698090e-06 3.865107e-02)) ((4.177232e-08 -2.867785e-06 2.711997e-09) (9.043360e-07 -3.357792e-06 -5.146088e-08))
0.747945      	((3.095225e-03 -2.522554e-04 -1.208231e-01) (6.071378e-05 6.695460e-06 3.865100e-02)) ((4.181194e-08 -2.867673e-06 2.709424e-09) (9.036350e-07 -3.358065e-06 -5.176397e-08))
0.763509      	((3.095078e-03 -2.525246e-04 -1.208234e-01) (6.072437e-05 6.692693e-06 3.865089e-02)) ((4.188324e-08 -2.867584e-06 2.709826e-09) (9.029209e-07 -3.358441e-06 -5.207470e-08))
0.779073      	((3.095287e-03 -2.526107e-04 -1.208244e-01) (6.073680e-05 6.688777e-06 3.865078e-02)) ((4.194630e-08 -2.867494e-06 2.709967e-09) (9.021450e-07 -3.358937e-06 -5.237494e-08))
0.794638      	((3.095463e-03 -2.526138e-04 -1.208249e-01) (6.074982e-05 6.682948e-06 3.865067e-02)) ((4.200200e-08 -2.867432e-06 2.710297e-09) (9.012728e-07 -3.359544e-06 -5.264284e-08))
0.810202      	((3.095675e-03 -2.525499e-04 -1.208254e-01) (6.076242e-05 6.675948e-06 3.865058e-02)) ((4.202882e-08 -2.867371e-06 2.709608e-09) (9.003355e-07 -3.360199e-06 -5.286607e-08))
0.825766      	((3.095698e-03 -2.526781e-04 -1.208257e-01) (6.077381e-05 6.668358e-06 3.865051e-02)) ((4.205292e-08 -2.867335e-06 2.708887e-09) (8.993779e-07 -3.360853e-06 -5.304518e-08))
0.84133       	((3.095796e-03 -2.527801e-04 -1.208260e-01) (6.078357e-05 6.661001e-06 3.865045e-02)) ((4.206876e-08 -2.867300e-06 2.708411e-09) (8.984532e-07 -3.361476e-06 -5.318201e-08))
0.856895      	((3.095818e-03 -2.528710e-04 -1.208260e-01) (6.079155e-05 6.654101e-06 3.865041e-02)) ((4.208582e-08 -2.867278e-06 2.708132e-09) (8.975850e-07 -3.362044e-06 -5.327870e-08))
0.872459      	((3.095872e-03 -2.528881e-04 -1.208260e-01) (6.079800e-05 6.647750e-06 3.865038e-02)) ((4.208767e-08 -2.867254e-06 2.706835e-09) (8.967826e-07 -3.362550e-06 -5.333994e-08))
0.888023      	((3.095930e-03 -2.529351e-04 -1.208260e-01) (6.080287e-05 6.641894e-06 3.865036e-02)) ((4.208892e-08 -2.867241e-06 2.705677e-09) (8.960581e-07 -3.362991e-06 -5.337217e-08))
0.903587      	((3.095965e-03 -2.529925e-04 -1.208261e-01) (6.080662e-05 6.636651e-06 3.865035e-02)) ((4.208461e-08 -2.867227e-06 2.704901e-09) (8.954151e-07 -3.363368e-06 -5.338302e-08))
0.919152      	((3.096007e-03 -2.530372e-04 -1.208261e-01) (6.080940e-05 6.632060e-06 3.865034e-02)) ((4.208275e-08 -2.867228e-06 2.705619e-09) (8.948540e-07 -3.363680e-06 -5.337966e-08))
0.934716      	((3.096015e-03 -2.531091e-04 -1.208261e-01) (6.081152e-05 6.627849e-06 3.865034e-02)) ((4.207187e-08 -2.867217e-06 2.705002e-09) (8.943537e-07 -3.363940e-06 -5.336976e-08))
0.95028       	((3.096055e-03 -2.531744e-04 -1.208261e-01) (6.081317e-05 6.624175e-06 3.865034e-02)) ((4.206696e-08 -2.867216e-06 2.705015e-09) (8.939162e-07 -3.364161e-06 -5.335731e-08))
0.965844      	((3.096086e-03 -2.532564e-04 -1.208261e-01) (6.081456e-05 6.620957e-06 3.865034e-02)) ((4.205968e-08 -2.867210e-06 2.704336e-09) (8.935333e-07 -3.364352e-06 -5.334468e-08))
0.981409      	((3.096134e-03 -2.533008e-04 -1.208261e-01) (6.081570e-05 6.618086e-06 3.865034e-02)) ((4.205532e-08 -2.867210e-06 2.704479e-09) (8.931981e-07 -3.364515e-06 -5.333309e-08))
0.996973      	((3.096177e-03 -2.533334e-04 -1.208261e-01) (6.081655e-05 6.615729e-06 3.865034e-02)) ((4.204847e-08 -2.867202e-06 2.704270e-09) (8.929191e-07 -3.364632e-06 -5.332280e-08))
1.012537      	((3.096170e-03 -2.533722e-04 -1.208261e-01) (6.081713e-05 6.613715e-06 3.865034e-02)) ((4.204710e-08 -2.867202e-06 2.703428e-09) (8.926939e-07 -3.364713e-06 -5.331227e-08))
1.028101      	((3.096172e-03 -2.534021e-04 -1.208261e-01) (6.081763e-05 6.611858e-06 3.865034e-02)) ((4.204079e-08 -2.867199e-06 2.702996e-09) (8.924958e-07 -3.364782e-06 -5.330266e-08))
1.043666      	((3.096184e-03 -2.534256e-04 -1.208261e-01) (6.081805e-05 6.610218e-06 3.865034e-02)) ((4.203738e-08 -2.867202e-06 2.701988e-09) (8.923237e-07 -3.364844e-06 -5.329482e-08))
1.05923       	((3.096212e-03 -2.534483e-04 -1.208261e-01) (6.081844e-05 6.608860e-06 3.865034e-02)) ((4.203154e-08 -2.867199e-06 2.701684e-09) (8.921797e-07 -3.364896e-06 -5.328816e-08))
1.074794      	((3.096230e-03 -2.534683e-04 -1.208261e-01) (6.081888e-05 6.607696e-06 3.865034e-02)) ((4.202744e-08 -2.867198e-06 2.701512e-09) (8.920578e-07 -3.364942e-06 -5.328298e-08))
1.090358      	((3.096241e-03 -2.534895e-04 -1.208261e-01) (6.081925e-05 6.606699e-06 3.865034e-02)) ((4.202341e-08 -2.867196e-06 2.701071e-09) (8.919555e-07 -3.364981e-06 -5.327917e-08))
1.105922      	((3.096254e-03 -2.535007e-04 -1.208261e-01) (6.081953e-05 6.605850e-06 3.865034e-02)) ((4.202018e-08 -2.867195e-06 2.700560e-09) (8.918708e-07 -3.365011e-06 -5.327641e-08))
1.121487      	((3.096264e-03 -2.535121e-04 -1.208261e-01) (6.081976e-05 6.605142e-06 3.865034e-02)) ((4.201678e-08 -2.867194e-06 2.700068e-09) (8.918015e-07 -3.365036e-06 -5.327475e-08))
1.137051      	((3.096270e-03 -2.535225e-04 -1.208261e-01) (6.081995e-05 6.604537e-06 3.865034e-02)) ((4.201453e-08 -2.867194e-06 2.699708e-09) (8.917439e-07 -3.365056e-06 -5.327354e-08))
1.152615      	((3.096272e-03 -2.535329e-04 -1.208261e-01) (6.082012e-05 6.604007e-06 3.865034e-02)) ((4.201211e-08 -2.867193e-06 2.699252e-09) (8.916948e-07 -3.365071e-06 -5.327270e-08))
1.168179      	((3.096273e-03 -2.535418e-04 -1.208261e-01) (6.082023e-05 6.603534e-06 3.865034e-02)) ((4.201043e-08 -2.867193e-06 2.698927e-09) (8.916529e-07 -3.365083e-06 -5.327224e-08))
1.183744      	((3.096276e-03 -2.535492e-04 -1.208261e-01) (6.082033e-05 6.603124e-06 3.865034e-02)) ((4.200842e-08 -2.867193e-06 2.698517e-09) (8.916173e-07 -3.365092e-06 -5.327192e-08))
1.199308      	((3.096278e-03 -2.535563e-04 -1.208261e-01) (6.082042e-05 6.602764e-06 3.865034e-02)) ((4.200715e-08 -2.867193e-06 2.698381e-09) (8.915870e-07 -3.365099e-06 -5.327165e-08))
1.214872      	((3.096282e-03 -2.535611e-04 -1.208261e-01) (6.082050e-05 6.602452e-06 3.865034e-02)) ((4.200549e-08 -2.867192e-06 2.698207e-09) (8.915608e-07 -3.365105e-06 -5.327138e-08))
1.230436      	((3.096284e-03 -2.535661e-04 -1.208261e-01) (6.082056e-05 6.602179e-06 3.865034e-02)) ((4.200444e-08 -2.867192e-06 2.698198e-09) (8.915381e-07 -3.365110e-06 -5.327114e-08))
1.246         	((3.096288e-03 -2.535696e-04 -1.208261e-01) (6.082062e-05 6.601943e-06 3.865034e-02)) ((4.200314e-08 -2.867192e-06 2.698161e-09) (8.915184e-07 -3.365115e-06 -5.327093e-08))
1.261565      	((3.096290e-03 -2.535732e-04 -1.208261e-01) (6.082067e-05 6.601737e-06 3.865034e-02)) ((4.200231e-08 -2.867192e-06 2.698190e-09) (8.915013e-07 -3.365119e-06 -5.327076e-08))
1.277129      	((3.096292e-03 -2.535758e-04 -1.208261e-01) (6.082072e-05 6.601559e-06 3.865034e-02)) ((4.200132e-08 -2.867192e-06 2.698190e-09) (8.914864e-07 -3.365122e-06 -5.327062e-08))
1.292693      	((3.096294e-03 -2.535784e-04 -1.208261e-01) (6.082075e-05 6.601405e-06 3.865034e-02)) ((4.200067e-08 -2.867192e-06 2.698209e-09) (8.914736e-07 -3.365124e-06 -5.327051e-08))
1.308257      	((3.096295e-03 -2.535802e-04 -1.208261e-01) (6.082078e-05 6.601274e-06 3.865034e-02)) ((4.199992e-08 -2.867191e-06 2.698203e-09) (8.914625e-07 -3.365126e-06 -5.327043e-08))
1.323822      	((3.096296e-03 -2.535821e-04 -1.208261e-01) (6.082080e-05 6.601160e-06 3.865034e-02)) ((4.199942e-08 -2.867191e-06 2.698213e-09) (8.914529e-07 -3.365128e-06 -5.327036e-08))
1.339386      	((3.096298e-03 -2.535833e-04 -1.208261e-01) (6.082083e-05 6.601064e-06 3.865034e-02)) ((4.199883e-08 -2.867191e-06 2.698200e-09) (8.914446e-07 -3.365129e-06 -5.327031e-08))
1.35495       	((3.096298e-03 -2.535847e-04 -1.208261e-01) (6.082084e-05 6.600980e-06 3.865034e-02)) ((4.199846e-08 -2.867191e-06 2.698205e-09) (8.914375e-07 -3.365131e-06 -5.327028e-08))
1.370514      	((3.096299e-03 -2.535857e-04 -1.208261e-01) (6.082086e-05 6.600909e-06 3.865034e-02)) ((4.199800e-08 -2.867191e-06 2.698185e-09) (8.914314e-07 -3.365131e-06 -5.327026e-08))
1.386078      	((3.096300e-03 -2.535867e-04 -1.208261e-01) (6.082087e-05 6.600848e-06 3.865034e-02)) ((4.199772e-08 -2.867191e-06 2.698184e-09) (8.914261e-07 -3.365132e-06 -5.327026e-08))
1.401643      	((3.096301e-03 -2.535873e-04 -1.208261e-01) (6.082088e-05 6.600795e-06 3.865034e-02)) ((4.199737e-08 -2.867191e-06 2.698161e-09) (8.914216e-07 -3.365133e-06 -5.327027e-08))
1.417207      	((3.096301e-03 -2.535881e-04 -1.208261e-01) (6.082088e-05 6.600750e-06 3.865034e-02)) ((4.199715e-08 -2.867191e-06 2.698154e-09) (8.914177e-07 -3.365133e-06 -5.327029e-08))
1.432771      	((3.096302e-03 -2.535885e-04 -1.208261e-01) (6.082089e-05 6.600712e-06 3.865034e-02)) ((4.199688e-08 -2.867190e-06 2.698132e-09) (8.914143e-07 -3.365133e-06 -5.327031e-08))
1.448335      	((3.096302e-03 -2.535890e-04 -1.208261e-01) (6.082089e-05 6.600678e-06 3.865034e-02)) ((4.199672e-08 -2.867190e-06 2.698122e-09) (8.914114e-07 -3.365133e-06 -5.327035e-08))
1.4639        	((3.096303e-03 -2.535894e-04 -1.208261e-01) (6.082089e-05 6.600650e-06 3.865034e-02)) ((4.199650e-08 -2.867190e-06 2.698102e-09) (8.914089e-07 -3.365134e-06 -5.327039e-08))
1.479464      	((3.096303e-03 -2.535897e-04 -1.208261e-01) (6.082089e-05 6.600625e-06 3.865034e-02)) ((4.199637e-08 -2.867190e-06 2.698090e-09) (8.914067e-07 -3.365134e-06 -5.327043e-08))
1.495028      	((3.096303e-03 -2.535900e-04 -1.208261e-01) (6.082089e-05 6.600604e-06 3.865034e-02)) ((4.199621e-08 -2.867190e-06 2.698072e-09) (8.914049e-07 -3.365134e-06 -5.327047e-08))
1.510592      	((3.096303e-03 -2.535903e-04 -1.208261e-01) (6.082089e-05 6.600586e-06 3.865034e-02)) ((4.199611e-08 -2.867190e-06 2.698060e-09) (8.914033e-07 -3.365133e-06 -5.327052e-08))
1.526156      	((3.096304e-03 -2.535904e-04 -1.208261e-01) (6.082089e-05 6.600570e-06 3.865034e-02)) ((4.199597e-08 -2.867190e-06 2.698044e-09) (8.914018e-07 -3.365133e-06 -5.327057e-08))
1.541721      	((3.096304e-03 -2.535906e-04 -1.208261e-01) (6.082088e-05 6.600556e-06 3.865034e-02)) ((4.199589e-08 -2.867190e-06 2.698034e-09) (8.914006e-07 -3.365133e-06 -5.327062e-08))
1.557285      	((3.096304e-03 -2.535908e-04 -1.208261e-01) (6.082088e-05 6.600545e-06 3.865034e-02)) ((4.199579e-08 -2.867190e-06 2.698020e-09) (8.913996e-07 -3.365133e-06 -5.327066e-08))
1.572849      	((3.096304e-03 -2.535909e-04 -1.208261e-01) (6.082088e-05 6.600534e-06 3.865034e-02)) ((4.199572e-08 -2.867190e-06 2.698011e-09) (8.913987e-07 -3.365133e-06 -5.327071e-08))
1.588413      	((3.096304e-03 -2.535910e-04 -1.208261e-01) (6.082088e-05 6.600525e-06 3.865034e-02)) ((4.199564e-08 -2.867190e-06 2.698000e-09) (8.913979e-07 -3.365133e-06 -5.327076e-08))
1.603977      	((3.096304e-03 -2.535911e-04 -1.208261e-01) (6.082088e-05 6.600518e-06 3.865034e-02)) ((4.199559e-08 -2.867190e-06 2.697993e-09) (8.913972e-07 -3.365133e-06 -5.327080e-08))
1.619542      	((3.096304e-03 -2.535912e-04 -1.208261e-01) (6.082087e-05 6.600511e-06 3.865034e-02)) ((4.199552e-08 -2.867190e-06 2.697983e-09) (8.913965e-07 -3.365133e-06 -5.327084e-08))
1.635106      	((3.096304e-03 -2.535913e-04 -1.208261e-01) (6.082087e-05 6.600505e-06 3.865034e-02)) ((4.199548e-08 -2.867190e-06 2.697978e-09) (8.913960e-07 -3.365132e-06 -5.327088e-08))
1.65067       	((3.096305e-03 -2.535913e-04 -1.208261e-01) (6.082087e-05 6.600500e-06 3.865034e-02)) ((4.199543e-08 -2.867190e-06 2.697971e-09) (8.913955e-07 -3.365132e-06 -5.327092e-08))
1.666234      	((3.096305e-03 -2.535914e-04 -1.208261e-01) (6.082087e-05 6.600496e-06 3.865034e-02)) ((4.199540e-08 -2.867190e-06 2.697966e-09) (8.913951e-07 -3.365132e-06 -5.327095e-08))
1.681799      	((3.096305e-03 -2.535915e-04 -1.208261e-01) (6.082087e-05 6.600492e-06 3.865034e-02)) ((4.199535e-08 -2.867190e-06 2.697960e-09) (8.913948e-07 -3.365132e-06 -5.327098e-08))
1.697363      	((3.096305e-03 -2.535915e-04 -1.208261e-01) (6.082086e-05 6.600489e-06 3.865034e-02)) ((4.199533e-08 -2.867190e-06 2.697954e-09) (8.913945e-07 -3.365132e-06 -5.327101e-08))
1.712927      	((3.096305e-03 -2.535915e-04 -1.208261e-01) (6.082086e-05 6.600486e-06 3.865034e-02)) ((4.199529e-08 -2.867189e-06 2.697948e-09) (8.913942e-07 -3.365132e-06 -5.327104e-08))
1.728491      	((3.096305e-03 -2.535916e-04 -1.208261e-01) (6.082086e-05 6.600483e-06 3.865034e-02)) ((4.199527e-08 -2.867189e-06 2.697943e-09) (8.913940e-07 -3.365132e-06 -5.327107e-08))
1.744055      	((3.096305e-03 -2.535916e-04 -1.208261e-01) (6.082086e-05 6.600481e-06 3.865034e-02)) ((4.199524e-08 -2.867189e-06 2.697937e-09) (8.913938e-07 -3.365132e-06 -5.327110e-08))
1.75962       	((3.096304e-03 -2.535916e-04 -1.208261e-01) (6.082086e-05 6.600479e-06 3.865034e-02)) ((4.199522e-08 -2.867189e-06 2.697933e-09) (8.913936e-07 -3.365132e-06 -5.327113e-08))
1.775184      	((3.096304e-03 -2.535917e-04 -1.208261e-01) (6.082086e-05 6.600477e-06 3.865034e-02)) ((4.199520e-08 -2.867189e-06 2.697928e-09) (8.913934e-07 -3.365132e-06 -5.327116e-08))
1.790748      	((3.096304e-03 -2.535917e-04 -1.208261e-01) (6.082086e-05 6.600475e-06 3.865034e-02)) ((4.199518e-08 -2.867189e-06 2.697925e-09) (8.913933e-07 -3.365132e-06 -5.327119e-08))
1.806312      	((3.096304e-03 -2.535917e-04 -1.208261e-01) (6.082085e-05 6.600474e-06 3.865034e-02)) ((4.199516e-08 -2.867189e-06 2.697921e-09) (8.913931e-07 -3.365132e-06 -5.327122e-08))
1.821877      	((3.096304e-03 -2.535917e-04 -1.208261e-01) (6.082085e-05 6.600473e-06 3.865034e-02)) ((4.199515e-08 -2.867189e-06 2.697917e-09) (8.913930e-07 -3.365132e-06 -5.327125e-08))
1.837441      	((3.096304e-03 -2.535917e-04 -1.208261e-01) (6.082085e-05 6.600471e-06 3.865034e-02)) ((4.199513e-08 -2.867189e-06 2.697914e-09) (8.913929e-07 -3.365132e-06 -5.327128e-08))
1.853005      	((3.096304e-03 -2.535918e-04 -1.208261e-01) (6.082085e-05 6.600470e-06 3.865034e-02)) ((4.199512e-08 -2.867189e-06 2.697911e-09) (8.913928e-07 -3.365132e-06 -5.327130e-08))
1.868569      	((3.096304e-03 -2.535918e-04 -1.208261e-01) (6.082085e-05 6.600469e-06 3.865034e-02)) ((4.199511e-08 -2.867189e-06 2.697908e-09) (8.913928e-07 -3.365132e-06 -5.327133e-08))
1.884133      	((3.096304e-03 -2.535918e-04 -1.208261e-01) (6.082085e-05 6.600468e-06 3.865034e-02)) ((4.199510e-08 -2.867189e-06 2.697905e-09) (8.913927e-07 -3.365132e-06 -5.327135e-08))
1.899698      	((3.096304e-03 -2.535918e-04 -1.208261e-01) (6.082085e-05 6.600468e-06 3.865034e-02)) ((4.199509e-08 -2.867189e-06 2.697902e-09) (8.913926e-07 -3.365132e-06 -5.327138e-08))
1.915262      	((3.096304e-03 -2.535918e-04 -1.208261e-01) (6.082085e-05 6.600467e-06 3.865034e-02)) ((4.199508e-08 -2.867189e-06 2.697900e-09) (8.913926e-07 -3.365132e-06 -5.327140e-08))
1.930826      	((3.096304e-03 -2.535918e-04 -1.208261e-01) (6.082085e-05 6.600466e-06 3.865034e-02)) ((4.199507e-08 -2.867189e-06 2.697897e-09) (8.913925e-07 -3.365132e-06 -5.327142e-08))
1.94639       	((3.096304e-03 -2.535918e-04 -1.208261e-01) (6.082085e-05 6.600466e-06 3.865034e-02)) ((4.199507e-08 -2.867189e-06 2.697895e-09) (8.913925e-07 -3.365132e-06 -5.327144e-08))
1.961954      	((3.096304e-03 -2.535919e-04 -1.208261e-01) (6.082085e-05 6.600465e-06 3.865034e-02)) ((4.199506e-08 -2.867189e-06 2.697893e-09) (8.913924e-07 -3.365132e-06 -5.327146e-08))
1.977519      	((3.096304e-03 -2.535919e-04 -1.208261e-01) (6.082085e-05 6.600464e-06 3.865034e-02)) ((4.199505e-08 -2.867189e-06 2.697891e-09) (8.913924e-07 -3.365132e-06 -5.327148e-08))
1.993083      	((3.096304e-03 -2.535919e-04 -1.208261e-01) (6.082085e-05 6.600464e-06 3.865034e-02)) ((4.199504e-08 -2.867189e-06 2.697889e-09) (8.913924e-07 -3.365132e-06 -5.327150e-08))
2.008647      	((3.096304e-03 -2.535919e-04 -1.208261e-01) (6.082085e-05 6.600464e-06 3.865034e-02)) ((4.199504e-08 -2.867189e-06 2.697887e-09) (8.913923e-07 -3.365132e-06 -5.327151e-08))
2.024211      	((3.096304e-03 -2.535919e-04 -1.208261e-01) (6.082085e-05 6.600463e-06 3.865034e-02)) ((4.199503e-08 -2.867189e-06 2.697885e-09) (8.913923e-07 -3.365132e-06 -5.327153e-08))
2.039776      	((3.096304e-03 -2.535919e-04 -1.208261e-01) (6.082085e-05 6.600463e-06 3.865034e-02)) ((4.199503e-08 -2.867189e-06 2.697884e-09) (8.913923e-07 -3.365132e-06 -5.327154e-08))
2.05534       	((3.096304e-03 -2.535919e-04 -1.208261e-01) (6.082085e-05 6.600462e-06 3.865034e-02)) ((4.199503e-08 -2.867189e-06 2.697882e-09) (8.913923e-07 -3.365132e-06 -5.327156e-08))
2.070904      	((3.096304e-03 -2.535919e-04 -1.208261e-01) (6.082085e-05 6.600462e-06 3.865034e-02)) ((4.199502e-08 -2.867189e-06 2.697881e-09) (8.913923e-07 -3.365132e-06 -5.327157e-08))
2.086468      	((3.096304e-03 -2.535919e-04 -1.208261e-01) (6.082085e-05 6.600462e-06 3.865034e-02)) ((4.199502e-08 -2.867189e-06 2.697880e-09) (8.913922e-07 -3.365132e-06 -5.327158e-08))
2.102032      	((3.096304e-03 -2.535919e-04 -1.208261e-01) (6.082085e-05 6.600462e-06 3.865034e-02)) ((4.199501e-08 -2.867189e-06 2.697879e-09) (8.913922e-07 -3.365132e-06 -5.327160e-08))
2.117597      	((3.096304e-03 -2.535919e-04 -1.208261e-01) (6.082085e-05 6.600461e-06 3.865034e-02)) ((4.199501e-08 -2.867189e-06 2.697877e-09) (8.913922e-07 -3.365132e-06 -5.327161e-08))
2.133161      	((3.096304e-03 -2.535919e-04 -1.208261e-01) (6.082085e-05 6.600461e-06 3.865034e-02)) ((4.199501e-08 -2.867189e-06 2.697876e-09) (8.913922e-07 -3.365132e-06 -5.327162e-08))
2.148725      	((3.096304e-03 -2.535919e-04 -1.208261e-01) (6.082085e-05 6.600461e-06 3.865034e-02)) ((4.199501e-08 -2.867189e-06 2.697875e-09) (8.913922e-07 -3.365132e-06 -5.327163e-08))
2.164289      	((3.096304e-03 -2.535919e-04 -1.208261e-01) (6.082084e-05 6.600461e-06 3.865034e-02)) ((4.199500e-08 -2.867189e-06 2.697874e-09) (8.913922e-07 -3.365132e-06 -5.327164e-08))
2.179854      	((3.096304e-03 -2.535919e-04 -1.208261e-01) (6.082084e-05 6.600461e-06 3.865034e-02)) ((4.199500e-08 -2.867189e-06 2.697874e-09) (8.913922e-07 -3.365132e-06 -5.327165e-08))
2.195418      	((3.096304e-03 -2.535920e-04 -1.208261e-01) (6.082084e-05 6.600460e-06 3.865034e-02)) ((4.199500e-08 -2.867189e-06 2.697873e-09) (8.913922e-07 -3.365132e-06 -5.327165e-08))
2.210982      	((3.096304e-03 -2.535920e-04 -1.208261e-01) (6.082084e-05 6.600460e-06 3.865034e-02)) ((4.199500e-08 -2.867189e-06 2.697872e-09) (8.913922e-07 -3.365132e-06 -5.327166e-08))
2.226546      	((3.096304e-03 -2.535920e-04 -1.208261e-01) (6.082084e-05 6.600460e-06 3.865034e-02)) ((4.199499e-08 -2.867189e-06 2.697871e-09) (8.913921e-07 -3.365132e-06 -5.327167e-08))
2.24211       	((3.096304e-03 -2.535920e-04 -1.208261e-01) (6.082084e-05 6.600460e-06 3.865034e-02)) ((4.199499e-08 -2.867189e-06 2.697871e-09) (8.913921e-07 -3.365132e-06 -5.327168e-08))
2.257675      	((3.096304e-03 -2.535920e-04 -1.208261e-01) (6.082084e-05 6.600460e-06 3.865034e-02)) ((4.199499e-08 -2.867189e-06 2.697870e-09) (8.913921e-07 -3.365132e-06 -5.327168e-08))
2.273239      	((3.096304e-03 -2.535920e-04 -1.208261e-01) (6.082084e-05 6.600460e-06 3.865034e-02)) ((4.199499e-08 -2.867189e-06 2.697869e-09) (8.913921e-07 -3.365132e-06 -5.327169e-08))
2.288803      	((3.096304e-03 -2.535920e-04 -1.208261e-01) (6.082084e-05 6.600460e-06 3.865034e-02)) ((4.199499e-08 -2.867189e-06 2.697869e-09) (8.913921e-07 -3.365132e-06 -5.327170e-08))
2.304367      	((3.096304e-03 -2.535920e-04 -1.208261e-01) (6.082084e-05 6.600460e-06 3.865034e-02)) ((4.199499e-08 -2.867189e-06 2.697868e-09) (8.913921e-07 -3.365132e-06 -5.327170e-08))
2.319931      	((3.096304e-03 -2.535920e-04 -1.208261e-01) (6.082084e-05 6.600460e-06 3.865034e-02)) ((4.199499e-08 -2.867189e-06 2.697868e-09) (8.913921e-07 -3.365132e-06 -5.327171e-08))
2.335496      	((3.096304e-03 -2.535920e-04 -1.208261e-01) (6.082084e-05 6.600459e-06 3.865034e-02)) ((4.199498e-08 -2.867189e-06 2.697867e-09) (8.913921e-07 -3.365132e-06 -5.327171e-08))
2.35106       	((3.096304e-03 -2.535920e-04 -1.208261e-01) (6.082084e-05 6.600459e-06 3.865034e-02)) ((4.199498e-08 -2.867189e-06 2.697867e-09) (8.913921e-07 -3.365132e-06 -5.327172e-08))
2.366624      	((3.096304e-03 -2.535920e-04 -1.208261e-01) (6.082084e-05 6.600459e-06 3.865034e-02)) ((4.199498e-08 -2.867189e-06 2.697866e-09) (8.913921e-07 -3.365132e-06 -5.327172e-08))
2.382188      	((3.096304e-03 -2.535920e-04 -1.208261e-01) (6.082084e-05 6.600459e-06 3.865034e-02)) ((4.199498e-08 -2.867189e-06 2.697866e-09) (8.913921e-07 -3.365132e-06 -5.327172e-08))
2.397753      	((3.096304e-03 -2.535920e-04 -1.208261e-01) (6.082084e-05 6.600459e-06 3.865034e-02)) ((4.199498e-08 -2.867189e-06 2.697865e-09) (8.913921e-07 -3.365132e-06 -5.327173e-08))
2.413317      	((3.096304e-03 -2.535920e-04 -1.208261e-01) (6.082084e-05 6.600459e-06 3.865034e-02)) ((4.199498e-08 -2.867189e-06 2.697865e-09) (8.913921e-07 -3.365132e-06 -5.327173e-08))
2.428881      	((3.096304e-03 -2.535920e-04 -1.208261e-01) (6.082084e-05 6.600459e-06 3.865034e-02)) ((4.199498e-08 -2.867189e-06 2.697865e-09) (8.913921e-07 -3.365132e-06 -5.327173e-08))