# Forces      
# CofR        : (0.000000e+00 0.000000e+00 0.000000e+00)
# Time        forces(pressure viscous)	moments(pressure viscous)
0             	((0.000000e+00 0.000000e+00 0.000000e+00) (-2.460428e-14 3.991827e-05 1.982855e-15)) ((0.000000e+00 0.000000e+00 0.000000e+00) (8.969219e-07 -1.496572e-16 -1.930519e-11))
0.012         	((-1.272048e-08 1.160942e-02 2.896401e-03) (-7.833831e-11 4.580128e-05 -2.053257e-08)) ((-1.369065e-07 9.873219e-09 -2.188154e-09) (1.321938e-06 1.527316e-14 -3.981796e-11))
0.0264        	((-1.776798e-07 -8.166528e-04 -1.894871e-04) (-2.500032e-10 4.671676e-05 -3.023096e-08)) ((9.753129e-09 -6.242715e-10 1.426789e-10) (1.479763e-06 3.197862e-12 -5.220708e-11))
0.04368       	((2.604506e-07 -2.421898e-03 -2.675332e-04) (-1.103115e-10 4.150411e-05 -2.708076e-08)) ((3.154084e-08 -9.069725e-10 5.912092e-10) (1.318240e-06 -5.187111e-12 -4.421107e-11))
0.064416      	((-6.150591e-08 -2.276199e-05 -9.760289e-05) (8.338087e-10 3.675723e-05 -1.474672e-08)) ((-1.467185e-10 -3.171989e-10 -3.129222e-11) (1.183637e-06 -9.966103e-12 -5.165516e-11))
0.0892992     	((-1.503971e-09 3.102905e-05 -5.915581e-05) (1.109625e-09 3.393229e-05 -1.311455e-08)) ((-1.260065e-09 -1.945620e-10 -3.405247e-11) (1.118963e-06 -1.552582e-12 -5.447057e-11))
0.119159      	((1.081212e-08 -3.680918e-05 -3.733180e-05) (7.954276e-10 3.133189e-05 -2.042451e-08)) ((6.833598e-10 -1.144111e-10 9.369329e-12) (1.047192e-06 3.203600e-12 -4.299947e-11))
0.154991      	((-1.756620e-08 -1.960625e-05 -2.423121e-05) (6.037005e-10 2.858013e-05 -2.361879e-08)) ((4.219899e-10 -6.921107e-11 -7.171990e-13) (9.674656e-07 2.409004e-13 -2.721935e-11))
0.197989      	((7.685432e-09 -4.723617e-06 -1.574911e-05) (3.839147e-10 2.581041e-05 -2.818213e-08)) ((1.557742e-10 -3.974197e-11 -1.013720e-12) (8.864509e-07 -5.991848e-12 -1.165388e-11))
0.249587      	((2.118720e-09 6.810734e-07 -1.055718e-05) (2.336046e-10 2.310126e-05 -3.455176e-08)) ((4.971863e-11 -2.272009e-11 -2.756472e-12) (8.056116e-07 -1.107588e-11 5.142413e-13))
0.311504      	((-2.253275e-09 3.141283e-06 -7.261998e-06) (9.515945e-11 2.053578e-05 -4.208436e-08)) ((1.420078e-11 -1.189091e-11 -2.415596e-12) (7.266093e-07 -1.502403e-11 1.752807e-11))
0.385805      	((6.346310e-10 4.332044e-06 -5.219611e-06) (-1.091440e-11 1.818034e-05 -4.992853e-08)) ((1.993026e-12 -5.196296e-12 -1.757702e-12) (6.514163e-07 -1.785906e-11 2.784509e-11))
0.474966      	((-1.561987e-10 4.925962e-06 -3.893928e-06) (5.351087e-11 1.607577e-05 -5.763720e-08)) ((-8.437552e-12 -1.156758e-12 -1.501740e-12) (5.819786e-07 -1.789195e-11 2.799748e-11))
0.581959      	((3.554540e-10 5.174798e-06 -3.088733e-06) (2.674014e-10 1.422989e-05 -6.530788e-08)) ((-1.643610e-11 1.111542e-12 -1.385823e-12) (5.192358e-07 -1.557129e-11 2.114569e-11))
0.710351      	((-1.632784e-11 5.159871e-06 -2.589413e-06) (4.159074e-10 1.263504e-05 -7.244943e-08)) ((-2.155592e-11 2.606202e-12 -1.174063e-12) (4.636530e-07 -1.345025e-11 1.330176e-11))
0.864421      	((2.812785e-10 4.976404e-06 -2.309814e-06) (4.337982e-10 1.127112e-05 -7.849974e-08)) ((-2.384970e-11 3.399412e-12 -1.247301e-12) (4.152286e-07 -1.114044e-11 5.399129e-12))
1.049306      	((3.881485e-10 4.702700e-06 -2.143503e-06) (4.336144e-10 1.010701e-05 -8.369676e-08)) ((-2.402844e-11 3.833400e-12 -1.218961e-12) (3.733164e-07 -8.974052e-12 -3.472091e-12))
1.271167      	((4.672734e-10 4.393053e-06 -2.061320e-06) (3.890748e-10 9.110028e-06 -8.882720e-08)) ((-2.305192e-11 4.013729e-12 -1.058900e-12) (3.369536e-07 -7.109370e-12 -1.126252e-11))
1.5374        	((2.956840e-10 4.070754e-06 -2.024537e-06) (2.933273e-10 8.246804e-06 -9.468775e-08)) ((-2.150048e-11 4.034139e-12 -1.014214e-12) (3.051717e-07 -5.190434e-12 -1.682201e-11))
1.85688       	((2.988316e-10 3.754052e-06 -2.021462e-06) (2.431768e-10 7.487946e-06 -1.015521e-07)) ((-1.965234e-11 3.900863e-12 -9.801825e-13) (2.771233e-07 -2.966440e-12 -2.048497e-11))
2.240256      	((3.143382e-10 3.454277e-06 -2.033306e-06) (2.115202e-10 6.813675e-06 -1.092797e-07)) ((-1.819938e-11 3.754190e-12 -9.593944e-13) (2.521718e-07 -8.919387e-13 -2.379475e-11))
2.700307      	((3.408274e-10 3.175832e-06 -2.057268e-06) (1.550199e-10 6.210904e-06 -1.177143e-07)) ((-1.694352e-11 3.575260e-12 -9.316182e-13) (2.298588e-07 1.104947e-13 -2.582863e-11))
3.252369      	((2.506975e-10 2.918272e-06 -2.083258e-06) (9.665434e-11 5.669983e-06 -1.268058e-07)) ((-1.571688e-11 3.332149e-12 -8.977882e-13) (2.098319e-07 3.397001e-15 -2.494119e-11))
3.914842      	((1.319580e-10 2.679221e-06 -2.111483e-06) (4.563539e-11 5.183356e-06 -1.366468e-07)) ((-1.448392e-11 3.088729e-12 -8.389023e-13) (1.918109e-07 2.123075e-13 -2.094282e-11))
4.709811      	((5.161494e-11 2.459504e-06 -2.137144e-06) (3.979770e-12 4.745441e-06 -1.471734e-07)) ((-1.340692e-11 2.870822e-12 -7.463659e-13) (1.755891e-07 1.333647e-12 -1.855447e-11))
5.663773      	((-3.970804e-11 2.259873e-06 -2.159695e-06) (-1.122007e-11 4.352242e-06 -1.583632e-07)) ((-1.255453e-11 2.646165e-12 -6.586114e-13) (1.610194e-07 1.936655e-12 -2.040261e-11))
6.808528      	((-9.220551e-11 2.080123e-06 -2.176577e-06) (-8.319615e-12 4.000160e-06 -1.702020e-07)) ((-1.189158e-11 2.419781e-12 -5.667765e-13) (1.479713e-07 1.868802e-12 -2.311933e-11))
8.182233      	((-1.188515e-10 1.919643e-06 -2.188015e-06) (-1.381255e-11 3.685145e-06 -1.826935e-07)) ((-1.137078e-11 2.235652e-12 -4.849605e-13) (1.362980e-07 1.901819e-12 -2.518511e-11))
9.83068       	((-5.503730e-11 1.777544e-06 -2.194646e-06) (-3.597185e-11 3.402731e-06 -1.959093e-07)) ((-1.098099e-11 2.106046e-12 -4.396492e-13) (1.258356e-07 1.817936e-12 -2.503183e-11))
11.808816     	((-1.303205e-10 1.652111e-06 -2.197022e-06) (-7.755399e-11 3.148696e-06 -2.099524e-07)) ((-1.070476e-11 1.980943e-12 -4.283346e-13) (1.164263e-07 1.753351e-12 -2.260182e-11))
14.182579     	((-3.926818e-10 1.542311e-06 -2.195618e-06) (-1.217712e-10 2.919663e-06 -2.248706e-07)) ((-1.053627e-11 1.836955e-12 -4.216802e-13) (1.079419e-07 2.553669e-12 -1.908831e-11))
17.031095     	((-4.193161e-10 1.447619e-06 -2.190671e-06) (-1.502003e-10 2.713075e-06 -2.406370e-07)) ((-1.049625e-11 1.705066e-12 -4.220720e-13) (1.002834e-07 3.653497e-12 -1.408467e-11))
20.449314     	((-3.916983e-10 1.368238e-06 -2.182711e-06) (-1.690466e-10 2.527028e-06 -2.571330e-07)) ((-1.062081e-11 1.575022e-12 -4.340472e-13) (9.338036e-08 4.569785e-12 -8.265618e-12))
24.551176     	((-3.402712e-10 1.303278e-06 -2.172074e-06) (-1.773745e-10 2.360113e-06 -2.741417e-07)) ((-1.090741e-11 1.433661e-12 -4.617270e-13) (8.718372e-08 5.165137e-12 -3.181714e-12))
29.473411     	((-1.893074e-10 1.252302e-06 -2.157464e-06) (-1.702365e-10 2.211214e-06 -2.913974e-07)) ((-1.134860e-11 1.312138e-12 -5.018340e-13) (8.165439e-08 5.208072e-12 9.627154e-13))
35.380094     	((-5.692816e-11 1.214640e-06 -2.139983e-06) (-1.596772e-10 2.079249e-06 -3.086236e-07)) ((-1.192807e-11 1.191302e-12 -5.497747e-13) (7.675484e-08 5.097526e-12 5.222638e-12))
42.468112     	((9.483315e-11 1.189987e-06 -2.118736e-06) (-1.439210e-10 1.963149e-06 -3.255320e-07)) ((-1.266182e-11 1.089788e-12 -6.067409e-13) (7.244961e-08 4.566700e-12 1.048292e-11))
50.973735     	((3.333075e-10 1.177060e-06 -2.094677e-06) (-1.225882e-10 1.861913e-06 -3.418751e-07)) ((-1.354468e-11 9.954795e-13 -6.785242e-13) (6.870734e-08 2.874255e-12 1.666269e-11))
61.180482     	((5.713544e-10 1.175616e-06 -2.068022e-06) (-1.019856e-10 1.774692e-06 -3.574145e-07)) ((-1.459598e-11 9.168010e-13 -7.591512e-13) (6.550357e-08 3.133151e-13 2.337777e-11))
73.428578     	((8.591216e-10 1.184052e-06 -2.039887e-06) (-7.920851e-11 1.700710e-06 -3.719804e-07)) ((-1.578964e-11 8.455668e-13 -8.518355e-13) (6.281687e-08 -3.201711e-12 2.968072e-11))
88.126294     	((1.120611e-09 1.199907e-06 -2.009434e-06) (-5.534824e-11 1.639165e-06 -3.855846e-07)) ((-1.702880e-11 7.974849e-13 -9.548469e-13) (6.061658e-08 -7.194524e-12 3.552408e-11))
105.763553    	((1.469386e-09 1.221120e-06 -1.977429e-06) (-1.954160e-11 1.589126e-06 -3.980831e-07)) ((-1.824243e-11 7.847106e-13 -1.046794e-12) (5.885757e-08 -1.101773e-11 4.066211e-11))
126.472712    	((1.830858e-09 1.244314e-06 -1.943121e-06) (2.582278e-11 1.549631e-06 -4.088476e-07)) ((-1.927671e-11 7.960662e-13 -1.132244e-12) (5.748932e-08 -1.480813e-11 4.442595e-11))
150.234302    	((2.202925e-09 1.265156e-06 -1.906740e-06) (8.760379e-11 1.518736e-06 -4.172681e-07)) ((-2.005753e-11 8.208269e-13 -1.194965e-12) (5.642449e-08 -1.906486e-11 4.621160e-11))
177.035519    	((2.541989e-09 1.280533e-06 -1.867424e-06) (1.636790e-10 1.494140e-06 -4.232344e-07)) ((-2.064103e-11 8.480124e-13 -1.235363e-12) (5.557099e-08 -2.364450e-11 4.666703e-11))
206.874738    	((2.832798e-09 1.290032e-06 -1.826679e-06) (2.511501e-10 1.473873e-06 -4.270193e-07)) ((-2.107268e-11 8.745957e-13 -1.265718e-12) (5.486743e-08 -2.792885e-11 4.630313e-11))
237.312929    	((3.066053e-09 1.296265e-06 -1.788002e-06) (3.453705e-10 1.457218e-06 -4.293649e-07)) ((-2.139595e-11 9.037641e-13 -1.294594e-12) (5.429227e-08 -3.189148e-11 4.526502e-11))
267.813972    	((3.179939e-09 1.299186e-06 -1.752243e-06) (4.363276e-10 1.443131e-06 -4.309344e-07)) ((-2.161661e-11 9.488502e-13 -1.316479e-12) (5.381255e-08 -3.510345e-11 4.384237e-11))
298.354515    	((3.240313e-09 1.300709e-06 -1.719215e-06) (5.168732e-10 1.431201e-06 -4.320950e-07)) ((-2.176701e-11 1.004191e-12 -1.335820e-12) (5.341138e-08 -3.748259e-11 4.207786e-11))
328.919069    	((3.230489e-09 1.301474e-06 -1.689040e-06) (5.857148e-10 1.421073e-06 -4.330404e-07)) ((-2.186621e-11 1.061409e-12 -1.352429e-12) (5.307366e-08 -3.912105e-11 3.994778e-11))
359.503754    	((3.185321e-09 1.301736e-06 -1.661416e-06) (6.419729e-10 1.412462e-06 -4.338561e-07)) ((-2.193424e-11 1.117527e-12 -1.365483e-12) (5.278821e-08 -4.005575e-11 3.756963e-11))
390.107787    	((3.101683e-09 1.301651e-06 -1.636427e-06) (6.808568e-10 1.405125e-06 -4.345782e-07)) ((-2.198235e-11 1.170064e-12 -1.375785e-12) (5.254604e-08 -4.032716e-11 3.528444e-11))
420.729398    	((2.995777e-09 1.301309e-06 -1.613942e-06) (7.053252e-10 1.398850e-06 -4.352329e-07)) ((-2.201512e-11 1.219053e-12 -1.384128e-12) (5.233979e-08 -4.007581e-11 3.311981e-11))
451.366201    	((2.875759e-09 1.300869e-06 -1.593794e-06) (7.208639e-10 1.393471e-06 -4.358334e-07)) ((-2.203782e-11 1.263649e-12 -1.390662e-12) (5.216347e-08 -3.942095e-11 3.104332e-11))
482.01611     	((2.747117e-09 1.300369e-06 -1.575642e-06) (7.285670e-10 1.388852e-06 -4.363872e-07)) ((-2.205399e-11 1.304649e-12 -1.396520e-12) (5.201232e-08 -3.852724e-11 2.903809e-11))
512.677387    	((2.600948e-09 1.299840e-06 -1.559188e-06) (7.285180e-10 1.384876e-06 -4.368936e-07)) ((-2.206625e-11 1.342842e-12 -1.401647e-12) (5.188243e-08 -3.737485e-11 2.705513e-11))
543.348534    	((2.450735e-09 1.299327e-06 -1.544222e-06) (7.216781e-10 1.381447e-06 -4.373504e-07)) ((-2.207498e-11 1.378011e-12 -1.405731e-12) (5.177069e-08 -3.599114e-11 2.514691e-11))
574.028254    	((2.299240e-09 1.298840e-06 -1.530639e-06) (7.086319e-10 1.378485e-06 -4.377605e-07)) ((-2.208202e-11 1.410596e-12 -1.409171e-12) (5.167440e-08 -3.449449e-11 2.339387e-11))
604.715433    	((2.147429e-09 1.298379e-06 -1.518354e-06) (6.904487e-10 1.375921e-06 -4.381273e-07)) ((-2.208739e-11 1.440251e-12 -1.412155e-12) (5.159123e-08 -3.287987e-11 2.173153e-11))
635.409106    	((2.000261e-09 1.297942e-06 -1.507289e-06) (6.693585e-10 1.373697e-06 -4.384543e-07)) ((-2.209137e-11 1.467397e-12 -1.414782e-12) (5.151923e-08 -3.118712e-11 2.012422e-11))
666.108432    	((1.854513e-09 1.297533e-06 -1.497338e-06) (6.458556e-10 1.371765e-06 -4.387441e-07)) ((-2.209429e-11 1.491623e-12 -1.416938e-12) (5.145679e-08 -2.945605e-11 1.860147e-11))
696.812679    	((1.719494e-09 1.297152e-06 -1.488379e-06) (6.207318e-10 1.370083e-06 -4.390004e-07)) ((-2.209666e-11 1.513611e-12 -1.418951e-12) (5.140254e-08 -2.772909e-11 1.716177e-11))
727.521215    	((1.590661e-09 1.296801e-06 -1.480337e-06) (5.945757e-10 1.368617e-06 -4.392263e-07)) ((-2.209847e-11 1.533391e-12 -1.420918e-12) (5.135532e-08 -2.602029e-11 1.582665e-11))
758.23349     	((1.472930e-09 1.296477e-06 -1.473113e-06) (5.683711e-10 1.367338e-06 -4.394253e-07)) ((-2.209968e-11 1.551229e-12 -1.422627e-12) (5.131415e-08 -2.436180e-11 1.459518e-11))
788.949027    	((1.364176e-09 1.296184e-06 -1.466645e-06) (5.426197e-10 1.366219e-06 -4.396002e-07)) ((-2.210062e-11 1.567426e-12 -1.424060e-12) (5.127821e-08 -2.278303e-11 1.346449e-11))
819.667414    	((1.269118e-09 1.295920e-06 -1.460856e-06) (5.179929e-10 1.365242e-06 -4.397537e-07)) ((-2.210117e-11 1.581877e-12 -1.425332e-12) (5.124682e-08 -2.130147e-11 1.244131e-11))
850.388291    	((1.182895e-09 1.295680e-06 -1.455676e-06) (4.942972e-10 1.364386e-06 -4.398881e-07)) ((-2.210181e-11 1.594845e-12 -1.426464e-12) (5.121937e-08 -1.992849e-11 1.154061e-11))
881.111349    	((1.106533e-09 1.295462e-06 -1.451045e-06) (4.725742e-10 1.363636e-06 -4.400055e-07)) ((-2.210230e-11 1.606533e-12 -1.427397e-12) (5.119533e-08 -1.866744e-11 1.072836e-11))
911.836317    	((1.039112e-09 1.295267e-06 -1.446911e-06) (4.526932e-10 1.362979e-06 -4.401083e-07)) ((-2.210272e-11 1.616943e-12 -1.428195e-12) (5.117425e-08 -1.752142e-11 9.995537e-12))
942.56296     	((9.797798e-10 1.295092e-06 -1.443229e-06) (4.346408e-10 1.362401e-06 -4.401981e-07)) ((-2.210301e-11 1.626240e-12 -1.428878e-12) (5.115577e-08 -1.648486e-11 9.336653e-12))
973.291075    	((9.282283e-10 1.294932e-06 -1.439940e-06) (4.184614e-10 1.361894e-06 -4.402768e-07)) ((-2.210321e-11 1.634518e-12 -1.429467e-12) (5.113954e-08 -1.555384e-11 8.749086e-12))
1004.020484   	((8.834842e-10 1.294791e-06 -1.437014e-06) (4.040843e-10 1.361448e-06 -4.403454e-07)) ((-2.210341e-11 1.641915e-12 -1.429990e-12) (5.112528e-08 -1.472397e-11 8.225418e-12))
1034.75103    	((8.449617e-10 1.294664e-06 -1.434407e-06) (3.913812e-10 1.361056e-06 -4.404055e-07)) ((-2.210360e-11 1.648555e-12 -1.430458e-12) (5.111274e-08 -1.398881e-11 7.761526e-12))
1065.48258    	((8.101028e-10 1.294551e-06 -1.432089e-06) (3.800979e-10 1.360711e-06 -4.404578e-07)) ((-2.210381e-11 1.654458e-12 -1.430870e-12) (5.110172e-08 -1.333445e-11 7.350073e-12))
1096.215013   	((7.805598e-10 1.294451e-06 -1.430027e-06) (3.702260e-10 1.360407e-06 -4.405035e-07)) ((-2.210400e-11 1.659747e-12 -1.431231e-12) (5.109203e-08 -1.275795e-11 6.983629e-12))
1126.948224   	((7.554221e-10 1.294359e-06 -1.428193e-06) (3.616870e-10 1.360140e-06 -4.405434e-07)) ((-2.210411e-11 1.664479e-12 -1.431545e-12) (5.108348e-08 -1.225551e-11 6.657707e-12))
1157.682123   	((7.325559e-10 1.294278e-06 -1.426560e-06) (3.542274e-10 1.359904e-06 -4.405784e-07)) ((-2.210425e-11 1.668667e-12 -1.431823e-12) (5.107595e-08 -1.181170e-11 6.367319e-12))
1188.416629   	((7.127810e-10 1.294205e-06 -1.425114e-06) (3.477119e-10 1.359696e-06 -4.406090e-07)) ((-2.210438e-11 1.672376e-12 -1.432063e-12) (5.106931e-08 -1.142050e-11 6.110792e-12))
1219.15167    	((6.951314e-10 1.294140e-06 -1.423829e-06) (3.420584e-10 1.359512e-06 -4.406357e-07)) ((-2.210455e-11 1.675706e-12 -1.432272e-12) (5.106346e-08 -1.107690e-11 5.881176e-12))
1249.887185   	((6.795442e-10 1.294083e-06 -1.422690e-06) (3.371744e-10 1.359350e-06 -4.406591e-07)) ((-2.210472e-11 1.678660e-12 -1.432452e-12) (5.105829e-08 -1.077394e-11 5.673172e-12))
1280.623118   	((6.653784e-10 1.294032e-06 -1.421679e-06) (3.328998e-10 1.359207e-06 -4.406796e-07)) ((-2.210485e-11 1.681281e-12 -1.432616e-12) (5.105373e-08 -1.050583e-11 5.486634e-12))
1311.35942    	((6.525771e-10 1.293986e-06 -1.420782e-06) (3.291202e-10 1.359081e-06 -4.406975e-07)) ((-2.210497e-11 1.683602e-12 -1.432756e-12) (5.104971e-08 -1.026774e-11 5.320105e-12))
1342.096047   	((6.409404e-10 1.293945e-06 -1.419985e-06) (3.257592e-10 1.358969e-06 -4.407132e-07)) ((-2.210509e-11 1.685663e-12 -1.432883e-12) (5.104615e-08 -1.005584e-11 5.170935e-12))
1372.832962   	((6.303411e-10 1.293909e-06 -1.419280e-06) (3.227536e-10 1.358871e-06 -4.407269e-07)) ((-2.210520e-11 1.687479e-12 -1.432996e-12) (5.104302e-08 -9.866142e-12 5.037186e-12))
1403.570131   	((6.206106e-10 1.293877e-06 -1.418654e-06) (3.200446e-10 1.358784e-06 -4.407389e-07)) ((-2.210531e-11 1.689090e-12 -1.433096e-12) (5.104024e-08 -9.695616e-12 4.917334e-12))
1434.307524   	((6.117207e-10 1.293848e-06 -1.418099e-06) (3.175876e-10 1.358707e-06 -4.407494e-07)) ((-2.210541e-11 1.690510e-12 -1.433182e-12) (5.103779e-08 -9.541845e-12 4.809740e-12))
1465.045114   	((6.035430e-10 1.293822e-06 -1.417608e-06) (3.153524e-10 1.358639e-06 -4.407585e-07)) ((-2.210550e-11 1.691768e-12 -1.433260e-12) (5.103563e-08 -9.402534e-12 4.712898e-12))
1495.782878   	((5.962400e-10 1.293801e-06 -1.417173e-06) (3.133109e-10 1.358579e-06 -4.407665e-07)) ((-2.210560e-11 1.692879e-12 -1.433330e-12) (5.103372e-08 -9.276111e-12 4.625831e-12))
1526.520796   	((5.894239e-10 1.293781e-06 -1.416787e-06) (3.114417e-10 1.358527e-06 -4.407735e-07)) ((-2.210568e-11 1.693859e-12 -1.433392e-12) (5.103203e-08 -9.161263e-12 4.547643e-12))
1557.258849   	((5.831819e-10 1.293763e-06 -1.416446e-06) (3.097285e-10 1.358480e-06 -4.407797e-07)) ((-2.210575e-11 1.694724e-12 -1.433446e-12) (5.103053e-08 -9.056670e-12 4.477295e-12))
1587.997022   	((5.775929e-10 1.293748e-06 -1.416145e-06) (3.081529e-10 1.358438e-06 -4.407850e-07)) ((-2.210582e-11 1.695485e-12 -1.433495e-12) (5.102921e-08 -8.961506e-12 4.414181e-12))
1618.7353     	((5.724844e-10 1.293734e-06 -1.415877e-06) (3.067109e-10 1.358402e-06 -4.407898e-07)) ((-2.210587e-11 1.696162e-12 -1.433536e-12) (5.102805e-08 -8.875021e-12 4.357446e-12))
1649.47367    	((5.678379e-10 1.293721e-06 -1.415641e-06) (3.053904e-10 1.358370e-06 -4.407939e-07)) ((-2.210593e-11 1.696756e-12 -1.433573e-12) (5.102702e-08 -8.796395e-12 4.306344e-12))
1680.212122   	((5.636876e-10 1.293710e-06 -1.415431e-06) (3.041856e-10 1.358341e-06 -4.407975e-07)) ((-2.210597e-11 1.697285e-12 -1.433605e-12) (5.102610e-08 -8.725076e-12 4.260603e-12))
1710.950646   	((5.599937e-10 1.293700e-06 -1.415245e-06) (3.030875e-10 1.358316e-06 -4.408007e-07)) ((-2.210602e-11 1.697753e-12 -1.433634e-12) (5.102530e-08 -8.660579e-12 4.219493e-12))
1741.689233   	((5.566536e-10 1.293692e-06 -1.415080e-06) (3.020943e-10 1.358293e-06 -4.408035e-07)) ((-2.210606e-11 1.698166e-12 -1.433660e-12) (5.102458e-08 -8.602340e-12 4.182624e-12))
1772.427876   	((5.536301e-10 1.293684e-06 -1.414932e-06) (3.011971e-10 1.358274e-06 -4.408059e-07)) ((-2.210610e-11 1.698536e-12 -1.433682e-12) (5.102395e-08 -8.549846e-12 4.149616e-12))
1803.166569   	((5.510247e-10 1.293678e-06 -1.414804e-06) (3.003877e-10 1.358256e-06 -4.408081e-07)) ((-2.210613e-11 1.698857e-12 -1.433702e-12) (5.102339e-08 -8.502780e-12 4.120043e-12))
