# Forces      
# CofR        : (0.000000e+00 0.000000e+00 0.000000e+00)
# Time        forces(pressure viscous)	moments(pressure viscous)
0             	((0.000000e+00 0.000000e+00 0.000000e+00) (0.000000e+00 0.000000e+00 0.000000e+00)) ((0.000000e+00 0.000000e+00 0.000000e+00) (0.000000e+00 0.000000e+00 0.000000e+00))
0.012         	((7.715792e-12 -2.880729e-07 -4.666032e-08) (7.735796e-14 -6.626541e-07 -2.227075e-13)) ((-4.208114e-11 -1.523879e-13 3.854543e-13) (-4.409669e-08 -4.129036e-15 -7.122031e-14))
0.0264        	((1.686719e-10 -3.871968e-07 -9.883621e-08) (3.788321e-13 -6.069947e-07 -6.595169e-13)) ((1.910854e-11 -3.312106e-13 1.703135e-13) (-4.043660e-08 -1.039470e-14 -7.342522e-14))
0.04368       	((-1.292130e-10 -2.618170e-07 -5.362548e-08) (4.826594e-13 -5.495541e-07 -1.580732e-12)) ((1.419034e-11 -1.747184e-13 1.918284e-13) (-3.667042e-08 -3.244472e-15 -1.373613e-13))
0.064416      	((1.480321e-10 -2.960032e-07 -6.937441e-08) (6.550402e-13 -4.916013e-07 -2.921296e-12)) ((2.802328e-11 -2.314134e-13 1.206939e-13) (-3.288353e-08 8.338983e-15 -5.308398e-14))
0.0892992     	((-7.222535e-11 -2.185076e-07 -4.627502e-08) (6.593447e-13 -4.347909e-07 -5.128645e-12)) ((2.000017e-11 -1.527887e-13 8.015515e-14) (-2.918384e-08 1.927024e-14 1.615000e-13))
0.119159      	((5.431958e-11 -2.240792e-07 -5.022574e-08) (3.731190e-13 -3.809392e-07 -8.139530e-12)) ((2.449001e-11 -1.662353e-13 4.202091e-14) (-2.569268e-08 1.944049e-14 2.474220e-13))
0.154991      	((-3.588756e-11 -1.687582e-07 -3.586505e-08) (1.118757e-13 -3.317212e-07 -1.151205e-11)) ((1.711423e-11 -1.207431e-13 1.878662e-14) (-2.248443e-08 1.991025e-14 2.794901e-13))
0.197989      	((1.266948e-11 -1.665704e-07 -3.613041e-08) (7.449388e-15 -2.881649e-07 -1.525770e-11)) ((1.930176e-11 -1.216635e-13 2.817500e-14) (-1.964280e-08 1.815181e-14 2.959780e-13))
0.249587      	((-1.090000e-11 -1.293969e-07 -2.802731e-08) (-8.144740e-14 -2.510471e-07 -1.922098e-11)) ((1.382839e-11 -9.320461e-14 2.254934e-14) (-1.720285e-08 5.811414e-15 2.763464e-13))
0.311504      	((-4.179215e-12 -1.256071e-07 -2.716456e-08) (-1.562066e-13 -2.201874e-07 -2.278940e-11)) ((1.523025e-11 -9.250667e-14 4.070046e-14) (-1.516569e-08 -2.123901e-15 2.184460e-13))
0.385805      	((9.237491e-13 -1.012367e-07 -2.256943e-08) (-2.232576e-13 -1.946895e-07 -2.650621e-11)) ((1.135009e-11 -7.522751e-14 2.540790e-14) (-1.348066e-08 -9.695791e-15 1.230839e-13))
0.474966      	((-2.404765e-12 -9.812842e-08 -2.131699e-08) (-1.789716e-13 -1.735933e-07 -2.883769e-11)) ((1.232961e-11 -7.391198e-14 3.535301e-14) (-1.208903e-08 -6.732537e-15 4.141794e-14))
0.581959      	((5.376645e-12 -8.174731e-08 -1.836850e-08) (2.999953e-14 -1.558327e-07 -3.117355e-11)) ((9.505969e-12 -6.041861e-14 2.389004e-14) (-1.091654e-08 -6.152384e-15 4.444449e-14))
0.710351      	((-2.007015e-13 -7.920698e-08 -1.703898e-08) (1.582100e-13 -1.405751e-07 -3.155617e-11)) ((1.024381e-11 -5.965835e-14 3.674125e-14) (-9.912875e-09 4.908072e-15 3.956305e-14))
0.864421      	((9.449617e-12 -6.744184e-08 -1.508125e-08) (2.446066e-13 -1.271600e-07 -3.323701e-11)) ((8.243801e-12 -5.041708e-14 2.566629e-14) (-9.031080e-09 9.644451e-15 8.460173e-14))
1.049306      	((1.322123e-12 -6.488197e-08 -1.394886e-08) (2.380082e-13 -1.152188e-07 -3.355077e-11)) ((8.822837e-12 -4.903379e-14 2.149512e-14) (-8.249720e-09 1.809519e-14 1.450661e-13))
1.271167      	((7.358119e-12 -5.577545e-08 -1.249139e-08) (3.087051e-13 -1.044454e-07 -3.593569e-11)) ((7.443217e-12 -4.299779e-14 9.423484e-17) (-7.545531e-09 3.500096e-14 1.683743e-13))
1.5374        	((6.764117e-12 -5.302681e-08 -1.148595e-08) (4.419719e-13 -9.471977e-08 -3.390072e-11)) ((7.761339e-12 -4.126817e-14 -2.649424e-15) (-6.910629e-09 6.568561e-14 1.420392e-13))
1.85688       	((5.894120e-12 -4.593742e-08 -1.039236e-08) (6.416956e-13 -8.593034e-08 -3.644682e-11)) ((6.751551e-12 -3.747937e-14 -1.384159e-14) (-6.338090e-09 1.087614e-13 1.511495e-13))
2.240256      	((5.842985e-12 -4.307332e-08 -9.658835e-09) (1.198786e-12 -7.803416e-08 -3.651409e-11)) ((6.847444e-12 -3.568346e-14 -1.111245e-14) (-5.823238e-09 1.617280e-13 2.247824e-13))
2.700307      	((1.603489e-12 -3.777094e-08 -8.910281e-09) (1.578911e-12 -7.105064e-08 -3.879451e-11)) ((6.134647e-12 -3.314726e-14 -1.734666e-14) (-5.368291e-09 2.202038e-13 2.936857e-13))
3.252369      	((9.842041e-12 -3.515433e-08 -8.394428e-09) (1.529192e-12 -6.488338e-08 -4.390488e-11)) ((6.147762e-12 -3.202853e-14 -1.311493e-14) (-4.966163e-09 2.802080e-13 3.020085e-13))
3.914842      	((-4.827369e-13 -3.135438e-08 -7.827750e-09) (1.298203e-12 -5.945904e-08 -4.529484e-11)) ((5.736275e-12 -2.880411e-14 -1.362220e-14) (-4.613477e-09 3.459965e-13 2.382575e-13))
4.709811      	((2.802908e-12 -2.901064e-08 -7.403198e-09) (5.462450e-13 -5.468429e-08 -4.721029e-11)) ((5.683828e-12 -2.787245e-14 -1.211239e-14) (-4.303647e-09 3.838582e-13 1.484046e-13))
5.663773      	((8.363237e-13 -2.623802e-08 -6.887720e-09) (1.711649e-13 -5.044881e-08 -5.139492e-11)) ((5.414269e-12 -2.457757e-14 -1.292789e-14) (-4.029616e-09 4.054007e-13 6.472776e-14))
6.808528      	((7.150927e-12 -2.419544e-08 -6.429429e-09) (9.167691e-13 -4.665143e-08 -5.697024e-11)) ((5.295533e-12 -2.529959e-14 -1.295805e-14) (-3.784680e-09 4.089158e-13 -2.078442e-16))
8.182233      	((8.985741e-12 -2.204798e-08 -5.925909e-09) (1.485958e-12 -4.320602e-08 -6.200488e-11)) ((5.122392e-12 -2.275353e-14 -1.489976e-14) (-3.563597e-09 3.858294e-13 -2.530664e-14))
9.83068       	((8.009751e-12 -2.022563e-08 -5.475055e-09) (2.037868e-12 -4.005337e-08 -6.542943e-11)) ((4.993946e-12 -2.288815e-14 -1.488308e-14) (-3.362399e-09 3.448737e-13 -2.318328e-14))
11.808816     	((6.254112e-12 -1.849602e-08 -5.059793e-09) (2.618692e-12 -3.716054e-08 -6.848649e-11)) ((4.865652e-12 -2.038278e-14 -1.544588e-14) (-3.179036e-09 2.924754e-13 -2.932827e-14))
14.182579     	((7.092952e-12 -1.698658e-08 -4.745577e-09) (2.628041e-12 -3.450362e-08 -7.359850e-11)) ((4.740961e-12 -2.075434e-14 -1.544077e-14) (-3.011569e-09 2.445187e-13 6.516702e-16))
17.031095     	((6.028275e-12 -1.557150e-08 -4.487540e-09) (2.614337e-12 -3.206107e-08 -7.731329e-11)) ((4.643897e-12 -1.869737e-14 -1.579154e-14) (-2.858972e-09 2.404816e-13 2.443688e-14))
20.449314     	((6.657106e-12 -1.430913e-08 -4.322702e-09) (2.449063e-12 -2.982094e-08 -7.932696e-11)) ((4.547649e-12 -1.867789e-14 -1.624354e-14) (-2.720039e-09 2.083160e-13 1.632954e-14))
24.551176     	((5.116382e-12 -1.312157e-08 -4.187443e-09) (2.188838e-12 -2.777029e-08 -7.890197e-11)) ((4.477434e-12 -1.803992e-14 -1.657824e-14) (-2.593794e-09 1.678730e-13 -1.086234e-14))
29.473411     	((3.826484e-12 -1.205274e-08 -4.046305e-09) (1.987549e-12 -2.589739e-08 -7.765032e-11)) ((4.410523e-12 -1.783732e-14 -1.697374e-14) (-2.479208e-09 1.487387e-13 -1.114570e-14))
35.380094     	((2.360255e-12 -1.106099e-08 -3.912074e-09) (2.310663e-12 -2.418779e-08 -7.521600e-11)) ((4.357629e-12 -1.722886e-14 -1.731691e-14) (-2.375111e-09 1.391523e-13 -3.139594e-14))
42.468112     	((2.678426e-12 -1.017174e-08 -3.781734e-09) (2.562149e-12 -2.262502e-08 -7.321553e-11)) ((4.308004e-12 -1.677988e-14 -1.743681e-14) (-2.280370e-09 1.413703e-13 -6.466431e-14))
50.973735     	((2.717751e-12 -9.343803e-09 -3.655881e-09) (2.672935e-12 -2.119597e-08 -7.353285e-11)) ((4.266700e-12 -1.646074e-14 -1.742200e-14) (-2.194143e-09 1.181748e-13 -8.895584e-14))
61.180482     	((3.145573e-12 -8.599440e-09 -3.545761e-09) (2.720293e-12 -1.989090e-08 -7.431641e-11)) ((4.228467e-12 -1.630886e-14 -1.749159e-14) (-2.115859e-09 1.025976e-13 -1.108615e-13))
73.428578     	((2.212027e-12 -7.922004e-09 -3.442159e-09) (2.459345e-12 -1.870157e-08 -7.472146e-11)) ((4.196885e-12 -1.605810e-14 -1.731670e-14) (-2.045023e-09 1.031281e-13 -1.212095e-13))
88.126294     	((1.129541e-12 -7.311370e-09 -3.344961e-09) (2.127940e-12 -1.761993e-08 -7.450894e-11)) ((4.169389e-12 -1.574917e-14 -1.724933e-14) (-1.981117e-09 1.020682e-13 -1.330583e-13))
105.763553    	((2.689025e-13 -6.769038e-09 -3.255064e-09) (1.776819e-12 -1.663825e-08 -7.351167e-11)) ((4.146810e-12 -1.527355e-14 -1.720641e-14) (-1.923649e-09 1.083815e-13 -1.500059e-13))
126.928263    	((-2.317925e-13 -6.280860e-09 -3.187774e-09) (1.540655e-12 -1.574986e-08 -7.234222e-11)) ((4.127589e-12 -1.510506e-14 -1.710747e-14) (-1.872109e-09 1.203232e-13 -1.672680e-13))
152.325916    	((-4.173933e-13 -5.846720e-09 -3.135061e-09) (1.352548e-12 -1.494706e-08 -7.184687e-11)) ((4.112206e-12 -1.495028e-14 -1.708010e-14) (-1.825948e-09 1.256452e-13 -1.812625e-13))
182.803099    	((-2.488071e-13 -5.463257e-09 -3.082216e-09) (1.318035e-12 -1.422303e-08 -7.213446e-11)) ((4.099064e-12 -1.483308e-14 -1.697253e-14) (-1.784670e-09 1.264314e-13 -1.898842e-13))
219.375719    	((-1.942886e-13 -5.126498e-09 -3.038736e-09) (1.343007e-12 -1.357053e-08 -7.409163e-11)) ((4.088257e-12 -1.487883e-14 -1.671480e-14) (-1.747802e-09 1.198563e-13 -2.026520e-13))
263.262863    	((-2.413668e-13 -4.827272e-09 -3.006932e-09) (1.357691e-12 -1.298324e-08 -7.813933e-11)) ((4.079803e-12 -1.476354e-14 -1.647531e-14) (-1.714925e-09 1.169545e-13 -2.137636e-13))
315.927436    	((-1.776388e-13 -4.565743e-09 -2.985206e-09) (1.159767e-12 -1.245576e-08 -8.381433e-11)) ((4.073110e-12 -1.476309e-14 -1.637221e-14) (-1.685681e-09 1.211625e-13 -2.145438e-13))
379.124923    	((-1.930406e-13 -4.339263e-09 -2.959576e-09) (1.024392e-12 -1.198351e-08 -9.086005e-11)) ((4.067726e-12 -1.480709e-14 -1.648242e-14) (-1.659750e-09 1.124045e-13 -2.119732e-13))
454.961908    	((-2.217753e-13 -4.145238e-09 -2.947536e-09) (9.280799e-13 -1.156329e-08 -9.948029e-11)) ((4.063461e-12 -1.473346e-14 -1.656548e-14) (-1.636887e-09 1.040938e-13 -2.087902e-13))
545.966289    	((-1.415946e-13 -3.981125e-09 -2.948768e-09) (8.673134e-13 -1.119209e-08 -1.092250e-10)) ((4.060053e-12 -1.465654e-14 -1.661564e-14) (-1.616883e-09 9.473290e-14 -2.090775e-13))
655.171547    	((3.921033e-14 -3.845366e-09 -2.952860e-09) (7.452504e-13 -1.086737e-08 -1.194536e-10)) ((4.057147e-12 -1.457671e-14 -1.665846e-14) (-1.599539e-09 8.967865e-14 -2.102649e-13))
786.217856    	((-3.908590e-14 -3.733823e-09 -2.959434e-09) (6.060176e-13 -1.058678e-08 -1.299195e-10)) ((4.054681e-12 -1.456846e-14 -1.672828e-14) (-1.584675e-09 8.837552e-14 -2.095854e-13))
943.473427    	((-1.435796e-13 -3.643192e-09 -2.967727e-09) (4.615851e-13 -1.034777e-08 -1.405170e-10)) ((4.052849e-12 -1.453973e-14 -1.678093e-14) (-1.572087e-09 9.056671e-14 -2.051760e-13))
1132.180113   	((-2.386692e-13 -3.570150e-09 -2.977759e-09) (3.419136e-13 -1.014727e-08 -1.512805e-10)) ((4.051487e-12 -1.452314e-14 -1.682124e-14) (-1.561568e-09 9.195757e-14 -1.977309e-13))
1358.628135   	((-3.195622e-13 -3.512004e-09 -2.988927e-09) (2.737254e-13 -9.981845e-09 -1.619732e-10)) ((4.050473e-12 -1.454977e-14 -1.685920e-14) (-1.552903e-09 9.164319e-14 -1.881890e-13))
1630.365763   	((-2.980355e-13 -3.466421e-09 -2.999869e-09) (2.202812e-13 -9.847684e-09 -1.722291e-10)) ((4.049728e-12 -1.456581e-14 -1.689712e-14) (-1.545868e-09 9.117581e-14 -1.791078e-13))
1956.450915   	((-2.879499e-13 -3.431130e-09 -3.010479e-09) (1.937608e-13 -9.740748e-09 -1.817370e-10)) ((4.049175e-12 -1.454949e-14 -1.693342e-14) (-1.540239e-09 9.071746e-14 -1.717715e-13))
2347.753098   	((-3.309016e-13 -3.404029e-09 -3.019894e-09) (1.884366e-13 -9.656921e-09 -1.902951e-10)) ((4.048689e-12 -1.454402e-14 -1.696821e-14) (-1.535796e-09 8.993331e-14 -1.664269e-13))
2817.315718   	((-4.307889e-13 -3.383267e-09 -3.028116e-09) (1.823962e-13 -9.592259e-09 -1.977567e-10)) ((4.048273e-12 -1.454783e-14 -1.699835e-14) (-1.532334e-09 8.868802e-14 -1.620320e-13))
3373.775885   	((-4.791552e-13 -3.367560e-09 -3.034850e-09) (1.719787e-13 -9.543129e-09 -2.040812e-10)) ((4.047918e-12 -1.455107e-14 -1.701276e-14) (-1.529667e-09 8.766952e-14 -1.587939e-13))
4017.131174   	((-5.264894e-13 -3.355689e-09 -3.040364e-09) (1.572021e-13 -9.506303e-09 -2.092795e-10)) ((4.047644e-12 -1.455095e-14 -1.702135e-14) (-1.527636e-09 8.708673e-14 -1.561623e-13))
4747.379554   	((-5.426897e-13 -3.346805e-09 -3.044639e-09) (1.434527e-13 -9.479023e-09 -2.134305e-10)) ((4.047440e-12 -1.455460e-14 -1.702705e-14) (-1.526102e-09 8.694209e-14 -1.542060e-13))
5564.519554   	((-5.547716e-13 -3.340124e-09 -3.048073e-09) (1.316259e-13 -9.458998e-09 -2.166675e-10)) ((4.047282e-12 -1.455806e-14 -1.703408e-14) (-1.524951e-09 8.692733e-14 -1.528211e-13))
6433.425703   	((-5.624629e-13 -3.335107e-09 -3.050604e-09) (1.227615e-13 -9.444422e-09 -2.191350e-10)) ((4.047197e-12 -1.456048e-14 -1.704078e-14) (-1.524092e-09 8.696694e-14 -1.518827e-13))
7302.32539    	((-5.705197e-13 -3.331327e-09 -3.052588e-09) (1.142691e-13 -9.433882e-09 -2.209758e-10)) ((4.047189e-12 -1.456262e-14 -1.704580e-14) (-1.523454e-09 8.713558e-14 -1.512079e-13))
8171.221337   	((-5.763258e-13 -3.328481e-09 -3.054172e-09) (1.077224e-13 -9.426284e-09 -2.223290e-10)) ((4.047192e-12 -1.456527e-14 -1.704941e-14) (-1.522981e-09 8.730490e-14 -1.507087e-13))
9040.115299   	((-5.821473e-13 -3.326318e-09 -3.055325e-09) (1.025755e-13 -9.420813e-09 -2.233138e-10)) ((4.047197e-12 -1.456798e-14 -1.705183e-14) (-1.522629e-09 8.739956e-14 -1.503279e-13))
9909.008276   	((-5.884799e-13 -3.324660e-09 -3.056150e-09) (9.821876e-14 -9.416871e-09 -2.240258e-10)) ((4.047201e-12 -1.457007e-14 -1.705357e-14) (-1.522367e-09 8.748859e-14 -1.500540e-13))
10777.900852  	((-5.938123e-13 -3.323399e-09 -3.056860e-09) (9.468216e-14 -9.414030e-09 -2.245374e-10)) ((4.047205e-12 -1.457230e-14 -1.705492e-14) (-1.522170e-09 8.756199e-14 -1.498724e-13))
11646.793372  	((-5.980556e-13 -3.322428e-09 -3.057414e-09) (9.172465e-14 -9.411978e-09 -2.249039e-10)) ((4.047207e-12 -1.457442e-14 -1.705569e-14) (-1.522022e-09 8.760877e-14 -1.497319e-13))
12515.686029  	((-6.032682e-13 -3.321681e-09 -3.057835e-09) (8.926707e-14 -9.410493e-09 -2.251653e-10)) ((4.047210e-12 -1.457596e-14 -1.705606e-14) (-1.521911e-09 8.765409e-14 -1.496351e-13))
13384.578922  	((-6.085234e-13 -3.321103e-09 -3.058173e-09) (8.727501e-14 -9.409414e-09 -2.253519e-10)) ((4.047211e-12 -1.457723e-14 -1.705637e-14) (-1.521826e-09 8.768585e-14 -1.495811e-13))
14253.472089  	((-6.132479e-13 -3.320655e-09 -3.058441e-09) (8.556350e-14 -9.408629e-09 -2.254853e-10)) ((4.047213e-12 -1.457824e-14 -1.705644e-14) (-1.521762e-09 8.770677e-14 -1.495485e-13))
15122.365537  	((-6.177760e-13 -3.320310e-09 -3.058652e-09) (8.421787e-14 -9.408056e-09 -2.255810e-10)) ((4.047214e-12 -1.457901e-14 -1.705670e-14) (-1.521713e-09 8.771443e-14 -1.495322e-13))
15991.259247  	((-6.224804e-13 -3.320042e-09 -3.058825e-09) (8.310257e-14 -9.407636e-09 -2.256502e-10)) ((4.047215e-12 -1.457965e-14 -1.705637e-14) (-1.521675e-09 8.771919e-14 -1.495277e-13))
16860.153196  	((-6.264036e-13 -3.319835e-09 -3.058956e-09) (8.226811e-14 -9.407329e-09 -2.257002e-10)) ((4.047216e-12 -1.458025e-14 -1.705641e-14) (-1.521646e-09 8.772093e-14 -1.495372e-13))
17729.047351  	((-6.302905e-13 -3.319673e-09 -3.059097e-09) (8.148838e-14 -9.407102e-09 -2.257365e-10)) ((4.047217e-12 -1.458086e-14 -1.705643e-14) (-1.521623e-09 8.772572e-14 -1.495393e-13))
18597.941685  	((-6.344294e-13 -3.319545e-09 -3.059148e-09) (8.090356e-14 -9.406935e-09 -2.257631e-10)) ((4.047218e-12 -1.458119e-14 -1.705642e-14) (-1.521605e-09 8.772896e-14 -1.495423e-13))
19466.836168  	((-6.312165e-13 -3.319444e-09 -3.059242e-09) (8.021195e-14 -9.406810e-09 -2.257825e-10)) ((4.047218e-12 -1.458158e-14 -1.705627e-14) (-1.521592e-09 8.774008e-14 -1.495443e-13))
20335.730777  	((-6.220727e-13 -3.319362e-09 -3.059270e-09) (7.978704e-14 -9.406718e-09 -2.257969e-10)) ((4.047219e-12 -1.458167e-14 -1.705622e-14) (-1.521581e-09 8.774485e-14 -1.495507e-13))
21204.625489  	((-6.185382e-13 -3.319302e-09 -3.059383e-09) (7.952271e-14 -9.406649e-09 -2.258078e-10)) ((4.047219e-12 -1.458207e-14 -1.705618e-14) (-1.521573e-09 8.774589e-14 -1.495573e-13))
22073.520285  	((-6.207006e-13 -3.319252e-09 -3.059379e-09) (7.939998e-14 -9.406598e-09 -2.258162e-10)) ((4.047219e-12 -1.458215e-14 -1.705627e-14) (-1.521566e-09 8.774244e-14 -1.495677e-13))
22942.41515   	((-6.234540e-13 -3.319213e-09 -3.059397e-09) (7.920808e-14 -9.406559e-09 -2.258223e-10)) ((4.047220e-12 -1.458231e-14 -1.705626e-14) (-1.521561e-09 8.774212e-14 -1.495761e-13))
23811.31007   	((-6.258328e-13 -3.319181e-09 -3.059410e-09) (7.905162e-14 -9.406530e-09 -2.258270e-10)) ((4.047220e-12 -1.458243e-14 -1.705625e-14) (-1.521557e-09 8.774203e-14 -1.495835e-13))
24680.205035  	((-6.276458e-13 -3.319153e-09 -3.059420e-09) (7.892782e-14 -9.406508e-09 -2.258305e-10)) ((4.047220e-12 -1.458254e-14 -1.705624e-14) (-1.521554e-09 8.773927e-14 -1.495897e-13))
25549.100037  	((-6.291858e-13 -3.319131e-09 -3.059428e-09) (7.880899e-14 -9.406491e-09 -2.258331e-10)) ((4.047220e-12 -1.458262e-14 -1.705622e-14) (-1.521551e-09 8.773836e-14 -1.495957e-13))
26417.995068  	((-6.304983e-13 -3.319115e-09 -3.059434e-09) (7.870531e-14 -9.406479e-09 -2.258352e-10)) ((4.047221e-12 -1.458269e-14 -1.705620e-14) (-1.521549e-09 8.773833e-14 -1.496011e-13))
27286.890122  	((-6.315229e-13 -3.319102e-09 -3.059438e-09) (7.861421e-14 -9.406469e-09 -2.258368e-10)) ((4.047221e-12 -1.458274e-14 -1.705619e-14) (-1.521547e-09 8.773870e-14 -1.496059e-13))
28155.785195  	((-6.321373e-13 -3.319092e-09 -3.059443e-09) (7.851083e-14 -9.406462e-09 -2.258381e-10)) ((4.047221e-12 -1.458278e-14 -1.705617e-14) (-1.521546e-09 8.774177e-14 -1.496107e-13))
29024.680284  	((-6.327241e-13 -3.319084e-09 -3.059446e-09) (7.845229e-14 -9.406456e-09 -2.258391e-10)) ((4.047221e-12 -1.458283e-14 -1.705616e-14) (-1.521545e-09 8.774221e-14 -1.496144e-13))
29893.575383  	((-6.336960e-13 -3.319078e-09 -3.059448e-09) (7.839206e-14 -9.406452e-09 -2.258400e-10)) ((4.047221e-12 -1.458283e-14 -1.705613e-14) (-1.521544e-09 8.774353e-14 -1.496187e-13))
30762.470493  	((-6.344121e-13 -3.319073e-09 -3.059449e-09) (7.836609e-14 -9.406449e-09 -2.258406e-10)) ((4.047221e-12 -1.458286e-14 -1.705612e-14) (-1.521544e-09 8.774317e-14 -1.496218e-13))
31631.36561   	((-6.351441e-13 -3.319068e-09 -3.059450e-09) (7.832248e-14 -9.406447e-09 -2.258411e-10)) ((4.047221e-12 -1.458287e-14 -1.705611e-14) (-1.521543e-09 8.774282e-14 -1.496241e-13))
32500.260733  	((-6.356240e-13 -3.319065e-09 -3.059451e-09) (7.826820e-14 -9.406445e-09 -2.258415e-10)) ((4.047221e-12 -1.458289e-14 -1.705611e-14) (-1.521543e-09 8.774346e-14 -1.496262e-13))
33369.155861  	((-6.360066e-13 -3.319062e-09 -3.059452e-09) (7.823497e-14 -9.406444e-09 -2.258418e-10)) ((4.047221e-12 -1.458290e-14 -1.705610e-14) (-1.521542e-09 8.774352e-14 -1.496282e-13))
34238.050993  	((-6.363203e-13 -3.319060e-09 -3.059453e-09) (7.821209e-14 -9.406443e-09 -2.258420e-10)) ((4.047221e-12 -1.458291e-14 -1.705610e-14) (-1.521542e-09 8.774335e-14 -1.496299e-13))
35106.946128  	((-6.360716e-13 -3.319058e-09 -3.059455e-09) (7.815651e-14 -9.406442e-09 -2.258421e-10)) ((4.047221e-12 -1.458293e-14 -1.705609e-14) (-1.521542e-09 8.774448e-14 -1.496312e-13))
35975.841266  	((-6.361675e-13 -3.319056e-09 -3.059456e-09) (7.812436e-14 -9.406441e-09 -2.258423e-10)) ((4.047221e-12 -1.458294e-14 -1.705609e-14) (-1.521542e-09 8.774461e-14 -1.496324e-13))
36844.736405  	((-6.366530e-13 -3.319055e-09 -3.059456e-09) (7.812653e-14 -9.406441e-09 -2.258424e-10)) ((4.047221e-12 -1.458294e-14 -1.705609e-14) (-1.521542e-09 8.774284e-14 -1.496337e-13))
37713.631546  	((-6.349647e-13 -3.319055e-09 -3.059457e-09) (7.809485e-14 -9.406440e-09 -2.258425e-10)) ((4.047221e-12 -1.458296e-14 -1.705606e-14) (-1.521541e-09 8.775047e-14 -1.496352e-13))
