# Forces      
# CofR        : (0.000000e+00 0.000000e+00 0.000000e+00)
# Time        forces(pressure viscous)	moments(pressure viscous)
0             	((0.000000e+00 0.000000e+00 0.000000e+00) (0.000000e+00 0.000000e+00 0.000000e+00)) ((0.000000e+00 0.000000e+00 0.000000e+00) (0.000000e+00 0.000000e+00 0.000000e+00))
0.012         	((2.650428e-11 -9.109730e-07 -1.475594e-07) (2.358646e-13 -2.095497e-06 -2.301710e-12)) ((-1.331073e-10 -4.824091e-13 1.219289e-12) (-1.394460e-07 -1.336490e-14 -2.251764e-13))
0.0264        	((5.367518e-10 -1.224423e-06 -3.125697e-07) (1.198861e-12 -1.919491e-06 -7.175392e-12)) ((6.037840e-11 -1.048515e-12 5.393733e-13) (-1.278721e-07 -3.434113e-14 -2.317087e-13))
0.04368       	((-4.060757e-10 -8.279373e-07 -1.696188e-07) (1.495382e-12 -1.737864e-06 -1.682040e-11)) ((4.480517e-11 -5.554230e-13 6.076197e-13) (-1.159637e-07 -1.113193e-14 -4.348449e-13))
0.064416      	((4.694941e-10 -9.360364e-07 -2.194534e-07) (2.021054e-12 -1.554642e-06 -3.163902e-11)) ((8.853336e-11 -7.363321e-13 3.829081e-13) (-1.039914e-07 2.310844e-14 -1.718855e-13))
0.0892992     	((-2.230727e-10 -6.909914e-07 -1.464386e-07) (1.998038e-12 -1.375066e-06 -5.306822e-11)) ((6.315340e-11 -4.882916e-13 2.538986e-13) (-9.229729e-08 5.699207e-14 5.047222e-13))
0.119159      	((1.745060e-10 -7.085859e-07 -1.589799e-07) (9.138180e-13 -1.204884e-06 -8.005197e-11)) ((7.733360e-11 -5.306302e-13 1.332543e-13) (-8.126543e-08 5.994704e-14 7.812964e-13))
0.154991      	((-1.085459e-10 -5.337651e-07 -1.135984e-07) (-2.009759e-13 -1.049396e-06 -1.118502e-10)) ((5.402024e-11 -3.889083e-13 5.959637e-14) (-7.113139e-08 6.451181e-14 8.879012e-13))
0.197989      	((4.261866e-11 -5.269051e-07 -1.145111e-07) (-5.855247e-13 -9.118108e-07 -1.488494e-10)) ((6.097083e-11 -3.906786e-13 8.967973e-14) (-6.215636e-08 5.955434e-14 9.473584e-13))
0.249587      	((-2.813671e-11 -4.094451e-07 -8.890934e-08) (-1.074150e-12 -7.945276e-07 -1.889922e-10)) ((4.369206e-11 -3.025463e-13 7.303589e-14) (-5.444817e-08 1.381205e-14 8.858180e-13))
0.311504      	((-1.089574e-11 -3.974749e-07 -8.626094e-08) (-1.141554e-12 -6.969857e-07 -2.262495e-10)) ((4.815710e-11 -2.994227e-13 1.306494e-13) (-4.800941e-08 -1.951814e-14 7.055853e-13))
0.385805      	((9.553756e-12 -3.204517e-07 -7.174848e-08) (-1.255420e-12 -6.163449e-07 -2.640848e-10)) ((3.591056e-11 -2.453969e-13 8.297983e-14) (-4.268034e-08 -5.642951e-14 3.983465e-13))
0.474966      	((-4.714287e-12 -3.105523e-07 -6.787249e-08) (-1.231417e-12 -5.495727e-07 -2.879804e-10)) ((3.903248e-11 -2.426140e-13 1.132806e-13) (-3.827519e-08 -3.815399e-14 1.293125e-13))
0.581959      	((2.428430e-11 -2.587571e-07 -5.854574e-08) (-6.232134e-13 -4.933175e-07 -3.130508e-10)) ((3.012994e-11 -1.979902e-13 7.680496e-14) (-3.456100e-08 -1.938621e-14 1.204011e-13))
0.710351      	((3.866347e-12 -2.506004e-07 -5.444834e-08) (-2.227325e-13 -4.449709e-07 -3.204648e-10)) ((3.247873e-11 -1.978726e-13 1.161347e-13) (-3.138008e-08 6.497164e-15 8.159413e-14))
0.864421      	((3.300592e-11 -2.134403e-07 -4.824241e-08) (1.600991e-13 -4.024651e-07 -3.392598e-10)) ((2.618770e-11 -1.672984e-13 8.027455e-14) (-2.858579e-08 1.789561e-14 2.075761e-13))
1.049306      	((1.168128e-11 -2.051756e-07 -4.478592e-08) (-8.864109e-13 -3.646342e-07 -3.416392e-10)) ((2.801623e-11 -1.635012e-13 6.698972e-14) (-2.610964e-08 1.858784e-14 4.216456e-13))
1.271167      	((2.904591e-11 -1.764571e-07 -4.018446e-08) (-5.490083e-13 -3.305183e-07 -3.663549e-10)) ((2.369326e-11 -1.423756e-13 2.147232e-16) (-2.387911e-08 8.022780e-14 5.145199e-13))
1.5374        	((2.956576e-11 -1.675643e-07 -3.718937e-08) (7.949983e-13 -2.997127e-07 -3.432099e-10)) ((2.467716e-11 -1.376677e-13 -8.523305e-15) (-2.186725e-08 2.018516e-13 4.737126e-13))
1.85688       	((2.749025e-11 -1.452779e-07 -3.374280e-08) (7.205291e-13 -2.718886e-07 -3.663145e-10)) ((2.153579e-11 -1.244807e-13 -4.296737e-14) (-2.005459e-08 3.382769e-13 5.036521e-13))
2.240256      	((1.803141e-11 -1.360209e-07 -3.160478e-08) (3.641753e-12 -2.468982e-07 -3.726487e-10)) ((2.180545e-11 -1.189207e-13 -3.458189e-14) (-1.842521e-08 4.857690e-13 7.289046e-13))
2.700307      	((8.470312e-12 -1.194066e-07 -2.926358e-08) (4.734905e-12 -2.248070e-07 -3.793946e-10)) ((1.960191e-11 -1.102102e-13 -5.401631e-14) (-1.698603e-08 6.606174e-13 9.341277e-13))
3.252369      	((3.830892e-11 -1.109969e-07 -2.777589e-08) (3.606846e-12 -2.053140e-07 -4.022314e-10)) ((1.960744e-11 -1.094480e-13 -4.187266e-14) (-1.571490e-08 8.409218e-13 9.370094e-13))
3.914842      	((1.807524e-12 -9.913457e-08 -2.598766e-08) (4.420045e-12 -1.881643e-07 -4.017458e-10)) ((1.834892e-11 -9.371341e-14 -4.294307e-14) (-1.459969e-08 1.009527e-12 7.160841e-13))
4.709811      	((5.218251e-12 -9.169953e-08 -2.479311e-08) (3.155917e-12 -1.730678e-07 -4.158663e-10)) ((1.813583e-11 -1.029342e-13 -3.913090e-14) (-1.362026e-08 1.111952e-12 3.281577e-13))
5.663773      	((9.067178e-12 -8.293249e-08 -2.322891e-08) (1.540974e-12 -1.596741e-07 -4.483949e-10)) ((1.731717e-11 -8.796981e-14 -4.057811e-14) (-1.275424e-08 1.241707e-12 2.167433e-14))
6.808528      	((2.776359e-11 -7.650575e-08 -2.187112e-08) (3.624181e-12 -1.476654e-07 -4.856520e-10)) ((1.689031e-11 -9.746099e-14 -4.152973e-14) (-1.197999e-08 1.363848e-12 -1.317523e-13))
8.182233      	((4.421854e-11 -6.967258e-08 -2.038389e-08) (6.286820e-12 -1.367688e-07 -5.308096e-10)) ((1.634681e-11 -8.850201e-14 -4.640012e-14) (-1.128115e-08 1.319511e-12 -1.470903e-13))
9.83068       	((4.244437e-11 -6.401733e-08 -1.905062e-08) (8.916333e-12 -1.268009e-07 -5.784817e-10)) ((1.591251e-11 -1.008738e-13 -4.800541e-14) (-1.064604e-08 1.008986e-12 -5.597087e-14))
11.808816     	((3.519740e-11 -5.849443e-08 -1.789185e-08) (1.052860e-11 -1.176497e-07 -6.302879e-10)) ((1.550870e-11 -8.929652e-14 -4.902805e-14) (-1.006703e-08 9.246419e-13 -4.917971e-14))
14.182579     	((3.243501e-11 -5.377675e-08 -1.704596e-08) (8.403738e-12 -1.092405e-07 -6.853925e-10)) ((1.514190e-11 -9.492482e-14 -4.906735e-14) (-9.537854e-09 9.255805e-13 2.354020e-14))
17.031095     	((3.114179e-11 -4.925725e-08 -1.637270e-08) (7.894225e-12 -1.015065e-07 -7.200037e-10)) ((1.483689e-11 -8.944719e-14 -4.956784e-14) (-9.054689e-09 9.047215e-13 1.497560e-13))
20.449314     	((2.624151e-11 -4.527074e-08 -1.599961e-08) (8.707206e-12 -9.440824e-08 -7.427206e-10)) ((1.454535e-11 -8.994215e-14 -5.139566e-14) (-8.614278e-09 8.178410e-13 1.970601e-13))
24.551176     	((2.177684e-11 -4.147454e-08 -1.572040e-08) (8.265679e-12 -8.791018e-08 -7.417910e-10)) ((1.431903e-11 -8.821797e-14 -5.258230e-14) (-8.213908e-09 7.465665e-13 1.166245e-13))
29.473411     	((1.525293e-11 -3.809052e-08 -1.542517e-08) (8.381664e-12 -8.197468e-08 -7.277889e-10)) ((1.411734e-11 -8.810600e-14 -5.363158e-14) (-7.850559e-09 7.659562e-13 -4.099337e-15))
35.380094     	((8.498065e-12 -3.497591e-08 -1.515445e-08) (8.780382e-12 -7.655997e-08 -7.104279e-10)) ((1.395371e-11 -8.769928e-14 -5.474475e-14) (-7.520838e-09 7.674560e-13 -7.995702e-14))
42.468112     	((1.261860e-11 -3.217780e-08 -1.494389e-08) (9.533562e-12 -7.161568e-08 -6.991398e-10)) ((1.380179e-11 -8.641780e-14 -5.484408e-14) (-7.221453e-09 7.126925e-13 -1.411830e-13))
50.973735     	((1.620164e-11 -2.956273e-08 -1.474362e-08) (1.016454e-11 -6.709958e-08 -6.992097e-10)) ((1.367553e-11 -8.652406e-14 -5.486973e-14) (-6.949560e-09 6.594189e-13 -1.822850e-13))
61.180482     	((1.444935e-11 -2.721868e-08 -1.456232e-08) (1.041191e-11 -6.297935e-08 -7.064763e-10)) ((1.356109e-11 -8.699059e-14 -5.509576e-14) (-6.703023e-09 5.383752e-13 -1.997141e-13))
73.428578     	((1.616122e-11 -2.508842e-08 -1.441496e-08) (9.599825e-12 -5.922646e-08 -7.136457e-10)) ((1.346605e-11 -8.731028e-14 -5.504820e-14) (-6.480107e-09 4.250144e-13 -2.379673e-13))
88.126294     	((1.431179e-11 -2.320315e-08 -1.428358e-08) (9.084184e-12 -5.581500e-08 -7.199166e-10)) ((1.338209e-11 -8.717039e-14 -5.457803e-14) (-6.279028e-09 3.731179e-13 -3.104288e-13))
105.763553    	((1.169968e-11 -2.151899e-08 -1.415937e-08) (8.690703e-12 -5.272146e-08 -7.284878e-10)) ((1.331362e-11 -8.692300e-14 -5.476968e-14) (-6.098259e-09 3.652054e-13 -3.816571e-13))
126.928263    	((8.171928e-12 -2.002353e-08 -1.410069e-08) (8.018714e-12 -4.992213e-08 -7.437982e-10)) ((1.325683e-11 -8.733441e-14 -5.491299e-14) (-5.936366e-09 3.414878e-13 -4.541838e-13))
152.325916    	((6.777114e-12 -1.871108e-08 -1.412389e-08) (7.263396e-12 -4.739316e-08 -7.693004e-10)) ((1.321228e-11 -8.804541e-14 -5.499364e-14) (-5.791772e-09 2.949247e-13 -5.023662e-13))
182.803099    	((6.453432e-12 -1.757407e-08 -1.415829e-08) (7.152096e-12 -4.511673e-08 -8.058228e-10)) ((1.317643e-11 -8.938301e-14 -5.494730e-14) (-5.663044e-09 2.598978e-13 -5.203592e-13))
219.375719    	((6.443594e-12 -1.658266e-08 -1.420519e-08) (6.931839e-12 -4.307254e-08 -8.536618e-10)) ((1.314915e-11 -9.006076e-14 -5.476660e-14) (-5.548712e-09 2.265535e-13 -5.346666e-13))
263.262863    	((6.393202e-12 -1.573512e-08 -1.427896e-08) (6.490671e-12 -4.124011e-08 -9.127972e-10)) ((1.312546e-11 -9.058774e-14 -5.474404e-14) (-5.447407e-09 2.172926e-13 -5.038389e-13))
315.927436    	((7.304843e-12 -1.500708e-08 -1.439132e-08) (6.138145e-12 -3.960363e-08 -9.818966e-10)) ((1.310816e-11 -9.161521e-14 -5.453648e-14) (-5.357964e-09 2.177666e-13 -4.673323e-13))
379.124923    	((7.697363e-12 -1.439265e-08 -1.451586e-08) (5.918348e-12 -3.815052e-08 -1.063672e-09)) ((1.309516e-11 -9.224423e-14 -5.428022e-14) (-5.279425e-09 2.124417e-13 -4.379151e-13))
454.961908    	((7.938058e-12 -1.388653e-08 -1.467509e-08) (5.825395e-12 -3.687101e-08 -1.159121e-09)) ((1.308480e-11 -9.230739e-14 -5.394480e-14) (-5.211046e-09 2.079438e-13 -4.089810e-13))
545.966289    	((6.581471e-12 -1.347985e-08 -1.487192e-08) (5.624550e-12 -3.575700e-08 -1.266859e-09)) ((1.307665e-11 -9.242597e-14 -5.368104e-14) (-5.152169e-09 1.947743e-13 -3.870416e-13))
655.171547    	((5.390672e-12 -1.315991e-08 -1.506877e-08) (5.559364e-12 -3.479997e-08 -1.385660e-09)) ((1.307113e-11 -9.267600e-14 -5.365500e-14) (-5.102072e-09 1.741391e-13 -3.666080e-13))
786.217856    	((5.067878e-12 -1.291812e-08 -1.526686e-08) (5.582740e-12 -3.399173e-08 -1.512879e-09)) ((1.306756e-11 -9.294411e-14 -5.366749e-14) (-5.060051e-09 1.503157e-13 -3.475377e-13))
943.473427    	((4.824838e-12 -1.273866e-08 -1.545569e-08) (5.628028e-12 -3.332305e-08 -1.644830e-09)) ((1.306497e-11 -9.300539e-14 -5.371061e-14) (-5.025383e-09 1.270301e-13 -3.183227e-13))
1128.207846   	((4.649305e-12 -1.260996e-08 -1.563685e-08) (5.634740e-12 -3.278425e-08 -1.776408e-09)) ((1.306296e-11 -9.310983e-14 -5.361968e-14) (-4.997362e-09 1.145558e-13 -2.901206e-13))
1340.419307   	((5.031135e-12 -1.252157e-08 -1.579443e-08) (5.690498e-12 -3.236187e-08 -1.902070e-09)) ((1.306153e-11 -9.318084e-14 -5.359375e-14) (-4.975197e-09 1.075010e-13 -2.632341e-13))
1580.106557   	((5.213399e-12 -1.246366e-08 -1.593617e-08) (5.727494e-12 -3.204024e-08 -2.016530e-09)) ((1.306038e-11 -9.331280e-14 -5.356907e-14) (-4.958050e-09 1.014656e-13 -2.344306e-13))
1847.26879    	((5.368067e-12 -1.242627e-08 -1.605857e-08) (5.674849e-12 -3.180201e-08 -2.116122e-09)) ((1.305945e-11 -9.348454e-14 -5.352606e-14) (-4.945065e-09 9.623124e-14 -2.028571e-13))
2122.013528   	((5.604977e-12 -1.240318e-08 -1.615596e-08) (5.613331e-12 -3.163096e-08 -2.198319e-09)) ((1.305931e-11 -9.361193e-14 -5.348374e-14) (-4.935491e-09 9.512406e-14 -1.760379e-13))
2396.755627   	((5.827780e-12 -1.238712e-08 -1.623178e-08) (5.582307e-12 -3.151056e-08 -2.263344e-09)) ((1.305951e-11 -9.374849e-14 -5.348216e-14) (-4.928550e-09 9.645841e-14 -1.566148e-13))
2671.497133   	((6.020136e-12 -1.237552e-08 -1.629283e-08) (5.537143e-12 -3.142695e-08 -2.313057e-09)) ((1.305964e-11 -9.385318e-14 -5.346290e-14) (-4.923579e-09 9.864605e-14 -1.435003e-13))
2946.239315   	((6.152836e-12 -1.236598e-08 -1.634227e-08) (5.463593e-12 -3.136897e-08 -2.350343e-09)) ((1.305968e-11 -9.394389e-14 -5.343517e-14) (-4.920033e-09 1.013103e-13 -1.348029e-13))
3220.982732   	((6.260843e-12 -1.235794e-08 -1.638160e-08) (5.381977e-12 -3.132851e-08 -2.377947e-09)) ((1.305970e-11 -9.401797e-14 -5.341609e-14) (-4.917503e-09 1.044558e-13 -1.296717e-13))
3495.72762    	((6.315490e-12 -1.235084e-08 -1.641380e-08) (5.312349e-12 -3.129977e-08 -2.398347e-09)) ((1.305969e-11 -9.407972e-14 -5.339950e-14) (-4.915684e-09 1.072836e-13 -1.272477e-13))
3770.474066   	((6.361387e-12 -1.234467e-08 -1.643994e-08) (5.259071e-12 -3.127892e-08 -2.413504e-09)) ((1.305968e-11 -9.412595e-14 -5.338893e-14) (-4.914361e-09 1.091300e-13 -1.260018e-13))
4045.222091   	((6.380813e-12 -1.233932e-08 -1.646152e-08) (5.219298e-12 -3.126335e-08 -2.424939e-09)) ((1.305967e-11 -9.416070e-14 -5.337991e-14) (-4.913383e-09 1.105198e-13 -1.253585e-13))
4319.971606   	((6.389652e-12 -1.233476e-08 -1.647949e-08) (5.184402e-12 -3.125143e-08 -2.433731e-09)) ((1.305967e-11 -9.419197e-14 -5.337336e-14) (-4.912649e-09 1.120368e-13 -1.254392e-13))
4594.722445   	((6.402215e-12 -1.233089e-08 -1.649447e-08) (5.154709e-12 -3.124207e-08 -2.440631e-09)) ((1.305967e-11 -9.421828e-14 -5.337081e-14) (-4.912087e-09 1.135206e-13 -1.257829e-13))
4869.474416   	((6.420010e-12 -1.232766e-08 -1.650712e-08) (5.124460e-12 -3.123460e-08 -2.446151e-09)) ((1.305967e-11 -9.423973e-14 -5.336918e-14) (-4.911651e-09 1.148864e-13 -1.260142e-13))
5144.227334   	((6.437405e-12 -1.232494e-08 -1.651784e-08) (5.096793e-12 -3.122855e-08 -2.450654e-09)) ((1.305967e-11 -9.425609e-14 -5.336758e-14) (-4.911308e-09 1.160319e-13 -1.262747e-13))
5418.981034   	((6.454231e-12 -1.232266e-08 -1.652703e-08) (5.073245e-12 -3.122360e-08 -2.454381e-09)) ((1.305968e-11 -9.426876e-14 -5.336681e-14) (-4.911036e-09 1.169425e-13 -1.265118e-13))
5693.735376   	((6.466296e-12 -1.232076e-08 -1.653483e-08) (5.053143e-12 -3.121952e-08 -2.457499e-09)) ((1.305968e-11 -9.427857e-14 -5.336616e-14) (-4.910817e-09 1.176021e-13 -1.267859e-13))
5968.490241   	((6.469098e-12 -1.231917e-08 -1.654150e-08) (5.036574e-12 -3.121614e-08 -2.460129e-09)) ((1.305969e-11 -9.428909e-14 -5.336641e-14) (-4.910641e-09 1.181317e-13 -1.270931e-13))
6243.245531   	((6.466990e-12 -1.231785e-08 -1.654720e-08) (5.019661e-12 -3.121333e-08 -2.462362e-09)) ((1.305970e-11 -9.429919e-14 -5.336656e-14) (-4.910497e-09 1.186207e-13 -1.273326e-13))
6518.001168   	((6.468359e-12 -1.231674e-08 -1.655203e-08) (5.004559e-12 -3.121099e-08 -2.464265e-09)) ((1.305971e-11 -9.430803e-14 -5.336789e-14) (-4.910380e-09 1.190605e-13 -1.275911e-13))
6792.757087   	((6.461994e-12 -1.231581e-08 -1.655618e-08) (4.990861e-12 -3.120904e-08 -2.465894e-09)) ((1.305972e-11 -9.431551e-14 -5.336936e-14) (-4.910284e-09 1.194832e-13 -1.278603e-13))
7067.513238   	((6.464743e-12 -1.231502e-08 -1.655970e-08) (4.978360e-12 -3.120740e-08 -2.467290e-09)) ((1.305972e-11 -9.432122e-14 -5.337026e-14) (-4.910206e-09 1.198605e-13 -1.281100e-13))
7342.269578   	((6.471881e-12 -1.231435e-08 -1.656279e-08) (4.966933e-12 -3.120603e-08 -2.468491e-09)) ((1.305973e-11 -9.432627e-14 -5.337080e-14) (-4.910141e-09 1.201660e-13 -1.283475e-13))
7617.026075   	((6.474804e-12 -1.231378e-08 -1.656545e-08) (4.957011e-12 -3.120487e-08 -2.469525e-09)) ((1.305973e-11 -9.433055e-14 -5.337165e-14) (-4.910087e-09 1.204298e-13 -1.285700e-13))
7891.782701   	((6.476175e-12 -1.231330e-08 -1.656773e-08) (4.948134e-12 -3.120390e-08 -2.470416e-09)) ((1.305974e-11 -9.433401e-14 -5.337229e-14) (-4.910043e-09 1.206544e-13 -1.287757e-13))
8166.539435   	((6.504484e-12 -1.231289e-08 -1.656972e-08) (4.939929e-12 -3.120308e-08 -2.471183e-09)) ((1.305974e-11 -9.433672e-14 -5.337274e-14) (-4.910006e-09 1.208554e-13 -1.289794e-13))
8441.296257   	((6.520008e-12 -1.231254e-08 -1.657141e-08) (4.932899e-12 -3.120239e-08 -2.471845e-09)) ((1.305974e-11 -9.433912e-14 -5.337311e-14) (-4.909976e-09 1.210226e-13 -1.291729e-13))
8716.053154   	((6.520055e-12 -1.231224e-08 -1.657289e-08) (4.926795e-12 -3.120180e-08 -2.472417e-09)) ((1.305975e-11 -9.434142e-14 -5.337343e-14) (-4.909950e-09 1.211601e-13 -1.293510e-13))
8990.810114   	((6.515433e-12 -1.231199e-08 -1.657412e-08) (4.921476e-12 -3.120131e-08 -2.472910e-09)) ((1.305975e-11 -9.434323e-14 -5.337365e-14) (-4.909929e-09 1.212852e-13 -1.295185e-13))
9265.567125   	((6.517513e-12 -1.231177e-08 -1.657522e-08) (4.916382e-12 -3.120089e-08 -2.473337e-09)) ((1.305975e-11 -9.434479e-14 -5.337382e-14) (-4.909911e-09 1.214217e-13 -1.296719e-13))
9540.324181   	((6.513454e-12 -1.231159e-08 -1.657607e-08) (4.912036e-12 -3.120053e-08 -2.473705e-09)) ((1.305975e-11 -9.434593e-14 -5.337396e-14) (-4.909896e-09 1.215408e-13 -1.298098e-13))
9815.081273   	((6.508554e-12 -1.231143e-08 -1.657688e-08) (4.908360e-12 -3.120023e-08 -2.474024e-09)) ((1.305976e-11 -9.434720e-14 -5.337409e-14) (-4.909884e-09 1.216419e-13 -1.299323e-13))
10089.838396  	((6.504524e-12 -1.231129e-08 -1.657753e-08) (4.905230e-12 -3.119997e-08 -2.474299e-09)) ((1.305976e-11 -9.434820e-14 -5.337421e-14) (-4.909873e-09 1.217227e-13 -1.300384e-13))
10364.595545  	((6.501517e-12 -1.231118e-08 -1.657810e-08) (4.902612e-12 -3.119975e-08 -2.474538e-09)) ((1.305976e-11 -9.434910e-14 -5.337431e-14) (-4.909864e-09 1.217919e-13 -1.301347e-13))
10639.352716  	((6.499064e-12 -1.231108e-08 -1.657863e-08) (4.900324e-12 -3.119956e-08 -2.474744e-09)) ((1.305976e-11 -9.434998e-14 -5.337438e-14) (-4.909857e-09 1.218514e-13 -1.302197e-13))
10914.109906  	((6.496609e-12 -1.231099e-08 -1.657906e-08) (4.898338e-12 -3.119940e-08 -2.474923e-09)) ((1.305976e-11 -9.435068e-14 -5.337444e-14) (-4.909851e-09 1.219015e-13 -1.302946e-13))
11188.867112  	((6.495057e-12 -1.231092e-08 -1.657943e-08) (4.896593e-12 -3.119926e-08 -2.475077e-09)) ((1.305976e-11 -9.435126e-14 -5.337449e-14) (-4.909845e-09 1.219465e-13 -1.303608e-13))
11463.624332  	((6.548129e-12 -1.231086e-08 -1.657988e-08) (4.895563e-12 -3.119914e-08 -2.475211e-09)) ((1.305976e-11 -9.435135e-14 -5.337440e-14) (-4.909841e-09 1.219679e-13 -1.304166e-13))
11738.381563  	((6.499741e-12 -1.231080e-08 -1.658003e-08) (4.894257e-12 -3.119904e-08 -2.475327e-09)) ((1.305976e-11 -9.435225e-14 -5.337452e-14) (-4.909837e-09 1.219968e-13 -1.304770e-13))
12013.138804  	((6.550757e-12 -1.231076e-08 -1.658042e-08) (4.893673e-12 -3.119895e-08 -2.475427e-09)) ((1.305976e-11 -9.435223e-14 -5.337443e-14) (-4.909834e-09 1.220105e-13 -1.305116e-13))
