# Forces      
# CofR        : (0.000000e+00 0.000000e+00 0.000000e+00)
# Time        forces(pressure viscous)	moments(pressure viscous)
0             	((0.000000e+00 0.000000e+00 0.000000e+00) (0.000000e+00 0.000000e+00 0.000000e+00)) ((0.000000e+00 0.000000e+00 0.000000e+00) (0.000000e+00 0.000000e+00 0.000000e+00))
0.012         	((1.181845e-12 -4.565635e-08 -7.395037e-09) (1.243141e-14 -1.050236e-07 -4.133180e-15)) ((-6.668728e-12 -2.414179e-14 6.108308e-14) (-6.988854e-09 -6.484506e-16 -1.128863e-14))
0.0264        	((2.666700e-11 -6.136658e-08 -1.566405e-08) (6.002244e-14 -9.620208e-08 -5.235578e-15)) ((3.029438e-12 -5.247119e-14 2.697737e-14) (-6.408763e-09 -1.618638e-15 -1.164667e-14))
0.04368       	((-2.052981e-11 -4.149522e-08 -8.498283e-09) (7.706299e-14 -8.709802e-08 -2.001626e-14)) ((2.250357e-12 -2.763408e-14 3.038321e-14) (-5.811839e-09 -4.940765e-16 -2.176139e-14))
0.064416      	((2.343716e-11 -4.691350e-08 -1.099370e-08) (1.047175e-13 -7.791234e-08 -2.603962e-14)) ((4.443031e-12 -3.658806e-14 1.910428e-14) (-5.211600e-09 1.391027e-15 -8.330981e-15))
0.0892992     	((-1.155175e-11 -3.463094e-08 -7.332066e-09) (1.061954e-13 -6.890705e-08 -9.359633e-14)) ((3.171622e-12 -2.411573e-14 1.269515e-14) (-4.625134e-09 3.128420e-15 2.569959e-14))
0.119159      	((8.558036e-12 -3.551446e-08 -7.957268e-09) (6.506391e-14 -6.036995e-08 -2.295959e-13)) ((3.883564e-12 -2.624938e-14 6.653706e-15) (-4.071663e-09 3.091456e-15 3.921707e-14))
0.154991      	((-5.783215e-12 -2.674431e-08 -5.680655e-09) (2.900667e-14 -5.256641e-08 -3.507040e-13)) ((2.714372e-12 -1.899778e-14 2.975720e-15) (-3.562969e-09 3.094836e-15 4.418146e-14))
0.197989      	((1.966603e-12 -2.639651e-08 -5.721287e-09) (1.156886e-14 -4.566024e-08 -4.522866e-13)) ((3.060433e-12 -1.916417e-14 4.454320e-15) (-3.112385e-09 2.842381e-15 4.666726e-14))
0.249587      	((-1.856766e-12 -2.050297e-08 -4.436619e-09) (6.188493e-16 -3.977565e-08 -5.383307e-13)) ((2.192368e-12 -1.461751e-14 3.541966e-15) (-2.725532e-09 1.095958e-15 4.355785e-14))
0.311504      	((-7.122944e-13 -1.990208e-08 -4.298270e-09) (-1.476988e-14 -3.488383e-08 -5.967391e-13)) ((2.413923e-12 -1.453016e-14 6.412276e-15) (-2.402598e-09 1.117255e-18 3.436933e-14))
0.385805      	((3.810817e-14 -1.603878e-08 -3.569702e-09) (-2.555038e-14 -3.084287e-08 -6.772714e-13)) ((1.798507e-12 -1.177571e-14 3.973282e-15) (-2.135548e-09 -9.903410e-16 1.937810e-14))
0.474966      	((-4.450291e-13 -1.554746e-08 -3.369478e-09) (-1.946180e-14 -2.750052e-08 -7.222762e-13)) ((1.953271e-12 -1.154256e-14 5.577335e-15) (-1.915077e-09 -5.663953e-16 6.572792e-15))
0.581959      	((7.422191e-13 -1.295124e-08 -2.902292e-09) (1.350573e-14 -2.468744e-08 -7.489482e-13)) ((1.505250e-12 -9.439092e-15 3.761336e-15) (-1.729376e-09 -7.559958e-16 7.413662e-15))
0.710351      	((-1.451954e-13 -1.255085e-08 -2.689465e-09) (3.872275e-14 -2.227117e-08 -6.758606e-13)) ((1.621859e-12 -9.270400e-15 5.825129e-15) (-1.570443e-09 7.291635e-16 7.228629e-15))
0.864421      	((1.455630e-12 -1.068548e-08 -2.379796e-09) (5.372679e-14 -2.014668e-08 -6.866938e-13)) ((1.304252e-12 -7.836898e-15 4.107629e-15) (-1.430802e-09 1.371517e-15 1.491307e-14))
1.049306      	((8.307012e-14 -1.028298e-08 -2.197412e-09) (6.221185e-14 -1.825549e-08 -7.027112e-13)) ((1.396043e-12 -7.615958e-15 3.452815e-15) (-1.307068e-09 3.424391e-15 2.431968e-14))
1.271167      	((1.050271e-12 -8.838205e-09 -1.966294e-09) (7.316310e-14 -1.654897e-08 -7.719226e-13)) ((1.176650e-12 -6.677333e-15 2.260166e-17) (-1.195534e-09 5.512546e-15 2.732656e-14))
1.5374        	((9.265646e-13 -8.405979e-09 -1.803503e-09) (8.525328e-14 -1.500851e-08 -7.297900e-13)) ((1.227450e-12 -6.404325e-15 -4.098200e-16) (-1.094986e-09 1.026625e-14 2.240388e-14))
1.85688       	((8.065215e-13 -7.280621e-09 -1.629998e-09) (1.188204e-13 -1.361607e-08 -8.352576e-13)) ((1.066593e-12 -5.828322e-15 -2.207307e-15) (-1.004286e-09 1.777995e-14 2.388448e-14))
2.240256      	((8.324396e-13 -6.829915e-09 -1.510027e-09) (1.818676e-13 -1.236512e-08 -9.944639e-13)) ((1.082167e-12 -5.528013e-15 -1.785147e-15) (-9.227263e-10 2.619284e-14 3.558819e-14))
2.700307      	((2.352561e-13 -5.987149e-09 -1.390979e-09) (2.495841e-13 -1.125841e-08 -1.309737e-12)) ((9.684116e-13 -5.145792e-15 -2.765367e-15) (-8.506310e-10 3.497885e-14 4.659269e-14))
3.252369      	((1.345281e-12 -5.574655e-09 -1.306154e-09) (2.747203e-13 -1.028073e-08 -1.829332e-12)) ((9.710618e-13 -4.953135e-15 -2.077417e-15) (-7.868806e-10 4.436645e-14 4.838647e-14))
3.914842      	((-2.050200e-13 -4.969694e-09 -1.216638e-09) (1.804215e-13 -9.420991e-09 -2.183483e-12)) ((9.050973e-13 -4.496983e-15 -2.171657e-15) (-7.309839e-10 5.605656e-14 3.870641e-14))
4.709811      	((3.617840e-13 -4.598921e-09 -1.145954e-09) (7.206283e-14 -8.664222e-09 -2.507233e-12)) ((8.973534e-13 -4.154506e-15 -1.925360e-15) (-6.818789e-10 6.390629e-14 2.441829e-14))
5.663773      	((-2.957975e-14 -4.159049e-09 -1.063602e-09) (6.728815e-14 -7.992951e-09 -2.916284e-12)) ((8.542029e-13 -3.684406e-15 -2.040286e-15) (-6.384447e-10 6.495118e-14 1.236451e-14))
6.808528      	((1.022398e-12 -3.835864e-09 -9.884318e-10) (1.404296e-13 -7.391122e-09 -3.326591e-12)) ((8.360810e-13 -3.704241e-15 -2.068900e-15) (-5.996163e-10 6.237675e-14 1.146534e-15))
8.182233      	((1.141906e-12 -3.495284e-09 -9.067785e-10) (2.340436e-13 -6.845152e-09 -3.588673e-12)) ((8.083953e-13 -3.294712e-15 -2.383082e-15) (-5.645735e-10 5.854890e-14 -3.865967e-15))
9.83068       	((9.732907e-13 -3.205117e-09 -8.334199e-10) (3.192844e-13 -6.345468e-09 -3.632190e-12)) ((7.886473e-13 -3.182667e-15 -2.358738e-15) (-5.326777e-10 5.364533e-14 -4.560291e-15))
11.808816     	((5.113240e-13 -2.931216e-09 -7.650248e-10) (3.784142e-13 -5.887033e-09 -3.434887e-12)) ((7.683336e-13 -2.785829e-15 -2.444527e-15) (-5.036089e-10 4.660443e-14 -6.365432e-15))
14.182579     	((7.355953e-13 -2.691362e-09 -7.123483e-10) (3.990906e-13 -5.466014e-09 -3.226231e-12)) ((7.486789e-13 -2.653007e-15 -2.432037e-15) (-4.770553e-10 3.936896e-14 -1.833982e-15))
17.031095     	((7.704381e-13 -2.467410e-09 -6.686644e-10) (4.128561e-13 -5.079085e-09 -3.111423e-12)) ((7.331283e-13 -2.417497e-15 -2.501054e-15) (-4.528679e-10 3.374626e-14 8.996684e-16))
20.449314     	((9.514833e-13 -2.267656e-09 -6.393464e-10) (4.042709e-13 -4.724320e-09 -3.020068e-12)) ((7.177323e-13 -2.357182e-15 -2.564793e-15) (-4.308608e-10 2.642259e-14 -1.683341e-15))
24.551176     	((6.671931e-13 -2.080001e-09 -6.150061e-10) (3.968934e-13 -4.399600e-09 -2.870634e-12)) ((7.066974e-13 -2.258771e-15 -2.622512e-15) (-4.108668e-10 1.937277e-14 -3.559966e-15))
29.473411     	((5.547582e-13 -1.911205e-09 -5.897041e-10) (3.846717e-13 -4.103017e-09 -2.713968e-12)) ((6.959350e-13 -2.192103e-15 -2.678816e-15) (-3.927198e-10 1.592739e-14 -1.807767e-15))
35.380094     	((4.573756e-13 -1.754005e-09 -5.653944e-10) (4.004970e-13 -3.832208e-09 -2.620394e-12)) ((6.875475e-13 -2.108899e-15 -2.728770e-15) (-3.762352e-10 1.368293e-14 -5.259694e-15))
42.468112     	((3.832669e-13 -1.613018e-09 -5.409781e-10) (4.229538e-13 -3.584626e-09 -2.542665e-12)) ((6.796407e-13 -2.065270e-15 -2.753098e-15) (-3.612205e-10 1.319976e-14 -1.067040e-14))
50.973735     	((3.914160e-13 -1.482304e-09 -5.170353e-10) (4.344438e-13 -3.358138e-09 -2.546066e-12)) ((6.729586e-13 -1.992934e-15 -2.762295e-15) (-3.475445e-10 1.239869e-14 -1.515467e-14))
61.180482     	((4.266869e-13 -1.363753e-09 -4.957918e-10) (4.208349e-13 -3.151198e-09 -2.600269e-12)) ((6.667934e-13 -1.918582e-15 -2.760129e-15) (-3.351251e-10 1.328703e-14 -1.871450e-14))
73.428578     	((2.630749e-13 -1.255914e-09 -4.757856e-10) (3.696639e-13 -2.962611e-09 -2.627979e-12)) ((6.616831e-13 -1.835741e-15 -2.724943e-15) (-3.238859e-10 1.445369e-14 -2.236021e-14))
88.126294     	((1.828732e-13 -1.157873e-09 -4.563462e-10) (3.230174e-13 -2.791036e-09 -2.592878e-12)) ((6.572708e-13 -1.740777e-15 -2.728329e-15) (-3.137447e-10 1.605507e-14 -2.386192e-14))
105.763553    	((1.568580e-14 -1.072243e-09 -4.391204e-10) (2.604084e-13 -2.635356e-09 -2.519135e-12)) ((6.537166e-13 -1.672919e-15 -2.729695e-15) (-3.046247e-10 1.870892e-14 -2.717254e-14))
126.928263    	((-9.935296e-14 -9.943919e-10 -4.250188e-10) (1.989066e-13 -2.494526e-09 -2.439232e-12)) ((6.506830e-13 -1.612673e-15 -2.705628e-15) (-2.964497e-10 2.019742e-14 -3.031513e-14))
152.325916    	((-1.899687e-13 -9.255120e-10 -4.135748e-10) (1.641212e-13 -2.367276e-09 -2.355375e-12)) ((6.481562e-13 -1.566868e-15 -2.702400e-15) (-2.891251e-10 2.185109e-14 -3.225780e-14))
182.803099    	((-2.298922e-13 -8.643156e-10 -4.022356e-10) (1.268402e-13 -2.252433e-09 -2.319326e-12)) ((6.460026e-13 -1.536131e-15 -2.678952e-15) (-2.825668e-10 2.327063e-14 -3.347534e-14))
219.375719    	((-2.519213e-13 -8.102428e-10 -3.917512e-10) (1.054202e-13 -2.148852e-09 -2.312433e-12)) ((6.442537e-13 -1.500413e-15 -2.646667e-15) (-2.767002e-10 2.353821e-14 -3.406349e-14))
263.262863    	((-1.834361e-13 -7.620751e-10 -3.830067e-10) (9.244981e-14 -2.055562e-09 -2.396482e-12)) ((6.428696e-13 -1.469038e-15 -2.611769e-15) (-2.714632e-10 2.327285e-14 -3.496443e-14))
315.927436    	((-1.699020e-13 -7.199978e-10 -3.746042e-10) (7.594140e-14 -1.971675e-09 -2.519393e-12)) ((6.417512e-13 -1.435338e-15 -2.589143e-15) (-2.667980e-10 2.279962e-14 -3.532319e-14))
379.124923    	((-2.032056e-13 -6.831405e-10 -3.661912e-10) (5.428596e-14 -1.896502e-09 -2.682821e-12)) ((6.408357e-13 -1.411783e-15 -2.598566e-15) (-2.626578e-10 2.215050e-14 -3.527491e-14))
454.961908    	((-2.040879e-13 -6.516598e-10 -3.595653e-10) (4.888306e-14 -1.829531e-09 -2.894320e-12)) ((6.401510e-13 -1.377912e-15 -2.601973e-15) (-2.590057e-10 2.082957e-14 -3.537881e-14))
545.966289    	((-1.999929e-13 -6.249713e-10 -3.551462e-10) (5.226826e-14 -1.770312e-09 -3.131944e-12)) ((6.396127e-13 -1.359607e-15 -2.603078e-15) (-2.558076e-10 1.939589e-14 -3.584311e-14))
655.171547    	((-2.268399e-13 -6.027464e-10 -3.514071e-10) (5.128765e-14 -1.718428e-09 -3.368757e-12)) ((6.391793e-13 -1.342324e-15 -2.605262e-15) (-2.530311e-10 1.883570e-14 -3.617709e-14))
786.217856    	((-2.007257e-13 -5.842533e-10 -3.485726e-10) (4.315986e-14 -1.673520e-09 -3.588345e-12)) ((6.388012e-13 -1.326910e-15 -2.609006e-15) (-2.506455e-10 1.876378e-14 -3.611619e-14))
943.473427    	((-1.746471e-13 -5.691550e-10 -3.465208e-10) (3.387226e-14 -1.635168e-09 -3.811267e-12)) ((6.384605e-13 -1.326790e-15 -2.610701e-15) (-2.486179e-10 1.833858e-14 -3.559796e-14))
1132.180113   	((-1.431198e-13 -5.569171e-10 -3.449700e-10) (2.361521e-14 -1.602918e-09 -4.057292e-12)) ((6.381770e-13 -1.323770e-15 -2.611499e-15) (-2.469167e-10 1.808501e-14 -3.467243e-14))
1358.628135   	((-1.316700e-13 -5.470876e-10 -3.438890e-10) (1.293969e-14 -1.576219e-09 -4.302937e-12)) ((6.379511e-13 -1.322083e-15 -2.613255e-15) (-2.455089e-10 1.802262e-14 -3.358804e-14))
1630.365763   	((-1.444911e-13 -5.392932e-10 -3.430311e-10) (3.674140e-15 -1.554473e-09 -4.537836e-12)) ((6.377758e-13 -1.321254e-15 -2.615661e-15) (-2.443597e-10 1.812130e-14 -3.260053e-14))
1956.450915   	((-1.563898e-13 -5.331714e-10 -3.423303e-10) (-4.701433e-15 -1.537049e-09 -4.754650e-12)) ((6.376380e-13 -1.319868e-15 -2.618403e-15) (-2.434345e-10 1.828830e-14 -3.162455e-14))
2347.753098   	((-1.488363e-13 -5.284048e-10 -3.418704e-10) (-1.046792e-14 -1.523307e-09 -4.947911e-12)) ((6.375289e-13 -1.319691e-15 -2.619954e-15) (-2.426993e-10 1.840541e-14 -3.079807e-14))
2817.315718   	((-1.418557e-13 -5.247251e-10 -3.414356e-10) (-1.469039e-14 -1.512627e-09 -5.112287e-12)) ((6.374426e-13 -1.319482e-15 -2.622325e-15) (-2.421218e-10 1.855570e-14 -3.016928e-14))
3380.790861   	((-1.386108e-13 -5.219037e-10 -3.411185e-10) (-1.921466e-14 -1.504439e-09 -5.247143e-12)) ((6.373742e-13 -1.319131e-15 -2.625201e-15) (-2.416730e-10 1.873059e-14 -2.969546e-14))
4056.961033   	((-1.375546e-13 -5.197434e-10 -3.408806e-10) (-2.303263e-14 -1.498238e-09 -5.355649e-12)) ((6.373193e-13 -1.318389e-15 -2.627895e-15) (-2.413271e-10 1.886455e-14 -2.932725e-14))
4868.36524    	((-1.358315e-13 -5.180979e-10 -3.407145e-10) (-2.639470e-14 -1.493592e-09 -5.442947e-12)) ((6.372743e-13 -1.317385e-15 -2.630289e-15) (-2.410627e-10 1.897019e-14 -2.902356e-14))
5842.050288   	((-1.359209e-13 -5.168480e-10 -3.405894e-10) (-2.857543e-14 -1.490146e-09 -5.512146e-12)) ((6.372377e-13 -1.316467e-15 -2.632416e-15) (-2.408617e-10 1.902862e-14 -2.878329e-14))
7010.472346   	((-1.378116e-13 -5.159002e-10 -3.404879e-10) (-2.958554e-14 -1.487612e-09 -5.566029e-12)) ((6.372076e-13 -1.315879e-15 -2.634183e-15) (-2.407097e-10 1.904130e-14 -2.859393e-14))
8412.578815   	((-1.390440e-13 -5.151798e-10 -3.404157e-10) (-3.017621e-14 -1.485764e-09 -5.606924e-12)) ((6.371829e-13 -1.315590e-15 -2.635602e-15) (-2.405952e-10 1.904342e-14 -2.844658e-14))
10095.106578  	((-1.405995e-13 -5.146360e-10 -3.403700e-10) (-3.069121e-14 -1.484426e-09 -5.637585e-12)) ((6.371625e-13 -1.315524e-15 -2.636777e-15) (-2.405091e-10 1.904988e-14 -2.833585e-14))
12114.139893  	((-1.426856e-13 -5.142235e-10 -3.403360e-10) (-3.101435e-14 -1.483463e-09 -5.660405e-12)) ((6.371455e-13 -1.315454e-15 -2.637724e-15) (-2.404446e-10 1.905478e-14 -2.825712e-14))
14536.979872  	((-1.439745e-13 -5.139098e-10 -3.402941e-10) (-3.109582e-14 -1.482775e-09 -5.677228e-12)) ((6.371313e-13 -1.315337e-15 -2.638442e-15) (-2.403963e-10 1.905359e-14 -2.820455e-14))
17444.387847  	((-1.447125e-13 -5.136717e-10 -3.402763e-10) (-3.110513e-14 -1.482285e-09 -5.689461e-12)) ((6.371197e-13 -1.315314e-15 -2.639001e-15) (-2.403601e-10 1.905046e-14 -2.816831e-14))
20900.102722  	((-1.448494e-13 -5.134894e-10 -3.402791e-10) (-3.110535e-14 -1.481939e-09 -5.698278e-12)) ((6.371104e-13 -1.315339e-15 -2.639448e-15) (-2.403330e-10 1.904680e-14 -2.814502e-14))
24904.123174  	((-1.454382e-13 -5.133503e-10 -3.402533e-10) (-3.110493e-14 -1.481696e-09 -5.704549e-12)) ((6.371037e-13 -1.315273e-15 -2.639816e-15) (-2.403127e-10 1.904389e-14 -2.813007e-14))
29456.448239  	((-1.454605e-13 -5.132444e-10 -3.402520e-10) (-3.106482e-14 -1.481526e-09 -5.708950e-12)) ((6.370987e-13 -1.315284e-15 -2.640068e-15) (-2.402975e-10 1.904019e-14 -2.812290e-14))
34557.077223  	((-1.455560e-13 -5.131617e-10 -3.402514e-10) (-3.105930e-14 -1.481408e-09 -5.711991e-12)) ((6.370948e-13 -1.315334e-15 -2.640271e-15) (-2.402861e-10 1.903537e-14 -2.811562e-14))
40040.111417  	((-1.453070e-13 -5.130992e-10 -3.402439e-10) (-3.101368e-14 -1.481327e-09 -5.713994e-12)) ((6.370926e-13 -1.315368e-15 -2.640402e-15) (-2.402775e-10 1.903168e-14 -2.811385e-14))
45523.142151  	((-1.454273e-13 -5.130520e-10 -3.402373e-10) (-3.097426e-14 -1.481271e-09 -5.715265e-12)) ((6.370925e-13 -1.315418e-15 -2.640534e-15) (-2.402711e-10 1.902796e-14 -2.811273e-14))
51006.170869  	((-1.459791e-13 -5.130150e-10 -3.402206e-10) (-3.101258e-14 -1.481233e-09 -5.716046e-12)) ((6.370926e-13 -1.315467e-15 -2.640649e-15) (-2.402663e-10 1.902577e-14 -2.810983e-14))
56489.198509  	((-1.477039e-13 -5.129863e-10 -3.402128e-10) (-3.097798e-14 -1.481208e-09 -5.716545e-12)) ((6.370929e-13 -1.315493e-15 -2.640716e-15) (-2.402627e-10 1.902302e-14 -2.811181e-14))
61972.225532  	((-1.491882e-13 -5.129632e-10 -3.402166e-10) (-3.096416e-14 -1.481191e-09 -5.716849e-12)) ((6.370931e-13 -1.315535e-15 -2.640765e-15) (-2.402599e-10 1.902039e-14 -2.811186e-14))
67455.252191  	((-1.504054e-13 -5.129446e-10 -3.402130e-10) (-3.096139e-14 -1.481180e-09 -5.717024e-12)) ((6.370934e-13 -1.315547e-15 -2.640809e-15) (-2.402578e-10 1.901839e-14 -2.811165e-14))
72938.278637  	((-1.514811e-13 -5.129295e-10 -3.402096e-10) (-3.095842e-14 -1.481173e-09 -5.717110e-12)) ((6.370936e-13 -1.315558e-15 -2.640847e-15) (-2.402562e-10 1.901659e-14 -2.811157e-14))
78421.304963  	((-1.502237e-13 -5.129178e-10 -3.402082e-10) (-3.100217e-14 -1.481168e-09 -5.717118e-12)) ((6.370938e-13 -1.315570e-15 -2.640857e-15) (-2.402549e-10 1.901659e-14 -2.811107e-14))
83904.331228  	((-1.518951e-13 -5.129080e-10 -3.402041e-10) (-3.097318e-14 -1.481165e-09 -5.717108e-12)) ((6.370939e-13 -1.315585e-15 -2.640899e-15) (-2.402540e-10 1.901499e-14 -2.811132e-14))
89387.357466  	((-1.507498e-13 -5.129004e-10 -3.402025e-10) (-3.100262e-14 -1.481164e-09 -5.717059e-12)) ((6.370941e-13 -1.315594e-15 -2.640902e-15) (-2.402533e-10 1.901500e-14 -2.811096e-14))
94870.383699  	((-1.518199e-13 -5.128942e-10 -3.401985e-10) (-3.096641e-14 -1.481163e-09 -5.717011e-12)) ((6.370942e-13 -1.315648e-15 -2.640918e-15) (-2.402527e-10 1.901326e-14 -2.811085e-14))
100353.40994  	((-1.500921e-13 -5.128897e-10 -3.401964e-10) (-3.098726e-14 -1.481163e-09 -5.716923e-12)) ((6.370943e-13 -1.315675e-15 -2.640900e-15) (-2.402523e-10 1.901359e-14 -2.810995e-14))
105836.436194 	((-1.498984e-13 -5.128853e-10 -3.401933e-10) (-3.093053e-14 -1.481163e-09 -5.716853e-12)) ((6.370944e-13 -1.315632e-15 -2.640936e-15) (-2.402519e-10 1.901225e-14 -2.811048e-14))
111319.462465 	((-1.509755e-13 -5.128819e-10 -3.401918e-10) (-3.091026e-14 -1.481163e-09 -5.716800e-12)) ((6.370945e-13 -1.315678e-15 -2.640941e-15) (-2.402517e-10 1.901070e-14 -2.811027e-14))
116802.488754 	((-1.505995e-13 -5.128789e-10 -3.401894e-10) (-3.089017e-14 -1.481163e-09 -5.716737e-12)) ((6.370945e-13 -1.315637e-15 -2.640956e-15) (-2.402515e-10 1.900986e-14 -2.810973e-14))
122285.515058 	((-1.514860e-13 -5.128766e-10 -3.401905e-10) (-3.089159e-14 -1.481163e-09 -5.716693e-12)) ((6.370946e-13 -1.315691e-15 -2.640955e-15) (-2.402513e-10 1.900895e-14 -2.810970e-14))
127768.541379 	((-1.510032e-13 -5.128745e-10 -3.401859e-10) (-3.088004e-14 -1.481163e-09 -5.716634e-12)) ((6.370946e-13 -1.315643e-15 -2.640965e-15) (-2.402512e-10 1.900845e-14 -2.810864e-14))
133251.567712 	((-1.518317e-13 -5.128729e-10 -3.401872e-10) (-3.089087e-14 -1.481164e-09 -5.716594e-12)) ((6.370947e-13 -1.315695e-15 -2.640962e-15) (-2.402511e-10 1.900801e-14 -2.810850e-14))
138734.594058 	((-1.512819e-13 -5.128715e-10 -3.401828e-10) (-3.088471e-14 -1.481164e-09 -5.716547e-12)) ((6.370947e-13 -1.315646e-15 -2.640971e-15) (-2.402510e-10 1.900790e-14 -2.810821e-14))
144217.620414 	((-1.520587e-13 -5.128705e-10 -3.401845e-10) (-3.089662e-14 -1.481164e-09 -5.716516e-12)) ((6.370948e-13 -1.315699e-15 -2.640967e-15) (-2.402510e-10 1.900764e-14 -2.810843e-14))
149700.646778 	((-1.514897e-13 -5.128695e-10 -3.401802e-10) (-3.089237e-14 -1.481164e-09 -5.716480e-12)) ((6.370948e-13 -1.315649e-15 -2.640970e-15) (-2.402509e-10 1.900775e-14 -2.811036e-14))
155183.673149 	((-1.522931e-13 -5.128688e-10 -3.401795e-10) (-3.090620e-14 -1.481164e-09 -5.716456e-12)) ((6.370948e-13 -1.315693e-15 -2.640966e-15) (-2.402509e-10 1.900765e-14 -2.811176e-14))
160666.699526 	((-1.516637e-13 -5.128681e-10 -3.401778e-10) (-3.089812e-14 -1.481164e-09 -5.716422e-12)) ((6.370948e-13 -1.315651e-15 -2.640978e-15) (-2.402509e-10 1.900770e-14 -2.811160e-14))
166149.725907 	((-1.524425e-13 -5.128676e-10 -3.401773e-10) (-3.091870e-14 -1.481165e-09 -5.716403e-12)) ((6.370949e-13 -1.315696e-15 -2.640971e-15) (-2.402509e-10 1.900806e-14 -2.811200e-14))
171632.752293 	((-1.517622e-13 -5.128671e-10 -3.401759e-10) (-3.090595e-14 -1.481165e-09 -5.716374e-12)) ((6.370948e-13 -1.315653e-15 -2.640979e-15) (-2.402508e-10 1.900795e-14 -2.811179e-14))
177115.778682 	((-1.524996e-13 -5.128668e-10 -3.401756e-10) (-3.089744e-14 -1.481165e-09 -5.716339e-12)) ((6.370949e-13 -1.315700e-15 -2.640994e-15) (-2.402508e-10 1.900665e-14 -2.811235e-14))
182598.805074 	((-1.518331e-13 -5.128664e-10 -3.401742e-10) (-3.089978e-14 -1.481165e-09 -5.716325e-12)) ((6.370949e-13 -1.315655e-15 -2.640979e-15) (-2.402508e-10 1.900771e-14 -2.811053e-14))
188081.831467 	((-1.525186e-13 -5.128662e-10 -3.401741e-10) (-3.090073e-14 -1.481165e-09 -5.716299e-12)) ((6.370949e-13 -1.315698e-15 -2.640984e-15) (-2.402508e-10 1.900675e-14 -2.811265e-14))
193564.857863 	((-1.519103e-13 -5.128660e-10 -3.401727e-10) (-3.089144e-14 -1.481165e-09 -5.716296e-12)) ((6.370949e-13 -1.315652e-15 -2.640983e-15) (-2.402508e-10 1.900720e-14 -2.811068e-14))
199047.884259 	((-1.526833e-13 -5.128659e-10 -3.401725e-10) (-3.089901e-14 -1.481165e-09 -5.716279e-12)) ((6.370949e-13 -1.315696e-15 -2.640977e-15) (-2.402508e-10 1.900669e-14 -2.810935e-14))
204530.910657 	((-1.520067e-13 -5.128656e-10 -3.401713e-10) (-3.088864e-14 -1.481165e-09 -5.716247e-12)) ((6.370949e-13 -1.315653e-15 -2.640986e-15) (-2.402508e-10 1.900645e-14 -2.810904e-14))
210013.937056 	((-1.527070e-13 -5.128655e-10 -3.401713e-10) (-3.090245e-14 -1.481165e-09 -5.716236e-12)) ((6.370949e-13 -1.315699e-15 -2.640976e-15) (-2.402508e-10 1.900657e-14 -2.810889e-14))
215496.963455 	((-1.520489e-13 -5.128654e-10 -3.401702e-10) (-3.088322e-14 -1.481165e-09 -5.716205e-12)) ((6.370949e-13 -1.315656e-15 -2.640985e-15) (-2.402508e-10 1.900629e-14 -2.810743e-14))
220979.989855 	((-1.527453e-13 -5.128653e-10 -3.401702e-10) (-3.089957e-14 -1.481165e-09 -5.716199e-12)) ((6.370949e-13 -1.315699e-15 -2.640977e-15) (-2.402508e-10 1.900638e-14 -2.810847e-14))
226463.016255 	((-1.520485e-13 -5.128651e-10 -3.401692e-10) (-3.089134e-14 -1.481165e-09 -5.716184e-12)) ((6.370949e-13 -1.315656e-15 -2.640984e-15) (-2.402508e-10 1.900657e-14 -2.810785e-14))
231946.042656 	((-1.527395e-13 -5.128651e-10 -3.401693e-10) (-3.090463e-14 -1.481165e-09 -5.716179e-12)) ((6.370950e-13 -1.315701e-15 -2.640977e-15) (-2.402508e-10 1.900654e-14 -2.810855e-14))
237429.069057 	((-1.520401e-13 -5.128649e-10 -3.401684e-10) (-3.089566e-14 -1.481165e-09 -5.716164e-12)) ((6.370949e-13 -1.315658e-15 -2.640984e-15) (-2.402508e-10 1.900667e-14 -2.810800e-14))
