# Forces      
# CofR        : (0.000000e+00 0.000000e+00 0.000000e+00)
# Time        forces(pressure viscous)	moments(pressure viscous)
0             	((0.000000e+00 0.000000e+00 0.000000e+00) (0.000000e+00 0.000000e+00 0.000000e+00)) ((0.000000e+00 0.000000e+00 0.000000e+00) (0.000000e+00 0.000000e+00 0.000000e+00))
0.012         	((1.694036e-07 -6.408724e-12 5.341890e-08) (4.180878e-07 -1.768682e-15 3.780807e-11)) ((2.755879e-15 -2.716665e-11 2.195211e-15) (3.124938e-16 -2.782255e-08 1.211711e-16))
0.0264        	((2.516089e-07 -1.427348e-10 8.436143e-08) (3.829736e-07 -3.644710e-14 2.263327e-11)) ((1.545814e-15 1.400352e-11 5.413691e-16) (1.173938e-15 -2.551319e-08 -7.526630e-16))
0.04368       	((1.597814e-07 8.533634e-11 5.104564e-08) (3.467370e-07 4.338366e-14 -9.441623e-13)) ((3.284385e-15 9.959067e-12 1.592640e-15) (3.384711e-15 -2.313732e-08 -3.666814e-15))
0.064416      	((1.896901e-07 -1.034783e-10 6.283344e-08) (3.101761e-07 7.157718e-14 -1.754713e-11)) ((1.931915e-15 1.937417e-11 -2.340549e-16) (6.652371e-15 -2.074838e-08 -4.946532e-15))
0.0892992     	((1.354377e-07 4.520708e-11 4.406333e-08) (2.743300e-07 7.019580e-14 -2.095741e-11)) ((9.551185e-16 1.375157e-11 1.177887e-15) (1.132477e-14 -1.841459e-08 -2.479118e-15))
0.119159      	((1.425434e-07 -5.041549e-11 4.607797e-08) (2.403460e-07 7.907276e-15 -1.770465e-11)) ((1.333780e-15 1.677128e-11 3.306165e-17) (1.002753e-14 -1.621233e-08 9.208051e-16))
0.154991      	((1.054914e-07 2.594612e-11 3.499656e-08) (2.092907e-07 -2.169300e-14 -1.795590e-11)) ((-4.157751e-16 1.168459e-11 1.019690e-16) (1.022575e-14 -1.418806e-08 6.370627e-15))
0.197989      	((1.056176e-07 -1.924653e-11 3.363839e-08) (1.818070e-07 -3.191540e-14 -1.755563e-11)) ((-6.001587e-16 1.318160e-11 -1.355797e-16) (1.006033e-14 -1.239488e-08 1.136075e-14))
0.249587      	((8.111876e-08 1.039051e-11 2.703155e-08) (1.583811e-07 -5.566228e-14 -1.600483e-11)) ((-4.283939e-16 9.410317e-12 5.895950e-17) (8.418106e-15 -1.085494e-08 1.391492e-14))
0.311504      	((7.944564e-08 -3.071458e-12 2.506723e-08) (1.389066e-07 -6.023387e-14 -1.528644e-11)) ((-1.080104e-15 1.038843e-11 9.535347e-17) (9.850972e-15 -9.569195e-09 1.383463e-14))
0.385805      	((6.360912e-08 1.840295e-12 2.119498e-08) (1.228176e-07 -4.577109e-14 -1.566032e-11)) ((-2.816471e-16 7.724751e-12 1.404313e-16) (9.194038e-15 -8.505800e-09 1.405123e-14))
0.474966      	((6.198545e-08 -2.243651e-12 1.951133e-08) (1.095104e-07 -5.150832e-14 -1.460021e-11)) ((-1.088340e-15 8.396840e-12 7.393230e-17) (8.280019e-15 -7.627710e-09 1.911235e-14))
0.581959      	((5.143941e-08 -4.334090e-13 1.709688e-08) (9.830956e-08 -8.722022e-14 -1.406165e-11)) ((-1.919237e-16 6.472323e-12 -1.119965e-16) (-6.654560e-16 -6.888014e-09 1.497687e-14))
0.710351      	((4.998412e-08 1.607908e-12 1.569213e-08) (8.868916e-08 -4.932849e-14 -1.565643e-11)) ((-1.504423e-15 6.971720e-12 -1.756151e-16) (-4.876078e-15 -6.254880e-09 4.191069e-16))
0.864421      	((4.249280e-08 -2.517965e-12 1.407253e-08) (8.023098e-08 -1.760231e-14 -1.428749e-11)) ((-7.704710e-16 5.617796e-12 -2.270028e-16) (-5.527469e-15 -5.698703e-09 -1.159184e-15))
1.049306      	((4.093595e-08 -4.960507e-13 1.283411e-08) (7.269862e-08 2.911013e-14 -1.398146e-11)) ((-1.864319e-15 6.003031e-12 -1.968714e-16) (1.382384e-14 -5.205823e-09 8.670050e-15))
1.271167      	((3.517012e-08 -2.664999e-12 1.157350e-08) (6.589978e-08 -3.320346e-14 -1.309087e-11)) ((-1.275315e-15 5.064330e-12 -7.898332e-16) (3.284176e-14 -4.761449e-09 2.127941e-14))
1.5374        	((3.345577e-08 -3.071974e-12 1.050625e-08) (5.976385e-08 -1.066664e-13 -1.000957e-11)) ((-2.296636e-15 5.270455e-12 -1.124138e-15) (5.003142e-14 -4.360841e-09 3.025895e-14))
1.85688       	((2.896767e-08 -3.133252e-12 9.491425e-09) (5.421834e-08 -2.265381e-13 -7.252126e-12)) ((-2.221233e-15 4.571125e-12 -1.071817e-15) (6.942774e-14 -3.999424e-09 3.039556e-14))
2.240256      	((2.717758e-08 -2.356335e-12 8.598246e-09) (4.923927e-08 -2.730113e-13 -5.382638e-12)) ((-2.978458e-15 4.638649e-12 -9.540868e-16) (9.961712e-14 -3.674702e-09 2.349286e-14))
2.700307      	((2.381850e-08 -2.025111e-12 7.817492e-09) (4.483062e-08 -1.652603e-13 -6.187700e-12)) ((-2.543805e-15 4.142121e-12 -1.061459e-15) (1.546053e-13 -3.387539e-09 -2.480230e-15))
3.252369      	((2.218681e-08 -4.751875e-12 7.104615e-09) (4.093639e-08 -1.158513e-13 -9.003230e-12)) ((-2.923403e-15 4.155581e-12 -1.031708e-15) (2.119287e-13 -3.133515e-09 -6.466137e-14))
3.914842      	((1.977544e-08 -1.141255e-14 6.495193e-09) (3.751611e-08 1.086130e-13 -1.077391e-11)) ((-2.353842e-15 3.870862e-12 -1.203262e-15) (2.614285e-13 -2.911093e-09 -1.491792e-13))
4.709811      	((1.830852e-08 1.651085e-13 5.929461e-09) (3.450667e-08 1.618235e-13 -1.045259e-11)) ((-1.970702e-15 3.840707e-12 -1.647133e-15) (2.869598e-13 -2.715772e-09 -2.166890e-13))
5.663773      	((1.655445e-08 1.692493e-13 5.452376e-09) (3.183478e-08 -2.885534e-14 -8.051714e-12)) ((-1.223597e-15 3.655868e-12 -1.876699e-15) (2.790567e-13 -2.542764e-09 -2.579210e-13))
6.808528      	((1.526924e-08 -4.250378e-12 4.994464e-09) (2.943729e-08 -3.997334e-13 -6.137973e-12)) ((-1.996580e-15 3.578715e-12 -1.996119e-15) (2.610757e-13 -2.387924e-09 -2.651095e-13))
8.182233      	((1.391494e-08 -4.592758e-12 4.599722e-09) (2.726290e-08 -7.090764e-13 -3.684742e-12)) ((-1.564290e-15 3.457593e-12 -1.848106e-15) (2.543088e-13 -2.248339e-09 -2.563436e-13))
9.83068       	((1.275973e-08 -4.866229e-12 4.223827e-09) (2.527335e-08 -9.028848e-13 -1.584525e-12)) ((-1.955873e-15 3.372486e-12 -1.690477e-15) (2.482981e-13 -2.121345e-09 -2.445838e-13))
11.808816     	((1.167082e-08 -3.318223e-12 3.896293e-09) (2.344823e-08 -9.290640e-13 -3.451031e-12)) ((-1.196781e-15 3.284130e-12 -1.472272e-15) (2.242195e-13 -2.005591e-09 -2.221645e-13))
14.182579     	((1.071721e-08 -3.103543e-12 3.587332e-09) (2.177209e-08 -1.150479e-12 -7.729210e-12)) ((-1.168299e-15 3.199491e-12 -1.268695e-15) (1.852294e-13 -1.899859e-09 -1.904836e-13))
17.031095     	((9.823836e-09 -3.135881e-12 3.301092e-09) (2.023132e-08 -1.447764e-12 -1.191777e-11)) ((-8.692135e-16 3.131822e-12 -1.114757e-15) (1.488922e-13 -1.803508e-09 -1.467329e-13))
20.449314     	((9.024990e-09 -3.727719e-12 3.030637e-09) (1.881812e-08 -1.670970e-12 -1.451273e-11)) ((-9.645767e-16 3.064386e-12 -8.932106e-16) (1.152022e-13 -1.715817e-09 -9.569331e-14))
24.551176     	((8.277095e-09 -2.451497e-12 2.780943e-09) (1.752349e-08 -1.869319e-12 -1.551991e-11)) ((-8.100712e-16 3.015286e-12 -6.968657e-16) (8.518208e-14 -1.636097e-09 -5.248721e-14))
29.473411     	((7.602822e-09 -2.088432e-12 2.554256e-09) (1.634066e-08 -1.904810e-12 -1.638819e-11)) ((-8.598826e-16 2.967880e-12 -5.697210e-16) (6.508283e-14 -1.563730e-09 -1.879457e-14))
35.380094     	((6.978771e-09 -2.172463e-12 2.350947e-09) (1.526077e-08 -1.977378e-12 -1.591725e-11)) ((-8.081835e-16 2.930344e-12 -4.762377e-16) (5.536409e-14 -1.498022e-09 3.132640e-15))
42.468112     	((6.418085e-09 -2.283653e-12 2.168709e-09) (1.427385e-08 -1.977041e-12 -1.523411e-11)) ((-8.492279e-16 2.894918e-12 -3.632104e-16) (5.013227e-14 -1.438250e-09 9.652671e-15))
50.973735     	((5.898916e-09 -2.409886e-12 2.004229e-09) (1.337191e-08 -1.985339e-12 -1.453199e-11)) ((-7.968170e-16 2.865518e-12 -2.394940e-16) (4.799386e-14 -1.383865e-09 9.803638e-15))
61.180482     	((5.427655e-09 -2.110100e-12 1.849405e-09) (1.254816e-08 -1.921836e-12 -1.390648e-11)) ((-7.159994e-16 2.838129e-12 -1.437098e-16) (5.113021e-14 -1.334509e-09 6.988441e-15))
73.428578     	((4.999546e-09 -1.062565e-12 1.713815e-09) (1.179758e-08 -1.642624e-12 -1.448484e-11)) ((-7.382589e-16 2.815862e-12 -1.525707e-16) (5.712884e-14 -1.289861e-09 1.710524e-15))
88.126294     	((4.611207e-09 -8.414019e-13 1.590616e-09) (1.111490e-08 -1.458756e-12 -1.505825e-11)) ((-6.226903e-16 2.796298e-12 -1.785629e-16) (6.211321e-14 -1.249554e-09 -3.288845e-15))
105.763553    	((4.270737e-09 -7.606298e-14 1.482469e-09) (1.049579e-08 -1.270042e-12 -1.543247e-11)) ((-5.921263e-16 2.780354e-12 -2.123852e-16) (6.967390e-14 -1.213277e-09 -2.459366e-15))
126.928263    	((3.961782e-09 2.276994e-13 1.380700e-09) (9.935546e-09 -1.070778e-12 -1.578291e-11)) ((-5.658821e-16 2.766475e-12 -2.516080e-16) (7.511817e-14 -1.180742e-09 -4.981801e-15))
152.325916    	((3.688017e-09 3.713762e-13 1.277243e-09) (9.429491e-09 -9.347837e-13 -1.605895e-11)) ((-5.331799e-16 2.755305e-12 -2.796513e-16) (8.190172e-14 -1.151600e-09 -1.097056e-14))
182.803099    	((3.445112e-09 3.827298e-13 1.184744e-09) (8.972919e-09 -8.346423e-13 -1.653327e-11)) ((-5.065680e-16 2.745591e-12 -2.861795e-16) (8.643660e-14 -1.125551e-09 -1.804350e-14))
219.375719    	((3.230632e-09 6.197353e-13 1.110081e-09) (8.561284e-09 -7.090159e-13 -1.761171e-11)) ((-4.893069e-16 2.737458e-12 -2.984105e-16) (8.766608e-14 -1.102270e-09 -2.640468e-14))
263.262863    	((3.040147e-09 8.634126e-13 1.043693e-09) (8.190450e-09 -6.587613e-13 -1.909781e-11)) ((-4.611030e-16 2.731141e-12 -3.176449e-16) (8.521202e-14 -1.081489e-09 -2.880983e-14))
315.927436    	((2.873268e-09 9.603455e-13 9.838741e-10) (7.857241e-09 -6.006072e-13 -2.145054e-11)) ((-4.318152e-16 2.726103e-12 -3.000775e-16) (8.120920e-14 -1.062979e-09 -2.535425e-14))
379.124923    	((2.728132e-09 9.533565e-13 9.325904e-10) (7.558742e-09 -5.510124e-13 -2.451094e-11)) ((-4.286776e-16 2.721708e-12 -2.696166e-16) (7.785487e-14 -1.046550e-09 -1.794848e-14))
454.961908    	((2.603890e-09 8.165735e-13 8.891327e-10) (7.292792e-09 -5.115228e-13 -2.818621e-11)) ((-4.096636e-16 2.718492e-12 -2.643316e-16) (7.539666e-14 -1.032052e-09 -9.327108e-15))
545.966289    	((2.499181e-09 8.817719e-13 8.510630e-10) (7.057647e-09 -4.686660e-13 -3.217041e-11)) ((-3.982494e-16 2.715909e-12 -2.877387e-16) (7.457143e-14 -1.019357e-09 4.487419e-16))
655.171547    	((2.411648e-09 9.344678e-13 8.199626e-10) (6.851744e-09 -4.339310e-13 -3.624336e-11)) ((-3.996845e-16 2.713752e-12 -2.878025e-16) (7.406710e-14 -1.008343e-09 8.187421e-15))
786.217856    	((2.338976e-09 1.008645e-12 7.948277e-10) (6.673612e-09 -3.920381e-13 -4.024769e-11)) ((-4.007683e-16 2.712025e-12 -2.848604e-16) (7.297107e-14 -9.988874e-10 1.359730e-14))
943.473427    	((2.279766e-09 1.058383e-12 7.749932e-10) (6.521568e-09 -3.549277e-13 -4.421926e-11)) ((-3.852396e-16 2.710702e-12 -2.895248e-16) (7.170310e-14 -9.908620e-10 1.828165e-14))
1132.180113   	((2.231835e-09 1.031179e-12 7.594319e-10) (6.393750e-09 -3.252178e-13 -4.829064e-11)) ((-3.794302e-16 2.709655e-12 -2.930357e-16) (7.043817e-14 -9.841347e-10 2.304356e-14))
1358.628135   	((2.193336e-09 1.035608e-12 7.470658e-10) (6.287982e-09 -2.946778e-13 -5.234864e-11)) ((-3.740825e-16 2.708747e-12 -2.948679e-16) (6.972147e-14 -9.785734e-10 2.722059e-14))
1630.365763   	((2.162790e-09 1.053868e-12 7.376856e-10) (6.201915e-09 -2.617471e-13 -5.628408e-11)) ((-3.728398e-16 2.708026e-12 -2.926903e-16) (6.908248e-14 -9.740431e-10 3.085529e-14))
1956.450915   	((2.139004e-09 1.100165e-12 7.301980e-10) (6.133015e-09 -2.282599e-13 -6.000279e-11)) ((-3.687107e-16 2.707468e-12 -2.918319e-16) (6.879301e-14 -9.704014e-10 3.390783e-14))
2347.753098   	((2.120605e-09 1.149401e-12 7.245338e-10) (6.078749e-09 -2.040132e-13 -6.335827e-11)) ((-3.660188e-16 2.707018e-12 -2.909041e-16) (6.820373e-14 -9.675126e-10 3.644456e-14))
2817.315718   	((2.106473e-09 1.185231e-12 7.200728e-10) (6.036638e-09 -1.884340e-13 -6.629530e-11)) ((-3.618547e-16 2.706659e-12 -2.894281e-16) (6.734077e-14 -9.652479e-10 3.868378e-14))
3380.790861   	((2.095694e-09 1.207767e-12 7.166448e-10) (6.004413e-09 -1.786489e-13 -6.878847e-11)) ((-3.585357e-16 2.706374e-12 -2.884348e-16) (6.652572e-14 -9.634916e-10 4.042885e-14))
4056.961033   	((2.087502e-09 1.224346e-12 7.141140e-10) (5.980058e-09 -1.724677e-13 -7.084809e-11)) ((-3.557690e-16 2.706144e-12 -2.871062e-16) (6.585650e-14 -9.621420e-10 4.162195e-14))
4868.36524    	((2.081283e-09 1.234566e-12 7.122169e-10) (5.961852e-09 -1.676497e-13 -7.250347e-11)) ((-3.541161e-16 2.705956e-12 -2.859992e-16) (6.530490e-14 -9.611125e-10 4.248859e-14))
5817.433088   	((2.076591e-09 1.236438e-12 7.108078e-10) (5.948385e-09 -1.653529e-13 -7.380559e-11)) ((-3.538015e-16 2.705818e-12 -2.854886e-16) (6.484763e-14 -9.603328e-10 4.312547e-14))
6904.16287    	((2.073056e-09 1.229134e-12 7.097620e-10) (5.938510e-09 -1.652175e-13 -7.480895e-11)) ((-3.535841e-16 2.705716e-12 -2.845026e-16) (6.442829e-14 -9.597456e-10 4.355687e-14))
8128.553392   	((2.070379e-09 1.226587e-12 7.089385e-10) (5.931325e-09 -1.659025e-13 -7.556571e-11)) ((-3.535531e-16 2.705639e-12 -2.839139e-16) (6.411609e-14 -9.593052e-10 4.385811e-14))
9490.60383    	((2.068337e-09 1.223878e-12 7.083313e-10) (5.926125e-09 -1.662996e-13 -7.612813e-11)) ((-3.528151e-16 2.705580e-12 -2.826854e-16) (6.388129e-14 -9.589753e-10 4.405614e-14))
10867.197379  	((2.066802e-09 1.216158e-12 7.079001e-10) (5.922388e-09 -1.664884e-13 -7.653853e-11)) ((-3.527015e-16 2.705569e-12 -2.822427e-16) (6.371452e-14 -9.587298e-10 4.422879e-14))
12243.787559  	((2.065647e-09 1.213537e-12 7.075838e-10) (5.919710e-09 -1.669069e-13 -7.683255e-11)) ((-3.527308e-16 2.705567e-12 -2.817062e-16) (6.357165e-14 -9.585468e-10 4.431211e-14))
13620.375982  	((2.064763e-09 1.209556e-12 7.073549e-10) (5.917796e-09 -1.674667e-13 -7.704122e-11)) ((-3.526826e-16 2.705568e-12 -2.814835e-16) (6.346129e-14 -9.584102e-10 4.437795e-14))
14996.963067  	((2.064085e-09 1.205882e-12 7.072022e-10) (5.916431e-09 -1.680157e-13 -7.718859e-11)) ((-3.524603e-16 2.705568e-12 -2.812163e-16) (6.337728e-14 -9.583078e-10 4.440949e-14))
16373.549206  	((2.063562e-09 1.200425e-12 7.071069e-10) (5.915459e-09 -1.684378e-13 -7.729168e-11)) ((-3.522176e-16 2.705569e-12 -2.810401e-16) (6.331355e-14 -9.582308e-10 4.443038e-14))
17750.134812  	((2.063156e-09 1.194714e-12 7.070484e-10) (5.914768e-09 -1.687924e-13 -7.736356e-11)) ((-3.520526e-16 2.705570e-12 -2.808816e-16) (6.326370e-14 -9.581728e-10 4.444398e-14))
19126.72016   	((2.062842e-09 1.189843e-12 7.070318e-10) (5.914277e-09 -1.690797e-13 -7.741324e-11)) ((-3.519592e-16 2.705571e-12 -2.808085e-16) (6.322645e-14 -9.581288e-10 4.445600e-14))
20503.30542   	((2.062593e-09 1.191676e-12 7.070095e-10) (5.913927e-09 -1.692446e-13 -7.744728e-11)) ((-3.518769e-16 2.705572e-12 -2.807518e-16) (6.319831e-14 -9.580955e-10 4.446739e-14))
21879.89069   	((2.062400e-09 1.186907e-12 7.070318e-10) (5.913679e-09 -1.694432e-13 -7.747054e-11)) ((-3.517468e-16 2.705573e-12 -2.806947e-16) (6.317450e-14 -9.580700e-10 4.447519e-14))
23256.476024  	((2.062251e-09 1.176839e-12 7.070323e-10) (5.913504e-09 -1.697344e-13 -7.748672e-11)) ((-3.516477e-16 2.705574e-12 -2.806174e-16) (6.315964e-14 -9.580505e-10 4.447449e-14))
24633.061449  	((2.062134e-09 1.168620e-12 7.070364e-10) (5.913379e-09 -1.700157e-13 -7.749777e-11)) ((-3.515649e-16 2.705574e-12 -2.806161e-16) (6.314899e-14 -9.580356e-10 4.447959e-14))
26009.646973  	((2.062039e-09 1.176213e-12 7.070289e-10) (5.913291e-09 -1.700328e-13 -7.750485e-11)) ((-3.518339e-16 2.705575e-12 -2.807305e-16) (6.314200e-14 -9.580241e-10 4.448710e-14))
27386.232593  	((2.061967e-09 1.168042e-12 7.070691e-10) (5.913230e-09 -1.702452e-13 -7.750964e-11)) ((-3.515570e-16 2.705576e-12 -2.805769e-16) (6.313479e-14 -9.580152e-10 4.449045e-14))
28762.818303  	((2.061910e-09 1.160186e-12 7.070814e-10) (5.913186e-09 -1.704007e-13 -7.751296e-11)) ((-3.515104e-16 2.705576e-12 -2.805507e-16) (6.313160e-14 -9.580083e-10 4.449272e-14))
30139.404094  	((2.061864e-09 1.162146e-12 7.071083e-10) (5.913156e-09 -1.704256e-13 -7.751486e-11)) ((-3.517615e-16 2.705576e-12 -2.806701e-16) (6.312825e-14 -9.580030e-10 4.449773e-14))
31515.989954  	((2.061826e-09 1.163123e-12 7.071309e-10) (5.913135e-09 -1.704174e-13 -7.751576e-11)) ((-3.518344e-16 2.705577e-12 -2.806212e-16) (6.312541e-14 -9.579988e-10 4.449834e-14))
32892.575874  	((2.061796e-09 1.163447e-12 7.071528e-10) (5.913120e-09 -1.704121e-13 -7.751617e-11)) ((-3.518479e-16 2.705577e-12 -2.805821e-16) (6.312241e-14 -9.579956e-10 4.449773e-14))
34269.161844  	((2.061769e-09 1.163248e-12 7.071733e-10) (5.913110e-09 -1.704188e-13 -7.751627e-11)) ((-3.518311e-16 2.705577e-12 -2.805751e-16) (6.312078e-14 -9.579931e-10 4.449913e-14))
35645.747855  	((2.061748e-09 1.162784e-12 7.071924e-10) (5.913103e-09 -1.704320e-13 -7.751619e-11)) ((-3.518133e-16 2.705578e-12 -2.805739e-16) (6.311956e-14 -9.579911e-10 4.450057e-14))
37022.333901  	((2.061731e-09 1.162222e-12 7.072093e-10) (5.913098e-09 -1.704518e-13 -7.751603e-11)) ((-3.517943e-16 2.705578e-12 -2.805745e-16) (6.311844e-14 -9.579896e-10 4.450185e-14))
38398.919976  	((2.061716e-09 1.161524e-12 7.072254e-10) (5.913095e-09 -1.704672e-13 -7.751571e-11)) ((-3.517743e-16 2.705578e-12 -2.805792e-16) (6.311857e-14 -9.579883e-10 4.450332e-14))
39775.506074  	((2.061705e-09 1.160915e-12 7.072395e-10) (5.913093e-09 -1.704819e-13 -7.751542e-11)) ((-3.517595e-16 2.705578e-12 -2.805830e-16) (6.311870e-14 -9.579874e-10 4.450470e-14))
41152.092191  	((2.061696e-09 1.160378e-12 7.072520e-10) (5.913091e-09 -1.704993e-13 -7.751517e-11)) ((-3.517469e-16 2.705578e-12 -2.805878e-16) (6.311852e-14 -9.579866e-10 4.450606e-14))
42528.678323  	((2.061688e-09 1.159925e-12 7.072630e-10) (5.913090e-09 -1.705143e-13 -7.751494e-11)) ((-3.517360e-16 2.705579e-12 -2.805920e-16) (6.311826e-14 -9.579860e-10 4.450731e-14))
43905.264468  	((2.061682e-09 1.159532e-12 7.072727e-10) (5.913090e-09 -1.705248e-13 -7.751474e-11)) ((-3.517261e-16 2.705579e-12 -2.805958e-16) (6.311806e-14 -9.579855e-10 4.450842e-14))
45281.850622  	((2.061677e-09 1.159117e-12 7.072814e-10) (5.913089e-09 -1.705132e-13 -7.751458e-11)) ((-3.517184e-16 2.705579e-12 -2.805963e-16) (6.311835e-14 -9.579851e-10 4.450974e-14))
46658.436784  	((2.061673e-09 1.158827e-12 7.072889e-10) (5.913089e-09 -1.705631e-13 -7.751442e-11)) ((-3.517142e-16 2.705579e-12 -2.806011e-16) (6.311676e-14 -9.579848e-10 4.451046e-14))
48035.022953  	((2.061670e-09 1.158404e-12 7.072956e-10) (5.913089e-09 -1.706185e-13 -7.751427e-11)) ((-3.517098e-16 2.705579e-12 -2.806036e-16) (6.311394e-14 -9.579846e-10 4.451090e-14))
49411.609126  	((2.061667e-09 1.157906e-12 7.073013e-10) (5.913089e-09 -1.706469e-13 -7.751414e-11)) ((-3.517145e-16 2.705579e-12 -2.806056e-16) (6.311233e-14 -9.579844e-10 4.451142e-14))
50788.195304  	((2.061665e-09 1.157750e-12 7.073062e-10) (5.913089e-09 -1.706596e-13 -7.751402e-11)) ((-3.517088e-16 2.705579e-12 -2.806088e-16) (6.311217e-14 -9.579843e-10 4.451174e-14))
52164.781485  	((2.061663e-09 1.157612e-12 7.073105e-10) (5.913089e-09 -1.706705e-13 -7.751391e-11)) ((-3.517054e-16 2.705579e-12 -2.806113e-16) (6.311221e-14 -9.579842e-10 4.451203e-14))
53541.367668  	((2.061662e-09 1.157678e-12 7.073141e-10) (5.913089e-09 -1.706915e-13 -7.751386e-11)) ((-3.517055e-16 2.705579e-12 -2.806142e-16) (6.311226e-14 -9.579841e-10 4.451247e-14))
54917.953854  	((2.061660e-09 1.157747e-12 7.073173e-10) (5.913090e-09 -1.707085e-13 -7.751377e-11)) ((-3.516987e-16 2.705579e-12 -2.806186e-16) (6.311085e-14 -9.579840e-10 4.451319e-14))
56294.540041  	((2.061659e-09 1.157842e-12 7.073201e-10) (5.913090e-09 -1.707087e-13 -7.751369e-11)) ((-3.516904e-16 2.705579e-12 -2.806369e-16) (6.311047e-14 -9.579839e-10 4.451376e-14))
57671.12623   	((2.061658e-09 1.157461e-12 7.073222e-10) (5.913090e-09 -1.706931e-13 -7.751361e-11)) ((-3.516983e-16 2.705579e-12 -2.806113e-16) (6.310927e-14 -9.579839e-10 4.451438e-14))
59047.712419  	((2.061658e-09 1.157202e-12 7.073240e-10) (5.913090e-09 -1.706749e-13 -7.751354e-11)) ((-3.517041e-16 2.705579e-12 -2.806144e-16) (6.310937e-14 -9.579838e-10 4.451498e-14))
60424.29861   	((2.061657e-09 1.157456e-12 7.073259e-10) (5.913090e-09 -1.706902e-13 -7.751350e-11)) ((-3.516958e-16 2.705579e-12 -2.806142e-16) (6.310996e-14 -9.579838e-10 4.451487e-14))
