# Forces      
# CofR        : (0.000000e+00 0.000000e+00 0.000000e+00)
# Time        forces(pressure viscous)	moments(pressure viscous)
0             	((0.000000e+00 0.000000e+00 0.000000e+00) (0.000000e+00 0.000000e+00 0.000000e+00)) ((0.000000e+00 0.000000e+00 0.000000e+00) (0.000000e+00 0.000000e+00 0.000000e+00))
0.012         	((-1.627133e-12 3.800573e-10 -4.944825e-12) (-4.860213e-14 4.262763e-12 -1.786807e-14)) ((-2.733664e-14 -9.954078e-17 -5.231708e-12) (8.140269e-14 2.228254e-15 -1.063920e-08))
0.0264        	((1.232225e-12 -1.378462e-10 1.142571e-11) (-5.500781e-14 4.547884e-12 -2.800440e-14)) ((-6.431464e-14 4.761651e-16 -1.568477e-12) (1.448077e-13 2.142648e-15 -9.311742e-09))
0.04368       	((-7.343130e-12 6.944190e-11 -6.963536e-12) (-6.933677e-14 2.982105e-12 -6.138612e-14)) ((2.957776e-14 -7.448516e-17 -8.208980e-13) (1.223877e-13 2.926986e-15 -8.052745e-09))
0.064416      	((-5.121433e-12 5.528973e-12 2.646507e-12) (-6.952609e-14 1.597058e-12 -4.953011e-14)) ((-8.256232e-15 -1.238483e-16 -5.502791e-13) (6.253697e-14 3.632683e-15 -6.896635e-09))
0.0892992     	((-7.401397e-12 3.345932e-11 -2.436867e-12) (-5.933433e-14 1.013521e-12 -2.415904e-15)) ((9.011930e-15 -6.403293e-16 -4.427533e-13) (3.001243e-14 3.581932e-15 -5.873993e-09))
0.119159      	((-2.922027e-12 2.874132e-12 -1.938852e-12) (-8.519316e-14 8.609852e-13 2.792212e-14)) ((5.520617e-15 -4.825394e-16 -3.511594e-13) (-1.187919e-14 4.359857e-15 -4.999094e-09))
0.154991      	((-5.536969e-12 2.797377e-11 -1.689403e-12) (-1.035500e-13 6.383027e-13 5.363715e-14)) ((5.280052e-15 -6.350967e-16 -2.803972e-13) (-4.234072e-14 4.810993e-15 -4.278301e-09))
0.197989      	((-5.226543e-12 2.176807e-11 -2.197747e-12) (-6.565500e-14 4.010942e-13 6.930737e-14)) ((4.175423e-15 -3.600765e-16 -2.190972e-13) (-5.792089e-14 2.420927e-15 -3.699447e-09))
0.249587      	((-7.067582e-12 2.525048e-11 -1.758212e-12) (4.784520e-15 1.388887e-13 7.380617e-14)) ((4.246144e-15 -2.067192e-16 -1.806866e-13) (-5.333439e-14 -1.502963e-15 -3.238937e-09))
0.311504      	((-1.154878e-11 3.277625e-11 -3.295504e-12) (5.307554e-14 -8.440634e-14 1.019559e-13)) ((3.045804e-15 6.052435e-17 -1.597097e-13) (-4.464641e-14 -4.089843e-15 -2.868887e-09))
0.385805      	((-1.392118e-11 4.232522e-11 -3.216514e-12) (4.903820e-14 8.853325e-14 1.361540e-13)) ((2.293448e-15 -3.944183e-17 -1.392076e-13) (-3.388048e-14 -5.097104e-15 -2.563996e-09))
0.474966      	((-1.904626e-11 5.131469e-11 -4.937840e-12) (1.218797e-13 2.352658e-13 1.443352e-13)) ((-2.592117e-16 1.232924e-16 -1.214310e-13) (-1.071071e-14 -5.962087e-15 -2.305291e-09))
0.581959      	((-2.518799e-11 6.638396e-11 -5.961557e-12) (2.011446e-13 4.406567e-13 1.161785e-13)) ((-1.426893e-15 4.455722e-17 -1.126217e-13) (3.506672e-14 -7.401839e-15 -2.080319e-09))
0.710351      	((-3.089384e-11 6.620972e-11 -7.329064e-12) (4.812393e-13 1.053752e-12 4.249093e-14)) ((-2.905392e-15 9.245193e-19 -1.071640e-13) (7.374179e-14 -1.220887e-14 -1.881356e-09))
0.864421      	((-3.482296e-11 5.331052e-11 -7.017365e-12) (1.042597e-12 8.143268e-13 6.319874e-14)) ((-4.462793e-15 -2.414963e-16 -1.020936e-13) (6.654008e-14 -2.351713e-14 -1.703546e-09))
1.049306      	((-3.675832e-11 4.790223e-11 -6.373616e-12) (1.752367e-12 -6.329006e-13 1.553009e-15)) ((-5.635235e-15 -4.512560e-16 -9.665806e-14) (2.527254e-14 -3.525969e-14 -1.543891e-09))
1.271167      	((-3.249138e-11 4.171435e-11 -7.169925e-12) (3.103283e-12 -2.630636e-12 -8.212439e-14)) ((-7.124627e-15 -7.543040e-16 -9.257377e-14) (-2.609376e-14 -6.203630e-14 -1.400874e-09))
1.5374        	((-2.478283e-11 4.080715e-11 -6.105523e-12) (5.203542e-12 -4.903634e-12 -4.643317e-14)) ((-6.378281e-15 -9.030350e-16 -8.963322e-14) (-8.280194e-14 -1.172045e-13 -1.273764e-09))
1.85688       	((-1.748308e-11 3.139019e-11 -3.778844e-12) (7.776382e-12 -6.610707e-12 -4.738126e-14)) ((-5.814563e-15 -1.125973e-15 -8.587583e-14) (-1.446676e-13 -1.812990e-13 -1.161861e-09))
2.240256      	((-9.373605e-12 2.078229e-11 -2.407595e-12) (1.091246e-11 -8.445206e-12 -1.366692e-13)) ((-6.744060e-15 -1.292786e-15 -8.123763e-14) (-2.236837e-13 -2.672150e-13 -1.064055e-09))
2.700307      	((-5.886209e-12 1.262933e-11 -5.363068e-13) (1.423121e-11 -1.135952e-11 -4.268470e-13)) ((-6.252082e-15 -1.333827e-15 -7.717332e-14) (-3.282904e-13 -3.699509e-13 -9.787009e-10))
3.252369      	((3.252000e-13 7.145309e-12 -2.139650e-12) (1.740595e-11 -1.479055e-11 -6.823798e-13)) ((-5.174997e-15 -1.333306e-15 -7.192004e-14) (-4.236440e-13 -4.645111e-13 -9.038656e-10))
3.914842      	((5.627499e-13 -3.581036e-12 -1.559278e-12) (1.953743e-11 -1.768426e-11 -6.779709e-13)) ((-3.938231e-15 -1.067433e-15 -6.713692e-14) (-4.784770e-13 -5.260489e-13 -8.375906e-10))
4.709811      	((5.178330e-12 -1.168300e-11 -7.803764e-13) (2.048243e-11 -1.947426e-11 -6.456933e-13)) ((-2.630117e-15 -5.281954e-16 -6.301581e-14) (-5.129565e-13 -5.584339e-13 -7.782088e-10))
5.663773      	((5.945540e-12 -5.301283e-12 -1.023493e-12) (2.022134e-11 -1.969816e-11 -4.737675e-13)) ((-2.720333e-15 -1.511163e-16 -5.877767e-14) (-5.052601e-13 -5.604725e-13 -7.245043e-10))
6.808528      	((7.109326e-12 -5.224753e-12 -1.622684e-12) (1.859893e-11 -1.821070e-11 -3.018269e-13)) ((-2.502874e-15 3.493527e-17 -5.475854e-14) (-4.522893e-13 -5.241195e-13 -6.755190e-10))
8.182233      	((5.673363e-12 -3.528689e-12 -2.254994e-12) (1.606948e-11 -1.551731e-11 -7.738219e-14)) ((-1.715738e-15 3.345973e-16 -5.086658e-14) (-3.890930e-13 -4.566416e-13 -6.305174e-10))
9.83068       	((5.410725e-12 1.718685e-12 -2.644095e-12) (1.289592e-11 -1.241162e-11 1.871570e-13)) ((-1.779928e-15 5.740283e-16 -4.725211e-14) (-3.112503e-13 -3.770683e-13 -5.890966e-10))
11.808816     	((5.320414e-13 9.084959e-12 -3.373114e-12) (9.676445e-12 -9.168776e-12 2.515128e-13)) ((-9.538847e-16 8.804704e-16 -4.387327e-14) (-2.138106e-13 -2.942216e-13 -5.510742e-10))
14.182579     	((-7.237728e-13 5.796198e-12 -3.822782e-12) (6.869231e-12 -6.513624e-12 3.794382e-13)) ((2.240743e-17 9.986654e-16 -4.063115e-14) (-1.298967e-13 -2.230080e-13 -5.162239e-10))
17.031095     	((-4.240477e-12 5.949929e-12 -5.210816e-12) (4.698737e-12 -4.506558e-12 5.965723e-13)) ((8.768904e-16 8.137919e-16 -3.781785e-14) (-8.599574e-14 -1.666519e-13 -4.843211e-10))
20.449314     	((-5.003748e-12 6.968305e-12 -6.274368e-12) (3.411758e-12 -3.278811e-12 8.828188e-13)) ((1.115303e-15 7.710572e-16 -3.517583e-14) (-6.522138e-14 -1.360841e-13 -4.551504e-10))
24.551176     	((-6.844203e-12 7.684088e-12 -6.796787e-12) (2.955474e-12 -2.887601e-12 1.269707e-12)) ((1.435402e-15 6.873488e-16 -3.283423e-14) (-6.754829e-14 -1.254974e-13 -4.284689e-10))
29.473411     	((-5.894704e-12 5.935851e-12 -7.446097e-12) (3.216632e-12 -3.353257e-12 1.584923e-12)) ((1.477466e-15 6.164570e-16 -3.079726e-14) (-8.345822e-14 -1.308691e-13 -4.040299e-10))
35.380094     	((-5.389411e-12 5.484156e-12 -8.224522e-12) (3.974520e-12 -4.469563e-12 2.009099e-12)) ((1.495747e-15 5.831519e-16 -2.899900e-14) (-1.174132e-13 -1.469499e-13 -3.816205e-10))
42.468112     	((-4.321906e-12 3.761659e-12 -8.888855e-12) (4.969653e-12 -5.803698e-12 2.422057e-12)) ((1.584928e-15 5.387248e-16 -2.737396e-14) (-1.559120e-13 -1.673941e-13 -3.610868e-10))
50.973735     	((-4.094079e-12 3.789886e-12 -9.598918e-12) (5.908848e-12 -6.920918e-12 2.817925e-12)) ((1.606540e-15 4.737958e-16 -2.582642e-14) (-1.888000e-13 -1.872011e-13 -3.423236e-10))
61.180482     	((-3.151315e-12 2.438670e-12 -1.024421e-11) (6.661369e-12 -7.840633e-12 3.240216e-12)) ((1.583703e-15 3.886630e-16 -2.438135e-14) (-2.164657e-13 -2.026468e-13 -3.252230e-10))
73.428578     	((-2.576534e-12 2.606057e-12 -1.086347e-11) (7.262657e-12 -8.492084e-12 3.680599e-12)) ((1.617437e-15 3.208756e-16 -2.308020e-14) (-2.349955e-13 -2.162918e-13 -3.096694e-10))
88.126294     	((-2.000007e-12 1.717816e-12 -1.135331e-11) (7.708525e-12 -8.870953e-12 4.121667e-12)) ((1.701577e-15 2.508307e-16 -2.191956e-14) (-2.444016e-13 -2.252429e-13 -2.955491e-10))
105.763553    	((-1.315417e-12 9.491084e-13 -1.194449e-11) (7.985610e-12 -9.148846e-12 4.582264e-12)) ((1.733238e-15 1.914869e-16 -2.090660e-14) (-2.530260e-13 -2.286372e-13 -2.827344e-10))
126.928263    	((-9.503141e-13 7.694371e-13 -1.276510e-11) (8.087333e-12 -9.308178e-12 5.069886e-12)) ((1.700290e-15 1.350542e-16 -2.001621e-14) (-2.583445e-13 -2.276615e-13 -2.710919e-10))
152.325916    	((-6.970501e-13 7.324934e-13 -1.359036e-11) (8.096729e-12 -9.303417e-12 5.569215e-12)) ((1.625047e-15 7.801830e-17 -1.920242e-14) (-2.589521e-13 -2.261614e-13 -2.604974e-10))
182.803099    	((-3.480212e-13 7.673732e-13 -1.436045e-11) (7.997834e-12 -9.219275e-12 6.052926e-12)) ((1.528746e-15 2.076674e-17 -1.842862e-14) (-2.563828e-13 -2.221502e-13 -2.508425e-10))
219.375719    	((5.467469e-14 5.430276e-13 -1.502566e-11) (7.778624e-12 -9.055299e-12 6.576018e-12)) ((1.499461e-15 -3.212520e-18 -1.770167e-14) (-2.500480e-13 -2.135958e-13 -2.420328e-10))
263.262863    	((3.803353e-13 3.520094e-13 -1.590331e-11) (7.462447e-12 -8.781415e-12 7.086903e-12)) ((1.490895e-15 -5.835354e-17 -1.703784e-14) (-2.394814e-13 -2.026051e-13 -2.339886e-10))
315.927436    	((6.212382e-13 2.587397e-13 -1.676280e-11) (7.121115e-12 -8.463976e-12 7.582381e-12)) ((1.438686e-15 -1.062354e-16 -1.643196e-14) (-2.269838e-13 -1.912105e-13 -2.266411e-10))
379.124923    	((6.436395e-13 3.443326e-13 -1.774571e-11) (6.769237e-12 -8.110792e-12 8.105675e-12)) ((1.363678e-15 -1.635190e-16 -1.587372e-14) (-2.151765e-13 -1.804557e-13 -2.199336e-10))
454.961908    	((6.625876e-13 2.618565e-13 -1.834521e-11) (6.420302e-12 -7.720208e-12 8.637947e-12)) ((1.284678e-15 -1.875216e-16 -1.537484e-14) (-2.023013e-13 -1.709045e-13 -2.138213e-10))
545.966289    	((6.926281e-13 2.457140e-13 -1.896506e-11) (6.065597e-12 -7.294033e-12 9.162801e-12)) ((1.240263e-15 -2.000879e-16 -1.492881e-14) (-1.888777e-13 -1.604372e-13 -2.082637e-10))
655.171547    	((8.417924e-13 8.295759e-14 -1.965049e-11) (5.705217e-12 -6.874691e-12 9.679864e-12)) ((1.207780e-15 -1.848863e-16 -1.452909e-14) (-1.763790e-13 -1.496680e-13 -2.032234e-10))
786.217856    	((9.642426e-13 -7.404037e-14 -2.035095e-11) (5.337410e-12 -6.457517e-12 1.020156e-11)) ((1.216771e-15 -1.842668e-16 -1.416907e-14) (-1.644471e-13 -1.388191e-13 -1.986646e-10))
943.473427    	((1.204975e-12 -2.051886e-13 -2.105134e-11) (4.977163e-12 -6.031286e-12 1.070925e-11)) ((1.248823e-15 -1.760254e-16 -1.385415e-14) (-1.523361e-13 -1.280286e-13 -1.945501e-10))
1132.180113   	((1.366000e-12 -3.576709e-13 -2.167201e-11) (4.614640e-12 -5.609650e-12 1.119043e-11)) ((1.276415e-15 -1.640960e-16 -1.354916e-14) (-1.403157e-13 -1.168940e-13 -1.908445e-10))
1358.628135   	((1.539567e-12 -5.011631e-13 -2.224387e-11) (4.267870e-12 -5.217445e-12 1.165097e-11)) ((1.304005e-15 -1.662003e-16 -1.326710e-14) (-1.295523e-13 -1.064239e-13 -1.875133e-10))
1630.365763   	((1.762493e-12 -5.984593e-13 -2.282445e-11) (3.940306e-12 -4.846499e-12 1.210538e-11)) ((1.326847e-15 -1.688280e-16 -1.301383e-14) (-1.197481e-13 -9.593662e-14 -1.845218e-10))
1956.450915   	((2.006637e-12 -5.795664e-13 -2.340433e-11) (3.629895e-12 -4.488828e-12 1.256141e-11)) ((1.342257e-15 -1.798687e-16 -1.278605e-14) (-1.101404e-13 -8.541552e-14 -1.818359e-10))
2347.753098   	((2.339831e-12 -5.333100e-13 -2.399487e-11) (3.359048e-12 -4.146766e-12 1.299708e-11)) ((1.351572e-15 -1.955018e-16 -1.258293e-14) (-1.007238e-13 -7.626207e-14 -1.794252e-10))
2817.315718   	((2.748505e-12 -4.250763e-13 -2.463541e-11) (3.113712e-12 -3.828169e-12 1.341881e-11)) ((1.351678e-15 -2.076708e-16 -1.240187e-14) (-9.196116e-14 -6.811575e-14 -1.772618e-10))
3380.790861   	((3.229032e-12 -2.664483e-13 -2.531577e-11) (2.892600e-12 -3.545716e-12 1.382343e-11)) ((1.348696e-15 -2.218438e-16 -1.223354e-14) (-8.401724e-14 -6.062693e-14 -1.753192e-10))
4056.961033   	((3.757461e-12 -3.510529e-14 -2.608232e-11) (2.697358e-12 -3.298032e-12 1.419945e-11)) ((1.351657e-15 -2.399833e-16 -1.208223e-14) (-7.706661e-14 -5.419211e-14 -1.735733e-10))
4868.36524    	((4.378809e-12 2.563768e-13 -2.692733e-11) (2.531992e-12 -3.087808e-12 1.455172e-11)) ((1.358874e-15 -2.623757e-16 -1.194923e-14) (-7.114561e-14 -4.882922e-14 -1.720028e-10))
5842.050288   	((5.121106e-12 5.494512e-13 -2.788377e-11) (2.394670e-12 -2.907594e-12 1.487016e-11)) ((1.367888e-15 -2.851180e-16 -1.182891e-14) (-6.622937e-14 -4.450933e-14 -1.705888e-10))
7010.472346   	((6.077023e-12 8.879680e-13 -2.896021e-11) (2.284793e-12 -2.744409e-12 1.514886e-11)) ((1.383715e-15 -3.103801e-16 -1.171537e-14) (-6.220612e-14 -4.117340e-14 -1.693142e-10))
8412.578815   	((7.159098e-12 1.273141e-12 -3.013794e-11) (2.195754e-12 -2.597744e-12 1.539550e-11)) ((1.403650e-15 -3.437660e-16 -1.161063e-14) (-5.894668e-14 -3.840446e-14 -1.681642e-10))
10095.106578  	((8.427293e-12 1.695528e-12 -3.148931e-11) (2.124084e-12 -2.458228e-12 1.560946e-11)) ((1.418088e-15 -3.874270e-16 -1.151436e-14) (-5.604567e-14 -3.597059e-14 -1.671253e-10))
12114.139893  	((9.920627e-12 2.136361e-12 -3.299119e-11) (2.070589e-12 -2.319739e-12 1.578828e-11)) ((1.427815e-15 -4.356180e-16 -1.142801e-14) (-5.317686e-14 -3.380333e-14 -1.661855e-10))
14536.979872  	((1.167236e-11 2.577432e-12 -3.467276e-11) (2.032046e-12 -2.183852e-12 1.594196e-11)) ((1.438627e-15 -4.985416e-16 -1.134995e-14) (-5.045508e-14 -3.182749e-14 -1.653345e-10))
17444.387847  	((1.372690e-11 3.067647e-12 -3.658711e-11) (2.005809e-12 -2.052156e-12 1.607160e-11)) ((1.451754e-15 -5.719021e-16 -1.127912e-14) (-4.772903e-14 -2.973501e-14 -1.645635e-10))
20933.277416  	((1.600925e-11 3.635772e-12 -3.870383e-11) (1.994293e-12 -1.927579e-12 1.617408e-11)) ((1.467241e-15 -6.436541e-16 -1.121348e-14) (-4.526416e-14 -2.752787e-14 -1.638644e-10))
25119.944899  	((1.842844e-11 4.345780e-12 -4.098537e-11) (1.994962e-12 -1.808585e-12 1.624915e-11)) ((1.490269e-15 -7.145338e-16 -1.115278e-14) (-4.317020e-14 -2.522884e-14 -1.632300e-10))
30117.001817  	((2.087913e-11 5.196596e-12 -4.340133e-11) (2.007813e-12 -1.691452e-12 1.630719e-11)) ((1.515916e-15 -7.798386e-16 -1.109761e-14) (-4.122520e-14 -2.315829e-14 -1.626539e-10))
35924.460144  	((2.331593e-11 6.105565e-12 -4.592670e-11) (2.029914e-12 -1.578012e-12 1.635079e-11)) ((1.541206e-15 -8.457745e-16 -1.104603e-14) (-3.956179e-14 -2.143456e-14 -1.621304e-10))
42542.330702  	((2.570648e-11 7.060387e-12 -4.853381e-11) (2.056453e-12 -1.470937e-12 1.637707e-11)) ((1.566636e-15 -9.017099e-16 -1.099793e-14) (-3.829301e-14 -1.984795e-14 -1.616545e-10))
49970.623185  	((2.800241e-11 8.109831e-12 -5.095362e-11) (2.079759e-12 -1.370394e-12 1.639429e-11)) ((1.589270e-15 -9.448631e-16 -1.095433e-14) (-3.746887e-14 -1.843434e-14 -1.612213e-10))
58074.929033  	((3.015387e-11 9.187488e-12 -5.332491e-11) (2.098255e-12 -1.274066e-12 1.640954e-11)) ((1.610297e-15 -9.879168e-16 -1.091150e-14) (-3.693547e-14 -1.708644e-14 -1.608269e-10))
66179.311803  	((3.215971e-11 1.032274e-11 -5.564169e-11) (2.108332e-12 -1.180227e-12 1.642288e-11)) ((1.633329e-15 -1.031272e-15 -1.086821e-14) (-3.653165e-14 -1.551694e-14 -1.604679e-10))
74283.76277   	((3.409248e-11 1.154078e-11 -5.766474e-11) (2.109709e-12 -1.091595e-12 1.643626e-11)) ((1.663673e-15 -1.072251e-15 -1.082506e-14) (-3.624034e-14 -1.370051e-14 -1.601409e-10))
82388.274536  	((3.586137e-11 1.282307e-11 -5.957976e-11) (2.102238e-12 -1.009767e-12 1.644894e-11)) ((1.692799e-15 -1.102161e-15 -1.078348e-14) (-3.607961e-14 -1.160756e-14 -1.598429e-10))
90492.840884  	((3.739877e-11 1.414209e-11 -6.126461e-11) (2.086384e-12 -9.325921e-13 1.646282e-11)) ((1.726943e-15 -1.120885e-15 -1.074523e-14) (-3.595752e-14 -9.166729e-15 -1.595712e-10))
98597.45657   	((3.867502e-11 1.550561e-11 -6.273275e-11) (2.060754e-12 -8.628238e-13 1.647934e-11)) ((1.762354e-15 -1.135482e-15 -1.070858e-14) (-3.602161e-14 -6.536406e-15 -1.593233e-10))
106702.117048 	((3.967320e-11 1.689407e-11 -6.404301e-11) (2.025039e-12 -7.987010e-13 1.649789e-11)) ((1.799730e-15 -1.142671e-15 -1.067574e-14) (-3.624320e-14 -3.833967e-15 -1.590970e-10))
114806.818613 	((4.040366e-11 1.827514e-11 -6.520603e-11) (1.982855e-12 -7.388709e-13 1.651868e-11)) ((1.834445e-15 -1.148142e-15 -1.064682e-14) (-3.652170e-14 -1.161311e-15 -1.588903e-10))
122911.557851 	((4.090115e-11 1.962078e-11 -6.621331e-11) (1.936119e-12 -6.810905e-13 1.654133e-11)) ((1.867549e-15 -1.152250e-15 -1.062149e-14) (-3.673267e-14 1.416841e-15 -1.587015e-10))
131016.331378 	((4.119364e-11 2.095160e-11 -6.713155e-11) (1.885085e-12 -6.237736e-13 1.656482e-11)) ((1.901882e-15 -1.154162e-15 -1.060125e-14) (-3.679857e-14 3.939676e-15 -1.585288e-10))
139121.136193 	((4.130705e-11 2.226081e-11 -6.786310e-11) (1.832917e-12 -5.672105e-13 1.658996e-11)) ((1.939150e-15 -1.153540e-15 -1.058445e-14) (-3.670734e-14 6.414721e-15 -1.583711e-10))
147225.969811 	((4.124749e-11 2.358932e-11 -6.862836e-11) (1.776402e-12 -5.125803e-13 1.661243e-11)) ((1.978366e-15 -1.154320e-15 -1.056911e-14) (-3.661891e-14 8.897850e-15 -1.582267e-10))
155330.830153 	((4.110040e-11 2.494557e-11 -6.943153e-11) (1.715826e-12 -4.580480e-13 1.663206e-11)) ((2.015799e-15 -1.153831e-15 -1.055617e-14) (-3.652492e-14 1.140458e-14 -1.580943e-10))
163435.71592  	((4.088751e-11 2.629248e-11 -6.996137e-11) (1.656780e-12 -4.035338e-13 1.665163e-11)) ((2.047959e-15 -1.153864e-15 -1.054400e-14) (-3.629237e-14 1.385300e-14 -1.579730e-10))
171540.625887 	((4.064450e-11 2.762961e-11 -7.053290e-11) (1.604261e-12 -3.474184e-13 1.667116e-11)) ((2.078124e-15 -1.155278e-15 -1.053335e-14) (-3.586206e-14 1.611847e-14 -1.578618e-10))
179645.558605 	((4.045147e-11 2.899475e-11 -7.103066e-11) (1.561719e-12 -2.890608e-13 1.668947e-11)) ((2.105654e-15 -1.159064e-15 -1.052456e-14) (-3.518499e-14 1.804275e-14 -1.577598e-10))
187750.512934 	((4.027874e-11 3.038819e-11 -7.146642e-11) (1.532564e-12 -2.256805e-13 1.670618e-11)) ((2.131225e-15 -1.163475e-15 -1.051659e-14) (-3.418794e-14 1.944828e-14 -1.576662e-10))
