# Forces      
# CofR        : (0.000000e+00 0.000000e+00 0.000000e+00)
# Time        forces(pressure viscous)	moments(pressure viscous)
0             	((0.000000e+00 0.000000e+00 0.000000e+00) (-6.258879e-14 1.589547e-04 1.344736e-14)) ((0.000000e+00 0.000000e+00 0.000000e+00) (3.571546e-06 -5.210147e-16 -7.734225e-11))
0.012         	((-4.270760e-08 4.623721e-02 1.150178e-02) (-2.748466e-10 1.822624e-04 -2.021292e-07)) ((-5.450286e-07 3.932296e-08 -8.695402e-09) (5.264949e-06 -8.007073e-13 -1.551579e-10))
0.0264        	((-7.537627e-07 -3.508701e-03 -8.486772e-04) (-9.545091e-10 1.856260e-04 -3.120417e-07)) ((4.133028e-08 -2.584209e-09 5.317296e-10) (5.887595e-06 7.667774e-12 -1.979271e-10))
0.04368       	((1.028772e-06 -9.509438e-03 -1.114630e-03) (-1.212347e-10 1.646546e-04 -3.041807e-07)) ((1.241009e-07 -3.638875e-09 2.409376e-09) (5.243640e-06 -1.896700e-11 -1.617953e-10))
0.064416      	((-2.001336e-07 -8.870655e-05 -4.333784e-04) (5.285822e-09 1.457161e-04 -1.772678e-07)) ((-4.710276e-10 -1.273074e-09 -1.855286e-10) (4.712752e-06 -2.944166e-11 -1.629731e-10))
0.0892992     	((1.293143e-07 9.754338e-05 -2.725920e-04) (6.989416e-09 1.344480e-04 -1.706002e-07)) ((-4.492757e-09 -7.368334e-10 -1.373627e-10) (4.456559e-06 -1.731259e-11 -9.554689e-11))
0.119159      	((-4.188906e-08 -1.537469e-04 -1.883348e-04) (5.700081e-09 1.241258e-04 -2.840299e-07)) ((2.716493e-09 -4.705612e-10 8.691651e-11) (4.173812e-06 -1.984897e-11 6.333392e-13))
0.154991      	((-1.377525e-07 -7.707222e-05 -1.345300e-04) (5.478687e-09 1.132925e-04 -3.527197e-07)) ((1.611652e-09 -2.750201e-10 9.598426e-12) (3.862170e-06 -9.074279e-13 2.545332e-11))
0.197989      	((-2.659710e-08 -1.799150e-05 -9.857202e-05) (3.624622e-09 1.025138e-04 -4.303689e-07)) ((6.592008e-10 -1.475123e-10 -1.445400e-11) (3.547578e-06 2.820079e-11 -1.444399e-11))
0.249587      	((-1.124148e-08 2.987535e-06 -7.669080e-05) (1.146025e-09 9.212652e-05 -5.316441e-07)) ((3.105508e-10 -7.191623e-11 9.030689e-13) (3.237100e-06 3.686695e-11 -3.105953e-11))
0.311504      	((-1.469549e-08 1.284110e-05 -6.310362e-05) (-1.104935e-09 8.242443e-05 -6.488650e-07)) ((1.698598e-10 -3.204535e-11 -3.641272e-14) (2.937164e-06 2.687207e-11 1.941435e-11))
0.385805      	((-1.265930e-08 1.839201e-05 -5.452750e-05) (-2.205847e-09 7.364579e-05 -7.760017e-07)) ((1.063293e-10 -8.775826e-12 -1.253932e-12) (2.655310e-06 1.676640e-11 6.498815e-11))
0.474966      	((-1.068423e-08 2.125211e-05 -4.896735e-05) (-1.648286e-09 6.590945e-05 -9.009824e-07)) ((6.167031e-11 7.132574e-12 -1.029361e-12) (2.397586e-06 1.377954e-11 6.708361e-11))
0.581959      	((-2.655755e-09 2.243091e-05 -4.552612e-05) (-6.744177e-10 5.910227e-05 -1.024649e-06)) ((2.584244e-11 1.828288e-11 2.893931e-14) (2.163553e-06 2.186436e-11 4.519679e-11))
0.710351      	((-3.235990e-09 2.239883e-05 -4.337089e-05) (-1.587238e-10 5.307174e-05 -1.132841e-06)) ((-2.204697e-12 2.544158e-11 -1.116701e-12) (1.951217e-06 2.955337e-11 4.134502e-11))
0.864421      	((-1.124643e-09 2.161241e-05 -4.211319e-05) (5.258191e-11 4.772080e-05 -1.224758e-06)) ((-1.947404e-11 2.845896e-11 -2.567214e-12) (1.759393e-06 3.375162e-11 5.624481e-11))
1.049306      	((-1.179047e-09 2.042603e-05 -4.132681e-05) (-4.396753e-11 4.296753e-05 -1.314498e-06)) ((-2.938044e-11 2.965417e-11 -2.433638e-12) (1.586542e-06 3.562660e-11 6.927114e-11))
1.271167      	((-2.673179e-09 1.903169e-05 -4.088693e-05) (-8.928732e-11 3.874998e-05 -1.414426e-06)) ((-3.331856e-11 2.967134e-11 -1.827303e-12) (1.431644e-06 3.384142e-11 7.422482e-11))
1.5374        	((-2.325049e-09 1.757978e-05 -4.063939e-05) (4.799560e-10 3.500840e-05 -1.528850e-06)) ((-3.371456e-11 2.942002e-11 -1.441910e-12) (1.293586e-06 2.601043e-11 7.041961e-11))
1.85688       	((-1.720389e-09 1.618916e-05 -4.050193e-05) (9.576192e-10 3.169062e-05 -1.656517e-06)) ((-3.474235e-11 2.848055e-11 -1.628757e-12) (1.170987e-06 1.779977e-11 6.440729e-11))
2.240256      	((-2.023530e-09 1.492867e-05 -4.039183e-05) (9.952632e-10 2.875265e-05 -1.795345e-06)) ((-3.775737e-11 2.749589e-11 -1.971318e-12) (1.062381e-06 1.167425e-11 6.360039e-11))
2.700307      	((-2.162282e-09 1.380729e-05 -4.029342e-05) (8.217807e-10 2.615094e-05 -1.943661e-06)) ((-4.201761e-11 2.592390e-11 -2.351806e-12) (9.661768e-07 1.008004e-11 6.655362e-11))
3.252369      	((-3.729209e-09 1.282308e-05 -4.018302e-05) (5.689288e-10 2.384200e-05 -2.100961e-06)) ((-4.787272e-11 2.449232e-11 -2.505184e-12) (8.807761e-07 1.330787e-11 6.822017e-11))
3.914842      	((-5.083356e-09 1.198883e-05 -4.005353e-05) (4.173752e-10 2.179161e-05 -2.266264e-06)) ((-5.544226e-11 2.285082e-11 -2.733712e-12) (8.049244e-07 1.523608e-11 7.472772e-11))
4.709811      	((-6.077571e-09 1.131683e-05 -3.988775e-05) (2.860424e-10 1.997811e-05 -2.438072e-06)) ((-6.457479e-11 2.137657e-11 -3.202190e-12) (7.378168e-07 1.755858e-11 8.395803e-11))
5.663773      	((-5.810235e-09 1.079949e-05 -3.967351e-05) (1.080617e-10 1.838422e-05 -2.614801e-06)) ((-7.547617e-11 2.003125e-11 -3.904552e-12) (6.788036e-07 1.875060e-11 8.559534e-11))
6.808528      	((-6.764097e-09 1.044856e-05 -3.940919e-05) (-1.541850e-10 1.698982e-05 -2.794632e-06)) ((-8.854179e-11 1.880564e-11 -4.721149e-12) (6.271366e-07 2.122970e-11 7.311728e-11))
8.182233      	((-6.131313e-09 1.027757e-05 -3.909500e-05) (-2.697454e-10 1.577339e-05 -2.975674e-06)) ((-1.038164e-10 1.749510e-11 -5.493629e-12) (5.820215e-07 2.506449e-11 5.329103e-11))
9.83068       	((-4.938724e-09 1.028223e-05 -3.872834e-05) (-2.668331e-10 1.471564e-05 -3.155447e-06)) ((-1.209671e-10 1.586521e-11 -6.496262e-12) (5.427666e-07 2.811052e-11 4.200881e-11))
11.808816     	((-4.238981e-09 1.045923e-05 -3.831261e-05) (-2.386570e-10 1.380121e-05 -3.330401e-06)) ((-1.405528e-10 1.406705e-11 -7.857033e-12) (5.088345e-07 3.302584e-11 4.557987e-11))
14.182579     	((-4.180952e-09 1.079935e-05 -3.784705e-05) (-2.440346e-10 1.301748e-05 -3.496177e-06)) ((-1.626851e-10 1.212675e-11 -9.554835e-12) (4.798471e-07 3.618101e-11 6.192704e-11))
17.031095     	((-1.952918e-09 1.128141e-05 -3.732909e-05) (-2.400564e-10 1.235675e-05 -3.650257e-06)) ((-1.872731e-10 9.934200e-12 -1.159576e-11) (4.554814e-07 3.163027e-11 8.575486e-11))
20.449314     	((-2.396107e-11 1.189302e-05 -3.677850e-05) (1.281138e-10 1.180784e-05 -3.792036e-06)) ((-2.139772e-10 7.671681e-12 -1.385720e-11) (4.354359e-07 2.325316e-11 1.203719e-10))
24.551176     	((2.946565e-09 1.260216e-05 -3.620178e-05) (6.749112e-10 1.136098e-05 -3.918746e-06)) ((-2.412212e-10 5.445276e-12 -1.645503e-11) (4.194697e-07 1.003375e-11 1.523942e-10))
29.371671     	((6.465895e-09 1.334740e-05 -3.559531e-05) (1.039260e-09 1.101164e-05 -4.025787e-06)) ((-2.666083e-10 3.650805e-12 -1.899207e-11) (4.072689e-07 -6.110558e-12 1.693510e-10))
34.905065     	((1.108496e-08 1.405968e-05 -3.493949e-05) (1.531411e-09 1.074301e-05 -4.105346e-06)) ((-2.870347e-10 2.396502e-12 -2.125035e-11) (3.979797e-07 -3.021243e-11 1.839907e-10))
41.146435     	((1.324242e-08 1.468291e-05 -3.421183e-05) (1.931838e-09 1.053073e-05 -4.152096e-06)) ((-3.028615e-10 1.020885e-12 -2.308451e-11) (3.905378e-07 -5.397285e-11 1.890003e-10))
48.094108     	((1.524505e-08 1.519955e-05 -3.340857e-05) (2.349261e-09 1.035271e-05 -4.167046e-06)) ((-3.157114e-10 -5.088411e-13 -2.457345e-11) (3.842276e-07 -7.951756e-11 1.885183e-10))
55.171869     	((1.712082e-08 1.561607e-05 -3.261658e-05) (2.628440e-09 1.020516e-05 -4.161108e-06)) ((-3.266832e-10 -2.047522e-12 -2.582978e-11) (3.790459e-07 -1.096692e-10 1.811512e-10))
62.272095     	((1.741237e-08 1.585504e-05 -3.182958e-05) (2.998427e-09 1.007835e-05 -4.145776e-06)) ((-3.351795e-10 -2.796519e-12 -2.694955e-11) (3.747281e-07 -1.397242e-10 1.609919e-10))
69.386858     	((1.814744e-08 1.595194e-05 -3.106803e-05) (3.378856e-09 9.965972e-06 -4.128204e-06)) ((-3.406585e-10 -2.664003e-12 -2.785876e-11) (3.710159e-07 -1.687059e-10 1.417936e-10))
76.50918      	((1.731516e-08 1.597036e-05 -3.036975e-05) (3.539481e-09 9.863299e-06 -4.113884e-06)) ((-3.435390e-10 -2.123813e-12 -2.848368e-11) (3.676254e-07 -1.901332e-10 1.339227e-10))
83.637882     	((1.645776e-08 1.592784e-05 -2.973262e-05) (3.498064e-09 9.769167e-06 -4.102758e-06)) ((-3.445017e-10 -1.446085e-12 -2.888676e-11) (3.645186e-07 -2.060132e-10 1.328921e-10))
90.773735     	((1.666198e-08 1.585986e-05 -2.914196e-05) (3.449297e-09 9.682485e-06 -4.094210e-06)) ((-3.443836e-10 -7.314080e-13 -2.917122e-11) (3.616632e-07 -2.181824e-10 1.354998e-10))
97.916555     	((1.669122e-08 1.577941e-05 -2.858830e-05) (3.414464e-09 9.602141e-06 -4.088295e-06)) ((-3.437173e-10 2.781491e-14 -2.939244e-11) (3.590165e-07 -2.272908e-10 1.366419e-10))
105.065563    	((1.745759e-08 1.570772e-05 -2.807750e-05) (3.347323e-09 9.528247e-06 -4.084569e-06)) ((-3.429513e-10 7.598006e-13 -2.958187e-11) (3.565760e-07 -2.354464e-10 1.419902e-10))
112.220167    	((1.932776e-08 1.565010e-05 -2.760556e-05) (3.360514e-09 9.461280e-06 -4.082395e-06)) ((-3.422904e-10 1.398801e-12 -2.976128e-11) (3.543456e-07 -2.444283e-10 1.511213e-10))
119.37995     	((2.146436e-08 1.560366e-05 -2.716499e-05) (3.440351e-09 9.401338e-06 -4.081099e-06)) ((-3.417279e-10 2.015248e-12 -2.991887e-11) (3.523313e-07 -2.517401e-10 1.644935e-10))
126.54449     	((2.373135e-08 1.555803e-05 -2.674791e-05) (3.580440e-09 9.347341e-06 -4.080081e-06)) ((-3.413123e-10 2.638296e-12 -3.004893e-11) (3.505149e-07 -2.586021e-10 1.803346e-10))
133.713379    	((2.691849e-08 1.551993e-05 -2.635517e-05) (3.769628e-09 9.298776e-06 -4.078643e-06)) ((-3.411087e-10 3.265167e-12 -3.016791e-11) (3.488994e-07 -2.677966e-10 1.969142e-10))
140.886266    	((2.956276e-08 1.548234e-05 -2.598207e-05) (3.967331e-09 9.255099e-06 -4.076811e-06)) ((-3.409028e-10 3.891302e-12 -3.027213e-11) (3.474653e-07 -2.776425e-10 2.138253e-10))
148.062839    	((3.301634e-08 1.544620e-05 -2.562969e-05) (4.235633e-09 9.215770e-06 -4.074685e-06)) ((-3.407292e-10 4.520165e-12 -3.035310e-11) (3.461890e-07 -2.895974e-10 2.268435e-10))
155.242806    	((3.610910e-08 1.541004e-05 -2.529462e-05) (4.584482e-09 9.180244e-06 -4.072264e-06)) ((-3.406148e-10 5.126723e-12 -3.042850e-11) (3.450527e-07 -3.035054e-10 2.366305e-10))
162.425896    	((3.967609e-08 1.537404e-05 -2.497697e-05) (5.015463e-09 9.147991e-06 -4.069650e-06)) ((-3.405098e-10 5.741823e-12 -3.049225e-11) (3.440382e-07 -3.188085e-10 2.437215e-10))
169.611868    	((4.312017e-08 1.533837e-05 -2.467264e-05) (5.512326e-09 9.118557e-06 -4.066874e-06)) ((-3.404296e-10 6.359415e-12 -3.054402e-11) (3.431282e-07 -3.351011e-10 2.499701e-10))
176.800505    	((4.670489e-08 1.530093e-05 -2.438263e-05) (6.050893e-09 9.091450e-06 -4.064392e-06)) ((-3.401447e-10 6.988309e-12 -3.058344e-11) (3.422891e-07 -3.527521e-10 2.546973e-10))
183.991611    	((5.062574e-08 1.526578e-05 -2.410522e-05) (6.670628e-09 9.066346e-06 -4.062432e-06)) ((-3.397965e-10 7.615831e-12 -3.062324e-11) (3.415018e-07 -3.730063e-10 2.566108e-10))
191.185012    	((5.376722e-08 1.523133e-05 -2.384130e-05) (7.334773e-09 9.042984e-06 -4.061091e-06)) ((-3.393371e-10 8.222812e-12 -3.066288e-11) (3.407544e-07 -3.942538e-10 2.554649e-10))
198.380552    	((5.753447e-08 1.519918e-05 -2.359001e-05) (8.073776e-09 9.021275e-06 -4.060228e-06)) ((-3.388749e-10 8.831539e-12 -3.069900e-11) (3.400492e-07 -4.177246e-10 2.518738e-10))
205.57809     	((6.129799e-08 1.516870e-05 -2.335047e-05) (8.823738e-09 9.001153e-06 -4.059547e-06)) ((-3.384566e-10 9.426543e-12 -3.073436e-11) (3.393941e-07 -4.428498e-10 2.476115e-10))
212.777495    	((6.520607e-08 1.513976e-05 -2.312319e-05) (9.595423e-09 8.982501e-06 -4.058931e-06)) ((-3.380760e-10 1.000053e-11 -3.076309e-11) (3.387901e-07 -4.690037e-10 2.433391e-10))
219.978645    	((6.955271e-08 1.511235e-05 -2.290601e-05) (1.042331e-08 8.965220e-06 -4.058320e-06)) ((-3.377396e-10 1.055450e-11 -3.079087e-11) (3.382363e-07 -4.970252e-10 2.389732e-10))
227.181423    	((7.375211e-08 1.508602e-05 -2.269756e-05) (1.126528e-08 8.949185e-06 -4.057638e-06)) ((-3.374656e-10 1.109106e-11 -3.081932e-11) (3.377313e-07 -5.254706e-10 2.350058e-10))
234.385721    	((7.869561e-08 1.506150e-05 -2.249903e-05) (1.214272e-08 8.934312e-06 -4.056865e-06)) ((-3.372331e-10 1.162860e-11 -3.084483e-11) (3.372720e-07 -5.559045e-10 2.319332e-10))
241.591436    	((8.411942e-08 1.503812e-05 -2.230872e-05) (1.306599e-08 8.920501e-06 -4.056011e-06)) ((-3.370336e-10 1.215544e-11 -3.086916e-11) (3.368538e-07 -5.891606e-10 2.297692e-10))
248.798476    	((9.040657e-08 1.501551e-05 -2.212514e-05) (1.405400e-08 8.907644e-06 -4.055092e-06)) ((-3.368496e-10 1.268882e-11 -3.088946e-11) (3.364710e-07 -6.262569e-10 2.293080e-10))
256.006682    	((9.687028e-08 1.499359e-05 -2.194903e-05) (1.507336e-08 8.895649e-06 -4.054105e-06)) ((-3.366919e-10 1.320054e-11 -3.090648e-11) (3.361194e-07 -6.656837e-10 2.311389e-10))
263.215917    	((1.036804e-07 1.497267e-05 -2.177970e-05) (1.612371e-08 8.884436e-06 -4.053044e-06)) ((-3.365496e-10 1.371178e-11 -3.092189e-11) (3.357957e-07 -7.074100e-10 2.352391e-10))
270.426115    	((1.103783e-07 1.495326e-05 -2.161921e-05) (1.718632e-08 8.873988e-06 -4.051927e-06)) ((-3.364178e-10 1.420890e-11 -3.093668e-11) (3.354983e-07 -7.513875e-10 2.416678e-10))
277.637212    	((1.175884e-07 1.493465e-05 -2.146657e-05) (1.825141e-08 8.864247e-06 -4.050836e-06)) ((-3.362709e-10 1.470757e-11 -3.095009e-11) (3.352230e-07 -7.980500e-10 2.506524e-10))
284.849147    	((1.250744e-07 1.491662e-05 -2.132127e-05) (1.932729e-08 8.855127e-06 -4.049787e-06)) ((-3.361259e-10 1.519230e-11 -3.096162e-11) (3.349664e-07 -8.471214e-10 2.622656e-10))
292.061858    	((1.339835e-07 1.489965e-05 -2.118266e-05) (2.047019e-08 8.846578e-06 -4.048775e-06)) ((-3.359817e-10 1.568122e-11 -3.097069e-11) (3.347271e-07 -9.002122e-10 2.764560e-10))
299.275284    	((1.439830e-07 1.488399e-05 -2.105040e-05) (2.172092e-08 8.838571e-06 -4.047792e-06)) ((-3.358444e-10 1.617236e-11 -3.097863e-11) (3.345041e-07 -9.588531e-10 2.930364e-10))
306.489361    	((1.548785e-07 1.486978e-05 -2.092515e-05) (2.309088e-08 8.831124e-06 -4.046837e-06)) ((-3.357152e-10 1.665768e-11 -3.098500e-11) (3.342978e-07 -1.023114e-09 3.118807e-10))
313.704027    	((1.661191e-07 1.485598e-05 -2.080560e-05) (2.454877e-08 8.824164e-06 -4.045944e-06)) ((-3.355795e-10 1.712883e-11 -3.098936e-11) (3.341050e-07 -1.091367e-09 3.330657e-10))
320.919222    	((1.775411e-07 1.484253e-05 -2.069102e-05) (2.606851e-08 8.817607e-06 -4.045142e-06)) ((-3.354353e-10 1.758859e-11 -3.099177e-11) (3.339215e-07 -1.162081e-09 3.560936e-10))
328.13489     	((1.893135e-07 1.482979e-05 -2.058189e-05) (2.764606e-08 8.811410e-06 -4.044464e-06)) ((-3.352748e-10 1.804626e-11 -3.099332e-11) (3.337450e-07 -1.235162e-09 3.804604e-10))
335.350981    	((2.017889e-07 1.481804e-05 -2.047829e-05) (2.930346e-08 8.805569e-06 -4.043914e-06)) ((-3.351121e-10 1.850393e-11 -3.099567e-11) (3.335755e-07 -1.311836e-09 4.058882e-10))
342.567449    	((2.149607e-07 1.480662e-05 -2.037945e-05) (3.105160e-08 8.800049e-06 -4.043491e-06)) ((-3.349415e-10 1.896333e-11 -3.099776e-11) (3.334124e-07 -1.392912e-09 4.322945e-10))
349.784248    	((2.289795e-07 1.479566e-05 -2.028482e-05) (3.290138e-08 8.794801e-06 -4.043198e-06)) ((-3.347702e-10 1.942558e-11 -3.100006e-11) (3.332547e-07 -1.478689e-09 4.596726e-10))
357.001335    	((2.440753e-07 1.478529e-05 -2.019398e-05) (3.488744e-08 8.789809e-06 -4.042994e-06)) ((-3.346083e-10 1.989439e-11 -3.100155e-11) (3.331031e-07 -1.570096e-09 4.876586e-10))
364.218667    	((2.600976e-07 1.477584e-05 -2.010727e-05) (3.702280e-08 8.785088e-06 -4.042829e-06)) ((-3.344602e-10 2.036665e-11 -3.100148e-11) (3.329591e-07 -1.667468e-09 5.161543e-10))
371.436202    	((2.770375e-07 1.476724e-05 -2.002455e-05) (3.930363e-08 8.780645e-06 -4.042668e-06)) ((-3.343291e-10 2.084049e-11 -3.100159e-11) (3.328238e-07 -1.770690e-09 5.453565e-10))
378.653897    	((2.949470e-07 1.475927e-05 -1.994546e-05) (4.173750e-08 8.776467e-06 -4.042497e-06)) ((-3.342094e-10 2.131887e-11 -3.100151e-11) (3.326973e-07 -1.880004e-09 5.753890e-10))
385.87171     	((3.138352e-07 1.475192e-05 -1.986994e-05) (4.432773e-08 8.772546e-06 -4.042303e-06)) ((-3.341001e-10 2.180188e-11 -3.100094e-11) (3.325796e-07 -1.995544e-09 6.062919e-10))
393.089602    	((3.339612e-07 1.474496e-05 -1.979754e-05) (4.709148e-08 8.768857e-06 -4.042097e-06)) ((-3.339926e-10 2.229837e-11 -3.100025e-11) (3.324696e-07 -2.118163e-09 6.381236e-10))
400.307532    	((3.552443e-07 1.473851e-05 -1.972847e-05) (5.003527e-08 8.765387e-06 -4.041871e-06)) ((-3.338914e-10 2.280502e-11 -3.099965e-11) (3.323671e-07 -2.248311e-09 6.710692e-10))
407.52546     	((3.777937e-07 1.473254e-05 -1.966237e-05) (5.316932e-08 8.762132e-06 -4.041624e-06)) ((-3.337947e-10 2.332542e-11 -3.099897e-11) (3.322720e-07 -2.386491e-09 7.051888e-10))
414.743347    	((4.017398e-07 1.472683e-05 -1.959915e-05) (5.651734e-08 8.759066e-06 -4.041358e-06)) ((-3.337017e-10 2.386176e-11 -3.099760e-11) (3.321836e-07 -2.533737e-09 7.403838e-10))
421.961154    	((4.270381e-07 1.472172e-05 -1.953903e-05) (6.008196e-08 8.756193e-06 -4.041063e-06)) ((-3.336185e-10 2.441030e-11 -3.099575e-11) (3.321022e-07 -2.690298e-09 7.768977e-10))
429.17884     	((4.538123e-07 1.471690e-05 -1.948143e-05) (6.386531e-08 8.753502e-06 -4.040743e-06)) ((-3.335393e-10 2.497641e-11 -3.099333e-11) (3.320273e-07 -2.856508e-09 8.151675e-10))
436.396366    	((4.821608e-07 1.471253e-05 -1.942659e-05) (6.788096e-08 8.750985e-06 -4.040394e-06)) ((-3.334665e-10 2.556107e-11 -3.099007e-11) (3.319587e-07 -3.033014e-09 8.553254e-10))
443.613692    	((5.123162e-07 1.470843e-05 -1.937398e-05) (7.215296e-08 8.748632e-06 -4.040023e-06)) ((-3.333961e-10 2.616946e-11 -3.098603e-11) (3.318960e-07 -3.220754e-09 8.973696e-10))
450.830774    	((5.442097e-07 1.470472e-05 -1.932376e-05) (7.669270e-08 8.746436e-06 -4.039628e-06)) ((-3.333284e-10 2.679881e-11 -3.098159e-11) (3.318389e-07 -3.420188e-09 9.413506e-10))
