# Forces      
# CofR        : (0.000000e+00 0.000000e+00 0.000000e+00)
# Time        forces(pressure viscous)	moments(pressure viscous)
0             	((0.000000e+00 0.000000e+00 0.000000e+00) (0.000000e+00 0.000000e+00 0.000000e+00)) ((0.000000e+00 0.000000e+00 0.000000e+00) (0.000000e+00 0.000000e+00 0.000000e+00))
0.012         	((-3.217131e-11 7.583751e-09 -9.888507e-11) (-9.628604e-13 8.503724e-11 -3.305651e-13)) ((-5.458231e-13 -1.714898e-15 -1.044325e-10) (1.623479e-12 4.481997e-14 -2.122801e-07))
0.0264        	((2.301345e-11 -2.749441e-09 2.209185e-10) (-1.062873e-12 9.076355e-11 -6.060797e-13)) ((-1.283878e-12 1.037940e-14 -3.136568e-11) (2.887665e-12 4.365435e-14 -1.857956e-07))
0.04368       	((-1.490422e-10 1.386943e-09 -1.689516e-10) (-1.378697e-12 5.945400e-11 -1.406903e-12)) ((5.893364e-13 -5.363969e-16 -1.646557e-11) (2.434737e-12 6.052954e-14 -1.606819e-07))
0.064416      	((-1.013855e-10 1.156065e-10 1.187379e-12) (-1.529975e-12 3.172836e-11 -1.039276e-12)) ((-1.664767e-13 -1.286838e-15 -1.107823e-11) (1.232090e-12 7.953974e-14 -1.376282e-07))
0.0892992     	((-1.441187e-10 6.670013e-10 -1.272765e-10) (-1.387775e-12 2.007746e-11 2.099635e-13)) ((1.787318e-13 -1.093082e-14 -8.934098e-12) (5.884842e-13 8.488981e-14 -1.172455e-07))
0.119159      	((-4.935925e-11 6.285493e-11 -1.474297e-10) (-1.986032e-12 1.729332e-11 1.944407e-12)) ((1.093077e-13 -5.839203e-15 -7.103349e-12) (-2.299045e-13 1.029568e-13 -9.981405e-08))
0.154991      	((-1.030681e-10 5.635552e-10 -1.718418e-10) (-2.726212e-12 1.290403e-11 5.071445e-12)) ((1.065207e-13 -9.691316e-15 -5.678478e-12) (-8.405629e-13 1.203034e-13 -8.545095e-08))
0.197989      	((-1.122916e-10 4.401635e-10 -2.061961e-10) (-2.870664e-12 7.955961e-12 1.075878e-11)) ((8.370945e-14 -2.637143e-15 -4.448320e-12) (-1.172098e-12 8.318536e-14 -7.390892e-08))
0.249587      	((-1.290597e-10 5.131967e-10 -2.214684e-10) (-1.807721e-12 2.893615e-12 1.873235e-11)) ((8.493116e-14 4.169279e-15 -3.680092e-12) (-1.069375e-12 2.450311e-14 -6.471887e-08))
0.311504      	((-2.372346e-10 6.399997e-10 -2.682711e-10) (-3.515649e-13 -1.570292e-12 2.894222e-11)) ((6.142012e-14 7.061231e-15 -3.259695e-12) (-8.811420e-13 -3.896553e-14 -5.732610e-08))
0.385805      	((-2.814143e-10 8.371751e-10 -3.012771e-10) (4.170366e-13 1.683285e-12 4.044017e-11)) ((4.605391e-14 6.284076e-15 -2.845510e-12) (-6.618062e-13 -8.581432e-14 -5.122951e-08))
0.474966      	((-4.099104e-10 1.030836e-09 -3.482648e-10) (1.382686e-12 3.682772e-12 5.237898e-11)) ((-5.808272e-15 3.531513e-15 -2.487314e-12) (-1.969877e-13 -8.436455e-14 -4.605466e-08))
0.581959      	((-5.366677e-10 1.304189e-09 -3.968211e-10) (1.896887e-12 6.856759e-12 6.474833e-11)) ((-3.012391e-14 7.160972e-15 -2.306324e-12) (7.136793e-13 -9.490756e-14 -4.155492e-08))
0.710351      	((-6.264430e-10 1.288461e-09 -4.568877e-10) (7.727112e-12 1.950606e-11 7.956622e-11)) ((-5.606497e-14 6.483170e-15 -2.192327e-12) (1.427198e-12 -1.490137e-13 -3.757637e-08))
0.864421      	((-7.410098e-10 1.033641e-09 -4.843725e-10) (1.983525e-11 1.397234e-11 9.587187e-11)) ((-9.102770e-14 3.521095e-17 -2.086426e-12) (1.209956e-12 -3.403506e-13 -3.402183e-08))
1.049306      	((-7.582716e-10 9.355297e-10 -5.251924e-10) (3.388656e-11 -1.568808e-11 1.136165e-10)) ((-1.170020e-13 -9.194758e-15 -1.974167e-12) (3.561127e-13 -5.259442e-13 -3.083129e-08))
1.271167      	((-6.847091e-10 7.767753e-10 -5.821146e-10) (6.061214e-11 -5.434627e-11 1.359738e-10)) ((-1.430745e-13 -1.105782e-14 -1.889642e-12) (-6.834081e-13 -9.884431e-13 -2.797448e-08))
1.5374        	((-5.162148e-10 7.748291e-10 -6.232313e-10) (9.893273e-11 -9.738750e-11 1.618602e-10)) ((-1.290665e-13 -1.843971e-14 -1.826028e-12) (-1.788794e-12 -2.052602e-12 -2.543694e-08))
1.85688       	((-3.689102e-10 5.967592e-10 -6.358155e-10) (1.465534e-10 -1.311061e-10 1.862607e-10)) ((-1.168665e-13 -1.993373e-14 -1.744938e-12) (-3.006051e-12 -3.346723e-12 -2.320470e-08))
2.240256      	((-2.077330e-10 3.994721e-10 -7.100063e-10) (2.082812e-10 -1.663591e-10 2.138693e-10)) ((-1.351223e-13 -2.270483e-14 -1.648718e-12) (-4.508397e-12 -5.100167e-12 -2.125502e-08))
2.700307      	((-1.455310e-10 2.723980e-10 -7.365874e-10) (2.728197e-10 -2.213426e-10 2.411737e-10)) ((-1.305998e-13 -3.260245e-14 -1.562230e-12) (-6.394952e-12 -7.129904e-12 -1.955467e-08))
3.252369      	((-5.134121e-11 1.708494e-10 -8.257133e-10) (3.322179e-10 -2.853285e-10 2.689984e-10)) ((-1.087005e-13 -3.755234e-14 -1.456793e-12) (-8.095777e-12 -8.950141e-12 -1.806423e-08))
3.914842      	((8.312296e-12 -6.922943e-11 -8.823681e-10) (3.740321e-10 -3.410875e-10 3.030547e-10)) ((-7.671741e-14 -2.919192e-14 -1.356809e-12) (-9.236277e-12 -1.007815e-11 -1.674381e-08))
4.709811      	((4.739918e-11 -1.464061e-10 -9.646963e-10) (3.896152e-10 -3.765149e-10 3.499386e-10)) ((-5.795286e-14 -1.485469e-14 -1.267812e-12) (-9.812133e-12 -1.062368e-11 -1.555995e-08))
5.663773      	((6.669354e-11 -1.253470e-10 -1.085164e-09) (3.816787e-10 -3.778960e-10 4.075052e-10)) ((-5.780260e-14 -9.605751e-15 -1.178541e-12) (-9.613216e-12 -1.058094e-11 -1.448823e-08))
6.808528      	((1.111615e-10 -9.127733e-11 -1.218656e-09) (3.484380e-10 -3.487273e-10 4.643117e-10)) ((-5.025861e-14 -5.686832e-15 -1.097401e-12) (-8.627274e-12 -9.760390e-12 -1.350958e-08))
8.182233      	((1.278343e-10 -4.215101e-11 -1.323935e-09) (2.996068e-10 -2.962516e-10 5.297342e-10)) ((-3.341183e-14 -2.915391e-15 -1.019131e-12) (-7.566557e-12 -8.418793e-12 -1.260994e-08))
9.83068       	((9.763606e-11 3.222680e-11 -1.486790e-09) (2.382768e-10 -2.381406e-10 5.948942e-10)) ((-3.443621e-14 6.852651e-16 -9.464502e-13) (-6.152650e-12 -6.843530e-12 -1.178179e-08))
11.808816     	((4.143946e-11 1.727798e-10 -1.606924e-09) (1.790803e-10 -1.822301e-10 6.611306e-10)) ((-1.925534e-14 6.392678e-15 -8.785013e-13) (-4.239292e-12 -5.419546e-12 -1.102089e-08))
14.182579     	((-3.262161e-11 1.293957e-10 -1.787545e-09) (1.275430e-10 -1.356456e-10 7.368817e-10)) ((5.322303e-15 8.216595e-15 -8.122978e-13) (-2.681730e-12 -4.098739e-12 -1.032259e-08))
17.031095     	((-8.414623e-11 1.142181e-10 -1.985327e-09) (8.707774e-11 -9.917324e-11 8.134402e-10)) ((2.137421e-14 4.832969e-15 -7.543350e-13) (-1.950374e-12 -3.040770e-12 -9.683058e-09))
20.449314     	((-8.987726e-11 1.713563e-10 -2.174023e-09) (6.411659e-11 -7.572143e-11 8.946211e-10)) ((2.642171e-14 3.077026e-15 -7.019025e-13) (-1.664790e-12 -2.427747e-12 -9.098581e-09))
24.551176     	((-1.286565e-10 1.545295e-10 -2.339497e-09) (5.635784e-11 -6.671900e-11 9.787703e-10)) ((3.361160e-14 4.084814e-16 -6.551969e-13) (-1.692814e-12 -2.250005e-12 -8.564716e-09))
29.473411     	((-1.117128e-10 1.362910e-10 -2.559520e-09) (6.199275e-11 -7.365425e-11 1.066463e-09)) ((3.488588e-14 -2.235963e-15 -6.134797e-13) (-1.960894e-12 -2.398872e-12 -8.076508e-09))
35.380094     	((-1.177772e-10 9.998679e-11 -2.879002e-09) (7.601826e-11 -9.136946e-11 1.161950e-09)) ((3.755113e-14 -6.004526e-15 -5.767177e-13) (-2.499008e-12 -2.739890e-12 -7.629642e-09))
42.468112     	((-9.796110e-11 6.663546e-11 -3.150714e-09) (9.426708e-11 -1.130071e-10 1.267460e-09)) ((3.954471e-14 -8.228892e-15 -5.435274e-13) (-3.130673e-12 -3.207897e-12 -7.220918e-09))
50.973735     	((-9.162952e-11 5.754567e-11 -3.441760e-09) (1.131526e-10 -1.335076e-10 1.390886e-09)) ((3.958829e-14 -1.347640e-14 -5.127718e-13) (-3.713378e-12 -3.654974e-12 -6.847737e-09))
61.180482     	((-8.131238e-11 4.575683e-11 -3.727418e-09) (1.304035e-10 -1.516584e-10 1.536433e-09)) ((3.700321e-14 -1.778209e-14 -4.842366e-13) (-4.217555e-12 -4.030447e-12 -6.507537e-09))
73.428578     	((-7.860673e-11 3.442894e-11 -3.985458e-09) (1.428497e-10 -1.665510e-10 1.691964e-09)) ((3.330879e-14 -2.134793e-14 -4.581844e-13) (-4.647118e-12 -4.315407e-12 -6.197717e-09))
88.126294     	((-7.651426e-11 2.035245e-11 -4.262337e-09) (1.498967e-10 -1.780601e-10 1.852411e-09)) ((3.053403e-14 -2.499760e-14 -4.348221e-13) (-4.937929e-12 -4.430804e-12 -5.915924e-09))
105.763553    	((-7.769438e-11 1.722378e-11 -4.540409e-09) (1.534229e-10 -1.862336e-10 2.015679e-09)) ((2.897317e-14 -2.651117e-14 -4.135999e-13) (-5.074561e-12 -4.361326e-12 -5.659771e-09))
126.928263    	((-7.043460e-11 1.734146e-11 -4.828790e-09) (1.533926e-10 -1.910258e-10 2.182002e-09)) ((2.800111e-14 -2.844320e-14 -3.945089e-13) (-5.154074e-12 -4.139312e-12 -5.426754e-09))
152.325916    	((-5.901445e-11 1.619110e-11 -5.128314e-09) (1.520838e-10 -1.932758e-10 2.353768e-09)) ((2.856375e-14 -2.939495e-14 -3.768319e-13) (-5.185022e-12 -3.922298e-12 -5.214652e-09))
182.803099    	((-5.109764e-11 1.632844e-11 -5.433238e-09) (1.485155e-10 -1.938615e-10 2.532672e-09)) ((2.880761e-14 -3.091551e-14 -3.602593e-13) (-5.178966e-12 -3.650257e-12 -5.021416e-09))
219.375719    	((-4.226061e-11 1.298103e-11 -5.736249e-09) (1.423488e-10 -1.931054e-10 2.718045e-09)) ((2.932151e-14 -3.304394e-14 -3.453696e-13) (-5.177588e-12 -3.320143e-12 -4.845352e-09))
263.262863    	((-2.912177e-11 4.540330e-12 -6.029594e-09) (1.339786e-10 -1.911206e-10 2.911295e-09)) ((2.941951e-14 -3.433081e-14 -3.321856e-13) (-5.205526e-12 -2.956815e-12 -4.684955e-09))
315.927436    	((-2.035459e-11 -3.551712e-12 -6.307523e-09) (1.249406e-10 -1.882626e-10 3.111943e-09)) ((3.013759e-14 -3.565759e-14 -3.204164e-13) (-5.294733e-12 -2.647994e-12 -4.538865e-09))
379.124923    	((-1.088619e-11 -9.474267e-12 -6.564811e-09) (1.160939e-10 -1.836188e-10 3.314799e-09)) ((3.136396e-14 -3.703636e-14 -3.090846e-13) (-5.328267e-12 -2.365632e-12 -4.405874e-09))
454.961908    	((-6.095969e-12 -1.055473e-11 -6.802783e-09) (1.071241e-10 -1.768590e-10 3.518295e-09)) ((3.272293e-14 -3.899024e-14 -2.985277e-13) (-5.270768e-12 -2.079155e-12 -4.284914e-09))
545.966289    	((-7.830200e-12 -7.373935e-12 -7.020627e-09) (9.829109e-11 -1.691489e-10 3.721060e-09)) ((3.341120e-14 -4.074358e-14 -2.889084e-13) (-5.157301e-12 -1.786408e-12 -4.175082e-09))
655.171547    	((-1.196608e-11 -4.933371e-12 -7.218219e-09) (8.935556e-11 -1.609338e-10 3.922414e-09)) ((3.385147e-14 -4.168440e-14 -2.802483e-13) (-4.991932e-12 -1.487259e-12 -4.075576e-09))
786.217856    	((-1.459555e-11 -4.395094e-12 -7.392650e-09) (8.092309e-11 -1.528261e-10 4.120732e-09)) ((3.454715e-14 -4.182796e-14 -2.723534e-13) (-4.793521e-12 -1.256589e-12 -3.985579e-09))
943.473427    	((-1.732102e-11 -6.092663e-12 -7.546883e-09) (7.301412e-11 -1.448933e-10 4.315346e-09)) ((3.515290e-14 -4.194050e-14 -2.650882e-13) (-4.584762e-12 -1.065815e-12 -3.904322e-09))
1132.180113   	((-1.881518e-11 -7.843050e-12 -7.681864e-09) (6.563029e-11 -1.367409e-10 4.504898e-09)) ((3.554160e-14 -4.180246e-14 -2.585768e-13) (-4.373936e-12 -9.115727e-13 -3.831121e-09))
1358.628135   	((-1.983276e-11 -9.263404e-12 -7.801673e-09) (5.949059e-11 -1.286644e-10 4.687842e-09)) ((3.567854e-14 -4.201364e-14 -2.528464e-13) (-4.158730e-12 -7.944071e-13 -3.765293e-09))
1625.66483    	((-2.693416e-11 -9.085428e-12 -7.909923e-09) (5.401193e-11 -1.209645e-10 4.863845e-09)) ((3.533090e-14 -4.298275e-14 -2.477329e-13) (-3.941514e-12 -6.819369e-13 -3.706203e-09))
1933.29316    	((-3.362603e-11 -5.693206e-12 -8.008107e-09) (4.898072e-11 -1.132034e-10 5.034737e-09)) ((3.478125e-14 -4.384641e-14 -2.430211e-13) (-3.714119e-12 -5.352273e-13 -3.653238e-09))
2281.515946   	((-2.863984e-11 -4.122758e-12 -8.091869e-09) (4.494472e-11 -1.057176e-10 5.198612e-09)) ((3.426833e-14 -4.329764e-14 -2.386121e-13) (-3.478902e-12 -4.541831e-13 -3.605808e-09))
2670.335253   	((-2.874652e-11 -3.224252e-12 -8.166521e-09) (4.173369e-11 -9.892525e-11 5.349765e-09)) ((3.373027e-14 -4.297345e-14 -2.347130e-13) (-3.247155e-12 -4.401450e-13 -3.563392e-09))
3076.307613   	((-2.965301e-11 -3.159663e-12 -8.233983e-09) (3.896288e-11 -9.264716e-11 5.487912e-09)) ((3.326686e-14 -4.284923e-14 -2.312269e-13) (-3.020992e-12 -4.311882e-13 -3.525533e-09))
3482.286204   	((-3.104054e-11 -4.305228e-12 -8.293408e-09) (3.652238e-11 -8.685019e-11 5.614754e-09)) ((3.276815e-14 -4.287939e-14 -2.280911e-13) (-2.809963e-12 -4.166761e-13 -3.491731e-09))
3888.271361   	((-3.231211e-11 -4.795803e-12 -8.346144e-09) (3.469959e-11 -8.151964e-11 5.731344e-09)) ((3.237330e-14 -4.320255e-14 -2.252441e-13) (-2.621922e-12 -4.053264e-13 -3.461515e-09))
4294.263297   	((-3.390947e-11 -5.299665e-12 -8.394538e-09) (3.323945e-11 -7.690180e-11 5.838167e-09)) ((3.204066e-14 -4.364985e-14 -2.226645e-13) (-2.454373e-12 -3.959275e-13 -3.434459e-09))
4700.262156   	((-3.496588e-11 -6.156168e-12 -8.439783e-09) (3.209877e-11 -7.281063e-11 5.936068e-09)) ((3.208043e-14 -4.410422e-14 -2.203620e-13) (-2.303150e-12 -3.952994e-13 -3.410171e-09))
5106.267867   	((-3.611083e-11 -6.997080e-12 -8.481416e-09) (3.117514e-11 -6.916567e-11 6.026094e-09)) ((3.227260e-14 -4.453477e-14 -2.182766e-13) (-2.174465e-12 -4.019778e-13 -3.388302e-09))
5512.280359   	((-3.665848e-11 -7.500339e-12 -8.519756e-09) (3.037157e-11 -6.590587e-11 6.109262e-09)) ((3.264726e-14 -4.489583e-14 -2.163773e-13) (-2.068839e-12 -4.164992e-13 -3.368561e-09))
5918.299425   	((-3.705549e-11 -7.726730e-12 -8.555281e-09) (2.963575e-11 -6.305708e-11 6.186290e-09)) ((3.302603e-14 -4.520315e-14 -2.146375e-13) (-1.977961e-12 -4.334261e-13 -3.350686e-09))
6324.324803   	((-3.731118e-11 -7.838683e-12 -8.588126e-09) (2.894645e-11 -6.057265e-11 6.257846e-09)) ((3.341850e-14 -4.543095e-14 -2.130613e-13) (-1.900630e-12 -4.489006e-13 -3.334462e-09))
6730.356139   	((-3.741085e-11 -7.923064e-12 -8.618463e-09) (2.840321e-11 -5.830292e-11 6.324440e-09)) ((3.374708e-14 -4.563049e-14 -2.116356e-13) (-1.834259e-12 -4.626560e-13 -3.319710e-09))
7136.393111   	((-3.744513e-11 -8.161797e-12 -8.646440e-09) (2.803632e-11 -5.625518e-11 6.386454e-09)) ((3.399831e-14 -4.581801e-14 -2.103112e-13) (-1.777802e-12 -4.762417e-13 -3.306271e-09))
7542.435498   	((-3.753863e-11 -8.614599e-12 -8.672211e-09) (2.779254e-11 -5.445964e-11 6.444220e-09)) ((3.418198e-14 -4.599980e-14 -2.091097e-13) (-1.730284e-12 -4.906185e-13 -3.294004e-09))
7948.482927   	((-3.771663e-11 -9.049692e-12 -8.695844e-09) (2.760103e-11 -5.283792e-11 6.498086e-09)) ((3.428806e-14 -4.617381e-14 -2.080132e-13) (-1.689307e-12 -5.041610e-13 -3.282793e-09))
8354.535036   	((-3.796540e-11 -9.376662e-12 -8.715615e-09) (2.744498e-11 -5.133520e-11 6.548356e-09)) ((3.436195e-14 -4.629910e-14 -2.070067e-13) (-1.652352e-12 -5.175846e-13 -3.272534e-09))
8760.591447   	((-3.843871e-11 -9.659952e-12 -8.735910e-09) (2.738018e-11 -4.997505e-11 6.595300e-09)) ((3.443321e-14 -4.641758e-14 -2.060710e-13) (-1.619422e-12 -5.319537e-13 -3.263129e-09))
9166.651911   	((-3.885997e-11 -1.000568e-11 -8.754547e-09) (2.739120e-11 -4.874775e-11 6.639177e-09)) ((3.448490e-14 -4.649556e-14 -2.052228e-13) (-1.588269e-12 -5.480309e-13 -3.254500e-09))
9572.716159   	((-3.903487e-11 -1.038093e-11 -8.771965e-09) (2.750732e-11 -4.765570e-11 6.680203e-09)) ((3.448837e-14 -4.655878e-14 -2.044510e-13) (-1.558557e-12 -5.666609e-13 -3.246571e-09))
