# Forces      
# CofR        : (0.000000e+00 0.000000e+00 0.000000e+00)
# Time        forces(pressure viscous)	moments(pressure viscous)
0             	((0.000000e+00 0.000000e+00 0.000000e+00) (-1.198694e-14 3.170789e-05 2.653220e-15)) ((0.000000e+00 0.000000e+00 0.000000e+00) (7.124431e-07 -1.042948e-16 -1.527264e-11))
0.012         	((-1.012877e-08 9.221423e-03 2.301022e-03) (-6.267269e-11 3.638275e-05 -1.466656e-08)) ((-1.087488e-07 7.842115e-09 -1.737732e-09) (1.050035e-06 1.640603e-14 -3.163990e-11))
0.0264        	((-1.506631e-07 -6.451055e-04 -1.491383e-04) (-2.060909e-10 3.711395e-05 -2.137772e-08)) ((7.710909e-09 -4.942900e-10 1.114996e-10) (1.175483e-06 2.621162e-12 -4.168897e-11))
0.04368       	((2.225931e-07 -1.925617e-03 -2.118254e-04) (-1.208536e-10 3.297638e-05 -1.878468e-08)) ((2.507697e-08 -7.200067e-10 4.723854e-10) (1.047189e-06 -4.122049e-12 -3.542993e-11))
0.064416      	((-6.525313e-08 -1.809618e-05 -7.689716e-05) (7.469644e-10 2.920624e-05 -1.041217e-08)) ((-1.206245e-10 -2.519594e-10 -2.655139e-11) (9.401964e-07 -7.943975e-12 -4.152851e-11))
0.0892992     	((1.521363e-08 2.502714e-05 -4.648219e-05) (1.059115e-09 2.696260e-05 -9.366188e-09)) ((-1.007684e-09 -1.546632e-10 -2.530008e-11) (8.888041e-07 -2.093902e-12 -4.188230e-11))
0.119159      	((3.443108e-09 -2.912468e-05 -2.907929e-05) (7.941157e-10 2.489672e-05 -1.394685e-08)) ((5.424894e-10 -9.060243e-11 6.380962e-12) (8.317496e-07 2.490251e-13 -3.181800e-11))
0.154991      	((-1.425765e-08 -1.557454e-05 -1.871736e-05) (5.782263e-10 2.270918e-05 -1.575276e-08)) ((3.341671e-10 -5.552569e-11 -1.981764e-13) (7.683340e-07 -1.524277e-12 -2.093695e-11))
0.197989      	((1.204337e-08 -3.762182e-06 -1.199866e-05) (3.123295e-10 2.050566e-05 -1.856130e-08)) ((1.225504e-10 -3.228961e-11 -1.086580e-13) (7.038644e-07 -3.901515e-12 -6.918104e-12))
0.249587      	((6.053555e-09 5.287848e-07 -7.900593e-06) (1.498455e-10 1.834819e-05 -2.252919e-08)) ((3.746765e-11 -1.889993e-11 -2.175250e-12) (6.394848e-07 -6.785668e-12 4.459795e-12))
0.311504      	((-2.291498e-09 2.489566e-06 -5.277846e-06) (6.258841e-11 1.630260e-05 -2.727134e-08)) ((9.683126e-12 -1.003919e-11 -2.051592e-12) (5.765024e-07 -1.154711e-11 1.681699e-11))
0.385805      	((-1.018814e-11 3.433456e-06 -3.670574e-06) (2.471842e-11 1.442169e-05 -3.220116e-08)) ((5.001492e-13 -4.585311e-12 -1.516009e-12) (5.164848e-07 -1.554730e-11 2.387137e-11))
0.474966      	((-5.022898e-11 3.896159e-06 -2.619152e-06) (7.267829e-11 1.273942e-05 -3.704034e-08)) ((-7.637389e-12 -1.131063e-12 -1.308980e-12) (4.610178e-07 -1.627622e-11 1.864482e-11))
0.581959      	((5.846239e-10 4.088558e-06 -1.986856e-06) (2.081957e-10 1.126471e-05 -4.190171e-08)) ((-1.404421e-11 7.119520e-13 -1.175237e-12) (4.109292e-07 -1.478378e-11 8.609624e-12))
0.710351      	((1.027029e-10 4.074364e-06 -1.592131e-06) (3.340274e-10 9.993209e-06 -4.643996e-08)) ((-1.820063e-11 1.893200e-12 -9.955968e-13) (3.666461e-07 -1.299507e-11 1.436514e-12))
0.864421      	((6.368465e-11 3.928693e-06 -1.374395e-06) (4.023192e-10 8.908817e-06 -5.031494e-08)) ((-1.997630e-11 2.516204e-12 -1.043149e-12) (3.281656e-07 -1.123591e-11 -3.280403e-12))
1.049306      	((1.650934e-10 3.712734e-06 -1.244786e-06) (3.926950e-10 7.986011e-06 -5.370194e-08)) ((-1.997208e-11 2.840340e-12 -1.013390e-12) (2.949597e-07 -9.096701e-12 -5.577283e-12))
1.271167      	((2.821805e-10 3.469731e-06 -1.182919e-06) (3.477608e-10 7.198067e-06 -5.692656e-08)) ((-1.907078e-11 2.967832e-12 -9.008465e-13) (2.662373e-07 -6.962420e-12 -7.285918e-12))
1.5374        	((2.635630e-10 3.217552e-06 -1.155704e-06) (2.915807e-10 6.517488e-06 -6.046872e-08)) ((-1.778246e-11 3.014680e-12 -8.831197e-13) (2.411858e-07 -5.374751e-12 -1.027312e-11))
1.85688       	((3.075009e-10 2.969891e-06 -1.156477e-06) (2.048276e-10 5.919768e-06 -6.464370e-08)) ((-1.626444e-11 2.913002e-12 -8.532166e-13) (2.190950e-07 -3.730177e-12 -1.323858e-11))
2.240256      	((2.231964e-10 2.734900e-06 -1.168323e-06) (1.067218e-10 5.388583e-06 -6.942515e-08)) ((-1.501378e-11 2.800597e-12 -8.422582e-13) (1.994381e-07 -2.377818e-12 -1.639292e-11))
2.700307      	((2.587065e-10 2.516028e-06 -1.189920e-06) (7.435658e-11 4.913360e-06 -7.462484e-08)) ((-1.395243e-11 2.669569e-12 -8.185620e-13) (1.818450e-07 -1.361693e-12 -1.869756e-11))
3.252369      	((1.701840e-10 2.313054e-06 -1.212934e-06) (7.624345e-11 4.486423e-06 -8.016094e-08)) ((-1.290435e-11 2.488339e-12 -7.780978e-13) (1.660372e-07 -6.584426e-13 -1.899894e-11))
3.914842      	((6.526203e-11 2.124009e-06 -1.238390e-06) (6.724214e-11 4.101875e-06 -8.612270e-08)) ((-1.186900e-11 2.300395e-12 -7.127665e-13) (1.517962e-07 -2.485388e-13 -1.797105e-11))
4.709811      	((-3.210162e-11 1.949487e-06 -1.262148e-06) (5.371875e-11 3.755453e-06 -9.256555e-08)) ((-1.092519e-11 2.126307e-12 -6.282843e-13) (1.389628e-07 3.176206e-13 -1.615967e-11))
5.663773      	((-6.293032e-11 1.789895e-06 -1.283534e-06) (2.913378e-11 3.444003e-06 -9.947628e-08)) ((-1.014312e-11 1.968922e-12 -5.580554e-13) (1.274214e-07 1.313838e-12 -1.566856e-11))
6.808528      	((4.366891e-11 1.645330e-06 -1.300794e-06) (9.279391e-12 3.164747e-06 -1.068166e-07)) ((-9.513309e-12 1.815289e-12 -4.826674e-13) (1.170713e-07 1.682734e-12 -1.601885e-11))
8.182233      	((3.762447e-11 1.515596e-06 -1.314086e-06) (-8.950509e-12 2.914609e-06 -1.145584e-07)) ((-9.000656e-12 1.667043e-12 -4.147764e-13) (1.078009e-07 1.173686e-12 -1.633535e-11))
9.83068       	((2.976503e-12 1.399609e-06 -1.323850e-06) (-2.646505e-11 2.690123e-06 -1.227304e-07)) ((-8.536800e-12 1.543098e-12 -3.680705e-13) (9.948365e-08 6.799645e-13 -1.641905e-11))
11.808816     	((7.988142e-11 1.295744e-06 -1.330502e-06) (-3.820854e-11 2.488068e-06 -1.314252e-07)) ((-8.127778e-12 1.438094e-12 -3.404168e-13) (9.199943e-08 2.849265e-13 -1.649069e-11))
14.182579     	((-6.444054e-11 1.203341e-06 -1.334548e-06) (-5.136845e-11 2.305706e-06 -1.407241e-07)) ((-7.800872e-12 1.340321e-12 -3.166972e-13) (8.524515e-08 6.490353e-13 -1.595491e-11))
17.031095     	((-7.339587e-11 1.121982e-06 -1.335892e-06) (-7.103006e-11 2.140804e-06 -1.506494e-07)) ((-7.577432e-12 1.247594e-12 -3.007285e-13) (7.913645e-08 1.494145e-12 -1.320904e-11))
20.449314     	((-1.364990e-10 1.051236e-06 -1.334815e-06) (-1.140540e-10 1.991715e-06 -1.611992e-07)) ((-7.463719e-12 1.154388e-12 -2.947427e-13) (7.361063e-08 2.382525e-12 -8.990104e-12))
24.551176     	((-1.850549e-10 9.909069e-07 -1.332153e-06) (-1.486707e-10 1.857263e-06 -1.722750e-07)) ((-7.468197e-12 1.057410e-12 -3.022866e-13) (6.862389e-08 2.963139e-12 -5.826405e-12))
29.473411     	((-1.630141e-10 9.407533e-07 -1.326910e-06) (-1.600384e-10 1.736541e-06 -1.837108e-07)) ((-7.579471e-12 9.679969e-13 -3.210193e-13) (6.414365e-08 2.970355e-12 -3.513372e-12))
35.380094     	((-4.576157e-11 9.001240e-07 -1.320006e-06) (-1.526861e-10 1.628744e-06 -1.953139e-07)) ((-7.783358e-12 8.923840e-13 -3.440905e-13) (6.014210e-08 2.212536e-12 -7.105278e-13))
42.468112     	((-2.601518e-11 8.686478e-07 -1.310321e-06) (-1.473026e-10 1.533044e-06 -2.068642e-07)) ((-8.069694e-12 8.173022e-13 -3.716066e-13) (5.659096e-08 1.384105e-12 2.952421e-12))
50.973735     	((8.887273e-11 8.456781e-07 -1.298742e-06) (-1.345281e-10 1.448612e-06 -2.182033e-07)) ((-8.452690e-12 7.481489e-13 -4.009556e-13) (5.346163e-08 7.283105e-13 7.380902e-12))
61.180482     	((2.187967e-10 8.308524e-07 -1.284914e-06) (-1.267622e-10 1.374653e-06 -2.292098e-07)) ((-8.937934e-12 6.865352e-13 -4.367382e-13) (5.072748e-08 -5.883988e-14 1.240220e-11))
73.428578     	((3.591644e-10 8.240085e-07 -1.269595e-06) (-1.189903e-10 1.310508e-06 -2.397667e-07)) ((-9.533188e-12 6.337561e-13 -4.804962e-13) (4.836836e-08 -1.111675e-12 1.774674e-11))
88.126294     	((5.518931e-10 8.240984e-07 -1.252972e-06) (-1.126256e-10 1.255629e-06 -2.497995e-07)) ((-1.020920e-11 5.948164e-13 -5.332708e-13) (4.636819e-08 -2.928103e-12 2.335955e-11))
105.763553    	((7.198210e-10 8.296252e-07 -1.235028e-06) (-1.011120e-10 1.209501e-06 -2.593252e-07)) ((-1.092437e-11 5.711279e-13 -5.907702e-13) (4.470786e-08 -5.116228e-12 2.877542e-11))
126.928263    	((9.383907e-10 8.393507e-07 -1.216124e-06) (-8.829660e-11 1.171550e-06 -2.682506e-07)) ((-1.163245e-11 5.659004e-13 -6.461433e-13) (4.336247e-08 -7.391199e-12 3.324988e-11))
152.087528    	((1.156373e-09 8.515001e-07 -1.196100e-06) (-6.229672e-11 1.141113e-06 -2.762162e-07)) ((-1.225826e-11 5.760885e-13 -6.968649e-13) (4.229805e-08 -1.024788e-11 3.613180e-11))
181.219879    	((1.353487e-09 8.635960e-07 -1.174603e-06) (-2.864779e-11 1.117154e-06 -2.828101e-07)) ((-1.273581e-11 5.937773e-13 -7.343229e-13) (4.146411e-08 -1.324858e-11 3.774652e-11))
214.307676    	((1.531874e-09 8.730528e-07 -1.151697e-06) (9.229193e-12 1.098160e-06 -2.877977e-07)) ((-1.309490e-11 6.124420e-13 -7.592568e-13) (4.080120e-08 -1.593675e-11 3.864711e-11))
251.34476     	((1.681613e-09 8.791290e-07 -1.127491e-06) (6.097019e-11 1.082739e-06 -2.912775e-07)) ((-1.336470e-11 6.322197e-13 -7.779335e-13) (4.026172e-08 -1.843275e-11 3.857277e-11))
290.878056    	((1.796453e-09 8.827199e-07 -1.103734e-06) (1.147055e-10 1.070057e-06 -2.936242e-07)) ((-1.356448e-11 6.540618e-13 -7.933762e-13) (3.981979e-08 -2.052175e-11 3.785859e-11))
330.484819    	((1.864806e-09 8.847777e-07 -1.081623e-06) (1.711109e-10 1.059544e-06 -2.952777e-07)) ((-1.370061e-11 6.841094e-13 -8.051913e-13) (3.945690e-08 -2.217775e-11 3.662206e-11))
370.149905    	((1.913665e-09 8.856910e-07 -1.061449e-06) (2.240745e-10 1.050686e-06 -2.965439e-07)) ((-1.378736e-11 7.195740e-13 -8.166363e-13) (3.915454e-08 -2.344683e-11 3.525759e-11))
409.854754    	((1.923575e-09 8.861773e-07 -1.042696e-06) (2.716705e-10 1.043236e-06 -2.975784e-07)) ((-1.384351e-11 7.575498e-13 -8.250391e-13) (3.890244e-08 -2.445825e-11 3.365055e-11))
449.590497    	((1.905436e-09 8.863995e-07 -1.025753e-06) (3.127350e-10 1.036954e-06 -2.984604e-07)) ((-1.387918e-11 7.942876e-13 -8.326187e-13) (3.869122e-08 -2.509369e-11 3.185883e-11))
489.353928    	((1.865702e-09 8.864616e-07 -1.010456e-06) (3.436417e-10 1.031654e-06 -2.992246e-07)) ((-1.390578e-11 8.286140e-13 -8.388755e-13) (3.851398e-08 -2.537148e-11 3.005113e-11))
529.142258    	((1.807887e-09 8.863580e-07 -9.967617e-07) (3.671128e-10 1.027166e-06 -2.998943e-07)) ((-1.392344e-11 8.602323e-13 -8.438954e-13) (3.836476e-08 -2.530913e-11 2.816066e-11))
568.952298    	((1.734344e-09 8.861801e-07 -9.845930e-07) (3.823502e-10 1.023360e-06 -3.004860e-07)) ((-1.393610e-11 8.889419e-13 -8.479543e-13) (3.823881e-08 -2.500712e-11 2.628557e-11))
608.780992    	((1.642729e-09 8.859622e-07 -9.738000e-07) (3.903195e-10 1.020125e-06 -3.010129e-07)) ((-1.394458e-11 9.147531e-13 -8.512480e-13) (3.813210e-08 -2.444377e-11 2.445845e-11))
648.6257      	((1.551110e-09 8.857354e-07 -9.641602e-07) (3.926798e-10 1.017368e-06 -3.014817e-07)) ((-1.395082e-11 9.382088e-13 -8.540070e-13) (3.804146e-08 -2.366652e-11 2.268409e-11))
688.484162    	((1.452321e-09 8.855156e-07 -9.555311e-07) (3.887506e-10 1.015012e-06 -3.018966e-07)) ((-1.395535e-11 9.594229e-13 -8.562955e-13) (3.796434e-08 -2.271906e-11 2.104980e-11))
728.354442    	((1.358855e-09 8.853003e-07 -9.477826e-07) (3.810775e-10 1.012997e-06 -3.022630e-07)) ((-1.395813e-11 9.788448e-13 -8.580988e-13) (3.789857e-08 -2.166262e-11 1.949287e-11))
768.234875    	((1.265890e-09 8.850977e-07 -9.408620e-07) (3.703856e-10 1.011270e-06 -3.025852e-07)) ((-1.396018e-11 9.962137e-13 -8.596506e-13) (3.784238e-08 -2.055525e-11 1.804184e-11))
808.12404     	((1.177619e-09 8.849074e-07 -9.346866e-07) (3.582512e-10 1.009786e-06 -3.028680e-07)) ((-1.396199e-11 1.011930e-12 -8.611878e-13) (3.779426e-08 -1.942590e-11 1.665505e-11))
848.020709    	((1.090495e-09 8.847293e-07 -9.292114e-07) (3.444759e-10 1.008509e-06 -3.031159e-07)) ((-1.396307e-11 1.025857e-12 -8.624870e-13) (3.775295e-08 -1.826677e-11 1.535690e-11))
887.923833    	((1.010831e-09 8.845660e-07 -9.243518e-07) (3.297731e-10 1.007409e-06 -3.033329e-07)) ((-1.396373e-11 1.038265e-12 -8.636172e-13) (3.771744e-08 -1.710952e-11 1.415019e-11))
927.832511    	((9.343728e-10 8.844148e-07 -9.200436e-07) (3.146307e-10 1.006461e-06 -3.035224e-07)) ((-1.396411e-11 1.049206e-12 -8.646080e-13) (3.768687e-08 -1.597293e-11 1.303183e-11))
967.745961    	((8.647228e-10 8.842776e-07 -9.162238e-07) (2.993230e-10 1.005642e-06 -3.036878e-07)) ((-1.396439e-11 1.058913e-12 -8.654205e-13) (3.766050e-08 -1.487002e-11 1.200914e-11))
1007.663524   	((8.017375e-10 8.841527e-07 -9.128446e-07) (2.842561e-10 1.004934e-06 -3.038319e-07)) ((-1.396460e-11 1.067547e-12 -8.661468e-13) (3.763774e-08 -1.382248e-11 1.107929e-11))
1047.584639   	((7.445557e-10 8.840394e-07 -9.098590e-07) (2.695412e-10 1.004321e-06 -3.039573e-07)) ((-1.396471e-11 1.075233e-12 -8.667659e-13) (3.761806e-08 -1.283921e-11 1.024398e-11))
1087.508823   	((6.935004e-10 8.839389e-07 -9.072242e-07) (2.554216e-10 1.003790e-06 -3.040665e-07)) ((-1.396478e-11 1.081998e-12 -8.673025e-13) (3.760102e-08 -1.192461e-11 9.498360e-12))
1127.435659   	((6.479847e-10 8.838496e-07 -9.048988e-07) (2.421574e-10 1.003330e-06 -3.041616e-07)) ((-1.396481e-11 1.087964e-12 -8.677773e-13) (3.758626e-08 -1.108204e-11 8.832192e-12))
1167.364793   	((6.073583e-10 8.837692e-07 -9.028516e-07) (2.298454e-10 1.002930e-06 -3.042442e-07)) ((-1.396487e-11 1.093171e-12 -8.682004e-13) (3.757346e-08 -1.031279e-11 8.235796e-12))
1207.295917   	((5.719929e-10 8.836990e-07 -9.010497e-07) (2.186190e-10 1.002583e-06 -3.043160e-07)) ((-1.396494e-11 1.097780e-12 -8.685659e-13) (3.756234e-08 -9.615129e-12 7.704471e-12))
1247.228766   	((5.408772e-10 8.836357e-07 -8.994655e-07) (2.084159e-10 1.002282e-06 -3.043784e-07)) ((-1.396504e-11 1.101845e-12 -8.688975e-13) (3.755269e-08 -8.987355e-12 7.234231e-12))
1287.163114   	((5.136541e-10 8.835795e-07 -8.980717e-07) (1.992731e-10 1.002019e-06 -3.044325e-07)) ((-1.396517e-11 1.105462e-12 -8.691919e-13) (3.754431e-08 -8.426019e-12 6.815684e-12))
1327.098764   	((4.897035e-10 8.835302e-07 -8.968486e-07) (1.911302e-10 1.001791e-06 -3.044796e-07)) ((-1.396527e-11 1.108634e-12 -8.694474e-13) (3.753701e-08 -7.926018e-12 6.442401e-12))
1367.035545   	((4.689212e-10 8.834862e-07 -8.957748e-07) (1.839304e-10 1.001593e-06 -3.045205e-07)) ((-1.396534e-11 1.111413e-12 -8.696607e-13) (3.753067e-08 -7.482242e-12 6.111193e-12))
1406.973311   	((4.507015e-10 8.834476e-07 -8.948323e-07) (1.775722e-10 1.001420e-06 -3.045560e-07)) ((-1.396541e-11 1.113855e-12 -8.698502e-13) (3.752515e-08 -7.089084e-12 5.818165e-12))
1446.911935   	((4.350695e-10 8.834133e-07 -8.940054e-07) (1.719898e-10 1.001270e-06 -3.045869e-07)) ((-1.396547e-11 1.116000e-12 -8.700122e-13) (3.752034e-08 -6.743067e-12 5.560323e-12))
1486.851306   	((4.213044e-10 8.833837e-07 -8.932806e-07) (1.670969e-10 1.001138e-06 -3.046138e-07)) ((-1.396552e-11 1.117882e-12 -8.701577e-13) (3.751615e-08 -6.438564e-12 5.333482e-12))
1526.791327   	((4.093164e-10 8.833573e-07 -8.926451e-07) (1.628291e-10 1.001024e-06 -3.046371e-07)) ((-1.396556e-11 1.119533e-12 -8.702817e-13) (3.751250e-08 -6.171577e-12 5.133643e-12))
1566.731915   	((3.987779e-10 8.833339e-07 -8.920884e-07) (1.591213e-10 1.000925e-06 -3.046574e-07)) ((-1.396560e-11 1.120983e-12 -8.703876e-13) (3.750932e-08 -5.937861e-12 4.957207e-12))
1606.672998   	((3.894493e-10 8.833131e-07 -8.916003e-07) (1.558754e-10 1.000838e-06 -3.046749e-07)) ((-1.396564e-11 1.122254e-12 -8.704834e-13) (3.750655e-08 -5.732830e-12 4.801851e-12))
1646.614512   	((3.812376e-10 8.832948e-07 -8.911734e-07) (1.530355e-10 1.000762e-06 -3.046902e-07)) ((-1.396567e-11 1.123367e-12 -8.705665e-13) (3.750413e-08 -5.552992e-12 4.665089e-12))
1686.556402   	((3.740136e-10 8.832788e-07 -8.908005e-07) (1.505372e-10 1.000696e-06 -3.047034e-07)) ((-1.396571e-11 1.124338e-12 -8.706393e-13) (3.750202e-08 -5.395043e-12 4.544676e-12))
1726.498619   	((3.676220e-10 8.832649e-07 -8.904727e-07) (1.483404e-10 1.000639e-06 -3.047149e-07)) ((-1.396574e-11 1.125190e-12 -8.707040e-13) (3.750018e-08 -5.256209e-12 4.438751e-12))
1766.441121   	((3.619040e-10 8.832526e-07 -8.901864e-07) (1.464040e-10 1.000589e-06 -3.047249e-07)) ((-1.396577e-11 1.125933e-12 -8.707618e-13) (3.749858e-08 -5.133986e-12 4.345618e-12))
1806.383873   	((3.569809e-10 8.832421e-07 -8.899364e-07) (1.446891e-10 1.000545e-06 -3.047336e-07)) ((-1.396580e-11 1.126583e-12 -8.708108e-13) (3.749718e-08 -5.026175e-12 4.263852e-12))
1846.326842   	((3.525232e-10 8.832327e-07 -8.897178e-07) (1.431737e-10 1.000507e-06 -3.047411e-07)) ((-1.396582e-11 1.127150e-12 -8.708531e-13) (3.749596e-08 -4.931094e-12 4.191872e-12))
1886.27       	((3.485280e-10 8.832244e-07 -8.895256e-07) (1.418298e-10 1.000474e-06 -3.047477e-07)) ((-1.396584e-11 1.127647e-12 -8.708901e-13) (3.749489e-08 -4.847010e-12 4.128467e-12))
1926.213322   	((3.450330e-10 8.832172e-07 -8.893587e-07) (1.406376e-10 1.000444e-06 -3.047534e-07)) ((-1.396586e-11 1.128076e-12 -8.709241e-13) (3.749396e-08 -4.772645e-12 4.072606e-12))
1966.156789   	((3.418840e-10 8.832108e-07 -8.892121e-07) (1.395806e-10 1.000419e-06 -3.047583e-07)) ((-1.396588e-11 1.128453e-12 -8.709522e-13) (3.749315e-08 -4.706771e-12 4.023426e-12))
2006.100381   	((3.391082e-10 8.832053e-07 -8.890845e-07) (1.386413e-10 1.000397e-06 -3.047626e-07)) ((-1.396590e-11 1.128781e-12 -8.709764e-13) (3.749244e-08 -4.648416e-12 3.980082e-12))
2046.044083   	((3.366576e-10 8.832004e-07 -8.889729e-07) (1.378050e-10 1.000378e-06 -3.047663e-07)) ((-1.396591e-11 1.129067e-12 -8.709986e-13) (3.749182e-08 -4.596722e-12 3.941834e-12))
2085.987879   	((3.344309e-10 8.831961e-07 -8.888753e-07) (1.370609e-10 1.000361e-06 -3.047696e-07)) ((-1.396592e-11 1.129317e-12 -8.710168e-13) (3.749128e-08 -4.550856e-12 3.908199e-12))
2125.931758   	((3.324960e-10 8.831924e-07 -8.887899e-07) (1.363977e-10 1.000346e-06 -3.047724e-07)) ((-1.396594e-11 1.129534e-12 -8.710340e-13) (3.749081e-08 -4.510252e-12 3.878583e-12))
2165.87571    	((3.307823e-10 8.831891e-07 -8.887152e-07) (1.358077e-10 1.000333e-06 -3.047749e-07)) ((-1.396595e-11 1.129724e-12 -8.710482e-13) (3.749040e-08 -4.474230e-12 3.852498e-12))
2205.819724   	((3.292709e-10 8.831862e-07 -8.886498e-07) (1.352838e-10 1.000322e-06 -3.047770e-07)) ((-1.396595e-11 1.129891e-12 -8.710608e-13) (3.749004e-08 -4.442342e-12 3.829545e-12))
2245.763793   	((3.279269e-10 8.831838e-07 -8.885921e-07) (1.348194e-10 1.000312e-06 -3.047789e-07)) ((-1.396596e-11 1.130037e-12 -8.710718e-13) (3.748972e-08 -4.414127e-12 3.809325e-12))
2285.70791    	((3.267514e-10 8.831816e-07 -8.885423e-07) (1.344088e-10 1.000304e-06 -3.047805e-07)) ((-1.396597e-11 1.130163e-12 -8.710815e-13) (3.748945e-08 -4.389241e-12 3.791545e-12))
