# Forces      
# CofR        : (0.000000e+00 0.000000e+00 0.000000e+00)
# Time        forces(pressure viscous)	moments(pressure viscous)
0             	((0.000000e+00 0.000000e+00 0.000000e+00) (-1.000016e-12 1.608734e-03 8.009456e-14)) ((0.000000e+00 0.000000e+00 0.000000e+00) (3.614661e-05 -6.008405e-15 -7.771267e-10))
0.012         	((4.179891e-07 4.644425e-01 1.115767e-01) (-3.962910e-11 1.841259e-03 -1.799442e-05)) ((-5.450453e-06 3.960173e-07 -8.554422e-08) (5.374260e-05 -9.937273e-11 -1.140139e-09))
0.0264        	((-1.567939e-05 -6.257791e-02 -1.952746e-02) (-3.475202e-09 1.850722e-03 -2.775547e-05)) ((6.924603e-07 -3.931686e-08 4.510925e-09) (5.962024e-05 4.561061e-11 -3.081059e-10))
0.04368       	((1.969056e-05 -8.033109e-02 -1.640917e-02) (6.648496e-09 1.614636e-03 -2.765010e-05)) ((1.097584e-06 -3.693416e-08 2.654956e-08) (5.282681e-05 -2.080176e-10 9.380785e-10))
0.064416      	((-1.233262e-06 -2.912106e-04 -9.049694e-03) (-3.550485e-09 1.421711e-03 -3.087644e-05)) ((-4.657456e-12 -1.202187e-08 -4.797683e-09) (4.787427e-05 -3.919303e-10 8.250649e-10))
0.0892992     	((-2.989401e-06 -5.056824e-04 -7.116233e-03) (-1.499658e-08 1.307935e-03 -3.805899e-05)) ((-3.025360e-09 -6.040707e-09 8.679502e-11) (4.531108e-05 3.687184e-10 8.070753e-10))
0.119159      	((-5.473805e-07 -1.007874e-03 -6.023069e-03) (-7.243499e-08 1.211107e-03 -4.483343e-05)) ((3.523689e-08 -2.054350e-09 2.824057e-10) (4.258770e-05 8.836925e-10 1.112117e-09))
0.154991      	((-1.917569e-06 -1.072170e-04 -5.427278e-03) (-1.661700e-07 1.117880e-03 -5.039559e-05)) ((2.116776e-08 -6.131124e-10 3.582351e-12) (3.984301e-05 1.067892e-09 2.265093e-09))
0.197989      	((-1.249155e-06 1.702374e-04 -5.013081e-03) (-2.448506e-07 1.032990e-03 -5.541766e-05)) ((1.650963e-08 5.146082e-10 -1.836747e-10) (3.724563e-05 1.140542e-09 2.972056e-09))
0.249587      	((-1.476944e-06 2.892755e-04 -4.756286e-03) (-3.064161e-07 9.586805e-04 -6.062657e-05)) ((1.431891e-08 1.386085e-09 -4.272436e-11) (3.483952e-05 1.247422e-09 3.112539e-09))
0.311504      	((-1.119867e-06 3.677036e-04 -4.598523e-03) (-3.201590e-07 8.941188e-04 -6.627249e-05)) ((1.219810e-08 1.735235e-09 -1.182104e-10) (3.263375e-05 1.339188e-09 3.240071e-09))
0.385805      	((-9.055997e-07 4.120946e-04 -4.494341e-03) (-2.690470e-07 8.366327e-04 -7.259572e-05)) ((1.001337e-08 1.923837e-09 -1.822573e-10) (3.058980e-05 1.434156e-09 3.982670e-09))
0.474966      	((-4.376396e-07 4.360730e-04 -4.425056e-03) (-2.008543e-07 7.827477e-04 -8.006242e-05)) ((7.846170e-09 1.931462e-09 -2.736284e-10) (2.862486e-05 1.551948e-09 5.084114e-09))
0.581959      	((-4.124107e-07 4.504076e-04 -4.374456e-03) (-1.659198e-07 7.301436e-04 -8.877776e-05)) ((5.701704e-09 1.887654e-09 -3.698003e-10) (2.668366e-05 1.577358e-09 5.749594e-09))
0.710351      	((-3.525077e-07 4.639264e-04 -4.334620e-03) (-1.554082e-07 6.790097e-04 -9.853606e-05)) ((3.512607e-09 1.833380e-09 -4.579538e-10) (2.478545e-05 1.547090e-09 6.090855e-09))
0.864421      	((-2.878193e-07 4.829871e-04 -4.300241e-03) (-1.457425e-07 6.305707e-04 -1.092706e-04)) ((1.304162e-09 1.706925e-09 -5.557864e-10) (2.297517e-05 1.349620e-09 6.206057e-09))
1.049306      	((-2.133859e-07 5.134153e-04 -4.266418e-03) (-1.227335e-07 5.857680e-04 -1.208406e-04)) ((-9.471190e-10 1.479072e-09 -7.426657e-10) (2.128646e-05 9.712123e-10 6.369032e-09))
1.271167      	((-1.951552e-07 5.570633e-04 -4.230844e-03) (-8.694964e-08 5.450914e-04 -1.328221e-04)) ((-3.315305e-09 1.251630e-09 -8.989463e-10) (1.974297e-05 5.923323e-10 6.760695e-09))
1.5374        	((-1.132204e-07 6.173673e-04 -4.189853e-03) (-4.129662e-08 5.088999e-04 -1.445284e-04)) ((-5.847478e-09 9.481896e-10 -1.093858e-09) (1.836747e-05 3.802361e-10 7.594494e-09))
1.853624      	((-8.848470e-09 6.976515e-04 -4.146175e-03) (3.411223e-09 4.776123e-04 -1.553073e-04)) ((-8.616741e-09 5.380617e-10 -1.346679e-09) (1.718193e-05 1.341155e-10 8.923622e-09))
2.219411      	((1.126000e-07 7.981187e-04 -4.100013e-03) (3.646214e-08 4.514647e-04 -1.647891e-04)) ((-1.148143e-08 6.506547e-11 -1.657672e-09) (1.619574e-05 -2.886581e-10 1.118395e-08))
2.634381      	((3.415538e-07 9.177009e-04 -4.052026e-03) (4.016683e-08 4.298938e-04 -1.731885e-04)) ((-1.418137e-08 -4.703126e-10 -2.034710e-09) (1.537921e-05 -8.450995e-10 1.363213e-08))
3.098042      	((4.746632e-07 1.055040e-03 -4.000714e-03) (1.890593e-08 4.121843e-04 -1.807325e-04)) ((-1.651009e-08 -1.028688e-09 -2.472285e-09) (1.469403e-05 -1.430050e-09 1.537950e-08))
3.579202      	((5.897256e-07 1.200946e-03 -3.943060e-03) (1.992830e-08 3.984067e-04 -1.867464e-04)) ((-1.828405e-08 -1.582281e-09 -2.883364e-09) (1.414163e-05 -2.294668e-09 1.654270e-08))
4.053689      	((8.589287e-07 1.342458e-03 -3.874706e-03) (3.450960e-08 3.878225e-04 -1.906010e-04)) ((-1.970691e-08 -2.038383e-09 -3.190544e-09) (1.370826e-05 -2.958202e-09 1.641132e-08))
4.521395      	((1.111466e-06 1.473365e-03 -3.799179e-03) (2.600044e-08 3.796071e-04 -1.923836e-04)) ((-2.106533e-08 -2.464455e-09 -3.476141e-09) (1.337301e-05 -3.231077e-09 1.550409e-08))
4.983731      	((1.418767e-06 1.581876e-03 -3.718264e-03) (2.030838e-08 3.733233e-04 -1.924268e-04)) ((-2.261385e-08 -2.896962e-09 -3.820918e-09) (1.312565e-05 -3.370813e-09 1.509453e-08))
5.443233      	((1.517271e-06 1.660185e-03 -3.630324e-03) (4.462421e-09 3.683397e-04 -1.914089e-04)) ((-2.430574e-08 -3.257381e-09 -4.175664e-09) (1.294130e-05 -3.626425e-09 1.535188e-08))
5.901973      	((1.946778e-06 1.708312e-03 -3.540435e-03) (-1.314923e-08 3.638979e-04 -1.899473e-04)) ((-2.604170e-08 -3.518613e-09 -4.536190e-09) (1.279089e-05 -3.642264e-09 1.564861e-08))
6.360472      	((2.737958e-06 1.727173e-03 -3.444235e-03) (-5.539021e-09 3.596158e-04 -1.883424e-04)) ((-2.780596e-08 -3.535371e-09 -4.834772e-09) (1.265841e-05 -3.710789e-09 1.641786e-08))
6.818081      	((2.827787e-06 1.713613e-03 -3.349896e-03) (5.503185e-09 3.554550e-04 -1.867283e-04)) ((-2.881688e-08 -3.389080e-09 -5.065482e-09) (1.253872e-05 -4.076241e-09 1.782083e-08))
7.273989      	((2.855493e-06 1.685001e-03 -3.272574e-03) (2.783685e-08 3.514694e-04 -1.851821e-04)) ((-2.948242e-08 -3.186365e-09 -5.115168e-09) (1.243187e-05 -4.214375e-09 1.891854e-08))
7.727891      	((3.205654e-06 1.654711e-03 -3.215929e-03) (5.911721e-08 3.479404e-04 -1.835995e-04)) ((-2.999268e-08 -3.049693e-09 -5.037905e-09) (1.234980e-05 -4.477331e-09 1.946338e-08))
8.179955      	((3.172860e-06 1.620787e-03 -3.162368e-03) (6.955511e-08 3.448914e-04 -1.819721e-04)) ((-3.018440e-08 -2.939031e-09 -4.860811e-09) (1.228986e-05 -5.101445e-09 2.022985e-08))
8.630576      	((3.413007e-06 1.600015e-03 -3.107674e-03) (6.649918e-08 3.422757e-04 -1.804100e-04)) ((-3.015430e-08 -2.863507e-09 -4.740884e-09) (1.224226e-05 -5.913093e-09 2.054678e-08))
9.080071      	((3.434187e-06 1.593722e-03 -3.053412e-03) (9.374261e-08 3.400561e-04 -1.789319e-04)) ((-3.013275e-08 -2.895858e-09 -4.694215e-09) (1.220275e-05 -6.908258e-09 1.858348e-08))
9.528592      	((3.757925e-06 1.591162e-03 -3.008132e-03) (1.413059e-07 3.380961e-04 -1.776518e-04)) ((-2.996966e-08 -2.946011e-09 -4.697315e-09) (1.216388e-05 -8.113616e-09 1.531094e-08))
9.976189      	((3.809890e-06 1.585737e-03 -2.966573e-03) (1.651949e-07 3.362151e-04 -1.766468e-04)) ((-2.981296e-08 -2.984124e-09 -4.728273e-09) (1.211935e-05 -9.146816e-09 1.352969e-08))
10.422916     	((3.896687e-06 1.576762e-03 -2.928523e-03) (1.713524e-07 3.343728e-04 -1.758590e-04)) ((-2.972598e-08 -2.970010e-09 -4.741398e-09) (1.207109e-05 -9.826957e-09 1.331534e-08))
10.868881     	((4.528373e-06 1.561977e-03 -2.891470e-03) (1.821868e-07 3.325444e-04 -1.752471e-04)) ((-2.960952e-08 -2.890488e-09 -4.720744e-09) (1.202107e-05 -1.059773e-08 1.355649e-08))
11.314188     	((5.053378e-06 1.545981e-03 -2.855504e-03) (1.974060e-07 3.307209e-04 -1.747839e-04)) ((-2.950740e-08 -2.798119e-09 -4.679186e-09) (1.197019e-05 -1.144587e-08 1.410743e-08))
11.758916     	((5.959455e-06 1.529977e-03 -2.821177e-03) (2.167064e-07 3.289449e-04 -1.744275e-04)) ((-2.937967e-08 -2.697965e-09 -4.626545e-09) (1.192038e-05 -1.259036e-08 1.495445e-08))
12.203115     	((6.596812e-06 1.516800e-03 -2.787572e-03) (2.370886e-07 3.272676e-04 -1.741307e-04)) ((-2.927307e-08 -2.605652e-09 -4.575637e-09) (1.187340e-05 -1.382238e-08 1.574008e-08))
12.646829     	((7.300869e-06 1.506268e-03 -2.753318e-03) (2.575306e-07 3.257114e-04 -1.738668e-04)) ((-2.918875e-08 -2.518911e-09 -4.535585e-09) (1.182982e-05 -1.512657e-08 1.640721e-08))
13.09012      	((7.823973e-06 1.499023e-03 -2.719412e-03) (2.801018e-07 3.242542e-04 -1.736342e-04)) ((-2.914498e-08 -2.444566e-09 -4.513660e-09) (1.178855e-05 -1.662717e-08 1.688864e-08))
13.533042     	((8.136252e-06 1.494333e-03 -2.686756e-03) (3.030201e-07 3.228629e-04 -1.734195e-04)) ((-2.916902e-08 -2.388195e-09 -4.503185e-09) (1.174868e-05 -1.810938e-08 1.714465e-08))
13.975619     	((8.598589e-06 1.489519e-03 -2.653746e-03) (3.260664e-07 3.215040e-04 -1.732048e-04)) ((-2.925600e-08 -2.332949e-09 -4.495566e-09) (1.170988e-05 -1.958828e-08 1.740017e-08))
14.417852     	((9.219024e-06 1.485058e-03 -2.622467e-03) (3.540287e-07 3.201837e-04 -1.729752e-04)) ((-2.940166e-08 -2.282248e-09 -4.490518e-09) (1.167299e-05 -2.113801e-08 1.779326e-08))
14.859758     	((9.617227e-06 1.479495e-03 -2.591814e-03) (3.836090e-07 3.189173e-04 -1.727254e-04)) ((-2.955192e-08 -2.225925e-09 -4.487973e-09) (1.163874e-05 -2.269709e-08 1.824447e-08))
15.301367     	((1.000371e-05 1.473766e-03 -2.562524e-03) (4.182549e-07 3.177179e-04 -1.724630e-04)) ((-2.968125e-08 -2.162595e-09 -4.478455e-09) (1.160721e-05 -2.417929e-08 1.820826e-08))
15.742622     	((1.094348e-05 1.467924e-03 -2.533771e-03) (4.615145e-07 3.166008e-04 -1.721941e-04)) ((-2.977562e-08 -2.088508e-09 -4.463248e-09) (1.157869e-05 -2.590405e-08 1.793780e-08))
16.183581     	((1.146964e-05 1.462003e-03 -2.505314e-03) (5.021217e-07 3.155583e-04 -1.719190e-04)) ((-2.983505e-08 -2.017792e-09 -4.444088e-09) (1.155289e-05 -2.778797e-08 1.806542e-08))
16.624299     	((1.225629e-05 1.456059e-03 -2.477823e-03) (5.407725e-07 3.145755e-04 -1.716365e-04)) ((-2.986252e-08 -1.949005e-09 -4.422964e-09) (1.152931e-05 -2.967649e-08 1.839266e-08))
17.064788     	((1.325877e-05 1.450524e-03 -2.450725e-03) (5.829672e-07 3.136428e-04 -1.713509e-04)) ((-2.987166e-08 -1.881959e-09 -4.407354e-09) (1.150749e-05 -3.165789e-08 1.878954e-08))
17.505061     	((1.413526e-05 1.445159e-03 -2.424311e-03) (6.249175e-07 3.127512e-04 -1.710642e-04)) ((-2.986838e-08 -1.818799e-09 -4.393028e-09) (1.148685e-05 -3.364970e-08 1.946147e-08))
17.945121     	((1.513080e-05 1.440276e-03 -2.397765e-03) (6.676918e-07 3.118869e-04 -1.707815e-04)) ((-2.986228e-08 -1.757856e-09 -4.381057e-09) (1.146647e-05 -3.568431e-08 2.027481e-08))
18.384978     	((1.601672e-05 1.435381e-03 -2.370833e-03) (7.147860e-07 3.110368e-04 -1.705022e-04)) ((-2.985829e-08 -1.701681e-09 -4.372812e-09) (1.144564e-05 -3.795108e-08 2.072946e-08))
18.824646     	((1.732440e-05 1.430582e-03 -2.345683e-03) (7.736183e-07 3.102003e-04 -1.702270e-04)) ((-2.983437e-08 -1.635633e-09 -4.368750e-09) (1.142430e-05 -4.079606e-08 2.089375e-08))
19.264144     	((1.879955e-05 1.425120e-03 -2.320925e-03) (8.475662e-07 3.093643e-04 -1.699774e-04)) ((-2.977662e-08 -1.548821e-09 -4.365978e-09) (1.140177e-05 -4.442685e-08 2.096978e-08))
19.70353      	((2.058747e-05 1.419284e-03 -2.296827e-03) (9.358608e-07 3.085190e-04 -1.697551e-04)) ((-2.971566e-08 -1.458190e-09 -4.360197e-09) (1.137801e-05 -4.866915e-08 2.099872e-08))
20.142824     	((2.247828e-05 1.413499e-03 -2.272879e-03) (1.034136e-06 3.076710e-04 -1.695426e-04)) ((-2.967378e-08 -1.375947e-09 -4.351267e-09) (1.135393e-05 -5.310072e-08 2.116332e-08))
20.582016     	((2.438826e-05 1.408720e-03 -2.250595e-03) (1.137480e-06 3.068424e-04 -1.693259e-04)) ((-2.965687e-08 -1.299345e-09 -4.342525e-09) (1.133077e-05 -5.751072e-08 2.162867e-08))
21.021103     	((2.621561e-05 1.404258e-03 -2.229447e-03) (1.241829e-06 3.060493e-04 -1.690966e-04)) ((-2.965552e-08 -1.228194e-09 -4.332303e-09) (1.130930e-05 -6.185929e-08 2.243673e-08))
21.460101     	((2.820143e-05 1.400405e-03 -2.209590e-03) (1.347271e-06 3.053009e-04 -1.688458e-04)) ((-2.967732e-08 -1.161107e-09 -4.321005e-09) (1.128998e-05 -6.624312e-08 2.351458e-08))
21.899016     	((3.033030e-05 1.396379e-03 -2.189633e-03) (1.456160e-06 3.045936e-04 -1.685766e-04)) ((-2.970081e-08 -1.097523e-09 -4.310727e-09) (1.127255e-05 -7.077838e-08 2.478608e-08))
22.337852     	((3.292162e-05 1.392150e-03 -2.169804e-03) (1.576045e-06 3.039127e-04 -1.683128e-04)) ((-2.969816e-08 -1.030115e-09 -4.301451e-09) (1.125571e-05 -7.574738e-08 2.625174e-08))
22.776613     	((3.571957e-05 1.388401e-03 -2.150535e-03) (1.711293e-06 3.032529e-04 -1.680797e-04)) ((-2.968244e-08 -9.638143e-10 -4.293741e-09) (1.123833e-05 -8.133360e-08 2.777496e-08))
23.215297     	((3.884423e-05 1.384645e-03 -2.131454e-03) (1.862930e-06 3.026038e-04 -1.678889e-04)) ((-2.966156e-08 -8.920235e-10 -4.285498e-09) (1.121969e-05 -8.763218e-08 2.935156e-08))
23.653908     	((4.228802e-05 1.380980e-03 -2.112802e-03) (2.031125e-06 3.019592e-04 -1.677250e-04)) ((-2.966359e-08 -8.193571e-10 -4.275209e-09) (1.120020e-05 -9.465290e-08 3.109179e-08))
24.092461     	((4.609401e-05 1.377045e-03 -2.093953e-03) (2.215375e-06 3.013178e-04 -1.675586e-04)) ((-2.968746e-08 -7.347948e-10 -4.262483e-09) (1.118097e-05 -1.023731e-07 3.306443e-08))
24.530969     	((5.048180e-05 1.372805e-03 -2.074506e-03) (2.418047e-06 3.006804e-04 -1.673670e-04)) ((-2.972398e-08 -6.379113e-10 -4.249649e-09) (1.116262e-05 -1.109416e-07 3.534067e-08))
24.9694       	((5.493234e-05 1.368923e-03 -2.055472e-03) (2.637812e-06 3.000575e-04 -1.671482e-04)) ((-2.975739e-08 -5.377070e-10 -4.239353e-09) (1.114530e-05 -1.203371e-07 3.797797e-08))
25.407664     	((5.978624e-05 1.365820e-03 -2.037287e-03) (2.874668e-06 2.994646e-04 -1.669043e-04)) ((-2.979234e-08 -4.355380e-10 -4.230593e-09) (1.112917e-05 -1.305360e-07 4.095956e-08))
25.845767     	((6.495142e-05 1.363092e-03 -2.019583e-03) (3.127469e-06 2.989046e-04 -1.666413e-04)) ((-2.981688e-08 -3.313145e-10 -4.221271e-09) (1.111410e-05 -1.415302e-07 4.441849e-08))
26.283732     	((7.059032e-05 1.360814e-03 -2.002405e-03) (3.397508e-06 2.983765e-04 -1.663638e-04)) ((-2.984038e-08 -2.261308e-10 -4.212349e-09) (1.110004e-05 -1.533859e-07 4.835825e-08))
26.721563     	((7.663099e-05 1.358768e-03 -1.986115e-03) (3.688909e-06 2.978803e-04 -1.660776e-04)) ((-2.985800e-08 -1.185694e-10 -4.202686e-09) (1.108693e-05 -1.662047e-07 5.261162e-08))
27.159267     	((8.301715e-05 1.356522e-03 -1.970038e-03) (4.004204e-06 2.974089e-04 -1.657926e-04)) ((-2.986721e-08 -6.176473e-12 -4.192401e-09) (1.107434e-05 -1.800070e-07 5.704455e-08))
27.596854     	((8.987197e-05 1.354013e-03 -1.954279e-03) (4.347163e-06 2.969528e-04 -1.655130e-04)) ((-2.986742e-08 1.130364e-10 -4.180348e-09) (1.106194e-05 -1.948218e-07 6.149655e-08))
28.034337     	((9.716816e-05 1.351304e-03 -1.938884e-03) (4.718468e-06 2.965014e-04 -1.652459e-04)) ((-2.985363e-08 2.390002e-10 -4.166474e-09) (1.104927e-05 -2.106460e-07 6.601106e-08))
28.47175      	((1.051115e-04 1.348579e-03 -1.923999e-03) (5.119252e-06 2.960499e-04 -1.649999e-04)) ((-2.982540e-08 3.753012e-10 -4.152760e-09) (1.103602e-05 -2.275944e-07 7.072748e-08))
28.909104     	((1.135150e-04 1.346059e-03 -1.909490e-03) (5.550593e-06 2.955987e-04 -1.647776e-04)) ((-2.978916e-08 5.204454e-10 -4.139451e-09) (1.102222e-05 -2.457708e-07 7.565977e-08))
29.346401     	((1.227055e-04 1.343718e-03 -1.895302e-03) (6.014961e-06 2.951493e-04 -1.645778e-04)) ((-2.974637e-08 6.781401e-10 -4.126389e-09) (1.100799e-05 -2.653143e-07 8.085697e-08))
29.783644     	((1.326088e-04 1.341569e-03 -1.881452e-03) (6.517727e-06 2.947025e-04 -1.643936e-04)) ((-2.970276e-08 8.457254e-10 -4.113331e-09) (1.099357e-05 -2.863230e-07 8.634118e-08))
30.220836     	((1.432636e-04 1.340053e-03 -1.868298e-03) (7.062170e-06 2.942684e-04 -1.642179e-04)) ((-2.966608e-08 1.022090e-09 -4.099094e-09) (1.097948e-05 -3.089007e-07 9.206035e-08))
30.657979     	((1.548560e-04 1.338794e-03 -1.855555e-03) (7.650989e-06 2.938544e-04 -1.640494e-04)) ((-2.963096e-08 1.210055e-09 -4.081683e-09) (1.096603e-05 -3.332690e-07 9.795334e-08))
31.095073     	((1.673765e-04 1.338004e-03 -1.843343e-03) (8.290564e-06 2.934630e-04 -1.638852e-04)) ((-2.960372e-08 1.410746e-09 -4.063294e-09) (1.095338e-05 -3.596318e-07 1.039676e-07))
31.532118     	((1.809714e-04 1.337502e-03 -1.831769e-03) (8.986278e-06 2.930961e-04 -1.637265e-04)) ((-2.958078e-08 1.627912e-09 -4.042946e-09) (1.094159e-05 -3.882287e-07 1.102468e-07))
31.969115     	((1.958907e-04 1.337225e-03 -1.820290e-03) (9.744960e-06 2.927405e-04 -1.635726e-04)) ((-2.956158e-08 1.869383e-09 -4.021594e-09) (1.093046e-05 -4.193909e-07 1.171013e-07))
32.406064     	((2.121951e-04 1.337025e-03 -1.809151e-03) (1.057279e-05 2.923999e-04 -1.634263e-04)) ((-2.954016e-08 2.134090e-09 -4.000246e-09) (1.092001e-05 -4.534883e-07 1.245584e-07))
32.842965     	((2.298911e-04 1.337053e-03 -1.798388e-03) (1.147266e-05 2.920795e-04 -1.632876e-04)) ((-2.951687e-08 2.416826e-09 -3.977465e-09) (1.091031e-05 -4.906984e-07 1.326375e-07))
33.279817     	((2.492690e-04 1.337322e-03 -1.787924e-03) (1.244888e-05 2.917781e-04 -1.631541e-04)) ((-2.949087e-08 2.725071e-09 -3.953618e-09) (1.090141e-05 -5.313240e-07 1.415714e-07))
33.716619     	((2.702830e-04 1.338145e-03 -1.777876e-03) (1.351141e-05 2.915011e-04 -1.630214e-04)) ((-2.946185e-08 3.061145e-09 -3.931145e-09) (1.089352e-05 -5.757214e-07 1.514449e-07))
34.153367     	((2.932498e-04 1.339322e-03 -1.768158e-03) (1.466891e-05 2.912491e-04 -1.628897e-04)) ((-2.942005e-08 3.432546e-09 -3.908299e-09) (1.088660e-05 -6.241748e-07 1.623227e-07))
34.590056     	((3.181671e-04 1.341119e-03 -1.758821e-03) (1.593105e-05 2.910298e-04 -1.627597e-04)) ((-2.937870e-08 3.832807e-09 -3.885773e-09) (1.088088e-05 -6.770985e-07 1.740682e-07))
35.026683     	((3.451306e-04 1.343557e-03 -1.750035e-03) (1.731835e-05 2.908659e-04 -1.626310e-04)) ((-2.933951e-08 4.258415e-09 -3.860536e-09) (1.087700e-05 -7.351418e-07 1.856880e-07))
35.463242     	((3.742849e-04 1.346503e-03 -1.741719e-03) (1.884133e-05 2.907701e-04 -1.625016e-04)) ((-2.930070e-08 4.713895e-09 -3.829967e-09) (1.087542e-05 -7.986725e-07 1.970172e-07))
35.899732     	((4.059744e-04 1.349835e-03 -1.733834e-03) (2.050466e-05 2.907262e-04 -1.623704e-04)) ((-2.926338e-08 5.206922e-09 -3.795266e-09) (1.087592e-05 -8.679395e-07 2.086571e-07))
36.336148     	((4.399970e-04 1.354039e-03 -1.726701e-03) (2.231187e-05 2.907258e-04 -1.622377e-04)) ((-2.923555e-08 5.728506e-09 -3.756628e-09) (1.087846e-05 -9.430834e-07 2.212087e-07))
36.772486     	((4.761822e-04 1.359637e-03 -1.720779e-03) (2.426463e-05 2.907831e-04 -1.621023e-04)) ((-2.922217e-08 6.279436e-09 -3.712832e-09) (1.088368e-05 -1.024178e-06 2.348344e-07))
37.208617     	((5.159224e-04 1.366503e-03 -1.715354e-03) (2.638119e-05 2.909160e-04 -1.619599e-04)) ((-2.921236e-08 6.888480e-09 -3.663848e-09) (1.089233e-05 -1.112120e-06 2.496294e-07))
37.644447     	((5.595200e-04 1.374420e-03 -1.709872e-03) (2.868534e-05 2.911323e-04 -1.618165e-04)) ((-2.920624e-08 7.551934e-09 -3.611087e-09) (1.090442e-05 -1.208127e-06 2.656089e-07))
38.07995      	((6.060960e-04 1.384253e-03 -1.706270e-03) (3.118533e-05 2.914424e-04 -1.616793e-04)) ((-2.920898e-08 8.257776e-09 -3.553794e-09) (1.092005e-05 -1.312604e-06 2.828644e-07))
38.515156     	((6.558282e-04 1.395976e-03 -1.703587e-03) (3.388536e-05 2.918537e-04 -1.615552e-04)) ((-2.920292e-08 9.019776e-09 -3.491305e-09) (1.093943e-05 -1.425677e-06 3.012943e-07))
38.950093     	((7.087902e-04 1.410310e-03 -1.703254e-03) (3.680229e-05 2.923842e-04 -1.614449e-04)) ((-2.921553e-08 9.837714e-09 -3.415965e-09) (1.096344e-05 -1.547754e-06 3.207623e-07))
39.384739     	((7.643650e-04 1.427448e-03 -1.705845e-03) (3.992611e-05 2.930615e-04 -1.613413e-04)) ((-2.926270e-08 1.068786e-08 -3.320540e-09) (1.099315e-05 -1.678405e-06 3.419105e-07))
39.819075     	((8.236481e-04 1.446932e-03 -1.709868e-03) (4.326807e-05 2.938872e-04 -1.612309e-04)) ((-2.933253e-08 1.156786e-08 -3.217990e-09) (1.102916e-05 -1.817399e-06 3.643075e-07))
40.253112     	((8.860694e-04 1.468947e-03 -1.716031e-03) (4.684122e-05 2.948556e-04 -1.611308e-04)) ((-2.942166e-08 1.249029e-08 -3.110679e-09) (1.107089e-05 -1.965599e-06 3.876282e-07))
40.686854     	((9.523013e-04 1.494912e-03 -1.725029e-03) (5.066055e-05 2.959940e-04 -1.610414e-04)) ((-2.956983e-08 1.344026e-08 -3.007610e-09) (1.111955e-05 -2.123965e-06 4.119253e-07))
41.120313     	((1.021630e-03 1.525287e-03 -1.735953e-03) (5.472015e-05 2.973385e-04 -1.609390e-04)) ((-2.979181e-08 1.440567e-08 -2.910443e-09) (1.117697e-05 -2.291812e-06 4.372358e-07))
41.553366     	((1.093000e-03 1.559829e-03 -1.749159e-03) (5.900430e-05 2.989067e-04 -1.608160e-04)) ((-3.009063e-08 1.538051e-08 -2.821182e-09) (1.124405e-05 -2.467882e-06 4.629710e-07))
41.986005     	((1.166240e-03 1.598822e-03 -1.765488e-03) (6.350638e-05 3.007284e-04 -1.606676e-04)) ((-3.045311e-08 1.636103e-08 -2.731819e-09) (1.132215e-05 -2.651324e-06 4.894794e-07))
42.418286     	((1.240626e-03 1.642083e-03 -1.784208e-03) (6.822646e-05 3.028348e-04 -1.604879e-04)) ((-3.088453e-08 1.732705e-08 -2.640574e-09) (1.141240e-05 -2.841229e-06 5.160817e-07))
42.850252     	((1.315010e-03 1.690480e-03 -1.809567e-03) (7.312600e-05 3.052689e-04 -1.602720e-04)) ((-3.139253e-08 1.825042e-08 -2.555323e-09) (1.151588e-05 -3.036700e-06 5.423996e-07))
43.281906     	((1.390006e-03 1.743717e-03 -1.837304e-03) (7.817169e-05 3.080896e-04 -1.600234e-04)) ((-3.199127e-08 1.917181e-08 -2.490286e-09) (1.163298e-05 -3.237126e-06 5.678203e-07))
43.713228     	((1.463686e-03 1.801686e-03 -1.868384e-03) (8.333650e-05 3.113103e-04 -1.597243e-04)) ((-3.266033e-08 2.006729e-08 -2.447445e-09) (1.176412e-05 -3.441459e-06 5.913650e-07))
44.144192     	((1.533363e-03 1.864307e-03 -1.902660e-03) (8.854955e-05 3.149123e-04 -1.593421e-04)) ((-3.341870e-08 2.084600e-08 -2.438327e-09) (1.190979e-05 -3.646892e-06 6.140773e-07))
44.574789     	((1.596597e-03 1.929884e-03 -1.940610e-03) (9.372181e-05 3.188898e-04 -1.588552e-04)) ((-3.424710e-08 2.146100e-08 -2.481730e-09) (1.206984e-05 -3.849566e-06 6.352107e-07))
45.005071     	((1.651159e-03 1.997247e-03 -1.980747e-03) (9.877734e-05 3.232206e-04 -1.582604e-04)) ((-3.513361e-08 2.189348e-08 -2.556932e-09) (1.224339e-05 -4.045570e-06 6.521603e-07))
