# Forces      
# CofR        : (0.000000e+00 0.000000e+00 0.000000e+00)
# Time        forces(pressure viscous)	moments(pressure viscous)
0             	((0.000000e+00 0.000000e+00 0.000000e+00) (8.850020e-09 2.245180e-11 9.549556e-04)) ((0.000000e+00 0.000000e+00 0.000000e+00) (-5.906925e-12 5.501360e-10 -1.315542e-14))
0.012         	((1.240804e-05 1.853486e-06 8.200733e-02) (-1.260223e-09 8.154750e-09 8.029086e-04)) ((1.054717e-10 8.079500e-08 -7.109480e-12) (2.601064e-10 -1.405515e-09 -7.843970e-12))
0.0264        	((2.271235e-06 -1.803214e-08 -9.475990e-03) (7.703834e-09 2.190422e-08 6.140843e-04)) ((1.326671e-10 -1.370658e-08 -3.348181e-11) (1.327005e-09 -2.139711e-09 -6.267849e-11))
0.04368       	((1.210681e-06 4.056823e-06 -1.793567e-02) (1.434019e-08 4.096680e-08 4.301066e-04)) ((1.085516e-10 -3.182109e-08 3.744602e-11) (2.118187e-09 -2.440819e-09 -1.984389e-10))
0.064416      	((-1.668778e-06 -2.274743e-06 -5.805212e-04) (8.589620e-09 2.661258e-08 3.225055e-04)) ((-2.121164e-10 -1.110415e-09 2.585083e-11) (8.886611e-10 -1.299953e-09 -9.982548e-11))
0.0892992     	((-1.413490e-06 -6.394867e-07 3.361989e-04) (9.657920e-09 2.623951e-09 2.725378e-04)) ((-7.975087e-11 2.282695e-11 3.165308e-12) (1.619266e-10 -5.851630e-10 1.978955e-11))
0.119159      	((5.002547e-07 -7.185276e-07 -1.267006e-04) (1.416234e-08 2.885835e-09 2.339461e-04)) ((-2.589578e-11 -1.101593e-09 -1.165361e-11) (4.948451e-10 -7.098121e-10 -5.221957e-11))
0.154991      	((-2.393570e-07 -3.943457e-07 -8.851497e-05) (1.550256e-08 1.002374e-08 2.011581e-04)) ((-2.892394e-11 -9.902286e-10 -5.380589e-12) (8.372466e-10 -7.668116e-10 -9.597669e-11))
0.197989      	((1.218211e-06 -2.957391e-07 -3.491129e-05) (1.558212e-08 1.712271e-08 1.752118e-04)) ((-4.486781e-11 -1.080813e-09 -3.451154e-12) (1.255365e-09 -1.341002e-09 -8.020212e-11))
0.249587      	((2.989068e-07 -2.516061e-07 -1.331997e-05) (1.726332e-08 2.144123e-08 1.541452e-04)) ((-3.879865e-11 -9.262479e-10 -4.477634e-12) (1.486688e-09 -1.823655e-09 -5.656638e-11))
0.311504      	((8.522297e-07 -1.856218e-07 -1.438266e-05) (2.827118e-08 2.429140e-08 1.365871e-04)) ((-4.309731e-11 -9.493068e-10 -1.406346e-12) (1.685897e-09 -2.886953e-09 -8.200898e-11))
0.385805      	((5.504206e-07 -1.311857e-07 -8.657052e-06) (3.996595e-08 2.579040e-08 1.216978e-04)) ((-3.196042e-11 -8.418602e-10 4.197530e-13) (1.820453e-09 -3.807018e-09 -1.146353e-10))
0.474966      	((6.180870e-07 -1.075541e-07 -1.086967e-05) (4.355607e-08 2.609733e-08 1.089638e-04)) ((-2.572127e-11 -8.669108e-10 1.972125e-12) (1.815659e-09 -3.831975e-09 -9.611656e-11))
0.581959      	((5.361819e-07 -6.035428e-08 -9.300221e-06) (4.228403e-08 2.654181e-08 9.812572e-05)) ((-2.066366e-11 -8.197958e-10 1.965255e-12) (1.795385e-09 -3.644874e-09 -4.794874e-11))
0.710351      	((5.708143e-07 -4.947592e-08 -1.204545e-05) (4.291773e-08 2.818239e-08 8.905372e-05)) ((-1.499554e-11 -8.149037e-10 1.599797e-12) (1.910039e-09 -3.632933e-09 -2.841595e-11))
0.864421      	((4.978844e-07 -2.998504e-08 -1.230490e-05) (4.754535e-08 3.081380e-08 8.159681e-05)) ((-9.967587e-12 -7.909850e-10 3.498383e-13) (2.080226e-09 -3.844095e-09 -4.278285e-11))
1.049306      	((4.500252e-07 -1.728411e-08 -1.340660e-05) (5.113396e-08 3.253019e-08 7.550433e-05)) ((-8.521960e-12 -7.819024e-10 4.572366e-13) (2.207055e-09 -3.940812e-09 -4.829527e-11))
1.271167      	((4.315543e-07 -6.107742e-09 -1.441777e-05) (5.290275e-08 3.263087e-08 7.053626e-05)) ((-8.314995e-12 -7.683662e-10 1.478807e-12) (2.228252e-09 -3.973178e-09 -4.269029e-11))
1.5374        	((4.079923e-07 -1.417148e-08 -1.612722e-05) (5.143678e-08 3.192819e-08 6.645204e-05)) ((-8.968678e-12 -7.538789e-10 2.472819e-12) (2.113161e-09 -3.832806e-09 -5.670463e-11))
1.85688       	((3.800325e-07 -2.275551e-08 -1.716843e-05) (4.689114e-08 3.034919e-08 6.306444e-05)) ((-9.534554e-12 -7.354824e-10 2.605156e-12) (1.944657e-09 -3.519182e-09 -7.838295e-11))
2.240256      	((3.513135e-07 -2.601968e-08 -1.806819e-05) (4.367674e-08 2.858411e-08 6.022255e-05)) ((-7.941782e-12 -7.272600e-10 2.764898e-12) (1.813758e-09 -3.323470e-09 -9.192629e-11))
2.700307      	((3.140576e-07 -2.460952e-08 -1.846875e-05) (4.186485e-08 2.755910e-08 5.783457e-05)) ((-3.889159e-12 -7.281928e-10 3.148742e-12) (1.775538e-09 -3.167676e-09 -1.129713e-10))
3.252369      	((2.923265e-07 -1.840793e-08 -1.878140e-05) (4.229499e-08 2.765660e-08 5.584058e-05)) ((4.880874e-13 -7.363082e-10 2.616588e-12) (1.800523e-09 -3.176772e-09 -1.312931e-10))
3.914842      	((3.064078e-07 -1.966833e-08 -1.888904e-05) (4.419711e-08 2.924713e-08 5.420834e-05)) ((1.934421e-12 -7.446078e-10 2.069390e-12) (1.934482e-09 -3.403691e-09 -1.554302e-10))
4.709811      	((3.053353e-07 -1.660905e-08 -1.891083e-05) (4.544518e-08 3.170643e-08 5.290724e-05)) ((1.232451e-12 -7.535011e-10 2.119381e-12) (2.163937e-09 -3.652019e-09 -1.597460e-10))
5.647621      	((3.064678e-07 -2.395421e-08 -1.879841e-05) (4.691055e-08 3.319974e-08 5.190908e-05)) ((9.722947e-13 -7.596987e-10 1.929799e-12) (2.365445e-09 -3.829203e-09 -1.374909e-10))
6.729172      	((3.065556e-07 -2.671196e-08 -1.862907e-05) (4.796310e-08 3.376402e-08 5.117394e-05)) ((1.062347e-12 -7.630928e-10 1.424732e-12) (2.513745e-09 -3.963894e-09 -1.201971e-10))
7.955221      	((3.076746e-07 -3.018321e-08 -1.838151e-05) (4.834005e-08 3.388854e-08 5.066264e-05)) ((3.881407e-13 -7.675042e-10 1.099810e-12) (2.644434e-09 -4.027367e-09 -1.163971e-10))
9.326216      	((3.011631e-07 -3.109347e-08 -1.816516e-05) (4.812630e-08 3.355108e-08 5.034232e-05)) ((1.702156e-13 -7.728802e-10 9.295168e-13) (2.744207e-09 -4.038268e-09 -1.083075e-10))
10.778014     	((2.919751e-07 -3.914854e-08 -1.797054e-05) (4.768240e-08 3.297475e-08 5.018754e-05)) ((2.593172e-13 -7.785496e-10 9.433167e-13) (2.817923e-09 -4.048133e-09 -1.028972e-10))
12.230455     	((2.781804e-07 -5.430655e-08 -1.785613e-05) (4.730728e-08 3.223146e-08 5.016887e-05)) ((4.389697e-13 -7.853618e-10 7.940690e-13) (2.866486e-09 -4.069279e-09 -9.131918e-11))
13.682159     	((2.690079e-07 -6.525463e-08 -1.778573e-05) (4.717120e-08 3.145644e-08 5.026077e-05)) ((7.919273e-13 -7.922148e-10 6.744252e-13) (2.897670e-09 -4.113803e-09 -7.893957e-11))
15.131451     	((2.640117e-07 -7.123279e-08 -1.778695e-05) (4.736221e-08 3.095646e-08 5.043972e-05)) ((1.249534e-12 -7.999327e-10 5.532125e-13) (2.929958e-09 -4.181584e-09 -7.356114e-11))
16.576476     	((2.626929e-07 -7.559005e-08 -1.777921e-05) (4.796916e-08 3.081245e-08 5.067595e-05)) ((1.749839e-12 -8.075227e-10 4.124517e-13) (2.966589e-09 -4.264896e-09 -7.330804e-11))
18.015315     	((2.640856e-07 -7.520191e-08 -1.773716e-05) (4.895613e-08 3.109079e-08 5.093447e-05)) ((2.274080e-12 -8.140887e-10 3.637824e-13) (3.013113e-09 -4.353865e-09 -7.744531e-11))
19.446226     	((2.676949e-07 -7.231974e-08 -1.760388e-05) (5.004964e-08 3.174966e-08 5.117854e-05)) ((2.625341e-12 -8.179531e-10 3.542717e-13) (3.071608e-09 -4.437568e-09 -8.219608e-11))
20.868323     	((2.725357e-07 -6.787411e-08 -1.738242e-05) (5.109854e-08 3.270006e-08 5.137732e-05)) ((2.814390e-12 -8.183106e-10 3.842688e-13) (3.140661e-09 -4.517562e-09 -8.509690e-11))
22.282125     	((2.775211e-07 -5.953044e-08 -1.711141e-05) (5.200742e-08 3.374952e-08 5.151352e-05)) ((2.671509e-12 -8.155047e-10 4.609449e-13) (3.207726e-09 -4.594851e-09 -8.786243e-11))
23.689779     	((2.798225e-07 -5.352750e-08 -1.689358e-05) (5.266238e-08 3.469279e-08 5.158775e-05)) ((2.554263e-12 -8.111764e-10 6.147617e-13) (3.263763e-09 -4.659023e-09 -9.387475e-11))
25.094506     	((2.809245e-07 -5.115811e-08 -1.680897e-05) (5.298907e-08 3.536020e-08 5.161535e-05)) ((2.692728e-12 -8.074682e-10 7.416201e-13) (3.303074e-09 -4.700863e-09 -1.033829e-10))
26.499352     	((2.813098e-07 -5.057455e-08 -1.687615e-05) (5.309570e-08 3.572691e-08 5.161776e-05)) ((2.812432e-12 -8.057351e-10 8.150408e-13) (3.323797e-09 -4.716572e-09 -1.117866e-10))
27.906078     	((2.846257e-07 -5.049752e-08 -1.702390e-05) (5.307934e-08 3.587796e-08 5.161266e-05)) ((2.663970e-12 -8.055171e-10 8.416213e-13) (3.330050e-09 -4.712603e-09 -1.161131e-10))
29.314846     	((2.863988e-07 -4.880414e-08 -1.715776e-05) (5.303320e-08 3.596912e-08 5.160870e-05)) ((2.460010e-12 -8.061670e-10 8.401025e-13) (3.333803e-09 -4.702445e-09 -1.169832e-10))
30.724826     	((2.869881e-07 -4.705180e-08 -1.721873e-05) (5.298435e-08 3.605345e-08 5.160711e-05)) ((2.288167e-12 -8.067501e-10 8.256775e-13) (3.339241e-09 -4.693690e-09 -1.164495e-10))
32.135126     	((2.861206e-07 -4.779288e-08 -1.721954e-05) (5.291600e-08 3.609672e-08 5.160643e-05)) ((2.250238e-12 -8.069229e-10 7.948649e-13) (3.344919e-09 -4.688109e-09 -1.156650e-10))
33.545319     	((2.849202e-07 -4.918994e-08 -1.720284e-05) (5.283858e-08 3.608565e-08 5.160606e-05)) ((2.271337e-12 -8.068941e-10 7.721418e-13) (3.347838e-09 -4.684442e-09 -1.148483e-10))
34.955394     	((2.845243e-07 -4.976931e-08 -1.719827e-05) (5.276996e-08 3.605773e-08 5.160650e-05)) ((2.310742e-12 -8.069082e-10 7.630197e-13) (3.348223e-09 -4.680517e-09 -1.142520e-10))
36.365448     	((2.844456e-07 -5.004222e-08 -1.720514e-05) (5.272239e-08 3.604126e-08 5.160815e-05)) ((2.348030e-12 -8.070388e-10 7.584794e-13) (3.347665e-09 -4.675766e-09 -1.138280e-10))
37.775486     	((2.844801e-07 -4.991425e-08 -1.720993e-05) (5.269043e-08 3.604083e-08 5.161061e-05)) ((2.357540e-12 -8.071575e-10 7.570655e-13) (3.347135e-09 -4.670693e-09 -1.135177e-10))
39.18545      	((2.847189e-07 -4.954631e-08 -1.720764e-05) (5.266796e-08 3.605671e-08 5.161311e-05)) ((2.352101e-12 -8.071784e-10 7.556635e-13) (3.347229e-09 -4.665971e-09 -1.133610e-10))
40.595309     	((2.850129e-07 -4.928535e-08 -1.720363e-05) (5.264941e-08 3.608110e-08 5.161526e-05)) ((2.347160e-12 -8.071388e-10 7.553592e-13) (3.347827e-09 -4.661394e-09 -1.133303e-10))
42.005083     	((2.853129e-07 -4.911784e-08 -1.720173e-05) (5.262975e-08 3.610679e-08 5.161700e-05)) ((2.344162e-12 -8.070986e-10 7.522847e-13) (3.348598e-09 -4.656312e-09 -1.133744e-10))
43.414801     	((2.854583e-07 -4.906624e-08 -1.720209e-05) (5.260764e-08 3.613284e-08 5.161839e-05)) ((2.338439e-12 -8.070908e-10 7.348614e-13) (3.349367e-09 -4.650950e-09 -1.132683e-10))
44.824481     	((2.856190e-07 -4.902851e-08 -1.720195e-05) (5.258735e-08 3.615637e-08 5.161941e-05)) ((2.333700e-12 -8.070724e-10 7.235165e-13) (3.350024e-09 -4.646137e-09 -1.130502e-10))
46.234131     	((2.858030e-07 -4.898896e-08 -1.720094e-05) (5.257104e-08 3.617409e-08 5.162006e-05)) ((2.328913e-12 -8.070353e-10 7.185586e-13) (3.350553e-09 -4.642113e-09 -1.128874e-10))
47.643764     	((2.859096e-07 -4.897652e-08 -1.720018e-05) (5.255659e-08 3.618571e-08 5.162040e-05)) ((2.325297e-12 -8.070006e-10 7.154591e-13) (3.350930e-09 -4.638698e-09 -1.127841e-10))
49.053391     	((2.860035e-07 -4.899361e-08 -1.720022e-05) (5.254240e-08 3.619255e-08 5.162055e-05)) ((2.323623e-12 -8.069737e-10 7.133923e-13) (3.351153e-09 -4.635730e-09 -1.127147e-10))
50.46302      	((2.860031e-07 -4.900377e-08 -1.720061e-05) (5.252746e-08 3.619588e-08 5.162058e-05)) ((2.321888e-12 -8.069575e-10 7.108564e-13) (3.351261e-09 -4.632998e-09 -1.126677e-10))
51.872653     	((2.859964e-07 -4.902031e-08 -1.720092e-05) (5.251206e-08 3.619700e-08 5.162055e-05)) ((2.321032e-12 -8.069458e-10 7.091400e-13) (3.351290e-09 -4.630509e-09 -1.126325e-10))
53.282292     	((2.859753e-07 -4.902652e-08 -1.720123e-05) (5.249714e-08 3.619711e-08 5.162050e-05)) ((2.320084e-12 -8.069386e-10 7.076640e-13) (3.351287e-09 -4.628290e-09 -1.125989e-10))
54.691935     	((2.859331e-07 -4.903155e-08 -1.720158e-05) (5.248316e-08 3.619691e-08 5.162045e-05)) ((2.319383e-12 -8.069355e-10 7.062300e-13) (3.351270e-09 -4.626296e-09 -1.125651e-10))
56.101581     	((2.859099e-07 -4.903029e-08 -1.720183e-05) (5.247090e-08 3.619691e-08 5.162041e-05)) ((2.318761e-12 -8.069334e-10 7.052434e-13) (3.351258e-09 -4.624594e-09 -1.125304e-10))
57.511229     	((2.858235e-07 -4.903576e-08 -1.720190e-05) (5.245921e-08 3.619713e-08 5.162039e-05)) ((2.318052e-12 -8.069324e-10 7.030835e-13) (3.351248e-09 -4.622973e-09 -1.124958e-10))
58.920876     	((2.858400e-07 -4.902893e-08 -1.720190e-05) (5.244898e-08 3.619754e-08 5.162038e-05)) ((2.317506e-12 -8.069292e-10 7.026113e-13) (3.351238e-09 -4.621603e-09 -1.124647e-10))
60.330523     	((2.858322e-07 -4.902342e-08 -1.720190e-05) (5.243984e-08 3.619809e-08 5.162037e-05)) ((2.317070e-12 -8.069263e-10 7.020673e-13) (3.351234e-09 -4.620439e-09 -1.124409e-10))
61.740169     	((2.858266e-07 -4.901466e-08 -1.720188e-05) (5.243179e-08 3.619859e-08 5.162037e-05)) ((2.316444e-12 -8.069238e-10 7.011840e-13) (3.351229e-09 -4.619405e-09 -1.124281e-10))
63.149814     	((2.858125e-07 -4.900822e-08 -1.720186e-05) (5.242464e-08 3.619844e-08 5.162037e-05)) ((2.315913e-12 -8.069218e-10 7.005969e-13) (3.351213e-09 -4.618514e-09 -1.124482e-10))
64.559459     	((2.857983e-07 -4.900423e-08 -1.720185e-05) (5.241813e-08 3.619770e-08 5.162037e-05)) ((2.315466e-12 -8.069200e-10 7.001682e-13) (3.351186e-09 -4.617746e-09 -1.124960e-10))
65.969103     	((2.857829e-07 -4.900184e-08 -1.720183e-05) (5.241235e-08 3.619670e-08 5.162037e-05)) ((2.315086e-12 -8.069185e-10 6.997397e-13) (3.351159e-09 -4.617093e-09 -1.125545e-10))
67.378748     	((2.857684e-07 -4.899962e-08 -1.720182e-05) (5.240723e-08 3.619561e-08 5.162037e-05)) ((2.314763e-12 -8.069172e-10 6.993448e-13) (3.351132e-09 -4.616543e-09 -1.126159e-10))
68.788391     	((2.857443e-07 -4.899788e-08 -1.720181e-05) (5.240255e-08 3.619454e-08 5.162037e-05)) ((2.314499e-12 -8.069162e-10 6.989520e-13) (3.351108e-09 -4.616057e-09 -1.126751e-10))
70.198035     	((2.857353e-07 -4.899504e-08 -1.720180e-05) (5.239839e-08 3.619361e-08 5.162037e-05)) ((2.314241e-12 -8.069153e-10 6.986551e-13) (3.351088e-09 -4.615649e-09 -1.127269e-10))
71.607679     	((2.857229e-07 -4.899272e-08 -1.720180e-05) (5.239469e-08 3.619284e-08 5.162036e-05)) ((2.314033e-12 -8.069145e-10 6.983741e-13) (3.351071e-09 -4.615305e-09 -1.127705e-10))
73.017322     	((2.857106e-07 -4.899038e-08 -1.720180e-05) (5.239143e-08 3.619221e-08 5.162036e-05)) ((2.313860e-12 -8.069140e-10 6.981308e-13) (3.351056e-09 -4.615008e-09 -1.128069e-10))
74.426966     	((2.857012e-07 -4.898846e-08 -1.720180e-05) (5.238864e-08 3.619169e-08 5.162036e-05)) ((2.313681e-12 -8.069135e-10 6.979380e-13) (3.351043e-09 -4.614761e-09 -1.128372e-10))
75.836609     	((2.856917e-07 -4.898634e-08 -1.720180e-05) (5.238619e-08 3.619126e-08 5.162036e-05)) ((2.313543e-12 -8.069132e-10 6.977519e-13) (3.351031e-09 -4.614546e-09 -1.128624e-10))
77.246253     	((2.856859e-07 -4.898487e-08 -1.720181e-05) (5.238413e-08 3.619093e-08 5.162035e-05)) ((2.313405e-12 -8.069129e-10 6.975977e-13) (3.351020e-09 -4.614370e-09 -1.128827e-10))
78.655896     	((2.856799e-07 -4.898349e-08 -1.720181e-05) (5.238236e-08 3.619065e-08 5.162035e-05)) ((2.313291e-12 -8.069127e-10 6.974757e-13) (3.351009e-09 -4.614220e-09 -1.128997e-10))
80.065539     	((2.856747e-07 -4.898206e-08 -1.720181e-05) (5.238086e-08 3.619042e-08 5.162035e-05)) ((2.313196e-12 -8.069125e-10 6.973736e-13) (3.350999e-09 -4.614095e-09 -1.129134e-10))
81.475183     	((2.856704e-07 -4.898090e-08 -1.720181e-05) (5.237961e-08 3.619024e-08 5.162035e-05)) ((2.313096e-12 -8.069124e-10 6.972683e-13) (3.350990e-09 -4.613990e-09 -1.129245e-10))
82.884826     	((2.856668e-07 -4.897999e-08 -1.720181e-05) (5.237854e-08 3.619008e-08 5.162035e-05)) ((2.313013e-12 -8.069123e-10 6.971847e-13) (3.350981e-09 -4.613902e-09 -1.129339e-10))
84.29447      	((2.856627e-07 -4.897922e-08 -1.720181e-05) (5.237763e-08 3.618993e-08 5.162034e-05)) ((2.312963e-12 -8.069122e-10 6.971226e-13) (3.350972e-09 -4.613828e-09 -1.129422e-10))
85.704113     	((2.856626e-07 -4.897856e-08 -1.720181e-05) (5.237689e-08 3.618984e-08 5.162034e-05)) ((2.312893e-12 -8.069121e-10 6.970658e-13) (3.350965e-09 -4.613767e-09 -1.129480e-10))
87.113757     	((2.856588e-07 -4.897796e-08 -1.720181e-05) (5.237620e-08 3.618974e-08 5.162034e-05)) ((2.312818e-12 -8.069120e-10 6.969893e-13) (3.350957e-09 -4.613713e-09 -1.129531e-10))
88.5234       	((2.856574e-07 -4.897731e-08 -1.720181e-05) (5.237565e-08 3.618965e-08 5.162034e-05)) ((2.312745e-12 -8.069120e-10 6.969256e-13) (3.350949e-09 -4.613669e-09 -1.129575e-10))
89.933044     	((2.856552e-07 -4.897687e-08 -1.720181e-05) (5.237519e-08 3.618957e-08 5.162034e-05)) ((2.312694e-12 -8.069119e-10 6.968816e-13) (3.350942e-09 -4.613632e-09 -1.129610e-10))
91.342687     	((2.856544e-07 -4.897653e-08 -1.720181e-05) (5.237480e-08 3.618950e-08 5.162034e-05)) ((2.312643e-12 -8.069119e-10 6.968374e-13) (3.350935e-09 -4.613602e-09 -1.129640e-10))
92.75233      	((2.856532e-07 -4.897623e-08 -1.720181e-05) (5.237448e-08 3.618943e-08 5.162034e-05)) ((2.312600e-12 -8.069119e-10 6.967990e-13) (3.350928e-09 -4.613577e-09 -1.129665e-10))
94.161974     	((2.856525e-07 -4.897597e-08 -1.720181e-05) (5.237421e-08 3.618938e-08 5.162034e-05)) ((2.312559e-12 -8.069119e-10 6.967642e-13) (3.350921e-09 -4.613556e-09 -1.129685e-10))
95.571617     	((2.856517e-07 -4.897576e-08 -1.720181e-05) (5.237399e-08 3.618932e-08 5.162034e-05)) ((2.312522e-12 -8.069118e-10 6.967331e-13) (3.350915e-09 -4.613538e-09 -1.129702e-10))
96.98126      	((2.856512e-07 -4.897556e-08 -1.720181e-05) (5.237381e-08 3.618927e-08 5.162034e-05)) ((2.312486e-12 -8.069118e-10 6.967048e-13) (3.350909e-09 -4.613524e-09 -1.129715e-10))
98.390904     	((2.856507e-07 -4.897541e-08 -1.720181e-05) (5.237365e-08 3.618922e-08 5.162034e-05)) ((2.312454e-12 -8.069118e-10 6.966792e-13) (3.350903e-09 -4.613512e-09 -1.129727e-10))
99.800547     	((2.856504e-07 -4.897527e-08 -1.720181e-05) (5.237353e-08 3.618918e-08 5.162034e-05)) ((2.312424e-12 -8.069118e-10 6.966559e-13) (3.350898e-09 -4.613502e-09 -1.129736e-10))
101.21019     	((2.856501e-07 -4.897516e-08 -1.720181e-05) (5.237343e-08 3.618914e-08 5.162034e-05)) ((2.312396e-12 -8.069118e-10 6.966347e-13) (3.350893e-09 -4.613494e-09 -1.129744e-10))
102.619834    	((2.856498e-07 -4.897506e-08 -1.720181e-05) (5.237334e-08 3.618910e-08 5.162034e-05)) ((2.312371e-12 -8.069118e-10 6.966153e-13) (3.350888e-09 -4.613487e-09 -1.129751e-10))
104.029477    	((2.856496e-07 -4.897497e-08 -1.720181e-05) (5.237327e-08 3.618906e-08 5.162034e-05)) ((2.312347e-12 -8.069118e-10 6.965977e-13) (3.350883e-09 -4.613482e-09 -1.129756e-10))
105.439121    	((2.856494e-07 -4.897490e-08 -1.720181e-05) (5.237321e-08 3.618903e-08 5.162034e-05)) ((2.312325e-12 -8.069118e-10 6.965815e-13) (3.350879e-09 -4.613477e-09 -1.129761e-10))
106.848764    	((2.856492e-07 -4.897484e-08 -1.720181e-05) (5.237316e-08 3.618900e-08 5.162034e-05)) ((2.312304e-12 -8.069118e-10 6.965668e-13) (3.350875e-09 -4.613473e-09 -1.129764e-10))
108.258408    	((2.856491e-07 -4.897478e-08 -1.720181e-05) (5.237312e-08 3.618897e-08 5.162034e-05)) ((2.312285e-12 -8.069118e-10 6.965532e-13) (3.350871e-09 -4.613470e-09 -1.129768e-10))
109.668051    	((2.856490e-07 -4.897474e-08 -1.720181e-05) (5.237309e-08 3.618894e-08 5.162034e-05)) ((2.312267e-12 -8.069118e-10 6.965408e-13) (3.350868e-09 -4.613468e-09 -1.129770e-10))
111.077694    	((2.856489e-07 -4.897470e-08 -1.720181e-05) (5.237306e-08 3.618891e-08 5.162034e-05)) ((2.312251e-12 -8.069118e-10 6.965294e-13) (3.350864e-09 -4.613466e-09 -1.129772e-10))
112.487338    	((2.856489e-07 -4.897467e-08 -1.720181e-05) (5.237304e-08 3.618889e-08 5.162034e-05)) ((2.312236e-12 -8.069118e-10 6.965189e-13) (3.350861e-09 -4.613464e-09 -1.129774e-10))
113.896981    	((2.856488e-07 -4.897464e-08 -1.720181e-05) (5.237302e-08 3.618886e-08 5.162034e-05)) ((2.312221e-12 -8.069118e-10 6.965093e-13) (3.350858e-09 -4.613462e-09 -1.129776e-10))
115.306624    	((2.856488e-07 -4.897462e-08 -1.720181e-05) (5.237301e-08 3.618884e-08 5.162034e-05)) ((2.312208e-12 -8.069118e-10 6.965005e-13) (3.350855e-09 -4.613461e-09 -1.129777e-10))
116.716268    	((2.856487e-07 -4.897459e-08 -1.720181e-05) (5.237299e-08 3.618882e-08 5.162034e-05)) ((2.312196e-12 -8.069118e-10 6.964923e-13) (3.350853e-09 -4.613460e-09 -1.129779e-10))
118.125911    	((2.856487e-07 -4.897458e-08 -1.720181e-05) (5.237299e-08 3.618880e-08 5.162034e-05)) ((2.312185e-12 -8.069118e-10 6.964848e-13) (3.350850e-09 -4.613460e-09 -1.129780e-10))
119.535555    	((2.856487e-07 -4.897456e-08 -1.720181e-05) (5.237298e-08 3.618879e-08 5.162034e-05)) ((2.312175e-12 -8.069118e-10 6.964779e-13) (3.350848e-09 -4.613459e-09 -1.129780e-10))
120.945198    	((2.856487e-07 -4.897455e-08 -1.720181e-05) (5.237297e-08 3.618877e-08 5.162034e-05)) ((2.312165e-12 -8.069118e-10 6.964715e-13) (3.350846e-09 -4.613459e-09 -1.129781e-10))
122.354841    	((2.856487e-07 -4.897454e-08 -1.720181e-05) (5.237297e-08 3.618876e-08 5.162034e-05)) ((2.312156e-12 -8.069118e-10 6.964656e-13) (3.350844e-09 -4.613458e-09 -1.129782e-10))
123.764485    	((2.856487e-07 -4.897453e-08 -1.720181e-05) (5.237296e-08 3.618874e-08 5.162034e-05)) ((2.312148e-12 -8.069118e-10 6.964602e-13) (3.350842e-09 -4.613458e-09 -1.129782e-10))
125.174128    	((2.856487e-07 -4.897452e-08 -1.720181e-05) (5.237296e-08 3.618873e-08 5.162034e-05)) ((2.312140e-12 -8.069118e-10 6.964551e-13) (3.350841e-09 -4.613458e-09 -1.129783e-10))
126.583771    	((2.856486e-07 -4.897451e-08 -1.720181e-05) (5.237296e-08 3.618872e-08 5.162034e-05)) ((2.312133e-12 -8.069118e-10 6.964505e-13) (3.350839e-09 -4.613458e-09 -1.129783e-10))
127.993415    	((2.856486e-07 -4.897450e-08 -1.720181e-05) (5.237296e-08 3.618871e-08 5.162034e-05)) ((2.312127e-12 -8.069118e-10 6.964462e-13) (3.350838e-09 -4.613458e-09 -1.129784e-10))
129.403058    	((2.856486e-07 -4.897450e-08 -1.720181e-05) (5.237296e-08 3.618869e-08 5.162034e-05)) ((2.312121e-12 -8.069118e-10 6.964423e-13) (3.350836e-09 -4.613457e-09 -1.129784e-10))
130.812701    	((2.856486e-07 -4.897449e-08 -1.720181e-05) (5.237296e-08 3.618869e-08 5.162034e-05)) ((2.312115e-12 -8.069118e-10 6.964386e-13) (3.350835e-09 -4.613457e-09 -1.129784e-10))
132.222345    	((2.856486e-07 -4.897449e-08 -1.720181e-05) (5.237296e-08 3.618868e-08 5.162034e-05)) ((2.312110e-12 -8.069118e-10 6.964352e-13) (3.350834e-09 -4.613457e-09 -1.129784e-10))
133.631988    	((2.856486e-07 -4.897449e-08 -1.720181e-05) (5.237296e-08 3.618867e-08 5.162034e-05)) ((2.312105e-12 -8.069118e-10 6.964321e-13) (3.350833e-09 -4.613457e-09 -1.129785e-10))
135.041632    	((2.856486e-07 -4.897448e-08 -1.720181e-05) (5.237296e-08 3.618866e-08 5.162034e-05)) ((2.312101e-12 -8.069118e-10 6.964292e-13) (3.350832e-09 -4.613457e-09 -1.129785e-10))
136.451275    	((2.856487e-07 -4.897448e-08 -1.720181e-05) (5.237296e-08 3.618865e-08 5.162034e-05)) ((2.312097e-12 -8.069118e-10 6.964266e-13) (3.350831e-09 -4.613457e-09 -1.129785e-10))
137.860918    	((2.856487e-07 -4.897448e-08 -1.720181e-05) (5.237296e-08 3.618865e-08 5.162034e-05)) ((2.312093e-12 -8.069118e-10 6.964241e-13) (3.350830e-09 -4.613457e-09 -1.129785e-10))
139.270562    	((2.856487e-07 -4.897447e-08 -1.720181e-05) (5.237296e-08 3.618864e-08 5.162034e-05)) ((2.312089e-12 -8.069118e-10 6.964218e-13) (3.350829e-09 -4.613457e-09 -1.129785e-10))
140.680205    	((2.856487e-07 -4.897447e-08 -1.720181e-05) (5.237296e-08 3.618863e-08 5.162034e-05)) ((2.312086e-12 -8.069118e-10 6.964197e-13) (3.350829e-09 -4.613457e-09 -1.129785e-10))
142.089848    	((2.856487e-07 -4.897447e-08 -1.720181e-05) (5.237296e-08 3.618863e-08 5.162034e-05)) ((2.312083e-12 -8.069118e-10 6.964178e-13) (3.350828e-09 -4.613457e-09 -1.129786e-10))
143.499492    	((2.856487e-07 -4.897447e-08 -1.720181e-05) (5.237296e-08 3.618862e-08 5.162034e-05)) ((2.312080e-12 -8.069119e-10 6.964160e-13) (3.350827e-09 -4.613457e-09 -1.129786e-10))
144.909135    	((2.856487e-07 -4.897447e-08 -1.720181e-05) (5.237296e-08 3.618862e-08 5.162034e-05)) ((2.312078e-12 -8.069119e-10 6.964143e-13) (3.350827e-09 -4.613457e-09 -1.129786e-10))
146.318779    	((2.856487e-07 -4.897447e-08 -1.720181e-05) (5.237296e-08 3.618862e-08 5.162034e-05)) ((2.312075e-12 -8.069119e-10 6.964128e-13) (3.350826e-09 -4.613457e-09 -1.129786e-10))
147.728422    	((2.856487e-07 -4.897446e-08 -1.720181e-05) (5.237296e-08 3.618861e-08 5.162034e-05)) ((2.312073e-12 -8.069119e-10 6.964113e-13) (3.350826e-09 -4.613457e-09 -1.129786e-10))
149.138065    	((2.856487e-07 -4.897446e-08 -1.720181e-05) (5.237296e-08 3.618861e-08 5.162034e-05)) ((2.312071e-12 -8.069119e-10 6.964100e-13) (3.350825e-09 -4.613457e-09 -1.129786e-10))
150.547709    	((2.856487e-07 -4.897446e-08 -1.720181e-05) (5.237296e-08 3.618860e-08 5.162034e-05)) ((2.312069e-12 -8.069119e-10 6.964088e-13) (3.350825e-09 -4.613457e-09 -1.129786e-10))
151.957352    	((2.856487e-07 -4.897446e-08 -1.720181e-05) (5.237296e-08 3.618860e-08 5.162034e-05)) ((2.312067e-12 -8.069119e-10 6.964077e-13) (3.350825e-09 -4.613458e-09 -1.129786e-10))
153.366995    	((2.856487e-07 -4.897446e-08 -1.720181e-05) (5.237296e-08 3.618860e-08 5.162034e-05)) ((2.312066e-12 -8.069119e-10 6.964066e-13) (3.350824e-09 -4.613458e-09 -1.129786e-10))
154.776639    	((2.856487e-07 -4.897446e-08 -1.720181e-05) (5.237296e-08 3.618860e-08 5.162034e-05)) ((2.312064e-12 -8.069119e-10 6.964057e-13) (3.350824e-09 -4.613458e-09 -1.129786e-10))
156.186282    	((2.856487e-07 -4.897446e-08 -1.720181e-05) (5.237296e-08 3.618859e-08 5.162034e-05)) ((2.312063e-12 -8.069119e-10 6.964048e-13) (3.350824e-09 -4.613458e-09 -1.129786e-10))
157.595926    	((2.856487e-07 -4.897446e-08 -1.720181e-05) (5.237296e-08 3.618859e-08 5.162034e-05)) ((2.312062e-12 -8.069119e-10 6.964040e-13) (3.350823e-09 -4.613458e-09 -1.129786e-10))
159.005569    	((2.856487e-07 -4.897446e-08 -1.720181e-05) (5.237296e-08 3.618859e-08 5.162034e-05)) ((2.312060e-12 -8.069119e-10 6.964032e-13) (3.350823e-09 -4.613458e-09 -1.129786e-10))
160.415212    	((2.856487e-07 -4.897446e-08 -1.720181e-05) (5.237296e-08 3.618859e-08 5.162034e-05)) ((2.312059e-12 -8.069119e-10 6.964025e-13) (3.350823e-09 -4.613458e-09 -1.129786e-10))
161.824856    	((2.856487e-07 -4.897446e-08 -1.720181e-05) (5.237296e-08 3.618859e-08 5.162034e-05)) ((2.312058e-12 -8.069119e-10 6.964019e-13) (3.350822e-09 -4.613458e-09 -1.129786e-10))
163.234499    	((2.856487e-07 -4.897446e-08 -1.720181e-05) (5.237296e-08 3.618858e-08 5.162034e-05)) ((2.312057e-12 -8.069119e-10 6.964012e-13) (3.350822e-09 -4.613458e-09 -1.129786e-10))
164.644142    	((2.856487e-07 -4.897446e-08 -1.720181e-05) (5.237296e-08 3.618858e-08 5.162034e-05)) ((2.312056e-12 -8.069119e-10 6.964007e-13) (3.350822e-09 -4.613458e-09 -1.129786e-10))
166.053786    	((2.856487e-07 -4.897446e-08 -1.720181e-05) (5.237296e-08 3.618858e-08 5.162034e-05)) ((2.312056e-12 -8.069119e-10 6.964002e-13) (3.350822e-09 -4.613458e-09 -1.129786e-10))
167.463429    	((2.856487e-07 -4.897446e-08 -1.720181e-05) (5.237296e-08 3.618858e-08 5.162034e-05)) ((2.312055e-12 -8.069119e-10 6.963997e-13) (3.350822e-09 -4.613458e-09 -1.129786e-10))
168.873072    	((2.856487e-07 -4.897446e-08 -1.720181e-05) (5.237296e-08 3.618858e-08 5.162034e-05)) ((2.312054e-12 -8.069119e-10 6.963993e-13) (3.350822e-09 -4.613458e-09 -1.129786e-10))
170.282716    	((2.856487e-07 -4.897445e-08 -1.720181e-05) (5.237296e-08 3.618858e-08 5.162034e-05)) ((2.312054e-12 -8.069119e-10 6.963988e-13) (3.350821e-09 -4.613458e-09 -1.129786e-10))
171.692359    	((2.856487e-07 -4.897445e-08 -1.720181e-05) (5.237296e-08 3.618858e-08 5.162034e-05)) ((2.312053e-12 -8.069119e-10 6.963985e-13) (3.350821e-09 -4.613458e-09 -1.129787e-10))
173.102003    	((2.856487e-07 -4.897445e-08 -1.720181e-05) (5.237296e-08 3.618857e-08 5.162034e-05)) ((2.312053e-12 -8.069119e-10 6.963981e-13) (3.350821e-09 -4.613458e-09 -1.129787e-10))
174.511646    	((2.856487e-07 -4.897445e-08 -1.720181e-05) (5.237296e-08 3.618857e-08 5.162034e-05)) ((2.312052e-12 -8.069119e-10 6.963978e-13) (3.350821e-09 -4.613458e-09 -1.129787e-10))
175.921289    	((2.856487e-07 -4.897445e-08 -1.720181e-05) (5.237296e-08 3.618857e-08 5.162034e-05)) ((2.312052e-12 -8.069119e-10 6.963975e-13) (3.350821e-09 -4.613458e-09 -1.129787e-10))
177.330933    	((2.856487e-07 -4.897445e-08 -1.720181e-05) (5.237296e-08 3.618857e-08 5.162034e-05)) ((2.312051e-12 -8.069119e-10 6.963972e-13) (3.350821e-09 -4.613458e-09 -1.129787e-10))
178.740576    	((2.856487e-07 -4.897445e-08 -1.720181e-05) (5.237296e-08 3.618857e-08 5.162034e-05)) ((2.312051e-12 -8.069119e-10 6.963970e-13) (3.350821e-09 -4.613458e-09 -1.129787e-10))
180.150219    	((2.856487e-07 -4.897445e-08 -1.720181e-05) (5.237296e-08 3.618857e-08 5.162034e-05)) ((2.312050e-12 -8.069119e-10 6.963967e-13) (3.350821e-09 -4.613458e-09 -1.129787e-10))
181.559863    	((2.856487e-07 -4.897445e-08 -1.720181e-05) (5.237296e-08 3.618857e-08 5.162034e-05)) ((2.312050e-12 -8.069119e-10 6.963965e-13) (3.350821e-09 -4.613458e-09 -1.129787e-10))
182.969506    	((2.856487e-07 -4.897445e-08 -1.720181e-05) (5.237296e-08 3.618857e-08 5.162034e-05)) ((2.312050e-12 -8.069119e-10 6.963963e-13) (3.350821e-09 -4.613458e-09 -1.129787e-10))
184.37915     	((2.856487e-07 -4.897445e-08 -1.720181e-05) (5.237296e-08 3.618857e-08 5.162034e-05)) ((2.312049e-12 -8.069119e-10 6.963961e-13) (3.350820e-09 -4.613458e-09 -1.129787e-10))
185.788793    	((2.856487e-07 -4.897445e-08 -1.720181e-05) (5.237296e-08 3.618857e-08 5.162034e-05)) ((2.312049e-12 -8.069119e-10 6.963959e-13) (3.350820e-09 -4.613458e-09 -1.129787e-10))
187.198436    	((2.856487e-07 -4.897445e-08 -1.720181e-05) (5.237296e-08 3.618857e-08 5.162034e-05)) ((2.312049e-12 -8.069119e-10 6.963958e-13) (3.350820e-09 -4.613458e-09 -1.129787e-10))
188.60808     	((2.856487e-07 -4.897445e-08 -1.720181e-05) (5.237296e-08 3.618857e-08 5.162034e-05)) ((2.312049e-12 -8.069119e-10 6.963956e-13) (3.350820e-09 -4.613458e-09 -1.129787e-10))
190.017723    	((2.856487e-07 -4.897445e-08 -1.720181e-05) (5.237297e-08 3.618857e-08 5.162034e-05)) ((2.312048e-12 -8.069119e-10 6.963955e-13) (3.350820e-09 -4.613458e-09 -1.129787e-10))
191.427366    	((2.856487e-07 -4.897445e-08 -1.720181e-05) (5.237297e-08 3.618857e-08 5.162034e-05)) ((2.312048e-12 -8.069119e-10 6.963954e-13) (3.350820e-09 -4.613458e-09 -1.129787e-10))