# Forces      
# CofR        : (0.000000e+00 0.000000e+00 0.000000e+00)
# Time        forces(pressure viscous)	moments(pressure viscous)
0             	((0.000000e+00 0.000000e+00 0.000000e+00) (0.000000e+00 0.000000e+00 0.000000e+00)) ((0.000000e+00 0.000000e+00 0.000000e+00) (0.000000e+00 0.000000e+00 0.000000e+00))
0.012         	((2.373435e-12 -9.109644e-08 -1.475509e-08) (2.473997e-14 -2.095496e-07 -1.990224e-14)) ((-1.330612e-11 -4.817297e-14 1.218795e-13) (-1.394460e-08 -1.296057e-15 -2.252344e-14))
0.0264        	((5.323223e-11 -1.224424e-07 -3.125405e-08) (1.197674e-13 -1.919484e-07 -4.758232e-14)) ((6.044172e-12 -1.047021e-13 5.383273e-14) (-1.278717e-08 -3.240381e-15 -2.323461e-14))
0.04368       	((-4.094331e-11 -8.279385e-08 -1.695660e-08) (1.535571e-13 -1.737836e-07 -1.261311e-13)) ((4.489552e-12 -5.515852e-14 6.062979e-14) (-1.159615e-08 -9.940069e-16 -4.342278e-14))
0.064416      	((4.677221e-11 -9.360468e-08 -2.193583e-08) (2.086163e-13 -1.554560e-07 -2.152626e-13)) ((8.864399e-12 -7.303587e-14 3.812720e-14) (-1.039854e-08 2.747618e-15 -1.665450e-14))
0.0892992     	((-2.300952e-11 -6.909788e-08 -1.463015e-08) (2.112537e-13 -1.374886e-07 -4.555708e-13)) ((6.327542e-12 -4.815420e-14 2.533344e-14) (-9.228427e-09 6.211703e-15 5.123701e-14))
0.119159      	((1.709399e-11 -7.086055e-08 -1.587795e-08) (1.274679e-13 -1.204557e-07 -8.545915e-13)) ((7.747921e-12 -5.241074e-14 1.327811e-14) (-8.124167e-09 6.162742e-15 7.824606e-14))
0.154991      	((-1.150381e-11 -5.336268e-08 -1.133573e-08) (5.364910e-14 -1.048867e-07 -1.250915e-12)) ((5.415156e-12 -3.795742e-14 5.937902e-15) (-7.109272e-09 6.196920e-15 8.820723e-14))
0.197989      	((3.940018e-12 -5.266912e-08 -1.141734e-08) (1.898956e-14 -9.110820e-08 -1.637874e-12)) ((6.105875e-12 -3.828195e-14 8.891430e-15) (-6.210319e-09 5.695318e-15 9.322700e-14))
0.249587      	((-3.656571e-12 -4.091070e-08 -8.854240e-09) (-3.940436e-15 -7.936758e-08 -2.012240e-12)) ((4.374082e-12 -2.922377e-14 7.078844e-15) (-5.438502e-09 2.129549e-15 8.702087e-14))
0.311504      	((-1.403113e-12 -3.971186e-08 -8.578803e-09) (-3.315786e-14 -6.960744e-08 -2.318048e-12)) ((4.816376e-12 -2.904001e-14 1.280871e-14) (-4.794187e-09 -1.279408e-16 6.867701e-14))
0.385805      	((1.189629e-13 -3.200387e-08 -7.125231e-09) (-5.468435e-14 -6.154461e-08 -2.669028e-12)) ((3.588629e-12 -2.355046e-14 7.948120e-15) (-4.261350e-09 -2.180710e-15 3.871036e-14))
0.474966      	((-8.657183e-13 -3.102309e-08 -6.726370e-09) (-4.161990e-14 -5.487530e-08 -2.879952e-12)) ((3.897604e-12 -2.309453e-14 1.113766e-14) (-3.821419e-09 -1.342542e-15 1.310176e-14))
0.581959      	((1.517632e-12 -2.584293e-08 -5.794174e-09) (2.431074e-14 -4.926180e-08 -3.061490e-12)) ((3.003873e-12 -1.888422e-14 7.513401e-15) (-3.450851e-09 -1.642940e-15 1.466303e-14))
0.710351      	((-2.443901e-13 -2.504322e-08 -5.370314e-09) (7.226582e-14 -4.444000e-08 -2.965959e-12)) ((3.236659e-12 -1.856466e-14 1.162189e-14) (-3.133686e-09 1.413168e-15 1.408594e-14))
0.864421      	((2.916111e-12 -2.132159e-08 -4.752208e-09) (1.022699e-13 -4.020046e-08 -3.082921e-12)) ((2.603182e-12 -1.569372e-14 8.178969e-15) (-2.855023e-09 2.775677e-15 2.917142e-14))
1.049306      	((2.143225e-13 -2.051730e-08 -4.389423e-09) (1.155406e-13 -3.642653e-08 -3.128832e-12)) ((2.786324e-12 -1.525329e-14 6.872280e-15) (-2.608102e-09 6.635011e-15 4.800963e-14))
1.271167      	((2.140166e-12 -1.763512e-08 -3.928310e-09) (1.369200e-13 -3.302122e-08 -3.378858e-12)) ((2.348835e-12 -1.337401e-14 4.557313e-17) (-2.385536e-09 1.096667e-14 5.439879e-14))
1.5374        	((1.905686e-12 -1.677156e-08 -3.604787e-09) (1.650714e-13 -2.994725e-08 -3.198603e-12)) ((2.450081e-12 -1.282941e-14 -8.218594e-16) (-2.184887e-09 2.052199e-14 4.475017e-14))
1.85688       	((1.650606e-12 -1.452667e-08 -3.258645e-09) (2.315261e-13 -2.716874e-08 -3.519484e-12)) ((2.129392e-12 -1.166859e-14 -4.398634e-15) (-2.003902e-09 3.520479e-14 4.765323e-14))
2.240256      	((1.690656e-12 -1.362635e-08 -3.020677e-09) (3.669017e-13 -2.467258e-08 -3.772304e-12)) ((2.160370e-12 -1.107635e-14 -3.550370e-15) (-1.841154e-09 5.206282e-14 7.103487e-14))
2.700307      	((4.900112e-13 -1.194557e-08 -2.783286e-09) (5.018338e-13 -2.246436e-08 -4.418040e-12)) ((1.933654e-12 -1.030217e-14 -5.513403e-15) (-1.697301e-09 6.976949e-14 9.288380e-14))
3.252369      	((2.769915e-12 -1.112175e-08 -2.615237e-09) (5.398681e-13 -2.051371e-08 -5.566517e-12)) ((1.938771e-12 -9.926132e-15 -4.143626e-15) (-1.570109e-09 8.846131e-14 9.625711e-14))
3.914842      	((-3.982683e-13 -9.915675e-09 -2.436449e-09) (3.746228e-13 -1.879832e-08 -6.220771e-12)) ((1.807391e-12 -9.002963e-15 -4.330901e-15) (-1.458580e-09 1.114125e-13 7.693041e-14))
4.709811      	((7.847907e-13 -9.175556e-09 -2.296754e-09) (1.496805e-13 -1.728838e-08 -6.847969e-12)) ((1.791793e-12 -8.377191e-15 -3.838691e-15) (-1.360603e-09 1.263092e-13 4.841379e-14))
5.663773      	((-4.320550e-15 -8.298271e-09 -2.132613e-09) (1.158027e-13 -1.594903e-08 -7.736431e-12)) ((1.705807e-12 -7.431151e-15 -4.070060e-15) (-1.273940e-09 1.293476e-13 2.391737e-14))
6.808528      	((2.116171e-12 -7.653141e-09 -1.983661e-09) (2.830540e-13 -1.474820e-08 -8.723900e-12)) ((1.669419e-12 -7.494938e-15 -4.123757e-15) (-1.196470e-09 1.252042e-13 1.665401e-15))
8.182233      	((2.390455e-12 -6.973734e-09 -1.821456e-09) (4.678325e-13 -1.365882e-08 -9.439476e-12)) ((1.614277e-12 -6.686546e-15 -4.747390e-15) (-1.126552e-09 1.177043e-13 -7.777217e-15))
9.83068       	((2.037145e-12 -6.395029e-09 -1.675736e-09) (6.396264e-13 -1.266181e-08 -9.747589e-12)) ((1.574660e-12 -6.508146e-15 -4.704449e-15) (-1.062914e-09 1.077222e-13 -9.086215e-15))
11.808816     	((1.199197e-12 -5.848649e-09 -1.540222e-09) (7.710265e-13 -1.174709e-08 -9.600758e-12)) ((1.534109e-12 -5.725092e-15 -4.877683e-15) (-1.004917e-09 9.295818e-14 -1.236212e-14))
14.182579     	((1.631843e-12 -5.370195e-09 -1.436198e-09) (8.095196e-13 -1.090702e-08 -9.535609e-12)) ((1.494855e-12 -5.530355e-15 -4.857930e-15) (-9.519390e-10 7.764658e-14 -3.088454e-15))
17.031095     	((1.626969e-12 -4.923262e-09 -1.350050e-09) (8.342978e-13 -1.013493e-08 -9.589547e-12)) ((1.463832e-12 -5.021599e-15 -4.992775e-15) (-9.036796e-10 6.833192e-14 2.787072e-15))
20.449314     	((1.921823e-12 -4.524911e-09 -1.292802e-09) (8.044434e-13 -9.426982e-09 -9.605254e-12)) ((1.433209e-12 -4.928294e-15 -5.121291e-15) (-8.597672e-10 5.487932e-14 -1.952392e-15))
24.551176     	((1.394597e-12 -4.150124e-09 -1.245288e-09) (7.778573e-13 -8.778987e-09 -9.333155e-12)) ((1.411144e-12 -4.736633e-15 -5.236304e-15) (-8.198699e-10 4.128041e-14 -6.507255e-15))
29.473411     	((1.141853e-12 -3.813101e-09 -1.195943e-09) (7.467003e-13 -8.187133e-09 -9.020268e-12)) ((1.389714e-12 -4.605247e-15 -5.349928e-15) (-7.836576e-10 3.471917e-14 -3.379211e-15))
35.380094     	((8.834634e-13 -3.499449e-09 -1.148652e-09) (7.792247e-13 -7.646733e-09 -8.763070e-12)) ((1.372996e-12 -4.436550e-15 -5.452777e-15) (-7.507624e-10 3.005824e-14 -1.048600e-14))
42.468112     	((7.707154e-13 -3.218148e-09 -1.101316e-09) (8.315305e-13 -7.152713e-09 -8.505430e-12)) ((1.357228e-12 -4.338828e-15 -5.498342e-15) (-7.208035e-10 3.031995e-14 -2.133399e-14))
50.973735     	((8.244807e-13 -2.957189e-09 -1.055078e-09) (8.565847e-13 -6.700819e-09 -8.530131e-12)) ((1.343957e-12 -4.203051e-15 -5.510409e-15) (-6.935194e-10 2.689175e-14 -2.972033e-14))
61.180482     	((8.887406e-13 -2.721047e-09 -1.014213e-09) (8.416586e-13 -6.287951e-09 -8.651444e-12)) ((1.331674e-12 -4.082339e-15 -5.507984e-15) (-6.687447e-10 2.811387e-14 -3.679618e-14))
73.428578     	((5.838073e-13 -2.505844e-09 -9.754778e-10) (7.360239e-13 -5.911734e-09 -8.703168e-12)) ((1.321507e-12 -3.929952e-15 -5.442833e-15) (-6.463252e-10 2.988341e-14 -4.356965e-14))
88.126294     	((2.984747e-13 -2.310539e-09 -9.382261e-10) (6.483346e-13 -5.569442e-09 -8.595009e-12)) ((1.312729e-12 -3.761919e-15 -5.443609e-15) (-6.260950e-10 3.172750e-14 -4.623310e-14))
105.763553    	((9.444445e-15 -2.139487e-09 -9.048920e-10) (5.179806e-13 -5.258864e-09 -8.383570e-12)) ((1.305620e-12 -3.617757e-15 -5.444850e-15) (-6.079023e-10 3.700859e-14 -5.238656e-14))
126.928263    	((-1.949014e-13 -1.984359e-09 -8.781380e-10) (4.064619e-13 -4.977837e-09 -8.152884e-12)) ((1.299567e-12 -3.503109e-15 -5.400430e-15) (-5.915918e-10 3.969107e-14 -5.925763e-14))
152.325916    	((-3.264048e-13 -1.846934e-09 -8.564343e-10) (3.379112e-13 -4.723955e-09 -7.907854e-12)) ((1.294558e-12 -3.422978e-15 -5.395472e-15) (-5.769795e-10 4.320323e-14 -6.338348e-14))
182.803099    	((-3.979201e-13 -1.725005e-09 -8.352099e-10) (2.570498e-13 -4.494843e-09 -7.806979e-12)) ((1.290291e-12 -3.378843e-15 -5.351690e-15) (-5.638986e-10 4.529555e-14 -6.601603e-14))
219.375719    	((-5.199645e-13 -1.616965e-09 -8.152881e-10) (2.345025e-13 -4.288196e-09 -7.870256e-12)) ((1.286767e-12 -3.318009e-15 -5.279180e-15) (-5.521983e-10 4.513474e-14 -6.776030e-14))
263.262863    	((-3.482091e-13 -1.521104e-09 -7.992763e-10) (2.286417e-13 -4.102117e-09 -8.231715e-12)) ((1.284004e-12 -3.262164e-15 -5.201871e-15) (-5.417550e-10 4.374366e-14 -6.973220e-14))
315.927436    	((-2.917589e-13 -1.437284e-09 -7.841293e-10) (2.109633e-13 -3.934835e-09 -8.779521e-12)) ((1.281807e-12 -3.209806e-15 -5.159117e-15) (-5.324532e-10 4.362007e-14 -7.046906e-14))
379.124923    	((-3.197667e-13 -1.363973e-09 -7.691724e-10) (1.748117e-13 -3.784924e-09 -9.482296e-12)) ((1.280023e-12 -3.163372e-15 -5.175817e-15) (-5.241991e-10 4.252737e-14 -7.072803e-14))
454.961908    	((-2.862335e-13 -1.301225e-09 -7.576169e-10) (1.601694e-13 -3.651370e-09 -1.033044e-11)) ((1.278660e-12 -3.100487e-15 -5.182799e-15) (-5.169169e-10 3.872134e-14 -7.112407e-14))
545.966289    	((-2.867384e-13 -1.248053e-09 -7.505051e-10) (1.600803e-13 -3.533259e-09 -1.130936e-11)) ((1.277587e-12 -3.070284e-15 -5.190771e-15) (-5.105404e-10 3.566422e-14 -7.230824e-14))
655.171547    	((-3.333859e-13 -1.203676e-09 -7.448385e-10) (1.448061e-13 -3.429835e-09 -1.233046e-11)) ((1.276689e-12 -3.037619e-15 -5.207938e-15) (-5.050065e-10 3.449556e-14 -7.255163e-14))
786.217856    	((-3.485507e-13 -1.166938e-09 -7.410821e-10) (1.078233e-13 -3.340300e-09 -1.330393e-11)) ((1.275957e-12 -3.001468e-15 -5.211949e-15) (-5.002506e-10 3.466189e-14 -7.185062e-14))
943.473427    	((-3.162106e-13 -1.136894e-09 -7.384501e-10) (7.445271e-14 -3.263852e-09 -1.422466e-11)) ((1.275323e-12 -3.001058e-15 -5.208476e-15) (-4.962101e-10 3.503467e-14 -7.085231e-14))
1132.180113   	((-2.979904e-13 -1.112481e-09 -7.364215e-10) (4.705006e-14 -3.199556e-09 -1.519098e-11)) ((1.274786e-12 -3.006349e-15 -5.210646e-15) (-4.928216e-10 3.520220e-14 -6.942794e-14))
1358.628135   	((-2.743433e-13 -1.092944e-09 -7.353679e-10) (2.418111e-14 -3.146345e-09 -1.616956e-11)) ((1.274348e-12 -3.005618e-15 -5.212431e-15) (-4.900183e-10 3.533500e-14 -6.755427e-14))
1630.365763   	((-2.266546e-13 -1.077399e-09 -7.346161e-10) (4.212369e-15 -3.103005e-09 -1.711399e-11)) ((1.274000e-12 -3.007722e-15 -5.217693e-15) (-4.877302e-10 3.567651e-14 -6.566631e-14))
1956.450915   	((-2.113161e-13 -1.065183e-09 -7.341897e-10) (-1.666244e-14 -3.068275e-09 -1.798722e-11)) ((1.273722e-12 -3.011391e-15 -5.224284e-15) (-4.858883e-10 3.617495e-14 -6.396685e-14))
2347.753098   	((-1.963910e-13 -1.055665e-09 -7.339105e-10) (-3.076569e-14 -3.040878e-09 -1.877233e-11)) ((1.273506e-12 -3.014352e-15 -5.230300e-15) (-4.844245e-10 3.653973e-14 -6.255220e-14))
2817.315718   	((-2.022567e-13 -1.048331e-09 -7.338499e-10) (-3.790177e-14 -3.019580e-09 -1.945560e-11)) ((1.273336e-12 -3.016808e-15 -5.237605e-15) (-4.832747e-10 3.666826e-14 -6.133720e-14))
3380.790861   	((-2.131474e-13 -1.042703e-09 -7.337880e-10) (-3.994854e-14 -3.003247e-09 -2.003321e-11)) ((1.273201e-12 -3.018776e-15 -5.244268e-15) (-4.823808e-10 3.656482e-14 -6.038296e-14))
4056.961033   	((-2.227994e-13 -1.038424e-09 -7.337701e-10) (-3.966578e-14 -2.990874e-09 -2.051080e-11)) ((1.273090e-12 -3.019591e-15 -5.250371e-15) (-4.816919e-10 3.642640e-14 -5.964554e-14))
4868.36524    	((-2.326635e-13 -1.035173e-09 -7.338126e-10) (-3.876827e-14 -2.981601e-09 -2.089484e-11)) ((1.273000e-12 -3.020425e-15 -5.255731e-15) (-4.811649e-10 3.632564e-14 -5.909797e-14))
5842.050288   	((-2.440437e-13 -1.032706e-09 -7.337819e-10) (-3.750406e-14 -2.974719e-09 -2.119779e-11)) ((1.272927e-12 -3.020848e-15 -5.260166e-15) (-4.807642e-10 3.621521e-14 -5.871652e-14))
7010.472346   	((-2.525313e-13 -1.030842e-09 -7.338183e-10) (-3.594515e-14 -2.969655e-09 -2.143077e-11)) ((1.272868e-12 -3.020741e-15 -5.263948e-15) (-4.804610e-10 3.611641e-14 -5.846425e-14))
8412.578815   	((-2.606119e-13 -1.029436e-09 -7.338056e-10) (-3.433020e-14 -2.965958e-09 -2.160748e-11)) ((1.272820e-12 -3.020113e-15 -5.267069e-15) (-4.802326e-10 3.602173e-14 -5.829849e-14))
10089.482912  	((-2.647586e-13 -1.028375e-09 -7.337943e-10) (-3.279911e-14 -2.963279e-09 -2.173951e-11)) ((1.272781e-12 -3.019371e-15 -5.269466e-15) (-4.800609e-10 3.593611e-14 -5.819742e-14))
12041.182939  	((-2.691717e-13 -1.027576e-09 -7.337747e-10) (-3.164739e-14 -2.961350e-09 -2.183618e-11)) ((1.272752e-12 -3.018703e-15 -5.271356e-15) (-4.799322e-10 3.587256e-14 -5.814382e-14))
14267.677677  	((-2.749634e-13 -1.026976e-09 -7.337311e-10) (-3.094149e-14 -2.959969e-09 -2.190576e-11)) ((1.272730e-12 -3.018086e-15 -5.272971e-15) (-4.798359e-10 3.583114e-14 -5.811637e-14))
16768.966267  	((-2.795950e-13 -1.026522e-09 -7.337200e-10) (-3.046452e-14 -2.958986e-09 -2.195519e-11)) ((1.272713e-12 -3.017666e-15 -5.274162e-15) (-4.797638e-10 3.580220e-14 -5.811009e-14))
19516.898776  	((-2.827132e-13 -1.026178e-09 -7.337152e-10) (-3.011729e-14 -2.958291e-09 -2.198975e-11)) ((1.272701e-12 -3.017324e-15 -5.275071e-15) (-4.797099e-10 3.578209e-14 -5.811435e-14))
22264.827128  	((-2.854553e-13 -1.025922e-09 -7.336874e-10) (-2.988055e-14 -2.957801e-09 -2.201335e-11)) ((1.272700e-12 -3.016983e-15 -5.275776e-15) (-4.796697e-10 3.576868e-14 -5.812352e-14))
25012.753022  	((-2.865662e-13 -1.025732e-09 -7.336582e-10) (-2.962735e-14 -2.957458e-09 -2.202915e-11)) ((1.272700e-12 -3.016672e-15 -5.276261e-15) (-4.796397e-10 3.575895e-14 -5.813606e-14))
27760.677622  	((-2.880315e-13 -1.025585e-09 -7.336054e-10) (-2.948866e-14 -2.957218e-09 -2.203969e-11)) ((1.272700e-12 -3.016378e-15 -5.276680e-15) (-4.796171e-10 3.575019e-14 -5.814131e-14))
30508.601537  	((-2.891791e-13 -1.025473e-09 -7.335927e-10) (-2.926457e-14 -2.957051e-09 -2.204663e-11)) ((1.272700e-12 -3.016214e-15 -5.276956e-15) (-4.796001e-10 3.574448e-14 -5.815338e-14))
33256.525106  	((-2.911647e-13 -1.025387e-09 -7.335662e-10) (-2.909793e-14 -2.956936e-09 -2.205108e-11)) ((1.272701e-12 -3.016076e-15 -5.277218e-15) (-4.795872e-10 3.573741e-14 -5.816261e-14))
36004.448525  	((-2.932894e-13 -1.025320e-09 -7.335439e-10) (-2.897031e-14 -2.956857e-09 -2.205386e-11)) ((1.272701e-12 -3.015992e-15 -5.277411e-15) (-4.795775e-10 3.573081e-14 -5.817016e-14))
38752.371908  	((-2.970629e-13 -1.025266e-09 -7.334981e-10) (-2.900912e-14 -2.956803e-09 -2.205555e-11)) ((1.272701e-12 -3.015872e-15 -5.277618e-15) (-4.795701e-10 3.572821e-14 -5.817637e-14))
41500.29532   	((-3.007422e-13 -1.025224e-09 -7.334726e-10) (-2.896679e-14 -2.956767e-09 -2.205651e-11)) ((1.272701e-12 -3.015800e-15 -5.277687e-15) (-4.795644e-10 3.572370e-14 -5.818841e-14))
44248.218795  	((-3.039863e-13 -1.025190e-09 -7.334683e-10) (-2.894825e-14 -2.956742e-09 -2.205700e-11)) ((1.272702e-12 -3.015788e-15 -5.277758e-15) (-4.795601e-10 3.571978e-14 -5.819569e-14))
46996.142347  	((-3.069066e-13 -1.025163e-09 -7.334471e-10) (-2.894521e-14 -2.956726e-09 -2.205717e-11)) ((1.272702e-12 -3.015724e-15 -5.277820e-15) (-4.795568e-10 3.571681e-14 -5.820120e-14))
49744.065981  	((-3.094735e-13 -1.025141e-09 -7.334279e-10) (-2.895500e-14 -2.956715e-09 -2.205714e-11)) ((1.272702e-12 -3.015669e-15 -5.277872e-15) (-4.795542e-10 3.571488e-14 -5.820592e-14))
52491.989693  	((-3.119228e-13 -1.025124e-09 -7.334108e-10) (-2.896315e-14 -2.956709e-09 -2.205693e-11)) ((1.272702e-12 -3.015625e-15 -5.277912e-15) (-4.795522e-10 3.571278e-14 -5.820976e-14))
55239.913477  	((-3.140361e-13 -1.025109e-09 -7.333936e-10) (-2.898170e-14 -2.956704e-09 -2.205665e-11)) ((1.272703e-12 -3.015583e-15 -5.277944e-15) (-4.795507e-10 3.571129e-14 -5.821323e-14))
57987.837325  	((-3.110917e-13 -1.025099e-09 -7.333786e-10) (-2.909989e-14 -2.956702e-09 -2.205625e-11)) ((1.272703e-12 -3.015615e-15 -5.277898e-15) (-4.795495e-10 3.571261e-14 -5.821510e-14))
60735.761228  	((-3.134164e-13 -1.025089e-09 -7.333611e-10) (-2.904315e-14 -2.956701e-09 -2.205589e-11)) ((1.272703e-12 -3.015635e-15 -5.277921e-15) (-4.795486e-10 3.571081e-14 -5.821741e-14))
63483.685177  	((-3.107347e-13 -1.025083e-09 -7.333488e-10) (-2.910668e-14 -2.956700e-09 -2.205549e-11)) ((1.272703e-12 -3.015629e-15 -5.277889e-15) (-4.795479e-10 3.571226e-14 -5.821887e-14))
66231.609167  	((-3.108859e-13 -1.025076e-09 -7.333357e-10) (-2.900651e-14 -2.956700e-09 -2.205519e-11)) ((1.272703e-12 -3.015516e-15 -5.277961e-15) (-4.795474e-10 3.570981e-14 -5.822172e-14))
68979.533189  	((-3.141718e-13 -1.025070e-09 -7.333246e-10) (-2.899863e-14 -2.956700e-09 -2.205492e-11)) ((1.272703e-12 -3.015572e-15 -5.277973e-15) (-4.795469e-10 3.570758e-14 -5.822392e-14))
71727.457238  	((-3.122309e-13 -1.025066e-09 -7.333153e-10) (-2.909938e-14 -2.956700e-09 -2.205458e-11)) ((1.272703e-12 -3.015590e-15 -5.277920e-15) (-4.795466e-10 3.570944e-14 -5.822380e-14))
74475.38131   	((-3.125932e-13 -1.025062e-09 -7.333047e-10) (-2.902101e-14 -2.956700e-09 -2.205433e-11)) ((1.272703e-12 -3.015487e-15 -5.277983e-15) (-4.795463e-10 3.570770e-14 -5.822579e-14))
77223.3054    	((-3.157258e-13 -1.025059e-09 -7.332966e-10) (-2.901870e-14 -2.956701e-09 -2.205415e-11)) ((1.272704e-12 -3.015547e-15 -5.277990e-15) (-4.795461e-10 3.570607e-14 -5.822745e-14))
79971.229505  	((-3.137106e-13 -1.025056e-09 -7.332900e-10) (-2.912258e-14 -2.956701e-09 -2.205392e-11)) ((1.272704e-12 -3.015566e-15 -5.277940e-15) (-4.795460e-10 3.570873e-14 -5.822668e-14))
82719.153622  	((-3.139465e-13 -1.025054e-09 -7.332819e-10) (-2.904736e-14 -2.956701e-09 -2.205375e-11)) ((1.272704e-12 -3.015467e-15 -5.278000e-15) (-4.795458e-10 3.570744e-14 -5.822811e-14))
85467.077749  	((-3.168924e-13 -1.025051e-09 -7.332808e-10) (-2.904137e-14 -2.956702e-09 -2.205362e-11)) ((1.272704e-12 -3.015541e-15 -5.278003e-15) (-4.795457e-10 3.570578e-14 -5.822939e-14))
88215.001883  	((-3.147434e-13 -1.025050e-09 -7.332717e-10) (-2.914514e-14 -2.956702e-09 -2.205344e-11)) ((1.272704e-12 -3.015551e-15 -5.277948e-15) (-4.795456e-10 3.570846e-14 -5.822850e-14))
90962.926024  	((-3.149012e-13 -1.025048e-09 -7.332655e-10) (-2.907053e-14 -2.956702e-09 -2.205331e-11)) ((1.272704e-12 -3.015453e-15 -5.278006e-15) (-4.795456e-10 3.570728e-14 -5.822968e-14))
93710.85017   	((-3.177334e-13 -1.025047e-09 -7.332663e-10) (-2.906236e-14 -2.956702e-09 -2.205322e-11)) ((1.272704e-12 -3.015530e-15 -5.278007e-15) (-4.795455e-10 3.570553e-14 -5.823073e-14))
96458.77432   	((-3.155036e-13 -1.025046e-09 -7.332586e-10) (-2.916368e-14 -2.956702e-09 -2.205308e-11)) ((1.272704e-12 -3.015540e-15 -5.277953e-15) (-4.795455e-10 3.570825e-14 -5.822957e-14))
99206.698473  	((-3.156017e-13 -1.025045e-09 -7.332537e-10) (-2.908777e-14 -2.956702e-09 -2.205299e-11)) ((1.272704e-12 -3.015444e-15 -5.278009e-15) (-4.795455e-10 3.570708e-14 -5.823057e-14))
101954.622628 	((-3.183596e-13 -1.025044e-09 -7.332559e-10) (-2.907720e-14 -2.956702e-09 -2.205294e-11)) ((1.272704e-12 -3.015521e-15 -5.278010e-15) (-4.795454e-10 3.570535e-14 -5.823145e-14))
104702.546786 	((-3.159734e-13 -1.025043e-09 -7.332493e-10) (-2.917716e-14 -2.956702e-09 -2.205283e-11)) ((1.272704e-12 -3.015531e-15 -5.277955e-15) (-4.795454e-10 3.570808e-14 -5.823009e-14))
107450.470946 	((-3.160054e-13 -1.025042e-09 -7.332455e-10) (-2.909961e-14 -2.956703e-09 -2.205277e-11)) ((1.272704e-12 -3.015436e-15 -5.278011e-15) (-4.795454e-10 3.570689e-14 -5.823098e-14))
110198.395106 	((-3.187157e-13 -1.025041e-09 -7.332486e-10) (-2.908771e-14 -2.956703e-09 -2.205274e-11)) ((1.272704e-12 -3.015515e-15 -5.278013e-15) (-4.795454e-10 3.570535e-14 -5.823179e-14))
112946.319268 	((-3.168460e-13 -1.025041e-09 -7.332484e-10) (-2.917718e-14 -2.956703e-09 -2.205266e-11)) ((1.272704e-12 -3.015459e-15 -5.277989e-15) (-4.795454e-10 3.570802e-14 -5.823064e-14))
115694.243431 	((-3.167776e-13 -1.025040e-09 -7.332412e-10) (-2.910016e-14 -2.956703e-09 -2.205267e-11)) ((1.272704e-12 -3.015395e-15 -5.278041e-15) (-4.795454e-10 3.570626e-14 -5.823226e-14))
118442.167594 	((-3.194704e-13 -1.025039e-09 -7.332448e-10) (-2.910528e-14 -2.956703e-09 -2.205266e-11)) ((1.272704e-12 -3.015489e-15 -5.278028e-15) (-4.795454e-10 3.570498e-14 -5.823239e-14))
