# Forces      
# CofR        : (0.000000e+00 0.000000e+00 0.000000e+00)
# Time        forces(pressure viscous)	moments(pressure viscous)
0             	((0.000000e+00 0.000000e+00 0.000000e+00) (5.571584e-10 1.330571e-12 6.024510e-05)) ((0.000000e+00 0.000000e+00 0.000000e+00) (-3.524008e-13 3.414192e-11 -8.346931e-16))
0.012         	((7.735473e-07 1.322563e-07 5.176527e-03) (3.985043e-11 6.077409e-10 5.029645e-05)) ((7.098536e-12 5.214550e-09 -3.686694e-13) (1.715328e-11 -8.887065e-11 -4.837536e-13))
0.0264        	((3.551501e-08 -1.471331e-07 -4.823239e-04) (1.503506e-10 2.420420e-10 3.833814e-05)) ((-8.820528e-12 -6.123807e-10 -2.519908e-12) (3.975928e-11 -1.115575e-10 -3.979210e-12))
0.04368       	((-1.076576e-07 2.084195e-07 -1.224422e-03) (9.445765e-10 6.278184e-10 2.644328e-05)) ((4.600529e-11 -2.135866e-09 2.107032e-12) (6.667244e-11 -8.567565e-11 -1.070787e-11))
0.064416      	((8.126300e-08 -2.111570e-08 -1.657301e-05) (2.090236e-09 1.518232e-09 1.874670e-05)) ((8.569773e-12 -3.207730e-11 -1.976847e-12) (6.849365e-11 -8.003052e-11 -1.281050e-11))
0.0892992     	((7.507874e-08 -1.310804e-08 2.973607e-05) (3.151081e-09 1.783450e-09 1.513302e-05)) ((-1.713031e-11 1.314805e-10 -5.887088e-13) (8.926252e-11 -9.466922e-11 -7.006152e-12))
0.119159      	((1.477105e-08 -2.618066e-08 -2.841065e-06) (2.835290e-09 1.903687e-09 1.281659e-05)) ((-9.632276e-13 7.631671e-12 -7.496662e-13) (1.027453e-10 -1.050445e-10 -9.590952e-12))
0.154991      	((-1.388511e-08 -2.268513e-08 -3.824084e-06) (2.256662e-09 1.847498e-09 1.099731e-05)) ((-1.495889e-12 2.510692e-12 9.511418e-14) (1.054543e-10 -1.050532e-10 -1.622374e-11))
0.197989      	((3.826233e-08 -1.379519e-08 3.226600e-07) (2.432497e-09 1.772741e-09 9.643737e-06)) ((-1.219681e-12 -1.117019e-11 -2.133302e-13) (1.135811e-10 -1.115469e-10 -1.533504e-11))
0.249587      	((1.774134e-08 -1.493050e-08 1.232805e-06) (2.698301e-09 1.757647e-09 8.545276e-06)) ((-5.388181e-13 -1.005338e-11 -1.029340e-13) (1.075347e-10 -1.279465e-10 -1.233421e-11))
0.311504      	((3.909526e-08 -2.194465e-08 9.559938e-07) (2.920032e-09 1.899536e-09 7.607938e-06)) ((2.827079e-14 -2.040195e-11 -9.918319e-14) (1.093456e-10 -1.618321e-10 -1.144613e-11))
0.385805      	((8.534811e-09 -3.888117e-09 1.304410e-06) (2.940608e-09 2.163763e-09 6.794137e-06)) ((-6.092373e-13 -1.705754e-11 -8.413613e-14) (1.256245e-10 -1.751515e-10 -1.142667e-11))
0.474966      	((2.422594e-08 -6.681239e-09 1.085580e-06) (2.947966e-09 2.302572e-09 6.084570e-06)) ((1.294720e-13 -2.087511e-11 -7.260866e-14) (1.375550e-10 -1.957522e-10 -1.035226e-11))
0.581959      	((-1.795227e-09 -7.344662e-10 1.164868e-06) (2.757256e-09 2.367809e-09 5.462188e-06)) ((1.859777e-13 -1.843577e-11 -9.093968e-14) (1.472996e-10 -1.974441e-10 -8.446395e-12))
0.710351      	((3.505390e-08 -8.160078e-09 1.002620e-06) (2.824158e-09 2.381275e-09 4.920533e-06)) ((1.066922e-12 -1.848912e-11 -3.309097e-14) (1.522315e-10 -2.038461e-10 -6.469613e-12))
0.864421      	((6.992412e-09 1.042622e-09 9.891679e-07) (2.907435e-09 2.332243e-09 4.455752e-06)) ((6.137437e-13 -1.672576e-11 -3.624920e-14) (1.545429e-10 -2.088827e-10 -5.061701e-12))
1.049306      	((1.764068e-08 -3.840192e-09 9.133257e-07) (2.931332e-09 2.270229e-09 4.059598e-06)) ((1.111366e-12 -1.544382e-11 -4.720268e-15) (1.531536e-10 -2.103607e-10 -3.649251e-12))
1.271167      	((7.218397e-09 2.973088e-09 8.928546e-07) (2.840821e-09 2.280937e-09 3.722966e-06)) ((7.492520e-13 -1.345402e-11 1.254329e-14) (1.566281e-10 -2.107669e-10 -3.068209e-12))
1.5374        	((8.043190e-09 -1.414707e-09 8.507306e-07) (2.635906e-09 2.277816e-09 3.434218e-06)) ((1.150787e-12 -1.215832e-11 -3.923026e-15) (1.573885e-10 -1.995607e-10 -3.043779e-12))
1.85688       	((-3.441157e-10 1.008165e-09 8.293150e-07) (2.470702e-09 2.251422e-09 3.183456e-06)) ((8.027738e-13 -1.027929e-11 -3.576420e-14) (1.552559e-10 -1.853459e-10 -3.008043e-12))
2.240256      	((3.712919e-09 -2.444840e-09 7.953715e-07) (2.266728e-09 2.107997e-09 2.961494e-06)) ((7.665246e-13 -8.490437e-12 -8.517047e-14) (1.469868e-10 -1.705649e-10 -2.762896e-12))
2.700307      	((-2.553754e-09 -1.108042e-09 7.639243e-07) (2.001263e-09 1.840546e-09 2.761119e-06)) ((4.810287e-13 -7.366683e-12 -8.072712e-14) (1.297241e-10 -1.462251e-10 -2.097705e-12))
3.252369      	((1.132342e-09 -2.157093e-09 7.260540e-07) (1.563660e-09 1.457784e-09 2.577080e-06)) ((4.095750e-13 -5.668398e-12 -9.806555e-14) (1.054169e-10 -1.225246e-10 -2.056884e-12))
3.914842      	((-2.344378e-09 -1.785088e-09 6.827022e-07) (1.061027e-09 9.934572e-10 2.406482e-06)) ((3.114466e-13 -5.239300e-12 -8.291394e-14) (7.726775e-11 -9.337315e-11 -2.261711e-12))
4.709811      	((2.375380e-10 -1.264533e-09 6.393098e-07) (5.417260e-10 5.362198e-10 2.248042e-06)) ((2.097477e-13 -4.327009e-12 -7.198662e-14) (5.029856e-11 -6.515791e-11 -1.991890e-12))
5.663773      	((-2.213238e-10 -9.545693e-10 5.963992e-07) (1.653696e-10 6.675417e-11 2.100349e-06)) ((2.926726e-13 -4.027795e-12 -5.210111e-14) (2.055648e-11 -4.063081e-11 -9.795996e-13))
6.808528      	((1.613711e-09 -1.118435e-09 5.462541e-07) (-9.265591e-11 -3.667681e-10 1.963611e-06)) ((3.081361e-13 -3.532237e-12 -5.253381e-14) (-8.110025e-12 -2.330411e-11 1.155766e-13))
8.182233      	((-5.853363e-10 -1.160697e-09 4.995971e-07) (-3.117944e-10 -7.121720e-10 1.837498e-06)) ((2.438277e-13 -3.429640e-12 -4.611967e-14) (-3.080838e-11 -1.015207e-11 2.672341e-13))
9.83068       	((3.630029e-10 -1.506182e-09 4.536254e-07) (-4.803609e-10 -9.782812e-10 1.721652e-06)) ((1.741774e-13 -3.272406e-12 -4.166705e-14) (-4.815737e-11 2.315129e-12 -6.015398e-14))
11.808816     	((-3.656345e-10 -1.322134e-09 4.118016e-07) (-6.198858e-10 -1.150197e-09 1.615381e-06)) ((1.283726e-13 -3.173787e-12 -3.280558e-14) (-5.878534e-11 1.374341e-11 -3.554305e-13))
14.182579     	((2.186721e-10 -1.359443e-09 3.727538e-07) (-7.350411e-10 -1.250930e-09 1.518420e-06)) ((1.120664e-13 -3.056258e-12 -2.496895e-14) (-6.429702e-11 2.220148e-11 -6.013463e-13))
17.031095     	((-8.848022e-11 -1.291128e-09 3.363624e-07) (-8.307265e-10 -1.316143e-09 1.430606e-06)) ((1.077315e-13 -3.055256e-12 -2.848715e-14) (-6.815461e-11 2.867119e-11 -5.820937e-13))
20.449314     	((6.352591e-11 -1.343305e-09 3.035966e-07) (-9.115428e-10 -1.375207e-09 1.351662e-06)) ((1.082928e-13 -3.039906e-12 -2.935939e-14) (-7.231397e-11 3.317047e-11 -4.211713e-13))
24.551176     	((-3.509065e-10 -1.246364e-09 2.742934e-07) (-9.944269e-10 -1.421251e-09 1.281158e-06)) ((1.181185e-13 -3.102833e-12 -2.500245e-14) (-7.589588e-11 3.953545e-11 -5.215427e-13))
29.473411     	((-2.106196e-11 -1.219326e-09 2.487375e-07) (-1.055466e-09 -1.437570e-09 1.218483e-06)) ((1.289149e-13 -3.124184e-12 -1.906815e-14) (-7.743692e-11 4.503095e-11 -8.348249e-13))
35.380094     	((-1.878383e-10 -1.170094e-09 2.266404e-07) (-1.089229e-09 -1.440717e-09 1.163102e-06)) ((1.291013e-13 -3.174734e-12 -1.753530e-14) (-7.762956e-11 4.847253e-11 -1.250653e-12))
42.468112     	((-2.047037e-11 -1.151959e-09 2.091778e-07) (-1.106624e-09 -1.426933e-09 1.114221e-06)) ((1.250396e-13 -3.190919e-12 -1.522520e-14) (-7.644808e-11 5.013547e-11 -1.450144e-12))
50.973735     	((-1.993641e-10 -1.083708e-09 1.945024e-07) (-1.120323e-09 -1.405538e-09 1.071437e-06)) ((1.195937e-13 -3.232908e-12 -1.290014e-14) (-7.465946e-11 5.159316e-11 -1.562790e-12))
61.180482     	((-1.396474e-10 -1.045706e-09 1.815393e-07) (-1.130676e-09 -1.378460e-09 1.034373e-06)) ((1.145808e-13 -3.264658e-12 -1.151937e-14) (-7.261148e-11 5.268104e-11 -1.751691e-12))
73.428578     	((-2.714391e-10 -1.059542e-09 1.706141e-07) (-1.132818e-09 -1.353683e-09 1.002612e-06)) ((1.078470e-13 -3.304374e-12 -1.111321e-14) (-7.095821e-11 5.371427e-11 -1.993660e-12))
88.126294     	((-1.826444e-10 -1.054442e-09 1.611384e-07) (-1.128015e-09 -1.342623e-09 9.757110e-07)) ((1.049755e-13 -3.311547e-12 -1.205643e-14) (-7.031653e-11 5.438796e-11 -2.199068e-12))
105.763553    	((-2.778616e-10 -1.063352e-09 1.533179e-07) (-1.129559e-09 -1.346191e-09 9.532897e-07)) ((1.061235e-13 -3.337658e-12 -1.301381e-14) (-7.071887e-11 5.557080e-11 -2.315353e-12))
126.928263    	((-1.350714e-10 -1.055829e-09 1.469844e-07) (-1.135645e-09 -1.358499e-09 9.350830e-07)) ((1.015670e-13 -3.346345e-12 -1.435460e-14) (-7.175209e-11 5.702811e-11 -2.390916e-12))
152.163222    	((-1.890676e-10 -1.052781e-09 1.419921e-07) (-1.150780e-09 -1.376605e-09 9.209811e-07)) ((9.983634e-14 -3.380046e-12 -1.500332e-14) (-7.326297e-11 5.924393e-11 -2.426823e-12))
181.543635    	((-1.471995e-10 -1.056651e-09 1.381130e-07) (-1.170959e-09 -1.400349e-09 9.108660e-07)) ((1.004006e-13 -3.413475e-12 -1.534020e-14) (-7.515736e-11 6.175822e-11 -2.443960e-12))
215.116008    	((-1.738584e-10 -1.048730e-09 1.349152e-07) (-1.199257e-09 -1.429583e-09 9.045056e-07)) ((1.003047e-13 -3.467878e-12 -1.536702e-14) (-7.742722e-11 6.472657e-11 -2.457054e-12))
252.906914    	((-1.358563e-10 -1.038687e-09 1.324405e-07) (-1.231108e-09 -1.460966e-09 9.014396e-07)) ((1.020029e-13 -3.524122e-12 -1.449404e-14) (-7.993268e-11 6.789585e-11 -2.458728e-12))
294.92707     	((-1.322856e-10 -1.023740e-09 1.308177e-07) (-1.261047e-09 -1.488195e-09 9.009876e-07)) ((1.059836e-13 -3.576339e-12 -1.414352e-14) (-8.220546e-11 7.088361e-11 -2.453792e-12))
337.193804    	((-1.103569e-10 -1.001454e-09 1.301643e-07) (-1.284005e-09 -1.506899e-09 9.022520e-07)) ((1.112956e-13 -3.612336e-12 -1.455203e-14) (-8.389995e-11 7.326255e-11 -2.492874e-12))
379.35183     	((-6.789966e-11 -9.752286e-10 1.305910e-07) (-1.296713e-09 -1.514724e-09 9.043135e-07)) ((1.125894e-13 -3.627753e-12 -1.516952e-14) (-8.480686e-11 7.471749e-11 -2.587047e-12))
421.371471    	((-4.624966e-11 -9.476729e-10 1.317191e-07) (-1.299665e-09 -1.514210e-09 9.064541e-07)) ((1.125553e-13 -3.632038e-12 -1.550371e-14) (-8.503581e-11 7.531309e-11 -2.688382e-12))
463.263879    	((-3.078907e-11 -9.258446e-10 1.330323e-07) (-1.296755e-09 -1.509136e-09 9.082321e-07)) ((1.126232e-13 -3.626248e-12 -1.573231e-14) (-8.484451e-11 7.535034e-11 -2.753026e-12))
505.06184     	((-2.399308e-11 -8.965776e-10 1.341049e-07) (-1.291404e-09 -1.502679e-09 9.094808e-07)) ((1.124712e-13 -3.616058e-12 -1.600514e-14) (-8.448747e-11 7.507130e-11 -2.781493e-12))
546.801605    	((-1.543239e-11 -8.813748e-10 1.347562e-07) (-1.285949e-09 -1.497021e-09 9.102277e-07)) ((1.134148e-13 -3.605551e-12 -1.609072e-14) (-8.416013e-11 7.469075e-11 -2.793111e-12))
588.512464    	((-4.578226e-12 -8.684098e-10 1.350335e-07) (-1.281747e-09 -1.492966e-09 9.106018e-07)) ((1.145900e-13 -3.598927e-12 -1.602489e-14) (-8.391921e-11 7.437001e-11 -2.804695e-12))
630.213274    	((5.298678e-12 -8.577451e-10 1.350721e-07) (-1.278904e-09 -1.490152e-09 9.107418e-07)) ((1.153160e-13 -3.595786e-12 -1.594661e-14) (-8.375876e-11 7.413660e-11 -2.811819e-12))
671.913898    	((1.276420e-11 -8.484662e-10 1.350089e-07) (-1.277266e-09 -1.488171e-09 9.107598e-07)) ((1.157422e-13 -3.594717e-12 -1.586437e-14) (-8.365020e-11 7.398839e-11 -2.812883e-12))
713.618187    	((1.859169e-11 -8.407242e-10 1.349249e-07) (-1.276470e-09 -1.486884e-09 9.107278e-07)) ((1.159479e-13 -3.594878e-12 -1.577460e-14) (-8.358265e-11 7.390867e-11 -2.812345e-12))
755.326713    	((2.309437e-11 -8.338629e-10 1.348555e-07) (-1.275984e-09 -1.486082e-09 9.106859e-07)) ((1.160786e-13 -3.595490e-12 -1.571863e-14) (-8.354379e-11 7.386292e-11 -2.811826e-12))
797.038633    	((2.648022e-11 -8.285272e-10 1.348069e-07) (-1.275660e-09 -1.485563e-09 9.106520e-07)) ((1.162715e-13 -3.596152e-12 -1.566722e-14) (-8.352087e-11 7.383547e-11 -2.811089e-12))
838.752731    	((2.937397e-11 -8.241796e-10 1.347764e-07) (-1.275392e-09 -1.485218e-09 9.106315e-07)) ((1.164955e-13 -3.596708e-12 -1.561530e-14) (-8.350742e-11 7.381800e-11 -2.810823e-12))
880.467905    	((3.140498e-11 -8.209861e-10 1.347590e-07) (-1.275138e-09 -1.484969e-09 9.106236e-07)) ((1.167227e-13 -3.597187e-12 -1.556812e-14) (-8.350029e-11 7.380629e-11 -2.810978e-12))
922.183339    	((3.335286e-11 -8.179204e-10 1.347509e-07) (-1.274889e-09 -1.484776e-09 9.106250e-07)) ((1.169541e-13 -3.597504e-12 -1.552695e-14) (-8.349641e-11 7.379695e-11 -2.811630e-12))
963.898523    	((3.525034e-11 -8.155740e-10 1.347469e-07) (-1.274645e-09 -1.484623e-09 9.106319e-07)) ((1.171485e-13 -3.597768e-12 -1.548366e-14) (-8.349379e-11 7.378882e-11 -2.812564e-12))
1005.613205   	((3.691989e-11 -8.137671e-10 1.347483e-07) (-1.274398e-09 -1.484515e-09 9.106412e-07)) ((1.173206e-13 -3.597966e-12 -1.545422e-14) (-8.349245e-11 7.378024e-11 -2.813430e-12))
1047.327321   	((3.883561e-11 -8.121249e-10 1.347476e-07) (-1.274179e-09 -1.484438e-09 9.106503e-07)) ((1.174760e-13 -3.598080e-12 -1.543267e-14) (-8.349238e-11 7.377300e-11 -2.813991e-12))
1089.040925   	((4.028217e-11 -8.109077e-10 1.347563e-07) (-1.273992e-09 -1.484383e-09 9.106580e-07)) ((1.176202e-13 -3.598162e-12 -1.541697e-14) (-8.349422e-11 7.376866e-11 -2.814342e-12))
1130.754128   	((4.194054e-11 -8.097526e-10 1.347579e-07) (-1.273842e-09 -1.484351e-09 9.106637e-07)) ((1.177486e-13 -3.598221e-12 -1.540487e-14) (-8.349588e-11 7.376503e-11 -2.814472e-12))
1172.467055   	((4.348390e-11 -8.087451e-10 1.347549e-07) (-1.273723e-09 -1.484336e-09 9.106676e-07)) ((1.178647e-13 -3.598286e-12 -1.539592e-14) (-8.349746e-11 7.376215e-11 -2.814530e-12))
1214.179813   	((4.506233e-11 -8.077819e-10 1.347591e-07) (-1.273626e-09 -1.484329e-09 9.106698e-07)) ((1.179620e-13 -3.598319e-12 -1.538732e-14) (-8.349862e-11 7.375974e-11 -2.814547e-12))
1255.892486   	((4.641348e-11 -8.070233e-10 1.347579e-07) (-1.273552e-09 -1.484337e-09 9.106709e-07)) ((1.180515e-13 -3.598375e-12 -1.537721e-14) (-8.350045e-11 7.375859e-11 -2.814521e-12))
1297.605128   	((4.757987e-11 -8.064909e-10 1.347537e-07) (-1.273493e-09 -1.484350e-09 9.106712e-07)) ((1.181363e-13 -3.598440e-12 -1.536733e-14) (-8.350261e-11 7.375797e-11 -2.814442e-12))
1339.317772   	((4.861416e-11 -8.060650e-10 1.347522e-07) (-1.273445e-09 -1.484367e-09 9.106712e-07)) ((1.182151e-13 -3.598505e-12 -1.535979e-14) (-8.350485e-11 7.375777e-11 -2.814345e-12))
1381.030429   	((4.894933e-11 -8.058248e-10 1.347508e-07) (-1.273423e-09 -1.484404e-09 9.106710e-07)) ((1.182794e-13 -3.598606e-12 -1.535061e-14) (-8.350978e-11 7.376017e-11 -2.814184e-12))
1422.743101   	((4.964064e-11 -8.053867e-10 1.347527e-07) (-1.273426e-09 -1.484446e-09 9.106707e-07)) ((1.183330e-13 -3.598658e-12 -1.534557e-14) (-8.351381e-11 7.376388e-11 -2.814235e-12))
1464.455787   	((5.020441e-11 -8.051143e-10 1.347497e-07) (-1.273443e-09 -1.484490e-09 9.106704e-07)) ((1.183890e-13 -3.598723e-12 -1.534086e-14) (-8.351740e-11 7.376752e-11 -2.814233e-12))
1506.168483   	((5.076281e-11 -8.048863e-10 1.347479e-07) (-1.273463e-09 -1.484535e-09 9.106701e-07)) ((1.184437e-13 -3.598775e-12 -1.533680e-14) (-8.352081e-11 7.377075e-11 -2.814204e-12))
1547.881186   	((5.150104e-11 -8.046313e-10 1.347496e-07) (-1.273469e-09 -1.484569e-09 9.106699e-07)) ((1.184998e-13 -3.598799e-12 -1.533296e-14) (-8.352266e-11 7.377207e-11 -2.814239e-12))
1589.593893   	((5.226358e-11 -8.045604e-10 1.347507e-07) (-1.273469e-09 -1.484604e-09 9.106697e-07)) ((1.185627e-13 -3.598829e-12 -1.533506e-14) (-8.352399e-11 7.377278e-11 -2.814215e-12))
1631.306605   	((5.237702e-11 -8.045274e-10 1.347456e-07) (-1.273449e-09 -1.484646e-09 9.106697e-07)) ((1.186126e-13 -3.598916e-12 -1.532925e-14) (-8.352713e-11 7.377214e-11 -2.814158e-12))
1673.019315   	((5.329114e-11 -8.041393e-10 1.347481e-07) (-1.273432e-09 -1.484702e-09 9.106697e-07)) ((1.186509e-13 -3.598858e-12 -1.532007e-14) (-8.353048e-11 7.377219e-11 -2.814089e-12))
1714.732024   	((5.377863e-11 -8.039785e-10 1.347439e-07) (-1.273417e-09 -1.484759e-09 9.106697e-07)) ((1.186925e-13 -3.598863e-12 -1.531351e-14) (-8.353392e-11 7.377259e-11 -2.814019e-12))
1756.44473    	((5.355302e-11 -8.040215e-10 1.347460e-07) (-1.273431e-09 -1.484824e-09 9.106697e-07)) ((1.187383e-13 -3.598928e-12 -1.531379e-14) (-8.353886e-11 7.377627e-11 -2.813894e-12))
1798.157433   	((5.372821e-11 -8.040136e-10 1.347479e-07) (-1.273461e-09 -1.484889e-09 9.106696e-07)) ((1.187887e-13 -3.598964e-12 -1.531455e-14) (-8.354304e-11 7.377934e-11 -2.813867e-12))
1839.870133   	((5.388820e-11 -8.040357e-10 1.347486e-07) (-1.273490e-09 -1.484954e-09 9.106696e-07)) ((1.188405e-13 -3.598995e-12 -1.531416e-14) (-8.354699e-11 7.378172e-11 -2.813843e-12))
1881.582833   	((5.406946e-11 -8.040363e-10 1.347473e-07) (-1.273515e-09 -1.485019e-09 9.106695e-07)) ((1.188900e-13 -3.599024e-12 -1.531336e-14) (-8.355084e-11 7.378373e-11 -2.813819e-12))
1923.295531   	((5.423340e-11 -8.040381e-10 1.347481e-07) (-1.273538e-09 -1.485085e-09 9.106695e-07)) ((1.189389e-13 -3.599043e-12 -1.531222e-14) (-8.355463e-11 7.378550e-11 -2.813797e-12))
1965.00823    	((5.438646e-11 -8.040342e-10 1.347470e-07) (-1.273558e-09 -1.485151e-09 9.106694e-07)) ((1.189869e-13 -3.599066e-12 -1.531097e-14) (-8.355840e-11 7.378713e-11 -2.813775e-12))
2006.720928   	((5.451824e-11 -8.040389e-10 1.347478e-07) (-1.273578e-09 -1.485217e-09 9.106694e-07)) ((1.190347e-13 -3.599081e-12 -1.530961e-14) (-8.356217e-11 7.378864e-11 -2.813753e-12))
2048.433627   	((5.463876e-11 -8.040408e-10 1.347467e-07) (-1.273597e-09 -1.485284e-09 9.106693e-07)) ((1.190821e-13 -3.599102e-12 -1.530824e-14) (-8.356593e-11 7.379009e-11 -2.813730e-12))
2090.146326   	((5.474320e-11 -8.040491e-10 1.347475e-07) (-1.273616e-09 -1.485351e-09 9.106693e-07)) ((1.191294e-13 -3.599116e-12 -1.530683e-14) (-8.356972e-11 7.379148e-11 -2.813706e-12))
2131.859024   	((5.483901e-11 -8.040551e-10 1.347465e-07) (-1.273635e-09 -1.485419e-09 9.106692e-07)) ((1.191765e-13 -3.599135e-12 -1.530543e-14) (-8.357351e-11 7.379282e-11 -2.813681e-12))
2173.571723   	((5.492101e-11 -8.040679e-10 1.347474e-07) (-1.273655e-09 -1.485487e-09 9.106692e-07)) ((1.192236e-13 -3.599148e-12 -1.530403e-14) (-8.357733e-11 7.379414e-11 -2.813657e-12))
2215.284422   	((5.499725e-11 -8.040778e-10 1.347463e-07) (-1.273674e-09 -1.485555e-09 9.106692e-07)) ((1.192707e-13 -3.599167e-12 -1.530263e-14) (-8.358115e-11 7.379543e-11 -2.813632e-12))
2256.99712    	((5.506129e-11 -8.040941e-10 1.347472e-07) (-1.273693e-09 -1.485624e-09 9.106691e-07)) ((1.193179e-13 -3.599178e-12 -1.530123e-14) (-8.358499e-11 7.379670e-11 -2.813607e-12))
2298.709819   	((5.512150e-11 -8.041067e-10 1.347462e-07) (-1.273713e-09 -1.485693e-09 9.106691e-07)) ((1.193652e-13 -3.599196e-12 -1.529983e-14) (-8.358884e-11 7.379794e-11 -2.813582e-12))
2340.422518   	((5.517048e-11 -8.041255e-10 1.347471e-07) (-1.273732e-09 -1.485763e-09 9.106690e-07)) ((1.194126e-13 -3.599207e-12 -1.529843e-14) (-8.359273e-11 7.379918e-11 -2.813556e-12))
2382.135216   	((5.521732e-11 -8.041399e-10 1.347462e-07) (-1.273751e-09 -1.485833e-09 9.106690e-07)) ((1.194602e-13 -3.599225e-12 -1.529703e-14) (-8.359661e-11 7.380041e-11 -2.813531e-12))
2423.847915   	((5.525393e-11 -8.041605e-10 1.347471e-07) (-1.273771e-09 -1.485903e-09 9.106689e-07)) ((1.195078e-13 -3.599235e-12 -1.529563e-14) (-8.360053e-11 7.380164e-11 -2.813505e-12))
2465.560613   	((5.528990e-11 -8.041760e-10 1.347462e-07) (-1.273791e-09 -1.485973e-09 9.106689e-07)) ((1.195556e-13 -3.599252e-12 -1.529422e-14) (-8.360446e-11 7.380286e-11 -2.813480e-12))
2507.273312   	((5.531657e-11 -8.041976e-10 1.347471e-07) (-1.273812e-09 -1.486044e-09 9.106689e-07)) ((1.196035e-13 -3.599262e-12 -1.529281e-14) (-8.360841e-11 7.380410e-11 -2.813455e-12))
2548.98601    	((5.534395e-11 -8.042137e-10 1.347461e-07) (-1.273832e-09 -1.486115e-09 9.106688e-07)) ((1.196516e-13 -3.599279e-12 -1.529139e-14) (-8.361237e-11 7.380533e-11 -2.813430e-12))
2590.698708   	((5.536283e-11 -8.042359e-10 1.347471e-07) (-1.273854e-09 -1.486187e-09 9.106688e-07)) ((1.196997e-13 -3.599289e-12 -1.528997e-14) (-8.361635e-11 7.380658e-11 -2.813405e-12))
2632.411406   	((5.538350e-11 -8.042523e-10 1.347461e-07) (-1.273875e-09 -1.486258e-09 9.106687e-07)) ((1.197480e-13 -3.599306e-12 -1.528854e-14) (-8.362034e-11 7.380783e-11 -2.813381e-12))
2674.124105   	((5.539632e-11 -8.042747e-10 1.347471e-07) (-1.273896e-09 -1.486330e-09 9.106687e-07)) ((1.197964e-13 -3.599315e-12 -1.528711e-14) (-8.362435e-11 7.380909e-11 -2.813357e-12))
2715.836803   	((5.541179e-11 -8.042911e-10 1.347462e-07) (-1.273918e-09 -1.486402e-09 9.106687e-07)) ((1.198449e-13 -3.599331e-12 -1.528566e-14) (-8.362836e-11 7.381034e-11 -2.813332e-12))
2757.549501   	((5.541990e-11 -8.043137e-10 1.347471e-07) (-1.273940e-09 -1.486475e-09 9.106686e-07)) ((1.198934e-13 -3.599341e-12 -1.528422e-14) (-8.363240e-11 7.381162e-11 -2.813308e-12))
2799.262199   	((5.543165e-11 -8.043290e-10 1.347462e-07) (-1.273962e-09 -1.486547e-09 9.106686e-07)) ((1.199417e-13 -3.599357e-12 -1.528279e-14) (-8.363641e-11 7.381288e-11 -2.813284e-12))
2840.974897   	((5.544140e-11 -8.043362e-10 1.347471e-07) (-1.273975e-09 -1.486589e-09 9.106686e-07)) ((1.199573e-13 -3.599358e-12 -1.528241e-14) (-8.363881e-11 7.381364e-11 -2.813266e-12))
2882.687596   	((5.545577e-11 -8.043356e-10 1.347462e-07) (-1.273976e-09 -1.486596e-09 9.106685e-07)) ((1.199569e-13 -3.599361e-12 -1.528225e-14) (-8.363930e-11 7.381377e-11 -2.813270e-12))
2924.400294   	((5.546336e-11 -8.043415e-10 1.347470e-07) (-1.273977e-09 -1.486599e-09 9.106685e-07)) ((1.199573e-13 -3.599358e-12 -1.528222e-14) (-8.363947e-11 7.381381e-11 -2.813264e-12))
2966.112992   	((5.547521e-11 -8.043404e-10 1.347461e-07) (-1.273976e-09 -1.486600e-09 9.106685e-07)) ((1.199574e-13 -3.599362e-12 -1.528222e-14) (-8.363955e-11 7.381382e-11 -2.813258e-12))
3007.82569    	((5.548067e-11 -8.043455e-10 1.347470e-07) (-1.273976e-09 -1.486601e-09 9.106685e-07)) ((1.199575e-13 -3.599359e-12 -1.528224e-14) (-8.363960e-11 7.381383e-11 -2.813254e-12))
3049.538388   	((5.549064e-11 -8.043439e-10 1.347461e-07) (-1.273976e-09 -1.486602e-09 9.106685e-07)) ((1.199576e-13 -3.599362e-12 -1.528226e-14) (-8.363963e-11 7.381383e-11 -2.813251e-12))
3091.251086   	((5.549437e-11 -8.043486e-10 1.347470e-07) (-1.273976e-09 -1.486602e-09 9.106685e-07)) ((1.199578e-13 -3.599359e-12 -1.528228e-14) (-8.363965e-11 7.381383e-11 -2.813249e-12))
3132.963784   	((5.550283e-11 -8.043466e-10 1.347461e-07) (-1.273975e-09 -1.486603e-09 9.106685e-07)) ((1.199579e-13 -3.599363e-12 -1.528229e-14) (-8.363966e-11 7.381383e-11 -2.813247e-12))
3174.676482   	((5.550519e-11 -8.043510e-10 1.347470e-07) (-1.273975e-09 -1.486603e-09 9.106685e-07)) ((1.199579e-13 -3.599360e-12 -1.528231e-14) (-8.363968e-11 7.381383e-11 -2.813245e-12))
3216.38918    	((5.551247e-11 -8.043488e-10 1.347461e-07) (-1.273975e-09 -1.486603e-09 9.106685e-07)) ((1.199580e-13 -3.599363e-12 -1.528233e-14) (-8.363968e-11 7.381382e-11 -2.813244e-12))
3258.101878   	((5.551374e-11 -8.043531e-10 1.347470e-07) (-1.273975e-09 -1.486603e-09 9.106685e-07)) ((1.199581e-13 -3.599360e-12 -1.528234e-14) (-8.363969e-11 7.381383e-11 -2.813242e-12))
3299.814576   	((5.552007e-11 -8.043507e-10 1.347461e-07) (-1.273974e-09 -1.486603e-09 9.106685e-07)) ((1.199582e-13 -3.599364e-12 -1.528235e-14) (-8.363969e-11 7.381382e-11 -2.813241e-12))
3341.527274   	((5.552048e-11 -8.043549e-10 1.347470e-07) (-1.273974e-09 -1.486603e-09 9.106685e-07)) ((1.199583e-13 -3.599361e-12 -1.528237e-14) (-8.363970e-11 7.381382e-11 -2.813240e-12))
3383.239972   	((5.552606e-11 -8.043523e-10 1.347461e-07) (-1.273974e-09 -1.486603e-09 9.106685e-07)) ((1.199584e-13 -3.599364e-12 -1.528237e-14) (-8.363970e-11 7.381382e-11 -2.813239e-12))
3424.95267    	((5.552579e-11 -8.043563e-10 1.347470e-07) (-1.273974e-09 -1.486604e-09 9.106685e-07)) ((1.199584e-13 -3.599361e-12 -1.528239e-14) (-8.363971e-11 7.381382e-11 -2.813239e-12))
3466.665368   	((5.553078e-11 -8.043537e-10 1.347461e-07) (-1.273973e-09 -1.486604e-09 9.106685e-07)) ((1.199585e-13 -3.599364e-12 -1.528239e-14) (-8.363970e-11 7.381381e-11 -2.813238e-12))
3508.378066   	((5.552997e-11 -8.043576e-10 1.347470e-07) (-1.273974e-09 -1.486604e-09 9.106685e-07)) ((1.199585e-13 -3.599361e-12 -1.528240e-14) (-8.363971e-11 7.381382e-11 -2.813237e-12))
3550.090764   	((5.553449e-11 -8.043548e-10 1.347461e-07) (-1.273973e-09 -1.486604e-09 9.106685e-07)) ((1.199586e-13 -3.599364e-12 -1.528241e-14) (-8.363970e-11 7.381381e-11 -2.813237e-12))
3591.803462   	((5.553327e-11 -8.043586e-10 1.347470e-07) (-1.273973e-09 -1.486604e-09 9.106685e-07)) ((1.199586e-13 -3.599361e-12 -1.528242e-14) (-8.363971e-11 7.381382e-11 -2.813236e-12))
