# Forces      
# CofR        : (0.000000e+00 0.000000e+00 0.000000e+00)
# Time        forces(pressure viscous)	moments(pressure viscous)
0             	((0.000000e+00 0.000000e+00 0.000000e+00) (-1.552294e-14 2.518629e-05 1.247009e-15)) ((0.000000e+00 0.000000e+00 0.000000e+00) (5.659096e-07 -9.443958e-17 -1.210765e-11))
0.012         	((-8.200739e-09 7.324667e-03 1.828087e-03) (-5.004734e-11 2.890084e-05 -1.061659e-08)) ((-8.638229e-08 6.229297e-09 -1.380887e-09) (8.340627e-07 2.566224e-14 -2.511663e-11))
0.0264        	((-1.247323e-07 -5.101622e-04 -1.177095e-04) (-1.673889e-10 2.948419e-05 -1.532173e-08)) ((6.102376e-09 -3.920137e-10 8.772131e-11) (9.337622e-07 2.117947e-12 -3.320506e-11))
0.04368       	((1.849788e-07 -1.530729e-03 -1.678160e-04) (-1.140164e-10 2.619948e-05 -1.320999e-08)) ((1.993351e-08 -5.716836e-10 3.767808e-10) (8.318598e-07 -3.275705e-12 -2.837205e-11))
0.064416      	((-5.784958e-08 -1.438465e-05 -6.068587e-05) (6.195310e-10 2.320504e-05 -7.458333e-09)) ((-9.780689e-11 -2.000125e-10 -2.161904e-11) (7.468256e-07 -6.296393e-12 -3.306388e-11))
0.0892992     	((1.598446e-08 2.012277e-05 -3.659540e-05) (8.887237e-10 2.142302e-05 -6.785888e-09)) ((-8.055955e-10 -1.228970e-10 -1.986124e-11) (7.059901e-07 -1.623769e-12 -3.319472e-11))
0.119159      	((2.225083e-09 -2.306258e-05 -2.276276e-05) (6.626151e-10 1.978182e-05 -9.653780e-09)) ((4.311416e-10 -7.202618e-11 4.795227e-12) (6.606419e-07 -2.243860e-13 -2.598202e-11))
0.154991      	((-9.708073e-09 -1.236992e-05 -1.450918e-05) (4.536868e-10 1.804311e-05 -1.062775e-08)) ((2.648182e-10 -4.409858e-11 -3.167631e-14) (6.102125e-07 -1.292092e-12 -1.890720e-11))
0.197989      	((1.102500e-08 -2.993727e-06 -9.224606e-06) (2.095815e-10 1.629056e-05 -1.234196e-08)) ((9.628799e-11 -2.589106e-11 2.045452e-13) (5.589256e-07 -2.055233e-12 -8.304926e-12))
0.249587      	((5.503910e-09 4.136376e-07 -5.962558e-06) (1.044470e-10 1.457334e-05 -1.480549e-08)) ((2.836564e-11 -1.535284e-11 -1.647112e-12) (5.076828e-07 -4.464653e-12 -4.043759e-13))
0.311504      	((-8.173530e-10 1.972887e-06 -3.887304e-06) (7.160791e-11 1.294358e-05 -1.778504e-08)) ((6.697406e-12 -8.396265e-12 -1.653684e-12) (4.575108e-07 -9.170656e-12 7.776275e-12))
0.385805      	((2.245210e-10 2.720940e-06 -2.611510e-06) (8.548501e-11 1.144321e-05 -2.087842e-08)) ((-3.525695e-13 -3.887948e-12 -1.282481e-12) (4.096543e-07 -1.312374e-11 1.319136e-11))
0.474966      	((1.138784e-10 3.083159e-06 -1.780922e-06) (9.506464e-11 1.010015e-05 -2.388179e-08)) ((-6.674669e-12 -1.058138e-12 -1.111877e-12) (3.653971e-07 -1.369767e-11 8.483617e-12))
0.581959      	((5.560633e-10 3.231984e-06 -1.280417e-06) (1.159427e-10 8.923242e-06 -2.694791e-08)) ((-1.182544e-11 3.971877e-13 -9.711620e-13) (3.254490e-07 -1.195777e-11 4.652357e-13))
0.710351      	((4.040795e-11 3.220317e-06 -9.707884e-07) (1.646952e-10 7.910253e-06 -2.986697e-08)) ((-1.518121e-11 1.348410e-12 -8.247627e-13) (2.901877e-07 -9.646222e-12 -3.350591e-12))
0.864421      	((-7.037640e-11 3.104915e-06 -7.989765e-07) (2.114227e-10 7.048236e-06 -3.232537e-08)) ((-1.655916e-11 1.846779e-12 -8.629939e-13) (2.596106e-07 -7.418000e-12 -4.827344e-12))
1.049306      	((-2.254773e-11 2.934320e-06 -6.983720e-07) (2.286120e-10 6.316445e-06 -3.446264e-08)) ((-1.646286e-11 2.118255e-12 -8.561904e-13) (2.332892e-07 -5.646968e-12 -4.839946e-12))
1.271167      	((1.314765e-10 2.743313e-06 -6.508992e-07) (2.300760e-10 5.693188e-06 -3.650460e-08)) ((-1.565382e-11 2.224138e-12 -7.668229e-13) (2.105778e-07 -3.943132e-12 -3.773134e-12))
1.5374        	((1.657983e-10 2.545915e-06 -6.312328e-07) (1.661832e-10 5.155883e-06 -3.873945e-08)) ((-1.459674e-11 2.261615e-12 -7.457503e-13) (1.908009e-07 -2.641022e-12 -3.604800e-12))
1.85688       	((2.655051e-10 2.352012e-06 -6.332367e-07) (8.957307e-11 4.684337e-06 -4.136500e-08)) ((-1.335122e-11 2.209764e-12 -7.363410e-13) (1.733713e-07 -2.095981e-12 -5.527192e-12))
2.240256      	((1.587796e-10 2.167613e-06 -6.449160e-07) (7.902131e-11 4.265210e-06 -4.430515e-08)) ((-1.230716e-11 2.133490e-12 -7.218934e-13) (1.578605e-07 -1.429173e-12 -8.648322e-12))
2.700307      	((2.138904e-10 1.995601e-06 -6.640249e-07) (1.016560e-10 3.890015e-06 -4.749946e-08)) ((-1.142333e-11 2.019840e-12 -7.075979e-13) (1.439698e-07 -1.118371e-12 -1.187944e-11))
3.252369      	((1.438699e-10 1.835926e-06 -6.845054e-07) (7.806779e-11 3.552727e-06 -5.093050e-08)) ((-1.054318e-11 1.873018e-12 -6.795841e-13) (1.314793e-07 -1.322131e-12 -1.352961e-11))
3.914842      	((9.184687e-11 1.686508e-06 -7.062287e-07) (3.241496e-11 3.248698e-06 -5.458259e-08)) ((-9.664116e-12 1.722086e-12 -6.257935e-13) (1.202192e-07 -8.149078e-13 -1.322381e-11))
4.709811      	((8.621225e-11 1.548254e-06 -7.271214e-07) (4.272127e-11 2.974512e-06 -5.848218e-08)) ((-8.868809e-12 1.582878e-12 -5.523991e-13) (1.100631e-07 -8.474895e-14 -1.277934e-11))
5.663773      	((1.682678e-11 1.421287e-06 -7.464061e-07) (5.508071e-11 2.727727e-06 -6.265803e-08)) ((-8.190502e-12 1.474297e-12 -4.895396e-13) (1.009188e-07 3.706330e-13 -1.243933e-11))
6.808528      	((-3.871963e-11 1.305697e-06 -7.623675e-07) (3.486542e-11 2.506198e-06 -6.713721e-08)) ((-7.623765e-12 1.372694e-12 -4.228814e-13) (9.270770e-08 9.217087e-13 -1.252282e-11))
8.182233      	((9.380656e-12 1.201335e-06 -7.753786e-07) (1.597056e-11 2.307574e-06 -7.191940e-08)) ((-7.134664e-12 1.275159e-12 -3.595176e-13) (8.534569e-08 1.285050e-12 -1.324938e-11))
9.83068       	((3.009972e-11 1.107454e-06 -7.855574e-07) (5.265632e-12 2.129248e-06 -7.698817e-08)) ((-6.685197e-12 1.185505e-12 -3.147463e-13) (7.873786e-08 1.238619e-12 -1.302900e-11))
11.808816     	((5.921043e-11 1.022772e-06 -7.937834e-07) (-1.419079e-11 1.968690e-06 -8.239917e-08)) ((-6.292723e-12 1.093130e-12 -2.796299e-13) (7.278934e-08 9.140193e-13 -1.098397e-11))
14.182579     	((-4.427293e-12 9.466940e-07 -8.000673e-07) (-4.672702e-11 1.823695e-06 -8.820143e-08)) ((-5.974052e-12 9.949412e-13 -2.500417e-13) (6.741770e-08 7.669638e-13 -8.421322e-12))
17.031095     	((4.257286e-11 8.789749e-07 -8.045883e-07) (-6.605665e-11 1.692455e-06 -9.440946e-08)) ((-5.714362e-12 9.125297e-13 -2.259869e-13) (6.255523e-08 7.571129e-13 -6.551479e-12))
20.449314     	((6.491689e-11 8.190167e-07 -8.073457e-07) (-7.088587e-11 1.573542e-06 -1.010579e-07)) ((-5.515644e-12 8.471365e-13 -2.125920e-13) (5.814842e-08 4.525822e-13 -5.431812e-12))
24.551176     	((2.931563e-11 7.663803e-07 -8.089494e-07) (-7.469311e-11 1.465931e-06 -1.081135e-07)) ((-5.383781e-12 7.916176e-13 -2.063947e-13) (5.415954e-08 5.533291e-14 -4.772444e-12))
29.473411     	((6.968932e-11 7.211398e-07 -8.084108e-07) (-7.727216e-11 1.368855e-06 -1.154751e-07)) ((-5.316142e-12 7.368827e-13 -2.079051e-13) (5.056018e-08 -3.169990e-13 -3.862198e-12))
35.380094     	((8.627850e-11 6.827631e-07 -8.068060e-07) (-8.549830e-11 1.281626e-06 -1.230584e-07)) ((-5.312698e-12 6.772090e-13 -2.151367e-13) (4.732509e-08 -4.365882e-13 -1.686306e-12))
42.468112     	((1.352533e-11 6.509714e-07 -8.036686e-07) (-9.329689e-11 1.203613e-06 -1.307373e-07)) ((-5.373429e-12 6.185130e-13 -2.275276e-13) (4.443159e-08 -1.169934e-13 6.415552e-13))
50.973735     	((3.451131e-11 6.254070e-07 -7.989476e-07) (-1.017352e-10 1.134181e-06 -1.383992e-07)) ((-5.499727e-12 5.664252e-13 -2.445323e-13) (4.185718e-08 2.446276e-13 3.420987e-12))
61.180482     	((9.243965e-11 6.056688e-07 -7.926289e-07) (-1.060122e-10 1.072690e-06 -1.459575e-07)) ((-5.689043e-12 5.206655e-13 -2.646628e-13) (3.957947e-08 3.070538e-13 6.966217e-12))
73.428578     	((1.643713e-10 5.917822e-07 -7.851653e-07) (-1.047536e-10 1.018581e-06 -1.533343e-07)) ((-5.945303e-12 4.830250e-13 -2.864089e-13) (3.757983e-08 -1.225623e-13 1.081112e-11))
88.126294     	((2.657056e-10 5.831698e-07 -7.765819e-07) (-1.078382e-10 9.713649e-07 -1.604748e-07)) ((-6.264305e-12 4.504828e-13 -3.105497e-13) (3.584241e-08 -9.403683e-13 1.488093e-11))
105.763553    	((3.863125e-10 5.793801e-07 -7.672073e-07) (-1.079148e-10 9.306322e-07 -1.673743e-07)) ((-6.639454e-12 4.249287e-13 -3.387431e-13) (3.435408e-08 -2.153263e-12 1.921835e-11))
126.928263    	((5.051724e-10 5.795238e-07 -7.569750e-07) (-1.055638e-10 8.960184e-07 -1.740292e-07)) ((-7.046841e-12 4.109973e-13 -3.694311e-13) (3.310218e-08 -3.676028e-12 2.354934e-11))
152.325916    	((5.939954e-10 5.831189e-07 -7.460247e-07) (-1.004971e-10 8.671848e-07 -1.803680e-07)) ((-7.456738e-12 4.057605e-13 -4.022655e-13) (3.207194e-08 -5.327256e-12 2.752959e-11))
182.803099    	((6.868182e-10 5.889665e-07 -7.345064e-07) (-9.262522e-11 8.436732e-07 -1.861988e-07)) ((-7.825205e-12 4.116055e-13 -4.328202e-13) (3.124158e-08 -7.190230e-12 3.075343e-11))
218.495524    	((8.018134e-10 5.955955e-07 -7.219257e-07) (-7.240124e-11 8.249602e-07 -1.912230e-07)) ((-8.119350e-12 4.241881e-13 -4.560762e-13) (3.058448e-08 -9.037458e-12 3.284407e-11))
259.382056    	((9.155734e-10 6.011823e-07 -7.084615e-07) (-4.505929e-11 8.100941e-07 -1.952365e-07)) ((-8.341929e-12 4.383377e-13 -4.719676e-13) (3.006236e-08 -1.081308e-11 3.396540e-11))
305.451827    	((1.044695e-09 6.049889e-07 -6.942242e-07) (-1.042750e-11 7.981361e-07 -1.982527e-07)) ((-8.504718e-12 4.548520e-13 -4.817566e-13) (2.964081e-08 -1.259215e-11 3.423345e-11))
356.706172    	((1.123166e-09 6.070924e-07 -6.797431e-07) (3.064032e-11 7.883137e-07 -2.004278e-07)) ((-8.624105e-12 4.733366e-13 -4.893317e-13) (2.929565e-08 -1.425143e-11 3.372626e-11))
408.628718    	((1.183993e-09 6.085280e-07 -6.660768e-07) (7.136888e-11 7.802990e-07 -2.020091e-07)) ((-8.710982e-12 4.952483e-13 -4.969470e-13) (2.901579e-08 -1.570676e-11 3.285197e-11))
460.628323    	((1.216623e-09 6.091260e-07 -6.535940e-07) (1.101764e-10 7.736079e-07 -2.032357e-07)) ((-8.763020e-12 5.210178e-13 -5.026043e-13) (2.878454e-08 -1.692937e-11 3.170190e-11))
512.687399    	((1.230205e-09 6.094867e-07 -6.421548e-07) (1.448168e-10 7.680462e-07 -2.042356e-07)) ((-8.798175e-12 5.469914e-13 -5.071447e-13) (2.859386e-08 -1.782571e-11 3.040490e-11))
564.793007    	((1.220605e-09 6.096536e-07 -6.317326e-07) (1.733986e-10 7.633964e-07 -2.050731e-07)) ((-8.818143e-12 5.721657e-13 -5.112862e-13) (2.843567e-08 -1.844212e-11 2.900622e-11))
616.938501    	((1.194977e-09 6.097114e-07 -6.223631e-07) (1.969411e-10 7.595096e-07 -2.057874e-07)) ((-8.830511e-12 5.948716e-13 -5.145687e-13) (2.830432e-08 -1.877263e-11 2.757975e-11))
669.11907     	((1.157172e-09 6.096796e-07 -6.140290e-07) (2.154620e-10 7.562451e-07 -2.064077e-07)) ((-8.839447e-12 6.158478e-13 -5.169919e-13) (2.819462e-08 -1.888657e-11 2.608119e-11))
721.330074    	((1.105068e-09 6.096098e-07 -6.066932e-07) (2.276404e-10 7.535000e-07 -2.069500e-07)) ((-8.844547e-12 6.343664e-13 -5.195043e-13) (2.810283e-08 -1.876141e-11 2.460479e-11))
773.56713     	((1.049090e-09 6.095193e-07 -6.002548e-07) (2.349404e-10 7.511850e-07 -2.074234e-07)) ((-8.847796e-12 6.510000e-13 -5.217242e-13) (2.802588e-08 -1.839910e-11 2.315509e-11))
825.826357    	((9.899898e-10 6.094201e-07 -5.945992e-07) (2.375846e-10 7.492293e-07 -2.078356e-07)) ((-8.849473e-12 6.656820e-13 -5.234568e-13) (2.796128e-08 -1.789952e-11 2.172963e-11))
878.104437    	((9.280813e-10 6.093178e-07 -5.895989e-07) (2.370822e-10 7.475755e-07 -2.081965e-07)) ((-8.850426e-12 6.785456e-13 -5.249107e-13) (2.790686e-08 -1.726887e-11 2.033410e-11))
930.398552    	((8.680958e-10 6.092165e-07 -5.851754e-07) (2.332730e-10 7.461745e-07 -2.085116e-07)) ((-8.850554e-12 6.899207e-13 -5.260605e-13) (2.786092e-08 -1.653515e-11 1.903307e-11))
982.706303    	((8.075319e-10 6.091205e-07 -5.812670e-07) (2.275514e-10 7.449843e-07 -2.087857e-07)) ((-8.850292e-12 6.999715e-13 -5.270455e-13) (2.782208e-08 -1.572899e-11 1.777482e-11))
1035.025656   	((7.498430e-10 6.090278e-07 -5.778243e-07) (2.203157e-10 7.439718e-07 -2.090238e-07)) ((-8.850237e-12 7.087001e-13 -5.279508e-13) (2.778916e-08 -1.489437e-11 1.656543e-11))
1087.354877   	((6.941456e-10 6.089467e-07 -5.748079e-07) (2.122813e-10 7.431102e-07 -2.092299e-07)) ((-8.850277e-12 7.163156e-13 -5.287044e-13) (2.776124e-08 -1.404860e-11 1.542326e-11))
1139.692493   	((6.415772e-10 6.088698e-07 -5.721578e-07) (2.028805e-10 7.423753e-07 -2.094083e-07)) ((-8.850119e-12 7.231455e-13 -5.292796e-13) (2.773750e-08 -1.320215e-11 1.438616e-11))
1192.037256   	((5.931457e-10 6.088023e-07 -5.698405e-07) (1.924208e-10 7.417470e-07 -2.095629e-07)) ((-8.849756e-12 7.292219e-13 -5.296435e-13) (2.771727e-08 -1.237784e-11 1.345636e-11))
1244.388106   	((5.482380e-10 6.087412e-07 -5.678122e-07) (1.822287e-10 7.412097e-07 -2.096968e-07)) ((-8.849430e-12 7.344908e-13 -5.299756e-13) (2.769999e-08 -1.158747e-11 1.258694e-11))
1296.744144   	((5.076349e-10 6.086870e-07 -5.660400e-07) (1.724573e-10 7.407495e-07 -2.098128e-07)) ((-8.849079e-12 7.391141e-13 -5.302728e-13) (2.768523e-08 -1.082850e-11 1.178354e-11))
1349.104608   	((4.703560e-10 6.086378e-07 -5.644932e-07) (1.627054e-10 7.403550e-07 -2.099128e-07)) ((-8.848723e-12 7.431119e-13 -5.305451e-13) (2.767260e-08 -1.010756e-11 1.106958e-11))
1401.46885    	((4.369750e-10 6.085948e-07 -5.631460e-07) (1.532918e-10 7.400166e-07 -2.099992e-07)) ((-8.848369e-12 7.465655e-13 -5.307754e-13) (2.766179e-08 -9.435667e-12 1.042303e-11))
1453.836321   	((4.069235e-10 6.085565e-07 -5.619724e-07) (1.445192e-10 7.397260e-07 -2.100736e-07)) ((-8.848043e-12 7.495662e-13 -5.309877e-13) (2.765252e-08 -8.813874e-12 9.834975e-12))
1506.20655    	((3.803038e-10 6.085234e-07 -5.609512e-07) (1.363384e-10 7.394765e-07 -2.101379e-07)) ((-8.847760e-12 7.521704e-13 -5.311770e-13) (2.764458e-08 -8.243187e-12 9.307293e-12))
1558.579139   	((3.567056e-10 6.084941e-07 -5.600629e-07) (1.287987e-10 7.392621e-07 -2.101933e-07)) ((-8.847488e-12 7.544278e-13 -5.313380e-13) (2.763775e-08 -7.725001e-12 8.835745e-12))
1610.953748   	((3.359473e-10 6.084677e-07 -5.592907e-07) (1.220020e-10 7.390778e-07 -2.102412e-07)) ((-8.847262e-12 7.563842e-13 -5.314777e-13) (2.763189e-08 -7.255908e-12 8.410170e-12))
1663.330088   	((3.177005e-10 6.084447e-07 -5.586205e-07) (1.158702e-10 7.389194e-07 -2.102825e-07)) ((-8.847060e-12 7.580769e-13 -5.316075e-13) (2.762685e-08 -6.832702e-12 8.031856e-12))
1715.707912   	((3.016661e-10 6.084244e-07 -5.580393e-07) (1.103477e-10 7.387830e-07 -2.103180e-07)) ((-8.846859e-12 7.595414e-13 -5.317023e-13) (2.762252e-08 -6.453352e-12 7.697699e-12))
1768.08701    	((2.875919e-10 6.084073e-07 -5.575353e-07) (1.053965e-10 7.386657e-07 -2.103485e-07)) ((-8.846709e-12 7.608131e-13 -5.317775e-13) (2.761879e-08 -6.115806e-12 7.402476e-12))
1820.4672     	((2.752723e-10 6.083919e-07 -5.570984e-07) (1.010015e-10 7.385647e-07 -2.103748e-07)) ((-8.846551e-12 7.619286e-13 -5.318406e-13) (2.761559e-08 -5.816358e-12 7.140771e-12))
1872.848329   	((2.644371e-10 6.083785e-07 -5.567195e-07) (9.710994e-11 7.384776e-07 -2.103974e-07)) ((-8.846420e-12 7.628882e-13 -5.318915e-13) (2.761283e-08 -5.551101e-12 6.909572e-12))
1925.230265   	((2.549606e-10 6.083668e-07 -5.563913e-07) (9.366591e-11 7.384026e-07 -2.104169e-07)) ((-8.846310e-12 7.637186e-13 -5.319356e-13) (2.761045e-08 -5.316523e-12 6.705820e-12))
1977.612894   	((2.466234e-10 6.083563e-07 -5.561069e-07) (9.062722e-11 7.383380e-07 -2.104337e-07)) ((-8.846213e-12 7.644306e-13 -5.319735e-13) (2.760840e-08 -5.109431e-12 6.526502e-12))
2029.99612    	((2.393459e-10 6.083475e-07 -5.558608e-07) (8.796441e-11 7.382823e-07 -2.104482e-07)) ((-8.846137e-12 7.650446e-13 -5.320070e-13) (2.760664e-08 -4.927182e-12 6.368321e-12))
2082.379859   	((2.329604e-10 6.083396e-07 -5.556479e-07) (8.562195e-11 7.382343e-07 -2.104606e-07)) ((-8.846062e-12 7.655749e-13 -5.320370e-13) (2.760512e-08 -4.766985e-12 6.229287e-12))
2134.76404    	((2.273596e-10 6.083328e-07 -5.554637e-07) (8.357524e-11 7.381929e-07 -2.104713e-07)) ((-8.846007e-12 7.660316e-13 -5.320666e-13) (2.760380e-08 -4.626243e-12 6.106888e-12))
2187.148601   	((2.225433e-10 6.083274e-07 -5.553055e-07) (8.178849e-11 7.381572e-07 -2.104806e-07)) ((-8.845971e-12 7.664229e-13 -5.320918e-13) (2.760267e-08 -4.502835e-12 5.999025e-12))
2239.533489   	((2.182234e-10 6.083223e-07 -5.551674e-07) (8.022154e-11 7.381264e-07 -2.104885e-07)) ((-8.845931e-12 7.667629e-13 -5.321142e-13) (2.760170e-08 -4.394490e-12 5.904253e-12))
2291.918658   	((2.144778e-10 6.083180e-07 -5.550486e-07) (7.884689e-11 7.380998e-07 -2.104954e-07)) ((-8.845899e-12 7.670548e-13 -5.321343e-13) (2.760086e-08 -4.299456e-12 5.821150e-12))
2344.30407    	((2.111583e-10 6.083141e-07 -5.549455e-07) (7.764168e-11 7.380769e-07 -2.105013e-07)) ((-8.845872e-12 7.673077e-13 -5.321512e-13) (2.760013e-08 -4.216048e-12 5.748261e-12))
2396.68969    	((2.082572e-10 6.083109e-07 -5.548568e-07) (7.658502e-11 7.380571e-07 -2.105063e-07)) ((-8.845852e-12 7.675245e-13 -5.321661e-13) (2.759950e-08 -4.142879e-12 5.684299e-12))
2449.07549    	((2.056787e-10 6.083080e-07 -5.547794e-07) (7.565408e-11 7.380400e-07 -2.105107e-07)) ((-8.845833e-12 7.677125e-13 -5.321791e-13) (2.759896e-08 -4.078664e-12 5.628399e-12))
2501.461445   	((2.034309e-10 6.083056e-07 -5.547133e-07) (7.483608e-11 7.380253e-07 -2.105145e-07)) ((-8.845817e-12 7.678722e-13 -5.321906e-13) (2.759850e-08 -4.022323e-12 5.579450e-12))
2553.847533   	((2.014708e-10 6.083035e-07 -5.546561e-07) (7.411725e-11 7.380126e-07 -2.105177e-07)) ((-8.845805e-12 7.680097e-13 -5.322006e-13) (2.759809e-08 -3.972903e-12 5.536528e-12))
2606.233736   	((1.997405e-10 6.083017e-07 -5.546066e-07) (7.348663e-11 7.380017e-07 -2.105205e-07)) ((-8.845794e-12 7.681283e-13 -5.322091e-13) (2.759775e-08 -3.929523e-12 5.498890e-12))
2658.620037   	((1.981906e-10 6.083000e-07 -5.545643e-07) (7.293277e-11 7.379922e-07 -2.105229e-07)) ((-8.845783e-12 7.682284e-13 -5.322166e-13) (2.759745e-08 -3.891484e-12 5.465869e-12))
2711.006423   	((1.968531e-10 6.082986e-07 -5.545273e-07) (7.244595e-11 7.379841e-07 -2.105250e-07)) ((-8.845774e-12 7.683165e-13 -5.322228e-13) (2.759719e-08 -3.858096e-12 5.436927e-12))
2763.392881   	((1.956793e-10 6.082974e-07 -5.544952e-07) (7.201726e-11 7.379770e-07 -2.105268e-07)) ((-8.845767e-12 7.683928e-13 -5.322285e-13) (2.759696e-08 -3.828800e-12 5.411631e-12))
2815.779402   	((1.946357e-10 6.082964e-07 -5.544670e-07) (7.164074e-11 7.379709e-07 -2.105283e-07)) ((-8.845761e-12 7.684601e-13 -5.322335e-13) (2.759677e-08 -3.803081e-12 5.389480e-12))
2868.165978   	((1.937353e-10 6.082955e-07 -5.544433e-07) (7.130926e-11 7.379657e-07 -2.105297e-07)) ((-8.845758e-12 7.685152e-13 -5.322377e-13) (2.759660e-08 -3.780524e-12 5.370098e-12))
