# Forces      
# CofR        : (0.000000e+00 0.000000e+00 0.000000e+00)
# Time        forces(pressure viscous)	moments(pressure viscous)
0             	((0.000000e+00 0.000000e+00 0.000000e+00) (0.000000e+00 0.000000e+00 0.000000e+00)) ((0.000000e+00 0.000000e+00 0.000000e+00) (0.000000e+00 0.000000e+00 0.000000e+00))
0.012         	((7.546047e-10 1.217722e-06 -2.027597e-08) (-8.039079e-11 1.300458e-08 4.391964e-10)) ((-9.700210e-11 6.102075e-12 -1.776194e-08) (2.383287e-10 9.742653e-12 -3.366717e-05))
0.0264        	((-4.581269e-08 -4.160261e-07 -1.381518e-07) (-5.603571e-10 1.394752e-08 -3.236731e-09)) ((-2.173550e-10 1.937338e-11 -6.801652e-09) (3.665765e-10 1.328330e-11 -2.950850e-05))
0.04368       	((-1.568794e-08 2.081511e-07 -7.636729e-07) (-1.482935e-09 7.464434e-09 -9.885642e-09)) ((6.908008e-11 2.108046e-11 -4.862576e-09) (2.126777e-10 5.883754e-11 -2.568820e-05))
0.064416      	((-1.290706e-07 1.050193e-07 -1.281299e-06) (-3.267563e-09 3.431031e-10 -3.091109e-09)) ((-5.561402e-11 3.344676e-11 -4.167801e-09) (-5.150121e-11 1.436110e-10 -2.235865e-05))
0.0892992     	((-8.686191e-08 9.403887e-08 -2.082410e-06) (-5.460891e-09 -4.422235e-09 3.955704e-08)) ((1.406598e-11 3.836513e-11 -3.612083e-09) (-2.358099e-10 2.408336e-10 -1.959270e-05))
0.119159      	((-4.864314e-08 1.374808e-08 -2.782183e-06) (-8.247663e-09 -1.044642e-08 1.105829e-07)) ((1.610808e-12 4.158224e-11 -3.118778e-09) (-3.402704e-10 2.999253e-10 -1.734462e-05))
0.154991      	((-7.107357e-08 8.922812e-08 -3.621880e-06) (-9.824674e-09 -1.323713e-08 1.943571e-07)) ((1.406770e-11 4.337798e-11 -2.780655e-09) (-3.315031e-10 2.877766e-10 -1.546819e-05))
0.197989      	((-4.938240e-08 1.065219e-07 -4.558831e-06) (-1.239967e-08 -1.422259e-08 3.317804e-07)) ((4.966114e-12 4.637466e-11 -2.471604e-09) (-3.210439e-10 2.228437e-10 -1.377733e-05))
0.249587      	((-4.207540e-08 1.701809e-07 -5.442749e-06) (-1.609484e-08 -1.162618e-08 5.609624e-07)) ((1.763401e-11 5.451375e-11 -2.206482e-09) (-2.655848e-10 3.399812e-10 -1.221069e-05))
0.311504      	((-3.754660e-09 1.847992e-07 -6.223462e-06) (-1.508672e-08 -4.211291e-09 8.745069e-07)) ((1.304702e-11 5.309182e-11 -1.959159e-09) (-1.806379e-10 5.809078e-10 -1.080677e-05))
0.385805      	((4.226418e-08 2.113863e-07 -6.970785e-06) (-1.171466e-08 2.496593e-09 1.258022e-06)) ((-1.295825e-12 5.360604e-11 -1.737108e-09) (-9.384584e-11 6.443687e-10 -9.580743e-06))
0.474966      	((-1.643092e-09 2.361370e-07 -7.765225e-06) (-7.995796e-09 8.026193e-09 1.700318e-06)) ((-5.795899e-12 5.567257e-11 -1.527990e-09) (-6.188725e-11 5.483550e-10 -8.522398e-06))
0.581959      	((-8.440120e-08 2.450182e-07 -8.650508e-06) (-2.004468e-09 1.286341e-08 2.197009e-06)) ((-8.901009e-12 4.159661e-11 -1.346765e-09) (-4.500697e-11 5.578669e-10 -7.606932e-06))
0.710351      	((-8.667212e-08 1.902428e-07 -9.598367e-06) (-2.410266e-09 5.077006e-09 2.752136e-06)) ((-6.833826e-12 1.891019e-11 -1.202391e-09) (-1.270807e-10 6.788673e-10 -6.810169e-06))
0.864421      	((-1.322339e-07 1.722258e-07 -1.072905e-05) (-6.050374e-09 -1.126735e-09 3.366884e-06)) ((-1.241962e-11 1.873214e-13 -1.086607e-09) (-2.781201e-10 7.213268e-10 -6.116386e-06))
1.049306      	((-8.696703e-08 1.613400e-07 -1.185943e-05) (-6.920281e-09 -1.784093e-09 4.053386e-06)) ((-1.156328e-11 -1.570739e-11 -9.938550e-10) (-3.096468e-10 7.796741e-10 -5.517006e-06))
1.271167      	((-1.090224e-07 2.262020e-07 -1.297915e-05) (-1.192684e-08 4.493359e-10 4.807765e-06)) ((2.899378e-12 -3.066115e-11 -9.084338e-10) (-2.186406e-10 1.029825e-09 -5.005867e-06))
1.5374        	((-9.615399e-08 2.650275e-07 -1.408997e-05) (-2.502176e-08 1.501356e-08 5.591676e-06)) ((-2.871579e-12 -3.647186e-11 -8.239139e-10) (1.509338e-10 1.242401e-09 -4.575238e-06))
1.85688       	((-1.405630e-07 2.930760e-07 -1.524701e-05) (-2.907077e-08 3.398018e-08 6.386211e-06)) ((-7.312664e-12 -4.926327e-11 -7.469980e-10) (6.955550e-10 1.366506e-09 -4.213562e-06))
2.240256      	((-1.135237e-07 2.317037e-07 -1.653144e-05) (-3.608794e-08 4.890987e-08 7.198336e-06)) ((-1.808918e-12 -5.704523e-11 -6.813349e-10) (1.338559e-09 1.453037e-09 -3.906343e-06))
2.700307      	((-1.710114e-07 1.927926e-07 -1.805616e-05) (-3.300649e-08 7.698629e-08 8.026563e-06)) ((3.969193e-12 -6.974223e-11 -6.154190e-10) (1.891324e-09 1.671624e-09 -3.639185e-06))
3.252369      	((-1.746666e-07 1.656341e-07 -1.963123e-05) (-4.439240e-08 1.013365e-07 8.879816e-06)) ((7.767102e-12 -6.845672e-11 -5.553108e-10) (2.117686e-09 1.863901e-09 -3.400964e-06))
3.914842      	((-1.773669e-07 1.460774e-07 -2.138008e-05) (-4.646180e-08 1.001436e-07 9.768073e-06)) ((1.200023e-11 -7.538029e-11 -5.056735e-10) (2.184219e-09 1.837805e-09 -3.185092e-06))
4.709811      	((-1.680182e-07 9.506527e-08 -2.323642e-05) (-3.555927e-08 8.502854e-08 1.070904e-05)) ((1.549904e-11 -8.132854e-11 -4.628063e-10) (1.986373e-09 1.541921e-09 -2.988121e-06))
5.663773      	((-2.266296e-07 3.099353e-08 -2.531870e-05) (-2.244497e-08 5.755753e-08 1.170843e-05)) ((1.778517e-11 -8.080020e-11 -4.240397e-10) (1.506215e-09 1.079471e-09 -2.807739e-06))
6.808528      	((-2.577973e-07 -3.660020e-09 -2.738380e-05) (-2.001104e-08 2.685439e-08 1.278382e-05)) ((1.892988e-11 -8.246653e-11 -3.882839e-10) (8.542801e-10 6.815621e-10 -2.643127e-06))
8.175609      	((-2.677668e-07 -3.399041e-08 -2.937991e-05) (-1.439490e-08 1.056094e-08 1.393479e-05)) ((1.784440e-11 -9.199759e-11 -3.566151e-10) (3.578093e-10 5.285352e-10 -2.494796e-06))
9.770354      	((-2.727571e-07 -4.606056e-08 -3.130616e-05) (-1.330889e-08 6.518224e-09 1.510765e-05)) ((1.437466e-11 -1.038008e-10 -3.300502e-10) (2.702627e-10 5.759809e-10 -2.365388e-06))
11.597933     	((-2.764350e-07 -4.424577e-08 -3.313114e-05) (-9.964856e-09 7.949150e-09 1.627918e-05)) ((2.104263e-11 -1.220923e-10 -3.060936e-10) (6.499525e-10 5.309887e-10 -2.256262e-06))
13.66388      	((-2.607738e-07 1.340659e-08 -3.482531e-05) (-5.452093e-09 1.893208e-08 1.743815e-05)) ((3.076881e-11 -1.481430e-10 -2.871903e-10) (1.160160e-09 1.622237e-10 -2.167531e-06))
15.974827     	((-2.673829e-07 2.279703e-08 -3.632982e-05) (-5.287071e-09 3.053625e-08 1.856010e-05)) ((3.339274e-11 -1.750586e-10 -2.698702e-10) (1.551487e-09 -4.947420e-10 -2.097775e-06))
18.499771     	((-2.697445e-07 2.800110e-08 -3.759052e-05) (-3.427729e-10 2.918525e-08 1.964776e-05)) ((3.200350e-11 -2.023368e-10 -2.553202e-10) (1.792166e-09 -1.239565e-09 -2.044986e-06))
21.058896     	((-1.925747e-07 8.401756e-08 -3.873470e-05) (9.933474e-09 2.028604e-08 2.068669e-05)) ((2.766004e-11 -2.310936e-10 -2.415680e-10) (1.903313e-09 -2.057677e-09 -2.008243e-06))
23.61764      	((-1.221868e-07 1.455256e-07 -3.968178e-05) (2.473356e-08 1.480376e-08 2.170086e-05)) ((2.749030e-11 -2.585975e-10 -2.310401e-10) (1.940969e-09 -2.898545e-09 -1.984755e-06))
26.175992     	((-5.179366e-08 1.376232e-07 -4.042975e-05) (4.189920e-08 -6.320189e-11 2.269759e-05)) ((2.605655e-11 -2.849844e-10 -2.223845e-10) (1.732841e-09 -3.533561e-09 -1.972572e-06))
28.724698     	((-1.874347e-08 1.125168e-07 -4.092360e-05) (5.171868e-08 -1.690199e-08 2.366622e-05)) ((2.266157e-11 -3.150073e-10 -2.168953e-10) (1.497022e-09 -3.864326e-09 -1.970592e-06))
31.22669      	((-3.354063e-08 6.740927e-08 -4.112955e-05) (5.789736e-08 -2.924476e-08 2.460858e-05)) ((2.240293e-11 -3.441818e-10 -2.133707e-10) (1.247715e-09 -4.025402e-09 -1.978388e-06))
33.681858     	((-6.982272e-08 2.516131e-08 -4.109151e-05) (6.457410e-08 -4.253715e-08 2.551776e-05)) ((2.218914e-11 -3.757081e-10 -2.127823e-10) (9.723969e-10 -3.953646e-09 -1.995522e-06))
36.094132     	((-1.104031e-07 -1.025670e-08 -4.088432e-05) (6.052474e-08 -5.225811e-08 2.637317e-05)) ((2.147858e-11 -4.036283e-10 -2.163617e-10) (7.476010e-10 -3.742178e-09 -2.021205e-06))
38.465987     	((-1.533529e-07 -2.731290e-08 -4.063975e-05) (5.083697e-08 -5.820558e-08 2.717025e-05)) ((1.933533e-11 -4.310278e-10 -2.233035e-10) (5.585941e-10 -3.427490e-09 -2.054384e-06))
40.776784     	((-2.042355e-07 -1.979857e-08 -4.023903e-05) (3.495062e-08 -5.661177e-08 2.786077e-05)) ((2.055619e-11 -4.518665e-10 -2.327644e-10) (4.267634e-10 -3.023375e-09 -2.093642e-06))
43.034962     	((-2.420337e-07 4.655739e-09 -3.968785e-05) (2.294273e-08 -5.604570e-08 2.836946e-05)) ((2.495352e-11 -4.595834e-10 -2.442618e-10) (3.548510e-10 -2.457368e-09 -2.137018e-06))
45.248967     	((-2.568413e-07 6.473494e-08 -3.914296e-05) (9.446404e-09 -4.635068e-08 2.863959e-05)) ((2.772377e-11 -4.546122e-10 -2.548552e-10) (4.163791e-10 -1.876547e-09 -2.181746e-06))
47.419826     	((-2.491977e-07 1.367082e-07 -3.852149e-05) (4.545235e-09 -3.482375e-08 2.865000e-05)) ((2.749041e-11 -4.304728e-10 -2.639870e-10) (5.848832e-10 -1.567902e-09 -2.224331e-06))
49.552264     	((-2.862968e-07 2.064226e-07 -3.772523e-05) (-6.909598e-10 -1.799239e-08 2.841837e-05)) ((2.305789e-11 -3.964173e-10 -2.738894e-10) (8.906924e-10 -1.321080e-09 -2.261695e-06))
51.654479     	((-2.396278e-07 2.389284e-07 -3.670848e-05) (-7.819635e-09 -6.889057e-09 2.795609e-05)) ((2.072728e-11 -3.488992e-10 -2.834994e-10) (1.208881e-09 -1.232983e-09 -2.291464e-06))
53.73493      	((-1.668347e-07 2.295129e-07 -3.563709e-05) (-6.579274e-09 6.863766e-09 2.734314e-05)) ((1.888237e-11 -3.002750e-10 -2.894132e-10) (1.486901e-09 -1.408131e-09 -2.312111e-06))
55.795479     	((-1.032016e-07 1.809601e-07 -3.444229e-05) (2.939046e-09 1.585888e-08 2.666443e-05)) ((2.081353e-11 -2.533492e-10 -2.932789e-10) (1.565670e-09 -1.757073e-09 -2.323289e-06))
57.828621     	((-5.575230e-08 9.691797e-08 -3.348454e-05) (1.206439e-08 1.919087e-08 2.600446e-05)) ((2.529563e-11 -2.294224e-10 -2.957806e-10) (1.304070e-09 -2.118329e-09 -2.325756e-06))
59.84886      	((-5.319225e-08 3.374789e-08 -3.260841e-05) (1.692879e-08 1.976811e-08 2.544000e-05)) ((2.787018e-11 -2.204452e-10 -2.952414e-10) (9.279417e-10 -2.391153e-09 -2.321016e-06))
