# Forces      
# CofR        : (0.000000e+00 0.000000e+00 0.000000e+00)
# Time        forces(pressure viscous)	moments(pressure viscous)
0             	((0.000000e+00 0.000000e+00 0.000000e+00) (0.000000e+00 0.000000e+00 0.000000e+00)) ((0.000000e+00 0.000000e+00 0.000000e+00) (0.000000e+00 0.000000e+00 0.000000e+00))
0.012         	((-6.320189e-10 1.908825e-07 -2.615479e-09) (-2.049690e-11 2.128684e-09 6.750936e-12)) ((-1.395767e-11 1.267996e-13 -2.652680e-09) (4.035625e-11 1.272293e-12 -5.332474e-06))
0.0264        	((-2.828276e-10 -6.885607e-08 1.144999e-09) (-1.379096e-11 2.306336e-09 -4.735470e-11)) ((-3.261519e-11 8.112895e-13 -8.327356e-10) (7.102932e-11 1.341521e-12 -4.668279e-06))
0.04368       	((-5.566682e-09 3.366891e-08 -2.309259e-08) (-1.888455e-11 1.511148e-09 -1.736775e-10)) ((1.386251e-11 6.398419e-13 -4.687724e-10) (5.729696e-11 1.401822e-12 -4.041568e-06))
0.064416      	((-2.633752e-09 6.708923e-09 -3.248693e-08) (-8.785840e-11 7.919504e-10 -1.241614e-10)) ((-5.384917e-12 6.101779e-13 -3.405662e-10) (2.483736e-11 3.141432e-12 -3.471075e-06))
0.0892992     	((-2.019333e-09 1.605850e-08 -5.350451e-08) (-2.219561e-10 4.597112e-10 5.386418e-11)) ((3.549079e-12 1.377698e-12 -2.868672e-10) (7.476215e-12 7.315313e-12 -2.972519e-06))
0.119159      	((1.955273e-09 6.783815e-09 -7.630673e-08) (-3.795558e-10 3.879874e-10 8.529295e-10)) ((2.065061e-12 1.971519e-12 -2.352488e-10) (-8.105173e-12 1.075663e-11 -2.550205e-06))
0.154991      	((-2.636482e-09 1.648931e-08 -9.398763e-08) (-5.101176e-10 3.034111e-10 2.902027e-09)) ((2.823100e-12 1.476898e-12 -1.915814e-10) (-1.303992e-11 1.449191e-11 -2.201022e-06))
0.197989      	((5.439531e-11 1.282547e-08 -1.090083e-07) (-5.909300e-10 2.764544e-10 6.805531e-09)) ((3.003713e-12 1.620963e-12 -1.593656e-10) (-1.490894e-11 1.993235e-11 -1.915819e-06))
0.249587      	((-2.010559e-09 1.534622e-08 -1.262632e-07) (-7.386332e-10 1.266467e-10 1.242798e-08)) ((2.704885e-12 2.407485e-12 -1.386624e-10) (-1.462109e-11 2.554944e-11 -1.683388e-06))
0.311504      	((-8.114900e-09 1.798395e-08 -1.409935e-07) (-7.591244e-10 -1.152902e-10 1.900416e-08)) ((2.000928e-12 3.132145e-12 -1.248135e-10) (-1.240994e-11 3.101067e-11 -1.491330e-06))
0.385805      	((-9.493905e-09 2.148066e-08 -1.586796e-07) (-8.198722e-10 -3.111571e-10 2.654226e-08)) ((6.508583e-13 3.500891e-12 -1.114842e-10) (-7.588399e-12 3.404082e-11 -1.329984e-06))
0.474966      	((-1.234551e-08 2.257890e-08 -1.753031e-07) (-7.921359e-10 -5.526897e-10 3.501371e-08)) ((-5.407769e-14 3.593760e-12 -1.003669e-10) (-5.333917e-12 3.736279e-11 -1.192159e-06))
0.581959      	((-1.322336e-08 2.419175e-08 -1.952831e-07) (-3.640981e-10 -6.680293e-10 4.461463e-08)) ((-1.188941e-12 2.718384e-12 -9.245114e-11) (-3.051842e-12 3.971124e-11 -1.072571e-06))
0.710351      	((-1.514844e-08 2.342888e-08 -2.206714e-07) (1.026507e-10 -4.577780e-10 5.584788e-08)) ((-2.087995e-12 2.775942e-12 -8.580419e-11) (-2.797205e-12 3.266850e-11 -9.674014e-07))
0.864421      	((-1.805399e-08 2.750830e-08 -2.483000e-07) (4.733058e-10 -5.721557e-10 6.931129e-08)) ((-2.831804e-12 1.145173e-12 -7.938583e-11) (-1.003134e-11 1.925765e-11 -8.740115e-07))
1.049306      	((-1.247984e-08 2.360894e-08 -2.786095e-07) (8.079875e-10 -1.035420e-09 8.521979e-08)) ((-3.379252e-12 -1.894419e-13 -7.314596e-11) (-1.968159e-11 1.114751e-12 -7.908252e-07))
1.271167      	((-1.140318e-08 1.468630e-08 -3.079875e-07) (1.017755e-09 -1.874301e-09 1.033399e-07)) ((-3.312939e-12 -1.731023e-12 -6.775013e-11) (-3.444066e-11 -1.675756e-11 -7.170951e-07))
1.5374        	((-1.146279e-08 1.117717e-08 -3.358973e-07) (1.073791e-09 -2.610790e-09 1.235156e-07)) ((-2.753334e-12 -2.709973e-12 -6.274488e-11) (-5.417400e-11 -2.280194e-11 -6.524372e-07))
1.85688       	((-1.321387e-08 9.090873e-09 -3.622725e-07) (1.231232e-09 -2.976167e-09 1.450615e-07)) ((-2.391235e-12 -2.583042e-12 -5.826908e-11) (-7.262709e-11 -1.912472e-11 -5.963602e-07))
2.240256      	((-1.092356e-08 7.801629e-09 -3.934110e-07) (1.586117e-09 -3.089748e-09 1.672213e-07)) ((-2.502235e-12 -1.901991e-12 -5.395322e-11) (-8.504832e-11 -2.313615e-11 -5.479973e-07))
2.700307      	((-1.048513e-08 8.208670e-09 -4.307948e-07) (2.218416e-09 -3.015924e-09 1.902334e-07)) ((-1.964393e-12 -2.018743e-12 -4.977486e-11) (-9.265781e-11 -2.455758e-11 -5.061048e-07))
3.252369      	((-7.606217e-09 7.936726e-09 -4.765085e-07) (2.602060e-09 -2.747149e-09 2.144611e-07)) ((-1.731418e-12 -2.807890e-12 -4.585995e-11) (-8.855046e-11 -2.103075e-11 -4.693402e-07))
3.914842      	((-8.453912e-09 8.591136e-09 -5.287487e-07) (2.807801e-09 -2.073234e-09 2.401557e-07)) ((-1.004394e-12 -3.869911e-12 -4.205514e-11) (-7.249046e-11 -6.896828e-12 -4.365230e-07))
4.709811      	((-8.135401e-09 2.209925e-09 -5.939045e-07) (2.428656e-09 -1.623437e-09 2.671405e-07)) ((-3.009811e-13 -4.197423e-12 -3.834296e-11) (-6.005387e-11 7.020061e-12 -4.067663e-07))
5.663773      	((-9.572314e-09 -3.907501e-09 -6.646159e-07) (1.780019e-09 -1.569250e-09 2.961863e-07)) ((-1.407073e-13 -4.128998e-12 -3.502783e-11) (-5.355098e-11 9.514010e-12 -3.795137e-07))
6.808528      	((-1.138887e-08 -5.719747e-09 -7.394411e-07) (1.738470e-09 -1.842862e-09 3.273158e-07)) ((2.778044e-13 -4.088260e-12 -3.206214e-11) (-5.172771e-11 1.416312e-12 -3.543943e-07))
8.182233      	((-1.021011e-08 -4.493488e-09 -8.134853e-07) (1.874838e-09 -2.354767e-09 3.616145e-07)) ((6.146231e-13 -4.367451e-12 -2.944364e-11) (-6.033841e-11 -4.276344e-12 -3.311191e-07))
9.83068       	((-9.733788e-09 -2.524170e-09 -8.822181e-07) (2.187248e-09 -3.068706e-09 3.998034e-07)) ((1.117137e-12 -4.780047e-12 -2.711364e-11) (-7.580444e-11 -1.816594e-11 -3.094903e-07))
11.808816     	((-7.939691e-09 -1.542882e-10 -9.590763e-07) (2.676628e-09 -3.478826e-09 4.418521e-07)) ((1.192890e-12 -5.038862e-12 -2.497582e-11) (-8.520480e-11 -3.689986e-11 -2.894470e-07))
14.182579     	((-7.820927e-09 -2.240638e-09 -1.034848e-06) (2.630457e-09 -3.640094e-09 4.873982e-07)) ((1.169736e-12 -5.482287e-12 -2.288356e-11) (-8.455517e-11 -3.750694e-11 -2.710178e-07))
17.031095     	((-8.978078e-09 -3.027315e-09 -1.111096e-06) (2.402862e-09 -3.453768e-09 5.349200e-07)) ((1.098938e-12 -5.913695e-12 -2.098746e-11) (-6.553929e-11 -3.064268e-11 -2.542659e-07))
20.449314     	((-7.503261e-09 -3.798231e-09 -1.193778e-06) (2.213973e-09 -3.173432e-09 5.860923e-07)) ((1.049326e-12 -6.157496e-12 -1.933131e-11) (-4.138036e-11 -3.926205e-11 -2.392024e-07))
24.551176     	((-9.505002e-09 -4.404046e-09 -1.271781e-06) (2.034425e-09 -3.096839e-09 6.402452e-07)) ((1.194964e-12 -6.550218e-12 -1.784242e-11) (-2.768291e-11 -4.911724e-11 -2.257366e-07))
29.473411     	((-9.826740e-09 -6.336438e-09 -1.354051e-06) (1.798945e-09 -3.042092e-09 6.969729e-07)) ((1.270234e-12 -6.955064e-12 -1.658485e-11) (-1.915688e-11 -5.321808e-11 -2.137301e-07))
35.380094     	((-1.066926e-08 -4.490151e-09 -1.440145e-06) (1.411431e-09 -2.887977e-09 7.564263e-07)) ((1.461674e-12 -7.383891e-12 -1.550419e-11) (-1.612870e-11 -4.636151e-11 -2.030086e-07))
42.468112     	((-1.070533e-08 -4.562939e-09 -1.532033e-06) (8.596466e-10 -2.846565e-09 8.181393e-07)) ((1.495799e-12 -7.831342e-12 -1.456089e-11) (-1.103908e-11 -3.179179e-11 -1.933972e-07))
50.973735     	((-1.072278e-08 -3.912936e-09 -1.619925e-06) (4.327310e-10 -2.894341e-09 8.822443e-07)) ((1.348439e-12 -8.366180e-12 -1.370356e-11) (-4.306316e-13 -1.334765e-11 -1.847632e-07))
61.094206     	((-1.080308e-08 -4.231943e-09 -1.704363e-06) (-1.522671e-10 -2.899878e-09 9.488970e-07)) ((1.143414e-12 -8.832050e-12 -1.298354e-11) (1.211764e-11 8.417121e-12 -1.770524e-07))
72.829206     	((-1.137275e-08 -2.530627e-09 -1.787163e-06) (-7.041334e-10 -2.616077e-09 1.016776e-06)) ((9.140250e-13 -9.386475e-12 -1.235350e-11) (3.036185e-11 3.191842e-11 -1.702662e-07))
86.178361     	((-1.124231e-08 -1.741471e-09 -1.868210e-06) (-1.179551e-09 -2.156088e-09 1.084681e-06)) ((8.568797e-13 -9.920118e-12 -1.182219e-11) (5.934411e-11 5.156547e-11 -1.643863e-07))
101.141233    	((-9.867096e-09 -2.120381e-10 -1.943959e-06) (-1.590223e-09 -1.766578e-09 1.151897e-06)) ((7.671384e-13 -1.056345e-11 -1.134913e-11) (9.333436e-11 6.271613e-11 -1.593860e-07))
117.273021    	((-8.662447e-09 1.236298e-09 -2.012375e-06) (-1.678310e-09 -1.023053e-09 1.217539e-06)) ((6.382985e-13 -1.119047e-11 -1.092511e-11) (1.325486e-10 6.277442e-11 -1.552429e-07))
133.39857     	((-7.471694e-09 2.430958e-09 -2.075235e-06) (-1.375034e-09 1.635677e-11 1.280923e-06)) ((4.938846e-13 -1.176264e-11 -1.056863e-11) (1.705531e-10 5.011656e-11 -1.519394e-07))
149.517547    	((-5.952523e-09 3.288336e-09 -2.128040e-06) (-9.059361e-10 8.283332e-10 1.343164e-06)) ((4.975027e-13 -1.236837e-11 -1.023392e-11) (1.935582e-10 3.040732e-11 -1.493554e-07))
165.629481    	((-4.609131e-09 3.160071e-09 -2.168779e-06) (-2.545272e-10 1.268088e-09 1.403644e-06)) ((5.117160e-13 -1.292284e-11 -9.942608e-12) (2.054422e-10 6.246729e-12 -1.474041e-07))
181.733658    	((-3.876767e-09 2.600560e-09 -2.200202e-06) (2.481790e-10 1.417410e-09 1.461721e-06)) ((4.865730e-13 -1.347640e-11 -9.682963e-12) (2.095558e-10 -1.622768e-11 -1.460012e-07))
197.829563    	((-3.417639e-09 1.686033e-09 -2.222165e-06) (6.033300e-10 1.405756e-09 1.516982e-06)) ((5.320385e-13 -1.404991e-11 -9.472822e-12) (2.046346e-10 -3.650416e-11 -1.450832e-07))
213.91713     	((-3.313333e-09 4.951816e-10 -2.237409e-06) (9.582160e-10 1.306634e-09 1.569956e-06)) ((5.956715e-13 -1.459779e-11 -9.315252e-12) (1.957430e-10 -5.532176e-11 -1.445876e-07))
229.996261    	((-3.518788e-09 -5.018007e-10 -2.246194e-06) (9.675649e-10 1.040131e-09 1.620908e-06)) ((6.780012e-13 -1.513484e-11 -9.195464e-12) (1.821038e-10 -6.815010e-11 -1.444608e-07))
246.066619    	((-3.926158e-09 -1.521469e-09 -2.248717e-06) (9.447012e-10 8.386455e-10 1.669589e-06)) ((7.460653e-13 -1.571069e-11 -9.106520e-12) (1.667302e-10 -7.640171e-11 -1.446543e-07))
262.128041    	((-4.287115e-09 -2.138025e-09 -2.245770e-06) (8.509641e-10 7.355668e-10 1.715730e-06)) ((7.806969e-13 -1.627597e-11 -9.046830e-12) (1.544416e-10 -8.165058e-11 -1.451271e-07))
278.180669    	((-4.844074e-09 -2.445031e-09 -2.238466e-06) (7.511076e-10 6.881805e-10 1.758851e-06)) ((8.504186e-13 -1.679472e-11 -9.044740e-12) (1.453470e-10 -8.464677e-11 -1.458383e-07))
294.224496    	((-5.173182e-09 -2.521213e-09 -2.227098e-06) (7.395157e-10 6.813418e-10 1.798496e-06)) ((9.181482e-13 -1.722790e-11 -9.073704e-12) (1.376847e-10 -8.731684e-11 -1.467507e-07))
310.259509    	((-5.460652e-09 -2.639555e-09 -2.212757e-06) (7.027521e-10 7.920414e-10 1.834172e-06)) ((1.005748e-12 -1.764448e-11 -9.125184e-12) (1.309508e-10 -9.043516e-11 -1.478270e-07))
326.285968    	((-5.425571e-09 -2.743131e-09 -2.195424e-06) (7.482768e-10 8.617470e-10 1.865520e-06)) ((1.069879e-12 -1.799150e-11 -9.206171e-12) (1.237830e-10 -9.471154e-11 -1.490270e-07))
342.304078    	((-5.501845e-09 -3.038491e-09 -2.176244e-06) (8.741393e-10 9.408646e-10 1.892208e-06)) ((1.093236e-12 -1.828327e-11 -9.289701e-12) (1.155462e-10 -9.776042e-11 -1.503088e-07))
358.313766    	((-5.752140e-09 -3.699427e-09 -2.155253e-06) (9.839815e-10 8.344926e-10 1.913969e-06)) ((1.127977e-12 -1.851893e-11 -9.392489e-12) (1.063094e-10 -9.921251e-11 -1.516319e-07))
374.315233    	((-6.129235e-09 -4.204160e-09 -2.133345e-06) (1.062181e-09 6.969431e-10 1.930730e-06)) ((1.157429e-12 -1.865038e-11 -9.512998e-12) (9.542899e-11 -9.917343e-11 -1.529574e-07))
