# Forces      
# CofR        : (0.000000e+00 0.000000e+00 0.000000e+00)
# Time        forces(pressure viscous)	moments(pressure viscous)
0             	((0.000000e+00 0.000000e+00 0.000000e+00) (1.115228e-08 2.871524e-11 1.202289e-03)) ((0.000000e+00 0.000000e+00 0.000000e+00) (-7.541023e-12 6.948909e-10 -1.661550e-14))
0.012         	((1.565058e-05 2.262813e-06 1.032278e-01) (-1.904255e-09 9.864274e-09 1.012947e-03)) ((1.286934e-10 1.010755e-07 -9.272069e-12) (3.284800e-10 -1.775459e-09 -1.062678e-11))
0.0264        	((2.942611e-06 6.878651e-07 -1.252441e-02) (2.449220e-08 3.413014e-08 7.756967e-04)) ((2.227355e-10 -1.815351e-08 -2.608803e-11) (1.691947e-09 -2.900901e-09 -1.204408e-10))
0.04368       	((5.441000e-07 4.422120e-06 -2.213102e-02) (7.328290e-08 5.421794e-08 5.452303e-04)) ((-1.243362e-10 -3.919811e-08 -3.417960e-11) (2.603192e-09 -4.682320e-09 -3.825333e-10))
0.064416      	((-7.295086e-07 -3.069559e-06 -8.087296e-04) (5.210430e-08 4.415437e-08 4.138783e-04)) ((-1.768258e-10 -2.331828e-09 -1.347919e-11) (2.098747e-09 -3.007813e-09 -5.925436e-10))
0.0892992     	((-2.897307e-06 -8.573511e-07 3.873770e-04) (3.804178e-08 2.507881e-08 3.530579e-04)) ((-1.882611e-10 -1.435934e-11 1.403620e-11) (1.373616e-09 -1.561986e-09 -3.704082e-10))
0.119159      	((1.974668e-06 -6.750783e-07 -1.728105e-04) (4.040791e-08 1.306435e-08 3.038196e-04)) ((-8.462525e-12 -1.781399e-09 -2.391071e-11) (8.850330e-10 -2.557603e-09 -1.843436e-10))
0.154991      	((8.239135e-07 -6.131288e-07 -1.088630e-04) (2.281746e-08 9.309182e-09 2.614612e-04)) ((-6.262200e-11 -1.330848e-09 -5.658191e-13) (9.086457e-10 -2.518131e-09 -1.775401e-10))
0.197989      	((1.377452e-06 -4.227948e-07 -4.985386e-05) (2.093948e-08 1.290255e-08 2.276573e-04)) ((-5.733400e-11 -1.602621e-09 -5.368454e-12) (1.333190e-09 -2.850724e-09 -1.517626e-10))
0.249587      	((1.388610e-06 -4.047237e-07 -2.360070e-05) (3.567184e-08 1.829624e-08 2.002060e-04)) ((-6.259702e-11 -1.273104e-09 -5.703622e-13) (1.679865e-09 -3.968433e-09 -1.492606e-10))
0.311504      	((7.769677e-07 -2.610491e-07 -2.572886e-05) (4.744604e-08 2.325337e-08 1.773644e-04)) ((-5.424638e-11 -1.405051e-09 1.126974e-12) (2.023579e-09 -5.053035e-09 -2.002520e-10))
0.385805      	((1.004220e-06 -2.152013e-07 -1.862775e-05) (5.625089e-08 2.738145e-08 1.580412e-04)) ((-4.253747e-11 -1.246363e-09 2.414188e-12) (2.231220e-09 -5.738962e-09 -2.520359e-10))
0.474966      	((7.912825e-07 -1.362298e-07 -2.242613e-05) (5.964805e-08 3.102056e-08 1.416065e-04)) ((-3.217688e-11 -1.290432e-09 3.065506e-12) (2.332543e-09 -5.855222e-09 -2.133023e-10))
0.581959      	((7.499507e-07 -1.153205e-07 -2.190434e-05) (5.686947e-08 3.440267e-08 1.277718e-04)) ((-2.652118e-11 -1.266689e-09 1.451652e-12) (2.510943e-09 -5.488197e-09 -1.518351e-10))
0.710351      	((7.446130e-07 -7.001969e-08 -2.481003e-05) (5.982127e-08 3.694236e-08 1.163278e-04)) ((-1.436802e-11 -1.278388e-09 1.015597e-12) (2.623395e-09 -5.491250e-09 -1.110162e-10))
0.864421      	((7.668612e-07 -4.816784e-08 -2.503940e-05) (6.457808e-08 3.905345e-08 1.070368e-04)) ((-1.057899e-11 -1.244930e-09 1.180836e-12) (2.744014e-09 -5.678399e-09 -9.610162e-11))
1.049306      	((6.901627e-07 -2.736180e-08 -2.786782e-05) (6.947424e-08 4.062042e-08 9.953967e-05)) ((-1.369026e-11 -1.235348e-09 2.550487e-12) (2.917875e-09 -5.711441e-09 -8.327294e-11))
1.271167      	((6.749214e-07 -1.581694e-08 -2.972945e-05) (7.112243e-08 4.108095e-08 9.349346e-05)) ((-1.422570e-11 -1.209791e-09 3.960858e-12) (2.959821e-09 -5.844746e-09 -6.844470e-11))
1.5374        	((6.148734e-07 -2.177271e-08 -3.167112e-05) (6.837539e-08 4.163335e-08 8.857664e-05)) ((-1.099479e-11 -1.186578e-09 5.234903e-12) (2.855607e-09 -5.638825e-09 -7.839909e-11))
1.85688       	((5.969389e-07 -2.667706e-08 -3.269172e-05) (6.525630e-08 4.060710e-08 8.455210e-05)) ((-9.913142e-12 -1.168398e-09 4.849335e-12) (2.734150e-09 -5.293620e-09 -1.234652e-10))
2.240256      	((5.581193e-07 -2.977284e-08 -3.338876e-05) (6.310482e-08 3.925757e-08 8.123742e-05)) ((-7.499100e-12 -1.166954e-09 4.954816e-12) (2.679374e-09 -5.099492e-09 -1.650867e-10))
2.700307      	((5.111975e-07 -2.704518e-08 -3.353304e-05) (6.185317e-08 4.012048e-08 7.851777e-05)) ((-1.844120e-12 -1.176901e-09 5.397085e-12) (2.731298e-09 -4.983511e-09 -1.923072e-10))
3.252369      	((5.182320e-07 -1.276137e-08 -3.360423e-05) (6.340559e-08 4.212231e-08 7.632035e-05)) ((1.080025e-12 -1.187930e-09 4.923982e-12) (2.892033e-09 -4.998461e-09 -1.887127e-10))
3.914842      	((5.306591e-07 -4.490019e-09 -3.340980e-05) (6.570112e-08 4.509501e-08 7.458789e-05)) ((1.552150e-12 -1.196442e-09 3.929623e-12) (3.161516e-09 -5.167644e-09 -1.874261e-10))
4.689135      	((5.148742e-07 1.955491e-09 -3.320663e-05) (6.843991e-08 4.878838e-08 7.329434e-05)) ((1.249944e-12 -1.204662e-09 4.212218e-12) (3.533712e-09 -5.492018e-09 -1.981518e-10))
5.575684      	((5.100886e-07 3.615430e-09 -3.286640e-05) (7.154255e-08 5.208113e-08 7.237831e-05)) ((2.585177e-12 -1.210625e-09 4.311272e-12) (3.879766e-09 -5.782360e-09 -1.817978e-10))
6.574793      	((5.081104e-07 -2.081371e-09 -3.252633e-05) (7.445439e-08 5.443989e-08 7.177643e-05)) ((2.983328e-12 -1.216417e-09 3.717060e-12) (4.142166e-09 -6.017094e-09 -1.582777e-10))
7.686618      	((5.240433e-07 -3.875269e-09 -3.214485e-05) (7.717492e-08 5.618550e-08 7.143718e-05)) ((2.990439e-12 -1.223156e-09 3.571473e-12) (4.364108e-09 -6.253703e-09 -1.391694e-10))
8.814069      	((5.159556e-07 -2.006500e-08 -3.189577e-05) (7.945334e-08 5.729407e-08 7.131712e-05)) ((3.586217e-12 -1.231978e-09 3.351767e-12) (4.524682e-09 -6.458938e-09 -1.283131e-10))
9.940539      	((5.145620e-07 -3.110952e-08 -3.171498e-05) (8.176308e-08 5.814095e-08 7.136709e-05)) ((3.269694e-12 -1.240645e-09 3.271878e-12) (4.669732e-09 -6.671438e-09 -1.266803e-10))
11.065135     	((5.121427e-07 -3.923869e-08 -3.166583e-05) (8.387729e-08 5.895786e-08 7.155702e-05)) ((3.321961e-12 -1.251173e-09 3.416866e-12) (4.817764e-09 -6.869362e-09 -1.280121e-10))
12.186983     	((5.168268e-07 -4.313478e-08 -3.165254e-05) (8.614386e-08 5.984560e-08 7.185304e-05)) ((3.626107e-12 -1.262267e-09 3.572875e-12) (4.964887e-09 -7.066876e-09 -1.310648e-10))
13.304979     	((5.223283e-07 -4.260023e-08 -3.166224e-05) (8.847140e-08 6.085450e-08 7.221538e-05)) ((4.246460e-12 -1.273256e-09 3.741887e-12) (5.111474e-09 -7.263008e-09 -1.346428e-10))
14.417795     	((5.298890e-07 -3.867845e-08 -3.157727e-05) (9.055678e-08 6.198195e-08 7.259610e-05)) ((4.843542e-12 -1.282191e-09 3.892830e-12) (5.250221e-09 -7.442621e-09 -1.365495e-10))
15.524244     	((5.392179e-07 -2.973829e-08 -3.137666e-05) (9.206242e-08 6.315119e-08 7.294520e-05)) ((5.328219e-12 -1.286853e-09 4.062379e-12) (5.370657e-09 -7.584633e-09 -1.369271e-10))
16.623861     	((5.500110e-07 -1.712761e-08 -3.103210e-05) (9.294483e-08 6.411011e-08 7.322166e-05)) ((5.628572e-12 -1.286157e-09 4.233703e-12) (5.457105e-09 -7.676225e-09 -1.366629e-10))
17.717375     	((5.558553e-07 -5.193131e-09 -3.063621e-05) (9.311498e-08 6.463562e-08 7.340342e-05)) ((5.628573e-12 -1.281354e-09 4.273267e-12) (5.492590e-09 -7.711082e-09 -1.375067e-10))
18.806739     	((5.543156e-07 -2.221598e-09 -3.032894e-05) (9.272748e-08 6.460837e-08 7.349477e-05)) ((5.776146e-12 -1.275225e-09 4.230008e-12) (5.476359e-09 -7.691772e-09 -1.407048e-10))
19.894519     	((5.411102e-07 -1.208866e-09 -3.022995e-05) (9.195923e-08 6.425448e-08 7.352080e-05)) ((6.060668e-12 -1.270452e-09 4.152684e-12) (5.426175e-09 -7.629772e-09 -1.432010e-10))
20.982979     	((5.367611e-07 -2.927904e-10 -3.034160e-05) (9.116957e-08 6.392700e-08 7.351381e-05)) ((6.095736e-12 -1.268111e-09 4.035150e-12) (5.372539e-09 -7.552994e-09 -1.447393e-10))
22.073265     	((5.436586e-07 3.314769e-09 -3.057028e-05) (9.072292e-08 6.380693e-08 7.349998e-05)) ((5.979912e-12 -1.268239e-09 3.974839e-12) (5.331294e-09 -7.496580e-09 -1.442677e-10))
23.165261     	((5.503095e-07 6.365045e-09 -3.077748e-05) (9.063830e-08 6.385428e-08 7.349164e-05)) ((5.874052e-12 -1.269454e-09 4.005218e-12) (5.304212e-09 -7.469727e-09 -1.415634e-10))
24.258166     	((5.563107e-07 6.889329e-09 -3.087422e-05) (9.072281e-08 6.394257e-08 7.348930e-05)) ((5.792298e-12 -1.270367e-09 4.019143e-12) (5.288502e-09 -7.463701e-09 -1.393218e-10))
25.351217     	((5.588247e-07 7.141654e-09 -3.087645e-05) (9.086228e-08 6.401095e-08 7.348938e-05)) ((5.700106e-12 -1.270645e-09 4.029549e-12) (5.280242e-09 -7.466732e-09 -1.383214e-10))
26.444083     	((5.574621e-07 6.086567e-09 -3.084988e-05) (9.097383e-08 6.405694e-08 7.348996e-05)) ((5.695018e-12 -1.270583e-09 4.037984e-12) (5.276118e-09 -7.469534e-09 -1.384787e-10))
27.536812     	((5.560601e-07 4.419983e-09 -3.084218e-05) (9.103363e-08 6.407933e-08 7.349147e-05)) ((5.720676e-12 -1.270586e-09 4.036657e-12) (5.273914e-09 -7.470500e-09 -1.390935e-10))
28.629515     	((5.553949e-07 3.723668e-09 -3.085280e-05) (9.106065e-08 6.409524e-08 7.349450e-05)) ((5.747401e-12 -1.270777e-09 4.035025e-12) (5.273135e-09 -7.470873e-09 -1.396372e-10))
29.722204     	((5.554864e-07 3.579404e-09 -3.086051e-05) (9.107805e-08 6.411126e-08 7.349852e-05)) ((5.763393e-12 -1.270964e-09 4.032656e-12) (5.273215e-09 -7.471776e-09 -1.399888e-10))
30.814828     	((5.557392e-07 3.738033e-09 -3.085688e-05) (9.109935e-08 6.413184e-08 7.350250e-05)) ((5.771031e-12 -1.271029e-09 4.031455e-12) (5.274130e-09 -7.473416e-09 -1.400978e-10))
31.907366     	((5.558094e-07 3.802897e-09 -3.085024e-05) (9.111751e-08 6.415411e-08 7.350590e-05)) ((5.781682e-12 -1.271018e-09 4.031859e-12) (5.275369e-09 -7.475021e-09 -1.401063e-10))
32.999836     	((5.557125e-07 3.859243e-09 -3.084707e-05) (9.112757e-08 6.417469e-08 7.350866e-05)) ((5.790028e-12 -1.271017e-09 4.032265e-12) (5.276524e-09 -7.475879e-09 -1.401062e-10))
34.092265     	((5.556988e-07 3.950490e-09 -3.084791e-05) (9.113075e-08 6.419263e-08 7.351088e-05)) ((5.797114e-12 -1.271036e-09 4.032058e-12) (5.277401e-09 -7.476108e-09 -1.401122e-10))
35.184667     	((5.558098e-07 4.033541e-09 -3.084790e-05) (9.113328e-08 6.420623e-08 7.351252e-05)) ((5.800092e-12 -1.271040e-09 4.032258e-12) (5.277929e-09 -7.476139e-09 -1.401067e-10))
36.277047     	((5.559515e-07 4.085176e-09 -3.084615e-05) (9.113878e-08 6.421581e-08 7.351358e-05)) ((5.801070e-12 -1.271019e-09 4.032475e-12) (5.278208e-09 -7.476205e-09 -1.400725e-10))
37.369414     	((5.560287e-07 4.111400e-09 -3.084501e-05) (9.114538e-08 6.422108e-08 7.351418e-05)) ((5.799998e-12 -1.270997e-09 4.032785e-12) (5.278236e-09 -7.476238e-09 -1.400320e-10))
38.461776     	((5.560902e-07 4.122461e-09 -3.084501e-05) (9.115194e-08 6.422293e-08 7.351447e-05)) ((5.798512e-12 -1.270982e-09 4.032865e-12) (5.278086e-09 -7.476216e-09 -1.399915e-10))
39.554141     	((5.561688e-07 4.117247e-09 -3.084567e-05) (9.115823e-08 6.422197e-08 7.351458e-05)) ((5.797447e-12 -1.270974e-09 4.032974e-12) (5.277809e-09 -7.476217e-09 -1.399563e-10))
40.646509     	((5.562280e-07 4.092513e-09 -3.084618e-05) (9.116380e-08 6.421897e-08 7.351458e-05)) ((5.796497e-12 -1.270967e-09 4.033037e-12) (5.277454e-09 -7.476257e-09 -1.399227e-10))
41.738882     	((5.562600e-07 4.065165e-09 -3.084669e-05) (9.116801e-08 6.421493e-08 7.351455e-05)) ((5.795797e-12 -1.270964e-09 4.033136e-12) (5.277084e-09 -7.476319e-09 -1.398928e-10))
42.831258     	((5.562586e-07 4.039281e-09 -3.084724e-05) (9.117045e-08 6.421057e-08 7.351452e-05)) ((5.795344e-12 -1.270965e-09 4.033244e-12) (5.276721e-09 -7.476360e-09 -1.398699e-10))
43.923637     	((5.562461e-07 4.015790e-09 -3.084768e-05) (9.117163e-08 6.420661e-08 7.351451e-05)) ((5.795480e-12 -1.270969e-09 4.033302e-12) (5.276401e-09 -7.476386e-09 -1.398517e-10))
45.016018     	((5.562310e-07 4.000008e-09 -3.084784e-05) (9.117202e-08 6.420328e-08 7.351452e-05)) ((5.795540e-12 -1.270972e-09 4.033394e-12) (5.276120e-09 -7.476401e-09 -1.398379e-10))
46.108398     	((5.562162e-07 3.992810e-09 -3.084786e-05) (9.117199e-08 6.420066e-08 7.351453e-05)) ((5.795563e-12 -1.270974e-09 4.033462e-12) (5.275885e-09 -7.476402e-09 -1.398269e-10))
47.200778     	((5.562143e-07 3.996235e-09 -3.084783e-05) (9.117194e-08 6.419881e-08 7.351456e-05)) ((5.795321e-12 -1.270975e-09 4.033550e-12) (5.275699e-09 -7.476399e-09 -1.398183e-10))
48.293157     	((5.562157e-07 4.000602e-09 -3.084781e-05) (9.117196e-08 6.419757e-08 7.351458e-05)) ((5.795021e-12 -1.270976e-09 4.033612e-12) (5.275554e-09 -7.476395e-09 -1.398111e-10))
49.385536     	((5.562197e-07 4.005289e-09 -3.084779e-05) (9.117208e-08 6.419675e-08 7.351461e-05)) ((5.794747e-12 -1.270976e-09 4.033665e-12) (5.275440e-09 -7.476393e-09 -1.398047e-10))
50.477914     	((5.562228e-07 4.008079e-09 -3.084778e-05) (9.117226e-08 6.419617e-08 7.351463e-05)) ((5.794528e-12 -1.270976e-09 4.033715e-12) (5.275346e-09 -7.476391e-09 -1.397988e-10))
51.570292     	((5.562249e-07 4.010178e-09 -3.084776e-05) (9.117244e-08 6.419572e-08 7.351465e-05)) ((5.794349e-12 -1.270976e-09 4.033758e-12) (5.275268e-09 -7.476388e-09 -1.397933e-10))
52.66267      	((5.562259e-07 4.011824e-09 -3.084775e-05) (9.117262e-08 6.419535e-08 7.351467e-05)) ((5.794212e-12 -1.270976e-09 4.033804e-12) (5.275199e-09 -7.476384e-09 -1.397883e-10))
53.755047     	((5.562272e-07 4.013399e-09 -3.084774e-05) (9.117278e-08 6.419503e-08 7.351468e-05)) ((5.794097e-12 -1.270976e-09 4.033838e-12) (5.275139e-09 -7.476378e-09 -1.397839e-10))
54.847424     	((5.562286e-07 4.014845e-09 -3.084774e-05) (9.117293e-08 6.419475e-08 7.351468e-05)) ((5.793988e-12 -1.270976e-09 4.033871e-12) (5.275086e-09 -7.476373e-09 -1.397797e-10))
55.939802     	((5.562298e-07 4.015984e-09 -3.084773e-05) (9.117306e-08 6.419450e-08 7.351469e-05)) ((5.793908e-12 -1.270976e-09 4.033899e-12) (5.275039e-09 -7.476368e-09 -1.397758e-10))
57.032179     	((5.562305e-07 4.016829e-09 -3.084773e-05) (9.117317e-08 6.419428e-08 7.351469e-05)) ((5.793842e-12 -1.270976e-09 4.033924e-12) (5.274999e-09 -7.476362e-09 -1.397721e-10))
58.124556     	((5.562311e-07 4.018138e-09 -3.084774e-05) (9.117325e-08 6.419409e-08 7.351469e-05)) ((5.793784e-12 -1.270976e-09 4.033943e-12) (5.274960e-09 -7.476357e-09 -1.397693e-10))
59.216934     	((5.562310e-07 4.019130e-09 -3.084774e-05) (9.117331e-08 6.419393e-08 7.351469e-05)) ((5.793717e-12 -1.270976e-09 4.033952e-12) (5.274925e-09 -7.476351e-09 -1.397667e-10))
60.309311     	((5.562318e-07 4.020948e-09 -3.084774e-05) (9.117336e-08 6.419381e-08 7.351470e-05)) ((5.793672e-12 -1.270976e-09 4.033982e-12) (5.274896e-09 -7.476347e-09 -1.397641e-10))
61.401688     	((5.562320e-07 4.021704e-09 -3.084775e-05) (9.117340e-08 6.419371e-08 7.351470e-05)) ((5.793625e-12 -1.270976e-09 4.033995e-12) (5.274871e-09 -7.476342e-09 -1.397618e-10))
62.494066     	((5.562323e-07 4.022726e-09 -3.084775e-05) (9.117344e-08 6.419364e-08 7.351470e-05)) ((5.793591e-12 -1.270976e-09 4.034006e-12) (5.274849e-09 -7.476338e-09 -1.397598e-10))
63.586443     	((5.562326e-07 4.023758e-09 -3.084775e-05) (9.117347e-08 6.419359e-08 7.351470e-05)) ((5.793566e-12 -1.270976e-09 4.034017e-12) (5.274831e-09 -7.476335e-09 -1.397581e-10))
64.67882      	((5.562331e-07 4.025667e-09 -3.084775e-05) (9.117349e-08 6.419350e-08 7.351470e-05)) ((5.793526e-12 -1.270976e-09 4.034024e-12) (5.274810e-09 -7.476331e-09 -1.397564e-10))
65.771198     	((5.562333e-07 4.026115e-09 -3.084775e-05) (9.117352e-08 6.419347e-08 7.351470e-05)) ((5.793456e-12 -1.270976e-09 4.034036e-12) (5.274794e-09 -7.476328e-09 -1.397551e-10))
66.863575     	((5.562334e-07 4.026291e-09 -3.084775e-05) (9.117354e-08 6.419345e-08 7.351470e-05)) ((5.793441e-12 -1.270976e-09 4.034044e-12) (5.274783e-09 -7.476325e-09 -1.397540e-10))
67.955952     	((5.562335e-07 4.026733e-09 -3.084775e-05) (9.117357e-08 6.419342e-08 7.351470e-05)) ((5.793433e-12 -1.270976e-09 4.034052e-12) (5.274771e-09 -7.476323e-09 -1.397528e-10))
69.04833      	((5.562337e-07 4.027421e-09 -3.084775e-05) (9.117359e-08 6.419341e-08 7.351470e-05)) ((5.793419e-12 -1.270976e-09 4.034059e-12) (5.274762e-09 -7.476321e-09 -1.397518e-10))
70.140707     	((5.562338e-07 4.027937e-09 -3.084775e-05) (9.117361e-08 6.419339e-08 7.351470e-05)) ((5.793400e-12 -1.270976e-09 4.034065e-12) (5.274753e-09 -7.476320e-09 -1.397509e-10))
71.233085     	((5.562339e-07 4.028391e-09 -3.084775e-05) (9.117363e-08 6.419337e-08 7.351470e-05)) ((5.793387e-12 -1.270976e-09 4.034070e-12) (5.274745e-09 -7.476318e-09 -1.397501e-10))
72.325462     	((5.562341e-07 4.028851e-09 -3.084775e-05) (9.117365e-08 6.419336e-08 7.351470e-05)) ((5.793368e-12 -1.270976e-09 4.034075e-12) (5.274738e-09 -7.476316e-09 -1.397492e-10))
73.417839     	((5.562342e-07 4.029147e-09 -3.084775e-05) (9.117366e-08 6.419335e-08 7.351470e-05)) ((5.793361e-12 -1.270976e-09 4.034079e-12) (5.274731e-09 -7.476315e-09 -1.397486e-10))
74.510217     	((5.562343e-07 4.029531e-09 -3.084775e-05) (9.117367e-08 6.419334e-08 7.351470e-05)) ((5.793348e-12 -1.270976e-09 4.034083e-12) (5.274726e-09 -7.476314e-09 -1.397480e-10))
75.602594     	((5.562343e-07 4.029873e-09 -3.084775e-05) (9.117368e-08 6.419334e-08 7.351470e-05)) ((5.793339e-12 -1.270976e-09 4.034087e-12) (5.274721e-09 -7.476313e-09 -1.397475e-10))
76.694971     	((5.562344e-07 4.030138e-09 -3.084775e-05) (9.117369e-08 6.419333e-08 7.351470e-05)) ((5.793332e-12 -1.270976e-09 4.034090e-12) (5.274716e-09 -7.476312e-09 -1.397470e-10))
77.787349     	((5.562345e-07 4.030485e-09 -3.084775e-05) (9.117370e-08 6.419332e-08 7.351470e-05)) ((5.793323e-12 -1.270976e-09 4.034092e-12) (5.274712e-09 -7.476311e-09 -1.397466e-10))
78.879726     	((5.562345e-07 4.030752e-09 -3.084775e-05) (9.117370e-08 6.419332e-08 7.351470e-05)) ((5.793315e-12 -1.270976e-09 4.034095e-12) (5.274709e-09 -7.476310e-09 -1.397462e-10))
79.972103     	((5.562346e-07 4.030975e-09 -3.084775e-05) (9.117371e-08 6.419331e-08 7.351470e-05)) ((5.793306e-12 -1.270976e-09 4.034097e-12) (5.274705e-09 -7.476309e-09 -1.397459e-10))
81.064481     	((5.562346e-07 4.031156e-09 -3.084775e-05) (9.117372e-08 6.419331e-08 7.351470e-05)) ((5.793299e-12 -1.270976e-09 4.034099e-12) (5.274702e-09 -7.476308e-09 -1.397456e-10))
82.156858     	((5.562346e-07 4.031283e-09 -3.084775e-05) (9.117372e-08 6.419330e-08 7.351470e-05)) ((5.793294e-12 -1.270976e-09 4.034101e-12) (5.274699e-09 -7.476308e-09 -1.397453e-10))
83.249236     	((5.562347e-07 4.031431e-09 -3.084775e-05) (9.117372e-08 6.419330e-08 7.351470e-05)) ((5.793290e-12 -1.270976e-09 4.034103e-12) (5.274697e-09 -7.476307e-09 -1.397450e-10))
84.341613     	((5.562347e-07 4.031578e-09 -3.084775e-05) (9.117373e-08 6.419329e-08 7.351470e-05)) ((5.793285e-12 -1.270976e-09 4.034104e-12) (5.274695e-09 -7.476306e-09 -1.397448e-10))
85.43399      	((5.562347e-07 4.031715e-09 -3.084775e-05) (9.117373e-08 6.419329e-08 7.351470e-05)) ((5.793281e-12 -1.270976e-09 4.034105e-12) (5.274693e-09 -7.476306e-09 -1.397446e-10))
86.526368     	((5.562348e-07 4.031829e-09 -3.084775e-05) (9.117374e-08 6.419329e-08 7.351470e-05)) ((5.793278e-12 -1.270976e-09 4.034107e-12) (5.274691e-09 -7.476305e-09 -1.397444e-10))
87.618745     	((5.562348e-07 4.031935e-09 -3.084775e-05) (9.117374e-08 6.419329e-08 7.351470e-05)) ((5.793274e-12 -1.270976e-09 4.034108e-12) (5.274689e-09 -7.476305e-09 -1.397442e-10))
88.711122     	((5.562348e-07 4.032027e-09 -3.084775e-05) (9.117374e-08 6.419329e-08 7.351470e-05)) ((5.793271e-12 -1.270976e-09 4.034109e-12) (5.274688e-09 -7.476305e-09 -1.397441e-10))
89.8035       	((5.562348e-07 4.032115e-09 -3.084775e-05) (9.117374e-08 6.419328e-08 7.351470e-05)) ((5.793269e-12 -1.270976e-09 4.034110e-12) (5.274686e-09 -7.476304e-09 -1.397439e-10))
90.895877     	((5.562349e-07 4.032192e-09 -3.084775e-05) (9.117374e-08 6.419328e-08 7.351470e-05)) ((5.793266e-12 -1.270976e-09 4.034110e-12) (5.274685e-09 -7.476304e-09 -1.397438e-10))
91.988254     	((5.562349e-07 4.032264e-09 -3.084775e-05) (9.117375e-08 6.419328e-08 7.351470e-05)) ((5.793264e-12 -1.270976e-09 4.034111e-12) (5.274684e-09 -7.476304e-09 -1.397437e-10))
93.080632     	((5.562349e-07 4.032326e-09 -3.084775e-05) (9.117375e-08 6.419328e-08 7.351470e-05)) ((5.793262e-12 -1.270976e-09 4.034112e-12) (5.274683e-09 -7.476304e-09 -1.397436e-10))
94.173009     	((5.562349e-07 4.032383e-09 -3.084775e-05) (9.117375e-08 6.419328e-08 7.351470e-05)) ((5.793260e-12 -1.270976e-09 4.034112e-12) (5.274682e-09 -7.476303e-09 -1.397435e-10))
95.265387     	((5.562349e-07 4.032433e-09 -3.084775e-05) (9.117375e-08 6.419328e-08 7.351470e-05)) ((5.793258e-12 -1.270976e-09 4.034113e-12) (5.274681e-09 -7.476303e-09 -1.397434e-10))
96.357764     	((5.562349e-07 4.032479e-09 -3.084775e-05) (9.117375e-08 6.419328e-08 7.351470e-05)) ((5.793257e-12 -1.270976e-09 4.034113e-12) (5.274681e-09 -7.476303e-09 -1.397434e-10))
97.450141     	((5.562349e-07 4.032520e-09 -3.084775e-05) (9.117375e-08 6.419327e-08 7.351470e-05)) ((5.793256e-12 -1.270976e-09 4.034114e-12) (5.274680e-09 -7.476303e-09 -1.397433e-10))
98.542519     	((5.562349e-07 4.032558e-09 -3.084775e-05) (9.117375e-08 6.419327e-08 7.351470e-05)) ((5.793254e-12 -1.270976e-09 4.034114e-12) (5.274679e-09 -7.476303e-09 -1.397432e-10))
99.634896     	((5.562349e-07 4.032591e-09 -3.084775e-05) (9.117375e-08 6.419327e-08 7.351470e-05)) ((5.793253e-12 -1.270976e-09 4.034114e-12) (5.274679e-09 -7.476302e-09 -1.397432e-10))
100.727273    	((5.562349e-07 4.032621e-09 -3.084775e-05) (9.117375e-08 6.419327e-08 7.351470e-05)) ((5.793252e-12 -1.270976e-09 4.034115e-12) (5.274678e-09 -7.476302e-09 -1.397431e-10))
101.819651    	((5.562350e-07 4.032648e-09 -3.084775e-05) (9.117376e-08 6.419327e-08 7.351470e-05)) ((5.793252e-12 -1.270976e-09 4.034115e-12) (5.274678e-09 -7.476302e-09 -1.397431e-10))
102.912028    	((5.562350e-07 4.032672e-09 -3.084775e-05) (9.117376e-08 6.419327e-08 7.351470e-05)) ((5.793251e-12 -1.270976e-09 4.034115e-12) (5.274678e-09 -7.476302e-09 -1.397430e-10))
104.004406    	((5.562350e-07 4.032694e-09 -3.084775e-05) (9.117376e-08 6.419327e-08 7.351470e-05)) ((5.793250e-12 -1.270976e-09 4.034116e-12) (5.274677e-09 -7.476302e-09 -1.397430e-10))
105.096783    	((5.562350e-07 4.032714e-09 -3.084775e-05) (9.117376e-08 6.419327e-08 7.351470e-05)) ((5.793249e-12 -1.270976e-09 4.034116e-12) (5.274677e-09 -7.476302e-09 -1.397430e-10))
106.18916     	((5.562350e-07 4.032732e-09 -3.084775e-05) (9.117376e-08 6.419327e-08 7.351470e-05)) ((5.793249e-12 -1.270976e-09 4.034116e-12) (5.274677e-09 -7.476302e-09 -1.397429e-10))
107.281538    	((5.562350e-07 4.032748e-09 -3.084775e-05) (9.117376e-08 6.419327e-08 7.351470e-05)) ((5.793248e-12 -1.270976e-09 4.034116e-12) (5.274676e-09 -7.476302e-09 -1.397429e-10))
108.373915    	((5.562350e-07 4.032763e-09 -3.084775e-05) (9.117376e-08 6.419327e-08 7.351470e-05)) ((5.793248e-12 -1.270976e-09 4.034116e-12) (5.274676e-09 -7.476302e-09 -1.397429e-10))
109.466292    	((5.562350e-07 4.032776e-09 -3.084775e-05) (9.117376e-08 6.419327e-08 7.351470e-05)) ((5.793247e-12 -1.270976e-09 4.034116e-12) (5.274676e-09 -7.476302e-09 -1.397429e-10))
110.55867     	((5.562350e-07 4.032788e-09 -3.084775e-05) (9.117376e-08 6.419327e-08 7.351470e-05)) ((5.793247e-12 -1.270976e-09 4.034116e-12) (5.274676e-09 -7.476302e-09 -1.397429e-10))
111.651047    	((5.562350e-07 4.032798e-09 -3.084775e-05) (9.117376e-08 6.419327e-08 7.351470e-05)) ((5.793247e-12 -1.270976e-09 4.034117e-12) (5.274676e-09 -7.476302e-09 -1.397428e-10))
112.743424    	((5.562350e-07 4.032808e-09 -3.084775e-05) (9.117376e-08 6.419327e-08 7.351470e-05)) ((5.793246e-12 -1.270976e-09 4.034117e-12) (5.274675e-09 -7.476302e-09 -1.397428e-10))
113.835802    	((5.562350e-07 4.032817e-09 -3.084775e-05) (9.117376e-08 6.419327e-08 7.351470e-05)) ((5.793246e-12 -1.270976e-09 4.034117e-12) (5.274675e-09 -7.476302e-09 -1.397428e-10))
114.928179    	((5.562350e-07 4.032824e-09 -3.084775e-05) (9.117376e-08 6.419327e-08 7.351470e-05)) ((5.793246e-12 -1.270976e-09 4.034117e-12) (5.274675e-09 -7.476302e-09 -1.397428e-10))
116.020557    	((5.562350e-07 4.032831e-09 -3.084775e-05) (9.117376e-08 6.419327e-08 7.351470e-05)) ((5.793246e-12 -1.270976e-09 4.034117e-12) (5.274675e-09 -7.476301e-09 -1.397428e-10))
117.112934    	((5.562350e-07 4.032838e-09 -3.084775e-05) (9.117376e-08 6.419327e-08 7.351470e-05)) ((5.793245e-12 -1.270976e-09 4.034117e-12) (5.274675e-09 -7.476301e-09 -1.397428e-10))
118.205311    	((5.562350e-07 4.032843e-09 -3.084775e-05) (9.117376e-08 6.419327e-08 7.351470e-05)) ((5.793245e-12 -1.270976e-09 4.034117e-12) (5.274675e-09 -7.476301e-09 -1.397428e-10))
119.297689    	((5.562350e-07 4.032849e-09 -3.084775e-05) (9.117376e-08 6.419327e-08 7.351470e-05)) ((5.793245e-12 -1.270976e-09 4.034117e-12) (5.274675e-09 -7.476301e-09 -1.397428e-10))
120.390066    	((5.562350e-07 4.032853e-09 -3.084775e-05) (9.117376e-08 6.419327e-08 7.351470e-05)) ((5.793245e-12 -1.270976e-09 4.034117e-12) (5.274675e-09 -7.476301e-09 -1.397427e-10))
121.482443    	((5.562350e-07 4.032857e-09 -3.084775e-05) (9.117376e-08 6.419327e-08 7.351470e-05)) ((5.793245e-12 -1.270976e-09 4.034117e-12) (5.274675e-09 -7.476301e-09 -1.397427e-10))
122.574821    	((5.562350e-07 4.032861e-09 -3.084775e-05) (9.117376e-08 6.419327e-08 7.351470e-05)) ((5.793245e-12 -1.270976e-09 4.034117e-12) (5.274675e-09 -7.476301e-09 -1.397427e-10))
123.667198    	((5.562350e-07 4.032865e-09 -3.084775e-05) (9.117376e-08 6.419327e-08 7.351470e-05)) ((5.793245e-12 -1.270976e-09 4.034117e-12) (5.274674e-09 -7.476301e-09 -1.397427e-10))
124.759576    	((5.562350e-07 4.032868e-09 -3.084775e-05) (9.117376e-08 6.419327e-08 7.351470e-05)) ((5.793245e-12 -1.270976e-09 4.034117e-12) (5.274674e-09 -7.476301e-09 -1.397427e-10))
125.851953    	((5.562350e-07 4.032870e-09 -3.084775e-05) (9.117376e-08 6.419327e-08 7.351470e-05)) ((5.793244e-12 -1.270976e-09 4.034117e-12) (5.274674e-09 -7.476301e-09 -1.397427e-10))
126.94433     	((5.562350e-07 4.032873e-09 -3.084775e-05) (9.117376e-08 6.419327e-08 7.351470e-05)) ((5.793244e-12 -1.270976e-09 4.034117e-12) (5.274674e-09 -7.476301e-09 -1.397427e-10))
128.036708    	((5.562350e-07 4.032875e-09 -3.084775e-05) (9.117376e-08 6.419327e-08 7.351470e-05)) ((5.793244e-12 -1.270976e-09 4.034117e-12) (5.274674e-09 -7.476301e-09 -1.397427e-10))
129.129085    	((5.562350e-07 4.032877e-09 -3.084775e-05) (9.117376e-08 6.419327e-08 7.351470e-05)) ((5.793244e-12 -1.270976e-09 4.034117e-12) (5.274674e-09 -7.476301e-09 -1.397427e-10))
130.221462    	((5.562350e-07 4.032879e-09 -3.084775e-05) (9.117376e-08 6.419327e-08 7.351470e-05)) ((5.793244e-12 -1.270976e-09 4.034117e-12) (5.274674e-09 -7.476301e-09 -1.397427e-10))
131.31384     	((5.562350e-07 4.032881e-09 -3.084775e-05) (9.117376e-08 6.419327e-08 7.351470e-05)) ((5.793244e-12 -1.270976e-09 4.034117e-12) (5.274674e-09 -7.476301e-09 -1.397427e-10))
132.406217    	((5.562350e-07 4.032882e-09 -3.084775e-05) (9.117376e-08 6.419327e-08 7.351470e-05)) ((5.793244e-12 -1.270976e-09 4.034117e-12) (5.274674e-09 -7.476301e-09 -1.397427e-10))
133.498594    	((5.562350e-07 4.032884e-09 -3.084775e-05) (9.117376e-08 6.419327e-08 7.351470e-05)) ((5.793244e-12 -1.270976e-09 4.034117e-12) (5.274674e-09 -7.476301e-09 -1.397427e-10))
134.590972    	((5.562350e-07 4.032885e-09 -3.084775e-05) (9.117376e-08 6.419327e-08 7.351470e-05)) ((5.793244e-12 -1.270976e-09 4.034117e-12) (5.274674e-09 -7.476301e-09 -1.397427e-10))
135.683349    	((5.562350e-07 4.032886e-09 -3.084775e-05) (9.117376e-08 6.419327e-08 7.351470e-05)) ((5.793244e-12 -1.270976e-09 4.034118e-12) (5.274674e-09 -7.476301e-09 -1.397427e-10))
136.775727    	((5.562350e-07 4.032887e-09 -3.084775e-05) (9.117376e-08 6.419327e-08 7.351470e-05)) ((5.793244e-12 -1.270976e-09 4.034118e-12) (5.274674e-09 -7.476301e-09 -1.397427e-10))
137.868104    	((5.562350e-07 4.032888e-09 -3.084775e-05) (9.117376e-08 6.419327e-08 7.351470e-05)) ((5.793244e-12 -1.270976e-09 4.034118e-12) (5.274674e-09 -7.476301e-09 -1.397427e-10))
138.960481    	((5.562350e-07 4.032889e-09 -3.084775e-05) (9.117376e-08 6.419327e-08 7.351470e-05)) ((5.793244e-12 -1.270976e-09 4.034118e-12) (5.274674e-09 -7.476301e-09 -1.397427e-10))
140.052859    	((5.562350e-07 4.032889e-09 -3.084775e-05) (9.117376e-08 6.419327e-08 7.351470e-05)) ((5.793244e-12 -1.270976e-09 4.034118e-12) (5.274674e-09 -7.476301e-09 -1.397427e-10))
141.145236    	((5.562350e-07 4.032890e-09 -3.084775e-05) (9.117376e-08 6.419327e-08 7.351470e-05)) ((5.793244e-12 -1.270976e-09 4.034118e-12) (5.274674e-09 -7.476301e-09 -1.397427e-10))
142.237613    	((5.562350e-07 4.032891e-09 -3.084775e-05) (9.117376e-08 6.419327e-08 7.351470e-05)) ((5.793244e-12 -1.270976e-09 4.034118e-12) (5.274674e-09 -7.476301e-09 -1.397427e-10))
143.329991    	((5.562350e-07 4.032891e-09 -3.084775e-05) (9.117376e-08 6.419327e-08 7.351470e-05)) ((5.793244e-12 -1.270976e-09 4.034118e-12) (5.274674e-09 -7.476301e-09 -1.397427e-10))
144.422368    	((5.562350e-07 4.032892e-09 -3.084775e-05) (9.117376e-08 6.419327e-08 7.351470e-05)) ((5.793244e-12 -1.270976e-09 4.034118e-12) (5.274674e-09 -7.476301e-09 -1.397427e-10))
145.514746    	((5.562350e-07 4.032892e-09 -3.084775e-05) (9.117376e-08 6.419327e-08 7.351470e-05)) ((5.793244e-12 -1.270976e-09 4.034118e-12) (5.274674e-09 -7.476301e-09 -1.397427e-10))
146.607123    	((5.562350e-07 4.032892e-09 -3.084775e-05) (9.117376e-08 6.419327e-08 7.351470e-05)) ((5.793244e-12 -1.270976e-09 4.034118e-12) (5.274674e-09 -7.476301e-09 -1.397427e-10))
147.6995      	((5.562350e-07 4.032893e-09 -3.084775e-05) (9.117376e-08 6.419327e-08 7.351470e-05)) ((5.793244e-12 -1.270976e-09 4.034118e-12) (5.274674e-09 -7.476301e-09 -1.397427e-10))
148.791878    	((5.562350e-07 4.032893e-09 -3.084775e-05) (9.117376e-08 6.419327e-08 7.351470e-05)) ((5.793244e-12 -1.270976e-09 4.034118e-12) (5.274674e-09 -7.476301e-09 -1.397427e-10))
149.884255    	((5.562350e-07 4.032893e-09 -3.084775e-05) (9.117376e-08 6.419327e-08 7.351470e-05)) ((5.793244e-12 -1.270976e-09 4.034118e-12) (5.274674e-09 -7.476301e-09 -1.397427e-10))
150.976632    	((5.562350e-07 4.032893e-09 -3.084775e-05) (9.117376e-08 6.419327e-08 7.351470e-05)) ((5.793244e-12 -1.270976e-09 4.034118e-12) (5.274674e-09 -7.476301e-09 -1.397427e-10))